/*--------------------------------*- C++ -*----------------------------------*\
| =========                 |                                                 |
| \\      /  F ield         | OpenFOAM: The Open Source CFD Toolbox           |
|  \\    /   O peration     | Version:  v1706                                 |
|   \\  /    A nd           | Web:      www.OpenFOAM.com                      |
|    \\/     M anipulation  |                                                 |
\*---------------------------------------------------------------------------*/
FoamFile
{
    version     2.0;
    format      ascii;
    class       volScalarField;
    location    "3.4e-05";
    object      kappatr;
}
// * * * * * * * * * * * * * * * * * * * * * * * * * * * * * * * * * * * * * //

dimensions      [1 1 -3 -1 0 0 0];


internalField   nonuniform List<scalar> 
30038
(
0.014593
0.014593
0.014593
0.014593
0.014593
0.014593
0.014593
0.014593
0.014593
0.014593
0.014593
0.014593
0.014593
0.014593
0.014593
0.014593
0.014593
0.014593
0.014593
0.014593
0.014593
0.014593
0.014593
0.014593
0.014593
0.014593
0.014593
0.014593
0.014593
0.014593
0.014593
0.014593
0.014593
0.014593
0.014593
0.014593
0.014593
0.014593
0.014593
0.014593
0.014593
0.014593
0.014593
0.014593
0.014593
0.014593
0.014593
0.014593
0.014593
0.014593
0.014593
0.014593
0.014593
0.014593
0.014593
0.014593
0.014593
0.014593
0.014593
0.014593
0.014593
0.014593
0.014593
0.014593
0.014593
0.014593
0.014593
0.014593
0.014593
0.014593
0.014593
0.014593
0.014593
0.014593
0.014593
0.014593
0.014593
0.014593
0.014593
0.014593
0.014593
0.014593
0.014593
0.014593
0.014593
0.014593
0.014593
0.014593
0.014593
0.014593
0.014593
0.014593
0.014593
0.014593
0.014593
0.014593
0.014593
0.014593
0.014593
0.014593
0.014593
0.014593
0.014593
0.014593
0.014593
0.014593
0.014593
0.014593
0.014593
0.014593
0.014593
0.014593
0.014593
0.014593
0.014593
0.014593
0.014593
0.014593
0.014593
0.014593
0.014593
0.014593
0.014593
0.014593
0.014593
0.014593
0.014593
0.014593
0.014593
0.014593
0.014593
0.014593
0.014593
0.014593
0.014593
0.014593
0.014593
0.014593
0.014593
0.014593
0.014593
0.014593
0.014593
0.014593
0.014593
0.014593
0.014593
0.014593
0.014593
0.014593
0.014593
0.014593
0.014593
0.014593
0.014593
0.014593
0.014593
0.014593
0.014593
0.014593
0.014593
0.014593
0.014593
0.014593
0.014593
0.014593
0.014593
0.014593
0.014593
0.014593
0.014593
0.014593
0.014593
0.014593
0.014593
0.014593
0.014593
0.014593
0.014593
0.014593
0.014593
0.014593
0.014593
0.014593
0.014593
0.014593
0.014593
0.014593
0.014593
0.014593
0.014593
0.014593
0.014593
0.014593
0.014593
0.014593
0.014593
0.014593
0.014593
0.014593
0.014593
0.014593
0.014593
0.014593
0.014593
0.014593
0.014593
0.014593
0.014593
0.014593
0.014593
0.014593
0.014593
0.014593
0.014593
0.014593
0.014593
0.014593
0.014593
0.014593
0.014593
0.014593
0.014593
0.014593
0.014593
0.014593
0.014593
0.014593
0.014593
0.014593
0.014593
0.014593
0.014593
0.014593
0.014593
0.014593
0.014593
0.014593
0.014593
0.014593
0.014593
0.014593
0.014593
0.014593
0.014593
0.014593
0.014593
0.014593
0.014593
0.014593
0.014593
0.014593
0.014593
0.014593
0.014593
0.014593
0.014593
0.014593
0.014593
0.014593
0.014593
0.014593
0.014593
0.014593
0.014593
0.014593
0.014593
0.014593
0.014593
0.014593
0.014593
0.014593
0.014593
0.014593
0.014593
0.014593
0.014593
0.014593
0.014593
0.014593
0.014593
0.014593
0.014593
0.014593
0.014593
0.014593
0.014593
0.014593
0.014593
0.014593
0.014593
0.014593
0.014593
0.014593
0.014593
0.014593
0.014593
0.014593
0.014593
0.014593
0.014593
0.014593
0.014593
0.014593
0.014593
0.014593
0.014593
0.014593
0.014593
0.014593
0.014593
0.014593
0.014593
0.014593
0.014593
0.014593
0.014593
0.014593
0.014593
0.014593
0.014593
0.014593
0.014593
0.014593
0.014593
0.014593
0.014593
0.014593
0.014593
0.014593
0.014593
0.014593
0.014593
0.014593
0.014593
0.014593
0.014593
0.014593
0.014593
0.014593
0.014593
0.014593
0.014593
0.014593
0.014593
0.014593
0.014593
0.014593
0.014593
0.014593
0.014593
0.014593
0.014593
0.014593
0.014593
0.014593
0.014593
0.014593
0.014593
0.014593
0.014593
0.014593
0.014593
0.014593
0.014593
0.014593
0.014593
0.014593
0.014593
0.014593
0.014593
0.014593
0.014593
0.014593
0.014593
0.014593
0.014593
0.014593
0.014593
0.014593
0.014593
0.014593
0.014593
0.014593
0.014593
0.014593
0.014593
0.014593
0.014593
0.014593
0.014593
0.014593
0.014593
0.014593
0.014593
0.014593
0.014593
0.014593
0.014593
0.014593
0.014593
0.014593
0.014593
0.014593
0.014593
0.014593
0.014593
0.014593
0.014593
0.014593
0.014593
0.014593
0.014593
0.014593
0.014593
0.014593
0.014593
0.014593
0.014593
0.014593
0.014593
0.014593
0.014593
0.014593
0.014593
0.014593
0.014593
0.014593
0.014593
0.014593
0.014593
0.014593
0.014593
0.014593
0.014593
0.014593
0.014593
0.014593
0.014593
0.014593
0.014593
0.014593
0.014593
0.014593
0.014593
0.014593
0.014593
0.014593
0.014593
0.014593
0.014593
0.014593
0.014593
0.014593
0.014593
0.014593
0.014593
0.014593
0.014593
0.014593
0.014593
0.014593
0.014593
0.014593
0.014593
0.014593
0.014593
0.014593
0.014593
0.014593
0.014593
0.014593
0.014593
0.014593
0.014593
0.014593
0.014593
0.014593
0.014593
0.014593
0.014593
0.014593
0.014593
0.014593
0.014593
0.014593
0.014593
0.014593
0.014593
0.014593
0.014593
0.014593
0.014593
0.014593
0.014593
0.014593
0.014593
0.014593
0.014593
0.014593
0.014593
0.014593
0.014593
0.014593
0.014593
0.014593
0.014593
0.014593
0.014593
0.014593
0.014593
0.014593
0.014593
0.014593
0.014593
0.014593
0.014593
0.014593
0.014593
0.014593
0.014593
0.014593
0.014593
0.014593
0.014593
0.014593
0.014593
0.014593
0.014593
0.014593
0.014593
0.014593
0.014593
0.014593
0.014593
0.014593
0.014593
0.014593
0.014593
0.014593
0.014593
0.014593
0.014593
0.014593
0.014593
0.014593
0.014593
0.014593
0.014593
0.014593
0.014593
0.014593
0.014593
0.014593
0.014593
0.014593
0.014593
0.014593
0.014593
0.014593
0.014593
0.014593
0.014593
0.014593
0.014593
0.014593
0.014593
0.014593
0.014593
0.014593
0.014593
0.014593
0.014593
0.014593
0.014593
0.014593
0.014593
0.014593
0.014593
0.014593
0.014593
0.014593
0.014593
0.014593
0.014593
0.014593
0.014593
0.014593
0.014593
0.014593
0.014593
0.014593
0.014593
0.014593
0.014593
0.014593
0.014593
0.014593
0.014593
0.014593
0.014593
0.014593
0.014593
0.014593
0.014593
0.014593
0.014593
0.014593
0.014593
0.014593
0.014593
0.014593
0.014593
0.014593
0.014593
0.014593
0.014593
0.014593
0.014593
0.014593
0.014593
0.014593
0.014593
0.014593
0.014593
0.014593
0.014593
0.014593
0.014593
0.014593
0.014593
0.014593
0.014593
0.014593
0.014593
0.014593
0.014593
0.014593
0.014593
0.014593
0.014593
0.014593
0.014593
0.014593
0.014593
0.014593
0.014593
0.014593
0.014593
0.014593
0.014593
0.014593
0.014593
0.014593
0.014593
0.014593
0.014593
0.014593
0.014593
0.014593
0.014593
0.014593
0.014593
0.014593
0.014593
0.014593
0.014593
0.014593
0.014593
0.014593
0.014593
0.014593
0.014593
0.014593
0.014593
0.014593
0.014593
0.014593
0.014593
0.014593
0.014593
0.014593
0.014593
0.014593
0.014593
0.014593
0.014593
0.014593
0.014593
0.014593
0.014593
0.014593
0.014593
0.014593
0.014593
0.014593
0.014593
0.014593
0.014593
0.014593
0.014593
0.014593
0.014593
0.014593
0.014593
0.014593
0.014593
0.014593
0.014593
0.014593
0.014593
0.014593
0.014593
0.014593
0.014593
0.014593
0.014593
0.014593
0.014593
0.014593
0.014593
0.014593
0.014593
0.014593
0.014593
0.014593
0.014593
0.014593
0.014593
0.014593
0.014593
0.014593
0.014593
0.014593
0.014593
0.014593
0.014593
0.014593
0.014593
0.014593
0.014593
0.014593
0.014593
0.014593
0.014593
0.014593
0.014593
0.014593
0.014593
0.014593
0.014593
0.014593
0.014593
0.014593
0.014593
0.014593
0.014593
0.014593
0.014593
0.014593
0.014593
0.014593
0.014593
0.014593
0.014593
0.014593
0.014593
0.014593
0.014593
0.014593
0.014593
0.014593
0.014593
0.014593
0.014593
0.014593
0.014593
0.014593
0.014593
0.014593
0.014593
0.014593
0.014593
0.014593
0.014593
0.014593
0.014593
0.014593
0.014593
0.014593
0.014593
0.014593
0.014593
0.014593
0.014593
0.014593
0.014593
0.014593
0.014593
0.014593
0.014593
0.014593
0.014593
0.014593
0.014593
0.014593
0.014593
0.014593
0.014593
0.014593
0.014593
0.014593
0.014593
0.014593
0.014593
0.014593
0.014593
0.014593
0.014593
0.014593
0.014593
0.014593
0.014593
0.014593
0.014593
0.014593
0.014593
0.014593
0.014593
0.014593
0.014593
0.014593
0.014593
0.014593
0.014593
0.014593
0.014593
0.014593
0.014593
0.014593
0.014593
0.014593
0.014593
0.014593
0.014593
0.014593
0.014593
0.014593
0.014593
0.014593
0.014593
0.014593
0.014593
0.014593
0.014593
0.014593
0.014593
0.014593
0.014593
0.014593
0.014593
0.014593
0.014593
0.014593
0.014593
0.014593
0.014593
0.014593
0.014593
0.014593
0.014593
0.014593
0.014593
0.014593
0.014593
0.014593
0.014593
0.014593
0.014593
0.014593
0.014593
0.014593
0.014593
0.014593
0.014593
0.014593
0.014593
0.014593
0.014593
0.014593
0.014593
0.014593
0.014593
0.014593
0.014593
0.014593
0.014593
0.014593
0.014593
0.014593
0.014593
0.014593
0.014593
0.014593
0.014593
0.014593
0.014593
0.014593
0.014593
0.014593
0.014593
0.014593
0.014593
0.014593
0.014593
0.014593
0.014593
0.014593
0.014593
0.014593
0.014593
0.014593
0.014593
0.014593
0.014593
0.014593
0.014593
0.014593
0.014593
0.014593
0.014593
0.014593
0.014593
0.014593
0.014593
0.014593
0.014593
0.014593
0.014593
0.014593
0.014593
0.014593
0.014593
0.014593
0.014593
0.014593
0.014593
0.014593
0.014593
0.014593
0.014593
0.014593
0.014593
0.014593
0.014593
0.014593
0.014593
0.014593
0.014593
0.014593
0.014593
0.014593
0.014593
0.014593
0.014593
0.014593
0.014593
0.014593
0.014593
0.014593
0.014593
0.014593
0.014593
0.014593
0.014593
0.014593
0.014593
0.014593
0.014593
0.014593
0.014593
0.014593
0.014593
0.014593
0.014593
0.014593
0.014593
0.014593
0.014593
0.014593
0.014593
0.014593
0.014593
0.014593
0.014593
0.014593
0.014593
0.014593
0.014593
0.014593
0.014593
0.014593
0.014593
0.014593
0.014593
0.014593
0.014593
0.014593
0.014593
0.014593
0.014593
0.014593
0.014593
0.014593
0.014593
0.014593
0.014593
0.014593
0.014593
0.014593
0.014593
0.014593
0.014593
0.014593
0.014593
0.014593
0.014593
0.014593
0.014593
0.014593
0.014593
0.014593
0.014593
0.014593
0.014593
0.014593
0.014593
0.014593
0.014593
0.014593
0.014593
0.014593
0.014593
0.014593
0.014593
0.014593
0.014593
0.014593
0.014593
0.014593
0.014593
0.014593
0.014593
0.014593
0.014593
0.014593
0.014593
0.014593
0.014593
0.014593
0.014593
0.014593
0.014593
0.014593
0.014593
0.014593
0.014593
0.014593
0.014593
0.014593
0.014593
0.014593
0.014593
0.014593
0.014593
0.014593
0.014593
0.014593
0.014593
0.014593
0.014593
0.014593
0.014593
0.014593
0.014593
0.014593
0.014593
0.014593
0.014593
0.014593
0.014593
0.014593
0.014593
0.014593
0.014593
0.014593
0.014593
0.014593
0.014593
0.014593
0.014593
0.014593
0.014593
0.014593
0.014593
0.014593
0.014593
0.014593
0.014593
0.014593
0.014593
0.014593
0.014593
0.014593
0.014593
0.014593
0.014593
0.014593
0.014593
0.014593
0.014593
0.014593
0.014593
0.014593
0.014593
0.014593
0.014593
0.014593
0.014593
0.014593
0.014593
0.014593
0.014593
0.014593
0.014593
0.014593
0.014593
0.014593
0.014593
0.014593
0.014593
0.014593
0.014593
0.014593
0.014593
0.014593
0.014593
0.014593
0.014593
0.014593
0.014593
0.014593
0.014593
0.014593
0.014593
0.014593
0.014593
0.014593
0.014593
0.014593
0.014593
0.014593
0.014593
0.014593
0.014593
0.014593
0.014593
0.014593
0.014593
0.014593
0.014593
0.014593
0.014593
0.014593
0.014593
0.014593
0.014593
0.014593
0.014593
0.014593
0.014593
0.014593
0.014593
0.014593
0.014593
0.014593
0.014593
0.014593
0.014593
0.014593
0.014593
0.0145931
0.014593
0.014593
0.014593
0.014593
0.014593
0.014593
0.014593
0.014593
0.014593
0.014593
0.014593
0.014593
0.014593
0.014593
0.014593
0.014593
0.014593
0.014593
0.014593
0.014593
0.014593
0.014593
0.014593
0.014593
0.014593
0.014593
0.014593
0.014593
0.014593
0.014593
0.014593
0.014593
0.014593
0.014593
0.014593
0.014593
0.014593
0.014593
0.014593
0.014593
0.014593
0.014593
0.014593
0.014593
0.014593
0.014593
0.0145931
0.0145931
0.0145931
0.0145932
0.014593
0.014593
0.014593
0.014593
0.014593
0.014593
0.014593
0.014593
0.014593
0.014593
0.014593
0.014593
0.014593
0.014593
0.014593
0.014593
0.014593
0.014593
0.014593
0.014593
0.014593
0.014593
0.014593
0.014593
0.014593
0.014593
0.014593
0.014593
0.014593
0.014593
0.014593
0.014593
0.014593
0.014593
0.014593
0.014593
0.014593
0.014593
0.014593
0.014593
0.014593
0.014593
0.014593
0.0145931
0.0145931
0.0145931
0.0145932
0.0145933
0.0145934
0.0145936
0.014593
0.014593
0.014593
0.014593
0.014593
0.014593
0.014593
0.014593
0.014593
0.014593
0.014593
0.014593
0.014593
0.014593
0.014593
0.014593
0.014593
0.014593
0.014593
0.014593
0.014593
0.014593
0.014593
0.014593
0.014593
0.014593
0.014593
0.014593
0.014593
0.014593
0.014593
0.014593
0.014593
0.014593
0.014593
0.014593
0.014593
0.014593
0.014593
0.014593
0.0145931
0.0145931
0.0145931
0.0145932
0.0145933
0.0145934
0.0145936
0.0145939
0.0145944
0.0145952
0.014593
0.014593
0.014593
0.014593
0.014593
0.014593
0.014593
0.014593
0.014593
0.014593
0.014593
0.014593
0.014593
0.014593
0.014593
0.014593
0.014593
0.014593
0.014593
0.014593
0.014593
0.014593
0.014593
0.014593
0.014593
0.014593
0.014593
0.014593
0.014593
0.014593
0.014593
0.014593
0.014593
0.014593
0.014593
0.014593
0.014593
0.0145931
0.0145931
0.0145931
0.0145932
0.0145933
0.0145934
0.0145936
0.014594
0.0145945
0.0145952
0.0145964
0.0145981
0.014601
0.014593
0.014593
0.014593
0.014593
0.014593
0.014593
0.014593
0.014593
0.014593
0.014593
0.014593
0.014593
0.014593
0.014593
0.014593
0.014593
0.014593
0.014593
0.014593
0.014593
0.014593
0.014593
0.014593
0.014593
0.014593
0.014593
0.014593
0.014593
0.014593
0.014593
0.014593
0.014593
0.014593
0.014593
0.0145931
0.0145931
0.0145931
0.0145932
0.0145933
0.0145935
0.0145937
0.014594
0.0145945
0.0145953
0.0145964
0.0145982
0.0146008
0.0146048
0.0146109
0.0146207
0.014593
0.014593
0.014593
0.014593
0.014593
0.014593
0.014593
0.014593
0.014593
0.014593
0.014593
0.014593
0.014593
0.014593
0.014593
0.014593
0.014593
0.014593
0.014593
0.014593
0.014593
0.014593
0.014593
0.014593
0.014593
0.014593
0.014593
0.014593
0.014593
0.014593
0.0145931
0.0145931
0.0145931
0.0145932
0.0145932
0.0145933
0.0145935
0.0145937
0.0145941
0.0145946
0.0145954
0.0145966
0.0145983
0.014601
0.0146049
0.0146109
0.0146199
0.0146336
0.0146545
0.0146871
0.014593
0.014593
0.014593
0.014593
0.014593
0.014593
0.014593
0.014593
0.014593
0.014593
0.014593
0.014593
0.014593
0.014593
0.014593
0.014593
0.014593
0.014593
0.014593
0.014593
0.014593
0.014593
0.014593
0.014593
0.014593
0.014593
0.014593
0.0145931
0.0145931
0.0145931
0.0145932
0.0145933
0.0145934
0.0145936
0.0145938
0.0145942
0.0145948
0.0145956
0.0145968
0.0145986
0.0146013
0.0146054
0.0146114
0.0146203
0.0146338
0.0146539
0.0146841
0.0147295
0.0147982
0.0149039
0.014593
0.014593
0.014593
0.014593
0.014593
0.014593
0.014593
0.014593
0.014593
0.014593
0.014593
0.014593
0.014593
0.014593
0.014593
0.014593
0.014593
0.014593
0.014593
0.014593
0.014593
0.014593
0.014593
0.0145931
0.0145931
0.0145931
0.0145932
0.0145932
0.0145933
0.0145934
0.0145936
0.0145939
0.0145943
0.0145949
0.0145958
0.0145971
0.0145991
0.0146019
0.014606
0.0146122
0.0146213
0.0146349
0.0146549
0.0146848
0.0147291
0.0147949
0.0148925
0.0150371
0.0152514
0.0155702
0.014593
0.014593
0.014593
0.014593
0.014593
0.014593
0.014593
0.014593
0.014593
0.014593
0.014593
0.014593
0.014593
0.014593
0.014593
0.014593
0.014593
0.014593
0.014593
0.014593
0.0145931
0.0145931
0.0145931
0.0145932
0.0145933
0.0145934
0.0145935
0.0145937
0.0145941
0.0145945
0.0145952
0.0145962
0.0145976
0.0145996
0.0146026
0.014607
0.0146135
0.0146229
0.0146368
0.0146572
0.0146873
0.0147316
0.0147967
0.0148924
0.0150325
0.0152368
0.015532
0.0159543
0.0165502
0.0173788
0.014593
0.014593
0.014593
0.014593
0.014593
0.014593
0.014593
0.014593
0.014593
0.014593
0.014593
0.014593
0.014593
0.014593
0.014593
0.014593
0.0145931
0.0145931
0.0145931
0.0145932
0.0145932
0.0145933
0.0145934
0.0145936
0.0145939
0.0145942
0.0145948
0.0145955
0.0145966
0.0145981
0.0146004
0.0146036
0.0146084
0.0146152
0.0146252
0.0146397
0.0146609
0.0146917
0.0147368
0.0148025
0.0148981
0.015037
0.0152375
0.0155247
0.0159315
0.0164982
0.0172713
0.0182991
0.0196264
0.021285
0.014593
0.014593
0.014593
0.014593
0.014593
0.014593
0.014593
0.014593
0.014593
0.014593
0.014593
0.014593
0.0145931
0.0145931
0.0145931
0.0145931
0.0145932
0.0145933
0.0145934
0.0145935
0.0145937
0.014594
0.0145945
0.0145951
0.0145959
0.0145971
0.0145989
0.0146014
0.014605
0.0146101
0.0146176
0.0146283
0.0146437
0.014666
0.0146983
0.014745
0.0148124
0.0149097
0.0150497
0.0152501
0.0155347
0.0159343
0.0164869
0.0172353
0.0182232
0.0194884
0.021055
0.0229281
0.0250931
0.0275115
0.014593
0.014593
0.014593
0.014593
0.014593
0.014593
0.014593
0.014593
0.0145931
0.0145931
0.0145931
0.0145931
0.0145932
0.0145932
0.0145933
0.0145935
0.0145936
0.0145939
0.0145943
0.0145948
0.0145955
0.0145965
0.0145979
0.0145999
0.0146027
0.0146067
0.0146125
0.0146207
0.0146324
0.0146491
0.014673
0.0147074
0.0147565
0.014827
0.0149277
0.0150713
0.0152749
0.0155616
0.0159605
0.0165076
0.017243
0.0182076
0.0194366
0.0209524
0.022759
0.0248387
0.0271547
0.0296564
0.0322897
0.0349887
0.014593
0.014593
0.014593
0.014593
0.0145931
0.0145931
0.0145931
0.0145931
0.0145932
0.0145932
0.0145933
0.0145934
0.0145936
0.0145938
0.0145941
0.0145946
0.0145952
0.014596
0.0145972
0.0145988
0.0146012
0.0146044
0.014609
0.0146155
0.0146247
0.0146377
0.0146561
0.0146823
0.0147194
0.0147722
0.0148471
0.0149531
0.0151029
0.0153132
0.0156065
0.0160109
0.0165604
0.0172928
0.0182462
0.0194533
0.0209349
0.0226949
0.0247177
0.026969
0.0294008
0.0319568
0.0345766
0.0371971
0.0397623
0.0422277
0.0145931
0.0145931
0.0145931
0.0145931
0.0145932
0.0145932
0.0145933
0.0145934
0.0145936
0.0145938
0.0145941
0.0145944
0.014595
0.0145957
0.0145967
0.0145981
0.0146001
0.0146029
0.0146067
0.014612
0.0146195
0.01463
0.0146447
0.0146653
0.0146944
0.0147353
0.0147928
0.0148737
0.0149873
0.015146
0.0153668
0.0156716
0.0160876
0.0166473
0.0173862
0.0183396
0.0195374
0.0209981
0.0227252
0.0247039
0.026903
0.0292782
0.0317774
0.034345
0.0369213
0.0394481
0.0418736
0.0441468
0.0462059
0.0480056
0.0145931
0.0145932
0.0145932
0.0145933
0.0145934
0.0145936
0.0145937
0.014594
0.0145944
0.0145949
0.0145955
0.0145964
0.0145977
0.0145994
0.0146018
0.0146051
0.0146097
0.014616
0.0146247
0.0146369
0.0146538
0.0146773
0.0147102
0.0147559
0.0148197
0.0149086
0.0150321
0.0152031
0.0154384
0.0157599
0.016194
0.0167717
0.0175264
0.0184905
0.0196907
0.0211431
0.0228495
0.0247955
0.0269521
0.0292781
0.0317254
0.034243
0.0367773
0.0392729
0.0416805
0.0439531
0.0460369
0.047871
0.0494077
0.0506252
0.0515603
0.0145934
0.0145936
0.0145938
0.014594
0.0145944
0.0145948
0.0145954
0.0145963
0.0145975
0.014599
0.0146012
0.0146041
0.0146081
0.0146136
0.0146212
0.0146316
0.014646
0.0146657
0.014693
0.0147307
0.0147828
0.0148547
0.0149539
0.0150903
0.0152772
0.0155318
0.0158757
0.0163347
0.0169385
0.0177183
0.0187033
0.019917
0.0213724
0.0230693
0.024993
0.0271157
0.029399
0.0317986
0.0342674
0.036757
0.0392166
0.041599
0.0438615
0.0459582
0.0478342
0.0494375
0.0507384
0.0517398
0.052477
0.0529936
0.0533553
0.014594
0.0145944
0.0145948
0.0145955
0.0145963
0.0145974
0.0145989
0.0146009
0.0146036
0.0146072
0.0146122
0.014619
0.0146282
0.0146408
0.014658
0.0146815
0.0147136
0.0147576
0.0148178
0.0149001
0.0150125
0.0151655
0.0153729
0.0156521
0.0160248
0.0165162
0.0171546
0.0179686
0.0189845
0.020222
0.0216907
0.023388
0.0252984
0.027395
0.0296419
0.0319977
0.0344192
0.0368625
0.0392816
0.0416317
0.0438735
0.045967
0.0478647
0.0495156
0.0508837
0.0519605
0.0527679
0.0533466
0.0537446
0.0540108
0.05418
0.054291
0.0145964
0.0145974
0.0145989
0.0146008
0.0146034
0.0146069
0.0146116
0.0146179
0.0146263
0.0146378
0.0146532
0.0146741
0.0147025
0.0147409
0.014793
0.0148636
0.0149592
0.0150885
0.0152625
0.0154957
0.0158059
0.0162148
0.0167468
0.0174286
0.0182863
0.0193425
0.0206131
0.0221042
0.0238104
0.0257151
0.0277922
0.0300076
0.032323
0.0346985
0.0370945
0.0394693
0.0417814
0.0439938
0.0460712
0.0479727
0.0496511
0.0510677
0.0522055
0.0530756
0.0537115
0.0541563
0.0544563
0.0546504
0.0547702
0.0548417
0.0548764
0.054888
0.0146036
0.014607
0.0146116
0.0146176
0.0146256
0.0146364
0.0146508
0.01467
0.0146959
0.0147306
0.0147773
0.0148399
0.014924
0.0150367
0.0151873
0.0153879
0.0156534
0.016002
0.0164553
0.0170369
0.0177715
0.0186821
0.0197876
0.0210997
0.0226207
0.0243426
0.0262478
0.0283102
0.030498
0.0327756
0.0351062
0.0374538
0.0397813
0.0420501
0.0442258
0.0462766
0.0481673
0.0498556
0.0513022
0.0524847
0.0534058
0.0540916
0.0545798
0.0549132
0.0551324
0.0552683
0.0553489
0.0553907
0.0554001
0.0553967
0.05539
0.0553703
0.0146261
0.0146365
0.0146504
0.0146688
0.0146932
0.0147256
0.0147688
0.0148262
0.0149026
0.0150041
0.0151386
0.0153164
0.0155503
0.0158559
0.0162517
0.0167588
0.0173996
0.0181964
0.0191689
0.0203318
0.0216924
0.0232494
0.0249921
0.0269016
0.0289528
0.0311154
0.0333565
0.0356426
0.0379408
0.0402179
0.0424389
0.0445716
0.0465871
0.0484547
0.0501372
0.0515967
0.0528082
0.0537677
0.0544937
0.0550191
0.0553832
0.055626
0.0557783
0.055868
0.055917
0.0559308
0.0559235
0.0559121
0.055892
0.0558534
0.0558036
0.0557479
0.0146939
0.0147253
0.0147665
0.014821
0.0148927
0.014987
0.0151111
0.0152736
0.0154858
0.0157613
0.0161162
0.0165692
0.0171404
0.0178506
0.0187191
0.0197617
0.0209887
0.0224032
0.0240001
0.0257664
0.0276826
0.0297239
0.0318622
0.0340671
0.036308
0.0385553
0.0407792
0.0429481
0.045032
0.0470046
0.048839
0.0505023
0.0519595
0.0531843
0.0541682
0.0549239
0.0554797
0.0558704
0.0561332
0.056301
0.0564001
0.0564546
0.0564728
0.0564646
0.0564491
0.0564274
0.0563906
0.05634
0.0562813
0.0562149
0.0561463
0.0560789
0.014893
0.0149836
0.0151016
0.0152548
0.0154532
0.0157089
0.016036
0.0164511
0.0169724
0.0176188
0.0184086
0.0193574
0.0204771
0.0217732
0.0232446
0.0248831
0.0266737
0.0285965
0.0306277
0.032741
0.0349085
0.0371028
0.039297
0.0414646
0.043577
0.0456067
0.0475297
0.049322
0.0509548
0.0523962
0.0536198
0.0546146
0.0553889
0.0559661
0.0563771
0.0566571
0.0568385
0.056946
0.0570042
0.0570269
0.0570193
0.056999
0.0569734
0.0569386
0.0568876
0.0568273
0.0567601
0.056687
0.0566133
0.0565404
0.0564691
0.0563991
0.0154491
0.0156932
0.0160032
0.0163939
0.0168814
0.0174831
0.0182158
0.0190945
0.0201311
0.0213326
0.0227003
0.0242292
0.0259082
0.0277213
0.0296485
0.0316673
0.0337533
0.0358813
0.0380265
0.0401648
0.0422727
0.0443243
0.0462946
0.0481617
0.0499041
0.0514966
0.0529101
0.0541194
0.0551124
0.0558939
0.0564829
0.0569075
0.0572003
0.0573917
0.0575061
0.0575683
0.0575936
0.057586
0.0575626
0.0575326
0.0574961
0.0574449
0.0573828
0.0573148
0.0572394
0.0571615
0.0570838
0.0570071
0.0569308
0.056855
0.0567807
0.0567075
0.0174327
0.0181269
0.0189561
0.0199316
0.0210608
0.0223461
0.0237848
0.0253687
0.0270846
0.0289159
0.0308432
0.0328455
0.0349004
0.0369853
0.039078
0.0411572
0.0432016
0.0451879
0.0470936
0.0488988
0.0505844
0.0521277
0.0535027
0.0546858
0.0556649
0.0564422
0.0570339
0.0574651
0.0577652
0.0579624
0.0580818
0.0581469
0.0581725
0.0581652
0.0581406
0.0581044
0.0580641
0.0580135
0.0579499
0.0578794
0.0578022
0.0577201
0.0576379
0.0575565
0.0574759
0.0573954
0.0573157
0.0572366
0.0571576
0.0570795
0.0570023
0.0209434
0.0221665
0.0235341
0.0250398
0.0266728
0.0284192
0.0302621
0.0321833
0.0341634
0.0361822
0.0382194
0.0402553
0.0422711
0.0442478
0.0461644
0.0480005
0.0497382
0.0513604
0.0528469
0.0541739
0.0553202
0.056274
0.0570366
0.0576218
0.058052
0.0583534
0.0585529
0.0586747
0.0587402
0.0587645
0.0587573
0.0587309
0.0586893
0.0586435
0.0585924
0.0585262
0.0584525
0.0583747
0.0582898
0.0582033
0.0581172
0.0580317
0.0579466
0.0578621
0.0577784
0.057695
0.0576119
0.0575291
0.0574463
0.0573642
0.0572828
0.0264756
0.0281491
0.0299168
0.0317627
0.0336699
0.0356206
0.0375971
0.039581
0.0415553
0.0435032
0.0454077
0.0472497
0.0490111
0.0506759
0.0522286
0.0536511
0.0549219
0.0560219
0.0569404
0.0576784
0.0582481
0.0586695
0.0589666
0.0591642
0.0592849
0.0593489
0.0593712
0.0593624
0.0593328
0.0592869
0.0592359
0.0591813
0.0591135
0.059037
0.0589563
0.0588689
0.058778
0.0586875
0.0585978
0.0585084
0.0584194
0.0583311
0.0582432
0.0581555
0.0580683
0.0579813
0.0578943
0.0578076
0.0577207
0.0576345
0.0575487
0.0353012
0.0372146
0.0391415
0.041066
0.0429732
0.0448483
0.0466757
0.0484383
0.0501199
0.0517065
0.0531841
0.054536
0.0557431
0.0567883
0.0576626
0.0583674
0.0589132
0.0593187
0.0596057
0.0597965
0.0599128
0.0599734
0.059992
0.0599804
0.0599475
0.0598976
0.05984
0.0597807
0.0597118
0.0596319
0.0595476
0.0594582
0.0593635
0.0592686
0.0591742
0.0590802
0.0589864
0.0588936
0.0588014
0.0587095
0.0586179
0.0585266
0.0584354
0.0583444
0.0582534
0.0581625
0.0580716
0.0579807
0.0578902
0.0578
0.042669
0.0445032
0.0463001
0.0480453
0.0497234
0.0513204
0.0528237
0.0542208
0.0554962
0.0566327
0.0576157
0.058438
0.0591014
0.0596161
0.0599994
0.060271
0.0604502
0.0605591
0.060614
0.0606264
0.0606111
0.0605743
0.0605197
0.0604561
0.0603912
0.0603199
0.0602361
0.0601478
0.0600566
0.0599586
0.0598592
0.0597605
0.0596622
0.0595639
0.0594664
0.0593697
0.0592733
0.0591772
0.0590816
0.0589863
0.0588912
0.0587962
0.0587012
0.0586062
0.0585113
0.0584163
0.0583213
0.0582261
0.0581314
0.0580368
0.0495083
0.0510969
0.0526043
0.0540197
0.0553313
0.0565247
0.0575845
0.0584988
0.0592623
0.0598776
0.060355
0.0607102
0.060961
0.0611251
0.0612236
0.0612706
0.0612744
0.0612547
0.061213
0.0611524
0.0610837
0.061013
0.0609377
0.0608505
0.0607583
0.0606636
0.0605626
0.0604588
0.0603558
0.0602532
0.0601507
0.0600488
0.0599476
0.0598469
0.0597465
0.0596466
0.059547
0.0594476
0.0593484
0.0592493
0.0591504
0.0590515
0.0589527
0.0588537
0.0587547
0.0586556
0.0585565
0.0584571
0.058358
0.058259
0.0552857
0.056507
0.0576132
0.058591
0.0594311
0.0601303
0.0606918
0.0611266
0.0614489
0.0616743
0.0618206
0.0619055
0.0619412
0.0619364
0.061911
0.0618631
0.0617961
0.0617223
0.0616457
0.0615648
0.0614747
0.0613784
0.0612794
0.0611757
0.061068
0.0609606
0.0608537
0.0607467
0.0606401
0.0605345
0.0604295
0.0603248
0.0602207
0.060117
0.0600134
0.0599101
0.059807
0.059704
0.0596011
0.0594983
0.0593955
0.0592927
0.0591899
0.0590869
0.0589838
0.0588806
0.0587772
0.0586736
0.0585702
0.0584668
0.0596435
0.0604049
0.0610352
0.0615389
0.0619271
0.0622127
0.0624091
0.0625346
0.0626034
0.0626253
0.0626128
0.0625788
0.0625234
0.06245
0.062371
0.0622885
0.0622019
0.0621084
0.0620075
0.061904
0.0617973
0.0616858
0.0615738
0.0614629
0.0613518
0.0612408
0.0611308
0.0610214
0.0609123
0.0608037
0.0606957
0.0605881
0.0604807
0.0603736
0.0602667
0.0601599
0.0600532
0.0599465
0.0598398
0.0597332
0.0596265
0.0595197
0.0594128
0.0593058
0.0591986
0.0590912
0.0589836
0.0588757
0.0587679
0.05866
0.062413
0.0627515
0.062997
0.0631627
0.0632653
0.0633163
0.063322
0.0633009
0.0632574
0.0631936
0.0631144
0.0630292
0.0629404
0.0628481
0.0627503
0.0626453
0.0625373
0.062427
0.0623119
0.0621956
0.0620804
0.0619651
0.0618498
0.0617355
0.0616219
0.0615086
0.0613958
0.0612836
0.0611717
0.0610601
0.0609489
0.0608379
0.0607272
0.0606166
0.0605061
0.0603957
0.0602853
0.0601749
0.0600644
0.0599539
0.0598433
0.0597325
0.0596216
0.0595104
0.059399
0.0592874
0.0591755
0.0590633
0.0589512
0.0588388
0.0639323
0.0640097
0.06404
0.0640312
0.0639995
0.0639458
0.0638729
0.0637873
0.0636959
0.063601
0.0635032
0.0633999
0.0632908
0.0631784
0.0630642
0.0629457
0.0628251
0.0627056
0.0625864
0.0624669
0.0623482
0.0622304
0.0621129
0.061996
0.0618797
0.0617638
0.0616482
0.0615329
0.0614179
0.0613031
0.0611886
0.0610742
0.06096
0.0608458
0.0607317
0.0606176
0.0605035
0.0603893
0.060275
0.0601605
0.0600459
0.0599311
0.059816
0.0597007
0.0595852
0.0594693
0.0593531
0.0592365
0.05912
0.059003
0.0647067
0.064642
0.0645604
0.0644682
0.0643706
0.0642696
0.064166
0.0640572
0.0639438
0.063827
0.0637083
0.0635862
0.0634617
0.0633379
0.063215
0.0630916
0.0629685
0.0628467
0.0627251
0.062604
0.0624836
0.0623636
0.0622439
0.0621248
0.0620059
0.0618873
0.0617689
0.0616506
0.0615326
0.0614146
0.0612967
0.061179
0.0610612
0.0609434
0.0608256
0.0607077
0.0605896
0.0604714
0.060353
0.0602344
0.0601155
0.0599963
0.0598768
0.059757
0.0596368
0.0595163
0.0593953
0.0592743
0.0591529
0.065156
0.0650519
0.064945
0.0648356
0.0647215
0.0646036
0.0644824
0.0643592
0.0642333
0.0641051
0.0639772
0.0638504
0.063723
0.0635957
0.0634699
0.0633446
0.0632194
0.0630949
0.062971
0.0628474
0.0627242
0.0626014
0.0624789
0.0623567
0.0622348
0.062113
0.0619913
0.0618698
0.0617483
0.0616269
0.0615056
0.0613842
0.0612628
0.0611413
0.0610197
0.0608979
0.060776
0.0606538
0.0605313
0.0604086
0.0602856
0.0601622
0.0600385
0.0599144
0.0597899
0.059665
0.0595397
0.0594142
0.0592883
0.0655113
0.0653919
0.0652693
0.0651438
0.0650163
0.0648864
0.0647546
0.0646228
0.064492
0.0643609
0.0642297
0.0640999
0.0639707
0.0638414
0.0637131
0.0635853
0.0634579
0.0633309
0.0632043
0.0630779
0.0629519
0.0628262
0.0627007
0.0625754
0.0624502
0.0623252
0.0622003
0.0620754
0.0619505
0.0618256
0.0617006
0.0615756
0.0614505
0.0613252
0.0611998
0.0610741
0.0609482
0.060822
0.0606956
0.0605687
0.0604415
0.060314
0.060186
0.0600576
0.0599287
0.0597995
0.0596697
0.0595398
0.0594093
0.0656787
0.0655448
0.0654094
0.0652739
0.0651393
0.0650045
0.0648696
0.064736
0.064603
0.0644699
0.0643377
0.0642062
0.0640749
0.0639441
0.0638138
0.0636838
0.0635541
0.0634246
0.0632955
0.0631665
0.0630378
0.0629091
0.0627807
0.0626523
0.062524
0.0623956
0.0622673
0.0621389
0.0620105
0.0618819
0.0617532
0.0616243
0.0614952
0.0613659
0.0612363
0.0611064
0.0609762
0.0608456
0.0607146
0.0605832
0.0604514
0.0603191
0.0601864
0.0600532
0.0599196
0.0597854
0.059651
0.059516
0.0659298
0.0657915
0.0656532
0.0655147
0.0653774
0.0652408
0.0651041
0.0649682
0.064833
0.064698
0.0645635
0.0644296
0.0642959
0.0641625
0.0640295
0.0638968
0.0637643
0.063632
0.0634999
0.0633679
0.063236
0.0631043
0.0629725
0.0628409
0.0627092
0.0625774
0.0624456