/*--------------------------------*- C++ -*----------------------------------*\
| =========                 |                                                 |
| \\      /  F ield         | OpenFOAM: The Open Source CFD Toolbox           |
|  \\    /   O peration     | Version:  v1706                                 |
|   \\  /    A nd           | Web:      www.OpenFOAM.com                      |
|    \\/     M anipulation  |                                                 |
\*---------------------------------------------------------------------------*/
FoamFile
{
    version     2.0;
    format      ascii;
    class       volScalarField;
    location    "3.4e-05";
    object      kappave;
}
// * * * * * * * * * * * * * * * * * * * * * * * * * * * * * * * * * * * * * //

dimensions      [1 1 -3 -1 0 0 0];


internalField   nonuniform List<scalar> 
30038
(
1.46038e-10
1.46038e-10
1.46038e-10
1.46038e-10
1.46038e-10
1.46038e-10
1.46038e-10
1.46038e-10
1.46038e-10
1.46038e-10
1.46038e-10
1.46038e-10
1.46038e-10
1.46038e-10
1.46038e-10
1.46038e-10
1.46038e-10
1.46038e-10
1.46038e-10
1.46038e-10
1.46038e-10
1.46038e-10
1.46038e-10
1.46038e-10
1.46038e-10
1.46038e-10
1.46038e-10
1.46038e-10
1.46038e-10
1.46038e-10
1.46038e-10
1.46038e-10
1.46038e-10
1.46038e-10
1.46038e-10
1.46038e-10
1.46038e-10
1.46038e-10
1.46038e-10
1.46038e-10
1.46038e-10
1.46038e-10
1.46038e-10
1.46038e-10
1.46038e-10
1.46038e-10
1.46038e-10
1.46038e-10
1.46038e-10
1.46038e-10
1.46038e-10
1.46038e-10
1.46038e-10
1.46038e-10
1.46038e-10
1.46038e-10
1.46038e-10
1.46038e-10
1.46038e-10
1.46038e-10
1.46038e-10
1.46038e-10
1.46038e-10
1.46038e-10
1.46038e-10
1.46038e-10
1.46038e-10
1.46038e-10
1.46038e-10
1.46038e-10
1.46038e-10
1.46038e-10
1.46038e-10
1.46038e-10
1.46038e-10
1.46038e-10
1.46038e-10
1.46038e-10
1.46038e-10
1.46038e-10
1.46038e-10
1.46038e-10
1.46038e-10
1.46038e-10
1.46038e-10
1.46038e-10
1.46038e-10
1.46038e-10
1.46038e-10
1.46038e-10
1.46038e-10
1.46038e-10
1.46038e-10
1.46038e-10
1.46038e-10
1.46038e-10
1.46038e-10
1.46038e-10
1.46038e-10
1.46038e-10
1.46038e-10
1.46038e-10
1.46038e-10
1.46038e-10
1.46038e-10
1.46038e-10
1.46038e-10
1.46038e-10
1.46038e-10
1.46038e-10
1.46038e-10
1.46038e-10
1.46038e-10
1.46038e-10
1.46038e-10
1.46038e-10
1.46038e-10
1.46038e-10
1.46038e-10
1.46038e-10
1.46038e-10
1.46038e-10
1.46038e-10
1.46038e-10
1.46038e-10
1.46038e-10
1.46038e-10
1.46038e-10
1.46038e-10
1.46038e-10
1.46038e-10
1.46038e-10
1.46038e-10
1.46038e-10
1.46038e-10
1.46038e-10
1.46038e-10
1.46038e-10
1.46038e-10
1.46038e-10
1.46038e-10
1.46038e-10
1.46038e-10
1.46038e-10
1.46038e-10
1.46038e-10
1.46038e-10
1.46038e-10
1.46038e-10
1.46038e-10
1.46038e-10
1.46038e-10
1.46038e-10
1.46038e-10
1.46038e-10
1.46038e-10
1.46038e-10
1.46038e-10
1.46038e-10
1.46038e-10
1.46038e-10
1.46038e-10
1.46038e-10
1.46038e-10
1.46038e-10
1.46038e-10
1.46038e-10
1.46038e-10
1.46038e-10
1.46038e-10
1.46038e-10
1.46038e-10
1.46038e-10
1.46038e-10
1.46038e-10
1.46038e-10
1.46038e-10
1.46038e-10
1.46038e-10
1.46038e-10
1.46038e-10
1.46038e-10
1.46038e-10
1.46038e-10
1.46038e-10
1.46038e-10
1.46038e-10
1.46038e-10
1.46038e-10
1.46038e-10
1.46038e-10
1.46038e-10
1.46038e-10
1.46038e-10
1.46038e-10
1.46038e-10
1.46038e-10
1.46038e-10
1.46038e-10
1.46038e-10
1.46038e-10
1.46038e-10
1.46038e-10
1.46038e-10
1.46038e-10
1.46038e-10
1.46038e-10
1.46038e-10
1.46038e-10
1.46038e-10
1.46038e-10
1.46038e-10
1.46038e-10
1.46038e-10
1.46038e-10
1.46038e-10
1.46038e-10
1.46038e-10
1.46038e-10
1.46038e-10
1.46038e-10
1.46038e-10
1.46038e-10
1.46038e-10
1.46038e-10
1.46038e-10
1.46038e-10
1.46038e-10
1.46038e-10
1.46038e-10
1.46038e-10
1.46038e-10
1.46038e-10
1.46038e-10
1.46038e-10
1.46038e-10
1.46038e-10
1.46038e-10
1.46038e-10
1.46038e-10
1.46038e-10
1.46038e-10
1.46038e-10
1.46038e-10
1.46038e-10
1.46038e-10
1.46038e-10
1.46038e-10
1.46038e-10
1.46038e-10
1.46038e-10
1.46038e-10
1.46038e-10
1.46038e-10
1.46038e-10
1.46038e-10
1.46038e-10
1.46038e-10
1.46038e-10
1.46038e-10
1.46038e-10
1.46038e-10
1.46038e-10
1.46038e-10
1.46038e-10
1.46038e-10
1.46038e-10
1.46038e-10
1.46038e-10
1.46038e-10
1.46038e-10
1.46038e-10
1.46038e-10
1.46038e-10
1.46038e-10
1.46038e-10
1.46038e-10
1.46038e-10
1.46038e-10
1.46038e-10
1.46038e-10
1.46038e-10
1.46038e-10
1.46038e-10
1.46038e-10
1.46038e-10
1.46038e-10
1.46038e-10
1.46038e-10
1.46038e-10
1.46038e-10
1.46038e-10
1.46038e-10
1.46038e-10
1.46038e-10
1.46038e-10
1.46038e-10
1.46038e-10
1.46038e-10
1.46038e-10
1.46038e-10
1.46038e-10
1.46038e-10
1.46038e-10
1.46038e-10
1.46038e-10
1.46038e-10
1.46038e-10
1.46038e-10
1.46038e-10
1.46038e-10
1.46038e-10
1.46038e-10
1.46038e-10
1.46038e-10
1.46038e-10
1.46038e-10
1.46038e-10
1.46038e-10
1.46038e-10
1.46038e-10
1.46038e-10
1.46038e-10
1.46038e-10
1.46038e-10
1.46038e-10
1.46038e-10
1.46038e-10
1.46038e-10
1.46038e-10
1.46038e-10
1.46038e-10
1.46038e-10
1.46038e-10
1.46038e-10
1.46038e-10
1.46038e-10
1.46038e-10
1.46038e-10
1.46038e-10
1.46038e-10
1.46038e-10
1.46038e-10
1.46038e-10
1.46038e-10
1.46038e-10
1.46038e-10
1.46038e-10
1.46038e-10
1.46038e-10
1.46038e-10
1.46038e-10
1.46038e-10
1.46038e-10
1.46038e-10
1.46038e-10
1.46038e-10
1.46038e-10
1.46038e-10
1.46038e-10
1.46038e-10
1.46038e-10
1.46038e-10
1.46038e-10
1.46038e-10
1.46038e-10
1.46038e-10
1.46038e-10
1.46038e-10
1.46038e-10
1.46038e-10
1.46038e-10
1.46038e-10
1.46038e-10
1.46038e-10
1.46038e-10
1.46038e-10
1.46038e-10
1.46038e-10
1.46038e-10
1.46038e-10
1.46038e-10
1.46038e-10
1.46038e-10
1.46038e-10
1.46038e-10
1.46038e-10
1.46038e-10
1.46038e-10
1.46038e-10
1.46038e-10
1.46038e-10
1.46038e-10
1.46038e-10
1.46038e-10
1.46038e-10
1.46038e-10
1.46038e-10
1.46038e-10
1.46038e-10
1.46038e-10
1.46038e-10
1.46038e-10
1.46038e-10
1.46038e-10
1.46038e-10
1.46038e-10
1.46038e-10
1.46038e-10
1.46038e-10
1.46038e-10
1.46038e-10
1.46038e-10
1.46038e-10
1.46038e-10
1.46038e-10
1.46038e-10
1.46038e-10
1.46038e-10
1.46038e-10
1.46038e-10
1.46038e-10
1.46038e-10
1.46038e-10
1.46038e-10
1.46038e-10
1.46038e-10
1.46038e-10
1.46038e-10
1.46038e-10
1.46038e-10
1.46038e-10
1.46038e-10
1.46038e-10
1.46038e-10
1.46038e-10
1.46038e-10
1.46038e-10
1.46038e-10
1.46038e-10
1.46038e-10
1.46038e-10
1.46038e-10
1.46038e-10
1.46038e-10
1.46038e-10
1.46038e-10
1.46038e-10
1.46038e-10
1.46038e-10
1.46038e-10
1.46038e-10
1.46038e-10
1.46038e-10
1.46038e-10
1.46038e-10
1.46038e-10
1.46038e-10
1.46038e-10
1.46038e-10
1.46038e-10
1.46038e-10
1.46038e-10
1.46038e-10
1.46038e-10
1.46038e-10
1.46038e-10
1.46038e-10
1.46038e-10
1.46038e-10
1.46038e-10
1.46038e-10
1.46038e-10
1.46038e-10
1.46038e-10
1.46038e-10
1.46038e-10
1.46038e-10
1.46038e-10
1.46038e-10
1.46038e-10
1.46038e-10
1.46038e-10
1.46038e-10
1.46038e-10
1.46038e-10
1.46038e-10
1.46038e-10
1.46038e-10
1.46038e-10
1.46038e-10
1.46038e-10
1.46038e-10
1.46038e-10
1.46038e-10
1.46038e-10
1.46038e-10
1.46038e-10
1.46038e-10
1.46038e-10
1.46038e-10
1.46038e-10
1.46038e-10
1.46038e-10
1.46038e-10
1.46038e-10
1.46038e-10
1.46038e-10
1.46038e-10
1.46038e-10
1.46038e-10
1.46038e-10
1.46038e-10
1.46038e-10
1.46038e-10
1.46038e-10
1.46038e-10
1.46038e-10
1.46038e-10
1.46038e-10
1.46038e-10
1.46038e-10
1.46038e-10
1.46038e-10
1.46038e-10
1.46038e-10
1.46038e-10
1.46038e-10
1.46038e-10
1.46038e-10
1.46038e-10
1.46038e-10
1.46038e-10
1.46038e-10
1.46038e-10
1.46038e-10
1.46038e-10
1.46038e-10
1.46038e-10
1.46038e-10
1.46038e-10
1.46038e-10
1.46038e-10
1.46038e-10
1.46038e-10
1.46038e-10
1.46038e-10
1.46038e-10
1.46038e-10
1.46038e-10
1.46038e-10
1.46038e-10
1.46038e-10
1.46038e-10
1.46038e-10
1.46038e-10
1.46038e-10
1.46038e-10
1.46038e-10
1.46038e-10
1.46038e-10
1.46038e-10
1.46038e-10
1.46038e-10
1.46038e-10
1.46038e-10
1.46038e-10
1.46038e-10
1.46038e-10
1.46038e-10
1.46038e-10
1.46038e-10
1.46038e-10
1.46038e-10
1.46038e-10
1.46038e-10
1.46038e-10
1.46038e-10
1.46038e-10
1.46038e-10
1.46038e-10
1.46038e-10
1.46038e-10
1.46038e-10
1.46038e-10
1.46038e-10
1.46038e-10
1.46038e-10
1.46038e-10
1.46038e-10
1.46038e-10
1.46038e-10
1.46038e-10
1.46038e-10
1.46038e-10
1.46038e-10
1.46038e-10
1.46038e-10
1.46038e-10
1.46038e-10
1.46038e-10
1.46038e-10
1.46038e-10
1.46038e-10
1.46038e-10
1.46038e-10
1.46038e-10
1.46038e-10
1.46038e-10
1.46038e-10
1.46038e-10
1.46038e-10
1.46038e-10
1.46038e-10
1.46038e-10
1.46038e-10
1.46038e-10
1.46038e-10
1.46038e-10
1.46038e-10
1.46038e-10
1.46038e-10
1.46038e-10
1.46038e-10
1.46038e-10
1.46038e-10
1.46038e-10
1.46038e-10
1.46038e-10
1.46038e-10
1.46038e-10
1.46038e-10
1.46038e-10
1.46038e-10
1.46038e-10
1.46038e-10
1.46038e-10
1.46038e-10
1.46038e-10
1.46038e-10
1.46038e-10
1.46038e-10
1.46038e-10
1.46038e-10
1.46038e-10
1.46038e-10
1.46038e-10
1.46038e-10
1.46038e-10
1.46038e-10
1.46038e-10
1.46038e-10
1.46038e-10
1.46038e-10
1.46038e-10
1.46038e-10
1.46038e-10
1.46038e-10
1.46038e-10
1.46038e-10
1.46038e-10
1.46038e-10
1.46038e-10
1.46038e-10
1.46038e-10
1.46038e-10
1.46038e-10
1.46038e-10
1.46038e-10
1.46038e-10
1.46038e-10
1.46038e-10
1.46038e-10
1.46038e-10
1.46038e-10
1.46038e-10
1.46038e-10
1.46038e-10
1.46038e-10
1.46038e-10
1.46038e-10
1.46038e-10
1.46038e-10
1.46038e-10
1.46038e-10
1.46038e-10
1.46038e-10
1.46038e-10
1.46038e-10
1.46038e-10
1.46038e-10
1.46038e-10
1.46038e-10
1.46038e-10
1.46038e-10
1.46038e-10
1.46038e-10
1.46038e-10
1.46038e-10
1.46038e-10
1.46038e-10
1.46038e-10
1.46038e-10
1.46038e-10
1.46038e-10
1.46038e-10
1.46038e-10
1.46038e-10
1.46038e-10
1.46038e-10
1.46038e-10
1.46038e-10
1.46038e-10
1.46038e-10
1.46038e-10
1.46038e-10
1.46038e-10
1.46038e-10
1.46038e-10
1.46038e-10
1.46038e-10
1.46038e-10
1.46038e-10
1.46038e-10
1.46038e-10
1.46038e-10
1.46038e-10
1.46038e-10
1.46038e-10
1.46038e-10
1.46038e-10
1.46038e-10
1.46038e-10
1.46038e-10
1.46038e-10
1.46038e-10
1.46038e-10
1.46038e-10
1.46038e-10
1.46038e-10
1.46038e-10
1.46038e-10
1.46038e-10
1.46038e-10
1.46038e-10
1.46038e-10
1.46038e-10
1.46038e-10
1.46038e-10
1.46038e-10
1.46038e-10
1.46038e-10
1.46038e-10
1.46038e-10
1.46038e-10
1.46038e-10
1.46038e-10
1.46038e-10
1.46038e-10
1.46038e-10
1.46038e-10
1.46038e-10
1.46038e-10
1.46038e-10
1.46038e-10
1.46038e-10
1.46038e-10
1.46038e-10
1.46038e-10
1.46038e-10
1.46038e-10
1.46038e-10
1.46038e-10
1.46038e-10
1.46038e-10
1.46038e-10
1.46038e-10
1.46038e-10
1.46038e-10
1.46038e-10
1.46038e-10
1.46038e-10
1.46038e-10
1.46038e-10
1.46038e-10
1.46038e-10
1.46038e-10
1.46038e-10
1.46038e-10
1.46038e-10
1.46038e-10
1.46038e-10
1.46038e-10
1.46038e-10
1.46038e-10
1.46038e-10
1.46038e-10
1.46038e-10
1.46038e-10
1.46038e-10
1.46038e-10
1.46038e-10
1.46038e-10
1.46038e-10
1.46038e-10
1.46038e-10
1.46038e-10
1.46038e-10
1.46038e-10
1.46038e-10
1.46038e-10
1.46038e-10
1.46038e-10
1.46038e-10
1.46038e-10
1.46038e-10
1.46038e-10
1.46038e-10
1.46038e-10
1.46038e-10
1.46038e-10
1.46038e-10
1.46038e-10
1.46038e-10
1.46038e-10
1.46038e-10
1.46038e-10
1.46038e-10
1.46038e-10
1.46038e-10
1.46038e-10
1.46038e-10
1.46038e-10
1.46038e-10
1.46038e-10
1.46038e-10
1.46038e-10
1.46038e-10
1.46038e-10
1.46038e-10
1.46038e-10
1.46038e-10
1.46038e-10
1.46038e-10
1.46038e-10
1.46038e-10
1.46038e-10
1.46038e-10
1.46038e-10
1.46038e-10
1.46038e-10
1.46038e-10
1.46038e-10
1.46038e-10
1.46038e-10
1.46038e-10
1.46038e-10
1.46038e-10
1.46038e-10
1.46038e-10
1.46038e-10
1.46038e-10
1.46038e-10
1.46038e-10
1.46038e-10
1.46038e-10
1.46038e-10
1.46038e-10
1.46038e-10
1.46038e-10
1.46038e-10
1.46038e-10
1.46038e-10
1.46038e-10
1.46038e-10
1.46038e-10
1.46038e-10
1.46038e-10
1.46038e-10
1.46038e-10
1.46038e-10
1.46038e-10
1.46038e-10
1.46038e-10
1.46038e-10
1.46038e-10
1.46038e-10
1.46038e-10
1.46038e-10
1.46038e-10
1.46038e-10
1.46038e-10
1.46038e-10
1.46038e-10
1.46038e-10
1.46038e-10
1.46038e-10
1.46038e-10
1.46038e-10
1.46038e-10
1.46038e-10
1.46038e-10
1.46038e-10
1.46038e-10
1.46038e-10
1.46038e-10
1.46038e-10
1.46038e-10
1.46038e-10
1.46038e-10
1.46038e-10
1.46038e-10
1.46038e-10
1.46038e-10
1.46038e-10
1.46038e-10
1.46038e-10
1.46038e-10
1.46038e-10
1.46038e-10
1.46038e-10
1.46038e-10
1.46038e-10
1.46038e-10
1.46038e-10
1.46038e-10
1.46038e-10
1.46038e-10
1.46038e-10
1.46038e-10
1.46038e-10
1.46038e-10
1.46038e-10
1.46038e-10
1.46038e-10
1.46038e-10
1.46038e-10
1.46038e-10
1.46038e-10
1.46038e-10
1.46038e-10
1.46038e-10
1.46038e-10
1.46038e-10
1.46038e-10
1.46038e-10
1.46038e-10
1.46038e-10
1.46038e-10
1.46038e-10
1.46038e-10
1.46038e-10
1.46038e-10
1.46038e-10
1.46038e-10
1.46038e-10
1.46038e-10
1.46038e-10
1.46038e-10
1.46038e-10
1.46038e-10
1.46038e-10
1.46038e-10
1.46038e-10
1.46038e-10
1.46038e-10
1.46038e-10
1.46038e-10
1.46038e-10
1.46038e-10
1.46038e-10
1.46038e-10
1.46038e-10
1.46038e-10
1.46038e-10
1.46038e-10
1.46038e-10
1.46038e-10
1.46038e-10
1.46038e-10
1.46038e-10
1.46038e-10
1.46038e-10
1.46038e-10
1.46038e-10
1.46038e-10
1.46038e-10
1.46038e-10
1.46038e-10
1.46038e-10
1.46038e-10
1.46038e-10
1.46038e-10
1.46038e-10
1.46038e-10
1.46038e-10
1.46038e-10
1.46038e-10
1.46038e-10
1.46038e-10
1.46038e-10
1.46038e-10
1.46038e-10
1.46038e-10
1.46038e-10
1.46038e-10
1.46038e-10
1.46038e-10
1.46038e-10
1.46038e-10
1.46038e-10
1.46038e-10
1.46038e-10
1.46038e-10
1.46038e-10
1.46038e-10
1.46038e-10
1.46038e-10
1.46038e-10
1.46038e-10
1.46038e-10
1.46038e-10
1.46038e-10
1.46038e-10
1.46038e-10
1.46038e-10
1.46038e-10
1.46038e-10
1.46038e-10
1.46038e-10
1.46038e-10
1.46038e-10
1.46038e-10
1.46038e-10
1.46038e-10
1.46038e-10
1.46038e-10
1.46038e-10
1.46038e-10
1.46038e-10
1.46038e-10
1.46038e-10
1.46038e-10
1.46038e-10
1.46038e-10
1.46038e-10
1.46038e-10
1.46038e-10
1.46038e-10
1.46038e-10
1.46038e-10
1.46038e-10
1.46038e-10
1.46038e-10
1.46038e-10
1.46038e-10
1.46038e-10
1.46038e-10
1.46038e-10
1.46038e-10
1.46038e-10
1.46038e-10
1.46038e-10
1.46038e-10
1.46038e-10
1.46038e-10
1.46038e-10
1.46038e-10
1.46038e-10
1.46038e-10
1.46038e-10
1.46038e-10
1.46038e-10
1.46038e-10
1.46038e-10
1.46038e-10
1.46038e-10
1.46038e-10
1.46038e-10
1.46038e-10
1.46038e-10
1.46038e-10
1.46038e-10
1.46038e-10
1.46038e-10
1.46038e-10
1.46038e-10
1.46038e-10
1.46038e-10
1.46038e-10
1.46038e-10
1.46038e-10
1.46038e-10
1.46038e-10
1.46038e-10
1.46038e-10
1.46038e-10
1.46038e-10
1.46038e-10
1.46038e-10
1.46038e-10
1.46038e-10
1.46038e-10
1.46038e-10
1.46038e-10
1.46038e-10
1.46038e-10
1.46038e-10
1.46038e-10
1.46038e-10
1.46038e-10
1.46038e-10
1.46038e-10
1.46038e-10
1.46038e-10
1.46038e-10
1.46038e-10
1.46038e-10
1.46038e-10
1.46038e-10
1.46038e-10
1.46038e-10
1.46038e-10
1.46038e-10
1.46038e-10
1.46038e-10
1.46038e-10
1.46038e-10
1.46038e-10
1.46038e-10
1.46038e-10
1.46038e-10
1.46038e-10
1.46038e-10
1.46038e-10
1.46038e-10
1.46038e-10
1.46038e-10
1.46038e-10
1.46038e-10
1.46038e-10
1.46038e-10
1.46038e-10
1.46038e-10
1.46038e-10
1.46038e-10
1.46038e-10
1.46038e-10
1.46038e-10
1.46038e-10
1.46038e-10
1.46038e-10
1.46038e-10
1.46038e-10
1.46038e-10
1.46038e-10
1.46038e-10
1.46038e-10
1.46038e-10
1.46038e-10
1.46038e-10
1.46038e-10
1.46038e-10
1.46038e-10
1.46038e-10
1.46038e-10
1.46038e-10
1.46038e-10
1.46038e-10
1.46038e-10
1.46038e-10
1.46038e-10
1.46038e-10
1.46038e-10
1.46038e-10
1.46038e-10
1.46038e-10
1.46038e-10
1.46038e-10
1.46038e-10
1.46038e-10
1.46038e-10
1.46038e-10
1.46038e-10
1.46038e-10
1.46038e-10
1.46038e-10
1.46038e-10
1.46038e-10
1.46038e-10
1.46038e-10
1.46038e-10
1.46038e-10
1.46038e-10
1.46038e-10
1.46038e-10
1.46038e-10
1.46038e-10
1.46038e-10
1.46038e-10
1.46038e-10
1.46038e-10
1.46038e-10
1.46038e-10
1.46038e-10
1.46038e-10
1.46038e-10
1.46038e-10
1.46038e-10
1.46038e-10
1.46038e-10
1.46038e-10
1.46038e-10
1.46038e-10
1.46038e-10
1.46038e-10
1.46038e-10
1.46038e-10
1.46038e-10
1.46038e-10
1.46038e-10
1.46038e-10
1.46038e-10
1.46038e-10
1.46038e-10
1.46038e-10
1.46038e-10
1.46038e-10
1.46038e-10
1.46038e-10
1.46038e-10
1.46038e-10
1.46038e-10
1.46038e-10
1.46038e-10
1.46038e-10
1.46038e-10
1.46038e-10
1.46038e-10
1.46038e-10
1.46039e-10
1.46039e-10
1.46038e-10
1.46038e-10
1.46038e-10
1.46038e-10
1.46038e-10
1.46038e-10
1.46038e-10
1.46038e-10
1.46038e-10
1.46038e-10
1.46038e-10
1.46038e-10
1.46038e-10
1.46038e-10
1.46038e-10
1.46038e-10
1.46038e-10
1.46038e-10
1.46038e-10
1.46038e-10
1.46038e-10
1.46038e-10
1.46038e-10
1.46038e-10
1.46038e-10
1.46038e-10
1.46038e-10
1.46038e-10
1.46038e-10
1.46038e-10
1.46038e-10
1.46038e-10
1.46038e-10
1.46038e-10
1.46038e-10
1.46038e-10
1.46038e-10
1.46038e-10
1.46038e-10
1.46038e-10
1.46038e-10
1.46038e-10
1.46038e-10
1.46038e-10
1.46038e-10
1.46039e-10
1.46039e-10
1.4604e-10
1.46042e-10
1.46044e-10
1.46038e-10
1.46038e-10
1.46038e-10
1.46038e-10
1.46038e-10
1.46038e-10
1.46038e-10
1.46038e-10
1.46038e-10
1.46038e-10
1.46038e-10
1.46038e-10
1.46038e-10
1.46038e-10
1.46038e-10
1.46038e-10
1.46038e-10
1.46038e-10
1.46038e-10
1.46038e-10
1.46038e-10
1.46038e-10
1.46038e-10
1.46038e-10
1.46038e-10
1.46038e-10
1.46038e-10
1.46038e-10
1.46038e-10
1.46038e-10
1.46038e-10
1.46038e-10
1.46038e-10
1.46038e-10
1.46038e-10
1.46038e-10
1.46038e-10
1.46038e-10
1.46038e-10
1.46038e-10
1.46038e-10
1.46038e-10
1.46039e-10
1.46039e-10
1.4604e-10
1.46042e-10
1.46044e-10
1.46047e-10
1.46052e-10
1.46061e-10
1.46038e-10
1.46038e-10
1.46038e-10
1.46038e-10
1.46038e-10
1.46038e-10
1.46038e-10
1.46038e-10
1.46038e-10
1.46038e-10
1.46038e-10
1.46038e-10
1.46038e-10
1.46038e-10
1.46038e-10
1.46038e-10
1.46038e-10
1.46038e-10
1.46038e-10
1.46038e-10
1.46038e-10
1.46038e-10
1.46038e-10
1.46038e-10
1.46038e-10
1.46038e-10
1.46038e-10
1.46038e-10
1.46038e-10
1.46038e-10
1.46038e-10
1.46038e-10
1.46038e-10
1.46038e-10
1.46038e-10
1.46038e-10
1.46038e-10
1.46038e-10
1.46039e-10
1.46039e-10
1.4604e-10
1.46041e-10
1.46042e-10
1.46044e-10
1.46048e-10
1.46053e-10
1.4606e-10
1.46072e-10
1.46091e-10
1.46121e-10
1.46038e-10
1.46038e-10
1.46038e-10
1.46038e-10
1.46038e-10
1.46038e-10
1.46038e-10
1.46038e-10
1.46038e-10
1.46038e-10
1.46038e-10
1.46038e-10
1.46038e-10
1.46038e-10
1.46038e-10
1.46038e-10
1.46038e-10
1.46038e-10
1.46038e-10
1.46038e-10
1.46038e-10
1.46038e-10
1.46038e-10
1.46038e-10
1.46038e-10
1.46038e-10
1.46038e-10
1.46038e-10
1.46038e-10
1.46038e-10
1.46038e-10
1.46038e-10
1.46038e-10
1.46038e-10
1.46038e-10
1.46039e-10
1.46039e-10
1.4604e-10
1.46041e-10
1.46042e-10
1.46045e-10
1.46048e-10
1.46053e-10
1.46061e-10
1.46073e-10
1.46091e-10
1.46119e-10
1.46161e-10
1.46227e-10
1.46333e-10
1.46038e-10
1.46038e-10
1.46038e-10
1.46038e-10
1.46038e-10
1.46038e-10
1.46038e-10
1.46038e-10
1.46038e-10
1.46038e-10
1.46038e-10
1.46038e-10
1.46038e-10
1.46038e-10
1.46038e-10
1.46038e-10
1.46038e-10
1.46038e-10
1.46038e-10
1.46038e-10
1.46038e-10
1.46038e-10
1.46038e-10
1.46038e-10
1.46038e-10
1.46038e-10
1.46038e-10
1.46038e-10
1.46038e-10
1.46038e-10
1.46038e-10
1.46038e-10
1.46039e-10
1.46039e-10
1.4604e-10
1.46041e-10
1.46043e-10
1.46045e-10
1.46049e-10
1.46054e-10
1.46063e-10
1.46075e-10
1.46093e-10
1.46121e-10
1.46164e-10
1.46228e-10
1.46326e-10
1.46476e-10
1.46709e-10
1.47082e-10
1.46038e-10
1.46038e-10
1.46038e-10
1.46038e-10
1.46038e-10
1.46038e-10
1.46038e-10
1.46038e-10
1.46038e-10
1.46038e-10
1.46038e-10
1.46038e-10
1.46038e-10
1.46038e-10
1.46038e-10
1.46038e-10
1.46038e-10
1.46038e-10
1.46038e-10
1.46038e-10
1.46038e-10
1.46038e-10
1.46038e-10
1.46038e-10
1.46038e-10
1.46038e-10
1.46038e-10
1.46038e-10
1.46039e-10
1.46039e-10
1.4604e-10
1.4604e-10
1.46042e-10
1.46043e-10
1.46046e-10
1.4605e-10
1.46056e-10
1.46064e-10
1.46077e-10
1.46097e-10
1.46126e-10
1.46169e-10
1.46234e-10
1.46333e-10
1.46482e-10
1.46708e-10
1.47053e-10
1.47581e-10
1.48398e-10
1.49695e-10
1.46038e-10
1.46038e-10
1.46038e-10
1.46038e-10
1.46038e-10
1.46038e-10
1.46038e-10
1.46038e-10
1.46038e-10
1.46038e-10
1.46038e-10
1.46038e-10
1.46038e-10
1.46038e-10
1.46038e-10
1.46038e-10
1.46038e-10
1.46038e-10
1.46038e-10
1.46038e-10
1.46038e-10
1.46038e-10
1.46038e-10
1.46038e-10
1.46038e-10
1.46039e-10
1.46039e-10
1.4604e-10
1.46041e-10
1.46042e-10
1.46044e-10
1.46047e-10
1.46051e-10
1.46058e-10
1.46067e-10
1.46081e-10
1.46101e-10
1.46132e-10
1.46177e-10
1.46245e-10
1.46346e-10
1.46497e-10
1.46726e-10
1.4707e-10
1.47592e-10
1.48384e-10
1.49589e-10
1.51427e-10
1.54251e-10
1.58678e-10
1.46038e-10
1.46038e-10
1.46038e-10
1.46038e-10
1.46038e-10
1.46038e-10
1.46038e-10
1.46038e-10
1.46038e-10
1.46038e-10
1.46038e-10
1.46038e-10
1.46038e-10
1.46038e-10
1.46038e-10
1.46038e-10
1.46038e-10
1.46038e-10
1.46038e-10
1.46038e-10
1.46038e-10
1.46039e-10
1.46039e-10
1.46039e-10
1.4604e-10
1.46041e-10
1.46043e-10
1.46045e-10
1.46049e-10
1.46053e-10
1.4606e-10
1.46071e-10
1.46086e-10
1.46108e-10
1.46141e-10
1.46189e-10
1.4626e-10
1.46366e-10
1.46523e-10
1.46759e-10
1.47111e-10
1.4764e-10
1.48436e-10
1.49637e-10
1.51451e-10
1.54191e-10
1.58329e-10
1.64574e-10
1.74015e-10
1.88458e-10
1.46038e-10
1.46038e-10
1.46038e-10
1.46038e-10
1.46038e-10
1.46038e-10
1.46038e-10
1.46038e-10
1.46038e-10
1.46038e-10
1.46038e-10
1.46038e-10
1.46038e-10
1.46038e-10
1.46038e-10
1.46038e-10
1.46038e-10
1.46038e-10
1.46039e-10
1.46039e-10
1.4604e-10
1.46041e-10
1.46042e-10
1.46044e-10
1.46047e-10
1.4605e-10
1.46056e-10
1.46064e-10
1.46075e-10
1.46092e-10
1.46117e-10
1.46152e-10
1.46205e-10
1.46281e-10
1.46394e-10
1.46561e-10
1.46809e-10
1.47176e-10
1.47724e-10
1.48542e-10
1.49766e-10
1.51602e-10
1.54354e-10
1.58479e-10
1.6465e-10
1.73853e-10
1.87514e-10
2.07689e-10
2.37385e-10
2.81192e-10
1.46038e-10
1.46038e-10
1.46038e-10
1.46038e-10
1.46038e-10
1.46038e-10
1.46038e-10
1.46038e-10
1.46038e-10
1.46038e-10
1.46038e-10
1.46038e-10
1.46038e-10
1.46038e-10
1.46039e-10
1.46039e-10
1.4604e-10
1.4604e-10
1.46042e-10
1.46043e-10
1.46045e-10
1.46048e-10
1.46053e-10
1.46059e-10
1.46068e-10
1.46082e-10
1.46101e-10
1.46128e-10
1.46168e-10
1.46226e-10
1.4631e-10
1.46433e-10
1.46614e-10
1.46879e-10
1.4727e-10
1.47849e-10
1.48707e-10
1.49982e-10
1.51879e-10
1.54703e-10
1.58908e-10
1.6516e-10
1.74428e-10
1.88107e-10
2.08175e-10
2.37386e-10
2.79494e-10
3.39481e-10
4.23966e-10
5.41804e-10
1.46038e-10
1.46038e-10
1.46038e-10
1.46038e-10
1.46038e-10
1.46038e-10
1.46038e-10
1.46038e-10
1.46038e-10
1.46038e-10
1.46039e-10
1.46039e-10
1.46039e-10
1.4604e-10
1.46041e-10
1.46042e-10
1.46044e-10
1.46047e-10
1.46051e-10
1.46056e-10
1.46064e-10
1.46075e-10
1.4609e-10
1.46112e-10
1.46143e-10
1.46189e-10
1.46254e-10
1.46348e-10
1.46485e-10
1.46684e-10
1.46975e-10
1.474e-10
1.48025e-10
1.48944e-10
1.50299e-10
1.52301e-10
1.55262e-10
1.5964e-10
1.66109e-10
1.75642e-10
1.89638e-10
2.10076e-10
2.397e-10
2.82218e-10
3.42468e-10
4.2648e-10
5.41468e-10
6.95711e-10
8.99087e-10
1.16352e-09
1.46038e-10
1.46038e-10
1.46038e-10
1.46038e-10
1.46038e-10
1.46038e-10
1.46039e-10
1.46039e-10
1.46039e-10
1.4604e-10
1.46041e-10
1.46042e-10
1.46044e-10
1.46046e-10
1.4605e-10
1.46054e-10
1.46061e-10
1.4607e-10
1.46083e-10
1.46101e-10
1.46127e-10
1.46164e-10
1.46216e-10
1.46291e-10
1.46399e-10
1.46555e-10
1.46779e-10
1.47104e-10
1.47576e-10
1.48264e-10
1.49269e-10
1.50741e-10
1.529e-10
1.5607e-10
1.60728e-10
1.67564e-10
1.77578e-10
1.92199e-10
2.1344e-10
2.44085e-10
2.8788e-10
3.49689e-10
4.35553e-10
5.52607e-10
7.0888e-10
9.12956e-10
1.17377e-09
1.50015e-09
1.90235e-09
2.39397e-09
1.46038e-10
1.46038e-10
1.46039e-10
1.46039e-10
1.46039e-10
1.4604e-10
1.46041e-10
1.46042e-10
1.46044e-10
1.46046e-10
1.46049e-10
1.46053e-10
1.46059e-10
1.46067e-10
1.46078e-10
1.46094e-10
1.46116e-10
1.46147e-10
1.46191e-10
1.46253e-10
1.46341e-10
1.46467e-10
1.46647e-10
1.46905e-10
1.47276e-10
1.47811e-10
1.48586e-10
1.49709e-10
1.51342e-10
1.53721e-10
1.57191e-10
1.62253e-10
1.69635e-10
1.80382e-10
1.9598e-10
2.18513e-10
2.50848e-10
2.96819e-10
3.61376e-10
4.50631e-10
5.71771e-10
7.32868e-10
9.42517e-10
1.20954e-09
1.54251e-09
1.94925e-09
2.43701e-09
3.01208e-09
3.68154e-09
4.46032e-09
1.46039e-10
1.46039e-10
1.4604e-10
1.46041e-10
1.46042e-10
1.46043e-10
1.46046e-10
1.46048e-10
1.46052e-10
1.46058e-10
1.46065e-10
1.46075e-10
1.46089e-10
1.46109e-10
1.46136e-10
1.46174e-10
1.46228e-10
1.46303e-10
1.46409e-10
1.46559e-10
1.46771e-10
1.47074e-10
1.47507e-10
1.48127e-10
1.49018e-10
1.50301e-10
1.52153e-10
1.54833e-10
1.58714e-10
1.64339e-10
1.72488e-10
1.84273e-10
2.01271e-10
2.25677e-10
2.60488e-10
3.09676e-10
3.78329e-10
4.72683e-10
6.00023e-10
7.68474e-10
9.86694e-10
1.26353e-09
1.60771e-09
2.02713e-09
2.52902e-09
3.11937e-09
3.80216e-09
4.57843e-09
5.44732e-09
6.41193e-09
7.50085e-09
1.46042e-10
1.46044e-10
1.46046e-10
1.46048e-10
1.46052e-10
1.46057e-10
1.46064e-10
1.46074e-10
1.46087e-10
1.46105e-10
1.4613e-10
1.46164e-10
1.46212e-10
1.46278e-10
1.46371e-10
1.46501e-10
1.46683e-10
1.4694e-10
1.47304e-10
1.47819e-10
1.48553e-10
1.496e-10
1.51099e-10
1.53247e-10
1.56334e-10
1.60774e-10
1.67165e-10
1.76361e-10
1.89572e-10
2.085e-10
2.35495e-10
2.73733e-10
3.27384e-10
4.01726e-10
5.03162e-10
6.39108e-10
8.17767e-10
1.04787e-09
1.33829e-09
1.69778e-09
2.13443e-09
2.6555e-09
3.26721e-09
3.97413e-09
4.77789e-09
5.67729e-09
6.66999e-09
7.75493e-09
8.93412e-09
1.02159e-08
1.165e-08
1.46049e-10
1.46053e-10
1.46058e-10
1.46065e-10
1.46074e-10
1.46086e-10
1.46104e-10
1.46127e-10
1.46159e-10
1.46203e-10
1.46264e-10
1.46348e-10
1.46465e-10
1.46628e-10
1.46854e-10
1.47172e-10
1.47618e-10
1.48246e-10
1.49135e-10
1.50394e-10
1.52184e-10
1.54732e-10
1.58369e-10
1.63565e-10
1.70993e-10
1.81605e-10
1.96746e-10
2.18284e-10
2.48774e-10
2.9163e-10
3.51275e-10
4.33227e-10
5.44102e-10
6.91477e-10
8.83658e-10
1.12942e-09
1.43767e-09
1.81712e-09
2.27604e-09
2.82161e-09
3.46025e-09
4.19682e-09
5.03374e-09
5.97021e-09
7.00366e-09
8.13169e-09
9.35429e-09
1.06736e-08
1.2094e-08
1.36224e-08
1.527e-08
1.71038e-08
1.46075e-10
1.46088e-10
1.46105e-10
1.46128e-10
1.46159e-10
1.46202e-10
1.4626e-10
1.46339e-10
1.46448e-10
1.46598e-10
1.46806e-10
1.47094e-10
1.47495e-10
1.48055e-10
1.48839e-10
1.49939e-10
1.51488e-10
1.53676e-10
1.5677e-10
1.61155e-10
1.67377e-10
1.76208e-10
1.88736e-10
2.06477e-10
2.31519e-10
2.66679e-10
3.15669e-10
3.83218e-10
4.75143e-10
5.98304e-10
7.60463e-10
9.70039e-10
1.23584e-09
1.56678e-09
1.97154e-09
2.45839e-09
3.03451e-09
3.70636e-09
4.47892e-09
5.35515e-09
6.33481e-09
7.4153e-09
8.59348e-09
9.86781e-09
1.12394e-08
1.2711e-08
1.42881e-08
1.59762e-08
1.77821e-08
1.97154e-08
2.17882e-08
2.40819e-08
1.46164e-10
1.46206e-10
1.46263e-10
1.46341e-10
1.46447e-10
1.46592e-10
1.4679e-10
1.47062e-10
1.47436e-10
1.47955e-10
1.48673e-10
1.49673e-10
1.51068e-10
1.5302e-10
1.55757e-10
1.59603e-10
1.65015e-10
1.72641e-10
1.83385e-10
1.98512e-10
2.19763e-10
2.49504e-10
2.9088e-10
3.4796e-10
4.25842e-10
5.30676e-10
6.696e-10
8.50573e-10
1.08212e-09
1.37308e-09
1.73232e-09
2.16848e-09
2.68972e-09
3.30323e-09
4.01532e-09
4.83111e-09
5.75384e-09
6.78382e-09
7.91842e-09
9.15395e-09
1.04877e-08
1.19197e-08
1.34516e-08
1.50871e-08
1.68321e-08
1.86916e-08
2.06742e-08
2.2787e-08
2.50345e-08
2.7434e-08
3.00024e-08
3.28289e-08
1.46462e-10
1.46607e-10
1.46803e-10
1.4707e-10
1.47434e-10
1.47933e-10
1.48619e-10
1.49564e-10
1.50871e-10
1.52682e-10
1.552e-10
1.58707e-10
1.63602e-10
1.70442e-10
1.80008e-10
1.93384e-10
2.12063e-10
2.38074e-10
2.74131e-10
3.23776e-10
3.91501e-10
4.82818e-10
6.04246e-10
7.63212e-10
9.67868e-10
1.22683e-09
1.54893e-09
1.94299e-09
2.41752e-09
2.98056e-09
3.6392e-09
4.39957e-09
5.26678e-09
6.24419e-09
7.33241e-09
8.52899e-09
9.82995e-09
1.12317e-08
1.27327e-08
1.43336e-08
1.60371e-08
1.78484e-08
1.97719e-08
2.18142e-08
2.39846e-08
2.62861e-08
2.87299e-08
3.13315e-08
3.40933e-08
3.70218e-08
4.01379e-08
4.35551e-08
1.47488e-10
1.47988e-10
1.48669e-10
1.49599e-10
1.50872e-10
1.52622e-10
1.55033e-10
1.5836e-10
1.62965e-10
1.69346e-10
1.78197e-10
1.9048e-10
2.07513e-10
2.31085e-10
2.6359e-10
3.08167e-10
3.68824e-10
4.50536e-10
5.59268e-10
7.01922e-10
8.8621e-10
1.12046e-09
1.41334e-09
1.77365e-09
2.21009e-09
2.73103e-09
3.34428e-09
4.05684e-09
4.87456e-09
5.80245e-09
6.84377e-09
7.99934e-09
9.26689e-09
1.06422e-08
1.21207e-08
1.36998e-08
1.53795e-08
1.7161e-08
1.90481e-08
2.10455e-08
2.31583e-08
2.53959e-08
2.7762e-08
3.02632e-08
3.29176e-08
3.57298e-08
3.87028e-08
4.18461e-08
4.51724e-08
4.8693e-08
5.24341e-08
5.65271e-08
1.51075e-10
1.52835e-10
1.55237e-10
1.58524e-10
1.63033e-10
1.69226e-10
1.77746e-10
1.89471e-10
2.05606e-10
2.27774e-10
2.58145e-10
2.99561e-10
3.55668e-10
4.31009e-10
5.31084e-10
6.6233e-10
8.32027e-10
1.04815e-09
1.31915e-09
1.65371e-09
2.06054e-09
2.54817e-09
3.12477e-09
3.79787e-09
4.57429e-09
5.45954e-09
6.45845e-09
7.57405e-09
8.80726e-09
1.01559e-08
1.16153e-08
1.31804e-08
1.48477e-08
1.66159e-08
1.84854e-08
2.04588e-08
2.25408e-08
2.47351e-08
2.70493e-08
2.94903e-08
3.20611e-08
3.47778e-08
3.76498e-08
4.06801e-08
4.38745e-08
4.72445e-08
5.08016e-08
5.45562e-08
5.85248e-08
6.27237e-08
6.71805e-08
7.20398e-08
1.63821e-10
1.7008e-10
1.78614e-10
1.90259e-10
2.06149e-10
2.27807e-10
2.57256e-10
2.97139e-10
3.50839e-10
4.22582e-10
5.17503e-10
6.41647e-10
8.01913e-10
1.00593e-09
1.26187e-09
1.57826e-09
1.96375e-09
2.42686e-09
2.97592e-09
3.61881e-09
4.36277e-09
5.21426e-09
6.17848e-09
7.25995e-09
8.46143e-09
9.78375e-09
1.12246e-08
1.27791e-08
1.44415e-08
1.62076e-08
1.8075e-08
2.0043e-08
2.21136e-08
2.42906e-08
2.65768e-08
2.89792e-08
3.15055e-08
3.41574e-08
3.69471e-08
3.98886e-08
4.29857e-08
4.62416e-08
4.96668e-08
5.32734e-08
5.70698e-08
6.10705e-08
6.52911e-08
6.97445e-08
7.4444e-08
7.94064e-08
8.46642e-08
9.03785e-08
2.31243e-10
2.60902e-10
3.00747e-10
3.53998e-10
4.24663e-10
5.17612e-10
6.38593e-10
7.94187e-10
9.91714e-10
1.23908e-09
1.54459e-09
1.91676e-09
2.36411e-09
2.89492e-09
3.51725e-09
4.23861e-09
5.0659e-09
6.00515e-09
7.06115e-09
8.23804e-09
9.53826e-09
1.09623e-08
1.25077e-08
1.41692e-08
1.59406e-08
1.78169e-08
1.97947e-08
2.18726e-08
2.40518e-08
2.63344e-08
2.87234e-08
3.12257e-08
3.38471e-08
3.65902e-08
3.94663e-08
4.24867e-08
4.56606e-08
4.89888e-08
5.248e-08
5.61457e-08
5.99953e-08
6.40399e-08
6.82963e-08
7.27776e-08
7.7496e-08
8.24651e-08
8.76996e-08
9.3214e-08
9.90263e-08
1.05173e-07
1.11834e-07
4.37714e-10
5.31787e-10
6.53411e-10
8.08934e-10
1.00542e-09
1.25053e-09
1.55234e-09
1.91921e-09
2.35953e-09
2.88159e-09
3.49339e-09
4.20259e-09
5.01633e-09
5.94103e-09
6.98226e-09
8.14433e-09
9.43093e-09
1.0844e-08
1.23837e-08
1.40471e-08
1.58286e-08
1.77216e-08
1.97201e-08
2.18203e-08
2.402e-08
2.63189e-08