/*--------------------------------*- C++ -*----------------------------------*\
| =========                 |                                                 |
| \\      /  F ield         | OpenFOAM: The Open Source CFD Toolbox           |
|  \\    /   O peration     | Version:  v1706                                 |
|   \\  /    A nd           | Web:      www.OpenFOAM.com                      |
|    \\/     M anipulation  |                                                 |
\*---------------------------------------------------------------------------*/
FoamFile
{
    version     2.0;
    format      ascii;
    class       volScalarField;
    location    "3.4e-05";
    object      Mach;
}
// * * * * * * * * * * * * * * * * * * * * * * * * * * * * * * * * * * * * * //

dimensions      [0 0 0 0 0 0 0];


internalField   nonuniform List<scalar> 
30038
(
7.18506
7.18506
7.18506
7.18506
7.18506
7.18506
7.18506
7.18506
7.18506
7.18506
7.18506
7.18506
7.18506
7.18506
7.18506
7.18506
7.18506
7.18506
7.18506
7.18506
7.18506
7.18506
7.18506
7.18506
7.18506
7.18506
7.18506
7.18506
7.18506
7.18506
7.18506
7.18506
7.18506
7.18506
7.18506
7.18506
7.18506
7.18506
7.18506
7.18506
7.18506
7.18506
7.18506
7.18506
7.18506
7.18506
7.18506
7.18506
7.18506
7.18506
7.18506
7.18506
7.18506
7.18506
7.18506
7.18506
7.18506
7.18506
7.18506
7.18506
7.18506
7.18506
7.18506
7.18506
7.18506
7.18506
7.18506
7.18506
7.18506
7.18506
7.18506
7.18506
7.18506
7.18506
7.18506
7.18506
7.18506
7.18506
7.18506
7.18506
7.18506
7.18506
7.18506
7.18506
7.18506
7.18506
7.18506
7.18506
7.18506
7.18506
7.18506
7.18506
7.18506
7.18506
7.18506
7.18506
7.18506
7.18506
7.18506
7.18506
7.18506
7.18506
7.18506
7.18506
7.18506
7.18506
7.18506
7.18506
7.18506
7.18506
7.18506
7.18506
7.18506
7.18506
7.18506
7.18506
7.18506
7.18506
7.18506
7.18506
7.18506
7.18506
7.18506
7.18506
7.18506
7.18506
7.18506
7.18506
7.18506
7.18506
7.18506
7.18506
7.18506
7.18506
7.18506
7.18506
7.18506
7.18506
7.18506
7.18506
7.18506
7.18506
7.18506
7.18506
7.18506
7.18506
7.18506
7.18506
7.18506
7.18506
7.18506
7.18506
7.18506
7.18506
7.18506
7.18506
7.18506
7.18506
7.18506
7.18506
7.18506
7.18506
7.18506
7.18506
7.18506
7.18506
7.18506
7.18506
7.18506
7.18506
7.18506
7.18506
7.18506
7.18506
7.18506
7.18506
7.18506
7.18506
7.18506
7.18506
7.18506
7.18506
7.18506
7.18506
7.18506
7.18506
7.18506
7.18506
7.18506
7.18506
7.18506
7.18506
7.18506
7.18506
7.18506
7.18506
7.18506
7.18506
7.18506
7.18506
7.18506
7.18506
7.18506
7.18506
7.18506
7.18506
7.18506
7.18506
7.18506
7.18506
7.18506
7.18506
7.18506
7.18506
7.18506
7.18506
7.18506
7.18506
7.18506
7.18506
7.18506
7.18506
7.18506
7.18506
7.18506
7.18506
7.18506
7.18506
7.18506
7.18506
7.18506
7.18506
7.18506
7.18506
7.18506
7.18506
7.18506
7.18506
7.18506
7.18506
7.18506
7.18506
7.18506
7.18506
7.18506
7.18506
7.18506
7.18506
7.18506
7.18506
7.18506
7.18506
7.18506
7.18506
7.18506
7.18506
7.18506
7.18506
7.18506
7.18506
7.18506
7.18506
7.18506
7.18506
7.18506
7.18506
7.18506
7.18506
7.18506
7.18506
7.18506
7.18506
7.18506
7.18506
7.18506
7.18506
7.18506
7.18506
7.18506
7.18506
7.18506
7.18506
7.18506
7.18506
7.18506
7.18506
7.18506
7.18506
7.18506
7.18506
7.18506
7.18506
7.18506
7.18506
7.18506
7.18506
7.18506
7.18506
7.18506
7.18506
7.18506
7.18506
7.18506
7.18506
7.18506
7.18506
7.18506
7.18506
7.18506
7.18506
7.18506
7.18506
7.18506
7.18506
7.18506
7.18506
7.18506
7.18506
7.18506
7.18506
7.18506
7.18506
7.18506
7.18506
7.18506
7.18506
7.18506
7.18506
7.18506
7.18506
7.18506
7.18506
7.18506
7.18506
7.18506
7.18506
7.18506
7.18506
7.18506
7.18506
7.18506
7.18506
7.18506
7.18506
7.18506
7.18506
7.18506
7.18506
7.18506
7.18506
7.18506
7.18506
7.18506
7.18506
7.18506
7.18506
7.18506
7.18506
7.18506
7.18506
7.18506
7.18506
7.18506
7.18506
7.18506
7.18506
7.18506
7.18506
7.18506
7.18506
7.18506
7.18506
7.18506
7.18506
7.18506
7.18506
7.18506
7.18506
7.18506
7.18506
7.18506
7.18506
7.18506
7.18506
7.18506
7.18506
7.18506
7.18506
7.18506
7.18506
7.18506
7.18506
7.18506
7.18506
7.18506
7.18506
7.18506
7.18506
7.18506
7.18506
7.18506
7.18506
7.18506
7.18506
7.18506
7.18506
7.18506
7.18506
7.18506
7.18506
7.18506
7.18506
7.18506
7.18506
7.18506
7.18506
7.18506
7.18506
7.18506
7.18506
7.18506
7.18506
7.18506
7.18506
7.18506
7.18506
7.18506
7.18506
7.18506
7.18506
7.18506
7.18506
7.18506
7.18506
7.18506
7.18506
7.18506
7.18506
7.18506
7.18506
7.18506
7.18506
7.18506
7.18506
7.18506
7.18506
7.18506
7.18506
7.18506
7.18506
7.18506
7.18506
7.18506
7.18506
7.18506
7.18506
7.18506
7.18506
7.18506
7.18506
7.18506
7.18506
7.18506
7.18506
7.18506
7.18506
7.18506
7.18506
7.18506
7.18506
7.18506
7.18506
7.18506
7.18506
7.18506
7.18506
7.18506
7.18506
7.18506
7.18506
7.18506
7.18506
7.18506
7.18506
7.18506
7.18506
7.18506
7.18506
7.18506
7.18506
7.18506
7.18506
7.18506
7.18506
7.18506
7.18506
7.18506
7.18506
7.18506
7.18506
7.18506
7.18506
7.18506
7.18506
7.18506
7.18506
7.18506
7.18506
7.18506
7.18506
7.18506
7.18506
7.18506
7.18506
7.18506
7.18506
7.18506
7.18506
7.18506
7.18506
7.18506
7.18506
7.18506
7.18506
7.18506
7.18506
7.18506
7.18506
7.18506
7.18506
7.18506
7.18506
7.18506
7.18506
7.18506
7.18506
7.18506
7.18506
7.18506
7.18506
7.18506
7.18506
7.18506
7.18506
7.18506
7.18506
7.18506
7.18506
7.18506
7.18506
7.18506
7.18506
7.18506
7.18506
7.18506
7.18506
7.18506
7.18506
7.18506
7.18506
7.18506
7.18506
7.18506
7.18506
7.18506
7.18506
7.18506
7.18506
7.18506
7.18506
7.18506
7.18506
7.18506
7.18506
7.18506
7.18506
7.18506
7.18506
7.18506
7.18506
7.18506
7.18506
7.18506
7.18506
7.18506
7.18506
7.18506
7.18506
7.18506
7.18506
7.18506
7.18506
7.18506
7.18506
7.18506
7.18506
7.18506
7.18506
7.18506
7.18506
7.18506
7.18506
7.18506
7.18506
7.18506
7.18506
7.18506
7.18506
7.18506
7.18506
7.18506
7.18506
7.18506
7.18506
7.18506
7.18506
7.18506
7.18506
7.18506
7.18506
7.18506
7.18506
7.18506
7.18506
7.18506
7.18506
7.18506
7.18506
7.18506
7.18506
7.18506
7.18506
7.18506
7.18506
7.18506
7.18506
7.18506
7.18506
7.18506
7.18506
7.18506
7.18506
7.18506
7.18506
7.18506
7.18506
7.18506
7.18506
7.18506
7.18506
7.18506
7.18506
7.18506
7.18506
7.18506
7.18506
7.18506
7.18506
7.18506
7.18506
7.18506
7.18506
7.18506
7.18506
7.18506
7.18506
7.18506
7.18506
7.18506
7.18506
7.18506
7.18506
7.18506
7.18506
7.18506
7.18506
7.18506
7.18506
7.18506
7.18506
7.18506
7.18506
7.18506
7.18506
7.18506
7.18506
7.18506
7.18506
7.18506
7.18506
7.18506
7.18506
7.18506
7.18506
7.18506
7.18506
7.18506
7.18506
7.18506
7.18506
7.18506
7.18506
7.18506
7.18506
7.18506
7.18506
7.18506
7.18506
7.18506
7.18506
7.18506
7.18506
7.18506
7.18506
7.18506
7.18506
7.18506
7.18506
7.18506
7.18506
7.18506
7.18506
7.18506
7.18506
7.18506
7.18506
7.18506
7.18506
7.18506
7.18506
7.18506
7.18506
7.18506
7.18506
7.18506
7.18506
7.18506
7.18506
7.18506
7.18506
7.18506
7.18506
7.18506
7.18506
7.18506
7.18506
7.18506
7.18506
7.18506
7.18506
7.18506
7.18506
7.18506
7.18506
7.18506
7.18506
7.18506
7.18506
7.18506
7.18506
7.18506
7.18506
7.18506
7.18506
7.18506
7.18506
7.18506
7.18506
7.18506
7.18506
7.18506
7.18506
7.18506
7.18506
7.18506
7.18506
7.18506
7.18506
7.18506
7.18506
7.18506
7.18506
7.18506
7.18506
7.18506
7.18506
7.18506
7.18506
7.18506
7.18506
7.18506
7.18506
7.18506
7.18506
7.18506
7.18506
7.18506
7.18506
7.18506
7.18506
7.18506
7.18506
7.18506
7.18506
7.18506
7.18506
7.18506
7.18506
7.18506
7.18506
7.18506
7.18506
7.18506
7.18506
7.18506
7.18506
7.18506
7.18506
7.18506
7.18506
7.18506
7.18506
7.18506
7.18506
7.18506
7.18506
7.18506
7.18506
7.18506
7.18506
7.18506
7.18506
7.18506
7.18506
7.18506
7.18506
7.18506
7.18506
7.18506
7.18506
7.18506
7.18506
7.18506
7.18506
7.18506
7.18506
7.18506
7.18506
7.18506
7.18506
7.18506
7.18506
7.18506
7.18506
7.18506
7.18506
7.18506
7.18506
7.18506
7.18506
7.18506
7.18506
7.18506
7.18506
7.18506
7.18506
7.18506
7.18506
7.18506
7.18506
7.18506
7.18506
7.18506
7.18506
7.18506
7.18506
7.18506
7.18506
7.18506
7.18506
7.18506
7.18506
7.18506
7.18506
7.18506
7.18506
7.18506
7.18506
7.18506
7.18506
7.18506
7.18506
7.18506
7.18506
7.18506
7.18506
7.18506
7.18506
7.18506
7.18506
7.18506
7.18506
7.18506
7.18506
7.18506
7.18506
7.18506
7.18506
7.18506
7.18506
7.18506
7.18506
7.18506
7.18506
7.18506
7.18506
7.18506
7.18506
7.18506
7.18506
7.18506
7.18506
7.18506
7.18506
7.18506
7.18506
7.18506
7.18506
7.18506
7.18506
7.18506
7.18506
7.18506
7.18506
7.18506
7.18506
7.18506
7.18506
7.18506
7.18506
7.18506
7.18506
7.18506
7.18506
7.18506
7.18506
7.18506
7.18506
7.18506
7.18506
7.18506
7.18506
7.18506
7.18506
7.18506
7.18506
7.18506
7.18506
7.18506
7.18506
7.18506
7.18506
7.18506
7.18506
7.18506
7.18506
7.18506
7.18506
7.18506
7.18506
7.18506
7.18506
7.18506
7.18506
7.18506
7.18506
7.18506
7.18506
7.18506
7.18506
7.18506
7.18506
7.18506
7.18506
7.18506
7.18506
7.18506
7.18506
7.18506
7.18506
7.18506
7.18506
7.18506
7.18506
7.18506
7.18506
7.18506
7.18506
7.18506
7.18506
7.18506
7.18506
7.18506
7.18506
7.18506
7.18506
7.18506
7.18506
7.18506
7.18506
7.18506
7.18506
7.18506
7.18506
7.18506
7.18506
7.18506
7.18506
7.18506
7.18506
7.18506
7.18506
7.18506
7.18506
7.18506
7.18506
7.18506
7.18506
7.18506
7.18506
7.18506
7.18506
7.18506
7.18506
7.18506
7.18506
7.18506
7.18506
7.18506
7.18506
7.18506
7.18506
7.18506
7.18506
7.18506
7.18506
7.18506
7.18506
7.18506
7.18506
7.18506
7.18506
7.18506
7.18506
7.18506
7.18506
7.18506
7.18506
7.18506
7.18506
7.18506
7.18506
7.18506
7.18506
7.18506
7.18506
7.18506
7.18506
7.18506
7.18506
7.18506
7.18506
7.18506
7.18506
7.18506
7.18506
7.18506
7.18506
7.18506
7.18506
7.18506
7.18506
7.18506
7.18506
7.18506
7.18506
7.18506
7.18506
7.18506
7.18506
7.18506
7.18506
7.18506
7.18506
7.18506
7.18506
7.18506
7.18506
7.18506
7.18506
7.18506
7.18506
7.18506
7.18506
7.18506
7.18506
7.18506
7.18506
7.18506
7.18506
7.18506
7.18506
7.18506
7.18506
7.18506
7.18506
7.18506
7.18506
7.18506
7.18506
7.18506
7.18506
7.18506
7.18506
7.18506
7.18506
7.18506
7.18506
7.18506
7.18506
7.18506
7.18506
7.18506
7.18506
7.18506
7.18506
7.18506
7.18506
7.18506
7.18506
7.18506
7.18506
7.18506
7.18506
7.18506
7.18506
7.18506
7.18506
7.18506
7.18506
7.18506
7.18506
7.18506
7.18506
7.18506
7.18506
7.18506
7.18506
7.18506
7.18506
7.18506
7.18506
7.18506
7.18506
7.18506
7.18506
7.18506
7.18506
7.18506
7.18506
7.18506
7.18506
7.18506
7.18506
7.18506
7.18506
7.18506
7.18506
7.18506
7.18506
7.18506
7.18506
7.18506
7.18506
7.18506
7.18506
7.18506
7.18506
7.18506
7.18506
7.18505
7.18505
7.18506
7.18506
7.18506
7.18506
7.18506
7.18506
7.18506
7.18506
7.18506
7.18506
7.18506
7.18506
7.18506
7.18506
7.18506
7.18506
7.18506
7.18506
7.18506
7.18506
7.18506
7.18506
7.18506
7.18506
7.18506
7.18506
7.18506
7.18506
7.18506
7.18506
7.18506
7.18506
7.18506
7.18506
7.18506
7.18506
7.18506
7.18506
7.18506
7.18506
7.18506
7.18506
7.18506
7.18506
7.18506
7.18505
7.18505
7.18504
7.18503
7.185
7.18506
7.18506
7.18506
7.18506
7.18506
7.18506
7.18506
7.18506
7.18506
7.18506
7.18506
7.18506
7.18506
7.18506
7.18506
7.18506
7.18506
7.18506
7.18506
7.18506
7.18506
7.18506
7.18506
7.18506
7.18506
7.18506
7.18506
7.18506
7.18506
7.18506
7.18506
7.18506
7.18506
7.18506
7.18506
7.18506
7.18506
7.18506
7.18506
7.18506
7.18506
7.18506
7.18505
7.18505
7.18504
7.18502
7.185
7.18497
7.18492
7.18484
7.18506
7.18506
7.18506
7.18506
7.18506
7.18506
7.18506
7.18506
7.18506
7.18506
7.18506
7.18506
7.18506
7.18506
7.18506
7.18506
7.18506
7.18506
7.18506
7.18506
7.18506
7.18506
7.18506
7.18506
7.18506
7.18506
7.18506
7.18506
7.18506
7.18506
7.18506
7.18506
7.18506
7.18506
7.18506
7.18506
7.18506
7.18506
7.18506
7.18505
7.18505
7.18504
7.18502
7.185
7.18497
7.18492
7.18484
7.18472
7.18453
7.18424
7.18506
7.18506
7.18506
7.18506
7.18506
7.18506
7.18506
7.18506
7.18506
7.18506
7.18506
7.18506
7.18506
7.18506
7.18506
7.18506
7.18506
7.18506
7.18506
7.18506
7.18506
7.18506
7.18506
7.18506
7.18506
7.18506
7.18506
7.18506
7.18506
7.18506
7.18506
7.18506
7.18506
7.18506
7.18506
7.18506
7.18505
7.18504
7.18503
7.18502
7.185
7.18496
7.18491
7.18483
7.18471
7.18453
7.18425
7.18383
7.18317
7.18214
7.18506
7.18506
7.18506
7.18506
7.18506
7.18506
7.18506
7.18506
7.18506
7.18506
7.18506
7.18506
7.18506
7.18506
7.18506
7.18506
7.18506
7.18506
7.18506
7.18506
7.18506
7.18506
7.18506
7.18506
7.18506
7.18506
7.18506
7.18506
7.18506
7.18506
7.18506
7.18506
7.18505
7.18505
7.18504
7.18503
7.18501
7.18499
7.18495
7.1849
7.18481
7.18469
7.1845
7.18422
7.1838
7.18317
7.1822
7.18073
7.17847
7.1749
7.18506
7.18506
7.18506
7.18506
7.18506
7.18506
7.18506
7.18506
7.18506
7.18506
7.18506
7.18506
7.18506
7.18506
7.18506
7.18506
7.18506
7.18506
7.18506
7.18506
7.18506
7.18506
7.18506
7.18506
7.18506
7.18506
7.18506
7.18506
7.18506
7.18505
7.18505
7.18504
7.18503
7.18501
7.18498
7.18494
7.18488
7.18479
7.18466
7.18447
7.18418
7.18375
7.1831
7.18213
7.18067
7.17848
7.17518
7.17019
7.16255
7.15068
7.18506
7.18506
7.18506
7.18506
7.18506
7.18506
7.18506
7.18506
7.18506
7.18506
7.18506
7.18506
7.18506
7.18506
7.18506
7.18506
7.18506
7.18506
7.18506
7.18506
7.18506
7.18506
7.18506
7.18506
7.18506
7.18505
7.18505
7.18504
7.18503
7.18502
7.185
7.18497
7.18492
7.18486
7.18476
7.18462
7.18442
7.18411
7.18366
7.18299
7.182
7.18052
7.17831
7.17502
7.17011
7.16276
7.15178
7.13534
7.11057
7.07298
7.18506
7.18506
7.18506
7.18506
7.18506
7.18506
7.18506
7.18506
7.18506
7.18506
7.18506
7.18506
7.18506
7.18506
7.18506
7.18506
7.18506
7.18506
7.18506
7.18506
7.18506
7.18506
7.18505
7.18505
7.18504
7.18503
7.18501
7.18499
7.18495
7.1849
7.18483
7.18473
7.18457
7.18435
7.18402
7.18354
7.18284
7.1818
7.18027
7.178
7.17466
7.16971
7.16238
7.15153
7.13547
7.11179
7.07697
7.0261
6.95205
6.84536
7.18506
7.18506
7.18506
7.18506
7.18506
7.18506
7.18506
7.18506
7.18506
7.18506
7.18506
7.18506
7.18506
7.18506
7.18506
7.18506
7.18506
7.18506
7.18505
7.18505
7.18504
7.18503
7.18502
7.185
7.18497
7.18493
7.18488
7.1848
7.18468
7.18451
7.18426
7.1839
7.18338
7.18263
7.18152
7.1799
7.17754
7.17408
7.169
7.16154
7.1506
7.13457
7.11113
7.07701
7.02769
6.95716
6.85785
6.72111
6.53732
6.29966
7.18506
7.18506
7.18506
7.18506
7.18506
7.18506
7.18506
7.18506
7.18506
7.18506
7.18506
7.18506
7.18506
7.18506
7.18505
7.18505
7.18504
7.18504
7.18503
7.18501
7.18499
7.18495
7.18491
7.18484
7.18475
7.18461
7.18442
7.18414
7.18375
7.18317
7.18234
7.18115
7.17941
7.1769
7.17325
7.16794
7.16022
7.14899
7.13269
7.10907
7.07499
7.02616
6.95693
6.86029
6.72831
6.55321
6.3293
6.05546
5.73519
5.38154
7.18506
7.18506
7.18506
7.18506
7.18506
7.18506
7.18506
7.18506
7.18506
7.18506
7.18505
7.18505
7.18505
7.18504
7.18503
7.18501
7.18499
7.18497
7.18493
7.18487
7.1848
7.18469
7.18453
7.18431
7.18399
7.18354
7.1829
7.18198
7.18066
7.17876
7.17604
7.17212
7.16647
7.15834
7.14661
7.12974
7.10552
7.07089
7.02173
6.95265
6.85703
6.72744
6.55666
6.33948
6.07482
5.76743
5.42777
5.07058
4.70897
4.35956
7.18506
7.18506
7.18506
7.18506
7.18506
7.18506
7.18506
7.18505
7.18505
7.18504
7.18503
7.18502
7.185
7.18498
7.18494
7.18489
7.18483
7.18473
7.1846
7.18442
7.18416
7.18379
7.18327
7.18254
7.1815
7.18001
7.17791
7.17491
7.17063
7.16452
7.15579
7.14333
7.12557
7.10031
7.06453
7.01422
6.9442
6.84817
6.71917
6.55051
6.3374
6.07893
5.77951
5.44896
5.10086
4.74969
4.40794
4.0853
3.78547
3.5148
7.18506
7.18506
7.18505
7.18505
7.18505
7.18504
7.18503
7.18502
7.185
7.18498
7.18495
7.18491
7.18485
7.18476
7.18465
7.18449
7.18427
7.18396
7.18352
7.18292
7.18206
7.18087
7.17918
7.17679
7.17343
7.16867
7.16195
7.15243
7.13896
7.11994
7.09315
7.05559
7.00328
6.93122
6.83341
6.7033
6.53476
6.32358
6.06915
5.7758
5.45276
5.11266
4.76907
4.43394
4.11633
3.8221
3.554
3.31345
3.09787
2.90963
7.18505
7.18504
7.18503
7.18502
7.185
7.18498
7.18495
7.18491
7.18486
7.18478
7.18468
7.18454
7.18434
7.18407
7.18369
7.18317
7.18245
7.18144
7.18004
7.17808
7.17534
7.1715
7.16613
7.1586
7.14804
7.13324
7.11254
7.08367
7.04359
6.98838
6.91315
6.81214
6.67926
6.50899
6.29776
6.04548
5.75658
5.43991
5.10733
4.77142
4.44334
4.13158
3.84168
3.57664
3.33748
3.12406
2.93556
2.77188
2.63167
2.51636
7.18502
7.185
7.18498
7.18495
7.18491
7.18486
7.18479
7.18469
7.18456
7.18438
7.18413
7.1838
7.18333
7.1827
7.18182
7.18061
7.17894
7.17663
7.17343
7.16898
7.16281
7.15424
7.14233
7.1258
7.10291
7.07131
7.02791
6.96879
6.88914
6.78351
6.64624
6.47246
6.25939
6.00758
5.72176
5.41054
5.08509
4.75705
4.4367
4.13182
3.84756
3.58675
3.3504
3.13848
2.95028
2.78526
2.64329
2.52465
2.42966
2.35639
2.30211
7.18491
7.18486
7.18479
7.18469
7.18457
7.1844
7.18416
7.18385
7.18343
7.18285
7.18206
7.18098
7.1795
7.17748
7.17471
7.1709
7.16566
7.15846
7.14854
7.1349
7.11615
7.09045
7.05534
7.00767
6.94349
6.8581
6.74633
6.60305
6.42412
6.20763
5.9549
5.67107
5.36462
5.04608
4.72614
4.41416
4.11715
3.83972
3.58445
3.3523
3.14325
2.95663
2.79183
2.64855
2.52703
2.42759
2.34972
2.29141
2.24967
2.2207
2.20063
7.18468
7.18456
7.18439
7.18416
7.18386
7.18346
7.18291
7.18217
7.18118
7.17983
7.178
7.17551
7.17213
7.16754
7.16127
7.15273
7.14108
7.12521
7.10362
7.07434
7.03478
6.98172
6.91117
6.81858
6.69911
6.54822
6.36264
6.1414
5.88671
5.60414
5.3021
4.99046
4.67899
4.37603
4.08778
3.81829
3.56976
3.34306
3.13813
2.9544
2.79118
2.64807
2.52515
2.42283
2.34104
2.27853
2.23278
2.20062
2.17872
2.16417
2.15485
2.14847
7.18383
7.18343
7.1829
7.18218
7.18123
7.17996
7.17824
7.17594
7.17284
7.16866
7.16302
7.1554
7.14512
7.13123
7.1125
7.08729
7.05347
7.00833
6.94854
6.87014
6.76875
6.63996
6.47995
6.28642
6.05946
5.80215
5.52056
5.22294
4.91847
4.61596
4.32273
4.04411
3.78353
3.54284
3.32273
3.12308
2.94338
2.78292
2.64128
2.51839
2.41462
2.33016
2.26431
2.21518
2.17999
2.15574
2.13947
2.12886
2.12231
2.11827
2.11643
2.11547
7.18115
7.1799
7.17824
7.17603
7.17309
7.16916
7.16391
7.15689
7.14749
7.13493
7.11814
7.09573
7.06589
7.02635
6.97424
6.90617
6.81824
6.70635
6.56664
6.39616
6.1937
5.96046
5.70041
5.41998
5.12719
4.83047
4.5376
4.25485
3.9867
3.73595
3.50405
3.29151
3.09817
2.92353
2.76691
2.62786
2.50622
2.40228
2.31639
2.24823
2.19644
2.15868
2.13222
2.11432
2.10257
2.0952
2.09067
2.08838
2.08786
2.08813
2.0896
2.09068
7.17292
7.1691
7.16405
7.15736
7.14849
7.13675
7.12119
7.10062
7.07346
7.03775
6.991
6.93027
6.85211
6.75281
6.62868
6.47658
6.29458
6.08265
5.84314
5.58079
5.30224
5.01511
4.727
4.4446
4.17315
3.91628
3.67618
3.45393
3.24983
3.06369
2.895
2.74314
2.60764
2.48832
2.38538
2.29922
2.22976
2.17609
2.13631
2.10802
2.08865
2.07578
2.0676
2.06274
2.06011
2.05927
2.05937
2.06101
2.06257
2.06445
2.06713
2.06989
7.14823
7.13688
7.122
7.1025
7.07699
7.04373
7.00054
6.94481
6.87349
6.78324
6.67065
6.53262
6.36694
6.17286
5.95158
5.70648
5.44291
5.16747
4.88724
4.60883
4.33786
4.07855
3.83374
3.60502
3.39314
3.19824
3.02004
2.85807
2.71177
2.58065
2.46455
2.36361
2.27821
2.20846
2.15375
2.1126
2.08287
2.06222
2.04842
2.0396
2.03433
2.03132
2.03025
2.03055
2.03176
2.0338
2.03563
2.03832
2.04139
2.04457
2.04769
2.05097
7.07689
7.04495
7.00384
6.95122
6.88436
6.80026
6.69579
6.56806
6.41481
6.23492
6.02891
5.79917
5.54993
5.28685
5.01627
4.74447
4.47705
4.21853
3.97219
3.74011
3.5234
3.32251
3.1374
2.96779
2.81318
2.67309
2.54707
2.43496
2.33686
2.25313
2.18399
2.12907
2.08719
2.05651
2.03496
2.02042
2.01101
2.00528
2.00218
2.001
2.00126
2.00211
2.00446
2.00666
2.00915
2.01237
2.0157
2.019
2.02256
2.02622
2.02983
2.0333
6.88577
6.80537
6.70614
6.58542
6.44106
6.27187
6.07797
5.86112
5.62474
5.3736
5.11333
4.84971
4.58811
4.33303
4.08797
3.85535
3.6366
3.4324
3.24296
3.06813
2.90757
2.76085
2.62751
2.50717
2.39969
2.30514
2.22389
2.15619
2.10181
2.05984
2.02875
2.00666
1.99158
1.98175
1.97581
1.9726
1.97123
1.97135
1.97244
1.97462
1.97719
1.97963
1.98292
1.98648
1.99005
1.9936
1.99746
2.00129
2.00512
2.00893
2.01274
2.01637
6.28577
6.10093
5.89434
5.66887
5.42861
5.1785
4.9238
4.66947
4.41986
4.17844
3.94776
3.72949
3.52452
3.33319
3.15552
2.99129
2.84016
2.7017
2.57555
2.46136
2.35902
2.26863
2.19051
2.12495
2.07183
2.03043
1.99943
1.97716
1.96182
1.9518
1.94572
1.94238
1.94101
1.94121
1.94247
1.94435
1.94735
1.94997
1.95319
1.95692
1.96066
1.96433
1.96833
1.97242
1.97642
1.98044
1.98445
1.98844
1.99239
1.99635
2.00016
5.45277
5.21222
4.96658
4.7204
4.4777
4.24179
4.01518
3.79962
3.59614
3.40523
3.22698
3.06127
2.90784
2.76635
2.63644
2.51778
2.4101
2.31332
2.22756
2.15314
2.09033
2.0391
1.99884
1.96843
1.94639
1.93112
1.92109
1.91495
1.91159
1.91035
1.91063
1.9119
1.91384
1.91682
1.92002
1.92309
1.92702
1.93095
1.93487
1.93891
1.94317
1.94737
1.95159
1.95582
1.96001
1.96418
1.96832
1.97246
1.97656
1.98067
1.98465
4.50597
4.27703
4.05626
3.84535
3.64539
3.45695
3.28019
3.11505
2.96134
2.81877
2.68703
2.56581
2.45484
2.35393
2.26303
2.18229
2.112
2.05247
2.00365
1.96505
1.9357
1.91428
1.89937
1.88952
1.8835
1.88033
1.87921
1.87954
1.88088
1.88311
1.88608
1.88955
1.89273
1.89665
1.9009
1.90503
1.90909
1.91356
1.91801
1.92241
1.92683
1.93122
1.93559
1.93994
1.94427
1.94859
1.95288
1.95717
1.96142
1.96569
1.96983
3.48691
3.31351
3.15081
2.99866
2.85683
2.72506
2.60306
2.49059
2.38743
2.29344
2.20865
2.13321
2.06743
2.01158
1.96562
1.92914
1.90127
1.88083
1.86655
1.8571
1.85138
1.84846
1.8475
1.84803
1.84962
1.85202
1.85496
1.85864
1.86223
1.86613
1.87056
1.87487
1.87914
1.88369
1.88834
1.89289
1.8975
1.90211
1.90668
1.91123
1.91575
1.92026
1.92474
1.92922
1.93368
1.93812
1.94255
1.94696
1.95138
1.95568
2.87904
2.74887
2.62772
2.51535
2.41157
2.31623
2.22926
2.15072
2.0808
2.01981
1.96796
1.92524
1.89125
1.86521
1.84606
1.83267
1.82386
1.81857
1.81597
1.81529
1.81607
1.8179
1.82047
1.82357
1.82731
1.83138
1.83524
1.83984
1.84442
1.84891
1.85353
1.85836
1.86312
1.8679
1.8727
1.87746
1.88219
1.88691
1.89161
1.89628
1.90094
1.90558
1.91021
1.91482
1.91942
1.92401
1.92859
1.93314
1.93771
1.94216
2.42476
2.32955
2.24198
2.16204
2.08983
2.02556
1.96955
1.92197
1.88276
1.85157
1.82765
1.81006
1.79781
1.78979
1.78507
1.78292
1.78261
1.78367
1.78576
1.78852
1.79187
1.79571
1.80008
1.80412
1.80875
1.81365
1.81833
1.82299
1.82804
1.83305
1.83801
1.84299
1.84794
1.85286
1.85777
1.86265
1.86751
1.87235
1.87717
1.88198
1.88677
1.89154
1.89631
1.90106
1.9058
1.91053
1.91525
1.91995
1.92466
1.92926
2.09242
2.02656
1.96804
1.91713
1.87398
1.8385
1.81033
1.78876
1.77296
1.76202
1.75497
1.75096
1.74936
1.74947
1.75085
1.75326
1.75626
1.75986
1.76385
1.76834
1.7728
1.77748
1.78259
1.78748
1.79232
1.79749
1.80269
1.80779
1.81296
1.81812
1.82324
1.82833
1.8334
1.83844
1.84346
1.84846
1.85344
1.85841
1.86336
1.8683
1.87322
1.87813
1.88302
1.88791
1.89279
1.89765
1.90251
1.90734
1.91219
1.91693
1.86306
1.82445
1.79283
1.76781
1.74875
1.73489
1.72542
1.71945
1.71626
1.71529
1.71589
1.71766
1.72042
1.72369
1.72753
1.73174
1.73639
1.74122
1.74597
1.75121
1.75638
1.76142
1.76669
1.77208
1.77736
1.78269
1.78804
1.79333
1.7986
1.80386
1.80909
1.81429
1.81947
1.82462
1.82976
1.83488
1.83998
1.84507
1.85015
1.85521
1.86026
1.8653
1.87033
1.87535
1.88035
1.88535
1.89034
1.8953
1.90028
1.90515
1.72432
1.70787
1.69605
1.68814
1.68334
1.68106
1.68078
1.6819
1.68412
1.68723
1.69084
1.69491
1.69935
1.70423
1.70931
1.71424
1.71963
1.72505
1.73026
1.73562
1.7412
1.7467
1.75219
1.75771
1.76318
1.76862
1.77405
1.77946
1.78483
1.79019
1.79552
1.80083
1.80612
1.81139
1.81665
1.82189
1.82711
1.83232
1.83752
1.84271
1.84788
1.85304
1.8582
1.86334
1.86847
1.87359
1.8787
1.88379
1.88889
1.89389
1.65031
1.64676
1.64543
1.64587
1.64756
1.65025
1.65375
1.6577
1.66201
1.66669
1.6718
1.67704
1.68229
1.68785
1.69346
1.69886
1.70432
1.71009
1.71578
1.72143
1.72712
1.73278
1.73841
1.74401
1.74958
1.75513
1.76065
1.76615
1.77163
1.77709
1.78253
1.78795
1.79335
1.79874
1.80411
1.80946
1.8148
1.82013
1.82544
1.83075
1.83604
1.84132
1.8466
1.85186
1.85711
1.86235
1.86758
1.87279
1.87801
1.88313
1.61294
1.61612
1.62001
1.62428
1.62887
1.6338
1.63915
1.64456
1.6501
1.6558
1.66158
1.66721
1.67282
1.67877
1.68464
1.69044
1.6963
1.70215
1.70794
1.71372
1.71947
1.72518
1.73088
1.73654
1.74218
1.7478
1.7534
1.75899
1.76455
1.77009
1.77562
1.78113
1.78663
1.79211
1.79757
1.80302
1.80846
1.81389
1.81931
1.82472
1.83012
1.8355
1.84088
1.84625
1.8516
1.85695
1.86227
1.8676
1.87283
1.59065
1.59553
1.60071
1.6063
1.61191
1.61769
1.62357
1.62951
1.63536
1.64115
1.64723
1.65328
1.65923
1.66527
1.67129
1.67725
1.68319
1.68911
1.695
1.70086
1.70669
1.7125
1.71828
1.72404
1.72978
1.7355
1.74119
1.74688
1.75254
1.75819
1.76382
1.76944
1.77504
1.78062
1.7862
1.79176
1.79731
1.80284
1.80837
1.81389
1.8194
1.82489
1.83038
1.83585
1.84131
1.84677
1.85219
1.85763
1.86297
1.57328
1.57911
1.58509
1.59119
1.59729
1.60333
1.6093
1.61552
1.62173
1.62786
1.63405
1.64023
1.64635
1.65245
1.65854
1.66459
1.67061
1.6766
1.68257
1.68852
1.69444
1.70033
1.70621
1.71206
1.71789
1.7237
1.7295
1.73528
1.74104
1.74679
1.75252
1.75824
1.76394
1.76963
1.77531
1.78097
1.78663
1.79227
1.7979
1.80352
1.80913
1.81473
1.82032
1.8259
1.83146
1.83702
1.84254
1.84807
1.85352
1.56492
1.57111
1.57727
1.58365
1.59002
1.59631
1.60265
1.60899
1.61527
1.62153
1.62777
1.63398
1.64016
1.64631
1.65243
1.65853
1.66461
1.67066
1.67668
1.68269
1.68867
1.69464
1.70058
1.7065
1.71241
1.7183
1.72417
1.73003
1.73587
1.7417
1.74752
1.75332
1.75911
1.76489
1.77065
1.7764
1.78215
1.78788
1.7936
1.79931
1.805
1.81069
1.81636
1.82202
1.82767
1.83329
1.83891
1.84444
1.55163
1.55815
1.5646
1.5711
1.57758
1.58402
1.59043
1.59682
1.60318
1.60952
1.61582
1.6221
1.62835
1.63457
1.64077
1.64695
1.6531
1.65923
1.66534
1.67143
1.6775
1.68355
1.68958
1.69559
1.70159
1.70757
1.71353
1.71948
1.72542
1.73134
1.73725
1.74315
1.74903
1.7549
1.76076
1.76661
1.77244
1.77827
1.78408
1.78989
1.79568
1.80145
1.80722
1.81297
1.8187
1.82441
1.83011
1.83572
1.54602
1.55261
1.55917
1.56571
1.57222
1.5787
1.58515
1.59157
1.59797
1.60434
1.61069
1.61701
1.62331
1.62958
1.63583
1.64206
1.64827
1.65446
1.66063
1.66679
1.67292
1.67904
1.68513
1.69122
1.69728
1.70334
1.70937
1.7154
1.72141
1.72741
1.7334
1.73937
1.74533
1.75128
1.75722
1.76314
1.76906
1.77496
1.78085
1.78673
1.79259
1.79844
1.80427
1.81008
1.81586
1.82164
1.82733
1.53445
1.5411
1.54772
1.55432
1.56088
1.56742
1.57394
1.58042
1.58689
1.59333
1.59974
1.60613
1.6125
1.61885
1.62517
1.63148
1.63777
1.64403
1.65028
1.65652
1.66273
1.66893
1.67511
1.68127
1.68742
1.69356
1.69968
1.70579
1.71189
1.71797
1.72404
1.7301
1.73615
1.74218
1.74821
1.75422
1.76021
1.7662
1.77217
1.77813
1.78407
1.78999
1.7959
1.80178
1.80764
1.81348
1.81924
1.53004
1.53672
1.54337
1.54999
1.55659
1.56317
1.56972
1.57624
1.58275
1.58923
1.59569
1.60213
1.60855
1.61495
1.62133
1.62769
1.63403
1.64035
1.64666
1.65295
1.65923
1.66549
1.67174
1.67797
1.68418
1.69039
1.69658
1.70275
1.70892
1.71507
1.72121
1.72733
1.73345
1.73955
1.74564
1.75171
1.75777
1.76382
1.76985
1.77586
1.78186
1.78783
1.79378
1.7997
1.80561
1.81142
1.5194
1.52614
1.53284
1.53953
1.54618
1.55282
1.55943
1.56602
1.57259
1.57914
1.58567
1.59217
1.59866
1.60513
1.61158
1.61801
1.62443
1.63083
1.63721
1.64357
1.64992
1.65626
1.66258
1.66889
1.67518
1.68146
1.68773
1.69398
1.70022
1.70645
1.71266
1.71886
1.72505
1.73122
1.73739
1.74353
1.74966
1.75578
1.76188
1.76795
1.77401
1.78005
1.78606
1.79203
1.79799
1.80385
1.50918
1.51597
1.52273
1.52947
1.53619
1.54288
1.54956
1.55621
1.56284
1.56945
1.57604
1.58262
1.58917
1.59571
1.60222
1.60873
1.61521
1.62168
1.62813
1.63457
1.64099
1.64739
1.65379
1.66017
1.66653
1.67288
1.67922
1.68554
1.69185
1.69815
1.70444
1.71071
1.71696
1.72321
1.72943
1.73565
1.74184
1.74802
1.75418
1.76031
1.76643
1.77252
1.77858
1.7846
1.7906
1.7965
1.49936
1.5062
1.51301
1.51981
1.52658
1.53334
1.54007
1.54678
1.55347
1.56014
1.5668
1.57343
1.58005
1.58665
1.59324
1.5998
1.60635
1.61289
1.61941
1.62591
1.6324
1.63887
1.64533
1.65178
1.65821
1.66463
1.67103
1.67742
1.6838
1.69016
1.69651
1.70285
1.70917
1.71547
1.72176
1.72803
1.73428
1.74052
1.74673
1.75292
1.75908
1.76522
1.77132
1.77739
1.78342
1.78936
1.48991
1.4968
1.50367
1.51052
1.51735
1.52416
1.53095
1.53772
1.54447
1.5512
1.55791
1.56461
1.57129
1.57795
1.58459
1.59122
1.59784
1.60443
1.61101
1.61758
1.62413
1.63067
1.63719
1.6437
1.6502
1.65668
1.66315
1.6696
1.67604
1.68246
1.68887
1.69526
1.70164
1.708
1.71434
1.72067
1.72697
1.73325
1.73951
1.74575
1.75195
1.75813
1.76427
1.77036
1.77642
1.78237
1.48083
1.48777
1.49469
1.50159
1.50847
1.51533
1.52218
1.529
1.53581
1.5426
1.54937
1.55612
1.56286
1.56958
1.57628
1.58297
1.58964
1.5963
1.60294
1.60956
1.61617
1.62277
1.62935
1.63592
1.64247
1.64901
1.65554
1.66204
1.66854
1.67502
1.68148
1.68792
1.69435
1.70076
1.70716
1.71353
1.71988
1.7262
1.7325
1.73877
1.74501
1.75121
1.75738
1.76349
1.76956
1.77553
1.47209
1.47908
1.48605
1.493
1.49993
1.50684
1.51374
1.52061
1.52747
1.53432
1.54114
1.54795
1.55474
1.56151
1.56827
1.57501
1.58174
1.58845
1.59515
1.60183
1.6085
1.61515
1.62179
1.62841
1.63501
1.6416
1.64818
1.65474
1.66128
1.66781
1.67432
1.68082
1.68729
1.69375
1.70018
1.70659
1.71298
1.71934
1.72567
1.73196
1.73822
1.74445
1.75063
1.75676
1.76285
1.76882
1.47071
1.47773
1.48473
1.49171
1.49867
1.50561
1.51254
1.51945
1.52634
1.53321
1.54007
1.54691
1.55374
1.56055
1.56735
1.57412
1.58089
1.58764
1.59437
1.60108
1.60779
1.61447
1.62114
1.6278
1.63444
1.64106
1.64767
1.65426
1.66083
1.66738
1.67392
1.68043
1.68692
1.69339
1.69983
1.70624
1.71262
1.71898
1.7253
1.73158
1.73782
1.74402
1.75015
1.75624
1.76222
1.46265
1.46971
1.47676
1.48378
1.49079
1.49778
1.50475
1.51171
1.51865
1.52557
1.53248
1.53937
1.54624
1.5531
1.55994
1.56677
1.57358
1.58037
1.58715
1.59391
1.60066
1.60739
1.61411
1.62081
1.62749
1.63415
1.6408
1.64743
1.65404
1.66062
1.66719
1.67373
1.68025
1.68674
1.69321
1.69965
1.70606
1.71243
1.71877
1.72506
1.73131
1.73751
1.74365
1.74973
1.75569
1.45488
1.46198
1.46907
1.47614
1.48319
1.49022
1.49724
1.50424
1.51122
1.51819
1.52514
1.53207
1.53899
1.54589
1.55278
1.55965
1.5665
1.57334
1.58016
1.58697
1.59375
1.60053
1.60728
1.61402
1.62074
1.62744
1.63412
1.64077
1.64741
1.65403
1.66062
1.66719
1.67373
1.68025
1.68674
1.69319
1.69962
1.706
1.71235
1.71865
1.72489
1.73109
1.73722
1.74329
1.74923
1.45452
1.46165
1.46876
1.47585
1.48292
1.48998
1.49702
1.50404
1.51105
1.51804
1.52502
1.53198
1.53892
1.54584
1.55275