/*--------------------------------*- C++ -*----------------------------------*\
| =========                 |                                                 |
| \\      /  F ield         | OpenFOAM: The Open Source CFD Toolbox           |
|  \\    /   O peration     | Version:  v1706                                 |
|   \\  /    A nd           | Web:      www.OpenFOAM.com                      |
|    \\/     M anipulation  |                                                 |
\*---------------------------------------------------------------------------*/
FoamFile
{
    version     2.0;
    format      ascii;
    class       volScalarField;
    location    "3.4e-05";
    object      rho;
}
// * * * * * * * * * * * * * * * * * * * * * * * * * * * * * * * * * * * * * //

dimensions      [1 -3 0 0 0 0 0];


internalField   nonuniform List<scalar> 
30038
(
0.000511309
0.000511309
0.000511309
0.000511309
0.000511309
0.000511309
0.000511309
0.000511309
0.000511309
0.000511309
0.000511309
0.000511309
0.000511309
0.000511309
0.000511309
0.000511309
0.000511309
0.000511309
0.000511309
0.000511309
0.000511309
0.000511309
0.000511309
0.000511309
0.000511309
0.000511309
0.000511309
0.000511309
0.000511309
0.000511309
0.000511309
0.000511309
0.000511309
0.000511309
0.000511309
0.000511309
0.000511309
0.000511309
0.000511309
0.000511309
0.000511309
0.000511309
0.000511309
0.000511309
0.000511309
0.000511309
0.000511309
0.000511309
0.000511309
0.000511309
0.000511309
0.000511309
0.000511309
0.000511309
0.000511309
0.000511309
0.000511309
0.000511309
0.000511309
0.000511309
0.000511309
0.000511309
0.000511309
0.000511309
0.000511309
0.000511309
0.000511309
0.000511309
0.000511309
0.000511309
0.000511309
0.000511309
0.000511309
0.000511309
0.000511309
0.000511309
0.000511309
0.000511309
0.000511309
0.000511309
0.000511309
0.000511309
0.000511309
0.000511309
0.000511309
0.000511309
0.000511309
0.000511309
0.000511309
0.000511309
0.000511309
0.000511309
0.000511309
0.000511309
0.000511309
0.000511309
0.000511309
0.000511309
0.000511309
0.000511309
0.000511309
0.000511309
0.000511309
0.000511309
0.000511309
0.000511309
0.000511309
0.000511309
0.000511309
0.000511309
0.000511309
0.000511309
0.000511309
0.000511309
0.000511309
0.000511309
0.000511309
0.000511309
0.000511309
0.000511309
0.000511309
0.000511309
0.000511309
0.000511309
0.000511309
0.000511309
0.000511309
0.000511309
0.000511309
0.000511309
0.000511309
0.000511309
0.000511309
0.000511309
0.000511309
0.000511309
0.000511309
0.000511309
0.000511309
0.000511309
0.000511309
0.000511309
0.000511309
0.000511309
0.000511309
0.000511309
0.000511309
0.000511309
0.000511309
0.000511309
0.000511309
0.000511309
0.000511309
0.000511309
0.000511309
0.000511309
0.000511309
0.000511309
0.000511309
0.000511309
0.000511309
0.000511309
0.000511309
0.000511309
0.000511309
0.000511309
0.000511309
0.000511309
0.000511309
0.000511309
0.000511309
0.000511309
0.000511309
0.000511309
0.000511309
0.000511309
0.000511309
0.000511309
0.000511309
0.000511309
0.000511309
0.000511309
0.000511309
0.000511309
0.000511309
0.000511309
0.000511309
0.000511309
0.000511309
0.000511309
0.000511309
0.000511309
0.000511309
0.000511309
0.000511309
0.000511309
0.000511309
0.000511309
0.000511309
0.000511309
0.000511309
0.000511309
0.000511309
0.000511309
0.000511309
0.000511309
0.000511309
0.000511309
0.000511309
0.000511309
0.000511309
0.000511309
0.000511309
0.000511309
0.000511309
0.000511309
0.000511309
0.000511309
0.000511309
0.000511309
0.000511309
0.000511309
0.000511309
0.000511309
0.000511309
0.000511309
0.000511309
0.000511309
0.000511309
0.000511309
0.000511309
0.000511309
0.000511309
0.000511309
0.000511309
0.000511309
0.000511309
0.000511309
0.000511309
0.000511309
0.000511309
0.000511309
0.000511309
0.000511309
0.000511309
0.000511309
0.000511309
0.000511309
0.000511309
0.000511309
0.000511309
0.000511309
0.000511309
0.000511309
0.000511309
0.000511309
0.000511309
0.000511309
0.000511309
0.000511309
0.000511309
0.000511309
0.000511309
0.000511309
0.000511309
0.000511309
0.000511309
0.000511309
0.000511309
0.000511309
0.000511309
0.000511309
0.000511309
0.000511309
0.000511309
0.000511309
0.000511309
0.000511309
0.000511309
0.000511309
0.000511309
0.000511309
0.000511309
0.000511309
0.000511309
0.000511309
0.000511309
0.000511309
0.000511309
0.000511309
0.000511309
0.000511309
0.000511309
0.000511309
0.000511309
0.000511309
0.000511309
0.000511309
0.000511309
0.000511309
0.000511309
0.000511309
0.000511309
0.000511309
0.000511309
0.000511309
0.000511309
0.000511309
0.000511309
0.000511309
0.000511309
0.000511309
0.000511309
0.000511309
0.000511309
0.000511309
0.000511309
0.000511309
0.000511309
0.000511309
0.000511309
0.000511309
0.000511309
0.000511309
0.000511309
0.000511309
0.000511309
0.000511309
0.000511309
0.000511309
0.000511309
0.000511309
0.000511309
0.000511309
0.000511309
0.000511309
0.000511309
0.000511309
0.000511309
0.000511309
0.000511309
0.000511309
0.000511309
0.000511309
0.000511309
0.000511309
0.000511309
0.000511309
0.000511309
0.000511309
0.000511309
0.000511309
0.000511309
0.000511309
0.000511309
0.000511309
0.000511309
0.000511309
0.000511309
0.000511309
0.000511309
0.000511309
0.000511309
0.000511309
0.000511309
0.000511309
0.000511309
0.000511309
0.000511309
0.000511309
0.000511309
0.000511309
0.000511309
0.000511309
0.000511309
0.000511309
0.000511309
0.000511309
0.000511309
0.000511309
0.000511309
0.000511309
0.000511309
0.000511309
0.000511309
0.000511309
0.000511309
0.000511309
0.000511309
0.000511309
0.000511309
0.000511309
0.000511309
0.000511309
0.000511309
0.000511309
0.000511309
0.000511309
0.000511309
0.000511309
0.000511309
0.000511309
0.000511309
0.000511309
0.000511309
0.000511309
0.000511309
0.000511309
0.000511309
0.000511309
0.000511309
0.000511309
0.000511309
0.000511309
0.000511309
0.000511309
0.000511309
0.000511309
0.000511309
0.000511309
0.000511309
0.000511309
0.000511309
0.000511309
0.000511309
0.000511309
0.000511309
0.000511309
0.000511309
0.000511309
0.000511309
0.000511309
0.000511309
0.000511309
0.000511309
0.000511309
0.000511309
0.000511309
0.000511309
0.000511309
0.000511309
0.000511309
0.000511309
0.000511309
0.000511309
0.000511309
0.000511309
0.000511309
0.000511309
0.000511309
0.000511309
0.000511309
0.000511309
0.000511309
0.000511309
0.000511309
0.000511309
0.000511309
0.000511309
0.000511309
0.000511309
0.000511309
0.000511309
0.000511309
0.000511309
0.000511309
0.000511309
0.000511309
0.000511309
0.000511309
0.000511309
0.000511309
0.000511309
0.000511309
0.000511309
0.000511309
0.000511309
0.000511309
0.000511309
0.000511309
0.000511309
0.000511309
0.000511309
0.000511309
0.000511309
0.000511309
0.000511309
0.000511309
0.000511309
0.000511309
0.000511309
0.000511309
0.000511309
0.000511309
0.000511309
0.000511309
0.000511309
0.000511309
0.000511309
0.000511309
0.000511309
0.000511309
0.000511309
0.000511309
0.000511309
0.000511309
0.000511309
0.000511309
0.000511309
0.000511309
0.000511309
0.000511309
0.000511309
0.000511309
0.000511309
0.000511309
0.000511309
0.000511309
0.000511309
0.000511309
0.000511309
0.000511309
0.000511309
0.000511309
0.000511309
0.000511309
0.000511309
0.000511309
0.000511309
0.000511309
0.000511309
0.000511309
0.000511309
0.000511309
0.000511309
0.000511309
0.000511309
0.000511309
0.000511309
0.000511309
0.000511309
0.000511309
0.000511309
0.000511309
0.000511309
0.000511309
0.000511309
0.000511309
0.000511309
0.000511309
0.000511309
0.000511309
0.000511309
0.000511309
0.000511309
0.000511309
0.000511309
0.000511309
0.000511309
0.000511309
0.000511309
0.000511309
0.000511309
0.000511309
0.000511309
0.000511309
0.000511309
0.000511309
0.000511309
0.000511309
0.000511309
0.000511309
0.000511309
0.000511309
0.000511309
0.000511309
0.000511309
0.000511309
0.000511309
0.000511309
0.000511309
0.000511309
0.000511309
0.000511309
0.000511309
0.000511309
0.000511309
0.000511309
0.000511309
0.000511309
0.000511309
0.000511309
0.000511309
0.000511309
0.000511309
0.000511309
0.000511309
0.000511309
0.000511309
0.000511309
0.000511309
0.000511309
0.000511309
0.000511309
0.000511309
0.000511309
0.000511309
0.000511309
0.000511309
0.000511309
0.000511309
0.000511309
0.000511309
0.000511309
0.000511309
0.000511309
0.000511309
0.000511309
0.000511309
0.000511309
0.000511309
0.000511309
0.000511309
0.000511309
0.000511309
0.000511309
0.000511309
0.000511309
0.000511309
0.000511309
0.000511309
0.000511309
0.000511309
0.000511309
0.000511309
0.000511309
0.000511309
0.000511309
0.000511309
0.000511309
0.000511309
0.000511309
0.000511309
0.000511309
0.000511309
0.000511309
0.000511309
0.000511309
0.000511309
0.000511309
0.000511309
0.000511309
0.000511309
0.000511309
0.000511309
0.000511309
0.000511309
0.000511309
0.000511309
0.000511309
0.000511309
0.000511309
0.000511309
0.000511309
0.000511309
0.000511309
0.000511309
0.000511309
0.000511309
0.000511309
0.000511309
0.000511309
0.000511309
0.000511309
0.000511309
0.000511309
0.000511309
0.000511309
0.000511309
0.000511309
0.000511309
0.000511309
0.000511309
0.000511309
0.000511309
0.000511309
0.000511309
0.000511309
0.000511309
0.000511309
0.000511309
0.000511309
0.000511309
0.000511309
0.000511309
0.000511309
0.000511309
0.000511309
0.000511309
0.000511309
0.000511309
0.000511309
0.000511309
0.000511309
0.000511309
0.000511309
0.000511309
0.000511309
0.000511309
0.000511309
0.000511309
0.000511309
0.000511309
0.000511309
0.000511309
0.000511309
0.000511309
0.000511309
0.000511309
0.000511309
0.000511309
0.000511309
0.000511309
0.000511309
0.000511309
0.000511309
0.000511309
0.000511309
0.000511309
0.000511309
0.000511309
0.000511309
0.000511309
0.000511309
0.000511309
0.000511309
0.000511309
0.000511309
0.000511309
0.000511309
0.000511309
0.000511309
0.000511309
0.000511309
0.000511309
0.000511309
0.000511309
0.000511309
0.000511309
0.000511309
0.000511309
0.000511309
0.000511309
0.000511309
0.000511309
0.000511309
0.000511309
0.000511309
0.000511309
0.000511309
0.000511309
0.000511309
0.000511309
0.000511309
0.000511309
0.000511309
0.000511309
0.000511309
0.000511309
0.000511309
0.000511309
0.000511309
0.000511309
0.000511309
0.000511309
0.000511309
0.000511309
0.000511309
0.000511309
0.000511309
0.000511309
0.000511309
0.000511309
0.000511309
0.000511309
0.000511309
0.000511309
0.000511309
0.000511309
0.000511309
0.000511309
0.000511309
0.000511309
0.000511309
0.000511309
0.000511309
0.000511309
0.000511309
0.000511309
0.000511309
0.000511309
0.000511309
0.000511309
0.000511309
0.000511309
0.000511309
0.000511309
0.000511309
0.000511309
0.000511309
0.000511309
0.000511309
0.000511309
0.000511309
0.000511309
0.000511309
0.000511309
0.000511309
0.000511309
0.000511309
0.000511309
0.000511309
0.000511309
0.000511309
0.000511309
0.000511309
0.000511309
0.000511309
0.000511309
0.000511309
0.000511309
0.000511309
0.000511309
0.000511309
0.000511309
0.000511309
0.000511309
0.000511309
0.000511309
0.000511309
0.000511309
0.000511309
0.000511309
0.000511309
0.000511309
0.000511309
0.000511309
0.000511309
0.000511309
0.000511309
0.000511309
0.000511309
0.000511309
0.000511309
0.000511309
0.000511309
0.000511309
0.000511309
0.000511309
0.000511309
0.000511309
0.000511309
0.000511309
0.000511309
0.000511309
0.000511309
0.000511309
0.000511309
0.000511309
0.000511309
0.000511309
0.000511309
0.000511309
0.000511309
0.000511309
0.000511309
0.000511309
0.000511309
0.000511309
0.000511309
0.000511309
0.000511309
0.000511309
0.000511309
0.000511309
0.000511309
0.000511309
0.000511309
0.000511309
0.000511309
0.000511309
0.000511309
0.000511309
0.000511309
0.000511309
0.000511309
0.000511309
0.000511309
0.000511309
0.000511309
0.000511309
0.000511309
0.000511309
0.000511309
0.000511309
0.000511309
0.000511309
0.000511309
0.000511309
0.000511309
0.000511309
0.000511309
0.000511309
0.000511309
0.000511309
0.000511309
0.000511309
0.000511309
0.000511309
0.000511309
0.000511309
0.000511309
0.000511309
0.000511309
0.000511309
0.000511309
0.000511309
0.000511309
0.000511309
0.000511309
0.000511309
0.000511309
0.000511309
0.000511309
0.000511309
0.000511309
0.000511309
0.000511309
0.000511309
0.000511309
0.000511309
0.000511309
0.000511309
0.000511309
0.000511309
0.000511309
0.000511309
0.000511309
0.000511309
0.000511309
0.000511309
0.000511309
0.000511309
0.000511309
0.000511309
0.000511309
0.000511309
0.000511309
0.000511309
0.000511309
0.000511309
0.000511309
0.000511309
0.000511309
0.000511309
0.000511309
0.000511309
0.000511309
0.000511309
0.000511309
0.000511309
0.000511309
0.000511309
0.000511309
0.000511309
0.000511309
0.000511309
0.000511309
0.000511309
0.000511309
0.000511309
0.000511309
0.000511309
0.000511309
0.000511309
0.000511309
0.000511309
0.000511309
0.000511309
0.000511309
0.000511309
0.000511309
0.000511309
0.000511309
0.000511309
0.000511309
0.000511309
0.000511309
0.000511309
0.000511309
0.000511309
0.000511309
0.000511309
0.000511309
0.000511309
0.000511309
0.000511309
0.000511309
0.000511309
0.000511309
0.000511309
0.000511309
0.000511309
0.000511309
0.000511309
0.000511309
0.000511309
0.000511309
0.000511309
0.000511309
0.000511309
0.000511309
0.000511309
0.000511309
0.000511309
0.000511309
0.000511309
0.000511309
0.000511309
0.000511309
0.000511309
0.000511309
0.000511309
0.000511309
0.000511309
0.000511309
0.000511309
0.000511309
0.000511309
0.000511309
0.000511309
0.000511309
0.000511309
0.000511309
0.000511309
0.000511309
0.000511309
0.000511309
0.000511309
0.000511309
0.000511309
0.000511309
0.000511309
0.000511309
0.000511309
0.000511309
0.000511309
0.000511309
0.000511309
0.000511309
0.000511309
0.000511309
0.000511309
0.000511309
0.000511309
0.000511309
0.000511309
0.000511309
0.000511309
0.000511309
0.000511309
0.000511309
0.000511309
0.000511309
0.000511309
0.000511309
0.000511309
0.000511309
0.000511309
0.000511309
0.000511309
0.000511309
0.000511309
0.000511309
0.000511309
0.000511309
0.000511309
0.000511309
0.000511309
0.000511309
0.000511309
0.000511309
0.000511309
0.000511309
0.000511309
0.000511309
0.000511309
0.000511309
0.000511309
0.000511309
0.000511309
0.000511309
0.000511309
0.000511309
0.000511309
0.000511309
0.000511309
0.000511309
0.000511309
0.000511309
0.000511309
0.000511309
0.000511309
0.000511309
0.000511309
0.000511309
0.000511309
0.000511309
0.000511309
0.000511309
0.000511309
0.000511309
0.000511309
0.000511309
0.000511309
0.000511309
0.000511309
0.000511309
0.000511309
0.000511309
0.000511309
0.000511309
0.000511309
0.000511309
0.000511309
0.000511309
0.000511309
0.000511309
0.000511309
0.000511309
0.000511309
0.000511309
0.000511309
0.000511309
0.000511309
0.000511309
0.000511309
0.000511309
0.000511309
0.000511309
0.000511309
0.000511309
0.000511309
0.000511309
0.000511309
0.000511309
0.000511309
0.000511309
0.000511309
0.000511309
0.000511309
0.000511309
0.000511309
0.000511309
0.000511309
0.000511309
0.000511309
0.000511309
0.000511309
0.000511309
0.000511309
0.000511309
0.000511309
0.000511309
0.000511309
0.000511309
0.000511309
0.000511309
0.000511309
0.000511309
0.000511309
0.000511309
0.000511309
0.000511309
0.000511309
0.000511309
0.000511309
0.000511309
0.000511309
0.000511309
0.000511309
0.00051131
0.000511309
0.000511309
0.000511309
0.000511309
0.000511309
0.000511309
0.000511309
0.000511309
0.000511309
0.000511309
0.000511309
0.000511309
0.000511309
0.000511309
0.000511309
0.000511309
0.000511309
0.000511309
0.000511309
0.000511309
0.000511309
0.000511309
0.000511309
0.000511309
0.000511309
0.000511309
0.000511309
0.000511309
0.000511309
0.000511309
0.000511309
0.000511309
0.000511309
0.000511309
0.000511309
0.000511309
0.000511309
0.000511309
0.000511309
0.000511309
0.000511309
0.000511309
0.000511309
0.000511309
0.000511309
0.000511309
0.00051131
0.00051131
0.00051131
0.00051131
0.000511309
0.000511309
0.000511309
0.000511309
0.000511309
0.000511309
0.000511309
0.000511309
0.000511309
0.000511309
0.000511309
0.000511309
0.000511309
0.000511309
0.000511309
0.000511309
0.000511309
0.000511309
0.000511309
0.000511309
0.000511309
0.000511309
0.000511309
0.000511309
0.000511309
0.000511309
0.000511309
0.000511309
0.000511309
0.000511309
0.000511309
0.000511309
0.000511309
0.000511309
0.000511309
0.000511309
0.000511309
0.000511309
0.000511309
0.000511309
0.000511309
0.000511309
0.00051131
0.00051131
0.00051131
0.00051131
0.00051131
0.000511311
0.000511311
0.000511313
0.000511309
0.000511309
0.000511309
0.000511309
0.000511309
0.000511309
0.000511309
0.000511309
0.000511309
0.000511309
0.000511309
0.000511309
0.000511309
0.000511309
0.000511309
0.000511309
0.000511309
0.000511309
0.000511309
0.000511309
0.000511309
0.000511309
0.000511309
0.000511309
0.000511309
0.000511309
0.000511309
0.000511309
0.000511309
0.000511309
0.000511309
0.000511309
0.000511309
0.000511309
0.000511309
0.000511309
0.000511309
0.000511309
0.000511309
0.00051131
0.00051131
0.00051131
0.00051131
0.00051131
0.000511311
0.000511311
0.000511312
0.000511314
0.000511317
0.000511321
0.000511309
0.000511309
0.000511309
0.000511309
0.000511309
0.000511309
0.000511309
0.000511309
0.000511309
0.000511309
0.000511309
0.000511309
0.000511309
0.000511309
0.000511309
0.000511309
0.000511309
0.000511309
0.000511309
0.000511309
0.000511309
0.000511309
0.000511309
0.000511309
0.000511309
0.000511309
0.000511309
0.000511309
0.000511309
0.000511309
0.000511309
0.000511309
0.000511309
0.000511309
0.000511309
0.000511309
0.00051131
0.00051131
0.00051131
0.00051131
0.00051131
0.000511311
0.000511311
0.000511313
0.000511314
0.000511317
0.00051132
0.000511326
0.000511335
0.00051135
0.000511309
0.000511309
0.000511309
0.000511309
0.000511309
0.000511309
0.000511309
0.000511309
0.000511309
0.000511309
0.000511309
0.000511309
0.000511309
0.000511309
0.000511309
0.000511309
0.000511309
0.000511309
0.000511309
0.000511309
0.000511309
0.000511309
0.000511309
0.000511309
0.000511309
0.000511309
0.000511309
0.000511309
0.000511309
0.000511309
0.000511309
0.000511309
0.000511309
0.00051131
0.00051131
0.00051131
0.00051131
0.00051131
0.000511311
0.000511312
0.000511313
0.000511314
0.000511317
0.000511321
0.000511326
0.000511335
0.000511348
0.000511368
0.000511398
0.000511448
0.000511309
0.000511309
0.000511309
0.000511309
0.000511309
0.000511309
0.000511309
0.000511309
0.000511309
0.000511309
0.000511309
0.000511309
0.000511309
0.000511309
0.000511309
0.000511309
0.000511309
0.000511309
0.000511309
0.000511309
0.000511309
0.000511309
0.000511309
0.000511309
0.000511309
0.000511309
0.000511309
0.000511309
0.000511309
0.00051131
0.00051131
0.00051131
0.00051131
0.00051131
0.00051131
0.000511311
0.000511312
0.000511313
0.000511315
0.000511317
0.000511321
0.000511327
0.000511335
0.000511348
0.000511368
0.000511397
0.000511441
0.000511509
0.00051161
0.000511777
0.000511309
0.000511309
0.000511309
0.000511309
0.000511309
0.000511309
0.000511309
0.000511309
0.000511309
0.000511309
0.000511309
0.000511309
0.000511309
0.000511309
0.000511309
0.000511309
0.000511309
0.000511309
0.000511309
0.000511309
0.000511309
0.000511309
0.000511309
0.000511309
0.000511309
0.000511309
0.00051131
0.00051131
0.00051131
0.00051131
0.00051131
0.000511311
0.000511311
0.000511312
0.000511313
0.000511315
0.000511318
0.000511322
0.000511328
0.000511336
0.000511349
0.000511369
0.000511398
0.000511441
0.000511507
0.000511604
0.000511751
0.000511972
0.000512304
0.00051284
0.000511309
0.000511309
0.000511309
0.000511309
0.000511309
0.000511309
0.000511309
0.000511309
0.000511309
0.000511309
0.000511309
0.000511309
0.000511309
0.000511309
0.000511309
0.000511309
0.000511309
0.000511309
0.000511309
0.000511309
0.000511309
0.000511309
0.00051131
0.00051131
0.00051131
0.00051131
0.00051131
0.00051131
0.000511311
0.000511311
0.000511312
0.000511314
0.000511316
0.000511318
0.000511323
0.000511329
0.000511338
0.000511351
0.000511371
0.0005114
0.000511444
0.000511508
0.000511604
0.000511747
0.00051196
0.000512276
0.000512748
0.00051345
0.00051449
0.000516138
0.000511309
0.000511309
0.000511309
0.000511309
0.000511309
0.000511309
0.000511309
0.000511309
0.000511309
0.000511309
0.000511309
0.000511309
0.000511309
0.000511309
0.000511309
0.000511309
0.000511309
0.000511309
0.000511309
0.00051131
0.00051131
0.00051131
0.00051131
0.00051131
0.00051131
0.000511311
0.000511312
0.000511313
0.000511314
0.000511316
0.000511319
0.000511324
0.00051133
0.00051134
0.000511354
0.000511375
0.000511405
0.000511449
0.000511514
0.00051161
0.000511752
0.000511961
0.000512269
0.000512724
0.000513395
0.000514382
0.000515828
0.00051794
0.000520987
0.000525625
0.000511309
0.000511309
0.000511309
0.000511309
0.000511309
0.000511309
0.000511309
0.000511309
0.000511309
0.000511309
0.000511309
0.000511309
0.000511309
0.000511309
0.000511309
0.00051131
0.00051131
0.00051131
0.00051131
0.00051131
0.00051131
0.000511311
0.000511311
0.000511312
0.000511313
0.000511315
0.000511317
0.000511321
0.000511326
0.000511333
0.000511343
0.000511358
0.00051138
0.000511411
0.000511457
0.000511524
0.000511622
0.000511765
0.000511974
0.00051228
0.000512727
0.00051338
0.000514333
0.000515718
0.000517719
0.000520591
0.000524667
0.000530378
0.00053821
0.000549471
0.000511309
0.000511309
0.000511309
0.000511309
0.000511309
0.000511309
0.000511309
0.000511309
0.000511309
0.000511309
0.000511309
0.00051131
0.00051131
0.00051131
0.00051131
0.00051131
0.00051131
0.00051131
0.000511311
0.000511312
0.000511313
0.000511314
0.000511316
0.000511318
0.000511322
0.000511328
0.000511336
0.000511347
0.000511363
0.000511386
0.00051142
0.000511468
0.000511539
0.00051164
0.000511787
0.000512
0.000512309
0.000512756
0.000513404
0.000514341
0.000515691
0.000517625
0.000520378
0.000524254
0.000529637
0.000537002
0.000546907
0.000560045
0.000576922
0.000599886
0.000511309
0.000511309
0.000511309
0.000511309
0.000511309
0.000511309
0.000511309
0.000511309
0.00051131
0.00051131
0.00051131
0.00051131
0.00051131
0.00051131
0.000511311
0.000511311
0.000511312
0.000511313
0.000511315
0.000511317
0.00051132
0.000511324
0.000511331
0.000511339
0.000511352
0.00051137
0.000511395
0.000511432
0.000511484
0.000511558
0.000511665
0.000511819
0.00051204
0.000512357
0.000512812
0.000513466
0.000514403
0.000515741
0.000517641
0.000520321
0.000524064
0.000529224
0.000536227
0.000545586
0.000557888
0.000573766
0.00059392
0.000619346
0.000650921
0.000692639
0.000511309
0.000511309
0.000511309
0.000511309
0.00051131
0.00051131
0.00051131
0.00051131
0.00051131
0.00051131
0.000511311
0.000511311
0.000511312
0.000511313
0.000511314
0.000511316
0.000511319
0.000511322
0.000511327
0.000511334
0.000511344
0.000511359
0.000511379
0.000511407
0.000511447
0.000511504
0.000511585
0.0005117
0.000511863
0.000512096
0.000512427
0.000512899
0.00051357
0.000514523
0.000515872
0.000517769
0.000520421
0.000524092
0.000529112
0.000535873
0.000544839
0.000556542
0.000571574
0.00059055
0.000614245
0.000643762
0.000680236
0.000725074
0.000779203
0.000854123
0.00051131
0.00051131
0.00051131
0.00051131
0.00051131
0.00051131
0.000511311
0.000511311
0.000511312
0.000511313
0.000511314
0.000511315
0.000511318
0.000511321
0.000511325
0.000511331
0.000511339
0.000511351
0.000511367
0.00051139
0.000511422
0.000511467
0.00051153
0.000511619
0.000511745
0.000511921
0.000512171
0.000512523
0.00051302
0.00051372
0.000514706
0.000516086
0.000518011
0.000520675
0.000524329
0.000529281
0.000535894
0.000544588
0.000555851
0.000570224
0.000588271
0.000610657
0.0006383
0.000672423
0.000714015
0.000764585
0.000827485
0.000909103
0.00101361
0.00115523
0.00051131
0.00051131
0.00051131
0.000511311
0.000511311
0.000511312
0.000511312
0.000511313
0.000511315
0.000511317
0.00051132
0.000511323
0.000511329
0.000511336
0.000511346
0.00051136
0.000511379
0.000511405
0.000511442
0.000511493
0.000511565
0.000511664
0.000511803
0.000511998
0.00051227
0.00051265
0.000513182
0.000513925
0.00051496
0.000516397
0.00051838
0.000521097
0.000524787
0.00052974
0.000536294
0.000544832
0.000555802
0.000569698
0.000587049
0.000608428
0.000634621
0.000666749
0.000705864
0.000753068
0.000810772
0.000883897
0.000978641
0.00109942
0.00124701
0.00141175
0.00159239
0.000511311
0.000511312
0.000511312
0.000511313
0.000511315
0.000511317
0.000511319
0.000511323
0.000511327
0.000511334
0.000511343
0.000511355
0.000511371
0.000511394
0.000511425
0.000511468
0.000511527
0.000511609
0.000511723
0.00051188
0.000512097
0.000512399
0.000512816
0.000513395
0.000514195
0.000515299
0.000516817
0.00051889
0.000521701
0.000525478
0.000530496
0.000537071
0.000545556
0.000556357
0.000569928
0.000586763
0.000607368
0.000632427
0.000662917
0.00069997
0.000744505
0.000798238
0.000865034
0.000950615
0.00106018
0.00119556
0.00135306
0.00152229
0.00169028
0.00184011
0.00196866
0.000511313
0.000511315
0.000511317
0.000511319
0.000511322
0.000511327
0.000511333
0.000511341
0.000511351
0.000511366
0.000511386
0.000511414
0.000511451
0.000511502
0.000511572
0.000511668
0.000511799
0.000511979
0.000512226
0.000512565
0.000513031
0.00051367
0.000514545
0.000515741
0.000517367
0.000519566
0.000522514
0.000526432
0.000531579
0.000538254
0.000546781
0.00055753
0.000570918
0.000587403
0.000607452
0.000631658
0.000660875
0.00069625
0.000738639
0.000789322
0.000851232
0.000929459
0.00102937
0.00115401
0.00130179
0.00146522
0.0016321
0.00178867
0.00192323
0.00202985
0.00210638
0.00215676
0.000511322
0.000511327
0.000511332
0.00051134
0.00051135
0.000511364
0.000511382
0.000511407
0.000511441
0.000511486
0.000511548
0.000511631
0.000511744
0.000511898
0.000512108
0.000512393
0.000512781
0.000513308
0.000514025
0.000514997
0.00051631
0.000518077
0.00052044
0.000523571
0.000527683
0.000533024
0.000539872
0.000548529
0.00055933
0.000572659
0.000588941
0.000608614
0.000632197
0.000660451
0.000694446
0.000735095
0.0007834
0.000841574
0.000914006
0.00100593
0.00112107
0.00125945
0.00141582
0.00157991
0.00173891
0.00188053
0.001997
0.00208474
0.00214543
0.00218186
0.00220165
0.00220706
0.00051135
0.000511363
0.000511381
0.000511404
0.000511435
0.000511477
0.000511533
0.000511609
0.00051171
0.000511846
0.00051203
0.000512277
0.000512611
0.000513061
0.000513667
0.000514482
0.000515575
0.000517038
0.000518983
0.000521552
0.000524916
0.00052928
0.000534881
0.000541977
0.000550848
0.000561799
0.000575187
0.000591404
0.000610866
0.000634031
0.000661588
0.000694514
0.000733783
0.000780225
0.000835566
0.000903471
0.000988886
0.00109589
0.00122559
0.00137455
0.00153432
0.00169336
0.0018396
0.0019638
0.00206126
0.00213148
0.00217731
0.00220309
0.00221481
0.00221591
0.00221616
0.00221485
0.000511434
0.000511474
0.000511527
0.000511598
0.000511691
0.000511816
0.000511983
0.000512205
0.000512502
0.000512898
0.000513428
0.000514134
0.000515073
0.000516319
0.000517967
0.000520134
0.000522959
0.000526612
0.000531289
0.000537216
0.000544634
0.000553801
0.000564994
0.000578545
0.000594821
0.000614215
0.000637139
0.000664222
0.000696363
0.00073457
0.000779573
0.000832763
0.000897186
0.000977418
0.00107764
0.00119965
0.00134134
0.001496
0.00165335
0.0018019
0.00193168
0.0020371
0.00211605
0.00217025
0.00220299
0.00222029
0.00222517
0.00222492
0.00222498
0.00222199
0.00221415
0.00220112
0.000511686
0.000511804
0.00051196
0.000512166
0.000512439
0.0005128
0.000513278
0.000513909
0.000514741
0.000515837
0.000517275
0.000519152
0.00052159
0.000524727
0.000528728
0.000533782
0.000540103
0.000547916
0.000557455
0.000568977
0.00058279
0.00059924
0.000618699
0.000641545
0.00066836
0.00069998
0.000737421
0.00078135
0.000832926
0.000894713
0.000970896
0.00106559
0.001181
0.00131598
0.0014652
0.00161964
0.00176862
0.00190221
0.00201369
0.00209993
0.00216159
0.0022015
0.00222394
0.00223332
0.00223415
0.00223438
0.00223302
0.00222756
0.0022176
0.00220353
0.00218702
0.00216708
0.000512417
0.000512756
0.000513201
0.000513783
0.000514545
0.000515539
0.000516831
0.000518507
0.000520667
0.000523433
0.000526944
0.000531358
0.000536858
0.000543645
0.000551925
0.000561913
0.000573848
0.000588018
0.000604751
0.000624399
0.000647316
0.000674049
0.000705387
0.000742324
0.000785499
0.000835904
0.000895746
0.000968845
0.00105916
0.00116908
0.00129809
0.00144194
0.00159278
0.00174082
0.00187636
0.00199206
0.00208426
0.00215263
0.00219875
0.00222622
0.00224029
0.00224356
0.00224342
0.00224327
0.00223991
0.00223198
0.00222021
0.00220531
0.00218777
0.00216856
0.00214916
0.00212833
0.000514461
0.00051539
0.000516587
0.000518125
0.000520094
0.000522598
0.000525758
0.000529709
0.000534606
0.000540622
0.000547944
0.000556762
0.000567272
0.000579694
0.000594308
0.000611426
0.00063138
0.000654506
0.000681327
0.000712605
0.000749287
0.000792001
0.000841623
0.000900108
0.000970959
0.00105792
0.0011634
0.00128728
0.00142609
0.00157302
0.00171912
0.0018551
0.00197348
0.00207017
0.00214367
0.00219526
0.00222796
0.00224624
0.00225234
0.00225277
0.00225319
0.00225119
0.0022451
0.00223537
0.00222219
0.00220651
0.00218856
0.00216973
0.00215046
0.00213076
0.00211133
0.00209092
0.000522146
0.000525064
0.00052869
0.000533155
0.000538608
0.000545213
0.000553141
0.000562565
0.000573665
0.000586652
0.000601797
0.000619401
0.000639778
0.000663247
0.000690322
0.000721746
0.000758425
0.000800952
0.000850129
0.000907764
0.000977081
0.0010616
0.00116362
0.00128322
0.00141749
0.00156043
0.00170388
0.00183912
0.00195887
0.00205844
0.00213588
0.00219209
0.00222937
0.00225096
0.00226067
0.00226242
0.00226244
0.00226171
0.00225756
0.00224948
0.00223809
0.00222405
0.00220743
0.00218943
0.00217095
0.00215201
0.00213286
0.00211372
0.00209445
0.00207551
0.00205566
0.000537422
0.000543503
0.000550765
0.000559366
0.00056946
0.000581216
0.000594841
0.000610604
0.000628794
0.000649705
0.000673644
0.000701131
0.000732902
0.000769819
0.000812422
0.000861477
0.00091871
0.000987141
0.00107003
0.0011695
0.00128566
0.00141595
0.001555
0.00169537
0.00182897
0.00194872
0.00204979
0.00213008
0.00218988
0.00223066
0.00225553
0.00226858
0.00227191
0.00227206
0.00227209
0.00226925
0.00226221
0.00225267
0.00224012
0.00222515
0.00220824
0.0021906
0.00217238
0.0021538
0.00213512
0.00211642
0.00209768
0.002079
0.00206021
0.00204172
0.00202236