/*--------------------------------*- C++ -*----------------------------------*\
| =========                 |                                                 |
| \\      /  F ield         | OpenFOAM: The Open Source CFD Toolbox           |
|  \\    /   O peration     | Version:  v1706                                 |
|   \\  /    A nd           | Web:      www.OpenFOAM.com                      |
|    \\/     M anipulation  |                                                 |
\*---------------------------------------------------------------------------*/
FoamFile
{
    version     2.0;
    format      ascii;
    class       volScalarField;
    location    "3.4e-05";
    object      Tt;
}
// * * * * * * * * * * * * * * * * * * * * * * * * * * * * * * * * * * * * * //

dimensions      [0 0 0 1 0 0 0];


internalField   nonuniform List<scalar> 
30038
(
144.4
144.4
144.4
144.4
144.4
144.4
144.4
144.4
144.4
144.4
144.4
144.4
144.4
144.4
144.4
144.4
144.4
144.4
144.4
144.4
144.4
144.4
144.4
144.4
144.4
144.4
144.4
144.4
144.4
144.4
144.4
144.4
144.4
144.4
144.4
144.4
144.4
144.4
144.4
144.4
144.4
144.4
144.4
144.4
144.4
144.4
144.4
144.4
144.4
144.4
144.4
144.4
144.4
144.4
144.4
144.4
144.4
144.4
144.4
144.4
144.4
144.4
144.4
144.4
144.4
144.4
144.4
144.4
144.4
144.4
144.4
144.4
144.4
144.4
144.4
144.4
144.4
144.4
144.4
144.4
144.4
144.4
144.4
144.4
144.4
144.4
144.4
144.4
144.4
144.4
144.4
144.4
144.4
144.4
144.4
144.4
144.4
144.4
144.4
144.4
144.4
144.4
144.4
144.4
144.4
144.4
144.4
144.4
144.4
144.4
144.4
144.4
144.4
144.4
144.4
144.4
144.4
144.4
144.4
144.4
144.4
144.4
144.4
144.4
144.4
144.4
144.4
144.4
144.4
144.4
144.4
144.4
144.4
144.4
144.4
144.4
144.4
144.4
144.4
144.4
144.4
144.4
144.4
144.4
144.4
144.4
144.4
144.4
144.4
144.4
144.4
144.4
144.4
144.4
144.4
144.4
144.4
144.4
144.4
144.4
144.4
144.4
144.4
144.4
144.4
144.4
144.4
144.4
144.4
144.4
144.4
144.4
144.4
144.4
144.4
144.4
144.4
144.4
144.4
144.4
144.4
144.4
144.4
144.4
144.4
144.4
144.4
144.4
144.4
144.4
144.4
144.4
144.4
144.4
144.4
144.4
144.4
144.4
144.4
144.4
144.4
144.4
144.4
144.4
144.4
144.4
144.4
144.4
144.4
144.4
144.4
144.4
144.4
144.4
144.4
144.4
144.4
144.4
144.4
144.4
144.4
144.4
144.4
144.4
144.4
144.4
144.4
144.4
144.4
144.4
144.4
144.4
144.4
144.4
144.4
144.4
144.4
144.4
144.4
144.4
144.4
144.4
144.4
144.4
144.4
144.4
144.4
144.4
144.4
144.4
144.4
144.4
144.4
144.4
144.4
144.4
144.4
144.4
144.4
144.4
144.4
144.4
144.4
144.4
144.4
144.4
144.4
144.4
144.4
144.4
144.4
144.4
144.4
144.4
144.4
144.4
144.4
144.4
144.4
144.4
144.4
144.4
144.4
144.4
144.4
144.4
144.4
144.4
144.4
144.4
144.4
144.4
144.4
144.4
144.4
144.4
144.4
144.4
144.4
144.4
144.4
144.4
144.4
144.4
144.4
144.4
144.4
144.4
144.4
144.4
144.4
144.4
144.4
144.4
144.4
144.4
144.4
144.4
144.4
144.4
144.4
144.4
144.4
144.4
144.4
144.4
144.4
144.4
144.4
144.4
144.4
144.4
144.4
144.4
144.4
144.4
144.4
144.4
144.4
144.4
144.4
144.4
144.4
144.4
144.4
144.4
144.4
144.4
144.4
144.4
144.4
144.4
144.4
144.4
144.4
144.4
144.4
144.4
144.4
144.4
144.4
144.4
144.4
144.4
144.4
144.4
144.4
144.4
144.4
144.4
144.4
144.4
144.4
144.4
144.4
144.4
144.4
144.4
144.4
144.4
144.4
144.4
144.4
144.4
144.4
144.4
144.4
144.4
144.4
144.4
144.4
144.4
144.4
144.4
144.4
144.4
144.4
144.4
144.4
144.4
144.4
144.4
144.4
144.4
144.4
144.4
144.4
144.4
144.4
144.4
144.4
144.4
144.4
144.4
144.4
144.4
144.4
144.4
144.4
144.4
144.4
144.4
144.4
144.4
144.4
144.4
144.4
144.4
144.4
144.4
144.4
144.4
144.4
144.4
144.4
144.4
144.4
144.4
144.4
144.4
144.4
144.4
144.4
144.4
144.4
144.4
144.4
144.4
144.4
144.4
144.4
144.4
144.4
144.4
144.4
144.4
144.4
144.4
144.4
144.4
144.4
144.4
144.4
144.4
144.4
144.4
144.4
144.4
144.4
144.4
144.4
144.4
144.4
144.4
144.4
144.4
144.4
144.4
144.4
144.4
144.4
144.4
144.4
144.4
144.4
144.4
144.4
144.4
144.4
144.4
144.4
144.4
144.4
144.4
144.4
144.4
144.4
144.4
144.4
144.4
144.4
144.4
144.4
144.4
144.4
144.4
144.4
144.4
144.4
144.4
144.4
144.4
144.4
144.4
144.4
144.4
144.4
144.4
144.4
144.4
144.4
144.4
144.4
144.4
144.4
144.4
144.4
144.4
144.4
144.4
144.4
144.4
144.4
144.4
144.4
144.4
144.4
144.4
144.4
144.4
144.4
144.4
144.4
144.4
144.4
144.4
144.4
144.4
144.4
144.4
144.4
144.4
144.4
144.4
144.4
144.4
144.4
144.4
144.4
144.4
144.4
144.4
144.4
144.4
144.4
144.4
144.4
144.4
144.4
144.4
144.4
144.4
144.4
144.4
144.4
144.4
144.4
144.4
144.4
144.4
144.4
144.4
144.4
144.4
144.4
144.4
144.4
144.4
144.4
144.4
144.4
144.4
144.4
144.4
144.4
144.4
144.4
144.4
144.4
144.4
144.4
144.4
144.4
144.4
144.4
144.4
144.4
144.4
144.4
144.4
144.4
144.4
144.4
144.4
144.4
144.4
144.4
144.4
144.4
144.4
144.4
144.4
144.4
144.4
144.4
144.4
144.4
144.4
144.4
144.4
144.4
144.4
144.4
144.4
144.4
144.4
144.4
144.4
144.4
144.4
144.4
144.4
144.4
144.4
144.4
144.4
144.4
144.4
144.4
144.4
144.4
144.4
144.4
144.4
144.4
144.4
144.4
144.4
144.4
144.4
144.4
144.4
144.4
144.4
144.4
144.4
144.4
144.4
144.4
144.4
144.4
144.4
144.4
144.4
144.4
144.4
144.4
144.4
144.4
144.4
144.4
144.4
144.4
144.4
144.4
144.4
144.4
144.4
144.4
144.4
144.4
144.4
144.4
144.4
144.4
144.4
144.4
144.4
144.4
144.4
144.4
144.4
144.4
144.4
144.4
144.4
144.4
144.4
144.4
144.4
144.4
144.4
144.4
144.4
144.4
144.4
144.4
144.4
144.4
144.4
144.4
144.4
144.4
144.4
144.4
144.4
144.4
144.4
144.4
144.4
144.4
144.4
144.4
144.4
144.4
144.4
144.4
144.4
144.4
144.4
144.4
144.4
144.4
144.4
144.4
144.4
144.4
144.4
144.4
144.4
144.4
144.4
144.4
144.4
144.4
144.4
144.4
144.4
144.4
144.4
144.4
144.4
144.4
144.4
144.4
144.4
144.4
144.4
144.4
144.4
144.4
144.4
144.4
144.4
144.4
144.4
144.4
144.4
144.4
144.4
144.4
144.4
144.4
144.4
144.4
144.4
144.4
144.4
144.4
144.4
144.4
144.4
144.4
144.4
144.4
144.4
144.4
144.4
144.4
144.4
144.4
144.4
144.4
144.4
144.4
144.4
144.4
144.4
144.4
144.4
144.4
144.4
144.4
144.4
144.4
144.4
144.4
144.4
144.4
144.4
144.4
144.4
144.4
144.4
144.4
144.4
144.4
144.4
144.4
144.4
144.4
144.4
144.4
144.4
144.4
144.4
144.4
144.4
144.4
144.4
144.4
144.4
144.4
144.4
144.4
144.4
144.4
144.4
144.4
144.4
144.4
144.4
144.4
144.4
144.4
144.4
144.4
144.4
144.4
144.4
144.4
144.4
144.4
144.4
144.4
144.4
144.4
144.4
144.4
144.4
144.4
144.4
144.4
144.4
144.4
144.4
144.4
144.4
144.4
144.4
144.4
144.4
144.4
144.4
144.4
144.4
144.4
144.4
144.4
144.4
144.4
144.4
144.4
144.4
144.4
144.4
144.4
144.4
144.4
144.4
144.4
144.4
144.4
144.4
144.4
144.4
144.4
144.4
144.4
144.4
144.4
144.4
144.4
144.4
144.4
144.4
144.4
144.4
144.4
144.4
144.4
144.4
144.4
144.4
144.4
144.4
144.4
144.4
144.4
144.4
144.4
144.4
144.4
144.4
144.4
144.4
144.4
144.4
144.4
144.4
144.4
144.4
144.4
144.4
144.4
144.4
144.4
144.4
144.4
144.4
144.4
144.4
144.4
144.4
144.4
144.4
144.4
144.4
144.4
144.4
144.4
144.4
144.4
144.4
144.4
144.4
144.4
144.4
144.4
144.4
144.4
144.4
144.4
144.4
144.4
144.4
144.4
144.4
144.4
144.4
144.4
144.4
144.4
144.4
144.4
144.4
144.4
144.4
144.4
144.4
144.4
144.4
144.4
144.4
144.4
144.4
144.4
144.4
144.4
144.4
144.4
144.4
144.4
144.4
144.4
144.4
144.4
144.4
144.4
144.4
144.4
144.4
144.4
144.4
144.4
144.4
144.4
144.4
144.4
144.4
144.4
144.4
144.4
144.4
144.4
144.4
144.4
144.4
144.4
144.4
144.4
144.4
144.4
144.4
144.4
144.4
144.4
144.4
144.4
144.4
144.4
144.4
144.4
144.4
144.4
144.4
144.4
144.4
144.4
144.4
144.4
144.4
144.4
144.4
144.4
144.4
144.4
144.4
144.4
144.4
144.4
144.4
144.4
144.4
144.4
144.4
144.4
144.4
144.4
144.4
144.4
144.4
144.4
144.4
144.4
144.4
144.4
144.4
144.4
144.4
144.4
144.4
144.4
144.4
144.4
144.4
144.4
144.4
144.4
144.4
144.4
144.4
144.4
144.4
144.4
144.4
144.4
144.4
144.4
144.4
144.4
144.4
144.4
144.4
144.4
144.4
144.4
144.4
144.4
144.4
144.4
144.4
144.4
144.4
144.4
144.4
144.4
144.4
144.4
144.4
144.4
144.4
144.4
144.4
144.4
144.4
144.4
144.4
144.4
144.4
144.4
144.4
144.4
144.4
144.4
144.4
144.4
144.4
144.4
144.4
144.4
144.4
144.4
144.4
144.4
144.4
144.4
144.4
144.4
144.4
144.4
144.4
144.4
144.4
144.4
144.4
144.4
144.4
144.4
144.4
144.4
144.4
144.4
144.4
144.4
144.4
144.4
144.4
144.4
144.4
144.4
144.4
144.4
144.4
144.4
144.4
144.4
144.4
144.4
144.4
144.4
144.4
144.4
144.4
144.4
144.4
144.4
144.4
144.4
144.4
144.4
144.401
144.4
144.4
144.4
144.4
144.4
144.4
144.4
144.4
144.4
144.4
144.4
144.4
144.4
144.4
144.4
144.4
144.4
144.4
144.4
144.4
144.4
144.4
144.4
144.4
144.4
144.4
144.4
144.4
144.4
144.4
144.4
144.4
144.4
144.4
144.4
144.4
144.4
144.4
144.4
144.4
144.4
144.4
144.4
144.4
144.4
144.4
144.401
144.401
144.401
144.402
144.4
144.4
144.4
144.4
144.4
144.4
144.4
144.4
144.4
144.4
144.4
144.4
144.4
144.4
144.4
144.4
144.4
144.4
144.4
144.4
144.4
144.4
144.4
144.4
144.4
144.4
144.4
144.4
144.4
144.4
144.4
144.4
144.4
144.4
144.4
144.4
144.4
144.4
144.4
144.4
144.4
144.4
144.4
144.401
144.401
144.401
144.402
144.403
144.405
144.408
144.4
144.4
144.4
144.4
144.4
144.4
144.4
144.4
144.4
144.4
144.4
144.4
144.4
144.4
144.4
144.4
144.4
144.4
144.4
144.4
144.4
144.4
144.4
144.4
144.4
144.4
144.4
144.4
144.4
144.4
144.4
144.4
144.4
144.4
144.4
144.4
144.4
144.4
144.4
144.4
144.401
144.401
144.402
144.402
144.404
144.405
144.408
144.412
144.419
144.43
144.4
144.4
144.4
144.4
144.4
144.4
144.4
144.4
144.4
144.4
144.4
144.4
144.4
144.4
144.4
144.4
144.4
144.4
144.4
144.4
144.4
144.4
144.4
144.4
144.4
144.4
144.4
144.4
144.4
144.4
144.4
144.4
144.4
144.4
144.4
144.4
144.401
144.401
144.401
144.402
144.403
144.404
144.406
144.409
144.413
144.419
144.429
144.445
144.469
144.506
144.4
144.4
144.4
144.4
144.4
144.4
144.4
144.4
144.4
144.4
144.4
144.4
144.4
144.4
144.4
144.4
144.4
144.4
144.4
144.4
144.4
144.4
144.4
144.4
144.4
144.4
144.4
144.4
144.4
144.4
144.4
144.4
144.4
144.401
144.401
144.401
144.402
144.403
144.404
144.406
144.409
144.414
144.42
144.43
144.446
144.469
144.504
144.557
144.64
144.77
144.4
144.4
144.4
144.4
144.4
144.4
144.4
144.4
144.4
144.4
144.4
144.4
144.4
144.4
144.4
144.4
144.4
144.4
144.4
144.4
144.4
144.4
144.4
144.4
144.4
144.4
144.4
144.4
144.4
144.4
144.401
144.401
144.401
144.402
144.403
144.405
144.407
144.41
144.415
144.422
144.432
144.448
144.471
144.507
144.56
144.639
144.76
144.943
145.222
145.66
144.4
144.4
144.4
144.4
144.4
144.4
144.4
144.4
144.4
144.4
144.4
144.4
144.4
144.4
144.4
144.4
144.4
144.4
144.4
144.4
144.4
144.4
144.4
144.4
144.4
144.4
144.401
144.401
144.401
144.402
144.402
144.403
144.405
144.407
144.411
144.416
144.423
144.434
144.451
144.475
144.511
144.565
144.646
144.766
144.945
145.214
145.619
146.227
147.15
148.572
144.4
144.4
144.4
144.4
144.4
144.4
144.4
144.4
144.4
144.4
144.4
144.4
144.4
144.4
144.4
144.4
144.4
144.4
144.4
144.4
144.4
144.4
144.4
144.401
144.401
144.401
144.402
144.403
144.404
144.406
144.408
144.412
144.418
144.426
144.438
144.455
144.481
144.519
144.574
144.657
144.779
144.96
145.229
145.628
146.222
147.105
148.419
150.37
153.272
157.616
144.4
144.4
144.4
144.4
144.4
144.4
144.4
144.4
144.4
144.4
144.4
144.4
144.4
144.4
144.4
144.4
144.4
144.4
144.4
144.401
144.401
144.401
144.402
144.402
144.403
144.405
144.407
144.41
144.414
144.42
144.429
144.442
144.461
144.489
144.529
144.588
144.674
144.8
144.986
145.259
145.662
146.256
147.13
148.417
150.308
153.073
157.095
162.893
171.168
182.848
144.4
144.4
144.4
144.4
144.4
144.4
144.4
144.4
144.4
144.4
144.4
144.4
144.4
144.4
144.4
144.401
144.401
144.401
144.401
144.402
144.403
144.404
144.406
144.408
144.411
144.416
144.423
144.433
144.448
144.469
144.499
144.542
144.605
144.697
144.831
145.025
145.308
145.722
146.326
147.208
148.494
150.367
153.083
156.995
162.578
170.441
181.321
196.052
215.509
240.478
144.4
144.4
144.4
144.4
144.4
144.4
144.4
144.4
144.4
144.4
144.4
144.4
144.401
144.401
144.401
144.402
144.403
144.404
144.405
144.407
144.41
144.414
144.419
144.427
144.439
144.455
144.479
144.512
144.56
144.629
144.729
144.872
145.079
145.377
145.81
146.435
147.341
148.65
150.539
153.254
157.131
162.618
170.284
180.811
194.955
213.464
236.974
265.899
300.379
340.149
144.4
144.4
144.4
144.4
144.4
144.4
144.4
144.4
144.401
144.401
144.401
144.402
144.402
144.403
144.404
144.406
144.409
144.412
144.417
144.423
144.433
144.446
144.465
144.492
144.53
144.584
144.66
144.77
144.926
145.15
145.471
145.931
146.591
147.537
148.893
150.831
153.592
157.499
162.979
170.573
180.92
194.729
212.698
235.415
263.252
296.271
334.201
376.469
422.335
470.729
144.4
144.4
144.4
144.4
144.401
144.401
144.401
144.402
144.402
144.403
144.404
144.406
144.408
144.411
144.415
144.421
144.429
144.44
144.456
144.478
144.509
144.553
144.614
144.701
144.824
144.998
145.245
145.595
146.093
146.801
147.807
149.235
151.258
154.112
158.114
163.675
171.311
181.627
195.288
212.945
235.149
262.251
294.323
331.118
372.092
416.462
463.252
511.32
559.543
606.932
144.401
144.401
144.401
144.402
144.402
144.403
144.404
144.405
144.407
144.41
144.414
144.419
144.426
144.436
144.45
144.469
144.495
144.532
144.583
144.654
144.754
144.894
145.091
145.368
145.757
146.306
147.078
148.166
149.696
151.842
154.841
159.005
164.735
172.526
182.954
196.64
214.189
236.11
262.724
294.101
330.023
369.997
413.306
459.065
506.205
553.576
600.064
644.503
685.457
721.784
144.402
144.402
144.403
144.404
144.405
144.407
144.41
144.413
144.418
144.425
144.434
144.446
144.463
144.486
144.518
144.562
144.623
144.707
144.824
144.987
145.213
145.529
145.969
146.583
147.44
148.636
150.302
152.616
155.817
160.217
166.209
174.271
184.95
198.829
216.464
238.315
264.668
295.577
330.837
369.995
412.392
457.224
503.539
550.256
596.328
640.684
682.072
719.05
750.42
775.518
794.94
144.406
144.408
144.41
144.413
144.418
144.424
144.433
144.444
144.459
144.481
144.509
144.549
144.602
144.676
144.777
144.916
145.108
145.373
145.739
146.244
146.943
147.91
149.246
151.089
153.623
157.093
161.81
168.164
176.617
187.691
201.927
219.833
241.815
268.114
298.762
333.554
372.062
413.68
457.664
503.164
549.19
594.752
638.88
680.496
718.303
751.031
777.861
798.682
814.101
824.949
832.569
144.414
144.418
144.425
144.433
144.444
144.458
144.478
144.505
144.541
144.59
144.657
144.748
144.871
145.04
145.27
145.584
146.015
146.605
147.413
148.521
150.037
152.107
154.924
158.739
163.867
170.694
179.669
191.284
206.041
224.394
246.694
273.132
303.707
338.206
376.222
417.184
460.406
505.117
550.422
595.386
639.116
680.673
718.921
752.634
780.873
803.288
820.203
832.385
840.788
846.422
850.009
852.363
144.445
144.459
144.479
144.505
144.539
144.586
144.648
144.732
144.846
144.999
145.206
145.486
145.866
146.381
147.08
148.03
149.318
151.064
153.423
156.599
160.85
166.497
173.922
183.557
195.868
211.309
230.28
253.07
279.819
310.487
344.849
382.508
422.925
465.464
509.416
553.98
598.279
641.486
682.759
721.113
755.419
784.691
808.41
826.672
840.087
849.504
855.87
859.996
862.544
864.066
864.806
865.053
144.542
144.588
144.648
144.729
144.836
144.98
145.173
145.431
145.778
146.243
146.869
147.711
148.843
150.364
152.403
155.128
158.756
163.553
169.844
178.005
188.454
201.618
217.906
237.655
261.095
288.306
319.209
353.564
390.981
430.948
472.87
516.098
559.906
603.486
646.063
686.875
725.069
759.626
789.565
814.259
833.631
848.132
858.494
865.588
870.26
873.161
874.883
875.777
875.977
875.905
875.761
875.341
144.842
144.982
145.168
145.414
145.741
146.176
146.755
147.527
148.555
149.924
151.743
154.156
157.345
161.537
167.01
174.09
183.145
194.568
208.75
226.043
246.722
270.948
298.748
330.002
364.452
401.715
441.302
482.659
525.186
568.226
611.039
652.898
693.11
730.923
765.429
795.695
821.047
841.273
856.662
867.844
875.615
880.806
884.068
885.989
887.04
887.336
887.18
886.936
886.505
885.677
884.612
883.418
145.751
146.171
146.725
147.456
148.421
149.693
151.37
153.574
156.464
160.237
165.132
171.434
179.468
189.589
202.158
217.521
235.968
257.708
282.837
311.324
343.014
377.631
414.8
454.054
494.876
536.714
578.97
620.967
662.028
701.519
738.768
772.972
803.265
828.96
849.753
865.814
877.675
886.039
891.676
895.281
897.412
898.585
898.975
898.8
898.467
897.999
897.21
896.12
894.86
893.434
891.959
890.514
148.425
149.647
151.241
153.319
156.02
159.517
164.022
169.785
177.096
186.27
197.64
211.53
228.229
247.964
270.874
296.989
326.229
358.405
393.23
430.334
469.275
509.573
550.715
592.159
633.288
673.473
712.13
748.658
782.346
812.402
838.146
859.23
875.734
888.09
896.915
902.94
906.852
909.171
910.427
910.916
910.752
910.315
909.762
909.012
907.91
906.611
905.162
903.588
901.999
900.431
898.897
897.392
155.963
159.302
163.569
168.987
175.814
184.334
194.849
207.657
223.034
241.208
262.338
286.493
313.643
343.663
376.338
411.374
448.412
487.033
526.79
567.214
607.808
648.008
687.236
724.955
760.623
793.608
823.187
848.716
869.829
886.54
899.19
908.337
914.66
918.799
921.275
922.623
923.17
923.005
922.499
921.849
921.059
919.95
918.608
917.137
915.506
913.823
912.145
910.489
908.843
907.209
905.607
904.028
183.616
193.565
205.625
220.052
237.064
256.822
279.415
304.849
333.04
363.826
396.975
432.192
469.129
507.394
546.572
586.234
625.926
665.129
703.314
739.991
774.669
806.781
835.671
860.743
881.634
898.313
911.064
920.386
926.888
931.168
933.76
935.175
935.732
935.573
935.038
934.253
933.378
932.279
930.897
929.368
927.691
925.913
924.13
922.368
920.621
918.881
917.157
915.446
913.738
912.052
910.385
235.28
254.037
275.443
299.52
326.216
355.406
386.902
420.46
455.79
492.561
530.405
568.941
607.778
646.498
684.627
721.678
757.209
790.774
821.858
849.87
874.264
894.697
911.121
923.778
933.11
939.665
944.01
946.664
948.092
948.624
948.466
947.891
946.983
945.985
944.871
943.43
941.825
940.131
938.282
936.401
934.53
932.674
930.825
928.992
927.177
925.369
923.568
921.774
919.982
918.206
916.444
322.961
350.85
380.948
413.051
446.916
482.259
518.768
556.101
593.911
631.84
669.505
706.467
742.288
776.564
808.892
838.805
865.767
889.282
909.044
925.003
937.373
946.549
953.032
957.351
959.992
961.393
961.882
961.69
961.041
960.038
958.922
957.728
956.246
954.573
952.811
950.902
948.918
946.944
944.989
943.042
941.103
939.182
937.27
935.364
933.468
931.578
929.691
927.809
925.926
924.057
922.198
476.425
511.65
547.773
584.481
621.459
658.382
694.894
730.588
765.072
797.982
828.953
857.557
883.306
905.762
924.661
939.966
951.865
960.731
967.019
971.203
973.758
975.09
975.499
975.244
974.521
973.425
972.16
970.859
969.347
967.595
965.747
963.788
961.715
959.636
957.573
955.518
953.469
951.441
949.428
947.424
945.428
943.438
941.452
939.471
937.492
935.515
933.541
931.565
929.601
927.645
615.522
651.546
687.347
722.59
756.904
789.94
821.371
850.864
878.024
902.41
923.642
941.503
955.976
967.244
975.659
981.632
985.579
987.979
989.191
989.464
989.127
988.317
987.113
985.711
984.281
982.712
980.866
978.925
976.919
974.765
972.582
970.417
968.258
966.105
963.969
961.85
959.739
957.638
955.549
953.466
951.388
949.315
947.243
945.173
943.104
941.035
938.968
936.898
934.839
932.784
752.482
785.295
816.765
846.602
874.499
900.085
922.967
942.826
959.495
972.981
983.479
991.312
996.849
1000.48
1002.66
1003.7
1003.78
1003.35
1002.42
1001.08
999.564
998.002
996.338
994.411
992.375
990.286
988.059
985.77
983.501
981.243
978.988
976.747
974.525
972.312
970.109
967.917
965.733
963.555
961.383
959.216
957.052
954.891
952.731
950.571
948.411
946.25
944.088
941.924
939.768
937.614
873.525
899.702
923.586
944.833
963.189
978.534
990.904
1000.51
1007.65
1012.64
1015.89
1017.78
1018.57
1018.46
1017.9
1016.84
1015.35
1013.71
1012.01
1010.22
1008.22
1006.09
1003.89
1001.6
999.217
996.843
994.482
992.12
989.768
987.439
985.124
982.82
980.529
978.246
975.97
973.701
971.437
969.177
966.92
964.667
962.416
960.165
957.915
955.664
953.412
951.157
948.902
946.642
944.389
942.135
967.842
984.578
998.486
1009.64
1018.26
1024.61
1028.98
1031.78
1033.32
1033.8
1033.53
1032.77
1031.53
1029.9
1028.14
1026.3
1024.37
1022.29
1020.05
1017.75
1015.38
1012.9
1010.42
1007.96
1005.5
1003.04
1000.61
998.187
995.776
993.379
990.995
988.62
986.254
983.895
981.54
979.19
976.843
974.499
972.157
969.816
967.476
965.136
962.795
960.452
958.106
955.757
953.406
951.05
948.699
946.345
1029.07
1036.62
1042.1
1045.81
1048.1
1049.25
1049.38
1048.9
1047.93
1046.5
1044.73
1042.82
1040.84
1038.78
1036.6
1034.25
1031.84
1029.38
1026.82
1024.23
1021.67
1019.11
1016.54
1014
1011.48
1008.97
1006.47
1003.99
1001.51
999.043
996.585
994.134
991.689
989.25
986.814
984.381
981.95
979.521
977.092
974.662
972.233
969.802
967.368
964.932
962.493
960.049
957.602
955.148
952.699
950.244
1063.07
1064.81
1065.49
1065.29
1064.58
1063.37
1061.73
1059.81
1057.76
1055.63
1053.44
1051.12
1048.68
1046.16
1043.61
1040.96
1038.27
1035.6
1032.94
1030.27
1027.63
1025.01
1022.39
1019.79
1017.21
1014.63
1012.07
1009.51
1006.96
1004.42
1001.88
999.354
996.829
994.308
991.789
989.272
986.756
984.239
981.723
979.204
976.684
974.161
971.635
969.105
966.57
964.031
961.487
958.936
956.387
953.831
1080.51
1079.05
1077.21
1075.13
1072.93
1070.65
1068.32
1065.88
1063.33
1060.7
1058.04
1055.3
1052.51
1049.73
1046.98
1044.22
1041.47
1038.75
1036.03
1033.33
1030.64
1027.97
1025.31
1022.65
1020.01
1017.38
1014.75
1012.12
1009.5
1006.89
1004.28
1001.67
999.067
996.464
993.862
991.259
988.655
986.049
983.44
980.829
978.213
975.593
972.968
970.338
967.702
965.06
962.411
959.763
957.106
1090.66
1088.3
1085.89
1083.42
1080.84
1078.18
1075.45
1072.67
1069.84
1066.95
1064.08
1061.23
1058.37
1055.51
1052.69
1049.88
1047.08
1044.29
1041.52
1038.76
1036.01
1033.27
1030.54
1027.82
1025.1
1022.39
1019.69
1016.99
1014.29
1011.6
1008.9
1006.21
1003.53
1000.84
998.149
995.458
992.765
990.069
987.37
984.666
981.957
979.242
976.522
973.795
971.062
968.322
965.574
962.826
960.068
1098.7
1096
1093.22
1090.38
1087.5
1084.56
1081.59
1078.61
1075.66
1072.71
1069.76
1066.84
1063.93
1061.03
1058.14
1055.28
1052.42
1049.58
1046.74
1043.92
1041.1
1038.29
1035.49
1032.69
1029.9
1027.12
1024.33
1021.56
1018.78
1016
1013.23
1010.46
1007.68
1004.91
1002.13
999.353
996.57
993.783
990.991
988.194
985.391
982.581
979.764
976.941
974.109
971.271
968.424
965.576
962.717
1102.5
1099.46
1096.39
1093.32
1090.28
1087.23
1084.18
1081.17
1078.17
1075.17
1072.19
1069.23
1066.27
1063.33
1060.41
1057.49
1054.58
1051.68
1048.78
1045.9
1043.02
1040.14
1037.27
1034.41
1031.54
1028.69
1025.83
1022.97
1020.11
1017.26
1014.4
1011.54
1008.68
1005.81
1002.94
1000.07
997.188
994.303
991.412
988.514
985.608
982.695
979.774
976.845
973.908
970.962
968.014
965.054
1108.2
1105.06
1101.92
1098.78
1095.67
1092.57
1089.48
1086.41
1083.36
1080.31
1077.28
1074.26
1071.25
1068.24
1065.25
1062.27
1059.29
1056.32
1053.36
1050.4
1047.45
1044.5
1041.56
1038.62
1035.68
1032.74
1029.8
1026.86
1023.92
1020.98
1018.03
1015.09
1012.14
1009.18
1006.22
1003.25
1000.28
997.305
994.319
991.326
988.324
985.314
982.295
979.268
976.233
973.188
970.14
967.08
1110.32
1107.14
1103.96
1100.8
1097.65
1094.52
1091.39
1088.28
1085.18
1082.09
1079.01
1075.94
1072.87
1069.82
1066.77
1063.72
1060.68
1057.65
1054.62
1051.59
1048.57
1045.55
1042.53
1039.51
1036.49
1033.47
1030.45
1027.42
1024.39
1021.36
1018.33
1015.29
1012.24
1009.19
1006.13
1003.07
999.996
996.915
993.826
990.728
987.621
984.505
981.379
978.246
975.103
971.956
968.796
1115.33
1112.1
1108.88
1105.67
1102.47
1099.28
1096.1
1092.93
1089.78
1086.62
1083.48
1080.34
1077.22
1074.09
1070.97
1067.86
1064.75
1061.64
1058.54
1055.44
1052.34
1049.24
1046.14
1043.04
1039.94
1036.83
1033.73
1030.62
1027.5
1024.39
1021.26
1018.13
1015
1011.85
1008.7
1005.54
1002.38
999.2
996.015
992.82
989.616
986.403
983.18
979.949
976.708
973.464
970.205
1116.8
1113.53
1110.27
1107.01
1103.77
1100.53
1097.31
1094.09
1090.87
1087.67
1084.46
1081.27
1078.08
1074.89
1071.7
1068.52
1065.34
1062.16
1058.99
1055.81
1052.63
1049.45
1046.27
1043.08
1039.9
1036.7
1033.51
1030.31
1027.1
1023.89
1020.67
1017.44
1014.2
1010.96
1007.71
1004.44
1001.17
997.892
994.602
991.301
987.991
984.672
981.344
978.006
974.664
971.309
1121.23
1117.91
1114.59
1111.28
1107.98
1104.68
1101.4
1098.11
1094.84
1091.56
1088.29
1085.03
1081.77
1078.51
1075.25
1072
1068.74
1065.49
1062.23
1058.98
1055.72
1052.46
1049.19
1045.92
1042.65
1039.37
1036.09
1032.8
1029.5
1026.2
1022.89
1019.57
1016.24
1012.9
1009.56
1006.2
1002.84
999.46
996.074
992.677
989.271
985.856
982.432
978.998
975.561
972.109
1125.39
1122.01
1118.63
1115.27
1111.9
1108.55
1105.2
1101.85
1098.51
1095.17
1091.83
1088.5
1085.17
1081.84
1078.5
1075.17
1071.84
1068.51
1065.18
1061.84
1058.5
1055.16
1051.81
1048.46
1045.1
1041.73
1038.36
1034.98
1031.6
1028.2
1024.8
1021.39
1017.97
1014.54
1011.1
1007.65
1004.19
1000.72
997.237
993.746
990.245
986.735
983.216
979.687
976.156
972.61
1129.26
1125.83
1122.39
1118.97
1115.54
1112.12
1108.71
1105.3
1101.89
1098.48
1095.07
1091.67
1088.27
1084.86
1081.46
1078.05
1074.64
1071.23
1067.82
1064.4
1060.98
1057.55
1054.12
1050.68
1047.24
1043.78
1040.33
1036.86
1033.38
1029.9
1026.41
1022.9
1019.39
1015.87
1012.33
1008.79
1005.23
1001.67
998.095
994.509
990.914
987.31
983.697
980.075
976.45
972.816
1132.85
1129.36
1125.87
1122.38
1118.89
1115.41
1111.93
1108.45
1104.97
1101.49
1098.02
1094.54
1091.06
1087.58
1084.1
1080.62
1077.13
1073.64
1070.15
1066.65
1063.14
1059.63
1056.12
1052.59
1049.06
1045.52
1041.98
1038.42
1034.86
1031.28
1027.7
1024.1
1020.5
1016.88
1013.26
1009.62
1005.97
1002.32
998.648
994.969
991.28
987.582
983.883
980.177
976.467
972.747
1136.16
1132.6
1129.05
1125.5
1121.95
1118.4
1114.85
1111.3
1107.76
1104.21
1100.66
1097.11
1093.56
1090
1086.45
1082.88
1079.32
1075.75
1072.17
1068.59
1065
1061.41
1057.81
1054.2
1050.58
1046.96
1043.32
1039.68
1036.02
1032.36
1028.68
1025
1021.3
1017.6
1013.88
1010.15
1006.41
1002.66
998.898
995.133
991.359
987.577
983.792
980
976.207
972.401
1139.17
1135.55
1131.94
1128.32
1124.7
1121.09
1117.47
1113.86
1110.24
1106.62
1103
1099.38
1095.75
1092.12
1088.48
1084.84
1081.2
1077.55
1073.89
1070.23
1066.55
1062.88
1059.19
1055.49
1051.79
1048.08
1044.35
1040.62
1036.88
1033.12
1029.36
1025.59
1021.8
1018
1014.19
1010.37
1006.55
1002.71
998.868
995.017
991.159
987.293
983.42
979.542
975.664
971.774
1138.21
1134.53
1130.85
1127.16
1123.48
1119.8
1116.11
1112.42
1108.73
1105.04
1101.34
1097.63
1093.92
1090.21
1086.49
1082.77
1079.03
1075.3
1071.55
1067.79
1064.03
1060.26
1056.48
1052.69
1048.89
1045.08
1041.26
1037.43
1033.58
1029.73
1025.86
1021.99
1018.11
1014.22
1010.32
1006.41
1002.49
998.556
994.618
990.673
986.721
982.765
978.805
974.846
970.877
1140.56
1136.82
1133.07
1129.32
1125.57
1121.82
1118.06
1114.3
1110.53
1106.76
1102.99
1099.21
1095.42
1091.63
1087.83
1084.03
1080.21
1076.39
1072.56
1068.73
1064.88
1061.02
1057.16
1053.28
1049.39
1045.49
1041.59
1037.67
1033.74
1029.81
1025.86
1021.9
1017.94
1013.96
1009.97
1005.98
1001.97
997.956
993.934
989.906
985.873
981.837
977.797
973.761
969.716
1142.62
1138.81
1134.99
1131.17
1127.35
1123.53
1119.7
1115.86
1112.02
1108.18
1104.33
1100.47
1096.61
1092.74
1088.86
1084.98
1081.08
1077.18
1073.27
1069.35
1065.41
1061.47
1057.52
1053.56
1049.59
1045.61
1041.62
1037.62
1033.62
1029.6
1025.57
1021.53
1017.47
1013.41
1009.34
1005.26
1001.17
997.076
992.973
988.865
984.754
980.641
976.527
972.416
968.299
1140.49
1136.61
1132.72
1128.83
1124.93
1121.03
1117.12
1113.21
1109.29
1105.36
1101.43
1097.49
1093.54
1089.58
1085.61
1081.64
1077.65
1073.66
1069.65
1065.64
1061.62
1057.59
1053.55
1049.5
1045.44
1041.37
1037.29
1033.2
1029.1
1024.98
1020.86
1016.72
1012.58
1008.43
1004.27
1000.1
995.923
991.743
987.559
983.373
979.186
975
970.82
966.634
1141.87
1137.91
1133.96
1129.99
1126.03
1122.05
1118.07
1114.08
1110.09
1106.08
1102.07
1098.05
1094.02
1089.99
1085.94
1081.89
1077.82
1073.75
1069.67
1065.58
1061.48
1057.37
1053.25
1049.12
1044.98
1040.83
1036.66
1032.49
1028.31
1024.11
1019.91
1015.69
1011.47
1007.24
1003
998.756
994.505
990.251
985.994
981.736
977.48
973.226
968.979
964.73
1142.93
1138.91
1134.88
1130.85
1126.81
1122.76
1118.71
1114.64
1110.57
1106.49
1102.4
1098.31
1094.2
1090.09
1085.97
1081.84
1077.7
1073.56
1069.4
1065.23
1061.05
1056.86
1052.66
1048.45
1044.22
1039.99
1035.75
1031.5
1027.23
1022.96
1018.68
1014.39
1010.09
1005.78
1001.47
997.151
992.829
988.504
984.177
979.852
975.53
971.212
966.903
962.593
1143.69
1139.6
1135.5
1131.39
1127.28
1123.16
1119.03
1114.89
1110.75
1106.6
1102.43
1098.27
1094.09
1089.9
1085.71
1081.5
1077.29
1073.06
1068.82
1064.58
1060.32
1056.05
1051.77
1047.48
1043.18
1038.87
1034.55
1030.22
1025.88
1021.54
1017.18
1012.82
1008.44
1004.07
999.681
995.293
990.902
986.509
982.118
977.728
973.344
968.966
964.599
960.234
1139.96
1135.79
1131.62
1127.44
1123.25
1119.05
1114.84
1110.63
1106.41
1102.17
1097.93
1093.68
1089.42
1085.15
1080.86
1076.57
1072.27
1067.95
1063.63
1059.3
1054.95
1050.6
1046.23
1041.86
1037.48
1033.08
1028.68
1024.27
1019.85
1015.42
1010.98
1006.54
1002.09
997.643
993.188
988.732
984.276
979.823
975.373
970.931
966.497
962.077
957.66
1140.03
1135.79
1131.55
1127.3
1123.04
1118.78
1114.5
1110.21
1105.91
1101.61
1097.29
1092.97
1088.63
1084.28
1079.93
1075.56
1071.18
1066.8
1062.4
1057.99
1053.57
1049.15
1044.71
1040.26
1035.81
1031.34
1026.87
1022.39
1017.9
1013.4
1008.9
1004.39
999.878
995.362
990.845
986.328
981.812
977.301
972.795
968.299
963.814
959.344
954.881
1139.8
1135.5
1131.19
1126.86
1122.54
1118.2
1113.85
1109.49
1105.12
1100.74
1096.35
1091.95
1087.55
1083.13
1078.7
1074.26
1069.81
1065.35
1060.89
1056.41
1051.92
1047.42
1042.91
1038.4
1033.87
1029.34
1024.8
1020.25
1015.7
1011.13
1006.57
1002
997.423
992.848
988.272
983.697
979.126
974.56
970.003
965.458
960.925
956.41
951.905
1134.89
1130.51
1126.12
1121.72
1117.31
1112.89
1108.47
1104.03
1099.58
1095.12
1090.65
1086.17
1081.69
1077.19
1072.68
1068.16
1063.63
1059.1
1054.55
1049.99
1045.43
1040.86
1036.27
1031.68
1027.08
1022.48
1017.87
1013.25
1008.63
1004
999.371
994.739
990.107
985.476
980.848
976.225
971.61
967.005
962.415
957.839
953.284
948.741
1133.98
1129.53
1125.07
1120.61
1116.13
1111.64
1107.15
1102.64
1098.13
1093.6
1089.06
1084.52
1079.96
1075.4
1070.82
1066.24
1061.64
1057.04
1052.43
1047.81
1043.18
1038.54
1033.89
1029.24
1024.58
1019.92
1015.24
1010.57
1005.89
1001.2
996.519
991.834
987.149
982.467
977.79
973.12
968.459
963.811
959.179
954.565
949.974
945.397
1132.76
1128.25
1123.73
1119.2
1114.65
1110.1
1105.54
1100.97
1096.39
1091.79
1087.19
1082.58
1077.96
1073.33
1068.69
1064.04
1059.39
1054.72
1050.05