/*--------------------------------*- C++ -*----------------------------------*\
| =========                 |                                                 |
| \\      /  F ield         | OpenFOAM: The Open Source CFD Toolbox           |
|  \\    /   O peration     | Version:  v1706                                 |
|   \\  /    A nd           | Web:      www.OpenFOAM.com                      |
|    \\/     M anipulation  |                                                 |
\*---------------------------------------------------------------------------*/
FoamFile
{
    version     2.0;
    format      ascii;
    class       volScalarField;
    location    "3.4e-05";
    object      wallHeatFlux;
}
// * * * * * * * * * * * * * * * * * * * * * * * * * * * * * * * * * * * * * //

dimensions      [1 0 -3 0 0 0 0];


internalField   uniform 0;

boundaryField
{
    cone
    {
        type            calculated;
        value           nonuniform List<scalar> 
153
(
118244
117073
115907
114747
113592
112442
111297
110156
109021
107891
106766
105646
104531
103422
102319
101221
100129
99042.7
97962.6
96888.8
95821.2
94760.1
93705.6
92657.8
91616.8
90582.9
89556.2
88536.9
87525.3
86521.6
85526.1
84539.1
83561
82592.3
81633.5
80685.2
79748.1
78823
77910.9
77012.8
76130
75263.8
74415.8
73587.3
72779.1
71989.4
71217
70428.8
69676
69020.3
68410
67839.5
67300.6
66788.1
66297.7
65826.3
65371.4
64931.1
64503.6
64087.6
63681.9
63285.5
62897.4
62516.8
62143
61775.4
61413.3
61056.2
60703.5
60354.8
60009.8
59668.4
59329.9
58994.1
58660.7
58329
57999
57670.5
57343.2
57016.9
56691.3
56366.3
56041.6
55717.2
55392.9
55068.4
54743.8
54418.7
54093.2
53767.1
53440.2
53112.6
52784.1
52454.7
52124.2
51792.7
51460
51126.2
50791.1
50454.8
50117.3
49778.4
49438.3
49096.8
48754
48410
48064.6
47718
47370.1
47021
46670.7
46319.2
45966.6
45612.8
45258.1
44902.3
44545.5
44187.9
43829.3
43470
43109.9
42749.1
42387.6
42025.6
41663
41300
40936.5
40572.7
40208.6
39844.2
39479.6
39115
38750.2
38385.4
38020.7
37656.1
37291.6
36927.3
36563.3
36199.5
35836.1
35473.2
35110.6
34748.6
34387.1
34026.3
33666.1
33306.6
32947.9
32590
32233.2
31877.6
31522.7
)
;
    }
    inlet
    {
        type            calculated;
        value           uniform 0;
    }
    rWedge
    {
        type            wedge;
    }
    lWedge
    {
        type            wedge;
    }
    outlet
    {
        type            calculated;
        value           nonuniform 0();
    }
    procBoundary2to0
    {
        type            processor;
        value           uniform 0;
    }
    procBoundary2to1
    {
        type            processor;
        value           uniform 0;
    }
    procBoundary2to3
    {
        type            processor;
        value           uniform 0;
    }
}


// ************************************************************************* //
