/*--------------------------------*- C++ -*----------------------------------*\
| =========                 |                                                 |
| \\      /  F ield         | OpenFOAM: The Open Source CFD Toolbox           |
|  \\    /   O peration     | Version:  v1706                                 |
|   \\  /    A nd           | Web:      www.OpenFOAM.com                      |
|    \\/     M anipulation  |                                                 |
\*---------------------------------------------------------------------------*/
FoamFile
{
    version     2.0;
    format      ascii;
    class       volScalarField;
    location    "4e-05";
    object      kappave;
}
// * * * * * * * * * * * * * * * * * * * * * * * * * * * * * * * * * * * * * //

dimensions      [1 1 -3 -1 0 0 0];


internalField   nonuniform List<scalar> 
30038
(
1.46038e-10
1.46038e-10
1.46038e-10
1.46038e-10
1.46038e-10
1.46038e-10
1.46038e-10
1.46038e-10
1.46038e-10
1.46038e-10
1.46038e-10
1.46038e-10
1.46038e-10
1.46038e-10
1.46038e-10
1.46038e-10
1.46038e-10
1.46038e-10
1.46038e-10
1.46038e-10
1.46038e-10
1.46038e-10
1.46038e-10
1.46038e-10
1.46038e-10
1.46038e-10
1.46038e-10
1.46038e-10
1.46038e-10
1.46038e-10
1.46038e-10
1.46038e-10
1.46038e-10
1.46038e-10
1.46038e-10
1.46038e-10
1.46038e-10
1.46038e-10
1.46038e-10
1.46038e-10
1.46038e-10
1.46038e-10
1.46038e-10
1.46038e-10
1.46038e-10
1.46038e-10
1.46038e-10
1.46038e-10
1.46038e-10
1.46038e-10
1.46038e-10
1.46038e-10
1.46038e-10
1.46038e-10
1.46038e-10
1.46038e-10
1.46038e-10
1.46038e-10
1.46038e-10
1.46038e-10
1.46038e-10
1.46038e-10
1.46038e-10
1.46038e-10
1.46038e-10
1.46038e-10
1.46038e-10
1.46038e-10
1.46038e-10
1.46038e-10
1.46038e-10
1.46038e-10
1.46038e-10
1.46038e-10
1.46038e-10
1.46038e-10
1.46038e-10
1.46038e-10
1.46038e-10
1.46038e-10
1.46038e-10
1.46038e-10
1.46038e-10
1.46038e-10
1.46038e-10
1.46038e-10
1.46038e-10
1.46038e-10
1.46038e-10
1.46038e-10
1.46038e-10
1.46038e-10
1.46038e-10
1.46038e-10
1.46038e-10
1.46038e-10
1.46038e-10
1.46038e-10
1.46038e-10
1.46038e-10
1.46038e-10
1.46038e-10
1.46038e-10
1.46038e-10
1.46038e-10
1.46038e-10
1.46038e-10
1.46038e-10
1.46038e-10
1.46038e-10
1.46038e-10
1.46038e-10
1.46038e-10
1.46038e-10
1.46038e-10
1.46038e-10
1.46038e-10
1.46038e-10
1.46038e-10
1.46038e-10
1.46038e-10
1.46038e-10
1.46038e-10
1.46038e-10
1.46038e-10
1.46038e-10
1.46038e-10
1.46038e-10
1.46038e-10
1.46038e-10
1.46038e-10
1.46038e-10
1.46038e-10
1.46038e-10
1.46038e-10
1.46038e-10
1.46038e-10
1.46038e-10
1.46038e-10
1.46038e-10
1.46038e-10
1.46038e-10
1.46038e-10
1.46038e-10
1.46038e-10
1.46038e-10
1.46038e-10
1.46038e-10
1.46038e-10
1.46038e-10
1.46038e-10
1.46038e-10
1.46038e-10
1.46038e-10
1.46038e-10
1.46038e-10
1.46038e-10
1.46038e-10
1.46038e-10
1.46038e-10
1.46038e-10
1.46038e-10
1.46038e-10
1.46038e-10
1.46038e-10
1.46038e-10
1.46038e-10
1.46038e-10
1.46038e-10
1.46038e-10
1.46038e-10
1.46038e-10
1.46038e-10
1.46038e-10
1.46038e-10
1.46038e-10
1.46038e-10
1.46038e-10
1.46038e-10
1.46038e-10
1.46038e-10
1.46038e-10
1.46038e-10
1.46038e-10
1.46038e-10
1.46038e-10
1.46038e-10
1.46038e-10
1.46038e-10
1.46038e-10
1.46038e-10
1.46038e-10
1.46038e-10
1.46038e-10
1.46038e-10
1.46038e-10
1.46038e-10
1.46038e-10
1.46038e-10
1.46038e-10
1.46038e-10
1.46038e-10
1.46038e-10
1.46038e-10
1.46038e-10
1.46038e-10
1.46038e-10
1.46038e-10
1.46038e-10
1.46038e-10
1.46038e-10
1.46038e-10
1.46038e-10
1.46038e-10
1.46038e-10
1.46038e-10
1.46038e-10
1.46038e-10
1.46038e-10
1.46038e-10
1.46038e-10
1.46038e-10
1.46038e-10
1.46038e-10
1.46038e-10
1.46038e-10
1.46038e-10
1.46038e-10
1.46038e-10
1.46038e-10
1.46038e-10
1.46038e-10
1.46038e-10
1.46038e-10
1.46038e-10
1.46038e-10
1.46038e-10
1.46038e-10
1.46038e-10
1.46038e-10
1.46038e-10
1.46038e-10
1.46038e-10
1.46038e-10
1.46038e-10
1.46038e-10
1.46038e-10
1.46038e-10
1.46038e-10
1.46038e-10
1.46038e-10
1.46038e-10
1.46038e-10
1.46038e-10
1.46038e-10
1.46038e-10
1.46038e-10
1.46038e-10
1.46038e-10
1.46038e-10
1.46038e-10
1.46038e-10
1.46038e-10
1.46038e-10
1.46038e-10
1.46038e-10
1.46038e-10
1.46038e-10
1.46038e-10
1.46038e-10
1.46038e-10
1.46038e-10
1.46038e-10
1.46038e-10
1.46038e-10
1.46038e-10
1.46038e-10
1.46038e-10
1.46038e-10
1.46038e-10
1.46038e-10
1.46038e-10
1.46038e-10
1.46038e-10
1.46038e-10
1.46038e-10
1.46038e-10
1.46038e-10
1.46038e-10
1.46038e-10
1.46038e-10
1.46038e-10
1.46038e-10
1.46038e-10
1.46038e-10
1.46038e-10
1.46038e-10
1.46038e-10
1.46038e-10
1.46038e-10
1.46038e-10
1.46038e-10
1.46038e-10
1.46038e-10
1.46038e-10
1.46038e-10
1.46038e-10
1.46038e-10
1.46038e-10
1.46038e-10
1.46038e-10
1.46038e-10
1.46038e-10
1.46038e-10
1.46038e-10
1.46038e-10
1.46038e-10
1.46038e-10
1.46038e-10
1.46038e-10
1.46038e-10
1.46038e-10
1.46038e-10
1.46038e-10
1.46038e-10
1.46038e-10
1.46038e-10
1.46038e-10
1.46038e-10
1.46038e-10
1.46038e-10
1.46038e-10
1.46038e-10
1.46038e-10
1.46038e-10
1.46038e-10
1.46038e-10
1.46038e-10
1.46038e-10
1.46038e-10
1.46038e-10
1.46038e-10
1.46038e-10
1.46038e-10
1.46038e-10
1.46038e-10
1.46038e-10
1.46038e-10
1.46038e-10
1.46038e-10
1.46038e-10
1.46038e-10
1.46038e-10
1.46038e-10
1.46038e-10
1.46038e-10
1.46038e-10
1.46038e-10
1.46038e-10
1.46038e-10
1.46038e-10
1.46038e-10
1.46038e-10
1.46038e-10
1.46038e-10
1.46038e-10
1.46038e-10
1.46038e-10
1.46038e-10
1.46038e-10
1.46038e-10
1.46038e-10
1.46038e-10
1.46038e-10
1.46038e-10
1.46038e-10
1.46038e-10
1.46038e-10
1.46038e-10
1.46038e-10
1.46038e-10
1.46038e-10
1.46038e-10
1.46038e-10
1.46038e-10
1.46038e-10
1.46038e-10
1.46038e-10
1.46038e-10
1.46038e-10
1.46038e-10
1.46038e-10
1.46038e-10
1.46038e-10
1.46038e-10
1.46038e-10
1.46038e-10
1.46038e-10
1.46038e-10
1.46038e-10
1.46038e-10
1.46038e-10
1.46038e-10
1.46038e-10
1.46038e-10
1.46038e-10
1.46038e-10
1.46038e-10
1.46038e-10
1.46038e-10
1.46038e-10
1.46038e-10
1.46038e-10
1.46038e-10
1.46038e-10
1.46038e-10
1.46038e-10
1.46038e-10
1.46038e-10
1.46038e-10
1.46038e-10
1.46038e-10
1.46038e-10
1.46038e-10
1.46038e-10
1.46038e-10
1.46038e-10
1.46038e-10
1.46038e-10
1.46038e-10
1.46038e-10
1.46038e-10
1.46038e-10
1.46038e-10
1.46038e-10
1.46038e-10
1.46038e-10
1.46038e-10
1.46038e-10
1.46038e-10
1.46038e-10
1.46038e-10
1.46038e-10
1.46038e-10
1.46038e-10
1.46038e-10
1.46038e-10
1.46038e-10
1.46038e-10
1.46038e-10
1.46038e-10
1.46038e-10
1.46038e-10
1.46038e-10
1.46038e-10
1.46038e-10
1.46038e-10
1.46038e-10
1.46039e-10
1.46039e-10
1.4604e-10
1.46038e-10
1.46038e-10
1.46038e-10
1.46038e-10
1.46038e-10
1.46038e-10
1.46038e-10
1.46038e-10
1.46038e-10
1.46038e-10
1.46038e-10
1.46038e-10
1.46038e-10
1.46038e-10
1.46038e-10
1.46038e-10
1.46038e-10
1.46038e-10
1.46038e-10
1.46038e-10
1.46038e-10
1.46038e-10
1.46038e-10
1.46038e-10
1.46038e-10
1.46038e-10
1.46038e-10
1.46038e-10
1.46038e-10
1.46038e-10
1.46038e-10
1.46038e-10
1.46038e-10
1.46038e-10
1.46039e-10
1.46039e-10
1.46039e-10
1.4604e-10
1.46041e-10
1.46043e-10
1.46038e-10
1.46038e-10
1.46038e-10
1.46038e-10
1.46038e-10
1.46038e-10
1.46038e-10
1.46038e-10
1.46038e-10
1.46038e-10
1.46038e-10
1.46038e-10
1.46038e-10
1.46038e-10
1.46038e-10
1.46038e-10
1.46038e-10
1.46038e-10
1.46038e-10
1.46038e-10
1.46038e-10
1.46038e-10
1.46038e-10
1.46038e-10
1.46038e-10
1.46038e-10
1.46038e-10
1.46038e-10
1.46038e-10
1.46038e-10
1.46038e-10
1.46039e-10
1.46039e-10
1.46039e-10
1.4604e-10
1.46041e-10
1.46043e-10
1.46045e-10
1.46048e-10
1.46053e-10
1.46038e-10
1.46038e-10
1.46038e-10
1.46038e-10
1.46038e-10
1.46038e-10
1.46038e-10
1.46038e-10
1.46038e-10
1.46038e-10
1.46038e-10
1.46038e-10
1.46038e-10
1.46038e-10
1.46038e-10
1.46038e-10
1.46038e-10
1.46038e-10
1.46038e-10
1.46038e-10
1.46038e-10
1.46038e-10
1.46038e-10
1.46038e-10
1.46038e-10
1.46038e-10
1.46038e-10
1.46038e-10
1.46039e-10
1.46039e-10
1.46039e-10
1.4604e-10
1.46041e-10
1.46043e-10
1.46045e-10
1.46048e-10
1.46052e-10
1.46058e-10
1.46067e-10
1.4608e-10
1.46038e-10
1.46038e-10
1.46038e-10
1.46038e-10
1.46038e-10
1.46038e-10
1.46038e-10
1.46038e-10
1.46038e-10
1.46038e-10
1.46038e-10
1.46038e-10
1.46038e-10
1.46038e-10
1.46038e-10
1.46038e-10
1.46038e-10
1.46038e-10
1.46038e-10
1.46038e-10
1.46038e-10
1.46038e-10
1.46038e-10
1.46038e-10
1.46038e-10
1.46039e-10
1.46039e-10
1.46039e-10
1.4604e-10
1.46041e-10
1.46043e-10
1.46045e-10
1.46047e-10
1.46051e-10
1.46057e-10
1.46065e-10
1.46077e-10
1.46094e-10
1.46118e-10
1.46154e-10
1.46038e-10
1.46038e-10
1.46038e-10
1.46038e-10
1.46038e-10
1.46038e-10
1.46038e-10
1.46038e-10
1.46038e-10
1.46038e-10
1.46038e-10
1.46038e-10
1.46038e-10
1.46038e-10
1.46038e-10
1.46038e-10
1.46038e-10
1.46038e-10
1.46038e-10
1.46038e-10
1.46038e-10
1.46038e-10
1.46039e-10
1.46039e-10
1.46039e-10
1.4604e-10
1.46041e-10
1.46043e-10
1.46045e-10
1.46047e-10
1.46051e-10
1.46057e-10
1.46064e-10
1.46075e-10
1.46091e-10
1.46113e-10
1.46145e-10
1.46191e-10
1.46256e-10
1.46351e-10
1.46038e-10
1.46038e-10
1.46038e-10
1.46038e-10
1.46038e-10
1.46038e-10
1.46038e-10
1.46038e-10
1.46038e-10
1.46038e-10
1.46038e-10
1.46038e-10
1.46038e-10
1.46038e-10
1.46038e-10
1.46038e-10
1.46038e-10
1.46038e-10
1.46038e-10
1.46039e-10
1.46039e-10
1.4604e-10
1.4604e-10
1.46041e-10
1.46043e-10
1.46045e-10
1.46047e-10
1.46051e-10
1.46057e-10
1.46064e-10
1.46075e-10
1.4609e-10
1.46111e-10
1.4614e-10
1.46182e-10
1.46242e-10
1.46326e-10
1.46447e-10
1.46619e-10
1.46868e-10
1.46038e-10
1.46038e-10
1.46038e-10
1.46038e-10
1.46038e-10
1.46038e-10
1.46038e-10
1.46038e-10
1.46038e-10
1.46038e-10
1.46038e-10
1.46038e-10
1.46038e-10
1.46038e-10
1.46038e-10
1.46038e-10
1.46038e-10
1.46039e-10
1.46039e-10
1.4604e-10
1.4604e-10
1.46041e-10
1.46043e-10
1.46045e-10
1.46048e-10
1.46051e-10
1.46057e-10
1.46064e-10
1.46075e-10
1.46089e-10
1.46109e-10
1.46137e-10
1.46177e-10
1.46233e-10
1.46312e-10
1.46422e-10
1.46578e-10
1.46799e-10
1.47111e-10
1.47554e-10
1.48185e-10
1.46038e-10
1.46038e-10
1.46038e-10
1.46038e-10
1.46038e-10
1.46038e-10
1.46038e-10
1.46038e-10
1.46038e-10
1.46038e-10
1.46038e-10
1.46038e-10
1.46038e-10
1.46039e-10
1.46039e-10
1.46039e-10
1.4604e-10
1.46041e-10
1.46042e-10
1.46043e-10
1.46045e-10
1.46048e-10
1.46052e-10
1.46057e-10
1.46065e-10
1.46075e-10
1.46089e-10
1.46109e-10
1.46136e-10
1.46175e-10
1.46228e-10
1.46302e-10
1.46406e-10
1.46552e-10
1.46756e-10
1.47041e-10
1.47441e-10
1.48001e-10
1.48786e-10
1.49883e-10
1.51416e-10
1.46038e-10
1.46038e-10
1.46038e-10
1.46038e-10
1.46038e-10
1.46038e-10
1.46038e-10
1.46038e-10
1.46038e-10
1.46038e-10
1.46038e-10
1.46039e-10
1.46039e-10
1.46039e-10
1.4604e-10
1.46041e-10
1.46042e-10
1.46044e-10
1.46046e-10
1.46049e-10
1.46053e-10
1.46058e-10
1.46066e-10
1.46076e-10
1.4609e-10
1.4611e-10
1.46137e-10
1.46174e-10
1.46226e-10
1.46298e-10
1.46397e-10
1.46535e-10
1.46727e-10
1.46994e-10
1.47365e-10
1.4788e-10
1.48594e-10
1.49584e-10
1.50949e-10
1.52823e-10
1.55376e-10
1.58821e-10
1.46038e-10
1.46038e-10
1.46038e-10
1.46038e-10
1.46038e-10
1.46038e-10
1.46038e-10
1.46038e-10
1.46039e-10
1.46039e-10
1.46039e-10
1.4604e-10
1.4604e-10
1.46041e-10
1.46043e-10
1.46044e-10
1.46046e-10
1.4605e-10
1.46054e-10
1.46059e-10
1.46067e-10
1.46078e-10
1.46092e-10
1.46112e-10
1.46139e-10
1.46176e-10
1.46227e-10
1.46297e-10
1.46394e-10
1.46527e-10
1.46711e-10
1.46964e-10
1.47314e-10
1.47796e-10
1.48461e-10
1.49374e-10
1.50625e-10
1.52331e-10
1.54638e-10
1.5773e-10
1.61818e-10
1.67129e-10
1.73874e-10
1.46038e-10
1.46038e-10
1.46038e-10
1.46038e-10
1.46038e-10
1.46039e-10
1.46039e-10
1.46039e-10
1.4604e-10
1.46041e-10
1.46042e-10
1.46043e-10
1.46045e-10
1.46047e-10
1.46051e-10
1.46055e-10
1.46061e-10
1.46069e-10
1.4608e-10
1.46095e-10
1.46115e-10
1.46143e-10
1.4618e-10
1.46231e-10
1.46301e-10
1.46397e-10
1.46527e-10
1.46706e-10
1.4695e-10
1.47285e-10
1.47744e-10
1.48372e-10
1.49229e-10
1.50396e-10
1.51977e-10
1.54104e-10
1.56942e-10
1.60678e-10
1.65521e-10
1.71672e-10
1.79304e-10
1.88509e-10
1.99239e-10
1.46038e-10
1.46038e-10
1.46039e-10
1.46039e-10
1.46039e-10
1.4604e-10
1.4604e-10
1.46041e-10
1.46042e-10
1.46044e-10
1.46046e-10
1.46049e-10
1.46052e-10
1.46057e-10
1.46063e-10
1.46072e-10
1.46084e-10
1.46099e-10
1.4612e-10
1.46149e-10
1.46187e-10
1.46239e-10
1.46309e-10
1.46405e-10
1.46534e-10
1.46711e-10
1.4695e-10
1.47276e-10
1.4772e-10
1.48322e-10
1.49138e-10
1.50243e-10
1.51731e-10
1.53722e-10
1.56366e-10
1.59835e-10
1.64321e-10
1.70015e-10
1.77084e-10
1.8563e-10
1.95659e-10
2.07045e-10
2.19498e-10
2.32623e-10
1.46039e-10
1.46039e-10
1.4604e-10
1.4604e-10
1.46041e-10
1.46042e-10
1.46043e-10
1.46045e-10
1.46047e-10
1.4605e-10
1.46054e-10
1.46059e-10
1.46066e-10
1.46075e-10
1.46088e-10
1.46104e-10
1.46126e-10
1.46156e-10
1.46196e-10
1.4625e-10
1.46322e-10
1.46419e-10
1.4655e-10
1.46726e-10
1.46965e-10
1.47287e-10
1.47721e-10
1.48308e-10
1.49097e-10
1.50159e-10
1.51579e-10
1.53469e-10
1.55965e-10
1.59227e-10
1.63434e-10
1.68767e-10
1.75388e-10
1.83413e-10
1.92869e-10
2.0367e-10
2.1558e-10
2.28238e-10
2.41161e-10
2.53699e-10
2.65219e-10
1.4604e-10
1.46041e-10
1.46041e-10
1.46043e-10
1.46044e-10
1.46046e-10
1.46048e-10
1.46052e-10
1.46056e-10
1.46062e-10
1.4607e-10
1.4608e-10
1.46093e-10
1.46111e-10
1.46135e-10
1.46166e-10
1.46208e-10
1.46264e-10
1.46339e-10
1.46439e-10
1.46573e-10
1.46753e-10
1.46994e-10
1.47316e-10
1.47749e-10
1.48328e-10
1.49103e-10
1.50137e-10
1.51512e-10
1.53331e-10
1.55719e-10
1.58825e-10
1.62816e-10
1.67863e-10
1.74123e-10
1.81716e-10
1.90689e-10
2.00991e-10
2.12442e-10
2.24732e-10
2.37443e-10
2.50025e-10
2.61796e-10
2.72111e-10
2.80556e-10
2.87244e-10
1.46041e-10
1.46042e-10
1.46044e-10
1.46045e-10
1.46047e-10
1.4605e-10
1.46054e-10
1.46059e-10
1.46066e-10
1.46074e-10
1.46085e-10
1.461e-10
1.4612e-10
1.46145e-10
1.46179e-10
1.46224e-10
1.46284e-10
1.46363e-10
1.46467e-10
1.46607e-10
1.46792e-10
1.47038e-10
1.47366e-10
1.47803e-10
1.48383e-10
1.49154e-10
1.50176e-10
1.51526e-10
1.533e-10
1.55615e-10
1.5861e-10
1.6244e-10
1.67267e-10
1.73242e-10
1.80482e-10
1.89049e-10
1.98915e-10
2.09943e-10
2.21872e-10
2.34343e-10
2.4689e-10
2.58918e-10
2.6977e-10
2.78943e-10
2.86256e-10
2.91874e-10
2.96123e-10
2.99531e-10
1.46047e-10
1.46049e-10
1.46053e-10
1.46057e-10
1.46063e-10
1.4607e-10
1.4608e-10
1.46093e-10
1.46109e-10
1.46131e-10
1.46159e-10
1.46196e-10
1.46244e-10
1.46308e-10
1.46393e-10
1.46504e-10
1.4665e-10
1.46844e-10
1.471e-10
1.47438e-10
1.47885e-10
1.48475e-10
1.49253e-10
1.50277e-10
1.5162e-10
1.53373e-10
1.55646e-10
1.5857e-10
1.62289e-10
1.66955e-10
1.72712e-10
1.79674e-10
1.87907e-10
1.97402e-10
2.0805e-10
2.19635e-10
2.3184e-10
2.44267e-10
2.56405e-10
2.67644e-10
2.77429e-10
2.85456e-10
2.91746e-10
2.9657e-10
3.00306e-10
3.03365e-10
3.06083e-10
3.08848e-10
1.46052e-10
1.46056e-10
1.46061e-10
1.46068e-10
1.46076e-10
1.46087e-10
1.46102e-10
1.4612e-10
1.46144e-10
1.46176e-10
1.46217e-10
1.4627e-10
1.4634e-10
1.46431e-10
1.46551e-10
1.46707e-10
1.46912e-10
1.47182e-10
1.47535e-10
1.47999e-10
1.48607e-10
1.49402e-10
1.50442e-10
1.51796e-10
1.53551e-10
1.55812e-10
1.58701e-10
1.62353e-10
1.66912e-10
1.72512e-10
1.79265e-10
1.87234e-10
1.96421e-10
2.06741e-10
2.1801e-10
2.29946e-10
2.42204e-10
2.54342e-10
2.65817e-10
2.76068e-10
2.84707e-10
2.91637e-10
2.9704e-10
3.01251e-10
3.04654e-10
3.07609e-10
3.10417e-10
3.13342e-10
3.16607e-10
3.2047e-10
1.46074e-10
1.46084e-10
1.46097e-10
1.46113e-10
1.46134e-10
1.46162e-10
1.46197e-10
1.46243e-10
1.46302e-10
1.4638e-10
1.4648e-10
1.4661e-10
1.46779e-10
1.47e-10
1.47287e-10
1.47661e-10
1.48149e-10
1.48783e-10
1.49608e-10
1.50677e-10
1.5206e-10
1.53839e-10
1.56115e-10
1.59003e-10
1.62631e-10
1.67132e-10
1.72633e-10
1.79237e-10
1.87007e-10
1.9595e-10
2.05995e-10
2.16982e-10
2.28663e-10
2.40727e-10
2.52793e-10
2.64384e-10
2.74966e-10
2.84102e-10
2.91601e-10
2.97554e-10
3.0224e-10
3.06021e-10
3.0926e-10
3.12272e-10
3.15324e-10
3.18652e-10
3.22408e-10
3.268e-10
3.32068e-10
3.38541e-10
1.46128e-10
1.46152e-10
1.46184e-10
1.46224e-10
1.46276e-10
1.46343e-10
1.4643e-10
1.46541e-10
1.46685e-10
1.4687e-10
1.4711e-10
1.47421e-10
1.47822e-10
1.48341e-10
1.49012e-10
1.49877e-10
1.50991e-10
1.52421e-10
1.54246e-10
1.56564e-10
1.59485e-10
1.63127e-10
1.67617e-10
1.73071e-10
1.79586e-10
1.87219e-10
1.95976e-10
2.05798e-10
2.16543e-10
2.27991e-10
2.39856e-10
2.51805e-10
2.63422e-10
2.74215e-10
2.83732e-10
2.91715e-10
2.98169e-10
3.03315e-10
3.07481e-10
3.11024e-10
3.1427e-10
3.17493e-10
3.20947e-10
3.24813e-10
3.29245e-10
3.34501e-10
3.40714e-10
3.48055e-10
3.56794e-10
3.6753e-10
1.46259e-10
1.46319e-10
1.46395e-10
1.46493e-10
1.46618e-10
1.46779e-10
1.46985e-10
1.47249e-10
1.47589e-10
1.48025e-10
1.48585e-10
1.49303e-10
1.50222e-10
1.51397e-10
1.52892e-10
1.54788e-10
1.57175e-10
1.6016e-10
1.63856e-10
1.68377e-10
1.73834e-10
1.80312e-10
1.87864e-10
1.96492e-10
2.06143e-10
2.1669e-10
2.27929e-10
2.39601e-10
2.5141e-10
2.62988e-10
2.73895e-10
2.83686e-10
2.92059e-10
2.98953e-10
3.04527e-10
3.09073e-10
3.12931e-10
3.16432e-10
3.19857e-10
3.23467e-10
3.27474e-10
3.32014e-10
3.37342e-10
3.4363e-10
3.51025e-10
3.5973e-10
3.7e-10
3.82122e-10
3.96491e-10
4.13999e-10
1.46574e-10
1.46716e-10
1.46898e-10
1.47129e-10
1.47424e-10
1.478e-10
1.4828e-10
1.48891e-10
1.49669e-10
1.50657e-10
1.5191e-10
1.53492e-10
1.55482e-10
1.57968e-10
1.6105e-10
1.64836e-10
1.69432e-10
1.74938e-10
1.8143e-10
1.88953e-10
1.97504e-10
2.07031e-10
2.17418e-10
2.28477e-10
2.3997e-10
2.51625e-10
2.63124e-10
2.74069e-10
2.8404e-10
2.92714e-10
2.99977e-10
3.05935e-10
3.10841e-10
3.15016e-10
3.18787e-10
3.22442e-10
3.2624e-10
3.30414e-10
3.35115e-10
3.40561e-10
3.46968e-10
3.54484e-10
3.63296e-10
3.73641e-10
3.858e-10
4.00058e-10
4.16783e-10
4.36408e-10
4.59507e-10
4.87344e-10
1.47312e-10
1.47645e-10
1.48066e-10
1.48599e-10
1.49274e-10
1.50126e-10
1.51201e-10
1.52552e-10
1.54244e-10
1.56354e-10
1.58969e-10
1.62183e-10
1.66097e-10
1.70809e-10
1.76407e-10
1.8296e-10
1.90501e-10
1.99022e-10
2.0847e-10
2.18736e-10
2.29643e-10
2.40972e-10
2.52472e-10
2.63862e-10
2.74788e-10
2.84859e-10
2.93749e-10
3.0131e-10
3.07602e-10
3.12843e-10
3.17328e-10
3.21376e-10
3.25279e-10
3.29297e-10
3.33669e-10
3.38573e-10
3.44198e-10
3.50764e-10
3.58458e-10
3.67449e-10
3.77957e-10
3.90252e-10
4.04627e-10
4.21409e-10
4.41004e-10
4.63851e-10
4.90436e-10
5.21342e-10
5.57383e-10
6.00366e-10
1.49e-10
1.49753e-10
1.50697e-10
1.51878e-10
1.5335e-10
1.55178e-10
1.57438e-10
1.60214e-10
1.63595e-10
1.67674e-10
1.72542e-10
1.78276e-10
1.84933e-10
1.92536e-10
2.0107e-10
2.10478e-10
2.20656e-10
2.31438e-10
2.42617e-10
2.53965e-10
2.65229e-10
2.76093e-10
2.862e-10
2.95231e-10
3.0302e-10
3.09592e-10
3.15134e-10
3.19918e-10
3.24248e-10
3.28417e-10
3.32681e-10
3.37284e-10
3.4243e-10
3.48285e-10
3.55071e-10
3.62992e-10
3.72233e-10
3.8298e-10
3.95507e-10
4.1011e-10
4.27087e-10
4.46827e-10
4.69763e-10
4.96359e-10
5.27143e-10
5.62714e-10
6.03751e-10
6.5105e-10
7.05735e-10
7.70338e-10
1.5272e-10
1.54339e-10
1.56333e-10
1.58775e-10
1.61745e-10
1.6533e-10
1.69614e-10
1.74677e-10
1.80587e-10
1.87387e-10
1.95091e-10
2.03674e-10
2.13077e-10
2.23197e-10
2.33877e-10
2.44922e-10
2.5612e-10
2.67247e-10
2.78019e-10
2.8811e-10
2.97219e-10
3.05171e-10
3.1197e-10
3.17777e-10
3.22842e-10
3.27457e-10
3.31906e-10
3.36444e-10
3.41321e-10
3.46744e-10
3.52877e-10
3.59947e-10
3.68163e-10
3.77718e-10
3.88793e-10
4.01645e-10
4.16571e-10
4.33869e-10
4.53898e-10
4.77087e-10
5.03893e-10
5.34817e-10
5.70433e-10
6.11386e-10
6.58393e-10
7.12265e-10
7.73916e-10
8.44426e-10
9.25318e-10
1.02005e-09
1.60415e-10
1.63618e-10
1.67444e-10
1.7197e-10
1.77267e-10
1.8339e-10
1.90369e-10
1.98207e-10
2.06871e-10
2.16297e-10
2.26384e-10
2.36981e-10
2.47903e-10
2.58957e-10
2.69939e-10
2.80596e-10
2.90631e-10
2.99764e-10
3.07823e-10
3.14802e-10
3.2084e-10
3.2617e-10
3.31067e-10
3.3581e-10
3.40649e-10
3.45837e-10
3.51582e-10
3.58049e-10
3.65476e-10
3.74046e-10
3.83982e-10
3.95477e-10
4.08754e-10
4.24114e-10
4.41862e-10
4.62326e-10
4.85928e-10
5.1312e-10
5.4439e-10
5.80289e-10
6.21444e-10
6.68541e-10
7.22351e-10
7.8374e-10
8.53668e-10
9.33212e-10
1.02358e-09
1.12621e-09
1.24313e-09
1.37897e-09
1.7481e-10
1.80377e-10
1.86746e-10
1.93935e-10
2.01935e-10
2.10703e-10
2.20175e-10
2.30246e-10
2.40774e-10
2.51583e-10
2.62496e-10
2.7333e-10
2.83856e-10
2.93804e-10
3.02917e-10
3.11036e-10
3.18151e-10
3.2439e-10
3.2997e-10
3.35152e-10
3.40206e-10
3.45377e-10
3.50913e-10
3.57027e-10
3.63888e-10
3.71738e-10
3.80741e-10
3.91143e-10
4.03147e-10
4.16952e-10
4.32861e-10
4.51184e-10
4.72236e-10
4.96418e-10
5.2418e-10
5.56002e-10
5.92418e-10
6.34033e-10
6.81516e-10
7.35606e-10
7.97137e-10
8.67028e-10
9.46304e-10
1.0361e-09
1.13769e-09
1.25246e-09
1.382e-09
1.52817e-09
1.69362e-09
1.88448e-09
1.98146e-10
2.06328e-10
2.15219e-10
2.2475e-10
2.3482e-10
2.45288e-10
2.55988e-10
2.66764e-10
2.77447e-10
2.8783e-10
2.97667e-10
3.06727e-10
3.14868e-10
3.22086e-10
3.28503e-10
3.34322e-10
3.39795e-10
3.45179e-10
3.50715e-10
3.56647e-10
3.63187e-10
3.70505e-10
3.78844e-10
3.88371e-10
3.99331e-10
4.1194e-10
4.26385e-10
4.42967e-10
4.61998e-10
4.83792e-10
5.08726e-10
5.37252e-10
5.6984e-10
6.07008e-10
6.49345e-10
6.97504e-10
7.52202e-10
8.14242e-10
8.84514e-10
9.64e-10
1.05379e-09
1.1551e-09
1.26925e-09
1.39772e-09
1.54214e-09
1.70431e-09
1.88626e-09
2.09035e-09
2.32003e-09
2.58321e-09
2.30071e-10
2.40145e-10
2.50556e-10
2.61151e-10
2.71789e-10
2.8232e-10
2.92552e-10
3.02262e-10
3.11245e-10
3.19382e-10
3.2668e-10
3.33259e-10
3.39318e-10
3.45093e-10
3.50835e-10
3.56775e-10
3.63153e-10
3.70181e-10
3.78029e-10
3.86943e-10
3.97087e-10
4.08699e-10
4.22013e-10
4.37235e-10
4.54622e-10
4.74505e-10
4.97201e-10
5.23068e-10
5.52552e-10
5.86124e-10
6.24289e-10
6.6762e-10
7.16756e-10
7.72395e-10
8.35311e-10
9.0637e-10
9.86521e-10
1.07682e-09
1.17842e-09
1.2926e-09
1.42078e-09
1.56451e-09
1.72549e-09
1.90561e-09
2.10693e-09
2.33173e-09
2.58256e-09
2.86241e-09
3.17564e-09
3.53236e-09
2.67108e-10
2.7761e-10
2.87988e-10
2.98065e-10
3.07637e-10
3.16528e-10
3.24646e-10
3.32013e-10
3.38753e-10
3.4506e-10
3.51161e-10
3.57294e-10
3.63687e-10
3.70573e-10
3.78159e-10
3.8662e-10
3.96199e-10
4.07062e-10
4.1944e-10
4.33585e-10
4.49707e-10
4.68045e-10
4.8894e-10
5.12716e-10
5.39712e-10
5.70362e-10
6.05141e-10
6.44552e-10
6.89152e-10
7.3957e-10
7.96487e-10
8.60657e-10
9.32918e-10
1.01419e-09
1.1055e-09
1.20796e-09
1.3228e-09
1.45139e-09
1.5952e-09
1.75589e-09
1.93524e-09
2.13521e-09
2.35797e-09
2.60587e-09
2.88148e-09
3.18766e-09
3.52755e-09
3.90488e-09
4.32511e-09
4.80096e-09
3.04418e-10
3.13848e-10
3.22643e-10
3.30739e-10
3.38178e-10
3.45092e-10
3.51671e-10
3.58132e-10
3.64704e-10
3.71611e-10
3.79076e-10
3.873e-10
3.96471e-10
4.06818e-10
4.18511e-10
4.31786e-10
4.469e-10
4.64066e-10
4.83516e-10
5.05597e-10
5.30634e-10
5.58965e-10
5.91011e-10
6.27251e-10
6.68175e-10
7.14332e-10
7.6634e-10
8.24874e-10
8.90672e-10
9.64552e-10
1.04741e-09
1.14024e-09
1.24412e-09
1.36024e-09
1.48992e-09
1.63459e-09
1.79582e-09
1.97534e-09
2.17502e-09
2.39693e-09
2.64331e-09
2.91661e-09
3.21951e-09
3.55491e-09
3.926e-09
4.33625e-09
4.78954e-09
5.29041e-09
5.84562e-09
6.47094e-09
3.37759e-10
3.45291e-10
3.52408e-10
3.59297e-10
3.6617e-10
3.73242e-10
3.80737e-10
3.88866e-10
3.97825e-10
4.07816e-10
4.19048e-10
4.31701e-10
4.46016e-10
4.62254e-10
4.80619e-10
5.01371e-10
5.24827e-10
5.5133e-10
5.81217e-10
6.149e-10
6.52858e-10
6.95581e-10
7.43608e-10
7.97547e-10
8.58065e-10
9.25883e-10
1.0018e-09
1.08671e-09
1.18156e-09
1.28742e-09
1.40544e-09
1.5369e-09
1.68317e-09
1.84578e-09
2.02638e-09
2.22679e-09
2.44897e-09
2.69508e-09
2.96746e-09
3.26865e-09
3.60143e-09
3.9688e-09
4.37404e-09
4.8207e-09
5.31262e-09
5.85402e-09
6.44956e-09
7.10476e-09
7.82783e-09
8.63811e-09
3.60861e-10
3.68119e-10
3.75471e-10
3.83124e-10
3.91298e-10
4.00196e-10
4.1e-10
4.20937e-10
4.33189e-10
4.46951e-10
4.62469e-10
4.8e-10
4.99751e-10
5.21999e-10
5.47045e-10
5.75242e-10
6.06935e-10
6.42521e-10
6.82476e-10
7.27298e-10
7.7752e-10
8.33744e-10
8.9663e-10
9.66889e-10
1.0453e-09
1.13274e-09
1.23015e-09
1.33855e-09
1.45908e-09
1.59299e-09
1.7416e-09
1.90641e-09
2.089e-09
2.29112e-09
2.51467e-09
2.76171e-09
3.0345e-09
3.33546e-09
3.66725e-09
4.03273e-09
4.43501e-09
4.87747e-09
5.36374e-09
5.89776e-09
6.4838e-09
7.12648e-09
7.83081e-09
8.60233e-09
9.44766e-09
1.03767e-08
1.14128e-08
3.94617e-10
4.0358e-10
4.13367e-10
4.24148e-10
4.36177e-10
4.49608e-10
4.64647e-10
4.81549e-10
5.00567e-10
5.21915e-10
5.45879e-10
5.72753e-10
6.02894e-10
6.36661e-10
6.7444e-10
7.16708e-10
7.63966e-10
8.16739e-10
8.75624e-10
9.41278e-10
1.01441e-09
1.09579e-09
1.18627e-09
1.28678e-09
1.39833e-09
1.52202e-09
1.65907e-09
1.81077e-09
1.97858e-09
2.16403e-09
2.36884e-09
2.59482e-09
2.84397e-09
3.11845e-09
3.42061e-09
3.75297e-09
4.11829e-09
4.51952e-09
4.95989e-09
5.44286e-09
5.97216e-09
6.55183e-09
7.18622e-09
7.88003e-09
8.6383e-09
9.46648e-09
1.03705e-08
1.13569e-08
1.24334e-08
1.36118e-08
1.49201e-08
4.28742e-10
4.4068e-10
4.53955e-10
4.68743e-10
4.85252e-10
5.03747e-10
5.24476e-10
5.47653e-10
5.73577e-10
6.02551e-10
6.34919e-10
6.71057e-10
7.11348e-10
7.56262e-10
8.06315e-10
8.62029e-10
9.23992e-10
9.92861e-10
1.06933e-09
1.15417e-09
1.24823e-09
1.35241e-09
1.46772e-09
1.59523e-09
1.73614e-09
1.89172e-09
2.06337e-09
2.25259e-09
2.46105e-09
2.69051e-09
2.94291e-09
3.22034e-09
3.52506e-09
3.85951e-09
4.22631e-09
4.62833e-09
5.06862e-09
5.55049e-09
6.0775e-09
6.6535e-09
7.28262e-09
7.96928e-09
8.71827e-09
9.53471e-09
1.04241e-08
1.13924e-08
1.24459e-08
1.35915e-08
1.48368e-08
1.61908e-08
1.76676e-08
1.93001e-08
4.91128e-10
5.09337e-10
5.29659e-10
5.52347e-10
5.77617e-10
6.0578e-10
6.37152e-10
6.72062e-10
7.10902e-10
7.54062e-10
8.02002e-10
8.55245e-10
9.14317e-10
9.798e-10
1.05235e-09
1.13268e-09
1.22152e-09
1.31973e-09
1.4282e-09
1.54791e-09
1.67994e-09
1.82544e-09
1.98568e-09
2.16203e-09
2.35595e-09
2.56906e-09
2.80308e-09
3.05989e-09
3.34152e-09
3.65015e-09
3.98814e-09
4.35803e-09
4.76257e-09
5.2047e-09
5.68758e-09
6.21463e-09
6.7895e-09
7.41613e-09
8.09874e-09
8.84186e-09
9.65033e-09
1.05294e-08
1.14845e-08
1.25218e-08
1.36476e-08
1.48687e-08
1.61924e-08
1.76267e-08
1.91803e-08
2.08638e-08
2.26932e-08
2.47073e-08
5.84924e-10
6.12589e-10
6.43312e-10
6.77412e-10
7.15218e-10
7.57129e-10
8.03548e-10
8.54931e-10
9.11804e-10
9.74702e-10
1.0442e-09
1.12095e-09
1.20567e-09
1.29909e-09
1.40206e-09
1.51547e-09
1.64028e-09
1.77756e-09
1.92845e-09
2.09419e-09
2.27611e-09
2.47568e-09
2.69445e-09
2.93412e-09
3.19651e-09
3.4836e-09
3.79751e-09
4.14052e-09
4.51508e-09
4.92385e-09
5.36966e-09
5.85557e-09
6.38485e-09
6.96101e-09
7.5878e-09
8.26925e-09
9.00969e-09
9.8137e-09
1.06862e-08
1.16326e-08
1.26584e-08
1.37696e-08
1.49727e-08
1.62745e-08
1.76825e-08
1.92043e-08
2.08483e-08
2.26236e-08
2.45401e-08
2.66099e-08
2.88515e-08
3.131e-08
7.24349e-10
7.65449e-10
8.10849e-10
8.60962e-10
9.16248e-10
9.77234e-10
1.04446e-09
1.11851e-09
1.20003e-09
1.28974e-09
1.38838e-09
1.49677e-09
1.61581e-09
1.74646e-09
1.88977e-09
2.04688e-09
2.21899e-09
2.40744e-09
2.61363e-09
2.83912e-09
3.08556e-09
3.35473e-09
3.64856e-09
3.96911e-09
4.31861e-09
4.69943e-09
5.11414e-09
5.56548e-09
6.0564e-09
6.59005e-09
7.1698e-09
7.79928e-09
8.48232e-09
9.22307e-09
1.00259e-08
1.08956e-08
1.1837e-08
1.28556e-08
1.39571e-08
1.51475e-08
1.64333e-08
1.78213e-08
1.9319e-08
2.09341e-08
2.26749e-08
2.45503e-08
2.65697e-08
2.87433e-08
3.10822e-08
3.36001e-08
3.63183e-08
3.92887e-08
9.2767e-10
9.8737e-10
1.05301e-09
1.12513e-09
1.20432e-09
1.29123e-09
1.38658e-09
1.49111e-09
1.60565e-09
1.73108e-09
1.86838e-09
2.01856e-09
2.18275e-09
2.36217e-09
2.55811e-09
2.77198e-09
3.0053e-09
3.25968e-09
3.53687e-09
3.83876e-09
4.16735e-09
4.52482e-09
4.91349e-09
5.33585e-09
5.79455e-09
6.29245e-09
6.83259e-09
7.41822e-09
8.05283e-09
8.74012e-09
9.48405e-09
1.02888e-08
1.1159e-08
1.20993e-08
1.31147e-08
1.42109e-08
1.53934e-08
1.66685e-08
1.80425e-08
1.95225e-08
2.11158e-08
2.28301e-08
2.46738e-08
2.66555e-08
2.87847e-08
3.10713e-08
3.35257e-08
3.61594e-08
3.89848e-08
4.20173e-08
4.52811e-08
4.88351e-08
1.2185e-09
1.30348e-09
1.39646e-09
1.49817e-09
1.60935e-09
1.73081e-09
1.86346e-09
2.00825e-09
2.1662e-09
2.33844e-09
2.52616e-09
2.73065e-09
2.9533e-09
3.19559e-09
3.45912e-09
3.74563e-09
4.05694e-09
4.39503e-09
4.76202e-09
5.16017e-09
5.59189e-09
6.05979e-09
6.56663e-09
7.11536e-09
7.70912e-09
8.35128e-09
9.04541e-09
9.79532e-09
1.06051e-08
1.14789e-08
1.24215e-08
1.34377e-08
1.45327e-08
1.57119e-08
1.69811e-08
1.83466e-08
1.98148e-08
2.13927e-08
2.30876e-08
2.49074e-08
2.68601e-08
2.89547e-08
3.12002e-08
3.36066e-08
3.61841e-08
3.89437e-08
4.18972e-08
4.50571e-08
4.84372e-08
5.20546e-08
5.59366e-08
6.01499e-08
1.62684e-09
1.74548e-09
1.87472e-09
2.01547e-09
2.16869e-09
2.33539e-09
2.5167e-09
2.71379e-09
2.92794e-09
3.16054e-09
3.41304e-09
3.68703e-09
3.9842e-09
4.30635e-09
4.65544e-09
5.03352e-09
5.44282e-09
5.8857e-09
6.36468e-09
6.88245e-09
7.44187e-09
8.04601e-09
8.69811e-09
9.40164e-09
1.01603e-08
1.09779e-08
1.18587e-08
1.2807e-08
1.38275e-08
1.49252e-08
1.61053e-08
1.73734e-08
1.87352e-08
2.01971e-08
2.17656e-08
2.34477e-08
2.52506e-08
2.71822e-08
2.92507e-08
3.14646e-08
3.38332e-08
3.63662e-08
3.90737e-08
4.19666e-08
4.50563e-08
4.83549e-08
5.18751e-08
5.56309e-08
5.96373e-08
6.39133e-08
6.84895e-08
7.34405e-08
2.35277e-09
2.52928e-09
2.72074e-09
2.92835e-09
3.15337e-09
3.39715e-09
3.66118e-09
3.94698e-09
4.25625e-09
4.59076e-09
4.95241e-09
5.34324e-09
5.76542e-09
6.22127e-09
6.71324e-09
7.24397e-09
7.81624e-09
8.43303e-09
9.09749e-09
9.81297e-09
1.0583e-08
1.14114e-08
1.23022e-08
1.32595e-08
1.4288e-08
1.53922e-08
1.65773e-08
1.78486e-08
1.92116e-08
2.06723e-08
2.22369e-08
2.39121e-08
2.57048e-08
2.76223e-08
2.96724e-08
3.18633e-08
3.42035e-08
3.67021e-08
3.93688e-08
4.22134e-08
4.52468e-08
4.84801e-08
5.1925e-08
5.55942e-08
5.95007e-08
6.36585e-08
6.80827e-08
7.27899e-08
7.78007e-08
8.31492e-08
8.89185e-08
3.17367e-09
3.41084e-09
3.66717e-09
3.9441e-09
4.24318e-09
4.56606e-09
4.91449e-09
5.29037e-09
5.69568e-09
6.13255e-09
6.60326e-09
7.11022e-09
7.65599e-09
8.2433e-09
8.87504e-09
9.55428e-09
1.02843e-08
1.10685e-08
1.19106e-08
1.28144e-08
1.3784e-08
1.48238e-08
1.59383e-08
1.71323e-08
1.8411e-08
1.97797e-08
2.1244e-08
2.28101e-08
2.4484e-08
2.62725e-08
2.81826e-08
3.02216e-08
3.23971e-08
3.47174e-08
3.71909e-08
3.98267e-08
4.26342e-08
4.56234e-08