/*--------------------------------*- C++ -*----------------------------------*\
| =========                 |                                                 |
| \\      /  F ield         | OpenFOAM: The Open Source CFD Toolbox           |
|  \\    /   O peration     | Version:  v1706                                 |
|   \\  /    A nd           | Web:      www.OpenFOAM.com                      |
|    \\/     M anipulation  |                                                 |
\*---------------------------------------------------------------------------*/
FoamFile
{
    version     2.0;
    format      ascii;
    class       volScalarField;
    location    "4e-05";
    object      kappatr;
}
// * * * * * * * * * * * * * * * * * * * * * * * * * * * * * * * * * * * * * //

dimensions      [1 1 -3 -1 0 0 0];


internalField   nonuniform List<scalar> 
30038
(
0.014593
0.014593
0.014593
0.014593
0.014593
0.014593
0.014593
0.014593
0.014593
0.014593
0.014593
0.014593
0.014593
0.014593
0.014593
0.014593
0.014593
0.014593
0.014593
0.014593
0.014593
0.014593
0.014593
0.014593
0.014593
0.014593
0.014593
0.014593
0.014593
0.014593
0.014593
0.014593
0.014593
0.014593
0.014593
0.014593
0.014593
0.014593
0.014593
0.014593
0.014593
0.014593
0.014593
0.014593
0.014593
0.014593
0.014593
0.014593
0.014593
0.014593
0.014593
0.014593
0.014593
0.014593
0.014593
0.014593
0.014593
0.014593
0.014593
0.014593
0.014593
0.014593
0.014593
0.014593
0.014593
0.014593
0.014593
0.014593
0.014593
0.014593
0.014593
0.014593
0.014593
0.014593
0.014593
0.014593
0.014593
0.014593
0.014593
0.014593
0.014593
0.014593
0.014593
0.014593
0.014593
0.014593
0.014593
0.014593
0.014593
0.014593
0.014593
0.014593
0.014593
0.014593
0.014593
0.014593
0.014593
0.014593
0.014593
0.014593
0.014593
0.014593
0.014593
0.014593
0.014593
0.014593
0.014593
0.014593
0.014593
0.014593
0.014593
0.014593
0.014593
0.014593
0.014593
0.014593
0.014593
0.014593
0.014593
0.014593
0.014593
0.014593
0.014593
0.014593
0.014593
0.014593
0.014593
0.014593
0.014593
0.014593
0.014593
0.014593
0.014593
0.014593
0.014593
0.014593
0.014593
0.014593
0.014593
0.014593
0.014593
0.014593
0.014593
0.014593
0.014593
0.014593
0.014593
0.014593
0.014593
0.014593
0.014593
0.014593
0.014593
0.014593
0.014593
0.014593
0.014593
0.014593
0.014593
0.014593
0.014593
0.014593
0.014593
0.014593
0.014593
0.014593
0.014593
0.014593
0.014593
0.014593
0.014593
0.014593
0.014593
0.014593
0.014593
0.014593
0.014593
0.014593
0.014593
0.014593
0.014593
0.014593
0.014593
0.014593
0.014593
0.014593
0.014593
0.014593
0.014593
0.014593
0.014593
0.014593
0.014593
0.014593
0.014593
0.014593
0.014593
0.014593
0.014593
0.014593
0.014593
0.014593
0.014593
0.014593
0.014593
0.014593
0.014593
0.014593
0.014593
0.014593
0.014593
0.014593
0.014593
0.014593
0.014593
0.014593
0.014593
0.014593
0.014593
0.014593
0.014593
0.014593
0.014593
0.014593
0.014593
0.014593
0.014593
0.014593
0.014593
0.014593
0.014593
0.014593
0.014593
0.014593
0.014593
0.014593
0.014593
0.014593
0.014593
0.014593
0.014593
0.014593
0.014593
0.014593
0.014593
0.014593
0.014593
0.014593
0.014593
0.014593
0.014593
0.014593
0.014593
0.014593
0.014593
0.014593
0.014593
0.014593
0.014593
0.014593
0.014593
0.014593
0.014593
0.014593
0.014593
0.014593
0.014593
0.014593
0.014593
0.014593
0.014593
0.014593
0.014593
0.014593
0.014593
0.014593
0.014593
0.014593
0.014593
0.014593
0.014593
0.014593
0.014593
0.014593
0.014593
0.014593
0.014593
0.014593
0.014593
0.014593
0.014593
0.014593
0.014593
0.014593
0.014593
0.014593
0.014593
0.014593
0.014593
0.014593
0.014593
0.014593
0.014593
0.014593
0.014593
0.014593
0.014593
0.014593
0.014593
0.014593
0.014593
0.014593
0.014593
0.014593
0.014593
0.014593
0.014593
0.014593
0.014593
0.014593
0.014593
0.014593
0.014593
0.014593
0.014593
0.014593
0.014593
0.014593
0.014593
0.014593
0.014593
0.014593
0.014593
0.014593
0.014593
0.014593
0.014593
0.014593
0.014593
0.014593
0.014593
0.014593
0.014593
0.014593
0.014593
0.014593
0.014593
0.014593
0.014593
0.014593
0.014593
0.014593
0.014593
0.014593
0.014593
0.014593
0.014593
0.014593
0.014593
0.014593
0.014593
0.014593
0.014593
0.014593
0.014593
0.014593
0.014593
0.014593
0.014593
0.014593
0.014593
0.014593
0.014593
0.014593
0.014593
0.014593
0.014593
0.014593
0.014593
0.014593
0.014593
0.014593
0.014593
0.014593
0.014593
0.014593
0.014593
0.014593
0.014593
0.014593
0.014593
0.014593
0.014593
0.014593
0.014593
0.014593
0.014593
0.014593
0.014593
0.014593
0.014593
0.014593
0.014593
0.014593
0.014593
0.014593
0.014593
0.014593
0.014593
0.014593
0.014593
0.014593
0.014593
0.014593
0.014593
0.014593
0.014593
0.014593
0.014593
0.014593
0.0145931
0.014593
0.014593
0.014593
0.014593
0.014593
0.014593
0.014593
0.014593
0.014593
0.014593
0.014593
0.014593
0.014593
0.014593
0.014593
0.014593
0.014593
0.014593
0.014593
0.014593
0.014593
0.014593
0.014593
0.014593
0.014593
0.014593
0.014593
0.014593
0.014593
0.014593
0.014593
0.014593
0.014593
0.014593
0.014593
0.014593
0.0145931
0.0145931
0.0145931
0.0145932
0.014593
0.014593
0.014593
0.014593
0.014593
0.014593
0.014593
0.014593
0.014593
0.014593
0.014593
0.014593
0.014593
0.014593
0.014593
0.014593
0.014593
0.014593
0.014593
0.014593
0.014593
0.014593
0.014593
0.014593
0.014593
0.014593
0.014593
0.014593
0.014593
0.014593
0.014593
0.014593
0.014593
0.0145931
0.0145931
0.0145931
0.0145932
0.0145933
0.0145934
0.0145935
0.014593
0.014593
0.014593
0.014593
0.014593
0.014593
0.014593
0.014593
0.014593
0.014593
0.014593
0.014593
0.014593
0.014593
0.014593
0.014593
0.014593
0.014593
0.014593
0.014593
0.014593
0.014593
0.014593
0.014593
0.014593
0.014593
0.014593
0.014593
0.014593
0.014593
0.0145931
0.0145931
0.0145931
0.0145932
0.0145932
0.0145934
0.0145935
0.0145937
0.014594
0.0145945
0.014593
0.014593
0.014593
0.014593
0.014593
0.014593
0.014593
0.014593
0.014593
0.014593
0.014593
0.014593
0.014593
0.014593
0.014593
0.014593
0.014593
0.014593
0.014593
0.014593
0.014593
0.014593
0.014593
0.014593
0.014593
0.014593
0.014593
0.0145931
0.0145931
0.0145931
0.0145932
0.0145932
0.0145933
0.0145935
0.0145937
0.014594
0.0145944
0.014595
0.0145959
0.0145972
0.014593
0.014593
0.014593
0.014593
0.014593
0.014593
0.014593
0.014593
0.014593
0.014593
0.014593
0.014593
0.014593
0.014593
0.014593
0.014593
0.014593
0.014593
0.014593
0.014593
0.014593
0.014593
0.014593
0.0145931
0.0145931
0.0145931
0.0145931
0.0145932
0.0145932
0.0145933
0.0145935
0.0145937
0.014594
0.0145944
0.0145949
0.0145958
0.0145969
0.0145986
0.0146011
0.0146046
0.014593
0.014593
0.014593
0.014593
0.014593
0.014593
0.014593
0.014593
0.014593
0.014593
0.014593
0.014593
0.014593
0.014593
0.014593
0.014593
0.014593
0.014593
0.014593
0.014593
0.0145931
0.0145931
0.0145931
0.0145931
0.0145932
0.0145933
0.0145934
0.0145935
0.0145937
0.014594
0.0145944
0.0145949
0.0145957
0.0145968
0.0145983
0.0146006
0.0146037
0.0146083
0.0146148
0.0146244
0.014593
0.014593
0.014593
0.014593
0.014593
0.014593
0.014593
0.014593
0.014593
0.014593
0.014593
0.014593
0.014593
0.014593
0.014593
0.014593
0.014593
0.0145931
0.0145931
0.0145931
0.0145931
0.0145932
0.0145933
0.0145934
0.0145935
0.0145937
0.014594
0.0145944
0.0145949
0.0145956
0.0145967
0.0145982
0.0146003
0.0146033
0.0146075
0.0146134
0.0146219
0.0146339
0.0146511
0.014676
0.014593
0.014593
0.014593
0.014593
0.014593
0.014593
0.014593
0.014593
0.014593
0.014593
0.014593
0.014593
0.014593
0.014593
0.014593
0.0145931
0.0145931
0.0145931
0.0145932
0.0145932
0.0145933
0.0145934
0.0145935
0.0145937
0.014594
0.0145944
0.0145949
0.0145957
0.0145967
0.0145981
0.0146001
0.014603
0.0146069
0.0146125
0.0146204
0.0146314
0.014647
0.0146691
0.0147003
0.0147445
0.0148076
0.014593
0.014593
0.014593
0.014593
0.014593
0.014593
0.014593
0.014593
0.014593
0.014593
0.014593
0.0145931
0.0145931
0.0145931
0.0145931
0.0145932
0.0145932
0.0145933
0.0145934
0.0145936
0.0145938
0.014594
0.0145944
0.014595
0.0145957
0.0145967
0.0145982
0.0146001
0.0146029
0.0146067
0.014612
0.0146195
0.0146298
0.0146444
0.0146647
0.0146933
0.0147332
0.0147892
0.0148675
0.0149771
0.0151303
0.014593
0.014593
0.014593
0.014593
0.014593
0.014593
0.014593
0.014593
0.014593
0.0145931
0.0145931
0.0145931
0.0145931
0.0145932
0.0145932
0.0145933
0.0145934
0.0145936
0.0145938
0.0145941
0.0145945
0.0145951
0.0145958
0.0145968
0.0145983
0.0146002
0.0146029
0.0146067
0.0146118
0.014619
0.0146289
0.0146427
0.0146619
0.0146885
0.0147256
0.014777
0.0148484
0.0149472
0.0150836
0.0152707
0.0155257
0.0158695
0.014593
0.014593
0.014593
0.014593
0.014593
0.014593
0.0145931
0.0145931
0.0145931
0.0145931
0.0145932
0.0145932
0.0145933
0.0145934
0.0145935
0.0145937
0.0145939
0.0145942
0.0145946
0.0145952
0.014596
0.014597
0.0145985
0.0146004
0.0146031
0.0146068
0.0146119
0.014619
0.0146286
0.0146419
0.0146603
0.0146856
0.0147205
0.0147687
0.014835
0.0149263
0.0150512
0.0152215
0.0154519
0.0157606
0.0161686
0.0166986
0.0173713
0.014593
0.014593
0.014593
0.0145931
0.0145931
0.0145931
0.0145931
0.0145932
0.0145932
0.0145933
0.0145934
0.0145935
0.0145937
0.014594
0.0145943
0.0145947
0.0145953
0.0145962
0.0145973
0.0145987
0.0146008
0.0146035
0.0146073
0.0146124
0.0146193
0.0146289
0.0146419
0.0146597
0.0146842
0.0147176
0.0147634
0.0148261
0.0149118
0.0150283
0.0151861
0.0153986
0.0156818
0.0160547
0.0165378
0.0171514
0.0179121
0.0188292
0.019897
0.0145931
0.0145931
0.0145931
0.0145931
0.0145932
0.0145932
0.0145933
0.0145934
0.0145935
0.0145936
0.0145938
0.0145941
0.0145944
0.0145949
0.0145956
0.0145964
0.0145976
0.0145991
0.0146012
0.0146041
0.0146079
0.0146131
0.0146201
0.0146297
0.0146426
0.0146602
0.0146842
0.0147167
0.014761
0.0148211
0.0149027
0.015013
0.0151615
0.0153604
0.0156242
0.0159703
0.0164179
0.0169858
0.0176903
0.0185416
0.0195397
0.0206713
0.0219067
0.0232053
0.0145931
0.0145931
0.0145932
0.0145932
0.0145933
0.0145934
0.0145935
0.0145937
0.0145939
0.0145942
0.0145946
0.0145951
0.0145958
0.0145968
0.014598
0.0145997
0.0146019
0.0146048
0.0146088
0.0146142
0.0146214
0.0146311
0.0146442
0.0146618
0.0146856
0.0147178
0.0147612
0.0148197
0.0148986
0.0150045
0.0151463
0.015335
0.0155841
0.0159096
0.0163292
0.0168609
0.0175208
0.0183199
0.0192608
0.0203341
0.0215155
0.022768
0.0240422
0.0252718
0.0263916
0.0145932
0.0145933
0.0145934
0.0145935
0.0145936
0.0145938
0.0145941
0.0145944
0.0145949
0.0145954
0.0145962
0.0145972
0.0145986
0.0146003
0.0146027
0.0146059
0.0146101
0.0146157
0.0146231
0.0146331
0.0146465
0.0146645
0.0146885
0.0147207
0.0147639
0.0148218
0.0148991
0.0150024
0.0151396
0.0153211
0.0155594
0.0158693
0.0162673
0.0167704
0.0173942
0.0181501
0.0190427
0.020066
0.0212015
0.0224173
0.0236704
0.0249047
0.0260506
0.0270423
0.0278368
0.0284411
0.0145934
0.0145935
0.0145936
0.0145938
0.014594
0.0145943
0.0145947
0.0145951
0.0145958
0.0145967
0.0145978
0.0145992
0.0146012
0.0146038
0.0146072
0.0146116
0.0146176
0.0146255
0.0146359
0.0146498
0.0146683
0.0146929
0.0147257
0.0147693
0.0148272
0.0149042
0.0150062
0.015141
0.015318
0.015549
0.0158477
0.0162296
0.0167106
0.0173057
0.0180264
0.0188782
0.0198579
0.020951
0.0221304
0.0233593
0.0245898
0.0257609
0.0268057
0.0276725
0.0283413
0.0288264
0.0291566
0.0293772
0.0145939
0.0145942
0.0145945
0.014595
0.0145955
0.0145963
0.0145972
0.0145985
0.0146001
0.0146023
0.0146051
0.0146088
0.0146137
0.0146201
0.0146285
0.0146396
0.0146542
0.0146736
0.0146991
0.0147329
0.0147775
0.0148364
0.0149141
0.0150162
0.0151503
0.0153252
0.0155519
0.0158435
0.0162142
0.0166791
0.0172523
0.017945
0.0187632
0.0197056
0.0207604
0.0219051
0.023107
0.0243248
0.0255061
0.0265885
0.027515
0.0282535
0.028804
0.0291909
0.0294483
0.0296131
0.0297121
0.0297707
0.0145944
0.0145948
0.0145953
0.014596
0.0145968
0.014598
0.0145994
0.0146012
0.0146037
0.0146068
0.0146109
0.0146162
0.0146232
0.0146323
0.0146442
0.0146599
0.0146804
0.0147073
0.0147425
0.0147888
0.0148495
0.0149289
0.0150327
0.0151677
0.0153428
0.0155683
0.0158563
0.0162202
0.0166743
0.0172317
0.0179032
0.0186948
0.019606
0.0206276
0.0217401
0.0229143
0.0241142
0.0252944
0.0263989
0.0273701
0.0281674
0.0287793
0.0292212
0.0295234
0.0297199
0.0298418
0.0299129
0.0299521
0.0299708
0.0299728
0.0145966
0.0145976
0.0145989
0.0146005
0.0146027
0.0146054
0.0146089
0.0146135
0.0146195
0.0146272
0.0146372
0.0146502
0.0146671
0.0146891
0.0147178
0.0147551
0.0148038
0.0148671
0.0149494
0.0150561
0.015194
0.0153714
0.0155983
0.0158861
0.0162475
0.0166956
0.0172428
0.0178992
0.0186705
0.0195568
0.0205502
0.0216338
0.0227815
0.0239607
0.025132
0.0262461
0.0272479
0.0280918
0.0287572
0.0292503
0.0295959
0.0298261
0.0299723
0.0300599
0.0301086
0.0301334
0.0301398
0.0301363
0.0301298
0.0301174
0.014602
0.0146045
0.0146076
0.0146117
0.0146169
0.0146235
0.0146322
0.0146433
0.0146576
0.0146762
0.0147001
0.0147311
0.0147712
0.014823
0.0148899
0.0149762
0.0150873
0.0152299
0.0154119
0.0156429
0.0159338
0.0162965
0.0167432
0.0172855
0.0179325
0.0186895
0.0195566
0.0205268
0.0215851
0.0227081
0.0238657
0.0250233
0.0261374
0.0271571
0.0280355
0.0287447
0.0292831
0.0296694
0.0299325
0.0301032
0.0302083
0.0302683
0.0303
0.0303121
0.0303091
0.0303026
0.030291
0.0302731
0.0302499
0.030224
0.0146151
0.0146211
0.0146287
0.0146385
0.014651
0.014667
0.0146876
0.014714
0.0147479
0.0147914
0.0148473
0.0149189
0.0150106
0.0151277
0.0152768
0.0154657
0.0157035
0.0160007
0.0163684
0.0168181
0.0173602
0.018003
0.0187513
0.0196045
0.0205565
0.0215935
0.0226938
0.0238301
0.0249709
0.0260778
0.027105
0.0280062
0.0287492
0.0293254
0.0297477
0.0300416
0.0302363
0.0303589
0.0304307
0.0304696
0.0304874
0.0304869
0.0304802
0.0304695
0.0304528
0.0304305
0.0304041
0.0303748
0.0303431
0.0303112
0.0146465
0.0146608
0.0146789
0.014702
0.0147314
0.014769
0.0148168
0.0148777
0.0149553
0.0150539
0.0151787
0.0153364
0.0155346
0.0157821
0.0160889
0.0164653
0.016922
0.0174685
0.018112
0.0188565
0.0197008
0.020639
0.0216582
0.0227383
0.0238538
0.0249759
0.0260708
0.0270971
0.0280106
0.0287771
0.0293829
0.0298355
0.0301565
0.0303733
0.0305126
0.0305965
0.030643
0.0306656
0.0306691
0.0306623
0.0306518
0.030636
0.0306145
0.0305884
0.0305595
0.0305275
0.0304941
0.0304611
0.030429
0.0303973
0.0147202
0.0147534
0.0147954
0.0148486
0.0149159
0.0150009
0.0151079
0.0152425
0.0154111
0.0156212
0.0158814
0.016201
0.0165899
0.0170576
0.0176127
0.0182614
0.0190065
0.0198464
0.0207748
0.0217795
0.0228414
0.023937
0.0250395
0.0261187
0.0271371
0.0280539
0.0288342
0.0294609
0.029937
0.0302807
0.0305167
0.030671
0.0307662
0.0308202
0.0308474
0.030855
0.0308496
0.0308382
0.0308229
0.0308025
0.0307768
0.0307477
0.0307158
0.0306815
0.0306469
0.0306131
0.0305797
0.0305467
0.0305146
0.030483
0.0148886
0.0149636
0.0150577
0.0151753
0.0153219
0.0155039
0.0157287
0.0160046
0.0163406
0.0167455
0.0172281
0.0177959
0.0184538
0.0192037
0.0200429
0.0209649
0.0219579
0.0230037
0.0240801
0.0251622
0.0262227
0.0272279
0.0281399
0.0289251
0.0295639
0.0300563
0.0304171
0.0306688
0.0308361
0.0309413
0.031002
0.0310334
0.0310447
0.0310408
0.0310291
0.0310133
0.0309938
0.0309682
0.0309389
0.0309076
0.0308731
0.0308373
0.0308019
0.030767
0.0307323
0.0306983
0.0306648
0.0306317
0.0305992
0.0305672
0.0152589
0.0154201
0.0156184
0.0158611
0.0161562
0.0165119
0.0169366
0.0174379
0.018022
0.0186928
0.0194508
0.0202925
0.021211
0.0221945
0.0232257
0.0242832
0.025344
0.0263834
0.0273708
0.0282714
0.0290531
0.0296957
0.030197
0.0305689
0.0308319
0.0310092
0.0311225
0.0311891
0.0312245
0.0312387
0.0312358
0.0312244
0.0312083
0.0311887
0.0311637
0.0311342
0.0311024
0.0310679
0.0310312
0.0309944
0.0309583
0.0309223
0.0308867
0.0308517
0.030817
0.0307826
0.0307487
0.0307151
0.030682
0.0306494
0.0160234
0.0163412
0.0167203
0.0171684
0.0176919
0.0182957
0.0189824
0.0197513
0.0205981
0.021515
0.0224905
0.0235078
0.0245464
0.025585
0.0266009
0.0275664
0.0284497
0.0292205
0.029859
0.0303617
0.0307386
0.0310081
0.0311921
0.031311
0.0313821
0.0314207
0.0314369
0.0314353
0.0314247
0.0314073
0.0313868
0.0313625
0.0313328
0.0313007
0.0312664
0.0312291
0.031191
0.0311534
0.0311162
0.031079
0.0310425
0.0310064
0.0309706
0.0309351
0.0308999
0.030865
0.0308305
0.0307963
0.0307627
0.0307295
0.017447
0.0179958
0.0186223
0.0193274
0.0201093
0.0209625
0.0218791
0.0228473
0.0238507
0.0248697
0.0258847
0.0268748
0.0278148
0.0286753
0.0294283
0.0300553
0.0305522
0.0309278
0.031199
0.0313859
0.0315081
0.0315819
0.0316225
0.0316399
0.031639
0.031629
0.0316106
0.0315892
0.0315649
0.0315348
0.031502
0.0314675
0.0314301
0.0313912
0.0313523
0.0313138
0.0312754
0.0312373
0.0311998
0.0311625
0.0311256
0.031089
0.0310526
0.0310165
0.0309807
0.0309453
0.0309101
0.0308753
0.0308411
0.0308074
0.0197329
0.0205287
0.0213891
0.0223056
0.0232662
0.0242548
0.0252531
0.0262426
0.0272043
0.028115
0.0289476
0.0296766
0.0302851
0.0307695
0.0311379
0.0314057
0.0315917
0.0317143
0.031789
0.0318304
0.0318484
0.0318475
0.0318372
0.0318182
0.0317957
0.031771
0.0317406
0.0317071
0.031672
0.0316343
0.0315945
0.0315545
0.0315149
0.0314753
0.0314359
0.031397
0.0313584
0.03132
0.031282
0.0312442
0.0312066
0.0311694
0.0311324
0.0310957
0.0310593
0.0310232
0.0309874
0.0309521
0.0309173
0.030883
0.0227965
0.0237482
0.0247205
0.0256957
0.0266573
0.0275877
0.0284653
0.0292651
0.0299643
0.030548
0.0310136
0.0313691
0.0316287
0.03181
0.0319302
0.0320037
0.0320444
0.032062
0.0320607
0.03205
0.0320303
0.0320061
0.03198
0.0319501
0.0319157
0.0318799
0.031842
0.0318014
0.0317602
0.0317194
0.0316786
0.0316379
0.0315977
0.0315579
0.0315182
0.0314788
0.0314396
0.0314007
0.031362
0.0313236
0.0312854
0.0312474
0.0312098
0.0311724
0.0311354
0.0310987
0.0310624
0.0310265
0.0309912
0.0309563
0.0261964
0.0271271
0.0280228
0.0288632
0.0296254
0.0302891
0.0308422
0.0312834
0.0316208
0.0318679
0.032041
0.0321558
0.0322262
0.0322649
0.0322808
0.0322787
0.032267
0.0322464
0.0322205
0.0321932
0.0321627
0.0321273
0.0320906
0.0320524
0.0320114
0.0319692
0.0319272
0.0318853
0.0318434
0.0318019
0.0317608
0.0317198
0.0316791
0.0316387
0.0315984
0.0315584
0.0315186
0.031479
0.0314396
0.0314005
0.0313617
0.0313231
0.0312848
0.0312468
0.0312092
0.0311719
0.031135
0.0310985
0.0310627
0.0310272
0.0293052
0.0300248
0.030648
0.0311652
0.031577
0.0318918
0.0321225
0.0322841
0.0323911
0.0324565
0.0324918
0.0325049
0.0325014
0.0324882
0.032466
0.0324387
0.0324102
0.0323788
0.0323424
0.0323046
0.0322657
0.0322241
0.032181
0.032138
0.0320951
0.0320522
0.0320094
0.031967
0.0319248
0.0318828
0.0318412
0.0317997
0.0317583
0.0317172
0.0316763
0.0316356
0.0315951
0.0315548
0.0315148
0.031475
0.0314355
0.0313963
0.0313573
0.0313188
0.0312805
0.0312426
0.0312052
0.0311682
0.0311318
0.0310959
0.0315135
0.0318917
0.03218
0.032391
0.0325385
0.0326354
0.0326942
0.0327248
0.0327342
0.0327287
0.0327134
0.0326894
0.0326606
0.0326308
0.0325976
0.0325609
0.032522
0.0324821
0.0324399
0.0323959
0.0323518
0.0323079
0.0322639
0.0322199
0.0321763
0.032133
0.0320899
0.0320469
0.0320042
0.0319616
0.0319193
0.0318771
0.0318351
0.0317933
0.0317517
0.0317103
0.0316691
0.0316282
0.0315875
0.031547
0.0315069
0.031467
0.0314275
0.0313883
0.0313494
0.031311
0.031273
0.0312354
0.0311985
0.0311621
0.0324829
0.0326717
0.0328028
0.0328879
0.0329386
0.0329636
0.0329682
0.0329603
0.0329425
0.0329163
0.032886
0.0328547
0.0328199
0.0327824
0.0327422
0.0327012
0.0326585
0.0326137
0.0325686
0.0325236
0.0324785
0.0324334
0.0323887
0.0323443
0.0322999
0.0322558
0.0322119
0.0321682
0.0321246
0.0320812
0.032038
0.0319949
0.031952
0.0319093
0.0318668
0.0318245
0.0317824
0.0317406
0.031699
0.0316576
0.0316165
0.0315757
0.0315352
0.0314951
0.0314553
0.0314159
0.0313769
0.0313384
0.0313003
0.0312629
0.0312259
0.0331476
0.033189
0.0332074
0.0332067
0.0331959
0.0331752
0.0331467
0.0331147
0.0330816
0.0330453
0.0330066
0.0329654
0.0329232
0.0328797
0.032834
0.0327878
0.0327419
0.0326959
0.0326497
0.0326039
0.0325584
0.0325129
0.0324676
0.0324226
0.0323777
0.032333
0.0322884
0.032244
0.0321997
0.0321556
0.0321117
0.032068
0.0320244
0.031981
0.0319378
0.0318948
0.0318521
0.0318095
0.0317672
0.0317252
0.0316835
0.0316421
0.031601
0.0315602
0.0315198
0.0314799
0.0314403
0.0314012
0.0313626
0.0313247
0.0312873
0.0334549
0.03345
0.033435
0.0334111
0.0333801
0.0333463
0.0333116
0.0332736
0.0332333
0.0331913
0.0331478
0.0331033
0.0330569
0.0330097
0.0329628
0.0329158
0.0328686
0.0328217
0.0327752
0.0327286
0.0326823
0.0326361
0.0325901
0.0325443
0.0324986
0.032453
0.0324076
0.0323624
0.0323173
0.0322723
0.0322275
0.0321829
0.0321384
0.0320941
0.0320501
0.0320062
0.0319625
0.0319191
0.0318759
0.031833
0.0317903
0.031748
0.0317059
0.0316642
0.0316228
0.0315819
0.0315413
0.0315012
0.0314616
0.0314224
0.031384
0.0313461
0.0336495
0.0336163
0.0335808
0.0335442
0.0335044
0.0334626
0.0334196
0.0333749
0.0333292
0.0332821
0.033234
0.033186
0.0331382
0.03309
0.033042
0.0329945
0.0329469
0.0328995
0.0328523
0.0328053
0.0327583
0.0327115
0.0326649
0.0326184
0.032572
0.0325257
0.0324796
0.0324337
0.0323879
0.0323422
0.0322967
0.0322514
0.0322063
0.0321613
0.0321166
0.032072
0.0320277
0.0319836
0.0319397
0.0318962
0.0318529
0.0318099
0.0317672
0.0317249
0.0316829
0.0316413
0.0316002
0.0315595
0.0315194
0.0314797
0.0314408
0.0314024
0.033779
0.0337374
0.0336942
0.0336501
0.0336043
0.0335573
0.0335093
0.0334604
0.0334114
0.0333627
0.0333137
0.0332647
0.0332161
0.0331676
0.0331192
0.033071
0.0330229
0.0329749
0.0329271
0.0328794
0.0328318
0.0327844
0.032737
0.0326898
0.0326428
0.0325958
0.032549
0.0325024
0.0324559
0.0324095
0.0323633
0.0323173
0.0322715
0.0322259
0.0321805
0.0321352
0.0320902
0.0320455
0.032001
0.0319567
0.0319128
0.0318692
0.0318259
0.0317829
0.0317404
0.0316982
0.0316565
0.0316152
0.0315745
0.0315344
0.0314949
0.031456
0.0338824
0.0338355
0.0337874
0.0337384
0.0336887
0.0336388
0.0335892
0.0335394
0.0334894
0.0334399
0.0333905
0.0333411
0.0332919
0.0332429
0.0331939
0.0331451
0.0330964
0.0330478
0.0329993
0.0329509
0.0329027
0.0328545
0.0328065
0.0327586
0.0327109
0.0326633
0.0326158
0.0325684
0.0325212
0.0324742
0.0324274
0.0323807
0.0323342
0.0322879
0.0322417
0.0321959
0.0321502
0.0321048
0.0320596
0.0320147
0.0319701
0.0319259
0.0318819
0.0318384
0.0317952
0.0317524
0.0317101
0.0316683
0.0316271
0.0315863
0.0315464
0.0315069
0.0339693
0.0339188
0.0338681
0.0338175
0.0337669
0.0337161
0.0336657
0.0336154
0.033565
0.0335149
0.033465
0.0334151
0.0333653
0.0333156
0.0332661
0.0332166
0.0331672
0.033118
0.0330688
0.0330198
0.0329709
0.0329221
0.0328734
0.0328248
0.0327764
0.032728
0.0326799
0.0326319
0.032584
0.0325363
0.0324887
0.0324414
0.0323942
0.0323472
0.0323004
0.0322538
0.0322075
0.0321614
0.0321156
0.03207
0.0320248
0.0319799
0.0319353
0.0318911
0.0318473
0.0318039
0.0317611
0.0317187
0.0316768
0.0316356
0.0315951
0.0315551
0.0340475
0.0339961
0.0339445
0.0338932
0.0338421
0.0337909
0.0337398
0.0336891
0.0336382
0.0335875
0.033537
0.0334865
0.0334361
0.0333858
0.0333356
0.0332854
0.0332354
0.0331855
0.0331357
0.033086
0.0330364
0.0329869
0.0329375
0.0328883
0.0328392
0.0327902
0.0327414
0.0326927
0.0326441
0.0325957
0.0325475
0.0324994
0.0324516
0.0324039
0.0323564
0.0323092
0.0322621
0.0322154
0.0321689
0.0321227
0.0320768
0.0320312
0.031986
0.0319411
0.0318967
0.0318527
0.0318092
0.0317662
0.0317238
0.031682
0.031641
0.0316005
0.0341222
0.0340704
0.0340183
0.0339665
0.0339148
0.0338632
0.0338116
0.0337602
0.0337088
0.0336575
0.0336063
0.0335552
0.0335042
0.0334532
0.0334024
0.0333516
0.033301
0.0332504
0.0331999
0.0331495
0.0330993
0.0330491
0.0329991
0.0329492
0.0328994
0.0328497
0.0328002
0.0327508
0.0327016
0.0326525
0.0326036
0.0325548
0.0325063
0.0324579
0.0324097
0.0323618
0.0323141
0.0322666
0.0322194
0.0321725
0.032126
0.0320797
0.0320338
0.0319883
0.0319433
0.0318987
0.0318546
0.031811
0.031768
0.0317256
0.031684
0.031643
0.0341421
0.0340897
0.0340373
0.0339851
0.0339329
0.0338807
0.0338287
0.0337767
0.0337248
0.033673
0.0336213
0.0335696
0.033518
0.0334665
0.0334151
0.0333638
0.0333126
0.0332615
0.0332104
0.0331595
0.0331087
0.033058
0.0330074
0.0329569
0.0329066
0.0328564
0.0328063
0.0327564
0.0327066
0.032657
0.0326075
0.0325582
0.0325092
0.0324603
0.0324117
0.0323632
0.0323151
0.0322672
0.0322196
0.0321724
0.0321254
0.0320789
0.0320327
0.031987
0.0319418
0.031897
0.0318528
0.0318092
0.0317663
0.0317241
0.0316826
0.0342114
0.0341584
0.0341055
0.0340527
0.0339999
0.0339472
0.0338945
0.033842
0.0337895
0.033737
0.0336847
0.0336324
0.0335802
0.0335281
0.033476
0.033424
0.0333722
0.0333204
0.0332687
0.0332171
0.0331656
0.0331142
0.0330629
0.0330118
0.0329607
0.0329098
0.0328591
0.0328084
0.0327579
0.0327076
0.0326574
0.0326075
0.0325577
0.0325081
0.0324587
0.0324096
0.0323607
0.0323121
0.0322639
0.0322159
0.0321683
0.032121
0.0320742
0.0320278
0.0319819
0.0319365
0.0318917
0.0318475
0.0318039
0.0317612
0.0317191
0.0342781
0.0342245
0.034171
0.0341176
0.0340643
0.034011
0.0339577
0.0339045
0.0338514
0.0337984
0.0337454
0.0336925
0.0336397
0.0335869
0.0335342
0.0334816
0.0334291
0.0333766
0.0333243
0.033272
0.0332198
0.0331678
0.0331158
0.0330639
0.0330122
0.0329606
0.0329091
0.0328577
0.0328065
0.0327555
0.0327046
0.0326539
0.0326034
0.032553
0.032503
0.0324531
0.0324035
0.0323542
0.0323052
0.0322565
0.0322081
0.0321602
0.0321127
0.0320656
0.032019
0.031973
0.0319275
0.0318827
0.0318385
0.0317952
0.0317526
0.034288
0.0342339
0.0341799
0.034126
0.0340721
0.0340183
0.0339645
0.0339108
0.0338571
0.0338035
0.03375
0.0336965
0.0336431
0.0335898
0.0335365
0.0334833
0.0334302
0.0333772
0.0333242
0.0332713
0.0332186
0.0331659
0.0331133
0.0330609
0.0330085
0.0329563
0.0329042
0.0328523
0.0328005
0.0327489
0.0326974
0.0326462
0.0325951
0.0325443
0.0324937
0.0324433
0.0323932
0.0323435
0.0322941
0.032245
0.0321963
0.0321481
0.0321003
0.0320531
0.0320063
0.0319602
0.0319148
0.03187
0.0318261
0.0317829
0.0343488
0.0342942
0.0342396
0.0341851
0.0341306
0.0340762
0.0340218
0.0339675
0.0339132
0.033859
0.0338048
0.0337507
0.0336966
0.0336426
0.0335887
0.0335348
0.033481
0.0334273
0.0333737
0.0333201
0.0332666
0.0332132
0.03316
0.0331068
0.0330537
0.0330007
0.0329479
0.0328952
0.0328427
0.0327903
0.0327381
0.032686
0.0326342
0.0325826
0.0325312
0.0324801
0.0324293
0.0323788
0.0323286
0.0322788
0.0322294
0.0321804
0.0321319
0.032084
0.0320366
0.0319898
0.0319437
0.0318983
0.0318538
0.0318099
0.0344069
0.0343518
0.0342966
0.0342415
0.0341864
0.0341314
0.0340764
0.0340215
0.0339666
0.0339117
0.0338569
0.0338021
0.0337474
0.0336928
0.0336382
0.0335836
0.0335291
0.0334747
0.0334204
0.0333661
0.0333119
0.0332578
0.0332037
0.0331498
0.033096
0.0330422
0.0329886
0.0329352
0.0328819
0.0328287
0.0327757
0.0327229
0.0326703
0.0326179
0.0325657
0.0325138
0.0324622
0.0324109
0.03236
0.0323094
0.0322593
0.0322095
0.0321603
0.0321116
0.0320635
0.0320161
0.0319693
0.0319233
0.0318782
0.0318337
0.0344625
0.0344067
0.034351
0.0342953
0.0342396
0.034184
0.0341284
0.0340728
0.0340173
0.0339618
0.0339063
0.0338509
0.0337955
0.0337402
0.0336849
0.0336296
0.0335744
0.0335193
0.0334642
0.0334092
0.0333542
0.0332994
0.0332446
0.0331899
0.0331353
0.0330808
0.0330264
0.0329722
0.032918
0.0328641
0.0328103
0.0327567
0.0327032
0.03265
0.0325971
0.0325444
0.032492
0.0324399
0.0323882
0.0323368
0.0322859
0.0322354
0.0321855
0.0321361
0.0320873
0.0320391
0.0319917
0.031945
0.0318992
0.0318542
0.0345154
0.034459
0.0344027
0.0343464
0.0342901
0.0342339
0.0341776
0.0341214
0.0340653
0.0340091
0.033953
0.0338969
0.0338408
0.0337848
0.0337288
0.0336728
0.0336169
0.033561
0.0335052
0.0334494
0.0333937
0.0333381
0.0332825
0.033227
0.0331716
0.0331163
0.0330611
0.0330061
0.0329511
0.0328964
0.0328417
0.0327873
0.0327331
0.032679
0.0326253
0.0325717
0.0325185
0.0324656
0.0324131
0.032361
0.0323092
0.032258
0.0322073
0.0321571
0.0321076
0.0320588
0.0320107
0.0319634
0.031917
0.0318714
0.0345656
0.0345086
0.0344517
0.0343948
0.0343379
0.034281
0.0342242
0.0341673
0.0341105
0.0340536
0.0339968
0.03394
0.0338832
0.0338265
0.0337698
0.0337131
0.0336564
0.0335998
0.0335432
0.0334867
0.0334302
0.0333737
0.0333174
0.0332611
0.0332049
0.0331488
0.0330928
0.0330369
0.0329811
0.0329255
0.03287
0.0328147
0.0327596
0.0327048
0.0326502
0.0325958
0.0325418
0.032488
0.0324347
0.0323817
0.0323292
0.0322772
0.0322258
0.0321749
0.0321246
0.0320751
0.0320263
0.0319783
0.0319313
0.0318851
0.0346131
0.0345556
0.034498
0.0344405
0.034383
0.0343254
0.0342679
0.0342104
0.0341528
0.0340953
0.0340378
0.0339803
0.0339228
0.0338653
0.0338078
0.0337504
0.033693
0.0336356
0.0335782
0.0335209
0.0334636
0.0334063
0.0333492
0.033292
0.033235
0.033178
0.0331212
0.0330644
0.0330078
0.0329513
0.032895
0.0328389
0.0327829
0.0327272
0.0326717
0.0326165
0.0325616
0.0325071
0.0324529
0.0323991
0.0323458
0.032293
0.0322408
0.0321892
0.0321382
0.0320879
0.0320385
0.0319898
0.0319422
0.0318954
0.0345997
0.0345416
0.0344834
0.0344252
0.034367
0.0343088
0.0342506
0.0341924
0.0341341
0.0340759
0.0340176
0.0339594
0.0339012
0.0338429
0.0337847
0.0337265
0.0336683
0.0336101
0.033552
0.0334939
0.0334358
0.0333778
0.0333198
0.0332619
0.0332041
0.0331464
0.0330888
0.0330313
0.0329739
0.0329167
0.0328597
0.0328029
0.0327463
0.0326899
0.0326339
0.0325781
0.0325227
0.0324677
0.0324131
0.032359
0.0323054
0.0322524
0.0322
0.0321483
0.0320973
0.0320472
0.0319979
0.0319497
0.0319023
0.0346411
0.0345822
0.0345234
0.0344646
0.0344057
0.0343468
0.0342879
0.0342289
0.03417
0.034111
0.034052
0.033993
0.033934
0.0338749
0.0338159
0.0337569
0.0336979
0.0336389
0.0335799
0.0335209
0.033462
0.0334031
0.0333443
0.0332855
0.0332268
0.0331682
0.0331097
0.0330513
0.0329931
0.032935
0.0328771
0.0328194
0.0327619
0.0327047
0.0326477
0.0325911
0.0325349
0.032479
0.0324236
0.0323687
0.0323143
0.0322605
0.0322073
0.0321549
0.0321032
0.0320524
0.0320025
0.0319537
0.0319057
0.0346795
0.0346201
0.0345606
0.034501
0.0344414
0.0343818
0.0343222
0.0342625
0.0342028
0.034143
0.0340833
0.0340235
0.0339636
0.0339038
0.033844
0.0337841
0.0337243
0.0336644
0.0336046
0.0335447
0.033485
0.0334252
0.0333655
0.0333058
0.0332462
0.0331867
0.0331273
0.033068
0.0330089
0.0329499
0.032891
0.0328324
0.0327741
0.0327159
0.0326581
0.0326006
0.0325435
0.0324868
0.0324305
0.0323748
0.0323196
0.032265
0.0322111
0.032158
0.0321057