/*--------------------------------*- C++ -*----------------------------------*\
| =========                 |                                                 |
| \\      /  F ield         | OpenFOAM: The Open Source CFD Toolbox           |
|  \\    /   O peration     | Version:  v1706                                 |
|   \\  /    A nd           | Web:      www.OpenFOAM.com                      |
|    \\/     M anipulation  |                                                 |
\*---------------------------------------------------------------------------*/
FoamFile
{
    version     2.0;
    format      ascii;
    class       volScalarField;
    location    "4e-05";
    object      Mach;
}
// * * * * * * * * * * * * * * * * * * * * * * * * * * * * * * * * * * * * * //

dimensions      [0 0 0 0 0 0 0];


internalField   nonuniform List<scalar> 
30038
(
3.99498
3.99498
3.99498
3.99498
3.99498
3.99498
3.99498
3.99498
3.99498
3.99498
3.99498
3.99498
3.99498
3.99498
3.99498
3.99498
3.99498
3.99498
3.99498
3.99498
3.99498
3.99498
3.99498
3.99498
3.99498
3.99498
3.99498
3.99498
3.99498
3.99498
3.99498
3.99498
3.99498
3.99498
3.99498
3.99498
3.99498
3.99498
3.99498
3.99498
3.99498
3.99498
3.99498
3.99498
3.99498
3.99498
3.99498
3.99498
3.99498
3.99498
3.99498
3.99498
3.99498
3.99498
3.99498
3.99498
3.99498
3.99498
3.99498
3.99498
3.99498
3.99498
3.99498
3.99498
3.99498
3.99498
3.99498
3.99498
3.99498
3.99498
3.99498
3.99498
3.99498
3.99498
3.99498
3.99498
3.99498
3.99498
3.99498
3.99498
3.99498
3.99498
3.99498
3.99498
3.99498
3.99498
3.99498
3.99498
3.99498
3.99498
3.99498
3.99498
3.99498
3.99498
3.99498
3.99498
3.99498
3.99498
3.99498
3.99498
3.99498
3.99498
3.99498
3.99498
3.99498
3.99498
3.99498
3.99498
3.99498
3.99498
3.99498
3.99498
3.99498
3.99498
3.99498
3.99498
3.99498
3.99498
3.99498
3.99498
3.99498
3.99498
3.99498
3.99498
3.99498
3.99498
3.99498
3.99498
3.99498
3.99498
3.99498
3.99498
3.99498
3.99498
3.99498
3.99498
3.99498
3.99498
3.99498
3.99498
3.99498
3.99498
3.99498
3.99498
3.99498
3.99498
3.99498
3.99498
3.99498
3.99498
3.99498
3.99498
3.99498
3.99498
3.99498
3.99498
3.99498
3.99498
3.99498
3.99498
3.99498
3.99498
3.99498
3.99498
3.99498
3.99498
3.99498
3.99498
3.99498
3.99498
3.99498
3.99498
3.99498
3.99498
3.99498
3.99498
3.99498
3.99498
3.99498
3.99498
3.99498
3.99498
3.99498
3.99498
3.99498
3.99498
3.99498
3.99498
3.99498
3.99498
3.99498
3.99498
3.99498
3.99498
3.99498
3.99498
3.99498
3.99498
3.99498
3.99498
3.99498
3.99498
3.99498
3.99498
3.99498
3.99498
3.99498
3.99498
3.99498
3.99498
3.99498
3.99498
3.99498
3.99498
3.99498
3.99498
3.99498
3.99498
3.99498
3.99498
3.99498
3.99498
3.99498
3.99498
3.99498
3.99498
3.99498
3.99498
3.99498
3.99498
3.99498
3.99498
3.99498
3.99498
3.99498
3.99498
3.99498
3.99498
3.99498
3.99498
3.99498
3.99498
3.99498
3.99498
3.99498
3.99498
3.99498
3.99498
3.99498
3.99498
3.99498
3.99498
3.99498
3.99498
3.99498
3.99498
3.99498
3.99498
3.99498
3.99498
3.99498
3.99498
3.99498
3.99498
3.99498
3.99498
3.99498
3.99498
3.99498
3.99498
3.99498
3.99498
3.99498
3.99498
3.99498
3.99498
3.99498
3.99498
3.99498
3.99498
3.99498
3.99498
3.99498
3.99498
3.99498
3.99498
3.99498
3.99498
3.99498
3.99498
3.99498
3.99498
3.99498
3.99498
3.99498
3.99498
3.99498
3.99498
3.99498
3.99498
3.99498
3.99498
3.99498
3.99498
3.99498
3.99498
3.99498
3.99498
3.99498
3.99498
3.99498
3.99498
3.99498
3.99498
3.99498
3.99498
3.99498
3.99498
3.99498
3.99498
3.99498
3.99498
3.99498
3.99498
3.99498
3.99498
3.99498
3.99498
3.99498
3.99498
3.99498
3.99498
3.99498
3.99498
3.99498
3.99498
3.99498
3.99498
3.99498
3.99498
3.99498
3.99498
3.99498
3.99498
3.99498
3.99498
3.99498
3.99498
3.99498
3.99498
3.99498
3.99498
3.99498
3.99498
3.99498
3.99498
3.99498
3.99498
3.99498
3.99498
3.99498
3.99498
3.99498
3.99498
3.99498
3.99498
3.99498
3.99498
3.99498
3.99498
3.99498
3.99498
3.99498
3.99498
3.99498
3.99498
3.99498
3.99498
3.99498
3.99498
3.99497
3.99497
3.99498
3.99498
3.99498
3.99498
3.99498
3.99498
3.99498
3.99498
3.99498
3.99498
3.99498
3.99498
3.99498
3.99498
3.99498
3.99498
3.99498
3.99498
3.99498
3.99498
3.99498
3.99498
3.99498
3.99498
3.99498
3.99498
3.99498
3.99498
3.99498
3.99498
3.99498
3.99498
3.99498
3.99498
3.99497
3.99497
3.99497
3.99497
3.99496
3.99498
3.99498
3.99498
3.99498
3.99498
3.99498
3.99498
3.99498
3.99498
3.99498
3.99498
3.99498
3.99498
3.99498
3.99498
3.99498
3.99498
3.99498
3.99498
3.99498
3.99498
3.99498
3.99498
3.99498
3.99498
3.99498
3.99498
3.99498
3.99498
3.99498
3.99498
3.99498
3.99497
3.99497
3.99497
3.99497
3.99496
3.99496
3.99495
3.99493
3.99498
3.99498
3.99498
3.99498
3.99498
3.99498
3.99498
3.99498
3.99498
3.99498
3.99498
3.99498
3.99498
3.99498
3.99498
3.99498
3.99498
3.99498
3.99498
3.99498
3.99498
3.99498
3.99498
3.99498
3.99498
3.99498
3.99498
3.99498
3.99498
3.99497
3.99497
3.99497
3.99497
3.99496
3.99496
3.99495
3.99493
3.99492
3.99489
3.99485
3.99498
3.99498
3.99498
3.99498
3.99498
3.99498
3.99498
3.99498
3.99498
3.99498
3.99498
3.99498
3.99498
3.99498
3.99498
3.99498
3.99498
3.99498
3.99498
3.99498
3.99498
3.99498
3.99498
3.99498
3.99498
3.99497
3.99497
3.99497
3.99497
3.99497
3.99496
3.99496
3.99495
3.99494
3.99492
3.99489
3.99485
3.9948
3.99472
3.9946
3.99498
3.99498
3.99498
3.99498
3.99498
3.99498
3.99498
3.99498
3.99498
3.99498
3.99498
3.99498
3.99498
3.99498
3.99498
3.99498
3.99498
3.99498
3.99498
3.99498
3.99498
3.99498
3.99497
3.99497
3.99497
3.99497
3.99497
3.99496
3.99496
3.99495
3.99494
3.99492
3.99489
3.99486
3.99481
3.99473
3.99463
3.99448
3.99426
3.99393
3.99498
3.99498
3.99498
3.99498
3.99498
3.99498
3.99498
3.99498
3.99498
3.99498
3.99498
3.99498
3.99498
3.99498
3.99498
3.99498
3.99498
3.99498
3.99498
3.99497
3.99497
3.99497
3.99497
3.99497
3.99496
3.99496
3.99495
3.99493
3.99492
3.99489
3.99486
3.99481
3.99474
3.99464
3.9945
3.9943
3.99401
3.99359
3.99299
3.99211
3.99498
3.99498
3.99498
3.99498
3.99498
3.99498
3.99498
3.99498
3.99498
3.99498
3.99498
3.99498
3.99498
3.99498
3.99498
3.99498
3.99497
3.99497
3.99497
3.99497
3.99497
3.99496
3.99495
3.99495
3.99493
3.99492
3.99489
3.99486
3.99481
3.99474
3.99464
3.99451
3.99432
3.99405
3.99366
3.99311
3.99233
3.99121
3.98959
3.98726
3.99498
3.99498
3.99498
3.99498
3.99498
3.99498
3.99498
3.99498
3.99498
3.99498
3.99498
3.99498
3.99497
3.99497
3.99497
3.99497
3.99497
3.99496
3.99496
3.99495
3.99494
3.99493
3.99491
3.99489
3.99485
3.99481
3.99474
3.99464
3.99451
3.99433
3.99406
3.9937
3.99318
3.99245
3.99141
3.98995
3.98787
3.98491
3.98067
3.97463
3.99498
3.99498
3.99498
3.99498
3.99498
3.99498
3.99498
3.99498
3.99498
3.99498
3.99497
3.99497
3.99497
3.99497
3.99497
3.99496
3.99496
3.99495
3.99494
3.99493
3.99491
3.99488
3.99485
3.9948
3.99473
3.99464
3.99451
3.99432
3.99407
3.99371
3.99321
3.99252
3.99154
3.99016
3.98823
3.98551
3.98169
3.97629
3.96869
3.95788
3.94273
3.99498
3.99498
3.99498
3.99498
3.99498
3.99498
3.99497
3.99497
3.99497
3.99497
3.99497
3.99497
3.99496
3.99496
3.99495
3.99494
3.99492
3.9949
3.99488
3.99484
3.99479
3.99472
3.99463
3.99449
3.99431
3.99406
3.99371
3.99322
3.99254
3.9916
3.99029
3.98846
3.98591
3.98234
3.97735
3.97039
3.96066
3.94711
3.92829
3.90206
3.86623
3.99498
3.99498
3.99498
3.99498
3.99497
3.99497
3.99497
3.99497
3.99497
3.99496
3.99496
3.99495
3.99494
3.99493
3.99492
3.9949
3.99487
3.99483
3.99478
3.99471
3.99461
3.99447
3.99429
3.99403
3.99368
3.9932
3.99253
3.99161
3.99034
3.98858
3.98613
3.98275
3.97805
3.97154
3.96253
3.95006
3.93286
3.90925
3.87704
3.83359
3.77526
3.69951
3.99498
3.99497
3.99497
3.99497
3.99497
3.99497
3.99497
3.99496
3.99496
3.99495
3.99494
3.99493
3.99491
3.99489
3.99486
3.99482
3.99476
3.99468
3.99458
3.99444
3.99425
3.99399
3.99363
3.99315
3.99248
3.99156
3.99031
3.98859
3.98621
3.98295
3.97846
3.97227
3.96377
3.95209
3.93609
3.91426
3.88468
3.84493
3.79216
3.72318
3.63507
3.52449
3.39238
3.99497
3.99497
3.99497
3.99496
3.99496
3.99495
3.99495
3.99493
3.99492
3.9949
3.99488
3.99484
3.9948
3.99474
3.99466
3.99455
3.9944
3.9942
3.99393
3.99356
3.99306
3.99239
3.99146
3.99021
3.98849
3.98616
3.98296
3.97859
3.97263
3.96448
3.95336
3.93824
3.91774
3.89012
3.85318
3.80434
3.7407
3.65937
3.55789
3.43477
3.29054
3.12639
2.95015
3.99496
3.99496
3.99496
3.99495
3.99494
3.99493
3.99491
3.99489
3.99486
3.99483
3.99478
3.99471
3.99462
3.9945
3.99435
3.99413
3.99385
3.99346
3.99295
3.99225
3.9913
3.99003
3.9883
3.98596
3.98278
3.97847
3.97263
3.9647
3.95397
3.93946
3.91992
3.89375
3.85894
3.81312
3.75359
3.67763
3.58283
3.4676
3.33181
3.17735
3.00787
2.82918
2.64541
2.46786
3.99495
3.99494
3.99493
3.99492
3.9949
3.99488
3.99484
3.9948
3.99475
3.99467
3.99458
3.99445
3.99428
3.99405
3.99374
3.99334
3.99279
3.99206
3.99108
3.98976
3.98799
3.98561
3.98241
3.9781
3.97228
3.96446
3.95394
3.93982
3.92093
3.89578
3.86253
3.81897
3.76263
3.6909
3.60146
3.49266
3.36404
3.21688
3.05442
2.8813
2.70332
2.52671
2.35867
2.20397
2.07107
3.99492
3.99491
3.99489
3.99486
3.99482
3.99477
3.99471
3.99463
3.99452
3.99438
3.99419
3.99394
3.99361
3.99317
3.99259
3.99181
3.99078
3.9894
3.98757
3.98511
3.98183
3.97745
3.97159
3.96375
3.95329
3.93934
3.92082
3.89632
3.86413
3.8222
3.76822
3.69975
3.61457
3.51101
3.38844
3.2477
3.09143
2.92383
2.74997
2.57565
2.40706
2.25041
2.1117
1.99654
1.90601
1.83949
3.99489
3.99487
3.99483
3.99479
3.99474
3.99466
3.99457
3.99445
3.99429
3.99408
3.9938
3.99344
3.99296
3.99233
3.99149
3.99039
3.98893
3.987
3.98443
3.98103
3.97651
3.97051
3.96255
3.952
3.93804
3.91962
3.89543
3.86386
3.82298
3.77064
3.70457
3.62265
3.52326
3.40567
3.27046
3.11979
2.95738
2.78784
2.61639
2.44862
2.29028
2.14703
2.02428
1.92562
1.85115
1.79842
1.76244
1.73864
3.99475
3.99469
3.99461
3.9945
3.99436
3.99417
3.99394
3.99363
3.99322
3.99269
3.992
3.99109
3.98989
3.98832
3.98626
3.98354
3.97996
3.97524
3.96901
3.96082
3.95003
3.93586
3.9173
3.8931
3.86173
3.82139
3.77005
3.70559
3.62602
3.52981
3.41621
3.28563
3.1399
2.98227
2.81705
2.6489
2.48291
2.32435
2.17841
2.05028
1.9442
1.86179
1.80151
1.75974
1.73197
1.71423
1.70328
1.69659
3.99463
3.99453
3.9944
3.99424
3.99403
3.99376
3.99341
3.99295
3.99235
3.99158
3.99058
3.98927
3.98756
3.98532
3.9824
3.97858
3.97358
3.96704
3.95848
3.94731
3.93273
3.91379
3.88927
3.85771
3.8174
3.76646
3.7029
3.62487
3.53094
3.4204
3.29359
3.15208
2.99879
2.83768
2.67307
2.50952
2.35182
2.20479
2.07319
1.96146
1.87218
1.80507
1.75732
1.72493
1.70382
1.69057
1.68266
1.6782
1.67625
1.67555
3.99409
3.99384
3.99353
3.99312
3.9926
3.99193
3.99106
3.98993
3.98847
3.98659
3.98414
3.98096
3.97683
3.97146
3.96449
3.95545
3.94372
3.92854
3.90896
3.8838
3.85166
3.81094
3.75983
3.6965
3.61925
3.52677
3.41844
3.29457
3.1566
3.00717
2.8499
2.68887
2.5282
2.37221
2.22532
2.09187
1.97618
1.88143
1.80834
1.75506
1.7181
1.69354
1.67782
1.66816
1.66265
1.65995
1.65909
1.65933
1.66051
1.66173
3.99276
3.99216
3.99138
3.99039
3.98911
3.98747
3.98536
3.98264
3.97914
3.97462
3.96879
3.96127
3.95159
3.93912
3.92312
3.90263
3.87651
3.84341
3.80179
3.74998
3.68627
3.60909
3.5173
3.41039
3.28871
3.15362
3.00755
2.85386
2.69638
2.53884
2.38517
2.23938
2.10544
1.98735
1.88856
1.81056
1.75237
1.71114
1.68319
1.66499
1.65362
1.64692
1.64336
1.64192
1.64189
1.64306
1.64425
1.64614
1.64856
1.65098
3.98954
3.98807
3.9862
3.98381
3.98076
3.97685
3.97184
3.96543
3.95722
3.94672
3.93332
3.91624
3.89455
3.86713
3.83267
3.7897
3.73665
3.67195
3.5942
3.50241
3.39622
3.27605
3.14324
3.00008
2.84969
2.69562
2.54139
2.39051
2.24657
2.11322
1.99412
1.89269
1.81095
1.74868
1.70364
1.67254
1.65192
1.63882
1.63086
1.62651
1.62458
1.62426
1.62497
1.62649
1.62809
1.63045
1.63305
1.63574
1.63852
1.64143
3.98185
3.97838
3.97396
3.96834
3.96121
3.95214
3.94063
3.92605
3.90762
3.88442
3.85532
3.81907
3.77427
3.71945
3.65319
3.57426
3.48185
3.37575
3.25651
3.12545
2.9848
2.83745
2.68674
2.53593
2.38816
2.24669
2.11481
1.99584
1.89306
1.80879
1.74336
1.69516
1.66127
1.63844
1.62366
1.61456
1.60937
1.60688
1.60615
1.60668
1.60809
1.60977
1.61196
1.61467
1.61741
1.62029
1.62328
1.62638
1.62945
1.63244
3.96394
3.9559
3.94577
3.93302
3.91699
3.89689
3.8718
3.84062
3.80213
3.75501
3.69791
3.62954
3.54886
3.45525
3.34872
3.2299
3.10019
2.96171
2.81722
2.6698
2.5225
2.37813
2.23963
2.10994
1.99208
1.88912
1.80346
1.73587
1.68523
1.64904
1.62427
1.608
1.59782
1.59183
1.58882
1.58779
1.58813
1.58929
1.59124
1.59317
1.59583
1.59871
1.60164
1.60465
1.60788
1.6111
1.61429
1.61745
1.62059
1.6236
3.9235
3.9057
3.88358
3.8562
3.82249
3.78127
3.73132
3.67141
3.6004
3.51746
3.42219
3.31477
3.196
3.06731
2.93078
2.78903
2.64491
2.50122
2.3605
2.22537
2.09849
1.98258
1.88044
1.79447
1.72572
1.67344
1.63552
1.60921
1.59168
1.58053
1.57386
1.57034
1.56905
1.56912
1.57025
1.57198
1.57413
1.57665
1.5797
1.58266
1.58576
1.58899
1.59234
1.59564
1.59896
1.60225
1.6055
1.60869
1.61186
1.61491
3.83694
3.80021
3.75577
3.70247
3.63922
3.56509
3.47945
3.38213
3.27351
3.15452
3.02667
2.89197
2.75293
2.61215
2.47221
2.33539
2.20401
2.08046
1.9672
1.86677
1.78149
1.71252
1.65943
1.62043
1.59302
1.57452
1.5626
1.55538
1.55145
1.54985
1.54979
1.55077
1.55254
1.55484
1.55716
1.56015
1.56329
1.56648
1.56972
1.57318
1.57664
1.58007
1.5835
1.58689
1.59025
1.59357
1.59686
1.60009
1.6033
1.6064
3.66757
3.60052
3.52284
3.43414
3.33449
3.22448
3.10517
2.97809
2.84524
2.70897
2.57167
2.43566
2.30299
2.17572
2.05598
1.94597
1.84802
1.7643
1.69602
1.64293
1.60351
1.57549
1.55638
1.54392
1.53629
1.53202
1.5302
1.53006
1.53099
1.53266
1.53495
1.53743
1.54037
1.54368
1.54688
1.55021
1.5537
1.55727
1.5608
1.56436
1.5679
1.5714
1.57487
1.5783
1.5817
1.58507
1.5884
1.59168
1.59494
1.59808
3.38078
3.27868
3.16725
3.04766
2.92145
2.79058
2.65726
2.52364
2.3918
2.26355
2.14072
2.02521
1.919
1.82421
1.74285
1.67608
1.62377
1.58459
1.55647
1.53712
1.52439
1.5165
1.51205
1.51008
1.50989
1.51075
1.51241
1.51471
1.51736
1.5202
1.52357
1.52693
1.53035
1.53385
1.53754
1.54121
1.54488
1.54854
1.55217
1.55577
1.55935
1.5629
1.56641
1.5699
1.57335
1.57677
1.58014
1.58347
1.58677
1.58995
2.98175
2.85667
2.72805
2.59795
2.46829
2.3409
2.21736
2.0993
1.98842
1.8865
1.79548
1.71719
1.65268
1.60187
1.56355
1.53586
1.51667
1.50393
1.49599
1.4915
1.48947
1.48925
1.49012
1.49179
1.49416
1.49698
1.49971
1.50312
1.50666
1.51015
1.51371
1.51747
1.52126
1.52502
1.52881
1.53258
1.53632
1.54003
1.54372
1.54737
1.551
1.5546
1.55816
1.5617
1.5652
1.56867
1.57209
1.57546
1.5788
1.58203
2.53131
2.40595
2.28333
2.16481
2.05185
1.94598
1.8488
1.76209
1.68748
1.62591
1.57725
1.54039
1.51361
1.49494
1.48249
1.47471
1.47032
1.46833
1.46814
1.46911
1.47084
1.47321
1.47601
1.47904
1.48239
1.48609
1.48963
1.49329
1.49709
1.50099
1.50485
1.50875
1.51264
1.5165
1.52034
1.52416
1.52796
1.53172
1.53546
1.53917
1.54286
1.54651
1.55013
1.55372
1.55727
1.56078
1.56425
1.56766
1.57104
1.5743
2.10633
1.99882
1.89831
1.80629
1.72438
1.65401
1.59597
1.55003
1.51515
1.48973
1.47195
1.46006
1.45262
1.44847
1.44663
1.44656
1.44767
1.44948
1.45189
1.45475
1.45797
1.4613
1.46509
1.46881
1.47255
1.47638
1.48039
1.48438
1.48838
1.49239
1.49636
1.50032
1.50426
1.50818
1.51208
1.51595
1.5198
1.52363
1.52743
1.5312
1.53493
1.53864
1.54231
1.54595
1.54955
1.5531
1.55661
1.56006
1.56348
1.56677
1.75946
1.68279
1.61717
1.56315
1.52044
1.48799
1.4643
1.44772
1.43664
1.42975
1.42597
1.42439
1.42449
1.42577
1.42768
1.4302
1.43318
1.43655
1.4399
1.44374
1.44763
1.45147
1.45537
1.45947
1.46358
1.46767
1.47179
1.4759
1.47998
1.48405
1.48809
1.4921
1.4961
1.50008
1.50404
1.50797
1.51188
1.51576
1.51961
1.52344
1.52723
1.53099
1.53471
1.5384
1.54204
1.54563
1.54918
1.55267
1.55612
1.55944
1.52784
1.48875
1.4591
1.43748
1.42237
1.41231
1.40611
1.40283
1.40161
1.40196
1.40346
1.40551
1.40814
1.41128
1.41465
1.41826
1.42212
1.42617
1.4301
1.43409
1.43826
1.44248
1.44666
1.45089
1.45511
1.45931
1.46349
1.46766
1.4718
1.47593
1.48003
1.48411
1.48816
1.4922
1.49622
1.50021
1.50418
1.50812
1.51203
1.5159
1.51975
1.52356
1.52733
1.53105
1.53474
1.53837
1.54196
1.54548
1.54895
1.55231
1.42875
1.40943
1.396
1.38713
1.38178
1.37911
1.37832
1.37897
1.38073
1.38297
1.38573
1.38903
1.39251
1.3963
1.4002
1.40436
1.40843
1.41252
1.41676
1.42108
1.42538
1.42971
1.43404
1.43834
1.44263
1.44691
1.45117
1.45542
1.45964
1.46385
1.46803
1.4722
1.47634
1.48046
1.48456
1.48863
1.49268
1.49671
1.5007
1.50466
1.50859
1.51248
1.51634
1.52015
1.52392
1.52765
1.53132
1.53494
1.53849
1.54199
1.54537
1.36122
1.35683
1.35484
1.35454
1.35557
1.3576
1.36006
1.36298
1.36643
1.37007
1.37401
1.37801
1.38227
1.38648
1.39066
1.39496
1.39938
1.40379
1.40822
1.41266
1.41708
1.42149
1.42588
1.43025
1.4346
1.43894
1.44326
1.44757
1.45186
1.45613
1.46037
1.4646
1.4688
1.47299
1.47714
1.48127
1.48538
1.48946
1.4935
1.49752
1.50149
1.50543
1.50933
1.51319
1.517
1.52076
1.52447
1.52812
1.5317
1.53522
1.53863
1.33008
1.33033
1.33177
1.33409
1.33679
1.3399
1.3435
1.34731
1.35134
1.35555
1.35991
1.36423
1.36852
1.37289
1.37742
1.38194
1.38646
1.391
1.39553
1.40004
1.40455
1.40903
1.4135
1.41796
1.42239
1.42681
1.43121
1.43559
1.43996
1.44431
1.44864
1.45295
1.45724
1.4615
1.46574
1.46995
1.47414
1.4783
1.48243
1.48653
1.49059
1.49461
1.4986
1.50254
1.50644
1.51029
1.51408
1.51782
1.5215
1.5251
1.52865
1.53207
1.31024
1.31317
1.31649
1.32027
1.32426
1.32841
1.33279
1.33725
1.34167
1.34609
1.35055
1.3552
1.35981
1.36442
1.36907
1.37371
1.37833
1.38294
1.38753
1.39211
1.39667
1.40122
1.40575
1.41027
1.41477
1.41925
1.42371
1.42816
1.43259
1.437
1.44139
1.44576
1.45011
1.45443
1.45872
1.46299
1.46723
1.47144
1.47562
1.47977
1.48388
1.48794
1.49197
1.49595
1.49989
1.50377
1.5076
1.51137
1.51507
1.5187
1.52226
1.5257
1.29676
1.30092
1.30522
1.30973
1.31433
1.31885
1.3234
1.32797
1.3327
1.33742
1.34213
1.34688
1.35162
1.35635
1.36106
1.36576
1.37045
1.37512
1.37977
1.38441
1.38904
1.39365
1.39824
1.40282
1.40738
1.41193
1.41645
1.42096
1.42545
1.42992
1.43437
1.4388
1.4432
1.44758
1.45193
1.45625
1.46054
1.4648
1.46903
1.47322
1.47737
1.48148
1.48555
1.48957
1.49354
1.49746
1.50131
1.50511
1.50883
1.51248
1.51606
1.51951
1.2864
1.29115
1.29579
1.30044
1.30514
1.30996
1.31478
1.31959
1.32444
1.32928
1.3341
1.33892
1.34373
1.34852
1.3533
1.35806
1.3628
1.36753
1.37225
1.37695
1.38164
1.38632
1.39097
1.39561
1.40024
1.40484
1.40943
1.414
1.41855
1.42307
1.42758
1.43206
1.43652
1.44095
1.44535
1.44972
1.45406
1.45837
1.46265
1.46688
1.47108
1.47523
1.47933
1.48339
1.48739
1.49134
1.49522
1.49904
1.50278
1.50645
1.51004
1.5135
1.27724
1.28206
1.28698
1.2919
1.29681
1.30176
1.3067
1.31162
1.31654
1.32144
1.32633
1.33121
1.33608
1.34093
1.34577
1.35059
1.3554
1.36019
1.36497
1.36974
1.37449
1.37922
1.38394
1.38864
1.39332
1.39799
1.40263
1.40726
1.41187
1.41645
1.42101
1.42554
1.43005
1.43454
1.43899
1.44341
1.4478
1.45215
1.45647
1.46075
1.46498
1.46917
1.47331
1.4774
1.48144
1.48541
1.48932
1.49315
1.49692
1.50059
1.50419
1.50766
1.26878
1.2738
1.27884
1.28387
1.2889
1.29392
1.29892
1.30391
1.30889
1.31385
1.3188
1.32374
1.32867
1.33358
1.33848
1.34336
1.34823
1.35309
1.35793
1.36276
1.36757
1.37236
1.37714
1.3819
1.38664
1.39136
1.39606
1.40075
1.40541
1.41004
1.41466
1.41924
1.42381
1.42834
1.43284
1.43731
1.44174
1.44614
1.4505
1.45482
1.45909
1.46331
1.46749
1.47161
1.47567
1.47966
1.48359
1.48745
1.49122
1.49491
1.49852
1.50198
1.26083
1.26595
1.27107
1.27616
1.28125
1.28633
1.29139
1.29644
1.30148
1.3065
1.31152
1.31651
1.3215
1.32647
1.33143
1.33638
1.34131
1.34622
1.35112
1.35601
1.36088
1.36573
1.37057
1.37538
1.38018
1.38496
1.38972
1.39445
1.39916
1.40385
1.40852
1.41316
1.41777
1.42235
1.42689
1.43141
1.43589
1.44033
1.44472
1.44908
1.45339
1.45765
1.46185
1.466
1.47008
1.4741
1.47805
1.48191
1.4857
1.48939
1.493
1.49647
1.25837
1.26354
1.2687
1.27385
1.27898
1.28411
1.28921
1.29431
1.2994
1.30447
1.30953
1.31457
1.3196
1.32462
1.32962
1.33461
1.33959
1.34455
1.34949
1.35441
1.35932
1.36421
1.36909
1.37394
1.37877
1.38358
1.38837
1.39314
1.39788
1.40259
1.40728
1.41193
1.41656
1.42115
1.42571
1.43023
1.43471
1.43914
1.44353
1.44787
1.45216
1.4564
1.46057
1.46467
1.46871
1.47267
1.47655
1.48034
1.48404
1.48764
1.4911
1.25103
1.25626
1.26148
1.26669
1.27188
1.27706
1.28223
1.28738
1.29252
1.29765
1.30277
1.30787
1.31296
1.31804
1.3231
1.32815
1.33318
1.33819
1.34319
1.34817
1.35313
1.35808
1.36301
1.36791
1.3728
1.37766
1.3825
1.38731
1.3921
1.39686
1.4016
1.4063
1.41097
1.4156
1.4202
1.42476
1.42928
1.43375
1.43817
1.44254
1.44686
1.45112
1.45531
1.45943
1.46348
1.46746
1.47134
1.47514
1.47883
1.48243
1.48587
1.24394
1.24923
1.2545
1.25976
1.26501
1.27025
1.27547
1.28069
1.28589
1.29107
1.29625
1.30141
1.30655
1.31168
1.3168
1.3219
1.32699
1.33206
1.33711
1.34214
1.34716
1.35216
1.35714
1.36209
1.36703
1.37194
1.37683
1.38169
1.38653
1.39134
1.39611
1.40086
1.40557
1.41024
1.41488
1.41948
1.42403
1.42853
1.43299
1.43738
1.44173
1.44601
1.45022
1.45436
1.45842
1.4624
1.46629
1.47008
1.47376
1.47735
1.48078
1.24242
1.24775
1.25307
1.25838
1.26367
1.26895
1.27422
1.27947
1.28472
1.28994
1.29516
1.30036
1.30554
1.31072
1.31587
1.32101
1.32613
1.33124
1.33632
1.34139
1.34644
1.35147
1.35648
1.36146
1.36642
1.37136
1.37627
1.38115
1.386
1.39082
1.39561
1.40036
1.40507
1.40974
1.41437
1.41896
1.42349
1.42797
1.4324
1.43676
1.44106
1.44528
1.44943
1.4535
1.45749
1.46137
1.46516
1.46883
1.4724
1.47581
1.23585
1.24124
1.24661
1.25197
1.25732
1.26265
1.26797
1.27328
1.27858
1.28386
1.28913
1.29438
1.29962
1.30484
1.31005
1.31524
1.32042
1.32557
1.33071
1.33583
1.34093
1.346
1.35106
1.35609
1.3611
1.36608
1.37103
1.37596
1.38085
1.38571
1.39054
1.39533
1.40007
1.40478
1.40944
1.41406
1.41862
1.42312
1.42757
1.43195
1.43626
1.4405
1.44466
1.44873
1.45271
1.45659
1.46037
1.46403
1.46757
1.47095
1.2295
1.23494
1.24037
1.24578
1.25118
1.25657
1.26194
1.26731
1.27265
1.27799
1.28331
1.28861
1.2939
1.29918
1.30444
1.30968
1.3149
1.32011
1.32529
1.33046
1.33561
1.34073
1.34583
1.35091
1.35596
1.36099
1.36598
1.37095
1.37588
1.38078
1.38564
1.39047
1.39525
1.39999
1.40468
1.40932
1.4139
1.41843
1.42289
1.42729
1.43161
1.43586
1.44002
1.44409
1.44806
1.45193
1.45569
1.45933
1.46284
1.46619
1.22338
1.22887
1.23434
1.23981
1.24526
1.2507
1.25613
1.26154
1.26694
1.27232
1.27769
1.28305
1.28839
1.29371
1.29902
1.30431
1.30958
1.31484
1.32007
1.32528
1.33048
1.33565
1.34079
1.34591
1.35101
1.35607
1.36111
1.36611
1.37108
1.37602
1.38092
1.38577
1.39058
1.39535
1.40007
1.40473
1.40933
1.41388
1.41836
1.42276
1.42709
1.43134
1.4355
1.43957
1.44353
1.44739
1.45113
1.45473
1.45821
1.46152
1.21746
1.223
1.22853
1.23404
1.23955
1.24504
1.25051
1.25597
1.26142
1.26686
1.27228
1.27768
1.28307
1.28844
1.2938
1.29913
1.30445
1.30975
1.31503
1.32029
1.32553
1.33074
1.33593
1.34109
1.34623
1.35133
1.35641
1.36145
1.36645
1.37142
1.37635
1.38123
1.38607
1.39087
1.3956
1.40029
1.40491
1.40947
1.41395
1.41837
1.4227
1.42695
1.4311
1.43516
1.43911
1.44294
1.44665
1.45022
1.45366
1.45692
1.21175
1.21734
1.22292
1.22848
1.23403
1.23957
1.2451
1.25061
1.2561
1.26159
1.26705
1.2725
1.27794
1.28336
1.28876
1.29414
1.29951
1.30485
1.31018
1.31548
1.32076
1.32601
1.33124
1.33644
1.34161
1.34675
1.35186
1.35694
1.36198
1.36698
1.37193
1.37685
1.38171
1.38652
1.39128
1.39598
1.40061
1.40518
1.40968
1.41409
1.41842
1.42266
1.42681
1.43085
1.43477
1.43858
1.44226
1.44579
1.44918
1.45239
1.20624
1.21188
1.2175
1.22312
1.22871
1.2343
1.23987
1.24543
1.25097
1.2565
1.26201
1.26751
1.27299
1.27846
1.2839
1.28933
1.29474
1.30012
1.30549
1.31083
1.31615
1.32144
1.32671
1.33195
1.33716
1.34233
1.34748
1.35258
1.35765
1.36268
1.36766
1.37259
1.37748
1.38231
1.38708
1.39179
1.39644
1.40101
1.40551
1.40992
1.41425
1.41848
1.4226
1.42662
1.43052
1.43429
1.43793
1.44142
1.44476
1.4479
1.20661
1.21228
1.21794
1.22358
1.22922
1.23483
1.24044
1.24603
1.2516
1.25716
1.2627
1.26822
1.27373
1.27922
1.28469
1.29013
1.29556
1.30097
1.30635
1.31171
1.31704
1.32234
1.32761
1.33285
1.33806
1.34323
1.34837
1.35346
1.35851
1.36352
1.36847
1.37338
1.37822
1.38301
1.38772
1.39237
1.39695
1.40144
1.40585
1.41016
1.41437
1.41848
1.42247
1.42633
1.43006
1.43365
1.43709
1.44037
1.44344
1.20153
1.20725
1.21295
1.21864
1.22431
1.22997
1.23562
1.24125
1.24687
1.25247
1.25805
1.26362
1.26917
1.2747
1.28021
1.28569
1.29116
1.2966
1.30202
1.30741
1.31278
1.31811
1.32342
1.32869
1.33393
1.33913
1.34429
1.3494
1.35448
1.3595
1.36447
1.36939
1.37424
1.37903
1.38376
1.38841
1.39298
1.39746
1.40185
1.40615
1.41034
1.41442
1.41837
1.4222
1.42588
1.42942
1.43279
1.436
1.439
1.19663
1.20239
1.20813
1.21386
1.21958
1.22529
1.23098
1.23665
1.24231
1.24795
1.25357
1.25918
1.26477
1.27033
1.27588
1.28141
1.28691
1.29239
1.29784
1.30326
1.30866
1.31403
1.31936
1.32466
1.32992
1.33515
1.34033
1.34546
1.35055
1.35559
1.36057
1.3655
1.37036
1.37516
1.37988
1.38452
1.38908
1.39356
1.39793
1.4022
1.40637
1.41041
1.41432
1.4181
1.42173
1.42521
1.42851
1.43164
1.43456
1.1977
1.20349
1.20926
1.21502
1.22076
1.22649
1.23221
1.2379
1.24359
1.24925
1.25489
1.26052
1.26612
1.2717
1.27726
1.2828
1.28831
1.29379
1.29925
1.30468
1.31007
1.31543
1.32075
1.32604
1.33128
1.33648
1.34163
1.34674
1.35178
1.35677
1.3617
1.36657
1.37136
1.37608
1.38071
1.38526
1.38971
1.39406
1.39831
1.40243
1.40643
1.4103
1.41403
1.41759
1.421
1.42422
1.42727
1.43009
1.19318
1.199
1.20482
1.21061
1.2164
1.22217
1.22792
1.23365
1.23937
1.24507
1.25075
1.25641
1.26205
1.26766
1.27326
1.27882
1.28436
1.28988
1.29536
1.30081
1.30623
1.31161
1.31696
1.32226
1.32752
1.33273
1.3379
1.34301
1.34807
1.35306
1.35799
1.36285
1.36764
1.37234
1.37696
1.38149
1.38591
1.39023
1.39444
1.39852
1.40248
1.40629
1.40995
1.41345
1.41678
1.41992
1.42287
1.42559
1.19467
1.20053
1.20636
1.21218
1.21799
1.22378
1.22955
1.2353
1.24103
1.24674
1.25244
1.25811
1.26375
1.26937
1.27497
1.28054
1.28608
1.29158
1.29706
1.3025
1.3079
1.31326
1.31858
1.32385
1.32908
1.33425
1.33937
1.34442
1.34942
1.35434
1.35919
1.36396
1.36865
1.37325
1.37775
1.38214
1.38643
1.39059
1.39462
1.39852
1.40227
1.40587
1.40929
1.41253
1.41558
1.41843
1.42104
1.19049
1.19638
1.20225
1.20811
1.21395
1.21977
1.22557
1.23136
1.23712
1.24287
1.24859
1.25429
1.25996
1.26561
1.27123
1.27682
1.28238
1.28791
1.2934
1.29886
1.30428
1.30965
1.31498
1.32027
1.3255
1.33067
1.33579
1.34084
1.34583
1.35074
1.35558
1.36033
1.36499
1.36956
1.37403
1.37839
1.38263
1.38674
1.39072
1.39456
1.39824
1.40176
1.4051
1.40825
1.4112
1.41394
1.41643
1.19237
1.19828
1.20417
1.21004
1.21589
1.22172
1.22754
1.23333
1.23911
1.24485
1.25058
1.25628
1.26195
1.26759
1.27321
1.27879
1.28433
1.28984
1.29531
1.30074
1.30612
1.31146
1.31675
1.32198
1.32715
1.33226
1.3373
1.34228
1.34717
1.35199
1.35672
1.36136
1.36589
1.37032
1.37464
1.37883
1.38289
1.3868
1.39057
1.39417
1.39761
1.40085
1.4039
1.40674
1.40937
1.41173
1.18849
1.19443
1.20035
1.20625
1.21213
1.21799
1.22383
1.22965
1.23545
1.24123
1.24697
1.25269
1.25839
1.26405
1.26968
1.27527
1.28083
1.28635
1.29183
1.29727
1.30265
1.30799
1.31328
1.3185
1.32367
1.32877
1.3338
1.33876
1.34363
1.34843
1.35313
1.35773
1.36222
1.36661
1.37087
1.37501
1.379
1.38285
1.38654
1.39006
1.3934
1.39654
1.39949
1.40221
1.4047
1.40693
1.18473
1.19069
1.19664
1.20257
1.20848
1.21437
1.22023
1.22608
1.2319
1.23769
1.24346
1.2492
1.25491
1.26058
1.26623
1.27183
1.2774
1.28293
1.28841
1.29385
1.29923
1.30457
1.30985
1.31507
1.32022
1.32531
1.33032
1.33525
1.3401
1.34486
1.34953
1.35409
1.35854
1.36287
1.36708
1.37115
1.37507
1.37885
1.38245
1.38588
1.38912
1.39215
1.39498
1.39757
1.39993
1.40201
1.18108
1.18707
1.19304
1.19899
1.20492
1.21084
1.21672
1.22259
1.22843
1.23424
1.24002
1.24577
1.2515
1.25718
1.26283
1.26845
1.27402
1.27955
1.28503
1.29047
1.29585
1.30118
1.30645
1.31165
1.31679
1.32186
1.32684
1.33175
1.33657
1.34129
1.34591
1.35043
1.35483
1.3591
1.36324
1.36724
1.37109
1.37477
1.37829
1.38161
1.38474
1.38766
1.39036
1.39282
1.39503
1.39696
1.17752
1.18354
1.18953
1.19551
1.20146
1.20739
1.2133
1.21918
1.22503
1.23085
1.23665
1.24241
1.24814
1.25383
1.25949
1.26511
1.27068
1.27621
1.28169
1.28712
1.29249
1.29781
1.30306
1.30825
1.31336
1.3184
1.32336
1.32823
1.33301
1.33769
1.34227
1.34673
1.35107
1.35527
1.35934
1.36327
1.36703
1.37062
1.37403
1.37725
1.38027
1.38306
1.38562
1.38794
1.39
1.39176
1.17406
1.18009
1.18611
1.1921
1.19807
1.20401
1.20993
1.21582
1.22169
1.22752
1.23333
1.2391
1.24483
1.25053
1.25619
1.2618
1.26737
1.27289
1.27837
1.28378
1.28914
1.29444
1.29967
1.30484
1.30992
1.31493
1.31986
1.32469
1.32942
1.33405
1.33857
1.34297
1.34724
1.35138
1.35537
1.35921
1.36288
1.36637
1.36968
1.37278
1.37567
1.37833
1.38075
1.38291
1.38481
1.38639
1.17067
1.17672
1.18275
1.18876
1.19474
1.20069
1.20662
1.21253
1.2184
1.22424
1.23005
1.23582
1.24156
1.24725
1.25291
1.25852
1.26408
1.26959
1.27505
1.28045
1.28579
1.29107
1.29627
1.30141
1.30646
1.31143
1.31631
1.3211
1.32578
1.33036
1.33481
1.33915
1.34335
1.3474
1.35131
1.35505
1.35862
1.36201
1.3652
1.36818
1.37093
1.37345
1.37572
1.37772
1.37945
1.38085
1.17341
1.17945
1.18547
1.19146
1.19743
1.20336
1.20927
1.21515
1.22099
1.2268
1.23257
1.2383
1.244
1.24964
1.25524
1.26079
1.26629
1.27173
1.27711
1.28242
1.28767
1.29284
1.29794
1.30296
1.30788
1.31272
1.31745
1.32208
1.32659
1.33098
1.33524
1.33936
1.34333
1.34714
1.35079
1.35425
1.35752
1.36058
1.36343
1.36605
1.36842
1.37053
1.37236
1.3739
1.37512
1.17015
1.1762
1.18223
1.18823
1.1942
1.20014
1.20605
1.21192
1.21777
1.22357
1.22934
1.23506
1.24074
1.24637
1.25196
1.25749
1.26296
1.26838
1.27373
1.27902
1.28423
1.28937
1.29443
1.2994
1.30428
1.30906
1.31373
1.31829
1.32274
1.32705
1.33123
1.33526
1.33914
1.34286
1.34639
1.34974
1.35289
1.35582
1.35853
1.361
1.36321
1.36515
1.36681
1.36816
1.36918
1.16693
1.17299
1.17902
1.18502
1.19099
1.19693
1.20284
1.20871
1.21455
1.22034
1.2261
1.23181
1.23748
1.24309
1.24865
1.25416
1.25961
1.265
1.27032
1.27557
1.28075
1.28584
1.29085
1.29577
1.3006
1.30531
1.30992
1.31442
1.31879
1.32302
1.32711
1.33105
1.33483
1.33844
1.34186
1.34508
1.3481
1.3509
1.35346
1.35577
1.35782
1.35958
1.36105
1.36222
1.36303
1.1698
1.17583
1.18183
1.1878
1.19373
1.19963
1.2055
1.21132
1.21711
1.22285
1.22854
1.23419
1.23978
1.24532
1.2508
1.25622
1.26157
1.26686
1.27206
1.2772
1.28224
1.2872
1.29206
1.29682
1.30148
1.30602
1.31043