/*--------------------------------*- C++ -*----------------------------------*\
| =========                 |                                                 |
| \\      /  F ield         | OpenFOAM: The Open Source CFD Toolbox           |
|  \\    /   O peration     | Version:  v1706                                 |
|   \\  /    A nd           | Web:      www.OpenFOAM.com                      |
|    \\/     M anipulation  |                                                 |
\*---------------------------------------------------------------------------*/
FoamFile
{
    version     2.0;
    format      ascii;
    class       volScalarField;
    location    "4e-05";
    object      mu;
}
// * * * * * * * * * * * * * * * * * * * * * * * * * * * * * * * * * * * * * //

dimensions      [1 -1 -1 0 0 0 0];


internalField   nonuniform List<scalar> 
30038
(
1.0351e-05
1.0351e-05
1.0351e-05
1.0351e-05
1.0351e-05
1.0351e-05
1.0351e-05
1.0351e-05
1.0351e-05
1.0351e-05
1.0351e-05
1.0351e-05
1.0351e-05
1.0351e-05
1.0351e-05
1.0351e-05
1.0351e-05
1.0351e-05
1.0351e-05
1.0351e-05
1.0351e-05
1.0351e-05
1.0351e-05
1.0351e-05
1.0351e-05
1.0351e-05
1.0351e-05
1.0351e-05
1.0351e-05
1.0351e-05
1.0351e-05
1.0351e-05
1.0351e-05
1.0351e-05
1.0351e-05
1.0351e-05
1.0351e-05
1.0351e-05
1.0351e-05
1.0351e-05
1.0351e-05
1.0351e-05
1.0351e-05
1.0351e-05
1.0351e-05
1.0351e-05
1.0351e-05
1.0351e-05
1.0351e-05
1.0351e-05
1.0351e-05
1.0351e-05
1.0351e-05
1.0351e-05
1.0351e-05
1.0351e-05
1.0351e-05
1.0351e-05
1.0351e-05
1.0351e-05
1.0351e-05
1.0351e-05
1.0351e-05
1.0351e-05
1.0351e-05
1.0351e-05
1.0351e-05
1.0351e-05
1.0351e-05
1.0351e-05
1.0351e-05
1.0351e-05
1.0351e-05
1.0351e-05
1.0351e-05
1.0351e-05
1.0351e-05
1.0351e-05
1.0351e-05
1.0351e-05
1.0351e-05
1.0351e-05
1.0351e-05
1.0351e-05
1.0351e-05
1.0351e-05
1.0351e-05
1.0351e-05
1.0351e-05
1.0351e-05
1.0351e-05
1.0351e-05
1.0351e-05
1.0351e-05
1.0351e-05
1.0351e-05
1.0351e-05
1.0351e-05
1.0351e-05
1.0351e-05
1.0351e-05
1.0351e-05
1.0351e-05
1.0351e-05
1.0351e-05
1.0351e-05
1.0351e-05
1.0351e-05
1.0351e-05
1.0351e-05
1.0351e-05
1.0351e-05
1.0351e-05
1.0351e-05
1.0351e-05
1.0351e-05
1.0351e-05
1.0351e-05
1.0351e-05
1.0351e-05
1.0351e-05
1.0351e-05
1.0351e-05
1.0351e-05
1.0351e-05
1.0351e-05
1.0351e-05
1.0351e-05
1.0351e-05
1.0351e-05
1.0351e-05
1.0351e-05
1.0351e-05
1.0351e-05
1.0351e-05
1.0351e-05
1.0351e-05
1.0351e-05
1.0351e-05
1.0351e-05
1.0351e-05
1.0351e-05
1.0351e-05
1.0351e-05
1.0351e-05
1.0351e-05
1.0351e-05
1.0351e-05
1.0351e-05
1.0351e-05
1.0351e-05
1.0351e-05
1.0351e-05
1.0351e-05
1.0351e-05
1.0351e-05
1.0351e-05
1.0351e-05
1.0351e-05
1.0351e-05
1.0351e-05
1.0351e-05
1.0351e-05
1.0351e-05
1.0351e-05
1.0351e-05
1.0351e-05
1.0351e-05
1.0351e-05
1.0351e-05
1.0351e-05
1.0351e-05
1.0351e-05
1.0351e-05
1.0351e-05
1.0351e-05
1.0351e-05
1.0351e-05
1.0351e-05
1.0351e-05
1.0351e-05
1.0351e-05
1.0351e-05
1.0351e-05
1.0351e-05
1.0351e-05
1.0351e-05
1.0351e-05
1.0351e-05
1.0351e-05
1.0351e-05
1.0351e-05
1.0351e-05
1.0351e-05
1.0351e-05
1.0351e-05
1.0351e-05
1.0351e-05
1.0351e-05
1.0351e-05
1.0351e-05
1.0351e-05
1.0351e-05
1.0351e-05
1.0351e-05
1.0351e-05
1.0351e-05
1.0351e-05
1.0351e-05
1.0351e-05
1.0351e-05
1.0351e-05
1.0351e-05
1.0351e-05
1.0351e-05
1.0351e-05
1.0351e-05
1.0351e-05
1.0351e-05
1.0351e-05
1.0351e-05
1.0351e-05
1.0351e-05
1.0351e-05
1.0351e-05
1.0351e-05
1.0351e-05
1.0351e-05
1.0351e-05
1.0351e-05
1.0351e-05
1.0351e-05
1.0351e-05
1.0351e-05
1.0351e-05
1.0351e-05
1.0351e-05
1.0351e-05
1.0351e-05
1.0351e-05
1.0351e-05
1.0351e-05
1.0351e-05
1.0351e-05
1.0351e-05
1.0351e-05
1.0351e-05
1.0351e-05
1.0351e-05
1.0351e-05
1.0351e-05
1.0351e-05
1.0351e-05
1.0351e-05
1.0351e-05
1.0351e-05
1.0351e-05
1.0351e-05
1.0351e-05
1.0351e-05
1.0351e-05
1.0351e-05
1.0351e-05
1.0351e-05
1.0351e-05
1.0351e-05
1.0351e-05
1.0351e-05
1.0351e-05
1.0351e-05
1.0351e-05
1.0351e-05
1.0351e-05
1.0351e-05
1.0351e-05
1.0351e-05
1.0351e-05
1.0351e-05
1.0351e-05
1.0351e-05
1.0351e-05
1.0351e-05
1.0351e-05
1.0351e-05
1.0351e-05
1.0351e-05
1.0351e-05
1.0351e-05
1.0351e-05
1.0351e-05
1.0351e-05
1.0351e-05
1.0351e-05
1.0351e-05
1.0351e-05
1.0351e-05
1.0351e-05
1.0351e-05
1.0351e-05
1.0351e-05
1.0351e-05
1.0351e-05
1.0351e-05
1.0351e-05
1.0351e-05
1.0351e-05
1.0351e-05
1.0351e-05
1.0351e-05
1.0351e-05
1.0351e-05
1.0351e-05
1.0351e-05
1.0351e-05
1.0351e-05
1.0351e-05
1.0351e-05
1.0351e-05
1.0351e-05
1.0351e-05
1.0351e-05
1.0351e-05
1.0351e-05
1.0351e-05
1.0351e-05
1.0351e-05
1.0351e-05
1.0351e-05
1.0351e-05
1.0351e-05
1.0351e-05
1.0351e-05
1.0351e-05
1.0351e-05
1.0351e-05
1.0351e-05
1.0351e-05
1.0351e-05
1.0351e-05
1.0351e-05
1.0351e-05
1.0351e-05
1.0351e-05
1.0351e-05
1.0351e-05
1.0351e-05
1.0351e-05
1.0351e-05
1.0351e-05
1.0351e-05
1.0351e-05
1.0351e-05
1.0351e-05
1.0351e-05
1.0351e-05
1.0351e-05
1.0351e-05
1.0351e-05
1.0351e-05
1.0351e-05
1.0351e-05
1.0351e-05
1.0351e-05
1.0351e-05
1.0351e-05
1.0351e-05
1.0351e-05
1.0351e-05
1.0351e-05
1.0351e-05
1.0351e-05
1.0351e-05
1.0351e-05
1.0351e-05
1.0351e-05
1.0351e-05
1.0351e-05
1.0351e-05
1.0351e-05
1.0351e-05
1.0351e-05
1.0351e-05
1.0351e-05
1.0351e-05
1.0351e-05
1.0351e-05
1.0351e-05
1.0351e-05
1.0351e-05
1.0351e-05
1.0351e-05
1.0351e-05
1.0351e-05
1.0351e-05
1.0351e-05
1.0351e-05
1.0351e-05
1.0351e-05
1.0351e-05
1.0351e-05
1.0351e-05
1.0351e-05
1.0351e-05
1.0351e-05
1.0351e-05
1.0351e-05
1.0351e-05
1.0351e-05
1.0351e-05
1.0351e-05
1.0351e-05
1.0351e-05
1.0351e-05
1.0351e-05
1.0351e-05
1.0351e-05
1.0351e-05
1.0351e-05
1.0351e-05
1.0351e-05
1.0351e-05
1.0351e-05
1.0351e-05
1.0351e-05
1.0351e-05
1.0351e-05
1.0351e-05
1.0351e-05
1.0351e-05
1.0351e-05
1.0351e-05
1.0351e-05
1.0351e-05
1.0351e-05
1.0351e-05
1.0351e-05
1.0351e-05
1.0351e-05
1.0351e-05
1.0351e-05
1.0351e-05
1.0351e-05
1.0351e-05
1.0351e-05
1.0351e-05
1.0351e-05
1.0351e-05
1.0351e-05
1.0351e-05
1.0351e-05
1.0351e-05
1.0351e-05
1.0351e-05
1.0351e-05
1.0351e-05
1.0351e-05
1.0351e-05
1.0351e-05
1.03511e-05
1.03511e-05
1.03511e-05
1.0351e-05
1.0351e-05
1.0351e-05
1.0351e-05
1.0351e-05
1.0351e-05
1.0351e-05
1.0351e-05
1.0351e-05
1.0351e-05
1.0351e-05
1.0351e-05
1.0351e-05
1.0351e-05
1.0351e-05
1.0351e-05
1.0351e-05
1.0351e-05
1.0351e-05
1.0351e-05
1.0351e-05
1.0351e-05
1.0351e-05
1.0351e-05
1.0351e-05
1.0351e-05
1.0351e-05
1.0351e-05
1.0351e-05
1.0351e-05
1.0351e-05
1.0351e-05
1.0351e-05
1.0351e-05
1.03511e-05
1.03511e-05
1.03511e-05
1.03512e-05
1.03513e-05
1.03514e-05
1.0351e-05
1.0351e-05
1.0351e-05
1.0351e-05
1.0351e-05
1.0351e-05
1.0351e-05
1.0351e-05
1.0351e-05
1.0351e-05
1.0351e-05
1.0351e-05
1.0351e-05
1.0351e-05
1.0351e-05
1.0351e-05
1.0351e-05
1.0351e-05
1.0351e-05
1.0351e-05
1.0351e-05
1.0351e-05
1.0351e-05
1.0351e-05
1.0351e-05
1.0351e-05
1.0351e-05
1.0351e-05
1.0351e-05
1.0351e-05
1.0351e-05
1.03511e-05
1.03511e-05
1.03511e-05
1.03512e-05
1.03512e-05
1.03514e-05
1.03515e-05
1.03517e-05
1.03521e-05
1.0351e-05
1.0351e-05
1.0351e-05
1.0351e-05
1.0351e-05
1.0351e-05
1.0351e-05
1.0351e-05
1.0351e-05
1.0351e-05
1.0351e-05
1.0351e-05
1.0351e-05
1.0351e-05
1.0351e-05
1.0351e-05
1.0351e-05
1.0351e-05
1.0351e-05
1.0351e-05
1.0351e-05
1.0351e-05
1.0351e-05
1.0351e-05
1.0351e-05
1.0351e-05
1.0351e-05
1.0351e-05
1.03511e-05
1.03511e-05
1.03511e-05
1.03512e-05
1.03512e-05
1.03513e-05
1.03515e-05
1.03517e-05
1.0352e-05
1.03524e-05
1.03531e-05
1.0354e-05
1.0351e-05
1.0351e-05
1.0351e-05
1.0351e-05
1.0351e-05
1.0351e-05
1.0351e-05
1.0351e-05
1.0351e-05
1.0351e-05
1.0351e-05
1.0351e-05
1.0351e-05
1.0351e-05
1.0351e-05
1.0351e-05
1.0351e-05
1.0351e-05
1.0351e-05
1.0351e-05
1.0351e-05
1.0351e-05
1.0351e-05
1.0351e-05
1.0351e-05
1.03511e-05
1.03511e-05
1.03511e-05
1.03512e-05
1.03512e-05
1.03513e-05
1.03515e-05
1.03517e-05
1.0352e-05
1.03524e-05
1.0353e-05
1.03538e-05
1.0355e-05
1.03567e-05
1.03592e-05
1.0351e-05
1.0351e-05
1.0351e-05
1.0351e-05
1.0351e-05
1.0351e-05
1.0351e-05
1.0351e-05
1.0351e-05
1.0351e-05
1.0351e-05
1.0351e-05
1.0351e-05
1.0351e-05
1.0351e-05
1.0351e-05
1.0351e-05
1.0351e-05
1.0351e-05
1.0351e-05
1.0351e-05
1.0351e-05
1.03511e-05
1.03511e-05
1.03511e-05
1.03512e-05
1.03512e-05
1.03513e-05
1.03515e-05
1.03517e-05
1.0352e-05
1.03523e-05
1.03529e-05
1.03537e-05
1.03548e-05
1.03564e-05
1.03586e-05
1.03618e-05
1.03665e-05
1.03732e-05
1.0351e-05
1.0351e-05
1.0351e-05
1.0351e-05
1.0351e-05
1.0351e-05
1.0351e-05
1.0351e-05
1.0351e-05
1.0351e-05
1.0351e-05
1.0351e-05
1.0351e-05
1.0351e-05
1.0351e-05
1.0351e-05
1.0351e-05
1.0351e-05
1.03511e-05
1.03511e-05
1.03511e-05
1.03511e-05
1.03512e-05
1.03513e-05
1.03514e-05
1.03515e-05
1.03517e-05
1.0352e-05
1.03523e-05
1.03529e-05
1.03536e-05
1.03547e-05
1.03562e-05
1.03583e-05
1.03612e-05
1.03655e-05
1.03715e-05
1.038e-05
1.03922e-05
1.04099e-05
1.0351e-05
1.0351e-05
1.0351e-05
1.0351e-05
1.0351e-05
1.0351e-05
1.0351e-05
1.0351e-05
1.0351e-05
1.0351e-05
1.0351e-05
1.0351e-05
1.0351e-05
1.0351e-05
1.0351e-05
1.0351e-05
1.03511e-05
1.03511e-05
1.03511e-05
1.03511e-05
1.03512e-05
1.03513e-05
1.03514e-05
1.03515e-05
1.03517e-05
1.0352e-05
1.03524e-05
1.03529e-05
1.03536e-05
1.03546e-05
1.03561e-05
1.03581e-05
1.03609e-05
1.03648e-05
1.03704e-05
1.03783e-05
1.03893e-05
1.0405e-05
1.04271e-05
1.04585e-05
1.05032e-05
1.0351e-05
1.0351e-05
1.0351e-05
1.0351e-05
1.0351e-05
1.0351e-05
1.0351e-05
1.0351e-05
1.0351e-05
1.0351e-05
1.0351e-05
1.0351e-05
1.0351e-05
1.03511e-05
1.03511e-05
1.03511e-05
1.03512e-05
1.03512e-05
1.03513e-05
1.03514e-05
1.03515e-05
1.03517e-05
1.0352e-05
1.03524e-05
1.03529e-05
1.03536e-05
1.03547e-05
1.03561e-05
1.0358e-05
1.03607e-05
1.03645e-05
1.03698e-05
1.03771e-05
1.03874e-05
1.04019e-05
1.04221e-05
1.04505e-05
1.04901e-05
1.05457e-05
1.06235e-05
1.07321e-05
1.0351e-05
1.0351e-05
1.0351e-05
1.0351e-05
1.0351e-05
1.0351e-05
1.0351e-05
1.0351e-05
1.0351e-05
1.0351e-05
1.03511e-05
1.03511e-05
1.03511e-05
1.03511e-05
1.03512e-05
1.03512e-05
1.03513e-05
1.03514e-05
1.03516e-05
1.03518e-05
1.03521e-05
1.03525e-05
1.0353e-05
1.03537e-05
1.03547e-05
1.03561e-05
1.0358e-05
1.03607e-05
1.03644e-05
1.03694e-05
1.03765e-05
1.03863e-05
1.03999e-05
1.04188e-05
1.0445e-05
1.04815e-05
1.05322e-05
1.06023e-05
1.0699e-05
1.08317e-05
1.10125e-05
1.12565e-05
1.0351e-05
1.0351e-05
1.0351e-05
1.0351e-05
1.0351e-05
1.0351e-05
1.0351e-05
1.0351e-05
1.03511e-05
1.03511e-05
1.03511e-05
1.03511e-05
1.03512e-05
1.03513e-05
1.03513e-05
1.03515e-05
1.03516e-05
1.03518e-05
1.03521e-05
1.03525e-05
1.03531e-05
1.03538e-05
1.03549e-05
1.03563e-05
1.03582e-05
1.03608e-05
1.03644e-05
1.03694e-05
1.03763e-05
1.03857e-05
1.03987e-05
1.04167e-05
1.04414e-05
1.04756e-05
1.05227e-05
1.05874e-05
1.0676e-05
1.07968e-05
1.09603e-05
1.11792e-05
1.14686e-05
1.18445e-05
1.23217e-05
1.0351e-05
1.0351e-05
1.0351e-05
1.0351e-05
1.03511e-05
1.03511e-05
1.03511e-05
1.03511e-05
1.03512e-05
1.03512e-05
1.03513e-05
1.03514e-05
1.03515e-05
1.03517e-05
1.03519e-05
1.03522e-05
1.03527e-05
1.03532e-05
1.0354e-05
1.03551e-05
1.03565e-05
1.03585e-05
1.03611e-05
1.03647e-05
1.03697e-05
1.03764e-05
1.03857e-05
1.03983e-05
1.04157e-05
1.04394e-05
1.04719e-05
1.05164e-05
1.05771e-05
1.06597e-05
1.07717e-05
1.09224e-05
1.11233e-05
1.13878e-05
1.17305e-05
1.21657e-05
1.27053e-05
1.33558e-05
1.41132e-05
1.0351e-05
1.0351e-05
1.03511e-05
1.03511e-05
1.03511e-05
1.03511e-05
1.03512e-05
1.03513e-05
1.03513e-05
1.03514e-05
1.03516e-05
1.03518e-05
1.0352e-05
1.03524e-05
1.03528e-05
1.03534e-05
1.03542e-05
1.03554e-05
1.03568e-05
1.03589e-05
1.03616e-05
1.03653e-05
1.03702e-05
1.0377e-05
1.03862e-05
1.03987e-05
1.04157e-05
1.04388e-05
1.04702e-05
1.05128e-05
1.05707e-05
1.06489e-05
1.07543e-05
1.08953e-05
1.10824e-05
1.1328e-05
1.16454e-05
1.20482e-05
1.2548e-05
1.31518e-05
1.38597e-05
1.46624e-05
1.55387e-05
1.64598e-05
1.03511e-05
1.03511e-05
1.03511e-05
1.03512e-05
1.03512e-05
1.03513e-05
1.03514e-05
1.03515e-05
1.03517e-05
1.03519e-05
1.03522e-05
1.03525e-05
1.0353e-05
1.03537e-05
1.03546e-05
1.03557e-05
1.03573e-05
1.03594e-05
1.03622e-05
1.0366e-05
1.03711e-05
1.0378e-05
1.03873e-05
1.03998e-05
1.04167e-05
1.04395e-05
1.04703e-05
1.05118e-05
1.05678e-05
1.06429e-05
1.07435e-05
1.08773e-05
1.1054e-05
1.12849e-05
1.15825e-05
1.19597e-05
1.24277e-05
1.29946e-05
1.36619e-05
1.44232e-05
1.52612e-05
1.61496e-05
1.70535e-05
1.79256e-05
1.87199e-05
1.03512e-05
1.03512e-05
1.03513e-05
1.03513e-05
1.03515e-05
1.03516e-05
1.03518e-05
1.0352e-05
1.03523e-05
1.03527e-05
1.03533e-05
1.0354e-05
1.03549e-05
1.03562e-05
1.03579e-05
1.03601e-05
1.03631e-05
1.03671e-05
1.03724e-05
1.03795e-05
1.0389e-05
1.04017e-05
1.04187e-05
1.04416e-05
1.04722e-05
1.05133e-05
1.05681e-05
1.06414e-05
1.07387e-05
1.08675e-05
1.10365e-05
1.12563e-05
1.15386e-05
1.18955e-05
1.23379e-05
1.28741e-05
1.35072e-05
1.42331e-05
1.50385e-05
1.59009e-05
1.67897e-05
1.76652e-05
1.8478e-05
1.91815e-05
1.9745e-05
2.01737e-05
1.03512e-05
1.03513e-05
1.03514e-05
1.03515e-05
1.03517e-05
1.03519e-05
1.03522e-05
1.03525e-05
1.0353e-05
1.03536e-05
1.03544e-05
1.03554e-05
1.03568e-05
1.03586e-05
1.0361e-05
1.03642e-05
1.03684e-05
1.0374e-05
1.03814e-05
1.03913e-05
1.04044e-05
1.04219e-05
1.04451e-05
1.0476e-05
1.05172e-05
1.05718e-05
1.06441e-05
1.07397e-05
1.08652e-05
1.10291e-05
1.1241e-05
1.15118e-05
1.18531e-05
1.22752e-05
1.27863e-05
1.33905e-05
1.40854e-05
1.48608e-05
1.56974e-05
1.65691e-05
1.74418e-05
1.82725e-05
1.90136e-05
1.96285e-05
2.01029e-05
2.04469e-05
2.06811e-05
2.08376e-05
1.03516e-05
1.03518e-05
1.03521e-05
1.03524e-05
1.03528e-05
1.03533e-05
1.0354e-05
1.03549e-05
1.03561e-05
1.03576e-05
1.03596e-05
1.03622e-05
1.03657e-05
1.03702e-05
1.03762e-05
1.0384e-05
1.03944e-05
1.04081e-05
1.04263e-05
1.04502e-05
1.04819e-05
1.05236e-05
1.05787e-05
1.06512e-05
1.07463e-05
1.08703e-05
1.10312e-05
1.1238e-05
1.15009e-05
1.18307e-05
1.22373e-05
1.27286e-05
1.3309e-05
1.39774e-05
1.47256e-05
1.55376e-05
1.63901e-05
1.72539e-05
1.80918e-05
1.88595e-05
1.95167e-05
2.00405e-05
2.0431e-05
2.07054e-05
2.08881e-05
2.10049e-05
2.10752e-05
2.11167e-05
1.0352e-05
1.03523e-05
1.03527e-05
1.03531e-05
1.03537e-05
1.03545e-05
1.03555e-05
1.03568e-05
1.03586e-05
1.03608e-05
1.03637e-05
1.03675e-05
1.03724e-05
1.03789e-05
1.03873e-05
1.03984e-05
1.0413e-05
1.0432e-05
1.04571e-05
1.04899e-05
1.05329e-05
1.05893e-05
1.06629e-05
1.07587e-05
1.08828e-05
1.10428e-05
1.1247e-05
1.15052e-05
1.18273e-05
1.22227e-05
1.26989e-05
1.32604e-05
1.39068e-05
1.46314e-05
1.54205e-05
1.62534e-05
1.71045e-05
1.79416e-05
1.8725e-05
1.94139e-05
1.99795e-05
2.04135e-05
2.0727e-05
2.09413e-05
2.10807e-05
2.11672e-05
2.12176e-05
2.12454e-05
2.12587e-05
2.12601e-05
1.03536e-05
1.03543e-05
1.03552e-05
1.03563e-05
1.03578e-05
1.03598e-05
1.03623e-05
1.03656e-05
1.03698e-05
1.03752e-05
1.03823e-05
1.03915e-05
1.04035e-05
1.04192e-05
1.04395e-05
1.0466e-05
1.05005e-05
1.05454e-05
1.06038e-05
1.06795e-05
1.07773e-05
1.09031e-05
1.10641e-05
1.12682e-05
1.15246e-05
1.18424e-05
1.22306e-05
1.26962e-05
1.32433e-05
1.38719e-05
1.45765e-05
1.53451e-05
1.61592e-05
1.69956e-05
1.78265e-05
1.86167e-05
1.93273e-05
1.99259e-05
2.03978e-05
2.07476e-05
2.09927e-05
2.1156e-05
2.12597e-05
2.13218e-05
2.13564e-05
2.1374e-05
2.13785e-05
2.13761e-05
2.13715e-05
2.13627e-05
1.03574e-05
1.03591e-05
1.03614e-05
1.03642e-05
1.03679e-05
1.03727e-05
1.03788e-05
1.03867e-05
1.03968e-05
1.041e-05
1.0427e-05
1.04489e-05
1.04774e-05
1.05141e-05
1.05616e-05
1.06228e-05
1.07016e-05
1.08027e-05
1.09319e-05
1.10957e-05
1.13021e-05
1.15593e-05
1.18762e-05
1.22608e-05
1.27197e-05
1.32567e-05
1.38717e-05
1.45599e-05
1.53106e-05
1.61071e-05
1.69283e-05
1.77494e-05
1.85396e-05
1.92629e-05
1.98859e-05
2.0389e-05
2.07709e-05
2.10449e-05
2.12315e-05
2.13526e-05
2.14271e-05
2.14697e-05
2.14922e-05
2.15007e-05
2.14986e-05
2.1494e-05
2.14858e-05
2.14731e-05
2.14566e-05
2.14382e-05
1.03667e-05
1.03709e-05
1.03763e-05
1.03833e-05
1.03921e-05
1.04035e-05
1.04181e-05
1.04368e-05
1.04609e-05
1.04917e-05
1.05313e-05
1.05821e-05
1.06472e-05
1.07303e-05
1.0836e-05
1.097e-05
1.11387e-05
1.13495e-05
1.16103e-05
1.19293e-05
1.23138e-05
1.27698e-05
1.33005e-05
1.39057e-05
1.4581e-05
1.53165e-05
1.6097e-05
1.6903e-05
1.77122e-05
1.84973e-05
1.92259e-05
1.98651e-05
2.03921e-05
2.08008e-05
2.11004e-05
2.13089e-05
2.1447e-05
2.15339e-05
2.15849e-05
2.16125e-05
2.16251e-05
2.16247e-05
2.162e-05
2.16124e-05
2.16006e-05
2.15847e-05
2.1566e-05
2.15452e-05
2.15227e-05
2.15001e-05
1.0389e-05
1.03991e-05
1.04119e-05
1.04283e-05
1.04492e-05
1.04758e-05
1.05097e-05
1.0553e-05
1.0608e-05
1.06779e-05
1.07665e-05
1.08783e-05
1.10189e-05
1.11945e-05
1.1412e-05
1.16791e-05
1.2003e-05
1.23906e-05
1.28471e-05
1.33751e-05
1.3974e-05
1.46395e-05
1.53624e-05
1.61285e-05
1.69198e-05
1.77157e-05
1.84924e-05
1.92203e-05
1.98683e-05
2.0412e-05
2.08417e-05
2.11627e-05
2.13904e-05
2.15441e-05
2.1643e-05
2.17025e-05
2.17354e-05
2.17515e-05
2.1754e-05
2.17492e-05
2.17417e-05
2.17305e-05
2.17153e-05
2.16967e-05
2.16762e-05
2.16536e-05
2.16299e-05
2.16064e-05
2.15836e-05
2.15612e-05
1.04412e-05
1.04648e-05
1.04946e-05
1.05323e-05
1.058e-05
1.06403e-05
1.07163e-05
1.08117e-05
1.09313e-05
1.10803e-05
1.12649e-05
1.14916e-05
1.17674e-05
1.20992e-05
1.24929e-05
1.2953e-05
1.34816e-05
1.40773e-05
1.47358e-05
1.54484e-05
1.62017e-05
1.69788e-05
1.77608e-05
1.85263e-05
1.92487e-05
1.9899e-05
2.04525e-05
2.0897e-05
2.12347e-05
2.14785e-05
2.16459e-05
2.17553e-05
2.18229e-05
2.18611e-05
2.18805e-05
2.18858e-05
2.1882e-05
2.18739e-05
2.18631e-05
2.18486e-05
2.18304e-05
2.18097e-05
2.17871e-05
2.17628e-05
2.17382e-05
2.17142e-05
2.16906e-05
2.16672e-05
2.16444e-05
2.16219e-05
1.05606e-05
1.06139e-05
1.06806e-05
1.0764e-05
1.0868e-05
1.09971e-05
1.11566e-05
1.13523e-05
1.15906e-05
1.18778e-05
1.22201e-05
1.26228e-05
1.30895e-05
1.36214e-05
1.42167e-05
1.48707e-05
1.5575e-05
1.63168e-05
1.70803e-05
1.78478e-05
1.86001e-05
1.93131e-05
1.996e-05
2.05169e-05
2.09701e-05
2.13193e-05
2.15753e-05
2.17538e-05
2.18724e-05
2.1947e-05
2.19901e-05
2.20123e-05
2.20204e-05
2.20176e-05
2.20094e-05
2.19981e-05
2.19843e-05
2.19661e-05
2.19454e-05
2.19232e-05
2.18987e-05
2.18733e-05
2.18482e-05
2.18234e-05
2.17988e-05
2.17747e-05
2.17509e-05
2.17274e-05
2.17044e-05
2.16817e-05
1.08234e-05
1.09377e-05
1.10783e-05
1.12505e-05
1.14598e-05
1.17121e-05
1.20133e-05
1.23689e-05
1.27832e-05
1.3259e-05
1.37967e-05
1.43938e-05
1.50452e-05
1.57428e-05
1.64743e-05
1.72244e-05
1.79768e-05
1.87141e-05
1.94144e-05
2.00533e-05
2.06077e-05
2.10636e-05
2.14191e-05
2.16829e-05
2.18694e-05
2.19952e-05
2.20756e-05
2.21228e-05
2.21479e-05
2.2158e-05
2.2156e-05
2.21478e-05
2.21364e-05
2.21226e-05
2.21048e-05
2.20839e-05
2.20613e-05
2.20368e-05
2.20108e-05
2.19847e-05
2.19591e-05
2.19336e-05
2.19084e-05
2.18835e-05
2.18589e-05
2.18345e-05
2.18104e-05
2.17866e-05
2.17632e-05
2.174e-05
1.13656e-05
1.1591e-05
1.186e-05
1.21778e-05
1.25491e-05
1.29774e-05
1.34645e-05
1.40099e-05
1.46105e-05
1.52609e-05
1.59528e-05
1.66743e-05
1.74111e-05
1.81477e-05
1.88683e-05
1.95532e-05
2.01797e-05
2.07264e-05
2.11794e-05
2.15359e-05
2.18032e-05
2.19944e-05
2.21249e-05
2.22093e-05
2.22597e-05
2.22871e-05
2.22986e-05
2.22974e-05
2.22899e-05
2.22776e-05
2.2263e-05
2.22458e-05
2.22247e-05
2.2202e-05
2.21776e-05
2.21512e-05
2.21242e-05
2.20975e-05
2.20711e-05
2.20447e-05
2.20188e-05
2.19932e-05
2.19678e-05
2.19427e-05
2.19177e-05
2.1893e-05
2.18685e-05
2.18442e-05
2.18204e-05
2.17968e-05
1.23754e-05
1.27647e-05
1.3209e-05
1.37092e-05
1.42638e-05
1.4869e-05
1.55191e-05
1.62058e-05
1.69176e-05
1.76404e-05
1.83604e-05
1.90626e-05
1.97294e-05
2.03397e-05
2.08739e-05
2.13186e-05
2.16711e-05
2.19375e-05
2.21299e-05
2.22624e-05
2.23491e-05
2.24015e-05
2.24302e-05
2.24426e-05
2.24419e-05
2.24348e-05
2.24218e-05
2.24066e-05
2.23894e-05
2.2368e-05
2.23448e-05
2.23203e-05
2.22938e-05
2.22661e-05
2.22386e-05
2.22113e-05
2.2184e-05
2.2157e-05
2.21304e-05
2.2104e-05
2.20778e-05
2.20518e-05
2.2026e-05
2.20004e-05
2.1975e-05
2.19499e-05
2.1925e-05
2.19003e-05
2.1876e-05
2.1852e-05
1.39968e-05
1.45613e-05
1.51716e-05
1.58216e-05
1.6503e-05
1.72043e-05
1.79123e-05
1.86142e-05
1.92963e-05
1.99423e-05
2.05329e-05
2.105e-05
2.14816e-05
2.18252e-05
2.20865e-05
2.22765e-05
2.24084e-05
2.24953e-05
2.25484e-05
2.25777e-05
2.25904e-05
2.25899e-05
2.25825e-05
2.2569e-05
2.25531e-05
2.25356e-05
2.2514e-05
2.24902e-05
2.24654e-05
2.24386e-05
2.24104e-05
2.2382e-05
2.23539e-05
2.23258e-05
2.22979e-05
2.22703e-05
2.22429e-05
2.22157e-05
2.21887e-05
2.21619e-05
2.21353e-05
2.21088e-05
2.20826e-05
2.20566e-05
2.20307e-05
2.20051e-05
2.19798e-05
2.19547e-05
2.193e-05
2.19057e-05
1.61698e-05
1.68449e-05
1.75345e-05
1.82263e-05
1.89084e-05
1.95683e-05
2.01908e-05
2.07581e-05
2.1254e-05
2.16681e-05
2.19983e-05
2.22505e-05
2.24347e-05
2.25633e-05
2.26485e-05
2.27006e-05
2.27295e-05
2.2742e-05
2.27411e-05
2.27335e-05
2.27195e-05
2.27024e-05
2.26838e-05
2.26626e-05
2.26382e-05
2.26128e-05
2.25859e-05
2.25571e-05
2.25279e-05
2.24989e-05
2.247e-05
2.24412e-05
2.24126e-05
2.23844e-05
2.23562e-05
2.23283e-05
2.23005e-05
2.22729e-05
2.22455e-05
2.22182e-05
2.21911e-05
2.21642e-05
2.21375e-05
2.2111e-05
2.20847e-05
2.20587e-05
2.2033e-05
2.20075e-05
2.19824e-05
2.19577e-05
1.85814e-05
1.92416e-05
1.98769e-05
2.0473e-05
2.10136e-05
2.14844e-05
2.18768e-05
2.21897e-05
2.2429e-05
2.26043e-05
2.27271e-05
2.28085e-05
2.28585e-05
2.28859e-05
2.28972e-05
2.28957e-05
2.28874e-05
2.28728e-05
2.28544e-05
2.28351e-05
2.28134e-05
2.27883e-05
2.27622e-05
2.27352e-05
2.27061e-05
2.26762e-05
2.26464e-05
2.26166e-05
2.25869e-05
2.25575e-05
2.25283e-05
2.24993e-05
2.24704e-05
2.24417e-05
2.24132e-05
2.23848e-05
2.23565e-05
2.23285e-05
2.23005e-05
2.22728e-05
2.22452e-05
2.22179e-05
2.21907e-05
2.21638e-05
2.21371e-05
2.21106e-05
2.20844e-05
2.20586e-05
2.20331e-05
2.2008e-05
2.07865e-05
2.1297e-05
2.1739e-05
2.21059e-05
2.2398e-05
2.26212e-05
2.27849e-05
2.28995e-05
2.29754e-05
2.30218e-05
2.30468e-05
2.30562e-05
2.30536e-05
2.30443e-05
2.30285e-05
2.30092e-05
2.29889e-05
2.29667e-05
2.29409e-05
2.29141e-05
2.28865e-05
2.2857e-05
2.28264e-05
2.27959e-05
2.27655e-05
2.2735e-05
2.27047e-05
2.26746e-05
2.26447e-05
2.26149e-05
2.25853e-05
2.25559e-05
2.25266e-05
2.24974e-05
2.24684e-05
2.24395e-05
2.24108e-05
2.23822e-05
2.23538e-05
2.23256e-05
2.22976e-05
2.22698e-05
2.22422e-05
2.22148e-05
2.21877e-05
2.21608e-05
2.21342e-05
2.2108e-05
2.20822e-05
2.20567e-05
2.23529e-05
2.26212e-05
2.28257e-05
2.29753e-05
2.308e-05
2.31487e-05
2.31904e-05
2.32121e-05
2.32188e-05
2.32149e-05
2.32041e-05
2.3187e-05
2.31666e-05
2.31454e-05
2.31219e-05
2.30958e-05
2.30682e-05
2.304e-05
2.301e-05
2.29788e-05
2.29476e-05
2.29164e-05
2.28852e-05
2.2854e-05
2.28231e-05
2.27924e-05
2.27617e-05
2.27313e-05
2.2701e-05
2.26708e-05
2.26407e-05
2.26108e-05
2.2581e-05
2.25514e-05
2.25219e-05
2.24925e-05
2.24633e-05
2.24343e-05
2.24054e-05
2.23767e-05
2.23482e-05
2.23199e-05
2.22919e-05
2.22641e-05
2.22365e-05
2.22093e-05
2.21823e-05
2.21557e-05
2.21295e-05
2.21037e-05
2.30405e-05
2.31744e-05
2.32674e-05
2.33278e-05
2.33638e-05
2.33815e-05
2.33848e-05
2.33792e-05
2.33665e-05
2.3348e-05
2.33265e-05
2.33042e-05
2.32796e-05
2.32529e-05
2.32245e-05
2.31953e-05
2.31651e-05
2.31333e-05
2.31013e-05
2.30694e-05
2.30374e-05
2.30054e-05
2.29737e-05
2.29422e-05
2.29107e-05
2.28794e-05
2.28483e-05
2.28173e-05
2.27864e-05
2.27556e-05
2.27249e-05
2.26944e-05
2.2664e-05
2.26337e-05
2.26035e-05
2.25735e-05
2.25437e-05
2.2514e-05
2.24845e-05
2.24551e-05
2.2426e-05
2.23971e-05
2.23683e-05
2.23399e-05
2.23116e-05
2.22837e-05
2.2256e-05
2.22287e-05
2.22017e-05
2.21751e-05
2.21489e-05
2.3512e-05
2.35414e-05
2.35544e-05
2.35539e-05
2.35463e-05
2.35316e-05
2.35114e-05
2.34887e-05
2.34652e-05
2.34394e-05
2.3412e-05
2.33828e-05
2.33528e-05
2.3322e-05
2.32896e-05
2.32568e-05
2.32242e-05
2.31916e-05
2.31589e-05
2.31264e-05
2.30941e-05
2.30618e-05
2.30297e-05
2.29978e-05
2.29659e-05
2.29342e-05
2.29026e-05
2.28711e-05
2.28397e-05
2.28084e-05
2.27772e-05
2.27462e-05
2.27153e-05
2.26845e-05
2.26539e-05
2.26234e-05
2.25931e-05
2.25629e-05
2.25329e-05
2.25031e-05
2.24735e-05
2.24441e-05
2.2415e-05
2.23861e-05
2.23574e-05
2.23291e-05
2.2301e-05
2.22733e-05
2.22459e-05
2.2219e-05
2.21925e-05
2.373e-05
2.37265e-05
2.37159e-05
2.36989e-05
2.36769e-05
2.3653e-05
2.36284e-05
2.36014e-05
2.35728e-05
2.3543e-05
2.35122e-05
2.34806e-05
2.34477e-05
2.34142e-05
2.33809e-05
2.33476e-05
2.33141e-05
2.32809e-05
2.32478e-05
2.32148e-05
2.31819e-05
2.31492e-05
2.31166e-05
2.30841e-05
2.30517e-05
2.30193e-05
2.29871e-05
2.2955e-05
2.2923e-05
2.28911e-05
2.28594e-05
2.28277e-05
2.27962e-05
2.27648e-05
2.27335e-05
2.27024e-05
2.26714e-05
2.26406e-05
2.261e-05
2.25795e-05
2.25493e-05
2.25192e-05
2.24894e-05
2.24598e-05
2.24305e-05
2.24014e-05
2.23726e-05
2.23442e-05
2.23161e-05
2.22883e-05
2.22611e-05
2.22342e-05
2.3868e-05
2.38445e-05
2.38192e-05
2.37933e-05
2.37651e-05
2.37354e-05
2.3705e-05
2.36732e-05
2.36408e-05
2.36074e-05
2.35733e-05
2.35392e-05
2.35053e-05
2.34712e-05
2.34371e-05
2.34034e-05
2.33697e-05
2.3336e-05
2.33026e-05
2.32692e-05
2.32359e-05
2.32027e-05
2.31696e-05
2.31366e-05
2.31037e-05
2.30709e-05
2.30382e-05
2.30056e-05
2.29731e-05
2.29407e-05
2.29085e-05
2.28763e-05
2.28443e-05
2.28124e-05
2.27807e-05
2.27491e-05
2.27176e-05
2.26864e-05
2.26553e-05
2.26243e-05
2.25936e-05
2.25631e-05
2.25329e-05
2.25028e-05
2.24731e-05
2.24436e-05
2.24144e-05
2.23856e-05
2.23571e-05
2.23289e-05
2.23013e-05
2.22741e-05
2.39599e-05
2.39304e-05
2.38997e-05
2.38684e-05
2.38359e-05
2.38026e-05
2.37686e-05
2.37339e-05
2.36991e-05
2.36646e-05
2.36298e-05
2.3595e-05
2.35606e-05
2.35262e-05
2.34918e-05
2.34576e-05
2.34236e-05
2.33895e-05
2.33556e-05
2.33218e-05
2.3288e-05
2.32544e-05
2.32208e-05
2.31873e-05
2.31539e-05
2.31206e-05
2.30874e-05
2.30543e-05
2.30214e-05
2.29885e-05
2.29557e-05
2.29231e-05
2.28906e-05
2.28582e-05
2.2826e-05
2.27939e-05
2.2762e-05
2.27303e-05
2.26987e-05
2.26673e-05
2.26362e-05
2.26052e-05
2.25745e-05
2.2544e-05
2.25138e-05
2.24839e-05
2.24543e-05
2.24251e-05
2.23962e-05
2.23677e-05
2.23397e-05
2.23121e-05
2.40332e-05
2.4e-05
2.39659e-05
2.39311e-05
2.38958e-05
2.38604e-05
2.38252e-05
2.37899e-05
2.37544e-05
2.37194e-05
2.36843e-05
2.36493e-05
2.36144e-05
2.35796e-05
2.35449e-05
2.35102e-05
2.34757e-05
2.34412e-05
2.34068e-05
2.33725e-05
2.33383e-05
2.33041e-05
2.32701e-05
2.32361e-05
2.32022e-05
2.31685e-05
2.31348e-05
2.31012e-05
2.30677e-05
2.30344e-05
2.30011e-05
2.2968e-05
2.2935e-05
2.29022e-05
2.28695e-05
2.28369e-05
2.28045e-05
2.27723e-05
2.27403e-05
2.27084e-05
2.26768e-05
2.26454e-05
2.26142e-05
2.25833e-05
2.25527e-05
2.25224e-05
2.24924e-05
2.24627e-05
2.24335e-05
2.24046e-05
2.23762e-05
2.23483e-05
2.40949e-05
2.4059e-05
2.4023e-05
2.39872e-05
2.39513e-05
2.39152e-05
2.38795e-05
2.38439e-05
2.38081e-05
2.37726e-05
2.37371e-05
2.37017e-05
2.36664e-05
2.36312e-05
2.3596e-05
2.35609e-05
2.35259e-05
2.3491e-05
2.34561e-05
2.34214e-05
2.33866e-05
2.3352e-05
2.33175e-05
2.3283e-05
2.32487e-05
2.32144e-05
2.31803e-05
2.31462e-05
2.31122e-05
2.30784e-05
2.30447e-05
2.30111e-05
2.29776e-05
2.29443e-05
2.29111e-05
2.28781e-05
2.28452e-05
2.28125e-05
2.278e-05
2.27477e-05
2.27156e-05
2.26837e-05
2.26521e-05
2.26208e-05
2.25897e-05
2.25589e-05
2.25285e-05
2.24984e-05
2.24688e-05
2.24395e-05
2.24108e-05
2.23825e-05
2.41503e-05
2.41139e-05
2.40772e-05
2.40409e-05
2.40046e-05
2.39683e-05
2.39321e-05
2.38961e-05
2.386e-05
2.3824e-05
2.37882e-05
2.37524e-05
2.37166e-05
2.36809e-05
2.36453e-05
2.36098e-05
2.35743e-05
2.35389e-05
2.35036e-05
2.34683e-05
2.34331e-05
2.3398e-05
2.3363e-05
2.33281e-05
2.32933e-05
2.32585e-05
2.32239e-05
2.31893e-05
2.31549e-05
2.31206e-05
2.30863e-05
2.30523e-05
2.30183e-05
2.29845e-05
2.29508e-05
2.29173e-05
2.28839e-05
2.28508e-05
2.28178e-05
2.2785e-05
2.27524e-05
2.27201e-05
2.2688e-05
2.26562e-05
2.26247e-05
2.25935e-05
2.25627e-05
2.25322e-05
2.25021e-05
2.24725e-05
2.24434e-05
2.24147e-05
2.42033e-05
2.41665e-05
2.41296e-05
2.40928e-05
2.40562e-05
2.40196e-05
2.3983e-05
2.39465e-05
2.39101e-05
2.38737e-05
2.38374e-05
2.38011e-05
2.37649e-05
2.37288e-05
2.36927e-05
2.36567e-05
2.36208e-05
2.35849e-05
2.35491e-05
2.35134e-05
2.34777e-05
2.34422e-05
2.34067e-05
2.33713e-05
2.33359e-05
2.33007e-05
2.32656e-05
2.32306e-05
2.31956e-05
2.31608e-05
2.31261e-05
2.30915e-05
2.30571e-05
2.30228e-05
2.29886e-05
2.29546e-05
2.29208e-05
2.28871e-05
2.28537e-05
2.28204e-05
2.27873e-05
2.27545e-05
2.2722e-05
2.26897e-05
2.26578e-05
2.26261e-05
2.25948e-05
2.25639e-05
2.25334e-05
2.25034e-05
2.24739e-05
2.24448e-05
2.42175e-05
2.41803e-05
2.41431e-05
2.4106e-05
2.4069e-05
2.4032e-05
2.39951e-05
2.39582e-05
2.39214e-05
2.38847e-05
2.3848e-05
2.38113e-05
2.37748e-05
2.37382e-05
2.37018e-05
2.36654e-05
2.3629e-05
2.35928e-05
2.35566e-05
2.35205e-05
2.34844e-05
2.34485e-05
2.34126e-05
2.33768e-05
2.33411e-05
2.33054e-05
2.32699e-05
2.32345e-05
2.31992e-05
2.3164e-05
2.31289e-05
2.3094e-05
2.30592e-05
2.30245e-05
2.299e-05
2.29557e-05
2.29215e-05
2.28875e-05
2.28538e-05
2.28203e-05
2.2787e-05
2.2754e-05
2.27212e-05
2.26888e-05
2.26567e-05
2.2625e-05
2.25936e-05
2.25627e-05
2.25322e-05
2.25023e-05
2.24729e-05
2.42666e-05
2.4229e-05
2.41915e-05
2.4154e-05
2.41166e-05
2.40792e-05
2.40418e-05
2.40045e-05
2.39673e-05
2.39301e-05
2.3893e-05
2.38559e-05
2.38188e-05
2.37819e-05
2.3745e-05
2.37081e-05
2.36713e-05
2.36346e-05
2.35979e-05
2.35613e-05
2.35248e-05
2.34883e-05
2.3452e-05
2.34157e-05
2.33795e-05
2.33434e-05
2.33073e-05
2.32714e-05
2.32356e-05
2.31999e-05
2.31643e-05
2.31289e-05
2.30936e-05
2.30584e-05
2.30234e-05
2.29885e-05
2.29539e-05
2.29194e-05
2.28852e-05
2.28511e-05
2.28174e-05
2.27838e-05
2.27506e-05
2.27177e-05
2.26852e-05
2.2653e-05
2.26212e-05
2.25898e-05
2.25589e-05
2.25286e-05
2.24988e-05
2.43139e-05
2.42759e-05
2.4238e-05
2.42001e-05
2.41622e-05
2.41244e-05
2.40866e-05
2.40489e-05
2.40112e-05
2.39736e-05
2.3936e-05
2.38985e-05
2.3861e-05
2.38236e-05
2.37862e-05
2.37489e-05
2.37117e-05
2.36745e-05
2.36373e-05
2.36003e-05
2.35632e-05
2.35263e-05
2.34894e-05
2.34527e-05
2.3416e-05
2.33794e-05
2.33428e-05
2.33064e-05
2.32701e-05
2.32339e-05
2.31978e-05
2.31618e-05
2.3126e-05
2.30903e-05
2.30548e-05
2.30194e-05
2.29842e-05
2.29492e-05
2.29145e-05
2.28799e-05
2.28456e-05