/*--------------------------------*- C++ -*----------------------------------*\
| =========                 |                                                 |
| \\      /  F ield         | OpenFOAM: The Open Source CFD Toolbox           |
|  \\    /   O peration     | Version:  v1706                                 |
|   \\  /    A nd           | Web:      www.OpenFOAM.com                      |
|    \\/     M anipulation  |                                                 |
\*---------------------------------------------------------------------------*/
FoamFile
{
    version     2.0;
    format      ascii;
    class       volScalarField;
    location    "4e-05";
    object      Tt;
}
// * * * * * * * * * * * * * * * * * * * * * * * * * * * * * * * * * * * * * //

dimensions      [0 0 0 1 0 0 0];


internalField   nonuniform List<scalar> 
30038
(
144.4
144.4
144.4
144.4
144.4
144.4
144.4
144.4
144.4
144.4
144.4
144.4
144.4
144.4
144.4
144.4
144.4
144.4
144.4
144.4
144.4
144.4
144.4
144.4
144.4
144.4
144.4
144.4
144.4
144.4
144.4
144.4
144.4
144.4
144.4
144.4
144.4
144.4
144.4
144.4
144.4
144.4
144.4
144.4
144.4
144.4
144.4
144.4
144.4
144.4
144.4
144.4
144.4
144.4
144.4
144.4
144.4
144.4
144.4
144.4
144.4
144.4
144.4
144.4
144.4
144.4
144.4
144.4
144.4
144.4
144.4
144.4
144.4
144.4
144.4
144.4
144.4
144.4
144.4
144.4
144.4
144.4
144.4
144.4
144.4
144.4
144.4
144.4
144.4
144.4
144.4
144.4
144.4
144.4
144.4
144.4
144.4
144.4
144.4
144.4
144.4
144.4
144.4
144.4
144.4
144.4
144.4
144.4
144.4
144.4
144.4
144.4
144.4
144.4
144.4
144.4
144.4
144.4
144.4
144.4
144.4
144.4
144.4
144.4
144.4
144.4
144.4
144.4
144.4
144.4
144.4
144.4
144.4
144.4
144.4
144.4
144.4
144.4
144.4
144.4
144.4
144.4
144.4
144.4
144.4
144.4
144.4
144.4
144.4
144.4
144.4
144.4
144.4
144.4
144.4
144.4
144.4
144.4
144.4
144.4
144.4
144.4
144.4
144.4
144.4
144.4
144.4
144.4
144.4
144.4
144.4
144.4
144.4
144.4
144.4
144.4
144.4
144.4
144.4
144.4
144.4
144.4
144.4
144.4
144.4
144.4
144.4
144.4
144.4
144.4
144.4
144.4
144.4
144.4
144.4
144.4
144.4
144.4
144.4
144.4
144.4
144.4
144.4
144.4
144.4
144.4
144.4
144.4
144.4
144.4
144.4
144.4
144.4
144.4
144.4
144.4
144.4
144.4
144.4
144.4
144.4
144.4
144.4
144.4
144.4
144.4
144.4
144.4
144.4
144.4
144.4
144.4
144.4
144.4
144.4
144.4
144.4
144.4
144.4
144.4
144.4
144.4
144.4
144.4
144.4
144.4
144.4
144.4
144.4
144.4
144.4
144.4
144.4
144.4
144.4
144.4
144.4
144.4
144.4
144.4
144.4
144.4
144.4
144.4
144.4
144.4
144.4
144.4
144.4
144.4
144.4
144.4
144.4
144.4
144.4
144.4
144.4
144.4
144.4
144.4
144.4
144.4
144.4
144.4
144.4
144.4
144.4
144.4
144.4
144.4
144.4
144.4
144.4
144.4
144.4
144.4
144.4
144.4
144.4
144.4
144.4
144.4
144.4
144.4
144.4
144.4
144.4
144.4
144.4
144.4
144.4
144.4
144.4
144.4
144.4
144.4
144.4
144.4
144.4
144.4
144.4
144.4
144.4
144.4
144.4
144.4
144.4
144.4
144.4
144.4
144.4
144.4
144.4
144.4
144.4
144.4
144.4
144.4
144.4
144.4
144.4
144.4
144.4
144.4
144.4
144.4
144.4
144.4
144.4
144.4
144.4
144.4
144.4
144.4
144.4
144.4
144.4
144.4
144.4
144.4
144.4
144.4
144.4
144.4
144.4
144.4
144.4
144.4
144.4
144.4
144.4
144.4
144.4
144.4
144.4
144.4
144.4
144.4
144.4
144.4
144.4
144.4
144.4
144.4
144.4
144.4
144.4
144.4
144.4
144.4
144.4
144.4
144.4
144.4
144.4
144.4
144.4
144.4
144.4
144.4
144.4
144.4
144.4
144.4
144.4
144.4
144.4
144.4
144.4
144.4
144.4
144.4
144.4
144.4
144.4
144.4
144.4
144.4
144.4
144.401
144.401
144.4
144.4
144.4
144.4
144.4
144.4
144.4
144.4
144.4
144.4
144.4
144.4
144.4
144.4
144.4
144.4
144.4
144.4
144.4
144.4
144.4
144.4
144.4
144.4
144.4
144.4
144.4
144.4
144.4
144.4
144.4
144.4
144.4
144.4
144.4
144.401
144.401
144.401
144.402
144.402
144.4
144.4
144.4
144.4
144.4
144.4
144.4
144.4
144.4
144.4
144.4
144.4
144.4
144.4
144.4
144.4
144.4
144.4
144.4
144.4
144.4
144.4
144.4
144.4
144.4
144.4
144.4
144.4
144.4
144.4
144.4
144.4
144.401
144.401
144.401
144.402
144.402
144.403
144.405
144.407
144.4
144.4
144.4
144.4
144.4
144.4
144.4
144.4
144.4
144.4
144.4
144.4
144.4
144.4
144.4
144.4
144.4
144.4
144.4
144.4
144.4
144.4
144.4
144.4
144.4
144.4
144.4
144.4
144.4
144.401
144.401
144.401
144.402
144.402
144.403
144.405
144.407
144.41
144.414
144.42
144.4
144.4
144.4
144.4
144.4
144.4
144.4
144.4
144.4
144.4
144.4
144.4
144.4
144.4
144.4
144.4
144.4
144.4
144.4
144.4
144.4
144.4
144.4
144.4
144.4
144.4
144.401
144.401
144.401
144.402
144.402
144.403
144.405
144.406
144.409
144.413
144.419
144.427
144.439
144.457
144.4
144.4
144.4
144.4
144.4
144.4
144.4
144.4
144.4
144.4
144.4
144.4
144.4
144.4
144.4
144.4
144.4
144.4
144.4
144.4
144.4
144.4
144.4
144.401
144.401
144.401
144.402
144.402
144.403
144.405
144.406
144.409
144.413
144.418
144.426
144.437
144.452
144.475
144.508
144.555
144.4
144.4
144.4
144.4
144.4
144.4
144.4
144.4
144.4
144.4
144.4
144.4
144.4
144.4
144.4
144.4
144.4
144.4
144.4
144.4
144.401
144.401
144.401
144.402
144.402
144.403
144.405
144.407
144.409
144.413
144.418
144.425
144.436
144.45
144.471
144.501
144.543
144.604
144.692
144.819
144.4
144.4
144.4
144.4
144.4
144.4
144.4
144.4
144.4
144.4
144.4
144.4
144.4
144.4
144.4
144.4
144.401
144.401
144.401
144.401
144.402
144.403
144.403
144.405
144.407
144.409
144.413
144.418
144.425
144.435
144.449
144.469
144.497
144.537
144.593
144.673
144.786
144.947
145.177
145.51
144.4
144.4
144.4
144.4
144.4
144.4
144.4
144.4
144.4
144.4
144.4
144.4
144.4
144.4
144.401
144.401
144.401
144.401
144.402
144.403
144.404
144.405
144.407
144.41
144.413
144.418
144.425
144.435
144.449
144.468
144.495
144.533
144.586
144.661
144.766
144.914
145.122
145.417
145.835
146.428
147.275
144.4
144.4
144.4
144.4
144.4
144.4
144.4
144.4
144.4
144.4
144.4
144.401
144.401
144.401
144.402
144.402
144.403
144.404
144.405
144.407
144.41
144.414
144.419
144.426
144.436
144.45
144.469
144.495
144.532
144.583
144.654
144.754
144.893
145.087
145.36
145.741
146.277
147.028
148.081
149.557
151.626
144.4
144.4
144.4
144.4
144.4
144.4
144.4
144.4
144.401
144.401
144.401
144.401
144.402
144.402
144.403
144.404
144.406
144.408
144.411
144.415
144.42
144.427
144.437
144.451
144.47
144.496
144.533
144.582
144.652
144.747
144.88
145.065
145.321
145.678
146.175
146.865
147.824
149.154
150.994
153.53
157.002
161.717
144.4
144.4
144.4
144.4
144.4
144.4
144.401
144.401
144.401
144.401
144.402
144.403
144.404
144.405
144.406
144.409
144.412
144.416
144.421
144.429
144.439
144.454
144.473
144.499
144.535
144.585
144.653
144.747
144.876
145.054
145.3
145.638
146.107
146.753
147.644
148.871
150.557
152.863
155.996
160.219
165.847
173.232
182.727
144.4
144.4
144.401
144.401
144.401
144.401
144.402
144.402
144.403
144.404
144.405
144.407
144.41
144.413
144.417
144.423
144.431
144.442
144.457
144.477
144.504
144.54
144.591
144.659
144.752
144.879
145.054
145.292
145.619
146.068
146.682
147.524
148.676
150.247
152.383
155.269
159.139
164.271
170.984
179.609
190.454
203.744
219.51
144.401
144.401
144.401
144.402
144.402
144.403
144.404
144.405
144.406
144.408
144.411
144.414
144.419
144.426
144.434
144.446
144.461
144.482
144.51
144.548
144.599
144.669
144.763
144.89
145.064
145.299
145.62
146.056
146.65
147.457
148.554
150.041
152.05
154.749
158.35
163.107
169.311
177.27
187.275
199.552
214.201
231.131
249.991
270.224
144.401
144.402
144.402
144.403
144.404
144.405
144.407
144.409
144.412
144.416
144.422
144.429
144.438
144.45
144.467
144.489
144.519
144.558
144.612
144.683
144.779
144.909
145.084
145.32
145.639
146.07
146.652
147.438
148.499
149.927
151.844
154.404
157.801
162.269
168.077
175.513
184.855
196.336
210.081
226.052
243.978
263.365
283.479
303.25
321.554
144.403
144.404
144.405
144.406
144.408
144.411
144.414
144.419
144.425
144.432
144.443
144.456
144.474
144.498
144.53
144.572
144.628
144.703
144.803
144.937
145.116
145.356
145.678
146.109
146.689
147.465
148.506
149.898
151.753
154.215
157.464
161.715
167.218
174.241
183.053
193.882
206.874
222.035
239.18
257.898
277.57
297.311
315.95
332.319
345.586
355.77
144.405
144.406
144.408
144.41
144.413
144.417
144.422
144.429
144.437
144.449
144.464
144.483
144.509
144.544
144.589
144.649
144.729
144.834
144.974
145.16
145.408
145.737
146.176
146.761
147.539
148.575
149.95
151.771
154.172
157.321
161.418
166.694
173.403
181.797
192.099
204.463
218.929
235.369
253.45
272.653
292.241
311.209
328.393
342.831
354.081
362.301
367.925
371.694
144.412
144.416
144.42
144.426
144.434
144.443
144.456
144.473
144.495
144.524
144.562
144.611
144.676
144.762
144.874
145.023
145.219
145.478
145.82
146.272
146.871
147.662
148.707
150.085
151.897
154.27
157.362
161.36
166.481
172.961
181.039
190.928
202.784
216.664
232.481
249.969
268.68
287.992
307.055
324.8
340.193
352.597
361.919
368.508
372.911
375.735
377.436
378.442
144.419
144.424
144.431
144.44
144.451
144.466
144.485
144.51
144.542
144.584
144.639
144.71
144.804
144.926
145.085
145.294
145.569
145.929
146.402
147.023
147.839
148.908
150.307
152.134
154.511
157.586
161.536
166.565
172.894
180.748
190.328
201.785
215.186
230.473
247.428
265.657
284.629
303.616
321.672
337.773
351.143
361.497
369.025
374.194
377.567
379.663
380.888
381.562
381.886
381.92
144.448
144.461
144.479
144.501
144.529
144.566
144.613
144.674
144.754
144.857
144.99
145.164
145.391
145.686
146.07
146.571
147.224
148.075
149.183
150.623
152.49
154.9
157.996
161.947
166.943
173.193
180.906
190.272
201.432
214.457
229.307
245.795
263.578
282.183
300.985
319.159
335.735
349.87
361.121
369.519
375.436
379.39
381.908
383.418
384.26
384.687
384.799
384.739
384.627
384.413
144.52
144.553
144.595
144.649
144.719
144.808
144.924
145.072
145.264
145.512
145.833
146.249
146.786
147.482
148.382
149.545
151.046
152.977
155.451
158.607
162.604
167.624
173.861
181.51
190.749
201.709
214.455
228.955
245.048
262.432
280.673
299.228
317.373
334.224
348.92
360.908
370.078
376.695
381.22
384.164
385.979
387.015
387.565
387.774
387.722
387.61
387.41
387.1
386.7
386.252
144.696
144.776
144.878
145.008
145.176
145.39
145.666
146.019
146.474
147.058
147.809
148.772
150.009
151.592
153.613
156.184
159.438
163.528
168.625
174.912
182.571
191.765
202.611
215.166
229.403
245.177
262.21
280.107
298.381
316.396
333.358
348.427
360.982
370.799
378.039
383.099
386.459
388.581
389.824
390.499
390.807
390.799
390.684
390.498
390.21
389.823
389.367
388.86
388.311
387.76
145.116
145.306
145.549
145.859
146.253
146.757
147.399
148.219
149.263
150.593
152.283
154.424
157.126
160.517
164.746
169.975
176.374
184.112
193.335
204.148
216.596
230.648
246.172
262.905
280.484
298.462
316.281
333.225
348.501
361.456
371.781
379.546
385.079
388.827
391.241
392.697
393.504
393.898
393.959
393.842
393.659
393.386
393.013
392.559
392.059
391.504
390.926
390.353
389.797
389.248
146.102
146.548
147.112
147.827
148.732
149.878
151.325
153.149
155.441
158.31
161.882
166.299
171.714
178.286
186.169
195.493
206.347
218.761
232.701
248.036
264.519
281.808
299.49
317.066
333.891
349.228
362.424
373.115
381.291
387.222
391.31
393.988
395.643
396.582
397.057
397.189
397.096
396.897
396.632
396.277
395.83
395.324
394.771
394.176
393.575
392.987
392.408
391.837
391.28
390.732
148.364
149.376
150.645
152.237
154.226
156.706
159.784
163.582
168.237
173.894
180.699
188.79
198.281
209.244
221.694
235.585
250.787
267.062
284.088
301.475
318.774
335.4
350.677
363.968
374.878
383.346
389.581
393.947
396.856
398.688
399.747
400.294
400.493
400.425
400.222
399.946
399.607
399.16
398.651
398.106
397.506
396.883
396.267
395.66
395.057
394.466
393.885
393.311
392.747
392.191
153.372
155.564
158.272
161.604
165.678
170.625
176.581
183.678
192.039
201.759
212.891
225.434
239.33
254.446
270.551
287.331
304.424
321.417
337.782
352.893
366.146
377.139
385.772
392.21
396.78
399.87
401.847
403.011
403.63
403.878
403.829
403.629
403.347
403.006
402.57
402.055
401.5
400.898
400.259
399.618
398.988
398.362
397.743
397.133
396.529
395.931
395.341
394.758
394.184
393.618
163.842
168.246
173.542
179.853
187.302
195.99
205.995
217.348
230.033
243.977
259.043
275.001
291.548
308.342
325.004
341.05
355.904
369
379.944
388.617
395.154
399.848
403.059
405.139
406.384
407.061
407.346
407.317
407.132
406.828
406.469
406.044
405.524
404.963
404.363
403.712
403.047
402.391
401.74
401.093
400.456
399.827
399.202
398.584
397.972
397.365
396.764
396.17
395.586
395.008
183.808
191.663
200.733
211.07
222.688
235.55
249.573
264.612
280.437
296.751
313.235
329.536
345.21
359.724
372.552
383.323
391.917
398.446
403.178
406.448
408.589
409.885
410.597
410.904
410.889
410.713
410.391
410.014
409.589
409.061
408.487
407.883
407.227
406.546
405.866
405.192
404.52
403.856
403.201
402.55
401.905
401.266
400.632
400.003
399.379
398.761
398.15
397.544
396.949
396.362
217.075
228.988
242.051
256.17
271.19
286.879
302.949
319.102
335.008
350.255
364.349
376.807
387.291
395.689
402.108
406.792
410.053
412.207
413.522
414.249
414.566
414.552
414.371
414.036
413.641
413.207
412.673
412.085
411.469
410.807
410.109
409.407
408.712
408.019
407.329
406.648
405.972
405.301
404.636
403.976
403.32
402.669
402.023
401.383
400.748
400.118
399.496
398.88
398.274
397.677
263.818
278.811
294.347
310.148
325.937
341.406
356.167
369.761
381.752
391.841
399.937
406.148
410.701
413.888
416.003
417.3
418.019
418.328
418.307
418.119
417.772
417.345
416.885
416.358
415.752
415.123
414.455
413.742
413.019
412.3
411.585
410.87
410.165
409.466
408.77
408.08
407.394
406.712
406.036
405.363
404.695
404.032
403.375
402.722
402.076
401.436
400.802
400.176
399.561
398.953
318.344
333.724
348.703
362.912
375.926
387.356
396.95
404.647
410.559
414.904
417.954
419.981
421.226
421.91
422.192
422.154
421.949
421.584
421.127
420.645
420.107
419.483
418.834
418.161
417.438
416.696
415.956
415.218
414.481
413.751
413.028
412.308
411.593
410.883
410.177
409.475
408.778
408.084
407.394
406.71
406.03
405.355
404.685
404.021
403.364
402.713
402.069
401.432
400.807
400.189
370.444
382.794
393.573
402.579
409.789
415.321
419.389
422.245
424.139
425.299
425.924
426.158
426.095
425.862
425.468
424.985
424.481
423.926
423.282
422.614
421.926
421.192
420.431
419.671
418.915
418.157
417.403
416.656
415.914
415.175
414.441
413.711
412.985
412.263
411.544
410.83
410.119
409.413
408.711
408.014
407.322
406.635
405.954
405.279
404.61
403.949
403.295
402.648
402.013
401.386
408.672
415.317
420.402
424.134
426.748
428.469
429.513
430.057
430.224
430.127
429.857
429.429
428.919
428.39
427.802
427.151
426.461
425.755
425.008
424.229
423.449
422.672
421.894
421.116
420.348
419.584
418.822
418.065
417.312
416.562
415.816
415.074
414.335
413.6
412.868
412.141
411.418
410.699
409.985
409.276
408.572
407.874
407.181
406.495
405.816
405.143
404.479
403.823
403.178
402.542
425.76
429.109
431.44
432.954
433.858
434.303
434.387
434.247
433.929
433.463
432.925
432.367
431.749
431.082
430.369
429.64
428.881
428.087
427.287
426.49
425.69
424.892
424.101
423.315
422.531
421.751
420.976
420.204
419.435
418.669
417.907
417.148
416.393
415.641
414.893
414.149
413.409
412.673
411.942
411.216
410.495
409.779
409.069
408.366
407.669
406.979
406.296
405.622
404.956
404.302
403.656
437.581
438.322
438.65
438.638
438.446
438.077
437.569
436.998
436.408
435.761
435.072
434.338
433.586
432.812
432
431.179
430.363
429.545
428.727
427.914
427.106
426.3
425.498
424.701
423.907
423.116
422.328
421.543
420.761
419.983
419.207
418.435
417.667
416.903
416.142
415.385
414.633
413.885
413.142
412.404
411.671
410.943
410.222
409.507
408.8
408.099
407.406
406.722
406.046
405.383
404.728
443.074
442.988
442.72
442.291
441.736
441.133
440.513
439.834
439.115
438.365
437.589
436.795
435.968
435.127
434.291
433.455
432.616
431.782
430.954
430.128
429.304
428.486
427.67
426.856
426.047
425.24
424.436
423.635
422.837
422.043
421.251
420.463
419.678
418.897
418.12
417.347
416.578
415.813
415.053
414.297
413.547
412.803
412.064
411.332
410.606
409.887
409.176
408.473
407.779
407.093
406.421
405.757
446.562
445.967
445.33
444.675
443.961
443.213
442.445
441.645
440.827
439.986
439.126
438.27
437.416
436.558
435.703
434.855
434.009
433.165
432.326
431.489
430.655
429.824
428.996
428.17
427.348
426.528
425.711
424.897
424.087
423.279
422.475
421.674
420.876
420.082
419.293
418.507
417.725
416.948
416.176
415.409
414.647
413.891
413.141
412.397
411.66
410.93
410.209
409.495
408.791
408.096
407.414
406.741
448.887
448.139
447.364
446.572
445.751
444.909
444.05
443.174
442.297
441.426
440.55
439.675
438.808
437.942
437.078
436.218
435.362
434.507
433.656
432.808
431.961
431.118
430.277
429.438
428.603
427.77
426.941
426.114
425.29
424.47
423.653
422.839
422.029
421.223
420.42
419.622
418.828
418.039
417.255
416.476
415.702
414.934
414.172
413.417
412.669
411.929
411.196
410.472
409.758
409.054
408.362
407.681
450.744
449.902
449.038
448.158
447.266
446.371
445.481
444.589
443.693
442.808
441.925
441.04
440.161
439.286
438.411
437.54
436.671
435.805
434.941
434.08
433.221
432.365
431.511
430.66
429.812
428.967
428.124
427.285
426.448
425.615
424.785
423.959
423.136
422.318
421.503
420.692
419.886
419.085
418.288
417.497
416.711
415.932
415.158
414.392
413.633
412.881
412.138
411.404
410.68
409.965
409.264
408.573
452.308
451.399
450.487
449.579
448.67
447.757
446.852
445.952
445.048
444.151
443.257
442.364
441.473
440.585
439.7
438.816
437.935
437.057
436.18
435.307
434.435
433.566
432.7
431.836
430.975
430.117
429.262
428.41
427.561
426.715
425.872
425.034
424.198
423.367
422.54
421.717
420.898
420.084
419.276
418.472
417.675
416.883
416.098
415.32
414.549
413.787
413.033
412.288
411.554
410.829
410.119
409.418
453.715
452.79
451.861
450.938
450.021
449.1
448.183
447.272
446.36
445.451
444.545
443.641
442.739
441.839
440.941
440.046
439.152
438.261
437.373
436.486
435.602
434.721
433.842
432.966
432.092
431.221
430.354
429.489
428.627
427.769
426.913
426.062
425.214
424.37
423.53
422.694
421.863
421.037
420.216
419.4
418.591
417.787
416.99
416.2
415.418
414.645
413.88
413.124
412.379
411.645
410.924
410.214
455.061
454.127
453.19
452.256
451.328
450.399
449.472
448.548
447.626
446.706
445.788
444.872
443.958
443.046
442.136
441.229
440.323
439.42
438.519
437.62
436.723
435.829
434.938
434.049
433.163
432.28
431.399
430.521
429.647
428.776
427.908
427.043
426.183
425.326
424.473
423.625
422.781
421.942
421.109
420.281
419.459
418.643
417.834
417.032
416.239
415.453
414.677
413.91
413.155
412.41
411.68
410.96
455.42
454.475
453.531
452.591
451.652
450.714
449.779
448.845
447.914
446.984
446.056
445.13
444.206
443.284
442.365
441.447
440.531
439.618
438.707
437.798
436.891
435.987
435.086
434.187
433.291
432.398
431.507
430.62
429.736
428.855
427.978
427.104
426.234
425.369
424.507
423.651
422.799
421.953
421.112
420.277
419.449
418.628
417.814
417.009
416.212
415.424
414.646
413.88
413.125
412.384
411.655
456.669
455.714
454.76
453.808
452.858
451.909
450.962
450.018
449.074
448.133
447.193
446.256
445.32
444.386
443.454
442.524
441.596
440.67
439.747
438.825
437.906
436.99
436.076
435.164
434.255
433.349
432.445
431.545
430.648
429.754
428.864
427.977
427.094
426.215
425.341
424.471
423.607
422.747
421.894
421.046
420.205
419.371
418.545
417.727
416.918
416.119
415.33
414.553
413.787
413.036
412.296
457.872
456.906
455.941
454.978
454.017
453.057
452.099
451.143
450.188
449.235
448.284
447.334
446.386
445.44
444.496
443.554
442.614
441.676
440.74
439.806
438.874
437.945
437.018
436.093
435.171
434.252
433.335
432.422
431.511
430.604
429.7
428.8
427.904
427.012
426.124
425.241
424.363
423.491
422.624
421.763
420.909
420.063
419.224
418.394
417.573
416.761
415.961
415.172
414.395
413.634
412.884
458.051
457.076
456.102
455.129
454.158
453.189
452.221
451.255
450.29
449.327
448.365
447.406
446.448
445.492
444.537
443.585
442.634
441.685
440.739
439.794
438.852
437.912
436.974
436.039
435.106
434.176
433.249
432.325
431.405
430.487
429.573
428.663
427.758
426.856
425.959
425.068
424.182
423.301
422.428
421.56
420.701
419.849
419.006
418.173
417.349
416.537
415.737
414.949
414.176
413.416
459.149
458.163
457.178
456.194
455.212
454.231
453.252
452.274
451.298
450.323
449.35
448.378
447.408
446.439
445.472
444.507
443.544
442.582
441.623
440.665
439.71
438.757
437.805
436.857
435.911
434.967
434.026
433.089
432.154
431.223
430.295
429.371
428.451
427.536
426.625
425.72
424.82
423.926
423.038
422.157
421.284
420.42
419.564
418.718
417.882
417.057
416.245
415.446
414.663
413.892
460.2
459.203
458.207
457.212
456.219
455.227
454.236
453.247
452.258
451.272
450.286
449.302
448.32
447.339
446.359
445.381
444.405
443.431
442.458
441.487
440.518
439.551
438.587
437.624
436.664
435.707
434.752
433.8
432.851
431.906
430.964
430.025
429.091
428.162
427.237
426.317
425.403
424.495
423.593
422.699
421.812
420.934
420.065
419.206
418.358
417.521
416.697
415.887
415.092
414.311
461.204
460.196
459.189
458.183
457.179
456.175
455.172
454.171
453.171
452.172
451.174
450.178
449.183
448.189
447.197
446.206
445.217
444.229
443.243
442.258
441.276
440.295
439.316
438.34
437.366
436.394
435.425
434.458
433.495
432.535
431.578
430.625
429.677
428.732
427.793
426.859
425.93
425.008
424.092
423.184
422.283
421.391
420.509
419.637
418.776
417.927
417.091
416.269
415.463
414.671
462.161
461.142
460.124
459.106
458.09
457.075
456.06
455.047
454.035
453.024
452.014
451.005
449.997
448.99
447.984
446.98
445.977
444.976
443.976
442.978
441.981
440.986
439.993
439.002
438.014
437.027
436.043
435.062
434.084
433.109
432.138
431.17
430.206
429.247
428.293
427.343
426.4
425.463
424.533
423.61
422.696
421.79
420.894
420.009
419.135
418.274
417.426
416.592
415.775
414.972
463.07
462.039
461.01
459.981
458.953
457.926
456.9
455.874
454.849
453.826
452.803
451.781
450.76
449.74
448.721
447.703
446.686
445.671
444.657
443.645
442.634
441.624
440.617
439.611
438.607
437.606
436.607
435.611
434.617
433.627
432.64
431.657
430.678
429.704
428.734
427.77
426.812
425.86
424.915
423.978
423.05
422.13
421.22
420.322
419.435
418.561
417.701
416.856
416.028
415.214
463.93
462.888
461.847
460.807
459.767
458.728
457.689
456.651
455.613
454.577
453.541
452.506
451.471
450.438
449.405
448.373
447.342
446.313
445.284
444.257
443.231
442.207
441.185
440.164
439.145
438.128
437.114
436.102
435.093
434.088
433.085
432.087
431.092
430.102
429.117
428.138
427.164
426.198
425.238
424.286
423.343
422.41
421.486
420.574
419.674
418.788
417.916
417.059
416.22
415.396
463.688
462.635
461.582
460.53
459.478
458.427
457.376
456.326
455.276
454.227
453.178
452.13
451.082
450.035
448.989
447.944
446.9
445.857
444.814
443.774
442.734
441.696
440.66
439.626
438.593
437.563
436.536
435.511
434.489
433.471
432.457
431.447
430.441
429.44
428.445
427.457
426.474
425.5
424.533
423.576
422.628
421.691
420.765
419.853
418.954
418.07
417.201
416.351
415.517
464.437
463.372
462.307
461.242
460.178
459.113
458.049
456.985
455.922
454.859
453.796
452.734
451.672
450.611
449.55
448.49
447.431
446.372
445.315
444.259
443.204
442.15
441.098
440.048
438.999
437.953
436.91
435.869
434.831
433.797
432.766
431.74
430.719
429.702
428.692
427.687
426.69
425.7
424.719
423.747
422.785
421.834
420.895
419.97
419.058
418.162
417.282
416.421
415.576
465.134
464.056
462.979
461.901
460.824
459.746
458.668
457.591
456.514
455.436
454.359
453.282
452.206
451.13
450.054
448.979
447.904
446.83
445.757
444.685
443.614
442.545
441.476
440.41
439.345
438.283
437.223
436.166
435.112
434.061
433.015
431.972
430.935
429.902
428.876
427.856
426.843
425.838
424.842
423.855
422.879
421.914
420.962
420.024
419.101
418.194
417.305
416.434
415.58
464.688
463.597
462.506
461.415
460.324
459.233
458.141
457.049
455.958
454.866
453.774
452.682
451.591
450.5
449.409
448.319
447.229
446.14
445.052
443.965
442.879
441.794
440.711
439.63
438.551
437.475
436.401
435.331
434.264
433.2
432.142
431.088
430.039
428.997
427.961
426.933
425.913
424.902
423.901
422.912
421.935
420.971
420.021
419.087
418.169
417.27
416.39
415.527
465.265
464.161
463.056
461.951
460.846
459.74
458.634
457.528
456.421
455.314
454.207
453.1
451.993
450.886
449.78
448.673
447.568
446.462
445.358
444.254
443.152
442.05
440.951
439.853
438.757
437.664
436.574
435.486
434.402
433.323
432.247
431.177
430.112
429.054
428.004
426.961
425.927
424.903
423.889
422.887
421.897
420.921
419.96
419.014
418.085
417.175
416.286
415.414
464.667
463.549
462.43
461.31
460.19
459.069
457.947
456.825
455.703
454.581
453.458
452.335
451.212
450.089
448.967
447.844
446.722
445.601
444.481
443.361
442.244
441.127
440.012
438.899
437.789
436.682
435.577
434.477
433.38
432.29
431.204
430.125
429.052
427.987
426.93
425.882
424.844
423.816
422.801
421.798
420.81
419.837
418.88
417.941
417.022
416.123
415.243
465.116
463.983
462.849
461.715
460.58
459.443
458.307
457.169
456.031
454.893
453.754
452.615
451.476
450.336
449.197
448.058
446.919
445.781
444.644
443.507
442.372
441.239
440.107
438.977
437.849
436.726
435.606
434.49
433.378
432.271
431.171
430.077
428.989
427.909
426.837
425.775
424.723
423.682
422.653
421.638
420.638
419.654
418.687
417.739
416.81
415.903
415.016
464.358
463.209
462.059
460.909
459.757
458.605
457.451
456.297
455.143
453.988
452.832
451.676
450.52
449.364
448.208
447.052
445.897
444.742
443.588
442.436
441.285
440.137
438.992
437.848
436.709
435.573
434.442
433.314
432.192
431.075
429.965
428.862
427.767
426.681
425.605
424.54
423.486
422.445
421.419
420.407
419.413
418.436
417.479
416.542
415.628
414.733
464.671
463.507
462.342
461.175
460.008
458.839
457.67
456.5
455.329
454.157
452.984
451.812
450.639
449.465
448.292
447.118
445.947
444.776
443.606
442.437
441.271
440.107
438.945
437.786
436.63
435.477
434.329
433.186
432.048
430.916
429.791
428.673
427.564
426.464
425.374
424.296
423.23
422.178
421.14
420.119
419.114
418.129
417.163
416.219
415.298
414.398
464.921
463.741
462.56
461.378
460.195
459.01
457.824
456.637
455.449
454.26
453.071
451.881
450.691
449.501
448.312
447.123
445.934
444.747
443.562
442.377
441.194
440.012
438.834
437.658
436.486
435.317
434.153
432.994
431.841
430.694
429.554
428.422
427.299
426.186
425.084
423.993
422.916
421.852
420.804
419.773
418.76
417.766
416.794
415.843
414.916
414.01
465.107
463.911
462.714
461.516
460.316
459.114
457.911
456.707
455.503
454.298
453.093
451.887
450.681
449.475
448.27
447.064
445.859
444.655
443.452
442.25
441.05
439.853
438.658
437.466
436.277
435.093
433.914
432.739
431.571
430.41
429.256
428.111
426.975
425.849
424.734
423.632
422.544
421.47
420.413
419.373
418.351
417.35
416.371
415.414
414.483
413.573
465.226
464.015
462.801
461.586
460.37
459.153
457.934
456.714
455.494
454.273
453.052
451.83
450.607
449.384
448.162
446.939
445.717
444.496
443.277
442.059
440.842
439.628
438.417
437.21
436.006
434.806
433.612
432.423
431.24
430.065
428.898
427.74
426.591
425.453
424.327
423.215
422.116
421.033
419.967
418.919
417.89
416.883
415.898
414.937
414.001
413.088
465.279
464.052
462.823
461.592
460.36
459.127
457.893
456.658
455.421
454.183
452.945
451.706
450.466
449.227
447.987
446.748
445.51
444.272
443.036
441.802
440.57
439.34
438.113
436.89
435.671
434.457
433.248
432.045
430.849
429.661
428.481
427.31
426.15
425.001
423.865
422.742
421.634
420.543
419.469
418.414
417.379
416.366
415.377
414.412
413.473
412.558
465.267
464.025
462.78
461.534
460.286
459.037
457.786
456.534
455.28
454.026
452.77
451.515
450.259
449.003
447.747
446.491
445.237
443.983
442.731
441.481
440.233
438.988
437.747
436.509
435.275
434.047
432.824
431.608
430.399
429.198
428.006
426.824
425.653
424.494
423.348
422.216
421.1
420.001
418.92
417.859
416.819
415.802
414.809
413.841
412.9
411.984
463.931
462.671
461.408
460.144
458.878
457.61
456.341
455.071
453.801
452.529
451.257
449.985
448.713
447.441
446.169
444.899
443.63
442.362
441.097
439.834
438.574
437.318
436.066
434.819
433.577
432.342
431.113
429.892
428.679
427.476
426.283
425.102
423.933
422.778
421.639
420.515
419.409
418.323
417.257
416.213
415.192
414.197
413.228
412.286
411.37
463.769
462.492
461.213
459.933
458.65
457.367
456.082
454.796
453.509
452.221
450.933
449.645
448.357
447.069
445.783
444.497
443.213
441.93
440.65
439.373
438.099
436.83
435.564
434.304
433.049
431.801
430.561
429.328
428.105
426.891
425.689
424.498
423.321
422.159
421.012
419.882
418.771
417.68
416.61
415.563
414.54
413.543
412.574
411.632
410.717
463.538
462.245
460.95
459.654
458.356
457.056
455.755
454.453
453.151
451.847
450.544
449.24
447.937
446.634
445.333
444.032
442.733
441.437
440.143
438.852
437.565
436.282
435.004
433.731
432.465
431.205
429.954
428.711
427.477
426.254
425.043
423.845
422.66
421.491
420.338
419.203
418.088
416.993
415.92
414.871
413.848
412.851
411.881
410.942
410.029
461.93
460.619
459.307
457.993
456.678
455.362
454.045
452.727
451.408
450.09
448.771
447.453
446.136
444.82
443.505
442.193
440.883
439.575
438.272
436.972
435.676
434.386
433.102
431.825
430.555
429.293
428.041
426.799
425.568
424.349
423.143
421.953
420.778
419.62
418.481
417.362
416.265
415.19
414.141
413.117
412.121
411.154
410.217
409.307
461.546
460.22
458.893
457.564
456.234
454.903
453.57
452.238
450.905
449.572
448.239
446.907
445.576
444.246
442.918
441.592
440.27
438.95
437.634
436.322
435.016
433.715
432.42
431.133
429.853
428.582
427.322
426.071
424.833
423.608
422.396
421.2
420.021
418.859
417.717
416.596
415.498
414.423
413.374
412.351
411.358
410.393
409.46
408.554
461.095
459.755
458.412
457.069
455.724
454.378
453.032
451.685
450.338
448.991
447.645
446.299
444.955
443.613
442.272
440.934
439.599
438.268
436.941
435.618
434.301
432.99
431.686
430.389
429.101
427.823
426.554
425.298
424.053
422.822
421.606
420.406
419.223
418.059
416.915
415.793
414.694
413.62
412.573
411.553
410.562
409.602
408.673
407.773
460.577
459.223
457.866
456.508
455.15
453.79
452.43
451.07
449.709
448.349
446.99
445.632
444.276
442.921
441.569
440.219
438.873
437.531
436.194
434.861
433.535
432.215
430.902
429.598
428.302
427.017
425.742
424.479
423.23
421.995
420.775
419.572
418.387
417.221
416.077
414.955
413.857
412.785
411.74
410.724
409.738
408.783
407.86
406.967
458.625
457.255
455.884
454.512
453.139
451.766
450.393
449.02
447.648
446.277
444.907
443.539
442.173
440.81
439.45
438.094
436.742