/*--------------------------------*- C++ -*----------------------------------*\
| =========                 |                                                 |
| \\      /  F ield         | OpenFOAM: The Open Source CFD Toolbox           |
|  \\    /   O peration     | Version:  v1706                                 |
|   \\  /    A nd           | Web:      www.OpenFOAM.com                      |
|    \\/     M anipulation  |                                                 |
\*---------------------------------------------------------------------------*/
FoamFile
{
    version     2.0;
    format      ascii;
    class       volVectorField;
    location    "4e-05";
    object      U;
}
// * * * * * * * * * * * * * * * * * * * * * * * * * * * * * * * * * * * * * //

dimensions      [0 1 -1 0 0 0 0];


internalField   nonuniform List<vector> 
30038
(
(978.58 -1.14247e-10 5.14124e-15)
(978.58 -1.16183e-10 4.33864e-15)
(978.58 -1.17766e-10 6.94505e-15)
(978.58 -1.20011e-10 3.2171e-15)
(978.58 -1.21735e-10 4.79315e-15)
(978.58 -1.23092e-10 5.56664e-15)
(978.58 -1.25679e-10 9.25806e-15)
(978.58 -1.27948e-10 9.25796e-15)
(978.58 -1.3018e-10 4.90673e-15)
(978.58 -1.32864e-10 6.00646e-15)
(978.58 -1.35421e-10 1.0357e-14)
(978.58 -1.37708e-10 7.28306e-15)
(978.58 -1.40347e-10 4.79909e-15)
(978.58 -1.42367e-10 3.48645e-15)
(978.58 -1.46079e-10 6.68623e-15)
(978.58 -1.49422e-10 8.88854e-15)
(978.58 -1.52224e-10 5.70872e-15)
(978.58 -1.54783e-10 3.21673e-15)
(978.58 -1.57609e-10 5.44891e-15)
(978.58 -1.60143e-10 7.75791e-15)
(978.58 -1.62277e-10 8.17034e-15)
(978.58 -1.64375e-10 4.90506e-15)
(978.58 -1.65615e-10 1.53288e-15)
(978.58 -1.65184e-10 8.47406e-15)
(978.58 -1.62119e-10 5.69602e-15)
(978.58 -1.52921e-10 3.10715e-15)
(978.58 -1.42942e-10 4.56685e-15)
(978.58 -1.30057e-10 7.80753e-15)
(978.58 -1.0988e-10 8.67966e-15)
(978.58 -7.00324e-11 7.31586e-15)
(978.58 -1.08887e-11 7.1864e-15)
(978.58 9.41023e-11 8.70594e-15)
(978.58 2.78577e-10 7.50812e-15)
(978.58 5.77732e-10 8.08231e-15)
(978.58 1.02705e-09 1.0128e-14)
(978.58 1.667e-09 6.61114e-15)
(978.58 2.66777e-09 3.94032e-15)
(978.58 4.2048e-09 8.31896e-15)
(978.58 -3.30131e-10 1.75915e-14)
(978.58 -3.36346e-10 2.01367e-14)
(978.58 -3.41396e-10 1.87121e-14)
(978.58 -3.46522e-10 1.84646e-14)
(978.58 -3.51537e-10 2.21215e-14)
(978.58 -3.57424e-10 2.06232e-14)
(978.58 -3.62092e-10 2.25902e-14)
(978.58 -3.67723e-10 2.10689e-14)
(978.58 -3.72722e-10 1.66817e-14)
(978.58 -3.79722e-10 2.11912e-14)
(978.58 -3.87024e-10 1.96403e-14)
(978.58 -3.93769e-10 1.56272e-14)
(978.58 -4.00784e-10 1.8097e-14)
(978.58 -4.06837e-10 1.95764e-14)
(978.58 -4.11644e-10 2.08109e-14)
(978.58 -4.17734e-10 2.02514e-14)
(978.58 -4.25722e-10 1.9754e-14)
(978.58 -4.32215e-10 1.87852e-14)
(978.58 -4.38819e-10 1.77332e-14)
(978.58 -4.44045e-10 1.89453e-14)
(978.58 -4.4753e-10 1.93574e-14)
(978.58 -4.47476e-10 2.04013e-14)
(978.58 -4.39404e-10 1.98141e-14)
(978.58 -4.32368e-10 1.91908e-14)
(978.58 -4.15526e-10 1.79105e-14)
(978.58 -3.86131e-10 1.82694e-14)
(978.58 -3.43307e-10 1.83652e-14)
(978.58 -2.67611e-10 1.83118e-14)
(978.58 -1.35396e-10 2.08549e-14)
(978.58 9.26677e-11 1.94897e-14)
(978.58 4.89551e-10 1.9008e-14)
(978.58 1.13567e-09 2.6845e-14)
(978.58 2.14379e-09 2.57942e-14)
(978.58 3.58046e-09 2.40689e-14)
(978.58 5.64532e-09 2.38298e-14)
(978.58 8.73209e-09 2.02469e-14)
(978.58 1.36812e-08 2.07735e-14)
(978.58 2.15559e-08 2.34402e-14)
(978.58 -5.35031e-10 3.20236e-14)
(978.58 -5.43512e-10 3.3944e-14)
(978.58 -5.51558e-10 3.11616e-14)
(978.58 -5.59883e-10 2.87291e-14)
(978.58 -5.67628e-10 3.1551e-14)
(978.58 -5.76503e-10 3.27403e-14)
(978.58 -5.83835e-10 3.23922e-14)
(978.58 -5.92812e-10 2.68274e-14)
(978.58 -6.01276e-10 2.8208e-14)
(978.58 -6.09201e-10 2.84575e-14)
(978.58 -6.17733e-10 2.71185e-14)
(978.58 -6.29106e-10 2.95365e-14)
(978.58 -6.3957e-10 3.21586e-14)
(978.58 -6.49652e-10 3.17621e-14)
(978.58 -6.59077e-10 3.10833e-14)
(978.58 -6.6696e-10 3.35025e-14)
(978.58 -6.72965e-10 3.21379e-14)
(978.58 -6.76856e-10 3.18644e-14)
(978.58 -6.74377e-10 3.08312e-14)
(978.58 -6.72768e-10 2.99324e-14)
(978.58 -6.66568e-10 3.01242e-14)
(978.58 -6.55152e-10 3.10182e-14)
(978.58 -6.21984e-10 2.82099e-14)
(978.58 -5.752e-10 2.98244e-14)
(978.58 -4.92243e-10 3.2946e-14)
(978.58 -3.44194e-10 3.24484e-14)
(978.58 -7.76272e-11 3.03128e-14)
(978.58 3.686e-10 2.98697e-14)
(978.58 1.08139e-09 3.43758e-14)
(978.58 2.16671e-09 3.53081e-14)
(978.58 3.66588e-09 3.60208e-14)
(978.58 5.75387e-09 3.77241e-14)
(978.58 8.79031e-09 3.61326e-14)
(978.58 1.33684e-08 3.6356e-14)
(978.58 2.03369e-08 3.72775e-14)
(978.58 3.08045e-08 3.60065e-14)
(978.58 4.77388e-08 3.3375e-14)
(978.58 7.38633e-08 3.62176e-14)
(978.58 -7.29404e-10 4.55258e-14)
(978.58 -7.38471e-10 4.48054e-14)
(978.58 -7.49212e-10 4.24069e-14)
(978.58 -7.60346e-10 4.22395e-14)
(978.58 -7.70647e-10 4.58152e-14)
(978.58 -7.81464e-10 4.23028e-14)
(978.58 -7.91726e-10 4.16652e-14)
(978.58 -8.02857e-10 4.21421e-14)
(978.58 -8.14578e-10 4.33183e-14)
(978.58 -8.25878e-10 4.15889e-14)
(978.58 -8.352e-10 4.4406e-14)
(978.58 -8.45973e-10 4.44059e-14)
(978.58 -8.56995e-10 4.44838e-14)
(978.58 -8.64648e-10 3.90334e-14)
(978.58 -8.6868e-10 4.09356e-14)
(978.58 -8.68536e-10 4.1895e-14)
(978.58 -8.67735e-10 4.07332e-14)
(978.58 -8.60901e-10 4.5363e-14)
(978.58 -8.45996e-10 4.52687e-14)
(978.58 -8.06776e-10 4.25335e-14)
(978.58 -7.53002e-10 4.21121e-14)
(978.58 -6.53481e-10 4.2526e-14)
(978.58 -4.75552e-10 4.6381e-14)
(978.58 -1.67272e-10 4.77836e-14)
(978.58 3.34446e-10 4.65309e-14)
(978.58 1.11731e-09 4.72116e-14)
(978.58 2.25202e-09 4.68224e-14)
(978.58 3.80046e-09 4.59233e-14)
(978.58 5.95404e-09 4.78224e-14)
(978.58 9.10081e-09 4.84212e-14)
(978.58 1.38431e-08 4.7353e-14)
(978.58 2.09551e-08 4.8803e-14)
(978.58 3.15731e-08 4.82496e-14)
(978.58 4.74325e-08 4.81237e-14)
(978.58 7.13322e-08 5.04623e-14)
(978.58 1.06972e-07 5.14075e-14)
(978.58 1.64306e-07 5.01545e-14)
(978.58 2.52167e-07 5.11585e-14)
(978.58 -9.14702e-10 5.45952e-14)
(978.58 -9.25937e-10 5.66814e-14)
(978.58 -9.39046e-10 5.63595e-14)
(978.58 -9.51576e-10 5.54003e-14)
(978.58 -9.64114e-10 5.34885e-14)
(978.58 -9.76623e-10 5.47147e-14)
(978.58 -9.88266e-10 5.65043e-14)
(978.58 -9.9996e-10 5.74735e-14)
(978.58 -1.01021e-09 5.79681e-14)
(978.58 -1.02075e-09 5.76306e-14)
(978.58 -1.02751e-09 5.67231e-14)
(978.58 -1.02803e-09 5.57331e-14)
(978.58 -1.03142e-09 5.33921e-14)
(978.58 -1.03039e-09 5.41671e-14)
(978.58 -1.02566e-09 5.61726e-14)
(978.58 -9.99339e-10 5.79173e-14)
(978.58 -9.58864e-10 5.97512e-14)
(978.58 -8.91259e-10 5.69702e-14)
(978.58 -7.66387e-10 5.5798e-14)
(978.58 -5.46161e-10 5.8631e-14)
(978.58 -1.82287e-10 5.58496e-14)
(978.58 3.9173e-10 5.70817e-14)
(978.58 1.25495e-09 6.30528e-14)
(978.58 2.4399e-09 6.15599e-14)
(978.58 4.06723e-09 6.15609e-14)
(978.58 6.36411e-09 6.23306e-14)
(978.58 9.73591e-09 6.12005e-14)
(978.58 1.47507e-08 5.52001e-14)
(978.58 2.21833e-08 5.50059e-14)
(978.58 3.31759e-08 5.68318e-14)
(978.58 4.94626e-08 6.19944e-14)
(978.58 7.36216e-08 6.50639e-14)
(978.58 1.09537e-07 6.15653e-14)
(978.58 1.6299e-07 6.10758e-14)
(978.58 2.43232e-07 6.2052e-14)
(978.58 3.62455e-07 6.32507e-14)
(978.58 5.53127e-07 6.42498e-14)
(978.58 8.43454e-07 6.45924e-14)
(978.58 -1.08994e-09 7.03973e-14)
(978.58 -1.1029e-09 6.98999e-14)
(978.58 -1.11704e-09 6.5596e-14)
(978.58 -1.13113e-09 6.18887e-14)
(978.58 -1.14361e-09 6.51588e-14)
(978.58 -1.15453e-09 6.59891e-14)
(978.58 -1.16309e-09 6.47677e-14)
(978.58 -1.16703e-09 7.30733e-14)
(978.58 -1.17114e-09 7.277e-14)
(978.58 -1.17319e-09 6.94083e-14)
(978.58 -1.17027e-09 6.89229e-14)
(978.58 -1.15996e-09 6.76084e-14)
(978.58 -1.12218e-09 6.66558e-14)
(978.58 -1.07516e-09 6.78299e-14)
(978.58 -9.88421e-10 6.72381e-14)
(978.58 -8.28661e-10 6.92026e-14)
(978.58 -5.57732e-10 7.20334e-14)
(978.58 -1.24391e-10 6.92103e-14)
(978.58 5.44861e-10 6.91874e-14)
(978.58 1.49402e-09 7.28949e-14)
(978.58 2.76453e-09 7.32575e-14)
(978.58 4.50437e-09 7.44107e-14)
(978.58 7.00758e-09 7.26924e-14)
(978.58 1.06984e-08 7.08641e-14)
(978.58 1.6107e-08 7.13159e-14)
(978.58 2.40121e-08 7.65131e-14)
(978.58 3.56008e-08 7.68465e-14)
(978.58 5.2638e-08 7.04738e-14)
(978.58 7.77009e-08 7.27077e-14)
(978.58 1.14603e-07 7.28806e-14)
(978.58 1.69047e-07 7.18173e-14)
(978.58 2.49538e-07 7.31225e-14)
(978.58 3.68841e-07 7.41177e-14)
(978.58 5.4579e-07 7.73205e-14)
(978.58 8.10353e-07 7.56027e-14)
(978.58 1.20198e-06 7.23582e-14)
(978.58 1.82459e-06 7.43095e-14)
(978.58 2.76716e-06 7.54192e-14)
(978.58 -1.25531e-09 7.89548e-14)
(978.58 -1.26651e-09 7.92976e-14)
(978.58 -1.27722e-09 8.16666e-14)
(978.58 -1.28299e-09 8.26442e-14)
(978.58 -1.28903e-09 8.02425e-14)
(978.58 -1.294e-09 7.76753e-14)
(978.58 -1.29435e-09 8.0838e-14)
(978.58 -1.29021e-09 8.29793e-14)
(978.58 -1.26191e-09 7.80693e-14)
(978.58 -1.2228e-09 8.184e-14)
(978.58 -1.15649e-09 8.14785e-14)
(978.58 -1.03824e-09 7.97244e-14)
(978.58 -8.28992e-10 7.97199e-14)
(978.58 -4.92679e-10 7.94885e-14)
(978.58 2.72218e-11 7.9771e-14)
(978.58 7.95791e-10 8.3152e-14)
(978.58 1.83139e-09 8.47169e-14)
(978.58 3.21917e-09 8.53209e-14)
(978.58 5.14181e-09 8.34928e-14)
(978.58 7.93453e-09 8.54119e-14)
(978.58 1.20159e-08 8.40548e-14)
(978.58 1.79354e-08 8.35342e-14)
(978.58 2.65093e-08 8.3162e-14)
(978.58 3.89627e-08 8.46756e-14)
(978.58 5.70936e-08 8.36785e-14)
(978.58 8.35379e-08 8.72337e-14)
(978.58 1.2217e-07 8.62144e-14)
(978.58 1.78692e-07 8.02001e-14)
(978.58 2.6151e-07 8.1811e-14)
(978.58 3.83075e-07 8.51038e-14)
(978.58 5.61872e-07 8.55193e-14)
(978.58 8.25303e-07 8.60374e-14)
(978.58 1.21435e-06 8.88203e-14)
(978.58 1.7893e-06 9.06903e-14)
(978.58 2.64558e-06 9.04799e-14)
(978.58 3.9086e-06 8.77561e-14)
(978.58 5.90483e-06 8.85947e-14)
(978.58 8.91016e-06 8.921e-14)
(978.58 -1.3907e-09 9.29349e-14)
(978.58 -1.39633e-09 9.39595e-14)
(978.58 -1.39919e-09 9.54316e-14)
(978.58 -1.39787e-09 9.74601e-14)
(978.58 -1.37768e-09 9.38834e-14)
(978.58 -1.34475e-09 9.08437e-14)
(978.58 -1.29245e-09 9.31937e-14)
(978.58 -1.2013e-09 9.50685e-14)
(978.58 -1.03554e-09 9.7528e-14)
(978.58 -7.64184e-10 9.51447e-14)
(978.58 -3.43578e-10 9.38205e-14)
(978.58 2.88872e-10 9.40406e-14)
(978.58 1.15663e-09 9.39939e-14)
(978.58 2.30462e-09 9.53704e-14)
(978.58 3.85762e-09 9.57683e-14)
(978.58 6.0473e-09 9.8102e-14)
(978.58 9.21708e-09 9.88644e-14)
(978.58 1.37887e-08 9.59629e-14)
(978.58 2.03554e-08 9.5739e-14)
(978.58 2.98007e-08 9.58925e-14)
(978.58 4.34124e-08 9.45006e-14)
(978.58 6.30516e-08 9.61807e-14)
(978.58 9.14403e-08 9.36942e-14)
(978.58 1.32567e-07 9.41857e-14)
(978.58 1.92246e-07 9.49162e-14)
(978.58 2.78969e-07 9.93951e-14)
(978.58 4.05182e-07 9.66582e-14)
(978.58 5.89188e-07 9.66453e-14)
(978.58 8.57946e-07 9.96736e-14)
(978.58 1.25118e-06 1.01138e-13)
(978.58 1.82758e-06 1.01431e-13)
(978.58 2.67384e-06 1.00695e-13)
(978.58 3.91922e-06 1.01214e-13)
(978.58 5.75335e-06 1.00087e-13)
(978.58 8.47462e-06 1.02502e-13)
(978.58 1.24747e-05 1.03702e-13)
(978.58 1.87608e-05 9.89839e-14)
(978.58 2.81733e-05 9.62968e-14)
(978.58 -1.49101e-09 1.07454e-13)
(978.58 -1.47458e-09 1.07911e-13)
(978.58 -1.44591e-09 1.09666e-13)
(978.58 -1.40407e-09 1.08853e-13)
(978.58 -1.32917e-09 1.08777e-13)
(978.58 -1.19267e-09 1.09737e-13)
(978.58 -9.66935e-10 1.11997e-13)
(978.58 -6.15619e-10 1.09372e-13)
(978.58 -8.5852e-11 1.09398e-13)
(978.58 6.57243e-10 1.07033e-13)
(978.58 1.6347e-09 1.05788e-13)
(978.58 2.93432e-09 1.08438e-13)
(978.58 4.72696e-09 1.04212e-13)
(978.58 7.28397e-09 1.09481e-13)
(978.58 1.0941e-08 1.09443e-13)
(978.58 1.61454e-08 1.102e-13)
(978.58 2.35492e-08 1.08196e-13)
(978.58 3.41159e-08 1.06378e-13)
(978.58 4.9221e-08 1.06452e-13)
(978.58 7.08391e-08 1.07913e-13)
(978.58 1.01834e-07 1.07352e-13)
(978.58 1.46354e-07 1.07414e-13)
(978.58 2.10407e-07 1.0547e-13)
(978.58 3.02713e-07 1.05807e-13)
(978.58 4.3596e-07 1.08688e-13)
(978.58 6.2862e-07 1.10665e-13)
(978.58 9.07652e-07 1.11072e-13)
(978.58 1.31247e-06 1.08788e-13)
(978.58 1.90081e-06 1.09368e-13)
(978.58 2.75734e-06 1.10535e-13)
(978.58 4.00639e-06 1.12116e-13)
(978.58 5.83103e-06 1.12382e-13)
(978.58 8.50091e-06 1.12743e-13)
(978.58 1.24165e-05 1.12535e-13)
(978.58 1.81633e-05 1.16099e-13)
(978.58 2.66573e-05 1.14722e-13)
(978.58 3.90989e-05 1.11342e-13)
(978.58 5.8539e-05 1.10143e-13)
(978.58 8.74933e-05 1.09937e-13)
(978.58 -1.43179e-09 1.19336e-13)
(978.58 -1.31418e-09 1.18647e-13)
(978.58 -1.11815e-09 1.21056e-13)
(978.58 -8.14646e-10 1.24545e-13)
(978.58 -3.5708e-10 1.23676e-13)
(978.58 2.96113e-10 1.24725e-13)
(978.58 1.15486e-09 1.2327e-13)
(978.58 2.28013e-09 1.19677e-13)
(978.58 3.79874e-09 1.18897e-13)
(978.58 5.92942e-09 1.18875e-13)
(978.58 8.95464e-09 1.21075e-13)
(978.58 1.32227e-08 1.17523e-13)
(978.58 1.92268e-08 1.17972e-13)
(978.58 2.77078e-08 1.22608e-13)
(978.58 3.97197e-08 1.21955e-13)
(978.58 5.67492e-08 1.21052e-13)
(978.58 8.09222e-08 1.19083e-13)
(978.58 1.15299e-07 1.22113e-13)
(978.58 1.6427e-07 1.20835e-13)
(978.58 2.34146e-07 1.20409e-13)
(978.58 3.34018e-07 1.18563e-13)
(978.58 4.77012e-07 1.18748e-13)
(978.58 6.82084e-07 1.18925e-13)
(978.58 9.76669e-07 1.21415e-13)
(978.58 1.40054e-06 1.23191e-13)
(978.58 2.01145e-06 1.23228e-13)
(978.58 2.89343e-06 1.22305e-13)
(978.58 4.16891e-06 1.19091e-13)
(978.58 6.01653e-06 1.20785e-13)
(978.58 8.6974e-06 1.24933e-13)
(978.58 1.25938e-05 1.24925e-13)
(978.58 1.82666e-05 1.2486e-13)
(978.58 2.65394e-05 1.2451e-13)
(978.58 3.86302e-05 1.24864e-13)
(978.58 5.63141e-05 1.25849e-13)
(978.58 8.23533e-05 1.23254e-13)
(978.58 0.000120362 1.22029e-13)
(978.58 0.00017942 1.25389e-13)
(978.58 0.000266927 1.25336e-13)
(978.58 -5.49193e-10 1.38461e-13)
(978.58 3.92098e-11 1.36824e-13)
(978.58 8.1423e-10 1.35576e-13)
(978.58 1.81708e-09 1.35704e-13)
(978.58 3.1474e-09 1.33483e-13)
(978.58 4.98373e-09 1.35154e-13)
(978.58 7.5664e-09 1.36898e-13)
(978.58 1.11806e-08 1.34455e-13)
(978.58 1.62201e-08 1.31523e-13)
(978.58 2.32642e-08 1.33294e-13)
(978.58 3.31386e-08 1.32718e-13)
(978.58 4.69993e-08 1.32439e-13)
(978.58 6.64853e-08 1.30581e-13)
(978.58 9.39395e-08 1.31251e-13)
(978.58 1.32677e-07 1.37166e-13)
(978.58 1.87408e-07 1.37742e-13)
(978.58 2.64858e-07 1.37628e-13)
(978.58 3.74655e-07 1.33424e-13)
(978.58 5.30587e-07 1.29906e-13)
(978.58 7.52403e-07 1.30858e-13)
(978.58 1.06845e-06 1.32343e-13)
(978.58 1.51951e-06 1.32063e-13)
(978.58 2.16431e-06 1.30677e-13)
(978.58 3.0876e-06 1.31716e-13)
(978.58 4.4119e-06 1.3407e-13)
(978.58 6.31457e-06 1.35268e-13)
(978.58 9.05276e-06 1.31062e-13)
(978.58 1.29999e-05 1.32426e-13)
(978.58 1.8699e-05 1.36918e-13)
(978.58 2.69413e-05 1.38719e-13)
(978.58 3.88814e-05 1.36853e-13)
(978.58 5.62078e-05 1.35116e-13)
(978.58 8.13899e-05 1.35119e-13)
(978.58 0.000118068 1.36134e-13)
(978.58 0.000171526 1.37675e-13)
(978.58 0.000249947 1.37013e-13)
(978.58 0.000364015 1.3846e-13)
(978.579 0.000540269 1.38417e-13)
(978.579 0.000800085 1.36248e-13)
(978.58 1.49699e-09 1.52411e-13)
(978.58 2.70364e-09 1.49775e-13)
(978.58 4.34114e-09 1.49177e-13)
(978.58 6.61754e-09 1.49946e-13)
(978.58 9.77822e-09 1.49558e-13)
(978.58 1.41476e-08 1.49767e-13)
(978.58 2.01906e-08 1.49859e-13)
(978.58 2.85772e-08 1.49628e-13)
(978.58 4.024e-08 1.47564e-13)
(978.58 5.64782e-08 1.48669e-13)
(978.58 7.91303e-08 1.46673e-13)
(978.58 1.10783e-07 1.46186e-13)
(978.58 1.55082e-07 1.43256e-13)
(978.58 2.17179e-07 1.42146e-13)
(978.58 3.0436e-07 1.46689e-13)
(978.58 4.26962e-07 1.47718e-13)
(978.58 5.99662e-07 1.45604e-13)
(978.58 8.43346e-07 1.45174e-13)
(978.58 1.18777e-06 1.44693e-13)
(978.58 1.6754e-06 1.42368e-13)
(978.58 2.3669e-06 1.40139e-13)
(978.58 3.34915e-06 1.42426e-13)
(978.58 4.74671e-06 1.42964e-13)
(978.58 6.73849e-06 1.4183e-13)
(978.58 9.58182e-06 1.45052e-13)
(978.58 1.36474e-05 1.48513e-13)
(978.58 1.947e-05 1.44149e-13)
(978.58 2.78225e-05 1.42409e-13)
(978.58 3.98236e-05 1.46442e-13)
(978.58 5.70951e-05 1.47683e-13)
(978.58 8.19921e-05 1.48716e-13)
(978.58 0.000117939 1.46598e-13)
(978.58 0.000169927 1.47253e-13)
(978.58 0.000245232 1.49076e-13)
(978.58 0.000354534 1.51472e-13)
(978.579 0.000513296 1.50301e-13)
(978.579 0.000745315 1.48799e-13)
(978.579 0.00108162 1.49265e-13)
(978.578 0.00159844 1.47643e-13)
(978.577 0.00235644 1.48212e-13)
(978.58 8.86567e-09 1.65847e-13)
(978.58 1.27711e-08 1.65062e-13)
(978.58 1.81174e-08 1.6354e-13)
(978.58 2.54706e-08 1.61431e-13)
(978.58 3.5604e-08 1.62183e-13)
(978.58 4.95786e-08 1.63165e-13)
(978.58 6.88813e-08 1.63707e-13)
(978.58 9.55976e-08 1.61718e-13)
(978.58 1.32632e-07 1.6157e-13)
(978.58 1.84047e-07 1.62152e-13)
(978.58 2.55543e-07 1.57035e-13)
(978.58 3.55137e-07 1.57748e-13)
(978.58 4.94103e-07 1.57216e-13)
(978.58 6.88317e-07 1.57115e-13)
(978.58 9.6019e-07 1.58436e-13)
(978.58 1.34142e-06 1.57732e-13)
(978.58 1.87688e-06 1.54667e-13)
(978.58 2.63022e-06 1.53518e-13)
(978.58 3.69185e-06 1.55583e-13)
(978.58 5.19033e-06 1.54112e-13)
(978.58 7.30891e-06 1.57534e-13)
(978.58 1.0309e-05 1.59021e-13)
(978.58 1.45645e-05 1.59602e-13)
(978.58 2.06101e-05 1.56801e-13)
(978.58 2.92132e-05 1.56057e-13)
(978.58 4.14752e-05 1.56938e-13)
(978.58 5.89809e-05 1.56139e-13)
(978.58 8.40129e-05 1.55723e-13)
(978.58 0.000119864 1.57113e-13)
(978.58 0.000171294 1.59686e-13)
(978.58 0.000245188 1.59916e-13)
(978.58 0.000351526 1.59483e-13)
(978.579 0.000504803 1.59234e-13)
(978.579 0.000726073 1.61215e-13)
(978.579 0.00104613 1.61905e-13)
(978.578 0.00150941 1.57747e-13)
(978.577 0.00218391 1.59602e-13)
(978.576 0.00315818 1.60906e-13)
(978.574 0.00464718 1.61103e-13)
(978.572 0.00682009 1.60709e-13)
(978.58 3.25528e-08 1.77629e-13)
(978.58 4.4958e-08 1.75314e-13)
(978.58 6.19378e-08 1.75914e-13)
(978.58 8.52172e-08 1.76503e-13)
(978.58 1.17179e-07 1.77075e-13)
(978.58 1.6113e-07 1.77673e-13)
(978.58 2.21673e-07 1.7359e-13)
(978.58 3.0522e-07 1.7156e-13)
(978.58 4.20699e-07 1.75522e-13)
(978.58 5.8057e-07 1.74638e-13)
(978.58 8.02256e-07 1.70875e-13)
(978.58 1.11017e-06 1.74493e-13)
(978.58 1.53857e-06 1.72625e-13)
(978.58 2.13555e-06 1.69915e-13)
(978.58 2.96884e-06 1.69437e-13)
(978.58 4.13387e-06 1.65793e-13)
(978.58 5.76536e-06 1.65153e-13)
(978.58 8.05379e-06 1.67931e-13)
(978.58 1.12689e-05 1.69092e-13)
(978.58 1.57933e-05 1.7151e-13)
(978.58 2.21706e-05 1.76028e-13)
(978.58 3.11741e-05 1.71466e-13)
(978.58 4.39058e-05 1.70078e-13)
(978.58 6.19386e-05 1.69783e-13)
(978.58 8.75203e-05 1.6924e-13)
(978.58 0.000123869 1.6911e-13)
(978.58 0.000175597 1.67858e-13)
(978.58 0.000249326 1.67743e-13)
(978.58 0.00035458 1.74637e-13)
(978.579 0.000505073 1.71511e-13)
(978.579 0.000720588 1.68184e-13)
(978.579 0.0010297 1.68085e-13)
(978.578 0.00147376 1.68728e-13)
(978.577 0.00211262 1.71948e-13)
(978.576 0.00303353 1.73841e-13)
(978.575 0.00436187 1.72765e-13)
(978.572 0.00628863 1.71548e-13)
(978.569 0.00906175 1.73029e-13)
(978.564 0.013277 1.76858e-13)
(978.557 0.0193975 1.74301e-13)
(978.58 1.06884e-07 1.90096e-13)
(978.58 1.45657e-07 1.90768e-13)
(978.58 1.98566e-07 1.8996e-13)
(978.58 2.70884e-07 1.87347e-13)
(978.58 3.69907e-07 1.88058e-13)
(978.58 5.05721e-07 1.89187e-13)
(978.58 6.92298e-07 1.86715e-13)
(978.58 9.49024e-07 1.82673e-13)
(978.58 1.30285e-06 1.86683e-13)
(978.58 1.79129e-06 1.8703e-13)
(978.58 2.46667e-06 1.84435e-13)
(978.58 3.4021e-06 1.87115e-13)
(978.58 4.6998e-06 1.82459e-13)
(978.58 6.50301e-06 1.79574e-13)
(978.58 9.01275e-06 1.81622e-13)
(978.58 1.25115e-05 1.8024e-13)
(978.58 1.73969e-05 1.78577e-13)
(978.58 2.42295e-05 1.8181e-13)
(978.58 3.38006e-05 1.83984e-13)
(978.58 4.72294e-05 1.86616e-13)
(978.58 6.61005e-05 1.85538e-13)
(978.58 9.26614e-05 1.8155e-13)
(978.58 0.000130104 1.83707e-13)
(978.58 0.000182971 1.82764e-13)
(978.58 0.000257731 1.80168e-13)
(978.58 0.000363617 1.82359e-13)
(978.579 0.000513824 1.78396e-13)
(978.579 0.000727235 1.81417e-13)
(978.579 0.00103091 1.81764e-13)
(978.578 0.00146371 1.79756e-13)
(978.577 0.00208146 1.82325e-13)
(978.576 0.00296453 1.83786e-13)
(978.575 0.00422884 1.81688e-13)
(978.573 0.0060416 1.81161e-13)
(978.569 0.0086455 1.84988e-13)
(978.565 0.0123882 1.85317e-13)
(978.558 0.0177964 1.85772e-13)
(978.549 0.0255524 1.86313e-13)
(978.535 0.0372771 1.85488e-13)
(978.516 0.054214 1.84767e-13)
(978.58 3.35682e-07 2.03654e-13)
(978.58 4.54692e-07 2.0339e-13)
(978.58 6.1666e-07 2.01622e-13)
(978.58 8.37463e-07 2.00153e-13)
(978.58 1.13898e-06 1.98818e-13)
(978.58 1.55139e-06 1.98483e-13)
(978.58 2.11638e-06 1.99454e-13)
(978.58 2.89166e-06 1.9843e-13)
(978.58 3.95725e-06 1.99544e-13)
(978.58 5.42423e-06 1.97987e-13)
(978.58 7.4471e-06 1.9774e-13)
(978.58 1.0241e-05 1.97907e-13)
(978.58 1.41059e-05 1.93584e-13)
(978.58 1.9461e-05 1.93708e-13)
(978.58 2.68926e-05 1.95985e-13)
(978.58 3.72223e-05 1.94735e-13)
(978.58 5.16031e-05 1.94166e-13)
(978.58 7.16556e-05 1.94592e-13)
(978.58 9.96606e-05 1.94294e-13)
(978.58 0.000138834 1.95921e-13)
(978.58 0.000193716 1.95584e-13)
(978.58 0.000270726 1.93413e-13)
(978.58 0.000378955 1.93504e-13)
(978.579 0.000531294 1.93384e-13)
(978.579 0.000746054 1.93669e-13)
(978.579 0.00104927 1.92885e-13)
(978.578 0.00147804 1.93646e-13)
(978.577 0.00208526 1.93671e-13)
(978.576 0.00294649 1.91619e-13)
(978.575 0.00416982 1.94946e-13)
(978.573 0.0059101 1.95474e-13)
(978.57 0.00838944 1.97322e-13)
(978.565 0.0119271 1.92718e-13)
(978.559 0.0169816 1.93476e-13)
(978.55 0.0242165 1.96418e-13)
(978.538 0.0345781 1.9872e-13)
(978.52 0.0494929 1.97895e-13)
(978.495 0.0708026 1.95977e-13)
(978.457 0.102836 1.96047e-13)
(978.404 0.148861 1.98864e-13)
(978.58 1.02751e-06 2.17327e-13)
(978.58 1.38661e-06 2.15851e-13)
(978.58 1.87408e-06 2.15116e-13)
(978.58 2.53687e-06 2.11924e-13)
(978.58 3.43952e-06 2.12018e-13)
(978.58 4.67077e-06 2.15178e-13)
(978.58 6.35296e-06 2.13901e-13)
(978.58 8.65492e-06 2.10325e-13)
(978.58 1.181e-05 2.12069e-13)
(978.58 1.61415e-05 2.1242e-13)
(978.58 2.20972e-05 2.11285e-13)
(978.58 3.02993e-05 2.09925e-13)
(978.58 4.16134e-05 2.06345e-13)
(978.58 5.72447e-05 2.08167e-13)
(978.58 7.88751e-05 2.10135e-13)
(978.58 0.000108854 2.0733e-13)
(978.58 0.000150469 2.09069e-13)
(978.58 0.000208326 2.10958e-13)
(978.58 0.000288889 2.08712e-13)
(978.579 0.000401244 2.07513e-13)
(978.579 0.000558176 2.06465e-13)
(978.579 0.000777706 2.04878e-13)
(978.579 0.00108527 2.08642e-13)
(978.578 0.00151683 2.09322e-13)
(978.577 0.00212329 2.099e-13)
(978.576 0.0029768 2.07183e-13)
(978.575 0.00417981 2.04716e-13)
(978.573 0.00587797 2.042e-13)
(978.57 0.00827863 2.03987e-13)
(978.565 0.0116773 2.06553e-13)
(978.559 0.0164959 2.05651e-13)
(978.551 0.0233375 2.05143e-13)
(978.539 0.0330649 2.06662e-13)
(978.523 0.0469143 2.06659e-13)
(978.499 0.0666641 2.04516e-13)
(978.465 0.0948441 2.06956e-13)
(978.417 0.135243 2.07524e-13)
(978.348 0.192734 2.06284e-13)
(978.248 0.278644 2.07923e-13)
(978.108 0.401346 2.09908e-13)
(978.58 3.08374e-06 2.33231e-13)
(978.58 4.14908e-06 2.3101e-13)
(978.58 5.59142e-06 2.27637e-13)
(978.58 7.54727e-06 2.26237e-13)
(978.58 1.02037e-05 2.26258e-13)
(978.58 1.38173e-05 2.25593e-13)
(978.58 1.8741e-05 2.25806e-13)
(978.58 2.54605e-05 2.25001e-13)
(978.58 3.46453e-05 2.26137e-13)
(978.58 4.72199e-05 2.22588e-13)
(978.58 6.44624e-05 2.20898e-13)
(978.58 8.81425e-05 2.21383e-13)
(978.58 0.000120714 2.20562e-13)
(978.58 0.000165586 2.22478e-13)
(978.58 0.000227498 2.22337e-13)
(978.58 0.000313052 2.24555e-13)
(978.579 0.00043146 2.2434e-13)
(978.579 0.00059559 2.21512e-13)
(978.579 0.000823444 2.21977e-13)
(978.578 0.00114025 2.22048e-13)
(978.578 0.00158139 2.18031e-13)
(978.577 0.0021966 2.18583e-13)
(978.576 0.00305585 2.19308e-13)
(978.574 0.00425774 2.17798e-13)
(978.572 0.00594137 2.19561e-13)
(978.569 0.00830332 2.1753e-13)
(978.565 0.0116216 2.17871e-13)
(978.559 0.0162903 2.17141e-13)
(978.551 0.022868 2.15816e-13)
(978.54 0.0321485 2.18433e-13)
(978.524 0.0452605 2.19843e-13)
(978.501 0.0638103 2.20512e-13)
(978.469 0.0900894 2.21015e-13)
(978.424 0.127362 2.17571e-13)
(978.361 0.180309 2.18249e-13)
(978.271 0.255543 2.20959e-13)
(978.143 0.362923 2.21671e-13)
(977.962 0.515051 2.20639e-13)
(977.698 0.740876 2.21383e-13)
(977.333 1.0611 2.23451e-13)
(978.58 6.78773e-06 2.471e-13)
(978.58 9.09314e-06 2.47804e-13)
(978.58 1.22012e-05 2.43272e-13)
(978.58 1.63981e-05 2.42126e-13)
(978.58 2.20741e-05 2.42476e-13)
(978.58 2.97629e-05 2.38866e-13)
(978.58 4.01945e-05 2.40799e-13)
(978.58 5.43695e-05 2.37353e-13)
(978.58 7.36614e-05 2.3617e-13)
(978.58 9.99576e-05 2.38241e-13)
(978.58 0.000135857 2.35399e-13)
(978.58 0.000184942 2.33225e-13)
(978.58 0.000252159 2.33306e-13)
(978.58 0.000344351 2.34874e-13)
(978.579 0.000470992 2.34025e-13)
(978.579 0.000645222 2.33831e-13)
(978.579 0.000885288 2.36384e-13)
(978.578 0.00121657 2.32632e-13)
(978.578 0.00167441 2.30988e-13)
(978.577 0.0023081 2.31872e-13)
(978.576 0.00318651 2.31632e-13)
(978.574 0.00440592 2.30127e-13)
(978.572 0.00610121 2.31142e-13)
(978.569 0.00846153 2.28691e-13)
(978.565 0.0117525 2.28396e-13)
(978.559 0.0163476 2.33012e-13)
(978.551 0.0227728 2.31065e-13)
(978.54 0.0317696 2.29433e-13)
(978.524 0.0443845 2.29437e-13)
(978.502 0.0620964 2.31995e-13)
(978.472 0.0869972 2.3172e-13)
(978.429 0.122049 2.27804e-13)
(978.369 0.171452 2.32697e-13)
(978.284 0.241158 2.34369e-13)
(978.166 0.339617 2.30775e-13)
(977.999 0.478851 2.32638e-13)
(977.763 0.675784 2.34983e-13)
(977.43 0.955334 2.34143e-13)
(976.962 1.34918 2.33046e-13)
(976.282 1.92909 2.34169e-13)
(975.352 2.74359 2.33284e-13)
(978.58 1.97318e-05 2.63625e-13)
(978.58 2.63639e-05 2.60426e-13)
(978.58 3.52817e-05 2.54814e-13)
(978.58 4.72916e-05 2.55998e-13)
(978.58 6.34911e-05 2.55505e-13)
(978.58 8.53756e-05 2.52231e-13)
(978.58 0.000114986 2.51248e-13)
(978.58 0.000155113 2.50155e-13)
(978.58 0.000209574 2.52438e-13)
(978.58 0.000283606 2.52469e-13)
(978.579 0.000384397 2.47939e-13)
(978.579 0.000521828 2.47366e-13)
(978.579 0.000709503 2.48592e-13)
(978.579 0.000966176 2.48019e-13)
(978.578 0.00131774 2.46346e-13)
(978.578 0.00179998 2.47797e-13)
(978.577 0.00246248 2.47812e-13)
(978.575 0.00337397 2.45012e-13)
(978.574 0.00462987 2.44154e-13)
(978.572 0.00636287 2.43901e-13)
(978.568 0.00875769 2.43632e-13)
(978.564 0.0120719 2.44966e-13)
(978.558 0.0166649 2.39991e-13)
(978.55 0.0230392 2.3705e-13)
(978.539 0.031898 2.43668e-13)
(978.523 0.0442267 2.45617e-13)
(978.502 0.0614072 2.41472e-13)
(978.472 0.08538 2.41355e-13)
(978.43 0.118874 2.41606e-13)
(978.373 0.165726 2.42933e-13)
(978.292 0.23134 2.41755e-13)
(978.18 0.323328 2.4371e-13)
(978.023 0.452416 2.4674e-13)
(977.804 0.633739 2.45219e-13)
(977.497 0.888549 2.46568e-13)
(977.066 1.24692 2.45099e-13)
(976.463 1.75059 2.43653e-13)
(975.615 2.46071 2.46251e-13)
(974.434 3.4529 2.4838e-13)
(972.737 4.89717 2.44806e-13)
(970.445 6.89642 2.44924e-13)
(978.58 4.2402e-05 2.76101e-13)
(978.58 5.64165e-05 2.74379e-13)
(978.58 7.51826e-05 2.67087e-13)
(978.58 0.00010035 2.68605e-13)
(978.58 0.000134157 2.70565e-13)
(978.58 0.000179636 2.67125e-13)
(978.58 0.000240914 2.66852e-13)
(978.58 0.000323602 2.67857e-13)
(978.579 0.000435354 2.65824e-13)
(978.579 0.00058661 2.67692e-13)
(978.579 0.000791646 2.66527e-13)
(978.578 0.00107 2.60938e-13)
(978.578 0.00144844 2.61102e-13)
(978.577 0.00196375 2.61027e-13)
(978.576 0.00266647 2.60403e-13)
(978.575 0.0036262 2.61481e-13)
(978.573 0.00493887 2.62032e-13)
(978.571 0.00673686 2.56928e-13)
(978.568 0.00920322 2.53831e-13)
(978.563 0.0125912 2.54388e-13)
(978.557 0.0172518 2.55849e-13)
(978.549 0.0236722 2.56521e-13)
(978.537 0.032529 2.54245e-13)
(978.522 0.0447636 2.53766e-13)
(978.5 0.0616868 2.56502e-13)
(978.471 0.0851259 2.57569e-13)
(978.43 0.117631 2.56095e-13)
(978.373 0.162765 2.55006e-13)
(978.295 0.225507 2.53935e-13)
(978.187 0.312818 2.53455e-13)
(978.037 0.434443 2.56626e-13)
(977.829 0.604021 2.58881e-13)
(977.541 0.84062 2.53766e-13)
(977.139 1.17087 2.51015e-13)
(976.58 1.63194 2.5342e-13)
(975.803 2.27568 2.54886e-13)
(974.721 3.17389 2.55062e-13)
(973.219 4.42492 2.55524e-13)
(971.132 6.16825 2.59122e-13)
(968.263 8.57387 2.58161e-13)
(964.224 12.0101 2.55426e-13)
(958.902 16.6496 2.56193e-13)
(978.58 9.02482e-05 2.86876e-13)
(978.58 0.000119579 2.85657e-13)
(978.58 0.000158694 2.83518e-13)
(978.58 0.000210934 2.83749e-13)
(978.58 0.000280812 2.84295e-13)
(978.579 0.000374424 2.82458e-13)
(978.579 0.000500019 2.8121e-13)
(978.579 0.000668782 2.82278e-13)
(978.579 0.000895892 2.8105e-13)
(978.578 0.00120198 2.80135e-13)
(978.578 0.00161513 2.80215e-13)
(978.577 0.00217364 2.75989e-13)
(978.576 0.00292975 2.73535e-13)
(978.574 0.00395491 2.74535e-13)
(978.573 0.00534684 2.74368e-13)
(978.57 0.00723952 2.73462e-13)
(978.567 0.00981677 2.73279e-13)
(978.562 0.0133312 2.69935e-13)
(978.556 0.0181304 2.67712e-13)
(978.547 0.0246933 2.66772e-13)
(978.535 0.0336805 2.69425e-13)
(978.519 0.0460044 2.70829e-13)
(978.497 0.0629267 2.68236e-13)
(978.467 0.0861928 2.66058e-13)
(978.427 0.118222 2.68836e-13)
(978.371 0.16237 2.68338e-13)
(978.294 0.223293 2.66691e-13)
(978.188 0.307454 2.65348e-13)
(978.043 0.423834 2.65424e-13)
(977.842 0.58492 2.64406e-13)
(977.566 0.808048 2.66109e-13)
(977.185 1.11726 2.68596e-13)
(976.659 1.54588 2.6605e-13)
(975.932 2.14007 2.62793e-13)
(974.928 2.96343 2.65763e-13)
(973.543 4.10297 2.66682e-13)
(971.637 5.67688 2.66661e-13)
(969.02 7.8461 2.68857e-13)
(965.445 10.8204 2.68282e-13)
(960.583 14.8867 2.69495e-13)
(954.087 20.3537 2.69187e-13)
(945.25 27.9237 2.67946e-13)
(934.079 37.7278 2.69758e-13)
(978.58 0.000251046 3.0001e-13)
(978.579 0.000331788 3.0133e-13)
(978.579 0.000439183 3.00845e-13)
(978.579 0.000582246 2.98059e-13)
(978.579 0.000773112 2.95529e-13)
(978.578 0.00102814 2.94326e-13)
(978.578 0.00136939 2.94868e-13)
(978.577 0.00182671 2.94228e-13)
(978.576 0.00244049 2.92066e-13)
(978.575 0.00326545 2.9181e-13)
(978.574 0.00437587 2.90209e-13)
(978.572 0.00587267 2.8755e-13)
(978.569 0.00789322 2.88688e-13)
(978.565 0.0106247 2.87664e-13)
(978.56 0.0143227 2.86686e-13)
(978.554 0.019336 2.86523e-13)
(978.544 0.0261423 2.83932e-13)
(978.532 0.0353954 2.85489e-13)
(978.516 0.0479925 2.84289e-13)
(978.493 0.0651647 2.82746e-13)
(978.463 0.0886034 2.85579e-13)