/*--------------------------------*- C++ -*----------------------------------*\
| =========                 |                                                 |
| \\      /  F ield         | OpenFOAM: The Open Source CFD Toolbox           |
|  \\    /   O peration     | Version:  v1706                                 |
|   \\  /    A nd           | Web:      www.OpenFOAM.com                      |
|    \\/     M anipulation  |                                                 |
\*---------------------------------------------------------------------------*/
FoamFile
{
    version     2.0;
    format      ascii;
    class       volScalarField;
    location    "4e-05";
    object      wallHeatFlux;
}
// * * * * * * * * * * * * * * * * * * * * * * * * * * * * * * * * * * * * * //

dimensions      [1 0 -3 0 0 0 0];


internalField   uniform 0;

boundaryField
{
    cone
    {
        type            calculated;
        value           nonuniform List<scalar> 
153
(
11747.7
11623
11499.2
11376.2
11253.9
11132.3
11011.4
10891.2
10771.7
10653
10535
10417.8
10301.4
10185.9
10071.2
9957.5
9844.7
9732.88
9622.08
9512.32
9403.65
9296.11
9189.73
9084.54
8980.6
8877.93
8776.57
8676.55
8577.92
8480.68
8384.87
8290.53
8197.67
8106.3
8016.43
7928.06
7841.19
7755.79
7671.84
7589.27
7508.02
7427.99
7349.04
7270.97
7193.48
7116.17
7038.43
6957.48
6874.97
6794.47
6716.69
6641
6566.74
6493.67
6421.62
6350.45
6280.07
6210.36
6141.25
6072.67
6004.56
5936.86
5869.54
5802.55
5735.86
5669.42
5603.21
5537.2
5471.35
5405.65
5340.08
5274.6
5209.19
5143.85
5078.54
5013.26
4947.99
4882.7
4817.4
4752.08
4686.71
4621.3
4555.84
4490.33
4424.77
4359.16
4293.5
4227.79
4162.06
4096.3
4030.52
3964.76
3899.01
3833.3
3767.65
3702.09
3636.63
3571.31
3506.16
3441.19
3376.46
3311.99
3247.81
3183.96
3120.47
3057.39
2994.76
2932.6
2870.96
2809.88
2749.4
2689.55
2630.37
2571.9
2514.17
2457.21
2401.07
2345.76
2291.31
2237.76
2185.11
2133.41
2082.64
2032.85
1984.02
1936.18
1889.31
1843.43
1798.53
1754.61
1711.66
1669.67
1628.64
1588.55
1549.4
1511.18
1473.89
1437.53
1402.1
1367.62
1334.09
1301.55
1270.02
1239.53
1210.13
1181.86
1154.77
1128.9
1104.31
1081.05
1059.16
1038.67
1019.6
)
;
    }
    inlet
    {
        type            calculated;
        value           uniform 0;
    }
    rWedge
    {
        type            wedge;
    }
    lWedge
    {
        type            wedge;
    }
    outlet
    {
        type            calculated;
        value           nonuniform 0();
    }
    procBoundary2to0
    {
        type            processor;
        value           uniform 0;
    }
    procBoundary2to1
    {
        type            processor;
        value           uniform 0;
    }
    procBoundary2to3
    {
        type            processor;
        value           uniform 0;
    }
}


// ************************************************************************* //
