/*--------------------------------*- C++ -*----------------------------------*\
| =========                 |                                                 |
| \\      /  F ield         | OpenFOAM: The Open Source CFD Toolbox           |
|  \\    /   O peration     | Version:  v1706                                 |
|   \\  /    A nd           | Web:      www.OpenFOAM.com                      |
|    \\/     M anipulation  |                                                 |
\*---------------------------------------------------------------------------*/
FoamFile
{
    version     2.0;
    format      ascii;
    class       volScalarField;
    location    "1.8e-05";
    object      p;
}
// * * * * * * * * * * * * * * * * * * * * * * * * * * * * * * * * * * * * * //

dimensions      [1 -1 -2 0 0 0 0];


internalField   nonuniform List<scalar> 
29871
(
21.9139
21.9139
21.9139
21.9139
21.9139
21.9139
21.9139
21.9139
21.9139
21.9139
21.9139
21.9139
21.9139
21.9139
21.9139
21.9139
21.9139
21.9139
21.9139
21.9139
21.9139
21.9139
21.9139
21.9139
21.9139
21.9139
21.9139
21.9139
21.9139
21.9139
21.9139
21.9139
21.9139
21.9139
21.9139
21.9139
21.9139
21.9139
21.9139
21.9139
21.9139
21.9139
21.9139
21.9139
21.9139
21.9139
21.9139
21.9139
21.9139
21.9139
21.9139
21.9139
21.9139
21.9139
21.9139
21.9139
21.9139
21.9139
21.9139
21.9139
21.9139
21.9139
21.9139
21.9139
21.9139
21.9139
21.9139
21.9139
21.9139
21.9139
21.9139
21.9139
21.9139
21.9139
21.9139
21.9139
21.9139
21.9139
21.9139
21.9139
21.9139
21.9139
21.9139
21.9139
21.9139
21.9139
21.9139
21.9139
21.9139
21.9139
21.9139
21.9139
21.9139
21.9139
21.9139
21.9139
21.9139
21.9139
21.9139
21.9139
21.9139
21.9139
21.9139
21.9139
21.9139
21.9139
21.9139
21.9139
21.9139
21.9139
21.9139
21.9139
21.9139
21.9139
21.9139
21.9139
21.9139
21.9139
21.9139
21.9139
21.9139
21.9139
21.9139
21.9139
21.9139
21.9139
21.9139
21.9139
21.9139
21.9139
21.9139
21.9139
21.9139
21.9139
21.9139
21.9139
21.9139
21.9139
21.9139
21.9139
21.9139
21.9139
21.9139
21.9139
21.9139
21.9139
21.9139
21.9139
21.9139
21.9139
21.9139
21.9139
21.9139
21.9139
21.9139
21.9139
21.9139
21.9139
21.9139
21.9139
21.9139
21.9139
21.9139
21.9139
21.9139
21.9139
21.9139
21.9139
21.9139
21.9139
21.9139
21.9139
21.9139
21.9139
21.9139
21.9139
21.9139
21.9139
21.9139
21.9139
21.9139
21.9139
21.9139
21.9139
21.9139
21.9139
21.9139
21.9139
21.9139
21.9139
21.9139
21.9139
21.9139
21.9139
21.9139
21.9139
21.9139
21.9139
21.9139
21.9139
21.9139
21.9139
21.9139
21.9139
21.9139
21.9139
21.9139
21.9139
21.9139
21.9139
21.9139
21.9139
21.9139
21.9139
21.9139
21.9139
21.9139
21.9139
21.9139
21.9139
21.9139
21.9139
21.9139
21.9139
21.9139
21.9139
21.9139
21.9139
21.9139
21.9139
21.9139
21.9139
21.9139
21.9139
21.9139
21.9139
21.9139
21.9139
21.9139
21.9139
21.9139
21.9139
21.9139
21.9139
21.9139
21.9139
21.9139
21.9139
21.9139
21.9139
21.9139
21.9139
21.9139
21.9139
21.9139
21.9139
21.9139
21.9139
21.9139
21.9139
21.9139
21.9139
21.9139
21.9139
21.9139
21.9139
21.9139
21.9139
21.9139
21.9139
21.9139
21.9139
21.9139
21.9139
21.9139
21.9139
21.9139
21.9139
21.9139
21.9139
21.9139
21.9139
21.9139
21.9139
21.9139
21.9139
21.9139
21.9139
21.9139
21.9139
21.9139
21.9139
21.9139
21.9139
21.9139
21.9139
21.9139
21.9139
21.9139
21.9139
21.9139
21.9139
21.9139
21.9139
21.9139
21.9139
21.9139
21.9139
21.9139
21.9139
21.9139
21.9139
21.9139
21.9139
21.9139
21.9139
21.9139
21.9139
21.9139
21.9139
21.9139
21.9139
21.9139
21.9139
21.9139
21.9139
21.9139
21.9139
21.9139
21.9139
21.9139
21.9139
21.9139
21.9139
21.9139
21.9139
21.9139
21.9139
21.9139
21.9139
21.9139
21.9139
21.9139
21.9139
21.9139
21.9139
21.9139
21.9139
21.9139
21.9139
21.9139
21.9139
21.9139
21.9139
21.9139
21.9139
21.9139
21.9139
21.9139
21.9139
21.9139
21.9139
21.9139
21.9139
21.9139
21.9139
21.9139
21.9139
21.9139
21.9139
21.9139
21.9139
21.9139
21.9139
21.9139
21.9139
21.9139
21.9139
21.9139
21.9139
21.9139
21.9139
21.9139
21.9139
21.9139
21.9139
21.9139
21.9139
21.9139
21.9139
21.9139
21.9139
21.9139
21.9139
21.9139
21.9139
21.9139
21.9139
21.9139
21.9139
21.9139
21.9139
21.9139
21.9139
21.9139
21.9139
21.9139
21.9139
21.9139
21.9139
21.9139
21.9139
21.9139
21.9139
21.9139
21.9139
21.9139
21.9139
21.9139
21.9139
21.9139
21.9139
21.9139
21.9139
21.9139
21.9139
21.9139
21.9139
21.9139
21.9139
21.9139
21.9139
21.9139
21.9139
21.9139
21.9139
21.9139
21.9139
21.9139
21.9139
21.9139
21.9139
21.9139
21.9139
21.9139
21.9139
21.9139
21.9139
21.9139
21.9139
21.9139
21.9139
21.9139
21.9139
21.9139
21.9139
21.9139
21.9139
21.9139
21.9139
21.9139
21.9139
21.9139
21.9139
21.9139
21.9139
21.9139
21.9139
21.9139
21.9139
21.9139
21.9139
21.9139
21.9139
21.9139
21.9139
21.9139
21.9139
21.9139
21.9139
21.9139
21.9139
21.9139
21.9139
21.9139
21.9139
21.9139
21.9139
21.9139
21.9139
21.9139
21.9139
21.9139
21.9139
21.9139
21.9139
21.9139
21.9139
21.9139
21.9139
21.9139
21.9139
21.9139
21.9139
21.9139
21.9139
21.9139
21.9139
21.9139
21.9139
21.9139
21.9139
21.9139
21.9139
21.9139
21.9139
21.9139
21.9139
21.9139
21.9139
21.9139
21.9139
21.9139
21.9139
21.9139
21.9139
21.9139
21.9139
21.9139
21.9139
21.9139
21.9139
21.9139
21.9139
21.9139
21.9139
21.9139
21.9139
21.9139
21.9139
21.9139
21.9139
21.9139
21.9139
21.9139
21.9139
21.9139
21.9139
21.9139
21.9139
21.9139
21.9139
21.9139
21.9139
21.9139
21.9139
21.9139
21.9139
21.9139
21.9139
21.9139
21.9139
21.9139
21.9139
21.9139
21.9139
21.9139
21.9139
21.9139
21.9139
21.9139
21.9139
21.9139
21.9139
21.9139
21.9139
21.9139
21.9139
21.9139
21.9139
21.9139
21.9139
21.9139
21.9139
21.9139
21.9139
21.9139
21.9139
21.9139
21.9139
21.9139
21.9139
21.9139
21.9139
21.9139
21.9139
21.9139
21.9139
21.9139
21.9139
21.9139
21.9139
21.9139
21.9139
21.9139
21.9139
21.9139
21.9139
21.9139
21.9139
21.9139
21.9139
21.9139
21.9139
21.9139
21.9139
21.9139
21.9139
21.9139
21.9139
21.9139
21.9139
21.9139
21.9139
21.9139
21.9139
21.9139
21.9139
21.9139
21.9139
21.9139
21.9139
21.9139
21.9139
21.9139
21.9139
21.9139
21.9139
21.9139
21.9139
21.9139
21.9139
21.9139
21.9139
21.9139
21.9139
21.9139
21.9139
21.9139
21.9139
21.9139
21.9139
21.9139
21.9139
21.9139
21.9139
21.9139
21.9139
21.9139
21.9139
21.9139
21.9139
21.9139
21.9139
21.9139
21.9139
21.9139
21.9139
21.9139
21.9139
21.9139
21.9139
21.9139
21.9139
21.9139
21.9139
21.9139
21.9139
21.9139
21.9139
21.9139
21.9139
21.9139
21.9139
21.9139
21.9139
21.9139
21.9139
21.9139
21.9139
21.9139
21.9139
21.9139
21.9139
21.9139
21.9139
21.9139
21.9139
21.9139
21.9139
21.9139
21.9139
21.9139
21.9139
21.9139
21.9139
21.9139
21.9139
21.9139
21.9139
21.9139
21.9139
21.9139
21.9139
21.9139
21.9139
21.9139
21.9139
21.9139
21.9139
21.9139
21.9139
21.9139
21.9139
21.9139
21.9139
21.9139
21.9139
21.9139
21.9139
21.9139
21.9139
21.9139
21.9139
21.9139
21.9139
21.9139
21.9139
21.9139
21.9139
21.9139
21.9139
21.9139
21.9139
21.9139
21.9139
21.9139
21.9139
21.9139
21.9139
21.9139
21.9139
21.9139
21.9139
21.9139
21.9139
21.9139
21.9139
21.9139
21.9139
21.9139
21.9139
21.9139
21.9139
21.9139
21.9139
21.9139
21.9139
21.9139
21.9139
21.9139
21.9139
21.9139
21.9139
21.9139
21.9139
21.9139
21.9139
21.9139
21.9139
21.9139
21.9139
21.9139
21.9139
21.9139
21.9139
21.9139
21.9139
21.9139
21.9139
21.9139
21.9139
21.9139
21.9139
21.9139
21.9139
21.9139
21.9139
21.9139
21.9139
21.9139
21.9139
21.9139
21.9139
21.9139
21.9139
21.9139
21.9139
21.9139
21.9139
21.9139
21.9139
21.9139
21.9139
21.9139
21.9139
21.9139
21.9139
21.9139
21.9139
21.9139
21.9139
21.9139
21.9139
21.9139
21.9139
21.9139
21.9139
21.9139
21.9139
21.9139
21.9139
21.9139
21.9139
21.9139
21.9139
21.9139
21.9139
21.9139
21.9139
21.9139
21.9139
21.9139
21.9139
21.9139
21.9139
21.9139
21.9139
21.9139
21.9139
21.9139
21.9139
21.9139
21.9139
21.9139
21.9139
21.9139
21.9139
21.9139
21.9139
21.9139
21.9139
21.9139
21.9139
21.9139
21.9139
21.9139
21.9139
21.9139
21.9139
21.9139
21.9139
21.9139
21.9139
21.9139
21.9139
21.9139
21.9139
21.9139
21.9139
21.9139
21.9139
21.9139
21.9139
21.9139
21.9139
21.9139
21.9139
21.9139
21.9139
21.9139
21.9139
21.9139
21.9139
21.9139
21.9139
21.9139
21.9139
21.9139
21.9139
21.9139
21.9139
21.9139
21.9139
21.9139
21.9139
21.9139
21.9139
21.9139
21.9139
21.9139
21.9139
21.9139
21.9139
21.9139
21.9139
21.9139
21.9139
21.9139
21.9139
21.9139
21.9139
21.9139
21.9139
21.9139
21.9139
21.9139
21.9139
21.9139
21.9139
21.9139
21.9139
21.9139
21.9139
21.9139
21.9139
21.9139
21.9139
21.9139
21.9139
21.9139
21.9139
21.9139
21.9139
21.9139
21.9139
21.9139
21.9139
21.9139
21.9139
21.9139
21.9139
21.9139
21.9139
21.9139
21.9139
21.9139
21.9139
21.9139
21.9139
21.9139
21.9139
21.9139
21.9139
21.9139
21.9139
21.9139
21.9139
21.9139
21.9139
21.9139
21.9139
21.9139
21.9139
21.9139
21.9139
21.9139
21.9139
21.9139
21.9139
21.9139
21.9139
21.9139
21.9139
21.9139
21.9139
21.9139
21.9139
21.9139
21.9139
21.9139
21.9139
21.9139
21.9139
21.9139
21.9139
21.9139
21.9139
21.9139
21.9139
21.9139
21.9139
21.9139
21.9139
21.9139
21.9139
21.9139
21.9139
21.9139
21.9139
21.9139
21.9139
21.9139
21.9139
21.9139
21.9139
21.9139
21.9139
21.9139
21.9139
21.9139
21.9139
21.9139
21.9139
21.9139
21.9139
21.9139
21.9139
21.9139
21.9139
21.9139
21.9139
21.9139
21.9139
21.9139
21.9139
21.9139
21.9139
21.9139
21.9139
21.9139
21.9139
21.9139
21.9139
21.9139
21.9139
21.9139
21.9139
21.9139
21.9139
21.9139
21.9139
21.9139
21.9139
21.9139
21.9139
21.9139
21.9139
21.9139
21.9139
21.9139
21.9139
21.9139
21.9139
21.9139
21.9139
21.9139
21.9139
21.9139
21.9139
21.9139
21.9139
21.9139
21.9139
21.9139
21.9139
21.9139
21.9139
21.9139
21.9139
21.9139
21.9139
21.9139
21.9139
21.9139
21.9139
21.9139
21.9139
21.9139
21.9139
21.9139
21.9139
21.9139
21.9139
21.9139
21.9139
21.9139
21.9139
21.9139
21.9139
21.9139
21.9139
21.9139
21.9139
21.9139
21.9139
21.9139
21.9139
21.9139
21.9139
21.9139
21.9139
21.9139
21.9139
21.9139
21.9139
21.9139
21.9139
21.9139
21.9139
21.9139
21.9139
21.9139
21.9139
21.9139
21.9139
21.9139
21.9139
21.9139
21.9139
21.9139
21.9139
21.9139
21.9139
21.9139
21.9139
21.9139
21.9139
21.9139
21.9139
21.9139
21.9139
21.9139
21.9139
21.9139
21.9139
21.9139
21.9139
21.9139
21.9139
21.9139
21.9139
21.9139
21.9139
21.9139
21.9139
21.9139
21.9139
21.9139
21.9139
21.9139
21.9139
21.9139
21.9139
21.9139
21.9139
21.9139
21.9139
21.9139
21.9139
21.9139
21.9139
21.9139
21.9139
21.9139
21.9139
21.9139
21.9139
21.9139
21.9139
21.9139
21.9139
21.9139
21.9139
21.9139
21.9139
21.9139
21.9139
21.9139
21.9139
21.9139
21.9139
21.9139
21.9139
21.9139
21.9139
21.9139
21.9139
21.9139
21.9139
21.9139
21.9139
21.9139
21.9139
21.9139
21.9139
21.9139
21.9139
21.9139
21.9139
21.9139
21.9139
21.9139
21.9139
21.9139
21.9139
21.9139
21.9139
21.9139
21.9139
21.9139
21.9139
21.9139
21.9139
21.9139
21.9139
21.9139
21.9139
21.9139
21.9139
21.9139
21.9139
21.9139
21.9139
21.9139
21.9139
21.9139
21.9139
21.9139
21.9139
21.9139
21.9139
21.9139
21.9139
21.9139
21.9139
21.9139
21.9139
21.9139
21.9139
21.9139
21.9139
21.9139
21.9139
21.9139
21.9139
21.9139
21.9139
21.9139
21.9139
21.9139
21.9139
21.9139
21.9139
21.9139
21.9139
21.9139
21.9139
21.9139
21.9139
21.9139
21.9139
21.9139
21.9139
21.9139
21.9139
21.9139
21.9139
21.9139
21.9139
21.9139
21.9139
21.9139
21.9139
21.9139
21.9139
21.9139
21.9139
21.9139
21.9139
21.9139
21.9139
21.9139
21.9139
21.9139
21.9139
21.9139
21.9139
21.9139
21.9139
21.9139
21.9139
21.9139
21.9139
21.9139
21.9139
21.9139
21.9139
21.9139
21.9139
21.9139
21.9139
21.9139
21.9139
21.9139
21.9139
21.9139
21.9139
21.9139
21.9139
21.9139
21.9139
21.9139
21.9139
21.9139
21.9139
21.9139
21.9139
21.9139
21.9139
21.9139
21.9139
21.9139
21.9139
21.9139
21.9139
21.9139
21.9139
21.9139
21.9139
21.9139
21.9139
21.9139
21.9139
21.9139
21.9139
21.9139
21.9139
21.9139
21.9139
21.9139
21.9139
21.9139
21.9139
21.9139
21.9139
21.9139
21.9139
21.9139
21.9139
21.9139
21.9139
21.9139
21.9139
21.9139
21.9139
21.9139
21.9139
21.9139
21.9139
21.9139
21.9139
21.9139
21.9139
21.9139
21.9139
21.9139
21.9139
21.9139
21.9139
21.9139
21.9139
21.9139
21.9139
21.9139
21.9139
21.9139
21.9139
21.9139
21.9139
21.9139
21.9139
21.9139
21.9139
21.9139
21.9139
21.9139
21.9139
21.9139
21.9139
21.9139
21.9139
21.9139
21.9139
21.9139
21.9139
21.9139
21.9139
21.9139
21.9139
21.9139
21.9139
21.9139
21.9139
21.9139
21.9139
21.9139
21.9139
21.9139
21.9139
21.9139
21.9139
21.9139
21.9139
21.9139
21.9139
21.9139
21.9139
21.9139
21.9139
21.9139
21.9139
21.9139
21.9139
21.9139
21.9139
21.9139
21.9139
21.9139
21.9139
21.9139
21.9139
21.9139
21.9139
21.9139
21.9139
21.9139
21.9139
21.9139
21.9139
21.9139
21.9139
21.9139
21.9139
21.9139
21.9139
21.9139
21.9139
21.9139
21.9139
21.9139
21.9139
21.9139
21.9139
21.9139
21.9139
21.9139
21.9139
21.9139
21.9139
21.9139
21.9139
21.9139
21.9139
21.9139
21.9139
21.9139
21.9139
21.9139
21.9139
21.9139
21.9139
21.9139
21.9139
21.9139
21.9139
21.9139
21.9139
21.9139
21.9139
21.9139
21.9139
21.9139
21.9139
21.9139
21.9139
21.9139
21.9139
21.9139
21.9139
21.9139
21.9139
21.9139
21.9139
21.9139
21.9139
21.9139
21.9139
21.9139
21.9139
21.9139
21.9139
21.9139
21.9139
21.9139
21.9139
21.9139
21.9139
21.9139
21.9139
21.9139
21.9139
21.9139
21.9139
21.9139
21.9139
21.9139
21.9139
21.9139
21.9139
21.9139
21.9139
21.9139
21.9139
21.9139
21.9139
21.9139
21.9139
21.9139
21.9139
21.9139
21.9139
21.9139
21.9139
21.9139
21.9139
21.9139
21.9139
21.9139
21.9139
21.9139
21.9139
21.9139
21.9139
21.9139
21.9139
21.9139
21.9139
21.9139
21.9139
21.9139
21.9139
21.9139
21.9139
21.9139
21.9139
21.9139
21.9139
21.9139
21.9139
21.9139
21.9139
21.9139
21.9139
21.9139
21.9139
21.9139
21.9139
21.9139
21.9139
21.9139
21.9139
21.9139
21.9139
21.9139
21.9139
21.9139
21.9139
21.9139
21.9139
21.9139
21.9139
21.9139
21.9139
21.9139
21.9139
21.9139
21.9139
21.9139
21.9139
21.9139
21.9139
21.9139
21.9139
21.9139
21.9139
21.9139
21.9139
21.9139
21.9139
21.9139
21.9139
21.9139
21.9139
21.9139
21.9139
21.9139
21.9139
21.9139
21.9139
21.9139
21.9139
21.9139
21.9139
21.9139
21.9139
21.9139
21.914
21.914
21.914
21.914
21.914
21.914
21.914
21.914
21.914
21.914
21.914
21.9139
21.9139
21.9139
21.9139
21.9139
21.9139
21.9139
21.9139
21.9139
21.9139
21.9139
21.9139
21.9139
21.9139
21.9139
21.9139
21.9139
21.9139
21.9139
21.9139
21.9139
21.9139
21.9139
21.9139
21.9139
21.9139
21.9139
21.9139
21.9139
21.9139
21.9139
21.9139
21.9139
21.9139
21.9139
21.9139
21.9139
21.9139
21.9139
21.9139
21.9139
21.9139
21.9139
21.9139
21.9139
21.9139
21.9139
21.9139
21.9139
21.9139
21.9139
21.9139
21.9139
21.9139
21.9139
21.9139
21.9139
21.9139
21.9139
21.9139
21.9139
21.9139
21.9139
21.9139
21.9139
21.9139
21.9139
21.9139
21.9139
21.9139
21.9139
21.9139
21.9139
21.9139
21.9139
21.9139
21.9139
21.9139
21.9139
21.9139
21.9139
21.9139
21.9139
21.9139
21.914
21.914
21.914
21.914
21.914
21.914
21.914
21.914
21.914
21.914
21.914
21.9141
21.9141
21.9141
21.9141
21.9141
21.9142
21.9142
21.9142
21.9142
21.9143
21.9143
21.9144
21.9144
21.9145
21.9145
21.9146
21.9147
21.9148
21.9148
21.9149
21.915
21.9139
21.9139
21.9139
21.9139
21.9139
21.9139
21.9139
21.9139
21.9139
21.9139
21.9139
21.9139
21.9139
21.9139
21.9139
21.9139
21.9139
21.9139
21.9139
21.9139
21.9139
21.9139
21.9139
21.9139
21.9139
21.9139
21.9139
21.9139
21.9139
21.9139
21.9139
21.9139
21.9139
21.9139
21.9139
21.9139
21.9139
21.9139
21.9139
21.9139
21.9139
21.9139
21.9139
21.9139
21.9139
21.9139
21.9139
21.9139
21.9139
21.9139
21.9139
21.9139
21.9139
21.9139
21.9139
21.9139
21.9139
21.9139
21.9139
21.9139
21.9139
21.9139
21.9139
21.9139
21.9139
21.9139
21.9139
21.9139
21.9139
21.9139
21.9139
21.914
21.914
21.914
21.914
21.914
21.914
21.914
21.914
21.914
21.914
21.914
21.914
21.9141
21.9141
21.9141
21.9141
21.9141
21.9142
21.9142
21.9142
21.9143
21.9143
21.9143
21.9144
21.9144
21.9145
21.9146
21.9146
21.9147
21.9148
21.9149
21.915
21.9152
21.9153
21.9155
21.9156
21.9158
21.916
21.9162
21.9164
21.9167
21.917
21.9173
21.9178
21.9182
21.9187
21.9193
21.9198
21.9204
21.921
21.9215
21.9221
21.9139
21.9139
21.9139
21.9139
21.9139
21.9139
21.9139
21.9139
21.9139
21.9139
21.9139
21.9139
21.9139
21.9139
21.9139
21.9139
21.9139
21.9139
21.9139
21.9139
21.9139
21.9139
21.9139
21.9139
21.9139
21.9139
21.9139
21.9139
21.9139
21.9139
21.9139
21.9139
21.9139
21.9139
21.9139
21.9139
21.9139
21.9139
21.9139
21.9139
21.9139
21.9139
21.9139
21.9139
21.9139
21.9139
21.9139
21.9139
21.9139
21.9139
21.9139
21.914
21.914
21.914
21.914
21.914
21.914
21.914
21.914
21.914
21.914
21.914
21.914
21.9141
21.9141
21.9141
21.9141
21.9141
21.9142
21.9142
21.9142
21.9142
21.9143
21.9143
21.9144
21.9144
21.9145
21.9145
21.9146
21.9147
21.9147
21.9148
21.9149
21.915
21.9151
21.9153
21.9154
21.9156
21.9158
21.916
21.9162
21.9165
21.9167
21.917
21.9173
21.9177
21.9181
21.9185
21.919
21.9197
21.9204
21.9212
21.9221
21.923
21.9241
21.9252
21.9264
21.9276
21.9289
21.9303
21.932
21.9339
21.9361
21.9388
21.9418
21.9451
21.9488
21.9527
21.9567
21.9609
21.9651
21.9693
21.9734
21.9139
21.9139
21.9139
21.9139
21.9139
21.9139
21.9139
21.9139
21.9139
21.9139
21.9139
21.9139
21.9139
21.9139
21.9139
21.9139
21.9139
21.9139
21.9139
21.9139
21.9139
21.9139
21.9139
21.9139
21.9139
21.9139
21.9139
21.9139
21.9139
21.914
21.914
21.914
21.914
21.914
21.914
21.914
21.914
21.914
21.914
21.914
21.914
21.914
21.9141
21.9141
21.9141
21.9141
21.9141
21.9141
21.9142
21.9142
21.9142
21.9142
21.9143
21.9143
21.9143
21.9144
21.9144
21.9145
21.9146
21.9146
21.9147
21.9148
21.9149
21.915
21.9151
21.9152
21.9153
21.9154
21.9156
21.9157
21.9159
21.9162
21.9164
21.9167
21.917
21.9173
21.9177
21.9181
21.9185
21.9189
21.9194
21.92
21.9206
21.9214
21.9222
21.9232
21.9243
21.9255
21.9268
21.9283
21.9299
21.9316
21.9334
21.9353
21.9374
21.9397
21.9425
21.9457
21.9495
21.9538
21.9588
21.9644
21.9706
21.9773
21.9846
21.9923
22.0004
22.009
22.0182
22.0282
22.0398
22.0536
22.0701
22.0895
22.1116
22.1361
22.1626
22.1906
22.2197
22.2495
22.2796
22.3094
22.339
21.9139
21.9139
21.9139
21.9139
21.9139
21.9139
21.9139
21.9139
21.9139
21.9139
21.914
21.914
21.914
21.914
21.914
21.914
21.914
21.914
21.914
21.914
21.914
21.9141
21.9141
21.9141
21.9141
21.9141
21.9141
21.9142
21.9142
21.9142
21.9142
21.9143
21.9143
21.9143
21.9144
21.9144
21.9145
21.9145
21.9146
21.9146
21.9147
21.9148
21.9149
21.915
21.9151
21.9152
21.9153
21.9154
21.9156
21.9157
21.9159
21.916
21.9162
21.9165
21.9167
21.917
21.9173
21.9176
21.918
21.9185
21.9189
21.9194
21.92
21.9206
21.9212
21.922
21.9227
21.9236
21.9246
21.9258
21.9271
21.9286
21.9303
21.9321
21.9341
21.9363
21.9387
21.9413
21.944
21.947
21.9503
21.954
21.9583
21.9633
21.969
21.9755
21.9828
21.9909
21.9999
22.0096
22.0201
22.0313
22.0433
22.0561
22.0701
22.0861
22.1049
22.1272
22.1536
22.1843
22.2192
22.2581
22.3008
22.3472
22.3969
22.4496
22.5052
22.5636
22.6256
22.6936
22.7725
22.8671
22.9805
23.113
23.263
23.4281
23.6056
23.7925
23.986
24.1832
24.3812
24.5776
24.771
24.9609
25.1481
21.914
21.914
21.914
21.914
21.9141
21.9141
21.9141
21.9141
21.9142
21.9142
21.9142
21.9142
21.9143
21.9143
21.9144
21.9144
21.9145
21.9145
21.9146
21.9147
21.9147
21.9148
21.9149
21.915
21.9151
21.9152
21.9153
21.9155
21.9156
21.9158
21.9159
21.9161
21.9163
21.9166
21.9168
21.9171
21.9173
21.9177
21.918
21.9184
21.9188
21.9192
21.9198
21.9203
21.9209
21.9216
21.9223
21.9231
21.924
21.9249
21.9259
21.927
21.9283
21.9297
21.9312
21.933
21.935
21.9373
21.9397
21.9425
21.9455
21.9487
21.9522
21.956
21.9601
21.9647
21.9697
21.9754
21.9819
21.9893
21.9977
22.0073
22.0179
22.0297
22.0426
22.0567
22.0719
22.0882
22.1057
22.1247
22.1459
22.1702
22.1985
22.2315
22.2697
22.3131
22.3618
22.4156
22.4745
22.5382
22.6066
22.6794
22.7569
22.8396
22.9303
23.0339
23.1564
23.3024
23.474
23.6718
23.895
24.1424
24.4125
24.7038
25.0143
25.3419
25.6848
26.0427
26.4194
26.8308
27.3124
27.8993
28.604
29.418
30.3223
31.2963
32.3209
33.3786
34.4534
35.5302
36.5944
37.6342
38.6436
39.6237
40.5801
21.9145
21.9146
21.9147
21.9148
21.9149
21.915
21.9151
21.9153
21.9154
21.9156
21.9158
21.9159
21.9162
21.9164
21.9167
21.917
21.9173
21.9176
21.918
21.9184
21.9188
21.9193
21.9198
21.9203
21.9209
21.9216
21.9223
21.9231
21.924
21.925
21.926
21.9271
21.9283
21.9296
21.931
21.9326
21.9342
21.9361
21.9381
21.9404
21.9429
21.9457
21.9489
21.9523
21.9561
21.9602
21.9647
21.9695
21.9747
21.9803
21.9865
21.9933
22.0009
22.0094
22.0191
22.03
22.0423
22.056
22.0712
22.0879
22.1062
22.1261
22.1476
22.1707
22.1958
22.2235
22.2547
22.2904
22.3315
22.3788
22.4326
22.4932
22.5606
22.6348
22.7159
22.8036
22.8977
22.9984
23.106
23.2227
23.3532
23.5036
23.679
23.8825
24.1157
24.3789
24.6715
24.9926
25.341
25.7152
26.1135
26.5345
26.9782
27.4484
27.9602
28.5493
29.2542
30.0953
31.0738
32.1798
33.3997
34.7198
36.1281
37.613
39.1623
40.7634
42.4061
44.0867
45.8202
47.6766
49.8179
52.3669
55.3137
58.5916
62.1258
65.8461
69.6875
73.5921
77.5097
81.3943
85.2023
88.9001
92.4795
95.9636
99.39
21.9171
21.9175
21.918
21.9185
21.919
21.9196
21.9203
21.921
21.9218
21.9226
21.9236
21.9246
21.9258
21.927
21.9284
21.9299
21.9315
21.9333
21.9352
21.9373
21.9396
21.942
21.9447
21.9476
21.9508
21.9544
21.9582
21.9625
21.9672
21.9723
21.9779
21.9839
21.9904
21.9975
22.0051
22.0133
22.0222
22.032
22.0428
22.0548
22.0681
22.083
22.0995
22.1177
22.1378
22.1598
22.1839
22.2099
22.2381
22.2685
22.3014
22.3374
22.3776
22.4229
22.4744
22.533
22.5991
22.6734
22.756
22.8473
22.9473
23.0561
23.1737
23.3
23.4355
23.5821
23.7439
23.9267
24.1363
24.3766
24.6504
24.959
25.3031
25.6826
26.0967
26.5445
27.0242
27.534
28.073
28.6435
29.257
29.9447
30.744
31.6783
32.753
33.9631
35.2989
36.7493
38.3028
39.9483
41.6756
43.4742
45.3355
47.2564
49.2522
51.3868
53.8059
56.6286
59.8689
63.4968
67.4714
71.7487
76.2865
81.0474
85.9977
91.1047
96.3369
101.668
107.098
112.668
118.541
125.928
136.05
148.546
162.803
178.375
194.981
212.409
230.457
248.925
267.616
286.31
304.792
322.92
340.702
358.229
21.9323
21.9346
21.9371
21.9399
21.9429
21.9463
21.9499
21.9539
21.9583
21.9632
21.9685
21.9744
21.9809
21.988
21.9957
22.0042
22.0135
22.0235
22.0343
22.046
22.0587
22.0725
22.0875
22.104
22.1221
22.142
22.1638
22.1877
22.2139
22.2424
22.2735
22.3072
22.3436
22.3827
22.4249
22.4706
22.5204
22.5755
22.6368
22.7054
22.7821
22.8674
22.9621
23.0665
23.1811
23.306
23.4415
23.5877
23.7447
23.9131
24.095
24.2943
24.5166
24.7673
25.0507
25.3699
25.7272
26.124
26.5611
27.039
27.557
28.1142
28.7092
29.3409
30.0109
30.7278
31.5168
32.413
33.442
34.6145
35.9309
37.3856
38.9707
40.6767
42.494
44.4121
46.4197
48.5057
50.6631
52.9001
55.2656
57.876
60.8369
64.1682
67.8533
71.871
76.1977
80.8035
85.6562
90.7265
95.9885
101.421
107.003
112.741
118.673
124.931
132.646
142.929
155.57
170.16
186.39
204.069
223.077
243.326
264.72
287.122
310.361
334.282
358.738
383.609
408.969
433.65
456.438
477.733
497.903
517.035
535.078
551.929
567.509
581.784
594.692
606.099
616.05
624.953
633.366
641.747
649.963
657.516
22.0164
22.029
22.0429
22.0581
22.0749
22.0933
22.1135
22.1356
22.1598
22.1865
22.2158
22.2479
22.283
22.3215
22.3635
22.4092
22.4587
22.5124
22.5703
22.6329
22.7007
22.7746
22.8556
22.9447
23.0428
23.1507
23.2693
23.3991
23.5408
23.6947
23.8612
24.0405
24.2329
24.4386
24.6589
24.8965
25.156
25.442
25.7591
26.1109
26.5
26.9288
27.399
27.9121
28.4685
29.0684
29.7111
30.3955
31.1213
31.8904
32.7115
33.6078
34.6092
35.7385
37.0075
38.4192
39.9717
41.6604
43.4795
45.4216
47.4786
49.6407
51.8976
54.2418
56.6769
59.241
62.0199
65.1042
68.5193
72.2609
76.3228
80.6967
85.3667
90.3116
95.5079
100.931
106.558
112.362
118.336
124.512
130.957
138.6
148.465
160.441
174.187
189.456
206.109
224.049
243.186
263.445
284.749
306.974
329.997
353.739
378.122
403.215
427.99
451.396
473.762
495.412
516.355
536.468
555.702
574.005
591.314
607.563
622.671
636.61
649.424
661.411
673.083
684.442
695.026
704.739
713.508
721.082
727.489
732.943
737.651
741.61
744.997
747.748
749.666
750.673
750.822
750.258
749.004
747.589
22.4698
22.5364
22.6094
22.6895
22.7769
22.8725
22.9772
23.0919
23.2178
23.3562
23.5081
23.6746
23.8565
24.0549
24.2702
24.5032
24.7542
25.0235
25.3119
25.6211
25.9545
26.316
26.7093
27.1379
27.6046
28.1118
28.6616
29.2559
29.8959
30.5822
31.3147
32.0928
32.9154
33.7831
34.6999
35.6799
36.7465
37.9213
39.2189
40.6464
42.2065
43.8982
45.7191
47.6652
49.7314
51.9113
54.197
56.5804
59.056
61.6301
64.3401
67.2561
70.4381
73.902
77.65
81.6863
86.0145
90.6324
95.5309
100.696
106.11
111.754
117.606
123.655
129.93
136.459
143.91
153.266
164.521
177.437
191.814
207.531
224.512
242.694
262.015
282.402
303.755
325.943
348.856
372.388
396.575
420.641
443.661
465.787
487.189
507.929
527.983
547.256
565.645
583.116
599.602
615.063
629.573
643.145
655.901
668.355
680.71
692.486
703.295
713.418
722.935
731.47
739.042
745.9
752.131
757.71
762.539
766.699
770.011
772.384
774.142
775.247
775.479
775.412
775.356
775.146
774.641
773.851
772.844
771.691
770.489
769.255
767.843
766.276
764.878
763.351
761.31
759.387
24.7634
25.0901
25.4459
25.8318
26.2495
26.7016
27.1917
27.7234
28.2997
28.9236
29.5973
30.3229
31.1022
31.9364
32.8266
33.7728
34.7745
35.8308
36.943
38.1184
39.3732
40.7244
42.1854
43.7649
45.4675
47.2947
49.2459
51.3186
53.5092
55.8125
58.2221
60.7302
63.3305
66.0203
68.822
71.7798
74.9417
78.3232
81.9277
85.7617
89.8368
94.1631
98.7454
103.582
108.667
113.988
119.532
125.286
131.245
137.439
143.901
151.299
160.308
170.917
182.966
196.32
210.893
226.638
243.521
261.507
280.54
300.544
321.409
343.044
365.375
388.423
411.639
434.129
455.969
477.277
498.069
518.297
537.849
556.61
574.538
591.589
607.637
622.575
636.559
649.926
662.762
675.043
687.084
698.685
709.365
719.032
728.016
736.385
743.964
750.777
756.935
762.482
767.267
771.133
774.178
776.736
778.639
779.668
780.492
781.613
782.629
783.27
783.794
784.43
784.989
785.406
785.953
786.557
786.907
787.225
787.594
787.68
787.368
786.865
786.225
785.442
784.463
783.247
781.824
780.283
778.76
777.222
775.447
773.513
771.709
769.673
766.882
764.311
762.31
35.9304
37.2652
38.6796
40.1769
41.7675
43.4647
45.2803
47.2231
49.2991
51.5109
53.8589
56.3409
58.953
61.6893
64.5424
67.5037
70.5636
73.7297
77.0293
80.4936
84.1282
87.9301
91.902
96.0547
100.403
104.961
109.737
114.734
119.95
125.377
131.005
136.826
142.855
149.099
155.868
163.852
173.136
183.649
195.293
207.997
221.721
236.441
252.143
268.805
286.385
304.82
324.028
343.953
364.566
385.901
407.382
428.399
449.016
469.332
489.346
508.977
528.114
546.658
564.525
581.651
597.922
613.169
627.492
641.309
654.7
667.512
680.142
692.429
703.681
714.147
724.168
733.367
741.665
749.334
756.398
762.712
768.109
772.582
776.046
778.379
780.269
782.125
783.041
783.428
783.95
784.818
785.627
786.307
786.83
787.403
788.15
789.049
790.034
791.085
792.116
792.907
793.207
793.537
794.201
794.638
794.711
794.788
794.982
795.086
795.059
795.255
795.488
795.48
795.329
795.133
794.614
793.703
792.563
791.279
789.894
788.386
786.712
784.858
782.865
780.783
778.578
776.167
773.783
771.562
768.986
765.748
763.261
761.01
69.554
73.2337
77.0588
81.0419
85.2044
89.5451
94.0479
98.6996
103.498
108.454
113.581
118.898
124.417
130.145
136.084
142.229
148.577
155.122
162.03
169.878
178.78
188.723
199.651
211.507
224.251
237.856
252.304
267.578
283.652
300.479
317.996
336.145
354.895
374.258
394.006
413.514
432.756
451.806
470.686
489.352
507.716
525.673
543.135
560.037
576.284
591.739
606.335
620.252
633.777
647.114
660.19
672.871
685.062
696.673
707.679
718.074
727.812
736.874
745.302
753.132
760.257
766.391
771.442
775.475
778.358
780.743
783.043
784.25
785.05
786.35
787.511
788.232
789.079
789.939
790.742
791.637
792.725
794.028
795.189
796.02
796.901
797.936
798.113
797.882
797.945
798.313
798.558
798.65
798.663
798.753
798.982
799.403
799.982
800.669
801.113
801.102
800.821
800.588
800.427
800.172
799.884
799.558
799.258
798.991
798.652
798.253
797.816
797.281
796.686
796.023
795.144
794.001
792.676
791.247
789.739
788.121
786.344
784.398
782.316
780.103
777.693
775.138
772.698
770.244
767.28
764.192
761.774
759.025
151.209
158.587
166.217
174.612
183.971
194.335
205.696
218.021
231.263
245.375
260.322
276.069
292.582
309.811
327.682
346.125
365.104
384.456
403.631
422.561
441.283
459.822
478.15
496.203
513.894
531.125
547.82
563.907
579.264
593.741
607.424
620.59
633.497
646.216
658.644
670.679
682.267
693.375
703.995
714.111
723.698
732.745
741.253
749.188
756.363
762.403
767.242
771.111
774.256
776.871
779.076
780.941
782.598
784.142
785.595
786.975
788.325
789.653
790.989
792.442
794.119
796.037
797.877
799.36
800.751
802.113
802.463
802.674
803.454
803.885
803.932
804.171
804.386
804.552
804.755
805.175
805.874
806.421
806.706
806.898
806.728
806.2
805.333
804.593
804.025
803.51
803.053
802.652
802.272
801.94
801.673
801.614
801.783
801.889
801.682
801.317
801.034
800.775
800.498
800.225
799.953
799.675
799.394
799.065
798.636
798.106
797.48
796.793
796.004
795.01
793.777
792.351
790.805
789.17
787.427
785.537
783.499
781.333
779.005
776.466
773.865
771.353
768.643
765.539
762.733
760.134
756.814
350.788
371.632
392.53
413.243
433.705
453.896
473.783
493.305
512.382
530.933
548.87
566.105
582.531
597.949
612.27
625.738
638.615
650.99
662.884
674.309
685.264
695.738
705.74
715.283
724.355
732.938
741.004
748.421
754.773
759.784
763.685
766.862
769.548
771.862
773.888
775.708
777.398
779.01
780.582
782.157
783.758
785.404
787.187
789.257
791.699
794.302
796.706
798.744
800.443
801.848
802.967
803.923
804.778
805.525
806.192
806.819
807.399
807.94
808.527
809.34
810.473
811.546
812.393
813.156
813.222
812.754
812.159
811.699
811.157
810.503
809.898
809.363
808.842
808.37
808.025
807.791
807.54
807.357
807.244
806.887
806.21
805.377
804.631
803.979
803.411
802.919
802.509
802.157
801.818
801.537
801.454
801.525
801.563
801.44
801.21
800.971
800.707
800.434
800.169
799.91
799.65
799.372
799.044
798.619
798.076
797.419
796.677
795.807
794.742
793.449
791.952
790.312
788.565
786.702
784.704
782.582
780.333
777.9
775.283
772.659
770.023
767.104
764.069
761.357
758.371
754.757
752.133
749.818
617.968
634.123
648.905
662.513
675.177
687.04
698.162
708.639
718.502
727.764
736.463
744.597
752.091
758.616
763.67
767.25
769.913
772.05
773.811
775.271
776.511
777.616
778.648
779.644
780.659
781.786
783.079