/*--------------------------------*- C++ -*----------------------------------*\
| =========                 |                                                 |
| \\      /  F ield         | OpenFOAM: The Open Source CFD Toolbox           |
|  \\    /   O peration     | Version:  v1706                                 |
|   \\  /    A nd           | Web:      www.OpenFOAM.com                      |
|    \\/     M anipulation  |                                                 |
\*---------------------------------------------------------------------------*/
FoamFile
{
    version     2.0;
    format      ascii;
    class       volScalarField;
    location    "1.8e-05";
    object      Tov;
}
// * * * * * * * * * * * * * * * * * * * * * * * * * * * * * * * * * * * * * //

dimensions      [0 0 0 1 0 0 0];


internalField   nonuniform List<scalar> 
29871
(
144.4
144.4
144.4
144.4
144.4
144.4
144.4
144.4
144.4
144.4
144.4
144.4
144.4
144.4
144.4
144.4
144.4
144.4
144.4
144.4
144.4
144.4
144.4
144.4
144.4
144.4
144.4
144.4
144.4
144.4
144.4
144.4
144.4
144.4
144.4
144.4
144.4
144.4
144.4
144.4
144.4
144.4
144.4
144.4
144.4
144.4
144.4
144.4
144.4
144.4
144.4
144.4
144.4
144.4
144.4
144.4
144.4
144.4
144.4
144.4
144.4
144.4
144.4
144.4
144.4
144.4
144.4
144.4
144.4
144.4
144.4
144.4
144.4
144.4
144.4
144.4
144.4
144.4
144.4
144.4
144.4
144.4
144.4
144.4
144.4
144.4
144.4
144.4
144.4
144.4
144.4
144.4
144.4
144.4
144.4
144.4
144.4
144.4
144.4
144.4
144.4
144.4
144.4
144.4
144.4
144.4
144.4
144.4
144.4
144.4
144.4
144.4
144.4
144.4
144.4
144.4
144.4
144.4
144.4
144.4
144.4
144.4
144.4
144.4
144.4
144.4
144.4
144.4
144.4
144.4
144.4
144.4
144.4
144.4
144.4
144.4
144.4
144.4
144.4
144.4
144.4
144.4
144.4
144.4
144.4
144.4
144.4
144.4
144.4
144.4
144.4
144.4
144.4
144.4
144.4
144.4
144.4
144.4
144.4
144.4
144.4
144.4
144.4
144.4
144.4
144.4
144.4
144.4
144.4
144.4
144.4
144.4
144.4
144.4
144.4
144.4
144.4
144.4
144.4
144.4
144.4
144.4
144.4
144.4
144.4
144.4
144.4
144.4
144.4
144.4
144.4
144.4
144.4
144.4
144.4
144.4
144.4
144.4
144.4
144.4
144.4
144.4
144.4
144.4
144.4
144.4
144.4
144.4
144.4
144.4
144.4
144.4
144.4
144.4
144.4
144.4
144.4
144.4
144.4
144.4
144.4
144.4
144.4
144.4
144.4
144.4
144.4
144.4
144.4
144.4
144.4
144.4
144.4
144.4
144.4
144.4
144.4
144.4
144.4
144.4
144.4
144.4
144.4
144.4
144.4
144.4
144.4
144.4
144.4
144.4
144.4
144.4
144.4
144.4
144.4
144.4
144.4
144.4
144.4
144.4
144.4
144.4
144.4
144.4
144.4
144.4
144.4
144.4
144.4
144.4
144.4
144.4
144.4
144.4
144.4
144.4
144.4
144.4
144.4
144.4
144.4
144.4
144.4
144.4
144.4
144.4
144.4
144.4
144.4
144.4
144.4
144.4
144.4
144.4
144.4
144.4
144.4
144.4
144.4
144.4
144.4
144.4
144.4
144.4
144.4
144.4
144.4
144.4
144.4
144.4
144.4
144.4
144.4
144.4
144.4
144.4
144.4
144.4
144.4
144.4
144.4
144.4
144.4
144.4
144.4
144.4
144.4
144.4
144.4
144.4
144.4
144.4
144.4
144.4
144.4
144.4
144.4
144.4
144.4
144.4
144.4
144.4
144.4
144.4
144.4
144.4
144.4
144.4
144.4
144.4
144.4
144.4
144.4
144.4
144.4
144.4
144.4
144.4
144.4
144.4
144.4
144.4
144.4
144.4
144.4
144.4
144.4
144.4
144.4
144.4
144.4
144.4
144.4
144.4
144.4
144.4
144.4
144.4
144.4
144.4
144.4
144.4
144.4
144.4
144.4
144.4
144.4
144.4
144.4
144.4
144.4
144.4
144.4
144.4
144.4
144.4
144.4
144.4
144.4
144.4
144.4
144.4
144.4
144.4
144.4
144.4
144.4
144.4
144.4
144.4
144.4
144.4
144.4
144.4
144.4
144.4
144.4
144.4
144.4
144.4
144.4
144.4
144.4
144.4
144.4
144.4
144.4
144.4
144.4
144.4
144.4
144.4
144.4
144.4
144.4
144.4
144.4
144.4
144.4
144.4
144.4
144.4
144.4
144.4
144.4
144.4
144.4
144.4
144.4
144.4
144.4
144.4
144.4
144.4
144.4
144.4
144.4
144.4
144.4
144.4
144.4
144.4
144.4
144.4
144.4
144.4
144.4
144.4
144.4
144.4
144.4
144.4
144.4
144.4
144.4
144.4
144.4
144.4
144.4
144.4
144.4
144.4
144.4
144.4
144.4
144.4
144.4
144.4
144.4
144.4
144.4
144.4
144.4
144.4
144.4
144.4
144.4
144.4
144.4
144.4
144.4
144.4
144.4
144.4
144.4
144.4
144.4
144.4
144.4
144.4
144.4
144.4
144.4
144.4
144.4
144.4
144.4
144.4
144.4
144.4
144.4
144.4
144.4
144.4
144.4
144.4
144.4
144.4
144.4
144.4
144.4
144.4
144.4
144.4
144.4
144.4
144.4
144.4
144.4
144.4
144.4
144.4
144.4
144.4
144.4
144.4
144.4
144.4
144.4
144.4
144.4
144.4
144.4
144.4
144.4
144.4
144.4
144.4
144.4
144.4
144.4
144.4
144.4
144.4
144.4
144.4
144.4
144.4
144.4
144.4
144.4
144.4
144.4
144.4
144.4
144.4
144.4
144.4
144.4
144.4
144.4
144.4
144.4
144.4
144.4
144.4
144.4
144.4
144.4
144.4
144.4
144.4
144.4
144.4
144.4
144.4
144.4
144.4
144.4
144.4
144.4
144.4
144.4
144.4
144.4
144.4
144.4
144.4
144.4
144.4
144.4
144.4
144.4
144.4
144.4
144.4
144.4
144.4
144.4
144.4
144.4
144.4
144.4
144.4
144.4
144.4
144.4
144.4
144.4
144.4
144.4
144.4
144.4
144.4
144.4
144.4
144.4
144.4
144.4
144.4
144.4
144.4
144.4
144.4
144.4
144.4
144.4
144.4
144.4
144.4
144.4
144.4
144.4
144.4
144.4
144.4
144.4
144.4
144.4
144.4
144.4
144.4
144.4
144.4
144.4
144.4
144.4
144.4
144.4
144.4
144.4
144.4
144.4
144.4
144.4
144.4
144.4
144.4
144.4
144.4
144.4
144.4
144.4
144.4
144.4
144.4
144.4
144.4
144.4
144.4
144.4
144.4
144.4
144.4
144.4
144.4
144.4
144.4
144.4
144.4
144.4
144.4
144.4
144.4
144.4
144.4
144.4
144.4
144.4
144.4
144.4
144.4
144.4
144.4
144.4
144.4
144.4
144.4
144.4
144.4
144.4
144.4
144.4
144.4
144.4
144.4
144.4
144.4
144.4
144.4
144.4
144.4
144.4
144.4
144.4
144.4
144.4
144.4
144.4
144.4
144.4
144.4
144.4
144.4
144.4
144.4
144.4
144.4
144.4
144.4
144.4
144.4
144.4
144.4
144.4
144.4
144.4
144.4
144.4
144.4
144.4
144.4
144.4
144.4
144.4
144.4
144.4
144.4
144.4
144.4
144.4
144.4
144.4
144.4
144.4
144.4
144.4
144.4
144.4
144.4
144.4
144.4
144.4
144.4
144.4
144.4
144.4
144.4
144.4
144.4
144.4
144.4
144.4
144.4
144.4
144.4
144.4
144.4
144.4
144.4
144.4
144.4
144.4
144.4
144.4
144.4
144.4
144.4
144.4
144.4
144.4
144.4
144.4
144.4
144.4
144.4
144.4
144.4
144.4
144.4
144.4
144.4
144.4
144.4
144.4
144.4
144.4
144.4
144.4
144.4
144.4
144.4
144.4
144.4
144.4
144.4
144.4
144.4
144.4
144.4
144.4
144.4
144.4
144.4
144.4
144.4
144.4
144.4
144.4
144.4
144.4
144.4
144.4
144.4
144.4
144.4
144.4
144.4
144.4
144.4
144.4
144.4
144.4
144.4
144.4
144.4
144.4
144.4
144.4
144.4
144.4
144.4
144.4
144.4
144.4
144.4
144.4
144.4
144.4
144.4
144.4
144.4
144.4
144.4
144.4
144.4
144.4
144.4
144.4
144.4
144.4
144.4
144.4
144.4
144.4
144.4
144.4
144.4
144.4
144.4
144.4
144.4
144.4
144.4
144.4
144.4
144.4
144.4
144.4
144.4
144.4
144.4
144.4
144.4
144.4
144.4
144.4
144.4
144.4
144.4
144.4
144.4
144.4
144.4
144.4
144.4
144.4
144.4
144.4
144.4
144.4
144.4
144.4
144.4
144.4
144.4
144.4
144.4
144.4
144.4
144.4
144.4
144.4
144.4
144.4
144.4
144.4
144.4
144.4
144.4
144.4
144.4
144.4
144.4
144.4
144.4
144.4
144.4
144.4
144.4
144.4
144.4
144.4
144.4
144.4
144.4
144.4
144.4
144.4
144.4
144.4
144.4
144.4
144.4
144.4
144.4
144.4
144.4
144.4
144.4
144.4
144.4
144.4
144.4
144.4
144.4
144.4
144.4
144.4
144.4
144.4
144.4
144.4
144.4
144.4
144.4
144.4
144.4
144.4
144.4
144.4
144.4
144.4
144.4
144.4
144.4
144.4
144.4
144.4
144.4
144.4
144.4
144.4
144.4
144.4
144.4
144.4
144.4
144.4
144.4
144.4
144.4
144.4
144.4
144.4
144.4
144.4
144.4
144.4
144.4
144.4
144.4
144.4
144.4
144.4
144.4
144.4
144.4
144.4
144.4
144.4
144.4
144.4
144.4
144.4
144.4
144.4
144.4
144.4
144.4
144.4
144.4
144.4
144.4
144.4
144.4
144.4
144.4
144.4
144.4
144.4
144.4
144.4
144.4
144.4
144.4
144.4
144.4
144.4
144.4
144.4
144.4
144.4
144.4
144.4
144.4
144.4
144.4
144.4
144.4
144.4
144.4
144.4
144.4
144.4
144.4
144.4
144.4
144.4
144.4
144.4
144.4
144.4
144.4
144.4
144.4
144.4
144.4
144.4
144.4
144.4
144.4
144.4
144.4
144.4
144.4
144.4
144.4
144.4
144.4
144.4
144.4
144.4
144.4
144.4
144.4
144.4
144.4
144.4
144.4
144.4
144.4
144.4
144.4
144.4
144.4
144.4
144.4
144.4
144.4
144.4
144.4
144.4
144.4
144.4
144.4
144.4
144.4
144.4
144.4
144.4
144.4
144.4
144.4
144.4
144.4
144.4
144.4
144.4
144.4
144.4
144.4
144.4
144.4
144.4
144.4
144.4
144.4
144.4
144.4
144.4
144.4
144.4
144.4
144.4
144.4
144.4
144.4
144.4
144.4
144.4
144.4
144.4
144.4
144.4
144.4
144.4
144.4
144.4
144.4
144.4
144.4
144.4
144.4
144.4
144.4
144.4
144.4
144.4
144.4
144.4
144.4
144.4
144.4
144.4
144.4
144.4
144.4
144.4
144.4
144.4
144.4
144.4
144.4
144.4
144.4
144.4
144.4
144.4
144.4
144.4
144.4
144.4
144.4
144.4
144.4
144.4
144.4
144.4
144.4
144.4
144.4
144.4
144.4
144.4
144.4
144.4
144.4
144.4
144.4
144.4
144.4
144.4
144.4
144.4
144.4
144.4
144.4
144.4
144.4
144.4
144.4
144.4
144.4
144.4
144.4
144.4
144.4
144.4
144.4
144.4
144.4
144.4
144.4
144.4
144.4
144.4
144.4
144.4
144.4
144.4
144.4
144.4
144.4
144.4
144.4
144.4
144.4
144.4
144.4
144.4
144.4
144.4
144.4
144.4
144.4
144.4
144.4
144.4
144.4
144.4
144.4
144.4
144.4
144.4
144.4
144.4
144.4
144.4
144.4
144.4
144.4
144.4
144.4
144.4
144.4
144.4
144.4
144.4
144.4
144.4
144.4
144.4
144.4
144.4
144.4
144.4
144.4
144.4
144.4
144.4
144.4
144.4
144.4
144.4
144.4
144.4
144.4
144.4
144.4
144.4
144.4
144.4
144.4
144.4
144.4
144.4
144.4
144.4
144.4
144.4
144.4
144.4
144.4
144.4
144.4
144.4
144.4
144.4
144.4
144.4
144.4
144.4
144.4
144.4
144.4
144.4
144.4
144.4
144.4
144.4
144.4
144.4
144.4
144.4
144.4
144.4
144.4
144.4
144.4
144.4
144.4
144.4
144.4
144.4
144.4
144.4
144.4
144.4
144.4
144.4
144.4
144.4
144.4
144.4
144.4
144.4
144.4
144.4
144.4
144.4
144.4
144.4
144.4
144.4
144.4
144.4
144.4
144.4
144.4
144.4
144.4
144.4
144.4
144.4
144.4
144.4
144.4
144.4
144.4
144.4
144.4
144.4
144.4
144.4
144.4
144.4
144.4
144.4
144.4
144.4
144.4
144.4
144.4
144.4
144.4
144.4
144.4
144.4
144.4
144.4
144.4
144.4
144.4
144.4
144.4
144.4
144.4
144.4
144.4
144.4
144.4
144.4
144.4
144.4
144.4
144.4
144.4
144.4
144.4
144.4
144.4
144.4
144.4
144.4
144.4
144.4
144.4
144.4
144.4
144.4
144.4
144.4
144.4
144.4
144.4
144.4
144.4
144.4
144.4
144.4
144.4
144.4
144.4
144.4
144.4
144.4
144.4
144.4
144.4
144.4
144.4
144.4
144.4
144.4
144.4
144.4
144.4
144.4
144.4
144.4
144.4
144.4
144.4
144.4
144.4
144.4
144.4
144.4
144.4
144.4
144.4
144.4
144.4
144.4
144.4
144.4
144.4
144.4
144.4
144.4
144.4
144.4
144.4
144.4
144.4
144.4
144.4
144.4
144.4
144.4
144.4
144.4
144.4
144.4
144.4
144.4
144.4
144.4
144.4
144.4
144.4
144.4
144.4
144.4
144.4
144.4
144.4
144.4
144.4
144.4
144.4
144.4
144.4
144.4
144.4
144.4
144.4
144.4
144.4
144.4
144.4
144.4
144.4
144.4
144.4
144.4
144.4
144.4
144.4
144.4
144.4
144.4
144.4
144.4
144.4
144.4
144.4
144.4
144.4
144.4
144.4
144.4
144.4
144.4
144.4
144.4
144.4
144.4
144.4
144.4
144.4
144.4
144.4
144.4
144.4
144.4
144.4
144.4
144.4
144.4
144.4
144.4
144.4
144.4
144.4
144.4
144.4
144.4
144.4
144.4
144.4
144.4
144.4
144.4
144.4
144.4
144.4
144.4
144.4
144.4
144.4
144.4
144.4
144.4
144.4
144.4
144.4
144.4
144.4
144.4
144.4
144.4
144.4
144.4
144.4
144.4
144.4
144.4
144.4
144.4
144.4
144.4
144.4
144.4
144.4
144.4
144.4
144.4
144.4
144.4
144.4
144.4
144.401
144.401
144.401
144.401
144.401
144.4
144.4
144.4
144.4
144.4
144.4
144.4
144.4
144.4
144.4
144.4
144.4
144.4
144.4
144.4
144.4
144.4
144.4
144.4
144.4
144.4
144.4
144.4
144.4
144.4
144.4
144.4
144.4
144.4
144.4
144.4
144.4
144.4
144.4
144.4
144.4
144.4
144.4
144.4
144.4
144.4
144.4
144.4
144.4
144.4
144.4
144.4
144.4
144.4
144.4
144.4
144.4
144.4
144.4
144.4
144.4
144.4
144.4
144.4
144.4
144.4
144.4
144.4
144.4
144.4
144.4
144.4
144.4
144.4
144.4
144.4
144.4
144.4
144.4
144.4
144.4
144.4
144.4
144.4
144.4
144.4
144.4
144.4
144.4
144.4
144.4
144.4
144.4
144.4
144.4
144.401
144.401
144.401
144.401
144.401
144.401
144.401
144.401
144.401
144.401
144.402
144.402
144.402
144.402
144.402
144.402
144.403
144.403
144.403
144.404
144.404
144.405
144.405
144.406
144.406
144.406
144.4
144.4
144.4
144.4
144.4
144.4
144.4
144.4
144.4
144.4
144.4
144.4
144.4
144.4
144.4
144.4
144.4
144.4
144.4
144.4
144.4
144.4
144.4
144.4
144.4
144.4
144.4
144.4
144.4
144.4
144.4
144.4
144.4
144.4
144.4
144.4
144.4
144.4
144.4
144.4
144.4
144.4
144.4
144.4
144.4
144.4
144.4
144.4
144.4
144.4
144.4
144.4
144.4
144.4
144.4
144.4
144.4
144.4
144.4
144.4
144.4
144.4
144.4
144.4
144.4
144.4
144.4
144.4
144.4
144.4
144.4
144.4
144.4
144.4
144.4
144.4
144.4
144.401
144.401
144.401
144.401
144.401
144.401
144.401
144.401
144.401
144.401
144.401
144.402
144.402
144.402
144.402
144.402
144.403
144.403
144.403
144.403
144.404
144.404
144.405
144.405
144.406
144.407
144.408
144.408
144.409
144.41
144.411
144.412
144.413
144.415
144.416
144.418
144.42
144.423
144.425
144.428
144.431
144.435
144.438
144.441
144.445
144.448
144.4
144.4
144.4
144.4
144.4
144.4
144.4
144.4
144.4
144.4
144.4
144.4
144.4
144.4
144.4
144.4
144.4
144.4
144.4
144.4
144.4
144.4
144.4
144.4
144.4
144.4
144.4
144.4
144.4
144.4
144.4
144.4
144.4
144.4
144.4
144.4
144.4
144.4
144.4
144.4
144.4
144.4
144.4
144.4
144.4
144.4
144.4
144.4
144.4
144.4
144.4
144.4
144.4
144.4
144.4
144.4
144.4
144.401
144.401
144.401
144.401
144.401
144.401
144.401
144.401
144.401
144.401
144.401
144.401
144.402
144.402
144.402
144.402
144.402
144.403
144.403
144.403
144.404
144.404
144.404
144.405
144.405
144.406
144.407
144.407
144.408
144.409
144.41
144.411
144.412
144.414
144.415
144.417
144.418
144.42
144.422
144.425
144.427
144.43
144.434
144.438
144.443
144.448
144.454
144.46
144.467
144.473
144.481
144.488
144.497
144.506
144.518
144.531
144.547
144.565
144.585
144.607
144.63
144.654
144.679
144.704
144.728
144.753
144.4
144.4
144.4
144.4
144.4
144.4
144.4
144.4
144.4
144.4
144.4
144.4
144.4
144.4
144.4
144.4
144.4
144.4
144.4
144.4
144.4
144.4
144.4
144.4
144.4
144.4
144.4
144.4
144.4
144.4
144.4
144.4
144.4
144.4
144.4
144.4
144.401
144.401
144.401
144.401
144.401
144.401
144.401
144.401
144.401
144.401
144.401
144.401
144.402
144.402
144.402
144.402
144.402
144.402
144.403
144.403
144.403
144.403
144.404
144.404
144.405
144.405
144.406
144.406
144.407
144.407
144.408
144.409
144.41
144.411
144.412
144.413
144.415
144.417
144.418
144.42
144.422
144.425
144.427
144.43
144.433
144.436
144.44
144.444
144.449
144.455
144.462
144.469
144.477
144.485
144.495
144.505
144.515
144.527
144.539
144.553
144.569
144.589
144.611
144.637
144.667
144.701
144.738
144.778
144.821
144.867
144.916
144.967
145.022
145.081
145.15
145.232
145.331
145.446
145.577
145.723
145.881
146.047
146.22
146.397
146.575
146.752
146.927
144.4
144.4
144.4
144.4
144.4
144.4
144.4
144.4
144.4
144.4
144.4
144.4
144.4
144.4
144.4
144.401
144.401
144.401
144.401
144.401
144.401
144.401
144.401
144.401
144.401
144.401
144.401
144.402
144.402
144.402
144.402
144.402
144.402
144.403
144.403
144.403
144.403
144.404
144.404
144.404
144.405
144.405
144.406
144.406
144.407
144.407
144.408
144.409
144.41
144.411
144.412
144.413
144.414
144.415
144.417
144.418
144.42
144.422
144.425
144.427
144.43
144.433
144.436
144.44
144.444
144.448
144.453
144.458
144.464
144.471
144.479
144.487
144.497
144.508
144.52
144.533
144.548
144.563
144.579
144.597
144.616
144.639
144.664
144.694
144.728
144.767
144.811
144.86
144.914
144.972
145.035
145.102
145.174
145.251
145.335
145.43
145.542
145.676
145.833
146.016
146.224
146.457
146.712
146.988
147.285
147.6
147.931
148.279
148.649
149.055
149.526
150.094
150.776
151.574
152.477
153.469
154.531
155.646
156.797
157.966
159.136
160.294
161.43
162.543
163.637
144.401
144.401
144.401
144.401
144.401
144.401
144.401
144.401
144.402
144.402
144.402
144.402
144.402
144.403
144.403
144.403
144.403
144.404
144.404
144.405
144.405
144.405
144.406
144.407
144.407
144.408
144.409
144.409
144.41
144.411
144.412
144.413
144.415
144.416
144.417
144.419
144.421
144.422
144.424
144.427
144.429
144.432
144.435
144.438
144.442
144.446
144.45
144.455
144.46
144.466
144.472
144.479
144.486
144.494
144.504
144.514
144.526
144.539
144.554
144.57
144.588
144.608
144.629
144.651
144.676
144.703
144.733
144.767
144.806
144.851
144.902
144.959
145.023
145.094
145.172
145.257
145.348
145.446
145.551
145.665
145.792
145.938
146.108
146.305
146.533
146.793
147.084
147.406
147.758
148.139
148.547
148.982
149.444
149.938
150.48
151.1
151.834
152.712
153.745
154.936
156.276
157.757
159.369
161.1
162.939
164.873
166.889
168.986
171.186
173.583
176.373
179.748
183.77
188.384
193.471
198.909
204.58
210.384
216.229
222.03
227.711
233.21
238.501
243.595
248.528
144.404
144.404
144.405
144.405
144.406
144.407
144.407
144.408
144.409
144.41
144.411
144.412
144.414
144.415
144.417
144.418
144.42
144.422
144.424
144.427
144.429
144.432
144.435
144.438
144.442
144.446
144.451
144.455
144.461
144.466
144.472
144.479
144.486
144.494
144.503
144.512
144.522
144.533
144.545
144.559
144.574
144.591
144.609
144.63
144.652
144.677
144.704
144.733
144.764
144.798
144.834
144.875
144.921
144.972
145.031
145.097
145.171
145.253
145.345
145.446
145.557
145.677
145.806
145.945
146.096
146.263
146.45
146.665
146.912
147.195
147.518
147.88
148.284
148.728
149.213
149.738
150.301
150.902
151.545
152.242
153.022
153.922
154.975
156.198
157.599
159.178
160.928
162.841
164.909
167.121
169.465
171.934
174.524
177.258
180.226
183.622
187.654
192.424
197.925
204.09
210.827
218.045
225.664
233.607
241.797
250.159
258.631
267.189
275.914
285.144
295.742
308.367
322.854
338.646
355.173
371.98
388.717
405.119
420.985
436.158
450.504
463.946
476.5
488.295
499.494
144.419
144.422
144.425
144.428
144.431
144.434
144.438
144.443
144.447
144.453
144.458
144.465
144.472
144.479
144.487
144.496
144.506
144.517
144.529
144.541
144.555
144.57
144.586
144.603
144.623
144.644
144.667
144.693
144.721
144.751
144.785
144.821
144.86
144.902
144.948
144.997
145.05
145.109
145.174
145.247
145.327
145.417
145.517
145.627
145.749
145.882
146.028
146.185
146.355
146.538
146.737
146.954
147.196
147.469
147.779
148.13
148.527
148.972
149.467
150.014
150.613
151.264
151.967
152.722
153.531
154.406
155.371
156.464
157.718
159.158
160.799
162.646
164.7
166.957
169.41
172.05
174.865
177.843
180.975
184.274
187.808
191.748
196.288
201.544
207.531
214.205
221.497
229.328
237.62
246.295
255.282
264.515
273.936
283.522
293.346
303.709
315.383
328.99
344.483
361.48
379.546
398.291
417.405
436.647
455.826
474.771
493.339
511.423
529.011
546.274
563.757
583.881
608.377
635.23
662.583
689.309
714.786
738.663
760.749
780.97
799.319
815.802
830.474
843.499
855.16
865.736
144.512
144.525
144.541
144.557
144.576
144.596
144.618
144.643
144.669
144.699
144.731
144.767
144.806
144.848
144.895
144.946
145.002
145.062
145.127
145.198
145.274
145.357
145.448
145.547
145.657
145.777
145.909
146.054
146.213
146.386
146.574
146.778
146.998
147.235
147.49
147.766
148.067
148.399
148.768
149.181
149.641
150.153
150.721
151.346
152.032
152.779
153.589
154.462
155.399
156.403
157.486
158.673
159.997
161.492
163.184
165.089
167.218
169.577
172.167
174.986
178.027
181.282
184.739
188.389
192.238
196.336
200.821
205.873
211.612
218.08
225.26
233.104
241.549
250.525
259.958
269.774
279.894
290.246
300.782
311.535
322.726
334.971
348.825
364.301
381.114
398.932
417.454
436.409
455.562
474.726
493.748
512.506
530.908
548.937
566.745
584.799
605.238
629.48
655.971
683.276
710.44
736.852
762.143
786.113
808.642
829.64
849.055
866.901
883.24
898.16
911.884
924.288
935.134
944.635
952.972
960.243
966.512
971.822
976.207
979.712
982.416
984.339
985.558
986.305
986.852
987.391
987.852
987.92
145.024
145.1
145.185
145.277
145.378
145.49
145.612
145.745
145.892
146.054
146.231
146.426
146.64
146.873
147.128
147.406
147.707
148.033
148.384
148.763
149.174
149.621
150.11
150.647
151.238
151.886
152.598
153.375
154.223
155.143
156.137
157.207
158.353
159.576
160.885
162.295
163.833
165.53
167.411
169.498
171.805
174.343
177.117
180.133
183.388
186.88
190.6
194.539
198.689
203.06
207.701
212.733
218.306
224.521
231.422
239.004
247.238
256.082
265.481
275.375
285.697
296.375
307.336
318.526
329.952
341.77
354.427
368.415
383.801
400.402
417.974
436.276
455.08
474.176
493.381
512.533
531.485
550.115
568.365
586.327
604.332
624.072
646.854
671.512
696.871
722.163
746.915
770.788
793.543
815.047
835.232
854.046
871.493
887.649
902.588
916.48
929.226
940.641
950.908
960.199
968.564
976.013
982.606
988.401
993.433
997.738
1001.36
1004.37
1006.83
1008.91
1010.84
1012.78
1014.68
1016.5
1018.17
1019.52
1020.54
1021.29
1021.79
1021.86
1021.74
1021.37
1020.65
1019.58
1018.27
1016.89
1015.37
1013.76
147.789
148.194
148.639
149.127
149.659
150.241
150.877
151.573
152.337
153.173
154.09
155.092
156.184
157.372
158.66
160.05
161.544
163.145
164.855
166.686
168.656
170.789
173.109
175.634
178.381
181.36
184.582
188.051
191.769
195.736
199.944
204.386
209.049
213.932
219.057
224.497
230.367
236.764
243.741
251.317
259.484
268.221
277.496
287.268
297.488
308.099
319.04
330.25
341.686
353.364
365.43
378.258
392.177
407.223
423.271
440.157
457.712
475.77
494.168
512.754
531.379
549.904
568.208
586.214
603.973
621.713
640.605
661.953
684.937
708.646
732.44
755.888
778.669
800.553
821.385
841.059
859.493
876.636
892.525
907.219
920.839
933.365
944.699
954.954
964.198
972.524
980.023
986.726
992.65
997.839
1002.33
1006.17
1009.48
1012.33
1014.82
1017.18
1019.58
1021.98
1024.29
1026.55
1028.71
1030.64
1032.33
1033.84
1035.14
1036.21
1037.03
1037.64
1037.92
1037.9
1037.79
1037.6
1037.38
1037.26
1037.23
1037.16
1037.02
1036.82
1036.52
1036.11
1035.58
1034.93
1034.09
1033.02
1031.78
1030.38
1028.74
1027.05
161.723
163.678
165.801
168.096
170.572
173.243
176.131
179.255
182.634
186.281
190.21
194.426
198.935
203.739
208.834
214.212
219.861
225.769
231.936
238.397
245.228
252.499
260.256
268.518
277.287
286.55
296.287
306.466
317.047
327.986
339.227
350.713
362.394
374.248
386.348
398.909
412.212
426.341
441.244
456.828
472.988
489.62
506.615
523.863
541.252
558.666
575.996
593.147
610.069
626.821
643.617
661.536
681.279
702.234
723.78
745.459
766.936
787.954
808.32
827.882
846.518
864.128
880.637
896.052
910.437
923.863
936.317
947.699
958.112
967.599
976.231
984.061
991.099
997.375
1002.94
1007.82
1012.03
1015.61
1018.71
1021.49
1024.03
1026.45
1028.93
1031.4
1033.71
1035.83
1037.82
1039.65
1041.26
1042.65
1043.84
1044.82
1045.58
1046.11
1046.44
1046.67
1046.84
1046.98
1047.21
1047.63
1048.13
1048.65
1049.2
1049.78
1050.34
1050.82
1051.29
1051.69
1051.78
1051.73
1051.58
1051.26
1050.83
1050.35
1049.9
1049.48
1049.03
1048.55
1048.03
1047.47
1046.84
1046.11
1045.2
1044.11
1042.9
1041.48
1039.74
1037.96
1036.26
226.813
234.289
242.135
250.356
258.992
268.088
277.674
287.757
298.333
309.383
320.879
332.786
345.061
357.653
370.503
383.548
396.731
410.058
423.644
437.685
452.243
467.286
482.756
498.588
514.718
531.079
547.598
564.195
580.789
597.287
613.608
629.69
645.536
661.266
677.418
694.875
713.313
732.317
751.549
770.748
789.707
808.261
826.277
843.641
860.253
876.025
890.901
904.905
918.1
930.55
942.185
952.934
962.881
972.074
980.544
988.312
995.394
1001.81
1007.58
1012.72
1017.24
1021.13
1024.56
1027.71
1030.64
1033.4
1036.17
1038.92
1041.46
1043.86
1046.16
1048.24
1050.07
1051.73
1053.18
1054.38
1055.29
1055.96
1056.41
1056.63
1056.79
1057.02
1057.23
1057.47
1057.83
1058.33
1058.85
1059.38
1059.9
1060.42
1060.96
1061.46
1061.88
1062.18
1062.29
1062.27
1062.16
1062.08
1062.12
1062.19
1062.32
1062.52
1062.82
1063.13
1063.44
1063.78
1064.07
1064.11
1064.04
1063.86
1063.48
1062.92
1062.28
1061.62
1060.94
1060.27
1059.56
1058.83
1058.07
1057.26
1056.39
1055.4
1054.31
1053.15
1051.77
1050.12
1048.54
1046.93
396.511
412.414
428.486
444.744
461.314
478.228
495.436
512.863
530.439
548.1
565.791
583.454
601.029
618.452
635.649
652.543
669.078
685.289
701.497
718.456
735.98
753.808
771.709
789.496
807.016
824.14
840.764
856.801
872.17
886.794
900.614
913.624
925.883
937.452
948.341
958.46
967.888
976.674
984.847
992.422
999.411
1005.82
1011.67
1016.97
1021.72
1025.91
1029.6
1032.95
1036.11
1039.15
1042.09
1044.95
1047.74
1050.42
1052.98
1055.38
1057.62
1059.66
1061.53
1063.2
1064.63
1065.75
1066.6
1067.26
1067.7
1068.07
1068.5
1068.82
1069.16
1069.7
1070.28
1070.82
1071.43
1072.05
1072.65
1073.25
1073.83
1074.36
1074.71
1074.77
1074.74
1074.67
1074.51
1074.28
1074.24
1074.29
1074.38
1074.54
1074.74
1075.02
1075.36
1075.74
1076.11
1076.39
1076.42
1076.34
1076.14
1075.94
1075.76
1075.59
1075.51
1075.52
1075.58
1075.7
1075.84
1075.98
1076.12
1076.15
1076.11
1075.98
1075.7
1075.25
1074.69
1074.06
1073.39
1072.67
1071.91
1071.1
1070.25
1069.37
1068.42
1067.4
1066.35
1065.19
1063.83
1062.32
1060.87
1059.23
687.872
706.805
725.329
744.132
763.176
782.249
801.164
819.761
837.902
855.468
872.368
888.527
903.884
918.379
931.945
944.575
956.306
967.178
977.146
986.334
994.825
1002.67
1009.91
1016.57
1022.65
1028.18
1033.18
1037.65
1041.58
1044.98
1047.99
1050.79
1053.48
1056.09
1058.64
1061.13
1063.55
1065.89
1068.12
1070.22
1072.2
1074.02
1075.7
1077.19
1078.43
1079.37
1080.08
1080.63
1081.1
1081.52
1081.93
1082.36
1082.85
1083.41
1084.02
1084.67
1085.36
1086.06
1086.79
1087.53
1088.26
1088.93
1089.43
1089.68
1089.77
1089.79
1089.67
1089.51
1089.54
1089.57
1089.6
1089.74
1089.93
1090.18
1090.48
1090.85
1091.24
1091.45
1091.43
1091.31
1091.06
1090.68
1090.24
1089.9
1089.64
1089.44
1089.32
1089.32
1089.37
1089.48
1089.68
1089.94
1090.2
1090.39
1090.4
1090.37
1090.33
1090.26
1090.16
1090.11
1090.11
1090.15
1090.22
1090.3
1090.4
1090.48
1090.52
1090.51
1090.43
1090.22
1089.86
1089.36
1088.78
1088.11
1087.37
1086.56
1085.68
1084.76
1083.78
1082.73
1081.65
1080.54
1079.32
1077.93
1076.51
1075.07
1073.35
980.327
993.445
1005.26
1015.88
1025.46
1034.11
1041.92
1048.97
1055.31
1060.97
1065.99
1070.41
1074.22
1077.37
1079.96
1082.22
1084.28
1086.24
1088.12
1089.93
1091.67
1093.32
1094.87
1096.32
1097.65
1098.86
1099.93
1100.78
1101.34
1101.62
1101.73
1101.79
1101.85
1101.93
1102.04
1102.2
1102.44
1102.75
1103.14
1103.6
1104.12
1104.69
1105.32
1106
1106.69
1107.27
1107.65
1107.82
1107.82
1107.78
1107.69
1107.6
1107.57
1107.59
1107.67
1107.81
1108.02
1108.29
1108.64
1109.08
1109.54
1109.88
1109.98
1109.92
1109.72
1109.34
1108.92
1108.55
1108.2
1107.89
1107.66
1107.5
1107.41
1107.4
1107.46
1107.6
1107.72
1107.74
1107.72
1107.59
1107.33
1107
1106.72
1106.47
1106.26
1106.1
1106.03
1106.04
1106.1
1106.24
1106.47
1106.75
1106.99
1107.14
1107.23
1107.3
1107.31
1107.3
1107.3
1107.31
1107.34
1107.39
1107.43
1107.48
1107.51
1107.5
1107.47
1107.37
1107.16
1106.83
1106.37
1105.81
1105.15
1104.4
1103.56
1102.64
1101.64
1100.58
1099.44
1098.27
1097.05
1095.73
1094.3
1092.89
1091.34
1089.55
1087.89
1086.21
1122.91
1125.47
1127.48
1129.15
1130.64
1131.98
1133.18
1134.27
1135.22
1136.04
1136.72
1137.26
1137.62
1137.58
1137.27
1136.71
1136.06
1135.42
1134.8
1134.23
1133.72
1133.29
1132.94
1132.68
1132.51
1132.46
1132.51
1132.67
1132.94
1133.21
1133.23
1133.11
1132.84
1132.48
1132.09
1131.7
1131.35
1131.07
1130.86
1130.73
1130.73
1130.78
1130.94
1131.22
1131.61
1132.01
1132.27
1132.25
1132.11
1131.83
1131.43
1131
1130.57
1130.18
1129.85
1129.58
1129.37
1129.23
1129.22
1129.27
1129.41
1129.56
1129.66
1129.64
1129.53
1129.27
1128.94
1128.59
1128.22
1127.86
1127.55
1127.29
1127.07
1126.92
1126.86
1126.88
1126.92
1126.97
1126.97
1126.9
1126.72
1126.48
1126.23
1126
1125.8
1125.63
1125.51
1125.5
1125.52
1125.62
1125.8
1126.03
1126.28
1126.49
1126.66
1126.8
1126.89
1126.94
1126.99
1127.03
1127.08
1127.12
1127.16
1127.16
1127.15
1127.11
1127.02
1126.87
1126.63
1126.28
1125.81
1125.23
1124.56
1123.79
1122.93
1121.97
1120.92
1119.77
1118.55
1117.29
1115.95
1114.51
1113.03
1111.52
1109.81
1108.01
1106.37
1104.56
1184.72
1184.02
1182.9
1181.65
1180.41
1179.17
1177.95
1176.8
1175.71
1174.68
1173.72
1172.87
1172.18
1171.65
1171.27
1170.8
1170.09
1169.19
1168.17
1167.11
1166.06
1165.06
1164.14
1163.3
1162.57
1161.96
1161.49
1161.16
1161.07
1161.09
1161.04
1160.87
1160.52
1160.02
1159.42
1158.77
1158.1
1157.47
1156.89
1156.39
1155.97
1155.65
1155.39
1155.27
1155.3
1155.41
1155.56
1155.59
1155.52
1155.35
1155.05
1154.67
1154.27
1153.85
1153.45
1153.09
1152.76
1152.48
1152.27
1152.14
1152.13
1152.16
1152.17
1152.17
1152.09
1151.89
1151.61
1151.27
1150.89
1150.5
1150.13
1149.79
1149.49
1149.24
1149.06
1148.93
1148.89
1148.88
1148.87
1148.79
1148.64
1148.44
1148.23
1148.02
1147.82
1147.66
1147.53
1147.49
1147.51
1147.58
1147.72
1147.93
1148.16
1148.38
1148.59
1148.77
1148.9
1149.01
1149.09
1149.16
1149.23
1149.29
1149.31
1149.31
1149.27
1149.19
1149.06
1148.85
1148.56
1148.16
1147.65
1147.04
1146.33
1145.53
1144.62
1143.62
1142.52
1141.31
1140.02
1138.66
1137.2
1135.66
1134.09
1132.43
1130.56
1128.76
1127.03
1125
1219.01
1218
1216.76
1215.26
1213.55
1211.78
1210.04
1208.35
1206.69
1205.11
1203.65
1202.36
1201.27
1200.43
1199.68
1198.87
1197.92
1196.85
1195.69
1194.47
1193.26
1192.09
1190.98
1189.96
1189.06
1188.28
1187.61
1187.14
1186.88
1186.75
1186.65
1186.48
1186.21
1185.82
1185.35
1184.82
1184.26
1183.71
1183.18
1182.7
1182.26
1181.87
1181.59
1181.39
1181.32
1181.34
1181.34
1181.31
1181.19
1180.97
1180.63
1180.25
1179.84
1179.4
1178.97
1178.55
1178.17
1177.84
1177.56
1177.38
1177.26
1177.18
1177.1
1176.99
1176.79
1176.53
1176.2
1175.81
1175.4
1174.99
1174.6
1174.23
1173.91
1173.63
1173.41
1173.27
1173.18
1173.11
1173
1172.86
1172.68
1172.47
1172.27
1172.08
1171.92
1171.79
1171.75
1171.77
1171.84
1171.97
1172.15
1172.37
1172.6
1172.82
1173.03
1173.19
1173.33
1173.44
1173.53
1173.62
1173.69
1173.72
1173.71
1173.66
1173.56
1173.38
1173.13
1172.78
1172.33
1171.76
1171.1
1170.34
1169.49
1168.53
1167.48
1166.32
1165.05
1163.69
1162.23
1160.66
1159.03
1157.35
1155.51
1153.53
1151.7
1149.78
1147.49
1248.45
1246.86
1245.28
1243.66
1241.76
1239.83
1237.98
1236.07
1234.15
1232.35
1230.67
1229.12
1227.75
1226.6
1225.69
1224.94
1224.24
1223.5
1222.71
1221.85
1220.95
1220.02
1219.09
1218.2
1217.36
1216.58
1215.89
1215.3
1214.88
1214.61
1214.46
1214.35
1214.2
1213.98
1213.67
1213.27
1212.82
1212.32
1211.81
1211.3
1210.8
1210.34
1209.94
1209.59
1209.34
1209.19
1209.09
1208.99
1208.87
1208.67
1208.37
1208
1207.59
1207.14
1206.67
1206.2
1205.74
1205.32
1204.94
1204.62
1204.38
1204.18
1204.02
1203.84
1203.61
1203.34
1203
1202.61
1202.18
1201.74
1201.3
1200.89
1200.51
1200.16
1199.87
1199.65
1199.49
1199.36
1199.22
1199.06
1198.88
1198.68
1198.48
1198.29
1198.13
1198
1197.97
1198
1198.08
1198.21
1198.38
1198.6
1198.84
1199.08
1199.31
1199.5
1199.66
1199.79
1199.89
1199.99
1200.07
1200.11
1200.1
1200.04
1199.92
1199.72
1199.43
1199.03
1198.53
1197.91
1197.19
1196.37
1195.45
1194.44
1193.33