/*--------------------------------*- C++ -*----------------------------------*\
| =========                 |                                                 |
| \\      /  F ield         | OpenFOAM: The Open Source CFD Toolbox           |
|  \\    /   O peration     | Version:  v1706                                 |
|   \\  /    A nd           | Web:      www.OpenFOAM.com                      |
|    \\/     M anipulation  |                                                 |
\*---------------------------------------------------------------------------*/
FoamFile
{
    version     2.0;
    format      ascii;
    class       volVectorField;
    location    "1.8e-05";
    object      U;
}
// * * * * * * * * * * * * * * * * * * * * * * * * * * * * * * * * * * * * * //

dimensions      [0 1 -1 0 0 0 0];


internalField   nonuniform List<vector> 
29871
(
(2764.5 -3.9538e-11 6.77479e-15)
(2764.5 -3.89881e-11 4.93967e-15)
(2764.5 -3.78435e-11 4.16656e-15)
(2764.5 -3.7576e-11 3.31212e-15)
(2764.5 -3.7823e-11 1.12387e-15)
(2764.5 -3.92774e-11 1.82175e-15)
(2764.5 -3.80343e-11 2.84631e-15)
(2764.5 -3.6952e-11 3.02802e-15)
(2764.5 -3.68384e-11 3.6152e-15)
(2764.5 -3.69584e-11 3.56275e-15)
(2764.5 -3.76614e-11 3.96685e-15)
(2764.5 -3.92592e-11 5.58171e-15)
(2764.5 -4.05451e-11 4.65648e-15)
(2764.5 -4.03387e-11 5.33169e-15)
(2764.5 -3.8571e-11 3.84035e-15)
(2764.5 -3.78926e-11 2.45706e-15)
(2764.5 -3.82312e-11 2.79151e-15)
(2764.5 -3.97525e-11 3.6119e-15)
(2764.5 -4.10784e-11 4.78774e-15)
(2764.5 -4.0779e-11 4.49242e-15)
(2764.5 -4.06204e-11 2.88985e-15)
(2764.5 -4.03955e-11 3.27437e-15)
(2764.5 -4.03435e-11 1.50141e-15)
(2764.5 -4.19041e-11 2.68382e-15)
(2764.5 -4.45986e-11 4.70281e-15)
(2764.5 -4.61363e-11 4.54619e-15)
(2764.5 -4.50433e-11 5.39165e-15)
(2764.5 -4.35793e-11 3.02206e-15)
(2764.5 -4.32174e-11 2.53176e-15)
(2764.5 -4.33997e-11 3.92274e-15)
(2764.5 -4.31646e-11 4.42734e-15)
(2764.5 -4.26498e-11 1.64666e-15)
(2764.5 -4.41379e-11 3.87984e-15)
(2764.5 -4.5649e-11 5.64608e-15)
(2764.5 -4.74679e-11 3.27514e-15)
(2764.5 -4.78509e-11 1.04905e-15)
(2764.5 -4.80809e-11 6.4414e-16)
(2764.5 -4.79494e-11 2.96015e-15)
(2764.5 -4.71853e-11 3.52251e-15)
(2764.5 -4.74525e-11 4.00587e-15)
(2764.5 -4.73857e-11 5.21809e-15)
(2764.5 -4.68577e-11 5.92098e-15)
(2764.5 -4.65606e-11 6.25428e-15)
(2764.5 -4.34415e-11 3.46477e-15)
(2764.5 -4.19846e-11 3.1905e-15)
(2764.5 -4.16752e-11 5.1745e-15)
(2764.5 -4.29141e-11 1.34612e-15)
(2764.5 -4.27411e-11 -2.56222e-16)
(2764.5 -4.2421e-11 -3.15023e-16)
(2764.5 -3.84346e-11 5.77318e-15)
(2764.5 -3.10726e-11 3.49232e-15)
(2764.5 -2.85023e-11 4.86433e-16)
(2764.5 -3.07539e-11 2.31134e-15)
(2764.5 -3.24886e-11 4.0546e-15)
(2764.5 -3.26342e-11 3.75063e-15)
(2764.5 -3.14497e-11 3.76404e-15)
(2764.5 -2.80765e-11 4.36539e-15)
(2764.5 -2.78093e-11 5.38908e-15)
(2764.5 -2.86077e-11 4.56688e-15)
(2764.5 -2.91291e-11 3.71409e-15)
(2764.5 -2.96966e-11 2.28207e-15)
(2764.5 -3.0117e-11 1.44621e-15)
(2764.5 -3.11691e-11 2.05808e-15)
(2764.5 -3.28652e-11 5.33194e-17)
(2764.5 -3.48835e-11 3.35996e-15)
(2764.5 -3.76044e-11 5.07627e-15)
(2764.5 -4.21412e-11 2.89179e-15)
(2764.5 -4.50885e-11 2.10559e-15)
(2764.5 -4.47701e-11 1.92053e-15)
(2764.5 -4.41273e-11 2.51031e-15)
(2764.5 -4.52659e-11 3.11839e-15)
(2764.5 -4.89371e-11 3.34657e-15)
(2764.5 -4.90003e-11 1.60701e-15)
(2764.5 -4.50265e-11 2.7304e-15)
(2764.5 -4.51955e-11 3.04919e-15)
(2764.5 -4.86789e-11 4.21558e-15)
(2764.5 -5.22475e-11 1.72548e-15)
(2764.5 -5.57109e-11 2.18989e-15)
(2764.5 -5.822e-11 1.61461e-15)
(2764.5 -5.88499e-11 4.75502e-15)
(2764.5 -5.74496e-11 4.95818e-15)
(2764.5 -5.28765e-11 3.52245e-15)
(2764.5 -4.78728e-11 3.85295e-15)
(2764.5 -3.74778e-11 2.72678e-15)
(2764.5 -3.43546e-11 4.91695e-15)
(2764.5 -3.33518e-11 4.30333e-15)
(2764.5 -3.23324e-11 3.2863e-15)
(2764.5 -2.67822e-11 4.09077e-15)
(2764.5 -2.29487e-11 4.32207e-15)
(2764.5 -1.75171e-11 3.49384e-15)
(2764.5 -1.27002e-11 3.69386e-15)
(2764.5 -9.33947e-12 1.19088e-15)
(2764.5 -8.1229e-12 2.51879e-15)
(2764.5 -5.05142e-12 3.61257e-15)
(2764.5 -6.16193e-12 1.87833e-15)
(2764.5 -1.09592e-11 1.74564e-15)
(2764.5 -1.42436e-11 2.23233e-15)
(2764.5 -1.72898e-11 2.3205e-15)
(2764.5 -2.0153e-11 2.62245e-15)
(2764.5 -2.18709e-11 2.87319e-15)
(2764.5 -2.28372e-11 3.95542e-15)
(2764.5 -2.51802e-11 3.35478e-15)
(2764.5 -2.69987e-11 1.75656e-15)
(2764.5 -2.94758e-11 2.11645e-15)
(2764.5 -3.25754e-11 7.96723e-17)
(2764.5 -1.24009e-10 9.71055e-15)
(2764.5 -1.25061e-10 9.71903e-15)
(2764.5 -1.249e-10 1.22128e-14)
(2764.5 -1.24142e-10 1.16924e-14)
(2764.5 -1.2259e-10 1.02668e-14)
(2764.5 -1.22521e-10 1.24235e-14)
(2764.5 -1.2478e-10 1.22526e-14)
(2764.5 -1.25998e-10 1.17519e-14)
(2764.5 -1.24181e-10 1.21009e-14)
(2764.5 -1.21782e-10 1.16088e-14)
(2764.5 -1.18781e-10 1.14189e-14)
(2764.5 -1.1506e-10 1.16017e-14)
(2764.5 -1.14771e-10 1.41571e-14)
(2764.5 -1.15525e-10 1.24421e-14)
(2764.5 -1.19436e-10 5.00489e-15)
(2764.5 -1.21178e-10 8.31459e-15)
(2764.5 -1.21488e-10 1.07372e-14)
(2764.5 -1.19063e-10 1.19541e-14)
(2764.5 -1.19293e-10 9.96158e-15)
(2764.5 -1.21286e-10 7.4101e-15)
(2764.5 -1.21452e-10 8.8038e-15)
(2764.5 -1.22467e-10 1.02381e-14)
(2764.5 -1.19887e-10 1.17345e-14)
(2764.5 -1.1688e-10 1.27808e-14)
(2764.5 -1.14667e-10 1.01528e-14)
(2764.5 -1.15192e-10 1.1087e-14)
(2764.5 -1.20423e-10 1.15186e-14)
(2764.5 -1.21703e-10 1.08405e-14)
(2764.5 -1.20161e-10 1.12422e-14)
(2764.5 -1.18244e-10 1.09894e-14)
(2764.5 -1.17699e-10 1.19099e-14)
(2764.5 -1.13525e-10 7.29837e-15)
(2764.5 -1.10887e-10 8.85052e-15)
(2764.5 -1.06956e-10 1.37156e-14)
(2764.5 -1.05162e-10 1.20525e-14)
(2764.5 -1.10047e-10 1.25699e-14)
(2764.5 -1.0852e-10 7.97975e-15)
(2764.5 -1.12221e-10 1.22908e-14)
(2764.5 -1.14443e-10 1.11578e-14)
(2764.5 -1.1368e-10 1.15484e-14)
(2764.5 -1.15382e-10 1.2143e-14)
(2764.5 -1.17073e-10 1.09664e-14)
(2764.5 -1.19647e-10 1.14108e-14)
(2764.5 -1.25233e-10 1.05214e-14)
(2764.5 -1.2577e-10 1.03666e-14)
(2764.5 -1.26126e-10 1.1266e-14)
(2764.5 -1.26355e-10 1.21605e-14)
(2764.5 -1.28236e-10 7.53664e-15)
(2764.5 -1.3092e-10 9.51882e-15)
(2764.5 -1.35362e-10 8.73488e-15)
(2764.5 -1.37848e-10 6.88816e-15)
(2764.5 -1.33983e-10 1.03645e-14)
(2764.5 -1.27906e-10 1.1835e-14)
(2764.5 -1.26396e-10 1.03646e-14)
(2764.5 -1.28753e-10 8.82787e-15)
(2764.5 -1.32482e-10 8.79964e-15)
(2764.5 -1.35123e-10 1.12988e-14)
(2764.5 -1.33824e-10 1.30871e-14)
(2764.5 -1.31311e-10 6.70612e-15)
(2764.5 -1.28752e-10 6.76875e-15)
(2764.5 -1.2822e-10 1.00272e-14)
(2764.5 -1.26044e-10 6.22005e-15)
(2764.5 -1.21554e-10 7.10856e-15)
(2764.5 -1.17026e-10 6.25204e-15)
(2764.5 -1.10931e-10 8.5933e-15)
(2764.5 -1.03439e-10 8.21057e-15)
(2764.5 -9.97965e-11 6.17313e-15)
(2764.5 -9.91509e-11 1.03302e-14)
(2764.5 -1.03639e-10 9.76238e-15)
(2764.5 -1.03861e-10 8.14634e-15)
(2764.5 -1.0006e-10 9.78112e-15)
(2764.5 -9.6868e-11 7.36932e-15)
(2764.5 -1.00078e-10 6.25603e-15)
(2764.5 -1.02014e-10 9.2885e-15)
(2764.5 -9.75873e-11 7.58781e-15)
(2764.5 -9.04588e-11 7.51073e-15)
(2764.5 -8.83119e-11 7.3404e-15)
(2764.5 -8.61862e-11 7.99504e-15)
(2764.5 -8.63294e-11 7.83704e-15)
(2764.5 -8.80524e-11 1.04862e-14)
(2764.5 -9.44873e-11 9.67445e-15)
(2764.5 -1.00866e-10 7.95011e-15)
(2764.5 -1.13367e-10 8.00796e-15)
(2764.5 -1.20582e-10 1.01427e-14)
(2764.5 -1.20358e-10 1.0553e-14)
(2764.5 -1.21267e-10 1.05648e-14)
(2764.5 -1.26556e-10 1.09628e-14)
(2764.5 -1.34373e-10 9.84772e-15)
(2764.5 -1.44873e-10 1.03968e-14)
(2764.5 -1.45398e-10 1.05567e-14)
(2764.5 -1.50567e-10 8.68776e-15)
(2764.5 -1.48646e-10 8.52273e-15)
(2764.5 -1.51685e-10 1.23313e-14)
(2764.5 -1.5379e-10 1.10833e-14)
(2764.5 -1.49969e-10 9.44594e-15)
(2764.5 -1.49097e-10 9.59116e-15)
(2764.5 -1.52443e-10 7.60323e-15)
(2764.5 -1.53696e-10 9.46574e-15)
(2764.5 -1.55756e-10 9.90144e-15)
(2764.5 -1.56685e-10 5.86354e-15)
(2764.5 -1.54962e-10 8.77836e-15)
(2764.5 -1.53076e-10 1.06546e-14)
(2764.5 -1.50988e-10 7.61847e-15)
(2764.5 -1.39711e-10 7.93092e-15)
(2764.5 -1.27252e-10 5.28232e-15)
(2764.5 -2.05788e-10 1.90378e-14)
(2764.5 -2.05707e-10 2.41508e-14)
(2764.5 -2.06187e-10 1.93659e-14)
(2764.5 -2.06879e-10 2.03335e-14)
(2764.5 -2.05692e-10 2.15295e-14)
(2764.5 -2.04053e-10 1.84965e-14)
(2764.5 -2.03186e-10 2.08438e-14)
(2764.5 -1.99474e-10 1.80275e-14)
(2764.5 -2.00638e-10 2.21175e-14)
(2764.5 -2.02717e-10 2.03829e-14)
(2764.5 -2.02574e-10 1.95927e-14)
(2764.5 -2.00494e-10 1.6757e-14)
(2764.5 -1.99491e-10 1.49765e-14)
(2764.5 -1.95589e-10 1.70057e-14)
(2764.5 -1.93756e-10 1.76414e-14)
(2764.5 -1.94848e-10 1.87213e-14)
(2764.5 -1.96069e-10 1.71009e-14)
(2764.5 -1.9911e-10 1.90601e-14)
(2764.5 -2.00683e-10 1.68098e-14)
(2764.5 -1.9615e-10 1.63533e-14)
(2764.5 -1.94283e-10 1.87646e-14)
(2764.5 -1.91475e-10 1.27411e-14)
(2764.5 -1.92228e-10 1.50277e-14)
(2764.5 -1.94002e-10 1.8671e-14)
(2764.5 -1.92651e-10 1.55829e-14)
(2764.5 -1.88478e-10 1.75641e-14)
(2764.5 -1.85916e-10 1.92518e-14)
(2764.5 -1.88054e-10 1.76556e-14)
(2764.5 -1.908e-10 1.73439e-14)
(2764.5 -1.94704e-10 1.80838e-14)
(2764.5 -1.99381e-10 1.74841e-14)
(2764.5 -2.04018e-10 1.80314e-14)
(2764.5 -2.06258e-10 1.75635e-14)
(2764.5 -2.06373e-10 1.80358e-14)
(2764.5 -2.03586e-10 1.83761e-14)
(2764.5 -1.97685e-10 1.84534e-14)
(2764.5 -1.98145e-10 1.91397e-14)
(2764.5 -1.9623e-10 1.82126e-14)
(2764.5 -1.9459e-10 1.70473e-14)
(2764.5 -1.96311e-10 1.87839e-14)
(2764.5 -1.98363e-10 2.0331e-14)
(2764.5 -2.01499e-10 1.70144e-14)
(2764.5 -2.02026e-10 1.69984e-14)
(2764.5 -1.99079e-10 1.61875e-14)
(2764.5 -2.00937e-10 1.76003e-14)
(2764.5 -1.99938e-10 1.62955e-14)
(2764.5 -1.99227e-10 1.85226e-14)
(2764.5 -1.97462e-10 1.81624e-14)
(2764.5 -1.95926e-10 1.55761e-14)
(2764.5 -1.92828e-10 1.54185e-14)
(2764.5 -1.91154e-10 1.2893e-14)
(2764.5 -1.92221e-10 1.49808e-14)
(2764.5 -1.92939e-10 1.37586e-14)
(2764.5 -1.88397e-10 1.29751e-14)
(2764.5 -1.79144e-10 1.52899e-14)
(2764.5 -1.75412e-10 1.86943e-14)
(2764.5 -1.71104e-10 1.09037e-14)
(2764.5 -1.69523e-10 1.8575e-14)
(2764.5 -1.68963e-10 2.1645e-14)
(2764.5 -1.69552e-10 1.5586e-14)
(2764.5 -1.69826e-10 1.45088e-14)
(2764.5 -1.69207e-10 1.34578e-14)
(2764.5 -1.74632e-10 1.54246e-14)
(2764.5 -1.80972e-10 1.68493e-14)
(2764.5 -1.83453e-10 1.37111e-14)
(2764.5 -1.85842e-10 1.48985e-14)
(2764.5 -1.86536e-10 1.51528e-14)
(2764.5 -1.85003e-10 1.5261e-14)
(2764.5 -1.85316e-10 1.59714e-14)
(2764.5 -1.88024e-10 1.67342e-14)
(2764.5 -2.009e-10 1.42816e-14)
(2764.5 -2.08446e-10 1.75844e-14)
(2764.5 -2.15069e-10 1.43104e-14)
(2764.5 -2.18964e-10 1.43486e-14)
(2764.5 -2.25946e-10 1.57038e-14)
(2764.5 -2.33835e-10 1.2143e-14)
(2764.5 -2.33796e-10 1.64344e-14)
(2764.5 -2.32927e-10 1.68651e-14)
(2764.5 -2.32231e-10 1.43322e-14)
(2764.5 -2.29719e-10 1.33858e-14)
(2764.5 -2.22061e-10 1.5784e-14)
(2764.5 -2.1755e-10 1.50615e-14)
(2764.5 -2.12604e-10 1.56516e-14)
(2764.5 -2.06805e-10 1.40902e-14)
(2764.5 -2.02597e-10 1.65402e-14)
(2764.5 -1.9736e-10 1.80779e-14)
(2764.5 -1.88258e-10 1.48258e-14)
(2764.5 -1.81873e-10 1.41899e-14)
(2764.5 -1.7449e-10 1.70062e-14)
(2764.5 -1.6658e-10 1.58221e-14)
(2764.5 -1.57943e-10 1.6086e-14)
(2764.5 -1.54192e-10 1.6324e-14)
(2764.5 -1.47644e-10 1.49583e-14)
(2764.5 -1.37312e-10 1.5679e-14)
(2764.5 -1.27845e-10 1.66262e-14)
(2764.5 -1.13884e-10 1.53073e-14)
(2764.5 -1.03916e-10 1.19864e-14)
(2764.5 -1.0051e-10 1.54438e-14)
(2764.5 -9.59882e-11 1.76029e-14)
(2764.5 -9.92113e-11 1.34804e-14)
(2764.5 -9.86547e-11 1.18661e-14)
(2764.5 -1.09915e-10 1.31338e-14)
(2764.5 -1.2297e-10 1.36194e-14)
(2764.5 -1.37745e-10 1.3226e-14)
(2764.5 -1.60759e-10 1.36467e-14)
(2764.5 -1.86137e-10 1.29196e-14)
(2764.5 -2.87718e-10 2.83575e-14)
(2764.5 -2.85598e-10 3.81762e-14)
(2764.5 -2.8531e-10 2.56984e-14)
(2764.5 -2.86666e-10 2.58677e-14)
(2764.5 -2.8816e-10 2.68565e-14)
(2764.5 -2.87298e-10 2.50112e-14)
(2764.5 -2.87738e-10 3.00363e-14)
(2764.5 -2.86731e-10 2.92437e-14)
(2764.5 -2.85232e-10 2.54605e-14)
(2764.5 -2.89278e-10 2.31934e-14)
(2764.5 -2.92098e-10 2.74815e-14)
(2764.5 -2.94819e-10 2.68914e-14)
(2764.5 -2.91634e-10 2.59841e-14)
(2764.5 -2.89081e-10 2.52859e-14)
(2764.5 -2.86666e-10 2.57579e-14)
(2764.5 -2.86488e-10 2.31935e-14)
(2764.5 -2.81913e-10 2.26542e-14)
(2764.5 -2.79814e-10 2.42625e-14)
(2764.5 -2.8038e-10 2.36308e-14)
(2764.5 -2.82379e-10 2.34176e-14)
(2764.5 -2.82501e-10 2.27861e-14)
(2764.5 -2.82578e-10 2.66885e-14)
(2764.5 -2.80096e-10 2.78224e-14)
(2764.5 -2.81491e-10 2.4598e-14)
(2764.5 -2.84328e-10 2.43369e-14)
(2764.5 -2.82459e-10 2.45298e-14)
(2764.5 -2.76698e-10 2.68098e-14)
(2764.5 -2.70267e-10 2.48525e-14)
(2764.5 -2.65221e-10 2.12477e-14)
(2764.5 -2.6191e-10 2.45483e-14)
(2764.5 -2.61905e-10 2.35887e-14)
(2764.5 -2.61187e-10 2.50528e-14)
(2764.5 -2.60924e-10 2.35183e-14)
(2764.5 -2.63158e-10 2.67826e-14)
(2764.5 -2.65411e-10 2.64024e-14)
(2764.5 -2.6169e-10 2.58114e-14)
(2764.5 -2.57729e-10 2.63898e-14)
(2764.5 -2.56436e-10 2.4606e-14)
(2764.5 -2.52605e-10 2.51382e-14)
(2764.5 -2.47535e-10 2.2391e-14)
(2764.5 -2.43845e-10 2.37964e-14)
(2764.5 -2.46554e-10 2.70908e-14)
(2764.5 -2.51372e-10 2.35894e-14)
(2764.5 -2.5953e-10 2.55775e-14)
(2764.5 -2.65607e-10 2.6493e-14)
(2764.5 -2.72778e-10 2.53684e-14)
(2764.5 -2.75474e-10 2.26246e-14)
(2764.5 -2.82436e-10 2.24083e-14)
(2764.5 -2.93078e-10 2.92773e-14)
(2764.5 -3.01411e-10 2.44808e-14)
(2764.5 -3.06429e-10 2.10473e-14)
(2764.5 -3.09805e-10 2.24889e-14)
(2764.5 -3.14625e-10 2.30223e-14)
(2764.5 -3.21987e-10 2.4536e-14)
(2764.5 -3.26669e-10 2.04789e-14)
(2764.5 -3.26821e-10 2.17114e-14)
(2764.5 -3.25097e-10 2.35919e-14)
(2764.5 -3.22494e-10 2.384e-14)
(2764.5 -3.14067e-10 2.23646e-14)
(2764.5 -3.08457e-10 2.20385e-14)
(2764.5 -3.04201e-10 2.43919e-14)
(2764.5 -2.93973e-10 2.26792e-14)
(2764.5 -2.85258e-10 2.0752e-14)
(2764.5 -2.83178e-10 2.0271e-14)
(2764.5 -2.75709e-10 1.99001e-14)
(2764.5 -2.6525e-10 2.04008e-14)
(2764.5 -2.57187e-10 2.03398e-14)
(2764.5 -2.45501e-10 2.02711e-14)
(2764.5 -2.33266e-10 2.03972e-14)
(2764.5 -2.14647e-10 1.99922e-14)
(2764.5 -2.08546e-10 2.06932e-14)
(2764.5 -1.99121e-10 2.21692e-14)
(2764.5 -1.95635e-10 2.00366e-14)
(2764.5 -1.95353e-10 2.28415e-14)
(2764.5 -1.90777e-10 1.80718e-14)
(2764.5 -1.89006e-10 1.77482e-14)
(2764.5 -1.87001e-10 2.13068e-14)
(2764.5 -1.8773e-10 2.03983e-14)
(2764.5 -1.92212e-10 2.13162e-14)
(2764.5 -1.97494e-10 2.35489e-14)
(2764.5 -2.07338e-10 2.28199e-14)
(2764.5 -2.17669e-10 2.06833e-14)
(2764.5 -2.30062e-10 1.92695e-14)
(2764.5 -2.51473e-10 1.90646e-14)
(2764.5 -2.69117e-10 2.16885e-14)
(2764.5 -2.82514e-10 1.628e-14)
(2764.5 -2.96302e-10 1.78684e-14)
(2764.5 -3.08037e-10 2.35686e-14)
(2764.5 -3.191e-10 2.31687e-14)
(2764.5 -3.3536e-10 2.00185e-14)
(2764.5 -3.46332e-10 2.07998e-14)
(2764.5 -3.58589e-10 2.11779e-14)
(2764.5 -3.68382e-10 2.14193e-14)
(2764.5 -3.75529e-10 2.32721e-14)
(2764.5 -3.91436e-10 1.94449e-14)
(2764.5 -3.97488e-10 2.02291e-14)
(2764.5 -3.94216e-10 2.3295e-14)
(2764.5 -3.86082e-10 2.44252e-14)
(2764.5 -3.74866e-10 2.085e-14)
(2764.5 -3.61626e-10 2.12729e-14)
(2764.5 -3.45283e-10 2.10081e-14)
(2764.5 -3.2233e-10 1.89287e-14)
(2764.5 -2.93346e-10 2.09343e-14)
(2764.5 -2.7834e-10 2.0426e-14)
(2764.5 -2.51417e-10 1.72718e-14)
(2764.5 -2.28055e-10 1.82316e-14)
(2764.5 -3.72713e-10 3.65733e-14)
(2764.5 -3.72975e-10 3.66231e-14)
(2764.5 -3.70624e-10 3.69533e-14)
(2764.5 -3.69346e-10 3.3038e-14)
(2764.5 -3.69398e-10 3.63696e-14)
(2764.5 -3.6934e-10 3.40772e-14)
(2764.5 -3.67035e-10 3.4378e-14)
(2764.5 -3.67639e-10 3.86928e-14)
(2764.5 -3.68947e-10 3.87415e-14)
(2764.5 -3.6792e-10 3.8341e-14)
(2764.5 -3.70077e-10 3.61248e-14)
(2764.5 -3.71432e-10 3.39807e-14)
(2764.5 -3.75179e-10 3.65585e-14)
(2764.5 -3.7698e-10 3.38221e-14)
(2764.5 -3.70338e-10 3.0581e-14)
(2764.5 -3.63701e-10 3.57865e-14)
(2764.5 -3.61864e-10 3.36454e-14)
(2764.5 -3.55575e-10 3.70223e-14)
(2764.5 -3.5072e-10 3.58811e-14)
(2764.5 -3.52557e-10 3.39878e-14)
(2764.5 -3.51405e-10 3.33397e-14)
(2764.5 -3.5022e-10 3.23266e-14)
(2764.5 -3.50551e-10 3.4131e-14)
(2764.5 -3.53287e-10 3.77463e-14)
(2764.5 -3.56021e-10 3.5965e-14)
(2764.5 -3.6077e-10 3.20203e-14)
(2764.5 -3.63019e-10 3.6479e-14)
(2764.5 -3.75528e-10 3.09675e-14)
(2764.5 -3.74825e-10 2.85424e-14)
(2764.5 -3.72985e-10 3.11273e-14)
(2764.5 -3.70721e-10 3.16485e-14)
(2764.5 -3.72495e-10 3.13694e-14)
(2764.5 -3.74645e-10 3.20164e-14)
(2764.5 -3.76554e-10 3.07142e-14)
(2764.5 -3.7901e-10 3.32135e-14)
(2764.5 -3.8274e-10 3.04444e-14)
(2764.5 -3.89002e-10 3.39767e-14)
(2764.5 -3.89271e-10 3.42059e-14)
(2764.5 -3.87925e-10 2.91682e-14)
(2764.5 -3.85337e-10 2.90616e-14)
(2764.5 -3.78375e-10 3.25924e-14)
(2764.5 -3.68833e-10 3.32229e-14)
(2764.5 -3.53537e-10 3.08604e-14)
(2764.5 -3.39816e-10 3.01244e-14)
(2764.5 -3.30091e-10 3.26565e-14)
(2764.5 -3.22882e-10 3.20911e-14)
(2764.5 -3.1989e-10 3.24253e-14)
(2764.5 -3.15168e-10 3.25227e-14)
(2764.5 -3.07693e-10 2.96402e-14)
(2764.5 -3.03231e-10 3.10188e-14)
(2764.5 -3.01098e-10 2.98276e-14)
(2764.5 -3.0608e-10 2.81789e-14)
(2764.5 -3.06383e-10 2.51621e-14)
(2764.5 -3.05583e-10 3.22523e-14)
(2764.5 -3.05518e-10 3.20078e-14)
(2764.5 -3.06634e-10 2.88419e-14)
(2764.5 -3.0778e-10 2.90463e-14)
(2764.5 -3.10911e-10 2.94378e-14)
(2764.5 -3.15639e-10 2.91885e-14)
(2764.5 -3.20761e-10 2.74856e-14)
(2764.5 -3.26089e-10 2.68119e-14)
(2764.5 -3.32619e-10 2.97601e-14)
(2764.5 -3.41773e-10 2.85843e-14)
(2764.5 -3.47155e-10 2.80696e-14)
(2764.5 -3.58273e-10 2.91064e-14)
(2764.5 -3.64272e-10 3.10768e-14)
(2764.5 -3.82295e-10 2.59206e-14)
(2764.5 -3.91968e-10 2.52776e-14)
(2764.5 -4.01904e-10 2.34998e-14)
(2764.5 -4.08649e-10 2.62615e-14)
(2764.5 -4.0495e-10 2.74556e-14)
(2764.5 -4.05416e-10 2.54511e-14)
(2764.5 -4.04536e-10 2.96598e-14)
(2764.5 -4.06194e-10 2.91312e-14)
(2764.5 -4.11605e-10 2.6287e-14)
(2764.5 -4.22103e-10 2.93569e-14)
(2764.5 -4.25893e-10 2.75124e-14)
(2764.5 -4.27742e-10 2.76061e-14)
(2764.5 -4.22112e-10 2.7538e-14)
(2764.5 -4.16304e-10 2.78466e-14)
(2764.5 -4.08295e-10 2.9015e-14)
(2764.5 -3.95097e-10 2.89415e-14)
(2764.5 -3.74932e-10 2.59524e-14)
(2764.5 -3.58318e-10 2.45828e-14)
(2764.5 -3.33755e-10 2.60512e-14)
(2764.5 -3.13538e-10 2.73972e-14)
(2764.5 -2.92526e-10 2.69105e-14)
(2764.5 -2.69913e-10 2.63597e-14)
(2764.5 -2.59397e-10 2.71589e-14)
(2764.5 -2.52099e-10 2.62231e-14)
(2764.5 -2.34503e-10 2.58626e-14)
(2764.5 -2.23664e-10 2.82357e-14)
(2764.5 -2.20134e-10 2.72037e-14)
(2764.5 -2.09826e-10 2.62329e-14)
(2764.5 -1.90314e-10 2.67512e-14)
(2764.5 -1.78974e-10 2.44984e-14)
(2764.5 -1.75436e-10 2.59707e-14)
(2764.5 -1.72665e-10 2.80411e-14)
(2764.5 -1.77787e-10 2.53144e-14)
(2764.5 -1.81624e-10 2.65395e-14)
(2764.5 -1.93736e-10 2.88317e-14)
(2764.5 -2.17277e-10 2.33796e-14)
(2764.5 -2.41339e-10 2.42526e-14)
(2764.5 -2.66274e-10 2.63876e-14)
(2764.5 -2.83765e-10 2.64485e-14)
(2764.5 -3.20885e-10 2.70958e-14)
(2764.5 -3.62603e-10 2.67677e-14)
(2764.5 -4.47856e-10 4.98939e-14)
(2764.5 -4.54373e-10 4.33913e-14)
(2764.5 -4.51912e-10 4.36013e-14)
(2764.5 -4.50721e-10 4.05079e-14)
(2764.5 -4.48898e-10 4.32403e-14)
(2764.5 -4.47498e-10 4.39268e-14)
(2764.5 -4.49592e-10 4.87949e-14)
(2764.5 -4.47065e-10 4.41367e-14)
(2764.5 -4.45509e-10 4.62874e-14)
(2764.5 -4.43512e-10 4.87679e-14)
(2764.5 -4.42353e-10 4.29841e-14)
(2764.5 -4.46808e-10 4.54659e-14)
(2764.5 -4.54426e-10 4.71685e-14)
(2764.5 -4.55708e-10 4.4048e-14)
(2764.5 -4.63059e-10 5.004e-14)
(2764.5 -4.68042e-10 4.30438e-14)
(2764.5 -4.69153e-10 3.97053e-14)
(2764.5 -4.69348e-10 4.14128e-14)
(2764.5 -4.67953e-10 4.20629e-14)
(2764.5 -4.60773e-10 4.15769e-14)
(2764.5 -4.53391e-10 4.12976e-14)
(2764.5 -4.48258e-10 4.25579e-14)
(2764.5 -4.43205e-10 4.42065e-14)
(2764.5 -4.35632e-10 4.21215e-14)
(2764.5 -4.29993e-10 3.77137e-14)
(2764.5 -4.25167e-10 3.62679e-14)
(2764.5 -4.19685e-10 3.7858e-14)
(2764.5 -4.22192e-10 3.512e-14)
(2764.5 -4.20917e-10 4.03519e-14)
(2764.5 -4.19168e-10 3.80546e-14)
(2764.5 -4.14254e-10 3.85507e-14)
(2764.5 -4.09452e-10 3.80025e-14)
(2764.5 -4.00847e-10 3.959e-14)
(2764.5 -3.95159e-10 3.76497e-14)
(2764.5 -3.92086e-10 4.10951e-14)
(2764.5 -3.88707e-10 4.04604e-14)
(2764.5 -3.88e-10 3.91433e-14)
(2764.5 -3.94025e-10 3.81613e-14)
(2764.5 -4.05599e-10 3.53113e-14)
(2764.5 -4.14654e-10 3.88084e-14)
(2764.5 -4.25532e-10 3.90079e-14)
(2764.5 -4.42021e-10 3.86889e-14)
(2764.5 -4.50003e-10 3.86041e-14)
(2764.5 -4.54121e-10 3.79443e-14)
(2764.5 -4.52572e-10 4.01246e-14)
(2764.5 -4.52254e-10 3.96085e-14)
(2764.5 -4.53962e-10 3.81526e-14)
(2764.5 -4.5913e-10 3.84599e-14)
(2764.5 -4.63109e-10 3.66988e-14)
(2764.5 -4.69072e-10 3.90841e-14)
(2764.5 -4.71593e-10 3.93922e-14)
(2764.5 -4.7817e-10 3.37576e-14)
(2764.5 -4.92338e-10 3.57278e-14)
(2764.5 -4.98784e-10 3.80346e-14)
(2764.5 -5.11437e-10 4.21171e-14)
(2764.5 -5.19505e-10 4.31038e-14)
(2764.5 -5.22603e-10 3.80241e-14)
(2764.5 -5.23546e-10 3.54777e-14)
(2764.5 -5.19784e-10 3.4183e-14)
(2764.5 -5.10746e-10 3.55784e-14)
(2764.5 -4.99589e-10 3.66664e-14)
(2764.5 -4.84563e-10 3.39885e-14)
(2764.5 -4.6665e-10 3.42941e-14)
(2764.5 -4.4458e-10 3.73232e-14)
(2764.5 -4.21926e-10 3.2083e-14)
(2764.5 -4.00844e-10 3.08656e-14)
(2764.5 -3.82849e-10 3.78699e-14)
(2764.5 -3.63246e-10 3.76576e-14)
(2764.5 -3.54129e-10 2.87309e-14)
(2764.5 -3.45936e-10 3.33162e-14)
(2764.5 -3.3167e-10 3.46934e-14)
(2764.5 -3.12838e-10 3.06846e-14)
(2764.5 -2.94053e-10 3.02198e-14)
(2764.5 -2.68128e-10 3.22902e-14)
(2764.5 -2.46408e-10 3.28152e-14)
(2764.5 -2.34736e-10 3.33042e-14)
(2764.5 -2.34549e-10 3.33875e-14)
(2764.5 -2.37766e-10 3.43438e-14)
(2764.5 -2.5057e-10 3.50655e-14)
(2764.5 -2.78278e-10 3.26567e-14)
(2764.5 -3.00352e-10 2.98883e-14)
(2764.5 -3.27317e-10 3.31477e-14)
(2764.5 -3.59354e-10 3.54278e-14)
(2764.5 -3.866e-10 3.52849e-14)
(2764.5 -4.24252e-10 3.48465e-14)
(2764.5 -4.76556e-10 3.29573e-14)
(2764.5 -5.11375e-10 3.26272e-14)
(2764.5 -5.37518e-10 3.44896e-14)
(2764.5 -5.52713e-10 3.4953e-14)
(2764.5 -5.5953e-10 3.24646e-14)
(2764.5 -5.75742e-10 3.44225e-14)
(2764.5 -6.09316e-10 3.17552e-14)
(2764.5 -6.29854e-10 3.0904e-14)
(2764.5 -6.5095e-10 3.47094e-14)
(2764.5 -6.73518e-10 3.36403e-14)
(2764.5 -6.9607e-10 3.06137e-14)
(2764.5 -7.10227e-10 3.02508e-14)
(2764.5 -7.11192e-10 3.28054e-14)
(2764.5 -7.02272e-10 3.09905e-14)
(2764.5 -6.89913e-10 3.06481e-14)
(2764.5 -6.59378e-10 3.30787e-14)
(2764.5 -6.35028e-10 3.22711e-14)
(2764.5 -6.08775e-10 3.30391e-14)
(2764.5 -5.33023e-10 3.22646e-14)
(2764.5 -4.48292e-10 3.02918e-14)
(2764.5 -3.51602e-10 2.97895e-14)
(2764.5 -2.76253e-10 3.171e-14)
(2764.5 -5.29278e-10 5.27228e-14)
(2764.5 -5.29615e-10 5.3121e-14)
(2764.5 -5.29098e-10 5.5115e-14)
(2764.5 -5.30314e-10 5.19302e-14)
(2764.5 -5.36692e-10 5.18393e-14)
(2764.5 -5.43291e-10 4.95173e-14)
(2764.5 -5.42353e-10 5.10071e-14)
(2764.5 -5.41876e-10 5.36e-14)
(2764.5 -5.39705e-10 5.22886e-14)
(2764.5 -5.36046e-10 5.40222e-14)
(2764.5 -5.32569e-10 4.96314e-14)
(2764.5 -5.31631e-10 5.1824e-14)
(2764.5 -5.27065e-10 5.24271e-14)
(2764.5 -5.20204e-10 4.99788e-14)
(2764.5 -5.10406e-10 5.18168e-14)
(2764.5 -5.02518e-10 5.00342e-14)
(2764.5 -4.98062e-10 4.98884e-14)
(2764.5 -4.95805e-10 5.11075e-14)
(2764.5 -4.99549e-10 4.86141e-14)
(2764.5 -5.02848e-10 4.79915e-14)
(2764.5 -5.06214e-10 4.77691e-14)
(2764.5 -5.1056e-10 4.81355e-14)
(2764.5 -5.1986e-10 5.08401e-14)
(2764.5 -5.24436e-10 4.69295e-14)
(2764.5 -5.2563e-10 4.52663e-14)
(2764.5 -5.29348e-10 4.86364e-14)
(2764.5 -5.35396e-10 4.80614e-14)
(2764.5 -5.37437e-10 4.78909e-14)
(2764.5 -5.41675e-10 4.79811e-14)
(2764.5 -5.44325e-10 4.83746e-14)
(2764.5 -5.50201e-10 4.81882e-14)
(2764.5 -5.55518e-10 4.65703e-14)
(2764.5 -5.67915e-10 4.89878e-14)
(2764.5 -5.7289e-10 5.01405e-14)
(2764.5 -5.80378e-10 5.14774e-14)
(2764.5 -5.86295e-10 4.80104e-14)
(2764.5 -5.86397e-10 4.49111e-14)
(2764.5 -5.8613e-10 4.57085e-14)
(2764.5 -5.8189e-10 4.57646e-14)
(2764.5 -5.73458e-10 4.56871e-14)
(2764.5 -5.62211e-10 4.58199e-14)
(2764.5 -5.50382e-10 4.62242e-14)
(2764.5 -5.34703e-10 4.41156e-14)
(2764.5 -5.26224e-10 4.27086e-14)
(2764.5 -5.09369e-10 4.5678e-14)
(2764.5 -5.05597e-10 4.58849e-14)
(2764.5 -4.96565e-10 4.50099e-14)
(2764.5 -4.86891e-10 4.46828e-14)
(2764.5 -4.71786e-10 4.64688e-14)
(2764.5 -4.52906e-10 4.65045e-14)
(2764.5 -4.33075e-10 4.44722e-14)
(2764.5 -4.18872e-10 4.30583e-14)
(2764.5 -4.04531e-10 4.47196e-14)
(2764.5 -3.86835e-10 4.358e-14)
(2764.5 -3.7194e-10 4.65699e-14)
(2764.5 -3.61501e-10 4.38028e-14)
(2764.5 -3.54537e-10 3.87433e-14)
(2764.5 -3.51674e-10 4.4276e-14)
(2764.5 -3.53339e-10 4.49193e-14)
(2764.5 -3.66762e-10 4.10752e-14)
(2764.5 -3.80957e-10 4.01335e-14)
(2764.5 -4.04254e-10 4.55635e-14)
(2764.5 -4.40175e-10 4.1033e-14)
(2764.5 -4.71084e-10 4.09227e-14)
(2764.5 -4.90179e-10 4.22169e-14)
(2764.5 -5.08184e-10 3.93766e-14)
(2764.5 -5.47877e-10 4.51606e-14)
(2764.5 -5.82166e-10 4.36517e-14)
(2764.5 -6.03335e-10 4.38333e-14)
(2764.5 -6.21253e-10 4.41267e-14)
(2764.5 -6.39686e-10 4.14959e-14)
(2764.5 -6.54684e-10 4.15572e-14)
(2764.5 -6.67085e-10 4.07429e-14)
(2764.5 -6.90448e-10 3.84892e-14)
(2764.5 -7.08041e-10 4.11715e-14)
(2764.5 -7.27605e-10 3.99922e-14)
(2764.5 -7.44669e-10 4.04336e-14)
(2764.5 -7.51306e-10 4.03162e-14)
(2764.5 -7.50464e-10 3.85266e-14)
(2764.5 -7.37096e-10 3.87004e-14)
(2764.5 -7.19194e-10 3.84447e-14)
(2764.5 -6.87109e-10 3.89602e-14)
(2764.5 -6.50509e-10 3.76359e-14)
(2764.5 -5.91361e-10 3.74715e-14)
(2764.5 -5.54295e-10 4.07313e-14)
(2764.5 -5.18435e-10 4.00606e-14)
(2764.5 -4.70761e-10 3.88042e-14)
(2764.5 -4.3093e-10 3.95546e-14)
(2764.5 -3.66692e-10 3.76954e-14)
(2764.5 -3.10677e-10 3.74296e-14)
(2764.5 -2.74962e-10 3.68541e-14)
(2764.5 -2.43393e-10 3.90618e-14)
(2764.5 -2.24382e-10 3.92864e-14)
(2764.5 -1.95837e-10 3.57067e-14)
(2764.5 -1.66759e-10 3.64252e-14)
(2764.5 -1.40955e-10 4.0485e-14)
(2764.5 -9.07622e-11 3.8391e-14)
(2764.5 -5.4849e-11 4.03668e-14)
(2764.5 -2.97753e-11 3.94928e-14)
(2764.5 -1.96412e-11 3.90233e-14)
(2764.5 -3.99054e-11 3.81667e-14)
(2764.5 -9.42322e-11 3.60994e-14)
(2764.5 -1.21547e-10 3.95582e-14)
(2764.5 -1.38268e-10 3.76549e-14)
(2764.5 -1.72199e-10 3.90989e-14)
(2764.5 -2.29783e-10 3.86717e-14)
(2764.5 -2.77117e-10 3.78421e-14)
(2764.5 -3.82086e-10 3.91332e-14)
(2764.5 -5.33617e-10 3.46119e-14)
(2764.5 -6.69183e-10 3.70481e-14)
(2764.5 -6.04699e-10 5.73321e-14)
(2764.5 -5.97065e-10 5.90382e-14)
(2764.5 -5.90593e-10 5.981e-14)
(2764.5 -5.8626e-10 5.70376e-14)
(2764.5 -5.87606e-10 5.87533e-14)
(2764.5 -5.92042e-10 5.84351e-14)
(2764.5 -6.0246e-10 6.1571e-14)
(2764.5 -6.09852e-10 5.76344e-14)
(2764.5 -6.16642e-10 6.00864e-14)
(2764.5 -6.22458e-10 6.05559e-14)
(2764.5 -6.28764e-10 5.77214e-14)
(2764.5 -6.33504e-10 5.99601e-14)
(2764.5 -6.35331e-10 6.04292e-14)
(2764.5 -6.41042e-10 5.89815e-14)
(2764.5 -6.50903e-10 5.26894e-14)
(2764.5 -6.57197e-10 5.79029e-14)
(2764.5 -6.59399e-10 6.09597e-14)
(2764.5 -6.59652e-10 5.95714e-14)
(2764.5 -6.56064e-10 5.69705e-14)
(2764.5 -6.49916e-10 5.50927e-14)
(2764.5 -6.46832e-10 5.60184e-14)
(2764.5 -6.38957e-10 5.44476e-14)
(2764.5 -6.2846e-10 5.51296e-14)
(2764.5 -6.20962e-10 6.25472e-14)
(2764.5 -6.05671e-10 5.62105e-14)
(2764.5 -5.91816e-10 5.42571e-14)
(2764.5 -5.75881e-10 5.63741e-14)
(2764.5 -5.59264e-10 5.8409e-14)
(2764.5 -5.4227e-10 5.68089e-14)
(2764.5 -5.24581e-10 5.10366e-14)
(2764.5 -5.1073e-10 4.89427e-14)
(2764.5 -4.96312e-10 5.46109e-14)
(2764.5 -4.84479e-10 5.65728e-14)
(2764.5 -4.74975e-10 5.03822e-14)
(2764.5 -4.73165e-10 4.95096e-14)
(2764.5 -4.71965e-10 5.26559e-14)
(2764.5 -4.80545e-10 5.19911e-14)
(2764.5 -4.8297e-10 5.31576e-14)
(2764.5 -4.96927e-10 5.17569e-14)
(2764.5 -5.14669e-10 5.50711e-14)
(2764.5 -5.34945e-10 5.42337e-14)
(2764.5 -5.44843e-10 5.3539e-14)
(2764.5 -5.64439e-10 5.22632e-14)
(2764.5 -5.8762e-10 5.37288e-14)
(2764.5 -6.04141e-10 5.36343e-14)
(2764.5 -6.27812e-10 5.29661e-14)
(2764.5 -6.57574e-10 5.4252e-14)
(2764.5 -6.91754e-10 5.61575e-14)
(2764.5 -7.16829e-10 5.23153e-14)
(2764.5 -7.32337e-10 5.28623e-14)
(2764.5 -7.46151e-10 5.17629e-14)
(2764.5 -7.60695e-10 5.36668e-14)
(2764.5 -7.76496e-10 4.9407e-14)
(2764.5 -7.87515e-10 5.23605e-14)
(2764.5 -7.9485e-10 5.37372e-14)
(2764.5 -8.02269e-10 4.87308e-14)
(2764.5 -8.06269e-10 5.26004e-14)
(2764.5 -8.0432e-10 4.93699e-14)
(2764.5 -7.90862e-10 5.11585e-14)
(2764.5 -7.71809e-10 5.19073e-14)
(2764.5 -7.36273e-10 4.9828e-14)
(2764.5 -7.02074e-10 5.1221e-14)
(2764.5 -6.72897e-10 5.05996e-14)
(2764.5 -6.42615e-10 4.89386e-14)
(2764.5 -6.19411e-10 4.61732e-14)
(2764.5 -5.82933e-10 4.75296e-14)
(2764.5 -5.22788e-10 5.21371e-14)
(2764.5 -4.56824e-10 4.51519e-14)
(2764.5 -4.26644e-10 4.77981e-14)
(2764.5 -3.84218e-10 5.17262e-14)
(2764.5 -3.43701e-10 4.82993e-14)
(2764.5 -3.09884e-10 4.70411e-14)
(2764.5 -2.78901e-10 4.69293e-14)
(2764.5 -2.46256e-10 4.96454e-14)
(2764.5 -2.18363e-10 4.62394e-14)
(2764.5 -1.8837e-10 4.48878e-14)
(2764.5 -1.58632e-10 4.74884e-14)
(2764.5 -1.41692e-10 4.62574e-14)
(2764.5 -1.40113e-10 4.6221e-14)
(2764.5 -1.7005e-10 4.51784e-14)
(2764.5 -2.01253e-10 4.33168e-14)
(2764.5 -2.34878e-10 4.29079e-14)
(2764.5 -2.94711e-10 4.51069e-14)
(2764.5 -4.02297e-10 4.4878e-14)
(2764.5 -5.16095e-10 4.54674e-14)
(2764.5 -5.55745e-10 4.58326e-14)
(2764.5 -5.85216e-10 4.56506e-14)
(2764.5 -6.54326e-10 4.09613e-14)
(2764.5 -7.31101e-10 4.17241e-14)
(2764.5 -7.87991e-10 4.18061e-14)
(2764.5 -8.37865e-10 4.40534e-14)
(2764.5 -8.59143e-10 4.23943e-14)
(2764.5 -9.14094e-10 4.52126e-14)
(2764.5 -9.78137e-10 4.31135e-14)
(2764.5 -1.02607e-09 4.39945e-14)
(2764.5 -1.08552e-09 4.34897e-14)
(2764.5 -1.13584e-09 4.41634e-14)
(2764.5 -1.18774e-09 4.4344e-14)
(2764.5 -1.24143e-09 4.15933e-14)
(2764.5 -1.2983e-09 4.41847e-14)
(2764.5 -1.34582e-09 4.5097e-14)
(2764.5 -1.33253e-09 4.45324e-14)
(2764.5 -1.28483e-09 4.37396e-14)
(2764.5 -1.18143e-09 4.28655e-14)
(2764.5 -8.98596e-10 4.46225e-14)
(2764.5 -8.23681e-10 4.38556e-14)
(2764.5 -8.15574e-10 4.4199e-14)
(2764.5 -7.65649e-10 4.42591e-14)
(2764.5 -5.63346e-10 4.50595e-14)
(2764.5 2.03551e-12 4.28562e-14)
(2764.5 -7.31517e-10 7.13681e-14)
(2764.5 -7.3006e-10 6.93916e-14)
(2764.5 -7.24514e-10 6.90819e-14)
(2764.5 -7.15142e-10 6.99095e-14)
(2764.5 -7.03857e-10 7.1605e-14)
(2764.5 -7.01325e-10 6.83594e-14)