/*--------------------------------*- C++ -*----------------------------------*\
| =========                 |                                                 |
| \\      /  F ield         | OpenFOAM: The Open Source CFD Toolbox           |
|  \\    /   O peration     | Version:  v1706                                 |
|   \\  /    A nd           | Web:      www.OpenFOAM.com                      |
|    \\/     M anipulation  |                                                 |
\*---------------------------------------------------------------------------*/
FoamFile
{
    version     2.0;
    format      ascii;
    class       volScalarField;
    location    "1.8e-05";
    object      wallHeatFlux;
}
// * * * * * * * * * * * * * * * * * * * * * * * * * * * * * * * * * * * * * //

dimensions      [1 0 -3 0 0 0 0];


internalField   uniform 0;

boundaryField
{
    cone
    {
        type            calculated;
        value           nonuniform List<scalar> 
181
(
106115
105002
103915
102857
101826
100824
99850.5
98906.6
97991.8
97105.2
96245.2
95409.6
94595.4
93799.3
93018.1
92249
91490.1
90741.4
90004.6
89283.9
88585.3
87917.1
87288.6
86710
86191.1
85740.4
85364
85063.9
84836.5
84672.6
84558.8
84481.2
84423
84364
84282.1
84155.4
83970.9
83715.5
83373.7
82936.4
82401.1
81768.2
81041.7
80227.7
79335.2
78374.9
77360.2
76307
75234.5
74164.2
73119.6
72124.3
71202
70380.2
69685.5
69149
68805.8
68686.5
68822.2
69246.5
69989.6
71079.1
72537
74377.4
76604.8
79212.1
82178.2
85464.4
89012.6
92743.5
96556.4
100332
103937
107232
110078
112346
113923
114704
114607
113570
111548
108533
104552
99680.1
94045.5
87829.6
81254.4
74560.7
67981.3
61716.9
55919.3
50685.1
46060.5
42050.4
38631.1
35761.1
33391.2
31471.9
29959.7
28812.3
27998
27490.9
27266.8
27310
27610.3
28161.8
28961.8
30009.6
31307.4
32859.1
34669.4
36742.7
39082.4
41689.4
44560.7
47688.4
51057.7
54646.1
58422.7
62348
66375.1
70451.6
74522.5
78533.6
82435.3
86185.4
89750.6
93108.1
96243.9
99151.3
101828
104271
106479
108445
110158
111596
112739
113562
114034
114128
113813
113063
111854
110173
108015
105385
102307
98822.8
94990.9
90886.5
86597.3
82217.5
77841.2
73554.9
69432.3
65530.4
61888.6
58529.3
55460.9
52680.1
50176
47932.2
45929.7
44148.1
42567.1
41167.1
39929.5
38837.1
37874.4
37026.7
36281.3
35626.4
35051.7
34547.8
34106.5
33720.5
33382.9
33087.4
32829.2
32604
32407.9
)
;
    }
    inlet
    {
        type            calculated;
        value           uniform 0;
    }
    rWedge
    {
        type            wedge;
    }
    lWedge
    {
        type            wedge;
    }
    outlet
    {
        type            calculated;
        value           nonuniform 0();
    }
    procBoundary1to0
    {
        type            processor;
        value           uniform 0;
    }
    procBoundary1to2
    {
        type            processor;
        value           uniform 0;
    }
}


// ************************************************************************* //
