# St ()      
# Time       	patch        	min          	max          	average      
2e-05        	cone	-1.309114e-02	1.119371e-01	1.976028e-02
