/*--------------------------------*- C++ -*----------------------------------*\
| =========                 |                                                 |
| \\      /  F ield         | OpenFOAM: The Open Source CFD Toolbox           |
|  \\    /   O peration     | Version:  v1706                                 |
|   \\  /    A nd           | Web:      www.OpenFOAM.com                      |
|    \\/     M anipulation  |                                                 |
\*---------------------------------------------------------------------------*/
FoamFile
{
    version     2.0;
    format      ascii;
    class       volVectorField;
    location    "3.7e-05";
    object      U;
}
// * * * * * * * * * * * * * * * * * * * * * * * * * * * * * * * * * * * * * //

dimensions      [0 1 -1 0 0 0 0];


internalField   nonuniform List<vector> 
29987
(
(978.58 -2.17578e-08 3.79653e-11)
(978.58 -8.57179e-09 1.42702e-11)
(978.58 -3.87756e-09 6.45575e-12)
(978.58 -2.16665e-09 3.63031e-12)
(978.58 -1.41562e-09 2.38654e-12)
(978.58 -1.01786e-09 1.71913e-12)
(978.58 -7.75999e-10 1.30227e-12)
(978.58 -6.15328e-10 1.02271e-12)
(978.58 -5.01353e-10 8.27156e-13)
(978.58 -4.17486e-10 6.91526e-13)
(978.58 -3.5456e-10 5.22877e-13)
(978.58 -3.06439e-10 4.6042e-13)
(978.58 -2.68889e-10 4.11409e-13)
(978.58 -2.38304e-10 3.49004e-13)
(978.58 -2.13016e-10 3.02074e-13)
(978.58 -1.93131e-10 2.63832e-13)
(978.58 -1.76362e-10 2.2066e-13)
(978.58 -1.62117e-10 1.96983e-13)
(978.58 -1.4977e-10 1.85759e-13)
(978.58 -1.3898e-10 1.71676e-13)
(978.58 -1.30082e-10 1.62246e-13)
(978.58 -1.23377e-10 1.38421e-13)
(978.58 -1.15839e-10 1.29789e-13)
(978.58 -1.09554e-10 1.13767e-13)
(978.58 -1.04225e-10 1.17563e-13)
(978.58 -9.95394e-11 1.10914e-13)
(978.58 -9.53501e-11 9.19369e-14)
(978.58 -9.1404e-11 8.43981e-14)
(978.58 -8.92231e-11 8.86125e-14)
(978.58 -8.58773e-11 8.20239e-14)
(978.58 -8.24667e-11 8.17698e-14)
(978.58 -7.94278e-11 7.42507e-14)
(978.58 -7.84771e-11 6.4633e-14)
(978.58 -7.55749e-11 5.91574e-14)
(978.58 -7.47156e-11 5.94915e-14)
(978.58 -7.26415e-11 5.59561e-14)
(978.58 -7.04438e-11 5.3503e-14)
(978.58 -6.89698e-11 4.53386e-14)
(978.58 -6.75787e-11 4.24526e-14)
(978.58 -6.6378e-11 4.35154e-14)
(978.58 -6.51489e-11 3.55036e-14)
(978.58 -6.42158e-11 3.96351e-14)
(978.58 -6.38222e-11 4.50661e-14)
(978.58 -6.28138e-11 3.75136e-14)
(978.58 -6.20401e-11 3.38817e-14)
(978.58 -6.17983e-11 3.27345e-14)
(978.58 -6.07006e-11 4.11231e-14)
(978.58 -6.04226e-11 2.97324e-14)
(978.58 -6.00818e-11 2.978e-14)
(978.58 -5.90495e-11 3.28065e-14)
(978.58 -5.86265e-11 3.19368e-14)
(978.58 -5.86159e-11 2.91509e-14)
(978.58 -5.77798e-11 2.74862e-14)
(978.58 -5.74644e-11 2.33021e-14)
(978.58 -5.7322e-11 2.43463e-14)
(978.58 -5.65691e-11 2.0576e-14)
(978.58 -5.67274e-11 1.81763e-14)
(978.58 -5.65399e-11 2.01016e-14)
(978.58 -5.59576e-11 2.32812e-14)
(978.58 -5.51868e-11 2.64132e-14)
(978.58 -5.57229e-11 2.31708e-14)
(978.58 -5.5468e-11 1.36995e-14)
(978.58 -5.42829e-11 1.93059e-14)
(978.58 -5.49422e-11 2.05059e-14)
(978.58 -5.46434e-11 1.65463e-14)
(978.58 -5.46856e-11 1.48642e-14)
(978.58 -5.45021e-11 1.55774e-14)
(978.58 -5.41644e-11 1.84821e-14)
(978.58 -5.49715e-11 1.78698e-14)
(978.58 -5.48292e-11 1.57783e-14)
(978.58 -5.48407e-11 1.46847e-14)
(978.58 -5.52899e-11 1.56165e-14)
(978.58 -5.58572e-11 1.39633e-14)
(978.58 -5.57807e-11 1.44265e-14)
(978.58 -5.55536e-11 1.77973e-14)
(978.58 -5.63122e-11 1.68875e-14)
(978.58 -5.59247e-11 1.54694e-14)
(978.58 -5.61747e-11 1.58458e-14)
(978.58 -5.58441e-11 9.83548e-15)
(978.58 -5.63975e-11 7.42381e-15)
(978.58 -5.66672e-11 1.06592e-14)
(978.58 -5.68104e-11 1.08195e-14)
(978.58 -5.71429e-11 8.37708e-15)
(978.58 -5.69512e-11 1.1585e-14)
(978.58 -5.73165e-11 1.31101e-14)
(978.58 -5.74807e-11 1.17479e-14)
(978.58 -5.78541e-11 1.02334e-14)
(978.58 -5.7633e-11 1.07525e-14)
(978.58 -5.78835e-11 1.10987e-14)
(978.58 -5.78502e-11 7.97726e-15)
(978.58 -5.84614e-11 7.3724e-15)
(978.58 -5.88847e-11 7.93815e-15)
(978.58 -5.96772e-11 1.1191e-14)
(978.58 -5.91525e-11 1.23019e-14)
(978.58 -5.91794e-11 1.25029e-14)
(978.58 -5.93557e-11 1.15534e-14)
(978.58 -5.98187e-11 8.41673e-15)
(978.58 -6.00624e-11 1.04005e-14)
(978.58 -6.06599e-11 9.77041e-15)
(978.58 -6.09686e-11 6.96056e-15)
(978.58 -6.16307e-11 7.17652e-15)
(978.58 -6.20757e-11 1.27392e-14)
(978.58 -6.23756e-11 1.18173e-14)
(978.58 -6.247e-11 8.38102e-15)
(978.58 -6.29946e-11 8.43638e-15)
(978.58 -6.346e-11 6.7405e-15)
(978.58 -6.40675e-11 5.39945e-15)
(978.58 -6.44555e-11 6.02596e-15)
(978.58 -6.5101e-11 8.55497e-15)
(978.58 -6.5361e-11 6.41783e-15)
(978.58 -6.61788e-11 7.00747e-15)
(978.58 -6.6938e-11 7.64788e-15)
(978.58 -6.74555e-11 9.37393e-15)
(978.58 -6.82766e-11 8.38006e-15)
(978.58 -6.89541e-11 1.00245e-14)
(978.58 -6.96994e-11 7.53046e-15)
(978.58 -7.00364e-11 8.47552e-15)
(978.58 -7.07647e-11 1.14734e-14)
(978.58 -7.10767e-11 9.95927e-15)
(978.58 -7.15627e-11 5.89427e-15)
(978.58 -7.22319e-11 6.83928e-15)
(978.58 -7.30417e-11 8.65247e-15)
(978.58 -7.38661e-11 6.64856e-15)
(978.58 -7.42999e-11 8.17124e-15)
(978.58 -7.48994e-11 8.84239e-15)
(978.58 -7.56474e-11 7.85196e-15)
(978.58 -7.61051e-11 9.19084e-15)
(978.58 -7.64225e-11 8.15667e-15)
(978.58 -7.74139e-11 8.79094e-15)
(978.58 -7.88468e-11 8.15808e-15)
(978.58 -7.97702e-11 9.97932e-15)
(978.58 -8.08417e-11 1.05588e-14)
(978.58 -8.1986e-11 5.08572e-15)
(978.58 -8.25472e-11 4.75626e-15)
(978.58 -8.38778e-11 5.47714e-15)
(978.58 -8.47408e-11 4.94874e-15)
(978.58 -8.59663e-11 8.05644e-15)
(978.58 -8.67879e-11 7.81546e-15)
(978.58 -8.77221e-11 6.40152e-15)
(978.58 -8.94746e-11 6.43117e-15)
(978.58 -9.05061e-11 2.81171e-15)
(978.58 -9.10616e-11 4.7516e-15)
(978.58 -9.23484e-11 7.47665e-15)
(978.58 -9.39318e-11 6.37562e-15)
(978.58 -9.58844e-11 7.66873e-15)
(978.58 -9.72346e-11 8.4593e-15)
(978.58 -9.83488e-11 8.44337e-15)
(978.58 -9.9468e-11 7.91628e-15)
(978.58 -1.00408e-10 6.5397e-15)
(978.58 -1.02699e-10 4.63794e-15)
(978.58 -1.04068e-10 4.1388e-15)
(978.58 -1.05155e-10 3.98663e-15)
(978.58 -1.0659e-10 5.61698e-15)
(978.58 -1.08232e-10 7.52842e-15)
(978.58 -1.09933e-10 6.03341e-15)
(978.58 -1.12124e-10 8.03e-15)
(978.58 -5.20912e-08 8.68372e-11)
(978.58 -2.79341e-08 4.3069e-11)
(978.58 -1.50594e-08 2.16712e-11)
(978.58 -8.80223e-09 1.23089e-11)
(978.58 -5.65008e-09 7.8557e-12)
(978.58 -3.93328e-09 5.48743e-12)
(978.58 -2.91726e-09 4.07442e-12)
(978.58 -2.26787e-09 3.12758e-12)
(978.58 -1.82651e-09 2.50915e-12)
(978.58 -1.51027e-09 2.02902e-12)
(978.58 -1.27356e-09 1.65954e-12)
(978.58 -1.09224e-09 1.42174e-12)
(978.58 -9.51748e-10 1.20165e-12)
(978.58 -8.39474e-10 1.0461e-12)
(978.58 -7.48759e-10 9.07259e-13)
(978.58 -6.7597e-10 8.18177e-13)
(978.58 -6.13807e-10 7.07043e-13)
(978.58 -5.61243e-10 6.43832e-13)
(978.58 -5.1663e-10 5.8602e-13)
(978.58 -4.77892e-10 5.3388e-13)
(978.58 -4.44129e-10 4.78039e-13)
(978.58 -4.17055e-10 4.16511e-13)
(978.58 -3.93737e-10 3.9505e-13)
(978.58 -3.7245e-10 3.60165e-13)
(978.58 -3.51783e-10 3.49071e-13)
(978.58 -3.33749e-10 3.31724e-13)
(978.58 -3.18257e-10 3.09315e-13)
(978.58 -3.0565e-10 2.85281e-13)
(978.58 -2.94678e-10 2.63682e-13)
(978.58 -2.83542e-10 2.42756e-13)
(978.58 -2.72136e-10 2.15696e-13)
(978.58 -2.63486e-10 2.10426e-13)
(978.58 -2.57549e-10 1.81406e-13)
(978.58 -2.49643e-10 1.72842e-13)
(978.58 -2.43084e-10 1.7256e-13)
(978.58 -2.37899e-10 1.65274e-13)
(978.58 -2.32169e-10 1.53005e-13)
(978.58 -2.24976e-10 1.531e-13)
(978.58 -2.19233e-10 1.4541e-13)
(978.58 -2.1478e-10 1.29689e-13)
(978.58 -2.1049e-10 1.19621e-13)
(978.58 -2.06317e-10 1.2267e-13)
(978.58 -2.03417e-10 1.24626e-13)
(978.58 -1.99752e-10 1.09729e-13)
(978.58 -1.97487e-10 9.39319e-14)
(978.58 -1.9644e-10 1.04408e-13)
(978.58 -1.93741e-10 9.87209e-14)
(978.58 -1.90492e-10 9.13951e-14)
(978.58 -1.87698e-10 9.14901e-14)
(978.58 -1.86048e-10 9.81951e-14)
(978.58 -1.83592e-10 9.354e-14)
(978.58 -1.82968e-10 8.25656e-14)
(978.58 -1.82302e-10 7.79112e-14)
(978.58 -1.81778e-10 6.64312e-14)
(978.58 -1.79561e-10 6.7975e-14)
(978.58 -1.7699e-10 6.46704e-14)
(978.58 -1.7583e-10 6.52099e-14)
(978.58 -1.76466e-10 6.39907e-14)
(978.58 -1.75463e-10 7.24084e-14)
(978.58 -1.73639e-10 6.92769e-14)
(978.58 -1.73161e-10 6.03127e-14)
(978.58 -1.73869e-10 5.56132e-14)
(978.58 -1.7275e-10 6.31025e-14)
(978.58 -1.72888e-10 5.50412e-14)
(978.58 -1.71945e-10 5.48021e-14)
(978.58 -1.71954e-10 5.31298e-14)
(978.58 -1.69476e-10 4.72862e-14)
(978.58 -1.67313e-10 5.15556e-14)
(978.58 -1.6894e-10 4.94193e-14)
(978.58 -1.68913e-10 4.61803e-14)
(978.58 -1.67882e-10 4.96498e-14)
(978.58 -1.68445e-10 4.9942e-14)
(978.58 -1.6959e-10 4.48876e-14)
(978.58 -1.70198e-10 4.54511e-14)
(978.58 -1.68467e-10 4.88448e-14)
(978.58 -1.69676e-10 4.97398e-14)
(978.58 -1.70877e-10 4.56277e-14)
(978.58 -1.71632e-10 4.21647e-14)
(978.58 -1.69628e-10 3.47401e-14)
(978.58 -1.69975e-10 3.47312e-14)
(978.58 -1.71406e-10 3.73209e-14)
(978.58 -1.71872e-10 3.49988e-14)
(978.58 -1.7271e-10 3.24387e-14)
(978.58 -1.72713e-10 3.73418e-14)
(978.58 -1.73713e-10 3.92674e-14)
(978.58 -1.73896e-10 3.71753e-14)
(978.58 -1.7491e-10 3.33136e-14)
(978.58 -1.75461e-10 3.59972e-14)
(978.58 -1.76016e-10 3.37526e-14)
(978.58 -1.76152e-10 3.1104e-14)
(978.58 -1.75567e-10 3.30332e-14)
(978.58 -1.76328e-10 3.01584e-14)
(978.58 -1.78345e-10 3.63754e-14)
(978.58 -1.80404e-10 3.66847e-14)
(978.58 -1.81267e-10 3.76521e-14)
(978.58 -1.81116e-10 2.93639e-14)
(978.58 -1.81653e-10 2.39142e-14)
(978.58 -1.82235e-10 2.52065e-14)
(978.58 -1.82775e-10 2.53851e-14)
(978.58 -1.83573e-10 2.50907e-14)
(978.58 -1.84514e-10 2.51346e-14)
(978.58 -1.85875e-10 2.69965e-14)
(978.58 -1.87264e-10 2.83149e-14)
(978.58 -1.88685e-10 2.18597e-14)
(978.58 -1.89851e-10 2.33347e-14)
(978.58 -1.90828e-10 2.20695e-14)
(978.58 -1.92617e-10 2.18703e-14)
(978.58 -1.94342e-10 2.03609e-14)
(978.58 -1.96053e-10 1.84885e-14)
(978.58 -1.97137e-10 2.08965e-14)
(978.58 -1.98128e-10 2.26127e-14)
(978.58 -2.00092e-10 2.25098e-14)
(978.58 -2.0127e-10 2.29977e-14)
(978.58 -2.02772e-10 2.35917e-14)
(978.58 -2.04578e-10 2.56591e-14)
(978.58 -2.06505e-10 2.47816e-14)
(978.58 -2.08293e-10 2.58846e-14)
(978.58 -2.10275e-10 2.53821e-14)
(978.58 -2.12323e-10 2.16738e-14)
(978.58 -2.13692e-10 1.81562e-14)
(978.58 -2.15099e-10 2.02074e-14)
(978.58 -2.17077e-10 2.12602e-14)
(978.58 -2.19607e-10 2.15261e-14)
(978.58 -2.21441e-10 2.17924e-14)
(978.58 -2.23461e-10 2.21685e-14)
(978.58 -2.25637e-10 2.04605e-14)
(978.58 -2.27935e-10 2.03475e-14)
(978.58 -2.29292e-10 1.96066e-14)
(978.58 -2.31507e-10 2.01316e-14)
(978.58 -2.33947e-10 2.36374e-14)
(978.58 -2.36842e-10 2.22856e-14)
(978.58 -2.38808e-10 1.84193e-14)
(978.58 -2.41975e-10 1.83803e-14)
(978.58 -2.44968e-10 2.08587e-14)
(978.58 -2.47558e-10 2.05492e-14)
(978.58 -2.49559e-10 2.11901e-14)
(978.58 -2.52446e-10 2.13794e-14)
(978.58 -2.55671e-10 1.70012e-14)
(978.58 -2.59039e-10 2.255e-14)
(978.58 -2.61505e-10 2.14633e-14)
(978.58 -2.6502e-10 1.78433e-14)
(978.58 -2.69343e-10 1.99812e-14)
(978.58 -2.73038e-10 1.84192e-14)
(978.58 -2.74967e-10 1.84522e-14)
(978.58 -2.78162e-10 1.67289e-14)
(978.58 -2.82909e-10 2.07565e-14)
(978.58 -2.87203e-10 1.96252e-14)
(978.58 -2.9151e-10 2.04482e-14)
(978.58 -2.95562e-10 2.07615e-14)
(978.58 -2.99396e-10 1.71881e-14)
(978.58 -3.02218e-10 1.58348e-14)
(978.58 -3.0737e-10 1.32456e-14)
(978.58 -3.12529e-10 1.75526e-14)
(978.58 -3.16177e-10 1.69325e-14)
(978.58 -3.1985e-10 1.70585e-14)
(978.58 -3.23435e-10 1.93753e-14)
(978.58 -7.11547e-08 1.17586e-10)
(978.58 -4.5241e-08 6.78176e-11)
(978.58 -2.73618e-08 3.74346e-11)
(978.58 -1.69445e-08 2.17521e-11)
(978.58 -1.10832e-08 1.37171e-11)
(978.58 -7.69583e-09 9.37349e-12)
(978.58 -5.6456e-09 6.92687e-12)
(978.58 -4.33917e-09 5.3015e-12)
(978.58 -3.46036e-09 4.22283e-12)
(978.58 -2.83833e-09 3.41664e-12)
(978.58 -2.3807e-09 2.83997e-12)
(978.58 -2.03403e-09 2.42036e-12)
(978.58 -1.76535e-09 2.06757e-12)
(978.58 -1.55146e-09 1.77735e-12)
(978.58 -1.37926e-09 1.5724e-12)
(978.58 -1.23986e-09 1.36614e-12)
(978.58 -1.12358e-09 1.19062e-12)
(978.58 -1.0252e-09 1.07538e-12)
(978.58 -9.41347e-10 9.53319e-13)
(978.58 -8.69057e-10 8.861e-13)
(978.58 -8.06962e-10 7.9174e-13)
(978.58 -7.54769e-10 7.1391e-13)
(978.58 -7.09122e-10 6.72467e-13)
(978.58 -6.67948e-10 6.16433e-13)
(978.58 -6.32085e-10 5.88539e-13)
(978.58 -5.98585e-10 5.44798e-13)
(978.58 -5.69971e-10 5.1081e-13)
(978.58 -5.45642e-10 4.673e-13)
(978.58 -5.23434e-10 4.3092e-13)
(978.58 -5.0285e-10 4.02408e-13)
(978.58 -4.83099e-10 3.73199e-13)
(978.58 -4.66917e-10 3.57481e-13)
(978.58 -4.53275e-10 3.33251e-13)
(978.58 -4.4084e-10 3.23363e-13)
(978.58 -4.28808e-10 3.06133e-13)
(978.58 -4.16937e-10 2.71449e-13)
(978.58 -4.05877e-10 2.58595e-13)
(978.58 -3.94418e-10 2.5261e-13)
(978.58 -3.83205e-10 2.49023e-13)
(978.58 -3.74358e-10 2.28374e-13)
(978.58 -3.66428e-10 2.21638e-13)
(978.58 -3.58912e-10 2.12977e-13)
(978.58 -3.53538e-10 2.0664e-13)
(978.58 -3.47363e-10 1.90995e-13)
(978.58 -3.42733e-10 1.80285e-13)
(978.58 -3.39644e-10 1.77585e-13)
(978.58 -3.34474e-10 1.69964e-13)
(978.58 -3.29522e-10 1.69622e-13)
(978.58 -3.24626e-10 1.6928e-13)
(978.58 -3.20908e-10 1.70126e-13)
(978.58 -3.17665e-10 1.54242e-13)
(978.58 -3.15197e-10 1.44191e-13)
(978.58 -3.12857e-10 1.3451e-13)
(978.58 -3.10152e-10 1.30075e-13)
(978.58 -3.0811e-10 1.21835e-13)
(978.58 -3.04202e-10 1.20863e-13)
(978.58 -3.01044e-10 1.14639e-13)
(978.58 -2.99932e-10 1.13194e-13)
(978.58 -2.983e-10 1.20107e-13)
(978.58 -2.97429e-10 1.16064e-13)
(978.58 -2.95102e-10 1.10216e-13)
(978.58 -2.94695e-10 1.10427e-13)
(978.58 -2.93369e-10 9.89816e-14)
(978.58 -2.9286e-10 8.94246e-14)
(978.58 -2.92869e-10 9.7525e-14)
(978.58 -2.90913e-10 9.18962e-14)
(978.58 -2.87468e-10 8.58005e-14)
(978.58 -2.85775e-10 8.96297e-14)
(978.58 -2.85572e-10 7.99653e-14)
(978.58 -2.85024e-10 7.63398e-14)
(978.58 -2.84109e-10 7.58074e-14)
(978.58 -2.84459e-10 7.59092e-14)
(978.58 -2.85713e-10 7.43765e-14)
(978.58 -2.85534e-10 7.6553e-14)
(978.58 -2.83945e-10 7.87547e-14)
(978.58 -2.85332e-10 7.55987e-14)
(978.58 -2.86602e-10 7.06056e-14)
(978.58 -2.88035e-10 6.9773e-14)
(978.58 -2.86214e-10 7.05837e-14)
(978.58 -2.85484e-10 6.77106e-14)
(978.58 -2.88088e-10 6.34786e-14)
(978.58 -2.88353e-10 6.13646e-14)
(978.58 -2.88446e-10 5.95318e-14)
(978.58 -2.89168e-10 5.88316e-14)
(978.58 -2.90613e-10 5.66333e-14)
(978.58 -2.90658e-10 5.67179e-14)
(978.58 -2.92331e-10 6.17305e-14)
(978.58 -2.92916e-10 6.19046e-14)
(978.58 -2.93983e-10 5.79547e-14)
(978.58 -2.94892e-10 5.58475e-14)
(978.58 -2.94654e-10 5.2637e-14)
(978.58 -2.95692e-10 5.43068e-14)
(978.58 -2.97809e-10 6.24572e-14)
(978.58 -2.99511e-10 6.59056e-14)
(978.58 -3.01297e-10 5.91015e-14)
(978.58 -3.02385e-10 4.72452e-14)
(978.58 -3.04452e-10 4.58272e-14)
(978.58 -3.04523e-10 4.83038e-14)
(978.58 -3.0491e-10 4.82452e-14)
(978.58 -3.06141e-10 4.68353e-14)
(978.58 -3.07589e-10 4.23759e-14)
(978.58 -3.10025e-10 4.59966e-14)
(978.58 -3.11903e-10 4.33698e-14)
(978.58 -3.13257e-10 4.31261e-14)
(978.58 -3.15002e-10 4.70106e-14)
(978.58 -3.17363e-10 4.36934e-14)
(978.58 -3.18768e-10 4.02868e-14)
(978.58 -3.21019e-10 3.87033e-14)
(978.58 -3.23383e-10 3.96944e-14)
(978.58 -3.25964e-10 3.87893e-14)
(978.58 -3.28633e-10 3.52281e-14)
(978.58 -3.31073e-10 3.53471e-14)
(978.58 -3.32765e-10 3.73305e-14)
(978.58 -3.35266e-10 3.90933e-14)
(978.58 -3.38609e-10 4.09849e-14)
(978.58 -3.41599e-10 4.59203e-14)
(978.58 -3.44418e-10 4.56974e-14)
(978.58 -3.46934e-10 4.32629e-14)
(978.58 -3.50433e-10 3.76746e-14)
(978.58 -3.53192e-10 3.71074e-14)
(978.58 -3.55708e-10 3.79063e-14)
(978.58 -3.58504e-10 3.75724e-14)
(978.58 -3.62124e-10 3.56952e-14)
(978.58 -3.65567e-10 3.43437e-14)
(978.58 -3.68451e-10 3.60659e-14)
(978.58 -3.7301e-10 3.66346e-14)
(978.58 -3.75996e-10 3.61626e-14)
(978.58 -3.78472e-10 3.75909e-14)
(978.58 -3.81007e-10 4.08214e-14)
(978.58 -3.84421e-10 3.82596e-14)
(978.58 -3.88202e-10 3.20953e-14)
(978.58 -3.92692e-10 3.65374e-14)
(978.58 -3.97436e-10 3.8822e-14)
(978.58 -4.03052e-10 3.33751e-14)
(978.58 -4.05999e-10 3.6961e-14)
(978.58 -4.10294e-10 2.88532e-14)
(978.58 -4.1406e-10 3.02146e-14)
(978.58 -4.18914e-10 3.63759e-14)
(978.58 -4.24416e-10 3.97417e-14)
(978.58 -4.29199e-10 3.23819e-14)
(978.58 -4.3361e-10 2.7782e-14)
(978.58 -4.3895e-10 2.88695e-14)
(978.58 -4.45209e-10 3.14182e-14)
(978.58 -4.49747e-10 3.02748e-14)
(978.58 -4.54959e-10 3.19153e-14)
(978.58 -4.59284e-10 2.93358e-14)
(978.58 -4.65466e-10 3.14814e-14)
(978.58 -4.72175e-10 3.35256e-14)
(978.58 -4.79194e-10 3.44151e-14)
(978.58 -4.86875e-10 3.12393e-14)
(978.58 -4.93389e-10 3.00405e-14)
(978.58 -4.99907e-10 2.96275e-14)
(978.58 -5.06856e-10 2.98363e-14)
(978.58 -5.14483e-10 2.8371e-14)
(978.58 -5.21512e-10 3.38285e-14)
(978.58 -5.27844e-10 3.23865e-14)
(978.58 -8.3564e-08 1.37756e-10)
(978.58 -5.95618e-08 8.79284e-11)
(978.58 -3.95027e-08 5.23767e-11)
(978.58 -2.59423e-08 3.15214e-11)
(978.58 -1.7492e-08 2.00611e-11)
(978.58 -1.22791e-08 1.36661e-11)
(978.58 -8.99925e-09 9.92669e-12)
(978.58 -6.871e-09 7.58602e-12)
(978.58 -5.4342e-09 6.00898e-12)
(978.58 -4.42679e-09 4.8998e-12)
(978.58 -3.69266e-09 4.0304e-12)
(978.58 -3.14021e-09 3.41452e-12)
(978.58 -2.71473e-09 2.91152e-12)
(978.58 -2.37849e-09 2.53054e-12)
(978.58 -2.10884e-09 2.24056e-12)
(978.58 -1.88952e-09 1.93915e-12)
(978.58 -1.70862e-09 1.70845e-12)
(978.58 -1.55606e-09 1.52349e-12)
(978.58 -1.42362e-09 1.36535e-12)
(978.58 -1.31147e-09 1.25527e-12)
(978.58 -1.21725e-09 1.12651e-12)
(978.58 -1.13466e-09 1.04841e-12)
(978.58 -1.06342e-09 9.58115e-13)
(978.58 -1.00011e-09 8.88301e-13)
(978.58 -9.44342e-10 8.07819e-13)
(978.58 -8.95063e-10 7.57984e-13)
(978.58 -8.501e-10 7.01807e-13)
(978.58 -8.10891e-10 6.58323e-13)
(978.58 -7.75806e-10 6.29097e-13)
(978.58 -7.44082e-10 5.79186e-13)
(978.58 -7.14933e-10 5.44825e-13)
(978.58 -6.9047e-10 5.09429e-13)
(978.58 -6.69015e-10 4.86098e-13)
(978.58 -6.49165e-10 4.55279e-13)
(978.58 -6.30959e-10 4.26961e-13)
(978.58 -6.12118e-10 4.0093e-13)
(978.58 -5.93845e-10 3.7946e-13)
(978.58 -5.77301e-10 3.54202e-13)
(978.58 -5.62051e-10 3.41858e-13)
(978.58 -5.47437e-10 3.16935e-13)
(978.58 -5.35081e-10 3.1154e-13)
(978.58 -5.23031e-10 2.94669e-13)
(978.58 -5.1324e-10 2.84583e-13)
(978.58 -5.02962e-10 2.69415e-13)
(978.58 -4.96675e-10 2.71297e-13)
(978.58 -4.90345e-10 2.51487e-13)
(978.58 -4.83533e-10 2.43272e-13)
(978.58 -4.76003e-10 2.36337e-13)
(978.58 -4.69285e-10 2.33341e-13)
(978.58 -4.6304e-10 2.18242e-13)
(978.58 -4.57945e-10 2.06297e-13)
(978.58 -4.53092e-10 2.02442e-13)
(978.58 -4.49172e-10 1.91319e-13)
(978.58 -4.44939e-10 1.83149e-13)
(978.58 -4.41818e-10 1.75e-13)
(978.58 -4.36993e-10 1.7609e-13)
(978.58 -4.31934e-10 1.68055e-13)
(978.58 -4.29133e-10 1.65151e-13)
(978.58 -4.26974e-10 1.68009e-13)
(978.58 -4.25238e-10 1.6145e-13)
(978.58 -4.22544e-10 1.50962e-13)
(978.58 -4.20535e-10 1.40984e-13)
(978.58 -4.19082e-10 1.35661e-13)
(978.58 -4.17147e-10 1.43378e-13)
(978.58 -4.16385e-10 1.44407e-13)
(978.58 -4.14779e-10 1.35298e-13)
(978.58 -4.10273e-10 1.3003e-13)
(978.58 -4.07143e-10 1.25112e-13)
(978.58 -4.06308e-10 1.15026e-13)
(978.58 -4.05272e-10 1.13439e-13)
(978.58 -4.03453e-10 1.14502e-13)
(978.58 -4.0184e-10 1.14983e-13)
(978.58 -4.03731e-10 1.12148e-13)
(978.58 -4.04026e-10 1.11669e-13)
(978.58 -4.03393e-10 1.07644e-13)
(978.58 -4.03312e-10 1.04399e-13)
(978.58 -4.03934e-10 1.0732e-13)
(978.58 -4.0494e-10 1.06391e-13)
(978.58 -4.03217e-10 9.7609e-14)
(978.58 -4.03085e-10 9.08782e-14)
(978.58 -4.0559e-10 9.05007e-14)
(978.58 -4.06987e-10 9.61538e-14)
(978.58 -4.07116e-10 9.22282e-14)
(978.58 -4.07393e-10 9.22583e-14)
(978.58 -4.07562e-10 8.90444e-14)
(978.58 -4.08001e-10 8.82597e-14)
(978.58 -4.09749e-10 8.41316e-14)
(978.58 -4.1142e-10 7.95808e-14)
(978.58 -4.13363e-10 8.02339e-14)
(978.58 -4.13164e-10 8.25857e-14)
(978.58 -4.13877e-10 8.10222e-14)
(978.58 -4.14781e-10 8.21054e-14)
(978.58 -4.17238e-10 8.46784e-14)
(978.58 -4.18588e-10 8.4335e-14)
(978.58 -4.2069e-10 7.35819e-14)
(978.58 -4.23559e-10 7.42359e-14)
(978.58 -4.2658e-10 7.37964e-14)
(978.58 -4.27752e-10 6.85087e-14)
(978.58 -4.28676e-10 6.74346e-14)
(978.58 -4.30143e-10 6.40231e-14)
(978.58 -4.30852e-10 6.00994e-14)
(978.58 -4.32085e-10 6.09695e-14)
(978.58 -4.35343e-10 6.22548e-14)
(978.58 -4.38488e-10 6.48437e-14)
(978.58 -4.40605e-10 6.39957e-14)
(978.58 -4.44044e-10 6.19833e-14)
(978.58 -4.45774e-10 5.9819e-14)
(978.58 -4.47967e-10 5.89364e-14)
(978.58 -4.5103e-10 5.51136e-14)
(978.58 -4.5393e-10 5.22144e-14)
(978.58 -4.57249e-10 5.37625e-14)
(978.58 -4.6013e-10 5.40708e-14)
(978.58 -4.62531e-10 5.83676e-14)
(978.58 -4.65258e-10 5.81817e-14)
(978.58 -4.68652e-10 5.9562e-14)
(978.58 -4.73421e-10 5.76683e-14)
(978.58 -4.77584e-10 5.56842e-14)
(978.58 -4.81603e-10 5.14052e-14)
(978.58 -4.85811e-10 5.01251e-14)
(978.58 -4.89433e-10 5.29269e-14)
(978.58 -4.93511e-10 5.30833e-14)
(978.58 -4.96993e-10 5.00696e-14)
(978.58 -5.00538e-10 4.86982e-14)
(978.58 -5.05785e-10 5.2343e-14)
(978.58 -5.09866e-10 5.29713e-14)
(978.58 -5.1651e-10 5.25921e-14)
(978.58 -5.20622e-10 5.54721e-14)
(978.58 -5.2524e-10 5.462e-14)
(978.58 -5.28986e-10 4.95718e-14)
(978.58 -5.31852e-10 4.85602e-14)
(978.58 -5.36547e-10 4.7453e-14)
(978.58 -5.4273e-10 4.9674e-14)
(978.58 -5.49239e-10 4.76338e-14)
(978.58 -5.55749e-10 4.74626e-14)
(978.58 -5.61961e-10 4.98044e-14)
(978.58 -5.67105e-10 4.88875e-14)
(978.58 -5.72323e-10 5.42383e-14)
(978.58 -5.77401e-10 5.21007e-14)
(978.58 -5.83217e-10 5.03546e-14)
(978.58 -5.90094e-10 4.56542e-14)
(978.58 -5.97498e-10 4.55329e-14)
(978.58 -6.04304e-10 4.54092e-14)
(978.58 -6.11684e-10 4.48084e-14)
(978.58 -6.18593e-10 4.63738e-14)
(978.58 -6.2525e-10 4.7778e-14)
(978.58 -6.32063e-10 4.80317e-14)
(978.58 -6.38839e-10 4.73972e-14)
(978.58 -6.46284e-10 4.5792e-14)
(978.58 -6.5432e-10 4.3209e-14)
(978.58 -6.64177e-10 4.29568e-14)
(978.58 -6.7383e-10 4.33223e-14)
(978.58 -6.82542e-10 4.59619e-14)
(978.58 -6.91489e-10 4.35861e-14)
(978.58 -7.0059e-10 4.06827e-14)
(978.58 -7.10674e-10 4.37951e-14)
(978.58 -7.20611e-10 4.40587e-14)
(978.58 -9.21861e-08 1.51941e-10)
(978.58 -7.11007e-08 1.04398e-10)
(978.58 -5.07656e-08 6.60262e-11)
(978.58 -3.52092e-08 4.1316e-11)
(978.58 -2.45726e-08 2.67829e-11)
(978.58 -1.75666e-08 1.8305e-11)
(978.58 -1.29572e-08 1.32092e-11)
(978.58 -9.88043e-09 1.00155e-11)
(978.58 -7.77697e-09 7.90131e-12)
(978.58 -6.29952e-09 6.42012e-12)
(978.58 -5.22714e-09 5.31558e-12)
(978.58 -4.42335e-09 4.45481e-12)
(978.58 -3.80849e-09 3.78094e-12)
(978.58 -3.32653e-09 3.28401e-12)
(978.58 -2.94027e-09 2.8687e-12)
(978.58 -2.62735e-09 2.51709e-12)
(978.58 -2.37003e-09 2.23048e-12)
(978.58 -2.15328e-09 2.00599e-12)
(978.58 -1.96674e-09 1.81931e-12)
(978.58 -1.80878e-09 1.62656e-12)
(978.58 -1.67482e-09 1.48732e-12)
(978.58 -1.55875e-09 1.36582e-12)
(978.58 -1.4575e-09 1.24056e-12)
(978.58 -1.36789e-09 1.14116e-12)
(978.58 -1.28953e-09 1.0518e-12)
(978.58 -1.22093e-09 9.99806e-13)
(978.58 -1.15816e-09 9.23828e-13)
(978.58 -1.10205e-09 8.76097e-13)
(978.58 -1.05247e-09 8.21516e-13)
(978.58 -1.0074e-09 7.60184e-13)
(978.58 -9.67542e-10 7.07399e-13)
(978.58 -9.33486e-10 6.658e-13)
(978.58 -9.02786e-10 6.15026e-13)
(978.58 -8.73948e-10 5.79666e-13)
(978.58 -8.47609e-10 5.50322e-13)
(978.58 -8.22391e-10 5.17415e-13)
(978.58 -7.97108e-10 4.92908e-13)
(978.58 -7.7402e-10 4.68007e-13)
(978.58 -7.53037e-10 4.3656e-13)
(978.58 -7.33936e-10 4.23443e-13)
(978.58 -7.16055e-10 4.11779e-13)
(978.58 -6.98547e-10 3.93966e-13)
(978.58 -6.84743e-10 3.75427e-13)
(978.58 -6.70355e-10 3.65103e-13)
(978.58 -6.59092e-10 3.51027e-13)
(978.58 -6.49958e-10 3.40104e-13)
(978.58 -6.41043e-10 3.19441e-13)
(978.58 -6.30141e-10 3.06992e-13)
(978.58 -6.21227e-10 2.92565e-13)
(978.58 -6.12746e-10 2.72626e-13)
(978.58 -6.05931e-10 2.71601e-13)
(978.58 -5.98263e-10 2.61051e-13)
(978.58 -5.91789e-10 2.52354e-13)
(978.58 -5.86127e-10 2.44576e-13)
(978.58 -5.79991e-10 2.40008e-13)
(978.58 -5.7477e-10 2.29033e-13)
(978.58 -5.6892e-10 2.15149e-13)
(978.58 -5.64726e-10 2.13226e-13)
(978.58 -5.61025e-10 2.09195e-13)
(978.58 -5.57478e-10 1.94321e-13)
(978.58 -5.5472e-10 1.89777e-13)
(978.58 -5.5054e-10 1.85297e-13)
(978.58 -5.48561e-10 1.84139e-13)
(978.58 -5.45796e-10 1.86879e-13)
(978.58 -5.43339e-10 1.76027e-13)
(978.58 -5.4116e-10 1.76973e-13)
(978.58 -5.37419e-10 1.70005e-13)
(978.58 -5.33237e-10 1.56967e-13)
(978.58 -5.30531e-10 1.62661e-13)
(978.58 -5.28472e-10 1.59056e-13)
(978.58 -5.26935e-10 1.5267e-13)
(978.58 -5.2495e-10 1.49887e-13)
(978.58 -5.24651e-10 1.44451e-13)
(978.58 -5.26288e-10 1.38715e-13)
(978.58 -5.24649e-10 1.40581e-13)
(978.58 -5.23774e-10 1.38273e-13)
(978.58 -5.24114e-10 1.35394e-13)
(978.58 -5.23805e-10 1.28294e-13)
(978.58 -5.22327e-10 1.23513e-13)
(978.58 -5.22366e-10 1.2541e-13)
(978.58 -5.23833e-10 1.29509e-13)
(978.58 -5.25731e-10 1.19314e-13)
(978.58 -5.26169e-10 1.16875e-13)
(978.58 -5.26101e-10 1.16206e-13)
(978.58 -5.27773e-10 1.1374e-13)
(978.58 -5.279e-10 1.08444e-13)
(978.58 -5.2826e-10 1.07904e-13)
(978.58 -5.29894e-10 1.09916e-13)
(978.58 -5.32079e-10 1.12055e-13)
(978.58 -5.32819e-10 1.0755e-13)
(978.58 -5.34334e-10 1.02342e-13)
(978.58 -5.34126e-10 1.02368e-13)
(978.58 -5.36117e-10 1.01125e-13)
(978.58 -5.38121e-10 9.71805e-14)
(978.58 -5.4132e-10 9.55783e-14)
(978.58 -5.43077e-10 9.5767e-14)
(978.58 -5.45872e-10 8.94142e-14)
(978.58 -5.50101e-10 9.0548e-14)
(978.58 -5.52206e-10 9.01959e-14)
(978.58 -5.53542e-10 8.59103e-14)
(978.58 -5.55089e-10 8.39779e-14)
(978.58 -5.55601e-10 8.66778e-14)
(978.58 -5.5767e-10 8.53128e-14)
(978.58 -5.61767e-10 7.70463e-14)
(978.58 -5.6561e-10 7.84708e-14)
(978.58 -5.69217e-10 8.01978e-14)
(978.58 -5.7287e-10 7.91504e-14)
(978.58 -5.75335e-10 7.79137e-14)
(978.58 -5.78027e-10 7.65193e-14)
(978.58 -5.80946e-10 7.86967e-14)
(978.58 -5.84615e-10 7.74522e-14)
(978.58 -5.88793e-10 7.61962e-14)
(978.58 -5.92035e-10 7.40873e-14)
(978.58 -5.95297e-10 6.68986e-14)
(978.58 -5.99022e-10 6.90021e-14)
(978.58 -6.03886e-10 7.16909e-14)
(978.58 -6.08306e-10 7.33573e-14)
(978.58 -6.13694e-10 7.13183e-14)
(978.58 -6.19257e-10 7.31378e-14)
(978.58 -6.24526e-10 7.1968e-14)
(978.58 -6.29432e-10 6.58316e-14)
(978.58 -6.34628e-10 6.57919e-14)
(978.58 -6.38923e-10 7.06473e-14)
(978.58 -6.43706e-10 6.92347e-14)
(978.58 -6.48175e-10 6.68357e-14)
(978.58 -6.55702e-10 7.13671e-14)
(978.58 -6.60725e-10 7.02827e-14)
(978.58 -6.67538e-10 6.33207e-14)
(978.58 -6.72152e-10 6.2196e-14)
(978.58 -6.76719e-10 6.13734e-14)
(978.58 -6.82103e-10 6.29847e-14)
(978.58 -6.88485e-10 6.64867e-14)
(978.58 -6.95046e-10 6.33502e-14)
(978.58 -7.02566e-10 6.61848e-14)
(978.58 -7.10449e-10 6.60413e-14)
(978.58 -7.17976e-10 6.43556e-14)
(978.58 -7.25657e-10 6.36897e-14)
(978.58 -7.32798e-10 6.08525e-14)
(978.58 -7.38866e-10 6.01846e-14)
(978.58 -7.45679e-10 5.81543e-14)
(978.58 -7.54076e-10 6.12061e-14)
(978.58 -7.62898e-10 5.97471e-14)
(978.58 -7.7217e-10 6.15121e-14)
(978.58 -7.80922e-10 6.21188e-14)
(978.58 -7.89766e-10 6.04957e-14)
(978.58 -7.98112e-10 5.96017e-14)
(978.58 -8.07025e-10 5.63956e-14)
(978.58 -8.15937e-10 5.40183e-14)
(978.58 -8.24892e-10 5.65909e-14)
(978.58 -8.3538e-10 5.65817e-14)
(978.58 -8.46039e-10 5.67034e-14)
(978.58 -8.56961e-10 5.92394e-14)
(978.58 -8.68445e-10 5.18284e-14)
(978.58 -8.7905e-10 5.45813e-14)
(978.58 -8.90252e-10 5.80493e-14)
(978.58 -9.02826e-10 5.62506e-14)
(978.58 -9.85247e-08 1.62734e-10)
(978.58 -8.03726e-08 1.17701e-10)
(978.58 -6.0848e-08 7.81691e-11)
(978.58 -4.43012e-08 5.09e-11)
(978.58 -3.20118e-08 3.36788e-11)
(978.58 -2.33942e-08 2.31505e-11)
(978.58 -1.74545e-08 1.6736e-11)
(978.58 -1.33575e-08 1.25847e-11)
(978.58 -1.05003e-08 9.8266e-12)
(978.58 -8.47313e-09 7.91579e-12)
(978.58 -6.99942e-09 6.55682e-12)
(978.58 -5.89684e-09 5.50773e-12)
(978.58 -5.05604e-09 4.71063e-12)
(978.58 -4.40073e-09 4.08078e-12)
(978.58 -3.87881e-09 3.51572e-12)
(978.58 -3.45688e-09 3.09257e-12)
(978.58 -3.10985e-09 2.76647e-12)
(978.58 -2.81972e-09 2.46636e-12)
(978.58 -2.57141e-09 2.23129e-12)
(978.58 -2.36084e-09 1.99651e-12)
(978.58 -2.18159e-09 1.8183e-12)
(978.58 -2.02538e-09 1.6627e-12)
(978.58 -1.88946e-09 1.52526e-12)
(978.58 -1.77192e-09 1.38798e-12)
(978.58 -1.66903e-09 1.30424e-12)
(978.58 -1.57813e-09 1.21774e-12)
(978.58 -1.49487e-09 1.13839e-12)
(978.58 -1.41984e-09 1.06456e-12)
(978.58 -1.35311e-09 9.7779e-13)
(978.58 -1.29451e-09 9.02928e-13)
(978.58 -1.24191e-09 8.6283e-13)
(978.58 -1.1955e-09 8.05124e-13)
(978.58 -1.15349e-09 7.5765e-13)
(978.58 -1.11479e-09 7.20595e-13)
(978.58 -1.07975e-09 6.74233e-13)
(978.58 -1.04709e-09 6.26301e-13)
(978.58 -1.01457e-09 6.15989e-13)
(978.58 -9.83815e-10 5.80163e-13)
(978.58 -9.57707e-10 5.52914e-13)
(978.58 -9.33232e-10 5.32597e-13)
(978.58 -9.08706e-10 4.93724e-13)
(978.58 -8.85887e-10 4.72174e-13)
(978.58 -8.66022e-10 4.58615e-13)
(978.58 -8.47974e-10 4.41642e-13)
(978.58 -8.32254e-10 4.23351e-13)
(978.58 -8.19261e-10 4.09386e-13)
(978.58 -8.06868e-10 3.85739e-13)
(978.58 -7.92734e-10 3.75676e-13)
(978.58 -7.81195e-10 3.61557e-13)
(978.58 -7.68964e-10 3.41064e-13)
(978.58 -7.60554e-10 3.31722e-13)
(978.58 -7.49852e-10 3.19122e-13)
(978.58 -7.40042e-10 3.05716e-13)
(978.58 -7.33204e-10 2.95839e-13)
(978.58 -7.24561e-10 2.83415e-13)
(978.58 -7.16665e-10 2.73094e-13)
(978.58 -7.1065e-10 2.68488e-13)
(978.58 -7.0486e-10 2.6555e-13)
(978.58 -6.99835e-10 2.50939e-13)
(978.58 -6.94563e-10 2.43162e-13)
(978.58 -6.90532e-10 2.39399e-13)
(978.58 -6.86393e-10 2.32134e-13)
(978.58 -6.82398e-10 2.29662e-13)
(978.58 -6.78011e-10 2.20994e-13)
(978.58 -6.74644e-10 2.2009e-13)
(978.58 -6.70628e-10 2.1737e-13)
(978.58 -6.66374e-10 2.04329e-13)
(978.58 -6.62183e-10 1.97719e-13)
(978.58 -6.58356e-10 2.00418e-13)
(978.58 -6.55388e-10 1.91915e-13)
(978.58 -6.52983e-10 1.85623e-13)
(978.58 -6.5054e-10 1.81286e-13)
(978.58 -6.49705e-10 1.77014e-13)
(978.58 -6.50153e-10 1.69955e-13)
(978.58 -6.48587e-10 1.70306e-13)
(978.58 -6.47143e-10 1.63706e-13)
(978.58 -6.47046e-10 1.60419e-13)
(978.58 -6.47083e-10 1.58812e-13)
(978.58 -6.45437e-10 1.66942e-13)
(978.58 -6.44793e-10 1.58289e-13)
(978.58 -6.44875e-10 1.52692e-13)
(978.58 -6.4629e-10 1.47319e-13)
(978.58 -6.46555e-10 1.44541e-13)