/*--------------------------------*- C++ -*----------------------------------*\
| =========                 |                                                 |
| \\      /  F ield         | OpenFOAM: The Open Source CFD Toolbox           |
|  \\    /   O peration     | Version:  v1706                                 |
|   \\  /    A nd           | Web:      www.OpenFOAM.com                      |
|    \\/     M anipulation  |                                                 |
\*---------------------------------------------------------------------------*/
FoamFile
{
    version     2.0;
    format      ascii;
    class       volScalarField;
    location    "3.7e-05";
    object      wallHeatFlux;
}
// * * * * * * * * * * * * * * * * * * * * * * * * * * * * * * * * * * * * * //

dimensions      [1 0 -3 0 0 0 0];


internalField   uniform 0;

boundaryField
{
    cone
    {
        type            calculated;
        value           nonuniform List<scalar> 
147
(
24837.1
24833.4
24826
24819.2
24810.4
24799.9
24787.5
24772.9
24756
24737
24716.6
24695.1
24672.6
24648.7
24623.3
24596.3
24567.6
24537.4
24505.5
24472.1
24437
24400.3
24361.9
24322
24280.4
24237.3
24192.5
24146.2
24098.2
24048.7
23997.6
23945
23890.8
23835.1
23777.8
23719
23658.7
23596.9
23533.6
23468.8
23402.6
23334.9
23265.7
23195.1
23123.2
23049.8
22975
22898.8
22821.3
22742.4
22662.2
22580.7
22497.9
22413.8
22328.4
22241.8
22153.9
22064.8
21974.5
21883
21790.3
21696.5
21601.5
21505.4
21408.1
21309.8
21210.4
21110
21008.5
20906
20802.4
20697.9
20592.4
20486
20378.6
20270.3
20161.1
20051.1
19940.1
19828.4
19715.8
19602.4
19488.2
19373.2
19257.6
19141.1
19024
18906.2
18787.7
18668.5
18548.8
18428.4
18307.4
18185.9
18063.8
17941.1
17818
17694.4
17570.3
17445.7
17320.7
17195.3
17069.5
16943.3
16816.8
16690
16562.8
16435.3
16307.6
16179.6
16051.4
15923
15794.3
15665.5
15536.6
15407.5
15278.3
15149
15019.6
14890.2
14760.7
14631.3
14501.8
14372.3
14242.9
14113.5
13984.3
13855.1
13726
13597.1
13468.3
13339.7
13211.3
13083.1
12955.2
12827.5
12700
12572.9
12446.1
12319.7
12193.8
12068.5
11943.9
11819.8
11695.9
11572
24864.6
)
;
    }
    inlet
    {
        type            calculated;
        value           uniform 0;
    }
    rWedge
    {
        type            wedge;
    }
    lWedge
    {
        type            wedge;
    }
    outlet
    {
        type            calculated;
        value           nonuniform 0();
    }
    procBoundary3to2
    {
        type            processor;
        value           uniform 0;
    }
}


// ************************************************************************* //
