# Force coefficients
# liftDir    : (0.000000e+00 1.000000e+00 0.000000e+00)
# dragDir    : (1.000000e+00 0.000000e+00 0.000000e+00)
# pitchAxis  : (0.000000e+00 0.000000e+00 1.000000e+00)
# magUInf    : 9.785800e+02
# lRef       : 5.000000e-02
# Aref       : 1.966460e-05
# CofR       : (0.000000e+00 0.000000e+00 0.000000e+00)
#            
# Time       	Cm           	Cd           	Cl           	Cl(f)        	Cl(r)        
2.000194932e-05	-1.255193e+00	8.059337e-01	-1.543664e+00	-2.027025e+00	4.833610e-01
2.000389864e-05	-1.252054e+00	8.045962e-01	-1.540864e+00	-2.022487e+00	4.816223e-01
2.000584795e-05	-1.254354e+00	8.055467e-01	-1.542874e+00	-2.025791e+00	4.829168e-01
2.000779727e-05	-1.253826e+00	8.053224e-01	-1.542381e+00	-2.025017e+00	4.826360e-01
2.000974659e-05	-1.254681e+00	8.056702e-01	-1.543110e+00	-2.026236e+00	4.831264e-01
2.001169591e-05	-1.254879e+00	8.057468e-01	-1.543258e+00	-2.026508e+00	4.832496e-01
2.001364522e-05	-1.255400e+00	8.059567e-01	-1.543692e+00	-2.027246e+00	4.835539e-01
2.001559454e-05	-1.255767e+00	8.061032e-01	-1.543990e+00	-2.027762e+00	4.837718e-01
2.001754386e-05	-1.256211e+00	8.062816e-01	-1.544356e+00	-2.028389e+00	4.840333e-01
2.001949318e-05	-1.256619e+00	8.064448e-01	-1.544689e+00	-2.028963e+00	4.842741e-01
2.00214425e-05	-1.257046e+00	8.066162e-01	-1.545040e+00	-2.029565e+00	4.845259e-01
2.002339181e-05	-1.257464e+00	8.067839e-01	-1.545382e+00	-2.030155e+00	4.847728e-01
2.002534113e-05	-1.257888e+00	8.069538e-01	-1.545730e+00	-2.030752e+00	4.850228e-01
2.002729045e-05	-1.258309e+00	8.071229e-01	-1.546075e+00	-2.031347e+00	4.852716e-01
2.002923977e-05	-1.258732e+00	8.072926e-01	-1.546422e+00	-2.031943e+00	4.855214e-01
2.003118908e-05	-1.259155e+00	8.074622e-01	-1.546769e+00	-2.032540e+00	4.857710e-01
2.00331384e-05	-1.259579e+00	8.076321e-01	-1.547116e+00	-2.033137e+00	4.860210e-01
2.003508772e-05	-1.260002e+00	8.078019e-01	-1.547462e+00	-2.033733e+00	4.862709e-01
2.003703704e-05	-1.260426e+00	8.079718e-01	-1.547809e+00	-2.034330e+00	4.865211e-01
2.003898635e-05	-1.260849e+00	8.081417e-01	-1.548156e+00	-2.034928e+00	4.867713e-01
2.004093567e-05	-1.261273e+00	8.083118e-01	-1.548503e+00	-2.035525e+00	4.870217e-01
2.004288499e-05	-1.261698e+00	8.084819e-01	-1.548851e+00	-2.036123e+00	4.872722e-01
2.004483431e-05	-1.262122e+00	8.086520e-01	-1.549198e+00	-2.036721e+00	4.875229e-01
2.004678363e-05	-1.262547e+00	8.088223e-01	-1.549546e+00	-2.037320e+00	4.877738e-01
2.004873294e-05	-1.262971e+00	8.089926e-01	-1.549893e+00	-2.037918e+00	4.880247e-01
2.005068226e-05	-1.263396e+00	8.091630e-01	-1.550241e+00	-2.038517e+00	4.882759e-01
2.005263158e-05	-1.263822e+00	8.093334e-01	-1.550589e+00	-2.039116e+00	4.885271e-01
2.00545809e-05	-1.264247e+00	8.095039e-01	-1.550937e+00	-2.039715e+00	4.887784e-01
2.005653021e-05	-1.264672e+00	8.096745e-01	-1.551285e+00	-2.040315e+00	4.890299e-01
2.005847953e-05	-1.265098e+00	8.098450e-01	-1.551633e+00	-2.040915e+00	4.892814e-01
2.006042885e-05	-1.265524e+00	8.100157e-01	-1.551981e+00	-2.041514e+00	4.895331e-01
2.006237817e-05	-1.265950e+00	8.101863e-01	-1.552329e+00	-2.042114e+00	4.897849e-01
2.006432749e-05	-1.266376e+00	8.103570e-01	-1.552678e+00	-2.042714e+00	4.900368e-01
2.00662768e-05	-1.266802e+00	8.105278e-01	-1.553026e+00	-2.043315e+00	4.902887e-01
2.006822612e-05	-1.267228e+00	8.106985e-01	-1.553374e+00	-2.043915e+00	4.905408e-01
2.007017544e-05	-1.267654e+00	8.108694e-01	-1.553723e+00	-2.044516e+00	4.907930e-01
2.007212476e-05	-1.268081e+00	8.110402e-01	-1.554071e+00	-2.045117e+00	4.910453e-01
2.007407407e-05	-1.268508e+00	8.112111e-01	-1.554420e+00	-2.045718e+00	4.912977e-01
2.007602339e-05	-1.268935e+00	8.113820e-01	-1.554769e+00	-2.046319e+00	4.915502e-01
2.007797271e-05	-1.269361e+00	8.115530e-01	-1.555117e+00	-2.046920e+00	4.918028e-01
2.007992203e-05	-1.269789e+00	8.117240e-01	-1.555466e+00	-2.047522e+00	4.920555e-01
2.008187135e-05	-1.270216e+00	8.118950e-01	-1.555815e+00	-2.048123e+00	4.923083e-01
2.008382066e-05	-1.270643e+00	8.120661e-01	-1.556164e+00	-2.048725e+00	4.925612e-01
2.008576998e-05	-1.271071e+00	8.122372e-01	-1.556513e+00	-2.049327e+00	4.928142e-01
2.00877193e-05	-1.271498e+00	8.124083e-01	-1.556862e+00	-2.049929e+00	4.930673e-01
2.008966862e-05	-1.271926e+00	8.125795e-01	-1.557211e+00	-2.050531e+00	4.933205e-01
2.009161793e-05	-1.272354e+00	8.127507e-01	-1.557560e+00	-2.051134e+00	4.935738e-01
2.009356725e-05	-1.272782e+00	8.129219e-01	-1.557909e+00	-2.051736e+00	4.938271e-01
2.009551657e-05	-1.273209e+00	8.130930e-01	-1.558258e+00	-2.052338e+00	4.940804e-01
2.009746589e-05	-1.273637e+00	8.132641e-01	-1.558607e+00	-2.052941e+00	4.943338e-01
2.00994152e-05	-1.274065e+00	8.134354e-01	-1.558956e+00	-2.053543e+00	4.945874e-01
2.010136452e-05	-1.274493e+00	8.136066e-01	-1.559305e+00	-2.054146e+00	4.948410e-01
2.010331384e-05	-1.274922e+00	8.137778e-01	-1.559654e+00	-2.054749e+00	4.950947e-01
2.010526316e-05	-1.275350e+00	8.139491e-01	-1.560003e+00	-2.055352e+00	4.953485e-01
2.010721248e-05	-1.275779e+00	8.141204e-01	-1.560353e+00	-2.055955e+00	4.956024e-01
2.010916179e-05	-1.276207e+00	8.142917e-01	-1.560702e+00	-2.056558e+00	4.958564e-01
2.011111111e-05	-1.276636e+00	8.144631e-01	-1.561051e+00	-2.057162e+00	4.961105e-01
2.011306043e-05	-1.277065e+00	8.146345e-01	-1.561401e+00	-2.057766e+00	4.963647e-01
2.011500975e-05	-1.277494e+00	8.148059e-01	-1.561750e+00	-2.058369e+00	4.966190e-01
2.011695906e-05	-1.277923e+00	8.149773e-01	-1.562100e+00	-2.058973e+00	4.968733e-01
2.011890838e-05	-1.278353e+00	8.151488e-01	-1.562450e+00	-2.059577e+00	4.971278e-01
2.01208534e-05	-1.278792e+00	8.153246e-01	-1.562808e+00	-2.060196e+00	4.973881e-01
2.012279841e-05	-1.279221e+00	8.154958e-01	-1.563157e+00	-2.060799e+00	4.976421e-01
2.012474343e-05	-1.279649e+00	8.156671e-01	-1.563506e+00	-2.061402e+00	4.978963e-01
2.012668844e-05	-1.280078e+00	8.158385e-01	-1.563855e+00	-2.062006e+00	4.981508e-01
2.012863346e-05	-1.280507e+00	8.160098e-01	-1.564204e+00	-2.062609e+00	4.984052e-01
2.013057847e-05	-1.280936e+00	8.161812e-01	-1.564553e+00	-2.063213e+00	4.986598e-01
2.013252348e-05	-1.281366e+00	8.163525e-01	-1.564902e+00	-2.063817e+00	4.989144e-01
2.01344685e-05	-1.281795e+00	8.165239e-01	-1.565252e+00	-2.064421e+00	4.991691e-01
2.013641351e-05	-1.282224e+00	8.166953e-01	-1.565601e+00	-2.065025e+00	4.994239e-01
2.013835853e-05	-1.282654e+00	8.168668e-01	-1.565950e+00	-2.065629e+00	4.996788e-01
2.014030354e-05	-1.283083e+00	8.170383e-01	-1.566299e+00	-2.066233e+00	4.999338e-01
2.014224856e-05	-1.283513e+00	8.172097e-01	-1.566649e+00	-2.066838e+00	5.001888e-01
2.014419357e-05	-1.283943e+00	8.173812e-01	-1.566998e+00	-2.067442e+00	5.004440e-01
2.014613859e-05	-1.284373e+00	8.175528e-01	-1.567348e+00	-2.068047e+00	5.006992e-01
2.01480836e-05	-1.284803e+00	8.177243e-01	-1.567697e+00	-2.068652e+00	5.009546e-01
2.015002862e-05	-1.285234e+00	8.178959e-01	-1.568047e+00	-2.069257e+00	5.012100e-01
2.015197363e-05	-1.285664e+00	8.180675e-01	-1.568397e+00	-2.069862e+00	5.014655e-01
2.015391865e-05	-1.286094e+00	8.182390e-01	-1.568746e+00	-2.070467e+00	5.017210e-01
2.015586366e-05	-1.286524e+00	8.184105e-01	-1.569096e+00	-2.071072e+00	5.019766e-01
2.015780867e-05	-1.286955e+00	8.185821e-01	-1.569445e+00	-2.071677e+00	5.022322e-01
2.015975369e-05	-1.287385e+00	8.187537e-01	-1.569795e+00	-2.072283e+00	5.024880e-01
2.01616987e-05	-1.287816e+00	8.189253e-01	-1.570144e+00	-2.072888e+00	5.027439e-01
2.016364372e-05	-1.288247e+00	8.190969e-01	-1.570494e+00	-2.073494e+00	5.029998e-01
2.016558873e-05	-1.288678e+00	8.192686e-01	-1.570844e+00	-2.074100e+00	5.032558e-01
2.016753375e-05	-1.289109e+00	8.194403e-01	-1.571194e+00	-2.074706e+00	5.035120e-01
2.016947876e-05	-1.289540e+00	8.196120e-01	-1.571544e+00	-2.075312e+00	5.037682e-01
2.017142378e-05	-1.289971e+00	8.197837e-01	-1.571894e+00	-2.075918e+00	5.040245e-01
2.017336879e-05	-1.290403e+00	8.199555e-01	-1.572244e+00	-2.076524e+00	5.042809e-01
2.017531381e-05	-1.290834e+00	8.201272e-01	-1.572594e+00	-2.077131e+00	5.045374e-01
2.017725882e-05	-1.291266e+00	8.202990e-01	-1.572944e+00	-2.077738e+00	5.047940e-01
2.017920383e-05	-1.291698e+00	8.204708e-01	-1.573294e+00	-2.078344e+00	5.050506e-01
2.018114885e-05	-1.292129e+00	8.206426e-01	-1.573644e+00	-2.078951e+00	5.053074e-01
2.018309386e-05	-1.292561e+00	8.208145e-01	-1.573994e+00	-2.079558e+00	5.055642e-01
2.018503888e-05	-1.292993e+00	8.209864e-01	-1.574344e+00	-2.080166e+00	5.058212e-01
2.018698389e-05	-1.293426e+00	8.211583e-01	-1.574695e+00	-2.080773e+00	5.060782e-01
2.018892891e-05	-1.293858e+00	8.213302e-01	-1.575045e+00	-2.081381e+00	5.063354e-01
2.019087392e-05	-1.294290e+00	8.215022e-01	-1.575396e+00	-2.081988e+00	5.065926e-01
2.019281894e-05	-1.294723e+00	8.216742e-01	-1.575746e+00	-2.082596e+00	5.068500e-01
2.019476395e-05	-1.295156e+00	8.218462e-01	-1.576097e+00	-2.083204e+00	5.071074e-01
2.019670897e-05	-1.295588e+00	8.220182e-01	-1.576447e+00	-2.083812e+00	5.073649e-01
2.019865398e-05	-1.296021e+00	8.221903e-01	-1.576798e+00	-2.084420e+00	5.076225e-01
2.0200599e-05	-1.296454e+00	8.223624e-01	-1.577148e+00	-2.085029e+00	5.078802e-01
2.020254401e-05	-1.296888e+00	8.225345e-01	-1.577499e+00	-2.085637e+00	5.081380e-01
2.020448902e-05	-1.297321e+00	8.227067e-01	-1.577850e+00	-2.086246e+00	5.083960e-01
2.020643404e-05	-1.297754e+00	8.228788e-01	-1.578201e+00	-2.086855e+00	5.086539e-01
2.020837905e-05	-1.298188e+00	8.230509e-01	-1.578552e+00	-2.087463e+00	5.089119e-01
2.021032407e-05	-1.298621e+00	8.232230e-01	-1.578902e+00	-2.088072e+00	5.091699e-01
2.021226908e-05	-1.299055e+00	8.233952e-01	-1.579253e+00	-2.088681e+00	5.094281e-01
2.02142141e-05	-1.299488e+00	8.235673e-01	-1.579604e+00	-2.089290e+00	5.096863e-01
2.021615911e-05	-1.299922e+00	8.237395e-01	-1.579955e+00	-2.089899e+00	5.099446e-01
2.021810413e-05	-1.300356e+00	8.239117e-01	-1.580306e+00	-2.090509e+00	5.102030e-01
2.022004914e-05	-1.300790e+00	8.240839e-01	-1.580657e+00	-2.091118e+00	5.104615e-01
2.022199416e-05	-1.301224e+00	8.242561e-01	-1.581008e+00	-2.091728e+00	5.107201e-01
2.022393917e-05	-1.301658e+00	8.244284e-01	-1.581359e+00	-2.092337e+00	5.109787e-01
2.022588419e-05	-1.302092e+00	8.246007e-01	-1.581710e+00	-2.092947e+00	5.112375e-01
2.02278292e-05	-1.302527e+00	8.247730e-01	-1.582061e+00	-2.093557e+00	5.114964e-01
2.022977421e-05	-1.302961e+00	8.249453e-01	-1.582412e+00	-2.094167e+00	5.117553e-01
2.023171923e-05	-1.303396e+00	8.251176e-01	-1.582763e+00	-2.094778e+00	5.120144e-01
2.023366424e-05	-1.303831e+00	8.252900e-01	-1.583115e+00	-2.095388e+00	5.122735e-01
2.023560926e-05	-1.304266e+00	8.254624e-01	-1.583466e+00	-2.095999e+00	5.125327e-01
2.023755427e-05	-1.304701e+00	8.256348e-01	-1.583817e+00	-2.096609e+00	5.127920e-01
2.023949929e-05	-1.305136e+00	8.258072e-01	-1.584169e+00	-2.097220e+00	5.130514e-01
2.02414443e-05	-1.305571e+00	8.259797e-01	-1.584520e+00	-2.097831e+00	5.133109e-01
2.024338932e-05	-1.306006e+00	8.261522e-01	-1.584872e+00	-2.098442e+00	5.135705e-01
2.024533433e-05	-1.306442e+00	8.263247e-01	-1.585223e+00	-2.099054e+00	5.138302e-01
2.024727935e-05	-1.306878e+00	8.264972e-01	-1.585575e+00	-2.099665e+00	5.140900e-01
2.024922436e-05	-1.307313e+00	8.266698e-01	-1.585927e+00	-2.100277e+00	5.143498e-01
2.025116938e-05	-1.307749e+00	8.268424e-01	-1.586279e+00	-2.100888e+00	5.146098e-01
2.025311439e-05	-1.308185e+00	8.270150e-01	-1.586630e+00	-2.101500e+00	5.148699e-01
2.02550594e-05	-1.308621e+00	8.271876e-01	-1.586982e+00	-2.102112e+00	5.151300e-01
2.025700442e-05	-1.309057e+00	8.273602e-01	-1.587334e+00	-2.102724e+00	5.153903e-01
2.025894943e-05	-1.309494e+00	8.275331e-01	-1.587686e+00	-2.103337e+00	5.156508e-01
2.026089445e-05	-1.309930e+00	8.277057e-01	-1.588038e+00	-2.103949e+00	5.159111e-01
2.026283946e-05	-1.310367e+00	8.278784e-01	-1.588390e+00	-2.104562e+00	5.161716e-01
2.026478448e-05	-1.310803e+00	8.280510e-01	-1.588742e+00	-2.105174e+00	5.164321e-01
2.026672949e-05	-1.311240e+00	8.282237e-01	-1.589094e+00	-2.105787e+00	5.166927e-01
2.026867451e-05	-1.311676e+00	8.283964e-01	-1.589446e+00	-2.106399e+00	5.169534e-01
2.027061952e-05	-1.312113e+00	8.285692e-01	-1.589798e+00	-2.107012e+00	5.172141e-01
2.027256454e-05	-1.312550e+00	8.287419e-01	-1.590150e+00	-2.107625e+00	5.174750e-01
2.027450955e-05	-1.312987e+00	8.289147e-01	-1.590502e+00	-2.108238e+00	5.177359e-01
2.027645457e-05	-1.313424e+00	8.290874e-01	-1.590854e+00	-2.108851e+00	5.179969e-01
2.027839958e-05	-1.313861e+00	8.292602e-01	-1.591207e+00	-2.109465e+00	5.182581e-01
2.028034459e-05	-1.314299e+00	8.294331e-01	-1.591559e+00	-2.110078e+00	5.185193e-01
2.028228961e-05	-1.314736e+00	8.296059e-01	-1.591911e+00	-2.110692e+00	5.187806e-01
2.028423462e-05	-1.315174e+00	8.297788e-01	-1.592263e+00	-2.111305e+00	5.190420e-01
2.028617964e-05	-1.315611e+00	8.299516e-01	-1.592616e+00	-2.111919e+00	5.193034e-01
2.028812465e-05	-1.316049e+00	8.301245e-01	-1.592968e+00	-2.112533e+00	5.195650e-01
2.029006967e-05	-1.316487e+00	8.302975e-01	-1.593321e+00	-2.113147e+00	5.198267e-01
2.029201468e-05	-1.316925e+00	8.304704e-01	-1.593673e+00	-2.113762e+00	5.200884e-01
2.02939597e-05	-1.317363e+00	8.306434e-01	-1.594026e+00	-2.114376e+00	5.203503e-01
2.029590471e-05	-1.317801e+00	8.308164e-01	-1.594378e+00	-2.114991e+00	5.206122e-01
2.029784973e-05	-1.318240e+00	8.309894e-01	-1.594731e+00	-2.115605e+00	5.208742e-01
2.029979474e-05	-1.318678e+00	8.311624e-01	-1.595084e+00	-2.116220e+00	5.211363e-01
2.030173976e-05	-1.319117e+00	8.313355e-01	-1.595437e+00	-2.116835e+00	5.213986e-01
2.030368477e-05	-1.319556e+00	8.315086e-01	-1.595789e+00	-2.117450e+00	5.216609e-01
2.030562978e-05	-1.319994e+00	8.316817e-01	-1.596142e+00	-2.118066e+00	5.219233e-01
2.03075748e-05	-1.320433e+00	8.318548e-01	-1.596495e+00	-2.118681e+00	5.221858e-01
2.030951981e-05	-1.320872e+00	8.320280e-01	-1.596848e+00	-2.119297e+00	5.224483e-01
2.031146483e-05	-1.321312e+00	8.322012e-01	-1.597201e+00	-2.119912e+00	5.227111e-01
2.031340984e-05	-1.321751e+00	8.323745e-01	-1.597555e+00	-2.120529e+00	5.229740e-01
2.031535486e-05	-1.322191e+00	8.325477e-01	-1.597908e+00	-2.121144e+00	5.232368e-01
2.031729987e-05	-1.322630e+00	8.327209e-01	-1.598261e+00	-2.121760e+00	5.234997e-01
2.031924489e-05	-1.323070e+00	8.328941e-01	-1.598614e+00	-2.122376e+00	5.237627e-01
2.03211899e-05	-1.323509e+00	8.330674e-01	-1.598967e+00	-2.122993e+00	5.240257e-01
2.032313492e-05	-1.323949e+00	8.332406e-01	-1.599320e+00	-2.123609e+00	5.242888e-01
2.032507993e-05	-1.324389e+00	8.334139e-01	-1.599673e+00	-2.124225e+00	5.245520e-01
2.032702495e-05	-1.324829e+00	8.335871e-01	-1.600026e+00	-2.124842e+00	5.248153e-01
2.032896996e-05	-1.325268e+00	8.337604e-01	-1.600380e+00	-2.125458e+00	5.250787e-01
2.033091497e-05	-1.325709e+00	8.339337e-01	-1.600733e+00	-2.126075e+00	5.253422e-01
2.033285999e-05	-1.326149e+00	8.341070e-01	-1.601086e+00	-2.126692e+00	5.256057e-01
2.0334805e-05	-1.326589e+00	8.342804e-01	-1.601440e+00	-2.127309e+00	5.258693e-01
2.033675002e-05	-1.327030e+00	8.344537e-01	-1.601793e+00	-2.127926e+00	5.261331e-01
2.033869503e-05	-1.327470e+00	8.346271e-01	-1.602146e+00	-2.128543e+00	5.263969e-01
2.034064005e-05	-1.327911e+00	8.348005e-01	-1.602500e+00	-2.129161e+00	5.266608e-01
2.034258506e-05	-1.328352e+00	8.349739e-01	-1.602853e+00	-2.129778e+00	5.269248e-01
2.034453008e-05	-1.328792e+00	8.351474e-01	-1.603207e+00	-2.130396e+00	5.271889e-01
2.034647509e-05	-1.329233e+00	8.353208e-01	-1.603561e+00	-2.131014e+00	5.274530e-01
2.034842011e-05	-1.329674e+00	8.354943e-01	-1.603914e+00	-2.131632e+00	5.277173e-01
2.035036512e-05	-1.330116e+00	8.356678e-01	-1.604268e+00	-2.132250e+00	5.279816e-01
2.035231014e-05	-1.330557e+00	8.358413e-01	-1.604622e+00	-2.132868e+00	5.282461e-01
2.035425515e-05	-1.330998e+00	8.360149e-01	-1.604976e+00	-2.133486e+00	5.285106e-01
2.035620016e-05	-1.331440e+00	8.361885e-01	-1.605329e+00	-2.134105e+00	5.287752e-01
2.035814518e-05	-1.331880e+00	8.363613e-01	-1.605682e+00	-2.134720e+00	5.290388e-01
2.036009019e-05	-1.332323e+00	8.365354e-01	-1.606037e+00	-2.135341e+00	5.293043e-01
2.036203521e-05	-1.332765e+00	8.367090e-01	-1.606391e+00	-2.135960e+00	5.295693e-01
2.036398022e-05	-1.333207e+00	8.368828e-01	-1.606745e+00	-2.136579e+00	5.298344e-01
2.036592524e-05	-1.333649e+00	8.370566e-01	-1.607099e+00	-2.137199e+00	5.300996e-01
2.036787025e-05	-1.334092e+00	8.372304e-01	-1.607454e+00	-2.137819e+00	5.303650e-01
2.036981527e-05	-1.334532e+00	8.374034e-01	-1.607806e+00	-2.138435e+00	5.306291e-01
2.037176028e-05	-1.334976e+00	8.375776e-01	-1.608161e+00	-2.139057e+00	5.308951e-01
2.03737053e-05	-1.335418e+00	8.377514e-01	-1.608516e+00	-2.139676e+00	5.311606e-01
2.037565031e-05	-1.335861e+00	8.379253e-01	-1.608870e+00	-2.140296e+00	5.314262e-01
2.037759533e-05	-1.336302e+00	8.380982e-01	-1.609223e+00	-2.140913e+00	5.316906e-01
2.037954034e-05	-1.336746e+00	8.382725e-01	-1.609578e+00	-2.141535e+00	5.319570e-01
2.038148535e-05	-1.337189e+00	8.384464e-01	-1.609933e+00	-2.142155e+00	5.322228e-01
2.038343037e-05	-1.337632e+00	8.386203e-01	-1.610287e+00	-2.142776e+00	5.324888e-01
2.038537538e-05	-1.338073e+00	8.387933e-01	-1.610640e+00	-2.143393e+00	5.327535e-01
2.03873204e-05	-1.338518e+00	8.389677e-01	-1.610995e+00	-2.144016e+00	5.330203e-01
2.038926541e-05	-1.338961e+00	8.391416e-01	-1.611350e+00	-2.144636e+00	5.332864e-01
2.039121043e-05	-1.339403e+00	8.393148e-01	-1.611703e+00	-2.145254e+00	5.335515e-01
2.039315544e-05	-1.339848e+00	8.394892e-01	-1.612059e+00	-2.145877e+00	5.338185e-01
2.039510046e-05	-1.340292e+00	8.396632e-01	-1.612413e+00	-2.146498e+00	5.340849e-01
2.039704547e-05	-1.340734e+00	8.398364e-01	-1.612767e+00	-2.147117e+00	5.343503e-01
2.039899049e-05	-1.341179e+00	8.400109e-01	-1.613122e+00	-2.147740e+00	5.346176e-01
2.04009355e-05	-1.341623e+00	8.401849e-01	-1.613477e+00	-2.148361e+00	5.348843e-01
2.040288051e-05	-1.342065e+00	8.403582e-01	-1.613830e+00	-2.148980e+00	5.351499e-01
2.040482553e-05	-1.342511e+00	8.405328e-01	-1.614186e+00	-2.149604e+00	5.354175e-01
2.040677054e-05	-1.342955e+00	8.407069e-01	-1.614541e+00	-2.150226e+00	5.356844e-01
2.040871556e-05	-1.343398e+00	8.408802e-01	-1.614895e+00	-2.150845e+00	5.359504e-01
2.041066057e-05	-1.343844e+00	8.410548e-01	-1.615251e+00	-2.151469e+00	5.362182e-01
2.041260559e-05	-1.344288e+00	8.412290e-01	-1.615606e+00	-2.152091e+00	5.364854e-01
2.04145506e-05	-1.344731e+00	8.414024e-01	-1.615960e+00	-2.152711e+00	5.367517e-01
2.041649562e-05	-1.345178e+00	8.415771e-01	-1.616316e+00	-2.153336e+00	5.370197e-01
2.041844063e-05	-1.345621e+00	8.417506e-01	-1.616669e+00	-2.153955e+00	5.372861e-01
2.042038565e-05	-1.346068e+00	8.419255e-01	-1.617026e+00	-2.154581e+00	5.375546e-01
2.042233066e-05	-1.346513e+00	8.420998e-01	-1.617382e+00	-2.155204e+00	5.378224e-01
2.042427568e-05	-1.346957e+00	8.422735e-01	-1.617736e+00	-2.155825e+00	5.380892e-01
2.042622069e-05	-1.347404e+00	8.424482e-01	-1.618092e+00	-2.156450e+00	5.383577e-01
2.04281657e-05	-1.347847e+00	8.426217e-01	-1.618446e+00	-2.157070e+00	5.386244e-01
2.043011072e-05	-1.348294e+00	8.427966e-01	-1.618802e+00	-2.157696e+00	5.388933e-01
2.043205573e-05	-1.348738e+00	8.429701e-01	-1.619156e+00	-2.158316e+00	5.391601e-01
2.043400075e-05	-1.349186e+00	8.431451e-01	-1.619513e+00	-2.158942e+00	5.394291e-01
2.043594576e-05	-1.349629e+00	8.433186e-01	-1.619867e+00	-2.159563e+00	5.396962e-01
2.043789078e-05	-1.350077e+00	8.434936e-01	-1.620223e+00	-2.160189e+00	5.399653e-01
2.043983579e-05	-1.350521e+00	8.436671e-01	-1.620577e+00	-2.160810e+00	5.402325e-01
2.044178081e-05	-1.350969e+00	8.438421e-01	-1.620934e+00	-2.161436e+00	5.405019e-01
2.044372582e-05	-1.351413e+00	8.440157e-01	-1.621288e+00	-2.162057e+00	5.407692e-01
2.044567084e-05	-1.351861e+00	8.441907e-01	-1.621645e+00	-2.162684e+00	5.410387e-01
2.044761585e-05	-1.352306e+00	8.443644e-01	-1.621999e+00	-2.163305e+00	5.413063e-01
2.044956087e-05	-1.352754e+00	8.445394e-01	-1.622356e+00	-2.163932e+00	5.415759e-01
2.045150588e-05	-1.353199e+00	8.447131e-01	-1.622710e+00	-2.164554e+00	5.418436e-01
2.045345089e-05	-1.353647e+00	8.448882e-01	-1.623067e+00	-2.165181e+00	5.421135e-01
2.045539591e-05	-1.354092e+00	8.450619e-01	-1.623421e+00	-2.165803e+00	5.423814e-01
2.045734092e-05	-1.354541e+00	8.452370e-01	-1.623779e+00	-2.166430e+00	5.426514e-01
2.045928594e-05	-1.354986e+00	8.454108e-01	-1.624133e+00	-2.167052e+00	5.429195e-01
2.046123095e-05	-1.355435e+00	8.455859e-01	-1.624490e+00	-2.167680e+00	5.431897e-01
2.046317597e-05	-1.355880e+00	8.457597e-01	-1.624845e+00	-2.168302e+00	5.434579e-01
2.046512098e-05	-1.356329e+00	8.459349e-01	-1.625202e+00	-2.168930e+00	5.437283e-01
2.0467066e-05	-1.356775e+00	8.461088e-01	-1.625556e+00	-2.169553e+00	5.439967e-01
2.046901101e-05	-1.357224e+00	8.462840e-01	-1.625914e+00	-2.170181e+00	5.442673e-01
2.047095603e-05	-1.357670e+00	8.464579e-01	-1.626268e+00	-2.170804e+00	5.445359e-01
2.047290104e-05	-1.358120e+00	8.466332e-01	-1.626626e+00	-2.171433e+00	5.448066e-01
2.047484606e-05	-1.358566e+00	8.468072e-01	-1.626981e+00	-2.172056e+00	5.450756e-01
2.047679107e-05	-1.359016e+00	8.469826e-01	-1.627339e+00	-2.172685e+00	5.453466e-01
2.047873608e-05	-1.359462e+00	8.471567e-01	-1.627693e+00	-2.173309e+00	5.456157e-01
2.04806811e-05	-1.359910e+00	8.473313e-01	-1.628050e+00	-2.173935e+00	5.458857e-01
2.048262611e-05	-1.360360e+00	8.475065e-01	-1.628407e+00	-2.174563e+00	5.461566e-01
2.048457113e-05	-1.360807e+00	8.476806e-01	-1.628762e+00	-2.175188e+00	5.464259e-01
2.048651614e-05	-1.361257e+00	8.478560e-01	-1.629120e+00	-2.175817e+00	5.466972e-01
2.048846116e-05	-1.361704e+00	8.480301e-01	-1.629475e+00	-2.176441e+00	5.469666e-01
2.049040617e-05	-1.362152e+00	8.482047e-01	-1.629831e+00	-2.177068e+00	5.472369e-01
2.049235119e-05	-1.362602e+00	8.483800e-01	-1.630188e+00	-2.177697e+00	5.475083e-01
2.04942962e-05	-1.363050e+00	8.485542e-01	-1.630543e+00	-2.178322e+00	5.477781e-01
2.049624122e-05	-1.363500e+00	8.487296e-01	-1.630901e+00	-2.178951e+00	5.480497e-01
2.049818623e-05	-1.363948e+00	8.489037e-01	-1.631256e+00	-2.179576e+00	5.483195e-01
2.050013125e-05	-1.364396e+00	8.490784e-01	-1.631613e+00	-2.180203e+00	5.485902e-01
2.050207626e-05	-1.364847e+00	8.492537e-01	-1.631970e+00	-2.180832e+00	5.488620e-01
2.050402127e-05	-1.365295e+00	8.494280e-01	-1.632326e+00	-2.181458e+00	5.491321e-01
2.050596629e-05	-1.365746e+00	8.496035e-01	-1.632684e+00	-2.182088e+00	5.494042e-01
2.05079113e-05	-1.366194e+00	8.497777e-01	-1.633039e+00	-2.182713e+00	5.496744e-01
2.050985632e-05	-1.366643e+00	8.499524e-01	-1.633395e+00	-2.183341e+00	5.499455e-01
2.051180133e-05	-1.367094e+00	8.501279e-01	-1.633753e+00	-2.183971e+00	5.502178e-01
2.051374635e-05	-1.367543e+00	8.503022e-01	-1.634109e+00	-2.184597e+00	5.504883e-01
2.051569136e-05	-1.367994e+00	8.504778e-01	-1.634467e+00	-2.185228e+00	5.507608e-01
2.051763638e-05	-1.368443e+00	8.506520e-01	-1.634822e+00	-2.185854e+00	5.510315e-01
2.051958139e-05	-1.368892e+00	8.508268e-01	-1.635179e+00	-2.186482e+00	5.513030e-01
2.052152641e-05	-1.369344e+00	8.510024e-01	-1.635537e+00	-2.187113e+00	5.515757e-01
2.052347142e-05	-1.369793e+00	8.511768e-01	-1.635893e+00	-2.187740e+00	5.518467e-01
2.052541644e-05	-1.370245e+00	8.513525e-01	-1.636251e+00	-2.188371e+00	5.521196e-01
2.052736145e-05	-1.370694e+00	8.515268e-01	-1.636607e+00	-2.188998e+00	5.523907e-01
2.052930646e-05	-1.371145e+00	8.517019e-01	-1.636964e+00	-2.189627e+00	5.526628e-01
2.053125148e-05	-1.371597e+00	8.518776e-01	-1.637322e+00	-2.190258e+00	5.529360e-01
2.053319649e-05	-1.372047e+00	8.520522e-01	-1.637679e+00	-2.190886e+00	5.532076e-01
2.053514151e-05	-1.372500e+00	8.522281e-01	-1.638037e+00	-2.191519e+00	5.534811e-01
2.053708652e-05	-1.372949e+00	8.524026e-01	-1.638393e+00	-2.192146e+00	5.537527e-01
2.053903154e-05	-1.373400e+00	8.525775e-01	-1.638750e+00	-2.192775e+00	5.540249e-01
2.054097655e-05	-1.373853e+00	8.527532e-01	-1.639109e+00	-2.193407e+00	5.542984e-01
2.054292157e-05	-1.374303e+00	8.529278e-01	-1.639465e+00	-2.194035e+00	5.545703e-01
2.054486658e-05	-1.374756e+00	8.531036e-01	-1.639823e+00	-2.194667e+00	5.548441e-01
2.05468116e-05	-1.375206e+00	8.532781e-01	-1.640179e+00	-2.195295e+00	5.551159e-01
2.054875661e-05	-1.375657e+00	8.534532e-01	-1.640536e+00	-2.195925e+00	5.553887e-01
2.055070163e-05	-1.376110e+00	8.536289e-01	-1.640895e+00	-2.196558e+00	5.556626e-01
2.055264664e-05	-1.376560e+00	8.538035e-01	-1.641251e+00	-2.197186e+00	5.559348e-01
2.055459165e-05	-1.377014e+00	8.539794e-01	-1.641610e+00	-2.197819e+00	5.562089e-01
2.055653667e-05	-1.377464e+00	8.541539e-01	-1.641966e+00	-2.198447e+00	5.564811e-01
2.055848168e-05	-1.377918e+00	8.543298e-01	-1.642325e+00	-2.199080e+00	5.567554e-01
2.05604267e-05	-1.378368e+00	8.545044e-01	-1.642681e+00	-2.199709e+00	5.570278e-01
2.056237171e-05	-1.378822e+00	8.546803e-01	-1.643040e+00	-2.200342e+00	5.573023e-01
2.056431673e-05	-1.379273e+00	8.548548e-01	-1.643396e+00	-2.200971e+00	5.575748e-01
2.056626174e-05	-1.379727e+00	8.550308e-01	-1.643755e+00	-2.201604e+00	5.578494e-01
2.056820676e-05	-1.380178e+00	8.552053e-01	-1.644111e+00	-2.202233e+00	5.581221e-01
2.057015177e-05	-1.380632e+00	8.553813e-01	-1.644470e+00	-2.202867e+00	5.583969e-01
2.057209679e-05	-1.381083e+00	8.555559e-01	-1.644826e+00	-2.203496e+00	5.586697e-01
2.05740418e-05	-1.381537e+00	8.557319e-01	-1.645186e+00	-2.204130e+00	5.589447e-01
2.057598682e-05	-1.381989e+00	8.559065e-01	-1.645542e+00	-2.204759e+00	5.592177e-01
2.057793183e-05	-1.382443e+00	8.560826e-01	-1.645901e+00	-2.205394e+00	5.594928e-01
2.057987684e-05	-1.382895e+00	8.562572e-01	-1.646257e+00	-2.206023e+00	5.597660e-01
2.058182186e-05	-1.383350e+00	8.564333e-01	-1.646617e+00	-2.206658e+00	5.600413e-01
2.058376687e-05	-1.383801e+00	8.566081e-01	-1.646973e+00	-2.207288e+00	5.603147e-01
2.058571189e-05	-1.384257e+00	8.567843e-01	-1.647333e+00	-2.207923e+00	5.605903e-01
2.05876569e-05	-1.384709e+00	8.569591e-01	-1.647690e+00	-2.208553e+00	5.608639e-01
2.058960192e-05	-1.385164e+00	8.571353e-01	-1.648049e+00	-2.209189e+00	5.611397e-01
2.059154693e-05	-1.385617e+00	8.573102e-01	-1.648406e+00	-2.209820e+00	5.614136e-01
2.059349195e-05	-1.386072e+00	8.574864e-01	-1.648766e+00	-2.210455e+00	5.616894e-01
2.059543696e-05	-1.386524e+00	8.576611e-01	-1.649122e+00	-2.211085e+00	5.619631e-01
2.059738198e-05	-1.386980e+00	8.578373e-01	-1.649482e+00	-2.211721e+00	5.622391e-01
2.059932699e-05	-1.387432e+00	8.580121e-01	-1.649838e+00	-2.212351e+00	5.625130e-01
2.060127201e-05	-1.387888e+00	8.581883e-01	-1.650198e+00	-2.212987e+00	5.627891e-01
2.060321702e-05	-1.388340e+00	8.583631e-01	-1.650554e+00	-2.213618e+00	5.630632e-01
2.060516203e-05	-1.388796e+00	8.585393e-01	-1.650914e+00	-2.214254e+00	5.633395e-01
2.060710705e-05	-1.389249e+00	8.587142e-01	-1.651271e+00	-2.214884e+00	5.636137e-01
2.060905206e-05	-1.389705e+00	8.588904e-01	-1.651630e+00	-2.215521e+00	5.638901e-01
2.061099708e-05	-1.390158e+00	8.590652e-01	-1.651987e+00	-2.216152e+00	5.641645e-01
2.061294209e-05	-1.390614e+00	8.592415e-01	-1.652347e+00	-2.216788e+00	5.644411e-01
2.061488711e-05	-1.391067e+00	8.594163e-01	-1.652704e+00	-2.217419e+00	5.647156e-01
2.061683212e-05	-1.391524e+00	8.595926e-01	-1.653063e+00	-2.218056e+00	5.649923e-01
2.061877714e-05	-1.391977e+00	8.597674e-01	-1.653420e+00	-2.218687e+00	5.652670e-01
2.062072215e-05	-1.392434e+00	8.599437e-01	-1.653780e+00	-2.219324e+00	5.655438e-01
2.062266717e-05	-1.392887e+00	8.601186e-01	-1.654137e+00	-2.219956e+00	5.658186e-01
2.062461218e-05	-1.393344e+00	8.602949e-01	-1.654497e+00	-2.220592e+00	5.660956e-01
2.06265572e-05	-1.393800e+00	8.604706e-01	-1.654855e+00	-2.221227e+00	5.663719e-01
2.062850221e-05	-1.394253e+00	8.606457e-01	-1.655213e+00	-2.221860e+00	5.666471e-01
2.063044722e-05	-1.394710e+00	8.608219e-01	-1.655572e+00	-2.222497e+00	5.669242e-01
2.063239224e-05	-1.395164e+00	8.609969e-01	-1.655929e+00	-2.223129e+00	5.671994e-01
2.063433725e-05	-1.395621e+00	8.611732e-01	-1.656289e+00	-2.223766e+00	5.674768e-01
2.063628227e-05	-1.396078e+00	8.613490e-01	-1.656648e+00	-2.224402e+00	5.677534e-01
2.063822728e-05	-1.396532e+00	8.615241e-01	-1.657006e+00	-2.225035e+00	5.680290e-01
2.06401723e-05	-1.396990e+00	8.617005e-01	-1.657366e+00	-2.225672e+00	5.683067e-01
2.064211731e-05	-1.397446e+00	8.618764e-01	-1.657725e+00	-2.226308e+00	5.685836e-01
2.064406233e-05	-1.397901e+00	8.620516e-01	-1.658082e+00	-2.226942e+00	5.688596e-01
2.064600734e-05	-1.398359e+00	8.622281e-01	-1.658443e+00	-2.227580e+00	5.691375e-01
2.064795236e-05	-1.398816e+00	8.624041e-01	-1.658802e+00	-2.228217e+00	5.694148e-01
2.064989737e-05	-1.399271e+00	8.625792e-01	-1.659159e+00	-2.228850e+00	5.696908e-01
2.065184238e-05	-1.399728e+00	8.627556e-01	-1.659519e+00	-2.229488e+00	5.699687e-01
2.06537874e-05	-1.400185e+00	8.629315e-01	-1.659878e+00	-2.230124e+00	5.702460e-01
2.065573241e-05	-1.400642e+00	8.631074e-01	-1.660238e+00	-2.230761e+00	5.705235e-01
2.065767743e-05	-1.401097e+00	8.632825e-01	-1.660595e+00	-2.231395e+00	5.707997e-01
2.065962244e-05	-1.401555e+00	8.634589e-01	-1.660955e+00	-2.232033e+00	5.710779e-01
2.066156746e-05	-1.402012e+00	8.636348e-01	-1.661314e+00	-2.232670e+00	5.713555e-01
2.066351247e-05	-1.402470e+00	8.638108e-01	-1.661673e+00	-2.233307e+00	5.716332e-01
2.066545749e-05	-1.402925e+00	8.639859e-01	-1.662031e+00	-2.233940e+00	5.719097e-01
2.06674025e-05	-1.403384e+00	8.641623e-01	-1.662391e+00	-2.234579e+00	5.721882e-01
2.066934752e-05	-1.403841e+00	8.643382e-01	-1.662750e+00	-2.235216e+00	5.724660e-01
2.067129253e-05	-1.404299e+00	8.645142e-01	-1.663109e+00	-2.235853e+00	5.727440e-01
2.067323755e-05	-1.404756e+00	8.646901e-01	-1.663468e+00	-2.236490e+00	5.730220e-01
2.067518256e-05	-1.405214e+00	8.648660e-01	-1.663828e+00	-2.237128e+00	5.733000e-01
2.067712757e-05	-1.405671e+00	8.650419e-01	-1.664187e+00	-2.237765e+00	5.735781e-01
2.067907259e-05	-1.406129e+00	8.652178e-01	-1.664546e+00	-2.238402e+00	5.738562e-01
2.06810176e-05	-1.406587e+00	8.653937e-01	-1.664905e+00	-2.239040e+00	5.741345e-01
2.068296262e-05	-1.407045e+00	8.655696e-01	-1.665264e+00	-2.239677e+00	5.744127e-01
2.068490763e-05	-1.407503e+00	8.657456e-01	-1.665623e+00	-2.240315e+00	5.746911e-01