/*--------------------------------*- C++ -*----------------------------------*\
| =========                 |                                                 |
| \\      /  F ield         | OpenFOAM: The Open Source CFD Toolbox           |
|  \\    /   O peration     | Version:  v1706                                 |
|   \\  /    A nd           | Web:      www.OpenFOAM.com                      |
|    \\/     M anipulation  |                                                 |
\*---------------------------------------------------------------------------*/
FoamFile
{
    version     2.0;
    format      ascii;
    class       volScalarField;
    location    "3.6e-05";
    object      kappave;
}
// * * * * * * * * * * * * * * * * * * * * * * * * * * * * * * * * * * * * * //

dimensions      [1 1 -3 -1 0 0 0];


internalField   nonuniform List<scalar> 
29871
(
1.4748e-10
1.47677e-10
1.47895e-10
1.48136e-10
1.48403e-10
1.48701e-10
1.49039e-10
1.49424e-10
1.49858e-10
1.50344e-10
1.50881e-10
1.51466e-10
1.52095e-10
1.52768e-10
1.53497e-10
1.54304e-10
1.55202e-10
1.56188e-10
1.57248e-10
1.58367e-10
1.59532e-10
1.60733e-10
1.61956e-10
1.6319e-10
1.64419e-10
1.65632e-10
1.66826e-10
1.68024e-10
1.6939e-10
1.71077e-10
1.72993e-10
1.75024e-10
1.77079e-10
1.79093e-10
1.8102e-10
1.82834e-10
1.84518e-10
1.86067e-10
1.87483e-10
1.88774e-10
1.89945e-10
1.91002e-10
1.9195e-10
1.92789e-10
1.93519e-10
1.94141e-10
1.9466e-10
1.95079e-10
1.95404e-10
1.95641e-10
1.95798e-10
1.9589e-10
1.9589e-10
1.9585e-10
1.95773e-10
1.95673e-10
1.95525e-10
1.95347e-10
1.95155e-10
1.94944e-10
1.94712e-10
1.94463e-10
1.94196e-10
1.93912e-10
1.93617e-10
1.93312e-10
1.92986e-10
1.92647e-10
1.92305e-10
1.91951e-10
1.9158e-10
1.91197e-10
1.90805e-10
1.90399e-10
1.89983e-10
1.89558e-10
1.89123e-10
1.88677e-10
1.88225e-10
1.87767e-10
1.87302e-10
1.86832e-10
1.86354e-10
1.85866e-10
1.85367e-10
1.84854e-10
1.84327e-10
1.83787e-10
1.83234e-10
1.82672e-10
1.82101e-10
1.81522e-10
1.80938e-10
1.80348e-10
1.79753e-10
1.79151e-10
1.78542e-10
1.77926e-10
1.77301e-10
1.76669e-10
1.76026e-10
1.75374e-10
1.74708e-10
1.74027e-10
1.73327e-10
1.5462e-10
1.55741e-10
1.56974e-10
1.58321e-10
1.59796e-10
1.61427e-10
1.63239e-10
1.65239e-10
1.67415e-10
1.69746e-10
1.72207e-10
1.74769e-10
1.77407e-10
1.80107e-10
1.82892e-10
1.85952e-10
1.89381e-10
1.93107e-10
1.97022e-10
2.01011e-10
2.04972e-10
2.08814e-10
2.12469e-10
2.15885e-10
2.19032e-10
2.21891e-10
2.24462e-10
2.26751e-10
2.2874e-10
2.30412e-10
2.31788e-10
2.32896e-10
2.33767e-10
2.34428e-10
2.34908e-10
2.35233e-10
2.35439e-10
2.35569e-10
2.35656e-10
2.35722e-10
2.35777e-10
2.35826e-10
2.35869e-10
2.35906e-10
2.35923e-10
2.35912e-10
2.35881e-10
2.3583e-10
2.35749e-10
2.35632e-10
2.35479e-10
2.35292e-10
2.35069e-10
2.34816e-10
2.34542e-10
2.34241e-10
2.33925e-10
2.33617e-10
2.3329e-10
2.32953e-10
2.32614e-10
2.32277e-10
2.31942e-10
2.31606e-10
2.3127e-10
2.30939e-10
2.30605e-10
2.30279e-10
2.29956e-10
2.29634e-10
2.2931e-10
2.28991e-10
2.28666e-10
2.28338e-10
2.28017e-10
2.27692e-10
2.27363e-10
2.27034e-10
2.26706e-10
2.26376e-10
2.26043e-10
2.2571e-10
2.25376e-10
2.25039e-10
2.247e-10
2.24359e-10
2.24019e-10
2.23682e-10
2.2335e-10
2.23022e-10
2.22699e-10
2.2238e-10
2.22063e-10
2.21748e-10
2.21434e-10
2.2112e-10
2.20806e-10
2.20492e-10
2.20176e-10
2.19859e-10
2.19541e-10
2.19219e-10
2.18895e-10
2.18565e-10
2.18228e-10
1.70656e-10
1.73494e-10
1.76514e-10
1.79687e-10
1.82992e-10
1.86437e-10
1.90159e-10
1.94275e-10
1.98724e-10
2.03393e-10
2.0815e-10
2.12865e-10
2.17428e-10
2.21751e-10
2.25773e-10
2.2945e-10
2.32723e-10
2.35577e-10
2.38044e-10
2.40163e-10
2.41979e-10
2.43536e-10
2.44867e-10
2.45997e-10
2.46937e-10
2.47694e-10
2.4827e-10
2.48682e-10
2.48965e-10
2.49152e-10
2.49269e-10
2.4932e-10
2.49306e-10
2.49254e-10
2.49147e-10
2.48973e-10
2.48726e-10
2.48412e-10
2.4805e-10
2.47662e-10
2.47261e-10
2.46857e-10
2.46459e-10
2.46074e-10
2.45706e-10
2.45357e-10
2.45026e-10
2.44712e-10
2.44414e-10
2.44126e-10
2.43844e-10
2.43561e-10
2.43271e-10
2.42972e-10
2.42659e-10
2.42332e-10
2.41988e-10
2.41628e-10
2.41255e-10
2.40872e-10
2.4048e-10
2.40077e-10
2.39667e-10
2.39255e-10
2.38852e-10
2.38415e-10
2.38002e-10
2.37626e-10
2.37217e-10
2.36781e-10
2.36391e-10
2.36024e-10
2.35626e-10
2.3523e-10
2.34869e-10
2.34509e-10
2.34146e-10
2.33799e-10
2.33463e-10
2.33127e-10
2.32794e-10
2.32468e-10
2.32148e-10
2.31829e-10
2.31511e-10
2.31198e-10
2.30889e-10
2.30585e-10
2.30287e-10
2.29994e-10
2.29708e-10
2.2943e-10
2.29159e-10
2.28896e-10
2.28641e-10
2.28395e-10
2.28156e-10
2.27927e-10
2.27706e-10
2.27494e-10
2.27291e-10
2.27097e-10
2.26912e-10
2.26736e-10
2.26569e-10
2.2641e-10
2.05708e-10
2.10837e-10
2.1594e-10
2.20892e-10
2.25594e-10
2.29967e-10
2.3393e-10
2.37438e-10
2.40502e-10
2.43149e-10
2.45417e-10
2.47344e-10
2.48972e-10
2.50336e-10
2.51465e-10
2.52383e-10
2.53107e-10
2.53654e-10
2.54045e-10
2.54308e-10
2.54487e-10
2.54619e-10
2.54732e-10
2.54836e-10
2.54932e-10
2.55014e-10
2.55029e-10
2.54998e-10
2.54916e-10
2.54792e-10
2.54637e-10
2.5446e-10
2.54265e-10
2.54064e-10
2.53868e-10
2.53684e-10
2.53506e-10
2.53314e-10
2.53082e-10
2.52802e-10
2.52479e-10
2.52123e-10
2.51744e-10
2.51354e-10
2.5096e-10
2.50569e-10
2.50187e-10
2.49816e-10
2.49459e-10
2.49117e-10
2.48788e-10
2.48467e-10
2.48151e-10
2.47835e-10
2.47511e-10
2.47177e-10
2.46827e-10
2.46458e-10
2.46069e-10
2.45661e-10
2.45235e-10
2.44792e-10
2.44331e-10
2.43858e-10
2.43392e-10
2.42886e-10
2.42395e-10
2.41943e-10
2.41457e-10
2.40934e-10
2.40457e-10
2.40004e-10
2.39524e-10
2.3904e-10
2.38593e-10
2.3815e-10
2.37708e-10
2.37287e-10
2.36878e-10
2.3647e-10
2.36068e-10
2.35677e-10
2.35295e-10
2.34916e-10
2.34541e-10
2.34174e-10
2.33815e-10
2.33462e-10
2.33112e-10
2.32767e-10
2.32428e-10
2.32097e-10
2.31776e-10
2.31465e-10
2.31163e-10
2.30873e-10
2.30594e-10
2.30328e-10
2.30074e-10
2.29834e-10
2.29608e-10
2.29396e-10
2.292e-10
2.29019e-10
2.28857e-10
2.28713e-10
2.41467e-10
2.4445e-10
2.47007e-10
2.49182e-10
2.51018e-10
2.5256e-10
2.53843e-10
2.54898e-10
2.55753e-10
2.56432e-10
2.56958e-10
2.57351e-10
2.57642e-10
2.57865e-10
2.58046e-10
2.58199e-10
2.58329e-10
2.58431e-10
2.58495e-10
2.58495e-10
2.58453e-10
2.58365e-10
2.58248e-10
2.58118e-10
2.57992e-10
2.57885e-10
2.57814e-10
2.57782e-10
2.57779e-10
2.57767e-10
2.57719e-10
2.57626e-10
2.5749e-10
2.57321e-10
2.57131e-10
2.56934e-10
2.56745e-10
2.56579e-10
2.56427e-10
2.56266e-10
2.56079e-10
2.55858e-10
2.556e-10
2.55309e-10
2.54991e-10
2.54654e-10
2.54303e-10
2.53945e-10
2.53587e-10
2.5323e-10
2.52879e-10
2.52536e-10
2.52198e-10
2.51865e-10
2.51536e-10
2.51204e-10
2.50867e-10
2.5052e-10
2.50161e-10
2.49784e-10
2.4939e-10
2.48976e-10
2.48542e-10
2.48089e-10
2.47615e-10
2.47132e-10
2.46628e-10
2.46109e-10
2.4562e-10
2.45113e-10
2.44546e-10
2.44015e-10
2.43521e-10
2.42977e-10
2.42429e-10
2.41916e-10
2.41395e-10
2.40882e-10
2.40408e-10
2.3994e-10
2.39459e-10
2.38981e-10
2.38532e-10
2.38092e-10
2.37652e-10
2.37213e-10
2.36785e-10
2.36371e-10
2.35966e-10
2.35569e-10
2.3518e-10
2.34802e-10
2.34433e-10
2.34075e-10
2.33727e-10
2.3339e-10
2.33067e-10
2.32756e-10
2.32459e-10
2.32176e-10
2.31908e-10
2.31655e-10
2.31417e-10
2.31196e-10
2.30992e-10
2.30807e-10
2.30645e-10
2.57925e-10
2.58597e-10
2.59119e-10
2.59513e-10
2.59815e-10
2.60059e-10
2.60266e-10
2.60444e-10
2.60596e-10
2.60719e-10
2.60808e-10
2.6084e-10
2.60835e-10
2.60804e-10
2.60753e-10
2.60697e-10
2.60641e-10
2.60592e-10
2.60555e-10
2.60534e-10
2.60521e-10
2.60493e-10
2.60432e-10
2.60335e-10
2.60221e-10
2.60103e-10
2.59999e-10
2.59925e-10
2.59902e-10
2.59906e-10
2.59909e-10
2.59893e-10
2.59849e-10
2.59775e-10
2.59674e-10
2.59555e-10
2.59427e-10
2.59301e-10
2.59193e-10
2.59109e-10
2.59037e-10
2.58958e-10
2.58864e-10
2.58748e-10
2.58608e-10
2.58445e-10
2.58259e-10
2.58055e-10
2.57839e-10
2.57611e-10
2.57374e-10
2.57136e-10
2.56894e-10
2.56644e-10
2.56394e-10
2.56139e-10
2.55871e-10
2.55592e-10
2.55298e-10
2.54982e-10
2.54643e-10
2.54281e-10
2.5389e-10
2.53469e-10
2.53021e-10
2.52545e-10
2.52045e-10
2.51514e-10
2.50976e-10
2.50446e-10
2.49858e-10
2.49253e-10
2.48666e-10
2.48068e-10
2.47468e-10
2.46855e-10
2.46206e-10
2.45599e-10
2.45024e-10
2.44458e-10
2.43852e-10
2.43247e-10
2.42691e-10
2.4215e-10
2.41593e-10
2.41029e-10
2.40491e-10
2.39975e-10
2.39465e-10
2.38962e-10
2.38475e-10
2.38004e-10
2.37545e-10
2.37098e-10
2.36666e-10
2.36248e-10
2.35847e-10
2.35462e-10
2.35093e-10
2.34742e-10
2.34409e-10
2.34094e-10
2.33799e-10
2.33523e-10
2.33268e-10
2.33035e-10
2.32826e-10
2.61851e-10
2.6208e-10
2.62276e-10
2.62441e-10
2.62574e-10
2.6267e-10
2.62714e-10
2.62721e-10
2.62708e-10
2.62684e-10
2.62658e-10
2.62638e-10
2.62623e-10
2.62622e-10
2.62636e-10
2.62656e-10
2.6266e-10
2.62636e-10
2.62598e-10
2.62541e-10
2.62484e-10
2.62437e-10
2.62417e-10
2.62423e-10
2.6244e-10
2.62452e-10
2.62451e-10
2.62434e-10
2.62405e-10
2.62379e-10
2.62362e-10
2.6238e-10
2.62438e-10
2.62533e-10
2.62652e-10
2.62777e-10
2.62896e-10
2.63002e-10
2.63096e-10
2.63177e-10
2.63254e-10
2.63337e-10
2.63437e-10
2.63565e-10
2.63707e-10
2.63854e-10
2.64e-10
2.64139e-10
2.64262e-10
2.64364e-10
2.64444e-10
2.64507e-10
2.6455e-10
2.6457e-10
2.64579e-10
2.64574e-10
2.64546e-10
2.64499e-10
2.64442e-10
2.64357e-10
2.64241e-10
2.64102e-10
2.63927e-10
2.63708e-10
2.63453e-10
2.63154e-10
2.62802e-10
2.62397e-10
2.61952e-10
2.61454e-10
2.60907e-10
2.60319e-10
2.59712e-10
2.59073e-10
2.58352e-10
2.57623e-10
2.56899e-10
2.56189e-10
2.55385e-10
2.54527e-10
2.53735e-10
2.52966e-10
2.52213e-10
2.51375e-10
2.50539e-10
2.49765e-10
2.49021e-10
2.48244e-10
2.47445e-10
2.46691e-10
2.45974e-10
2.45253e-10
2.44536e-10
2.43857e-10
2.432e-10
2.42555e-10
2.41926e-10
2.41323e-10
2.40744e-10
2.40185e-10
2.39648e-10
2.39135e-10
2.38646e-10
2.38181e-10
2.37742e-10
2.37327e-10
2.36939e-10
2.36577e-10
2.36243e-10
2.35937e-10
2.64471e-10
2.64465e-10
2.64455e-10
2.64454e-10
2.64458e-10
2.64478e-10
2.64515e-10
2.64546e-10
2.64558e-10
2.64554e-10
2.64534e-10
2.6451e-10
2.64488e-10
2.64483e-10
2.64507e-10
2.64561e-10
2.64622e-10
2.64682e-10
2.64738e-10
2.64783e-10
2.64828e-10
2.64881e-10
2.64951e-10
2.65051e-10
2.65183e-10
2.65346e-10
2.65528e-10
2.65721e-10
2.65921e-10
2.66134e-10
2.66363e-10
2.66616e-10
2.66912e-10
2.6726e-10
2.67654e-10
2.6809e-10
2.68561e-10
2.69056e-10
2.69564e-10
2.7008e-10
2.70607e-10
2.71148e-10
2.71704e-10
2.72296e-10
2.72919e-10
2.73559e-10
2.74222e-10
2.74902e-10
2.75586e-10
2.76259e-10
2.76913e-10
2.77552e-10
2.78173e-10
2.78753e-10
2.79299e-10
2.79826e-10
2.80305e-10
2.80726e-10
2.81115e-10
2.81453e-10
2.81713e-10
2.8192e-10
2.8206e-10
2.82103e-10
2.8207e-10
2.81958e-10
2.81745e-10
2.81411e-10
2.81004e-10
2.80497e-10
2.79884e-10
2.7918e-10
2.78408e-10
2.77574e-10
2.76607e-10
2.75576e-10
2.74527e-10
2.73475e-10
2.72295e-10
2.71004e-10
2.69773e-10
2.68548e-10
2.67337e-10
2.66014e-10
2.64676e-10
2.63418e-10
2.62183e-10
2.60921e-10
2.59611e-10
2.58364e-10
2.57176e-10
2.55985e-10
2.54803e-10
2.5368e-10
2.52597e-10
2.51523e-10
2.50479e-10
2.49496e-10
2.48546e-10
2.47628e-10
2.46742e-10
2.45896e-10
2.45092e-10
2.44328e-10
2.43604e-10
2.42919e-10
2.42273e-10
2.41667e-10
2.41101e-10
2.40575e-10
2.66399e-10
2.66413e-10
2.66408e-10
2.66404e-10
2.66407e-10
2.66433e-10
2.6649e-10
2.66569e-10
2.66658e-10
2.66747e-10
2.66834e-10
2.66922e-10
2.67018e-10
2.6713e-10
2.67269e-10
2.67445e-10
2.67661e-10
2.67909e-10
2.68186e-10
2.68482e-10
2.68798e-10
2.69138e-10
2.69506e-10
2.69914e-10
2.70372e-10
2.70886e-10
2.71456e-10
2.72079e-10
2.72751e-10
2.73473e-10
2.74246e-10
2.75071e-10
2.75961e-10
2.76929e-10
2.77982e-10
2.79121e-10
2.80347e-10
2.81652e-10
2.83027e-10
2.84462e-10
2.8596e-10
2.87515e-10
2.89102e-10
2.90761e-10
2.92486e-10
2.94236e-10
2.96039e-10
2.97894e-10
2.99773e-10
3.01665e-10
3.03541e-10
3.05406e-10
3.07259e-10
3.09042e-10
3.10754e-10
3.1242e-10
3.14008e-10
3.15447e-10
3.16815e-10
3.18082e-10
3.19162e-10
3.20112e-10
3.2093e-10
3.21545e-10
3.21981e-10
3.22254e-10
3.22328e-10
3.22153e-10
3.21768e-10
3.21221e-10
3.20429e-10
3.19444e-10
3.18301e-10
3.16998e-10
3.15444e-10
3.1374e-10
3.11956e-10
3.10089e-10
3.08029e-10
3.05782e-10
3.0356e-10
3.01299e-10
2.99017e-10
2.96603e-10
2.94148e-10
2.91787e-10
2.89425e-10
2.87039e-10
2.84582e-10
2.82226e-10
2.79958e-10
2.77702e-10
2.75467e-10
2.73317e-10
2.71248e-10
2.69204e-10
2.67225e-10
2.65344e-10
2.63545e-10
2.61798e-10
2.60107e-10
2.58497e-10
2.56968e-10
2.55514e-10
2.54133e-10
2.52826e-10
2.5159e-10
2.50426e-10
2.49333e-10
2.48309e-10
2.68656e-10
2.6877e-10
2.68887e-10
2.6901e-10
2.69147e-10
2.69307e-10
2.69501e-10
2.6974e-10
2.70021e-10
2.70339e-10
2.70688e-10
2.71065e-10
2.71473e-10
2.71916e-10
2.72403e-10
2.72944e-10
2.73551e-10
2.74228e-10
2.74976e-10
2.75795e-10
2.76683e-10
2.77642e-10
2.78676e-10
2.79794e-10
2.81007e-10
2.82328e-10
2.83764e-10
2.85323e-10
2.87006e-10
2.88818e-10
2.90761e-10
2.92837e-10
2.95054e-10
2.97423e-10
2.99955e-10
3.02659e-10
3.05538e-10
3.08594e-10
3.1182e-10
3.15204e-10
3.18746e-10
3.22436e-10
3.26234e-10
3.30174e-10
3.34246e-10
3.3839e-10
3.42624e-10
3.46967e-10
3.51362e-10
3.55788e-10
3.60216e-10
3.6462e-10
3.68994e-10
3.73275e-10
3.77394e-10
3.81405e-10
3.85264e-10
3.88822e-10
3.92197e-10
3.95346e-10
3.98137e-10
4.00606e-10
4.02798e-10
4.046e-10
4.05985e-10
4.07026e-10
4.07673e-10
4.07835e-10
4.07464e-10
4.068e-10
4.0562e-10
4.04048e-10
4.02129e-10
3.99841e-10
3.9704e-10
3.9394e-10
3.90617e-10
3.87037e-10
3.83075e-10
3.78825e-10
3.74523e-10
3.70068e-10
3.65505e-10
3.60726e-10
3.55911e-10
3.51186e-10
3.46403e-10
3.41568e-10
3.36662e-10
3.31933e-10
3.2732e-10
3.22745e-10
3.18216e-10
3.13842e-10
3.09616e-10
3.05463e-10
3.01443e-10
2.97595e-10
2.939e-10
2.90338e-10
2.8688e-10
2.83577e-10
2.8044e-10
2.77458e-10
2.74627e-10
2.71941e-10
2.694e-10
2.67003e-10
2.64746e-10
2.62624e-10
2.72317e-10
2.72691e-10
2.73102e-10
2.7355e-10
2.74037e-10
2.7457e-10
2.75157e-10
2.75811e-10
2.76542e-10
2.77355e-10
2.7825e-10
2.79228e-10
2.80292e-10
2.81447e-10
2.827e-10
2.84063e-10
2.85549e-10
2.87174e-10
2.88948e-10
2.9088e-10
2.92977e-10
2.95246e-10
2.97695e-10
3.00334e-10
3.03178e-10
3.06242e-10
3.09544e-10
3.131e-10
3.16922e-10
3.21021e-10
3.25408e-10
3.30089e-10
3.35075e-10
3.40374e-10
3.46001e-10
3.51966e-10
3.58275e-10
3.64936e-10
3.71947e-10
3.79288e-10
3.86956e-10
3.94939e-10
4.03181e-10
4.11688e-10
4.20448e-10
4.29387e-10
4.38479e-10
4.4775e-10
4.57112e-10
4.6651e-10
4.75933e-10
4.85286e-10
4.94544e-10
5.03642e-10
5.1243e-10
5.20943e-10
5.29128e-10
5.36791e-10
5.43985e-10
5.5069e-10
5.56753e-10
5.62103e-10
5.66859e-10
5.70891e-10
5.74045e-10
5.76493e-10
5.7821e-10
5.78964e-10
5.78579e-10
5.77628e-10
5.75707e-10
5.73006e-10
5.69575e-10
5.65373e-10
5.60173e-10
5.54405e-10
5.481e-10
5.41202e-10
5.33533e-10
5.25416e-10
5.17075e-10
5.08328e-10
4.99292e-10
4.89846e-10
4.80412e-10
4.70986e-10
4.6139e-10
4.51648e-10
4.41905e-10
4.32439e-10
4.231e-10
4.13817e-10
4.04651e-10
3.95787e-10
3.87183e-10
3.78737e-10
3.70545e-10
3.6267e-10
3.55076e-10
3.47757e-10
3.40656e-10
3.33854e-10
3.27384e-10
3.21225e-10
3.15367e-10
3.09804e-10
3.04536e-10
2.99559e-10
2.94866e-10
2.90449e-10
2.78536e-10
2.79365e-10
2.80285e-10
2.81298e-10
2.82408e-10
2.83617e-10
2.84933e-10
2.86366e-10
2.8793e-10
2.89639e-10
2.9151e-10
2.93555e-10
2.95785e-10
2.98209e-10
3.00839e-10
3.03689e-10
3.06776e-10
3.10118e-10
3.13739e-10
3.17661e-10
3.21906e-10
3.26495e-10
3.31447e-10
3.36781e-10
3.42517e-10
3.48677e-10
3.55286e-10
3.62371e-10
3.69957e-10
3.78072e-10
3.86737e-10
3.95974e-10
4.058e-10
4.16229e-10
4.27274e-10
4.38949e-10
4.51267e-10
4.64234e-10
4.77853e-10
4.92123e-10
5.07024e-10
5.22528e-10
5.3862e-10
5.55227e-10
5.72303e-10
5.89823e-10
6.07689e-10
6.25807e-10
6.44179e-10
6.62689e-10
6.81201e-10
6.99716e-10
7.18071e-10
7.36149e-10
7.53891e-10
7.7108e-10
7.87632e-10
8.0351e-10
8.18474e-10
8.32419e-10
8.45372e-10
8.57154e-10
8.67543e-10
8.76714e-10
8.84532e-10
8.90719e-10
8.95499e-10
8.98939e-10
9.00551e-10
8.99953e-10
8.98345e-10
8.95074e-10
8.90244e-10
8.84001e-10
8.76284e-10
8.66779e-10
8.56219e-10
8.44498e-10
8.31596e-10
8.17255e-10
8.02216e-10
7.86551e-10
7.70034e-10
7.52821e-10
7.34954e-10
7.17121e-10
6.99025e-10
6.80581e-10
6.61783e-10
6.432e-10
6.24948e-10
6.0678e-10
5.88643e-10
5.70828e-10
5.53565e-10
5.36716e-10
5.20149e-10
5.0404e-10
4.88508e-10
4.73483e-10
4.58946e-10
4.44849e-10
4.31317e-10
4.18428e-10
4.06131e-10
3.944e-10
3.83233e-10
3.72634e-10
3.62604e-10
3.53134e-10
3.44205e-10
2.91404e-10
2.93284e-10
2.95342e-10
2.97592e-10
3.00049e-10
3.02724e-10
3.05632e-10
3.08791e-10
3.12219e-10
3.15941e-10
3.19984e-10
3.24373e-10
3.29135e-10
3.34295e-10
3.39881e-10
3.45919e-10
3.52438e-10
3.59472e-10
3.67056e-10
3.7523e-10
3.84033e-10
3.93506e-10
4.03688e-10
4.14616e-10
4.26329e-10
4.38864e-10
4.5226e-10
4.66559e-10
4.81802e-10
4.98031e-10
5.15282e-10
5.33591e-10
5.52987e-10
5.73492e-10
5.95123e-10
6.17893e-10
6.41811e-10
6.66877e-10
6.93084e-10
7.20421e-10
7.48854e-10
7.78326e-10
8.08793e-10
8.40161e-10
8.72305e-10
9.05169e-10
9.38597e-10
9.72397e-10
1.00652e-09
1.04078e-09
1.07495e-09
1.10896e-09
1.14259e-09
1.17558e-09
1.20783e-09
1.23909e-09
1.26905e-09
1.29768e-09
1.32469e-09
1.34974e-09
1.3729e-09
1.39394e-09
1.41246e-09
1.42864e-09
1.44237e-09
1.45328e-09
1.46152e-09
1.46737e-09
1.4698e-09
1.4685e-09
1.46541e-09
1.45957e-09
1.45078e-09
1.43946e-09
1.4256e-09
1.40876e-09
1.38989e-09
1.36883e-09
1.34563e-09
1.32002e-09
1.29325e-09
1.26503e-09
1.23533e-09
1.20406e-09
1.17211e-09
1.13988e-09
1.10683e-09
1.07315e-09
1.0389e-09
1.00517e-09
9.71654e-10
9.38123e-10
9.04546e-10
8.71721e-10
8.3977e-10
8.08422e-10
7.77522e-10
7.47424e-10
7.18341e-10
6.90113e-10
6.627e-10
6.36066e-10
6.105e-10
5.86107e-10
5.62774e-10
5.40442e-10
5.19112e-10
4.98812e-10
4.79557e-10
4.61342e-10
4.44139e-10
4.27907e-10
4.12603e-10
3.16702e-10
3.20691e-10
3.25029e-10
3.29744e-10
3.34866e-10
3.40426e-10
3.46454e-10
3.52982e-10
3.60047e-10
3.67689e-10
3.75951e-10
3.84879e-10
3.94523e-10
4.04932e-10
4.16156e-10
4.28246e-10
4.41257e-10
4.55245e-10
4.70268e-10
4.8639e-10
5.03677e-10
5.22196e-10
5.42015e-10
5.632e-10
5.85814e-10
6.09921e-10
6.35583e-10
6.62861e-10
6.91814e-10
7.22502e-10
7.54979e-10
7.89294e-10
8.25488e-10
8.63591e-10
9.03621e-10
9.45584e-10
9.89476e-10
1.03528e-09
1.08296e-09
1.13247e-09
1.18376e-09
1.2367e-09
1.29121e-09
1.34714e-09
1.40426e-09
1.46244e-09
1.52143e-09
1.58089e-09
1.64068e-09
1.7005e-09
1.75994e-09
1.81883e-09
1.87686e-09
1.93355e-09
1.98872e-09
2.04205e-09
2.09298e-09
2.14138e-09
2.18694e-09
2.22906e-09
2.2677e-09
2.30267e-09
2.33337e-09
2.3598e-09
2.38203e-09
2.39956e-09
2.41239e-09
2.42104e-09
2.42331e-09
2.4204e-09
2.41407e-09
2.4033e-09
2.38743e-09
2.36725e-09
2.34295e-09
2.31392e-09
2.28112e-09
2.24473e-09
2.20472e-09
2.16095e-09
2.11504e-09
2.06639e-09
2.01532e-09
1.96152e-09
1.90691e-09
1.85124e-09
1.79404e-09
1.73549e-09
1.67653e-09
1.61822e-09
1.55968e-09
1.501e-09
1.44222e-09
1.38487e-09
1.3287e-09
1.27335e-09
1.21865e-09
1.16537e-09
1.11377e-09
1.0635e-09
1.01455e-09
9.66967e-10
9.21236e-10
8.77506e-10
8.3557e-10
7.95315e-10
7.56754e-10
7.19947e-10
6.84945e-10
6.51757e-10
6.20346e-10
5.90649e-10
5.62592e-10
3.51308e-10
3.58135e-10
3.65534e-10
3.73547e-10
3.82223e-10
3.91612e-10
4.0177e-10
4.12753e-10
4.24618e-10
4.37425e-10
4.5124e-10
4.66128e-10
4.82163e-10
4.99421e-10
5.17985e-10
5.37939e-10
5.59369e-10
5.82365e-10
6.07017e-10
6.33416e-10
6.6166e-10
6.91847e-10
7.2408e-10
7.58463e-10
7.95102e-10
8.34101e-10
8.75561e-10
9.19579e-10
9.66246e-10
1.01565e-09
1.06787e-09
1.12299e-09
1.18107e-09
1.24218e-09
1.30635e-09
1.37363e-09
1.44401e-09
1.51748e-09
1.59401e-09
1.67353e-09
1.75597e-09
1.84121e-09
1.9291e-09
2.01947e-09
2.11212e-09
2.20679e-09
2.30314e-09
2.40086e-09
2.49959e-09
2.59879e-09
2.69811e-09
2.79712e-09
2.89511e-09
2.99174e-09
3.08656e-09
3.17878e-09
3.26807e-09
3.35399e-09
3.43572e-09
3.51289e-09
3.58518e-09
3.65177e-09
3.7123e-09
3.76669e-09
3.81419e-09
3.85441e-09
3.8877e-09
3.91354e-09
3.93161e-09
3.94224e-09
3.94204e-09
3.9357e-09
3.92281e-09
3.90281e-09
3.87483e-09
3.83965e-09
3.79807e-09
3.74945e-09
3.69423e-09
3.6335e-09
3.56736e-09
3.4953e-09
3.4193e-09
3.33906e-09
3.25477e-09
3.16659e-09
3.07695e-09
2.98488e-09
2.89052e-09
2.79367e-09
2.69692e-09
2.60046e-09
2.50317e-09
2.40535e-09
2.3077e-09
2.21227e-09
2.11819e-09
2.02521e-09
1.93315e-09
1.84355e-09
1.75653e-09
1.67153e-09
1.58854e-09
1.50795e-09
1.4303e-09
1.35582e-09
1.28424e-09
1.21539e-09
1.14929e-09
1.08603e-09
1.02573e-09
9.68404e-10
9.1403e-10
8.62517e-10
8.13754e-10
4.29553e-10
4.42696e-10
4.56892e-10
4.72215e-10
4.88744e-10
5.06564e-10
5.25768e-10
5.46449e-10
5.68708e-10
5.92647e-10
6.18372e-10
6.45997e-10
6.75637e-10
7.07417e-10
7.41466e-10
7.77918e-10
8.16911e-10
8.58588e-10
9.03092e-10
9.50569e-10
1.00117e-09
1.05503e-09
1.11232e-09
1.17319e-09
1.23779e-09
1.30626e-09
1.37877e-09
1.45543e-09
1.53639e-09
1.62176e-09
1.71163e-09
1.80611e-09
1.90525e-09
2.00912e-09
2.11775e-09
2.23114e-09
2.34927e-09
2.47207e-09
2.59944e-09
2.73124e-09
2.86728e-09
3.00733e-09
3.15111e-09
3.29829e-09
3.44851e-09
3.60132e-09
3.7562e-09
3.91263e-09
4.06999e-09
4.2275e-09
4.38452e-09
4.54036e-09
4.69398e-09
4.84473e-09
4.99194e-09
5.13445e-09
5.27161e-09
5.40287e-09
5.5271e-09
5.64353e-09
5.75187e-09
5.85111e-09
5.94033e-09
6.01974e-09
6.08841e-09
6.14543e-09
6.19148e-09
6.22615e-09
6.24875e-09
6.25712e-09
6.25227e-09
6.23801e-09
6.21262e-09
6.1764e-09
6.12842e-09
6.06894e-09
5.99973e-09
5.92067e-09
5.83108e-09
5.73302e-09
5.6273e-09
5.51287e-09
5.39154e-09
5.26418e-09
5.13096e-09
4.99204e-09
4.85018e-09
4.70426e-09
4.55499e-09
4.40208e-09
4.24958e-09
4.09643e-09
3.94195e-09
3.7861e-09
3.63129e-09
3.4793e-09
3.32868e-09
3.1796e-09
3.03186e-09
2.88804e-09
2.748e-09
2.611e-09
2.47705e-09
2.34686e-09
2.22113e-09
2.10012e-09
1.98363e-09
1.87144e-09
1.76356e-09
1.66013e-09
1.56129e-09
1.46712e-09
1.3776e-09
1.29261e-09
1.21202e-09
1.13568e-09
4.44672e-10
4.58894e-10
4.74258e-10
4.90846e-10
5.08749e-10
5.28062e-10
5.48884e-10
5.71326e-10
5.95493e-10
6.21505e-10
6.49484e-10
6.7956e-10
7.11869e-10
7.46557e-10
7.83775e-10
8.23682e-10
8.66443e-10
9.12229e-10
9.61216e-10
1.01359e-09
1.06953e-09
1.12925e-09
1.19294e-09
1.26081e-09
1.33308e-09
1.40996e-09
1.49167e-09
1.57842e-09
1.67044e-09
1.76793e-09
1.8711e-09
1.98018e-09
2.09535e-09
2.21682e-09
2.34475e-09
2.47931e-09
2.62063e-09
2.76883e-09
2.92399e-09
3.08615e-09
3.25534e-09
3.43154e-09
3.61468e-09
3.80465e-09
4.00128e-09
4.20434e-09
4.41354e-09
4.62852e-09
4.84884e-09
5.074e-09
5.30342e-09
5.53648e-09
5.77243e-09
6.01047e-09
6.24975e-09
6.48931e-09
6.72803e-09
6.9649e-09
7.19882e-09
7.42836e-09
7.65245e-09
7.87008e-09
8.07963e-09
8.28006e-09
8.47061e-09
8.64978e-09
8.81632e-09
8.96995e-09
9.10952e-09
9.23346e-09
9.34219e-09
9.43479e-09
9.5098e-09
9.5681e-09
9.60964e-09
9.6325e-09
9.63099e-09
9.6176e-09
9.58776e-09
9.54018e-09
9.47677e-09
9.39693e-09
9.29996e-09
9.18852e-09
9.06345e-09
8.92346e-09
8.77033e-09
8.60628e-09
8.43104e-09
8.24428e-09
8.04897e-09
7.84626e-09
7.6352e-09
7.41854e-09
7.1963e-09
6.96899e-09
6.73733e-09
6.50537e-09
6.27149e-09
6.03597e-09
5.79808e-09
5.56235e-09
5.32977e-09
5.09862e-09
4.86951e-09
4.64276e-09
4.42147e-09
4.20549e-09
3.99406e-09
3.78724e-09
3.58588e-09
3.3909e-09
3.20272e-09
3.02127e-09
2.84639e-09
2.67805e-09
2.51643e-09
2.36168e-09
2.21394e-09
2.07319e-09
1.93933e-09
1.81219e-09
1.69158e-09
5.92388e-10
6.18051e-10
6.45684e-10
6.75421e-10
7.07406e-10
7.4179e-10
7.78733e-10
8.18407e-10
8.60986e-10
9.06657e-10
9.55615e-10
1.00806e-09
1.06421e-09
1.12428e-09
1.18851e-09
1.25713e-09
1.33041e-09
1.40859e-09
1.49195e-09
1.58076e-09
1.6753e-09
1.77585e-09
1.88271e-09
1.99618e-09
2.11656e-09
2.24416e-09
2.37927e-09
2.52221e-09
2.67325e-09
2.83268e-09
3.00079e-09
3.17782e-09
3.36403e-09
3.55965e-09
3.76487e-09
3.97985e-09
4.20475e-09
4.43962e-09
4.68452e-09
4.93943e-09
5.20426e-09
5.47887e-09
5.76307e-09
6.05656e-09
6.35898e-09
6.66988e-09
6.98871e-09
7.31482e-09
7.64746e-09
7.98577e-09
8.32882e-09
8.67556e-09
9.0248e-09
9.37537e-09
9.72595e-09
1.00751e-08
1.04212e-08
1.07628e-08
1.10983e-08
1.14257e-08
1.17436e-08
1.20504e-08
1.2344e-08
1.26228e-08
1.28859e-08
1.31313e-08
1.33573e-08
1.35635e-08
1.37487e-08
1.39106e-08
1.40499e-08
1.41657e-08
1.42563e-08
1.43223e-08
1.43642e-08
1.43749e-08
1.43592e-08
1.43256e-08
1.42675e-08
1.41836e-08
1.40771e-08
1.39485e-08
1.37962e-08
1.36227e-08
1.34307e-08
1.32192e-08
1.29882e-08
1.27419e-08
1.24813e-08
1.22046e-08
1.19149e-08
1.16153e-08
1.13059e-08
1.09865e-08
1.06594e-08
1.03262e-08
9.98736e-09
9.6461e-09
9.30188e-09
8.95552e-09
8.60661e-09
8.26034e-09
7.91716e-09
7.57591e-09
7.23736e-09
6.90301e-09
6.57538e-09
6.25492e-09
5.94116e-09
5.63424e-09
5.33505e-09
5.04464e-09
4.76365e-09
4.49228e-09
4.23052e-09
3.97839e-09
3.73606e-09
3.50371e-09
3.28149e-09
3.06943e-09
2.86741e-09
2.67524e-09
2.49271e-09
8.45436e-10
8.89911e-10
9.37645e-10
9.88847e-10
1.04374e-09
1.10256e-09
1.16556e-09
1.23298e-09
1.30511e-09
1.38222e-09
1.46462e-09
1.5526e-09
1.64648e-09
1.7466e-09
1.85329e-09
1.96691e-09
2.08782e-09
2.2164e-09
2.35303e-09
2.4981e-09
2.652e-09
2.81514e-09
2.98791e-09
3.17073e-09
3.36399e-09
3.56811e-09
3.78347e-09
4.01045e-09
4.24944e-09
4.50076e-09
4.76475e-09
5.0417e-09
5.33188e-09
5.6355e-09
5.95276e-09
6.28377e-09
6.62859e-09
6.98724e-09
7.35961e-09
7.74553e-09
8.14475e-09
8.55688e-09
8.98148e-09
9.41795e-09
9.86561e-09
1.03236e-08
1.07911e-08
1.12668e-08
1.17497e-08
1.22383e-08
1.27312e-08
1.32267e-08
1.37231e-08
1.42187e-08
1.47115e-08
1.51993e-08
1.56802e-08
1.6152e-08
1.66124e-08
1.7059e-08
1.74898e-08
1.79025e-08
1.82945e-08
1.86641e-08
1.90095e-08
1.93286e-08
1.96191e-08
1.98806e-08
2.01118e-08
2.03099e-08
2.04756e-08
2.06086e-08
2.07067e-08
2.07697e-08
2.07964e-08
2.07812e-08
2.07403e-08
2.06687e-08
2.05635e-08
2.04233e-08
2.02519e-08
2.00517e-08
1.98205e-08
1.95596e-08
1.92741e-08
1.89641e-08
1.86274e-08
1.82692e-08
1.78923e-08
1.74963e-08
1.70804e-08
1.66512e-08
1.62102e-08
1.57561e-08
1.529e-08
1.48163e-08
1.4336e-08
1.38505e-08
1.33609e-08
1.28685e-08
1.23745e-08
1.18821e-08
1.13927e-08
1.09063e-08
1.04239e-08
9.94752e-09
9.47947e-09
9.02079e-09
8.57157e-09
8.13218e-09
7.70354e-09
7.28675e-09
6.8827e-09
6.49189e-09
6.11457e-09
5.7509e-09
5.40111e-09
5.06539e-09
4.74386e-09
4.43657e-09
4.14342e-09
3.86422e-09
3.59875e-09
1.26359e-09
1.33785e-09
1.41732e-09
1.5023e-09
1.59313e-09
1.69017e-09
1.79377e-09
1.90432e-09
2.02222e-09
2.14788e-09
2.28173e-09
2.42421e-09
2.57578e-09
2.7369e-09
2.90805e-09
3.08974e-09
3.28247e-09
3.48675e-09
3.7031e-09
3.93206e-09
4.17414e-09
4.42987e-09
4.69978e-09
4.98438e-09
5.28418e-09
5.59968e-09
5.93134e-09
6.27962e-09
6.64492e-09
7.02764e-09
7.4281e-09
7.84658e-09
8.2833e-09
8.73842e-09
9.21201e-09
9.70406e-09
1.02145e-08
1.07431e-08
1.12895e-08
1.18533e-08
1.24338e-08
1.30304e-08
1.36422e-08
1.4268e-08
1.49068e-08
1.55571e-08
1.62173e-08
1.68859e-08
1.75608e-08
1.82401e-08
1.89216e-08
1.96028e-08
2.02813e-08
2.09546e-08
2.16199e-08
2.22745e-08
2.29155e-08
2.35401e-08
2.41453e-08
2.47282e-08
2.52861e-08
2.58161e-08
2.63154e-08
2.67814e-08
2.72124e-08
2.76055e-08
2.79584e-08
2.82706e-08
2.85406e-08
2.87654e-08
2.89457e-08
2.90817e-08
2.91713e-08
2.92114e-08
2.91962e-08
2.91481e-08
2.90556e-08
2.89206e-08
2.87424e-08
2.85193e-08
2.82548e-08
2.79536e-08
2.76137e-08
2.72346e-08
2.68231e-08
2.63814e-08
2.5906e-08
2.54006e-08
2.4872e-08
2.43205e-08
2.37424e-08
2.31454e-08
2.25339e-08
2.1908e-08
2.12642e-08
2.06097e-08
1.99479e-08
1.9279e-08
1.86044e-08
1.7926e-08
1.72461e-08
1.65673e-08
1.58917e-08
1.52203e-08
1.45547e-08
1.38972e-08
1.32501e-08
1.2615e-08
1.19927e-08
1.1384e-08
1.079e-08
1.02118e-08
9.65046e-09
9.10693e-09
8.58177e-09
8.07528e-09
7.58776e-09
7.11944e-09
6.67048e-09
6.24092e-09
5.8307e-09
5.43961e-09
5.06741e-09
4.71374e-09
4.37826e-09
1.9317e-09
2.0516e-09
2.17953e-09
2.31595e-09
2.46134e-09
2.6162e-09
2.78107e-09
2.95648e-09
3.143e-09
3.3412e-09
3.55169e-09
3.77507e-09
4.01196e-09
4.26302e-09
4.52889e-09
4.81022e-09
5.10769e-09
5.42197e-09
5.75372e-09
6.10363e-09
6.47235e-09
6.86052e-09
7.26879e-09
7.69776e-09
8.14802e-09
8.62011e-09
9.11455e-09
9.63181e-09
1.01723e-08
1.07363e-08
1.13241e-08
1.19359e-08
1.25718e-08
1.32317e-08
1.39154e-08
1.46228e-08
1.53533e-08
1.61064e-08
1.68814e-08
1.76773e-08
1.8493e-08
1.93272e-08
2.01784e-08
2.10449e-08
2.19247e-08
2.28157e-08
2.37155e-08
2.46216e-08
2.55313e-08
2.64415e-08
2.73491e-08
2.82509e-08
2.91436e-08
3.00236e-08
3.08874e-08
3.17312e-08
3.25516e-08
3.33448e-08
3.41072e-08
3.48354e-08
3.5526e-08
3.61757e-08
3.67812e-08
3.73399e-08
3.78493e-08
3.83066e-08
3.87095e-08
3.90574e-08
3.93488e-08
3.95807e-08
3.97536e-08
3.98687e-08
3.99229e-08
3.99017e-08
3.98393e-08
3.97218e-08
3.95452e-08
3.9314e-08
3.90296e-08
3.86899e-08
3.82974e-08
3.78594e-08
3.73747e-08
3.68408e-08
3.62652e-08
3.56527e-08
3.50005e-08
3.43085e-08
3.35874e-08
3.28387e-08
3.20584e-08
3.1251e-08
3.04266e-08
2.95847e-08
2.87217e-08
2.78419e-08
2.6954e-08
2.60581e-08
2.51546e-08
2.42462e-08
2.33358e-08
2.24264e-08
2.15206e-08
2.06206e-08
1.97287e-08
1.88472e-08
1.79789e-08
1.7126e-08
1.62899e-08
1.54719e-08
1.46733e-08
1.38956e-08
1.31402e-08
1.24083e-08
1.17005e-08
1.10175e-08
1.03596e-08
9.72729e-09
9.12069e-09
8.53985e-09
7.98471e-09
7.45507e-09
6.95061e-09
6.47096e-09
6.01566e-09
2.9666e-09
3.15431e-09
3.35402e-09
3.56639e-09
3.7921e-09
4.03184e-09
4.28634e-09
4.55634e-09
4.8426e-09
5.1459e-09
5.46704e-09
5.80683e-09
6.16609e-09
6.54565e-09
6.94634e-09
7.369e-09
7.81445e-09
8.28354e-09
8.77706e-09
9.29582e-09
9.84058e-09
1.04121e-08
1.10111e-08
1.16381e-08
1.22939e-08
1.29789e-08
1.36935e-08
1.44383e-08
1.52134e-08
1.6019e-08
1.68552e-08
1.77219e-08
1.86188e-08
1.95456e-08
2.05017e-08
2.14864e-08
2.24987e-08
2.35375e-08
2.46013e-08
2.56886e-08
2.67974e-08
2.79256e-08
2.90709e-08
3.02306e-08
3.14018e-08
3.25813e-08
3.37657e-08
3.49515e-08
3.61346e-08
3.73112e-08
3.8477e-08
3.96279e-08
4.07592e-08
4.18665e-08
4.29453e-08
4.39909e-08
4.49991e-08
4.59655e-08
4.68858e-08
4.7756e-08
4.85723e-08
4.93311e-08
5.0029e-08
5.06631e-08
5.12309e-08
5.17296e-08
5.21572e-08
5.25132e-08
5.27962e-08
5.30035e-08
5.31355e-08
5.3194e-08
5.31627e-08
5.30733e-08
5.29176e-08
5.26893e-08