/*--------------------------------*- C++ -*----------------------------------*\
| =========                 |                                                 |
| \\      /  F ield         | OpenFOAM: The Open Source CFD Toolbox           |
|  \\    /   O peration     | Version:  v1706                                 |
|   \\  /    A nd           | Web:      www.OpenFOAM.com                      |
|    \\/     M anipulation  |                                                 |
\*---------------------------------------------------------------------------*/
FoamFile
{
    version     2.0;
    format      ascii;
    class       volScalarField;
    location    "3.6e-05";
    object      Mach;
}
// * * * * * * * * * * * * * * * * * * * * * * * * * * * * * * * * * * * * * //

dimensions      [0 0 0 0 0 0 0];


internalField   nonuniform List<scalar> 
29871
(
3.96
3.95526
3.94994
3.94402
3.93739
3.92991
3.92147
3.91197
3.90141
3.88986
3.87745
3.86431
3.85053
3.83599
3.82044
3.8031
3.78327
3.76082
3.73606
3.70958
3.68217
3.65449
3.62696
3.59986
3.57346
3.54795
3.52355
3.49934
3.47237
3.43965
3.4033
3.3658
3.32896
3.29387
3.26115
3.23113
3.20384
3.17916
3.15684
3.13662
3.11825
3.10156
3.08646
3.0729
3.06091
3.0505
3.04164
3.03429
3.02842
3.02395
3.02081
3.01883
3.01818
3.01843
3.01929
3.02094
3.02312
3.02607
3.02927
3.03277
3.03663
3.04084
3.04533
3.05012
3.05509
3.06024
3.06574
3.07145
3.07716
3.08312
3.0894
3.09582
3.1024
3.10923
3.11623
3.12341
3.13084
3.13847
3.14625
3.15416
3.16224
3.17049
3.17891
3.18756
3.19648
3.2057
3.21522
3.22499
3.23498
3.24517
3.25552
3.266
3.2766
3.28733
3.2982
3.30922
3.32039
3.33174
3.34327
3.35499
3.36692
3.37908
3.39151
3.40427
3.41744
3.78698
3.76126
3.73365
3.70412
3.67246
3.63796
3.5997
3.55736
3.51123
3.46208
3.41089
3.35864
3.3061
3.25396
3.2011
3.14504
3.08441
3.02095
2.95683
2.89383
2.8333
2.77626
2.72339
2.6751
2.63162
2.59299
2.55904
2.52961
2.50492
2.48491
2.46887
2.45619
2.44638
2.43914
2.43418
2.43129
2.43015
2.43029
2.43127
2.43282
2.43476
2.43702
2.43957
2.44238
2.44553
2.449
2.45272
2.45664
2.46079
2.46519
2.4698
2.47458
2.47951
2.48454
2.4897
2.49434
2.49977
2.50593
2.51005
2.51421
2.51867
2.52312
2.52738
2.53147
2.53537
2.53905
2.54259
2.54594
2.54925
2.55241
2.55539
2.55829
2.56122
2.56402
2.56672
2.56946
2.57219
2.57479
2.5773
2.57981
2.58231
2.58478
2.58726
2.58981
2.59247
2.59525
2.59815
2.60117
2.6043
2.60752
2.61082
2.61417
2.61755
2.62097
2.62442
2.6279
2.63142
2.63497
2.63855
2.64217
2.64586
2.64962
2.65348
2.6575
2.66175
3.44347
3.3858
3.32568
3.26408
3.202
3.13875
3.07269
3.00219
2.92855
2.85394
2.78043
2.70973
2.64313
2.58154
2.52549
2.47537
2.43196
2.39521
2.36441
2.3388
2.31761
2.30013
2.28575
2.27402
2.26464
2.25745
2.25237
2.24929
2.24788
2.2478
2.24882
2.2508
2.25356
2.25686
2.26073
2.26508
2.27011
2.27584
2.2819
2.28804
2.2941
2.30003
2.30579
2.31135
2.31672
2.32192
2.327
2.33201
2.33699
2.34202
2.34715
2.35243
2.3579
2.36358
2.36949
2.37558
2.38184
2.38824
2.39492
2.40164
2.40833
2.41483
2.42158
2.42853
2.43542
2.44137
2.44812
2.45462
2.45958
2.46558
2.47149
2.47656
2.48158
2.48703
2.49211
2.49658
2.50113
2.50559
2.50964
2.51352
2.51735
2.52101
2.52449
2.52787
2.53121
2.53449
2.53772
2.54095
2.54424
2.54756
2.55086
2.5541
2.55728
2.5604
2.56346
2.56646
2.56941
2.57229
2.5751
2.57784
2.58049
2.58306
2.58552
2.5879
2.59023
2.59254
2.81702
2.73833
2.66256
2.59118
2.52522
2.46539
2.41261
2.36718
2.3285
2.29586
2.26853
2.24581
2.22702
2.21154
2.19886
2.18863
2.18067
2.17482
2.17086
2.16851
2.16733
2.16683
2.16668
2.16673
2.16699
2.16756
2.16877
2.17081
2.17347
2.17645
2.17962
2.18298
2.18651
2.19014
2.1938
2.19739
2.20093
2.20472
2.20906
2.21403
2.21953
2.22543
2.23161
2.23797
2.24444
2.25096
2.25748
2.26397
2.27042
2.27682
2.28318
2.2895
2.29582
2.30214
2.30851
2.31493
2.32143
2.32802
2.33474
2.34159
2.34854
2.35557
2.36263
2.37013
2.37784
2.38465
2.39259
2.40039
2.40636
2.41334
2.42095
2.4277
2.4339
2.44094
2.44784
2.454
2.4602
2.46642
2.47222
2.47793
2.48362
2.48912
2.49442
2.49967
2.50487
2.50994
2.51482
2.51947
2.52391
2.52822
2.53245
2.53661
2.54071
2.54478
2.54882
2.55286
2.55689
2.56094
2.56501
2.56911
2.57325
2.57744
2.5817
2.58598
2.59018
2.59426
2.31454
2.2773
2.24598
2.21983
2.19811
2.18012
2.16529
2.15325
2.14367
2.13623
2.1306
2.12653
2.12371
2.12177
2.12036
2.11929
2.11852
2.1181
2.11818
2.11891
2.12038
2.12242
2.12468
2.12696
2.12918
2.13118
2.13288
2.13417
2.13522
2.13656
2.13854
2.1412
2.14446
2.1482
2.15229
2.1566
2.16104
2.1651
2.16859
2.17202
2.1758
2.18012
2.185
2.19033
2.19603
2.20196
2.20804
2.21418
2.22033
2.22645
2.23252
2.23857
2.24463
2.25074
2.25694
2.26328
2.26982
2.27657
2.28355
2.29079
2.29826
2.30595
2.31383
2.32184
2.33003
2.33851
2.3468
2.35544
2.36441
2.37191
2.37983
2.38835
2.39651
2.40322
2.41137
2.41944
2.42652
2.43378
2.44103
2.44761
2.45409
2.46084
2.46738
2.47346
2.47951
2.48561
2.49159
2.49732
2.50288
2.50834
2.51361
2.51868
2.52357
2.52833
2.53296
2.53748
2.5419
2.54623
2.55047
2.55464
2.55875
2.56281
2.56684
2.57085
2.57489
2.57897
2.58304
2.11587
2.10838
2.10262
2.09832
2.09513
2.09268
2.09066
2.089
2.08774
2.08687
2.08651
2.08678
2.0877
2.08892
2.09028
2.09164
2.09294
2.09417
2.09535
2.09648
2.09752
2.0988
2.10056
2.10281
2.10565
2.10838
2.11111
2.11344
2.11512
2.11617
2.11722
2.11871
2.1208
2.12343
2.1265
2.12984
2.13328
2.13694
2.14055
2.144
2.14735
2.15081
2.15456
2.15869
2.16322
2.16812
2.17334
2.17878
2.18437
2.19007
2.19582
2.2016
2.20738
2.21321
2.21909
2.22503
2.23112
2.2374
2.24387
2.2506
2.25762
2.26491
2.2725
2.28036
2.28844
2.2967
2.30551
2.31428
2.32332
2.33237
2.34069
2.34981
2.35866
2.36732
2.37657
2.38483
2.39301
2.4017
2.40986
2.41758
2.42481
2.43276
2.44064
2.44784
2.45469
2.46189
2.46917
2.47598
2.48258
2.4892
2.49564
2.50182
2.5078
2.51362
2.51927
2.52476
2.53011
2.53532
2.54039
2.54531
2.5501
2.55476
2.55931
2.56374
2.56806
2.57231
2.57649
2.0702
2.06779
2.06585
2.06435
2.06328
2.06271
2.06281
2.06345
2.06426
2.06511
2.06588
2.06679
2.06739
2.06806
2.06878
2.06944
2.07031
2.07167
2.07366
2.07536
2.07741
2.07932
2.08145
2.08278
2.0839
2.08517
2.08689
2.08898
2.09126
2.09371
2.09583
2.09809
2.09967
2.10103
2.1023
2.10366
2.10533
2.10738
2.10982
2.11253
2.11571
2.11899
2.1222
2.12539
2.12847
2.1316
2.13488
2.13841
2.14226
2.14644
2.15096
2.15575
2.16076
2.16596
2.17132
2.17672
2.18217
2.18775
2.19336
2.19899
2.20481
2.21078
2.21686
2.22321
2.22984
2.23669
2.24387
2.25133
2.25901
2.26715
2.27563
2.28422
2.29319
2.3022
2.31075
2.32018
2.32968
2.33969
2.34707
2.35644
2.36623
2.3751
2.38394
2.39138
2.40051
2.40926
2.41761
2.42503
2.43308
2.44162
2.44954
2.45684
2.46445
2.47215
2.47926
2.48619
2.49308
2.49974
2.50617
2.51248
2.51866
2.52467
2.5305
2.53615
2.54164
2.54697
2.55214
2.55714
2.56196
2.56661
2.04279
2.04331
2.04383
2.04447
2.04478
2.04521
2.04567
2.04617
2.04699
2.04843
2.0498
2.05127
2.05284
2.05443
2.05578
2.05682
2.05756
2.05858
2.06
2.0615
2.06328
2.06512
2.06694
2.06864
2.07013
2.07158
2.07305
2.07465
2.07648
2.07858
2.08064
2.08281
2.08488
2.08674
2.08813
2.08949
2.0909
2.09241
2.09415
2.09618
2.09869
2.1014
2.10427
2.10721
2.11008
2.11292
2.11587
2.1189
2.12213
2.12557
2.12928
2.13334
2.13771
2.14215
2.14694
2.15197
2.15691
2.16206
2.16738
2.17266
2.17802
2.18377
2.18939
2.19513
2.20128
2.20751
2.21391
2.22069
2.22769
2.23504
2.24273
2.25063
2.25895
2.26778
2.27568
2.28486
2.29408
2.30413
2.31148
2.32072
2.33085
2.34007
2.34985
2.35726
2.36698
2.37639
2.3853
2.39334
2.40188
2.4112
2.42001
2.42784
2.43628
2.44486
2.45282
2.46028
2.46815
2.47585
2.48299
2.49007
2.49713
2.50403
2.51067
2.51712
2.5234
2.52954
2.53549
2.54123
2.54676
2.55205
2.0258
2.02709
2.02814
2.02948
2.03088
2.03224
2.03322
2.0339
2.03465
2.03566
2.03685
2.03821
2.03971
2.04122
2.04264
2.04397
2.0451
2.04611
2.04724
2.04848
2.04989
2.05147
2.05317
2.05493
2.05663
2.05821
2.05969
2.06118
2.06277
2.06454
2.06639
2.06835
2.07039
2.07238
2.07422
2.07588
2.07744
2.07889
2.0804
2.08206
2.08417
2.08641
2.08867
2.09146
2.09428
2.09657
2.09952
2.10241
2.10538
2.10857
2.1117
2.11533
2.11936
2.12288
2.12726
2.13194
2.13638
2.14085
2.1461
2.15123
2.1558
2.16143
2.1669
2.17208
2.17792
2.1839
2.18968
2.19586
2.2024
2.20921
2.21582
2.22315
2.23077
2.23897
2.24606
2.25465
2.26331
2.27283
2.28001
2.28872
2.29856
2.30769
2.31778
2.32524
2.335
2.34473
2.35376
2.36217
2.37081
2.38066
2.38995
2.39814
2.4071
2.41617
2.42481
2.43261
2.44109
2.44937
2.45736
2.46479
2.47241
2.48016
2.48748
2.49454
2.50148
2.50826
2.51487
2.52127
2.52744
2.53336
2.0135
2.01441
2.01548
2.0167
2.01801
2.0193
2.02052
2.02158
2.02248
2.02334
2.02429
2.02536
2.02658
2.02792
2.02932
2.03072
2.03203
2.03321
2.03431
2.03542
2.03661
2.03793
2.03939
2.04098
2.04264
2.04428
2.04587
2.0474
2.04894
2.05056
2.05225
2.05406
2.05598
2.05795
2.05992
2.0618
2.0636
2.06536
2.06699
2.06865
2.07057
2.07254
2.07443
2.07703
2.07974
2.08166
2.08453
2.08751
2.09026
2.09341
2.09638
2.09972
2.10345
2.10675
2.11048
2.11489
2.11922
2.12281
2.12804
2.13312
2.13698
2.14242
2.14794
2.15274
2.15829
2.1642
2.16956
2.17542
2.1817
2.18819
2.19367
2.20076
2.20783
2.21539
2.22148
2.22962
2.23768
2.24655
2.25307
2.26144
2.27069
2.27945
2.28928
2.29638
2.30617
2.31579
2.32484
2.33307
2.34176
2.35183
2.36124
2.36961
2.37867
2.38804
2.3971
2.40505
2.41387
2.42244
2.43076
2.43875
2.44648
2.45468
2.46257
2.47019
2.47764
2.48482
2.49187
2.49875
2.50539
2.5118
2.00143
2.0022
2.00303
2.00397
2.00502
2.00616
2.00734
2.00849
2.00953
2.01044
2.0113
2.0122
2.01318
2.01426
2.01546
2.01674
2.01803
2.01928
2.02047
2.0216
2.02273
2.02392
2.0252
2.02659
2.0281
2.02969
2.0313
2.03291
2.0345
2.03611
2.03776
2.03949
2.04131
2.04323
2.04521
2.04721
2.04915
2.05113
2.05301
2.05478
2.05678
2.05878
2.06056
2.06293
2.06549
2.0675
2.07015
2.07322
2.07577
2.07882
2.08202
2.08497
2.08858
2.09208
2.09522
2.09941
2.10367
2.10695
2.11178
2.11671
2.12065
2.12549
2.131
2.13594
2.14077
2.14672
2.15224
2.15745
2.16381
2.1701
2.17488
2.18189
2.18861
2.19553
2.20083
2.20874
2.21623
2.22443
2.23012
2.23844
2.247
2.2554
2.26431
2.27106
2.28084
2.28993
2.29913
2.30655
2.31565
2.32551
2.33484
2.34296
2.35204
2.3615
2.37069
2.37868
2.38763
2.39631
2.40466
2.41318
2.42068
2.42914
2.43734
2.44523
2.45296
2.46048
2.46782
2.47497
2.48192
2.48865
1.9876
1.9885
1.98929
1.99003
1.99078
1.99159
1.99248
1.99346
1.9945
1.99551
1.99647
1.99736
1.99821
1.99908
1.99999
2.00099
2.00208
2.00325
2.00445
2.00566
2.00683
2.00799
2.00915
2.01035
2.01163
2.01301
2.01448
2.01604
2.01764
2.01928
2.02093
2.02261
2.02434
2.02613
2.028
2.02996
2.03199
2.03405
2.03613
2.03819
2.04015
2.04226
2.04441
2.0463
2.04855
2.05107
2.0532
2.0557
2.05876
2.06132
2.06419
2.06762
2.07045
2.07388
2.07758
2.08059
2.08446
2.0887
2.09206
2.09632
2.10114
2.1053
2.10961
2.11504
2.12013
2.1245
2.13037
2.1361
2.14081
2.14704
2.15332
2.15813
2.16485
2.17141
2.17768
2.18283
2.19056
2.19762
2.20495
2.21029
2.21856
2.2264
2.23478
2.24191
2.2491
2.25849
2.267
2.27604
2.28266
2.29232
2.30163
2.31083
2.31818
2.32753
2.33687
2.34595
2.35385
2.3628
2.37151
2.3798
2.38846
2.39573
2.40421
2.41255
2.42051
2.42832
2.43599
2.44348
2.45077
2.45787
2.46478
1.97368
1.97454
1.97534
1.97607
1.97675
1.97744
1.97816
1.97894
1.97978
1.98068
1.98158
1.98245
1.9833
1.98414
1.98498
1.98586
1.9868
1.98782
1.98891
1.99005
1.9912
1.99237
1.99354
1.99473
1.99596
1.99726
1.99865
2.00012
2.00167
2.00329
2.00496
2.00668
2.00843
2.01023
2.01211
2.01406
2.01609
2.01819
2.02034
2.02253
2.02469
2.0269
2.02915
2.03126
2.03352
2.03607
2.03832
2.04076
2.04379
2.04639
2.0492
2.05267
2.0556
2.05881
2.06264
2.06582
2.06935
2.07361
2.0772
2.08099
2.08574
2.09006
2.09404
2.09929
2.10446
2.10869
2.1143
2.12013
2.12479
2.13061
2.1369
2.14208
2.14812
2.1547
2.16087
2.16617
2.17362
2.18049
2.18671
2.19248
2.20052
2.2078
2.21588
2.22141
2.2297
2.23824
2.24647
2.25442
2.26126
2.27087
2.27957
2.28849
2.29534
2.30492
2.31392
2.32282
2.33035
2.3393
2.34801
2.35619
2.3648
2.37159
2.38011
2.3884
2.39629
2.40405
2.41173
2.41925
2.42659
2.43375
2.44073
2.44755
2.45421
1.95908
1.9598
1.96052
1.96121
1.96186
1.96249
1.96311
1.96376
1.96446
1.9652
1.96598
1.96678
1.96758
1.96838
1.96918
1.97
1.97085
1.97176
1.97273
1.97377
1.97486
1.97599
1.97714
1.97832
1.97954
1.9808
1.98213
1.98354
1.98503
1.98661
1.98826
1.98997
1.99174
1.99357
1.99546
1.99742
1.99946
2.00158
2.00377
2.00603
2.00832
2.01063
2.01299
2.01531
2.01769
2.02023
2.02262
2.02514
2.0281
2.03076
2.03357
2.03701
2.04002
2.04314
2.04701
2.05036
2.05372
2.05798
2.06177
2.06534
2.06998
2.07442
2.07827
2.08326
2.08848
2.09273
2.09797
2.10381
2.1087
2.11401
2.12027
2.12594
2.13123
2.13784
2.14425
2.14948
2.15663
2.16349
2.16915
2.17544
2.18313
2.19021
2.19716
2.20287
2.21132
2.21907
2.2274
2.23358
2.24161
2.25052
2.25884
2.26707
2.27405
2.28354
2.29212
2.30082
2.30777
2.31672
2.32529
2.33323
2.34179
2.34845
2.35676
2.36486
2.37258
2.38022
2.3878
2.39527
2.40259
2.40974
2.41673
2.42356
2.43025
1.94285
1.94336
1.9439
1.94447
1.94506
1.94565
1.94624
1.94681
1.94737
1.94793
1.94851
1.94913
1.94979
1.95048
1.9512
1.95193
1.95268
1.95345
1.95424
1.95507
1.95595
1.95689
1.95789
1.95895
1.96006
1.96121
1.96241
1.96365
1.96494
1.96631
1.96775
1.96927
1.97088
1.97257
1.97434
1.97617
1.97807
1.98005
1.98209
1.98422
1.98643
1.98872
1.99108
1.99348
1.99595
1.99842
2.00093
2.00351
2.00607
2.00871
2.01158
2.01433
2.01721
2.02055
2.02361
2.02675
2.03058
2.03402
2.03737
2.04158
2.0455
2.04906
2.05353
2.0581
2.06196
2.06665
2.0719
2.07626
2.08112
2.08692
2.09207
2.09697
2.10313
2.10914
2.11413
2.12049
2.12706
2.13246
2.13891
2.1458
2.15196
2.158
2.16549
2.17261
2.1784
2.18502
2.19309
2.2004
2.20822
2.21387
2.22246
2.23059
2.23894
2.24595
2.25359
2.26265
2.27082
2.27927
2.28583
2.29464
2.30288
2.31059
2.31856
2.32604
2.33396
2.34181
2.34931
2.35673
2.36413
2.37148
2.37871
2.38579
2.39273
2.39953
2.40619
1.9273
1.92773
1.92815
1.92859
1.92905
1.92953
1.93002
1.93051
1.931
1.93148
1.93198
1.9325
1.93305
1.93364
1.93426
1.93491
1.93559
1.93629
1.93702
1.93779
1.9386
1.93946
1.94038
1.94136
1.9424
1.9435
1.94466
1.94587
1.94713
1.94846
1.94986
1.95135
1.95291
1.95456
1.9563
1.95812
1.96002
1.96199
1.96404
1.96618
1.9684
1.9707
1.97308
1.97554
1.97806
1.98064
1.98325
1.98593
1.98862
1.99138
1.99424
1.99709
2.00005
2.00329
2.00642
2.00961
2.01334
2.01682
2.02024
2.02436
2.02834
2.03199
2.03629
2.04094
2.0449
2.04932
2.05458
2.0591
2.06364
2.06931
2.0747
2.07941
2.08529
2.09145
2.09656
2.10242
2.10897
2.11496
2.12055
2.12742
2.13414
2.13977
2.14692
2.15404
2.15994
2.16666
2.1744
2.18168
2.18843
2.19469
2.20311
2.21065
2.21899
2.22498
2.23323
2.24168
2.24951
2.25767
2.26412
2.27265
2.2805
2.28798
2.29559
2.30338
2.31116
2.31877
2.32611
2.33332
2.34051
2.34767
2.35476
2.36174
2.36858
2.3753
2.38189
2.38837
1.90871
1.90907
1.90942
1.90978
1.91014
1.91051
1.91087
1.91121
1.91155
1.91189
1.91222
1.91257
1.91294
1.91332
1.91371
1.91411
1.91452
1.91494
1.91537
1.91583
1.91632
1.91684
1.9174
1.918
1.91863
1.91929
1.91999
1.92074
1.92153
1.92237
1.92328
1.92426
1.9253
1.9264
1.92756
1.92879
1.93008
1.93145
1.93289
1.93441
1.93602
1.93772
1.93951
1.94139
1.94335
1.94539
1.94752
1.94974
1.95204
1.95443
1.95691
1.95946
1.96209
1.96477
1.96752
1.97032
1.97317
1.97609
1.97904
1.98208
1.98526
1.98846
1.99171
1.99533
1.99884
2.00232
2.00636
2.01034
2.01408
2.01826
2.02294
2.02699
2.03124
2.03645
2.04113
2.04551
2.05095
2.05651
2.06121
2.06669
2.07284
2.0783
2.08363
2.0901
2.09649
2.1018
2.1083
2.11506
2.12118
2.12728
2.13435
2.14112
2.14729
2.15477
2.16212
2.16825
2.17512
2.18314
2.19037
2.1983
2.20405
2.21236
2.2203
2.22785
2.23554
2.24234
2.25045
2.258
2.26528
2.27267
2.28027
2.28788
2.29533
2.30254
2.3096
2.31661
2.32358
2.33049
2.33732
2.34404
2.35064
2.35716
2.36357
1.89293
1.89319
1.89344
1.89368
1.89393
1.89418
1.89443
1.89468
1.89493
1.89517
1.89542
1.89567
1.89593
1.89621
1.8965
1.89681
1.89713
1.89747
1.89782
1.89819
1.8986
1.89903
1.8995
1.90001
1.90056
1.90115
1.90178
1.90246
1.90318
1.90396
1.9048
1.9057
1.90668
1.90772
1.90883
1.91001
1.91126
1.91258
1.91398
1.91547
1.91704
1.9187
1.92044
1.92229
1.92422
1.92624
1.92835
1.93056
1.93285
1.93523
1.9377
1.94026
1.94291
1.94562
1.94842
1.95128
1.95419
1.95718
1.96021
1.96331
1.96651
1.96976
1.97308
1.97661
1.98015
1.98369
1.98763
1.99159
1.9954
1.99949
2.00413
2.00826
2.01243
2.01751
2.02232
2.0267
2.03182
2.03745
2.04228
2.04736
2.05341
2.05918
2.06426
2.07042
2.07687
2.08249
2.08834
2.09508
2.1017
2.10724
2.11396
2.12082
2.12729
2.13382
2.14106
2.14789
2.15464
2.16217
2.16933
2.1766
2.18282
2.19072
2.19824
2.20548
2.21283
2.2201
2.22772
2.23505
2.24216
2.24931
2.25661
2.26396
2.2712
2.27828
2.28521
2.29206
2.29886
2.30558
2.31226
2.31887
2.32536
2.33176
2.33807
1.87676
1.87692
1.87707
1.87722
1.87736
1.87751
1.87765
1.8778
1.87795
1.87811
1.87826
1.87842
1.87859
1.87877
1.87896
1.87918
1.87941
1.87966
1.87993
1.88022
1.88054
1.88089
1.88127
1.8817
1.88217
1.88268
1.88324
1.88384
1.8845
1.88521
1.88599
1.88683
1.88773
1.88871
1.88976
1.89089
1.89209
1.89337
1.89472
1.89616
1.89769
1.8993
1.90101
1.90281
1.9047
1.90669
1.90877
1.91095
1.91322
1.91558
1.91803
1.92058
1.92322
1.92594
1.92874
1.93162
1.93458
1.9376
1.94069
1.94383
1.94707
1.95036
1.95372
1.95722
1.96079
1.96436
1.96822
1.97214
1.976
1.98003
1.98458
1.98876
1.9929
1.99782
2.0027
2.00712
2.01196
2.01756
2.02256
2.02739
2.0332
2.03913
2.0442
2.04991
2.05626
2.06232
2.06769
2.07426
2.08083
2.08679
2.09272
2.09962
2.10626
2.11243
2.11904
2.12612
2.13302
2.13998
2.147
2.15397
2.16089
2.16815
2.17534
2.18236
2.18947
2.19674
2.20405
2.2112
2.21816
2.22511
2.23213
2.23918
2.24619
2.25309
2.25987
2.26655
2.27321
2.27979
2.28631
2.29276
2.29913
2.30542
2.31164
1.86029
1.86035
1.86041
1.86046
1.86051
1.86055
1.8606
1.86065
1.86071
1.86076
1.86083
1.8609
1.86097
1.86106
1.86117
1.86129
1.86143
1.86159
1.86178
1.86199
1.86223
1.8625
1.8628
1.86315
1.86354
1.86397
1.86446
1.86499
1.86558
1.86623
1.86694
1.86771
1.86855
1.86946
1.87045
1.87152
1.87267
1.87389
1.8752
1.87659
1.87807
1.87963
1.88129
1.88304
1.88489
1.88683
1.88887
1.89101
1.89324
1.89557
1.89799
1.90051
1.90312
1.90582
1.90861
1.91148
1.91444
1.91748
1.92058
1.92375
1.92701
1.93033
1.93371
1.93721
1.94078
1.94438
1.94817
1.95206
1.95593
1.95992
1.96434
1.96854
1.97268
1.97741
1.9823
1.98675
1.99138
1.99686
2.00199
2.00673
2.0122
2.01812
2.02335
2.02863
2.03483
2.04105
2.04632
2.05243
2.0589
2.06531
2.07073
2.07743
2.08394
2.09051
2.09624
2.1032
2.1101
2.11684
2.12361
2.13045
2.13739
2.14437
2.15131
2.15819
2.1651
2.17212
2.17917
2.18612
2.19295
2.19973
2.20651
2.21329
2.22003
2.22671
2.23334
2.23988
2.24637
2.25279
2.25916
2.26546
2.2717
2.27788
2.28399
2.29004
2.29603
1.8436
1.84356
1.84352
1.84348
1.84343
1.84339
1.84334
1.8433
1.84326
1.84323
1.8432
1.84318
1.84317
1.84317
1.84319
1.84322
1.84328
1.84335
1.84346
1.84359
1.84374
1.84394
1.84416
1.84443
1.84475
1.84511
1.84552
1.84598
1.8465
1.84708
1.84772
1.84843
1.84921
1.85006
1.85098
1.85199
1.85307
1.85424
1.85549
1.85683
1.85825
1.85976
1.86137
1.86307
1.86486
1.86675
1.86873
1.87082
1.873
1.87528
1.87765
1.88012
1.88269
1.88535
1.8881
1.89094
1.89387
1.89689
1.89998
1.90315
1.9064
1.90972
1.91311
1.91659
1.92015
1.92375
1.92749
1.93134
1.93521
1.93915
1.94343
1.94762
1.95175
1.95629
1.96112
1.96558
1.97007
1.97536
1.98054
1.98524
1.99037
1.99617
2.00156
2.00658
2.01249
2.01862
2.02407
2.02964
2.03604
2.04244
2.04786
2.05402
2.0606
2.06711
2.0727
2.07912
2.08596
2.09255
2.0991
2.10574
2.11247
2.11922
2.12595
2.13266
2.13937
2.14613
2.1529
2.15962
2.16628
2.17288
2.17944
2.18596
2.19248
2.19896
2.20539
2.21175
2.21806
2.22433
2.23054
2.2367
2.2428
2.24886
2.25486
2.26082
2.26674
1.82675
1.82662
1.82649
1.82636
1.82622
1.82608
1.82595
1.82581
1.82569
1.82556
1.82545
1.82534
1.82525
1.82516
1.8251
1.82505
1.82502
1.82502
1.82504
1.82509
1.82517
1.82529
1.82544
1.82563
1.82587
1.82616
1.8265
1.82689
1.82734
1.82785
1.82843
1.82907
1.82978
1.83056
1.83142
1.83236
1.83338
1.83449
1.83567
1.83695
1.83831
1.83976
1.8413
1.84294
1.84467
1.84649
1.84841
1.85043
1.85255
1.85476
1.85707
1.85948
1.86198
1.86458
1.86727
1.87006
1.87294
1.8759
1.87895
1.88208
1.8853
1.88858
1.89194
1.89539
1.89891
1.9025
1.90618
1.90997
1.9138
1.9177
1.92183
1.92598
1.93008
1.93444
1.93914
1.94358
1.94797
1.953
1.95815
1.96282
1.96767
1.97328
1.97872
1.9836
1.98913
1.99508
2.0007
2.00588
2.01203
2.01819
2.02389
2.02943
2.03594
2.04216
2.04808
2.0538
2.06047
2.06688
2.07321
2.0796
2.08607
2.09258
2.09908
2.10556
2.11205
2.11854
2.12504
2.13151
2.13794
2.14433
2.15066
2.15698
2.16328
2.16953
2.17574
2.18191
2.18804
2.19413
2.20019
2.2062
2.21216
2.2181
2.22399
2.22986
2.23569
1.81002
1.80981
1.80959
1.80937
1.80915
1.80893
1.8087
1.80848
1.80826
1.80805
1.80784
1.80764
1.80745
1.80728
1.80711
1.80697
1.80684
1.80673
1.80665
1.80659
1.80656
1.80657
1.80661
1.80669
1.80681
1.80698
1.80719
1.80746
1.80778
1.80816
1.8086
1.80911
1.80968
1.81032
1.81104
1.81183
1.8127
1.81365
1.81468
1.8158
1.817
1.81829
1.81967
1.82114
1.8227
1.82436
1.82611
1.82795
1.82989
1.83193
1.83406
1.83629
1.83861
1.84104
1.84355
1.84616
1.84887
1.85166
1.85455
1.85752
1.86058
1.86373
1.86695
1.87024
1.87363
1.87708
1.88061
1.88422
1.88793
1.89169
1.89551
1.89951
1.90357
1.90761
1.9118
1.91632
1.92068
1.92498
1.92973
1.93476
1.93936
1.94401
1.94934
1.95472
1.95951
1.96465
1.9704
1.97602
1.98097
1.98671
1.99264
1.99846
2.00356
2.00976
2.01576
2.02181
2.02709
2.03344
2.03964
2.04572
2.05183
2.05802
2.06425
2.07048
2.07671
2.08293
2.08915
2.09536
2.10155
2.10773
2.11385
2.11996
2.12606
2.13212
2.13814
2.14413
2.1501
2.15604
2.16195
2.16783
2.17369
2.17952
2.18532
2.1911
2.19687
2.20263
1.79314
1.79284
1.79254
1.79223
1.79193
1.79162
1.79131
1.79101
1.79071
1.79041
1.79013
1.78985
1.78958
1.78932
1.78908
1.78885
1.78865
1.78846
1.7883
1.78817
1.78807
1.788
1.78797
1.78798
1.78803
1.78812
1.78827
1.78846
1.78871
1.78902
1.78939
1.78982
1.79032
1.79089
1.79153
1.79224
1.79304
1.79391
1.79486
1.7959
1.79702
1.79823
1.79953
1.80091
1.80239
1.80395
1.80561
1.80737
1.80921
1.81115
1.81318
1.81531
1.81753
1.81985
1.82226
1.82477
1.82736
1.83005
1.83283
1.8357
1.83865
1.84169
1.84481
1.848
1.85128
1.85464
1.85806
1.86157
1.86517
1.86882
1.87254
1.87638
1.88031
1.88425
1.88828
1.89257
1.89683
1.901
1.90547
1.91029
1.91478
1.91924
1.92424
1.92947
1.93415
1.93895
1.94441
1.9499
1.95469
1.95997
1.96567
1.97138
1.97623
1.98194
1.98778
1.99365
1.99877
2.00468
2.01061
2.01641
2.02222
2.02809
2.03401
2.03994
2.04587
2.0518
2.05772
2.06362
2.06952
2.07539
2.08124
2.08711
2.09296
2.09877
2.10455
2.11031
2.11606
2.12179
2.12752
2.13322
2.13892
2.1446
2.15027
2.15593
2.1616
2.16728
2.17296
2.17867
1.77628
1.7759
1.77552
1.77513
1.77474
1.77436
1.77397
1.77359
1.77321
1.77283
1.77247
1.77211
1.77176
1.77143
1.77111
1.77081
1.77053
1.77028
1.77004
1.76984
1.76966
1.76952
1.76942
1.76935
1.76933
1.76935
1.76942
1.76954
1.76971
1.76994
1.77024
1.77059
1.77101
1.7715
1.77206
1.77269
1.7734
1.77418
1.77505
1.77599
1.77702
1.77814
1.77933
1.78062
1.78199
1.78346
1.78501
1.78665
1.78838
1.7902
1.79212
1.79413
1.79622
1.79841
1.8007
1.80307
1.80553
1.80808
1.81072
1.81345
1.81626
1.81916
1.82214
1.82519
1.82833
1.83154
1.83483
1.8382
1.84164
1.84515
1.84872
1.85238
1.85614
1.85992
1.86378
1.86783
1.87191
1.87593
1.88012
1.88465
1.88898
1.89324
1.89789
1.90286
1.90738
1.91189
1.91698
1.92223
1.92686
1.93169
1.9371
1.94254
1.94723
1.9524
1.95798
1.96352
1.96853
1.97398
1.97957
1.98505
1.99052
1.99605
2.00162
2.00722
2.01282
2.01841
2.02401
2.02959
2.03516
2.04071
2.04626
2.05186
2.05744
2.06298
2.0685
2.07402
2.07954
2.08506
2.09058
2.0961
2.10162
2.10715
2.11268
2.11823
2.12379
2.12938
2.135
2.14065
1.75949
1.75903
1.75857
1.75811
1.75764
1.75718
1.75672
1.75626
1.75581
1.75536
1.75492
1.75449
1.75407
1.75366
1.75327
1.75289
1.75254
1.75221
1.7519
1.75162
1.75138
1.75116
1.75098
1.75084
1.75074
1.75068
1.75068
1.75072
1.75081
1.75096
1.75117
1.75144
1.75177
1.75217
1.75264
1.75317
1.75378
1.75447
1.75523
1.75607
1.757
1.758
1.75909
1.76026
1.76151
1.76285
1.76427
1.76578
1.76738
1.76907
1.77084
1.7727
1.77465
1.77669
1.77882
1.78103
1.78333
1.78571
1.78818
1.79074
1.79338
1.7961
1.79889
1.80177
1.80472
1.80775
1.81085
1.81402
1.81728
1.8206
1.82398
1.82744
1.83097
1.83455
1.83819
1.84198
1.84583
1.84966
1.85359
1.85775
1.86185
1.86588
1.87013
1.87473
1.87901
1.88323
1.88788
1.89279
1.8972
1.90163
1.9066
1.9117
1.91619
1.92088
1.92606
1.93122
1.93602
1.94103
1.94622
1.95134
1.95646
1.96161
1.96681
1.97204
1.97729
1.98253
1.98778
1.99303
1.99826
2.00347
2.00871
2.014
2.01928
2.02453
2.02978
2.03505
2.04033
2.04562
2.05093
2.05625
2.06159
2.06695
2.07233
2.07775
2.0832
2.0887
2.09425
2.09985
1.74282
1.74229
1.74175
1.74121
1.74067
1.74014
1.7396
1.73907
1.73854
1.73802
1.73751
1.73701
1.73651
1.73603
1.73557
1.73512
1.7347
1.73429
1.73391
1.73356
1.73323
1.73294
1.73268
1.73246
1.73228
1.73214
1.73205
1.73201
1.73201
1.73207
1.73219
1.73236
1.7326
1.73289
1.73326
1.73369
1.73419
1.73476
1.73541
1.73613
1.73692
1.7378
1.73875
1.73979
1.7409
1.7421
1.74337
1.74473
1.74618
1.7477
1.74931
1.751
1.75277
1.75463
1.75657
1.7586
1.7607
1.76289
1.76515
1.7675
1.76993
1.77244
1.77502
1.77767
1.7804
1.78319
1.78606
1.789
1.79202
1.79511
1.79826
1.80149
1.80477
1.80808
1.81145
1.81492
1.81846
1.82201
1.82563
1.8294
1.83319
1.83691
1.84076
1.84488
1.84885
1.85274
1.85691
1.86137
1.86547
1.86952
1.874
1.87869
1.88288
1.88715
1.89185
1.89657
1.90104
1.90564
1.91037
1.91509
1.91981
1.92456
1.92937
1.9342
1.93907
1.94394
1.94883
1.95372
1.9586
1.96347
1.96836
1.97333
1.9783
1.98325
1.98822
1.99321
1.99823
2.00329
2.00837
2.01348
2.01863
2.02381
2.02904
2.03432
2.03966
2.04506
2.05052
2.05606
2.06168
1.72569
1.72508
1.72448
1.72387
1.72326
1.72265
1.72205
1.72145
1.72086
1.72028
1.7197
1.71914
1.71858
1.71805
1.71753
1.71702
1.71654
1.71608
1.71565
1.71525
1.71487
1.71453
1.71423
1.71396
1.71373
1.71354
1.7134
1.71331
1.71327
1.71328
1.71334
1.71347
1.71365
1.7139
1.7142
1.71458
1.71502
1.71553
1.71612
1.71677
1.7175
1.7183
1.71918
1.72013
1.72116
1.72227
1.72345
1.72471
1.72605
1.72747
1.72896
1.73053
1.73218
1.73391
1.73572
1.7376
1.73955
1.74158
1.74368
1.74586
1.74811
1.75044
1.75284
1.7553
1.75783
1.76042
1.76308
1.76579
1.76857
1.77142
1.77434
1.77731
1.7803
1.78332
1.78642
1.78959
1.79277
1.79601
1.79937
1.80279
1.80617
1.80962
1.81324
1.81685
1.82039
1.82409
1.82802
1.83176
1.83542
1.83938
1.84353
1.84737
1.85124
1.85539
1.85959
1.86366
1.86782
1.87206
1.87632
1.8806
1.88493
1.88929
1.8937
1.89814
1.90261
1.90709
1.91159
1.91609
1.9206
1.92514
1.92974
1.93439
1.93904
1.94371
1.94841
1.95317
1.95797
1.96281
1.9677
1.97265
1.97765
1.98271
1.98784
1.99304
1.99833
2.0037
2.00916
2.01473
1.70928
1.70861
1.70793
1.70725
1.70657
1.7059
1.70522
1.70455
1.70389
1.70323
1.70259
1.70195
1.70132
1.70071
1.70011
1.69953
1.69896
1.69842
1.69791
1.69741
1.69695
1.69652
1.69612
1.69575
1.69542
1.69513
1.69488
1.69468
1.69452
1.69442
1.69436
1.69436
1.69441
1.69452
1.69469
1.69492
1.69521
1.69557
1.69599
1.69649
1.69704
1.69767
1.69837
1.69914
1.69998
1.70089
1.70188
1.70293
1.70406
1.70526
1.70653
1.70787
1.70927
1.71075
1.71231
1.71394
1.71563
1.71739
1.71921
1.7211
1.72307
1.72511
1.72721
1.72935
1.73155
1.73381
1.73611
1.73846
1.74085
1.74331
1.74582
1.7484
1.75104
1.75372
1.75645
1.75922
1.76202
1.76486
1.76777
1.77073
1.77369
1.7767
1.77984
1.78301
1.78613
1.78935
1.79271
1.79601
1.79925
1.80265
1.80617
1.80958
1.81301
1.81658
1.82021
1.82381
1.82749
1.83121
1.83497
1.83878
1.84263
1.84652
1.85046
1.85446
1.85849
1.86256
1.86664
1.87075
1.87489
1.87905
1.88325
1.88754
1.89188
1.89624
1.90065
1.90512
1.90965
1.91424
1.9189
1.92363
1.92843
1.93331
1.93827
1.94333
1.94848
1.95374
1.95911
1.9646
1.69233
1.69158
1.69084
1.69009
1.68934
1.6886
1.68786
1.68712
1.68639
1.68566
1.68494
1.68424
1.68354
1.68286
1.68219
1.68155
1.68091
1.6803
1.67972
1.67915
1.67862
1.67811
1.67764
1.67719
1.67679
1.67642
1.67609
1.6758
1.67556
1.67537
1.67522
1.67512
1.67508
1.67509
1.67516
1.67528
1.67547
1.67571
1.67602
1.67639
1.67682
1.67732
1.67788
1.6785
1.6792
1.67995
1.68077
1.68165
1.68261
1.68363
1.68471
1.68584
1.68705
1.68832
1.68966
1.69108
1.69253
1.69403
1.69558
1.6972
1.69888
1.70061
1.70243
1.70429
1.70621
1.70817
1.71018
1.71222
1.71431
1.71644
1.71862
1.72085
1.72311
1.72542
1.72775
1.7301
1.73247
1.73488
1.73733
1.73979
1.74228
1.74484
1.74744
1.75003
1.75266
1.75539
1.75817
1.76092
1.76373
1.76661
1.76949
1.7724
1.77537
1.7784
1.78148
1.78461
1.7878
1.79102
1.79431
1.79765
1.80104
1.8045
1.80802
1.8116
1.81522
1.81889
1.82259
1.82633
1.83011
1.83394
1.83784
1.84184
1.84589
1.84999
1.85416
1.85841
1.86274
1.86715
1.87165
1.87623
1.8809
1.88568
1.89057
1.89557
1.90069
1.90594
1.91133
1.67545
1.67463
1.67381
1.67299
1.67217
1.67136
1.67054
1.66973
1.66892
1.66812
1.66733
1.66655
1.66577
1.66501
1.66427
1.66354
1.66282
1.66213
1.66145
1.6608
1.66018
1.65958
1.65901
1.65847
1.65796
1.65749
1.65706
1.65667
1.65631
1.656
1.65574
1.65552
1.65536
1.65524
1.65518
1.65516
1.65521
1.65531
1.65546
1.65568
1.65595
1.65627
1.65666
1.65711
1.65762
1.65817
1.65878
1.65945
1.6602
1.66101
1.66186
1.66275
1.66369
1.66469
1.66576
1.66692
1.66811
1.66936
1.67065
1.67198
1.67337
1.67484
1.67636
1.67791
1.67951
1.68114
1.6828
1.68448
1.6862
1.68793
1.68967
1.69144
1.69324
1.69505
1.69688
1.69872
1.70059
1.70248
1.70437
1.70627
1.7082
1.71016
1.71212
1.7141
1.71616
1.71827
1.7204
1.72259
1.72483
1.72711
1.72942
1.73177
1.73419
1.73668
1.73924
1.74185
1.74452
1.74725
1.75006
1.75293
1.75588
1.75891
1.76201
1.76518
1.76841
1.7717
1.77504
1.77844
1.78191
1.78545
1.78908
1.7928
1.79659
1.80046
1.80442
1.80847
1.81262
1.81686
1.82121
1.82567
1.83024
1.83493
1.83975
1.84471
1.84981
1.85506
1.86047
1.86603
1.65952
1.65863
1.65774
1.65684
1.65594
1.65504
1.65414
1.65325
1.65235
1.65146
1.65057
1.64969
1.64882
1.64795
1.6471
1.64626
1.64543
1.64461
1.64381
1.64303
1.64227
1.64153
1.64082
1.64013
1.63947
1.63884
1.63824
1.63768
1.63715
1.63666
1.63621
1.6358
1.63543
1.63511
1.63483
1.63461
1.63442
1.63429
1.63421
1.63418
1.6342
1.63427
1.63438
1.63456
1.6348