/*--------------------------------*- C++ -*----------------------------------*\
| =========                 |                                                 |
| \\      /  F ield         | OpenFOAM: The Open Source CFD Toolbox           |
|  \\    /   O peration     | Version:  v1706                                 |
|   \\  /    A nd           | Web:      www.OpenFOAM.com                      |
|    \\/     M anipulation  |                                                 |
\*---------------------------------------------------------------------------*/
FoamFile
{
    version     2.0;
    format      ascii;
    class       volScalarField;
    location    "3.6e-05";
    object      p;
}
// * * * * * * * * * * * * * * * * * * * * * * * * * * * * * * * * * * * * * //

dimensions      [1 -1 -2 0 0 0 0];


internalField   nonuniform List<scalar> 
29871
(
22.3581
22.4197
22.4865
22.559
22.6378
22.725
22.8243
22.9399
23.0755
23.2335
23.4147
23.6187
23.8444
24.0897
24.3588
24.655
24.9762
25.3162
25.6684
26.029
26.3999
26.7863
27.1924
27.619
28.0642
28.5241
28.9975
29.482
30.0649
30.8636
31.8723
33.0514
34.3551
35.7424
37.1787
38.6354
40.0883
41.5172
42.9061
44.2423
45.5156
46.7166
47.8366
48.8672
49.7997
50.628
51.3491
51.9624
52.4697
52.8746
53.1852
53.4114
53.5497
53.6307
53.6495
53.6401
53.5705
53.4633
53.3406
53.1982
53.0318
52.8435
52.6343
52.4028
52.1596
51.9064
51.6287
51.3338
51.0364
50.7276
50.3992
50.0593
49.7111
49.3497
48.978
48.5992
48.2121
47.8173
47.4172
47.0136
46.6073
46.1983
45.7859
45.3678
44.9419
44.5063
44.06
43.6033
43.1373
42.6633
42.1835
41.6999
41.2145
40.7281
40.2409
39.753
39.264
38.7737
38.2821
37.7887
37.2932
36.7951
36.2932
35.7857
35.2703
24.4999
24.8689
25.2856
25.7513
26.2727
26.8585
27.5137
28.2386
29.0322
29.8955
30.8327
31.8503
32.954
34.1569
35.4616
37.0229
38.9846
41.3859
44.2209
47.4587
51.0528
54.9494
59.0931
63.4303
67.9097
72.4824
77.1037
81.7435
86.2684
90.4883
94.3755
97.9502
101.238
104.256
107.013
109.52
111.805
113.921
115.919
117.836
119.691
121.489
123.225
124.891
126.465
127.93
129.275
130.489
131.55
132.445
133.168
133.719
134.102
134.322
134.398
134.377
134.159
133.899
133.556
133.151
132.7
132.207
131.683
131.123
130.544
129.958
129.333
128.717
128.103
127.467
126.804
126.148
125.463
124.757
124.058
123.343
122.599
121.843
121.083
120.31
119.521
118.723
117.921
117.108
116.279
115.435
114.579
113.717
112.852
111.984
111.113
110.238
109.358
108.473
107.58
106.678
105.767
104.844
103.909
102.96
101.995
101.013
100.01
98.9832
97.9245
30.0402
31.116
32.2997
33.5994
35.0331
36.6105
38.457
40.7503
43.5644
46.9218
50.8107
55.1976
60.0348
65.2665
70.8328
76.6803
82.5976
88.3832
93.9588
99.2942
104.377
109.197
113.744
118
121.943
125.544
128.774
131.621
134.14
136.392
138.415
140.232
141.865
143.35
144.681
145.843
146.784
147.483
147.99
148.366
148.658
148.898
149.11
149.315
149.527
149.758
150.012
150.291
150.591
150.905
151.22
151.519
151.789
152.016
152.186
152.299
152.344
152.321
152.223
152.064
151.85
151.597
151.266
150.894
150.539
150.044
149.557
149.234
148.791
148.155
147.655
147.247
146.715
146.13
145.647
145.146
144.601
144.093
143.612
143.111
142.593
142.08
141.571
141.053
140.52
139.976
139.425
138.865
138.289
137.7
137.103
136.503
135.904
135.304
134.705
134.106
133.507
132.909
132.311
131.71
131.106
130.498
129.883
129.258
128.619
127.959
47.6532
51.7964
56.5272
61.8036
67.5696
73.7638
80.2039
86.6442
92.9514
99.0411
104.852
110.34
115.472
120.226
124.587
128.559
132.118
135.232
137.89
140.115
141.985
143.607
145.074
146.447
147.752
148.984
150.072
150.945
151.594
152.074
152.438
152.717
152.94
153.145
153.371
153.669
154.06
154.499
154.908
155.233
155.463
155.613
155.703
155.753
155.782
155.807
155.839
155.888
155.963
156.067
156.201
156.356
156.526
156.699
156.856
156.983
157.07
157.1
157.062
156.959
156.783
156.54
156.219
155.828
155.433
154.882
154.303
153.899
153.387
152.636
152.002
151.474
150.831
150.11
149.487
148.851
148.171
147.533
146.922
146.288
145.637
144.998
144.366
143.724
143.07
142.414
141.764
141.121
140.479
139.83
139.178
138.525
137.875
137.227
136.583
135.944
135.309
134.68
134.057
133.44
132.828
132.221
131.617
131.018
130.429
129.855
91.5825
98.1564
104.469
110.451
116.056
121.251
126.024
130.352
134.205
137.569
140.449
142.866
144.869
146.541
147.97
149.228
150.354
151.36
152.24
152.954
153.467
153.775
153.935
153.998
154.017
154.049
154.156
154.391
154.773
155.218
155.624
155.929
156.119
156.208
156.22
156.188
156.148
156.187
156.346
156.565
156.778
156.938
157.028
157.051
157.017
156.938
156.833
156.72
156.612
156.515
156.444
156.404
156.388
156.395
156.427
156.467
156.501
156.524
156.521
156.476
156.389
156.249
156.048
155.789
155.471
155.11
154.658
154.126
153.738
153.285
152.559
151.937
151.492
150.855
150.125
149.506
148.827
148.129
147.552
146.989
146.346
145.669
145.06
144.467
143.848
143.199
142.55
141.919
141.296
140.671
140.046
139.426
138.808
138.193
137.58
136.97
136.365
135.765
135.171
134.582
133.997
133.416
132.839
132.266
131.695
131.125
130.562
137.272
140.626
143.467
145.824
147.765
149.389
150.781
151.994
153.055
153.98
154.761
155.36
155.757
155.984
156.088
156.119
156.091
156.063
156.052
156.096
156.21
156.336
156.412
156.389
156.27
156.12
155.963
155.862
155.891
156.06
156.29
156.506
156.663
156.739
156.731
156.662
156.553
156.408
156.284
156.235
156.258
156.312
156.362
156.391
156.384
156.335
156.242
156.125
155.995
155.85
155.705
155.585
155.48
155.381
155.314
155.274
155.234
155.199
155.171
155.117
155.04
154.94
154.789
154.585
154.346
154.061
153.693
153.243
152.807
152.43
151.879
151.252
150.719
150.15
149.572
148.951
148.154
147.452
146.897
146.389
145.71
144.953
144.349
143.8
143.168
142.458
141.798
141.184
140.564
139.921
139.284
138.667
138.057
137.446
136.839
136.237
135.641
135.051
134.467
133.89
133.32
132.754
132.194
131.639
131.092
130.549
130.012
151.396
152.861
154.117
155.195
156.113
156.864
157.406
157.749
157.92
157.989
157.992
157.96
157.912
157.885
157.905
157.981
158.057
158.059
157.984
157.837
157.65
157.443
157.247
157.158
157.118
157.09
157.019
156.896
156.719
156.519
156.306
156.095
155.99
155.965
156.017
156.106
156.187
156.229
156.219
156.165
156.044
155.89
155.749
155.658
155.609
155.578
155.565
155.553
155.525
155.456
155.348
155.227
155.077
154.888
154.711
154.556
154.376
154.204
154.084
153.966
153.84
153.748
153.653
153.532
153.423
153.291
153.102
152.897
152.675
152.382
152.011
151.599
151.227
150.848
150.278
149.67
149.147
148.79
148.191
147.316
146.602
146.082
145.683
144.997
144.16
143.516
143.015
142.4
141.63
140.963
140.394
139.763
139.07
138.451
137.863
137.259
136.642
136.04
135.453
134.87
134.291
133.719
133.156
132.601
132.054
131.512
130.978
130.451
129.933
129.423
159.727
159.819
159.808
159.775
159.729
159.712
159.747
159.816
159.841
159.786
159.675
159.509
159.297
159.073
158.862
158.76
158.699
158.625
158.523
158.357
158.145
157.906
157.655
157.419
157.208
157.052
156.924
156.789
156.629
156.462
156.269
156.04
155.835
155.684
155.609
155.578
155.586
155.613
155.623
155.603
155.544
155.429
155.268
155.141
155.036
154.92
154.821
154.748
154.687
154.612
154.491
154.365
154.241
154.045
153.823
153.651
153.451
153.196
153.003
152.837
152.618
152.438
152.302
152.11
151.937
151.801
151.6
151.375
151.183
150.943
150.625
150.258
149.91
149.616
149.143
148.548
148.054
147.79
147.289
146.428
145.719
145.217
144.903
144.267
143.382
142.704
142.229
141.684
140.888
140.18
139.631
138.992
138.272
137.669
137.128
136.502
135.854
135.294
134.738
134.168
133.593
133.025
132.473
131.935
131.405
130.881
130.364
129.856
129.359
128.872
161.621
161.57
161.444
161.261
161.037
160.805
160.617
160.503
160.41
160.298
160.143
159.947
159.714
159.456
159.188
158.937
158.732
158.564
158.424
158.275
158.102
157.903
157.683
157.445
157.211
157.002
156.821
156.655
156.495
156.34
156.171
155.965
155.749
155.544
155.375
155.243
155.149
155.098
155.06
155.005
154.961
154.902
154.738
154.595
154.514
154.35
154.162
154.026
153.904
153.797
153.638
153.467
153.369
153.195
152.911
152.732
152.577
152.237
151.971
151.817
151.529
151.24
151.063
150.811
150.545
150.374
150.158
149.873
149.653
149.464
149.162
148.802
148.494
148.263
147.849
147.299
146.849
146.621
146.209
145.419
144.758
144.282
144.018
143.447
142.554
141.875
141.428
140.969
140.161
139.418
138.879
138.268
137.545
136.937
136.43
135.797
135.132
134.573
134.081
133.542
132.95
132.386
131.857
131.335
130.82
130.314
129.815
129.326
128.85
128.384
162.147
162.006
161.827
161.607
161.354
161.081
160.801
160.548
160.339
160.166
160.004
159.832
159.641
159.428
159.197
158.955
158.725
158.522
158.346
158.187
158.031
157.862
157.675
157.468
157.246
157.022
156.807
156.607
156.417
156.239
156.06
155.863
155.654
155.438
155.226
155.028
154.849
154.712
154.601
154.481
154.398
154.339
154.171
154.017
153.958
153.789
153.53
153.358
153.188
153.027
152.839
152.605
152.47
152.323
152.003
151.787
151.68
151.316
150.969
150.824
150.538
150.127
149.898
149.644
149.271
149.04
148.81
148.437
148.173
148.03
147.696
147.294
147.017
146.855
146.445
145.925
145.532
145.349
144.961
144.253
143.673
143.253
143.05
142.469
141.611
140.979
140.591
140.18
139.358
138.623
138.111
137.557
136.835
136.22
135.738
135.114
134.449
133.884
133.418
132.954
132.365
131.782
131.254
130.753
130.268
129.78
129.294
128.826
128.374
127.933
161.967
161.77
161.586
161.397
161.191
160.97
160.731
160.488
160.263
160.065
159.89
159.727
159.561
159.385
159.193
158.986
158.77
158.558
158.358
158.174
158.002
157.833
157.658
157.469
157.264
157.047
156.824
156.602
156.386
156.178
155.972
155.764
155.55
155.326
155.095
154.864
154.631
154.425
154.25
154.06
153.905
153.801
153.622
153.441
153.357
153.188
152.904
152.719
152.526
152.287
152.084
151.811
151.591
151.442
151.128
150.852
150.725
150.399
150.007
149.821
149.567
149.095
148.792
148.567
148.123
147.79
147.564
147.136
146.793
146.65
146.273
145.818
145.559
145.446
144.984
144.477
144.144
144.015
143.584
142.946
142.46
142.128
141.966
141.307
140.534
139.996
139.697
139.248
138.433
137.768
137.324
136.817
136.088
135.471
135.008
134.405
133.755
133.198
132.74
132.352
131.798
131.196
130.658
130.167
129.697
129.233
128.776
128.333
127.907
127.493
162.032
161.793
161.581
161.392
161.215
161.04
160.858
160.663
160.456
160.248
160.047
159.86
159.687
159.522
159.358
159.187
159.004
158.811
158.61
158.408
158.21
158.021
157.837
157.655
157.467
157.27
157.06
156.838
156.609
156.376
156.144
155.913
155.682
155.449
155.211
154.965
154.711
154.45
154.199
153.967
153.722
153.494
153.33
153.122
152.893
152.758
152.572
152.282
152.085
151.88
151.577
151.349
151.072
150.768
150.576
150.284
149.943
149.761
149.477
149.062
148.82
148.583
148.106
147.745
147.521
147.064
146.637
146.396
145.969
145.53
145.323
144.946
144.448
144.184
144.053
143.524
143.03
142.758
142.651
142.132
141.556
141.16
140.948
140.712
139.984
139.354
138.93
138.719
138.15
137.399
136.845
136.508
135.986
135.249
134.654
134.221
133.65
133.014
132.472
132.032
131.702
131.204
130.588
130.043
129.56
129.107
128.666
128.237
127.821
127.42
127.029
161.9
161.685
161.478
161.286
161.108
160.94
160.774
160.605
160.428
160.245
160.058
159.874
159.697
159.527
159.362
159.196
159.026
158.847
158.659
158.463
158.264
158.065
157.868
157.672
157.475
157.273
157.063
156.842
156.61
156.369
156.121
155.87
155.617
155.361
155.102
154.837
154.563
154.282
154
153.723
153.435
153.159
152.927
152.672
152.395
152.205
151.981
151.675
151.46
151.23
150.891
150.636
150.361
149.997
149.748
149.466
149.076
148.824
148.56
148.133
147.831
147.593
147.136
146.73
146.488
146.053
145.561
145.284
144.89
144.372
144.076
143.735
143.207
142.878
142.687
142.148
141.661
141.437
141.272
140.67
140.157
139.841
139.731
139.281
138.615
138.124
137.817
137.605
136.934
136.286
135.852
135.606
135.018
134.305
133.763
133.386
132.843
132.208
131.679
131.275
131.01
130.535
129.916
129.379
128.917
128.487
128.072
127.669
127.279
126.902
126.534
126.173
125.82
161.788
161.602
161.415
161.232
161.058
160.892
160.732
160.573
160.413
160.248
160.078
159.905
159.731
159.56
159.392
159.224
159.056
158.883
158.702
158.513
158.317
158.115
157.91
157.704
157.495
157.283
157.064
156.838
156.601
156.354
156.097
155.832
155.56
155.283
155.002
154.716
154.422
154.12
153.814
153.503
153.184
152.872
152.579
152.271
151.96
151.709
151.43
151.1
150.858
150.59
150.226
149.95
149.661
149.264
148.965
148.674
148.254
147.935
147.664
147.233
146.868
146.614
146.183
145.733
145.468
145.062
144.533
144.211
143.855
143.299
142.91
142.607
142.077
141.642
141.397
140.905
140.394
140.162
139.905
139.284
138.816
138.575
138.437
137.836
137.26
136.878
136.694
136.333
135.661
135.135
134.805
134.58
133.929
133.274
132.811
132.515
131.978
131.338
130.826
130.448
130.216
129.775
129.184
128.671
128.236
127.835
127.447
127.069
126.703
126.349
126.005
125.669
125.342
162.034
161.868
161.703
161.538
161.37
161.203
161.038
160.877
160.72
160.567
160.414
160.26
160.102
159.939
159.773
159.605
159.436
159.267
159.097
158.923
158.744
158.558
158.364
158.163
157.954
157.74
157.521
157.297
157.068
156.832
156.587
156.332
156.066
155.79
155.504
155.21
154.909
154.602
154.287
153.965
153.636
153.299
152.955
152.612
152.271
151.92
151.578
151.264
150.929
150.578
150.292
149.973
149.591
149.292
148.975
148.555
148.223
147.909
147.47
147.097
146.803
146.369
145.943
145.664
145.252
144.761
144.461
144.085
143.54
143.165
142.836
142.287
141.816
141.518
141.029
140.492
140.187
139.778
139.228
138.897
138.615
138.037
137.567
137.368
137.109
136.463
135.965
135.663
135.528
135.002
134.391
133.965
133.729
133.44
132.769
132.2
131.821
131.59
131.043
130.418
129.933
129.563
129.282
128.919
128.418
127.948
127.537
127.158
126.793
126.439
126.097
125.766
125.446
125.136
124.834
161.957
161.8
161.646
161.494
161.341
161.188
161.034
160.881
160.73
160.58
160.432
160.283
160.131
159.976
159.817
159.653
159.486
159.317
159.144
158.968
158.787
158.601
158.406
158.203
157.992
157.773
157.547
157.313
157.073
156.826
156.57
156.305
156.029
155.742
155.444
155.136
154.819
154.493
154.158
153.816
153.466
153.107
152.74
152.369
151.993
151.61
151.234
150.867
150.484
150.109
149.768
149.397
149.001
148.669
148.311
147.874
147.518
147.174
146.715
146.306
145.984
145.541
145.066
144.754
144.352
143.827
143.48
143.124
142.581
142.146
141.828
141.318
140.778
140.454
140.025
139.436
139.039
138.71
138.161
137.69
137.405
136.925
136.411
136.151
135.831
135.226
134.761
134.519
134.32
133.702
133.161
132.806
132.644
132.241
131.606
131.117
130.798
130.594
130.048
129.472
129.024
128.656
128.333
127.999
127.6
127.192
126.813
126.456
126.114
125.784
125.466
125.16
124.866
124.581
124.307
124.044
163.027
162.858
162.694
162.532
162.372
162.214
162.059
161.907
161.759
161.613
161.47
161.328
161.185
161.041
160.896
160.751
160.606
160.461
160.315
160.167
160.016
159.861
159.701
159.536
159.367
159.193
159.015
158.831
158.641
158.444
158.239
158.024
157.801
157.568
157.327
157.077
156.819
156.552
156.275
155.988
155.69
155.38
155.059
154.728
154.385
154.033
153.672
153.302
152.923
152.535
152.14
151.737
151.328
150.92
150.51
150.093
149.686
149.291
148.876
148.461
148.085
147.682
147.232
146.851
146.47
145.992
145.559
145.206
144.748
144.238
143.891
143.486
142.938
142.538
142.189
141.662
141.161
140.836
140.374
139.79
139.41
139.038
138.456
137.962
137.653
137.171
136.597
136.237
135.89
135.354
134.934
134.632
134.136
133.659
133.407
133.103
132.499
132.007
131.694
131.546
131.066
130.482
130.045
129.747
129.519
129.043
128.534
128.119
127.759
127.425
127.096
126.751
126.401
126.06
125.734
125.419
125.115
124.822
124.542
124.274
124.015
123.767
123.532
162.912
162.755
162.603
162.454
162.307
162.162
162.018
161.876
161.737
161.599
161.463
161.328
161.192
161.056
160.918
160.779
160.639
160.497
160.353
160.207
160.058
159.905
159.747
159.584
159.415
159.24
159.06
158.873
158.679
158.478
158.268
158.05
157.821
157.583
157.335
157.076
156.808
156.53
156.242
155.944
155.634
155.313
154.979
154.634
154.278
153.91
153.532
153.144
152.746
152.339
151.923
151.498
151.066
150.63
150.188
149.742
149.301
148.86
148.41
147.968
147.545
147.1
146.637
146.224
145.801
145.306
144.857
144.468
143.99
143.457
143.077
142.661
142.098
141.645
141.29
140.783
140.224
139.868
139.448
138.854
138.399
138.06
137.529
136.956
136.606
136.209
135.612
135.141
134.849
134.386
133.837
133.464
133.119
132.654
132.273
131.925
131.428
130.957
130.63
130.414
129.954
129.446
129.033
128.706
128.425
128.049
127.619
127.23
126.88
126.551
126.23
125.914
125.602
125.297
125.002
124.715
124.44
124.175
123.918
123.675
123.444
123.224
123.015
162.824
162.678
162.536
162.398
162.261
162.126
161.993
161.86
161.728
161.597
161.467
161.338
161.208
161.077
160.945
160.811
160.674
160.536
160.394
160.25
160.102
159.949
159.792
159.629
159.46
159.284
159.101
158.911
158.713
158.507
158.293
158.069
157.836
157.591
157.336
157.07
156.793
156.505
156.207
155.897
155.575
155.242
154.897
154.539
154.169
153.788
153.394
152.99
152.575
152.15
151.715
151.271
150.818
150.359
149.893
149.421
148.949
148.474
147.993
147.52
147.054
146.573
146.091
145.64
145.177
144.666
144.199
143.772
143.271
142.726
142.313
141.878
141.307
140.807
140.435
139.942
139.344
138.939
138.546
137.969
137.438
137.095
136.626
136.016
135.588
135.251
134.702
134.141
133.803
133.447
132.874
132.388
132.081
131.717
131.237
130.816
130.41
129.982
129.604
129.289
128.913
128.485
128.085
127.731
127.409
127.073
126.709
126.355
126.023
125.706
125.4
125.104
124.818
124.541
124.274
124.015
123.765
123.526
123.297
123.08
122.873
122.678
122.493
162.757
162.622
162.49
162.36
162.231
162.105
161.979
161.854
161.729
161.605
161.48
161.356
161.23
161.104
160.975
160.845
160.711
160.575
160.435
160.292
160.144
159.992
159.834
159.67
159.5
159.322
159.137
158.944
158.742
158.532
158.313
158.083
157.844
157.593
157.331
157.058
156.773
156.476
156.167
155.846
155.514
155.169
154.812
154.442
154.06
153.665
153.258
152.839
152.409
151.968
151.516
151.055
150.584
150.105
149.617
149.124
148.626
148.123
147.617
147.113
146.61
146.1
145.594
145.104
144.603
144.078
143.587
143.121
142.597
142.044
141.599
141.139
140.561
140.026
139.629
139.14
138.523
138.063
137.678
137.129
136.539
136.157
135.74
135.136
134.628
134.3
133.822
133.218
132.797
132.501
131.988
131.424
131.053
130.784
130.317
129.817
129.41
129.027
128.641
128.275
127.918
127.545
127.172
126.815
126.478
126.151
125.823
125.499
125.188
124.889
124.601
124.324
124.058
123.802
123.557
123.324
123.1
122.885
122.68
122.486
122.302
122.129
121.967
121.814
121.671
162.708
162.582
162.458
162.335
162.214
162.095
161.975
161.857
161.738
161.618
161.499
161.378
161.256
161.133
161.007
160.879
160.748
160.613
160.475
160.332
160.184
160.031
159.873
159.707
159.535
159.356
159.168
158.971
158.766
158.551
158.327
158.092
157.846
157.589
157.321
157.04
156.747
156.442
156.124
155.793
155.45
155.095
154.726
154.345
153.951
153.544
153.124
152.692
152.248
151.792
151.326
150.848
150.361
149.865
149.359
148.846
148.327
147.802
147.273
146.743
146.21
145.674
145.142
144.617
144.084
143.542
143.024
142.519
141.973
141.414
140.935
140.447
139.863
139.302
138.876
138.382
137.758
137.247
136.853
136.328
135.703
135.267
134.878
134.306
133.732
133.369
132.959
132.357
131.86
131.559
131.131
130.54
130.096
129.834
129.451
128.916
128.467
128.091
127.722
127.351
126.989
126.635
126.285
125.941
125.607
125.286
124.974
124.672
124.38
124.099
123.829
123.569
123.319
123.081
122.858
122.646
122.443
122.25
122.066
121.893
121.73
121.577
121.433
121.299
121.175
162.672
162.554
162.437
162.321
162.207
162.093
161.979
161.865
161.751
161.636
161.52
161.403
161.284
161.163
161.04
160.913
160.784
160.65
160.512
160.369
160.221
160.067
159.907
159.74
159.566
159.384
159.193
158.993
158.784
158.565
158.335
158.094
157.843
157.58
157.304
157.017
156.716
156.403
156.076
155.737
155.384
155.018
154.64
154.247
153.842
153.424
152.992
152.548
152.092
151.623
151.142
150.651
150.149
149.637
149.116
148.587
148.05
147.506
146.957
146.404
145.848
145.289
144.732
144.178
143.618
143.056
142.51
141.97
141.404
140.836
140.323
139.804
139.214
138.637
138.177
137.672
137.047
136.493
136.08
135.569
134.93
134.438
134.054
133.515
132.902
132.483
132.114
131.545
130.989
130.642
130.287
129.714
129.21
128.901
128.597
128.075
127.59
127.199
126.84
126.479
126.119
125.769
125.431
125.1
124.777
124.464
124.164
123.877
123.6
123.335
123.08
122.833
122.6
122.381
122.175
121.98
121.795
121.62
121.455
121.3
121.154
121.019
120.892
120.776
120.668
162.761
162.648
162.536
162.425
162.315
162.206
162.096
161.987
161.877
161.767
161.656
161.543
161.428
161.312
161.193
161.071
160.946
160.817
160.684
160.546
160.403
160.254
160.099
159.937
159.768
159.592
159.407
159.213
159.009
158.796
158.572
158.338
158.092
157.835
157.565
157.283
156.989
156.681
156.36
156.026
155.678
155.316
154.941
154.553
154.15
153.735
153.306
152.863
152.408
151.939
151.459
150.967
150.463
149.948
149.423
148.888
148.343
147.791
147.231
146.665
146.094
145.519
144.94
144.361
143.782
143.199
142.617
142.045
141.475
140.89
140.309
139.764
139.215
138.617
138.029
137.534
137.011
136.387
135.803
135.363
134.854
134.215
133.674
133.277
132.763
132.132
131.66
131.299
130.769
130.179
129.778
129.457
128.928
128.385
128.022
127.744
127.265
126.769
126.361
125.999
125.646
125.292
124.946
124.612
124.29
123.977
123.675
123.385
123.11
122.847
122.595
122.349
122.116
121.899
121.695
121.504
121.324
121.154
120.995
120.845
120.706
120.576
120.456
120.345
120.244
120.151
162.739
162.632
162.525
162.42
162.315
162.209
162.104
161.999
161.892
161.785
161.677
161.566
161.454
161.339
161.222
161.101
160.976
160.848
160.715
160.577
160.433
160.283
160.127
159.963
159.792
159.612
159.424
159.227
159.02
158.803
158.575
158.335
158.085
157.822
157.546
157.258
156.957
156.643
156.315
155.973
155.617
155.247
154.864
154.466
154.054
153.629
153.19
152.738
152.272
151.794
151.302
150.799
150.284
149.757
149.22
148.672
148.116
147.55
146.976
146.396
145.81
145.218
144.622
144.025
143.425
142.823
142.222
141.626
141.031
140.428
139.832
139.257
138.681
138.074
137.477
136.947
136.402
135.778
135.176
134.705
134.189
133.553
132.977
132.556
132.055
131.422
130.902
130.529
130.031
129.426
128.977
128.658
128.174
127.614
127.204
126.912
126.479
125.991
125.573
125.203
124.85
124.501
124.159
123.829
123.512
123.207
122.913
122.633
122.369
122.118
121.874
121.638
121.418
121.214
121.024
120.845
120.678
120.521
120.374
120.239
120.113
119.997
119.891
119.795
119.707
119.628
119.558
119.497
162.724
162.622
162.52
162.419
162.317
162.216
162.114
162.012
161.908
161.804
161.697
161.589
161.478
161.365
161.248
161.128
161.004
160.876
160.742
160.603
160.459
160.307
160.149
159.984
159.81
159.628
159.437
159.237
159.026
158.805
158.572
158.329
158.073
157.805
157.524
157.23
156.923
156.602
156.267
155.918
155.555
155.177
154.786
154.38
153.96
153.526
153.078
152.617
152.142
151.654
151.153
150.639
150.114
149.577
149.029
148.47
147.903
147.325
146.74
146.147
145.548
144.942
144.332
143.719
143.103
142.485
141.867
141.251
140.634
140.016
139.403
138.803
138.202
137.585
136.978
136.416
135.847
135.22
134.61
134.106
133.575
132.944
132.347
131.899
131.399
130.773
130.219
129.823
129.343
128.736
128.246
127.906
127.454
126.892
126.446
126.122
125.718
125.25
124.829
124.452
124.095
123.748
123.409
123.082
122.77
122.471
122.183
121.91
121.654
121.413
121.176
120.948
120.738
120.545
120.366
120.198
120.042
119.896
119.762
119.638
119.525
119.422
119.328
119.245
119.17
119.105
119.048
119
162.714
162.616
162.518
162.421
162.323
162.225
162.126
162.026
161.924
161.822
161.717
161.61
161.501
161.388
161.272
161.152
161.028
160.9
160.766
160.626
160.48
160.328
160.168
160
159.824
159.64
159.446
159.242
159.027
158.802
158.566
158.318
158.057
157.784
157.498
157.199
156.885
156.559
156.218
155.862
155.492
155.108
154.709
154.296
153.868
153.426
152.97
152.5
152.017
151.52
151.01
150.488
149.953
149.407
148.85
148.282
147.704
147.117
146.521
145.918
145.307
144.69
144.068
143.442
142.813
142.181
141.548
140.915
140.282
139.648
139.019
138.398
137.777
137.149
136.532
135.945
135.352
134.724
134.112
133.573
133.017
132.388
131.78
131.3
130.787
130.167
129.592
129.17
128.69
128.089
127.569
127.204
126.763
126.209
125.74
125.383
124.988
124.54
124.121
123.737
123.375
123.026
122.688
122.363
122.054
121.758
121.476
121.208
120.96
120.726
120.499
120.28
120.079
119.895
119.725
119.566
119.419
119.284
119.159
119.046
118.944
118.853
118.771
118.699
118.637
118.584
118.54
118.505
162.708
162.613
162.519
162.424
162.329
162.234
162.137
162.039
161.94
161.838
161.735
161.629
161.521
161.409
161.293
161.174
161.049
160.92
160.785
160.645
160.498
160.343
160.182
160.012
159.834
159.647
159.45
159.243
159.025
158.796
158.556
158.304
158.039
157.761
157.47
157.165
156.847
156.514
156.168
155.806
155.43
155.04
154.634
154.214
153.779
153.33
152.867
152.39
151.898
151.394
150.876
150.346
149.803
149.249
148.683
148.106
147.52
146.924
146.32
145.707
145.087
144.459
143.827
143.191
142.551
141.908
141.263
140.617
139.971
139.325
138.682
138.046
137.409
136.769
136.138
135.524
134.908
134.274
133.657
133.085
132.504
131.875
131.267
130.754
130.219
129.602
129.02
128.569
128.077
127.484
126.952
126.56
126.113
125.572
125.092
124.707
124.306
123.872
123.456
123.066
122.698
122.345
122.005
121.679
121.37
121.076
120.796
120.532
120.287
120.06
119.842
119.631
119.437
119.261
119.1
118.95
118.812
118.686
118.571
118.467
118.375
118.294
118.223
118.163
118.112
118.07
118.038
118.014
118
162.612
162.521
162.429
162.336
162.242
162.148
162.051
161.954
161.854
161.751
161.646
161.538
161.427
161.311
161.191
161.067
160.937
160.801
160.66
160.511
160.355
160.192
160.02
159.84
159.65
159.45
159.24
159.019
158.787
158.543
158.287
158.018
157.736
157.44
157.131
156.808
156.47
156.118
155.751
155.369
154.973
154.562
154.136
153.695
153.239
152.769
152.285
151.787
151.275
150.75
150.213
149.663
149.101
148.528
147.944
147.349
146.746
146.135
145.515
144.887
144.251
143.61
142.965
142.319
141.669
141.017
140.361
139.702
139.043
138.385
137.731
137.079
136.428
135.783
135.149
134.513
133.871
133.246
132.648
132.045
131.417
130.813
130.268
129.708
129.095
128.517
128.032
127.519
126.935
126.404
125.98
125.514
124.987
124.506
124.095
123.681
123.253
122.839
122.444
122.07
121.713
121.37
121.042
120.731
120.437
120.158
119.895
119.65
119.426
119.215
119.011
118.821
118.65
118.495
118.353
118.223
118.105
117.999
117.904
117.821
117.749
117.688
117.637
117.597
117.565
117.544
117.531
117.527
162.612
162.523
162.433
162.342
162.25
162.157
162.062
161.966
161.867
161.765
161.661
161.553
161.441
161.326
161.206
161.081
160.95
160.814
160.671
160.521
160.364
160.199
160.025
159.842
159.65
159.448
159.235
159.011
158.776
158.528
158.268
157.996
157.71
157.41
157.097
156.769
156.426
156.069
155.698
155.311
154.91
154.493
154.061
153.614
153.153
152.677
152.187
151.683
151.165
150.634
150.089
149.533
148.966
148.387
147.797
147.195
146.585
145.968
145.344
144.713
144.074
143.425
142.77
142.114
141.455
140.793
140.128
139.462
138.793
138.125
137.458
136.793
136.13
135.475
134.827
134.179
133.531
132.898
132.281
131.66
131.029
130.421
129.845
129.259
128.648
128.071
127.551
127.013
126.438
125.912
125.452
124.966
124.451
123.972
123.539
123.11
122.683
122.267
121.868
121.488
121.126
120.779
120.448
120.134
119.838
119.559
119.296
119.051
118.827
118.621
118.424
118.237
118.067
117.916
117.781
117.657
117.546
117.447
117.36
117.285
117.221
117.168
117.126
117.094
117.072
117.059
117.056
117.061
162.525
162.437
162.348
162.257
162.165
162.071
161.976
161.877
161.776
161.672
161.565
161.453
161.337
161.217
161.091
160.96
160.823
160.679
160.528
160.369
160.202
160.026
159.842
159.647
159.443
159.227
159.001
158.763
158.512
158.249
157.973
157.683
157.381
157.062
156.731
156.385
156.023
155.647
155.256
154.849
154.428
153.991
153.54
153.073
152.591
152.096
151.587
151.064
150.528
149.978
149.416
148.844
148.262
147.669
147.065
146.448
145.826
145.196
144.558
143.913
143.26
142.598
141.928
141.256
140.583
139.91
139.237
138.563
137.889
137.215
136.541
135.868
135.203
134.542
133.883
133.228
132.584
131.951
131.317
130.682
130.067
129.47
128.867
128.258
127.68
127.131
126.568
125.996
125.467
124.976
124.473
123.966
123.485
123.033
122.592
122.16
121.741
121.336
120.951
120.584
120.233
119.897
119.58
119.281
118.999
118.735
118.49
118.264
118.058
117.867
117.685
117.517
117.369
117.237
117.119
117.012
116.919
116.838
116.769
116.711
116.665
116.63
116.606
116.591
116.586
116.59
116.603
162.439
162.352
162.262
162.171
162.078
161.983
161.885
161.785
161.681
161.573
161.462
161.346
161.225
161.099
160.967
160.829
160.684
160.531
160.371
160.203
160.026
159.839
159.643
159.436
159.218
158.989
158.748
158.495
158.229
157.951
157.657
157.351
157.03
156.695
156.345
155.98
155.6
155.204
154.794
154.367
153.927
153.471
153
152.514
152.014
151.501
150.976
150.437
149.884
149.319
148.744
148.157
147.56
146.951
146.33
145.695
145.052
144.404
143.75
143.092
142.427
141.754
141.077
140.398
139.718
139.036
138.354
137.672
136.99
136.309
135.631
134.957
134.286
133.618
132.955
132.301
131.653
131.007
130.368
129.744
129.133
128.52
127.911
127.328
126.759
126.183
125.611
125.069
124.552
124.036
123.528
123.042
122.577
122.124
121.685
121.26
120.85
120.459
120.085
119.729
119.39
119.068
118.766
118.481
118.214
117.965
117.737
117.529
117.341
117.167
117.003
116.854
116.723
116.608
116.505
116.416
116.339
116.274
116.222
116.182
116.152
116.134
116.125
116.127
116.137
116.157
116.184
116.22
162.441
162.354
162.265
162.175
162.083
161.988
161.891
161.791
161.687
161.58
161.468
161.352
161.23
161.104
160.971
160.832
160.686
160.532
160.371
160.201
160.023
159.835
159.636
159.428
159.208
158.977
158.734
158.478
158.21
157.928
157.633
157.323
157
156.661
156.308
155.939
155.556
155.157
154.743
154.313
153.869
153.411
152.938
152.45
151.947
151.433
150.905
150.364
149.809
149.237