/*--------------------------------*- C++ -*----------------------------------*\
| =========                 |                                                 |
| \\      /  F ield         | OpenFOAM: The Open Source CFD Toolbox           |
|  \\    /   O peration     | Version:  v1706                                 |
|   \\  /    A nd           | Web:      www.OpenFOAM.com                      |
|    \\/     M anipulation  |                                                 |
\*---------------------------------------------------------------------------*/
FoamFile
{
    version     2.0;
    format      ascii;
    class       volScalarField;
    location    "3.6e-05";
    object      rho;
}
// * * * * * * * * * * * * * * * * * * * * * * * * * * * * * * * * * * * * * //

dimensions      [1 -3 0 0 0 0 0];


internalField   nonuniform List<scalar> 
29871
(
0.000514797
0.000515283
0.000515791
0.000516319
0.000516866
0.00051745
0.000518119
0.000518937
0.000519961
0.000521235
0.000522777
0.000524585
0.000526639
0.000528893
0.000531375
0.000534043
0.000536776
0.000539448
0.000541977
0.000544352
0.000546666
0.000549077
0.000551718
0.000554658
0.000557911
0.000561447
0.000565254
0.000569168
0.000574113
0.000581531
0.000591569
0.000603853
0.000617849
0.000633049
0.000649026
0.000665426
0.000681946
0.000698317
0.000714315
0.000729762
0.000744513
0.000758444
0.000771448
0.000783432
0.000794311
0.000804025
0.000812543
0.000819859
0.000826
0.000831012
0.000834983
0.000838003
0.000840172
0.000841675
0.000842413
0.000842849
0.000842617
0.000841965
0.000841148
0.000840129
0.000838849
0.00083732
0.00083555
0.000833523
0.000831365
0.000829094
0.00082654
0.000823773
0.000820969
0.000818033
0.000814867
0.000811558
0.00080815
0.000804587
0.000800892
0.000797105
0.000793218
0.000789232
0.000785171
0.000781057
0.000776901
0.000772707
0.000768463
0.000764146
0.000759728
0.000755185
0.000750501
0.000745674
0.000740709
0.00073562
0.00073043
0.000725167
0.000719853
0.000714502
0.000709119
0.000703702
0.00069825
0.00069276
0.000687232
0.000681659
0.000676038
0.000670364
0.000664624
0.000658796
0.000652854
0.000529225
0.000531976
0.00053516
0.000538764
0.000542833
0.000547377
0.000552337
0.000557641
0.000563269
0.000569284
0.000575825
0.000583078
0.000591196
0.000600395
0.000610537
0.00062329
0.000640318
0.000662101
0.00068853
0.00071919
0.000753521
0.000790927
0.000830852
0.000872804
0.000916338
0.000961039
0.00100651
0.00105254
0.00109777
0.00114018
0.00117962
0.00121643
0.00125094
0.00128331
0.00131362
0.00134188
0.00136825
0.00139311
0.00141685
0.00143975
0.00146195
0.0014835
0.00150434
0.00152435
0.00154342
0.0015614
0.00157812
0.0015934
0.00160711
0.00161913
0.0016294
0.00163791
0.0016447
0.00164981
0.00165335
0.00165597
0.0016563
0.00165604
0.00165492
0.00165314
0.00165077
0.00164787
0.00164454
0.00164076
0.00163672
0.00163252
0.00162786
0.0016232
0.00161851
0.00161352
0.0016082
0.00160288
0.00159724
0.00159132
0.00158542
0.00157931
0.00157285
0.00156621
0.00155948
0.00155256
0.00154544
0.00153819
0.00153085
0.00152336
0.00151566
0.00150774
0.00149963
0.00149137
0.001483
0.00147451
0.0014659
0.00145717
0.00144833
0.00143936
0.00143025
0.00142098
0.00141154
0.00140192
0.00139211
0.00138208
0.00137181
0.00136128
0.00135047
0.00133932
0.00132776
0.000567937
0.00057531
0.000583432
0.000592478
0.000602732
0.000614194
0.000628176
0.00064666
0.000670489
0.000699854
0.000734548
0.000774168
0.000818214
0.000866156
0.000917455
0.000971737
0.00102687
0.00108084
0.00113295
0.00118302
0.00123098
0.00127671
0.00132011
0.00136102
0.00139927
0.00143464
0.00146695
0.00149604
0.00152233
0.00154634
0.00156829
0.00158845
0.0016071
0.0016244
0.00164045
0.0016552
0.00166815
0.00167898
0.0016881
0.00169601
0.0017031
0.00170965
0.00171586
0.00172188
0.00172785
0.00173387
0.00174001
0.0017463
0.00175271
0.00175919
0.00176565
0.00177194
0.00177798
0.00178363
0.00178876
0.00179337
0.00179736
0.00180071
0.00180332
0.00180532
0.00180676
0.00180784
0.00180806
0.00180782
0.00180767
0.00180618
0.00180452
0.00180447
0.00180328
0.00180003
0.00179794
0.00179672
0.00179429
0.00179118
0.00178895
0.00178647
0.00178347
0.00178074
0.00177821
0.00177544
0.00177241
0.00176935
0.00176627
0.00176305
0.00175961
0.00175598
0.00175221
0.00174825
0.00174402
0.00173955
0.0017349
0.00173013
0.00172526
0.00172029
0.00171523
0.00171008
0.00170483
0.00169949
0.00169403
0.00168845
0.00168272
0.00167684
0.00167076
0.00166446
0.00165788
0.00165092
0.000699988
0.000735943
0.000777618
0.000824542
0.000876163
0.000931975
0.000990198
0.0010484
0.00110539
0.0011605
0.00121328
0.00126335
0.00131044
0.00135436
0.00139498
0.00143239
0.00146637
0.00149657
0.00152284
0.00154526
0.00156443
0.00158122
0.00159646
0.00161071
0.00162428
0.00163715
0.00164903
0.00165895
0.00166686
0.0016733
0.00167874
0.00168347
0.00168776
0.00169189
0.00169625
0.0017013
0.00170733
0.00171405
0.00172081
0.0017271
0.00173276
0.00173784
0.00174248
0.00174682
0.00175097
0.00175504
0.00175914
0.00176334
0.0017677
0.00177228
0.00177708
0.00178204
0.00178714
0.00179228
0.00179732
0.00180214
0.00180664
0.00181069
0.00181416
0.00181706
0.00181931
0.00182094
0.00182184
0.00182203
0.00182209
0.00182073
0.00181885
0.00181862
0.00181744
0.00181379
0.00181104
0.00180928
0.00180639
0.00180259
0.00179958
0.00179634
0.00179253
0.001789
0.00178565
0.00178199
0.00177805
0.00177411
0.00177016
0.00176603
0.0017617
0.00175724
0.00175276
0.00174828
0.00174376
0.0017391
0.00173431
0.00172942
0.00172445
0.00171939
0.00171427
0.00170907
0.00170381
0.00169848
0.00169308
0.00168761
0.00168206
0.00167641
0.00167064
0.00166477
0.00165884
0.0016529
0.00108326
0.00114191
0.00119836
0.00125207
0.00130262
0.00134972
0.00139328
0.0014331
0.00146882
0.00150027
0.00152746
0.00155058
0.00156996
0.00158626
0.00160027
0.00161264
0.00162376
0.00163382
0.00164284
0.00165063
0.00165661
0.0016608
0.00166365
0.00166558
0.00166701
0.00166841
0.00167035
0.00167333
0.00167766
0.00168277
0.00168779
0.00169212
0.00169561
0.00169831
0.00170039
0.00170205
0.00170358
0.00170579
0.00170918
0.00171334
0.00171768
0.00172177
0.00172545
0.0017287
0.00173157
0.00173416
0.00173659
0.001739
0.00174147
0.00174406
0.00174688
0.00174998
0.00175328
0.0017568
0.00176055
0.0017644
0.00176822
0.00177199
0.00177557
0.00177882
0.00178173
0.00178421
0.00178616
0.0017876
0.00178854
0.00178905
0.00178867
0.00178749
0.00178765
0.00178719
0.00178411
0.00178185
0.00178127
0.0017789
0.00177542
0.0017729
0.00176971
0.00176617
0.00176368
0.00176125
0.001758
0.00175427
0.00175107
0.00174794
0.0017445
0.00174066
0.00173669
0.00173279
0.00172889
0.00172487
0.00172077
0.00171661
0.00171238
0.00170807
0.00170367
0.00169919
0.00169464
0.00169001
0.00168532
0.00168054
0.00167568
0.00167071
0.00166563
0.00166045
0.00165511
0.0016496
0.00164396
0.0014854
0.00151638
0.00154285
0.00156503
0.00158343
0.00159886
0.0016121
0.00162364
0.00163377
0.00164269
0.00165036
0.00165659
0.00166099
0.00166383
0.00166552
0.00166651
0.00166688
0.00166719
0.00166762
0.00166851
0.00167009
0.00167197
0.00167361
0.00167453
0.00167459
0.00167441
0.00167404
0.00167404
0.00167504
0.00167734
0.00168033
0.00168338
0.00168607
0.00168819
0.0016897
0.00169073
0.00169147
0.00169182
0.00169229
0.00169339
0.0016952
0.00169743
0.00169979
0.00170213
0.00170432
0.00170626
0.00170795
0.00170953
0.00171108
0.00171257
0.00171411
0.00171592
0.0017179
0.00171996
0.00172234
0.00172501
0.00172771
0.00173053
0.00173345
0.00173623
0.00173885
0.00174135
0.00174345
0.00174513
0.00174656
0.00174765
0.00174793
0.00174748
0.00174717
0.00174736
0.00174604
0.00174392
0.00174264
0.00174099
0.00173919
0.00173696
0.00173297
0.00172964
0.00172769
0.00172617
0.00172301
0.00171887
0.00171607
0.00171375
0.00171061
0.00170659
0.00170291
0.00169957
0.00169609
0.00169229
0.00168841
0.00168462
0.00168081
0.0016769
0.00167289
0.00166882
0.00166468
0.00166048
0.00165622
0.00165189
0.00164747
0.00164296
0.00163835
0.00163364
0.00162884
0.0016239
0.00161882
0.00160556
0.00161928
0.00163103
0.00164117
0.00164987
0.00165712
0.00166263
0.00166636
0.00166846
0.00166959
0.00167007
0.00167015
0.00167004
0.00167006
0.00167046
0.00167144
0.0016726
0.00167324
0.00167322
0.00167266
0.0016717
0.00167051
0.00166923
0.00166893
0.00166912
0.00166952
0.00166967
0.00166945
0.00166885
0.00166805
0.00166712
0.001666
0.00166577
0.00166616
0.00166726
0.00166881
0.00167043
0.00167182
0.00167288
0.00167367
0.00167389
0.0016738
0.00167381
0.0016742
0.001675
0.00167603
0.00167731
0.00167872
0.00168012
0.00168129
0.00168223
0.00168317
0.00168393
0.00168441
0.00168507
0.00168599
0.00168673
0.0016876
0.00168896
0.0016904
0.00169183
0.00169362
0.00169547
0.00169715
0.00169903
0.00170079
0.00170212
0.00170339
0.00170462
0.00170526
0.0017052
0.00170483
0.00170485
0.00170484
0.00170321
0.00170106
0.00169968
0.0016999
0.00169805
0.00169343
0.00168997
0.00168847
0.00168815
0.00168525
0.00168055
0.0016775
0.00167585
0.00167315
0.00166886
0.00166538
0.00166277
0.00165949
0.00165549
0.00165207
0.00164885
0.00164541
0.00164172
0.00163805
0.0016344
0.00163068
0.00162687
0.00162301
0.0016191
0.00161514
0.0016111
0.00160698
0.00160276
0.00159846
0.00159408
0.0015896
0.00167285
0.00167412
0.00167437
0.00167435
0.00167417
0.00167418
0.00167465
0.00167555
0.00167619
0.00167618
0.00167576
0.00167487
0.00167353
0.00167197
0.00167039
0.00166977
0.00166958
0.00166937
0.00166899
0.00166813
0.00166689
0.00166543
0.00166382
0.00166225
0.00166083
0.00165988
0.00165923
0.00165859
0.00165781
0.00165704
0.00165609
0.00165477
0.00165358
0.00165275
0.0016526
0.00165282
0.00165339
0.00165423
0.00165502
0.00165568
0.00165608
0.00165601
0.00165556
0.00165541
0.00165546
0.00165541
0.00165552
0.0016559
0.00165648
0.00165704
0.00165727
0.00165756
0.00165796
0.0016578
0.00165747
0.00165767
0.00165767
0.00165724
0.00165741
0.00165787
0.00165793
0.00165835
0.00165925
0.00165973
0.00166045
0.0016616
0.00166224
0.00166275
0.00166368
0.00166427
0.00166421
0.00166379
0.00166362
0.00166396
0.00166288
0.00166056
0.00165918
0.00166
0.00165881
0.00165427
0.00165077
0.00164935
0.00164977
0.0016474
0.00164233
0.00163892
0.00163756
0.00163566
0.00163135
0.00162763
0.00162535
0.00162217
0.00161809
0.00161502
0.00161246
0.00160903
0.00160525
0.00160218
0.00159906
0.0015957
0.00159218
0.00158861
0.00158507
0.00158153
0.00157794
0.00157427
0.00157054
0.00156674
0.00156289
0.00155898
0.00168016
0.00168016
0.00167959
0.00167851
0.001677
0.00167529
0.00167388
0.00167313
0.00167263
0.00167202
0.00167112
0.00166991
0.00166838
0.00166662
0.0016647
0.00166282
0.00166129
0.00166009
0.00165917
0.00165823
0.00165714
0.00165587
0.00165445
0.00165285
0.00165122
0.00164975
0.00164853
0.00164745
0.00164645
0.00164557
0.00164461
0.00164336
0.001642
0.00164069
0.00163964
0.00163887
0.00163839
0.00163831
0.00163838
0.00163838
0.00163854
0.00163862
0.00163786
0.00163729
0.00163732
0.00163666
0.00163572
0.00163524
0.00163493
0.00163481
0.00163428
0.00163367
0.00163382
0.00163339
0.001632
0.00163166
0.00163159
0.00162995
0.00162896
0.00162906
0.00162809
0.00162704
0.0016271
0.00162655
0.00162592
0.00162622
0.00162618
0.0016256
0.00162571
0.00162618
0.00162578
0.00162488
0.00162458
0.00162502
0.00162401
0.00162171
0.00162034
0.00162112
0.00162037
0.00161625
0.00161299
0.00161159
0.00161227
0.00161032
0.0016051
0.00160152
0.0016004
0.00159931
0.00159502
0.00159097
0.0015888
0.00158594
0.00158194
0.00157894
0.00157682
0.00157345
0.00156963
0.00156669
0.00156433
0.00156147
0.001558
0.00155468
0.00155157
0.00154843
0.00154525
0.00154202
0.00153873
0.00153543
0.0015321
0.00152875
0.00167612
0.00167527
0.00167415
0.0016727
0.00167097
0.00166903
0.00166694
0.00166498
0.00166336
0.00166206
0.0016609
0.00165971
0.00165839
0.00165692
0.00165529
0.00165352
0.0016518
0.00165026
0.00164895
0.00164781
0.00164672
0.00164558
0.00164431
0.00164289
0.00164134
0.00163974
0.0016382
0.00163675
0.0016354
0.00163417
0.00163295
0.00163162
0.0016302
0.00162872
0.00162724
0.00162584
0.00162455
0.0016236
0.00162287
0.00162206
0.00162162
0.00162144
0.00162034
0.00161937
0.00161935
0.00161843
0.00161666
0.00161563
0.00161466
0.00161381
0.00161271
0.0016112
0.00161067
0.00161008
0.001608
0.00160691
0.00160687
0.00160468
0.00160253
0.00160235
0.00160103
0.00159853
0.00159774
0.00159677
0.00159478
0.00159414
0.00159355
0.00159172
0.00159098
0.00159139
0.00159027
0.00158848
0.00158799
0.00158858
0.0015872
0.00158471
0.00158346
0.00158423
0.00158333
0.00157958
0.00157677
0.00157565
0.00157656
0.00157428
0.00156914
0.00156582
0.00156514
0.00156442
0.00155995
0.00155587
0.0015539
0.00155159
0.00154768
0.00154463
0.00154276
0.00153954
0.00153577
0.00153284
0.00153082
0.00152879
0.00152554
0.00152222
0.0015193
0.00151655
0.00151387
0.00151106
0.00150816
0.00150532
0.00150253
0.00149974
0.00166577
0.00166426
0.00166289
0.00166153
0.00166006
0.00165848
0.00165673
0.00165489
0.00165315
0.0016516
0.00165025
0.00164902
0.00164781
0.00164653
0.00164515
0.00164365
0.00164205
0.00164046
0.00163893
0.00163753
0.00163623
0.00163498
0.0016337
0.00163232
0.00163084
0.00162925
0.00162759
0.00162592
0.00162428
0.0016227
0.00162115
0.00161959
0.00161799
0.00161632
0.00161458
0.00161282
0.001611
0.00160937
0.00160799
0.00160645
0.0016052
0.00160443
0.001603
0.00160157
0.00160107
0.00159988
0.00159767
0.00159634
0.00159498
0.00159324
0.00159178
0.0015897
0.00158815
0.00158725
0.00158496
0.00158302
0.00158248
0.0015803
0.00157747
0.00157662
0.00157524
0.00157194
0.0015702
0.00156918
0.00156631
0.00156444
0.00156357
0.00156097
0.00155914
0.00155922
0.0015574
0.00155472
0.00155402
0.00155468
0.00155248
0.00154967
0.00154862
0.0015495
0.00154791
0.00154438
0.0015421
0.00154155
0.00154249
0.00153924
0.00153456
0.00153198
0.00153196
0.00153077
0.00152612
0.00152252
0.00152113
0.00151926
0.0015153
0.00151219
0.00151045
0.00150745
0.00150385
0.001501
0.0014991
0.00149786
0.00149511
0.00149176
0.00148887
0.00148636
0.00148399
0.00148161
0.00147922
0.00147685
0.00147457
0.00147231
0.00165644
0.00165457
0.00165289
0.0016514
0.00165004
0.00164872
0.00164736
0.00164591
0.00164437
0.00164278
0.00164122
0.00163975
0.00163839
0.00163711
0.00163585
0.00163455
0.00163318
0.00163172
0.00163019
0.00162863
0.00162709
0.0016256
0.00162415
0.00162272
0.00162126
0.00161973
0.00161811
0.00161639
0.00161459
0.00161275
0.00161089
0.00160903
0.00160716
0.00160528
0.00160336
0.00160137
0.0015993
0.00159715
0.00159506
0.0015931
0.00159099
0.001589
0.00158755
0.00158572
0.0015837
0.00158253
0.00158096
0.00157848
0.00157686
0.0015752
0.0015727
0.00157086
0.00156858
0.00156609
0.00156461
0.0015623
0.00155958
0.00155831
0.00155623
0.001553
0.00155139
0.0015499
0.00154636
0.00154387
0.00154265
0.00153948
0.00153656
0.00153535
0.00153259
0.00152969
0.00152897
0.00152685
0.00152356
0.00152257
0.0015228
0.00151974
0.00151672
0.00151598
0.00151675
0.00151413
0.00151076
0.00150907
0.00150935
0.00150938
0.0015052
0.00150153
0.00149996
0.00150051
0.00149807
0.00149367
0.00149093
0.00149046
0.00148849
0.00148438
0.00148138
0.00147987
0.00147716
0.00147371
0.00147099
0.00146926
0.00146862
0.00146652
0.00146317
0.0014603
0.00145796
0.00145587
0.00145387
0.00145191
0.00145002
0.00144819
0.00144638
0.00164497
0.00164331
0.00164169
0.00164016
0.00163874
0.00163741
0.00163611
0.0016348
0.00163343
0.00163201
0.00163055
0.0016291
0.00162768
0.0016263
0.00162497
0.00162364
0.00162229
0.00162087
0.00161938
0.00161782
0.00161622
0.0016146
0.00161298
0.00161136
0.00160973
0.00160806
0.00160633
0.0016045
0.00160259
0.00160058
0.00159851
0.00159639
0.00159423
0.00159204
0.00158981
0.00158753
0.00158517
0.00158273
0.00158027
0.00157783
0.00157526
0.00157276
0.00157061
0.00156825
0.00156567
0.00156387
0.00156179
0.00155899
0.00155703
0.00155498
0.00155199
0.00154975
0.00154735
0.00154421
0.00154207
0.0015397
0.0015364
0.00153434
0.00153225
0.00152877
0.00152644
0.00152474
0.00152122
0.00151817
0.00151664
0.00151351
0.00150989
0.00150823
0.00150564
0.00150195
0.0015003
0.00149833
0.0014947
0.00149296
0.00149247
0.00148908
0.00148597
0.00148552
0.00148559
0.00148201
0.00147892
0.00147786
0.00147875
0.00147681
0.00147279
0.00147023
0.00146969
0.00147002
0.00146647
0.0014627
0.00146101
0.00146123
0.00145865
0.00145459
0.00145199
0.00145097
0.00144855
0.00144512
0.00144247
0.00144108
0.00144109
0.00143933
0.00143601
0.00143326
0.00143116
0.00142938
0.00142773
0.00142616
0.00142466
0.00142323
0.00142183
0.00142044
0.00141909
0.00163332
0.00163186
0.00163038
0.00162891
0.0016275
0.00162614
0.00162483
0.00162354
0.00162224
0.0016209
0.00161952
0.00161811
0.00161668
0.00161525
0.00161384
0.00161243
0.00161101
0.00160955
0.00160803
0.00160645
0.00160479
0.00160308
0.00160132
0.00159953
0.00159771
0.00159585
0.00159394
0.00159196
0.00158988
0.00158771
0.00158544
0.00158309
0.00158067
0.00157819
0.00157566
0.00157307
0.0015704
0.00156766
0.00156488
0.00156202
0.00155908
0.00155618
0.00155341
0.00155049
0.00154752
0.00154507
0.00154238
0.00153924
0.0015369
0.00153436
0.00153101
0.00152844
0.00152581
0.00152227
0.00151959
0.00151702
0.00151337
0.00151062
0.00150835
0.00150473
0.00150174
0.00149978
0.00149636
0.00149283
0.00149097
0.001488
0.00148398
0.00148185
0.0014795
0.00147545
0.00147291
0.00147119
0.00146755
0.00146477
0.00146373
0.00146065
0.00145728
0.00145664
0.00145581
0.00145186
0.00144907
0.00144864
0.00144909
0.00144571
0.00144224
0.00144063
0.00144105
0.00144001
0.00143614
0.00143332
0.00143258
0.00143287
0.0014296
0.0014259
0.00142398
0.00142368
0.00142138
0.00141789
0.00141538
0.00141425
0.00141457
0.00141311
0.00141011
0.00140762
0.00140582
0.00140435
0.00140303
0.0014018
0.00140064
0.00139956
0.00139852
0.00139752
0.00139656
0.00162431
0.00162295
0.00162161
0.00162026
0.00161889
0.00161751
0.00161613
0.00161477
0.00161344
0.00161213
0.00161082
0.0016095
0.00160814
0.00160675
0.00160531
0.00160385
0.00160237
0.00160087
0.00159935
0.0015978
0.0015962
0.00159454
0.0015928
0.00159099
0.00158911
0.00158716
0.00158516
0.0015831
0.00158098
0.0015788
0.00157653
0.00157416
0.00157169
0.00156913
0.00156646
0.00156372
0.00156089
0.001558
0.00155503
0.00155199
0.00154888
0.00154569
0.00154242
0.00153915
0.00153588
0.0015325
0.00152918
0.00152611
0.00152283
0.00151943
0.0015166
0.00151351
0.00150989
0.00150703
0.00150406
0.00150023
0.00149718
0.00149436
0.00149047
0.0014872
0.00148467
0.00148098
0.0014774
0.00147515
0.00147185
0.0014679
0.00146569
0.00146291
0.00145872
0.00145609
0.00145393
0.00144994
0.00144666
0.00144496
0.0014417
0.00143802
0.00143644
0.00143405
0.00143041
0.00142881
0.00142767
0.00142404
0.00142124
0.00142112
0.00142049
0.00141654
0.00141368
0.00141284
0.00141354
0.00141101
0.00140744
0.00140551
0.00140557
0.00140523
0.0014016
0.00139855
0.0013974
0.00139766
0.00139531
0.00139194
0.00138969
0.00138862
0.00138849
0.00138767
0.00138551
0.00138347
0.00138194
0.00138072
0.00137966
0.00137871
0.00137786
0.00137708
0.00137637
0.00137572
0.00137513
0.00161253
0.00161119
0.00160987
0.00160857
0.00160725
0.00160592
0.00160458
0.00160324
0.00160189
0.00160055
0.0015992
0.00159785
0.00159646
0.00159504
0.00159358
0.00159207
0.00159052
0.00158894
0.00158731
0.00158564
0.00158393
0.00158215
0.0015803
0.00157836
0.00157634
0.00157424
0.00157206
0.00156981
0.00156748
0.00156507
0.00156258
0.00156
0.00155732
0.00155453
0.00155163
0.00154864
0.00154555
0.00154237
0.00153912
0.00153578
0.00153237
0.00152888
0.00152532
0.00152171
0.00151806
0.00151433
0.00151066
0.00150706
0.00150332
0.00149966
0.00149629
0.00149269
0.00148889
0.00148569
0.00148231
0.00147828
0.00147499
0.00147187
0.0014678
0.00146419
0.0014614
0.00145763
0.00145363
0.00145109
0.00144786
0.00144362
0.00144099
0.00143838
0.00143422
0.00143106
0.00142899
0.00142536
0.0014215
0.00141959
0.00141688
0.00141279
0.00141044
0.00140875
0.00140522
0.00140237
0.00140122
0.00139846
0.00139535
0.00139463
0.00139345
0.0013898
0.00138724
0.00138697
0.00138705
0.00138363
0.00138058
0.00137935
0.00137998
0.00137865
0.00137515
0.00137279
0.00137221
0.00137265
0.00137028
0.00136733
0.00136545
0.00136438
0.00136383
0.00136321
0.00136197
0.00136056
0.00135937
0.00135841
0.00135759
0.0013569
0.00135631
0.00135583
0.00135542
0.00135509
0.00135483
0.00135467
0.00161034
0.00160892
0.00160753
0.00160615
0.00160479
0.00160343
0.00160207
0.00160073
0.00159941
0.0015981
0.0015968
0.0015955
0.00159419
0.00159285
0.0015915
0.00159014
0.00158876
0.00158736
0.00158595
0.00158451
0.00158303
0.00158151
0.00157993
0.0015783
0.00157662
0.00157488
0.00157309
0.00157123
0.00156931
0.00156732
0.00156524
0.00156307
0.00156081
0.00155845
0.00155601
0.00155347
0.00155085
0.00154813
0.00154532
0.00154241
0.0015394
0.00153628
0.00153305
0.00152972
0.00152629
0.00152278
0.00151917
0.00151549
0.00151173
0.0015079
0.00150401
0.00150006
0.00149606
0.00149207
0.00148807
0.00148401
0.00148005
0.0014762
0.00147221
0.00146824
0.00146465
0.00146087
0.00145673
0.00145323
0.0014498
0.00144557
0.0014418
0.00143877
0.0014349
0.00143064
0.00142784
0.00142464
0.00142026
0.0014172
0.00141469
0.00141072
0.00140703
0.00140493
0.00140177
0.00139759
0.00139524
0.00139305
0.00138912
0.00138596
0.00138449
0.00138162
0.00137793
0.00137619
0.00137461
0.00137144
0.00136931
0.00136825
0.00136559
0.00136302
0.00136264
0.00136183
0.00135845
0.00135585
0.00135507
0.00135576
0.00135374
0.00135061
0.00134871
0.0013483
0.00134851
0.00134667
0.00134434
0.00134278
0.00134178
0.00134107
0.00134046
0.0013397
0.00133885
0.00133807
0.0013374
0.00133685
0.00133642
0.0013361
0.00133588
0.00133577
0.00133573
0.00133578
0.00133594
0.00159824
0.00159687
0.00159552
0.00159418
0.00159286
0.00159154
0.00159022
0.0015889
0.00158759
0.00158627
0.00158496
0.00158364
0.00158231
0.00158096
0.00157959
0.00157819
0.00157676
0.00157531
0.00157382
0.0015723
0.00157074
0.00156913
0.00156746
0.00156573
0.00156394
0.00156208
0.00156016
0.00155816
0.00155608
0.00155393
0.00155169
0.00154936
0.00154693
0.0015444
0.00154176
0.00153903
0.0015362
0.00153327
0.00153024
0.00152711
0.00152388
0.00152054
0.00151709
0.00151355
0.0015099
0.00150616
0.00150233
0.00149841
0.00149442
0.00149036
0.00148624
0.00148206
0.00147784
0.00147359
0.00146932
0.00146502
0.00146078
0.00145658
0.00145231
0.00144816
0.0014442
0.0014401
0.0014359
0.00143217
0.00142843
0.00142412
0.00142027
0.00141702
0.00141306
0.00140869
0.00140569
0.00140247
0.00139806
0.00139464
0.00139214
0.00138844
0.00138434
0.00138205
0.00137932
0.00137515
0.00137223
0.00137037
0.00136698
0.00136322
0.00136147
0.0013594
0.00135564
0.00135297
0.00135193
0.0013495
0.00134631
0.00134469
0.00134335
0.00134105
0.00133953
0.00133831
0.00133585
0.00133354
0.00133265
0.00133275
0.00133087
0.00132841
0.00132676
0.00132603
0.00132575
0.0013247
0.0013231
0.00132182
0.00132091
0.00132022
0.00131965
0.00131913
0.00131863
0.0013182
0.00131785
0.00131758
0.00131742
0.00131736
0.00131738
0.00131753
0.00131778
0.00131813
0.00131859
0.00158625
0.00158491
0.00158358
0.00158227
0.00158096
0.00157966
0.00157835
0.00157703
0.00157571
0.00157438
0.00157304
0.00157169
0.00157032
0.00156893
0.00156751
0.00156605
0.00156457
0.00156304
0.00156147
0.00155986
0.0015582
0.00155648
0.00155471
0.00155286
0.00155095
0.00154896
0.0015469
0.00154475
0.00154252
0.00154021
0.0015378
0.0015353
0.0015327
0.00152999
0.00152718
0.00152426
0.00152124
0.00151811
0.00151488
0.00151155
0.00150812
0.00150458
0.00150094
0.00149721
0.00149337
0.00148944
0.00148542
0.00148133
0.00147716
0.00147292
0.00146861
0.00146426
0.00145987
0.00145545
0.00145099
0.00144652
0.00144207
0.00143764
0.0014332
0.00142886
0.00142462
0.00142031
0.00141605
0.0014121
0.00140811
0.00140378
0.00139989
0.00139642
0.00139239
0.00138804
0.00138488
0.00138163
0.00137728
0.00137359
0.00137106
0.00136761
0.0013633
0.0013607
0.0013583
0.00135441
0.00135093
0.00134913
0.00134637
0.00134242
0.00134007
0.00133857
0.00133535
0.00133198
0.00133062
0.00132918
0.00132591
0.00132334
0.00132242
0.00132107
0.00131875
0.00131694
0.00131529
0.00131347
0.00131213
0.00131137
0.00131013
0.00130844
0.00130698
0.00130597
0.0013053
0.00130455
0.00130354
0.0013026
0.00130185
0.00130126
0.0013008
0.00130045
0.00130018
0.00130001
0.00129993
0.00129992
0.0013
0.00130019
0.00130047
0.00130087
0.00130138
0.00130199
0.00130271
0.00157435
0.00157303
0.00157171
0.00157041
0.0015691
0.00156779
0.00156647
0.00156514
0.00156379
0.00156243
0.00156105
0.00155965
0.00155823
0.00155677
0.00155529
0.00155377
0.0015522
0.00155059
0.00154893
0.00154721
0.00154544
0.00154362
0.00154172
0.00153976
0.00153771
0.00153559
0.00153339
0.00153109
0.00152871
0.00152624
0.00152367
0.001521
0.00151823
0.00151536
0.00151238
0.0015093
0.0015061
0.0015028
0.0014994
0.0014959
0.0014923
0.00148859
0.00148479
0.0014809
0.00147692
0.00147284
0.00146869
0.00146445
0.00146015
0.00145578
0.00145136
0.0014469
0.00144239
0.00143786
0.00143329
0.00142871
0.00142415
0.00141959
0.00141505
0.00141058
0.00140617
0.00140175
0.00139742
0.0013933
0.00138914
0.00138484
0.0013809
0.00137725
0.00137318
0.00136893
0.00136566
0.00136236
0.00135811
0.00135428
0.0013517
0.00134844
0.00134413
0.0013412
0.00133899
0.00133549
0.00133163
0.00132963
0.00132741
0.00132366
0.00132071
0.00131938
0.00131689
0.00131327
0.00131126
0.00131039
0.00130777
0.0013046
0.00130318
0.00130268
0.0013006
0.00129818
0.00129656
0.00129517
0.00129378
0.00129259
0.00129152
0.00129032
0.00128913
0.00128811
0.00128729
0.00128658
0.00128587
0.00128521
0.00128466
0.00128423
0.00128391
0.00128372
0.00128363
0.00128364
0.00128376
0.00128398
0.0012843
0.00128471
0.00128523
0.00128585
0.00128659
0.00128744
0.00128839
0.00128945
0.00129063
0.00156254
0.00156123
0.00155991
0.00155859
0.00155726
0.00155593
0.00155458
0.00155322
0.00155184
0.00155043
0.001549
0.00154754
0.00154605
0.00154453
0.00154296
0.00154136
0.0015397
0.001538
0.00153624
0.00153442
0.00153254
0.00153059
0.00152857
0.00152648
0.00152431
0.00152205
0.00151971
0.00151728
0.00151475
0.00151213
0.00150941
0.00150659
0.00150368
0.00150065
0.00149753
0.0014943
0.00149096
0.00148752
0.00148398
0.00148034
0.0014766
0.00147277
0.00146885
0.00146484
0.00146075
0.00145658
0.00145233
0.00144802
0.00144364
0.0014392
0.00143472
0.0014302
0.00142564
0.00142105
0.00141644
0.00141183
0.00140722
0.00140262
0.00139804
0.00139352
0.00138903
0.00138458
0.00138022
0.00137599
0.00137176
0.00136751
0.00136354
0.00135975
0.00135569
0.00135159
0.00134822
0.00134487
0.00134076
0.00133692
0.00133426
0.00133115
0.00132696
0.00132376
0.00132164
0.00131851
0.00131452
0.00131218
0.00131033
0.00130699
0.00130361
0.00130209
0.00130026
0.00129681
0.00129421
0.00129338
0.00129156
0.0012883
0.00128625
0.00128589
0.0012846
0.00128198
0.00128003
0.00127873
0.00127752
0.00127631
0.0012752
0.00127419
0.00127321
0.0012723
0.0012715
0.00127083
0.00127026
0.00126978
0.0012694
0.00126912
0.00126896
0.00126891
0.00126895
0.00126911
0.0012694
0.00126982
0.00127033
0.00127094
0.00127166
0.00127248
0.00127342
0.00127447
0.00127563
0.0012769
0.00127829
0.00155082
0.0015495
0.00154817
0.00154682
0.00154547
0.0015441
0.00154271
0.0015413
0.00153987
0.0015384
0.00153691
0.00153538
0.00153382
0.00153222
0.00153057
0.00152887
0.00152713
0.00152532
0.00152346
0.00152153
0.00151954
0.00151748
0.00151534
0.00151312
0.00151083
0.00150844
0.00150597
0.00150341
0.00150076
0.00149801
0.00149516
0.00149221
0.00148917
0.00148602
0.00148278
0.00147943
0.00147598
0.00147244
0.00146879
0.00146506
0.00146123
0.00145732
0.00145332
0.00144925
0.0014451
0.00144088
0.00143659
0.00143224
0.00142784
0.00142339
0.0014189
0.00141438
0.00140982
0.00140525
0.00140066
0.00139607
0.00139149
0.00138691
0.00138236
0.00137785
0.00137338
0.00136895
0.00136461
0.00136036
0.00135613
0.00135195
0.00134798
0.00134412
0.00134012
0.00133617
0.00133274
0.00132935
0.0013254
0.00132164
0.0013189
0.00131589
0.00131189
0.00130853
0.00130642
0.00130358
0.00129966
0.001297
0.00129532
0.00129242
0.00128884
0.00128697
0.00128556
0.00128253
0.00127953
0.00127839
0.00127724
0.00127426
0.00127175
0.00127105
0.00127043
0.00126803
0.00126582
0.00126441
0.0012633
0.0012622
0.00126112
0.00126014
0.00125927
0.00125847
0.00125776
0.00125715
0.00125666
0.00125629
0.00125604
0.0012559
0.00125586
0.0012559
0.00125606
0.00125637
0.00125681
0.00125737
0.00125804
0.00125881
0.0012597
0.0012607
0.00126181
0.00126303
0.00126438
0.00126583
0.00126741
0.00154054
0.00153921
0.00153786
0.0015365
0.00153512
0.00153372
0.00153231
0.00153087
0.0015294
0.00152791
0.00152638
0.00152482
0.00152322
0.00152158
0.00151989
0.00151816
0.00151637
0.00151453
0.00151263
0.00151066
0.00150863
0.00150653
0.00150436
0.00150211
0.00149979
0.00149738
0.00149488
0.0014923
0.00148963
0.00148686
0.00148401
0.00148106
0.00147801
0.00147487
0.00147163
0.0014683
0.00146487
0.00146135
0.00145774
0.00145404
0.00145025
0.00144638
0.00144243
0.00143841
0.00143431
0.00143016
0.00142594
0.00142166
0.00141734
0.00141297
0.00140856
0.00140411
0.00139964
0.00139514
0.00139064
0.00138613
0.00138162
0.00137711
0.00137263
0.00136816
0.00136374
0.00135934
0.001355
0.00135073
0.00134652
0.00134236
0.00133828
0.00133434
0.00133049
0.00132658
0.00132277
0.00131932
0.00131591
0.00131214
0.00130852
0.00130571
0.00130275
0.00129898
0.00129557
0.00129342
0.00129078
0.00128704
0.00128414
0.0012825
0.00127996
0.00127638
0.00127416
0.00127293
0.00127035
0.00126716
0.00126563
0.00126482
0.00126232
0.00125955
0.0012584
0.00125802
0.00125604
0.00125378
0.00125224
0.00125111
0.00125008
0.00124906
0.00124811
0.00124727
0.00124654
0.00124589
0.00124534
0.00124492
0.00124463
0.00124447
0.00124442
0.00124445
0.00124458
0.00124486
0.00124528
0.00124584
0.00124651
0.0012473
0.0012482
0.00124922
0.00125036
0.00125162
0.001253
0.0012545
0.00125612
0.00125786
0.00152906
0.0015277
0.00152632
0.00152492
0.0015235
0.00152205
0.00152059
0.00151909
0.00151757
0.00151601
0.00151441
0.00151278
0.0015111
0.00150938
0.00150761
0.00150579
0.00150392
0.00150199
0.00149999
0.00149793
0.00149581
0.00149361
0.00149135
0.001489
0.00148658
0.00148408
0.00148149
0.00147882
0.00147606
0.00147321
0.00147028
0.00146726
0.00146414
0.00146094
0.00145764
0.00145426
0.0014508
0.00144724
0.00144361