/*--------------------------------*- C++ -*----------------------------------*\
| =========                 |                                                 |
| \\      /  F ield         | OpenFOAM: The Open Source CFD Toolbox           |
|  \\    /   O peration     | Version:  v1706                                 |
|   \\  /    A nd           | Web:      www.OpenFOAM.com                      |
|    \\/     M anipulation  |                                                 |
\*---------------------------------------------------------------------------*/
FoamFile
{
    version     2.0;
    format      ascii;
    class       volScalarField;
    location    "3.6e-05";
    object      Tt;
}
// * * * * * * * * * * * * * * * * * * * * * * * * * * * * * * * * * * * * * //

dimensions      [0 0 0 1 0 0 0];


internalField   nonuniform List<scalar> 
29871
(
146.329
146.593
146.886
147.209
147.566
147.967
148.422
148.939
149.524
150.18
150.905
151.695
152.547
153.46
154.449
155.547
156.771
158.117
159.569
161.105
162.709
164.366
166.059
167.77
169.48
171.173
172.842
174.521
176.439
178.816
181.526
184.412
187.344
190.229
193.003
195.621
198.061
200.312
202.377
204.262
205.977
207.529
208.922
210.159
211.236
212.154
212.92
213.541
214.022
214.373
214.607
214.743
214.744
214.684
214.571
214.423
214.204
213.94
213.657
213.345
213.002
212.633
212.24
211.82
211.385
210.935
210.455
209.955
209.452
208.932
208.386
207.824
207.249
206.654
206.043
205.421
204.783
204.132
203.471
202.802
202.125
201.439
200.743
200.034
199.308
198.563
197.799
197.016
196.217
195.404
194.579
193.744
192.902
192.053
191.197
190.332
189.459
188.576
187.683
186.778
185.862
184.931
183.984
183.016
182.022
155.975
157.505
159.192
161.039
163.068
165.32
167.833
170.616
173.658
176.933
180.406
184.043
187.806
191.678
195.694
200.129
205.129
210.601
216.39
222.333
228.274
234.077
239.632
244.856
249.693
254.111
258.1
261.664
264.773
267.394
269.556
271.299
272.672
273.716
274.473
274.986
275.312
275.517
275.653
275.755
275.842
275.918
275.985
276.043
276.069
276.051
275.999
275.918
275.79
275.604
275.361
275.065
274.713
274.313
273.879
273.404
272.906
272.419
271.904
271.373
270.841
270.31
269.784
269.256
268.729
268.21
267.686
267.175
266.67
266.166
265.659
265.161
264.654
264.143
263.64
263.135
262.622
262.109
261.599
261.085
260.568
260.049
259.53
259.008
258.482
257.953
257.425
256.903
256.389
255.882
255.382
254.888
254.398
253.911
253.426
252.941
252.457
251.971
251.485
250.997
250.506
250.011
249.512
249.005
248.487
178.211
182.227
186.526
191.069
195.832
200.831
206.265
212.317
218.913
225.891
233.059
240.224
247.211
253.878
260.124
265.868
271.008
275.512
279.42
282.788
285.684
288.171
290.301
292.112
293.621
294.837
295.763
296.425
296.879
297.178
297.363
297.443
297.416
297.329
297.152
296.868
296.466
295.955
295.369
294.739
294.089
293.435
292.792
292.168
291.572
291.007
290.472
289.964
289.481
289.016
288.56
288.103
287.637
287.155
286.652
286.127
285.576
285.002
284.406
283.793
283.169
282.529
281.877
281.222
280.584
279.891
279.238
278.644
277.999
277.311
276.697
276.119
275.495
274.873
274.306
273.742
273.174
272.631
272.106
271.581
271.06
270.552
270.053
269.556
269.062
268.574
268.093
267.621
267.157
266.702
266.258
265.825
265.405
264.997
264.601
264.218
263.848
263.493
263.15
262.822
262.508
262.207
261.92
261.647
261.388
261.142
229.368
237.13
244.919
252.541
259.835
266.668
272.901
278.448
283.317
287.541
291.172
294.268
296.887
299.086
300.91
302.393
303.564
304.448
305.078
305.501
305.786
305.995
306.171
306.333
306.481
306.606
306.622
306.561
306.418
306.205
305.942
305.641
305.312
304.972
304.639
304.325
304.021
303.692
303.299
302.829
302.289
301.694
301.064
300.414
299.759
299.109
298.473
297.857
297.264
296.695
296.148
295.617
295.094
294.572
294.041
293.493
292.922
292.324
291.694
291.036
290.351
289.641
288.905
288.151
287.411
286.608
285.831
285.117
284.355
283.531
282.782
282.075
281.326
280.57
279.874
279.188
278.502
277.85
277.218
276.589
275.969
275.367
274.779
274.197
273.621
273.057
272.506
271.965
271.429
270.899
270.379
269.873
269.381
268.903
268.442
267.997
267.57
267.162
266.773
266.406
266.06
265.737
265.437
265.161
264.913
264.694
284.846
289.614
293.717
297.216
300.179
302.672
304.75
306.46
307.845
308.946
309.798
310.432
310.898
311.253
311.538
311.778
311.978
312.132
312.223
312.208
312.122
311.961
311.751
311.518
311.289
311.089
310.946
310.864
310.828
310.775
310.663
310.474
310.213
309.897
309.543
309.176
308.82
308.498
308.197
307.881
307.521
307.103
306.625
306.093
305.517
304.908
304.278
303.638
302.997
302.361
301.736
301.125
300.526
299.938
299.361
298.785
298.203
297.613
297.007
296.38
295.73
295.055
294.354
293.628
292.875
292.111
291.321
290.513
289.754
288.976
288.104
287.293
286.545
285.72
284.893
284.124
283.343
282.579
281.876
281.186
280.475
279.77
279.11
278.466
277.821
277.178
276.552
275.946
275.355
274.775
274.208
273.655
273.116
272.592
272.084
271.592
271.118
270.664
270.23
269.816
269.424
269.053
268.706
268.383
268.086
267.817
267.582
311.365
312.455
313.299
313.933
314.416
314.802
315.128
315.405
315.636
315.819
315.946
315.977
315.944
315.866
315.755
315.631
315.505
315.388
315.286
315.207
315.137
315.038
314.882
314.662
314.411
314.145
313.897
313.692
313.564
313.475
313.377
313.243
313.056
312.813
312.52
312.191
311.839
311.484
311.151
310.851
310.565
310.264
309.933
309.564
309.154
308.703
308.215
307.699
307.164
306.613
306.052
305.495
304.937
304.377
303.824
303.277
302.723
302.164
301.598
301.013
300.408
299.784
299.131
298.45
297.744
297.009
296.252
295.46
294.673
293.913
293.073
292.217
291.401
290.577
289.756
288.924
288.041
287.228
286.469
285.73
284.928
284.128
283.406
282.71
281.986
281.249
280.551
279.884
279.225
278.574
277.942
277.333
276.739
276.159
275.596
275.053
274.53
274.027
273.546
273.087
272.652
272.24
271.853
271.494
271.162
270.861
270.593
317.7
318.058
318.359
318.608
318.803
318.934
318.976
318.956
318.899
318.822
318.737
318.657
318.582
318.523
318.486
318.452
318.385
318.268
318.119
317.932
317.736
317.546
317.392
317.27
317.154
317.02
316.851
316.642
316.4
316.146
315.893
315.677
315.51
315.385
315.282
315.169
315.028
314.849
314.63
314.372
314.087
313.795
313.51
313.252
313.004
312.751
312.486
312.2
311.882
311.528
311.138
310.722
310.281
309.814
309.338
308.86
308.364
307.865
307.376
306.878
306.368
305.861
305.34
304.797
304.243
303.666
303.056
302.425
301.768
301.074
300.351
299.603
298.864
298.116
297.275
296.447
295.652
294.904
294.037
293.099
292.274
291.497
290.757
289.886
289.018
288.249
287.527
286.753
285.935
285.181
284.477
283.758
283.033
282.358
281.706
281.059
280.424
279.815
279.23
278.663
278.115
277.589
277.088
276.611
276.16
275.733
275.334
274.964
274.625
274.318
321.701
321.642
321.572
321.51
321.453
321.414
321.396
321.363
321.289
321.182
321.037
320.875
320.706
320.552
320.431
320.345
320.256
320.147
320.015
319.845
319.653
319.45
319.251
319.073
318.919
318.785
318.65
318.498
318.323
318.131
317.922
317.709
317.521
317.37
317.247
317.144
317.048
316.943
316.811
316.645
316.449
316.228
315.985
315.755
315.533
315.306
315.083
314.863
314.629
314.371
314.081
313.77
313.442
313.075
312.684
312.298
311.892
311.454
311.029
310.605
310.15
309.704
309.26
308.781
308.296
307.808
307.282
306.732
306.172
305.578
304.944
304.278
303.605
302.945
302.185
301.4
300.648
299.964
299.16
298.227
297.414
296.645
295.929
295.052
294.149
293.368
292.632
291.85
290.977
290.175
289.445
288.687
287.915
287.205
286.528
285.829
285.142
284.51
283.895
283.289
282.697
282.128
281.586
281.07
280.577
280.109
279.667
279.253
278.868
278.515
324.099
323.997
323.853
323.695
323.537
323.399
323.295
323.21
323.12
323.01
322.873
322.712
322.536
322.356
322.186
322.041
321.922
321.814
321.708
321.587
321.447
321.288
321.116
320.944
320.782
320.639
320.508
320.379
320.245
320.1
319.94
319.762
319.583
319.417
319.274
319.153
319.054
318.963
318.871
318.76
318.637
318.5
318.309
318.127
317.956
317.746
317.541
317.354
317.163
316.966
316.741
316.505
316.274
315.998
315.681
315.377
315.072
314.685
314.326
313.988
313.582
313.183
312.806
312.39
311.961
311.548
311.108
310.628
310.151
309.669
309.121
308.545
307.965
307.403
306.732
306.025
305.348
304.729
304.012
303.141
302.374
301.639
300.963
300.131
299.233
298.472
297.74
296.976
296.07
295.248
294.51
293.742
292.944
292.205
291.515
290.782
290.063
289.405
288.781
288.148
287.509
286.902
286.327
285.772
285.239
284.73
284.244
283.785
283.352
282.948
325.937
325.819
325.678
325.516
325.343
325.171
325.013
324.884
324.777
324.68
324.578
324.462
324.33
324.186
324.035
323.888
323.757
323.643
323.541
323.441
323.335
323.215
323.081
322.935
322.784
322.638
322.502
322.374
322.249
322.125
321.994
321.851
321.7
321.546
321.399
321.265
321.149
321.052
320.966
320.878
320.791
320.706
320.573
320.444
320.327
320.156
319.968
319.812
319.649
319.483
319.308
319.118
318.94
318.749
318.491
318.253
318.038
317.707
317.404
317.135
316.794
316.423
316.098
315.753
315.36
314.997
314.628
314.2
313.789
313.404
312.916
312.416
311.926
311.466
310.867
310.249
309.659
309.119
308.468
307.69
307.001
306.322
305.709
304.909
304.065
303.35
302.645
301.901
300.99
300.188
299.459
298.701
297.885
297.131
296.439
295.692
294.958
294.283
293.644
293.011
292.334
291.684
291.073
290.486
289.921
289.372
288.843
288.341
287.863
287.408
327.599
327.498
327.394
327.279
327.151
327.013
326.873
326.741
326.627
326.529
326.439
326.349
326.252
326.143
326.024
325.897
325.771
325.652
325.544
325.445
325.349
325.251
325.144
325.026
324.9
324.768
324.638
324.511
324.39
324.273
324.157
324.037
323.911
323.78
323.646
323.517
323.395
323.289
323.2
323.113
323.038
322.977
322.886
322.795
322.719
322.603
322.45
322.327
322.195
322.044
321.908
321.749
321.598
321.463
321.262
321.068
320.906
320.654
320.392
320.169
319.904
319.563
319.27
318.992
318.622
318.284
317.976
317.582
317.214
316.887
316.444
316.004
315.582
315.205
314.648
314.114
313.604
313.146
312.529
311.853
311.252
310.638
310.093
309.305
308.552
307.887
307.234
306.487
305.62
304.872
304.168
303.417
302.588
301.836
301.15
300.404
299.665
298.985
298.334
297.708
297.008
296.316
295.673
295.058
294.461
293.879
293.315
292.773
292.254
291.754
329.577
329.463
329.364
329.275
329.187
329.093
328.991
328.881
328.768
328.658
328.558
328.468
328.384
328.303
328.217
328.124
328.024
327.918
327.81
327.706
327.608
327.516
327.427
327.336
327.241
327.139
327.03
326.917
326.803
326.69
326.581
326.475
326.37
326.264
326.154
326.042
325.928
325.816
325.713
325.622
325.536
325.461
325.409
325.344
325.273
325.225
325.152
325.042
324.956
324.86
324.726
324.62
324.495
324.356
324.249
324.099
323.93
323.799
323.617
323.39
323.199
322.995
322.696
322.429
322.194
321.858
321.533
321.257
320.898
320.539
320.233
319.845
319.436
319.059
318.721
318.191
317.727
317.276
316.878
316.271
315.691
315.16
314.631
314.097
313.339
312.69
312.066
311.479
310.705
309.928
309.243
308.582
307.808
306.988
306.257
305.582
304.841
304.1
303.422
302.77
302.144
301.432
300.704
300.037
299.404
298.785
298.175
297.58
297.003
296.446
295.906
331.604
331.498
331.401
331.315
331.236
331.16
331.082
330.999
330.911
330.82
330.731
330.646
330.568
330.494
330.422
330.349
330.271
330.188
330.101
330.012
329.924
329.84
329.759
329.681
329.602
329.521
329.436
329.345
329.252
329.157
329.063
328.97
328.88
328.791
328.702
328.612
328.52
328.427
328.338
328.254
328.175
328.105
328.055
328.002
327.944
327.914
327.869
327.794
327.742
327.677
327.571
327.492
327.399
327.272
327.18
327.068
326.916
326.799
326.666
326.469
326.299
326.136
325.88
325.635
325.426
325.129
324.812
324.549
324.228
323.862
323.552
323.212
322.806
322.44
322.114
321.627
321.198
320.786
320.397
319.803
319.3
318.809
318.367
317.759
317.102
316.53
315.944
315.386
314.608
313.927
313.288
312.674
311.87
311.088
310.387
309.729
308.984
308.238
307.567
306.92
306.299
305.562
304.813
304.137
303.495
302.862
302.233
301.612
301.005
300.416
299.841
299.278
298.725
333.74
333.653
333.57
333.492
333.421
333.355
333.292
333.229
333.163
333.095
333.024
332.955
332.888
332.824
332.764
332.706
332.647
332.585
332.521
332.453
332.384
332.316
332.25
332.186
332.124
332.062
331.999
331.933
331.865
331.794
331.722
331.65
331.579
331.51
331.441
331.374
331.305
331.236
331.168
331.101
331.036
330.979
330.932
330.887
330.844
330.822
330.791
330.741
330.715
330.674
330.597
330.543
330.474
330.365
330.285
330.196
330.06
329.949
329.841
329.668
329.506
329.367
329.148
328.913
328.721
328.459
328.148
327.888
327.597
327.227
326.901
326.59
326.183
325.8
325.469
325.022
324.592
324.199
323.789
323.228
322.762
322.297
321.875
321.227
320.654
320.118
319.596
318.982
318.265
317.655
317.042
316.451
315.64
314.912
314.241
313.605
312.839
312.089
311.424
310.772
310.152
309.417
308.666
307.985
307.336
306.694
306.051
305.412
304.783
304.166
303.564
302.972
302.39
336.099
336.036
335.973
335.909
335.845
335.783
335.724
335.671
335.621
335.573
335.527
335.479
335.43
335.381
335.332
335.285
335.24
335.198
335.157
335.116
335.074
335.031
334.986
334.94
334.895
334.851
334.808
334.768
334.728
334.688
334.646
334.603
334.558
334.512
334.466
334.421
334.377
334.333
334.289
334.245
334.201
334.156
334.112
334.071
334.034
333.999
333.969
333.951
333.928
333.898
333.885
333.857
333.804
333.769
333.717
333.627
333.558
333.481
333.357
333.246
333.148
332.991
332.826
332.695
332.5
332.267
332.079
331.842
331.536
331.269
330.998
330.633
330.286
329.979
329.583
329.17
328.815
328.403
327.943
327.529
327.124
326.592
326.122
325.678
325.206
324.576
324.047
323.519
323.039
322.36
321.714
321.136
320.556
319.94
319.157
318.48
317.828
317.213
316.426
315.68
315.017
314.362
313.711
313.012
312.283
311.599
310.942
310.29
309.637
308.985
308.34
307.704
307.08
306.466
305.86
338.394
338.347
338.302
338.258
338.215
338.173
338.133
338.095
338.061
338.03
338.002
337.974
337.947
337.92
337.893
337.867
337.843
337.82
337.8
337.781
337.763
337.745
337.727
337.707
337.688
337.67
337.652
337.637
337.623
337.609
337.596
337.582
337.567
337.551
337.534
337.516
337.499
337.481
337.464
337.445
337.426
337.405
337.383
337.361
337.339
337.317
337.298
337.283
337.265
337.247
337.236
337.214
337.176
337.15
337.106
337.029
336.967
336.894
336.776
336.663
336.563
336.411
336.236
336.1
335.913
335.674
335.476
335.251
334.947
334.663
334.399
334.043
333.671
333.35
332.969
332.527
332.133
331.746
331.262
330.803
330.392
329.885
329.382
328.921
328.429
327.825
327.299
326.774
326.273
325.573
324.972
324.395
323.852
323.18
322.444
321.801
321.153
320.549
319.762
319.03
318.365
317.706
317.038
316.357
315.656
314.973
314.308
313.648
312.988
312.328
311.673
311.024
310.385
309.754
309.13
308.512
341.093
341.041
340.991
340.944
340.899
340.857
340.818
340.783
340.752
340.725
340.7
340.678
340.656
340.637
340.619
340.604
340.593
340.584
340.577
340.573
340.569
340.567
340.566
340.566
340.567
340.571
340.577
340.585
340.594
340.604
340.614
340.625
340.636
340.647
340.66
340.675
340.69
340.707
340.723
340.739
340.754
340.767
340.779
340.79
340.8
340.808
340.815
340.82
340.822
340.821
340.818
340.811
340.802
340.792
340.78
340.765
340.75
340.735
340.711
340.678
340.649
340.602
340.53
340.466
340.387
340.267
340.148
340.036
339.876
339.687
339.535
339.341
339.088
338.867
338.64
338.332
338.021
337.747
337.398
337
336.649
336.279
335.819
335.382
334.987
334.506
333.998
333.541
333.073
332.525
332.009
331.523
330.945
330.391
329.859
329.302
328.625
328.034
327.443
326.909
326.2
325.501
324.868
324.222
323.603
322.852
322.137
321.468
320.806
320.134
319.455
318.769
318.088
317.419
316.753
316.089
315.425
314.764
314.108
313.458
312.814
312.177
311.546
343.433
343.398
343.366
343.338
343.313
343.291
343.271
343.255
343.243
343.235
343.23
343.228
343.228
343.231
343.236
343.243
343.254
343.267
343.284
343.304
343.325
343.349
343.375
343.402
343.432
343.463
343.497
343.534
343.572
343.612
343.653
343.695
343.738
343.781
343.825
343.87
343.916
343.963
344.01
344.056
344.101
344.145
344.186
344.224
344.26
344.293
344.323
344.35
344.372
344.389
344.401
344.407
344.406
344.401
344.391
344.376
344.356
344.332
344.298
344.258
344.214
344.153
344.075
343.997
343.901
343.769
343.635
343.502
343.324
343.114
342.936
342.722
342.447
342.193
341.947
341.627
341.28
340.979
340.627
340.204
339.813
339.438
338.971
338.49
338.06
337.591
337.044
336.537
336.068
335.514
334.938
334.408
333.872
333.278
332.7
332.124
331.482
330.868
330.262
329.692
328.993
328.315
327.672
327.022
326.375
325.678
324.977
324.301
323.633
322.961
322.283
321.602
320.924
320.251
319.582
318.915
318.249
317.584
316.923
316.268
315.616
314.969
314.326
345.843
345.826
345.813
345.804
345.799
345.797
345.799
345.804
345.812
345.824
345.84
345.86
345.883
345.91
345.939
345.971
346.007
346.045
346.088
346.133
346.182
346.234
346.289
346.345
346.405
346.467
346.531
346.598
346.667
346.738
346.811
346.885
346.96
347.036
347.112
347.189
347.265
347.342
347.418
347.493
347.566
347.636
347.703
347.767
347.826
347.88
347.928
347.971
348.008
348.037
348.058
348.071
348.073
348.068
348.055
348.033
348.002
347.961
347.91
347.851
347.782
347.698
347.599
347.494
347.369
347.214
347.055
346.889
346.682
346.444
346.23
345.983
345.679
345.382
345.104
344.759
344.372
344.028
343.661
343.213
342.774
342.374
341.901
341.378
340.899
340.432
339.866
339.309
338.797
338.264
337.642
337.062
336.513
335.928
335.291
334.676
334.056
333.423
332.793
332.177
331.521
330.849
330.189
329.529
328.866
328.189
327.502
326.824
326.151
325.478
324.802
324.124
323.446
322.772
322.101
321.431
320.764
320.099
319.435
318.774
318.116
317.46
316.807
348.314
348.317
348.324
348.335
348.35
348.37
348.393
348.42
348.451
348.486
348.525
348.568
348.616
348.667
348.722
348.781
348.843
348.909
348.979
349.053
349.131
349.212
349.297
349.384
349.475
349.568
349.664
349.763
349.863
349.966
350.071
350.177
350.284
350.39
350.497
350.604
350.709
350.813
350.915
351.015
351.112
351.205
351.293
351.376
351.452
351.521
351.582
351.634
351.678
351.712
351.735
351.745
351.743
351.731
351.706
351.668
351.617
351.553
351.476
351.387
351.284
351.166
351.032
350.888
350.723
350.533
350.335
350.123
349.876
349.601
349.341
349.05
348.707
348.361
348.038
347.657
347.226
346.829
346.431
345.956
345.463
345.018
344.534
343.975
343.446
342.954
342.381
341.775
341.216
340.683
340.044
339.413
338.826
338.257
337.587
336.92
336.285
335.648
335.003
334.358
333.706
333.04
332.372
331.703
331.033
330.358
329.679
329.001
328.326
327.652
326.976
326.3
325.623
324.948
324.277
323.609
322.94
322.273
321.607
320.941
320.277
319.614
318.951
318.289
317.626
350.84
350.863
350.891
350.924
350.961
351.002
351.048
351.099
351.153
351.213
351.277
351.345
351.418
351.496
351.578
351.664
351.755
351.85
351.949
352.052
352.16
352.271
352.387
352.505
352.627
352.752
352.879
353.009
353.141
353.274
353.409
353.545
353.68
353.816
353.95
354.082
354.213
354.34
354.464
354.584
354.698
354.807
354.909
355.003
355.088
355.164
355.229
355.283
355.324
355.353
355.367
355.365
355.351
355.321
355.275
355.212
355.132
355.036
354.923
354.793
354.647
354.484
354.304
354.108
353.892
353.654
353.404
353.137
352.839
352.517
352.199
351.854
351.464
351.062
350.684
350.256
349.776
349.319
348.877
348.366
347.82
347.318
346.811
346.221
345.637
345.1
344.524
343.876
343.273
342.709
342.075
341.396
340.777
340.185
339.523
338.809
338.143
337.497
336.844
336.184
335.521
334.853
334.181
333.508
332.834
332.159
331.482
330.805
330.13
329.455
328.78
328.104
327.429
326.757
326.088
325.419
324.751
324.082
323.413
322.744
322.074
321.404
320.733
320.06
319.385
353.413
353.458
353.508
353.563
353.623
353.687
353.757
353.832
353.912
353.996
354.086
354.181
354.281
354.386
354.496
354.611
354.73
354.855
354.983
355.117
355.254
355.396
355.541
355.69
355.842
355.997
356.154
356.313
356.473
356.635
356.797
356.958
357.119
357.278
357.435
357.588
357.737
357.882
358.02
358.152
358.277
358.394
358.5
358.597
358.682
358.754
358.813
358.857
358.886
358.898
358.892
358.871
358.831
358.772
358.693
358.595
358.476
358.337
358.178
357.999
357.8
357.582
357.344
357.088
356.811
356.513
356.2
355.868
355.508
355.127
354.743
354.335
353.888
353.426
352.982
352.499
351.967
351.444
350.948
350.392
349.793
349.231
348.685
348.064
347.426
346.836
346.246
345.57
344.919
344.311
343.685
342.972
342.315
341.686
341.046
340.302
339.606
338.944
338.284
337.615
336.943
336.27
335.596
334.921
334.246
333.571
332.897
332.223
331.55
330.876
330.201
329.527
328.858
328.191
327.524
326.856
326.187
325.518
324.847
324.176
323.502
322.826
322.147
321.465
320.779
355.964
356.027
356.094
356.167
356.245
356.328
356.417
356.511
356.611
356.717
356.828
356.944
357.066
357.193
357.326
357.464
357.607
357.755
357.908
358.066
358.228
358.395
358.565
358.739
358.916
359.096
359.278
359.462
359.646
359.832
360.016
360.2
360.383
360.563
360.739
360.911
361.078
361.238
361.392
361.537
361.673
361.798
361.912
362.014
362.102
362.176
362.234
362.275
362.299
362.301
362.287
362.253
362.197
362.12
362.021
361.898
361.753
361.584
361.392
361.177
360.94
360.679
360.396
360.092
359.767
359.42
359.052
358.666
358.261
357.831
357.381
356.924
356.444
355.932
355.405
354.889
354.343
353.754
353.165
352.606
352
351.349
350.724
350.129
349.473
348.786
348.144
347.526
346.828
346.131
345.481
344.849
344.12
343.423
342.764
342.124
341.379
340.66
339.983
339.315
338.642
337.965
337.289
336.614
335.941
335.269
334.597
333.928
333.259
332.591
331.92
331.25
330.584
329.921
329.259
328.596
327.931
327.265
326.597
325.927
325.254
324.578
323.898
323.213
322.524
321.829
358.588
358.673
358.763
358.859
358.961
359.069
359.182
359.301
359.427
359.558
359.695
359.838
359.986
360.14
360.3
360.466
360.636
360.812
360.993
361.178
361.367
361.56
361.756
361.956
362.158
362.361
362.566
362.772
362.977
363.181
363.383
363.583
363.779
363.971
364.157
364.336
364.507
364.67
364.823
364.964
365.093
365.209
365.31
365.396
365.465
365.515
365.548
365.557
365.548
365.518
365.464
365.387
365.286
365.16
365.008
364.831
364.629
364.4
364.145
363.864
363.558
363.228
362.872
362.494
362.092
361.668
361.223
360.758
360.272
359.764
359.239
358.702
358.146
357.562
356.966
356.374
355.759
355.11
354.456
353.83
353.169
352.467
351.779
351.131
350.436
349.705
349.013
348.358
347.642
346.907
346.223
345.571
344.838
344.108
343.427
342.772
342.043
341.315
340.627
339.953
339.278
338.602
337.927
337.257
336.589
335.924
335.261
334.601
333.942
333.283
332.62
331.959
331.303
330.65
329.996
329.34
328.682
328.021
327.358
326.691
326.019
325.344
324.662
323.975
323.281
322.58
321.872
321.155
361.236
361.343
361.457
361.576
361.702
361.833
361.971
362.115
362.265
362.422
362.584
362.753
362.927
363.107
363.293
363.484
363.68
363.881
364.086
364.295
364.508
364.724
364.942
365.163
365.384
365.607
365.829
366.05
366.269
366.485
366.697
366.905
367.106
367.301
367.487
367.664
367.831
367.985
368.126
368.254
368.365
368.46
368.537
368.594
368.632
368.647
368.64
368.611
368.558
368.479
368.375
368.244
368.085
367.899
367.685
367.443
367.173
366.874
366.547
366.192
365.81
365.402
364.967
364.508
364.024
363.517
362.988
362.439
361.87
361.28
360.673
360.054
359.418
358.76
358.089
357.419
356.733
356.019
355.303
354.611
353.894
353.142
352.399
351.697
350.963
350.195
349.457
348.763
348.029
347.266
346.553
345.88
345.151
344.402
343.705
343.037
342.325
341.6
340.908
340.233
339.562
338.893
338.227
337.566
336.91
336.258
335.61
334.964
334.321
333.676
333.026
332.38
331.738
331.098
330.456
329.812
329.164
328.512
327.857
327.197
326.532
325.86
325.182
324.496
323.803
323.1
322.388
321.667
363.898
364.028
364.164
364.306
364.455
364.61
364.772
364.939
365.114
365.294
365.48
365.673
365.871
366.074
366.283
366.497
366.715
366.937
367.164
367.393
367.625
367.858
368.094
368.329
368.564
368.799
369.031
369.26
369.485
369.705
369.919
370.125
370.323
370.51
370.687
370.851
371.002
371.137
371.256
371.358
371.44
371.502
371.543
371.56
371.554
371.525
371.469
371.387
371.278
371.14
370.974
370.778
370.552
370.296
370.009
369.693
369.346
368.969
368.562
368.126
367.661
367.168
366.649
366.103
365.533
364.939
364.324
363.689
363.033
362.358
361.667
360.964
360.247
359.514
358.77
358.025
357.267
356.491
355.714
354.958
354.192
353.403
352.62
351.875
351.109
350.316
349.544
348.821
348.07
347.293
346.557
345.867
345.141
344.389
343.682
343.008
342.311
341.599
340.912
340.242
339.58
338.922
338.27
337.623
336.983
336.347
335.715
335.088
334.462
333.834
333.203
332.577
331.955
331.333
330.708
330.079
329.446
328.809
328.166
327.518
326.863
326.201
325.53
324.851
324.163
323.464
322.755
322.035
366.564
366.715
366.873
367.037
367.208
367.385
367.568
367.758
367.954
368.156
368.364
368.578
368.797
369.02
369.249
369.481
369.717
369.957
370.199
370.442
370.688
370.933
371.178
371.422
371.664
371.902
372.137
372.365
372.588
372.802
373.008
373.203
373.387
373.557
373.714
373.854
373.978
374.083
374.169
374.232
374.275
374.292
374.284
374.253
374.194
374.107
373.991
373.845
373.669
373.462
373.224
372.953
372.651
372.316
371.949
371.55
371.119
370.657
370.163
369.639
369.086
368.506
367.898
367.263
366.602
365.919
365.215
364.494
363.752
362.992
362.219
361.434
360.638
359.837
359.032
358.225
357.411
356.585
355.76
354.951
354.141
353.318
352.504
351.723
350.932
350.121
349.329
348.584
347.824
347.043
346.294
345.593
344.871
344.127
343.419
342.746
342.065
341.376
340.704
340.048
339.401
338.761
338.127
337.5
336.88
336.265
335.654
335.048
334.444
333.838
333.231
332.627
332.026
331.427
330.824
330.216
329.604
328.985
328.36
327.728
327.089
326.441
325.783
325.116
324.438
323.749
323.048
322.336
321.611
369.391
369.569
369.754
369.945
370.142
370.345
370.554
370.769
370.99
371.216
371.447
371.683
371.922
372.165
372.412
372.66
372.911
373.163
373.415
373.666
373.916
374.164
374.408
374.648
374.883
375.11
375.329
375.539
375.739
375.926
376.1
376.259
376.402
376.528
376.634
376.72
376.783
376.824
376.839
376.829
376.794
376.73
376.636
376.513
376.358
376.172
375.953
375.702
375.416
375.097
374.745
374.358
373.937
373.482
372.994
372.473
371.921
371.336
370.719
370.073
369.4
368.702
367.977
367.226
366.454
365.662
364.856
364.04
363.212
362.371
361.52
360.661
359.798
358.936
358.075
357.211
356.343
355.48
354.627
353.775
352.919
352.077
351.262
350.447
349.624
348.821
348.06
347.294
346.518
345.77
345.068
344.354
343.63
342.936
342.273
341.612
340.952
340.305
339.672
339.05
338.437
337.832
337.234
336.643
336.059
335.479
334.903
334.33
333.756
333.178
332.599
332.023
331.45
330.874
330.292
329.704
329.108
328.506
327.895
327.276
326.647
326.008
325.359
324.698
324.024
323.339
322.641
321.93
372.042
372.238
372.441
372.649
372.863
373.083
373.308
373.539
373.774
374.014
374.258
374.505
374.755
375.008
375.262
375.517
375.772
376.027
376.28
376.53
376.777
377.019
377.255
377.484
377.705
377.916
378.117
378.305
378.479
378.638
378.781
378.905
379.01
379.094
379.154
379.193
379.203
379.189
379.148
379.078
378.977
378.845
378.681
378.484
378.253
377.988
377.688
377.353
376.982
376.575
376.133
375.656
375.143
374.595
374.012
373.396
372.75
372.071
371.36
370.62
369.853
369.065
368.261
367.436
366.591
365.726
364.848
363.962
363.067
362.165
361.256
360.342
359.422
358.504
357.589
356.676
355.767
354.867
353.979
353.096
352.219
351.36
350.524
349.696
348.873
348.073
347.307
346.547
345.787
345.056
344.361
343.667
342.973
342.305
341.664
341.031
340.405
339.791
339.19
338.602
338.024
337.454
336.891
336.337
335.788
335.244
334.705
334.167
333.631
333.091
332.548
332.004
331.461
330.915
330.362
329.803
329.236
328.66
328.076
327.483
326.879
326.265
325.639
325.001
324.351
323.688
323.012
322.322
374.863
375.08
375.302
375.53
375.762
376
376.241
376.486
376.734
376.986
377.239
377.494
377.749
378.005
378.259
378.512
378.762
379.008
379.249
379.484
379.711
379.931
380.14
380.338
380.524
380.695
380.852
380.991
381.112
381.213
381.292
381.349
381.382
381.385
381.367
381.319
381.241
381.132
380.991
380.816
380.608
380.365
380.087
379.772
379.421
379.033
378.608
378.145
377.645
377.107
376.534
375.927
375.281
374.601
373.887
373.145
372.379
371.588
370.769
369.924
369.057
368.176
367.279
366.367
365.44
364.499
363.544
362.583
361.618
360.651
359.684
358.717
357.755
356.799
355.852
354.913
353.988
353.078
352.179
351.294
350.429
349.587
348.76
347.947
347.16
346.401
345.656
344.923
344.221
343.547
342.883
342.229
341.597
340.987
340.391
339.806
339.233
338.673
338.125
337.587
337.059
336.538
336.024
335.517
335.014
334.516
334.019
333.524
333.026
332.523
332.012
331.502
330.99
330.472
329.946
329.412
328.869
328.317
327.755
327.182
326.598
326.003
325.395
324.775
324.142
323.496
322.836
377.654
377.886
378.123
378.363
378.607
378.854
379.103
379.355
379.607
379.86
380.113
380.364
380.614
380.86
381.102
381.339
381.57
381.794
382.008
382.213
382.406
382.587
382.753
382.904
383.037
383.152
383.247
383.32
383.37
383.396
383.393
383.367
383.31
383.224
383.106
382.955
382.771
382.551
382.296
382.005
381.676
381.31
380.905
380.461
379.979
379.458
378.9
378.302
377.666
376.994
376.289
375.556
374.793
373.997
373.171
372.323
371.455
370.563
369.649
368.711
367.752
366.78
365.796
364.803
363.799
362.788
361.774
360.759
359.747
358.738
357.736
356.742
355.76
354.791
353.837
352.901
351.983
351.084
350.204
349.349
348.517
347.705
346.914
346.15
345.413
344.694
343.996
343.329
342.689
342.065
341.457
340.87
340.303
339.751
339.213
338.687
338.174
337.672
337.181
336.699
336.224
335.756
335.294
334.836
334.383
333.931
333.477
333.019
332.555
332.084
331.609
331.135
330.655
330.167
329.67
329.164
328.649
328.123
327.587
327.04
326.481
325.911
325.328
324.732
324.124
323.504
322.87
322.223
380.144
380.381
380.621
380.864
381.109
381.356
381.604
381.851
382.099
382.344
382.588
382.828
383.064
383.294
383.518
383.734
383.942
384.139
384.324
384.497
384.656
384.799
384.924
385.031
385.118
385.182
385.224
385.24
385.231
385.195
385.129
385.033
384.905
384.745
384.55
384.319
384.052
383.748
383.406
383.025