# St ()      
# Time       	patch        	min          	max          	average      
4e-05        	cone	2.731408e-03	1.758365e-01	5.229011e-02
