/*--------------------------------*- C++ -*----------------------------------*\
| =========                 |                                                 |
| \\      /  F ield         | OpenFOAM: The Open Source CFD Toolbox           |
|  \\    /   O peration     | Version:  v1706                                 |
|   \\  /    A nd           | Web:      www.OpenFOAM.com                      |
|    \\/     M anipulation  |                                                 |
\*---------------------------------------------------------------------------*/
FoamFile
{
    version     2.0;
    format      ascii;
    class       volScalarField;
    location    "3.3e-05";
    object      wallHeatFlux;
}
// * * * * * * * * * * * * * * * * * * * * * * * * * * * * * * * * * * * * * //

dimensions      [1 0 -3 0 0 0 0];


internalField   uniform 0;

boundaryField
{
    cone
    {
        type            calculated;
        value           nonuniform List<scalar> 
147
(
24133
24129.2
24121.9
24115.2
24106.3
24095.9
24083.4
24068.8
24051.9
24032.9
24012.6
23991.4
23969.1
23945.3
23920
23893.1
23864.6
23834.5
23802.9
23769.6
23734.7
23698.2
23660.1
23620.4
23579.2
23536.4
23491.9
23446
23398.4
23349.3
23298.7
23246.5
23192.8
23137.6
23080.9
23022.7
22963
22901.8
22839.1
22775
22709.4
22642.4
22573.9
22504.1
22432.8
22360.1
22286.1
22210.7
22133.9
22055.8
21976.4
21895.6
21813.6
21730.2
21645.6
21559.7
21472.6
21384.3
21294.8
21204
21112.1
21019
20924.8
20829.4
20733
20635.4
20536.8
20437
20336.3
20234.5
20131.7
20028
19923.2
19817.5
19710.8
19603.3
19494.8
19385.4
19275.2
19164.1
19052.2
18939.5
18826
18711.7
18596.6
18480.8
18364.3
18247
18129.1
18010.5
17891.3
17771.4
17650.9
17529.8
17408.2
17286
17163.2
17040
16916.2
16791.9
16667.2
16542
16416.5
16290.5
16164.1
16037.3
15910.2
15782.8
15655
15527
15398.7
15270.1
15141.3
15012.2
14883
14753.6
14624
14494.3
14364.4
14234.5
14104.4
13974.3
13844.1
13713.8
13583.6
13453.3
13323
13192.8
13062.6
12932.5
12802.5
12672.6
12542.8
12413.1
12283.6
12154.2
12025
11896.1
11767.4
11639
11510.9
11383.3
11256.3
11129.7
11003.2
10876.7
24159.6
)
;
    }
    inlet
    {
        type            calculated;
        value           uniform 0;
    }
    rWedge
    {
        type            wedge;
    }
    lWedge
    {
        type            wedge;
    }
    outlet
    {
        type            calculated;
        value           nonuniform 0();
    }
    procBoundary3to2
    {
        type            processor;
        value           uniform 0;
    }
}


// ************************************************************************* //
