/*--------------------------------*- C++ -*----------------------------------*\
| =========                 |                                                 |
| \\      /  F ield         | OpenFOAM: The Open Source CFD Toolbox           |
|  \\    /   O peration     | Version:  v1706                                 |
|   \\  /    A nd           | Web:      www.OpenFOAM.com                      |
|    \\/     M anipulation  |                                                 |
\*---------------------------------------------------------------------------*/
FoamFile
{
    version     2.0;
    format      ascii;
    class       volScalarField;
    location    "3.2e-05";
    object      kappatr;
}
// * * * * * * * * * * * * * * * * * * * * * * * * * * * * * * * * * * * * * //

dimensions      [1 1 -3 -1 0 0 0];


internalField   nonuniform List<scalar> 
30104
(
0.014666
0.0146759
0.0146872
0.0147
0.0147144
0.0147306
0.0147486
0.0147686
0.0147905
0.0148143
0.0148405
0.0148694
0.0149017
0.0149379
0.0149783
0.015023
0.015072
0.014715
0.0146959
0.0146795
0.0146651
0.0146527
0.0146421
0.0146334
0.0146263
0.0146203
0.0146153
0.0146111
0.0146075
0.0146045
0.0146021
0.0146002
0.0145987
0.0145975
0.0145966
0.0145958
0.0145952
0.0145947
0.0145944
0.0145941
0.0145938
0.0145936
0.0145935
0.0145934
0.0145933
0.0145932
0.0145932
0.0145931
0.0145931
0.0145931
0.014593
0.014593
0.014593
0.014593
0.014593
0.014593
0.014593
0.014593
0.014593
0.014593
0.014593
0.014593
0.014593
0.014593
0.014593
0.014593
0.014593
0.014593
0.014593
0.014593
0.014593
0.014593
0.014593
0.014593
0.014593
0.014593
0.014593
0.014593
0.014593
0.014593
0.014593
0.014593
0.014593
0.014593
0.014593
0.014593
0.014593
0.014593
0.014593
0.014593
0.014593
0.014593
0.014593
0.014593
0.014593
0.014593
0.014593
0.014593
0.014593
0.014593
0.014593
0.014593
0.014593
0.014593
0.014593
0.014593
0.014593
0.014593
0.014593
0.014593
0.014593
0.014593
0.014593
0.014593
0.014593
0.014593
0.014593
0.014593
0.014593
0.014593
0.014593
0.014593
0.014593
0.014593
0.014593
0.014593
0.014593
0.014593
0.014593
0.014593
0.014593
0.014593
0.014593
0.014593
0.014593
0.014593
0.014593
0.014593
0.014593
0.014593
0.014593
0.014593
0.014593
0.014593
0.014593
0.014593
0.014593
0.014593
0.014593
0.014593
0.014593
0.014593
0.014593
0.014593
0.014593
0.014593
0.014593
0.014593
0.014593
0.014593
0.014593
0.014593
0.014593
0.014593
0.014593
0.014593
0.014593
0.014593
0.014593
0.014593
0.014593
0.014593
0.014593
0.014593
0.014593
0.014593
0.014593
0.014593
0.014593
0.014593
0.014593
0.014593
0.014593
0.014593
0.014593
0.014593
0.014593
0.014593
0.014593
0.014593
0.014593
0.014593
0.014593
0.014593
0.014593
0.014593
0.014593
0.014593
0.014593
0.014593
0.014593
0.014593
0.014593
0.014593
0.014593
0.014593
0.014593
0.014593
0.014593
0.014593
0.0150361
0.0150947
0.0151603
0.0152339
0.0153165
0.0154087
0.0155108
0.0156229
0.0157449
0.0158768
0.0160197
0.0161761
0.0163478
0.0165351
0.0167371
0.016952
0.0171777
0.0154759
0.0153498
0.015238
0.0151372
0.0150468
0.0149675
0.0149004
0.0148453
0.0148003
0.0147628
0.0147313
0.0147049
0.0146831
0.0146654
0.0146511
0.0146395
0.01463
0.0146222
0.0146159
0.0146109
0.014607
0.0146039
0.0146015
0.0145995
0.014598
0.0145969
0.014596
0.0145953
0.0145947
0.0145943
0.014594
0.0145937
0.0145935
0.0145934
0.0145933
0.0145932
0.0145931
0.0145931
0.0145931
0.0145931
0.014593
0.014593
0.014593
0.014593
0.014593
0.014593
0.014593
0.014593
0.014593
0.014593
0.014593
0.014593
0.014593
0.014593
0.014593
0.014593
0.014593
0.014593
0.014593
0.014593
0.014593
0.014593
0.014593
0.014593
0.014593
0.014593
0.014593
0.014593
0.014593
0.014593
0.014593
0.014593
0.014593
0.014593
0.014593
0.014593
0.014593
0.014593
0.014593
0.014593
0.014593
0.014593
0.014593
0.014593
0.014593
0.014593
0.014593
0.014593
0.014593
0.014593
0.014593
0.014593
0.014593
0.014593
0.014593
0.014593
0.014593
0.014593
0.014593
0.014593
0.014593
0.014593
0.014593
0.014593
0.014593
0.014593
0.014593
0.014593
0.014593
0.014593
0.014593
0.014593
0.014593
0.014593
0.014593
0.014593
0.014593
0.014593
0.014593
0.014593
0.014593
0.014593
0.014593
0.014593
0.014593
0.014593
0.014593
0.014593
0.014593
0.014593
0.014593
0.014593
0.014593
0.014593
0.014593
0.014593
0.014593
0.014593
0.014593
0.014593
0.014593
0.014593
0.014593
0.014593
0.014593
0.014593
0.014593
0.014593
0.014593
0.014593
0.014593
0.014593
0.014593
0.014593
0.014593
0.014593
0.014593
0.014593
0.014593
0.014593
0.014593
0.014593
0.014593
0.014593
0.014593
0.014593
0.014593
0.014593
0.014593
0.014593
0.014593
0.014593
0.014593
0.014593
0.014593
0.014593
0.014593
0.014593
0.014593
0.014593
0.014593
0.014593
0.014593
0.014593
0.014593
0.014593
0.014593
0.014593
0.014593
0.014593
0.014593
0.014593
0.014593
0.0160983
0.0162815
0.0164838
0.0167069
0.0169509
0.0172145
0.0174956
0.0177914
0.0180992
0.0184172
0.0187463
0.0190993
0.0194845
0.019897
0.020328
0.0207673
0.0176357
0.0172734
0.0169425
0.01663
0.0163355
0.0160659
0.0158288
0.0156282
0.0154596
0.0153151
0.0151892
0.0150797
0.0149866
0.0149101
0.0148485
0.0147988
0.014758
0.0147245
0.0146972
0.0146753
0.0146579
0.0146441
0.014633
0.0146241
0.0146169
0.0146114
0.0146071
0.0146038
0.0146012
0.0145992
0.0145977
0.0145965
0.0145956
0.0145949
0.0145944
0.014594
0.0145937
0.0145935
0.0145934
0.0145933
0.0145932
0.0145931
0.0145931
0.0145931
0.0145931
0.014593
0.014593
0.014593
0.014593
0.014593
0.014593
0.014593
0.014593
0.014593
0.014593
0.014593
0.014593
0.014593
0.014593
0.014593
0.014593
0.014593
0.014593
0.014593
0.014593
0.014593
0.014593
0.014593
0.014593
0.014593
0.014593
0.014593
0.014593
0.014593
0.014593
0.014593
0.014593
0.014593
0.014593
0.014593
0.014593
0.014593
0.014593
0.014593
0.014593
0.014593
0.014593
0.014593
0.014593
0.014593
0.014593
0.014593
0.014593
0.014593
0.014593
0.014593
0.014593
0.014593
0.014593
0.014593
0.014593
0.014593
0.014593
0.014593
0.014593
0.014593
0.014593
0.014593
0.014593
0.014593
0.014593
0.014593
0.014593
0.014593
0.014593
0.014593
0.014593
0.014593
0.014593
0.014593
0.014593
0.014593
0.014593
0.014593
0.014593
0.014593
0.014593
0.014593
0.014593
0.014593
0.014593
0.014593
0.014593
0.014593
0.014593
0.014593
0.014593
0.014593
0.014593
0.014593
0.014593
0.014593
0.014593
0.014593
0.014593
0.014593
0.014593
0.014593
0.014593
0.014593
0.014593
0.014593
0.014593
0.014593
0.014593
0.014593
0.014593
0.014593
0.014593
0.014593
0.014593
0.014593
0.014593
0.0145931
0.0145931
0.0145931
0.0145931
0.0145931
0.0145931
0.0145931
0.0145931
0.0145931
0.0145931
0.0145931
0.0145931
0.0145931
0.0145931
0.0145931
0.0145931
0.0145931
0.0145931
0.0145931
0.0145931
0.0145931
0.0145931
0.0145931
0.0145931
0.0145931
0.0145931
0.0145931
0.0145931
0.0145931
0.0145931
0.0186548
0.0190342
0.0194454
0.0198902
0.0203618
0.0208497
0.0213421
0.0218275
0.0222955
0.0227382
0.0231493
0.0235221
0.0238536
0.024145
0.0243986
0.0246177
0.0216562
0.0212102
0.0207099
0.020164
0.0195814
0.0189779
0.0183842
0.0178571
0.0174149
0.0170244
0.0166654
0.0163351
0.0160399
0.0157868
0.015577
0.0154022
0.0152534
0.0151259
0.0150184
0.0149306
0.0148608
0.0148054
0.0147608
0.0147247
0.0146957
0.0146729
0.014655
0.014641
0.0146298
0.014621
0.0146141
0.0146089
0.0146049
0.0146019
0.0145996
0.0145978
0.0145965
0.0145956
0.0145948
0.0145943
0.0145939
0.0145937
0.0145935
0.0145933
0.0145932
0.0145932
0.0145931
0.0145931
0.0145931
0.0145931
0.014593
0.014593
0.014593
0.014593
0.014593
0.014593
0.014593
0.014593
0.014593
0.014593
0.014593
0.014593
0.014593
0.014593
0.014593
0.014593
0.014593
0.014593
0.014593
0.014593
0.014593
0.014593
0.014593
0.014593
0.014593
0.014593
0.014593
0.014593
0.014593
0.014593
0.014593
0.014593
0.014593
0.014593
0.014593
0.014593
0.014593
0.014593
0.014593
0.014593
0.014593
0.014593
0.014593
0.014593
0.014593
0.014593
0.014593
0.014593
0.014593
0.014593
0.014593
0.014593
0.014593
0.014593
0.014593
0.014593
0.014593
0.014593
0.014593
0.014593
0.014593
0.014593
0.014593
0.014593
0.014593
0.014593
0.014593
0.014593
0.014593
0.014593
0.014593
0.014593
0.014593
0.0145931
0.0145931
0.0145931
0.0145931
0.0145931
0.0145931
0.0145931
0.0145931
0.0145931
0.0145931
0.0145931
0.0145931
0.0145931
0.0145931
0.0145931
0.0145931
0.0145931
0.0145931
0.0145931
0.0145931
0.0145931
0.0145931
0.0145931
0.0145931
0.0145931
0.0145931
0.0145931
0.0145931
0.0145931
0.0145931
0.0145931
0.0145931
0.0145931
0.0145931
0.0145931
0.0145932
0.0145932
0.0145932
0.0145932
0.0145932
0.0145932
0.0145932
0.0145932
0.0145932
0.0145932
0.0145932
0.0145932
0.0145932
0.0145932
0.0145932
0.0145933
0.0145933
0.0145933
0.0145933
0.0145933
0.0145933
0.0145933
0.0145933
0.0145933
0.0145934
0.0145934
0.0145934
0.0145934
0.0145934
0.0145934
0.0145934
0.0145935
0.0145935
0.0145935
0.0145935
0.0228919
0.0233444
0.0237534
0.0241163
0.024434
0.0247091
0.024945
0.0251457
0.0253154
0.025458
0.0255769
0.0256748
0.0257546
0.0258183
0.0258681
0.0233421
0.0232455
0.0231286
0.0229799
0.0227862
0.0225353
0.0222161
0.0218165
0.0213362
0.0207875
0.0201828
0.0195365
0.0188733
0.0182392
0.0176999
0.017244
0.016837
0.0164662
0.0161346
0.0158501
0.0156156
0.0154232
0.015262
0.0151255
0.0150119
0.0149205
0.0148489
0.0147927
0.014748
0.0147124
0.0146844
0.0146627
0.0146459
0.0146328
0.0146226
0.0146148
0.014609
0.0146047
0.0146015
0.0145991
0.0145974
0.0145961
0.0145952
0.0145946
0.0145941
0.0145938
0.0145936
0.0145934
0.0145933
0.0145932
0.0145932
0.0145931
0.0145931
0.0145931
0.0145931
0.0145931
0.0145931
0.0145931
0.0145931
0.0145931
0.014593
0.014593
0.014593
0.014593
0.014593
0.014593
0.014593
0.014593
0.014593
0.014593
0.014593
0.014593
0.014593
0.014593
0.014593
0.014593
0.014593
0.014593
0.014593
0.014593
0.0145931
0.0145931
0.0145931
0.0145931
0.0145931
0.0145931
0.0145931
0.0145931
0.0145931
0.0145931
0.0145931
0.0145931
0.0145931
0.0145931
0.0145931
0.0145931
0.0145931
0.0145931
0.0145931
0.0145931
0.0145931
0.0145931
0.0145931
0.0145931
0.0145931
0.0145931
0.0145931
0.0145931
0.0145931
0.0145931
0.0145931
0.0145931
0.0145931
0.0145931
0.0145931
0.0145931
0.0145931
0.0145931
0.0145931
0.0145931
0.0145931
0.0145931
0.0145932
0.0145932
0.0145932
0.0145932
0.0145932
0.0145932
0.0145932
0.0145932
0.0145932
0.0145932
0.0145932
0.0145932
0.0145932
0.0145932
0.0145932
0.0145933
0.0145933
0.0145933
0.0145933
0.0145933
0.0145933
0.0145933
0.0145933
0.0145933
0.0145934
0.0145934
0.0145934
0.0145934
0.0145934
0.0145934
0.0145934
0.0145935
0.0145935
0.0145935
0.0145935
0.0145935
0.0145935
0.0145936
0.0145936
0.0145936
0.0145936
0.0145937
0.0145937
0.0145937
0.0145937
0.0145938
0.0145938
0.0145938
0.0145939
0.0145939
0.0145939
0.014594
0.014594
0.014594
0.0145941
0.0145941
0.0145942
0.0145942
0.0145943
0.0145943
0.0145944
0.0145944
0.0145945
0.0145945
0.0145946
0.0145946
0.0145947
0.0145948
0.0145948
0.0145949
0.0145948
0.0254611
0.0256287
0.0257677
0.025882
0.0259747
0.026049
0.0261071
0.0261514
0.0261845
0.0262097
0.0262296
0.026246
0.0262599
0.026271
0.0262792
0.0262846
0.0237603
0.023731
0.0236986
0.0236594
0.0236113
0.0235554
0.0234931
0.0234202
0.0233299
0.02321
0.0230451
0.0228216
0.0225292
0.0221564
0.0216921
0.0211416
0.0205174
0.0198355
0.0191226
0.0184266
0.0178213
0.0173189
0.0168781
0.0164806
0.0161284
0.0158293
0.0155854
0.0153867
0.0152214
0.0150834
0.0149711
0.0148831
0.0148152
0.0147624
0.0147211
0.014689
0.0146645
0.0146459
0.0146318
0.0146211
0.0146132
0.0146074
0.0146033
0.0146003
0.0145982
0.0145967
0.0145956
0.0145949
0.0145944
0.014594
0.0145937
0.0145936
0.0145934
0.0145934
0.0145933
0.0145932
0.0145932
0.0145932
0.0145932
0.0145931
0.0145931
0.0145931
0.0145931
0.0145931
0.0145931
0.0145931
0.0145931
0.0145931
0.0145931
0.0145931
0.0145931
0.0145931
0.0145931
0.0145931
0.0145931
0.0145931
0.0145931
0.0145931
0.0145931
0.0145931
0.0145931
0.0145932
0.0145932
0.0145932
0.0145932
0.0145932
0.0145932
0.0145932
0.0145932
0.0145932
0.0145932
0.0145932
0.0145932
0.0145932
0.0145932
0.0145932
0.0145932
0.0145932
0.0145932
0.0145932
0.0145932
0.0145932
0.0145933
0.0145933
0.0145933
0.0145933
0.0145933
0.0145933
0.0145933
0.0145933
0.0145933
0.0145933
0.0145933
0.0145934
0.0145934
0.0145934
0.0145934
0.0145934
0.0145934
0.0145934
0.0145935
0.0145935
0.0145935
0.0145935
0.0145935
0.0145935
0.0145936
0.0145936
0.0145936
0.0145936
0.0145937
0.0145937
0.0145937
0.0145937
0.0145938
0.0145938
0.0145938
0.0145939
0.0145939
0.0145939
0.014594
0.014594
0.014594
0.0145941
0.0145941
0.0145942
0.0145942
0.0145943
0.0145943
0.0145944
0.0145944
0.0145945
0.0145945
0.0145946
0.0145946
0.0145947
0.0145948
0.0145949
0.0145949
0.014595
0.0145951
0.0145952
0.0145953
0.0145954
0.0145954
0.0145955
0.0145957
0.0145958
0.0145959
0.014596
0.0145961
0.0145962
0.0145964
0.0145965
0.0145966
0.0145968
0.0145969
0.0145971
0.0145973
0.0145975
0.0145976
0.0145978
0.014598
0.0145982
0.0145985
0.0145987
0.0145989
0.0145991
0.0145994
0.0145997
0.0145999
0.0146002
0.0145999
0.026412
0.0264385
0.0264598
0.0264772
0.0264913
0.0265022
0.0265097
0.0265124
0.0265109
0.0265068
0.0265005
0.026494
0.0264871
0.0239337
0.0239094
0.0238854
0.0238651
0.0238489
0.0238381
0.0238225
0.0238037
0.0237836
0.0237588
0.0237267
0.0236881
0.0236433
0.0235878
0.0235139
0.0234079
0.0232533
0.0230359
0.0227452
0.0223699
0.0218955
0.0213204
0.0206573
0.0199259
0.0191601
0.0184172
0.0177789
0.017251
0.0167887
0.0163758
0.0160171
0.0157195
0.0154805
0.0152861
0.0151257
0.0149959
0.014895
0.0148187
0.0147609
0.0147168
0.0146834
0.0146586
0.0146403
0.0146268
0.014617
0.01461
0.0146051
0.0146017
0.0145993
0.0145975
0.0145963
0.0145955
0.0145948
0.0145944
0.0145941
0.0145939
0.0145937
0.0145936
0.0145935
0.0145935
0.0145934
0.0145934
0.0145934
0.0145934
0.0145934
0.0145933
0.0145933
0.0145933
0.0145933
0.0145933
0.0145933
0.0145934
0.0145934
0.0145934
0.0145934
0.0145934
0.0145934
0.0145934
0.0145934
0.0145934
0.0145934
0.0145934
0.0145935
0.0145935
0.0145935
0.0145935
0.0145935
0.0145935
0.0145935
0.0145936
0.0145936
0.0145936
0.0145936
0.0145936
0.0145936
0.0145936
0.0145937
0.0145937
0.0145937
0.0145937
0.0145937
0.0145938
0.0145938
0.0145938
0.0145938
0.0145939
0.0145939
0.0145939
0.0145939
0.014594
0.014594
0.014594
0.0145941
0.0145941
0.0145941
0.0145942
0.0145942
0.0145943
0.0145943
0.0145944
0.0145944
0.0145945
0.0145945
0.0145946
0.0145947
0.0145947
0.0145948
0.0145949
0.014595
0.014595
0.0145951
0.0145952
0.0145953
0.0145954
0.0145955
0.0145956
0.0145957
0.0145958
0.0145959
0.014596
0.0145962
0.0145963
0.0145964
0.0145966
0.0145967
0.0145969
0.014597
0.0145972
0.0145974
0.0145976
0.0145978
0.014598
0.0145982
0.0145984
0.0145986
0.0145989
0.0145991
0.0145994
0.0145996
0.0145999
0.0146002
0.0146005
0.0146009
0.0146012
0.0146015
0.0146019
0.0146023
0.0146027
0.0146031
0.0146035
0.014604
0.0146044
0.0146049
0.0146055
0.014606
0.0146066
0.0146072
0.0146078
0.0146085
0.0146091
0.0146099
0.0146106
0.0146114
0.0146122
0.0146131
0.014614
0.0146149
0.0146159
0.0146169
0.0146179
0.014619
0.0146201
0.014619
0.026722
0.0267179
0.026712
0.0267054
0.0266988
0.0266931
0.0266873
0.0266832
0.0266796
0.0266746
0.0266679
0.0266601
0.0266491
0.0240629
0.0240427
0.0240225
0.0240052
0.0239924
0.023982
0.0239699
0.0239575
0.0239464
0.0239373
0.0239315
0.023931
0.0239268
0.0239194
0.0239107
0.0238987
0.0238821
0.0238602
0.0238297
0.0237846
0.0237147
0.0236055
0.0234415
0.023209
0.022896
0.0224873
0.0219642
0.0213255
0.0205878
0.0197799
0.0189505
0.0181779
0.0175422
0.0170068
0.016535
0.0161237
0.0157812
0.0155086
0.0152916
0.0151169
0.0149791
0.0148752
0.0147988
0.0147424
0.0147008
0.0146704
0.0146485
0.0146327
0.0146213
0.0146134
0.0146078
0.0146039
0.0146011
0.0145991
0.0145977
0.0145966
0.0145959
0.0145953
0.0145949
0.0145947
0.0145945
0.0145943
0.0145942
0.0145941
0.0145941
0.014594
0.014594
0.014594
0.014594
0.014594
0.014594
0.014594
0.014594
0.0145941
0.0145941
0.0145941
0.0145941
0.0145942
0.0145942
0.0145942
0.0145943
0.0145943
0.0145944
0.0145944
0.0145944
0.0145945
0.0145945
0.0145946
0.0145946
0.0145947
0.0145947
0.0145948
0.0145948
0.0145949
0.0145949
0.014595
0.014595
0.0145951
0.0145951
0.0145952
0.0145953
0.0145953
0.0145954
0.0145955
0.0145956
0.0145956
0.0145957
0.0145958
0.0145959
0.014596
0.0145961
0.0145962
0.0145963
0.0145964
0.0145966
0.0145967
0.0145968
0.014597
0.0145971
0.0145973
0.0145975
0.0145977
0.0145979
0.0145981
0.0145983
0.0145985
0.0145987
0.014599
0.0145992
0.0145995
0.0145998
0.0146001
0.0146004
0.0146007
0.014601
0.0146013
0.0146017
0.0146021
0.0146025
0.0146029
0.0146033
0.0146037
0.0146042
0.0146047
0.0146052
0.0146057
0.0146063
0.0146069
0.0146075
0.0146081
0.0146088
0.0146095
0.0146102
0.0146109
0.0146117
0.0146126
0.0146135
0.0146144
0.0146154
0.0146164
0.0146175
0.0146186
0.0146198
0.014621
0.0146223
0.0146236
0.014625
0.0146265
0.014628
0.0146296
0.0146313
0.014633
0.0146348
0.0146367
0.0146386
0.0146406
0.0146428
0.014645
0.0146474
0.0146499
0.0146526
0.0146554
0.0146584
0.0146615
0.0146647
0.0146681
0.0146716
0.0146752
0.014679
0.0146829
0.014687
0.0146914
0.0146878
0.0268919
0.0268877
0.026882
0.0268745
0.0268639
0.0268528
0.0268414
0.0268301
0.0268206
0.0268128
0.0268057
0.0267987
0.0267909
0.0267815
0.024179
0.02416
0.0241408
0.0241233
0.0241091
0.0240974
0.0240873
0.0240781
0.0240697
0.0240625
0.0240584
0.024056
0.0240529
0.0240522
0.0240536
0.0240584
0.0240681
0.0240795
0.024085
0.0240894
0.0240922
0.0240927
0.0240901
0.0240791
0.0240539
0.024006
0.0239234
0.0237918
0.0235958
0.0233198
0.022946
0.0224515
0.021818
0.0210555
0.0201916
0.0192769
0.0183978
0.0176628
0.0170595
0.0165394
0.0160939
0.0157308
0.0154482
0.0152279
0.0150563
0.0149273
0.0148342
0.0147676
0.0147194
0.0146846
0.0146596
0.0146417
0.0146288
0.0146195
0.0146129
0.0146082
0.0146048
0.0146024
0.0146006
0.0145992
0.0145983
0.0145975
0.014597
0.0145967
0.0145964
0.0145962
0.0145961
0.014596
0.014596
0.014596
0.014596
0.014596
0.014596
0.0145961
0.0145962
0.0145962
0.0145963
0.0145964
0.0145965
0.0145966
0.0145967
0.0145969
0.014597
0.0145971
0.0145972
0.0145974
0.0145975
0.0145976
0.0145978
0.0145979
0.0145981
0.0145982
0.0145984
0.0145986
0.0145987
0.0145989
0.0145991
0.0145993
0.0145995
0.0145996
0.0145999
0.0146001
0.0146003
0.0146005
0.0146008
0.014601
0.0146013
0.0146016
0.0146019
0.0146022
0.0146025
0.0146028
0.0146032
0.0146035
0.0146039
0.0146044
0.0146048
0.0146053
0.0146058
0.0146063
0.0146068
0.0146074
0.014608
0.0146087
0.0146094
0.0146101
0.0146108
0.0146116
0.0146124
0.0146133
0.0146142
0.0146151
0.0146161
0.0146171
0.0146182
0.0146193
0.0146205
0.0146217
0.014623
0.0146244
0.0146258
0.0146273
0.0146289
0.0146305
0.0146323
0.0146341
0.014636
0.014638
0.01464
0.0146422
0.0146444
0.0146468
0.0146492
0.0146518
0.0146545
0.0146573
0.0146603
0.0146634
0.0146667
0.0146702
0.0146738
0.0146777
0.0146818
0.0146861
0.0146906
0.0146954
0.0147003
0.0147054
0.0147108
0.0147163
0.0147221
0.014728
0.0147343
0.0147408
0.0147477
0.014755
0.0147627
0.0147708
0.0147793
0.0147882
0.0147976
0.0148075
0.0148179
0.0148289
0.0148406
0.014853
0.0148661
0.0148799
0.0148944
0.0149096
0.0149251
0.0149432
0.0149339
0.0270254
0.0270167
0.0270086
0.027
0.0269901
0.0269792
0.0269677
0.0269559
0.0269445
0.0269345
0.0269264
0.0269196
0.0269136
0.0269076
0.0243006
0.0242802
0.0242601
0.0242414
0.0242248
0.0242107
0.0241988
0.0241884
0.0241788
0.0241706
0.0241643
0.0241594
0.024157
0.0241573
0.0241596
0.0241646
0.0241731
0.0241821
0.0241917
0.0242039
0.0242197
0.0242408
0.0242643
0.024283
0.0243006
0.0243183
0.0243355
0.024346
0.0243462
0.0243371
0.0243063
0.0242409
0.0241265
0.0239452
0.0236763
0.0232959
0.0227766
0.0220936
0.021253
0.0202906
0.0192747
0.0183185
0.0175422
0.0169095
0.0163745
0.0159334
0.0155909
0.0153318
0.0151343
0.0149862
0.0148794
0.0148037
0.0147491
0.0147091
0.01468
0.0146588
0.0146432
0.0146317
0.0146233
0.0146173
0.0146129
0.0146097
0.0146073
0.0146056
0.0146044
0.0146034
0.0146028
0.0146023
0.014602
0.0146018
0.0146018
0.0146018
0.0146018
0.014602
0.0146021
0.0146023
0.0146026
0.0146028
0.0146031
0.0146035
0.0146038
0.0146041
0.0146045
0.0146049
0.0146053
0.0146057
0.0146061
0.0146066
0.014607
0.0146074
0.0146079
0.0146084
0.0146089
0.0146094
0.0146099
0.0146104
0.014611
0.0146116
0.0146121
0.0146128
0.0146134
0.0146141
0.0146148
0.0146155
0.0146162
0.014617
0.0146178
0.0146187
0.0146196
0.0146205
0.0146215
0.0146225
0.0146236
0.0146248
0.014626
0.0146273
0.0146286
0.0146301
0.0146316
0.0146332
0.0146349
0.0146368
0.0146387
0.0146408
0.0146429
0.0146452
0.0146476
0.0146501
0.0146527
0.0146555
0.0146584
0.0146613
0.0146644
0.0146677
0.0146711
0.0146746
0.0146784
0.0146823
0.0146864
0.0146907
0.0146953
0.0147001
0.0147051
0.0147104
0.014716
0.0147219
0.0147281
0.0147345
0.0147413
0.0147483
0.0147557
0.0147633
0.0147713
0.0147797
0.0147884
0.0147976
0.0148073
0.0148175
0.0148283
0.0148397
0.0148517
0.0148645
0.014878
0.0148922
0.0149071
0.0149229
0.0149395
0.014957
0.0149754
0.0149946
0.0150145
0.0150351
0.0150563
0.0150781
0.0151005
0.0151235
0.0151475
0.0151725
0.0151987
0.0152264
0.0152557
0.0152868
0.0153199
0.0153551
0.0153924
0.0154319
0.0154734
0.0155169
0.0155622
0.01561
0.0156584
0.015719
0.0157064
0.0271434
0.0271325
0.0271235
0.0271157
0.0271084
0.0271012
0.0270935
0.0270855
0.0270771
0.027069
0.0270619
0.0270559
0.0270512
0.0270473
0.0244306
0.0244087
0.0243873
0.024367
0.0243481
0.0243309
0.0243155
0.0243016
0.024289
0.024278
0.0242685
0.0242608
0.0242553
0.0242527
0.0242527
0.0242549
0.0242596
0.0242665
0.0242757
0.0242876
0.0243029
0.0243214
0.0243417
0.0243638
0.0243887
0.0244173
0.0244505
0.0244839
0.0245134
0.024543
0.0245723
0.0245999
0.0246212
0.0246276
0.0246227
0.0245976
0.0245351
0.0244175
0.0242225
0.0239236
0.0234895
0.0228845
0.0220826
0.0211039
0.0200113
0.0189164
0.0179724
0.0172394
0.0166406
0.0161474
0.0157602
0.0154702
0.0152511
0.015084
0.0149596
0.0148696
0.0148043
0.0147558
0.0147194
0.0146925
0.0146726
0.0146578
0.0146468
0.0146386
0.0146325
0.0146282
0.014625
0.0146227
0.0146211
0.01462
0.0146193
0.0146189
0.0146189
0.014619
0.0146192
0.0146197
0.0146203
0.014621
0.0146218
0.0146227
0.0146237
0.0146247
0.0146258
0.0146269
0.0146281
0.0146293
0.0146305
0.0146318
0.0146332
0.0146345
0.0146359
0.0146373
0.0146388
0.0146403
0.0146419
0.0146435
0.0146452
0.0146469
0.0146487
0.0146506
0.0146525
0.0146546
0.0146567
0.0146589
0.0146613
0.0146637
0.0146662
0.0146688
0.0146716
0.0146745
0.0146775
0.0146806
0.0146839
0.0146873
0.014691
0.0146948
0.0146989
0.0147032
0.0147078
0.0147126
0.0147177
0.0147232
0.014729
0.0147351
0.0147416
0.0147485
0.0147558
0.0147635
0.0147715
0.0147799
0.0147887
0.0147978
0.0148073
0.0148172
0.0148276
0.0148384
0.0148497
0.0148616
0.0148741
0.0148872
0.0149011
0.0149158
0.0149312
0.0149476
0.0149649
0.0149832
0.0150024
0.0150226
0.0150438
0.0150659
0.0150889
0.0151128
0.0151376
0.0151632
0.0151897
0.0152172
0.0152458
0.0152756
0.0153067
0.0153392
0.0153735
0.0154096
0.015448
0.0154887
0.015532
0.0155778
0.0156263
0.0156771
0.0157302
0.0157852
0.015842
0.0159003
0.0159597
0.0160204
0.0160825
0.0161466
0.0162128
0.0162815
0.0163526
0.0164261
0.0165016
0.0165787
0.0166576
0.016739
0.0168238
0.0169137
0.0170084
0.0171109
0.0172177
0.0173359
0.0174552
0.0175975
0.0176671
0.0272703
0.0272612
0.0272531
0.0272462
0.0272405
0.0272355
0.0272309
0.0272262
0.0272213
0.0272162
0.0272114
0.027207
0.0272036
0.0245668
0.0245431
0.0245202
0.0244979
0.0244766
0.0244564
0.0244376
0.0244202
0.0244043
0.0243899
0.0243768
0.0243652
0.0243555
0.0243481
0.0243433
0.0243417
0.0243422
0.0243448
0.0243499
0.0243578
0.0243685
0.0243822
0.024399
0.0244189
0.0244418
0.0244676
0.0244957
0.0245255
0.0245572
0.0245914
0.0246288
0.0246694
0.0247115
0.024748
0.024784
0.024822
0.0248605
0.0248936
0.0249095
0.0249073
0.0248822
0.0248093
0.0246632
0.0244141
0.0240279
0.0234697
0.0227081
0.0217455
0.0206413
0.0194979
0.0184556
0.0176397
0.0170013
0.0164738
0.0160438
0.0157099
0.0154577
0.0152626
0.0151104
0.014995
0.0149102
0.0148481
0.0148015
0.0147661
0.0147393
0.0147194
0.0147045
0.0146933
0.0146849
0.0146787
0.0146742
0.0146712
0.0146694
0.0146686
0.0146686
0.0146691
0.0146702
0.0146718
0.0146737
0.014676
0.0146786
0.0146815
0.0146845
0.0146878
0.0146912
0.0146948
0.0146985
0.0147023
0.0147062
0.0147102
0.0147144
0.0147186
0.0147229
0.0147274
0.0147319
0.0147367
0.0147415
0.0147466
0.0147519
0.0147573
0.014763
0.0147689
0.0147751
0.0147816
0.0147884
0.0147955
0.0148029
0.0148106
0.0148187
0.0148271
0.0148358
0.014845
0.0148545
0.0148645
0.014875
0.0148861
0.0148977
0.01491
0.014923
0.0149367
0.0149513
0.0149668
0.0149834
0.0150009
0.0150196
0.0150394
0.0150605
0.0150827
0.0151062
0.0151308
0.0151565
0.0151832
0.0152107
0.0152391
0.0152685
0.0152989
0.0153303
0.0153631
0.0153971
0.0154326
0.0154697
0.0155086
0.0155495
0.0155925
0.0156378
0.0156856
0.015736
0.0157891
0.0158448
0.0159031
0.0159638
0.0160266
0.016091
0.0161566
0.0162236
0.016292
0.0163621
0.0164341
0.0165084
0.0165852
0.016665
0.016748
0.0168343
0.0169237
0.0170162
0.0171118
0.0172109
0.0173144
0.017423
0.0175376
0.0176586
0.017786
0.0179161
0.0180453
0.0181716
0.0182923
0.0184054
0.0185097
0.0186058
0.018696
0.0187833
0.0188701
0.0189584
0.0190496
0.0191433
0.019238
0.0193293
0.0194137
0.0194877
0.0195486
0.0195991
0.0196433
0.0196191
0.0274075
0.0274013
0.0273953
0.0273901
0.0273857
0.0273823
0.0273796
0.0273774
0.0273754
0.0273734
0.0273715
0.0273697
0.0273684
0.0246549
0.0246304
0.0246064
0.0245833
0.0245612
0.0245404
0.024521
0.0245028
0.0244859
0.0244703
0.0244563
0.0244442
0.0244344
0.024427
0.0244217
0.0244189
0.0244189
0.0244207
0.0244253
0.0244329
0.0244435
0.0244571
0.0244734
0.0244923
0.0245139
0.0245381
0.0245646
0.024594
0.0246271
0.0246632
0.024701
0.0247395
0.0247798
0.0248246
0.0248743
0.0249267
0.0249739
0.0250186
0.0250673
0.0251171
0.0251571
0.0251711
0.0251623
0.0251137
0.0249937
0.0247757
0.0244331
0.0239345
0.0232525
0.0223822
0.0213657
0.0202789
0.019219
0.018297
0.0175866
0.0170171
0.0165363
0.0161384
0.0158244
0.0155854
0.015401
0.015255
0.0151408
0.0150538
0.0149888
0.0149403
0.0149034
0.0148749
0.0148529
0.0148365
0.0148247
0.014817
0.0148127
0.014811
0.0148114
0.0148133
0.0148169
0.0148218
0.0148279
0.0148349
0.0148427
0.0148513
0.0148605
0.0148702
0.0148803
0.0148909
0.0149018
0.014913
0.0149245
0.0149364
0.0149485
0.0149609
0.0149737
0.0149868
0.0150003
0.0150143
0.0150287
0.0150438
0.0150595
0.0150759
0.015093
0.015111
0.0151298
0.0151496
0.0151703
0.015192
0.0152146
0.0152381
0.0152624
0.0152876
0.0153137
0.0153407
0.0153688
0.015398
0.0154285
0.0154603
0.0154936
0.0155286
0.0155653
0.015604
0.0156448
0.0156879
0.0157335
0.0157817
0.0158328
0.0158867
0.0159434
0.016003
0.0160653
0.01613
0.0161965
0.0162644
0.0163337
0.0164043
0.0164764
0.0165499
0.016625
0.0167019
0.0167809
0.0168623
0.0169464
0.0170336
0.0171242
0.0172185
0.0173166
0.0174187
0.0175245
0.0176342
0.0177477
0.0178649
0.0179844
0.0181032
0.0182206
0.018336
0.0184488
0.0185578
0.0186619
0.0187601
0.0188516
0.0189367
0.0190166
0.0190927
0.019167
0.019241
0.0193159
0.019391
0.0194649
0.0195347
0.0195952
0.0196424
0.0196762
0.0196991
0.0197145
0.0197271
0.0197407
0.0197586
0.0197842
0.0198188
0.0198605
0.0199046
0.0199458
0.0199786
0.0200012
0.0200129
0.020018
0.0200154
0.0200127
0.0200059
0.0200034
0.0200014
0.0199891
0.0275502
0.0275471
0.0275443
0.0275421
0.0275405
0.0275397
0.0275397
0.02754
0.0275407
0.0275417
0.0275427
0.027544
0.0247864
0.0247593
0.0247325
0.0247064
0.0246811
0.0246569
0.0246337
0.0246117
0.0245906
0.0245708
0.0245522
0.0245353
0.02452
0.0245066
0.0244952
0.024486
0.0244789
0.0244738
0.0244714
0.0244717
0.0244739
0.0244789
0.024487
0.0244979
0.0245124
0.0245305
0.0245517
0.0245758
0.0246024
0.0246319
0.0246642
0.0246994
0.0247381
0.0247801
0.0248239
0.0248687
0.0249147
0.0249634
0.0250158
0.0250698
0.0251204
0.0251693
0.0252236
0.0252805
0.0253284
0.0253517
0.0253492
0.0253141
0.0252162
0.0250356
0.0247571
0.0243657
0.0238409
0.0231585
0.022323
0.0213782
0.0203854
0.0194187
0.0185604
0.0178777
0.0173502
0.0169086
0.0165361
0.0162313
0.0159896
0.015802
0.0156565
0.01554
0.0154449
0.0153686
0.0153093
0.0152652
0.0152341
0.0152139
0.0152027
0.0151991
0.0152004
0.0152064
0.0152168
0.0152309
0.0152481
0.0152679
0.0152901
0.0153142
0.01534
0.0153671
0.0153952
0.0154242
0.0154539
0.0154843
0.0155154
0.015547
0.0155793
0.0156122
0.0156459
0.0156804
0.0157158
0.0157522
0.0157898
0.0158286
0.0158689
0.0159107
0.0159543
0.0159998
0.0160474
0.0160972
0.0161492
0.0162033
0.0162591
0.0163163
0.016375
0.0164352
0.016497
0.0165605
0.0166257
0.0166927
0.0167617
0.0168328
0.0169061
0.0169819
0.0170604
0.0171419
0.0172266
0.0173147
0.0174067
0.0175028
0.0176031
0.0177077
0.0178166
0.0179296
0.0180446
0.0181584
0.0182702
0.0183797
0.0184864
0.0185903
0.018691
0.0187882
0.0188817
0.018971
0.0190559
0.019136
0.0192112
0.0192816
0.0193474
0.0194091
0.0194672
0.0195222
0.0195741
0.0196226
0.0196672
0.0197078
0.0197437
0.0197742
0.0197996
0.0198204
0.0198381
0.0198543
0.0198709
0.0198899
0.0199126
0.0199388
0.0199673
0.0199957
0.0200194
0.0200343
0.0200407
0.0200395
0.020034
0.0200274
0.0200233
0.0200201
0.0200213
0.0200316
0.0200514
0.0200768
0.0201031
0.0201253
0.0201401
0.0201482
0.02015
0.0201462
0.0201352
0.0201218
0.0201098
0.0201001
0.0200946
0.02009
0.0200894
0.0200928
0.0201035
0.0277081
0.0277078
0.0277078
0.0277081
0.027709
0.0277104
0.0277125
0.0277152
0.0277183
0.0277218
0.0249087
0.0248787
0.0248488
0.0248195
0.0247909
0.024763
0.024736
0.0247099
0.0246845
0.02466
0.0246366
0.0246143
0.0245932
0.0245734
0.0245553
0.0245389
0.0245244
0.0245113
0.0245003
0.0244917
0.0244855
0.0244827
0.0244833
0.0244866
0.0244933
0.024503
0.0245155
0.0245309
0.024549
0.0245702
0.0245947
0.0246226
0.0246536
0.0246865
0.0247215
0.0247592
0.0248001
0.0248445
0.0248913
0.0249397
0.0249914
0.0250475
0.0251053
0.0251636
0.0252159
0.0252589
0.0252992
0.0253401
0.0253782
0.0254027
0.025407
0.0253929
0.0253374
0.0252216
0.0250346
0.0247663
0.0244054
0.0239392
0.0233546
0.0226477
0.0218544
0.021028
0.0202156
0.0194603
0.0187985
0.0182521
0.0178254
0.0174854
0.0171928
0.0169404
0.0167282
0.0165554
0.0164195
0.0163168
0.016243
0.0161944
0.016166
0.0161548
0.0161563