/*--------------------------------*- C++ -*----------------------------------*\
| =========                 |                                                 |
| \\      /  F ield         | OpenFOAM: The Open Source CFD Toolbox           |
|  \\    /   O peration     | Version:  v1706                                 |
|   \\  /    A nd           | Web:      www.OpenFOAM.com                      |
|    \\/     M anipulation  |                                                 |
\*---------------------------------------------------------------------------*/
FoamFile
{
    version     2.0;
    format      ascii;
    class       volScalarField;
    location    "3.2e-05";
    object      mu;
}
// * * * * * * * * * * * * * * * * * * * * * * * * * * * * * * * * * * * * * //

dimensions      [1 -1 -1 0 0 0 0];


internalField   nonuniform List<scalar> 
30104
(
1.04027e-05
1.04098e-05
1.04178e-05
1.04269e-05
1.04371e-05
1.04486e-05
1.04614e-05
1.04755e-05
1.04911e-05
1.0508e-05
1.05266e-05
1.05471e-05
1.057e-05
1.05956e-05
1.06243e-05
1.0656e-05
1.06908e-05
1.04375e-05
1.0424e-05
1.04123e-05
1.04022e-05
1.03933e-05
1.03859e-05
1.03797e-05
1.03746e-05
1.03704e-05
1.03668e-05
1.03638e-05
1.03613e-05
1.03592e-05
1.03575e-05
1.03561e-05
1.03551e-05
1.03542e-05
1.03535e-05
1.0353e-05
1.03526e-05
1.03522e-05
1.0352e-05
1.03517e-05
1.03516e-05
1.03514e-05
1.03513e-05
1.03512e-05
1.03512e-05
1.03511e-05
1.03511e-05
1.03511e-05
1.03511e-05
1.0351e-05
1.0351e-05
1.0351e-05
1.0351e-05
1.0351e-05
1.0351e-05
1.0351e-05
1.0351e-05
1.0351e-05
1.0351e-05
1.0351e-05
1.0351e-05
1.0351e-05
1.0351e-05
1.0351e-05
1.0351e-05
1.0351e-05
1.0351e-05
1.0351e-05
1.0351e-05
1.0351e-05
1.0351e-05
1.0351e-05
1.0351e-05
1.0351e-05
1.0351e-05
1.0351e-05
1.0351e-05
1.0351e-05
1.0351e-05
1.0351e-05
1.0351e-05
1.0351e-05
1.0351e-05
1.0351e-05
1.0351e-05
1.0351e-05
1.0351e-05
1.0351e-05
1.0351e-05
1.0351e-05
1.0351e-05
1.0351e-05
1.0351e-05
1.0351e-05
1.0351e-05
1.0351e-05
1.0351e-05
1.0351e-05
1.0351e-05
1.0351e-05
1.0351e-05
1.0351e-05
1.0351e-05
1.0351e-05
1.0351e-05
1.0351e-05
1.0351e-05
1.0351e-05
1.0351e-05
1.0351e-05
1.0351e-05
1.0351e-05
1.0351e-05
1.0351e-05
1.0351e-05
1.0351e-05
1.0351e-05
1.0351e-05
1.0351e-05
1.0351e-05
1.0351e-05
1.0351e-05
1.0351e-05
1.0351e-05
1.0351e-05
1.0351e-05
1.0351e-05
1.0351e-05
1.0351e-05
1.0351e-05
1.0351e-05
1.0351e-05
1.0351e-05
1.0351e-05
1.0351e-05
1.0351e-05
1.0351e-05
1.0351e-05
1.0351e-05
1.0351e-05
1.0351e-05
1.0351e-05
1.0351e-05
1.0351e-05
1.0351e-05
1.0351e-05
1.0351e-05
1.0351e-05
1.0351e-05
1.0351e-05
1.0351e-05
1.0351e-05
1.0351e-05
1.0351e-05
1.0351e-05
1.0351e-05
1.0351e-05
1.0351e-05
1.0351e-05
1.0351e-05
1.0351e-05
1.0351e-05
1.0351e-05
1.0351e-05
1.0351e-05
1.0351e-05
1.0351e-05
1.0351e-05
1.0351e-05
1.0351e-05
1.0351e-05
1.0351e-05
1.0351e-05
1.0351e-05
1.0351e-05
1.0351e-05
1.0351e-05
1.0351e-05
1.0351e-05
1.0351e-05
1.0351e-05
1.0351e-05
1.0351e-05
1.0351e-05
1.0351e-05
1.0351e-05
1.0351e-05
1.0351e-05
1.0351e-05
1.0351e-05
1.0351e-05
1.0351e-05
1.0351e-05
1.0351e-05
1.0351e-05
1.0351e-05
1.0351e-05
1.0351e-05
1.0351e-05
1.0351e-05
1.0351e-05
1.0351e-05
1.0351e-05
1.0351e-05
1.0351e-05
1.0351e-05
1.0351e-05
1.0351e-05
1.0351e-05
1.0351e-05
1.06653e-05
1.07068e-05
1.07534e-05
1.08056e-05
1.08642e-05
1.09296e-05
1.1002e-05
1.10815e-05
1.1168e-05
1.12616e-05
1.1363e-05
1.14739e-05
1.15957e-05
1.17286e-05
1.18718e-05
1.20243e-05
1.21844e-05
1.09772e-05
1.08878e-05
1.08085e-05
1.0737e-05
1.06729e-05
1.06167e-05
1.05691e-05
1.053e-05
1.0498e-05
1.04715e-05
1.04491e-05
1.04304e-05
1.04149e-05
1.04023e-05
1.03922e-05
1.0384e-05
1.03772e-05
1.03717e-05
1.03673e-05
1.03637e-05
1.03609e-05
1.03587e-05
1.0357e-05
1.03556e-05
1.03546e-05
1.03537e-05
1.03531e-05
1.03526e-05
1.03522e-05
1.03519e-05
1.03517e-05
1.03515e-05
1.03514e-05
1.03513e-05
1.03512e-05
1.03511e-05
1.03511e-05
1.03511e-05
1.03511e-05
1.0351e-05
1.0351e-05
1.0351e-05
1.0351e-05
1.0351e-05
1.0351e-05
1.0351e-05
1.0351e-05
1.0351e-05
1.0351e-05
1.0351e-05
1.0351e-05
1.0351e-05
1.0351e-05
1.0351e-05
1.0351e-05
1.0351e-05
1.0351e-05
1.0351e-05
1.0351e-05
1.0351e-05
1.0351e-05
1.0351e-05
1.0351e-05
1.0351e-05
1.0351e-05
1.0351e-05
1.0351e-05
1.0351e-05
1.0351e-05
1.0351e-05
1.0351e-05
1.0351e-05
1.0351e-05
1.0351e-05
1.0351e-05
1.0351e-05
1.0351e-05
1.0351e-05
1.0351e-05
1.0351e-05
1.0351e-05
1.0351e-05
1.0351e-05
1.0351e-05
1.0351e-05
1.0351e-05
1.0351e-05
1.0351e-05
1.0351e-05
1.0351e-05
1.0351e-05
1.0351e-05
1.0351e-05
1.0351e-05
1.0351e-05
1.0351e-05
1.0351e-05
1.0351e-05
1.0351e-05
1.0351e-05
1.0351e-05
1.0351e-05
1.0351e-05
1.0351e-05
1.0351e-05
1.0351e-05
1.0351e-05
1.0351e-05
1.0351e-05
1.0351e-05
1.0351e-05
1.0351e-05
1.0351e-05
1.0351e-05
1.0351e-05
1.0351e-05
1.0351e-05
1.0351e-05
1.0351e-05
1.0351e-05
1.0351e-05
1.0351e-05
1.0351e-05
1.0351e-05
1.0351e-05
1.0351e-05
1.0351e-05
1.0351e-05
1.0351e-05
1.0351e-05
1.0351e-05
1.0351e-05
1.0351e-05
1.0351e-05
1.0351e-05
1.0351e-05
1.0351e-05
1.0351e-05
1.0351e-05
1.0351e-05
1.0351e-05
1.0351e-05
1.0351e-05
1.0351e-05
1.0351e-05
1.0351e-05
1.0351e-05
1.0351e-05
1.0351e-05
1.0351e-05
1.0351e-05
1.0351e-05
1.0351e-05
1.0351e-05
1.0351e-05
1.0351e-05
1.0351e-05
1.0351e-05
1.0351e-05
1.0351e-05
1.0351e-05
1.0351e-05
1.0351e-05
1.0351e-05
1.0351e-05
1.0351e-05
1.0351e-05
1.0351e-05
1.0351e-05
1.0351e-05
1.0351e-05
1.0351e-05
1.0351e-05
1.0351e-05
1.0351e-05
1.0351e-05
1.0351e-05
1.0351e-05
1.0351e-05
1.0351e-05
1.0351e-05
1.0351e-05
1.0351e-05
1.0351e-05
1.0351e-05
1.0351e-05
1.0351e-05
1.0351e-05
1.0351e-05
1.0351e-05
1.0351e-05
1.0351e-05
1.0351e-05
1.14187e-05
1.15487e-05
1.16922e-05
1.18504e-05
1.20235e-05
1.22105e-05
1.24098e-05
1.26197e-05
1.2838e-05
1.30636e-05
1.3297e-05
1.35473e-05
1.38206e-05
1.41132e-05
1.44189e-05
1.47305e-05
1.25092e-05
1.22523e-05
1.20175e-05
1.17959e-05
1.1587e-05
1.13957e-05
1.12276e-05
1.10853e-05
1.09657e-05
1.08632e-05
1.07739e-05
1.06962e-05
1.06302e-05
1.05759e-05
1.05322e-05
1.0497e-05
1.0468e-05
1.04442e-05
1.04249e-05
1.04094e-05
1.03971e-05
1.03872e-05
1.03794e-05
1.0373e-05
1.0368e-05
1.0364e-05
1.0361e-05
1.03586e-05
1.03568e-05
1.03554e-05
1.03543e-05
1.03535e-05
1.03529e-05
1.03524e-05
1.0352e-05
1.03517e-05
1.03515e-05
1.03514e-05
1.03513e-05
1.03512e-05
1.03511e-05
1.03511e-05
1.03511e-05
1.0351e-05
1.0351e-05
1.0351e-05
1.0351e-05
1.0351e-05
1.0351e-05
1.0351e-05
1.0351e-05
1.0351e-05
1.0351e-05
1.0351e-05
1.0351e-05
1.0351e-05
1.0351e-05
1.0351e-05
1.0351e-05
1.0351e-05
1.0351e-05
1.0351e-05
1.0351e-05
1.0351e-05
1.0351e-05
1.0351e-05
1.0351e-05
1.0351e-05
1.0351e-05
1.0351e-05
1.0351e-05
1.0351e-05
1.0351e-05
1.0351e-05
1.0351e-05
1.0351e-05
1.0351e-05
1.0351e-05
1.0351e-05
1.0351e-05
1.0351e-05
1.0351e-05
1.0351e-05
1.0351e-05
1.0351e-05
1.0351e-05
1.0351e-05
1.0351e-05
1.0351e-05
1.0351e-05
1.0351e-05
1.0351e-05
1.0351e-05
1.0351e-05
1.0351e-05
1.0351e-05
1.0351e-05
1.0351e-05
1.0351e-05
1.0351e-05
1.0351e-05
1.0351e-05
1.0351e-05
1.0351e-05
1.0351e-05
1.0351e-05
1.0351e-05
1.0351e-05
1.0351e-05
1.0351e-05
1.0351e-05
1.0351e-05
1.0351e-05
1.0351e-05
1.0351e-05
1.0351e-05
1.0351e-05
1.0351e-05
1.0351e-05
1.0351e-05
1.0351e-05
1.0351e-05
1.0351e-05
1.0351e-05
1.0351e-05
1.0351e-05
1.0351e-05
1.0351e-05
1.0351e-05
1.0351e-05
1.0351e-05
1.0351e-05
1.0351e-05
1.0351e-05
1.0351e-05
1.0351e-05
1.0351e-05
1.0351e-05
1.0351e-05
1.0351e-05
1.0351e-05
1.0351e-05
1.0351e-05
1.0351e-05
1.0351e-05
1.0351e-05
1.0351e-05
1.0351e-05
1.0351e-05
1.0351e-05
1.0351e-05
1.0351e-05
1.0351e-05
1.0351e-05
1.0351e-05
1.0351e-05
1.0351e-05
1.0351e-05
1.0351e-05
1.0351e-05
1.0351e-05
1.0351e-05
1.0351e-05
1.0351e-05
1.0351e-05
1.0351e-05
1.0351e-05
1.0351e-05
1.0351e-05
1.0351e-05
1.0351e-05
1.0351e-05
1.0351e-05
1.0351e-05
1.0351e-05
1.03511e-05
1.03511e-05
1.03511e-05
1.03511e-05
1.03511e-05
1.03511e-05
1.03511e-05
1.03511e-05
1.03511e-05
1.03511e-05
1.03511e-05
1.03511e-05
1.03511e-05
1.03511e-05
1.03511e-05
1.03511e-05
1.03511e-05
1.03511e-05
1.32321e-05
1.35012e-05
1.37929e-05
1.41084e-05
1.44429e-05
1.47889e-05
1.51382e-05
1.54825e-05
1.58145e-05
1.61285e-05
1.64201e-05
1.66845e-05
1.69196e-05
1.71263e-05
1.73062e-05
1.74617e-05
1.5361e-05
1.50447e-05
1.46898e-05
1.43025e-05
1.38894e-05
1.34613e-05
1.30402e-05
1.26662e-05
1.23526e-05
1.20756e-05
1.1821e-05
1.15867e-05
1.13773e-05
1.11978e-05
1.1049e-05
1.0925e-05
1.08195e-05
1.0729e-05
1.06527e-05
1.05904e-05
1.05409e-05
1.05016e-05
1.047e-05
1.04444e-05
1.04239e-05
1.04077e-05
1.0395e-05
1.0385e-05
1.03771e-05
1.03708e-05
1.0366e-05
1.03622e-05
1.03594e-05
1.03573e-05
1.03556e-05
1.03544e-05
1.03535e-05
1.03528e-05
1.03523e-05
1.03519e-05
1.03517e-05
1.03515e-05
1.03513e-05
1.03512e-05
1.03512e-05
1.03511e-05
1.03511e-05
1.03511e-05
1.0351e-05
1.0351e-05
1.0351e-05
1.0351e-05
1.0351e-05
1.0351e-05
1.0351e-05
1.0351e-05
1.0351e-05
1.0351e-05
1.0351e-05
1.0351e-05
1.0351e-05
1.0351e-05
1.0351e-05
1.0351e-05
1.0351e-05
1.0351e-05
1.0351e-05
1.0351e-05
1.0351e-05
1.0351e-05
1.0351e-05
1.0351e-05
1.0351e-05
1.0351e-05
1.0351e-05
1.0351e-05
1.0351e-05
1.0351e-05
1.0351e-05
1.0351e-05
1.0351e-05
1.0351e-05
1.0351e-05
1.0351e-05
1.0351e-05
1.0351e-05
1.0351e-05
1.0351e-05
1.0351e-05
1.0351e-05
1.0351e-05
1.0351e-05
1.0351e-05
1.0351e-05
1.0351e-05
1.0351e-05
1.0351e-05
1.0351e-05
1.0351e-05
1.0351e-05
1.0351e-05
1.0351e-05
1.0351e-05
1.0351e-05
1.0351e-05
1.0351e-05
1.0351e-05
1.0351e-05
1.0351e-05
1.0351e-05
1.0351e-05
1.0351e-05
1.0351e-05
1.0351e-05
1.0351e-05
1.0351e-05
1.0351e-05
1.0351e-05
1.0351e-05
1.0351e-05
1.0351e-05
1.0351e-05
1.0351e-05
1.0351e-05
1.0351e-05
1.0351e-05
1.0351e-05
1.0351e-05
1.0351e-05
1.0351e-05
1.0351e-05
1.0351e-05
1.0351e-05
1.0351e-05
1.0351e-05
1.0351e-05
1.03511e-05
1.03511e-05
1.03511e-05
1.03511e-05
1.03511e-05
1.03511e-05
1.03511e-05
1.03511e-05
1.03511e-05
1.03511e-05
1.03511e-05
1.03511e-05
1.03511e-05
1.03511e-05
1.03511e-05
1.03511e-05
1.03511e-05
1.03511e-05
1.03511e-05
1.03511e-05
1.03511e-05
1.03511e-05
1.03511e-05
1.03511e-05
1.03511e-05
1.03511e-05
1.03511e-05
1.03511e-05
1.03511e-05
1.03511e-05
1.03511e-05
1.03511e-05
1.03512e-05
1.03512e-05
1.03512e-05
1.03512e-05
1.03512e-05
1.03512e-05
1.03512e-05
1.03512e-05
1.03512e-05
1.03512e-05
1.03512e-05
1.03512e-05
1.03512e-05
1.03512e-05
1.03512e-05
1.03513e-05
1.03513e-05
1.03513e-05
1.03513e-05
1.03513e-05
1.03513e-05
1.03513e-05
1.03513e-05
1.03513e-05
1.03513e-05
1.62375e-05
1.65585e-05
1.68486e-05
1.7106e-05
1.73314e-05
1.75265e-05
1.76938e-05
1.78361e-05
1.79565e-05
1.80577e-05
1.8142e-05
1.82115e-05
1.8268e-05
1.83133e-05
1.83485e-05
1.65568e-05
1.64883e-05
1.64054e-05
1.62999e-05
1.61626e-05
1.59846e-05
1.57582e-05
1.54747e-05
1.51341e-05
1.47448e-05
1.43159e-05
1.38575e-05
1.33871e-05
1.29373e-05
1.25547e-05
1.22314e-05
1.19427e-05
1.16796e-05
1.14445e-05
1.12427e-05
1.10764e-05
1.09399e-05
1.08255e-05
1.07287e-05
1.06481e-05
1.05833e-05
1.05325e-05
1.04927e-05
1.0461e-05
1.04357e-05
1.04158e-05
1.04004e-05
1.03885e-05
1.03792e-05
1.0372e-05
1.03665e-05
1.03624e-05
1.03593e-05
1.0357e-05
1.03553e-05
1.03541e-05
1.03532e-05
1.03526e-05
1.03521e-05
1.03518e-05
1.03516e-05
1.03514e-05
1.03513e-05
1.03512e-05
1.03512e-05
1.03511e-05
1.03511e-05
1.03511e-05
1.03511e-05
1.03511e-05
1.0351e-05
1.0351e-05
1.0351e-05
1.0351e-05
1.0351e-05
1.0351e-05
1.0351e-05
1.0351e-05
1.0351e-05
1.0351e-05
1.0351e-05
1.0351e-05
1.0351e-05
1.0351e-05
1.0351e-05
1.0351e-05
1.0351e-05
1.0351e-05
1.0351e-05
1.0351e-05
1.0351e-05
1.0351e-05
1.0351e-05
1.0351e-05
1.0351e-05
1.0351e-05
1.0351e-05
1.0351e-05
1.0351e-05
1.0351e-05
1.0351e-05
1.0351e-05
1.0351e-05
1.0351e-05
1.0351e-05
1.0351e-05
1.0351e-05
1.0351e-05
1.0351e-05
1.0351e-05
1.0351e-05
1.0351e-05
1.03511e-05
1.03511e-05
1.03511e-05
1.03511e-05
1.03511e-05
1.03511e-05
1.03511e-05
1.03511e-05
1.03511e-05
1.03511e-05
1.03511e-05
1.03511e-05
1.03511e-05
1.03511e-05
1.03511e-05
1.03511e-05
1.03511e-05
1.03511e-05
1.03511e-05
1.03511e-05
1.03511e-05
1.03511e-05
1.03511e-05
1.03511e-05
1.03511e-05
1.03511e-05
1.03511e-05
1.03511e-05
1.03511e-05
1.03511e-05
1.03511e-05
1.03511e-05
1.03511e-05
1.03511e-05
1.03511e-05
1.03512e-05
1.03512e-05
1.03512e-05
1.03512e-05
1.03512e-05
1.03512e-05
1.03512e-05
1.03512e-05
1.03512e-05
1.03512e-05
1.03512e-05
1.03512e-05
1.03512e-05
1.03512e-05
1.03512e-05
1.03513e-05
1.03513e-05
1.03513e-05
1.03513e-05
1.03513e-05
1.03513e-05
1.03513e-05
1.03513e-05
1.03513e-05
1.03514e-05
1.03514e-05
1.03514e-05
1.03514e-05
1.03514e-05
1.03514e-05
1.03514e-05
1.03515e-05
1.03515e-05
1.03515e-05
1.03515e-05
1.03515e-05
1.03516e-05
1.03516e-05
1.03516e-05
1.03516e-05
1.03517e-05
1.03517e-05
1.03517e-05
1.03517e-05
1.03518e-05
1.03518e-05
1.03518e-05
1.03519e-05
1.03519e-05
1.03519e-05
1.0352e-05
1.0352e-05
1.0352e-05
1.03521e-05
1.03521e-05
1.03522e-05
1.03522e-05
1.03522e-05
1.03523e-05
1.03523e-05
1.03523e-05
1.80598e-05
1.81788e-05
1.82774e-05
1.83584e-05
1.84242e-05
1.84769e-05
1.85181e-05
1.85495e-05
1.8573e-05
1.85909e-05
1.8605e-05
1.86166e-05
1.86264e-05
1.86343e-05
1.86402e-05
1.8644e-05
1.68535e-05
1.68327e-05
1.68097e-05
1.67819e-05
1.67478e-05
1.67082e-05
1.6664e-05
1.66123e-05
1.65482e-05
1.64631e-05
1.63462e-05
1.61877e-05
1.59803e-05
1.57158e-05
1.53865e-05
1.4996e-05
1.45533e-05
1.40696e-05
1.35639e-05
1.30702e-05
1.26409e-05
1.22845e-05
1.19719e-05
1.16899e-05
1.14401e-05
1.12279e-05
1.10549e-05
1.0914e-05
1.07968e-05
1.06989e-05
1.06192e-05
1.05568e-05
1.05086e-05
1.04712e-05
1.04418e-05
1.04191e-05
1.04017e-05
1.03885e-05
1.03785e-05
1.03709e-05
1.03653e-05
1.03612e-05
1.03583e-05
1.03562e-05
1.03547e-05
1.03536e-05
1.03529e-05
1.03523e-05
1.0352e-05
1.03517e-05
1.03515e-05
1.03514e-05
1.03513e-05
1.03512e-05
1.03512e-05
1.03512e-05
1.03511e-05
1.03511e-05
1.03511e-05
1.03511e-05
1.03511e-05
1.03511e-05
1.03511e-05
1.03511e-05
1.03511e-05
1.03511e-05
1.03511e-05
1.03511e-05
1.03511e-05
1.03511e-05
1.03511e-05
1.03511e-05
1.03511e-05
1.03511e-05
1.03511e-05
1.03511e-05
1.03511e-05
1.03511e-05
1.03511e-05
1.03511e-05
1.03511e-05
1.03511e-05
1.03511e-05
1.03511e-05
1.03511e-05
1.03511e-05
1.03511e-05
1.03511e-05
1.03511e-05
1.03511e-05
1.03511e-05
1.03511e-05
1.03511e-05
1.03511e-05
1.03511e-05
1.03511e-05
1.03512e-05
1.03512e-05
1.03512e-05
1.03512e-05
1.03512e-05
1.03512e-05
1.03512e-05
1.03512e-05
1.03512e-05
1.03512e-05
1.03512e-05
1.03512e-05
1.03512e-05
1.03512e-05
1.03512e-05
1.03512e-05
1.03512e-05
1.03512e-05
1.03513e-05
1.03513e-05
1.03513e-05
1.03513e-05
1.03513e-05
1.03513e-05
1.03513e-05
1.03513e-05
1.03513e-05
1.03514e-05
1.03514e-05
1.03514e-05
1.03514e-05
1.03514e-05
1.03514e-05
1.03514e-05
1.03515e-05
1.03515e-05
1.03515e-05
1.03515e-05
1.03515e-05
1.03516e-05
1.03516e-05
1.03516e-05
1.03516e-05
1.03517e-05
1.03517e-05
1.03517e-05
1.03517e-05
1.03518e-05
1.03518e-05
1.03518e-05
1.03519e-05
1.03519e-05
1.03519e-05
1.0352e-05
1.0352e-05
1.0352e-05
1.03521e-05
1.03521e-05
1.03522e-05
1.03522e-05
1.03523e-05
1.03523e-05
1.03524e-05
1.03524e-05
1.03525e-05
1.03525e-05
1.03526e-05
1.03527e-05
1.03527e-05
1.03528e-05
1.03529e-05
1.0353e-05
1.0353e-05
1.03531e-05
1.03532e-05
1.03533e-05
1.03534e-05
1.03535e-05
1.03536e-05
1.03537e-05
1.03538e-05
1.03539e-05
1.0354e-05
1.03542e-05
1.03543e-05
1.03544e-05
1.03546e-05
1.03547e-05
1.03549e-05
1.0355e-05
1.03552e-05
1.03554e-05
1.03555e-05
1.03557e-05
1.03559e-05
1.03561e-05
1.03559e-05
1.87343e-05
1.87532e-05
1.87683e-05
1.87806e-05
1.87906e-05
1.87984e-05
1.88036e-05
1.88056e-05
1.88045e-05
1.88016e-05
1.87972e-05
1.87925e-05
1.87876e-05
1.69765e-05
1.69593e-05
1.69422e-05
1.69278e-05
1.69164e-05
1.69087e-05
1.68976e-05
1.68843e-05
1.687e-05
1.68524e-05
1.68296e-05
1.68023e-05
1.67705e-05
1.67311e-05
1.66787e-05
1.66036e-05
1.64939e-05
1.63397e-05
1.61335e-05
1.58672e-05
1.55307e-05
1.51228e-05
1.46525e-05
1.41337e-05
1.35905e-05
1.30635e-05
1.26108e-05
1.22364e-05
1.19084e-05
1.16156e-05
1.13611e-05
1.11501e-05
1.09805e-05
1.08426e-05
1.07289e-05
1.06368e-05
1.05652e-05
1.05111e-05
1.04701e-05
1.04388e-05
1.04151e-05
1.03975e-05
1.03846e-05
1.0375e-05
1.0368e-05
1.03631e-05
1.03596e-05
1.03572e-05
1.03554e-05
1.03542e-05
1.03534e-05
1.03527e-05
1.03523e-05
1.0352e-05
1.03518e-05
1.03516e-05
1.03515e-05
1.03514e-05
1.03514e-05
1.03513e-05
1.03513e-05
1.03513e-05
1.03513e-05
1.03513e-05
1.03512e-05
1.03512e-05
1.03512e-05
1.03512e-05
1.03512e-05
1.03512e-05
1.03512e-05
1.03512e-05
1.03513e-05
1.03513e-05
1.03513e-05
1.03513e-05
1.03513e-05
1.03513e-05
1.03513e-05
1.03513e-05
1.03513e-05
1.03513e-05
1.03513e-05
1.03513e-05
1.03513e-05
1.03513e-05
1.03514e-05
1.03514e-05
1.03514e-05
1.03514e-05
1.03514e-05
1.03514e-05
1.03514e-05
1.03514e-05
1.03514e-05
1.03515e-05
1.03515e-05
1.03515e-05
1.03515e-05
1.03515e-05
1.03515e-05
1.03515e-05
1.03516e-05
1.03516e-05
1.03516e-05
1.03516e-05
1.03516e-05
1.03516e-05
1.03517e-05
1.03517e-05
1.03517e-05
1.03517e-05
1.03518e-05
1.03518e-05
1.03518e-05
1.03518e-05
1.03519e-05
1.03519e-05
1.03519e-05
1.0352e-05
1.0352e-05
1.03521e-05
1.03521e-05
1.03521e-05
1.03522e-05
1.03522e-05
1.03523e-05
1.03523e-05
1.03524e-05
1.03524e-05
1.03525e-05
1.03526e-05
1.03526e-05
1.03527e-05
1.03528e-05
1.03528e-05
1.03529e-05
1.0353e-05
1.03531e-05
1.03532e-05
1.03532e-05
1.03533e-05
1.03534e-05
1.03535e-05
1.03536e-05
1.03538e-05
1.03539e-05
1.0354e-05
1.03541e-05
1.03542e-05
1.03544e-05
1.03545e-05
1.03547e-05
1.03548e-05
1.0355e-05
1.03551e-05
1.03553e-05
1.03555e-05
1.03557e-05
1.03559e-05
1.03561e-05
1.03563e-05
1.03566e-05
1.03568e-05
1.03571e-05
1.03573e-05
1.03576e-05
1.03579e-05
1.03582e-05
1.03585e-05
1.03588e-05
1.03591e-05
1.03595e-05
1.03598e-05
1.03602e-05
1.03606e-05
1.03611e-05
1.03615e-05
1.0362e-05
1.03624e-05
1.0363e-05
1.03635e-05
1.0364e-05
1.03646e-05
1.03652e-05
1.03659e-05
1.03665e-05
1.03672e-05
1.03679e-05
1.03687e-05
1.03694e-05
1.03702e-05
1.03694e-05
1.89543e-05
1.89514e-05
1.89472e-05
1.89425e-05
1.89378e-05
1.89337e-05
1.89297e-05
1.89268e-05
1.89242e-05
1.89207e-05
1.89159e-05
1.89103e-05
1.89025e-05
1.70681e-05
1.70538e-05
1.70394e-05
1.70272e-05
1.70181e-05
1.70107e-05
1.70022e-05
1.69934e-05
1.69855e-05
1.6979e-05
1.69749e-05
1.69746e-05
1.69716e-05
1.69663e-05
1.69601e-05
1.69516e-05
1.69399e-05
1.69244e-05
1.69027e-05
1.68707e-05
1.68212e-05
1.67437e-05
1.66273e-05
1.64624e-05
1.62404e-05
1.59505e-05
1.55795e-05
1.51264e-05
1.46032e-05
1.40301e-05
1.34418e-05
1.28938e-05
1.24429e-05
1.20631e-05
1.17285e-05
1.14367e-05
1.11938e-05
1.10005e-05
1.08465e-05
1.07226e-05
1.06249e-05
1.05512e-05
1.0497e-05
1.0457e-05
1.04275e-05
1.04059e-05
1.03903e-05
1.03791e-05
1.03711e-05
1.03654e-05
1.03615e-05
1.03587e-05
1.03567e-05
1.03553e-05
1.03543e-05
1.03536e-05
1.0353e-05
1.03527e-05
1.03524e-05
1.03522e-05
1.0352e-05
1.03519e-05
1.03519e-05
1.03518e-05
1.03518e-05
1.03517e-05
1.03517e-05
1.03517e-05
1.03517e-05
1.03517e-05
1.03517e-05
1.03517e-05
1.03517e-05
1.03518e-05
1.03518e-05
1.03518e-05
1.03518e-05
1.03518e-05
1.03519e-05
1.03519e-05
1.03519e-05
1.03519e-05
1.0352e-05
1.0352e-05
1.0352e-05
1.0352e-05
1.03521e-05
1.03521e-05
1.03521e-05
1.03522e-05
1.03522e-05
1.03522e-05
1.03523e-05
1.03523e-05
1.03524e-05
1.03524e-05
1.03524e-05
1.03525e-05
1.03525e-05
1.03526e-05
1.03526e-05
1.03527e-05
1.03527e-05
1.03528e-05
1.03528e-05
1.03529e-05
1.03529e-05
1.0353e-05
1.03531e-05
1.03531e-05
1.03532e-05
1.03533e-05
1.03533e-05
1.03534e-05
1.03535e-05
1.03536e-05
1.03537e-05
1.03538e-05
1.03539e-05
1.03541e-05
1.03542e-05
1.03543e-05
1.03544e-05
1.03546e-05
1.03547e-05
1.03549e-05
1.03551e-05
1.03552e-05
1.03554e-05
1.03556e-05
1.03558e-05
1.0356e-05
1.03562e-05
1.03564e-05
1.03567e-05
1.03569e-05
1.03572e-05
1.03574e-05
1.03577e-05
1.0358e-05
1.03583e-05
1.03586e-05
1.03589e-05
1.03593e-05
1.03597e-05
1.036e-05
1.03604e-05
1.03608e-05
1.03613e-05
1.03617e-05
1.03622e-05
1.03627e-05
1.03632e-05
1.03637e-05
1.03643e-05
1.03649e-05
1.03655e-05
1.03662e-05
1.03669e-05
1.03676e-05
1.03683e-05
1.03691e-05
1.037e-05
1.03708e-05
1.03718e-05
1.03727e-05
1.03737e-05
1.03748e-05
1.03758e-05
1.0377e-05
1.03782e-05
1.03794e-05
1.03806e-05
1.0382e-05
1.03833e-05
1.03848e-05
1.03863e-05
1.03879e-05
1.03896e-05
1.03914e-05
1.03933e-05
1.03953e-05
1.03974e-05
1.03996e-05
1.04019e-05
1.04043e-05
1.04068e-05
1.04093e-05
1.0412e-05
1.04148e-05
1.04177e-05
1.04208e-05
1.04183e-05
1.90748e-05
1.90718e-05
1.90677e-05
1.90624e-05
1.90549e-05
1.9047e-05
1.9039e-05
1.90309e-05
1.90242e-05
1.90187e-05
1.90137e-05
1.90086e-05
1.90031e-05
1.89965e-05
1.71504e-05
1.7137e-05
1.71234e-05
1.7111e-05
1.71009e-05
1.70926e-05
1.70855e-05
1.70789e-05
1.70729e-05
1.70678e-05
1.70649e-05
1.70632e-05
1.7061e-05
1.70605e-05
1.70615e-05
1.70649e-05
1.70718e-05
1.70799e-05
1.70838e-05
1.70869e-05
1.70889e-05
1.70892e-05
1.70874e-05
1.70796e-05
1.70617e-05
1.70277e-05
1.69692e-05
1.68758e-05
1.67368e-05
1.65411e-05
1.62759e-05
1.59251e-05
1.54758e-05
1.49349e-05
1.43221e-05
1.36734e-05
1.30498e-05
1.25284e-05
1.21005e-05
1.17316e-05
1.14156e-05
1.11581e-05
1.09576e-05
1.08013e-05
1.06796e-05
1.05881e-05
1.05221e-05
1.04748e-05
1.04406e-05
1.04159e-05
1.03982e-05
1.03855e-05
1.03764e-05
1.03698e-05
1.03651e-05
1.03618e-05
1.03594e-05
1.03576e-05
1.03564e-05
1.03554e-05
1.03547e-05
1.03542e-05
1.03539e-05
1.03536e-05
1.03534e-05
1.03533e-05
1.03532e-05
1.03531e-05
1.03531e-05
1.03531e-05
1.03531e-05
1.03531e-05
1.03532e-05
1.03532e-05
1.03532e-05
1.03533e-05
1.03534e-05
1.03534e-05
1.03535e-05
1.03536e-05
1.03537e-05
1.03537e-05
1.03538e-05
1.03539e-05
1.0354e-05
1.03541e-05
1.03542e-05
1.03543e-05
1.03544e-05
1.03545e-05
1.03546e-05
1.03547e-05
1.03548e-05
1.03549e-05
1.03551e-05
1.03552e-05
1.03553e-05
1.03554e-05
1.03556e-05
1.03557e-05
1.03559e-05
1.0356e-05
1.03562e-05
1.03563e-05
1.03565e-05
1.03567e-05
1.03569e-05
1.03571e-05
1.03573e-05
1.03575e-05
1.03577e-05
1.0358e-05
1.03582e-05
1.03585e-05
1.03588e-05
1.03591e-05
1.03594e-05
1.03597e-05
1.03601e-05
1.03604e-05
1.03608e-05
1.03612e-05
1.03617e-05
1.03621e-05
1.03626e-05
1.03631e-05
1.03636e-05
1.03642e-05
1.03648e-05
1.03654e-05
1.0366e-05
1.03667e-05
1.03674e-05
1.03681e-05
1.03689e-05
1.03697e-05
1.03705e-05
1.03714e-05
1.03723e-05
1.03732e-05
1.03743e-05
1.03753e-05
1.03764e-05
1.03776e-05
1.03789e-05
1.03801e-05
1.03815e-05
1.03829e-05
1.03844e-05
1.03859e-05
1.03875e-05
1.03891e-05
1.03909e-05
1.03927e-05
1.03946e-05
1.03966e-05
1.03987e-05
1.04009e-05
1.04033e-05
1.04057e-05
1.04083e-05
1.04111e-05
1.0414e-05
1.0417e-05
1.04202e-05
1.04236e-05
1.04271e-05
1.04308e-05
1.04345e-05
1.04385e-05
1.04425e-05
1.04468e-05
1.04512e-05
1.04559e-05
1.04608e-05
1.04659e-05
1.04714e-05
1.04771e-05
1.04831e-05
1.04895e-05
1.04961e-05
1.05031e-05
1.05105e-05
1.05183e-05
1.05266e-05
1.05354e-05
1.05447e-05
1.05545e-05
1.05648e-05
1.05755e-05
1.05866e-05
1.05994e-05
1.05928e-05
1.91695e-05
1.91633e-05
1.91575e-05
1.91514e-05
1.91444e-05
1.91367e-05
1.91285e-05
1.91202e-05
1.91121e-05
1.9105e-05
1.90992e-05
1.90944e-05
1.90902e-05
1.90859e-05
1.72368e-05
1.72223e-05
1.7208e-05
1.71947e-05
1.7183e-05
1.71729e-05
1.71645e-05
1.71571e-05
1.71504e-05
1.71445e-05
1.714e-05
1.71366e-05
1.71348e-05
1.71351e-05
1.71367e-05
1.71403e-05
1.71463e-05
1.71526e-05
1.71595e-05
1.71681e-05
1.71794e-05
1.71943e-05
1.72109e-05
1.72242e-05
1.72367e-05
1.72493e-05
1.72615e-05
1.72689e-05
1.7269e-05
1.72626e-05
1.72408e-05
1.71944e-05
1.71133e-05
1.69847e-05
1.67939e-05
1.65241e-05
1.61557e-05
1.56713e-05
1.5075e-05
1.43924e-05
1.36718e-05
1.29936e-05
1.24429e-05
1.19941e-05
1.16146e-05
1.13018e-05
1.10588e-05
1.08751e-05
1.07349e-05
1.06299e-05
1.05542e-05
1.05004e-05
1.04617e-05
1.04334e-05
1.04127e-05
1.03977e-05
1.03866e-05
1.03785e-05
1.03725e-05
1.03682e-05
1.03651e-05
1.03628e-05
1.03612e-05
1.03599e-05
1.03591e-05
1.03584e-05
1.03579e-05
1.03576e-05
1.03574e-05
1.03573e-05
1.03572e-05
1.03572e-05
1.03573e-05
1.03573e-05
1.03575e-05
1.03576e-05
1.03578e-05
1.0358e-05
1.03582e-05
1.03584e-05
1.03587e-05
1.03589e-05
1.03592e-05
1.03594e-05
1.03597e-05
1.036e-05
1.03603e-05
1.03606e-05
1.03609e-05
1.03612e-05
1.03616e-05
1.03619e-05
1.03623e-05
1.03626e-05
1.0363e-05
1.03634e-05
1.03638e-05
1.03642e-05
1.03646e-05
1.0365e-05
1.03655e-05
1.03659e-05
1.03664e-05
1.03669e-05
1.03675e-05
1.0368e-05
1.03686e-05
1.03692e-05
1.03698e-05
1.03705e-05
1.03712e-05
1.03719e-05
1.03727e-05
1.03735e-05
1.03744e-05
1.03753e-05
1.03763e-05
1.03773e-05
1.03784e-05
1.03795e-05
1.03808e-05
1.0382e-05
1.03834e-05
1.03849e-05
1.03864e-05
1.0388e-05
1.03897e-05
1.03915e-05
1.03934e-05
1.03953e-05
1.03974e-05
1.03995e-05
1.04017e-05
1.0404e-05
1.04064e-05
1.04089e-05
1.04115e-05
1.04143e-05
1.04172e-05
1.04203e-05
1.04235e-05
1.04269e-05
1.04305e-05
1.04343e-05
1.04382e-05
1.04424e-05
1.04468e-05
1.04514e-05
1.04562e-05
1.04612e-05
1.04664e-05
1.04718e-05
1.04775e-05
1.04834e-05
1.04896e-05
1.04961e-05
1.0503e-05
1.05102e-05
1.05179e-05
1.0526e-05
1.05345e-05
1.05436e-05
1.05531e-05
1.05632e-05
1.05738e-05
1.0585e-05
1.05968e-05
1.06092e-05
1.06222e-05
1.06358e-05
1.065e-05
1.06646e-05
1.06796e-05
1.06951e-05
1.07109e-05
1.07273e-05
1.07443e-05
1.0762e-05
1.07806e-05
1.08002e-05
1.0821e-05
1.08431e-05
1.08666e-05
1.08915e-05
1.09181e-05
1.0946e-05
1.09754e-05
1.10063e-05
1.10385e-05
1.10724e-05
1.11067e-05
1.11497e-05
1.11407e-05
1.92532e-05
1.92454e-05
1.9239e-05
1.92335e-05
1.92284e-05
1.92232e-05
1.92178e-05
1.92121e-05
1.92061e-05
1.92004e-05
1.91953e-05
1.91911e-05
1.91877e-05
1.9185e-05
1.7329e-05
1.73134e-05
1.72982e-05
1.72838e-05
1.72704e-05
1.72582e-05
1.72473e-05
1.72374e-05
1.72285e-05
1.72207e-05
1.7214e-05
1.72085e-05
1.72046e-05
1.72027e-05
1.72028e-05
1.72043e-05
1.72076e-05
1.72125e-05
1.7219e-05
1.72275e-05
1.72383e-05
1.72515e-05
1.72659e-05
1.72816e-05
1.72992e-05
1.73195e-05
1.7343e-05
1.73667e-05
1.73876e-05
1.74087e-05
1.74294e-05
1.7449e-05
1.74641e-05
1.74686e-05
1.74652e-05
1.74474e-05
1.7403e-05
1.73196e-05
1.71813e-05
1.69693e-05
1.66614e-05
1.62322e-05
1.56635e-05
1.49693e-05
1.41943e-05
1.34177e-05
1.2748e-05
1.22281e-05
1.18034e-05
1.14536e-05
1.11789e-05
1.09732e-05
1.08178e-05
1.06993e-05
1.0611e-05
1.05472e-05
1.05009e-05
1.04665e-05
1.04407e-05
1.04216e-05
1.04074e-05
1.0397e-05
1.03891e-05
1.03833e-05
1.03791e-05
1.0376e-05
1.03737e-05
1.03721e-05
1.03709e-05
1.03701e-05
1.03696e-05
1.03694e-05
1.03693e-05
1.03694e-05
1.03696e-05
1.03699e-05
1.03704e-05
1.03709e-05
1.03714e-05
1.03721e-05
1.03727e-05
1.03735e-05
1.03742e-05
1.0375e-05
1.03759e-05
1.03767e-05
1.03776e-05
1.03785e-05
1.03795e-05
1.03804e-05
1.03814e-05
1.03824e-05
1.03835e-05
1.03846e-05
1.03857e-05
1.03868e-05
1.0388e-05
1.03892e-05
1.03905e-05
1.03918e-05
1.03932e-05
1.03947e-05
1.03962e-05
1.03978e-05
1.03994e-05
1.04011e-05
1.04029e-05
1.04048e-05
1.04067e-05
1.04088e-05
1.04109e-05
1.04131e-05
1.04155e-05
1.04179e-05
1.04205e-05
1.04232e-05
1.04261e-05
1.04292e-05
1.04324e-05
1.04358e-05
1.04395e-05
1.04433e-05
1.04474e-05
1.04518e-05
1.04564e-05
1.04613e-05
1.04665e-05
1.04719e-05
1.04776e-05
1.04836e-05
1.04898e-05
1.04963e-05
1.0503e-05
1.05101e-05
1.05174e-05
1.05251e-05
1.05331e-05
1.05415e-05
1.05504e-05
1.05597e-05
1.05695e-05
1.05799e-05
1.05909e-05
1.06025e-05
1.06148e-05
1.06278e-05
1.06414e-05
1.06557e-05
1.06708e-05
1.06864e-05
1.07028e-05
1.07197e-05
1.07373e-05
1.07554e-05
1.07742e-05
1.07938e-05
1.08141e-05
1.08352e-05
1.08572e-05
1.08803e-05
1.09046e-05
1.09302e-05
1.09574e-05
1.09863e-05
1.1017e-05
1.10496e-05
1.10839e-05
1.112e-05
1.11576e-05
1.11966e-05
1.12369e-05
1.12782e-05
1.13204e-05
1.13634e-05
1.14075e-05
1.1453e-05
1.14999e-05
1.15487e-05
1.15991e-05
1.16513e-05
1.17048e-05
1.17595e-05
1.18154e-05
1.18732e-05
1.19334e-05
1.19971e-05
1.20643e-05
1.2137e-05
1.22127e-05
1.22965e-05
1.23812e-05
1.24822e-05
1.25315e-05
1.93431e-05
1.93367e-05
1.93309e-05
1.93261e-05
1.9322e-05
1.93185e-05
1.93152e-05
1.93119e-05
1.93084e-05
1.93048e-05
1.93014e-05
1.92983e-05
1.92958e-05
1.74255e-05
1.74088e-05
1.73925e-05
1.73767e-05
1.73615e-05
1.73472e-05
1.73339e-05
1.73215e-05
1.73103e-05
1.73e-05
1.72908e-05
1.72825e-05
1.72756e-05
1.72704e-05
1.7267e-05
1.72659e-05
1.72662e-05
1.72681e-05
1.72717e-05
1.72773e-05
1.72849e-05
1.72946e-05
1.73065e-05
1.73206e-05
1.73368e-05
1.73552e-05
1.73751e-05
1.73962e-05
1.74187e-05
1.7443e-05
1.74695e-05
1.74983e-05
1.75282e-05
1.7554e-05
1.75796e-05
1.76066e-05
1.76339e-05
1.76573e-05
1.76686e-05
1.7667e-05
1.76493e-05
1.75975e-05
1.74939e-05
1.73172e-05
1.70433e-05
1.66474e-05
1.61072e-05
1.54244e-05
1.46412e-05
1.38301e-05
1.30908e-05
1.25121e-05
1.20593e-05
1.16851e-05
1.13801e-05
1.11432e-05
1.09644e-05
1.0826e-05
1.0718e-05
1.06362e-05
1.0576e-05
1.05319e-05
1.04989e-05
1.04738e-05
1.04548e-05
1.04406e-05
1.04301e-05
1.04222e-05
1.04162e-05
1.04118e-05
1.04086e-05
1.04064e-05
1.04052e-05
1.04046e-05
1.04046e-05
1.0405e-05
1.04057e-05
1.04069e-05
1.04083e-05
1.04099e-05
1.04117e-05
1.04138e-05
1.04159e-05
1.04182e-05
1.04207e-05
1.04232e-05
1.04258e-05
1.04285e-05
1.04313e-05
1.04342e-05
1.04371e-05
1.04401e-05
1.04431e-05
1.04463e-05
1.04495e-05
1.04529e-05
1.04564e-05
1.04599e-05
1.04637e-05
1.04676e-05
1.04716e-05
1.04758e-05
1.04802e-05
1.04848e-05
1.04896e-05
1.04946e-05
1.04999e-05
1.05054e-05
1.05111e-05
1.0517e-05
1.05232e-05
1.05297e-05
1.05365e-05
1.05436e-05
1.0551e-05
1.05589e-05
1.05671e-05
1.05758e-05
1.0585e-05
1.05948e-05
1.06052e-05
1.06162e-05
1.06279e-05
1.06403e-05
1.06536e-05
1.06676e-05
1.06826e-05
1.06984e-05
1.0715e-05
1.07325e-05
1.07507e-05
1.07696e-05
1.07891e-05
1.08093e-05
1.08301e-05
1.08517e-05
1.0874e-05
1.08972e-05
1.09214e-05
1.09465e-05
1.09729e-05
1.10005e-05
1.10295e-05
1.106e-05
1.10921e-05
1.1126e-05
1.11618e-05
1.11994e-05
1.12389e-05
1.12803e-05
1.13233e-05
1.13679e-05
1.14135e-05
1.14601e-05
1.15076e-05
1.15561e-05
1.16058e-05
1.16569e-05
1.17096e-05
1.17641e-05
1.18207e-05
1.18796e-05
1.19407e-05
1.20042e-05
1.20698e-05
1.21376e-05
1.22079e-05
1.22813e-05
1.23583e-05
1.24396e-05
1.25255e-05
1.26158e-05
1.27081e-05
1.27998e-05
1.28893e-05
1.2975e-05
1.30552e-05
1.31292e-05
1.31973e-05
1.32613e-05
1.33232e-05
1.33848e-05
1.34474e-05
1.35121e-05
1.35786e-05
1.36458e-05
1.37105e-05
1.37703e-05
1.38229e-05