/*--------------------------------*- C++ -*----------------------------------*\
| =========                 |                                                 |
| \\      /  F ield         | OpenFOAM: The Open Source CFD Toolbox           |
|  \\    /   O peration     | Version:  v1706                                 |
|   \\  /    A nd           | Web:      www.OpenFOAM.com                      |
|    \\/     M anipulation  |                                                 |
\*---------------------------------------------------------------------------*/
FoamFile
{
    version     2.0;
    format      ascii;
    class       volScalarField;
    location    "3.2e-05";
    object      p;
}
// * * * * * * * * * * * * * * * * * * * * * * * * * * * * * * * * * * * * * //

dimensions      [1 -1 -2 0 0 0 0];


internalField   nonuniform List<scalar> 
30104
(
22.1324
22.1628
22.1978
22.2379
22.2835
22.3349
22.3919
22.4541
22.5213
22.5935
22.6712
22.7559
22.8505
22.9584
23.0827
23.2256
23.3881
22.2913
22.2299
22.1792
22.1355
22.0985
22.0686
22.0441
22.0233
22.0053
21.9893
21.975
21.9623
21.9514
21.9427
21.9362
21.9314
21.9278
21.925
21.9228
21.9211
21.9197
21.9185
21.9175
21.9166
21.9159
21.9153
21.915
21.9147
21.9145
21.9144
21.9143
21.9142
21.9141
21.914
21.914
21.914
21.9139
21.9139
21.9139
21.9139
21.9139
21.9139
21.9139
21.9139
21.9139
21.9139
21.9139
21.9139
21.9139
21.9139
21.9139
21.9139
21.9139
21.9139
21.9139
21.9139
21.9139
21.9139
21.9139
21.9139
21.9139
21.9139
21.9139
21.9139
21.9139
21.9139
21.9139
21.9139
21.9139
21.9139
21.9139
21.9139
21.9139
21.9139
21.9139
21.9139
21.9139
21.9139
21.9139
21.9139
21.9139
21.9139
21.9139
21.9139
21.9139
21.9139
21.9139
21.9139
21.9139
21.9139
21.9139
21.9139
21.9139
21.9139
21.9139
21.9139
21.9139
21.9139
21.9139
21.9139
21.9139
21.9139
21.9139
21.9139
21.9139
21.9139
21.9139
21.9139
21.9139
21.9139
21.9139
21.9139
21.9139
21.9139
21.9139
21.9139
21.9139
21.9139
21.9139
21.9139
21.9139
21.9139
21.9139
21.9139
21.9139
21.9139
21.9139
21.9139
21.9139
21.9139
21.9139
21.9139
21.9139
21.9139
21.9139
21.9139
21.9139
21.9139
21.9139
21.9139
21.9139
21.9139
21.9139
21.9139
21.9139
21.9139
21.9139
21.9139
21.9139
21.9139
21.9139
21.9139
21.9139
21.9139
21.9139
21.9139
21.9139
21.9139
21.9139
21.9139
21.9139
21.9139
21.9139
21.9139
21.9139
21.9139
21.9139
21.9139
21.9139
21.9139
21.9139
21.9139
21.9139
21.9139
21.9139
21.9139
21.9139
21.9139
21.9139
21.9139
21.9139
21.9139
21.9139
21.9139
21.9139
21.9139
21.9139
21.9139
21.9139
21.9139
21.9139
21.9139
21.9139
23.2123
23.387
23.583
23.8049
24.0576
24.3458
24.6734
25.0427
25.4554
25.9121
26.4184
26.981
27.6034
28.2847
29.0226
29.8163
30.6677
24.8798
24.4406
24.0509
23.7032
23.3926
23.1194
22.8892
22.7047
22.5588
22.4404
22.3423
22.2612
22.1949
22.141
22.0971
22.0611
22.0312
22.0062
21.9857
21.9694
21.9568
21.9472
21.9397
21.9339
21.9294
21.9259
21.9232
21.921
21.9192
21.9179
21.9168
21.916
21.9154
21.915
21.9147
21.9145
21.9143
21.9142
21.9141
21.9141
21.914
21.914
21.914
21.9139
21.9139
21.9139
21.9139
21.9139
21.9139
21.9139
21.9139
21.9139
21.9139
21.9139
21.9139
21.9139
21.9139
21.9139
21.9139
21.9139
21.9139
21.9139
21.9139
21.9139
21.9139
21.9139
21.9139
21.9139
21.9139
21.9139
21.9139
21.9139
21.9139
21.9139
21.9139
21.9139
21.9139
21.9139
21.9139
21.9139
21.9139
21.9139
21.9139
21.9139
21.9139
21.9139
21.9139
21.9139
21.9139
21.9139
21.9139
21.9139
21.9139
21.9139
21.9139
21.9139
21.9139
21.9139
21.9139
21.9139
21.9139
21.9139
21.9139
21.9139
21.9139
21.9139
21.9139
21.9139
21.9139
21.9139
21.9139
21.9139
21.9139
21.9139
21.9139
21.9139
21.9139
21.9139
21.9139
21.9139
21.9139
21.9139
21.9139
21.9139
21.9139
21.9139
21.9139
21.9139
21.9139
21.9139
21.9139
21.9139
21.9139
21.9139
21.9139
21.9139
21.9139
21.9139
21.9139
21.9139
21.9139
21.9139
21.9139
21.9139
21.9139
21.9139
21.9139
21.9139
21.9139
21.9139
21.9139
21.9139
21.9139
21.9139
21.9139
21.9139
21.9139
21.9139
21.9139
21.9139
21.9139
21.9139
21.9139
21.9139
21.9139
21.9139
21.9139
21.9139
21.9139
21.9139
21.9139
21.9139
21.914
21.914
21.914
21.914
21.914
21.914
21.914
21.914
21.914
21.914
21.914
21.914
21.914
21.914
21.914
21.914
21.914
21.914
21.914
21.914
21.914
26.5256
27.1634
27.8828
28.6891
29.5841
30.5682
31.6433
32.8141
34.0861
35.4745
36.9856
38.7369
40.8664
43.4323
46.4536
49.9223
33.5418
31.7908
30.3328
29.0397
27.8906
26.905
26.0806
25.3893
24.802
24.2974
23.8612
23.4835
23.1635
22.9046
22.7027
22.5448
22.4186
22.3166
22.2346
22.1691
22.1164
22.0739
22.039
22.0104
21.9874
21.9697
21.9563
21.9462
21.9386
21.9327
21.9282
21.9247
21.922
21.9198
21.9182
21.9169
21.9161
21.9155
21.915
21.9147
21.9145
21.9143
21.9142
21.9141
21.914
21.914
21.914
21.914
21.9139
21.9139
21.9139
21.9139
21.9139
21.9139
21.9139
21.9139
21.9139
21.9139
21.9139
21.9139
21.9139
21.9139
21.9139
21.9139
21.9139
21.9139
21.9139
21.9139
21.9139
21.9139
21.9139
21.9139
21.9139
21.9139
21.9139
21.9139
21.9139
21.9139
21.9139
21.9139
21.9139
21.9139
21.9139
21.9139
21.9139
21.9139
21.9139
21.9139
21.9139
21.9139
21.9139
21.9139
21.9139
21.9139
21.9139
21.9139
21.9139
21.9139
21.9139
21.9139
21.9139
21.9139
21.9139
21.9139
21.9139
21.9139
21.9139
21.9139
21.9139
21.9139
21.9139
21.9139
21.9139
21.9139
21.9139
21.9139
21.9139
21.9139
21.9139
21.9139
21.9139
21.9139
21.9139
21.9139
21.9139
21.9139
21.9139
21.914
21.914
21.914
21.914
21.914
21.914
21.914
21.914
21.914
21.914
21.914
21.914
21.914
21.914
21.914
21.914
21.914
21.914
21.914
21.914
21.914
21.914
21.914
21.914
21.914
21.914
21.914
21.914
21.914
21.914
21.914
21.914
21.914
21.9141
21.9141
21.9141
21.9141
21.9141
21.9141
21.9141
21.9141
21.9141
21.9141
21.9141
21.9141
21.9141
21.9141
21.9141
21.9142
21.9142
21.9142
21.9142
21.9142
21.9142
21.9142
21.9142
21.9142
21.9142
21.9143
21.9143
21.9143
21.9143
21.9143
21.9143
21.9143
21.9143
36.2918
38.0367
40.111
42.6338
45.6675
49.2411
53.3546
57.9836
63.0849
68.6039
74.4845
80.5568
86.6239
92.5732
98.3312
103.846
73.303
66.3043
59.4822
53.0954
47.2796
42.1287
37.8146
34.627
32.3813
30.6225
29.1309
27.8529
26.7866
25.9097
25.1853
24.5789
24.065
23.6267
23.2584
22.9623
22.7343
22.5592
22.422
22.3133
22.2275
22.1598
22.106
22.0628
22.0277
21.9994
21.9774
21.9611
21.9491
21.9402
21.9335
21.9285
21.9247
21.9218
21.9195
21.9178
21.9166
21.9158
21.9153
21.9149
21.9146
21.9144
21.9143
21.9142
21.9141
21.9141
21.914
21.914
21.914
21.914
21.914
21.914
21.914
21.914
21.914
21.914
21.9139
21.9139
21.9139
21.9139
21.9139
21.9139
21.9139
21.9139
21.9139
21.9139
21.9139
21.9139
21.9139
21.9139
21.9139
21.9139
21.9139
21.9139
21.9139
21.914
21.914
21.914
21.914
21.914
21.914
21.914
21.914
21.914
21.914
21.914
21.914
21.914
21.914
21.914
21.914
21.914
21.914
21.914
21.914
21.914
21.914
21.914
21.914
21.914
21.914
21.914
21.914
21.914
21.914
21.914
21.914
21.914
21.914
21.914
21.914
21.914
21.914
21.914
21.914
21.914
21.914
21.9141
21.9141
21.9141
21.9141
21.9141
21.9141
21.9141
21.9141
21.9141
21.9141
21.9141
21.9141
21.9141
21.9141
21.9141
21.9142
21.9142
21.9142
21.9142
21.9142
21.9142
21.9142
21.9142
21.9142
21.9142
21.9143
21.9143
21.9143
21.9143
21.9143
21.9143
21.9143
21.9144
21.9144
21.9144
21.9144
21.9144
21.9145
21.9145
21.9145
21.9145
21.9145
21.9146
21.9146
21.9146
21.9146
21.9147
21.9147
21.9147
21.9148
21.9148
21.9148
21.9148
21.9149
21.9149
21.915
21.915
21.915
21.9151
21.9151
21.9152
21.9152
21.9152
21.9153
21.9153
21.9154
21.9154
21.9155
21.9156
21.9156
21.9157
21.9157
68.5641
74.915
81.4917
88.1064
94.6274
100.957
107.016
112.747
118.11
123.075
127.634
131.773
135.479
138.737
141.552
111.012
107.801
104.147
99.9167
94.9644
89.2224
82.6883
75.3348
67.5318
59.9067
52.8435
46.5175
41.058
36.7086
33.6737
31.4958
29.7522
28.2902
27.0796
26.0945
25.2924
24.6309
24.0768
23.6093
23.2225
22.9182
22.6881
22.5137
22.3788
22.2735
22.1915
22.1274
22.0767
22.0361
22.0038
21.979
21.961
21.9482
21.9389
21.9322
21.9272
21.9235
21.9207
21.9186
21.9172
21.9162
21.9156
21.9152
21.9148
21.9146
21.9144
21.9143
21.9142
21.9142
21.9142
21.9141
21.9141
21.9141
21.9141
21.9141
21.9141
21.914
21.914
21.914
21.914
21.914
21.914
21.914
21.914
21.914
21.914
21.914
21.914
21.914
21.914
21.914
21.914
21.9141
21.9141
21.9141
21.9141
21.9141
21.9141
21.9141
21.9141
21.9141
21.9141
21.9141
21.9141
21.9141
21.9141
21.9141
21.9141
21.9141
21.9141
21.9141
21.9141
21.9141
21.9142
21.9142
21.9142
21.9142
21.9142
21.9142
21.9142
21.9142
21.9142
21.9142
21.9142
21.9142
21.9143
21.9143
21.9143
21.9143
21.9143
21.9143
21.9143
21.9144
21.9144
21.9144
21.9144
21.9144
21.9144
21.9145
21.9145
21.9145
21.9145
21.9145
21.9146
21.9146
21.9146
21.9146
21.9147
21.9147
21.9147
21.9148
21.9148
21.9148
21.9149
21.9149
21.9149
21.915
21.915
21.9151
21.9151
21.9152
21.9152
21.9152
21.9153
21.9154
21.9154
21.9155
21.9155
21.9156
21.9156
21.9157
21.9158
21.9158
21.9159
21.916
21.9161
21.9162
21.9163
21.9163
21.9164
21.9165
21.9166
21.9167
21.9168
21.9169
21.9171
21.9172
21.9173
21.9175
21.9176
21.9178
21.9179
21.9181
21.9182
21.9184
21.9186
21.9187
21.9189
21.9191
21.9194
21.9196
21.9198
21.9201
21.9203
21.9205
21.9208
21.921
21.9209
117.281
122.914
128.092
132.785
136.966
140.625
143.771
146.429
148.64
150.479
152.016
153.328
154.476
155.466
156.316
157.037
124.372
123.535
122.464
121.076
119.343
117.35
115.11
112.434
109.173
105.181
100.313
94.5127
87.8343
80.3387
72.1166
63.7757
55.8977
48.7853
42.6206
37.6464
34.1298
31.6999
29.8175
28.27
27.0053
25.9853
25.1607
24.4839
23.9193
23.4493
23.0725
22.7868
22.5754
22.4166
22.2955
22.2027
22.1312
22.0755
22.0317
21.9979
21.9731
21.9559
21.944
21.9357
21.9296
21.9252
21.922
21.9196
21.9179
21.9169
21.9162
21.9157
21.9153
21.915
21.9148
21.9147
21.9146
21.9145
21.9144
21.9144
21.9144
21.9144
21.9143
21.9143
21.9143
21.9143
21.9143
21.9143
21.9143
21.9143
21.9143
21.9143
21.9143
21.9143
21.9143
21.9143
21.9144
21.9144
21.9144
21.9144
21.9144
21.9144
21.9144
21.9145
21.9145
21.9145
21.9145
21.9145
21.9145
21.9145
21.9146
21.9146
21.9146
21.9146
21.9146
21.9147
21.9147
21.9147
21.9147
21.9147
21.9148
21.9148
21.9148
21.9148
21.9149
21.9149
21.9149
21.9149
21.915
21.915
21.915
21.9151
21.9151
21.9152
21.9152
21.9153
21.9153
21.9154
21.9154
21.9155
21.9155
21.9156
21.9157
21.9157
21.9158
21.9159
21.916
21.916
21.9161
21.9162
21.9163
21.9164
21.9165
21.9166
21.9167
21.9168
21.9169
21.917
21.9172
21.9173
21.9174
21.9176
21.9177
21.9179
21.918
21.9182
21.9183
21.9185
21.9187
21.9189
21.9191
21.9193
21.9195
21.9198
21.92
21.9202
21.9205
21.9208
21.9211
21.9214
21.9217
21.922
21.9223
21.9226
21.923
21.9234
21.9238
21.9242
21.9247
21.9251
21.9256
21.926
21.9265
21.927
21.9275
21.9281
21.9286
21.9293
21.9299
21.9306
21.9313
21.932
21.9328
21.9335
21.9343
21.9351
21.9359
21.9368
21.9377
21.9386
21.9396
21.9408
21.9405
151.694
153.593
155.187
156.538
157.684
158.665
159.471
160.091
160.504
160.729
160.813
160.859
160.794
126.078
125.861
125.692
125.66
125.802
125.93
125.717
125.207
124.393
123.249
121.795
120.126
118.219
115.846
112.763
108.759
103.697
97.5787
90.5129
82.6237
73.9725
65.0682
56.6
48.9752
42.4406
37.2707
33.6975
31.2441
29.3486
27.8105
26.5711
25.5778
24.7759
24.1168
23.5729
23.1388
22.8133
22.5781
22.407
22.2802
22.1849
22.1125
22.0571
22.0149
21.9843
21.9633
21.9492
21.9396
21.9328
21.9278
21.9241
21.9214
21.9195
21.9182
21.9174
21.9168
21.9163
21.916
21.9157
21.9155
21.9154
21.9153
21.9152
21.9152
21.9151
21.9151
21.9151
21.9151
21.9151
21.9151
21.9151
21.9152
21.9152
21.9152
21.9152
21.9153
21.9153
21.9153
21.9154
21.9154
21.9154
21.9155
21.9155
21.9156
21.9156
21.9157
21.9157
21.9158
21.9158
21.9159
21.9159
21.916
21.916
21.9161
21.9162
21.9162
21.9163
21.9164
21.9164
21.9165
21.9166
21.9167
21.9167
21.9168
21.9169
21.917
21.9171
21.9172
21.9173
21.9174
21.9175
21.9177
21.9178
21.9179
21.9181
21.9182
21.9184
21.9186
21.9188
21.9189
21.9191
21.9194
21.9196
21.9198
21.92
21.9203
21.9205
21.9208
21.9211
21.9214
21.9217
21.922
21.9223
21.9227
21.9231
21.9234
21.9238
21.9243
21.9247
21.9251
21.9256
21.9261
21.9266
21.9272
21.9277
21.9283
21.9289
21.9296
21.9302
21.9309
21.9316
21.9324
21.9332
21.934
21.9348
21.9357
21.9366
21.9376
21.9386
21.9396
21.9408
21.9419
21.9432
21.9444
21.9457
21.9471
21.9485
21.9499
21.9514
21.953
21.9547
21.9564
21.9583
21.9604
21.9625
21.9647
21.967
21.9694
21.9719
21.9744
21.9771
21.9798
21.9827
21.9858
21.9891
21.9926
21.9963
22.0001
22.0041
22.0082
22.0123
22.0167
22.0157
163.04
163.252
163.336
163.294
163.224
163.168
163.069
163.012
163.003
162.989
162.928
162.857
162.675
126.674
126.604
126.567
126.649
126.87
127.059
127.107
127.129
127.197
127.353
127.602
127.799
127.683
127.292
126.594
125.602
124.389
122.974
121.202
118.809
115.494
111.057
105.458
98.7653
91.1104
82.5854
73.2495
63.7235
54.7938
46.9205
40.402
35.5486
32.3558
30.0819
28.2991
26.8759
25.7444
24.8422
24.1123
23.5229
23.0684
22.7412
22.5127
22.3509
22.2333
22.1462
22.0811
22.0323
21.9971
21.9731
21.9571
21.9462
21.9385
21.9328
21.9286
21.9253
21.9229
21.9212
21.9201
21.9193
21.9188
21.9184
21.9181
21.9179
21.9177
21.9176
21.9175
21.9175
21.9175
21.9175
21.9175
21.9176
21.9176
21.9177
21.9178
21.9179
21.918
21.9181
21.9182
21.9184
21.9185
21.9186
21.9188
21.9189
21.9191
21.9192
21.9194
21.9195
21.9197
21.9199
21.9201
21.9202
21.9204
21.9206
21.9208
21.921
21.9212
21.9214
21.9217
21.9219
21.9221
21.9224
21.9226
21.9229
21.9232
21.9234
21.9238
21.9241
21.9244
21.9248
21.9251
21.9255
21.926
21.9264
21.9269
21.9274
21.9279
21.9285
21.9291
21.9297
21.9303
21.931
21.9318
21.9325
21.9333
21.9342
21.935
21.9359
21.9369
21.9379
21.9389
21.94
21.9411
21.9423
21.9435
21.9448
21.9461
21.9475
21.949
21.9505
21.952
21.9537
21.9554
21.9572
21.9591
21.961
21.9631
21.9652
21.9675
21.9698
21.9723
21.9749
21.9776
21.9804
21.9835
21.9867
21.99
21.9936
21.9973
22.0012
22.0053
22.0095
22.0139
22.0184
22.0232
22.0283
22.0336
22.0393
22.0453
22.0516
22.0581
22.0647
22.0715
22.0783
22.0855
22.0929
22.1008
22.1091
22.1181
22.1276
22.1378
22.1486
22.1599
22.1717
22.1838
22.1962
22.209
22.2221
22.2358
22.2501
22.2648
22.2816
22.2807
165.462
165.455
165.437
165.37
165.198
164.986
164.743
164.448
164.152
163.916
163.725
163.561
163.391
163.166
126.692
126.787
126.902
127.072
127.29
127.492
127.664
127.831
128.028
128.285
128.597
128.853
129.02
129.211
129.477
129.832
130.214
130.354
130.224
129.819
129.154
128.298
127.239
125.83
123.847
120.984
116.978
111.726
105.25
97.6257
88.9488
79.2826
68.9141
58.82
49.7648
42.1837
36.4449
32.6841
30.1454
28.2275
26.7244
25.5425
24.6114
23.8732
23.3034
22.8926
22.6125
22.4211
22.286
22.1876
22.1147
22.0601
22.0199
21.9917
21.9725
21.9594
21.9501
21.9432
21.9381
21.9341
21.9311
21.9288
21.9272
21.9262
21.9254
21.925
21.9247
21.9245
21.9244
21.9244
21.9245
21.9246
21.9248
21.925
21.9252
21.9255
21.9258
21.9262
21.9265
21.9269
21.9273
21.9277
21.9282
21.9286
21.9291
21.9296
21.93
21.9305
21.9311
21.9316
21.9321
21.9327
21.9333
21.9339
21.9345
21.9351
21.9358
21.9365
21.9372
21.9379
21.9387
21.9395
21.9403
21.9412
21.9421
21.9431
21.9441
21.9451
21.9462
21.9473
21.9485
21.9498
21.9511
21.9525
21.954
21.9555
21.9572
21.9589
21.9608
21.9627
21.9647
21.9669
21.9692
21.9716
21.974
21.9767
21.9794
21.9823
21.9853
21.9885
21.9918
21.9952
21.9989
22.0027
22.0067
22.0109
22.0153
22.02
22.0249
22.0301
22.0355
22.0412
22.0472
22.0534
22.06
22.0669
22.0741
22.0816
22.0894
22.0976
22.1062
22.1151
22.1245
22.1343
22.1445
22.1551
22.1662
22.1778
22.19
22.203
22.2166
22.2312
22.2466
22.263
22.2802
22.2981
22.3167
22.3358
22.3555
22.376
22.3973
22.4198
22.4437
22.4692
22.4965
22.5258
22.5569
22.5897
22.624
22.6596
22.6965
22.735
22.7752
22.8179
22.8635
22.9126
22.9653
23.0216
23.0812
23.1441
23.2079
23.281
23.2901
166.535
166.289
166.085
165.882
165.64
165.368
165.066
164.736
164.384
164.022
163.694
163.415
163.169
162.93
126.545
126.718
126.904
127.107
127.322
127.553
127.813
128.1
128.406
128.723
129.034
129.309
129.576
129.878
130.237
130.649
131.05
131.369
131.682
132.048
132.481
132.929
133.169
133.182
132.972
132.583
132.043
131.23
130.005
128.236
125.628
121.869
116.754
110.204
102.224
92.8946
82.3475
70.907
59.6842
49.7078
41.5593
35.653
31.9468
29.461
27.6032
26.1685
25.059
24.2007
23.5443
23.0685
22.7438
22.5246
22.3715
22.26
22.1769
22.1138
22.0658
22.0303
22.0051
21.9877
21.9755
21.9668
21.9604
21.9557
21.9521
21.9495
21.9475
21.9461
21.9452
21.9448
21.9447
21.9448
21.9451
21.9456
21.9463
21.9471
21.948
21.9491
21.9501
21.9513
21.9525
21.9538
21.9552
21.9566
21.9581
21.9596
21.9611
21.9627
21.9643
21.966
21.9677
21.9694
21.9712
21.973
21.9749
21.9769
21.9789
21.981
21.9832
21.9855
21.9878
21.9902
21.9927
21.9953
21.998
22.0008
22.0038
22.0069
22.0102
22.0136
22.0172
22.0211
22.0251
22.0294
22.034
22.0388
22.0439
22.0493
22.0551
22.0612
22.0677
22.0746
22.0819
22.0896
22.0978
22.1064
22.1155
22.125
22.135
22.1454
22.1563
22.1676
22.1793
22.1916
22.2045
22.2179
22.2321
22.2469
22.2624
22.2787
22.2958
22.3137
22.3326
22.3525
22.3734
22.3954
22.4186
22.4429
22.4683
22.495
22.5229
22.5522
22.5828
22.615
22.649
22.6851
22.7234
22.7643
22.8077
22.8538
22.9026
22.9539
23.0078
23.0643
23.1236
23.186
23.2522
23.3227
23.3978
23.4775
23.5613
23.6482
23.7375
23.8284
23.9211
24.0157
24.1132
24.215
24.3228
24.4387
24.5641
24.7004
24.8482
25.007
25.1758
25.3523
25.5358
25.7255
25.9215
26.1283
26.3352
26.584
26.6781
166.609
166.227
165.885
165.582
165.306
165.042
164.772
164.489
164.188
163.869
163.55
163.25
162.974
162.721
126.389
126.604
126.826
127.051
127.282
127.535
127.823
128.144
128.481
128.815
129.136
129.457
129.805
130.192
130.611
131.028
131.42
131.796
132.192
132.628
133.101
133.559
133.979
134.41
134.872
135.368
135.838
136.109
136.198
136.139
135.952
135.605
134.947
133.752
131.916
129.213
125.284
119.813
112.631
103.709
93.1628
81.2361
68.5554
56.5863
46.442
38.7246
33.6818
30.6118
28.4635
26.841
25.5987
24.6489
23.9201
23.3739
22.9856
22.7187
22.5327
22.3977
22.2967
22.2199
22.1611
22.1161
22.0821
22.0574
22.0398
22.0276
22.019
22.0131
22.009
22.0064
22.005
22.0046
22.0049
22.0057
22.0071
22.009
22.0113
22.014
22.017
22.0203
22.0238
22.0275
22.0314
22.0355
22.0397
22.044
22.0485
22.0532
22.0579
22.0629
22.0679
22.0731
22.0785
22.0841
22.0898
22.0958
22.1019
22.1083
22.115
22.122
22.1293
22.1369
22.1449
22.1532
22.162
22.1711
22.1806
22.1906
22.201
22.2118
22.2231
22.2349
22.2474
22.2604
22.2742
22.2888
22.3041
22.3204
22.3377
22.356
22.3754
22.396
22.4179
22.4411
22.4656
22.4914
22.5187
22.5473
22.5774
22.6091
22.6423
22.6771
22.7137
22.7521
22.7923
22.8346
22.8792
22.9262
22.9758
23.0284
23.0842
23.1433
23.2062
23.2728
23.3434
23.418
23.4967
23.5796
23.6666
23.7577
23.8531
23.9527
24.0566
24.165
24.2781
24.3959
24.5186
24.6464
24.7799
24.9201
25.0683
25.2264
25.3963
25.5797
25.7775
25.9898
26.2155
26.4524
26.6985
26.9525
27.2145
27.4857
27.7685
28.0667
28.3853
28.7295
29.1035
29.5091
29.9449
30.4064
30.8874
31.3837
31.8955
32.4319
33.0059
33.6418
34.3465
35.1571
36.0438
37.083
38.1855
39.4185
40.8941
166.29
165.951
165.617
165.303
165.015
164.749
164.494
164.241
163.98
163.707
163.424
163.138
162.859
126.237
126.474
126.717
126.961
127.214
127.487
127.789
128.117
128.459
128.8
129.138
129.489
129.867
130.275
130.695
131.115
131.531
131.962
132.418
132.892
133.361
133.813
134.275
134.773
135.308
135.839
136.335
136.831
137.348
137.89
138.458
139.022
139.462
139.673
139.763
139.775
139.64
139.143
137.946
135.839
132.605
127.824
121.142
112.411
101.704
89.3432
75.895
62.6409
51.1341
42.1354
35.9072
32.1498
29.712
27.9059
26.5154
25.441
24.609
23.9603
23.4663
23.1078
22.8561
22.6782
22.5482
22.4507
22.3769
22.3207
22.2778
22.2451
22.2203
22.2022
22.1897
22.182
22.1782
22.1772
22.1788
22.1823
22.1875
22.1942
22.2021
22.2111
22.221
22.2318
22.2433
22.2555
22.2683
22.2817
22.2955
22.3097
22.3243
22.3392
22.3546
22.3703
22.3864
22.403
22.4201
22.4378
22.4561
22.4751
22.4949
22.5153
22.5366
22.5587
22.5817
22.6057
22.6308
22.6571
22.6845
22.7133
22.7434
22.775
22.8082
22.843
22.8797
22.9184
22.9593
23.0026
23.0484
23.0971
23.1489
23.204
23.2629
23.3257
23.3927
23.4643
23.5407
23.6222
23.709
23.8013
23.899
24.0018
24.1095
24.2216
24.3379
24.4586
24.5842
24.7151
24.8518
24.995
25.1452
25.3031
25.4692
25.6444
25.8295
26.0256
26.2338
26.4552
26.6908
26.9413
27.2073
27.4887
27.7853
28.0964
28.4213
28.76
29.114
29.4862
29.8803
30.3007
30.7522
31.2393
31.7655
32.3327
32.9404
33.5867
34.2702
34.9933
35.7653
36.6024
37.525
38.5534
39.7022
40.9736
42.3319
43.736
45.1514
46.5365
47.8533
49.0837
50.2427
51.3789
52.5518
53.8138
55.1984
56.7206
58.3604
60.0632
61.7311
63.2692
64.6302
65.7063
66.6477
67.1958
67.6105
165.977
165.684
165.387
165.092
164.807
164.536
164.279
164.032
163.787
163.539
163.285
163.024
162.759
126.591
126.851
127.12
127.407
127.717
128.046
128.388
128.736
129.091
129.462
129.854
130.263
130.68
131.1
131.531
131.982
132.455
132.926
133.393
133.867
134.367
134.896
135.429
135.951
136.485
137.044
137.62
138.211
138.812
139.414
140.029
140.668
141.338
142.062
142.807
143.428
143.777
143.983
144.166
144.212
143.725
142.188
139.347
134.883
128.38
119.682
108.971
96.6782
83.3631
69.8675
57.6616
47.6778
40.1616
35.0721
31.9541
29.8093
28.1588
26.8669
25.8594
25.0754
24.4619
23.9826
23.6175
23.3489
23.1554
23.0156
22.9126
22.8354
22.778
22.7366
22.7085
22.6921
22.685
22.6856
22.6921
22.7037
22.7204
22.7415
22.7661
22.7937
22.8241
22.8567
22.8913
22.9278
22.9659
23.0056
23.0466
23.0891
23.1329
23.1781
23.2247
23.2728
23.3225
23.3738
23.4268
23.482
23.5394
23.5997
23.663
23.7297
23.7999
23.8738
23.9516
24.0336
24.1199
24.2106
24.3056
24.4046
24.5074
24.6144
24.7257
24.842
24.9635
25.091
25.2249
25.3659
25.5147
25.6721
25.8389
26.0161
26.2046
26.4055
26.6197
26.8481
27.0914
27.3502
27.6249
27.9159
28.2235
28.5479
28.8887
29.2459
29.6201
30.0123
30.4237
30.856
31.3117
31.794
32.3069
32.8552
33.4442
34.0792
34.7653
35.5069
36.3079
37.1717
38.1016
39.1019
40.1779
41.3349
42.5631
43.839
45.1571
46.5128
47.8945
49.2836
50.6582
51.9976
53.2897
54.5378
55.7628
56.9971
58.2751
59.6245
61.0518
62.525
63.984
65.3471
66.5008
67.3714
67.9828
68.4049
68.7282
69.0578
69.4837
70.0755
70.8835
71.8965
73.0218
74.1223
75.0683
75.7571
76.1846
76.3581
76.4173
76.3336
76.2968
76.2141
76.2586
76.3173
76.6332
165.433
165.166
164.897
164.63
164.368
164.113
163.867
163.626
163.387
163.147
162.903
162.654
126.445
126.716
126.996
127.293
127.608
127.939
128.284
128.639
129.007
129.389
129.786
130.194
130.61
131.035
131.475
131.933
132.4
132.867
133.339
133.833
134.345
134.868
135.395
135.928
136.482
137.06
137.651
138.248
138.855
139.492
140.17
140.883
141.636
142.405
143.146
143.9
144.753
145.728
146.778
147.74
148.432
148.89
149.275
149.496
149.19
147.883
145.3
141.168
135.074
126.932
117.022
105.798
93.6945
81.0979
68.6931
57.6424
48.5539
41.5437
36.5603
33.3525
31.2424
29.6322
28.3612
27.3675
26.5916
25.9823
25.5014
25.1177
24.8105
24.5696
24.3887
24.261
24.1785
24.1329
24.1152
24.1219
24.1467
24.1869
24.2418
24.3092
24.3876
24.4758
24.5728
24.6775
24.7888
24.9053
25.0263
25.1513
25.28
25.4121
25.5475
25.6865
25.8292
25.9762
26.1282
26.2857
26.449
26.6181
26.7933
26.975
27.1643
27.3625
27.5709
27.7902
28.0212
28.2644
28.5202
28.7894
29.0719
29.3681
29.6786
30.0045
30.3469
30.7072
31.0871
31.4883
31.9132
32.3643
32.8447
33.3579
33.9077
34.4985
35.1355
35.8243
36.5714
37.3834
38.267
39.2281
40.271
41.3967
42.5839
43.8049
45.0519
46.3228
47.6162
48.9303
50.2622
51.6075
52.9596
54.3099
55.6481
56.9645
58.2511
59.5034
60.721
61.9066
63.063
64.1878
65.271
66.2952
67.2519
68.1408
68.9453
69.6551
70.2762
70.8295
71.3465
71.8652
72.426
73.0616
73.7837
74.5661
75.351
76.0617
76.5879
76.8634
76.9422
76.8859
76.7719
76.7151
76.7627
76.9098
77.2234
77.7576
78.4524
79.1741
79.7875
80.1865
80.3547
80.3801
80.2859
80.0953
79.8439
79.6009
79.4251
79.3248
79.3146
79.3475
79.4773
79.6799
80.136
165.213
164.964
164.715
164.465
164.216
163.97
163.728
163.489
163.254
163.019
126.276
126.553
126.841
127.143
127.463
127.799
128.15
128.513
128.889
129.276
129.674
130.083
130.502
130.932
131.374
131.829
132.296
132.769
133.25
133.744
134.253
134.773
135.297
135.831
136.392
136.975
137.567
138.168
138.79
139.446
140.136
140.857
141.593
142.329
143.113
144.004
144.997
146.038
147.042
148.002
149.025
150.184
151.426
152.606
153.464
153.965
154.295
154.317
153.723
152.411
150.264
147.044
142.3
135.808
127.701
118.28
107.879
96.8301
85.4762
74.2371
63.9291
55.224
48.2098
42.7648
38.7195
35.8645
33.9376
32.5569
31.4444
30.54
29.8218
29.2659
28.8479
28.5472
28.3485
28.2383
28.1971
28.2164
28.2872
28.4005
28.5561
28.7459
28.9659
29.2124
29.482
29.7721
30.0799
30.4033
30.7408
31.0916
31.4553
31.8318
32.2208
32.6219
33.0347
33.4599
33.9005
34.361
34.8467
35.362
35.9099
36.4923
37.1111
37.7702
38.4754
39.2343
40.0549
40.943
41.8849
42.8605
43.8655
44.9007
45.9665
47.0622
48.1866
49.3384
50.5157
51.7155
52.9345
54.1689
55.4149
56.6681
57.9225
59.17
60.4013
61.6054
62.7702
63.8828
64.9324
65.9127
66.8401
67.7363
68.6057
69.4476
70.2585
71.0328
71.7638
72.4459
73.0772
73.6603
74.2023
74.7131
75.2028
75.678
76.1397
76.5813
76.9879
77.3432
77.6379
77.8705
78.0506
78.196
78.3276
78.4682
78.64
78.8629
79.1488
79.493
79.8696
80.2331
80.5243
80.6841
80.7127
80.6298
80.443
80.2386
80.0824
80.0053
80.0047
80.0935
80.3192
80.6551
81.0278
81.3305
81.4909
81.5409
81.5081
81.3916
81.2381
81.0375
80.7924
80.5805
80.4452
80.366
80.3377
80.3494
80.4223
80.5468
80.7247
80.9247
81.1884
164.783
164.547
164.31
164.074
163.838
163.602
163.368
163.135
162.903
126.362
126.656
126.964
127.289
127.631
127.988
128.359
128.74
129.13
129.528
129.935
130.358
130.795
131.244
131.7
132.161
132.633
133.118
133.612
134.114
134.624
135.143
135.686
136.261
136.85
137.442
138.048
138.68
139.341
140.027
140.733
141.452
142.216
143.057
143.969
144.909
145.843
146.808
147.863
149.033
150.297
151.577
152.787
153.928
155.066
156.193
157.121
157.751
158.188
158.416
158.188
157.485
156.518
155.162
153.147
150.204
145.954
140.217
133.131
125.059
116.368
107.376
98.3744
89.598
81.2033
73.351
66.305
60.2234
55.067
50.7775
47.3072
44.5955
42.5599
41.1029
40.1221
39.5191
39.2054
39.1023
39.1731
39.4034
39.7644
40.2503
40.8547
41.5706
42.3825
43.2633
44.1972
45.1758
46.1915
47.2364
48.3035
49.3884
50.4897
51.6097
52.7502
53.9071
55.0678
56.2149
57.3338
58.4186
59.4741
60.5097
61.5308
62.5353
63.5147
64.4576
65.3544
66.2163
67.0593
67.8849
68.6904
69.4734
70.2343
70.9736
71.6894
72.3795
73.0436
73.6821
74.2948
74.8797
75.4347
75.9576
76.4467
76.9016
77.3223
77.7109
78.0718
78.4108
78.733
79.0414
79.3348
79.6091
79.8598
80.0839
80.2819
80.4576
80.6176
80.7691
80.9179
81.0675
81.217
81.3618
81.4938
81.6044
81.6825
81.7218
81.7333
81.7287
81.7204
81.7194
81.73
81.7658
81.8398
81.947
82.0748
82.2023
82.3008
82.3444
82.3379
82.2741
82.1592
82.0175
81.8696
81.7335
81.629
81.5794
81.5779
81.6342
81.7472
81.8889
82.0113
82.0899
82.1326
82.1397
82.0775
81.9422
81.7609
81.5719
81.3987
81.2586
81.1607
81.1133
81.1107
81.1602
81.2621
81.4105
81.5853
81.763
81.9202
82.0317
164.624
164.395
126.147
126.448
126.763
127.094
127.44
127.801
128.177
128.564
128.961
129.366
129.776
130.194
130.626
131.073
131.53
131.99
132.459
132.94
133.432
133.928
134.44
134.978
135.54
136.116
136.701
137.297
137.909
138.55
139.21
139.888
140.584
141.312
142.095
142.932
143.801
144.692
145.625
146.623
147.705
148.87
150.087
151.311
152.529
153.763
155.019
156.249
157.389
158.371
159.141
159.768
160.361
160.992
161.566
162.011
162.271
162.084
161.349
160.228
158.871
157.07
154.561
151.232
147.117
142.308
136.967
131.299
125.432
119.419
113.291
107.098
100.943
94.9856
89.383
84.2842
79.8052
76.0168
72.9474
70.5754
68.847
67.6808
66.9767
66.6236
66.5225
66.6418
66.954
67.4154
67.9761
68.6046
69.2825
69.9863
70.7032
71.4238
72.1416
72.8431
73.5055
74.1141
74.6752
75.2113
75.7472
76.2961
76.8538
77.4019
77.9206
78.398
78.8326
79.2293
79.5946
79.9336
80.2486
80.5414
80.8169
81.0792
81.3259
81.5524
81.7596
81.9514
82.1299
82.2956
82.4477
82.5864
82.7127
82.8269
82.9298
83.0227
83.1077
83.1875
83.2636
83.3357
83.4024
83.4616
83.5108
83.5494
83.579
83.6032
83.6258
83.6501
83.679
83.7134
83.7513
83.7872
83.8149
83.8282
83.8246
83.806
83.7648
83.7073
83.6471
83.5942
83.5556
83.5331
83.5252
83.5381
83.5667
83.5956
83.612
83.6103
83.5929
83.5449
83.4608
83.3464
83.2122
83.0717
82.9431
82.8452
82.7914
82.7763
82.7997
82.8624
82.9539
83.0425
83.0987
83.1158
83.09
82.9947
82.825
82.6193
82.4183
82.2462
82.1184
82.0454
82.0237
82.0407
82.1012
82.2011
82.3212
82.4411
82.5436
82.6145
82.6536
82.6228
125.913
126.224
126.551
126.892
127.246
127.611
127.984
128.366
128.76
129.165
129.578
129.996
130.424
130.864
131.317
131.782
132.25
132.728
133.223
133.736
134.266
134.814
135.377
135.952
136.538
137.14
137.76
138.4
139.059
139.735
140.434
141.174
141.95
142.762
143.611
144.504
145.444
146.444
147.514
148.647
149.824
151.032
152.27
153.535
154.804
156.035
157.165
158.127
158.952
159.753
160.599
161.477
162.334
163.144
163.884
164.549
165.173
165.728
166.058
166.135
165.789
164.91
163.705
162.302
160.795
159.139
157.234
155.017
152.428
149.421
145.976
142.062
137.662
132.825
127.658
122.294
116.89
111.607
106.603
102.012
97.9388
94.4387
91.5171
89.1426
87.2531
85.7732
84.6339
83.781
83.1712
82.7652
82.5277
82.4135
82.3848
82.4237
82.523
82.6775
82.8819
83.1205
83.3702
83.5984
83.7856
83.9354
84.0652
84.1895
84.3133
84.4356
84.5537
84.6659
84.7722
84.872
84.9597
85.0294
85.0835
85.1311
85.1765
85.2177
85.2554
85.291
85.3219
85.3453
85.3619
85.3732
85.3806
85.3858
85.3895
85.3913
85.3894
85.3838
85.3752
85.3639
85.3497
85.3354
85.323
85.3128
85.3062
85.3048
85.3079
85.312
85.3127
85.3069
85.2958
85.274
85.2375
85.1884
85.1323
85.0768
85.0298
84.9959
84.9744
84.963
84.965
84.9735
84.9772
84.9698
84.9492
84.908
84.8402
84.7431
84.6214
84.4841
84.3456
84.2241
84.1365
84.0902
84.077
84.0926
84.1439
84.2161
84.2752
84.2918
84.2713
84.2026
84.0718
83.8926
83.6945
83.5041
83.343
83.2274
83.1654
83.1499
83.1681
83.2281
83.3147
83.4094
83.4966
83.5622
83.5989
83.5993
83.5784
83.4387
125.673
125.989
126.32
126.665
127.022
127.389
127.76
128.14
128.529
128.929
129.342
129.767
130.198
130.634
131.083