/*--------------------------------*- C++ -*----------------------------------*\
| =========                 |                                                 |
| \\      /  F ield         | OpenFOAM: The Open Source CFD Toolbox           |
|  \\    /   O peration     | Version:  v1706                                 |
|   \\  /    A nd           | Web:      www.OpenFOAM.com                      |
|    \\/     M anipulation  |                                                 |
\*---------------------------------------------------------------------------*/
FoamFile
{
    version     2.0;
    format      ascii;
    class       volScalarField;
    location    "3.2e-05";
    object      rho;
}
// * * * * * * * * * * * * * * * * * * * * * * * * * * * * * * * * * * * * * //

dimensions      [1 -3 0 0 0 0 0];


internalField   nonuniform List<scalar> 
30104
(
0.000512941
0.000513176
0.000513453
0.000513777
0.00051415
0.00051457
0.00051503
0.00051552
0.00051603
0.000516556
0.000517098
0.000517667
0.000518298
0.000519044
0.000519955
0.00052107
0.000522412
0.000514279
0.000513766
0.00051337
0.000513038
0.000512772
0.000512576
0.000512421
0.000512278
0.000512139
0.000512005
0.000511875
0.000511749
0.000511636
0.000511548
0.000511487
0.000511446
0.000511418
0.000511398
0.000511383
0.000511372
0.000511361
0.000511352
0.000511343
0.000511334
0.000511326
0.000511321
0.000511317
0.000511315
0.000511314
0.000511313
0.000511313
0.000511312
0.000511311
0.000511311
0.00051131
0.00051131
0.00051131
0.00051131
0.00051131
0.00051131
0.000511309
0.000511309
0.000511309
0.000511309
0.000511309
0.000511309
0.000511309
0.000511309
0.000511309
0.000511309
0.000511309
0.000511309
0.000511309
0.000511309
0.000511309
0.000511309
0.000511309
0.000511309
0.000511309
0.000511309
0.000511309
0.000511309
0.000511309
0.000511309
0.000511309
0.000511309
0.000511309
0.000511309
0.000511309
0.000511309
0.000511309
0.000511309
0.000511309
0.000511309
0.000511309
0.000511309
0.000511309
0.000511309
0.000511309
0.000511309
0.000511309
0.000511309
0.000511309
0.000511309
0.000511309
0.000511309
0.000511309
0.000511309
0.000511309
0.000511309
0.000511309
0.000511309
0.000511309
0.000511309
0.000511309
0.000511309
0.000511309
0.000511309
0.000511309
0.000511309
0.000511309
0.000511309
0.000511309
0.000511309
0.000511309
0.000511309
0.000511309
0.000511309
0.000511309
0.000511309
0.000511309
0.000511309
0.000511309
0.000511309
0.000511309
0.000511309
0.000511309
0.000511309
0.000511309
0.000511309
0.000511309
0.000511309
0.000511309
0.000511309
0.000511309
0.000511309
0.000511309
0.000511309
0.000511309
0.000511309
0.000511309
0.000511309
0.000511309
0.000511309
0.000511309
0.000511309
0.000511309
0.000511309
0.000511309
0.000511309
0.000511309
0.000511309
0.000511309
0.000511309
0.000511309
0.000511309
0.000511309
0.000511309
0.000511309
0.000511309
0.000511309
0.000511309
0.000511309
0.000511309
0.000511309
0.000511309
0.000511309
0.000511309
0.000511309
0.000511309
0.000511309
0.000511309
0.000511309
0.000511309
0.000511309
0.000511309
0.000511309
0.000511309
0.000511309
0.000511309
0.000511309
0.000511309
0.000511309
0.000511309
0.000511309
0.000511309
0.000511309
0.000511309
0.000511309
0.000511309
0.000511309
0.000511309
0.000511309
0.000511309
0.000511309
0.000511309
0.000511309
0.000511309
0.000511309
0.000511309
0.000511309
0.000511309
0.000511309
0.000520162
0.000521331
0.00052263
0.000524107
0.000525817
0.000527821
0.00053017
0.000532896
0.000536018
0.00053952
0.00054344
0.000547779
0.000552479
0.000557467
0.000562703
0.00056821
0.000574083
0.000536091
0.000532494
0.000529218
0.000526275
0.00052361
0.000521211
0.000519176
0.000517585
0.000516382
0.00051544
0.000514676
0.000514056
0.000513559
0.000513152
0.000512813
0.000512527
0.000512282
0.000512071
0.000511892
0.00051175
0.000511644
0.000511567
0.000511509
0.000511466
0.000511432
0.000511406
0.000511385
0.000511368
0.000511353
0.000511341
0.000511332
0.000511325
0.000511321
0.000511318
0.000511316
0.000511314
0.000511313
0.000511312
0.000511311
0.000511311
0.00051131
0.00051131
0.00051131
0.00051131
0.00051131
0.00051131
0.000511309
0.000511309
0.000511309
0.000511309
0.000511309
0.000511309
0.000511309
0.000511309
0.000511309
0.000511309
0.000511309
0.000511309
0.000511309
0.000511309
0.000511309
0.000511309
0.000511309
0.000511309
0.000511309
0.000511309
0.000511309
0.000511309
0.000511309
0.000511309
0.000511309
0.000511309
0.000511309
0.000511309
0.000511309
0.000511309
0.000511309
0.000511309
0.000511309
0.000511309
0.000511309
0.000511309
0.000511309
0.000511309
0.000511309
0.000511309
0.000511309
0.000511309
0.000511309
0.000511309
0.000511309
0.000511309
0.000511309
0.000511309
0.000511309
0.000511309
0.000511309
0.000511309
0.000511309
0.000511309
0.000511309
0.000511309
0.000511309
0.000511309
0.000511309
0.000511309
0.000511309
0.000511309
0.000511309
0.000511309
0.000511309
0.000511309
0.000511309
0.000511309
0.000511309
0.000511309
0.000511309
0.000511309
0.000511309
0.000511309
0.000511309
0.000511309
0.000511309
0.000511309
0.000511309
0.000511309
0.000511309
0.000511309
0.000511309
0.000511309
0.000511309
0.000511309
0.000511309
0.000511309
0.00051131
0.00051131
0.00051131
0.00051131
0.00051131
0.00051131
0.00051131
0.00051131
0.00051131
0.00051131
0.00051131
0.00051131
0.00051131
0.00051131
0.00051131
0.00051131
0.00051131
0.00051131
0.00051131
0.00051131
0.00051131
0.00051131
0.00051131
0.00051131
0.00051131
0.00051131
0.00051131
0.00051131
0.00051131
0.00051131
0.00051131
0.00051131
0.00051131
0.00051131
0.00051131
0.00051131
0.00051131
0.00051131
0.00051131
0.00051131
0.00051131
0.00051131
0.00051131
0.00051131
0.00051131
0.00051131
0.00051131
0.00051131
0.00051131
0.00051131
0.00051131
0.00051131
0.00051131
0.00051131
0.00051131
0.00051131
0.00051131
0.00051131
0.00051131
0.000542057
0.000546673
0.000551868
0.000557607
0.000563848
0.000570585
0.000577868
0.000585824
0.000594589
0.000604413
0.000615258
0.000628356
0.000645255
0.000666627
0.000692645
0.000723165
0.000605558
0.000590303
0.000578162
0.000567627
0.000558503
0.000551044
0.000545029
0.000539838
0.000535156
0.000530983
0.000527314
0.00052408
0.000521295
0.000519062
0.000517384
0.000516131
0.000515164
0.000514405
0.000513809
0.00051333
0.000512935
0.000512604
0.000512321
0.000512081
0.000511884
0.000511734
0.000511627
0.00051155
0.000511494
0.000511452
0.00051142
0.000511395
0.000511374
0.000511356
0.000511342
0.000511332
0.000511325
0.000511321
0.000511318
0.000511316
0.000511314
0.000511313
0.000511312
0.000511311
0.00051131
0.00051131
0.00051131
0.00051131
0.00051131
0.00051131
0.00051131
0.00051131
0.00051131
0.00051131
0.00051131
0.00051131
0.00051131
0.00051131
0.00051131
0.000511309
0.000511309
0.000511309
0.000511309
0.000511309
0.000511309
0.000511309
0.000511309
0.000511309
0.000511309
0.000511309
0.000511309
0.000511309
0.000511309
0.000511309
0.000511309
0.000511309
0.000511309
0.000511309
0.000511309
0.000511309
0.000511309
0.000511309
0.00051131
0.00051131
0.00051131
0.00051131
0.00051131
0.00051131
0.00051131
0.00051131
0.00051131
0.00051131
0.00051131
0.00051131
0.00051131
0.00051131
0.00051131
0.00051131
0.00051131
0.00051131
0.00051131
0.00051131
0.00051131
0.00051131
0.00051131
0.00051131
0.00051131
0.00051131
0.00051131
0.00051131
0.00051131
0.00051131
0.00051131
0.00051131
0.00051131
0.00051131
0.00051131
0.00051131
0.00051131
0.00051131
0.00051131
0.00051131
0.00051131
0.00051131
0.00051131
0.00051131
0.00051131
0.00051131
0.00051131
0.00051131
0.00051131
0.00051131
0.00051131
0.00051131
0.00051131
0.00051131
0.00051131
0.00051131
0.00051131
0.00051131
0.00051131
0.00051131
0.00051131
0.00051131
0.00051131
0.00051131
0.00051131
0.00051131
0.00051131
0.00051131
0.000511311
0.000511311
0.000511311
0.000511311
0.000511311
0.000511311
0.000511311
0.000511311
0.000511311
0.000511311
0.000511311
0.000511311
0.000511311
0.000511311
0.000511311
0.000511311
0.000511311
0.000511311
0.000511311
0.000511312
0.000511312
0.000511312
0.000511312
0.000511312
0.000511312
0.000511312
0.000511312
0.000511312
0.000511312
0.000511312
0.000511313
0.000511313
0.000511313
0.000511313
0.000511313
0.000511313
0.000511313
0.000511313
0.000511314
0.000511314
0.000511314
0.000511314
0.000511314
0.000607738
0.000619863
0.000635062
0.000654688
0.00067942
0.000709515
0.000744907
0.000785297
0.000830232
0.000879184
0.000931699
0.000986121
0.00104051
0.00109386
0.0011456
0.00119531
0.00100276
0.00093281
0.000864199
0.000799708
0.000740841
0.000688632
0.000645253
0.000614625
0.000594623
0.000579852
0.000567741
0.00055774
0.000549803
0.000543395
0.000537872
0.000533014
0.000528777
0.000525085
0.000521925
0.000519398
0.000517519
0.000516144
0.00051511
0.000514319
0.000513709
0.000513226
0.000512829
0.000512495
0.000512209
0.000511971
0.000511787
0.000511655
0.000511565
0.000511501
0.000511455
0.000511421
0.000511394
0.000511371
0.000511352
0.000511338
0.000511329
0.000511323
0.000511319
0.000511317
0.000511315
0.000511314
0.000511312
0.000511311
0.000511311
0.000511311
0.000511311
0.00051131
0.00051131
0.00051131
0.00051131
0.00051131
0.00051131
0.00051131
0.00051131
0.00051131
0.00051131
0.00051131
0.00051131
0.00051131
0.00051131
0.00051131
0.00051131
0.00051131
0.00051131
0.00051131
0.00051131
0.00051131
0.00051131
0.00051131
0.00051131
0.00051131
0.00051131
0.00051131
0.00051131
0.00051131
0.00051131
0.00051131
0.00051131
0.00051131
0.00051131
0.00051131
0.00051131
0.00051131
0.00051131
0.00051131
0.00051131
0.00051131
0.00051131
0.00051131
0.00051131
0.00051131
0.00051131
0.00051131
0.00051131
0.00051131
0.00051131
0.00051131
0.00051131
0.00051131
0.00051131
0.00051131
0.00051131
0.00051131
0.00051131
0.00051131
0.00051131
0.00051131
0.000511311
0.000511311
0.000511311
0.000511311
0.000511311
0.000511311
0.000511311
0.000511311
0.000511311
0.000511311
0.000511311
0.000511311
0.000511311
0.000511311
0.000511311
0.000511311
0.000511311
0.000511311
0.000511312
0.000511312
0.000511312
0.000511312
0.000511312
0.000511312
0.000511312
0.000511312
0.000511312
0.000511312
0.000511312
0.000511313
0.000511313
0.000511313
0.000511313
0.000511313
0.000511313
0.000511313
0.000511313
0.000511314
0.000511314
0.000511314
0.000511314
0.000511314
0.000511314
0.000511315
0.000511315
0.000511315
0.000511315
0.000511315
0.000511316
0.000511316
0.000511316
0.000511316
0.000511317
0.000511317
0.000511317
0.000511318
0.000511318
0.000511318
0.000511318
0.000511319
0.000511319
0.000511319
0.00051132
0.00051132
0.000511321
0.000511321
0.000511321
0.000511322
0.000511322
0.000511323
0.000511323
0.000511324
0.000511324
0.000511325
0.000511325
0.000511326
0.000511326
0.000511327
0.000511328
0.000511329
0.000511329
0.000870727
0.000926532
0.000984478
0.00104278
0.00110031
0.00115627
0.00121002
0.00126108
0.00130909
0.00135381
0.00139513
0.00143295
0.00146708
0.00149735
0.00152376
0.00137287
0.00134062
0.00130399
0.00126192
0.0012131
0.00115684
0.00109289
0.00102031
0.000942461
0.000865925
0.000794848
0.000731105
0.000676109
0.000633093
0.000604874
0.000586104
0.000571842
0.00056038
0.00055138
0.00054429
0.000538333
0.000533141
0.000528624
0.00052471
0.00052142
0.000518868
0.000517024
0.000515698
0.000514717
0.00051398
0.000513414
0.000512961
0.000512582
0.00051226
0.000511992
0.000511788
0.000511646
0.000511552
0.000511489
0.000511445
0.000511411
0.000511384
0.000511361
0.000511344
0.000511333
0.000511326
0.000511322
0.000511319
0.000511317
0.000511315
0.000511314
0.000511313
0.000511312
0.000511312
0.000511312
0.000511311
0.000511311
0.000511311
0.000511311
0.000511311
0.000511311
0.000511311
0.000511311
0.000511311
0.000511311
0.000511311
0.000511311
0.000511311
0.000511311
0.000511311
0.000511311
0.000511311
0.000511311
0.000511311
0.000511311
0.000511311
0.000511311
0.000511311
0.000511311
0.000511311
0.000511311
0.000511311
0.000511311
0.000511311
0.000511311
0.000511311
0.000511311
0.000511311
0.000511311
0.000511311
0.000511311
0.000511312
0.000511312
0.000511312
0.000511312
0.000511312
0.000511312
0.000511312
0.000511312
0.000511312
0.000511312
0.000511312
0.000511312
0.000511312
0.000511312
0.000511313
0.000511313
0.000511313
0.000511313
0.000511313
0.000511313
0.000511313
0.000511313
0.000511313
0.000511314
0.000511314
0.000511314
0.000511314
0.000511314
0.000511314
0.000511315
0.000511315
0.000511315
0.000511315
0.000511315
0.000511316
0.000511316
0.000511316
0.000511316
0.000511317
0.000511317
0.000511317
0.000511317
0.000511318
0.000511318
0.000511318
0.000511319
0.000511319
0.00051132
0.00051132
0.00051132
0.000511321
0.000511321
0.000511322
0.000511322
0.000511323
0.000511323
0.000511324
0.000511324
0.000511325
0.000511325
0.000511326
0.000511327
0.000511327
0.000511328
0.000511329
0.000511329
0.00051133
0.000511331
0.000511332
0.000511333
0.000511333
0.000511334
0.000511335
0.000511336
0.000511337
0.000511338
0.000511339
0.00051134
0.000511342
0.000511343
0.000511344
0.000511346
0.000511347
0.000511349
0.000511351
0.000511352
0.000511354
0.000511355
0.000511357
0.000511359
0.000511361
0.000511363
0.000511366
0.000511368
0.000511371
0.000511373
0.000511376
0.000511379
0.000511381
0.000511384
0.000511387
0.000511388
0.00128988
0.00133989
0.00138616
0.00142837
0.00146623
0.00149959
0.00152853
0.00155322
0.00157398
0.00159138
0.00160598
0.00161847
0.00162942
0.00163893
0.00164719
0.00165433
0.00150172
0.00149411
0.00148389
0.00147032
0.00145326
0.00143356
0.00141122
0.00138419
0.00135105
0.00131068
0.00126205
0.00120474
0.00113919
0.00106562
0.000984212
0.000901043
0.000822286
0.00075113
0.000689455
0.000640302
0.000607376
0.000586416
0.000571182
0.000559294
0.000550134
0.000542963
0.000536925
0.000531651
0.000527053
0.000523117
0.000519958
0.00051765
0.00051604
0.0005149
0.000514073
0.000513453
0.000512962
0.000512552
0.000512206
0.000511928
0.00051173
0.000511602
0.000511521
0.000511467
0.000511428
0.000511397
0.000511371
0.000511352
0.000511339
0.000511331
0.000511327
0.000511324
0.000511321
0.000511319
0.000511318
0.000511316
0.000511315
0.000511315
0.000511315
0.000511314
0.000511314
0.000511314
0.000511314
0.000511314
0.000511314
0.000511314
0.000511313
0.000511313
0.000511313
0.000511314
0.000511314
0.000511314
0.000511314
0.000511314
0.000511314
0.000511314
0.000511314
0.000511314
0.000511314
0.000511314
0.000511315
0.000511315
0.000511315
0.000511315
0.000511315
0.000511315
0.000511315
0.000511316
0.000511316
0.000511316
0.000511316
0.000511316
0.000511317
0.000511317
0.000511317
0.000511317
0.000511317
0.000511318
0.000511318
0.000511318
0.000511318
0.000511318
0.000511319
0.000511319
0.000511319
0.00051132
0.00051132
0.00051132
0.000511321
0.000511321
0.000511321
0.000511322
0.000511322
0.000511323
0.000511323
0.000511324
0.000511324
0.000511325
0.000511325
0.000511326
0.000511327
0.000511327
0.000511328
0.000511329
0.000511329
0.00051133
0.000511331
0.000511332
0.000511333
0.000511334
0.000511335
0.000511336
0.000511337
0.000511338
0.000511339
0.00051134
0.000511341
0.000511343
0.000511344
0.000511345
0.000511347
0.000511348
0.00051135
0.000511351
0.000511353
0.000511355
0.000511356
0.000511358
0.00051136
0.000511362
0.000511364
0.000511366
0.000511369
0.000511371
0.000511374
0.000511377
0.00051138
0.000511383
0.000511386
0.000511389
0.000511392
0.000511395
0.000511399
0.000511403
0.000511407
0.000511411
0.000511415
0.00051142
0.000511425
0.00051143
0.000511435
0.00051144
0.000511445
0.00051145
0.000511455
0.000511461
0.000511467
0.000511474
0.00051148
0.000511488
0.000511495
0.000511503
0.000511511
0.000511519
0.000511527
0.000511535
0.000511543
0.000511552
0.000511562
0.000511572
0.000511583
0.000511596
0.000511605
0.00158765
0.00160534
0.00162023
0.00163288
0.00164366
0.00165296
0.00166073
0.00166695
0.00167138
0.00167407
0.00167548
0.00167652
0.00167643
0.00150744
0.00150692
0.00150695
0.00150829
0.00151139
0.00151385
0.00151262
0.00150808
0.00149999
0.00148828
0.0014734
0.0014564
0.00143693
0.00141254
0.00138076
0.00133982
0.00128887
0.00122821
0.00115889
0.00108181
0.000996869
0.00090886
0.000824958
0.000749379
0.000684672
0.000634304
0.000601584
0.000581033
0.000566228
0.000554949
0.000546374
0.000539497
0.00053356
0.000528348
0.00052387
0.000520273
0.000517679
0.000515931
0.000514748
0.00051392
0.000513301
0.000512805
0.000512389
0.000512051
0.000511806
0.00051165
0.000511555
0.000511495
0.000511452
0.000511418
0.000511389
0.000511367
0.000511352
0.000511343
0.000511337
0.000511334
0.000511331
0.000511329
0.000511327
0.000511325
0.000511324
0.000511323
0.000511322
0.000511322
0.000511322
0.000511322
0.000511322
0.000511322
0.000511322
0.000511322
0.000511322
0.000511322
0.000511322
0.000511323
0.000511323
0.000511323
0.000511324
0.000511324
0.000511324
0.000511325
0.000511325
0.000511325
0.000511326
0.000511326
0.000511327
0.000511327
0.000511328
0.000511328
0.000511329
0.000511329
0.00051133
0.000511331
0.000511331
0.000511332
0.000511333
0.000511333
0.000511334
0.000511335
0.000511335
0.000511336
0.000511337
0.000511338
0.000511339
0.00051134
0.000511341
0.000511342
0.000511343
0.000511344
0.000511345
0.000511346
0.000511347
0.000511349
0.00051135
0.000511352
0.000511353
0.000511355
0.000511357
0.000511358
0.00051136
0.000511362
0.000511364
0.000511367
0.000511369
0.000511371
0.000511374
0.000511376
0.000511379
0.000511382
0.000511385
0.000511388
0.000511391
0.000511395
0.000511398
0.000511402
0.000511406
0.00051141
0.000511414
0.000511419
0.000511423
0.000511428
0.000511433
0.000511439
0.000511444
0.00051145
0.000511456
0.000511463
0.000511469
0.000511476
0.000511483
0.000511491
0.000511498
0.000511507
0.000511515
0.000511524
0.000511532
0.000511542
0.000511551
0.000511561
0.000511572
0.000511583
0.000511595
0.000511607
0.00051162
0.000511634
0.000511648
0.000511662
0.000511677
0.000511692
0.000511707
0.000511723
0.000511741
0.00051176
0.000511781
0.000511804
0.000511828
0.000511852
0.000511878
0.000511904
0.00051193
0.000511957
0.000511985
0.000512014
0.000512045
0.000512078
0.000512114
0.000512153
0.000512194
0.000512237
0.000512282
0.000512328
0.000512373
0.000512424
0.000512453
0.00167968
0.00168222
0.00168358
0.00168371
0.00168356
0.00168346
0.00168293
0.00168269
0.00168291
0.00168319
0.00168314
0.00168307
0.00168212
0.00150361
0.00150448
0.00150575
0.0015082
0.00151192
0.00151506
0.00151667
0.00151799
0.00151975
0.0015224
0.00152588
0.00152827
0.00152725
0.0015232
0.00151559
0.00150473
0.00149159
0.00147644
0.00145766
0.00143251
0.00139803
0.00135267
0.00129654
0.00123061
0.00115613
0.00107363
0.000982875
0.000889704
0.000802185
0.000725025
0.000661482
0.00061576
0.000588173
0.000570285
0.000557314
0.000547664
0.00054011
0.00053365
0.00052797
0.00052316
0.00051947
0.00051697
0.000515374
0.00051433
0.000513595
0.000513026
0.000512558
0.000512178
0.000511899
0.00051172
0.000511612
0.000511544
0.000511497
0.00051146
0.000511429
0.000511402
0.000511383
0.00051137
0.000511362
0.000511358
0.000511354
0.000511352
0.00051135
0.000511348
0.000511347
0.000511346
0.000511345
0.000511345
0.000511345
0.000511345
0.000511346
0.000511346
0.000511347
0.000511348
0.000511349
0.00051135
0.000511351
0.000511352
0.000511353
0.000511355
0.000511356
0.000511357
0.000511359
0.000511361
0.000511362
0.000511364
0.000511365
0.000511367
0.000511369
0.000511371
0.000511373
0.000511374
0.000511376
0.000511378
0.00051138
0.000511382
0.000511385
0.000511387
0.000511389
0.000511392
0.000511394
0.000511397
0.000511399
0.000511402
0.000511405
0.000511408
0.000511411
0.000511414
0.000511418
0.000511422
0.000511426
0.00051143
0.000511434
0.000511439
0.000511444
0.000511449
0.000511455
0.000511461
0.000511467
0.000511474
0.000511481
0.000511488
0.000511496
0.000511504
0.000511513
0.000511522
0.000511532
0.000511541
0.000511552
0.000511562
0.000511573
0.000511585
0.000511597
0.000511609
0.000511622
0.000511636
0.00051165
0.000511665
0.00051168
0.000511696
0.000511712
0.000511729
0.000511747
0.000511766
0.000511786
0.000511806
0.000511828
0.000511851
0.000511874
0.000511899
0.000511925
0.000511953
0.000511982
0.000512012
0.000512045
0.00051208
0.000512117
0.000512156
0.000512196
0.000512239
0.000512282
0.000512327
0.000512373
0.000512422
0.000512473
0.000512527
0.000512585
0.000512648
0.000512714
0.000512785
0.000512856
0.000512929
0.000513001
0.000513073
0.000513147
0.000513224
0.000513306
0.000513393
0.000513487
0.00051359
0.0005137
0.000513817
0.000513939
0.000514065
0.000514192
0.00051432
0.00051445
0.000514583
0.00051472
0.000514866
0.000515015
0.000515193
0.000515342
0.0016901
0.00169038
0.00169068
0.00169063
0.00168978
0.00168856
0.00168703
0.00168497
0.00168275
0.00168099
0.00167962
0.00167855
0.00167746
0.00167594
0.00149407
0.00149677
0.00149974
0.00150322
0.00150701
0.0015104
0.00151329
0.00151605
0.0015191
0.00152277
0.00152683
0.00153008
0.00153232
0.00153466
0.0015377
0.0015415
0.00154521
0.00154586
0.00154384
0.00153866
0.00153053
0.00152034
0.001508
0.00149221
0.00147074
0.00144057
0.0013993
0.00134639
0.00128249
0.00120853
0.00112528
0.00103279
0.000932936
0.000835351
0.000747802
0.000674809
0.000621013
0.000588593
0.000569048
0.000555662
0.000545907
0.000538176
0.00053148
0.000525691
0.000521102
0.000517939
0.000515974
0.00051475
0.000513928
0.00051331
0.000512808
0.000512393
0.000512076
0.000511862
0.000511729
0.000511646
0.00051159
0.000511549
0.000511514
0.000511485
0.00051146
0.000511442
0.000511429
0.000511422
0.000511417
0.000511415
0.000511414
0.000511413
0.000511414
0.000511415
0.000511416
0.000511417
0.000511419
0.000511422
0.000511424
0.000511427
0.000511431
0.000511434
0.000511438
0.000511442
0.000511446
0.00051145
0.000511454
0.000511459
0.000511463
0.000511468
0.000511473
0.000511478
0.000511484
0.000511489
0.000511495
0.000511501
0.000511507
0.000511513
0.000511519
0.000511526
0.000511533
0.00051154
0.000511547
0.000511555
0.000511563
0.000511572
0.000511581
0.00051159
0.0005116
0.00051161
0.000511621
0.000511632
0.000511643
0.000511656
0.000511668
0.000511682
0.000511696
0.000511711
0.000511727
0.000511743
0.000511761
0.000511779
0.000511798
0.000511819
0.00051184
0.000511863
0.000511887
0.000511912
0.000511938
0.000511965
0.000511993
0.000512023
0.000512055
0.000512088
0.000512123
0.00051216
0.000512198
0.000512239
0.000512282
0.000512327
0.000512374
0.000512424
0.000512477
0.000512532
0.000512591
0.000512652
0.000512717
0.000512784
0.000512855
0.000512929
0.000513006
0.000513087
0.000513171
0.00051326
0.000513352
0.000513449
0.00051355
0.000513655
0.000513765
0.000513878
0.000513995
0.000514117
0.000514245
0.00051438
0.000514523
0.000514677
0.000514841
0.000515015
0.000515198
0.000515389
0.000515584
0.000515782
0.000515985
0.000516194
0.000516414
0.000516649
0.000516903
0.00051718
0.000517483
0.000517811
0.000518162
0.000518531
0.000518915
0.000519308
0.00051971
0.000520122
0.000520549
0.000521001
0.000521488
0.00052202
0.000522597
0.000523221
0.000523886
0.000524594
0.000525298
0.000526092
0.000526742
0.00168972
0.00168795
0.00168657
0.00168523
0.00168361
0.00168176
0.00167966
0.00167729
0.00167465
0.00167181
0.00166915
0.00166687
0.00166486
0.00166293
0.00148225
0.00148596
0.0014898
0.00149375
0.00149766
0.00150157
0.00150563
0.00150989
0.0015143
0.00151874
0.00152296
0.00152661
0.00152998
0.00153352
0.00153757
0.001542
0.00154599
0.00154898
0.00155184
0.0015551
0.00155882
0.00156227
0.00156304
0.00156155
0.00155757
0.00155149
0.00154368
0.00153327
0.00151892
0.00149898
0.00147096
0.0014321
0.00138069
0.00131647
0.00123979
0.00115139
0.00105203
0.000943699
0.000836897
0.000741913
0.000664823
0.000611008
0.000580622
0.000562772
0.000550766
0.000541843
0.000534418
0.000527993
0.000522801
0.000519129
0.000516827
0.000515413
0.000514489
0.000513818
0.00051328
0.000512828
0.000512455
0.000512177
0.000511992
0.000511875
0.0005118
0.00051175
0.000511714
0.000511686
0.000511662
0.000511644
0.000511629
0.000511619
0.000511613
0.000511612
0.000511612
0.000511615
0.00051162
0.000511626
0.000511634
0.000511643
0.000511653
0.000511664
0.000511675
0.000511687
0.0005117
0.000511714
0.000511728
0.000511743
0.000511758
0.000511774
0.00051179
0.000511806
0.000511823
0.000511841
0.000511858
0.000511876
0.000511895
0.000511914
0.000511934
0.000511954
0.000511975
0.000511997
0.00051202
0.000512043
0.000512067
0.000512091
0.000512117
0.000512143
0.000512171
0.0005122
0.00051223
0.000512262
0.000512296
0.000512332
0.00051237
0.00051241
0.000512453
0.000512499
0.000512547
0.000512598
0.000512653
0.000512711
0.000512772
0.000512838
0.000512907
0.000512981
0.000513059
0.000513142
0.000513229
0.000513322
0.000513419
0.000513521
0.000513628
0.00051374
0.000513856
0.000513977
0.000514103
0.000514234
0.000514371
0.000514515
0.000514665
0.000514822
0.000514987
0.000515159
0.000515338
0.000515527
0.000515724
0.000515932
0.00051615
0.000516379
0.00051662
0.000516874
0.000517141
0.000517421
0.000517714
0.000518023
0.000518348
0.000518692
0.000519058
0.000519449
0.000519868
0.000520317
0.000520798
0.000521309
0.000521849
0.000522414
0.000523001
0.00052361
0.000524244
0.000524909
0.000525617
0.000526378
0.000527199
0.000528082
0.000529015
0.000529984
0.000530973
0.00053197
0.000532969
0.000533975
0.000534998
0.000536063
0.000537197
0.000538432
0.000539793
0.000541298
0.000542949
0.000544729
0.000546608
0.000548541
0.000550514
0.000552506
0.000554525
0.00055664
0.000558705
0.000561052
0.000563648
0.00168054
0.0016776
0.0016749
0.00167249
0.00167031
0.00166825
0.00166616
0.00166396
0.00166161
0.00165905
0.00165642
0.00165387
0.00165146
0.00164922
0.00146979
0.00147407
0.0014784
0.00148269
0.00148695
0.00149133
0.00149599
0.0015009
0.0015059
0.00151075
0.00151532
0.00151974
0.00152429
0.00152907
0.00153397
0.0015387
0.0015429
0.00154673
0.00155057
0.00155467
0.00155889
0.00156264
0.00156579
0.0015689
0.00157214
0.00157543
0.001578
0.00157822
0.00157668
0.00157344
0.00156874
0.00156235
0.00155295
0.00153863
0.00151789
0.00148879
0.00144842
0.00139409
0.00132465
0.00124019
0.00114177
0.00103109
0.000912848
0.000800872
0.000706132
0.000635314
0.000592324
0.000569612
0.000555635
0.000545786
0.000537973
0.000531256
0.000525633
0.000521378
0.000518525
0.000516731
0.000515576
0.000514779
0.000514178
0.000513688
0.000513274
0.000512933
0.00051267
0.000512487
0.000512365
0.000512288
0.000512239
0.00051221
0.000512194
0.000512187
0.000512188
0.000512195
0.000512206
0.00051222
0.000512239
0.000512262
0.000512288
0.000512317
0.000512349
0.000512384
0.00051242
0.000512458
0.000512498
0.000512538
0.000512581
0.000512624
0.000512669
0.000512716
0.000512765
0.000512815
0.000512867
0.00051292
0.000512976
0.000513033
0.000513093
0.000513155
0.000513219
0.000513285
0.000513355
0.000513428
0.000513504
0.000513585
0.000513669
0.000513758
0.00051385
0.000513947
0.000514049
0.000514154
0.000514265
0.000514379
0.000514499
0.000514625
0.000514757
0.000514896
0.000515042
0.000515197
0.00051536
0.000515533
0.000515716
0.000515909
0.000516114
0.000516331
0.000516561
0.000516803
0.000517059
0.000517328
0.00051761
0.000517906
0.000518218
0.000518546
0.000518892
0.000519257
0.000519642
0.000520049
0.000520479
0.000520932
0.000521411
0.000521918
0.000522456
0.000523028
0.000523636
0.000524282
0.00052497
0.000525699
0.000526471
0.000527285
0.000528142
0.000529041
0.000529984
0.000530972
0.000532005
0.000533086
0.000534218
0.000535402
0.000536639
0.000537926
0.000539262
0.000540646
0.000542085
0.000543591
0.000545181
0.000546882
0.000548721
0.000550722
0.000552895
0.000555235
0.000557714
0.000560292
0.00056293
0.000565612
0.000568346
0.000571171
0.000574145
0.000577344
0.000580851
0.000584747
0.000589093
0.000593903
0.000599135
0.000604696
0.000610472
0.000616385
0.000622432
0.000628746
0.000635521
0.000643122
0.000651662
0.000661655
0.000672668
0.000685701
0.000699579
0.00071429
0.000737087
0.0016668
0.00166415
0.00166146
0.00165888
0.00165646
0.00165419
0.00165202
0.00164986
0.00164764
0.00164531
0.00164286
0.00164034
0.00163782
0.00145703
0.00146167
0.00146632
0.00147095
0.00147562
0.00148044
0.00148549
0.00149075
0.00149604
0.00150121
0.00150624
0.00151131
0.00151655
0.00152193
0.00152725
0.0015323
0.00153712
0.00154194
0.00154683
0.0015517
0.00155624
0.00156033
0.00156428
0.00156835
0.00157258
0.00157651
0.00157982
0.00158296
0.00158618
0.00158945
0.00159272
0.00159566
0.00159702
0.00159624
0.00159414
0.00159098
0.00158612
0.00157761
0.00156266
0.00153895
0.00150429
0.00145572
0.00139054
0.00130795
0.00120892
0.001096
0.000973187
0.00085141
0.000745558
0.000663494
0.0006091
0.000579902
0.000563401
0.000552255
0.000543916
0.000537004
0.00053099
0.000525992
0.000522209
0.000519619
0.000517941
0.000516837
0.000516075
0.00051552
0.000515094
0.00051475
0.000514468
0.000514242
0.000514069
0.000513947
0.000513873
0.00051384
0.000513838
0.000513854
0.000513892
0.000513948
0.000514018
0.000514099
0.00051419
0.000514289
0.000514396
0.00051451
0.000514632
0.00051476
0.000514895
0.000515035
0.000515179
0.000515326
0.000515478
0.000515633
0.000515792
0.000515955
0.000516122
0.000516293
0.000516471
0.000516654
0.000516845
0.000517043
0.000517248
0.00051746
0.000517679
0.000517906
0.00051814
0.000518385
0.00051864
0.000518905
0.000519183
0.000519475
0.000519782
0.000520107
0.000520449
0.000520811
0.000521195
0.000521603
0.000522035
0.000522495
0.000522985
0.000523507
0.000524064
0.00052466
0.000525297
0.000525978
0.000526706
0.000527483
0.000528313
0.000529199
0.000530142
0.000531145
0.000532206
0.000533322
0.000534489
0.000535701
0.000536958
0.000538263
0.000539622
0.00054104
0.000542526
0.000544084
0.000545721
0.000547441
0.000549251
0.000551157
0.000553167
0.000555292
0.000557544
0.000559937
0.000562482
0.000565188
0.000568059
0.000571095
0.000574294
0.000577654
0.000581178
0.000584878
0.00058878
0.000592927
0.000597377
0.000602199
0.000607461
0.000613222
0.000619523
0.00062637
0.000633731
0.000641557
0.000649811
0.000658519
0.000667816
0.00067794
0.000689184
0.00070183
0.000716063
0.000731856
0.000748705
0.000766056
0.000783426
0.000800257
0.000816066
0.000830669
0.000844345
0.000857805
0.000871885
0.000887275
0.00090438
0.000923317
0.000943731
0.000964807
0.000985269
0.00100388
0.0010202
0.00103281