/*--------------------------------*- C++ -*----------------------------------*\
| =========                 |                                                 |
| \\      /  F ield         | OpenFOAM: The Open Source CFD Toolbox           |
|  \\    /   O peration     | Version:  v1706                                 |
|   \\  /    A nd           | Web:      www.OpenFOAM.com                      |
|    \\/     M anipulation  |                                                 |
\*---------------------------------------------------------------------------*/
FoamFile
{
    version     2.0;
    format      ascii;
    class       volScalarField;
    location    "3.2e-05";
    object      Tov;
}
// * * * * * * * * * * * * * * * * * * * * * * * * * * * * * * * * * * * * * //

dimensions      [0 0 0 1 0 0 0];


internalField   nonuniform List<scalar> 
30104
(
145.376
145.509
145.66
145.831
146.024
146.241
146.484
146.751
147.045
147.366
147.718
148.107
148.541
149.028
149.573
150.177
150.839
146.039
145.782
145.561
145.369
145.201
145.06
144.943
144.847
144.767
144.7
144.643
144.595
144.555
144.522
144.497
144.477
144.461
144.448
144.438
144.43
144.423
144.418
144.414
144.411
144.408
144.406
144.405
144.404
144.403
144.402
144.401
144.401
144.401
144.401
144.4
144.4
144.4
144.4
144.4
144.4
144.4
144.4
144.4
144.4
144.4
144.4
144.4
144.4
144.4
144.4
144.4
144.4
144.4
144.4
144.4
144.4
144.4
144.4
144.4
144.4
144.4
144.4
144.4
144.4
144.4
144.4
144.4
144.4
144.4
144.4
144.4
144.4
144.4
144.4
144.4
144.4
144.4
144.4
144.4
144.4
144.4
144.4
144.4
144.4
144.4
144.4
144.4
144.4
144.4
144.4
144.4
144.4
144.4
144.4
144.4
144.4
144.4
144.4
144.4
144.4
144.4
144.4
144.4
144.4
144.4
144.4
144.4
144.4
144.4
144.4
144.4
144.4
144.4
144.4
144.4
144.4
144.4
144.4
144.4
144.4
144.4
144.4
144.4
144.4
144.4
144.4
144.4
144.4
144.4
144.4
144.4
144.4
144.4
144.4
144.4
144.4
144.4
144.4
144.4
144.4
144.4
144.4
144.4
144.4
144.4
144.4
144.4
144.4
144.4
144.4
144.4
144.4
144.4
144.4
144.4
144.4
144.4
144.4
144.4
144.4
144.4
144.4
144.4
144.4
144.4
144.4
144.4
144.4
144.4
144.4
144.4
144.4
144.4
144.4
144.4
144.4
144.4
144.4
144.4
144.4
144.4
144.4
144.4
144.4
144.4
144.4
144.4
144.4
144.4
144.4
144.4
144.4
144.4
150.353
151.144
152.032
153.03
154.152
155.406
156.799
158.332
160.004
161.818
163.789
165.953
168.336
170.948
173.775
176.797
179.986
156.365
154.642
153.118
151.749
150.523
149.449
148.542
147.797
147.189
146.684
146.26
145.904
145.611
145.373
145.18
145.024
144.897
144.793
144.708
144.641
144.588
144.546
144.514
144.488
144.468
144.452
144.44
144.43
144.423
144.417
144.413
144.409
144.407
144.405
144.404
144.403
144.402
144.401
144.401
144.401
144.4
144.4
144.4
144.4
144.4
144.4
144.4
144.4
144.4
144.4
144.4
144.4
144.4
144.4
144.4
144.4
144.4
144.4
144.4
144.4
144.4
144.4
144.4
144.4
144.4
144.4
144.4
144.4
144.4
144.4
144.4
144.4
144.4
144.4
144.4
144.4
144.4
144.4
144.4
144.4
144.4
144.4
144.4
144.4
144.4
144.4
144.4
144.4
144.4
144.4
144.4
144.4
144.4
144.4
144.4
144.4
144.4
144.4
144.4
144.4
144.4
144.4
144.4
144.4
144.4
144.4
144.4
144.4
144.4
144.4
144.4
144.4
144.4
144.4
144.4
144.4
144.4
144.4
144.4
144.4
144.4
144.4
144.4
144.4
144.4
144.4
144.4
144.4
144.4
144.4
144.4
144.4
144.4
144.4
144.4
144.4
144.4
144.4
144.4
144.4
144.4
144.4
144.4
144.4
144.4
144.4
144.4
144.4
144.4
144.4
144.4
144.4
144.4
144.4
144.4
144.4
144.4
144.4
144.4
144.4
144.4
144.4
144.4
144.4
144.4
144.4
144.4
144.4
144.4
144.4
144.4
144.4
144.4
144.4
144.4
144.4
144.4
144.4
144.4
144.4
144.4
144.4
144.4
144.4
144.4
144.4
144.4
144.4
144.4
144.4
144.4
144.4
144.4
164.873
167.413
170.229
173.349
176.778
180.502
184.495
188.723
193.149
197.749
202.538
207.707
213.386
219.513
225.964
232.589
186.622
181.45
176.764
172.369
168.253
164.505
161.224
158.46
156.148
154.174
152.459
150.972
149.71
148.674
147.841
147.17
146.62
146.168
145.801
145.506
145.273
145.087
144.937
144.817
144.722
144.647
144.589
144.545
144.51
144.483
144.463
144.447
144.435
144.426
144.419
144.414
144.41
144.407
144.405
144.404
144.403
144.402
144.401
144.401
144.401
144.4
144.4
144.4
144.4
144.4
144.4
144.4
144.4
144.4
144.4
144.4
144.4
144.4
144.4
144.4
144.4
144.4
144.4
144.4
144.4
144.4
144.4
144.4
144.4
144.4
144.4
144.4
144.4
144.4
144.4
144.4
144.4
144.4
144.4
144.4
144.4
144.4
144.4
144.4
144.4
144.4
144.4
144.4
144.4
144.4
144.4
144.4
144.4
144.4
144.4
144.4
144.4
144.4
144.4
144.4
144.4
144.4
144.4
144.4
144.4
144.4
144.4
144.4
144.4
144.4
144.4
144.4
144.4
144.4
144.4
144.4
144.4
144.4
144.4
144.4
144.4
144.4
144.4
144.4
144.4
144.4
144.4
144.4
144.4
144.4
144.4
144.4
144.4
144.4
144.4
144.4
144.4
144.4
144.4
144.4
144.4
144.4
144.4
144.4
144.4
144.4
144.4
144.4
144.4
144.4
144.4
144.4
144.4
144.4
144.4
144.4
144.4
144.401
144.401
144.401
144.401
144.401
144.401
144.401
144.401
144.401
144.401
144.401
144.401
144.401
144.401
144.401
144.401
144.401
144.401
144.401
144.401
144.401
144.401
144.401
144.401
144.401
144.401
144.401
144.401
144.401
144.401
144.401
144.401
144.401
144.401
144.402
144.401
201.198
206.746
212.803
219.407
226.464
233.829
241.324
248.772
256.01
262.906
269.353
275.235
280.493
285.137
289.195
292.713
246.295
239.486
231.902
223.695
215.02
206.121
197.452
189.818
183.478
177.932
172.876
168.255
164.15
160.649
157.761
155.366
153.336
151.602
150.142
148.952
148.008
147.26
146.658
146.172
145.782
145.475
145.234
145.045
144.895
144.776
144.684
144.613
144.56
144.519
144.488
144.465
144.447
144.434
144.425
144.418
144.412
144.409
144.406
144.404
144.403
144.402
144.402
144.401
144.401
144.401
144.401
144.4
144.4
144.4
144.4
144.4
144.4
144.4
144.4
144.4
144.4
144.4
144.4
144.4
144.4
144.4
144.4
144.4
144.4
144.4
144.4
144.4
144.4
144.4
144.4
144.4
144.4
144.4
144.4
144.4
144.4
144.4
144.4
144.4
144.4
144.4
144.4
144.4
144.4
144.4
144.4
144.4
144.4
144.4
144.4
144.4
144.4
144.4
144.4
144.4
144.4
144.4
144.4
144.4
144.4
144.4
144.4
144.4
144.4
144.4
144.4
144.4
144.4
144.4
144.4
144.4
144.4
144.4
144.401
144.401
144.401
144.401
144.401
144.401
144.401
144.401
144.401
144.401
144.401
144.401
144.401
144.401
144.401
144.401
144.401
144.401
144.401
144.401
144.401
144.401
144.401
144.401
144.401
144.401
144.401
144.401
144.401
144.401
144.401
144.401
144.402
144.402
144.402
144.402
144.402
144.402
144.402
144.402
144.402
144.402
144.402
144.402
144.402
144.402
144.402
144.403
144.403
144.403
144.403
144.403
144.403
144.403
144.403
144.403
144.404
144.404
144.404
144.404
144.404
144.404
144.404
144.404
144.405
144.405
144.405
144.405
144.405
144.406
144.406
144.406
144.406
144.406
144.406
265.305
272.42
278.894
284.672
289.756
294.177
297.981
301.228
303.98
306.299
308.236
309.833
311.135
312.178
312.992
272.441
270.925
269.092
266.77
263.753
259.856
254.918
248.768
241.422
233.091
223.995
214.372
204.603
195.358
187.567
181.054
175.297
170.092
165.471
161.528
158.296
155.657
153.455
151.598
150.056
148.818
147.849
147.09
146.487
146.007
145.63
145.338
145.112
144.936
144.799
144.694
144.615
144.557
144.514
144.482
144.459
144.442
144.43
144.421
144.415
144.411
144.408
144.405
144.404
144.403
144.402
144.402
144.401
144.401
144.401
144.401
144.401
144.401
144.401
144.401
144.401
144.401
144.401
144.401
144.401
144.4
144.4
144.4
144.4
144.4
144.401
144.401
144.401
144.401
144.401
144.401
144.401
144.401
144.401
144.401
144.401
144.401
144.401
144.401
144.401
144.401
144.401
144.401
144.401
144.401
144.401
144.401
144.401
144.401
144.401
144.401
144.401
144.401
144.401
144.401
144.401
144.401
144.401
144.401
144.401
144.401
144.401
144.401
144.401
144.401
144.401
144.401
144.401
144.401
144.401
144.402
144.402
144.402
144.402
144.402
144.402
144.402
144.402
144.402
144.402
144.402
144.402
144.402
144.402
144.403
144.403
144.403
144.403
144.403
144.403
144.403
144.403
144.403
144.403
144.404
144.404
144.404
144.404
144.404
144.404
144.404
144.405
144.405
144.405
144.405
144.405
144.406
144.406
144.406
144.406
144.406
144.407
144.407
144.407
144.408
144.408
144.408
144.408
144.409
144.409
144.409
144.41
144.41
144.411
144.411
144.411
144.412
144.412
144.413
144.413
144.414
144.414
144.415
144.415
144.416
144.417
144.417
144.418
144.419
144.419
144.42
144.421
144.422
144.423
144.423
144.424
144.425
144.424
306.344
309.075
311.345
313.214
314.734
315.952
316.906
317.633
318.177
318.593
318.919
319.188
319.417
319.6
319.736
319.824
279.039
278.573
278.061
277.444
276.685
275.802
274.82
273.673
272.255
270.377
267.801
264.318
259.776
254.012
246.875
238.474
229.035
218.829
208.279
198.093
189.325
182.131
175.885
170.301
165.391
161.246
157.885
155.162
152.906
151.029
149.506
148.313
147.395
146.682
146.125
145.692
145.362
145.112
144.922
144.778
144.671
144.594
144.539
144.499
144.47
144.45
144.436
144.425
144.418
144.413
144.41
144.408
144.406
144.405
144.404
144.403
144.403
144.402
144.402
144.402
144.402
144.402
144.402
144.402
144.402
144.402
144.402
144.402
144.402
144.402
144.402
144.402
144.402
144.402
144.402
144.402
144.402
144.402
144.402
144.402
144.402
144.402
144.402
144.402
144.402
144.402
144.402
144.402
144.402
144.402
144.402
144.402
144.403
144.403
144.403
144.403
144.403
144.403
144.403
144.403
144.403
144.403
144.403
144.403
144.404
144.404
144.404
144.404
144.404
144.404
144.404
144.404
144.404
144.405
144.405
144.405
144.405
144.405
144.406
144.406
144.406
144.406
144.406
144.407
144.407
144.407
144.407
144.408
144.408
144.408
144.409
144.409
144.409
144.41
144.41
144.411
144.411
144.411
144.412
144.412
144.413
144.413
144.414
144.414
144.415
144.415
144.416
144.417
144.417
144.418
144.419
144.419
144.42
144.421
144.422
144.423
144.424
144.425
144.426
144.427
144.428
144.429
144.43
144.431
144.433
144.434
144.435
144.437
144.438
144.44
144.442
144.443
144.445
144.447
144.449
144.451
144.453
144.455
144.457
144.46
144.462
144.465
144.467
144.47
144.473
144.476
144.479
144.482
144.485
144.489
144.492
144.496
144.492
321.918
322.356
322.707
322.995
323.227
323.408
323.53
323.576
323.552
323.484
323.381
323.272
323.159
281.792
281.406
281.024
280.701
280.442
280.27
280.024
279.726
279.408
279.017
278.509
277.899
277.193
276.318
275.156
273.496
271.075
267.678
263.148
257.326
250.014
241.214
231.161
220.194
208.848
197.971
188.726
181.175
174.633
168.845
163.852
159.737
156.451
153.791
151.607
149.844
148.477
147.444
146.663
146.068
145.618
145.284
145.037
144.855
144.723
144.629
144.563
144.517
144.484
144.461
144.445
144.433
144.425
144.419
144.415
144.412
144.41
144.408
144.407
144.406
144.406
144.405
144.405
144.405
144.405
144.405
144.405
144.405
144.405
144.405
144.405
144.405
144.405
144.405
144.405
144.405
144.405
144.405
144.405
144.406
144.406
144.406
144.406
144.406
144.406
144.407
144.407
144.407
144.407
144.407
144.407
144.408
144.408
144.408
144.408
144.409
144.409
144.409
144.409
144.41
144.41
144.41
144.41
144.411
144.411
144.411
144.412
144.412
144.412
144.413
144.413
144.414
144.414
144.415
144.415
144.416
144.416
144.417
144.418
144.418
144.419
144.42
144.421
144.421
144.422
144.423
144.424
144.425
144.426
144.427
144.428
144.429
144.431
144.432
144.433
144.434
144.436
144.437
144.439
144.441
144.442
144.444
144.446
144.448
144.45
144.452
144.454
144.456
144.459
144.461
144.464
144.466
144.469
144.472
144.475
144.478
144.481
144.485
144.489
144.492
144.496
144.5
144.505
144.509
144.514
144.519
144.524
144.529
144.535
144.541
144.547
144.553
144.559
144.566
144.574
144.581
144.589
144.598
144.606
144.616
144.625
144.635
144.645
144.656
144.668
144.68
144.692
144.705
144.719
144.733
144.747
144.762
144.747
327.038
326.97
326.873
326.763
326.653
326.559
326.464
326.396
326.336
326.254
326.143
326.014
325.833
283.847
283.526
283.204
282.928
282.723
282.557
282.366
282.168
281.991
281.846
281.753
281.745
281.679
281.562
281.425
281.236
280.974
280.628
280.146
279.437
278.338
276.623
274.048
270.405
265.518
259.167
251.095
241.315
230.138
218.042
205.786
194.51
185.344
177.723
171.082
165.341
160.595
156.843
153.872
151.491
149.62
148.21
147.176
146.415
145.853
145.443
145.147
144.934
144.782
144.674
144.599
144.546
144.509
144.482
144.463
144.449
144.439
144.431
144.426
144.422
144.42
144.418
144.416
144.415
144.414
144.414
144.414
144.413
144.413
144.413
144.414
144.414
144.414
144.414
144.414
144.415
144.415
144.416
144.416
144.417
144.417
144.418
144.418
144.419
144.419
144.42
144.42
144.421
144.421
144.422
144.423
144.423
144.424
144.425
144.425
144.426
144.427
144.428
144.429
144.429
144.43
144.431
144.432
144.433
144.434
144.435
144.436
144.437
144.439
144.44
144.441
144.443
144.444
144.446
144.447
144.449
144.451
144.453
144.455
144.457
144.46
144.462
144.465
144.468
144.47
144.473
144.476
144.48
144.483
144.487
144.49
144.494
144.498
144.502
144.507
144.511
144.516
144.521
144.526
144.532
144.537
144.543
144.55
144.556
144.563
144.57
144.577
144.585
144.593
144.602
144.61
144.62
144.629
144.64
144.65
144.661
144.673
144.686
144.699
144.712
144.727
144.742
144.757
144.774
144.791
144.809
144.828
144.847
144.868
144.889
144.912
144.935
144.959
144.983
145.009
145.036
145.065
145.095
145.127
145.161
145.197
145.234
145.274
145.316
145.359
145.404
145.451
145.5
145.55
145.603
145.657
145.716
145.668
329.85
329.781
329.686
329.563
329.387
329.202
329.014
328.827
328.669
328.54
328.423
328.306
328.177
328.022
285.699
285.396
285.091
284.811
284.583
284.396
284.235
284.089
283.954
283.839
283.773
283.735
283.686
283.673
283.696
283.771
283.925
284.108
284.196
284.267
284.313
284.322
284.282
284.111
283.715
282.96
281.659
279.586
276.501
272.169
266.324
258.642
248.878
237.24
224.216
210.618
197.728
187.091
178.486
171.156
164.938
159.908
156.02
153.007
150.67
148.918
147.656
146.755
146.104
145.634
145.297
145.056
144.881
144.756
144.668
144.605
144.559
144.526
144.501
144.484
144.47
144.461
144.454
144.449
144.446
144.443
144.441
144.44
144.44
144.44
144.44
144.44
144.441
144.441
144.442
144.443
144.444
144.446
144.447
144.448
144.45
144.452
144.453
144.455
144.456
144.458
144.46
144.462
144.464
144.466
144.468
144.47
144.472
144.474
144.476
144.479
144.481
144.484
144.486
144.489
144.492
144.494
144.497
144.501
144.504
144.507
144.511
144.514
144.518
144.522
144.527
144.531
144.536
144.541
144.546
144.552
144.558
144.564
144.57
144.577
144.585
144.593
144.601
144.61
144.619
144.628
144.638
144.649
144.66
144.671
144.683
144.695
144.708
144.722
144.736
144.751
144.767
144.784
144.801
144.819
144.838
144.858
144.879
144.902
144.925
144.949
144.974
145.001
145.028
145.057
145.087
145.119
145.152
145.186
145.222
145.26
145.299
145.341
145.385
145.431
145.48
145.532
145.587
145.645
145.705
145.769
145.835
145.904
145.975
146.049
146.126
146.207
146.29
146.378
146.471
146.568
146.671
146.78
146.894
147.014
147.14
147.272
147.412
147.56
147.717
147.884
148.06
148.246
148.441
148.644
148.854
149.098
148.972
332.066
331.921
331.785
331.643
331.478
331.298
331.107
330.911
330.723
330.557
330.421
330.309
330.21
330.111
287.644
287.318
286.997
286.696
286.431
286.205
286.014
285.848
285.696
285.563
285.462
285.384
285.345
285.35
285.385
285.466
285.601
285.743
285.898
286.091
286.343
286.678
287.055
287.355
287.637
287.92
288.197
288.368
288.373
288.234
287.75
286.717
284.909
282.045
277.804
271.832
263.727
253.155
240.28
225.737
210.617
196.599
185.381
176.379
168.859
162.718
157.985
154.43
151.733
149.718
148.268
147.242
146.504
145.965
145.572
145.286
145.076
144.921
144.808
144.726
144.667
144.624
144.592
144.569
144.552
144.54
144.531
144.525
144.521
144.518
144.517
144.517
144.518
144.52
144.522
144.525
144.528
144.531
144.535
144.54
144.544
144.549
144.554
144.559
144.564
144.57
144.575
144.581
144.587
144.593
144.599
144.605
144.612
144.619
144.626
144.633
144.64
144.648
144.656
144.664
144.673
144.681
144.691
144.7
144.71
144.721
144.732
144.743
144.755
144.768
144.781
144.794
144.809
144.824
144.841
144.858
144.876
144.895
144.916
144.937
144.961
144.985
145.011
145.038
145.067
145.098
145.13
145.163
145.199
145.235
145.274
145.313
145.355
145.398
145.444
145.491
145.541
145.594
145.649
145.707
145.768
145.832
145.899
145.97
146.045
146.124
146.207
146.293
146.384
146.478
146.577
146.68
146.787
146.899
147.016
147.139
147.269
147.406
147.551
147.705
147.867
148.038
148.219
148.41
148.612
148.824
149.048
149.284
149.531
149.79
150.059
150.337
150.623
150.918
151.22
151.532
151.856
152.195
152.55
152.925
153.322
153.744
154.194
154.672
155.181
155.718
156.283
156.877
157.496
158.15
158.813
159.642
159.47
334.026
333.845
333.694
333.565
333.444
333.323
333.196
333.062
332.924
332.789
332.67
332.571
332.492
332.427
289.726
289.374
289.032
288.706
288.403
288.128
287.88
287.658
287.457
287.28
287.129
287.004
286.916
286.873
286.874
286.907
286.982
287.092
287.239
287.428
287.672
287.969
288.293
288.646
289.043
289.5
290.032
290.569
291.042
291.518
291.988
292.434
292.778
292.886
292.812
292.418
291.429
289.565
286.475
281.747
274.913
265.451
253.031
238.056
221.593
205.366
191.587
181.068
172.596
165.694
160.32
156.324
153.325
151.046
149.354
148.133
147.249
146.593
146.103
145.738
145.47
145.271
145.122
145.011
144.931
144.872
144.829
144.798
144.776
144.761
144.752
144.747
144.746
144.747
144.751
144.757
144.765
144.774
144.785
144.797
144.81
144.823
144.838
144.853
144.869
144.885
144.902
144.919
144.937
144.955
144.973
144.993
145.012
145.032
145.053
145.075
145.097
145.12
145.145
145.17
145.196
145.223
145.252
145.281
145.312
145.345
145.379
145.414
145.451
145.489
145.529
145.571
145.615
145.662
145.71
145.762
145.816
145.874
145.935
146
146.069
146.142
146.219
146.302
146.389
146.481
146.579
146.681
146.789
146.902
147.02
147.142
147.27
147.403
147.542
147.688
147.84
147.999
148.167
148.344
148.531
148.728
148.936
149.157
149.39
149.636
149.895
150.168
150.454
150.753
151.064
151.387
151.722
152.068
152.428
152.801
153.189
153.593
154.015
154.457
154.923
155.415
155.937
156.493
157.083
157.709
158.372
159.068
159.795
160.551
161.331
162.133
162.953
163.79
164.649
165.536
166.453
167.406
168.395
169.418
170.47
171.547
172.651
173.792
174.982
176.245
177.579
179.024
180.535
182.21
183.905
185.933
186.928
336.137
335.985
335.85
335.736
335.641
335.558
335.48
335.402
335.32
335.236
335.155
335.083
335.025
291.91
291.531
291.162
290.805
290.463
290.139
289.837
289.558
289.303
289.071
288.862
288.676
288.52
288.402
288.324
288.297
288.305
288.346
288.428
288.552
288.724
288.943
289.211
289.528
289.894
290.308
290.758
291.235
291.744
292.293
292.893
293.545
294.223
294.811
295.391
296.003
296.624
297.162
297.425
297.394
297.002
295.846
293.523
289.566
283.446
274.651
262.753
247.885
231.079
213.964
198.621
186.791
177.683
170.25
164.247
159.62
156.149
153.478
151.402
149.832
148.68
147.838
147.208
146.729
146.367
146.098
145.897
145.746
145.633
145.549
145.488
145.447
145.422
145.412
145.411
145.418
145.432
145.453
145.48
145.511
145.545
145.583
145.624
145.668
145.714
145.761
145.811
145.862
145.915
145.968
146.024
146.08
146.138
146.198
146.259
146.322
146.388
146.456
146.526
146.6
146.676
146.755
146.839
146.925
147.016
147.111
147.211
147.315
147.423
147.536
147.653
147.776
147.905
148.039
148.18
148.329
148.485
148.65
148.825
149.011
149.207
149.416
149.639
149.875
150.127
150.395
150.679
150.98
151.297
151.63
151.978
152.339
152.712
153.098
153.496
153.909
154.337
154.781
155.245
155.728
156.234
156.765
157.323
157.911
158.531
159.185
159.876
160.604
161.37
162.172
163.009
163.876
164.765
165.674
166.602
167.552
168.526
169.529
170.565
171.638
172.754
173.917
175.128
176.386
177.689
179.039
180.441
181.907
183.45
185.081
186.808
188.63
190.497
192.358
194.18
195.928
197.569
199.086
200.486
201.803
203.077
204.346
205.64
206.977
208.354
209.749
211.096
212.344
213.442
214.348
215.1
215.759
215.4
338.424
338.32
338.221
338.133
338.06
338.003
337.957
337.921
337.887
337.854
337.822
337.793
337.77
293.327
292.932
292.547
292.175
291.821
291.487
291.175
290.883
290.611
290.36
290.135
289.942
289.784
289.665
289.58
289.534
289.534
289.562
289.635
289.756
289.925
290.143
290.404
290.706
291.052
291.439
291.865
292.336
292.866
293.447
294.055
294.674
295.323
296.042
296.842
297.688
298.453
299.174
299.96
300.768
301.42
301.657
301.523
300.755
298.844
295.366
289.909
282.006
271.272
257.713
242.078
225.616
209.824
196.293
186.015
177.896
171.117
165.554
161.194
157.894
155.361
153.365
151.806
150.621
149.737
149.078
148.578
148.191
147.893
147.67
147.511
147.406
147.346
147.323
147.327
147.352
147.4
147.466
147.547
147.641
147.746
147.861
147.985
148.115
148.252
148.394
148.541
148.692
148.847
149.006
149.169
149.337
149.509
149.686
149.868
150.056
150.252
150.455
150.667
150.888
151.12
151.363
151.618
151.885
152.166
152.459
152.766
153.085
153.415
153.757
154.111
154.478
154.86
155.258
155.673
156.107
156.561
157.038
157.54
158.068
158.627
159.217
159.842
160.504
161.205
161.947
162.728
163.551
164.411
165.305
166.227
167.169
168.132
169.115
170.119
171.145
172.195
173.272
174.38
175.523
176.706
177.935
179.215
180.549
181.941
183.39
184.897
186.462
188.084
189.763
191.481
193.194
194.889
196.56
198.197
199.783
201.301
202.735
204.075
205.323
206.495
207.614
208.706
209.797
210.9
212.01
213.103
214.138
215.039
215.743
216.249
216.59
216.821
217.009
217.21
217.474
217.852
218.366
218.985
219.643
220.258
220.751
221.092
221.268
221.347
221.31
221.27
221.168
221.13
221.1
220.915
340.807
340.755
340.708
340.67
340.644
340.63
340.63
340.636
340.647
340.663
340.681
340.702
295.444
295.007
294.576
294.155
293.748
293.358
292.986
292.631
292.294
291.974
291.676
291.403
291.158
290.943
290.759
290.611
290.498
290.414
290.375
290.38
290.414
290.495
290.624
290.799
291.029
291.32
291.66
292.045
292.473
292.946
293.464
294.029
294.651
295.327
296.032
296.754
297.497
298.281
299.128
300
300.82
301.612
302.491
303.414
304.197
304.585
304.551
304
302.438
299.546
295.091
288.851
280.532
269.801
256.79
242.257
227.203
212.761
200.119
190.183
182.61
176.34
171.092
166.825
163.459
160.857
158.846
157.243
155.938
154.892
154.08
153.475
153.049
152.771
152.616
152.564
152.581
152.66
152.8
152.99
153.222
153.491
153.791
154.119
154.469
154.837
155.22
155.615
156.02
156.435
156.859
157.291
157.732
158.183
158.644
159.116
159.602
160.102
160.618
161.151
161.704
162.28
162.881
163.509
164.166
164.854
165.574
166.323
167.097
167.892
168.709
169.547
170.409
171.295
172.207
173.145
174.112
175.11
176.142
177.209
178.317
179.468
180.666
181.916
183.223
184.589
186.019
187.514
189.073
190.695
192.349
193.992
195.609
197.195
198.745
200.257
201.725
203.145
204.514
205.824
207.071
208.25
209.358
210.396
211.368
212.281
213.142
213.957
214.727
215.447
216.11
216.715
217.249
217.705
218.084
218.395
218.659
218.9
219.147
219.43
219.767
220.157
220.582
221.007
221.363
221.588
221.686
221.669
221.588
221.489
221.428
221.379
221.396
221.546
221.841
222.219
222.613
222.946
223.172
223.293
223.322
223.267
223.105
222.904
222.723
222.577
222.494
222.424
222.414
222.464
222.622
343.449
343.442
343.443
343.448
343.462
343.486
343.521
343.566
343.618
343.677
297.417
296.932
296.451
295.978
295.516
295.068
294.633
294.211
293.803
293.41
293.033
292.674
292.335
292.017
291.725
291.463
291.229
291.019
290.842
290.703
290.603
290.557
290.567
290.62
290.725
290.881
291.081
291.327
291.617
291.957
292.349
292.797
293.295
293.824
294.386
294.993
295.651
296.365
297.119
297.9
298.733
299.64
300.575
301.519
302.37
303.069
303.723
304.386
305.009
305.413
305.49
305.27
304.388
302.534
299.537
295.24
289.48
282.078
272.863
261.815
249.533
236.887
224.606
213.328
203.556
195.566
189.376
184.492
180.32
176.739
173.74
171.306
169.395
167.953
166.917
166.235
165.833
165.672
165.69
165.849
166.167
166.601
167.138
167.762
168.458
169.212
170.009
170.84
171.697
172.574
173.468
174.376
175.295
176.223
177.158
178.101
179.054
180.02
181.004
182.01
183.041
184.099
185.188
186.309
187.469
188.673
189.927
191.239
192.59
193.947
195.301
196.65
197.991
199.323
200.641
201.942
203.222
204.477
205.702
206.894
208.048
209.162
210.231
211.252
212.222
213.138
213.996
214.795
215.534
216.211
216.837
217.422
217.969
218.479
218.953
219.388
219.784
220.139
220.452
220.727
220.971
221.191
221.396
221.594
221.791
221.985
222.171
222.339
222.479
222.585
222.653
222.689
222.704
222.711
222.723
222.757
222.828
222.946
223.107
223.294
223.48
223.624
223.694
223.689
223.615
223.476
223.319
223.179
223.077
223.009
223.017
223.116
223.314
223.558
223.78
223.944
224.047
224.069
224.03
223.908
223.709
223.504
223.338
223.207
223.119
223.068
223.067
223.111
223.22
223.376
223.611
346.285
346.329
346.381
346.44
346.507
346.583
346.667
346.759
346.859
298.601
298.066
297.537
297.016
296.505
296.003
295.51
295.024
294.548
294.083
293.631
293.193
292.767
292.359
291.972
291.611
291.278
290.974
290.707
290.492
290.324
290.193
290.099
290.053
290.055
290.088
290.166
290.297
290.48
290.714
290.999
291.324
291.69
292.104
292.568
293.081
293.635
294.235
294.892
295.61
296.386
297.195
298.011
298.821
299.658
300.55
301.395
302.084
302.671
303.168
303.5
303.752
304.106
304.388
304.412
304.145
303.26
301.518
298.815
295.129
290.465
284.874
278.433
271.223
263.314
254.924
246.366
237.906
229.739
222.083
215.17
209.176
204.186
200.192
197.125
194.861
193.289
192.275
191.695
191.521
191.619
191.999
192.633
193.469
194.465
195.57
196.745
197.97
199.224
200.488
201.75
203
204.231
205.44
206.626
207.783
208.903
209.975
210.993
211.952
212.856
213.71
214.521
215.29
216.017
216.699
217.334
217.929
218.492
219.024
219.523
219.989
220.424
220.828
221.202
221.546
221.86
222.148
222.409
222.647
222.863
223.06
223.238
223.4
223.548
223.684
223.81
223.928
224.039
224.141
224.235
224.319
224.39
224.448
224.49
224.52
224.54
224.554
224.569
224.586
224.61
224.64
224.673
224.704
224.724
224.725
224.711
224.677
224.63
224.579
224.525
224.482
224.464
224.471
224.507
224.573
224.65
224.715
224.751
224.754
224.717
224.63
224.511
224.374
224.23
224.111
224.032
224.003
224.028
224.121
224.259
224.401
224.522
224.607
224.625
224.581
224.466
224.314
224.146
223.983
223.843
223.747
223.7
223.699
223.743
223.842
223.983
224.151
224.318
224.481
349.278
349.366
299.912
299.317
298.726
298.14
297.561
296.987
296.418
295.848
295.282
294.721
294.169
293.628
293.102
292.59
292.093
291.619
291.181
290.774
290.395
290.043
289.727
289.445
289.195
288.982
288.81
288.677
288.584
288.556
288.57
288.625
288.729
288.88
289.079
289.329
289.629
289.976
290.371
290.813
291.308
291.861
292.468
293.114
293.785
294.488
295.231
295.993
296.719
297.375
297.959
298.502
299.056
299.666
300.204
300.648
301.013
301.116
301.031
300.794
300.599
300.277
299.608
298.494
296.92
294.866
292.338
289.38
285.998
282.166
277.857
273.042
267.792
262.259
256.59
250.961
245.558
240.551
236.086
232.242
229.045
226.475
224.473
223.007
221.923
221.188
220.768
220.6
220.602
220.734
220.98
221.292
221.641
222.012
222.393
222.772
223.133
223.464
223.762
224.035
224.297
224.552
224.805
225.048
225.277
225.485
225.672
225.838
225.984
226.109
226.216
226.305
226.379
226.441
226.49
226.523
226.542
226.55
226.55
226.545
226.534
226.517
226.498
226.478
226.458
226.437
226.417
226.399
226.382
226.366
226.35
226.331
226.31
226.284
226.253
226.219
226.184
226.15
226.121
226.098
226.082
226.073
226.066
226.059
226.045
226.021
225.983
225.931
225.868
225.801
225.737
225.682
225.641
225.621
225.621
225.636
225.662
225.686
225.706
225.705
225.676
225.61
225.51
225.383
225.245
225.118
225.021
224.97
224.965
225.001
225.093
225.217
225.332
225.409
225.438
225.409
225.303
225.143
224.964
224.791
224.645
224.543
224.493
224.488
224.519
224.594
224.702
224.825
224.947
225.053
225.133
225.148
300.783
300.124
299.465
298.809
298.156
297.504
296.855
296.209
295.563
294.919
294.277
293.644
293.031
292.435
291.854
291.286
290.731
290.2
289.693
289.207
288.745
288.31
287.906
287.537
287.206
286.916
286.669
286.472
286.322
286.212
286.153
286.154
286.19
286.282
286.426
286.617
286.854
287.138
287.479
287.878
288.33
288.825
289.358
289.926
290.521
291.12
291.692
292.203
292.663
293.113
293.584
294.063
294.508
294.92
295.289
295.615
295.94
296.225
296.292
296.237
295.923
295.305
294.507
293.619
292.773
291.91
290.895
289.682
288.234
286.508
284.474
282.077
279.265
276.061
272.514
268.676
264.62
260.436
256.234
252.13
248.243
244.667
241.462
238.667
236.287
234.295
232.658
231.343
230.313
229.524
228.941
228.53
228.234
228.036
227.918
227.858
227.844
227.86
227.907
227.966
228.021
228.064
228.1
228.13
228.157
228.178
228.192
228.198
228.198
228.191
228.173
228.144
228.104
228.059
228.01
227.96
227.91
227.862
227.813
227.765
227.717
227.67
227.624
227.58
227.539
227.499
227.46
227.421
227.381
227.341
227.301
227.26
227.22
227.183
227.15
227.122
227.102
227.087
227.077
227.066
227.054
227.038
227.011
226.972
226.923
226.868
226.813
226.765
226.727
226.703
226.698
226.704
226.718
226.733
226.742
226.739
226.714
226.66
226.578
226.471
226.35
226.232
226.133
226.069
226.046
226.057
226.106
226.19
226.284
226.346
226.371
226.355
226.282
226.153
225.991
225.819
225.663
225.542
225.471
225.449
225.462
225.515
225.599
225.699
225.8
225.887
225.953
225.983
225.988
225.909
301.171
300.456
299.74
299.022
298.302
297.58
296.859
296.143
295.43
294.718
294.009
293.303
292.599
291.903
291.221
290.551
289.891
289.244
288.611
287.997
287.405
286.84
286.306
285.807
285.345
284.923
284.544
284.21
283.922
283.678
283.486
283.347
283.256
283.231
283.247
283.305
283.413
283.572
283.787
284.056
284.376
284.742
285.151
285.596
286.062
286.523
286.948
287.32
287.658
287.989
288.318
288.638
288.946
289.251
289.569
289.924
290.312
290.645
290.782
290.778
290.674
290.458
290.193
289.913
289.548
289.04
288.456
287.847
287.233
286.652
286.044
285.278
284.314
283.131
281.682
279.956
277.941
275.624
272.994
270.052
266.813
263.313
259.619
255.822
252.034
248.379
244.973
241.91
239.241
236.983
235.118
233.605
232.396
231.453
230.732
230.189
229.786
229.493
229.285
229.143
229.047
228.979
228.936
228.91
228.893
228.876
228.857
228.834
228.805
228.77
228.73
228.69
228.651
228.612
228.572
228.534
228.496
228.456
228.413
228.373
228.334
228.295
228.258
228.222
228.186
228.15
228.115