/*--------------------------------*- C++ -*----------------------------------*\
| =========                 |                                                 |
| \\      /  F ield         | OpenFOAM: The Open Source CFD Toolbox           |
|  \\    /   O peration     | Version:  v1706                                 |
|   \\  /    A nd           | Web:      www.OpenFOAM.com                      |
|    \\/     M anipulation  |                                                 |
\*---------------------------------------------------------------------------*/
FoamFile
{
    version     2.0;
    format      ascii;
    class       volScalarField;
    location    "3.2e-05";
    object      wallHeatFlux;
}
// * * * * * * * * * * * * * * * * * * * * * * * * * * * * * * * * * * * * * //

dimensions      [1 0 -3 0 0 0 0];


internalField   uniform 0;

boundaryField
{
    cone
    {
        type            calculated;
        value           nonuniform List<scalar> 
119
(
-1394.04
-1401.89
-1408.85
-1415.05
-1420.61
-1425.63
-1430.2
-1434.43
-1438.36
-1442.07
-1445.59
-1448.97
-1452.2
-1455.31
-1458.3
-1461.14
-1463.8
-1466.27
-1468.48
-1470.39
-1471.93
-1473.03
-1473.63
-1473.64
-1473
-1471.62
-1469.43
-1466.37
-1462.37
-1457.37
-1451.34
-1444.24
-1436.05
-1426.75
-1416.35
-1404.84
-1392.27
-1378.64
-1364
-1348.39
-1331.85
-1314.43
-1296.17
-1277.1
-1257.28
-1236.73
-1215.47
-1193.54
-1170.93
-1147.66
-1123.73
-1099.15
-1073.91
-1048
-1021.43
-994.18
-966.252
-937.644
-908.353
-878.382
-847.734
-816.415
-784.433
-751.8
-718.525
-684.626
-650.119
-615.02
-579.347
-543.118
-506.349
-469.055
-431.246
-392.932
-354.117
-314.799
-274.972
-234.623
-193.727
-152.255
-110.175
-67.4622
-24.0832
20.0063
64.8323
110.419
156.766
203.845
251.6
299.94
348.746
397.866
447.106
496.192
544.708
592.045
637.42
680.037
719.395
755.622
789.632
822.973
857.388
894.235
934.069
976.592
1020.86
1065.61
1109.7
1152.33
1193.06
1231.67
1267.65
1300.41
1329.97
1358.62
1398.23
1461.06
1567.94
)
;
    }
    inlet
    {
        type            calculated;
        value           uniform 0;
    }
    rWedge
    {
        type            wedge;
    }
    lWedge
    {
        type            wedge;
    }
    outlet
    {
        type            calculated;
        value           uniform 0;
    }
    procBoundary0to1
    {
        type            processor;
        value           uniform 0;
    }
    procBoundary0to2
    {
        type            processor;
        value           uniform 0;
    }
}


// ************************************************************************* //
