/*--------------------------------*- C++ -*----------------------------------*\
| =========                 |                                                 |
| \\      /  F ield         | OpenFOAM: The Open Source CFD Toolbox           |
|  \\    /   O peration     | Version:  v1706                                 |
|   \\  /    A nd           | Web:      www.OpenFOAM.com                      |
|    \\/     M anipulation  |                                                 |
\*---------------------------------------------------------------------------*/
FoamFile
{
    version     2.0;
    format      ascii;
    class       volScalarField;
    location    "1.2e-05";
    object      kappatr;
}
// * * * * * * * * * * * * * * * * * * * * * * * * * * * * * * * * * * * * * //

dimensions      [1 1 -3 -1 0 0 0];


internalField   nonuniform List<scalar> 
29871
(
0.014593
0.014593
0.014593
0.014593
0.014593
0.014593
0.014593
0.014593
0.014593
0.014593
0.014593
0.014593
0.014593
0.014593
0.014593
0.014593
0.014593
0.014593
0.014593
0.014593
0.014593
0.014593
0.014593
0.014593
0.014593
0.014593
0.014593
0.014593
0.014593
0.014593
0.014593
0.014593
0.014593
0.014593
0.014593
0.014593
0.014593
0.014593
0.014593
0.014593
0.014593
0.014593
0.014593
0.014593
0.014593
0.014593
0.014593
0.014593
0.014593
0.014593
0.014593
0.014593
0.014593
0.014593
0.014593
0.014593
0.014593
0.014593
0.014593
0.014593
0.014593
0.014593
0.014593
0.014593
0.014593
0.014593
0.014593
0.014593
0.014593
0.014593
0.014593
0.014593
0.014593
0.014593
0.014593
0.014593
0.014593
0.014593
0.014593
0.014593
0.014593
0.014593
0.014593
0.014593
0.014593
0.014593
0.014593
0.014593
0.014593
0.014593
0.014593
0.014593
0.014593
0.014593
0.014593
0.014593
0.014593
0.014593
0.014593
0.014593
0.014593
0.014593
0.014593
0.014593
0.014593
0.014593
0.014593
0.014593
0.014593
0.014593
0.014593
0.014593
0.014593
0.014593
0.014593
0.014593
0.014593
0.014593
0.014593
0.014593
0.014593
0.014593
0.014593
0.014593
0.014593
0.014593
0.014593
0.014593
0.014593
0.014593
0.014593
0.014593
0.014593
0.014593
0.014593
0.014593
0.014593
0.014593
0.014593
0.014593
0.014593
0.014593
0.014593
0.014593
0.014593
0.014593
0.014593
0.014593
0.014593
0.014593
0.014593
0.014593
0.014593
0.014593
0.014593
0.014593
0.014593
0.014593
0.014593
0.014593
0.014593
0.014593
0.014593
0.014593
0.014593
0.014593
0.014593
0.014593
0.014593
0.014593
0.014593
0.014593
0.014593
0.014593
0.014593
0.014593
0.014593
0.014593
0.014593
0.014593
0.014593
0.014593
0.014593
0.014593
0.014593
0.014593
0.014593
0.014593
0.014593
0.014593
0.014593
0.014593
0.014593
0.014593
0.014593
0.014593
0.014593
0.014593
0.014593
0.014593
0.014593
0.014593
0.014593
0.014593
0.014593
0.014593
0.014593
0.014593
0.014593
0.014593
0.014593
0.014593
0.014593
0.014593
0.014593
0.014593
0.014593
0.014593
0.014593
0.014593
0.014593
0.014593
0.014593
0.014593
0.014593
0.014593
0.014593
0.014593
0.014593
0.014593
0.014593
0.014593
0.014593
0.014593
0.014593
0.014593
0.014593
0.014593
0.014593
0.014593
0.014593
0.014593
0.014593
0.014593
0.014593
0.014593
0.014593
0.014593
0.014593
0.014593
0.014593
0.014593
0.014593
0.014593
0.014593
0.014593
0.014593
0.014593
0.014593
0.014593
0.014593
0.014593
0.014593
0.014593
0.014593
0.014593
0.014593
0.014593
0.014593
0.014593
0.014593
0.014593
0.014593
0.014593
0.014593
0.014593
0.014593
0.014593
0.014593
0.014593
0.014593
0.014593
0.014593
0.014593
0.014593
0.014593
0.014593
0.014593
0.014593
0.014593
0.014593
0.014593
0.014593
0.014593
0.014593
0.014593
0.014593
0.014593
0.014593
0.014593
0.014593
0.014593
0.014593
0.014593
0.014593
0.014593
0.014593
0.014593
0.014593
0.014593
0.014593
0.014593
0.014593
0.014593
0.014593
0.014593
0.014593
0.014593
0.014593
0.014593
0.014593
0.014593
0.014593
0.014593
0.014593
0.014593
0.014593
0.014593
0.014593
0.014593
0.014593
0.014593
0.014593
0.014593
0.014593
0.014593
0.014593
0.014593
0.014593
0.014593
0.014593
0.014593
0.014593
0.014593
0.014593
0.014593
0.014593
0.014593
0.014593
0.014593
0.014593
0.014593
0.014593
0.014593
0.014593
0.014593
0.014593
0.014593
0.014593
0.014593
0.014593
0.014593
0.014593
0.014593
0.014593
0.014593
0.014593
0.014593
0.014593
0.014593
0.014593
0.014593
0.014593
0.014593
0.014593
0.014593
0.014593
0.014593
0.014593
0.014593
0.014593
0.014593
0.014593
0.014593
0.014593
0.014593
0.014593
0.014593
0.014593
0.014593
0.014593
0.014593
0.014593
0.014593
0.014593
0.014593
0.014593
0.014593
0.014593
0.014593
0.014593
0.014593
0.014593
0.014593
0.014593
0.014593
0.014593
0.014593
0.014593
0.014593
0.014593
0.014593
0.014593
0.014593
0.014593
0.014593
0.014593
0.014593
0.014593
0.014593
0.014593
0.014593
0.014593
0.014593
0.014593
0.014593
0.014593
0.014593
0.014593
0.014593
0.014593
0.014593
0.014593
0.014593
0.014593
0.014593
0.014593
0.014593
0.014593
0.014593
0.014593
0.014593
0.014593
0.014593
0.014593
0.014593
0.014593
0.014593
0.014593
0.014593
0.014593
0.014593
0.014593
0.014593
0.014593
0.014593
0.014593
0.014593
0.014593
0.014593
0.014593
0.014593
0.014593
0.014593
0.014593
0.014593
0.014593
0.014593
0.014593
0.014593
0.014593
0.014593
0.014593
0.014593
0.014593
0.014593
0.014593
0.014593
0.014593
0.014593
0.014593
0.014593
0.014593
0.014593
0.014593
0.014593
0.014593
0.014593
0.014593
0.014593
0.014593
0.014593
0.014593
0.014593
0.014593
0.014593
0.014593
0.014593
0.014593
0.014593
0.014593
0.014593
0.014593
0.014593
0.014593
0.014593
0.014593
0.014593
0.014593
0.014593
0.014593
0.014593
0.014593
0.014593
0.014593
0.014593
0.014593
0.014593
0.014593
0.014593
0.014593
0.014593
0.014593
0.014593
0.014593
0.014593
0.014593
0.014593
0.014593
0.014593
0.014593
0.014593
0.014593
0.014593
0.014593
0.014593
0.014593
0.014593
0.014593
0.014593
0.014593
0.014593
0.014593
0.014593
0.014593
0.014593
0.014593
0.014593
0.014593
0.014593
0.014593
0.014593
0.014593
0.014593
0.014593
0.014593
0.014593
0.014593
0.014593
0.014593
0.014593
0.014593
0.014593
0.014593
0.014593
0.014593
0.014593
0.014593
0.014593
0.014593
0.014593
0.014593
0.014593
0.014593
0.014593
0.014593
0.014593
0.014593
0.014593
0.014593
0.014593
0.014593
0.014593
0.014593
0.014593
0.014593
0.014593
0.014593
0.014593
0.014593
0.014593
0.014593
0.014593
0.014593
0.014593
0.014593
0.014593
0.014593
0.014593
0.014593
0.014593
0.014593
0.014593
0.014593
0.014593
0.014593
0.014593
0.014593
0.014593
0.014593
0.014593
0.014593
0.014593
0.014593
0.014593
0.014593
0.014593
0.014593
0.014593
0.014593
0.014593
0.014593
0.014593
0.014593
0.014593
0.014593
0.014593
0.014593
0.014593
0.014593
0.014593
0.014593
0.014593
0.014593
0.014593
0.014593
0.014593
0.014593
0.014593
0.014593
0.014593
0.014593
0.014593
0.014593
0.014593
0.014593
0.014593
0.014593
0.014593
0.014593
0.014593
0.014593
0.014593
0.014593
0.014593
0.014593
0.014593
0.014593
0.014593
0.014593
0.014593
0.014593
0.014593
0.014593
0.014593
0.014593
0.014593
0.014593
0.014593
0.014593
0.014593
0.014593
0.014593
0.014593
0.014593
0.014593
0.014593
0.014593
0.014593
0.014593
0.014593
0.014593
0.014593
0.014593
0.014593
0.014593
0.014593
0.014593
0.014593
0.014593
0.014593
0.014593
0.014593
0.014593
0.014593
0.014593
0.014593
0.014593
0.014593
0.014593
0.014593
0.014593
0.014593
0.014593
0.014593
0.014593
0.014593
0.014593
0.014593
0.014593
0.014593
0.014593
0.014593
0.014593
0.014593
0.014593
0.014593
0.014593
0.014593
0.014593
0.014593
0.014593
0.014593
0.014593
0.014593
0.014593
0.014593
0.014593
0.014593
0.014593
0.014593
0.014593
0.014593
0.014593
0.014593
0.014593
0.014593
0.014593
0.014593
0.014593
0.014593
0.014593
0.014593
0.014593
0.014593
0.014593
0.014593
0.014593
0.014593
0.014593
0.014593
0.014593
0.014593
0.014593
0.014593
0.014593
0.014593
0.014593
0.014593
0.014593
0.014593
0.014593
0.014593
0.014593
0.014593
0.014593
0.014593
0.014593
0.014593
0.014593
0.014593
0.014593
0.014593
0.014593
0.014593
0.014593
0.014593
0.014593
0.014593
0.014593
0.014593
0.014593
0.014593
0.014593
0.014593
0.014593
0.014593
0.014593
0.014593
0.014593
0.014593
0.014593
0.014593
0.014593
0.014593
0.014593
0.014593
0.014593
0.014593
0.014593
0.014593
0.014593
0.014593
0.014593
0.014593
0.014593
0.014593
0.014593
0.014593
0.014593
0.014593
0.014593
0.014593
0.014593
0.014593
0.014593
0.014593
0.014593
0.014593
0.014593
0.014593
0.014593
0.014593
0.014593
0.014593
0.014593
0.014593
0.014593
0.014593
0.014593
0.014593
0.014593
0.014593
0.014593
0.014593
0.014593
0.014593
0.014593
0.014593
0.014593
0.014593
0.014593
0.014593
0.014593
0.014593
0.014593
0.014593
0.014593
0.014593
0.014593
0.014593
0.014593
0.014593
0.014593
0.014593
0.014593
0.014593
0.014593
0.014593
0.014593
0.014593
0.014593
0.014593
0.014593
0.014593
0.014593
0.014593
0.014593
0.014593
0.014593
0.014593
0.014593
0.014593
0.014593
0.014593
0.014593
0.014593
0.014593
0.014593
0.014593
0.014593
0.014593
0.014593
0.014593
0.014593
0.014593
0.014593
0.014593
0.014593
0.014593
0.014593
0.014593
0.014593
0.014593
0.014593
0.014593
0.014593
0.014593
0.014593
0.014593
0.014593
0.014593
0.014593
0.014593
0.014593
0.014593
0.014593
0.014593
0.014593
0.014593
0.014593
0.014593
0.014593
0.014593
0.014593
0.014593
0.014593
0.014593
0.014593
0.014593
0.014593
0.014593
0.014593
0.014593
0.014593
0.014593
0.014593
0.014593
0.014593
0.014593
0.014593
0.014593
0.014593
0.014593
0.014593
0.014593
0.014593
0.014593
0.014593
0.014593
0.014593
0.014593
0.014593
0.014593
0.014593
0.014593
0.014593
0.014593
0.014593
0.014593
0.014593
0.014593
0.014593
0.014593
0.014593
0.014593
0.014593
0.014593
0.014593
0.014593
0.014593
0.014593
0.014593
0.014593
0.014593
0.014593
0.014593
0.014593
0.014593
0.014593
0.014593
0.014593
0.014593
0.014593
0.014593
0.014593
0.014593
0.014593
0.014593
0.014593
0.014593
0.014593
0.014593
0.014593
0.014593
0.014593
0.014593
0.014593
0.014593
0.014593
0.014593
0.014593
0.014593
0.014593
0.014593
0.014593
0.014593
0.014593
0.014593
0.014593
0.014593
0.014593
0.014593
0.014593
0.014593
0.014593
0.014593
0.014593
0.014593
0.014593
0.014593
0.014593
0.014593
0.014593
0.014593
0.014593
0.014593
0.014593
0.014593
0.014593
0.014593
0.014593
0.014593
0.014593
0.014593
0.014593
0.014593
0.014593
0.014593
0.014593
0.014593
0.014593
0.014593
0.014593
0.014593
0.014593
0.014593
0.014593
0.014593
0.014593
0.014593
0.014593
0.014593
0.014593
0.014593
0.014593
0.014593
0.014593
0.014593
0.014593
0.014593
0.014593
0.014593
0.014593
0.014593
0.014593
0.014593
0.014593
0.014593
0.014593
0.014593
0.014593
0.014593
0.014593
0.014593
0.014593
0.014593
0.014593
0.014593
0.014593
0.014593
0.014593
0.014593
0.014593
0.014593
0.014593
0.014593
0.014593
0.014593
0.014593
0.014593
0.014593
0.014593
0.014593
0.014593
0.014593
0.014593
0.014593
0.014593
0.014593
0.014593
0.014593
0.014593
0.014593
0.014593
0.014593
0.014593
0.014593
0.014593
0.014593
0.014593
0.014593
0.014593
0.014593
0.014593
0.014593
0.014593
0.014593
0.014593
0.014593
0.014593
0.014593
0.014593
0.014593
0.014593
0.014593
0.014593
0.014593
0.014593
0.014593
0.014593
0.014593
0.014593
0.014593
0.014593
0.014593
0.014593
0.014593
0.014593
0.014593
0.014593
0.014593
0.014593
0.014593
0.014593
0.014593
0.014593
0.014593
0.014593
0.014593
0.014593
0.014593
0.014593
0.014593
0.014593
0.014593
0.014593
0.014593
0.014593
0.014593
0.014593
0.014593
0.014593
0.014593
0.014593
0.014593
0.014593
0.014593
0.014593
0.014593
0.014593
0.014593
0.014593
0.014593
0.014593
0.014593
0.014593
0.014593
0.014593
0.014593
0.014593
0.014593
0.014593
0.014593
0.014593
0.014593
0.014593
0.014593
0.014593
0.014593
0.014593
0.014593
0.014593
0.014593
0.014593
0.014593
0.014593
0.014593
0.014593
0.014593
0.014593
0.014593
0.014593
0.014593
0.014593
0.014593
0.014593
0.014593
0.014593
0.014593
0.014593
0.014593
0.014593
0.014593
0.014593
0.014593
0.014593
0.014593
0.014593
0.014593
0.014593
0.014593
0.014593
0.014593
0.014593
0.014593
0.014593
0.014593
0.014593
0.014593
0.014593
0.014593
0.014593
0.014593
0.014593
0.014593
0.014593
0.014593
0.014593
0.014593
0.014593
0.014593
0.014593
0.014593
0.014593
0.014593
0.014593
0.014593
0.014593
0.014593
0.0145931
0.0145931
0.0145931
0.0145931
0.0145931
0.0145931
0.0145931
0.0145931
0.0145931
0.0145931
0.0145931
0.0145931
0.0145931
0.0145931
0.0145931
0.0145931
0.0145931
0.0145931
0.0145931
0.0145931
0.0145931
0.0145931
0.0145931
0.0145931
0.0145931
0.0145931
0.0145931
0.0145931
0.014593
0.014593
0.014593
0.014593
0.014593
0.014593
0.014593
0.014593
0.014593
0.014593
0.014593
0.014593
0.014593
0.014593
0.014593
0.014593
0.014593
0.014593
0.014593
0.014593
0.014593
0.014593
0.014593
0.014593
0.014593
0.014593
0.014593
0.014593
0.014593
0.014593
0.014593
0.014593
0.014593
0.014593
0.014593
0.014593
0.014593
0.014593
0.014593
0.014593
0.014593
0.014593
0.014593
0.014593
0.014593
0.014593
0.014593
0.014593
0.014593
0.014593
0.014593
0.014593
0.014593
0.014593
0.014593
0.014593
0.014593
0.014593
0.014593
0.014593
0.014593
0.014593
0.014593
0.0145931
0.0145931
0.0145931
0.0145931
0.0145931
0.0145931
0.0145931
0.0145931
0.0145931
0.0145931
0.0145932
0.0145932
0.0145932
0.0145932
0.0145932
0.0145932
0.0145933
0.0145933
0.0145933
0.0145933
0.0145934
0.0145934
0.0145934
0.0145935
0.0145935
0.0145935
0.0145935
0.0145936
0.0145936
0.0145936
0.0145936
0.0145936
0.0145936
0.0145936
0.0145936
0.0145936
0.0145936
0.0145936
0.0145936
0.0145936
0.0145936
0.0145935
0.0145935
0.0145935
0.0145935
0.0145934
0.0145934
0.0145934
0.0145933
0.0145933
0.0145933
0.0145932
0.0145932
0.0145932
0.0145932
0.0145931
0.0145931
0.0145931
0.0145931
0.0145931
0.0145931
0.014593
0.014593
0.014593
0.014593
0.014593
0.014593
0.014593
0.014593
0.014593
0.014593
0.014593
0.014593
0.014593
0.014593
0.014593
0.014593
0.014593
0.014593
0.014593
0.014593
0.014593
0.014593
0.014593
0.014593
0.014593
0.014593
0.014593
0.014593
0.014593
0.014593
0.014593
0.014593
0.014593
0.014593
0.014593
0.014593
0.014593
0.0145931
0.0145931
0.0145931
0.0145931
0.0145931
0.0145931
0.0145931
0.0145931
0.0145931
0.0145932
0.0145932
0.0145932
0.0145932
0.0145933
0.0145933
0.0145933
0.0145934
0.0145934
0.0145935
0.0145936
0.0145936
0.0145937
0.0145938
0.0145939
0.014594
0.0145941
0.0145943
0.0145944
0.0145945
0.0145947
0.0145948
0.014595
0.0145952
0.0145954
0.0145956
0.0145958
0.014596
0.0145962
0.0145965
0.0145967
0.0145969
0.0145971
0.0145972
0.0145974
0.0145975
0.0145976
0.0145977
0.0145978
0.0145978
0.0145978
0.0145978
0.0145977
0.0145976
0.0145975
0.0145974
0.0145972
0.0145971
0.0145969
0.0145966
0.0145964
0.0145962
0.014596
0.0145957
0.0145955
0.0145952
0.014595
0.0145947
0.0145945
0.0145943
0.0145941
0.0145939
0.0145938
0.0145937
0.0145935
0.0145935
0.0145934
0.0145933
0.0145932
0.0145932
0.0145931
0.0145931
0.0145931
0.0145931
0.0145931
0.014593
0.014593
0.014593
0.014593
0.014593
0.014593
0.014593
0.014593
0.014593
0.014593
0.014593
0.014593
0.014593
0.014593
0.014593
0.014593
0.014593
0.0145931
0.0145931
0.0145931
0.0145931
0.0145931
0.0145931
0.0145931
0.0145931
0.0145932
0.0145932
0.0145932
0.0145932
0.0145933
0.0145933
0.0145933
0.0145934
0.0145935
0.0145935
0.0145936
0.0145937
0.0145938
0.0145939
0.014594
0.0145942
0.0145943
0.0145945
0.0145947
0.014595
0.0145952
0.0145955
0.0145959
0.0145963
0.0145967
0.0145972
0.0145978
0.0145984
0.014599
0.0145998
0.0146005
0.0146014
0.0146022
0.0146031
0.0146041
0.0146052
0.0146064
0.0146077
0.0146091
0.0146106
0.0146121
0.0146137
0.0146154
0.014617
0.0146186
0.0146201
0.0146216
0.0146229
0.0146242
0.0146253
0.0146262
0.0146269
0.0146275
0.0146279
0.0146281
0.0146281
0.0146279
0.0146274
0.0146268
0.0146259
0.0146249
0.0146238
0.0146225
0.014621
0.0146195
0.0146179
0.0146162
0.0146144
0.0146126
0.0146109
0.0146091
0.0146073
0.0146055
0.0146039
0.0146023
0.0146009
0.0145997
0.0145986
0.0145977
0.0145969
0.0145963
0.0145957
0.0145952
0.0145947
0.0145944
0.0145941
0.0145938
0.0145936
0.0145935
0.0145934
0.0145933
0.0145932
0.0145931
0.0145931
0.0145931
0.0145931
0.014593
0.014593
0.014593
0.014593
0.0145931
0.0145931
0.0145932
0.0145932
0.0145932
0.0145933
0.0145933
0.0145933
0.0145934
0.0145934
0.0145935
0.0145936
0.0145937
0.0145938
0.0145939
0.014594
0.0145942
0.0145944
0.0145946
0.0145948
0.0145951
0.0145954
0.0145958
0.0145962
0.0145967
0.0145972
0.0145978
0.0145985
0.0145994
0.0146003
0.0146014
0.0146026
0.0146039
0.0146054
0.0146071
0.014609
0.0146112
0.0146137
0.0146166
0.0146198
0.0146234
0.0146274
0.0146319
0.0146367
0.0146418
0.0146473
0.0146532
0.0146593
0.0146659
0.0146732
0.0146811
0.0146898
0.0146992
0.0147095
0.0147203
0.0147316
0.0147432
0.0147549
0.0147664
0.0147776
0.0147883
0.0147984
0.0148076
0.014816
0.0148234
0.0148296
0.0148347
0.0148385
0.014841
0.0148421
0.0148417
0.0148399
0.0148367
0.014832
0.014826
0.0148188
0.0148105
0.0148013
0.0147912
0.0147804
0.014769
0.014757
0.0147447
0.0147321
0.0147195
0.0147068
0.0146942
0.0146818
0.01467
0.0146589
0.0146488
0.0146401
0.0146326
0.0146263
0.014621
0.0146163
0.0146121
0.0146085
0.0146053
0.0146026
0.0146004
0.0145987
0.0145973
0.0145963
0.0145955
0.0145948
0.0145943
0.014594
0.0145937
0.0145935
0.0145933
0.0145932
0.0145932
0.0145931
0.0145931
0.0145931
0.0145933
0.0145933
0.0145934
0.0145934
0.0145935
0.0145936
0.0145937
0.0145938
0.014594
0.0145941
0.0145943
0.0145945
0.0145947
0.014595
0.0145953
0.0145957
0.0145961
0.0145966
0.0145971
0.0145977
0.0145984
0.0145993
0.0146003
0.0146014
0.0146027
0.0146041
0.0146058
0.0146077
0.0146099
0.0146124
0.0146152
0.0146186
0.0146224
0.0146268
0.0146319
0.0146378
0.0146444
0.0146519
0.0146603
0.0146696
0.0146801
0.0146918
0.0147053
0.0147207
0.0147383
0.0147585
0.0147813
0.0148068
0.014835
0.0148658
0.0148989
0.0149342
0.0149714
0.0150106
0.0150521
0.0150969
0.0151461
0.0152004
0.0152599
0.0153244
0.0153932
0.0154653
0.0155396
0.0156146
0.0156891
0.0157617
0.0158314
0.0158972
0.0159583
0.0160139
0.0160638
0.0161073
0.0161441
0.0161736
0.0161954
0.0162091
0.0162138
0.0162105
0.0161985
0.0161775
0.0161477
0.0161099
0.0160651
0.0160137
0.0159565
0.0158939
0.0158263
0.0157543
0.0156788
0.0156005
0.0155203
0.0154386
0.0153561
0.0152736
0.0151922
0.0151133
0.0150391
0.0149719
0.0149135
0.014864
0.014822
0.0147858
0.014754
0.0147257
0.0147004
0.0146782
0.0146594
0.0146442
0.0146323
0.0146231
0.014616
0.0146103
0.0146058
0.0146024
0.0145998
0.0145978
0.0145964
0.0145954
0.0145947
0.0145942
0.0145938
0.0145935
0.0145934
0.0145949
0.0145952
0.0145956
0.014596
0.0145965
0.0145971
0.0145978
0.0145985
0.0145994
0.0146005
0.0146017
0.0146031
0.0146047
0.0146066
0.0146087
0.0146112
0.014614
0.0146172
0.0146209
0.0146251
0.0146301
0.0146358
0.0146424
0.0146501
0.0146589
0.0146689
0.0146803
0.0146932
0.0147079
0.0147247
0.0147441
0.0147666
0.0147928
0.014823
0.0148577
0.0148972
0.0149419
0.0149918
0.0150471
0.0151083
0.0151765
0.0152534
0.0153412
0.0154417
0.0155561
0.0156853
0.0158294
0.0159878
0.0161595
0.0163431
0.0165368
0.0167386
0.0169472
0.0171625
0.0173884
0.017632
0.0178984
0.0181887
0.0185005
0.0188294
0.0191699
0.0195158
0.0198605
0.0201977
0.0205218
0.0208287
0.0211153
0.0213795
0.0216196
0.0218344
0.0220233
0.0221858
0.0223213
0.022428
0.0225036
0.022549
0.0225588
0.0225418
0.02249
0.0224032
0.0222828
0.0221319
0.021953
0.0217481
0.0215177
0.0212624
0.0209825
0.0206793
0.0203547
0.0200112
0.0196507
0.0192742
0.0188832
0.0184801
0.0180699
0.0176598
0.0172615
0.0168924
0.0165671
0.0162871
0.0160448
0.0158306
0.0156371
0.0154603
0.0152992
0.0151557
0.0150333
0.0149341
0.0148565
0.0147964
0.014749
0.014711
0.0146807
0.014657
0.0146392
0.0146261
0.0146166
0.0146097
0.0146046
0.014601
0.0145984
0.0145967
0.0145955
0.0146054
0.0146076
0.0146101
0.014613
0.0146164
0.0146202
0.0146247
0.0146299
0.0146358
0.0146428
0.0146508
0.0146601
0.0146708
0.0146831
0.0146972
0.0147133
0.0147317
0.0147528
0.014777
0.0148051
0.0148376
0.0148753
0.0149187
0.0149686
0.0150254
0.0150898
0.0151622
0.0152437
0.0153358
0.015441
0.015562
0.0157013
0.0158612
0.0160432
0.0162484
0.0164773
0.0167296
0.0170045
0.0173013
0.017621
0.0179696
0.0183569
0.0187907
0.0192745
0.0198073
0.0203852
0.021002
0.0216496
0.0223192
0.0230016
0.0236882
0.0243722
0.0250493
0.025723
0.0264131
0.0271473
0.0279303
0.0287497
0.0295879
0.0304285
0.0312571
0.03206
0.0328249
0.0335418
0.0342034
0.0348072
0.035354
0.0358448
0.0362804
0.0366617
0.0369905
0.0372682
0.0374955
0.0376704
0.0377844
0.0378452
0.0378467
0.0378035
0.0376923
0.0375168
0.0372818
0.0369924
0.0366521
0.0362607
0.0358166
0.0353166
0.0347582
0.03414
0.0334615
0.0327236
0.031925
0.0310602
0.0301234
0.0291125
0.0280302
0.0268877
0.0257125
0.0245668
0.0235148
0.0225632
0.0216869
0.0208582
0.0200582
0.0192789
0.0185241
0.017812
0.0171747
0.0166405
0.0162114
0.015868
0.0155879
0.0153554
0.015164
0.0150122
0.0148974
0.014813
0.0147511
0.0147053
0.0146716
0.0146472
0.01463
0.014618
0.0146098
0.014674
0.014688
0.0147041
0.0147228
0.0147443
0.014769
0.0147975
0.0148303
0.0148684
0.0149125
0.0149634
0.0150221
0.0150893
0.0151659
0.0152528
0.0153509
0.0154618
0.015588
0.0157324
0.0158979
0.0160872
0.0163026
0.0165461
0.016819
0.017122
0.0174553
0.0178192
0.0182162
0.0186536
0.0191412
0.0196865
0.0202934
0.0209615
0.0216879
0.0224671
0.0232918
0.0241531
0.0250416
0.0259502
0.0268819
0.0278587
0.0289082
0.030034
0.031223
0.032456
0.0337133
0.0349757
0.0362258
0.0374471
0.0386263
0.0397548
0.0408285
0.041848
0.0428257
0.0438172
0.0449174
0.0460793
0.0472465
0.0483782
0.049451
0.050451
0.0513683
0.0521958
0.0529312
0.053574
0.0541311
0.0546153
0.0550337
0.0553895
0.0556857
0.055927
0.0561169
0.0562593
0.0563567
0.0563788
0.0563581
0.0563034
0.0562021
0.0560488
0.0558285
0.0555546
0.0552455
0.0549042
0.0545192
0.0540872
0.0535989
0.0530504
0.0524372
0.0517481
0.05098
0.0501261
0.0491671
0.0480769
0.0468404
0.045441
0.0438727
0.0421485
0.0403712
0.0387334
0.037194
0.0356753
0.0341199
0.0324914
0.030767
0.028946
0.0270655
0.0252298
0.023575
0.0221406
0.0208865
0.0197596
0.0187315
0.0178112
0.0170332
0.016417
0.0159461
0.0155869
0.0153106
0.0151005
0.0149461
0.0148362
0.014759
0.014705
0.0146675
0.0146419
0.0150983
0.0151831
0.0152805
0.0153915
0.0155178
0.0156612
0.0158247
0.0160112
0.0162241
0.0164661
0.0167399
0.0170473
0.0173898
0.0177681
0.0181828
0.0186353
0.0191306
0.0196768
0.0202815
0.0209493
0.0216813
0.0224759
0.0233292
0.0242355
0.0251877
0.0261777
0.0271992
0.0282568
0.0293733
0.0305669
0.0318358
0.0331669
0.0345434
0.0359481
0.0373643
0.0387755
0.0401662
0.0415229
0.0428391
0.0441245
0.0454479
0.0468895
0.0484006
0.049924
0.0514157
0.0528451
0.0541912
0.0554403
0.0565824
0.0576138
0.0585391
0.0593664
0.0601062
0.0607657
0.0613475
0.0618496
0.0622822
0.0626498
0.0629558
0.0632067
0.0634073
0.0635593
0.0636633
0.0637282
0.0637536
0.0637482
0.0637351
0.063711
0.0636765
0.0636294
0.0635653
0.063486
0.0633949
0.0632908
0.0631679
0.0630277
0.0628659
0.0626869
0.0625107
0.0623124
0.0620982
0.0618801
0.0616413
0.0613933
0.0611326
0.0608495
0.0605574
0.0602548
0.0599354
0.0596026
0.0592426
0.058852
0.0584213
0.0579574
0.0574331
0.0568506
0.0562115
0.0555026
0.0547014
0.0537649
0.0526611
0.0513688
0.0498569
0.0480719
0.0459649
0.0435275
0.040876
0.0383821
0.0360774
0.033851
0.0315959
0.0292664
0.0269071
0.0246825
0.0227394
0.0210927
0.019686
0.0184752
0.0174622
0.0166634
0.0160643
0.0156239
0.0153021
0.0150712
0.0149107
0.017382
0.0177923
0.0182466
0.0187453
0.0192901
0.0198855
0.0205383
0.0212542
0.0220358
0.0228826
0.023792
0.0247589
0.0257773
0.0268395
0.0279382
0.0290724
0.0302538
0.0314997
0.0328115
0.03418
0.0355914
0.0370314
0.038486
0.039942
0.0413865
0.0428073
0.0441977
0.0455677
0.0469997
0.0485265
0.0501026
0.0516813
0.0532264
0.0547114
0.0561173
0.0574301
0.0586395
0.05974
0.0607352
0.0616306
0.0624298
0.063133
0.0637535
0.0643001
0.0647797
0.0651965
0.0655522
0.0658502
0.0660881
0.0662677
0.0664087
0.0665243
0.0666215
0.0667049
0.0667712
0.0668205
0.0668592
0.0668846
0.0668872
0.0668807
0.0668615
0.0668231
0.066765
0.0666865
0.0665854
0.066466
0.066331
0.0661892
0.0660538
0.065913
0.0657527
0.0655919
0.0654365
0.0652725
0.0651024
0.0649234
0.0647346
0.0645485
0.0643551
0.0641439
0.0639462
0.0637552
0.063562
0.0633615
0.0631135
0.0628622
0.0626328
0.0624039
0.0621884
0.0619393
0.061672
0.061409
0.0611562
0.0608654
0.0605368
0.0602242
0.0599229
0.0596388
0.059303
0.0589147
0.0584777
0.0580079
0.0574983
0.056916
0.0562334
0.0554366
0.0545048
0.0534251
0.0521199
0.05049
0.0484489
0.0459361
0.0429426
0.0397692
0.0367837
0.0339771
0.0312313
0.0284854
0.0258319
0.0234637
0.0214606
0.0197885
0.018402
0.0172956
0.0164635
0.0244977
0.0255796
0.0267177
0.0279034
0.0291284
0.030391
0.0317004
0.0330664
0.0344854
0.0359462
0.0374347
0.0389375
0.0404418
0.0419365
0.0434111
0.0448571
0.0462759
0.0477089
0.0492159
0.0507679
0.0523276
0.0538629
0.0553486
0.056766
0.0581021
0.0593469
0.0604926
0.0615372
0.0624827
0.0633266
0.0640747
0.0647403
0.0653334
0.0658613
0.0663281
0.0667361
0.0670882
0.067381
0.067616
0.0678084
0.0679745
0.0681234
0.0682564
0.0683765
0.0684838
0.06858
0.0686648
0.0687347
0.0687893
0.0688241
0.0688205
0.0687983
0.0687589
0.0687067
0.0686492
0.0685857
0.0685087
0.0684318
0.0683568
0.0682781
0.0681971
0.0681159
0.0680367
0.0679608
0.0678795
0.0677912
0.0676914
0.0675621
0.0674209
0.0672839
0.0671354
0.0669679
0.0667991
0.0666379
0.066468
0.0662934
0.0661129
0.0659249
0.0657438
0.0655543
0.065347
0.065158
0.0649792
0.064803
0.064619
0.0643823
0.0641465
0.0639364
0.0637283
0.0635377
0.0633081
0.0630606
0.0628192
0.0625949
0.0623321
0.0620339
0.0617561
0.0614874
0.061231
0.0609567
0.0606277
0.0602863
0.0599564
0.0596236
0.0592867
0.0589305
0.0585642
0.0582371
0.0578664
0.0573988
0.0568305
0.0561689
0.0553975
0.0544598
0.0533326
0.0519206
0.0500909
0.0477213
0.0447206
0.0412121
0.0377369
0.0344527
0.0312866
0.0281888
0.0252893
0.0227753
0.0397969
0.0414109
0.0430086
0.0445795
0.0461159
0.0476194
0.0491339
0.050694
0.0522742
0.0538435
0.0553749
0.0568469
0.0582436
0.0595541
0.0607711
0.0618899
0.0629068
0.06382
0.064629
0.0653472
0.0659869
0.0665568
0.0670643
0.0675141
0.0679092
0.0682515
0.0685375
0.0687708
0.0689689
0.0691432
0.069302
0.0694481
0.0695832
0.0697087
0.069824
0.069928
0.0700193
0.0700922
0.0701382
0.0701517
0.07015
0.0701439
0.0701313
0.0701123
0.0700909
0.0700686
0.0700465
0.0700257
0.0700096
0.0699995
0.0699926
0.0699773
0.0699433
0.0698875
0.0698196
0.0697351
0.069636
0.0695371
0.0694381
0.069336
0.0692306
0.0691239
0.0690207
0.0689235
0.0688243
0.0687279
0.068629
0.0685007
0.0683691
0.0682411
0.0680919
0.0679176
0.0677521
0.0675914
0.067417
0.0672389
0.0670579
0.0668701
0.0666906
0.0665042
0.0662996
0.0661124
0.06594
0.0657728
0.0655928
0.0653617
0.065148
0.064952
0.0647569
0.0645836
0.064373
0.0641446
0.0639129
0.0637033
0.0634669
0.0632028
0.0629438
0.0626822
0.0624458
0.0622163
0.0619352
0.0616451
0.0613569
0.0610616
0.0607652
0.0604497
0.060136
0.0598389
0.0595185
0.0591489
0.0587414
0.058328
0.0579185
0.0575656
0.0571975
0.0567313
0.0561574
0.0554489
0.0545462
0.0534373
0.0520112
0.0500968
0.0475123
0.0441559
0.0403072
0.0365305
0.0329428
0.0294882
0.0574027
0.0588903
0.0602869
0.0615836
0.0627761
0.0638598
0.0648281
0.0656822
0.0664349
0.0670989
0.0676857
0.068204
0.0686607
0.0690606
0.0694072
0.0696998
0.0699383
0.0701373
0.0703112
0.0704677
0.0706125
0.0707457
0.0708693
0.0709835
0.0710878
0.0711793
0.0712515
0.0712947
0.0713149
0.071325
0.0713325
0.0713334
0.0713339
0.0713329
0.071333
0.0713365
0.0713432
0.07136
0.071388
0.0714135
0.0714124
0.0713966
0.0713647
0.0713219
0.0712716
0.0712158
0.0711583
0.0711005
0.0710471
0.0710001
0.0709595
0.0709192
0.0708705
0.0708142
0.0707434
0.0706508
0.0705454
0.0704382
0.0703281
0.0702134
0.070095
0.0699754
0.0698573
0.0697415
0.0696295
0.0695309
0.0694302
0.069312
0.0692041
0.0690936
0.0689557
0.0688002
0.0686619
0.0685137
0.0683475
0.0681814
0.0680129
0.0678352
0.0676621
0.0674842
0.0672901
0.0671061
0.0669387
0.0667782
0.0665906
0.0663702
0.0661719
0.0659845
0.0657921
0.065613
0.0654233
0.0652
0.0649698
0.0647459
0.0645166
0.0642658
0.0640114
0.063751
0.063502
0.0632631
0.0630084
0.0627414
0.0624672
0.0621886
0.0619193
0.0616493
0.0613712
0.0610908
0.0608062
0.0604914
0.0601516
0.0597954
0.059442
0.0591261
0.0587879
0.0584087
0.0580006
0.0575914
0.0572163
0.0568377
0.0563817
0.055816
0.0550695
0.0541072
0.0528803
0.05119
0.0488004
0.0455323
0.0691399
0.0696696
0.0701304
0.0705291
0.0708707
0.0711545
0.0713833
0.0715728
0.0717374
0.0718845
0.0720187
0.0721404
0.0722512
0.0723513
0.0724395
0.0725096
0.0725525
0.0725707
0.0725783
0.0725838
0.0725863
0.072586
0.0725866
0.0725874
0.0725917
0.0726017
0.0726232
0.0726565
0.0726863
0.0726891
0.0726804
0.072659
0.0726297
0.0725963
0.0725599
0.0725227
0.072488
0.0724613
0.0724464
0.0724375
0.0724232
0.0723972
0.072358
0.0723046
0.0722428
0.0721748
0.0721025
0.0720283
0.0719548
0.071884
0.0718213
0.0717657
0.0717126
0.0716651
0.0716068
0.0715304
0.0714461
0.0713576
0.071261
0.0711563
0.0710463
0.0709335
0.070818
0.0706995
0.0705854
0.0704806
0.0703727
0.0702612
0.0701663
0.0700622
0.0699308
0.0698014
0.0696804
0.0695399
0.0693835
0.0692334
0.0690769
0.0689061
0.0687406
0.0685726
0.0683896
0.0682073
0.0680415
0.0678817
0.0676942
0.0674886
0.0673014
0.0671206
0.0669328
0.0667449
0.0665635
0.0663518
0.0661215
0.0658906
0.0656576
0.0654167
0.0651696
0.0649154
0.0646629
0.0644155
0.0641639
0.0639044
0.0636356
0.0633594
0.0630833
0.0628059
0.0625213
0.0622282
0.0619272
0.0616198
0.0613107
0.060995
0.0606768
0.0603729
0.0600688
0.0597435
0.0593916
0.0590338
0.0586989
0.0583458
0.0579656
0.057574
0.0571995
0.0568484
0.0564545
0.0559532
0.0552726
0.0543906
0.0734859
0.0736086
0.0737175
0.0738136
0.0738954
0.0739569
0.073989
0.0739974
0.0739979
0.073997
0.0739939
0.0739887
0.0739832
0.0739792
0.0739804
0.0739904
0.0740136
0.0740395
0.0740405
0.0740308
0.0740088
0.0739785
0.0739441
0.0739089
0.0738719
0.0738383
0.0738135
0.073803
0.0737963
0.0737854
0.0737656
0.0737346
0.0736938
0.0736462
0.0735956
0.0735432
0.0734913
0.0734418
0.0734012
0.0733722
0.0733498
0.0733278
0.0733015
0.0732658
0.0732203
0.0731663
0.0731049
0.0730381
0.0729676
0.0728952
0.0728237
0.0727555
0.0726945
0.07264
0.072581
0.072514
0.0724451
0.0723703
0.0722857