/*--------------------------------*- C++ -*----------------------------------*\
| =========                 |                                                 |
| \\      /  F ield         | OpenFOAM: The Open Source CFD Toolbox           |
|  \\    /   O peration     | Version:  v1706                                 |
|   \\  /    A nd           | Web:      www.OpenFOAM.com                      |
|    \\/     M anipulation  |                                                 |
\*---------------------------------------------------------------------------*/
FoamFile
{
    version     2.0;
    format      ascii;
    class       volScalarField;
    location    "1.2e-05";
    object      mu;
}
// * * * * * * * * * * * * * * * * * * * * * * * * * * * * * * * * * * * * * //

dimensions      [1 -1 -1 0 0 0 0];


internalField   nonuniform List<scalar> 
29871
(
1.0351e-05
1.0351e-05
1.0351e-05
1.0351e-05
1.0351e-05
1.0351e-05
1.0351e-05
1.0351e-05
1.0351e-05
1.0351e-05
1.0351e-05
1.0351e-05
1.0351e-05
1.0351e-05
1.0351e-05
1.0351e-05
1.0351e-05
1.0351e-05
1.0351e-05
1.0351e-05
1.0351e-05
1.0351e-05
1.0351e-05
1.0351e-05
1.0351e-05
1.0351e-05
1.0351e-05
1.0351e-05
1.0351e-05
1.0351e-05
1.0351e-05
1.0351e-05
1.0351e-05
1.0351e-05
1.0351e-05
1.0351e-05
1.0351e-05
1.0351e-05
1.0351e-05
1.0351e-05
1.0351e-05
1.0351e-05
1.0351e-05
1.0351e-05
1.0351e-05
1.0351e-05
1.0351e-05
1.0351e-05
1.0351e-05
1.0351e-05
1.0351e-05
1.0351e-05
1.0351e-05
1.0351e-05
1.0351e-05
1.0351e-05
1.0351e-05
1.0351e-05
1.0351e-05
1.0351e-05
1.0351e-05
1.0351e-05
1.0351e-05
1.0351e-05
1.0351e-05
1.0351e-05
1.0351e-05
1.0351e-05
1.0351e-05
1.0351e-05
1.0351e-05
1.0351e-05
1.0351e-05
1.0351e-05
1.0351e-05
1.0351e-05
1.0351e-05
1.0351e-05
1.0351e-05
1.0351e-05
1.0351e-05
1.0351e-05
1.0351e-05
1.0351e-05
1.0351e-05
1.0351e-05
1.0351e-05
1.0351e-05
1.0351e-05
1.0351e-05
1.0351e-05
1.0351e-05
1.0351e-05
1.0351e-05
1.0351e-05
1.0351e-05
1.0351e-05
1.0351e-05
1.0351e-05
1.0351e-05
1.0351e-05
1.0351e-05
1.0351e-05
1.0351e-05
1.0351e-05
1.0351e-05
1.0351e-05
1.0351e-05
1.0351e-05
1.0351e-05
1.0351e-05
1.0351e-05
1.0351e-05
1.0351e-05
1.0351e-05
1.0351e-05
1.0351e-05
1.0351e-05
1.0351e-05
1.0351e-05
1.0351e-05
1.0351e-05
1.0351e-05
1.0351e-05
1.0351e-05
1.0351e-05
1.0351e-05
1.0351e-05
1.0351e-05
1.0351e-05
1.0351e-05
1.0351e-05
1.0351e-05
1.0351e-05
1.0351e-05
1.0351e-05
1.0351e-05
1.0351e-05
1.0351e-05
1.0351e-05
1.0351e-05
1.0351e-05
1.0351e-05
1.0351e-05
1.0351e-05
1.0351e-05
1.0351e-05
1.0351e-05
1.0351e-05
1.0351e-05
1.0351e-05
1.0351e-05
1.0351e-05
1.0351e-05
1.0351e-05
1.0351e-05
1.0351e-05
1.0351e-05
1.0351e-05
1.0351e-05
1.0351e-05
1.0351e-05
1.0351e-05
1.0351e-05
1.0351e-05
1.0351e-05
1.0351e-05
1.0351e-05
1.0351e-05
1.0351e-05
1.0351e-05
1.0351e-05
1.0351e-05
1.0351e-05
1.0351e-05
1.0351e-05
1.0351e-05
1.0351e-05
1.0351e-05
1.0351e-05
1.0351e-05
1.0351e-05
1.0351e-05
1.0351e-05
1.0351e-05
1.0351e-05
1.0351e-05
1.0351e-05
1.0351e-05
1.0351e-05
1.0351e-05
1.0351e-05
1.0351e-05
1.0351e-05
1.0351e-05
1.0351e-05
1.0351e-05
1.0351e-05
1.0351e-05
1.0351e-05
1.0351e-05
1.0351e-05
1.0351e-05
1.0351e-05
1.0351e-05
1.0351e-05
1.0351e-05
1.0351e-05
1.0351e-05
1.0351e-05
1.0351e-05
1.0351e-05
1.0351e-05
1.0351e-05
1.0351e-05
1.0351e-05
1.0351e-05
1.0351e-05
1.0351e-05
1.0351e-05
1.0351e-05
1.0351e-05
1.0351e-05
1.0351e-05
1.0351e-05
1.0351e-05
1.0351e-05
1.0351e-05
1.0351e-05
1.0351e-05
1.0351e-05
1.0351e-05
1.0351e-05
1.0351e-05
1.0351e-05
1.0351e-05
1.0351e-05
1.0351e-05
1.0351e-05
1.0351e-05
1.0351e-05
1.0351e-05
1.0351e-05
1.0351e-05
1.0351e-05
1.0351e-05
1.0351e-05
1.0351e-05
1.0351e-05
1.0351e-05
1.0351e-05
1.0351e-05
1.0351e-05
1.0351e-05
1.0351e-05
1.0351e-05
1.0351e-05
1.0351e-05
1.0351e-05
1.0351e-05
1.0351e-05
1.0351e-05
1.0351e-05
1.0351e-05
1.0351e-05
1.0351e-05
1.0351e-05
1.0351e-05
1.0351e-05
1.0351e-05
1.0351e-05
1.0351e-05
1.0351e-05
1.0351e-05
1.0351e-05
1.0351e-05
1.0351e-05
1.0351e-05
1.0351e-05
1.0351e-05
1.0351e-05
1.0351e-05
1.0351e-05
1.0351e-05
1.0351e-05
1.0351e-05
1.0351e-05
1.0351e-05
1.0351e-05
1.0351e-05
1.0351e-05
1.0351e-05
1.0351e-05
1.0351e-05
1.0351e-05
1.0351e-05
1.0351e-05
1.0351e-05
1.0351e-05
1.0351e-05
1.0351e-05
1.0351e-05
1.0351e-05
1.0351e-05
1.0351e-05
1.0351e-05
1.0351e-05
1.0351e-05
1.0351e-05
1.0351e-05
1.0351e-05
1.0351e-05
1.0351e-05
1.0351e-05
1.0351e-05
1.0351e-05
1.0351e-05
1.0351e-05
1.0351e-05
1.0351e-05
1.0351e-05
1.0351e-05
1.0351e-05
1.0351e-05
1.0351e-05
1.0351e-05
1.0351e-05
1.0351e-05
1.0351e-05
1.0351e-05
1.0351e-05
1.0351e-05
1.0351e-05
1.0351e-05
1.0351e-05
1.0351e-05
1.0351e-05
1.0351e-05
1.0351e-05
1.0351e-05
1.0351e-05
1.0351e-05
1.0351e-05
1.0351e-05
1.0351e-05
1.0351e-05
1.0351e-05
1.0351e-05
1.0351e-05
1.0351e-05
1.0351e-05
1.0351e-05
1.0351e-05
1.0351e-05
1.0351e-05
1.0351e-05
1.0351e-05
1.0351e-05
1.0351e-05
1.0351e-05
1.0351e-05
1.0351e-05
1.0351e-05
1.0351e-05
1.0351e-05
1.0351e-05
1.0351e-05
1.0351e-05
1.0351e-05
1.0351e-05
1.0351e-05
1.0351e-05
1.0351e-05
1.0351e-05
1.0351e-05
1.0351e-05
1.0351e-05
1.0351e-05
1.0351e-05
1.0351e-05
1.0351e-05
1.0351e-05
1.0351e-05
1.0351e-05
1.0351e-05
1.0351e-05
1.0351e-05
1.0351e-05
1.0351e-05
1.0351e-05
1.0351e-05
1.0351e-05
1.0351e-05
1.0351e-05
1.0351e-05
1.0351e-05
1.0351e-05
1.0351e-05
1.0351e-05
1.0351e-05
1.0351e-05
1.0351e-05
1.0351e-05
1.0351e-05
1.0351e-05
1.0351e-05
1.0351e-05
1.0351e-05
1.0351e-05
1.0351e-05
1.0351e-05
1.0351e-05
1.0351e-05
1.0351e-05
1.0351e-05
1.0351e-05
1.0351e-05
1.0351e-05
1.0351e-05
1.0351e-05
1.0351e-05
1.0351e-05
1.0351e-05
1.0351e-05
1.0351e-05
1.0351e-05
1.0351e-05
1.0351e-05
1.0351e-05
1.0351e-05
1.0351e-05
1.0351e-05
1.0351e-05
1.0351e-05
1.0351e-05
1.0351e-05
1.0351e-05
1.0351e-05
1.0351e-05
1.0351e-05
1.0351e-05
1.0351e-05
1.0351e-05
1.0351e-05
1.0351e-05
1.0351e-05
1.0351e-05
1.0351e-05
1.0351e-05
1.0351e-05
1.0351e-05
1.0351e-05
1.0351e-05
1.0351e-05
1.0351e-05
1.0351e-05
1.0351e-05
1.0351e-05
1.0351e-05
1.0351e-05
1.0351e-05
1.0351e-05
1.0351e-05
1.0351e-05
1.0351e-05
1.0351e-05
1.0351e-05
1.0351e-05
1.0351e-05
1.0351e-05
1.0351e-05
1.0351e-05
1.0351e-05
1.0351e-05
1.0351e-05
1.0351e-05
1.0351e-05
1.0351e-05
1.0351e-05
1.0351e-05
1.0351e-05
1.0351e-05
1.0351e-05
1.0351e-05
1.0351e-05
1.0351e-05
1.0351e-05
1.0351e-05
1.0351e-05
1.0351e-05
1.0351e-05
1.0351e-05
1.0351e-05
1.0351e-05
1.0351e-05
1.0351e-05
1.0351e-05
1.0351e-05
1.0351e-05
1.0351e-05
1.0351e-05
1.0351e-05
1.0351e-05
1.0351e-05
1.0351e-05
1.0351e-05
1.0351e-05
1.0351e-05
1.0351e-05
1.0351e-05
1.0351e-05
1.0351e-05
1.0351e-05
1.0351e-05
1.0351e-05
1.0351e-05
1.0351e-05
1.0351e-05
1.0351e-05
1.0351e-05
1.0351e-05
1.0351e-05
1.0351e-05
1.0351e-05
1.0351e-05
1.0351e-05
1.0351e-05
1.0351e-05
1.0351e-05
1.0351e-05
1.0351e-05
1.0351e-05
1.0351e-05
1.0351e-05
1.0351e-05
1.0351e-05
1.0351e-05
1.0351e-05
1.0351e-05
1.0351e-05
1.0351e-05
1.0351e-05
1.0351e-05
1.0351e-05
1.0351e-05
1.0351e-05
1.0351e-05
1.0351e-05
1.0351e-05
1.0351e-05
1.0351e-05
1.0351e-05
1.0351e-05
1.0351e-05
1.0351e-05
1.0351e-05
1.0351e-05
1.0351e-05
1.0351e-05
1.0351e-05
1.0351e-05
1.0351e-05
1.0351e-05
1.0351e-05
1.0351e-05
1.0351e-05
1.0351e-05
1.0351e-05
1.0351e-05
1.0351e-05
1.0351e-05
1.0351e-05
1.0351e-05
1.0351e-05
1.0351e-05
1.0351e-05
1.0351e-05
1.0351e-05
1.0351e-05
1.0351e-05
1.0351e-05
1.0351e-05
1.0351e-05
1.0351e-05
1.0351e-05
1.0351e-05
1.0351e-05
1.0351e-05
1.0351e-05
1.0351e-05
1.0351e-05
1.0351e-05
1.0351e-05
1.0351e-05
1.0351e-05
1.0351e-05
1.0351e-05
1.0351e-05
1.0351e-05
1.0351e-05
1.0351e-05
1.0351e-05
1.0351e-05
1.0351e-05
1.0351e-05
1.0351e-05
1.0351e-05
1.0351e-05
1.0351e-05
1.0351e-05
1.0351e-05
1.0351e-05
1.0351e-05
1.0351e-05
1.0351e-05
1.0351e-05
1.0351e-05
1.0351e-05
1.0351e-05
1.0351e-05
1.0351e-05
1.0351e-05
1.0351e-05
1.0351e-05
1.0351e-05
1.0351e-05
1.0351e-05
1.0351e-05
1.0351e-05
1.0351e-05
1.0351e-05
1.0351e-05
1.0351e-05
1.0351e-05
1.0351e-05
1.0351e-05
1.0351e-05
1.0351e-05
1.0351e-05
1.0351e-05
1.0351e-05
1.0351e-05
1.0351e-05
1.0351e-05
1.0351e-05
1.0351e-05
1.0351e-05
1.0351e-05
1.0351e-05
1.0351e-05
1.0351e-05
1.0351e-05
1.0351e-05
1.0351e-05
1.0351e-05
1.0351e-05
1.0351e-05
1.0351e-05
1.0351e-05
1.0351e-05
1.0351e-05
1.0351e-05
1.0351e-05
1.0351e-05
1.0351e-05
1.0351e-05
1.0351e-05
1.0351e-05
1.0351e-05
1.0351e-05
1.0351e-05
1.0351e-05
1.0351e-05
1.0351e-05
1.0351e-05
1.0351e-05
1.0351e-05
1.0351e-05
1.0351e-05
1.0351e-05
1.0351e-05
1.0351e-05
1.0351e-05
1.0351e-05
1.0351e-05
1.0351e-05
1.0351e-05
1.0351e-05
1.0351e-05
1.0351e-05
1.0351e-05
1.0351e-05
1.0351e-05
1.0351e-05
1.0351e-05
1.0351e-05
1.0351e-05
1.0351e-05
1.0351e-05
1.0351e-05
1.0351e-05
1.0351e-05
1.0351e-05
1.0351e-05
1.0351e-05
1.0351e-05
1.0351e-05
1.0351e-05
1.0351e-05
1.0351e-05
1.0351e-05
1.0351e-05
1.0351e-05
1.0351e-05
1.0351e-05
1.0351e-05
1.0351e-05
1.0351e-05
1.0351e-05
1.0351e-05
1.0351e-05
1.0351e-05
1.0351e-05
1.0351e-05
1.0351e-05
1.0351e-05
1.0351e-05
1.0351e-05
1.0351e-05
1.0351e-05
1.0351e-05
1.0351e-05
1.0351e-05
1.0351e-05
1.0351e-05
1.0351e-05
1.0351e-05
1.0351e-05
1.0351e-05
1.0351e-05
1.0351e-05
1.0351e-05
1.0351e-05
1.0351e-05
1.0351e-05
1.0351e-05
1.0351e-05
1.0351e-05
1.0351e-05
1.0351e-05
1.0351e-05
1.0351e-05
1.0351e-05
1.0351e-05
1.0351e-05
1.0351e-05
1.0351e-05
1.0351e-05
1.0351e-05
1.0351e-05
1.0351e-05
1.0351e-05
1.0351e-05
1.0351e-05
1.0351e-05
1.0351e-05
1.0351e-05
1.0351e-05
1.0351e-05
1.0351e-05
1.0351e-05
1.0351e-05
1.0351e-05
1.0351e-05
1.0351e-05
1.0351e-05
1.0351e-05
1.0351e-05
1.0351e-05
1.0351e-05
1.0351e-05
1.0351e-05
1.0351e-05
1.0351e-05
1.0351e-05
1.0351e-05
1.0351e-05
1.0351e-05
1.0351e-05
1.0351e-05
1.0351e-05
1.0351e-05
1.0351e-05
1.0351e-05
1.0351e-05
1.0351e-05
1.0351e-05
1.0351e-05
1.0351e-05
1.0351e-05
1.0351e-05
1.0351e-05
1.0351e-05
1.0351e-05
1.0351e-05
1.0351e-05
1.0351e-05
1.0351e-05
1.0351e-05
1.0351e-05
1.0351e-05
1.0351e-05
1.0351e-05
1.0351e-05
1.0351e-05
1.0351e-05
1.0351e-05
1.0351e-05
1.0351e-05
1.0351e-05
1.0351e-05
1.0351e-05
1.0351e-05
1.0351e-05
1.0351e-05
1.0351e-05
1.0351e-05
1.0351e-05
1.0351e-05
1.0351e-05
1.0351e-05
1.0351e-05
1.0351e-05
1.0351e-05
1.0351e-05
1.0351e-05
1.0351e-05
1.0351e-05
1.0351e-05
1.0351e-05
1.0351e-05
1.0351e-05
1.0351e-05
1.0351e-05
1.0351e-05
1.0351e-05
1.0351e-05
1.0351e-05
1.0351e-05
1.0351e-05
1.0351e-05
1.0351e-05
1.0351e-05
1.0351e-05
1.0351e-05
1.0351e-05
1.0351e-05
1.0351e-05
1.0351e-05
1.0351e-05
1.0351e-05
1.0351e-05
1.0351e-05
1.0351e-05
1.0351e-05
1.0351e-05
1.0351e-05
1.0351e-05
1.0351e-05
1.0351e-05
1.0351e-05
1.0351e-05
1.0351e-05
1.0351e-05
1.0351e-05
1.0351e-05
1.0351e-05
1.0351e-05
1.0351e-05
1.0351e-05
1.0351e-05
1.0351e-05
1.0351e-05
1.0351e-05
1.0351e-05
1.0351e-05
1.0351e-05
1.0351e-05
1.0351e-05
1.0351e-05
1.0351e-05
1.0351e-05
1.0351e-05
1.0351e-05
1.0351e-05
1.0351e-05
1.0351e-05
1.0351e-05
1.0351e-05
1.0351e-05
1.0351e-05
1.0351e-05
1.0351e-05
1.0351e-05
1.0351e-05
1.0351e-05
1.0351e-05
1.0351e-05
1.0351e-05
1.0351e-05
1.0351e-05
1.0351e-05
1.0351e-05
1.0351e-05
1.0351e-05
1.0351e-05
1.0351e-05
1.0351e-05
1.0351e-05
1.0351e-05
1.0351e-05
1.0351e-05
1.0351e-05
1.0351e-05
1.0351e-05
1.0351e-05
1.0351e-05
1.0351e-05
1.0351e-05
1.0351e-05
1.0351e-05
1.0351e-05
1.0351e-05
1.0351e-05
1.0351e-05
1.0351e-05
1.0351e-05
1.0351e-05
1.0351e-05
1.0351e-05
1.0351e-05
1.0351e-05
1.0351e-05
1.0351e-05
1.0351e-05
1.0351e-05
1.0351e-05
1.0351e-05
1.0351e-05
1.0351e-05
1.0351e-05
1.0351e-05
1.0351e-05
1.0351e-05
1.0351e-05
1.0351e-05
1.0351e-05
1.0351e-05
1.0351e-05
1.0351e-05
1.0351e-05
1.0351e-05
1.0351e-05
1.0351e-05
1.0351e-05
1.0351e-05
1.0351e-05
1.0351e-05
1.0351e-05
1.0351e-05
1.0351e-05
1.0351e-05
1.0351e-05
1.0351e-05
1.0351e-05
1.0351e-05
1.0351e-05
1.0351e-05
1.0351e-05
1.0351e-05
1.0351e-05
1.0351e-05
1.0351e-05
1.0351e-05
1.0351e-05
1.0351e-05
1.0351e-05
1.0351e-05
1.0351e-05
1.0351e-05
1.0351e-05
1.0351e-05
1.0351e-05
1.0351e-05
1.0351e-05
1.0351e-05
1.0351e-05
1.0351e-05
1.0351e-05
1.0351e-05
1.0351e-05
1.0351e-05
1.0351e-05
1.0351e-05
1.0351e-05
1.0351e-05
1.0351e-05
1.0351e-05
1.0351e-05
1.0351e-05
1.0351e-05
1.0351e-05
1.0351e-05
1.0351e-05
1.0351e-05
1.0351e-05
1.0351e-05
1.0351e-05
1.0351e-05
1.0351e-05
1.0351e-05
1.0351e-05
1.0351e-05
1.0351e-05
1.0351e-05
1.0351e-05
1.0351e-05
1.0351e-05
1.0351e-05
1.0351e-05
1.0351e-05
1.0351e-05
1.0351e-05
1.0351e-05
1.0351e-05
1.0351e-05
1.0351e-05
1.0351e-05
1.0351e-05
1.0351e-05
1.0351e-05
1.0351e-05
1.0351e-05
1.0351e-05
1.0351e-05
1.0351e-05
1.0351e-05
1.0351e-05
1.0351e-05
1.0351e-05
1.0351e-05
1.0351e-05
1.0351e-05
1.0351e-05
1.0351e-05
1.0351e-05
1.0351e-05
1.0351e-05
1.0351e-05
1.0351e-05
1.0351e-05
1.0351e-05
1.0351e-05
1.0351e-05
1.0351e-05
1.0351e-05
1.0351e-05
1.0351e-05
1.0351e-05
1.0351e-05
1.0351e-05
1.0351e-05
1.0351e-05
1.0351e-05
1.0351e-05
1.0351e-05
1.0351e-05
1.0351e-05
1.0351e-05
1.0351e-05
1.0351e-05
1.0351e-05
1.0351e-05
1.0351e-05
1.0351e-05
1.0351e-05
1.0351e-05
1.0351e-05
1.0351e-05
1.0351e-05
1.0351e-05
1.0351e-05
1.0351e-05
1.0351e-05
1.0351e-05
1.0351e-05
1.0351e-05
1.0351e-05
1.0351e-05
1.0351e-05
1.0351e-05
1.0351e-05
1.0351e-05
1.0351e-05
1.0351e-05
1.0351e-05
1.0351e-05
1.0351e-05
1.0351e-05
1.0351e-05
1.0351e-05
1.0351e-05
1.0351e-05
1.0351e-05
1.0351e-05
1.0351e-05
1.0351e-05
1.0351e-05
1.0351e-05
1.0351e-05
1.0351e-05
1.0351e-05
1.0351e-05
1.0351e-05
1.0351e-05
1.0351e-05
1.0351e-05
1.0351e-05
1.0351e-05
1.0351e-05
1.0351e-05
1.0351e-05
1.0351e-05
1.0351e-05
1.0351e-05
1.0351e-05
1.0351e-05
1.0351e-05
1.0351e-05
1.0351e-05
1.0351e-05
1.0351e-05
1.0351e-05
1.0351e-05
1.0351e-05
1.0351e-05
1.0351e-05
1.0351e-05
1.0351e-05
1.0351e-05
1.0351e-05
1.0351e-05
1.0351e-05
1.0351e-05
1.0351e-05
1.0351e-05
1.0351e-05
1.0351e-05
1.0351e-05
1.0351e-05
1.0351e-05
1.0351e-05
1.0351e-05
1.0351e-05
1.0351e-05
1.0351e-05
1.0351e-05
1.0351e-05
1.0351e-05
1.0351e-05
1.0351e-05
1.0351e-05
1.0351e-05
1.0351e-05
1.0351e-05
1.0351e-05
1.0351e-05
1.0351e-05
1.0351e-05
1.0351e-05
1.0351e-05
1.0351e-05
1.0351e-05
1.0351e-05
1.0351e-05
1.0351e-05
1.0351e-05
1.0351e-05
1.0351e-05
1.0351e-05
1.0351e-05
1.0351e-05
1.0351e-05
1.0351e-05
1.0351e-05
1.0351e-05
1.0351e-05
1.0351e-05
1.0351e-05
1.0351e-05
1.0351e-05
1.0351e-05
1.0351e-05
1.0351e-05
1.0351e-05
1.0351e-05
1.0351e-05
1.0351e-05
1.0351e-05
1.0351e-05
1.0351e-05
1.0351e-05
1.0351e-05
1.0351e-05
1.0351e-05
1.0351e-05
1.0351e-05
1.0351e-05
1.0351e-05
1.0351e-05
1.0351e-05
1.0351e-05
1.0351e-05
1.0351e-05
1.0351e-05
1.0351e-05
1.0351e-05
1.0351e-05
1.0351e-05
1.0351e-05
1.0351e-05
1.0351e-05
1.0351e-05
1.0351e-05
1.0351e-05
1.0351e-05
1.0351e-05
1.0351e-05
1.0351e-05
1.0351e-05
1.0351e-05
1.0351e-05
1.0351e-05
1.0351e-05
1.0351e-05
1.0351e-05
1.03511e-05
1.03511e-05
1.03511e-05
1.03511e-05
1.03511e-05
1.03511e-05
1.03511e-05
1.03511e-05
1.03511e-05
1.03511e-05
1.03511e-05
1.03511e-05
1.03511e-05
1.03511e-05
1.03511e-05
1.03511e-05
1.03511e-05
1.0351e-05
1.0351e-05
1.0351e-05
1.0351e-05
1.0351e-05
1.0351e-05
1.0351e-05
1.0351e-05
1.0351e-05
1.0351e-05
1.0351e-05
1.0351e-05
1.0351e-05
1.0351e-05
1.0351e-05
1.0351e-05
1.0351e-05
1.0351e-05
1.0351e-05
1.0351e-05
1.0351e-05
1.0351e-05
1.0351e-05
1.0351e-05
1.0351e-05
1.0351e-05
1.0351e-05
1.0351e-05
1.0351e-05
1.0351e-05
1.0351e-05
1.0351e-05
1.0351e-05
1.0351e-05
1.0351e-05
1.0351e-05
1.0351e-05
1.0351e-05
1.0351e-05
1.0351e-05
1.0351e-05
1.0351e-05
1.0351e-05
1.0351e-05
1.0351e-05
1.0351e-05
1.0351e-05
1.0351e-05
1.0351e-05
1.0351e-05
1.0351e-05
1.0351e-05
1.0351e-05
1.0351e-05
1.0351e-05
1.0351e-05
1.0351e-05
1.0351e-05
1.0351e-05
1.0351e-05
1.0351e-05
1.0351e-05
1.0351e-05
1.0351e-05
1.0351e-05
1.0351e-05
1.0351e-05
1.0351e-05
1.0351e-05
1.0351e-05
1.0351e-05
1.0351e-05
1.03511e-05
1.03511e-05
1.03511e-05
1.03511e-05
1.03511e-05
1.03511e-05
1.03511e-05
1.03511e-05
1.03511e-05
1.03511e-05
1.03512e-05
1.03512e-05
1.03512e-05
1.03512e-05
1.03512e-05
1.03512e-05
1.03513e-05
1.03513e-05
1.03513e-05
1.03513e-05
1.03513e-05
1.03514e-05
1.03514e-05
1.03514e-05
1.03514e-05
1.03514e-05
1.03514e-05
1.03514e-05
1.03515e-05
1.03515e-05
1.03515e-05
1.03515e-05
1.03514e-05
1.03514e-05
1.03514e-05
1.03514e-05
1.03514e-05
1.03514e-05
1.03514e-05
1.03513e-05
1.03513e-05
1.03513e-05
1.03513e-05
1.03513e-05
1.03512e-05
1.03512e-05
1.03512e-05
1.03512e-05
1.03511e-05
1.03511e-05
1.03511e-05
1.03511e-05
1.03511e-05
1.03511e-05
1.03511e-05
1.0351e-05
1.0351e-05
1.0351e-05
1.0351e-05
1.0351e-05
1.0351e-05
1.0351e-05
1.0351e-05
1.0351e-05
1.0351e-05
1.0351e-05
1.0351e-05
1.0351e-05
1.0351e-05
1.0351e-05
1.0351e-05
1.0351e-05
1.0351e-05
1.0351e-05
1.0351e-05
1.0351e-05
1.0351e-05
1.0351e-05
1.0351e-05
1.0351e-05
1.0351e-05
1.0351e-05
1.0351e-05
1.0351e-05
1.0351e-05
1.0351e-05
1.0351e-05
1.0351e-05
1.0351e-05
1.0351e-05
1.0351e-05
1.0351e-05
1.0351e-05
1.0351e-05
1.0351e-05
1.0351e-05
1.0351e-05
1.03511e-05
1.03511e-05
1.03511e-05
1.03511e-05
1.03511e-05
1.03511e-05
1.03511e-05
1.03511e-05
1.03511e-05
1.03512e-05
1.03512e-05
1.03512e-05
1.03512e-05
1.03513e-05
1.03513e-05
1.03514e-05
1.03514e-05
1.03515e-05
1.03515e-05
1.03516e-05
1.03516e-05
1.03517e-05
1.03518e-05
1.03519e-05
1.0352e-05
1.03521e-05
1.03522e-05
1.03523e-05
1.03524e-05
1.03525e-05
1.03527e-05
1.03528e-05
1.0353e-05
1.03531e-05
1.03533e-05
1.03535e-05
1.03536e-05
1.03537e-05
1.03539e-05
1.0354e-05
1.03541e-05
1.03542e-05
1.03543e-05
1.03543e-05
1.03544e-05
1.03544e-05
1.03544e-05
1.03544e-05
1.03543e-05
1.03543e-05
1.03542e-05
1.03541e-05
1.0354e-05
1.03539e-05
1.03537e-05
1.03536e-05
1.03534e-05
1.03533e-05
1.03531e-05
1.03529e-05
1.03527e-05
1.03526e-05
1.03524e-05
1.03522e-05
1.03521e-05
1.03519e-05
1.03518e-05
1.03517e-05
1.03516e-05
1.03515e-05
1.03514e-05
1.03513e-05
1.03513e-05
1.03512e-05
1.03512e-05
1.03511e-05
1.03511e-05
1.03511e-05
1.03511e-05
1.0351e-05
1.0351e-05
1.0351e-05
1.0351e-05
1.0351e-05
1.0351e-05
1.0351e-05
1.0351e-05
1.0351e-05
1.0351e-05
1.0351e-05
1.0351e-05
1.0351e-05
1.0351e-05
1.0351e-05
1.0351e-05
1.0351e-05
1.0351e-05
1.0351e-05
1.0351e-05
1.0351e-05
1.0351e-05
1.03511e-05
1.03511e-05
1.03511e-05
1.03511e-05
1.03511e-05
1.03511e-05
1.03511e-05
1.03511e-05
1.03512e-05
1.03512e-05
1.03512e-05
1.03512e-05
1.03513e-05
1.03513e-05
1.03514e-05
1.03514e-05
1.03515e-05
1.03515e-05
1.03516e-05
1.03517e-05
1.03518e-05
1.03519e-05
1.03521e-05
1.03522e-05
1.03524e-05
1.03526e-05
1.03528e-05
1.0353e-05
1.03533e-05
1.03536e-05
1.0354e-05
1.03544e-05
1.03548e-05
1.03553e-05
1.03558e-05
1.03563e-05
1.03569e-05
1.03575e-05
1.03582e-05
1.03589e-05
1.03597e-05
1.03605e-05
1.03614e-05
1.03624e-05
1.03635e-05
1.03646e-05
1.03657e-05
1.03669e-05
1.0368e-05
1.03692e-05
1.03703e-05
1.03713e-05
1.03722e-05
1.03731e-05
1.03739e-05
1.03745e-05
1.03751e-05
1.03755e-05
1.03758e-05
1.03759e-05
1.03759e-05
1.03757e-05
1.03754e-05
1.0375e-05
1.03744e-05
1.03736e-05
1.03728e-05
1.03719e-05
1.03709e-05
1.03698e-05
1.03686e-05
1.03674e-05
1.03662e-05
1.03649e-05
1.03637e-05
1.03624e-05
1.03611e-05
1.03599e-05
1.03587e-05
1.03576e-05
1.03566e-05
1.03557e-05
1.0355e-05
1.03543e-05
1.03538e-05
1.03533e-05
1.03529e-05
1.03525e-05
1.03522e-05
1.0352e-05
1.03517e-05
1.03516e-05
1.03514e-05
1.03513e-05
1.03512e-05
1.03512e-05
1.03511e-05
1.03511e-05
1.03511e-05
1.0351e-05
1.0351e-05
1.0351e-05
1.0351e-05
1.0351e-05
1.0351e-05
1.03511e-05
1.03511e-05
1.03511e-05
1.03511e-05
1.03512e-05
1.03512e-05
1.03512e-05
1.03512e-05
1.03513e-05
1.03513e-05
1.03514e-05
1.03514e-05
1.03515e-05
1.03516e-05
1.03516e-05
1.03517e-05
1.03519e-05
1.0352e-05
1.03521e-05
1.03523e-05
1.03525e-05
1.03527e-05
1.0353e-05
1.03533e-05
1.03536e-05
1.0354e-05
1.03544e-05
1.03549e-05
1.03555e-05
1.03562e-05
1.0357e-05
1.03578e-05
1.03588e-05
1.03598e-05
1.0361e-05
1.03624e-05
1.03639e-05
1.03657e-05
1.03677e-05
1.037e-05
1.03726e-05
1.03754e-05
1.03786e-05
1.0382e-05
1.03856e-05
1.03895e-05
1.03937e-05
1.0398e-05
1.04027e-05
1.04079e-05
1.04135e-05
1.04196e-05
1.04264e-05
1.04336e-05
1.04413e-05
1.04493e-05
1.04575e-05
1.04658e-05
1.0474e-05
1.0482e-05
1.04896e-05
1.04967e-05
1.05032e-05
1.05092e-05
1.05144e-05
1.05188e-05
1.05224e-05
1.05252e-05
1.05269e-05
1.05277e-05
1.05274e-05
1.05262e-05
1.05238e-05
1.05205e-05
1.05163e-05
1.05111e-05
1.05053e-05
1.04987e-05
1.04916e-05
1.04839e-05
1.04758e-05
1.04673e-05
1.04586e-05
1.04497e-05
1.04407e-05
1.04317e-05
1.04227e-05
1.0414e-05
1.04056e-05
1.03977e-05
1.03906e-05
1.03844e-05
1.03791e-05
1.03746e-05
1.03708e-05
1.03675e-05
1.03646e-05
1.0362e-05
1.03597e-05
1.03578e-05
1.03563e-05
1.0355e-05
1.03541e-05
1.03533e-05
1.03528e-05
1.03523e-05
1.0352e-05
1.03517e-05
1.03515e-05
1.03513e-05
1.03512e-05
1.03512e-05
1.03511e-05
1.03511e-05
1.03511e-05
1.0351e-05
1.03512e-05
1.03512e-05
1.03513e-05
1.03513e-05
1.03514e-05
1.03514e-05
1.03515e-05
1.03516e-05
1.03517e-05
1.03518e-05
1.03519e-05
1.03521e-05
1.03522e-05
1.03524e-05
1.03526e-05
1.03529e-05
1.03532e-05
1.03535e-05
1.03539e-05
1.03543e-05
1.03549e-05
1.03555e-05
1.03561e-05
1.03569e-05
1.03579e-05
1.03589e-05
1.03601e-05
1.03614e-05
1.0363e-05
1.03647e-05
1.03668e-05
1.03691e-05
1.03718e-05
1.0375e-05
1.03786e-05
1.03827e-05
1.03875e-05
1.03928e-05
1.03987e-05
1.04053e-05
1.04127e-05
1.04211e-05
1.04306e-05
1.04415e-05
1.04541e-05
1.04684e-05
1.04846e-05
1.05027e-05
1.05227e-05
1.05445e-05
1.0568e-05
1.0593e-05
1.06194e-05
1.06472e-05
1.06766e-05
1.07084e-05
1.07433e-05
1.07818e-05
1.0824e-05
1.08698e-05
1.09186e-05
1.09697e-05
1.10224e-05
1.10756e-05
1.11285e-05
1.118e-05
1.12294e-05
1.12761e-05
1.13194e-05
1.13589e-05
1.13942e-05
1.14251e-05
1.14512e-05
1.14722e-05
1.14876e-05
1.14973e-05
1.15006e-05
1.14983e-05
1.14898e-05
1.14749e-05
1.14538e-05
1.1427e-05
1.13952e-05
1.13588e-05
1.13182e-05
1.12737e-05
1.12258e-05
1.11747e-05
1.11212e-05
1.10656e-05
1.10087e-05
1.09508e-05
1.08923e-05
1.08337e-05
1.0776e-05
1.07201e-05
1.06674e-05
1.06197e-05
1.05783e-05
1.05432e-05
1.05134e-05
1.04878e-05
1.04652e-05
1.04451e-05
1.04272e-05
1.04114e-05
1.03981e-05
1.03873e-05
1.03789e-05
1.03724e-05
1.03673e-05
1.03633e-05
1.03601e-05
1.03576e-05
1.03558e-05
1.03544e-05
1.03534e-05
1.03527e-05
1.03522e-05
1.03518e-05
1.03516e-05
1.03514e-05
1.03512e-05
1.03523e-05
1.03526e-05
1.03528e-05
1.03531e-05
1.03535e-05
1.03539e-05
1.03544e-05
1.03549e-05
1.03556e-05
1.03563e-05
1.03572e-05
1.03582e-05
1.03593e-05
1.03606e-05
1.03621e-05
1.03639e-05
1.03659e-05
1.03681e-05
1.03708e-05
1.03738e-05
1.03773e-05
1.03814e-05
1.03861e-05
1.03915e-05
1.03977e-05
1.04048e-05
1.04129e-05
1.04221e-05
1.04325e-05
1.04444e-05
1.04582e-05
1.04742e-05
1.04927e-05
1.05141e-05
1.05388e-05
1.05668e-05
1.05985e-05
1.06339e-05
1.06731e-05
1.07165e-05
1.07649e-05
1.08194e-05
1.08817e-05
1.0953e-05
1.10342e-05
1.11258e-05
1.1228e-05
1.13403e-05
1.14622e-05
1.15924e-05
1.17298e-05
1.18729e-05
1.20209e-05
1.21736e-05
1.23338e-05
1.25066e-05
1.26956e-05
1.29015e-05
1.31226e-05
1.33559e-05
1.35975e-05
1.38428e-05
1.40873e-05
1.43265e-05
1.45564e-05
1.4774e-05
1.49774e-05
1.51648e-05
1.5335e-05
1.54874e-05
1.56214e-05
1.57367e-05
1.58328e-05
1.59085e-05
1.59621e-05
1.59943e-05
1.60013e-05
1.59891e-05
1.59525e-05
1.58909e-05
1.58055e-05
1.56984e-05
1.55716e-05
1.54262e-05
1.52628e-05
1.50817e-05
1.48832e-05
1.46681e-05
1.44378e-05
1.41942e-05
1.39385e-05
1.36715e-05
1.33941e-05
1.31082e-05
1.28172e-05
1.25263e-05
1.22438e-05
1.1982e-05
1.17513e-05
1.15527e-05
1.13808e-05
1.12288e-05
1.10916e-05
1.09662e-05
1.08519e-05
1.07501e-05
1.06633e-05
1.05929e-05
1.05379e-05
1.04952e-05
1.04616e-05
1.04347e-05
1.04132e-05
1.03964e-05
1.03837e-05
1.03745e-05
1.03677e-05
1.03628e-05
1.03592e-05
1.03567e-05
1.03549e-05
1.03536e-05
1.03527e-05
1.03598e-05
1.03614e-05
1.03631e-05
1.03652e-05
1.03676e-05
1.03703e-05
1.03735e-05
1.03771e-05
1.03814e-05
1.03863e-05
1.0392e-05
1.03986e-05
1.04062e-05
1.04149e-05
1.04249e-05
1.04364e-05
1.04494e-05
1.04643e-05
1.04815e-05
1.05014e-05
1.05245e-05
1.05512e-05
1.05821e-05
1.06174e-05
1.06577e-05
1.07034e-05
1.07548e-05
1.08125e-05
1.08779e-05
1.09525e-05
1.10383e-05
1.11371e-05
1.12505e-05
1.13796e-05
1.15252e-05
1.16876e-05
1.18665e-05
1.20615e-05
1.2272e-05
1.24988e-05
1.27461e-05
1.30208e-05
1.33285e-05
1.36716e-05
1.40496e-05
1.44595e-05
1.48969e-05
1.53563e-05
1.58313e-05
1.63153e-05
1.68024e-05
1.72875e-05
1.77678e-05
1.82457e-05
1.87351e-05
1.9256e-05
1.98113e-05
2.03925e-05
2.0987e-05
2.15833e-05
2.2171e-05
2.27406e-05
2.32831e-05
2.37916e-05
2.42609e-05
2.46892e-05
2.5077e-05
2.54252e-05
2.57341e-05
2.60046e-05
2.62378e-05
2.64348e-05
2.6596e-05
2.67201e-05
2.6801e-05
2.68441e-05
2.68451e-05
2.68145e-05
2.67356e-05
2.66111e-05
2.64444e-05
2.62392e-05
2.59978e-05
2.57202e-05
2.54052e-05
2.50505e-05
2.46544e-05
2.4216e-05
2.37347e-05
2.32113e-05
2.26448e-05
2.20314e-05
2.13669e-05
2.06499e-05
1.98822e-05
1.90718e-05
1.82382e-05
1.74255e-05
1.66793e-05
1.60044e-05
1.53828e-05
1.4795e-05
1.42276e-05
1.36748e-05
1.31394e-05
1.26343e-05
1.21823e-05
1.18033e-05
1.14989e-05
1.12554e-05
1.10567e-05
1.08918e-05
1.0756e-05
1.06484e-05
1.05669e-05
1.05071e-05
1.04631e-05
1.04307e-05
1.04067e-05
1.03894e-05
1.03772e-05
1.03687e-05
1.03629e-05
1.04084e-05
1.04183e-05
1.04298e-05
1.04431e-05
1.04583e-05
1.04758e-05
1.0496e-05
1.05194e-05
1.05463e-05
1.05776e-05
1.06137e-05
1.06553e-05
1.0703e-05
1.07574e-05
1.0819e-05
1.08886e-05
1.09673e-05
1.10568e-05
1.11592e-05
1.12766e-05
1.14108e-05
1.15636e-05
1.17363e-05
1.19299e-05
1.21448e-05
1.23813e-05
1.26394e-05
1.2921e-05
1.32312e-05
1.35771e-05
1.39639e-05
1.43943e-05
1.48683e-05
1.53835e-05
1.59362e-05
1.65212e-05
1.71321e-05
1.77623e-05
1.84068e-05
1.90677e-05
1.97605e-05
2.0505e-05
2.13035e-05
2.21469e-05
2.30215e-05
2.39132e-05
2.48087e-05
2.56954e-05
2.65617e-05
2.73981e-05
2.81986e-05
2.89602e-05
2.96833e-05
3.03768e-05
3.10801e-05
3.18605e-05
3.26847e-05
3.35125e-05
3.43153e-05
3.50762e-05
3.57855e-05
3.64362e-05
3.70231e-05
3.75448e-05
3.80007e-05
3.83959e-05
3.87393e-05
3.90361e-05
3.92885e-05
3.94986e-05
3.96697e-05
3.98044e-05
3.99054e-05
3.99745e-05
3.99902e-05
3.99755e-05
3.99367e-05
3.98648e-05
3.97561e-05
3.95998e-05
3.94055e-05
3.91863e-05
3.89442e-05
3.86712e-05
3.83647e-05
3.80184e-05
3.76293e-05
3.71944e-05
3.67056e-05
3.61607e-05
3.5555e-05
3.48748e-05
3.41016e-05
3.32245e-05
3.22319e-05
3.11194e-05
2.98965e-05
2.86358e-05
2.74741e-05
2.63822e-05
2.53049e-05
2.42017e-05
2.30465e-05
2.18234e-05
2.05317e-05
1.91979e-05
1.78958e-05
1.6722e-05
1.57046e-05
1.48151e-05
1.40157e-05
1.32865e-05
1.26337e-05
1.20819e-05
1.16448e-05
1.13108e-05
1.1056e-05
1.086e-05
1.0711e-05
1.06015e-05
1.05235e-05
1.04687e-05
1.04304e-05
1.04038e-05
1.03857e-05
1.07094e-05
1.07696e-05
1.08386e-05
1.09174e-05
1.1007e-05
1.11087e-05
1.12246e-05
1.13569e-05
1.15079e-05
1.16796e-05
1.18738e-05
1.20918e-05
1.23348e-05
1.26031e-05
1.28973e-05
1.32183e-05
1.35695e-05
1.3957e-05
1.43859e-05
1.48596e-05
1.53788e-05
1.59424e-05
1.65477e-05
1.71906e-05
1.7866e-05
1.85682e-05
1.92927e-05
2.00429e-05
2.08349e-05
2.16815e-05
2.25816e-05
2.35257e-05
2.4502e-05
2.54985e-05
2.6503e-05
2.75039e-05
2.84904e-05
2.94527e-05
3.03863e-05
3.12981e-05
3.22367e-05
3.32593e-05
3.43311e-05
3.54117e-05
3.64698e-05
3.74837e-05
3.84385e-05
3.93245e-05
4.01346e-05
4.08662e-05
4.15225e-05
4.21093e-05
4.26341e-05
4.31019e-05
4.35145e-05
4.38707e-05
4.41775e-05
4.44383e-05
4.46553e-05
4.48333e-05
4.49756e-05
4.50834e-05
4.51572e-05
4.52032e-05
4.52212e-05
4.52174e-05
4.52081e-05
4.5191e-05
4.51665e-05
4.51331e-05
4.50877e-05
4.50314e-05
4.49668e-05
4.48929e-05
4.48058e-05
4.47063e-05
4.45916e-05
4.44646e-05
4.43396e-05
4.4199e-05
4.4047e-05
4.38923e-05
4.3723e-05
4.35471e-05
4.33621e-05
4.31613e-05
4.29541e-05
4.27395e-05
4.25129e-05
4.22768e-05
4.20215e-05
4.17445e-05
4.1439e-05
4.11099e-05
4.0738e-05
4.03249e-05
3.98715e-05
3.93687e-05
3.88004e-05
3.81361e-05
3.73532e-05
3.64365e-05
3.53642e-05
3.4098e-05
3.26035e-05
3.08746e-05
2.89938e-05
2.72249e-05
2.55902e-05
2.40109e-05
2.24114e-05
2.07591e-05
1.90856e-05
1.75076e-05
1.61294e-05
1.49613e-05
1.39635e-05
1.31047e-05
1.23861e-05
1.18196e-05
1.13946e-05
1.10822e-05
1.08539e-05
1.06902e-05
1.05764e-05
1.23293e-05
1.26203e-05
1.29425e-05
1.32963e-05
1.36827e-05
1.4105e-05
1.45681e-05
1.50759e-05
1.56303e-05
1.62309e-05
1.68759e-05
1.75618e-05
1.82841e-05
1.90376e-05
1.98169e-05
2.06214e-05
2.14594e-05
2.23431e-05
2.32736e-05
2.42443e-05
2.52454e-05
2.62668e-05
2.72986e-05
2.83313e-05
2.93559e-05
3.03638e-05
3.135e-05
3.23218e-05
3.33375e-05
3.44205e-05
3.55384e-05
3.66582e-05
3.77541e-05
3.88075e-05
3.98047e-05
4.07359e-05
4.15937e-05
4.23743e-05
4.30802e-05
4.37154e-05
4.42823e-05
4.4781e-05
4.52211e-05
4.56089e-05
4.5949e-05
4.62447e-05
4.6497e-05
4.67084e-05
4.68771e-05
4.70045e-05
4.71045e-05
4.71865e-05
4.72555e-05
4.73146e-05
4.73616e-05
4.73966e-05
4.74241e-05
4.74421e-05
4.7444e-05
4.74393e-05
4.74257e-05
4.73985e-05
4.73573e-05
4.73016e-05
4.72298e-05
4.71451e-05
4.70494e-05
4.69488e-05
4.68528e-05
4.67529e-05
4.66392e-05
4.65251e-05
4.6415e-05
4.62986e-05
4.61779e-05
4.6051e-05
4.59171e-05
4.5785e-05
4.56479e-05
4.54981e-05
4.53578e-05
4.52224e-05
4.50854e-05
4.49431e-05
4.47672e-05
4.45889e-05
4.44262e-05
4.42639e-05
4.4111e-05
4.39343e-05
4.37447e-05
4.35582e-05
4.33788e-05
4.31726e-05
4.29395e-05
4.27177e-05
4.25041e-05
4.23025e-05
4.20643e-05
4.17889e-05
4.14789e-05
4.11457e-05
4.07843e-05
4.03712e-05
3.98871e-05
3.93219e-05
3.8661e-05
3.78951e-05
3.69693e-05
3.58132e-05
3.43654e-05
3.2583e-05
3.04597e-05
2.82088e-05
2.60912e-05
2.41004e-05
2.21527e-05
2.02051e-05
1.83229e-05
1.66431e-05
1.52223e-05
1.40362e-05
1.30527e-05
1.2268e-05
1.16777e-05
1.73765e-05
1.8144e-05
1.89512e-05
1.97922e-05
2.06612e-05
2.15567e-05
2.24855e-05
2.34544e-05
2.44609e-05
2.54971e-05
2.65529e-05
2.76188e-05
2.86859e-05
2.97461e-05
3.0792e-05
3.18177e-05
3.28241e-05
3.38405e-05
3.49094e-05
3.60103e-05
3.71166e-05
3.82056e-05
3.92595e-05
4.02649e-05
4.12126e-05
4.20955e-05
4.29082e-05
4.36491e-05
4.43198e-05
4.49184e-05
4.5449e-05
4.59211e-05
4.63418e-05
4.67163e-05
4.70473e-05
4.73367e-05
4.75865e-05
4.77942e-05
4.79608e-05
4.80974e-05
4.82152e-05
4.83208e-05
4.84151e-05
4.85003e-05
4.85764e-05
4.86447e-05
4.87048e-05
4.87544e-05
4.87931e-05
4.88178e-05
4.88153e-05
4.87995e-05
4.87715e-05