/*--------------------------------*- C++ -*----------------------------------*\
| =========                 |                                                 |
| \\      /  F ield         | OpenFOAM: The Open Source CFD Toolbox           |
|  \\    /   O peration     | Version:  v1706                                 |
|   \\  /    A nd           | Web:      www.OpenFOAM.com                      |
|    \\/     M anipulation  |                                                 |
\*---------------------------------------------------------------------------*/
FoamFile
{
    version     2.0;
    format      ascii;
    class       volScalarField;
    location    "1.2e-05";
    object      Tov;
}
// * * * * * * * * * * * * * * * * * * * * * * * * * * * * * * * * * * * * * //

dimensions      [0 0 0 1 0 0 0];


internalField   nonuniform List<scalar> 
29871
(
144.4
144.4
144.4
144.4
144.4
144.4
144.4
144.4
144.4
144.4
144.4
144.4
144.4
144.4
144.4
144.4
144.4
144.4
144.4
144.4
144.4
144.4
144.4
144.4
144.4
144.4
144.4
144.4
144.4
144.4
144.4
144.4
144.4
144.4
144.4
144.4
144.4
144.4
144.4
144.4
144.4
144.4
144.4
144.4
144.4
144.4
144.4
144.4
144.4
144.4
144.4
144.4
144.4
144.4
144.4
144.4
144.4
144.4
144.4
144.4
144.4
144.4
144.4
144.4
144.4
144.4
144.4
144.4
144.4
144.4
144.4
144.4
144.4
144.4
144.4
144.4
144.4
144.4
144.4
144.4
144.4
144.4
144.4
144.4
144.4
144.4
144.4
144.4
144.4
144.4
144.4
144.4
144.4
144.4
144.4
144.4
144.4
144.4
144.4
144.4
144.4
144.4
144.4
144.4
144.4
144.4
144.4
144.4
144.4
144.4
144.4
144.4
144.4
144.4
144.4
144.4
144.4
144.4
144.4
144.4
144.4
144.4
144.4
144.4
144.4
144.4
144.4
144.4
144.4
144.4
144.4
144.4
144.4
144.4
144.4
144.4
144.4
144.4
144.4
144.4
144.4
144.4
144.4
144.4
144.4
144.4
144.4
144.4
144.4
144.4
144.4
144.4
144.4
144.4
144.4
144.4
144.4
144.4
144.4
144.4
144.4
144.4
144.4
144.4
144.4
144.4
144.4
144.4
144.4
144.4
144.4
144.4
144.4
144.4
144.4
144.4
144.4
144.4
144.4
144.4
144.4
144.4
144.4
144.4
144.4
144.4
144.4
144.4
144.4
144.4
144.4
144.4
144.4
144.4
144.4
144.4
144.4
144.4
144.4
144.4
144.4
144.4
144.4
144.4
144.4
144.4
144.4
144.4
144.4
144.4
144.4
144.4
144.4
144.4
144.4
144.4
144.4
144.4
144.4
144.4
144.4
144.4
144.4
144.4
144.4
144.4
144.4
144.4
144.4
144.4
144.4
144.4
144.4
144.4
144.4
144.4
144.4
144.4
144.4
144.4
144.4
144.4
144.4
144.4
144.4
144.4
144.4
144.4
144.4
144.4
144.4
144.4
144.4
144.4
144.4
144.4
144.4
144.4
144.4
144.4
144.4
144.4
144.4
144.4
144.4
144.4
144.4
144.4
144.4
144.4
144.4
144.4
144.4
144.4
144.4
144.4
144.4
144.4
144.4
144.4
144.4
144.4
144.4
144.4
144.4
144.4
144.4
144.4
144.4
144.4
144.4
144.4
144.4
144.4
144.4
144.4
144.4
144.4
144.4
144.4
144.4
144.4
144.4
144.4
144.4
144.4
144.4
144.4
144.4
144.4
144.4
144.4
144.4
144.4
144.4
144.4
144.4
144.4
144.4
144.4
144.4
144.4
144.4
144.4
144.4
144.4
144.4
144.4
144.4
144.4
144.4
144.4
144.4
144.4
144.4
144.4
144.4
144.4
144.4
144.4
144.4
144.4
144.4
144.4
144.4
144.4
144.4
144.4
144.4
144.4
144.4
144.4
144.4
144.4
144.4
144.4
144.4
144.4
144.4
144.4
144.4
144.4
144.4
144.4
144.4
144.4
144.4
144.4
144.4
144.4
144.4
144.4
144.4
144.4
144.4
144.4
144.4
144.4
144.4
144.4
144.4
144.4
144.4
144.4
144.4
144.4
144.4
144.4
144.4
144.4
144.4
144.4
144.4
144.4
144.4
144.4
144.4
144.4
144.4
144.4
144.4
144.4
144.4
144.4
144.4
144.4
144.4
144.4
144.4
144.4
144.4
144.4
144.4
144.4
144.4
144.4
144.4
144.4
144.4
144.4
144.4
144.4
144.4
144.4
144.4
144.4
144.4
144.4
144.4
144.4
144.4
144.4
144.4
144.4
144.4
144.4
144.4
144.4
144.4
144.4
144.4
144.4
144.4
144.4
144.4
144.4
144.4
144.4
144.4
144.4
144.4
144.4
144.4
144.4
144.4
144.4
144.4
144.4
144.4
144.4
144.4
144.4
144.4
144.4
144.4
144.4
144.4
144.4
144.4
144.4
144.4
144.4
144.4
144.4
144.4
144.4
144.4
144.4
144.4
144.4
144.4
144.4
144.4
144.4
144.4
144.4
144.4
144.4
144.4
144.4
144.4
144.4
144.4
144.4
144.4
144.4
144.4
144.4
144.4
144.4
144.4
144.4
144.4
144.4
144.4
144.4
144.4
144.4
144.4
144.4
144.4
144.4
144.4
144.4
144.4
144.4
144.4
144.4
144.4
144.4
144.4
144.4
144.4
144.4
144.4
144.4
144.4
144.4
144.4
144.4
144.4
144.4
144.4
144.4
144.4
144.4
144.4
144.4
144.4
144.4
144.4
144.4
144.4
144.4
144.4
144.4
144.4
144.4
144.4
144.4
144.4
144.4
144.4
144.4
144.4
144.4
144.4
144.4
144.4
144.4
144.4
144.4
144.4
144.4
144.4
144.4
144.4
144.4
144.4
144.4
144.4
144.4
144.4
144.4
144.4
144.4
144.4
144.4
144.4
144.4
144.4
144.4
144.4
144.4
144.4
144.4
144.4
144.4
144.4
144.4
144.4
144.4
144.4
144.4
144.4
144.4
144.4
144.4
144.4
144.4
144.4
144.4
144.4
144.4
144.4
144.4
144.4
144.4
144.4
144.4
144.4
144.4
144.4
144.4
144.4
144.4
144.4
144.4
144.4
144.4
144.4
144.4
144.4
144.4
144.4
144.4
144.4
144.4
144.4
144.4
144.4
144.4
144.4
144.4
144.4
144.4
144.4
144.4
144.4
144.4
144.4
144.4
144.4
144.4
144.4
144.4
144.4
144.4
144.4
144.4
144.4
144.4
144.4
144.4
144.4
144.4
144.4
144.4
144.4
144.4
144.4
144.4
144.4
144.4
144.4
144.4
144.4
144.4
144.4
144.4
144.4
144.4
144.4
144.4
144.4
144.4
144.4
144.4
144.4
144.4
144.4
144.4
144.4
144.4
144.4
144.4
144.4
144.4
144.4
144.4
144.4
144.4
144.4
144.4
144.4
144.4
144.4
144.4
144.4
144.4
144.4
144.4
144.4
144.4
144.4
144.4
144.4
144.4
144.4
144.4
144.4
144.4
144.4
144.4
144.4
144.4
144.4
144.4
144.4
144.4
144.4
144.4
144.4
144.4
144.4
144.4
144.4
144.4
144.4
144.4
144.4
144.4
144.4
144.4
144.4
144.4
144.4
144.4
144.4
144.4
144.4
144.4
144.4
144.4
144.4
144.4
144.4
144.4
144.4
144.4
144.4
144.4
144.4
144.4
144.4
144.4
144.4
144.4
144.4
144.4
144.4
144.4
144.4
144.4
144.4
144.4
144.4
144.4
144.4
144.4
144.4
144.4
144.4
144.4
144.4
144.4
144.4
144.4
144.4
144.4
144.4
144.4
144.4
144.4
144.4
144.4
144.4
144.4
144.4
144.4
144.4
144.4
144.4
144.4
144.4
144.4
144.4
144.4
144.4
144.4
144.4
144.4
144.4
144.4
144.4
144.4
144.4
144.4
144.4
144.4
144.4
144.4
144.4
144.4
144.4
144.4
144.4
144.4
144.4
144.4
144.4
144.4
144.4
144.4
144.4
144.4
144.4
144.4
144.4
144.4
144.4
144.4
144.4
144.4
144.4
144.4
144.4
144.4
144.4
144.4
144.4
144.4
144.4
144.4
144.4
144.4
144.4
144.4
144.4
144.4
144.4
144.4
144.4
144.4
144.4
144.4
144.4
144.4
144.4
144.4
144.4
144.4
144.4
144.4
144.4
144.4
144.4
144.4
144.4
144.4
144.4
144.4
144.4
144.4
144.4
144.4
144.4
144.4
144.4
144.4
144.4
144.4
144.4
144.4
144.4
144.4
144.4
144.4
144.4
144.4
144.4
144.4
144.4
144.4
144.4
144.4
144.4
144.4
144.4
144.4
144.4
144.4
144.4
144.4
144.4
144.4
144.4
144.4
144.4
144.4
144.4
144.4
144.4
144.4
144.4
144.4
144.4
144.4
144.4
144.4
144.4
144.4
144.4
144.4
144.4
144.4
144.4
144.4
144.4
144.4
144.4
144.4
144.4
144.4
144.4
144.4
144.4
144.4
144.4
144.4
144.4
144.4
144.4
144.4
144.4
144.4
144.4
144.4
144.4
144.4
144.4
144.4
144.4
144.4
144.4
144.4
144.4
144.4
144.4
144.4
144.4
144.4
144.4
144.4
144.4
144.4
144.4
144.4
144.4
144.4
144.4
144.4
144.4
144.4
144.4
144.4
144.4
144.4
144.4
144.4
144.4
144.4
144.4
144.4
144.4
144.4
144.4
144.4
144.4
144.4
144.4
144.4
144.4
144.4
144.4
144.4
144.4
144.4
144.4
144.4
144.4
144.4
144.4
144.4
144.4
144.4
144.4
144.4
144.4
144.4
144.4
144.4
144.4
144.4
144.4
144.4
144.4
144.4
144.4
144.4
144.4
144.4
144.4
144.4
144.4
144.4
144.4
144.4
144.4
144.4
144.4
144.4
144.4
144.4
144.4
144.4
144.4
144.4
144.4
144.4
144.4
144.4
144.4
144.4
144.4
144.4
144.4
144.4
144.4
144.4
144.4
144.4
144.4
144.4
144.4
144.4
144.4
144.4
144.4
144.4
144.4
144.4
144.4
144.4
144.4
144.4
144.4
144.4
144.4
144.4
144.4
144.4
144.4
144.4
144.4
144.4
144.4
144.4
144.4
144.4
144.4
144.4
144.4
144.4
144.4
144.4
144.4
144.4
144.4
144.4
144.4
144.4
144.4
144.4
144.4
144.4
144.4
144.4
144.4
144.4
144.4
144.4
144.4
144.4
144.4
144.4
144.4
144.4
144.4
144.4
144.4
144.4
144.4
144.4
144.4
144.4
144.4
144.4
144.4
144.4
144.4
144.4
144.4
144.4
144.4
144.4
144.4
144.4
144.4
144.4
144.4
144.4
144.4
144.4
144.4
144.4
144.4
144.4
144.4
144.4
144.4
144.4
144.4
144.4
144.4
144.4
144.4
144.4
144.4
144.4
144.4
144.4
144.4
144.4
144.4
144.4
144.4
144.4
144.4
144.4
144.4
144.4
144.4
144.4
144.4
144.4
144.4
144.4
144.4
144.4
144.4
144.4
144.4
144.4
144.4
144.4
144.4
144.4
144.4
144.4
144.4
144.4
144.4
144.4
144.4
144.4
144.4
144.4
144.4
144.4
144.4
144.4
144.4
144.4
144.4
144.4
144.4
144.4
144.4
144.4
144.4
144.4
144.4
144.4
144.4
144.4
144.4
144.4
144.4
144.4
144.4
144.4
144.4
144.4
144.4
144.4
144.4
144.4
144.4
144.4
144.4
144.4
144.4
144.4
144.4
144.4
144.4
144.4
144.4
144.4
144.4
144.4
144.4
144.4
144.4
144.4
144.4
144.4
144.401
144.401
144.401
144.401
144.401
144.401
144.401
144.401
144.401
144.401
144.401
144.401
144.401
144.401
144.401
144.401
144.401
144.401
144.401
144.401
144.401
144.401
144.401
144.401
144.401
144.401
144.401
144.401
144.401
144.401
144.401
144.401
144.4
144.4
144.4
144.4
144.4
144.4
144.4
144.4
144.4
144.4
144.4
144.4
144.4
144.4
144.4
144.4
144.4
144.4
144.4
144.4
144.4
144.4
144.4
144.4
144.4
144.4
144.4
144.4
144.4
144.4
144.4
144.4
144.4
144.4
144.4
144.4
144.4
144.4
144.4
144.4
144.4
144.4
144.4
144.4
144.4
144.4
144.4
144.4
144.4
144.4
144.4
144.4
144.4
144.4
144.4
144.4
144.4
144.4
144.4
144.4
144.401
144.401
144.401
144.401
144.401
144.401
144.401
144.401
144.401
144.402
144.402
144.402
144.402
144.402
144.403
144.403
144.403
144.404
144.404
144.404
144.405
144.405
144.405
144.406
144.406
144.406
144.407
144.407
144.407
144.408
144.408
144.408
144.408
144.408
144.409
144.409
144.409
144.408
144.408
144.408
144.408
144.408
144.407
144.407
144.407
144.406
144.406
144.405
144.405
144.404
144.404
144.404
144.403
144.403
144.402
144.402
144.402
144.401
144.401
144.401
144.401
144.401
144.401
144.4
144.4
144.4
144.4
144.4
144.4
144.4
144.4
144.4
144.4
144.4
144.4
144.4
144.4
144.4
144.4
144.4
144.4
144.4
144.4
144.4
144.4
144.4
144.4
144.4
144.4
144.4
144.4
144.4
144.4
144.4
144.4
144.4
144.4
144.4
144.401
144.401
144.401
144.401
144.401
144.401
144.401
144.401
144.402
144.402
144.402
144.402
144.403
144.403
144.404
144.404
144.405
144.405
144.406
144.407
144.408
144.409
144.41
144.411
144.412
144.414
144.415
144.417
144.418
144.42
144.422
144.424
144.427
144.429
144.432
144.434
144.437
144.44
144.443
144.446
144.449
144.452
144.454
144.457
144.459
144.46
144.462
144.463
144.464
144.464
144.464
144.464
144.463
144.462
144.46
144.459
144.457
144.454
144.452
144.449
144.446
144.443
144.439
144.436
144.433
144.43
144.426
144.423
144.42
144.417
144.415
144.412
144.41
144.409
144.407
144.406
144.405
144.404
144.403
144.403
144.402
144.401
144.401
144.401
144.401
144.4
144.4
144.4
144.4
144.4
144.4
144.4
144.4
144.4
144.4
144.4
144.4
144.4
144.4
144.4
144.4
144.401
144.401
144.401
144.401
144.401
144.401
144.401
144.401
144.402
144.402
144.402
144.403
144.403
144.403
144.404
144.405
144.405
144.406
144.407
144.408
144.409
144.41
144.412
144.414
144.416
144.418
144.42
144.423
144.426
144.43
144.434
144.438
144.444
144.449
144.456
144.463
144.472
144.481
144.49
144.501
144.511
144.523
144.535
144.549
144.563
144.579
144.596
144.615
144.635
144.656
144.677
144.699
144.721
144.742
144.763
144.782
144.8
144.817
144.831
144.844
144.854
144.862
144.867
144.869
144.869
144.866
144.86
144.852
144.841
144.827
144.812
144.794
144.775
144.755
144.733
144.71
144.687
144.663
144.639
144.615
144.591
144.568
144.546
144.525
144.506
144.489
144.475
144.463
144.453
144.444
144.436
144.429
144.423
144.418
144.414
144.411
144.408
144.406
144.405
144.403
144.403
144.402
144.401
144.401
144.401
144.4
144.4
144.4
144.4
144.402
144.402
144.402
144.402
144.403
144.403
144.404
144.404
144.405
144.406
144.407
144.408
144.409
144.41
144.412
144.414
144.416
144.418
144.421
144.424
144.428
144.432
144.437
144.442
144.449
144.456
144.464
144.474
144.485
144.498
144.512
144.528
144.546
144.566
144.589
144.614
144.643
144.677
144.715
144.758
144.806
144.86
144.919
144.984
145.053
145.126
145.204
145.287
145.375
145.472
145.578
145.694
145.821
145.958
146.103
146.255
146.41
146.567
146.722
146.873
147.017
147.152
147.277
147.389
147.488
147.573
147.641
147.693
147.726
147.741
147.736
147.713
147.669
147.606
147.526
147.429
147.318
147.194
147.059
146.914
146.76
146.6
146.434
146.266
146.096
145.926
145.757
145.591
145.432
145.284
145.149
145.032
144.932
144.847
144.775
144.712
144.657
144.608
144.565
144.529
144.499
144.476
144.458
144.444
144.433
144.425
144.418
144.413
144.409
144.407
144.405
144.403
144.402
144.401
144.401
144.401
144.404
144.404
144.405
144.406
144.407
144.408
144.409
144.411
144.413
144.415
144.417
144.42
144.423
144.427
144.431
144.436
144.441
144.447
144.455
144.463
144.473
144.484
144.497
144.512
144.529
144.549
144.571
144.597
144.626
144.659
144.697
144.741
144.792
144.852
144.92
144.998
145.087
145.187
145.299
145.424
145.564
145.721
145.901
146.107
146.344
146.614
146.92
147.263
147.641
148.055
148.501
148.976
149.478
150.006
150.566
151.173
151.838
152.573
153.38
154.256
155.193
156.176
157.19
158.217
159.238
160.235
161.194
162.101
162.943
163.713
164.403
165.006
165.517
165.928
166.231
166.422
166.489
166.445
166.28
165.989
165.578
165.057
164.437
163.728
162.939
162.076
161.146
160.158
159.121
158.05
156.952
155.837
154.713
153.591
152.486
151.416
150.411
149.502
148.713
148.044
147.478
146.991
146.563
146.182
145.842
145.544
145.293
145.088
144.928
144.805
144.708
144.632
144.572
144.526
144.491
144.465
144.446
144.432
144.423
144.416
144.411
144.407
144.405
144.425
144.429
144.434
144.44
144.447
144.455
144.464
144.474
144.486
144.5
144.516
144.535
144.556
144.581
144.61
144.643
144.68
144.723
144.772
144.829
144.895
144.972
145.061
145.163
145.28
145.414
145.567
145.739
145.936
146.161
146.421
146.723
147.074
147.48
147.946
148.477
149.078
149.751
150.498
151.325
152.247
153.289
154.481
155.848
157.409
159.177
161.153
163.334
165.708
168.256
170.955
173.781
176.712
179.752
182.956
186.426
190.24
194.419
198.934
203.728
208.723
213.829
218.95
223.992
228.866
233.507
237.864
241.9
245.582
248.89
251.809
254.328
256.435
258.099
259.28
259.993
260.152
259.893
259.094
257.749
255.886
253.552
250.792
247.638
244.107
240.206
235.948
231.358
226.469
221.325
215.958
210.392
204.649
198.772
192.835
186.946
181.268
176.045
171.47
167.558
164.191
161.232
158.572
156.151
153.954
152.002
150.341
148.998
147.949
147.137
146.498
145.987
145.579
145.26
145.021
144.845
144.717
144.624
144.556
144.508
144.473
144.449
144.433
144.566
144.595
144.628
144.667
144.712
144.764
144.823
144.892
144.972
145.065
145.172
145.297
145.44
145.605
145.794
146.01
146.256
146.538
146.863
147.24
147.677
148.183
148.767
149.439
150.205
151.074
152.054
153.157
154.407
155.839
157.489
159.395
161.589
164.097
166.937
170.12
173.646
177.511
181.708
186.257
191.249
196.834
203.14
210.234
218.121
226.761
236.078
245.968
256.304
266.952
277.78
288.678
299.572
310.515
321.822
333.967
347.048
360.876
375.171
389.654
404.068
418.169
431.719
444.521
456.425
467.36
477.322
486.311
494.325
501.371
507.469
512.634
516.876
520.149
522.291
523.44
523.475
522.684
520.621
517.364
513.002
507.642
501.352
494.144
485.999
476.869
466.725
455.561
443.387
430.244
416.137
401.001
384.77
367.451
349.14
330.072
310.741
292.172
275.379
260.417
246.836
234.176
222.125
210.545
199.485
189.187
180.083
172.536
166.532
161.771
157.913
154.731
152.122
150.062
148.506
147.364
146.529
145.912
145.458
145.129
144.898
144.737
144.625
145.483
145.67
145.886
146.137
146.425
146.756
147.138
147.579
148.091
148.684
149.37
150.161
151.068
152.105
153.282
154.614
156.125
157.847
159.824
162.097
164.707
167.692
171.082
174.902
179.17
183.896
189.092
194.803
201.144
208.275
216.327
225.38
235.458
246.546
258.587
271.493
285.146
299.413
314.188
329.527
345.805
363.518
382.773
403.39
425.069
447.476
470.278
493.145
515.76
537.844
559.204
579.726
599.389
618.401
637.815
659.545
682.707
706.191
729.164
751.12
771.738
790.783
808.069
823.514
837.08
848.883
859.175
868.096
875.705
882.053
887.233
891.319
894.386
896.494
896.988
896.548
895.382
893.218
889.944
885.238
879.386
872.788
865.521
857.343
848.19
837.879
826.332
813.475
799.088
783.129
765.487
745.805
723.596
698.616
670.623
639.6
605.927
571.649
540.52
511.696
483.687
455.445
426.362
396.125
364.825
333.206
303.036
276.466
253.953
234.695
217.738
202.563
189.215
178.108
169.428
162.87
157.913
154.128
151.266
149.169
147.68
146.637
145.908
145.403
145.059
151.191
152.339
153.658
155.168
156.889
158.85
161.092
163.661
166.605
169.97
173.797
178.12
182.969
188.365
194.326
200.886
208.129
216.194
225.215
235.286
246.457
258.735
272.092
286.47
301.782
317.918
334.796
352.505
371.45
391.985
414.129
437.695
462.422
488.019
514.186
540.612
566.99
593.038
618.595
643.82
670.034
698.905
729.515
760.729
791.625
821.534
849.966
876.576
901.096
923.391
943.512
961.6
977.85
992.395
1005.28
1016.43
1026.06
1034.27
1041.12
1046.74
1051.24
1054.66
1057
1058.47
1059.05
1058.93
1058.64
1058.1
1057.33
1056.28
1054.84
1053.07
1051.03
1048.7
1045.96
1042.83
1039.22
1035.22
1031.29
1026.89
1022.11
1017.27
1011.97
1006.47
1000.71
994.46
988.016
981.355
974.336
967.039
959.166
950.643
941.266
931.194
919.853
907.288
893.555
878.387
861.338
841.526
818.331
791.385
760.163
723.731
681.328
633.096
581.598
534.148
491.27
450.784
410.746
370.427
330.697
294.288
263.387
237.911
216.701
198.864
184.24
172.907
164.526
158.434
154.02
150.872
148.693
182.861
188.715
195.251
202.494
210.482
219.304
229.084
239.934
251.928
265.094
279.424
294.876
311.381
328.843
347.163
366.342
386.598
408.261
431.4
455.889
481.512
508.027
535.184
562.73
590.414
617.98
645.269
672.45
701.148
732.095
764.413
797.15
829.541
860.99
891.045
919.355
945.64
969.728
991.645
1011.48
1029.26
1044.98
1058.9
1071.21
1082.03
1091.47
1099.53
1106.31
1111.73
1115.82
1119.04
1121.68
1123.9
1125.8
1127.32
1128.45
1129.33
1129.92
1129.99
1129.84
1129.4
1128.53
1127.21
1125.42
1123.12
1120.41
1117.34
1114.11
1111.03
1107.84
1104.2
1100.55
1097.03
1093.32
1089.47
1085.43
1081.17
1076.97
1072.62
1067.87
1063.41
1059.12
1054.78
1050.3
1044.77
1039.14
1034.01
1028.91
1024.11
1018.59
1012.65
1006.82
1001.22
994.814
987.563
980.67
974.039
967.811
960.475
952.007
942.491
932.286
921.255
908.701
894.044
877.014
857.204
834.401
807.074
773.29
731.517
680.91
621.83
560.597
504.494
453.213
404.493
357.255
313.05
274.877
243.611
218.282
197.835
181.887
170.116
290.686
308.167
326.836
346.588
367.307
388.984
411.801
435.957
461.428
488.036
515.546
543.714
572.298
601.072
629.817
658.341
686.642
715.523
746.23
778.205
810.695
843.014
874.603
905.023
933.946
961.106
986.286
1009.39
1030.42
1049.3
1066.1
1081.11
1094.53
1106.51
1117.13
1126.44
1134.49
1141.2
1146.59
1151.01
1154.83
1158.25
1161.31
1164.08
1166.55
1168.77
1170.72
1172.34
1173.6
1174.41
1174.34
1173.83
1172.92
1171.72
1170.4
1168.94
1167.17
1165.4
1163.67
1161.86
1160
1158.14
1156.32
1154.58
1152.71
1150.69
1148.41
1145.45
1142.21
1139.08
1135.69
1131.87
1128.01
1124.33
1120.46
1116.49
1112.39
1108.11
1104
1099.71
1095.01
1090.72
1086.68
1082.7
1078.56
1073.24
1067.92
1063.19
1058.51
1054.24
1049.11
1043.57
1038.17
1033.16
1027.33
1020.69
1014.51
1008.55
1002.86
996.821
989.572
982.046
974.789
967.486
960.111
952.332
944.336
937.209
929.187
919.094
906.854
892.652
876.175
856.26
832.478
802.962
765.138
716.861
656.883
588.371
522.375
461.936
405.579
352.337
304.272
264.088
560.008
590.923
621.948
652.851
683.449
713.741
744.583
776.709
809.608
842.634
875.193
906.792
937.043
965.664
992.444
1017.23
1039.9
1060.37
1078.59
1094.84
1109.35
1122.33
1133.92
1144.22
1153.29
1161.16
1167.75
1173.14
1177.71
1181.74
1185.41
1188.79
1191.92
1194.83
1197.5
1199.91
1202.04
1203.73
1204.8
1205.13
1205.09
1204.95
1204.66
1204.22
1203.72
1203.2
1202.69
1202.21
1201.84
1201.6
1201.44
1201.09
1200.31
1199.02
1197.44
1195.49
1193.2
1190.91
1188.62
1186.26
1183.82
1181.36
1178.98
1176.73
1174.45
1172.22
1169.95
1167
1163.97
1161.02
1157.6
1153.61
1149.8
1146.12
1142.13
1138.05
1133.92
1129.63
1125.53
1121.29
1116.63
1112.36
1108.44
1104.64
1100.58
1095.35
1090.5
1086.07
1081.65
1077.74
1073.02
1067.87
1062.67
1057.95
1052.67
1046.75
1040.96
1035.12
1029.83
1024.73
1018.5
1012.05
1005.67
999.134
992.589
985.638
978.722
972.201
965.183
957.117
948.225
939.218
930.313
922.639
914.707
904.685
892.38
877.261
858.093
834.692
804.876
765.317
712.733
645.855
571.116
500.073
434.936
374.531
918.807
951.145
981.77
1010.43
1036.98
1061.26
1083.08
1102.42
1119.54
1134.7
1148.15
1160.05
1170.57
1179.8
1187.82
1194.6
1200.14
1204.76
1208.8
1212.44
1215.81
1218.91
1221.79
1224.45
1226.88
1229.02
1230.71
1231.73
1232.2
1232.44
1232.61
1232.64
1232.65
1232.62
1232.63
1232.71
1232.86
1233.25
1233.91
1234.51
1234.48
1234.12
1233.38
1232.38
1231.21
1229.91
1228.56
1227.22
1225.97
1224.87
1223.93
1222.99
1221.86
1220.54
1218.9
1216.75
1214.3
1211.81
1209.25
1206.59
1203.84
1201.06
1198.33
1195.64
1193.05
1190.76
1188.44
1185.7
1183.21
1180.66
1177.49
1173.9
1170.7
1167.3
1163.48
1159.66
1155.78
1151.71
1147.74
1143.66
1139.23
1135.01
1131.18
1127.52
1123.26
1118.24
1113.72
1109.46
1105.08
1101.02
1096.73
1091.68
1086.48
1081.42
1076.25
1070.61
1064.89
1059.04
1053.44
1048.09
1042.4
1036.44
1030.33
1024.12
1018.13
1012.14
1005.98
999.772
993.492
986.561
979.087
971.266
963.506
956.591
949.218
940.968
932.105
923.224
915.096
906.947
897.159
885.067
869.188
848.806
823.031
787.892
738.905
673.19
1181.62
1193.87
1204.57
1213.84
1221.8
1228.42
1233.77
1238.2
1242.06
1245.5
1248.65
1251.5
1254.1
1256.45
1258.52
1260.17
1261.18
1261.61
1261.79
1261.92
1261.98
1261.97
1261.99
1262.01
1262.11
1262.34
1262.84
1263.62
1264.33
1264.4
1264.19
1263.69
1263.01
1262.22
1261.37
1260.49
1259.68
1259.05
1258.7
1258.49
1258.15
1257.55
1256.63
1255.38
1253.93
1252.34
1250.64
1248.91
1247.18
1245.53
1244.06
1242.75
1241.51
1240.4
1239.04
1237.26
1235.29
1233.22
1230.97
1228.53
1225.96
1223.33
1220.64
1217.88
1215.23
1212.79
1210.28
1207.69
1205.48
1203.07
1200.03
1197.02
1194.22
1190.98
1187.36
1183.89
1180.28
1176.34
1172.52
1168.65
1164.44
1160.24
1156.43
1152.77
1148.48
1143.76
1139.47
1135.34
1131.05
1126.76
1122.62
1117.82
1112.58
1107.33
1102.05
1096.59
1091
1085.26
1079.55
1073.97
1068.31
1062.48
1056.45
1050.26
1044.08
1037.88
1031.54
1025.01
1018.32
1011.5
1004.65
997.671
990.642
983.939
977.253
970.118
962.415
954.585
947.273
939.591
931.338
922.845
914.739
907.16
898.704
887.991
873.503
854.794
1283.14
1286.04
1288.62
1290.89
1292.82
1294.28
1295.05
1295.25
1295.26
1295.24
1295.16
1295.04
1294.91
1294.82
1294.84
1295.08
1295.62
1296.24
1296.27
1296.04
1295.52
1294.8
1293.99
1293.16
1292.28
1291.49
1290.9
1290.65
1290.49
1290.23
1289.77
1289.04
1288.08
1286.95
1285.76
1284.52
1283.3
1282.13
1281.17
1280.48
1279.95
1279.43
1278.82
1277.98
1276.91
1275.63
1274.19
1272.62
1270.96
1269.25
1267.57
1265.97
1264.53
1263.25
1261.87
1260.3
1258.67
1256.92
1254.94
1252.76
1250.44
1248.02
1245.48
1242.85
1240.26
1237.72
1235.11
1232.66
1230.47
1228.05
1225.18
1222.67
1220.07
1216.94
1213.65
1210.55
1207.13
1203.3
1199.71
1196.05
1192.02
1187.86
1184.09
1180.38
1176.13
1171.66
1167.56
1163.52
1159.3
1154.84
1150.66
1146.15
1140.79
1135.49
1130.17
1124.7
1119.17
1113.56
1107.88
1102.19
1096.46
1090.62
1084.6
1078.41
1072.1
1065.68
1059.12
1052.38
1045.49
1038.54
1031.56
1024.52
1017.42
1010.34
1003.18
995.876
988.369
980.931
973.946
967.001
959.689
952.091
944.856
937.562
929.748
921.7
914.213
907.309
899.531
1331.49
1331.26
1331.03
1330.89
1331.01
1331.4
1331.7
1331.53
1331.04
1330.28
1329.36
1328.38
1327.36
1326.34
1325.48
1324.9
1324.54
1324.1
1323.54
1322.73
1321.75
1320.61
1319.42
1318.22
1317.04
1315.94
1315.09
1314.53
1314.13
1313.77
1313.35
1312.78
1312.03
1311.12
1310.1
1309
1307.85
1306.71
1305.7
1304.85
1304.11
1303.43
1302.69
1301.81
1300.77
1299.56
1298.19
1296.68
1295.08
1293.4
1291.72
1290.13
1288.64
1287.14
1285.65
1284.2
1282.64
1280.9
1278.99
1276.95
1274.78
1272.46
1270.06
1267.62
1265.13
1262.58
1260.22
1257.94
1255.45
1252.87
1250.6
1248.1
1245.07
1242.2
1239.35
1236.06
1232.37
1229.05
1225.56
1221.62
1217.57
1213.88
1210.11
1205.88
1201.62
1197.64
1193.65
1189.45
1184.93
1180.66
1176.19
1170.78
1165.5
1160.2
1154.72
1149.16
1143.6
1137.96
1132.24
1126.45
1120.56
1114.51
1108.28
1101.9
1095.36
1088.66
1081.78
1074.78
1067.71
1060.58
1053.38
1046.1
1038.73
1031.22
1023.53
1015.73
1008.04
1000.56
993.073
985.418
977.802
970.742
963.847
956.582
949.221
942.439
935.558
928.145
1367.18
1366.09
1364.92
1363.72
1362.66
1361.87
1361.24
1360.54
1359.68
1358.62
1357.43
1356.12
1354.77
1353.44
1352.16
1351.05
1350.24
1349.63
1349.12
1348.59
1347.98
1347.23
1346.36
1345.39
1344.37
1343.32
1342.31
1341.44
1340.75
1340.19
1339.7
1339.21
1338.62
1337.92
1337.09
1336.15
1335.11
1334.01
1332.9
1331.85
1330.89
1330.02
1329.2
1328.35
1327.42
1326.38
1325.19
1323.88
1322.44
1320.9
1319.3
1317.7
1316.13
1314.58
1313.11
1311.69
1310.24
1308.69
1307.03
1305.25
1303.34
1301.28
1299.14
1296.91
1294.56
1292.19
1289.88
1287.55
1285.07
1282.72
1280.5
1278.02
1275.17
1272.63
1269.91
1266.69
1263.24
1260.14
1256.75
1252.86
1248.96
1245.37
1241.55
1237.33
1233.22
1229.32
1225.33
1221.09
1216.53
1212.3
1207.52
1202.17
1196.95
1191.67
1186.2
1180.6
1175
1169.37
1163.64
1157.8
1151.84
1145.75
1139.48
1133.05
1126.45
1119.68
1112.73
1105.66
1098.5
1091.26
1083.93
1076.49
1068.91
1061.15
1053.2
1045.16
1037.18
1029.26
1021.27
1013.17
1005.18
997.474
989.774
981.899
974.274
967.411
960.663
953.574
1394.48
1393.01
1391.53
1390.1
1388.83
1387.84
1387.04
1386.32
1385.58
1384.76
1383.84
1382.82
1381.73
1380.6
1379.47
1378.45
1377.57
1376.86
1376.24
1375.66
1375.05
1374.36
1373.59
1372.74
1371.82
1370.86
1369.91
1369.03
1368.26
1367.59
1366.98
1366.39
1365.75
1365.04
1364.23
1363.32
1362.33
1361.27
1360.2
1359.14
1358.15
1357.21
1356.31
1355.4
1354.44
1353.4
1352.26
1351.01
1349.66
1348.22
1346.73
1345.22
1343.71
1342.27
1340.88
1339.5
1338.08
1336.61
1335.06
1333.39
1331.6
1329.71
1327.7
1325.57
1323.38
1321.16
1318.85
1316.47
1314.22
1311.97
1309.47
1306.85
1304.45
1301.79
1298.62
1295.45
1292.47
1289.12
1285.26
1281.54
1278.01
1274.15
1269.93
1265.95
1262.07
1258.04
1253.72
1249.19
1244.92
1239.77
1234.53
1229.38
1224.1
1218.61
1212.97
1207.33
1201.66
1195.9
1190.01
1184.01
1177.86
1171.56
1165.09
1158.45
1151.64
1144.67
1137.57
1130.35
1123.04
1115.61
1108.05
1100.32
1092.41
1084.32
1076.14
1067.94
1059.72
1051.4
1042.97
1034.59
1026.29
1017.91
1009.48
1001.31
993.516
985.754
978.034
1421.31
1420.14
1418.93
1417.71
1416.57
1415.58
1414.71
1413.94
1413.19
1412.42
1411.59
1410.7
1409.75
1408.75
1407.73
1406.75
1405.87
1405.08
1404.37
1403.72
1403.06
1402.37
1401.63
1400.83
1399.96
1399.06
1398.15
1397.28
1396.48
1395.74
1395.06
1394.39
1393.71
1392.97
1392.17
1391.29
1390.34
1389.33
1388.31
1387.29
1386.31
1385.37
1384.45
1383.54
1382.6
1381.6
1380.53
1379.37
1378.13
1376.81
1375.45
1374.06
1372.7
1371.37
1370.06
1368.74
1367.42
1366.04
1364.58
1363.02
1361.35
1359.56
1357.64
1355.63
1353.52
1351.29
1349.02
1346.79
1344.49
1341.99
1339.53
1337.12
1334.45
1331.33
1328.39
1325.44
1322.09
1318.27
1314.71
1311.17
1307.25
1303.06
1299.16
1295.27
1291.18
1286.76
1282.34
1277.78
1272.47
1267.33
1262.2
1256.89
1251.36
1245.7
1240.01
1234.3
1228.49
1222.56
1216.51
1210.32
1203.99
1197.49
1190.83
1184.01
1177.04
1169.93
1162.69
1155.33
1147.85
1140.21
1132.4
1124.41
1116.26
1108.01
1099.7
1091.3
1082.78
1074.15
1065.48
1056.76
1047.94
1039.09
1030.39
1021.82
1013.26
1004.88
996.977
989.382
1450.14
1449.19
1448.18
1447.13
1446.05
1445
1444.03
1443.14
1442.31
1441.53
1440.74
1439.94
1439.1
1438.21
1437.27
1436.32
1435.39
1434.5
1433.68
1432.92
1432.21
1431.51
1430.79
1430.05
1429.27
1428.44
1427.57
1426.71
1425.86
1425.05
1424.3
1423.58
1422.88
1422.17
1421.43
1420.65
1419.8
1418.91
1417.97
1417.02
1416.07
1415.14
1414.25
1413.38
1412.51
1411.63
1410.7
1409.72
1408.67
1407.56
1406.37
1405.15
1403.92
1402.68
1401.45
1400.23
1399.01
1397.76
1396.45
1395.06
1393.57
1391.95
1390.21
1388.36
1386.36
1384.24
1382.06
1379.83
1377.48
1374.99
1372.55
1370.06
1367.33
1364.28
1361.43
1358.43
1355.04
1351.28
1347.79
1344.19
1340.21
1336.06
1332.17
1328.24
1324.08
1319.59
1315.28
1310.22
1305.03
1299.95
1294.78
1289.42
1283.84
1278.15
1272.43
1266.67
1260.82
1254.86
1248.77
1242.54
1236.18
1229.67
1223.01
1216.2
1209.24
1202.14
1194.91
1187.55
1180.05
1172.39
1164.56
1156.56
1148.41
1140.15
1131.8
1123.33
1114.72
1105.99
1097.15
1088.19
1079.12
1070
1060.91
1051.82
1042.72
1033.77
1025.06
1016.51
1479.21
1478.34
1477.44
1476.51
1475.54
1474.55
1473.57
1472.62
1471.72
1470.86
1470.04
1469.23
1468.42
1467.58
1466.72
1465.82
1464.91
1464.01
1463.13
1462.3
1461.52
1460.77
1460.04
1459.31
1458.56
1457.79
1456.99
1456.16
1455.34
1454.53
1453.74
1453
1452.28
1451.58
1450.89
1450.17
1449.43
1448.64
1447.82
1446.97
1446.11
1445.25
1444.41
1443.6
1442.81
1442.02
1441.22
1440.39
1439.52
1438.58
1437.58
1436.53
1435.44
1434.32
1433.19
1432.05
1430.9
1429.73
1428.52
1427.23
1425.86
1424.37
1422.75
1421
1419.1
1417.06
1414.92
1412.68
1410.29
1407.79
1405.29
1402.68
1399.84
1396.83
1393.93
1390.83
1387.38
1383.65
1380.15
1376.45
1372.41
1368.27
1364.34
1360.34
1356.07
1351.67
1347.11
1341.87
1336.78
1331.7
1326.48
1321.05
1315.42
1309.71
1303.96
1298.16
1292.28
1286.29
1280.17
1273.92
1267.55
1261.04
1254.39
1247.6
1240.67
1233.61
1226.42
1219.09
1211.62
1203.99
1196.2
1188.25
1180.15
1171.94
1163.62
1155.16
1146.55
1137.79
1128.9
1119.85
1110.68
1101.42
1092.1
1082.72
1073.3
1063.94
1054.66
1045.46
1507.4
1506.53
1505.65
1504.75
1503.82
1502.87
1501.93
1501
1500.1
1499.23
1498.38
1497.55
1496.72
1495.88
1495.02
1494.14
1493.26
1492.38
1491.52
1490.7
1489.9
1489.14
1488.4
1487.66
1486.92
1486.17
1485.4
1484.62
1483.85
1483.08
1482.35
1481.64
1480.95
1480.29
1479.63
1478.97
1478.28
1477.57
1476.84
1476.09
1475.33
1474.58
1473.85
1473.14
1472.44
1471.74
1471.03
1470.29
1469.5
1468.66
1467.76
1466.81
1465.8
1464.76
1463.68
1462.59
1461.45
1460.28
1459.04
1457.71
1456.27
1454.71
1453.01
1451.16
1449.15
1447.02
1444.73
1442.29
1439.75
1437.13
1434.38
1431.42
1428.38
1425.33
1422.09
1418.52
1414.81
1411.21
1407.39
1403.29
1399.11
1395.08
1390.97
1386.6
1382.31
1377.3
1372.18
1367.11
1361.98
1356.69
1351.19
1345.53
1339.79
1334.02
1328.2
1322.3
1316.28
1310.15
1303.89
1297.52
1291.02
1284.4
1277.66
1270.78
1263.79
1256.66
1249.39
1241.99
1234.43
1226.73