/*--------------------------------*- C++ -*----------------------------------*\
| =========                 |                                                 |
| \\      /  F ield         | OpenFOAM: The Open Source CFD Toolbox           |
|  \\    /   O peration     | Version:  v1706                                 |
|   \\  /    A nd           | Web:      www.OpenFOAM.com                      |
|    \\/     M anipulation  |                                                 |
\*---------------------------------------------------------------------------*/
FoamFile
{
    version     2.0;
    format      ascii;
    class       volScalarField;
    location    "1.5e-05";
    object      alpha;
}
// * * * * * * * * * * * * * * * * * * * * * * * * * * * * * * * * * * * * * //

dimensions      [1 -1 -1 0 0 0 0];


internalField   nonuniform List<scalar> 
29871
(
1.40501e-05
1.40501e-05
1.40501e-05
1.40502e-05
1.40502e-05
1.40502e-05
1.40502e-05
1.40502e-05
1.40502e-05
1.40502e-05
1.40502e-05
1.40502e-05
1.40502e-05
1.40501e-05
1.40501e-05
1.40501e-05
1.405e-05
1.405e-05
1.40499e-05
1.40499e-05
1.40498e-05
1.40498e-05
1.40497e-05
1.40497e-05
1.40496e-05
1.40496e-05
1.40495e-05
1.40494e-05
1.40494e-05
1.40493e-05
1.40493e-05
1.40492e-05
1.40491e-05
1.40491e-05
1.4049e-05
1.4049e-05
1.40489e-05
1.40489e-05
1.40488e-05
1.40488e-05
1.40488e-05
1.40487e-05
1.40487e-05
1.40486e-05
1.40486e-05
1.40486e-05
1.40486e-05
1.40485e-05
1.40485e-05
1.40485e-05
1.40485e-05
1.40485e-05
1.40485e-05
1.40485e-05
1.40484e-05
1.40484e-05
1.40484e-05
1.40484e-05
1.40484e-05
1.40484e-05
1.40484e-05
1.40484e-05
1.40484e-05
1.40484e-05
1.40484e-05
1.40485e-05
1.40485e-05
1.40485e-05
1.40485e-05
1.40485e-05
1.40485e-05
1.40485e-05
1.40485e-05
1.40485e-05
1.40485e-05
1.40485e-05
1.40485e-05
1.40485e-05
1.40486e-05
1.40486e-05
1.40486e-05
1.40486e-05
1.40486e-05
1.40486e-05
1.40486e-05
1.40486e-05
1.40486e-05
1.40486e-05
1.40487e-05
1.40487e-05
1.40487e-05
1.40487e-05
1.40487e-05
1.40487e-05
1.40487e-05
1.40487e-05
1.40487e-05
1.40488e-05
1.40488e-05
1.40488e-05
1.40488e-05
1.40488e-05
1.40488e-05
1.40488e-05
1.40488e-05
1.40609e-05
1.40611e-05
1.40613e-05
1.40615e-05
1.40616e-05
1.40617e-05
1.40618e-05
1.40618e-05
1.40618e-05
1.40618e-05
1.40618e-05
1.40617e-05
1.40616e-05
1.40615e-05
1.40613e-05
1.40611e-05
1.40609e-05
1.40607e-05
1.40605e-05
1.40602e-05
1.40599e-05
1.40596e-05
1.40593e-05
1.4059e-05
1.40587e-05
1.40583e-05
1.4058e-05
1.40576e-05
1.40573e-05
1.40569e-05
1.40566e-05
1.40563e-05
1.40559e-05
1.40556e-05
1.40553e-05
1.4055e-05
1.40547e-05
1.40544e-05
1.40541e-05
1.40539e-05
1.40536e-05
1.40534e-05
1.40532e-05
1.4053e-05
1.40528e-05
1.40526e-05
1.40525e-05
1.40524e-05
1.40522e-05
1.40521e-05
1.4052e-05
1.4052e-05
1.40519e-05
1.40518e-05
1.40518e-05
1.40518e-05
1.40518e-05
1.40517e-05
1.40518e-05
1.40518e-05
1.40518e-05
1.40518e-05
1.40518e-05
1.40518e-05
1.40519e-05
1.40519e-05
1.4052e-05
1.4052e-05
1.4052e-05
1.40521e-05
1.40521e-05
1.40522e-05
1.40522e-05
1.40523e-05
1.40524e-05
1.40524e-05
1.40525e-05
1.40525e-05
1.40526e-05
1.40527e-05
1.40527e-05
1.40528e-05
1.40528e-05
1.40529e-05
1.4053e-05
1.40531e-05
1.40531e-05
1.40532e-05
1.40533e-05
1.40534e-05
1.40534e-05
1.40535e-05
1.40536e-05
1.40537e-05
1.40538e-05
1.40539e-05
1.40539e-05
1.4054e-05
1.40541e-05
1.40542e-05
1.40543e-05
1.40544e-05
1.40545e-05
1.40546e-05
1.40547e-05
1.40872e-05
1.40879e-05
1.40886e-05
1.40892e-05
1.40897e-05
1.40901e-05
1.40904e-05
1.40907e-05
1.40908e-05
1.40909e-05
1.40908e-05
1.40907e-05
1.40905e-05
1.40902e-05
1.40899e-05
1.40894e-05
1.40889e-05
1.40882e-05
1.40876e-05
1.40868e-05
1.4086e-05
1.40852e-05
1.40843e-05
1.40834e-05
1.40824e-05
1.40814e-05
1.40804e-05
1.40793e-05
1.40783e-05
1.40772e-05
1.40762e-05
1.40751e-05
1.40741e-05
1.40731e-05
1.40721e-05
1.40711e-05
1.40702e-05
1.40693e-05
1.40685e-05
1.40676e-05
1.40668e-05
1.40661e-05
1.40654e-05
1.40648e-05
1.40642e-05
1.40636e-05
1.40631e-05
1.40627e-05
1.40622e-05
1.40619e-05
1.40616e-05
1.40613e-05
1.40611e-05
1.40609e-05
1.40607e-05
1.40606e-05
1.40606e-05
1.40605e-05
1.40605e-05
1.40605e-05
1.40605e-05
1.40606e-05
1.40607e-05
1.40608e-05
1.40609e-05
1.4061e-05
1.40611e-05
1.40613e-05
1.40614e-05
1.40616e-05
1.40618e-05
1.4062e-05
1.40622e-05
1.40623e-05
1.40625e-05
1.40627e-05
1.40629e-05
1.40632e-05
1.40634e-05
1.40636e-05
1.40638e-05
1.4064e-05
1.40643e-05
1.40645e-05
1.40648e-05
1.4065e-05
1.40653e-05
1.40655e-05
1.40658e-05
1.40661e-05
1.40664e-05
1.40666e-05
1.40669e-05
1.40672e-05
1.40675e-05
1.40679e-05
1.40682e-05
1.40685e-05
1.40688e-05
1.40691e-05
1.40695e-05
1.40698e-05
1.40701e-05
1.40705e-05
1.40708e-05
1.40712e-05
1.41508e-05
1.41527e-05
1.41544e-05
1.41559e-05
1.41571e-05
1.41582e-05
1.4159e-05
1.41596e-05
1.41599e-05
1.416e-05
1.416e-05
1.41596e-05
1.41591e-05
1.41583e-05
1.41573e-05
1.41561e-05
1.41548e-05
1.41532e-05
1.41515e-05
1.41495e-05
1.41475e-05
1.41453e-05
1.4143e-05
1.41406e-05
1.41381e-05
1.41356e-05
1.4133e-05
1.41303e-05
1.41276e-05
1.41249e-05
1.41223e-05
1.41196e-05
1.4117e-05
1.41144e-05
1.41118e-05
1.41094e-05
1.4107e-05
1.41047e-05
1.41025e-05
1.41003e-05
1.40983e-05
1.40964e-05
1.40947e-05
1.4093e-05
1.40915e-05
1.40901e-05
1.40888e-05
1.40877e-05
1.40867e-05
1.40858e-05
1.4085e-05
1.40844e-05
1.40838e-05
1.40834e-05
1.40831e-05
1.40828e-05
1.40827e-05
1.40827e-05
1.40827e-05
1.40828e-05
1.40829e-05
1.40831e-05
1.40834e-05
1.40837e-05
1.40841e-05
1.40845e-05
1.40849e-05
1.40854e-05
1.40859e-05
1.40864e-05
1.40869e-05
1.40875e-05
1.4088e-05
1.40886e-05
1.40892e-05
1.40898e-05
1.40904e-05
1.4091e-05
1.40917e-05
1.40923e-05
1.4093e-05
1.40937e-05
1.40944e-05
1.40951e-05
1.40959e-05
1.40966e-05
1.40974e-05
1.40982e-05
1.40991e-05
1.40999e-05
1.41008e-05
1.41017e-05
1.41026e-05
1.41035e-05
1.41045e-05
1.41054e-05
1.41064e-05
1.41074e-05
1.41085e-05
1.41095e-05
1.41105e-05
1.41116e-05
1.41127e-05
1.41138e-05
1.41149e-05
1.4116e-05
1.42925e-05
1.42974e-05
1.43018e-05
1.43057e-05
1.43091e-05
1.4312e-05
1.43143e-05
1.43161e-05
1.43174e-05
1.43181e-05
1.43182e-05
1.43179e-05
1.4317e-05
1.43156e-05
1.43137e-05
1.43112e-05
1.43083e-05
1.43049e-05
1.43011e-05
1.42969e-05
1.42924e-05
1.42875e-05
1.42822e-05
1.42767e-05
1.4271e-05
1.42651e-05
1.4259e-05
1.42528e-05
1.42465e-05
1.42401e-05
1.42338e-05
1.42274e-05
1.42211e-05
1.42149e-05
1.42088e-05
1.42028e-05
1.4197e-05
1.41914e-05
1.4186e-05
1.41809e-05
1.4176e-05
1.41713e-05
1.41669e-05
1.41628e-05
1.4159e-05
1.41555e-05
1.41523e-05
1.41494e-05
1.41468e-05
1.41445e-05
1.41425e-05
1.41408e-05
1.41394e-05
1.41383e-05
1.41374e-05
1.41368e-05
1.41365e-05
1.41364e-05
1.41364e-05
1.41367e-05
1.41371e-05
1.41376e-05
1.41384e-05
1.41392e-05
1.41402e-05
1.41413e-05
1.41424e-05
1.41437e-05
1.4145e-05
1.41464e-05
1.41479e-05
1.41494e-05
1.41509e-05
1.41525e-05
1.41541e-05
1.41558e-05
1.41575e-05
1.41592e-05
1.4161e-05
1.41628e-05
1.41647e-05
1.41666e-05
1.41685e-05
1.41705e-05
1.41726e-05
1.41747e-05
1.41769e-05
1.41791e-05
1.41814e-05
1.41837e-05
1.41861e-05
1.41886e-05
1.41911e-05
1.41937e-05
1.41964e-05
1.41991e-05
1.42019e-05
1.42048e-05
1.42077e-05
1.42107e-05
1.42137e-05
1.42167e-05
1.42198e-05
1.42229e-05
1.42261e-05
1.42293e-05
1.42325e-05
1.46065e-05
1.46165e-05
1.46256e-05
1.46335e-05
1.46403e-05
1.4646e-05
1.46505e-05
1.46539e-05
1.4656e-05
1.46569e-05
1.46567e-05
1.46554e-05
1.4653e-05
1.46495e-05
1.46448e-05
1.46392e-05
1.46325e-05
1.46249e-05
1.46163e-05
1.4607e-05
1.45969e-05
1.4586e-05
1.45746e-05
1.45625e-05
1.455e-05
1.45371e-05
1.45238e-05
1.45103e-05
1.44966e-05
1.44828e-05
1.4469e-05
1.44552e-05
1.44415e-05
1.44279e-05
1.44146e-05
1.44016e-05
1.4389e-05
1.43767e-05
1.43649e-05
1.43536e-05
1.43429e-05
1.43328e-05
1.43233e-05
1.43145e-05
1.43063e-05
1.42988e-05
1.4292e-05
1.4286e-05
1.42806e-05
1.42759e-05
1.4272e-05
1.42687e-05
1.4266e-05
1.4264e-05
1.42626e-05
1.42618e-05
1.42616e-05
1.42618e-05
1.42624e-05
1.42635e-05
1.4265e-05
1.42669e-05
1.42691e-05
1.42716e-05
1.42744e-05
1.42774e-05
1.42807e-05
1.42841e-05
1.42877e-05
1.42914e-05
1.42953e-05
1.42993e-05
1.43033e-05
1.43075e-05
1.43118e-05
1.43161e-05
1.43205e-05
1.4325e-05
1.43296e-05
1.43344e-05
1.43392e-05
1.43441e-05
1.43492e-05
1.43543e-05
1.43597e-05
1.43652e-05
1.43708e-05
1.43766e-05
1.43825e-05
1.43887e-05
1.4395e-05
1.44015e-05
1.44082e-05
1.4415e-05
1.44221e-05
1.44293e-05
1.44367e-05
1.44443e-05
1.4452e-05
1.44599e-05
1.4468e-05
1.44762e-05
1.44845e-05
1.44929e-05
1.45015e-05
1.45102e-05
1.4519e-05
1.51658e-05
1.51899e-05
1.52122e-05
1.52327e-05
1.52511e-05
1.52674e-05
1.52816e-05
1.52936e-05
1.53032e-05
1.53106e-05
1.53157e-05
1.53184e-05
1.53186e-05
1.53171e-05
1.53133e-05
1.53076e-05
1.52996e-05
1.52895e-05
1.52775e-05
1.52636e-05
1.52479e-05
1.52305e-05
1.52115e-05
1.51911e-05
1.51694e-05
1.51464e-05
1.51225e-05
1.50976e-05
1.50719e-05
1.50456e-05
1.50189e-05
1.49918e-05
1.49645e-05
1.49371e-05
1.49098e-05
1.48828e-05
1.48561e-05
1.48298e-05
1.48042e-05
1.47793e-05
1.47552e-05
1.4732e-05
1.47098e-05
1.46887e-05
1.46688e-05
1.46501e-05
1.46328e-05
1.46168e-05
1.46023e-05
1.45892e-05
1.45776e-05
1.45675e-05
1.45589e-05
1.45517e-05
1.45461e-05
1.45418e-05
1.4539e-05
1.45374e-05
1.45373e-05
1.4538e-05
1.45396e-05
1.45424e-05
1.45461e-05
1.45506e-05
1.4556e-05
1.4562e-05
1.45687e-05
1.4576e-05
1.45837e-05
1.45919e-05
1.46004e-05
1.46093e-05
1.46185e-05
1.46279e-05
1.46375e-05
1.46474e-05
1.46575e-05
1.46677e-05
1.46782e-05
1.46888e-05
1.46997e-05
1.47108e-05
1.47221e-05
1.47337e-05
1.47455e-05
1.47576e-05
1.477e-05
1.47828e-05
1.47958e-05
1.48093e-05
1.48231e-05
1.48373e-05
1.48519e-05
1.48669e-05
1.48824e-05
1.48983e-05
1.49146e-05
1.49314e-05
1.49485e-05
1.49661e-05
1.49841e-05
1.50025e-05
1.50213e-05
1.50404e-05
1.50599e-05
1.50796e-05
1.50996e-05
1.51199e-05
1.51403e-05
1.5161e-05
1.62137e-05
1.62494e-05
1.62818e-05
1.63108e-05
1.63364e-05
1.63584e-05
1.63768e-05
1.63916e-05
1.64026e-05
1.64101e-05
1.64141e-05
1.64142e-05
1.64115e-05
1.64053e-05
1.63959e-05
1.63834e-05
1.63678e-05
1.63491e-05
1.63275e-05
1.63031e-05
1.62761e-05
1.62466e-05
1.62147e-05
1.61807e-05
1.61446e-05
1.61068e-05
1.60673e-05
1.60264e-05
1.59841e-05
1.59408e-05
1.58965e-05
1.58515e-05
1.5806e-05
1.57603e-05
1.57144e-05
1.56686e-05
1.56232e-05
1.55785e-05
1.55345e-05
1.54916e-05
1.54501e-05
1.54101e-05
1.53718e-05
1.53355e-05
1.53013e-05
1.52695e-05
1.52401e-05
1.52132e-05
1.5189e-05
1.51675e-05
1.51487e-05
1.51327e-05
1.51195e-05
1.51091e-05
1.51014e-05
1.50964e-05
1.50942e-05
1.50946e-05
1.50966e-05
1.51008e-05
1.51072e-05
1.51155e-05
1.51256e-05
1.51373e-05
1.51505e-05
1.5165e-05
1.51807e-05
1.51973e-05
1.52149e-05
1.52332e-05
1.52521e-05
1.52716e-05
1.52916e-05
1.53119e-05
1.53326e-05
1.53535e-05
1.53748e-05
1.53963e-05
1.5418e-05
1.54401e-05
1.54624e-05
1.5485e-05
1.5508e-05
1.55314e-05
1.55552e-05
1.55795e-05
1.56043e-05
1.56296e-05
1.56556e-05
1.56821e-05
1.57093e-05
1.57372e-05
1.57659e-05
1.57952e-05
1.58253e-05
1.58562e-05
1.58878e-05
1.59201e-05
1.59532e-05
1.59871e-05
1.60217e-05
1.60569e-05
1.60928e-05
1.61294e-05
1.61665e-05
1.62042e-05
1.62423e-05
1.62807e-05
1.63195e-05
1.63585e-05
1.76531e-05
1.76885e-05
1.77194e-05
1.7746e-05
1.77685e-05
1.77866e-05
1.78005e-05
1.78102e-05
1.78152e-05
1.78153e-05
1.78125e-05
1.78055e-05
1.77947e-05
1.77806e-05
1.77637e-05
1.77424e-05
1.77176e-05
1.76896e-05
1.76584e-05
1.76243e-05
1.75873e-05
1.75474e-05
1.7505e-05
1.74601e-05
1.74129e-05
1.73637e-05
1.73125e-05
1.72597e-05
1.72054e-05
1.71498e-05
1.70932e-05
1.70355e-05
1.69771e-05
1.69181e-05
1.68588e-05
1.67995e-05
1.67404e-05
1.6682e-05
1.66243e-05
1.65678e-05
1.65126e-05
1.64592e-05
1.64078e-05
1.63589e-05
1.63126e-05
1.62694e-05
1.62297e-05
1.61937e-05
1.61617e-05
1.61339e-05
1.61104e-05
1.60913e-05
1.60767e-05
1.60664e-05
1.60606e-05
1.60602e-05
1.60626e-05
1.60682e-05
1.60778e-05
1.60907e-05
1.61067e-05
1.61256e-05
1.6147e-05
1.61708e-05
1.61966e-05
1.62242e-05
1.62534e-05
1.62839e-05
1.63154e-05
1.63479e-05
1.63811e-05
1.64149e-05
1.64491e-05
1.64835e-05
1.65182e-05
1.6553e-05
1.65879e-05
1.66231e-05
1.66584e-05
1.6694e-05
1.67298e-05
1.67659e-05
1.68023e-05
1.68391e-05
1.68763e-05
1.69139e-05
1.6952e-05
1.69906e-05
1.70298e-05
1.70696e-05
1.711e-05
1.71511e-05
1.71928e-05
1.72352e-05
1.72782e-05
1.73219e-05
1.73662e-05
1.74112e-05
1.74567e-05
1.75027e-05
1.75492e-05
1.75962e-05
1.76435e-05
1.76911e-05
1.77389e-05
1.77869e-05
1.78351e-05
1.78833e-05
1.79313e-05
1.79787e-05
1.90464e-05
1.90555e-05
1.90597e-05
1.90596e-05
1.9057e-05
1.9051e-05
1.90418e-05
1.90295e-05
1.90147e-05
1.89975e-05
1.89783e-05
1.89583e-05
1.89353e-05
1.8909e-05
1.8882e-05
1.88534e-05
1.8823e-05
1.8791e-05
1.87577e-05
1.8723e-05
1.8687e-05
1.86496e-05
1.86109e-05
1.85709e-05
1.85294e-05
1.84867e-05
1.84427e-05
1.83976e-05
1.83509e-05
1.83026e-05
1.82529e-05
1.8202e-05
1.81501e-05
1.80971e-05
1.80434e-05
1.79892e-05
1.79348e-05
1.78807e-05
1.78272e-05
1.77749e-05
1.77243e-05
1.76757e-05
1.76294e-05
1.75858e-05
1.75453e-05
1.75084e-05
1.74752e-05
1.7446e-05
1.7421e-05
1.74002e-05
1.73841e-05
1.73727e-05
1.73664e-05
1.73659e-05
1.73692e-05
1.73774e-05
1.73894e-05
1.74064e-05
1.74273e-05
1.74517e-05
1.74793e-05
1.75098e-05
1.75426e-05
1.75774e-05
1.7614e-05
1.76519e-05
1.76909e-05
1.77307e-05
1.77711e-05
1.78118e-05
1.78528e-05
1.78938e-05
1.79348e-05
1.79756e-05
1.80161e-05
1.80559e-05
1.8095e-05
1.81334e-05
1.8171e-05
1.82078e-05
1.82439e-05
1.82792e-05
1.83138e-05
1.83479e-05
1.83813e-05
1.84143e-05
1.84468e-05
1.84789e-05
1.85105e-05
1.85417e-05
1.85725e-05
1.86029e-05
1.86328e-05
1.86624e-05
1.86915e-05
1.87201e-05
1.87483e-05
1.87761e-05
1.88034e-05
1.88303e-05
1.88566e-05
1.88825e-05
1.89079e-05
1.89328e-05
1.8957e-05
1.89808e-05
1.90038e-05
1.90263e-05
1.90481e-05
1.90694e-05
1.96934e-05
1.96722e-05
1.96497e-05
1.96262e-05
1.96023e-05
1.95779e-05
1.95527e-05
1.95284e-05
1.95013e-05
1.94719e-05
1.94437e-05
1.94162e-05
1.93868e-05
1.93564e-05
1.93265e-05
1.92965e-05
1.92658e-05
1.92348e-05
1.92035e-05
1.91723e-05
1.91417e-05
1.91112e-05
1.90804e-05
1.90498e-05
1.902e-05
1.89904e-05
1.89607e-05
1.89313e-05
1.89027e-05
1.88751e-05
1.8848e-05
1.88209e-05
1.87938e-05
1.87672e-05
1.8741e-05
1.87153e-05
1.86902e-05
1.86657e-05
1.86418e-05
1.86188e-05
1.85964e-05
1.85749e-05
1.8555e-05
1.85369e-05
1.8521e-05
1.8508e-05
1.84985e-05
1.84928e-05
1.84915e-05
1.84933e-05
1.84993e-05
1.85091e-05
1.85218e-05
1.85375e-05
1.85582e-05
1.85807e-05
1.86043e-05
1.86304e-05
1.86586e-05
1.86879e-05
1.87173e-05
1.87468e-05
1.87763e-05
1.88054e-05
1.88338e-05
1.88616e-05
1.88887e-05
1.89147e-05
1.89396e-05
1.89634e-05
1.89861e-05
1.90076e-05
1.90277e-05
1.90465e-05
1.90641e-05
1.90806e-05
1.90962e-05
1.91109e-05
1.9125e-05
1.91385e-05
1.91515e-05
1.9164e-05
1.91762e-05
1.91879e-05
1.91993e-05
1.92103e-05
1.9221e-05
1.92314e-05
1.92415e-05
1.92514e-05
1.9261e-05
1.92704e-05
1.92796e-05
1.92887e-05
1.92975e-05
1.93062e-05
1.93147e-05
1.93231e-05
1.93313e-05
1.93393e-05
1.93472e-05
1.93548e-05
1.93623e-05
1.93696e-05
1.93768e-05
1.93839e-05
1.93908e-05
1.93975e-05
1.94042e-05
1.94108e-05
1.99586e-05
1.99302e-05
1.98974e-05
1.98665e-05
1.98371e-05
1.98059e-05
1.97741e-05
1.9744e-05
1.97145e-05
1.96828e-05
1.96502e-05
1.96189e-05
1.95877e-05
1.95558e-05
1.95237e-05
1.94927e-05
1.94623e-05
1.94316e-05
1.94008e-05
1.93706e-05
1.9342e-05
1.93137e-05
1.92854e-05
1.92583e-05
1.9232e-05
1.92059e-05
1.91805e-05
1.91563e-05
1.91328e-05
1.91099e-05
1.90882e-05
1.90674e-05
1.9048e-05
1.90294e-05
1.90121e-05
1.89962e-05
1.8982e-05
1.89697e-05
1.89597e-05
1.8952e-05
1.89466e-05
1.89436e-05
1.89435e-05
1.8945e-05
1.89483e-05
1.89538e-05
1.89615e-05
1.89715e-05
1.8984e-05
1.89986e-05
1.90145e-05
1.90323e-05
1.90523e-05
1.90724e-05
1.90944e-05
1.9119e-05
1.91436e-05
1.91673e-05
1.91912e-05
1.92148e-05
1.92377e-05
1.92597e-05
1.92804e-05
1.92993e-05
1.93169e-05
1.93334e-05
1.93483e-05
1.93618e-05
1.93742e-05
1.93854e-05
1.93953e-05
1.9404e-05
1.94116e-05
1.94184e-05
1.94245e-05
1.94301e-05
1.94352e-05
1.94398e-05
1.9444e-05
1.94477e-05
1.94511e-05
1.94541e-05
1.94569e-05
1.94593e-05
1.94615e-05
1.94635e-05
1.94654e-05
1.94671e-05
1.94688e-05
1.94703e-05
1.94718e-05
1.94732e-05
1.94745e-05
1.94758e-05
1.94771e-05
1.94784e-05
1.94796e-05
1.94808e-05
1.94821e-05
1.94834e-05
1.94847e-05
1.94862e-05
1.94877e-05
1.94894e-05
1.94913e-05
1.94933e-05
1.94955e-05
1.9498e-05
1.95006e-05
1.95035e-05
1.95066e-05
2.00467e-05
2.00136e-05
1.99796e-05
1.99458e-05
1.99124e-05
1.98785e-05
1.98446e-05
1.98125e-05
1.97804e-05
1.97473e-05
1.97141e-05
1.96819e-05
1.96498e-05
1.96173e-05
1.95848e-05
1.95536e-05
1.95231e-05
1.94921e-05
1.94612e-05
1.94321e-05
1.94035e-05
1.93746e-05
1.9348e-05
1.93227e-05
1.92969e-05
1.92728e-05
1.92513e-05
1.92299e-05
1.92082e-05
1.91891e-05
1.9172e-05
1.91568e-05
1.91412e-05
1.91259e-05
1.91136e-05
1.91037e-05
1.90951e-05
1.90883e-05
1.90835e-05
1.90805e-05
1.90802e-05
1.90815e-05
1.90849e-05
1.90906e-05
1.90987e-05
1.911e-05
1.91238e-05
1.914e-05
1.91584e-05
1.91785e-05
1.91997e-05
1.92218e-05
1.9245e-05
1.92675e-05
1.92908e-05
1.93146e-05
1.9336e-05
1.93576e-05
1.93787e-05
1.93979e-05
1.94166e-05
1.94335e-05
1.94479e-05
1.9462e-05
1.94757e-05
1.94868e-05
1.94967e-05
1.95059e-05
1.95139e-05
1.95208e-05
1.95267e-05
1.95318e-05
1.95361e-05
1.95395e-05
1.95422e-05
1.95444e-05
1.95459e-05
1.9547e-05
1.95477e-05
1.9548e-05
1.9548e-05
1.95479e-05
1.95477e-05
1.95472e-05
1.95466e-05
1.9546e-05
1.95453e-05
1.95446e-05
1.95438e-05
1.95431e-05
1.95423e-05
1.95415e-05
1.95408e-05
1.95401e-05
1.95395e-05
1.95389e-05
1.95384e-05
1.9538e-05
1.95377e-05
1.95375e-05
1.95376e-05
1.95377e-05
1.9538e-05
1.95385e-05
1.95392e-05
1.95401e-05
1.95412e-05
1.95425e-05
1.9544e-05
1.95457e-05
1.95475e-05
1.95495e-05
1.95517e-05
2.01041e-05
2.007e-05
2.00354e-05
2.00008e-05
1.99662e-05
1.9931e-05
1.9896e-05
1.98628e-05
1.98293e-05
1.97951e-05
1.97615e-05
1.97289e-05
1.96963e-05
1.96637e-05
1.96312e-05
1.96001e-05
1.95698e-05
1.95386e-05
1.95081e-05
1.94801e-05
1.94518e-05
1.94229e-05
1.93975e-05
1.9373e-05
1.93476e-05
1.93245e-05
1.93036e-05
1.92822e-05
1.92607e-05
1.92419e-05
1.92244e-05
1.9209e-05
1.91937e-05
1.91794e-05
1.91673e-05
1.91577e-05
1.91507e-05
1.91458e-05
1.91435e-05
1.91437e-05
1.91457e-05
1.915e-05
1.91564e-05
1.91647e-05
1.91747e-05
1.91869e-05
1.9201e-05
1.92169e-05
1.92343e-05
1.92526e-05
1.92722e-05
1.92931e-05
1.93141e-05
1.93347e-05
1.93565e-05
1.9378e-05
1.93986e-05
1.94195e-05
1.94379e-05
1.94546e-05
1.94717e-05
1.94874e-05
1.95006e-05
1.95135e-05
1.95257e-05
1.95361e-05
1.9545e-05
1.95537e-05
1.95612e-05
1.95675e-05
1.95728e-05
1.95775e-05
1.95814e-05
1.95844e-05
1.95864e-05
1.95877e-05
1.9589e-05
1.95898e-05
1.95899e-05
1.95898e-05
1.95895e-05
1.95889e-05
1.9588e-05
1.9587e-05
1.95857e-05
1.95844e-05
1.95829e-05
1.95814e-05
1.95799e-05
1.95784e-05
1.95769e-05
1.95754e-05
1.95739e-05
1.95725e-05
1.95712e-05
1.95701e-05
1.9569e-05
1.9568e-05
1.95673e-05
1.95667e-05
1.95662e-05
1.9566e-05
1.95659e-05
1.95661e-05
1.95664e-05
1.9567e-05
1.95677e-05
1.95688e-05
1.957e-05
1.95714e-05
1.95729e-05
1.95747e-05
1.95767e-05
2.02174e-05
2.01822e-05
2.01472e-05
2.01119e-05
2.00766e-05
2.00415e-05
2.00061e-05
1.99701e-05
1.9935e-05
1.99014e-05
1.98672e-05
1.98327e-05
1.97993e-05
1.97665e-05
1.97341e-05
1.97019e-05
1.96697e-05
1.96392e-05
1.96092e-05
1.9578e-05
1.95488e-05
1.95217e-05
1.94935e-05
1.94656e-05
1.94412e-05
1.94169e-05
1.93924e-05
1.93706e-05
1.93505e-05
1.93292e-05
1.93086e-05
1.92907e-05
1.92735e-05
1.9258e-05
1.92437e-05
1.92302e-05
1.92184e-05
1.92091e-05
1.92021e-05
1.91974e-05
1.91951e-05
1.91953e-05
1.91968e-05
1.92004e-05
1.9206e-05
1.92135e-05
1.92229e-05
1.92344e-05
1.92479e-05
1.92631e-05
1.92796e-05
1.92969e-05
1.93151e-05
1.93337e-05
1.93517e-05
1.93702e-05
1.93899e-05
1.94075e-05
1.94245e-05
1.94431e-05
1.94603e-05
1.9475e-05
1.94902e-05
1.95051e-05
1.95183e-05
1.95307e-05
1.95424e-05
1.95531e-05
1.95627e-05
1.95714e-05
1.95793e-05
1.95864e-05
1.95928e-05
1.95981e-05
1.96024e-05
1.96059e-05
1.96086e-05
1.96108e-05
1.96126e-05
1.96138e-05
1.96144e-05
1.96144e-05
1.96143e-05
1.96138e-05
1.96131e-05
1.96121e-05
1.96108e-05
1.96094e-05
1.96079e-05
1.96064e-05
1.96048e-05
1.96032e-05
1.96016e-05
1.96001e-05
1.95986e-05
1.95972e-05
1.9596e-05
1.95948e-05
1.95938e-05
1.9593e-05
1.95924e-05
1.95919e-05
1.95917e-05
1.95917e-05
1.95918e-05
1.95921e-05
1.95926e-05
1.95934e-05
1.95943e-05
1.95954e-05
1.95967e-05
1.95982e-05
1.95997e-05
1.96015e-05
1.96034e-05
2.02572e-05
2.02215e-05
2.01859e-05
2.01502e-05
2.01147e-05
2.00795e-05
2.00439e-05
2.00079e-05
1.99734e-05
1.99396e-05
1.9905e-05
1.98711e-05
1.98381e-05
1.98051e-05
1.97733e-05
1.97418e-05
1.97101e-05
1.96804e-05
1.96507e-05
1.962e-05
1.95922e-05
1.95655e-05
1.95374e-05
1.95111e-05
1.94875e-05
1.9463e-05
1.94396e-05
1.94182e-05
1.93986e-05
1.93771e-05
1.93577e-05
1.934e-05
1.93232e-05
1.93082e-05
1.92947e-05
1.92825e-05
1.92717e-05
1.92627e-05
1.92558e-05
1.92509e-05
1.92482e-05
1.9248e-05
1.9249e-05
1.92518e-05
1.92563e-05
1.92626e-05
1.92705e-05
1.92801e-05
1.92913e-05
1.93039e-05
1.93177e-05
1.93323e-05
1.93477e-05
1.93633e-05
1.93792e-05
1.93955e-05
1.94121e-05
1.94281e-05
1.9444e-05
1.94612e-05
1.94764e-05
1.94898e-05
1.95033e-05
1.95169e-05
1.95298e-05
1.9542e-05
1.95536e-05
1.95645e-05
1.95748e-05
1.95844e-05
1.95928e-05
1.96006e-05
1.96082e-05
1.96148e-05
1.962e-05
1.96243e-05
1.96282e-05
1.96313e-05
1.96339e-05
1.96359e-05
1.96372e-05
1.9638e-05
1.96383e-05
1.96383e-05
1.9638e-05
1.96374e-05
1.96365e-05
1.96353e-05
1.96341e-05
1.96327e-05
1.96313e-05
1.96299e-05
1.96285e-05
1.96271e-05
1.96259e-05
1.96247e-05
1.96237e-05
1.96228e-05
1.96221e-05
1.96216e-05
1.96213e-05
1.96212e-05
1.96212e-05
1.96215e-05
1.96219e-05
1.96226e-05
1.96234e-05
1.96245e-05
1.96257e-05
1.9627e-05
1.96286e-05
1.96302e-05
1.9632e-05
1.96339e-05
1.9636e-05
1.96382e-05
2.05548e-05
2.05181e-05
2.04814e-05
2.04447e-05
2.04082e-05
2.03718e-05
2.03355e-05
2.02994e-05
2.02636e-05
2.02278e-05
2.01921e-05
2.01569e-05
2.01218e-05
2.00862e-05
2.00508e-05
2.0017e-05
1.9983e-05
1.99486e-05
1.99155e-05
1.98827e-05
1.98498e-05
1.98191e-05
1.97883e-05
1.97572e-05
1.97282e-05
1.96987e-05
1.96692e-05
1.96424e-05
1.96158e-05
1.95884e-05
1.95636e-05
1.95406e-05
1.9516e-05
1.94931e-05
1.94719e-05
1.94518e-05
1.94315e-05
1.94127e-05
1.93951e-05
1.93789e-05
1.93644e-05
1.93514e-05
1.93397e-05
1.93294e-05
1.93209e-05
1.93141e-05
1.93091e-05
1.93058e-05
1.93047e-05
1.93051e-05
1.93068e-05
1.93101e-05
1.93148e-05
1.9321e-05
1.93285e-05
1.93374e-05
1.93474e-05
1.93585e-05
1.93704e-05
1.93828e-05
1.93956e-05
1.94087e-05
1.94223e-05
1.94361e-05
1.94495e-05
1.94636e-05
1.94791e-05
1.94922e-05
1.95042e-05
1.95174e-05
1.95305e-05
1.9543e-05
1.9555e-05
1.95666e-05
1.95778e-05
1.95886e-05
1.95991e-05
1.96083e-05
1.9617e-05
1.96254e-05
1.96331e-05
1.96393e-05
1.96446e-05
1.96496e-05
1.9654e-05
1.96576e-05
1.96606e-05
1.96628e-05
1.96645e-05
1.96656e-05
1.96663e-05
1.96666e-05
1.96665e-05
1.96662e-05
1.96656e-05
1.96649e-05
1.96639e-05
1.96629e-05
1.96619e-05
1.96609e-05
1.96599e-05
1.9659e-05
1.96583e-05
1.96577e-05
1.96572e-05
1.9657e-05
1.9657e-05
1.96571e-05
1.96574e-05
1.96579e-05
1.96586e-05
1.96595e-05
1.96606e-05
1.96618e-05
1.96632e-05
1.96647e-05
1.96664e-05
1.96682e-05
1.96702e-05
1.96723e-05
1.96745e-05
1.96769e-05
1.96794e-05
2.06019e-05
2.05651e-05
2.05284e-05
2.04918e-05
2.04554e-05
2.04191e-05
2.03829e-05
2.0347e-05
2.03114e-05
2.02758e-05
2.02404e-05
2.02055e-05
2.01707e-05
2.01354e-05
2.0101e-05
2.00677e-05
2.00336e-05
2.00001e-05
1.9968e-05
1.99352e-05
1.99027e-05
1.98733e-05
1.98431e-05
1.98127e-05
1.97843e-05
1.97552e-05
1.97271e-05
1.97013e-05
1.96744e-05
1.96486e-05
1.96248e-05
1.96022e-05
1.95776e-05
1.95548e-05
1.95338e-05
1.95137e-05
1.94943e-05
1.94759e-05
1.94588e-05
1.94431e-05
1.94288e-05
1.94159e-05
1.94044e-05
1.93942e-05
1.93856e-05
1.93787e-05
1.93734e-05
1.93695e-05
1.93673e-05
1.93668e-05
1.93674e-05
1.93692e-05
1.93722e-05
1.93765e-05
1.93819e-05
1.93884e-05
1.9396e-05
1.94044e-05
1.94136e-05
1.94232e-05
1.94333e-05
1.94438e-05
1.94548e-05
1.94659e-05
1.94771e-05
1.94891e-05
1.95023e-05
1.95141e-05
1.95248e-05
1.95369e-05
1.95496e-05
1.95615e-05
1.95731e-05
1.95846e-05
1.95959e-05
1.96072e-05
1.96183e-05
1.96284e-05
1.9638e-05
1.96474e-05
1.96561e-05
1.96632e-05
1.96697e-05
1.96759e-05
1.96815e-05
1.96865e-05
1.96906e-05
1.96941e-05
1.96969e-05
1.96991e-05
1.97008e-05
1.9702e-05
1.97028e-05
1.97033e-05
1.97035e-05
1.97034e-05
1.97032e-05
1.97028e-05
1.97024e-05
1.97019e-05
1.97015e-05
1.97011e-05
1.97009e-05
1.97008e-05
1.97009e-05
1.97011e-05
1.97016e-05
1.97023e-05
1.97032e-05
1.97043e-05
1.97055e-05
1.9707e-05
1.97086e-05
1.97105e-05
1.97125e-05
1.97146e-05
1.9717e-05
1.97194e-05
1.9722e-05
1.97247e-05
1.97276e-05
1.97307e-05
1.97339e-05
2.06538e-05
2.06173e-05
2.05808e-05
2.05445e-05
2.05084e-05
2.04724e-05
2.04366e-05
2.04011e-05
2.03659e-05
2.03307e-05
2.02959e-05
2.02616e-05
2.02272e-05
2.01926e-05
2.01595e-05
2.01264e-05
2.00926e-05
2.00606e-05
2.00292e-05
1.99965e-05
1.99654e-05
1.9937e-05
1.99072e-05
1.98777e-05
1.98499e-05
1.98214e-05
1.97949e-05
1.97696e-05
1.9743e-05
1.97187e-05
1.96957e-05
1.96735e-05
1.96487e-05
1.96263e-05
1.96056e-05
1.95856e-05
1.95666e-05
1.95488e-05
1.95323e-05
1.95168e-05
1.95026e-05
1.94897e-05
1.94781e-05
1.94678e-05
1.94588e-05
1.94514e-05
1.94454e-05
1.94408e-05
1.94376e-05
1.94357e-05
1.94351e-05
1.94355e-05
1.94368e-05
1.94391e-05
1.94424e-05
1.94466e-05
1.94517e-05
1.94576e-05
1.94642e-05
1.94712e-05
1.94788e-05
1.94868e-05
1.94952e-05
1.95039e-05
1.95129e-05
1.95227e-05
1.9534e-05
1.95443e-05
1.95537e-05
1.95647e-05
1.95768e-05
1.95881e-05
1.95991e-05
1.96103e-05
1.96217e-05
1.96332e-05
1.96448e-05
1.96559e-05
1.96664e-05
1.96767e-05
1.96862e-05
1.96946e-05
1.97024e-05
1.971e-05
1.97172e-05
1.97236e-05
1.97292e-05
1.97341e-05
1.97384e-05
1.9742e-05
1.9745e-05
1.97474e-05
1.97494e-05
1.97508e-05
1.97519e-05
1.97527e-05
1.97532e-05
1.97536e-05
1.97539e-05
1.97542e-05
1.97545e-05
1.97549e-05
1.97555e-05
1.97562e-05
1.9757e-05
1.97581e-05
1.97594e-05
1.97609e-05
1.97626e-05
1.97645e-05
1.97667e-05
1.97691e-05
1.97716e-05
1.97744e-05
1.97773e-05
1.97804e-05
1.97837e-05
1.97871e-05
1.97907e-05
1.97945e-05
1.97985e-05
1.98026e-05
1.9807e-05
2.07112e-05
2.06751e-05
2.06392e-05
2.06034e-05
2.05678e-05
2.05324e-05
2.04973e-05
2.04624e-05
2.04278e-05
2.03933e-05
2.03595e-05
2.03259e-05
2.02921e-05
2.02589e-05
2.02267e-05
2.0194e-05
2.01613e-05
2.01308e-05
2.01e-05
2.00678e-05
2.00385e-05
2.00108e-05
1.99812e-05
1.99531e-05
1.99259e-05
1.98986e-05
1.98733e-05
1.98486e-05
1.98227e-05
1.97995e-05
1.9777e-05
1.9755e-05
1.97308e-05
1.97089e-05
1.96884e-05
1.96686e-05
1.96501e-05
1.96329e-05
1.96167e-05
1.96015e-05
1.95873e-05
1.95743e-05
1.95624e-05
1.95517e-05
1.95422e-05
1.9534e-05
1.95271e-05
1.95216e-05
1.95172e-05
1.9514e-05
1.95119e-05
1.95107e-05
1.95105e-05
1.95109e-05
1.95122e-05
1.95142e-05
1.9517e-05
1.95204e-05
1.95245e-05
1.95291e-05
1.95342e-05
1.95399e-05
1.95459e-05
1.95524e-05
1.95594e-05
1.95672e-05
1.95764e-05
1.95851e-05
1.95934e-05
1.96033e-05
1.96145e-05
1.96251e-05
1.96356e-05
1.96465e-05
1.96578e-05
1.96695e-05
1.96817e-05
1.96938e-05
1.97051e-05
1.97163e-05
1.97269e-05
1.97368e-05
1.97463e-05
1.97556e-05
1.97643e-05
1.97725e-05
1.97799e-05
1.97866e-05
1.97925e-05
1.97976e-05
1.98021e-05
1.98059e-05
1.98092e-05
1.9812e-05
1.98143e-05
1.98163e-05
1.98181e-05
1.98196e-05
1.9821e-05
1.98224e-05
1.98238e-05
1.98252e-05
1.98268e-05
1.98286e-05
1.98306e-05
1.98327e-05
1.98351e-05
1.98378e-05
1.98407e-05
1.98439e-05
1.98472e-05
1.98509e-05
1.98547e-05
1.98587e-05
1.9863e-05
1.98674e-05
1.98721e-05
1.98769e-05
1.98819e-05
1.98871e-05
1.98926e-05
1.98982e-05
1.99041e-05
1.99103e-05
1.99166e-05
2.07745e-05
2.07391e-05
2.07039e-05
2.06689e-05
2.06342e-05
2.05996e-05
2.05654e-05
2.05315e-05
2.04978e-05
2.04645e-05
2.04317e-05
2.0399e-05
2.03663e-05
2.03347e-05
2.03035e-05
2.02714e-05
2.02406e-05
2.02113e-05
2.01812e-05
2.01501e-05
2.01227e-05
2.00955e-05
2.00665e-05
2.00399e-05
2.00136e-05
1.99875e-05
1.99634e-05
1.99395e-05
1.99146e-05
1.98917e-05
1.98697e-05
1.98479e-05
1.98255e-05
1.98042e-05
1.97837e-05
1.97642e-05
1.97462e-05
1.97294e-05
1.97135e-05
1.96984e-05
1.96842e-05
1.96709e-05
1.96587e-05
1.96475e-05
1.96374e-05
1.96284e-05
1.96205e-05
1.96137e-05
1.96081e-05
1.96034e-05
1.95997e-05
1.95969e-05
1.95949e-05
1.95936e-05
1.95929e-05
1.9593e-05
1.95935e-05
1.95947e-05
1.95965e-05
1.95988e-05
1.96017e-05
1.96051e-05
1.96091e-05
1.96137e-05
1.96189e-05
1.96249e-05
1.96322e-05
1.96393e-05
1.96466e-05
1.96554e-05
1.96657e-05
1.96758e-05
1.96857e-05
1.96963e-05
1.97076e-05
1.97197e-05
1.97324e-05
1.97455e-05
1.9758e-05
1.97701e-05
1.9782e-05
1.97936e-05
1.9805e-05
1.98162e-05
1.9827e-05
1.98371e-05
1.98464e-05
1.9855e-05
1.98628e-05
1.98699e-05
1.98763e-05
1.98821e-05
1.98871e-05
1.98917e-05
1.98957e-05
1.98993e-05
1.99025e-05
1.99056e-05
1.99084e-05
1.99112e-05
1.9914e-05
1.99169e-05
1.99199e-05
1.99231e-05
1.99265e-05
1.99302e-05
1.99341e-05
1.99383e-05
1.99427e-05
1.99475e-05
1.99525e-05
1.99577e-05
1.99632e-05
1.9969e-05
1.9975e-05
1.99812e-05
1.99876e-05
1.99943e-05
2.00012e-05
2.00083e-05
2.00157e-05
2.00233e-05
2.00312e-05
2.00393e-05
2.00477e-05
2.08442e-05
2.08098e-05
2.07757e-05
2.07418e-05
2.07082e-05
2.06748e-05
2.06419e-05
2.06092e-05
2.05767e-05
2.05448e-05
2.05133e-05
2.04818e-05
2.04507e-05
2.04207e-05
2.03905e-05
2.03596e-05
2.03311e-05
2.03029e-05
2.02736e-05
2.02445e-05
2.02187e-05
2.01921e-05
2.01642e-05
2.01392e-05
2.01142e-05
2.00891e-05
2.0066e-05
2.00435e-05
2.00197e-05
1.99971e-05
1.99757e-05
1.99547e-05
1.99337e-05
1.99131e-05
1.9893e-05
1.98739e-05
1.98563e-05
1.98398e-05
1.98241e-05
1.98091e-05
1.97949e-05
1.97814e-05
1.97689e-05
1.97572e-05
1.97464e-05
1.97366e-05
1.97277e-05
1.97198e-05
1.97128e-05
1.97067e-05
1.97014e-05
1.96969e-05
1.96932e-05
1.969e-05
1.96875e-05
1.96856e-05
1.96841e-05
1.96833e-05
1.96831e-05
1.96833e-05
1.96841e-05
1.96856e-05
1.96877e-05
1.96904e-05
1.9694e-05
1.96984e-05
1.97038e-05
1.97096e-05
1.97161e-05
1.97242e-05
1.97337e-05
1.97434e-05
1.97529e-05
1.97633e-05
1.97748e-05