/*--------------------------------*- C++ -*----------------------------------*\
| =========                 |                                                 |
| \\      /  F ield         | OpenFOAM: The Open Source CFD Toolbox           |
|  \\    /   O peration     | Version:  v1706                                 |
|   \\  /    A nd           | Web:      www.OpenFOAM.com                      |
|    \\/     M anipulation  |                                                 |
\*---------------------------------------------------------------------------*/
FoamFile
{
    version     2.0;
    format      ascii;
    class       volScalarField;
    location    "1.5e-05";
    object      kappatr;
}
// * * * * * * * * * * * * * * * * * * * * * * * * * * * * * * * * * * * * * //

dimensions      [1 1 -3 -1 0 0 0];


internalField   nonuniform List<scalar> 
29871
(
0.0145954
0.0145954
0.0145954
0.0145955
0.0145955
0.0145955
0.0145955
0.0145955
0.0145955
0.0145955
0.0145955
0.0145955
0.0145955
0.0145954
0.0145954
0.0145954
0.0145953
0.0145953
0.0145952
0.0145952
0.0145951
0.0145951
0.014595
0.014595
0.0145949
0.0145948
0.0145948
0.0145947
0.0145947
0.0145946
0.0145945
0.0145945
0.0145944
0.0145944
0.0145943
0.0145942
0.0145942
0.0145941
0.0145941
0.014594
0.014594
0.014594
0.0145939
0.0145939
0.0145939
0.0145938
0.0145938
0.0145938
0.0145938
0.0145937
0.0145937
0.0145937
0.0145937
0.0145937
0.0145937
0.0145937
0.0145937
0.0145937
0.0145937
0.0145937
0.0145937
0.0145937
0.0145937
0.0145937
0.0145937
0.0145937
0.0145937
0.0145937
0.0145937
0.0145937
0.0145937
0.0145937
0.0145937
0.0145938
0.0145938
0.0145938
0.0145938
0.0145938
0.0145938
0.0145938
0.0145938
0.0145938
0.0145938
0.0145938
0.0145939
0.0145939
0.0145939
0.0145939
0.0145939
0.0145939
0.0145939
0.0145939
0.014594
0.014594
0.014594
0.014594
0.014594
0.014594
0.014594
0.014594
0.0145941
0.0145941
0.0145941
0.0145941
0.0145941
0.0146066
0.0146069
0.0146071
0.0146072
0.0146074
0.0146075
0.0146075
0.0146076
0.0146076
0.0146076
0.0146075
0.0146075
0.0146074
0.0146072
0.0146071
0.0146069
0.0146067
0.0146064
0.0146062
0.0146059
0.0146056
0.0146053
0.014605
0.0146046
0.0146043
0.0146039
0.0146036
0.0146032
0.0146029
0.0146025
0.0146022
0.0146018
0.0146015
0.0146011
0.0146008
0.0146005
0.0146002
0.0145999
0.0145996
0.0145993
0.0145991
0.0145988
0.0145986
0.0145984
0.0145982
0.014598
0.0145979
0.0145978
0.0145976
0.0145975
0.0145974
0.0145973
0.0145973
0.0145972
0.0145972
0.0145971
0.0145971
0.0145971
0.0145971
0.0145971
0.0145971
0.0145972
0.0145972
0.0145972
0.0145972
0.0145973
0.0145973
0.0145974
0.0145974
0.0145975
0.0145975
0.0145976
0.0145976
0.0145977
0.0145977
0.0145978
0.0145979
0.0145979
0.014598
0.0145981
0.0145981
0.0145982
0.0145983
0.0145983
0.0145984
0.0145985
0.0145986
0.0145986
0.0145987
0.0145988
0.0145989
0.014599
0.014599
0.0145991
0.0145992
0.0145993
0.0145994
0.0145995
0.0145996
0.0145997
0.0145998
0.0145999
0.0146
0.0146001
0.0146001
0.0146339
0.0146347
0.0146354
0.014636
0.0146365
0.014637
0.0146373
0.0146376
0.0146377
0.0146378
0.0146377
0.0146376
0.0146374
0.0146371
0.0146367
0.0146362
0.0146357
0.014635
0.0146343
0.0146336
0.0146327
0.0146319
0.0146309
0.01463
0.0146289
0.0146279
0.0146268
0.0146258
0.0146247
0.0146236
0.0146225
0.0146214
0.0146203
0.0146193
0.0146183
0.0146173
0.0146163
0.0146154
0.0146145
0.0146136
0.0146128
0.014612
0.0146113
0.0146106
0.01461
0.0146095
0.0146089
0.0146085
0.014608
0.0146077
0.0146073
0.014607
0.0146068
0.0146066
0.0146065
0.0146063
0.0146063
0.0146062
0.0146062
0.0146062
0.0146063
0.0146063
0.0146064
0.0146065
0.0146066
0.0146067
0.0146069
0.014607
0.0146072
0.0146074
0.0146076
0.0146077
0.0146079
0.0146081
0.0146083
0.0146085
0.0146088
0.014609
0.0146092
0.0146094
0.0146096
0.0146099
0.0146101
0.0146104
0.0146106
0.0146109
0.0146112
0.0146114
0.0146117
0.014612
0.0146123
0.0146126
0.0146129
0.0146132
0.0146135
0.0146138
0.0146142
0.0146145
0.0146148
0.0146152
0.0146155
0.0146159
0.0146162
0.0146166
0.0146169
0.0146173
0.0147
0.014702
0.0147037
0.0147053
0.0147066
0.0147077
0.0147085
0.0147091
0.0147095
0.0147096
0.0147095
0.0147092
0.0147086
0.0147078
0.0147068
0.0147056
0.0147041
0.0147025
0.0147007
0.0146987
0.0146966
0.0146943
0.0146919
0.0146894
0.0146869
0.0146842
0.0146815
0.0146787
0.014676
0.0146732
0.0146704
0.0146676
0.0146649
0.0146622
0.0146595
0.014657
0.0146545
0.0146521
0.0146498
0.0146476
0.0146455
0.0146435
0.0146417
0.01464
0.0146384
0.014637
0.0146356
0.0146345
0.0146334
0.0146325
0.0146317
0.014631
0.0146304
0.01463
0.0146296
0.0146294
0.0146293
0.0146292
0.0146293
0.0146293
0.0146295
0.0146297
0.01463
0.0146303
0.0146307
0.0146311
0.0146316
0.0146321
0.0146326
0.0146331
0.0146336
0.0146342
0.0146348
0.0146354
0.014636
0.0146366
0.0146373
0.0146379
0.0146386
0.0146393
0.01464
0.0146407
0.0146414
0.0146422
0.014643
0.0146438
0.0146446
0.0146454
0.0146463
0.0146471
0.014648
0.014649
0.0146499
0.0146509
0.0146519
0.0146529
0.0146539
0.014655
0.014656
0.0146571
0.0146582
0.0146593
0.0146604
0.0146616
0.0146627
0.0146638
0.0148472
0.0148523
0.0148568
0.0148609
0.0148644
0.0148674
0.0148699
0.0148718
0.0148731
0.0148738
0.0148739
0.0148736
0.0148727
0.0148712
0.0148692
0.0148667
0.0148636
0.0148601
0.0148562
0.0148518
0.0148471
0.014842
0.0148365
0.0148308
0.0148249
0.0148187
0.0148124
0.0148059
0.0147994
0.0147928
0.0147862
0.0147796
0.0147731
0.0147666
0.0147603
0.0147541
0.0147481
0.0147422
0.0147366
0.0147313
0.0147261
0.0147213
0.0147167
0.0147125
0.0147085
0.0147049
0.0147015
0.0146985
0.0146958
0.0146934
0.0146914
0.0146896
0.0146882
0.014687
0.0146861
0.0146855
0.0146851
0.014685
0.0146851
0.0146853
0.0146857
0.0146863
0.0146871
0.014688
0.014689
0.0146901
0.0146913
0.0146926
0.014694
0.0146955
0.014697
0.0146985
0.0147001
0.0147018
0.0147035
0.0147052
0.014707
0.0147088
0.0147106
0.0147125
0.0147144
0.0147164
0.0147184
0.0147205
0.0147226
0.0147248
0.0147271
0.0147294
0.0147318
0.0147342
0.0147367
0.0147393
0.0147419
0.0147446
0.0147474
0.0147502
0.0147531
0.0147561
0.0147591
0.0147622
0.0147653
0.0147685
0.0147717
0.0147749
0.0147782
0.0147816
0.0147849
0.0151734
0.0151838
0.0151932
0.0152015
0.0152085
0.0152144
0.0152191
0.0152226
0.0152248
0.0152257
0.0152255
0.0152242
0.0152217
0.015218
0.0152132
0.0152073
0.0152004
0.0151925
0.0151836
0.0151739
0.0151634
0.0151521
0.0151402
0.0151277
0.0151147
0.0151013
0.0150875
0.0150735
0.0150593
0.0150449
0.0150305
0.0150162
0.015002
0.0149879
0.0149741
0.0149606
0.0149474
0.0149347
0.0149224
0.0149107
0.0148996
0.0148891
0.0148792
0.01487
0.0148615
0.0148538
0.0148467
0.0148404
0.0148348
0.01483
0.0148259
0.0148224
0.0148197
0.0148176
0.0148162
0.0148153
0.0148151
0.0148154
0.014816
0.0148171
0.0148187
0.0148206
0.0148229
0.0148255
0.0148284
0.0148316
0.0148349
0.0148385
0.0148422
0.0148461
0.0148501
0.0148542
0.0148585
0.0148628
0.0148672
0.0148717
0.0148763
0.014881
0.0148858
0.0148907
0.0148957
0.0149008
0.0149061
0.0149115
0.014917
0.0149227
0.0149285
0.0149346
0.0149408
0.0149471
0.0149537
0.0149604
0.0149674
0.0149745
0.0149818
0.0149893
0.014997
0.0150049
0.0150129
0.0150211
0.0150295
0.015038
0.0150467
0.0150554
0.0150643
0.0150733
0.0150825
0.0157544
0.0157794
0.0158026
0.0158239
0.015843
0.01586
0.0158747
0.0158871
0.0158972
0.0159048
0.0159101
0.0159129
0.0159132
0.0159115
0.0159077
0.0159017
0.0158934
0.0158829
0.0158704
0.015856
0.0158397
0.0158216
0.0158019
0.0157807
0.0157581
0.0157343
0.0157094
0.0156835
0.0156569
0.0156296
0.0156018
0.0155736
0.0155453
0.0155168
0.0154885
0.0154604
0.0154327
0.0154054
0.0153788
0.0153529
0.0153278
0.0153037
0.0152807
0.0152588
0.0152381
0.0152187
0.0152007
0.0151841
0.015169
0.0151554
0.0151433
0.0151329
0.0151239
0.0151165
0.0151106
0.0151062
0.0151033
0.0151016
0.0151015
0.0151022
0.0151039
0.0151068
0.0151106
0.0151153
0.0151209
0.0151272
0.0151341
0.0151417
0.0151497
0.0151582
0.0151671
0.0151763
0.0151858
0.0151956
0.0152056
0.0152159
0.0152263
0.015237
0.0152479
0.0152589
0.0152702
0.0152818
0.0152935
0.0153055
0.0153178
0.0153304
0.0153433
0.0153565
0.0153701
0.015384
0.0153984
0.0154132
0.0154283
0.0154439
0.01546
0.0154765
0.0154935
0.0155109
0.0155287
0.015547
0.0155657
0.0155848
0.0156043
0.0156242
0.0156444
0.0156649
0.0156857
0.0157067
0.015728
0.0157495
0.016843
0.0168801
0.0169137
0.0169438
0.0169704
0.0169933
0.0170124
0.0170277
0.0170393
0.017047
0.0170512
0.0170513
0.0170485
0.017042
0.0170323
0.0170193
0.017003
0.0169836
0.0169612
0.0169359
0.0169078
0.0168771
0.016844
0.0168087
0.0167712
0.0167319
0.0166909
0.0166484
0.0166045
0.0165595
0.0165135
0.0164668
0.0164195
0.0163719
0.0163243
0.0162768
0.0162296
0.0161831
0.0161374
0.0160929
0.0160497
0.0160081
0.0159684
0.0159307
0.0158952
0.0158621
0.0158316
0.0158037
0.0157785
0.0157561
0.0157366
0.01572
0.0157063
0.0156955
0.0156875
0.0156823
0.01568
0.0156805
0.0156825
0.0156869
0.0156935
0.0157022
0.0157127
0.0157248
0.0157385
0.0157536
0.0157699
0.0157872
0.0158054
0.0158244
0.0158441
0.0158643
0.015885
0.0159062
0.0159276
0.0159494
0.0159715
0.0159938
0.0160164
0.0160393
0.0160625
0.016086
0.0161099
0.0161342
0.0161589
0.0161842
0.0162099
0.0162362
0.0162632
0.0162908
0.016319
0.016348
0.0163778
0.0164083
0.0164395
0.0164716
0.0165044
0.016538
0.0165724
0.0166076
0.0166435
0.0166801
0.0167174
0.0167554
0.016794
0.0168331
0.0168727
0.0169126
0.0169529
0.0169934
0.0183382
0.018375
0.0184071
0.0184348
0.0184581
0.0184769
0.0184914
0.0185014
0.0185067
0.0185068
0.0185038
0.0184965
0.0184854
0.0184707
0.0184531
0.018431
0.0184052
0.0183761
0.0183438
0.0183083
0.0182699
0.0182285
0.0181844
0.0181377
0.0180887
0.0180376
0.0179844
0.0179295
0.0178732
0.0178155
0.0177566
0.0176967
0.017636
0.0175747
0.0175131
0.0174515
0.0173902
0.0173294
0.0172695
0.0172108
0.0171535
0.017098
0.0170447
0.0169938
0.0169457
0.0169009
0.0168596
0.0168222
0.016789
0.0167601
0.0167357
0.0167158
0.0167006
0.01669
0.016684
0.0166835
0.016686
0.0166918
0.0167018
0.0167152
0.0167318
0.0167514
0.0167737
0.0167984
0.0168252
0.0168539
0.0168842
0.0169159
0.0169487
0.0169824
0.0170169
0.017052
0.0170875
0.0171233
0.0171593
0.0171954
0.0172318
0.0172683
0.017305
0.0173419
0.0173791
0.0174166
0.0174544
0.0174926
0.0175312
0.0175703
0.0176099
0.0176501
0.0176908
0.0177321
0.0177741
0.0178168
0.0178601
0.0179041
0.0179488
0.0179942
0.0180402
0.0180869
0.0181342
0.018182
0.0182304
0.0182791
0.0183282
0.0183777
0.0184274
0.0184773
0.0185273
0.0185774
0.0186272
0.0186765
0.0197856
0.019795
0.0197995
0.0197993
0.0197967
0.0197904
0.0197808
0.0197681
0.0197527
0.0197348
0.0197149
0.0196941
0.0196702
0.0196429
0.0196148
0.0195851
0.0195535
0.0195204
0.0194857
0.0194497
0.0194122
0.0193734
0.0193333
0.0192917
0.0192486
0.0192042
0.0191585
0.0191116
0.0190631
0.0190129
0.0189613
0.0189084
0.0188545
0.0187995
0.0187437
0.0186874
0.0186309
0.0185747
0.0185191
0.0184648
0.0184122
0.0183617
0.0183136
0.0182684
0.0182263
0.0181879
0.0181534
0.0181231
0.0180971
0.0180756
0.0180588
0.018047
0.0180404
0.0180399
0.0180433
0.0180519
0.0180643
0.018082
0.0181036
0.018129
0.0181577
0.0181893
0.0182234
0.0182596
0.0182976
0.018337
0.0183775
0.0184188
0.0184608
0.0185031
0.0185457
0.0185882
0.0186309
0.0186733
0.0187153
0.0187566
0.0187973
0.0188372
0.0188762
0.0189145
0.0189519
0.0189886
0.0190246
0.01906
0.0190948
0.019129
0.0191628
0.0191961
0.019229
0.0192614
0.0192934
0.0193249
0.019356
0.0193867
0.0194169
0.0194467
0.019476
0.0195048
0.0195332
0.0195611
0.0195885
0.0196154
0.0196417
0.0196676
0.0196928
0.0197174
0.0197414
0.0197647
0.0197874
0.0198095
0.0204577
0.0204357
0.0204124
0.0203879
0.0203631
0.0203378
0.0203115
0.0202863
0.0202582
0.0202276
0.0201984
0.0201698
0.0201393
0.0201076
0.0200766
0.0200454
0.0200135
0.0199813
0.0199488
0.0199165
0.0198846
0.0198529
0.019821
0.0197892
0.0197582
0.0197274
0.0196966
0.0196661
0.0196364
0.0196077
0.0195795
0.0195514
0.0195233
0.0194956
0.0194684
0.0194417
0.0194156
0.0193901
0.0193654
0.0193414
0.0193182
0.0192959
0.0192751
0.0192564
0.0192399
0.0192264
0.0192165
0.0192105
0.0192092
0.0192111
0.0192173
0.0192275
0.0192407
0.019257
0.0192785
0.0193018
0.0193264
0.0193535
0.0193827
0.0194132
0.0194438
0.0194744
0.019505
0.0195352
0.0195648
0.0195937
0.0196218
0.0196488
0.0196747
0.0196994
0.019723
0.0197453
0.0197662
0.0197857
0.019804
0.0198211
0.0198373
0.0198527
0.0198673
0.0198813
0.0198948
0.0199078
0.0199204
0.0199326
0.0199444
0.0199559
0.019967
0.0199778
0.0199883
0.0199985
0.0200085
0.0200183
0.0200279
0.0200373
0.0200465
0.0200555
0.0200644
0.0200731
0.0200815
0.0200899
0.0200981
0.020106
0.0201138
0.0201214
0.0201288
0.0201362
0.0201433
0.0201504
0.0201573
0.0201642
0.0207332
0.0207037
0.0206696
0.0206375
0.020607
0.0205746
0.0205416
0.0205103
0.0204796
0.0204468
0.0204129
0.0203803
0.0203479
0.0203148
0.0202815
0.0202492
0.0202176
0.0201858
0.0201538
0.0201224
0.0200927
0.0200633
0.0200339
0.0200057
0.0199784
0.0199513
0.0199249
0.0198998
0.0198753
0.0198516
0.019829
0.0198074
0.0197872
0.019768
0.01975
0.0197335
0.0197187
0.0197059
0.0196955
0.0196876
0.0196819
0.0196789
0.0196788
0.0196803
0.0196837
0.0196894
0.0196974
0.0197079
0.0197208
0.0197359
0.0197525
0.019771
0.0197918
0.0198126
0.0198355
0.019861
0.0198866
0.0199112
0.019936
0.0199606
0.0199844
0.0200072
0.0200287
0.0200483
0.0200666
0.0200838
0.0200992
0.0201133
0.0201261
0.0201377
0.020148
0.0201571
0.020165
0.020172
0.0201784
0.0201842
0.0201895
0.0201943
0.0201986
0.0202025
0.020206
0.0202092
0.020212
0.0202146
0.0202168
0.0202189
0.0202209
0.0202227
0.0202244
0.020226
0.0202275
0.020229
0.0202304
0.0202317
0.020233
0.0202343
0.0202356
0.0202369
0.0202382
0.0202395
0.020241
0.0202424
0.0202441
0.0202458
0.0202478
0.0202499
0.0202522
0.0202547
0.0202575
0.0202605
0.0202637
0.0208247
0.0207904
0.020755
0.0207199
0.0206852
0.02065
0.0206148
0.0205814
0.0205481
0.0205137
0.0204792
0.0204458
0.0204125
0.0203787
0.020345
0.0203125
0.0202808
0.0202486
0.0202165
0.0201863
0.0201566
0.0201265
0.0200989
0.0200727
0.0200459
0.0200208
0.0199985
0.0199763
0.0199537
0.0199338
0.0199161
0.0199003
0.0198841
0.0198682
0.0198555
0.0198452
0.0198362
0.0198292
0.0198241
0.019821
0.0198207
0.0198221
0.0198257
0.0198316
0.0198399
0.0198516
0.0198661
0.0198829
0.0199019
0.0199229
0.0199448
0.0199678
0.0199919
0.0200153
0.0200395
0.0200642
0.0200865
0.0201088
0.0201308
0.0201508
0.0201702
0.0201877
0.0202027
0.0202174
0.0202316
0.0202431
0.0202534
0.0202629
0.0202713
0.0202784
0.0202846
0.0202899
0.0202943
0.0202978
0.0203007
0.0203029
0.0203045
0.0203057
0.0203064
0.0203067
0.0203067
0.0203066
0.0203063
0.0203059
0.0203053
0.0203046
0.0203039
0.0203031
0.0203024
0.0203016
0.0203008
0.0203
0.0202992
0.0202985
0.0202978
0.0202972
0.0202967
0.0202963
0.020296
0.0202958
0.0202959
0.020296
0.0202963
0.0202968
0.0202976
0.0202985
0.0202996
0.020301
0.0203025
0.0203042
0.0203062
0.0203083
0.0203105
0.0208844
0.0208489
0.020813
0.0207771
0.0207411
0.0207045
0.0206682
0.0206338
0.0205989
0.0205634
0.0205284
0.0204946
0.0204608
0.0204269
0.0203931
0.0203608
0.0203293
0.0202969
0.0202652
0.0202361
0.0202067
0.0201768
0.0201503
0.0201249
0.0200985
0.0200745
0.0200528
0.0200306
0.0200082
0.0199887
0.0199706
0.0199545
0.0199386
0.0199238
0.0199112
0.0199013
0.0198939
0.0198889
0.0198865
0.0198867
0.0198888
0.0198932
0.0198999
0.0199085
0.0199189
0.0199315
0.0199462
0.0199628
0.0199808
0.0199999
0.0200202
0.0200419
0.0200637
0.0200852
0.0201077
0.0201301
0.0201515
0.0201732
0.0201923
0.0202097
0.0202274
0.0202437
0.0202574
0.0202708
0.0202836
0.0202943
0.0203036
0.0203126
0.0203204
0.0203269
0.0203325
0.0203373
0.0203414
0.0203445
0.0203466
0.0203479
0.0203493
0.0203501
0.0203502
0.0203501
0.0203497
0.0203491
0.0203483
0.0203472
0.0203459
0.0203445
0.020343
0.0203414
0.0203398
0.0203382
0.0203367
0.0203351
0.0203336
0.0203322
0.0203308
0.0203296
0.0203285
0.0203275
0.0203267
0.0203261
0.0203256
0.0203254
0.0203253
0.0203254
0.0203258
0.0203264
0.0203272
0.0203282
0.0203295
0.020331
0.0203326
0.0203345
0.0203365
0.0210021
0.0209655
0.0209291
0.0208925
0.0208558
0.0208194
0.0207826
0.0207451
0.0207088
0.0206738
0.0206382
0.0206024
0.0205677
0.0205337
0.0205001
0.0204666
0.0204331
0.0204015
0.0203703
0.0203378
0.0203075
0.0202793
0.02025
0.0202211
0.0201957
0.0201705
0.020145
0.0201224
0.0201016
0.0200794
0.020058
0.0200394
0.0200215
0.0200055
0.0199906
0.0199766
0.0199643
0.0199546
0.0199474
0.0199424
0.0199401
0.0199403
0.0199419
0.0199456
0.0199514
0.0199592
0.019969
0.0199809
0.0199949
0.0200107
0.0200279
0.0200459
0.0200648
0.0200841
0.0201028
0.020122
0.0201425
0.0201608
0.0201784
0.0201977
0.0202155
0.0202309
0.0202467
0.0202621
0.0202759
0.0202887
0.0203009
0.020312
0.020322
0.020331
0.0203392
0.0203466
0.0203532
0.0203588
0.0203632
0.0203668
0.0203696
0.0203719
0.0203738
0.0203751
0.0203756
0.0203757
0.0203755
0.0203751
0.0203743
0.0203732
0.020372
0.0203705
0.0203689
0.0203673
0.0203657
0.020364
0.0203624
0.0203608
0.0203593
0.0203578
0.0203565
0.0203553
0.0203543
0.0203535
0.0203528
0.0203523
0.0203521
0.0203521
0.0203522
0.0203525
0.0203531
0.0203539
0.0203548
0.020356
0.0203573
0.0203588
0.0203604
0.0203623
0.0203642
0.0210434
0.0210063
0.0209693
0.0209322
0.0208954
0.0208588
0.0208218
0.0207844
0.0207486
0.0207135
0.0206776
0.0206423
0.020608
0.0205738
0.0205408
0.020508
0.0204751
0.0204442
0.0204134
0.0203814
0.0203526
0.0203249
0.0202956
0.0202684
0.0202439
0.0202184
0.0201941
0.0201719
0.0201515
0.0201292
0.020109
0.0200907
0.0200732
0.0200576
0.0200436
0.0200309
0.0200197
0.0200104
0.0200032
0.0199981
0.0199952
0.0199951
0.0199961
0.019999
0.0200037
0.0200102
0.0200184
0.0200284
0.02004
0.0200531
0.0200674
0.0200826
0.0200986
0.0201149
0.0201313
0.0201483
0.0201655
0.0201821
0.0201987
0.0202165
0.0202323
0.0202463
0.0202603
0.0202744
0.0202878
0.0203004
0.0203125
0.0203238
0.0203345
0.0203445
0.0203533
0.0203614
0.0203692
0.0203761
0.0203815
0.020386
0.02039
0.0203933
0.0203959
0.020398
0.0203993
0.0204002
0.0204005
0.0204005
0.0204002
0.0203995
0.0203986
0.0203974
0.0203961
0.0203947
0.0203932
0.0203917
0.0203903
0.0203889
0.0203876
0.0203864
0.0203853
0.0203844
0.0203837
0.0203831
0.0203828
0.0203827
0.0203828
0.020383
0.0203835
0.0203841
0.020385
0.0203861
0.0203874
0.0203888
0.0203904
0.0203921
0.0203939
0.0203959
0.0203981
0.0204004
0.0213525
0.0213144
0.0212763
0.0212382
0.0212003
0.0211624
0.0211247
0.0210873
0.0210501
0.0210129
0.0209758
0.0209392
0.0209027
0.0208658
0.020829
0.0207939
0.0207586
0.0207228
0.0206885
0.0206544
0.0206202
0.0205883
0.0205563
0.020524
0.0204938
0.0204633
0.0204326
0.0204048
0.0203771
0.0203487
0.0203229
0.020299
0.0202735
0.0202497
0.0202276
0.0202067
0.0201857
0.0201662
0.0201479
0.0201311
0.0201159
0.0201024
0.0200903
0.0200796
0.0200707
0.0200637
0.0200585
0.0200551
0.020054
0.0200544
0.0200562
0.0200595
0.0200645
0.0200709
0.0200787
0.0200879
0.0200983
0.0201098
0.0201222
0.0201351
0.0201484
0.020162
0.0201761
0.0201904
0.0202044
0.020219
0.0202351
0.0202487
0.0202612
0.0202749
0.0202886
0.0203015
0.0203139
0.020326
0.0203376
0.0203489
0.0203597
0.0203694
0.0203783
0.0203871
0.0203951
0.0204016
0.0204071
0.0204122
0.0204168
0.0204206
0.0204236
0.020426
0.0204277
0.0204289
0.0204296
0.0204299
0.0204298
0.0204295
0.0204289
0.0204281
0.0204271
0.0204261
0.020425
0.0204239
0.0204229
0.020422
0.0204213
0.0204206
0.0204202
0.0204199
0.0204199
0.02042
0.0204203
0.0204209
0.0204216
0.0204225
0.0204236
0.0204249
0.0204263
0.0204279
0.0204297
0.0204316
0.0204336
0.0204358
0.0204381
0.0204406
0.0204432
0.0214014
0.0213633
0.0213252
0.0212871
0.0212493
0.0212116
0.021174
0.0211367
0.0210997
0.0210627
0.0210259
0.0209897
0.0209535
0.0209168
0.0208812
0.0208465
0.0208111
0.0207763
0.0207429
0.0207089
0.0206752
0.0206447
0.0206133
0.0205817
0.0205522
0.0205219
0.0204928
0.0204659
0.020438
0.0204112
0.0203865
0.020363
0.0203374
0.0203138
0.0202919
0.020271
0.0202509
0.0202317
0.020214
0.0201977
0.0201828
0.0201695
0.0201575
0.0201469
0.020138
0.0201308
0.0201253
0.0201213
0.0201189
0.0201185
0.0201191
0.0201209
0.0201241
0.0201285
0.0201341
0.0201409
0.0201488
0.0201575
0.020167
0.0201771
0.0201876
0.0201985
0.0202098
0.0202214
0.020233
0.0202455
0.0202593
0.0202715
0.0202826
0.0202952
0.0203084
0.0203207
0.0203327
0.0203447
0.0203565
0.0203682
0.0203797
0.0203902
0.0204002
0.02041
0.020419
0.0204264
0.0204331
0.0204395
0.0204454
0.0204505
0.0204548
0.0204584
0.0204613
0.0204637
0.0204654
0.0204667
0.0204675
0.020468
0.0204682
0.0204681
0.0204679
0.0204675
0.0204671
0.0204666
0.0204661
0.0204657
0.0204655
0.0204654
0.0204655
0.0204658
0.0204663
0.020467
0.0204679
0.020469
0.0204703
0.0204719
0.0204736
0.0204755
0.0204776
0.0204798
0.0204822
0.0204847
0.0204874
0.0204903
0.0204933
0.0204964
0.0204998
0.0214554
0.0214175
0.0213796
0.0213419
0.0213043
0.021267
0.0212298
0.0211929
0.0211563
0.0211197
0.0210836
0.021048
0.0210122
0.0209763
0.0209419
0.0209076
0.0208725
0.0208392
0.0208065
0.0207726
0.0207403
0.0207108
0.0206798
0.0206492
0.0206203
0.0205907
0.0205631
0.0205369
0.0205092
0.0204841
0.0204601
0.020437
0.0204113
0.020388
0.0203665
0.0203457
0.020326
0.0203076
0.0202903
0.0202743
0.0202596
0.0202462
0.0202341
0.0202233
0.020214
0.0202063
0.0202001
0.0201954
0.020192
0.02019
0.0201894
0.0201898
0.0201912
0.0201936
0.020197
0.0202014
0.0202067
0.0202128
0.0202196
0.0202269
0.0202348
0.0202431
0.0202518
0.0202608
0.0202702
0.0202805
0.0202922
0.0203028
0.0203126
0.0203241
0.0203366
0.0203483
0.0203598
0.0203714
0.0203832
0.0203952
0.0204073
0.0204188
0.0204297
0.0204404
0.0204503
0.0204589
0.0204671
0.020475
0.0204824
0.0204891
0.020495
0.0205001
0.0205044
0.0205082
0.0205113
0.0205138
0.0205159
0.0205174
0.0205185
0.0205193
0.0205199
0.0205203
0.0205206
0.0205209
0.0205212
0.0205217
0.0205222
0.0205229
0.0205238
0.0205249
0.0205263
0.0205278
0.0205296
0.0205316
0.0205339
0.0205363
0.020539
0.0205419
0.0205449
0.0205481
0.0205515
0.0205551
0.0205588
0.0205628
0.0205669
0.0205712
0.0205757
0.0215151
0.0214776
0.0214402
0.021403
0.0213661
0.0213293
0.0212928
0.0212566
0.0212206
0.0211848
0.0211496
0.0211148
0.0210796
0.0210452
0.0210118
0.0209778
0.0209438
0.0209122
0.0208801
0.0208467
0.0208163
0.0207875
0.0207567
0.0207275
0.0206992
0.0206708
0.0206447
0.0206189
0.0205921
0.0205679
0.0205445
0.0205217
0.0204966
0.0204738
0.0204525
0.020432
0.0204128
0.0203949
0.0203781
0.0203623
0.0203475
0.020334
0.0203216
0.0203105
0.0203006
0.0202921
0.020285
0.0202792
0.0202747
0.0202713
0.0202691
0.0202679
0.0202677
0.0202682
0.0202695
0.0202716
0.0202745
0.0202781
0.0202823
0.0202871
0.0202924
0.0202982
0.0203046
0.0203113
0.0203185
0.0203266
0.0203362
0.0203452
0.0203538
0.0203641
0.0203757
0.0203868
0.0203977
0.020409
0.0204207
0.0204329
0.0204456
0.0204581
0.0204699
0.0204815
0.0204926
0.0205028
0.0205127
0.0205223
0.0205314
0.0205399
0.0205476
0.0205545
0.0205607
0.020566
0.0205706
0.0205746
0.020578
0.0205809
0.0205834
0.0205854
0.0205872
0.0205888
0.0205903
0.0205917
0.0205932
0.0205947
0.0205963
0.0205982
0.0206002
0.0206025
0.020605
0.0206077
0.0206108
0.020614
0.0206176
0.0206213
0.0206253
0.0206295
0.0206339
0.0206385
0.0206433
0.0206483
0.0206536
0.020659
0.0206647
0.0206705
0.0206766
0.020683
0.0206896
0.0215808
0.021544
0.0215075
0.0214711
0.021435
0.0213991
0.0213636
0.0213284
0.0212934
0.0212587
0.0212247
0.0211907
0.0211567
0.0211239
0.0210915
0.0210581
0.0210262
0.0209958
0.0209644
0.0209322
0.0209037
0.0208754
0.0208453
0.0208177
0.0207903
0.0207632
0.0207382
0.0207133
0.0206876
0.0206638
0.0206409
0.0206183
0.020595
0.0205728
0.0205516
0.0205313
0.0205126
0.0204951
0.0204786
0.0204629
0.0204482
0.0204344
0.0204217
0.0204101
0.0203995
0.0203902
0.020382
0.020375
0.0203691
0.0203643
0.0203604
0.0203575
0.0203554
0.020354
0.0203533
0.0203534
0.020354
0.0203552
0.020357
0.0203595
0.0203625
0.020366
0.0203702
0.0203749
0.0203803
0.0203865
0.0203942
0.0204015
0.0204091
0.0204183
0.020429
0.0204395
0.0204498
0.0204607
0.0204725
0.020485
0.0204983
0.0205119
0.0205248
0.0205374
0.0205498
0.0205618
0.0205737
0.0205853
0.0205965
0.020607
0.0206167
0.0206256
0.0206337
0.0206411
0.0206478
0.0206537
0.020659
0.0206637
0.0206679
0.0206716
0.020675
0.0206781
0.0206811
0.020684
0.0206869
0.0206899
0.020693
0.0206963
0.0206999
0.0207037
0.0207077
0.0207121
0.0207167
0.0207216
0.0207268
0.0207323
0.020738
0.020744
0.0207502
0.0207567
0.0207634
0.0207703
0.0207774
0.0207848
0.0207925
0.0208004
0.0208086
0.0208171
0.0208258
0.0216532
0.0216175
0.021582
0.0215468
0.0215119
0.0214773
0.021443
0.021409
0.0213753
0.0213421
0.0213094
0.0212767
0.0212444
0.0212133
0.0211819
0.0211498
0.0211202
0.0210909
0.0210604
0.0210302
0.0210035
0.0209758
0.0209468
0.0209209
0.0208948
0.0208688
0.0208448
0.0208214
0.0207967
0.0207732
0.020751
0.0207292
0.0207074
0.020686
0.0206651
0.0206452
0.0206269
0.0206098
0.0205935
0.0205779
0.0205632
0.0205492
0.0205361
0.020524
0.0205128
0.0205026
0.0204934
0.0204852
0.0204779
0.0204716
0.0204661
0.0204614
0.0204575
0.0204542
0.0204516
0.0204496
0.0204481
0.0204472
0.020447
0.0204473
0.0204481
0.0204496
0.0204518
0.0204547
0.0204583
0.0204629
0.0204686
0.0204745
0.0204814
0.0204897
0.0204996
0.0205097
0.0205195
0.0205303
0.0205423
0.0205553
0.0205694
0.0205842
0.0205984
0.0206122
0.0206262
0.0206403
0.0206544
0.0206682
0.0206816
0.0206944
0.0207067
0.0207181
0.0207289
0.0207388
0.0207479
0.0207562
0.0207638
0.0207707
0.020777
0.0207828
0.0207882
0.0207933
0.0207981
0.0208029
0.0208076
0.0208125
0.0208175
0.0208226
0.0208281
0.0208338
0.0208398
0.0208462
0.0208529
0.0208599
0.0208672
0.0208748
0.0208827
0.0208909
0.0208994
0.0209081
0.0209171
0.0209264
0.020936
0.0209458
0.0209559
0.0209663
0.020977
0.020988
0.0209994
0.0217674
0.0217328
0.0216985
0.0216645
0.0216308
0.0215974
0.0215644
0.0215317
0.0214993
0.0214673
0.0214358
0.0214047
0.0213736
0.0213434
0.0213139
0.0212838
0.021254
0.0212265
0.0211985
0.0211691
0.0211416
0.0211164
0.0210896
0.0210623
0.0210381
0.0210136
0.0209887
0.0209659
0.0209443
0.020921
0.020898
0.0208766
0.0208558
0.0208351
0.0208147
0.0207945
0.0207753
0.0207574
0.0207406
0.0207245
0.0207091
0.0206944
0.0206803
0.020667
0.0206544
0.0206426
0.0206317
0.0206216
0.0206122
0.0206037
0.020596
0.020589
0.0205827
0.0205771
0.0205721
0.0205676
0.0205638
0.0205604
0.0205576
0.0205554
0.0205538
0.0205527
0.0205525
0.0205529
0.020554
0.0205561
0.0205591
0.0205631
0.020568
0.020574
0.0205815
0.0205907
0.0206007
0.0206104
0.0206212
0.0206337
0.0206476
0.0206627
0.0206788
0.0206946
0.02071
0.0207259
0.0207423
0.020759
0.0207755
0.0207918
0.0208076
0.0208229
0.0208374
0.0208511
0.020864
0.020876
0.0208871
0.0208974
0.0209069
0.0209157
0.0209239
0.0209316
0.020939
0.0209461
0.0209531
0.0209601
0.0209672
0.0209744
0.0209819
0.0209896
0.0209977
0.0210061
0.0210149
0.021024
0.0210335
0.0210434
0.0210536
0.0210641
0.0210749
0.021086
0.0210975
0.0211092
0.0211213
0.0211336
0.0211463
0.0211593
0.0211726
0.0211862
0.0212001
0.0212145
0.0218534
0.0218205
0.021788
0.0217558
0.0217239
0.0216924
0.0216612
0.0216305
0.0216
0.02157
0.0215406
0.0215113
0.0214824
0.0214544
0.0214267
0.0213984
0.0213713
0.0213457
0.0213193
0.0212917
0.0212671
0.0212433
0.0212179
0.0211926
0.0211704
0.0211475
0.0211241
0.0211029
0.0210829
0.0210614
0.0210391
0.0210189
0.0209992
0.0209797
0.0209605
0.0209413
0.0209227
0.0209054
0.0208892
0.0208735
0.0208583
0.0208436
0.0208296
0.0208161
0.0208033
0.0207911
0.0207795
0.0207687
0.0207584
0.0207489
0.02074
0.0207317
0.020724
0.0207169
0.0207103
0.0207042
0.0206987
0.0206937
0.0206892
0.0206853
0.0206819
0.0206793
0.0206774
0.0206762
0.0206762
0.0206769
0.0206785
0.0206813
0.0206853
0.0206906
0.0206975
0.0207063
0.0207161
0.0207258
0.0207371
0.0207505
0.0207656
0.0207823
0.0208
0.0208175
0.0208352
0.0208538
0.0208731
0.0208928
0.0209126
0.0209322
0.0209514
0.0209701
0.020988
0.0210051
0.0210213
0.0210365
0.0210507
0.021064
0.0210764
0.021088
0.021099
0.0211094
0.0211194
0.0211291
0.0211387
0.0211483
0.021158
0.0211678
0.0211779
0.0211883
0.0211991
0.0212103
0.0212219
0.0212338
0.0212462
0.0212589
0.021272
0.0212855
0.0212993
0.0213134
0.0213279
0.0213426
0.0213577
0.0213732
0.0213889
0.021405
0.0214214
0.0214382
0.0214554
0.021473
0.0214909
0.0215093
0.0219479
0.0219171
0.0218867
0.0218566
0.0218269
0.0217976
0.0217687
0.0217401
0.021712
0.0216844
0.0216571
0.0216301
0.0216037
0.0215781
0.0215525
0.0215265
0.0215024
0.0214787
0.0214542
0.0214292
0.0214072
0.0213852
0.0213616
0.0213387
0.0213185
0.0212976
0.0212759
0.0212567
0.0212384
0.0212188
0.0211978
0.0211787
0.0211604
0.0211422
0.0211245
0.0211065
0.0210888
0.0210723
0.0210568
0.0210417
0.0210269
0.0210125
0.0209987
0.0209853
0.0209724
0.0209599
0.020948
0.0209366
0.0209257
0.0209154
0.0209055
0.0208962
0.0208873
0.0208789
0.020871
0.0208636
0.0208567
0.0208502
0.0208443
0.020839
0.0208343
0.0208302
0.020827
0.0208246
0.0208233
0.0208233
0.020824
0.0208259
0.0208293
0.0208342
0.0208409
0.0208498
0.0208597
0.0208699
0.0208823
0.0208971
0.0209139
0.0209327
0.0209521
0.0209719
0.0209925
0.0210143
0.021037
0.0210602
0.0210835
0.0211068
0.0211297
0.0211521
0.0211737
0.0211944
0.0212142
0.0212328
0.0212504
0.0212669
0.0212824
0.0212971
0.021311
0.0213243
0.0213372
0.0213498
0.0213623
0.0213747
0.0213873
0.0214
0.0214131
0.0214265
0.0214402
0.0214544
0.021469
0.021484
0.0214995
0.0215153
0.0215315
0.0215481
0.021565
0.0215823
0.0215999
0.0216179
0.0216361
0.0216547
0.0216737
0.021693
0.0217126
0.0217327
0.0217531
0.0217739
0.0217952
0.0218169
0.0220518
0.0220234
0.0219954
0.0219678
0.0219406
0.0219138
0.0218874
0.0218615
0.021836
0.0218109
0.0217863
0.0217619
0.0217383
0.0217152
0.021692
0.021669
0.0216476
0.0216261
0.0216039
0.021582
0.0215627
0.0215427
0.0215215
0.0215011
0.0214832
0.0214644
0.0214449
0.0214276
0.0214112
0.021394
0.0213746
0.0213571
0.0213403
0.0213236
0.0213076
0.0212911
0.0212744
0.0212589
0.0212445
0.0212302
0.021216
0.0212022
0.0211887
0.0211757
0.0211629
0.0211505
0.0211384
0.0211267
0.0211155
0.0211046
0.0210941
0.0210839
0.0210742
0.0210649
0.0210559
0.0210474
0.0210394
0.0210318
0.0210248
0.0210183
0.0210125
0.0210074
0.0210032
0.0209999
0.0209978