/*--------------------------------*- C++ -*----------------------------------*\
| =========                 |                                                 |
| \\      /  F ield         | OpenFOAM: The Open Source CFD Toolbox           |
|  \\    /   O peration     | Version:  v1706                                 |
|   \\  /    A nd           | Web:      www.OpenFOAM.com                      |
|    \\/     M anipulation  |                                                 |
\*---------------------------------------------------------------------------*/
FoamFile
{
    version     2.0;
    format      ascii;
    class       volScalarField;
    location    "1.5e-05";
    object      Mach;
}
// * * * * * * * * * * * * * * * * * * * * * * * * * * * * * * * * * * * * * //

dimensions      [0 0 0 0 0 0 0];


internalField   nonuniform List<scalar> 
29871
(
3.99438
3.99437
3.99436
3.99435
3.99435
3.99435
3.99434
3.99434
3.99434
3.99434
3.99435
3.99435
3.99436
3.99436
3.99437
3.99438
3.99439
3.9944
3.99441
3.99443
3.99444
3.99445
3.99447
3.99448
3.9945
3.99451
3.99453
3.99455
3.99456
3.99458
3.99459
3.99461
3.99462
3.99464
3.99465
3.99466
3.99468
3.99469
3.9947
3.99471
3.99472
3.99473
3.99474
3.99475
3.99476
3.99477
3.99477
3.99478
3.99479
3.99479
3.99479
3.9948
3.9948
3.9948
3.9948
3.99481
3.99481
3.99481
3.99481
3.99481
3.99481
3.9948
3.9948
3.9948
3.9948
3.9948
3.9948
3.9948
3.99479
3.99479
3.99479
3.99479
3.99479
3.99478
3.99478
3.99478
3.99478
3.99478
3.99477
3.99477
3.99477
3.99477
3.99476
3.99476
3.99476
3.99475
3.99475
3.99475
3.99475
3.99474
3.99474
3.99474
3.99473
3.99473
3.99473
3.99472
3.99472
3.99472
3.99471
3.99471
3.99471
3.9947
3.9947
3.9947
3.99469
3.9915
3.99145
3.9914
3.99136
3.99133
3.99131
3.99129
3.99128
3.99128
3.99129
3.9913
3.99132
3.99135
3.99139
3.99143
3.99148
3.99154
3.9916
3.99167
3.99174
3.99182
3.9919
3.99198
3.99207
3.99215
3.99224
3.99233
3.99243
3.99252
3.99261
3.9927
3.99279
3.99287
3.99296
3.99304
3.99312
3.9932
3.99327
3.99334
3.99341
3.99347
3.99353
3.99358
3.99363
3.99368
3.99372
3.99376
3.99379
3.99382
3.99385
3.99387
3.99389
3.9939
3.99392
3.99392
3.99393
3.99393
3.99394
3.99393
3.99393
3.99393
3.99392
3.99392
3.99391
3.9939
3.99389
3.99388
3.99386
3.99385
3.99384
3.99382
3.99381
3.99379
3.99378
3.99376
3.99375
3.99373
3.99372
3.9937
3.99368
3.99367
3.99365
3.99363
3.99361
3.99359
3.99357
3.99356
3.99354
3.99351
3.99349
3.99347
3.99345
3.99343
3.99341
3.99338
3.99336
3.99334
3.99331
3.99329
3.99327
3.99324
3.99322
3.99319
3.99317
3.99315
3.98455
3.98437
3.98421
3.98407
3.98395
3.98385
3.98378
3.98372
3.9837
3.9837
3.98372
3.98376
3.98382
3.98391
3.98402
3.98415
3.9843
3.98447
3.98465
3.98486
3.98507
3.9853
3.98554
3.98579
3.98604
3.98631
3.98658
3.98685
3.98712
3.9874
3.98767
3.98794
3.9882
3.98847
3.98872
3.98897
3.98921
3.98944
3.98966
3.98987
3.99007
3.99026
3.99044
3.9906
3.99075
3.99089
3.99102
3.99113
3.99123
3.99132
3.99139
3.99146
3.99151
3.99156
3.99159
3.99161
3.99163
3.99163
3.99163
3.99162
3.99161
3.99159
3.99157
3.99154
3.99151
3.99147
3.99144
3.99139
3.99135
3.99131
3.99126
3.99121
3.99116
3.99111
3.99106
3.991
3.99095
3.99089
3.99084
3.99078
3.99072
3.99066
3.9906
3.99053
3.99047
3.9904
3.99033
3.99026
3.99019
3.99012
3.99004
3.98996
3.98988
3.9898
3.98972
3.98964
3.98955
3.98947
3.98938
3.98929
3.9892
3.98911
3.98902
3.98893
3.98884
3.98875
3.96775
3.96728
3.96686
3.96649
3.96619
3.96594
3.96576
3.96563
3.96557
3.96557
3.96563
3.96575
3.96591
3.96614
3.96642
3.96676
3.96715
3.96759
3.96807
3.96859
3.96915
3.96974
3.97036
3.971
3.97167
3.97235
3.97304
3.97374
3.97445
3.97516
3.97586
3.97656
3.97725
3.97792
3.97858
3.97921
3.97983
3.98042
3.98098
3.98152
3.98202
3.9825
3.98294
3.98336
3.98374
3.98408
3.9844
3.98468
3.98492
3.98514
3.98532
3.98548
3.9856
3.9857
3.98577
3.98581
3.98583
3.98583
3.9858
3.98578
3.98573
3.98566
3.98558
3.98549
3.98538
3.98527
3.98515
3.98502
3.98489
3.98475
3.98461
3.98446
3.9843
3.98415
3.98399
3.98382
3.98366
3.98349
3.98331
3.98313
3.98295
3.98277
3.98258
3.98238
3.98218
3.98197
3.98176
3.98154
3.98132
3.98109
3.98086
3.98062
3.98038
3.98013
3.97987
3.97962
3.97935
3.97909
3.97881
3.97854
3.97826
3.97798
3.9777
3.97741
3.97712
3.97683
3.93064
3.92947
3.92842
3.9275
3.92671
3.92605
3.92553
3.92516
3.92492
3.92483
3.92488
3.92507
3.92541
3.92581
3.92637
3.92707
3.92789
3.92883
3.92987
3.931
3.93223
3.93354
3.93492
3.93637
3.93787
3.93942
3.94101
3.94262
3.94424
3.94588
3.94752
3.94915
3.95076
3.95235
3.95391
3.95544
3.95691
3.95834
3.95971
3.96102
3.96227
3.96345
3.96455
3.96557
3.96652
3.96739
3.96817
3.96888
3.9695
3.97004
3.97051
3.97089
3.97121
3.97145
3.97163
3.97174
3.97179
3.97178
3.97171
3.97163
3.9715
3.97132
3.9711
3.97085
3.97057
3.97027
3.96994
3.96959
3.96923
3.96885
3.96846
3.96806
3.96764
3.96722
3.96679
3.96635
3.9659
3.96544
3.96497
3.9645
3.96401
3.9635
3.96299
3.96246
3.96192
3.96136
3.96079
3.9602
3.9596
3.95898
3.95834
3.95768
3.95701
3.95632
3.95561
3.95489
3.95415
3.9534
3.95263
3.95185
3.95106
3.95025
3.94944
3.94861
3.94778
3.94693
3.94608
3.8503
3.8479
3.84578
3.84394
3.84238
3.84112
3.84016
3.8395
3.83914
3.83909
3.83933
3.83986
3.84068
3.84164
3.84294
3.84453
3.84637
3.84844
3.85073
3.85322
3.85589
3.85874
3.86174
3.86487
3.86811
3.87145
3.87487
3.87834
3.88185
3.88537
3.88889
3.8924
3.89586
3.89927
3.90261
3.90586
3.90902
3.91206
3.91497
3.91775
3.92038
3.92286
3.92518
3.92733
3.92931
3.93111
3.93274
3.93419
3.93545
3.93654
3.93745
3.93819
3.93875
3.93916
3.9394
3.93951
3.93946
3.93927
3.93905
3.93872
3.93826
3.9377
3.93707
3.93636
3.93558
3.93475
3.93388
3.93295
3.93199
3.931
3.92998
3.92893
3.92785
3.92675
3.92563
3.92449
3.92332
3.92212
3.9209
3.91966
3.91839
3.91709
3.91575
3.91438
3.91298
3.91154
3.91005
3.90853
3.90696
3.90535
3.90369
3.90199
3.90025
3.89846
3.89662
3.89475
3.89283
3.89087
3.88887
3.88684
3.88478
3.88268
3.88056
3.8784
3.87623
3.87403
3.87181
3.71149
3.70606
3.70109
3.69662
3.69265
3.6892
3.68629
3.68392
3.6821
3.68081
3.68006
3.67985
3.68021
3.68106
3.68245
3.6843
3.68634
3.68904
3.69223
3.69587
3.6999
3.70431
3.70907
3.71415
3.71952
3.72516
3.73103
3.73709
3.74333
3.74971
3.75619
3.76274
3.76934
3.77594
3.78252
3.78905
3.79549
3.80182
3.808
3.814
3.81981
3.82538
3.8307
3.83573
3.84046
3.84487
3.84894
3.85265
3.856
3.85898
3.86158
3.86382
3.86569
3.86718
3.86833
3.86912
3.86957
3.86971
3.86951
3.86902
3.86846
3.86763
3.86652
3.86518
3.86367
3.86199
3.86017
3.85822
3.85616
3.854
3.85177
3.84946
3.84709
3.84467
3.84219
3.83968
3.83712
3.83452
3.83188
3.82919
3.82646
3.82368
3.82085
3.81795
3.81499
3.81196
3.80886
3.80568
3.80241
3.79906
3.79561
3.79207
3.78843
3.78469
3.78085
3.77691
3.77287
3.76873
3.76449
3.76016
3.75573
3.75122
3.74663
3.74196
3.73722
3.73242
3.72757
3.72266
3.71771
3.71272
3.4715
3.46419
3.45765
3.45191
3.44697
3.44284
3.43952
3.43703
3.43534
3.43445
3.43433
3.43502
3.43638
3.43862
3.44157
3.4448
3.44865
3.45333
3.45869
3.46467
3.4712
3.47825
3.4858
3.49379
3.5022
3.511
3.52014
3.52958
3.53928
3.5492
3.55929
3.56952
3.57983
3.59019
3.60053
3.61081
3.62098
3.63099
3.64078
3.65031
3.65953
3.66838
3.67683
3.68483
3.69234
3.69933
3.70575
3.71157
3.71678
3.72134
3.72525
3.72849
3.73106
3.73298
3.73422
3.7348
3.73477
3.73416
3.73292
3.73164
3.72976
3.72735
3.72453
3.72137
3.71789
3.71415
3.71016
3.70598
3.70162
3.69712
3.6925
3.68778
3.68298
3.67811
3.67317
3.66817
3.66312
3.658
3.65283
3.64759
3.64228
3.63689
3.63143
3.62587
3.62021
3.61444
3.60857
3.60256
3.59643
3.59017
3.58376
3.5772
3.5705
3.56365
3.55664
3.54949
3.54218
3.53473
3.52715
3.51942
3.51158
3.50362
3.49555
3.48739
3.47914
3.47083
3.46246
3.45407
3.44565
3.43722
3.16967
3.16366
3.15861
3.15451
3.15132
3.14902
3.14761
3.14709
3.14748
3.14877
3.15072
3.15342
3.15683
3.16115
3.16634
3.17088
3.17674
3.18345
3.19077
3.19865
3.20704
3.21593
3.22528
3.23505
3.24522
3.25576
3.26664
3.27781
3.28924
3.3009
3.31277
3.32482
3.33699
3.34925
3.36155
3.37383
3.38604
3.39811
3.40999
3.4216
3.43286
3.4437
3.45404
3.46381
3.47292
3.48131
3.4889
3.49565
3.50151
3.50644
3.51043
3.51347
3.51554
3.51665
3.5168
3.51587
3.51413
3.51166
3.50909
3.50541
3.50101
3.49603
3.49055
3.48463
3.47833
3.47171
3.46482
3.45773
3.45046
3.44306
3.43558
3.42804
3.42047
3.41288
3.40529
3.39771
3.39013
3.38255
3.37496
3.36735
3.35971
3.35203
3.3443
3.33651
3.32865
3.32071
3.31268
3.30454
3.2963
3.28795
3.27949
3.27091
3.26221
3.25339
3.24446
3.23542
3.22629
3.21706
3.20774
3.19836
3.18892
3.17943
3.16992
3.16039
3.15087
3.14136
3.13188
3.12245
3.11313
3.10395
2.90715
2.9073
2.90831
2.9101
2.91246
2.91541
2.9189
2.92283
2.92718
2.93216
2.93757
2.94368
2.94873
2.9549
2.96182
2.9686
2.9756
2.98298
2.99071
2.99871
3.00693
3.01532
3.02391
3.03268
3.04161
3.05072
3.05999
3.06943
3.07906
3.08885
3.09877
3.10879
3.11892
3.12916
3.13944
3.14971
3.15989
3.1699
3.17968
3.18913
3.19819
3.2068
3.21488
3.22237
3.22917
3.23521
3.24041
3.24474
3.24814
3.25056
3.25194
3.25227
3.25161
3.24997
3.24735
3.24318
3.23874
3.23446
3.22874
3.22226
3.21526
3.20785
3.20009
3.19207
3.18384
3.17546
3.16701
3.15851
3.15002
3.14158
3.1332
3.12491
3.11671
3.10865
3.10077
3.09309
3.08558
3.07826
3.0711
3.06409
3.05721
3.05044
3.04377
3.03718
3.03068
3.02425
3.01789
3.0116
3.00537
2.99922
2.99315
2.98715
2.98123
2.97541
2.96968
2.96405
2.95853
2.95313
2.94786
2.94272
2.93772
2.93286
2.92816
2.92362
2.91925
2.91505
2.91101
2.90715
2.90344
2.89987
2.7896
2.79504
2.80087
2.80687
2.81316
2.8197
2.82623
2.83321
2.83875
2.84547
2.85293
2.85993
2.86664
2.87394
2.88148
2.88873
2.89597
2.90337
2.91086
2.91829
2.92562
2.93287
2.94008
2.94719
2.95418
2.96109
2.96791
2.97455
2.98099
2.98731
2.99349
2.99958
3.00554
3.01128
3.0168
3.02206
3.02705
3.03175
3.03611
3.04012
3.04373
3.04688
3.04948
3.0515
3.05288
3.05349
3.05326
3.05219
3.05024
3.04755
3.04393
3.03948
3.03405
3.02919
3.02365
3.01665
3.0097
3.00274
2.99549
2.98811
2.98077
2.97355
2.96652
2.95972
2.95321
2.947
2.94113
2.93563
2.93047
2.92566
2.92119
2.91706
2.91325
2.90971
2.90638
2.90323
2.90023
2.89737
2.89463
2.892
2.88947
2.88702
2.88465
2.88235
2.88012
2.87794
2.8758
2.87372
2.87167
2.86966
2.8677
2.86577
2.86389
2.86206
2.86027
2.85852
2.85683
2.85518
2.85359
2.85204
2.85055
2.8491
2.8477
2.84634
2.84502
2.84374
2.84252
2.84133
2.84019
2.8391
2.7429
2.74943
2.75633
2.7645
2.77243
2.77972
2.78757
2.79583
2.80334
2.81051
2.81807
2.82599
2.83335
2.84066
2.84821
2.85589
2.86335
2.87069
2.87796
2.88512
2.89234
2.8992
2.90585
2.91251
2.91896
2.92515
2.93109
2.93685
2.94242
2.94773
2.95277
2.95749
2.96189
2.96607
2.9699
2.97335
2.97634
2.97881
2.9807
2.982
2.98269
2.98282
2.98243
2.9814
2.97983
2.97777
2.97494
2.97138
2.96714
2.96224
2.95664
2.95077
2.94411
2.93678
2.93044
2.92348
2.91603
2.90886
2.90198
2.89525
2.88883
2.88286
2.8774
2.87236
2.86771
2.86349
2.85969
2.85628
2.85322
2.85053
2.84818
2.84612
2.84431
2.8427
2.84128
2.84006
2.83901
2.8381
2.83731
2.83662
2.836
2.83543
2.83489
2.83437
2.83386
2.83335
2.83283
2.83231
2.83179
2.83125
2.83072
2.83017
2.82963
2.82908
2.82852
2.82797
2.82742
2.82687
2.82633
2.8258
2.82528
2.82476
2.82427
2.82379
2.82334
2.8229
2.82247
2.82207
2.82168
2.82132
2.82098
2.72757
2.73518
2.74291
2.75088
2.75875
2.76654
2.77462
2.78296
2.79071
2.79847
2.80648
2.81452
2.8222
2.82974
2.83734
2.84518
2.85259
2.85973
2.86712
2.8745
2.88109
2.88763
2.89487
2.90108
2.90677
2.91323
2.91938
2.92443
2.92945
2.93503
2.93979
2.94424
2.94728
2.95074
2.95455
2.95733
2.9594
2.96097
2.96184
2.96213
2.96175
2.96071
2.95891
2.95653
2.95372
2.95037
2.94612
2.94123
2.93583
2.93002
2.92383
2.9174
2.91054
2.90338
2.8967
2.88975
2.88249
2.87595
2.86946
2.8634
2.85807
2.85246
2.8475
2.84351
2.83961
2.83576
2.83273
2.83004
2.8276
2.82555
2.82387
2.82246
2.82132
2.82042
2.81975
2.81925
2.81886
2.81858
2.81839
2.81829
2.81823
2.81821
2.81819
2.81819
2.81819
2.81818
2.81816
2.81812
2.81806
2.81799
2.81789
2.81777
2.81763
2.81748
2.81731
2.81714
2.81696
2.81679
2.81661
2.81643
2.81626
2.8161
2.81596
2.81582
2.8157
2.81559
2.81548
2.81537
2.81526
2.81517
2.81507
2.81496
2.81484
2.71865
2.72679
2.73492
2.74305
2.75103
2.75889
2.76708
2.77527
2.78297
2.79076
2.79884
2.80686
2.81462
2.82219
2.82976
2.83768
2.84498
2.85191
2.85952
2.86697
2.87341
2.88005
2.88733
2.89327
2.89888
2.90497
2.91049
2.91487
2.91959
2.92449
2.92856
2.93264
2.93595
2.93928
2.94221
2.94482
2.94698
2.94855
2.9495
2.94982
2.94954
2.94855
2.94686
2.94446
2.94142
2.93774
2.93338
2.92843
2.92296
2.91708
2.91095
2.90462
2.89802
2.89133
2.88462
2.87791
2.87158
2.86566
2.85904
2.85352
2.84867
2.84345
2.83871
2.83498
2.83115
2.82763
2.82461
2.82213
2.81971
2.81772
2.81601
2.81473
2.81366
2.81282
2.81213
2.81166
2.81147
2.81129
2.81125
2.81131
2.81143
2.81158
2.81176
2.81194
2.81212
2.81228
2.81242
2.81254
2.81264
2.8127
2.81274
2.81275
2.81273
2.81269
2.81263
2.81255
2.81246
2.81236
2.81224
2.81211
2.81198
2.81184
2.8117
2.81156
2.81143
2.81127
2.81112
2.811
2.81086
2.8107
2.81056
2.81043
2.81029
2.69406
2.70232
2.71052
2.71868
2.72687
2.73501
2.74299
2.7509
2.75925
2.76737
2.77523
2.78323
2.79131
2.79929
2.80719
2.8147
2.82221
2.83012
2.8372
2.84398
2.85178
2.85874
2.86497
2.87174
2.87864
2.88431
2.89023
2.89623
2.90169
2.90585
2.9109
2.91559
2.91955
2.92349
2.9269
2.92973
2.93221
2.93433
2.936
2.93716
2.93775
2.93778
2.93732
2.9363
2.93473
2.93263
2.93002
2.92687
2.92316
2.91893
2.9142
2.90903
2.90362
2.89793
2.89198
2.88608
2.88014
2.87329
2.86746
2.86201
2.85591
2.85033
2.84572
2.84088
2.83632
2.83232
2.82855
2.82504
2.82195
2.81913
2.81662
2.81442
2.8126
2.81105
2.80976
2.80873
2.80794
2.80742
2.8071
2.8069
2.80683
2.80686
2.80695
2.80708
2.80725
2.80743
2.80762
2.80781
2.80799
2.80815
2.80828
2.80839
2.80846
2.8085
2.80852
2.8085
2.80846
2.8084
2.80832
2.80822
2.80811
2.80799
2.80785
2.80771
2.80757
2.80742
2.80727
2.80711
2.80695
2.80679
2.80664
2.80647
2.80633
2.8062
2.80604
2.68703
2.69536
2.70361
2.71182
2.72008
2.72823
2.73623
2.74425
2.75263
2.76059
2.7685
2.77663
2.78448
2.79235
2.80036
2.80769
2.81515
2.82294
2.82979
2.8366
2.84425
2.8508
2.8569
2.86373
2.87011
2.87544
2.8816
2.88718
2.89234
2.89638
2.90139
2.90564
2.90948
2.9133
2.91668
2.91967
2.92211
2.92397
2.92533
2.92621
2.92661
2.92649
2.92597
2.92498
2.92352
2.92159
2.9192
2.91633
2.91299
2.90922
2.90508
2.90063
2.89595
2.89113
2.88619
2.88113
2.87588
2.87025
2.86489
2.85971
2.85402
2.84897
2.84436
2.83977
2.83536
2.83129
2.82748
2.82391
2.82065
2.81764
2.81483
2.81242
2.81042
2.80865
2.80709
2.80588
2.80493
2.80419
2.80365
2.80329
2.80309
2.80301
2.80303
2.80311
2.80324
2.80339
2.80356
2.80373
2.80389
2.80403
2.80415
2.80424
2.80429
2.80432
2.80431
2.80427
2.80421
2.80412
2.80401
2.80388
2.80373
2.80357
2.80341
2.80324
2.80307
2.8029
2.80272
2.80253
2.80234
2.80215
2.80196
2.80176
2.80153
2.80131
2.80109
2.80084
2.62199
2.63029
2.63861
2.64694
2.65529
2.66366
2.67203
2.68039
2.68871
2.69695
2.70516
2.71341
2.72149
2.72945
2.73757
2.74575
2.75353
2.7615
2.76957
2.77709
2.78488
2.79296
2.8
2.80741
2.81498
2.82159
2.82856
2.83586
2.84202
2.84826
2.85481
2.86075
2.86588
2.87185
2.87714
2.88196
2.88664
2.89115
2.89513
2.89897
2.90253
2.9057
2.90846
2.91084
2.9127
2.914
2.91478
2.9151
2.91493
2.91436
2.91339
2.91201
2.91023
2.90807
2.90552
2.90259
2.89932
2.89573
2.89189
2.88787
2.8837
2.87941
2.87505
2.87049
2.86577
2.86115
2.85635
2.85102
2.84652
2.84248
2.83802
2.83377
2.82982
2.82606
2.8225
2.81916
2.81604
2.81303
2.81043
2.80823
2.80624
2.80443
2.803
2.80183
2.80085
2.80008
2.79951
2.79912
2.79888
2.79876
2.79872
2.79874
2.79882
2.79891
2.79902
2.79913
2.79923
2.79931
2.79936
2.79939
2.79938
2.79934
2.79926
2.79915
2.79902
2.79885
2.79865
2.79843
2.7982
2.79794
2.79765
2.79735
2.79703
2.79669
2.79635
2.79599
2.79563
2.79527
2.79489
2.79451
2.79414
2.79377
2.79337
2.61498
2.62331
2.63165
2.63999
2.64834
2.65668
2.66501
2.67332
2.68157
2.68974
2.69791
2.70606
2.71404
2.72192
2.73005
2.73789
2.74553
2.75361
2.76134
2.76859
2.77642
2.78432
2.79107
2.79845
2.80572
2.8121
2.81919
2.82604
2.83187
2.8384
2.84446
2.85003
2.85494
2.86068
2.86581
2.87061
2.87518
2.87952
2.88354
2.88721
2.89053
2.8935
2.89611
2.89835
2.90018
2.9015
2.90231
2.90266
2.90257
2.90205
2.90118
2.89994
2.89834
2.89642
2.89418
2.89163
2.88879
2.88571
2.88242
2.87897
2.87538
2.87168
2.86794
2.86409
2.8601
2.856
2.85177
2.84684
2.84266
2.83897
2.83479
2.83068
2.8269
2.82327
2.81977
2.81642
2.81325
2.81016
2.80747
2.8051
2.80287
2.80083
2.7992
2.7978
2.79657
2.79556
2.79478
2.79419
2.79377
2.79349
2.79332
2.79323
2.7932
2.79322
2.79325
2.79327
2.79326
2.79322
2.79315
2.79303
2.79286
2.79266
2.79242
2.79215
2.79185
2.79152
2.79116
2.79078
2.79038
2.78995
2.78951
2.78906
2.7886
2.78812
2.78764
2.78714
2.78664
2.78613
2.78561
2.78508
2.78456
2.78403
2.78349
2.60758
2.61588
2.62419
2.63248
2.64077
2.64903
2.65728
2.66548
2.67361
2.68167
2.68974
2.69773
2.70554
2.71338
2.72131
2.72885
2.73641
2.74444
2.75176
2.75879
2.76672
2.77414
2.78067
2.78806
2.79488
2.80119
2.8082
2.81447
2.82026
2.82682
2.83249
2.8377
2.84236
2.84798
2.85295
2.85753
2.86202
2.86628
2.87018
2.87372
2.87691
2.87975
2.88225
2.88441
2.88618
2.88756
2.88847
2.88894
2.88899
2.88865
2.88794
2.88691
2.88557
2.88394
2.88203
2.87986
2.87746
2.87484
2.87205
2.86912
2.86604
2.86285
2.85964
2.85636
2.85291
2.84935
2.84568
2.84107
2.83719
2.83372
2.82981
2.82582
2.82219
2.81869
2.81525
2.81191
2.80871
2.80559
2.80284
2.8003
2.79784
2.79566
2.79384
2.79222
2.79078
2.78955
2.78855
2.78776
2.78715
2.78669
2.78632
2.78602
2.78576
2.7855
2.78526
2.78504
2.7848
2.78456
2.78429
2.784
2.78368
2.78333
2.78294
2.78251
2.78206
2.78157
2.78104
2.7805
2.77992
2.77933
2.77871
2.77808
2.77743
2.77676
2.77607
2.77537
2.77465
2.77392
2.77318
2.77243
2.77167
2.77089
2.77011
2.59956
2.60779
2.61601
2.62421
2.63239
2.64052
2.64863
2.65668
2.66464
2.67255
2.68046
2.68822
2.69585
2.70361
2.71117
2.71844
2.72604
2.7337
2.7407
2.74756
2.75546
2.76229
2.76866
2.77597
2.78227
2.78866
2.79533
2.80105
2.80686
2.81313
2.81858
2.82345
2.82816
2.83351
2.83821
2.84266
2.84705
2.85113
2.85486
2.85827
2.86137
2.86414
2.86657
2.86867
2.87041
2.87179
2.8728
2.87345
2.87372
2.87362
2.87318
2.87243
2.87138
2.87009
2.86855
2.86678
2.86479
2.86262
2.8603
2.85782
2.8552
2.85249
2.84973
2.84686
2.84384
2.84076
2.83759
2.83342
2.82981
2.82647
2.82278
2.81889
2.81537
2.81199
2.80862
2.80528
2.80207
2.79895
2.79604
2.79335
2.79078
2.78847
2.78645
2.78461
2.78294
2.78147
2.78022
2.77914
2.77819
2.77734
2.7766
2.77596
2.7754
2.7749
2.77444
2.774
2.77355
2.7731
2.77263
2.77213
2.7716
2.77103
2.77043
2.76978
2.7691
2.76838
2.76763
2.76684
2.76602
2.76517
2.76429
2.76338
2.76245
2.76149
2.76051
2.7595
2.75848
2.75743
2.75636
2.75528
2.75418
2.75305
2.75191
2.75075
2.74957
2.59077
2.59888
2.60696
2.61501
2.62302
2.63098
2.63889
2.64673
2.65449
2.6622
2.66986
2.67735
2.6848
2.69232
2.69951
2.70652
2.71412
2.7212
2.72794
2.73473
2.74229
2.74857
2.75489
2.76195
2.76782
2.77409
2.78039
2.78574
2.79123
2.79709
2.80229
2.80713
2.81204
2.81697
2.82143
2.82576
2.82995
2.83381
2.83735
2.84062
2.84361
2.84631
2.8487
2.85077
2.8525
2.85389
2.85494
2.85565
2.85605
2.85614
2.85594
2.85545
2.8547
2.85372
2.85251
2.85109
2.8495
2.84774
2.84583
2.84379
2.84163
2.83937
2.83703
2.83461
2.83206
2.82942
2.82672
2.82321
2.8199
2.8167
2.81324
2.80944
2.80601
2.80273
2.79942
2.79611
2.79288
2.78975
2.78664
2.78379
2.78114
2.77869
2.77642
2.77429
2.7723
2.77044
2.76874
2.76723
2.76589
2.76472
2.76367
2.76272
2.76185
2.76104
2.76027
2.75952
2.75877
2.75802
2.75724
2.75644
2.7556
2.75472
2.75381
2.75285
2.75185
2.7508
2.74971
2.74858
2.74741
2.7462
2.74496
2.74367
2.74235
2.741
2.73961
2.7382
2.73675
2.73527
2.73377
2.73224
2.73068
2.72909
2.72748
2.72583
2.72417
2.58102
2.58895
2.59684
2.60468
2.61246
2.62019
2.62785
2.63543
2.64293
2.65039
2.65773
2.66492
2.67216
2.67928
2.68611
2.69293
2.70024
2.70679
2.71319
2.72001
2.72694
2.7328
2.73904
2.74575
2.75126
2.75719
2.76309
2.76834
2.77321
2.77869
2.7837
2.78845
2.79322
2.79783
2.80214
2.80635
2.81032
2.81395
2.8173
2.82041
2.82329
2.8259
2.82824
2.83028
2.83202
2.83345
2.83456
2.83537
2.83588
2.83611
2.83608
2.83581
2.8353
2.83459
2.83367
2.83258
2.83133
2.82993
2.82838
2.82671
2.82492
2.82303
2.82104
2.81893
2.81669
2.81441
2.81203
2.80923
2.80635
2.80345
2.80036
2.79676
2.79341
2.79024
2.787
2.7837
2.78045
2.77726
2.77396
2.77089
2.76805
2.7653
2.76265
2.7601
2.75769
2.75546
2.7534
2.75152
2.7498
2.74821
2.74675
2.74537
2.74408
2.74284
2.74164
2.74047
2.7393
2.73813
2.73693
2.73572
2.73446
2.73317
2.73184
2.73045
2.72902
2.72754
2.72601
2.72442
2.72279
2.72111
2.71938
2.71761
2.71579
2.71392
2.71202
2.71007
2.70809
2.70606
2.704
2.7019
2.69977
2.6976
2.69539
2.69314
2.69086
2.56237
2.5701
2.57778
2.58541
2.59297
2.60047
2.6079
2.61526
2.62252
2.6297
2.63682
2.6438
2.65067
2.65759
2.66427
2.6707
2.67738
2.6841
2.69023
2.69623
2.70302
2.70917
2.7147
2.72077
2.72705
2.73219
2.7377
2.74324
2.74837
2.7526
2.75764
2.7625
2.76697
2.77138
2.77576
2.77992
2.78394
2.7877
2.79113
2.79429
2.79723
2.79996
2.80247
2.80472
2.80672
2.80845
2.80991
2.81108
2.81198
2.81261
2.81299
2.81312
2.81304
2.81274
2.81226
2.81159
2.81077
2.8098
2.80868
2.80744
2.80607
2.80459
2.80298
2.80127
2.79942
2.79743
2.79541
2.79332
2.79094
2.78831
2.78559
2.78281
2.77957
2.77633
2.77326
2.77006
2.76675
2.76346
2.76016
2.75666
2.75332
2.75018
2.74713
2.74416
2.74127
2.7385
2.73586
2.73337
2.731
2.72877
2.72665
2.72465
2.72273
2.72088
2.7191
2.71735
2.71563
2.71393
2.71222
2.7105
2.70875
2.70697
2.70515
2.70328
2.70136
2.69938
2.69735
2.69526
2.69311
2.6909
2.68864
2.68631
2.68394
2.6815
2.67902
2.67648
2.67389
2.67125
2.66856
2.66583
2.66305
2.66023
2.65735
2.65444
2.65147
2.64846
2.5503
2.55773
2.56509
2.57239
2.57962
2.58676
2.59383
2.60081
2.60769
2.6145
2.62121
2.62778
2.63429
2.64077
2.64698
2.653
2.65941
2.66545
2.67118
2.67682
2.68329
2.68872
2.69388
2.69968
2.70547
2.71021
2.7153
2.72053
2.72529
2.72903
2.73354
2.73817
2.74228
2.74637
2.75045
2.75434
2.75812
2.76165
2.76486
2.76782
2.77058
2.77314
2.7755
2.77764
2.77956
2.78125
2.78269
2.78389
2.78484
2.78556
2.78604
2.78631
2.78637
2.78625
2.78594
2.78548
2.78486
2.7841
2.78322
2.7822
2.78107
2.77982
2.77846
2.77696
2.77531
2.77356
2.77175
2.76985
2.76771
2.7653
2.76274
2.76015
2.75705
2.7539
2.75087
2.74766
2.74432
2.74095
2.73743
2.73377
2.73028
2.7269
2.72353
2.72017
2.71685
2.71362
2.71047
2.70741
2.70446
2.7016
2.69885
2.69619
2.69361
2.69111
2.68866
2.68626
2.68389
2.68154
2.67918
2.67682
2.67443
2.67201
2.66955
2.66704
2.66447
2.66185
2.65916
2.6564
2.65358
2.65069
2.64774
2.64471
2.64163
2.63848
2.63526
2.63199
2.62866
2.62527
2.62182
2.61832
2.61476
2.61115
2.60748
2.60376
2.59999
2.59616
2.59227
2.58832
2.53655
2.5436
2.55058
2.55748
2.56429
2.57102
2.57765
2.58419
2.59063
2.59699
2.60322
2.60933
2.6154
2.62136
2.62709
2.6327
2.6386
2.64402
2.64927
2.65459
2.66043
2.66526
2.67
2.67539
2.68065
2.68495
2.68953
2.69445
2.69872
2.70209
2.70597
2.7103
2.71404
2.71777
2.72148
2.72499
2.72845
2.73174
2.73469
2.7374
2.73994
2.7423
2.74447
2.74645
2.74823
2.74982
2.75119
2.75236
2.75331
2.75405
2.75458
2.75493
2.75508
2.75507
2.75489
2.75456
2.75409
2.75349
2.75276
2.75191
2.75095
2.74987
2.74868
2.74734
2.74585
2.74424
2.74258
2.74081
2.73882
2.73655
2.73412
2.73168
2.72868
2.72559
2.72254
2.71925
2.71582
2.71229
2.70845
2.70463
2.70091
2.69718
2.69338
2.68954
2.68571
2.68191
2.67815
2.67444
2.67081
2.66724
2.66376
2.66036
2.65703
2.65378
2.65058
2.64742
2.6443
2.6412
2.63811
2.63501
2.63189
2.62874
2.62554
2.62229
2.61899
2.61562
2.61218
2.60867
2.60509
2.60143
2.5977
2.5939
2.59002
2.58607
2.58205
2.57797
2.57382
2.5696
2.56533
2.56099
2.55659
2.55213
2.54761
2.54303
2.53838
2.53368
2.52891
2.52408
2.52077
2.52738
2.53389
2.54031
2.54664
2.55287
2.55901
2.56503
2.57096
2.57679
2.58249
2.58808
2.59362
2.59901
2.60421
2.60938
2.61461
2.61949
2.62416
2.62909
2.63414
2.63844
2.64266
2.6475
2.65221
2.65602
2.65999
2.66449
2.66828
2.67137
2.67459
2.6785
2.68184
2.68511
2.68842
2.69147
2.69451
2.69751
2.70016
2.70256
2.70481
2.70691
2.70884
2.71059
2.71218
2.71361
2.71485
2.71591
2.71679
2.71748
2.718
2.71835
2.71854
2.71856
2.71845
2.71819
2.7178
2.71729
2.71666
2.71591
2.71504
2.71407
2.71297
2.71173
2.71034
2.70882
2.70722
2.7055
2.70357
2.70136
2.699
2.69665
2.69363
2.69056
2.6874
2.68396
2.68037
2.6765
2.67239
2.66833
2.66425
2.66006
2.65576
2.65137
2.64694
2.64249
2.63805
2.63362
2.62923
2.62489
2.62062
2.6164
2.61226
2.60818
2.60415
2.60018
2.59624
2.59233
2.58843
2.58452
2.58059
2.57664
2.57264
2.56859
2.56448
2.5603
2.55605
2.55173
2.54733
2.54284
2.53828
2.53364
2.52893
2.52414
2.51927
2.51434
2.50933
2.50426
2.49912
2.49392
2.48865
2.48332
2.47793
2.47247
2.46695
2.46136
2.45571
2.44999
2.50262
2.5087
2.51467
2.52054
2.52631
2.53198
2.53754
2.54298
2.54833
2.55356
2.55867
2.56367
2.56859
2.57337
2.57798
2.58259
2.58712
2.59143
2.59552
2.59988
2.6041
2.60789
2.61152
2.61568
2.61977
2.62306
2.62637
2.63027
2.63363
2.6364
2.63901
2.64236
2.64526
2.648
2.6509
2.65341
2.65589
2.65854
2.66085
2.66286
2.66476
2.66653
2.66816
2.66963
2.67097
2.67216
2.6732
2.67409
2.67482
2.6754
2.67583
2.67611
2.67624
2.67624
2.67612
2.67586
2.67549
2.675
2.67439
2.67367
2.67284
2.67189
2.67082
2.66961
2.66825
2.66674
2.66513
2.6634
2.66144
2.6592
2.65684
2.65446
2.65131
2.64818
2.64481
2.64115
2.63729
2.63301
2.62862
2.62421
2.61967
2.61495
2.61007
2.60507
2.59998
2.59483
2.58965
2.58445
2.57926
2.5741
2.56899
2.56393
2.55893
2.55399
2.54911
2.54428
2.53949
2.53473
2.52998
2.52523
2.52046
2.51567
2.51084
2.50595
2.501
2.49598
2.49089
2.48573
2.48048
2.47516
2.46975
2.46427
2.4587
2.45306
2.44735
2.44157
2.43571
2.42979
2.42381
2.41775
2.41164
2.40546
2.39921
2.39291
2.38654
2.38011
2.37361
2.36704
2.36041
2.48721
2.49257
2.49782
2.50295
2.50798
2.51289
2.51769
2.52238
2.52694
2.53139
2.53574
2.53998
2.54409
2.54806
2.552
2.55583
2.5595
2.56298
2.5666
2.57006
2.57328
2.57629
2.57963
2.58301
2.58576
2.58841
2.59152
2.59447
2.5968
2.59888
2.60156
2.60392
2.6061
2.60855
2.61056
2.61233
2.61444
2.61643
2.61801
2.61947
2.62086
2.62212
2.62325
2.62426
2.62517
2.62594
2.62659
2.6271
2.62749
2.62775
2.62789
2.62791
2.62781
2.6276
2.62728
2.62685
2.62631
2.62567
2.62491
2.62404
2.62306
2.62195
2.62069
2.61929
2.61772
2.61605
2.61422
2.61214
2.60979
2.60739
2.60477
2.60145
2.59813
2.59447
2.59054
2.58625
2.58159
2.57686
2.572
2.56691
2.56161
2.55611
2.55044
2.54466
2.53877
2.53283
2.52684
2.52084
2.51486
2.5089
2.503
2.49714
2.49135
2.48561
2.47993
2.47429
2.46868
2.46308
2.45749
2.45189
2.44625
2.44058
2.43486
2.42908
2.42323
2.41732
2.41132
2.40525
2.3991
2.39288
2.38657
2.3802
2.37374
2.36722
2.36063
2.35398
2.34726
2.34047
2.33363
2.32672
2.31975
2.31273
2.30564
2.2985
2.29129
2.28402
2.2767
2.2693
2.46259
2.46726
2.47181
2.47624
2.48056
2.48476
2.48884
2.4928
2.49665
2.50037
2.50399
2.5075
2.51088
2.51415
2.51735
2.52044
2.5234
2.52622
2.52904
2.53176
2.53433
2.53669
2.53918
2.54175
2.54391
2.5459
2.54816
2.55061
2.55235
2.55392
2.55592
2.55763
2.5592
2.56113
2.56265
2.56369
2.56515
2.56676
2.56786
2.56882
2.56977
2.5706
2.57132
2.57197
2.57252
2.57297
2.57331
2.57355
2.57368
2.57371
2.57364
2.57348
2.57321
2.57285
2.5724
2.57185
2.5712
2.57045
2.56959
2.56862
2.56754
2.56632
2.56496
2.56343
2.56175
2.55994
2.55794
2.55566
2.55315
2.55064
2.54754
2.54409
2.54045
2.53645
2.53215
2.52738
2.52236
2.5172
2.5118
2.50613
2.50021
2.49406
2.48772
2.48122
2.47461
2.4679
2.46115
2.45436
2.44758
2.44082
2.4341
2.42744
2.42083
2.41427
2.40778
2.40132
2.3949
2.38849
2.38209
2.37568
2.36925
2.36278
2.35627
2.34969
2.34306
2.33636
2.32959
2.32275
2.31583
2.30885
2.30179
2.29466
2.28747
2.28021
2.27289
2.26551
2.25807
2.25058
2.24303
2.23542
2.22776
2.22005
2.21228
2.20446
2.19659
2.18866
2.18068
2.17263
2.43847
2.44226
2.44593
2.44948
2.4529
2.45621
2.45939
2.46246
2.4654
2.46824
2.47096
2.47357
2.47606
2.47848
2.48079
2.48298
2.48507
2.48709
2.48905
2.49088
2.49255
2.49422
2.49595
2.49744
2.49875
2.50021
2.50193
2.50302
2.50404
2.50539
2.50639
2.50727
2.50856
2.50959
2.50999
2.51077
2.51189
2.51246
2.51286
2.51333
2.51369
2.51396
2.51418
2.51434
2.51442
2.5144
2.51431
2.51413
2.51388
2.51355
2.51314
2.51265
2.51209
2.51144
2.51071
2.50989
2.50897
2.50796
2.50684
2.50559
2.50421
2.50267
2.50096
2.49912
2.4971
2.49485
2.49234
2.48964
2.48683
2.48321
2.47954
2.47553
2.47116
2.46641
2.46118
2.45575
2.4501
2.44414
2.43787
2.43132
2.42452
2.41752
2.41034
2.40303
2.39562
2.38814
2.38063
2.37311
2.36561
2.35815
2.35074
2.34338
2.33608
2.32884
2.32163
2.31447
2.30732
2.30018
2.29303
2.28586
2.27866
2.27142
2.26413
2.25679
2.24938
2.24192
2.23438
2.22679
2.21913
2.21141
2.20362
2.19578
2.18789
2.17994
2.17193
2.16388
2.15578
2.14763
2.13944
2.1312
2.12291
2.11458
2.10621
2.09778
2.08932
2.0808
2.07223
2.40901
2.41186
2.41458
2.41718
2.41966
2.42202
2.42425
2.42638
2.42839
2.43029
2.43207
2.43375
2.43535
2.43684
2.43823
2.43952
2.44074
2.4419
2.44296
2.44388
2.44476
2.44566
2.44642
2.44702
2.44773
2.44856
2.44898
2.44939
2.45005
2.45035
2.4505
2.45104
2.45159
2.45142
2.45148
2.45211
2.45207
2.45187
2.45186
2.45172
2.4515
2.45126
2.451
2.45066
2.45025
2.44978
2.44926
2.44868
2.44804
2.44735
2.44659
2.44578
2.44489
2.44393
2.44289
2.44177
2.44055
2.43922
2.43776
2.43616
2.4344
2.43248
2.43039
2.4281
2.42557
2.42278
2.41987
2.41645
2.41255
2.40851
2.4041
2.39934
2.39408
2.38844
2.38257
2.37639
2.36986
2.363
2.35585
2.34845
2.34083
2.33303
2.32509
2.31704
2.30892
2.30076
2.29259
2.28445
2.27633
2.26827
2.26026
2.2523
2.2444
2.23654
2.22872
2.22091
2.21312
2.20532
2.19751
2.18967
2.1818
2.17388
2.16592
2.1579
2.14984
2.14172
2.13354
2.12531
2.11703
2.1087
2.10032
2.0919
2.08343
2.07492
2.06636
2.05777
2.04915
2.04048
2.03178
2.02304
2.01427
2.00546
1.99662
1.98773
1.97881
1.96985
1.96084
1.95179
2.37198
2.37397
2.37583
2.37757
2.37919
2.38068
2.38206
2.38332
2.38448
2.38552
2.38646
2.3873
2.38805
2.3887
2.38927
2.38974
2.39014
2.39048
2.39074
2.39088
2.39098
2.39107
2.39107
2.39094
2.39088
2.39083
2.39057
2.39031
2.39021
2.38982
2.3893
2.38909
2.38902
2.3883
2.3877
2.38786
2.38711
2.38633
2.38588
2.38521
2.38445
2.38375
2.38304
2.38227