/*--------------------------------*- C++ -*----------------------------------*\
| =========                 |                                                 |
| \\      /  F ield         | OpenFOAM: The Open Source CFD Toolbox           |
|  \\    /   O peration     | Version:  v1706                                 |
|   \\  /    A nd           | Web:      www.OpenFOAM.com                      |
|    \\/     M anipulation  |                                                 |
\*---------------------------------------------------------------------------*/
FoamFile
{
    version     2.0;
    format      ascii;
    class       volScalarField;
    location    "1.5e-05";
    object      p;
}
// * * * * * * * * * * * * * * * * * * * * * * * * * * * * * * * * * * * * * //

dimensions      [1 -1 -2 0 0 0 0];


internalField   nonuniform List<scalar> 
29871
(
21.9217
21.9219
21.922
21.9221
21.9222
21.9222
21.9223
21.9223
21.9223
21.9223
21.9223
21.9222
21.9222
21.9221
21.922
21.9219
21.9218
21.9216
21.9215
21.9213
21.9211
21.9209
21.9207
21.9206
21.9203
21.9201
21.9199
21.9197
21.9195
21.9193
21.9191
21.9189
21.9187
21.9185
21.9183
21.9181
21.9179
21.9177
21.9176
21.9174
21.9173
21.9171
21.917
21.9169
21.9168
21.9167
21.9166
21.9165
21.9165
21.9164
21.9163
21.9163
21.9162
21.9162
21.9162
21.9162
21.9162
21.9161
21.9161
21.9161
21.9161
21.9162
21.9162
21.9162
21.9162
21.9162
21.9162
21.9163
21.9163
21.9163
21.9163
21.9164
21.9164
21.9164
21.9165
21.9165
21.9165
21.9166
21.9166
21.9166
21.9167
21.9167
21.9167
21.9168
21.9168
21.9168
21.9169
21.9169
21.9169
21.917
21.917
21.9171
21.9171
21.9172
21.9172
21.9172
21.9173
21.9173
21.9174
21.9174
21.9175
21.9175
21.9175
21.9176
21.9176
21.9597
21.9605
21.9612
21.9618
21.9623
21.9627
21.963
21.9632
21.9633
21.9633
21.9632
21.963
21.9627
21.9623
21.9618
21.9612
21.9605
21.9598
21.959
21.9581
21.9571
21.9561
21.955
21.9539
21.9528
21.9516
21.9504
21.9492
21.948
21.9468
21.9456
21.9444
21.9432
21.9421
21.941
21.9399
21.9388
21.9378
21.9368
21.9359
21.935
21.9341
21.9334
21.9326
21.932
21.9314
21.9308
21.9303
21.9299
21.9295
21.9292
21.9289
21.9286
21.9284
21.9283
21.9282
21.9281
21.9281
21.9281
21.9281
21.9281
21.9282
21.9283
21.9284
21.9285
21.9286
21.9288
21.9289
21.9291
21.9293
21.9295
21.9297
21.9298
21.93
21.9302
21.9304
21.9307
21.9309
21.9311
21.9313
21.9315
21.9318
21.932
21.9323
21.9325
21.9328
21.933
21.9333
21.9336
21.9339
21.9342
21.9345
21.9348
21.9351
21.9354
21.9357
21.936
21.9364
21.9367
21.937
21.9373
21.9377
21.938
21.9383
21.9387
22.0531
22.056
22.0586
22.061
22.063
22.0648
22.0662
22.0673
22.0681
22.0685
22.0686
22.0684
22.0679
22.067
22.0659
22.0644
22.0627
22.0606
22.0583
22.0558
22.0531
22.0501
22.047
22.0437
22.0402
22.0366
22.033
22.0293
22.0255
22.0217
22.0179
22.0141
22.0104
22.0067
22.0031
21.9996
21.9962
21.9929
21.9897
21.9867
21.9839
21.9812
21.9786
21.9762
21.974
21.9719
21.97
21.9683
21.9668
21.9654
21.9642
21.9632
21.9623
21.9616
21.961
21.9605
21.9602
21.9601
21.96
21.96
21.9601
21.9603
21.9606
21.9609
21.9613
21.9617
21.9622
21.9628
21.9634
21.964
21.9646
21.9653
21.966
21.9667
21.9675
21.9682
21.969
21.9698
21.9706
21.9714
21.9722
21.9731
21.974
21.9748
21.9758
21.9767
21.9777
21.9786
21.9797
21.9807
21.9817
21.9828
21.9839
21.985
21.9862
21.9873
21.9885
21.9897
21.9908
21.9921
21.9933
21.9945
21.9957
21.997
21.9982
21.9995
22.2823
22.2897
22.2963
22.3023
22.3075
22.3119
22.3155
22.3183
22.3203
22.3213
22.3216
22.321
22.3197
22.3174
22.3144
22.3106
22.3061
22.3009
22.295
22.2885
22.2815
22.2739
22.2659
22.2574
22.2486
22.2395
22.2302
22.2207
22.211
22.2013
22.1916
22.1819
22.1722
22.1627
22.1533
22.1441
22.1352
22.1266
22.1182
22.1103
22.1027
22.0955
22.0888
22.0825
22.0767
22.0714
22.0665
22.0622
22.0583
22.0548
22.0519
22.0493
22.0472
22.0455
22.0441
22.0432
22.0425
22.0423
22.0423
22.0426
22.0431
22.0438
22.0447
22.0459
22.0472
22.0486
22.0502
22.052
22.0538
22.0557
22.0577
22.0597
22.0618
22.0639
22.0661
22.0684
22.0707
22.073
22.0754
22.0779
22.0804
22.083
22.0856
22.0884
22.0911
22.094
22.097
22.1
22.1031
22.1063
22.1095
22.1129
22.1163
22.1198
22.1234
22.1271
22.1308
22.1347
22.1385
22.1425
22.1465
22.1505
22.1546
22.1587
22.1628
22.167
22.8041
22.8242
22.8427
22.8595
22.8744
22.8874
22.8985
22.9075
22.9143
22.9191
22.9216
22.9221
22.9209
22.9174
22.9117
22.904
22.8945
22.8831
22.87
22.8552
22.8389
22.8212
22.8021
22.7819
22.7607
22.7387
22.7159
22.6926
22.6688
22.6448
22.6207
22.5966
22.5727
22.5491
22.526
22.5033
22.4813
22.4599
22.4394
22.4196
22.4008
22.3829
22.366
22.3501
22.3352
22.3215
22.3088
22.2973
22.287
22.2778
22.2698
22.2629
22.2571
22.2525
22.2488
22.2462
22.2444
22.2437
22.2437
22.2443
22.2456
22.2475
22.25
22.2531
22.2566
22.2605
22.2649
22.2696
22.2745
22.2798
22.2853
22.291
22.2969
22.303
22.3093
22.3157
22.3223
22.3291
22.336
22.3431
22.3503
22.3577
22.3653
22.3731
22.381
22.3892
22.3976
22.4063
22.4151
22.4243
22.4336
22.4432
22.4531
22.4632
22.4735
22.4841
22.4949
22.5059
22.5171
22.5285
22.54
22.5518
22.5637
22.5757
22.5879
22.6002
22.6127
24.0204
24.0644
24.1046
24.1407
24.1725
24.1999
24.2228
24.2411
24.2548
24.2635
24.2672
24.2662
24.2614
24.2518
24.2374
24.2186
24.1956
24.1687
24.1379
24.1035
24.0659
24.0252
23.9818
23.9359
23.8878
23.8379
23.7865
23.7338
23.6801
23.6258
23.5711
23.5163
23.4617
23.4076
23.3543
23.3019
23.2508
23.2013
23.1535
23.1077
23.0641
23.023
22.9844
22.9484
22.9152
22.8848
22.8571
22.8322
22.8101
22.7907
22.774
22.7599
22.7483
22.7394
22.7327
22.7284
22.7267
22.7266
22.7283
22.7317
22.7368
22.7435
22.7516
22.761
22.7715
22.783
22.7955
22.8088
22.8228
22.8374
22.8525
22.8682
22.8842
22.9007
22.9175
22.9346
22.9521
22.9699
22.9881
23.0068
23.0259
23.0454
23.0655
23.0862
23.1074
23.1293
23.1518
23.175
23.1989
23.2235
23.2489
23.275
23.3019
23.3296
23.358
23.3873
23.4173
23.448
23.4796
23.5118
23.5448
23.5784
23.6126
23.6475
23.6829
23.7188
23.7553
26.3526
26.4736
26.5882
26.6954
26.7945
26.8848
26.9658
27.037
27.0979
27.1482
27.1874
27.2153
27.2319
27.2382
27.2343
27.2217
27.197
27.1611
27.1152
27.0599
26.9957
26.9228
26.8418
26.7533
26.6579
26.5564
26.4496
26.3382
26.2231
26.1051
25.985
25.8635
25.7413
25.6191
25.4977
25.3776
25.2595
25.144
25.0313
24.9221
24.8166
24.7152
24.6182
24.5257
24.4381
24.3557
24.2788
24.2075
24.1423
24.0833
24.0307
23.9845
23.9447
23.9112
23.8842
23.8635
23.8483
23.8388
23.8356
23.8359
23.8407
23.8497
23.8627
23.8795
23.8997
23.9231
23.9494
23.9783
24.0094
24.0426
24.0776
24.1143
24.1524
24.1918
24.2324
24.2743
24.3173
24.3615
24.4068
24.4533
24.501
24.5498
24.5998
24.6512
24.7038
24.7578
24.8134
24.8705
24.9293
24.9899
25.0523
25.1166
25.183
25.2514
25.3219
25.3946
25.4695
25.5465
25.6257
25.707
25.7904
25.8758
25.9631
26.0523
26.1432
26.2358
26.3299
26.4255
26.5226
26.621
31.7311
31.9713
32.1949
32.4011
32.5889
32.7572
32.905
33.0317
33.1371
33.2214
33.2855
33.3283
33.349
33.3423
33.317
33.2761
33.2138
33.1307
33.0281
32.907
32.7687
32.6143
32.445
32.2619
32.0661
31.8589
31.6418
31.4156
31.1814
30.9403
30.6937
30.4432
30.1903
29.9361
29.6819
29.429
29.1787
28.9326
28.692
28.4586
28.2336
28.0185
27.8143
27.6219
27.4422
27.2755
27.1223
26.9827
26.8565
26.7437
26.6442
26.5581
26.4855
26.4266
26.3806
26.3463
26.3259
26.3191
26.3212
26.3346
26.3579
26.3908
26.4329
26.4836
26.5421
26.6079
26.6801
26.7581
26.8414
26.9291
27.021
27.1164
27.215
27.3166
27.4206
27.527
27.6353
27.7455
27.8575
27.9713
28.0872
28.2052
28.3257
28.4489
28.5752
28.7048
28.838
28.9751
29.1164
29.2621
29.4125
29.5679
29.7284
29.8943
30.0658
30.2431
30.4263
30.6155
30.8108
31.0124
31.2202
31.4343
31.6547
31.8813
32.1141
32.353
32.5977
32.8481
33.1039
33.3648
42.0721
42.521
42.942
43.3328
43.6906
44.0127
44.2981
44.5427
44.7408
44.8898
44.9959
45.0525
45.0641
45.0383
44.9883
44.8899
44.7427
44.5536
44.3262
44.0634
43.7673
43.4392
43.0813
42.6973
42.2908
41.864
41.4195
40.9613
40.4944
40.0224
39.5467
39.0682
38.5888
38.1111
37.6383
37.1729
36.7164
36.2702
35.8355
35.4132
35.0042
34.6095
34.231
33.8707
33.5304
33.2122
32.9184
32.6512
32.4122
32.2033
32.025
31.8764
31.7568
31.6655
31.603
31.5765
31.5713
31.5857
31.6241
31.6835
31.7627
31.8613
31.9781
32.1117
32.2606
32.4234
32.5988
32.7856
32.9823
33.1881
33.402
33.6231
33.8504
34.0831
34.321
34.5641
34.813
35.0679
35.3295
35.598
35.8737
36.157
36.4482
36.7475
37.0552
37.3719
37.698
38.0342
38.3809
38.7389
39.1087
39.4909
39.886
40.2945
40.7167
41.153
41.6037
42.0688
42.5486
43.0431
43.5522
44.0755
44.6127
45.1636
45.7281
46.3058
46.896
47.4979
48.1075
48.7215
60.9317
61.4585
61.9062
62.2724
62.5669
62.7938
62.9516
63.0422
63.0889
63.0819
63.0322
62.9725
62.8434
62.6348
62.3955
62.1294
61.8289
61.4951
61.13
60.7317
60.2987
59.8365
59.3497
58.834
58.2856
57.7099
57.1127
56.4918
55.8383
55.1484
54.4297
53.6931
52.944
52.1831
51.413
50.6383
49.8663
49.105
48.3621
47.646
46.9652
46.3247
45.7247
45.1663
44.6521
44.1832
43.7589
43.3781
43.0402
42.7434
42.4894
42.2839
42.1297
42.026
41.9732
41.9695
42.0107
42.102
42.2385
42.4178
42.6396
42.9008
43.1972
43.5267
43.8872
44.2751
44.6878
45.1239
45.5815
46.0579
46.5504
47.0582
47.5813
48.1172
48.6617
49.2119
49.7649
50.3185
50.8708
51.421
51.9689
52.5148
53.0595
53.6041
54.1494
54.6964
55.2457
55.7974
56.3517
56.9087
57.4684
58.0305
58.5951
59.1619
59.7306
60.3008
60.872
61.4441
62.0164
62.5876
63.1571
63.7247
64.2898
64.8501
65.4035
65.9488
66.4852
67.0112
67.5286
68.0386
75.7258
75.7408
75.7098
75.639
75.5429
75.4131
75.2613
75.147
74.9652
74.6854
74.4316
74.2077
73.9251
73.5882
73.2594
72.9343
72.5892
72.2166
71.8126
71.3881
70.968
70.5458
70.1011
69.6489
69.2094
68.77
68.3135
67.8482
67.3937
66.9635
66.5438
66.1124
65.6655
65.2118
64.7552
64.297
63.8355
63.3659
62.8871
62.3977
61.8912
61.369
60.8503
60.3492
59.8719
59.4333
59.0494
58.7289
58.4774
58.3005
58.2135
58.1989
58.2165
58.2891
58.4587
58.6821
58.9359
59.238
59.5932
59.9888
60.4055
60.841
61.3017
61.7797
62.2679
62.7678
63.2754
63.7822
64.2832
64.7778
65.2662
65.7439
66.2024
66.6386
67.0545
67.4542
67.8415
68.2201
68.5931
68.9624
69.3292
69.6938
70.056
70.4153
70.771
71.1225
71.4694
71.8116
72.1492
72.4823
72.811
73.1353
73.4547
73.7689
74.0774
74.3798
74.6755
74.9636
75.2429
75.5138
75.7761
76.0278
76.2679
76.4981
76.7204
76.9346
77.1402
77.3384
77.5308
77.7183
83.7102
83.5395
83.2188
82.9276
82.6814
82.3661
81.9954
81.6886
81.4136
81.0732
80.6738
80.3118
79.9639
79.5816
79.18
78.8058
78.4585
78.1063
77.7246
77.334
76.9898
76.6473
76.2699
75.9089
75.5724
75.2137
74.8274
74.4596
74.1103
73.7571
73.3894
73.0023
72.6358
72.2911
71.9611
71.6466
71.3509
71.0787
70.8429
70.6476
70.4878
70.3718
70.314
70.2869
70.2696
70.2627
70.279
70.3204
70.3821
70.4563
70.5343
70.6422
70.8064
70.9578
71.1497
71.4283
71.738
72.0392
72.3653
72.7165
73.077
73.4484
73.8215
74.1667
74.4974
74.826
75.135
75.4209
75.6941
75.9553
76.1995
76.4223
76.6264
76.8229
77.0205
77.2201
77.4183
77.6124
77.8006
77.981
78.152
78.3133
78.4651
78.6079
78.7426
78.8701
78.9916
79.1078
79.2191
79.3258
79.4277
79.5247
79.6167
79.7039
79.7864
79.8645
79.9388
80.0094
80.077
80.1431
80.208
80.2716
80.3361
80.4034
80.4731
80.5438
80.6171
80.6951
80.7774
80.8625
80.9503
85.8628
85.426
84.9652
84.5146
84.078
83.6119
83.1442
82.7524
82.3754
81.9582
81.5317
81.1444
80.7638
80.3647
79.9535
79.5815
79.2356
78.8632
78.4823
78.1641
77.8514
77.4981
77.2121
76.9638
76.6681
76.3971
76.2177
76.0307
75.791
75.5866
75.4564
75.3777
75.2628
75.0904
74.9668
74.8877
74.8064
74.7348
74.672
74.6157
74.5725
74.5503
74.5617
74.5994
74.6651
74.7878
74.9654
75.1972
75.4824
75.8052
76.1354
76.4837
76.8585
77.1929
77.5315
77.8728
78.1437
78.429
78.7296
78.9985
79.2749
79.5092
79.6733
79.8525
80.0525
80.2024
80.3378
80.4771
80.6074
80.7222
80.8284
80.9289
81.0252
81.1161
81.1971
81.2609
81.3111
81.357
81.4
81.4396
81.4756
81.5094
81.5413
81.5718
81.6013
81.6302
81.658
81.6843
81.7087
81.7312
81.752
81.7712
81.7891
81.8059
81.8221
81.8379
81.8537
81.8697
81.8864
81.9042
81.9229
81.943
81.9645
81.9865
82.0087
82.0323
82.0589
82.0866
82.1137
82.1416
82.171
82.201
82.2316
86.2832
85.8084
85.3265
84.8625
84.4026
83.9122
83.4342
83.0344
82.6339
82.197
81.7677
81.3736
80.9851
80.5845
80.1719
79.8046
79.4631
79.0806
78.7048
78.4147
78.1063
77.749
77.4941
77.2619
76.9739
76.7463
76.6003
76.4304
76.2121
76.0482
75.9383
75.8716
75.7846
75.688
75.6168
75.5741
75.5706
75.608
75.683
75.794
75.9367
76.112
76.317
76.541
76.769
77.0061
77.257
77.5248
77.8069
78.0949
78.4039
78.7577
79.1073
79.4255
79.7668
80.1077
80.435
80.7876
81.0471
81.249
81.4834
81.7016
81.8399
81.9837
82.1316
82.2334
82.3094
82.4043
82.4853
82.5416
82.5773
82.6142
82.6549
82.6812
82.6888
82.6876
82.7
82.7133
82.7212
82.7266
82.7301
82.7315
82.7312
82.7288
82.7238
82.7168
82.7084
82.699
82.6886
82.6772
82.665
82.6519
82.6381
82.6241
82.6099
82.5957
82.5817
82.5681
82.5552
82.5432
82.5325
82.5235
82.516
82.509
82.5042
82.5023
82.5014
82.5049
82.5123
82.5205
82.5304
82.5437
82.5601
87.3534
86.8622
86.3731
85.8769
85.3855
84.9163
84.4411
83.9288
83.4563
83.0483
82.6235
82.176
81.7561
81.3562
80.966
80.5734
80.1664
79.8169
79.4802
79.0797
78.7447
78.4883
78.1787
77.8446
77.6227
77.3946
77.1198
76.9234
76.7995
76.6286
76.4316
76.2941
76.194
76.1239
76.0771
76.0346
76.0032
75.998
76.0288
76.097
76.2014
76.3401
76.5072
76.7055
76.9345
77.1882
77.4637
77.7639
78.0903
78.4396
78.7985
79.1587
79.533
79.8974
80.2077
80.5307
80.9061
81.1642
81.3698
81.6318
81.8773
82.0431
82.222
82.4038
82.5453
82.6644
82.7758
82.8682
82.9371
82.9931
83.0478
83.0993
83.14
83.1685
83.1844
83.1915
83.1914
83.1943
83.203
83.2074
83.2053
83.1981
83.1884
83.1763
83.162
83.1462
83.1295
83.1122
83.0943
83.076
83.0572
83.0378
83.0181
82.998
82.9777
82.9575
82.9375
82.9177
82.8984
82.8797
82.8619
82.8451
82.8297
82.8159
82.8032
82.7918
82.782
82.7743
82.7677
82.7634
82.7633
82.7643
82.766
82.7722
82.7819
87.2543
86.7461
86.2401
85.7301
85.2374
84.7664
84.2761
83.7589
83.3101
82.896
82.4508
82.0157
81.61
81.1975
80.816
80.4401
80.0482
79.7198
79.3819
78.986
78.7029
78.4626
78.1485
77.8661
77.6738
77.4412
77.1984
77.0361
76.93
76.7563
76.5956
76.484
76.3931
76.3294
76.3028
76.2942
76.3025
76.3344
76.396
76.4904
76.6173
76.7776
76.9638
77.1788
77.422
77.6887
77.9754
78.2811
78.6057
78.9452
79.2918
79.6456
80.0031
80.3415
80.6639
80.992
81.3145
81.5894
81.8448
82.1362
82.3683
82.5241
82.6636
82.8039
82.9274
83.0321
83.1242
83.2044
83.2727
83.3281
83.3689
83.4119
83.4621
83.5028
83.5232
83.5272
83.5283
83.53
83.5313
83.5295
83.5233
83.5129
83.4989
83.482
83.4633
83.4431
83.4219
83.4001
83.3777
83.3548
83.3316
83.3082
83.2844
83.2606
83.2368
83.2133
83.19
83.1672
83.1449
83.1233
83.1026
83.083
83.0643
83.0469
83.031
83.0164
83.0035
82.9924
82.9827
82.9743
82.9692
82.9669
82.9654
82.9666
82.9731
82.9825
90.8979
90.3319
89.7702
89.2153
88.6713
88.1356
87.6029
87.0772
86.562
86.0475
85.5342
85.0478
84.575
84.0732
83.5754
83.1505
82.7213
82.2678
81.8642
81.4581
81.0266
80.6725
80.3187
79.9442
79.6302
79.289
78.9287
78.6827
78.4379
78.1329
77.9044
77.7356
77.5079
77.2961
77.1509
77.029
76.8858
76.767
76.6723
76.5948
76.5481
76.5395
76.5581
76.5951
76.6547
76.7428
76.8605
77.007
77.1827
77.384
77.6097
77.8598
78.1311
78.4196
78.7229
79.0398
79.3669
79.6998
80.0369
80.3698
80.6878
80.9949
81.2999
81.5873
81.8319
82.0916
82.3951
82.5941
82.7336
82.8984
83.0601
83.1903
83.2984
83.3918
83.4738
83.547
83.6096
83.6528
83.6922
83.7446
83.7925
83.8158
83.8166
83.8151
83.8157
83.8145
83.8088
83.7985
83.784
83.7662
83.7457
83.7231
83.6991
83.6744
83.649
83.623
83.5966
83.5701
83.5435
83.5171
83.4911
83.4655
83.4403
83.4156
83.3914
83.3679
83.3455
83.3237
83.303
83.2836
83.2655
83.2488
83.2331
83.2185
83.2055
83.1941
83.1841
83.1763
83.1713
83.1677
83.1658
83.1687
83.1736
90.7859
90.2104
89.6413
89.0818
88.5326
87.9892
87.4506
86.9232
86.4058
85.8875
85.3794
84.9016
84.4241
83.9195
83.4577
83.0407
82.5889
82.1553
81.7782
81.3537
80.9191
80.6045
80.2664
79.9063
79.6022
79.2602
78.9506
78.7283
78.4621
78.1887
78.0018
77.8556
77.6401
77.4435
77.2995
77.1792
77.0705
76.9749
76.8998
76.8468
76.8202
76.8257
76.8607
76.9184
76.9983
77.1049
77.2394
77.4006
77.5865
77.7972
78.0287
78.2809
78.5517
78.8375
79.1354
79.443
79.7575
80.0765
80.3964
80.7089
81.0105
81.304
81.5908
81.8504
82.0794
82.3266
82.6152
82.8164
82.9484
83.1093
83.2853
83.4221
83.5329
83.6303
83.7178
83.7971
83.8661
83.9161
83.9615
84.0182
84.0681
84.0893
84.0886
84.0869
84.0867
84.0835
84.0752
84.0619
84.0444
84.0233
83.9995
83.9735
83.9465
83.9193
83.8917
83.8641
83.8366
83.8092
83.7821
83.7552
83.7286
83.7023
83.6767
83.6518
83.6273
83.6035
83.5807
83.5586
83.5372
83.5167
83.4969
83.4779
83.4597
83.4427
83.4271
83.4129
83.4
83.3887
83.3799
83.3731
83.3681
83.3669
83.3687
90.7039
90.1237
89.5519
88.9905
88.438
87.8911
87.3524
86.827
86.3092
85.7921
85.2954
84.8236
84.3391
83.8493
83.4204
82.9942
82.5291
82.137
81.7686
81.3188
80.9146
80.629
80.2923
79.9508
79.6522
79.32
79.0612
78.8464
78.5653
78.3265
78.1745
78.0492
77.8399
77.6538
77.5191
77.4088
77.313
77.2383
77.1873
77.158
77.151
77.1699
77.216
77.2869
77.3807
77.4981
77.6417
77.8106
78.0026
78.2155
78.4488
78.6995
78.9658
79.2454
79.5354
79.8327
80.135
80.4405
80.7445
81.0414
81.3302
81.6126
81.8844
82.1285
82.3493
82.5834
82.8613
83.0595
83.1895
83.3501
83.5338
83.6761
83.7878
83.8858
83.9743
84.0569
84.1323
84.1908
84.2413
84.2989
84.3473
84.3679
84.3696
84.3693
84.3689
84.3641
84.3534
84.3373
84.3172
84.2945
84.2698
84.2439
84.217
84.1891
84.1603
84.1313
84.1024
84.0734
84.0446
84.0159
83.9877
83.9601
83.9331
83.9067
83.8807
83.8553
83.8306
83.8063
83.7825
83.7594
83.7368
83.7151
83.6942
83.6744
83.6558
83.6385
83.6225
83.6083
83.5964
83.5868
83.5797
83.5759
83.5754
90.6645
90.0831
89.5114
88.9499
88.3966
87.8505
87.3156
86.794
86.2776
85.7679
85.2848
84.8145
84.3274
83.869
83.4566
83.0113
82.5622
82.2074
81.8331
81.3683
81.0163
80.741
80.3959
80.0806
79.784
79.4759
79.254
79.041
78.768
78.553
78.4206
78.3
78.1034
77.9372
77.8148
77.7098
77.6247
77.5679
77.5369
77.527
77.5368
77.5682
77.6233
77.7025
77.8049
77.9299
78.0775
78.248
78.4401
78.6519
78.8816
79.1271
79.3876
79.6587
79.9389
80.2254
80.5161
80.8086
81.099
81.3836
81.6617
81.9335
82.1937
82.4323
82.6506
82.8767
83.1421
83.3363
83.472
83.6365
83.8272
83.9756
84.0875
84.1847
84.2728
84.356
84.4361
84.5048
84.5598
84.6136
84.658
84.6797
84.685
84.6857
84.6838
84.6775
84.6664
84.6507
84.6313
84.6081
84.5816
84.5528
84.5222
84.4903
84.4581
84.4257
84.3932
84.3611
84.3294
84.2984
84.2681
84.2383
84.209
84.1802
84.1518
84.124
84.0966
84.0696
84.0431
84.0172
83.9918
83.9671
83.9432
83.9203
83.8985
83.8782
83.8595
83.8428
83.8283
83.8163
83.807
83.8006
83.7972
83.797
83.8
90.665
90.0854
89.5161
88.9567
88.406
87.8645
87.3364
86.8199
86.3085
85.8119
85.3407
84.869
84.3929
83.9678
83.556
83.095
82.6907
82.3551
81.9647
81.5101
81.2092
80.9293
80.5782
80.2913
80.0051
79.7174
79.5173
79.316
79.0663
78.8629
78.7257
78.5951
78.4366
78.2972
78.1823
78.0816
78.0067
77.9633
77.9463
77.9502
77.9726
78.0143
78.0768
78.1615
78.2685
78.3972
78.5472
78.7178
78.908
79.1164
79.3412
79.5804
79.8325
80.0947
80.3652
80.6418
80.9211
81.2018
81.4808
81.7552
82.0243
82.2871
82.5384
82.7733
82.9933
83.2205
83.4696
83.6578
83.8049
83.9745
84.1741
84.3339
84.4472
84.5434
84.6306
84.7133
84.7968
84.8755
84.9371
84.984
85.0208
85.0433
85.0534
85.0568
85.0561
85.0501
85.0372
85.0178
84.9928
84.9635
84.9312
84.8966
84.8607
84.8243
84.7876
84.7509
84.7146
84.6789
84.6441
84.6099
84.5764
84.5435
84.5111
84.4792
84.4478
84.4169
84.3864
84.3563
84.3267
84.2975
84.2689
84.2409
84.2138
84.1877
84.1629
84.1397
84.1183
84.0988
84.0816
84.0667
84.0545
84.0449
84.0383
84.0346
84.034
90.6977
90.1227
89.5583
89.0041
88.4595
87.9264
87.407
86.8975
86.396
85.9156
85.4526
84.9826
84.5321
84.1295
83.709
83.2539
82.8995
82.5675
82.1557
81.7415
81.4773
81.1857
80.8363
80.5776
80.3118
80.0313
79.8363
79.664
79.4432
79.2409
79.0895
78.9608
78.8365
78.7203
78.6115
78.517
78.452
78.4184
78.4102
78.4225
78.4532
78.5022
78.5703
78.6585
78.7673
78.8966
79.0458
79.2141
79.4006
79.6039
79.8226
80.0546
80.2982
80.5514
80.8123
81.0787
81.3484
81.6193
81.89
82.1572
82.4201
82.6768
82.9241
83.1603
83.3877
83.6187
83.8498
84.0374
84.1984
84.3731
84.5795
84.7548
84.8713
84.9677
85.055
85.1379
85.2252
85.3134
85.3832
85.4266
85.4576
85.4803
85.4927
85.4959
85.491
85.4778
85.457
85.4297
85.3974
85.3614
85.3227
85.2822
85.2406
85.1986
85.1565
85.1149
85.074
85.034
84.9948
84.9565
84.919
84.8822
84.8461
84.8105
84.7754
84.7409
84.7068
84.6731
84.6398
84.6071
84.5749
84.5435
84.513
84.4836
84.4556
84.4292
84.4046
84.3818
84.3613
84.343
84.3271
84.3139
84.3035
84.2959
84.2912
91.3325
90.754
90.1865
89.6299
89.084
88.549
88.0269
87.5181
87.0184
86.5316
86.0671
85.6104
85.1512
84.7314
84.339
83.9088
83.4883
83.168
82.831
82.4034
82.0512
81.8058
81.5012
81.1622
80.9299
80.6852
80.4063
80.2099
80.0696
79.8818
79.6766
79.5199
79.3987
79.2915
79.1903
79.0912
79.0057
78.9491
78.923
78.9206
78.9375
78.9727
79.0261
79.0976
79.1876
79.2966
79.4246
79.5712
79.7358
79.9173
80.1147
80.3265
80.5509
80.7864
81.0313
81.2837
81.5418
81.8037
82.0675
82.3317
82.5943
82.8532
83.1076
83.3541
83.5935
83.8283
84.0607
84.2818
84.4778
84.6549
84.8374
85.0518
85.243
85.3626
85.4602
85.5506
85.6373
85.7291
85.8239
85.8996
85.941
85.9638
85.9796
85.988
85.9864
85.9746
85.9539
85.9256
85.8911
85.8516
85.8085
85.7628
85.7153
85.667
85.6184
85.5701
85.5227
85.4762
85.4308
85.3866
85.3434
85.3013
85.26
85.2194
85.1796
85.1404
85.1017
85.0635
85.0259
84.9887
84.9521
84.9162
84.8811
84.847
84.814
84.7823
84.7521
84.7237
84.6971
84.6726
84.6502
84.6303
84.6128
84.5981
84.5862
84.5771
91.3941
90.8253
90.2679
89.722
89.1875
88.6651
88.1563
87.6598
87.1736
86.7045
86.254
85.8052
85.3676
84.973
84.583
84.1543
83.7828
83.4782
83.1318
82.7099
82.4178
82.1787
81.8657
81.5439
81.3349
81.1075
80.8314
80.637
80.52
80.3641
80.16
80.0038
79.8883
79.7895
79.7009
79.6118
79.5333
79.4837
79.4644
79.4669
79.4867
79.5238
79.5788
79.6517
79.7423
79.8505
79.9764
80.1199
80.2804
80.4571
80.6488
80.8543
81.0721
81.3008
81.5388
81.7846
82.0364
82.2926
82.5518
82.8122
83.0724
83.3301
83.5835
83.8316
84.0766
84.3165
84.5499
84.7717
84.977
85.1656
85.3575
85.5855
85.7882
85.9075
86.0067
86.1022
86.1961
86.2945
86.3923
86.4648
86.5021
86.5202
86.5312
86.5347
86.528
86.5103
86.483
86.4475
86.4054
86.3582
86.3071
86.2534
86.1981
86.1421
86.0862
86.031
85.9769
85.9242
85.8729
85.8231
85.7745
85.7272
85.6809
85.6356
85.5911
85.5474
85.5043
85.4618
85.4199
85.3786
85.338
85.298
85.2588
85.2206
85.1834
85.1476
85.1131
85.0803
85.0493
85.0203
84.9934
84.9688
84.9467
84.9273
84.9107
84.897
84.8864
84.8788
91.4598
90.9033
90.3587
89.826
89.3056
88.7982
88.3043
87.8223
87.3529
86.9022
86.4643
86.0292
85.6181
85.24
84.8508
84.4433
84.1131
83.8133
83.458
83.0678
82.8184
82.5817
82.2681
81.9659
81.7761
81.5645
81.2955
81.104
81.0014
80.8729
80.6761
80.5204
80.4087
80.3177
80.2429
80.1622
80.0862
80.0405
80.0282
80.0363
80.0584
80.0962
80.1517
80.2248
80.3149
80.4219
80.5457
80.6863
80.8432
81.0158
81.2029
81.4035
81.6163
81.84
82.0731
82.3144
82.5622
82.8152
83.072
83.3312
83.591
83.8497
84.1053
84.3572
84.6062
84.8525
85.09
85.3176
85.5313
85.7293
85.9328
86.176
86.3791
86.4966
86.5997
86.7024
86.8062
86.913
87.0091
87.0742
87.1097
87.1281
87.1367
87.1355
87.1229
87.0989
87.0645
87.0214
86.9711
86.9155
86.8558
86.7936
86.73
86.6659
86.6024
86.5398
86.4788
86.4195
86.3619
86.3061
86.2519
86.1992
86.1478
86.0975
86.0481
85.9997
85.9521
85.9051
85.8587
85.813
85.7679
85.7235
85.6799
85.6371
85.5954
85.5548
85.5157
85.4781
85.4422
85.4082
85.3764
85.3468
85.3198
85.2954
85.274
85.2555
85.2402
85.228
91.5227
90.9806
90.451
89.9338
89.4296
88.9388
88.4613
87.996
87.5457
87.1123
86.6881
86.2728
85.8863
85.5186
85.1356
84.7633
84.4582
84.158
83.8022
83.4607
83.2346
82.999
82.693
82.4109
82.2368
82.0413
81.7853
81.5928
81.497
81.39
81.2073
81.0524
80.9434
80.8596
80.8007
80.7295
80.6519
80.6055
80.5996
80.6144
80.6395
80.6781
80.7338
80.807
80.8967
81.0026
81.1247
81.2632
81.4177
81.5874
81.7714
81.9688
82.1784
82.3991
82.6296
82.8686
83.1148
83.367
83.6238
83.8838
84.1456
84.4073
84.6673
84.9249
85.1796
85.4317
85.6767
85.912
86.1338
86.3415
86.5602
86.8183
87.0102
87.128
87.2389
87.3513
87.4664
87.5804
87.6718
87.7306
87.7654
87.7844
87.7909
87.785
87.7662
87.7351
87.6932
87.642
87.5834
87.5192
87.4509
87.3802
87.3082
87.2361
87.1649
87.0951
87.0271
86.9612
86.8973
86.8356
86.7757
86.7175
86.6609
86.6056
86.5514
86.4982
86.4459
86.3942
86.3433
86.2929
86.2431
86.194
86.1456
86.098
86.0513
86.0058
85.9616
85.9189
85.8779
85.8388
85.8018
85.7672
85.7351
85.7058
85.6795
85.6562
85.6362
85.6194
91.577
91.0512
90.5382
90.0382
89.5516
89.0786
88.6187
88.172
87.741
87.3244
86.9167
86.5243
86.1572
85.7983
85.4316
85.0946
84.8019
84.5008
84.1606
83.8673
83.6484
83.4141
83.1243
82.8638
82.7005
82.5209
82.2848
82.0869
81.9918
81.8999
81.7358
81.5848
81.4788
81.3995
81.3552
81.2992
81.2201
81.1678
81.1652
81.1874
81.2164
81.2567
81.3137
81.3878
81.4777
81.5833
81.7048
81.8424
81.9957
82.1641
82.3468
82.5428
82.7512
82.971
83.201
83.44
83.6869
83.9405
84.1995
84.4626
84.7283
84.9949
85.2611
85.5257
85.7876
86.0473
86.3005
86.5445
86.7748
86.9937
87.2322
87.4993
87.6712
87.7947
87.9174
88.0415
88.1684
88.286
88.3718
88.4268
88.4611
88.4798
88.4837
88.473
88.448
88.41
88.3605
88.3015
88.2349
88.1625
88.0861
88.0073
87.9275
87.8479
87.7694
87.6926
87.6181
87.5459
87.4761
87.4086
87.3433
87.2799
87.2183
87.1581
87.0991
87.0413
86.9842
86.9279
86.8723
86.8172
86.7626
86.7086
86.6553
86.6027
86.5511
86.5005
86.4511
86.4033
86.3572
86.313
86.2709
86.2313
86.1943
86.1602
86.1291
86.1013
86.0767
86.0556
86.0378
91.1103
90.6152
90.1334
89.6653
89.2107
88.7694
88.342
87.9298
87.5302
87.1417
86.7713
86.4196
86.0721
85.7293
85.419
85.1329
84.8352
84.5251
84.2652
84.0464
83.8155
83.5487
83.3105
83.1522
82.9872
82.7747
82.5725
82.4763
82.3925
82.2451
82.1034
82.0034
81.927
81.8913
81.8565
81.779
81.7173
81.7131
81.7434
81.7775
81.8206
81.8806
81.9571
82.0484
82.1546
82.2767
82.4148
82.5687
82.7375
82.9206
83.1172
83.3263
83.5471
83.7786
84.0198
84.2694
84.5264
84.7896
85.0576
85.329
85.6022
85.8758
86.1485
86.419
86.6878
86.9498
87.2027
87.4416
87.6748
87.9378
88.1961
88.3511
88.487
88.6239
88.7611
88.8989
89.0157
89.0968
89.15
89.184
89.2015
89.2025
89.1872
89.1566
89.1122
89.056
88.9899
88.9161
88.8364
88.7528
88.6669
88.5802
88.4939
88.409
88.3262
88.2457
88.1679
88.0927
88.0201
87.9498
87.8817
87.8154
87.7506
87.6871
87.6247
87.5632
87.5024
87.4421
87.3824
87.3232
87.2644
87.2063
87.1489
87.0924
87.0369
86.9826
86.9299
86.879
86.83
86.7832
86.739
86.6974
86.6589
86.6235
86.5914
86.5628
86.5376
86.5158
91.1552
90.6785
90.2154
89.766
89.3302
88.9078
88.4997
88.1057
87.7239
87.3554
87.0041
86.6664
86.3346
86.0165
85.7242
85.444
85.1581
84.8801
84.639
84.4209
84.1969
83.9551
83.7378
83.5818
83.4288
83.2359
83.0376
82.9442
82.8616
82.7223
82.5959
82.5089
82.435
82.402
82.3844
82.3134
82.2442
82.2376
82.2757
82.3137
82.3602
82.4252
82.5061
82.6001
82.7081
82.832
82.9722
83.1282
83.2991
83.4843
83.6831
83.8947
84.1184
84.3532
84.5982
84.8522
85.1143
85.3832
85.6576
85.9362
86.2172
86.4993
86.7807
87.0612
87.3393
87.6108
87.8727
88.121
88.3729
88.6577
88.8847
89.0412
89.1938
89.3451
89.4964
89.6416
89.7544
89.832
89.8849
89.9189
89.9351
89.9333
89.9141
89.8787
89.8292
89.7674
89.6956
89.6159
89.5303
89.4409
89.3493
89.2571
89.1654
89.0753
88.9874
88.9021
88.8196
88.7399
88.6628
88.5883
88.5159
88.4455
88.3766
88.3091
88.2426
88.1769
88.1119
88.0474
87.9834
87.9198
87.8567
87.7942
87.7324
87.6714
87.6115
87.553
87.4959
87.4407
87.3875
87.3366
87.2884
87.243
87.2006
87.1616
87.126
87.0939
87.0654
87.0404
90.7264
90.2819
89.8512
89.434
89.0304
88.6408
88.2646
87.9009
87.5514
87.2171
86.8939
86.5802
86.2829
86.0038
85.7325
85.4642
85.2109
84.9816
84.7677
84.554
84.334
84.1353
83.9831
83.8375
83.6567
83.4753
83.3883
83.3008
83.1615
83.057
82.9893
82.9153
82.8789
82.8712
82.8143
82.7409
82.7347
82.7797
82.8185
82.8683
82.9408
83.0281
83.1258
83.2365
83.3634
83.5071
83.6666
83.8411
84.0299
84.2324
84.448
84.6759
84.9155
85.1656
85.4255
85.6939
85.9697
86.2516
86.5382
86.8278
87.1188
87.4096
87.7009
87.9878
88.2693
88.5398
88.7998
89.0746
89.3617
89.5584
89.7305
89.9012
90.0667
90.2317
90.3783
90.4864
90.5624
90.6161
90.6506
90.6658
90.6619
90.6398
90.6012
90.5479
90.4822
90.4064
90.3226
90.233
90.1395
90.044
89.9478
89.8523
89.7584
89.6668
89.5779
89.4918
89.4086
89.3281
89.2501
89.1743
89.1004
89.0281
88.9571
88.8871
88.8179
88.7493
88.6812
88.6135
88.5462
88.4794
88.4132
88.3477
88.2831
88.2196
88.1574
88.0969
88.0382
87.9817
87.9277
87.8764
87.828
87.7829
87.7411
87.703
87.6684
87.6376
87.6102
90.3323
89.9197
89.5207
89.1352
88.7632
88.4043
88.0583
87.7262
87.4074
87.0996
86.8037
86.523
86.2556
85.9964
85.7461
85.5102
85.291
85.0847
84.8822
84.6798
84.4978
84.3511
84.208
84.0362
83.8818
83.7986
83.7032
83.5665
83.4854
83.4346
83.3593
83.3164
83.3165
83.2763
83.2021
83.2014
83.2524
83.2852
83.3387
83.4226
83.5187
83.6206
83.7345
83.8654
84.0136
84.1778
84.357
84.5505
84.7578
84.9785
85.2119
85.4572
85.7136
85.9801
86.2556
86.539
86.829
87.1241
87.4226
87.7225
88.0243
88.3236
88.6207
88.9117
89.1911
89.4663
89.7632
90.0231
90.2176
90.4088
90.5946
90.7738
90.9487
91.0926
91.1972
91.2738
91.3293
91.3649
91.38
91.3752
91.3518
91.3115
91.2564
91.1888
91.111
91.0252
90.9335
90.8379
90.7403
90.642
90.5444
90.4483
90.3544
90.2632
90.1748
90.0892
90.0063
89.9259
89.8476
89.7711
89.6962
89.6225
89.5498
89.4778
89.4064
89.3355
89.265
89.195
89.1254
89.0564
88.9882
88.9209
88.8548
88.7902
88.7272
88.6663
88.6076
88.5516
88.4983
88.4483
88.4015
88.3584
88.3189
88.2832
88.2512
88.2228
88.1978
88.1759
90.3671
89.9719
89.5902
89.2218
88.8665
88.5241
88.1946
87.8783
87.5743
87.2818
87.0018
86.735
86.4795
86.2337
85.9988
85.7762
85.5672
85.3701
85.1782
84.9907
84.8235
84.6816
84.539
84.3797
84.2515
84.1679
84.0648
83.9414
83.8796
83.835
83.7601
83.7168
83.7255
83.6969
83.6248
83.6381
83.6897
83.7086
83.7682
83.8688
83.9752
84.0809
84.1983
84.334
84.4877
84.6574
84.842