/*--------------------------------*- C++ -*----------------------------------*\
| =========                 |                                                 |
| \\      /  F ield         | OpenFOAM: The Open Source CFD Toolbox           |
|  \\    /   O peration     | Version:  v1706                                 |
|   \\  /    A nd           | Web:      www.OpenFOAM.com                      |
|    \\/     M anipulation  |                                                 |
\*---------------------------------------------------------------------------*/
FoamFile
{
    version     2.0;
    format      ascii;
    class       volScalarField;
    location    "1.5e-05";
    object      Tov;
}
// * * * * * * * * * * * * * * * * * * * * * * * * * * * * * * * * * * * * * //

dimensions      [0 0 0 1 0 0 0];


internalField   nonuniform List<scalar> 
29871
(
144.432
144.432
144.432
144.433
144.433
144.433
144.433
144.434
144.434
144.433
144.433
144.433
144.433
144.432
144.432
144.432
144.431
144.431
144.43
144.429
144.429
144.428
144.427
144.426
144.425
144.425
144.424
144.423
144.422
144.421
144.42
144.42
144.419
144.418
144.417
144.417
144.416
144.415
144.415
144.414
144.413
144.413
144.412
144.412
144.411
144.411
144.411
144.41
144.41
144.41
144.41
144.409
144.409
144.409
144.409
144.409
144.409
144.409
144.409
144.409
144.409
144.409
144.409
144.409
144.409
144.409
144.409
144.409
144.409
144.41
144.41
144.41
144.41
144.41
144.41
144.41
144.41
144.41
144.411
144.411
144.411
144.411
144.411
144.411
144.411
144.412
144.412
144.412
144.412
144.412
144.412
144.412
144.413
144.413
144.413
144.413
144.413
144.413
144.414
144.414
144.414
144.414
144.414
144.415
144.415
144.582
144.585
144.588
144.59
144.592
144.593
144.594
144.595
144.595
144.595
144.594
144.593
144.592
144.59
144.588
144.585
144.583
144.579
144.576
144.572
144.568
144.564
144.56
144.556
144.551
144.546
144.542
144.537
144.532
144.527
144.522
144.518
144.513
144.509
144.504
144.5
144.496
144.492
144.488
144.485
144.481
144.478
144.475
144.472
144.47
144.467
144.465
144.463
144.462
144.46
144.459
144.458
144.457
144.456
144.456
144.455
144.455
144.455
144.455
144.455
144.455
144.455
144.456
144.456
144.457
144.457
144.458
144.458
144.459
144.46
144.46
144.461
144.462
144.463
144.463
144.464
144.465
144.466
144.467
144.467
144.468
144.469
144.47
144.471
144.472
144.473
144.474
144.475
144.476
144.477
144.478
144.479
144.481
144.482
144.483
144.484
144.485
144.487
144.488
144.489
144.49
144.492
144.493
144.494
144.495
144.947
144.957
144.967
144.975
144.982
144.988
144.992
144.995
144.998
144.998
144.998
144.996
144.993
144.989
144.984
144.978
144.97
144.962
144.953
144.942
144.931
144.919
144.907
144.894
144.881
144.867
144.852
144.838
144.824
144.809
144.794
144.78
144.766
144.752
144.738
144.725
144.712
144.699
144.687
144.676
144.665
144.655
144.645
144.636
144.628
144.62
144.613
144.606
144.601
144.596
144.591
144.588
144.584
144.582
144.58
144.578
144.577
144.577
144.576
144.577
144.577
144.578
144.579
144.58
144.582
144.583
144.585
144.587
144.59
144.592
144.594
144.597
144.599
144.602
144.605
144.608
144.61
144.613
144.616
144.619
144.622
144.625
144.629
144.632
144.635
144.639
144.642
144.646
144.65
144.654
144.658
144.662
144.666
144.67
144.674
144.678
144.683
144.687
144.692
144.696
144.701
144.706
144.71
144.715
144.72
144.724
145.831
145.857
145.881
145.902
145.919
145.934
145.945
145.954
145.959
145.96
145.959
145.955
145.947
145.936
145.923
145.906
145.887
145.865
145.841
145.814
145.786
145.756
145.724
145.69
145.656
145.62
145.584
145.547
145.51
145.472
145.435
145.398
145.362
145.325
145.29
145.256
145.223
145.19
145.16
145.13
145.102
145.076
145.051
145.028
145.007
144.988
144.97
144.954
144.94
144.928
144.917
144.908
144.9
144.894
144.89
144.887
144.885
144.884
144.884
144.886
144.888
144.891
144.894
144.899
144.904
144.909
144.915
144.922
144.929
144.936
144.943
144.951
144.958
144.966
144.975
144.983
144.992
145
145.009
145.018
145.028
145.037
145.047
145.057
145.068
145.078
145.089
145.1
145.112
145.124
145.136
145.148
145.161
145.174
145.187
145.2
145.214
145.228
145.242
145.257
145.271
145.286
145.301
145.316
145.331
145.347
147.805
147.873
147.935
147.989
148.037
148.078
148.111
148.136
148.154
148.164
148.166
148.161
148.149
148.13
148.103
148.069
148.028
147.981
147.928
147.87
147.806
147.737
147.664
147.588
147.508
147.425
147.34
147.254
147.166
147.077
146.988
146.9
146.812
146.726
146.641
146.557
146.477
146.399
146.323
146.251
146.183
146.118
146.057
145.999
145.946
145.897
145.852
145.812
145.776
145.744
145.716
145.693
145.673
145.657
145.646
145.637
145.632
145.631
145.632
145.635
145.64
145.648
145.658
145.67
145.684
145.699
145.715
145.732
145.751
145.77
145.79
145.811
145.833
145.855
145.877
145.901
145.924
145.949
145.973
145.998
146.024
146.051
146.078
146.106
146.134
146.163
146.194
146.225
146.256
146.289
146.323
146.357
146.392
146.429
146.466
146.504
146.543
146.583
146.623
146.664
146.706
146.749
146.792
146.835
146.879
146.924
146.969
152.205
152.347
152.474
152.586
152.682
152.763
152.827
152.874
152.905
152.917
152.914
152.897
152.864
152.814
152.749
152.669
152.576
152.469
152.349
152.217
152.075
151.923
151.762
151.593
151.417
151.236
151.049
150.86
150.668
150.474
150.28
150.086
149.894
149.704
149.518
149.335
149.158
148.987
148.822
148.664
148.514
148.372
148.239
148.115
148.001
147.897
147.802
147.717
147.642
147.576
147.521
147.474
147.437
147.409
147.39
147.378
147.376
147.379
147.387
147.402
147.422
147.449
147.479
147.514
147.553
147.596
147.641
147.689
147.739
147.791
147.845
147.9
147.957
148.015
148.074
148.135
148.197
148.26
148.324
148.39
148.458
148.526
148.597
148.67
148.744
148.821
148.899
148.981
149.064
149.15
149.238
149.329
149.423
149.519
149.617
149.719
149.822
149.928
150.037
150.148
150.26
150.375
150.492
150.611
150.731
150.853
150.976
160.125
160.469
160.788
161.08
161.344
161.578
161.781
161.953
162.092
162.198
162.271
162.311
162.314
162.293
162.24
162.158
162.044
161.9
161.729
161.531
161.307
161.059
160.789
160.498
160.188
159.861
159.52
159.166
158.801
158.427
158.047
157.662
157.274
156.886
156.499
156.116
155.737
155.366
155.003
154.651
154.31
153.982
153.669
153.371
153.09
152.827
152.582
152.357
152.152
151.967
151.804
151.662
151.54
151.44
151.36
151.3
151.259
151.237
151.236
151.245
151.267
151.306
151.357
151.421
151.496
151.581
151.675
151.777
151.886
152.001
152.121
152.245
152.374
152.507
152.643
152.782
152.923
153.068
153.215
153.366
153.519
153.675
153.835
153.998
154.165
154.336
154.511
154.691
154.876
155.065
155.261
155.462
155.668
155.881
156.1
156.325
156.556
156.794
157.037
157.287
157.542
157.804
158.07
158.342
158.618
158.899
159.184
159.473
159.764
160.059
175.245
175.767
176.241
176.667
177.042
177.366
177.636
177.854
178.017
178.128
178.188
178.19
178.151
178.061
177.924
177.743
177.514
177.241
176.926
176.57
176.175
175.744
175.279
174.783
174.258
173.707
173.132
172.537
171.923
171.294
170.652
170
169.342
168.679
168.017
167.356
166.702
166.056
165.423
164.807
164.209
163.635
163.086
162.565
162.076
161.62
161.199
160.815
160.468
160.161
159.892
159.664
159.475
159.326
159.216
159.144
159.112
159.117
159.145
159.204
159.295
159.413
159.556
159.723
159.91
160.117
160.34
160.578
160.828
161.089
161.36
161.638
161.923
162.214
162.51
162.81
163.114
163.422
163.734
164.05
164.371
164.696
165.026
165.362
165.704
166.054
166.411
166.776
167.15
167.533
167.926
168.328
168.742
169.166
169.601
170.048
170.506
170.975
171.456
171.947
172.449
172.962
173.485
174.017
174.559
175.108
175.664
176.227
176.794
177.365
196.588
197.123
197.59
197.993
198.332
198.607
198.818
198.965
199.044
199.046
199.005
198.9
198.739
198.526
198.272
197.952
197.579
197.158
196.691
196.178
195.622
195.024
194.387
193.714
193.009
192.272
191.508
190.719
189.909
189.081
188.238
187.381
186.513
185.638
184.759
183.882
183.009
182.145
181.295
180.462
179.651
178.866
178.111
177.392
176.714
176.082
175.501
174.974
174.506
174.099
173.756
173.476
173.262
173.112
173.026
173.019
173.053
173.134
173.273
173.46
173.692
173.966
174.278
174.624
175
175.403
175.829
176.274
176.736
177.211
177.697
178.192
178.694
179.2
179.709
180.221
180.735
181.253
181.773
182.298
182.826
183.359
183.898
184.442
184.992
185.55
186.115
186.688
187.27
187.862
188.463
189.074
189.696
190.328
190.97
191.623
192.286
192.958
193.64
194.331
195.029
195.734
196.446
197.162
197.883
198.608
199.335
200.063
200.789
201.508
217.859
218.002
218.071
218.07
218.031
217.94
217.798
217.61
217.382
217.117
216.822
216.513
216.16
215.755
215.338
214.898
214.431
213.94
213.427
212.894
212.34
211.767
211.174
210.561
209.926
209.271
208.6
207.91
207.197
206.46
205.703
204.929
204.139
203.334
202.519
201.697
200.873
200.054
199.246
198.455
197.691
196.958
196.261
195.604
194.995
194.439
193.939
193.501
193.125
192.813
192.569
192.398
192.302
192.293
192.341
192.463
192.64
192.894
193.206
193.57
193.984
194.44
194.932
195.455
196.004
196.575
197.161
197.761
198.37
198.985
199.603
200.223
200.844
201.463
202.075
202.68
203.274
203.858
204.43
204.99
205.539
206.078
206.607
207.126
207.638
208.142
208.639
209.13
209.615
210.093
210.565
211.031
211.491
211.944
212.391
212.832
213.266
213.694
214.115
214.528
214.935
215.334
215.726
216.11
216.486
216.852
217.209
217.556
217.894
218.224
227.941
227.611
227.26
226.893
226.519
226.139
225.745
225.367
224.946
224.488
224.048
223.621
223.164
222.69
222.225
221.759
221.284
220.802
220.317
219.834
219.359
218.887
218.411
217.938
217.476
217.019
216.56
216.107
215.665
215.239
214.822
214.404
213.988
213.577
213.174
212.779
212.392
212.015
211.649
211.294
210.951
210.621
210.315
210.037
209.792
209.592
209.446
209.357
209.336
209.362
209.452
209.602
209.795
210.034
210.35
210.693
211.056
211.455
211.887
212.336
212.789
213.242
213.696
214.143
214.581
215.011
215.428
215.83
216.215
216.582
216.933
217.266
217.578
217.869
218.142
218.397
218.639
218.868
219.087
219.296
219.498
219.692
219.88
220.062
220.239
220.41
220.576
220.738
220.895
221.048
221.198
221.345
221.488
221.628
221.766
221.901
222.034
222.164
222.291
222.416
222.539
222.658
222.774
222.888
223
223.11
223.218
223.323
223.427
223.53
232.103
231.661
231.145
230.66
230.199
229.711
229.212
228.741
228.278
227.784
227.274
226.784
226.298
225.8
225.3
224.816
224.341
223.865
223.385
222.914
222.47
222.03
221.59
221.168
220.761
220.356
219.962
219.586
219.222
218.867
218.531
218.209
217.908
217.622
217.353
217.107
216.887
216.697
216.542
216.423
216.338
216.292
216.29
216.311
216.362
216.445
216.564
216.718
216.91
217.134
217.38
217.654
217.963
218.273
218.612
218.993
219.374
219.741
220.112
220.479
220.834
221.176
221.498
221.791
222.065
222.322
222.554
222.764
222.957
223.132
223.287
223.422
223.541
223.647
223.743
223.831
223.91
223.981
224.046
224.105
224.158
224.206
224.248
224.286
224.321
224.352
224.382
224.409
224.434
224.458
224.481
224.503
224.525
224.545
224.565
224.584
224.603
224.623
224.642
224.662
224.684
224.706
224.73
224.757
224.786
224.817
224.852
224.89
224.932
224.976
225.024
233.493
232.973
232.438
231.906
231.382
230.851
230.319
229.814
229.312
228.794
228.273
227.77
227.269
226.761
226.254
225.766
225.29
224.807
224.325
223.871
223.427
222.977
222.562
222.17
221.77
221.394
221.06
220.728
220.391
220.094
219.828
219.593
219.351
219.114
218.924
218.77
218.636
218.531
218.454
218.408
218.402
218.423
218.475
218.563
218.686
218.86
219.074
219.324
219.608
219.92
220.247
220.59
220.949
221.299
221.661
222.03
222.363
222.698
223.027
223.327
223.617
223.882
224.106
224.327
224.54
224.713
224.867
225.011
225.137
225.244
225.337
225.417
225.484
225.537
225.58
225.613
225.638
225.655
225.666
225.671
225.671
225.67
225.666
225.659
225.65
225.64
225.629
225.618
225.606
225.594
225.582
225.571
225.559
225.548
225.538
225.529
225.521
225.515
225.51
225.508
225.508
225.511
225.516
225.523
225.534
225.548
225.565
225.585
225.608
225.634
225.663
225.694
225.728
234.398
233.861
233.316
232.773
232.228
231.675
231.126
230.605
230.08
229.543
229.016
228.506
227.997
227.487
226.978
226.492
226.018
225.533
225.055
224.619
224.179
223.729
223.332
222.951
222.556
222.197
221.871
221.54
221.205
220.914
220.642
220.401
220.165
219.943
219.755
219.606
219.496
219.42
219.383
219.386
219.417
219.483
219.581
219.709
219.864
220.052
220.27
220.517
220.785
221.07
221.373
221.697
222.024
222.345
222.683
223.017
223.339
223.664
223.951
224.211
224.477
224.722
224.928
225.13
225.321
225.483
225.622
225.758
225.875
225.974
226.057
226.13
226.192
226.238
226.27
226.29
226.311
226.324
226.326
226.324
226.318
226.309
226.296
226.28
226.261
226.239
226.217
226.193
226.169
226.146
226.122
226.099
226.076
226.055
226.034
226.016
225.999
225.984
225.972
225.963
225.956
225.952
225.951
225.953
225.958
225.967
225.979
225.995
226.014
226.036
226.06
226.088
226.118
236.186
235.63
235.077
234.522
233.966
233.414
232.857
232.29
231.739
231.21
230.673
230.133
229.609
229.095
228.588
228.084
227.579
227.103
226.634
226.147
225.69
225.267
224.828
224.393
224.012
223.635
223.252
222.913
222.601
222.27
221.949
221.67
221.403
221.163
220.941
220.731
220.548
220.401
220.293
220.219
220.183
220.185
220.209
220.264
220.35
220.466
220.611
220.788
220.997
221.234
221.49
221.759
222.041
222.33
222.61
222.897
223.204
223.478
223.743
224.031
224.3
224.53
224.766
224.998
225.206
225.399
225.581
225.749
225.899
226.035
226.158
226.269
226.369
226.452
226.519
226.574
226.617
226.651
226.679
226.698
226.707
226.708
226.706
226.699
226.688
226.672
226.652
226.631
226.607
226.583
226.558
226.533
226.508
226.484
226.461
226.44
226.42
226.402
226.387
226.374
226.364
226.357
226.353
226.353
226.355
226.36
226.368
226.379
226.394
226.411
226.431
226.454
226.478
226.505
226.535
236.815
236.251
235.689
235.126
234.567
234.012
233.451
232.884
232.342
231.81
231.268
230.734
230.216
229.7
229.201
228.708
228.211
227.746
227.282
226.802
226.368
225.951
225.513
225.102
224.734
224.353
223.987
223.654
223.349
223.015
222.712
222.437
222.176
221.941
221.732
221.542
221.374
221.234
221.126
221.05
221.006
221.004
221.019
221.061
221.131
221.228
221.351
221.499
221.672
221.868
222.081
222.309
222.548
222.791
223.038
223.292
223.55
223.798
224.046
224.313
224.551
224.761
224.971
225.183
225.385
225.574
225.755
225.926
226.087
226.237
226.369
226.491
226.609
226.712
226.794
226.862
226.922
226.972
227.012
227.043
227.063
227.076
227.082
227.081
227.076
227.067
227.052
227.035
227.015
226.994
226.972
226.95
226.928
226.907
226.887
226.869
226.853
226.839
226.828
226.82
226.815
226.813
226.814
226.818
226.825
226.835
226.848
226.864
226.883
226.904
226.928
226.954
226.981
227.011
227.044
227.078
241.528
240.946
240.364
239.782
239.203
238.627
238.052
237.482
236.916
236.351
235.787
235.231
234.678
234.117
233.559
233.027
232.493
231.952
231.432
230.918
230.4
229.918
229.436
228.948
228.494
228.034
227.571
227.152
226.737
226.308
225.921
225.562
225.178
224.821
224.49
224.176
223.861
223.568
223.294
223.041
222.814
222.612
222.43
222.27
222.137
222.031
221.952
221.901
221.884
221.89
221.916
221.966
222.039
222.135
222.251
222.389
222.545
222.717
222.901
223.095
223.294
223.498
223.709
223.924
224.133
224.352
224.593
224.798
224.985
225.19
225.396
225.59
225.777
225.958
226.133
226.303
226.466
226.611
226.746
226.878
226.999
227.096
227.179
227.256
227.325
227.382
227.428
227.464
227.49
227.508
227.519
227.523
227.522
227.517
227.509
227.496
227.482
227.466
227.45
227.434
227.419
227.405
227.393
227.384
227.377
227.373
227.372
227.374
227.379
227.387
227.398
227.412
227.428
227.447
227.469
227.493
227.519
227.548
227.578
227.611
227.645
227.683
227.722
242.276
241.692
241.11
240.529
239.951
239.376
238.803
238.235
237.671
237.108
236.548
235.998
235.449
234.892
234.35
233.825
233.289
232.761
232.256
231.741
231.23
230.769
230.296
229.818
229.373
228.917
228.477
228.072
227.653
227.248
226.876
226.524
226.139
225.783
225.455
225.141
224.838
224.551
224.284
224.039
223.816
223.616
223.436
223.277
223.143
223.035
222.952
222.891
222.856
222.849
222.858
222.885
222.932
222.998
223.082
223.183
223.3
223.431
223.574
223.724
223.881
224.045
224.215
224.388
224.562
224.749
224.956
225.141
225.307
225.495
225.694
225.879
226.06
226.239
226.417
226.592
226.766
226.924
227.074
227.221
227.357
227.469
227.57
227.667
227.756
227.833
227.898
227.952
227.996
228.031
228.058
228.077
228.089
228.097
228.1
228.099
228.095
228.089
228.083
228.075
228.068
228.062
228.059
228.057
228.058
228.062
228.07
228.081
228.094
228.111
228.131
228.154
228.179
228.208
228.239
228.273
228.309
228.347
228.388
228.431
228.476
228.523
228.574
243.102
242.521
241.942
241.365
240.791
240.221
239.653
239.091
238.533
237.976
237.426
236.884
236.34
235.795
235.272
234.751
234.218
233.713
233.218
232.705
232.214
231.769
231.3
230.837
230.401
229.954
229.537
229.142
228.725
228.345
227.984
227.637
227.249
226.898
226.574
226.263
225.966
225.688
225.429
225.189
224.967
224.765
224.584
224.422
224.282
224.166
224.073
224.001
223.95
223.92
223.911
223.917
223.937
223.973
224.024
224.09
224.169
224.26
224.362
224.472
224.59
224.714
224.845
224.98
225.121
225.274
225.45
225.611
225.758
225.929
226.117
226.293
226.466
226.641
226.818
226.998
227.18
227.353
227.517
227.678
227.827
227.958
228.081
228.201
228.312
228.413
228.501
228.578
228.644
228.701
228.748
228.786
228.817
228.84
228.857
228.869
228.878
228.884
228.889
228.893
228.898
228.904
228.912
228.923
228.937
228.953
228.973
228.997
229.023
229.054
229.087
229.124
229.164
229.208
229.253
229.302
229.353
229.407
229.463
229.522
229.584
229.649
229.717
244.016
243.441
242.869
242.3
241.734
241.172
240.614
240.062
239.513
238.967
238.431
237.9
237.365
236.84
236.332
235.817
235.3
234.819
234.333
233.826
233.364
232.929
232.463
232.02
231.593
231.164
230.767
230.379
229.974
229.609
229.256
228.912
228.533
228.19
227.868
227.559
227.27
227
226.747
226.509
226.287
226.083
225.897
225.73
225.581
225.453
225.346
225.259
225.191
225.14
225.107
225.088
225.086
225.092
225.111
225.143
225.186
225.24
225.303
225.375
225.455
225.542
225.637
225.738
225.847
225.967
226.112
226.248
226.376
226.531
226.705
226.872
227.035
227.205
227.382
227.566
227.756
227.945
228.123
228.297
228.464
228.619
228.767
228.912
229.05
229.177
229.293
229.398
229.491
229.572
229.642
229.702
229.753
229.797
229.834
229.865
229.892
229.916
229.938
229.96
229.982
230.005
230.03
230.057
230.088
230.122
230.159
230.201
230.246
230.296
230.349
230.405
230.465
230.529
230.595
230.665
230.737
230.813
230.892
230.974
231.059
231.147
231.24
231.336
231.435
245.023
244.459
243.899
243.342
242.789
242.24
241.696
241.158
240.623
240.094
239.574
239.057
238.538
238.038
237.544
237.037
236.55
236.088
235.612
235.123
234.69
234.261
233.805
233.385
232.971
232.56
232.181
231.805
231.415
231.055
230.71
230.368
230.016
229.682
229.361
229.055
228.772
228.509
228.26
228.023
227.801
227.593
227.402
227.226
227.068
226.927
226.803
226.697
226.609
226.536
226.478
226.434
226.403
226.381
226.371
226.372
226.38
226.398
226.426
226.462
226.507
226.561
226.623
226.694
226.776
226.869
226.983
227.094
227.207
227.345
227.506
227.664
227.819
227.984
228.161
228.349
228.549
228.754
228.949
229.138
229.325
229.507
229.686
229.861
230.029
230.188
230.335
230.47
230.592
230.704
230.805
230.895
230.974
231.046
231.109
231.165
231.216
231.264
231.309
231.353
231.397
231.442
231.489
231.539
231.592
231.649
231.71
231.776
231.846
231.92
231.999
232.081
232.168
232.258
232.352
232.449
232.55
232.655
232.763
232.875
232.991
233.11
233.234
233.362
233.494
246.133
245.585
245.041
244.501
243.965
243.435
242.91
242.39
241.875
241.367
240.867
240.367
239.875
239.399
238.921
238.432
237.98
237.534
237.071
236.61
236.204
235.784
235.344
234.949
234.554
234.158
233.794
233.441
233.067
232.71
232.374
232.043
231.714
231.39
231.074
230.774
230.497
230.238
229.992
229.757
229.533
229.322
229.125
228.942
228.773
228.619
228.48
228.356
228.246
228.15
228.068
227.997
227.938
227.889
227.849
227.819
227.796
227.782
227.779
227.783
227.796
227.818
227.851
227.894
227.949
228.018
228.103
228.193
228.295
228.42
228.569
228.721
228.869
229.031
229.211
229.408
229.62
229.843
230.058
230.266
230.477
230.691
230.902
231.111
231.313
231.508
231.693
231.867
232.029
232.179
232.317
232.443
232.558
232.663
232.758
232.846
232.927
233.004
233.077
233.149
233.221
233.294
233.37
233.448
233.53
233.617
233.708
233.804
233.905
234.011
234.122
234.237
234.357
234.481
234.609
234.742
234.878
235.019
235.164
235.313
235.466
235.624
235.787
235.954
236.126
247.889
247.357
246.83
246.307
245.789
245.276
244.769
244.268
243.771
243.281
242.799
242.323
241.847
241.385
240.934
240.475
240.019
239.599
239.172
238.724
238.304
237.921
237.513
237.097
236.729
236.356
235.978
235.631
235.303
234.95
234.6
234.275
233.96
233.646
233.337
233.031
232.739
232.468
232.214
231.971
231.737
231.514
231.301
231.099
230.909
230.731
230.566
230.413
230.272
230.143
230.026
229.921
229.826
229.741
229.665
229.598
229.539
229.488
229.446
229.413
229.388
229.371
229.368
229.374
229.391
229.422
229.467
229.527
229.601
229.691
229.803
229.942
230.092
230.239
230.402
230.59
230.799
231.027
231.271
231.51
231.743
231.982
232.23
232.482
232.733
232.979
233.219
233.45
233.67
233.878
234.074
234.256
234.424
234.58
234.724
234.858
234.982
235.099
235.211
235.319
235.425
235.532
235.639
235.749
235.862
235.979
236.102
236.229
236.363
236.501
236.645
236.795
236.95
237.109
237.274
237.443
237.617
237.796
237.979
238.167
238.359
238.557
238.759
238.966
239.179
239.397
249.213
248.706
248.205
247.709
247.219
246.734
246.255
245.782
245.315
244.855
244.403
243.954
243.51
243.082
242.658
242.225
241.81
241.418
241.015
240.593
240.217
239.854
239.467
239.081
238.741
238.393
238.036
237.714
237.409
237.082
236.743
236.434
236.135
235.838
235.547
235.255
234.973
234.711
234.463
234.225
233.994
233.772
233.559
233.355
233.16
232.976
232.801
232.636
232.481
232.336
232.201
232.076
231.959
231.851
231.752
231.66
231.576
231.5
231.432
231.373
231.323
231.282
231.253
231.236
231.235
231.244
231.269
231.311
231.371
231.452
231.555
231.687
231.835
231.982
232.153
232.354
232.583
232.835
233.102
233.368
233.636
233.916
234.209
234.508
234.808
235.105
235.397
235.68
235.953
236.213
236.459
236.69
236.907
237.109
237.297
237.474
237.641
237.799
237.951
238.099
238.245
238.391
238.539
238.688
238.842
239.001
239.165
239.335
239.511
239.694
239.882
240.076
240.276
240.481
240.691
240.907
241.127
241.353
241.584
241.819
242.06
242.305
242.557
242.814
243.076
243.345
243.62
243.901
250.669
250.194
249.724
249.261
248.803
248.351
247.906
247.466
247.034
246.609
246.19
245.776
245.37
244.977
244.583
244.186
243.814
243.452
243.077
242.693
242.357
242.02
241.66
241.309
241
240.68
240.35
240.056
239.776
239.479
239.157
238.866
238.587
238.31
238.04
237.766
237.496
237.245
237.009
236.779
236.553
236.335
236.124
235.921
235.724
235.535
235.354
235.181
235.016
234.858
234.709
234.567
234.432
234.305
234.185
234.073
233.967
233.869
233.78
233.699
233.627
233.566
233.516
233.48
233.46
233.459
233.469
233.498
233.549
233.624
233.724
233.858
234.008
234.163
234.35
234.573
234.829
235.112
235.407
235.707
236.021
236.351
236.695
237.047
237.403
237.757
238.106
238.446
238.776
239.092
239.393
239.677
239.945
240.198
240.435
240.659
240.872
241.075
241.272
241.464
241.655
241.845
242.037
242.231
242.431
242.635
242.846
243.062
243.286
243.516
243.752
243.994
244.242
244.496
244.756
245.021
245.291
245.566
245.846
246.131
246.422
246.718
247.02
247.328
247.642
247.963
248.29
248.624
252.273
251.834
251.401
250.974
250.554
250.141
249.734
249.333
248.94
248.554
248.175
247.8
247.436
247.08
246.723
246.37
246.04
245.711
245.371
245.034
244.736
244.43
244.106
243.793
243.518
243.23
242.932
242.666
242.414
242.152
241.856
241.587
241.33
241.076
240.831
240.579
240.323
240.087
239.867
239.649
239.432
239.221
239.016
238.816
238.622
238.433
238.249
238.071
237.899
237.733
237.573
237.419
237.271
237.128
236.992
236.863
236.74
236.625
236.518
236.419
236.331
236.254
236.189
236.139
236.107
236.097
236.102
236.124
236.172
236.248
236.352
236.496
236.654
236.828
237.041
237.296
237.588
237.907
238.238
238.583
238.949
239.335
239.737
240.149
240.564
240.979
241.39
241.791
242.181
242.555
242.913
243.252
243.574
243.878
244.165
244.438
244.699
244.95
245.194
245.433
245.67
245.907
246.146
246.388
246.635
246.888
247.147
247.413
247.685
247.964
248.25
248.542
248.839
249.142
249.451
249.765
250.084
250.408
250.737
251.071
251.411
251.756
252.107
252.464
252.827
253.197
253.573
253.957
254.036
253.638
253.247
252.862
252.485
252.114
251.751
251.394
251.045
250.703
250.366
250.037
249.717
249.403
249.089
248.785
248.496
248.206
247.907
247.622
247.362
247.092
246.811
246.539
246.3
246.05
245.79
245.552
245.332
245.106
244.846
244.603
244.375
244.143
243.926
243.701
243.464
243.244
243.044
242.843
242.64
242.44
242.244
242.053
241.864
241.678
241.495
241.317
241.142
240.972
240.806
240.644
240.486
240.334
240.186
240.045
239.909
239.781
239.661
239.551
239.451
239.363
239.29
239.233
239.195
239.182
239.187
239.212
239.265
239.349
239.467
239.629
239.803
240.007
240.258
240.554
240.891
241.251
241.627
242.026
242.452
242.9
243.364
243.838
244.317
244.795
245.268
245.731
246.18
246.612
247.026
247.419
247.793
248.147
248.484
248.805
249.113
249.411
249.702
249.988
250.272
250.556
250.842
251.132
251.427
251.728
252.035
252.349
252.669
252.996
253.328
253.667
254.011
254.361
254.715
255.075
255.439
255.808
256.182
256.561
256.944
257.333
257.728
258.128
258.534
258.947
259.366
259.791
260.224
255.617
255.272
254.935
254.604
254.281
253.965
253.656
253.355
253.06
252.772
252.492
252.219
251.951
251.686
251.432
251.187
250.941
250.691
250.457
250.236
250.01
249.775
249.549
249.349
249.141
248.922
248.715
248.53
248.343
248.123
247.914
247.717
247.512
247.323
247.131
246.919
246.713
246.535
246.358
246.172
245.987
245.806
245.626
245.447
245.268
245.09
244.915
244.742
244.571
244.403
244.237
244.075
243.917
243.763
243.614
243.471
243.336
243.209
243.092
242.987
242.895
242.819
242.762
242.726
242.72
242.73
242.766
242.834
242.937
243.079
243.266
243.467
243.714
244.012
244.358
244.744
245.151
245.582
246.043
246.532
247.044
247.573
248.111
248.654
249.194
249.727
250.247
250.752
251.238
251.703
252.146
252.568
252.968
253.351
253.716
254.069
254.411
254.745
255.075
255.403
255.732
256.063
256.397
256.737
257.082
257.433
257.791
258.154
258.523
258.898
259.278
259.663
260.052
260.446
260.844
261.246
261.653
262.063
262.478
262.897
263.321
263.75
264.185
264.624
265.069
265.521
265.978
266.441
257.779
257.485
257.197
256.917
256.645
256.38
256.123
255.873
255.63
255.394
255.165
254.943
254.726
254.514
254.311
254.113
253.915
253.719
253.535
253.358
253.178
252.993
252.816
252.657
252.493
252.319
252.148
252.002
251.853
251.675
251.506
251.344
251.17
251.008
250.851
250.67
250.48
250.326
250.174
250.009
249.843
249.681
249.517
249.35
249.181
249.012
248.843
248.675
248.508
248.342
248.177
248.015
247.855
247.699
247.548
247.404
247.266
247.138
247.021
246.917
246.829
246.758
246.709
246.686
246.69
246.715
246.772
246.865
246.996
247.175
247.39
247.635
247.935
248.287
248.69
249.128
249.588
250.08
250.606
251.161
251.737
252.329
252.928
253.529
254.126
254.713
255.285
255.838
256.37
256.879
257.364
257.826
258.266
258.687
259.091
259.481
259.861
260.234
260.603
260.969
261.337
261.706
262.079
262.457
262.84
263.228
263.621
264.02
264.424
264.832
265.244
265.66
266.08
266.504
266.93
267.36
267.793
268.229
268.669
269.113
269.56
270.012
270.468
270.928
271.393
271.864
272.339
272.819
259.885
259.651
259.425
259.207
258.996
258.793
258.597
258.409
258.227
258.052
257.884
257.72
257.562
257.412
257.265
257.119
256.978
256.844
256.715
256.584
256.451
256.323
256.208
256.09
255.961
255.832
255.727
255.615
255.481
255.354
255.231
255.091
254.956
254.833
254.685
254.517
254.385
254.26
254.117
253.974
253.834
253.688
253.535
253.378
253.221
253.062
252.902
252.741
252.581
252.421
252.262
252.106
251.953
251.805
251.664
251.53
251.408
251.297
251.202
251.124
251.066
251.034
251.032
251.052
251.104
251.192
251.319
251.489
251.713
251.965
252.266
252.625
253.038
253.5
253.99
254.51
255.066
255.656
256.273
256.909
257.558
258.211
258.863
259.508
260.139
260.751
261.343
261.91
262.451
262.968
263.46
263.93
264.38
264.814
265.234
265.644
266.047
266.446
266.843
267.24
267.64
268.042
268.449
268.86
269.275
269.694
270.118
270.545
270.975
271.409
271.845
272.283
272.724
273.166
273.611
274.058
274.508
274.959
275.414
275.871
276.331
276.794
277.261
277.732
278.207
278.685
279.167
262.29
262.12
261.958
261.803
261.656
261.517
261.384
261.258
261.139
261.026
260.918
260.815
260.719
260.625
260.534
260.446
260.364
260.284
260.204
260.122
260.045
259.975
259.901
259.818
259.736
259.672
259.597
259.505
259.421
259.336
259.232
259.124
259.034
258.919
258.775
258.667
258.568
258.446
258.329
258.213
258.086
257.948
257.804
257.66
257.513
257.363
257.212
257.06
256.907
256.756
256.607
256.462
256.322
256.189
256.066
255.955
255.858
255.778
255.719
255.683
255.679
255.698
255.749
255.837
255.965
256.134
256.353
256.623
256.928
257.292
257.712
258.188
258.706
259.252
259.832
260.449
261.098
261.77
262.458
263.154
263.851
264.542
265.221
265.883
266.523
267.139
267.728
268.29
268.826
269.337
269.825
270.294
270.746
271.186
271.615
272.038
272.457
272.874
273.291
273.71
274.131
274.555
274.982
275.412
275.845
276.281
276.719
277.159
277.6
278.043
278.486
278.931
279.376
279.822
280.269
280.717
281.166
281.617
282.069
282.523
282.98
283.438
283.899
284.363
284.829
285.298
285.769
286.242
265.101
264.988
264.883
264.786
264.696
264.613
264.537
264.468
264.405
264.348
264.295
264.248
264.205
264.165
264.128
264.094
264.063
264.033
264.003
263.972
263.943
263.918
263.888
263.85
263.815
263.788
263.75
263.7
263.656
263.607
263.538
263.461
263.399
263.314
263.192
263.112
263.035
262.931
262.842
262.753
262.643
262.518
262.389
262.258
262.123