/*--------------------------------*- C++ -*----------------------------------*\
| =========                 |                                                 |
| \\      /  F ield         | OpenFOAM: The Open Source CFD Toolbox           |
|  \\    /   O peration     | Version:  v1706                                 |
|   \\  /    A nd           | Web:      www.OpenFOAM.com                      |
|    \\/     M anipulation  |                                                 |
\*---------------------------------------------------------------------------*/
FoamFile
{
    version     2.0;
    format      ascii;
    class       volVectorField;
    location    "1.5e-05";
    object      U;
}
// * * * * * * * * * * * * * * * * * * * * * * * * * * * * * * * * * * * * * //

dimensions      [0 1 -1 0 0 0 0];


internalField   nonuniform List<vector> 
29871
(
(978.54 0.0604057 7.26813e-15)
(978.539 0.0614559 4.7152e-15)
(978.539 0.0623924 4.79766e-15)
(978.539 0.063212 3.9755e-15)
(978.538 0.0639132 2.58584e-15)
(978.538 0.0644944 3.35289e-15)
(978.538 0.0649523 4.25127e-15)
(978.538 0.0652826 4.4681e-15)
(978.538 0.0654821 4.92404e-15)
(978.538 0.0655355 4.8935e-15)
(978.539 0.0654449 4.96124e-15)
(978.539 0.0652315 6.46593e-15)
(978.539 0.0648865 5.26462e-15)
(978.54 0.064408 5.71042e-15)
(978.54 0.0637989 4.09783e-15)
(978.541 0.0630644 2.72441e-15)
(978.542 0.0622111 3.25627e-15)
(978.542 0.0612457 3.99539e-15)
(978.543 0.0601756 4.31529e-15)
(978.544 0.059009 4.28455e-15)
(978.545 0.057755 3.87822e-15)
(978.546 0.0564234 4.27582e-15)
(978.547 0.0550244 2.73451e-15)
(978.548 0.0535688 4.60663e-15)
(978.549 0.0520678 6.13709e-15)
(978.55 0.0505326 5.34403e-15)
(978.551 0.0489733 6.75507e-15)
(978.552 0.047399 3.59084e-15)
(978.553 0.0458172 3.40379e-15)
(978.554 0.044235 5.24411e-15)
(978.555 0.0426593 5.22556e-15)
(978.556 0.0410967 3.47362e-15)
(978.557 0.0395534 4.79398e-15)
(978.558 0.0380349 7.05497e-15)
(978.559 0.0365452 4.2058e-15)
(978.56 0.0350878 2.15628e-15)
(978.56 0.0336663 2.14563e-15)
(978.561 0.0322847 5.08097e-15)
(978.562 0.0309476 5.48689e-15)
(978.563 0.02966 5.58923e-15)
(978.563 0.0284273 6.3665e-15)
(978.564 0.0272552 6.9379e-15)
(978.565 0.0261498 6.86502e-15)
(978.565 0.025117 3.68258e-15)
(978.566 0.0241607 3.80095e-15)
(978.566 0.0232842 4.49482e-15)
(978.567 0.0224898 3.16127e-15)
(978.567 0.0217771 1.09942e-15)
(978.567 0.021144 2.55382e-15)
(978.568 0.0205879 6.31395e-15)
(978.568 0.0201044 4.97799e-15)
(978.568 0.0196905 1.68954e-15)
(978.568 0.0193424 3.59986e-15)
(978.568 0.0190555 5.88095e-15)
(978.568 0.0188255 4.74269e-15)
(978.568 0.018648 4.94626e-15)
(978.568 0.018523 5.56446e-15)
(978.568 0.018439 6.15821e-15)
(978.568 0.0184059 3.93126e-15)
(978.568 0.0184116 3.18139e-15)
(978.568 0.0184388 2.1143e-15)
(978.568 0.0184891 1.95603e-15)
(978.568 0.0185617 2.27259e-15)
(978.568 0.0186557 1.85102e-15)
(978.568 0.0187765 4.77975e-15)
(978.568 0.0189199 4.82402e-15)
(978.568 0.0190802 3.34467e-15)
(978.568 0.0192529 2.43547e-15)
(978.567 0.0194347 2.3283e-15)
(978.567 0.0196233 3.05309e-15)
(978.567 0.0198173 4.1541e-15)
(978.567 0.0200163 3.76921e-15)
(978.567 0.0202205 2.50177e-15)
(978.567 0.0204305 3.30251e-15)
(978.567 0.020647 3.44125e-15)
(978.566 0.0208706 4.55887e-15)
(978.566 0.0211018 2.04905e-15)
(978.566 0.0213408 3.02293e-15)
(978.566 0.0215878 3.38156e-15)
(978.566 0.0218429 5.9093e-15)
(978.566 0.0221062 5.54333e-15)
(978.565 0.0223778 4.80418e-15)
(978.565 0.0226577 4.61224e-15)
(978.565 0.022946 3.64641e-15)
(978.565 0.0232431 5.61313e-15)
(978.565 0.023549 4.75068e-15)
(978.564 0.023864 4.1267e-15)
(978.564 0.024188 5.2904e-15)
(978.564 0.0245211 5.35923e-15)
(978.564 0.0248631 4.70507e-15)
(978.564 0.0252136 4.58308e-15)
(978.563 0.0255721 2.77365e-15)
(978.563 0.025938 4.16931e-15)
(978.563 0.0263103 4.4824e-15)
(978.563 0.0266882 3.60279e-15)
(978.562 0.0270705 3.803e-15)
(978.562 0.0274563 3.92609e-15)
(978.562 0.0278443 3.95167e-15)
(978.562 0.0282334 3.99513e-15)
(978.561 0.0286229 3.81963e-15)
(978.561 0.0290117 4.63761e-15)
(978.561 0.0293995 3.62606e-15)
(978.561 0.0297857 2.30187e-15)
(978.56 0.0301703 3.03162e-15)
(978.56 0.0305532 1.64194e-15)
(978.347 0.34559 1.1907e-14)
(978.343 0.353043 1.20149e-14)
(978.341 0.359821 1.33895e-14)
(978.338 0.365876 1.30407e-14)
(978.337 0.371158 1.19992e-14)
(978.335 0.375621 1.38837e-14)
(978.335 0.379232 1.26915e-14)
(978.335 0.381995 1.27622e-14)
(978.335 0.383884 1.25487e-14)
(978.336 0.38488 1.24055e-14)
(978.338 0.385034 1.18352e-14)
(978.34 0.384412 1.17557e-14)
(978.342 0.382955 1.26977e-14)
(978.345 0.380694 9.00878e-15)
(978.348 0.377648 7.88841e-15)
(978.352 0.37384 1.00143e-14)
(978.356 0.3693 1.20347e-14)
(978.361 0.364067 1.13742e-14)
(978.366 0.358183 1.00641e-14)
(978.371 0.351693 8.82728e-15)
(978.376 0.344641 9.62885e-15)
(978.382 0.337077 1.10865e-14)
(978.388 0.329049 1.28056e-14)
(978.393 0.320608 1.28528e-14)
(978.4 0.311805 1.06274e-14)
(978.406 0.302693 1.16427e-14)
(978.412 0.293329 1.27419e-14)
(978.418 0.283775 1.15384e-14)
(978.424 0.274095 1.18376e-14)
(978.43 0.264352 1.17506e-14)
(978.436 0.254607 1.25038e-14)
(978.442 0.244919 8.34028e-15)
(978.448 0.235342 1.18868e-14)
(978.453 0.225932 1.48072e-14)
(978.459 0.216741 1.35042e-14)
(978.464 0.207819 1.20552e-14)
(978.469 0.199209 9.46013e-15)
(978.473 0.190945 1.22541e-14)
(978.478 0.183055 1.14732e-14)
(978.482 0.175557 1.27116e-14)
(978.486 0.168464 1.26518e-14)
(978.489 0.161783 1.15043e-14)
(978.492 0.155513 1.20028e-14)
(978.495 0.14965 1.10054e-14)
(978.498 0.144195 1.06427e-14)
(978.5 0.139146 1.17977e-14)
(978.502 0.134497 1.15018e-14)
(978.504 0.130249 8.33201e-15)
(978.506 0.126407 1.06638e-14)
(978.507 0.12297 9.40852e-15)
(978.508 0.119938 8.24813e-15)
(978.509 0.117304 1.05509e-14)
(978.51 0.115052 1.17617e-14)
(978.511 0.113178 9.25219e-15)
(978.511 0.111655 1.04383e-14)
(978.511 0.110461 9.20675e-15)
(978.511 0.109605 1.18378e-14)
(978.511 0.109067 1.23372e-14)
(978.511 0.108874 7.5876e-15)
(978.511 0.10892 8.579e-15)
(978.51 0.10908 9.18615e-15)
(978.51 0.10939 7.96448e-15)
(978.509 0.109892 9.13289e-15)
(978.508 0.110577 8.48957e-15)
(978.508 0.111429 1.03314e-14)
(978.507 0.112426 9.66766e-15)
(978.506 0.113552 8.88378e-15)
(978.505 0.114789 1.08898e-14)
(978.504 0.116124 1.08956e-14)
(978.503 0.117545 8.79414e-15)
(978.502 0.119041 1.07609e-14)
(978.501 0.120599 7.83678e-15)
(978.5 0.122211 8.16662e-15)
(978.499 0.123867 1.06427e-14)
(978.498 0.125558 8.88645e-15)
(978.497 0.127279 9.1119e-15)
(978.496 0.129027 8.64712e-15)
(978.494 0.1308 9.17556e-15)
(978.493 0.132598 9.19785e-15)
(978.492 0.134422 1.16175e-14)
(978.491 0.136277 1.01522e-14)
(978.49 0.138163 9.73229e-15)
(978.488 0.140084 9.60956e-15)
(978.487 0.142041 1.07785e-14)
(978.486 0.144038 1.17058e-14)
(978.484 0.146074 1.16613e-14)
(978.483 0.14815 1.09708e-14)
(978.481 0.150266 1.07851e-14)
(978.48 0.152422 1.13085e-14)
(978.479 0.154615 1.12171e-14)
(978.477 0.156846 9.77107e-15)
(978.476 0.159113 8.98081e-15)
(978.474 0.161414 1.24969e-14)
(978.473 0.163748 1.1118e-14)
(978.471 0.166113 9.78608e-15)
(978.469 0.168508 9.36285e-15)
(978.468 0.17093 9.69617e-15)
(978.466 0.173378 1.04707e-14)
(978.465 0.17585 9.18105e-15)
(978.463 0.178344 6.03261e-15)
(978.462 0.180858 9.69743e-15)
(978.46 0.183389 1.04121e-14)
(978.458 0.185933 7.79061e-15)
(978.457 0.188488 8.16328e-15)
(978.455 0.19105 6.41509e-15)
(977.876 1.02509 2.27005e-14)
(977.866 1.04842 2.24498e-14)
(977.857 1.06991 1.77338e-14)
(977.85 1.08944 2.10991e-14)
(977.844 1.10692 2.30118e-14)
(977.84 1.12229 1.97137e-14)
(977.837 1.1355 2.03413e-14)
(977.836 1.14648 2.00428e-14)
(977.836 1.15514 2.22133e-14)
(977.838 1.16137 2.00459e-14)
(977.842 1.16497 1.86102e-14)
(977.848 1.1656 1.61513e-14)
(977.853 1.1644 1.56543e-14)
(977.86 1.16107 1.86765e-14)
(977.869 1.1552 1.92555e-14)
(977.88 1.14696 1.87133e-14)
(977.891 1.13646 1.75242e-14)
(977.904 1.12378 1.83005e-14)
(977.918 1.10902 1.69774e-14)
(977.933 1.0923 1.70911e-14)
(977.948 1.07377 1.61906e-14)
(977.964 1.05357 1.49609e-14)
(977.981 1.03185 1.82603e-14)
(977.998 1.00878 2.05455e-14)
(978.016 0.984529 1.60141e-14)
(978.033 0.959268 1.85843e-14)
(978.051 0.933168 1.99574e-14)
(978.069 0.906391 1.8859e-14)
(978.087 0.879082 1.82124e-14)
(978.105 0.85138 1.85188e-14)
(978.123 0.823421 1.84017e-14)
(978.14 0.795342 1.91868e-14)
(978.157 0.767283 1.78051e-14)
(978.174 0.739373 1.88535e-14)
(978.19 0.711735 1.96743e-14)
(978.206 0.684484 2.01501e-14)
(978.221 0.657732 1.98971e-14)
(978.235 0.631596 1.88949e-14)
(978.249 0.606199 1.859e-14)
(978.262 0.581662 1.94073e-14)
(978.275 0.558107 1.85809e-14)
(978.286 0.535644 1.72721e-14)
(978.297 0.514376 1.76775e-14)
(978.307 0.494392 1.77656e-14)
(978.315 0.475768 1.85651e-14)
(978.323 0.458542 1.77282e-14)
(978.331 0.442733 1.96998e-14)
(978.337 0.428361 1.82924e-14)
(978.342 0.415412 1.63187e-14)
(978.347 0.403834 1.59241e-14)
(978.351 0.393599 1.47545e-14)
(978.354 0.38466 1.70563e-14)
(978.356 0.376957 1.5022e-14)
(978.358 0.370482 1.51909e-14)
(978.359 0.365154 1.62616e-14)
(978.359 0.360909 1.83632e-14)
(978.359 0.357664 1.49715e-14)
(978.359 0.355401 2.03734e-14)
(978.357 0.354292 1.8769e-14)
(978.356 0.354195 1.43367e-14)
(978.355 0.354544 1.46918e-14)
(978.354 0.355324 1.43094e-14)
(978.351 0.356756 1.64959e-14)
(978.349 0.35884 1.7221e-14)
(978.346 0.361493 1.44703e-14)
(978.343 0.364641 1.55986e-14)
(978.34 0.368217 1.54716e-14)
(978.337 0.372156 1.51822e-14)
(978.334 0.376398 1.62944e-14)
(978.331 0.380887 1.64374e-14)
(978.328 0.385576 1.53834e-14)
(978.324 0.39043 1.69092e-14)
(978.321 0.395425 1.44482e-14)
(978.317 0.400549 1.56533e-14)
(978.314 0.405798 1.58923e-14)
(978.31 0.411173 1.39955e-14)
(978.306 0.416678 1.69343e-14)
(978.302 0.422318 1.73635e-14)
(978.299 0.428099 1.46585e-14)
(978.295 0.434027 1.48506e-14)
(978.291 0.440107 1.75211e-14)
(978.286 0.446347 1.6504e-14)
(978.282 0.452751 1.64458e-14)
(978.278 0.459326 1.52027e-14)
(978.273 0.466079 1.77359e-14)
(978.268 0.473018 1.76597e-14)
(978.264 0.480149 1.44968e-14)
(978.259 0.48748 1.46889e-14)
(978.254 0.495016 1.64582e-14)
(978.249 0.502763 1.49049e-14)
(978.243 0.510724 1.58976e-14)
(978.238 0.518898 1.45534e-14)
(978.232 0.527285 1.41624e-14)
(978.227 0.535879 1.63844e-14)
(978.221 0.544675 1.65869e-14)
(978.215 0.55366 1.49243e-14)
(978.209 0.562823 1.39946e-14)
(978.203 0.572147 1.72094e-14)
(978.197 0.581617 1.61788e-14)
(978.191 0.591212 1.48606e-14)
(978.185 0.600912 1.45638e-14)
(978.178 0.610697 1.53959e-14)
(978.172 0.620549 1.53227e-14)
(978.166 0.630452 1.41515e-14)
(978.16 0.640393 1.39402e-14)
(978.153 0.65036 1.416e-14)
(976.719 2.70828 3.07147e-14)
(976.69 2.77432 3.21935e-14)
(976.666 2.83548 2.77418e-14)
(976.645 2.89141 2.87332e-14)
(976.629 2.94175 2.89293e-14)
(976.617 2.98611 2.75363e-14)
(976.609 3.02415 3.00371e-14)
(976.605 3.05564 2.91043e-14)
(976.606 3.08058 2.63972e-14)
(976.612 3.09923 2.61995e-14)
(976.622 3.11093 2.84363e-14)
(976.637 3.11443 2.68369e-14)
(976.651 3.11194 2.62217e-14)
(976.67 3.10432 2.62041e-14)
(976.695 3.08974 2.6659e-14)
(976.723 3.06858 2.48216e-14)
(976.755 3.04119 2.5574e-14)
(976.789 3.00782 2.62433e-14)
(976.826 2.96872 2.62796e-14)
(976.866 2.92419 2.58182e-14)
(976.907 2.87457 2.5637e-14)
(976.951 2.82024 2.80666e-14)
(976.996 2.76158 2.80597e-14)
(977.042 2.69903 2.61158e-14)
(977.09 2.63302 2.52449e-14)
(977.138 2.56399 2.62815e-14)
(977.187 2.49241 2.8122e-14)
(977.236 2.41879 2.50416e-14)
(977.285 2.34365 2.36097e-14)
(977.333 2.26755 2.5637e-14)
(977.381 2.19099 2.57011e-14)
(977.428 2.11445 2.58116e-14)
(977.474 2.03839 2.51102e-14)
(977.518 1.96325 2.69929e-14)
(977.561 1.88943 2.61042e-14)
(977.602 1.81732 2.63094e-14)
(977.641 1.74726 2.65884e-14)
(977.678 1.67952 2.48274e-14)
(977.713 1.61429 2.47004e-14)
(977.745 1.55175 2.30737e-14)
(977.776 1.492 2.55094e-14)
(977.804 1.43516 2.64902e-14)
(977.83 1.38131 2.4071e-14)
(977.854 1.33053 2.57621e-14)
(977.876 1.28288 2.5918e-14)
(977.896 1.23848 2.40963e-14)
(977.913 1.19745 2.37871e-14)
(977.929 1.15983 2.49449e-14)
(977.942 1.12562 2.75594e-14)
(977.953 1.09501 2.28192e-14)
(977.962 1.06798 2.1282e-14)
(977.969 1.04444 2.14401e-14)
(977.974 1.02447 2.26548e-14)
(977.978 1.00778 2.51439e-14)
(977.98 0.994291 2.19328e-14)
(977.98 0.984032 2.22693e-14)
(977.978 0.976226 2.46881e-14)
(977.976 0.971682 2.57551e-14)
(977.971 0.970576 2.27049e-14)
(977.968 0.971161 2.26577e-14)
(977.963 0.972896 2.29458e-14)
(977.957 0.976405 2.1151e-14)
(977.95 0.981872 2.11509e-14)
(977.942 0.989117 2.09671e-14)
(977.934 0.997922 2.12718e-14)
(977.925 1.00809 2.13899e-14)
(977.916 1.01947 2.12899e-14)
(977.906 1.03191 2.08908e-14)
(977.896 1.04532 2.07218e-14)
(977.886 1.0596 2.09954e-14)
(977.875 1.07467 2.1788e-14)
(977.864 1.09045 2.17103e-14)
(977.853 1.10688 2.17968e-14)
(977.842 1.12386 2.16072e-14)
(977.83 1.14135 1.9659e-14)
(977.818 1.15927 2.03194e-14)
(977.806 1.1776 2.28573e-14)
(977.794 1.19631 2.23741e-14)
(977.781 1.21537 2.26502e-14)
(977.769 1.2348 2.41731e-14)
(977.756 1.25461 2.25806e-14)
(977.742 1.27482 2.09678e-14)
(977.728 1.29546 1.98752e-14)
(977.714 1.31656 2.08602e-14)
(977.7 1.33816 2.18603e-14)
(977.685 1.36027 1.89415e-14)
(977.67 1.38292 2.12716e-14)
(977.655 1.40612 2.39674e-14)
(977.639 1.42988 2.21681e-14)
(977.622 1.45421 1.99071e-14)
(977.606 1.47909 2.07958e-14)
(977.589 1.50453 2.01789e-14)
(977.572 1.5305 2.11668e-14)
(977.554 1.55698 2.18292e-14)
(977.536 1.58397 1.94545e-14)
(977.518 1.61142 1.9666e-14)
(977.5 1.63933 2.40794e-14)
(977.481 1.66767 2.25963e-14)
(977.463 1.6964 1.98427e-14)
(977.444 1.72552 2.17012e-14)
(977.425 1.755 2.11566e-14)
(977.406 1.78483 2.00563e-14)
(977.386 1.81498 2.15588e-14)
(977.367 1.84545 2.03689e-14)
(977.347 1.87621 1.90058e-14)
(977.327 1.90724 1.97694e-14)
(974.106 6.45644 3.7991e-14)
(974.037 6.61439 3.89032e-14)
(973.978 6.76129 3.80919e-14)
(973.928 6.89622 3.71835e-14)
(973.888 7.01848 3.82274e-14)
(973.857 7.12761 3.5514e-14)
(973.837 7.22339 3.61321e-14)
(973.826 7.30566 3.89772e-14)
(973.824 7.3739 3.98285e-14)
(973.833 7.42712 3.84383e-14)
(973.852 7.46533 3.54402e-14)
(973.882 7.48753 3.56454e-14)
(973.926 7.49032 3.60259e-14)
(973.961 7.47915 3.34198e-14)
(974.01 7.46005 3.44641e-14)
(974.072 7.42466 3.69409e-14)
(974.142 7.37387 3.51891e-14)
(974.219 7.30879 3.68685e-14)
(974.303 7.23029 3.5766e-14)
(974.392 7.13906 3.39315e-14)
(974.486 7.03584 3.35568e-14)
(974.585 6.92148 3.35607e-14)
(974.687 6.79686 3.59292e-14)
(974.793 6.66287 3.73473e-14)
(974.902 6.52042 3.37891e-14)
(975.012 6.37047 3.27121e-14)
(975.123 6.21402 3.28407e-14)
(975.236 6.05205 2.91973e-14)
(975.348 5.88548 2.96716e-14)
(975.46 5.71517 3.21751e-14)
(975.571 5.54194 3.2358e-14)
(975.68 5.36665 3.23229e-14)
(975.788 5.19021 3.26182e-14)
(975.894 5.01354 3.23209e-14)
(975.997 4.83752 3.3156e-14)
(976.096 4.66298 3.26463e-14)
(976.193 4.49079 3.43336e-14)
(976.285 4.3218 3.38221e-14)
(976.373 4.15693 2.90741e-14)
(976.457 3.99715 2.9989e-14)
(976.535 3.84337 3.30961e-14)
(976.609 3.69646 3.32239e-14)
(976.676 3.55714 3.12704e-14)
(976.738 3.42604 3.08078e-14)
(976.794 3.30364 3.3017e-14)
(976.844 3.19025 3.24164e-14)
(976.888 3.08598 3.17228e-14)
(976.926 2.99076 3.09482e-14)
(976.959 2.90465 2.98198e-14)
(976.986 2.82783 3.12799e-14)
(977.008 2.7597 2.97291e-14)
(977.025 2.69984 2.81956e-14)
(977.037 2.64879 2.86754e-14)
(977.045 2.6057 3.23343e-14)
(977.049 2.57032 3.19985e-14)
(977.048 2.5438 3.06435e-14)
(977.044 2.52328 3.01193e-14)
(977.036 2.50973 3.13729e-14)
(977.022 2.50658 3.03255e-14)
(977.013 2.50839 2.90516e-14)
(977.001 2.51292 2.95837e-14)
(976.983 2.52218 3.04041e-14)
(976.963 2.53689 2.89122e-14)
(976.941 2.55654 2.85856e-14)
(976.918 2.58047 2.95948e-14)
(976.894 2.60815 2.78087e-14)
(976.868 2.63913 2.57173e-14)
(976.841 2.67299 2.65238e-14)
(976.814 2.70935 2.66851e-14)
(976.786 2.74782 2.80768e-14)
(976.757 2.78805 2.85123e-14)
(976.728 2.82972 2.81732e-14)
(976.698 2.87259 3.00114e-14)
(976.668 2.91649 2.78986e-14)
(976.637 2.96133 2.66604e-14)
(976.606 3.00708 2.75397e-14)
(976.575 3.05376 2.71634e-14)
(976.543 3.10141 2.79146e-14)
(976.51 3.15012 2.83098e-14)
(976.477 3.19998 2.85937e-14)
(976.443 3.25105 2.98958e-14)
(976.408 3.30344 2.84258e-14)
(976.371 3.35722 2.62722e-14)
(976.334 3.41248 2.5568e-14)
(976.296 3.46928 2.77982e-14)
(976.256 3.5277 2.88243e-14)
(976.216 3.58782 2.75891e-14)
(976.174 3.64972 2.77319e-14)
(976.131 3.71347 2.89784e-14)
(976.087 3.77915 2.70997e-14)
(976.041 3.84681 2.74447e-14)
(975.994 3.91652 2.93429e-14)
(975.946 3.98832 2.64445e-14)
(975.897 4.06223 2.61974e-14)
(975.847 4.13829 2.67656e-14)
(975.795 4.21648 2.47682e-14)
(975.742 4.29678 2.60255e-14)
(975.688 4.37915 2.71451e-14)
(975.633 4.46354 2.48576e-14)
(975.577 4.54984 2.62731e-14)
(975.52 4.63796 2.67703e-14)
(975.463 4.72775 2.46053e-14)
(975.404 4.81908 2.6255e-14)
(975.345 4.9118 2.79002e-14)
(975.286 5.00577 2.63794e-14)
(975.225 5.10086 2.58196e-14)
(975.164 5.19694 2.77626e-14)
(968.219 15.0093 4.6208e-14)
(968.061 15.3845 4.49434e-14)
(967.925 15.7336 4.49701e-14)
(967.811 16.0547 4.37222e-14)
(967.719 16.346 4.45365e-14)
(967.65 16.6058 4.51965e-14)
(967.604 16.832 4.77696e-14)
(967.582 17.0232 4.57204e-14)
(967.585 17.1786 4.58799e-14)
(967.61 17.299 4.57308e-14)
(967.658 17.3882 4.23237e-14)
(967.733 17.4393 4.42239e-14)
(967.833 17.4421 4.32174e-14)
(967.917 17.416 4.22698e-14)
(968.038 17.3646 4.39414e-14)
(968.186 17.276 4.17402e-14)
(968.353 17.1519 4.01223e-14)
(968.535 16.9942 4.11754e-14)
(968.733 16.8046 4.10568e-14)
(968.943 16.5845 4.11643e-14)
(969.166 16.3357 4.07969e-14)
(969.399 16.06 4.15162e-14)
(969.641 15.7595 4.33333e-14)
(969.891 15.4363 4.12389e-14)
(970.147 15.0931 3.64277e-14)
(970.408 14.7324 3.80683e-14)
(970.671 14.3568 3.80821e-14)
(970.935 13.9689 3.77907e-14)
(971.198 13.5713 3.99585e-14)
(971.46 13.167 3.9381e-14)
(971.718 12.7589 4.00118e-14)
(971.971 12.3496 4.01267e-14)
(972.218 11.9415 4.0548e-14)
(972.458 11.5371 3.96428e-14)
(972.688 11.1383 4.15161e-14)
(972.91 10.7473 4.03143e-14)
(973.121 10.3658 3.92971e-14)
(973.321 9.99524 3.76763e-14)
(973.51 9.63666 3.75112e-14)
(973.687 9.29095 3.93075e-14)
(973.853 8.95883 3.89066e-14)
(974.007 8.64099 3.88643e-14)
(974.149 8.33824 3.87047e-14)
(974.279 8.0514 3.76643e-14)
(974.397 7.78134 4.02008e-14)
(974.502 7.5291 3.89883e-14)
(974.595 7.29577 3.7824e-14)
(974.676 7.0825 3.72798e-14)
(974.743 6.88978 3.6491e-14)
(974.799 6.71697 3.88473e-14)
(974.842 6.56522 3.65102e-14)
(974.872 6.43654 3.42719e-14)
(974.892 6.32774 3.6897e-14)
(974.9 6.23817 3.92445e-14)
(974.897 6.17163 4.12611e-14)
(974.886 6.12029 4.01263e-14)
(974.866 6.08505 3.73164e-14)
(974.83 6.0756 3.33231e-14)
(974.803 6.08026 3.42052e-14)
(974.771 6.09107 3.537e-14)
(974.726 6.11358 3.57189e-14)
(974.675 6.14949 3.49739e-14)
(974.619 6.19783 3.60337e-14)
(974.559 6.25721 3.69923e-14)
(974.496 6.32634 3.30571e-14)
(974.43 6.40407 3.41501e-14)
(974.362 6.48937 3.89227e-14)
(974.291 6.58142 3.42197e-14)
(974.218 6.67953 3.15081e-14)
(974.143 6.78315 3.53804e-14)
(974.067 6.89187 3.45113e-14)
(973.989 7.00536 3.20018e-14)
(973.909 7.12334 3.33571e-14)
(973.827 7.24552 3.41067e-14)
(973.743 7.37164 3.43231e-14)
(973.657 7.50144 3.37701e-14)
(973.569 7.63468 3.39644e-14)
(973.48 7.7712 3.46403e-14)
(973.388 7.91086 3.38392e-14)
(973.294 8.05361 3.13386e-14)
(973.198 8.19948 3.14693e-14)
(973.099 8.34858 3.42601e-14)
(972.998 8.50108 3.48111e-14)
(972.895 8.6572 3.3521e-14)
(972.788 8.81719 3.26933e-14)
(972.679 8.98132 3.21234e-14)
(972.566 9.14982 3.26075e-14)
(972.45 9.32294 3.3622e-14)
(972.331 9.50086 3.36243e-14)
(972.209 9.68375 3.23747e-14)
(972.083 9.87171 3.34787e-14)
(971.954 10.0648 3.17368e-14)
(971.822 10.2631 3.19449e-14)
(971.686 10.4665 3.3906e-14)
(971.548 10.675 3.33036e-14)
(971.406 10.8884 3.04817e-14)
(971.262 11.1067 3.10398e-14)
(971.115 11.3295 3.24627e-14)
(970.966 11.5567 3.05431e-14)
(970.815 11.788 3.13159e-14)
(970.661 12.0233 3.33921e-14)
(970.505 12.2623 3.2608e-14)
(970.348 12.505 3.32493e-14)
(970.189 12.751 3.21966e-14)
(970.029 13.0004 3.0231e-14)
(969.866 13.253 3.06784e-14)
(969.703 13.5087 3.33952e-14)
(956.953 30.6333 5.29506e-14)
(956.549 31.4873 5.32343e-14)
(956.187 32.2963 5.34157e-14)
(955.87 33.0569 4.9804e-14)
(955.599 33.765 5.04641e-14)
(955.374 34.4162 5.03477e-14)
(955.196 35.0068 5.17605e-14)
(955.066 35.5344 5.3796e-14)
(954.982 35.9975 5.24355e-14)
(954.944 36.3969 5.22295e-14)
(954.949 36.7346 4.89573e-14)
(954.999 37.005 5.08925e-14)
(955.094 37.204 5.36948e-14)
(955.242 37.334 4.97979e-14)
(955.442 37.3829 4.89549e-14)
(955.685 37.3322 4.91949e-14)
(955.875 37.2633 4.91982e-14)
(956.152 37.1379 4.94311e-14)
(956.48 36.9389 4.85312e-14)
(956.843 36.6717 4.83175e-14)
(957.234 36.3411 4.73429e-14)
(957.651 35.9512 4.73624e-14)
(958.091 35.5054 4.7299e-14)
(958.552 35.0072 4.59551e-14)
(959.03 34.4601 4.69433e-14)
(959.523 33.8678 4.91303e-14)
(960.028 33.234 4.84461e-14)
(960.543 32.5618 4.7453e-14)
(961.065 31.8547 4.77184e-14)
(961.591 31.1166 4.67301e-14)
(962.12 30.352 4.61724e-14)
(962.648 29.565 4.59163e-14)
(963.173 28.7596 4.79862e-14)
(963.693 27.9397 4.89467e-14)
(964.205 27.109 4.73464e-14)
(964.708 26.2721 4.53534e-14)
(965.198 25.4335 4.36317e-14)
(965.675 24.5978 4.48436e-14)
(966.136 23.7695 4.50147e-14)
(966.579 22.9537 4.51381e-14)
(967.001 22.1554 4.55624e-14)
(967.401 21.3799 4.57654e-14)
(967.776 20.6323 4.40791e-14)
(968.124 19.9172 4.46039e-14)
(968.444 19.2389 4.64899e-14)
(968.734 18.6005 4.64784e-14)
(968.995 18.0042 4.56323e-14)
(969.224 17.4519 4.61589e-14)
(969.424 16.944 4.72012e-14)
(969.594 16.4804 4.61225e-14)
(969.735 16.0608 4.35797e-14)
(969.849 15.6855 4.33547e-14)
(969.935 15.3565 4.39505e-14)
(969.994 15.0733 4.37154e-14)
(970.03 14.8279 4.58229e-14)
(970.043 14.6253 4.19916e-14)
(970.029 14.4745 3.99727e-14)
(969.996 14.3559 4.58886e-14)
(969.944 14.2768 4.50293e-14)
(969.85 14.2598 4.10553e-14)
(969.785 14.2738 4.1731e-14)
(969.7 14.3029 4.22377e-14)
(969.586 14.3623 4.05443e-14)
(969.456 14.4553 4.15564e-14)
(969.315 14.5789 4.14961e-14)
(969.164 14.7297 4.17459e-14)
(969.005 14.9047 4.5906e-14)
(968.838 15.101 4.26189e-14)
(968.666 15.3164 4.26658e-14)
(968.487 15.5485 4.33197e-14)
(968.305 15.7951 4.07515e-14)
(968.118 16.0545 4.02021e-14)
(967.927 16.3249 3.94885e-14)
(967.734 16.6046 4.03175e-14)
(967.538 16.8921 4.09858e-14)
(967.339 17.186 4.02273e-14)
(967.138 17.4853 4.0251e-14)
(966.935 17.7894 4.05374e-14)
(966.729 18.098 3.90001e-14)
(966.52 18.4114 3.95536e-14)
(966.308 18.7299 3.89058e-14)
(966.091 19.0541 3.89135e-14)
(965.87 19.3846 3.73329e-14)
(965.644 19.7223 3.75871e-14)
(965.412 20.068 4.03631e-14)
(965.173 20.4223 3.94727e-14)
(964.928 20.786 3.96755e-14)
(964.675 21.1597 3.79951e-14)
(964.415 21.5443 3.63224e-14)
(964.146 21.9402 3.65246e-14)
(963.869 22.3482 3.68784e-14)
(963.583 22.7687 3.81481e-14)
(963.289 23.2025 3.78531e-14)
(962.985 23.6501 3.51884e-14)
(962.673 24.1118 3.71521e-14)
(962.352 24.5881 3.97198e-14)
(962.021 25.0794 3.81262e-14)
(961.681 25.5859 3.96045e-14)
(961.333 26.1078 3.75699e-14)
(960.976 26.6451 3.66147e-14)
(960.61 27.1978 3.61523e-14)
(960.236 27.766 3.63794e-14)
(959.853 28.3493 3.82046e-14)
(959.464 28.9473 3.65879e-14)
(959.067 29.5594 3.90907e-14)
(958.663 30.1847 3.7696e-14)
(958.254 30.8224 3.7744e-14)
(957.838 31.4717 3.63716e-14)
(957.417 32.1315 3.46447e-14)
(956.992 32.801 3.68613e-14)
(934.838 62.1755 5.74153e-14)
(934.147 63.7545 5.9341e-14)
(933.533 65.2534 5.96421e-14)
(933.001 66.6615 5.72534e-14)
(932.555 67.9696 5.90531e-14)
(932.194 69.1721 5.94591e-14)
(931.92 70.2634 5.93817e-14)
(931.735 71.2335 5.72982e-14)
(931.638 72.0759 5.92841e-14)
(931.626 72.7896 5.84056e-14)
(931.701 73.3662 5.65688e-14)
(931.858 73.8077 5.87693e-14)
(932.094 74.1493 5.92175e-14)
(932.447 74.3689 5.56701e-14)
(932.883 74.4167 5.32801e-14)
(933.291 74.3031 5.60566e-14)
(933.743 74.1412 5.82947e-14)
(934.311 73.8619 5.74599e-14)
(934.963 73.4547 5.60578e-14)
(935.677 72.9223 5.32878e-14)
(936.445 72.2699 5.44345e-14)
(937.26 71.5035 5.44226e-14)
(938.117 70.6302 5.66033e-14)
(939.011 69.6575 5.65777e-14)
(939.937 68.5917 5.38615e-14)
(940.892 67.4389 5.39949e-14)
(941.868 66.2065 5.62107e-14)
(942.862 64.9046 5.63494e-14)
(943.865 63.5439 5.33236e-14)
(944.872 62.1331 4.95048e-14)
(945.879 60.6788 4.98401e-14)
(946.88 59.1887 5.39756e-14)
(947.871 57.672 5.32985e-14)
(948.846 56.1389 4.98915e-14)
(949.799 54.5988 5.09193e-14)
(950.727 53.0604 5.21454e-14)
(951.625 51.5309 5.12331e-14)
(952.488 50.0178 5.14256e-14)
(953.315 48.5278 5.10978e-14)
(954.102 47.0663 5.34547e-14)
(954.847 45.6375 5.24485e-14)
(955.549 44.2461 5.1411e-14)
(956.206 42.8972 5.07562e-14)
(956.816 41.5953 5.16195e-14)
(957.378 40.3458 5.12456e-14)
(957.89 39.1551 5.15729e-14)
(958.35 38.0302 5.35552e-14)
(958.756 36.9775 5.3035e-14)
(959.107 36.0048 5.06767e-14)
(959.399 35.1203 5.07709e-14)
(959.631 34.3278 5.02711e-14)
(959.806 33.6289 5.13154e-14)
(959.925 33.0208 4.86837e-14)
(959.99 32.5021 5.1242e-14)
(959.996 32.0928 5.09633e-14)
(959.941 31.7901 4.83308e-14)
(959.846 31.5501 4.99918e-14)
(959.712 31.4031 4.84028e-14)
(959.478 31.3874 5.09366e-14)
(959.329 31.4222 5.05251e-14)
(959.117 31.493 4.94877e-14)
(958.85 31.6313 4.94884e-14)
(958.552 31.8391 4.84232e-14)
(958.23 32.1103 4.77583e-14)
(957.888 32.4387 4.57437e-14)
(957.529 32.8188 4.99119e-14)
(957.154 33.245 4.99334e-14)
(956.768 33.7119 4.58683e-14)
(956.371 34.2147 4.90334e-14)
(955.965 34.7495 5.00775e-14)
(955.552 35.3125 4.70132e-14)
(955.132 35.9001 4.55932e-14)
(954.706 36.5093 4.62173e-14)
(954.274 37.1379 4.83572e-14)
(953.836 37.7848 4.46932e-14)
(953.392 38.4495 4.49456e-14)
(952.94 39.1317 4.62874e-14)
(952.48 39.8313 4.51183e-14)
(952.01 40.548 4.46671e-14)
(951.53 41.2814 4.39907e-14)
(951.04 42.0313 4.29229e-14)
(950.538 42.7974 4.38135e-14)
(950.024 43.5798 4.51811e-14)
(949.498 44.3786 4.44643e-14)
(948.959 45.1944 4.51956e-14)
(948.407 46.0281 4.60448e-14)
(947.84 46.8808 4.44758e-14)
(947.257 47.7538 4.13433e-14)
(946.659 48.6482 4.21577e-14)
(946.044 49.5656 4.26517e-14)
(945.411 50.5071 4.33314e-14)
(944.761 51.474 4.24678e-14)
(944.093 52.4671 4.43358e-14)
(943.407 53.4874 4.1659e-14)
(942.703 54.5356 4.25098e-14)
(941.98 55.6122 4.22009e-14)
(941.24 56.7173 4.26388e-14)
(940.482 57.8509 4.23518e-14)
(939.707 59.013 4.02732e-14)
(938.916 60.2031 4.28928e-14)
(938.11 61.4205 4.25422e-14)
(937.289 62.6635 4.16804e-14)
(936.455 63.9311 4.07231e-14)
(935.609 65.222 3.98953e-14)
(934.753 66.5347 4.16427e-14)
(933.886 67.8671 3.99387e-14)
(933.012 69.217 4.10161e-14)
(932.132 70.5818 4.07418e-14)
(931.247 71.9594 4.07376e-14)
(930.357 73.3485 3.90647e-14)
(898.815 114.302 6.58571e-14)
(898.04 116.45 6.47725e-14)
(897.398 118.445 6.43629e-14)
(896.891 120.282 6.5268e-14)
(896.516 121.958 6.61053e-14)
(896.272 123.465 6.32513e-14)
(896.159 124.797 6.15359e-14)
(896.178 125.955 6.4441e-14)
(896.324 126.94 6.49738e-14)
(896.586 127.745 6.39653e-14)
(896.959 128.399 6.29732e-14)
(897.424 128.911 6.14453e-14)
(897.991 129.231 6.21553e-14)
(898.737 129.329 6.01137e-14)
(899.68 129.139 6.13533e-14)
(900.289 128.885 6.186e-14)
(901.153 128.597 6.13702e-14)
(902.174 128.133 6.08601e-14)
(903.284 127.491 6.03604e-14)
(904.464 126.683 6.0476e-14)
(905.704 125.721 6.24796e-14)
(906.996 124.616 5.96999e-14)
(908.334 123.376 5.99008e-14)
(909.712 122.004 5.97534e-14)
(911.128 120.505 5.94243e-14)
(912.573 118.892 5.93034e-14)
(914.04 117.172 5.79225e-14)
(915.524 115.346 5.80472e-14)
(917.024 113.414 6.08215e-14)
(918.534 111.383 5.59748e-14)
(920.05 109.269 5.7282e-14)
(921.563 107.084 5.73993e-14)
(923.066 104.836 5.85153e-14)
(924.555 102.531 5.90029e-14)
(926.024 100.178 5.84632e-14)
(927.466 97.7893 5.79857e-14)
(928.875 95.3794 5.75883e-14)
(930.242 92.9634 5.71616e-14)
(931.56 90.5571 5.65614e-14)
(932.82 88.1802 5.75838e-14)
(934.01 85.8536 5.8818e-14)
(935.124 83.5944 5.77698e-14)
(936.153 81.4149 5.72078e-14)
(937.092 79.3301 5.48147e-14)
(937.933 77.3543 5.33762e-14)
(938.673 75.4971 5.61738e-14)
(939.31 73.7652 5.74016e-14)
(939.844 72.165 5.51978e-14)
(940.275 70.6983 5.48233e-14)
(940.607 69.3639 5.73206e-14)
(940.841 68.1713 5.86832e-14)
(940.977 67.131 5.84884e-14)
(941.019 66.2466 5.53988e-14)
(940.962 65.5295 5.6032e-14)
(940.811 64.9489 5.71066e-14)
(940.58 64.4845 5.68306e-14)
(940.227 64.2477 5.4435e-14)
(939.782 64.2379 5.43066e-14)
(939.47 64.3006 5.50244e-14)
(938.983 64.4597 5.65103e-14)
(938.413 64.754 5.43816e-14)
(937.789 65.1833 5.35569e-14)
(937.12 65.7373 5.44129e-14)
(936.411 66.4057 5.38695e-14)
(935.668 67.1775 5.24852e-14)
(934.897 68.0409 5.40768e-14)
(934.103 68.9861 5.35171e-14)
(933.29 70.0041 5.31729e-14)
(932.463 71.0858 5.34902e-14)
(931.625 72.2209 5.14864e-14)
(930.779 73.4006 5.30729e-14)
(929.927 74.6187 5.27284e-14)
(929.072 75.8696 5.17212e-14)
(928.213 77.1471 5.35381e-14)
(927.351 78.4448 4.82261e-14)
(926.486 79.7573 4.80678e-14)
(925.618 81.0805 5.0282e-14)
(924.746 82.4115 4.87096e-14)
(923.869 83.7492 4.86879e-14)
(922.985 85.0934 5.04353e-14)
(922.094 86.4452 4.78875e-14)
(921.192 87.8065 4.85834e-14)
(920.278 89.1798 5.00011e-14)
(919.349 90.568 5.11256e-14)
(918.404 91.9737 4.80268e-14)
(917.441 93.3999 4.78398e-14)
(916.458 94.8492 4.80797e-14)
(915.453 96.324 5.08625e-14)
(914.425 97.8269 4.96268e-14)
(913.373 99.3603 4.87457e-14)
(912.296 100.926 4.72582e-14)
(911.194 102.527 4.89262e-14)
(910.066 104.165 4.83019e-14)
(908.912 105.842 4.6253e-14)
(907.731 107.558 4.73499e-14)
(906.526 109.315 4.73372e-14)
(905.294 111.115 4.81076e-14)
(904.039 112.957 4.43574e-14)
(902.759 114.843 4.33133e-14)
(901.458 116.77 4.51273e-14)
(900.135 118.738 4.42802e-14)
(898.793 120.75 4.38259e-14)
(897.434 122.802 4.58782e-14)
(896.058 124.892 4.3729e-14)
(894.669 127.018 4.38481e-14)
(893.269 129.18 4.26949e-14)
(891.859 131.374 4.09869e-14)
(890.442 133.6 4.2628e-14)
(889.028 135.839 4.29854e-14)
(887.622 138.077 4.23152e-14)
(857.13 174.721 6.62291e-14)
(857.116 176.409 6.69153e-14)