/*--------------------------------*- C++ -*----------------------------------*\
| =========                 |                                                 |
| \\      /  F ield         | OpenFOAM: The Open Source CFD Toolbox           |
|  \\    /   O peration     | Version:  v1706                                 |
|   \\  /    A nd           | Web:      www.OpenFOAM.com                      |
|    \\/     M anipulation  |                                                 |
\*---------------------------------------------------------------------------*/
FoamFile
{
    version     2.0;
    format      ascii;
    class       volScalarField;
    location    "1.5e-05";
    object      wallHeatFlux;
}
// * * * * * * * * * * * * * * * * * * * * * * * * * * * * * * * * * * * * * //

dimensions      [1 0 -3 0 0 0 0];


internalField   uniform 0;

boundaryField
{
    cone
    {
        type            calculated;
        value           nonuniform List<scalar> 
181
(
4134.02
4184.11
4241.42
4305.79
4377.04
4454.98
4539.42
4630.12
4726.86
4829.35
4937.29
5050.35
5168.15
5290.29
5416.34
5545.83
5678.24
5813.04
5949.67
6087.53
6226.02
6364.51
6502.37
6638.99
6773.77
6906.13
7035.55
7161.57
7283.76
7401.8
7515.44
7624.49
7728.89
7828.64
7923.88
8014.85
8101.92
8185.51
8266.03
8343.99
8419.99
8494.59
8568.38
8641.91
8715.74
8790.37
8866.27
8943.86
9023.48
9105.45
9190.01
9277.33
9367.56
9460.77
9557
9656.25
9758.49
9863.66
9971.68
10082.5
10196
10312
10430.6
10551.5
10674.8
10800.4
10928.2
11058.1
11190.3
11324.6
11461.2
11599.9
11741
11884.4
12030.2
12178.6
12329.6
12483.3
12639.8
12799.4
12962.1
13128
13297.4
13470.3
13647
13827.6
14012.4
14201.4
14394.9
14593.1
14796.2
15004.4
15218
15437.2
15662.2
15893.3
16130.8
16375
16626.1
16884.5
17150.4
17424.3
17706.3
17996.9
18296.3
18604.9
18922.8
19250.5
19588.1
19935.7
20293.4
20661.4
21039.3
21427
21824
22229.6
22642.8
23062.1
23485.9
23911.8
24336.9
24757.6
25169.5
25567.4
25944.9
26294.8
26608.7
26877.2
27089.9
27235.9
27303.4
27281
27157.6
26923.7
26572.6
26104.6
25515.2
24800.7
23965.1
23016.6
21966.8
20830.5
19624.8
18370
17085
15788.3
14497.5
13228.6
11995.5
10809.7
9680.16
8613.38
7613.68
6683.34
5822.96
5031.65
4307.36
3647.45
3048.71
2507.23
2019.06
1580.19
1186.58
834.181
519.178
237.992
-12.711
-236.005
-434.707
-611.385
-768.366
-907.748
-1031.42
-1141.08
-1238.24
-1324.28
-1400.39
-1467.67
-1527.09
-1579.51
-1625.72
)
;
    }
    inlet
    {
        type            calculated;
        value           uniform 0;
    }
    rWedge
    {
        type            wedge;
    }
    lWedge
    {
        type            wedge;
    }
    outlet
    {
        type            calculated;
        value           nonuniform 0();
    }
    procBoundary1to0
    {
        type            processor;
        value           uniform 0;
    }
    procBoundary1to2
    {
        type            processor;
        value           uniform 0;
    }
}


// ************************************************************************* //
