/*--------------------------------*- C++ -*----------------------------------*\
| =========                 |                                                 |
| \\      /  F ield         | OpenFOAM: The Open Source CFD Toolbox           |
|  \\    /   O peration     | Version:  v1706                                 |
|   \\  /    A nd           | Web:      www.OpenFOAM.com                      |
|    \\/     M anipulation  |                                                 |
\*---------------------------------------------------------------------------*/
FoamFile
{
    version     2.0;
    format      ascii;
    class       volScalarField;
    location    "1.9e-05";
    object      Tov;
}
// * * * * * * * * * * * * * * * * * * * * * * * * * * * * * * * * * * * * * //

dimensions      [0 0 0 1 0 0 0];


internalField   nonuniform List<scalar> 
29871
(
144.4
144.4
144.4
144.4
144.4
144.4
144.4
144.4
144.4
144.4
144.4
144.4
144.4
144.4
144.4
144.4
144.4
144.4
144.4
144.4
144.4
144.4
144.4
144.4
144.4
144.4
144.4
144.4
144.4
144.4
144.4
144.4
144.4
144.4
144.4
144.4
144.4
144.4
144.4
144.4
144.4
144.4
144.4
144.4
144.4
144.4
144.4
144.4
144.4
144.4
144.4
144.4
144.4
144.4
144.4
144.4
144.4
144.4
144.4
144.4
144.4
144.4
144.4
144.4
144.4
144.4
144.4
144.4
144.4
144.4
144.4
144.4
144.4
144.4
144.4
144.4
144.4
144.4
144.4
144.4
144.4
144.4
144.4
144.4
144.4
144.4
144.4
144.4
144.4
144.4
144.4
144.4
144.4
144.4
144.4
144.4
144.4
144.4
144.4
144.4
144.4
144.4
144.4
144.4
144.4
144.4
144.4
144.4
144.4
144.4
144.4
144.4
144.4
144.4
144.4
144.4
144.4
144.4
144.4
144.4
144.4
144.4
144.4
144.4
144.4
144.4
144.4
144.4
144.4
144.4
144.4
144.4
144.4
144.4
144.4
144.4
144.4
144.4
144.4
144.4
144.4
144.4
144.4
144.4
144.4
144.4
144.4
144.4
144.4
144.4
144.4
144.4
144.4
144.4
144.4
144.4
144.4
144.4
144.4
144.4
144.4
144.4
144.4
144.4
144.4
144.4
144.4
144.4
144.4
144.4
144.4
144.4
144.4
144.4
144.4
144.4
144.4
144.4
144.4
144.4
144.4
144.4
144.4
144.4
144.4
144.4
144.4
144.4
144.4
144.4
144.4
144.4
144.4
144.4
144.4
144.4
144.4
144.4
144.4
144.4
144.4
144.4
144.4
144.4
144.4
144.4
144.4
144.4
144.4
144.4
144.4
144.4
144.4
144.4
144.4
144.4
144.4
144.4
144.4
144.4
144.4
144.4
144.4
144.4
144.4
144.4
144.4
144.4
144.4
144.4
144.4
144.4
144.4
144.4
144.4
144.4
144.4
144.4
144.4
144.4
144.4
144.4
144.4
144.4
144.4
144.4
144.4
144.4
144.4
144.4
144.4
144.4
144.4
144.4
144.4
144.4
144.4
144.4
144.4
144.4
144.4
144.4
144.4
144.4
144.4
144.4
144.4
144.4
144.4
144.4
144.4
144.4
144.4
144.4
144.4
144.4
144.4
144.4
144.4
144.4
144.4
144.4
144.4
144.4
144.4
144.4
144.4
144.4
144.4
144.4
144.4
144.4
144.4
144.4
144.4
144.4
144.4
144.4
144.4
144.4
144.4
144.4
144.4
144.4
144.4
144.4
144.4
144.4
144.4
144.4
144.4
144.4
144.4
144.4
144.4
144.4
144.4
144.4
144.4
144.4
144.4
144.4
144.4
144.4
144.4
144.4
144.4
144.4
144.4
144.4
144.4
144.4
144.4
144.4
144.4
144.4
144.4
144.4
144.4
144.4
144.4
144.4
144.4
144.4
144.4
144.4
144.4
144.4
144.4
144.4
144.4
144.4
144.4
144.4
144.4
144.4
144.4
144.4
144.4
144.4
144.4
144.4
144.4
144.4
144.4
144.4
144.4
144.4
144.4
144.4
144.4
144.4
144.4
144.4
144.4
144.4
144.4
144.4
144.4
144.4
144.4
144.4
144.4
144.4
144.4
144.4
144.4
144.4
144.4
144.4
144.4
144.4
144.4
144.4
144.4
144.4
144.4
144.4
144.4
144.4
144.4
144.4
144.4
144.4
144.4
144.4
144.4
144.4
144.4
144.4
144.4
144.4
144.4
144.4
144.4
144.4
144.4
144.4
144.4
144.4
144.4
144.4
144.4
144.4
144.4
144.4
144.4
144.4
144.4
144.4
144.4
144.4
144.4
144.4
144.4
144.4
144.4
144.4
144.4
144.4
144.4
144.4
144.4
144.4
144.4
144.4
144.4
144.4
144.4
144.4
144.4
144.4
144.4
144.4
144.4
144.4
144.4
144.4
144.4
144.4
144.4
144.4
144.4
144.4
144.4
144.4
144.4
144.4
144.4
144.4
144.4
144.4
144.4
144.4
144.4
144.4
144.4
144.4
144.4
144.4
144.4
144.4
144.4
144.4
144.4
144.4
144.4
144.4
144.4
144.4
144.4
144.4
144.4
144.4
144.4
144.4
144.4
144.4
144.4
144.4
144.4
144.4
144.4
144.4
144.4
144.4
144.4
144.4
144.4
144.4
144.4
144.4
144.4
144.4
144.4
144.4
144.4
144.4
144.4
144.4
144.4
144.4
144.4
144.4
144.4
144.4
144.4
144.4
144.4
144.4
144.4
144.4
144.4
144.4
144.4
144.4
144.4
144.4
144.4
144.4
144.4
144.4
144.4
144.4
144.4
144.4
144.4
144.4
144.4
144.4
144.4
144.4
144.4
144.4
144.4
144.4
144.4
144.4
144.4
144.4
144.4
144.4
144.4
144.4
144.4
144.4
144.4
144.4
144.4
144.4
144.4
144.4
144.4
144.4
144.4
144.4
144.4
144.4
144.4
144.4
144.4
144.4
144.4
144.4
144.4
144.4
144.4
144.4
144.4
144.4
144.4
144.4
144.4
144.4
144.4
144.4
144.4
144.4
144.4
144.4
144.4
144.4
144.4
144.4
144.4
144.4
144.4
144.4
144.4
144.4
144.4
144.4
144.4
144.4
144.4
144.4
144.4
144.4
144.4
144.4
144.4
144.4
144.4
144.4
144.4
144.4
144.4
144.4
144.4
144.4
144.4
144.4
144.4
144.4
144.4
144.4
144.4
144.4
144.4
144.4
144.4
144.4
144.4
144.4
144.4
144.4
144.4
144.4
144.4
144.4
144.4
144.4
144.4
144.4
144.4
144.4
144.4
144.4
144.4
144.4
144.4
144.4
144.4
144.4
144.4
144.4
144.4
144.4
144.4
144.4
144.4
144.4
144.4
144.4
144.4
144.4
144.4
144.4
144.4
144.4
144.4
144.4
144.4
144.4
144.4
144.4
144.4
144.4
144.4
144.4
144.4
144.4
144.4
144.4
144.4
144.4
144.4
144.4
144.4
144.4
144.4
144.4
144.4
144.4
144.4
144.4
144.4
144.4
144.4
144.4
144.4
144.4
144.4
144.4
144.4
144.4
144.4
144.4
144.4
144.4
144.4
144.4
144.4
144.4
144.4
144.4
144.4
144.4
144.4
144.4
144.4
144.4
144.4
144.4
144.4
144.4
144.4
144.4
144.4
144.4
144.4
144.4
144.4
144.4
144.4
144.4
144.4
144.4
144.4
144.4
144.4
144.4
144.4
144.4
144.4
144.4
144.4
144.4
144.4
144.4
144.4
144.4
144.4
144.4
144.4
144.4
144.4
144.4
144.4
144.4
144.4
144.4
144.4
144.4
144.4
144.4
144.4
144.4
144.4
144.4
144.4
144.4
144.4
144.4
144.4
144.4
144.4
144.4
144.4
144.4
144.4
144.4
144.4
144.4
144.4
144.4
144.4
144.4
144.4
144.4
144.4
144.4
144.4
144.4
144.4
144.4
144.4
144.4
144.4
144.4
144.4
144.4
144.4
144.4
144.4
144.4
144.4
144.4
144.4
144.4
144.4
144.4
144.4
144.4
144.4
144.4
144.4
144.4
144.4
144.4
144.4
144.4
144.4
144.4
144.4
144.4
144.4
144.4
144.4
144.4
144.4
144.4
144.4
144.4
144.4
144.4
144.4
144.4
144.4
144.4
144.4
144.4
144.4
144.4
144.4
144.4
144.4
144.4
144.4
144.4
144.4
144.4
144.4
144.4
144.4
144.4
144.4
144.4
144.4
144.4
144.4
144.4
144.4
144.4
144.4
144.4
144.4
144.4
144.4
144.4
144.4
144.4
144.4
144.4
144.4
144.4
144.4
144.4
144.4
144.4
144.4
144.4
144.4
144.4
144.4
144.4
144.4
144.4
144.4
144.4
144.4
144.4
144.4
144.4
144.4
144.4
144.4
144.4
144.4
144.4
144.4
144.4
144.4
144.4
144.4
144.4
144.4
144.4
144.4
144.4
144.4
144.4
144.4
144.4
144.4
144.4
144.4
144.4
144.4
144.4
144.4
144.4
144.4
144.4
144.4
144.4
144.4
144.4
144.4
144.4
144.4
144.4
144.4
144.4
144.4
144.4
144.4
144.4
144.4
144.4
144.4
144.4
144.4
144.4
144.4
144.4
144.4
144.4
144.4
144.4
144.4
144.4
144.4
144.4
144.4
144.4
144.4
144.4
144.4
144.4
144.4
144.4
144.4
144.4
144.4
144.4
144.4
144.4
144.4
144.4
144.4
144.4
144.4
144.4
144.4
144.4
144.4
144.4
144.4
144.4
144.4
144.4
144.4
144.4
144.4
144.4
144.4
144.4
144.4
144.4
144.4
144.4
144.4
144.4
144.4
144.4
144.4
144.4
144.4
144.4
144.4
144.4
144.4
144.4
144.4
144.4
144.4
144.4
144.4
144.4
144.4
144.4
144.4
144.4
144.4
144.4
144.4
144.4
144.4
144.4
144.4
144.4
144.4
144.4
144.4
144.4
144.4
144.4
144.4
144.4
144.4
144.4
144.4
144.4
144.4
144.4
144.4
144.4
144.4
144.4
144.4
144.4
144.4
144.4
144.4
144.4
144.4
144.4
144.4
144.4
144.4
144.4
144.4
144.4
144.4
144.4
144.4
144.4
144.4
144.4
144.4
144.4
144.4
144.4
144.4
144.4
144.4
144.4
144.4
144.4
144.4
144.4
144.4
144.4
144.4
144.4
144.4
144.4
144.4
144.4
144.4
144.4
144.4
144.4
144.4
144.4
144.4
144.4
144.4
144.4
144.4
144.4
144.4
144.4
144.4
144.4
144.4
144.4
144.4
144.4
144.4
144.4
144.4
144.4
144.4
144.4
144.4
144.4
144.4
144.4
144.4
144.4
144.4
144.4
144.4
144.4
144.4
144.4
144.4
144.4
144.4
144.4
144.4
144.4
144.4
144.4
144.4
144.4
144.4
144.4
144.4
144.4
144.4
144.4
144.4
144.4
144.4
144.4
144.4
144.4
144.4
144.4
144.4
144.4
144.4
144.4
144.4
144.4
144.4
144.4
144.4
144.4
144.4
144.4
144.4
144.4
144.4
144.4
144.4
144.4
144.4
144.4
144.4
144.4
144.4
144.4
144.4
144.4
144.4
144.4
144.4
144.4
144.4
144.4
144.4
144.4
144.4
144.4
144.4
144.4
144.4
144.4
144.4
144.4
144.4
144.4
144.4
144.4
144.4
144.4
144.4
144.4
144.4
144.4
144.4
144.4
144.4
144.4
144.4
144.4
144.4
144.4
144.4
144.4
144.4
144.4
144.4
144.4
144.4
144.4
144.4
144.4
144.4
144.4
144.4
144.4
144.4
144.4
144.4
144.4
144.4
144.4
144.4
144.4
144.4
144.4
144.4
144.4
144.4
144.4
144.4
144.4
144.4
144.4
144.4
144.4
144.4
144.4
144.4
144.4
144.4
144.4
144.4
144.4
144.4
144.4
144.4
144.4
144.4
144.4
144.4
144.4
144.4
144.4
144.4
144.4
144.4
144.4
144.4
144.4
144.4
144.4
144.4
144.4
144.4
144.4
144.4
144.4
144.4
144.4
144.4
144.4
144.4
144.4
144.4
144.4
144.4
144.4
144.4
144.4
144.4
144.4
144.4
144.4
144.4
144.4
144.4
144.4
144.4
144.4
144.4
144.4
144.4
144.4
144.4
144.4
144.4
144.4
144.4
144.4
144.4
144.4
144.4
144.4
144.4
144.4
144.4
144.4
144.4
144.4
144.4
144.4
144.4
144.4
144.4
144.4
144.4
144.4
144.4
144.4
144.4
144.4
144.4
144.4
144.4
144.4
144.4
144.4
144.4
144.4
144.4
144.4
144.4
144.4
144.4
144.4
144.4
144.4
144.4
144.4
144.4
144.4
144.4
144.4
144.4
144.4
144.4
144.4
144.4
144.4
144.4
144.4
144.4
144.4
144.4
144.4
144.4
144.4
144.4
144.4
144.4
144.4
144.4
144.4
144.4
144.4
144.4
144.4
144.4
144.4
144.4
144.4
144.4
144.4
144.4
144.4
144.4
144.4
144.4
144.4
144.4
144.4
144.4
144.4
144.4
144.4
144.4
144.4
144.4
144.4
144.4
144.4
144.4
144.4
144.4
144.4
144.4
144.4
144.4
144.4
144.4
144.4
144.4
144.4
144.4
144.4
144.4
144.4
144.4
144.4
144.4
144.4
144.4
144.4
144.4
144.4
144.4
144.4
144.4
144.4
144.4
144.4
144.4
144.4
144.4
144.4
144.4
144.4
144.4
144.4
144.4
144.4
144.4
144.4
144.4
144.4
144.4
144.4
144.4
144.4
144.4
144.4
144.4
144.4
144.4
144.4
144.4
144.4
144.4
144.4
144.4
144.4
144.4
144.4
144.4
144.4
144.4
144.4
144.4
144.4
144.4
144.4
144.4
144.4
144.4
144.4
144.4
144.4
144.4
144.4
144.4
144.4
144.4
144.4
144.4
144.4
144.4
144.4
144.4
144.4
144.4
144.4
144.4
144.4
144.4
144.4
144.4
144.4
144.4
144.4
144.4
144.4
144.4
144.4
144.4
144.4
144.4
144.4
144.4
144.4
144.4
144.4
144.4
144.4
144.4
144.4
144.4
144.4
144.4
144.4
144.4
144.4
144.4
144.4
144.4
144.4
144.4
144.4
144.4
144.4
144.4
144.4
144.4
144.4
144.4
144.4
144.4
144.4
144.4
144.4
144.4
144.4
144.4
144.4
144.4
144.4
144.4
144.4
144.4
144.4
144.4
144.4
144.4
144.4
144.4
144.4
144.4
144.4
144.4
144.4
144.4
144.4
144.4
144.4
144.4
144.4
144.4
144.4
144.4
144.4
144.4
144.4
144.4
144.4
144.4
144.4
144.4
144.4
144.4
144.4
144.4
144.4
144.4
144.4
144.4
144.4
144.4
144.4
144.4
144.4
144.4
144.4
144.4
144.4
144.4
144.4
144.4
144.4
144.4
144.4
144.4
144.4
144.4
144.4
144.4
144.4
144.4
144.4
144.4
144.4
144.4
144.4
144.4
144.4
144.4
144.4
144.4
144.4
144.4
144.4
144.4
144.4
144.4
144.4
144.4
144.4
144.4
144.4
144.4
144.4
144.4
144.4
144.4
144.4
144.4
144.4
144.4
144.4
144.4
144.4
144.4
144.4
144.4
144.4
144.4
144.4
144.4
144.4
144.4
144.4
144.4
144.4
144.4
144.4
144.4
144.4
144.4
144.4
144.4
144.4
144.4
144.4
144.4
144.4
144.4
144.4
144.4
144.4
144.4
144.4
144.4
144.4
144.4
144.4
144.4
144.4
144.4
144.4
144.4
144.4
144.4
144.4
144.4
144.4
144.4
144.4
144.4
144.4
144.4
144.4
144.4
144.4
144.4
144.4
144.4
144.4
144.4
144.4
144.4
144.4
144.4
144.4
144.4
144.4
144.4
144.4
144.4
144.4
144.4
144.4
144.4
144.4
144.4
144.4
144.4
144.4
144.4
144.4
144.4
144.4
144.4
144.4
144.4
144.4
144.4
144.4
144.4
144.4
144.4
144.4
144.4
144.4
144.4
144.4
144.4
144.4
144.4
144.4
144.4
144.4
144.4
144.4
144.4
144.4
144.4
144.4
144.4
144.4
144.4
144.4
144.401
144.401
144.401
144.401
144.4
144.4
144.4
144.4
144.4
144.4
144.4
144.4
144.4
144.4
144.4
144.4
144.4
144.4
144.4
144.4
144.4
144.4
144.4
144.4
144.4
144.4
144.4
144.4
144.4
144.4
144.4
144.4
144.4
144.4
144.4
144.4
144.4
144.4
144.4
144.4
144.4
144.4
144.4
144.4
144.4
144.4
144.4
144.4
144.4
144.4
144.4
144.4
144.4
144.4
144.4
144.4
144.4
144.4
144.4
144.4
144.4
144.4
144.4
144.4
144.4
144.4
144.4
144.4
144.4
144.4
144.4
144.4
144.4
144.4
144.4
144.4
144.4
144.4
144.4
144.4
144.4
144.4
144.4
144.4
144.4
144.4
144.4
144.4
144.4
144.4
144.4
144.4
144.4
144.4
144.4
144.4
144.4
144.4
144.4
144.4
144.4
144.4
144.401
144.401
144.401
144.401
144.401
144.401
144.401
144.401
144.401
144.401
144.401
144.402
144.402
144.402
144.402
144.402
144.402
144.403
144.403
144.403
144.404
144.404
144.405
144.405
144.406
144.4
144.4
144.4
144.4
144.4
144.4
144.4
144.4
144.4
144.4
144.4
144.4
144.4
144.4
144.4
144.4
144.4
144.4
144.4
144.4
144.4
144.4
144.4
144.4
144.4
144.4
144.4
144.4
144.4
144.4
144.4
144.4
144.4
144.4
144.4
144.4
144.4
144.4
144.4
144.4
144.4
144.4
144.4
144.4
144.4
144.4
144.4
144.4
144.4
144.4
144.4
144.4
144.4
144.4
144.4
144.4
144.4
144.4
144.4
144.4
144.4
144.4
144.4
144.4
144.4
144.4
144.4
144.4
144.4
144.4
144.4
144.4
144.4
144.4
144.4
144.4
144.4
144.401
144.401
144.401
144.401
144.401
144.401
144.401
144.401
144.401
144.401
144.401
144.401
144.402
144.402
144.402
144.402
144.402
144.403
144.403
144.403
144.403
144.404
144.404
144.404
144.405
144.405
144.406
144.407
144.407
144.408
144.409
144.41
144.411
144.412
144.413
144.414
144.416
144.417
144.419
144.421
144.424
144.427
144.43
144.434
144.438
144.442
144.4
144.4
144.4
144.4
144.4
144.4
144.4
144.4
144.4
144.4
144.4
144.4
144.4
144.4
144.4
144.4
144.4
144.4
144.4
144.4
144.4
144.4
144.4
144.4
144.4
144.4
144.4
144.4
144.4
144.4
144.4
144.4
144.4
144.4
144.4
144.4
144.4
144.4
144.4
144.4
144.4
144.4
144.4
144.4
144.4
144.4
144.4
144.4
144.4
144.4
144.4
144.4
144.4
144.4
144.4
144.401
144.401
144.401
144.401
144.401
144.401
144.401
144.401
144.401
144.401
144.401
144.401
144.401
144.401
144.402
144.402
144.402
144.402
144.402
144.403
144.403
144.403
144.403
144.404
144.404
144.404
144.405
144.405
144.406
144.406
144.407
144.408
144.409
144.409
144.41
144.412
144.413
144.414
144.416
144.417
144.419
144.421
144.423
144.425
144.427
144.43
144.433
144.437
144.441
144.446
144.452
144.457
144.464
144.47
144.478
144.485
144.493
144.502
144.511
144.522
144.536
144.552
144.571
144.593
144.618
144.645
144.675
144.706
144.4
144.4
144.4
144.4
144.4
144.4
144.4
144.4
144.4
144.4
144.4
144.4
144.4
144.4
144.4
144.4
144.4
144.4
144.4
144.4
144.4
144.4
144.4
144.4
144.4
144.4
144.4
144.4
144.4
144.401
144.401
144.401
144.401
144.401
144.401
144.401
144.401
144.401
144.401
144.401
144.401
144.401
144.401
144.401
144.401
144.402
144.402
144.402
144.402
144.402
144.402
144.402
144.403
144.403
144.403
144.403
144.404
144.404
144.404
144.405
144.405
144.405
144.406
144.406
144.407
144.408
144.408
144.409
144.41
144.41
144.411
144.412
144.414
144.415
144.417
144.418
144.42
144.422
144.424
144.427
144.429
144.432
144.435
144.438
144.442
144.446
144.451
144.457
144.463
144.47
144.478
144.487
144.496
144.506
144.517
144.528
144.54
144.554
144.568
144.585
144.604
144.627
144.653
144.683
144.717
144.754
144.795
144.838
144.885
144.934
144.987
145.042
145.101
145.168
145.247
145.343
145.458
145.595
145.752
145.928
146.123
146.333
146.559
146.797
147.046
144.4
144.4
144.4
144.4
144.4
144.4
144.4
144.4
144.401
144.401
144.401
144.401
144.401
144.401
144.401
144.401
144.401
144.401
144.401
144.401
144.402
144.402
144.402
144.402
144.402
144.402
144.402
144.403
144.403
144.403
144.403
144.404
144.404
144.404
144.404
144.405
144.405
144.405
144.406
144.406
144.407
144.407
144.408
144.408
144.409
144.41
144.41
144.411
144.412
144.413
144.414
144.415
144.416
144.417
144.419
144.42
144.422
144.424
144.426
144.428
144.431
144.433
144.436
144.44
144.443
144.447
144.451
144.456
144.46
144.466
144.472
144.479
144.487
144.496
144.506
144.517
144.529
144.543
144.557
144.573
144.59
144.607
144.627
144.648
144.673
144.701
144.733
144.771
144.813
144.86
144.912
144.97
145.032
145.098
145.17
145.245
145.325
145.412
145.509
145.621
145.753
145.909
146.089
146.294
146.522
146.774
147.047
147.34
147.653
147.984
148.334
148.703
149.1
149.547
150.079
150.729
151.514
152.438
153.493
154.669
155.955
157.339
158.809
160.353
161.959
144.401
144.402
144.402
144.402
144.402
144.402
144.403
144.403
144.403
144.404
144.404
144.404
144.405
144.405
144.406
144.406
144.407
144.407
144.408
144.408
144.409
144.41
144.411
144.411
144.412
144.413
144.414
144.415
144.417
144.418
144.419
144.421
144.422
144.424
144.425
144.427
144.429
144.431
144.434
144.436
144.439
144.442
144.445
144.449
144.453
144.457
144.461
144.466
144.471
144.477
144.482
144.489
144.496
144.503
144.512
144.521
144.532
144.543
144.557
144.571
144.587
144.604
144.623
144.644
144.665
144.689
144.714
144.742
144.772
144.806
144.845
144.89
144.941
144.998
145.062
145.133
145.211
145.296
145.388
145.487
145.592
145.705
145.828
145.965
146.122
146.304
146.516
146.758
147.032
147.338
147.675
148.043
148.44
148.865
149.316
149.794
150.301
150.848
151.462
152.179
153.028
154.025
155.172
156.465
157.894
159.451
161.127
162.913
164.8
166.782
168.852
171.017
173.32
175.894
178.974
182.737
187.225
192.384
198.12
204.342
210.962
217.896
225.064
232.395
239.821
144.408
144.409
144.409
144.41
144.412
144.413
144.414
144.416
144.417
144.419
144.421
144.423
144.425
144.427
144.429
144.432
144.435
144.438
144.441
144.444
144.448
144.452
144.456
144.461
144.465
144.471
144.476
144.482
144.489
144.495
144.503
144.51
144.519
144.527
144.536
144.546
144.557
144.568
144.581
144.595
144.61
144.626
144.644
144.664
144.685
144.708
144.732
144.759
144.787
144.817
144.849
144.883
144.92
144.961
145.006
145.057
145.115
145.179
145.251
145.331
145.419
145.515
145.621
145.734
145.857
145.989
146.13
146.282
146.448
146.633
146.844
147.086
147.364
147.678
148.033
148.427
148.862
149.337
149.853
150.408
151.002
151.636
152.312
153.047
153.871
154.82
155.925
157.201
158.652
160.278
162.071
164.025
166.13
168.379
170.759
173.26
175.875
178.611
181.53
184.797
188.621
193.12
198.305
204.123
210.496
217.343
224.588
232.162
240.009
248.076
256.315
264.692
273.213
282.013
291.586
302.927
316.468
331.924
348.786
366.593
384.973
403.623
422.291
440.771
458.906
476.58
144.444
144.448
144.454
144.46
144.466
144.473
144.48
144.488
144.497
144.506
144.517
144.528
144.539
144.552
144.566
144.58
144.595
144.612
144.629
144.648
144.669
144.691
144.714
144.74
144.767
144.797
144.828
144.862
144.898
144.937
144.977
145.021
145.066
145.114
145.166
145.221
145.282
145.347
145.419
145.498
145.585
145.679
145.783
145.895
146.016
146.147
146.288
146.439
146.599
146.77
146.953
147.149
147.362
147.599
147.864
148.164
148.501
148.879
149.3
149.765
150.276
150.834
151.44
152.093
152.793
153.542
154.34
155.198
156.136
157.189
158.391
159.768
161.335
163.098
165.059
167.216
169.566
172.103
174.818
177.703
180.746
183.942
187.307
190.919
194.958
199.601
204.937
210.969
217.65
224.912
232.681
240.882
249.449
258.319
267.428
276.716
286.137
295.709
305.63
316.521
329.091
343.407
359.16
375.979
393.528
411.518
429.71
447.928
466.042
483.947
501.562
518.834
535.789
552.63
570.18
591.58
617.035
644.499
672.479
700.119
726.887
752.423
776.482
798.92
819.681
838.788
856.302
872.237
144.643
144.67
144.699
144.73
144.765
144.802
144.843
144.887
144.935
144.987
145.043
145.103
145.167
145.236
145.31
145.388
145.472
145.561
145.657
145.76
145.871
145.99
146.119
146.259
146.408
146.569
146.741
146.926
147.122
147.33
147.551
147.783
148.029
148.29
148.569
148.87
149.199
149.559
149.956
150.391
150.867
151.387
151.952
152.564
153.224
153.932
154.69
155.497
156.353
157.261
158.225
159.259
160.388
161.644
163.054
164.638
166.409
168.376
170.541
172.907
175.473
178.237
181.196
184.342
187.667
191.166
194.843
198.735
202.955
207.672
213.015
219.036
225.728
233.053
240.962
249.397
258.298
267.606
277.258
287.193
297.348
307.685
318.246
329.271
341.401
355.058
370.182
386.502
403.73
421.593
439.844
458.273
476.72
495.056
513.169
530.954
548.345
565.395
582.382
600.784
622.753
647.025
672.253
697.571
722.437
746.464
769.396
791.104
811.536
830.665
848.493
865.062
880.386
894.536
907.715
919.677
930.388
940.044
948.81
956.771
963.916
970.228
975.719
980.409
984.332
987.557
990.115
992.058
145.719
145.861
146.016
146.185
146.369
146.568
146.784
147.019
147.272
147.545
147.839
148.154
148.491
148.85
149.232
149.638
150.07
150.532
151.027
151.561
152.136
152.756
153.423
154.141
154.91
155.732
156.609
157.54
158.527
159.567
160.661
161.81
163.015
164.289
165.651
167.123
168.728
170.482
172.398
174.482
176.742
179.18
181.799
184.599
187.579
190.734
194.059
197.549
201.198
205.009
209
213.229
217.818
222.891
228.527
234.751
241.556
248.919
256.806
265.181
274.002
283.226
292.807
302.695
312.838
323.194
333.76
344.652
356.208
368.925
382.935
398.118
414.269
431.177
448.652
466.513
484.595
502.756
520.872
538.827
556.519
573.896
591.036
608.29
627.579
649.514
672.956
696.936
720.842
744.255
766.857
788.435
808.88
828.142
846.178
862.955
878.487
892.783
905.954
918.056
928.904
938.671
947.508
955.536
962.804
969.308
975.078
980.166
984.602
988.422
991.683
994.457
996.812
998.875
1000.85
1002.95
1005.17
1007.33
1009.41
1011.42
1013.24
1014.82
1016.18
1017.31
1018.23
1018.94
1019.35
1019.37
151.29
152.01
152.79
153.637
154.553
155.545
156.615
157.768
159.006
160.331
161.745
163.249
164.84
166.52
168.287
170.149
172.118
174.211
176.442
178.825
181.369
184.079
186.961
190.018
193.25
196.655
200.23
203.968
207.861
211.899
216.074
220.382
224.836
229.481
234.404
239.69
245.391
251.529
258.106
265.113
272.532
280.343
288.523
297.043
305.872
314.976
324.317
333.86
343.58
353.47
363.583
374.078
385.311
397.512
410.678
424.701
439.457
454.819
470.668
486.885
503.36
519.987
536.668
553.308
569.821
586.139
602.278
618.401
635.213
654.305
675.061
696.713
718.664
740.5
761.933
782.738
802.749
821.85
839.961
857.015
872.968
887.823
901.583
914.347
926.019
936.608
946.251
955.026
963.014
970.248
976.716
982.445
987.497
991.92
995.736
998.982
1001.71
1003.99
1005.96
1007.84
1009.82
1011.85
1013.82
1015.73
1017.53
1019.15
1020.58
1021.84
1022.96
1023.92
1024.69
1025.29
1025.71
1025.96
1026.12
1026.3
1026.51
1026.82
1027.29
1027.88
1028.46
1029.03
1029.57
1030.05
1030.46
1030.78
1030.85
1030.8
1030.65
180.424
183.761
187.325
191.124
195.162
199.44
203.957
208.71
213.692
218.894
224.303
229.902
235.675
241.618
247.755
254.138
260.818
267.823
275.164
282.839
290.84
299.151
307.753
316.62
325.725
335.036
344.517
354.131
363.843
373.628
383.478
393.437
403.632
414.312
425.59
437.457
449.856
462.727
476.007
489.637
503.554
517.692
531.988
546.376
560.788
575.161
589.443
603.607
617.661
631.693
645.925
661.423
678.468
696.528
715.133
733.949
752.726
771.274
789.438
807.098
824.154
840.523
856.138
870.93
884.881
898.015
910.373
921.985
932.66
942.513
951.636
960.05
967.771
974.829
981.238
987.017
992.201
996.808
1000.83
1004.3
1007.29
1009.92
1012.27
1014.5
1016.81
1019.14
1021.34
1023.43
1025.41
1027.18
1028.73
1030.1
1031.3
1032.31
1033.12
1033.72
1034.08
1034.21
1034.24
1034.28
1034.33
1034.47
1034.77
1035.13
1035.53
1035.96
1036.4
1036.85
1037.27
1037.68
1038.09
1038.42
1038.66
1038.79
1038.8
1038.78
1038.79
1038.92
1039.14
1039.4
1039.69
1039.99
1040.3
1040.59
1040.81
1040.84
1040.8
1040.64
278.699
288.316
298.31
308.663
319.354
330.353
341.627
353.137
364.84
376.691
388.639
400.634
412.628
424.627
436.73
449.076
461.704
474.59
487.694
500.978
514.406
527.942
541.548
555.181
568.797
582.347
595.78
609.046
622.107
634.953
647.601
660.129
672.741
686.293
700.73
715.741
731.077
746.549
762.011
777.346
792.46
807.274
821.719
835.734
849.257
862.237
874.642
886.475
897.784
908.609
918.985
928.788
937.979
946.609
954.708
962.288
969.359
975.925
981.994
987.576
992.687
997.336
1001.51
1005.22
1008.55
1011.56
1014.38
1017.12
1019.73
1022.31
1024.92
1027.38
1029.66
1031.84
1033.84
1035.61
1037.24
1038.72
1039.98
1041.02
1041.82
1042.42
1042.79
1043.08
1043.38
1043.61
1043.89
1044.31
1044.79
1045.27
1045.75
1046.23
1046.69
1047.13
1047.57
1047.93
1048.2
1048.31
1048.28
1048.18
1047.98
1047.79
1047.74
1047.75
1047.8
1047.94
1048.14
1048.41
1048.7
1049.02
1049.39
1049.73
1050.01
1050.14
1050.12
1050.03
1049.94
1049.94
1049.96
1050.03
1050.15
1050.3
1050.45
1050.62
1050.7
1050.68
1050.61
1050.44
508.426
524.864
541.277
557.615
573.836
589.901
605.771
621.406
636.764
651.8
666.463
680.718
694.601
708.424
722.696
737.281
752.004
766.716
781.296
795.648
809.693
823.366
836.614
849.394
861.668
873.392
884.533
895.09
905.095
914.613
923.692
932.365
940.523
948.2
955.438
962.261
968.682
974.712
980.358
985.628
990.527
995.068
999.256
1003.09
1006.56
1009.73
1012.69
1015.54
1018.31
1021.01
1023.66
1026.26
1028.81
1031.29
1033.68
1035.95
1038.09
1040.1
1041.96
1043.69
1045.27
1046.69
1047.9
1048.88
1049.66
1050.34
1050.9
1051.36
1051.88
1052.41
1052.91
1053.53
1054.23
1054.86
1055.52
1056.21
1056.86
1057.48
1058.1
1058.68
1059.16
1059.46
1059.6
1059.62
1059.54
1059.43
1059.45
1059.5
1059.58
1059.7
1059.87
1060.07
1060.32
1060.61
1060.86
1061.08
1061.17
1061.12
1060.96
1060.66
1060.35
1060.08
1059.86
1059.72
1059.71
1059.75
1059.86
1060.03
1060.24
1060.53
1060.85
1061.15
1061.38
1061.51
1061.55
1061.58
1061.62
1061.67
1061.74
1061.83
1061.93
1062.03
1062.12
1062.16
1062.15
1062.09
1061.95
806.744
823.549
839.854
855.575
870.643
885.004
898.621
911.465
923.513
934.73
945.121
954.726
963.574
971.66
979.092
985.943
992.263
998.084
1003.43
1008.33
1012.79
1016.83
1020.47
1023.71
1026.56
1029.01
1031.18
1033.2
1035.15
1037.08
1038.97
1040.83
1042.66
1044.46
1046.22
1047.94
1049.59
1051.16
1052.66
1054.08
1055.4
1056.62
1057.72
1058.66
1059.4
1060.01
1060.54
1061.03
1061.49
1061.94
1062.39
1062.89
1063.43
1064.03
1064.68
1065.36
1066.07
1066.79
1067.52
1068.25
1068.98
1069.71
1070.39
1070.99
1071.45
1071.71
1071.84
1071.98
1072.01
1072.01
1072.12
1072.32
1072.48
1072.72
1073.02
1073.33
1073.66
1074.05
1074.49
1074.86
1075.1
1075.11
1075.01
1074.77
1074.46
1074.2
1073.95
1073.76
1073.62
1073.54
1073.53
1073.55
1073.61
1073.71
1073.82
1073.91
1073.91
1073.83
1073.66
1073.46
1073.27
1073.09
1072.95
1072.94
1072.97
1073.06
1073.21
1073.43
1073.72
1074.07
1074.43
1074.77
1075.03
1075.21
1075.36
1075.48
1075.6
1075.7
1075.8
1075.87
1075.93
1075.95
1075.93
1075.89
1075.79
1075.64
1075.38
1075
1035.52
1042.5
1048.73
1054.26
1059.15
1063.43
1067.13
1070.29
1072.91
1074.96
1076.55
1077.86
1079.01
1080.07
1081.07
1082
1082.87
1083.68
1084.42
1085.08
1085.66
1086.16
1086.57
1086.9
1087.02
1086.93
1086.69
1086.33
1085.94
1085.56
1085.21
1084.91
1084.66
1084.48
1084.39
1084.4
1084.47
1084.62
1084.84
1085.13
1085.46
1085.85
1086.28
1086.76
1087.24
1087.64
1087.92
1088.07
1088.14
1088.14
1088.13
1088.1
1088.11
1088.14
1088.23
1088.38
1088.58
1088.81
1089.1
1089.43
1089.8
1090.21
1090.66
1091.09
1091.39
1091.42
1091.37
1091.23
1090.96
1090.66
1090.43
1090.23
1090.05
1089.95
1089.92
1089.94
1089.98
1090.08
1090.25
1090.45
1090.63
1090.69
1090.63
1090.46
1090.24
1090
1089.76
1089.53
1089.34
1089.19
1089.09
1089.02
1089.01
1089.03
1089.1
1089.2
1089.25
1089.23
1089.16
1089.06
1088.93
1088.81
1088.71
1088.7
1088.73
1088.82
1088.98
1089.18
1089.45
1089.79
1090.17
1090.55
1090.89
1091.18
1091.43
1091.64
1091.82
1091.97
1092.09
1092.18
1092.2
1092.19
1092.14
1092.04
1091.89
1091.69
1091.39
1091
1135.48
1136.01
1136.4
1136.65
1136.75
1136.7
1136.55
1136.24
1135.74
1134.94
1133.81
1132.5
1131.16
1129.83
1128.54
1127.29
1126.1
1124.99
1123.96
1123.02
1122.17
1121.42
1120.76
1120.21
1119.78
1119.45
1119.14
1118.73
1118.19
1117.53
1116.82
1116.1
1115.4
1114.74
1114.14
1113.62
1113.19
1112.84
1112.59
1112.41
1112.31
1112.31
1112.38
1112.55
1112.8
1113.06
1113.18
1113.15
1113.02
1112.79
1112.49
1112.14
1111.78
1111.44
1111.13
1110.87
1110.67
1110.51
1110.41
1110.39
1110.39
1110.43
1110.54
1110.72
1110.88
1110.89
1110.83
1110.69
1110.46
1110.19
1109.91
1109.64
1109.39
1109.18
1109.03
1108.91
1108.82
1108.81
1108.84
1108.93
1109.06
1109.12
1109.09
1108.97
1108.79
1108.58
1108.34
1108.09
1107.85
1107.64
1107.46
1107.32
1107.21
1107.16
1107.16
1107.2
1107.24
1107.23
1107.2
1107.14
1107.07
1106.99
1106.95
1106.97
1107.02
1107.13
1107.29
1107.5
1107.76
1108.07
1108.45
1108.84
1109.22
1109.58
1109.9
1110.18
1110.42
1110.61
1110.77
1110.88
1110.9
1110.87
1110.79
1110.66
1110.46
1110.19
1109.85
1109.41
1182.17
1180.34
1178.52
1176.74
1175.03
1173.41
1171.88
1170.46
1169.25
1168.16
1166.94
1165.51
1163.92
1162.23
1160.52
1158.85
1157.22
1155.67
1154.22
1152.87
1151.63
1150.52
1149.53
1148.71
1148.08
1147.59
1147.1
1146.52
1145.84
1145.06
1144.22
1143.34
1142.45
1141.6
1140.79
1140.06
1139.4
1138.83
1138.34
1137.92
1137.6
1137.35
1137.18
1137.13
1137.15
1137.16
1137.13
1137.01
1136.8
1136.52
1136.17
1135.79
1135.39
1135
1134.64
1134.31
1133.99
1133.73
1133.54
1133.35
1133.19
1133.15
1133.17
1133.19
1133.18
1133.1
1132.96
1132.74
1132.46
1132.15
1131.83
1131.51
1131.23
1130.97
1130.74
1130.55
1130.4
1130.3
1130.28
1130.3
1130.3
1130.25
1130.13
1129.96
1129.74
1129.48
1129.22
1128.95
1128.69
1128.46
1128.25
1128.07
1127.93
1127.86
1127.83
1127.82
1127.79
1127.75
1127.71
1127.65
1127.61
1127.62
1127.66
1127.75
1127.86
1128.05
1128.28
1128.55
1128.84
1129.23
1129.63
1130.02
1130.42
1130.8
1131.12
1131.39
1131.62
1131.81
1131.95
1131.97
1131.95
1131.86
1131.69
1131.45
1131.13
1130.73
1130.24
1216.2
1213.8
1211.37
1208.97
1206.67
1204.47
1202.34
1200.33
1198.57
1197.01
1195.53
1194
1192.37
1190.63
1188.83
1187.02
1185.23
1183.49
1181.82
1180.25
1178.79
1177.45
1176.24
1175.17
1174.27
1173.57
1173.02
1172.54
1172.05
1171.5
1170.89
1170.22
1169.51
1168.78
1168.06
1167.37
1166.71
1166.1
1165.55
1165.05
1164.61
1164.23
1163.92
1163.69
1163.55
1163.47
1163.39
1163.27
1163.09
1162.83
1162.49
1162.1
1161.67
1161.21
1160.77
1160.33
1159.89
1159.51
1159.17
1158.84
1158.53
1158.32
1158.17
1158.05
1157.94
1157.81
1157.62
1157.38
1157.09
1156.75
1156.39
1156.02
1155.67
1155.34
1155.04
1154.76
1154.51
1154.31
1154.17
1154.08
1153.99
1153.88
1153.72
1153.52
1153.27
1152.99
1152.69
1152.39
1152.09
1151.81
1151.55
1151.31
1151.11
1150.97
1150.87
1150.8
1150.74
1150.67
1150.61
1150.55
1150.54
1150.57
1150.64
1150.76
1150.88
1151.09
1151.36
1151.64
1151.94
1152.34
1152.77
1153.17
1153.58
1153.99
1154.36
1154.65
1154.9
1155.11
1155.27
1155.31
1155.29
1155.2
1155.02
1154.74
1154.38
1153.93
1153.39
1152.75
1152.02
1243.64
1241.06
1238.36
1235.75
1233.23
1230.79
1228.45
1226.24
1224.2
1222.38
1220.81
1219.37
1218