/*--------------------------------*- C++ -*----------------------------------*\
| =========                 |                                                 |
| \\      /  F ield         | OpenFOAM: The Open Source CFD Toolbox           |
|  \\    /   O peration     | Version:  v1706                                 |
|   \\  /    A nd           | Web:      www.OpenFOAM.com                      |
|    \\/     M anipulation  |                                                 |
\*---------------------------------------------------------------------------*/
FoamFile
{
    version     2.0;
    format      ascii;
    class       volScalarField;
    location    "1.9e-05";
    object      Tv;
}
// * * * * * * * * * * * * * * * * * * * * * * * * * * * * * * * * * * * * * //

dimensions      [0 0 0 1 0 0 0];


internalField   nonuniform List<scalar> 
29871
(
144.4
144.4
144.4
144.4
144.4
144.4
144.4
144.4
144.4
144.4
144.4
144.4
144.4
144.4
144.4
144.4
144.4
144.4
144.4
144.4
144.4
144.4
144.4
144.4
144.4
144.4
144.4
144.4
144.4
144.4
144.4
144.4
144.4
144.4
144.4
144.4
144.4
144.4
144.4
144.4
144.4
144.4
144.4
144.4
144.4
144.4
144.4
144.4
144.4
144.4
144.4
144.4
144.4
144.4
144.4
144.4
144.4
144.4
144.4
144.4
144.4
144.4
144.4
144.4
144.4
144.4
144.4
144.4
144.4
144.4
144.4
144.4
144.4
144.4
144.4
144.4
144.4
144.4
144.4
144.4
144.4
144.4
144.4
144.4
144.4
144.4
144.4
144.4
144.4
144.4
144.4
144.4
144.4
144.4
144.4
144.4
144.4
144.4
144.4
144.4
144.4
144.4
144.4
144.4
144.4
144.4
144.4
144.4
144.4
144.4
144.4
144.4
144.4
144.4
144.4
144.4
144.4
144.4
144.4
144.4
144.4
144.4
144.4
144.4
144.4
144.4
144.4
144.4
144.4
144.4
144.4
144.4
144.4
144.4
144.4
144.4
144.4
144.4
144.4
144.4
144.4
144.4
144.4
144.4
144.4
144.4
144.4
144.4
144.4
144.4
144.4
144.4
144.4
144.4
144.4
144.4
144.4
144.4
144.4
144.4
144.4
144.4
144.4
144.4
144.4
144.4
144.4
144.4
144.4
144.4
144.4
144.4
144.4
144.4
144.4
144.4
144.4
144.4
144.4
144.4
144.4
144.4
144.4
144.4
144.4
144.4
144.4
144.4
144.4
144.4
144.4
144.4
144.4
144.4
144.4
144.4
144.4
144.4
144.4
144.4
144.4
144.4
144.4
144.4
144.4
144.4
144.4
144.4
144.4
144.4
144.4
144.4
144.4
144.4
144.4
144.4
144.4
144.4
144.4
144.4
144.4
144.4
144.4
144.4
144.4
144.4
144.4
144.4
144.4
144.4
144.4
144.4
144.4
144.4
144.4
144.4
144.4
144.4
144.4
144.4
144.4
144.4
144.4
144.4
144.4
144.4
144.4
144.4
144.4
144.4
144.4
144.4
144.4
144.4
144.4
144.4
144.4
144.4
144.4
144.4
144.4
144.4
144.4
144.4
144.4
144.4
144.4
144.4
144.4
144.4
144.4
144.4
144.4
144.4
144.4
144.4
144.4
144.4
144.4
144.4
144.4
144.4
144.4
144.4
144.4
144.4
144.4
144.4
144.4
144.4
144.4
144.4
144.4
144.4
144.4
144.4
144.4
144.4
144.4
144.4
144.4
144.4
144.4
144.4
144.4
144.4
144.4
144.4
144.4
144.4
144.4
144.4
144.4
144.4
144.4
144.4
144.4
144.4
144.4
144.4
144.4
144.4
144.4
144.4
144.4
144.4
144.4
144.4
144.4
144.4
144.4
144.4
144.4
144.4
144.4
144.4
144.4
144.4
144.4
144.4
144.4
144.4
144.4
144.4
144.4
144.4
144.4
144.4
144.4
144.4
144.4
144.4
144.4
144.4
144.4
144.4
144.4
144.4
144.4
144.4
144.4
144.4
144.4
144.4
144.4
144.4
144.4
144.4
144.4
144.4
144.4
144.4
144.4
144.4
144.4
144.4
144.4
144.4
144.4
144.4
144.4
144.4
144.4
144.4
144.4
144.4
144.4
144.4
144.4
144.4
144.4
144.4
144.4
144.4
144.4
144.4
144.4
144.4
144.4
144.4
144.4
144.4
144.4
144.4
144.4
144.4
144.4
144.4
144.4
144.4
144.4
144.4
144.4
144.4
144.4
144.4
144.4
144.4
144.4
144.4
144.4
144.4
144.4
144.4
144.4
144.4
144.4
144.4
144.4
144.4
144.4
144.4
144.4
144.4
144.4
144.4
144.4
144.4
144.4
144.4
144.4
144.4
144.4
144.4
144.4
144.4
144.4
144.4
144.4
144.4
144.4
144.4
144.4
144.4
144.4
144.4
144.4
144.4
144.4
144.4
144.4
144.4
144.4
144.4
144.4
144.4
144.4
144.4
144.4
144.4
144.4
144.4
144.4
144.4
144.4
144.4
144.4
144.4
144.4
144.4
144.4
144.4
144.4
144.4
144.4
144.4
144.4
144.4
144.4
144.4
144.4
144.4
144.4
144.4
144.4
144.4
144.4
144.4
144.4
144.4
144.4
144.4
144.4
144.4
144.4
144.4
144.4
144.4
144.4
144.4
144.4
144.4
144.4
144.4
144.4
144.4
144.4
144.4
144.4
144.4
144.4
144.4
144.4
144.4
144.4
144.4
144.4
144.4
144.4
144.4
144.4
144.4
144.4
144.4
144.4
144.4
144.4
144.4
144.4
144.4
144.4
144.4
144.4
144.4
144.4
144.4
144.4
144.4
144.4
144.4
144.4
144.4
144.4
144.4
144.4
144.4
144.4
144.4
144.4
144.4
144.4
144.4
144.4
144.4
144.4
144.4
144.4
144.4
144.4
144.4
144.4
144.4
144.4
144.4
144.4
144.4
144.4
144.4
144.4
144.4
144.4
144.4
144.4
144.4
144.4
144.4
144.4
144.4
144.4
144.4
144.4
144.4
144.4
144.4
144.4
144.4
144.4
144.4
144.4
144.4
144.4
144.4
144.4
144.4
144.4
144.4
144.4
144.4
144.4
144.4
144.4
144.4
144.4
144.4
144.4
144.4
144.4
144.4
144.4
144.4
144.4
144.4
144.4
144.4
144.4
144.4
144.4
144.4
144.4
144.4
144.4
144.4
144.4
144.4
144.4
144.4
144.4
144.4
144.4
144.4
144.4
144.4
144.4
144.4
144.4
144.4
144.4
144.4
144.4
144.4
144.4
144.4
144.4
144.4
144.4
144.4
144.4
144.4
144.4
144.4
144.4
144.4
144.4
144.4
144.4
144.4
144.4
144.4
144.4
144.4
144.4
144.4
144.4
144.4
144.4
144.4
144.4
144.4
144.4
144.4
144.4
144.4
144.4
144.4
144.4
144.4
144.4
144.4
144.4
144.4
144.4
144.4
144.4
144.4
144.4
144.4
144.4
144.4
144.4
144.4
144.4
144.4
144.4
144.4
144.4
144.4
144.4
144.4
144.4
144.4
144.4
144.4
144.4
144.4
144.4
144.4
144.4
144.4
144.4
144.4
144.4
144.4
144.4
144.4
144.4
144.4
144.4
144.4
144.4
144.4
144.4
144.4
144.4
144.4
144.4
144.4
144.4
144.4
144.4
144.4
144.4
144.4
144.4
144.4
144.4
144.4
144.4
144.4
144.4
144.4
144.4
144.4
144.4
144.4
144.4
144.4
144.4
144.4
144.4
144.4
144.4
144.4
144.4
144.4
144.4
144.4
144.4
144.4
144.4
144.4
144.4
144.4
144.4
144.4
144.4
144.4
144.4
144.4
144.4
144.4
144.4
144.4
144.4
144.4
144.4
144.4
144.4
144.4
144.4
144.4
144.4
144.4
144.4
144.4
144.4
144.4
144.4
144.4
144.4
144.4
144.4
144.4
144.4
144.4
144.4
144.4
144.4
144.4
144.4
144.4
144.4
144.4
144.4
144.4
144.4
144.4
144.4
144.4
144.4
144.4
144.4
144.4
144.4
144.4
144.4
144.4
144.4
144.4
144.4
144.4
144.4
144.4
144.4
144.4
144.4
144.4
144.4
144.4
144.4
144.4
144.4
144.4
144.4
144.4
144.4
144.4
144.4
144.4
144.4
144.4
144.4
144.4
144.4
144.4
144.4
144.4
144.4
144.4
144.4
144.4
144.4
144.4
144.4
144.4
144.4
144.4
144.4
144.4
144.4
144.4
144.4
144.4
144.4
144.4
144.4
144.4
144.4
144.4
144.4
144.4
144.4
144.4
144.4
144.4
144.4
144.4
144.4
144.4
144.4
144.4
144.4
144.4
144.4
144.4
144.4
144.4
144.4
144.4
144.4
144.4
144.4
144.4
144.4
144.4
144.4
144.4
144.4
144.4
144.4
144.4
144.4
144.4
144.4
144.4
144.4
144.4
144.4
144.4
144.4
144.4
144.4
144.4
144.4
144.4
144.4
144.4
144.4
144.4
144.4
144.4
144.4
144.4
144.4
144.4
144.4
144.4
144.4
144.4
144.4
144.4
144.4
144.4
144.4
144.4
144.4
144.4
144.4
144.4
144.4
144.4
144.4
144.4
144.4
144.4
144.4
144.4
144.4
144.4
144.4
144.4
144.4
144.4
144.4
144.4
144.4
144.4
144.4
144.4
144.4
144.4
144.4
144.4
144.4
144.4
144.4
144.4
144.4
144.4
144.4
144.4
144.4
144.4
144.4
144.4
144.4
144.4
144.4
144.4
144.4
144.4
144.4
144.4
144.4
144.4
144.4
144.4
144.4
144.4
144.4
144.4
144.4
144.4
144.4
144.4
144.4
144.4
144.4
144.4
144.4
144.4
144.4
144.4
144.4
144.4
144.4
144.4
144.4
144.4
144.4
144.4
144.4
144.4
144.4
144.4
144.4
144.4
144.4
144.4
144.4
144.4
144.4
144.4
144.4
144.4
144.4
144.4
144.4
144.4
144.4
144.4
144.4
144.4
144.4
144.4
144.4
144.4
144.4
144.4
144.4
144.4
144.4
144.4
144.4
144.4
144.4
144.4
144.4
144.4
144.4
144.4
144.4
144.4
144.4
144.4
144.4
144.4
144.4
144.4
144.4
144.4
144.4
144.4
144.4
144.4
144.4
144.4
144.4
144.4
144.4
144.4
144.4
144.4
144.4
144.4
144.4
144.4
144.4
144.4
144.4
144.4
144.4
144.4
144.4
144.4
144.4
144.4
144.4
144.4
144.4
144.4
144.4
144.4
144.4
144.4
144.4
144.4
144.4
144.4
144.4
144.4
144.4
144.4
144.4
144.4
144.4
144.4
144.4
144.4
144.4
144.4
144.4
144.4
144.4
144.4
144.4
144.4
144.4
144.4
144.4
144.4
144.4
144.4
144.4
144.4
144.4
144.4
144.4
144.4
144.4
144.4
144.4
144.4
144.4
144.4
144.4
144.4
144.4
144.4
144.4
144.4
144.4
144.4
144.4
144.4
144.4
144.4
144.4
144.4
144.4
144.4
144.4
144.4
144.4
144.4
144.4
144.4
144.4
144.4
144.4
144.4
144.4
144.4
144.4
144.4
144.4
144.4
144.4
144.4
144.4
144.4
144.4
144.4
144.4
144.4
144.4
144.4
144.4
144.4
144.4
144.4
144.4
144.4
144.4
144.4
144.4
144.4
144.4
144.4
144.4
144.4
144.4
144.4
144.4
144.4
144.4
144.4
144.4
144.4
144.4
144.4
144.4
144.4
144.4
144.4
144.4
144.4
144.4
144.4
144.4
144.4
144.4
144.4
144.4
144.4
144.4
144.4
144.4
144.4
144.4
144.4
144.4
144.4
144.4
144.4
144.4
144.4
144.4
144.4
144.4
144.4
144.4
144.4
144.4
144.4
144.4
144.4
144.4
144.4
144.4
144.4
144.4
144.4
144.4
144.4
144.4
144.4
144.4
144.4
144.4
144.4
144.4
144.4
144.4
144.4
144.4
144.4
144.4
144.4
144.4
144.4
144.4
144.4
144.4
144.4
144.4
144.4
144.4
144.4
144.4
144.4
144.4
144.4
144.4
144.4
144.4
144.4
144.4
144.4
144.4
144.4
144.4
144.4
144.4
144.4
144.4
144.4
144.4
144.4
144.4
144.4
144.4
144.4
144.4
144.4
144.4
144.4
144.4
144.4
144.4
144.4
144.4
144.4
144.4
144.4
144.4
144.4
144.4
144.4
144.4
144.4
144.4
144.4
144.4
144.4
144.4
144.4
144.4
144.4
144.4
144.4
144.4
144.4
144.4
144.4
144.4
144.4
144.4
144.4
144.4
144.4
144.4
144.4
144.4
144.4
144.4
144.4
144.4
144.4
144.4
144.4
144.4
144.4
144.4
144.4
144.4
144.4
144.4
144.4
144.4
144.4
144.4
144.4
144.4
144.4
144.4
144.4
144.4
144.4
144.4
144.4
144.4
144.4
144.4
144.4
144.4
144.4
144.4
144.4
144.4
144.4
144.4
144.4
144.4
144.4
144.4
144.4
144.4
144.4
144.4
144.4
144.4
144.4
144.4
144.4
144.4
144.4
144.4
144.4
144.4
144.4
144.4
144.4
144.4
144.4
144.4
144.4
144.4
144.4
144.4
144.4
144.4
144.4
144.4
144.4
144.4
144.4
144.4
144.4
144.4
144.4
144.4
144.4
144.4
144.4
144.4
144.4
144.4
144.4
144.4
144.4
144.4
144.4
144.4
144.4
144.4
144.4
144.4
144.4
144.4
144.4
144.4
144.4
144.4
144.4
144.4
144.4
144.4
144.4
144.4
144.4
144.4
144.4
144.4
144.4
144.4
144.4
144.4
144.4
144.4
144.4
144.4
144.4
144.4
144.4
144.4
144.4
144.4
144.4
144.4
144.4
144.4
144.4
144.4
144.4
144.4
144.4
144.4
144.4
144.4
144.4
144.4
144.4
144.4
144.4
144.4
144.4
144.4
144.4
144.4
144.4
144.4
144.4
144.4
144.4
144.4
144.4
144.4
144.4
144.4
144.4
144.4
144.4
144.4
144.4
144.4
144.4
144.4
144.4
144.4
144.4
144.4
144.4
144.4
144.4
144.4
144.4
144.4
144.4
144.4
144.4
144.4
144.4
144.4
144.4
144.4
144.4
144.4
144.4
144.4
144.4
144.4
144.4
144.4
144.4
144.4
144.4
144.4
144.4
144.4
144.4
144.4
144.4
144.4
144.4
144.4
144.4
144.4
144.4
144.4
144.4
144.4
144.4
144.4
144.4
144.4
144.4
144.4
144.4
144.4
144.4
144.4
144.4
144.4
144.4
144.4
144.4
144.4
144.4
144.4
144.4
144.4
144.4
144.4
144.4
144.4
144.4
144.4
144.4
144.4
144.4
144.4
144.4
144.4
144.4
144.4
144.4
144.4
144.4
144.4
144.4
144.4
144.4
144.4
144.4
144.4
144.4
144.4
144.4
144.4
144.4
144.4
144.4
144.4
144.4
144.4
144.4
144.4
144.4
144.4
144.4
144.4
144.4
144.4
144.4
144.4
144.4
144.4
144.4
144.4
144.4
144.4
144.4
144.4
144.4
144.4
144.4
144.4
144.4
144.4
144.4
144.4
144.4
144.4
144.4
144.4
144.4
144.4
144.4
144.4
144.4
144.4
144.4
144.4
144.4
144.4
144.4
144.4
144.4
144.4
144.4
144.4
144.4
144.4
144.4
144.4
144.4
144.4
144.4
144.4
144.4
144.4
144.4
144.4
144.4
144.4
144.4
144.4
144.4
144.4
144.4
144.4
144.4
144.4
144.4
144.4
144.4
144.4
144.4
144.4
144.4
144.4
144.4
144.4
144.4
144.4
144.4
144.4
144.4
144.4
144.4
144.4
144.4
144.4
144.4
144.4
144.4
144.4
144.4
144.4
144.4
144.4
144.4
144.4
144.4
144.4
144.4
144.4
144.4
144.4
144.4
144.4
144.4
144.4
144.4
144.4
144.4
144.4
144.4
144.4
144.4
144.4
144.4
144.4
144.4
144.4
144.4
144.4
144.4
144.4
144.4
144.4
144.4
144.4
144.4
144.4
144.4
144.4
144.4
144.4
144.4
144.4
144.4
144.4
144.4
144.4
144.4
144.4
144.4
144.4
144.4
144.4
144.4
144.4
144.4
144.4
144.4
144.4
144.4
144.4
144.4
144.4
144.4
144.4
144.4
144.4
144.4
144.4
144.4
144.4
144.4
144.4
144.4
144.4
144.4
144.4
144.4
144.4
144.4
144.4
144.4
144.4
144.4
144.4
144.4
144.4
144.4
144.4
144.4
144.4
144.4
144.4
144.4
144.4
144.4
144.4
144.4
144.4
144.4
144.4
144.4
144.4
144.4
144.4
144.4
144.4
144.4
144.4
144.4
144.4
144.4
144.4
144.4
144.4
144.4
144.4
144.4
144.4
144.4
144.4
144.4
144.4
144.4
144.4
144.4
144.4
144.4
144.4
144.4
144.4
144.4
144.4
144.4
144.4
144.4
144.4
144.4
144.4
144.4
144.4
144.4
144.4
144.4
144.4
144.4
144.4
144.4
144.4
144.4
144.4
144.4
144.4
144.4
144.4
144.4
144.4
144.4
144.4
144.4
144.4
144.4
144.4
144.4
144.4
144.4
144.4
144.4
144.4
144.4
144.4
144.4
144.4
144.4
144.4
144.4
144.4
144.4
144.4
144.4
144.4
144.4
144.4
144.4
144.4
144.4
144.4
144.4
144.4
144.4
144.4
144.4
144.4
144.4
144.4
144.4
144.4
144.4
144.4
144.4
144.4
144.4
144.4
144.4
144.4
144.4
144.4
144.4
144.4
144.4
144.4
144.4
144.4
144.4
144.4
144.4
144.4
144.4
144.4
144.4
144.4
144.4
144.4
144.4
144.4
144.4
144.4
144.4
144.4
144.4
144.4
144.4
144.4
144.4
144.4
144.4
144.4
144.4
144.4
144.4
144.4
144.4
144.4
144.4
144.4
144.4
144.4
144.4
144.4
144.4
144.4
144.4
144.4
144.4
144.4
144.4
144.4
144.4
144.4
144.4
144.4
144.4
144.4
144.4
144.4
144.4
144.4
144.4
144.4
144.4
144.4
144.4
144.4
144.4
144.4
144.4
144.4
144.4
144.4
144.4
144.4
144.4
144.4
144.4
144.4
144.4
144.4
144.4
144.4
144.4
144.4
144.4
144.4
144.4
144.401
144.401
144.401
144.401
144.401
144.401
144.401
144.401
144.4
144.4
144.4
144.4
144.4
144.4
144.4
144.4
144.4
144.4
144.4
144.4
144.4
144.4
144.4
144.4
144.4
144.4
144.4
144.4
144.4
144.4
144.4
144.4
144.4
144.4
144.4
144.4
144.4
144.4
144.4
144.4
144.4
144.4
144.4
144.4
144.4
144.4
144.4
144.4
144.4
144.4
144.4
144.4
144.4
144.4
144.4
144.4
144.4
144.4
144.4
144.4
144.4
144.4
144.4
144.4
144.4
144.4
144.4
144.4
144.4
144.4
144.4
144.4
144.4
144.4
144.4
144.4
144.4
144.4
144.4
144.4
144.4
144.4
144.4
144.4
144.4
144.4
144.4
144.4
144.4
144.4
144.4
144.4
144.4
144.4
144.4
144.4
144.4
144.4
144.4
144.401
144.401
144.401
144.401
144.401
144.401
144.401
144.401
144.401
144.401
144.401
144.402
144.402
144.402
144.402
144.402
144.403
144.403
144.403
144.404
144.404
144.404
144.405
144.405
144.406
144.407
144.407
144.408
144.409
144.411
144.412
144.413
144.4
144.4
144.4
144.4
144.4
144.4
144.4
144.4
144.4
144.4
144.4
144.4
144.4
144.4
144.4
144.4
144.4
144.4
144.4
144.4
144.4
144.4
144.4
144.4
144.4
144.4
144.4
144.4
144.4
144.4
144.4
144.4
144.4
144.4
144.4
144.4
144.4
144.4
144.4
144.4
144.4
144.4
144.4
144.4
144.4
144.4
144.4
144.4
144.4
144.4
144.4
144.4
144.4
144.4
144.4
144.4
144.4
144.4
144.4
144.4
144.4
144.4
144.4
144.4
144.4
144.4
144.401
144.401
144.401
144.401
144.401
144.401
144.401
144.401
144.401
144.401
144.401
144.401
144.402
144.402
144.402
144.402
144.402
144.402
144.403
144.403
144.403
144.404
144.404
144.405
144.405
144.406
144.406
144.407
144.408
144.408
144.409
144.41
144.411
144.412
144.414
144.415
144.417
144.419
144.421
144.424
144.426
144.429
144.433
144.436
144.44
144.444
144.448
144.452
144.458
144.464
144.472
144.481
144.492
144.504
144.517
144.531
144.547
144.564
144.582
144.4
144.4
144.4
144.4
144.4
144.4
144.4
144.4
144.4
144.4
144.4
144.4
144.4
144.4
144.4
144.4
144.4
144.4
144.4
144.4
144.4
144.4
144.4
144.4
144.4
144.4
144.4
144.4
144.4
144.4
144.4
144.4
144.4
144.4
144.4
144.4
144.401
144.401
144.401
144.401
144.401
144.401
144.401
144.401
144.401
144.401
144.401
144.401
144.401
144.401
144.401
144.401
144.402
144.402
144.402
144.402
144.402
144.402
144.403
144.403
144.403
144.403
144.404
144.404
144.404
144.405
144.405
144.406
144.406
144.407
144.407
144.408
144.409
144.41
144.411
144.412
144.413
144.415
144.416
144.418
144.419
144.421
144.423
144.426
144.428
144.431
144.434
144.438
144.443
144.448
144.453
144.459
144.466
144.473
144.48
144.489
144.497
144.507
144.517
144.529
144.543
144.559
144.577
144.598
144.621
144.647
144.675
144.706
144.738
144.773
144.81
144.85
144.892
144.938
144.992
145.056
145.132
145.22
145.32
145.43
145.55
145.679
145.816
145.959
146.109
144.4
144.4
144.4
144.4
144.4
144.4
144.4
144.4
144.401
144.401
144.401
144.401
144.401
144.401
144.401
144.401
144.401
144.401
144.401
144.401
144.402
144.402
144.402
144.402
144.402
144.402
144.402
144.403
144.403
144.403
144.403
144.403
144.404
144.404
144.404
144.404
144.405
144.405
144.406
144.406
144.406
144.407
144.407
144.408
144.409
144.409
144.41
144.411
144.411
144.412
144.413
144.414
144.415
144.416
144.418
144.419
144.421
144.423
144.425
144.427
144.43
144.432
144.435
144.439
144.442
144.446
144.45
144.454
144.459
144.465
144.471
144.478
144.486
144.495
144.506
144.517
144.53
144.543
144.558
144.574
144.592
144.61
144.63
144.652
144.677
144.706
144.739
144.777
144.82
144.867
144.92
144.976
145.038
145.103
145.173
145.247
145.324
145.407
145.498
145.601
145.719
145.855
146.007
146.175
146.357
146.552
146.757
146.971
147.194
147.423
147.658
147.899
148.147
148.411
148.707
149.044
149.423
149.834
150.269
150.718
151.174
151.633
152.088
152.537
152.979
144.402
144.402
144.402
144.403
144.403
144.403
144.404
144.404
144.404
144.405
144.405
144.406
144.406
144.407
144.408
144.408
144.409
144.41
144.411
144.412
144.413
144.414
144.415
144.416
144.417
144.419
144.42
144.422
144.423
144.425
144.427
144.429
144.431
144.433
144.436
144.438
144.441
144.444
144.447
144.45
144.454
144.458
144.462
144.467
144.473
144.478
144.484
144.491
144.498
144.505
144.513
144.521
144.531
144.541
144.552
144.564
144.578
144.594
144.611
144.63
144.652
144.675
144.701
144.728
144.758
144.79
144.824
144.861
144.901
144.945
144.995
145.051
145.114
145.186
145.266
145.354
145.451
145.555
145.668
145.788
145.915
146.049
146.19
146.34
146.503
146.685
146.889
147.116
147.366
147.637
147.925
148.228
148.543
148.868
149.2
149.537
149.876
150.218
150.565
150.93
151.327
151.762
152.229
152.72
153.226
153.739
154.251
154.76
155.261
155.752
156.233
156.704
157.163
157.615
158.075
158.569
159.108
159.679
160.264
160.85
161.428
161.992
162.54
163.068
163.576
164.064
144.417
144.419
144.421
144.424
144.426
144.429
144.432
144.436
144.44
144.444
144.448
144.453
144.458
144.463
144.469
144.475
144.482
144.489
144.496
144.504
144.512
144.521
144.531
144.541
144.553
144.565
144.577
144.591
144.605
144.621
144.637
144.654
144.672
144.69
144.71
144.731
144.754
144.779
144.806
144.835
144.867
144.902
144.94
144.98
145.024
145.071
145.122
145.175
145.232
145.292
145.355
145.423
145.495
145.574
145.661
145.758
145.866
145.984
146.114
146.256
146.408
146.571
146.745
146.929
147.123
147.325
147.535
147.754
147.986
148.236
148.51
148.81
149.137
149.488
149.86
150.251
150.657
151.074
151.499
151.93
152.363
152.796
153.229
153.668
154.125
154.612
155.132
155.678
156.242
156.816
157.392
157.963
158.526
159.078
159.616
160.14
160.647
161.139
161.622
162.113
162.633
163.181
163.746
164.315
164.879
165.432
165.971
166.492
166.996
167.483
167.954
168.408
168.848
169.275
169.699
170.149
170.627
171.117
171.609
172.097
172.579
173.052
173.514
173.962
174.398
174.821
175.23
175.624
144.548
144.565
144.584
144.605
144.627
144.652
144.678
144.707
144.738
144.771
144.807
144.846
144.887
144.93
144.976
145.025
145.076
145.13
145.188
145.249
145.313
145.382
145.456
145.533
145.616
145.703
145.796
145.892
145.994
146.1
146.21
146.324
146.443
146.565
146.693
146.828
146.971
147.125
147.289
147.465
147.652
147.85
148.06
148.281
148.512
148.752
149.001
149.258
149.521
149.79
150.066
150.35
150.647
150.963
151.3
151.662
152.046
152.452
152.875
153.314
153.765
154.225
154.692
155.163
155.635
156.106
156.575
157.045
157.523
158.021
158.546
159.098
159.669
160.254
160.846
161.439
162.028
162.61
163.182
163.741
164.286
164.815
165.33
165.839
166.359
166.902
167.466
168.039
168.614
169.182
169.74
170.282
170.807
171.316
171.806
172.278
172.733
173.17
173.594
174.019
174.467
174.927
175.388
175.847
176.3
176.745
177.179
177.603
178.016
178.419
178.812
179.196
179.571
179.938
180.299
180.669
181.051
181.439
181.83
182.222
182.614
183.004
183.388
183.767
184.136
184.498
184.85
185.188
145.576
145.702
145.836
145.98
146.133
146.296
146.469
146.652
146.845
147.047
147.258
147.478
147.705
147.94
148.181
148.428
148.681
148.941
149.209
149.485
149.769
150.063
150.365
150.675
150.993
151.318
151.648
151.984
152.322
152.663
153.005
153.348
153.69
154.034
154.384
154.743
155.114
155.5
155.899
156.311
156.735
157.169
157.61
158.057
158.508
158.961
159.415
159.867
160.316
160.761
161.205
161.65
162.105
162.579
163.073
163.587
164.116
164.656
165.203
165.751
166.299
166.844
167.382
167.912
168.432
168.94
169.437
169.926
170.417
170.924
171.45
171.99
172.538
173.087
173.632
174.169
174.695
175.209
175.709
176.194
176.663
177.117
177.556
177.985
178.423
178.877
179.337
179.798
180.255
180.706
181.148
181.58
182.002
182.412
182.812
183.201
183.579
183.945
184.3
184.652
185.01
185.373
185.736
186.098
186.459
186.817
187.171
187.519
187.862
188.2
188.533
188.861
189.183
189.497
189.805
190.116
190.433
190.755
191.079
191.408
191.739
192.071
192.403
192.732
193.058
193.381
193.699
194.007
150.85
151.314
151.791
152.277
152.771
153.272
153.779
154.29
154.804
155.32
155.835
156.348
156.858
157.363
157.862
158.355
158.843
159.33
159.818
160.306
160.795
161.285
161.775
162.264
162.751
163.236
163.716
164.191
164.659
165.119
165.57
166.011
166.445
166.873
167.303
167.739
168.185
168.64
169.102
169.57
170.042
170.515
170.988
171.458
171.925
172.387
172.842
173.289
173.727
174.157
174.58
175.001
175.43
175.875
176.334
176.804
177.281
177.76
178.238
178.714
179.184
179.646
180.101
180.546
180.98
181.403
181.816
182.22
182.623
183.042
183.471
183.905
184.339
184.772
185.201
185.624
186.041
186.451
186.853
187.246
187.629
188.003
188.367
188.723
189.08
189.442
189.808
190.173
190.538
190.9
191.259
191.613
191.961
192.304
192.641
192.972
193.296
193.611
193.916
194.217
194.518
194.822
195.125
195.428
195.732
196.035
196.337
196.637
196.935
197.232
197.527
197.821
198.113
198.399
198.679
198.958
199.239
199.522
199.806
200.094
200.387
200.683
200.981
201.28
201.579
201.88
202.181
202.475
202.758
163.441
164.151
164.852
165.545
166.227
166.9
167.56
168.208
168.842
169.462
170.067
170.655
171.226
171.779
172.317
172.843
173.362
173.874
174.38
174.88
175.373
175.86
176.338
176.808
177.269
177.72
178.16
178.589
179.005
179.408
179.8
180.18
180.554
180.93
181.311
181.698
182.09
182.484
182.879
183.273
183.666
184.055
184.44
184.82
185.194
185.561
185.921
186.272
186.616
186.954
187.291
187.636
187.994
188.359
188.729
189.101
189.474
189.846
190.217
190.585
190.95
191.311
191.667
192.017
192.361
192.698
193.03
193.361
193.698
194.04
194.385
194.732
195.078
195.425
195.77
196.113
196.454
196.791
197.124
197.452
197.775
198.091
198.4
198.706
199.014
199.325
199.636
199.947
200.257
200.566
200.872
201.175
201.476
201.774
202.069
202.36
202.645
202.923
203.195
203.465
203.734
204.002
204.268
204.534
204.801
205.069
205.337
205.606
205.877
206.148
206.422
206.697
206.97
207.237
207.504
207.771
208.037
208.305
208.574
208.848
209.126
209.408
209.691
209.977
210.266
210.558
210.846
211.126
178.199
178.903
179.59
180.259
180.909
181.539
182.149
182.74
183.311
183.861
184.392
184.902
185.391
185.86
186.312
186.753
187.186
187.61
188.025
188.433
188.831
189.222
189.603
189.975
190.337
190.69
191.032
191.364
191.684
191.993
192.292
192.582
192.868
193.158
193.453
193.751
194.049
194.348
194.646
194.945
195.242
195.539
195.833
196.126
196.416
196.702
196.984
197.261
197.536
197.808
198.079
198.355
198.638
198.926
199.218
199.513
199.81
200.109
200.409
200.711
201.012
201.314
201.614
201.912
202.207
202.498
202.787
203.075
203.364
203.656
203.952
204.25
204.548
204.848
205.148
205.448
205.747
206.046
206.343
206.637
206.929
207.217
207.499
207.777
208.055
208.334
208.612
208.889
209.165
209.44
209.715
209.988
210.26
210.532
210.803
211.072
211.34
211.601
211.857
212.111
212.364
212.613
212.86
213.106
213.353
213.602
213.852
214.105
214.36
214.618
214.881
215.147
215.414
215.678
215.941
216.204
216.467
216.731
216.996
217.264
217.535
217.809
218.086
218.366
218.65
218.936
219.221
219.501
192.885
193.445
193.987
194.51
195.012
195.496
195.961
196.408
196.837
197.248
197.64
198.014
198.371
198.714
199.051
199.38
199.701
200.013
200.318
200.615
200.905
201.189
201.466
201.737
202.002
202.259
202.509
202.751
202.986
203.214
203.438
203.658
203.881
204.106
204.334
204.563
204.793
205.024
205.256
205.49
205.725
205.961
206.198
206.435
206.67
206.905
207.138
207.37
207.603
207.836
208.073
208.313
208.558
208.807
209.06
209.316
209.575
209.836
210.1
210.366
210.634
210.902
211.169
211.436
211.701
211.965
212.229
212.492
212.755
213.022
213.29
213.557
213.827
214.098
214.369
214.64
214.913
215.186
215.458
215.73
216
216.266
216.526
216.787
217.048
217.308
217.565
217.821
218.077
218.333
218.589
218.844
219.1
219.356
219.612
219.867
220.119
220.366
220.612
220.856
221.096
221.334
221.571
221.808
222.047
222.288
222.532
222.779
223.03
223.286
223.547
223.811
224.074
224.338
224.603
224.869
225.136
225.404
225.673
225.945
226.218
226.494
226.773
227.055
227.339
227.622
227.901
205.519
205.936
206.336
206.719
207.088
207.443
207.784
208.112
208.427
208.728
209.015
209.289
209.551
209.806
210.056
210.299
210.536
210.768
210.996
211.218
211.437
211.652
211.863
212.07
212.273
212.471
212.663
212.851
213.036
213.218
213.4
213.582
213.766
213.953
214.142
214.334
214.528
214.725
214.924
215.125
215.329
215.535
215.743
215.951
216.159
216.367
216.576
216.787
217
217.215
217.433
217.654
217.879
218.107
218.338
218.573
218.811
219.051
219.294
219.541
219.789
220.038
220.287
220.536
220.784
221.034
221.281
221.527
221.777
222.027
222.277
222.528
222.782
223.035
223.29
223.547
223.805
224.063
224.323
224.582
224.838
225.089
225.339
225.59
225.839
226.085
226.331
226.577
226.822
227.067
227.312
227.558
227.804
228.051
228.297
228.542
228.784
229.025
229.265
229.502
229.737
229.97
230.203
230.438
230.675
230.915
231.158
231.405
231.659
231.917
232.179
232.444
232.71
232.979
233.249
233.521
233.795
234.069
234.345
234.622
234.9
235.18
235.462
235.745
236.027
236.305
236.577
236.84
216.097
216.425
216.741
217.045
217.338
217.62
217.892
218.155
218.408
218.65
218.88
219.099
219.308
219.512
219.71
219.904
220.095
220.283
220.467
220.649
220.828
221.006
221.181
221.353
221.523
221.689
221.85
222.009
222.166
222.324
222.482
222.642
222.803
222.967
223.134
223.304
223.476
223.652
223.832
224.014
224.2
224.389
224.582
224.775
224.97
225.166
225.363
225.562
225.763
225.967
226.173
226.381
226.593
226.809
227.027
227.249
227.474
227.702
227.933
228.167
228.404
228.643
228.883
229.123
229.363
229.603
229.842
230.079
230.318
230.558
230.798
231.039
231.282
231.526
231.771
232.017
232.266
232.516
232.768
233.019
233.268
233.514
233.759
234.003
234.247
234.489
234.729
234.969
235.209
235.449
235.688
235.926
236.166
236.407
236.647
236.887
237.125
237.363
237.601
237.836
238.07
238.302
238.535
238.768
239.004
239.243
239.485
239.731
239.983
240.24
240.502
240.768
241.036
241.308
241.583
241.861
242.141
242.422
242.703
242.985
243.267
243.549
243.832
244.115
244.397
244.674
244.945
245.207
225.691
225.96
226.22
226.471
226.713
226.947
227.173
227.391
227.601
227.801
227.989
228.168
228.34
228.508
228.672
228.833
228.992
229.149
229.304
229.458
229.612
229.764
229.916
230.068
230.218
230.367
230.512
230.655
230.797
230.94
231.085
231.231
231.381
231.533
231.689
231.848
232.011
232.178
232.349
232.524
232.703
232.886
233.072
233.262
233.454
233.647
233.841
234.037
234.234
234.432
234.633
234.837
235.044
235.253
235.466
235.682
235.901
236.123
236.347
236.576
236.807
237.04
237.276
237.511
237.747
237.982
238.216
238.45
238.684
238.919
239.154
239.39
239.628
239.866
240.106
240.346
240.589
240.833
241.079
241.326
241.571
241.813
242.055
242.297
242.538
242.777
243.015
243.252
243.489
243.726
243.961
244.196
244.432
244.668
244.904
245.139
245.374
245.609
245.844
246.079
246.312
246.544
246.777
247.011
247.247
247.486
247.728
247.975
248.226
248.483
248.745
249.012
249.282
249.556
249.835
250.117
250.402
250.688
250.975
251.262
251.548
251.833
252.117
252.401
252.681
252.957
253.226
253.487
234.801
235.017
235.226
235.429
235.625
235.816
236
236.179
236.349
236.511
236.663
236.81
236.953
237.093
237.231
237.368
237.504
237.64
237.777
237.914
238.052
238.192
238.332
238.474
238.616
238.758
238.898
239.038
239.177
239.318
239.461
239.606
239.755
239.908
240.065
240.226
240.391
240.561
240.735
240.913
241.096
241.283
241.474
241.668
241.864
242.061
242.259
242.457
242.657
242.859
243.063
243.269
243.478
243.69
243.904
244.122
244.342
244.564
244.79
245.018
245.249
245.482
245.715
245.95
246.183
246.416
246.649
246.881
247.114
247.347
247.581
247.816
248.052
248.289
248.526
248.765
249.006
249.249
249.492
249.734
249.975
250.215
250.454
250.693
250.931
251.168
251.404
251.639
251.874
252.107
252.34
252.572
252.805
253.037
253.269
253.501
253.733
253.966
254.198
254.43
254.662
254.894
255.128
255.365
255.605
255.848
256.095
256.346
256.603
256.866
257.132
257.403
257.679
257.96
258.245
258.533
258.823
259.113
259.404
259.693
259.98
260.266
260.549
260.828
261.101
261.368
261.625
243.074
243.256
243.432
243.602
243.768
243.931
244.09
244.246
244.397
244.544
244.684
244.819
244.949
245.076
245.202
245.327
245.452
245.578
245.705
245.835
245.966
246.099
246.235
246.375
246.517
246.66
246.805
246.949
247.094
247.239
247.387
247.536
247.689
247.846
248.006
248.171
248.339
248.513
248.691
248.873
249.059
249.25
249.445
249.644
249.845
250.048
250.251
250.455
250.66
250.866
251.073
251.282
251.493
251.707
251.923
252.141
252.362
252.584
252.81
253.037
253.267
253.498
253.731
253.965
254.199
254.432
254.664
254.897
255.129
255.362
255.595
255.829
256.064
256.3
256.536
256.773
257.012
257.252
257.493
257.733
257.973
258.212
258.449
258.687
258.923
259.159
259.393
259.628
259.861
260.092
260.323
260.553
260.783
261.012
261.241
261.47
261.699
261.928
262.157
262.387
262.617
262.849
263.082
263.319
263.559
263.802
264.049
264.3
264.557
264.819
265.085
265.356
265.632
265.913
266.199
266.488
266.78
267.072
267.364
267.654
267.942
268.227
268.509
268.786
269.056
269.319
269.572
269.813
270.042
250.871
251.029
251.182
251.33
251.475
251.618
251.759
251.898
252.036
252.172
252.306
252.436
252.564
252.688
252.811
252.934
253.057
253.181
253.307
253.435
253.566
253.701
253.838
253.979
254.125
254.273
254.425
254.578
254.733
254.888
255.045
255.204
255.366
255.531
255.699
255.871
256.047
256.227
256.411
256.599
256.792
256.988
257.189
257.393
257.6
257.809
258.019
258.23
258.441
258.653
258.865
259.078
259.293
259.51
259.729
259.949
260.171