/*--------------------------------*- C++ -*----------------------------------*\
| =========                 |                                                 |
| \\      /  F ield         | OpenFOAM: The Open Source CFD Toolbox           |
|  \\    /   O peration     | Version:  v1706                                 |
|   \\  /    A nd           | Web:      www.OpenFOAM.com                      |
|    \\/     M anipulation  |                                                 |
\*---------------------------------------------------------------------------*/
FoamFile
{
    version     2.0;
    format      ascii;
    class       volScalarField;
    location    "1.9e-05";
    object      wallHeatFlux;
}
// * * * * * * * * * * * * * * * * * * * * * * * * * * * * * * * * * * * * * //

dimensions      [1 0 -3 0 0 0 0];


internalField   uniform 0;

boundaryField
{
    cone
    {
        type            calculated;
        value           nonuniform List<scalar> 
181
(
116702
115427
114177
112951
111750
110573
109421
108294
107191
106113
105060
104031
103026
102047
101091
100161
99256.6
98378.3
97527.2
96703.8
95908.8
95142.1
94403.1
93690.1
93000.6
92331.2
91677.5
91035.2
90399.7
89767.6
89136.5
88506.3
87879.1
87259.6
86654.7
86073.6
85526.6
85024.8
84579.3
84200.4
83896.5
83673.6
83530.8
83458
83447.1
83494.1
83585.3
83703.6
83833.2
83955.4
84050.2
84096
84078.1
83982.8
83788
83473
83023.4
82426.1
81670.4
80749.9
79664.2
78421
77037
75539.5
73965.4
72359.2
70769.8
69247.3
67841
66600.6
65571.3
64792.8
64306.1
64146.8
64345.6
64935
65939.1
67380.3
69270.1
71611.3
74395
77598
81180.3
85081.7
89220.8
93494
97778.6
101938
105828
109313
112265
114574
116154
116925
116824
115804
113829
110891
107013
102259
96743.2
90627.8
84114.5
77427.1
70788.9
64400.1
58420.5
52960.9
48083.4
43808.3
40123.7
36996.8
34382.7
32232.5
30500.6
29144.6
28126.7
27418.2
26993.4
26830.9
26916.1
27239
27793
28574.5
29581
30812.6
32270.6
33956.4
35871.1
38014.5
40384
42974.1
45774.9
48771.7
51944.2
55266.3
58706.8
62229.8
65796.6
69367.3
72902.5
76365.4
79722.9
82946.5
86012.8
88903.1
91603.1
94101
96386.4
98448.9
100277
101859
103174
104204
104929
105324
105367
105036
104309
103172
101615
99637.3
97247.7
94469.8
91340.9
87913.1
84251.4
80431.1
76533
72638
68821.8
65149.9
61674.7
58434.4
55452.8
52741.5
50302
48127.8
46207.2
44525
43064.1
)
;
    }
    inlet
    {
        type            calculated;
        value           uniform 0;
    }
    rWedge
    {
        type            wedge;
    }
    lWedge
    {
        type            wedge;
    }
    outlet
    {
        type            calculated;
        value           nonuniform 0();
    }
    procBoundary1to0
    {
        type            processor;
        value           uniform 0;
    }
    procBoundary1to2
    {
        type            processor;
        value           uniform 0;
    }
}


// ************************************************************************* //
