/*--------------------------------*- C++ -*----------------------------------*\
| =========                 |                                                 |
| \\      /  F ield         | OpenFOAM: The Open Source CFD Toolbox           |
|  \\    /   O peration     | Version:  v1706                                 |
|   \\  /    A nd           | Web:      www.OpenFOAM.com                      |
|    \\/     M anipulation  |                                                 |
\*---------------------------------------------------------------------------*/
FoamFile
{
    version     2.0;
    format      ascii;
    class       volVectorField;
    location    "3.8e-05";
    object      U;
}
// * * * * * * * * * * * * * * * * * * * * * * * * * * * * * * * * * * * * * //

dimensions      [0 1 -1 0 0 0 0];


internalField   nonuniform List<vector> 
29987
(
(978.58 -2.17576e-08 3.79754e-11)
(978.58 -8.57183e-09 1.42702e-11)
(978.58 -3.87773e-09 6.45711e-12)
(978.58 -2.1666e-09 3.6396e-12)
(978.58 -1.41559e-09 2.38777e-12)
(978.58 -1.01785e-09 1.71924e-12)
(978.58 -7.75978e-10 1.30417e-12)
(978.58 -6.15151e-10 1.02215e-12)
(978.58 -5.01179e-10 8.25841e-13)
(978.58 -4.17469e-10 6.88867e-13)
(978.58 -3.54509e-10 5.20173e-13)
(978.58 -3.06452e-10 4.59915e-13)
(978.58 -2.68836e-10 4.09761e-13)
(978.58 -2.38369e-10 3.51305e-13)
(978.58 -2.13144e-10 3.02869e-13)
(978.58 -1.93067e-10 2.64197e-13)
(978.58 -1.76385e-10 2.22157e-13)
(978.58 -1.62151e-10 1.97701e-13)
(978.58 -1.49794e-10 1.85557e-13)
(978.58 -1.38972e-10 1.71677e-13)
(978.58 -1.30056e-10 1.62573e-13)
(978.58 -1.23153e-10 1.37744e-13)
(978.58 -1.16002e-10 1.29635e-13)
(978.58 -1.09584e-10 1.13439e-13)
(978.58 -1.0424e-10 1.17166e-13)
(978.58 -9.97081e-11 1.11184e-13)
(978.58 -9.52864e-11 9.15323e-14)
(978.58 -9.16407e-11 8.29501e-14)
(978.58 -8.90383e-11 8.75485e-14)
(978.58 -8.57489e-11 8.12365e-14)
(978.58 -8.25796e-11 8.08314e-14)
(978.58 -7.97887e-11 7.3969e-14)
(978.58 -7.83965e-11 6.48865e-14)
(978.58 -7.58266e-11 5.90624e-14)
(978.58 -7.3716e-11 5.94826e-14)
(978.58 -7.26811e-11 5.5116e-14)
(978.58 -7.03697e-11 5.33098e-14)
(978.58 -6.89769e-11 4.55525e-14)
(978.58 -6.77076e-11 4.29663e-14)
(978.58 -6.64103e-11 4.23003e-14)
(978.58 -6.52135e-11 3.54637e-14)
(978.58 -6.45864e-11 3.97163e-14)
(978.58 -6.36512e-11 4.49016e-14)
(978.58 -6.28472e-11 3.75264e-14)
(978.58 -6.19625e-11 3.3591e-14)
(978.58 -6.18367e-11 3.2852e-14)
(978.58 -6.06677e-11 4.16445e-14)
(978.58 -6.05037e-11 3.00889e-14)
(978.58 -5.99972e-11 2.94845e-14)
(978.58 -5.90576e-11 3.29468e-14)
(978.58 -5.86468e-11 3.21675e-14)
(978.58 -5.86272e-11 2.88822e-14)
(978.58 -5.77203e-11 2.70858e-14)
(978.58 -5.75763e-11 2.2803e-14)
(978.58 -5.73734e-11 2.44909e-14)
(978.58 -5.65084e-11 2.04704e-14)
(978.58 -5.63156e-11 1.81194e-14)
(978.58 -5.63503e-11 2.01099e-14)
(978.58 -5.60264e-11 2.31569e-14)
(978.58 -5.52726e-11 2.61595e-14)
(978.58 -5.55694e-11 2.32644e-14)
(978.58 -5.59115e-11 1.33759e-14)
(978.58 -5.48464e-11 1.96442e-14)
(978.58 -5.49495e-11 2.05989e-14)
(978.58 -5.44311e-11 1.70495e-14)
(978.58 -5.50814e-11 1.51062e-14)
(978.58 -5.45562e-11 1.59472e-14)
(978.58 -5.42541e-11 1.81281e-14)
(978.58 -5.48311e-11 1.76504e-14)
(978.58 -5.48617e-11 1.59163e-14)
(978.58 -5.49196e-11 1.47868e-14)
(978.58 -5.52813e-11 1.54718e-14)
(978.58 -5.59566e-11 1.41097e-14)
(978.58 -5.57223e-11 1.45745e-14)
(978.58 -5.55674e-11 1.77678e-14)
(978.58 -5.62748e-11 1.68219e-14)
(978.58 -5.58806e-11 1.56288e-14)
(978.58 -5.61675e-11 1.58603e-14)
(978.58 -5.58972e-11 9.9323e-15)
(978.58 -5.6412e-11 7.20504e-15)
(978.58 -5.66782e-11 1.03765e-14)
(978.58 -5.68692e-11 1.07018e-14)
(978.58 -5.72168e-11 8.24587e-15)
(978.58 -5.7072e-11 1.1068e-14)
(978.58 -5.73413e-11 1.3055e-14)
(978.58 -5.76129e-11 1.1861e-14)
(978.58 -5.78964e-11 1.03714e-14)
(978.58 -5.7658e-11 1.085e-14)
(978.58 -5.75555e-11 1.12654e-14)
(978.58 -5.77827e-11 8.13264e-15)
(978.58 -5.84473e-11 7.33212e-15)
(978.58 -5.88057e-11 7.88262e-15)
(978.58 -5.94783e-11 1.11807e-14)
(978.58 -5.91242e-11 1.23166e-14)
(978.58 -5.93141e-11 1.28364e-14)
(978.58 -5.94224e-11 1.1245e-14)
(978.58 -5.98654e-11 8.11198e-15)
(978.58 -6.01872e-11 1.06749e-14)
(978.58 -6.06399e-11 1.00988e-14)
(978.58 -6.10691e-11 7.70855e-15)
(978.58 -6.16232e-11 7.58058e-15)
(978.58 -6.21054e-11 1.30395e-14)
(978.58 -6.23626e-11 1.18285e-14)
(978.58 -6.25046e-11 8.30315e-15)
(978.58 -6.31769e-11 8.41327e-15)
(978.58 -6.35163e-11 6.49437e-15)
(978.58 -6.4129e-11 5.253e-15)
(978.58 -6.44999e-11 5.96424e-15)
(978.58 -6.52759e-11 8.58639e-15)
(978.58 -6.56221e-11 6.49576e-15)
(978.58 -6.63718e-11 7.16585e-15)
(978.58 -6.69268e-11 7.91269e-15)
(978.58 -6.74922e-11 9.49751e-15)
(978.58 -6.83349e-11 8.13536e-15)
(978.58 -6.90596e-11 9.82108e-15)
(978.58 -6.96611e-11 7.82422e-15)
(978.58 -7.02062e-11 9.51892e-15)
(978.58 -7.06322e-11 1.18027e-14)
(978.58 -7.14194e-11 9.39678e-15)
(978.58 -7.19866e-11 5.52271e-15)
(978.58 -7.25034e-11 6.68601e-15)
(978.58 -7.32387e-11 7.92927e-15)
(978.58 -7.38808e-11 6.79208e-15)
(978.58 -7.43722e-11 8.27782e-15)
(978.58 -7.5117e-11 8.73721e-15)
(978.58 -7.54635e-11 7.93105e-15)
(978.58 -7.6052e-11 9.22601e-15)
(978.58 -7.63996e-11 8.23553e-15)
(978.58 -7.76216e-11 8.78628e-15)
(978.58 -7.87733e-11 8.23309e-15)
(978.58 -7.95714e-11 1.02865e-14)
(978.58 -8.05683e-11 1.09416e-14)
(978.58 -8.1697e-11 5.06896e-15)
(978.58 -8.26527e-11 4.18731e-15)
(978.58 -8.40112e-11 5.69372e-15)
(978.58 -8.48653e-11 5.00959e-15)
(978.58 -8.59463e-11 8.49837e-15)
(978.58 -8.66633e-11 7.78686e-15)
(978.58 -8.81376e-11 6.66166e-15)
(978.58 -8.89464e-11 7.5499e-15)
(978.58 -9.04637e-11 1.93672e-15)
(978.58 -9.10871e-11 4.40903e-15)
(978.58 -9.24818e-11 7.50385e-15)
(978.58 -9.39536e-11 6.22641e-15)
(978.58 -9.5667e-11 7.74922e-15)
(978.58 -9.73689e-11 8.37042e-15)
(978.58 -9.82335e-11 8.88219e-15)
(978.58 -9.92685e-11 7.85592e-15)
(978.58 -1.00092e-10 6.28031e-15)
(978.58 -1.02487e-10 4.26831e-15)
(978.58 -1.04439e-10 4.1211e-15)
(978.58 -1.05447e-10 4.12886e-15)
(978.58 -1.06349e-10 5.33179e-15)
(978.58 -1.0812e-10 7.07763e-15)
(978.58 -1.0988e-10 5.81748e-15)
(978.58 -1.1251e-10 7.2916e-15)
(978.58 -5.20925e-08 8.68431e-11)
(978.58 -2.79342e-08 4.30687e-11)
(978.58 -1.50595e-08 2.16716e-11)
(978.58 -8.80197e-09 1.23083e-11)
(978.58 -5.64916e-09 7.85326e-12)
(978.58 -3.93326e-09 5.48617e-12)
(978.58 -2.91776e-09 4.08095e-12)
(978.58 -2.26835e-09 3.12834e-12)
(978.58 -1.82677e-09 2.51074e-12)
(978.58 -1.51024e-09 2.03332e-12)
(978.58 -1.27362e-09 1.66269e-12)
(978.58 -1.0923e-09 1.42529e-12)
(978.58 -9.51281e-10 1.20416e-12)
(978.58 -8.39433e-10 1.0471e-12)
(978.58 -7.49156e-10 9.08438e-13)
(978.58 -6.75877e-10 8.18165e-13)
(978.58 -6.1391e-10 7.0779e-13)
(978.58 -5.61242e-10 6.4454e-13)
(978.58 -5.16683e-10 5.87349e-13)
(978.58 -4.77813e-10 5.33152e-13)
(978.58 -4.44073e-10 4.81086e-13)
(978.58 -4.17217e-10 4.16774e-13)
(978.58 -3.93465e-10 3.94689e-13)
(978.58 -3.72212e-10 3.60604e-13)
(978.58 -3.51874e-10 3.49282e-13)
(978.58 -3.3408e-10 3.31344e-13)
(978.58 -3.18672e-10 3.0686e-13)
(978.58 -3.05754e-10 2.82817e-13)
(978.58 -2.94657e-10 2.64917e-13)
(978.58 -2.83465e-10 2.43424e-13)
(978.58 -2.71836e-10 2.15129e-13)
(978.58 -2.63107e-10 2.11078e-13)
(978.58 -2.57417e-10 1.81312e-13)
(978.58 -2.50028e-10 1.71818e-13)
(978.58 -2.44486e-10 1.73461e-13)
(978.58 -2.38764e-10 1.64382e-13)
(978.58 -2.31893e-10 1.52146e-13)
(978.58 -2.2455e-10 1.5275e-13)
(978.58 -2.18975e-10 1.45301e-13)
(978.58 -2.14839e-10 1.29455e-13)
(978.58 -2.10532e-10 1.19258e-13)
(978.58 -2.06383e-10 1.22896e-13)
(978.58 -2.0331e-10 1.25121e-13)
(978.58 -1.99753e-10 1.09831e-13)
(978.58 -1.97364e-10 9.41756e-14)
(978.58 -1.9657e-10 1.04576e-13)
(978.58 -1.93518e-10 1.0005e-13)
(978.58 -1.90433e-10 9.2977e-14)
(978.58 -1.87929e-10 9.23279e-14)
(978.58 -1.86215e-10 9.91622e-14)
(978.58 -1.83631e-10 9.46642e-14)
(978.58 -1.82903e-10 8.1766e-14)
(978.58 -1.82235e-10 7.6976e-14)
(978.58 -1.81725e-10 6.5694e-14)
(978.58 -1.79494e-10 6.76095e-14)
(978.58 -1.77589e-10 6.49938e-14)
(978.58 -1.76266e-10 6.50243e-14)
(978.58 -1.76704e-10 6.39756e-14)
(978.58 -1.75195e-10 7.25509e-14)
(978.58 -1.72712e-10 6.95448e-14)
(978.58 -1.72448e-10 5.99202e-14)
(978.58 -1.73269e-10 5.58312e-14)
(978.58 -1.72186e-10 6.35386e-14)
(978.58 -1.72423e-10 5.53638e-14)
(978.58 -1.72322e-10 5.41276e-14)
(978.58 -1.71483e-10 5.3313e-14)
(978.58 -1.69987e-10 4.83778e-14)
(978.58 -1.67946e-10 5.09461e-14)
(978.58 -1.68794e-10 4.89774e-14)
(978.58 -1.68972e-10 4.61886e-14)
(978.58 -1.68105e-10 4.90912e-14)
(978.58 -1.68707e-10 4.8989e-14)
(978.58 -1.69114e-10 4.44503e-14)
(978.58 -1.70312e-10 4.50191e-14)
(978.58 -1.68433e-10 4.85108e-14)
(978.58 -1.69717e-10 4.96654e-14)
(978.58 -1.71046e-10 4.49853e-14)
(978.58 -1.71454e-10 4.15833e-14)
(978.58 -1.69653e-10 3.42773e-14)
(978.58 -1.7011e-10 3.43439e-14)
(978.58 -1.7124e-10 3.75289e-14)
(978.58 -1.71735e-10 3.49931e-14)
(978.58 -1.72504e-10 3.24957e-14)
(978.58 -1.72578e-10 3.67338e-14)
(978.58 -1.7308e-10 3.92885e-14)
(978.58 -1.74208e-10 3.72088e-14)
(978.58 -1.74801e-10 3.29654e-14)
(978.58 -1.75489e-10 3.57497e-14)
(978.58 -1.76518e-10 3.33304e-14)
(978.58 -1.7625e-10 3.12359e-14)
(978.58 -1.75777e-10 3.2567e-14)
(978.58 -1.77119e-10 3.03759e-14)
(978.58 -1.78445e-10 3.68352e-14)
(978.58 -1.78762e-10 3.72905e-14)
(978.58 -1.79707e-10 3.88469e-14)
(978.58 -1.80824e-10 2.95583e-14)
(978.58 -1.81348e-10 2.39451e-14)
(978.58 -1.82061e-10 2.52875e-14)
(978.58 -1.82914e-10 2.54965e-14)
(978.58 -1.83559e-10 2.5374e-14)
(978.58 -1.84761e-10 2.52571e-14)
(978.58 -1.86007e-10 2.70247e-14)
(978.58 -1.8712e-10 2.77641e-14)
(978.58 -1.88404e-10 2.20256e-14)
(978.58 -1.89569e-10 2.33978e-14)
(978.58 -1.91021e-10 2.19719e-14)
(978.58 -1.92538e-10 2.1911e-14)
(978.58 -1.9366e-10 2.04002e-14)
(978.58 -1.95743e-10 1.8477e-14)
(978.58 -1.96792e-10 2.07728e-14)
(978.58 -1.9801e-10 2.25633e-14)
(978.58 -2.0017e-10 2.24683e-14)
(978.58 -2.0126e-10 2.29681e-14)
(978.58 -2.02695e-10 2.37075e-14)
(978.58 -2.04538e-10 2.58168e-14)
(978.58 -2.06603e-10 2.52305e-14)
(978.58 -2.08069e-10 2.65092e-14)
(978.58 -2.0958e-10 2.56558e-14)
(978.58 -2.11653e-10 2.13316e-14)
(978.58 -2.13595e-10 1.78426e-14)
(978.58 -2.15731e-10 1.98434e-14)
(978.58 -2.17611e-10 2.07845e-14)
(978.58 -2.19447e-10 2.14447e-14)
(978.58 -2.21316e-10 2.17847e-14)
(978.58 -2.23566e-10 2.20061e-14)
(978.58 -2.2534e-10 2.04638e-14)
(978.58 -2.28192e-10 2.00292e-14)
(978.58 -2.29313e-10 1.95971e-14)
(978.58 -2.32474e-10 2.11189e-14)
(978.58 -2.33663e-10 2.33723e-14)
(978.58 -2.36536e-10 2.29928e-14)
(978.58 -2.39151e-10 1.79682e-14)
(978.58 -2.41135e-10 1.79024e-14)
(978.58 -2.44769e-10 2.02565e-14)
(978.58 -2.46786e-10 1.94888e-14)
(978.58 -2.50807e-10 2.05875e-14)
(978.58 -2.54303e-10 2.01304e-14)
(978.58 -2.56186e-10 1.80302e-14)
(978.58 -2.59025e-10 2.13849e-14)
(978.58 -2.62272e-10 2.11731e-14)
(978.58 -2.6559e-10 1.79669e-14)
(978.58 -2.69805e-10 2.0084e-14)
(978.58 -2.72898e-10 1.80503e-14)
(978.58 -2.75444e-10 1.81622e-14)
(978.58 -2.78506e-10 1.72152e-14)
(978.58 -2.83142e-10 2.02082e-14)
(978.58 -2.86995e-10 1.92951e-14)
(978.58 -2.91476e-10 2.02414e-14)
(978.58 -2.95138e-10 2.03998e-14)
(978.58 -2.9836e-10 1.68808e-14)
(978.58 -3.01942e-10 1.56825e-14)
(978.58 -3.07202e-10 1.28597e-14)
(978.58 -3.12299e-10 1.73385e-14)
(978.58 -3.16855e-10 1.6976e-14)
(978.58 -3.21429e-10 1.67748e-14)
(978.58 -3.25635e-10 1.91544e-14)
(978.58 -7.11548e-08 1.17575e-10)
(978.58 -4.52409e-08 6.78167e-11)
(978.58 -2.73614e-08 3.74411e-11)
(978.58 -1.69436e-08 2.17593e-11)
(978.58 -1.10808e-08 1.37236e-11)
(978.58 -7.69581e-09 9.37059e-12)
(978.58 -5.64643e-09 6.92775e-12)
(978.58 -4.33997e-09 5.30524e-12)
(978.58 -3.46125e-09 4.22219e-12)
(978.58 -2.83845e-09 3.41705e-12)
(978.58 -2.38045e-09 2.84059e-12)
(978.58 -2.03381e-09 2.42013e-12)
(978.58 -1.7643e-09 2.06587e-12)
(978.58 -1.55127e-09 1.77864e-12)
(978.58 -1.37987e-09 1.57432e-12)
(978.58 -1.23998e-09 1.36723e-12)
(978.58 -1.12413e-09 1.19117e-12)
(978.58 -1.02541e-09 1.07473e-12)
(978.58 -9.41207e-10 9.54006e-13)
(978.58 -8.69152e-10 8.87002e-13)
(978.58 -8.06821e-10 7.91911e-13)
(978.58 -7.54669e-10 7.12768e-13)
(978.58 -7.08796e-10 6.73833e-13)
(978.58 -6.67772e-10 6.17338e-13)
(978.58 -6.31526e-10 5.89292e-13)
(978.58 -5.989e-10 5.45347e-13)
(978.58 -5.70973e-10 5.12465e-13)
(978.58 -5.45704e-10 4.71555e-13)
(978.58 -5.23483e-10 4.33468e-13)
(978.58 -5.02267e-10 4.03655e-13)
(978.58 -4.82231e-10 3.75645e-13)
(978.58 -4.65406e-10 3.59276e-13)
(978.58 -4.52669e-10 3.32873e-13)
(978.58 -4.40504e-10 3.23927e-13)
(978.58 -4.30898e-10 3.0482e-13)
(978.58 -4.18719e-10 2.70998e-13)
(978.58 -4.06917e-10 2.59697e-13)
(978.58 -3.94353e-10 2.52638e-13)
(978.58 -3.84435e-10 2.49819e-13)
(978.58 -3.75081e-10 2.28757e-13)
(978.58 -3.66644e-10 2.21456e-13)
(978.58 -3.59126e-10 2.12671e-13)
(978.58 -3.53012e-10 2.06504e-13)
(978.58 -3.47623e-10 1.89567e-13)
(978.58 -3.4307e-10 1.80023e-13)
(978.58 -3.3978e-10 1.77011e-13)
(978.58 -3.34855e-10 1.71363e-13)
(978.58 -3.28985e-10 1.70236e-13)
(978.58 -3.24716e-10 1.68602e-13)
(978.58 -3.21511e-10 1.69584e-13)
(978.58 -3.16664e-10 1.53747e-13)
(978.58 -3.13827e-10 1.43011e-13)
(978.58 -3.12685e-10 1.3331e-13)
(978.58 -3.10295e-10 1.29149e-13)
(978.58 -3.08109e-10 1.21171e-13)
(978.58 -3.04356e-10 1.20472e-13)
(978.58 -3.0156e-10 1.14136e-13)
(978.58 -3.00903e-10 1.1254e-13)
(978.58 -2.98923e-10 1.20278e-13)
(978.58 -2.96044e-10 1.16234e-13)
(978.58 -2.94443e-10 1.10353e-13)
(978.58 -2.9395e-10 1.1104e-13)
(978.58 -2.92499e-10 1.00024e-13)
(978.58 -2.9226e-10 8.92945e-14)
(978.58 -2.9299e-10 9.75427e-14)
(978.58 -2.90596e-10 9.20462e-14)
(978.58 -2.88892e-10 8.57801e-14)
(978.58 -2.86683e-10 9.00187e-14)
(978.58 -2.85557e-10 8.02272e-14)
(978.58 -2.85085e-10 7.64323e-14)
(978.58 -2.8457e-10 7.63624e-14)
(978.58 -2.84774e-10 7.64241e-14)
(978.58 -2.85927e-10 7.43063e-14)
(978.58 -2.85708e-10 7.62958e-14)
(978.58 -2.8412e-10 7.84613e-14)
(978.58 -2.85246e-10 7.47912e-14)
(978.58 -2.86725e-10 6.89932e-14)
(978.58 -2.88651e-10 6.96961e-14)
(978.58 -2.86437e-10 6.99264e-14)
(978.58 -2.8575e-10 6.82273e-14)
(978.58 -2.87996e-10 6.36492e-14)
(978.58 -2.89002e-10 6.13101e-14)
(978.58 -2.88425e-10 5.93701e-14)
(978.58 -2.88831e-10 5.87101e-14)
(978.58 -2.90604e-10 5.67073e-14)
(978.58 -2.91193e-10 5.67343e-14)
(978.58 -2.92322e-10 6.15002e-14)
(978.58 -2.93038e-10 6.14581e-14)
(978.58 -2.93569e-10 5.80256e-14)
(978.58 -2.94509e-10 5.58325e-14)
(978.58 -2.95335e-10 5.31268e-14)
(978.58 -2.97803e-10 5.5211e-14)
(978.58 -2.99493e-10 6.26579e-14)
(978.58 -3.00362e-10 6.56579e-14)
(978.58 -3.00815e-10 5.93563e-14)
(978.58 -3.022e-10 4.69457e-14)
(978.58 -3.0401e-10 4.53489e-14)
(978.58 -3.04278e-10 4.83038e-14)
(978.58 -3.04734e-10 4.83527e-14)
(978.58 -3.06053e-10 4.70845e-14)
(978.58 -3.08799e-10 4.29463e-14)
(978.58 -3.10356e-10 4.66713e-14)
(978.58 -3.11973e-10 4.40753e-14)
(978.58 -3.13309e-10 4.39871e-14)
(978.58 -3.1479e-10 4.75265e-14)
(978.58 -3.17528e-10 4.37677e-14)
(978.58 -3.19099e-10 4.02718e-14)
(978.58 -3.2059e-10 3.83964e-14)
(978.58 -3.23251e-10 4.01154e-14)
(978.58 -3.26149e-10 3.88072e-14)
(978.58 -3.28558e-10 3.50937e-14)
(978.58 -3.31269e-10 3.497e-14)
(978.58 -3.33028e-10 3.68265e-14)
(978.58 -3.35166e-10 3.86439e-14)
(978.58 -3.3817e-10 4.02798e-14)
(978.58 -3.41382e-10 4.54464e-14)
(978.58 -3.44059e-10 4.59544e-14)
(978.58 -3.46645e-10 4.29688e-14)
(978.58 -3.4972e-10 3.7153e-14)
(978.58 -3.52215e-10 3.66493e-14)
(978.58 -3.55903e-10 3.77588e-14)
(978.58 -3.58929e-10 3.73897e-14)
(978.58 -3.62146e-10 3.54407e-14)
(978.58 -3.6558e-10 3.43125e-14)
(978.58 -3.68582e-10 3.59238e-14)
(978.58 -3.72916e-10 3.68134e-14)
(978.58 -3.75968e-10 3.55457e-14)
(978.58 -3.78455e-10 3.69819e-14)
(978.58 -3.81367e-10 4.08422e-14)
(978.58 -3.8482e-10 3.85517e-14)
(978.58 -3.88726e-10 3.27405e-14)
(978.58 -3.9262e-10 3.69291e-14)
(978.58 -3.96247e-10 3.89075e-14)
(978.58 -4.00506e-10 3.365e-14)
(978.58 -4.03864e-10 3.68844e-14)
(978.58 -4.09495e-10 2.8957e-14)
(978.58 -4.13843e-10 2.98838e-14)
(978.58 -4.19049e-10 3.72057e-14)
(978.58 -4.23284e-10 3.94439e-14)
(978.58 -4.28239e-10 3.2825e-14)
(978.58 -4.33147e-10 2.84303e-14)
(978.58 -4.38755e-10 2.92134e-14)
(978.58 -4.44653e-10 3.13369e-14)
(978.58 -4.4976e-10 3.039e-14)
(978.58 -4.54788e-10 3.20943e-14)
(978.58 -4.60703e-10 2.91666e-14)
(978.58 -4.67504e-10 3.15285e-14)
(978.58 -4.73422e-10 3.32816e-14)
(978.58 -4.7998e-10 3.38315e-14)
(978.58 -4.86884e-10 3.03031e-14)
(978.58 -4.93295e-10 2.98052e-14)
(978.58 -4.9995e-10 2.96363e-14)
(978.58 -5.05984e-10 2.98996e-14)
(978.58 -5.13939e-10 2.83006e-14)
(978.58 -5.21057e-10 3.31168e-14)
(978.58 -5.28197e-10 3.23067e-14)
(978.58 -8.35637e-08 1.3775e-10)
(978.58 -5.95618e-08 8.79279e-11)
(978.58 -3.95023e-08 5.23744e-11)
(978.58 -2.59414e-08 3.15191e-11)
(978.58 -1.74906e-08 2.00663e-11)
(978.58 -1.22789e-08 1.36738e-11)
(978.58 -8.99989e-09 9.93395e-12)
(978.58 -6.87133e-09 7.58417e-12)
(978.58 -5.43505e-09 6.00607e-12)
(978.58 -4.4275e-09 4.89503e-12)
(978.58 -3.69315e-09 4.03331e-12)
(978.58 -3.14057e-09 3.41217e-12)
(978.58 -2.71455e-09 2.91236e-12)
(978.58 -2.37877e-09 2.53485e-12)
(978.58 -2.10923e-09 2.24425e-12)
(978.58 -1.88959e-09 1.94469e-12)
(978.58 -1.70869e-09 1.71114e-12)
(978.58 -1.55534e-09 1.52497e-12)
(978.58 -1.42344e-09 1.36309e-12)
(978.58 -1.31212e-09 1.25384e-12)
(978.58 -1.21775e-09 1.12718e-12)
(978.58 -1.13466e-09 1.05224e-12)
(978.58 -1.063e-09 9.56592e-13)
(978.58 -9.9962e-10 8.88638e-13)
(978.58 -9.44646e-10 8.1107e-13)
(978.58 -8.95418e-10 7.58083e-13)
(978.58 -8.51085e-10 7.01607e-13)
(978.58 -8.11096e-10 6.58918e-13)
(978.58 -7.76197e-10 6.28581e-13)
(978.58 -7.43686e-10 5.79378e-13)
(978.58 -7.14115e-10 5.45554e-13)
(978.58 -6.88305e-10 5.10454e-13)
(978.58 -6.67843e-10 4.90631e-13)
(978.58 -6.48036e-10 4.54808e-13)
(978.58 -6.29734e-10 4.27146e-13)
(978.58 -6.12777e-10 4.0185e-13)
(978.58 -5.96176e-10 3.81705e-13)
(978.58 -5.78203e-10 3.55999e-13)
(978.58 -5.62594e-10 3.42289e-13)
(978.58 -5.48465e-10 3.19278e-13)
(978.58 -5.35128e-10 3.11983e-13)
(978.58 -5.23226e-10 2.95122e-13)
(978.58 -5.13296e-10 2.85052e-13)
(978.58 -5.03824e-10 2.70745e-13)
(978.58 -4.96749e-10 2.71001e-13)
(978.58 -4.90642e-10 2.51561e-13)
(978.58 -4.84302e-10 2.43667e-13)
(978.58 -4.75686e-10 2.36545e-13)
(978.58 -4.69194e-10 2.30986e-13)
(978.58 -4.63421e-10 2.14732e-13)
(978.58 -4.5783e-10 2.04175e-13)
(978.58 -4.5257e-10 2.00499e-13)
(978.58 -4.48694e-10 1.90335e-13)
(978.58 -4.45125e-10 1.82479e-13)
(978.58 -4.42443e-10 1.74908e-13)
(978.58 -4.37539e-10 1.75993e-13)
(978.58 -4.32897e-10 1.67802e-13)
(978.58 -4.29773e-10 1.64845e-13)
(978.58 -4.27164e-10 1.68148e-13)
(978.58 -4.24398e-10 1.61111e-13)
(978.58 -4.21477e-10 1.50667e-13)
(978.58 -4.19542e-10 1.39681e-13)
(978.58 -4.18011e-10 1.35601e-13)
(978.58 -4.16794e-10 1.42729e-13)
(978.58 -4.16294e-10 1.44779e-13)
(978.58 -4.14145e-10 1.35641e-13)
(978.58 -4.11542e-10 1.30401e-13)
(978.58 -4.09216e-10 1.25706e-13)
(978.58 -4.06688e-10 1.15164e-13)
(978.58 -4.05463e-10 1.14105e-13)
(978.58 -4.03286e-10 1.14825e-13)
(978.58 -4.01793e-10 1.15136e-13)
(978.58 -4.0332e-10 1.11919e-13)
(978.58 -4.04475e-10 1.11077e-13)
(978.58 -4.03265e-10 1.07265e-13)
(978.58 -4.02806e-10 1.03526e-13)
(978.58 -4.04045e-10 1.0637e-13)
(978.58 -4.06205e-10 1.06864e-13)
(978.58 -4.04428e-10 9.77722e-14)
(978.58 -4.0331e-10 9.12015e-14)
(978.58 -4.05203e-10 8.98267e-14)
(978.58 -4.07475e-10 9.53452e-14)
(978.58 -4.07286e-10 9.14775e-14)
(978.58 -4.06934e-10 9.19357e-14)
(978.58 -4.08107e-10 8.90622e-14)
(978.58 -4.08454e-10 8.85837e-14)
(978.58 -4.10124e-10 8.41425e-14)
(978.58 -4.10343e-10 7.9581e-14)
(978.58 -4.11277e-10 8.02269e-14)
(978.58 -4.12965e-10 8.25476e-14)
(978.58 -4.13389e-10 8.13436e-14)
(978.58 -4.1534e-10 8.27752e-14)
(978.58 -4.17905e-10 8.48139e-14)
(978.58 -4.19114e-10 8.44869e-14)
(978.58 -4.21108e-10 7.36666e-14)
(978.58 -4.2365e-10 7.38059e-14)
(978.58 -4.25444e-10 7.39589e-14)
(978.58 -4.26981e-10 6.88123e-14)
(978.58 -4.28987e-10 6.76449e-14)
(978.58 -4.29816e-10 6.39714e-14)
(978.58 -4.3105e-10 6.01376e-14)
(978.58 -4.3256e-10 6.15876e-14)
(978.58 -4.35442e-10 6.30072e-14)
(978.58 -4.37419e-10 6.50741e-14)
(978.58 -4.3987e-10 6.39522e-14)
(978.58 -4.43939e-10 6.19877e-14)
(978.58 -4.45901e-10 6.0182e-14)
(978.58 -4.47382e-10 5.9571e-14)
(978.58 -4.4937e-10 5.62529e-14)
(978.58 -4.52604e-10 5.2078e-14)
(978.58 -4.5668e-10 5.37845e-14)
(978.58 -4.60008e-10 5.44182e-14)
(978.58 -4.6272e-10 5.79829e-14)
(978.58 -4.65249e-10 5.75087e-14)
(978.58 -4.68868e-10 5.96108e-14)
(978.58 -4.73635e-10 5.8106e-14)
(978.58 -4.77303e-10 5.62863e-14)
(978.58 -4.81304e-10 5.10387e-14)
(978.58 -4.85548e-10 5.00675e-14)
(978.58 -4.89061e-10 5.32522e-14)
(978.58 -4.9331e-10 5.32321e-14)
(978.58 -4.96904e-10 5.01326e-14)
(978.58 -5.00554e-10 4.91824e-14)
(978.58 -5.06064e-10 5.25575e-14)
(978.58 -5.10131e-10 5.29626e-14)
(978.58 -5.15985e-10 5.22769e-14)
(978.58 -5.20461e-10 5.49081e-14)
(978.58 -5.24071e-10 5.50492e-14)
(978.58 -5.29549e-10 4.97645e-14)
(978.58 -5.32941e-10 4.88791e-14)
(978.58 -5.37793e-10 4.83511e-14)
(978.58 -5.42721e-10 5.04423e-14)
(978.58 -5.48406e-10 4.85566e-14)
(978.58 -5.54335e-10 4.79153e-14)
(978.58 -5.58978e-10 4.94503e-14)
(978.58 -5.65264e-10 4.86223e-14)
(978.58 -5.70986e-10 5.4483e-14)
(978.58 -5.7736e-10 5.16753e-14)
(978.58 -5.83168e-10 4.95878e-14)
(978.58 -5.89735e-10 4.606e-14)
(978.58 -5.96829e-10 4.63748e-14)
(978.58 -6.03503e-10 4.57238e-14)
(978.58 -6.10012e-10 4.44662e-14)
(978.58 -6.1719e-10 4.64351e-14)
(978.58 -6.24195e-10 4.76194e-14)
(978.58 -6.31517e-10 4.83785e-14)
(978.58 -6.40256e-10 4.74877e-14)
(978.58 -6.47664e-10 4.54378e-14)
(978.58 -6.55167e-10 4.3071e-14)
(978.58 -6.64588e-10 4.32172e-14)
(978.58 -6.7278e-10 4.30176e-14)
(978.58 -6.81859e-10 4.59074e-14)
(978.58 -6.91081e-10 4.34922e-14)
(978.58 -7.00622e-10 4.06933e-14)
(978.58 -7.10613e-10 4.35897e-14)
(978.58 -7.20797e-10 4.41788e-14)
(978.58 -9.21856e-08 1.51942e-10)
(978.58 -7.11008e-08 1.04408e-10)
(978.58 -5.07637e-08 6.60244e-11)
(978.58 -3.52084e-08 4.13106e-11)
(978.58 -2.45727e-08 2.67875e-11)
(978.58 -1.75669e-08 1.83076e-11)
(978.58 -1.29577e-08 1.32045e-11)
(978.58 -9.88052e-09 1.0007e-11)
(978.58 -7.77717e-09 7.89892e-12)
(978.58 -6.29982e-09 6.42055e-12)
(978.58 -5.22807e-09 5.31823e-12)
(978.58 -4.42481e-09 4.45592e-12)
(978.58 -3.8078e-09 3.78462e-12)
(978.58 -3.32593e-09 3.28306e-12)
(978.58 -2.94126e-09 2.86398e-12)
(978.58 -2.62791e-09 2.51801e-12)
(978.58 -2.36924e-09 2.23019e-12)
(978.58 -2.15216e-09 2.00553e-12)
(978.58 -1.96688e-09 1.81926e-12)
(978.58 -1.80904e-09 1.62755e-12)
(978.58 -1.67512e-09 1.48542e-12)
(978.58 -1.55744e-09 1.36957e-12)
(978.58 -1.4559e-09 1.24083e-12)
(978.58 -1.36876e-09 1.1421e-12)
(978.58 -1.29157e-09 1.05219e-12)
(978.58 -1.22099e-09 1.00129e-12)
(978.58 -1.15847e-09 9.25935e-13)
(978.58 -1.10334e-09 8.79385e-13)
(978.58 -1.05293e-09 8.21673e-13)
(978.58 -1.00767e-09 7.58986e-13)
(978.58 -9.67405e-10 7.06618e-13)
(978.58 -9.3188e-10 6.63915e-13)
(978.58 -9.01084e-10 6.14906e-13)
(978.58 -8.72973e-10 5.7984e-13)
(978.58 -8.46329e-10 5.52798e-13)
(978.58 -8.22126e-10 5.19293e-13)
(978.58 -7.98505e-10 4.95718e-13)
(978.58 -7.75237e-10 4.69697e-13)
(978.58 -7.53542e-10 4.35895e-13)
(978.58 -7.34297e-10 4.22494e-13)
(978.58 -7.1619e-10 4.11511e-13)
(978.58 -6.98295e-10 3.93062e-13)
(978.58 -6.84849e-10 3.74889e-13)
(978.58 -6.70731e-10 3.6364e-13)
(978.58 -6.59248e-10 3.48048e-13)
(978.58 -6.49854e-10 3.4016e-13)
(978.58 -6.41362e-10 3.19513e-13)
(978.58 -6.306e-10 3.07246e-13)
(978.58 -6.2071e-10 2.91817e-13)
(978.58 -6.12762e-10 2.70807e-13)
(978.58 -6.05909e-10 2.7031e-13)
(978.58 -5.9805e-10 2.60583e-13)
(978.58 -5.91694e-10 2.51632e-13)
(978.58 -5.86396e-10 2.43832e-13)
(978.58 -5.81232e-10 2.39724e-13)
(978.58 -5.76089e-10 2.28474e-13)
(978.58 -5.69195e-10 2.14718e-13)
(978.58 -5.64181e-10 2.13073e-13)
(978.58 -5.59447e-10 2.08385e-13)
(978.58 -5.56467e-10 1.9452e-13)
(978.58 -5.53839e-10 1.8845e-13)
(978.58 -5.49836e-10 1.84317e-13)
(978.58 -5.4663e-10 1.84391e-13)
(978.58 -5.44865e-10 1.86338e-13)
(978.58 -5.43075e-10 1.75536e-13)
(978.58 -5.40533e-10 1.768e-13)
(978.58 -5.3767e-10 1.69953e-13)
(978.58 -5.35074e-10 1.56794e-13)
(978.58 -5.31995e-10 1.63074e-13)
(978.58 -5.29461e-10 1.59783e-13)
(978.58 -5.27119e-10 1.52495e-13)
(978.58 -5.24949e-10 1.50115e-13)
(978.58 -5.23966e-10 1.44693e-13)
(978.58 -5.24161e-10 1.3857e-13)
(978.58 -5.23825e-10 1.404e-13)
(978.58 -5.24107e-10 1.37895e-13)
(978.58 -5.23231e-10 1.36033e-13)
(978.58 -5.23864e-10 1.27189e-13)
(978.58 -5.23084e-10 1.22983e-13)
(978.58 -5.23202e-10 1.2469e-13)
(978.58 -5.2307e-10 1.28683e-13)
(978.58 -5.26467e-10 1.18482e-13)
(978.58 -5.26535e-10 1.15512e-13)
(978.58 -5.26404e-10 1.14774e-13)
(978.58 -5.28284e-10 1.13458e-13)
(978.58 -5.28655e-10 1.08573e-13)
(978.58 -5.29313e-10 1.07594e-13)
(978.58 -5.29818e-10 1.10102e-13)
(978.58 -5.3046e-10 1.12003e-13)
(978.58 -5.31658e-10 1.07826e-13)
(978.58 -5.33826e-10 1.02582e-13)
(978.58 -5.34265e-10 1.02768e-13)
(978.58 -5.36788e-10 1.01263e-13)
(978.58 -5.38424e-10 9.72668e-14)
(978.58 -5.41658e-10 9.52029e-14)
(978.58 -5.43197e-10 9.58178e-14)
(978.58 -5.45939e-10 8.89981e-14)
(978.58 -5.48192e-10 9.03725e-14)
(978.58 -5.52213e-10 9.06464e-14)
(978.58 -5.54109e-10 8.62223e-14)
(978.58 -5.55541e-10 8.37599e-14)
(978.58 -5.56763e-10 8.68977e-14)
(978.58 -5.58997e-10 8.60904e-14)
(978.58 -5.61859e-10 7.81231e-14)
(978.58 -5.64712e-10 7.91579e-14)
(978.58 -5.68735e-10 8.07969e-14)
(978.58 -5.73235e-10 7.99256e-14)
(978.58 -5.76377e-10 7.85886e-14)
(978.58 -5.78156e-10 7.72052e-14)
(978.58 -5.80357e-10 7.93881e-14)
(978.58 -5.84105e-10 7.8216e-14)
(978.58 -5.88304e-10 7.69125e-14)
(978.58 -5.91421e-10 7.46942e-14)
(978.58 -5.94913e-10 6.75804e-14)
(978.58 -5.98794e-10 6.98431e-14)
(978.58 -6.04055e-10 7.26469e-14)
(978.58 -6.08675e-10 7.37827e-14)
(978.58 -6.13644e-10 7.17061e-14)
(978.58 -6.19096e-10 7.34718e-14)
(978.58 -6.24412e-10 7.20852e-14)
(978.58 -6.29278e-10 6.5564e-14)
(978.58 -6.34115e-10 6.48834e-14)
(978.58 -6.38748e-10 7.09723e-14)
(978.58 -6.43868e-10 6.90519e-14)
(978.58 -6.49287e-10 6.63779e-14)
(978.58 -6.56448e-10 7.11346e-14)
(978.58 -6.61059e-10 6.93033e-14)
(978.58 -6.65926e-10 6.40508e-14)
(978.58 -6.71238e-10 6.30506e-14)
(978.58 -6.78562e-10 6.22847e-14)
(978.58 -6.83002e-10 6.319e-14)
(978.58 -6.89243e-10 6.7545e-14)
(978.58 -6.96416e-10 6.3968e-14)
(978.58 -7.03112e-10 6.5712e-14)
(978.58 -7.10122e-10 6.54084e-14)
(978.58 -7.17641e-10 6.49548e-14)
(978.58 -7.24129e-10 6.46657e-14)
(978.58 -7.32195e-10 6.04636e-14)
(978.58 -7.39578e-10 5.99994e-14)
(978.58 -7.46574e-10 5.82762e-14)
(978.58 -7.55367e-10 6.14319e-14)
(978.58 -7.63857e-10 5.99937e-14)
(978.58 -7.72294e-10 6.15585e-14)
(978.58 -7.80619e-10 6.19794e-14)
(978.58 -7.88997e-10 6.07154e-14)
(978.58 -7.9705e-10 6.00836e-14)
(978.58 -8.0634e-10 5.75441e-14)
(978.58 -8.15274e-10 5.41931e-14)
(978.58 -8.24942e-10 5.65369e-14)
(978.58 -8.36293e-10 5.63152e-14)
(978.58 -8.45885e-10 5.63212e-14)
(978.58 -8.56331e-10 5.89145e-14)
(978.58 -8.67421e-10 5.1682e-14)
(978.58 -8.78642e-10 5.43122e-14)
(978.58 -8.90166e-10 5.8487e-14)
(978.58 -9.03319e-10 5.59543e-14)
(978.58 -9.85246e-08 1.62732e-10)
(978.58 -8.03729e-08 1.17686e-10)
(978.58 -6.08474e-08 7.81618e-11)
(978.58 -4.42999e-08 5.0901e-11)
(978.58 -3.20122e-08 3.36798e-11)
(978.58 -2.33953e-08 2.31514e-11)
(978.58 -1.74551e-08 1.67348e-11)
(978.58 -1.33572e-08 1.25834e-11)
(978.58 -1.05002e-08 9.82542e-12)
(978.58 -8.47342e-09 7.91651e-12)
(978.58 -6.99976e-09 6.55686e-12)
(978.58 -5.89863e-09 5.50665e-12)
(978.58 -5.05616e-09 4.70855e-12)
(978.58 -4.40046e-09 4.07704e-12)
(978.58 -3.87948e-09 3.51619e-12)
(978.58 -3.4569e-09 3.09657e-12)
(978.58 -3.10887e-09 2.76679e-12)
(978.58 -2.81814e-09 2.46364e-12)
(978.58 -2.57129e-09 2.22765e-12)
(978.58 -2.36113e-09 2.00024e-12)
(978.58 -2.181e-09 1.82048e-12)
(978.58 -2.02509e-09 1.66331e-12)
(978.58 -1.89018e-09 1.5265e-12)
(978.58 -1.77237e-09 1.38872e-12)
(978.58 -1.66943e-09 1.30458e-12)
(978.58 -1.57841e-09 1.21914e-12)
(978.58 -1.49504e-09 1.13976e-12)
(978.58 -1.4206e-09 1.06623e-12)
(978.58 -1.35366e-09 9.77264e-13)
(978.58 -1.29447e-09 9.02758e-13)
(978.58 -1.24182e-09 8.62117e-13)
(978.58 -1.19469e-09 8.04559e-13)
(978.58 -1.15281e-09 7.55816e-13)
(978.58 -1.11396e-09 7.2042e-13)
(978.58 -1.07875e-09 6.75109e-13)
(978.58 -1.04586e-09 6.26849e-13)
(978.58 -1.01521e-09 6.17785e-13)
(978.58 -9.84903e-10 5.80132e-13)
(978.58 -9.58302e-10 5.51903e-13)
(978.58 -9.33805e-10 5.32345e-13)
(978.58 -9.09402e-10 4.93909e-13)
(978.58 -8.86205e-10 4.71918e-13)
(978.58 -8.66469e-10 4.56344e-13)
(978.58 -8.47996e-10 4.41973e-13)
(978.58 -8.32428e-10 4.24103e-13)
(978.58 -8.18943e-10 4.09253e-13)
(978.58 -8.07088e-10 3.86172e-13)
(978.58 -7.92969e-10 3.75624e-13)
(978.58 -7.80475e-10 3.60808e-13)
(978.58 -7.68695e-10 3.39898e-13)
(978.58 -7.60399e-10 3.28664e-13)
(978.58 -7.49839e-10 3.17876e-13)
(978.58 -7.39714e-10 3.05047e-13)
(978.58 -7.33585e-10 2.95566e-13)
(978.58 -7.26295e-10 2.83005e-13)
(978.58 -7.19429e-10 2.72789e-13)
(978.58 -7.11752e-10 2.68638e-13)
(978.58 -7.04616e-10 2.66491e-13)
(978.58 -6.97919e-10 2.50747e-13)
(978.58 -6.92616e-10 2.43053e-13)
(978.58 -6.89511e-10 2.39406e-13)
(978.58 -6.84344e-10 2.33452e-13)
(978.58 -6.79946e-10 2.29764e-13)
(978.58 -6.76132e-10 2.20644e-13)
(978.58 -6.73278e-10 2.20165e-13)
(978.58 -6.70076e-10 2.16991e-13)
(978.58 -6.66815e-10 2.03119e-13)
(978.58 -6.63448e-10 1.97601e-13)
(978.58 -6.59802e-10 2.01142e-13)
(978.58 -6.56432e-10 1.92602e-13)
(978.58 -6.54068e-10 1.85694e-13)
(978.58 -6.50888e-10 1.819e-13)
(978.58 -6.49214e-10 1.77559e-13)
(978.58 -6.48115e-10 1.70316e-13)
(978.58 -6.46746e-10 1.70971e-13)
(978.58 -6.46193e-10 1.63969e-13)
(978.58 -6.46008e-10 1.59394e-13)
(978.58 -6.46139e-10 1.5863e-13)
(978.58 -6.4514e-10 1.67258e-13)
(978.58 -6.45909e-10 1.58177e-13)
(978.58 -6.44497e-10 1.5262e-13)
(978.58 -6.46695e-10 1.46831e-13)