/*--------------------------------*- C++ -*----------------------------------*\
| =========                 |                                                 |
| \\      /  F ield         | OpenFOAM: The Open Source CFD Toolbox           |
|  \\    /   O peration     | Version:  v1706                                 |
|   \\  /    A nd           | Web:      www.OpenFOAM.com                      |
|    \\/     M anipulation  |                                                 |
\*---------------------------------------------------------------------------*/
FoamFile
{
    version     2.0;
    format      ascii;
    class       volScalarField;
    location    "1.3e-05";
    object      kappatr;
}
// * * * * * * * * * * * * * * * * * * * * * * * * * * * * * * * * * * * * * //

dimensions      [1 1 -3 -1 0 0 0];


internalField   nonuniform List<scalar> 
30104
(
0.0145997
0.0145997
0.0145998
0.0145998
0.0145999
0.0145999
0.0145999
0.0145998
0.0145998
0.0145998
0.0145997
0.0145997
0.0145996
0.0145995
0.0145994
0.0145993
0.0145991
0.0145965
0.0145965
0.0145966
0.0145966
0.0145966
0.0145967
0.0145967
0.0145967
0.0145968
0.0145968
0.0145968
0.0145969
0.0145969
0.0145969
0.014597
0.014597
0.014597
0.0145971
0.0145971
0.0145971
0.0145972
0.0145972
0.0145972
0.0145973
0.0145973
0.0145974
0.0145974
0.0145974
0.0145975
0.0145975
0.0145975
0.0145976
0.0145976
0.0145977
0.0145977
0.0145977
0.0145978
0.0145978
0.0145979
0.0145979
0.014598
0.014598
0.014598
0.0145981
0.0145981
0.0145982
0.0145982
0.0145983
0.0145983
0.0145984
0.0145984
0.0145985
0.0145985
0.0145986
0.0145986
0.0145987
0.0145987
0.0145988
0.0145988
0.0145989
0.0145989
0.014599
0.014599
0.0145991
0.0145991
0.0145992
0.0145993
0.0145993
0.0145994
0.0145994
0.0145995
0.0145996
0.0145996
0.0145997
0.0145998
0.0145998
0.0145999
0.0146
0.0146
0.0146001
0.0146002
0.0146002
0.0146003
0.0146004
0.0146005
0.0146005
0.0146006
0.0146007
0.0146008
0.0146008
0.0146009
0.014601
0.0146011
0.0146012
0.0146013
0.0146014
0.0146014
0.0146015
0.0146016
0.0146017
0.0146018
0.0146019
0.014602
0.0146021
0.0146022
0.0146023
0.0146024
0.0146025
0.0146026
0.0146027
0.0146028
0.0146029
0.014603
0.0146031
0.0146032
0.0146033
0.0146034
0.0146035
0.0146036
0.0146037
0.0146038
0.0146039
0.014604
0.0146041
0.0146042
0.0146043
0.0146044
0.0146045
0.0146046
0.0146047
0.0146048
0.0146049
0.014605
0.0146051
0.0146053
0.0146054
0.0146055
0.0146056
0.0146057
0.0146058
0.014606
0.0146061
0.0146062
0.0146064
0.0146065
0.0146066
0.0146068
0.0146069
0.0146071
0.0146072
0.0146074
0.0146075
0.0146077
0.0146078
0.014608
0.0146082
0.0146083
0.0146085
0.0146087
0.0146089
0.0146091
0.0146093
0.0146095
0.0146097
0.0146099
0.0146101
0.0146103
0.0146105
0.0146107
0.0146109
0.0146112
0.0146114
0.0146116
0.0146118
0.014612
0.0146123
0.0146125
0.0146127
0.014613
0.0146132
0.0146134
0.0146136
0.0146139
0.0146141
0.0146143
0.0146145
0.0146148
0.014615
0.0146152
0.0146154
0.0146156
0.0146154
0.0146122
0.014631
0.0146315
0.0146318
0.0146321
0.0146323
0.0146324
0.0146324
0.0146324
0.0146322
0.014632
0.0146318
0.0146314
0.014631
0.0146305
0.0146299
0.0146293
0.0146287
0.0146158
0.014616
0.0146163
0.0146165
0.0146167
0.014617
0.0146172
0.0146174
0.0146177
0.0146179
0.0146182
0.0146184
0.0146186
0.0146189
0.0146192
0.0146194
0.0146197
0.0146199
0.0146202
0.0146205
0.0146208
0.014621
0.0146213
0.0146216
0.0146219
0.0146222
0.0146225
0.0146228
0.0146231
0.0146234
0.0146237
0.014624
0.0146243
0.0146247
0.014625
0.0146253
0.0146257
0.014626
0.0146264
0.0146267
0.0146271
0.0146274
0.0146278
0.0146282
0.0146286
0.014629
0.0146294
0.0146298
0.0146302
0.0146306
0.014631
0.0146314
0.0146318
0.0146323
0.0146327
0.0146331
0.0146336
0.014634
0.0146345
0.014635
0.0146354
0.0146359
0.0146364
0.0146368
0.0146373
0.0146378
0.0146383
0.0146388
0.0146393
0.0146398
0.0146403
0.0146408
0.0146413
0.0146418
0.0146423
0.0146429
0.0146434
0.0146439
0.0146445
0.014645
0.0146456
0.0146462
0.0146468
0.0146474
0.014648
0.0146486
0.0146492
0.0146498
0.0146505
0.0146511
0.0146518
0.0146524
0.0146531
0.0146538
0.0146545
0.0146553
0.014656
0.0146567
0.0146575
0.0146583
0.014659
0.0146598
0.0146606
0.0146614
0.0146622
0.0146631
0.0146639
0.0146648
0.0146656
0.0146665
0.0146674
0.0146683
0.0146692
0.0146701
0.014671
0.014672
0.0146729
0.0146739
0.0146748
0.0146758
0.0146767
0.0146777
0.0146787
0.0146797
0.0146807
0.0146817
0.0146827
0.0146837
0.0146848
0.0146858
0.0146869
0.0146879
0.014689
0.0146901
0.0146912
0.0146923
0.0146935
0.0146946
0.0146958
0.014697
0.0146982
0.0146995
0.0147008
0.014702
0.0147034
0.0147047
0.0147061
0.0147075
0.0147089
0.0147104
0.0147119
0.0147134
0.014715
0.0147166
0.0147183
0.01472
0.0147217
0.0147235
0.0147253
0.0147271
0.014729
0.0147309
0.0147329
0.0147349
0.0147369
0.014739
0.0147411
0.0147433
0.0147455
0.0147477
0.01475
0.0147522
0.0147545
0.0147569
0.0147592
0.0147616
0.014764
0.0147664
0.0147688
0.0147713
0.0147737
0.0147762
0.0147786
0.0147811
0.0147835
0.014786
0.0147884
0.0147909
0.0147933
0.0147958
0.0147984
0.0147981
0.0147821
0.0147068
0.0147081
0.0147091
0.0147099
0.0147105
0.0147109
0.014711
0.0147108
0.0147105
0.0147099
0.0147091
0.0147081
0.0147069
0.0147055
0.0147039
0.0147021
0.0146706
0.0146715
0.0146724
0.0146733
0.0146742
0.0146751
0.0146761
0.014677
0.014678
0.0146789
0.0146799
0.0146809
0.0146819
0.0146829
0.014684
0.014685
0.0146861
0.0146871
0.0146882
0.0146893
0.0146904
0.0146915
0.0146927
0.0146938
0.014695
0.0146962
0.0146973
0.0146986
0.0146998
0.014701
0.0147023
0.0147035
0.0147048
0.0147061
0.0147075
0.0147088
0.0147102
0.0147116
0.014713
0.0147144
0.0147159
0.0147173
0.0147188
0.0147204
0.0147219
0.0147235
0.0147251
0.0147267
0.0147283
0.01473
0.0147317
0.0147334
0.0147351
0.0147369
0.0147386
0.0147405
0.0147423
0.0147441
0.014746
0.0147479
0.0147499
0.0147518
0.0147538
0.0147558
0.0147578
0.0147598
0.0147619
0.014764
0.0147661
0.0147683
0.0147704
0.0147726
0.0147748
0.0147771
0.0147793
0.0147816
0.014784
0.0147863
0.0147887
0.0147912
0.0147936
0.0147961
0.0147987
0.0148013
0.0148039
0.0148066
0.0148094
0.0148122
0.014815
0.0148179
0.0148209
0.0148239
0.014827
0.0148301
0.0148333
0.0148365
0.0148398
0.0148432
0.0148466
0.0148501
0.0148537
0.0148573
0.014861
0.0148647
0.0148686
0.0148724
0.0148764
0.0148804
0.0148845
0.0148886
0.0148928
0.014897
0.0149013
0.0149057
0.0149101
0.0149146
0.0149191
0.0149236
0.0149282
0.0149329
0.0149375
0.0149422
0.014947
0.0149518
0.0149566
0.0149614
0.0149663
0.0149711
0.0149761
0.014981
0.014986
0.014991
0.014996
0.0150011
0.0150063
0.0150115
0.0150167
0.015022
0.0150274
0.0150328
0.0150383
0.0150439
0.0150496
0.0150554
0.0150612
0.0150672
0.0150733
0.0150794
0.0150857
0.0150922
0.0150988
0.0151055
0.0151123
0.0151193
0.0151265
0.0151339
0.0151414
0.0151491
0.015157
0.0151651
0.0151734
0.0151819
0.0151906
0.0151995
0.0152087
0.0152181
0.0152277
0.0152375
0.0152476
0.0152579
0.0152685
0.0152793
0.0152903
0.0153015
0.015313
0.0153246
0.0153365
0.0153486
0.0153609
0.0153734
0.015386
0.0153989
0.0154118
0.0154249
0.0154381
0.0154514
0.0154647
0.0154781
0.0154914
0.0155048
0.0155183
0.0155269
0.0154816
0.0148825
0.0148856
0.0148881
0.0148901
0.0148915
0.0148922
0.0148924
0.0148921
0.0148912
0.0148897
0.0148877
0.0148851
0.014882
0.0148784
0.0148744
0.0148699
0.0148184
0.0148213
0.0148241
0.0148271
0.01483
0.014833
0.0148361
0.0148392
0.0148423
0.0148455
0.0148487
0.0148519
0.0148552
0.0148586
0.014862
0.0148654
0.0148689
0.0148725
0.014876
0.0148797
0.0148833
0.014887
0.0148908
0.0148946
0.0148985
0.0149024
0.0149064
0.0149104
0.0149145
0.0149186
0.0149228
0.0149271
0.0149314
0.0149358
0.0149403
0.0149448
0.0149494
0.0149541
0.0149589
0.0149638
0.0149687
0.0149738
0.0149789
0.0149841
0.0149894
0.0149949
0.0150004
0.015006
0.0150117
0.0150175
0.0150235
0.0150295
0.0150356
0.0150419
0.0150482
0.0150547
0.0150612
0.0150679
0.0150747
0.0150815
0.0150885
0.0150956
0.0151027
0.01511
0.0151173
0.0151247
0.0151322
0.0151398
0.0151475
0.0151552
0.015163
0.0151709
0.0151789
0.0151869
0.015195
0.0152031
0.0152114
0.0152197
0.0152281
0.0152366
0.0152452
0.0152539
0.0152627
0.0152716
0.0152807
0.0152899
0.0152992
0.0153086
0.0153182
0.015328
0.0153379
0.0153479
0.0153582
0.0153686
0.0153793
0.0153901
0.0154011
0.0154124
0.0154238
0.0154355
0.0154475
0.0154596
0.015472
0.0154847
0.0154976
0.0155108
0.0155242
0.015538
0.015552
0.0155663
0.0155808
0.0155956
0.0156108
0.0156262
0.0156418
0.0156577
0.0156739
0.0156904
0.0157071
0.0157241
0.0157413
0.0157587
0.0157763
0.0157942
0.0158122
0.0158304
0.0158488
0.0158673
0.0158858
0.0159045
0.0159233
0.0159421
0.0159611
0.0159801
0.0159993
0.0160185
0.0160379
0.0160574
0.016077
0.0160967
0.0161166
0.0161367
0.0161569
0.0161772
0.0161978
0.0162186
0.0162396
0.0162608
0.0162824
0.0163041
0.0163262
0.0163487
0.0163715
0.0163946
0.0164182
0.0164422
0.0164667
0.0164917
0.0165172
0.0165433
0.01657
0.0165973
0.0166253
0.016654
0.0166833
0.0167134
0.0167443
0.016776
0.0168085
0.0168419
0.0168761
0.0169112
0.0169471
0.016984
0.0170217
0.0170604
0.0170999
0.0171403
0.0171817
0.0172239
0.0172669
0.0173109
0.0173556
0.0174012
0.0174475
0.0174949
0.0175425
0.0175917
0.0176391
0.0176888
0.0177341
0.0177885
0.0177399
0.015262
0.0152683
0.0152733
0.0152771
0.0152796
0.0152807
0.0152806
0.0152794
0.015277
0.0152733
0.0152684
0.0152623
0.0152552
0.015247
0.0152379
0.0151892
0.0151974
0.0152056
0.015214
0.0152226
0.0152313
0.0152401
0.0152491
0.0152582
0.0152675
0.0152769
0.0152865
0.0152962
0.0153061
0.0153161
0.0153263
0.0153366
0.0153471
0.0153577
0.0153684
0.0153793
0.0153903
0.0154014
0.0154127
0.0154241
0.0154355
0.0154472
0.0154589
0.0154708
0.0154828
0.015495
0.0155073
0.0155197
0.0155323
0.0155451
0.0155581
0.0155712
0.0155845
0.015598
0.0156117
0.0156256
0.0156397
0.015654
0.0156685
0.0156833
0.0156984
0.0157136
0.0157292
0.015745
0.0157611
0.0157774
0.0157941
0.015811
0.0158282
0.0158457
0.0158635
0.0158817
0.0159001
0.0159188
0.0159379
0.0159572
0.0159769
0.0159968
0.0160171
0.0160376
0.0160584
0.0160795
0.0161009
0.0161226
0.0161445
0.0161666
0.016189
0.0162116
0.0162344
0.0162574
0.0162805
0.0163038
0.0163273
0.0163509
0.0163748
0.0163988
0.0164231
0.0164476
0.0164723
0.0164973
0.0165226
0.0165481
0.0165739
0.0166
0.0166264
0.0166532
0.0166803
0.0167078
0.0167357
0.0167639
0.0167926
0.0168218
0.0168514
0.0168814
0.016912
0.0169431
0.0169748
0.017007
0.0170398
0.0170732
0.0171073
0.017142
0.0171773
0.0172134
0.0172501
0.0172875
0.0173256
0.0173643
0.0174038
0.0174439
0.0174847
0.0175262
0.0175682
0.0176109
0.0176542
0.0176981
0.0177425
0.0177873
0.0178327
0.0178785
0.0179248
0.0179714
0.0180185
0.0180655
0.0181123
0.0181587
0.0182047
0.0182504
0.0182957
0.0183406
0.018385
0.0184291
0.0184727
0.0185158
0.0185585
0.0186008
0.0186426
0.0186839
0.0187247
0.0187651
0.0188051
0.0188445
0.0188835
0.018922
0.0189601
0.0189977
0.0190348
0.0190714
0.0191075
0.0191431
0.0191783
0.0192129
0.019247
0.0192806
0.0193136
0.0193461
0.019378
0.0194094
0.0194402
0.0194704
0.0195
0.019529
0.0195574
0.0195852
0.0196124
0.019639
0.019665
0.0196904
0.0197153
0.0197395
0.0197633
0.0197864
0.0198091
0.0198312
0.0198528
0.0198738
0.0198944
0.0199143
0.019934
0.0199528
0.0199713
0.0199891
0.0200064
0.0200236
0.0200395
0.020057
0.0200733
0.0200402
0.0159936
0.0160069
0.0160177
0.016026
0.0160318
0.0160351
0.0160357
0.0160343
0.0160306
0.0160247
0.0160163
0.0160057
0.0159929
0.0159781
0.0159612
0.0159425
0.0160197
0.016039
0.0160585
0.0160783
0.0160984
0.0161189
0.0161396
0.0161606
0.016182
0.0162037
0.0162257
0.016248
0.0162706
0.0162935
0.0163168
0.0163404
0.0163643
0.0163885
0.016413
0.0164378
0.0164629
0.0164883
0.016514
0.0165399
0.0165661
0.0165925
0.016619
0.0166458
0.0166727
0.0166999
0.0167272
0.0167548
0.0167825
0.0168105
0.0168388
0.0168672
0.016896
0.016925
0.0169543
0.0169839
0.0170138
0.017044
0.0170746
0.0171055
0.0171369
0.0171686
0.0172008
0.0172334
0.0172665
0.0173001
0.0173341
0.0173687
0.0174038
0.0174395
0.0174758
0.0175126
0.01755
0.017588
0.0176266
0.0176658
0.0177056
0.017746
0.017787
0.0178285
0.0178706
0.0179133
0.0179564
0.0180001
0.0180441
0.0180886
0.0181335
0.0181787
0.0182241
0.0182699
0.0183159
0.0183616
0.018407
0.018452
0.0184967
0.018541
0.0185848
0.0186282
0.0186711
0.0187135
0.0187554
0.0187967
0.0188375
0.0188776
0.0189172
0.0189561
0.0189944
0.019032
0.019069
0.0191054
0.019141
0.019176
0.0192103
0.0192439
0.0192768
0.0193091
0.0193407
0.0193716
0.0194019
0.0194315
0.0194604
0.0194888
0.0195164
0.0195435
0.0195699
0.0195956
0.0196208
0.0196453
0.0196693
0.0196926
0.0197153
0.0197375
0.0197591
0.0197801
0.0198006
0.0198206
0.0198401
0.0198591
0.0198776
0.0198957
0.0199133
0.0199304
0.0199471
0.0199633
0.0199792
0.0199949
0.0200103
0.0200254
0.0200403
0.020055
0.0200695
0.0200837
0.0200977
0.0201114
0.0201248
0.020138
0.0201509
0.0201634
0.0201756
0.0201875
0.020199
0.0202102
0.0202209
0.0202312
0.0202412
0.0202506
0.0202596
0.0202682
0.0202763
0.0202839
0.020291
0.0202977
0.020304
0.0203097
0.0203151
0.02032
0.0203246
0.0203288
0.0203326
0.0203361
0.0203394
0.0203423
0.020345
0.0203475
0.0203499
0.020352
0.020354
0.0203559
0.0203577
0.0203594
0.0203611
0.0203626
0.0203642
0.0203656
0.020367
0.0203683
0.0203697
0.0203709
0.0203723
0.0203734
0.0203747
0.0203757
0.020377
0.0203779
0.0203793
0.0203801
0.020382
0.0203827
0.0203708
0.0172153
0.0172313
0.0172433
0.0172514
0.0172559
0.0172561
0.0172533
0.0172469
0.0172371
0.0172242
0.0172077
0.017188
0.0171651
0.0175016
0.0175352
0.0175691
0.0176032
0.0176377
0.0176726
0.0177078
0.0177434
0.0177794
0.0178158
0.0178526
0.0178898
0.0179274
0.0179655
0.018004
0.018043
0.0180823
0.0181221
0.0181622
0.0182028
0.0182438
0.0182851
0.0183267
0.0183687
0.018411
0.0184536
0.0184962
0.0185387
0.0185809
0.0186229
0.0186646
0.0187061
0.0187472
0.018788
0.0188285
0.0188685
0.0189081
0.0189473
0.018986
0.0190242
0.0190618
0.019099
0.0191356
0.0191715
0.0192069
0.0192417
0.0192759
0.0193094
0.0193422
0.0193744
0.0194059
0.0194367
0.0194669
0.0194963
0.019525
0.019553
0.0195802
0.0196068
0.0196326
0.0196576
0.019682
0.0197056
0.0197285
0.0197507
0.0197721
0.0197928
0.0198128
0.0198322
0.0198508
0.0198687
0.019886
0.0199027
0.0199186
0.019934
0.0199488
0.019963
0.0199769
0.0199904
0.0200035
0.0200162
0.0200286
0.0200407
0.0200525
0.020064
0.0200753
0.0200864
0.0200972
0.0201078
0.0201182
0.0201284
0.0201385
0.0201483
0.020158
0.0201674
0.0201767
0.0201859
0.0201948
0.0202036
0.0202121
0.0202205
0.0202287
0.0202366
0.0202444
0.020252
0.0202594
0.0202666
0.0202736
0.0202804
0.020287
0.0202935
0.0202997
0.0203058
0.0203116
0.0203173
0.0203229
0.0203282
0.0203334
0.0203384
0.0203433
0.020348
0.0203525
0.0203569
0.0203611
0.0203651
0.0203689
0.0203726
0.020376
0.0203793
0.0203824
0.0203854
0.0203881
0.0203906
0.020393
0.0203951
0.0203971
0.0203989
0.0204005
0.020402
0.0204033
0.0204045
0.0204056
0.0204066
0.0204075
0.0204084
0.0204092
0.02041
0.0204108
0.0204116
0.0204124
0.0204131
0.0204139
0.0204147
0.0204155
0.0204163
0.0204171
0.020418
0.0204189
0.0204198
0.0204207
0.0204217
0.0204228
0.0204239
0.020425
0.0204262
0.0204274
0.0204287
0.02043
0.0204314
0.020433
0.0204345
0.0204363
0.020438
0.0204399
0.0204418
0.0204438
0.0204459
0.0204481
0.0204504
0.0204529
0.0204554
0.0204581
0.0204608
0.0204636
0.0204663
0.0204693
0.020472
0.0204751
0.0204778
0.020481
0.0204836
0.020487
0.02049
0.0204868
0.0187579
0.018768
0.0187733
0.0187733
0.0187702
0.0187627
0.0187514
0.0187364
0.0187186
0.0186967
0.0186706
0.0186413
0.0186087
0.0192714
0.0193037
0.0193354
0.0193667
0.0193974
0.0194276
0.0194572
0.0194862
0.0195147
0.0195426
0.0195698
0.0195964
0.0196224
0.0196477
0.0196724
0.0196963
0.0197196
0.0197422
0.0197641
0.0197853
0.0198058
0.0198256
0.0198447
0.0198632
0.0198809
0.0198979
0.0199143
0.0199302
0.0199456
0.0199605
0.0199748
0.0199887
0.0200022
0.0200151
0.0200277
0.0200398
0.0200516
0.020063
0.020074
0.0200846
0.020095
0.020105
0.0201148
0.0201242
0.0201334
0.0201424
0.0201511
0.0201596
0.0201679
0.0201759
0.0201838
0.0201915
0.020199
0.0202063
0.0202134
0.0202204
0.0202272
0.0202338
0.0202403
0.0202466
0.0202528
0.0202588
0.0202647
0.0202705
0.0202761
0.0202816
0.020287
0.0202922
0.0202973
0.0203023
0.0203072
0.020312
0.0203167
0.0203212
0.0203257
0.0203301
0.0203344
0.0203387
0.0203428
0.0203469
0.0203509
0.0203548
0.0203586
0.0203623
0.0203659
0.0203693
0.0203727
0.0203759
0.0203789
0.0203818
0.0203846
0.0203872
0.0203896
0.0203919
0.020394
0.020396
0.0203979
0.0203997
0.0204014
0.020403
0.0204046
0.020406
0.0204075
0.0204089
0.0204103
0.0204117
0.0204131
0.0204145
0.0204159
0.0204173
0.0204188
0.0204203
0.0204218
0.0204233
0.0204248
0.0204264
0.0204279
0.0204295
0.0204311
0.0204327
0.0204344
0.020436
0.0204377
0.0204393
0.020441
0.0204427
0.0204444
0.0204462
0.0204479
0.0204497
0.0204514
0.0204532
0.020455
0.0204568
0.0204585
0.0204603
0.0204621
0.0204639
0.0204657
0.0204676
0.0204696
0.0204714
0.0204733
0.0204751
0.0204769
0.0204787
0.0204805
0.0204822
0.0204839
0.0204855
0.0204872
0.0204888
0.0204905
0.0204921
0.0204938
0.0204956
0.0204973
0.0204992
0.0205011
0.0205031
0.0205052
0.0205073
0.0205096
0.0205121
0.0205146
0.0205173
0.0205201
0.0205231
0.0205261
0.0205293
0.0205325
0.0205359
0.0205393
0.0205429
0.0205465
0.0205502
0.020554
0.0205578
0.0205616
0.0205654
0.0205692
0.020573
0.020577
0.020581
0.0205852
0.0205893
0.0205936
0.0205978
0.0206021
0.0206063
0.0206106
0.0206153
0.0206112
0.0200147
0.0200023
0.0199869
0.0199688
0.0199487
0.019927
0.0199049
0.0198777
0.0198492
0.0198217
0.0197923
0.0197605
0.0197267
0.0196915
0.020098
0.0201081
0.0201177
0.020127
0.020136
0.0201446
0.020153
0.0201611
0.0201689
0.0201764
0.0201837
0.0201908
0.0201977
0.0202044
0.0202109
0.0202172
0.0202234
0.0202294
0.0202352
0.020241
0.0202465
0.020252
0.0202574
0.0202626
0.0202677
0.0202727
0.0202776
0.0202824
0.0202871
0.0202918
0.0202963
0.0203008
0.0203051
0.0203094
0.0203137
0.0203178
0.0203219
0.0203259
0.0203298
0.0203336
0.0203373
0.020341
0.0203446
0.020348
0.0203514
0.0203547
0.0203579
0.020361
0.0203639
0.0203668
0.0203696
0.0203722
0.0203747
0.0203772
0.0203795
0.0203818
0.0203839
0.020386
0.0203879
0.0203898
0.0203916
0.0203934
0.0203951
0.0203967
0.0203983
0.0203999
0.0204014
0.0204029
0.0204044
0.0204059
0.0204074
0.0204089
0.0204104
0.0204119
0.0204134
0.0204149
0.0204165
0.0204181
0.0204198
0.0204214
0.0204231
0.0204248
0.0204265
0.0204282
0.02043
0.0204317
0.0204335
0.0204352
0.020437
0.0204387
0.0204405
0.0204422
0.020444
0.0204457
0.0204474
0.0204491
0.0204508
0.0204525
0.0204542
0.0204559
0.0204577
0.0204594
0.0204612
0.0204631
0.0204649
0.0204668
0.0204687
0.0204706
0.0204725
0.0204744
0.0204764
0.0204784
0.0204804
0.0204824
0.0204845
0.0204866
0.0204887
0.0204908
0.020493
0.0204952
0.0204974
0.0204997
0.020502
0.0205044
0.0205068
0.0205092
0.0205117
0.0205142
0.0205167
0.0205193
0.0205219
0.0205245
0.0205272
0.0205299
0.0205326
0.0205354
0.0205382
0.020541
0.0205437
0.0205464
0.020549
0.0205517
0.0205545
0.0205572
0.02056
0.0205628
0.0205657
0.0205686
0.0205715
0.0205745
0.0205776
0.0205807
0.020584
0.0205874
0.0205909
0.0205945
0.0205982
0.0206021
0.0206062
0.0206104
0.0206148
0.0206194
0.0206242
0.0206291
0.0206342
0.0206395
0.0206449
0.0206505
0.0206562
0.0206621
0.0206681
0.0206743
0.0206806
0.020687
0.0206936
0.0207003
0.0207072
0.0207141
0.0207213
0.0207286
0.0207361
0.0207436
0.0207513
0.0207591
0.020767
0.020775
0.0207832
0.0207914
0.0207998
0.0208082
0.0208167
0.0208265
0.0208198
0.0205124
0.0204857
0.020459
0.0204281
0.0203984
0.0203692
0.0203373
0.0203047
0.0202734
0.020242
0.0202096
0.0201763
0.0201425
0.0201093
0.0203071
0.0203109
0.0203147
0.0203183
0.0203218
0.0203252
0.0203285
0.0203318
0.020335
0.0203381
0.0203412
0.0203442
0.0203472
0.0203501
0.0203529
0.0203557
0.0203584
0.020361
0.0203636
0.0203661
0.0203685
0.0203708
0.0203731
0.0203753
0.0203775
0.0203795
0.0203815
0.0203835
0.0203853
0.0203872
0.0203889
0.0203907
0.0203924
0.020394
0.0203957
0.0203973
0.0203988
0.0204004
0.0204019
0.0204035
0.020405
0.0204065
0.020408
0.0204095
0.020411
0.0204125
0.020414
0.0204155
0.0204169
0.0204184
0.0204199
0.0204214
0.0204229
0.0204244
0.0204259
0.0204275
0.020429
0.0204306
0.0204321
0.0204337
0.0204353
0.020437
0.0204386
0.0204403
0.020442
0.0204437
0.0204454
0.0204472
0.0204491
0.020451
0.0204529
0.0204549
0.0204569
0.0204589
0.020461
0.020463
0.0204652
0.0204673
0.0204694
0.0204716
0.0204738
0.0204759
0.0204781
0.0204804
0.0204826
0.0204848
0.020487
0.0204893
0.0204915
0.0204938
0.0204961
0.0204983
0.0205006
0.020503
0.0205053
0.0205077
0.0205101
0.0205125
0.020515
0.0205175
0.0205201
0.0205226
0.0205251
0.0205277
0.0205303
0.0205329
0.0205356
0.0205383
0.0205411
0.0205439
0.0205467
0.0205497
0.0205526
0.0205557
0.0205587
0.0205619
0.0205651
0.0205684
0.0205718
0.0205752
0.0205787
0.0205823
0.0205859
0.0205896
0.0205934
0.0205973
0.0206012
0.0206053
0.0206094
0.0206135
0.0206178
0.0206222
0.0206266
0.0206311
0.0206357
0.0206404
0.0206452
0.0206501
0.020655
0.0206601
0.0206653
0.0206706
0.020676
0.0206815
0.0206871
0.0206928
0.0206987
0.0207047
0.0207108
0.0207172
0.0207237
0.0207304
0.0207373
0.0207444
0.0207518
0.0207594
0.0207672
0.0207752
0.0207835
0.020792
0.0208008
0.0208098
0.020819
0.0208285
0.0208382
0.0208481
0.0208582
0.0208685
0.0208791
0.0208898
0.0209008
0.0209121
0.0209235
0.0209352
0.0209471
0.0209593
0.0209717
0.0209843
0.0209972
0.0210103
0.0210237
0.0210372
0.021051
0.0210651
0.0210794
0.021094
0.0211091
0.0211243
0.02114
0.0211555
0.0211712
0.0211875
0.0211751
0.0206942
0.020661
0.0206276
0.0205933
0.0205591
0.0205248
0.0204903
0.0204565
0.020423
0.0203892
0.0203552
0.0203214
0.0202887
0.0202565
0.0203772
0.0203791
0.020381
0.0203828
0.0203845
0.0203862
0.0203878
0.0203895
0.0203911
0.0203927
0.0203943
0.0203959
0.0203974
0.0203991
0.0204006
0.0204022
0.0204039
0.0204055
0.0204071
0.0204087
0.0204104
0.020412
0.0204137
0.0204154
0.0204171
0.0204188
0.0204205
0.0204223
0.020424
0.0204258
0.0204275
0.0204293
0.020431
0.0204328
0.0204346
0.0204364
0.0204382
0.02044
0.0204418
0.0204435
0.0204453
0.0204471
0.0204489
0.0204506
0.0204524
0.0204542
0.0204559
0.0204577
0.0204595
0.0204613
0.0204632
0.020465
0.0204669
0.0204689
0.0204708
0.0204729
0.0204749
0.020477
0.0204791
0.0204813
0.0204836
0.0204858
0.0204882
0.0204906
0.020493
0.0204955
0.0204981
0.0205006
0.0205033
0.0205059
0.0205085
0.0205112
0.0205139
0.0205167
0.0205194
0.0205222
0.0205251
0.0205279
0.0205308
0.0205337
0.0205366
0.0205396
0.0205425
0.0205455
0.0205486
0.0205516
0.0205547
0.0205579
0.020561
0.0205643
0.0205676
0.0205709
0.0205743
0.0205778
0.0205814
0.020585
0.0205888
0.0205926
0.0205965
0.0206004
0.0206044
0.0206086
0.0206128
0.0206171
0.0206215
0.020626
0.0206306
0.0206353
0.0206401
0.020645
0.02065
0.0206551
0.0206604
0.0206657
0.0206712
0.0206768
0.0206825
0.0206883
0.0206943
0.0207004
0.0207066
0.0207129
0.0207194
0.020726
0.0207328
0.0207397
0.0207467
0.0207539
0.0207612
0.0207686
0.0207763
0.0207841
0.020792
0.0208002
0.0208085
0.020817
0.0208256
0.0208345
0.0208436
0.0208529
0.0208623
0.020872
0.0208819
0.020892
0.0209023
0.0209129
0.0209238
0.0209349
0.0209463
0.020958
0.02097
0.0209823
0.020995
0.0210079
0.0210211
0.0210347
0.0210486
0.0210627
0.0210772
0.021092
0.0211071
0.0211225
0.0211382
0.0211542
0.0211705
0.0211872
0.0212041
0.0212214
0.0212389
0.0212568
0.021275
0.0212935
0.0213124
0.0213316
0.0213511
0.0213709
0.0213911
0.0214116
0.0214325
0.0214538
0.0214754
0.0214974
0.0215198
0.0215426
0.021566
0.0215897
0.021614
0.0216385
0.0216635
0.0216875
0.0217113
0.02173
0.0217061
0.0207628
0.0207282
0.0206934
0.0206584
0.0206236
0.0205885
0.0205536
0.0205199
0.0204861
0.0204519
0.0204176
0.0203836
0.0203508
0.0204119
0.0204139
0.0204158
0.0204177
0.0204195
0.0204214
0.0204232
0.0204251
0.0204269
0.0204287
0.0204306
0.0204324
0.0204342
0.0204361
0.020438
0.0204399
0.0204418
0.0204437
0.0204456
0.0204476
0.0204496
0.0204516
0.0204537
0.0204557
0.0204578
0.02046
0.0204621
0.0204643
0.0204665
0.0204687
0.0204709
0.0204732
0.0204754
0.0204777
0.02048
0.0204822
0.0204845
0.0204867
0.020489
0.0204912
0.0204935
0.0204958
0.0204982
0.0205005
0.0205029
0.0205053
0.0205077
0.0205101
0.0205126
0.0205152
0.0205178
0.0205204
0.0205231
0.0205259
0.0205287
0.0205316
0.0205346
0.0205376
0.0205407
0.0205439
0.0205472
0.0205505
0.0205539
0.0205574
0.0205609
0.0205645
0.0205682
0.020572
0.0205758
0.0205797
0.0205836
0.0205877
0.0205917
0.0205959
0.0206001
0.0206043
0.0206086
0.020613
0.0206175
0.020622
0.0206265
0.0206312
0.0206359
0.0206407
0.0206456
0.0206505
0.0206556
0.0206608
0.0206661
0.0206714
0.0206769
0.0206826
0.0206883
0.0206942
0.0207002
0.0207064
0.0207127
0.0207191
0.0207257
0.0207324
0.0207393
0.0207464
0.0207536
0.0207609
0.0207684
0.0207761
0.0207839
0.0207919
0.0208001
0.0208085
0.020817
0.0208257
0.0208346
0.0208437
0.020853
0.0208625
0.0208722
0.0208821
0.0208922
0.0209025
0.020913
0.0209237
0.0209346
0.0209457
0.0209571
0.0209686
0.0209804
0.0209925
0.0210048
0.0210173
0.0210301
0.0210431
0.0210564
0.02107
0.0210839
0.021098
0.0211125
0.0211272
0.0211422
0.0211576
0.0211732
0.0211892
0.0212056
0.0212223
0.0212394
0.0212568
0.0212746
0.0212928
0.0213113
0.0213303
0.0213496
0.0213693
0.0213894
0.0214098
0.0214307
0.0214519
0.0214735
0.0214954
0.0215178
0.0215405
0.0215635
0.021587
0.0216108
0.021635
0.0216595
0.0216844
0.0217098
0.0217354
0.0217615
0.021788
0.0218148
0.021842
0.0218697
0.0218977
0.0219261
0.021955
0.0219843
0.0220139
0.0220441
0.0220747
0.0221057
0.0221372
0.0221692
0.0222017
0.0222348
0.0222683
0.0223022
0.0223359
0.0223691
0.0223997
0.0224299
0.0224401
0.0223973
0.0208113
0.0207754
0.0207395
0.020704
0.0206685
0.0206326
0.0205978
0.0205644
0.0205304
0.0204961
0.0204618
0.0204279
0.0203958
0.0204558
0.0204582
0.0204605
0.0204628
0.0204651
0.0204673
0.0204696
0.0204719
0.0204742
0.0204765
0.0204788
0.0204812
0.0204836
0.0204861
0.0204885
0.020491
0.0204935
0.0204961
0.0204987
0.0205013
0.020504
0.0205067
0.0205094
0.0205122
0.020515
0.0205179
0.0205207
0.0205237
0.0205266
0.0205296
0.0205326
0.0205356
0.0205387
0.0205418
0.0205449
0.0205481
0.0205514
0.0205547
0.020558
0.0205614
0.0205649
0.0205684
0.0205719
0.0205756
0.0205793
0.0205831
0.020587
0.0205909
0.020595
0.0205991
0.0206034
0.0206077
0.0206122
0.0206167
0.0206214
0.0206262
0.020631
0.020636
0.0206411
0.0206463
0.0206516
0.020657
0.0206625
0.0206681
0.0206738
0.0206797
0.0206856
0.0206917
0.0206978
0.0207041
0.0207104
0.0207169
0.0207235
0.0207301
0.020737
0.0207439
0.0207509
0.0207581
0.0207655
0.0207729
0.0207806
0.0207883
0.0207963
0.0208044
0.0208126
0.0208211
0.0208297
0.0208385
0.0208475
0.0208567
0.0208661
0.0208756
0.0208854
0.0208955
0.0209057
0.0209161
0.0209268
0.0209377
0.0209488
0.0209601
0.0209717
0.0209835
0.0209955
0.0210078
0.0210203
0.0210331
0.0210461
0.0210594
0.0210729
0.0210867
0.0211008
0.0211151
0.0211298
0.0211447
0.0211598
0.0211753
0.021191
0.0212071
0.0212234
0.02124
0.0212569
0.0212741
0.0212917
0.0213095
0.0213277
0.0213462
0.021365
0.0213842
0.0214037
0.0214236
0.0214438
0.0214644
0.0214854
0.0215068
0.0215285
0.0215507
0.0215732
0.0215962
0.0216196
0.0216434
0.0216676
0.0216922
0.0217173
0.0217428
0.0217687
0.021795
0.0218217
0.0218489
0.0218764
0.0219044
0.0219327
0.0219614
0.0219906
0.0220201
0.02205
0.0220803
0.0221109
0.022142
0.0221734
0.0222052
0.0222373
0.0222699
0.0223028
0.0223361
0.0223698
0.0224039
0.0224383
0.0224732
0.0225084
0.022544
0.02258
0.0226164
0.0226532
0.0226904
0.022728
0.022766
0.0228044
0.0228432
0.0228823
0.0229219
0.0229619
0.0230023
0.0230431
0.023084
0.0231247
0.023164
0.0232009
0.0232324
0.0232595
0.0232541
0.0231833
0.02081
0.0207739
0.0207385
0.0207027
0.0206663
0.0206324
0.0205993
0.0205653
0.0205313
0.0204973
0.0204641
0.0204329
0.0205066
0.0205096
0.0205126
0.0205156
0.0205186
0.0205217
0.0205247
0.0205278
0.020531
0.0205342
0.0205374
0.0205407
0.0205441
0.0205475
0.0205509
0.0205545
0.020558
0.0205616
0.0205653
0.0205691
0.0205729
0.0205767
0.0205807
0.0205847
0.0205887
0.0205928
0.020597
0.0206012
0.0206055
0.0206099
0.0206144
0.0206189
0.0206235
0.0206282
0.0206329
0.0206378
0.0206427
0.0206478
0.0206529
0.0206581
0.0206635
0.0206689
0.0206745
0.0206802
0.020686
0.0206919
0.020698
0.0207042
0.0207106
0.0207171
0.0207237
0.0207305
0.0207374
0.0207445
0.0207517
0.0207591
0.0207666
0.0207743
0.0207821
0.0207901
0.0207982
0.0208065
0.0208149
0.0208235
0.0208322
0.0208411
0.0208502
0.0208594
0.0208688
0.0208783
0.020888
0.020898
0.020908
0.0209183
0.0209288
0.0209395
0.0209504
0.0209615
0.0209728
0.0209843
0.0209961
0.0210081
0.0210204
0.0210328
0.0210456
0.0210586
0.0210718
0.0210853
0.0210991
0.0211131
0.0211275
0.0211421
0.0211569
0.0211721
0.0211876
0.0212033
0.0212194
0.0212357
0.0212523
0.0212693
0.0212865
0.0213041
0.0213219
0.0213401
0.0213586
0.0213774
0.0213965
0.021416
0.0214358
0.0214559
0.0214764
0.0214972
0.0215183
0.0215398
0.0215616
0.0215838
0.0216064
0.0216292
0.0216525
0.0216761
0.0217001
0.0217245
0.0217492
0.0217743
0.0217998
0.0218257
0.021852
0.0218787
0.0219058
0.0219333
0.0219612
0.0219895
0.0220183
0.0220475
0.0220771
0.0221071
0.0221375
0.0221684
0.0221996
0.0222313
0.0222634
0.0222958
0.0223287
0.0223619
0.0223955
0.0224295
0.0224638
0.0224985
0.0225335
0.0225689
0.0226046
0.0226406
0.022677
0.0227136
0.0227506
0.0227879
0.0228256
0.0228635
0.0229017
0.0229403
0.0229791
0.0230183
0.0230577
0.0230974
0.0231374
0.0231776
0.0232182
0.023259
0.0233
0.0233413
0.0233828
0.0234245
0.0234664
0.0235085
0.0235508
0.0235932
0.0236357
0.0236784
0.0237211
0.023764
0.0238071
0.0238502
0.0238931
0.0239353
0.0239757
0.0240127
0.0240445
0.0240682
0.0240759
0.0240545
0.0239512
0.0208453
0.0208098
0.0207746
0.0207387
0.0207025
0.0206698
0.0206368
0.0206027
0.0205696
0.0205362
0.0205762
0.0205804
0.0205846
0.0205889
0.0205932
0.0205976
0.020602
0.0206064
0.020611
0.0206156
0.0206203
0.0206251
0.02063
0.0206349
0.0206399
0.0206451
0.0206503
0.0206556
0.020661
0.0206665
0.0206721
0.0206778
0.0206835
0.0206894
0.0206954
0.0207015
0.0207077
0.020714
0.0207204
0.0207269
0.0207336
0.0207404
0.0207473
0.0207543
0.0207615
0.0207688
0.0207763
0.0207839
0.0207917