/*--------------------------------*- C++ -*----------------------------------*\
| =========                 |                                                 |
| \\      /  F ield         | OpenFOAM: The Open Source CFD Toolbox           |
|  \\    /   O peration     | Version:  v1706                                 |
|   \\  /    A nd           | Web:      www.OpenFOAM.com                      |
|    \\/     M anipulation  |                                                 |
\*---------------------------------------------------------------------------*/
FoamFile
{
    version     2.0;
    format      ascii;
    class       volScalarField;
    location    "1.3e-05";
    object      Mach;
}
// * * * * * * * * * * * * * * * * * * * * * * * * * * * * * * * * * * * * * //

dimensions      [0 0 0 0 0 0 0];


internalField   nonuniform List<scalar> 
30104
(
3.99328
3.99326
3.99325
3.99324
3.99323
3.99323
3.99323
3.99324
3.99324
3.99326
3.99327
3.99329
3.99331
3.99333
3.99336
3.99339
3.99342
3.99407
3.99407
3.99406
3.99405
3.99404
3.99404
3.99403
3.99402
3.99401
3.994
3.994
3.99399
3.99398
3.99397
3.99396
3.99395
3.99395
3.99394
3.99393
3.99392
3.99391
3.9939
3.99389
3.99388
3.99387
3.99386
3.99385
3.99384
3.99383
3.99382
3.99381
3.9938
3.99379
3.99378
3.99376
3.99375
3.99374
3.99373
3.99372
3.99371
3.99369
3.99368
3.99367
3.99366
3.99364
3.99363
3.99362
3.9936
3.99359
3.99358
3.99356
3.99355
3.99354
3.99352
3.99351
3.99349
3.99348
3.99347
3.99345
3.99344
3.99342
3.99341
3.99339
3.99338
3.99336
3.99335
3.99333
3.99332
3.9933
3.99329
3.99327
3.99325
3.99324
3.99322
3.99321
3.99319
3.99317
3.99316
3.99314
3.99312
3.99311
3.99309
3.99307
3.99306
3.99304
3.99302
3.993
3.99298
3.99297
3.99295
3.99293
3.99291
3.99289
3.99287
3.99285
3.99283
3.99281
3.99279
3.99277
3.99275
3.99272
3.9927
3.99268
3.99266
3.99263
3.99261
3.99258
3.99256
3.99253
3.99251
3.99248
3.99246
3.99243
3.9924
3.99238
3.99235
3.99232
3.99229
3.99226
3.99224
3.99221
3.99218
3.99215
3.99212
3.99209
3.99206
3.99203
3.99199
3.99196
3.99193
3.9919
3.99187
3.99183
3.9918
3.99177
3.99173
3.9917
3.99166
3.99163
3.99159
3.99155
3.99152
3.99148
3.99144
3.9914
3.99136
3.99132
3.99128
3.99123
3.99119
3.99115
3.9911
3.99105
3.99101
3.99096
3.99091
3.99086
3.99081
3.99076
3.99071
3.99065
3.9906
3.99055
3.99049
3.99043
3.99038
3.99032
3.99026
3.9902
3.99014
3.99008
3.99002
3.98996
3.9899
3.98984
3.98978
3.98972
3.98966
3.9896
3.98954
3.98948
3.98942
3.98936
3.9893
3.98924
3.98918
3.98912
3.98906
3.989
3.98894
3.98889
3.98895
3.98975
3.98538
3.98528
3.9852
3.98514
3.9851
3.98508
3.98509
3.98511
3.98515
3.9852
3.98528
3.98537
3.98549
3.98562
3.98576
3.98592
3.9861
3.98914
3.98908
3.98903
3.98896
3.9889
3.98884
3.98878
3.98872
3.98866
3.98859
3.98853
3.98846
3.9884
3.98833
3.98826
3.98819
3.98813
3.98806
3.98799
3.98792
3.98785
3.98777
3.9877
3.98763
3.98755
3.98748
3.9874
3.98733
3.98725
3.98717
3.98709
3.98701
3.98693
3.98685
3.98676
3.98668
3.98659
3.98651
3.98642
3.98633
3.98624
3.98615
3.98606
3.98597
3.98587
3.98578
3.98568
3.98559
3.98549
3.98539
3.98529
3.98518
3.98508
3.98497
3.98487
3.98476
3.98465
3.98454
3.98442
3.98431
3.98419
3.98408
3.98396
3.98384
3.98371
3.98359
3.98346
3.98334
3.98321
3.98307
3.98294
3.9828
3.98267
3.98253
3.98239
3.98224
3.9821
3.98195
3.9818
3.98164
3.98149
3.98133
3.98117
3.98101
3.98084
3.98067
3.9805
3.98033
3.98015
3.97998
3.97979
3.97961
3.97942
3.97923
3.97904
3.97885
3.97865
3.97845
3.97825
3.97804
3.97783
3.97762
3.97741
3.97719
3.97698
3.97675
3.97653
3.97631
3.97608
3.97585
3.97562
3.97538
3.97515
3.97491
3.97467
3.97443
3.97418
3.97394
3.97369
3.97345
3.9732
3.97295
3.9727
3.97245
3.97219
3.97194
3.97168
3.97142
3.97116
3.9709
3.97063
3.97036
3.97009
3.96982
3.96954
3.96926
3.96898
3.96869
3.9684
3.9681
3.9678
3.9675
3.96718
3.96687
3.96654
3.96621
3.96587
3.96553
3.96518
3.96482
3.96445
3.96408
3.96369
3.9633
3.9629
3.96248
3.96206
3.96163
3.96119
3.96074
3.96028
3.95981
3.95933
3.95884
3.95833
3.95782
3.9573
3.95676
3.95622
3.95567
3.95511
3.95453
3.95395
3.95337
3.95277
3.95217
3.95156
3.95094
3.95032
3.9497
3.94907
3.94844
3.9478
3.94717
3.94653
3.94589
3.94525
3.94461
3.94397
3.94332
3.94266
3.94267
3.94653
3.96619
3.9659
3.96566
3.96548
3.96536
3.9653
3.96531
3.96537
3.96549
3.96565
3.96587
3.96615
3.96649
3.96687
3.9673
3.96777
3.97517
3.97495
3.97473
3.9745
3.97428
3.97404
3.97381
3.97357
3.97333
3.97309
3.97285
3.9726
3.97234
3.97209
3.97183
3.97157
3.97131
3.97104
3.97077
3.97049
3.97021
3.96993
3.96964
3.96935
3.96905
3.96875
3.96845
3.96814
3.96783
3.96751
3.96718
3.96685
3.96652
3.96618
3.96583
3.96548
3.96513
3.96476
3.9644
3.96402
3.96364
3.96325
3.96286
3.96246
3.96206
3.96164
3.96123
3.9608
3.96037
3.95994
3.9595
3.95905
3.95859
3.95813
3.95767
3.95719
3.95672
3.95623
3.95574
3.95525
3.95475
3.95424
3.95373
3.95321
3.95269
3.95216
3.95163
3.95109
3.95055
3.95
3.94945
3.94889
3.94832
3.94775
3.94717
3.94659
3.946
3.94541
3.9448
3.94419
3.94357
3.94295
3.94231
3.94167
3.94101
3.94035
3.93968
3.93899
3.9383
3.93759
3.93687
3.93614
3.9354
3.93465
3.93388
3.9331
3.9323
3.93149
3.93067
3.92983
3.92897
3.9281
3.92721
3.92631
3.92539
3.92446
3.9235
3.92253
3.92154
3.92054
3.91951
3.91847
3.91742
3.91634
3.91525
3.91414
3.91302
3.91188
3.91073
3.90956
3.90838
3.90718
3.90597
3.90475
3.90352
3.90228
3.90102
3.89976
3.89848
3.8972
3.8959
3.89459
3.89327
3.89194
3.89059
3.88923
3.88785
3.88646
3.88505
3.88362
3.88218
3.88071
3.87922
3.87771
3.87618
3.87462
3.87303
3.87141
3.86976
3.86809
3.86637
3.86463
3.86284
3.86102
3.85916
3.85726
3.85531
3.85332
3.85129
3.84921
3.84709
3.84491
3.84269
3.84042
3.83809
3.83572
3.83329
3.83082
3.82829
3.82571
3.82309
3.82041
3.81768
3.81491
3.81209
3.80923
3.80633
3.80338
3.8004
3.79738
3.79434
3.79126
3.78817
3.78505
3.78192
3.77877
3.77564
3.77249
3.76936
3.76624
3.76308
3.76104
3.77174
3.92248
3.9218
3.92127
3.92088
3.92063
3.92052
3.92056
3.92074
3.92108
3.92148
3.92204
3.92275
3.92359
3.92454
3.9256
3.92677
3.93784
3.93712
3.93638
3.93564
3.93489
3.93412
3.93334
3.93255
3.93176
3.93094
3.93012
3.92929
3.92845
3.92759
3.92673
3.92585
3.92497
3.92407
3.92316
3.92224
3.92131
3.92037
3.91942
3.91845
3.91748
3.91649
3.91549
3.91448
3.91346
3.91242
3.91136
3.9103
3.90921
3.90812
3.907
3.90587
3.90473
3.90357
3.90239
3.90119
3.89997
3.89874
3.89748
3.89621
3.89491
3.8936
3.89226
3.89091
3.88953
3.88813
3.88671
3.88527
3.8838
3.88231
3.8808
3.87926
3.87771
3.87612
3.87452
3.87288
3.87123
3.86955
3.86785
3.86612
3.86437
3.86259
3.86079
3.85896
3.85711
3.85524
3.85334
3.85141
3.84947
3.8475
3.8455
3.84348
3.84143
3.83936
3.83726
3.83512
3.83296
3.83077
3.82855
3.8263
3.82401
3.82168
3.81932
3.81693
3.81449
3.81202
3.80951
3.80696
3.80436
3.80173
3.79904
3.79632
3.79355
3.79073
3.78786
3.78495
3.78198
3.77896
3.77589
3.77277
3.76959
3.76635
3.76306
3.75971
3.75631
3.75285
3.74933
3.74576
3.74213
3.73844
3.73471
3.73092
3.72708
3.72319
3.71926
3.71528
3.71126
3.7072
3.70311
3.69898
3.69483
3.69065
3.68646
3.68225
3.67803
3.67381
3.66957
3.66533
3.66108
3.65682
3.65255
3.64827
3.64397
3.63966
3.63533
3.63098
3.62661
3.62221
3.61779
3.61333
3.60884
3.60431
3.59973
3.59511
3.59043
3.58569
3.5809
3.57603
3.57109
3.56607
3.56096
3.55576
3.55046
3.54506
3.53954
3.5339
3.52814
3.52225
3.51622
3.51004
3.50372
3.49724
3.49059
3.48378
3.4768
3.46965
3.46232
3.45481
3.44712
3.43924
3.43119
3.42296
3.41454
3.40596
3.39718
3.38827
3.37916
3.36995
3.36051
3.35104
3.34131
3.3316
3.32164
3.31172
3.30187
3.2918
3.28291
3.27182
3.27964
3.82973
3.82839
3.82737
3.82666
3.82625
3.82617
3.82639
3.8269
3.82773
3.8287
3.83001
3.83164
3.83353
3.83566
3.83802
3.84613
3.84417
3.84217
3.84014
3.83809
3.836
3.83389
3.83174
3.82956
3.82735
3.82511
3.82284
3.82054
3.8182
3.81584
3.81344
3.81101
3.80855
3.80606
3.80353
3.80098
3.7984
3.79578
3.79313
3.79046
3.78775
3.78501
3.78223
3.77942
3.77658
3.77369
3.77077
3.76781
3.76481
3.76176
3.75867
3.75554
3.75236
3.74912
3.74584
3.74251
3.73913
3.73569
3.73219
3.72864
3.72504
3.72137
3.71765
3.71386
3.71002
3.70611
3.70214
3.69811
3.69402
3.68986
3.68565
3.68137
3.67703
3.67263
3.66817
3.66366
3.65908
3.65446
3.64977
3.64504
3.64026
3.63542
3.63054
3.62562
3.62066
3.61566
3.61062
3.60555
3.60045
3.59533
3.59019
3.58503
3.57984
3.57462
3.56938
3.56411
3.55881
3.55347
3.5481
3.5427
3.53725
3.53176
3.52623
3.52065
3.51502
3.50934
3.50361
3.49781
3.49195
3.48603
3.48003
3.47396
3.46781
3.46158
3.45526
3.44885
3.44234
3.43572
3.429
3.42216
3.41521
3.40814
3.40095
3.39363
3.38619
3.37862
3.37092
3.36309
3.35513
3.34704
3.33883
3.3305
3.32205
3.31348
3.3048
3.29602
3.28714
3.27816
3.2691
3.25996
3.25074
3.24146
3.23212
3.2228
3.21354
3.20435
3.19525
3.18623
3.1773
3.16847
3.15974
3.15111
3.14259
3.13417
3.12588
3.1177
3.10964
3.1017
3.09389
3.0862
3.07864
3.07121
3.06391
3.05674
3.0497
3.0428
3.03603
3.02939
3.02289
3.01653
3.01031
3.00423
2.99829
2.9925
2.98685
2.98136
2.97601
2.97081
2.96577
2.96088
2.95614
2.95157
2.94714
2.94289
2.93878
2.93484
2.93106
2.92744
2.92396
2.92067
2.9175
2.91453
2.91166
2.90901
2.90643
2.9041
2.9018
2.8998
2.89775
2.89609
2.89428
2.89298
2.89137
2.89043
2.88898
2.88842
2.88709
2.89329
3.66015
3.65767
3.65576
3.6544
3.65359
3.65332
3.65365
3.65446
3.65582
3.65776
3.65979
3.6625
3.66577
3.66949
3.67364
3.67818
3.65204
3.64765
3.64319
3.63867
3.63408
3.62943
3.62472
3.61994
3.6151
3.61019
3.60521
3.60017
3.59507
3.58991
3.58468
3.5794
3.57405
3.56866
3.5632
3.5577
3.55215
3.54655
3.54091
3.53523
3.52951
3.52376
3.51799
3.51219
3.50637
3.50052
3.49463
3.48872
3.48278
3.4768
3.47078
3.46473
3.45864
3.45251
3.44633
3.4401
3.43383
3.4275
3.42111
3.41466
3.40816
3.40158
3.39494
3.38823
3.38144
3.37458
3.36763
3.36061
3.3535
3.3463
3.33901
3.33164
3.32418
3.31663
3.30899
3.30127
3.29346
3.28556
3.27759
3.26954
3.26142
3.25323
3.24497
3.23666
3.2283
3.21989
3.21144
3.20296
3.19444
3.18591
3.17737
3.16888
3.16047
3.15212
3.14386
3.13566
3.12755
3.11953
3.11158
3.10373
3.09597
3.0883
3.08073
3.07327
3.06591
3.05866
3.05152
3.04451
3.03761
3.03084
3.0242
3.01769
3.0113
3.00506
2.99894
2.99296
2.98712
2.98141
2.97583
2.97039
2.96508
2.95991
2.95487
2.94997
2.9452
2.94057
2.93606
2.93169
2.92746
2.92335
2.91938
2.91553
2.91182
2.90823
2.90477
2.90144
2.89823
2.89515
2.8922
2.88937
2.88666
2.88409
2.88164
2.87932
2.87711
2.875
2.87299
2.87108
2.86928
2.86757
2.86596
2.86446
2.86305
2.86174
2.86053
2.85942
2.8584
2.85748
2.85665
2.85591
2.85525
2.85467
2.85417
2.85375
2.85339
2.85309
2.85285
2.85266
2.85252
2.85241
2.85234
2.8523
2.85228
2.85227
2.85227
2.85227
2.85227
2.85226
2.85224
2.8522
2.85214
2.85204
2.85192
2.85175
2.85157
2.85131
2.85105
2.8507
2.85036
2.84989
2.84947
2.84888
2.84838
2.84766
2.84708
2.84624
2.84558
2.8446
2.84386
2.84275
2.8419
2.84068
2.83972
2.83841
2.83729
2.836
2.8347
2.8333
2.83363
3.39795
3.39545
3.39379
3.39292
3.39282
3.39355
3.39495
3.39718
3.40016
3.40358
3.40737
3.41207
3.4175
3.33513
3.32833
3.32148
3.31459
3.30764
3.30064
3.29358
3.28647
3.27929
3.27206
3.26476
3.25741
3.25
3.24253
3.235
3.22742
3.21978
3.2121
3.20437
3.19661
3.1888
3.18097
3.17311
3.16523
3.15733
3.14942
3.14155
3.13375
3.12602
3.11837
3.11079
3.1033
3.0959
3.08858
3.08136
3.07423
3.0672
3.06026
3.05343
3.04669
3.04006
3.03354
3.02712
3.02082
3.01462
3.00853
3.00256
2.9967
2.99095
2.98532
2.9798
2.97441
2.96913
2.96397
2.95893
2.95401
2.94921
2.94453
2.93997
2.93553
2.93122
2.92702
2.92295
2.919
2.91516
2.91145
2.90785
2.90437
2.90101
2.89776
2.89463
2.8916
2.88869
2.88589
2.8832
2.88059
2.87807
2.87563
2.87326
2.87098
2.86877
2.86664
2.86459
2.86261
2.8607
2.85886
2.8571
2.85541
2.85378
2.85223
2.85075
2.84935
2.84801
2.84674
2.84555
2.84442
2.84336
2.84236
2.84144
2.84057
2.83977
2.83903
2.83835
2.83773
2.83716
2.83664
2.83618
2.83576
2.83539
2.83506
2.83478
2.83454
2.83433
2.83416
2.83402
2.8339
2.83381
2.83375
2.8337
2.83367
2.83365
2.83364
2.83364
2.83364
2.83364
2.83364
2.83363
2.83361
2.83357
2.83352
2.83345
2.83335
2.83322
2.83307
2.83287
2.83264
2.83237
2.83205
2.83169
2.83128
2.83083
2.83032
2.82976
2.82915
2.82849
2.82779
2.82704
2.82625
2.82542
2.82456
2.82366
2.82274
2.82179
2.82082
2.81983
2.81883
2.81783
2.81681
2.8158
2.81478
2.81377
2.81276
2.81176
2.81077
2.80979
2.80881
2.80785
2.80689
2.80596
2.80503
2.80412
2.80322
2.80234
2.80147
2.80062
2.79977
2.79895
2.79815
2.79737
2.7966
2.79586
2.79512
2.79439
2.79366
2.79294
2.79223
2.79152
2.79084
2.79014
2.78951
2.78885
2.78824
2.78889
3.09906
3.09877
3.09939
3.1009
3.10304
3.10585
3.10943
3.11394
3.1194
3.12412
3.12984
3.13659
3.144
3.00067
2.99509
2.98962
2.98426
2.97901
2.97388
2.96885
2.96395
2.95915
2.95447
2.94991
2.94545
2.94111
2.93689
2.93277
2.92877
2.92487
2.92108
2.9174
2.91383
2.91036
2.907
2.90373
2.90057
2.89751
2.89456
2.89168
2.88888
2.88616
2.88352
2.88095
2.87846
2.87604
2.87369
2.87141
2.8692
2.86706
2.86499
2.86299
2.86105
2.85917
2.85736
2.85561
2.85392
2.85228
2.8507
2.84917
2.8477
2.84628
2.84491
2.84359
2.84231
2.84108
2.8399
2.83876
2.83766
2.83661
2.8356
2.83463
2.8337
2.83281
2.83196
2.83115
2.83038
2.82965
2.82896
2.82831
2.8277
2.82713
2.8266
2.82611
2.82566
2.82525
2.82488
2.82455
2.82425
2.82399
2.82377
2.82358
2.82342
2.82329
2.82319
2.82311
2.82305
2.82301
2.82299
2.82298
2.82298
2.82299
2.823
2.82302
2.82303
2.82304
2.82303
2.82301
2.82298
2.82293
2.82285
2.82274
2.82261
2.82245
2.82226
2.82203
2.82178
2.82149
2.82116
2.8208
2.82041
2.81998
2.81953
2.81905
2.81853
2.818
2.81744
2.81685
2.81625
2.81563
2.81499
2.81434
2.81367
2.813
2.81232
2.81163
2.81094
2.81025
2.80956
2.80887
2.80818
2.8075
2.80682
2.80615
2.80548
2.80482
2.80417
2.80353
2.80289
2.80226
2.80164
2.80104
2.80045
2.79986
2.79927
2.79868
2.7981
2.79752
2.79694
2.79637
2.7958
2.79524
2.79468
2.79413
2.79358
2.79303
2.79249
2.79195
2.79141
2.79088
2.79034
2.78981
2.78927
2.78873
2.78819
2.78764
2.78709
2.78654
2.78599
2.78543
2.78486
2.78428
2.7837
2.78309
2.78247
2.78182
2.78115
2.78046
2.77974
2.77898
2.77819
2.77734
2.77644
2.7755
2.77455
2.7736
2.77263
2.77167
2.77069
2.76969
2.76869
2.76766
2.76663
2.76554
2.76447
2.7646
2.87724
2.8812
2.88565
2.89063
2.89602
2.90171
2.90779
2.91296
2.91966
2.92686
2.9335
2.94053
2.94806
2.95589
2.85892
2.85719
2.85551
2.85388
2.85229
2.85076
2.84927
2.84783
2.84643
2.84508
2.84376
2.84249
2.84126
2.84006
2.8389
2.83778
2.8367
2.83565
2.83463
2.83364
2.83269
2.83177
2.83088
2.83002
2.82919
2.8284
2.82764
2.8269
2.8262
2.82553
2.82488
2.82427
2.82369
2.82314
2.82261
2.82212
2.82166
2.82122
2.82081
2.82044
2.82008
2.81976
2.81946
2.81918
2.81893
2.8187
2.81849
2.81829
2.81812
2.81796
2.81782
2.81769
2.81757
2.81746
2.81736
2.81727
2.81718
2.8171
2.81701
2.81693
2.81685
2.81676
2.81667
2.81657
2.81646
2.81634
2.81621
2.81607
2.81591
2.81574
2.81555
2.81535
2.81512
2.81488
2.81461
2.81433
2.81402
2.8137
2.81335
2.81299
2.81261
2.81222
2.81181
2.81139
2.81096
2.81053
2.81009
2.80964
2.80919
2.80874
2.80829
2.80783
2.80738
2.80693
2.80648
2.80603
2.80558
2.80513
2.80469
2.80425
2.8038
2.80336
2.80293
2.80249
2.80204
2.80159
2.80114
2.80068
2.80022
2.79976
2.7993
2.79883
2.79837
2.79791
2.79745
2.797
2.79654
2.79609
2.79564
2.79519
2.79474
2.7943
2.79385
2.79341
2.79296
2.79251
2.79206
2.7916
2.79113
2.79065
2.79015
2.78964
2.78911
2.78857
2.788
2.78741
2.7868
2.78616
2.78547
2.78475
2.78402
2.7833
2.78257
2.78184
2.7811
2.78036
2.77961
2.77885
2.77807
2.77729
2.77649
2.77567
2.77484
2.77399
2.77312
2.77223
2.77132
2.77038
2.76943
2.76844
2.76744
2.76641
2.76535
2.76426
2.76313
2.76198
2.76079
2.75956
2.7583
2.757
2.75566
2.75429
2.75288
2.75144
2.74996
2.74846
2.74692
2.74537
2.74379
2.7422
2.74059
2.73894
2.73725
2.73552
2.73375
2.73193
2.73006
2.72816
2.72619
2.72421
2.72215
2.72015
2.72038
2.79069
2.79778
2.80459
2.81081
2.81835
2.82561
2.83248
2.83991
2.84752
2.85489
2.86233
2.86996
2.87766
2.88535
2.822
2.82149
2.82099
2.82051
2.82006
2.81962
2.8192
2.81879
2.81841
2.81805
2.8177
2.81737
2.81707
2.81677
2.8165
2.81624
2.816
2.81578
2.81558
2.81538
2.81521
2.81505
2.81489
2.81475
2.81462
2.8145
2.81438
2.81427
2.81415
2.81404
2.81392
2.8138
2.81367
2.81354
2.81339
2.81324
2.81308
2.81291
2.81272
2.81253
2.81232
2.8121
2.81186
2.81162
2.81137
2.8111
2.81083
2.81055
2.81027
2.80997
2.80967
2.80937
2.80906
2.80875
2.80844
2.80812
2.8078
2.80748
2.80716
2.80684
2.80652
2.80619
2.80587
2.80555
2.80523
2.8049
2.80458
2.80426
2.80394
2.80362
2.8033
2.80298
2.80264
2.80231
2.80197
2.80162
2.80127
2.80092
2.80057
2.80021
2.79986
2.7995
2.79913
2.79877
2.7984
2.79803
2.79766
2.79728
2.7969
2.79651
2.79611
2.79571
2.7953
2.79487
2.79444
2.79399
2.79354
2.79307
2.79258
2.79209
2.79157
2.79103
2.79047
2.7899
2.78933
2.78875
2.78817
2.78758
2.78698
2.78638
2.78577
2.78514
2.78451
2.78387
2.78321
2.78255
2.78186
2.78117
2.78045
2.77972
2.77896
2.77819
2.7774
2.77658
2.77574
2.77487
2.77398
2.77306
2.77211
2.77115
2.77016
2.76914
2.76811
2.76705
2.76598
2.76489
2.76378
2.76266
2.76153
2.7604
2.75925
2.75806
2.75685
2.75562
2.75435
2.75305
2.75171
2.75035
2.74894
2.7475
2.74603
2.74452
2.74296
2.74137
2.73974
2.73806
2.73634
2.73458
2.73277
2.73092
2.72902
2.72707
2.72507
2.72303
2.72094
2.71879
2.7166
2.71436
2.71208
2.70974
2.70736
2.70493
2.70246
2.69994
2.69737
2.69476
2.69209
2.68938
2.68661
2.68378
2.6809
2.67795
2.67493
2.67185
2.6687
2.66549
2.6622
2.65886
2.65543
2.65203
2.64853
2.64543
2.64631
2.76345
2.77158
2.77919
2.78681
2.79466
2.80241
2.81019
2.81811
2.82579
2.83343
2.84109
2.84884
2.85664
2.86409
2.81309
2.81292
2.81274
2.81254
2.81235
2.81216
2.81196
2.81175
2.81155
2.81134
2.81111
2.81088
2.81066
2.81042
2.81018
2.80993
2.80968
2.80942
2.80916
2.8089
2.80864
2.80837
2.8081
2.80783
2.80756
2.8073
2.80703
2.80676
2.80649
2.80623
2.80596
2.8057
2.80545
2.80519
2.80494
2.8047
2.80444
2.80419
2.80393
2.80367
2.80341
2.80314
2.80287
2.80259
2.80231
2.80203
2.80174
2.80145
2.80116
2.80086
2.80056
2.80026
2.79995
2.79963
2.79931
2.79899
2.79866
2.79832
2.79798
2.79763
2.79727
2.7969
2.79653
2.79615
2.79576
2.79535
2.79494
2.79451
2.79406
2.79359
2.79311
2.79263
2.79214
2.79165
2.79116
2.79065
2.79014
2.78962
2.78909
2.78855
2.788
2.78743
2.78685
2.78626
2.78565
2.78503
2.78439
2.78374
2.78307
2.78238
2.78168
2.78096
2.78023
2.77948
2.77872
2.77794
2.77715
2.77635
2.77553
2.77469
2.77385
2.77299
2.77213
2.77126
2.77036
2.76944
2.76851
2.76754
2.76656
2.76555
2.76451
2.76344
2.76234
2.76122
2.76007
2.75888
2.75766
2.75641
2.75513
2.75381
2.75246
2.75107
2.74965
2.7482
2.74671
2.74519
2.74363
2.74204
2.74042
2.73877
2.73709
2.73537
2.73363
2.73185
2.73004
2.72819
2.72631
2.72439
2.72243
2.72042
2.71837
2.71626
2.71411
2.7119
2.70964
2.70733
2.70496
2.70254
2.70006
2.69752
2.69493
2.69228
2.68957
2.6868
2.68397
2.68107
2.67812
2.6751
2.67202
2.66887
2.66566
2.66238
2.65904
2.65563
2.65215
2.64861
2.64501
2.64133
2.63759
2.63377
2.62989
2.62594
2.62191
2.6178
2.61363
2.60937
2.60504
2.60062
2.59612
2.59154
2.58688
2.58214
2.57731
2.57239
2.56738
2.5623
2.5571
2.55187
2.54653
2.54137
2.53612
2.53226
2.53464
2.75061
2.75887
2.767
2.77518
2.78325
2.79125
2.79951
2.80768
2.8155
2.82335
2.83108
2.83891
2.84683
2.80625
2.80602
2.8058
2.80555
2.8053
2.80509
2.80486
2.80462
2.80439
2.80417
2.80393
2.80368
2.80345
2.80321
2.80296
2.80271
2.80246
2.80221
2.80195
2.80169
2.80143
2.80116
2.80089
2.80061
2.80033
2.80004
2.79974
2.79944
2.79913
2.79881
2.79848
2.79815
2.7978
2.79744
2.79706
2.79667
2.79626
2.79586
2.79546
2.79505
2.79464
2.79422
2.79381
2.79338
2.79295
2.79252
2.79208
2.79163
2.79117
2.7907
2.79023
2.78974
2.78925
2.78874
2.78822
2.78769
2.78715
2.78659
2.78603
2.78544
2.78485
2.78424
2.78362
2.78298
2.78233
2.78166
2.78098
2.78029
2.77958
2.77887
2.77815
2.77741
2.77665
2.77588
2.77508
2.77426
2.77343
2.77257
2.77168
2.77078
2.76985
2.7689
2.76792
2.76692
2.7659
2.76485
2.76378
2.76269
2.76157
2.76044
2.75928
2.75809
2.75689
2.75566
2.7544
2.75313
2.75182
2.7505
2.74914
2.74776
2.74635
2.74492
2.74344
2.74194
2.74039
2.7388
2.73718
2.73551
2.73381
2.73206
2.73027
2.72843
2.72655
2.72462
2.72265
2.72063
2.71857
2.71646
2.7143
2.7121
2.70985
2.70755
2.7052
2.70281
2.70037
2.69787
2.69533
2.69274
2.69009
2.6874
2.68465
2.68184
2.67897
2.67605
2.67307
2.67002
2.66691
2.66373
2.66049
2.65718
2.65379
2.65034
2.64682
2.64322
2.63956
2.63582
2.632
2.62811
2.62415
2.62011
2.61599
2.61179
2.60752
2.60316
2.59873
2.59421
2.58961
2.58494
2.58017
2.57533
2.5704
2.56538
2.56028
2.55509
2.54982
2.54446
2.53901
2.53347
2.52784
2.52212
2.51631
2.5104
2.5044
2.4983
2.49211
2.48583
2.47944
2.47297
2.46639
2.45972
2.45295
2.44608
2.43911
2.43204
2.42485
2.41757
2.41017
2.40281
2.39541
2.38852
2.38162
2.37802
2.38308
2.7422
2.75039
2.75865
2.76693
2.77498
2.78297
2.79145
2.7996
2.80741
2.81531
2.82296
2.83083
2.8388
2.79927
2.79894
2.7986
2.79829
2.79794
2.79755
2.79719
2.79684
2.79646
2.79608
2.7957
2.79532
2.79493
2.79454
2.79414
2.79374
2.79333
2.79291
2.79249
2.79205
2.79161
2.79116
2.7907
2.79023
2.78975
2.78926
2.78876
2.78824
2.78772
2.78718
2.78664
2.78609
2.78553
2.78497
2.7844
2.78382
2.78323
2.78263
2.78202
2.78139
2.78075
2.7801
2.77943
2.77874
2.77805
2.77733
2.7766
2.77585
2.77508
2.77429
2.77349
2.77267
2.77182
2.77096
2.77008
2.76918
2.76826
2.76731
2.76635
2.76537
2.76436
2.76333
2.76228
2.76121
2.76012
2.759
2.75786
2.75669
2.75549
2.75426
2.753
2.75171
2.75039
2.74903
2.74764
2.74622
2.74476
2.74327
2.74175
2.7402
2.73861
2.73698
2.73533
2.73364
2.73191
2.73015
2.72835
2.72652
2.72465
2.72275
2.7208
2.71881
2.71678
2.71471
2.71259
2.71043
2.70822
2.70596
2.70365
2.70129
2.69888
2.69641
2.69388
2.69131
2.68867
2.68598
2.68323
2.68042
2.67755
2.67462
2.67163
2.66858
2.66546
2.66229
2.65905
2.65574
2.65238
2.64894
2.64544
2.64188
2.63824
2.63454
2.63076
2.62691
2.62299
2.619
2.61493
2.61079
2.60656
2.60226
2.59788
2.59342
2.58887
2.58424
2.57953
2.57473
2.56985
2.56488
2.55982
2.55468
2.54945
2.54413
2.53872
2.53322
2.52763
2.52195
2.51618
2.51031
2.50435
2.4983
2.49215
2.48591
2.47957
2.47313
2.4666
2.45997
2.45324
2.44642
2.43949
2.43247
2.42535
2.41813
2.41081
2.40339
2.39587
2.38824
2.38052
2.3727
2.36478
2.35675
2.34863
2.34041
2.33208
2.32366
2.31514
2.30652
2.29779
2.28897
2.28005
2.27102
2.26188
2.25263
2.24326
2.23384
2.22435
2.21508
2.206
2.19792
2.19034
2.18772
2.19689
2.74339
2.75186
2.76015
2.7682
2.77623
2.78495
2.79281
2.80061
2.80856
2.816
2.82394
2.83171
2.78968
2.7892
2.78872
2.78824
2.78774
2.78724
2.78673
2.78622
2.78569
2.78515
2.7846
2.78404
2.78346
2.78288
2.78228
2.78167
2.78105
2.78041
2.77976
2.7791
2.77842
2.77772
2.77701
2.77629
2.77555
2.7748
2.77403
2.77324
2.77245
2.77163
2.77081
2.76996
2.7691
2.76823
2.76733
2.76642
2.76548
2.76452
2.76354
2.76253
2.76151
2.76046
2.75938
2.75828
2.75716
2.756
2.75483
2.75362
2.75239
2.75114
2.74985
2.74853
2.74719
2.74582
2.74441
2.74298
2.74151
2.74001
2.73848
2.73692
2.73532
2.73369
2.73201
2.73031
2.72856
2.72677
2.72494
2.72307
2.72116
2.7192
2.7172
2.71516
2.71307
2.71093
2.70875
2.70653
2.70425
2.70193
2.69956
2.69715
2.69468
2.69217
2.68961
2.68699
2.68432
2.6816
2.67883
2.676
2.67311
2.67017
2.66716
2.66409
2.66097
2.65777
2.65452
2.65119
2.6478
2.64435
2.64082
2.63723
2.63356
2.62982
2.62602
2.62214
2.61818
2.61415
2.61005
2.60587
2.60162
2.59729
2.59287
2.58838
2.58381
2.57916
2.57443
2.56961
2.56471
2.55973
2.55466
2.5495
2.54426
2.53893
2.53351
2.52801
2.52241
2.51672
2.51094
2.50506
2.4991
2.49304
2.48689
2.48064
2.4743
2.46786
2.46133
2.4547
2.44797
2.44115
2.43422
2.4272
2.42009
2.41287
2.40555
2.39814
2.39062
2.383
2.37528
2.36747
2.35955
2.35153
2.34341
2.33519
2.32687
2.31845
2.30993
2.30131
2.29259
2.28377
2.27486
2.26585
2.25674
2.24753
2.23822
2.22883
2.21933
2.20975
2.20006
2.19029
2.18043
2.17047
2.16042
2.15028
2.14005
2.12973
2.11932
2.10882
2.09823
2.08755
2.07677
2.06589
2.0549
2.04382
2.03264
2.0215
2.01045
1.99991
1.98988
1.98145
1.97428
1.973
1.98696
2.73715
2.74568
2.75381
2.76175
2.76991
2.77855
2.78604
2.79389
2.80179
2.80896
2.77652
2.77583
2.77512
2.7744
2.77366
2.77291
2.77213
2.77134
2.77054
2.76971
2.76887
2.768
2.76712
2.76622
2.7653
2.76436
2.76339
2.76241
2.76141
2.76038
2.75933
2.75827
2.75718
2.75606
2.75493
2.75377
2.75258
2.75138
2.75014
2.74888
2.7476
2.74628
2.74494
2.74357
2.74216
2.74073
2.73926
2.73776
2.73623
2.73467
2.73307
2.73143
2.72976
2.72806
2.72631
2.72453
2.72272
2.72086
2.71896
2.71703
2.71505
2.71303
2.71097
2.70886
2.70671
2.70451
2.70227
2.69998
2.69764
2.69525
2.69282
2.69033
2.68778
2.68519
2.68254
2.67984
2.67708
2.67426
2.67138
2.66845
2.66546
2.66241
2.6593
2.65613
2.6529
2.6496
2.64624
2.64282
2.63933
2.63578
2.63216
2.62847
2.62471
2.62089
2.61699
2.61302
2.60898
2.60486
2.60067
2.5964
2.59206
2.58764
2.58313
2.57855
2.57389
2.56914
2.56431
2.5594
2.55441
2.54933
2.54417
2.53892
2.53358
2.52816
2.52265
2.51706
2.51137
2.5056
2.49973
2.49377
2.48772
2.48158
2.47534
2.46902
2.46259
2.45607
2.44946
2.44275
2.43595
2.42905
2.42205
2.41496
2.40777
2.40048
2.3931
2.38562
2.37804
2.37036
2.36259
2.35472
2.34675
2.33868
2.33051
2.32225
2.31388
2.30542
2.29686
2.2882
2.27944
2.27059
2.26164
2.25259
2.24344
2.2342
2.22486
2.21543
2.2059
2.19628
2.18657
2.17676
2.16687
2.15688
2.14681
2.13665
2.1264
2.11607
2.10565
2.09515
2.08456
2.07389
2.06314
2.0523
2.04139
2.0304
2.01932
2.00817
1.99694
1.98563
1.97424
1.96278
1.95123
1.93961
1.92792
1.91614
1.90429
1.89236
1.88036
1.86827
1.85609
1.84383
1.83146
1.81904
1.8066
1.79436
1.78246
1.77147
1.76132
1.7535
1.74713
1.74775
1.7659
2.73867
2.74656
2.7543
2.76271
2.77082
2.77805
2.78596
2.79368
2.80067
2.75682
2.75575
2.75466
2.75353
2.75238
2.75121
2.75001
2.74878
2.74753
2.74624
2.74494
2.7436
2.74223
2.74084
2.73942
2.73797
2.73648
2.73497
2.73343
2.73185
2.73024
2.7286
2.72692
2.72521
2.72347
2.72168
2.71986
2.71801
2.71611
2.71417
2.7122
2.71018
2.70812
2.70601
2.70387
2.70167
2.69944
2.69716
2.69483
2.69245
2.69003
2.68756
2.68503
2.68246
2.67983
2.67716
2.67442
2.67164
2.6688
2.6659
2.66295
2.65993
2.65686
2.65373
2.65054
2.64728
2.64397
2.64058
2.63714
2.63363
2.63005
2.6264
2.62269
2.61891
2.61505
2.61113
2.60714
2.60307
2.59893
2.59471
2.59042
2.58606
2.58162
2.5771
2.5725
2.56782
2.56307
2.55823
2.55331
2.54831
2.54323
2.53807
2.53281
2.52748
2.52206
2.51655
2.51095
2.50527
2.4995
2.49364
2.48769
2.48165
2.47552
2.4693
2.46298
2.45658
2.45008
2.44349
2.4368
2.43002
2.42315
2.41619
2.40913
2.40197
2.39473
2.38738
2.37995
2.37241
2.36478
2.35706
2.34924
2.34132
2.33331
2.3252
2.31699
2.30869
2.30029
2.2918
2.28321
2.27453
2.26576
2.25688
2.24792
2.23886
2.22971
2.22047
2.21113
2.2017
2.19218
2.18257
2.17288
2.16309
2.15321
2.14324
2.13319
2.12305
2.11283
2.10252
2.09213
2.08165
2.0711
2.06046
2.04974
2.03895
2.02808
2.01713
2.00611
1.99501
1.98384
1.9726
1.96129
1.9499
1.93844
1.92692
1.91532
1.90366
1.89192
1.88012
1.86826
1.85632
1.84433
1.83227
1.82014
1.80796
1.79571
1.7834
1.77104
1.75863
1.74617
1.73366
1.72111
1.70852
1.6959
1.68324
1.67055
1.65783
1.64508
1.63229
1.61945
1.60658
1.59376
1.5811
1.5689
1.55733
1.5471
1.538
1.53151
1.5269
1.52883
1.5494
2.73011
2.73777
2.72998
2.7284
2.72678
2.72512
2.72343
2.7217
2.71993
2.71813
2.71629
2.71441
2.7125
2.71054
2.70855
2.70652
2.70444
2.70233
2.70017
2.69797
2.69573
2.69344
2.6911
2.68872
2.6863
2.68382
2.6813
2.67873
2.6761
2.67343
2.6707
2.66792
2.66509
2.6622
2.65926
2.65626
2.6532
2.65009
2.64692
2.64368
2.64039
2.63704
2.63362
2.63014
2.62659
2.62298
2.61931
2.61556
2.61175
2.60787
2.60393
2.59991
2.59581
2.59165
2.58742
2.58311
2.57872
2.57426
2.56973
2.56512
2.56043
2.55566
2.55081
2.54588
2.54087
2.53578
2.53061
2.52535
2.52001
2.51459
2.50908
2.50349
2.49781
2.49204
2.48618
2.48024
2.47421
2.46808
2.46187
2.45557
2.44918
2.4427
2.43613
2.42946
2.42271
2.41586
2.40893
2.4019
2.39477
2.38756
2.38025
2.37285
2.36535
2.35776
2.35008
2.34231
2.33444
2.32648
2.31842
2.31027
2.30203
2.2937
2.28527
2.27675
2.26814
2.25944
2.25065
2.24177
2.2328
2.22374
2.21459
2.20534
2.19601
2.18659
2.17709
2.16749
2.15781
2.14805
2.13819
2.12826
2.11824
2.10814
2.09796
2.0877
2.07736
2.06694
2.05644
2.04586
2.03522
2.02449
2.01369
2.00282
1.99188
1.98086
1.96978
1.95862
1.9474
1.93611
1.92475
1.91333
1.90184
1.89029
1.87867
1.86699
1.85526
1.84346
1.8316
1.81968
1.80771
1.79568
1.78359
1.77146
1.75927
1.74704
1.73476
1.72243
1.71007
1.69767
1.68524
1.67278
1.6603
1.64779
1.63526
1.62272
1.61017
1.59762
1.58506
1.57249
1.55991
1.54733
1.53476
1.5222
1.50966
1.49714
1.48464
1.47216
1.4597
1.44726
1.43483
1.42239
1.40997
1.39758
1.38536
1.37346
1.36226
1.35192
1.34311
1.33565
1.33068
1.3281
1.33022
1.35069
2.69321
2.69095
2.68865
2.6863
2.68391
2.68146
2.67897
2.67643
2.67384
2.6712
2.66851
2.66577
2.66297
2.66013
2.65723
2.65428
2.65127
2.64821
2.64509
2.64192
2.63868
2.63539
2.63204
2.62862
2.62515
2.62161
2.61801
2.61435
2.61062
2.60682
2.60296
2.59904
2.59504
2.59098
2.58684
2.58264
2.57836
2.57401
2.56959
2.56509
2.56052
2.55588
2.55116
2.54636
2.54148
2.53652
2.53149
2.52638
2.52118
2.51591
2.51055
2.50511
2.49959
2.49399
2.4883
2.48253
2.47667
2.47073
2.4647
2.45858
2.45238
2.44609
2.43971
2.43324
2.42669
2.42004
2.41331
2.40648
2.39957
2.39256
2.38546
2.37827
2.371
2.36363
2.35617
2.34861
2.34097
2.33324
2.32542
2.3175
2.3095
2.3014
2.29322
2.28494
2.27658
2.26812
2.25958
2.25095
2.24223
2.23342
2.22452
2.21553
2.20646
2.1973
2.18805
2.17872
2.1693
2.1598
2.15021
2.14055
2.1308
2.12097
2.11106
2.10108
2.09102
2.08088
2.07066
2.06037
2.05
2.03957
2.02905
2.01847
2.00782
1.9971
1.98631
1.97545
1.96452
1.95353
1.94248
1.93136
1.92018
1.90893
1.89763
1.88626
1.87484
1.86335
1.85181
1.84021
1.82855
1.81684
1.80508
1.79326
1.78139
1.76947
1.7575
1.74548
1.73342
1.72132
1.70918
1.697
1.68479
1.67254
1.66028
1.64798
1.63567
1.62335
1.61101
1.59867
1.58632
1.57397
1.56161
1.54926
1.5369
1.52455
1.51221
1.49989
1.48759
1.47531
1.46305
1.45082
1.43862
1.42645
1.41431
1.40221
1.39016
1.37814
1.36618
1.35427
1.34242
1.33062
1.31888
1.3072
1.29559
1.28404
1.27255
1.26111
1.24972
1.23836
1.22706
1.21586
1.20494
1.1945
1.18491
1.17629
1.1692
1.16355
1.16
1.15912
1.16099
1.17811
2.6447
2.64163
2.6385
2.63531
2.63206
2.62875
2.62538
2.62195
2.61846
2.6149
2.61129
2.60761