/*--------------------------------*- C++ -*----------------------------------*\
| =========                 |                                                 |
| \\      /  F ield         | OpenFOAM: The Open Source CFD Toolbox           |
|  \\    /   O peration     | Version:  v1706                                 |
|   \\  /    A nd           | Web:      www.OpenFOAM.com                      |
|    \\/     M anipulation  |                                                 |
\*---------------------------------------------------------------------------*/
FoamFile
{
    version     2.0;
    format      ascii;
    class       volScalarField;
    location    "1.3e-05";
    object      mu;
}
// * * * * * * * * * * * * * * * * * * * * * * * * * * * * * * * * * * * * * //

dimensions      [1 -1 -1 0 0 0 0];


internalField   nonuniform List<scalar> 
30104
(
1.03557e-05
1.03558e-05
1.03558e-05
1.03558e-05
1.03559e-05
1.03559e-05
1.03559e-05
1.03559e-05
1.03558e-05
1.03558e-05
1.03558e-05
1.03557e-05
1.03557e-05
1.03556e-05
1.03555e-05
1.03554e-05
1.03554e-05
1.03535e-05
1.03535e-05
1.03535e-05
1.03536e-05
1.03536e-05
1.03536e-05
1.03536e-05
1.03536e-05
1.03537e-05
1.03537e-05
1.03537e-05
1.03537e-05
1.03538e-05
1.03538e-05
1.03538e-05
1.03538e-05
1.03539e-05
1.03539e-05
1.03539e-05
1.03539e-05
1.0354e-05
1.0354e-05
1.0354e-05
1.0354e-05
1.03541e-05
1.03541e-05
1.03541e-05
1.03541e-05
1.03542e-05
1.03542e-05
1.03542e-05
1.03542e-05
1.03543e-05
1.03543e-05
1.03543e-05
1.03544e-05
1.03544e-05
1.03544e-05
1.03545e-05
1.03545e-05
1.03545e-05
1.03545e-05
1.03546e-05
1.03546e-05
1.03546e-05
1.03547e-05
1.03547e-05
1.03547e-05
1.03548e-05
1.03548e-05
1.03548e-05
1.03549e-05
1.03549e-05
1.03549e-05
1.0355e-05
1.0355e-05
1.03551e-05
1.03551e-05
1.03551e-05
1.03552e-05
1.03552e-05
1.03552e-05
1.03553e-05
1.03553e-05
1.03554e-05
1.03554e-05
1.03554e-05
1.03555e-05
1.03555e-05
1.03556e-05
1.03556e-05
1.03557e-05
1.03557e-05
1.03557e-05
1.03558e-05
1.03558e-05
1.03559e-05
1.03559e-05
1.0356e-05
1.0356e-05
1.03561e-05
1.03561e-05
1.03562e-05
1.03562e-05
1.03563e-05
1.03563e-05
1.03564e-05
1.03564e-05
1.03565e-05
1.03566e-05
1.03566e-05
1.03567e-05
1.03567e-05
1.03568e-05
1.03569e-05
1.03569e-05
1.0357e-05
1.03571e-05
1.03571e-05
1.03572e-05
1.03573e-05
1.03573e-05
1.03574e-05
1.03575e-05
1.03575e-05
1.03576e-05
1.03577e-05
1.03577e-05
1.03578e-05
1.03579e-05
1.03579e-05
1.0358e-05
1.03581e-05
1.03582e-05
1.03582e-05
1.03583e-05
1.03584e-05
1.03584e-05
1.03585e-05
1.03586e-05
1.03587e-05
1.03587e-05
1.03588e-05
1.03589e-05
1.03589e-05
1.0359e-05
1.03591e-05
1.03592e-05
1.03592e-05
1.03593e-05
1.03594e-05
1.03595e-05
1.03595e-05
1.03596e-05
1.03597e-05
1.03598e-05
1.03599e-05
1.03599e-05
1.036e-05
1.03601e-05
1.03602e-05
1.03603e-05
1.03604e-05
1.03605e-05
1.03606e-05
1.03607e-05
1.03608e-05
1.03609e-05
1.0361e-05
1.03611e-05
1.03612e-05
1.03613e-05
1.03614e-05
1.03615e-05
1.03616e-05
1.03618e-05
1.03619e-05
1.0362e-05
1.03621e-05
1.03623e-05
1.03624e-05
1.03625e-05
1.03627e-05
1.03628e-05
1.0363e-05
1.03631e-05
1.03633e-05
1.03634e-05
1.03636e-05
1.03637e-05
1.03639e-05
1.0364e-05
1.03642e-05
1.03643e-05
1.03645e-05
1.03647e-05
1.03648e-05
1.0365e-05
1.03652e-05
1.03653e-05
1.03655e-05
1.03656e-05
1.03658e-05
1.0366e-05
1.03661e-05
1.03663e-05
1.03664e-05
1.03666e-05
1.03668e-05
1.03669e-05
1.0367e-05
1.03669e-05
1.03646e-05
1.0378e-05
1.03783e-05
1.03785e-05
1.03787e-05
1.03789e-05
1.03789e-05
1.0379e-05
1.03789e-05
1.03788e-05
1.03787e-05
1.03785e-05
1.03782e-05
1.03779e-05
1.03776e-05
1.03772e-05
1.03768e-05
1.03763e-05
1.03672e-05
1.03673e-05
1.03675e-05
1.03677e-05
1.03678e-05
1.0368e-05
1.03682e-05
1.03683e-05
1.03685e-05
1.03687e-05
1.03688e-05
1.0369e-05
1.03692e-05
1.03694e-05
1.03696e-05
1.03697e-05
1.03699e-05
1.03701e-05
1.03703e-05
1.03705e-05
1.03707e-05
1.03709e-05
1.03711e-05
1.03713e-05
1.03715e-05
1.03717e-05
1.03719e-05
1.03721e-05
1.03723e-05
1.03725e-05
1.03728e-05
1.0373e-05
1.03732e-05
1.03734e-05
1.03737e-05
1.03739e-05
1.03742e-05
1.03744e-05
1.03747e-05
1.03749e-05
1.03752e-05
1.03754e-05
1.03757e-05
1.0376e-05
1.03762e-05
1.03765e-05
1.03768e-05
1.03771e-05
1.03774e-05
1.03777e-05
1.03779e-05
1.03782e-05
1.03785e-05
1.03789e-05
1.03792e-05
1.03795e-05
1.03798e-05
1.03801e-05
1.03804e-05
1.03808e-05
1.03811e-05
1.03814e-05
1.03817e-05
1.03821e-05
1.03824e-05
1.03828e-05
1.03831e-05
1.03835e-05
1.03838e-05
1.03842e-05
1.03845e-05
1.03849e-05
1.03852e-05
1.03856e-05
1.0386e-05
1.03864e-05
1.03867e-05
1.03871e-05
1.03875e-05
1.03879e-05
1.03883e-05
1.03887e-05
1.03891e-05
1.03896e-05
1.039e-05
1.03904e-05
1.03909e-05
1.03913e-05
1.03918e-05
1.03922e-05
1.03927e-05
1.03932e-05
1.03937e-05
1.03941e-05
1.03946e-05
1.03952e-05
1.03957e-05
1.03962e-05
1.03967e-05
1.03973e-05
1.03978e-05
1.03984e-05
1.0399e-05
1.03995e-05
1.04001e-05
1.04007e-05
1.04013e-05
1.04019e-05
1.04025e-05
1.04031e-05
1.04038e-05
1.04044e-05
1.04051e-05
1.04057e-05
1.04064e-05
1.0407e-05
1.04077e-05
1.04083e-05
1.0409e-05
1.04097e-05
1.04104e-05
1.04111e-05
1.04118e-05
1.04125e-05
1.04132e-05
1.04139e-05
1.04146e-05
1.04154e-05
1.04161e-05
1.04168e-05
1.04176e-05
1.04183e-05
1.04191e-05
1.04199e-05
1.04207e-05
1.04215e-05
1.04223e-05
1.04231e-05
1.04239e-05
1.04248e-05
1.04256e-05
1.04265e-05
1.04274e-05
1.04283e-05
1.04293e-05
1.04302e-05
1.04312e-05
1.04322e-05
1.04332e-05
1.04343e-05
1.04353e-05
1.04364e-05
1.04375e-05
1.04387e-05
1.04399e-05
1.04411e-05
1.04423e-05
1.04435e-05
1.04448e-05
1.04461e-05
1.04475e-05
1.04488e-05
1.04502e-05
1.04516e-05
1.04531e-05
1.04546e-05
1.04561e-05
1.04576e-05
1.04592e-05
1.04607e-05
1.04623e-05
1.04639e-05
1.04656e-05
1.04672e-05
1.04689e-05
1.04706e-05
1.04723e-05
1.0474e-05
1.04757e-05
1.04775e-05
1.04792e-05
1.04809e-05
1.04827e-05
1.04844e-05
1.04862e-05
1.04879e-05
1.04896e-05
1.04914e-05
1.04931e-05
1.04948e-05
1.04967e-05
1.04965e-05
1.04852e-05
1.04317e-05
1.04326e-05
1.04334e-05
1.04339e-05
1.04344e-05
1.04346e-05
1.04347e-05
1.04346e-05
1.04344e-05
1.04339e-05
1.04334e-05
1.04327e-05
1.04318e-05
1.04308e-05
1.04297e-05
1.04284e-05
1.04061e-05
1.04067e-05
1.04073e-05
1.04079e-05
1.04086e-05
1.04092e-05
1.04099e-05
1.04106e-05
1.04113e-05
1.0412e-05
1.04127e-05
1.04134e-05
1.04141e-05
1.04148e-05
1.04155e-05
1.04163e-05
1.0417e-05
1.04178e-05
1.04185e-05
1.04193e-05
1.04201e-05
1.04209e-05
1.04217e-05
1.04225e-05
1.04233e-05
1.04242e-05
1.0425e-05
1.04259e-05
1.04267e-05
1.04276e-05
1.04285e-05
1.04294e-05
1.04303e-05
1.04312e-05
1.04322e-05
1.04331e-05
1.04341e-05
1.04351e-05
1.04361e-05
1.04371e-05
1.04381e-05
1.04392e-05
1.04403e-05
1.04413e-05
1.04424e-05
1.04435e-05
1.04447e-05
1.04458e-05
1.0447e-05
1.04482e-05
1.04493e-05
1.04506e-05
1.04518e-05
1.0453e-05
1.04543e-05
1.04556e-05
1.04569e-05
1.04582e-05
1.04595e-05
1.04609e-05
1.04623e-05
1.04636e-05
1.0465e-05
1.04665e-05
1.04679e-05
1.04693e-05
1.04708e-05
1.04723e-05
1.04738e-05
1.04753e-05
1.04768e-05
1.04784e-05
1.048e-05
1.04816e-05
1.04832e-05
1.04848e-05
1.04864e-05
1.04881e-05
1.04898e-05
1.04916e-05
1.04933e-05
1.04951e-05
1.04969e-05
1.04987e-05
1.05006e-05
1.05025e-05
1.05045e-05
1.05065e-05
1.05085e-05
1.05105e-05
1.05126e-05
1.05148e-05
1.05169e-05
1.05192e-05
1.05214e-05
1.05237e-05
1.05261e-05
1.05285e-05
1.05309e-05
1.05334e-05
1.05359e-05
1.05385e-05
1.05411e-05
1.05437e-05
1.05465e-05
1.05492e-05
1.0552e-05
1.05548e-05
1.05577e-05
1.05607e-05
1.05636e-05
1.05666e-05
1.05697e-05
1.05728e-05
1.05759e-05
1.05791e-05
1.05823e-05
1.05855e-05
1.05888e-05
1.05921e-05
1.05954e-05
1.05987e-05
1.06021e-05
1.06055e-05
1.06089e-05
1.06123e-05
1.06158e-05
1.06192e-05
1.06227e-05
1.06262e-05
1.06297e-05
1.06333e-05
1.06369e-05
1.06405e-05
1.06441e-05
1.06478e-05
1.06515e-05
1.06553e-05
1.06591e-05
1.0663e-05
1.06669e-05
1.06708e-05
1.06749e-05
1.0679e-05
1.06831e-05
1.06873e-05
1.06916e-05
1.0696e-05
1.07005e-05
1.07051e-05
1.07097e-05
1.07145e-05
1.07194e-05
1.07243e-05
1.07294e-05
1.07346e-05
1.074e-05
1.07455e-05
1.07511e-05
1.07568e-05
1.07627e-05
1.07687e-05
1.07749e-05
1.07812e-05
1.07877e-05
1.07944e-05
1.08012e-05
1.08082e-05
1.08153e-05
1.08226e-05
1.08301e-05
1.08378e-05
1.08456e-05
1.08535e-05
1.08617e-05
1.087e-05
1.08784e-05
1.0887e-05
1.08957e-05
1.09045e-05
1.09135e-05
1.09226e-05
1.09318e-05
1.09411e-05
1.09504e-05
1.09599e-05
1.09693e-05
1.09788e-05
1.09883e-05
1.09978e-05
1.10073e-05
1.10135e-05
1.09813e-05
1.05563e-05
1.05585e-05
1.05603e-05
1.05617e-05
1.05627e-05
1.05633e-05
1.05634e-05
1.05631e-05
1.05625e-05
1.05615e-05
1.056e-05
1.05582e-05
1.0556e-05
1.05535e-05
1.05506e-05
1.05474e-05
1.05109e-05
1.05129e-05
1.0515e-05
1.0517e-05
1.05191e-05
1.05212e-05
1.05234e-05
1.05256e-05
1.05278e-05
1.05301e-05
1.05324e-05
1.05347e-05
1.0537e-05
1.05394e-05
1.05418e-05
1.05442e-05
1.05467e-05
1.05492e-05
1.05518e-05
1.05543e-05
1.05569e-05
1.05596e-05
1.05622e-05
1.05649e-05
1.05677e-05
1.05704e-05
1.05733e-05
1.05761e-05
1.0579e-05
1.05819e-05
1.05849e-05
1.05879e-05
1.0591e-05
1.05941e-05
1.05973e-05
1.06005e-05
1.06038e-05
1.06071e-05
1.06105e-05
1.0614e-05
1.06175e-05
1.06211e-05
1.06247e-05
1.06284e-05
1.06322e-05
1.0636e-05
1.064e-05
1.06439e-05
1.0648e-05
1.06521e-05
1.06563e-05
1.06606e-05
1.0665e-05
1.06694e-05
1.06739e-05
1.06785e-05
1.06831e-05
1.06879e-05
1.06927e-05
1.06975e-05
1.07025e-05
1.07075e-05
1.07125e-05
1.07177e-05
1.07229e-05
1.07282e-05
1.07335e-05
1.07389e-05
1.07443e-05
1.07498e-05
1.07553e-05
1.07609e-05
1.07666e-05
1.07723e-05
1.0778e-05
1.07838e-05
1.07896e-05
1.07955e-05
1.08015e-05
1.08075e-05
1.08136e-05
1.08198e-05
1.0826e-05
1.08324e-05
1.08388e-05
1.08453e-05
1.08519e-05
1.08586e-05
1.08654e-05
1.08723e-05
1.08793e-05
1.08865e-05
1.08938e-05
1.09012e-05
1.09087e-05
1.09164e-05
1.09242e-05
1.09322e-05
1.09403e-05
1.09486e-05
1.09571e-05
1.09657e-05
1.09745e-05
1.09835e-05
1.09926e-05
1.1002e-05
1.10115e-05
1.10213e-05
1.10312e-05
1.10413e-05
1.10517e-05
1.10622e-05
1.10729e-05
1.10838e-05
1.10949e-05
1.11062e-05
1.11177e-05
1.11294e-05
1.11413e-05
1.11533e-05
1.11655e-05
1.11778e-05
1.11904e-05
1.1203e-05
1.12158e-05
1.12287e-05
1.12417e-05
1.12549e-05
1.1268e-05
1.12813e-05
1.12946e-05
1.13079e-05
1.13214e-05
1.13349e-05
1.13485e-05
1.13621e-05
1.13759e-05
1.13897e-05
1.14036e-05
1.14176e-05
1.14317e-05
1.14459e-05
1.14603e-05
1.14747e-05
1.14893e-05
1.15041e-05
1.15189e-05
1.1534e-05
1.15493e-05
1.15647e-05
1.15804e-05
1.15963e-05
1.16125e-05
1.16289e-05
1.16456e-05
1.16627e-05
1.16801e-05
1.16978e-05
1.17159e-05
1.17344e-05
1.17533e-05
1.17727e-05
1.17925e-05
1.18129e-05
1.18337e-05
1.18551e-05
1.1877e-05
1.18994e-05
1.19225e-05
1.19462e-05
1.19704e-05
1.19953e-05
1.20208e-05
1.20469e-05
1.20737e-05
1.21011e-05
1.21292e-05
1.21579e-05
1.21872e-05
1.22171e-05
1.22476e-05
1.22788e-05
1.23105e-05
1.23429e-05
1.23757e-05
1.24094e-05
1.24431e-05
1.2478e-05
1.25116e-05
1.25469e-05
1.2579e-05
1.26176e-05
1.25832e-05
1.08256e-05
1.083e-05
1.08336e-05
1.08362e-05
1.0838e-05
1.08388e-05
1.08387e-05
1.08378e-05
1.08361e-05
1.08335e-05
1.08301e-05
1.08258e-05
1.08207e-05
1.08149e-05
1.08084e-05
1.07739e-05
1.07797e-05
1.07855e-05
1.07915e-05
1.07976e-05
1.08037e-05
1.081e-05
1.08164e-05
1.08228e-05
1.08294e-05
1.08361e-05
1.08429e-05
1.08498e-05
1.08568e-05
1.08639e-05
1.08711e-05
1.08785e-05
1.08859e-05
1.08934e-05
1.0901e-05
1.09087e-05
1.09165e-05
1.09244e-05
1.09324e-05
1.09405e-05
1.09486e-05
1.09569e-05
1.09652e-05
1.09736e-05
1.09822e-05
1.09908e-05
1.09995e-05
1.10083e-05
1.10173e-05
1.10263e-05
1.10355e-05
1.10448e-05
1.10543e-05
1.10638e-05
1.10736e-05
1.10834e-05
1.10934e-05
1.11036e-05
1.11139e-05
1.11244e-05
1.1135e-05
1.11459e-05
1.11569e-05
1.11681e-05
1.11795e-05
1.11911e-05
1.12029e-05
1.12149e-05
1.12271e-05
1.12396e-05
1.12522e-05
1.12651e-05
1.12781e-05
1.12914e-05
1.13049e-05
1.13187e-05
1.13326e-05
1.13467e-05
1.13611e-05
1.13757e-05
1.13904e-05
1.14054e-05
1.14206e-05
1.14359e-05
1.14515e-05
1.14672e-05
1.14831e-05
1.14991e-05
1.15153e-05
1.15316e-05
1.1548e-05
1.15645e-05
1.15811e-05
1.15979e-05
1.16148e-05
1.16319e-05
1.16491e-05
1.16665e-05
1.1684e-05
1.17018e-05
1.17197e-05
1.17378e-05
1.17561e-05
1.17746e-05
1.17933e-05
1.18123e-05
1.18316e-05
1.18511e-05
1.18708e-05
1.18909e-05
1.19112e-05
1.19319e-05
1.19529e-05
1.19742e-05
1.19959e-05
1.2018e-05
1.20404e-05
1.20633e-05
1.20865e-05
1.21103e-05
1.21344e-05
1.2159e-05
1.21841e-05
1.22097e-05
1.22357e-05
1.22622e-05
1.22892e-05
1.23167e-05
1.23447e-05
1.23732e-05
1.24021e-05
1.24315e-05
1.24614e-05
1.24917e-05
1.25224e-05
1.25535e-05
1.25849e-05
1.26168e-05
1.2649e-05
1.26815e-05
1.27143e-05
1.27474e-05
1.27807e-05
1.28141e-05
1.28473e-05
1.28802e-05
1.29129e-05
1.29453e-05
1.29774e-05
1.30092e-05
1.30407e-05
1.3072e-05
1.31029e-05
1.31335e-05
1.31638e-05
1.31938e-05
1.32234e-05
1.32527e-05
1.32817e-05
1.33103e-05
1.33387e-05
1.33667e-05
1.33943e-05
1.34216e-05
1.34486e-05
1.34753e-05
1.35016e-05
1.35276e-05
1.35532e-05
1.35785e-05
1.36034e-05
1.3628e-05
1.36521e-05
1.3676e-05
1.36994e-05
1.37224e-05
1.37451e-05
1.37673e-05
1.37892e-05
1.38106e-05
1.38316e-05
1.38521e-05
1.38723e-05
1.3892e-05
1.39113e-05
1.39302e-05
1.39486e-05
1.39666e-05
1.39843e-05
1.40015e-05
1.40184e-05
1.40348e-05
1.40509e-05
1.40665e-05
1.40819e-05
1.40967e-05
1.41114e-05
1.41255e-05
1.41394e-05
1.41528e-05
1.41659e-05
1.41785e-05
1.41908e-05
1.4203e-05
1.42143e-05
1.42267e-05
1.42383e-05
1.42148e-05
1.13445e-05
1.13539e-05
1.13615e-05
1.13674e-05
1.13715e-05
1.13739e-05
1.13743e-05
1.13733e-05
1.13707e-05
1.13665e-05
1.13606e-05
1.1353e-05
1.1344e-05
1.13334e-05
1.13215e-05
1.13082e-05
1.1363e-05
1.13766e-05
1.13905e-05
1.14046e-05
1.14188e-05
1.14333e-05
1.1448e-05
1.14629e-05
1.14781e-05
1.14935e-05
1.15091e-05
1.15249e-05
1.15409e-05
1.15572e-05
1.15737e-05
1.15905e-05
1.16074e-05
1.16246e-05
1.1642e-05
1.16596e-05
1.16774e-05
1.16954e-05
1.17136e-05
1.1732e-05
1.17505e-05
1.17692e-05
1.17881e-05
1.18071e-05
1.18262e-05
1.18454e-05
1.18648e-05
1.18844e-05
1.19041e-05
1.19239e-05
1.19439e-05
1.19641e-05
1.19845e-05
1.20051e-05
1.20259e-05
1.20469e-05
1.20681e-05
1.20895e-05
1.21112e-05
1.21332e-05
1.21554e-05
1.21779e-05
1.22007e-05
1.22239e-05
1.22473e-05
1.22712e-05
1.22953e-05
1.23199e-05
1.23448e-05
1.23701e-05
1.23958e-05
1.24219e-05
1.24484e-05
1.24754e-05
1.25028e-05
1.25306e-05
1.25588e-05
1.25875e-05
1.26165e-05
1.2646e-05
1.26759e-05
1.27061e-05
1.27367e-05
1.27677e-05
1.27989e-05
1.28305e-05
1.28623e-05
1.28943e-05
1.29266e-05
1.29591e-05
1.29917e-05
1.30241e-05
1.30563e-05
1.30883e-05
1.312e-05
1.31514e-05
1.31825e-05
1.32132e-05
1.32437e-05
1.32737e-05
1.33034e-05
1.33328e-05
1.33617e-05
1.33901e-05
1.34182e-05
1.34458e-05
1.3473e-05
1.34997e-05
1.35259e-05
1.35517e-05
1.35769e-05
1.36018e-05
1.36261e-05
1.36499e-05
1.36733e-05
1.36962e-05
1.37186e-05
1.37405e-05
1.3762e-05
1.3783e-05
1.38035e-05
1.38236e-05
1.38433e-05
1.38624e-05
1.38812e-05
1.38994e-05
1.39173e-05
1.39347e-05
1.39517e-05
1.39682e-05
1.39843e-05
1.4e-05
1.40154e-05
1.40303e-05
1.40448e-05
1.4059e-05
1.40728e-05
1.40863e-05
1.40994e-05
1.41122e-05
1.41247e-05
1.41369e-05
1.41487e-05
1.41602e-05
1.41715e-05
1.41826e-05
1.41935e-05
1.42043e-05
1.42149e-05
1.42253e-05
1.42355e-05
1.42456e-05
1.42555e-05
1.42653e-05
1.42748e-05
1.42841e-05
1.42933e-05
1.43022e-05
1.43108e-05
1.43193e-05
1.43274e-05
1.43353e-05
1.43429e-05
1.43503e-05
1.43573e-05
1.4364e-05
1.43704e-05
1.43765e-05
1.43822e-05
1.43876e-05
1.43927e-05
1.43974e-05
1.44019e-05
1.4406e-05
1.44098e-05
1.44133e-05
1.44165e-05
1.44195e-05
1.44222e-05
1.44247e-05
1.4427e-05
1.44291e-05
1.4431e-05
1.44328e-05
1.44344e-05
1.44359e-05
1.44374e-05
1.44387e-05
1.444e-05
1.44412e-05
1.44424e-05
1.44434e-05
1.44446e-05
1.44455e-05
1.44466e-05
1.44475e-05
1.44485e-05
1.44493e-05
1.44503e-05
1.44511e-05
1.4452e-05
1.44527e-05
1.44537e-05
1.44543e-05
1.44553e-05
1.44559e-05
1.44572e-05
1.44577e-05
1.44493e-05
1.2211e-05
1.22223e-05
1.22309e-05
1.22366e-05
1.22398e-05
1.224e-05
1.2238e-05
1.22335e-05
1.22265e-05
1.22173e-05
1.22057e-05
1.21917e-05
1.21755e-05
1.24141e-05
1.24379e-05
1.2462e-05
1.24862e-05
1.25107e-05
1.25354e-05
1.25604e-05
1.25856e-05
1.26111e-05
1.2637e-05
1.26631e-05
1.26895e-05
1.27162e-05
1.27432e-05
1.27705e-05
1.27981e-05
1.2826e-05
1.28542e-05
1.28827e-05
1.29115e-05
1.29405e-05
1.29698e-05
1.29994e-05
1.30291e-05
1.30591e-05
1.30894e-05
1.31196e-05
1.31497e-05
1.31797e-05
1.32094e-05
1.32391e-05
1.32685e-05
1.32976e-05
1.33266e-05
1.33553e-05
1.33837e-05
1.34118e-05
1.34395e-05
1.3467e-05
1.34941e-05
1.35208e-05
1.35471e-05
1.35731e-05
1.35986e-05
1.36237e-05
1.36484e-05
1.36726e-05
1.36964e-05
1.37197e-05
1.37425e-05
1.37649e-05
1.37867e-05
1.38081e-05
1.38289e-05
1.38493e-05
1.38692e-05
1.38885e-05
1.39073e-05
1.39256e-05
1.39434e-05
1.39607e-05
1.39774e-05
1.39937e-05
1.40094e-05
1.40246e-05
1.40393e-05
1.40535e-05
1.40672e-05
1.40804e-05
1.40931e-05
1.41054e-05
1.41172e-05
1.41285e-05
1.41394e-05
1.41499e-05
1.416e-05
1.41699e-05
1.41794e-05
1.41887e-05
1.41977e-05
1.42065e-05
1.42151e-05
1.42235e-05
1.42317e-05
1.42397e-05
1.42475e-05
1.42552e-05
1.42627e-05
1.42701e-05
1.42773e-05
1.42845e-05
1.42914e-05
1.42983e-05
1.4305e-05
1.43116e-05
1.43181e-05
1.43244e-05
1.43306e-05
1.43367e-05
1.43426e-05
1.43484e-05
1.43541e-05
1.43596e-05
1.4365e-05
1.43703e-05
1.43754e-05
1.43803e-05
1.43852e-05
1.43898e-05
1.43944e-05
1.43988e-05
1.44031e-05
1.44073e-05
1.44114e-05
1.44153e-05
1.44191e-05
1.44228e-05
1.44263e-05
1.44298e-05
1.44331e-05
1.44363e-05
1.44394e-05
1.44424e-05
1.44452e-05
1.44479e-05
1.44505e-05
1.4453e-05
1.44553e-05
1.44575e-05
1.44596e-05
1.44615e-05
1.44633e-05
1.4465e-05
1.44665e-05
1.44679e-05
1.44692e-05
1.44703e-05
1.44714e-05
1.44723e-05
1.44731e-05
1.44739e-05
1.44746e-05
1.44753e-05
1.44759e-05
1.44765e-05
1.44771e-05
1.44776e-05
1.44782e-05
1.44787e-05
1.44793e-05
1.44798e-05
1.44804e-05
1.4481e-05
1.44815e-05
1.44821e-05
1.44827e-05
1.44834e-05
1.4484e-05
1.44847e-05
1.44854e-05
1.44861e-05
1.44869e-05
1.44877e-05
1.44885e-05
1.44894e-05
1.44903e-05
1.44913e-05
1.44923e-05
1.44933e-05
1.44945e-05
1.44957e-05
1.44969e-05
1.44983e-05
1.44996e-05
1.45011e-05
1.45025e-05
1.45041e-05
1.45057e-05
1.45075e-05
1.45093e-05
1.45112e-05
1.45131e-05
1.45151e-05
1.4517e-05
1.45191e-05
1.4521e-05
1.45232e-05
1.45251e-05
1.45274e-05
1.45293e-05
1.45317e-05
1.45338e-05
1.45316e-05
1.33052e-05
1.33124e-05
1.33161e-05
1.33161e-05
1.33139e-05
1.33086e-05
1.33006e-05
1.329e-05
1.32774e-05
1.32618e-05
1.32433e-05
1.32225e-05
1.31994e-05
1.36694e-05
1.36923e-05
1.37149e-05
1.3737e-05
1.37588e-05
1.37802e-05
1.38012e-05
1.38218e-05
1.3842e-05
1.38618e-05
1.38811e-05
1.39e-05
1.39184e-05
1.39364e-05
1.39539e-05
1.39709e-05
1.39874e-05
1.40034e-05
1.40189e-05
1.4034e-05
1.40485e-05
1.40626e-05
1.40761e-05
1.40892e-05
1.41018e-05
1.41138e-05
1.41255e-05
1.41368e-05
1.41477e-05
1.41582e-05
1.41684e-05
1.41783e-05
1.41878e-05
1.4197e-05
1.42059e-05
1.42145e-05
1.42228e-05
1.42309e-05
1.42387e-05
1.42463e-05
1.42536e-05
1.42607e-05
1.42677e-05
1.42744e-05
1.42809e-05
1.42872e-05
1.42934e-05
1.42995e-05
1.43053e-05
1.4311e-05
1.43166e-05
1.43221e-05
1.43274e-05
1.43326e-05
1.43376e-05
1.43426e-05
1.43474e-05
1.43521e-05
1.43567e-05
1.43612e-05
1.43656e-05
1.43698e-05
1.4374e-05
1.43781e-05
1.43821e-05
1.4386e-05
1.43898e-05
1.43935e-05
1.43971e-05
1.44007e-05
1.44042e-05
1.44075e-05
1.44109e-05
1.44141e-05
1.44173e-05
1.44204e-05
1.44235e-05
1.44265e-05
1.44294e-05
1.44323e-05
1.44351e-05
1.44379e-05
1.44406e-05
1.44432e-05
1.44458e-05
1.44482e-05
1.44506e-05
1.44529e-05
1.4455e-05
1.44571e-05
1.4459e-05
1.44609e-05
1.44626e-05
1.44642e-05
1.44657e-05
1.44672e-05
1.44685e-05
1.44698e-05
1.4471e-05
1.44721e-05
1.44732e-05
1.44743e-05
1.44753e-05
1.44763e-05
1.44773e-05
1.44783e-05
1.44793e-05
1.44803e-05
1.44813e-05
1.44823e-05
1.44833e-05
1.44843e-05
1.44854e-05
1.44865e-05
1.44876e-05
1.44887e-05
1.44898e-05
1.44909e-05
1.44921e-05
1.44932e-05
1.44944e-05
1.44955e-05
1.44967e-05
1.44979e-05
1.44991e-05
1.45003e-05
1.45015e-05
1.45027e-05
1.4504e-05
1.45052e-05
1.45065e-05
1.45077e-05
1.4509e-05
1.45102e-05
1.45115e-05
1.45128e-05
1.4514e-05
1.45153e-05
1.45166e-05
1.4518e-05
1.45193e-05
1.45206e-05
1.4522e-05
1.45233e-05
1.45246e-05
1.45258e-05
1.45271e-05
1.45283e-05
1.45295e-05
1.45306e-05
1.45318e-05
1.4533e-05
1.45341e-05
1.45353e-05
1.45365e-05
1.45378e-05
1.4539e-05
1.45403e-05
1.45417e-05
1.45431e-05
1.45446e-05
1.45461e-05
1.45477e-05
1.45495e-05
1.45513e-05
1.45532e-05
1.45552e-05
1.45573e-05
1.45594e-05
1.45617e-05
1.4564e-05
1.45664e-05
1.45688e-05
1.45713e-05
1.45739e-05
1.45765e-05
1.45792e-05
1.45819e-05
1.45846e-05
1.45873e-05
1.459e-05
1.45927e-05
1.45955e-05
1.45984e-05
1.46013e-05
1.46043e-05
1.46073e-05
1.46103e-05
1.46133e-05
1.46163e-05
1.46193e-05
1.46227e-05
1.46198e-05
1.41967e-05
1.41879e-05
1.4177e-05
1.41641e-05
1.41499e-05
1.41345e-05
1.41188e-05
1.40995e-05
1.40793e-05
1.40598e-05
1.4039e-05
1.40163e-05
1.39924e-05
1.39674e-05
1.42558e-05
1.42629e-05
1.42698e-05
1.42763e-05
1.42827e-05
1.42888e-05
1.42948e-05
1.43005e-05
1.4306e-05
1.43114e-05
1.43166e-05
1.43216e-05
1.43265e-05
1.43312e-05
1.43358e-05
1.43403e-05
1.43447e-05
1.43489e-05
1.43531e-05
1.43572e-05
1.43611e-05
1.4365e-05
1.43688e-05
1.43725e-05
1.43761e-05
1.43797e-05
1.43832e-05
1.43866e-05
1.43899e-05
1.43932e-05
1.43964e-05
1.43996e-05
1.44027e-05
1.44057e-05
1.44087e-05
1.44117e-05
1.44146e-05
1.44174e-05
1.44202e-05
1.44229e-05
1.44255e-05
1.44281e-05
1.44306e-05
1.44331e-05
1.44355e-05
1.44378e-05
1.44401e-05
1.44423e-05
1.44444e-05
1.44464e-05
1.44484e-05
1.44503e-05
1.44521e-05
1.44538e-05
1.44555e-05
1.4457e-05
1.44586e-05
1.446e-05
1.44614e-05
1.44628e-05
1.4464e-05
1.44653e-05
1.44665e-05
1.44677e-05
1.44688e-05
1.44699e-05
1.4471e-05
1.4472e-05
1.44731e-05
1.44742e-05
1.44752e-05
1.44763e-05
1.44773e-05
1.44784e-05
1.44795e-05
1.44806e-05
1.44817e-05
1.44828e-05
1.4484e-05
1.44852e-05
1.44864e-05
1.44876e-05
1.44888e-05
1.449e-05
1.44912e-05
1.44925e-05
1.44937e-05
1.4495e-05
1.44962e-05
1.44975e-05
1.44987e-05
1.44999e-05
1.45012e-05
1.45024e-05
1.45036e-05
1.45048e-05
1.4506e-05
1.45072e-05
1.45084e-05
1.45097e-05
1.45109e-05
1.45121e-05
1.45134e-05
1.45147e-05
1.4516e-05
1.45173e-05
1.45187e-05
1.452e-05
1.45214e-05
1.45228e-05
1.45242e-05
1.45256e-05
1.4527e-05
1.45285e-05
1.45299e-05
1.45314e-05
1.45329e-05
1.45344e-05
1.45359e-05
1.45375e-05
1.45391e-05
1.45407e-05
1.45424e-05
1.4544e-05
1.45457e-05
1.45474e-05
1.45492e-05
1.4551e-05
1.45528e-05
1.45546e-05
1.45564e-05
1.45583e-05
1.45602e-05
1.45621e-05
1.4564e-05
1.4566e-05
1.4568e-05
1.457e-05
1.45719e-05
1.45738e-05
1.45757e-05
1.45776e-05
1.45795e-05
1.45815e-05
1.45835e-05
1.45855e-05
1.45875e-05
1.45895e-05
1.45916e-05
1.45938e-05
1.45959e-05
1.45982e-05
1.46005e-05
1.46029e-05
1.46053e-05
1.46079e-05
1.46106e-05
1.46133e-05
1.46162e-05
1.46192e-05
1.46223e-05
1.46256e-05
1.4629e-05
1.46325e-05
1.46361e-05
1.46398e-05
1.46437e-05
1.46477e-05
1.46517e-05
1.46559e-05
1.46602e-05
1.46645e-05
1.4669e-05
1.46736e-05
1.46782e-05
1.4683e-05
1.46879e-05
1.46928e-05
1.46979e-05
1.4703e-05
1.47084e-05
1.47137e-05
1.47192e-05
1.47247e-05
1.47303e-05
1.4736e-05
1.47418e-05
1.47476e-05
1.47536e-05
1.47595e-05
1.47655e-05
1.47725e-05
1.47677e-05
1.45497e-05
1.45307e-05
1.45119e-05
1.44899e-05
1.44689e-05
1.44481e-05
1.44255e-05
1.44024e-05
1.43802e-05
1.43579e-05
1.43349e-05
1.43113e-05
1.42874e-05
1.42638e-05
1.44041e-05
1.44068e-05
1.44094e-05
1.4412e-05
1.44145e-05
1.44169e-05
1.44193e-05
1.44216e-05
1.44239e-05
1.44261e-05
1.44283e-05
1.44304e-05
1.44325e-05
1.44346e-05
1.44366e-05
1.44385e-05
1.44404e-05
1.44423e-05
1.44441e-05
1.44459e-05
1.44476e-05
1.44493e-05
1.44509e-05
1.44525e-05
1.4454e-05
1.44555e-05
1.44569e-05
1.44583e-05
1.44596e-05
1.44609e-05
1.44621e-05
1.44634e-05
1.44646e-05
1.44657e-05
1.44669e-05
1.4468e-05
1.44692e-05
1.44703e-05
1.44714e-05
1.44724e-05
1.44735e-05
1.44746e-05
1.44757e-05
1.44767e-05
1.44778e-05
1.44788e-05
1.44799e-05
1.44809e-05
1.4482e-05
1.44831e-05
1.44841e-05
1.44852e-05
1.44862e-05
1.44873e-05
1.44884e-05
1.44895e-05
1.44906e-05
1.44917e-05
1.44928e-05
1.44939e-05
1.4495e-05
1.44962e-05
1.44974e-05
1.44985e-05
1.44997e-05
1.4501e-05
1.45022e-05
1.45035e-05
1.45048e-05
1.45061e-05
1.45075e-05
1.45089e-05
1.45103e-05
1.45117e-05
1.45132e-05
1.45147e-05
1.45162e-05
1.45177e-05
1.45192e-05
1.45208e-05
1.45223e-05
1.45238e-05
1.45254e-05
1.4527e-05
1.45285e-05
1.45301e-05
1.45317e-05
1.45333e-05
1.45349e-05
1.45365e-05
1.45381e-05
1.45397e-05
1.45414e-05
1.4543e-05
1.45447e-05
1.45463e-05
1.45481e-05
1.45498e-05
1.45516e-05
1.45533e-05
1.45551e-05
1.45569e-05
1.45587e-05
1.45605e-05
1.45624e-05
1.45643e-05
1.45661e-05
1.45681e-05
1.457e-05
1.4572e-05
1.45741e-05
1.45761e-05
1.45782e-05
1.45804e-05
1.45826e-05
1.45848e-05
1.45871e-05
1.45894e-05
1.45918e-05
1.45942e-05
1.45967e-05
1.45993e-05
1.46018e-05
1.46045e-05
1.46072e-05
1.46099e-05
1.46127e-05
1.46156e-05
1.46185e-05
1.46214e-05
1.46245e-05
1.46276e-05
1.46307e-05
1.46339e-05
1.46372e-05
1.46405e-05
1.46439e-05
1.46474e-05
1.46509e-05
1.46545e-05
1.46582e-05
1.46619e-05
1.46658e-05
1.46696e-05
1.46736e-05
1.46777e-05
1.46818e-05
1.46861e-05
1.46904e-05
1.46949e-05
1.46996e-05
1.47043e-05
1.47092e-05
1.47143e-05
1.47195e-05
1.47249e-05
1.47304e-05
1.47361e-05
1.4742e-05
1.47481e-05
1.47543e-05
1.47607e-05
1.47672e-05
1.47739e-05
1.47808e-05
1.47878e-05
1.4795e-05
1.48023e-05
1.48098e-05
1.48174e-05
1.48252e-05
1.48332e-05
1.48413e-05
1.48496e-05
1.48581e-05
1.48667e-05
1.48755e-05
1.48844e-05
1.48936e-05
1.49029e-05
1.49123e-05
1.4922e-05
1.49318e-05
1.49417e-05
1.49519e-05
1.49623e-05
1.49729e-05
1.49837e-05
1.49948e-05
1.50059e-05
1.5017e-05
1.50285e-05
1.50197e-05
1.46786e-05
1.46551e-05
1.46314e-05
1.46071e-05
1.45828e-05
1.45585e-05
1.4534e-05
1.45101e-05
1.44863e-05
1.44623e-05
1.44382e-05
1.44143e-05
1.4391e-05
1.43682e-05
1.44538e-05
1.44552e-05
1.44565e-05
1.44578e-05
1.4459e-05
1.44602e-05
1.44613e-05
1.44625e-05
1.44636e-05
1.44648e-05
1.44659e-05
1.4467e-05
1.44682e-05
1.44693e-05
1.44704e-05
1.44716e-05
1.44727e-05
1.44739e-05
1.4475e-05
1.44762e-05
1.44773e-05
1.44785e-05
1.44797e-05
1.44809e-05
1.44821e-05
1.44833e-05
1.44845e-05
1.44858e-05
1.4487e-05
1.44882e-05
1.44895e-05
1.44907e-05
1.4492e-05
1.44932e-05
1.44945e-05
1.44958e-05
1.44971e-05
1.44983e-05
1.44996e-05
1.45009e-05
1.45021e-05
1.45034e-05
1.45046e-05
1.45059e-05
1.45071e-05
1.45084e-05
1.45097e-05
1.45109e-05
1.45122e-05
1.45135e-05
1.45148e-05
1.45161e-05
1.45175e-05
1.45188e-05
1.45202e-05
1.45217e-05
1.45231e-05
1.45246e-05
1.45261e-05
1.45277e-05
1.45292e-05
1.45309e-05
1.45325e-05
1.45342e-05
1.45359e-05
1.45377e-05
1.45395e-05
1.45414e-05
1.45432e-05
1.45451e-05
1.45469e-05
1.45488e-05
1.45508e-05
1.45527e-05
1.45547e-05
1.45567e-05
1.45587e-05
1.45607e-05
1.45627e-05
1.45648e-05
1.45669e-05
1.4569e-05
1.45711e-05
1.45732e-05
1.45754e-05
1.45775e-05
1.45797e-05
1.4582e-05
1.45842e-05
1.45865e-05
1.45888e-05
1.45912e-05
1.45936e-05
1.45961e-05
1.45986e-05
1.46012e-05
1.46039e-05
1.46066e-05
1.46093e-05
1.46121e-05
1.4615e-05
1.46179e-05
1.46209e-05
1.4624e-05
1.46271e-05
1.46303e-05
1.46336e-05
1.46369e-05
1.46403e-05
1.46438e-05
1.46473e-05
1.46509e-05
1.46547e-05
1.46585e-05
1.46623e-05
1.46663e-05
1.46703e-05
1.46745e-05
1.46787e-05
1.4683e-05
1.46874e-05
1.46919e-05
1.46965e-05
1.47012e-05
1.4706e-05
1.47109e-05
1.47159e-05
1.4721e-05
1.47262e-05
1.47315e-05
1.47369e-05
1.47424e-05
1.47481e-05
1.47538e-05
1.47597e-05
1.47657e-05
1.47719e-05
1.47782e-05
1.47846e-05
1.47912e-05
1.47979e-05
1.48048e-05
1.48118e-05
1.48189e-05
1.48263e-05
1.48338e-05
1.48415e-05
1.48494e-05
1.48575e-05
1.48658e-05
1.48743e-05
1.4883e-05
1.4892e-05
1.49012e-05
1.49106e-05
1.49202e-05
1.493e-05
1.49401e-05
1.49503e-05
1.49608e-05
1.49715e-05
1.49825e-05
1.49936e-05
1.5005e-05
1.50165e-05
1.50283e-05
1.50403e-05
1.50526e-05
1.5065e-05
1.50777e-05
1.50906e-05
1.51038e-05
1.51171e-05
1.51307e-05
1.51446e-05
1.51587e-05
1.5173e-05
1.51875e-05
1.52024e-05
1.52174e-05
1.52328e-05
1.52484e-05
1.52643e-05
1.52805e-05
1.5297e-05
1.53139e-05
1.53311e-05
1.53485e-05
1.53662e-05
1.53832e-05
1.54001e-05
1.54134e-05
1.53964e-05
1.47273e-05
1.47028e-05
1.46781e-05
1.46532e-05
1.46285e-05
1.46037e-05
1.4579e-05
1.4555e-05
1.4531e-05
1.45068e-05
1.44825e-05
1.44583e-05
1.44351e-05
1.44784e-05
1.44798e-05
1.44812e-05
1.44825e-05
1.44838e-05
1.44851e-05
1.44865e-05
1.44878e-05
1.4489e-05
1.44904e-05
1.44917e-05
1.4493e-05
1.44943e-05
1.44956e-05
1.44969e-05
1.44983e-05
1.44996e-05
1.4501e-05
1.45024e-05
1.45038e-05
1.45052e-05
1.45066e-05
1.4508e-05
1.45095e-05
1.4511e-05
1.45125e-05
1.4514e-05
1.45156e-05
1.45171e-05
1.45187e-05
1.45203e-05
1.45219e-05
1.45235e-05
1.45251e-05
1.45267e-05
1.45283e-05
1.45299e-05
1.45315e-05
1.45331e-05
1.45347e-05
1.45363e-05
1.4538e-05
1.45396e-05
1.45413e-05
1.45429e-05
1.45446e-05
1.45464e-05
1.45481e-05
1.45499e-05
1.45517e-05
1.45535e-05
1.45554e-05
1.45573e-05
1.45593e-05
1.45613e-05
1.45633e-05
1.45654e-05
1.45676e-05
1.45698e-05
1.4572e-05
1.45744e-05
1.45767e-05
1.45791e-05
1.45816e-05
1.45841e-05
1.45867e-05
1.45893e-05
1.4592e-05
1.45947e-05
1.45974e-05
1.46002e-05
1.46031e-05
1.4606e-05
1.46089e-05
1.46119e-05
1.46149e-05
1.4618e-05
1.46211e-05
1.46242e-05
1.46274e-05
1.46307e-05
1.4634e-05
1.46373e-05
1.46407e-05
1.46442e-05
1.46477e-05
1.46513e-05
1.4655e-05
1.46587e-05
1.46625e-05
1.46664e-05
1.46704e-05
1.46745e-05
1.46787e-05
1.46829e-05
1.46873e-05
1.46918e-05
1.46963e-05
1.4701e-05
1.47058e-05
1.47107e-05
1.47157e-05
1.47208e-05
1.4726e-05
1.47313e-05
1.47368e-05
1.47423e-05
1.4748e-05
1.47538e-05
1.47597e-05
1.47658e-05
1.4772e-05
1.47783e-05
1.47847e-05
1.47913e-05
1.4798e-05
1.48049e-05
1.48119e-05
1.48191e-05
1.48264e-05
1.48338e-05
1.48414e-05
1.48492e-05
1.48571e-05
1.48651e-05
1.48733e-05
1.48817e-05
1.48902e-05
1.48989e-05
1.49078e-05
1.49169e-05
1.49262e-05
1.49356e-05
1.49452e-05
1.49551e-05
1.49651e-05
1.49753e-05
1.49858e-05
1.49964e-05
1.50073e-05
1.50184e-05
1.50298e-05
1.50414e-05
1.50532e-05
1.50653e-05
1.50777e-05
1.50903e-05