/*--------------------------------*- C++ -*----------------------------------*\
| =========                 |                                                 |
| \\      /  F ield         | OpenFOAM: The Open Source CFD Toolbox           |
|  \\    /   O peration     | Version:  v1706                                 |
|   \\  /    A nd           | Web:      www.OpenFOAM.com                      |
|    \\/     M anipulation  |                                                 |
\*---------------------------------------------------------------------------*/
FoamFile
{
    version     2.0;
    format      ascii;
    class       volScalarField;
    location    "1.3e-05";
    object      rho;
}
// * * * * * * * * * * * * * * * * * * * * * * * * * * * * * * * * * * * * * //

dimensions      [1 -3 0 0 0 0 0];


internalField   nonuniform List<scalar> 
30104
(
0.000511503
0.000511505
0.000511507
0.000511509
0.00051151
0.000511511
0.000511511
0.000511511
0.000511511
0.00051151
0.000511509
0.000511507
0.000511505
0.000511503
0.0005115
0.000511497
0.000511494
0.000511421
0.000511423
0.000511424
0.000511425
0.000511426
0.000511427
0.000511429
0.00051143
0.000511431
0.000511433
0.000511434
0.000511435
0.000511436
0.000511438
0.000511439
0.00051144
0.000511442
0.000511443
0.000511444
0.000511445
0.000511447
0.000511448
0.000511449
0.00051145
0.000511451
0.000511453
0.000511454
0.000511455
0.000511456
0.000511457
0.000511458
0.000511459
0.00051146
0.000511461
0.000511463
0.000511464
0.000511465
0.000511466
0.000511467
0.000511468
0.000511469
0.00051147
0.000511471
0.000511472
0.000511473
0.000511474
0.000511475
0.000511476
0.000511478
0.000511479
0.00051148
0.000511481
0.000511483
0.000511484
0.000511485
0.000511487
0.000511488
0.00051149
0.000511491
0.000511493
0.000511495
0.000511496
0.000511498
0.0005115
0.000511502
0.000511504
0.000511506
0.000511508
0.000511511
0.000511513
0.000511515
0.000511518
0.00051152
0.000511523
0.000511526
0.000511528
0.000511531
0.000511534
0.000511537
0.00051154
0.000511543
0.000511547
0.00051155
0.000511553
0.000511557
0.00051156
0.000511564
0.000511567
0.000511571
0.000511575
0.000511579
0.000511582
0.000511586
0.00051159
0.000511594
0.000511598
0.000511602
0.000511606
0.00051161
0.000511614
0.000511618
0.000511622
0.000511626
0.00051163
0.000511634
0.000511638
0.000511642
0.000511646
0.00051165
0.000511654
0.000511657
0.000511661
0.000511665
0.000511668
0.000511672
0.000511675
0.000511678
0.000511681
0.000511685
0.000511688
0.000511691
0.000511694
0.000511697
0.0005117
0.000511703
0.000511706
0.000511709
0.000511712
0.000511715
0.000511718
0.000511721
0.000511724
0.000511727
0.00051173
0.000511733
0.000511737
0.00051174
0.000511743
0.000511747
0.00051175
0.000511754
0.000511757
0.000511761
0.000511765
0.000511769
0.000511772
0.000511777
0.000511781
0.000511785
0.000511789
0.000511794
0.000511798
0.000511803
0.000511808
0.000511813
0.000511818
0.000511823
0.000511828
0.000511834
0.000511839
0.000511845
0.000511851
0.000511857
0.000511863
0.00051187
0.000511876
0.000511883
0.00051189
0.000511897
0.000511904
0.000511911
0.000511919
0.000511926
0.000511934
0.000511942
0.00051195
0.000511958
0.000511966
0.000511974
0.000511982
0.00051199
0.000511999
0.000512007
0.000512016
0.000512024
0.000512033
0.000512041
0.00051205
0.000512059
0.000512067
0.000512076
0.00051208
0.000512036
0.000512492
0.000512509
0.000512525
0.000512537
0.000512547
0.000512555
0.00051256
0.000512562
0.000512562
0.000512559
0.000512554
0.000512546
0.000512535
0.000512523
0.000512508
0.000512491
0.000512472
0.000512076
0.000512084
0.000512091
0.000512099
0.000512107
0.000512114
0.000512122
0.00051213
0.000512138
0.000512146
0.000512154
0.000512162
0.00051217
0.000512179
0.000512187
0.000512196
0.000512204
0.000512213
0.000512222
0.000512231
0.000512241
0.00051225
0.00051226
0.00051227
0.00051228
0.00051229
0.0005123
0.000512311
0.000512322
0.000512333
0.000512344
0.000512355
0.000512367
0.000512379
0.000512391
0.000512403
0.000512416
0.000512429
0.000512442
0.000512455
0.000512469
0.000512483
0.000512497
0.000512512
0.000512527
0.000512542
0.000512557
0.000512573
0.000512588
0.000512604
0.000512621
0.000512637
0.000512654
0.000512671
0.000512688
0.000512706
0.000512723
0.000512741
0.000512759
0.000512777
0.000512795
0.000512813
0.000512832
0.00051285
0.000512869
0.000512888
0.000512906
0.000512925
0.000512944
0.000512963
0.000512982
0.000513001
0.00051302
0.00051304
0.000513059
0.000513078
0.000513098
0.000513118
0.000513138
0.000513158
0.000513178
0.000513198
0.000513218
0.000513239
0.00051326
0.000513281
0.000513302
0.000513324
0.000513346
0.000513368
0.000513391
0.000513413
0.000513436
0.00051346
0.000513483
0.000513507
0.000513532
0.000513557
0.000513582
0.000513607
0.000513633
0.000513659
0.000513685
0.000513712
0.00051374
0.000513767
0.000513796
0.000513824
0.000513853
0.000513883
0.000513913
0.000513944
0.000513975
0.000514007
0.000514039
0.000514072
0.000514105
0.000514139
0.000514174
0.000514209
0.000514245
0.000514281
0.000514319
0.000514357
0.000514395
0.000514435
0.000514475
0.000514516
0.000514557
0.000514599
0.000514643
0.000514687
0.000514731
0.000514777
0.000514823
0.000514871
0.000514919
0.000514969
0.000515019
0.000515071
0.000515123
0.000515177
0.000515232
0.000515288
0.000515346
0.000515405
0.000515465
0.000515527
0.00051559
0.000515655
0.000515721
0.000515789
0.000515858
0.000515929
0.000516001
0.000516075
0.000516151
0.000516228
0.000516307
0.000516387
0.000516468
0.000516551
0.000516635
0.00051672
0.000516807
0.000516894
0.000516982
0.000517072
0.000517161
0.000517252
0.000517343
0.000517435
0.000517527
0.000517619
0.000517711
0.000517804
0.000517896
0.000517989
0.000518082
0.000518174
0.000518267
0.000518359
0.000518452
0.000518544
0.000518636
0.000518729
0.000518822
0.000518915
0.000519008
0.000519102
0.000519197
0.000519285
0.000519122
0.000514928
0.000514981
0.000515027
0.000515067
0.000515099
0.000515124
0.000515142
0.000515151
0.000515153
0.000515148
0.000515134
0.000515114
0.000515085
0.00051505
0.000515008
0.000514959
0.000514015
0.000514048
0.000514082
0.000514116
0.00051415
0.000514185
0.000514221
0.000514257
0.000514293
0.00051433
0.000514368
0.000514406
0.000514444
0.000514484
0.000514523
0.000514563
0.000514603
0.000514644
0.000514686
0.000514727
0.000514769
0.000514812
0.000514855
0.000514899
0.000514942
0.000514987
0.000515032
0.000515077
0.000515123
0.000515169
0.000515216
0.000515263
0.00051531
0.000515358
0.000515407
0.000515456
0.000515506
0.000515556
0.000515607
0.000515658
0.00051571
0.000515762
0.000515815
0.000515869
0.000515923
0.000515978
0.000516033
0.00051609
0.000516146
0.000516204
0.000516262
0.000516322
0.000516382
0.000516442
0.000516504
0.000516567
0.000516631
0.000516695
0.000516761
0.000516828
0.000516896
0.000516965
0.000517036
0.000517108
0.000517181
0.000517255
0.000517332
0.000517409
0.000517489
0.00051757
0.000517652
0.000517737
0.000517823
0.000517911
0.000518001
0.000518093
0.000518188
0.000518284
0.000518383
0.000518483
0.000518587
0.000518692
0.0005188
0.00051891
0.000519023
0.000519139
0.000519257
0.000519378
0.000519501
0.000519627
0.000519756
0.000519887
0.000520022
0.000520159
0.000520298
0.00052044
0.000520585
0.000520732
0.000520882
0.000521035
0.000521189
0.000521347
0.000521506
0.000521668
0.000521832
0.000521999
0.000522167
0.000522337
0.00052251
0.000522684
0.00052286
0.000523037
0.000523216
0.000523396
0.000523578
0.000523761
0.000523944
0.000524129
0.000524315
0.000524502
0.000524689
0.000524877
0.000525066
0.000525256
0.000525446
0.000525638
0.00052583
0.000526024
0.000526219
0.000526416
0.000526615
0.000526815
0.000527018
0.000527224
0.000527432
0.000527643
0.000527858
0.000528076
0.000528298
0.000528523
0.000528753
0.000528988
0.000529227
0.000529471
0.00052972
0.000529974
0.000530234
0.000530499
0.00053077
0.000531046
0.000531329
0.000531618
0.000531914
0.000532216
0.000532524
0.000532839
0.000533161
0.000533491
0.000533827
0.000534171
0.000534522
0.000534881
0.000535248
0.000535622
0.000536005
0.000536396
0.000536795
0.000537202
0.000537618
0.000538043
0.000538476
0.000538918
0.000539368
0.000539828
0.000540296
0.000540772
0.000541257
0.000541751
0.000542253
0.000542763
0.000543282
0.000543807
0.000544342
0.000544882
0.000545434
0.000545987
0.000546554
0.000547121
0.000547701
0.000548285
0.000548855
0.000549628
0.000549322
0.00052098
0.000521136
0.000521272
0.000521387
0.000521481
0.000521555
0.000521606
0.000521636
0.000521649
0.000521639
0.000521605
0.000521551
0.000521478
0.000521385
0.000521274
0.000521144
0.000519505
0.00051961
0.000519717
0.000519825
0.000519934
0.000520044
0.000520156
0.000520269
0.000520383
0.000520499
0.000520617
0.000520736
0.000520856
0.000520979
0.000521103
0.000521229
0.000521357
0.000521487
0.00052162
0.000521755
0.000521892
0.000522031
0.000522174
0.000522319
0.000522467
0.000522618
0.000522771
0.000522928
0.000523089
0.000523252
0.000523419
0.00052359
0.000523765
0.000523943
0.000524125
0.000524312
0.000524503
0.000524698
0.000524897
0.000525101
0.00052531
0.000525523
0.000525741
0.000525964
0.000526193
0.000526426
0.000526664
0.000526908
0.000527156
0.00052741
0.00052767
0.000527934
0.000528204
0.000528479
0.000528759
0.000529044
0.000529334
0.000529629
0.000529929
0.000530233
0.000530541
0.000530854
0.000531171
0.000531492
0.000531816
0.000532144
0.000532474
0.000532808
0.000533145
0.000533485
0.000533827
0.000534172
0.000534519
0.000534869
0.000535222
0.000535577
0.000535935
0.000536297
0.000536661
0.000537029
0.0005374
0.000537776
0.000538155
0.000538539
0.000538927
0.000539321
0.00053972
0.000540125
0.000540535
0.000540952
0.000541376
0.000541807
0.000542245
0.000542692
0.000543146
0.000543608
0.00054408
0.00054456
0.000545051
0.000545551
0.000546061
0.000546582
0.000547114
0.000547658
0.000548213
0.000548781
0.000549361
0.000549954
0.000550561
0.000551181
0.000551815
0.000552464
0.000553127
0.000553806
0.000554499
0.000555208
0.000555933
0.000556675
0.000557433
0.000558207
0.000558999
0.000559808
0.000560635
0.00056148
0.000562343
0.000563225
0.000564125
0.000565045
0.000565984
0.000566942
0.000567921
0.000568921
0.000569942
0.000570985
0.000572051
0.000573139
0.000574252
0.000575389
0.000576552
0.000577741
0.000578958
0.000580203
0.000581479
0.000582787
0.000584128
0.000585505
0.000586919
0.000588372
0.000589867
0.000591407
0.000592994
0.000594631
0.000596321
0.000598068
0.000599875
0.000601745
0.000603682
0.00060569
0.000607772
0.000609933
0.000612176
0.000614505
0.000616923
0.000619435
0.000622043
0.000624751
0.000627562
0.000630479
0.000633504
0.000636639
0.000639888
0.00064325
0.000646728
0.000650322
0.000654032
0.00065786
0.000661804
0.000665866
0.000670041
0.000674334
0.000678734
0.000683256
0.000687871
0.000692619
0.000697434
0.000702414
0.000707399
0.000712618
0.000717634
0.000723039
0.000727899
0.000733467
0.000739229
0.00053475
0.000535086
0.000535381
0.000535632
0.000535838
0.000535997
0.000536102
0.000536154
0.00053617
0.00053614
0.000536054
0.00053592
0.000535742
0.000535521
0.000535258
0.00053418
0.000534529
0.000534886
0.00053525
0.000535622
0.000536001
0.000536389
0.000536784
0.000537188
0.0005376
0.000538021
0.000538449
0.000538887
0.000539332
0.000539786
0.000540247
0.000540717
0.000541195
0.00054168
0.000542173
0.000542673
0.00054318
0.000543695
0.000544217
0.000544746
0.000545282
0.000545825
0.000546375
0.000546933
0.000547499
0.000548072
0.000548653
0.000549242
0.000549839
0.000550444
0.000551058
0.000551681
0.000552312
0.000552953
0.000553603
0.000554262
0.000554932
0.000555611
0.000556301
0.000557002
0.000557713
0.000558436
0.00055917
0.000559916
0.000560675
0.000561446
0.00056223
0.000563027
0.000563838
0.000564662
0.000565502
0.000566356
0.000567225
0.00056811
0.000569012
0.000569931
0.000570867
0.000571821
0.000572794
0.000573786
0.000574798
0.000575832
0.000576888
0.000577966
0.000579069
0.000580196
0.00058135
0.000582531
0.00058374
0.000584979
0.000586249
0.000587551
0.000588888
0.00059026
0.00059167
0.000593119
0.00059461
0.000596144
0.000597723
0.000599349
0.000601025
0.000602753
0.000604535
0.000606373
0.00060827
0.000610228
0.00061225
0.000614339
0.000616496
0.000618725
0.000621029
0.00062341
0.000625871
0.000628415
0.000631045
0.000633765
0.000636577
0.000639485
0.000642492
0.0006456
0.000648812
0.000652131
0.000655559
0.000659099
0.000662751
0.000666517
0.000670399
0.000674395
0.000678507
0.000682735
0.000687076
0.00069153
0.000696095
0.000700769
0.00070555
0.000710434
0.000715418
0.000720499
0.000725673
0.000730937
0.000736287
0.000741719
0.000747229
0.000752786
0.000758363
0.000763958
0.000769572
0.000775206
0.00078086
0.000786536
0.000792234
0.000797957
0.000803707
0.000809486
0.000815296
0.000821139
0.000827019
0.000832937
0.000838895
0.000844897
0.000850942
0.000857034
0.000863173
0.000869359
0.000875593
0.000881873
0.0008882
0.00089457
0.000900981
0.00090743
0.000913913
0.000920424
0.000926959
0.000933511
0.000940074
0.000946639
0.000953202
0.00095975
0.00096628
0.000972779
0.000979243
0.000985658
0.000992024
0.000998323
0.00100456
0.00101071
0.0010168
0.00102278
0.00102869
0.00103448
0.0010402
0.00104579
0.0010513
0.00105668
0.00106199
0.00106716
0.00107226
0.00107723
0.00108213
0.00108689
0.00109158
0.00109619
0.00110066
0.00110526
0.00110953
0.00111453
0.00111789
0.0011254
0.000565792
0.000566752
0.000567605
0.000568343
0.000568958
0.000569452
0.000569831
0.000570084
0.000570216
0.000570267
0.000570182
0.000569955
0.00056961
0.000569156
0.000568593
0.000567926
0.000573372
0.000574391
0.000575428
0.000576483
0.000577557
0.000578648
0.000579758
0.000580886
0.000582033
0.000583199
0.000584384
0.000585589
0.000586814
0.000588058
0.000589323
0.00059061
0.000591918
0.000593248
0.000594602
0.00059598
0.000597383
0.000598813
0.000600269
0.000601755
0.00060327
0.000604817
0.000606396
0.00060801
0.00060966
0.000611347
0.000613074
0.000614843
0.000616657
0.000618516
0.000620425
0.000622385
0.000624399
0.000626471
0.000628602
0.000630797
0.000633059
0.00063539
0.000637794
0.000640276
0.000642838
0.000645485
0.00064822
0.000651047
0.000653971
0.000656996
0.000660125
0.000663363
0.000666713
0.00067018
0.000673768
0.00067748
0.000681319
0.000685288
0.000689391
0.000693629
0.000698005
0.000702519
0.000707172
0.000711965
0.000716896
0.000721964
0.000727167
0.000732501
0.000737963
0.000743548
0.00074925
0.000755064
0.000760982
0.000766997
0.000773094
0.000779233
0.000785401
0.000791597
0.000797815
0.00080405
0.000810299
0.000816557
0.000822822
0.000829089
0.000835356
0.000841621
0.000847881
0.000854134
0.000860378
0.000866612
0.000872833
0.000879041
0.000885235
0.000891412
0.000897573
0.000903714
0.000909835
0.000915935
0.000922011
0.000928061
0.000934084
0.000940078
0.000946039
0.000951964
0.000957851
0.000963695
0.000969494
0.000975242
0.000980937
0.000986575
0.000992152
0.000997665
0.00100311
0.00100849
0.00101379
0.00101903
0.00102419
0.00102927
0.00103429
0.00103923
0.0010441
0.00104891
0.00105365
0.00105833
0.00106295
0.00106752
0.00107203
0.0010765
0.00108095
0.00108542
0.0010899
0.00109439
0.0010989
0.00110342
0.00110795
0.00111248
0.00111702
0.00112155
0.00112606
0.00113056
0.00113503
0.00113946
0.00114385
0.00114818
0.00115245
0.00115665
0.00116076
0.00116478
0.0011687
0.00117251
0.0011762
0.00117976
0.00118319
0.00118648
0.00118963
0.00119263
0.00119549
0.00119819
0.00120075
0.00120316
0.00120542
0.00120755
0.00120954
0.0012114
0.00121313
0.00121475
0.00121626
0.00121767
0.00121898
0.0012202
0.00122135
0.00122242
0.00122344
0.00122438
0.00122529
0.00122612
0.00122695
0.00122769
0.00122845
0.00122913
0.00122983
0.00123046
0.00123113
0.00123173
0.00123237
0.00123294
0.00123359
0.00123413
0.0012348
0.00123529
0.00123601
0.00123653
0.00123708
0.000633132
0.000634868
0.000636377
0.000637674
0.000638767
0.000639633
0.000640222
0.000640487
0.000640527
0.000640466
0.000640152
0.000639566
0.000638731
0.000671352
0.000674369
0.000677468
0.000680654
0.000683931
0.000687304
0.000690779
0.000694358
0.000698048
0.000701853
0.000705776
0.000709823
0.000713998
0.000718303
0.000722743
0.000727321
0.000732039
0.000736899
0.000741903
0.000747051
0.000752343
0.000757779
0.000763357
0.000769074
0.000774927
0.00078091
0.000786987
0.000793137
0.000799356
0.000805641
0.000811988
0.000818391
0.000824846
0.000831348
0.000837891
0.00084447
0.000851078
0.000857709
0.000864359
0.00087102
0.000877686
0.000884351
0.000891008
0.000897652
0.000904276
0.000910872
0.000917437
0.000923961
0.00093044
0.000936866
0.000943233
0.000949535
0.000955766
0.000961918
0.000967986
0.000973964
0.000979846
0.000985627
0.000991301
0.000996863
0.00100231
0.00100764
0.00101285
0.00101793
0.00102289
0.00102772
0.00103243
0.00103701
0.00104148
0.00104583
0.00105006
0.00105419
0.00105822
0.00106215
0.00106601
0.00106983
0.00107362
0.00107739
0.00108115
0.00108489
0.00108863
0.00109237
0.00109611
0.00109985
0.0011036
0.00110736
0.00111112
0.00111489
0.00111866
0.00112244
0.00112621
0.00112998
0.00113375
0.00113749
0.00114122
0.00114492
0.00114858
0.00115221
0.00115579
0.00115932
0.00116279
0.0011662
0.00116953
0.0011728
0.00117599
0.0011791
0.00118212
0.00118506
0.00118791
0.00119068
0.00119335
0.00119594
0.00119843
0.00120084
0.00120316
0.00120539
0.00120754
0.00120961
0.00121159
0.00121349
0.00121531
0.00121705
0.00121871
0.00122029
0.0012218
0.00122323
0.00122458
0.00122586
0.00122706
0.00122819
0.00122924
0.00123022
0.00123112
0.00123195
0.0012327
0.00123339
0.00123401
0.00123456
0.00123507
0.00123552
0.00123593
0.0012363
0.00123664
0.00123695
0.00123724
0.00123752
0.00123778
0.00123803
0.00123828
0.00123851
0.00123875
0.00123898
0.00123921
0.00123945
0.00123969
0.00123993
0.00124018
0.00124043
0.00124069
0.00124097
0.00124125
0.00124154
0.00124183
0.00124213
0.00124244
0.00124276
0.00124309
0.00124342
0.00124377
0.00124413
0.0012445
0.00124486
0.00124524
0.0012456
0.00124598
0.00124634
0.00124672
0.00124708
0.00124746
0.00124782
0.00124822
0.00124856
0.00124896
0.00124927
0.00124966
0.00124994
0.00125031
0.00125054
0.0012509
0.00125107
0.0012514
0.00125154
0.00125148
0.000774205
0.000778288
0.000781821
0.000784746
0.000786989
0.00078869
0.000789855
0.000790406
0.000790645
0.000790341
0.000789344
0.000787778
0.000785722
0.000910899
0.000917491
0.000924085
0.000930675
0.000937252
0.000943805
0.000950327
0.000956809
0.000963238
0.000969604
0.000975898
0.000982108
0.000988224
0.000994237
0.00100014
0.00100592
0.00101157
0.00101708
0.00102246
0.00102769
0.00103277
0.0010377
0.00104248
0.00104711
0.00105158
0.00105592
0.00106014
0.00106428
0.00106833
0.00107229
0.00107618
0.00108
0.00108374
0.00108742
0.00109104
0.00109459
0.00109809
0.00110154
0.00110493
0.00110828
0.00111159
0.00111485
0.00111808
0.00112126
0.00112441
0.00112752
0.0011306
0.00113364
0.00113665
0.00113962
0.00114256
0.00114546
0.00114833
0.00115116
0.00115396
0.00115673
0.00115946
0.00116216
0.00116483
0.00116746
0.00117006
0.00117263
0.00117518
0.00117769
0.00118017
0.00118263
0.00118505
0.00118745
0.00118983
0.00119217
0.00119449
0.00119677
0.00119903
0.00120125
0.00120345
0.0012056
0.00120771
0.00120978
0.0012118
0.00121376
0.00121566
0.0012175
0.00121927
0.00122097
0.00122259
0.00122412
0.00122557
0.00122693
0.0012282
0.00122938
0.00123046
0.00123145
0.00123236
0.00123318
0.00123392
0.00123458
0.00123517
0.00123569
0.00123615
0.00123656
0.00123693
0.00123725
0.00123755
0.00123781
0.00123805
0.00123828
0.00123849
0.00123869
0.00123889
0.00123909
0.00123928
0.00123947
0.00123967
0.00123987
0.00124008
0.00124029
0.00124051
0.00124074
0.00124097
0.00124121
0.00124146
0.00124172
0.00124198
0.00124225
0.00124253
0.00124282
0.00124311
0.00124341
0.00124371
0.00124401
0.00124431
0.00124461
0.00124491
0.00124519
0.00124547
0.00124573
0.00124598
0.00124623
0.00124646
0.00124669
0.0012469
0.0012471
0.00124728
0.00124745
0.00124759
0.00124771
0.00124781
0.00124788
0.00124794
0.00124798
0.00124799
0.001248
0.00124799
0.00124797
0.00124794
0.00124791
0.00124787
0.00124783
0.00124778
0.00124773
0.00124768
0.00124764
0.00124761
0.00124758
0.00124756
0.00124755
0.00124755
0.00124755
0.00124755
0.00124756
0.00124756
0.00124757
0.00124759
0.00124761
0.00124763
0.00124766
0.0012477
0.00124774
0.00124777
0.00124779
0.00124781
0.0012478
0.00124778
0.00124773
0.00124768
0.00124759
0.00124749
0.00124733
0.00124717
0.00124694
0.0012467
0.00124642
0.00124537
0.000999528
0.0010022
0.00100407
0.00100523
0.00100576
0.0010063
0.00100664
0.00100555
0.00100352
0.00100192
0.00100021
0.000997911
0.000994928
0.000991302
0.00111976
0.00112293
0.00112601
0.00112899
0.00113189
0.00113471
0.00113745
0.00114011
0.00114271
0.00114524
0.00114772
0.00115014
0.00115251
0.00115484
0.00115713
0.00115938
0.00116161
0.00116381
0.001166
0.00116816
0.00117032
0.00117246
0.00117459
0.00117672
0.00117884
0.00118096
0.00118308
0.00118519
0.00118729
0.00118938
0.00119146
0.00119353
0.00119558
0.00119761
0.00119961
0.00120158
0.00120352
0.00120543
0.0012073
0.00120912
0.0012109
0.00121262
0.0012143
0.00121591
0.00121747
0.00121896
0.00122039
0.00122176
0.00122306
0.0012243
0.00122547
0.00122657
0.00122762
0.0012286
0.00122951
0.00123037
0.00123118
0.00123193
0.00123263
0.00123328
0.00123388
0.00123445
0.00123497
0.00123545
0.0012359
0.00123632
0.00123671
0.00123707
0.0012374
0.00123771
0.001238
0.00123827
0.00123853
0.00123877
0.00123901
0.00123923
0.00123944
0.00123965
0.00123986
0.00124006
0.00124025
0.00124045
0.00124064
0.00124083
0.00124103
0.00124122
0.00124141
0.00124161
0.0012418
0.00124199
0.00124218
0.00124237
0.00124255
0.00124273
0.00124291
0.00124308
0.00124324
0.0012434
0.00124355
0.0012437
0.00124384
0.00124398
0.00124412
0.00124426
0.00124439
0.00124452
0.00124465
0.00124477
0.00124488
0.00124499
0.0012451
0.00124521
0.0012453
0.0012454
0.00124549
0.00124558
0.00124567
0.00124575
0.00124583
0.0012459
0.00124597
0.00124604
0.00124611
0.00124617
0.00124623
0.00124628
0.00124633
0.00124637
0.0012464
0.00124643
0.00124645
0.00124647
0.00124649
0.0012465
0.00124652
0.00124653
0.00124655
0.00124655
0.00124655
0.00124653
0.00124649
0.00124643
0.00124635
0.00124625
0.00124613
0.001246
0.00124584
0.00124567
0.00124549
0.00124529
0.00124509
0.00124487
0.00124465
0.00124442
0.0012442
0.00124397
0.00124374
0.00124352
0.00124329
0.00124308
0.00124286
0.00124266
0.00124245
0.00124226
0.00124206
0.00124186
0.00124166
0.00124145
0.00124124
0.00124102
0.00124079
0.00124055
0.0012403
0.00124003
0.00123974
0.00123944
0.00123911
0.00123874
0.00123836
0.00123794
0.00123749
0.00123701
0.00123651
0.00123597
0.0012354
0.0012348
0.00123417
0.0012335
0.00123282
0.00123209
0.00123134
0.0012306
0.00122828
0.00114755
0.00114785
0.00114797
0.00114667
0.00114557
0.00114472
0.00114281
0.0011403
0.00113821
0.00113617
0.00113372
0.00113066
0.0011271
0.00112348
0.00120201
0.00120359
0.00120513
0.00120665
0.00120814
0.00120959
0.00121101
0.00121241
0.00121378
0.00121512
0.00121643
0.00121772
0.00121897
0.00122018
0.00122136
0.00122251
0.00122362
0.00122469
0.00122573
0.00122672
0.00122766
0.00122856
0.00122942
0.00123022
0.00123098
0.00123169
0.00123236
0.00123297
0.00123354
0.00123406
0.00123454
0.00123498
0.00123538
0.00123574
0.00123607
0.00123637
0.00123664
0.00123688
0.0012371
0.0012373
0.00123749
0.00123766
0.00123782
0.00123797
0.00123811
0.00123825
0.00123838
0.00123852
0.00123865
0.00123878
0.00123891
0.00123905
0.00123919
0.00123933
0.00123947
0.00123962
0.00123977
0.00123993
0.00124008
0.00124024
0.0012404
0.00124056
0.00124073
0.00124089
0.00124105
0.00124121
0.00124137
0.00124153
0.00124168
0.00124184
0.00124199
0.00124215
0.0012423
0.00124244
0.00124258
0.00124271
0.00124284
0.00124296
0.00124307
0.00124318
0.00124327
0.00124336
0.00124344
0.00124352
0.00124358
0.00124364
0.00124369
0.00124374
0.00124378
0.00124381
0.00124383
0.00124386
0.00124387
0.00124389
0.00124391
0.00124392
0.00124394
0.00124396
0.00124399
0.00124401
0.00124404
0.00124407
0.00124409
0.00124411
0.00124412
0.00124412
0.00124412
0.00124411
0.00124409
0.00124407
0.00124404
0.001244
0.00124396
0.00124391
0.00124385
0.00124379
0.00124373
0.00124366
0.00124358
0.0012435
0.00124341
0.00124331
0.00124321
0.0012431
0.00124298
0.00124285
0.00124271
0.00124257
0.00124241
0.00124224
0.00124207
0.00124188
0.00124168
0.00124147
0.00124124
0.00124099
0.00124072
0.00124043
0.00124012
0.00123978
0.00123943
0.00123907
0.00123869
0.00123829
0.00123788
0.00123746
0.00123703
0.00123659
0.00123615
0.0012357
0.00123524
0.00123478
0.00123432
0.00123386
0.00123339
0.00123292
0.00123245
0.00123198
0.0012315
0.00123101
0.00123052
0.00123001
0.00122949
0.00122896
0.00122841
0.00122783
0.00122724
0.00122662
0.00122598
0.00122531
0.00122462
0.0012239
0.00122314
0.00122236
0.00122154
0.00122069
0.00121981
0.0012189
0.00121796
0.00121698
0.00121598
0.00121494
0.00121387
0.00121277
0.00121166
0.00121051
0.00120936
0.00120817
0.001207
0.00120574
0.00120449
0.00120314
0.00119883
0.00122074
0.00121821
0.00121571
0.00121289
0.00120993
0.00120666
0.00120318
0.00120018
0.00119746
0.00119463
0.00119152
0.00118823
0.00118526
0.0011824
0.00123283
0.0012332
0.00123355
0.00123387
0.00123416
0.00123443
0.00123469
0.00123493
0.00123514
0.00123535
0.00123556
0.00123575
0.00123593
0.00123611
0.00123628
0.00123645
0.00123662
0.00123678
0.00123695
0.00123711
0.00123728
0.00123745
0.00123761
0.00123778
0.00123795
0.00123811
0.00123828
0.00123844
0.0012386
0.00123875
0.0012389
0.00123904
0.00123918
0.0012393
0.00123943
0.00123954
0.00123965
0.00123976
0.00123985
0.00123994
0.00124003
0.0012401
0.00124017
0.00124023
0.00124029
0.00124034
0.00124039
0.00124044
0.00124049
0.00124053
0.00124058
0.00124063
0.00124067
0.00124072
0.00124077
0.00124083
0.00124088
0.00124094
0.001241
0.00124106
0.00124113
0.0012412
0.00124127
0.00124134
0.00124142
0.0012415
0.00124158
0.00124167
0.00124175
0.00124183
0.0012419
0.00124196
0.00124202
0.00124206
0.0012421
0.00124213
0.00124215
0.00124216
0.00124215
0.00124214
0.00124212
0.00124209
0.00124204
0.00124199
0.00124193
0.00124186
0.00124179
0.0012417
0.00124161
0.00124152
0.00124142
0.00124131
0.0012412
0.00124109
0.00124098
0.00124086
0.00124073
0.00124061
0.00124047
0.00124033
0.00124018
0.00124001
0.00123984
0.00123967
0.00123948
0.00123929
0.0012391
0.00123889
0.00123868
0.00123846
0.00123823
0.001238
0.00123775
0.0012375
0.00123723
0.00123696
0.00123668
0.00123638
0.00123608
0.00123576
0.00123542
0.00123508
0.00123471
0.00123433
0.00123394
0.00123352
0.00123309
0.00123264
0.00123217
0.00123169
0.00123118
0.00123065
0.00123011
0.00122954
0.00122895
0.00122834
0.00122771
0.00122707
0.0012264
0.00122573
0.00122504
0.00122433
0.00122362
0.00122289
0.00122215
0.0012214
0.00122064
0.00121987
0.00121909
0.0012183
0.00121751
0.0012167
0.00121588
0.00121504
0.00121419
0.00121332
0.00121244
0.00121153
0.0012106
0.00120965
0.00120867
0.00120766
0.00120663
0.00120556
0.00120446
0.00120333
0.00120217
0.00120098
0.00119975
0.00119849
0.00119719
0.00119586
0.0011945
0.00119311
0.00119168
0.00119023
0.00118874
0.00118722
0.00118568
0.0011841
0.00118251
0.00118088
0.00117924
0.00117758
0.0011759
0.0011742
0.0011725
0.00117075
0.00116901
0.00116711
0.00116509
0.00116275
0.00115534
0.00122664
0.00122347
0.0012203
0.00121713
0.00121388
0.00121015
0.00120644
0.00120347
0.00120063
0.00119764
0.00119441
0.00119109
0.0011883
0.00123638
0.00123654
0.00123671
0.00123687
0.00123699
0.00123711
0.00123725
0.00123736
0.00123746
0.00123757
0.00123767
0.00123776
0.00123785
0.00123795
0.00123803
0.00123812
0.0012382
0.00123828
0.00123836
0.00123844
0.00123851
0.00123859
0.00123866
0.00123874
0.00123881
0.00123888
0.00123895
0.00123902
0.00123909
0.00123916
0.00123923
0.0012393
0.00123936
0.00123942
0.00123948
0.00123954
0.00123958
0.00123962
0.00123965
0.00123967
0.00123969
0.00123969
0.0012397
0.00123969
0.00123969
0.00123967
0.00123966
0.00123964
0.00123962
0.0012396
0.00123957
0.00123955
0.00123952
0.00123949
0.00123947
0.00123944
0.00123942
0.00123939
0.00123937
0.00123934
0.00123931
0.00123929
0.00123926
0.00123922
0.00123919
0.00123914
0.00123909
0.00123903
0.00123895
0.00123887
0.00123878
0.00123867
0.00123856
0.00123844
0.0012383
0.00123816
0.001238
0.00123783
0.00123766
0.00123747
0.00123727
0.00123706
0.00123684
0.00123661
0.00123638
0.00123613
0.00123587
0.00123561
0.00123533
0.00123505
0.00123476
0.00123446
0.00123415
0.00123383
0.0012335
0.00123316
0.00123281
0.00123245
0.00123207
0.00123169
0.0012313
0.0012309
0.00123048
0.00123006
0.00122963
0.00122919
0.00122873
0.00122827
0.00122779
0.0012273
0.00122679
0.00122627
0.00122573
0.00122518
0.0012246
0.00122401
0.0012234
0.00122277
0.00122212
0.00122145
0.00122076
0.00122004
0.0012193
0.00121854
0.00121775
0.00121694
0.00121611
0.00121525
0.00121437
0.00121347
0.00121255
0.00121161
0.00121064
0.00120966
0.00120866
0.00120764
0.0012066
0.00120554
0.00120447
0.00120339
0.00120228
0.00120116
0.00120003
0.00119888
0.00119772
0.00119654
0.00119534
0.00119412
0.00119288
0.00119163
0.00119035
0.00118904
0.00118771
0.00118636
0.00118497
0.00118356
0.00118212
0.00118064
0.00117913
0.00117759
0.00117602
0.00117441
0.00117277
0.00117109
0.00116938
0.00116764
0.00116586
0.00116406
0.00116222
0.00116035
0.00115845
0.00115652
0.00115457
0.00115259
0.00115058
0.00114855
0.0011465
0.00114443
0.00114234
0.00114023
0.00113811
0.00113597
0.00113381
0.00113165
0.00112948
0.00112729
0.00112509
0.00112283
0.00112049
0.00111788
0.00111485
0.0011112
0.00109998
0.00122548
0.00122209
0.00121871
0.00121551
0.00121214
0.00120814
0.00120446
0.00120165
0.00119878
0.00119576
0.00119248
0.00118918
0.00118662
0.00123693
0.00123703
0.00123709
0.00123717
0.00123727
0.00123732
0.00123738
0.00123744
0.0012375
0.00123754
0.00123758
0.00123763
0.00123766
0.00123769
0.00123773
0.00123775
0.00123778
0.0012378
0.00123782
0.00123783
0.00123784
0.00123785
0.00123786
0.00123786
0.00123785
0.00123784
0.00123783
0.00123781
0.00123778
0.00123775
0.00123771
0.00123765
0.00123759
0.00123752
0.00123744
0.00123735
0.00123726
0.00123716
0.00123706
0.00123695
0.00123684
0.00123672
0.00123659
0.00123647
0.00123634
0.0012362
0.00123607
0.00123593
0.00123579
0.00123564
0.0012355
0.00123535