/*--------------------------------*- C++ -*----------------------------------*\
| =========                 |                                                 |
| \\      /  F ield         | OpenFOAM: The Open Source CFD Toolbox           |
|  \\    /   O peration     | Version:  v1706                                 |
|   \\  /    A nd           | Web:      www.OpenFOAM.com                      |
|    \\/     M anipulation  |                                                 |
\*---------------------------------------------------------------------------*/
FoamFile
{
    version     2.0;
    format      ascii;
    class       volScalarField;
    location    "1.3e-05";
    object      Tt;
}
// * * * * * * * * * * * * * * * * * * * * * * * * * * * * * * * * * * * * * //

dimensions      [0 0 0 1 0 0 0];


internalField   nonuniform List<scalar> 
30104
(
144.489
144.49
144.491
144.491
144.491
144.492
144.492
144.491
144.491
144.491
144.49
144.489
144.488
144.487
144.485
144.484
144.482
144.447
144.447
144.448
144.448
144.448
144.449
144.449
144.45
144.45
144.451
144.451
144.452
144.452
144.452
144.453
144.453
144.454
144.454
144.455
144.455
144.456
144.456
144.457
144.457
144.458
144.458
144.459
144.459
144.46
144.46
144.461
144.461
144.462
144.462
144.463
144.463
144.464
144.464
144.465
144.466
144.466
144.467
144.467
144.468
144.468
144.469
144.47
144.47
144.471
144.472
144.472
144.473
144.474
144.474
144.475
144.476
144.476
144.477
144.478
144.478
144.479
144.48
144.481
144.481
144.482
144.483
144.484
144.484
144.485
144.486
144.487
144.488
144.488
144.489
144.49
144.491
144.492
144.493
144.494
144.495
144.496
144.497
144.497
144.498
144.499
144.5
144.502
144.503
144.504
144.505
144.506
144.507
144.508
144.509
144.51
144.512
144.513
144.514
144.515
144.516
144.518
144.519
144.52
144.522
144.523
144.524
144.525
144.527
144.528
144.529
144.531
144.532
144.533
144.535
144.536
144.537
144.539
144.54
144.541
144.543
144.544
144.545
144.547
144.548
144.55
144.551
144.552
144.554
144.555
144.556
144.558
144.559
144.561
144.562
144.564
144.565
144.567
144.568
144.57
144.572
144.573
144.575
144.577
144.578
144.58
144.582
144.584
144.586
144.588
144.59
144.592
144.594
144.596
144.598
144.6
144.603
144.605
144.607
144.61
144.612
144.615
144.617
144.62
144.623
144.625
144.628
144.631
144.634
144.637
144.64
144.642
144.645
144.648
144.651
144.654
144.657
144.661
144.664
144.667
144.67
144.673
144.676
144.679
144.682
144.685
144.688
144.691
144.694
144.697
144.7
144.702
144.699
144.657
144.908
144.914
144.919
144.922
144.925
144.926
144.927
144.926
144.924
144.922
144.918
144.913
144.908
144.901
144.894
144.886
144.877
144.705
144.708
144.711
144.714
144.717
144.72
144.723
144.726
144.729
144.733
144.736
144.739
144.743
144.746
144.749
144.753
144.756
144.76
144.763
144.767
144.771
144.774
144.778
144.782
144.786
144.79
144.794
144.798
144.802
144.806
144.81
144.814
144.819
144.823
144.827
144.832
144.836
144.841
144.846
144.85
144.855
144.86
144.865
144.87
144.875
144.881
144.886
144.891
144.897
144.902
144.908
144.913
144.919
144.925
144.931
144.936
144.942
144.948
144.954
144.961
144.967
144.973
144.979
144.986
144.992
144.999
145.005
145.012
145.018
145.025
145.032
145.038
145.045
145.052
145.059
145.066
145.073
145.081
145.088
145.096
145.103
145.111
145.119
145.127
145.135
145.143
145.151
145.159
145.168
145.177
145.186
145.195
145.204
145.213
145.223
145.232
145.242
145.252
145.262
145.272
145.283
145.293
145.304
145.315
145.326
145.337
145.348
145.36
145.371
145.383
145.395
145.407
145.419
145.431
145.443
145.456
145.468
145.481
145.494
145.507
145.52
145.533
145.546
145.559
145.573
145.586
145.6
145.614
145.627
145.641
145.655
145.67
145.684
145.699
145.714
145.729
145.744
145.76
145.775
145.791
145.808
145.824
145.841
145.859
145.876
145.894
145.913
145.932
145.951
145.971
145.991
146.011
146.032
146.054
146.076
146.099
146.122
146.145
146.17
146.194
146.22
146.246
146.272
146.299
146.326
146.354
146.382
146.411
146.441
146.471
146.501
146.531
146.562
146.594
146.625
146.657
146.689
146.722
146.754
146.787
146.82
146.853
146.886
146.919
146.952
146.984
147.017
147.05
147.083
147.116
147.151
147.148
146.933
145.922
145.939
145.953
145.964
145.972
145.977
145.978
145.977
145.972
145.965
145.954
145.94
145.924
145.905
145.884
145.86
145.438
145.449
145.461
145.473
145.486
145.498
145.51
145.523
145.536
145.549
145.562
145.576
145.589
145.603
145.616
145.63
145.645
145.659
145.673
145.688
145.703
145.718
145.733
145.748
145.764
145.78
145.796
145.812
145.828
145.845
145.861
145.878
145.896
145.913
145.931
145.949
145.967
145.986
146.005
146.024
146.044
146.063
146.083
146.104
146.124
146.145
146.167
146.188
146.21
146.233
146.255
146.278
146.301
146.325
146.349
146.373
146.398
146.423
146.448
146.473
146.499
146.525
146.552
146.579
146.606
146.633
146.661
146.689
146.717
146.746
146.775
146.804
146.834
146.864
146.895
146.926
146.957
146.989
147.021
147.053
147.087
147.12
147.155
147.19
147.225
147.261
147.298
147.336
147.374
147.413
147.452
147.493
147.534
147.576
147.619
147.662
147.707
147.752
147.798
147.845
147.893
147.942
147.991
148.042
148.093
148.145
148.198
148.252
148.307
148.363
148.419
148.476
148.534
148.593
148.652
148.712
148.773
148.834
148.896
148.959
149.022
149.085
149.149
149.214
149.278
149.343
149.409
149.475
149.541
149.608
149.675
149.742
149.811
149.879
149.949
150.019
150.09
150.161
150.234
150.307
150.382
150.457
150.534
150.612
150.691
150.771
150.853
150.937
151.022
151.109
151.198
151.289
151.382
151.476
151.573
151.673
151.775
151.879
151.986
152.096
152.208
152.323
152.441
152.562
152.686
152.813
152.944
153.077
153.214
153.354
153.497
153.643
153.793
153.945
154.101
154.26
154.421
154.586
154.753
154.923
155.095
155.269
155.446
155.624
155.804
155.985
156.167
156.35
156.532
156.715
156.898
157.017
156.398
148.28
148.322
148.356
148.382
148.401
148.412
148.414
148.41
148.398
148.378
148.351
148.317
148.275
148.227
148.173
148.113
147.419
147.457
147.496
147.535
147.575
147.615
147.656
147.698
147.74
147.782
147.826
147.87
147.914
147.959
148.005
148.051
148.098
148.145
148.193
148.242
148.292
148.342
148.392
148.443
148.495
148.548
148.601
148.656
148.71
148.766
148.823
148.88
148.938
148.998
149.058
149.119
149.181
149.245
149.309
149.375
149.441
149.509
149.579
149.649
149.721
149.794
149.868
149.944
150.021
150.1
150.18
150.261
150.344
150.428
150.514
150.601
150.69
150.78
150.871
150.964
151.058
151.154
151.25
151.348
151.448
151.548
151.65
151.752
151.856
151.961
152.067
152.174
152.281
152.39
152.5
152.61
152.722
152.835
152.949
153.065
153.181
153.299
153.419
153.54
153.663
153.787
153.914
154.042
154.172
154.305
154.44
154.577
154.716
154.858
155.003
155.15
155.3
155.453
155.61
155.769
155.931
156.097
156.266
156.439
156.615
156.795
156.979
157.166
157.357
157.552
157.751
157.954
158.161
158.372
158.586
158.804
159.026
159.252
159.481
159.713
159.949
160.188
160.431
160.676
160.924
161.174
161.427
161.681
161.937
162.194
162.453
162.713
162.974
163.237
163.501
163.767
164.035
164.304
164.575
164.848
165.123
165.401
165.681
165.963
166.248
166.537
166.828
167.123
167.421
167.724
168.031
168.343
168.66
168.983
169.311
169.646
169.987
170.335
170.691
171.056
171.428
171.81
172.201
172.602
173.013
173.435
173.867
174.312
174.768
175.236
175.717
176.21
176.716
177.235
177.767
178.313
178.871
179.443
180.027
180.625
181.234
181.858
182.492
183.141
183.799
184.474
185.153
185.855
186.532
187.243
187.892
188.671
187.975
153.408
153.493
153.562
153.613
153.647
153.663
153.662
153.646
153.613
153.564
153.497
153.416
153.319
153.209
153.084
152.421
152.531
152.643
152.757
152.873
152.991
153.11
153.232
153.356
153.482
153.61
153.74
153.872
154.007
154.143
154.281
154.421
154.564
154.708
154.854
155.002
155.152
155.303
155.456
155.611
155.768
155.926
156.087
156.249
156.413
156.579
156.746
156.917
157.089
157.263
157.44
157.619
157.801
157.986
158.173
158.363
158.556
158.752
158.952
159.154
159.36
159.57
159.783
160
160.22
160.445
160.673
160.906
161.143
161.384
161.629
161.878
162.132
162.39
162.652
162.919
163.19
163.465
163.745
164.028
164.316
164.608
164.903
165.203
165.506
165.813
166.123
166.437
166.753
167.072
167.393
167.717
168.043
168.372
168.704
169.039
169.377
169.718
170.063
170.412
170.764
171.12
171.481
171.846
172.216
172.59
172.97
173.355
173.746
174.142
174.545
174.954
175.37
175.793
176.223
176.661
177.107
177.561
178.024
178.495
178.976
179.467
179.967
180.477
180.997
181.527
182.067
182.618
183.178
183.749
184.33
184.92
185.52
186.13
186.748
187.375
188.01
188.653
189.303
189.961
190.625
191.296
191.973
192.651
193.325
193.996
194.661
195.322
195.978
196.628
197.273
197.912
198.545
199.173
199.794
200.41
201.019
201.622
202.218
202.808
203.392
203.969
204.54
205.105
205.663
206.214
206.759
207.297
207.829
208.353
208.87
209.381
209.883
210.379
210.867
211.346
211.818
212.282
212.738
213.185
213.623
214.053
214.475
214.887
215.291
215.686
216.073
216.451
216.821
217.182
217.536
217.88
218.218
218.547
218.87
219.182
219.491
219.788
220.081
220.362
220.639
220.905
221.163
221.421
221.659
221.92
222.165
221.67
163.419
163.603
163.753
163.868
163.949
163.996
164.004
163.986
163.935
163.855
163.739
163.593
163.417
163.213
162.982
162.724
163.78
164.046
164.316
164.59
164.868
165.151
165.438
165.729
166.025
166.325
166.63
166.94
167.254
167.572
167.896
168.224
168.556
168.893
169.234
169.58
169.93
170.284
170.642
171.004
171.37
171.739
172.11
172.485
172.862
173.242
173.626
174.012
174.402
174.795
175.192
175.592
175.996
176.405
176.817
177.234
177.656
178.082
178.514
178.952
179.395
179.844
180.299
180.761
181.23
181.706
182.189
182.681
183.18
183.687
184.203
184.727
185.26
185.802
186.353
186.913
187.482
188.06
188.647
189.243
189.847
190.459
191.079
191.707
192.341
192.982
193.629
194.282
194.939
195.601
196.266
196.929
197.588
198.242
198.891
199.536
200.174
200.806
201.432
202.051
202.663
203.267
203.863
204.451
205.031
205.602
206.164
206.717
207.261
207.795
208.32
208.835
209.34
209.836
210.322
210.798
211.265
211.722
212.17
212.608
213.037
213.457
213.867
214.268
214.66
215.043
215.416
215.781
216.136
216.483
216.822
217.152
217.473
217.787
218.092
218.39
218.681
218.964
219.24
219.51
219.772
220.028
220.278
220.52
220.758
220.992
221.222
221.449
221.672
221.892
222.108
222.321
222.53
222.735
222.937
223.134
223.327
223.515
223.699
223.877
224.05
224.217
224.378
224.534
224.682
224.825
224.96
225.089
225.211
225.325
225.433
225.534
225.628
225.715
225.796
225.87
225.939
226.002
226.06
226.113
226.161
226.206
226.247
226.284
226.319
226.352
226.382
226.411
226.438
226.463
226.489
226.511
226.535
226.556
226.578
226.597
226.619
226.636
226.657
226.673
226.693
226.708
226.728
226.742
226.763
226.775
226.803
226.813
226.635
180.503
180.731
180.902
181.019
181.084
181.088
181.05
180.96
180.821
180.639
180.407
180.129
179.806
184.572
185.05
185.533
186.02
186.513
187.011
187.515
188.024
188.54
189.061
189.589
190.123
190.664
191.211
191.765
192.326
192.892
193.466
194.046
194.631
195.223
195.821
196.424
197.032
197.645
198.263
198.883
199.5
200.115
200.727
201.335
201.94
202.541
203.138
203.729
204.315
204.896
205.47
206.038
206.599
207.152
207.698
208.237
208.767
209.289
209.802
210.306
210.8
211.286
211.762
212.228
212.684
213.13
213.566
213.991
214.407
214.811
215.206
215.589
215.962
216.324
216.676
217.016
217.346
217.666
217.975
218.273
218.562
218.84
219.108
219.366
219.614
219.853
220.083
220.303
220.517
220.724
220.926
221.122
221.312
221.498
221.679
221.855
222.028
222.197
222.362
222.524
222.683
222.839
222.992
223.143
223.29
223.435
223.577
223.717
223.853
223.988
224.119
224.247
224.373
224.496
224.616
224.733
224.847
224.958
225.066
225.171
225.273
225.373
225.469
225.563
225.654
225.743
225.828
225.912
225.992
226.07
226.146
226.219
226.29
226.358
226.423
226.486
226.547
226.605
226.66
226.712
226.762
226.809
226.853
226.894
226.932
226.968
227
227.03
227.057
227.081
227.103
227.123
227.141
227.158
227.173
227.187
227.2
227.213
227.225
227.237
227.248
227.26
227.272
227.283
227.295
227.307
227.319
227.332
227.345
227.358
227.371
227.386
227.401
227.417
227.433
227.45
227.467
227.486
227.505
227.525
227.546
227.569
227.593
227.619
227.645
227.673
227.702
227.733
227.764
227.797
227.831
227.868
227.906
227.947
227.987
228.03
228.071
228.115
228.156
228.203
228.243
228.291
228.331
228.383
228.427
228.379
202.699
202.849
202.927
202.929
202.885
202.777
202.613
202.396
202.137
201.819
201.439
201.012
200.539
210.239
210.715
211.184
211.646
212.1
212.547
212.985
213.416
213.838
214.251
214.655
215.051
215.437
215.813
216.179
216.536
216.883
217.219
217.545
217.862
218.167
218.463
218.748
219.023
219.288
219.542
219.788
220.025
220.255
220.477
220.692
220.9
221.101
221.295
221.483
221.665
221.841
222.011
222.176
222.336
222.491
222.642
222.788
222.93
223.068
223.202
223.333
223.46
223.584
223.705
223.823
223.938
224.05
224.16
224.267
224.372
224.474
224.574
224.671
224.766
224.859
224.949
225.038
225.125
225.209
225.292
225.372
225.451
225.528
225.603
225.676
225.748
225.819
225.888
225.955
226.021
226.086
226.15
226.212
226.274
226.334
226.392
226.449
226.505
226.559
226.611
226.661
226.71
226.755
226.799
226.841
226.88
226.916
226.951
226.983
227.014
227.042
227.069
227.095
227.119
227.142
227.164
227.186
227.207
227.228
227.249
227.27
227.292
227.313
227.334
227.356
227.378
227.401
227.424
227.447
227.47
227.494
227.518
227.542
227.566
227.591
227.615
227.64
227.665
227.691
227.716
227.742
227.768
227.794
227.821
227.847
227.874
227.901
227.928
227.954
227.981
228.008
228.035
228.062
228.091
228.12
228.148
228.176
228.204
228.231
228.258
228.284
228.31
228.335
228.36
228.385
228.41
228.435
228.46
228.485
228.511
228.538
228.566
228.595
228.625
228.656
228.689
228.723
228.76
228.798
228.838
228.881
228.925
228.971
229.019
229.068
229.118
229.17
229.223
229.278
229.334
229.391
229.448
229.506
229.563
229.62
229.678
229.738
229.798
229.861
229.923
229.988
230.051
230.116
230.18
230.244
230.316
230.253
221.286
221.103
220.874
220.604
220.305
219.982
219.653
219.249
218.825
218.414
217.978
217.505
217.004
216.481
222.536
222.687
222.832
222.971
223.106
223.235
223.361
223.482
223.599
223.712
223.822
223.928
224.032
224.132
224.23
224.325
224.417
224.507
224.595
224.681
224.765
224.847
224.928
225.006
225.083
225.158
225.232
225.304
225.375
225.445
225.513
225.58
225.646
225.71
225.774
225.836
225.897
225.957
226.016
226.073
226.13
226.185
226.238
226.291
226.342
226.391
226.439
226.485
226.53
226.573
226.615
226.655
226.693
226.73
226.765
226.799
226.831
226.862
226.892
226.92
226.948
226.974
226.999
227.024
227.048
227.072
227.095
227.117
227.14
227.162
227.184
227.207
227.229
227.252
227.275
227.298
227.322
227.346
227.371
227.395
227.421
227.446
227.472
227.498
227.524
227.551
227.577
227.603
227.63
227.656
227.683
227.709
227.735
227.761
227.787
227.813
227.838
227.864
227.889
227.915
227.941
227.967
227.994
228.022
228.05
228.078
228.106
228.135
228.164
228.193
228.223
228.253
228.283
228.314
228.345
228.376
228.408
228.44
228.473
228.506
228.54
228.574
228.609
228.644
228.68
228.717
228.754
228.792
228.83
228.869
228.908
228.947
228.987
229.028
229.069
229.111
229.153
229.195
229.236
229.276
229.316
229.357
229.398
229.44
229.482
229.524
229.567
229.611
229.655
229.7
229.747
229.794
229.844
229.894
229.947
230.001
230.058
230.116
230.178
230.241
230.308
230.377
230.448
230.523
230.6
230.68
230.762
230.846
230.932
231.021
231.112
231.205
231.3
231.397
231.497
231.598
231.701
231.807
231.915
232.025
232.138
232.252
232.369
232.486
232.606
232.727
232.85
232.974
233.102
233.229
233.357
233.506
233.404
228.768
228.365
227.965
227.5
227.053
226.614
226.136
225.646
225.175
224.704
224.219
223.72
223.214
222.717
225.675
225.733
225.789
225.843
225.896
225.948
225.998
226.047
226.095
226.142
226.189
226.234
226.278
226.322
226.364
226.406
226.447
226.486
226.525
226.562
226.599
226.634
226.669
226.702
226.734
226.765
226.795
226.824
226.853
226.88
226.907
226.933
226.959
226.984
227.008
227.032
227.056
227.079
227.103
227.126
227.149
227.171
227.194
227.216
227.239
227.261
227.284
227.306
227.328
227.351
227.373
227.396
227.418
227.441
227.464
227.487
227.51
227.533
227.557
227.581
227.605
227.629
227.654
227.679
227.705
227.73
227.757
227.784
227.811
227.84
227.869
227.898
227.929
227.959
227.99
228.022
228.053
228.085
228.118
228.15
228.183
228.216
228.249
228.282
228.315
228.349
228.383
228.416
228.45
228.484
228.518
228.553
228.587
228.622
228.658
228.693
228.73
228.767
228.804
228.842
228.88
228.918
228.957
228.995
229.034
229.074
229.114
229.155
229.196
229.239
229.282
229.326
229.371
229.416
229.463
229.51
229.559
229.608
229.659
229.711
229.763
229.817
229.872
229.928
229.985
230.044
230.103
230.164
230.226
230.289
230.353
230.419
230.486
230.554
230.624
230.694
230.766
230.84
230.915
230.992
231.07
231.15
231.231
231.314
231.398
231.485
231.573
231.664
231.757
231.852
231.951
232.052
232.157
232.265
232.376
232.49
232.608
232.73
232.855
232.984
233.117
233.253
233.392
233.535
233.682
233.832
233.985
234.141
234.301
234.464
234.631
234.801
234.975
235.152
235.333
235.517
235.705
235.897
236.093
236.292
236.495
236.7
236.91
237.124
237.342
237.564
237.793
238.024
238.263
238.5
238.737
238.986
238.797
231.517
231.016
230.512
229.994
229.477
228.961
228.44
227.932
227.427
226.919
226.408
225.901
225.408
224.925
226.73
226.759
226.787
226.814
226.84
226.865
226.89
226.915
226.939
226.963
226.987
227.011
227.035
227.059
227.083
227.107
227.131
227.155
227.18
227.204
227.229
227.254
227.279
227.305
227.33
227.356
227.382
227.408
227.434
227.461
227.487
227.513
227.54
227.567
227.593
227.62
227.647
227.674
227.701
227.728
227.755
227.782
227.808
227.835
227.861
227.888
227.915
227.942
227.969
227.996
228.024
228.052
228.08
228.109
228.139
228.169
228.2
228.231
228.264
228.297
228.33
228.365
228.4
228.436
228.472
228.51
228.548
228.587
228.627
228.666
228.706
228.746
228.787
228.828
228.87
228.912
228.955
228.998
229.041
229.085
229.129
229.174
229.218
229.264
229.309
229.355
229.402
229.449
229.497
229.546
229.596
229.646
229.698
229.75
229.804
229.859
229.915
229.972
230.031
230.09
230.151
230.213
230.277
230.343
230.409
230.477
230.546
230.617
230.689
230.763
230.839
230.916
230.995
231.076
231.158
231.242
231.329
231.417
231.507
231.599
231.693
231.789
231.886
231.986
232.088
232.192
232.298
232.407
232.517
232.63
232.746
232.864
232.984
233.107
233.233
233.361
233.493
233.627
233.764
233.905
234.048
234.194
234.344
234.497
234.654
234.814
234.979
235.148
235.321
235.498
235.68
235.867
236.059
236.255
236.456
236.662
236.872
237.088
237.308
237.533
237.762
237.997
238.236
238.479
238.728
238.981
239.239
239.502
239.769
240.042
240.32
240.602
240.89
241.183
241.481
241.784
242.092
242.406
242.725
243.05
243.381
243.718
244.061
244.411
244.768
245.132
245.505
245.881
246.264
246.633
246.998
247.287
246.919
232.556
232.032
231.506
230.977
230.451
229.922
229.396
228.887
228.377
227.863
227.347
226.834
226.342
227.252
227.281
227.311
227.339
227.367
227.394
227.423
227.45
227.477
227.505
227.533
227.56
227.588
227.616
227.644
227.673
227.701
227.73
227.76
227.789
227.819
227.85
227.88
227.911
227.943
227.975
228.007
228.04
228.073
228.106
228.14
228.173
228.208
228.242
228.276
228.31
228.344
228.377
228.412
228.446
228.48
228.515
228.55
228.585
228.621
228.657
228.693
228.73
228.768
228.806
228.846
228.885
228.926
228.968
229.01
229.054
229.098
229.144
229.191
229.239
229.288
229.338
229.389
229.441
229.495
229.549
229.605
229.661
229.719
229.778
229.837
229.898
229.959
230.022
230.085
230.149
230.214
230.28
230.347
230.415
230.484
230.554
230.625
230.698
230.772
230.847
230.923
231.001
231.081
231.162
231.245
231.33
231.417
231.506
231.596
231.689
231.784
231.882
231.981
232.083
232.187
232.293
232.402
232.513
232.627
232.743
232.861
232.983
233.106
233.233
233.362
233.494
233.629
233.766
233.907
234.051
234.197
234.347
234.5
234.656
234.815
234.977
235.143
235.311
235.484
235.659
235.838
236.021
236.208
236.398
236.592
236.79
236.992
237.199
237.409
237.624
237.844
238.068
238.297
238.53
238.769
239.012
239.261
239.516
239.776
240.041
240.313
240.59
240.873
241.162
241.457
241.758
242.065
242.378
242.696
243.021
243.351
243.687
244.029
244.377
244.73
245.09
245.455
245.826
246.203
246.586
246.974
247.369
247.77
248.177
248.59
249.009
249.435
249.866
250.305
250.75
251.201
251.659
252.125
252.597
253.077
253.564
254.06
254.563
255.075
255.594
256.12
256.643
257.159
257.635
258.104
258.262
257.599
233.29
232.747
232.204
231.667
231.131
230.589
230.061
229.558
229.045
228.529
228.013
227.501
227.017
227.912
227.948
227.982
228.017
228.052
228.086
228.119
228.154
228.189
228.224
228.259
228.295
228.331
228.367
228.405
228.442
228.48
228.519
228.558
228.597
228.638
228.678
228.72
228.761
228.804
228.846
228.89
228.934
228.978
229.023
229.068
229.114
229.16
229.207
229.254
229.303
229.351
229.401
229.451
229.502
229.554
229.607
229.661
229.716
229.772
229.829
229.888
229.947
230.008
230.071
230.135
230.2
230.268
230.336
230.406
230.478
230.552
230.627
230.704
230.782
230.862
230.943
231.027
231.111
231.198
231.286
231.375
231.467
231.56
231.654
231.75
231.848
231.947
232.048
232.151
232.256
232.362
232.471
232.582
232.695
232.81
232.928
233.048
233.17
233.295
233.423
233.553
233.687
233.823
233.962
234.104
234.249
234.398
234.549
234.704
234.862
235.024
235.189
235.358
235.53
235.705
235.884
236.067
236.253
236.443
236.637
236.835
237.037
237.242
237.452
237.666
237.884
238.107
238.334
238.565
238.8
239.04
239.284
239.532
239.785
240.043
240.306
240.573
240.846
241.123
241.405
241.693
241.986
242.284
242.588
242.897
243.213
243.534
243.861
244.194
244.533
244.879
245.231
245.589
245.954
246.326
246.704
247.089
247.481
247.879
248.284
248.695
249.113
249.538
249.968
250.405
250.849
251.298
251.754
252.215
252.683
253.157
253.638
254.124
254.616
255.115
255.619
256.13
256.647
257.17
257.699
258.234
258.776
259.324
259.879
260.44
261.007
261.581
262.162
262.748
263.342
263.942
264.548
265.161
265.781
266.408
267.041
267.682
268.324
268.963
269.581
270.162
270.658
271.084
271.001
269.887
233.272
232.725
232.188
231.648
231.097
230.583
230.085
229.571
229.06
228.548
228.046
227.576
228.676
228.722
228.767
228.812
228.857
228.903
228.949
228.996
229.044
229.092
229.141
229.191
229.241
229.292
229.344
229.397
229.451
229.506
229.561
229.618
229.675
229.733
229.792
229.852
229.914
229.976
230.038
230.102
230.167
230.233
230.3
230.368
230.438
230.509
230.58
230.654
230.728
230.804
230.882
230.961
231.041
231.123
231.207
231.293
231.381
231.471
231.562
231.656
231.752
231.85
231.95
232.053
232.157
232.264
232.374
232.485
232.599
232.715
232.833
232.954
233.076
233.202
233.329
233.459
233.591
233.726
233.863
234.003
234.145
234.29
234.437
234.587
234.74
234.896
235.055
235.217
235.382
235.55
235.722
235.897
236.076
236.258
236.444
236.633
236.827
237.024
237.225
237.431
237.64
237.854
238.072
238.294
238.52
238.751
238.986
239.226
239.471
239.72
239.973
240.232
240.495
240.763
241.035
241.313
241.595
241.882
242.175
242.472
242.775
243.082
243.395
243.714
244.037
244.367
244.701
245.041
245.387
245.738
246.095
246.457
246.826
247.2
247.58
247.966
248.358
248.757
249.162
249.573
249.99
250.414
250.845
251.282
251.726
252.177
252.634
253.098
253.569
254.046
254.53
255.021
255.518
256.021
256.531
257.046
257.568
258.096
258.63
259.169
259.715
260.266
260.822
261.384
261.951
262.524
263.101
263.685
264.273
264.866
265.465
266.069
266.678
267.292
267.91
268.534
269.162
269.795
270.433
271.075
271.722
272.373
273.027
273.686
274.348
275.013
275.681
276.352
277.026
277.701
278.38
279.06
279.744
280.428
281.111
281.782
282.426
283.015
283.523
283.901
284.024
283.684
282.041
233.806
233.267
232.735
232.192
231.644
231.149
230.65
230.136
229.636
229.132
229.724
229.788
229.852
229.916
229.981
230.047
230.113
230.181
230.249
230.319
230.39
230.462
230.535
230.61
230.686
230.763
230.842
230.922
231.003
231.086
231.171
231.257
231.344
231.433
231.523
231.615
231.709
231.804
231.901
231.999
232.1
232.202
232.307
232.413
232.522
232.632
232.745
232.86
232.978
233.097
233.22
233.345
233.473
233.603
233.736
233.872
234.011
234.152
234.297
234.445
234.595
234.749
234.905
235.065
235.227
235.393
235.562
235.733
235.908
236.086
236.268
236.452
236.64
236.831
237.026
237.224
237.425
237.63
237.839
238.052
238.268
238.489
238.713
238.942
239.175
239.412
239.654
239.9
240.151
240.406
240.666
240.931
241.201
241.475
241.755
242.039
242.328
242.623
242.923
243.228
243.538
243.853
244.174
244.5
244.832
245.169
245.512
245.86
246.213
246.572
246.937
247.307
247.683
248.064
248.45
248.843
249.241
249.645
250.055
250.47
250.891
251.319
251.752
252.191
252.636
253.087
253.544
254.007
254.476
254.952
255.433
255.92
256.414
256.913
257.419
257.931
258.448
258.973
259.503
260.039
260.581
261.129
261.683
262.243
262.808
263.379
263.955
264.537
265.123
265.714
266.31
266.911
267.516
268.126
268.739
269.357
269.979
270.604
271.233
271.865
272.5
273.139
273.781
274.425
275.072
275.722
276.374
277.028
277.684
278.342
279.001
279.662
280.323
280.985
281.647
282.308
282.969
283.629
284.288
284.945
285.6
286.251
286.9
287.546
288.187
288.824
289.458
290.087
290.713
291.336
291.956
292.568
293.165
293.728
294.234
294.646
294.942
295.011
294.827
294.141
292.099
233.919
233.392
232.848
232.32
231.837
231.335
230.826
230.345
229.855
231.296
231.387
231.479
231.572
231.667
231.763
231.86
231.959
232.06
232.162
232.267
232.373
232.481
232.592
232.704
232.818
232.934
233.052
233.173
233.295
233.42
233.547
233.676
233.807
233.941
234.077
234.216
234.358
234.502
234.648
234.798
234.95
235.106
235.264
235.426
235.59
235.758
235.93
236.104
236.282
236.464
236.649
236.838
237.03
237.226
237.426
237.63
237.837
238.048
238.263
238.481
238.704
238.93
239.16
239.394
239.632
239.874
240.12
240.37
240.624
240.883
241.146
241.413
241.685
241.961
242.242
242.527
242.818
243.113
243.413
243.719
244.029
244.345
244.665
244.992
245.323
245.66
246.002
246.35
246.703
247.062
247.426
247.796
248.171
248.552
248.939
249.331
249.73
250.134
250.543
250.959
251.38
251.807
252.24
252.678
253.122
253.572
254.027
254.488
254.954
255.426
255.903
256.385
256.874
257.367
257.866
258.371
258.881
259.396
259.917
260.444
260.975
261.513
262.055
262.603
263.156
263.714
264.277
264.845
265.418
265.996
266.578
267.166
267.757
268.354
268.955
269.56
270.169
270.782
271.399
272.019
272.643
273.27
273.899
274.532
275.167
275.804
276.443
277.083
277.725
278.369
279.013
279.658
280.303
280.949
281.594
282.239
282.884
283.527
284.169
284.81
285.448
286.084
286.717
287.347
287.973
288.596
289.214
289.828
290.437
291.041
291.64
292.232
292.819
293.399
293.973
294.539
295.098
295.649
296.192
296.725
297.249
297.763
298.266
298.759
299.242
299.714
300.176
300.628
301.067
301.487
301.873
302.204
302.449
302.561
302.514
302.297
301.749
300.736
298.605
234.72
234.199
233.384
233.512
233.642
233.774
233.907
234.043
234.18
234.32
234.463
234.608
234.755
234.905
235.058
235.213
235.371
235.532
235.696
235.862
236.032
236.204
236.379
236.558
236.739
236.924
237.112
237.304
237.498
237.697
237.899
238.104
238.314
238.527
238.744
238.965
239.19
239.419
239.653
239.89
240.132
240.378
240.629
240.883
241.142
241.406
241.674
241.946
242.223
242.504
242.79
243.08
243.375
243.674
243.978
244.287
244.6
244.918
245.24
245.568
245.9
246.238
246.58
246.927
247.28
247.638
248.001
248.37
248.744
249.123
249.508
249.898
250.294
250.696
251.103
251.516
251.934
252.358
252.788
253.223
253.664
254.111
254.563
255.021
255.484
255.953
256.427
256.907
257.393
257.883
258.379
258.881
259.387
259.899
260.416
260.938
261.464
261.996
262.532
263.073
263.618
264.167
264.721
265.279
265.842
266.408
266.979
267.553
268.132
268.715
269.301
269.892
270.485
271.083
271.684
272.288
272.896
273.506
274.12
274.736
275.354
275.975
276.598
277.223
277.85
278.478
279.108
279.738
280.369
281
281.632
282.263
282.894
283.523
284.152
284.778
285.403
286.026
286.645
287.262
287.875
288.484
289.088
289.688
290.284
290.873
291.458
292.036
292.608
293.174
293.733
294.285
294.83
295.368
295.898
296.42
296.933
297.437
297.932
298.416
298.89
299.352
299.803
300.241
300.666
301.078
301.476
301.86
302.233
302.594
302.942
303.278
303.601
303.91
304.205
304.485
304.75
304.999
305.232
305.449
305.646
305.817
305.95
306.023
306.016
305.91
305.666
305.247
304.673
303.783
302.508
300.652
236.181
236.356
236.534
236.714
236.897
237.082
237.27
237.462
237.656
237.854
238.054
238.259
238.466
238.677
238.892
239.11
239.332
239.557
239.786
240.019
240.256
240.496
240.741
240.99
241.243
241.5
241.761
242.027
242.297
242.572
242.851
243.135
243.423
243.716
244.014
244.317
244.624
244.936
245.254
245.575
245.902
246.234
246.57
246.912
247.258
247.609
247.965
248.326
248.692
249.062
249.438
249.818
250.204
250.595
250.99
251.391
251.797
252.208
252.624
253.045
253.472
253.904
254.341
254.784
255.232
255.685
256.144
256.608
257.078
257.553
258.033
258.518
259.009
259.505
260.006
260.512
261.022
261.538
262.059
262.584
263.115
263.649
264.188
264.732
265.28
265.832
266.388
266.948
267.512
268.079
268.65
269.225
269.803
270.384
270.968
271.554
272.143
272.735
273.329
273.925
274.524
275.124
275.726
276.33
276.936
277.544
278.152
278.762
279.374
279.986
280.599
281.212
281.826
282.439
283.052
283.665
284.276
284.887
285.495
286.102
286.707
287.309
287.908
288.503
289.095
289.682
290.265
290.842
291.414
291.98
292.54
293.094
293.64
294.179
294.711
295.236
295.752
296.261
296.761
297.253
297.735
298.208
298.67
299.123
299.564
299.994
300.412
300.817
301.208
301.587
301.951
302.302
302.643
302.971
303.287
303.59
303.88
304.156
304.417
304.663
304.892
305.102
305.294
305.463
305.609
305.73
305.831
305.915
305.983
306.035
306.072
306.093
306.1
306.094
306.076
306.05
306.018
305.984
305.949
305.909
305.854
305.745
305.55
305.238
304.796
304.188
303.428
302.414
301.012
299.609
239.786
240.017
240.251
240.488
240.729
240.972
241.22
241.471
241.726
241.984
242.247