/*--------------------------------*- C++ -*----------------------------------*\
| =========                 |                                                 |
| \\      /  F ield         | OpenFOAM: The Open Source CFD Toolbox           |
|  \\    /   O peration     | Version:  v1706                                 |
|   \\  /    A nd           | Web:      www.OpenFOAM.com                      |
|    \\/     M anipulation  |                                                 |
\*---------------------------------------------------------------------------*/
FoamFile
{
    version     2.0;
    format      ascii;
    class       volVectorField;
    location    "1.3e-05";
    object      U;
}
// * * * * * * * * * * * * * * * * * * * * * * * * * * * * * * * * * * * * * //

dimensions      [0 1 -1 0 0 0 0];


internalField   nonuniform List<vector> 
30104
(
(978.466 0.174567 4.10803e-15)
(978.465 0.177097 6.56333e-15)
(978.464 0.179244 5.59064e-15)
(978.463 0.180995 4.37341e-15)
(978.463 0.182335 5.4195e-15)
(978.463 0.183258 4.39848e-15)
(978.463 0.183787 2.02765e-15)
(978.463 0.183922 3.05634e-15)
(978.464 0.183793 5.27385e-15)
(978.465 0.183142 7.54471e-15)
(978.466 0.182154 5.56113e-15)
(978.467 0.180825 4.73459e-15)
(978.469 0.179157 2.98401e-15)
(978.471 0.17716 4.89643e-15)
(978.473 0.174848 6.80553e-15)
(978.475 0.172239 6.91845e-15)
(978.477 0.169351 5.816e-15)
(978.518 0.0964966 3.02056e-15)
(978.517 0.0971871 4.04525e-15)
(978.517 0.0978808 3.96883e-15)
(978.516 0.098579 3.75551e-15)
(978.516 0.0992833 3.66694e-15)
(978.515 0.0999955 3.56261e-15)
(978.515 0.100717 3.36102e-15)
(978.514 0.10145 4.60551e-15)
(978.514 0.102196 3.90036e-15)
(978.513 0.102957 2.97257e-15)
(978.513 0.103734 3.27013e-15)
(978.512 0.10453 3.25924e-15)
(978.512 0.105346 4.97516e-15)
(978.511 0.106183 3.68471e-15)
(978.511 0.107044 1.38205e-15)
(978.51 0.107929 2.48181e-15)
(978.51 0.108841 2.73959e-15)
(978.509 0.109781 3.40434e-15)
(978.508 0.110749 4.40159e-15)
(978.508 0.111748 2.74132e-15)
(978.507 0.112779 4.80948e-15)
(978.507 0.113842 4.53868e-15)
(978.506 0.11494 2.89405e-15)
(978.505 0.116072 2.94334e-15)
(978.504 0.11724 2.83482e-15)
(978.504 0.118445 2.94394e-15)
(978.503 0.119688 2.84842e-15)
(978.502 0.120969 2.95678e-15)
(978.501 0.122288 3.08071e-15)
(978.5 0.123647 3.20644e-15)
(978.499 0.125044 2.35235e-15)
(978.499 0.126482 4.03699e-15)
(978.498 0.127958 4.09759e-15)
(978.497 0.129474 3.02147e-15)
(978.496 0.131029 2.23481e-15)
(978.495 0.132622 2.85162e-15)
(978.494 0.134252 3.9931e-15)
(978.493 0.135918 2.54693e-15)
(978.492 0.137619 3.47178e-15)
(978.491 0.139353 3.76534e-15)
(978.49 0.141119 3.07641e-15)
(978.489 0.142914 3.76299e-15)
(978.487 0.144736 3.63071e-15)
(978.486 0.146582 4.66041e-15)
(978.485 0.148451 4.48984e-15)
(978.484 0.15034 3.45781e-15)
(978.483 0.152245 3.35315e-15)
(978.482 0.154163 3.05885e-15)
(978.481 0.156092 2.84575e-15)
(978.48 0.158029 2.07149e-15)
(978.479 0.159969 4.23739e-15)
(978.477 0.16191 2.81417e-15)
(978.476 0.163848 2.16976e-15)
(978.475 0.165782 3.08627e-15)
(978.474 0.167706 3.24454e-15)
(978.473 0.169619 1.81954e-15)
(978.472 0.171518 3.31168e-15)
(978.471 0.173399 2.76019e-15)
(978.47 0.17526 2.32346e-15)
(978.468 0.1771 2.08462e-15)
(978.467 0.178915 2.49323e-15)
(978.466 0.180704 3.81935e-15)
(978.465 0.182465 3.36348e-15)
(978.464 0.184196 3.31716e-15)
(978.463 0.185896 4.65666e-15)
(978.462 0.187564 3.76387e-15)
(978.461 0.1892 3.77596e-15)
(978.459 0.190802 4.0207e-15)
(978.458 0.192371 3.75653e-15)
(978.457 0.193907 3.88719e-15)
(978.456 0.19541 3.13256e-15)
(978.455 0.196881 3.02036e-15)
(978.454 0.19832 2.79526e-15)
(978.453 0.19973 1.88122e-15)
(978.452 0.201112 3.84171e-15)
(978.451 0.202467 3.87968e-15)
(978.45 0.203797 3.00062e-15)
(978.449 0.205106 5.16151e-16)
(978.448 0.206395 7.9911e-16)
(978.447 0.207667 2.89141e-15)
(978.446 0.208926 1.52148e-15)
(978.445 0.210175 2.74198e-15)
(978.444 0.211417 1.51072e-15)
(978.443 0.212657 1.73069e-15)
(978.442 0.213897 4.33752e-15)
(978.441 0.215142 3.91496e-15)
(978.44 0.216396 2.79943e-15)
(978.44 0.217663 2.0271e-15)
(978.439 0.218947 2.73369e-15)
(978.438 0.220253 3.56571e-15)
(978.437 0.221585 3.04142e-15)
(978.436 0.222948 3.54021e-15)
(978.435 0.224345 3.9223e-15)
(978.434 0.225783 2.37213e-15)
(978.433 0.227266 8.63393e-16)
(978.432 0.228798 2.49869e-15)
(978.431 0.230385 4.08167e-16)
(978.43 0.232032 6.22389e-16)
(978.429 0.233745 2.67795e-15)
(978.428 0.235528 2.85369e-15)
(978.427 0.237388 3.07732e-15)
(978.426 0.239329 2.76237e-15)
(978.425 0.241356 2.06437e-15)
(978.423 0.243476 2.32424e-15)
(978.422 0.245691 2.32134e-15)
(978.421 0.248007 2.44925e-15)
(978.419 0.250427 1.36724e-15)
(978.417 0.252954 1.54227e-15)
(978.416 0.255591 3.60722e-15)
(978.414 0.25834 3.6707e-15)
(978.412 0.261203 2.96927e-15)
(978.41 0.26418 3.1142e-15)
(978.408 0.267273 2.9615e-15)
(978.406 0.27048 2.35198e-15)
(978.404 0.273802 1.7922e-15)
(978.402 0.277237 2.37574e-15)
(978.4 0.280785 2.65902e-15)
(978.397 0.284443 2.8597e-15)
(978.395 0.288211 2.65697e-15)
(978.392 0.292087 2.48126e-15)
(978.39 0.296067 2.54791e-15)
(978.387 0.30015 1.7793e-15)
(978.384 0.304334 3.1761e-15)
(978.382 0.308616 2.18013e-15)
(978.379 0.312994 6.43028e-17)
(978.376 0.317466 3.02996e-16)
(978.373 0.322032 9.9766e-16)
(978.37 0.32669 1.39267e-15)
(978.367 0.331436 1.78346e-15)
(978.364 0.336272 1.80474e-15)
(978.361 0.341198 2.232e-15)
(978.358 0.346214 2.36409e-15)
(978.355 0.351323 2.0779e-15)
(978.352 0.356525 2.19804e-15)
(978.348 0.361823 1.86191e-15)
(978.345 0.36722 2.30724e-15)
(978.342 0.372718 1.61033e-15)
(978.338 0.378321 2.5794e-15)
(978.335 0.38403 2.27419e-15)
(978.332 0.38985 2.23398e-15)
(978.328 0.395783 3.50059e-15)
(978.325 0.401832 3.43126e-15)
(978.321 0.407998 2.87752e-15)
(978.317 0.414283 2.68637e-15)
(978.314 0.42069 1.92239e-15)
(978.31 0.427217 2.59987e-15)
(978.306 0.433865 3.46979e-15)
(978.303 0.440633 2.53443e-15)
(978.299 0.447519 1.69537e-15)
(978.295 0.454519 2.29266e-15)
(978.291 0.461631 2.70529e-15)
(978.287 0.46885 1.69984e-15)
(978.283 0.47617 2.49647e-15)
(978.279 0.483585 2.26736e-15)
(978.274 0.491087 2.88683e-15)
(978.27 0.49867 3.18547e-15)
(978.266 0.506325 2.87149e-15)
(978.262 0.514044 3.08683e-15)
(978.257 0.521817 2.15578e-15)
(978.253 0.529631 1.49449e-15)
(978.248 0.537478 1.57299e-15)
(978.244 0.545348 1.97174e-15)
(978.239 0.553229 1.32439e-15)
(978.235 0.56111 2.28674e-15)
(978.23 0.568982 2.24018e-15)
(978.226 0.576833 2.81455e-15)
(978.221 0.584655 3.2323e-15)
(978.216 0.592437 2.15246e-15)
(978.212 0.60017 1.53901e-15)
(978.207 0.607848 1.46354e-15)
(978.202 0.61546 2.8428e-15)
(978.198 0.623004 2.06255e-15)
(978.193 0.630469 2.05805e-15)
(978.188 0.637859 1.57944e-15)
(978.184 0.645158 1.30727e-15)
(978.179 0.652381 1.35899e-15)
(978.174 0.659506 2.1835e-15)
(978.17 0.666559 1.60414e-15)
(978.165 0.673509 1.32798e-15)
(978.16 0.6804 1.41725e-15)
(978.156 0.687185 1.56627e-15)
(978.151 0.693931 2.14722e-15)
(978.147 0.700567 2.55844e-15)
(978.142 0.707188 2.38349e-15)
(978.138 0.713706 2.74532e-15)
(978.133 0.720241 2.00448e-15)
(978.129 0.726702 1.81412e-15)
(978.124 0.733172 2.54285e-15)
(978.12 0.739619 2.68895e-15)
(978.116 0.745941 2.43607e-15)
(978.113 0.751664 2.19681e-15)
(978.115 0.752134 2.01019e-15)
(978.168 0.691805 2.04885e-15)
(977.947 0.94701 1.40409e-14)
(977.942 0.96073 1.39697e-14)
(977.939 0.972802 1.18486e-14)
(977.937 0.983148 1.20551e-14)
(977.936 0.991714 1.27786e-14)
(977.936 0.998446 1.21179e-14)
(977.937 1.00314 1.13138e-14)
(977.941 1.00571 1.34146e-14)
(977.944 1.00626 1.49697e-14)
(977.949 1.00509 1.3699e-14)
(977.955 1.00176 1.39345e-14)
(977.963 0.996405 1.56378e-14)
(977.972 0.98906 1.63395e-14)
(977.981 0.979787 1.45522e-14)
(977.992 0.96866 1.4453e-14)
(978.004 0.955763 1.39146e-14)
(978.016 0.941201 1.16264e-14)
(978.183 0.612447 6.21427e-15)
(978.179 0.619343 8.97927e-15)
(978.174 0.626335 1.07461e-14)
(978.17 0.633421 1.02321e-14)
(978.165 0.640595 9.88147e-15)
(978.161 0.647854 9.67339e-15)
(978.156 0.655191 8.26141e-15)
(978.151 0.662602 1.01746e-14)
(978.147 0.67008 1.05916e-14)
(978.142 0.67762 7.87571e-15)
(978.137 0.685216 6.40521e-15)
(978.133 0.692862 8.51197e-15)
(978.128 0.700554 8.80462e-15)
(978.123 0.708286 7.69223e-15)
(978.118 0.716055 5.64361e-15)
(978.113 0.723856 7.47854e-15)
(978.108 0.731686 7.50671e-15)
(978.103 0.739541 8.37296e-15)
(978.098 0.74742 1.08466e-14)
(978.093 0.755319 9.29961e-15)
(978.088 0.763237 1.03365e-14)
(978.083 0.771173 1.01685e-14)
(978.078 0.779125 9.46171e-15)
(978.072 0.787091 9.28923e-15)
(978.067 0.795073 8.66578e-15)
(978.062 0.803068 8.37806e-15)
(978.057 0.811077 8.17403e-15)
(978.051 0.8191 7.90334e-15)
(978.046 0.827137 7.74254e-15)
(978.041 0.835189 7.73513e-15)
(978.035 0.843256 7.30693e-15)
(978.03 0.85134 9.55842e-15)
(978.024 0.859443 8.32578e-15)
(978.019 0.867566 7.64989e-15)
(978.014 0.875712 5.6967e-15)
(978.008 0.883884 8.60413e-15)
(978.003 0.892085 9.07732e-15)
(977.997 0.90032 7.36071e-15)
(977.992 0.908593 7.94129e-15)
(977.986 0.91691 9.86126e-15)
(977.98 0.925277 9.28e-15)
(977.975 0.933701 1.03983e-14)
(977.969 0.94219 7.9074e-15)
(977.963 0.950752 8.65024e-15)
(977.958 0.959397 1.0335e-14)
(977.952 0.968134 8.34087e-15)
(977.946 0.976975 5.9654e-15)
(977.94 0.985931 7.06678e-15)
(977.934 0.995014 8.79705e-15)
(977.928 1.00424 6.77712e-15)
(977.922 1.01361 8.12146e-15)
(977.916 1.02316 8.21946e-15)
(977.91 1.03289 8.11905e-15)
(977.903 1.04282 7.86028e-15)
(977.897 1.05295 5.03282e-15)
(977.89 1.06332 6.62516e-15)
(977.883 1.07393 8.0718e-15)
(977.876 1.0848 8.60511e-15)
(977.869 1.09595 9.42161e-15)
(977.862 1.10738 6.92727e-15)
(977.854 1.11912 6.20685e-15)
(977.846 1.13118 6.97798e-15)
(977.838 1.14356 6.95199e-15)
(977.83 1.1563 7.35241e-15)
(977.821 1.16939 9.0744e-15)
(977.813 1.18285 8.15462e-15)
(977.804 1.19669 6.34961e-15)
(977.794 1.21092 6.44104e-15)
(977.785 1.22555 8.48875e-15)
(977.775 1.2406 7.51307e-15)
(977.765 1.25606 7.57686e-15)
(977.754 1.27195 6.93275e-15)
(977.744 1.28828 6.50901e-15)
(977.733 1.30505 7.06339e-15)
(977.722 1.32227 9.70122e-15)
(977.71 1.33994 7.50635e-15)
(977.699 1.35806 6.22342e-15)
(977.687 1.37665 5.2429e-15)
(977.675 1.3957 5.85746e-15)
(977.662 1.41522 5.39248e-15)
(977.65 1.43519 4.04448e-15)
(977.637 1.45563 5.26664e-15)
(977.624 1.47653 6.33054e-15)
(977.61 1.49789 7.73954e-15)
(977.597 1.5197 7.60855e-15)
(977.583 1.54195 6.95692e-15)
(977.569 1.56465 5.54592e-15)
(977.555 1.58777 6.06311e-15)
(977.541 1.61131 7.33858e-15)
(977.526 1.63526 7.0977e-15)
(977.512 1.6596 7.87119e-15)
(977.497 1.68431 7.53653e-15)
(977.482 1.70938 6.53981e-15)
(977.467 1.73479 4.48753e-15)
(977.451 1.76051 3.58869e-15)
(977.436 1.78653 5.65263e-15)
(977.42 1.81281 3.08676e-15)
(977.404 1.83933 5.4992e-15)
(977.388 1.86607 6.84338e-15)
(977.372 1.893 5.03178e-15)
(977.356 1.9201 6.09706e-15)
(977.34 1.94733 4.89122e-15)
(977.324 1.97467 5.87518e-15)
(977.307 2.0021 7.05468e-15)
(977.29 2.02958 7.21198e-15)
(977.274 2.0571 5.84165e-15)
(977.257 2.08463 5.67912e-15)
(977.24 2.11214 6.8695e-15)
(977.223 2.1396 6.23372e-15)
(977.205 2.16701 6.52713e-15)
(977.188 2.19432 9.23645e-15)
(977.171 2.22153 8.6444e-15)
(977.153 2.24861 5.62439e-15)
(977.136 2.27555 6.39375e-15)
(977.119 2.30233 6.13276e-15)
(977.101 2.32895 5.55842e-15)
(977.084 2.3554 8.18933e-15)
(977.066 2.38167 8.07024e-15)
(977.048 2.40778 6.52933e-15)
(977.031 2.43373 6.85605e-15)
(977.013 2.45952 4.81035e-15)
(976.996 2.48518 5.68036e-15)
(976.978 2.51071 9.12206e-15)
(976.961 2.53614 7.11121e-15)
(976.943 2.5615 4.44476e-15)
(976.925 2.58681 4.08801e-15)
(976.908 2.61211 3.95713e-15)
(976.89 2.63742 4.1321e-15)
(976.873 2.6628 3.72435e-15)
(976.855 2.68827 5.11628e-15)
(976.837 2.71388 6.25436e-15)
(976.819 2.73966 3.7317e-15)
(976.801 2.76565 4.97571e-15)
(976.783 2.79189 5.28823e-15)
(976.765 2.81841 6.68038e-15)
(976.746 2.84524 6.72887e-15)
(976.728 2.87243 5.38734e-15)
(976.709 2.9 4.92303e-15)
(976.69 2.92798 5.86708e-15)
(976.67 2.95641 7.0096e-15)
(976.651 2.98531 7.38529e-15)
(976.631 3.01472 7.11948e-15)
(976.611 3.04467 6.69089e-15)
(976.591 3.07519 6.26251e-15)
(976.57 3.10631 6.45541e-15)
(976.549 3.13806 5.79828e-15)
(976.527 3.17048 5.16311e-15)
(976.505 3.2036 6.00459e-15)
(976.483 3.23745 4.30154e-15)
(976.461 3.27208 4.68857e-15)
(976.437 3.30753 4.98102e-15)
(976.414 3.34383 5.22812e-15)
(976.39 3.38103 6.44473e-15)
(976.365 3.41918 6.19644e-15)
(976.34 3.45831 5.94599e-15)
(976.314 3.49849 6.47767e-15)
(976.288 3.53975 5.64616e-15)
(976.261 3.58214 6.88715e-15)
(976.233 3.62571 5.9346e-15)
(976.204 3.6705 4.5951e-15)
(976.175 3.71655 5.94142e-15)
(976.145 3.76392 4.80181e-15)
(976.114 3.81263 4.47174e-15)
(976.082 3.86272 4.21619e-15)
(976.05 3.91422 3.47869e-15)
(976.016 3.96716 5.09992e-15)
(975.982 4.02155 6.47547e-15)
(975.946 4.07739 6.39457e-15)
(975.91 4.13472 5.16039e-15)
(975.873 4.19349 6.10643e-15)
(975.834 4.25375 4.80702e-15)
(975.795 4.3154 3.71328e-15)
(975.755 4.37853 5.49738e-15)
(975.714 4.44295 5.50601e-15)
(975.672 4.50884 4.53484e-15)
(975.629 4.57585 5.15564e-15)
(975.586 4.64431 4.83661e-15)
(975.541 4.71366 4.64419e-15)
(975.496 4.7845 4.26287e-15)
(975.45 4.85588 3.98174e-15)
(975.403 4.92886 4.22834e-15)
(975.356 5.00192 4.03054e-15)
(975.308 5.07676 4.43206e-15)
(975.26 5.15117 4.24518e-15)
(975.211 5.22758 3.37084e-15)
(975.163 5.30306 4.13951e-15)
(975.113 5.38056 6.23975e-15)
(975.063 5.4573 6.54039e-15)
(975.013 5.53469 6.77618e-15)
(974.962 5.61347 6.40387e-15)
(974.914 5.696 5.5966e-15)
(974.906 5.75895 4.18378e-15)
(975.149 5.52994 3.99354e-15)
(976.639 2.89917 2.02036e-14)
(976.623 2.94676 2.21293e-14)
(976.612 2.98854 2.06009e-14)
(976.604 3.02423 2.07145e-14)
(976.601 3.05369 2.23141e-14)
(976.602 3.07681 2.04146e-14)
(976.607 3.09369 1.99973e-14)
(976.617 3.10408 2.06047e-14)
(976.631 3.10703 2.10338e-14)
(976.645 3.1042 2.04958e-14)
(976.664 3.09618 2.16823e-14)
(976.688 3.08164 2.26488e-14)
(976.715 3.06089 1.97672e-14)
(976.746 3.03418 2.04858e-14)
(976.779 3.00177 2.2644e-14)
(976.815 2.96393 2.16356e-14)
(977.224 2.08597 1.39391e-14)
(977.209 2.1086 1.46184e-14)
(977.195 2.13141 1.51235e-14)
(977.18 2.15443 1.52036e-14)
(977.164 2.17766 1.55567e-14)
(977.149 2.20112 1.47756e-14)
(977.134 2.22482 1.44012e-14)
(977.118 2.24877 1.67354e-14)
(977.102 2.273 1.46119e-14)
(977.086 2.29753 1.49036e-14)
(977.07 2.32237 1.52837e-14)
(977.054 2.34754 1.44787e-14)
(977.037 2.37308 1.53702e-14)
(977.02 2.39899 1.36876e-14)
(977.003 2.42532 1.09014e-14)
(976.986 2.45207 1.17084e-14)
(976.968 2.47927 1.16909e-14)
(976.95 2.50696 1.40364e-14)
(976.932 2.53515 1.41749e-14)
(976.913 2.56386 1.19264e-14)
(976.894 2.59313 1.40578e-14)
(976.874 2.62298 1.39656e-14)
(976.855 2.65343 1.33497e-14)
(976.834 2.6845 1.35295e-14)
(976.814 2.71624 1.34988e-14)
(976.792 2.74866 1.30521e-14)
(976.771 2.78179 1.30207e-14)
(976.749 2.81565 1.27038e-14)
(976.726 2.85027 1.23978e-14)
(976.703 2.88568 1.31863e-14)
(976.68 2.92191 1.2283e-14)
(976.656 2.95896 1.28628e-14)
(976.631 2.99687 1.25129e-14)
(976.606 3.03567 1.23497e-14)
(976.581 3.07535 1.19738e-14)
(976.554 3.11596 1.45147e-14)
(976.528 3.15749 1.03291e-14)
(976.501 3.19996 1.20338e-14)
(976.473 3.24339 1.33325e-14)
(976.445 3.28778 1.29193e-14)
(976.416 3.33314 1.34256e-14)
(976.387 3.37946 1.48255e-14)
(976.357 3.42675 1.15967e-14)
(976.326 3.47501 1.32434e-14)
(976.296 3.52422 1.20196e-14)
(976.264 3.57437 1.25243e-14)
(976.233 3.62545 1.3683e-14)
(976.2 3.67743 1.38669e-14)
(976.167 3.73029 1.26826e-14)
(976.134 3.784 1.11852e-14)
(976.101 3.83853 1.09758e-14)
(976.066 3.89384 1.18587e-14)
(976.032 3.9499 1.16524e-14)
(975.997 4.00665 1.1368e-14)
(975.962 4.06407 1.26527e-14)
(975.926 4.12209 1.40499e-14)
(975.89 4.18067 1.12296e-14)
(975.853 4.23975 1.24206e-14)
(975.816 4.29929 1.39692e-14)
(975.779 4.35924 1.2545e-14)
(975.741 4.41954 1.22766e-14)
(975.704 4.48014 1.20325e-14)
(975.665 4.541 1.25354e-14)
(975.627 4.60207 1.20711e-14)
(975.588 4.66331 9.87673e-15)
(975.549 4.72469 1.01618e-14)
(975.509 4.78616 1.29819e-14)
(975.469 4.84771 1.10566e-14)
(975.429 4.90931 1.18494e-14)
(975.389 4.97096 1.35322e-14)
(975.348 5.03265 1.10383e-14)
(975.308 5.09437 1.14693e-14)
(975.267 5.15614 1.23932e-14)
(975.225 5.21797 1.23682e-14)
(975.184 5.2799 1.04369e-14)
(975.142 5.34194 1.00053e-14)
(975.1 5.40414 1.19884e-14)
(975.058 5.46654 1.03816e-14)
(975.015 5.52917 1.00237e-14)
(974.972 5.5921 8.96097e-15)
(974.929 5.65536 1.03389e-14)
(974.886 5.71903 1.17219e-14)
(974.842 5.78316 1.21027e-14)
(974.798 5.84782 1.09006e-14)
(974.754 5.91308 1.1057e-14)
(974.709 5.97902 1.08286e-14)
(974.664 6.0457 9.83942e-15)
(974.618 6.11321 9.15424e-15)
(974.573 6.18161 9.33924e-15)
(974.526 6.251 1.03707e-14)
(974.479 6.32144 1.22537e-14)
(974.432 6.39301 1.0555e-14)
(974.384 6.4658 9.54566e-15)
(974.335 6.53988 9.68968e-15)
(974.286 6.61532 8.04464e-15)
(974.236 6.6922 9.08569e-15)
(974.185 6.77061 8.16879e-15)
(974.133 6.85062 1.09015e-14)
(974.081 6.93232 9.61609e-15)
(974.027 7.01579 8.71206e-15)
(973.972 7.10111 9.60379e-15)
(973.916 7.18837 9.57772e-15)
(973.859 7.27767 9.1321e-15)
(973.801 7.36909 1.10007e-14)
(973.741 7.46272 1.12484e-14)
(973.68 7.55864 7.98661e-15)
(973.617 7.65695 8.80301e-15)
(973.552 7.75772 1.14129e-14)
(973.486 7.86102 1.02217e-14)
(973.418 7.96693 1.15289e-14)
(973.348 8.07551 1.20263e-14)
(973.277 8.18682 1.06452e-14)
(973.203 8.30091 8.86445e-15)
(973.128 8.41783 9.78761e-15)
(973.05 8.53763 9.66549e-15)
(972.971 8.66034 9.58438e-15)
(972.889 8.78598 1.02726e-14)
(972.806 8.91458 1.05062e-14)
(972.72 9.04614 9.65021e-15)
(972.632 9.18067 1.00821e-14)
(972.543 9.31816 9.98776e-15)
(972.451 9.45859 9.38161e-15)
(972.357 9.60193 1.0593e-14)
(972.262 9.74815 1.01977e-14)
(972.165 9.89721 9.39474e-15)
(972.066 10.0491 8.56697e-15)
(971.965 10.2037 7.76571e-15)
(971.862 10.3609 8.48445e-15)
(971.758 10.5209 6.18117e-15)
(971.652 10.6835 7.4211e-15)
(971.545 10.8488 7.96961e-15)
(971.437 11.0167 7.94142e-15)
(971.326 11.1875 1.0271e-14)
(971.214 11.361 9.12444e-15)
(971.101 11.5373 8.56409e-15)
(970.986 11.7166 8.84324e-15)
(970.87 11.8989 8.77784e-15)
(970.751 12.0843 9.09825e-15)
(970.632 12.2729 1.04341e-14)
(970.51 12.4649 8.79256e-15)
(970.386 12.6603 8.6118e-15)
(970.261 12.8595 8.84573e-15)
(970.133 13.0624 9.35756e-15)
(970.004 13.2694 9.0266e-15)
(969.872 13.4805 8.36779e-15)
(969.738 13.6961 7.93742e-15)
(969.601 13.9162 8.60223e-15)
(969.462 14.1412 9.60106e-15)
(969.32 14.3711 7.94891e-15)
(969.175 14.6063 7.43496e-15)
(969.028 14.8468 7.73894e-15)
(968.877 15.093 7.72588e-15)
(968.723 15.3448 8.22611e-15)
(968.566 15.6026 6.64891e-15)
(968.405 15.8665 6.81394e-15)
(968.241 16.1365 8.50148e-15)
(968.074 16.4127 8.71346e-15)
(967.903 16.6953 8.72102e-15)
(967.728 16.9843 7.53488e-15)
(967.549 17.2796 7.65164e-15)
(967.367 17.5814 7.61389e-15)
(967.181 17.8894 6.19398e-15)
(966.991 18.2037 6.70319e-15)
(966.797 18.5242 7.55396e-15)
(966.599 18.8508 7.83754e-15)
(966.397 19.1832 8.1533e-15)
(966.192 19.5213 7.29761e-15)
(965.983 19.8649 8.05176e-15)
(965.77 20.2138 9.94769e-15)
(965.553 20.5677 7.11694e-15)
(965.333 20.9263 7.13204e-15)
(965.109 21.2895 8.55639e-15)
(964.881 21.6565 8.70743e-15)
(964.651 22.0278 7.34834e-15)
(964.417 22.4019 6.60378e-15)
(964.181 22.78 6.49004e-15)
(963.942 23.1598 7.54938e-15)
(963.7 23.5435 6.95991e-15)
(963.456 23.9271 6.20253e-15)
(963.21 24.3153 5.93725e-15)
(962.963 24.701 6.74563e-15)
(962.713 25.0924 6.65099e-15)
(962.464 25.4783 6.95163e-15)
(962.212 25.8719 7.10102e-15)
(961.963 26.256 7.00201e-15)
(961.709 26.6506 8.28075e-15)
(961.461 27.0314 6.26453e-15)
(961.208 27.4245 6.6642e-15)
(960.958 27.8059 8.10924e-15)
(960.714 28.182 6.65789e-15)
(960.458 28.6059 6.70191e-15)
(960.288 28.986 7.2927e-15)
(961.141 28.2079 6.72739e-15)
(973.635 7.35938 2.89233e-14)
(973.604 7.47064 2.75549e-14)
(973.582 7.56891 2.74489e-14)
(973.57 7.65381 3.06483e-14)
(973.568 7.72476 2.90208e-14)
(973.576 7.78098 2.58264e-14)
(973.594 7.82227 2.79916e-14)
(973.622 7.84755 2.79531e-14)
(973.666 7.85405 2.71234e-14)
(973.701 7.84539 2.97632e-14)
(973.751 7.82765 3.16397e-14)
(973.813 7.79334 2.9499e-14)
(973.885 7.7434 2.79878e-14)
(973.963 7.67875 2.7465e-14)
(974.048 7.60004 2.81856e-14)
(974.14 7.50784 2.71965e-14)
(974.612 6.09956 1.98127e-14)
(974.559 6.18281 1.85924e-14)
(974.505 6.26762 1.93385e-14)
(974.45 6.35401 1.90031e-14)
(974.394 6.44197 2.1374e-14)
(974.337 6.53152 2.04699e-14)
(974.279 6.62264 1.80608e-14)
(974.22 6.71531 1.92193e-14)
(974.16 6.80951 2.06814e-14)
(974.099 6.90519 2.08422e-14)
(974.038 7.00232 1.89487e-14)
(973.976 7.10086 1.94384e-14)
(973.912 7.20076 1.83414e-14)
(973.848 7.30197 1.91898e-14)
(973.783 7.40443 1.96143e-14)
(973.718 7.5081 1.82623e-14)
(973.651 7.61292 1.84955e-14)
(973.584 7.71886 1.72866e-14)
(973.516 7.82586 1.69912e-14)
(973.447 7.93389 1.90013e-14)
(973.378 8.04292 2.03021e-14)
(973.307 8.15293 2.09741e-14)
(973.236 8.26389 1.953e-14)
(973.164 8.3758 1.80859e-14)
(973.092 8.48866 1.68893e-14)
(973.018 8.60247 1.77322e-14)
(972.944 8.71725 1.77599e-14)
(972.869 8.83301 1.80325e-14)
(972.792 8.94976 2.05977e-14)
(972.715 9.06753 1.82909e-14)
(972.638 9.18634 1.66366e-14)
(972.559 9.3062 1.84257e-14)
(972.479 9.42716 1.66773e-14)
(972.399 9.54923 1.73926e-14)
(972.317 9.67244 1.81141e-14)
(972.235 9.79684 1.83229e-14)
(972.151 9.92245 1.77877e-14)
(972.067 10.0493 1.883e-14)
(971.982 10.1775 1.70109e-14)
(971.896 10.307 1.52397e-14)
(971.808 10.438 1.80307e-14)
(971.72 10.5704 1.5936e-14)
(971.631 10.7043 1.69506e-14)
(971.541 10.8397 1.78209e-14)
(971.45 10.9769 1.7326e-14)
(971.358 11.1157 1.67217e-14)
(971.265 11.2563 1.62209e-14)
(971.17 11.3989 1.58569e-14)
(971.075 11.5433 1.63501e-14)
(970.978 11.6899 1.36691e-14)
(970.88 11.8386 1.48104e-14)
(970.781 11.9896 1.69165e-14)
(970.681 12.1429 1.67777e-14)
(970.579 12.2988 1.64143e-14)
(970.476 12.4573 1.72729e-14)
(970.371 12.6185 1.71632e-14)
(970.265 12.7827 1.51172e-14)
(970.156 12.9499 1.61284e-14)
(970.046 13.1203 1.71699e-14)
(969.934 13.2941 1.6958e-14)
(969.819 13.4714 1.67618e-14)
(969.703 13.6523 1.5762e-14)
(969.584 13.8371 1.51925e-14)
(969.462 14.0259 1.54022e-14)
(969.338 14.2188 1.29087e-14)
(969.21 14.4161 1.44023e-14)
(969.08 14.6178 1.75272e-14)
(968.947 14.8241 1.61034e-14)
(968.811 15.0352 1.59118e-14)
(968.671 15.2512 1.65122e-14)
(968.528 15.4722 1.52479e-14)
(968.381 15.6984 1.56561e-14)
(968.231 15.9299 1.52167e-14)
(968.076 16.1669 1.53362e-14)
(967.919 16.4094 1.53312e-14)
(967.757 16.6576 1.50281e-14)
(967.592 16.9117 1.52806e-14)
(967.422 17.1719 1.4766e-14)
(967.249 17.4382 1.4841e-14)
(967.072 17.711 1.43454e-14)
(966.89 17.9904 1.56217e-14)
(966.705 18.2766 1.40844e-14)
(966.515 18.5696 1.40817e-14)
(966.322 18.8696 1.39328e-14)
(966.124 19.1769 1.56381e-14)
(965.922 19.4915 1.46483e-14)
(965.717 19.8135 1.39652e-14)
(965.507 20.1431 1.32381e-14)
(965.293 20.4804 1.24392e-14)
(965.074 20.8253 1.52264e-14)
(964.852 21.1781 1.59864e-14)
(964.626 21.5387 1.43261e-14)
(964.396 21.9072 1.4707e-14)
(964.161 22.2835 1.43175e-14)
(963.923 22.6678 1.30359e-14)
(963.68 23.0598 1.22208e-14)
(963.433 23.4598 1.26097e-14)
(963.182 23.8675 1.3319e-14)
(962.927 24.283 1.3609e-14)
(962.668 24.7061 1.23097e-14)
(962.404 25.1369 1.42393e-14)
(962.136 25.5752 1.29456e-14)
(961.864 26.021 1.35119e-14)
(961.587 26.4742 1.37519e-14)
(961.305 26.9345 1.29037e-14)
(961.019 27.402 1.18957e-14)
(960.728 27.8763 1.37994e-14)
(960.433 28.3574 1.35229e-14)
(960.132 28.8448 1.28278e-14)
(959.828 29.3385 1.18098e-14)
(959.518 29.8381 1.44231e-14)
(959.205 30.3432 1.46951e-14)
(958.886 30.8536 1.23767e-14)
(958.564 31.3688 1.25968e-14)
(958.237 31.8884 1.28476e-14)
(957.906 32.4121 1.13096e-14)
(957.571 32.9395 1.29189e-14)
(957.232 33.4701 1.27403e-14)
(956.889 34.0035 1.48349e-14)
(956.544 34.5393 1.61938e-14)
(956.195 35.0771 1.31774e-14)
(955.843 35.6164 1.23179e-14)
(955.489 36.1567 1.37404e-14)
(955.133 36.6978 1.35939e-14)
(954.775 37.2391 1.32189e-14)
(954.416 37.7803 1.3301e-14)
(954.055 38.321 1.08413e-14)
(953.694 38.861 1.20111e-14)
(953.333 39.4 1.31584e-14)
(952.971 39.9384 1.18157e-14)
(952.608 40.4765 1.14344e-14)
(952.244 41.0147 1.04714e-14)
(951.88 41.5535 1.08229e-14)
(951.514 42.0932 1.06318e-14)
(951.148 42.6344 1.1351e-14)
(950.78 43.1777 1.08894e-14)
(950.41 43.7234 1.25823e-14)
(950.039 44.2723 1.25528e-14)
(949.665 44.8249 1.11051e-14)
(949.289 45.3818 1.08093e-14)
(948.909 45.9437 9.50728e-15)
(948.527 46.5113 1.08652e-14)
(948.14 47.0851 1.1343e-14)
(947.749 47.6661 1.17353e-14)
(947.353 48.2548 1.11666e-14)
(946.952 48.8521 1.42229e-14)
(946.545 49.4588 1.20727e-14)
(946.132 50.0757 1.23454e-14)
(945.711 50.7038 1.12884e-14)
(945.282 51.3439 1.17148e-14)
(944.845 51.9971 1.12611e-14)
(944.399 52.6644 9.09992e-15)
(943.943 53.3468 9.79574e-15)
(943.476 54.0456 9.14955e-15)
(942.998 54.7619 9.42672e-15)
(942.507 55.497 9.27828e-15)
(942.004 56.2523 1.03739e-14)
(941.486 57.0293 1.12592e-14)
(940.954 57.8293 1.05974e-14)
(940.406 58.6541 9.64151e-15)
(939.841 59.505 1.12797e-14)
(939.258 60.384 1.0689e-14)
(938.657 61.2926 1.07884e-14)
(938.036 62.2327 9.7306e-15)
(937.394 63.206 1.06271e-14)
(936.73 64.2144 1.0818e-14)
(936.044 65.2597 9.36373e-15)
(935.333 66.3435 9.38103e-15)
(934.598 67.4681 9.57228e-15)
(933.838 68.6342 9.23352e-15)
(933.05 69.845 1.14644e-14)
(932.235 71.0998 9.57713e-15)
(931.391 72.4035 1.078e-14)
(930.52 73.7522 1.13589e-14)
(929.617 75.1547 1.04291e-14)
(928.687 76.6009 9.31241e-15)
(927.722 78.1078 1.07714e-14)
(926.733 79.6527 8.82035e-15)
(925.704 81.2692 8.50694e-15)
(924.657 82.9111 8.55625e-15)
(923.562 84.6425 8.99402e-15)
(922.462 86.3763 7.80428e-15)
(921.299 88.2272 7.37434e-15)
(920.151 90.0451 8.7381e-15)
(918.922 92.0189 8.11771e-15)
(917.732 93.911 8.48132e-15)
(916.442 96.0058 7.7463e-15)
(915.216 97.9659 8.19926e-15)
(913.911 100.104 1.03826e-14)
(912.616 102.182 1.00557e-14)
(911.504 104.035 1.11319e-14)
(909.928 107.153 9.7129e-15)
(910.443 107.027 8.368e-15)
(966.8 17.6155 3.52543e-14)
(966.727 17.891 3.67963e-14)
(966.678 18.1316 3.96063e-14)
(966.654 18.3363 3.99329e-14)
(966.654 18.5045 3.65019e-14)
(966.679 18.6363 3.66488e-14)
(966.727 18.7347 3.77994e-14)
(966.802 18.7949 3.72776e-14)
(966.908 18.8091 3.67252e-14)
(966.997 18.7858 3.95771e-14)
(967.119 18.7409 3.85721e-14)
(967.271 18.6575 3.61671e-14)
(967.444 18.5367 3.60561e-14)
(967.635 18.3808 3.36223e-14)
(967.84 18.1915 3.49256e-14)
(967.829 16.5332 2.61345e-14)
(967.68 16.7604 2.4787e-14)
(967.529 16.9906 2.39568e-14)
(967.376 17.2237 2.32977e-14)
(967.221 17.4598 2.57937e-14)
(967.064 17.699 2.35026e-14)
(966.905 17.9414 2.35362e-14)
(966.743 18.187 2.53625e-14)
(966.58 18.4359 2.51842e-14)
(966.415 18.6881 2.54333e-14)
(966.247 18.9438 2.45285e-14)
(966.077 19.203 2.43644e-14)
(965.905 19.466 2.53804e-14)
(965.731 19.7328 2.5412e-14)
(965.554 20.0035 2.29397e-14)
(965.375 20.2784 2.48896e-14)
(965.193 20.5576 2.56566e-14)
(965.008 20.8412 2.33268e-14)
(964.82 21.1294 2.4296e-14)
(964.63 21.4225 2.19847e-14)
(964.436 21.7205 2.13138e-14)
(964.239 22.0237 2.26369e-14)
(964.039 22.3323 2.22539e-14)
(963.835 22.6464 2.23928e-14)
(963.627 22.9662 2.17676e-14)
(963.416 23.2919 2.21871e-14)
(963.2 23.6237 2.25863e-14)
(962.981 23.9619 2.2812e-14)
(962.756 24.3067 2.3741e-14)
(962.528 24.6586 2.29584e-14)
(962.294 25.0178 2.26595e-14)
(962.055 25.3845 2.2445e-14)
(961.811 25.7592 2.23097e-14)
(961.562 26.1422 2.30405e-14)
(961.308 26.5338 2.25714e-14)
(961.047 26.9343 2.34741e-14)
(960.781 27.344 2.2891e-14)
(960.509 27.7633 2.26478e-14)
(960.231 28.1925 2.12665e-14)
(959.947 28.6318 1.91722e-14)
(959.656 29.0816 1.93021e-14)
(959.359 29.5422 2.04307e-14)
(959.055 30.0137 2.00664e-14)
(958.744 30.4965 1.98147e-14)
(958.427 30.9907 1.84047e-14)
(958.104 31.4966 1.93821e-14)
(957.773 32.0143 1.99284e-14)
(957.436 32.5439 2.05774e-14)
(957.092 33.0856 2.04439e-14)
(956.741 33.6393 1.99753e-14)
(956.383 34.2052 2.13657e-14)
(956.018 34.7832 2.09972e-14)
(955.647 35.3732 2.17805e-14)
(955.269 35.9752 1.96245e-14)
(954.885 36.5889 2.01909e-14)
(954.494 37.2141 2.07962e-14)
(954.096 37.8505 2.1174e-14)
(953.693 38.498 2.19679e-14)
(953.283 39.156 1.84654e-14)
(952.867 39.8241 1.71157e-14)
(952.445 40.502 2.08826e-14)
(952.018 41.189 2.18592e-14)
(951.585 41.8847 1.84504e-14)
(951.146 42.5884 1.92781e-14)
(950.703 43.2996 1.98088e-14)
(950.254 44.0175 1.95467e-14)
(949.801 44.7416 1.99577e-14)
(949.343 45.4711 1.99407e-14)
(948.88 46.2054 1.97015e-14)
(948.414 46.9438 2.04452e-14)
(947.943 47.6855 1.87283e-14)
(947.469 48.43 1.97792e-14)
(946.992 49.1765 1.90598e-14)
(946.511 49.9245 2.18202e-14)
(946.028 50.6734 1.93895e-14)
(945.541 51.4231 1.77827e-14)
(945.051 52.1737 1.78998e-14)
(944.558 52.9256 1.92638e-14)
(944.062 53.6788 1.90682e-14)
(943.562 54.4338 1.83837e-14)
(943.058 55.1909 1.78281e-14)
(942.55 55.9506 1.74114e-14)
(942.038 56.7133 1.69726e-14)
(941.522 57.4796 1.4645e-14)
(941.001 58.2501 1.645e-14)
(940.476 59.0255 1.7187e-14)
(939.946 59.8064 1.72807e-14)
(939.41 60.5937 1.67567e-14)
(938.868 61.3881 1.73862e-14)
(938.321 62.1906 1.72846e-14)
(937.767 63.0021 1.73224e-14)
(937.206 63.8235 1.66798e-14)
(936.638 64.6559 1.81566e-14)
(936.062 65.5003 1.68872e-14)
(935.478 66.3579 1.62519e-14)
(934.884 67.2298 1.56384e-14)
(934.28 68.1173 1.47321e-14)
(933.666 69.0216 1.62276e-14)
(933.041 69.9441 1.70044e-14)
(932.403 70.8863 1.48932e-14)
(931.752 71.8495 1.60454e-14)
(931.086 72.8353 1.54068e-14)
(930.406 73.8453 1.55686e-14)
(929.71 74.8809 1.62107e-14)
(928.996 75.944 1.5118e-14)
(928.265 77.0359 1.46973e-14)
(927.515 78.1584 1.512e-14)
(926.745 79.3131 1.34799e-14)
(925.954 80.5013 1.48078e-14)
(925.142 81.7247 1.37047e-14)
(924.308 82.9847 1.57037e-14)
(923.45 84.2825 1.426e-14)
(922.569 85.6196 1.53613e-14)
(921.664 86.9971 1.45973e-14)
(920.733 88.416 1.56172e-14)
(919.777 89.8775 1.53239e-14)
(918.795 91.3824 1.49688e-14)
(917.786 92.9314 1.62216e-14)
(916.751 94.5252 1.55113e-14)
(915.688 96.1643 1.69363e-14)