/*--------------------------------*- C++ -*----------------------------------*\
| =========                 |                                                 |
| \\      /  F ield         | OpenFOAM: The Open Source CFD Toolbox           |
|  \\    /   O peration     | Version:  v1706                                 |
|   \\  /    A nd           | Web:      www.OpenFOAM.com                      |
|    \\/     M anipulation  |                                                 |
\*---------------------------------------------------------------------------*/
FoamFile
{
    version     2.0;
    format      ascii;
    class       volScalarField;
    location    "1.3e-05";
    object      wallHeatFlux;
}
// * * * * * * * * * * * * * * * * * * * * * * * * * * * * * * * * * * * * * //

dimensions      [1 0 -3 0 0 0 0];


internalField   uniform 0;

boundaryField
{
    cone
    {
        type            calculated;
        value           nonuniform List<scalar> 
119
(
-2079.71
-2079.5
-2079.29
-2079.08
-2078.88
-2078.68
-2078.48
-2078.28
-2078.08
-2077.88
-2077.68
-2077.48
-2077.29
-2077.09
-2076.89
-2076.7
-2076.5
-2076.31
-2076.11
-2075.92
-2075.73
-2075.53
-2075.34
-2075.15
-2074.96
-2074.77
-2074.58
-2074.39
-2074.2
-2074.01
-2073.83
-2073.64
-2073.45
-2073.27
-2073.08
-2072.9
-2072.71
-2072.53
-2072.35
-2072.16
-2071.98
-2071.8
-2071.62
-2071.44
-2071.26
-2071.08
-2070.9
-2070.73
-2070.55
-2070.37
-2070.2
-2070.02
-2069.84
-2069.67
-2069.5
-2069.32
-2069.15
-2068.98
-2068.81
-2068.63
-2068.46
-2068.29
-2068.12
-2067.95
-2067.79
-2067.62
-2067.45
-2067.28
-2067.12
-2066.95
-2066.79
-2066.62
-2066.46
-2066.29
-2066.13
-2065.97
-2065.8
-2065.64
-2065.48
-2065.32
-2065.16
-2065
-2064.84
-2064.68
-2064.53
-2064.37
-2064.21
-2064.06
-2063.9
-2063.75
-2063.61
-2063.47
-2063.35
-2063.24
-2063.16
-2063.11
-2063.11
-2063.17
-2063.29
-2063.47
-2063.72
-2064.02
-2064.34
-2064.67
-2064.98
-2065.28
-2065.57
-2065.95
-2066.55
-2067.61
-2069.52
-2072.86
-2078.49
-2087.72
-2102.49
-2126.07
-2164.67
-2228.69
-2325.3
)
;
    }
    inlet
    {
        type            calculated;
        value           uniform 0;
    }
    rWedge
    {
        type            wedge;
    }
    lWedge
    {
        type            wedge;
    }
    outlet
    {
        type            calculated;
        value           uniform 0;
    }
    procBoundary0to1
    {
        type            processor;
        value           uniform 0;
    }
    procBoundary0to2
    {
        type            processor;
        value           uniform 0;
    }
}


// ************************************************************************* //
