/*--------------------------------*- C++ -*----------------------------------*\
| =========                 |                                                 |
| \\      /  F ield         | OpenFOAM: The Open Source CFD Toolbox           |
|  \\    /   O peration     | Version:  v1706                                 |
|   \\  /    A nd           | Web:      www.OpenFOAM.com                      |
|    \\/     M anipulation  |                                                 |
\*---------------------------------------------------------------------------*/
FoamFile
{
    version     2.0;
    format      ascii;
    class       volScalarField;
    location    "3.1e-05";
    object      alpha;
}
// * * * * * * * * * * * * * * * * * * * * * * * * * * * * * * * * * * * * * //

dimensions      [1 -1 -1 0 0 0 0];


internalField   nonuniform List<scalar> 
29871
(
1.40478e-05
1.40478e-05
1.40478e-05
1.40478e-05
1.40478e-05
1.40478e-05
1.40478e-05
1.40478e-05
1.40478e-05
1.40478e-05
1.40478e-05
1.40478e-05
1.40478e-05
1.40478e-05
1.40478e-05
1.40478e-05
1.40478e-05
1.40478e-05
1.40478e-05
1.40478e-05
1.40478e-05
1.40478e-05
1.40478e-05
1.40478e-05
1.40478e-05
1.40478e-05
1.40478e-05
1.40478e-05
1.40478e-05
1.40478e-05
1.40478e-05
1.40478e-05
1.40478e-05
1.40478e-05
1.40478e-05
1.40478e-05
1.40478e-05
1.40478e-05
1.40478e-05
1.40478e-05
1.40478e-05
1.40478e-05
1.40478e-05
1.40478e-05
1.40478e-05
1.40478e-05
1.40478e-05
1.40478e-05
1.40478e-05
1.40478e-05
1.40478e-05
1.40478e-05
1.40478e-05
1.40478e-05
1.40478e-05
1.40478e-05
1.40478e-05
1.40478e-05
1.40478e-05
1.40478e-05
1.40478e-05
1.40478e-05
1.40478e-05
1.40478e-05
1.40478e-05
1.40478e-05
1.40478e-05
1.40478e-05
1.40478e-05
1.40478e-05
1.40478e-05
1.40478e-05
1.40478e-05
1.40478e-05
1.40478e-05
1.40478e-05
1.40478e-05
1.40478e-05
1.40478e-05
1.40478e-05
1.40478e-05
1.40478e-05
1.40478e-05
1.40478e-05
1.40478e-05
1.40478e-05
1.40478e-05
1.40478e-05
1.40478e-05
1.40478e-05
1.40478e-05
1.40478e-05
1.40478e-05
1.40478e-05
1.40478e-05
1.40478e-05
1.40478e-05
1.40478e-05
1.40478e-05
1.40478e-05
1.40478e-05
1.40478e-05
1.40478e-05
1.40478e-05
1.40478e-05
1.40478e-05
1.40478e-05
1.40478e-05
1.40478e-05
1.40478e-05
1.40478e-05
1.40478e-05
1.40478e-05
1.40478e-05
1.40478e-05
1.40478e-05
1.40478e-05
1.40478e-05
1.40478e-05
1.40478e-05
1.40478e-05
1.40478e-05
1.40478e-05
1.40478e-05
1.40478e-05
1.40478e-05
1.40478e-05
1.40478e-05
1.40478e-05
1.40478e-05
1.40478e-05
1.40478e-05
1.40478e-05
1.40478e-05
1.40478e-05
1.40478e-05
1.40478e-05
1.40478e-05
1.40478e-05
1.40478e-05
1.40478e-05
1.40478e-05
1.40478e-05
1.40478e-05
1.40478e-05
1.40478e-05
1.40478e-05
1.40478e-05
1.40478e-05
1.40478e-05
1.40478e-05
1.40478e-05
1.40478e-05
1.40478e-05
1.40478e-05
1.40478e-05
1.40478e-05
1.40478e-05
1.40478e-05
1.40478e-05
1.40478e-05
1.40478e-05
1.40478e-05
1.40478e-05
1.40478e-05
1.40478e-05
1.40478e-05
1.40478e-05
1.40478e-05
1.40478e-05
1.40478e-05
1.40478e-05
1.40478e-05
1.40478e-05
1.40478e-05
1.40478e-05
1.40478e-05
1.40478e-05
1.40478e-05
1.40478e-05
1.40478e-05
1.40478e-05
1.40478e-05
1.40478e-05
1.40478e-05
1.40478e-05
1.40478e-05
1.40478e-05
1.40478e-05
1.40478e-05
1.40478e-05
1.40478e-05
1.40478e-05
1.40478e-05
1.40478e-05
1.40478e-05
1.40478e-05
1.40478e-05
1.40478e-05
1.40478e-05
1.40478e-05
1.40478e-05
1.40478e-05
1.40478e-05
1.40478e-05
1.40478e-05
1.40478e-05
1.40478e-05
1.40478e-05
1.40478e-05
1.40478e-05
1.40478e-05
1.40478e-05
1.40478e-05
1.40478e-05
1.40478e-05
1.40478e-05
1.40478e-05
1.40478e-05
1.40478e-05
1.40478e-05
1.40478e-05
1.40478e-05
1.40478e-05
1.40478e-05
1.40478e-05
1.40478e-05
1.40478e-05
1.40478e-05
1.40478e-05
1.40478e-05
1.40478e-05
1.40478e-05
1.40478e-05
1.40478e-05
1.40478e-05
1.40478e-05
1.40478e-05
1.40478e-05
1.40478e-05
1.40478e-05
1.40478e-05
1.40478e-05
1.40478e-05
1.40478e-05
1.40478e-05
1.40478e-05
1.40478e-05
1.40478e-05
1.40478e-05
1.40478e-05
1.40478e-05
1.40478e-05
1.40478e-05
1.40478e-05
1.40478e-05
1.40478e-05
1.40478e-05
1.40478e-05
1.40478e-05
1.40478e-05
1.40478e-05
1.40478e-05
1.40478e-05
1.40478e-05
1.40478e-05
1.40478e-05
1.40478e-05
1.40478e-05
1.40478e-05
1.40478e-05
1.40478e-05
1.40478e-05
1.40478e-05
1.40478e-05
1.40478e-05
1.40478e-05
1.40478e-05
1.40478e-05
1.40478e-05
1.40478e-05
1.40478e-05
1.40478e-05
1.40478e-05
1.40478e-05
1.40478e-05
1.40478e-05
1.40478e-05
1.40478e-05
1.40478e-05
1.40478e-05
1.40478e-05
1.40478e-05
1.40478e-05
1.40478e-05
1.40478e-05
1.40478e-05
1.40478e-05
1.40478e-05
1.40478e-05
1.40478e-05
1.40478e-05
1.40478e-05
1.40478e-05
1.40478e-05
1.40478e-05
1.40478e-05
1.40478e-05
1.40478e-05
1.40478e-05
1.40478e-05
1.40478e-05
1.40478e-05
1.40478e-05
1.40478e-05
1.40478e-05
1.40478e-05
1.40478e-05
1.40478e-05
1.40478e-05
1.40478e-05
1.40478e-05
1.40478e-05
1.40478e-05
1.40478e-05
1.40478e-05
1.40478e-05
1.40478e-05
1.40478e-05
1.40478e-05
1.40478e-05
1.40478e-05
1.40478e-05
1.40478e-05
1.40478e-05
1.40478e-05
1.40478e-05
1.40478e-05
1.40478e-05
1.40478e-05
1.40478e-05
1.40478e-05
1.40478e-05
1.40478e-05
1.40478e-05
1.40478e-05
1.40478e-05
1.40478e-05
1.40478e-05
1.40478e-05
1.40478e-05
1.40478e-05
1.40478e-05
1.40478e-05
1.40478e-05
1.40478e-05
1.40478e-05
1.40478e-05
1.40478e-05
1.40478e-05
1.40478e-05
1.40478e-05
1.40478e-05
1.40478e-05
1.40478e-05
1.40478e-05
1.40478e-05
1.40478e-05
1.40478e-05
1.40478e-05
1.40478e-05
1.40478e-05
1.40478e-05
1.40478e-05
1.40478e-05
1.40478e-05
1.40478e-05
1.40478e-05
1.40478e-05
1.40478e-05
1.40478e-05
1.40478e-05
1.40478e-05
1.40478e-05
1.40478e-05
1.40478e-05
1.40478e-05
1.40478e-05
1.40478e-05
1.40478e-05
1.40478e-05
1.40478e-05
1.40478e-05
1.40478e-05
1.40478e-05
1.40478e-05
1.40478e-05
1.40478e-05
1.40478e-05
1.40478e-05
1.40478e-05
1.40478e-05
1.40478e-05
1.40478e-05
1.40478e-05
1.40478e-05
1.40478e-05
1.40478e-05
1.40478e-05
1.40478e-05
1.40478e-05
1.40478e-05
1.40478e-05
1.40478e-05
1.40478e-05
1.40478e-05
1.40478e-05
1.40478e-05
1.40478e-05
1.40478e-05
1.40478e-05
1.40478e-05
1.40478e-05
1.40478e-05
1.40478e-05
1.40478e-05
1.40478e-05
1.40478e-05
1.40478e-05
1.40478e-05
1.40478e-05
1.40478e-05
1.40478e-05
1.40478e-05
1.40478e-05
1.40478e-05
1.40478e-05
1.40478e-05
1.40478e-05
1.40478e-05
1.40478e-05
1.40478e-05
1.40478e-05
1.40478e-05
1.40478e-05
1.40478e-05
1.40478e-05
1.40478e-05
1.40478e-05
1.40478e-05
1.40478e-05
1.40478e-05
1.40478e-05
1.40478e-05
1.40478e-05
1.40478e-05
1.40478e-05
1.40478e-05
1.40478e-05
1.40478e-05
1.40478e-05
1.40478e-05
1.40478e-05
1.40478e-05
1.40478e-05
1.40478e-05
1.40478e-05
1.40478e-05
1.40478e-05
1.40478e-05
1.40478e-05
1.40478e-05
1.40478e-05
1.40478e-05
1.40478e-05
1.40478e-05
1.40478e-05
1.40478e-05
1.40478e-05
1.40478e-05
1.40478e-05
1.40478e-05
1.40478e-05
1.40478e-05
1.40478e-05
1.40478e-05
1.40478e-05
1.40478e-05
1.40478e-05
1.40478e-05
1.40478e-05
1.40478e-05
1.40478e-05
1.40478e-05
1.40478e-05
1.40478e-05
1.40478e-05
1.40478e-05
1.40478e-05
1.40478e-05
1.40478e-05
1.40478e-05
1.40478e-05
1.40478e-05
1.40478e-05
1.40478e-05
1.40478e-05
1.40478e-05
1.40478e-05
1.40478e-05
1.40478e-05
1.40478e-05
1.40478e-05
1.40478e-05
1.40478e-05
1.40478e-05
1.40478e-05
1.40478e-05
1.40478e-05
1.40478e-05
1.40478e-05
1.40478e-05
1.40478e-05
1.40478e-05
1.40478e-05
1.40478e-05
1.40478e-05
1.40478e-05
1.40478e-05
1.40478e-05
1.40478e-05
1.40478e-05
1.40478e-05
1.40478e-05
1.40478e-05
1.40478e-05
1.40478e-05
1.40478e-05
1.40478e-05
1.40478e-05
1.40478e-05
1.40478e-05
1.40478e-05
1.40478e-05
1.40478e-05
1.40478e-05
1.40478e-05
1.40478e-05
1.40478e-05
1.40478e-05
1.40478e-05
1.40478e-05
1.40478e-05
1.40478e-05
1.40478e-05
1.40478e-05
1.40478e-05
1.40478e-05
1.40478e-05
1.40478e-05
1.40478e-05
1.40478e-05
1.40478e-05
1.40478e-05
1.40478e-05
1.40478e-05
1.40478e-05
1.40478e-05
1.40478e-05
1.40478e-05
1.40478e-05
1.40478e-05
1.40478e-05
1.40478e-05
1.40478e-05
1.40478e-05
1.40478e-05
1.40478e-05
1.40478e-05
1.40478e-05
1.40478e-05
1.40478e-05
1.40478e-05
1.40478e-05
1.40478e-05
1.40478e-05
1.40478e-05
1.40478e-05
1.40478e-05
1.40478e-05
1.40478e-05
1.40478e-05
1.40478e-05
1.40478e-05
1.40478e-05
1.40478e-05
1.40478e-05
1.40478e-05
1.40478e-05
1.40478e-05
1.40478e-05
1.40478e-05
1.40478e-05
1.40478e-05
1.40478e-05
1.40478e-05
1.40478e-05
1.40478e-05
1.40478e-05
1.40478e-05
1.40478e-05
1.40478e-05
1.40478e-05
1.40478e-05
1.40478e-05
1.40478e-05
1.40478e-05
1.40478e-05
1.40478e-05
1.40478e-05
1.40478e-05
1.40478e-05
1.40478e-05
1.40478e-05
1.40478e-05
1.40478e-05
1.40478e-05
1.40478e-05
1.40478e-05
1.40478e-05
1.40478e-05
1.40478e-05
1.40478e-05
1.40478e-05
1.40478e-05
1.40478e-05
1.40478e-05
1.40478e-05
1.40478e-05
1.40478e-05
1.40478e-05
1.40478e-05
1.40478e-05
1.40478e-05
1.40478e-05
1.40478e-05
1.40478e-05
1.40478e-05
1.40478e-05
1.40478e-05
1.40478e-05
1.40478e-05
1.40478e-05
1.40478e-05
1.40478e-05
1.40478e-05
1.40478e-05
1.40478e-05
1.40478e-05
1.40478e-05
1.40478e-05
1.40478e-05
1.40478e-05
1.40478e-05
1.40478e-05
1.40478e-05
1.40478e-05
1.40478e-05
1.40478e-05
1.40478e-05
1.40478e-05
1.40478e-05
1.40478e-05
1.40478e-05
1.40478e-05
1.40478e-05
1.40478e-05
1.40478e-05
1.40478e-05
1.40478e-05
1.40478e-05
1.40478e-05
1.40478e-05
1.40478e-05
1.40478e-05
1.40478e-05
1.40478e-05
1.40478e-05
1.40478e-05
1.40478e-05
1.40478e-05
1.40478e-05
1.40478e-05
1.40478e-05
1.40478e-05
1.40478e-05
1.40478e-05
1.40478e-05
1.40478e-05
1.40478e-05
1.40478e-05
1.40478e-05
1.40478e-05
1.40478e-05
1.40478e-05
1.40478e-05
1.40478e-05
1.40478e-05
1.40478e-05
1.40478e-05
1.40478e-05
1.40478e-05
1.40478e-05
1.40478e-05
1.40478e-05
1.40478e-05
1.40478e-05
1.40478e-05
1.40478e-05
1.40478e-05
1.40478e-05
1.40478e-05
1.40478e-05
1.40478e-05
1.40478e-05
1.40478e-05
1.40478e-05
1.40478e-05
1.40478e-05
1.40478e-05
1.40478e-05
1.40478e-05
1.40478e-05
1.40478e-05
1.40478e-05
1.40478e-05
1.40478e-05
1.40478e-05
1.40478e-05
1.40478e-05
1.40478e-05
1.40478e-05
1.40478e-05
1.40478e-05
1.40478e-05
1.40478e-05
1.40478e-05
1.40478e-05
1.40478e-05
1.40478e-05
1.40478e-05
1.40478e-05
1.40478e-05
1.40478e-05
1.40478e-05
1.40478e-05
1.40478e-05
1.40478e-05
1.40478e-05
1.40478e-05
1.40478e-05
1.40478e-05
1.40478e-05
1.40478e-05
1.40478e-05
1.40478e-05
1.40478e-05
1.40478e-05
1.40478e-05
1.40478e-05
1.40478e-05
1.40478e-05
1.40478e-05
1.40478e-05
1.40478e-05
1.40478e-05
1.40478e-05
1.40478e-05
1.40478e-05
1.40478e-05
1.40478e-05
1.40478e-05
1.40478e-05
1.40478e-05
1.40478e-05
1.40478e-05
1.40478e-05
1.40478e-05
1.40478e-05
1.40478e-05
1.40478e-05
1.40478e-05
1.40478e-05
1.40478e-05
1.40478e-05
1.40478e-05
1.40478e-05
1.40478e-05
1.40478e-05
1.40478e-05
1.40478e-05
1.40478e-05
1.40478e-05
1.40478e-05
1.40478e-05
1.40478e-05
1.40478e-05
1.40478e-05
1.40478e-05
1.40478e-05
1.40478e-05
1.40478e-05
1.40478e-05
1.40478e-05
1.40478e-05
1.40478e-05
1.40478e-05
1.40478e-05
1.40478e-05
1.40478e-05
1.40478e-05
1.40478e-05
1.40478e-05
1.40478e-05
1.40478e-05
1.40478e-05
1.40478e-05
1.40478e-05
1.40478e-05
1.40478e-05
1.40478e-05
1.40478e-05
1.40478e-05
1.40478e-05
1.40478e-05
1.40478e-05
1.40478e-05
1.40478e-05
1.40478e-05
1.40478e-05
1.40478e-05
1.40478e-05
1.40478e-05
1.40478e-05
1.40478e-05
1.40478e-05
1.40478e-05
1.40478e-05
1.40478e-05
1.40478e-05
1.40478e-05
1.40478e-05
1.40478e-05
1.40478e-05
1.40478e-05
1.40478e-05
1.40478e-05
1.40478e-05
1.40478e-05
1.40478e-05
1.40478e-05
1.40478e-05
1.40478e-05
1.40478e-05
1.40478e-05
1.40478e-05
1.40478e-05
1.40478e-05
1.40478e-05
1.40478e-05
1.40478e-05
1.40478e-05
1.40478e-05
1.40478e-05
1.40478e-05
1.40478e-05
1.40478e-05
1.40478e-05
1.40478e-05
1.40478e-05
1.40478e-05
1.40478e-05
1.40478e-05
1.40478e-05
1.40478e-05
1.40478e-05
1.40478e-05
1.40478e-05
1.40478e-05
1.40478e-05
1.40478e-05
1.40478e-05
1.40478e-05
1.40478e-05
1.40478e-05
1.40478e-05
1.40478e-05
1.40478e-05
1.40478e-05
1.40478e-05
1.40478e-05
1.40478e-05
1.40478e-05
1.40478e-05
1.40478e-05
1.40478e-05
1.40478e-05
1.40478e-05
1.40478e-05
1.40478e-05
1.40478e-05
1.40478e-05
1.40478e-05
1.40478e-05
1.40478e-05
1.40478e-05
1.40478e-05
1.40478e-05
1.40478e-05
1.40478e-05
1.40478e-05
1.40478e-05
1.40478e-05
1.40478e-05
1.40478e-05
1.40478e-05
1.40478e-05
1.40478e-05
1.40478e-05
1.40478e-05
1.40478e-05
1.40478e-05
1.40478e-05
1.40478e-05
1.40478e-05
1.40478e-05
1.40478e-05
1.40478e-05
1.40478e-05
1.40478e-05
1.40478e-05
1.40478e-05
1.40478e-05
1.40478e-05
1.40478e-05
1.40478e-05
1.40478e-05
1.40478e-05
1.40478e-05
1.40478e-05
1.40478e-05
1.40478e-05
1.40478e-05
1.40478e-05
1.40478e-05
1.40478e-05
1.40478e-05
1.40478e-05
1.40478e-05
1.40478e-05
1.40478e-05
1.40478e-05
1.40478e-05
1.40478e-05
1.40478e-05
1.40478e-05
1.40478e-05
1.40478e-05
1.40478e-05
1.40478e-05
1.40478e-05
1.40478e-05
1.40478e-05
1.40478e-05
1.40478e-05
1.40478e-05
1.40478e-05
1.40478e-05
1.40478e-05
1.40478e-05
1.40478e-05
1.40478e-05
1.40478e-05
1.40478e-05
1.40478e-05
1.40478e-05
1.40478e-05
1.40478e-05
1.40478e-05
1.40478e-05
1.40478e-05
1.40478e-05
1.40478e-05
1.40478e-05
1.40478e-05
1.40478e-05
1.40478e-05
1.40478e-05
1.40478e-05
1.40478e-05
1.40478e-05
1.40478e-05
1.40478e-05
1.40478e-05
1.40478e-05
1.40478e-05
1.40478e-05
1.40478e-05
1.40478e-05
1.40478e-05
1.40478e-05
1.40478e-05
1.40478e-05
1.40478e-05
1.40478e-05
1.40478e-05
1.40478e-05
1.40478e-05
1.40478e-05
1.40478e-05
1.40478e-05
1.40478e-05
1.40478e-05
1.40478e-05
1.40478e-05
1.40478e-05
1.40478e-05
1.40478e-05
1.40478e-05
1.40478e-05
1.40478e-05
1.40478e-05
1.40478e-05
1.40478e-05
1.40478e-05
1.40478e-05
1.40478e-05
1.40478e-05
1.40478e-05
1.40478e-05
1.40478e-05
1.40478e-05
1.40478e-05
1.40478e-05
1.40478e-05
1.40478e-05
1.40478e-05
1.40478e-05
1.40478e-05
1.40478e-05
1.40478e-05
1.40478e-05
1.40478e-05
1.40478e-05
1.40478e-05
1.40478e-05
1.40478e-05
1.40478e-05
1.40478e-05
1.40478e-05
1.40478e-05
1.40478e-05
1.40478e-05
1.40479e-05
1.40479e-05
1.40479e-05
1.40479e-05
1.40479e-05
1.40479e-05
1.40479e-05
1.40479e-05
1.4048e-05
1.4048e-05
1.4048e-05
1.4048e-05
1.40481e-05
1.40478e-05
1.40478e-05
1.40478e-05
1.40478e-05
1.40478e-05
1.40478e-05
1.40478e-05
1.40478e-05
1.40478e-05
1.40478e-05
1.40478e-05
1.40478e-05
1.40478e-05
1.40478e-05
1.40478e-05
1.40478e-05
1.40478e-05
1.40478e-05
1.40478e-05
1.40478e-05
1.40478e-05
1.40478e-05
1.40478e-05
1.40478e-05
1.40478e-05
1.40478e-05
1.40478e-05
1.40478e-05
1.40478e-05
1.40478e-05
1.40478e-05
1.40478e-05
1.40478e-05
1.40478e-05
1.40478e-05
1.40478e-05
1.40478e-05
1.40478e-05
1.40478e-05
1.40478e-05
1.40478e-05
1.40478e-05
1.40478e-05
1.40478e-05
1.40478e-05
1.40478e-05
1.40478e-05
1.40478e-05
1.40478e-05
1.40478e-05
1.40478e-05
1.40478e-05
1.40478e-05
1.40478e-05
1.40478e-05
1.40478e-05
1.40478e-05
1.40478e-05
1.40478e-05
1.40478e-05
1.40478e-05
1.40478e-05
1.40478e-05
1.40478e-05
1.40478e-05
1.40478e-05
1.40478e-05
1.40478e-05
1.40478e-05
1.40478e-05
1.40478e-05
1.40478e-05
1.40478e-05
1.40478e-05
1.40478e-05
1.40478e-05
1.40478e-05
1.40478e-05
1.40478e-05
1.40478e-05
1.40478e-05
1.40478e-05
1.40478e-05
1.40479e-05
1.40479e-05
1.40479e-05
1.40479e-05
1.40479e-05
1.40479e-05
1.40479e-05
1.40479e-05
1.4048e-05
1.4048e-05
1.4048e-05
1.4048e-05
1.40481e-05
1.40481e-05
1.40481e-05
1.40482e-05
1.40482e-05
1.40483e-05
1.40484e-05
1.40484e-05
1.40485e-05
1.40486e-05
1.40487e-05
1.40489e-05
1.4049e-05
1.40492e-05
1.40494e-05
1.40478e-05
1.40478e-05
1.40478e-05
1.40478e-05
1.40478e-05
1.40478e-05
1.40478e-05
1.40478e-05
1.40478e-05
1.40478e-05
1.40478e-05
1.40478e-05
1.40478e-05
1.40478e-05
1.40478e-05
1.40478e-05
1.40478e-05
1.40478e-05
1.40478e-05
1.40478e-05
1.40478e-05
1.40478e-05
1.40478e-05
1.40478e-05
1.40478e-05
1.40478e-05
1.40478e-05
1.40478e-05
1.40478e-05
1.40478e-05
1.40478e-05
1.40478e-05
1.40478e-05
1.40478e-05
1.40478e-05
1.40478e-05
1.40478e-05
1.40478e-05
1.40478e-05
1.40478e-05
1.40478e-05
1.40478e-05
1.40478e-05
1.40478e-05
1.40478e-05
1.40478e-05
1.40478e-05
1.40478e-05
1.40478e-05
1.40478e-05
1.40478e-05
1.40478e-05
1.40478e-05
1.40478e-05
1.40478e-05
1.40478e-05
1.40478e-05
1.40478e-05
1.40478e-05
1.40478e-05
1.40478e-05
1.40478e-05
1.40478e-05
1.40478e-05
1.40478e-05
1.40478e-05
1.40478e-05
1.40478e-05
1.40478e-05
1.40479e-05
1.40479e-05
1.40479e-05
1.40479e-05
1.40479e-05
1.40479e-05
1.40479e-05
1.40479e-05
1.40479e-05
1.4048e-05
1.4048e-05
1.4048e-05
1.4048e-05
1.40481e-05
1.40481e-05
1.40481e-05
1.40482e-05
1.40482e-05
1.40483e-05
1.40483e-05
1.40484e-05
1.40485e-05
1.40486e-05
1.40487e-05
1.40488e-05
1.40489e-05
1.40491e-05
1.40492e-05
1.40494e-05
1.40497e-05
1.40499e-05
1.40502e-05
1.40505e-05
1.40509e-05
1.40514e-05
1.40519e-05
1.40524e-05
1.4053e-05
1.40537e-05
1.40545e-05
1.40554e-05
1.40566e-05
1.40478e-05
1.40478e-05
1.40478e-05
1.40478e-05
1.40478e-05
1.40478e-05
1.40478e-05
1.40478e-05
1.40478e-05
1.40478e-05
1.40478e-05
1.40478e-05
1.40478e-05
1.40478e-05
1.40478e-05
1.40478e-05
1.40478e-05
1.40478e-05
1.40478e-05
1.40478e-05
1.40478e-05
1.40478e-05
1.40478e-05
1.40478e-05
1.40478e-05
1.40478e-05
1.40478e-05
1.40478e-05
1.40478e-05
1.40478e-05
1.40478e-05
1.40478e-05
1.40478e-05
1.40478e-05
1.40478e-05
1.40478e-05
1.40478e-05
1.40478e-05
1.40478e-05
1.40478e-05
1.40478e-05
1.40478e-05
1.40478e-05
1.40478e-05
1.40478e-05
1.40478e-05
1.40478e-05
1.40478e-05
1.40478e-05
1.40478e-05
1.40478e-05
1.40478e-05
1.40479e-05
1.40479e-05
1.40479e-05
1.40479e-05
1.40479e-05
1.40479e-05
1.40479e-05
1.40479e-05
1.40479e-05
1.40479e-05
1.40479e-05
1.4048e-05
1.4048e-05
1.4048e-05
1.4048e-05
1.4048e-05
1.40481e-05
1.40481e-05
1.40481e-05
1.40482e-05
1.40482e-05
1.40483e-05
1.40483e-05
1.40484e-05
1.40485e-05
1.40486e-05
1.40487e-05
1.40488e-05
1.40489e-05
1.4049e-05
1.40492e-05
1.40494e-05
1.40496e-05
1.40498e-05
1.405e-05
1.40503e-05
1.40506e-05
1.4051e-05
1.40515e-05
1.4052e-05
1.40525e-05
1.40531e-05
1.40538e-05
1.40546e-05
1.40555e-05
1.40565e-05
1.40577e-05
1.40591e-05
1.40607e-05
1.40625e-05
1.40647e-05
1.4067e-05
1.40697e-05
1.40726e-05
1.40758e-05
1.40795e-05
1.40838e-05
1.40891e-05
1.40953e-05
1.41026e-05
1.4111e-05
1.40478e-05
1.40478e-05
1.40478e-05
1.40478e-05
1.40478e-05
1.40478e-05
1.40478e-05
1.40478e-05
1.40478e-05
1.40478e-05
1.40478e-05
1.40478e-05
1.40478e-05
1.40478e-05
1.40478e-05
1.40478e-05
1.40478e-05
1.40478e-05
1.40478e-05
1.40478e-05
1.40478e-05
1.40478e-05
1.40478e-05
1.40478e-05
1.40478e-05
1.40478e-05
1.40478e-05
1.40478e-05
1.40478e-05
1.40478e-05
1.40478e-05
1.40478e-05
1.40478e-05
1.40479e-05
1.40479e-05
1.40479e-05
1.40479e-05
1.40479e-05
1.40479e-05
1.40479e-05
1.40479e-05
1.40479e-05
1.40479e-05
1.40479e-05
1.40479e-05
1.4048e-05
1.4048e-05
1.4048e-05
1.4048e-05
1.4048e-05
1.4048e-05
1.40481e-05
1.40481e-05
1.40481e-05
1.40481e-05
1.40482e-05
1.40482e-05
1.40483e-05
1.40483e-05
1.40484e-05
1.40484e-05
1.40485e-05
1.40485e-05
1.40486e-05
1.40487e-05
1.40488e-05
1.40489e-05
1.40491e-05
1.40492e-05
1.40494e-05
1.40496e-05
1.40498e-05
1.405e-05
1.40503e-05
1.40505e-05
1.40509e-05
1.40512e-05
1.40517e-05
1.40521e-05
1.40527e-05
1.40533e-05
1.40541e-05
1.40549e-05
1.40558e-05
1.40567e-05
1.40578e-05
1.40591e-05
1.40606e-05
1.40623e-05
1.40643e-05
1.40666e-05
1.40692e-05
1.40721e-05
1.40753e-05
1.40789e-05
1.40829e-05
1.40874e-05
1.40927e-05
1.40989e-05
1.41063e-05
1.41149e-05
1.41249e-05
1.41362e-05
1.41488e-05
1.41626e-05
1.41778e-05
1.41945e-05
1.42138e-05
1.42367e-05
1.42644e-05
1.42976e-05
1.43365e-05
1.43808e-05
1.40478e-05
1.40478e-05
1.40478e-05
1.40478e-05
1.40478e-05
1.40478e-05
1.40478e-05
1.40478e-05
1.40478e-05
1.40478e-05
1.40478e-05
1.40478e-05
1.40478e-05
1.40478e-05
1.40478e-05
1.40479e-05
1.40479e-05
1.40479e-05
1.40479e-05
1.40479e-05
1.40479e-05
1.40479e-05
1.40479e-05
1.40479e-05
1.40479e-05
1.40479e-05
1.40479e-05
1.4048e-05
1.4048e-05
1.4048e-05
1.4048e-05
1.4048e-05
1.4048e-05
1.4048e-05
1.40481e-05
1.40481e-05
1.40481e-05
1.40481e-05
1.40482e-05
1.40482e-05
1.40482e-05
1.40482e-05
1.40483e-05
1.40483e-05
1.40484e-05
1.40484e-05
1.40485e-05
1.40485e-05
1.40486e-05
1.40487e-05
1.40488e-05
1.40488e-05
1.40489e-05
1.4049e-05
1.40492e-05
1.40493e-05
1.40494e-05
1.40496e-05
1.40498e-05
1.405e-05
1.40502e-05
1.40505e-05
1.40507e-05
1.4051e-05
1.40514e-05
1.40518e-05
1.40522e-05
1.40527e-05
1.40533e-05
1.40539e-05
1.40546e-05
1.40554e-05
1.40564e-05
1.40574e-05
1.40585e-05
1.40598e-05
1.40612e-05
1.40628e-05
1.40646e-05
1.40667e-05
1.40692e-05
1.4072e-05
1.40752e-05
1.40788e-05
1.40827e-05
1.40871e-05
1.4092e-05
1.40975e-05
1.41039e-05
1.41113e-05
1.412e-05
1.41302e-05
1.41419e-05
1.41552e-05
1.41701e-05
1.41864e-05
1.42044e-05
1.42242e-05
1.42467e-05
1.42732e-05
1.43048e-05
1.43424e-05
1.43863e-05
1.44366e-05
1.4493e-05
1.45552e-05
1.46227e-05
1.46958e-05
1.4776e-05
1.48681e-05
1.49797e-05
1.51156e-05
1.5277e-05
1.54624e-05
1.56684e-05
1.40479e-05
1.40479e-05
1.40479e-05
1.40479e-05
1.40479e-05
1.40479e-05
1.40479e-05
1.40479e-05
1.4048e-05
1.4048e-05
1.4048e-05
1.4048e-05
1.4048e-05
1.4048e-05
1.40481e-05
1.40481e-05
1.40481e-05
1.40481e-05
1.40482e-05
1.40482e-05
1.40482e-05
1.40482e-05
1.40483e-05
1.40483e-05
1.40484e-05
1.40484e-05
1.40485e-05
1.40485e-05
1.40486e-05
1.40486e-05
1.40487e-05
1.40487e-05
1.40488e-05
1.40489e-05
1.4049e-05
1.40491e-05
1.40492e-05
1.40493e-05
1.40494e-05
1.40495e-05
1.40497e-05
1.40498e-05
1.405e-05
1.40502e-05
1.40504e-05
1.40506e-05
1.40509e-05
1.40511e-05
1.40514e-05
1.40518e-05
1.40521e-05
1.40525e-05
1.4053e-05
1.40534e-05
1.4054e-05
1.40546e-05
1.40553e-05
1.4056e-05
1.40569e-05
1.40579e-05
1.40589e-05
1.40601e-05
1.40615e-05
1.40629e-05
1.40646e-05
1.40664e-05
1.40684e-05
1.40708e-05
1.40734e-05
1.40765e-05
1.408e-05
1.40839e-05
1.40883e-05
1.40932e-05
1.40986e-05
1.41046e-05
1.41113e-05
1.4119e-05
1.41279e-05
1.41383e-05
1.41503e-05
1.41641e-05
1.41797e-05
1.41972e-05
1.42164e-05
1.42376e-05
1.42609e-05
1.42873e-05
1.43179e-05
1.43539e-05
1.43964e-05
1.44458e-05
1.45021e-05
1.45654e-05
1.46353e-05
1.47115e-05
1.47941e-05
1.48845e-05
1.49869e-05
1.51086e-05
1.52548e-05
1.54276e-05
1.56259e-05
1.58474e-05
1.60887e-05
1.63467e-05
1.66185e-05
1.69033e-05
1.72064e-05
1.75488e-05
1.79616e-05
1.84516e-05
1.90074e-05
1.96108e-05
2.02436e-05
2.08903e-05
1.4048e-05
1.4048e-05
1.4048e-05
1.4048e-05
1.40481e-05
1.40481e-05
1.40481e-05
1.40481e-05
1.40482e-05
1.40482e-05
1.40483e-05
1.40483e-05
1.40483e-05
1.40484e-05
1.40485e-05
1.40485e-05
1.40486e-05
1.40486e-05
1.40487e-05
1.40488e-05
1.40489e-05
1.40489e-05
1.4049e-05
1.40491e-05
1.40492e-05
1.40494e-05
1.40495e-05
1.40496e-05
1.40498e-05
1.40499e-05
1.40501e-05
1.40503e-05
1.40504e-05
1.40506e-05
1.40509e-05
1.40511e-05
1.40513e-05
1.40516e-05
1.40519e-05
1.40522e-05
1.40526e-05
1.4053e-05
1.40534e-05
1.40538e-05
1.40543e-05
1.40548e-05
1.40554e-05
1.4056e-05
1.40567e-05
1.40574e-05
1.40583e-05
1.40592e-05
1.40602e-05
1.40613e-05
1.40626e-05
1.40639e-05
1.40654e-05
1.40671e-05
1.40689e-05
1.40708e-05
1.4073e-05
1.40755e-05
1.40782e-05
1.40813e-05
1.40849e-05
1.40888e-05
1.40933e-05
1.40982e-05
1.41037e-05
1.41098e-05
1.41164e-05
1.41238e-05
1.41321e-05
1.41416e-05
1.41526e-05
1.41652e-05
1.41796e-05
1.4196e-05
1.42144e-05
1.42349e-05
1.42575e-05
1.42823e-05
1.43097e-05
1.43405e-05
1.4376e-05
1.44174e-05
1.44656e-05
1.45213e-05
1.45845e-05
1.46553e-05
1.47336e-05
1.4819e-05
1.49117e-05
1.5013e-05
1.51268e-05
1.52598e-05
1.54173e-05
1.56015e-05
1.58119e-05
1.60462e-05
1.63018e-05
1.65754e-05
1.68645e-05
1.71678e-05
1.74895e-05
1.78464e-05
1.82672e-05
1.87602e-05
1.9317e-05
1.99224e-05
2.0561e-05
2.12184e-05
2.18833e-05
2.25473e-05
2.32077e-05
2.38719e-05
2.45965e-05
2.5509e-05
2.65466e-05
2.76271e-05
2.86915e-05
2.9704e-05
3.06442e-05
1.40486e-05
1.40487e-05
1.40487e-05
1.40488e-05
1.40489e-05
1.40491e-05
1.40492e-05
1.40493e-05
1.40494e-05
1.40496e-05
1.40498e-05
1.40499e-05
1.40501e-05
1.40503e-05
1.40506e-05
1.40508e-05
1.40511e-05
1.40513e-05
1.40516e-05
1.40519e-05
1.40523e-05
1.40526e-05
1.4053e-05
1.40535e-05
1.40539e-05
1.40544e-05
1.40549e-05
1.40555e-05
1.40561e-05
1.40567e-05
1.40574e-05
1.40581e-05
1.40589e-05
1.40597e-05
1.40606e-05
1.40616e-05
1.40627e-05
1.40639e-05
1.40652e-05
1.40666e-05
1.40681e-05
1.40697e-05
1.40715e-05
1.40735e-05
1.40755e-05
1.40778e-05
1.40802e-05
1.40828e-05
1.40858e-05
1.4089e-05
1.40926e-05
1.40966e-05
1.41011e-05
1.41061e-05
1.41115e-05
1.41175e-05
1.4124e-05
1.41312e-05
1.4139e-05
1.41476e-05
1.41572e-05
1.4168e-05
1.41802e-05
1.41942e-05
1.421e-05
1.42279e-05
1.42478e-05
1.42699e-05
1.42943e-05
1.4321e-05
1.43503e-05
1.43827e-05
1.44192e-05
1.44611e-05
1.45095e-05
1.45651e-05
1.46284e-05
1.46997e-05
1.4779e-05
1.48662e-05
1.49612e-05
1.50645e-05
1.51771e-05
1.53033e-05
1.54493e-05
1.56198e-05
1.58168e-05
1.60398e-05
1.62871e-05
1.65561e-05
1.68442e-05
1.71488e-05
1.74688e-05
1.78074e-05
1.81791e-05
1.86091e-05
1.9105e-05
1.96598e-05
2.02606e-05
2.08937e-05
2.15468e-05
2.22093e-05
2.28729e-05
2.35341e-05
2.41984e-05
2.49058e-05
2.57753e-05
2.67593e-05
2.77882e-05
2.88098e-05
2.97912e-05
3.07122e-05
3.15615e-05
3.23372e-05
3.30399e-05
3.36703e-05
3.423e-05
3.47102e-05
3.51249e-05
3.54878e-05
3.58066e-05
3.60835e-05
3.63177e-05
1.4051e-05
1.40514e-05
1.40517e-05
1.40521e-05
1.40526e-05
1.4053e-05
1.40535e-05
1.40541e-05
1.40546e-05
1.40553e-05
1.4056e-05
1.40567e-05
1.40575e-05
1.40583e-05
1.40592e-05
1.40602e-05
1.40612e-05
1.40623e-05
1.40635e-05
1.40648e-05
1.40662e-05
1.40677e-05
1.40693e-05
1.4071e-05
1.40729e-05
1.40749e-05
1.4077e-05
1.40793e-05
1.40818e-05
1.40844e-05
1.40872e-05
1.40902e-05
1.40934e-05
1.40969e-05
1.41007e-05
1.41048e-05
1.41093e-05
1.41142e-05
1.41195e-05
1.41254e-05
1.41317e-05
1.41386e-05
1.4146e-05
1.4154e-05
1.41626e-05
1.41718e-05
1.41819e-05
1.41931e-05
1.42054e-05
1.42191e-05
1.42345e-05
1.42516e-05
1.42707e-05
1.42917e-05
1.43149e-05
1.43402e-05
1.43678e-05
1.43978e-05
1.44304e-05
1.44663e-05
1.45063e-05
1.45516e-05
1.46032e-05
1.46617e-05
1.47276e-05
1.48012e-05
1.48827e-05
1.49722e-05
1.50698e-05
1.51755e-05
1.52901e-05
1.54157e-05
1.55573e-05
1.57198e-05
1.59067e-05
1.61189e-05
1.63556e-05
1.66153e-05
1.6896e-05
1.71956e-05
1.7512e-05
1.78445e-05
1.81965e-05
1.85822e-05
1.90219e-05
1.95208e-05
2.00725e-05
2.06658e-05
2.1289e-05
2.19317e-05
2.25848e-05
2.3241e-05
2.38961e-05
2.45543e-05
2.5248e-05
2.608e-05
2.70113e-05
2.79834e-05
2.89507e-05
2.98838e-05
3.07647e-05
3.15825e-05
3.23332e-05
3.30173e-05
3.36347e-05
3.4188e-05
3.46677e-05
3.50833e-05
3.54469e-05
3.57684e-05
3.60516e-05
3.62966e-05
3.6503e-05
3.6674e-05
3.68128e-05
3.69224e-05
3.70042e-05
3.70632e-05
3.71083e-05
3.71462e-05
3.71842e-05
3.72269e-05
3.7272e-05
1.4061e-05
1.40624e-05
1.40638e-05
1.40654e-05
1.40671e-05
1.40689e-05
1.40709e-05
1.4073e-05
1.40754e-05
1.40779e-05
1.40806e-05
1.40835e-05
1.40867e-05
1.40901e-05
1.40937e-05
1.40975e-05
1.41017e-05
1.41061e-05
1.41108e-05
1.41159e-05
1.41214e-05
1.41274e-05
1.41338e-05
1.41407e-05
1.41481e-05
1.41561e-05
1.41646e-05
1.41738e-05
1.41835e-05
1.41939e-05
1.4205e-05
1.42168e-05
1.42296e-05
1.42435e-05
1.42586e-05
1.42752e-05
1.42933e-05
1.43132e-05
1.43348e-05
1.43583e-05
1.43838e-05
1.44112e-05
1.44408e-05
1.44725e-05
1.45065e-05
1.45431e-05
1.4583e-05
1.46269e-05
1.46758e-05
1.47303e-05
1.47909e-05
1.48582e-05
1.49323e-05
1.50135e-05
1.51021e-05
1.5198e-05
1.53014e-05
1.54126e-05
1.55322e-05
1.56627e-05
1.58084e-05
1.59732e-05
1.61597e-05
1.63685e-05
1.65994e-05
1.68513e-05
1.71232e-05
1.74134e-05
1.77207e-05
1.80437e-05
1.83834e-05
1.87459e-05
1.91479e-05
1.96004e-05
2.01024e-05
2.0647e-05
2.12252e-05
2.18284e-05
2.24486e-05
2.3079e-05
2.37137e-05
2.43496e-05
2.49904e-05
2.56729e-05
2.64704e-05
2.73481e-05
2.82585e-05
2.91642e-05
3.004e-05
3.08708e-05
3.16475e-05
3.23653e-05
3.30238e-05
3.36217e-05
3.41603e-05
3.46317e-05
3.5044e-05
3.5405e-05
3.57226e-05
3.60028e-05
3.6248e-05
3.6459e-05
3.66365e-05
3.6782e-05
3.69e-05
3.69937e-05
3.7064e-05
3.7117e-05
3.71624e-05
3.72053e-05
3.7249e-05
3.7297e-05
3.73457e-05
3.73909e-05
3.74309e-05
3.74656e-05
3.74922e-05
3.75093e-05
3.75171e-05
3.75196e-05
3.75222e-05
3.75261e-05
3.75315e-05
3.75399e-05
3.75506e-05
1.41002e-05
1.41055e-05
1.41111e-05
1.41173e-05
1.41239e-05
1.4131e-05
1.41388e-05
1.41472e-05
1.41563e-05
1.41661e-05
1.41766e-05
1.41879e-05
1.42e-05
1.4213e-05
1.42268e-05
1.42415e-05
1.42572e-05
1.4274e-05
1.42922e-05
1.43117e-05
1.43329e-05
1.43557e-05
1.43803e-05
1.44068e-05
1.44353e-05
1.44658e-05
1.44983e-05
1.4533e-05
1.45697e-05
1.46086e-05
1.46499e-05
1.46941e-05
1.47417e-05
1.47934e-05
1.48498e-05
1.49113e-05
1.49782e-05
1.50509e-05
1.51296e-05
1.52144e-05
1.53055e-05
1.54029e-05
1.55066e-05
1.56167e-05
1.57334e-05
1.5858e-05
1.5993e-05
1.61417e-05
1.63067e-05
1.64893e-05
1.66901e-05
1.69089e-05
1.71453e-05
1.73984e-05
1.76676e-05
1.79518e-05
1.82502e-05
1.85619e-05
1.88888e-05
1.92374e-05
1.96214e-05
2.00465e-05
2.0511e-05
2.10101e-05
2.15379e-05
2.20888e-05
2.26572e-05
2.32383e-05
2.38272e-05
2.44202e-05
2.50171e-05
2.56263e-05
2.63089e-05
2.70768e-05
2.7894e-05
2.87261e-05
2.9548e-05
3.03431e-05
3.11008e-05
3.18138e-05
3.24786e-05
3.30941e-05
3.3658e-05
3.41676e-05
3.46164e-05
3.50135e-05
3.53652e-05
3.56762e-05
3.59512e-05
3.61935e-05
3.64045e-05
3.65857e-05
3.6737e-05
3.68604e-05
3.69609e-05
3.70412e-05
3.71034e-05
3.71537e-05
3.71999e-05
3.72454e-05
3.72919e-05
3.73406e-05
3.73881e-05
3.74312e-05
3.74694e-05
3.75009e-05
3.7525e-05
3.75416e-05
3.75513e-05
3.75578e-05
3.75659e-05
3.75781e-05
3.75917e-05
3.76061e-05
3.76231e-05
3.76417e-05
3.7657e-05
3.76684e-05
3.76762e-05
3.76794e-05
3.76802e-05
3.76797e-05
3.76788e-05
3.76793e-05
3.76817e-05
1.42497e-05
1.42693e-05
1.42905e-05
1.43133e-05
1.43379e-05
1.43646e-05
1.43935e-05
1.44246e-05
1.44583e-05
1.44945e-05
1.45333e-05
1.45748e-05
1.4619e-05
1.46659e-05
1.47156e-05
1.47683e-05
1.48243e-05
1.48842e-05
1.49484e-05
1.50174e-05
1.50915e-05
1.5171e-05
1.5256e-05
1.53466e-05
1.5443e-05
1.55451e-05
1.56529e-05
1.57664e-05
1.58853e-05
1.60098e-05
1.61406e-05
1.62794e-05
1.64287e-05
1.65902e-05
1.67652e-05
1.69541e-05
1.7157e-05
1.73736e-05
1.76036e-05
1.78464e-05
1.81013e-05
1.83675e-05
1.86444e-05
1.89311e-05
1.92277e-05
1.95372e-05
1.98678e-05
2.0227e-05
2.06159e-05
2.10326e-05
2.14742e-05
2.19375e-05
2.24195e-05
2.29168e-05
2.34261e-05
2.39444e-05
2.44686e-05
2.49963e-05
2.5529e-05
2.60774e-05
2.66963e-05
2.73754e-05
2.80889e-05
2.8815e-05
2.95371e-05
3.02432e-05
3.09252e-05
3.15774e-05