/*--------------------------------*- C++ -*----------------------------------*\
| =========                 |                                                 |
| \\      /  F ield         | OpenFOAM: The Open Source CFD Toolbox           |
|  \\    /   O peration     | Version:  v1706                                 |
|   \\  /    A nd           | Web:      www.OpenFOAM.com                      |
|    \\/     M anipulation  |                                                 |
\*---------------------------------------------------------------------------*/
FoamFile
{
    version     2.0;
    format      ascii;
    class       volScalarField;
    location    "3.1e-05";
    object      kappave;
}
// * * * * * * * * * * * * * * * * * * * * * * * * * * * * * * * * * * * * * //

dimensions      [1 1 -3 -1 0 0 0];


internalField   nonuniform List<scalar> 
29871
(
1.46038e-10
1.46038e-10
1.46038e-10
1.46038e-10
1.46038e-10
1.46038e-10
1.46038e-10
1.46038e-10
1.46038e-10
1.46038e-10
1.46038e-10
1.46038e-10
1.46038e-10
1.46038e-10
1.46038e-10
1.46038e-10
1.46038e-10
1.46038e-10
1.46038e-10
1.46038e-10
1.46038e-10
1.46038e-10
1.46038e-10
1.46038e-10
1.46038e-10
1.46038e-10
1.46038e-10
1.46038e-10
1.46038e-10
1.46038e-10
1.46038e-10
1.46038e-10
1.46038e-10
1.46038e-10
1.46038e-10
1.46038e-10
1.46038e-10
1.46038e-10
1.46038e-10
1.46038e-10
1.46038e-10
1.46038e-10
1.46038e-10
1.46038e-10
1.46038e-10
1.46038e-10
1.46038e-10
1.46038e-10
1.46038e-10
1.46038e-10
1.46038e-10
1.46038e-10
1.46038e-10
1.46038e-10
1.46038e-10
1.46038e-10
1.46038e-10
1.46038e-10
1.46038e-10
1.46038e-10
1.46038e-10
1.46038e-10
1.46038e-10
1.46038e-10
1.46038e-10
1.46038e-10
1.46038e-10
1.46038e-10
1.46038e-10
1.46038e-10
1.46038e-10
1.46038e-10
1.46038e-10
1.46038e-10
1.46038e-10
1.46038e-10
1.46038e-10
1.46038e-10
1.46038e-10
1.46038e-10
1.46038e-10
1.46038e-10
1.46038e-10
1.46038e-10
1.46038e-10
1.46038e-10
1.46038e-10
1.46038e-10
1.46038e-10
1.46038e-10
1.46038e-10
1.46038e-10
1.46038e-10
1.46038e-10
1.46038e-10
1.46038e-10
1.46038e-10
1.46038e-10
1.46038e-10
1.46038e-10
1.46038e-10
1.46038e-10
1.46038e-10
1.46038e-10
1.46038e-10
1.46038e-10
1.46038e-10
1.46038e-10
1.46038e-10
1.46038e-10
1.46038e-10
1.46038e-10
1.46038e-10
1.46038e-10
1.46038e-10
1.46038e-10
1.46038e-10
1.46038e-10
1.46038e-10
1.46038e-10
1.46038e-10
1.46038e-10
1.46038e-10
1.46038e-10
1.46038e-10
1.46038e-10
1.46038e-10
1.46038e-10
1.46038e-10
1.46038e-10
1.46038e-10
1.46038e-10
1.46038e-10
1.46038e-10
1.46038e-10
1.46038e-10
1.46038e-10
1.46038e-10
1.46038e-10
1.46038e-10
1.46038e-10
1.46038e-10
1.46038e-10
1.46038e-10
1.46038e-10
1.46038e-10
1.46038e-10
1.46038e-10
1.46038e-10
1.46038e-10
1.46038e-10
1.46038e-10
1.46038e-10
1.46038e-10
1.46038e-10
1.46038e-10
1.46038e-10
1.46038e-10
1.46038e-10
1.46038e-10
1.46038e-10
1.46038e-10
1.46038e-10
1.46038e-10
1.46038e-10
1.46038e-10
1.46038e-10
1.46038e-10
1.46038e-10
1.46038e-10
1.46038e-10
1.46038e-10
1.46038e-10
1.46038e-10
1.46038e-10
1.46038e-10
1.46038e-10
1.46038e-10
1.46038e-10
1.46038e-10
1.46038e-10
1.46038e-10
1.46038e-10
1.46038e-10
1.46038e-10
1.46038e-10
1.46038e-10
1.46038e-10
1.46038e-10
1.46038e-10
1.46038e-10
1.46038e-10
1.46038e-10
1.46038e-10
1.46038e-10
1.46038e-10
1.46038e-10
1.46038e-10
1.46038e-10
1.46038e-10
1.46038e-10
1.46038e-10
1.46038e-10
1.46038e-10
1.46038e-10
1.46038e-10
1.46038e-10
1.46038e-10
1.46038e-10
1.46038e-10
1.46038e-10
1.46038e-10
1.46038e-10
1.46038e-10
1.46038e-10
1.46038e-10
1.46038e-10
1.46038e-10
1.46038e-10
1.46038e-10
1.46038e-10
1.46038e-10
1.46038e-10
1.46038e-10
1.46038e-10
1.46038e-10
1.46038e-10
1.46038e-10
1.46038e-10
1.46038e-10
1.46038e-10
1.46038e-10
1.46038e-10
1.46038e-10
1.46038e-10
1.46038e-10
1.46038e-10
1.46038e-10
1.46038e-10
1.46038e-10
1.46038e-10
1.46038e-10
1.46038e-10
1.46038e-10
1.46038e-10
1.46038e-10
1.46038e-10
1.46038e-10
1.46038e-10
1.46038e-10
1.46038e-10
1.46038e-10
1.46038e-10
1.46038e-10
1.46038e-10
1.46038e-10
1.46038e-10
1.46038e-10
1.46038e-10
1.46038e-10
1.46038e-10
1.46038e-10
1.46038e-10
1.46038e-10
1.46038e-10
1.46038e-10
1.46038e-10
1.46038e-10
1.46038e-10
1.46038e-10
1.46038e-10
1.46038e-10
1.46038e-10
1.46038e-10
1.46038e-10
1.46038e-10
1.46038e-10
1.46038e-10
1.46038e-10
1.46038e-10
1.46038e-10
1.46038e-10
1.46038e-10
1.46038e-10
1.46038e-10
1.46038e-10
1.46038e-10
1.46038e-10
1.46038e-10
1.46038e-10
1.46038e-10
1.46038e-10
1.46038e-10
1.46038e-10
1.46038e-10
1.46038e-10
1.46038e-10
1.46038e-10
1.46038e-10
1.46038e-10
1.46038e-10
1.46038e-10
1.46038e-10
1.46038e-10
1.46038e-10
1.46038e-10
1.46038e-10
1.46038e-10
1.46038e-10
1.46038e-10
1.46038e-10
1.46038e-10
1.46038e-10
1.46038e-10
1.46038e-10
1.46038e-10
1.46038e-10
1.46038e-10
1.46038e-10
1.46038e-10
1.46038e-10
1.46038e-10
1.46038e-10
1.46038e-10
1.46038e-10
1.46038e-10
1.46038e-10
1.46038e-10
1.46038e-10
1.46038e-10
1.46038e-10
1.46038e-10
1.46038e-10
1.46038e-10
1.46038e-10
1.46038e-10
1.46038e-10
1.46038e-10
1.46038e-10
1.46038e-10
1.46038e-10
1.46038e-10
1.46038e-10
1.46038e-10
1.46038e-10
1.46038e-10
1.46038e-10
1.46038e-10
1.46038e-10
1.46038e-10
1.46038e-10
1.46038e-10
1.46038e-10
1.46038e-10
1.46038e-10
1.46038e-10
1.46038e-10
1.46038e-10
1.46038e-10
1.46038e-10
1.46038e-10
1.46038e-10
1.46038e-10
1.46038e-10
1.46038e-10
1.46038e-10
1.46038e-10
1.46038e-10
1.46038e-10
1.46038e-10
1.46038e-10
1.46038e-10
1.46038e-10
1.46038e-10
1.46038e-10
1.46038e-10
1.46038e-10
1.46038e-10
1.46038e-10
1.46038e-10
1.46038e-10
1.46038e-10
1.46038e-10
1.46038e-10
1.46038e-10
1.46038e-10
1.46038e-10
1.46038e-10
1.46038e-10
1.46038e-10
1.46038e-10
1.46038e-10
1.46038e-10
1.46038e-10
1.46038e-10
1.46038e-10
1.46038e-10
1.46038e-10
1.46038e-10
1.46038e-10
1.46038e-10
1.46038e-10
1.46038e-10
1.46038e-10
1.46038e-10
1.46038e-10
1.46038e-10
1.46038e-10
1.46038e-10
1.46038e-10
1.46038e-10
1.46038e-10
1.46038e-10
1.46038e-10
1.46038e-10
1.46038e-10
1.46038e-10
1.46038e-10
1.46038e-10
1.46038e-10
1.46038e-10
1.46038e-10
1.46038e-10
1.46038e-10
1.46038e-10
1.46038e-10
1.46038e-10
1.46038e-10
1.46038e-10
1.46038e-10
1.46038e-10
1.46038e-10
1.46038e-10
1.46038e-10
1.46038e-10
1.46038e-10
1.46038e-10
1.46038e-10
1.46038e-10
1.46038e-10
1.46038e-10
1.46038e-10
1.46038e-10
1.46038e-10
1.46038e-10
1.46038e-10
1.46038e-10
1.46038e-10
1.46038e-10
1.46038e-10
1.46038e-10
1.46038e-10
1.46038e-10
1.46038e-10
1.46038e-10
1.46038e-10
1.46038e-10
1.46038e-10
1.46038e-10
1.46038e-10
1.46038e-10
1.46038e-10
1.46038e-10
1.46038e-10
1.46038e-10
1.46038e-10
1.46038e-10
1.46038e-10
1.46038e-10
1.46038e-10
1.46038e-10
1.46038e-10
1.46038e-10
1.46038e-10
1.46038e-10
1.46038e-10
1.46038e-10
1.46038e-10
1.46038e-10
1.46038e-10
1.46038e-10
1.46038e-10
1.46038e-10
1.46038e-10
1.46038e-10
1.46038e-10
1.46038e-10
1.46038e-10
1.46038e-10
1.46038e-10
1.46038e-10
1.46038e-10
1.46038e-10
1.46038e-10
1.46038e-10
1.46038e-10
1.46038e-10
1.46038e-10
1.46038e-10
1.46038e-10
1.46038e-10
1.46038e-10
1.46038e-10
1.46038e-10
1.46038e-10
1.46038e-10
1.46038e-10
1.46038e-10
1.46038e-10
1.46038e-10
1.46038e-10
1.46038e-10
1.46038e-10
1.46038e-10
1.46038e-10
1.46038e-10
1.46038e-10
1.46038e-10
1.46038e-10
1.46038e-10
1.46038e-10
1.46038e-10
1.46038e-10
1.46038e-10
1.46038e-10
1.46038e-10
1.46038e-10
1.46038e-10
1.46038e-10
1.46038e-10
1.46038e-10
1.46038e-10
1.46038e-10
1.46038e-10
1.46038e-10
1.46038e-10
1.46038e-10
1.46038e-10
1.46038e-10
1.46038e-10
1.46038e-10
1.46038e-10
1.46038e-10
1.46038e-10
1.46038e-10
1.46038e-10
1.46038e-10
1.46038e-10
1.46038e-10
1.46038e-10
1.46038e-10
1.46038e-10
1.46038e-10
1.46038e-10
1.46038e-10
1.46038e-10
1.46038e-10
1.46038e-10
1.46038e-10
1.46038e-10
1.46038e-10
1.46038e-10
1.46038e-10
1.46038e-10
1.46038e-10
1.46038e-10
1.46038e-10
1.46038e-10
1.46038e-10
1.46038e-10
1.46038e-10
1.46038e-10
1.46038e-10
1.46038e-10
1.46038e-10
1.46038e-10
1.46038e-10
1.46038e-10
1.46038e-10
1.46038e-10
1.46038e-10
1.46038e-10
1.46038e-10
1.46038e-10
1.46038e-10
1.46038e-10
1.46038e-10
1.46038e-10
1.46038e-10
1.46038e-10
1.46038e-10
1.46038e-10
1.46038e-10
1.46038e-10
1.46038e-10
1.46038e-10
1.46038e-10
1.46038e-10
1.46038e-10
1.46038e-10
1.46038e-10
1.46038e-10
1.46038e-10
1.46038e-10
1.46038e-10
1.46038e-10
1.46038e-10
1.46038e-10
1.46038e-10
1.46038e-10
1.46038e-10
1.46038e-10
1.46038e-10
1.46038e-10
1.46038e-10
1.46038e-10
1.46038e-10
1.46038e-10
1.46038e-10
1.46038e-10
1.46038e-10
1.46038e-10
1.46038e-10
1.46038e-10
1.46038e-10
1.46038e-10
1.46038e-10
1.46038e-10
1.46038e-10
1.46038e-10
1.46038e-10
1.46038e-10
1.46038e-10
1.46038e-10
1.46038e-10
1.46038e-10
1.46038e-10
1.46038e-10
1.46038e-10
1.46038e-10
1.46038e-10
1.46038e-10
1.46038e-10
1.46038e-10
1.46038e-10
1.46038e-10
1.46038e-10
1.46038e-10
1.46038e-10
1.46038e-10
1.46038e-10
1.46038e-10
1.46038e-10
1.46038e-10
1.46038e-10
1.46038e-10
1.46038e-10
1.46038e-10
1.46038e-10
1.46038e-10
1.46038e-10
1.46038e-10
1.46038e-10
1.46038e-10
1.46038e-10
1.46038e-10
1.46038e-10
1.46038e-10
1.46038e-10
1.46038e-10
1.46038e-10
1.46038e-10
1.46038e-10
1.46038e-10
1.46038e-10
1.46038e-10
1.46038e-10
1.46038e-10
1.46038e-10
1.46038e-10
1.46038e-10
1.46038e-10
1.46038e-10
1.46038e-10
1.46038e-10
1.46038e-10
1.46038e-10
1.46038e-10
1.46038e-10
1.46038e-10
1.46038e-10
1.46038e-10
1.46038e-10
1.46038e-10
1.46038e-10
1.46038e-10
1.46038e-10
1.46038e-10
1.46038e-10
1.46038e-10
1.46038e-10
1.46038e-10
1.46038e-10
1.46038e-10
1.46038e-10
1.46038e-10
1.46038e-10
1.46038e-10
1.46038e-10
1.46038e-10
1.46038e-10
1.46038e-10
1.46038e-10
1.46038e-10
1.46038e-10
1.46038e-10
1.46038e-10
1.46038e-10
1.46038e-10
1.46038e-10
1.46038e-10
1.46038e-10
1.46038e-10
1.46038e-10
1.46038e-10
1.46038e-10
1.46038e-10
1.46038e-10
1.46038e-10
1.46038e-10
1.46038e-10
1.46038e-10
1.46038e-10
1.46038e-10
1.46038e-10
1.46038e-10
1.46038e-10
1.46038e-10
1.46038e-10
1.46038e-10
1.46038e-10
1.46038e-10
1.46038e-10
1.46038e-10
1.46038e-10
1.46038e-10
1.46038e-10
1.46038e-10
1.46038e-10
1.46038e-10
1.46038e-10
1.46038e-10
1.46038e-10
1.46038e-10
1.46038e-10
1.46038e-10
1.46038e-10
1.46038e-10
1.46038e-10
1.46038e-10
1.46038e-10
1.46038e-10
1.46038e-10
1.46038e-10
1.46038e-10
1.46038e-10
1.46038e-10
1.46038e-10
1.46038e-10
1.46038e-10
1.46038e-10
1.46038e-10
1.46038e-10
1.46038e-10
1.46038e-10
1.46038e-10
1.46038e-10
1.46038e-10
1.46038e-10
1.46038e-10
1.46038e-10
1.46038e-10
1.46038e-10
1.46038e-10
1.46038e-10
1.46038e-10
1.46038e-10
1.46038e-10
1.46038e-10
1.46038e-10
1.46038e-10
1.46038e-10
1.46038e-10
1.46038e-10
1.46038e-10
1.46038e-10
1.46038e-10
1.46038e-10
1.46038e-10
1.46038e-10
1.46038e-10
1.46038e-10
1.46038e-10
1.46038e-10
1.46038e-10
1.46038e-10
1.46038e-10
1.46038e-10
1.46038e-10
1.46038e-10
1.46038e-10
1.46038e-10
1.46038e-10
1.46038e-10
1.46038e-10
1.46038e-10
1.46038e-10
1.46038e-10
1.46038e-10
1.46038e-10
1.46038e-10
1.46038e-10
1.46038e-10
1.46038e-10
1.46038e-10
1.46038e-10
1.46038e-10
1.46038e-10
1.46038e-10
1.46038e-10
1.46038e-10
1.46038e-10
1.46038e-10
1.46038e-10
1.46038e-10
1.46038e-10
1.46038e-10
1.46038e-10
1.46038e-10
1.46038e-10
1.46038e-10
1.46038e-10
1.46038e-10
1.46038e-10
1.46038e-10
1.46038e-10
1.46038e-10
1.46038e-10
1.46038e-10
1.46038e-10
1.46038e-10
1.46038e-10
1.46038e-10
1.46038e-10
1.46038e-10
1.46038e-10
1.46038e-10
1.46038e-10
1.46038e-10
1.46038e-10
1.46038e-10
1.46038e-10
1.46038e-10
1.46038e-10
1.46038e-10
1.46038e-10
1.46038e-10
1.46038e-10
1.46038e-10
1.46038e-10
1.46038e-10
1.46038e-10
1.46038e-10
1.46038e-10
1.46038e-10
1.46038e-10
1.46038e-10
1.46038e-10
1.46038e-10
1.46038e-10
1.46038e-10
1.46038e-10
1.46038e-10
1.46038e-10
1.46038e-10
1.46038e-10
1.46038e-10
1.46038e-10
1.46038e-10
1.46038e-10
1.46038e-10
1.46038e-10
1.46038e-10
1.46038e-10
1.46038e-10
1.46038e-10
1.46038e-10
1.46038e-10
1.46038e-10
1.46038e-10
1.46038e-10
1.46038e-10
1.46038e-10
1.46038e-10
1.46038e-10
1.46038e-10
1.46038e-10
1.46038e-10
1.46038e-10
1.46038e-10
1.46038e-10
1.46038e-10
1.46038e-10
1.46038e-10
1.46038e-10
1.46038e-10
1.46038e-10
1.46038e-10
1.46038e-10
1.46038e-10
1.46038e-10
1.46038e-10
1.46038e-10
1.46038e-10
1.46038e-10
1.46038e-10
1.46038e-10
1.46038e-10
1.46038e-10
1.46038e-10
1.46038e-10
1.46038e-10
1.46038e-10
1.46038e-10
1.46038e-10
1.46038e-10
1.46038e-10
1.46038e-10
1.46038e-10
1.46038e-10
1.46038e-10
1.46038e-10
1.46038e-10
1.46038e-10
1.46038e-10
1.46038e-10
1.46038e-10
1.46038e-10
1.46038e-10
1.46038e-10
1.46038e-10
1.46038e-10
1.46038e-10
1.46038e-10
1.46038e-10
1.46038e-10
1.46038e-10
1.46038e-10
1.46038e-10
1.46038e-10
1.46038e-10
1.46038e-10
1.46038e-10
1.46038e-10
1.46038e-10
1.46038e-10
1.46038e-10
1.46038e-10
1.46038e-10
1.46038e-10
1.46038e-10
1.46038e-10
1.46038e-10
1.46038e-10
1.46038e-10
1.46038e-10
1.46038e-10
1.46038e-10
1.46038e-10
1.46038e-10
1.46038e-10
1.46038e-10
1.46038e-10
1.46038e-10
1.46038e-10
1.46038e-10
1.46038e-10
1.46038e-10
1.46038e-10
1.46038e-10
1.46038e-10
1.46038e-10
1.46038e-10
1.46038e-10
1.46038e-10
1.46038e-10
1.46038e-10
1.46038e-10
1.46038e-10
1.46038e-10
1.46038e-10
1.46038e-10
1.46038e-10
1.46038e-10
1.46038e-10
1.46038e-10
1.46038e-10
1.46038e-10
1.46038e-10
1.46038e-10
1.46038e-10
1.46038e-10
1.46038e-10
1.46038e-10
1.46038e-10
1.46038e-10
1.46038e-10
1.46038e-10
1.46038e-10
1.46038e-10
1.46038e-10
1.46038e-10
1.46038e-10
1.46038e-10
1.46038e-10
1.46038e-10
1.46038e-10
1.46038e-10
1.46038e-10
1.46038e-10
1.46038e-10
1.46038e-10
1.46038e-10
1.46038e-10
1.46038e-10
1.46038e-10
1.46038e-10
1.46038e-10
1.46038e-10
1.46038e-10
1.46038e-10
1.46038e-10
1.46038e-10
1.46038e-10
1.46038e-10
1.46038e-10
1.46038e-10
1.46038e-10
1.46038e-10
1.46038e-10
1.46038e-10
1.46038e-10
1.46038e-10
1.46038e-10
1.46038e-10
1.46038e-10
1.46038e-10
1.46038e-10
1.46038e-10
1.46038e-10
1.46038e-10
1.46038e-10
1.46038e-10
1.46038e-10
1.46038e-10
1.46039e-10
1.46039e-10
1.46039e-10
1.46039e-10
1.46039e-10
1.46039e-10
1.46039e-10
1.4604e-10
1.4604e-10
1.4604e-10
1.46041e-10
1.46038e-10
1.46038e-10
1.46038e-10
1.46038e-10
1.46038e-10
1.46038e-10
1.46038e-10
1.46038e-10
1.46038e-10
1.46038e-10
1.46038e-10
1.46038e-10
1.46038e-10
1.46038e-10
1.46038e-10
1.46038e-10
1.46038e-10
1.46038e-10
1.46038e-10
1.46038e-10
1.46038e-10
1.46038e-10
1.46038e-10
1.46038e-10
1.46038e-10
1.46038e-10
1.46038e-10
1.46038e-10
1.46038e-10
1.46038e-10
1.46038e-10
1.46038e-10
1.46038e-10
1.46038e-10
1.46038e-10
1.46038e-10
1.46038e-10
1.46038e-10
1.46038e-10
1.46038e-10
1.46038e-10
1.46038e-10
1.46038e-10
1.46038e-10
1.46038e-10
1.46038e-10
1.46038e-10
1.46038e-10
1.46038e-10
1.46038e-10
1.46038e-10
1.46038e-10
1.46038e-10
1.46038e-10
1.46038e-10
1.46038e-10
1.46038e-10
1.46038e-10
1.46038e-10
1.46038e-10
1.46038e-10
1.46038e-10
1.46038e-10
1.46038e-10
1.46038e-10
1.46038e-10
1.46038e-10
1.46038e-10
1.46038e-10
1.46038e-10
1.46038e-10
1.46038e-10
1.46038e-10
1.46038e-10
1.46038e-10
1.46038e-10
1.46038e-10
1.46038e-10
1.46038e-10
1.46038e-10
1.46038e-10
1.46038e-10
1.46038e-10
1.46038e-10
1.46038e-10
1.46039e-10
1.46039e-10
1.46039e-10
1.46039e-10
1.46039e-10
1.46039e-10
1.46039e-10
1.4604e-10
1.4604e-10
1.4604e-10
1.46041e-10
1.46041e-10
1.46041e-10
1.46042e-10
1.46042e-10
1.46043e-10
1.46044e-10
1.46045e-10
1.46045e-10
1.46046e-10
1.46048e-10
1.46049e-10
1.4605e-10
1.46052e-10
1.46054e-10
1.46038e-10
1.46038e-10
1.46038e-10
1.46038e-10
1.46038e-10
1.46038e-10
1.46038e-10
1.46038e-10
1.46038e-10
1.46038e-10
1.46038e-10
1.46038e-10
1.46038e-10
1.46038e-10
1.46038e-10
1.46038e-10
1.46038e-10
1.46038e-10
1.46038e-10
1.46038e-10
1.46038e-10
1.46038e-10
1.46038e-10
1.46038e-10
1.46038e-10
1.46038e-10
1.46038e-10
1.46038e-10
1.46038e-10
1.46038e-10
1.46038e-10
1.46038e-10
1.46038e-10
1.46038e-10
1.46038e-10
1.46038e-10
1.46038e-10
1.46038e-10
1.46038e-10
1.46038e-10
1.46038e-10
1.46038e-10
1.46038e-10
1.46038e-10
1.46038e-10
1.46038e-10
1.46038e-10
1.46038e-10
1.46038e-10
1.46038e-10
1.46038e-10
1.46038e-10
1.46038e-10
1.46038e-10
1.46038e-10
1.46038e-10
1.46038e-10
1.46038e-10
1.46038e-10
1.46038e-10
1.46038e-10
1.46038e-10
1.46038e-10
1.46038e-10
1.46038e-10
1.46038e-10
1.46038e-10
1.46038e-10
1.46038e-10
1.46038e-10
1.46038e-10
1.46039e-10
1.46039e-10
1.46039e-10
1.46039e-10
1.46039e-10
1.46039e-10
1.46039e-10
1.46039e-10
1.4604e-10
1.4604e-10
1.4604e-10
1.46041e-10
1.46041e-10
1.46041e-10
1.46042e-10
1.46042e-10
1.46043e-10
1.46043e-10
1.46044e-10
1.46045e-10
1.46046e-10
1.46047e-10
1.46048e-10
1.4605e-10
1.46051e-10
1.46053e-10
1.46055e-10
1.46057e-10
1.4606e-10
1.46063e-10
1.46066e-10
1.4607e-10
1.46075e-10
1.4608e-10
1.46086e-10
1.46092e-10
1.46099e-10
1.46107e-10
1.46117e-10
1.46129e-10
1.46038e-10
1.46038e-10
1.46038e-10
1.46038e-10
1.46038e-10
1.46038e-10
1.46038e-10
1.46038e-10
1.46038e-10
1.46038e-10
1.46038e-10
1.46038e-10
1.46038e-10
1.46038e-10
1.46038e-10
1.46038e-10
1.46038e-10
1.46038e-10
1.46038e-10
1.46038e-10
1.46038e-10
1.46038e-10
1.46038e-10
1.46038e-10
1.46038e-10
1.46038e-10
1.46038e-10
1.46038e-10
1.46038e-10
1.46038e-10
1.46038e-10
1.46038e-10
1.46038e-10
1.46038e-10
1.46038e-10
1.46038e-10
1.46038e-10
1.46038e-10
1.46038e-10
1.46038e-10
1.46038e-10
1.46038e-10
1.46038e-10
1.46038e-10
1.46038e-10
1.46038e-10
1.46038e-10
1.46038e-10
1.46038e-10
1.46038e-10
1.46038e-10
1.46038e-10
1.46038e-10
1.46038e-10
1.46038e-10
1.46039e-10
1.46039e-10
1.46039e-10
1.46039e-10
1.46039e-10
1.46039e-10
1.46039e-10
1.46039e-10
1.46039e-10
1.4604e-10
1.4604e-10
1.4604e-10
1.4604e-10
1.46041e-10
1.46041e-10
1.46041e-10
1.46042e-10
1.46042e-10
1.46043e-10
1.46043e-10
1.46044e-10
1.46045e-10
1.46046e-10
1.46047e-10
1.46048e-10
1.46049e-10
1.46051e-10
1.46052e-10
1.46054e-10
1.46056e-10
1.46058e-10
1.46061e-10
1.46064e-10
1.46067e-10
1.46071e-10
1.46076e-10
1.46081e-10
1.46087e-10
1.46093e-10
1.46101e-10
1.46109e-10
1.46118e-10
1.46128e-10
1.4614e-10
1.46155e-10
1.46172e-10
1.46191e-10
1.46213e-10
1.46238e-10
1.46265e-10
1.46295e-10
1.46329e-10
1.46367e-10
1.46413e-10
1.46467e-10
1.46532e-10
1.46608e-10
1.46695e-10
1.46038e-10
1.46038e-10
1.46038e-10
1.46038e-10
1.46038e-10
1.46038e-10
1.46038e-10
1.46038e-10
1.46038e-10
1.46038e-10
1.46038e-10
1.46038e-10
1.46038e-10
1.46038e-10
1.46038e-10
1.46038e-10
1.46038e-10
1.46038e-10
1.46038e-10
1.46038e-10
1.46038e-10
1.46038e-10
1.46038e-10
1.46038e-10
1.46038e-10
1.46038e-10
1.46038e-10
1.46038e-10
1.46038e-10
1.46038e-10
1.46038e-10
1.46038e-10
1.46038e-10
1.46038e-10
1.46038e-10
1.46038e-10
1.46039e-10
1.46039e-10
1.46039e-10
1.46039e-10
1.46039e-10
1.46039e-10
1.46039e-10
1.46039e-10
1.46039e-10
1.46039e-10
1.4604e-10
1.4604e-10
1.4604e-10
1.4604e-10
1.4604e-10
1.4604e-10
1.46041e-10
1.46041e-10
1.46041e-10
1.46042e-10
1.46042e-10
1.46043e-10
1.46043e-10
1.46044e-10
1.46044e-10
1.46045e-10
1.46046e-10
1.46046e-10
1.46047e-10
1.46048e-10
1.4605e-10
1.46051e-10
1.46052e-10
1.46054e-10
1.46056e-10
1.46058e-10
1.46061e-10
1.46063e-10
1.46066e-10
1.4607e-10
1.46074e-10
1.46078e-10
1.46083e-10
1.46089e-10
1.46096e-10
1.46103e-10
1.46111e-10
1.46121e-10
1.46131e-10
1.46142e-10
1.46156e-10
1.46171e-10
1.46189e-10
1.46209e-10
1.46233e-10
1.4626e-10
1.4629e-10
1.46324e-10
1.46361e-10
1.46403e-10
1.4645e-10
1.46504e-10
1.46569e-10
1.46646e-10
1.46736e-10
1.4684e-10
1.46957e-10
1.47088e-10
1.47232e-10
1.4739e-10
1.47564e-10
1.47764e-10
1.48003e-10
1.48291e-10
1.48637e-10
1.49041e-10
1.49501e-10
1.46038e-10
1.46038e-10
1.46038e-10
1.46038e-10
1.46038e-10
1.46038e-10
1.46038e-10
1.46038e-10
1.46038e-10
1.46038e-10
1.46038e-10
1.46038e-10
1.46038e-10
1.46038e-10
1.46038e-10
1.46038e-10
1.46038e-10
1.46038e-10
1.46039e-10
1.46039e-10
1.46039e-10
1.46039e-10
1.46039e-10
1.46039e-10
1.46039e-10
1.46039e-10
1.46039e-10
1.46039e-10
1.4604e-10
1.4604e-10
1.4604e-10
1.4604e-10
1.4604e-10
1.4604e-10
1.46041e-10
1.46041e-10
1.46041e-10
1.46041e-10
1.46041e-10
1.46042e-10
1.46042e-10
1.46042e-10
1.46043e-10
1.46043e-10
1.46044e-10
1.46044e-10
1.46045e-10
1.46045e-10
1.46046e-10
1.46047e-10
1.46048e-10
1.46049e-10
1.4605e-10
1.46051e-10
1.46052e-10
1.46053e-10
1.46055e-10
1.46056e-10
1.46058e-10
1.4606e-10
1.46063e-10
1.46065e-10
1.46068e-10
1.46072e-10
1.46075e-10
1.46079e-10
1.46084e-10
1.46089e-10
1.46095e-10
1.46101e-10
1.46109e-10
1.46117e-10
1.46127e-10
1.46137e-10
1.46149e-10
1.46162e-10
1.46177e-10
1.46194e-10
1.46213e-10
1.46235e-10
1.4626e-10
1.4629e-10
1.46323e-10
1.4636e-10
1.46401e-10
1.46447e-10
1.46498e-10
1.46555e-10
1.46621e-10
1.46698e-10
1.46789e-10
1.46895e-10
1.47017e-10
1.47156e-10
1.4731e-10
1.4748e-10
1.47667e-10
1.47873e-10
1.48108e-10
1.48383e-10
1.48712e-10
1.49103e-10
1.4956e-10
1.50084e-10
1.50671e-10
1.51317e-10
1.52021e-10
1.52781e-10
1.53615e-10
1.54575e-10
1.55735e-10
1.5715e-10
1.58831e-10
1.6076e-10
1.62904e-10
1.46039e-10
1.46039e-10
1.46039e-10
1.46039e-10
1.46039e-10
1.46039e-10
1.46039e-10
1.46039e-10
1.46039e-10
1.4604e-10
1.4604e-10
1.4604e-10
1.4604e-10
1.4604e-10
1.46041e-10
1.46041e-10
1.46041e-10
1.46041e-10
1.46042e-10
1.46042e-10
1.46042e-10
1.46042e-10
1.46043e-10
1.46043e-10
1.46044e-10
1.46044e-10
1.46045e-10
1.46045e-10
1.46046e-10
1.46046e-10
1.46047e-10
1.46048e-10
1.46048e-10
1.46049e-10
1.4605e-10
1.46051e-10
1.46052e-10
1.46053e-10
1.46055e-10
1.46056e-10
1.46057e-10
1.46059e-10
1.46061e-10
1.46063e-10
1.46065e-10
1.46067e-10
1.4607e-10
1.46073e-10
1.46076e-10
1.46079e-10
1.46083e-10
1.46087e-10
1.46092e-10
1.46097e-10
1.46102e-10
1.46108e-10
1.46116e-10
1.46124e-10
1.46132e-10
1.46143e-10
1.46154e-10
1.46166e-10
1.4618e-10
1.46195e-10
1.46212e-10
1.46231e-10
1.46252e-10
1.46277e-10
1.46305e-10
1.46337e-10
1.46373e-10
1.46414e-10
1.4646e-10
1.4651e-10
1.46566e-10
1.46629e-10
1.46698e-10
1.46778e-10
1.46871e-10
1.4698e-10
1.47105e-10
1.47249e-10
1.47411e-10
1.47592e-10
1.47793e-10
1.48013e-10
1.48256e-10
1.48531e-10
1.48849e-10
1.49224e-10
1.49666e-10
1.5018e-10
1.50767e-10
1.51426e-10
1.52154e-10
1.52947e-10
1.53808e-10
1.54749e-10
1.55816e-10
1.57083e-10
1.58605e-10
1.60405e-10
1.62471e-10
1.64777e-10
1.67292e-10
1.69979e-10
1.72812e-10
1.75781e-10
1.7894e-10
1.82509e-10
1.86813e-10
1.91922e-10
1.97718e-10
2.04012e-10
2.10616e-10
2.17367e-10
1.4604e-10
1.4604e-10
1.4604e-10
1.4604e-10
1.46041e-10
1.46041e-10
1.46041e-10
1.46041e-10
1.46042e-10
1.46042e-10
1.46043e-10
1.46043e-10
1.46044e-10
1.46044e-10
1.46045e-10
1.46045e-10
1.46046e-10
1.46046e-10
1.46047e-10
1.46048e-10
1.46049e-10
1.4605e-10
1.46051e-10
1.46052e-10
1.46053e-10
1.46054e-10
1.46055e-10
1.46057e-10
1.46058e-10
1.4606e-10
1.46062e-10
1.46063e-10
1.46065e-10
1.46067e-10
1.4607e-10
1.46072e-10
1.46075e-10
1.46078e-10
1.46081e-10
1.46084e-10
1.46088e-10
1.46092e-10
1.46096e-10
1.46101e-10
1.46106e-10
1.46111e-10
1.46117e-10
1.46123e-10
1.4613e-10
1.46138e-10
1.46147e-10
1.46156e-10
1.46167e-10
1.46179e-10
1.46192e-10
1.46206e-10
1.46221e-10
1.46238e-10
1.46257e-10
1.46278e-10
1.463e-10
1.46326e-10
1.46354e-10
1.46387e-10
1.46424e-10
1.46465e-10
1.46511e-10
1.46563e-10
1.4662e-10
1.46683e-10
1.46753e-10
1.4683e-10
1.46916e-10
1.47015e-10
1.47129e-10
1.4726e-10
1.4741e-10
1.47581e-10
1.47773e-10
1.47986e-10
1.48221e-10
1.4848e-10
1.48765e-10
1.49086e-10
1.49456e-10
1.49887e-10
1.5039e-10
1.5097e-10
1.51629e-10
1.52367e-10
1.53182e-10
1.54072e-10
1.55038e-10
1.56094e-10
1.5728e-10
1.58667e-10
1.60309e-10
1.62229e-10
1.64421e-10
1.66865e-10
1.6953e-10
1.72384e-10
1.754e-10
1.78566e-10
1.81923e-10
1.85648e-10
1.90042e-10
1.9519e-10
2.01005e-10
2.07332e-10
2.14007e-10
2.20884e-10
2.27842e-10
2.34797e-10
2.4172e-10
2.48687e-10
2.56292e-10
2.65867e-10
2.7676e-10
2.88114e-10
2.99316e-10
3.09991e-10
3.19925e-10
1.46046e-10
1.46047e-10
1.46048e-10
1.46049e-10
1.4605e-10
1.46051e-10
1.46052e-10
1.46054e-10
1.46055e-10
1.46057e-10
1.46058e-10
1.4606e-10
1.46062e-10
1.46064e-10
1.46067e-10
1.46069e-10
1.46072e-10
1.46075e-10
1.46078e-10
1.46081e-10
1.46085e-10
1.46088e-10
1.46092e-10
1.46097e-10
1.46101e-10
1.46107e-10
1.46112e-10
1.46118e-10
1.46124e-10
1.46131e-10
1.46138e-10
1.46145e-10
1.46153e-10
1.46162e-10
1.46172e-10
1.46182e-10
1.46193e-10
1.46206e-10
1.46219e-10
1.46234e-10
1.46249e-10
1.46267e-10
1.46285e-10
1.46305e-10
1.46327e-10
1.4635e-10
1.46375e-10
1.46403e-10
1.46434e-10
1.46467e-10
1.46505e-10
1.46547e-10
1.46593e-10
1.46645e-10
1.46702e-10
1.46764e-10
1.46832e-10
1.46907e-10
1.46988e-10
1.47078e-10
1.47178e-10
1.47291e-10
1.47418e-10
1.47564e-10
1.47729e-10
1.47915e-10
1.48123e-10
1.48353e-10
1.48607e-10
1.48886e-10
1.49191e-10
1.49529e-10
1.4991e-10
1.50347e-10
1.50851e-10
1.51431e-10
1.52092e-10
1.52835e-10
1.53662e-10
1.54572e-10
1.55564e-10
1.56641e-10
1.57817e-10
1.59134e-10
1.60658e-10
1.62437e-10
1.64494e-10
1.66823e-10
1.69405e-10
1.72214e-10
1.75224e-10
1.78409e-10
1.81754e-10
1.85295e-10
1.89184e-10
1.93683e-10
1.98874e-10
2.04683e-10
2.10976e-10
2.17614e-10
2.24465e-10
2.31422e-10
2.38397e-10
2.45355e-10
2.52352e-10
2.5981e-10
2.68975e-10
2.79353e-10
2.90219e-10
3.01028e-10
3.11437e-10
3.21235e-10
3.30303e-10
3.3862e-10
3.46193e-10
3.53028e-10
3.59145e-10
3.64458e-10
3.69114e-10
3.73254e-10
3.76959e-10
3.80252e-10
3.83123e-10
1.46072e-10
1.46075e-10
1.46079e-10
1.46083e-10
1.46088e-10
1.46092e-10
1.46098e-10
1.46103e-10
1.46109e-10
1.46116e-10
1.46123e-10
1.46131e-10
1.46139e-10
1.46148e-10
1.46157e-10
1.46167e-10
1.46178e-10
1.4619e-10
1.46202e-10
1.46215e-10
1.4623e-10
1.46245e-10
1.46262e-10
1.4628e-10
1.46299e-10
1.4632e-10
1.46343e-10
1.46367e-10
1.46393e-10
1.4642e-10
1.46449e-10
1.46481e-10
1.46514e-10
1.4655e-10
1.4659e-10
1.46633e-10
1.4668e-10
1.46731e-10
1.46787e-10
1.46848e-10
1.46914e-10
1.46985e-10
1.47063e-10
1.47146e-10
1.47236e-10
1.47333e-10
1.47438e-10
1.47554e-10
1.47683e-10
1.47827e-10
1.47987e-10
1.48166e-10
1.48365e-10
1.48585e-10
1.48826e-10
1.49091e-10
1.49379e-10
1.49692e-10
1.50033e-10
1.50407e-10
1.50826e-10
1.51299e-10
1.51838e-10
1.52449e-10
1.53137e-10
1.53906e-10
1.54758e-10
1.55693e-10
1.56713e-10
1.57819e-10
1.59017e-10
1.60331e-10
1.61811e-10
1.63511e-10
1.65466e-10
1.67686e-10
1.70164e-10
1.72883e-10
1.75822e-10
1.7896e-10
1.82277e-10
1.85764e-10
1.89458e-10
1.93506e-10
1.98123e-10
2.03364e-10
2.09163e-10
2.15403e-10
2.21965e-10
2.28739e-10
2.35633e-10
2.42569e-10
2.49504e-10
2.56481e-10
2.63845e-10
2.72675e-10
2.82568e-10
2.92913e-10
3.03233e-10
3.13221e-10
3.22688e-10
3.31519e-10
3.39672e-10
3.4715e-10
3.53953e-10
3.6011e-10
3.65529e-10
3.70311e-10
3.74583e-10
3.78445e-10
3.81941e-10
3.85068e-10
3.87821e-10
3.90232e-10
3.92332e-10
3.94151e-10
3.95703e-10
3.97045e-10
3.98277e-10
3.99474e-10
4.00717e-10
4.0206e-10
4.03479e-10
1.46176e-10
1.4619e-10
1.46205e-10
1.46222e-10
1.4624e-10
1.46259e-10
1.4628e-10
1.46302e-10
1.46327e-10
1.46353e-10
1.46381e-10
1.46412e-10
1.46445e-10
1.4648e-10
1.46518e-10
1.46559e-10
1.46602e-10
1.46648e-10
1.46698e-10
1.46751e-10
1.46809e-10
1.46871e-10
1.46938e-10
1.4701e-10
1.47088e-10
1.47172e-10
1.47261e-10
1.47357e-10
1.47459e-10
1.47568e-10
1.47684e-10
1.47808e-10
1.47941e-10
1.48087e-10
1.48245e-10
1.48418e-10
1.48608e-10
1.48816e-10
1.49042e-10
1.49288e-10
1.49555e-10
1.49842e-10
1.50152e-10
1.50484e-10
1.5084e-10
1.51223e-10
1.51641e-10
1.52101e-10
1.52613e-10
1.53183e-10
1.53819e-10
1.54523e-10
1.553e-10
1.56151e-10
1.57079e-10
1.58085e-10
1.59169e-10
1.60334e-10
1.6159e-10
1.62959e-10
1.64487e-10
1.66217e-10
1.68174e-10
1.70366e-10
1.72791e-10
1.75439e-10
1.78296e-10
1.81349e-10
1.84583e-10
1.87985e-10
1.91565e-10
1.95388e-10
1.9963e-10
2.04408e-10
2.09713e-10
2.15473e-10
2.21596e-10
2.27993e-10
2.3458e-10
2.41288e-10
2.48055e-10
2.5485e-10
2.61712e-10
2.69031e-10
2.77585e-10
2.87011e-10
2.96816e-10
3.06603e-10
3.16111e-10
3.2518e-10
3.33712e-10
3.41658e-10
3.49011e-10
3.55758e-10
3.61914e-10
3.67406e-10
3.72322e-10
3.76739e-10
3.80741e-10
3.8439e-10
3.87712e-10
3.90714e-10
3.93401e-10
3.95785e-10
3.97913e-10
3.9982e-10
4.01522e-10
4.03088e-10
4.04625e-10
4.06197e-10
4.07842e-10
4.09604e-10
4.11441e-10
4.13305e-10
4.15174e-10
4.1705e-10
4.18897e-10
4.207e-10
4.22467e-10
4.24248e-10
4.26116e-10
4.28097e-10
4.30196e-10
4.32426e-10
4.34777e-10
1.46589e-10
1.46644e-10
1.46703e-10
1.46768e-10
1.46838e-10
1.46913e-10
1.46995e-10
1.47083e-10
1.47178e-10
1.47281e-10
1.47392e-10
1.47511e-10
1.47639e-10
1.47775e-10
1.4792e-10
1.48075e-10
1.4824e-10
1.48417e-10
1.48608e-10
1.48814e-10
1.49036e-10
1.49276e-10
1.49535e-10
1.49814e-10
1.50113e-10
1.50434e-10
1.50776e-10
1.5114e-10
1.51527e-10
1.51936e-10
1.52371e-10
1.52835e-10
1.53336e-10
1.5388e-10
1.54473e-10
1.5512e-10
1.55825e-10
1.5659e-10
1.57419e-10
1.58312e-10
1.59271e-10
1.60296e-10
1.61389e-10
1.62549e-10
1.6378e-10
1.65093e-10
1.66517e-10
1.68086e-10
1.69827e-10
1.71755e-10
1.73875e-10
1.76186e-10
1.78684e-10
1.81362e-10
1.84211e-10
1.87221e-10
1.90384e-10
1.93693e-10
1.97165e-10
2.00872e-10
2.04957e-10
2.09484e-10
2.14436e-10
2.19764e-10
2.25408e-10
2.31309e-10
2.37411e-10
2.43663e-10
2.50016e-10
2.56431e-10
2.62908e-10
2.69536e-10
2.76969e-10
2.85341e-10
2.94273e-10
3.03404e-10
3.12471e-10
3.21298e-10
3.29773e-10
3.37818e-10
3.45396e-10
3.52494e-10
3.59087e-10
3.65149e-10
3.70623e-10
3.75607e-10
3.80167e-10
3.84348e-10
3.882e-10
3.91758e-10
3.95037e-10
3.9805e-10
4.00792e-10
4.03282e-10
4.05577e-10
4.07715e-10
4.09724e-10
4.11673e-10
4.13652e-10
4.15701e-10
4.17846e-10
4.20104e-10
4.22433e-10
4.24793e-10
4.2718e-10
4.29574e-10
4.31971e-10
4.34371e-10
4.36792e-10
4.39287e-10
4.41928e-10
4.4476e-10
4.47748e-10
4.50887e-10
4.54193e-10
4.57659e-10
4.61229e-10
4.64894e-10
4.6866e-10
4.72523e-10
4.76525e-10
4.80702e-10
4.85076e-10
4.89677e-10
4.94503e-10
1.48174e-10
1.48382e-10
1.48606e-10
1.48848e-10
1.49109e-10
1.49392e-10
1.49698e-10
1.50028e-10
1.50385e-10
1.50769e-10
1.5118e-10
1.5162e-10
1.52089e-10
1.52586e-10
1.53114e-10
1.53672e-10
1.54267e-10
1.54902e-10
1.55583e-10
1.56316e-10
1.57102e-10
1.57946e-10
1.58848e-10
1.59811e-10
1.60834e-10
1.61919e-10
1.63065e-10
1.64271e-10
1.65536e-10
1.66861e-10
1.68253e-10
1.69731e-10
1.7132e-10
1.73042e-10
1.74906e-10
1.7692e-10
1.79084e-10
1.81396e-10
1.83853e-10
1.86449e-10
1.89176e-10
1.92028e-10
1.94997e-10
1.98075e-10
2.01264e-10
2.04596e-10
2.08159e-10
2.12033e-10
2.16234e-10
2.20741e-10
2.25526e-10
2.30558e-10
2.35804e-10
2.41231e-10
2.46806e-10
2.52496e-10
2.58271e-10
2.64107e-10
2.70019e-10
2.76128e-10
2.83024e-10
2.90606e-10
2.98601e-10
3.06779e-10
3.14965e-10
3.23033e-10