/*--------------------------------*- C++ -*----------------------------------*\
| =========                 |                                                 |
| \\      /  F ield         | OpenFOAM: The Open Source CFD Toolbox           |
|  \\    /   O peration     | Version:  v1706                                 |
|   \\  /    A nd           | Web:      www.OpenFOAM.com                      |
|    \\/     M anipulation  |                                                 |
\*---------------------------------------------------------------------------*/
FoamFile
{
    version     2.0;
    format      ascii;
    class       volScalarField;
    location    "3.1e-05";
    object      p;
}
// * * * * * * * * * * * * * * * * * * * * * * * * * * * * * * * * * * * * * //

dimensions      [1 -1 -2 0 0 0 0];


internalField   nonuniform List<scalar> 
29871
(
21.9139
21.9139
21.9139
21.9139
21.9139
21.9139
21.9139
21.9139
21.9139
21.9139
21.9139
21.9139
21.9139
21.9139
21.9139
21.9139
21.9139
21.9139
21.9139
21.9139
21.9139
21.9139
21.9139
21.9139
21.9139
21.9139
21.9139
21.9139
21.9139
21.9139
21.9139
21.9139
21.9139
21.9139
21.9139
21.9139
21.9139
21.9139
21.9139
21.9139
21.9139
21.9139
21.9139
21.9139
21.9139
21.9139
21.9139
21.9139
21.9139
21.9139
21.9139
21.9139
21.9139
21.9139
21.9139
21.9139
21.9139
21.9139
21.9139
21.9139
21.9139
21.9139
21.9139
21.9139
21.9139
21.9139
21.9139
21.9139
21.9139
21.9139
21.9139
21.9139
21.9139
21.9139
21.9139
21.9139
21.9139
21.9139
21.9139
21.9139
21.9139
21.9139
21.9139
21.9139
21.9139
21.9139
21.9139
21.9139
21.9139
21.9139
21.9139
21.9139
21.9139
21.9139
21.9139
21.9139
21.9139
21.9139
21.9139
21.9139
21.9139
21.9139
21.9139
21.9139
21.9139
21.9139
21.9139
21.9139
21.9139
21.9139
21.9139
21.9139
21.9139
21.9139
21.9139
21.9139
21.9139
21.9139
21.9139
21.9139
21.9139
21.9139
21.9139
21.9139
21.9139
21.9139
21.9139
21.9139
21.9139
21.9139
21.9139
21.9139
21.9139
21.9139
21.9139
21.9139
21.9139
21.9139
21.9139
21.9139
21.9139
21.9139
21.9139
21.9139
21.9139
21.9139
21.9139
21.9139
21.9139
21.9139
21.9139
21.9139
21.9139
21.9139
21.9139
21.9139
21.9139
21.9139
21.9139
21.9139
21.9139
21.9139
21.9139
21.9139
21.9139
21.9139
21.9139
21.9139
21.9139
21.9139
21.9139
21.9139
21.9139
21.9139
21.9139
21.9139
21.9139
21.9139
21.9139
21.9139
21.9139
21.9139
21.9139
21.9139
21.9139
21.9139
21.9139
21.9139
21.9139
21.9139
21.9139
21.9139
21.9139
21.9139
21.9139
21.9139
21.9139
21.9139
21.9139
21.9139
21.9139
21.9139
21.9139
21.9139
21.9139
21.9139
21.9139
21.9139
21.9139
21.9139
21.9139
21.9139
21.9139
21.9139
21.9139
21.9139
21.9139
21.9139
21.9139
21.9139
21.9139
21.9139
21.9139
21.9139
21.9139
21.9139
21.9139
21.9139
21.9139
21.9139
21.9139
21.9139
21.9139
21.9139
21.9139
21.9139
21.9139
21.9139
21.9139
21.9139
21.9139
21.9139
21.9139
21.9139
21.9139
21.9139
21.9139
21.9139
21.9139
21.9139
21.9139
21.9139
21.9139
21.9139
21.9139
21.9139
21.9139
21.9139
21.9139
21.9139
21.9139
21.9139
21.9139
21.9139
21.9139
21.9139
21.9139
21.9139
21.9139
21.9139
21.9139
21.9139
21.9139
21.9139
21.9139
21.9139
21.9139
21.9139
21.9139
21.9139
21.9139
21.9139
21.9139
21.9139
21.9139
21.9139
21.9139
21.9139
21.9139
21.9139
21.9139
21.9139
21.9139
21.9139
21.9139
21.9139
21.9139
21.9139
21.9139
21.9139
21.9139
21.9139
21.9139
21.9139
21.9139
21.9139
21.9139
21.9139
21.9139
21.9139
21.9139
21.9139
21.9139
21.9139
21.9139
21.9139
21.9139
21.9139
21.9139
21.9139
21.9139
21.9139
21.9139
21.9139
21.9139
21.9139
21.9139
21.9139
21.9139
21.9139
21.9139
21.9139
21.9139
21.9139
21.9139
21.9139
21.9139
21.9139
21.9139
21.9139
21.9139
21.9139
21.9139
21.9139
21.9139
21.9139
21.9139
21.9139
21.9139
21.9139
21.9139
21.9139
21.9139
21.9139
21.9139
21.9139
21.9139
21.9139
21.9139
21.9139
21.9139
21.9139
21.9139
21.9139
21.9139
21.9139
21.9139
21.9139
21.9139
21.9139
21.9139
21.9139
21.9139
21.9139
21.9139
21.9139
21.9139
21.9139
21.9139
21.9139
21.9139
21.9139
21.9139
21.9139
21.9139
21.9139
21.9139
21.9139
21.9139
21.9139
21.9139
21.9139
21.9139
21.9139
21.9139
21.9139
21.9139
21.9139
21.9139
21.9139
21.9139
21.9139
21.9139
21.9139
21.9139
21.9139
21.9139
21.9139
21.9139
21.9139
21.9139
21.9139
21.9139
21.9139
21.9139
21.9139
21.9139
21.9139
21.9139
21.9139
21.9139
21.9139
21.9139
21.9139
21.9139
21.9139
21.9139
21.9139
21.9139
21.9139
21.9139
21.9139
21.9139
21.9139
21.9139
21.9139
21.9139
21.9139
21.9139
21.9139
21.9139
21.9139
21.9139
21.9139
21.9139
21.9139
21.9139
21.9139
21.9139
21.9139
21.9139
21.9139
21.9139
21.9139
21.9139
21.9139
21.9139
21.9139
21.9139
21.9139
21.9139
21.9139
21.9139
21.9139
21.9139
21.9139
21.9139
21.9139
21.9139
21.9139
21.9139
21.9139
21.9139
21.9139
21.9139
21.9139
21.9139
21.9139
21.9139
21.9139
21.9139
21.9139
21.9139
21.9139
21.9139
21.9139
21.9139
21.9139
21.9139
21.9139
21.9139
21.9139
21.9139
21.9139
21.9139
21.9139
21.9139
21.9139
21.9139
21.9139
21.9139
21.9139
21.9139
21.9139
21.9139
21.9139
21.9139
21.9139
21.9139
21.9139
21.9139
21.9139
21.9139
21.9139
21.9139
21.9139
21.9139
21.9139
21.9139
21.9139
21.9139
21.9139
21.9139
21.9139
21.9139
21.9139
21.9139
21.9139
21.9139
21.9139
21.9139
21.9139
21.9139
21.9139
21.9139
21.9139
21.9139
21.9139
21.9139
21.9139
21.9139
21.9139
21.9139
21.9139
21.9139
21.9139
21.9139
21.9139
21.9139
21.9139
21.9139
21.9139
21.9139
21.9139
21.9139
21.9139
21.9139
21.9139
21.9139
21.9139
21.9139
21.9139
21.9139
21.9139
21.9139
21.9139
21.9139
21.9139
21.9139
21.9139
21.9139
21.9139
21.9139
21.9139
21.9139
21.9139
21.9139
21.9139
21.9139
21.9139
21.9139
21.9139
21.9139
21.9139
21.9139
21.9139
21.9139
21.9139
21.9139
21.9139
21.9139
21.9139
21.9139
21.9139
21.9139
21.9139
21.9139
21.9139
21.9139
21.9139
21.9139
21.9139
21.9139
21.9139
21.9139
21.9139
21.9139
21.9139
21.9139
21.9139
21.9139
21.9139
21.9139
21.9139
21.9139
21.9139
21.9139
21.9139
21.9139
21.9139
21.9139
21.9139
21.9139
21.9139
21.9139
21.9139
21.9139
21.9139
21.9139
21.9139
21.9139
21.9139
21.9139
21.9139
21.9139
21.9139
21.9139
21.9139
21.9139
21.9139
21.9139
21.9139
21.9139
21.9139
21.9139
21.9139
21.9139
21.9139
21.9139
21.9139
21.9139
21.9139
21.9139
21.9139
21.9139
21.9139
21.9139
21.9139
21.9139
21.9139
21.9139
21.9139
21.9139
21.9139
21.9139
21.9139
21.9139
21.9139
21.9139
21.9139
21.9139
21.9139
21.9139
21.9139
21.9139
21.9139
21.9139
21.9139
21.9139
21.9139
21.9139
21.9139
21.9139
21.9139
21.9139
21.9139
21.9139
21.9139
21.9139
21.9139
21.9139
21.9139
21.9139
21.9139
21.9139
21.9139
21.9139
21.9139
21.9139
21.9139
21.9139
21.9139
21.9139
21.9139
21.9139
21.9139
21.9139
21.9139
21.9139
21.9139
21.9139
21.9139
21.9139
21.9139
21.9139
21.9139
21.9139
21.9139
21.9139
21.9139
21.9139
21.9139
21.9139
21.9139
21.9139
21.9139
21.9139
21.9139
21.9139
21.9139
21.9139
21.9139
21.9139
21.9139
21.9139
21.9139
21.9139
21.9139
21.9139
21.9139
21.9139
21.9139
21.9139
21.9139
21.9139
21.9139
21.9139
21.9139
21.9139
21.9139
21.9139
21.9139
21.9139
21.9139
21.9139
21.9139
21.9139
21.9139
21.9139
21.9139
21.9139
21.9139
21.9139
21.9139
21.9139
21.9139
21.9139
21.9139
21.9139
21.9139
21.9139
21.9139
21.9139
21.9139
21.9139
21.9139
21.9139
21.9139
21.9139
21.9139
21.9139
21.9139
21.9139
21.9139
21.9139
21.9139
21.9139
21.9139
21.9139
21.9139
21.9139
21.9139
21.9139
21.9139
21.9139
21.9139
21.9139
21.9139
21.9139
21.9139
21.9139
21.9139
21.9139
21.9139
21.9139
21.9139
21.9139
21.9139
21.9139
21.9139
21.9139
21.9139
21.9139
21.9139
21.9139
21.9139
21.9139
21.9139
21.9139
21.9139
21.9139
21.9139
21.9139
21.9139
21.9139
21.9139
21.9139
21.9139
21.9139
21.9139
21.9139
21.9139
21.9139
21.9139
21.9139
21.9139
21.9139
21.9139
21.9139
21.9139
21.9139
21.9139
21.9139
21.9139
21.9139
21.9139
21.9139
21.9139
21.9139
21.9139
21.9139
21.9139
21.9139
21.9139
21.9139
21.9139
21.9139
21.9139
21.9139
21.9139
21.9139
21.9139
21.9139
21.9139
21.9139
21.9139
21.9139
21.9139
21.9139
21.9139
21.9139
21.9139
21.9139
21.9139
21.9139
21.9139
21.9139
21.9139
21.9139
21.9139
21.9139
21.9139
21.9139
21.9139
21.9139
21.9139
21.9139
21.9139
21.9139
21.9139
21.9139
21.9139
21.9139
21.9139
21.9139
21.9139
21.9139
21.9139
21.9139
21.9139
21.9139
21.9139
21.9139
21.9139
21.9139
21.9139
21.9139
21.9139
21.9139
21.9139
21.9139
21.9139
21.9139
21.9139
21.9139
21.9139
21.9139
21.9139
21.9139
21.9139
21.9139
21.9139
21.9139
21.9139
21.9139
21.9139
21.9139
21.9139
21.9139
21.9139
21.9139
21.9139
21.9139
21.9139
21.9139
21.9139
21.9139
21.9139
21.9139
21.9139
21.9139
21.9139
21.9139
21.9139
21.9139
21.9139
21.9139
21.9139
21.9139
21.9139
21.9139
21.9139
21.9139
21.9139
21.9139
21.9139
21.9139
21.9139
21.914
21.914
21.914
21.914
21.914
21.914
21.914
21.914
21.9139
21.9139
21.9139
21.9139
21.9139
21.9139
21.9139
21.9139
21.9139
21.9139
21.9139
21.9139
21.9139
21.9139
21.9139
21.9139
21.9139
21.9139
21.9139
21.9139
21.9139
21.9139
21.9139
21.9139
21.9139
21.9139
21.9139
21.9139
21.9139
21.9139
21.9139
21.9139
21.9139
21.9139
21.9139
21.9139
21.9139
21.9139
21.9139
21.9139
21.9139
21.9139
21.9139
21.9139
21.9139
21.9139
21.9139
21.9139
21.9139
21.9139
21.9139
21.9139
21.9139
21.9139
21.9139
21.9139
21.9139
21.9139
21.9139
21.9139
21.9139
21.9139
21.9139
21.9139
21.9139
21.9139
21.9139
21.9139
21.9139
21.9139
21.9139
21.9139
21.9139
21.9139
21.9139
21.9139
21.9139
21.9139
21.9139
21.9139
21.9139
21.9139
21.9139
21.9139
21.9139
21.9139
21.9139
21.9139
21.914
21.914
21.914
21.914
21.914
21.914
21.914
21.914
21.914
21.9141
21.9141
21.9141
21.9141
21.9142
21.9142
21.9142
21.9143
21.9143
21.9144
21.9145
21.9145
21.9146
21.9139
21.9139
21.9139
21.9139
21.9139
21.9139
21.9139
21.9139
21.9139
21.9139
21.9139
21.9139
21.9139
21.9139
21.9139
21.9139
21.9139
21.9139
21.9139
21.9139
21.9139
21.9139
21.9139
21.9139
21.9139
21.9139
21.9139
21.9139
21.9139
21.9139
21.9139
21.9139
21.9139
21.9139
21.9139
21.9139
21.9139
21.9139
21.9139
21.9139
21.9139
21.9139
21.9139
21.9139
21.9139
21.9139
21.9139
21.9139
21.9139
21.9139
21.9139
21.9139
21.9139
21.9139
21.9139
21.9139
21.9139
21.9139
21.9139
21.9139
21.9139
21.9139
21.9139
21.9139
21.9139
21.9139
21.9139
21.9139
21.9139
21.9139
21.9139
21.9139
21.9139
21.914
21.914
21.914
21.914
21.914
21.914
21.914
21.914
21.914
21.914
21.9141
21.9141
21.9141
21.9141
21.9142
21.9142
21.9142
21.9143
21.9143
21.9144
21.9145
21.9145
21.9146
21.9147
21.9148
21.9149
21.9151
21.9152
21.9154
21.9156
21.9158
21.9161
21.9163
21.9167
21.917
21.9175
21.918
21.9139
21.9139
21.9139
21.9139
21.9139
21.9139
21.9139
21.9139
21.9139
21.9139
21.9139
21.9139
21.9139
21.9139
21.9139
21.9139
21.9139
21.9139
21.9139
21.9139
21.9139
21.9139
21.9139
21.9139
21.9139
21.9139
21.9139
21.9139
21.9139
21.9139
21.9139
21.9139
21.9139
21.9139
21.9139
21.9139
21.9139
21.9139
21.9139
21.9139
21.9139
21.9139
21.9139
21.9139
21.9139
21.9139
21.9139
21.9139
21.9139
21.9139
21.9139
21.9139
21.9139
21.9139
21.9139
21.9139
21.9139
21.914
21.914
21.914
21.914
21.914
21.914
21.914
21.914
21.914
21.914
21.914
21.914
21.9141
21.9141
21.9141
21.9141
21.9142
21.9142
21.9142
21.9142
21.9143
21.9143
21.9144
21.9145
21.9145
21.9146
21.9147
21.9148
21.9149
21.915
21.9152
21.9153
21.9155
21.9157
21.9159
21.9162
21.9165
21.9168
21.9172
21.9176
21.9181
21.9187
21.9193
21.9201
21.921
21.922
21.9232
21.9244
21.9258
21.9274
21.9292
21.9312
21.9336
21.9364
21.9139
21.9139
21.9139
21.9139
21.9139
21.9139
21.9139
21.9139
21.9139
21.9139
21.9139
21.9139
21.9139
21.9139
21.9139
21.9139
21.9139
21.9139
21.9139
21.9139
21.9139
21.9139
21.9139
21.9139
21.9139
21.9139
21.9139
21.9139
21.9139
21.9139
21.9139
21.9139
21.9139
21.9139
21.9139
21.9139
21.9139
21.9139
21.914
21.914
21.914
21.914
21.914
21.914
21.914
21.914
21.914
21.914
21.914
21.914
21.914
21.914
21.9141
21.9141
21.9141
21.9141
21.9141
21.9141
21.9142
21.9142
21.9142
21.9143
21.9143
21.9143
21.9144
21.9144
21.9145
21.9146
21.9146
21.9147
21.9148
21.9149
21.915
21.9152
21.9153
21.9155
21.9157
21.9159
21.9161
21.9164
21.9167
21.9171
21.9175
21.9179
21.9184
21.919
21.9196
21.9203
21.9212
21.9221
21.9233
21.9246
21.926
21.9276
21.9294
21.9314
21.9337
21.9363
21.9393
21.9428
21.9468
21.9515
21.9569
21.9629
21.9695
21.9769
21.9852
21.9946
22.0057
22.019
22.0351
22.0539
22.0756
21.9139
21.9139
21.9139
21.9139
21.9139
21.9139
21.9139
21.9139
21.9139
21.9139
21.9139
21.9139
21.9139
21.9139
21.9139
21.9139
21.9139
21.914
21.914
21.914
21.914
21.914
21.914
21.914
21.914
21.914
21.914
21.914
21.914
21.914
21.914
21.914
21.9141
21.9141
21.9141
21.9141
21.9141
21.9141
21.9141
21.9142
21.9142
21.9142
21.9142
21.9143
21.9143
21.9143
21.9144
21.9144
21.9144
21.9145
21.9145
21.9146
21.9146
21.9147
21.9148
21.9149
21.915
21.9151
21.9152
21.9153
21.9155
21.9157
21.9159
21.9161
21.9163
21.9165
21.9168
21.9172
21.9175
21.918
21.9184
21.9189
21.9195
21.9202
21.9209
21.9217
21.9227
21.9237
21.925
21.9264
21.9281
21.9299
21.932
21.9343
21.9368
21.9397
21.9429
21.9466
21.951
21.956
21.9617
21.9682
21.9756
21.9837
21.9928
22.0029
22.0144
22.0278
22.0436
22.0626
22.0848
22.1105
22.1397
22.1721
22.2077
22.2466
22.2898
22.3391
22.3975
22.4677
22.5513
22.649
22.7609
21.9139
21.914
21.914
21.914
21.914
21.914
21.914
21.914
21.914
21.914
21.914
21.914
21.914
21.914
21.9141
21.9141
21.9141
21.9141
21.9141
21.9141
21.9141
21.9142
21.9142
21.9142
21.9142
21.9143
21.9143
21.9143
21.9143
21.9144
21.9144
21.9145
21.9145
21.9145
21.9146
21.9146
21.9147
21.9148
21.9148
21.9149
21.915
21.9151
21.9152
21.9153
21.9154
21.9155
21.9156
21.9158
21.916
21.9162
21.9164
21.9166
21.9168
21.9171
21.9174
21.9177
21.9181
21.9185
21.919
21.9195
21.9201
21.9207
21.9214
21.9222
21.923
21.924
21.9251
21.9264
21.9278
21.9294
21.9313
21.9334
21.9358
21.9384
21.9413
21.9445
21.9481
21.9522
21.9569
21.9622
21.9684
21.9754
21.9834
21.9924
22.0024
22.0135
22.0258
22.0398
22.0558
22.0747
22.0971
22.1232
22.1533
22.1875
22.2257
22.2677
22.3139
22.3649
22.4226
22.4902
22.5704
22.6652
22.7759
22.9031
23.0468
23.2065
23.3819
23.5733
23.7842
24.0282
24.3268
24.6956
25.1394
25.6552
26.2359
21.9141
21.9141
21.9141
21.9142
21.9142
21.9142
21.9143
21.9143
21.9143
21.9144
21.9144
21.9144
21.9145
21.9145
21.9146
21.9146
21.9147
21.9148
21.9148
21.9149
21.915
21.9151
21.9152
21.9153
21.9154
21.9155
21.9156
21.9157
21.9158
21.916
21.9162
21.9163
21.9165
21.9167
21.917
21.9172
21.9175
21.9177
21.9181
21.9184
21.9187
21.9191
21.9196
21.92
21.9205
21.9211
21.9217
21.9224
21.9232
21.924
21.9249
21.9259
21.927
21.9283
21.9296
21.9311
21.9329
21.9348
21.937
21.9395
21.9423
21.9454
21.9488
21.9525
21.9567
21.9613
21.9665
21.9724
21.9792
21.9869
21.9956
22.0054
22.0164
22.0287
22.0422
22.0573
22.0743
22.0937
22.1164
22.1429
22.1738
22.2092
22.2493
22.2941
22.3436
22.398
22.458
22.5256
22.6038
22.6956
22.803
22.9277
23.0706
23.232
23.4118
23.6099
23.8267
24.0654
24.3377
24.6647
25.0635
25.5415
26.0981
26.7282
27.4254
28.1829
28.9956
29.8624
30.8016
31.8749
33.1706
34.7245
36.5392
38.6023
40.8912
43.3783
21.9144
21.9144
21.9145
21.9145
21.9146
21.9146
21.9147
21.9148
21.9149
21.915
21.9151
21.9152
21.9153
21.9154
21.9156
21.9157
21.9159
21.916
21.9162
21.9164
21.9166
21.9168
21.917
21.9173
21.9176
21.9179
21.9182
21.9185
21.9189
21.9193
21.9197
21.9202
21.9206
21.9212
21.9217
21.9223
21.9229
21.9236
21.9244
21.9252
21.9261
21.9271
21.9281
21.9292
21.9304
21.9317
21.9332
21.9347
21.9364
21.9383
21.9404
21.9428
21.9454
21.9483
21.9515
21.955
21.9588
21.963
21.9676
21.9726
21.9782
21.9844
21.9914
21.9992
22.0081
22.018
22.0291
22.0415
22.0552
22.0704
22.0872
22.1059
22.1269
22.1509
22.1786
22.2108
22.2478
22.2898
22.3372
22.3898
22.4479
22.5118
22.5822
22.6614
22.7523
22.8579
22.9805
23.1216
23.2824
23.4637
23.6656
23.8884
24.1327
24.4014
24.7056
25.0652
25.4977
26.0117
26.6077
27.2821
28.0294
28.8438
29.7203
30.6577
31.6715
32.8134
34.1653
35.7645
37.6194
39.7268
42.0753
44.6463
47.4201
50.3788
53.5304
56.8882
60.8621
66.613
74.2385
83.5188
94.2094
106.117
119.08
21.9159
21.9161
21.9163
21.9165
21.9168
21.9171
21.9174
21.9177
21.918
21.9184
21.9188
21.9193
21.9198
21.9203
21.9209
21.9215
21.9221
21.9228
21.9236
21.9244
21.9252
21.9262
21.9272
21.9282
21.9294
21.9306
21.9319
21.9333
21.9348
21.9364
21.9381
21.9399
21.9419
21.944
21.9463
21.9488
21.9516
21.9546
21.9579
21.9615
21.9654
21.9696
21.9742
21.9791
21.9844
21.9902
21.9964
22.0031
22.0106
22.0188
22.0279
22.038
22.0492
22.0615
22.0751
22.0901
22.1065
22.1245
22.1442
22.166
22.1902
22.2175
22.2487
22.2843
22.3249
22.3707
22.422
22.479
22.5417
22.6106
22.686
22.7696
22.8636
22.9712
23.0949
23.2367
23.3982
23.5806
23.7849
24.0116
24.2614
24.5352
24.8365
25.1767
25.575
26.048
26.6041
27.2443
27.966
28.7648
29.636
30.5757
31.5824
32.671
33.8867
35.3022
36.9516
38.8442
40.9809
43.3567
45.9605
48.7785
51.7947
55.0147
58.4527
62.3991
67.9423
75.2317
84.1069
94.3687
105.862
118.46
132.038
146.522
161.812
177.817
194.164
209.621
224.174
238.066
251.361
263.939
275.582
21.922
21.9228
21.9237
21.9247
21.9258
21.927
21.9282
21.9296
21.9311
21.9327
21.9344
21.9362
21.9382
21.9403
21.9425
21.9449
21.9475
21.9503
21.9533
21.9565
21.9599
21.9637
21.9677
21.9721
21.9769
21.982
21.9875
21.9935
21.9998
22.0065
22.0137
22.0213
22.0296
22.0384
22.048
22.0584
22.0698
22.0821
22.0955
22.1101
22.1259
22.1431
22.1617
22.1818
22.2035
22.227
22.2526
22.2807
22.312
22.3471
22.3865
22.4306
22.4797
22.534
22.5939
22.6594
22.7307
22.8083
22.8928
22.9857
23.0893
23.2063
23.339
23.4891
23.6583
23.8478
24.059
24.2928
24.5501
24.8319
25.1401
25.4805
25.8678
26.3192
26.8474
27.458
28.1514
28.9254
29.7772
30.7037
31.7026
32.774
33.9348
35.2287
36.7158
38.4236
40.3611
42.5318
44.935
47.5655
50.4161
53.4755
56.7477
60.2451
64.2106
69.6225
76.6334
85.1185
94.9061
105.86
117.876
130.847
144.695
159.345
174.713
190.558
205.747
220.133
233.882
247.135
259.839
271.783
282.799
292.866
301.999
310.27
317.499
323.495
328.374
332.317
335.743
339.036
342.211
21.9468
21.9501
21.9537
21.9576
21.9618
21.9664
21.9713
21.9766
21.9825
21.9888
21.9956
22.0031
22.0111
22.0197
22.0289
22.0387
22.0492
22.0605
22.0725
22.0855
22.0994
22.1144
22.1305
22.1478
22.1664
22.1864
22.2078
22.2307
22.2552
22.2814
22.3094
22.3394
22.3718
22.4071
22.4457
22.4881
22.5348
22.586
22.642
22.703
22.7692
22.8407
22.9176
23.0002
23.0888
23.1843
23.2884
23.403
23.5301
23.6715
23.8286
24.0028
24.1955
24.4078
24.6409
24.8958
25.1732
25.4742
25.8012
26.1605
26.5657
27.0311
27.567
28.1782
28.8661
29.6299
30.4684
31.3805
32.3653
33.4223
34.5579
35.7977
37.1903
38.7717
40.5552
42.5485
44.7583
47.1883
49.8375
52.7042
55.7834
59.0834
62.6114
66.6745
72.0709
78.9111
87.0896
96.4611
106.91
118.358
130.73
143.951
157.963
172.688
187.914
202.657
216.769
230.292
243.293
255.783
267.656
278.775
289.019
298.323
306.834
314.512
320.998
326.282
330.72
334.521
337.937
341.324
344.59
347.574
350.259
352.753
354.978
356.818
358.16
359.04
359.746
360.249
360.449
360.59
360.724
22.0437
22.0569
22.0712
22.0867
22.1034
22.1216
22.1412
22.1623
22.1851
22.2096
22.236
22.2642
22.2945
22.3268
22.3614
22.3983
22.4379
22.4804
22.5263
22.576
22.6299
22.6885
22.752
22.8208
22.8948
22.9743
23.0593
23.15
23.2462
23.3484
23.4569
23.5731
23.6984
23.8345
23.9825
24.1437
24.3192
24.51
24.7172
24.942
25.1852
25.4474
25.7293
26.0315
26.3551
26.703
27.0832
27.5072
27.985
28.5234
29.1258
29.7934
30.5266
31.3251
32.1889
33.1178
34.1121
35.1723
36.3083
37.5453
38.9223
40.4599
42.167
44.0526
46.1266
48.3974
50.8698
53.5459
56.4261
59.5119
62.8192
66.382
70.7977
76.4573
83.3438
91.3498
100.376
110.353
121.238
132.983
145.54
158.864
172.9
187.336
201.354
214.904
228.025
240.678
252.842
264.457
275.433
285.686
295.079
303.638
311.442
318.291
323.971
328.648
332.702
336.315
339.681
343.003
346.166
349.044
351.689
354.059
356.171
357.963
359.242
360.028
360.708
361.464
361.909
362.117
362.417
362.855
363.191
363.386
363.492
363.493
363.445
363.341
363.162
362.974
362.82
22.4154
22.4643
22.5171
22.5741
22.6359
22.703
22.776
22.8553
22.9415
23.0347
23.1352
23.2433
23.3588
23.4819
23.6126
23.7515
23.8996
24.0581
24.2283
24.4112
24.6076
24.8182
25.044
25.2858
25.5444
25.8204
26.1146
26.4271
26.7582
27.1086
27.4801
27.8781
28.3112
28.7872
29.3116
29.888
30.5181
31.2023
31.9407
32.733
33.579
34.4786
35.4316
36.4383
37.5006
38.6339
39.8625
41.207
42.6758
44.2752
46.0153
47.9077
49.9622
52.1852
54.5806
57.151
59.8978
62.8269
65.949
69.3417
73.5844
78.8356
85.0646
92.2055
100.198
109.003
118.603
128.99
140.136
152.015
164.581
177.812
191.102
204.019
216.577
228.847
240.768
252.254
263.247
273.684
283.534
292.703
301.101
308.71
315.505
321.35
326.19
330.422
334.348
337.969
341.42
344.772
347.859
350.654
353.201
355.422
357.374
358.99
360.086
360.765
361.372
362.011
362.478
362.77
362.958
363.259
363.684
364.017
364.18
364.222
364.306
364.449
364.549
364.574
364.649
364.863
365.042
365.169
365.224
365.191
365.071
364.872
364.606
364.296
363.994
23.612
23.7793
23.9594
24.153
24.3615
24.5861
24.8277
25.0873
25.3655
25.6628
25.98
26.3177
26.6767
27.0573
27.46
27.8856
28.3359
28.8161
29.3326
29.8915
30.4973
31.1525
31.8585
32.6153
33.4222
34.2781
35.1817
36.1319
37.1273
38.167
39.251
40.3902
41.602
42.8988
44.2847
45.7628
47.3403
49.0272
50.8332
52.7662
54.8311
57.0306
59.3665
61.8407
64.4538
67.2155
70.1277
73.4756
77.5575
82.3978
87.9537
94.183
101.062
108.581
116.739
125.534
134.965
145.015
155.668
166.904
178.66
190.341
201.82
213.11
224.177
235.021
245.614
255.873
265.718
275.103
283.985
292.322
300.109
307.148
313.355
318.873
323.66
327.911
332.079
336.077
339.757
343.217
346.532
349.567
352.294
354.691
356.681
358.382
359.791
360.632
361.204
361.82
362.424
362.865
363.172
363.362
363.662
364.11
364.48
364.656
364.724
364.824
364.969
365.097
365.206
365.244
365.381
365.659
365.877
366.013
366.051
366.08
366.096
366.091
366.036
366.011
366.071
366.158
366.224
366.23
366.136
365.934
365.637
365.277
364.872
364.456
27.8466
28.3765
28.9401
29.5425
30.1903
30.8892
31.644
32.4579
33.3325
34.2678
35.2629
36.3155
37.4231
38.5829
39.7921
41.0505
42.3675
43.7563
45.2209
46.7598
48.3728
50.0641
51.8416
53.714
55.6883
57.7693
59.9595
62.2597
64.6702
67.1895
69.8223
72.5634
75.6373
79.2559
83.4391
88.1594
93.387
99.1014
105.292
111.957
119.096
126.708
134.788
143.328
152.314
161.728
171.565
181.552
191.399
201.103
210.7
220.202
229.585
238.805
247.814
256.572
265.026
273.129
280.87
288.231
295.158
301.581
307.4
312.537
317.373
322.134
326.514
330.652
334.787
338.679
342.142
345.413
348.501
351.275
353.767
355.798
357.225
358.587
359.791
360.308
360.728
361.379
362.096
362.603
362.931
363.208
363.636
364.229
364.721
364.932
365.061
365.261
365.454
365.63
365.784
365.825
365.981
366.296
366.543
366.684
366.728
366.75
366.76
366.763
366.753
366.714
366.751
366.873
366.996
367.078
367.088
367.029
366.932
366.825
366.713
366.626
366.592
366.601
366.619
366.603
366.511
366.32
366.037
365.668
365.234
364.768
364.294
363.821
40.4788
42.0004
43.6017
45.2925
47.0743
48.9415
50.8892
52.9167
55.0277
57.2293
59.5291
61.9336
64.4469
67.071
69.8065
72.6549
75.619
78.9734
82.8012
87.1052
91.8678
97.0658
102.676
108.679
115.063
121.818
128.935
136.4
144.2
152.313
160.715
169.4
178.146
186.755
195.232
203.61
211.904
220.104
228.182
236.104
243.834
251.341
258.599
265.584
272.285
278.68
284.766
290.502
295.884
300.988
305.882
310.595
315.157
319.588
323.859
327.908
331.736
335.406
338.872
342.055
345.019
347.786
350.072
351.888
353.597
354.794
355.685
356.881
357.93
358.454
359.057
359.958
360.618
361.129
361.76
362.43
363.122
363.973
364.495
364.656
364.742
365.068
365.482
365.743
365.922
366.042
366.331
366.805
367.14
367.305
367.394
367.456
367.485
367.516
367.533
367.495
367.529
367.645
367.748
367.806
367.793
367.717
367.609
367.497
367.393
367.317
367.302
367.341
367.407
367.471
367.503
367.483
367.413
367.307
367.188
367.078
367.002
366.963
366.942
366.906
366.815
366.639
366.367
366
365.543
365.031
364.492
363.94
70.6322
73.8803
77.2631
81.0242
85.2707
90.0241
95.2766
101.006
107.186
113.786
120.78
128.143
135.848
143.871
152.183
160.752
169.548
178.276
186.849
195.262
203.525
211.638
219.588
227.349
234.892
242.186
249.201
255.915
262.309
268.363
274.045
279.389
284.455
289.295
293.953
298.462
302.839
307.09
311.211
315.193
319.023
322.693
326.194
329.513
332.639
335.557
338.221
340.54
342.492
344.149
345.578
346.855
348.055
349.187
350.216
351.191
352.21
353.246
354.193
355.116
356.127
357.18
358.178
359.227
360.394
361.035
361.569
362.463
363.054
363.237
363.601
364.277
364.66
364.931
365.305
365.753
366.352
367.081
367.393
367.511
367.535
367.66
367.794
367.899
367.94
367.94
368.069
368.261
368.409
368.483
368.486
368.436
368.357
368.276
368.2
368.14
368.129
368.155
368.198
368.237
368.246
368.208
368.126
368.013
367.89
367.79
367.735
367.729
367.759
367.804
367.84
367.845
367.805
367.719
367.602
367.475
367.363
367.279
367.217
367.152
367.052
366.885
366.626
366.266
365.805
365.261
364.671
364.052
147.352
156.761
166.484
176.236
185.877
195.354
204.631
213.68
222.476
230.998
239.207
247.068
254.55
261.621
268.261
274.425
280.077
285.264
290.084
294.618
298.923
303.031
306.963
310.725
314.318
317.744
321.002
324.082
326.97
329.625
331.944
333.84
335.367
336.627
337.709
338.668
339.547
340.378
341.193
342.012
342.85
343.72
344.627
345.58
346.591
347.678
348.871
350.16
351.469
352.68
353.732
354.655
355.514
356.312
357.018
357.692
358.433
359.198
359.857
360.499
361.243
361.989
362.692
363.569
364.56
365.025
365.504
366.192
366.452
366.502
366.715
367.062
367.284
367.432
367.532
367.682
368.051
368.378
368.584
368.72
368.743
368.705
368.677
368.678
368.675
368.685
368.749
368.839
368.936
369.014
369.051
369.038
368.979
368.885
368.778
368.686
368.626
368.598
368.596
368.607
368.611
368.59
368.531
368.432
368.309
368.189
368.099
368.051
368.046
368.07
368.104
368.125
368.113
368.058
367.96
367.834
367.702
367.583
367.48
367.381
367.26
367.088
366.834
366.48
366.02
365.455
364.826
364.151
363.446
273.952
281.292
287.953
293.896
299.228
304.075
308.532
312.654
316.506
320.074
323.396
326.492
329.359
331.947
334.205
335.909
337.069
337.871
338.462
338.909
339.253
339.529
339.771
340.01
340.273
340.585
340.966
341.459
342.096
342.945
343.976
345.041
346.002
346.835
347.547
348.172
348.747
349.304
349.866
350.44
351.041
351.673
352.344
353.058
353.827
354.673
355.657
356.765
357.854
358.818
359.644
360.367
360.98
361.467
361.914
362.457
363.001
363.369
363.774
364.374
364.846
365.258
365.826
366.403
366.726
367.152
367.573
367.75
367.801
367.971
368.168
368.335
368.468
368.484
368.535
368.798
369.042
369.241
369.412
369.502
369.486
369.421
369.359
369.316
369.301
369.314
369.346
369.396
369.453
369.496
369.506
369.469
369.384
369.268
369.147
369.044
368.971
368.928
368.91
368.902
368.887
368.845
368.769
368.661
368.539
368.427
368.347
368.307
368.306
368.329
368.354
368.361
368.332
368.258
368.146
368.009
367.865
367.727
367.591
367.442
367.252
366.993
366.64
366.182
365.61
364.951
364.232
363.468
340.33
342.815
344.77
345.945
346.528
346.813
346.941
346.944
346.742
346.487
346.224
345.963
345.751
345.632
345.727
346.186
346.834
347.423
347.836
348.081
348.201
348.237
348.223
348.191
348.163
348.16
348.197
348.293
348.468
348.849
349.468
350.25
351.061
351.803
352.447
352.984
353.438
353.843
354.23
354.62
355.039
355.484
355.969
356.502
357.082
357.717
358.426
359.214
360.058
360.895
361.671
362.362
362.938
363.359
363.762
364.328
364.737
364.952
365.322
365.93
366.234
366.506
366.976
367.408
367.735
368.122
368.499
368.738
368.853
368.94
369.033
369.149
369.252
369.259
369.278
369.409
369.581
369.752
369.917
370.035
370.062
370.016
369.941
369.871
369.821
369.791
369.782
369.797
369.83
369.867
369.885
369.866
369.798
369.688
369.555
369.424
369.312
369.229
369.176
369.145
369.121
369.086
369.025
368.934
368.822
368.705
368.605
368.538
368.51
368.515
368.536
368.552
368.543
368.495
368.403
368.274
368.12
367.956
367.787
367.604
367.389
367.116
366.757
366.296
365.723
365.042
364.291
363.479
355.853
355.662
355.852
356.148
356.259
356.175
355.953
355.47
354.891
354.307
353.684
353.024
352.342
351.727
351.465
351.397
351.462
351.533
351.535
351.45
351.289
351.081
350.86
350.654
350.488
350.379
350.345
350.395
350.543
350.852
351.331
351.965
352.685
353.414
354.099
354.714
355.27
355.779
356.265
356.743
357.225
357.724
358.253
358.807
359.393
360.018
360.696
361.433
362.211
362.985
363.714
364.32
364.762
365.233
365.828
366.068
366.231
366.634
367.137
367.303
367.507
367.935
368.259
368.523
368.85
369.216
369.493
369.625
369.692
369.742
369.818
369.885
369.891
369.888
369.948
370.057
370.186
370.326
370.448
370.509
370.5
370.444
370.368
370.294
370.23
370.185
370.163
370.165
370.181
370.192
370.177
370.121
370.023
369.892
369.747
369.608
369.489
369.4
369.339
369.297
369.258
369.205
369.131
369.033
368.924
368.818
368.735
368.685
368.671
368.681
368.699
368.703
368.675
368.606
368.492
368.34
368.162
367.966
367.751
367.507
367.211
366.84
366.371
365.795
365.101
364.323
363.474
361.188
360.294
359.554
358.809
358.22
357.529
356.565
355.6
354.767
353.913
353.04
352.207
351.483
350.849
350.376
350.181
350.127
350.175
350.265
350.353
350.423
350.473
350.514
350.562
350.637
350.754
350.929
351.158
351.476
351.918
352.492
353.191
353.972
354.779
355.565
356.302
356.98
357.605
358.188
358.739
359.275
359.81
360.349
360.899
361.467
362.061
362.699
363.387
364.107
364.816
365.42
365.913
366.479
366.999
367.153
367.352
367.806
368.112
368.188
368.383
368.777
368.984
369.166
369.455
369.815
370.058
370.207
370.284
370.333
370.386
370.429
370.426
370.407
370.422
370.48
370.566
370.67
370.775
370.85
370.873
370.845
370.782
370.702
370.619
370.545
370.49
370.458
370.445
370.437
370.415
370.363
370.275
370.152
370.006
369.852
369.707
369.585
369.492
369.425
369.372
369.32
369.256
369.175
369.08
368.981
368.893
368.83
368.799
368.797
368.811
368.821
368.809
368.759
368.663
368.521
368.339
368.125
367.883
367.608
367.286
366.896
366.415
365.832
365.129
364.329
363.451
362.503
361.495
359.065
357.759
356.577
355.543
354.926
354.211
353.368
352.793
352.239
351.589
350.946
350.361
349.859
349.376
349.015
348.817
348.75
348.823
349.014
349.285
349.599
349.927
350.253
350.57
350.885
351.208
351.554
351.927
352.336
352.822
353.387
354.057
354.821
355.651