/*--------------------------------*- C++ -*----------------------------------*\
| =========                 |                                                 |
| \\      /  F ield         | OpenFOAM: The Open Source CFD Toolbox           |
|  \\    /   O peration     | Version:  v1706                                 |
|   \\  /    A nd           | Web:      www.OpenFOAM.com                      |
|    \\/     M anipulation  |                                                 |
\*---------------------------------------------------------------------------*/
FoamFile
{
    version     2.0;
    format      ascii;
    class       volScalarField;
    location    "3.1e-05";
    object      rho;
}
// * * * * * * * * * * * * * * * * * * * * * * * * * * * * * * * * * * * * * //

dimensions      [1 -3 0 0 0 0 0];


internalField   nonuniform List<scalar> 
29871
(
0.000511309
0.000511309
0.000511309
0.000511309
0.000511309
0.000511309
0.000511309
0.000511309
0.000511309
0.000511309
0.000511309
0.000511309
0.000511309
0.000511309
0.000511309
0.000511309
0.000511309
0.000511309
0.000511309
0.000511309
0.000511309
0.000511309
0.000511309
0.000511309
0.000511309
0.000511309
0.000511309
0.000511309
0.000511309
0.000511309
0.000511309
0.000511309
0.000511309
0.000511309
0.000511309
0.000511309
0.000511309
0.000511309
0.000511309
0.000511309
0.000511309
0.000511309
0.000511309
0.000511309
0.000511309
0.000511309
0.000511309
0.000511309
0.000511309
0.000511309
0.000511309
0.000511309
0.000511309
0.000511309
0.000511309
0.000511309
0.000511309
0.000511309
0.000511309
0.000511309
0.000511309
0.000511309
0.000511309
0.000511309
0.000511309
0.000511309
0.000511309
0.000511309
0.000511309
0.000511309
0.000511309
0.000511309
0.000511309
0.000511309
0.000511309
0.000511309
0.000511309
0.000511309
0.000511309
0.000511309
0.000511309
0.000511309
0.000511309
0.000511309
0.000511309
0.000511309
0.000511309
0.000511309
0.000511309
0.000511309
0.000511309
0.000511309
0.000511309
0.000511309
0.000511309
0.000511309
0.000511309
0.000511309
0.000511309
0.000511309
0.000511309
0.000511309
0.000511309
0.000511309
0.000511309
0.000511309
0.000511309
0.000511309
0.000511309
0.000511309
0.000511309
0.000511309
0.000511309
0.000511309
0.000511309
0.000511309
0.000511309
0.000511309
0.000511309
0.000511309
0.000511309
0.000511309
0.000511309
0.000511309
0.000511309
0.000511309
0.000511309
0.000511309
0.000511309
0.000511309
0.000511309
0.000511309
0.000511309
0.000511309
0.000511309
0.000511309
0.000511309
0.000511309
0.000511309
0.000511309
0.000511309
0.000511309
0.000511309
0.000511309
0.000511309
0.000511309
0.000511309
0.000511309
0.000511309
0.000511309
0.000511309
0.000511309
0.000511309
0.000511309
0.000511309
0.000511309
0.000511309
0.000511309
0.000511309
0.000511309
0.000511309
0.000511309
0.000511309
0.000511309
0.000511309
0.000511309
0.000511309
0.000511309
0.000511309
0.000511309
0.000511309
0.000511309
0.000511309
0.000511309
0.000511309
0.000511309
0.000511309
0.000511309
0.000511309
0.000511309
0.000511309
0.000511309
0.000511309
0.000511309
0.000511309
0.000511309
0.000511309
0.000511309
0.000511309
0.000511309
0.000511309
0.000511309
0.000511309
0.000511309
0.000511309
0.000511309
0.000511309
0.000511309
0.000511309
0.000511309
0.000511309
0.000511309
0.000511309
0.000511309
0.000511309
0.000511309
0.000511309
0.000511309
0.000511309
0.000511309
0.000511309
0.000511309
0.000511309
0.000511309
0.000511309
0.000511309
0.000511309
0.000511309
0.000511309
0.000511309
0.000511309
0.000511309
0.000511309
0.000511309
0.000511309
0.000511309
0.000511309
0.000511309
0.000511309
0.000511309
0.000511309
0.000511309
0.000511309
0.000511309
0.000511309
0.000511309
0.000511309
0.000511309
0.000511309
0.000511309
0.000511309
0.000511309
0.000511309
0.000511309
0.000511309
0.000511309
0.000511309
0.000511309
0.000511309
0.000511309
0.000511309
0.000511309
0.000511309
0.000511309
0.000511309
0.000511309
0.000511309
0.000511309
0.000511309
0.000511309
0.000511309
0.000511309
0.000511309
0.000511309
0.000511309
0.000511309
0.000511309
0.000511309
0.000511309
0.000511309
0.000511309
0.000511309
0.000511309
0.000511309
0.000511309
0.000511309
0.000511309
0.000511309
0.000511309
0.000511309
0.000511309
0.000511309
0.000511309
0.000511309
0.000511309
0.000511309
0.000511309
0.000511309
0.000511309
0.000511309
0.000511309
0.000511309
0.000511309
0.000511309
0.000511309
0.000511309
0.000511309
0.000511309
0.000511309
0.000511309
0.000511309
0.000511309
0.000511309
0.000511309
0.000511309
0.000511309
0.000511309
0.000511309
0.000511309
0.000511309
0.000511309
0.000511309
0.000511309
0.000511309
0.000511309
0.000511309
0.000511309
0.000511309
0.000511309
0.000511309
0.000511309
0.000511309
0.000511309
0.000511309
0.000511309
0.000511309
0.000511309
0.000511309
0.000511309
0.000511309
0.000511309
0.000511309
0.000511309
0.000511309
0.000511309
0.000511309
0.000511309
0.000511309
0.000511309
0.000511309
0.000511309
0.000511309
0.000511309
0.000511309
0.000511309
0.000511309
0.000511309
0.000511309
0.000511309
0.000511309
0.000511309
0.000511309
0.000511309
0.000511309
0.000511309
0.000511309
0.000511309
0.000511309
0.000511309
0.000511309
0.000511309
0.000511309
0.000511309
0.000511309
0.000511309
0.000511309
0.000511309
0.000511309
0.000511309
0.000511309
0.000511309
0.000511309
0.000511309
0.000511309
0.000511309
0.000511309
0.000511309
0.000511309
0.000511309
0.000511309
0.000511309
0.000511309
0.000511309
0.000511309
0.000511309
0.000511309
0.000511309
0.000511309
0.000511309
0.000511309
0.000511309
0.000511309
0.000511309
0.000511309
0.000511309
0.000511309
0.000511309
0.000511309
0.000511309
0.000511309
0.000511309
0.000511309
0.000511309
0.000511309
0.000511309
0.000511309
0.000511309
0.000511309
0.000511309
0.000511309
0.000511309
0.000511309
0.000511309
0.000511309
0.000511309
0.000511309
0.000511309
0.000511309
0.000511309
0.000511309
0.000511309
0.000511309
0.000511309
0.000511309
0.000511309
0.000511309
0.000511309
0.000511309
0.000511309
0.000511309
0.000511309
0.000511309
0.000511309
0.000511309
0.000511309
0.000511309
0.000511309
0.000511309
0.000511309
0.000511309
0.000511309
0.000511309
0.000511309
0.000511309
0.000511309
0.000511309
0.000511309
0.000511309
0.000511309
0.000511309
0.000511309
0.000511309
0.000511309
0.000511309
0.000511309
0.000511309
0.000511309
0.000511309
0.000511309
0.000511309
0.000511309
0.000511309
0.000511309
0.000511309
0.000511309
0.000511309
0.000511309
0.000511309
0.000511309
0.000511309
0.000511309
0.000511309
0.000511309
0.000511309
0.000511309
0.000511309
0.000511309
0.000511309
0.000511309
0.000511309
0.000511309
0.000511309
0.000511309
0.000511309
0.000511309
0.000511309
0.000511309
0.000511309
0.000511309
0.000511309
0.000511309
0.000511309
0.000511309
0.000511309
0.000511309
0.000511309
0.000511309
0.000511309
0.000511309
0.000511309
0.000511309
0.000511309
0.000511309
0.000511309
0.000511309
0.000511309
0.000511309
0.000511309
0.000511309
0.000511309
0.000511309
0.000511309
0.000511309
0.000511309
0.000511309
0.000511309
0.000511309
0.000511309
0.000511309
0.000511309
0.000511309
0.000511309
0.000511309
0.000511309
0.000511309
0.000511309
0.000511309
0.000511309
0.000511309
0.000511309
0.000511309
0.000511309
0.000511309
0.000511309
0.000511309
0.000511309
0.000511309
0.000511309
0.000511309
0.000511309
0.000511309
0.000511309
0.000511309
0.000511309
0.000511309
0.000511309
0.000511309
0.000511309
0.000511309
0.000511309
0.000511309
0.000511309
0.000511309
0.000511309
0.000511309
0.000511309
0.000511309
0.000511309
0.000511309
0.000511309
0.000511309
0.000511309
0.000511309
0.000511309
0.000511309
0.000511309
0.000511309
0.000511309
0.000511309
0.000511309
0.000511309
0.000511309
0.000511309
0.000511309
0.000511309
0.000511309
0.000511309
0.000511309
0.000511309
0.000511309
0.000511309
0.000511309
0.000511309
0.000511309
0.000511309
0.000511309
0.000511309
0.000511309
0.000511309
0.000511309
0.000511309
0.000511309
0.000511309
0.000511309
0.000511309
0.000511309
0.000511309
0.000511309
0.000511309
0.000511309
0.000511309
0.000511309
0.000511309
0.000511309
0.000511309
0.000511309
0.000511309
0.000511309
0.000511309
0.000511309
0.000511309
0.000511309
0.000511309
0.000511309
0.000511309
0.000511309
0.000511309
0.000511309
0.000511309
0.000511309
0.000511309
0.000511309
0.000511309
0.000511309
0.000511309
0.000511309
0.000511309
0.000511309
0.000511309
0.000511309
0.000511309
0.000511309
0.000511309
0.000511309
0.000511309
0.000511309
0.000511309
0.000511309
0.000511309
0.000511309
0.000511309
0.000511309
0.000511309
0.000511309
0.000511309
0.000511309
0.000511309
0.000511309
0.000511309
0.000511309
0.000511309
0.000511309
0.000511309
0.000511309
0.000511309
0.000511309
0.000511309
0.000511309
0.000511309
0.000511309
0.000511309
0.000511309
0.000511309
0.000511309
0.000511309
0.000511309
0.000511309
0.000511309
0.000511309
0.000511309
0.000511309
0.000511309
0.000511309
0.000511309
0.000511309
0.000511309
0.000511309
0.000511309
0.000511309
0.000511309
0.000511309
0.000511309
0.000511309
0.000511309
0.000511309
0.000511309
0.000511309
0.000511309
0.000511309
0.000511309
0.000511309
0.000511309
0.000511309
0.000511309
0.000511309
0.000511309
0.000511309
0.000511309
0.000511309
0.000511309
0.000511309
0.000511309
0.000511309
0.000511309
0.000511309
0.000511309
0.000511309
0.000511309
0.000511309
0.000511309
0.000511309
0.000511309
0.000511309
0.000511309
0.000511309
0.000511309
0.000511309
0.000511309
0.000511309
0.000511309
0.000511309
0.000511309
0.000511309
0.000511309
0.000511309
0.000511309
0.000511309
0.000511309
0.000511309
0.000511309
0.000511309
0.000511309
0.000511309
0.000511309
0.000511309
0.000511309
0.000511309
0.000511309
0.000511309
0.000511309
0.000511309
0.000511309
0.000511309
0.000511309
0.000511309
0.000511309
0.000511309
0.000511309
0.000511309
0.000511309
0.000511309
0.000511309
0.000511309
0.000511309
0.000511309
0.000511309
0.000511309
0.000511309
0.000511309
0.000511309
0.000511309
0.000511309
0.000511309
0.000511309
0.000511309
0.000511309
0.000511309
0.000511309
0.000511309
0.000511309
0.000511309
0.000511309
0.000511309
0.000511309
0.000511309
0.000511309
0.000511309
0.000511309
0.000511309
0.000511309
0.000511309
0.000511309
0.000511309
0.000511309
0.000511309
0.000511309
0.000511309
0.000511309
0.000511309
0.000511309
0.000511309
0.000511309
0.000511309
0.000511309
0.000511309
0.000511309
0.000511309
0.000511309
0.000511309
0.000511309
0.000511309
0.000511309
0.000511309
0.000511309
0.000511309
0.000511309
0.000511309
0.000511309
0.000511309
0.000511309
0.000511309
0.000511309
0.000511309
0.000511309
0.000511309
0.000511309
0.000511309
0.000511309
0.000511309
0.000511309
0.000511309
0.000511309
0.000511309
0.000511309
0.000511309
0.000511309
0.000511309
0.000511309
0.000511309
0.000511309
0.000511309
0.000511309
0.000511309
0.000511309
0.000511309
0.000511309
0.000511309
0.000511309
0.000511309
0.000511309
0.000511309
0.000511309
0.000511309
0.000511309
0.000511309
0.000511309
0.000511309
0.000511309
0.000511309
0.000511309
0.000511309
0.000511309
0.000511309
0.000511309
0.000511309
0.000511309
0.000511309
0.000511309
0.000511309
0.000511309
0.000511309
0.000511309
0.000511309
0.000511309
0.000511309
0.000511309
0.000511309
0.000511309
0.000511309
0.000511309
0.000511309
0.000511309
0.000511309
0.000511309
0.000511309
0.000511309
0.000511309
0.000511309
0.000511309
0.000511309
0.000511309
0.000511309
0.000511309
0.000511309
0.000511309
0.000511309
0.000511309
0.000511309
0.000511309
0.000511309
0.000511309
0.000511309
0.000511309
0.000511309
0.000511309
0.000511309
0.000511309
0.000511309
0.000511309
0.000511309
0.000511309
0.000511309
0.000511309
0.000511309
0.000511309
0.000511309
0.000511309
0.000511309
0.000511309
0.000511309
0.000511309
0.000511309
0.000511309
0.000511309
0.000511309
0.000511309
0.000511309
0.000511309
0.000511309
0.000511309
0.000511309
0.000511309
0.000511309
0.000511309
0.000511309
0.000511309
0.000511309
0.000511309
0.000511309
0.000511309
0.000511309
0.000511309
0.000511309
0.000511309
0.000511309
0.000511309
0.000511309
0.000511309
0.000511309
0.000511309
0.000511309
0.000511309
0.000511309
0.000511309
0.000511309
0.000511309
0.000511309
0.000511309
0.000511309
0.000511309
0.000511309
0.000511309
0.000511309
0.000511309
0.000511309
0.00051131
0.00051131
0.00051131
0.00051131
0.00051131
0.00051131
0.00051131
0.00051131
0.00051131
0.00051131
0.00051131
0.000511309
0.000511309
0.000511309
0.000511309
0.000511309
0.000511309
0.000511309
0.000511309
0.000511309
0.000511309
0.000511309
0.000511309
0.000511309
0.000511309
0.000511309
0.000511309
0.000511309
0.000511309
0.000511309
0.000511309
0.000511309
0.000511309
0.000511309
0.000511309
0.000511309
0.000511309
0.000511309
0.000511309
0.000511309
0.000511309
0.000511309
0.000511309
0.000511309
0.000511309
0.000511309
0.000511309
0.000511309
0.000511309
0.000511309
0.000511309
0.000511309
0.000511309
0.000511309
0.000511309
0.000511309
0.000511309
0.000511309
0.000511309
0.000511309
0.000511309
0.000511309
0.000511309
0.000511309
0.000511309
0.000511309
0.000511309
0.000511309
0.000511309
0.000511309
0.000511309
0.000511309
0.000511309
0.000511309
0.000511309
0.000511309
0.000511309
0.000511309
0.000511309
0.000511309
0.000511309
0.000511309
0.000511309
0.000511309
0.000511309
0.000511309
0.000511309
0.000511309
0.000511309
0.000511309
0.000511309
0.000511309
0.000511309
0.000511309
0.000511309
0.000511309
0.00051131
0.00051131
0.00051131
0.00051131
0.00051131
0.00051131
0.00051131
0.00051131
0.00051131
0.00051131
0.00051131
0.00051131
0.00051131
0.00051131
0.00051131
0.00051131
0.000511311
0.000511311
0.000511311
0.000511311
0.000511311
0.000511312
0.000511312
0.000511312
0.000511313
0.000511309
0.000511309
0.000511309
0.000511309
0.000511309
0.000511309
0.000511309
0.000511309
0.000511309
0.000511309
0.000511309
0.000511309
0.000511309
0.000511309
0.000511309
0.000511309
0.000511309
0.000511309
0.000511309
0.000511309
0.000511309
0.000511309
0.000511309
0.000511309
0.000511309
0.000511309
0.000511309
0.000511309
0.000511309
0.000511309
0.000511309
0.000511309
0.000511309
0.000511309
0.000511309
0.000511309
0.000511309
0.000511309
0.000511309
0.000511309
0.000511309
0.000511309
0.000511309
0.000511309
0.000511309
0.000511309
0.000511309
0.000511309
0.000511309
0.000511309
0.000511309
0.000511309
0.000511309
0.000511309
0.000511309
0.000511309
0.000511309
0.000511309
0.000511309
0.000511309
0.000511309
0.000511309
0.000511309
0.000511309
0.000511309
0.000511309
0.000511309
0.000511309
0.000511309
0.000511309
0.00051131
0.00051131
0.00051131
0.00051131
0.00051131
0.00051131
0.00051131
0.00051131
0.00051131
0.00051131
0.00051131
0.00051131
0.00051131
0.00051131
0.00051131
0.00051131
0.00051131
0.00051131
0.000511311
0.000511311
0.000511311
0.000511311
0.000511311
0.000511312
0.000511312
0.000511312
0.000511313
0.000511313
0.000511314
0.000511314
0.000511315
0.000511316
0.000511317
0.000511317
0.000511318
0.00051132
0.000511321
0.000511323
0.000511324
0.000511327
0.000511309
0.000511309
0.000511309
0.000511309
0.000511309
0.000511309
0.000511309
0.000511309
0.000511309
0.000511309
0.000511309
0.000511309
0.000511309
0.000511309
0.000511309
0.000511309
0.000511309
0.000511309
0.000511309
0.000511309
0.000511309
0.000511309
0.000511309
0.000511309
0.000511309
0.000511309
0.000511309
0.000511309
0.000511309
0.000511309
0.000511309
0.000511309
0.000511309
0.000511309
0.000511309
0.000511309
0.000511309
0.000511309
0.000511309
0.000511309
0.000511309
0.000511309
0.000511309
0.000511309
0.000511309
0.000511309
0.000511309
0.000511309
0.000511309
0.000511309
0.000511309
0.000511309
0.000511309
0.000511309
0.00051131
0.00051131
0.00051131
0.00051131
0.00051131
0.00051131
0.00051131
0.00051131
0.00051131
0.00051131
0.00051131
0.00051131
0.00051131
0.00051131
0.00051131
0.00051131
0.00051131
0.00051131
0.00051131
0.00051131
0.000511311
0.000511311
0.000511311
0.000511311
0.000511311
0.000511311
0.000511312
0.000511312
0.000511312
0.000511313
0.000511313
0.000511314
0.000511314
0.000511315
0.000511315
0.000511316
0.000511317
0.000511318
0.000511319
0.00051132
0.000511322
0.000511323
0.000511325
0.000511327
0.000511329
0.000511332
0.000511335
0.000511339
0.000511344
0.000511349
0.000511354
0.00051136
0.000511367
0.000511375
0.000511383
0.000511393
0.000511404
0.000511309
0.000511309
0.000511309
0.000511309
0.000511309
0.000511309
0.000511309
0.000511309
0.000511309
0.000511309
0.000511309
0.000511309
0.000511309
0.000511309
0.000511309
0.000511309
0.000511309
0.000511309
0.000511309
0.000511309
0.000511309
0.000511309
0.000511309
0.000511309
0.000511309
0.000511309
0.000511309
0.000511309
0.000511309
0.000511309
0.000511309
0.000511309
0.000511309
0.000511309
0.00051131
0.00051131
0.00051131
0.00051131
0.00051131
0.00051131
0.00051131
0.00051131
0.00051131
0.00051131
0.00051131
0.00051131
0.00051131
0.00051131
0.00051131
0.00051131
0.00051131
0.00051131
0.00051131
0.00051131
0.00051131
0.00051131
0.00051131
0.00051131
0.00051131
0.000511311
0.000511311
0.000511311
0.000511311
0.000511311
0.000511311
0.000511312
0.000511312
0.000511312
0.000511312
0.000511313
0.000511313
0.000511314
0.000511314
0.000511315
0.000511315
0.000511316
0.000511317
0.000511318
0.000511319
0.00051132
0.000511321
0.000511322
0.000511324
0.000511326
0.000511328
0.00051133
0.000511333
0.000511335
0.000511339
0.000511343
0.000511348
0.000511354
0.00051136
0.000511367
0.000511375
0.000511383
0.000511393
0.000511403
0.000511416
0.000511429
0.000511445
0.000511463
0.000511483
0.000511506
0.000511532
0.000511561
0.000511595
0.000511633
0.000511678
0.000511733
0.000511801
0.00051188
0.000511972
0.000511309
0.000511309
0.000511309
0.000511309
0.000511309
0.000511309
0.000511309
0.000511309
0.000511309
0.000511309
0.000511309
0.000511309
0.000511309
0.000511309
0.00051131
0.00051131
0.00051131
0.00051131
0.00051131
0.00051131
0.00051131
0.00051131
0.00051131
0.00051131
0.00051131
0.00051131
0.00051131
0.00051131
0.00051131
0.00051131
0.00051131
0.00051131
0.00051131
0.00051131
0.00051131
0.00051131
0.00051131
0.00051131
0.00051131
0.00051131
0.000511311
0.000511311
0.000511311
0.000511311
0.000511311
0.000511311
0.000511311
0.000511311
0.000511312
0.000511312
0.000511312
0.000511312
0.000511312
0.000511313
0.000511313
0.000511313
0.000511314
0.000511314
0.000511315
0.000511315
0.000511316
0.000511317
0.000511318
0.000511318
0.000511319
0.00051132
0.000511322
0.000511323
0.000511324
0.000511326
0.000511328
0.00051133
0.000511332
0.000511335
0.000511338
0.000511341
0.000511345
0.000511349
0.000511354
0.00051136
0.000511367
0.000511375
0.000511384
0.000511394
0.000511404
0.000511416
0.00051143
0.000511445
0.000511462
0.000511481
0.000511502
0.000511526
0.000511554
0.000511585
0.00051162
0.00051166
0.000511706
0.000511759
0.000511823
0.000511901
0.000511994
0.000512101
0.000512221
0.000512355
0.000512502
0.000512661
0.000512836
0.000513033
0.000513258
0.000513517
0.000513812
0.000514153
0.000514547
0.00051131
0.00051131
0.00051131
0.00051131
0.00051131
0.00051131
0.00051131
0.00051131
0.00051131
0.00051131
0.00051131
0.00051131
0.00051131
0.00051131
0.00051131
0.00051131
0.00051131
0.00051131
0.00051131
0.00051131
0.00051131
0.00051131
0.00051131
0.000511311
0.000511311
0.000511311
0.000511311
0.000511311
0.000511311
0.000511311
0.000511311
0.000511312
0.000511312
0.000511312
0.000511312
0.000511312
0.000511313
0.000511313
0.000511313
0.000511313
0.000511314
0.000511314
0.000511314
0.000511315
0.000511315
0.000511316
0.000511316
0.000511317
0.000511318
0.000511319
0.00051132
0.00051132
0.000511322
0.000511323
0.000511324
0.000511325
0.000511327
0.000511328
0.00051133
0.000511332
0.000511334
0.000511337
0.000511339
0.000511342
0.000511346
0.00051135
0.000511354
0.000511359
0.000511365
0.000511371
0.000511379
0.000511388
0.000511398
0.000511409
0.000511421
0.000511435
0.00051145
0.000511466
0.000511485
0.000511505
0.000511529
0.000511555
0.000511584
0.000511617
0.000511654
0.000511697
0.000511745
0.000511799
0.000511862
0.000511937
0.000512027
0.000512134
0.000512258
0.000512398
0.000512554
0.000512725
0.000512911
0.000513116
0.000513344
0.000513604
0.000513899
0.000514234
0.000514617
0.000515059
0.00051557
0.000516153
0.000516812
0.000517547
0.000518359
0.000519301
0.000520482
0.000521976
0.000523793
0.000525909
0.000528288
0.00051131
0.00051131
0.00051131
0.00051131
0.00051131
0.000511311
0.000511311
0.000511311
0.000511311
0.000511311
0.000511311
0.000511311
0.000511312
0.000511312
0.000511312
0.000511312
0.000511313
0.000511313
0.000511313
0.000511313
0.000511314
0.000511314
0.000511314
0.000511315
0.000511315
0.000511315
0.000511316
0.000511316
0.000511317
0.000511318
0.000511318
0.000511319
0.00051132
0.000511321
0.000511322
0.000511323
0.000511324
0.000511325
0.000511326
0.000511328
0.000511329
0.000511331
0.000511333
0.000511335
0.000511337
0.000511339
0.000511341
0.000511344
0.000511347
0.00051135
0.000511353
0.000511357
0.000511361
0.000511366
0.000511372
0.000511378
0.000511385
0.000511393
0.000511402
0.000511412
0.000511424
0.000511437
0.000511451
0.000511466
0.000511483
0.000511502
0.000511523
0.000511546
0.000511572
0.0005116
0.000511632
0.000511668
0.000511708
0.000511753
0.000511804
0.000511862
0.000511927
0.000512001
0.00051209
0.000512195
0.00051232
0.000512464
0.000512626
0.000512807
0.000513007
0.000513224
0.000513462
0.000513727
0.000514026
0.000514363
0.000514743
0.000515173
0.000515665
0.000516229
0.000516875
0.000517606
0.000518424
0.000519331
0.000520368
0.000521639
0.000523231
0.00052517
0.000527439
0.000530008
0.000532846
0.000535925
0.000539231
0.000542746
0.00054654
0.000550746
0.000555437
0.000560712
0.000566839
0.000574089
0.000582583
0.000592299
0.000511311
0.000511311
0.000511311
0.000511312
0.000511312
0.000511312
0.000511312
0.000511313
0.000511313
0.000511313
0.000511314
0.000511314
0.000511315
0.000511315
0.000511316
0.000511316
0.000511317
0.000511317
0.000511318
0.000511319
0.000511319
0.00051132
0.000511321
0.000511322
0.000511323
0.000511325
0.000511326
0.000511327
0.000511329
0.000511331
0.000511332
0.000511334
0.000511336
0.000511338
0.000511341
0.000511343
0.000511346
0.000511349
0.000511351
0.000511355
0.000511358
0.000511362
0.000511365
0.00051137
0.000511374
0.000511379
0.000511385
0.000511391
0.000511398
0.000511405
0.000511414
0.000511423
0.000511434
0.000511446
0.000511459
0.000511474
0.00051149
0.000511507
0.000511526
0.000511547
0.000511569
0.000511594
0.000511621
0.000511651
0.000511684
0.00051172
0.00051176
0.000511804
0.000511854
0.00051191
0.000511973
0.000512044
0.000512123
0.000512215
0.000512323
0.00051245
0.000512597
0.000512767
0.000512957
0.000513168
0.0005134
0.000513652
0.000513929
0.000514236
0.000514581
0.000514967
0.000515399
0.000515884
0.000516434
0.000517062
0.000517778
0.000518588
0.000519497
0.000520505
0.000521649
0.000523028
0.000524732
0.000526798
0.000529215
0.000531956
0.000534991
0.000538292
0.000541846
0.000545636
0.000549726
0.000554228
0.000559195
0.000564701
0.000570989
0.000578355
0.000586982
0.000596909
0.000608095
0.000620455
0.000634034
0.000648597
0.000666477
0.000694458
0.000733373
0.000781733
0.000837846
0.000900496
0.00096878
0.000511316
0.000511317
0.000511318
0.000511319
0.00051132
0.000511321
0.000511322
0.000511323
0.000511324
0.000511326
0.000511327
0.000511329
0.000511331
0.000511333
0.000511335
0.000511338
0.00051134
0.000511343
0.000511346
0.00051135
0.000511353
0.000511357
0.000511361
0.000511365
0.000511369
0.000511374
0.000511379
0.000511384
0.000511389
0.000511395
0.000511402
0.000511409
0.000511416
0.000511425
0.000511434
0.000511443
0.000511454
0.000511467
0.00051148
0.000511495
0.000511511
0.000511529
0.000511548
0.000511569
0.000511591
0.000511614
0.000511639
0.000511666
0.000511696
0.000511728
0.000511762
0.0005118
0.000511841
0.000511885
0.000511934
0.000511988
0.000512048
0.000512115
0.000512188
0.00051227
0.000512362
0.000512465
0.000512586
0.000512725
0.000512887
0.00051307
0.000513276
0.000513504
0.000513753
0.000514025
0.00051432
0.000514645
0.000515005
0.000515407
0.000515852
0.000516347
0.000516899
0.000517522
0.000518229
0.000519031
0.000519933
0.000520944
0.000522063
0.000523331
0.000524846
0.000526694
0.000528915
0.000531501
0.000534426
0.000537664
0.00054119
0.000544991
0.000549052
0.000553439
0.000558247
0.000563502
0.000569256
0.00057572
0.000583187
0.000591869
0.000601851
0.000613133
0.000625644
0.000639428
0.000654304
0.000671842
0.000698419
0.000735185
0.000781052
0.000834591
0.000894767
0.000960841
0.00103218
0.00110839
0.00118895
0.00127357
0.00135996
0.00144079
0.00151625
0.00158796
0.00165648
0.00172132
0.00178158
0.000511338
0.000511341
0.000511344
0.000511348
0.000511352
0.000511357
0.000511362
0.000511367
0.000511373
0.000511379
0.000511385
0.000511392
0.000511399
0.000511407
0.000511415
0.000511424
0.000511433
0.000511443
0.000511454
0.000511466
0.000511479
0.000511494
0.000511509
0.000511527
0.000511546
0.000511567
0.00051159
0.000511614
0.00051164
0.000511668
0.000511697
0.000511728
0.000511761
0.000511797
0.000511834
0.000511875
0.000511918
0.000511963
0.000512012
0.000512064
0.000512121
0.000512183
0.000512251
0.000512325
0.000512406
0.000512494
0.000512591
0.000512697
0.000512816
0.000512952
0.000513107
0.000513282
0.00051348
0.000513698
0.000513938
0.000514199
0.000514482
0.000514787
0.000515118
0.000515478
0.000515874
0.00051631
0.00051679
0.000517315
0.000517896
0.000518543
0.00051927
0.00052009
0.00052101
0.000522037
0.000523175
0.000524434
0.000525878
0.000527602
0.000529673
0.000532116
0.000534919
0.000538058
0.000541512
0.000545262
0.000549302
0.00055362
0.000558299
0.000563407
0.000568943
0.000574952
0.000581634
0.000589265
0.000598063
0.000608134
0.000619512
0.000632153
0.000646095
0.000661183
0.000678697
0.000704392
0.00073943
0.000782976
0.000833803
0.000890979
0.000953882
0.00102193
0.00109473
0.0011719
0.00125311
0.00133691
0.00141651
0.0014913
0.00156249
0.00163099
0.00169662
0.00175841
0.00181569
0.00186846
0.0019169
0.00196149
0.00200117
0.00203456
0.00206185
0.00208372
0.0021023
0.00211964
0.002136
0.000511426
0.000511438
0.00051145
0.000511464
0.000511479
0.000511494
0.000511512
0.000511531
0.000511552
0.000511575
0.000511601
0.00051163
0.000511661
0.000511696
0.000511732
0.000511772
0.000511814
0.000511858
0.000511906
0.000511956
0.000512009
0.000512066
0.000512126
0.000512188
0.000512255
0.000512326
0.000512402
0.000512484
0.000512573
0.000512669
0.000512773
0.000512884
0.000513006
0.000513139
0.000513287
0.000513451
0.000513636
0.00051384
0.000514066
0.000514313
0.000514579
0.000514865
0.000515172
0.000515499
0.000515848
0.000516223
0.000516627
0.000517065
0.00051754
0.000518052
0.000518605
0.000519207
0.000519869
0.000520603
0.00052142
0.000522328
0.000523333
0.000524441
0.000525654
0.000526987
0.000528505
0.000530288
0.000532395
0.000534847
0.000537639
0.00054075
0.000544166
0.000547874
0.000551873
0.000556155
0.000560747
0.000565748
0.000571159
0.000576961
0.000583237
0.000590204
0.000598117
0.000607157
0.000617419
0.000628946
0.000641721
0.000655802
0.000670988
0.000689011
0.000714643
0.000748737
0.000790558
0.000839065
0.000893478
0.000953319
0.00101816
0.00108763
0.00116142
0.00123923
0.0013198
0.00139718
0.00147073
0.00154096
0.00160841
0.00167319
0.00173485
0.00179277
0.00184647
0.00189571
0.00194135
0.00198311
0.0020188
0.00204806
0.0020725
0.00209305
0.00211107
0.00212853
0.00214511
0.00216014
0.00217369
0.00218642
0.00219809
0.00220812
0.00221579
0.00222104
0.0022252
0.00222799
0.0022288
0.002229
0.00222897
0.000511756
0.000511806
0.00051186
0.000511919
0.000511983
0.000512051
0.000512125
0.000512203
0.000512287
0.000512375
0.000512468
0.000512567
0.000512672
0.000512784
0.000512905
0.000513035
0.000513176
0.000513328
0.000513495
0.000513679
0.000513882
0.000514107
0.000514354
0.000514626
0.000514921
0.000515239
0.000515578
0.000515939
0.000516322
0.000516725
0.000517152
0.000517607
0.000518091
0.000518608
0.000519156
0.000519737
0.000520357
0.000521021
0.000521741
0.000522526
0.000523385
0.000524325
0.000525351
0.000526467
0.000527676
0.000528978
0.000530406
0.000532019
0.000533881
0.000536029
0.000538477
0.000541218
0.000544238
0.000547526
0.000551076
0.000554886
0.000558961
0.000563295
0.000567937
0.00057296
0.000578333
0.000584031
0.00059013
0.000596818
0.000604314
0.000612792
0.000622357
0.000633058
0.000644921
0.000657961
0.000672223
0.000687629
0.000707806
0.000735257
0.000769919
0.000811005
0.000857787
0.000909788
0.000966736
0.00102837
0.00109443
0.00116467
0.00123892
0.00131534
0.00138902
0.00145979
0.00152811
0.00159391
0.00165715
0.0017176
0.00177487
0.0018286
0.00187821
0.00192393
0.00196612
0.00200346
0.00203458
0.00206017
0.00208208
0.00210122
0.00211867
0.00213562
0.00215162
0.00216613
0.00217953
0.00219172
0.00220287
0.00221263
0.00221975
0.00222409
0.00222765
0.00223133
0.00223299
0.00223312
0.00223361
0.00223482
0.00223566
0.00223594
0.00223596
0.00223571
0.00223535
0.00223475
0.00223372
0.00223252
0.00223138
0.000513027
0.000513191
0.000513368
0.00051356
0.00051377
0.000514002
0.000514258
0.000514544
0.00051486
0.00051521
0.000515594
0.00051601
0.000516458
0.000516937
0.000517446
0.000517984
0.000518556
0.000519162
0.000519803
0.000520479
0.000521189
0.000521936
0.000522726
0.000523566
0.000524467
0.000525437
0.000526484
0.000527613
0.000528829
0.000530133
0.000531525
0.000533024
0.000534675
0.000536526
0.000538614
0.000540959
0.00054356
0.000546408
0.000549491
0.000552798
0.000556326
0.000560073
0.000564039
0.000568228
0.000572641
0.000577355
0.000582366
0.000587619
0.00059311
0.000598929
0.000605241
0.000612218
0.000619997
0.000628668
0.000638278
0.000648862
0.000660434
0.000673036
0.000686635
0.000701524
0.000721245
0.000746937
0.000778414
0.00081515
0.000856655
0.000902635
0.000952962
0.00100758
0.00106635
0.00112912
0.00119566
0.00126595
0.00133629
0.00140418
0.00146989
0.00153396
0.00159613
0.001656
0.00171334
0.0017679
0.00181958
0.00186794
0.00191267
0.00195362
0.00199041