/*--------------------------------*- C++ -*----------------------------------*\
| =========                 |                                                 |
| \\      /  F ield         | OpenFOAM: The Open Source CFD Toolbox           |
|  \\    /   O peration     | Version:  v1706                                 |
|   \\  /    A nd           | Web:      www.OpenFOAM.com                      |
|    \\/     M anipulation  |                                                 |
\*---------------------------------------------------------------------------*/
FoamFile
{
    version     2.0;
    format      ascii;
    class       volScalarField;
    location    "3.1e-05";
    object      Tt;
}
// * * * * * * * * * * * * * * * * * * * * * * * * * * * * * * * * * * * * * //

dimensions      [0 0 0 1 0 0 0];


internalField   nonuniform List<scalar> 
29871
(
144.4
144.4
144.4
144.4
144.4
144.4
144.4
144.4
144.4
144.4
144.4
144.4
144.4
144.4
144.4
144.4
144.4
144.4
144.4
144.4
144.4
144.4
144.4
144.4
144.4
144.4
144.4
144.4
144.4
144.4
144.4
144.4
144.4
144.4
144.4
144.4
144.4
144.4
144.4
144.4
144.4
144.4
144.4
144.4
144.4
144.4
144.4
144.4
144.4
144.4
144.4
144.4
144.4
144.4
144.4
144.4
144.4
144.4
144.4
144.4
144.4
144.4
144.4
144.4
144.4
144.4
144.4
144.4
144.4
144.4
144.4
144.4
144.4
144.4
144.4
144.4
144.4
144.4
144.4
144.4
144.4
144.4
144.4
144.4
144.4
144.4
144.4
144.4
144.4
144.4
144.4
144.4
144.4
144.4
144.4
144.4
144.4
144.4
144.4
144.4
144.4
144.4
144.4
144.4
144.4
144.4
144.4
144.4
144.4
144.4
144.4
144.4
144.4
144.4
144.4
144.4
144.4
144.4
144.4
144.4
144.4
144.4
144.4
144.4
144.4
144.4
144.4
144.4
144.4
144.4
144.4
144.4
144.4
144.4
144.4
144.4
144.4
144.4
144.4
144.4
144.4
144.4
144.4
144.4
144.4
144.4
144.4
144.4
144.4
144.4
144.4
144.4
144.4
144.4
144.4
144.4
144.4
144.4
144.4
144.4
144.4
144.4
144.4
144.4
144.4
144.4
144.4
144.4
144.4
144.4
144.4
144.4
144.4
144.4
144.4
144.4
144.4
144.4
144.4
144.4
144.4
144.4
144.4
144.4
144.4
144.4
144.4
144.4
144.4
144.4
144.4
144.4
144.4
144.4
144.4
144.4
144.4
144.4
144.4
144.4
144.4
144.4
144.4
144.4
144.4
144.4
144.4
144.4
144.4
144.4
144.4
144.4
144.4
144.4
144.4
144.4
144.4
144.4
144.4
144.4
144.4
144.4
144.4
144.4
144.4
144.4
144.4
144.4
144.4
144.4
144.4
144.4
144.4
144.4
144.4
144.4
144.4
144.4
144.4
144.4
144.4
144.4
144.4
144.4
144.4
144.4
144.4
144.4
144.4
144.4
144.4
144.4
144.4
144.4
144.4
144.4
144.4
144.4
144.4
144.4
144.4
144.4
144.4
144.4
144.4
144.4
144.4
144.4
144.4
144.4
144.4
144.4
144.4
144.4
144.4
144.4
144.4
144.4
144.4
144.4
144.4
144.4
144.4
144.4
144.4
144.4
144.4
144.4
144.4
144.4
144.4
144.4
144.4
144.4
144.4
144.4
144.4
144.4
144.4
144.4
144.4
144.4
144.4
144.4
144.4
144.4
144.4
144.4
144.4
144.4
144.4
144.4
144.4
144.4
144.4
144.4
144.4
144.4
144.4
144.4
144.4
144.4
144.4
144.4
144.4
144.4
144.4
144.4
144.4
144.4
144.4
144.4
144.4
144.4
144.4
144.4
144.4
144.4
144.4
144.4
144.4
144.4
144.4
144.4
144.4
144.4
144.4
144.4
144.4
144.4
144.4
144.4
144.4
144.4
144.4
144.4
144.4
144.4
144.4
144.4
144.4
144.4
144.4
144.4
144.4
144.4
144.4
144.4
144.4
144.4
144.4
144.4
144.4
144.4
144.4
144.4
144.4
144.4
144.4
144.4
144.4
144.4
144.4
144.4
144.4
144.4
144.4
144.4
144.4
144.4
144.4
144.4
144.4
144.4
144.4
144.4
144.4
144.4
144.4
144.4
144.4
144.4
144.4
144.4
144.4
144.4
144.4
144.4
144.4
144.4
144.4
144.4
144.4
144.4
144.4
144.4
144.4
144.4
144.4
144.4
144.4
144.4
144.4
144.4
144.4
144.4
144.4
144.4
144.4
144.4
144.4
144.4
144.4
144.4
144.4
144.4
144.4
144.4
144.4
144.4
144.4
144.4
144.4
144.4
144.4
144.4
144.4
144.4
144.4
144.4
144.4
144.4
144.4
144.4
144.4
144.4
144.4
144.4
144.4
144.4
144.4
144.4
144.4
144.4
144.4
144.4
144.4
144.4
144.4
144.4
144.4
144.4
144.4
144.4
144.4
144.4
144.4
144.4
144.4
144.4
144.4
144.4
144.4
144.4
144.4
144.4
144.4
144.4
144.4
144.4
144.4
144.4
144.4
144.4
144.4
144.4
144.4
144.4
144.4
144.4
144.4
144.4
144.4
144.4
144.4
144.4
144.4
144.4
144.4
144.4
144.4
144.4
144.4
144.4
144.4
144.4
144.4
144.4
144.4
144.4
144.4
144.4
144.4
144.4
144.4
144.4
144.4
144.4
144.4
144.4
144.4
144.4
144.4
144.4
144.4
144.4
144.4
144.4
144.4
144.4
144.4
144.4
144.4
144.4
144.4
144.4
144.4
144.4
144.4
144.4
144.4
144.4
144.4
144.4
144.4
144.4
144.4
144.4
144.4
144.4
144.4
144.4
144.4
144.4
144.4
144.4
144.4
144.4
144.4
144.4
144.4
144.4
144.4
144.4
144.4
144.4
144.4
144.4
144.4
144.4
144.4
144.4
144.4
144.4
144.4
144.4
144.4
144.4
144.4
144.4
144.4
144.4
144.4
144.4
144.4
144.4
144.4
144.4
144.4
144.4
144.4
144.4
144.4
144.4
144.4
144.4
144.4
144.4
144.4
144.4
144.4
144.4
144.4
144.4
144.4
144.4
144.4
144.4
144.4
144.4
144.4
144.4
144.4
144.4
144.4
144.4
144.4
144.4
144.4
144.4
144.4
144.4
144.4
144.4
144.4
144.4
144.4
144.4
144.4
144.4
144.4
144.4
144.4
144.4
144.4
144.4
144.4
144.4
144.4
144.4
144.4
144.4
144.4
144.4
144.4
144.4
144.4
144.4
144.4
144.4
144.4
144.4
144.4
144.4
144.4
144.4
144.4
144.4
144.4
144.4
144.4
144.4
144.4
144.4
144.4
144.4
144.4
144.4
144.4
144.4
144.4
144.4
144.4
144.4
144.4
144.4
144.4
144.4
144.4
144.4
144.4
144.4
144.4
144.4
144.4
144.4
144.4
144.4
144.4
144.4
144.4
144.4
144.4
144.4
144.4
144.4
144.4
144.4
144.4
144.4
144.4
144.4
144.4
144.4
144.4
144.4
144.4
144.4
144.4
144.4
144.4
144.4
144.4
144.4
144.4
144.4
144.4
144.4
144.4
144.4
144.4
144.4
144.4
144.4
144.4
144.4
144.4
144.4
144.4
144.4
144.4
144.4
144.4
144.4
144.4
144.4
144.4
144.4
144.4
144.4
144.4
144.4
144.4
144.4
144.4
144.4
144.4
144.4
144.4
144.4
144.4
144.4
144.4
144.4
144.4
144.4
144.4
144.4
144.4
144.4
144.4
144.4
144.4
144.4
144.4
144.4
144.4
144.4
144.4
144.4
144.4
144.4
144.4
144.4
144.4
144.4
144.4
144.4
144.4
144.4
144.4
144.4
144.4
144.4
144.4
144.4
144.4
144.4
144.4
144.4
144.4
144.4
144.4
144.4
144.4
144.4
144.4
144.4
144.4
144.4
144.4
144.4
144.4
144.4
144.4
144.4
144.4
144.4
144.4
144.4
144.4
144.4
144.4
144.4
144.4
144.4
144.4
144.4
144.4
144.4
144.4
144.4
144.4
144.4
144.4
144.4
144.4
144.4
144.4
144.4
144.4
144.4
144.4
144.4
144.4
144.4
144.4
144.4
144.4
144.4
144.4
144.4
144.4
144.4
144.4
144.4
144.4
144.4
144.4
144.4
144.4
144.4
144.4
144.4
144.4
144.4
144.4
144.4
144.4
144.4
144.4
144.4
144.4
144.4
144.4
144.4
144.4
144.4
144.4
144.4
144.4
144.4
144.4
144.4
144.4
144.4
144.4
144.4
144.4
144.4
144.4
144.4
144.4
144.4
144.4
144.4
144.4
144.4
144.4
144.4
144.4
144.4
144.4
144.4
144.4
144.4
144.4
144.4
144.4
144.4
144.4
144.4
144.4
144.4
144.4
144.4
144.4
144.4
144.4
144.4
144.4
144.4
144.4
144.4
144.4
144.4
144.4
144.4
144.4
144.4
144.4
144.4
144.4
144.4
144.4
144.4
144.4
144.4
144.4
144.4
144.4
144.4
144.4
144.4
144.4
144.4
144.4
144.4
144.4
144.4
144.4
144.4
144.4
144.4
144.4
144.4
144.4
144.4
144.4
144.4
144.4
144.4
144.4
144.401
144.401
144.401
144.4
144.4
144.4
144.4
144.4
144.4
144.4
144.4
144.4
144.4
144.4
144.4
144.4
144.4
144.4
144.4
144.4
144.4
144.4
144.4
144.4
144.4
144.4
144.4
144.4
144.4
144.4
144.4
144.4
144.4
144.4
144.4
144.4
144.4
144.4
144.4
144.4
144.4
144.4
144.4
144.4
144.4
144.4
144.4
144.4
144.4
144.4
144.4
144.4
144.4
144.4
144.4
144.4
144.4
144.4
144.4
144.4
144.4
144.4
144.4
144.4
144.4
144.4
144.4
144.4
144.4
144.4
144.4
144.4
144.4
144.4
144.4
144.4
144.4
144.4
144.4
144.4
144.4
144.4
144.4
144.4
144.4
144.4
144.4
144.4
144.4
144.4
144.4
144.4
144.4
144.4
144.4
144.4
144.401
144.401
144.401
144.401
144.401
144.401
144.401
144.401
144.401
144.402
144.402
144.402
144.402
144.403
144.403
144.403
144.404
144.4
144.4
144.4
144.4
144.4
144.4
144.4
144.4
144.4
144.4
144.4
144.4
144.4
144.4
144.4
144.4
144.4
144.4
144.4
144.4
144.4
144.4
144.4
144.4
144.4
144.4
144.4
144.4
144.4
144.4
144.4
144.4
144.4
144.4
144.4
144.4
144.4
144.4
144.4
144.4
144.4
144.4
144.4
144.4
144.4
144.4
144.4
144.4
144.4
144.4
144.4
144.4
144.4
144.4
144.4
144.4
144.4
144.4
144.4
144.4
144.4
144.4
144.4
144.4
144.4
144.4
144.4
144.4
144.4
144.4
144.4
144.4
144.4
144.4
144.4
144.4
144.4
144.4
144.401
144.401
144.401
144.401
144.401
144.401
144.401
144.401
144.401
144.401
144.402
144.402
144.402
144.402
144.403
144.403
144.403
144.404
144.404
144.405
144.405
144.406
144.407
144.408
144.409
144.41
144.412
144.413
144.415
144.417
144.419
144.422
144.4
144.4
144.4
144.4
144.4
144.4
144.4
144.4
144.4
144.4
144.4
144.4
144.4
144.4
144.4
144.4
144.4
144.4
144.4
144.4
144.4
144.4
144.4
144.4
144.4
144.4
144.4
144.4
144.4
144.4
144.4
144.4
144.4
144.4
144.4
144.4
144.4
144.4
144.4
144.4
144.4
144.4
144.4
144.4
144.4
144.4
144.4
144.4
144.4
144.4
144.4
144.4
144.4
144.4
144.4
144.4
144.4
144.4
144.4
144.4
144.4
144.4
144.4
144.4
144.401
144.401
144.401
144.401
144.401
144.401
144.401
144.401
144.401
144.401
144.402
144.402
144.402
144.402
144.402
144.403
144.403
144.403
144.404
144.404
144.405
144.405
144.406
144.407
144.408
144.409
144.41
144.411
144.412
144.414
144.416
144.418
144.42
144.423
144.426
144.429
144.434
144.438
144.444
144.45
144.457
144.464
144.473
144.482
144.493
144.506
144.522
144.4
144.4
144.4
144.4
144.4
144.4
144.4
144.4
144.4
144.4
144.4
144.4
144.4
144.4
144.4
144.4
144.4
144.4
144.4
144.4
144.4
144.4
144.4
144.4
144.4
144.4
144.4
144.4
144.4
144.4
144.4
144.4
144.4
144.4
144.4
144.4
144.4
144.4
144.4
144.4
144.4
144.4
144.4
144.4
144.4
144.4
144.401
144.401
144.401
144.401
144.401
144.401
144.401
144.401
144.401
144.401
144.401
144.401
144.401
144.402
144.402
144.402
144.402
144.402
144.403
144.403
144.403
144.404
144.404
144.404
144.405
144.406
144.406
144.407
144.408
144.409
144.41
144.411
144.412
144.414
144.415
144.417
144.419
144.422
144.425
144.428
144.431
144.435
144.439
144.445
144.451
144.458
144.466
144.474
144.484
144.495
144.507
144.521
144.537
144.556
144.579
144.605
144.634
144.667
144.704
144.744
144.789
144.84
144.9
144.973
145.059
145.161
145.277
144.4
144.4
144.4
144.4
144.4
144.4
144.4
144.4
144.4
144.4
144.4
144.4
144.4
144.4
144.4
144.4
144.4
144.4
144.4
144.4
144.4
144.4
144.4
144.4
144.4
144.401
144.401
144.401
144.401
144.401
144.401
144.401
144.401
144.401
144.401
144.401
144.401
144.401
144.401
144.401
144.402
144.402
144.402
144.402
144.402
144.402
144.402
144.403
144.403
144.403
144.403
144.404
144.404
144.404
144.405
144.405
144.406
144.406
144.407
144.408
144.409
144.41
144.411
144.412
144.413
144.414
144.416
144.418
144.42
144.422
144.425
144.427
144.431
144.434
144.438
144.443
144.448
144.454
144.46
144.468
144.477
144.487
144.498
144.511
144.524
144.54
144.557
144.578
144.601
144.629
144.661
144.697
144.737
144.782
144.832
144.887
144.95
145.023
145.109
145.212
145.332
145.471
145.628
145.803
145.995
146.206
146.439
146.707
147.026
147.413
147.876
148.418
149.037
144.4
144.4
144.4
144.4
144.4
144.4
144.4
144.4
144.401
144.401
144.401
144.401
144.401
144.401
144.401
144.401
144.401
144.401
144.401
144.401
144.401
144.401
144.402
144.402
144.402
144.402
144.402
144.402
144.402
144.403
144.403
144.403
144.403
144.403
144.404
144.404
144.404
144.405
144.405
144.405
144.406
144.406
144.407
144.407
144.408
144.409
144.409
144.41
144.411
144.412
144.413
144.415
144.416
144.417
144.419
144.421
144.423
144.425
144.428
144.43
144.434
144.437
144.441
144.445
144.45
144.455
144.461
144.468
144.476
144.485
144.495
144.506
144.519
144.533
144.549
144.566
144.586
144.608
144.633
144.663
144.697
144.736
144.78
144.83
144.885
144.946
145.014
145.09
145.178
145.282
145.403
145.545
145.708
145.892
146.099
146.327
146.576
146.853
147.167
147.535
147.976
148.501
149.115
149.819
150.61
151.483
152.433
153.462
154.593
155.896
157.474
159.404
161.706
164.36
167.323
144.401
144.401
144.401
144.402
144.402
144.402
144.402
144.402
144.402
144.403
144.403
144.403
144.403
144.403
144.404
144.404
144.404
144.405
144.405
144.406
144.406
144.406
144.407
144.407
144.408
144.409
144.409
144.41
144.411
144.411
144.412
144.413
144.414
144.415
144.417
144.418
144.419
144.421
144.423
144.424
144.426
144.428
144.431
144.433
144.436
144.439
144.443
144.447
144.451
144.455
144.46
144.466
144.472
144.479
144.486
144.494
144.504
144.514
144.526
144.54
144.555
144.572
144.59
144.61
144.633
144.658
144.686
144.719
144.756
144.799
144.847
144.902
144.963
145.03
145.105
145.188
145.282
145.388
145.512
145.657
145.824
146.016
146.233
146.476
146.744
147.039
147.365
147.732
148.159
148.663
149.256
149.947
150.738
151.626
152.609
153.683
154.85
156.128
157.58
159.308
161.391
163.862
166.712
169.91
173.414
177.179
181.171
185.379
189.881
194.997
201.21
208.654
217.185
226.55
236.485
246.753
144.403
144.403
144.403
144.403
144.404
144.404
144.405
144.405
144.405
144.406
144.407
144.407
144.408
144.408
144.409
144.41
144.411
144.412
144.413
144.414
144.415
144.416
144.417
144.419
144.42
144.422
144.424
144.425
144.427
144.43
144.432
144.434
144.437
144.44
144.443
144.446
144.449
144.453
144.457
144.462
144.467
144.472
144.478
144.484
144.491
144.498
144.506
144.514
144.523
144.534
144.545
144.558
144.572
144.588
144.605
144.624
144.645
144.668
144.693
144.72
144.75
144.784
144.822
144.866
144.915
144.97
145.031
145.1
145.177
145.261
145.353
145.456
145.572
145.704
145.855
146.031
146.232
146.46
146.716
147.002
147.317
147.663
148.045
148.476
148.972
149.551
150.227
151.007
151.895
152.892
153.995
155.201
156.514
157.951
159.569
161.465
163.718
166.363
169.397
172.796
176.522
180.537
184.803
189.307
194.113
199.478
205.851
213.385
221.981
231.43
241.509
252.005
262.737
273.57
284.459
295.515
307.675
323.18
341.063
359.963
378.845
397.042
414.138
144.411
144.412
144.413
144.415
144.416
144.418
144.419
144.421
144.423
144.425
144.427
144.43
144.433
144.436
144.439
144.442
144.445
144.449
144.453
144.458
144.462
144.467
144.473
144.479
144.485
144.492
144.499
144.507
144.515
144.524
144.533
144.543
144.554
144.566
144.579
144.592
144.607
144.624
144.641
144.661
144.682
144.705
144.73
144.756
144.785
144.816
144.85
144.887
144.927
144.973
145.023
145.078
145.14
145.209
145.285
145.368
145.459
145.559
145.667
145.787
145.92
146.07
146.241
146.435
146.656
146.904
147.182
147.491
147.831
148.204
148.613
149.066
149.577
150.164
150.842
151.623
152.513
153.517
154.636
155.869
157.217
158.683
160.287
162.089
164.178
166.628
169.47
172.704
176.309
180.253
184.502
189.024
193.804
198.895
204.519
211.075
218.704
227.324
236.758
246.81
257.293
268.043
278.926
289.88
300.993
312.926
327.76
344.775
362.813
380.966
398.623
415.384
431.001
445.393
458.54
470.418
481.033
490.191
498.134
505.112
511.262
516.621
521.167
144.445
144.45
144.455
144.46
144.466
144.473
144.48
144.487
144.495
144.504
144.513
144.524
144.534
144.546
144.559
144.572
144.587
144.602
144.618
144.636
144.655
144.676
144.698
144.722
144.748
144.776
144.806
144.838
144.872
144.909
144.947
144.989
145.034
145.082
145.135
145.192
145.254
145.323
145.397
145.478
145.566
145.661
145.764
145.875
145.995
146.124
146.265
146.42
146.591
146.783
146.997
147.236
147.502
147.796
148.119
148.473
148.859
149.278
149.735
150.237
150.799
151.435
152.16
152.983
153.912
154.951
156.104
157.373
158.759
160.265
161.902
163.7
165.732
168.073
170.776
173.858
177.314
181.126
185.271
189.722
194.454
199.457
204.79
210.672
217.428
225.163
233.8
243.183
253.145
263.526
274.19
285.013
295.926
306.995
318.759
333.017
349.182
366.274
383.497
400.308
416.352
431.394
445.325
458.12
469.75
480.238
489.38
497.337
504.326
510.524
516.003
520.754
524.768
528.1
530.808
532.95
534.551
535.708
536.591
537.333
538.075
538.909
539.791
144.584
144.602
144.623
144.644
144.668
144.693
144.721
144.751
144.783
144.818
144.856
144.897
144.94
144.987
145.038
145.091
145.148
145.21
145.276
145.347
145.423
145.506
145.595
145.691
145.794
145.905
146.024
146.152
146.288
146.432
146.587
146.752
146.93
147.123
147.334
147.565
147.819
148.096
148.398
148.726
149.083
149.467
149.882
150.326
150.803
151.317
151.877
152.495
153.183
153.952
154.808
155.759
156.809
157.962
159.221
160.588
162.066
163.657
165.375
167.254
169.357
171.745
174.456
177.507
180.896
184.614
188.647
192.979
197.593
202.475
207.64
213.188
219.383
226.412
234.279
242.892
252.127
261.857
271.961
282.334
292.88
303.546
314.391
326.035
339.783
355.091
371.163
387.336
403.149
418.304
432.602
445.929
458.247
469.508
479.715
488.696
496.586
503.52
509.643
515.06
519.813
523.912
527.37
530.208
532.513
534.345
535.722
536.761
537.648
538.487
539.341
540.279
541.233
542.121
542.905
543.587
544.11
544.447
544.602
544.65
544.702
544.779
544.884
545.048
545.257
145.129
145.201
145.28
145.365
145.457
145.557
145.665
145.782
145.908
146.044
146.191
146.349
146.518
146.698
146.89
147.096
147.315
147.55
147.803
148.076
148.372
148.691
149.035
149.407
149.806
150.233
150.69
151.176
151.692
152.24
152.821
153.443
154.115
154.845
155.642
156.513
157.463
158.496
159.616
160.826
162.127
163.521
165.01
166.594
168.279
170.08
172.037
174.201
176.609
179.285
182.239
185.473
188.982
192.761
196.8
201.089
205.616
210.376
215.396
220.781
226.752
233.41
240.745
248.691
257.17
266.097
275.393
284.98
294.785
304.744
314.855
325.257
337.005
350.357
364.72
379.503
394.259
408.674
422.535
435.69
448.049
459.574
470.2
479.859
488.408
496.003
502.758
508.749
514.064
518.757
522.854
526.381
529.329
531.738
533.703
535.274
536.492
537.476
538.38
539.271
540.181
541.134
542.065
542.909
543.659
544.278
544.754
545.081
545.272
545.399
545.558
545.797
546.063
546.347
546.679
547.043
547.345
547.569
547.724
547.787
547.803
547.794
547.776
547.786
547.833
147.21
147.484
147.779
148.098
148.443
148.816
149.22
149.657
150.128
150.636
151.181
151.764
152.386
153.047
153.748
154.492
155.284
156.132
157.042
158.022
159.076
160.208
161.422
162.718
164.1
165.567
167.12
168.758
170.48
172.288
174.191
176.217
178.402
180.776
183.355
186.151
189.165
192.398
195.846
199.504
203.362
207.413
211.647
216.056
220.642
225.453
230.621
236.269
242.425
249.067
256.157
263.652
271.508
279.678
288.111
296.758
305.572
314.513
323.604
333.03
343.743
355.606
368.188
381.11
394.079
406.871
419.326
431.329
442.774
453.604
463.769
473.234
481.835
489.531
496.431
502.646
508.23
513.227
517.669
521.582
525.008
527.953
530.401
532.406
534.065
535.432
536.555
537.585
538.619
539.644
540.666
541.676
542.605
543.431
544.147
544.718
545.161
545.482
545.702
545.885
546.112
546.407
546.727
547.068
547.393
547.744
548.085
548.343
548.531
548.647
548.761
548.898
549.045
549.195
549.388
549.645
549.899
550.123
550.302
550.425
550.471
550.461
550.427
550.38
550.345
153.869
154.775
155.745
156.785
157.902
159.104
160.397
161.786
163.274
164.864
166.556
168.351
170.248
172.246
174.342
176.536
178.838
181.271
183.86
186.623
189.572
192.712
196.041
199.556
203.25
207.114
211.137
215.307
219.612
224.039
228.582
233.276
238.213
243.476
249.086
255.029
261.284
267.827
274.635
281.678
288.928
296.349
303.91
311.577
319.32
327.131
335.069
343.612
353.075
363.227
373.805
384.601
395.455
406.24
416.845
427.184
437.184
446.784
455.947
464.633
472.798
480.274
487.104
493.346
499.039
504.244
508.997
513.318
517.207
520.667
523.721
526.387
528.678
530.594
532.195
533.602
534.862
536.049
537.282
538.504
539.659
540.761
541.807
542.738
543.543
544.222
544.758
545.187
545.546
545.823
546.102
546.446
546.83
547.221
547.625
547.982
548.354
548.718
548.999
549.209
549.36
549.512
549.689
549.882
550.094
550.316
550.571
550.878
551.153
551.378
551.542
551.683
551.804
551.917
552.03
552.168
552.347
552.548
552.748
552.924
553.062
553.149
553.172
553.16
553.125
553.082
176.623
179.38
182.285
185.36
188.625
192.095
195.779
199.676
203.782
208.088
212.582
217.247
222.066
227.019
232.088
237.265
242.577
248.106
253.886
259.913
266.166
272.621
279.255
286.046
292.969
299.998
307.102
314.255
321.427
328.591
335.735
342.901
350.458
358.614
367.223
376.121
385.178
394.288
403.365
412.338
421.145
429.731
438.054
446.075
453.767
461.112
468.082
474.6
480.625
486.212
491.409
496.249
500.755
504.935
508.794
512.338
515.57
518.494
521.127
523.477
525.547
527.367
528.976
530.416
531.829
533.277
534.659
536.01
537.368
538.639
539.779
540.853
541.833
542.674
543.389
543.969
544.418
544.865
545.316
545.69
546.081
546.569
547.08
547.554
548.009
548.428
548.867
549.285
549.608
549.843
550.038
550.259
550.493
550.75
551.025
551.287
551.578
551.921
552.217
552.457
552.639
552.797
552.942
553.086
553.243
553.414
553.618
553.859
554.108
554.343
554.547
554.72
554.869
555.004
555.135
555.278
555.446
555.633
555.828
556.012
556.17
556.291
556.37
556.398
556.392
556.371
556.341
556.305
236.632
242.93
249.394
256.083
263.021
270.19
277.552
285.071
292.711
300.438
308.221
316.027
323.825
331.583
339.272
346.877
354.449
362.4
370.7
379.219
387.842
396.473
405.03
413.445
421.661
429.632
437.323
444.703
451.749
458.442
464.773
470.734
476.279
481.403
486.165
490.609
494.762
498.642
502.26
505.622
508.733
511.597
514.221
516.613
518.785
520.745
522.501
524.083
525.553
526.979
528.393
529.801
531.2
532.584
533.934
535.226
536.456
537.632
538.732
539.735
540.652
541.474
542.139
542.682
543.231
543.723
544.196
544.778
545.359
545.863
546.409
547.036
547.595
548.107
548.641
549.147
549.598
550.015
550.322
550.565
550.781
551.092
551.43
551.758
552.084
552.406
552.784
553.195
553.517
553.773
553.976
554.158
554.328
554.511
554.711
554.915
555.149
555.414
555.681
555.93
556.145
556.33
556.493
556.646
556.802
556.975
557.176
557.403
557.647
557.895
558.133
558.354
558.554
558.734
558.902
559.073
559.257
559.456
559.662
559.86
560.037
560.18
560.287
560.352
560.365
560.357
560.336
560.304
345.91
354.909
363.812
372.972
382.382
391.919
401.458
410.889
420.122
429.081
437.705
445.947
453.772
461.156
468.084
474.545
480.525
485.957
490.893
495.398
499.522
503.304
506.771
509.943
512.833
515.453
517.813
519.924
521.796
523.436
524.858
526.103
527.24
528.327
529.401
530.477
531.555
532.627
533.686
534.723
535.729
536.697
537.619
538.488
539.298
540.039
540.692
541.242
541.71
542.141
542.563
543.001
543.471
543.974
544.497
545.042
545.625
546.232
546.83
547.429
548.047
548.657
549.216
549.73
550.223
550.558
550.859
551.241
551.566
551.835
552.181
552.616
552.994
553.362
553.779
554.214
554.657
555.061
555.33
555.546
555.722
555.925
556.14
556.364
556.597
556.844
557.133
557.447
557.746
558.013
558.243
558.441
558.618
558.791
558.973
559.169
559.391
559.634
559.889
560.146
560.393
560.621
560.828
561.018
561.199
561.389
561.599
561.832
562.082
562.341
562.6
562.848
563.08
563.294
563.495
563.692
563.895
564.11
564.332
564.55
564.749
564.918
565.049
565.14
565.181
565.18
565.166
565.138
476.483
484.332
491.554
498.066
503.894
509.097
513.738
517.877
521.567
524.853
527.763
530.323
532.555
534.474
536.087
537.403
538.446
539.302
540.061
540.773
541.46
542.127
542.771
543.389
543.975
544.525
545.034
545.495
545.902
546.23
546.453
546.574
546.626
546.651
546.684
546.741
546.834
546.971
547.16
547.4
547.689
548.023
548.396
548.805
549.245
549.714
550.203
550.689
551.131
551.499
551.8
552.063
552.321
552.588
552.862
553.158
553.503
553.882
554.263
554.666
555.12
555.588
556.048
556.528
556.989
557.268
557.526
557.802
557.984
558.135
558.356
558.62
558.875
559.13
559.394
559.68
560.046
560.372
560.665
560.913
561.107
561.285
561.467
561.66
561.864
562.086
562.338
562.612
562.897
563.178
563.438
563.673
563.881
564.073
564.26
564.455
564.668
564.898
565.143
565.396
565.65
565.895
566.125
566.338
566.54
566.746
566.966
567.207
567.467
567.74
568.018
568.291
568.552
568.796
569.026
569.248
569.472
569.703
569.94
570.177
570.399
570.595
570.752
570.868
570.937
570.948
570.939
570.913
570.869
554.153
555.7
556.866
557.723
558.388
558.942
559.422
559.839
560.204
560.5
560.74
560.924
561.051
561.045
560.948
560.701
560.333
559.917
559.501
559.101
558.729
558.394
558.103
557.864
557.679
557.55
557.473
557.476
557.525
557.636
557.766
557.851
557.842
557.792
557.711
557.625
557.554
557.519
557.534
557.589
557.697
557.856
558.067
558.327
558.637
559.003
559.415
559.832
560.198
560.489
560.717
560.905
561.069
561.213
561.367
561.565
561.788
561.993
562.236
562.553
562.851
563.156
563.519
563.881
564.147
564.412
564.641
564.82
564.958
565.142
565.339
565.541
565.751
565.946
566.159
566.455
566.756
567.05
567.324
567.553
567.746
567.926
568.105
568.288
568.487
568.706
568.948
569.207
569.473
569.734
569.979
570.202
570.405
570.597
570.791
570.996
571.217
571.454
571.703
571.959
572.212
572.455
572.685
572.905
573.125
573.354
573.601
573.869
574.155
574.45
574.746
575.035
575.309
575.568
575.816
576.06
576.306
576.557
576.808
577.051
577.271
577.456
577.597
577.694
577.729
577.723
577.7
577.655
580.699
580.507
580.13
579.55
578.863
578.159
577.465
576.784
576.101
575.448
574.839
574.276
573.77
573.318
572.957
572.685
572.387
571.994
571.508
570.968
570.41
569.862
569.341
568.865
568.442
568.081
567.787
567.569
567.427
567.422
567.472
567.55
567.595
567.584
567.535
567.451
567.348
567.249
567.171
567.123
567.127
567.162
567.243
567.372
567.549
567.775
568.054
568.376
568.709
569.014
569.273
569.486
569.657
569.788
569.917
570.093
570.246
570.37
570.552
570.804
571
571.216
571.512
571.803
572.056
572.316
572.556
572.744
572.893
573.037
573.188
573.355
573.526
573.68
573.853
574.068
574.317
574.578
574.84
575.077
575.281
575.464
575.636
575.806
575.985
576.18
576.396
576.632
576.881
577.133
577.377
577.605
577.813
578.008
578.2
578.397
578.607
578.834
579.078
579.332
579.589
579.842
580.085
580.32
580.551
580.789
581.041
581.314
581.609
581.918
582.235
582.55
582.854
583.144
583.42
583.687
583.949
584.213
584.478
584.736
584.976
585.185
585.352
585.475
585.54
585.541
585.522
585.478
593.129
592.514
591.96
591.319
590.542
589.682
588.778
587.835
586.914
586.036
585.194
584.399
583.674
583.063
582.561
582.131
581.71
581.253
580.75
580.212
579.657
579.107
578.581
578.095
577.659
577.284
576.976
576.738
576.582
576.57
576.617
576.709
576.807
576.884
576.931
576.939
576.933
576.921
576.918
576.93
576.963
577.022
577.114
577.239
577.399
577.602
577.85
578.134
578.429
578.706
578.949
579.142
579.281
579.416
579.581
579.673
579.755
579.902
580.077
580.198
580.351
580.584
580.793
580.996
581.225
581.456
581.642
581.786
581.914
582.039
582.177
582.317
582.446
582.59
582.763
582.964
583.184
583.418
583.646
583.853
584.038
584.208
584.37
584.534
584.71
584.903
585.118
585.35
585.59
585.828
586.054
586.265
586.461
586.649
586.839
587.039
587.255
587.489
587.738
587.996
588.255
588.51
588.759
589.003
589.251
589.51
589.788
590.088
590.408
590.742
591.079
591.412
591.732
592.038
592.33
592.613
592.892
593.168
593.439
593.695
593.924
594.114
594.26
594.354
594.372
594.358
594.316
602.54
601.663
600.823
599.944
599.069
598.137
597.124
596.141
595.215
594.305
593.43
592.619
591.903
591.295
590.81
590.418
590.08
589.754
589.417
589.064
588.699
588.333
587.977
587.642
587.341
587.081
586.87
586.707
586.638
586.663
586.747
586.878
587.028
587.171
587.288
587.377
587.443
587.495
587.54
587.587
587.642
587.713
587.803
587.915
588.056
588.232
588.446
588.689
588.941
589.179
589.377
589.53
589.681
589.824
589.88
589.95
590.077
590.179
590.25
590.369
590.547
590.686
590.837
591.033
591.246
591.414
591.55
591.672
591.784
591.903
592.021
592.133
592.255
592.4
592.569
592.757
592.962
593.172
593.375
593.562
593.733
593.892
594.047
594.208
594.384
594.579
594.793
595.02
595.249
595.472
595.683
595.88
596.068
596.253
596.444
596.649
596.871
597.112
597.367
597.629
597.893
598.154
598.413
598.673
598.942
599.226
599.532
599.861
600.207
600.563
600.92
601.27
601.606
601.926
602.232
602.528
602.818
603.1
603.368
603.613
603.823
603.989
604.107
604.148
604.139
604.101
604.028
603.92
610.875
609.894
609.021
608.207
607.49
606.735
605.932
605.181
604.434
603.667
602.925
602.221
601.569
600.978
600.487
600.09
599.776
599.524
599.308
599.107
598.906
598.701
598.493
598.287
598.092
597.914
597.764
597.641
597.562
597.568
597.621
597.733
597.889
598.066
598.242
598.4
598.534
598.642
598.729
598.801
598.866
598.931
599.001
599.083
599.182
599.303
599.453
599.636
599.842
600.052
600.24
600.403
600.567
600.682
600.734
600.808
600.909
600.964
601.009
601.111
601.228
601.322
601.436
601.607
601.793
601.937
602.071
602.191
602.301
602.41
602.517
602.618
602.725
602.85
602.996
603.162
603.345
603.54
603.736
603.923
604.097
604.258
604.411
604.564
604.727
604.905
605.102
605.314
605.533
605.75
605.96
606.158
606.347
606.53
606.716
606.911
607.123
607.353
607.602
607.864
608.133
608.406
608.678
608.953
609.234
609.528
609.842
610.178
610.535
610.906
611.284
611.659
612.023
612.371
612.702
613.019
613.324
613.618
613.897
614.154
614.379
614.562
614.699
614.765
614.762
614.73
614.658
614.546
619.932
618.961
618.063
617.27
616.584
615.906
615.272
614.679
614.088
613.499
612.921
612.364
611.836
611.338
610.897
610.526
610.231
610.008
609.847
609.73
609.639
609.559
609.479
609.398
609.315
609.235
609.162
609.101
609.059
609.064
609.102
609.188
609.321
609.49
609.678
609.867
610.043
610.195
610.323
610.426
610.51
610.582
610.647
610.715
610.788
610.872
610.976
611.108
611.267
611.438
611.607
611.773
611.936
612.037
612.104
612.19
612.266
612.301
612.341
612.427
612.493
612.558
612.651
612.804
612.958
613.087
613.221
613.345
613.458
613.566
613.67
613.768
613.868
613.98
614.111
614.261
614.429
614.612
614.802
614.989
615.167
615.333
615.489
615.642
615.798
615.964
616.146
616.342
616.548
616.758
616.964
617.163
617.354
617.539
617.722
617.911
618.114
618.334
618.575
618.833
619.105
619.386
619.671
619.96
620.255
620.562
620.886
621.231
621.598
621.982
622.377
622.774
623.163
623.537
623.894
624.232
624.554
624.86
625.149
625.417
625.653
625.849
626.001
626.089
626.093
626.067
625.997
625.881
628.512
627.678
626.934
626.265
625.643
625.097
624.605
624.146
623.704
623.276
622.866
622.477
622.107
621.767
621.469
621.224
621.037
620.911
620.84
620.811
620.813
620.823
620.84
620.855
620.867
620.877
620.885
620.897
620.923
620.97
621.047
621.159
621.306
621.48
621.669
621.859
622.037
622.195
622.328
622.438
622.526
622.599
622.665
622.727
622.792
622.867
622.963
623.082
623.218
623.365
623.523
623.674
623.779
623.866
623.966
624.032
624.061
624.112
624.171
624.22
624.267
624.344
624.481
624.61
624.73
624.866
625.001
625.119
625.233
625.343
625.445
625.545
625.652
625.774
625.913
626.071
626.245
626.43
626.618
626.801
626.974
627.137
627.293
627.448
627.607
627.777
627.959
628.152
628.352
628.554
628.752