/*--------------------------------*- C++ -*----------------------------------*\
| =========                 |                                                 |
| \\      /  F ield         | OpenFOAM: The Open Source CFD Toolbox           |
|  \\    /   O peration     | Version:  v1706                                 |
|   \\  /    A nd           | Web:      www.OpenFOAM.com                      |
|    \\/     M anipulation  |                                                 |
\*---------------------------------------------------------------------------*/
FoamFile
{
    version     2.0;
    format      ascii;
    class       volScalarField;
    location    "3.1e-05";
    object      Tv;
}
// * * * * * * * * * * * * * * * * * * * * * * * * * * * * * * * * * * * * * //

dimensions      [0 0 0 1 0 0 0];


internalField   nonuniform List<scalar> 
29871
(
144.4
144.4
144.4
144.4
144.4
144.4
144.4
144.4
144.4
144.4
144.4
144.4
144.4
144.4
144.4
144.4
144.4
144.4
144.4
144.4
144.4
144.4
144.4
144.4
144.4
144.4
144.4
144.4
144.4
144.4
144.4
144.4
144.4
144.4
144.4
144.4
144.4
144.4
144.4
144.4
144.4
144.4
144.4
144.4
144.4
144.4
144.4
144.4
144.4
144.4
144.4
144.4
144.4
144.4
144.4
144.4
144.4
144.4
144.4
144.4
144.4
144.4
144.4
144.4
144.4
144.4
144.4
144.4
144.4
144.4
144.4
144.4
144.4
144.4
144.4
144.4
144.4
144.4
144.4
144.4
144.4
144.4
144.4
144.4
144.4
144.4
144.4
144.4
144.4
144.4
144.4
144.4
144.4
144.4
144.4
144.4
144.4
144.4
144.4
144.4
144.4
144.4
144.4
144.4
144.4
144.4
144.4
144.4
144.4
144.4
144.4
144.4
144.4
144.4
144.4
144.4
144.4
144.4
144.4
144.4
144.4
144.4
144.4
144.4
144.4
144.4
144.4
144.4
144.4
144.4
144.4
144.4
144.4
144.4
144.4
144.4
144.4
144.4
144.4
144.4
144.4
144.4
144.4
144.4
144.4
144.4
144.4
144.4
144.4
144.4
144.4
144.4
144.4
144.4
144.4
144.4
144.4
144.4
144.4
144.4
144.4
144.4
144.4
144.4
144.4
144.4
144.4
144.4
144.4
144.4
144.4
144.4
144.4
144.4
144.4
144.4
144.4
144.4
144.4
144.4
144.4
144.4
144.4
144.4
144.4
144.4
144.4
144.4
144.4
144.4
144.4
144.4
144.4
144.4
144.4
144.4
144.4
144.4
144.4
144.4
144.4
144.4
144.4
144.4
144.4
144.4
144.4
144.4
144.4
144.4
144.4
144.4
144.4
144.4
144.4
144.4
144.4
144.4
144.4
144.4
144.4
144.4
144.4
144.4
144.4
144.4
144.4
144.4
144.4
144.4
144.4
144.4
144.4
144.4
144.4
144.4
144.4
144.4
144.4
144.4
144.4
144.4
144.4
144.4
144.4
144.4
144.4
144.4
144.4
144.4
144.4
144.4
144.4
144.4
144.4
144.4
144.4
144.4
144.4
144.4
144.4
144.4
144.4
144.4
144.4
144.4
144.4
144.4
144.4
144.4
144.4
144.4
144.4
144.4
144.4
144.4
144.4
144.4
144.4
144.4
144.4
144.4
144.4
144.4
144.4
144.4
144.4
144.4
144.4
144.4
144.4
144.4
144.4
144.4
144.4
144.4
144.4
144.4
144.4
144.4
144.4
144.4
144.4
144.4
144.4
144.4
144.4
144.4
144.4
144.4
144.4
144.4
144.4
144.4
144.4
144.4
144.4
144.4
144.4
144.4
144.4
144.4
144.4
144.4
144.4
144.4
144.4
144.4
144.4
144.4
144.4
144.4
144.4
144.4
144.4
144.4
144.4
144.4
144.4
144.4
144.4
144.4
144.4
144.4
144.4
144.4
144.4
144.4
144.4
144.4
144.4
144.4
144.4
144.4
144.4
144.4
144.4
144.4
144.4
144.4
144.4
144.4
144.4
144.4
144.4
144.4
144.4
144.4
144.4
144.4
144.4
144.4
144.4
144.4
144.4
144.4
144.4
144.4
144.4
144.4
144.4
144.4
144.4
144.4
144.4
144.4
144.4
144.4
144.4
144.4
144.4
144.4
144.4
144.4
144.4
144.4
144.4
144.4
144.4
144.4
144.4
144.4
144.4
144.4
144.4
144.4
144.4
144.4
144.4
144.4
144.4
144.4
144.4
144.4
144.4
144.4
144.4
144.4
144.4
144.4
144.4
144.4
144.4
144.4
144.4
144.4
144.4
144.4
144.4
144.4
144.4
144.4
144.4
144.4
144.4
144.4
144.4
144.4
144.4
144.4
144.4
144.4
144.4
144.4
144.4
144.4
144.4
144.4
144.4
144.4
144.4
144.4
144.4
144.4
144.4
144.4
144.4
144.4
144.4
144.4
144.4
144.4
144.4
144.4
144.4
144.4
144.4
144.4
144.4
144.4
144.4
144.4
144.4
144.4
144.4
144.4
144.4
144.4
144.4
144.4
144.4
144.4
144.4
144.4
144.4
144.4
144.4
144.4
144.4
144.4
144.4
144.4
144.4
144.4
144.4
144.4
144.4
144.4
144.4
144.4
144.4
144.4
144.4
144.4
144.4
144.4
144.4
144.4
144.4
144.4
144.4
144.4
144.4
144.4
144.4
144.4
144.4
144.4
144.4
144.4
144.4
144.4
144.4
144.4
144.4
144.4
144.4
144.4
144.4
144.4
144.4
144.4
144.4
144.4
144.4
144.4
144.4
144.4
144.4
144.4
144.4
144.4
144.4
144.4
144.4
144.4
144.4
144.4
144.4
144.4
144.4
144.4
144.4
144.4
144.4
144.4
144.4
144.4
144.4
144.4
144.4
144.4
144.4
144.4
144.4
144.4
144.4
144.4
144.4
144.4
144.4
144.4
144.4
144.4
144.4
144.4
144.4
144.4
144.4
144.4
144.4
144.4
144.4
144.4
144.4
144.4
144.4
144.4
144.4
144.4
144.4
144.4
144.4
144.4
144.4
144.4
144.4
144.4
144.4
144.4
144.4
144.4
144.4
144.4
144.4
144.4
144.4
144.4
144.4
144.4
144.4
144.4
144.4
144.4
144.4
144.4
144.4
144.4
144.4
144.4
144.4
144.4
144.4
144.4
144.4
144.4
144.4
144.4
144.4
144.4
144.4
144.4
144.4
144.4
144.4
144.4
144.4
144.4
144.4
144.4
144.4
144.4
144.4
144.4
144.4
144.4
144.4
144.4
144.4
144.4
144.4
144.4
144.4
144.4
144.4
144.4
144.4
144.4
144.4
144.4
144.4
144.4
144.4
144.4
144.4
144.4
144.4
144.4
144.4
144.4
144.4
144.4
144.4
144.4
144.4
144.4
144.4
144.4
144.4
144.4
144.4
144.4
144.4
144.4
144.4
144.4
144.4
144.4
144.4
144.4
144.4
144.4
144.4
144.4
144.4
144.4
144.4
144.4
144.4
144.4
144.4
144.4
144.4
144.4
144.4
144.4
144.4
144.4
144.4
144.4
144.4
144.4
144.4
144.4
144.4
144.4
144.4
144.4
144.4
144.4
144.4
144.4
144.4
144.4
144.4
144.4
144.4
144.4
144.4
144.4
144.4
144.4
144.4
144.4
144.4
144.4
144.4
144.4
144.4
144.4
144.4
144.4
144.4
144.4
144.4
144.4
144.4
144.4
144.4
144.4
144.4
144.4
144.4
144.4
144.4
144.4
144.4
144.4
144.4
144.4
144.4
144.4
144.4
144.4
144.4
144.4
144.4
144.4
144.4
144.4
144.4
144.4
144.4
144.4
144.4
144.4
144.4
144.4
144.4
144.4
144.4
144.4
144.4
144.4
144.4
144.4
144.4
144.4
144.4
144.4
144.4
144.4
144.4
144.4
144.4
144.4
144.4
144.4
144.4
144.4
144.4
144.4
144.4
144.4
144.4
144.4
144.4
144.4
144.4
144.4
144.4
144.4
144.4
144.4
144.4
144.4
144.4
144.4
144.4
144.4
144.4
144.4
144.4
144.4
144.4
144.4
144.4
144.4
144.4
144.4
144.4
144.4
144.4
144.4
144.4
144.4
144.4
144.4
144.4
144.4
144.4
144.4
144.4
144.4
144.4
144.4
144.4
144.4
144.4
144.4
144.4
144.4
144.4
144.4
144.4
144.4
144.4
144.4
144.4
144.4
144.4
144.4
144.4
144.4
144.4
144.4
144.4
144.4
144.4
144.4
144.4
144.4
144.4
144.4
144.4
144.4
144.4
144.4
144.4
144.4
144.4
144.4
144.4
144.4
144.4
144.4
144.4
144.4
144.4
144.4
144.4
144.4
144.4
144.4
144.4
144.4
144.4
144.4
144.4
144.4
144.4
144.4
144.4
144.4
144.4
144.4
144.4
144.4
144.4
144.4
144.4
144.4
144.4
144.4
144.4
144.4
144.4
144.4
144.4
144.4
144.4
144.4
144.4
144.4
144.4
144.4
144.4
144.4
144.4
144.4
144.4
144.4
144.4
144.4
144.4
144.4
144.4
144.4
144.4
144.4
144.4
144.4
144.4
144.4
144.4
144.4
144.4
144.4
144.4
144.4
144.4
144.4
144.4
144.4
144.4
144.4
144.4
144.4
144.4
144.4
144.4
144.4
144.4
144.4
144.4
144.4
144.4
144.4
144.4
144.4
144.4
144.4
144.4
144.4
144.4
144.4
144.4
144.4
144.4
144.4
144.4
144.4
144.4
144.4
144.4
144.4
144.4
144.4
144.4
144.4
144.4
144.4
144.4
144.4
144.4
144.4
144.4
144.4
144.4
144.4
144.4
144.4
144.4
144.4
144.4
144.4
144.4
144.4
144.4
144.4
144.4
144.4
144.4
144.4
144.4
144.4
144.4
144.4
144.4
144.4
144.4
144.4
144.4
144.4
144.4
144.4
144.4
144.4
144.4
144.4
144.4
144.4
144.4
144.4
144.4
144.4
144.4
144.4
144.4
144.4
144.4
144.4
144.4
144.4
144.4
144.4
144.4
144.4
144.4
144.4
144.4
144.4
144.4
144.4
144.4
144.4
144.4
144.4
144.4
144.4
144.4
144.4
144.4
144.4
144.4
144.4
144.4
144.4
144.4
144.4
144.4
144.4
144.4
144.4
144.4
144.4
144.4
144.4
144.4
144.4
144.4
144.4
144.4
144.4
144.4
144.4
144.4
144.4
144.4
144.4
144.4
144.4
144.4
144.4
144.4
144.4
144.4
144.4
144.4
144.4
144.4
144.4
144.4
144.4
144.4
144.4
144.4
144.4
144.4
144.4
144.4
144.4
144.4
144.4
144.4
144.4
144.4
144.4
144.4
144.4
144.4
144.4
144.4
144.4
144.4
144.4
144.4
144.4
144.4
144.4
144.4
144.4
144.4
144.4
144.4
144.4
144.4
144.4
144.4
144.4
144.4
144.4
144.4
144.4
144.4
144.4
144.4
144.4
144.4
144.4
144.4
144.4
144.4
144.4
144.4
144.4
144.4
144.4
144.4
144.4
144.4
144.4
144.4
144.4
144.4
144.4
144.4
144.4
144.4
144.4
144.4
144.4
144.4
144.4
144.4
144.4
144.4
144.4
144.4
144.4
144.4
144.4
144.4
144.4
144.4
144.4
144.4
144.4
144.4
144.4
144.4
144.4
144.4
144.4
144.4
144.4
144.4
144.4
144.4
144.4
144.4
144.4
144.4
144.4
144.4
144.4
144.4
144.4
144.4
144.4
144.4
144.4
144.4
144.4
144.4
144.4
144.4
144.4
144.4
144.4
144.4
144.4
144.4
144.4
144.4
144.4
144.4
144.4
144.4
144.4
144.4
144.4
144.4
144.4
144.4
144.4
144.4
144.4
144.4
144.4
144.4
144.4
144.4
144.4
144.4
144.4
144.4
144.4
144.4
144.4
144.4
144.4
144.4
144.4
144.4
144.4
144.4
144.4
144.4
144.4
144.4
144.4
144.4
144.4
144.4
144.4
144.4
144.4
144.4
144.4
144.4
144.4
144.4
144.4
144.4
144.4
144.4
144.4
144.4
144.4
144.4
144.4
144.4
144.4
144.4
144.4
144.4
144.4
144.4
144.4
144.4
144.4
144.4
144.4
144.4
144.4
144.4
144.4
144.4
144.4
144.4
144.4
144.4
144.4
144.4
144.4
144.4
144.4
144.4
144.4
144.4
144.4
144.4
144.4
144.4
144.4
144.4
144.4
144.4
144.4
144.4
144.4
144.4
144.4
144.4
144.4
144.4
144.4
144.4
144.4
144.4
144.4
144.4
144.4
144.4
144.4
144.4
144.4
144.4
144.4
144.4
144.4
144.4
144.4
144.4
144.4
144.4
144.4
144.4
144.4
144.4
144.4
144.4
144.4
144.4
144.4
144.4
144.4
144.4
144.4
144.4
144.4
144.4
144.4
144.4
144.4
144.4
144.4
144.4
144.4
144.4
144.4
144.4
144.4
144.4
144.4
144.4
144.4
144.4
144.4
144.4
144.4
144.4
144.4
144.4
144.4
144.4
144.4
144.4
144.4
144.4
144.4
144.4
144.4
144.4
144.4
144.4
144.4
144.4
144.4
144.4
144.4
144.4
144.4
144.4
144.4
144.4
144.4
144.4
144.4
144.4
144.4
144.4
144.4
144.4
144.4
144.4
144.4
144.4
144.4
144.4
144.4
144.4
144.4
144.4
144.4
144.4
144.4
144.4
144.4
144.4
144.4
144.4
144.4
144.4
144.4
144.4
144.4
144.4
144.4
144.4
144.4
144.4
144.4
144.4
144.4
144.4
144.4
144.4
144.4
144.4
144.4
144.4
144.4
144.4
144.4
144.4
144.4
144.4
144.4
144.4
144.4
144.4
144.4
144.4
144.4
144.4
144.4
144.4
144.4
144.4
144.4
144.4
144.4
144.4
144.4
144.4
144.4
144.4
144.4
144.4
144.4
144.4
144.4
144.4
144.4
144.4
144.4
144.4
144.4
144.4
144.4
144.4
144.4
144.4
144.4
144.4
144.4
144.4
144.4
144.4
144.4
144.4
144.4
144.4
144.4
144.4
144.4
144.4
144.4
144.4
144.4
144.4
144.4
144.4
144.4
144.4
144.4
144.4
144.4
144.4
144.4
144.4
144.4
144.4
144.4
144.4
144.4
144.4
144.4
144.4
144.4
144.4
144.4
144.4
144.4
144.4
144.4
144.4
144.4
144.4
144.4
144.4
144.4
144.4
144.4
144.4
144.4
144.4
144.4
144.4
144.4
144.4
144.4
144.4
144.4
144.4
144.4
144.4
144.4
144.4
144.4
144.4
144.4
144.4
144.4
144.4
144.4
144.4
144.4
144.4
144.4
144.4
144.4
144.4
144.4
144.4
144.4
144.4
144.4
144.4
144.4
144.4
144.4
144.4
144.4
144.4
144.4
144.4
144.4
144.4
144.4
144.4
144.4
144.4
144.4
144.4
144.4
144.4
144.4
144.4
144.4
144.4
144.4
144.4
144.4
144.4
144.4
144.4
144.4
144.4
144.4
144.4
144.4
144.4
144.4
144.4
144.4
144.4
144.4
144.4
144.4
144.4
144.4
144.4
144.4
144.4
144.4
144.4
144.4
144.4
144.4
144.4
144.4
144.401
144.401
144.401
144.401
144.4
144.4
144.4
144.4
144.4
144.4
144.4
144.4
144.4
144.4
144.4
144.4
144.4
144.4
144.4
144.4
144.4
144.4
144.4
144.4
144.4
144.4
144.4
144.4
144.4
144.4
144.4
144.4
144.4
144.4
144.4
144.4
144.4
144.4
144.4
144.4
144.4
144.4
144.4
144.4
144.4
144.4
144.4
144.4
144.4
144.4
144.4
144.4
144.4
144.4
144.4
144.4
144.4
144.4
144.4
144.4
144.4
144.4
144.4
144.4
144.4
144.4
144.4
144.4
144.4
144.4
144.4
144.4
144.4
144.4
144.4
144.4
144.4
144.4
144.4
144.4
144.4
144.4
144.4
144.4
144.4
144.4
144.4
144.4
144.4
144.4
144.4
144.4
144.4
144.4
144.4
144.4
144.4
144.4
144.4
144.4
144.4
144.401
144.401
144.401
144.401
144.401
144.401
144.401
144.401
144.402
144.402
144.402
144.402
144.403
144.403
144.404
144.404
144.405
144.405
144.406
144.4
144.4
144.4
144.4
144.4
144.4
144.4
144.4
144.4
144.4
144.4
144.4
144.4
144.4
144.4
144.4
144.4
144.4
144.4
144.4
144.4
144.4
144.4
144.4
144.4
144.4
144.4
144.4
144.4
144.4
144.4
144.4
144.4
144.4
144.4
144.4
144.4
144.4
144.4
144.4
144.4
144.4
144.4
144.4
144.4
144.4
144.4
144.4
144.4
144.4
144.4
144.4
144.4
144.4
144.4
144.4
144.4
144.4
144.4
144.4
144.4
144.4
144.4
144.4
144.4
144.4
144.4
144.4
144.4
144.4
144.4
144.4
144.4
144.4
144.4
144.4
144.4
144.4
144.4
144.4
144.4
144.4
144.4
144.4
144.4
144.4
144.4
144.4
144.401
144.401
144.401
144.401
144.401
144.401
144.401
144.401
144.401
144.402
144.402
144.402
144.402
144.403
144.403
144.403
144.404
144.404
144.405
144.406
144.406
144.407
144.408
144.409
144.41
144.412
144.413
144.414
144.416
144.417
144.419
144.421
144.424
144.426
144.429
144.4
144.4
144.4
144.4
144.4
144.4
144.4
144.4
144.4
144.4
144.4
144.4
144.4
144.4
144.4
144.4
144.4
144.4
144.4
144.4
144.4
144.4
144.4
144.4
144.4
144.4
144.4
144.4
144.4
144.4
144.4
144.4
144.4
144.4
144.4
144.4
144.4
144.4
144.4
144.4
144.4
144.4
144.4
144.4
144.4
144.4
144.4
144.4
144.4
144.4
144.4
144.4
144.4
144.4
144.4
144.4
144.4
144.4
144.4
144.4
144.4
144.4
144.4
144.4
144.4
144.4
144.4
144.4
144.4
144.4
144.4
144.4
144.401
144.401
144.401
144.401
144.401
144.401
144.401
144.401
144.401
144.401
144.402
144.402
144.402
144.402
144.403
144.403
144.403
144.404
144.404
144.405
144.406
144.406
144.407
144.408
144.409
144.41
144.411
144.413
144.414
144.416
144.417
144.419
144.421
144.423
144.426
144.428
144.431
144.434
144.438
144.441
144.445
144.449
144.453
144.458
144.462
144.467
144.473
144.479
144.485
144.492
144.499
144.4
144.4
144.4
144.4
144.4
144.4
144.4
144.4
144.4
144.4
144.4
144.4
144.4
144.4
144.4
144.4
144.4
144.4
144.4
144.4
144.4
144.4
144.4
144.4
144.4
144.4
144.4
144.4
144.4
144.4
144.4
144.4
144.4
144.4
144.4
144.4
144.4
144.4
144.4
144.4
144.4
144.4
144.4
144.4
144.4
144.4
144.4
144.4
144.4
144.4
144.4
144.4
144.4
144.4
144.401
144.401
144.401
144.401
144.401
144.401
144.401
144.401
144.401
144.401
144.401
144.402
144.402
144.402
144.402
144.402
144.403
144.403
144.403
144.404
144.404
144.405
144.405
144.406
144.407
144.408
144.408
144.409
144.41
144.412
144.413
144.414
144.416
144.418
144.42
144.422
144.424
144.427
144.429
144.432
144.435
144.439
144.442
144.446
144.451
144.455
144.46
144.465
144.471
144.477
144.483
144.489
144.496
144.503
144.511
144.519
144.528
144.537
144.547
144.557
144.568
144.579
144.591
144.603
144.616
144.629
144.644
144.658
144.674
144.4
144.4
144.4
144.4
144.4
144.4
144.4
144.4
144.4
144.4
144.4
144.4
144.4
144.4
144.4
144.4
144.4
144.4
144.4
144.4
144.4
144.4
144.4
144.4
144.4
144.4
144.4
144.4
144.4
144.4
144.401
144.401
144.401
144.401
144.401
144.401
144.401
144.401
144.401
144.401
144.401
144.401
144.401
144.401
144.402
144.402
144.402
144.402
144.402
144.402
144.402
144.403
144.403
144.403
144.403
144.404
144.404
144.405
144.405
144.405
144.406
144.407
144.407
144.408
144.409
144.41
144.411
144.412
144.413
144.415
144.416
144.418
144.419
144.421
144.424
144.426
144.429
144.432
144.435
144.438
144.442
144.446
144.45
144.454
144.459
144.464
144.47
144.476
144.482
144.489
144.496
144.504
144.511
144.52
144.528
144.537
144.547
144.558
144.569
144.58
144.593
144.606
144.619
144.633
144.648
144.663
144.679
144.696
144.713
144.732
144.751
144.772
144.793
144.816
144.839
144.864
144.889
144.915
144.942
144.971
145
145.031
145.063
145.097
145.132
144.4
144.4
144.4
144.4
144.4
144.4
144.4
144.401
144.401
144.401
144.401
144.401
144.401
144.401
144.401
144.401
144.401
144.401
144.401
144.401
144.402
144.402
144.402
144.402
144.402
144.402
144.402
144.403
144.403
144.403
144.403
144.403
144.404
144.404
144.404
144.405
144.405
144.405
144.406
144.406
144.407
144.407
144.408
144.408
144.409
144.41
144.41
144.411
144.412
144.413
144.414
144.416
144.417
144.418
144.42
144.422
144.423
144.425
144.428
144.43
144.432
144.435
144.438
144.442
144.445
144.449
144.453
144.458
144.463
144.468
144.473
144.479
144.485
144.492
144.499
144.507
144.516
144.524
144.534
144.543
144.554
144.564
144.575
144.587
144.599
144.613
144.627
144.641
144.657
144.673
144.69
144.708
144.727
144.746
144.766
144.787
144.809
144.832
144.857
144.882
144.908
144.936
144.965
144.995
145.027
145.059
145.093
145.127
145.164
145.201
145.241
145.282
145.326
145.371
145.418
145.467
145.518
145.57
145.624
145.68
145.738
145.798
145.861
145.926
145.993
144.402
144.402
144.402
144.402
144.403
144.403
144.403
144.403
144.404
144.404
144.404
144.405
144.405
144.405
144.406
144.406
144.407
144.407
144.408
144.409
144.409
144.41
144.411
144.411
144.412
144.413
144.414
144.415
144.416
144.417
144.418
144.42
144.421
144.422
144.424
144.426
144.427
144.429
144.431
144.433
144.436
144.438
144.441
144.444
144.446
144.449
144.453
144.456
144.46
144.464
144.469
144.474
144.479
144.484
144.49
144.496
144.503
144.51
144.517
144.524
144.533
144.542
144.551
144.561
144.572
144.583
144.595
144.608
144.621
144.634
144.648
144.663
144.679
144.695
144.713
144.731
144.751
144.771
144.793
144.815
144.838
144.863
144.888
144.914
144.941
144.97
145
145.031
145.064
145.098
145.134
145.171
145.21
145.25
145.292
145.334
145.379
145.425
145.473
145.523
145.575
145.629
145.685
145.744
145.804
145.867
145.931
145.998
146.067
146.138
146.212
146.289
146.368
146.451
146.537
146.626
146.718
146.812
146.909
147.009
147.112
147.217
147.326
147.439
147.554
144.409
144.41
144.411
144.412
144.413
144.414
144.416
144.417
144.419
144.42
144.422
144.424
144.426
144.428
144.43
144.432
144.435
144.437
144.44
144.442
144.445
144.448
144.452
144.455
144.459
144.462
144.466
144.47
144.475
144.479
144.483
144.488
144.493
144.498
144.504
144.509
144.516
144.522
144.529
144.536
144.543
144.551
144.559
144.568
144.576
144.585
144.594
144.604
144.615
144.626
144.638
144.651
144.664
144.677
144.692
144.707
144.723
144.739
144.756
144.773
144.792
144.811
144.831
144.853
144.876
144.899
144.924
144.95
144.977
145.006
145.035
145.066
145.098
145.132
145.166
145.202
145.24
145.28
145.321
145.365
145.41
145.457
145.505
145.556
145.608
145.661
145.716
145.774
145.834
145.896
145.96
146.027
146.097
146.169
146.243
146.319
146.398
146.478
146.562
146.648
146.736
146.828
146.922
147.02
147.121
147.226
147.333
147.443
147.555
147.671
147.79
147.913
148.039
148.168
148.302
148.44
148.581
148.726
148.874
149.026
149.18
149.338
149.499
149.663
149.83
150.001
144.449
144.453
144.458
144.463
144.469
144.474
144.48
144.487
144.493
144.5
144.508
144.515
144.523
144.531
144.539
144.548
144.557
144.566
144.575
144.585
144.595
144.605
144.616
144.627
144.638
144.65
144.662
144.674
144.686
144.699
144.711
144.724
144.737
144.751
144.766
144.781
144.796
144.812
144.829
144.846
144.864
144.882
144.9
144.92
144.94
144.96
144.981
145.002
145.025
145.049
145.074
145.1
145.127
145.155
145.185
145.215
145.248
145.281
145.316
145.352
145.389
145.428
145.468
145.51
145.555
145.601
145.649
145.699
145.752
145.806
145.863
145.921
145.982
146.044
146.109
146.176
146.245
146.316
146.391
146.468
146.549
146.632
146.717
146.805
146.896
146.989
147.085
147.183
147.284
147.388
147.495
147.606
147.72
147.837
147.957
148.08
148.207
148.335
148.467
148.602
148.74
148.882
149.026
149.175
149.327
149.483
149.642
149.804
149.97
150.139
150.311
150.486
150.665
150.848
151.035
151.226
151.421
151.619
151.821
152.025
152.232
152.442
152.655
152.87
153.088
153.308
153.53
153.753
144.62
144.637
144.654
144.671
144.689
144.708
144.728
144.748
144.768
144.789
144.81
144.832
144.853
144.875
144.897
144.919
144.941
144.964
144.987
145.01
145.034
145.057
145.081
145.106
145.13
145.155
145.18
145.205
145.231
145.256
145.282
145.308
145.334
145.361
145.388
145.417
145.446
145.476
145.507
145.539
145.571
145.605
145.64
145.676
145.713
145.751
145.79
145.831
145.872
145.916
145.961
146.008
146.057
146.109
146.162
146.218
146.275
146.335
146.397
146.462
146.528
146.597
146.668
146.741
146.817
146.897
146.979
147.064
147.152
147.244
147.338
147.435
147.535
147.638
147.743
147.851
147.962
148.076
148.193
148.315
148.439
148.567
148.698
148.833
148.971
149.111
149.254
149.4
149.549
149.702
149.858
150.017
150.18
150.346
150.515
150.688
150.864
151.042
151.224
151.408
151.595
151.786
151.979
152.175
152.376
152.579
152.786
152.996
153.209
153.424
153.643
153.864
154.089
154.316
154.548
154.782
155.021
155.262
155.506
155.752
156
156.25
156.502
156.756
157.011
157.268
157.526
157.783
145.153
145.194
145.235
145.276
145.318
145.361
145.403
145.446
145.488
145.531
145.573
145.615
145.656
145.698
145.739
145.779
145.819
145.859
145.899
145.939
145.979
146.019
146.06
146.1
146.141
146.182
146.223
146.265
146.307
146.349
146.391
146.434
146.477
146.52
146.565
146.611
146.658
146.707
146.758
146.809
146.863
146.918
146.975
147.034
147.095
147.157
147.221
147.287
147.355
147.425
147.498
147.574
147.652
147.734
147.819
147.907
147.998
148.092
148.19
148.29
148.393
148.5
148.609
148.72
148.835
148.955
149.077
149.203
149.332
149.466
149.603
149.743
149.887
150.033
150.183
150.336
150.492
150.65
150.812
150.978
151.147
151.32
151.496
151.675
151.858
152.043
152.232
152.422
152.616
152.813
153.013
153.215
153.42
153.629
153.84
154.055
154.273
154.492
154.715
154.939
155.166
155.395
155.627
155.861
156.099
156.339
156.582
156.827
157.075
157.325
157.578
157.833
158.09
158.35
158.613
158.878
159.147
159.418
159.691
159.966
160.243
160.521
160.8
161.079
161.36
161.641
161.922
162.203
146.327
146.398
146.467
146.536
146.604
146.672
146.739
146.804
146.87
146.934
146.997
147.06
147.123
147.184
147.245
147.305
147.363
147.421
147.478
147.534
147.591
147.648
147.706
147.763
147.821
147.88
147.939
147.998
148.058
148.119
148.179
148.24
148.302
148.365
148.429
148.495
148.563
148.634
148.706
148.781
148.859
148.939
149.022
149.107
149.195
149.286
149.379
149.474
149.572
149.673
149.777
149.885
149.996
150.112
150.231
150.353
150.48
150.61
150.744
150.882
151.023
151.168
151.317
151.467
151.621
151.78
151.941
152.105
152.273
152.446
152.622
152.801
152.983
153.169
153.358
153.55
153.745
153.942
154.141
154.344
154.551
154.761
154.973
155.189
155.407
155.628
155.852
156.078
156.307
156.537
156.771
157.006
157.243
157.483
157.726
157.971
158.219
158.469
158.72
158.974
159.229
159.486
159.744
160.005
160.268
160.533
160.8
161.069
161.341
161.615
161.89
162.167
162.447
162.728
163.012
163.298
163.586
163.877
164.169
164.463
164.758
165.054
165.35
165.647
165.944
166.241
166.537
166.831
167.124
148.36
148.455
148.547
148.636
148.724
148.81
148.895
148.978
149.06
149.141
149.221
149.3
149.378
149.455
149.53
149.603
149.675
149.745
149.816
149.886
149.958
150.029
150.102
150.175
150.249
150.324
150.401
150.478
150.557
150.636
150.716
150.796
150.878
150.962
151.048
151.137
151.229
151.325
151.423
151.524
151.63
151.738
151.85
151.966
152.085
152.207
152.333
152.462
152.593
152.728
152.867
153.009
153.156
153.306
153.46
153.619
153.782
153.949
154.119
154.293
154.472
154.654
154.838
155.026
155.217
155.41
155.606
155.806
156.009
156.216
156.426
156.639
156.855
157.074
157.297
157.521
157.747
157.975
158.207
158.441
158.678
158.917
159.159
159.403
159.65
159.899
160.15
160.403
160.659
160.916
161.174
161.434
161.696
161.96
162.226
162.495
162.765
163.036
163.309
163.583
163.859
164.135
164.413
164.693
164.974
165.258
165.543
165.83
166.118
166.409
166.7
166.994
167.289
167.586
167.885
168.187
168.49
168.794
169.1
169.407
169.715
170.022
170.33
170.637
170.943
171.248
171.552
171.853
150.993
151.102
151.208
151.31
151.408
151.504
151.599
151.693
151.785
151.876
151.966
152.055
152.144
152.231
152.317
152.401
152.483
152.565
152.645
152.727
152.808
152.891
152.975
153.061
153.149
153.238
153.329
153.422
153.517
153.615
153.714
153.814
153.916
154.019
154.126
154.235
154.348
154.464
154.585
154.709
154.837
154.97
155.107
155.247
155.393
155.542
155.695
155.851
156.011
156.173
156.339
156.509
156.682
156.86
157.041
157.226
157.416
157.61
157.807
158.007
158.212
158.42
158.631
158.845
159.061
159.279
159.5
159.724
159.951
160.181
160.414
160.65
160.888
161.129
161.373
161.619
161.866
162.116
162.368
162.622
162.878
163.137
163.398
163.66
163.925
164.192
164.461
164.731
165.004
165.277
165.552
165.828
166.105
166.384
166.664
166.947
167.23
167.515
167.801
168.088
168.376
168.664
168.954
169.245
169.537
169.83
170.125
170.422
170.72
171.02
171.321
171.623
171.927
172.233
172.54
172.849
173.16
173.472
173.786
174.1
174.414
174.729
175.043
175.356
175.668
175.979
176.287
176.593
154.181
154.292
154.4
154.503
154.603
154.702
154.8
154.896
154.991
155.086
155.18
155.274
155.369
155.463
155.556
155.649
155.74
155.831
155.923
156.015
156.108
156.203
156.301
156.4
156.502
156.607
156.715
156.826
156.941
157.058
157.177
157.299
157.423
157.55
157.68
157.813
157.95
158.091
158.237
158.387
158.541
158.7
158.863
159.031
159.203
159.38
159.56
159.744
159.931
160.121
160.314
160.51
160.71
160.913
161.12
161.332
161.547
161.765
161.986
162.212
162.44
162.671
162.905
163.142
163.379
163.619
163.861
164.107
164.354
164.604
164.857
165.112
165.369
165.629
165.891
166.154
166.419
166.686
166.955
167.226
167.499
167.773
168.049
168.327
168.607
168.888
169.171
169.456
169.741
170.028
170.315
170.603
170.892
171.183
171.475
171.767
172.061
172.356
172.652
172.948
173.244
173.541
173.839
174.138
174.438
174.739
175.041
175.345
175.651
175.957
176.265
176.574
176.884
177.196
177.509
177.824
178.141
178.458
178.776
179.095
179.413
179.73
180.046
180.361
180.674
180.985
181.292
157.589
157.7
157.807
157.911
158.013
158.113
158.212
158.311
158.409
158.507
158.606
158.706
158.806
158.908
159.01
159.112
159.215
159.318
159.422
159.528
159.635
159.745
159.858
159.974
160.093
160.216
160.342
160.473
160.607
160.745
160.886
161.03
161.178
161.328
161.482
161.639
161.8
161.966
162.136
162.31
162.489
162.673
162.861
163.053
163.25
163.45
163.655
163.862
164.072
164.286
164.502
164.721
164.942
165.168
165.398
165.63
165.865
166.103
166.346
166.59
166.837
167.087
167.339
167.592
167.847
168.104
168.364
168.625
168.888
169.154
169.422
169.692
169.964
170.238
170.514
170.791
171.07
171.35
171.632
171.916
172.201
172.487
172.774
173.063
173.354
173.647
173.94
174.235
174.53
174.825
175.121
175.418
175.715
176.013
176.312
176.612
176.913
177.214
177.515
177.816
178.118
178.42
178.723
179.026
179.33
179.636
179.942
180.25
180.559
180.869
181.181
181.493
181.807
182.122
182.438
182.756
183.074
183.394
183.713
184.032
184.351
184.668
184.983
185.296
185.607
185.914
186.216
186.514
160.971
161.082
161.192
161.3
161.406
161.512
161.616
161.719
161.823
161.927
162.032
162.138
162.246
162.356
162.467
162.58
162.695
162.811
162.929
163.049
163.171
163.295
163.422
163.553
163.688
163.826
163.969
164.115
164.266
164.422
164.581
164.745
164.911
165.082
165.255
165.432
165.613
165.798
165.987
166.18
166.377
166.579
166.785
166.995
167.21
167.428
167.65
167.875
168.104
168.334
168.568
168.803
169.041
169.283
169.527
169.774
170.023
170.276
170.532
170.789
171.05
171.313
171.577
171.843
172.111
172.38
172.651
172.924
173.198
173.474
173.752
174.032
174.314
174.598
174.884
175.17
175.458
175.748
176.039
176.331
176.624
176.918
177.213
177.51
177.808
178.107
178.407
178.708
179.009
179.311
179.612
179.914
180.216
180.519
180.822
181.125
181.429
181.733
182.037
182.341
182.644
182.948
183.252
183.557
183.862
184.168
184.475
184.783
185.092
185.402
185.713
186.025
186.338
186.652
186.968
187.284
187.602
187.92
188.238
188.556
188.873
189.189
189.503
189.814
190.123
190.427
190.728
191.023
164.368
164.481
164.594
164.707
164.818
164.93
165.041
165.151
165.263
165.375
165.488
165.603
165.72
165.84
165.962
166.086
166.213
166.343
166.475
166.61
166.748
166.888
167.032
167.179
167.329
167.484
167.643
167.806
167.974
168.147
168.324
168.505
168.69
168.879
169.072
169.268
169.467
169.67
169.877
170.088
170.302
170.521
170.743
170.97
171.2
171.434
171.671
171.912
172.156
172.402
172.65
172.9
173.152
173.408
173.665
173.924
174.186
174.451
174.718
174.987
175.258
175.532
175.808
176.084
176.362
176.642
176.922
177.205
177.488
177.773
178.06
178.348
178.638
178.93
179.223
179.518
179.813
180.11
180.408
180.707
181.006
181.307
181.608
181.91
182.213
182.517
182.822
183.128
183.433
183.739
184.044
184.349
184.654
184.959
185.264
185.569
185.874
186.179
186.483
186.787
187.091
187.395
187.698
188.002
188.306
188.61
188.915
189.221
189.528
189.836
190.144
190.454
190.764
191.075
191.388
191.701
192.015
192.33
192.645
192.96
193.274
193.586
193.896
194.204
194.509
194.81
195.106
195.396
167.862
167.979
168.096
168.214
168.333
168.452
168.572
168.693
168.815
168.939
169.065
169.194
169.324
169.458
169.596
169.736
169.88
170.027
170.177
170.331
170.488
170.648
170.812
170.98
171.151
171.327
171.507
171.692
171.881
172.075
172.273
172.476
172.682
172.892
173.106
173.323
173.543
173.766
173.993
174.224
174.458
174.695
174.936
175.18
175.428
175.679
175.934
176.191
176.45
176.711
176.974
177.24
177.507
177.775
178.045
178.318
178.593
178.87
179.149
179.43
179.713
179.997
180.283
180.57
180.858
181.147
181.437
181.728
182.021
182.315
182.61
182.907
183.205
183.504
183.804
184.106
184.409
184.712
185.016
185.321
185.626
185.932
186.238
186.545
186.852
187.16
187.468
187.776
188.084
188.392
188.698
189.005
189.31
189.615
189.92
190.224
190.528
190.831
191.134
191.436
191.737
192.038
192.339
192.639
192.94
193.241
193.543
193.845
194.149
194.453
194.758
195.063
195.37
195.677
195.986
196.295
196.604
196.914
197.224
197.532
197.84
198.145
198.447
198.747
199.042
199.333
199.617
171.205
171.329
171.453
171.579
171.706
171.834
171.964
172.096
172.23
172.366
172.505
172.646
172.79
172.937
173.088
173.242
173.4
173.563
173.728
173.898
174.071
174.249
174.429
174.614
174.803
174.996
175.192
175.394
175.599
175.809
176.023
176.242
176.464
176.69
176.92
177.153
177.389
177.628
177.87
178.115
178.363
178.614
178.868
179.125
179.386
179.649
179.915
180.183
180.454
180.727
181.001
181.278
181.555
181.834
182.114
182.396
182.68
182.965
183.252
183.541
183.832
184.124
184.417
184.711
185.006
185.303
185.6
185.897
186.196
186.496
186.796
187.098
187.402
187.706
188.011
188.317
188.624
188.931
189.239
189.548
189.856
190.165
190.474
190.783
191.092
191.402
191.711
192.02
192.329
192.637
192.943
193.249
193.554
193.858
194.16
194.462
194.763
195.064
195.363
195.661
195.958
196.255
196.55
196.846
197.141
197.436
197.732
198.028
198.325
198.623
198.921
199.22
199.52
199.821
200.122
200.424
200.727
201.029
201.332
201.634
201.935
202.233
202.529
202.822
203.11
203.394
203.671
203.942
204.204
174.503
174.634
174.767
174.902
175.038
175.177
175.319
175.462
175.609