/*--------------------------------*- C++ -*----------------------------------*\
| =========                 |                                                 |
| \\      /  F ield         | OpenFOAM: The Open Source CFD Toolbox           |
|  \\    /   O peration     | Version:  v1706                                 |
|   \\  /    A nd           | Web:      www.OpenFOAM.com                      |
|    \\/     M anipulation  |                                                 |
\*---------------------------------------------------------------------------*/
FoamFile
{
    version     2.0;
    format      ascii;
    class       volScalarField;
    location    "1.2e-05";
    object      kappave;
}
// * * * * * * * * * * * * * * * * * * * * * * * * * * * * * * * * * * * * * //

dimensions      [1 1 -3 -1 0 0 0];


internalField   nonuniform List<scalar> 
29871
(
1.46112e-10
1.46109e-10
1.46106e-10
1.46104e-10
1.46101e-10
1.46098e-10
1.46096e-10
1.46094e-10
1.46091e-10
1.46089e-10
1.46087e-10
1.46085e-10
1.46083e-10
1.46082e-10
1.4608e-10
1.46078e-10
1.46077e-10
1.46076e-10
1.46075e-10
1.46074e-10
1.46073e-10
1.46072e-10
1.46071e-10
1.46071e-10
1.4607e-10
1.4607e-10
1.46069e-10
1.46069e-10
1.46069e-10
1.46069e-10
1.46069e-10
1.46069e-10
1.46069e-10
1.46069e-10
1.46069e-10
1.46069e-10
1.46069e-10
1.4607e-10
1.4607e-10
1.4607e-10
1.46071e-10
1.46071e-10
1.46071e-10
1.46072e-10
1.46072e-10
1.46072e-10
1.46073e-10
1.46073e-10
1.46074e-10
1.46074e-10
1.46074e-10
1.46075e-10
1.46075e-10
1.46076e-10
1.46076e-10
1.46077e-10
1.46077e-10
1.46077e-10
1.46078e-10
1.46078e-10
1.46079e-10
1.46079e-10
1.4608e-10
1.4608e-10
1.46081e-10
1.46081e-10
1.46082e-10
1.46082e-10
1.46083e-10
1.46083e-10
1.46084e-10
1.46084e-10
1.46085e-10
1.46085e-10
1.46085e-10
1.46086e-10
1.46086e-10
1.46087e-10
1.46087e-10
1.46088e-10
1.46088e-10
1.46088e-10
1.46089e-10
1.46089e-10
1.4609e-10
1.4609e-10
1.46091e-10
1.46091e-10
1.46091e-10
1.46092e-10
1.46092e-10
1.46093e-10
1.46093e-10
1.46093e-10
1.46094e-10
1.46094e-10
1.46095e-10
1.46095e-10
1.46096e-10
1.46096e-10
1.46096e-10
1.46097e-10
1.46097e-10
1.46098e-10
1.46098e-10
1.46466e-10
1.46451e-10
1.46436e-10
1.46421e-10
1.46407e-10
1.46392e-10
1.46379e-10
1.46365e-10
1.46352e-10
1.4634e-10
1.46328e-10
1.46317e-10
1.46306e-10
1.46296e-10
1.46287e-10
1.46278e-10
1.4627e-10
1.46262e-10
1.46256e-10
1.4625e-10
1.46244e-10
1.4624e-10
1.46235e-10
1.46232e-10
1.46229e-10
1.46227e-10
1.46225e-10
1.46224e-10
1.46223e-10
1.46222e-10
1.46222e-10
1.46223e-10
1.46223e-10
1.46224e-10
1.46225e-10
1.46226e-10
1.46228e-10
1.4623e-10
1.46232e-10
1.46234e-10
1.46236e-10
1.46238e-10
1.4624e-10
1.46243e-10
1.46245e-10
1.46248e-10
1.4625e-10
1.46253e-10
1.46256e-10
1.46258e-10
1.46261e-10
1.46264e-10
1.46267e-10
1.46269e-10
1.46272e-10
1.46275e-10
1.46278e-10
1.46281e-10
1.46284e-10
1.46287e-10
1.46291e-10
1.46294e-10
1.46297e-10
1.463e-10
1.46303e-10
1.46307e-10
1.4631e-10
1.46313e-10
1.46317e-10
1.4632e-10
1.46323e-10
1.46326e-10
1.4633e-10
1.46333e-10
1.46336e-10
1.46339e-10
1.46342e-10
1.46345e-10
1.46348e-10
1.46351e-10
1.46354e-10
1.46357e-10
1.4636e-10
1.46363e-10
1.46366e-10
1.46369e-10
1.46372e-10
1.46375e-10
1.46378e-10
1.46381e-10
1.46384e-10
1.46387e-10
1.4639e-10
1.46393e-10
1.46396e-10
1.464e-10
1.46403e-10
1.46406e-10
1.46409e-10
1.46413e-10
1.46416e-10
1.46419e-10
1.46423e-10
1.46426e-10
1.4643e-10
1.47362e-10
1.47318e-10
1.47274e-10
1.4723e-10
1.47187e-10
1.47145e-10
1.47104e-10
1.47063e-10
1.47024e-10
1.46987e-10
1.4695e-10
1.46916e-10
1.46883e-10
1.46852e-10
1.46822e-10
1.46795e-10
1.46769e-10
1.46746e-10
1.46724e-10
1.46705e-10
1.46687e-10
1.46671e-10
1.46658e-10
1.46646e-10
1.46636e-10
1.46628e-10
1.46621e-10
1.46616e-10
1.46613e-10
1.46611e-10
1.46611e-10
1.46611e-10
1.46613e-10
1.46615e-10
1.46619e-10
1.46623e-10
1.46628e-10
1.46633e-10
1.4664e-10
1.46646e-10
1.46653e-10
1.46661e-10
1.46668e-10
1.46676e-10
1.46684e-10
1.46693e-10
1.46701e-10
1.4671e-10
1.46719e-10
1.46728e-10
1.46737e-10
1.46746e-10
1.46756e-10
1.46765e-10
1.46775e-10
1.46785e-10
1.46795e-10
1.46805e-10
1.46816e-10
1.46826e-10
1.46837e-10
1.46848e-10
1.46859e-10
1.4687e-10
1.46881e-10
1.46893e-10
1.46904e-10
1.46916e-10
1.46928e-10
1.46939e-10
1.46951e-10
1.46963e-10
1.46975e-10
1.46986e-10
1.46998e-10
1.4701e-10
1.47021e-10
1.47033e-10
1.47044e-10
1.47056e-10
1.47067e-10
1.47079e-10
1.4709e-10
1.47102e-10
1.47113e-10
1.47124e-10
1.47136e-10
1.47147e-10
1.47159e-10
1.4717e-10
1.47182e-10
1.47194e-10
1.47206e-10
1.47218e-10
1.4723e-10
1.47242e-10
1.47254e-10
1.47267e-10
1.47279e-10
1.47292e-10
1.47305e-10
1.47318e-10
1.47331e-10
1.47344e-10
1.47358e-10
1.47371e-10
1.49356e-10
1.49249e-10
1.49142e-10
1.49036e-10
1.48931e-10
1.48828e-10
1.48727e-10
1.48629e-10
1.48534e-10
1.48441e-10
1.48353e-10
1.48268e-10
1.48187e-10
1.48111e-10
1.4804e-10
1.47973e-10
1.47911e-10
1.47854e-10
1.47802e-10
1.47756e-10
1.47714e-10
1.47677e-10
1.47645e-10
1.47618e-10
1.47595e-10
1.47577e-10
1.47564e-10
1.47554e-10
1.47548e-10
1.47547e-10
1.47548e-10
1.47551e-10
1.47557e-10
1.47566e-10
1.47578e-10
1.47591e-10
1.47607e-10
1.47624e-10
1.47642e-10
1.47661e-10
1.47682e-10
1.47704e-10
1.47726e-10
1.47749e-10
1.47772e-10
1.47796e-10
1.47821e-10
1.47846e-10
1.47871e-10
1.47897e-10
1.47924e-10
1.4795e-10
1.47978e-10
1.48005e-10
1.48034e-10
1.48062e-10
1.48091e-10
1.48121e-10
1.48152e-10
1.48182e-10
1.48214e-10
1.48246e-10
1.48278e-10
1.48311e-10
1.48344e-10
1.48378e-10
1.48412e-10
1.48447e-10
1.48482e-10
1.48517e-10
1.48552e-10
1.48587e-10
1.48623e-10
1.48658e-10
1.48694e-10
1.48729e-10
1.48765e-10
1.488e-10
1.48836e-10
1.48871e-10
1.48906e-10
1.48941e-10
1.48977e-10
1.49012e-10
1.49047e-10
1.49083e-10
1.49118e-10
1.49154e-10
1.4919e-10
1.49226e-10
1.49263e-10
1.493e-10
1.49337e-10
1.49375e-10
1.49413e-10
1.49452e-10
1.4949e-10
1.4953e-10
1.4957e-10
1.4961e-10
1.49651e-10
1.49692e-10
1.49734e-10
1.49776e-10
1.49819e-10
1.49863e-10
1.53721e-10
1.53492e-10
1.53264e-10
1.53036e-10
1.52809e-10
1.52585e-10
1.52365e-10
1.5215e-10
1.51939e-10
1.51735e-10
1.51538e-10
1.51349e-10
1.51168e-10
1.50996e-10
1.50833e-10
1.5068e-10
1.50538e-10
1.50406e-10
1.50285e-10
1.50175e-10
1.50076e-10
1.49989e-10
1.49913e-10
1.49848e-10
1.49794e-10
1.4975e-10
1.49717e-10
1.49694e-10
1.4968e-10
1.49676e-10
1.49679e-10
1.49687e-10
1.49703e-10
1.49726e-10
1.49754e-10
1.49788e-10
1.49826e-10
1.49869e-10
1.49915e-10
1.49964e-10
1.50016e-10
1.5007e-10
1.50126e-10
1.50184e-10
1.50243e-10
1.50304e-10
1.50366e-10
1.5043e-10
1.50494e-10
1.50559e-10
1.50626e-10
1.50693e-10
1.50762e-10
1.50832e-10
1.50903e-10
1.50975e-10
1.51049e-10
1.51124e-10
1.512e-10
1.51278e-10
1.51358e-10
1.51439e-10
1.51521e-10
1.51605e-10
1.5169e-10
1.51776e-10
1.51864e-10
1.51953e-10
1.52043e-10
1.52134e-10
1.52226e-10
1.52319e-10
1.52412e-10
1.52506e-10
1.526e-10
1.52695e-10
1.5279e-10
1.52886e-10
1.52981e-10
1.53077e-10
1.53173e-10
1.53269e-10
1.53365e-10
1.53462e-10
1.53559e-10
1.53656e-10
1.53754e-10
1.53853e-10
1.53952e-10
1.54052e-10
1.54153e-10
1.54255e-10
1.54358e-10
1.54462e-10
1.54567e-10
1.54673e-10
1.5478e-10
1.54889e-10
1.54999e-10
1.5511e-10
1.55223e-10
1.55337e-10
1.55451e-10
1.55567e-10
1.55685e-10
1.55803e-10
1.55923e-10
1.61595e-10
1.61178e-10
1.60758e-10
1.60338e-10
1.59918e-10
1.59502e-10
1.59091e-10
1.58687e-10
1.58292e-10
1.57907e-10
1.57536e-10
1.57178e-10
1.56836e-10
1.56511e-10
1.56205e-10
1.55918e-10
1.55652e-10
1.55407e-10
1.55183e-10
1.54982e-10
1.54804e-10
1.54648e-10
1.54514e-10
1.54403e-10
1.54314e-10
1.54247e-10
1.542e-10
1.54173e-10
1.54168e-10
1.54177e-10
1.54198e-10
1.54237e-10
1.5429e-10
1.54356e-10
1.54433e-10
1.5452e-10
1.54617e-10
1.54721e-10
1.54832e-10
1.54949e-10
1.55071e-10
1.55198e-10
1.55328e-10
1.55461e-10
1.55597e-10
1.55735e-10
1.55876e-10
1.5602e-10
1.56165e-10
1.56313e-10
1.56463e-10
1.56615e-10
1.5677e-10
1.56928e-10
1.57089e-10
1.57252e-10
1.57419e-10
1.57588e-10
1.57761e-10
1.57937e-10
1.58117e-10
1.58299e-10
1.58485e-10
1.58674e-10
1.58866e-10
1.5906e-10
1.59258e-10
1.59458e-10
1.5966e-10
1.59864e-10
1.6007e-10
1.60278e-10
1.60487e-10
1.60698e-10
1.60909e-10
1.61121e-10
1.61333e-10
1.61546e-10
1.61759e-10
1.61973e-10
1.62186e-10
1.62399e-10
1.62613e-10
1.62826e-10
1.63041e-10
1.63255e-10
1.6347e-10
1.63686e-10
1.63904e-10
1.64122e-10
1.64342e-10
1.64564e-10
1.64787e-10
1.65012e-10
1.6524e-10
1.6547e-10
1.65702e-10
1.65936e-10
1.66173e-10
1.66412e-10
1.66653e-10
1.66897e-10
1.67143e-10
1.67391e-10
1.67642e-10
1.67894e-10
1.68147e-10
1.75174e-10
1.74601e-10
1.74017e-10
1.73422e-10
1.72821e-10
1.72214e-10
1.71604e-10
1.70994e-10
1.70385e-10
1.69782e-10
1.69186e-10
1.68601e-10
1.68028e-10
1.6747e-10
1.66931e-10
1.66412e-10
1.65918e-10
1.65449e-10
1.65009e-10
1.646e-10
1.64225e-10
1.63885e-10
1.63582e-10
1.63318e-10
1.63092e-10
1.62906e-10
1.62759e-10
1.6265e-10
1.62578e-10
1.62545e-10
1.62549e-10
1.62576e-10
1.62632e-10
1.62718e-10
1.62829e-10
1.62963e-10
1.63118e-10
1.63291e-10
1.6348e-10
1.63682e-10
1.63896e-10
1.6412e-10
1.64353e-10
1.64592e-10
1.64837e-10
1.65087e-10
1.65341e-10
1.65598e-10
1.65859e-10
1.66122e-10
1.66389e-10
1.66658e-10
1.6693e-10
1.67205e-10
1.67483e-10
1.67765e-10
1.6805e-10
1.6834e-10
1.68633e-10
1.68932e-10
1.69235e-10
1.69542e-10
1.69855e-10
1.70173e-10
1.70495e-10
1.70822e-10
1.71152e-10
1.71486e-10
1.71824e-10
1.72165e-10
1.72509e-10
1.72855e-10
1.73203e-10
1.73553e-10
1.73904e-10
1.74256e-10
1.74609e-10
1.74961e-10
1.75314e-10
1.75666e-10
1.76018e-10
1.76369e-10
1.76718e-10
1.77067e-10
1.77414e-10
1.77761e-10
1.78107e-10
1.78451e-10
1.78796e-10
1.7914e-10
1.79484e-10
1.79828e-10
1.80173e-10
1.80519e-10
1.80867e-10
1.81216e-10
1.81567e-10
1.8192e-10
1.82275e-10
1.82632e-10
1.82993e-10
1.83355e-10
1.8372e-10
1.84088e-10
1.84457e-10
1.84829e-10
1.85203e-10
1.85579e-10
1.85956e-10
1.86332e-10
1.88644e-10
1.88048e-10
1.87435e-10
1.86806e-10
1.86165e-10
1.85514e-10
1.84854e-10
1.84189e-10
1.83521e-10
1.82855e-10
1.82194e-10
1.81542e-10
1.80903e-10
1.80283e-10
1.79684e-10
1.79111e-10
1.78566e-10
1.78054e-10
1.77577e-10
1.77138e-10
1.7674e-10
1.76384e-10
1.76074e-10
1.75813e-10
1.75603e-10
1.75443e-10
1.75333e-10
1.75276e-10
1.75275e-10
1.75308e-10
1.75382e-10
1.75501e-10
1.75661e-10
1.75856e-10
1.76081e-10
1.76334e-10
1.7661e-10
1.76906e-10
1.77219e-10
1.77544e-10
1.7788e-10
1.78224e-10
1.78573e-10
1.78926e-10
1.7928e-10
1.79634e-10
1.79988e-10
1.80341e-10
1.80692e-10
1.81042e-10
1.81392e-10
1.81741e-10
1.8209e-10
1.82439e-10
1.82791e-10
1.83144e-10
1.835e-10
1.83858e-10
1.8422e-10
1.84586e-10
1.84956e-10
1.8533e-10
1.85707e-10
1.86089e-10
1.86475e-10
1.86866e-10
1.87258e-10
1.87652e-10
1.88045e-10
1.88438e-10
1.8883e-10
1.8922e-10
1.89609e-10
1.89995e-10
1.90377e-10
1.90756e-10
1.9113e-10
1.91499e-10
1.91863e-10
1.9222e-10
1.9257e-10
1.92912e-10
1.93247e-10
1.93574e-10
1.93892e-10
1.94202e-10
1.94503e-10
1.94795e-10
1.95079e-10
1.95354e-10
1.95621e-10
1.9588e-10
1.96131e-10
1.96375e-10
1.96611e-10
1.9684e-10
1.97062e-10
1.97278e-10
1.97488e-10
1.97691e-10
1.97889e-10
1.9808e-10
1.98266e-10
1.98446e-10
1.9862e-10
1.98789e-10
1.98952e-10
1.9911e-10
1.99262e-10
1.9941e-10
1.96574e-10
1.96199e-10
1.95827e-10
1.95453e-10
1.95075e-10
1.94693e-10
1.94307e-10
1.9392e-10
1.93532e-10
1.93142e-10
1.92752e-10
1.92362e-10
1.91973e-10
1.91589e-10
1.91213e-10
1.9085e-10
1.90504e-10
1.90177e-10
1.89879e-10
1.89615e-10
1.8939e-10
1.89208e-10
1.89071e-10
1.88979e-10
1.88944e-10
1.88956e-10
1.89009e-10
1.89107e-10
1.89233e-10
1.89414e-10
1.89625e-10
1.89863e-10
1.90131e-10
1.90424e-10
1.90734e-10
1.91055e-10
1.91382e-10
1.91712e-10
1.92042e-10
1.9237e-10
1.92692e-10
1.93009e-10
1.93317e-10
1.93617e-10
1.93908e-10
1.94191e-10
1.94466e-10
1.94732e-10
1.94991e-10
1.95244e-10
1.95489e-10
1.95728e-10
1.95961e-10
1.96188e-10
1.9641e-10
1.96627e-10
1.96839e-10
1.97045e-10
1.97248e-10
1.97445e-10
1.97639e-10
1.97828e-10
1.98013e-10
1.98194e-10
1.98371e-10
1.98544e-10
1.98713e-10
1.9888e-10
1.99043e-10
1.99202e-10
1.99359e-10
1.99513e-10
1.99664e-10
1.99812e-10
1.99956e-10
2.00097e-10
2.00235e-10
2.0037e-10
2.00501e-10
2.00629e-10
2.00753e-10
2.00874e-10
2.00991e-10
2.01105e-10
2.01216e-10
2.01323e-10
2.01426e-10
2.01526e-10
2.01622e-10
2.01714e-10
2.01803e-10
2.01888e-10
2.01969e-10
2.02048e-10
2.02123e-10
2.02195e-10
2.02265e-10
2.02332e-10
2.02396e-10
2.02459e-10
2.02519e-10
2.02578e-10
2.02635e-10
2.02691e-10
2.02746e-10
2.028e-10
2.02852e-10
2.02903e-10
2.02953e-10
2.03003e-10
1.9956e-10
1.99276e-10
1.99002e-10
1.98738e-10
1.98488e-10
1.98247e-10
1.98013e-10
1.97793e-10
1.97591e-10
1.97407e-10
1.97244e-10
1.97102e-10
1.96981e-10
1.96884e-10
1.9681e-10
1.96758e-10
1.96729e-10
1.96726e-10
1.96739e-10
1.96772e-10
1.96829e-10
1.96911e-10
1.97017e-10
1.97149e-10
1.97304e-10
1.9746e-10
1.97672e-10
1.97897e-10
1.9811e-10
1.9834e-10
1.98585e-10
1.9883e-10
1.99072e-10
1.9931e-10
1.99541e-10
1.99765e-10
1.9998e-10
2.00182e-10
2.00371e-10
2.00546e-10
2.00709e-10
2.00862e-10
2.01003e-10
2.01133e-10
2.01252e-10
2.01361e-10
2.01459e-10
2.01548e-10
2.01628e-10
2.017e-10
2.01765e-10
2.01823e-10
2.01876e-10
2.01925e-10
2.01969e-10
2.02011e-10
2.0205e-10
2.02087e-10
2.02123e-10
2.02158e-10
2.02192e-10
2.02225e-10
2.02259e-10
2.02293e-10
2.02328e-10
2.02363e-10
2.02398e-10
2.02435e-10
2.02473e-10
2.02512e-10
2.02552e-10
2.02594e-10
2.02637e-10
2.02682e-10
2.02729e-10
2.02776e-10
2.02826e-10
2.02877e-10
2.02929e-10
2.02981e-10
2.03035e-10
2.03089e-10
2.03143e-10
2.03197e-10
2.03251e-10
2.03304e-10
2.03356e-10
2.03407e-10
2.03456e-10
2.03504e-10
2.03549e-10
2.03593e-10
2.03635e-10
2.03674e-10
2.03712e-10
2.03748e-10
2.03781e-10
2.03813e-10
2.03844e-10
2.03873e-10
2.039e-10
2.03927e-10
2.03952e-10
2.03976e-10
2.03999e-10
2.04022e-10
2.04043e-10
2.04064e-10
2.04085e-10
2.04104e-10
2.00567e-10
2.00335e-10
2.00133e-10
1.99954e-10
1.99767e-10
1.99583e-10
1.99427e-10
1.99296e-10
1.99178e-10
1.99074e-10
1.98988e-10
1.98922e-10
1.98877e-10
1.98864e-10
1.98873e-10
1.98907e-10
1.98972e-10
1.99061e-10
1.99164e-10
1.99309e-10
1.99482e-10
1.99677e-10
1.99891e-10
2.00116e-10
2.00344e-10
2.00583e-10
2.0084e-10
2.01089e-10
2.01325e-10
2.01568e-10
2.01805e-10
2.02027e-10
2.02235e-10
2.02426e-10
2.02598e-10
2.02758e-10
2.02903e-10
2.0303e-10
2.03143e-10
2.03242e-10
2.03329e-10
2.03399e-10
2.03456e-10
2.03501e-10
2.03538e-10
2.03567e-10
2.03588e-10
2.03604e-10
2.03614e-10
2.0362e-10
2.03622e-10
2.03622e-10
2.03621e-10
2.03618e-10
2.03613e-10
2.03608e-10
2.03603e-10
2.03598e-10
2.03593e-10
2.03589e-10
2.03586e-10
2.03584e-10
2.03583e-10
2.03584e-10
2.03586e-10
2.03591e-10
2.03596e-10
2.03604e-10
2.03613e-10
2.03624e-10
2.03637e-10
2.03651e-10
2.03667e-10
2.03685e-10
2.03704e-10
2.03725e-10
2.03747e-10
2.03771e-10
2.03796e-10
2.03823e-10
2.0385e-10
2.03879e-10
2.03909e-10
2.03939e-10
2.0397e-10
2.04001e-10
2.04032e-10
2.04063e-10
2.04094e-10
2.04124e-10
2.04154e-10
2.04182e-10
2.0421e-10
2.04236e-10
2.04262e-10
2.04286e-10
2.04309e-10
2.04331e-10
2.04353e-10
2.04373e-10
2.04393e-10
2.04413e-10
2.04432e-10
2.04451e-10
2.04469e-10
2.04488e-10
2.04507e-10
2.04526e-10
2.04544e-10
2.04563e-10
2.01409e-10
2.01163e-10
2.00938e-10
2.00735e-10
2.00553e-10
2.00372e-10
2.00192e-10
2.00044e-10
1.99922e-10
1.99829e-10
1.99761e-10
1.99715e-10
1.99701e-10
1.9971e-10
1.99743e-10
1.99801e-10
1.99885e-10
1.9999e-10
2.00114e-10
2.00244e-10
2.00395e-10
2.00573e-10
2.00772e-10
2.00973e-10
2.01186e-10
2.01415e-10
2.01657e-10
2.01885e-10
2.02102e-10
2.02332e-10
2.02551e-10
2.02756e-10
2.02959e-10
2.03143e-10
2.03297e-10
2.03446e-10
2.0359e-10
2.03715e-10
2.03824e-10
2.03924e-10
2.04011e-10
2.04083e-10
2.04146e-10
2.042e-10
2.04244e-10
2.0428e-10
2.04308e-10
2.04329e-10
2.04343e-10
2.0435e-10
2.0435e-10
2.04347e-10
2.04339e-10
2.04327e-10
2.04312e-10
2.04295e-10
2.04277e-10
2.04258e-10
2.04239e-10
2.0422e-10
2.04201e-10
2.04184e-10
2.04167e-10
2.04153e-10
2.0414e-10
2.04129e-10
2.04121e-10
2.04114e-10
2.0411e-10
2.04109e-10
2.0411e-10
2.04113e-10
2.04118e-10
2.04127e-10
2.04138e-10
2.04151e-10
2.04166e-10
2.04186e-10
2.04207e-10
2.04229e-10
2.04253e-10
2.0428e-10
2.04308e-10
2.04337e-10
2.04367e-10
2.04398e-10
2.04429e-10
2.04462e-10
2.04494e-10
2.04526e-10
2.04558e-10
2.0459e-10
2.0462e-10
2.0465e-10
2.0468e-10
2.04708e-10
2.04736e-10
2.04762e-10
2.04788e-10
2.04813e-10
2.04838e-10
2.04862e-10
2.04886e-10
2.04909e-10
2.04933e-10
2.04956e-10
2.04979e-10
2.05003e-10
2.05027e-10
2.05051e-10
2.05075e-10
2.01897e-10
2.01662e-10
2.01454e-10
2.01259e-10
2.01084e-10
2.00916e-10
2.00756e-10
2.00619e-10
2.00506e-10
2.00417e-10
2.00351e-10
2.00308e-10
2.00298e-10
2.00307e-10
2.00335e-10
2.00387e-10
2.00464e-10
2.00565e-10
2.00685e-10
2.00823e-10
2.0098e-10
2.01155e-10
2.01343e-10
2.0154e-10
2.01745e-10
2.01959e-10
2.02176e-10
2.02382e-10
2.02588e-10
2.028e-10
2.02983e-10
2.03163e-10
2.03348e-10
2.0351e-10
2.03655e-10
2.03794e-10
2.03926e-10
2.04048e-10
2.04159e-10
2.04262e-10
2.04355e-10
2.04435e-10
2.04498e-10
2.04554e-10
2.04602e-10
2.04642e-10
2.04674e-10
2.04698e-10
2.04715e-10
2.04725e-10
2.04729e-10
2.04728e-10
2.04725e-10
2.04718e-10
2.04708e-10
2.04695e-10
2.04682e-10
2.04667e-10
2.04652e-10
2.04637e-10
2.04622e-10
2.04608e-10
2.04595e-10
2.04583e-10
2.04573e-10
2.04565e-10
2.0456e-10
2.04557e-10
2.04556e-10
2.04557e-10
2.04561e-10
2.04567e-10
2.04576e-10
2.04588e-10
2.04602e-10
2.04618e-10
2.04637e-10
2.04659e-10
2.04683e-10
2.04709e-10
2.04736e-10
2.04766e-10
2.04797e-10
2.0483e-10
2.04863e-10
2.04898e-10
2.04933e-10
2.04968e-10
2.05004e-10
2.05039e-10
2.05075e-10
2.05111e-10
2.05147e-10
2.05182e-10
2.05217e-10
2.05251e-10
2.05285e-10
2.05318e-10
2.0535e-10
2.05382e-10
2.05413e-10
2.05444e-10
2.05475e-10
2.05505e-10
2.05536e-10
2.05566e-10
2.05597e-10
2.05628e-10
2.05659e-10
2.05691e-10
2.05723e-10
2.05755e-10
2.05788e-10
2.02388e-10
2.02172e-10
2.01976e-10
2.01789e-10
2.01622e-10
2.01472e-10
2.01332e-10
2.01209e-10
2.01108e-10
2.01031e-10
2.00976e-10
2.00939e-10
2.00927e-10
2.00933e-10
2.00954e-10
2.00996e-10
2.01062e-10
2.01148e-10
2.01252e-10
2.01372e-10
2.01506e-10
2.01654e-10
2.01812e-10
2.01978e-10
2.02153e-10
2.02336e-10
2.0252e-10
2.027e-10
2.02886e-10
2.03072e-10
2.03235e-10
2.03402e-10
2.03572e-10
2.03722e-10
2.0386e-10
2.03995e-10
2.04125e-10
2.04251e-10
2.04369e-10
2.04482e-10
2.04587e-10
2.04678e-10
2.04755e-10
2.04825e-10
2.0489e-10
2.04948e-10
2.04998e-10
2.05039e-10
2.05073e-10
2.05099e-10
2.05119e-10
2.05133e-10
2.05143e-10
2.05149e-10
2.05151e-10
2.0515e-10
2.05146e-10
2.05141e-10
2.05135e-10
2.05127e-10
2.0512e-10
2.05112e-10
2.05106e-10
2.051e-10
2.05096e-10
2.05094e-10
2.05094e-10
2.05095e-10
2.05099e-10
2.05106e-10
2.05115e-10
2.05127e-10
2.05141e-10
2.05158e-10
2.05177e-10
2.05198e-10
2.05222e-10
2.05248e-10
2.05276e-10
2.05306e-10
2.05338e-10
2.05373e-10
2.05409e-10
2.05446e-10
2.05484e-10
2.05524e-10
2.05565e-10
2.05607e-10
2.05649e-10
2.05693e-10
2.05737e-10
2.05782e-10
2.05827e-10
2.05871e-10
2.05916e-10
2.05961e-10
2.06005e-10
2.0605e-10
2.06094e-10
2.06137e-10
2.0618e-10
2.06223e-10
2.06267e-10
2.0631e-10
2.06353e-10
2.06397e-10
2.06441e-10
2.06485e-10
2.0653e-10
2.06576e-10
2.06622e-10
2.06669e-10
2.06717e-10
2.03425e-10
2.03202e-10
2.02989e-10
2.02787e-10
2.02598e-10
2.02424e-10
2.02266e-10
2.02126e-10
2.01999e-10
2.01887e-10
2.01794e-10
2.01722e-10
2.0167e-10
2.01636e-10
2.01626e-10
2.01632e-10
2.01652e-10
2.01689e-10
2.01742e-10
2.01812e-10
2.01896e-10
2.01993e-10
2.02103e-10
2.02223e-10
2.02352e-10
2.02489e-10
2.02634e-10
2.02786e-10
2.0294e-10
2.03094e-10
2.03256e-10
2.03416e-10
2.0356e-10
2.0371e-10
2.03866e-10
2.04005e-10
2.04137e-10
2.04268e-10
2.04398e-10
2.04528e-10
2.04655e-10
2.04779e-10
2.04897e-10
2.05001e-10
2.05094e-10
2.05182e-10
2.05267e-10
2.05345e-10
2.05416e-10
2.05478e-10
2.05533e-10
2.05579e-10
2.05617e-10
2.05649e-10
2.05674e-10
2.05695e-10
2.0571e-10
2.05722e-10
2.0573e-10
2.05736e-10
2.05739e-10
2.05741e-10
2.05742e-10
2.05743e-10
2.05745e-10
2.05747e-10
2.05751e-10
2.05757e-10
2.05765e-10
2.05775e-10
2.05788e-10
2.05804e-10
2.05823e-10
2.05844e-10
2.05868e-10
2.05894e-10
2.05923e-10
2.05954e-10
2.05987e-10
2.06023e-10
2.0606e-10
2.061e-10
2.06142e-10
2.06186e-10
2.06232e-10
2.0628e-10
2.06329e-10
2.06381e-10
2.06434e-10
2.06488e-10
2.06544e-10
2.06601e-10
2.06659e-10
2.06718e-10
2.06778e-10
2.06838e-10
2.06898e-10
2.06959e-10
2.07021e-10
2.07082e-10
2.07143e-10
2.07205e-10
2.07266e-10
2.07328e-10
2.0739e-10
2.07452e-10
2.07515e-10
2.07578e-10
2.07642e-10
2.07707e-10
2.07772e-10
2.07839e-10
2.07907e-10
2.07975e-10
2.08045e-10
2.04178e-10
2.03958e-10
2.03751e-10
2.0356e-10
2.03381e-10
2.03217e-10
2.03067e-10
2.02934e-10
2.02814e-10
2.02709e-10
2.0262e-10
2.02549e-10
2.02495e-10
2.02459e-10
2.02442e-10
2.02443e-10
2.02455e-10
2.02481e-10
2.02522e-10
2.02577e-10
2.02644e-10
2.02722e-10
2.02809e-10
2.02905e-10
2.03008e-10
2.03118e-10
2.03235e-10
2.03357e-10
2.03482e-10
2.03611e-10
2.03748e-10
2.03882e-10
2.0401e-10
2.04146e-10
2.04291e-10
2.04423e-10
2.04549e-10
2.04677e-10
2.04809e-10
2.04944e-10
2.05079e-10
2.05215e-10
2.05347e-10
2.05465e-10
2.05574e-10
2.0568e-10
2.05784e-10
2.05883e-10
2.05975e-10
2.06059e-10
2.06135e-10
2.06203e-10
2.06263e-10
2.06316e-10
2.06363e-10
2.06403e-10
2.06437e-10
2.06466e-10
2.06491e-10
2.06512e-10
2.0653e-10
2.06546e-10
2.06561e-10
2.06576e-10
2.0659e-10
2.06606e-10
2.06624e-10
2.06643e-10
2.06665e-10
2.06689e-10
2.06716e-10
2.06746e-10
2.06779e-10
2.06815e-10
2.06853e-10
2.06895e-10
2.06938e-10
2.06985e-10
2.07033e-10
2.07084e-10
2.07137e-10
2.07193e-10
2.0725e-10
2.0731e-10
2.07373e-10
2.07437e-10
2.07504e-10
2.07573e-10
2.07644e-10
2.07716e-10
2.07791e-10
2.07868e-10
2.07946e-10
2.08025e-10
2.08106e-10
2.08187e-10
2.0827e-10
2.08353e-10
2.08438e-10
2.08522e-10
2.08607e-10
2.08693e-10
2.08779e-10
2.08866e-10
2.08953e-10
2.09041e-10
2.09129e-10
2.09219e-10
2.0931e-10
2.09402e-10
2.09495e-10
2.0959e-10
2.09686e-10
2.09784e-10
2.09883e-10
2.09983e-10
2.06844e-10
2.06581e-10
2.06311e-10
2.06054e-10
2.05811e-10
2.05573e-10
2.05343e-10
2.05122e-10
2.0491e-10
2.04713e-10
2.04531e-10
2.04361e-10
2.04204e-10
2.04061e-10
2.03931e-10
2.03816e-10
2.03714e-10
2.03626e-10
2.03553e-10
2.03495e-10
2.03453e-10
2.03425e-10
2.03414e-10
2.03416e-10
2.03428e-10
2.03451e-10
2.03487e-10
2.03534e-10
2.03589e-10
2.03653e-10
2.03723e-10
2.038e-10
2.03884e-10
2.03974e-10
2.04069e-10
2.0417e-10
2.04276e-10
2.04389e-10
2.04503e-10
2.04618e-10
2.04741e-10
2.04876e-10
2.05005e-10
2.05128e-10
2.05255e-10
2.05391e-10
2.05533e-10
2.05679e-10
2.05829e-10
2.05976e-10
2.06111e-10
2.0624e-10
2.06369e-10
2.06497e-10
2.06622e-10
2.0674e-10
2.06851e-10
2.06954e-10
2.0705e-10
2.07138e-10
2.07218e-10
2.07291e-10
2.07356e-10
2.07414e-10
2.07466e-10
2.07513e-10
2.07555e-10
2.07594e-10
2.0763e-10
2.07664e-10
2.07698e-10
2.07732e-10
2.07767e-10
2.07803e-10
2.07841e-10
2.07882e-10
2.07925e-10
2.07971e-10
2.08021e-10
2.08073e-10
2.08129e-10
2.08187e-10
2.08249e-10
2.08313e-10
2.0838e-10
2.08449e-10
2.08521e-10
2.08595e-10
2.08672e-10
2.08752e-10
2.08834e-10
2.08919e-10
2.09006e-10
2.09096e-10
2.09188e-10
2.09283e-10
2.0938e-10
2.0948e-10
2.09582e-10
2.09686e-10
2.09792e-10
2.099e-10
2.10009e-10
2.1012e-10
2.10232e-10
2.10345e-10
2.10459e-10
2.10574e-10
2.1069e-10
2.10807e-10
2.10925e-10
2.11044e-10
2.11164e-10
2.11285e-10
2.11408e-10
2.11532e-10
2.11658e-10
2.11785e-10
2.11915e-10
2.12046e-10
2.12179e-10
2.12314e-10
2.12452e-10
2.07907e-10
2.0766e-10
2.07405e-10
2.07163e-10
2.06934e-10
2.0671e-10
2.06491e-10
2.06282e-10
2.06084e-10
2.05899e-10
2.05725e-10
2.05564e-10
2.05415e-10
2.05277e-10
2.05151e-10
2.05038e-10
2.04936e-10
2.04847e-10
2.04771e-10
2.04707e-10
2.04656e-10
2.04618e-10
2.04593e-10
2.04579e-10
2.04578e-10
2.04584e-10
2.04599e-10
2.04624e-10
2.04657e-10
2.04698e-10
2.04745e-10
2.04798e-10
2.04859e-10
2.04925e-10
2.04998e-10
2.05078e-10
2.05164e-10
2.05258e-10
2.05356e-10
2.05461e-10
2.05575e-10
2.05702e-10
2.0583e-10
2.05952e-10
2.06081e-10
2.06223e-10
2.06375e-10
2.06535e-10
2.06701e-10
2.06865e-10
2.0702e-10
2.07174e-10
2.0733e-10
2.07487e-10
2.07642e-10
2.07792e-10
2.07935e-10
2.08071e-10
2.082e-10
2.08321e-10
2.08433e-10
2.08537e-10
2.08632e-10
2.0872e-10
2.08801e-10
2.08875e-10
2.08943e-10
2.09007e-10
2.09069e-10
2.09128e-10
2.09186e-10
2.09244e-10
2.09302e-10
2.09362e-10
2.09424e-10
2.09489e-10
2.09557e-10
2.09628e-10
2.09702e-10
2.09779e-10
2.0986e-10
2.09943e-10
2.1003e-10
2.1012e-10
2.10213e-10
2.10309e-10
2.10407e-10
2.10508e-10
2.10612e-10
2.10719e-10
2.10828e-10
2.10941e-10
2.11057e-10
2.11175e-10
2.11297e-10
2.11421e-10
2.11549e-10
2.11679e-10
2.11812e-10
2.11948e-10
2.12086e-10
2.12226e-10
2.12368e-10
2.12513e-10
2.12659e-10
2.12806e-10
2.12955e-10
2.13106e-10
2.13257e-10
2.1341e-10
2.13565e-10
2.1372e-10
2.13878e-10
2.14037e-10
2.14197e-10
2.1436e-10
2.14524e-10
2.14691e-10
2.1486e-10
2.15031e-10
2.15204e-10
2.1538e-10
2.15559e-10
2.09199e-10
2.08971e-10
2.08732e-10
2.0851e-10
2.08296e-10
2.08085e-10
2.07881e-10
2.07688e-10
2.07505e-10
2.07332e-10
2.0717e-10
2.07018e-10
2.06876e-10
2.06744e-10
2.06622e-10
2.06511e-10
2.06409e-10
2.06318e-10
2.06238e-10
2.06168e-10
2.06109e-10
2.0606e-10
2.06022e-10
2.05993e-10
2.05975e-10
2.05965e-10
2.05965e-10
2.0597e-10
2.05982e-10
2.06002e-10
2.06029e-10
2.06062e-10
2.06102e-10
2.06149e-10
2.06204e-10
2.06266e-10
2.06337e-10
2.06417e-10
2.06504e-10
2.06601e-10
2.0671e-10
2.06833e-10
2.06962e-10
2.07086e-10
2.07222e-10
2.07374e-10
2.0754e-10
2.07718e-10
2.07903e-10
2.08087e-10
2.08267e-10
2.0845e-10
2.08638e-10
2.08828e-10
2.09017e-10
2.09203e-10
2.09383e-10
2.09557e-10
2.09723e-10
2.09881e-10
2.10029e-10
2.10169e-10
2.10299e-10
2.10421e-10
2.10534e-10
2.10639e-10
2.10739e-10
2.10833e-10
2.10924e-10
2.11012e-10
2.11099e-10
2.11186e-10
2.11273e-10
2.11361e-10
2.11452e-10
2.11546e-10
2.11642e-10
2.11742e-10
2.11845e-10
2.11952e-10
2.12062e-10
2.12176e-10
2.12293e-10
2.12413e-10
2.12536e-10
2.12662e-10
2.12792e-10
2.12924e-10
2.1306e-10
2.13198e-10
2.1334e-10
2.13485e-10
2.13633e-10
2.13785e-10
2.1394e-10
2.14098e-10
2.1426e-10
2.14425e-10
2.14593e-10
2.14764e-10
2.14938e-10
2.15114e-10
2.15293e-10
2.15474e-10
2.15658e-10
2.15843e-10
2.1603e-10
2.16219e-10
2.16409e-10
2.16601e-10
2.16795e-10
2.1699e-10
2.17187e-10
2.17386e-10
2.17587e-10
2.1779e-10
2.17995e-10
2.18203e-10
2.18413e-10
2.18625e-10
2.18841e-10
2.19058e-10
2.19279e-10
2.10743e-10
2.10533e-10
2.10317e-10
2.10115e-10
2.0992e-10
2.09725e-10
2.09538e-10
2.09362e-10
2.09196e-10
2.09037e-10
2.08887e-10
2.08745e-10
2.08612e-10
2.08488e-10
2.08371e-10
2.08262e-10
2.08162e-10
2.08069e-10
2.07986e-10
2.07911e-10
2.07844e-10
2.07787e-10
2.07738e-10
2.07697e-10
2.07664e-10
2.0764e-10
2.07623e-10
2.07612e-10
2.0761e-10
2.07613e-10
2.07623e-10
2.07639e-10
2.07663e-10
2.07695e-10
2.07736e-10
2.07785e-10
2.07845e-10
2.07915e-10
2.07996e-10
2.0809e-10
2.08197e-10
2.08321e-10
2.08454e-10
2.08586e-10
2.08733e-10
2.08901e-10
2.09086e-10
2.09286e-10
2.09494e-10
2.09702e-10
2.09911e-10
2.10128e-10
2.10352e-10
2.1058e-10
2.10808e-10
2.11033e-10
2.11253e-10
2.11468e-10
2.11674e-10
2.11872e-10
2.1206e-10
2.12238e-10
2.12406e-10
2.12563e-10
2.12712e-10
2.12852e-10
2.12985e-10
2.13113e-10
2.13237e-10
2.13357e-10
2.13476e-10
2.13595e-10
2.13714e-10
2.13835e-10
2.13958e-10
2.14083e-10
2.14212e-10
2.14344e-10
2.14479e-10
2.14619e-10
2.14762e-10
2.14908e-10
2.15058e-10
2.15212e-10
2.15368e-10
2.15528e-10
2.15691e-10
2.15857e-10
2.16026e-10
2.16199e-10
2.16375e-10
2.16554e-10
2.16737e-10
2.16924e-10
2.17114e-10
2.17308e-10
2.17505e-10
2.17706e-10
2.17911e-10
2.18118e-10
2.18329e-10
2.18543e-10
2.18759e-10
2.18978e-10
2.19199e-10
2.19422e-10
2.19647e-10
2.19874e-10
2.20102e-10
2.20333e-10
2.20565e-10
2.20799e-10
2.21034e-10
2.21272e-10
2.21511e-10
2.21753e-10
2.21997e-10
2.22243e-10
2.22491e-10
2.22742e-10
2.22996e-10
2.23252e-10
2.23511e-10
2.23772e-10
2.24035e-10
2.12554e-10
2.12368e-10
2.12177e-10
2.11998e-10
2.11822e-10
2.11647e-10
2.1148e-10
2.11324e-10
2.11175e-10
2.11032e-10
2.10895e-10
2.10765e-10
2.10643e-10
2.10527e-10
2.10417e-10
2.10313e-10
2.10216e-10
2.10124e-10
2.10039e-10
2.09961e-10
2.0989e-10
2.09826e-10
2.09768e-10
2.09718e-10
2.09675e-10
2.09639e-10
2.09609e-10
2.09586e-10
2.0957e-10
2.09561e-10
2.0956e-10
2.09565e-10
2.09576e-10
2.09597e-10
2.09628e-10
2.0967e-10
2.09724e-10
2.0979e-10
2.0987e-10
2.09965e-10
2.10076e-10
2.10207e-10
2.10347e-10
2.10492e-10
2.10658e-10
2.10847e-10
2.11056e-10
2.11283e-10
2.11517e-10
2.11754e-10
2.11998e-10
2.12253e-10
2.12516e-10
2.12784e-10
2.13053e-10
2.1332e-10
2.13582e-10
2.13838e-10
2.14086e-10
2.14325e-10
2.14553e-10
2.14769e-10
2.14975e-10
2.1517e-10
2.15354e-10
2.1553e-10
2.15698e-10
2.1586e-10
2.16018e-10
2.16172e-10
2.16325e-10
2.16477e-10
2.16629e-10
2.16783e-10
2.16939e-10
2.17098e-10
2.1726e-10
2.17425e-10
2.17594e-10
2.17767e-10
2.17944e-10
2.18124e-10
2.18307e-10
2.18494e-10
2.18683e-10
2.18877e-10
2.19073e-10
2.19272e-10
2.19475e-10
2.19681e-10
2.19891e-10
2.20104e-10
2.20321e-10
2.20541e-10
2.20766e-10
2.20993e-10
2.21225e-10
2.2146e-10
2.21699e-10
2.21941e-10
2.22186e-10
2.22434e-10
2.22684e-10
2.22938e-10
2.23193e-10
2.2345e-10
2.23709e-10
2.2397e-10
2.24232e-10
2.24496e-10
2.24762e-10
2.25029e-10
2.25297e-10
2.25568e-10
2.2584e-10
2.26113e-10
2.26389e-10
2.26667e-10
2.26947e-10
2.27229e-10
2.27512e-10
2.27798e-10
2.28086e-10
2.28376e-10
2.28668e-10
2.14644e-10
2.14483e-10
2.14319e-10
2.14165e-10
2.14014e-10
2.13862e-10
2.13716e-10
2.13581e-10
2.13451e-10
2.13324e-10
2.13203e-10
2.13087e-10
2.12977e-10
2.12872e-10
2.12771e-10
2.12674e-10
2.12581e-10
2.12492e-10
2.12409e-10
2.1233e-10
2.12257e-10
2.12189e-10
2.12127e-10
2.12071e-10
2.12021e-10
2.11976e-10
2.11938e-10
2.11907e-10
2.11882e-10
2.11864e-10
2.11854e-10
2.11854e-10
2.11859e-10
2.11874e-10
2.119e-10
2.11939e-10
2.11992e-10
2.1206e-10
2.12145e-10
2.12246e-10
2.12366e-10
2.12511e-10
2.12662e-10
2.12827e-10
2.13018e-10
2.13234e-10
2.13473e-10
2.1373e-10
2.13993e-10
2.14264e-10
2.14546e-10
2.14841e-10
2.15145e-10
2.15454e-10
2.15764e-10
2.16072e-10
2.16375e-10
2.16672e-10
2.1696e-10
2.17237e-10
2.17502e-10
2.17755e-10
2.17997e-10
2.18226e-10
2.18445e-10
2.18654e-10
2.18856e-10
2.1905e-10
2.1924e-10
2.19427e-10
2.19611e-10
2.19795e-10
2.1998e-10
2.20165e-10
2.20353e-10
2.20544e-10
2.20738e-10