/*--------------------------------*- C++ -*----------------------------------*\
| =========                 |                                                 |
| \\      /  F ield         | OpenFOAM: The Open Source CFD Toolbox           |
|  \\    /   O peration     | Version:  v1706                                 |
|   \\  /    A nd           | Web:      www.OpenFOAM.com                      |
|    \\/     M anipulation  |                                                 |
\*---------------------------------------------------------------------------*/
FoamFile
{
    version     2.0;
    format      ascii;
    class       volScalarField;
    location    "1.2e-05";
    object      kappatr;
}
// * * * * * * * * * * * * * * * * * * * * * * * * * * * * * * * * * * * * * //

dimensions      [1 1 -3 -1 0 0 0];


internalField   nonuniform List<scalar> 
29871
(
0.0146004
0.0146001
0.0145998
0.0145996
0.0145993
0.0145991
0.0145988
0.0145986
0.0145984
0.0145982
0.0145979
0.0145978
0.0145976
0.0145974
0.0145972
0.0145971
0.0145969
0.0145968
0.0145967
0.0145966
0.0145965
0.0145964
0.0145963
0.0145963
0.0145962
0.0145962
0.0145962
0.0145961
0.0145961
0.0145961
0.0145961
0.0145961
0.0145961
0.0145961
0.0145961
0.0145962
0.0145962
0.0145962
0.0145962
0.0145963
0.0145963
0.0145963
0.0145964
0.0145964
0.0145964
0.0145965
0.0145965
0.0145966
0.0145966
0.0145966
0.0145967
0.0145967
0.0145968
0.0145968
0.0145968
0.0145969
0.0145969
0.014597
0.014597
0.0145971
0.0145971
0.0145972
0.0145972
0.0145973
0.0145973
0.0145974
0.0145974
0.0145974
0.0145975
0.0145975
0.0145976
0.0145976
0.0145977
0.0145977
0.0145978
0.0145978
0.0145979
0.0145979
0.014598
0.014598
0.014598
0.0145981
0.0145981
0.0145982
0.0145982
0.0145982
0.0145983
0.0145983
0.0145984
0.0145984
0.0145985
0.0145985
0.0145985
0.0145986
0.0145986
0.0145987
0.0145987
0.0145987
0.0145988
0.0145988
0.0145989
0.0145989
0.014599
0.014599
0.0145991
0.0146358
0.0146343
0.0146328
0.0146313
0.0146299
0.0146285
0.0146271
0.0146257
0.0146245
0.0146232
0.014622
0.0146209
0.0146198
0.0146188
0.0146179
0.014617
0.0146162
0.0146155
0.0146148
0.0146142
0.0146137
0.0146132
0.0146128
0.0146124
0.0146121
0.0146119
0.0146117
0.0146116
0.0146115
0.0146114
0.0146114
0.0146115
0.0146115
0.0146116
0.0146117
0.0146119
0.014612
0.0146122
0.0146124
0.0146126
0.0146128
0.014613
0.0146133
0.0146135
0.0146137
0.014614
0.0146143
0.0146145
0.0146148
0.014615
0.0146153
0.0146156
0.0146159
0.0146162
0.0146164
0.0146167
0.014617
0.0146173
0.0146176
0.014618
0.0146183
0.0146186
0.0146189
0.0146192
0.0146196
0.0146199
0.0146202
0.0146206
0.0146209
0.0146212
0.0146215
0.0146219
0.0146222
0.0146225
0.0146228
0.0146231
0.0146234
0.0146237
0.014624
0.0146243
0.0146246
0.0146249
0.0146252
0.0146255
0.0146258
0.0146261
0.0146264
0.0146267
0.014627
0.0146273
0.0146276
0.0146279
0.0146282
0.0146285
0.0146289
0.0146292
0.0146295
0.0146298
0.0146301
0.0146305
0.0146308
0.0146311
0.0146315
0.0146318
0.0146322
0.0147254
0.0147209
0.0147165
0.0147122
0.0147079
0.0147037
0.0146995
0.0146955
0.0146916
0.0146878
0.0146842
0.0146807
0.0146775
0.0146743
0.0146714
0.0146687
0.0146661
0.0146638
0.0146616
0.0146597
0.0146579
0.0146563
0.014655
0.0146538
0.0146528
0.014652
0.0146513
0.0146508
0.0146505
0.0146503
0.0146503
0.0146503
0.0146505
0.0146507
0.014651
0.0146515
0.014652
0.0146525
0.0146531
0.0146538
0.0146545
0.0146553
0.014656
0.0146568
0.0146576
0.0146585
0.0146593
0.0146602
0.0146611
0.014662
0.0146629
0.0146638
0.0146648
0.0146657
0.0146667
0.0146677
0.0146687
0.0146697
0.0146707
0.0146718
0.0146729
0.014674
0.0146751
0.0146762
0.0146773
0.0146785
0.0146796
0.0146808
0.0146819
0.0146831
0.0146843
0.0146855
0.0146866
0.0146878
0.014689
0.0146901
0.0146913
0.0146925
0.0146936
0.0146948
0.0146959
0.014697
0.0146982
0.0146993
0.0147004
0.0147016
0.0147027
0.0147039
0.014705
0.0147062
0.0147073
0.0147085
0.0147097
0.0147109
0.0147121
0.0147133
0.0147146
0.0147158
0.0147171
0.0147183
0.0147196
0.0147209
0.0147222
0.0147236
0.0147249
0.0147263
0.0149246
0.0149139
0.0149032
0.0148926
0.0148822
0.0148719
0.0148618
0.014852
0.0148424
0.0148332
0.0148243
0.0148159
0.0148078
0.0148002
0.0147931
0.0147864
0.0147802
0.0147745
0.0147693
0.0147647
0.0147605
0.0147568
0.0147536
0.0147509
0.0147487
0.0147469
0.0147455
0.0147445
0.014744
0.0147438
0.0147439
0.0147442
0.0147449
0.0147458
0.0147469
0.0147482
0.0147498
0.0147515
0.0147533
0.0147553
0.0147573
0.0147595
0.0147617
0.014764
0.0147663
0.0147687
0.0147712
0.0147737
0.0147762
0.0147788
0.0147815
0.0147841
0.0147869
0.0147896
0.0147924
0.0147953
0.0147982
0.0148012
0.0148042
0.0148073
0.0148105
0.0148136
0.0148169
0.0148202
0.0148235
0.0148269
0.0148303
0.0148338
0.0148372
0.0148407
0.0148443
0.0148478
0.0148513
0.0148549
0.0148584
0.014862
0.0148655
0.0148691
0.0148726
0.0148761
0.0148796
0.0148832
0.0148867
0.0148902
0.0148937
0.0148973
0.0149008
0.0149044
0.014908
0.0149116
0.0149153
0.014919
0.0149227
0.0149265
0.0149303
0.0149341
0.014938
0.014942
0.0149459
0.01495
0.0149541
0.0149582
0.0149624
0.0149666
0.0149709
0.0149752
0.0153607
0.0153379
0.0153151
0.0152923
0.0152697
0.0152473
0.0152253
0.0152037
0.0151827
0.0151623
0.0151427
0.0151237
0.0151056
0.0150884
0.0150722
0.0150569
0.0150427
0.0150295
0.0150174
0.0150064
0.0149966
0.0149878
0.0149802
0.0149737
0.0149683
0.014964
0.0149607
0.0149584
0.014957
0.0149566
0.0149569
0.0149577
0.0149593
0.0149615
0.0149644
0.0149677
0.0149716
0.0149758
0.0149804
0.0149853
0.0149905
0.0149959
0.0150015
0.0150073
0.0150133
0.0150194
0.0150256
0.0150319
0.0150383
0.0150448
0.0150515
0.0150582
0.0150651
0.0150721
0.0150792
0.0150864
0.0150937
0.0151012
0.0151089
0.0151167
0.0151246
0.0151327
0.0151409
0.0151493
0.0151578
0.0151664
0.0151752
0.0151841
0.0151931
0.0152022
0.0152114
0.0152206
0.01523
0.0152393
0.0152488
0.0152583
0.0152678
0.0152773
0.0152868
0.0152964
0.015306
0.0153156
0.0153252
0.0153349
0.0153446
0.0153543
0.0153641
0.0153739
0.0153839
0.0153938
0.0154039
0.0154141
0.0154244
0.0154348
0.0154453
0.0154559
0.0154666
0.0154775
0.0154885
0.0154996
0.0155108
0.0155222
0.0155337
0.0155453
0.015557
0.0155688
0.0155808
0.0161476
0.0161059
0.016064
0.0160219
0.0159801
0.0159385
0.0158974
0.015857
0.0158175
0.0157791
0.0157419
0.0157062
0.015672
0.0156396
0.015609
0.0155803
0.0155537
0.0155292
0.0155069
0.0154868
0.015469
0.0154534
0.01544
0.0154289
0.0154201
0.0154133
0.0154086
0.0154059
0.0154055
0.0154063
0.0154085
0.0154123
0.0154176
0.0154242
0.0154319
0.0154406
0.0154503
0.0154607
0.0154718
0.0154835
0.0154957
0.0155083
0.0155213
0.0155346
0.0155482
0.0155621
0.0155762
0.0155905
0.015605
0.0156197
0.0156347
0.01565
0.0156655
0.0156812
0.0156973
0.0157136
0.0157303
0.0157472
0.0157645
0.0157821
0.0158
0.0158183
0.0158368
0.0158557
0.0158749
0.0158943
0.015914
0.015934
0.0159542
0.0159746
0.0159952
0.016016
0.0160369
0.0160579
0.016079
0.0161002
0.0161215
0.0161427
0.016164
0.0161853
0.0162066
0.0162279
0.0162493
0.0162706
0.016292
0.0163135
0.016335
0.0163566
0.0163783
0.0164001
0.0164221
0.0164442
0.0164666
0.0164891
0.0165118
0.0165348
0.016558
0.0165814
0.016605
0.0166289
0.0166531
0.0166774
0.016702
0.0167268
0.0167518
0.016777
0.0168023
0.0175045
0.0174473
0.0173888
0.0173295
0.0172693
0.0172087
0.0171477
0.0170868
0.017026
0.0169657
0.0169062
0.0168476
0.0167904
0.0167347
0.0166808
0.016629
0.0165795
0.0165327
0.0164887
0.0164479
0.0164104
0.0163764
0.0163462
0.0163198
0.0162972
0.0162786
0.0162639
0.016253
0.0162458
0.0162425
0.016243
0.0162456
0.0162512
0.0162598
0.0162709
0.0162843
0.0162998
0.0163171
0.0163359
0.0163562
0.0163776
0.0163999
0.0164232
0.0164471
0.0164716
0.0164965
0.0165219
0.0165476
0.0165737
0.0166
0.0166266
0.0166535
0.0166807
0.0167082
0.0167359
0.0167641
0.0167926
0.0168215
0.0168509
0.0168807
0.016911
0.0169417
0.016973
0.0170047
0.0170369
0.0170696
0.0171026
0.017136
0.0171697
0.0172038
0.0172381
0.0172727
0.0173075
0.0173425
0.0173776
0.0174128
0.017448
0.0174832
0.0175185
0.0175537
0.0175888
0.0176239
0.0176588
0.0176936
0.0177284
0.017763
0.0177975
0.017832
0.0178664
0.0179008
0.0179352
0.0179696
0.0180041
0.0180386
0.0180733
0.0181082
0.0181433
0.0181786
0.0182141
0.0182498
0.0182858
0.018322
0.0183585
0.0183952
0.0184321
0.0184693
0.0185067
0.0185442
0.0185819
0.0186195
0.0188505
0.018791
0.0187297
0.0186669
0.0186028
0.0185377
0.0184718
0.0184053
0.0183386
0.018272
0.0182059
0.0181408
0.018077
0.018015
0.0179552
0.0178979
0.0178434
0.0177923
0.0177446
0.0177008
0.0176609
0.0176254
0.0175944
0.0175683
0.0175473
0.0175313
0.0175203
0.0175147
0.0175146
0.0175179
0.0175253
0.0175371
0.0175531
0.0175726
0.0175951
0.0176204
0.017648
0.0176776
0.0177088
0.0177413
0.0177749
0.0178093
0.0178442
0.0178794
0.0179148
0.0179502
0.0179855
0.0180208
0.0180559
0.0180909
0.0181258
0.0181607
0.0181955
0.0182305
0.0182656
0.0183009
0.0183364
0.0183723
0.0184085
0.018445
0.018482
0.0185193
0.018557
0.0185952
0.0186338
0.0186728
0.018712
0.0187513
0.0187906
0.0188299
0.0188691
0.0189081
0.0189469
0.0189855
0.0190237
0.0190616
0.0190989
0.0191358
0.0191721
0.0192078
0.0192428
0.019277
0.0193105
0.0193431
0.0193749
0.0194059
0.019436
0.0194652
0.0194935
0.019521
0.0195477
0.0195736
0.0195986
0.019623
0.0196466
0.0196695
0.0196917
0.0197133
0.0197342
0.0197546
0.0197743
0.0197934
0.019812
0.01983
0.0198474
0.0198642
0.0198805
0.0198963
0.0199115
0.0199263
0.0196429
0.0196055
0.0195683
0.0195309
0.0194932
0.0194549
0.0194164
0.0193777
0.0193389
0.0193
0.019261
0.019222
0.0191832
0.0191448
0.0191072
0.0190709
0.0190363
0.0190037
0.0189739
0.0189475
0.0189251
0.0189069
0.0188931
0.018884
0.0188805
0.0188817
0.018887
0.0188968
0.0189093
0.0189275
0.0189485
0.0189723
0.0189991
0.0190284
0.0190593
0.0190914
0.0191241
0.0191571
0.0191901
0.0192228
0.019255
0.0192866
0.0193175
0.0193474
0.0193765
0.0194048
0.0194322
0.0194589
0.0194848
0.01951
0.0195345
0.0195584
0.0195817
0.0196044
0.0196266
0.0196482
0.0196694
0.01969
0.0197102
0.01973
0.0197493
0.0197682
0.0197867
0.0198048
0.0198225
0.0198398
0.0198567
0.0198733
0.0198896
0.0199056
0.0199212
0.0199366
0.0199517
0.0199664
0.0199809
0.019995
0.0200087
0.0200222
0.0200353
0.0200481
0.0200605
0.0200726
0.0200843
0.0200957
0.0201068
0.0201174
0.0201277
0.0201377
0.0201473
0.0201565
0.0201654
0.0201739
0.0201821
0.0201899
0.0201974
0.0202046
0.0202116
0.0202182
0.0202247
0.0202309
0.020237
0.0202429
0.0202486
0.0202542
0.0202597
0.020265
0.0202702
0.0202754
0.0202804
0.0202853
0.0199413
0.0199129
0.0198855
0.0198591
0.0198341
0.0198101
0.0197867
0.0197647
0.0197445
0.0197262
0.0197098
0.0196956
0.0196836
0.0196739
0.0196665
0.0196613
0.0196584
0.0196581
0.0196594
0.0196627
0.0196684
0.0196765
0.0196872
0.0197004
0.0197158
0.0197315
0.0197526
0.0197752
0.0197964
0.0198194
0.0198438
0.0198684
0.0198925
0.0199163
0.0199394
0.0199618
0.0199832
0.0200035
0.0200224
0.0200399
0.0200561
0.0200713
0.0200855
0.0200985
0.0201104
0.0201212
0.0201311
0.02014
0.0201479
0.0201551
0.0201616
0.0201674
0.0201727
0.0201776
0.0201821
0.0201862
0.0201901
0.0201938
0.0201974
0.0202009
0.0202043
0.0202076
0.020211
0.0202144
0.0202179
0.0202214
0.0202249
0.0202286
0.0202324
0.0202363
0.0202403
0.0202445
0.0202488
0.0202533
0.0202579
0.0202627
0.0202676
0.0202727
0.0202779
0.0202832
0.0202885
0.0202939
0.0202993
0.0203048
0.0203101
0.0203154
0.0203206
0.0203257
0.0203306
0.0203354
0.0203399
0.0203443
0.0203485
0.0203524
0.0203562
0.0203597
0.0203631
0.0203663
0.0203693
0.0203722
0.020375
0.0203776
0.0203802
0.0203826
0.0203849
0.0203871
0.0203893
0.0203914
0.0203934
0.0203954
0.0200419
0.0200188
0.0199986
0.0199807
0.019962
0.0199436
0.019928
0.0199149
0.0199032
0.0198928
0.0198841
0.0198775
0.0198731
0.0198717
0.0198726
0.0198761
0.0198825
0.0198915
0.0199017
0.0199162
0.0199335
0.019953
0.0199743
0.0199968
0.0200197
0.0200435
0.0200692
0.0200941
0.0201177
0.020142
0.0201657
0.0201878
0.0202086
0.0202277
0.0202449
0.0202609
0.0202753
0.020288
0.0202993
0.0203092
0.0203179
0.0203249
0.0203306
0.0203351
0.0203388
0.0203417
0.0203438
0.0203454
0.0203464
0.020347
0.0203472
0.0203472
0.020347
0.0203467
0.0203463
0.0203458
0.0203453
0.0203448
0.0203443
0.0203439
0.0203436
0.0203434
0.0203433
0.0203434
0.0203436
0.020344
0.0203446
0.0203454
0.0203463
0.0203474
0.0203486
0.0203501
0.0203517
0.0203535
0.0203554
0.0203575
0.0203597
0.0203621
0.0203646
0.0203672
0.02037
0.0203729
0.0203758
0.0203789
0.0203819
0.0203851
0.0203882
0.0203913
0.0203944
0.0203974
0.0204003
0.0204032
0.0204059
0.0204086
0.0204111
0.0204135
0.0204158
0.0204181
0.0204202
0.0204222
0.0204242
0.0204262
0.0204281
0.02043
0.0204319
0.0204337
0.0204356
0.0204375
0.0204394
0.0204413
0.020126
0.0201015
0.020079
0.0200587
0.0200406
0.0200225
0.0200044
0.0199897
0.0199775
0.0199682
0.0199614
0.0199568
0.0199554
0.0199563
0.0199595
0.0199654
0.0199737
0.0199843
0.0199966
0.0200096
0.0200248
0.0200426
0.0200624
0.0200825
0.0201038
0.0201266
0.0201509
0.0201736
0.0201953
0.0202183
0.0202402
0.0202606
0.0202809
0.0202993
0.0203148
0.0203297
0.020344
0.0203565
0.0203674
0.0203773
0.0203861
0.0203933
0.0203996
0.020405
0.0204094
0.0204129
0.0204157
0.0204178
0.0204193
0.02042
0.02042
0.0204197
0.0204189
0.0204177
0.0204162
0.0204144
0.0204126
0.0204107
0.0204088
0.0204069
0.0204051
0.0204033
0.0204017
0.0204002
0.020399
0.0203979
0.020397
0.0203964
0.020396
0.0203958
0.0203959
0.0203962
0.0203968
0.0203976
0.0203987
0.0204
0.0204015
0.0204035
0.0204056
0.0204078
0.0204103
0.0204129
0.0204157
0.0204186
0.0204216
0.0204247
0.0204279
0.0204311
0.0204343
0.0204376
0.0204407
0.0204439
0.020447
0.02045
0.0204529
0.0204557
0.0204585
0.0204611
0.0204637
0.0204662
0.0204687
0.0204711
0.0204735
0.0204758
0.0204782
0.0204805
0.0204828
0.0204852
0.0204876
0.02049
0.0204924
0.0201748
0.0201513
0.0201306
0.0201111
0.0200936
0.0200768
0.0200609
0.0200471
0.0200358
0.020027
0.0200204
0.0200161
0.020015
0.0200159
0.0200187
0.020024
0.0200317
0.0200417
0.0200537
0.0200675
0.0200832
0.0201007
0.0201194
0.0201391
0.0201596
0.020181
0.0202027
0.0202233
0.0202439
0.0202651
0.0202833
0.0203014
0.0203198
0.020336
0.0203505
0.0203643
0.0203775
0.0203897
0.0204009
0.0204111
0.0204204
0.0204284
0.0204348
0.0204403
0.0204451
0.0204491
0.0204523
0.0204547
0.0204564
0.0204574
0.0204578
0.0204578
0.0204574
0.0204567
0.0204557
0.0204545
0.0204531
0.0204517
0.0204501
0.0204486
0.0204471
0.0204457
0.0204444
0.0204432
0.0204422
0.0204414
0.0204409
0.0204406
0.0204405
0.0204407
0.020441
0.0204417
0.0204426
0.0204437
0.0204452
0.0204467
0.0204486
0.0204508
0.0204532
0.0204558
0.0204585
0.0204615
0.0204646
0.0204679
0.0204712
0.0204747
0.0204782
0.0204817
0.0204852
0.0204888
0.0204924
0.020496
0.0204995
0.0205031
0.0205065
0.02051
0.0205133
0.0205166
0.0205199
0.020523
0.0205262
0.0205293
0.0205323
0.0205354
0.0205384
0.0205415
0.0205445
0.0205476
0.0205508
0.0205539
0.0205571
0.0205604
0.0205637
0.0202239
0.0202023
0.0201827
0.020164
0.0201474
0.0201323
0.0201184
0.0201061
0.020096
0.0200883
0.0200828
0.0200791
0.0200779
0.0200785
0.0200806
0.0200848
0.0200914
0.0201
0.0201104
0.0201223
0.0201358
0.0201505
0.0201663
0.0201829
0.0202004
0.0202187
0.0202371
0.0202551
0.0202737
0.0202922
0.0203086
0.0203252
0.0203422
0.0203572
0.020371
0.0203845
0.0203975
0.02041
0.0204219
0.0204331
0.0204436
0.0204527
0.0204604
0.0204674
0.0204739
0.0204797
0.0204846
0.0204888
0.0204922
0.0204948
0.0204968
0.0204982
0.0204992
0.0204998
0.0204999
0.0204998
0.0204995
0.020499
0.0204983
0.0204976
0.0204968
0.0204961
0.0204954
0.0204949
0.0204945
0.0204943
0.0204942
0.0204944
0.0204948
0.0204954
0.0204964
0.0204975
0.020499
0.0205006
0.0205026
0.0205047
0.020507
0.0205097
0.0205125
0.0205155
0.0205187
0.0205221
0.0205257
0.0205294
0.0205332
0.0205372
0.0205413
0.0205455
0.0205498
0.0205541
0.0205586
0.020563
0.0205675
0.020572
0.0205764
0.0205809
0.0205853
0.0205898
0.0205942
0.0205985
0.0206028
0.0206071
0.0206115
0.0206158
0.0206201
0.0206245
0.0206289
0.0206333
0.0206378
0.0206424
0.020647
0.0206517
0.0206565
0.0203275
0.0203052
0.0202839
0.0202637
0.0202449
0.0202274
0.0202117
0.0201977
0.020185
0.0201738
0.0201645
0.0201574
0.0201521
0.0201488
0.0201478
0.0201483
0.0201503
0.020154
0.0201593
0.0201663
0.0201747
0.0201844
0.0201954
0.0202074
0.0202203
0.020234
0.0202485
0.0202636
0.020279
0.0202945
0.0203107
0.0203266
0.020341
0.020356
0.0203716
0.0203855
0.0203986
0.0204117
0.0204248
0.0204377
0.0204504
0.0204628
0.0204746
0.020485
0.0204943
0.0205031
0.0205115
0.0205194
0.0205264
0.0205327
0.0205381
0.0205427
0.0205465
0.0205497
0.0205523
0.0205543
0.0205559
0.020557
0.0205579
0.0205584
0.0205587
0.0205589
0.020559
0.0205591
0.0205593
0.0205595
0.0205599
0.0205605
0.0205613
0.0205624
0.0205637
0.0205652
0.0205671
0.0205692
0.0205716
0.0205742
0.0205771
0.0205802
0.0205835
0.0205871
0.0205908
0.0205948
0.020599
0.0206034
0.020608
0.0206128
0.0206177
0.0206228
0.0206281
0.0206336
0.0206392
0.0206449
0.0206507
0.0206566
0.0206625
0.0206685
0.0206746
0.0206807
0.0206868
0.0206929
0.0206991
0.0207052
0.0207113
0.0207175
0.0207237
0.0207299
0.0207362
0.0207425
0.0207489
0.0207554
0.0207619
0.0207686
0.0207753
0.0207822
0.0207892
0.0204027
0.0203808
0.0203601
0.020341
0.0203232
0.0203067
0.0202918
0.0202784
0.0202665
0.0202559
0.020247
0.0202399
0.0202346
0.020231
0.0202293
0.0202294
0.0202306
0.0202332
0.0202373
0.0202428
0.0202495
0.0202573
0.020266
0.0202755
0.0202858
0.0202968
0.0203085
0.0203207
0.0203332
0.0203461
0.0203598
0.0203731
0.020386
0.0203996
0.020414
0.0204272
0.0204398
0.0204526
0.0204658
0.0204792
0.0204928
0.0205063
0.0205195
0.0205314
0.0205422
0.0205529
0.0205632
0.0205731
0.0205823
0.0205907
0.0205983
0.0206051
0.0206111
0.0206164
0.0206211
0.0206251
0.0206285
0.0206314
0.0206338
0.0206359
0.0206378
0.0206394
0.0206409
0.0206423
0.0206438
0.0206454
0.0206471
0.0206491
0.0206513
0.0206537
0.0206564
0.0206594
0.0206627
0.0206662
0.0206701
0.0206742
0.0206786
0.0206832
0.0206881
0.0206931
0.0206985
0.020704
0.0207098
0.0207158
0.020722
0.0207284
0.0207351
0.020742
0.0207491
0.0207563
0.0207638
0.0207714
0.0207792
0.0207872
0.0207952
0.0208034
0.0208117
0.02082
0.0208284
0.0208368
0.0208453
0.0208539
0.0208625
0.0208712
0.0208799
0.0208887
0.0208975
0.0209065
0.0209156
0.0209248
0.0209341
0.0209435
0.0209531
0.0209629
0.0209728
0.0209829
0.0206692
0.0206429
0.0206159
0.0205902
0.0205659
0.0205421
0.0205192
0.020497
0.0204759
0.0204562
0.020438
0.020421
0.0204054
0.020391
0.0203781
0.0203666
0.0203564
0.0203475
0.0203403
0.0203345
0.0203303
0.0203275
0.0203264
0.0203266
0.0203278
0.0203302
0.0203337
0.0203384
0.0203439
0.0203502
0.0203573
0.020365
0.0203733
0.0203823
0.0203919
0.0204019
0.0204126
0.0204238
0.0204352
0.0204467
0.020459
0.0204725
0.0204854
0.0204976
0.0205104
0.0205239
0.0205381
0.0205528
0.0205677
0.0205824
0.0205959
0.0206088
0.0206217
0.0206345
0.0206469
0.0206587
0.0206698
0.0206802
0.0206897
0.0206985
0.0207065
0.0207138
0.0207203
0.0207261
0.0207313
0.020736
0.0207402
0.0207441
0.0207477
0.0207511
0.0207545
0.0207579
0.0207613
0.020765
0.0207688
0.0207728
0.0207772
0.0207818
0.0207867
0.020792
0.0207975
0.0208034
0.0208095
0.020816
0.0208226
0.0208296
0.0208367
0.0208442
0.0208519
0.0208598
0.020868
0.0208765
0.0208852
0.0208941
0.0209034
0.0209129
0.0209226
0.0209326
0.0209428
0.0209531
0.0209637
0.0209745
0.0209854
0.0209965
0.0210077
0.021019
0.0210304
0.0210419
0.0210535
0.0210652
0.021077
0.0210889
0.0211009
0.021113
0.0211252
0.0211376
0.0211502
0.0211629
0.0211758
0.021189
0.0212023
0.0212158
0.0212295
0.0207754
0.0207507
0.0207252
0.020701
0.0206781
0.0206557
0.0206338
0.020613
0.0205932
0.0205747
0.0205574
0.0205413
0.0205263
0.0205126
0.0205
0.0204887
0.0204785
0.0204696
0.020462
0.0204556
0.0204506
0.0204467
0.0204442
0.0204428
0.0204427
0.0204433
0.0204448
0.0204473
0.0204506
0.0204547
0.0204594
0.0204648
0.0204708
0.0204774
0.0204847
0.0204926
0.0205013
0.0205106
0.0205205
0.020531
0.0205423
0.020555
0.0205679
0.02058
0.0205929
0.0206071
0.0206223
0.0206383
0.0206549
0.0206712
0.0206868
0.0207021
0.0207177
0.0207334
0.0207489
0.0207638
0.0207782
0.0207918
0.0208046
0.0208167
0.0208279
0.0208383
0.0208479
0.0208566
0.0208647
0.0208721
0.0208789
0.0208853
0.0208914
0.0208973
0.0209031
0.0209089
0.0209148
0.0209208
0.020927
0.0209335
0.0209402
0.0209473
0.0209547
0.0209624
0.0209705
0.0209789
0.0209876
0.0209965
0.0210058
0.0210154
0.0210252
0.0210353
0.0210457
0.0210563
0.0210673
0.0210786
0.0210901
0.021102
0.0211141
0.0211266
0.0211393
0.0211523
0.0211656
0.0211792
0.0211929
0.021207
0.0212212
0.0212356
0.0212502
0.0212649
0.0212798
0.0212949
0.02131
0.0213253
0.0213407
0.0213563
0.021372
0.0213879
0.0214039
0.0214202
0.0214366
0.0214533
0.0214701
0.0214872
0.0215046
0.0215222
0.02154
0.0209045
0.0208816
0.0208578
0.0208356
0.0208143
0.0207932
0.0207727
0.0207534
0.0207352
0.0207179
0.0207017
0.0206865
0.0206723
0.0206592
0.020647
0.0206358
0.0206257
0.0206166
0.0206085
0.0206016
0.0205957
0.0205908
0.020587
0.0205842
0.0205823
0.0205813
0.0205813
0.0205818
0.0205831
0.0205851
0.0205877
0.020591
0.020595
0.0205997
0.0206052
0.0206114
0.0206185
0.0206264
0.0206352
0.0206449
0.0206557
0.020668
0.020681
0.0206933
0.0207069
0.0207221
0.0207387
0.0207564
0.020775
0.0207933
0.0208113
0.0208296
0.0208484
0.0208674
0.0208863
0.0209049
0.0209229
0.0209402
0.0209568
0.0209726
0.0209875
0.0210014
0.0210144
0.0210265
0.0210378
0.0210484
0.0210583
0.0210678
0.0210768
0.0210857
0.0210943
0.021103
0.0211117
0.0211206
0.0211296
0.021139
0.0211486
0.0211586
0.0211689
0.0211796
0.0211906
0.0212019
0.0212136
0.0212256
0.021238
0.0212506
0.0212635
0.0212767
0.0212902
0.0213041
0.0213183
0.0213327
0.0213476
0.0213627
0.0213782
0.021394
0.0214102
0.0214267
0.0214435
0.0214605
0.0214779
0.0214956
0.0215134
0.0215315
0.0215499
0.0215684
0.0215871
0.0216059
0.021625
0.0216441
0.0216635
0.021683
0.0217027
0.0217226
0.0217426
0.0217629
0.0217834
0.0218042
0.0218252
0.0218464
0.0218679
0.0218897
0.0219117
0.0210587
0.0210378
0.0210162
0.020996
0.0209765
0.020957
0.0209383
0.0209208
0.0209042
0.0208883
0.0208733
0.0208591
0.0208459
0.0208334
0.0208217
0.0208109
0.0208008
0.0207916
0.0207832
0.0207757
0.0207691
0.0207634
0.0207584
0.0207544
0.0207511
0.0207487
0.020747
0.0207459
0.0207457
0.020746
0.020747
0.0207486
0.020751
0.0207542
0.0207582
0.0207632
0.0207692
0.0207762
0.0207843
0.0207937
0.0208043
0.0208167
0.0208301
0.0208432
0.020858
0.0208747
0.0208932
0.0209131
0.020934
0.0209547
0.0209757
0.0209974
0.0210197
0.0210425
0.0210652
0.0210877
0.0211098
0.0211312
0.0211518
0.0211716
0.0211904
0.0212081
0.0212249
0.0212407
0.0212555
0.0212695
0.0212828
0.0212956
0.021308
0.02132
0.0213319
0.0213438
0.0213557
0.0213677
0.02138
0.0213925
0.0214054
0.0214186
0.0214321
0.0214461
0.0214604
0.021475
0.02149
0.0215053
0.0215209
0.0215369
0.0215532
0.0215698
0.0215867
0.0216039
0.0216215
0.0216395
0.0216578
0.0216764
0.0216954
0.0217148
0.0217345
0.0217546
0.021775
0.0217958
0.0218168
0.0218382
0.0218598
0.0218816
0.0219037
0.021926
0.0219485
0.0219712
0.021994
0.022017
0.0220402
0.0220636
0.0220871
0.0221108
0.0221348
0.0221589
0.0221833
0.0222079
0.0222327
0.0222578
0.0222832
0.0223087
0.0223346
0.0223607
0.022387
0.0212397
0.0212211
0.021202
0.0211841
0.0211666
0.0211491
0.0211324
0.0211168
0.0211019
0.0210876
0.0210739
0.021061
0.0210488
0.0210372
0.0210262
0.0210158
0.021006
0.0209969
0.0209884
0.0209806
0.0209735
0.0209671
0.0209614
0.0209564
0.020952
0.0209484
0.0209454
0.0209432
0.0209416
0.0209406
0.0209406
0.020941
0.0209422
0.0209443
0.0209474
0.0209516
0.0209569
0.0209635
0.0209716
0.020981
0.0209921
0.0210052
0.0210192
0.0210337
0.0210503
0.0210692
0.0210901
0.0211127
0.0211361
0.0211598
0.0211842
0.0212097
0.021236
0.0212627
0.0212896
0.0213162
0.0213425
0.0213681
0.0213928
0.0214167
0.0214394
0.0214611
0.0214817
0.0215011
0.0215196
0.0215371
0.0215539
0.0215701
0.0215859
0.0216013
0.0216165
0.0216317
0.0216469
0.0216623
0.0216779
0.0216938
0.02171
0.0217265
0.0217434
0.0217607
0.0217783
0.0217963
0.0218146
0.0218333
0.0218522
0.0218715
0.0218911
0.0219111
0.0219313
0.0219519
0.0219729
0.0219942
0.0220159
0.0220379
0.0220603
0.0220831
0.0221062
0.0221297
0.0221535
0.0221777
0.0222022
0.022227
0.022252
0.0222773
0.0223028
0.0223285
0.0223544
0.0223805
0.0224067
0.0224331
0.0224596
0.0224863
0.0225131
0.0225401
0.0225673
0.0225947
0.0226222
0.02265
0.0226779
0.0227061
0.0227345
0.022763
0.0227918
0.0228208
0.02285
0.0214485
0.0214325
0.0214161
0.0214007
0.0213856
0.0213704
0.0213558
0.0213423
0.0213293
0.0213167
0.0213045
0.021293
0.021282
0.0212715
0.0212614
0.0212517
0.0212424
0.0212336
0.0212252
0.0212174
0.0212101
0.0212033
0.0211971
0.0211915
0.0211864
0.021182
0.0211782
0.021175
0.0211725
0.0211708
0.0211698
0.0211697
0.0211703
0.0211717
0.0211744
0.0211783
0.0211836
0.0211904
0.0211988
0.021209
0.021221
0.0212354
0.0212505
0.021267
0.0212861
0.0213077
0.0213316
0.0213572
0.0213835
0.0214106
0.0214388
0.0214683
0.0214987
0.0215295
0.0215605
0.0215913
0.0216216
0.0216512
0.02168
0.0217076
0.0217342
0.0217595
0.0217836
0.0218065
0.0218284
0.0218493
0.0218694
0.0218889
0.0219079
0.0219265
0.0219449
0.0219633
0.0219817
0.0220003
0.0220191
0.0220382
0.0220575
0.0220772
0.0220973
0.0221177
0.0221384
0.0221595
0.0221809
0.0222026
0.0222246
0.0222469
0.0222695
0.0222925
0.0223157
0.0223393
0.0223632
0.0223874
0.022412
0.022437
0.0224623
0.022488
0.022514
0.0225404
0.0225671
0.0225941
0.0226214
0.022649
0.0226768
0.0227048
0.022733
0.0227614
0.0227899
0.0228186
0.0228473
0.0228762
0.0229051
0.0229342
0.0229634
0.0229927
0.0230221
0.0230516
0.0230813
0.0231111
0.023141
0.0231711
0.0232013
0.0232316
0.0232621
0.0232927
0.0233234
0.0216978
0.0216851
0.0216718
0.0216582
0.0216456
0.0216331
0.0216204
0.021608
0.0215968
0.0215858
0.0215749
0.0215644
0.0215544
0.0215449
0.0215356
0.0215266
0.0215177
0.0215091
0.0215009
0.0214929
0.0214853
0.0214781
0.0214713
0.0214649
0.021459
0.0214536
0.0214488
0.0214445
0.0214409
0.0214379
0.0214357
0.0214344
0.0214341
0.0214345
0.0214359
0.0214387
0.0214429
0.0214487
0.0214563
0.0214658
0.0214771
0.0214907
0.0215069
0.0215237
0.0215429
0.0215651
0.0215898
0.0216169
0.0216456
0.0216751
0.0217059
0.0217381
0.0217716
0.0218059
0.0218406
0.0218754
0.02191
0.021944
0.0219772
0.0220094
0.0220405
0.0220702
0.0220987
0.0221258
0.0221517
0.0221765
0.0222003
0.0222232
0.0222455
0.0222673
0.0222887
0.02231
0.0223311
0.0223524
0.0223737
0.0223952
0.022417
0.0224391
0.0224615
0.0224842
0.0225072
0.0225305
0.0225542
0.022578
0.0226022
0.0226266
0.0226513
0.0226763
0.0227015
0.0227271
0.0227529
0.022779
0.0228055
0.0228323
0.0228594
0.0228868
0.0229146
0.0229427
0.0229711
0.0229998
0.0230287
0.0230579
0.0230873
0.0231169
0.0231467
0.0231765
0.0232065
0.0232365
0.0232666
0.0232968
0.023327
0.0233572
0.0233874
0.0234176
0.0234479
0.0234783
0.0235087
0.0235391
0.0235695
0.0236001
0.0236306
0.0236612
0.0236918
0.0237225
0.0237532
0.0237839
0.0219577
0.0219479
0.0219374
0.0219269
0.0219171
0.0219074
0.0218972
0.0218869
0.0218781
0.0218691
0.02186
0.0218513
0.0218431
0.0218352
0.0218272
0.0218193
0.0218115
0.0218037
0.0217962
0.0217888
0.0217816
0.0217747
0.0217682
0.0217619
0.0217561
0.0217507
0.0217458
0.0217414
0.0217377
0.0217347
0.0217325
0.0217313
0.0217312
0.0217319
0.0217338
0.0217373
0.0217424
0.0217493
0.0217582
0.0217692
0.0217824
0.0217982
0.0218162
0.0218357
0.0218582
0.0218836
0.0219116
0.0219421
0.0219738
0.0220067
0.0220412
0.0220771
0.0221143
0.0221521
0.0221902
0.0222283
0.022266
0.022303
0.022339
0.0223738
0.0224074
0.0224395
0.0224703
0.0224997
0.0225278
0.0225547
0.0225806
0.0226057
0.0226301
0.0226541
0.0226776
0.022701
0.0227243
0.0227476
0.022771
0.0227946
0.0228185
0.0228425
0.0228668
0.0228914
0.0229162
0.0229413
0.0229666
0.0229921
0.0230179
0.0230439
0.0230701
0.0230965
0.0231231
0.02315
0.0231772
0.0232046
0.0232323
0.0232603
0.0232885
0.0233171
0.0233459
0.023375
0.0234043
0.0234338
0.0234636
0.0234935
0.0235236
0.0235538
0.023584
0.0236143
0.0236446
0.0236748
0.0237051
0.0237353
0.0237654
0.0237954
0.0238254
0.0238554
0.0238852
0.0239151
0.0239448
0.0239745
0.0240041
0.0240337
0.0240632
0.0240927
0.0241221
0.0241513
0.0241805
0.0242096
0.0242386
0.0242675
0.0222411
0.022234
0.0222264
0.0222189
0.022212
0.0222049
0.0221971
0.0221891
0.0221826
0.0221756
0.0221681
0.0221612
0.0221549
0.0221486
0.0221421
0.0221353
0.0221284
0.0221217
0.0221149
0.0221082
0.0221017
0.0220953
0.0220891
0.0220832
0.0220777
0.0220725
0.0220679
0.0220638
0.0220603
0.0220577
0.0220559
0.0220553
0.0220557
0.0220572
0.0220601
0.0220647
0.0220713
0.0220798
0.0220906
0.0221036
0.022119
0.0221375
0.0221576
0.0221804
0.0222063
0.022235
0.0222664
0.0222999
0.0223346
0.0223707
0.0224085
0.0224477
0.0224878
0.0225284
0.0225692
0.0226096
0.0226494
0.0226884
0.0227262
0.0227626
0.0227977
0.0228312
0.0228633
0.0228939
0.0229232
0.0229514
0.0229786
0.0230049
0.0230305
0.0230557
0.0230805
0.0231051
0.0231297
0.0231542
0.0231788
0.0232035
0.0232284
0.0232535
0.0232788
0.0233042
0.0233299
0.0233557
0.0233817
0.0234079
0.0234342
0.0234606
0.0234873
0.0235141
0.0235411
0.0235682
0.0235956
0.0236232
0.023651
0.023679
0.0237073
0.0237358
0.0237645
0.0237934
0.0238225
0.0238517
0.023881
0.0239104
0.0239398
0.0239693
0.0239987
0.0240281
0.0240573
0.0240865
0.0241155
0.0241443
0.024173
0.0242015
0.0242298
0.024258
0.024286
0.0243139
0.0243416
0.0243691
0.0243964
0.0244236
0.0244506
0.0244775
0.0245041
0.0245306
0.0245568
0.0245828
0.0246087
0.0246342
0.0225437
0.0225392
0.0225344
0.0225298
0.0225255
0.0225207
0.0225154
0.0225096
0.0225049
0.0224999
0.022494
0.0224885
0.0224842
0.0224797
0.0224743
0.0224685
0.0224626
0.0224567
0.0224508
0.0224448
0.0224389
0.0224331
0.0224275
0.0224221
0.022417
0.0224123
0.0224081
0.0224046
0.0224017
0.0223997
0.0223988
0.022399
0.0224003
0.0224031
0.0224075
0.0224138
0.0224221
0.0224327
0.0224457
0.0224611
0.0224793
0.0225004
0.0225233
0.0225494
0.0225784
0.0226102
0.0226447
0.0226808
0.0227181
0.022757
0.0227974
0.022839
0.0228812
0.0229236
0.0229658
0.0230075
0.0230483
0.0230881
0.0231264
0.0231634
0.0231987
0.0232325
0.0232648
0.0232956
0.0233251
0.0233534