/*--------------------------------*- C++ -*----------------------------------*\
| =========                 |                                                 |
| \\      /  F ield         | OpenFOAM: The Open Source CFD Toolbox           |
|  \\    /   O peration     | Version:  v1706                                 |
|   \\  /    A nd           | Web:      www.OpenFOAM.com                      |
|    \\/     M anipulation  |                                                 |
\*---------------------------------------------------------------------------*/
FoamFile
{
    version     2.0;
    format      ascii;
    class       volScalarField;
    location    "1.2e-05";
    object      Mach;
}
// * * * * * * * * * * * * * * * * * * * * * * * * * * * * * * * * * * * * * //

dimensions      [0 0 0 0 0 0 0];


internalField   nonuniform List<scalar> 
29871
(
3.99313
3.99319
3.99326
3.99332
3.99339
3.99345
3.99351
3.99357
3.99363
3.99368
3.99373
3.99378
3.99383
3.99387
3.99391
3.99395
3.99398
3.99402
3.99405
3.99407
3.99409
3.99411
3.99413
3.99415
3.99416
3.99417
3.99418
3.99418
3.99419
3.99419
3.99419
3.99419
3.99418
3.99418
3.99418
3.99417
3.99416
3.99416
3.99415
3.99414
3.99413
3.99412
3.99412
3.99411
3.9941
3.99409
3.99408
3.99407
3.99406
3.99404
3.99403
3.99402
3.99401
3.994
3.99399
3.99398
3.99397
3.99395
3.99394
3.99393
3.99392
3.99391
3.99389
3.99388
3.99387
3.99386
3.99385
3.99383
3.99382
3.99381
3.9938
3.99379
3.99377
3.99376
3.99375
3.99374
3.99373
3.99372
3.99371
3.9937
3.99369
3.99368
3.99367
3.99366
3.99365
3.99364
3.99363
3.99362
3.99361
3.9936
3.99359
3.99358
3.99356
3.99355
3.99354
3.99353
3.99352
3.99351
3.9935
3.99349
3.99348
3.99346
3.99345
3.99344
3.99343
3.98439
3.98477
3.98514
3.98551
3.98588
3.98623
3.98657
3.9869
3.98722
3.98752
3.98781
3.98809
3.98835
3.98859
3.98882
3.98903
3.98922
3.9894
3.98955
3.9897
3.98983
3.98994
3.99003
3.99011
3.99018
3.99023
3.99027
3.9903
3.99031
3.99032
3.99031
3.9903
3.99029
3.99026
3.99023
3.99019
3.99015
3.9901
3.99005
3.99
3.98994
3.98988
3.98982
3.98976
3.9897
3.98963
3.98957
3.9895
3.98943
3.98936
3.9893
3.98923
3.98915
3.98908
3.98901
3.98893
3.98886
3.98878
3.9887
3.98862
3.98854
3.98846
3.98838
3.98829
3.98821
3.98813
3.98804
3.98796
3.98787
3.98779
3.98771
3.98762
3.98754
3.98746
3.98738
3.9873
3.98722
3.98714
3.98706
3.98698
3.9869
3.98682
3.98674
3.98667
3.98659
3.98651
3.98644
3.98636
3.98628
3.9862
3.98612
3.98604
3.98596
3.98588
3.9858
3.98572
3.98564
3.98555
3.98547
3.98538
3.9853
3.98521
3.98512
3.98504
3.98495
3.96239
3.96348
3.96457
3.96565
3.96672
3.96776
3.96878
3.96977
3.97073
3.97166
3.97254
3.97339
3.97419
3.97495
3.97567
3.97633
3.97694
3.97751
3.97802
3.97848
3.97889
3.97926
3.97957
3.97984
3.98006
3.98023
3.98037
3.98047
3.98053
3.98055
3.98053
3.9805
3.98046
3.98038
3.98028
3.98016
3.98002
3.97987
3.9797
3.97953
3.97934
3.97915
3.97895
3.97874
3.97853
3.97831
3.97809
3.97787
3.97764
3.97741
3.97718
3.97694
3.9767
3.97645
3.9762
3.97594
3.97569
3.97542
3.97516
3.97488
3.97461
3.97433
3.97405
3.97376
3.97347
3.97318
3.97289
3.97259
3.9723
3.972
3.97171
3.97141
3.97112
3.97082
3.97053
3.97024
3.96995
3.96967
3.96938
3.9691
3.96881
3.96853
3.96825
3.96797
3.96769
3.96741
3.96713
3.96684
3.96656
3.96627
3.96598
3.96569
3.96539
3.96509
3.96479
3.96449
3.96418
3.96387
3.96355
3.96323
3.9629
3.96258
3.96224
3.9619
3.96156
3.96121
3.91436
3.91699
3.9196
3.92219
3.92475
3.92725
3.92969
3.93206
3.93435
3.93656
3.93867
3.94069
3.9426
3.94439
3.94608
3.94765
3.94909
3.95042
3.95162
3.9527
3.95366
3.9545
3.95521
3.95581
3.95629
3.95667
3.95694
3.95711
3.95718
3.95716
3.95706
3.95694
3.95675
3.95647
3.95614
3.95577
3.95535
3.95489
3.95441
3.95389
3.95336
3.9528
3.95223
3.95164
3.95104
3.95042
3.9498
3.94917
3.94852
3.94787
3.94721
3.94653
3.94585
3.94515
3.94444
3.94372
3.94299
3.94224
3.94148
3.9407
3.93992
3.93912
3.9383
3.93748
3.93664
3.9358
3.93494
3.93408
3.93321
3.93234
3.93146
3.93058
3.92969
3.92881
3.92792
3.92704
3.92615
3.92527
3.92438
3.9235
3.92262
3.92174
3.92085
3.91997
3.91908
3.91819
3.91729
3.91639
3.91548
3.91457
3.91364
3.91271
3.91177
3.91082
3.90986
3.90889
3.90792
3.90692
3.90592
3.90491
3.90389
3.90286
3.90181
3.90075
3.89968
3.8986
3.81169
3.81708
3.82247
3.82785
3.83319
3.83846
3.84365
3.84873
3.85368
3.85848
3.86311
3.86755
3.87179
3.87581
3.87959
3.88312
3.88639
3.8894
3.89214
3.89461
3.89679
3.89871
3.90035
3.90172
3.90283
3.90369
3.9043
3.90468
3.90484
3.90478
3.9045
3.90417
3.9037
3.90302
3.9022
3.90126
3.90022
3.89909
3.89789
3.89661
3.89528
3.8939
3.89248
3.89102
3.88953
3.88802
3.88647
3.8849
3.8833
3.88168
3.88004
3.87836
3.87666
3.87493
3.87317
3.87138
3.86955
3.86769
3.8658
3.86387
3.86191
3.85992
3.85789
3.85583
3.85374
3.85162
3.84948
3.84731
3.84512
3.84291
3.84069
3.83845
3.83621
3.83395
3.83169
3.82943
3.82717
3.8249
3.82264
3.82037
3.81811
3.81585
3.81358
3.81131
3.80904
3.80676
3.80446
3.80216
3.79984
3.79751
3.79516
3.79278
3.79039
3.78797
3.78552
3.78305
3.78055
3.77803
3.77548
3.77289
3.77028
3.76764
3.76498
3.76228
3.75955
3.75679
3.75401
3.63826
3.64752
3.65682
3.66612
3.67536
3.68451
3.69353
3.70238
3.71101
3.7194
3.7275
3.73528
3.74271
3.74975
3.75638
3.76258
3.76832
3.77357
3.77833
3.78258
3.78631
3.78951
3.79219
3.79434
3.796
3.79715
3.79781
3.79801
3.79774
3.79706
3.7962
3.79511
3.79357
3.79172
3.78964
3.78734
3.78486
3.78222
3.77944
3.77655
3.77356
3.77049
3.76734
3.76414
3.76088
3.75758
3.75423
3.75084
3.7474
3.74392
3.74039
3.73682
3.73319
3.72951
3.72577
3.72196
3.7181
3.71416
3.71016
3.70609
3.70196
3.69776
3.69349
3.68917
3.68478
3.68035
3.67586
3.67133
3.66676
3.66215
3.65751
3.65285
3.64816
3.64346
3.63875
3.63403
3.62931
3.62458
3.61986
3.61513
3.61041
3.60569
3.60096
3.59623
3.5915
3.58675
3.58198
3.5772
3.5724
3.56757
3.56271
3.55781
3.55288
3.54791
3.54291
3.53786
3.53277
3.52764
3.52247
3.51726
3.51202
3.50673
3.50142
3.49607
3.4907
3.4853
3.47987
3.36069
3.37245
3.38444
3.39661
3.40892
3.42132
3.43378
3.44625
3.45866
3.47098
3.48314
3.49508
3.50673
3.51804
3.52893
3.53934
3.54922
3.55849
3.56711
3.57503
3.58222
3.58863
3.59424
3.59901
3.60294
3.60603
3.6083
3.60973
3.61038
3.61023
3.60929
3.60762
3.60581
3.60345
3.60036
3.59678
3.5928
3.58849
3.58388
3.57902
3.57397
3.56875
3.5634
3.55796
3.55243
3.54684
3.54121
3.53553
3.52982
3.52407
3.51828
3.51244
3.50656
3.50062
3.49462
3.48854
3.4824
3.47617
3.46986
3.46346
3.45697
3.45039
3.44373
3.43698
3.43016
3.42327
3.41633
3.40933
3.40229
3.39521
3.3881
3.38098
3.37384
3.3667
3.35957
3.35246
3.34536
3.3383
3.33126
3.32426
3.31731
3.31039
3.30352
3.29668
3.28989
3.28313
3.2764
3.2697
3.26301
3.25635
3.24968
3.24302
3.23636
3.22969
3.223
3.21629
3.20957
3.20281
3.19604
3.18924
3.18242
3.17557
3.16871
3.16183
3.15493
3.14803
3.14112
3.1342
3.1273
3.12045
3.11864
3.13011
3.14179
3.15363
3.16561
3.1777
3.18987
3.20207
3.21425
3.22633
3.23826
3.24996
3.26135
3.27236
3.28293
3.29298
3.30245
3.31126
3.31935
3.32667
3.33314
3.33871
3.3433
3.34689
3.34943
3.35092
3.35137
3.35081
3.34932
3.34701
3.34324
3.33992
3.3357
3.33054
3.32482
3.31867
3.31219
3.30543
3.29847
3.29136
3.28416
3.27691
3.26965
3.2624
3.2552
3.24805
3.24096
3.23392
3.22694
3.22
3.2131
3.20622
3.19934
3.19245
3.18555
3.17861
3.17163
3.16461
3.15753
3.1504
3.14322
3.13597
3.12868
3.12133
3.11395
3.10652
3.0991
3.09172
3.08438
3.07711
3.0699
3.06279
3.05577
3.04887
3.04209
3.03545
3.02895
3.0226
3.0164
3.01037
3.0045
2.9988
2.99326
2.98789
2.98267
2.9776
2.97269
2.96792
2.96329
2.95879
2.95442
2.95016
2.94603
2.942
2.93808
2.93426
2.93054
2.92692
2.92339
2.91995
2.9166
2.91334
2.91016
2.90707
2.90406
2.90113
2.89829
2.89553
2.89285
2.89023
2.98314
2.99089
2.99858
3.00623
3.01386
3.02145
3.02896
3.03636
3.04363
3.05074
3.05767
3.06439
3.07085
3.07699
3.08272
3.088
3.09277
3.09694
3.10041
3.1031
3.10496
3.106
3.10615
3.10535
3.10354
3.10086
3.09735
3.09277
3.08735
3.08298
3.07679
3.07019
3.06329
3.05609
3.04873
3.04133
3.03396
3.02669
3.01957
3.01264
3.00594
2.99949
2.99329
2.98735
2.98167
2.97624
2.97104
2.96608
2.96132
2.95676
2.95237
2.94815
2.94408
2.94013
2.9363
2.93257
2.92893
2.92537
2.92188
2.91845
2.9151
2.9118
2.90858
2.90542
2.90233
2.89931
2.89636
2.89347
2.89064
2.88788
2.88519
2.88257
2.88003
2.87756
2.87517
2.87285
2.87061
2.86844
2.86635
2.86434
2.8624
2.86053
2.85872
2.85699
2.85531
2.8537
2.85215
2.85065
2.84921
2.84781
2.84647
2.84517
2.84391
2.8427
2.84152
2.84038
2.83927
2.8382
2.83716
2.83615
2.83517
2.83422
2.8333
2.8324
2.83154
2.8307
2.82989
2.82912
2.82837
2.82764
2.93697
2.943
2.94872
2.95412
2.95923
2.96416
2.96884
2.9731
2.97689
2.98021
2.98305
2.98537
2.98716
2.98843
2.98913
2.9892
2.98868
2.98757
2.98587
2.98353
2.98051
2.97682
2.97241
2.96719
2.96129
2.9546
2.94931
2.94202
2.93483
2.92839
2.92145
2.91436
2.90751
2.90098
2.89479
2.88898
2.88357
2.87859
2.87406
2.86995
2.86622
2.86288
2.85992
2.85733
2.85506
2.85308
2.85133
2.84978
2.8484
2.84715
2.84601
2.84495
2.84394
2.84297
2.84203
2.84111
2.8402
2.8393
2.8384
2.8375
2.8366
2.83571
2.83481
2.83393
2.83305
2.83219
2.83135
2.83052
2.82972
2.82894
2.82818
2.82745
2.82673
2.82605
2.82539
2.82477
2.82417
2.8236
2.82305
2.82253
2.82203
2.82156
2.82111
2.82068
2.82027
2.81988
2.81951
2.81915
2.8188
2.81846
2.81814
2.81782
2.81752
2.81723
2.81695
2.81668
2.81642
2.81618
2.81595
2.81573
2.81552
2.81532
2.81514
2.81496
2.81479
2.81462
2.81446
2.81431
2.81415
2.81399
2.9213
2.92707
2.93248
2.93719
2.94073
2.94456
2.94877
2.95208
2.95452
2.9565
2.95794
2.95877
2.95896
2.95843
2.95725
2.95536
2.95256
2.9489
2.94458
2.94111
2.936
2.93012
2.9239
2.91738
2.91037
2.90318
2.89608
2.88854
2.88129
2.87445
2.86765
2.86108
2.85496
2.84931
2.84415
2.83945
2.83513
2.83127
2.8279
2.82501
2.82254
2.82039
2.8186
2.81716
2.81601
2.81509
2.81437
2.81384
2.81345
2.81318
2.81301
2.81291
2.81286
2.81283
2.81284
2.81284
2.81285
2.81285
2.81283
2.8128
2.81276
2.8127
2.81262
2.81254
2.81246
2.81237
2.81228
2.81219
2.81212
2.81206
2.81199
2.81193
2.81187
2.81183
2.8118
2.81177
2.81172
2.81167
2.81162
2.81156
2.81148
2.81138
2.81127
2.81114
2.811
2.81084
2.81066
2.81046
2.81025
2.81003
2.80979
2.80954
2.80928
2.80901
2.80874
2.80845
2.80816
2.80785
2.80754
2.80723
2.80691
2.80658
2.80626
2.80592
2.80559
2.80525
2.80492
2.80458
2.80425
2.80391
2.90614
2.91078
2.91615
2.92071
2.92531
2.92845
2.93183
2.93519
2.93806
2.94068
2.94269
2.94408
2.9448
2.94489
2.94427
2.94287
2.94064
2.93769
2.93395
2.92936
2.92463
2.91939
2.91349
2.9068
2.90025
2.89342
2.88651
2.87885
2.87184
2.86513
2.85803
2.85163
2.8458
2.83989
2.83442
2.82996
2.82573
2.82158
2.81798
2.81487
2.81206
2.80964
2.80776
2.80619
2.8049
2.80392
2.80322
2.80276
2.8025
2.80243
2.80249
2.80265
2.80288
2.80316
2.80346
2.80377
2.80408
2.80437
2.80462
2.80484
2.80502
2.80516
2.80525
2.80531
2.80532
2.8053
2.80525
2.80516
2.80505
2.80492
2.80477
2.80459
2.80441
2.80422
2.804
2.80376
2.80356
2.8034
2.80315
2.80291
2.8027
2.80249
2.80226
2.80205
2.80184
2.80163
2.80143
2.80123
2.80102
2.80081
2.80059
2.80036
2.80012
2.79988
2.79963
2.79937
2.7991
2.79883
2.79855
2.79825
2.79796
2.79765
2.79734
2.79702
2.7967
2.79637
2.79603
2.7957
2.79534
2.79499
2.79463
2.89642
2.90111
2.90631
2.9106
2.91488
2.91864
2.92191
2.92476
2.92698
2.92861
2.92969
2.93034
2.93045
2.93011
2.92925
2.92785
2.92586
2.92332
2.92025
2.91666
2.91255
2.90796
2.90289
2.89733
2.89141
2.8853
2.87903
2.87243
2.86617
2.85968
2.85281
2.84713
2.8416
2.83594
2.831
2.82652
2.8223
2.81836
2.81479
2.81158
2.80877
2.80625
2.80409
2.80236
2.8009
2.79968
2.7987
2.79793
2.79735
2.79693
2.79665
2.79649
2.79641
2.79641
2.79645
2.79654
2.79663
2.79673
2.79683
2.79691
2.79697
2.79701
2.79703
2.79703
2.797
2.79695
2.79688
2.79679
2.79667
2.79654
2.7964
2.79624
2.79607
2.7959
2.7957
2.79548
2.7953
2.7951
2.79486
2.79462
2.7944
2.79419
2.79392
2.79364
2.79337
2.79308
2.79277
2.79244
2.7921
2.79176
2.79142
2.79107
2.79071
2.79035
2.78997
2.78958
2.78918
2.78877
2.78833
2.78789
2.78744
2.78697
2.78649
2.78601
2.78551
2.785
2.78447
2.78394
2.78339
2.78284
2.78227
2.78169
2.7811
2.88609
2.89103
2.89558
2.89961
2.90359
2.90712
2.91017
2.91285
2.91501
2.91662
2.91767
2.91801
2.91768
2.91687
2.91561
2.91393
2.9118
2.90921
2.90615
2.90264
2.89872
2.89445
2.88987
2.88496
2.87979
2.87447
2.86901
2.86355
2.85823
2.85233
2.84651
2.8415
2.83642
2.83125
2.82674
2.82251
2.81844
2.81457
2.81095
2.80763
2.80465
2.80185
2.7994
2.79731
2.7955
2.79393
2.79262
2.79156
2.79073
2.7901
2.78966
2.78935
2.78915
2.78904
2.789
2.78899
2.78901
2.78903
2.78905
2.78905
2.78902
2.78897
2.78888
2.78875
2.78859
2.78838
2.78814
2.78788
2.7876
2.78731
2.787
2.78667
2.78633
2.78597
2.7856
2.78522
2.78484
2.78444
2.78403
2.78362
2.7832
2.78279
2.78235
2.78189
2.78144
2.78101
2.78055
2.78008
2.77961
2.77913
2.77863
2.77812
2.77759
2.77705
2.77648
2.77589
2.77529
2.77467
2.77402
2.77335
2.77267
2.77197
2.77124
2.7705
2.76974
2.76896
2.76817
2.76736
2.76653
2.76568
2.76482
2.76395
2.76306
2.86444
2.8696
2.87445
2.879
2.88326
2.88717
2.89074
2.8939
2.89665
2.899
2.90089
2.90226
2.9031
2.90347
2.90331
2.90271
2.90166
2.90001
2.89782
2.8952
2.89219
2.88884
2.8852
2.88132
2.87719
2.87282
2.86825
2.86359
2.85885
2.85404
2.84932
2.84408
2.83893
2.83431
2.82958
2.82473
2.8205
2.8165
2.81261
2.80886
2.80527
2.80191
2.7988
2.79584
2.79328
2.79105
2.78904
2.78725
2.78569
2.78436
2.78322
2.78225
2.78143
2.78076
2.78022
2.77978
2.77942
2.77912
2.77886
2.77862
2.77838
2.77814
2.77788
2.77761
2.7773
2.77698
2.77662
2.77624
2.77584
2.77541
2.77496
2.77448
2.77397
2.77345
2.7729
2.77233
2.77175
2.77115
2.77054
2.76992
2.76928
2.76864
2.76799
2.76732
2.76665
2.76597
2.76528
2.76459
2.76388
2.76316
2.76241
2.76165
2.76087
2.76007
2.75924
2.75838
2.7575
2.75659
2.75566
2.75469
2.7537
2.75268
2.75163
2.75056
2.74946
2.74833
2.74718
2.746
2.7448
2.74357
2.74232
2.74104
2.73974
2.73842
2.73707
2.8501
2.85491
2.85959
2.864
2.868
2.87164
2.8749
2.87776
2.88025
2.88236
2.88404
2.88525
2.88597
2.88625
2.88607
2.88546
2.88447
2.88309
2.8813
2.87912
2.87658
2.87373
2.87061
2.86725
2.86368
2.85991
2.85597
2.8519
2.84775
2.84357
2.8394
2.83484
2.83033
2.82609
2.82173
2.81708
2.81299
2.8091
2.80525
2.80146
2.79777
2.79426
2.79092
2.78769
2.78483
2.78225
2.77985
2.77765
2.77565
2.77387
2.7723
2.77093
2.76975
2.76871
2.76782
2.76703
2.76633
2.7657
2.76511
2.76456
2.76402
2.76349
2.76295
2.76239
2.76182
2.76122
2.76059
2.75993
2.75925
2.75853
2.75777
2.75699
2.75618
2.75534
2.75447
2.75358
2.75267
2.75174
2.75079
2.74982
2.74884
2.74785
2.74684
2.74581
2.74477
2.74372
2.74265
2.74156
2.74045
2.73932
2.73817
2.73699
2.73578
2.73454
2.73327
2.73196
2.73063
2.72925
2.72785
2.7264
2.72492
2.7234
2.72184
2.72025
2.71862
2.71695
2.71525
2.71351
2.71174
2.70993
2.70809
2.70621
2.70429
2.70234
2.70036
2.69833
2.79269
2.79886
2.80463
2.81076
2.81643
2.82179
2.82703
2.83188
2.8365
2.84094
2.84504
2.84877
2.85214
2.85514
2.85778
2.86006
2.86198
2.86351
2.86463
2.86531
2.86557
2.86544
2.86491
2.86401
2.8628
2.86125
2.85939
2.85722
2.85479
2.85214
2.84928
2.84624
2.84302
2.83966
2.83619
2.83261
2.82896
2.82529
2.82142
2.81745
2.81356
2.80963
2.80521
2.80124
2.7975
2.79372
2.78994
2.78618
2.78254
2.77896
2.77549
2.77236
2.76945
2.76667
2.76404
2.76161
2.75938
2.75735
2.75551
2.75385
2.75234
2.75096
2.7497
2.74853
2.74744
2.74641
2.74542
2.74445
2.7435
2.74254
2.74158
2.74059
2.73958
2.73855
2.73748
2.73637
2.73523
2.73405
2.73284
2.73159
2.73031
2.729
2.72766
2.72629
2.72489
2.72347
2.72203
2.72056
2.71907
2.71756
2.71603
2.71448
2.7129
2.71131
2.70968
2.70803
2.70635
2.70464
2.70289
2.70111
2.69929
2.69743
2.69553
2.69359
2.6916
2.68957
2.68749
2.68536
2.68318
2.68095
2.67868
2.67635
2.67398
2.67157
2.6691
2.66659
2.66403
2.66143
2.65877
2.65607
2.65333
2.65053
2.64769
2.77293
2.77856
2.7839
2.78959
2.79485
2.79982
2.8046
2.80926
2.81361
2.81766
2.82141
2.82484
2.82794
2.83071
2.83315
2.83524
2.83701
2.83843
2.83949
2.84017
2.84048
2.84043
2.84003
2.83931
2.83827
2.83697
2.8354
2.83358
2.83154
2.8293
2.82689
2.82431
2.82158
2.81872
2.81573
2.81262
2.80942
2.80618
2.8028
2.79925
2.79567
2.7921
2.788
2.78412
2.78049
2.77677
2.77297
2.76915
2.76539
2.76157
2.75788
2.75446
2.75117
2.74797
2.74488
2.74196
2.7392
2.73662
2.7342
2.73194
2.72982
2.72784
2.72597
2.72421
2.72252
2.7209
2.71933
2.71779
2.71628
2.71476
2.71325
2.71171
2.71016
2.70857
2.70695
2.7053
2.7036
2.70187
2.70009
2.69828
2.69642
2.69453
2.6926
2.69063
2.68863
2.6866
2.68454
2.68245
2.68033
2.67818
2.676
2.67379
2.67156
2.66929
2.66699
2.66465
2.66228
2.65987
2.65742
2.65493
2.65238
2.64979
2.64715
2.64445
2.6417
2.63889
2.63603
2.6331
2.63012
2.62707
2.62396
2.6208
2.61757
2.61429
2.61095
2.60755
2.6041
2.60059
2.59702
2.59339
2.5897
2.58596
2.58215
2.74842
2.75344
2.75834
2.76352
2.76825
2.7727
2.77715
2.78143
2.78539
2.78906
2.79244
2.79554
2.79834
2.80085
2.80307
2.80499
2.80661
2.80793
2.80893
2.80961
2.80996
2.81
2.80974
2.80919
2.80836
2.80729
2.80596
2.80444
2.80272
2.80083
2.79877
2.79657
2.79422
2.79175
2.78914
2.78639
2.78354
2.78063
2.77759
2.77435
2.77101
2.7677
2.7639
2.76009
2.75652
2.7528
2.74895
2.74504
2.7411
2.73702
2.7331
2.72936
2.72565
2.72198
2.71837
2.71488
2.71151
2.70828
2.70519
2.70223
2.69941
2.6967
2.6941
2.69161
2.6892
2.68686
2.68457
2.68233
2.68012
2.67791
2.67571
2.67349
2.67126
2.66899
2.66669
2.66436
2.66198
2.65956
2.65709
2.65457
2.65201
2.64941
2.64676
2.64407
2.64134
2.63857
2.63576
2.63292
2.63004
2.62713
2.62418
2.62119
2.61817
2.61511
2.61201
2.60887
2.60569
2.60246
2.59918
2.59585
2.59246
2.58901
2.58551
2.58194
2.5783
2.5746
2.57083
2.56699
2.56309
2.55911
2.55506
2.55095
2.54676
2.54251
2.53819
2.53381
2.52936
2.52484
2.52026
2.51561
2.5109
2.50612
2.50127
2.71848
2.7228
2.72725
2.73182
2.73596
2.73991
2.74389
2.74769
2.75119
2.75443
2.75741
2.76014
2.76261
2.76482
2.76678
2.76849
2.76994
2.77112
2.77204
2.77267
2.77304
2.77313
2.77296
2.77253
2.77187
2.77097
2.76987
2.76857
2.76708
2.76545
2.76366
2.76173
2.75966
2.75746
2.75512
2.75264
2.75004
2.74735
2.74452
2.74148
2.7383
2.73516
2.73153
2.72778
2.72419
2.72039
2.71642
2.71237
2.70814
2.70381
2.69961
2.69547
2.69129
2.68708
2.68289
2.67877
2.67472
2.67077
2.66692
2.66318
2.65955
2.65602
2.65259
2.64926
2.64602
2.64285
2.63975
2.63669
2.63366
2.63065
2.62764
2.62463
2.6216
2.61854
2.61545
2.61231
2.60914
2.60592
2.60264
2.59932
2.59595
2.59253
2.58906
2.58554
2.58198
2.57837
2.57472
2.57103
2.5673
2.56353
2.55972
2.55587
2.55197
2.54804
2.54405
2.54002
2.53594
2.53181
2.52762
2.52337
2.51906
2.51469
2.51025
2.50573
2.50115
2.49649
2.49176
2.48694
2.48206
2.47709
2.47205
2.46694
2.46175
2.45649
2.45116
2.44575
2.44028
2.43473
2.42911
2.42343
2.41767
2.41184
2.40595
2.39998
2.39394
2.68243
2.68607
2.68995
2.69385
2.69737
2.70075
2.70417
2.70742
2.71039
2.71313
2.71566
2.71798
2.72006
2.72192
2.72357
2.72501
2.72623
2.72722
2.72799
2.72853
2.72883
2.7289
2.72875
2.72838
2.7278
2.72701
2.72604
2.72488
2.72356
2.72209
2.72046
2.7187
2.71681
2.71478
2.71261
2.71029
2.70784
2.70528
2.70254
2.69958
2.69648
2.69343
2.6898
2.68607
2.68235
2.67838
2.67422
2.66992
2.66534
2.66073
2.65617
2.65155
2.64684
2.64204
2.63722
2.63241
2.62763
2.62289
2.61823
2.61364
2.60914
2.60473
2.60041
2.59618
2.59203
2.58796
2.58395
2.58
2.57608
2.57218
2.5683
2.5644
2.5605
2.55656
2.5526
2.54859
2.54454
2.54044
2.5363
2.5321
2.52785
2.52354
2.51919
2.51479
2.51034
2.50584
2.5013
2.49671
2.49208
2.48741
2.4827
2.47794
2.47313
2.46828
2.46339
2.45844
2.45343
2.44837
2.44326
2.43807
2.43283
2.42751
2.42212
2.41666
2.41112
2.4055
2.3998
2.39403
2.38817
2.38224
2.37622
2.37013
2.36397
2.35773
2.35141
2.34503
2.33857
2.33204
2.32544
2.31877
2.31203
2.30522
2.29834
2.29139
2.28437
2.63977
2.64271
2.64591
2.6491
2.65197
2.65467
2.65746
2.66011
2.66249
2.66468
2.6667
2.66853
2.67017
2.67162
2.67289
2.67399
2.67491
2.67565
2.67619
2.67655
2.67671
2.67667
2.67645
2.67604
2.67545
2.67468
2.67374
2.67265
2.67139
2.66999
2.66844
2.66675
2.66494
2.66299
2.66088
2.65862
2.65622
2.65368
2.65094
2.64797
2.64486
2.6418
2.638
2.63421
2.63028
2.62606
2.62163
2.61697
2.61202
2.60707
2.60206
2.59691
2.5916
2.58618
2.58068
2.57514
2.56959
2.56405
2.55855
2.55309
2.5477
2.54238
2.53715
2.532
2.52693
2.52193
2.51699
2.51211
2.50727
2.50245
2.49765
2.49285
2.48803
2.48319
2.47832
2.47341
2.46847
2.46347
2.45842
2.45333
2.44818
2.44299
2.43774
2.43245
2.42711
2.42172
2.41629
2.41082
2.4053
2.39974
2.39414
2.38849
2.3828
2.37706
2.37127
2.36544
2.35954
2.3536
2.34759
2.34151
2.33537
2.32916
2.32288
2.31652
2.31009
2.30358
2.29699
2.29032
2.28357
2.27674
2.26984
2.26286
2.25581
2.24869
2.24149
2.23423
2.2269
2.2195
2.21203
2.2045
2.1969
2.18923
2.1815
2.17371
2.16585
2.58716
2.59015
2.59235
2.59481
2.59726
2.59942
2.60138
2.60344
2.60547
2.60721
2.6088
2.61026
2.61155
2.61267
2.61364
2.61448
2.61517
2.61572
2.61612
2.61636
2.61645
2.61638
2.61615
2.61577
2.61523
2.61454
2.61369
2.6127
2.61156
2.61028
2.60886
2.60729
2.60559
2.60376
2.60179
2.59967
2.59738
2.59493
2.59232
2.58949
2.58642
2.58326
2.57998
2.57596
2.57202
2.56779
2.56326
2.55851
2.5534
2.54809
2.54272
2.53719
2.53146
2.52553
2.51946
2.51327
2.50701
2.50069
2.49436
2.48804
2.48174
2.47549
2.46929
2.46317
2.45713
2.45116
2.44525
2.43942
2.43363
2.42789
2.42218
2.41648
2.41078
2.40507
2.39935
2.3936
2.38782
2.38199
2.37613
2.37022
2.36427
2.35827
2.35222
2.34613
2.33999
2.33381
2.32759
2.32133
2.31503
2.30869
2.3023
2.29588
2.28942
2.28292
2.27637
2.26978
2.26314
2.25645
2.2497
2.24289
2.23602
2.22909
2.22209
2.21502
2.20788
2.20066
2.19337
2.186
2.17856
2.17105
2.16346
2.1558
2.14807
2.14027
2.13241
2.12448
2.11648
2.10843
2.10031
2.09214
2.0839
2.07561
2.06726
2.05886
2.05039
2.04187
2.53144
2.53344
2.53493
2.53661
2.53828
2.53964
2.54082
2.54213
2.54354
2.54457
2.54551
2.54637
2.54707
2.54762
2.54806
2.5484
2.54863
2.54874
2.54873
2.54861
2.54836
2.54799
2.54749
2.54686
2.54611
2.54523
2.54422
2.54309
2.54183
2.54043
2.53891
2.53725
2.53545
2.53354
2.53147
2.52924
2.52685
2.52427
2.52151
2.51851
2.51529
2.51203
2.50827
2.50412
2.49989
2.49532
2.49046
2.48531
2.47975
2.47406
2.46822
2.46214
2.45582
2.44928
2.44257
2.43572
2.42877
2.42174
2.41467
2.40759
2.40051
2.39347
2.38648
2.37954
2.37268
2.36588
2.35915
2.35248
2.34587
2.33929
2.33275
2.32622
2.3197
2.31317
2.30663
2.30007
2.29348
2.28687
2.28021
2.27352
2.26679
2.26002
2.25321
2.24636
2.23948
2.23256
2.2256
2.21861
2.21159
2.20453
2.19744
2.19031
2.18315
2.17595
2.16872
2.16144
2.15412
2.14675
2.13933
2.13185
2.12432
2.11673
2.10908
2.10136
2.09357
2.08572
2.0778
2.0698
2.06174
2.05362
2.04542
2.03717
2.02885
2.02047
2.01203
2.00354
1.99499
1.98639
1.97773
1.96903
1.96028
1.95147
1.94262
1.93372
1.92478
1.91579
1.90675
1.89767
2.46899
2.46995
2.47068
2.47154
2.47239
2.47291
2.47333
2.47389
2.47466
2.4749
2.47512
2.47541
2.47551
2.47544
2.4753
2.4751
2.47482
2.47446
2.474
2.47345
2.47281
2.47208
2.47125
2.47032
2.46929
2.46816
2.46693
2.46558
2.46413
2.46256
2.46087
2.45904
2.4571
2.45503
2.4528
2.45041
2.44783
2.44507
2.4421
2.43888
2.43548
2.43198
2.42769
2.42339
2.41881
2.4139
2.40869
2.40309
2.39715
2.39104
2.38471
2.3781
2.37122
2.36412
2.35682
2.34937
2.3418
2.33414
2.32642
2.31868
2.31093
2.3032
2.29552
2.28788
2.28031
2.2728
2.26535
2.25796
2.25061
2.24331
2.23604
2.22879
2.22155
2.21431
2.20707
2.19981
2.19253
2.18522
2.17789
2.17053
2.16314
2.15572
2.14828
2.1408
2.13329
2.12575
2.11819
2.1106
2.10299
2.09535
2.08768
2.07999
2.07227
2.06451
2.05673
2.04891
2.04105
2.03315
2.02521
2.01721
2.00917
2.00107
1.99292
1.98471
1.97644
1.9681
1.95971
1.95125
1.94274
1.93417
1.92554
1.91685
1.90811
1.89933
1.89049
1.88161
1.87268
1.86371
1.8547
1.84565
1.83656
1.82743
1.81826
1.80906
1.79982
1.79054
1.78123
1.77189
2.40021
2.40024
2.40016
2.40017
2.40012
2.39988
2.39957
2.39929
2.39936
2.39891
2.39831
2.39802
2.39759
2.39688
2.39612
2.39537
2.39457
2.39371
2.39277
2.39177
2.39071
2.38958
2.38839
2.38712
2.38578
2.38435
2.38285
2.38125
2.37956
2.37776
2.37585
2.37383
2.37169
2.36941
2.36698
2.36438
2.36159
2.35859
2.35536
2.35191
2.34833
2.34428
2.33978
2.33518
2.33026
2.325
2.31942
2.31339
2.3071
2.30059
2.2938
2.2867
2.27933
2.27174
2.26394
2.25598
2.2479
2.23971
2.23146
2.22318
2.21488
2.2066
2.19835
2.19015
2.182
2.1739
2.16586
2.15788
2.14994
2.14205
2.13418
2.12634
2.11851
2.11068
2.10286
2.09503
2.08719
2.07933
2.07146
2.06356
2.05565
2.04772
2.03977
2.0318
2.02381
2.0158
2.00778
1.99973
1.99167
1.9836
1.9755
1.96738
1.95925
1.95109
1.9429
1.93469
1.92645
1.91817
1.90985
1.9015
1.89309
1.88465
1.87615
1.8676
1.859
1.85035
1.84164
1.83289
1.82408
1.81522
1.80632
1.79737
1.78838
1.77935
1.77029
1.76118
1.75205
1.74288
1.73368
1.72445
1.71519
1.7059
1.69659
1.68725
1.67788
1.66848
1.65907
1.64962
2.32583
2.325
2.32412
2.32327
2.32236
2.32138
2.32036
2.31926
2.31847
2.31748
2.31615
2.31504
2.3143
2.31296
2.31154
2.31024
2.30895
2.30759
2.30618
2.30472
2.30323
2.3017
2.30013
2.29851
2.29683
2.2951
2.2933
2.29143
2.28947
2.28743
2.28528
2.28303
2.28066
2.27816
2.27549
2.27266
2.26962
2.26636
2.26288
2.25921
2.25532
2.25076
2.24613
2.24119
2.23593
2.23033
2.22439
2.21801
2.2114
2.20452
2.19733
2.18983
2.18206
2.17407
2.16588
2.15753
2.14904
2.14046
2.1318
2.12311
2.1144
2.1057
2.09703
2.08839
2.0798
2.07126
2.06278
2.05434
2.04594
2.03759
2.02926
2.02096
2.01268
2.00441
1.99615
1.98788
1.97962
1.97135
1.96308
1.95479
1.9465
1.9382
1.92989
1.92157
1.91324
1.9049
1.89655
1.8882
1.87984
1.87146
1.86308
1.85469
1.84628
1.83786
1.82942
1.82096
1.81248
1.80397
1.79543
1.78685
1.77824
1.76959
1.76089
1.75216
1.74338
1.73456
1.72569
1.71678
1.70783
1.69884
1.68982
1.68075
1.67166
1.66254
1.65338
1.6442
1.635
1.62577
1.61652
1.60726
1.59797
1.58867
1.57935
1.57002
1.56067
1.55131
1.54193
1.53255
1.52315
2.2451
2.24345
2.24179
2.24009
2.23838
2.23666
2.23486
2.2332
2.23168
2.22977
2.22774
2.22665
2.22481
2.22274
2.22093
2.21917
2.21734
2.21548
2.2136
2.2117
2.20978
2.20784
2.20588
2.20387
2.20183
2.19974
2.19759
2.19537
2.19307
2.19069
2.1882
2.18559
2.18284
2.17994
2.17686
2.17357
2.17005
2.16634
2.16248
2.15807
2.15335
2.14843
2.14318
2.13761
2.13172
2.12545
2.1188
2.11191
2.10472
2.09722
2.08941
2.08136
2.07307
2.0646
2.05597
2.0472
2.03834
2.02941
2.02044
2.01146
2.00247
1.99351
1.98457
1.97568
1.96683
1.95802
1.94926
1.94055
1.93187
1.92322
1.9146
1.906
1.89742
1.88886
1.8803
1.87175
1.86321
1.85467
1.84613
1.83759
1.82906
1.82052
1.81198
1.80345
1.79492
1.78638
1.77785
1.76932
1.76079
1.75226
1.74372
1.73518
1.72663
1.71807
1.7095
1.70091
1.6923
1.68366
1.67499
1.6663
1.65757
1.6488
1.64
1.63117
1.6223
1.6134
1.60447
1.59551
1.58652
1.5775
1.56845
1.55939
1.5503
1.5412
1.53208
1.52294
1.51378
1.50462
1.49545
1.48628
1.4771
1.46793
1.45877
1.4496
1.44045
1.43131
1.42218
1.41306
2.16155
2.15917
2.15678
2.15437
2.15198
2.1496
2.14716
2.1448
2.14266
2.1402
2.13746
2.13592
2.13358
2.13099
2.12873
2.12653
2.12427
2.122
2.11973
2.11746
2.11519
2.11291
2.11063
2.10832
2.10599
2.10363
2.10121
2.09874
2.0962
2.09358
2.09086
2.08802
2.08504
2.08191
2.07858
2.07504
2.0713
2.0674
2.06321
2.05849
2.05359
2.0484
2.04289
2.03706
2.03092
2.0244
2.01754
2.01043
2.00301
1.99528
1.98727
1.97902
1.97056
1.96191
1.95311
1.94418
1.93517
1.92608
1.91695
1.9078
1.89865
1.88952
1.88041
1.87134
1.8623
1.8533
1.84435
1.83543
1.82656
1.81771
1.8089
1.80012
1.79135
1.78261
1.77389
1.76518
1.75649
1.74781
1.73914
1.73048
1.72183
1.7132
1.70457
1.69595
1.68734
1.67874
1.67015
1.66157
1.65299
1.64442
1.63585
1.62729
1.61873
1.61016
1.60159
1.59301
1.58441
1.5758
1.56717
1.55851
1.54982
1.5411
1.53234
1.52356
1.51476
1.50593
1.49709
1.48823
1.47936
1.47048
1.46159
1.4527
1.4438
1.43491
1.42602
1.41714
1.40826
1.3994
1.39055
1.3817
1.37287
1.36406
1.35525
1.34646
1.33768
1.32892
1.32018
1.31146
2.07235
2.0693
2.06626
2.06326
2.06029
2.05728
2.05435
2.05164
2.0486
2.04539
2.04337
2.04048
2.03754
2.03487
2.03226
2.02962
2.027
2.02439
2.0218
2.01923
2.01666
2.01409
2.01152
2.00893
2.00632
2.00367
2.00097
1.99821
1.99537
1.99243
1.98938
1.98619
1.98284
1.97928
1.97552
1.97161
1.96751
1.96296
1.95811
1.953
1.94759
1.94187
1.93583
1.92951
1.92282
1.91581
1.90854
1.90097
1.89311
1.88499
1.87665
1.8681
1.85938
1.85051
1.84153
1.83245
1.82332
1.81414
1.80493
1.79573
1.78653
1.77735
1.7682
1.75909
1.75001
1.74097
1.73197
1.72301
1.71409
1.7052
1.69633
1.6875
1.6787
1.66991
1.66116
1.65242
1.6437
1.635
1.62633
1.61768
1.60904
1.60043
1.59184
1.58326
1.57471
1.56617
1.55765
1.54913
1.54062
1.53211
1.52362
1.51513
1.50666
1.49818
1.48971
1.48124
1.47276
1.46427
1.45577
1.44726
1.43874
1.4302
1.42164
1.41308
1.40451
1.39593
1.38736
1.37879
1.37023
1.36167
1.35312
1.34458
1.33606
1.32755
1.31907
1.31061
1.30216
1.29373
1.28532
1.27693
1.26856
1.26021
1.25189
1.2436
1.23533
1.2271
1.21889
1.98042
1.97683
1.9733
1.9698
1.96631
1.96292
1.95968
1.95615
1.95264
1.95001
1.94672
1.9435
1.94048
1.93752
1.93456
1.93164
1.92876
1.9259
1.92307
1.92026
1.91745
1.91466
1.91185
1.90903
1.90618
1.90329
1.90033
1.89729
1.89416
1.89092
1.88754
1.88399
1.88024
1.87632
1.87226
1.8679
1.86317
1.85818
1.85291
1.84733
1.84145
1.83527
1.82882
1.82205
1.81494
1.80758
1.79994
1.79204
1.7839
1.77554
1.76699
1.75828
1.74944
1.74049
1.73145
1.72235
1.7132
1.70403
1.69486
1.68568
1.67652
1.66739
1.65828
1.64921
1.64018
1.63118
1.62223
1.61332
1.60445
1.59561
1.58681
1.57805
1.56931
1.56061
1.55193
1.54326
1.53463
1.52602
1.51745
1.50891
1.5004
1.49192
1.48347
1.47506
1.46668
1.45833
1.45
1.4417
1.43342
1.42516
1.4169
1.40867
1.40044
1.39222
1.384
1.3758
1.3676
1.35941
1.35122
1.34304
1.33487
1.32671
1.31854
1.31037
1.30219
1.29401
1.28584
1.27768
1.26954
1.26141
1.2533
1.24522
1.23715
1.22911
1.22109
1.2131
1.20513
1.1972
1.1893
1.18144
1.17362
1.16584
1.15809
1.15039
1.14272
1.13511
1.12753
1.12001
1.89109
1.88704
1.88304
1.8791
1.87521
1.87145
1.86773
1.86382
1.86017
1.85686
1.85331
1.84987
1.84655
1.8433
1.84009
1.83694
1.83383
1.83076
1.82772
1.82471
1.82172
1.81874
1.81576
1.81277
1.80975
1.8067
1.80358
1.80038
1.79709
1.79369
1.79015
1.78643
1.78254
1.77851
1.77427
1.76972
1.76488
1.75978
1.75438
1.7487
1.74272
1.73646
1.72994
1.72315
1.71602
1.70864
1.701
1.69312
1.68502
1.67672
1.66824
1.65961