/*--------------------------------*- C++ -*----------------------------------*\
| =========                 |                                                 |
| \\      /  F ield         | OpenFOAM: The Open Source CFD Toolbox           |
|  \\    /   O peration     | Version:  v1706                                 |
|   \\  /    A nd           | Web:      www.OpenFOAM.com                      |
|    \\/     M anipulation  |                                                 |
\*---------------------------------------------------------------------------*/
FoamFile
{
    version     2.0;
    format      ascii;
    class       volScalarField;
    location    "1.2e-05";
    object      mu;
}
// * * * * * * * * * * * * * * * * * * * * * * * * * * * * * * * * * * * * * //

dimensions      [1 -1 -1 0 0 0 0];


internalField   nonuniform List<scalar> 
29871
(
1.03562e-05
1.0356e-05
1.03559e-05
1.03557e-05
1.03555e-05
1.03553e-05
1.03551e-05
1.0355e-05
1.03548e-05
1.03547e-05
1.03545e-05
1.03544e-05
1.03542e-05
1.03541e-05
1.0354e-05
1.03539e-05
1.03538e-05
1.03537e-05
1.03536e-05
1.03535e-05
1.03535e-05
1.03534e-05
1.03534e-05
1.03533e-05
1.03533e-05
1.03533e-05
1.03532e-05
1.03532e-05
1.03532e-05
1.03532e-05
1.03532e-05
1.03532e-05
1.03532e-05
1.03532e-05
1.03532e-05
1.03532e-05
1.03533e-05
1.03533e-05
1.03533e-05
1.03533e-05
1.03533e-05
1.03534e-05
1.03534e-05
1.03534e-05
1.03534e-05
1.03535e-05
1.03535e-05
1.03535e-05
1.03535e-05
1.03536e-05
1.03536e-05
1.03536e-05
1.03537e-05
1.03537e-05
1.03537e-05
1.03538e-05
1.03538e-05
1.03538e-05
1.03539e-05
1.03539e-05
1.03539e-05
1.0354e-05
1.0354e-05
1.0354e-05
1.03541e-05
1.03541e-05
1.03541e-05
1.03542e-05
1.03542e-05
1.03542e-05
1.03543e-05
1.03543e-05
1.03543e-05
1.03544e-05
1.03544e-05
1.03544e-05
1.03544e-05
1.03545e-05
1.03545e-05
1.03545e-05
1.03546e-05
1.03546e-05
1.03546e-05
1.03547e-05
1.03547e-05
1.03547e-05
1.03547e-05
1.03548e-05
1.03548e-05
1.03548e-05
1.03549e-05
1.03549e-05
1.03549e-05
1.0355e-05
1.0355e-05
1.0355e-05
1.0355e-05
1.03551e-05
1.03551e-05
1.03551e-05
1.03552e-05
1.03552e-05
1.03552e-05
1.03553e-05
1.03553e-05
1.03813e-05
1.03803e-05
1.03792e-05
1.03782e-05
1.03771e-05
1.03761e-05
1.03752e-05
1.03742e-05
1.03733e-05
1.03724e-05
1.03716e-05
1.03708e-05
1.037e-05
1.03693e-05
1.03687e-05
1.0368e-05
1.03675e-05
1.03669e-05
1.03665e-05
1.0366e-05
1.03656e-05
1.03653e-05
1.0365e-05
1.03648e-05
1.03646e-05
1.03644e-05
1.03643e-05
1.03642e-05
1.03641e-05
1.03641e-05
1.03641e-05
1.03641e-05
1.03641e-05
1.03642e-05
1.03643e-05
1.03644e-05
1.03645e-05
1.03646e-05
1.03647e-05
1.03649e-05
1.0365e-05
1.03652e-05
1.03654e-05
1.03655e-05
1.03657e-05
1.03659e-05
1.03661e-05
1.03663e-05
1.03664e-05
1.03666e-05
1.03668e-05
1.0367e-05
1.03672e-05
1.03674e-05
1.03676e-05
1.03678e-05
1.0368e-05
1.03683e-05
1.03685e-05
1.03687e-05
1.03689e-05
1.03692e-05
1.03694e-05
1.03696e-05
1.03698e-05
1.03701e-05
1.03703e-05
1.03705e-05
1.03708e-05
1.0371e-05
1.03712e-05
1.03715e-05
1.03717e-05
1.03719e-05
1.03721e-05
1.03724e-05
1.03726e-05
1.03728e-05
1.0373e-05
1.03732e-05
1.03734e-05
1.03737e-05
1.03739e-05
1.03741e-05
1.03743e-05
1.03745e-05
1.03747e-05
1.03749e-05
1.03751e-05
1.03753e-05
1.03756e-05
1.03758e-05
1.0376e-05
1.03762e-05
1.03764e-05
1.03767e-05
1.03769e-05
1.03771e-05
1.03773e-05
1.03776e-05
1.03778e-05
1.03781e-05
1.03783e-05
1.03785e-05
1.03788e-05
1.04449e-05
1.04418e-05
1.04386e-05
1.04355e-05
1.04325e-05
1.04295e-05
1.04266e-05
1.04237e-05
1.04209e-05
1.04183e-05
1.04157e-05
1.04132e-05
1.04109e-05
1.04087e-05
1.04066e-05
1.04047e-05
1.04029e-05
1.04012e-05
1.03997e-05
1.03983e-05
1.0397e-05
1.03959e-05
1.0395e-05
1.03941e-05
1.03934e-05
1.03928e-05
1.03924e-05
1.0392e-05
1.03918e-05
1.03917e-05
1.03916e-05
1.03917e-05
1.03918e-05
1.03919e-05
1.03922e-05
1.03925e-05
1.03928e-05
1.03932e-05
1.03937e-05
1.03941e-05
1.03946e-05
1.03952e-05
1.03957e-05
1.03963e-05
1.03968e-05
1.03974e-05
1.0398e-05
1.03987e-05
1.03993e-05
1.03999e-05
1.04006e-05
1.04012e-05
1.04019e-05
1.04026e-05
1.04033e-05
1.0404e-05
1.04047e-05
1.04054e-05
1.04061e-05
1.04069e-05
1.04076e-05
1.04084e-05
1.04092e-05
1.041e-05
1.04108e-05
1.04116e-05
1.04124e-05
1.04133e-05
1.04141e-05
1.04149e-05
1.04157e-05
1.04166e-05
1.04174e-05
1.04182e-05
1.04191e-05
1.04199e-05
1.04207e-05
1.04215e-05
1.04224e-05
1.04232e-05
1.0424e-05
1.04248e-05
1.04256e-05
1.04264e-05
1.04272e-05
1.0428e-05
1.04288e-05
1.04296e-05
1.04305e-05
1.04313e-05
1.04321e-05
1.04329e-05
1.04338e-05
1.04346e-05
1.04355e-05
1.04364e-05
1.04372e-05
1.04381e-05
1.0439e-05
1.04399e-05
1.04408e-05
1.04417e-05
1.04427e-05
1.04436e-05
1.04446e-05
1.04455e-05
1.05862e-05
1.05786e-05
1.0571e-05
1.05635e-05
1.05561e-05
1.05488e-05
1.05417e-05
1.05347e-05
1.05279e-05
1.05214e-05
1.05151e-05
1.05091e-05
1.05034e-05
1.0498e-05
1.04929e-05
1.04882e-05
1.04838e-05
1.04798e-05
1.04761e-05
1.04728e-05
1.04698e-05
1.04672e-05
1.04649e-05
1.0463e-05
1.04614e-05
1.04601e-05
1.04592e-05
1.04585e-05
1.04581e-05
1.0458e-05
1.0458e-05
1.04583e-05
1.04587e-05
1.04594e-05
1.04602e-05
1.04611e-05
1.04622e-05
1.04634e-05
1.04647e-05
1.04661e-05
1.04676e-05
1.04691e-05
1.04707e-05
1.04723e-05
1.0474e-05
1.04757e-05
1.04774e-05
1.04792e-05
1.0481e-05
1.04828e-05
1.04847e-05
1.04866e-05
1.04885e-05
1.04905e-05
1.04925e-05
1.04945e-05
1.04966e-05
1.04987e-05
1.05008e-05
1.0503e-05
1.05052e-05
1.05075e-05
1.05098e-05
1.05121e-05
1.05145e-05
1.05169e-05
1.05193e-05
1.05218e-05
1.05242e-05
1.05267e-05
1.05292e-05
1.05317e-05
1.05342e-05
1.05368e-05
1.05393e-05
1.05418e-05
1.05443e-05
1.05468e-05
1.05493e-05
1.05518e-05
1.05543e-05
1.05568e-05
1.05593e-05
1.05618e-05
1.05643e-05
1.05668e-05
1.05694e-05
1.05719e-05
1.05744e-05
1.0577e-05
1.05796e-05
1.05822e-05
1.05849e-05
1.05875e-05
1.05902e-05
1.0593e-05
1.05957e-05
1.05985e-05
1.06013e-05
1.06042e-05
1.06071e-05
1.061e-05
1.0613e-05
1.0616e-05
1.0619e-05
1.06221e-05
1.08956e-05
1.08794e-05
1.08632e-05
1.0847e-05
1.0831e-05
1.08151e-05
1.07995e-05
1.07842e-05
1.07693e-05
1.07548e-05
1.07409e-05
1.07275e-05
1.07146e-05
1.07024e-05
1.06909e-05
1.06801e-05
1.067e-05
1.06606e-05
1.0652e-05
1.06442e-05
1.06373e-05
1.06311e-05
1.06257e-05
1.06211e-05
1.06172e-05
1.06142e-05
1.06118e-05
1.06102e-05
1.06092e-05
1.06089e-05
1.06091e-05
1.06097e-05
1.06108e-05
1.06124e-05
1.06144e-05
1.06168e-05
1.06195e-05
1.06225e-05
1.06258e-05
1.06293e-05
1.06329e-05
1.06368e-05
1.06408e-05
1.06449e-05
1.06491e-05
1.06534e-05
1.06578e-05
1.06623e-05
1.06669e-05
1.06715e-05
1.06762e-05
1.0681e-05
1.06859e-05
1.06908e-05
1.06958e-05
1.0701e-05
1.07062e-05
1.07115e-05
1.07169e-05
1.07224e-05
1.07281e-05
1.07338e-05
1.07396e-05
1.07456e-05
1.07516e-05
1.07577e-05
1.0764e-05
1.07703e-05
1.07766e-05
1.07831e-05
1.07896e-05
1.07962e-05
1.08028e-05
1.08095e-05
1.08161e-05
1.08229e-05
1.08296e-05
1.08364e-05
1.08431e-05
1.08499e-05
1.08567e-05
1.08635e-05
1.08704e-05
1.08772e-05
1.08841e-05
1.0891e-05
1.08979e-05
1.09049e-05
1.0912e-05
1.0919e-05
1.09262e-05
1.09334e-05
1.09407e-05
1.09481e-05
1.09555e-05
1.09631e-05
1.09707e-05
1.09784e-05
1.09862e-05
1.09941e-05
1.1002e-05
1.10101e-05
1.10182e-05
1.10265e-05
1.10348e-05
1.10432e-05
1.10516e-05
1.14537e-05
1.14241e-05
1.13944e-05
1.13646e-05
1.13349e-05
1.13054e-05
1.12762e-05
1.12476e-05
1.12196e-05
1.11923e-05
1.1166e-05
1.11406e-05
1.11164e-05
1.10933e-05
1.10716e-05
1.10513e-05
1.10325e-05
1.10151e-05
1.09992e-05
1.0985e-05
1.09723e-05
1.09613e-05
1.09518e-05
1.09439e-05
1.09376e-05
1.09329e-05
1.09295e-05
1.09276e-05
1.09273e-05
1.09279e-05
1.09294e-05
1.09322e-05
1.09359e-05
1.09406e-05
1.0946e-05
1.09522e-05
1.09591e-05
1.09665e-05
1.09743e-05
1.09826e-05
1.09913e-05
1.10003e-05
1.10095e-05
1.10189e-05
1.10286e-05
1.10384e-05
1.10484e-05
1.10585e-05
1.10688e-05
1.10793e-05
1.10899e-05
1.11007e-05
1.11117e-05
1.11229e-05
1.11343e-05
1.11459e-05
1.11577e-05
1.11697e-05
1.1182e-05
1.11944e-05
1.12072e-05
1.12201e-05
1.12333e-05
1.12466e-05
1.12602e-05
1.1274e-05
1.1288e-05
1.13022e-05
1.13165e-05
1.1331e-05
1.13456e-05
1.13604e-05
1.13752e-05
1.13901e-05
1.14051e-05
1.14201e-05
1.14352e-05
1.14502e-05
1.14653e-05
1.14804e-05
1.14956e-05
1.15107e-05
1.15258e-05
1.1541e-05
1.15561e-05
1.15714e-05
1.15866e-05
1.16019e-05
1.16173e-05
1.16328e-05
1.16484e-05
1.16641e-05
1.16799e-05
1.16959e-05
1.1712e-05
1.17283e-05
1.17448e-05
1.17614e-05
1.17782e-05
1.17951e-05
1.18122e-05
1.18295e-05
1.18469e-05
1.18645e-05
1.18823e-05
1.19001e-05
1.19181e-05
1.24162e-05
1.23756e-05
1.23341e-05
1.2292e-05
1.22494e-05
1.22063e-05
1.21631e-05
1.21198e-05
1.20767e-05
1.2034e-05
1.19917e-05
1.19502e-05
1.19096e-05
1.18701e-05
1.18319e-05
1.17951e-05
1.17601e-05
1.17269e-05
1.16957e-05
1.16667e-05
1.16401e-05
1.1616e-05
1.15946e-05
1.15758e-05
1.15598e-05
1.15466e-05
1.15362e-05
1.15285e-05
1.15234e-05
1.1521e-05
1.15213e-05
1.15232e-05
1.15272e-05
1.15333e-05
1.15412e-05
1.15507e-05
1.15617e-05
1.15739e-05
1.15873e-05
1.16016e-05
1.16168e-05
1.16327e-05
1.16491e-05
1.16661e-05
1.16835e-05
1.17012e-05
1.17192e-05
1.17374e-05
1.17559e-05
1.17746e-05
1.17935e-05
1.18125e-05
1.18318e-05
1.18513e-05
1.1871e-05
1.1891e-05
1.19112e-05
1.19317e-05
1.19526e-05
1.19737e-05
1.19952e-05
1.2017e-05
1.20392e-05
1.20617e-05
1.20845e-05
1.21077e-05
1.21311e-05
1.21548e-05
1.21787e-05
1.22029e-05
1.22272e-05
1.22518e-05
1.22764e-05
1.23012e-05
1.23261e-05
1.23511e-05
1.23761e-05
1.24011e-05
1.24261e-05
1.2451e-05
1.2476e-05
1.25008e-05
1.25256e-05
1.25503e-05
1.2575e-05
1.25995e-05
1.2624e-05
1.26485e-05
1.26729e-05
1.26972e-05
1.27216e-05
1.2746e-05
1.27705e-05
1.2795e-05
1.28197e-05
1.28444e-05
1.28693e-05
1.28943e-05
1.29195e-05
1.29448e-05
1.29703e-05
1.2996e-05
1.30219e-05
1.30479e-05
1.30741e-05
1.31005e-05
1.3127e-05
1.31537e-05
1.31804e-05
1.3207e-05
1.33709e-05
1.33287e-05
1.32852e-05
1.32406e-05
1.31952e-05
1.3149e-05
1.31023e-05
1.30551e-05
1.30078e-05
1.29606e-05
1.29137e-05
1.28675e-05
1.28223e-05
1.27783e-05
1.27358e-05
1.26952e-05
1.26566e-05
1.26203e-05
1.25865e-05
1.25554e-05
1.25271e-05
1.25019e-05
1.24799e-05
1.24614e-05
1.24465e-05
1.24352e-05
1.24274e-05
1.24234e-05
1.24233e-05
1.24257e-05
1.24309e-05
1.24393e-05
1.24507e-05
1.24645e-05
1.24805e-05
1.24984e-05
1.25179e-05
1.25389e-05
1.25611e-05
1.25841e-05
1.2608e-05
1.26323e-05
1.26571e-05
1.26821e-05
1.27072e-05
1.27323e-05
1.27574e-05
1.27824e-05
1.28073e-05
1.28321e-05
1.28569e-05
1.28816e-05
1.29063e-05
1.29311e-05
1.2956e-05
1.29811e-05
1.30063e-05
1.30317e-05
1.30574e-05
1.30833e-05
1.31095e-05
1.3136e-05
1.31627e-05
1.31898e-05
1.32172e-05
1.32449e-05
1.32727e-05
1.33006e-05
1.33284e-05
1.33563e-05
1.33841e-05
1.34117e-05
1.34393e-05
1.34666e-05
1.34938e-05
1.35206e-05
1.35471e-05
1.35733e-05
1.3599e-05
1.36243e-05
1.36491e-05
1.36734e-05
1.36972e-05
1.37203e-05
1.37429e-05
1.37648e-05
1.37862e-05
1.38069e-05
1.3827e-05
1.38465e-05
1.38654e-05
1.38838e-05
1.39016e-05
1.39188e-05
1.39356e-05
1.39518e-05
1.39676e-05
1.39829e-05
1.39977e-05
1.40122e-05
1.40261e-05
1.40397e-05
1.40529e-05
1.40656e-05
1.4078e-05
1.40899e-05
1.41015e-05
1.41127e-05
1.41235e-05
1.4134e-05
1.3933e-05
1.39064e-05
1.388e-05
1.38535e-05
1.38267e-05
1.37996e-05
1.37723e-05
1.37449e-05
1.37173e-05
1.36897e-05
1.3662e-05
1.36344e-05
1.36069e-05
1.35796e-05
1.3553e-05
1.35273e-05
1.35027e-05
1.34796e-05
1.34584e-05
1.34397e-05
1.34238e-05
1.34109e-05
1.34011e-05
1.33947e-05
1.33922e-05
1.3393e-05
1.33968e-05
1.34037e-05
1.34126e-05
1.34255e-05
1.34404e-05
1.34573e-05
1.34763e-05
1.34971e-05
1.3519e-05
1.35418e-05
1.3565e-05
1.35884e-05
1.36117e-05
1.3635e-05
1.36578e-05
1.36803e-05
1.37021e-05
1.37234e-05
1.3744e-05
1.37641e-05
1.37835e-05
1.38024e-05
1.38208e-05
1.38387e-05
1.38561e-05
1.3873e-05
1.38895e-05
1.39056e-05
1.39214e-05
1.39367e-05
1.39517e-05
1.39664e-05
1.39807e-05
1.39947e-05
1.40084e-05
1.40219e-05
1.4035e-05
1.40478e-05
1.40604e-05
1.40726e-05
1.40846e-05
1.40964e-05
1.41079e-05
1.41193e-05
1.41304e-05
1.41413e-05
1.4152e-05
1.41624e-05
1.41727e-05
1.41827e-05
1.41925e-05
1.4202e-05
1.42113e-05
1.42203e-05
1.42292e-05
1.42377e-05
1.42461e-05
1.42541e-05
1.4262e-05
1.42695e-05
1.42769e-05
1.42839e-05
1.42907e-05
1.42973e-05
1.43036e-05
1.43096e-05
1.43154e-05
1.43209e-05
1.43263e-05
1.43314e-05
1.43363e-05
1.43411e-05
1.43456e-05
1.43501e-05
1.43544e-05
1.43585e-05
1.43626e-05
1.43666e-05
1.43704e-05
1.43742e-05
1.43779e-05
1.43816e-05
1.43851e-05
1.43886e-05
1.41446e-05
1.41244e-05
1.41051e-05
1.40863e-05
1.40686e-05
1.40515e-05
1.4035e-05
1.40194e-05
1.4005e-05
1.3992e-05
1.39804e-05
1.39704e-05
1.39618e-05
1.39549e-05
1.39497e-05
1.3946e-05
1.3944e-05
1.39437e-05
1.39446e-05
1.3947e-05
1.3951e-05
1.39568e-05
1.39644e-05
1.39737e-05
1.39847e-05
1.39958e-05
1.40108e-05
1.40268e-05
1.40418e-05
1.40582e-05
1.40755e-05
1.40929e-05
1.411e-05
1.41269e-05
1.41433e-05
1.41591e-05
1.41743e-05
1.41887e-05
1.42021e-05
1.42145e-05
1.42261e-05
1.42369e-05
1.42469e-05
1.42561e-05
1.42645e-05
1.42723e-05
1.42792e-05
1.42855e-05
1.42912e-05
1.42963e-05
1.43009e-05
1.4305e-05
1.43088e-05
1.43122e-05
1.43154e-05
1.43183e-05
1.43211e-05
1.43237e-05
1.43263e-05
1.43287e-05
1.43311e-05
1.43335e-05
1.43359e-05
1.43383e-05
1.43408e-05
1.43433e-05
1.43458e-05
1.43484e-05
1.43511e-05
1.43538e-05
1.43567e-05
1.43596e-05
1.43627e-05
1.43659e-05
1.43692e-05
1.43726e-05
1.43761e-05
1.43797e-05
1.43834e-05
1.43871e-05
1.43909e-05
1.43947e-05
1.43986e-05
1.44024e-05
1.44062e-05
1.441e-05
1.44137e-05
1.44173e-05
1.44208e-05
1.44241e-05
1.44274e-05
1.44305e-05
1.44334e-05
1.44362e-05
1.44389e-05
1.44414e-05
1.44438e-05
1.44461e-05
1.44482e-05
1.44503e-05
1.44522e-05
1.44541e-05
1.44559e-05
1.44576e-05
1.44593e-05
1.44609e-05
1.44624e-05
1.44639e-05
1.44653e-05
1.44667e-05
1.4216e-05
1.41996e-05
1.41853e-05
1.41726e-05
1.41593e-05
1.41462e-05
1.41352e-05
1.41259e-05
1.41176e-05
1.41102e-05
1.41041e-05
1.40994e-05
1.40962e-05
1.40953e-05
1.40959e-05
1.40984e-05
1.41029e-05
1.41093e-05
1.41165e-05
1.41268e-05
1.41391e-05
1.41529e-05
1.41681e-05
1.4184e-05
1.42002e-05
1.42171e-05
1.42353e-05
1.4253e-05
1.42697e-05
1.4287e-05
1.43038e-05
1.43195e-05
1.43342e-05
1.43477e-05
1.436e-05
1.43713e-05
1.43815e-05
1.43906e-05
1.43985e-05
1.44056e-05
1.44117e-05
1.44167e-05
1.44207e-05
1.4424e-05
1.44266e-05
1.44286e-05
1.44301e-05
1.44312e-05
1.4432e-05
1.44324e-05
1.44325e-05
1.44325e-05
1.44324e-05
1.44322e-05
1.44319e-05
1.44315e-05
1.44312e-05
1.44308e-05
1.44305e-05
1.44302e-05
1.44299e-05
1.44298e-05
1.44298e-05
1.44298e-05
1.443e-05
1.44303e-05
1.44307e-05
1.44312e-05
1.44319e-05
1.44326e-05
1.44335e-05
1.44346e-05
1.44357e-05
1.4437e-05
1.44383e-05
1.44398e-05
1.44414e-05
1.44431e-05
1.44449e-05
1.44467e-05
1.44487e-05
1.44507e-05
1.44528e-05
1.4455e-05
1.44572e-05
1.44594e-05
1.44616e-05
1.44638e-05
1.4466e-05
1.44681e-05
1.44702e-05
1.44722e-05
1.44742e-05
1.44761e-05
1.44779e-05
1.44796e-05
1.44812e-05
1.44828e-05
1.44843e-05
1.44858e-05
1.44872e-05
1.44886e-05
1.44899e-05
1.44913e-05
1.44926e-05
1.44939e-05
1.44952e-05
1.44966e-05
1.44979e-05
1.44992e-05
1.42756e-05
1.42582e-05
1.42423e-05
1.42279e-05
1.4215e-05
1.42022e-05
1.41894e-05
1.41789e-05
1.41703e-05
1.41637e-05
1.41589e-05
1.41556e-05
1.41546e-05
1.41552e-05
1.41575e-05
1.41617e-05
1.41676e-05
1.41751e-05
1.41838e-05
1.41931e-05
1.42038e-05
1.42164e-05
1.42305e-05
1.42448e-05
1.42599e-05
1.42761e-05
1.42933e-05
1.43094e-05
1.43248e-05
1.43411e-05
1.43566e-05
1.43711e-05
1.43855e-05
1.43986e-05
1.44095e-05
1.44201e-05
1.44303e-05
1.44391e-05
1.44468e-05
1.44539e-05
1.44601e-05
1.44652e-05
1.44697e-05
1.44735e-05
1.44766e-05
1.44791e-05
1.44811e-05
1.44826e-05
1.44836e-05
1.44841e-05
1.44841e-05
1.44839e-05
1.44834e-05
1.44825e-05
1.44814e-05
1.44802e-05
1.44789e-05
1.44776e-05
1.44762e-05
1.44749e-05
1.44736e-05
1.44723e-05
1.44712e-05
1.44701e-05
1.44692e-05
1.44685e-05
1.44679e-05
1.44674e-05
1.44671e-05
1.4467e-05
1.44671e-05
1.44673e-05
1.44677e-05
1.44683e-05
1.44691e-05
1.447e-05
1.44711e-05
1.44725e-05
1.4474e-05
1.44755e-05
1.44772e-05
1.44791e-05
1.44811e-05
1.44832e-05
1.44853e-05
1.44875e-05
1.44898e-05
1.4492e-05
1.44943e-05
1.44966e-05
1.44989e-05
1.45011e-05
1.45033e-05
1.45054e-05
1.45075e-05
1.45095e-05
1.45114e-05
1.45133e-05
1.45152e-05
1.45169e-05
1.45187e-05
1.45204e-05
1.45221e-05
1.45237e-05
1.45254e-05
1.45271e-05
1.45287e-05
1.45304e-05
1.45321e-05
1.45338e-05
1.45355e-05
1.43103e-05
1.42936e-05
1.42789e-05
1.4265e-05
1.42526e-05
1.42407e-05
1.42294e-05
1.42197e-05
1.42117e-05
1.42054e-05
1.42007e-05
1.41976e-05
1.41969e-05
1.41975e-05
1.41995e-05
1.42033e-05
1.42087e-05
1.42158e-05
1.42243e-05
1.42341e-05
1.42453e-05
1.42577e-05
1.4271e-05
1.42849e-05
1.42995e-05
1.43146e-05
1.433e-05
1.43446e-05
1.43592e-05
1.43743e-05
1.43872e-05
1.44e-05
1.44131e-05
1.44246e-05
1.44349e-05
1.44447e-05
1.4454e-05
1.44627e-05
1.44706e-05
1.44779e-05
1.44845e-05
1.44901e-05
1.44946e-05
1.44986e-05
1.4502e-05
1.45048e-05
1.45071e-05
1.45088e-05
1.451e-05
1.45107e-05
1.4511e-05
1.45109e-05
1.45107e-05
1.45102e-05
1.45095e-05
1.45086e-05
1.45076e-05
1.45066e-05
1.45055e-05
1.45045e-05
1.45034e-05
1.45024e-05
1.45015e-05
1.45006e-05
1.44999e-05
1.44994e-05
1.4499e-05
1.44988e-05
1.44987e-05
1.44988e-05
1.44991e-05
1.44995e-05
1.45002e-05
1.4501e-05
1.4502e-05
1.45031e-05
1.45045e-05
1.4506e-05
1.45077e-05
1.45095e-05
1.45115e-05
1.45136e-05
1.45158e-05
1.45181e-05
1.45205e-05
1.45229e-05
1.45254e-05
1.45279e-05
1.45304e-05
1.4533e-05
1.45355e-05
1.45381e-05
1.45406e-05
1.45431e-05
1.45455e-05
1.4548e-05
1.45504e-05
1.45527e-05
1.4555e-05
1.45572e-05
1.45595e-05
1.45617e-05
1.45638e-05
1.4566e-05
1.45682e-05
1.45703e-05
1.45725e-05
1.45747e-05
1.45769e-05
1.45792e-05
1.45814e-05
1.45837e-05
1.45861e-05
1.43451e-05
1.43298e-05
1.43159e-05
1.43026e-05
1.42908e-05
1.42801e-05
1.42702e-05
1.42615e-05
1.42544e-05
1.42489e-05
1.42449e-05
1.42423e-05
1.42415e-05
1.42419e-05
1.42434e-05
1.42464e-05
1.42511e-05
1.42572e-05
1.42645e-05
1.4273e-05
1.42825e-05
1.4293e-05
1.43042e-05
1.4316e-05
1.43284e-05
1.43413e-05
1.43544e-05
1.43672e-05
1.43804e-05
1.43935e-05
1.44051e-05
1.44169e-05
1.4429e-05
1.44396e-05
1.44494e-05
1.4459e-05
1.44682e-05
1.44771e-05
1.44855e-05
1.44934e-05
1.45009e-05
1.45074e-05
1.45128e-05
1.45178e-05
1.45224e-05
1.45265e-05
1.453e-05
1.4533e-05
1.45353e-05
1.45372e-05
1.45386e-05
1.45397e-05
1.45403e-05
1.45408e-05
1.45409e-05
1.45408e-05
1.45406e-05
1.45402e-05
1.45397e-05
1.45392e-05
1.45387e-05
1.45381e-05
1.45377e-05
1.45373e-05
1.4537e-05
1.45368e-05
1.45368e-05
1.45369e-05
1.45372e-05
1.45377e-05
1.45383e-05
1.45392e-05
1.45402e-05
1.45414e-05
1.45427e-05
1.45442e-05
1.45459e-05
1.45478e-05
1.45498e-05
1.45519e-05
1.45541e-05
1.45566e-05
1.45592e-05
1.45618e-05
1.45645e-05
1.45673e-05
1.45702e-05
1.45732e-05
1.45762e-05
1.45793e-05
1.45824e-05
1.45856e-05
1.45888e-05
1.4592e-05
1.45951e-05
1.45983e-05
1.46014e-05
1.46046e-05
1.46077e-05
1.46108e-05
1.46138e-05
1.46169e-05
1.462e-05
1.4623e-05
1.46261e-05
1.46292e-05
1.46323e-05
1.46355e-05
1.46387e-05
1.46419e-05
1.46452e-05
1.46485e-05
1.46519e-05
1.44186e-05
1.44027e-05
1.43876e-05
1.43733e-05
1.43599e-05
1.43476e-05
1.43364e-05
1.43265e-05
1.43175e-05
1.43096e-05
1.4303e-05
1.42979e-05
1.42942e-05
1.42918e-05
1.42911e-05
1.42915e-05
1.42929e-05
1.42955e-05
1.42993e-05
1.43042e-05
1.43102e-05
1.43171e-05
1.43248e-05
1.43333e-05
1.43425e-05
1.43522e-05
1.43625e-05
1.43733e-05
1.43842e-05
1.43951e-05
1.44066e-05
1.44179e-05
1.44281e-05
1.44388e-05
1.44498e-05
1.44597e-05
1.4469e-05
1.44783e-05
1.44875e-05
1.44967e-05
1.45057e-05
1.45145e-05
1.45229e-05
1.45303e-05
1.45369e-05
1.45431e-05
1.45491e-05
1.45546e-05
1.45597e-05
1.45641e-05
1.45679e-05
1.45712e-05
1.45739e-05
1.45762e-05
1.4578e-05
1.45794e-05
1.45805e-05
1.45814e-05
1.45819e-05
1.45823e-05
1.45826e-05
1.45827e-05
1.45828e-05
1.45829e-05
1.4583e-05
1.45831e-05
1.45834e-05
1.45838e-05
1.45844e-05
1.45851e-05
1.45861e-05
1.45872e-05
1.45885e-05
1.459e-05
1.45917e-05
1.45935e-05
1.45956e-05
1.45978e-05
1.46001e-05
1.46027e-05
1.46053e-05
1.46082e-05
1.46111e-05
1.46143e-05
1.46175e-05
1.46209e-05
1.46244e-05
1.4628e-05
1.46318e-05
1.46357e-05
1.46396e-05
1.46437e-05
1.46478e-05
1.4652e-05
1.46562e-05
1.46604e-05
1.46647e-05
1.46691e-05
1.46734e-05
1.46778e-05
1.46821e-05
1.46864e-05
1.46908e-05
1.46952e-05
1.46996e-05
1.4704e-05
1.47084e-05
1.47129e-05
1.47174e-05
1.4722e-05
1.47267e-05
1.47314e-05
1.47362e-05
1.47411e-05
1.4746e-05
1.44719e-05
1.44564e-05
1.44417e-05
1.44281e-05
1.44155e-05
1.44038e-05
1.43932e-05
1.43837e-05
1.43753e-05
1.43678e-05
1.43615e-05
1.43564e-05
1.43527e-05
1.43501e-05
1.43489e-05
1.4349e-05
1.43498e-05
1.43517e-05
1.43546e-05
1.43585e-05
1.43632e-05
1.43687e-05
1.43749e-05
1.43817e-05
1.4389e-05
1.43968e-05
1.44051e-05
1.44137e-05
1.44226e-05
1.44318e-05
1.44414e-05
1.44509e-05
1.446e-05
1.44697e-05
1.44799e-05
1.44893e-05
1.44982e-05
1.45073e-05
1.45167e-05
1.45262e-05
1.45358e-05
1.45454e-05
1.45548e-05
1.45632e-05
1.45709e-05
1.45784e-05
1.45858e-05
1.45928e-05
1.45993e-05
1.46053e-05
1.46106e-05
1.46155e-05
1.46197e-05
1.46235e-05
1.46268e-05
1.46296e-05
1.4632e-05
1.46341e-05
1.46358e-05
1.46373e-05
1.46386e-05
1.46398e-05
1.46408e-05
1.46419e-05
1.46429e-05
1.4644e-05
1.46453e-05
1.46467e-05
1.46482e-05
1.46499e-05
1.46518e-05
1.4654e-05
1.46563e-05
1.46588e-05
1.46616e-05
1.46645e-05
1.46676e-05
1.46709e-05
1.46743e-05
1.46779e-05
1.46817e-05
1.46856e-05
1.46897e-05
1.4694e-05
1.46984e-05
1.47029e-05
1.47077e-05
1.47125e-05
1.47176e-05
1.47227e-05
1.4728e-05
1.47334e-05
1.4739e-05
1.47446e-05
1.47503e-05
1.47561e-05
1.4762e-05
1.47679e-05
1.47738e-05
1.47798e-05
1.47859e-05
1.47919e-05
1.4798e-05
1.48042e-05
1.48104e-05
1.48166e-05
1.48229e-05
1.48292e-05
1.48357e-05
1.48422e-05
1.48488e-05
1.48555e-05
1.48623e-05
1.48692e-05
1.48763e-05
1.48834e-05
1.46609e-05
1.46423e-05
1.46231e-05
1.46049e-05
1.45877e-05
1.45708e-05
1.45545e-05
1.45388e-05
1.45238e-05
1.45098e-05
1.44969e-05
1.44849e-05
1.44738e-05
1.44636e-05
1.44545e-05
1.44463e-05
1.4439e-05
1.44328e-05
1.44276e-05
1.44235e-05
1.44205e-05
1.44186e-05
1.44178e-05
1.44179e-05
1.44187e-05
1.44204e-05
1.4423e-05
1.44263e-05
1.44302e-05
1.44347e-05
1.44397e-05
1.44451e-05
1.44511e-05
1.44574e-05
1.44642e-05
1.44713e-05
1.44789e-05
1.44869e-05
1.44949e-05
1.45031e-05
1.45119e-05
1.45214e-05
1.45306e-05
1.45392e-05
1.45483e-05
1.45579e-05
1.4568e-05
1.45784e-05
1.45889e-05
1.45994e-05
1.46089e-05
1.46181e-05
1.46272e-05
1.46363e-05
1.46451e-05
1.46535e-05
1.46614e-05
1.46687e-05
1.46755e-05
1.46817e-05
1.46874e-05
1.46925e-05
1.46972e-05
1.47013e-05
1.4705e-05
1.47083e-05
1.47113e-05
1.4714e-05
1.47166e-05
1.4719e-05
1.47214e-05
1.47238e-05
1.47263e-05
1.47288e-05
1.47316e-05
1.47344e-05
1.47375e-05
1.47408e-05
1.47443e-05
1.4748e-05
1.4752e-05
1.47561e-05
1.47605e-05
1.4765e-05
1.47697e-05
1.47747e-05
1.47798e-05
1.4785e-05
1.47905e-05
1.47961e-05
1.48019e-05
1.48079e-05
1.48141e-05
1.48205e-05
1.4827e-05
1.48338e-05
1.48407e-05
1.48477e-05
1.4855e-05
1.48623e-05
1.48698e-05
1.48775e-05
1.48852e-05
1.48931e-05
1.4901e-05
1.4909e-05
1.49171e-05
1.49253e-05
1.49335e-05
1.49418e-05
1.49502e-05
1.49586e-05
1.49671e-05
1.49757e-05
1.49844e-05
1.49932e-05
1.50021e-05
1.50111e-05
1.50203e-05
1.50296e-05
1.5039e-05
1.50486e-05
1.50584e-05
1.47362e-05
1.47188e-05
1.47006e-05
1.46835e-05
1.46672e-05
1.46514e-05
1.46358e-05
1.46211e-05
1.4607e-05
1.45939e-05
1.45816e-05
1.45702e-05
1.45596e-05
1.45498e-05
1.45409e-05
1.45329e-05
1.45257e-05
1.45193e-05
1.45139e-05
1.45094e-05
1.45058e-05
1.45031e-05
1.45013e-05
1.45003e-05
1.45003e-05
1.45007e-05
1.45018e-05
1.45035e-05
1.45059e-05
1.45088e-05
1.45121e-05
1.45159e-05
1.45202e-05
1.45249e-05
1.453e-05
1.45357e-05
1.45418e-05
1.45485e-05
1.45554e-05
1.45629e-05
1.45709e-05
1.45799e-05
1.4589e-05
1.45976e-05
1.46068e-05
1.46169e-05
1.46277e-05
1.4639e-05
1.46508e-05
1.46624e-05
1.46734e-05
1.46843e-05
1.46954e-05
1.47065e-05
1.47174e-05
1.4728e-05
1.47382e-05
1.47479e-05
1.4757e-05
1.47656e-05
1.47735e-05
1.47809e-05
1.47877e-05
1.47939e-05
1.47996e-05
1.48048e-05
1.48097e-05
1.48142e-05
1.48186e-05
1.48227e-05
1.48269e-05
1.4831e-05
1.48351e-05
1.48394e-05
1.48438e-05
1.48484e-05
1.48532e-05
1.48582e-05
1.48634e-05
1.48689e-05
1.48746e-05
1.48806e-05
1.48867e-05
1.48931e-05
1.48997e-05
1.49065e-05
1.49134e-05
1.49206e-05
1.4928e-05
1.49355e-05
1.49433e-05
1.49513e-05
1.49595e-05
1.49679e-05
1.49765e-05
1.49853e-05
1.49944e-05
1.50036e-05
1.5013e-05
1.50226e-05
1.50324e-05
1.50424e-05
1.50525e-05
1.50627e-05
1.5073e-05
1.50835e-05
1.5094e-05
1.51047e-05
1.51155e-05
1.51263e-05
1.51372e-05
1.51483e-05
1.51594e-05
1.51707e-05
1.51821e-05
1.51936e-05
1.52053e-05
1.52171e-05
1.5229e-05
1.52412e-05
1.52535e-05
1.52659e-05
1.52786e-05
1.48278e-05
1.48116e-05
1.47947e-05
1.47789e-05
1.47638e-05
1.47489e-05
1.47344e-05
1.47207e-05
1.47077e-05
1.46955e-05
1.4684e-05
1.46732e-05
1.46632e-05
1.46538e-05
1.46452e-05
1.46373e-05
1.46301e-05
1.46236e-05
1.46179e-05
1.4613e-05
1.46088e-05
1.46053e-05
1.46026e-05
1.46006e-05
1.45993e-05
1.45986e-05
1.45986e-05
1.45989e-05
1.45998e-05
1.46012e-05
1.46031e-05
1.46055e-05
1.46083e-05
1.46117e-05
1.46155e-05
1.462e-05
1.4625e-05
1.46306e-05
1.46368e-05
1.46437e-05
1.46514e-05
1.46601e-05
1.46693e-05
1.4678e-05
1.46877e-05
1.46984e-05
1.47102e-05
1.47228e-05
1.4736e-05
1.4749e-05
1.47617e-05
1.47747e-05
1.4788e-05
1.48015e-05
1.48149e-05
1.48281e-05
1.48409e-05
1.48532e-05
1.48649e-05
1.48761e-05
1.48867e-05
1.48966e-05
1.49058e-05
1.49144e-05
1.49224e-05
1.49299e-05
1.49369e-05
1.49436e-05
1.49501e-05
1.49563e-05
1.49625e-05
1.49686e-05
1.49748e-05
1.49811e-05
1.49875e-05
1.49941e-05
1.5001e-05
1.5008e-05
1.50154e-05
1.50229e-05
1.50307e-05
1.50388e-05
1.50471e-05
1.50556e-05
1.50643e-05
1.50733e-05
1.50825e-05
1.50918e-05
1.51014e-05
1.51113e-05
1.51213e-05
1.51316e-05
1.51421e-05
1.51528e-05
1.51638e-05
1.51751e-05
1.51865e-05
1.51982e-05
1.52101e-05
1.52222e-05
1.52346e-05
1.52471e-05
1.52598e-05
1.52726e-05
1.52856e-05
1.52987e-05
1.5312e-05
1.53254e-05
1.53389e-05
1.53525e-05
1.53662e-05
1.538e-05
1.5394e-05
1.54081e-05
1.54223e-05
1.54367e-05
1.54513e-05
1.5466e-05
1.54809e-05
1.54959e-05
1.55112e-05
1.55266e-05
1.55423e-05
1.49372e-05
1.49224e-05
1.49071e-05
1.48928e-05
1.48789e-05
1.48651e-05
1.48518e-05
1.48394e-05
1.48276e-05
1.48163e-05
1.48057e-05
1.47956e-05
1.47862e-05
1.47774e-05
1.47691e-05
1.47614e-05
1.47543e-05
1.47477e-05
1.47418e-05
1.47365e-05
1.47318e-05
1.47277e-05
1.47242e-05
1.47213e-05
1.4719e-05
1.47173e-05
1.47161e-05
1.47153e-05
1.47152e-05
1.47154e-05
1.47161e-05
1.47173e-05
1.4719e-05
1.47212e-05
1.47241e-05
1.47276e-05
1.47318e-05
1.47368e-05
1.47426e-05
1.47492e-05
1.47568e-05
1.47656e-05
1.4775e-05
1.47843e-05
1.47948e-05
1.48067e-05
1.48198e-05
1.4834e-05
1.48487e-05
1.48634e-05
1.48783e-05
1.48937e-05
1.49096e-05
1.49257e-05
1.49418e-05
1.49578e-05
1.49734e-05
1.49886e-05
1.50032e-05
1.50173e-05
1.50306e-05
1.50432e-05
1.50551e-05
1.50663e-05
1.50768e-05
1.50867e-05
1.50962e-05
1.51052e-05
1.5114e-05
1.51226e-05
1.5131e-05
1.51394e-05
1.51478e-05
1.51564e-05
1.51651e-05
1.5174e-05
1.51831e-05
1.51925e-05
1.52021e-05
1.5212e-05
1.52221e-05
1.52325e-05
1.52431e-05
1.5254e-05
1.52651e-05
1.52764e-05
1.52879e-05
1.52997e-05
1.53117e-05
1.53239e-05
1.53364e-05
1.53491e-05
1.53621e-05
1.53753e-05
1.53888e-05
1.54026e-05
1.54166e-05
1.54308e-05
1.54453e-05
1.546e-05
1.54749e-05
1.54901e-05
1.55054e-05
1.55209e-05
1.55366e-05
1.55524e-05
1.55683e-05
1.55844e-05
1.56006e-05
1.5617e-05
1.56334e-05
1.565e-05
1.56667e-05
1.56835e-05
1.57005e-05
1.57176e-05
1.57349e-05
1.57523e-05
1.577e-05
1.57878e-05
1.58057e-05
1.58239e-05
1.58422e-05
1.58607e-05
1.58794e-05
1.50656e-05
1.50524e-05
1.50389e-05
1.50262e-05
1.50137e-05
1.50013e-05
1.49895e-05
1.49784e-05
1.49679e-05
1.49577e-05
1.4948e-05
1.49388e-05
1.49302e-05
1.49219e-05
1.49142e-05
1.49068e-05
1.48999e-05
1.48934e-05
1.48874e-05
1.48818e-05
1.48768e-05
1.48722e-05
1.48682e-05
1.48646e-05
1.48615e-05
1.4859e-05
1.48569e-05
1.48553e-05
1.48541e-05
1.48535e-05
1.48534e-05
1.48537e-05
1.48546e-05
1.48561e-05
1.48583e-05
1.48612e-05
1.4865e-05
1.48697e-05
1.48754e-05
1.48821e-05
1.48899e-05
1.48992e-05
1.49092e-05
1.49194e-05
1.49312e-05
1.49446e-05
1.49594e-05
1.49755e-05
1.49921e-05
1.50089e-05
1.50262e-05
1.50443e-05
1.50629e-05
1.50819e-05
1.5101e-05
1.51199e-05
1.51385e-05
1.51566e-05
1.51742e-05
1.51911e-05
1.52073e-05
1.52226e-05
1.52372e-05
1.5251e-05
1.52641e-05
1.52766e-05
1.52885e-05
1.53e-05
1.53111e-05
1.53221e-05
1.53329e-05
1.53436e-05
1.53544e-05
1.53653e-05
1.53764e-05
1.53877e-05
1.53991e-05
1.54109e-05
1.54229e-05
1.54351e-05
1.54476e-05
1.54604e-05
1.54734e-05
1.54866e-05
1.55001e-05
1.55137e-05
1.55277e-05
1.55418e-05
1.55562e-05
1.55708e-05
1.55856e-05
1.56008e-05
1.56161e-05
1.56317e-05
1.56476e-05
1.56638e-05
1.56802e-05
1.56969e-05
1.57138e-05
1.57309e-05
1.57483e-05
1.57659e-05
1.57836e-05
1.58016e-05
1.58197e-05
1.58379e-05
1.58563e-05
1.58748e-05
1.58934e-05
1.59121e-05
1.59309e-05
1.59498e-05
1.59688e-05
1.5988e-05
1.60073e-05
1.60267e-05
1.60462e-05
1.60659e-05
1.60858e-05
1.61057e-05
1.61258e-05
1.61461e-05
1.61665e-05
1.61871e-05
1.62078e-05
1.52137e-05
1.52023e-05
1.51907e-05
1.51798e-05
1.51691e-05
1.51583e-05
1.51479e-05
1.51384e-05
1.51292e-05
1.51202e-05
1.51116e-05
1.51034e-05
1.50956e-05
1.50881e-05
1.5081e-05
1.50741e-05
1.50675e-05
1.50612e-05
1.50553e-05
1.50497e-05
1.50446e-05
1.50398e-05
1.50354e-05
1.50314e-05
1.50278e-05
1.50247e-05
1.5022e-05
1.50197e-05
1.5018e-05
1.50167e-05
1.5016e-05
1.5016e-05
1.50163e-05
1.50174e-05
1.50193e-05
1.5022e-05
1.50258e-05
1.50306e-05
1.50366e-05
1.50438e-05
1.50523e-05
1.50625e-05
1.50733e-05
1.5085e-05
1.50985e-05
1.51138e-05
1.51307e-05
1.51489e-05
1.51676e-05
1.51868e-05
1.52068e-05
1.52277e-05
1.52493e-05
1.52711e-05
1.52931e-05
1.53149e-05
1.53365e-05
1.53575e-05
1.53779e-05
1.53975e-05
1.54163e-05
1.54343e-05
1.54514e-05
1.54677e-05
1.54832e-05
1.5498e-05
1.55123e-05
1.55261e-05
1.55395e-05
1.55527e-05
1.55658e-05
1.55789e-05
1.55919e-05
1.56051e-05
1.56184e-05
1.56319e-05
1.56457e-05