/*--------------------------------*- C++ -*----------------------------------*\
| =========                 |                                                 |
| \\      /  F ield         | OpenFOAM: The Open Source CFD Toolbox           |
|  \\    /   O peration     | Version:  v1706                                 |
|   \\  /    A nd           | Web:      www.OpenFOAM.com                      |
|    \\/     M anipulation  |                                                 |
\*---------------------------------------------------------------------------*/
FoamFile
{
    version     2.0;
    format      ascii;
    class       volScalarField;
    location    "1.2e-05";
    object      p;
}
// * * * * * * * * * * * * * * * * * * * * * * * * * * * * * * * * * * * * * //

dimensions      [1 -1 -2 0 0 0 0];


internalField   nonuniform List<scalar> 
29871
(
21.9387
21.9378
21.9369
21.936
21.9351
21.9342
21.9334
21.9326
21.9318
21.9311
21.9304
21.9298
21.9292
21.9286
21.9281
21.9276
21.9271
21.9267
21.9263
21.926
21.9256
21.9254
21.9251
21.9249
21.9247
21.9246
21.9245
21.9244
21.9243
21.9243
21.9243
21.9243
21.9243
21.9243
21.9244
21.9245
21.9245
21.9246
21.9247
21.9248
21.9249
21.925
21.9252
21.9253
21.9254
21.9255
21.9257
21.9258
21.9259
21.926
21.9262
21.9263
21.9265
21.9266
21.9267
21.9269
21.927
21.9272
21.9273
21.9275
21.9277
21.9278
21.928
21.9281
21.9283
21.9285
21.9286
21.9288
21.929
21.9292
21.9293
21.9295
21.9297
21.9298
21.93
21.9302
21.9303
21.9305
21.9306
21.9308
21.931
21.9311
21.9313
21.9314
21.9316
21.9317
21.9319
21.932
21.9322
21.9323
21.9325
21.9326
21.9328
21.9329
21.9331
21.9332
21.9334
21.9335
21.9337
21.9338
21.934
21.9341
21.9343
21.9344
21.9346
22.0616
22.0565
22.0515
22.0464
22.0415
22.0367
22.0319
22.0273
22.0228
22.0185
22.0143
22.0104
22.0066
22.0031
21.9998
21.9967
21.9939
21.9913
21.9889
21.9868
21.9849
21.9832
21.9818
21.9805
21.9795
21.9787
21.978
21.9775
21.9772
21.977
21.977
21.9771
21.9773
21.9775
21.9779
21.9784
21.9789
21.9795
21.9802
21.9809
21.9816
21.9824
21.9832
21.9841
21.9849
21.9858
21.9867
21.9876
21.9885
21.9895
21.9904
21.9914
21.9924
21.9934
21.9945
21.9955
21.9966
21.9976
21.9987
21.9998
22.001
22.0021
22.0032
22.0044
22.0055
22.0067
22.0078
22.009
22.0102
22.0113
22.0124
22.0136
22.0147
22.0158
22.0169
22.018
22.019
22.0201
22.0211
22.0221
22.0232
22.0242
22.0252
22.0262
22.0272
22.0282
22.0292
22.0303
22.0313
22.0323
22.0334
22.0344
22.0355
22.0365
22.0376
22.0387
22.0398
22.0409
22.0421
22.0432
22.0444
22.0456
22.0468
22.048
22.0493
22.3807
22.3652
22.3498
22.3344
22.3193
22.3044
22.2899
22.2757
22.262
22.2488
22.236
22.2239
22.2123
22.2012
22.1908
22.1811
22.172
22.1635
22.1557
22.1486
22.1422
22.1365
22.1315
22.1271
22.1234
22.1203
22.1178
22.1159
22.1146
22.1138
22.1135
22.1136
22.1141
22.1148
22.116
22.1174
22.1191
22.121
22.1231
22.1255
22.1279
22.1306
22.1333
22.1361
22.1391
22.142
22.1451
22.1482
22.1514
22.1546
22.1578
22.1611
22.1645
22.1679
22.1714
22.1749
22.1785
22.1822
22.1859
22.1897
22.1935
22.1974
22.2014
22.2054
22.2095
22.2136
22.2177
22.2219
22.226
22.2303
22.2345
22.2387
22.2429
22.2472
22.2514
22.2556
22.2598
22.264
22.2682
22.2724
22.2766
22.2808
22.2849
22.2891
22.2933
22.2975
22.3017
22.3059
22.3101
22.3144
22.3187
22.3231
22.3274
22.3319
22.3363
22.3408
22.3454
22.35
22.3546
22.3593
22.364
22.3688
22.3737
22.3785
22.3835
22.3885
23.1259
23.087
23.0481
23.0093
22.9708
22.9328
22.8955
22.8589
22.8233
22.7889
22.7557
22.724
22.6938
22.6652
22.6384
22.6134
22.5902
22.5688
22.5493
22.5317
22.516
22.502
22.4899
22.4795
22.4707
22.4636
22.4581
22.454
22.4515
22.4504
22.4503
22.4513
22.4533
22.4563
22.4602
22.4648
22.4702
22.4762
22.4827
22.4898
22.4972
22.505
22.5132
22.5216
22.5302
22.5391
22.5481
22.5574
22.5669
22.5765
22.5863
22.5963
22.6065
22.6169
22.6275
22.6382
22.6492
22.6604
22.6718
22.6834
22.6952
22.7071
22.7193
22.7317
22.7442
22.7569
22.7697
22.7826
22.7956
22.8087
22.8219
22.8351
22.8482
22.8614
22.8746
22.8878
22.9009
22.914
22.9271
22.9401
22.9531
22.9661
22.979
22.992
23.005
23.0181
23.0312
23.0444
23.0577
23.0711
23.0846
23.0983
23.1121
23.1261
23.1402
23.1546
23.1691
23.1839
23.1988
23.214
23.2294
23.245
23.2609
23.2771
23.2934
23.3101
24.862
24.771
24.6798
24.5891
24.4992
24.4105
24.3236
24.2386
24.156
24.0758
23.9985
23.9241
23.8529
23.785
23.7206
23.6599
23.603
23.5502
23.5015
23.457
23.4168
23.381
23.3496
23.3226
23.2998
23.2811
23.2666
23.2559
23.2489
23.2459
23.2455
23.2477
23.2527
23.2602
23.2701
23.282
23.2959
23.3114
23.3285
23.347
23.3666
23.3873
23.409
23.4314
23.4545
23.4782
23.5025
23.5273
23.5525
23.5782
23.6043
23.6308
23.6578
23.6852
23.7132
23.7417
23.7707
23.8004
23.8306
23.8614
23.8929
23.925
23.9577
23.991
24.0249
24.0594
24.0945
24.1301
24.1662
24.2027
24.2397
24.2771
24.3148
24.3529
24.3913
24.4299
24.4688
24.5079
24.5472
24.5868
24.6265
24.6665
24.7067
24.7472
24.788
24.8291
24.8706
24.9124
24.9548
24.9976
25.0409
25.0847
25.1292
25.1743
25.22
25.2663
25.3133
25.3609
25.4093
25.4582
25.5078
25.5581
25.609
25.6605
25.7127
25.7656
25.819
28.556
28.3553
28.1536
27.952
27.7513
27.5525
27.3565
27.1643
26.9769
26.7955
26.6208
26.4538
26.2951
26.1452
26.0047
25.874
25.7529
25.6417
25.5403
25.4488
25.3672
25.2955
25.2335
25.1807
25.1376
25.104
25.0786
25.0616
25.0547
25.0538
25.0593
25.0719
25.0908
25.1154
25.1452
25.1799
25.2189
25.2618
25.3081
25.3573
25.4091
25.4631
25.519
25.5766
25.6358
25.6964
25.7583
25.8216
25.8863
25.9523
26.0197
26.0886
26.159
26.231
26.3046
26.3798
26.4568
26.5355
26.6161
26.6984
26.7826
26.8686
26.9564
27.0461
27.1375
27.2307
27.3255
27.422
27.52
27.6194
27.7201
27.822
27.925
28.0289
28.1336
28.2389
28.3449
28.4515
28.5585
28.6659
28.7737
28.8819
28.9906
29.0998
29.2095
29.32
29.4312
29.5433
29.6564
29.7706
29.8861
30.003
30.1213
30.2411
30.3627
30.486
30.6112
30.7383
30.8674
30.9986
31.1319
31.2675
31.4054
31.5455
31.6881
31.8331
31.9805
36.8725
36.4849
36.0935
35.7002
35.3063
34.913
34.5221
34.1354
33.7546
33.3811
33.0161
32.6605
32.315
31.9805
31.6582
31.3493
31.0549
30.7759
30.5138
30.2703
30.0467
29.8441
29.6628
29.5031
29.3651
29.2492
29.1552
29.0815
29.0267
28.9938
28.9835
28.9848
29.002
29.0344
29.0807
29.14
29.2111
29.293
29.3846
29.4848
29.5929
29.7079
29.8291
29.956
30.088
30.2246
30.3654
30.51
30.6582
30.8096
30.964
31.1214
31.2817
31.4448
31.6109
31.78
31.9524
32.1282
32.3077
32.491
32.6784
32.8701
33.0662
33.2668
33.4721
33.682
33.8964
34.1154
34.3388
34.5665
34.7985
35.0348
35.2751
35.5194
35.7674
36.0193
36.2747
36.5337
36.7961
37.0619
37.3312
37.6038
37.8799
38.1596
38.443
38.7302
39.0216
39.3172
39.6175
39.9226
40.2331
40.5493
40.8716
41.2004
41.5362
41.8794
42.2304
42.5896
42.9572
43.3336
43.7189
44.1133
44.5169
44.9297
45.3518
45.7829
46.223
46.672
47.1287
47.5907
51.3231
50.6205
49.8954
49.1525
48.3998
47.6435
46.8874
46.1351
45.3907
44.659
43.9455
43.2556
42.5947
41.9668
41.3739
40.8169
40.298
39.8185
39.3778
38.9741
38.6057
38.273
37.9779
37.7225
37.5066
37.3291
37.1904
37.0928
37.0364
37.0139
37.0225
37.0681
37.1459
37.2535
37.3891
37.551
37.7374
37.946
38.1746
38.4207
38.6825
38.958
39.2449
39.5414
39.8456
40.1562
40.4723
40.7933
41.1189
41.4492
41.7847
42.126
42.4738
42.829
43.1924
43.5648
43.9471
44.3398
44.7436
45.159
45.5865
46.0266
46.4793
46.9452
47.4245
47.917
48.4202
48.9325
49.4539
49.9838
50.5212
51.0655
51.6163
52.1727
52.7334
53.2974
53.8633
54.43
54.9966
55.5616
56.124
56.6825
57.236
57.7836
58.3245
58.8579
59.3833
59.9005
60.409
60.9089
61.4001
61.8825
62.3562
62.8211
63.2774
63.7249
64.1636
64.5933
65.0141
65.4258
65.8282
66.2213
66.605
66.9793
67.344
67.6993
68.0452
68.3817
68.7099
69.0321
65.4089
64.8483
64.2922
63.7348
63.1622
62.5715
61.9675
61.3524
60.7263
60.0881
59.4363
58.7706
58.0914
57.4004
56.707
56.0237
55.3563
54.7102
54.1011
53.5454
53.0532
52.6289
52.2727
51.982
51.7657
51.6272
51.5579
51.5422
51.5731
51.6855
51.8517
52.0623
52.3262
52.6388
52.9905
53.3731
53.7802
54.2078
54.6533
55.1135
55.5844
56.0622
56.5447
57.0312
57.5211
58.0142
58.5098
59.0077
59.5073
60.008
60.5091
61.0097
61.5085
62.0046
62.497
62.9847
63.4672
63.9439
64.4144
64.8783
65.3353
65.7849
66.2271
66.6611
67.0859
67.5017
67.9107
68.3135
68.7086
69.0962
69.4769
69.8505
70.2156
70.5718
70.9193
71.2584
71.5894
71.912
72.2262
72.5322
72.8303
73.1208
73.4038
73.6798
73.9489
74.2113
74.4671
74.7165
74.9595
75.1961
75.4265
75.6507
75.8691
76.0817
76.2889
76.491
76.6887
76.8822
77.0721
77.2589
77.443
77.6249
77.8048
77.9832
78.1602
78.336
78.5106
78.6843
78.8571
79.0287
74.0101
73.5273
73.0333
72.5274
72.044
71.5801
71.118
70.6661
70.2371
69.8368
69.4701
69.1402
68.8476
68.5952
68.3821
68.1962
68.033
67.9042
67.7995
67.7042
67.6181
67.5424
67.4927
67.4931
67.5205
67.5455
67.699
67.9054
68.0734
68.2806
68.5473
68.8494
69.171
69.5121
69.8681
70.2333
70.6072
70.9845
71.357
71.7211
72.0804
72.4379
72.7911
73.1351
73.4659
73.7807
74.0778
74.3567
74.6173
74.8603
75.0867
75.2981
75.4962
75.6828
75.8599
76.0293
76.1924
76.3505
76.5047
76.6558
76.8046
76.9519
77.0979
77.2433
77.3892
77.5353
77.6814
77.8285
77.9777
78.1285
78.28
78.433
78.5888
78.7472
78.9075
79.0698
79.2337
79.3989
79.5653
79.7322
79.8989
80.0651
80.2299
80.3929
80.5531
80.7099
80.8626
81.0108
81.1539
81.2917
81.424
81.5507
81.6718
81.7874
81.8977
82.0029
82.103
82.1984
82.2894
82.3758
82.458
82.5361
82.6101
82.6801
82.7464
82.8089
82.8677
82.9229
82.9747
83.0232
76.6515
76.3915
76.2237
76.1145
75.9608
75.7447
75.5555
75.4142
75.2724
75.1167
74.9509
74.7845
74.6266
74.4905
74.3796
74.3056
74.2932
74.333
74.3793
74.5
74.6921
74.9377
75.2245
75.5197
75.7963
76.1039
76.4971
76.8633
77.1615
77.4818
77.8089
78.1206
78.4272
78.7185
78.9796
79.2233
79.4445
79.6373
79.8107
79.973
80.1236
80.2472
80.3435
80.4241
80.4957
80.5617
80.6237
80.6828
80.7404
80.7979
80.8561
80.9156
80.977
81.0399
81.104
81.1691
81.2349
81.3012
81.3679
81.4349
81.5021
81.5695
81.637
81.7045
81.7718
81.8384
81.9047
81.9702
82.0336
82.0945
82.1547
82.2146
82.2723
82.3276
82.3819
82.4338
82.4836
82.5332
82.5818
82.6292
82.6758
82.7224
82.769
82.8154
82.8616
82.9077
82.9533
82.9984
83.0427
83.0859
83.1279
83.1684
83.2071
83.244
83.2791
83.312
83.3431
83.3726
83.4003
83.4267
83.4521
83.4764
83.5001
83.5235
83.5463
83.5688
83.5915
83.6138
83.6358
83.6578
77.3213
77.0902
76.8742
76.7385
76.6592
76.5582
76.4137
76.3173
76.2557
76.2302
76.2498
76.3082
76.4048
76.5333
76.6922
76.8782
77.087
77.3237
77.5667
77.7683
77.9801
78.2466
78.5558
78.829
79.1009
79.4217
79.8195
80.1575
80.435
80.7551
81.0554
81.3205
81.6119
81.8737
82.0512
82.2275
82.4162
82.5683
82.6885
82.7992
82.8918
82.9605
83.0282
83.0977
83.1604
83.215
83.2622
83.3021
83.3342
83.3577
83.3721
83.3795
83.3802
83.3755
83.3661
83.3535
83.3389
83.3224
83.3044
83.2853
83.2654
83.2452
83.2251
83.2053
83.1862
83.1678
83.1506
83.135
83.121
83.109
83.0984
83.0896
83.085
83.0852
83.0872
83.089
83.0959
83.1106
83.128
83.1461
83.1672
83.1923
83.2206
83.251
83.2831
83.3169
83.3521
83.3887
83.4259
83.4633
83.5004
83.5367
83.5721
83.6061
83.6386
83.6695
83.6984
83.7255
83.751
83.7746
83.797
83.8184
83.8384
83.8578
83.877
83.8953
83.9133
83.9317
83.9496
83.9674
83.9856
77.4552
77.2396
77.0668
76.9511
76.8819
76.804
76.7192
76.6618
76.6463
76.6736
76.7398
76.8394
76.9748
77.1395
77.3337
77.558
77.8148
78.1043
78.4175
78.7513
79.1114
79.4968
79.893
80.2821
80.6683
81.0698
81.4727
81.8173
82.1561
82.5074
82.752
82.9894
83.258
83.4651
83.6127
83.7421
83.8638
83.9671
84.0496
84.1179
84.1754
84.2159
84.2302
84.2286
84.2207
84.2066
84.1855
84.158
84.1259
84.0908
84.0538
84.0161
83.9788
83.9418
83.9055
83.8701
83.8357
83.8022
83.7695
83.7376
83.7065
83.6763
83.6471
83.619
83.5922
83.5669
83.5434
83.5216
83.5018
83.4839
83.4677
83.453
83.4415
83.4348
83.4301
83.4245
83.4251
83.4345
83.4447
83.4554
83.4698
83.49
83.5143
83.5404
83.5687
83.5994
83.6322
83.6661
83.7006
83.7357
83.7708
83.8056
83.8397
83.8727
83.9045
83.9349
83.9634
83.9902
84.015
84.0377
84.0593
84.0797
84.0988
84.1172
84.1348
84.1517
84.168
84.1842
84.2002
84.216
84.2317
84.2473
84.2626
77.3988
77.2342
77.1102
77.0123
76.9484
76.919
76.8997
76.8901
76.9083
76.9641
77.0601
77.1963
77.3681
77.5675
77.7917
78.0426
78.3221
78.6281
78.9551
79.2999
79.6616
80.0374
80.4165
80.7895
81.1625
81.5431
81.9051
82.2286
82.567
82.8874
83.1217
83.3614
83.6216
83.8136
83.9546
84.0741
84.1786
84.2673
84.3429
84.4109
84.4722
84.5152
84.5289
84.5267
84.5206
84.5107
84.4944
84.4709
84.4414
84.4076
84.3712
84.3333
84.2947
84.256
84.2174
84.1795
84.1425
84.1063
84.071
84.0367
84.0035
83.9715
83.9409
83.9117
83.884
83.8576
83.8327
83.8092
83.7877
83.7684
83.7509
83.7351
83.7218
83.712
83.7047
83.6981
83.6958
83.6993
83.7053
83.7122
83.7224
83.7387
83.7586
83.7794
83.8014
83.8265
83.8541
83.8829
83.913
83.9441
83.9759
84.0079
84.0396
84.0703
84.1
84.1284
84.1555
84.1813
84.2053
84.2271
84.2476
84.267
84.2852
84.3022
84.3182
84.3334
84.348
84.3622
84.3761
84.3896
84.4028
84.4156
84.4282
77.541
77.4084
77.2881
77.1806
77.0891
77.0182
76.9785
76.9798
77.009
77.0535
77.1178
77.2111
77.3384
77.498
77.6907
77.9099
78.1546
78.4292
78.7294
79.0501
79.3869
79.7365
80.0963
80.4625
80.8289
81.1913
81.5522
81.9107
82.2456
82.5584
82.8863
83.1802
83.4023
83.6342
83.8832
84.0638
84.1959
84.3082
84.4059
84.4902
84.5649
84.636
84.7032
84.7493
84.7643
84.7642
84.7611
84.7551
84.7435
84.7255
84.7019
84.6736
84.6412
84.606
84.5691
84.5315
84.4933
84.4551
84.4171
84.3795
84.3425
84.3063
84.2709
84.2363
84.2027
84.17
84.1385
84.1084
84.0802
84.0538
84.0293
84.0069
83.9864
83.9679
83.9517
83.9379
83.9267
83.9176
83.9113
83.9086
83.9091
83.912
83.9178
83.9275
83.9409
83.9566
83.9743
83.9951
84.0189
84.0448
84.0724
84.1013
84.1311
84.1614
84.1916
84.2214
84.2504
84.2786
84.3055
84.3309
84.3544
84.3762
84.3967
84.4157
84.4333
84.4495
84.4645
84.4787
84.4922
84.5052
84.5177
84.5298
84.5416
84.5531
84.5644
77.4302
77.3102
77.2095
77.1345
77.0814
77.0473
77.0385
77.0639
77.1217
77.2042
77.3081
77.4362
77.5921
77.776
77.9883
78.2275
78.4895
78.7742
79.0806
79.4049
79.7434
80.0927
80.4489
80.8069
81.1626
81.515
81.8654
82.206
82.5229
82.8267
83.139
83.411
83.63
83.8567
84.1047
84.2895
84.4203
84.5312
84.6285
84.7135
84.7913
84.8689
84.9431
84.9925
85.0096
85.0122
85.0117
85.008
84.9984
84.9815
84.9575
84.9274
84.8928
84.8554
84.816
84.7752
84.7336
84.6916
84.6495
84.6078
84.5667
84.5263
84.4869
84.4486
84.4115
84.376
84.3421
84.3101
84.28
84.2517
84.2253
84.2009
84.1785
84.158
84.1396
84.1234
84.1095
84.0978
84.0886
84.0821
84.0786
84.0782
84.0808
84.0867
84.0962
84.1089
84.1246
84.1432
84.1648
84.1887
84.2147
84.2421
84.2707
84.3
84.3295
84.3588
84.3876
84.4155
84.4421
84.4672
84.4907
84.5125
84.5328
84.5514
84.5684
84.584
84.5985
84.6121
84.625
84.6372
84.6491
84.6605
84.6718
84.6829
84.694
84.7049
78.6068
78.3991
78.1573
77.949
77.7844
77.6318
77.4934
77.3748
77.2701
77.189
77.1393
77.1171
77.1172
77.1398
77.1893
77.268
77.374
77.5045
77.6585
77.8368
78.0396
78.2663
78.5166
78.7887
79.0793
79.3877
79.7114
80.0473
80.3919
80.7408
81.0893
81.4343
81.7759
82.1125
82.4362
82.742
83.0395
83.3325
83.5911
83.8126
84.0358
84.2861
84.4868
84.62
84.7315
84.8316
84.9215
85.0064
85.0925
85.1728
85.224
85.2427
85.2474
85.2481
85.244
85.2326
85.213
85.1859
85.1529
85.1157
85.0753
85.0325
84.9879
84.9423
84.8961
84.8499
84.8041
84.7593
84.7157
84.6736
84.6332
84.5945
84.5577
84.5226
84.4894
84.4579
84.4283
84.4005
84.3746
84.3506
84.3285
84.3084
84.2903
84.2744
84.2606
84.2492
84.2405
84.2347
84.232
84.2326
84.2366
84.244
84.2548
84.2688
84.2858
84.3056
84.3279
84.3524
84.3786
84.4061
84.4345
84.4632
84.4919
84.5202
84.5475
84.5737
84.5985
84.6217
84.6432
84.6631
84.6812
84.6978
84.7131
84.7272
84.7404
84.7529
84.7648
84.7763
84.7875
84.7986
84.8095
84.8204
84.8313
78.428
78.2479
78.0304
77.8393
77.6898
77.5653
77.4536
77.3576
77.2813
77.2272
77.1998
77.2002
77.226
77.2749
77.3472
77.4441
77.5663
77.7129
77.8829
78.0755
78.2901
78.5255
78.7809
79.0546
79.3464
79.6517
79.9698
80.2983
80.6338
80.9724
81.3103
81.6452
81.9762
82.3003
82.6128
82.9133
83.2057
83.4867
83.7413
83.9674
84.1911
84.4444
84.6634
84.8011
84.9149
85.02
85.1171
85.211
85.306
85.3907
85.4422
85.4634
85.4712
85.4731
85.4684
85.4551
85.4331
85.4035
85.3679
85.3275
85.2834
85.2366
85.1878
85.1379
85.0875
85.0373
84.9881
84.9404
84.8944
84.8503
84.8083
84.7681
84.7299
84.6935
84.6588
84.6259
84.5949
84.5657
84.5383
84.5128
84.4891
84.4674
84.4477
84.4301
84.4148
84.4019
84.3917
84.3844
84.3802
84.3793
84.3817
84.3875
84.3966
84.409
84.4244
84.4427
84.4636
84.4867
84.5117
84.5381
84.5655
84.5934
84.6213
84.6488
84.6756
84.7012
84.7255
84.7483
84.7694
84.7888
84.8065
84.8228
84.8377
84.8515
84.8644
84.8766
84.8882
84.8995
84.9106
84.9215
84.9323
84.9432
84.9541
78.3161
78.1581
77.9603
77.7926
77.6651
77.5561
77.4585
77.3842
77.3354
77.3085
77.3035
77.3228
77.3671
77.435
77.5251
77.6372
77.7715
77.928
78.1064
78.306
78.5257
78.7642
79.0203
79.2925
79.5795
79.8792
80.1908
80.5101
80.8356
81.1641
81.4925
81.8189
82.1413
82.457
82.7636
83.0614
83.3509
83.6277
83.8832
84.1152
84.3436
84.6029
84.8355
84.9776
85.0957
85.2074
85.3132
85.4172
85.5212
85.6075
85.6586
85.6828
85.6942
85.6975
85.6923
85.6774
85.6531
85.6207
85.5816
85.5372
85.4888
85.4373
85.3838
85.3293
85.2747
85.2208
85.1683
85.1177
85.0691
85.0228
84.9787
84.9366
84.8965
84.8582
84.8219
84.7874
84.7548
84.724
84.695
84.668
84.6428
84.6197
84.5986
84.5796
84.563
84.5488
84.5373
84.5287
84.5231
84.5207
84.5217
84.526
84.5336
84.5445
84.5585
84.5754
84.5949
84.6168
84.6407
84.6661
84.6925
84.7195
84.7466
84.7734
84.7995
84.8245
84.8483
84.8705
84.8911
84.91
84.9273
84.9432
84.9578
84.9713
84.9839
84.9958
85.0073
85.0184
85.0293
85.0401
85.0509
85.0616
85.0725
78.2689
78.1247
77.9477
77.8053
77.6969
77.5989
77.5138
77.4569
77.4294
77.4244
77.439
77.4746
77.5329
77.6136
77.7156
77.838
77.9804
78.1428
78.3249
78.5264
78.7464
78.9838
79.2372
79.5053
79.7866
80.0796
80.3827
80.6935
81.0108
81.3308
81.6516
81.9714
82.2879
82.5988
82.903
83.2001
83.489
83.7661
84.0253
84.264
84.501
84.7707
85.0081
85.1528
85.2774
85.3978
85.5136
85.6289
85.7407
85.8266
85.8774
85.9052
85.9201
85.925
85.9191
85.9023
85.8753
85.8395
85.7963
85.7474
85.6941
85.6376
85.5793
85.5201
85.4612
85.4034
85.3473
85.2934
85.2419
85.1928
85.146
85.1015
85.0592
85.0188
84.9805
84.9442
84.9098
84.8773
84.8468
84.8182
84.7916
84.767
84.7445
84.7241
84.7061
84.6906
84.6778
84.6678
84.6609
84.6571
84.6566
84.6595
84.6658
84.6753
84.688
84.7037
84.7221
84.743
84.7658
84.7902
84.8158
84.842
84.8683
84.8944
84.9199
84.9443
84.9674
84.989
85.009
85.0275
85.0443
85.0598
85.074
85.0871
85.0994
85.1111
85.1223
85.1331
85.1438
85.1543
85.1648
85.1753
85.1858
85.1963
85.2069
78.2822
78.1491
77.992
77.8714
77.7784
77.6911
77.6176
77.575
77.5627
77.5727
77.6014
77.6493
77.7177
77.8067
77.9157
78.0436
78.1901
78.3547
78.5374
78.7377
78.9551
79.1887
79.4374
79.6999
79.9749
80.2611
80.5568
80.8602
81.1696
81.4827
81.7987
82.1138
82.4266
82.7355
83.0393
83.3373
83.6278
83.9077
84.1717
84.4178
84.667
84.9503
85.1804
85.3271
85.4614
85.5926
85.7197
85.8469
85.964
86.048
86.0996
86.1311
86.1492
86.1551
86.1484
86.1295
86.0994
86.0598
86.0123
85.9587
85.9004
85.839
85.7758
85.712
85.6486
85.5867
85.5268
85.4693
85.4144
85.3621
85.3124
85.2652
85.2203
85.1776
85.1371
85.0987
85.0623
85.028
84.9958
84.9655
84.9373
84.9111
84.887
84.8652
84.8457
84.8287
84.8144
84.803
84.7946
84.7895
84.7877
84.7893
84.7943
84.8027
84.8143
84.829
84.8464
84.8664
84.8884
84.912
84.9368
84.9623
84.988
85.0134
85.0382
85.0619
85.0844
85.1054
85.1248
85.1426
85.1589
85.1738
85.1875
85.2002
85.212
85.2233
85.234
85.2445
85.2547
85.2648
85.2748
85.2847
85.2946
85.3045
85.3143
78.3551
78.2321
78.0903
77.9869
77.9074
77.8303
77.7665
77.7354
77.7341
77.7528
77.7893
77.8448
77.9198
78.0137
78.1257
78.2554
78.4024
78.5663
78.7471
78.9444
79.1577
79.3862
79.6292
79.8856
80.1542
80.4338
80.723
81.0202
81.3236
81.6315
81.9424
82.2554
82.5665
82.8749
83.1798
83.4798
83.7733
84.0571
84.3259
84.5804
84.8459
85.14
85.3504
85.5028
85.6503
85.7936
85.933
86.0714
86.1898
86.2719
86.3251
86.3601
86.3805
86.3869
86.3791
86.358
86.3249
86.2816
86.2301
86.1719
86.109
86.0429
85.975
85.9067
85.839
85.7729
85.7091
85.6478
85.5893
85.5337
85.4808
85.4305
85.3828
85.3375
85.2945
85.2537
85.2152
85.1788
85.1446
85.1124
85.0823
85.0543
85.0284
85.0048
84.9837
84.9651
84.9492
84.9363
84.9266
84.9201
84.9171
84.9175
84.9215
84.9289
84.9396
84.9535
84.9703
84.9896
85.011
85.034
85.0582
85.0831
85.1082
85.133
85.1571
85.1801
85.2018
85.2221
85.2407
85.2578
85.2734
85.2876
85.3007
85.3127
85.324
85.3346
85.3448
85.3546
85.3641
85.3735
85.3828
85.392
85.4011
85.4101
85.4191
78.5966
78.4889
78.3702
78.2391
78.151
78.0845
78.0146
77.9576
77.9356
77.9421
77.9639
78.0027
78.0617
78.1402
78.2361
78.3485
78.4772
78.6221
78.7833
78.9606
79.1535
79.3618
79.5849
79.822
80.0723
80.3348
80.6084
80.8919
81.1837
81.4825
81.7865
82.0941
82.4051
82.7157
83.0247
83.3313
83.634
83.931
84.2189
84.4923
84.7566
85.0415
85.3301
85.5207
85.6859
85.8483
86.0038
86.1557
86.302
86.4182
86.4986
86.554
86.5918
86.6139
86.6203
86.6113
86.5881
86.5523
86.5058
86.4506
86.3886
86.3215
86.2512
86.1791
86.1066
86.0349
85.9649
85.8971
85.8321
85.7699
85.7107
85.6544
85.6009
85.5501
85.5018
85.4561
85.4127
85.3717
85.3329
85.2964
85.2619
85.2297
85.1996
85.1718
85.1463
85.1233
85.103
85.0856
85.0712
85.0601
85.0525
85.0483
85.0479
85.051
85.0577
85.0679
85.0813
85.0976
85.1165
85.1376
85.1602
85.184
85.2084
85.2329
85.2571
85.2804
85.3026
85.3235
85.3428
85.3606
85.3767
85.3914
85.4048
85.417
85.4282
85.4386
85.4484
85.4578
85.4668
85.4756
85.4841
85.4926
85.5009
85.5091
85.5173
85.5254
78.7849
78.6781
78.5566
78.4367
78.3672
78.3102
78.2399
78.1871
78.1755
78.1876
78.2049
78.2404
78.3006
78.3813
78.4776
78.5884
78.7141
78.8555
79.0126
79.1853
79.3734
79.5764
79.7939
80.0254
80.27
80.5269
80.7952
81.0736
81.361
81.656
81.9568
82.2623
82.572
82.8822
83.1921
83.5005
83.8058
84.1062
84.3976
84.6757
84.9524
85.2536
85.5128
85.7016
85.8835
86.0593
86.2258
86.3895
86.5379
86.6498
86.7294
86.787
86.8272
86.8503
86.8564
86.8463
86.8214
86.7834
86.7344
86.6763
86.6111
86.5407
86.4668
86.3911
86.315
86.2397
86.1659
86.0945
86.0258
85.9599
85.8971
85.8372
85.7802
85.7261
85.6746
85.6258
85.5795
85.5357
85.4942
85.4551
85.4182
85.3835
85.3511
85.3212
85.2937
85.2688
85.2468
85.2279
85.2122
85.1999
85.1913
85.1864
85.1853
85.1879
85.1943
85.2043
85.2175
85.2337
85.2525
85.2733
85.2958
85.3192
85.3431
85.367
85.3904
85.4128
85.4341
85.4539
85.4721
85.4887
85.5037
85.5173
85.5296
85.5408
85.551
85.5605
85.5694
85.578
85.5862
85.5942
85.602
85.6098
85.6175
85.6252
85.6329
85.6405
85.6482
85.6558
79.0287
78.9161
78.7916
78.6887
78.6334
78.5763
78.5033
78.4561
78.4582
78.4697
78.4737
78.5013
78.5636
78.6478
78.7436
78.8507
78.972
79.1088
79.2614
79.4294
79.6124
79.8103
80.0225
80.2487
80.4881
80.74
81.0036
81.2777
81.5612
81.8528
82.1509
82.4553
82.7634
83.0734
83.384
83.6937
84.001
84.3039
84.5979
84.8819
85.1733
85.4755
85.701
85.9023
86.0997
86.286
86.4623
86.634
86.7794
86.887
86.9669
87.0268
87.0686
87.0924
87.0983
87.0874
87.0612
87.0218
86.9709
86.9107
86.8431
86.7702
86.6936
86.615
86.5359
86.4573
86.3803
86.3054
86.233
86.1635
86.097
86.0335
85.9729
85.9152
85.8604
85.8083
85.7588
85.7119
85.6675
85.6255
85.5859
85.5487
85.5139
85.4817
85.4522
85.4255
85.402
85.3817
85.3649
85.3517
85.3424
85.3371
85.3357
85.3383
85.3448
85.3548
85.3682
85.3845
85.4034
85.4242
85.4464
85.4695
85.4928
85.516
85.5384
85.5599
85.5799
85.5985
85.6155
85.6308
85.6447
85.6571
85.6684
85.6786
85.688
85.6967
85.7049
85.7128
85.7205
85.7281
85.7355
85.7429
85.7503
85.7577
85.7651
85.7725
85.78
85.7874
79.3183
79.1994
79.0803
78.995
78.938
78.875
78.8105
78.7703
78.7743
78.7858
78.7778
78.7894
78.8531
78.9444
79.0399
79.1415
79.2569
79.3888
79.5367
79.7001
79.8785
80.0716
80.279
80.5005
80.7353
80.9828
81.2421
81.5124
81.7925
82.081
82.3772
82.6799
82.9864
83.296
83.6068
83.9171
84.2251
84.5287
84.8247
85.1179
85.4242
85.6984
85.9172
86.1317
86.3385
86.5309
86.7152
86.8895
87.0292
87.1343
87.2155
87.2774
87.3206
87.3448
87.3506
87.3393
87.3125
87.2722
87.2203
87.1588
87.0897
87.015
86.9365
86.8557
86.774
86.6927
86.6127
86.5345
86.4587
86.3857
86.3154
86.2482
86.1839
86.1225
86.0641
86.0085
85.9557
85.9055
85.858
85.8131
85.7707
85.7309
85.6937
85.6594
85.628
85.5997
85.5748
85.5535
85.5359
85.5222
85.5127
85.5074
85.5062
85.5091
85.516
85.5265
85.5404
85.5571
85.5761
85.597
85.6191
85.6418
85.6645
85.6868
85.7083
85.7285
85.7474
85.7646
85.7802
85.7943
85.8068
85.8181
85.8282
85.8373
85.8456
85.8534
85.8606
85.8676
85.8742
85.8807
85.8871
85.8934
85.8996
85.9058
85.9119
85.9181
85.9244
85.9308
79.6513
79.5302
79.4224
79.344
79.2764
79.2115
79.1651
79.127
79.1178
79.1359
79.127
79.1086
79.1711
79.2778
79.373
79.4658
79.5741
79.7013
79.8453
80.0046
80.1787
80.3676
80.5708
80.7881
81.0188
81.2624
81.5181
81.7848
82.0616
82.3476
82.642
82.9421
83.2472
83.5558
83.8661
84.1761
84.4833
84.7853
85.0848
85.3939
85.6989
85.9418
86.1698
86.3921
86.6018
86.7973
86.9874
87.1592
87.2938
87.3983
87.4813
87.545
87.5892
87.6139
87.6198
87.6086
87.5817
87.5412
87.4889
87.4268
87.3569
87.2811
87.2012
87.1186
87.0349
86.9512
86.8684
86.7871
86.708
86.6314
86.5575
86.4865
86.4185
86.3534
86.2913
86.2321
86.1759
86.1224
86.0717
86.0238
85.9787
85.9365
85.8972
85.8609
85.8279
85.7984
85.7726
85.7506
85.7327
85.7191
85.7098
85.705
85.7045
85.7082
85.7158
85.7271
85.7416
85.7588
85.7781
85.7989
85.8205
85.8425
85.8642
85.8851
85.9049
85.9233
85.9402
85.9553
85.9688
85.9808
85.9912
86.0004
86.0085
86.0158
86.0225
86.0287
86.0346
86.0403
86.046
86.0517
86.0575
86.0635
86.0698
86.0764
86.0834
86.0909
86.0991
86.108
86.1179
79.9105
79.8108
79.7299
79.6546
79.5953
79.5567
79.5175
79.5005
79.5208
79.5173
79.4732
79.5272
79.6498
79.7421
79.8251
79.9283
80.0523
80.1929
80.3486
80.519
80.7043
80.9039
81.1176
81.3448
81.5849
81.8372
82.1007
82.3747
82.6585
82.9497
83.2477
83.551
83.8581
84.1671
84.4754
84.7798
85.0808
85.3892
85.7107
85.9899
86.2281
86.4597
86.6839
86.8942
87.0921
87.2841
87.4509
87.5819
87.6869
87.7717
87.8368
87.8817
87.9069
87.9134
87.9025
87.8761
87.8358
87.7836
87.7215
87.6512
87.5748
87.4938
87.4099
87.3243
87.2384
87.1529
87.0688
86.9864
86.9063
86.8288
86.7541
86.6824
86.6136
86.5479
86.4852
86.4256
86.3689
86.3152
86.2646
86.2169
86.1724
86.1312
86.0934
86.0592
86.0288
86.0024
85.9802
85.9624
85.9491
85.9403
85.936
85.9362
85.9405
85.9488
85.9604
85.9751
85.9922
86.011
86.0311
86.0517
86.0723
86.0924
86.1115
86.1293
86.1455
86.1602
86.1732
86.1848
86.195
86.2042
86.2125
86.2203
86.2277
86.235
86.2426
86.2507
86.2596
86.269
86.2791
86.2898
86.3013
86.3136
86.3266
86.3402
86.3542
86.3684
86.3824
86.3958
80.3377
80.2402
80.1546
80.0786
80.0237
79.9829
79.9428
79.9278
79.9475
79.9413
79.8798
79.9361
80.0625
80.1461
80.2228
80.3242
80.4464
80.5842
80.7367
80.9041
81.0863
81.2829
81.4935
81.7176
81.9546
82.2037
82.4646
82.7362
83.0166
83.3052
83.6007
83.9018
84.207
84.514
84.8189
85.12
85.4246
85.7448
86.055
86.3146
86.5558
86.7905
87.0143
87.2236
87.422
87.6121
87.7735
87.9024
88.0083
88.0944
88.1605
88.2061
88.2319
88.239
88.2289
88.2031
88.1634
88.1117
88.0497
87.9794
87.9025
87.8206
87.7354
87.6482
87.5601
87.4721
87.3849
87.2994
87.2159
87.1348
87.0565
86.981
86.9086
86.8393
86.7732
86.7102
86.6503
86.5936
86.5402
86.49
86.4433
86.4001
86.3607
86.3253
86.2941
86.2673
86.2452
86.2278
86.2153
86.2076
86.2046
86.206
86.2114
86.2206
86.2331
86.2482
86.2655
86.2844
86.3043
86.3247
86.3451
86.3653
86.3851
86.404
86.4215
86.4376
86.4523
86.4659
86.4786
86.4906
86.5023
86.5136
86.5248
86.5358
86.5466
86.5566
86.5656
86.5742
86.5829
86.5917
86.6004
86.6089
86.6171
86.6247
86.6315
86.6373
86.6417
86.6445
80.709
80.6212
80.5474
80.4921
80.4461
80.4085
80.3995
80.4148
80.3947
80.331
80.403
80.5156
80.5887
80.6644
80.766
80.8865
81.0217
81.1718
81.3369
81.5166
81.7107
81.9187
82.1401
82.3743
82.6211
82.8795
83.1478
83.4255
83.7113
84.0041
84.3029
84.6058
84.9094
85.21
85.5112
85.8239
86.1435
86.4297
86.6853
86.9301
87.1656
87.3881
87.596
87.7928
87.9787
88.1359
88.2638
88.3704
88.4573
88.5239
88.5701
88.5965
88.6044
88.595
88.57
88.5309
88.4795
88.4177
88.3472
88.2697
88.1869
88.1002
88.011
87.9204
87.8296
87.7393
87.6503
87.5631
87.4782
87.396
87.3167
87.2405
87.1676
87.0981
87.032
86.9694
86.9103
86.8548
86.803
86.755
86.711
86.6712
86.6359
86.6053
86.5797
86.5592
86.544
86.5344
86.5304
86.5318
86.5375
86.5473
86.5606
86.5768
86.5953
86.6155
86.6367
86.6584
86.6801
86.7012
86.7212
86.7394
86.756
86.7717
86.7862
86.7992
86.8106
86.8204
86.8289
86.8363
86.8426
86.848
86.8524
86.8559
86.8587
86.8608
86.8617
86.8616
86.8608
86.8596
86.8578
86.8556
86.8532
86.8511
86.8499
86.8507
86.8544
81.1296
81.0569
80.9985
80.9495
80.9171
80.912
80.9165
80.8796
80.8378
80.918
81.0085
81.0745
81.153
81.2548
81.3735
81.5069
81.6553
81.8186
81.9964
82.1885
82.3943
82.6135
82.8457
83.0904
83.3459
83.6116
83.8865
84.1696
84.46
84.7564
85.0563
85.3555
85.654
85.9595
86.2751
86.5782
86.8516
87.1079
87.354
87.5888
87.8097
88.016
88.2096
88.3904
88.5449
88.6725
88.7794
88.8664
88.9332
88.9796
89.0065
89.0147
89.0057
88.9809
88.9419
88.8904
88.8282
88.7569
88.6784
88.5942
88.5058
88.4146
88.3218
88.2285
88.1354
88.0435
87.9533
87.8654
87.7802
87.6981
87.6193
87.5441
87.4725
87.405
87.3416
87.2828
87.2284
87.1782
87.1323
87.0909
87.0542
87.0224
86.9954
86.9735
86.9565
86.9444
86.9368
86.9331
86.9336
86.9388
86.9483
86.9614
86.9774
86.9955
87.0149
87.0345
87.0535
87.0714
87.088
87.1031
87.1168
87.129
87.1392
87.1471
87.1527
87.1557
87.1565
87.156
87.1544
87.1517
87.1484
87.1448
87.1413
87.1384
87.137
87.1379
87.1395
87.1413
87.1434
87.1462
87.1497
87.1542
87.1597
87.1662
87.1731
87.1796
87.1864
87.1937
81.6761
81.603
81.5421
81.4935
81.4658
81.4582
81.4471
81.405
81.3979
81.4706
81.541
81.6053
81.6869
81.7885
81.9058
82.038
82.1854
82.3475
82.5239
82.7144
82.9187
83.1364
83.3675
83.6097
83.8629
84.1263
84.3989
84.6797
84.9679
85.2617
85.5578
85.854
86.154
86.4622
86.7694
87.0579
87.3269
87.5835
87.829
88.062
88.2812
88.4857
88.6757
88.8508