/*--------------------------------*- C++ -*----------------------------------*\
| =========                 |                                                 |
| \\      /  F ield         | OpenFOAM: The Open Source CFD Toolbox           |
|  \\    /   O peration     | Version:  v1706                                 |
|   \\  /    A nd           | Web:      www.OpenFOAM.com                      |
|    \\/     M anipulation  |                                                 |
\*---------------------------------------------------------------------------*/
FoamFile
{
    version     2.0;
    format      ascii;
    class       volScalarField;
    location    "1.2e-05";
    object      Tov;
}
// * * * * * * * * * * * * * * * * * * * * * * * * * * * * * * * * * * * * * //

dimensions      [0 0 0 1 0 0 0];


internalField   nonuniform List<scalar> 
29871
(
144.499
144.495
144.491
144.488
144.485
144.481
144.478
144.475
144.472
144.469
144.466
144.463
144.461
144.459
144.456
144.454
144.453
144.451
144.449
144.448
144.447
144.446
144.445
144.444
144.443
144.443
144.442
144.442
144.442
144.441
144.441
144.441
144.442
144.442
144.442
144.442
144.442
144.443
144.443
144.444
144.444
144.444
144.445
144.445
144.446
144.446
144.447
144.447
144.448
144.449
144.449
144.45
144.45
144.451
144.451
144.452
144.452
144.453
144.454
144.454
144.455
144.456
144.456
144.457
144.457
144.458
144.459
144.459
144.46
144.461
144.461
144.462
144.463
144.463
144.464
144.464
144.465
144.466
144.466
144.467
144.467
144.468
144.468
144.469
144.469
144.47
144.471
144.471
144.472
144.472
144.473
144.473
144.474
144.474
144.475
144.476
144.476
144.477
144.477
144.478
144.478
144.479
144.48
144.48
144.481
144.972
144.952
144.932
144.912
144.893
144.874
144.856
144.838
144.821
144.804
144.788
144.773
144.759
144.745
144.733
144.721
144.71
144.7
144.691
144.683
144.676
144.67
144.664
144.659
144.656
144.652
144.65
144.648
144.647
144.646
144.646
144.647
144.647
144.649
144.65
144.652
144.654
144.656
144.659
144.662
144.665
144.668
144.671
144.674
144.677
144.68
144.684
144.687
144.691
144.694
144.698
144.702
144.705
144.709
144.713
144.717
144.721
144.725
144.729
144.733
144.738
144.742
144.746
144.75
144.755
144.759
144.764
144.768
144.772
144.777
144.781
144.785
144.79
144.794
144.798
144.802
144.807
144.811
144.815
144.819
144.823
144.827
144.831
144.835
144.839
144.843
144.847
144.85
144.854
144.858
144.863
144.867
144.871
144.875
144.879
144.883
144.888
144.892
144.896
144.901
144.905
144.91
144.914
144.919
144.924
146.172
146.113
146.054
145.996
145.938
145.881
145.826
145.772
145.72
145.669
145.621
145.574
145.53
145.488
145.449
145.412
145.378
145.347
145.318
145.292
145.268
145.247
145.229
145.213
145.199
145.188
145.18
145.173
145.169
145.166
145.166
145.166
145.168
145.171
145.176
145.181
145.188
145.196
145.204
145.213
145.222
145.232
145.242
145.253
145.264
145.275
145.286
145.298
145.31
145.322
145.334
145.346
145.359
145.372
145.385
145.398
145.412
145.425
145.439
145.453
145.468
145.482
145.497
145.512
145.527
145.542
145.558
145.573
145.589
145.605
145.62
145.636
145.652
145.668
145.683
145.699
145.714
145.73
145.745
145.761
145.776
145.791
145.806
145.822
145.837
145.852
145.867
145.883
145.898
145.914
145.929
145.945
145.961
145.977
145.993
146.01
146.026
146.043
146.06
146.077
146.094
146.111
146.129
146.147
146.165
146.183
148.85
148.706
148.563
148.42
148.279
148.141
148.005
147.873
147.744
147.62
147.501
147.387
147.279
147.177
147.081
146.991
146.908
146.832
146.762
146.699
146.643
146.594
146.551
146.514
146.484
146.46
146.441
146.428
146.42
146.418
146.419
146.424
146.432
146.444
146.459
146.477
146.498
146.521
146.545
146.571
146.599
146.628
146.658
146.688
146.72
146.752
146.785
146.819
146.853
146.887
146.923
146.959
146.995
147.032
147.07
147.108
147.148
147.188
147.228
147.27
147.312
147.355
147.398
147.442
147.487
147.532
147.578
147.625
147.671
147.718
147.766
147.813
147.861
147.909
147.956
148.004
148.052
148.099
148.147
148.194
148.242
148.289
148.337
148.384
148.431
148.479
148.527
148.575
148.624
148.672
148.722
148.771
148.822
148.872
148.923
148.975
149.028
149.081
149.134
149.189
149.244
149.299
149.356
149.413
149.47
149.529
154.757
154.447
154.136
153.827
153.519
153.216
152.917
152.625
152.34
152.064
151.797
151.541
151.296
151.063
150.843
150.636
150.444
150.265
150.102
149.953
149.82
149.702
149.599
149.511
149.438
149.379
149.335
149.303
149.284
149.278
149.282
149.293
149.315
149.345
149.383
149.428
149.479
149.536
149.598
149.665
149.734
149.807
149.883
149.961
150.041
150.123
150.207
150.292
150.379
150.467
150.557
150.648
150.741
150.835
150.931
151.029
151.128
151.229
151.333
151.438
151.545
151.655
151.766
151.879
151.994
152.111
152.23
152.35
152.472
152.596
152.72
152.846
152.972
153.1
153.228
153.356
153.485
153.615
153.744
153.874
154.004
154.135
154.266
154.397
154.529
154.661
154.794
154.928
155.063
155.199
155.337
155.475
155.615
155.757
155.9
156.045
156.191
156.339
156.489
156.641
156.794
156.95
157.106
157.265
157.425
157.587
157.75
165.564
164.987
164.407
163.827
163.248
162.675
162.109
161.553
161.009
160.481
159.97
159.479
159.01
158.566
158.146
157.754
157.39
157.054
156.749
156.474
156.23
156.017
155.835
155.683
155.561
155.468
155.404
155.367
155.36
155.371
155.4
155.453
155.524
155.613
155.718
155.837
155.968
156.11
156.261
156.421
156.587
156.759
156.937
157.118
157.304
157.493
157.685
157.881
158.08
158.281
158.487
158.695
158.907
159.123
159.343
159.567
159.795
160.028
160.265
160.507
160.753
161.004
161.259
161.518
161.782
162.05
162.321
162.596
162.875
163.156
163.441
163.727
164.016
164.307
164.599
164.891
165.185
165.48
165.775
166.07
166.365
166.661
166.957
167.254
167.551
167.849
168.148
168.448
168.75
169.054
169.36
169.668
169.98
170.294
170.611
170.932
171.255
171.583
171.913
172.248
172.585
172.927
173.271
173.619
173.969
174.323
174.679
184.636
183.821
182.99
182.147
181.294
180.434
179.571
178.709
177.851
177
176.161
175.338
174.533
173.751
172.995
172.269
171.576
170.921
170.307
169.736
169.213
168.739
168.317
167.948
167.634
167.374
167.169
167.017
166.916
166.869
166.875
166.91
166.987
167.106
167.26
167.445
167.66
167.899
168.161
168.442
168.739
169.051
169.374
169.707
170.048
170.396
170.75
171.11
171.473
171.841
172.214
172.59
172.97
173.355
173.745
174.14
174.54
174.946
175.359
175.778
176.204
176.637
177.077
177.524
177.978
178.439
178.906
179.378
179.856
180.338
180.824
181.315
181.808
182.305
182.803
183.304
183.805
184.307
184.809
185.311
185.813
186.313
186.813
187.311
187.808
188.304
188.799
189.293
189.787
190.28
190.774
191.269
191.765
192.263
192.763
193.266
193.772
194.281
194.794
195.31
195.831
196.355
196.884
197.416
197.952
198.491
199.034
199.581
200.129
200.677
204.08
203.21
202.315
201.399
200.465
199.518
198.56
197.595
196.628
195.663
194.707
193.766
192.846
191.952
191.09
190.266
189.483
188.748
188.065
187.436
186.865
186.355
185.911
185.538
185.236
185.006
184.848
184.766
184.763
184.809
184.914
185.081
185.308
185.585
185.906
186.266
186.66
187.082
187.528
187.993
188.474
188.966
189.467
189.972
190.481
190.99
191.498
192.006
192.512
193.016
193.52
194.023
194.527
195.032
195.539
196.05
196.565
197.085
197.609
198.14
198.676
199.218
199.767
200.323
200.885
201.453
202.026
202.599
203.174
203.748
204.321
204.893
205.462
206.028
206.589
207.145
207.695
208.238
208.772
209.298
209.814
210.319
210.814
211.296
211.767
212.224
212.67
213.103
213.523
213.931
214.326
214.71
215.083
215.444
215.795
216.136
216.467
216.788
217.1
217.403
217.697
217.982
218.259
218.527
218.787
219.039
219.282
219.518
219.745
219.966
215.764
215.208
214.655
214.102
213.543
212.976
212.406
211.834
211.261
210.686
210.11
209.535
208.963
208.397
207.843
207.309
206.8
206.321
205.882
205.494
205.163
204.895
204.692
204.557
204.504
204.52
204.596
204.738
204.921
205.185
205.492
205.84
206.232
206.661
207.116
207.587
208.068
208.553
209.038
209.521
209.996
210.463
210.918
211.36
211.791
212.209
212.615
213.01
213.394
213.767
214.13
214.485
214.831
215.168
215.498
215.819
216.134
216.441
216.742
217.036
217.324
217.606
217.882
218.152
218.416
218.673
218.926
219.174
219.417
219.655
219.89
220.12
220.345
220.565
220.781
220.992
221.198
221.4
221.596
221.787
221.973
222.154
222.33
222.501
222.666
222.827
222.981
223.131
223.274
223.413
223.546
223.674
223.796
223.914
224.026
224.135
224.239
224.339
224.436
224.53
224.621
224.71
224.796
224.88
224.962
225.042
225.121
225.198
225.273
225.347
220.206
219.782
219.374
218.98
218.607
218.248
217.901
217.573
217.272
216.998
216.755
216.543
216.363
216.218
216.107
216.029
215.986
215.98
215.998
216.046
216.13
216.25
216.408
216.603
216.831
217.063
217.375
217.711
218.028
218.369
218.733
219.099
219.459
219.813
220.159
220.493
220.813
221.117
221.4
221.662
221.905
222.133
222.345
222.54
222.719
222.882
223.03
223.163
223.283
223.391
223.489
223.577
223.656
223.729
223.797
223.859
223.918
223.974
224.027
224.079
224.131
224.181
224.232
224.283
224.335
224.388
224.441
224.496
224.553
224.611
224.672
224.734
224.799
224.866
224.936
225.008
225.082
225.158
225.236
225.315
225.395
225.476
225.558
225.639
225.72
225.8
225.878
225.954
226.028
226.1
226.168
226.234
226.297
226.356
226.413
226.466
226.517
226.565
226.611
226.655
226.696
226.736
226.774
226.81
226.845
226.879
226.912
226.943
226.974
227.003
221.71
221.363
221.061
220.793
220.515
220.239
220.005
219.81
219.634
219.479
219.35
219.25
219.183
219.162
219.175
219.225
219.321
219.453
219.605
219.82
220.077
220.367
220.686
221.022
221.363
221.719
222.102
222.476
222.828
223.192
223.547
223.88
224.192
224.478
224.737
224.977
225.194
225.386
225.556
225.705
225.835
225.942
226.027
226.096
226.151
226.195
226.228
226.251
226.267
226.276
226.279
226.279
226.276
226.272
226.266
226.258
226.25
226.242
226.235
226.229
226.224
226.221
226.22
226.222
226.225
226.231
226.24
226.251
226.265
226.281
226.3
226.322
226.347
226.373
226.402
226.433
226.467
226.503
226.54
226.58
226.621
226.664
226.709
226.754
226.801
226.848
226.895
226.942
226.988
227.033
227.078
227.121
227.162
227.202
227.24
227.276
227.311
227.344
227.376
227.407
227.438
227.467
227.496
227.524
227.552
227.58
227.609
227.637
227.665
227.694
222.968
222.601
222.264
221.96
221.688
221.418
221.147
220.926
220.744
220.604
220.502
220.432
220.411
220.424
220.471
220.559
220.682
220.839
221.023
221.217
221.442
221.707
222.004
222.304
222.622
222.964
223.326
223.669
223.993
224.337
224.667
224.973
225.278
225.555
225.788
226.012
226.228
226.416
226.579
226.73
226.862
226.97
227.065
227.146
227.213
227.267
227.309
227.341
227.363
227.374
227.374
227.369
227.357
227.34
227.317
227.291
227.264
227.236
227.207
227.178
227.15
227.124
227.099
227.077
227.058
227.042
227.029
227.019
227.013
227.011
227.012
227.016
227.025
227.037
227.054
227.073
227.096
227.125
227.157
227.19
227.227
227.266
227.308
227.352
227.397
227.444
227.491
227.54
227.588
227.637
227.685
227.732
227.779
227.824
227.868
227.911
227.952
227.992
228.031
228.069
228.106
228.142
228.178
228.213
228.248
228.283
228.319
228.354
228.39
228.426
228.463
223.699
223.347
223.035
222.743
222.481
222.23
221.99
221.784
221.615
221.482
221.383
221.317
221.302
221.314
221.356
221.433
221.547
221.697
221.876
222.082
222.316
222.577
222.858
223.152
223.459
223.779
224.104
224.414
224.722
225.041
225.315
225.586
225.863
226.107
226.325
226.533
226.732
226.916
227.084
227.238
227.378
227.499
227.595
227.678
227.751
227.811
227.859
227.896
227.921
227.937
227.943
227.943
227.937
227.926
227.911
227.893
227.873
227.851
227.828
227.805
227.782
227.761
227.741
227.724
227.709
227.697
227.688
227.684
227.683
227.685
227.69
227.699
227.713
227.73
227.752
227.775
227.803
227.837
227.873
227.911
227.952
227.997
228.044
228.093
228.143
228.195
228.248
228.301
228.354
228.408
228.462
228.516
228.57
228.623
228.675
228.727
228.778
228.827
228.876
228.924
228.971
229.018
229.064
229.11
229.156
229.202
229.248
229.295
229.342
229.389
229.438
229.486
229.536
224.434
224.11
223.816
223.535
223.285
223.06
222.85
222.666
222.515
222.398
222.315
222.259
222.241
222.249
222.28
222.343
222.44
222.569
222.724
222.902
223.103
223.324
223.56
223.809
224.071
224.344
224.621
224.891
225.17
225.448
225.694
225.944
226.199
226.425
226.634
226.836
227.032
227.22
227.399
227.568
227.726
227.864
227.98
228.085
228.183
228.271
228.346
228.408
228.459
228.499
228.529
228.551
228.566
228.575
228.577
228.576
228.571
228.563
228.553
228.542
228.53
228.519
228.509
228.501
228.495
228.491
228.491
228.493
228.499
228.509
228.522
228.54
228.561
228.587
228.616
228.647
228.683
228.722
228.765
228.81
228.858
228.909
228.964
229.02
229.077
229.137
229.199
229.262
229.326
229.392
229.458
229.525
229.593
229.66
229.728
229.795
229.862
229.929
229.995
230.06
230.126
230.191
230.256
230.321
230.387
230.452
230.519
230.586
230.654
230.723
230.792
230.863
230.935
225.989
225.653
225.334
225.03
224.747
224.485
224.249
224.038
223.848
223.68
223.54
223.432
223.353
223.302
223.287
223.295
223.324
223.378
223.458
223.561
223.687
223.833
223.996
224.176
224.37
224.575
224.792
225.019
225.25
225.482
225.725
225.965
226.182
226.407
226.641
226.851
227.048
227.245
227.442
227.637
227.828
228.014
228.192
228.35
228.489
228.622
228.749
228.867
228.974
229.069
229.151
229.22
229.278
229.326
229.365
229.396
229.419
229.437
229.449
229.458
229.463
229.465
229.467
229.469
229.471
229.474
229.48
229.489
229.501
229.517
229.536
229.56
229.587
229.619
229.655
229.695
229.738
229.784
229.834
229.888
229.945
230.005
230.068
230.134
230.204
230.276
230.35
230.427
230.507
230.589
230.673
230.759
230.847
230.936
231.026
231.116
231.208
231.3
231.392
231.485
231.578
231.67
231.763
231.856
231.95
232.044
232.138
232.234
232.33
232.428
232.528
232.628
232.73
232.834
232.94
227.118
226.788
226.477
226.189
225.921
225.673
225.449
225.248
225.068
224.91
224.776
224.669
224.588
224.533
224.507
224.509
224.526
224.565
224.626
224.708
224.808
224.925
225.056
225.198
225.352
225.518
225.693
225.876
226.064
226.258
226.463
226.664
226.857
227.061
227.279
227.478
227.668
227.861
228.059
228.261
228.465
228.669
228.868
229.047
229.211
229.371
229.528
229.677
229.816
229.943
230.057
230.16
230.251
230.331
230.401
230.462
230.513
230.557
230.594
230.626
230.654
230.678
230.701
230.723
230.745
230.769
230.795
230.824
230.857
230.893
230.934
230.979
231.029
231.083
231.141
231.203
231.269
231.338
231.411
231.488
231.568
231.652
231.739
231.83
231.924
232.021
232.121
232.225
232.332
232.442
232.555
232.671
232.789
232.909
233.031
233.154
233.279
233.405
233.532
233.66
233.789
233.919
234.049
234.18
234.312
234.445
234.58
234.716
234.853
234.992
235.134
235.277
235.423
235.571
235.721
235.874
231.136
230.739
230.331
229.944
229.576
229.218
228.871
228.537
228.218
227.921
227.647
227.391
227.155
226.939
226.745
226.571
226.417
226.284
226.174
226.087
226.023
225.981
225.964
225.967
225.984
226.02
226.073
226.142
226.226
226.321
226.426
226.542
226.667
226.803
226.946
227.097
227.257
227.426
227.597
227.771
227.956
228.158
228.353
228.537
228.729
228.933
229.147
229.368
229.593
229.814
230.019
230.213
230.408
230.601
230.789
230.967
231.135
231.292
231.436
231.569
231.69
231.8
231.899
231.987
232.066
232.136
232.2
232.259
232.313
232.365
232.416
232.467
232.519
232.574
232.632
232.693
232.758
232.828
232.903
232.982
233.066
233.155
233.247
233.344
233.445
233.55
233.659
233.771
233.888
234.008
234.132
234.26
234.392
234.528
234.668
234.812
234.959
235.11
235.265
235.422
235.583
235.746
235.912
236.08
236.25
236.422
236.595
236.77
236.946
237.123
237.303
237.483
237.666
237.85
238.036
238.225
238.416
238.61
238.807
239.006
239.209
239.415
239.624
232.741
232.368
231.981
231.616
231.269
230.931
230.6
230.285
229.986
229.706
229.444
229.201
228.976
228.768
228.578
228.407
228.254
228.119
228.004
227.908
227.831
227.773
227.735
227.714
227.712
227.72
227.743
227.781
227.83
227.891
227.962
228.042
228.133
228.233
228.342
228.462
228.592
228.733
228.881
229.038
229.21
229.401
229.595
229.777
229.972
230.186
230.415
230.656
230.907
231.154
231.389
231.621
231.857
232.094
232.328
232.554
232.771
232.977
233.172
233.355
233.525
233.682
233.827
233.96
234.082
234.194
234.298
234.396
234.488
234.578
234.666
234.753
234.842
234.933
235.027
235.125
235.227
235.334
235.447
235.564
235.686
235.813
235.945
236.081
236.222
236.367
236.516
236.669
236.827
236.989
237.155
237.326
237.502
237.682
237.867
238.056
238.25
238.448
238.65
238.857
239.067
239.28
239.497
239.717
239.939
240.164
240.391
240.62
240.851
241.085
241.32
241.558
241.798
242.041
242.286
242.534
242.786
243.04
243.299
243.56
243.826
244.095
244.368
234.696
234.35
233.988
233.651
233.327
233.008
232.698
232.406
232.13
231.868
231.622
231.392
231.178
230.978
230.794
230.625
230.472
230.334
230.212
230.107
230.017
229.944
229.886
229.843
229.815
229.799
229.798
229.806
229.825
229.855
229.895
229.945
230.005
230.076
230.158
230.252
230.359
230.478
230.61
230.756
230.919
231.105
231.3
231.487
231.692
231.921
232.172
232.44
232.721
232.998
233.27
233.547
233.832
234.12
234.406
234.688
234.961
235.224
235.477
235.716
235.942
236.154
236.352
236.536
236.708
236.869
237.02
237.163
237.301
237.435
237.567
237.699
237.832
237.966
238.104
238.246
238.393
238.544
238.701
238.864
239.031
239.204
239.382
239.565
239.753
239.945
240.142
240.344
240.55
240.761
240.977
241.198
241.425
241.656
241.893
242.134
242.381
242.633
242.89
243.151
243.417
243.687
243.961
244.238
244.519
244.802
245.089
245.378
245.67
245.964
246.261
246.561
246.863
247.169
247.477
247.789
248.105
248.424
248.747
249.074
249.405
249.74
250.08
237.037
236.719
236.39
236.083
235.786
235.49
235.206
234.94
234.687
234.446
234.218
234.003
233.802
233.613
233.436
233.271
233.118
232.978
232.851
232.738
232.637
232.55
232.475
232.413
232.364
232.326
232.301
232.284
232.281
232.286
232.3
232.325
232.361
232.409
232.47
232.545
232.635
232.74
232.863
233.004
233.165
233.353
233.554
233.753
233.976
234.229
234.509
234.811
235.127
235.442
235.76
236.089
236.429
236.774
237.12
237.462
237.798
238.124
238.438
238.739
239.026
239.297
239.553
239.793
240.02
240.234
240.437
240.632
240.821
241.005
241.187
241.368
241.549
241.733
241.921
242.112
242.309
242.51
242.718
242.93
243.149
243.373
243.602
243.837
244.076
244.32
244.57
244.824
245.083
245.348
245.618
245.893
246.173
246.46
246.751
247.049
247.352
247.661
247.975
248.294
248.618
248.946
249.279
249.616
249.956
250.3
250.647
250.996
251.349
251.704
252.062
252.423
252.787
253.154
253.524
253.898
254.275
254.656
255.041
255.43
255.823
256.219
256.62
257.025
257.434
239.792
239.508
239.216
238.943
238.676
238.41
238.155
237.917
237.69
237.472
237.264
237.066
236.88
236.704
236.537
236.379
236.23
236.091
235.962
235.843
235.735
235.637
235.55
235.473
235.407
235.352
235.307
235.272
235.248
235.234
235.232
235.239
235.257
235.288
235.335
235.398
235.479
235.579
235.7
235.844
236.011
236.209
236.422
236.641
236.893
237.18
237.497
237.841
238.197
238.557
238.929
239.317
239.718
240.126
240.535
240.942
241.343
241.734
242.113
242.478
242.827
243.159
243.473
243.772
244.055
244.324
244.582
244.83
245.071
245.308
245.542
245.774
246.008
246.244
246.483
246.727
246.976
247.23
247.49
247.755
248.026
248.302
248.584
248.871
249.164
249.461
249.763
250.07
250.382
250.7
251.023
251.352
251.686
252.026
252.372
252.724
253.082
253.445
253.814
254.189
254.568
254.951
255.34
255.732
256.127
256.526
256.928
257.333
257.74
258.15
258.563
258.978
259.395
259.816
260.239
260.666
261.095
261.528
261.964
262.404
262.847
263.293
263.743
264.196
264.653
242.98
242.735
242.484
242.248
242.017
241.784
241.561
241.354
241.156
240.962
240.776
240.599
240.431
240.271
240.116
239.968
239.826
239.691
239.564
239.444
239.332
239.229
239.134
239.048
238.971
238.904
238.845
238.797
238.759
238.732
238.717
238.716
238.723
238.745
238.785
238.845
238.925
239.028
239.156
239.31
239.492
239.711
239.942
240.193
240.483
240.812
241.176
241.567
241.969
242.382
242.814
243.265
243.73
244.202
244.677
245.149
245.614
246.069
246.511
246.937
247.345
247.735
248.106
248.459
248.796
249.118
249.428
249.728
250.021
250.308
250.593
250.876
251.161
251.447
251.737
252.032
252.331
252.635
252.945
253.26
253.581
253.907
254.238
254.575
254.915
255.261
255.612
255.967
256.328
256.693
257.064
257.441
257.823
258.211
258.604
259.004
259.409
259.819
260.235
260.656
261.082
261.512
261.946
262.383
262.824
263.267
263.713
264.161
264.611
265.063
265.516
265.972
266.429
266.888
267.35
267.813
268.279
268.747
269.218
269.691
270.166
270.643
271.123
271.605
272.089
246.802
246.606
246.402
246.193
245.998
245.807
245.612
245.421
245.248
245.08
244.912
244.751
244.598
244.452
244.309
244.17
244.035
243.903
243.776
243.654
243.537
243.426
243.322
243.224
243.134
243.051
242.977
242.911
242.855
242.81
242.776
242.755
242.751
242.757
242.778
242.819
242.883
242.972
243.087
243.231
243.405
243.611
243.859
244.116
244.41
244.748
245.127
245.542
245.982
246.435
246.907
247.402
247.916
248.444
248.979
249.516
250.049
250.573
251.086
251.584
252.063
252.524
252.964
253.384
253.785
254.169
254.538
254.894
255.239
255.577
255.91
256.239
256.568
256.897
257.229
257.563
257.902
258.245
258.593
258.946
259.304
259.667
260.035
260.407
260.783
261.164
261.55
261.939
262.333
262.732
263.135
263.544
263.957
264.376
264.8
265.23
265.664
266.105
266.55
266.999
267.454
267.912
268.374
268.839
269.306
269.776
270.247
270.72
271.194
271.669
272.145
272.621
273.098
273.576
274.054
274.534
275.014
275.495
275.977
276.46
276.944
277.429
277.914
278.4
278.887
279.374
250.803
250.651
250.489
250.326
250.175
250.026
249.868
249.709
249.572
249.435
249.293
249.159
249.033
248.91
248.788
248.666
248.545
248.426
248.309
248.196
248.085
247.979
247.878
247.781
247.691
247.608
247.532
247.465
247.408
247.362
247.328
247.308
247.307
247.317
247.346
247.398
247.476
247.582
247.718
247.887
248.088
248.33
248.607
248.907
249.252
249.642
250.074
250.544
251.033
251.54
252.072
252.627
253.201
253.786
254.377
254.967
255.551
256.125
256.684
257.226
257.748
258.248
258.727
259.185
259.623
260.043
260.447
260.838
261.219
261.592
261.96
262.325
262.689
263.053
263.419
263.788
264.161
264.537
264.917
265.302
265.691
266.084
266.48
266.881
267.285
267.692
268.104
268.519
268.937
269.36
269.787
270.218
270.654
271.094
271.539
271.989
272.443
272.902
273.365
273.832
274.302
274.775
275.25
275.727
276.206
276.685
277.165
277.645
278.124
278.603
279.081
279.558
280.035
280.51
280.985
281.46
281.933
282.406
282.878
283.349
283.82
284.289
284.758
285.226
285.692
286.157
286.62
287.082
255.185
255.075
254.957
254.84
254.733
254.622
254.502
254.378
254.276
254.168
254.051
253.944
253.847
253.75
253.648
253.543
253.437
253.332
253.227
253.124
253.022
252.923
252.827
252.736
252.65
252.57
252.498
252.434
252.381
252.34
252.312
252.302
252.308
252.33
252.375
252.446
252.546
252.677
252.843
253.043
253.281
253.567
253.877
254.229
254.629
255.072
255.558
256.078
256.616
257.176
257.763
258.371
258.996
259.628
260.262
260.893
261.514
262.122
262.713
263.283
263.832
264.357
264.859
265.34
265.799
266.241
266.667
267.08
267.483
267.878
268.268
268.655
269.04
269.426
269.813
270.202
270.594
270.989
271.387
271.788
272.192
272.6
273.01
273.422
273.838
274.256
274.677
275.101
275.527
275.957
276.39
276.827
277.268
277.712
278.16
278.612
279.067
279.526
279.987
280.452
280.918
281.385
281.854
282.323
282.791
283.259
283.725
284.19
284.653
285.113
285.571
286.027
286.48
286.931
287.379
287.824
288.268
288.708
289.147
289.583
290.016
290.446
290.874
291.299
291.72
292.138
292.553
292.965
259.885
259.816
259.741
259.669
259.601
259.526
259.445
259.353
259.28
259.202
259.111
259.025
258.958
258.887
258.803
258.713
258.621
258.529
258.437
258.344
258.252
258.162
258.074
257.99
257.91
257.837
257.772
257.716
257.672
257.641
257.626
257.629
257.648
257.69
257.758
257.855
257.984
258.148
258.35
258.588
258.87
259.197
259.553
259.959
260.41
260.905
261.441
262.005
262.587
263.193
263.825
264.475
265.136
265.8
266.462
267.116
267.757
268.381
268.985
269.566
270.123
270.655
271.164
271.65
272.115
272.562
272.994
273.413
273.822
274.224
274.62
275.013
275.404
275.795
276.187
276.58
276.974
277.371
277.77
278.17
278.573
278.977
279.383
279.791
280.2
280.611
281.024
281.439
281.855
282.274
282.696
283.12
283.547
283.976
284.408
284.843
285.281
285.72
286.161
286.602
287.045
287.487
287.928
288.368
288.805
289.24
289.672
290.1
290.525
290.945
291.362
291.774
292.182
292.586
292.985
293.381
293.772
294.159
294.542
294.92
295.294
295.663
296.028
296.388
296.742
297.092
297.436
297.774
264.825
264.794
264.76
264.727
264.692
264.65
264.602
264.545
264.49
264.44
264.375
264.298
264.262
264.217
264.148
264.068
263.988
263.908
263.826
263.743
263.66
263.579
263.499
263.423
263.353
263.289
263.234
263.189
263.157
263.142
263.144
263.163
263.204
263.272
263.368
263.497
263.66
263.861
264.102
264.384
264.715
265.078
265.486
265.941
266.439
266.978
267.556
268.154
268.772
269.414
270.076
270.75
271.43
272.108
272.779
273.437
274.079
274.699
275.297
275.869
276.416
276.937
277.434
277.908
278.362
278.798
279.219
279.627
280.026
280.418
280.804
281.186
281.566
281.946
282.325
282.704
283.084
283.465
283.846
284.229
284.612
284.996
285.38
285.765
286.15
286.537
286.923
287.311
287.7
288.091
288.483
288.876
289.272
289.669
290.067
290.467
290.868
291.269
291.671
292.071
292.471
292.868
293.263
293.655
294.042
294.425
294.803
295.175
295.542
295.903
296.259
296.608
296.951
297.288
297.62
297.946
298.265
298.579
298.888
299.19
299.486
299.775
300.058
300.335
300.604
300.867
301.121
301.369
301.609
269.914
269.913
269.911
269.904
269.89
269.87
269.839
269.8
269.772
269.73
269.657
269.639
269.618
269.56
269.486
269.415
269.344
269.271
269.196
269.12
269.046
268.975
268.908
268.847
268.794
268.751
268.721
268.706
268.708
268.728
268.77
268.838
268.935
269.064
269.227
269.428
269.668
269.95
270.279
270.65
271.057
271.51
272.006
272.542
273.115
273.722
274.344
274.985
275.646
276.32
277.001
277.68
278.352
279.012
279.655
280.277
280.875
281.447
281.993
282.511
283.004
283.472
283.918
284.343
284.752
285.145
285.527
285.899
286.264
286.623
286.979
287.331
287.682
288.032
288.381
288.729
289.078
289.425
289.773
290.12
290.466
290.813
291.158
291.503
291.848
292.193
292.538
292.884
293.23
293.576
293.923
294.271
294.619
294.968
295.316
295.664
296.011
296.356
296.699
297.039
297.375
297.706
298.032
298.352
298.666
298.973
299.273
299.566
299.851
300.129
300.4
300.663
300.918
301.165
301.405
301.637
301.862
302.08
302.291
302.494
302.691
302.88
303.061
303.234
303.399
303.555
303.701
303.837
275.069
275.095
275.116
275.129
275.135
275.132
275.12
275.096
275.08
275.051
274.982
274.975
274.964
274.91
274.842
274.777
274.712
274.643
274.573
274.504
274.437
274.373
274.315
274.264
274.223
274.194
274.18
274.183
274.203
274.247
274.315
274.413
274.542
274.705
274.904
275.142
275.421
275.745
276.116
276.521
276.968
277.457
277.983
278.545
279.14
279.761
280.394
281.041
281.703
282.371
283.038
283.697
284.344
284.974
285.582
286.166
286.724
287.254
287.755
288.23
288.678
289.102
289.504
289.886
290.252
290.604
290.944
291.275
291.598
291.915
292.228
292.538
292.845
293.15
293.453
293.755
294.055
294.354
294.652
294.948
295.243
295.536
295.828
296.119
296.408
296.697
296.985
297.273
297.56
297.847
298.134
298.421
298.706
298.991
299.275
299.556
299.834
300.11
300.381
300.646
300.907
301.16
301.407
301.646
301.877
302.099
302.313
302.518
302.715
302.904
303.084
303.257
303.42
303.576
303.723
303.86
303.986
304.101
304.209
304.309
304.401
304.486
304.562
304.63
304.69
304.741
304.781
304.81
280.193
280.227
280.253
280.27
280.277
280.274
280.259
280.248
280.219
280.153
280.153
280.136
280.08
280.016
279.953
279.889
279.823
279.756
279.691
279.629
279.572
279.522
279.481
279.453
279.439
279.442
279.463
279.506
279.574
279.671
279.798
279.959
280.156
280.39
280.664
280.979
281.341
281.741
282.179
282.655
283.167
283.712
284.286
284.887
285.508
286.135
286.771
287.415
288.057
288.692
289.314
289.918
290.501
291.058
291.588
292.09
292.562
293.006
293.422
293.813
294.179
294.525
294.851
295.162
295.458
295.744
296.02
296.288
296.55
296.807
297.061
297.31
297.557
297.802
298.044
298.284
298.521
298.756
298.989
299.22
299.449
299.676
299.9
300.123
300.345
300.565
300.783
301
301.216
301.432
301.646
301.858
302.068
302.276
302.48
302.679
302.874
303.063
303.246
303.421
303.589
303.747
303.896
304.035
304.165
304.284
304.392
304.491
304.58
304.661
304.734
304.798
304.854
304.903
304.945
304.979
305.002
305.014
305.017
305.011
304.996
304.973
304.941
304.901
304.856
304.808
304.76
285.138
285.167
285.186
285.193
285.19
285.176
285.161
285.124
285.061
285.057
285.024
284.964
284.899
284.834
284.768
284.701
284.635
284.572
284.514
284.463
284.422
284.392
284.377
284.379
284.397
284.438
284.505
284.598
284.722
284.879
285.07
285.298
285.563
285.867
286.215
286.603
287.028
287.487
287.979
288.502
289.05
289.621
290.213
290.818
291.423
292.031
292.639
293.239
293.826
294.394
294.94
295.46
295.953
296.416
296.849
297.253
297.627
297.974
298.296
298.595
298.872
299.132
299.376
299.607
299.827
300.038
300.24
300.437
300.628
300.814
300.996
301.175
301.35
301.522
301.69
301.855
302.018
302.178
302.335
302.49
302.643
302.794
302.942
303.089
303.234
303.378
303.519
303.657
303.792
303.925
304.056
304.183
304.307
304.426
304.54
304.646
304.744
304.835
304.918
304.994
305.064
305.126
305.179
305.222
305.253
305.273
305.28
305.278
305.267
305.245
305.215
305.176
305.13
305.077
305.019
304.96
304.895
304.82
304.736
304.643
304.541
304.431
304.313
304.185
304.048
303.897
303.737
303.568
289.749
289.771
289.782
289.781
289.77
289.749
289.721
289.671
289.614
289.587
289.535
289.467
289.397
289.327
289.256
289.186
289.119
289.058
289.003
288.958
288.924
288.905
288.904
288.919
288.955
289.017
289.105
289.223
289.373
289.556
289.774
290.028
290.318
290.648
291.017
291.423
291.861
292.329
292.825
293.343
293.881
294.434
295
295.574
296.143
296.707