/*--------------------------------*- C++ -*----------------------------------*\
| =========                 |                                                 |
| \\      /  F ield         | OpenFOAM: The Open Source CFD Toolbox           |
|  \\    /   O peration     | Version:  v1706                                 |
|   \\  /    A nd           | Web:      www.OpenFOAM.com                      |
|    \\/     M anipulation  |                                                 |
\*---------------------------------------------------------------------------*/
FoamFile
{
    version     2.0;
    format      ascii;
    class       volScalarField;
    location    "1.2e-05";
    object      wallHeatFlux;
}
// * * * * * * * * * * * * * * * * * * * * * * * * * * * * * * * * * * * * * //

dimensions      [1 0 -3 0 0 0 0];


internalField   uniform 0;

boundaryField
{
    cone
    {
        type            calculated;
        value           nonuniform List<scalar> 
181
(
26748.8
26989
27207.4
27401.6
27568.7
27706
27810.5
27879.3
27909.4
27897.8
27841.9
27738.8
27586.5
27383.6
27130.5
26826.4
26467
26051.8
25581
25055.5
24477.1
23848
23171.4
22450.9
21690.8
20896
20071.6
19223.6
18358
17480
16595.3
15709
14826.5
13952.4
13091.3
12247
11423.2
10622.8
9848.36
9101.9
8385.03
7698.9
7044.26
6421.52
5830.73
5271.66
4743.77
4246.58
3779.37
3341.13
2930.75
2547.09
2189.05
1855.36
1544.8
1256.06
987.871
738.998
508.244
294.456
96.5272
-86.5998
-255.932
-412.423
-556.973
-690.431
-813.595
-927.21
-1031.98
-1128.54
-1217.52
-1299.47
-1374.92
-1444.35
-1508.22
-1566.95
-1620.92
-1670.5
-1716.02
-1757.79
-1796.09
-1831.19
-1863.33
-1892.75
-1919.65
-1944.23
-1966.67
-1987.14
-2005.79
-2022.77
-2038.22
-2052.25
-2064.98
-2076.52
-2086.97
-2096.42
-2104.96
-2112.66
-2119.59
-2125.83
-2131.43
-2136.45
-2140.94
-2144.96
-2148.54
-2151.73
-2154.56
-2157.07
-2159.3
-2161.25
-2162.98
-2164.49
-2165.8
-2166.95
-2167.94
-2168.8
-2169.53
-2170.16
-2170.68
-2171.12
-2171.48
-2171.77
-2171.99
-2172.17
-2172.29
-2172.38
-2172.42
-2172.43
-2172.41
-2172.37
-2172.3
-2172.22
-2172.11
-2171.99
-2171.86
-2171.72
-2171.56
-2171.4
-2171.23
-2171.05
-2170.86
-2170.68
-2170.48
-2170.29
-2170.09
-2169.88
-2169.68
-2169.47
-2169.26
-2169.06
-2168.85
-2168.63
-2168.42
-2168.21
-2168
-2167.79
-2167.57
-2167.36
-2167.15
-2166.94
-2166.72
-2166.51
-2166.3
-2166.09
-2165.88
-2165.67
-2165.46
-2165.25
-2165.05
-2164.84
-2164.63
-2164.43
-2164.23
-2164.02
-2163.82
-2163.62
-2163.43
-2163.23
-2163.04
-2162.85
-2162.65
)
;
    }
    inlet
    {
        type            calculated;
        value           uniform 0;
    }
    rWedge
    {
        type            wedge;
    }
    lWedge
    {
        type            wedge;
    }
    outlet
    {
        type            calculated;
        value           nonuniform 0();
    }
    procBoundary1to0
    {
        type            processor;
        value           uniform 0;
    }
    procBoundary1to2
    {
        type            processor;
        value           uniform 0;
    }
}


// ************************************************************************* //
