/*--------------------------------*- C++ -*----------------------------------*\
| =========                 |                                                 |
| \\      /  F ield         | OpenFOAM: The Open Source CFD Toolbox           |
|  \\    /   O peration     | Version:  v1706                                 |
|   \\  /    A nd           | Web:      www.OpenFOAM.com                      |
|    \\/     M anipulation  |                                                 |
\*---------------------------------------------------------------------------*/
FoamFile
{
    version     2.0;
    format      ascii;
    class       volScalarField;
    location    "1.4e-05";
    object      alpha;
}
// * * * * * * * * * * * * * * * * * * * * * * * * * * * * * * * * * * * * * //

dimensions      [1 -1 -1 0 0 0 0];


internalField   nonuniform List<scalar> 
29871
(
1.40478e-05
1.40478e-05
1.40478e-05
1.40478e-05
1.40478e-05
1.40478e-05
1.40478e-05
1.40478e-05
1.40478e-05
1.40478e-05
1.40478e-05
1.40478e-05
1.40478e-05
1.40478e-05
1.40478e-05
1.40478e-05
1.40478e-05
1.40478e-05
1.40478e-05
1.40478e-05
1.40478e-05
1.40478e-05
1.40478e-05
1.40478e-05
1.40478e-05
1.40478e-05
1.40478e-05
1.40478e-05
1.40478e-05
1.40478e-05
1.40478e-05
1.40478e-05
1.40478e-05
1.40478e-05
1.40478e-05
1.40478e-05
1.40478e-05
1.40478e-05
1.40478e-05
1.40478e-05
1.40478e-05
1.40478e-05
1.40478e-05
1.40478e-05
1.40478e-05
1.40478e-05
1.40478e-05
1.40478e-05
1.40478e-05
1.40478e-05
1.40478e-05
1.40478e-05
1.40478e-05
1.40478e-05
1.40478e-05
1.40478e-05
1.40478e-05
1.40478e-05
1.40478e-05
1.40478e-05
1.40478e-05
1.40478e-05
1.40478e-05
1.40478e-05
1.40478e-05
1.40478e-05
1.40478e-05
1.40478e-05
1.40478e-05
1.40478e-05
1.40478e-05
1.40478e-05
1.40478e-05
1.40478e-05
1.40478e-05
1.40478e-05
1.40478e-05
1.40478e-05
1.40478e-05
1.40478e-05
1.40478e-05
1.40478e-05
1.40478e-05
1.40478e-05
1.40478e-05
1.40478e-05
1.40478e-05
1.40478e-05
1.40478e-05
1.40478e-05
1.40478e-05
1.40478e-05
1.40478e-05
1.40478e-05
1.40478e-05
1.40478e-05
1.40478e-05
1.40478e-05
1.40478e-05
1.40478e-05
1.40478e-05
1.40478e-05
1.40478e-05
1.40478e-05
1.40478e-05
1.40478e-05
1.40478e-05
1.40478e-05
1.40478e-05
1.40478e-05
1.40478e-05
1.40478e-05
1.40478e-05
1.40478e-05
1.40478e-05
1.40478e-05
1.40478e-05
1.40478e-05
1.40478e-05
1.40478e-05
1.40478e-05
1.40478e-05
1.40478e-05
1.40478e-05
1.40478e-05
1.40478e-05
1.40478e-05
1.40478e-05
1.40478e-05
1.40478e-05
1.40478e-05
1.40478e-05
1.40478e-05
1.40478e-05
1.40478e-05
1.40478e-05
1.40478e-05
1.40478e-05
1.40478e-05
1.40478e-05
1.40478e-05
1.40478e-05
1.40478e-05
1.40478e-05
1.40478e-05
1.40478e-05
1.40478e-05
1.40478e-05
1.40478e-05
1.40478e-05
1.40478e-05
1.40478e-05
1.40478e-05
1.40478e-05
1.40478e-05
1.40478e-05
1.40478e-05
1.40478e-05
1.40478e-05
1.40478e-05
1.40478e-05
1.40478e-05
1.40478e-05
1.40478e-05
1.40478e-05
1.40478e-05
1.40478e-05
1.40478e-05
1.40478e-05
1.40478e-05
1.40478e-05
1.40478e-05
1.40478e-05
1.40478e-05
1.40478e-05
1.40478e-05
1.40478e-05
1.40478e-05
1.40478e-05
1.40478e-05
1.40478e-05
1.40478e-05
1.40478e-05
1.40478e-05
1.40478e-05
1.40478e-05
1.40478e-05
1.40478e-05
1.40478e-05
1.40478e-05
1.40478e-05
1.40478e-05
1.40478e-05
1.40478e-05
1.40478e-05
1.40478e-05
1.40478e-05
1.40478e-05
1.40478e-05
1.40478e-05
1.40478e-05
1.40478e-05
1.40478e-05
1.40478e-05
1.40478e-05
1.40478e-05
1.40478e-05
1.40478e-05
1.40478e-05
1.40478e-05
1.40478e-05
1.40478e-05
1.40478e-05
1.40478e-05
1.40478e-05
1.40478e-05
1.40478e-05
1.40478e-05
1.40478e-05
1.40478e-05
1.40478e-05
1.40478e-05
1.40478e-05
1.40478e-05
1.40478e-05
1.40478e-05
1.40478e-05
1.40478e-05
1.40478e-05
1.40478e-05
1.40478e-05
1.40478e-05
1.40478e-05
1.40478e-05
1.40478e-05
1.40478e-05
1.40478e-05
1.40478e-05
1.40478e-05
1.40478e-05
1.40478e-05
1.40478e-05
1.40478e-05
1.40478e-05
1.40478e-05
1.40478e-05
1.40478e-05
1.40478e-05
1.40478e-05
1.40478e-05
1.40478e-05
1.40478e-05
1.40478e-05
1.40478e-05
1.40478e-05
1.40478e-05
1.40478e-05
1.40478e-05
1.40478e-05
1.40478e-05
1.40478e-05
1.40478e-05
1.40478e-05
1.40478e-05
1.40478e-05
1.40478e-05
1.40478e-05
1.40478e-05
1.40478e-05
1.40478e-05
1.40478e-05
1.40478e-05
1.40478e-05
1.40478e-05
1.40478e-05
1.40478e-05
1.40478e-05
1.40478e-05
1.40478e-05
1.40478e-05
1.40478e-05
1.40478e-05
1.40478e-05
1.40478e-05
1.40478e-05
1.40478e-05
1.40478e-05
1.40478e-05
1.40478e-05
1.40478e-05
1.40478e-05
1.40478e-05
1.40478e-05
1.40478e-05
1.40478e-05
1.40478e-05
1.40478e-05
1.40478e-05
1.40478e-05
1.40478e-05
1.40478e-05
1.40478e-05
1.40478e-05
1.40478e-05
1.40478e-05
1.40478e-05
1.40478e-05
1.40478e-05
1.40478e-05
1.40478e-05
1.40478e-05
1.40478e-05
1.40478e-05
1.40478e-05
1.40478e-05
1.40478e-05
1.40478e-05
1.40478e-05
1.40478e-05
1.40478e-05
1.40478e-05
1.40478e-05
1.40478e-05
1.40478e-05
1.40478e-05
1.40478e-05
1.40478e-05
1.40478e-05
1.40478e-05
1.40478e-05
1.40478e-05
1.40478e-05
1.40478e-05
1.40478e-05
1.40478e-05
1.40478e-05
1.40478e-05
1.40478e-05
1.40478e-05
1.40478e-05
1.40478e-05
1.40478e-05
1.40478e-05
1.40478e-05
1.40478e-05
1.40478e-05
1.40478e-05
1.40478e-05
1.40478e-05
1.40478e-05
1.40478e-05
1.40478e-05
1.40478e-05
1.40478e-05
1.40478e-05
1.40478e-05
1.40478e-05
1.40478e-05
1.40478e-05
1.40478e-05
1.40478e-05
1.40478e-05
1.40478e-05
1.40478e-05
1.40478e-05
1.40478e-05
1.40478e-05
1.40478e-05
1.40478e-05
1.40478e-05
1.40478e-05
1.40478e-05
1.40478e-05
1.40478e-05
1.40478e-05
1.40478e-05
1.40478e-05
1.40478e-05
1.40478e-05
1.40478e-05
1.40478e-05
1.40478e-05
1.40478e-05
1.40478e-05
1.40478e-05
1.40478e-05
1.40478e-05
1.40478e-05
1.40478e-05
1.40478e-05
1.40478e-05
1.40478e-05
1.40478e-05
1.40478e-05
1.40478e-05
1.40478e-05
1.40478e-05
1.40478e-05
1.40478e-05
1.40478e-05
1.40478e-05
1.40478e-05
1.40478e-05
1.40478e-05
1.40478e-05
1.40478e-05
1.40478e-05
1.40478e-05
1.40478e-05
1.40478e-05
1.40478e-05
1.40478e-05
1.40478e-05
1.40478e-05
1.40478e-05
1.40478e-05
1.40478e-05
1.40478e-05
1.40478e-05
1.40478e-05
1.40478e-05
1.40478e-05
1.40478e-05
1.40478e-05
1.40478e-05
1.40478e-05
1.40478e-05
1.40478e-05
1.40478e-05
1.40478e-05
1.40478e-05
1.40478e-05
1.40478e-05
1.40478e-05
1.40478e-05
1.40478e-05
1.40478e-05
1.40478e-05
1.40478e-05
1.40478e-05
1.40478e-05
1.40478e-05
1.40478e-05
1.40478e-05
1.40478e-05
1.40478e-05
1.40478e-05
1.40478e-05
1.40478e-05
1.40478e-05
1.40478e-05
1.40478e-05
1.40478e-05
1.40478e-05
1.40478e-05
1.40478e-05
1.40478e-05
1.40478e-05
1.40478e-05
1.40478e-05
1.40478e-05
1.40478e-05
1.40478e-05
1.40478e-05
1.40478e-05
1.40478e-05
1.40478e-05
1.40478e-05
1.40478e-05
1.40478e-05
1.40478e-05
1.40478e-05
1.40478e-05
1.40478e-05
1.40478e-05
1.40478e-05
1.40478e-05
1.40478e-05
1.40478e-05
1.40478e-05
1.40478e-05
1.40478e-05
1.40478e-05
1.40478e-05
1.40478e-05
1.40478e-05
1.40478e-05
1.40478e-05
1.40478e-05
1.40478e-05
1.40478e-05
1.40478e-05
1.40478e-05
1.40478e-05
1.40478e-05
1.40478e-05
1.40478e-05
1.40478e-05
1.40478e-05
1.40478e-05
1.40478e-05
1.40478e-05
1.40478e-05
1.40478e-05
1.40478e-05
1.40478e-05
1.40478e-05
1.40478e-05
1.40478e-05
1.40478e-05
1.40478e-05
1.40478e-05
1.40478e-05
1.40478e-05
1.40478e-05
1.40478e-05
1.40478e-05
1.40478e-05
1.40478e-05
1.40478e-05
1.40478e-05
1.40478e-05
1.40478e-05
1.40478e-05
1.40478e-05
1.40478e-05
1.40478e-05
1.40478e-05
1.40478e-05
1.40478e-05
1.40478e-05
1.40478e-05
1.40478e-05
1.40478e-05
1.40478e-05
1.40478e-05
1.40478e-05
1.40478e-05
1.40478e-05
1.40478e-05
1.40478e-05
1.40478e-05
1.40478e-05
1.40478e-05
1.40478e-05
1.40478e-05
1.40478e-05
1.40478e-05
1.40478e-05
1.40478e-05
1.40478e-05
1.40478e-05
1.40478e-05
1.40478e-05
1.40478e-05
1.40478e-05
1.40478e-05
1.40478e-05
1.40478e-05
1.40478e-05
1.40478e-05
1.40478e-05
1.40478e-05
1.40478e-05
1.40478e-05
1.40478e-05
1.40478e-05
1.40478e-05
1.40478e-05
1.40478e-05
1.40478e-05
1.40478e-05
1.40478e-05
1.40478e-05
1.40478e-05
1.40478e-05
1.40478e-05
1.40478e-05
1.40478e-05
1.40478e-05
1.40478e-05
1.40478e-05
1.40478e-05
1.40478e-05
1.40478e-05
1.40478e-05
1.40478e-05
1.40478e-05
1.40478e-05
1.40478e-05
1.40478e-05
1.40478e-05
1.40478e-05
1.40478e-05
1.40478e-05
1.40478e-05
1.40478e-05
1.40478e-05
1.40478e-05
1.40478e-05
1.40478e-05
1.40478e-05
1.40478e-05
1.40478e-05
1.40478e-05
1.40478e-05
1.40478e-05
1.40478e-05
1.40478e-05
1.40478e-05
1.40478e-05
1.40478e-05
1.40478e-05
1.40478e-05
1.40478e-05
1.40478e-05
1.40478e-05
1.40478e-05
1.40478e-05
1.40478e-05
1.40478e-05
1.40478e-05
1.40478e-05
1.40478e-05
1.40478e-05
1.40478e-05
1.40478e-05
1.40478e-05
1.40478e-05
1.40478e-05
1.40478e-05
1.40478e-05
1.40478e-05
1.40478e-05
1.40478e-05
1.40478e-05
1.40478e-05
1.40478e-05
1.40478e-05
1.40478e-05
1.40478e-05
1.40478e-05
1.40478e-05
1.40478e-05
1.40478e-05
1.40478e-05
1.40478e-05
1.40478e-05
1.40478e-05
1.40478e-05
1.40478e-05
1.40478e-05
1.40478e-05
1.40478e-05
1.40478e-05
1.40478e-05
1.40478e-05
1.40478e-05
1.40478e-05
1.40478e-05
1.40478e-05
1.40478e-05
1.40478e-05
1.40478e-05
1.40478e-05
1.40478e-05
1.40478e-05
1.40478e-05
1.40478e-05
1.40478e-05
1.40478e-05
1.40478e-05
1.40478e-05
1.40478e-05
1.40478e-05
1.40478e-05
1.40478e-05
1.40478e-05
1.40478e-05
1.40478e-05
1.40478e-05
1.40478e-05
1.40478e-05
1.40478e-05
1.40478e-05
1.40478e-05
1.40478e-05
1.40478e-05
1.40478e-05
1.40478e-05
1.40478e-05
1.40478e-05
1.40478e-05
1.40478e-05
1.40478e-05
1.40478e-05
1.40478e-05
1.40478e-05
1.40478e-05
1.40478e-05
1.40478e-05
1.40478e-05
1.40478e-05
1.40478e-05
1.40478e-05
1.40478e-05
1.40478e-05
1.40478e-05
1.40478e-05
1.40478e-05
1.40478e-05
1.40478e-05
1.40478e-05
1.40478e-05
1.40478e-05
1.40478e-05
1.40478e-05
1.40478e-05
1.40478e-05
1.40478e-05
1.40478e-05
1.40478e-05
1.40478e-05
1.40478e-05
1.40478e-05
1.40478e-05
1.40478e-05
1.40478e-05
1.40478e-05
1.40478e-05
1.40478e-05
1.40478e-05
1.40478e-05
1.40478e-05
1.40478e-05
1.40478e-05
1.40478e-05
1.40478e-05
1.40478e-05
1.40478e-05
1.40478e-05
1.40478e-05
1.40478e-05
1.40478e-05
1.40478e-05
1.40478e-05
1.40478e-05
1.40478e-05
1.40478e-05
1.40478e-05
1.40478e-05
1.40478e-05
1.40478e-05
1.40478e-05
1.40478e-05
1.40478e-05
1.40478e-05
1.40478e-05
1.40478e-05
1.40478e-05
1.40478e-05
1.40478e-05
1.40478e-05
1.40478e-05
1.40478e-05
1.40478e-05
1.40478e-05
1.40478e-05
1.40478e-05
1.40478e-05
1.40478e-05
1.40478e-05
1.40478e-05
1.40478e-05
1.40478e-05
1.40478e-05
1.40478e-05
1.40478e-05
1.40478e-05
1.40478e-05
1.40478e-05
1.40478e-05
1.40478e-05
1.40478e-05
1.40478e-05
1.40478e-05
1.40478e-05
1.40478e-05
1.40478e-05
1.40478e-05
1.40478e-05
1.40478e-05
1.40478e-05
1.40478e-05
1.40478e-05
1.40478e-05
1.40478e-05
1.40478e-05
1.40478e-05
1.40478e-05
1.40478e-05
1.40478e-05
1.40478e-05
1.40478e-05
1.40478e-05
1.40478e-05
1.40478e-05
1.40478e-05
1.40478e-05
1.40478e-05
1.40478e-05
1.40478e-05
1.40478e-05
1.40478e-05
1.40478e-05
1.40478e-05
1.40478e-05
1.40478e-05
1.40478e-05
1.40478e-05
1.40478e-05
1.40478e-05
1.40478e-05
1.40478e-05
1.40478e-05
1.40478e-05
1.40478e-05
1.40478e-05
1.40478e-05
1.40478e-05
1.40478e-05
1.40478e-05
1.40478e-05
1.40478e-05
1.40478e-05
1.40478e-05
1.40478e-05
1.40478e-05
1.40478e-05
1.40478e-05
1.40478e-05
1.40478e-05
1.40478e-05
1.40478e-05
1.40478e-05
1.40478e-05
1.40478e-05
1.40478e-05
1.40478e-05
1.40478e-05
1.40478e-05
1.40478e-05
1.40478e-05
1.40478e-05
1.40478e-05
1.40478e-05
1.40478e-05
1.40478e-05
1.40478e-05
1.40478e-05
1.40478e-05
1.40478e-05
1.40478e-05
1.40478e-05
1.40478e-05
1.40478e-05
1.40478e-05
1.40478e-05
1.40478e-05
1.40478e-05
1.40478e-05
1.40478e-05
1.40478e-05
1.40478e-05
1.40478e-05
1.40478e-05
1.40478e-05
1.40478e-05
1.40478e-05
1.40478e-05
1.40478e-05
1.40478e-05
1.40478e-05
1.40478e-05
1.40478e-05
1.40478e-05
1.40478e-05
1.40478e-05
1.40478e-05
1.40478e-05
1.40478e-05
1.40478e-05
1.40478e-05
1.40478e-05
1.40478e-05
1.40478e-05
1.40478e-05
1.40478e-05
1.40478e-05
1.40478e-05
1.40478e-05
1.40478e-05
1.40478e-05
1.40478e-05
1.40478e-05
1.40478e-05
1.40478e-05
1.40478e-05
1.40478e-05
1.40478e-05
1.40478e-05
1.40478e-05
1.40478e-05
1.40478e-05
1.40478e-05
1.40478e-05
1.40478e-05
1.40478e-05
1.40478e-05
1.40478e-05
1.40478e-05
1.40478e-05
1.40478e-05
1.40478e-05
1.40478e-05
1.40478e-05
1.40478e-05
1.40478e-05
1.40478e-05
1.40478e-05
1.40478e-05
1.40478e-05
1.40478e-05
1.40478e-05
1.40478e-05
1.40478e-05
1.40478e-05
1.40478e-05
1.40478e-05
1.40478e-05
1.40478e-05
1.40478e-05
1.40478e-05
1.40478e-05
1.40478e-05
1.40478e-05
1.40478e-05
1.40478e-05
1.40478e-05
1.40478e-05
1.40478e-05
1.40478e-05
1.40478e-05
1.40478e-05
1.40478e-05
1.40478e-05
1.40478e-05
1.40478e-05
1.40478e-05
1.40478e-05
1.40478e-05
1.40478e-05
1.40478e-05
1.40478e-05
1.40478e-05
1.40478e-05
1.40478e-05
1.40478e-05
1.40478e-05
1.40478e-05
1.40478e-05
1.40478e-05
1.40478e-05
1.40478e-05
1.40478e-05
1.40478e-05
1.40478e-05
1.40478e-05
1.40478e-05
1.40478e-05
1.40478e-05
1.40478e-05
1.40478e-05
1.40478e-05
1.40478e-05
1.40478e-05
1.40478e-05
1.40478e-05
1.40478e-05
1.40478e-05
1.40478e-05
1.40478e-05
1.40478e-05
1.40478e-05
1.40478e-05
1.40478e-05
1.40478e-05
1.40478e-05
1.40478e-05
1.40478e-05
1.40478e-05
1.40478e-05
1.40478e-05
1.40478e-05
1.40478e-05
1.40478e-05
1.40478e-05
1.40478e-05
1.40478e-05
1.40478e-05
1.40478e-05
1.40478e-05
1.40478e-05
1.40478e-05
1.40478e-05
1.40478e-05
1.40478e-05
1.40478e-05
1.40478e-05
1.40478e-05
1.40478e-05
1.40478e-05
1.40478e-05
1.40478e-05
1.40478e-05
1.40478e-05
1.40478e-05
1.40478e-05
1.40478e-05
1.40478e-05
1.40478e-05
1.40478e-05
1.40478e-05
1.40478e-05
1.40478e-05
1.40478e-05
1.40478e-05
1.40478e-05
1.40478e-05
1.40478e-05
1.40478e-05
1.40478e-05
1.40478e-05
1.40478e-05
1.40478e-05
1.40478e-05
1.40478e-05
1.40478e-05
1.40478e-05
1.40478e-05
1.40478e-05
1.40478e-05
1.40478e-05
1.40478e-05
1.40478e-05
1.40478e-05
1.40478e-05
1.40478e-05
1.40478e-05
1.40478e-05
1.40478e-05
1.40478e-05
1.40478e-05
1.40478e-05
1.40478e-05
1.40478e-05
1.40478e-05
1.40478e-05
1.40478e-05
1.40478e-05
1.40478e-05
1.40478e-05
1.40478e-05
1.40478e-05
1.40478e-05
1.40478e-05
1.40478e-05
1.40478e-05
1.40478e-05
1.40478e-05
1.40478e-05
1.40478e-05
1.40478e-05
1.40478e-05
1.40478e-05
1.40478e-05
1.40478e-05
1.40478e-05
1.40478e-05
1.40478e-05
1.40478e-05
1.40478e-05
1.40478e-05
1.40478e-05
1.40478e-05
1.40478e-05
1.40478e-05
1.40478e-05
1.40478e-05
1.40478e-05
1.40478e-05
1.40478e-05
1.40478e-05
1.40478e-05
1.40478e-05
1.40478e-05
1.40478e-05
1.40478e-05
1.40478e-05
1.40478e-05
1.40478e-05
1.40478e-05
1.40478e-05
1.40478e-05
1.40478e-05
1.40478e-05
1.40478e-05
1.40478e-05
1.40478e-05
1.40478e-05
1.40478e-05
1.40478e-05
1.40478e-05
1.40478e-05
1.40478e-05
1.40478e-05
1.40478e-05
1.40478e-05
1.40478e-05
1.40478e-05
1.40478e-05
1.40478e-05
1.40478e-05
1.40478e-05
1.40478e-05
1.40478e-05
1.40478e-05
1.40478e-05
1.40478e-05
1.40478e-05
1.40478e-05
1.40478e-05
1.40478e-05
1.40478e-05
1.40478e-05
1.40478e-05
1.40478e-05
1.40478e-05
1.40478e-05
1.40478e-05
1.40478e-05
1.40478e-05
1.40478e-05
1.40478e-05
1.40478e-05
1.40478e-05
1.40478e-05
1.40478e-05
1.40478e-05
1.40478e-05
1.40478e-05
1.40478e-05
1.40478e-05
1.40478e-05
1.40478e-05
1.40478e-05
1.40478e-05
1.40478e-05
1.40478e-05
1.40478e-05
1.40478e-05
1.40478e-05
1.40478e-05
1.40478e-05
1.40478e-05
1.40478e-05
1.40478e-05
1.40478e-05
1.40478e-05
1.40478e-05
1.40478e-05
1.40478e-05
1.40478e-05
1.40478e-05
1.40478e-05
1.40478e-05
1.40478e-05
1.40478e-05
1.40478e-05
1.40478e-05
1.40478e-05
1.40478e-05
1.40478e-05
1.40478e-05
1.40478e-05
1.40478e-05
1.40478e-05
1.40478e-05
1.40478e-05
1.40478e-05
1.40478e-05
1.40478e-05
1.40478e-05
1.40478e-05
1.40478e-05
1.40478e-05
1.40478e-05
1.40478e-05
1.40478e-05
1.40478e-05
1.40478e-05
1.40478e-05
1.40478e-05
1.40478e-05
1.40478e-05
1.40478e-05
1.40478e-05
1.40478e-05
1.40478e-05
1.40478e-05
1.40478e-05
1.40478e-05
1.40478e-05
1.40478e-05
1.40478e-05
1.40478e-05
1.40478e-05
1.40478e-05
1.40478e-05
1.40478e-05
1.40478e-05
1.40478e-05
1.40478e-05
1.40478e-05
1.40478e-05
1.40478e-05
1.40478e-05
1.40478e-05
1.40478e-05
1.40478e-05
1.40478e-05
1.40478e-05
1.40478e-05
1.40478e-05
1.40478e-05
1.40478e-05
1.40478e-05
1.40478e-05
1.40478e-05
1.40478e-05
1.40478e-05
1.40478e-05
1.40478e-05
1.40478e-05
1.40478e-05
1.40478e-05
1.40478e-05
1.40478e-05
1.40478e-05
1.40478e-05
1.40478e-05
1.40478e-05
1.40478e-05
1.40478e-05
1.40478e-05
1.40478e-05
1.40478e-05
1.40478e-05
1.40478e-05
1.40478e-05
1.40478e-05
1.40478e-05
1.40478e-05
1.40478e-05
1.40478e-05
1.40478e-05
1.40478e-05
1.40478e-05
1.40478e-05
1.40478e-05
1.40478e-05
1.40478e-05
1.40478e-05
1.40478e-05
1.40478e-05
1.40478e-05
1.40478e-05
1.40478e-05
1.40478e-05
1.40478e-05
1.40478e-05
1.40478e-05
1.40478e-05
1.40478e-05
1.40478e-05
1.40478e-05
1.40478e-05
1.40478e-05
1.40478e-05
1.40478e-05
1.40478e-05
1.40478e-05
1.40478e-05
1.40478e-05
1.40478e-05
1.40478e-05
1.40478e-05
1.40478e-05
1.40478e-05
1.40478e-05
1.40478e-05
1.40478e-05
1.40478e-05
1.40478e-05
1.40478e-05
1.40478e-05
1.40478e-05
1.40478e-05
1.40478e-05
1.40478e-05
1.40478e-05
1.40478e-05
1.40478e-05
1.40478e-05
1.40478e-05
1.40478e-05
1.40478e-05
1.40478e-05
1.40478e-05
1.40478e-05
1.40478e-05
1.40478e-05
1.40478e-05
1.40478e-05
1.40478e-05
1.40478e-05
1.40478e-05
1.40478e-05
1.40478e-05
1.40478e-05
1.40478e-05
1.40478e-05
1.40478e-05
1.40478e-05
1.40478e-05
1.40478e-05
1.40478e-05
1.40478e-05
1.40478e-05
1.40478e-05
1.40478e-05
1.40478e-05
1.40478e-05
1.40478e-05
1.40478e-05
1.40478e-05
1.40478e-05
1.40478e-05
1.40478e-05
1.40478e-05
1.40478e-05
1.40478e-05
1.40478e-05
1.40478e-05
1.40478e-05
1.40478e-05
1.40478e-05
1.40478e-05
1.40479e-05
1.40479e-05
1.40479e-05
1.40479e-05
1.40479e-05
1.40479e-05
1.40479e-05
1.40479e-05
1.40479e-05
1.40479e-05
1.4048e-05
1.4048e-05
1.4048e-05
1.4048e-05
1.4048e-05
1.4048e-05
1.40481e-05
1.40481e-05
1.40481e-05
1.40481e-05
1.40481e-05
1.40482e-05
1.40482e-05
1.40482e-05
1.40482e-05
1.40482e-05
1.40482e-05
1.40482e-05
1.40482e-05
1.40482e-05
1.40482e-05
1.40482e-05
1.40482e-05
1.40482e-05
1.40482e-05
1.40481e-05
1.40481e-05
1.40481e-05
1.40481e-05
1.40481e-05
1.40481e-05
1.4048e-05
1.40478e-05
1.40478e-05
1.40478e-05
1.40478e-05
1.40478e-05
1.40478e-05
1.40478e-05
1.40478e-05
1.40478e-05
1.40478e-05
1.40478e-05
1.40478e-05
1.40478e-05
1.40478e-05
1.40478e-05
1.40478e-05
1.40478e-05
1.40478e-05
1.40478e-05
1.40478e-05
1.40478e-05
1.40478e-05
1.40478e-05
1.40478e-05
1.40478e-05
1.40478e-05
1.40478e-05
1.40478e-05
1.40478e-05
1.40478e-05
1.40478e-05
1.40478e-05
1.40478e-05
1.40478e-05
1.40478e-05
1.40478e-05
1.40478e-05
1.40478e-05
1.40478e-05
1.40478e-05
1.40478e-05
1.40478e-05
1.40478e-05
1.40478e-05
1.40478e-05
1.40478e-05
1.40478e-05
1.40478e-05
1.40478e-05
1.40478e-05
1.40478e-05
1.40478e-05
1.40479e-05
1.40479e-05
1.40479e-05
1.40479e-05
1.40479e-05
1.40479e-05
1.40479e-05
1.40479e-05
1.40479e-05
1.4048e-05
1.4048e-05
1.4048e-05
1.4048e-05
1.40481e-05
1.40481e-05
1.40481e-05
1.40482e-05
1.40482e-05
1.40482e-05
1.40483e-05
1.40484e-05
1.40484e-05
1.40485e-05
1.40485e-05
1.40486e-05
1.40487e-05
1.40488e-05
1.40488e-05
1.4049e-05
1.40491e-05
1.40492e-05
1.40493e-05
1.40495e-05
1.40496e-05
1.40498e-05
1.40499e-05
1.40501e-05
1.40502e-05
1.40503e-05
1.40505e-05
1.40506e-05
1.40507e-05
1.40508e-05
1.40508e-05
1.40509e-05
1.40509e-05
1.40509e-05
1.40509e-05
1.40509e-05
1.40509e-05
1.40508e-05
1.40508e-05
1.40507e-05
1.40506e-05
1.40505e-05
1.40504e-05
1.40502e-05
1.40501e-05
1.405e-05
1.40498e-05
1.40497e-05
1.40478e-05
1.40478e-05
1.40478e-05
1.40478e-05
1.40478e-05
1.40478e-05
1.40478e-05
1.40478e-05
1.40478e-05
1.40478e-05
1.40478e-05
1.40478e-05
1.40478e-05
1.40478e-05
1.40478e-05
1.40478e-05
1.40478e-05
1.40478e-05
1.40478e-05
1.40478e-05
1.40478e-05
1.40478e-05
1.40478e-05
1.40478e-05
1.40478e-05
1.40478e-05
1.40478e-05
1.40478e-05
1.40478e-05
1.40478e-05
1.40478e-05
1.40478e-05
1.40478e-05
1.40478e-05
1.40478e-05
1.40478e-05
1.40479e-05
1.40479e-05
1.40479e-05
1.40479e-05
1.40479e-05
1.40479e-05
1.40479e-05
1.40479e-05
1.4048e-05
1.4048e-05
1.4048e-05
1.4048e-05
1.40481e-05
1.40481e-05
1.40481e-05
1.40481e-05
1.40482e-05
1.40482e-05
1.40483e-05
1.40483e-05
1.40484e-05
1.40485e-05
1.40486e-05
1.40487e-05
1.40487e-05
1.40488e-05
1.4049e-05
1.40491e-05
1.40492e-05
1.40494e-05
1.40495e-05
1.40498e-05
1.405e-05
1.40503e-05
1.40505e-05
1.40509e-05
1.40512e-05
1.40516e-05
1.4052e-05
1.40524e-05
1.40529e-05
1.40533e-05
1.40538e-05
1.40544e-05
1.4055e-05
1.40557e-05
1.40565e-05
1.40575e-05
1.40584e-05
1.40595e-05
1.40606e-05
1.40617e-05
1.40628e-05
1.40639e-05
1.4065e-05
1.4066e-05
1.4067e-05
1.40679e-05
1.40688e-05
1.40695e-05
1.40702e-05
1.40707e-05
1.40711e-05
1.40714e-05
1.40715e-05
1.40715e-05
1.40714e-05
1.40711e-05
1.40707e-05
1.40702e-05
1.40696e-05
1.40689e-05
1.4068e-05
1.40671e-05
1.40662e-05
1.40651e-05
1.40641e-05
1.4063e-05
1.40618e-05
1.40478e-05
1.40478e-05
1.40478e-05
1.40478e-05
1.40478e-05
1.40478e-05
1.40478e-05
1.40478e-05
1.40478e-05
1.40478e-05
1.40478e-05
1.40478e-05
1.40478e-05
1.40478e-05
1.40478e-05
1.40478e-05
1.40478e-05
1.40478e-05
1.40478e-05
1.40478e-05
1.40479e-05
1.40479e-05
1.40479e-05
1.40479e-05
1.40479e-05
1.40479e-05
1.40479e-05
1.4048e-05
1.4048e-05
1.4048e-05
1.4048e-05
1.40481e-05
1.40481e-05
1.40481e-05
1.40482e-05
1.40482e-05
1.40483e-05
1.40483e-05
1.40484e-05
1.40485e-05
1.40486e-05
1.40487e-05
1.40488e-05
1.40489e-05
1.4049e-05
1.40492e-05
1.40493e-05
1.40495e-05
1.40497e-05
1.40499e-05
1.40501e-05
1.40504e-05
1.40507e-05
1.4051e-05
1.40514e-05
1.40518e-05
1.40523e-05
1.40528e-05
1.40534e-05
1.4054e-05
1.40547e-05
1.40554e-05
1.40562e-05
1.40571e-05
1.40581e-05
1.40592e-05
1.40605e-05
1.4062e-05
1.40638e-05
1.40657e-05
1.40679e-05
1.40703e-05
1.40729e-05
1.40756e-05
1.40785e-05
1.40816e-05
1.40848e-05
1.40882e-05
1.40919e-05
1.40959e-05
1.41006e-05
1.41059e-05
1.41121e-05
1.41189e-05
1.41263e-05
1.41341e-05
1.41422e-05
1.41503e-05
1.41585e-05
1.41665e-05
1.41743e-05
1.41819e-05
1.41891e-05
1.41958e-05
1.42019e-05
1.42073e-05
1.4212e-05
1.42159e-05
1.42189e-05
1.42209e-05
1.42218e-05
1.42218e-05
1.42209e-05
1.42189e-05
1.4216e-05
1.42122e-05
1.42076e-05
1.42023e-05
1.41963e-05
1.41898e-05
1.41827e-05
1.41752e-05
1.41673e-05
1.41591e-05
1.41507e-05
1.41423e-05
1.40478e-05
1.40478e-05
1.40478e-05
1.40478e-05
1.40478e-05
1.40478e-05
1.40478e-05
1.40478e-05
1.40478e-05
1.40478e-05
1.40478e-05
1.40478e-05
1.40478e-05
1.40479e-05
1.40479e-05
1.40479e-05
1.40479e-05
1.40479e-05
1.40479e-05
1.40479e-05
1.4048e-05
1.4048e-05
1.4048e-05
1.40481e-05
1.40481e-05
1.40481e-05
1.40482e-05
1.40483e-05
1.40483e-05
1.40484e-05
1.40485e-05
1.40486e-05
1.40487e-05
1.40488e-05
1.40489e-05
1.40491e-05
1.40492e-05
1.40494e-05
1.40496e-05
1.40499e-05
1.40501e-05
1.40504e-05
1.40507e-05
1.40511e-05
1.40515e-05
1.4052e-05
1.40525e-05
1.40531e-05
1.40538e-05
1.40545e-05
1.40554e-05
1.40563e-05
1.40573e-05
1.40584e-05
1.40595e-05
1.40608e-05
1.40623e-05
1.40639e-05
1.40658e-05
1.40679e-05
1.40703e-05
1.40731e-05
1.40762e-05
1.40796e-05
1.40833e-05
1.40873e-05
1.40917e-05
1.40964e-05
1.41014e-05
1.41069e-05
1.4113e-05
1.412e-05
1.41282e-05
1.41377e-05
1.41488e-05
1.41614e-05
1.41755e-05
1.41911e-05
1.4208e-05
1.42261e-05
1.42454e-05
1.42658e-05
1.42872e-05
1.43096e-05
1.43333e-05
1.43587e-05
1.43871e-05
1.44199e-05
1.4458e-05
1.45014e-05
1.45493e-05
1.46008e-05
1.46546e-05
1.47095e-05
1.47646e-05
1.48192e-05
1.48727e-05
1.49248e-05
1.49748e-05
1.50222e-05
1.50662e-05
1.51062e-05
1.51417e-05
1.51722e-05
1.51973e-05
1.52165e-05
1.52293e-05
1.52355e-05
1.52354e-05
1.52292e-05
1.52165e-05
1.51976e-05
1.51729e-05
1.51429e-05
1.51081e-05
1.50692e-05
1.50263e-05
1.49797e-05
1.49295e-05
1.48765e-05
1.48212e-05
1.47644e-05
1.47067e-05
1.40479e-05
1.40479e-05
1.40479e-05
1.40479e-05
1.40479e-05
1.40479e-05
1.4048e-05
1.4048e-05
1.4048e-05
1.4048e-05
1.40481e-05
1.40481e-05
1.40482e-05
1.40483e-05
1.40483e-05
1.40484e-05
1.40485e-05
1.40486e-05
1.40487e-05
1.40489e-05
1.4049e-05
1.40492e-05
1.40494e-05
1.40496e-05
1.40499e-05
1.40502e-05
1.40505e-05
1.40509e-05
1.40513e-05
1.40518e-05
1.40523e-05
1.40529e-05
1.40536e-05
1.40544e-05
1.40553e-05
1.40563e-05
1.40575e-05
1.40588e-05
1.40602e-05
1.40618e-05
1.40636e-05
1.40655e-05
1.40677e-05
1.40701e-05
1.40729e-05
1.40761e-05
1.40798e-05
1.40839e-05
1.40885e-05
1.40936e-05
1.40993e-05
1.41055e-05
1.41122e-05
1.41194e-05
1.41273e-05
1.41361e-05
1.41459e-05
1.41571e-05
1.417e-05
1.41849e-05
1.42018e-05
1.42208e-05
1.42419e-05
1.42652e-05
1.42905e-05
1.43178e-05
1.4347e-05
1.43783e-05
1.44118e-05
1.44482e-05
1.4489e-05
1.45361e-05
1.45915e-05
1.46561e-05
1.47303e-05
1.4814e-05
1.49067e-05
1.50073e-05
1.51152e-05
1.52293e-05
1.53491e-05
1.54741e-05
1.56041e-05
1.57389e-05
1.58795e-05
1.60291e-05
1.61959e-05
1.6389e-05
1.66117e-05
1.68606e-05
1.71286e-05
1.74078e-05
1.76911e-05
1.79725e-05
1.82476e-05
1.85139e-05
1.87701e-05
1.90151e-05
1.9247e-05
1.94631e-05
1.96607e-05
1.98375e-05
1.9992e-05
2.01235e-05
2.02309e-05
2.03117e-05
2.03647e-05
2.0389e-05
2.03873e-05
2.03607e-05
2.03056e-05
2.02232e-05
2.01155e-05
1.99842e-05
1.98313e-05
1.96585e-05
1.94662e-05
1.92537e-05
1.90207e-05
1.87689e-05
1.85012e-05
1.82205e-05
1.79289e-05
1.40482e-05
1.40483e-05
1.40484e-05
1.40485e-05
1.40486e-05
1.40487e-05
1.40489e-05
1.40491e-05
1.40493e-05
1.40495e-05
1.40498e-05
1.40501e-05
1.40504e-05
1.40508e-05
1.40513e-05
1.40518e-05
1.40524e-05
1.40531e-05
1.40539e-05
1.40547e-05
1.40558e-05
1.40569e-05
1.40582e-05
1.40598e-05
1.40615e-05
1.40634e-05
1.40656e-05
1.40681e-05
1.40708e-05
1.40739e-05
1.40774e-05
1.40814e-05
1.4086e-05
1.40913e-05
1.40972e-05
1.4104e-05
1.41116e-05
1.41201e-05
1.41295e-05
1.41398e-05
1.41512e-05
1.41639e-05
1.41782e-05
1.41944e-05
1.42129e-05
1.42341e-05
1.42582e-05
1.42854e-05
1.43158e-05
1.43494e-05
1.43862e-05
1.44261e-05
1.4469e-05
1.45152e-05
1.45653e-05
1.46207e-05
1.46834e-05
1.47554e-05
1.48381e-05
1.49323e-05
1.50383e-05
1.51561e-05
1.52852e-05
1.54248e-05
1.55742e-05
1.57326e-05
1.58996e-05
1.60752e-05
1.62606e-05
1.64597e-05
1.66818e-05
1.69382e-05
1.7236e-05
1.75761e-05
1.79552e-05
1.83677e-05
1.88071e-05
1.92667e-05
1.97406e-05
2.0224e-05
2.0714e-05
2.12089e-05
2.17073e-05
2.22085e-05
2.27148e-05
2.32373e-05
2.3809e-05
2.44616e-05
2.51879e-05
2.59596e-05
2.67468e-05
2.75257e-05
2.82797e-05
2.89978e-05
2.96737e-05
3.03065e-05
3.08987e-05
3.14519e-05
3.19644e-05
3.24314e-05
3.2849e-05
3.32151e-05
3.35288e-05
3.37918e-05
3.40047e-05
3.41618e-05
3.42584e-05
3.43022e-05
3.42963e-05
3.42392e-05
3.41229e-05
3.39517e-05
3.37294e-05
3.34574e-05
3.31372e-05
3.27715e-05
3.23584e-05
3.18925e-05
3.13685e-05
3.07857e-05
3.01481e-05
2.9459e-05
2.87182e-05
1.40506e-05
1.4051e-05
1.40516e-05
1.40522e-05
1.4053e-05
1.40538e-05
1.40548e-05
1.40559e-05
1.40572e-05
1.40586e-05
1.40604e-05
1.40623e-05
1.40646e-05
1.40672e-05
1.40701e-05
1.40735e-05
1.40773e-05
1.40816e-05
1.40865e-05
1.40922e-05
1.40986e-05
1.4106e-05
1.41145e-05
1.41242e-05
1.41352e-05
1.41475e-05
1.41613e-05
1.41768e-05
1.41942e-05
1.42137e-05
1.4236e-05
1.42615e-05
1.42907e-05
1.4324e-05
1.43618e-05
1.44045e-05
1.44521e-05
1.45048e-05
1.45628e-05
1.46261e-05
1.46954e-05
1.47722e-05
1.48586e-05
1.49568e-05
1.50686e-05
1.51953e-05
1.53375e-05
1.54954e-05
1.56687e-05
1.58566e-05
1.60581e-05
1.6272e-05
1.64976e-05
1.67352e-05
1.69882e-05
1.72653e-05
1.75769e-05
1.79298e-05
1.83257e-05
1.87627e-05
1.9237e-05
1.97433e-05
2.02757e-05
2.08281e-05
2.13952e-05
2.1973e-05
2.25591e-05
2.31534e-05
2.37594e-05
2.43899e-05
2.50781e-05
2.58575e-05
2.67284e-05
2.76713e-05
2.86624e-05
2.96796e-05
3.07041e-05
3.17201e-05
3.27162e-05
3.36864e-05
3.463e-05
3.55481e-05
3.64406e-05
3.73079e-05
3.81543e-05
3.89949e-05
3.99067e-05
4.09876e-05
4.21521e-05
4.33175e-05
4.44332e-05
4.54732e-05
4.64275e-05
4.72938e-05
4.80739e-05
4.87753e-05
4.94091e-05
4.99826e-05
5.04956e-05
5.09429e-05
5.13243e-05
5.16415e-05
5.18951e-05
5.2094e-05
5.22453e-05
5.2342e-05
5.23638e-05
5.2351e-05
5.23082e-05
5.22135e-05
5.20665e-05
5.18642e-05
5.16264e-05
5.13508e-05
5.10273e-05
5.06625e-05
5.0253e-05
4.97869e-05
4.92518e-05
4.86353e-05
4.79388e-05
4.71619e-05
4.62961e-05
4.5329e-05
4.42367e-05
1.40652e-05
1.40681e-05
1.40715e-05
1.40755e-05
1.40801e-05
1.40853e-05
1.40913e-05
1.40982e-05
1.41062e-05
1.41155e-05
1.41261e-05
1.41383e-05
1.41523e-05
1.41683e-05
1.41864e-05
1.42069e-05
1.42302e-05
1.42566e-05
1.42867e-05
1.43213e-05
1.43609e-05
1.44062e-05
1.44577e-05
1.45162e-05
1.45819e-05
1.46554e-05
1.47369e-05
1.48271e-05
1.49276e-05
1.50404e-05
1.51683e-05
1.53134e-05
1.54776e-05
1.56622e-05
1.5868e-05
1.6095e-05
1.63429e-05
1.66107e-05
1.68973e-05
1.72022e-05
1.75279e-05
1.78821e-05
1.82745e-05
1.87115e-05
1.91954e-05
1.97249e-05
2.02962e-05
2.0904e-05
2.15418e-05
2.22026e-05
2.28792e-05
2.35659e-05
2.42591e-05
2.49602e-05
2.56812e-05
2.64529e-05
2.73e-05
2.82219e-05
2.92044e-05
3.023e-05
3.12821e-05
3.23453e-05
3.34057e-05
3.44515e-05
3.54748e-05
3.64722e-05
3.74448e-05
3.83952e-05
3.93316e-05
4.02719e-05
4.12961e-05
4.24877e-05
4.37782e-05
4.50972e-05
4.63967e-05
4.76474e-05
4.88319e-05
4.99385e-05
5.0963e-05
5.19088e-05
5.27849e-05
5.35981e-05
5.43491e-05
5.50388e-05
5.56659e-05
5.62305e-05
5.67271e-05
5.71456e-05
5.74971e-05
5.77909e-05
5.80328e-05
5.82292e-05
5.83854e-05
5.85083e-05
5.86046e-05
5.86827e-05
5.87523e-05
5.88096e-05
5.8853e-05
5.88736e-05
5.8869e-05
5.88512e-05
5.88141e-05
5.87579e-05
5.86852e-05
5.8598e-05
5.84937e-05
5.8369e-05
5.82288e-05
5.80815e-05
5.7924e-05
5.77663e-05
5.75889e-05
5.73855e-05
5.7173e-05
5.69598e-05
5.67273e-05
5.64815e-05
5.62224e-05
5.59463e-05
5.56596e-05
5.53462e-05
5.50051e-05
5.46399e-05
5.42447e-05
1.41538e-05
1.41717e-05
1.41924e-05
1.42162e-05
1.42434e-05
1.42747e-05
1.43105e-05
1.43516e-05
1.43989e-05
1.44534e-05
1.45159e-05
1.45873e-05
1.46684e-05
1.47601e-05
1.48631e-05
1.49782e-05
1.51073e-05
1.52525e-05
1.54168e-05
1.56026e-05
1.58123e-05
1.60478e-05
1.631e-05
1.65998e-05
1.69169e-05
1.72606e-05
1.76305e-05
1.80276e-05
1.84578e-05
1.89297e-05
1.94501e-05
2.0022e-05
2.0645e-05
2.13163e-05
2.20309e-05
2.27826e-05
2.35637e-05
2.43663e-05
2.51832e-05
2.60119e-05
2.68607e-05
2.77552e-05
2.87153e-05
2.97399e-05
3.08169e-05
3.19313e-05
3.30681e-05
3.42128e-05
3.53517e-05
3.64722e-05
3.75643e-05
3.86231e-05
3.9648e-05
4.0646e-05
4.16365e-05
4.27071e-05
4.39011e-05
4.51639e-05
4.64434e-05
4.77036e-05
4.8921e-05
5.00798e-05
5.11693e-05