/*--------------------------------*- C++ -*----------------------------------*\
| =========                 |                                                 |
| \\      /  F ield         | OpenFOAM: The Open Source CFD Toolbox           |
|  \\    /   O peration     | Version:  v1706                                 |
|   \\  /    A nd           | Web:      www.OpenFOAM.com                      |
|    \\/     M anipulation  |                                                 |
\*---------------------------------------------------------------------------*/
FoamFile
{
    version     2.0;
    format      ascii;
    class       volScalarField;
    location    "1.4e-05";
    object      kappatr;
}
// * * * * * * * * * * * * * * * * * * * * * * * * * * * * * * * * * * * * * //

dimensions      [1 1 -3 -1 0 0 0];


internalField   nonuniform List<scalar> 
29871
(
0.014593
0.014593
0.014593
0.014593
0.014593
0.014593
0.014593
0.014593
0.014593
0.014593
0.014593
0.014593
0.014593
0.014593
0.014593
0.014593
0.014593
0.014593
0.014593
0.014593
0.014593
0.014593
0.014593
0.014593
0.014593
0.014593
0.014593
0.014593
0.014593
0.014593
0.014593
0.014593
0.014593
0.014593
0.014593
0.014593
0.014593
0.014593
0.014593
0.014593
0.014593
0.014593
0.014593
0.014593
0.014593
0.014593
0.014593
0.014593
0.014593
0.014593
0.014593
0.014593
0.014593
0.014593
0.014593
0.014593
0.014593
0.014593
0.014593
0.014593
0.014593
0.014593
0.014593
0.014593
0.014593
0.014593
0.014593
0.014593
0.014593
0.014593
0.014593
0.014593
0.014593
0.014593
0.014593
0.014593
0.014593
0.014593
0.014593
0.014593
0.014593
0.014593
0.014593
0.014593
0.014593
0.014593
0.014593
0.014593
0.014593
0.014593
0.014593
0.014593
0.014593
0.014593
0.014593
0.014593
0.014593
0.014593
0.014593
0.014593
0.014593
0.014593
0.014593
0.014593
0.014593
0.014593
0.014593
0.014593
0.014593
0.014593
0.014593
0.014593
0.014593
0.014593
0.014593
0.014593
0.014593
0.014593
0.014593
0.014593
0.014593
0.014593
0.014593
0.014593
0.014593
0.014593
0.014593
0.014593
0.014593
0.014593
0.014593
0.014593
0.014593
0.014593
0.014593
0.014593
0.014593
0.014593
0.014593
0.014593
0.014593
0.014593
0.014593
0.014593
0.014593
0.014593
0.014593
0.014593
0.014593
0.014593
0.014593
0.014593
0.014593
0.014593
0.014593
0.014593
0.014593
0.014593
0.014593
0.014593
0.014593
0.014593
0.014593
0.014593
0.014593
0.014593
0.014593
0.014593
0.014593
0.014593
0.014593
0.014593
0.014593
0.014593
0.014593
0.014593
0.014593
0.014593
0.014593
0.014593
0.014593
0.014593
0.014593
0.014593
0.014593
0.014593
0.014593
0.014593
0.014593
0.014593
0.014593
0.014593
0.014593
0.014593
0.014593
0.014593
0.014593
0.014593
0.014593
0.014593
0.014593
0.014593
0.014593
0.014593
0.014593
0.014593
0.014593
0.014593
0.014593
0.014593
0.014593
0.014593
0.014593
0.014593
0.014593
0.014593
0.014593
0.014593
0.014593
0.014593
0.014593
0.014593
0.014593
0.014593
0.014593
0.014593
0.014593
0.014593
0.014593
0.014593
0.014593
0.014593
0.014593
0.014593
0.014593
0.014593
0.014593
0.014593
0.014593
0.014593
0.014593
0.014593
0.014593
0.014593
0.014593
0.014593
0.014593
0.014593
0.014593
0.014593
0.014593
0.014593
0.014593
0.014593
0.014593
0.014593
0.014593
0.014593
0.014593
0.014593
0.014593
0.014593
0.014593
0.014593
0.014593
0.014593
0.014593
0.014593
0.014593
0.014593
0.014593
0.014593
0.014593
0.014593
0.014593
0.014593
0.014593
0.014593
0.014593
0.014593
0.014593
0.014593
0.014593
0.014593
0.014593
0.014593
0.014593
0.014593
0.014593
0.014593
0.014593
0.014593
0.014593
0.014593
0.014593
0.014593
0.014593
0.014593
0.014593
0.014593
0.014593
0.014593
0.014593
0.014593
0.014593
0.014593
0.014593
0.014593
0.014593
0.014593
0.014593
0.014593
0.014593
0.014593
0.014593
0.014593
0.014593
0.014593
0.014593
0.014593
0.014593
0.014593
0.014593
0.014593
0.014593
0.014593
0.014593
0.014593
0.014593
0.014593
0.014593
0.014593
0.014593
0.014593
0.014593
0.014593
0.014593
0.014593
0.014593
0.014593
0.014593
0.014593
0.014593
0.014593
0.014593
0.014593
0.014593
0.014593
0.014593
0.014593
0.014593
0.014593
0.014593
0.014593
0.014593
0.014593
0.014593
0.014593
0.014593
0.014593
0.014593
0.014593
0.014593
0.014593
0.014593
0.014593
0.014593
0.014593
0.014593
0.014593
0.014593
0.014593
0.014593
0.014593
0.014593
0.014593
0.014593
0.014593
0.014593
0.014593
0.014593
0.014593
0.014593
0.014593
0.014593
0.014593
0.014593
0.014593
0.014593
0.014593
0.014593
0.014593
0.014593
0.014593
0.014593
0.014593
0.014593
0.014593
0.014593
0.014593
0.014593
0.014593
0.014593
0.014593
0.014593
0.014593
0.014593
0.014593
0.014593
0.014593
0.014593
0.014593
0.014593
0.014593
0.014593
0.014593
0.014593
0.014593
0.014593
0.014593
0.014593
0.014593
0.014593
0.014593
0.014593
0.014593
0.014593
0.014593
0.014593
0.014593
0.014593
0.014593
0.014593
0.014593
0.014593
0.014593
0.014593
0.014593
0.014593
0.014593
0.014593
0.014593
0.014593
0.014593
0.014593
0.014593
0.014593
0.014593
0.014593
0.014593
0.014593
0.014593
0.014593
0.014593
0.014593
0.014593
0.014593
0.014593
0.014593
0.014593
0.014593
0.014593
0.014593
0.014593
0.014593
0.014593
0.014593
0.014593
0.014593
0.014593
0.014593
0.014593
0.014593
0.014593
0.014593
0.014593
0.014593
0.014593
0.014593
0.014593
0.014593
0.014593
0.014593
0.014593
0.014593
0.014593
0.014593
0.014593
0.014593
0.014593
0.014593
0.014593
0.014593
0.014593
0.014593
0.014593
0.014593
0.014593
0.014593
0.014593
0.014593
0.014593
0.014593
0.014593
0.014593
0.014593
0.014593
0.014593
0.014593
0.014593
0.014593
0.014593
0.014593
0.014593
0.014593
0.014593
0.014593
0.014593
0.014593
0.014593
0.014593
0.014593
0.014593
0.014593
0.014593
0.014593
0.014593
0.014593
0.014593
0.014593
0.014593
0.014593
0.014593
0.014593
0.014593
0.014593
0.014593
0.014593
0.014593
0.014593
0.014593
0.014593
0.014593
0.014593
0.014593
0.014593
0.014593
0.014593
0.014593
0.014593
0.014593
0.014593
0.014593
0.014593
0.014593
0.014593
0.014593
0.014593
0.014593
0.014593
0.014593
0.014593
0.014593
0.014593
0.014593
0.014593
0.014593
0.014593
0.014593
0.014593
0.014593
0.014593
0.014593
0.014593
0.014593
0.014593
0.014593
0.014593
0.014593
0.014593
0.014593
0.014593
0.014593
0.014593
0.014593
0.014593
0.014593
0.014593
0.014593
0.014593
0.014593
0.014593
0.014593
0.014593
0.014593
0.014593
0.014593
0.014593
0.014593
0.014593
0.014593
0.014593
0.014593
0.014593
0.014593
0.014593
0.014593
0.014593
0.014593
0.014593
0.014593
0.014593
0.014593
0.014593
0.014593
0.014593
0.014593
0.014593
0.014593
0.014593
0.014593
0.014593
0.014593
0.014593
0.014593
0.014593
0.014593
0.014593
0.014593
0.014593
0.014593
0.014593
0.014593
0.014593
0.014593
0.014593
0.014593
0.014593
0.014593
0.014593
0.014593
0.014593
0.014593
0.014593
0.014593
0.014593
0.014593
0.014593
0.014593
0.014593
0.014593
0.014593
0.014593
0.014593
0.014593
0.014593
0.014593
0.014593
0.014593
0.014593
0.014593
0.014593
0.014593
0.014593
0.014593
0.014593
0.014593
0.014593
0.014593
0.014593
0.014593
0.014593
0.014593
0.014593
0.014593
0.014593
0.014593
0.014593
0.014593
0.014593
0.014593
0.014593
0.014593
0.014593
0.014593
0.014593
0.014593
0.014593
0.014593
0.014593
0.014593
0.014593
0.014593
0.014593
0.014593
0.014593
0.014593
0.014593
0.014593
0.014593
0.014593
0.014593
0.014593
0.014593
0.014593
0.014593
0.014593
0.014593
0.014593
0.014593
0.014593
0.014593
0.014593
0.014593
0.014593
0.014593
0.014593
0.014593
0.014593
0.014593
0.014593
0.014593
0.014593
0.014593
0.014593
0.014593
0.014593
0.014593
0.014593
0.014593
0.014593
0.014593
0.014593
0.014593
0.014593
0.014593
0.014593
0.014593
0.014593
0.014593
0.014593
0.014593
0.014593
0.014593
0.014593
0.014593
0.014593
0.014593
0.014593
0.014593
0.014593
0.014593
0.014593
0.014593
0.014593
0.014593
0.014593
0.014593
0.014593
0.014593
0.014593
0.014593
0.014593
0.014593
0.014593
0.014593
0.014593
0.014593
0.014593
0.014593
0.014593
0.014593
0.014593
0.014593
0.014593
0.014593
0.014593
0.014593
0.014593
0.014593
0.014593
0.014593
0.014593
0.014593
0.014593
0.014593
0.014593
0.014593
0.014593
0.014593
0.014593
0.014593
0.014593
0.014593
0.014593
0.014593
0.014593
0.014593
0.014593
0.014593
0.014593
0.014593
0.014593
0.014593
0.014593
0.014593
0.014593
0.014593
0.014593
0.014593
0.014593
0.014593
0.014593
0.014593
0.014593
0.014593
0.014593
0.014593
0.014593
0.014593
0.014593
0.014593
0.014593
0.014593
0.014593
0.014593
0.014593
0.014593
0.014593
0.014593
0.014593
0.014593
0.014593
0.014593
0.014593
0.014593
0.014593
0.014593
0.014593
0.014593
0.014593
0.014593
0.014593
0.014593
0.014593
0.014593
0.014593
0.014593
0.014593
0.014593
0.014593
0.014593
0.014593
0.014593
0.014593
0.014593
0.014593
0.014593
0.014593
0.014593
0.014593
0.014593
0.014593
0.014593
0.014593
0.014593
0.014593
0.014593
0.014593
0.014593
0.014593
0.014593
0.014593
0.014593
0.014593
0.014593
0.014593
0.014593
0.014593
0.014593
0.014593
0.014593
0.014593
0.014593
0.014593
0.014593
0.014593
0.014593
0.014593
0.014593
0.014593
0.014593
0.014593
0.014593
0.014593
0.014593
0.014593
0.014593
0.014593
0.014593
0.014593
0.014593
0.014593
0.014593
0.014593
0.014593
0.014593
0.014593
0.014593
0.014593
0.014593
0.014593
0.014593
0.014593
0.014593
0.014593
0.014593
0.014593
0.014593
0.014593
0.014593
0.014593
0.014593
0.014593
0.014593
0.014593
0.014593
0.014593
0.014593
0.014593
0.014593
0.014593
0.014593
0.014593
0.014593
0.014593
0.014593
0.014593
0.014593
0.014593
0.014593
0.014593
0.014593
0.014593
0.014593
0.014593
0.014593
0.014593
0.014593
0.014593
0.014593
0.014593
0.014593
0.014593
0.014593
0.014593
0.014593
0.014593
0.014593
0.014593
0.014593
0.014593
0.014593
0.014593
0.014593
0.014593
0.014593
0.014593
0.014593
0.014593
0.014593
0.014593
0.014593
0.014593
0.014593
0.014593
0.014593
0.014593
0.014593
0.014593
0.014593
0.014593
0.014593
0.014593
0.014593
0.014593
0.014593
0.014593
0.014593
0.014593
0.014593
0.014593
0.014593
0.014593
0.014593
0.014593
0.014593
0.014593
0.014593
0.014593
0.014593
0.014593
0.014593
0.014593
0.014593
0.014593
0.014593
0.014593
0.014593
0.014593
0.014593
0.014593
0.014593
0.014593
0.014593
0.014593
0.014593
0.014593
0.014593
0.014593
0.014593
0.014593
0.014593
0.014593
0.014593
0.014593
0.014593
0.014593
0.014593
0.014593
0.014593
0.014593
0.014593
0.014593
0.014593
0.014593
0.014593
0.014593
0.014593
0.014593
0.014593
0.014593
0.014593
0.014593
0.014593
0.014593
0.014593
0.014593
0.014593
0.014593
0.014593
0.014593
0.014593
0.014593
0.014593
0.014593
0.014593
0.014593
0.014593
0.014593
0.014593
0.014593
0.014593
0.014593
0.014593
0.014593
0.014593
0.014593
0.014593
0.014593
0.014593
0.014593
0.014593
0.014593
0.014593
0.014593
0.014593
0.014593
0.014593
0.014593
0.014593
0.014593
0.014593
0.014593
0.014593
0.014593
0.014593
0.014593
0.014593
0.014593
0.014593
0.014593
0.014593
0.014593
0.014593
0.014593
0.014593
0.014593
0.014593
0.014593
0.014593
0.014593
0.014593
0.014593
0.014593
0.014593
0.014593
0.014593
0.014593
0.014593
0.014593
0.014593
0.014593
0.014593
0.014593
0.014593
0.014593
0.014593
0.014593
0.014593
0.014593
0.014593
0.014593
0.014593
0.014593
0.014593
0.014593
0.014593
0.014593
0.014593
0.014593
0.014593
0.014593
0.014593
0.014593
0.014593
0.014593
0.014593
0.014593
0.014593
0.014593
0.014593
0.014593
0.014593
0.014593
0.014593
0.014593
0.014593
0.014593
0.014593
0.014593
0.014593
0.014593
0.014593
0.014593
0.014593
0.014593
0.014593
0.014593
0.014593
0.014593
0.014593
0.014593
0.014593
0.014593
0.014593
0.014593
0.014593
0.014593
0.014593
0.014593
0.014593
0.014593
0.014593
0.014593
0.014593
0.014593
0.014593
0.014593
0.014593
0.014593
0.014593
0.014593
0.014593
0.014593
0.014593
0.014593
0.014593
0.014593
0.014593
0.014593
0.014593
0.014593
0.014593
0.014593
0.014593
0.014593
0.014593
0.014593
0.014593
0.014593
0.014593
0.014593
0.014593
0.014593
0.014593
0.014593
0.014593
0.014593
0.014593
0.014593
0.014593
0.014593
0.014593
0.014593
0.014593
0.014593
0.014593
0.014593
0.014593
0.014593
0.014593
0.014593
0.014593
0.014593
0.014593
0.014593
0.014593
0.014593
0.014593
0.014593
0.014593
0.014593
0.014593
0.014593
0.014593
0.014593
0.014593
0.014593
0.014593
0.014593
0.014593
0.014593
0.014593
0.014593
0.014593
0.014593
0.014593
0.014593
0.014593
0.014593
0.014593
0.014593
0.014593
0.014593
0.014593
0.014593
0.014593
0.014593
0.014593
0.014593
0.014593
0.014593
0.014593
0.014593
0.014593
0.014593
0.014593
0.014593
0.014593
0.014593
0.014593
0.014593
0.014593
0.014593
0.014593
0.014593
0.0145931
0.0145931
0.0145931
0.0145931
0.0145931
0.0145931
0.0145931
0.0145931
0.0145931
0.0145931
0.0145931
0.0145931
0.0145931
0.0145931
0.0145931
0.0145931
0.014593
0.014593
0.014593
0.014593
0.014593
0.014593
0.014593
0.014593
0.014593
0.014593
0.014593
0.014593
0.014593
0.014593
0.014593
0.014593
0.014593
0.014593
0.014593
0.014593
0.014593
0.014593
0.014593
0.014593
0.014593
0.014593
0.014593
0.014593
0.014593
0.014593
0.014593
0.014593
0.014593
0.014593
0.014593
0.014593
0.014593
0.014593
0.014593
0.014593
0.014593
0.014593
0.014593
0.014593
0.014593
0.014593
0.014593
0.014593
0.014593
0.014593
0.014593
0.014593
0.014593
0.014593
0.014593
0.014593
0.014593
0.014593
0.014593
0.014593
0.014593
0.014593
0.014593
0.014593
0.014593
0.014593
0.014593
0.014593
0.014593
0.014593
0.014593
0.0145931
0.0145931
0.0145931
0.0145931
0.0145931
0.0145931
0.0145931
0.0145931
0.0145931
0.0145931
0.0145931
0.0145931
0.0145931
0.0145932
0.0145932
0.0145932
0.0145932
0.0145932
0.0145933
0.0145933
0.0145933
0.0145933
0.0145933
0.0145933
0.0145934
0.0145934
0.0145934
0.0145934
0.0145934
0.0145934
0.0145934
0.0145934
0.0145934
0.0145934
0.0145934
0.0145934
0.0145934
0.0145934
0.0145934
0.0145934
0.0145934
0.0145933
0.0145933
0.0145933
0.0145933
0.0145933
0.014593
0.014593
0.014593
0.014593
0.014593
0.014593
0.014593
0.014593
0.014593
0.014593
0.014593
0.014593
0.014593
0.014593
0.014593
0.014593
0.014593
0.014593
0.014593
0.014593
0.014593
0.014593
0.014593
0.014593
0.014593
0.014593
0.014593
0.014593
0.014593
0.014593
0.014593
0.014593
0.014593
0.014593
0.014593
0.014593
0.014593
0.014593
0.014593
0.014593
0.014593
0.014593
0.014593
0.014593
0.014593
0.014593
0.014593
0.014593
0.0145931
0.0145931
0.0145931
0.0145931
0.0145931
0.0145931
0.0145931
0.0145931
0.0145931
0.0145931
0.0145931
0.0145932
0.0145932
0.0145932
0.0145932
0.0145932
0.0145933
0.0145933
0.0145933
0.0145933
0.0145934
0.0145934
0.0145935
0.0145935
0.0145936
0.0145937
0.0145937
0.0145938
0.0145938
0.0145939
0.014594
0.0145941
0.0145942
0.0145943
0.0145945
0.0145946
0.0145948
0.0145949
0.0145951
0.0145952
0.0145954
0.0145955
0.0145957
0.0145958
0.0145959
0.014596
0.0145961
0.0145962
0.0145962
0.0145963
0.0145963
0.0145963
0.0145963
0.0145962
0.0145962
0.0145961
0.014596
0.0145959
0.0145958
0.0145957
0.0145955
0.0145954
0.0145953
0.0145951
0.0145949
0.014593
0.014593
0.014593
0.014593
0.014593
0.014593
0.014593
0.014593
0.014593
0.014593
0.014593
0.014593
0.014593
0.014593
0.014593
0.014593
0.014593
0.014593
0.014593
0.014593
0.014593
0.014593
0.014593
0.014593
0.014593
0.014593
0.014593
0.014593
0.014593
0.014593
0.014593
0.014593
0.0145931
0.0145931
0.0145931
0.0145931
0.0145931
0.0145931
0.0145931
0.0145931
0.0145931
0.0145931
0.0145931
0.0145932
0.0145932
0.0145932
0.0145932
0.0145933
0.0145933
0.0145933
0.0145933
0.0145934
0.0145934
0.0145935
0.0145935
0.0145936
0.0145937
0.0145937
0.0145938
0.0145939
0.014594
0.0145941
0.0145942
0.0145943
0.0145945
0.0145946
0.0145948
0.014595
0.0145953
0.0145956
0.0145959
0.0145962
0.0145966
0.014597
0.0145974
0.0145978
0.0145983
0.0145988
0.0145993
0.0145999
0.0146005
0.0146013
0.0146021
0.014603
0.0146041
0.0146052
0.0146063
0.0146075
0.0146086
0.0146098
0.0146109
0.014612
0.014613
0.0146139
0.0146148
0.0146156
0.0146163
0.0146168
0.0146173
0.0146175
0.0146177
0.0146177
0.0146175
0.0146173
0.0146169
0.0146163
0.0146157
0.0146149
0.014614
0.0146131
0.0146121
0.014611
0.0146099
0.0146088
0.0146076
0.014593
0.014593
0.014593
0.014593
0.014593
0.014593
0.014593
0.014593
0.014593
0.014593
0.014593
0.014593
0.014593
0.014593
0.014593
0.014593
0.014593
0.0145931
0.0145931
0.0145931
0.0145931
0.0145931
0.0145931
0.0145931
0.0145931
0.0145931
0.0145932
0.0145932
0.0145932
0.0145932
0.0145933
0.0145933
0.0145933
0.0145934
0.0145934
0.0145935
0.0145935
0.0145936
0.0145936
0.0145937
0.0145938
0.0145939
0.014594
0.0145941
0.0145943
0.0145944
0.0145946
0.0145948
0.014595
0.0145952
0.0145954
0.0145957
0.014596
0.0145963
0.0145967
0.0145972
0.0145977
0.0145982
0.0145988
0.0145995
0.0146002
0.0146009
0.0146018
0.0146027
0.0146037
0.0146049
0.0146062
0.0146078
0.0146096
0.0146117
0.0146139
0.0146164
0.0146191
0.0146219
0.0146249
0.0146281
0.0146315
0.014635
0.0146388
0.014643
0.0146478
0.0146534
0.0146598
0.0146668
0.0146745
0.0146827
0.014691
0.0146995
0.014708
0.0147163
0.0147245
0.0147323
0.0147398
0.0147467
0.0147531
0.0147587
0.0147636
0.0147676
0.0147707
0.0147728
0.0147738
0.0147738
0.0147728
0.0147708
0.0147677
0.0147638
0.014759
0.0147535
0.0147473
0.0147405
0.0147332
0.0147254
0.0147171
0.0147086
0.0146999
0.0146912
0.014593
0.014593
0.014593
0.014593
0.014593
0.014593
0.014593
0.014593
0.014593
0.014593
0.0145931
0.0145931
0.0145931
0.0145931
0.0145931
0.0145931
0.0145931
0.0145931
0.0145932
0.0145932
0.0145932
0.0145932
0.0145933
0.0145933
0.0145933
0.0145934
0.0145934
0.0145935
0.0145936
0.0145936
0.0145937
0.0145938
0.0145939
0.014594
0.0145942
0.0145943
0.0145945
0.0145947
0.0145949
0.0145952
0.0145954
0.0145957
0.0145961
0.0145964
0.0145969
0.0145974
0.0145979
0.0145985
0.0145992
0.0146
0.0146009
0.0146018
0.0146029
0.014604
0.0146052
0.0146065
0.014608
0.0146097
0.0146117
0.0146139
0.0146164
0.0146193
0.0146225
0.014626
0.0146299
0.0146341
0.0146386
0.0146435
0.0146487
0.0146544
0.0146608
0.014668
0.0146765
0.0146864
0.0146979
0.014711
0.0147257
0.0147419
0.0147594
0.0147783
0.0147983
0.0148195
0.0148417
0.014865
0.0148896
0.014916
0.0149455
0.0149796
0.0150191
0.0150642
0.015114
0.0151675
0.0152234
0.0152804
0.0153377
0.0153944
0.01545
0.015504
0.015556
0.0156053
0.015651
0.0156925
0.0157294
0.0157611
0.0157872
0.0158071
0.0158204
0.0158268
0.0158267
0.0158202
0.0158071
0.0157875
0.0157618
0.0157306
0.0156945
0.0156541
0.0156095
0.0155611
0.015509
0.0154538
0.0153964
0.0153374
0.0152775
0.0145931
0.0145931
0.0145931
0.0145931
0.0145931
0.0145932
0.0145932
0.0145932
0.0145932
0.0145933
0.0145933
0.0145934
0.0145934
0.0145935
0.0145936
0.0145936
0.0145937
0.0145939
0.014594
0.0145941
0.0145943
0.0145945
0.0145947
0.0145949
0.0145952
0.0145955
0.0145958
0.0145962
0.0145967
0.0145972
0.0145977
0.0145983
0.0145991
0.0145999
0.0146008
0.0146019
0.0146031
0.0146044
0.0146059
0.0146076
0.0146094
0.0146114
0.0146137
0.0146162
0.0146191
0.0146224
0.0146262
0.0146305
0.0146353
0.0146406
0.0146465
0.0146529
0.0146599
0.0146674
0.0146757
0.0146847
0.0146949
0.0147066
0.01472
0.0147354
0.0147529
0.0147727
0.0147947
0.0148188
0.0148451
0.0148735
0.0149039
0.0149363
0.0149711
0.0150089
0.0150513
0.0151003
0.0151578
0.0152249
0.015302
0.015389
0.0154852
0.0155898
0.0157018
0.0158204
0.0159448
0.0160747
0.0162097
0.0163498
0.0164958
0.0166512
0.0168244
0.0170251
0.0172565
0.017515
0.0177934
0.0180834
0.0183777
0.01867
0.0189558
0.0192325
0.0194986
0.0197531
0.019994
0.0202185
0.0204238
0.0206074
0.0207679
0.0209045
0.0210161
0.0211001
0.0211551
0.0211804
0.0211786
0.0211509
0.0210937
0.0210081
0.0208962
0.0207598
0.020601
0.0204215
0.0202217
0.0200009
0.0197589
0.0194973
0.0192192
0.0189277
0.0186248
0.0145935
0.0145935
0.0145936
0.0145937
0.0145938
0.014594
0.0145941
0.0145943
0.0145945
0.0145948
0.0145951
0.0145954
0.0145957
0.0145962
0.0145966
0.0145972
0.0145978
0.0145985
0.0145993
0.0146002
0.0146013
0.0146025
0.0146039
0.0146054
0.0146072
0.0146093
0.0146115
0.0146141
0.0146169
0.0146202
0.0146238
0.014628
0.0146327
0.0146382
0.0146444
0.0146514
0.0146593
0.0146681
0.0146779
0.0146886
0.0147005
0.0147136
0.0147284
0.0147453
0.0147645
0.0147866
0.0148116
0.0148399
0.0148714
0.0149063
0.0149445
0.014986
0.0150306
0.0150786
0.0151306
0.0151881
0.0152533
0.0153281
0.015414
0.0155118
0.015622
0.0157444
0.0158784
0.0160235
0.0161786
0.0163432
0.0165167
0.0166991
0.0168918
0.0170986
0.0173292
0.0175956
0.0179049
0.0182583
0.0186521
0.0190806
0.019537
0.0200145
0.0205067
0.0210089
0.0215179
0.0220321
0.0225498
0.0230705
0.0235964
0.0241392
0.0247331
0.025411
0.0261655
0.0269672
0.0277849
0.028594
0.0293773
0.0301232
0.0308254
0.0314827
0.0320979
0.0326726
0.033205
0.0336901
0.034124
0.0345043
0.0348301
0.0351033
0.0353245
0.0354877
0.035588
0.0356335
0.0356274
0.0355681
0.0354472
0.0352694
0.0350385
0.0347559
0.0344233
0.0340434
0.0336143
0.0331303
0.0325859
0.0319805
0.0313182
0.0306024
0.0298328
0.0145959
0.0145964
0.0145969
0.0145976
0.0145984
0.0145992
0.0146003
0.0146014
0.0146027
0.0146043
0.0146061
0.0146081
0.0146105
0.0146131
0.0146162
0.0146197
0.0146236
0.0146281
0.0146332
0.0146391
0.0146458
0.0146535
0.0146623
0.0146724
0.0146838
0.0146966
0.014711
0.014727
0.0147451
0.0147654
0.0147885
0.014815
0.0148453
0.0148799
0.0149192
0.0149635
0.015013
0.0150678
0.015128
0.0151938
0.0152658
0.0153455
0.0154353
0.0155373
0.0156535
0.015785
0.0159327
0.0160968
0.0162768
0.016472
0.0166813
0.0169036
0.0171379
0.0173847
0.0176475
0.0179354
0.0182591
0.0186257
0.0190369
0.0194909
0.0199836
0.0205095
0.0210626
0.0216365
0.0222256
0.0228258
0.0234347
0.024052
0.0246815
0.0253365
0.0260515
0.0268611
0.0277657
0.0287453
0.0297748
0.0308315
0.0318957
0.0329512
0.033986
0.0349938
0.0359741
0.0369278
0.037855
0.0387558
0.0396352
0.0405084
0.0414556
0.0425784
0.0437881
0.0449987
0.0461577
0.0472381
0.0482295
0.0491294
0.0499398
0.0506684
0.0513268
0.0519225
0.0524554
0.0529201
0.0533163
0.0536458
0.0539092
0.0541158
0.054273
0.0543735
0.0543961
0.0543828
0.0543384
0.05424
0.0540873
0.0538772
0.0536301
0.0533438
0.0530078
0.0526288
0.0522034
0.0517192
0.0511634
0.0505229
0.0497993
0.0489924
0.0480929
0.0470883
0.0459536
0.014611
0.0146141
0.0146177
0.0146218
0.0146265
0.014632
0.0146382
0.0146454
0.0146537
0.0146633
0.0146743
0.014687
0.0147016
0.0147182
0.014737
0.0147583
0.0147825
0.0148099
0.0148412
0.0148771
0.0149182
0.0149653
0.0150189
0.0150796
0.0151479
0.0152242
0.0153088
0.0154026
0.0155069
0.0156242
0.015757
0.0159077
0.0160783
0.0162701
0.0164838
0.0167197
0.0169772
0.0172554
0.0175531
0.0178698
0.0182081
0.0185761
0.0189837
0.0194378
0.0199404
0.0204904
0.0210839
0.0217153
0.0223779
0.0230643
0.0237672
0.0244805
0.0252006
0.025929
0.0266779
0.0274796
0.0283596
0.0293172
0.0303378
0.0314033
0.0324962
0.0336006
0.0347022
0.0357886
0.0368516
0.0378878
0.038898
0.0398854
0.0408581
0.041835
0.0428988
0.0441367
0.0454773
0.0468475
0.0481974
0.0494967
0.0507271
0.0518767
0.052941
0.0539235
0.0548336
0.0556783
0.0564585
0.0571749
0.0578264
0.0584129
0.0589288
0.0593635
0.0597287
0.0600339
0.0602851
0.0604891
0.0606514
0.0607791
0.0608791
0.0609603
0.0610326
0.0610921
0.0611372
0.0611586
0.0611538
0.0611354
0.0610968
0.0610384
0.0609629
0.0608723
0.060764
0.0606344
0.0604888
0.0603357
0.0601721
0.0600083
0.059824
0.0596128
0.059392
0.0591705
0.058929
0.0586736
0.0584045
0.0581177
0.0578198
0.0574943
0.0571399
0.0567606
0.05635
0.0147032
0.0147218
0.0147433
0.0147679
0.0147963
0.0148287
0.0148659
0.0149086
0.0149578
0.0150143
0.0150793
0.0151534
0.0152377
0.015333
0.0154399
0.0155596
0.0156936
0.0158445
0.0160151
0.0162082
0.016426
0.0166706
0.016943
0.017244
0.0175734
0.0179305
0.0183148
0.0187273
0.0191742
0.0196644
0.020205
0.0207991
0.0214463
0.0221436
0.022886
0.0236668
0.0244783
0.025312
0.0261606
0.0270215
0.0279032
0.0288324
0.0298298
0.0308941
0.032013
0.0331706
0.0343515
0.0355407
0.0367238
0.0378877
0.0390222
0.0401221
0.0411868
0.0422235
0.0432525
0.0443646
0.045605
0.0469168
0.048246
0.0495551
0.0508197
0.0520235
0.0531552
0.054208
0.0551815
0.0560814
0.0569162
0.0576939
0.0584182
0.0590903
0.0597034
0.0602467
0.0607272
0.0611514
0.0615244
0.0618497
0.0621284
0.0623632
0.0625606
0.0627308
0.0628893
0.0630412
0.0631807
0.0633056
0.0634152
0.0635073
0.0635798
0.0636346
0.0636767
0.0637063
0.0637097
0.0637019
0.0636798
0.0636416
0.0635877
0.0635203
0.0634496
0.063367
0.0632799
0.0631944
0.0630981
0.0629901
0.0628801
0.0627606
0.0626352
0.0625115
0.0623739
0.0622212
0.0620691
0.0619116
0.0617339
0.0615627
0.0613927
0.0612134
0.0610395
0.0608313
0.0606002
0.0603832
0.0601661
0.0599604
0.0597304
0.0594707
0.0592177
0.0589644
0.0587096
0.0151434
0.0152345
0.0153391
0.0154585
0.015594
0.0157471
0.01592
0.0161155
0.0163369
0.0165872
0.0168691
0.0171846
0.0175353
0.0179218
0.0183442
0.0188019
0.019296
0.0198306
0.0204132
0.02105
0.0217438
0.0224944
0.0232988
0.0241523
0.0250483
0.0259791
0.0269362
0.027913
0.0289124
0.0299517
0.0310499
0.0322081
0.0334163
0.034661
0.0359284
0.0372051
0.0384777
0.0397331
0.0409596
0.0421499
0.0433053
0.0444421
0.0456433
0.0469434
0.0482958
0.0496551
0.0509886
0.0522735
0.053494
0.0546384
0.0556979
0.0566701
0.0575593
0.0583749
0.0591253
0.0598162
0.0604432
0.0610039
0.061505
0.0619522
0.0623487
0.0626978
0.0630021
0.0632612
0.0634776
0.0636599
0.0638217
0.0639763
0.0641248
0.0642662
0.064399
0.0645201
0.0646294
0.0647295
0.0648206
0.064901
0.0649684
0.0650231
0.0650646
0.0650811
0.0650786
0.0650715
0.0650557
0.0650342
0.0650124
0.0649897
0.0649652
0.0649376
0.0649076
0.0648772
0.0648458
0.0648115
0.0647764
0.0647346
0.0646835
0.0646231
0.0645537
0.0644712
0.064375
0.0642768
0.0641818
0.0640763
0.0639613
0.0638457
0.0637218
0.0635914
0.0634661
0.0633301
0.0631805
0.0630339
0.0628825
0.06271
0.0625433
0.0623803
0.0622126
0.0620529
0.0618527
0.0616286
0.061421
0.0612149
0.0610255
0.0608093
0.0605626
0.0603251
0.0600877
0.0598552
0.0174396
0.0178521
0.0183092
0.0188114
0.0193586
0.0199517
0.0205943
0.0212922
0.0220501
0.0228693
0.0237484
0.0246835
0.025669
0.0266976
0.0277613
0.0288521
0.0299688
0.0311219
0.0323255
0.0335796
0.0348748
0.0361992
0.0375403
0.0388865
0.0402262
0.0415479
0.0428405
0.0440983
0.0453289
0.0465878
0.0479261
0.0493095
0.0506993
0.0520649
0.0533839
0.0546405
0.0558225
0.0569201
0.0579272
0.0588459
0.0596834
0.0604475
0.0611368
0.0617526
0.0623041
0.0627972
0.0632358
0.0636227
0.0639604
0.0642495
0.064488
0.0646828
0.0648501
0.0650027
0.0651467
0.0652827
0.0654091
0.0655266
0.065635
0.0657353
0.0658275
0.0659088
0.0659792
0.0660366
0.0660769
0.066098
0.0660986
0.0660949
0.0660874
0.0660799
0.0660708
0.0660615
0.066054
0.0660515
0.0660526
0.0660568
0.0660637
0.0660746
0.0660895
0.0660922
0.0660864
0.0660703
0.066042
0.0660024
0.0659581
0.0659131
0.0658675
0.0658207
0.0657729
0.0657247
0.065676
0.0656292
0.065584
0.0655335
0.0654743
0.0654087
0.0653345
0.065244
0.0651399
0.0650354
0.0649301
0.0648122
0.0646922
0.0645768
0.0644492
0.0643113
0.0641854
0.0640513
0.0638996
0.0637546
0.0636048
0.0634355
0.0632745
0.0631169
0.0629564
0.0628032
0.0626042
0.0623941
0.0621969
0.0619993
0.0618221
0.0616198
0.0613898
0.0611631
0.060933
0.0607172
0.0605247
0.0602994
0.0252504
0.0263469
0.0274936
0.0286821
0.0299037
0.0311557
0.0324446
0.0337784
0.0351534
0.0365588
0.0379821
0.0394112
0.0408353
0.0422442
0.043628
0.0449787
0.0462976
0.0476229
0.0490049
0.0504175
0.051829
0.0532126
0.0545477
0.0558193
0.0570164
0.0581298
0.0591526
0.0600853
0.0609318
0.0616942
0.0623747
0.0629837
0.0635294
0.0640173
0.0644507
0.0648327
0.065165
0.0654446
0.0656725
0.0658638
0.0660336
0.0661914
0.0663379
0.0664736
0.0666009
0.0667196
0.0668288
0.0669282
0.0670162
0.06709
0.0671444
0.0671778
0.0671883
0.0671863
0.0671813
0.0671729
0.0671627
0.0671529
0.0671437
0.0671387
0.067139
0.0671422
0.0671498
0.0671636
0.0671821
0.0671986
0.0671978
0.0671866
0.067164
0.0671349
0.0671018
0.0670668
0.0670319
0.0670002
0.0669725
0.0669492
0.0669309
0.0669194
0.0669119
0.0669011
0.0668841
0.0668572
0.0668168
0.0667657
0.0667074
0.066646
0.0665838
0.0665215
0.0664593
0.066397
0.0663349
0.0662753
0.0662174
0.0661579
0.0660964
0.066035
0.0659658
0.0658825
0.0657908
0.0656999
0.0656018
0.0654898
0.0653831
0.0652758
0.065151
0.0650188
0.0648996
0.0647704
0.0646222
0.0644816
0.0643353
0.0641721
0.064019
0.0638664
0.0637145
0.0635573
0.0633572
0.0631634
0.0629752
0.0627826
0.0626088
0.0624152
0.0621917
0.0619695
0.0617423
0.0615241
0.0613237
0.06111
0.0400298
0.0415677
0.0430872
0.0445788
0.0460353
0.0474564
0.0488752
0.0503283
0.0517939
0.0532447
0.0546572
0.0560127
0.0572974
0.0585016
0.0596176
0.0606402
0.0615676
0.0623998
0.0631378
0.0637944
0.06438
0.0649022
0.0653665
0.0657767
0.0661361
0.0664436
0.0666964
0.0669059
0.067088
0.0672538
0.0674086
0.0675521
0.0676875
0.0678138
0.0679302
0.068037
0.0681314
0.0682083
0.0682602
0.0682884
0.0683024
0.0683094
0.0683092
0.0683081
0.0683071
0.0683081
0.0683111
0.0683173
0.068327
0.068342
0.0683641
0.0683914
0.0684067
0.0684019
0.0683855
0.0683584
0.0683244
0.0682887
0.068251
0.0682145
0.0681816
0.0681531
0.0681308
0.0681176
0.0681106
0.0681052
0.0680944
0.0680744
0.0680422
0.0679992
0.0679495
0.0678972
0.0678443
0.0677928
0.0677444
0.0677001
0.0676604
0.0676268
0.0676002
0.0675778
0.067557
0.0675333
0.0675019
0.0674614
0.0674133
0.06736
0.0673036
0.0672453
0.0671854
0.067124
0.0670619
0.0670004
0.0669388
0.0668762
0.0668157
0.0667556
0.0666877
0.0666091
0.0665272
0.0664421
0.0663457
0.0662405
0.0661432
0.0660402
0.0659176
0.065793
0.0656794
0.0655532
0.0654089
0.0652732
0.0651315
0.0649746
0.0648273
0.0646795
0.0645357
0.0643641
0.0641754
0.0639974
0.0638176
0.0636307
0.0634606
0.0632709
0.0630556
0.0628409
0.0626214
0.0624019
0.0621943
0.0619848
0.0563948
0.0577837
0.05909
0.0603051
0.0614238
0.0624405
0.0633499
0.0641524
0.0648599
0.0654845
0.0660364
0.0665233
0.0669511
0.0673245
0.0676448
0.0679097
0.0681254
0.0683091
0.068474
0.0686255
0.0687664
0.0688983
0.0690198
0.0691318
0.0692334
0.0693198
0.0693831
0.0694188
0.0694382
0.0694511
0.0694592
0.0694653
0.069472
0.0694792
0.0694909
0.0695053
0.0695238
0.06955
0.0695855
0.0696203
0.0696364
0.0696318
0.0696162
0.0695923
0.0695636
0.0695349
0.0695059
0.0694772
0.0694528
0.0694352
0.0694283
0.0694284
0.069427
0.0694157
0.0693934
0.0693572
0.0693107
0.069258
0.0692031
0.0691479
0.0690941
0.0690435
0.0689973
0.0689582
0.068928
0.0689055