/*--------------------------------*- C++ -*----------------------------------*\
| =========                 |                                                 |
| \\      /  F ield         | OpenFOAM: The Open Source CFD Toolbox           |
|  \\    /   O peration     | Version:  v1706                                 |
|   \\  /    A nd           | Web:      www.OpenFOAM.com                      |
|    \\/     M anipulation  |                                                 |
\*---------------------------------------------------------------------------*/
FoamFile
{
    version     2.0;
    format      ascii;
    class       volScalarField;
    location    "1.4e-05";
    object      kappave;
}
// * * * * * * * * * * * * * * * * * * * * * * * * * * * * * * * * * * * * * //

dimensions      [1 1 -3 -1 0 0 0];


internalField   nonuniform List<scalar> 
29871
(
1.46038e-10
1.46038e-10
1.46038e-10
1.46038e-10
1.46038e-10
1.46038e-10
1.46038e-10
1.46038e-10
1.46038e-10
1.46038e-10
1.46038e-10
1.46038e-10
1.46038e-10
1.46038e-10
1.46038e-10
1.46038e-10
1.46038e-10
1.46038e-10
1.46038e-10
1.46038e-10
1.46038e-10
1.46038e-10
1.46038e-10
1.46038e-10
1.46038e-10
1.46038e-10
1.46038e-10
1.46038e-10
1.46038e-10
1.46038e-10
1.46038e-10
1.46038e-10
1.46038e-10
1.46038e-10
1.46038e-10
1.46038e-10
1.46038e-10
1.46038e-10
1.46038e-10
1.46038e-10
1.46038e-10
1.46038e-10
1.46038e-10
1.46038e-10
1.46038e-10
1.46038e-10
1.46038e-10
1.46038e-10
1.46038e-10
1.46038e-10
1.46038e-10
1.46038e-10
1.46038e-10
1.46038e-10
1.46038e-10
1.46038e-10
1.46038e-10
1.46038e-10
1.46038e-10
1.46038e-10
1.46038e-10
1.46038e-10
1.46038e-10
1.46038e-10
1.46038e-10
1.46038e-10
1.46038e-10
1.46038e-10
1.46038e-10
1.46038e-10
1.46038e-10
1.46038e-10
1.46038e-10
1.46038e-10
1.46038e-10
1.46038e-10
1.46038e-10
1.46038e-10
1.46038e-10
1.46038e-10
1.46038e-10
1.46038e-10
1.46038e-10
1.46038e-10
1.46038e-10
1.46038e-10
1.46038e-10
1.46038e-10
1.46038e-10
1.46038e-10
1.46038e-10
1.46038e-10
1.46038e-10
1.46038e-10
1.46038e-10
1.46038e-10
1.46038e-10
1.46038e-10
1.46038e-10
1.46038e-10
1.46038e-10
1.46038e-10
1.46038e-10
1.46038e-10
1.46038e-10
1.46038e-10
1.46038e-10
1.46038e-10
1.46038e-10
1.46038e-10
1.46038e-10
1.46038e-10
1.46038e-10
1.46038e-10
1.46038e-10
1.46038e-10
1.46038e-10
1.46038e-10
1.46038e-10
1.46038e-10
1.46038e-10
1.46038e-10
1.46038e-10
1.46038e-10
1.46038e-10
1.46038e-10
1.46038e-10
1.46038e-10
1.46038e-10
1.46038e-10
1.46038e-10
1.46038e-10
1.46038e-10
1.46038e-10
1.46038e-10
1.46038e-10
1.46038e-10
1.46038e-10
1.46038e-10
1.46038e-10
1.46038e-10
1.46038e-10
1.46038e-10
1.46038e-10
1.46038e-10
1.46038e-10
1.46038e-10
1.46038e-10
1.46038e-10
1.46038e-10
1.46038e-10
1.46038e-10
1.46038e-10
1.46038e-10
1.46038e-10
1.46038e-10
1.46038e-10
1.46038e-10
1.46038e-10
1.46038e-10
1.46038e-10
1.46038e-10
1.46038e-10
1.46038e-10
1.46038e-10
1.46038e-10
1.46038e-10
1.46038e-10
1.46038e-10
1.46038e-10
1.46038e-10
1.46038e-10
1.46038e-10
1.46038e-10
1.46038e-10
1.46038e-10
1.46038e-10
1.46038e-10
1.46038e-10
1.46038e-10
1.46038e-10
1.46038e-10
1.46038e-10
1.46038e-10
1.46038e-10
1.46038e-10
1.46038e-10
1.46038e-10
1.46038e-10
1.46038e-10
1.46038e-10
1.46038e-10
1.46038e-10
1.46038e-10
1.46038e-10
1.46038e-10
1.46038e-10
1.46038e-10
1.46038e-10
1.46038e-10
1.46038e-10
1.46038e-10
1.46038e-10
1.46038e-10
1.46038e-10
1.46038e-10
1.46038e-10
1.46038e-10
1.46038e-10
1.46038e-10
1.46038e-10
1.46038e-10
1.46038e-10
1.46038e-10
1.46038e-10
1.46038e-10
1.46038e-10
1.46038e-10
1.46038e-10
1.46038e-10
1.46038e-10
1.46038e-10
1.46038e-10
1.46038e-10
1.46038e-10
1.46038e-10
1.46038e-10
1.46038e-10
1.46038e-10
1.46038e-10
1.46038e-10
1.46038e-10
1.46038e-10
1.46038e-10
1.46038e-10
1.46038e-10
1.46038e-10
1.46038e-10
1.46038e-10
1.46038e-10
1.46038e-10
1.46038e-10
1.46038e-10
1.46038e-10
1.46038e-10
1.46038e-10
1.46038e-10
1.46038e-10
1.46038e-10
1.46038e-10
1.46038e-10
1.46038e-10
1.46038e-10
1.46038e-10
1.46038e-10
1.46038e-10
1.46038e-10
1.46038e-10
1.46038e-10
1.46038e-10
1.46038e-10
1.46038e-10
1.46038e-10
1.46038e-10
1.46038e-10
1.46038e-10
1.46038e-10
1.46038e-10
1.46038e-10
1.46038e-10
1.46038e-10
1.46038e-10
1.46038e-10
1.46038e-10
1.46038e-10
1.46038e-10
1.46038e-10
1.46038e-10
1.46038e-10
1.46038e-10
1.46038e-10
1.46038e-10
1.46038e-10
1.46038e-10
1.46038e-10
1.46038e-10
1.46038e-10
1.46038e-10
1.46038e-10
1.46038e-10
1.46038e-10
1.46038e-10
1.46038e-10
1.46038e-10
1.46038e-10
1.46038e-10
1.46038e-10
1.46038e-10
1.46038e-10
1.46038e-10
1.46038e-10
1.46038e-10
1.46038e-10
1.46038e-10
1.46038e-10
1.46038e-10
1.46038e-10
1.46038e-10
1.46038e-10
1.46038e-10
1.46038e-10
1.46038e-10
1.46038e-10
1.46038e-10
1.46038e-10
1.46038e-10
1.46038e-10
1.46038e-10
1.46038e-10
1.46038e-10
1.46038e-10
1.46038e-10
1.46038e-10
1.46038e-10
1.46038e-10
1.46038e-10
1.46038e-10
1.46038e-10
1.46038e-10
1.46038e-10
1.46038e-10
1.46038e-10
1.46038e-10
1.46038e-10
1.46038e-10
1.46038e-10
1.46038e-10
1.46038e-10
1.46038e-10
1.46038e-10
1.46038e-10
1.46038e-10
1.46038e-10
1.46038e-10
1.46038e-10
1.46038e-10
1.46038e-10
1.46038e-10
1.46038e-10
1.46038e-10
1.46038e-10
1.46038e-10
1.46038e-10
1.46038e-10
1.46038e-10
1.46038e-10
1.46038e-10
1.46038e-10
1.46038e-10
1.46038e-10
1.46038e-10
1.46038e-10
1.46038e-10
1.46038e-10
1.46038e-10
1.46038e-10
1.46038e-10
1.46038e-10
1.46038e-10
1.46038e-10
1.46038e-10
1.46038e-10
1.46038e-10
1.46038e-10
1.46038e-10
1.46038e-10
1.46038e-10
1.46038e-10
1.46038e-10
1.46038e-10
1.46038e-10
1.46038e-10
1.46038e-10
1.46038e-10
1.46038e-10
1.46038e-10
1.46038e-10
1.46038e-10
1.46038e-10
1.46038e-10
1.46038e-10
1.46038e-10
1.46038e-10
1.46038e-10
1.46038e-10
1.46038e-10
1.46038e-10
1.46038e-10
1.46038e-10
1.46038e-10
1.46038e-10
1.46038e-10
1.46038e-10
1.46038e-10
1.46038e-10
1.46038e-10
1.46038e-10
1.46038e-10
1.46038e-10
1.46038e-10
1.46038e-10
1.46038e-10
1.46038e-10
1.46038e-10
1.46038e-10
1.46038e-10
1.46038e-10
1.46038e-10
1.46038e-10
1.46038e-10
1.46038e-10
1.46038e-10
1.46038e-10
1.46038e-10
1.46038e-10
1.46038e-10
1.46038e-10
1.46038e-10
1.46038e-10
1.46038e-10
1.46038e-10
1.46038e-10
1.46038e-10
1.46038e-10
1.46038e-10
1.46038e-10
1.46038e-10
1.46038e-10
1.46038e-10
1.46038e-10
1.46038e-10
1.46038e-10
1.46038e-10
1.46038e-10
1.46038e-10
1.46038e-10
1.46038e-10
1.46038e-10
1.46038e-10
1.46038e-10
1.46038e-10
1.46038e-10
1.46038e-10
1.46038e-10
1.46038e-10
1.46038e-10
1.46038e-10
1.46038e-10
1.46038e-10
1.46038e-10
1.46038e-10
1.46038e-10
1.46038e-10
1.46038e-10
1.46038e-10
1.46038e-10
1.46038e-10
1.46038e-10
1.46038e-10
1.46038e-10
1.46038e-10
1.46038e-10
1.46038e-10
1.46038e-10
1.46038e-10
1.46038e-10
1.46038e-10
1.46038e-10
1.46038e-10
1.46038e-10
1.46038e-10
1.46038e-10
1.46038e-10
1.46038e-10
1.46038e-10
1.46038e-10
1.46038e-10
1.46038e-10
1.46038e-10
1.46038e-10
1.46038e-10
1.46038e-10
1.46038e-10
1.46038e-10
1.46038e-10
1.46038e-10
1.46038e-10
1.46038e-10
1.46038e-10
1.46038e-10
1.46038e-10
1.46038e-10
1.46038e-10
1.46038e-10
1.46038e-10
1.46038e-10
1.46038e-10
1.46038e-10
1.46038e-10
1.46038e-10
1.46038e-10
1.46038e-10
1.46038e-10
1.46038e-10
1.46038e-10
1.46038e-10
1.46038e-10
1.46038e-10
1.46038e-10
1.46038e-10
1.46038e-10
1.46038e-10
1.46038e-10
1.46038e-10
1.46038e-10
1.46038e-10
1.46038e-10
1.46038e-10
1.46038e-10
1.46038e-10
1.46038e-10
1.46038e-10
1.46038e-10
1.46038e-10
1.46038e-10
1.46038e-10
1.46038e-10
1.46038e-10
1.46038e-10
1.46038e-10
1.46038e-10
1.46038e-10
1.46038e-10
1.46038e-10
1.46038e-10
1.46038e-10
1.46038e-10
1.46038e-10
1.46038e-10
1.46038e-10
1.46038e-10
1.46038e-10
1.46038e-10
1.46038e-10
1.46038e-10
1.46038e-10
1.46038e-10
1.46038e-10
1.46038e-10
1.46038e-10
1.46038e-10
1.46038e-10
1.46038e-10
1.46038e-10
1.46038e-10
1.46038e-10
1.46038e-10
1.46038e-10
1.46038e-10
1.46038e-10
1.46038e-10
1.46038e-10
1.46038e-10
1.46038e-10
1.46038e-10
1.46038e-10
1.46038e-10
1.46038e-10
1.46038e-10
1.46038e-10
1.46038e-10
1.46038e-10
1.46038e-10
1.46038e-10
1.46038e-10
1.46038e-10
1.46038e-10
1.46038e-10
1.46038e-10
1.46038e-10
1.46038e-10
1.46038e-10
1.46038e-10
1.46038e-10
1.46038e-10
1.46038e-10
1.46038e-10
1.46038e-10
1.46038e-10
1.46038e-10
1.46038e-10
1.46038e-10
1.46038e-10
1.46038e-10
1.46038e-10
1.46038e-10
1.46038e-10
1.46038e-10
1.46038e-10
1.46038e-10
1.46038e-10
1.46038e-10
1.46038e-10
1.46038e-10
1.46038e-10
1.46038e-10
1.46038e-10
1.46038e-10
1.46038e-10
1.46038e-10
1.46038e-10
1.46038e-10
1.46038e-10
1.46038e-10
1.46038e-10
1.46038e-10
1.46038e-10
1.46038e-10
1.46038e-10
1.46038e-10
1.46038e-10
1.46038e-10
1.46038e-10
1.46038e-10
1.46038e-10
1.46038e-10
1.46038e-10
1.46038e-10
1.46038e-10
1.46038e-10
1.46038e-10
1.46038e-10
1.46038e-10
1.46038e-10
1.46038e-10
1.46038e-10
1.46038e-10
1.46038e-10
1.46038e-10
1.46038e-10
1.46038e-10
1.46038e-10
1.46038e-10
1.46038e-10
1.46038e-10
1.46038e-10
1.46038e-10
1.46038e-10
1.46038e-10
1.46038e-10
1.46038e-10
1.46038e-10
1.46038e-10
1.46038e-10
1.46038e-10
1.46038e-10
1.46038e-10
1.46038e-10
1.46038e-10
1.46038e-10
1.46038e-10
1.46038e-10
1.46038e-10
1.46038e-10
1.46038e-10
1.46038e-10
1.46038e-10
1.46038e-10
1.46038e-10
1.46038e-10
1.46038e-10
1.46038e-10
1.46038e-10
1.46038e-10
1.46038e-10
1.46038e-10
1.46038e-10
1.46038e-10
1.46038e-10
1.46038e-10
1.46038e-10
1.46038e-10
1.46038e-10
1.46038e-10
1.46038e-10
1.46038e-10
1.46038e-10
1.46038e-10
1.46038e-10
1.46038e-10
1.46038e-10
1.46038e-10
1.46038e-10
1.46038e-10
1.46038e-10
1.46038e-10
1.46038e-10
1.46038e-10
1.46038e-10
1.46038e-10
1.46038e-10
1.46038e-10
1.46038e-10
1.46038e-10
1.46038e-10
1.46038e-10
1.46038e-10
1.46038e-10
1.46038e-10
1.46038e-10
1.46038e-10
1.46038e-10
1.46038e-10
1.46038e-10
1.46038e-10
1.46038e-10
1.46038e-10
1.46038e-10
1.46038e-10
1.46038e-10
1.46038e-10
1.46038e-10
1.46038e-10
1.46038e-10
1.46038e-10
1.46038e-10
1.46038e-10
1.46038e-10
1.46038e-10
1.46038e-10
1.46038e-10
1.46038e-10
1.46038e-10
1.46038e-10
1.46038e-10
1.46038e-10
1.46038e-10
1.46038e-10
1.46038e-10
1.46038e-10
1.46038e-10
1.46038e-10
1.46038e-10
1.46038e-10
1.46038e-10
1.46038e-10
1.46038e-10
1.46038e-10
1.46038e-10
1.46038e-10
1.46038e-10
1.46038e-10
1.46038e-10
1.46038e-10
1.46038e-10
1.46038e-10
1.46038e-10
1.46038e-10
1.46038e-10
1.46038e-10
1.46038e-10
1.46038e-10
1.46038e-10
1.46038e-10
1.46038e-10
1.46038e-10
1.46038e-10
1.46038e-10
1.46038e-10
1.46038e-10
1.46038e-10
1.46038e-10
1.46038e-10
1.46038e-10
1.46038e-10
1.46038e-10
1.46038e-10
1.46038e-10
1.46038e-10
1.46038e-10
1.46038e-10
1.46038e-10
1.46038e-10
1.46038e-10
1.46038e-10
1.46038e-10
1.46038e-10
1.46038e-10
1.46038e-10
1.46038e-10
1.46038e-10
1.46038e-10
1.46038e-10
1.46038e-10
1.46038e-10
1.46038e-10
1.46038e-10
1.46038e-10
1.46038e-10
1.46038e-10
1.46038e-10
1.46038e-10
1.46038e-10
1.46038e-10
1.46038e-10
1.46038e-10
1.46038e-10
1.46038e-10
1.46038e-10
1.46038e-10
1.46038e-10
1.46038e-10
1.46038e-10
1.46038e-10
1.46038e-10
1.46038e-10
1.46038e-10
1.46038e-10
1.46038e-10
1.46038e-10
1.46038e-10
1.46038e-10
1.46038e-10
1.46038e-10
1.46038e-10
1.46038e-10
1.46038e-10
1.46038e-10
1.46038e-10
1.46038e-10
1.46038e-10
1.46038e-10
1.46038e-10
1.46038e-10
1.46038e-10
1.46038e-10
1.46038e-10
1.46038e-10
1.46038e-10
1.46038e-10
1.46038e-10
1.46038e-10
1.46038e-10
1.46038e-10
1.46038e-10
1.46038e-10
1.46038e-10
1.46038e-10
1.46038e-10
1.46038e-10
1.46038e-10
1.46038e-10
1.46038e-10
1.46038e-10
1.46038e-10
1.46038e-10
1.46038e-10
1.46038e-10
1.46038e-10
1.46038e-10
1.46038e-10
1.46038e-10
1.46038e-10
1.46038e-10
1.46038e-10
1.46038e-10
1.46038e-10
1.46038e-10
1.46038e-10
1.46038e-10
1.46038e-10
1.46038e-10
1.46038e-10
1.46038e-10
1.46038e-10
1.46038e-10
1.46038e-10
1.46038e-10
1.46038e-10
1.46038e-10
1.46038e-10
1.46038e-10
1.46038e-10
1.46038e-10
1.46038e-10
1.46038e-10
1.46038e-10
1.46038e-10
1.46038e-10
1.46038e-10
1.46038e-10
1.46038e-10
1.46038e-10
1.46038e-10
1.46038e-10
1.46038e-10
1.46038e-10
1.46038e-10
1.46038e-10
1.46038e-10
1.46038e-10
1.46038e-10
1.46038e-10
1.46038e-10
1.46038e-10
1.46038e-10
1.46038e-10
1.46038e-10
1.46038e-10
1.46038e-10
1.46038e-10
1.46038e-10
1.46038e-10
1.46038e-10
1.46038e-10
1.46038e-10
1.46038e-10
1.46038e-10
1.46038e-10
1.46038e-10
1.46038e-10
1.46038e-10
1.46038e-10
1.46038e-10
1.46038e-10
1.46038e-10
1.46038e-10
1.46038e-10
1.46038e-10
1.46038e-10
1.46038e-10
1.46038e-10
1.46038e-10
1.46038e-10
1.46038e-10
1.46038e-10
1.46038e-10
1.46038e-10
1.46038e-10
1.46038e-10
1.46038e-10
1.46038e-10
1.46038e-10
1.46038e-10
1.46038e-10
1.46038e-10
1.46038e-10
1.46038e-10
1.46038e-10
1.46038e-10
1.46038e-10
1.46038e-10
1.46038e-10
1.46038e-10
1.46038e-10
1.46038e-10
1.46038e-10
1.46038e-10
1.46038e-10
1.46038e-10
1.46038e-10
1.46038e-10
1.46038e-10
1.46038e-10
1.46038e-10
1.46038e-10
1.46038e-10
1.46038e-10
1.46038e-10
1.46038e-10
1.46038e-10
1.46038e-10
1.46038e-10
1.46038e-10
1.46038e-10
1.46038e-10
1.46038e-10
1.46038e-10
1.46038e-10
1.46038e-10
1.46038e-10
1.46038e-10
1.46038e-10
1.46038e-10
1.46038e-10
1.46038e-10
1.46038e-10
1.46038e-10
1.46038e-10
1.46038e-10
1.46038e-10
1.46038e-10
1.46038e-10
1.46038e-10
1.46038e-10
1.46038e-10
1.46038e-10
1.46038e-10
1.46038e-10
1.46038e-10
1.46038e-10
1.46038e-10
1.46038e-10
1.46038e-10
1.46038e-10
1.46038e-10
1.46038e-10
1.46038e-10
1.46038e-10
1.46038e-10
1.46038e-10
1.46038e-10
1.46038e-10
1.46038e-10
1.46038e-10
1.46038e-10
1.46038e-10
1.46038e-10
1.46038e-10
1.46038e-10
1.46038e-10
1.46038e-10
1.46038e-10
1.46038e-10
1.46038e-10
1.46038e-10
1.46038e-10
1.46038e-10
1.46038e-10
1.46038e-10
1.46038e-10
1.46038e-10
1.46038e-10
1.46038e-10
1.46038e-10
1.46038e-10
1.46038e-10
1.46038e-10
1.46038e-10
1.46038e-10
1.46038e-10
1.46038e-10
1.46038e-10
1.46038e-10
1.46038e-10
1.46038e-10
1.46038e-10
1.46038e-10
1.46038e-10
1.46038e-10
1.46038e-10
1.46038e-10
1.46038e-10
1.46038e-10
1.46038e-10
1.46038e-10
1.46038e-10
1.46038e-10
1.46038e-10
1.46038e-10
1.46038e-10
1.46038e-10
1.46038e-10
1.46038e-10
1.46038e-10
1.46038e-10
1.46038e-10
1.46038e-10
1.46038e-10
1.46038e-10
1.46038e-10
1.46038e-10
1.46038e-10
1.46038e-10
1.46038e-10
1.46038e-10
1.46038e-10
1.46038e-10
1.46038e-10
1.46038e-10
1.46038e-10
1.46038e-10
1.46038e-10
1.46038e-10
1.46038e-10
1.46038e-10
1.46038e-10
1.46038e-10
1.46038e-10
1.46038e-10
1.46038e-10
1.46038e-10
1.46038e-10
1.46038e-10
1.46038e-10
1.46038e-10
1.46038e-10
1.46038e-10
1.46038e-10
1.46038e-10
1.46038e-10
1.46038e-10
1.46038e-10
1.46038e-10
1.46038e-10
1.46038e-10
1.46038e-10
1.46038e-10
1.46038e-10
1.46038e-10
1.46038e-10
1.46038e-10
1.46038e-10
1.46038e-10
1.46038e-10
1.46038e-10
1.46038e-10
1.46038e-10
1.46038e-10
1.46038e-10
1.46038e-10
1.46038e-10
1.46038e-10
1.46038e-10
1.46038e-10
1.46038e-10
1.46038e-10
1.46038e-10
1.46038e-10
1.46038e-10
1.46038e-10
1.46038e-10
1.46038e-10
1.46038e-10
1.46038e-10
1.46038e-10
1.46038e-10
1.46038e-10
1.46038e-10
1.46038e-10
1.46038e-10
1.46038e-10
1.46038e-10
1.46038e-10
1.46038e-10
1.46038e-10
1.46038e-10
1.46038e-10
1.46038e-10
1.46038e-10
1.46038e-10
1.46038e-10
1.46038e-10
1.46038e-10
1.46038e-10
1.46038e-10
1.46038e-10
1.46038e-10
1.46038e-10
1.46038e-10
1.46038e-10
1.46038e-10
1.46038e-10
1.46038e-10
1.46038e-10
1.46038e-10
1.46038e-10
1.46038e-10
1.46038e-10
1.46038e-10
1.46038e-10
1.46038e-10
1.46038e-10
1.46038e-10
1.46038e-10
1.46038e-10
1.46038e-10
1.46038e-10
1.46038e-10
1.46038e-10
1.46038e-10
1.46038e-10
1.46038e-10
1.46038e-10
1.46038e-10
1.46038e-10
1.46038e-10
1.46038e-10
1.46038e-10
1.46038e-10
1.46038e-10
1.46038e-10
1.46038e-10
1.46038e-10
1.46038e-10
1.46038e-10
1.46038e-10
1.46038e-10
1.46038e-10
1.46038e-10
1.46038e-10
1.46038e-10
1.46038e-10
1.46038e-10
1.46038e-10
1.46038e-10
1.46038e-10
1.46038e-10
1.46038e-10
1.46038e-10
1.46038e-10
1.46038e-10
1.46038e-10
1.46038e-10
1.46038e-10
1.46038e-10
1.46038e-10
1.46038e-10
1.46038e-10
1.46038e-10
1.46038e-10
1.46038e-10
1.46038e-10
1.46038e-10
1.46038e-10
1.46038e-10
1.46038e-10
1.46038e-10
1.46038e-10
1.46038e-10
1.46038e-10
1.46038e-10
1.46038e-10
1.46038e-10
1.46038e-10
1.46038e-10
1.46038e-10
1.46038e-10
1.46038e-10
1.46038e-10
1.46038e-10
1.46038e-10
1.46038e-10
1.46038e-10
1.46038e-10
1.46038e-10
1.46038e-10
1.46038e-10
1.46038e-10
1.46038e-10
1.46038e-10
1.46038e-10
1.46038e-10
1.46038e-10
1.46038e-10
1.46038e-10
1.46038e-10
1.46038e-10
1.46038e-10
1.46038e-10
1.46038e-10
1.46038e-10
1.46038e-10
1.46038e-10
1.46038e-10
1.46038e-10
1.46038e-10
1.46038e-10
1.46039e-10
1.46039e-10
1.46039e-10
1.46039e-10
1.46039e-10
1.46039e-10
1.46039e-10
1.46039e-10
1.46039e-10
1.46039e-10
1.46039e-10
1.46039e-10
1.46039e-10
1.46038e-10
1.46038e-10
1.46038e-10
1.46038e-10
1.46038e-10
1.46038e-10
1.46038e-10
1.46038e-10
1.46038e-10
1.46038e-10
1.46038e-10
1.46038e-10
1.46038e-10
1.46038e-10
1.46038e-10
1.46038e-10
1.46038e-10
1.46038e-10
1.46038e-10
1.46038e-10
1.46038e-10
1.46038e-10
1.46038e-10
1.46038e-10
1.46038e-10
1.46038e-10
1.46038e-10
1.46038e-10
1.46038e-10
1.46038e-10
1.46038e-10
1.46038e-10
1.46038e-10
1.46038e-10
1.46038e-10
1.46038e-10
1.46038e-10
1.46038e-10
1.46038e-10
1.46038e-10
1.46038e-10
1.46038e-10
1.46038e-10
1.46038e-10
1.46038e-10
1.46038e-10
1.46038e-10
1.46038e-10
1.46038e-10
1.46038e-10
1.46038e-10
1.46038e-10
1.46038e-10
1.46038e-10
1.46038e-10
1.46038e-10
1.46038e-10
1.46038e-10
1.46038e-10
1.46038e-10
1.46038e-10
1.46038e-10
1.46038e-10
1.46038e-10
1.46038e-10
1.46038e-10
1.46038e-10
1.46038e-10
1.46038e-10
1.46038e-10
1.46038e-10
1.46038e-10
1.46039e-10
1.46039e-10
1.46039e-10
1.46039e-10
1.46039e-10
1.46039e-10
1.46039e-10
1.46039e-10
1.4604e-10
1.4604e-10
1.4604e-10
1.4604e-10
1.4604e-10
1.46041e-10
1.46041e-10
1.46041e-10
1.46042e-10
1.46042e-10
1.46043e-10
1.46043e-10
1.46043e-10
1.46044e-10
1.46044e-10
1.46045e-10
1.46045e-10
1.46045e-10
1.46046e-10
1.46046e-10
1.46046e-10
1.46046e-10
1.46047e-10
1.46047e-10
1.46047e-10
1.46047e-10
1.46047e-10
1.46047e-10
1.46046e-10
1.46046e-10
1.46046e-10
1.46045e-10
1.46045e-10
1.46045e-10
1.46044e-10
1.46044e-10
1.46043e-10
1.46043e-10
1.46042e-10
1.46038e-10
1.46038e-10
1.46038e-10
1.46038e-10
1.46038e-10
1.46038e-10
1.46038e-10
1.46038e-10
1.46038e-10
1.46038e-10
1.46038e-10
1.46038e-10
1.46038e-10
1.46038e-10
1.46038e-10
1.46038e-10
1.46038e-10
1.46038e-10
1.46038e-10
1.46038e-10
1.46038e-10
1.46038e-10
1.46038e-10
1.46038e-10
1.46038e-10
1.46038e-10
1.46038e-10
1.46038e-10
1.46038e-10
1.46038e-10
1.46038e-10
1.46038e-10
1.46038e-10
1.46038e-10
1.46038e-10
1.46038e-10
1.46038e-10
1.46038e-10
1.46038e-10
1.46038e-10
1.46038e-10
1.46038e-10
1.46038e-10
1.46038e-10
1.46038e-10
1.46039e-10
1.46039e-10
1.46039e-10
1.46039e-10
1.46039e-10
1.46039e-10
1.46039e-10
1.46039e-10
1.4604e-10
1.4604e-10
1.4604e-10
1.46041e-10
1.46041e-10
1.46041e-10
1.46042e-10
1.46042e-10
1.46042e-10
1.46043e-10
1.46044e-10
1.46044e-10
1.46045e-10
1.46046e-10
1.46047e-10
1.46048e-10
1.46049e-10
1.4605e-10
1.46052e-10
1.46053e-10
1.46055e-10
1.46057e-10
1.46059e-10
1.46061e-10
1.46063e-10
1.46065e-10
1.46068e-10
1.46071e-10
1.46074e-10
1.46078e-10
1.46082e-10
1.46087e-10
1.46091e-10
1.46095e-10
1.461e-10
1.46104e-10
1.46108e-10
1.46112e-10
1.46116e-10
1.46119e-10
1.46122e-10
1.46125e-10
1.46127e-10
1.46128e-10
1.46129e-10
1.46129e-10
1.46129e-10
1.46128e-10
1.46127e-10
1.46125e-10
1.46122e-10
1.46119e-10
1.46115e-10
1.46111e-10
1.46107e-10
1.46103e-10
1.46098e-10
1.46094e-10
1.46089e-10
1.46084e-10
1.46038e-10
1.46038e-10
1.46038e-10
1.46038e-10
1.46038e-10
1.46038e-10
1.46038e-10
1.46038e-10
1.46038e-10
1.46038e-10
1.46038e-10
1.46038e-10
1.46038e-10
1.46038e-10
1.46038e-10
1.46038e-10
1.46038e-10
1.46038e-10
1.46038e-10
1.46038e-10
1.46038e-10
1.46038e-10
1.46038e-10
1.46038e-10
1.46038e-10
1.46038e-10
1.46038e-10
1.46038e-10
1.46039e-10
1.46039e-10
1.46039e-10
1.46039e-10
1.46039e-10
1.46039e-10
1.46039e-10
1.4604e-10
1.4604e-10
1.4604e-10
1.46041e-10
1.46041e-10
1.46041e-10
1.46042e-10
1.46042e-10
1.46043e-10
1.46044e-10
1.46044e-10
1.46045e-10
1.46046e-10
1.46047e-10
1.46048e-10
1.46049e-10
1.46051e-10
1.46052e-10
1.46054e-10
1.46056e-10
1.46058e-10
1.4606e-10
1.46063e-10
1.46066e-10
1.46069e-10
1.46073e-10
1.46077e-10
1.46081e-10
1.46086e-10
1.46091e-10
1.46096e-10
1.46103e-10
1.46111e-10
1.4612e-10
1.4613e-10
1.46141e-10
1.46154e-10
1.46168e-10
1.46182e-10
1.46198e-10
1.46215e-10
1.46233e-10
1.46252e-10
1.46273e-10
1.46295e-10
1.4632e-10
1.46349e-10
1.46382e-10
1.46418e-10
1.46458e-10
1.46501e-10
1.46546e-10
1.46591e-10
1.46637e-10
1.46683e-10
1.46727e-10
1.46771e-10
1.46812e-10
1.4685e-10
1.46886e-10
1.46917e-10
1.46943e-10
1.46964e-10
1.46979e-10
1.46987e-10
1.4699e-10
1.46986e-10
1.46975e-10
1.46958e-10
1.46935e-10
1.46906e-10
1.46873e-10
1.46835e-10
1.46793e-10
1.46749e-10
1.46702e-10
1.46654e-10
1.46604e-10
1.46554e-10
1.46505e-10
1.46038e-10
1.46038e-10
1.46038e-10
1.46038e-10
1.46038e-10
1.46038e-10
1.46038e-10
1.46038e-10
1.46038e-10
1.46038e-10
1.46038e-10
1.46038e-10
1.46039e-10
1.46039e-10
1.46039e-10
1.46039e-10
1.46039e-10
1.4604e-10
1.4604e-10
1.4604e-10
1.4604e-10
1.46041e-10
1.46041e-10
1.46042e-10
1.46042e-10
1.46043e-10
1.46044e-10
1.46045e-10
1.46046e-10
1.46047e-10
1.46048e-10
1.4605e-10
1.46052e-10
1.46053e-10
1.46055e-10
1.46058e-10
1.4606e-10
1.46063e-10
1.46067e-10
1.4607e-10
1.46075e-10
1.4608e-10
1.46085e-10
1.46091e-10
1.46098e-10
1.46106e-10
1.46114e-10
1.46123e-10
1.46132e-10
1.46143e-10
1.46155e-10
1.46169e-10
1.46185e-10
1.46203e-10
1.46223e-10
1.46246e-10
1.46272e-10
1.463e-10
1.46331e-10
1.46365e-10
1.46401e-10
1.4644e-10
1.46483e-10
1.4653e-10
1.46584e-10
1.46645e-10
1.46716e-10
1.46799e-10
1.46893e-10
1.47e-10
1.4712e-10
1.47252e-10
1.47395e-10
1.4755e-10
1.47715e-10
1.47892e-10
1.4808e-10
1.48281e-10
1.48497e-10
1.48735e-10
1.49005e-10
1.49315e-10
1.49667e-10
1.50061e-10
1.50489e-10
1.50945e-10
1.51418e-10
1.519e-10
1.52384e-10
1.52865e-10
1.53338e-10
1.53796e-10
1.54233e-10
1.54641e-10
1.55012e-10
1.55338e-10
1.55616e-10
1.55837e-10
1.55995e-10
1.56077e-10
1.56098e-10
1.56046e-10
1.55925e-10
1.55737e-10
1.55483e-10
1.55168e-10
1.54801e-10
1.54389e-10
1.53941e-10
1.53462e-10
1.52959e-10
1.52438e-10
1.51906e-10
1.51373e-10
1.50846e-10
1.50334e-10
1.46038e-10
1.46038e-10
1.46038e-10
1.46038e-10
1.46038e-10
1.46039e-10
1.46039e-10
1.46039e-10
1.46039e-10
1.4604e-10
1.4604e-10
1.4604e-10
1.46041e-10
1.46041e-10
1.46042e-10
1.46042e-10
1.46043e-10
1.46044e-10
1.46045e-10
1.46046e-10
1.46048e-10
1.46049e-10
1.46051e-10
1.46053e-10
1.46056e-10
1.46058e-10
1.46062e-10
1.46065e-10
1.46069e-10
1.46074e-10
1.46079e-10
1.46085e-10
1.46092e-10
1.461e-10
1.46109e-10
1.4612e-10
1.46132e-10
1.46145e-10
1.4616e-10
1.46177e-10
1.46196e-10
1.46217e-10
1.46241e-10
1.46267e-10
1.46297e-10
1.46332e-10
1.46371e-10
1.46416e-10
1.46466e-10
1.46523e-10
1.46587e-10
1.46657e-10
1.46734e-10
1.46818e-10
1.46909e-10
1.4701e-10
1.47122e-10
1.47249e-10
1.47393e-10
1.47559e-10
1.47748e-10
1.47962e-10
1.48203e-10
1.48471e-10
1.48767e-10
1.49089e-10
1.49439e-10
1.49817e-10
1.50225e-10
1.5067e-10
1.51164e-10
1.51727e-10
1.5238e-10
1.53141e-10
1.54025e-10
1.55037e-10
1.56179e-10
1.5745e-10
1.58845e-10
1.60359e-10
1.61989e-10
1.63735e-10
1.65598e-10
1.67582e-10
1.69699e-10
1.71985e-10
1.74526e-10
1.77431e-10
1.80783e-10
1.84601e-10
1.88847e-10
1.93445e-10
1.98302e-10
2.03325e-10
2.08428e-10
2.13544e-10
2.18623e-10
2.23618e-10
2.28469e-10
2.33095e-10
2.37407e-10
2.41317e-10
2.44754e-10
2.47661e-10
2.49976e-10
2.51599e-10
2.52448e-10
2.52568e-10
2.51956e-10
2.50623e-10
2.48559e-10
2.45793e-10
2.42384e-10
2.38412e-10
2.33972e-10
2.29155e-10
2.24028e-10
2.18642e-10
2.13056e-10
2.07355e-10
2.01644e-10
1.96014e-10
1.90552e-10
1.46042e-10
1.46042e-10
1.46043e-10
1.46044e-10
1.46046e-10
1.46047e-10
1.46049e-10
1.46051e-10
1.46053e-10
1.46056e-10
1.46059e-10
1.46063e-10
1.46067e-10
1.46072e-10
1.46078e-10
1.46085e-10
1.46092e-10
1.46101e-10
1.46112e-10
1.46124e-10
1.46137e-10
1.46153e-10
1.46172e-10
1.46193e-10
1.46217e-10
1.46245e-10
1.46277e-10
1.46314e-10
1.46355e-10
1.46402e-10
1.46455e-10
1.46516e-10
1.46586e-10
1.46667e-10
1.4676e-10
1.46866e-10
1.46987e-10
1.47124e-10
1.47279e-10
1.47451e-10
1.47643e-10
1.47857e-10
1.48097e-10
1.4837e-10
1.48681e-10
1.49037e-10
1.49444e-10
1.49908e-10
1.50433e-10
1.51021e-10
1.51676e-10
1.52398e-10
1.53188e-10
1.54048e-10
1.54986e-10
1.56021e-10
1.57182e-10
1.58505e-10
1.60024e-10
1.61769e-10
1.63761e-10
1.66015e-10
1.68539e-10
1.71336e-10
1.74405e-10
1.77746e-10
1.8136e-10
1.85257e-10
1.89466e-10
1.9406e-10
1.99198e-10
2.05111e-10
2.1203e-10
2.20128e-10
2.29506e-10
2.40202e-10
2.52213e-10
2.65504e-10
2.80026e-10
2.95733e-10
3.12609e-10
3.30665e-10
3.49928e-10
3.70444e-10
3.92329e-10
4.15983e-10
4.42462e-10
4.73099e-10
5.0865e-10
5.49043e-10
5.93619e-10
6.41457e-10
6.9158e-10
7.4305e-10
7.95037e-10
8.46926e-10
8.98301e-10
9.48765e-10
9.97707e-10
1.04426e-09
1.08745e-09
1.1264e-09
1.16041e-09
1.18904e-09
1.21176e-09
1.22735e-09
1.23492e-09
1.23534e-09
1.22868e-09
1.21483e-09
1.19352e-09
1.16512e-09
1.1303e-09
1.08985e-09
1.04469e-09
9.95764e-10
9.43706e-10
8.88913e-10
8.31885e-10
7.73483e-10
7.14831e-10
6.56939e-10
6.0065e-10
1.46076e-10
1.46083e-10
1.46092e-10
1.46103e-10
1.46115e-10
1.46129e-10
1.46146e-10
1.46166e-10
1.46189e-10
1.46216e-10
1.46247e-10
1.46284e-10
1.46327e-10
1.46377e-10
1.46435e-10
1.46502e-10
1.46579e-10
1.46668e-10
1.46771e-10
1.4689e-10
1.47027e-10
1.47186e-10
1.4737e-10
1.47583e-10
1.47828e-10
1.48109e-10
1.4843e-10
1.48793e-10
1.49206e-10
1.49676e-10
1.50212e-10
1.50828e-10
1.51539e-10
1.52358e-10
1.53299e-10
1.54378e-10
1.55605e-10
1.56992e-10
1.58549e-10
1.60283e-10
1.62211e-10
1.64365e-10
1.66795e-10
1.69565e-10
1.72741e-10
1.76388e-10
1.80561e-10
1.85308e-10
1.90662e-10
1.96648e-10
2.03277e-10
2.10552e-10
2.18479e-10
2.27084e-10
2.36465e-10
2.46858e-10
2.58618e-10
2.72119e-10
2.87683e-10
3.05549e-10
3.2588e-10
3.48777e-10
3.74284e-10
4.024e-10
4.33097e-10
4.6636e-10
5.02226e-10
5.40828e-10
5.82491e-10
6.2803e-10
6.79396e-10
7.39269e-10
8.09867e-10
8.9247e-10
9.87556e-10
1.09509e-09
1.21472e-09
1.34583e-09
1.48771e-09
1.63977e-09
1.80183e-09
1.97397e-09
2.15633e-09
2.3491e-09
2.55306e-09
2.77147e-09
3.0155e-09
3.29869e-09
3.62326e-09
3.98296e-09
4.36843e-09
4.77025e-09
5.18002e-09
5.59049e-09
5.99576e-09
6.39216e-09
6.77803e-09
7.1515e-09
7.50853e-09
7.84274e-09
8.14763e-09
8.41764e-09
8.64889e-09
8.84037e-09
8.99014e-09
9.08736e-09
9.12374e-09
9.11555e-09
9.05979e-09
8.95207e-09
8.79052e-09
8.57845e-09
8.32087e-09
8.02164e-09
7.68588e-09
7.32038e-09
6.92886e-09
6.51243e-09
6.07297e-09
5.61596e-09
5.15017e-09
4.68353e-09
4.22193e-09
1.46414e-10
1.46488e-10
1.46575e-10
1.46677e-10
1.46798e-10
1.46939e-10
1.47104e-10
1.47298e-10
1.47524e-10
1.47789e-10
1.481e-10
1.48463e-10
1.48887e-10
1.4938e-10
1.49951e-10
1.5061e-10
1.51369e-10
1.52243e-10
1.53253e-10
1.54422e-10
1.55779e-10
1.57354e-10
1.59179e-10
1.61286e-10
1.63709e-10
1.6648e-10
1.69632e-10
1.73201e-10
1.77247e-10
1.81855e-10
1.87137e-10
1.93224e-10
2.0025e-10
2.0835e-10
2.17652e-10
2.28272e-10
2.40313e-10
2.53858e-10
2.68974e-10
2.85739e-10
3.04322e-10
3.25096e-10
3.48637e-10
3.756e-10
4.06612e-10
4.42219e-10
4.82873e-10
5.28932e-10
5.8065e-10
6.38167e-10
7.01515e-10
7.7068e-10
8.45699e-10
9.26896e-10
1.01542e-09
1.1142e-09
1.22721e-09
1.35789e-09
1.50864e-09
1.68089e-09
1.87536e-09
2.09224e-09
2.33116e-09
2.59134e-09
2.87179e-09
3.17182e-09
3.4914e-09
3.83136e-09
4.1942e-09
4.58677e-09
5.0282e-09
5.54229e-09
6.13927e-09
6.81829e-09
7.57336e-09
8.39665e-09
9.27941e-09
1.02123e-08
1.11865e-08
1.21962e-08
1.32397e-08
1.43176e-08
1.5429e-08
1.65728e-08
1.77504e-08
1.89715e-08
2.03022e-08
2.18415e-08
2.35305e-08
2.52999e-08
2.70975e-08
2.88858e-08
3.06383e-08
3.23348e-08
3.39595e-08
3.55065e-08
3.69794e-08
3.83773e-08
3.96868e-08
4.08837e-08
4.19475e-08
4.2862e-08
4.36156e-08
4.42186e-08
4.46764e-08
4.49173e-08
4.49297e-08
4.48045e-08
4.45199e-08
4.40325e-08
4.33486e-08
4.24701e-08
4.14314e-08
4.02348e-08
3.88804e-08
3.74024e-08
3.58118e-08
3.41018e-08
3.2268e-08
3.03194e-08
2.8293e-08
2.62189e-08
2.41139e-08
2.19914e-08
1.98574e-08
1.49706e-10
1.5042e-10
1.51264e-10
1.52259e-10
1.53425e-10
1.54791e-10
1.56389e-10
1.58259e-10
1.6045e-10
1.63016e-10
1.66022e-10
1.69533e-10
1.73622e-10
1.78366e-10
1.83844e-10
1.90145e-10
1.97384e-10
2.05715e-10
2.15339e-10
2.26488e-10
2.39418e-10
2.54399e-10
2.71708e-10
2.91624e-10
3.14418e-10
3.40346e-10
3.69665e-10
4.02712e-10
4.40079e-10
4.8268e-10
5.3164e-10
5.88153e-10
6.53391e-10
7.28477e-10
8.14457e-10
9.12269e-10
1.02269e-09
1.14628e-09
1.28351e-09
1.43502e-09
1.60258e-09
1.79058e-09
2.00515e-09
2.25211e-09
2.53612e-09
2.86065e-09
3.22806e-09
3.63971e-09
4.09582e-09
4.59533e-09
5.13622e-09
5.71633e-09
6.33433e-09
6.99185e-09
7.69808e-09
8.48107e-09
9.37069e-09
1.03801e-08
1.15101e-08
1.27556e-08
1.41083e-08
1.5558e-08
1.70919e-08
1.86962e-08
2.03586e-08
2.2072e-08
2.38352e-08
2.56511e-08
2.75299e-08
2.94971e-08
3.1663e-08
3.41656e-08
3.69475e-08
3.99348e-08
4.30703e-08
4.63118e-08
4.96234e-08
5.29715e-08
5.63297e-08
5.96872e-08
6.30532e-08
6.64397e-08
6.98418e-08
7.32506e-08
7.66537e-08
8.00371e-08
8.34121e-08
8.68013e-08
9.01779e-08
9.35042e-08
9.67456e-08
9.98763e-08
1.02875e-07
1.05732e-07
1.08432e-07
1.10977e-07
1.13391e-07
1.15652e-07
1.17734e-07
1.19587e-07
1.21172e-07
1.22479e-07
1.2348e-07
1.24207e-07
1.24664e-07
1.24629e-07
1.24302e-07
1.23652e-07
1.22664e-07
1.21326e-07
1.19637e-07
1.17613e-07
1.1524e-07
1.12498e-07
1.0944e-07
1.06168e-07
1.02649e-07
9.8888e-08
9.48701e-08
9.06046e-08
8.61926e-08
8.16388e-08
7.6964e-08
7.22044e-08
6.73659e-08
1.81005e-10
1.87754e-10
1.95702e-10
2.05019e-10
2.15901e-10
2.28585e-10
2.43374e-10
2.6064e-10
2.80816e-10
3.04386e-10
3.31875e-10
3.63845e-10
4.00884e-10
4.436e-10
4.92629e-10
5.48709e-10
6.1289e-10
6.86673e-10
7.71931e-10
8.70742e-10
9.85294e-10
1.11783e-09
1.27061e-09
1.44588e-09
1.64573e-09
1.87204e-09
2.1267e-09
2.41258e-09
2.73566e-09
3.10503e-09
3.53032e-09
4.02026e-09
4.58231e-09
5.22269e-09
5.94622e-09
6.75604e-09
7.65303e-09
8.6358e-09
9.70188e-09
1.08514e-08
1.20951e-08
1.34697e-08
1.50149e-08
1.67505e-08
1.86811e-08
2.08034e-08
2.31083e-08
2.55821e-08
2.82058e-08
3.09553e-08
3.38057e-08
3.67379e-08
3.97411e-08
4.28214e-08
4.6014e-08
4.94989e-08
5.33986e-08
5.76415e-08
6.21453e-08
6.68462e-08
7.1693e-08
7.66401e-08
8.164e-08
8.66477e-08