/*--------------------------------*- C++ -*----------------------------------*\
| =========                 |                                                 |
| \\      /  F ield         | OpenFOAM: The Open Source CFD Toolbox           |
|  \\    /   O peration     | Version:  v1706                                 |
|   \\  /    A nd           | Web:      www.OpenFOAM.com                      |
|    \\/     M anipulation  |                                                 |
\*---------------------------------------------------------------------------*/
FoamFile
{
    version     2.0;
    format      ascii;
    class       volScalarField;
    location    "1.4e-05";
    object      mu;
}
// * * * * * * * * * * * * * * * * * * * * * * * * * * * * * * * * * * * * * //

dimensions      [1 -1 -1 0 0 0 0];


internalField   nonuniform List<scalar> 
29871
(
1.0351e-05
1.0351e-05
1.0351e-05
1.0351e-05
1.0351e-05
1.0351e-05
1.0351e-05
1.0351e-05
1.0351e-05
1.0351e-05
1.0351e-05
1.0351e-05
1.0351e-05
1.0351e-05
1.0351e-05
1.0351e-05
1.0351e-05
1.0351e-05
1.0351e-05
1.0351e-05
1.0351e-05
1.0351e-05
1.0351e-05
1.0351e-05
1.0351e-05
1.0351e-05
1.0351e-05
1.0351e-05
1.0351e-05
1.0351e-05
1.0351e-05
1.0351e-05
1.0351e-05
1.0351e-05
1.0351e-05
1.0351e-05
1.0351e-05
1.0351e-05
1.0351e-05
1.0351e-05
1.0351e-05
1.0351e-05
1.0351e-05
1.0351e-05
1.0351e-05
1.0351e-05
1.0351e-05
1.0351e-05
1.0351e-05
1.0351e-05
1.0351e-05
1.0351e-05
1.0351e-05
1.0351e-05
1.0351e-05
1.0351e-05
1.0351e-05
1.0351e-05
1.0351e-05
1.0351e-05
1.0351e-05
1.0351e-05
1.0351e-05
1.0351e-05
1.0351e-05
1.0351e-05
1.0351e-05
1.0351e-05
1.0351e-05
1.0351e-05
1.0351e-05
1.0351e-05
1.0351e-05
1.0351e-05
1.0351e-05
1.0351e-05
1.0351e-05
1.0351e-05
1.0351e-05
1.0351e-05
1.0351e-05
1.0351e-05
1.0351e-05
1.0351e-05
1.0351e-05
1.0351e-05
1.0351e-05
1.0351e-05
1.0351e-05
1.0351e-05
1.0351e-05
1.0351e-05
1.0351e-05
1.0351e-05
1.0351e-05
1.0351e-05
1.0351e-05
1.0351e-05
1.0351e-05
1.0351e-05
1.0351e-05
1.0351e-05
1.0351e-05
1.0351e-05
1.0351e-05
1.0351e-05
1.0351e-05
1.0351e-05
1.0351e-05
1.0351e-05
1.0351e-05
1.0351e-05
1.0351e-05
1.0351e-05
1.0351e-05
1.0351e-05
1.0351e-05
1.0351e-05
1.0351e-05
1.0351e-05
1.0351e-05
1.0351e-05
1.0351e-05
1.0351e-05
1.0351e-05
1.0351e-05
1.0351e-05
1.0351e-05
1.0351e-05
1.0351e-05
1.0351e-05
1.0351e-05
1.0351e-05
1.0351e-05
1.0351e-05
1.0351e-05
1.0351e-05
1.0351e-05
1.0351e-05
1.0351e-05
1.0351e-05
1.0351e-05
1.0351e-05
1.0351e-05
1.0351e-05
1.0351e-05
1.0351e-05
1.0351e-05
1.0351e-05
1.0351e-05
1.0351e-05
1.0351e-05
1.0351e-05
1.0351e-05
1.0351e-05
1.0351e-05
1.0351e-05
1.0351e-05
1.0351e-05
1.0351e-05
1.0351e-05
1.0351e-05
1.0351e-05
1.0351e-05
1.0351e-05
1.0351e-05
1.0351e-05
1.0351e-05
1.0351e-05
1.0351e-05
1.0351e-05
1.0351e-05
1.0351e-05
1.0351e-05
1.0351e-05
1.0351e-05
1.0351e-05
1.0351e-05
1.0351e-05
1.0351e-05
1.0351e-05
1.0351e-05
1.0351e-05
1.0351e-05
1.0351e-05
1.0351e-05
1.0351e-05
1.0351e-05
1.0351e-05
1.0351e-05
1.0351e-05
1.0351e-05
1.0351e-05
1.0351e-05
1.0351e-05
1.0351e-05
1.0351e-05
1.0351e-05
1.0351e-05
1.0351e-05
1.0351e-05
1.0351e-05
1.0351e-05
1.0351e-05
1.0351e-05
1.0351e-05
1.0351e-05
1.0351e-05
1.0351e-05
1.0351e-05
1.0351e-05
1.0351e-05
1.0351e-05
1.0351e-05
1.0351e-05
1.0351e-05
1.0351e-05
1.0351e-05
1.0351e-05
1.0351e-05
1.0351e-05
1.0351e-05
1.0351e-05
1.0351e-05
1.0351e-05
1.0351e-05
1.0351e-05
1.0351e-05
1.0351e-05
1.0351e-05
1.0351e-05
1.0351e-05
1.0351e-05
1.0351e-05
1.0351e-05
1.0351e-05
1.0351e-05
1.0351e-05
1.0351e-05
1.0351e-05
1.0351e-05
1.0351e-05
1.0351e-05
1.0351e-05
1.0351e-05
1.0351e-05
1.0351e-05
1.0351e-05
1.0351e-05
1.0351e-05
1.0351e-05
1.0351e-05
1.0351e-05
1.0351e-05
1.0351e-05
1.0351e-05
1.0351e-05
1.0351e-05
1.0351e-05
1.0351e-05
1.0351e-05
1.0351e-05
1.0351e-05
1.0351e-05
1.0351e-05
1.0351e-05
1.0351e-05
1.0351e-05
1.0351e-05
1.0351e-05
1.0351e-05
1.0351e-05
1.0351e-05
1.0351e-05
1.0351e-05
1.0351e-05
1.0351e-05
1.0351e-05
1.0351e-05
1.0351e-05
1.0351e-05
1.0351e-05
1.0351e-05
1.0351e-05
1.0351e-05
1.0351e-05
1.0351e-05
1.0351e-05
1.0351e-05
1.0351e-05
1.0351e-05
1.0351e-05
1.0351e-05
1.0351e-05
1.0351e-05
1.0351e-05
1.0351e-05
1.0351e-05
1.0351e-05
1.0351e-05
1.0351e-05
1.0351e-05
1.0351e-05
1.0351e-05
1.0351e-05
1.0351e-05
1.0351e-05
1.0351e-05
1.0351e-05
1.0351e-05
1.0351e-05
1.0351e-05
1.0351e-05
1.0351e-05
1.0351e-05
1.0351e-05
1.0351e-05
1.0351e-05
1.0351e-05
1.0351e-05
1.0351e-05
1.0351e-05
1.0351e-05
1.0351e-05
1.0351e-05
1.0351e-05
1.0351e-05
1.0351e-05
1.0351e-05
1.0351e-05
1.0351e-05
1.0351e-05
1.0351e-05
1.0351e-05
1.0351e-05
1.0351e-05
1.0351e-05
1.0351e-05
1.0351e-05
1.0351e-05
1.0351e-05
1.0351e-05
1.0351e-05
1.0351e-05
1.0351e-05
1.0351e-05
1.0351e-05
1.0351e-05
1.0351e-05
1.0351e-05
1.0351e-05
1.0351e-05
1.0351e-05
1.0351e-05
1.0351e-05
1.0351e-05
1.0351e-05
1.0351e-05
1.0351e-05
1.0351e-05
1.0351e-05
1.0351e-05
1.0351e-05
1.0351e-05
1.0351e-05
1.0351e-05
1.0351e-05
1.0351e-05
1.0351e-05
1.0351e-05
1.0351e-05
1.0351e-05
1.0351e-05
1.0351e-05
1.0351e-05
1.0351e-05
1.0351e-05
1.0351e-05
1.0351e-05
1.0351e-05
1.0351e-05
1.0351e-05
1.0351e-05
1.0351e-05
1.0351e-05
1.0351e-05
1.0351e-05
1.0351e-05
1.0351e-05
1.0351e-05
1.0351e-05
1.0351e-05
1.0351e-05
1.0351e-05
1.0351e-05
1.0351e-05
1.0351e-05
1.0351e-05
1.0351e-05
1.0351e-05
1.0351e-05
1.0351e-05
1.0351e-05
1.0351e-05
1.0351e-05
1.0351e-05
1.0351e-05
1.0351e-05
1.0351e-05
1.0351e-05
1.0351e-05
1.0351e-05
1.0351e-05
1.0351e-05
1.0351e-05
1.0351e-05
1.0351e-05
1.0351e-05
1.0351e-05
1.0351e-05
1.0351e-05
1.0351e-05
1.0351e-05
1.0351e-05
1.0351e-05
1.0351e-05
1.0351e-05
1.0351e-05
1.0351e-05
1.0351e-05
1.0351e-05
1.0351e-05
1.0351e-05
1.0351e-05
1.0351e-05
1.0351e-05
1.0351e-05
1.0351e-05
1.0351e-05
1.0351e-05
1.0351e-05
1.0351e-05
1.0351e-05
1.0351e-05
1.0351e-05
1.0351e-05
1.0351e-05
1.0351e-05
1.0351e-05
1.0351e-05
1.0351e-05
1.0351e-05
1.0351e-05
1.0351e-05
1.0351e-05
1.0351e-05
1.0351e-05
1.0351e-05
1.0351e-05
1.0351e-05
1.0351e-05
1.0351e-05
1.0351e-05
1.0351e-05
1.0351e-05
1.0351e-05
1.0351e-05
1.0351e-05
1.0351e-05
1.0351e-05
1.0351e-05
1.0351e-05
1.0351e-05
1.0351e-05
1.0351e-05
1.0351e-05
1.0351e-05
1.0351e-05
1.0351e-05
1.0351e-05
1.0351e-05
1.0351e-05
1.0351e-05
1.0351e-05
1.0351e-05
1.0351e-05
1.0351e-05
1.0351e-05
1.0351e-05
1.0351e-05
1.0351e-05
1.0351e-05
1.0351e-05
1.0351e-05
1.0351e-05
1.0351e-05
1.0351e-05
1.0351e-05
1.0351e-05
1.0351e-05
1.0351e-05
1.0351e-05
1.0351e-05
1.0351e-05
1.0351e-05
1.0351e-05
1.0351e-05
1.0351e-05
1.0351e-05
1.0351e-05
1.0351e-05
1.0351e-05
1.0351e-05
1.0351e-05
1.0351e-05
1.0351e-05
1.0351e-05
1.0351e-05
1.0351e-05
1.0351e-05
1.0351e-05
1.0351e-05
1.0351e-05
1.0351e-05
1.0351e-05
1.0351e-05
1.0351e-05
1.0351e-05
1.0351e-05
1.0351e-05
1.0351e-05
1.0351e-05
1.0351e-05
1.0351e-05
1.0351e-05
1.0351e-05
1.0351e-05
1.0351e-05
1.0351e-05
1.0351e-05
1.0351e-05
1.0351e-05
1.0351e-05
1.0351e-05
1.0351e-05
1.0351e-05
1.0351e-05
1.0351e-05
1.0351e-05
1.0351e-05
1.0351e-05
1.0351e-05
1.0351e-05
1.0351e-05
1.0351e-05
1.0351e-05
1.0351e-05
1.0351e-05
1.0351e-05
1.0351e-05
1.0351e-05
1.0351e-05
1.0351e-05
1.0351e-05
1.0351e-05
1.0351e-05
1.0351e-05
1.0351e-05
1.0351e-05
1.0351e-05
1.0351e-05
1.0351e-05
1.0351e-05
1.0351e-05
1.0351e-05
1.0351e-05
1.0351e-05
1.0351e-05
1.0351e-05
1.0351e-05
1.0351e-05
1.0351e-05
1.0351e-05
1.0351e-05
1.0351e-05
1.0351e-05
1.0351e-05
1.0351e-05
1.0351e-05
1.0351e-05
1.0351e-05
1.0351e-05
1.0351e-05
1.0351e-05
1.0351e-05
1.0351e-05
1.0351e-05
1.0351e-05
1.0351e-05
1.0351e-05
1.0351e-05
1.0351e-05
1.0351e-05
1.0351e-05
1.0351e-05
1.0351e-05
1.0351e-05
1.0351e-05
1.0351e-05
1.0351e-05
1.0351e-05
1.0351e-05
1.0351e-05
1.0351e-05
1.0351e-05
1.0351e-05
1.0351e-05
1.0351e-05
1.0351e-05
1.0351e-05
1.0351e-05
1.0351e-05
1.0351e-05
1.0351e-05
1.0351e-05
1.0351e-05
1.0351e-05
1.0351e-05
1.0351e-05
1.0351e-05
1.0351e-05
1.0351e-05
1.0351e-05
1.0351e-05
1.0351e-05
1.0351e-05
1.0351e-05
1.0351e-05
1.0351e-05
1.0351e-05
1.0351e-05
1.0351e-05
1.0351e-05
1.0351e-05
1.0351e-05
1.0351e-05
1.0351e-05
1.0351e-05
1.0351e-05
1.0351e-05
1.0351e-05
1.0351e-05
1.0351e-05
1.0351e-05
1.0351e-05
1.0351e-05
1.0351e-05
1.0351e-05
1.0351e-05
1.0351e-05
1.0351e-05
1.0351e-05
1.0351e-05
1.0351e-05
1.0351e-05
1.0351e-05
1.0351e-05
1.0351e-05
1.0351e-05
1.0351e-05
1.0351e-05
1.0351e-05
1.0351e-05
1.0351e-05
1.0351e-05
1.0351e-05
1.0351e-05
1.0351e-05
1.0351e-05
1.0351e-05
1.0351e-05
1.0351e-05
1.0351e-05
1.0351e-05
1.0351e-05
1.0351e-05
1.0351e-05
1.0351e-05
1.0351e-05
1.0351e-05
1.0351e-05
1.0351e-05
1.0351e-05
1.0351e-05
1.0351e-05
1.0351e-05
1.0351e-05
1.0351e-05
1.0351e-05
1.0351e-05
1.0351e-05
1.0351e-05
1.0351e-05
1.0351e-05
1.0351e-05
1.0351e-05
1.0351e-05
1.0351e-05
1.0351e-05
1.0351e-05
1.0351e-05
1.0351e-05
1.0351e-05
1.0351e-05
1.0351e-05
1.0351e-05
1.0351e-05
1.0351e-05
1.0351e-05
1.0351e-05
1.0351e-05
1.0351e-05
1.0351e-05
1.0351e-05
1.0351e-05
1.0351e-05
1.0351e-05
1.0351e-05
1.0351e-05
1.0351e-05
1.0351e-05
1.0351e-05
1.0351e-05
1.0351e-05
1.0351e-05
1.0351e-05
1.0351e-05
1.0351e-05
1.0351e-05
1.0351e-05
1.0351e-05
1.0351e-05
1.0351e-05
1.0351e-05
1.0351e-05
1.0351e-05
1.0351e-05
1.0351e-05
1.0351e-05
1.0351e-05
1.0351e-05
1.0351e-05
1.0351e-05
1.0351e-05
1.0351e-05
1.0351e-05
1.0351e-05
1.0351e-05
1.0351e-05
1.0351e-05
1.0351e-05
1.0351e-05
1.0351e-05
1.0351e-05
1.0351e-05
1.0351e-05
1.0351e-05
1.0351e-05
1.0351e-05
1.0351e-05
1.0351e-05
1.0351e-05
1.0351e-05
1.0351e-05
1.0351e-05
1.0351e-05
1.0351e-05
1.0351e-05
1.0351e-05
1.0351e-05
1.0351e-05
1.0351e-05
1.0351e-05
1.0351e-05
1.0351e-05
1.0351e-05
1.0351e-05
1.0351e-05
1.0351e-05
1.0351e-05
1.0351e-05
1.0351e-05
1.0351e-05
1.0351e-05
1.0351e-05
1.0351e-05
1.0351e-05
1.0351e-05
1.0351e-05
1.0351e-05
1.0351e-05
1.0351e-05
1.0351e-05
1.0351e-05
1.0351e-05
1.0351e-05
1.0351e-05
1.0351e-05
1.0351e-05
1.0351e-05
1.0351e-05
1.0351e-05
1.0351e-05
1.0351e-05
1.0351e-05
1.0351e-05
1.0351e-05
1.0351e-05
1.0351e-05
1.0351e-05
1.0351e-05
1.0351e-05
1.0351e-05
1.0351e-05
1.0351e-05
1.0351e-05
1.0351e-05
1.0351e-05
1.0351e-05
1.0351e-05
1.0351e-05
1.0351e-05
1.0351e-05
1.0351e-05
1.0351e-05
1.0351e-05
1.0351e-05
1.0351e-05
1.0351e-05
1.0351e-05
1.0351e-05
1.0351e-05
1.0351e-05
1.0351e-05
1.0351e-05
1.0351e-05
1.0351e-05
1.0351e-05
1.0351e-05
1.0351e-05
1.0351e-05
1.0351e-05
1.0351e-05
1.0351e-05
1.0351e-05
1.0351e-05
1.0351e-05
1.0351e-05
1.0351e-05
1.0351e-05
1.0351e-05
1.0351e-05
1.0351e-05
1.0351e-05
1.0351e-05
1.0351e-05
1.0351e-05
1.0351e-05
1.0351e-05
1.0351e-05
1.0351e-05
1.0351e-05
1.0351e-05
1.0351e-05
1.0351e-05
1.0351e-05
1.0351e-05
1.0351e-05
1.0351e-05
1.0351e-05
1.0351e-05
1.0351e-05
1.0351e-05
1.0351e-05
1.0351e-05
1.0351e-05
1.0351e-05
1.0351e-05
1.0351e-05
1.0351e-05
1.0351e-05
1.0351e-05
1.0351e-05
1.0351e-05
1.0351e-05
1.0351e-05
1.0351e-05
1.0351e-05
1.0351e-05
1.0351e-05
1.0351e-05
1.0351e-05
1.0351e-05
1.0351e-05
1.0351e-05
1.0351e-05
1.0351e-05
1.0351e-05
1.0351e-05
1.0351e-05
1.0351e-05
1.0351e-05
1.0351e-05
1.0351e-05
1.0351e-05
1.0351e-05
1.0351e-05
1.0351e-05
1.0351e-05
1.0351e-05
1.0351e-05
1.0351e-05
1.0351e-05
1.0351e-05
1.0351e-05
1.0351e-05
1.0351e-05
1.0351e-05
1.0351e-05
1.0351e-05
1.0351e-05
1.0351e-05
1.0351e-05
1.0351e-05
1.0351e-05
1.0351e-05
1.0351e-05
1.0351e-05
1.0351e-05
1.0351e-05
1.0351e-05
1.0351e-05
1.0351e-05
1.0351e-05
1.0351e-05
1.0351e-05
1.0351e-05
1.0351e-05
1.0351e-05
1.0351e-05
1.0351e-05
1.0351e-05
1.0351e-05
1.0351e-05
1.0351e-05
1.0351e-05
1.0351e-05
1.0351e-05
1.0351e-05
1.0351e-05
1.0351e-05
1.0351e-05
1.0351e-05
1.0351e-05
1.0351e-05
1.0351e-05
1.0351e-05
1.0351e-05
1.0351e-05
1.0351e-05
1.0351e-05
1.0351e-05
1.0351e-05
1.0351e-05
1.0351e-05
1.0351e-05
1.0351e-05
1.0351e-05
1.0351e-05
1.0351e-05
1.0351e-05
1.0351e-05
1.0351e-05
1.0351e-05
1.0351e-05
1.0351e-05
1.0351e-05
1.0351e-05
1.0351e-05
1.0351e-05
1.0351e-05
1.0351e-05
1.0351e-05
1.0351e-05
1.0351e-05
1.0351e-05
1.0351e-05
1.0351e-05
1.0351e-05
1.0351e-05
1.0351e-05
1.0351e-05
1.0351e-05
1.0351e-05
1.0351e-05
1.0351e-05
1.0351e-05
1.0351e-05
1.0351e-05
1.0351e-05
1.0351e-05
1.0351e-05
1.0351e-05
1.0351e-05
1.0351e-05
1.0351e-05
1.0351e-05
1.0351e-05
1.0351e-05
1.0351e-05
1.0351e-05
1.0351e-05
1.0351e-05
1.0351e-05
1.0351e-05
1.0351e-05
1.0351e-05
1.0351e-05
1.0351e-05
1.0351e-05
1.0351e-05
1.0351e-05
1.0351e-05
1.0351e-05
1.0351e-05
1.0351e-05
1.0351e-05
1.0351e-05
1.0351e-05
1.0351e-05
1.0351e-05
1.0351e-05
1.0351e-05
1.0351e-05
1.0351e-05
1.0351e-05
1.0351e-05
1.0351e-05
1.0351e-05
1.0351e-05
1.0351e-05
1.0351e-05
1.0351e-05
1.0351e-05
1.0351e-05
1.0351e-05
1.0351e-05
1.0351e-05
1.0351e-05
1.0351e-05
1.0351e-05
1.0351e-05
1.0351e-05
1.0351e-05
1.0351e-05
1.0351e-05
1.0351e-05
1.0351e-05
1.0351e-05
1.0351e-05
1.0351e-05
1.0351e-05
1.0351e-05
1.0351e-05
1.0351e-05
1.0351e-05
1.0351e-05
1.0351e-05
1.0351e-05
1.0351e-05
1.0351e-05
1.0351e-05
1.0351e-05
1.0351e-05
1.0351e-05
1.0351e-05
1.0351e-05
1.0351e-05
1.0351e-05
1.0351e-05
1.0351e-05
1.0351e-05
1.0351e-05
1.0351e-05
1.0351e-05
1.0351e-05
1.0351e-05
1.0351e-05
1.0351e-05
1.0351e-05
1.0351e-05
1.0351e-05
1.0351e-05
1.0351e-05
1.0351e-05
1.0351e-05
1.0351e-05
1.0351e-05
1.0351e-05
1.0351e-05
1.0351e-05
1.0351e-05
1.0351e-05
1.0351e-05
1.0351e-05
1.0351e-05
1.0351e-05
1.0351e-05
1.0351e-05
1.0351e-05
1.0351e-05
1.0351e-05
1.0351e-05
1.0351e-05
1.0351e-05
1.0351e-05
1.0351e-05
1.0351e-05
1.0351e-05
1.0351e-05
1.0351e-05
1.0351e-05
1.0351e-05
1.0351e-05
1.0351e-05
1.0351e-05
1.0351e-05
1.0351e-05
1.0351e-05
1.0351e-05
1.0351e-05
1.0351e-05
1.0351e-05
1.0351e-05
1.0351e-05
1.0351e-05
1.0351e-05
1.0351e-05
1.0351e-05
1.0351e-05
1.0351e-05
1.0351e-05
1.0351e-05
1.0351e-05
1.0351e-05
1.0351e-05
1.0351e-05
1.0351e-05
1.0351e-05
1.0351e-05
1.0351e-05
1.0351e-05
1.0351e-05
1.0351e-05
1.0351e-05
1.0351e-05
1.0351e-05
1.0351e-05
1.0351e-05
1.0351e-05
1.0351e-05
1.0351e-05
1.0351e-05
1.0351e-05
1.0351e-05
1.0351e-05
1.0351e-05
1.0351e-05
1.0351e-05
1.0351e-05
1.0351e-05
1.0351e-05
1.0351e-05
1.0351e-05
1.0351e-05
1.0351e-05
1.0351e-05
1.0351e-05
1.0351e-05
1.0351e-05
1.0351e-05
1.0351e-05
1.0351e-05
1.0351e-05
1.0351e-05
1.0351e-05
1.0351e-05
1.0351e-05
1.0351e-05
1.0351e-05
1.0351e-05
1.0351e-05
1.0351e-05
1.0351e-05
1.0351e-05
1.0351e-05
1.0351e-05
1.0351e-05
1.0351e-05
1.0351e-05
1.0351e-05
1.0351e-05
1.0351e-05
1.0351e-05
1.0351e-05
1.0351e-05
1.0351e-05
1.0351e-05
1.0351e-05
1.0351e-05
1.0351e-05
1.0351e-05
1.0351e-05
1.0351e-05
1.0351e-05
1.0351e-05
1.0351e-05
1.0351e-05
1.0351e-05
1.0351e-05
1.0351e-05
1.0351e-05
1.0351e-05
1.0351e-05
1.0351e-05
1.0351e-05
1.0351e-05
1.0351e-05
1.0351e-05
1.0351e-05
1.0351e-05
1.0351e-05
1.0351e-05
1.0351e-05
1.0351e-05
1.0351e-05
1.0351e-05
1.0351e-05
1.0351e-05
1.0351e-05
1.0351e-05
1.0351e-05
1.0351e-05
1.0351e-05
1.0351e-05
1.0351e-05
1.0351e-05
1.0351e-05
1.0351e-05
1.0351e-05
1.0351e-05
1.0351e-05
1.0351e-05
1.0351e-05
1.0351e-05
1.0351e-05
1.0351e-05
1.0351e-05
1.0351e-05
1.0351e-05
1.0351e-05
1.0351e-05
1.0351e-05
1.0351e-05
1.0351e-05
1.0351e-05
1.0351e-05
1.0351e-05
1.0351e-05
1.0351e-05
1.0351e-05
1.0351e-05
1.0351e-05
1.0351e-05
1.0351e-05
1.0351e-05
1.0351e-05
1.0351e-05
1.0351e-05
1.0351e-05
1.0351e-05
1.0351e-05
1.0351e-05
1.0351e-05
1.0351e-05
1.0351e-05
1.0351e-05
1.0351e-05
1.0351e-05
1.0351e-05
1.0351e-05
1.0351e-05
1.0351e-05
1.0351e-05
1.0351e-05
1.0351e-05
1.0351e-05
1.0351e-05
1.0351e-05
1.0351e-05
1.0351e-05
1.0351e-05
1.0351e-05
1.0351e-05
1.0351e-05
1.0351e-05
1.0351e-05
1.0351e-05
1.0351e-05
1.0351e-05
1.0351e-05
1.0351e-05
1.0351e-05
1.0351e-05
1.0351e-05
1.0351e-05
1.0351e-05
1.0351e-05
1.0351e-05
1.0351e-05
1.0351e-05
1.0351e-05
1.0351e-05
1.0351e-05
1.0351e-05
1.0351e-05
1.0351e-05
1.0351e-05
1.0351e-05
1.0351e-05
1.0351e-05
1.0351e-05
1.0351e-05
1.0351e-05
1.0351e-05
1.0351e-05
1.0351e-05
1.0351e-05
1.0351e-05
1.0351e-05
1.0351e-05
1.0351e-05
1.0351e-05
1.0351e-05
1.0351e-05
1.0351e-05
1.0351e-05
1.0351e-05
1.0351e-05
1.0351e-05
1.0351e-05
1.0351e-05
1.0351e-05
1.0351e-05
1.0351e-05
1.0351e-05
1.0351e-05
1.0351e-05
1.03511e-05
1.03511e-05
1.03511e-05
1.03511e-05
1.03511e-05
1.03511e-05
1.03511e-05
1.03511e-05
1.03511e-05
1.03511e-05
1.03511e-05
1.03511e-05
1.03512e-05
1.03512e-05
1.03512e-05
1.03512e-05
1.03512e-05
1.03512e-05
1.03512e-05
1.03512e-05
1.03513e-05
1.03513e-05
1.03513e-05
1.03513e-05
1.03513e-05
1.03513e-05
1.03513e-05
1.03513e-05
1.03513e-05
1.03513e-05
1.03513e-05
1.03513e-05
1.03513e-05
1.03513e-05
1.03513e-05
1.03513e-05
1.03512e-05
1.03512e-05
1.03512e-05
1.03512e-05
1.03512e-05
1.03512e-05
1.0351e-05
1.0351e-05
1.0351e-05
1.0351e-05
1.0351e-05
1.0351e-05
1.0351e-05
1.0351e-05
1.0351e-05
1.0351e-05
1.0351e-05
1.0351e-05
1.0351e-05
1.0351e-05
1.0351e-05
1.0351e-05
1.0351e-05
1.0351e-05
1.0351e-05
1.0351e-05
1.0351e-05
1.0351e-05
1.0351e-05
1.0351e-05
1.0351e-05
1.0351e-05
1.0351e-05
1.0351e-05
1.0351e-05
1.0351e-05
1.0351e-05
1.0351e-05
1.0351e-05
1.0351e-05
1.0351e-05
1.0351e-05
1.0351e-05
1.0351e-05
1.0351e-05
1.0351e-05
1.0351e-05
1.0351e-05
1.0351e-05
1.0351e-05
1.0351e-05
1.0351e-05
1.0351e-05
1.0351e-05
1.0351e-05
1.0351e-05
1.0351e-05
1.0351e-05
1.03511e-05
1.03511e-05
1.03511e-05
1.03511e-05
1.03511e-05
1.03511e-05
1.03511e-05
1.03511e-05
1.03511e-05
1.03511e-05
1.03511e-05
1.03512e-05
1.03512e-05
1.03512e-05
1.03512e-05
1.03512e-05
1.03513e-05
1.03513e-05
1.03513e-05
1.03514e-05
1.03514e-05
1.03515e-05
1.03515e-05
1.03515e-05
1.03516e-05
1.03517e-05
1.03517e-05
1.03518e-05
1.03519e-05
1.03519e-05
1.0352e-05
1.03521e-05
1.03523e-05
1.03524e-05
1.03525e-05
1.03526e-05
1.03527e-05
1.03528e-05
1.03529e-05
1.0353e-05
1.03531e-05
1.03531e-05
1.03532e-05
1.03532e-05
1.03533e-05
1.03533e-05
1.03533e-05
1.03533e-05
1.03533e-05
1.03533e-05
1.03533e-05
1.03532e-05
1.03531e-05
1.03531e-05
1.0353e-05
1.03529e-05
1.03528e-05
1.03527e-05
1.03526e-05
1.03525e-05
1.03524e-05
1.0351e-05
1.0351e-05
1.0351e-05
1.0351e-05
1.0351e-05
1.0351e-05
1.0351e-05
1.0351e-05
1.0351e-05
1.0351e-05
1.0351e-05
1.0351e-05
1.0351e-05
1.0351e-05
1.0351e-05
1.0351e-05
1.0351e-05
1.0351e-05
1.0351e-05
1.0351e-05
1.0351e-05
1.0351e-05
1.0351e-05
1.0351e-05
1.0351e-05
1.0351e-05
1.0351e-05
1.0351e-05
1.0351e-05
1.0351e-05
1.0351e-05
1.0351e-05
1.0351e-05
1.0351e-05
1.0351e-05
1.0351e-05
1.03511e-05
1.03511e-05
1.03511e-05
1.03511e-05
1.03511e-05
1.03511e-05
1.03511e-05
1.03511e-05
1.03511e-05
1.03511e-05
1.03512e-05
1.03512e-05
1.03512e-05
1.03512e-05
1.03512e-05
1.03513e-05
1.03513e-05
1.03513e-05
1.03514e-05
1.03514e-05
1.03515e-05
1.03515e-05
1.03516e-05
1.03516e-05
1.03517e-05
1.03518e-05
1.03519e-05
1.0352e-05
1.03521e-05
1.03522e-05
1.03523e-05
1.03524e-05
1.03526e-05
1.03528e-05
1.0353e-05
1.03533e-05
1.03535e-05
1.03538e-05
1.03541e-05
1.03544e-05
1.03547e-05
1.03551e-05
1.03555e-05
1.03559e-05
1.03563e-05
1.03569e-05
1.03575e-05
1.03581e-05
1.03589e-05
1.03596e-05
1.03604e-05
1.03613e-05
1.03621e-05
1.03629e-05
1.03637e-05
1.03645e-05
1.03652e-05
1.03659e-05
1.03665e-05
1.0367e-05
1.03675e-05
1.03679e-05
1.03682e-05
1.03684e-05
1.03685e-05
1.03685e-05
1.03684e-05
1.03682e-05
1.03679e-05
1.03675e-05
1.03671e-05
1.03665e-05
1.03659e-05
1.03653e-05
1.03646e-05
1.03638e-05
1.0363e-05
1.03622e-05
1.03613e-05
1.0351e-05
1.0351e-05
1.0351e-05
1.0351e-05
1.0351e-05
1.0351e-05
1.0351e-05
1.0351e-05
1.0351e-05
1.0351e-05
1.0351e-05
1.0351e-05
1.0351e-05
1.0351e-05
1.0351e-05
1.0351e-05
1.0351e-05
1.0351e-05
1.0351e-05
1.0351e-05
1.03511e-05
1.03511e-05
1.03511e-05
1.03511e-05
1.03511e-05
1.03511e-05
1.03511e-05
1.03511e-05
1.03511e-05
1.03512e-05
1.03512e-05
1.03512e-05
1.03512e-05
1.03513e-05
1.03513e-05
1.03513e-05
1.03514e-05
1.03514e-05
1.03514e-05
1.03515e-05
1.03516e-05
1.03516e-05
1.03517e-05
1.03518e-05
1.03519e-05
1.0352e-05
1.03521e-05
1.03522e-05
1.03524e-05
1.03525e-05
1.03527e-05
1.03529e-05
1.03531e-05
1.03534e-05
1.03537e-05
1.0354e-05
1.03543e-05
1.03547e-05
1.03551e-05
1.03556e-05
1.03561e-05
1.03566e-05
1.03572e-05
1.03578e-05
1.03586e-05
1.03594e-05
1.03604e-05
1.03615e-05
1.03628e-05
1.03642e-05
1.03658e-05
1.03676e-05
1.03695e-05
1.03715e-05
1.03737e-05
1.03759e-05
1.03783e-05
1.03808e-05
1.03835e-05
1.03865e-05
1.03899e-05
1.03938e-05
1.03984e-05
1.04034e-05
1.04088e-05
1.04146e-05
1.04205e-05
1.04266e-05
1.04326e-05
1.04385e-05
1.04442e-05
1.04498e-05
1.04551e-05
1.046e-05
1.04645e-05
1.04686e-05
1.0472e-05
1.04749e-05
1.04771e-05
1.04785e-05
1.04792e-05
1.04792e-05
1.04785e-05
1.04771e-05
1.04749e-05
1.04722e-05
1.04688e-05
1.04648e-05
1.04605e-05
1.04556e-05
1.04504e-05
1.04449e-05
1.04391e-05
1.0433e-05
1.04269e-05
1.04206e-05
1.0351e-05
1.0351e-05
1.0351e-05
1.0351e-05
1.0351e-05
1.0351e-05
1.0351e-05
1.0351e-05
1.0351e-05
1.0351e-05
1.0351e-05
1.0351e-05
1.0351e-05
1.03511e-05
1.03511e-05
1.03511e-05
1.03511e-05
1.03511e-05
1.03511e-05
1.03511e-05
1.03511e-05
1.03512e-05
1.03512e-05
1.03512e-05
1.03512e-05
1.03513e-05
1.03513e-05
1.03513e-05
1.03514e-05
1.03514e-05
1.03515e-05
1.03516e-05
1.03516e-05
1.03517e-05
1.03518e-05
1.03519e-05
1.03521e-05
1.03522e-05
1.03524e-05
1.03525e-05
1.03527e-05
1.03529e-05
1.03532e-05
1.03534e-05
1.03537e-05
1.03541e-05
1.03545e-05
1.03549e-05
1.03554e-05
1.0356e-05
1.03566e-05
1.03573e-05
1.0358e-05
1.03588e-05
1.03597e-05
1.03606e-05
1.03617e-05
1.03629e-05
1.03642e-05
1.03658e-05
1.03676e-05
1.03696e-05
1.03719e-05
1.03744e-05
1.03772e-05
1.03801e-05
1.03834e-05
1.03868e-05
1.03905e-05
1.03946e-05
1.03991e-05
1.04042e-05
1.04102e-05
1.04173e-05
1.04254e-05
1.04347e-05
1.04451e-05
1.04566e-05
1.04691e-05
1.04824e-05
1.04966e-05
1.05116e-05
1.05274e-05
1.05439e-05
1.05614e-05
1.05801e-05
1.06011e-05
1.06252e-05
1.06533e-05
1.06852e-05
1.07206e-05
1.07585e-05
1.07981e-05
1.08386e-05
1.08792e-05
1.09194e-05
1.09588e-05
1.09972e-05
1.10341e-05
1.1069e-05
1.11014e-05
1.11309e-05
1.1157e-05
1.11795e-05
1.1198e-05
1.12122e-05
1.12216e-05
1.12261e-05
1.12261e-05
1.12215e-05
1.12122e-05
1.11983e-05
1.118e-05
1.11579e-05
1.11323e-05
1.11036e-05
1.1072e-05
1.10377e-05
1.10007e-05
1.09616e-05
1.09209e-05
1.0879e-05
1.08365e-05
1.03511e-05
1.03511e-05
1.03511e-05
1.03511e-05
1.03511e-05
1.03511e-05
1.03511e-05
1.03511e-05
1.03512e-05
1.03512e-05
1.03512e-05
1.03513e-05
1.03513e-05
1.03513e-05
1.03514e-05
1.03515e-05
1.03515e-05
1.03516e-05
1.03517e-05
1.03518e-05
1.03519e-05
1.0352e-05
1.03522e-05
1.03524e-05
1.03525e-05
1.03528e-05
1.0353e-05
1.03533e-05
1.03536e-05
1.03539e-05
1.03543e-05
1.03548e-05
1.03553e-05
1.03559e-05
1.03565e-05
1.03573e-05
1.03582e-05
1.03591e-05
1.03602e-05
1.03613e-05
1.03626e-05
1.03641e-05
1.03657e-05
1.03675e-05
1.03695e-05
1.03719e-05
1.03746e-05
1.03776e-05
1.0381e-05
1.03848e-05
1.03889e-05
1.03935e-05
1.03984e-05
1.04038e-05
1.04096e-05
1.0416e-05
1.04233e-05
1.04316e-05
1.04411e-05
1.0452e-05
1.04644e-05
1.04785e-05
1.0494e-05
1.05112e-05
1.05298e-05
1.05499e-05
1.05715e-05
1.05945e-05
1.06192e-05
1.0646e-05
1.06761e-05
1.07108e-05
1.07516e-05
1.07992e-05
1.08539e-05
1.09156e-05
1.09838e-05
1.1058e-05
1.11375e-05
1.12216e-05
1.13098e-05
1.1402e-05
1.14977e-05
1.15971e-05
1.17007e-05
1.18109e-05
1.19338e-05
1.20761e-05
1.22402e-05
1.24236e-05
1.26211e-05
1.28268e-05
1.30355e-05
1.32429e-05
1.34456e-05
1.36418e-05
1.38306e-05
1.40111e-05
1.4182e-05
1.43413e-05
1.44868e-05
1.46171e-05
1.4731e-05
1.48278e-05
1.4907e-05
1.49665e-05
1.50056e-05
1.50235e-05
1.50222e-05
1.50026e-05
1.4962e-05
1.49013e-05
1.48219e-05
1.47252e-05
1.46125e-05
1.44852e-05
1.43435e-05
1.41869e-05
1.40153e-05
1.38297e-05
1.36324e-05
1.34257e-05
1.32108e-05
1.03513e-05
1.03514e-05
1.03514e-05
1.03515e-05
1.03516e-05
1.03517e-05
1.03518e-05
1.03519e-05
1.03521e-05
1.03523e-05
1.03525e-05
1.03527e-05
1.03529e-05
1.03532e-05
1.03536e-05
1.0354e-05
1.03544e-05
1.03549e-05
1.03555e-05
1.03561e-05
1.03569e-05
1.03577e-05
1.03587e-05
1.03598e-05
1.03611e-05
1.03625e-05
1.03641e-05
1.03659e-05
1.0368e-05
1.03703e-05
1.03729e-05
1.03758e-05
1.03792e-05
1.0383e-05
1.03874e-05
1.03924e-05
1.0398e-05
1.04043e-05
1.04112e-05
1.04188e-05
1.04272e-05
1.04366e-05
1.04471e-05
1.0459e-05
1.04727e-05
1.04883e-05
1.05061e-05
1.05261e-05
1.05485e-05
1.05732e-05
1.06003e-05
1.06297e-05
1.06614e-05
1.06954e-05
1.07323e-05
1.07731e-05
1.08193e-05
1.08724e-05
1.09333e-05
1.10027e-05
1.10809e-05
1.11677e-05
1.12628e-05
1.13656e-05
1.14757e-05
1.15924e-05
1.17155e-05
1.18449e-05
1.19815e-05
1.21282e-05
1.22918e-05
1.24808e-05
1.27002e-05
1.29508e-05
1.32302e-05
1.35341e-05
1.38578e-05
1.41965e-05
1.45457e-05
1.49019e-05
1.52629e-05
1.56276e-05
1.59949e-05
1.63642e-05
1.67372e-05
1.71222e-05
1.75435e-05
1.80244e-05
1.85595e-05
1.91281e-05
1.97082e-05
2.02821e-05
2.08377e-05
2.13668e-05
2.18648e-05
2.23311e-05
2.27674e-05
2.31751e-05
2.35527e-05
2.38968e-05
2.42046e-05
2.44743e-05
2.47054e-05
2.48992e-05
2.50561e-05
2.51718e-05
2.5243e-05
2.52753e-05
2.5271e-05
2.52289e-05
2.51432e-05
2.5017e-05
2.48532e-05
2.46528e-05
2.44169e-05
2.41474e-05
2.38431e-05
2.34997e-05
2.31136e-05
2.26842e-05
2.22144e-05
2.17066e-05
2.11608e-05
1.0353e-05
1.03534e-05
1.03538e-05
1.03543e-05
1.03548e-05
1.03554e-05
1.03561e-05
1.0357e-05
1.03579e-05
1.0359e-05
1.03603e-05
1.03617e-05
1.03634e-05
1.03653e-05
1.03675e-05
1.03699e-05
1.03727e-05
1.03759e-05
1.03795e-05
1.03837e-05
1.03885e-05
1.03939e-05
1.04002e-05
1.04073e-05
1.04154e-05
1.04245e-05
1.04347e-05
1.04461e-05
1.04588e-05
1.04733e-05
1.04897e-05
1.05085e-05
1.053e-05
1.05545e-05
1.05824e-05
1.06138e-05
1.06489e-05
1.06878e-05
1.07305e-05
1.07771e-05
1.08282e-05
1.08848e-05
1.09484e-05
1.10208e-05
1.11032e-05
1.11965e-05
1.13013e-05
1.14176e-05
1.15453e-05
1.16838e-05
1.18323e-05
1.19899e-05
1.21561e-05
1.23312e-05
1.25176e-05
1.27218e-05
1.29514e-05
1.32114e-05
1.35031e-05
1.38252e-05
1.41746e-05
1.45477e-05
1.494e-05
1.5347e-05
1.57649e-05
1.61906e-05
1.66225e-05
1.70604e-05
1.75069e-05
1.79715e-05
1.84786e-05
1.90529e-05
1.96946e-05
2.03894e-05
2.11196e-05
2.18692e-05
2.26241e-05
2.33727e-05
2.41067e-05
2.48216e-05
2.55169e-05
2.61934e-05
2.6851e-05
2.749e-05
2.81137e-05
2.87331e-05
2.9405e-05
3.02014e-05
3.10594e-05
3.19181e-05
3.27402e-05
3.35066e-05
3.42098e-05
3.48481e-05
3.54229e-05
3.59397e-05
3.64067e-05
3.68293e-05
3.72073e-05
3.75369e-05
3.78179e-05
3.80516e-05
3.82385e-05
3.8385e-05
3.84965e-05
3.85678e-05
3.85838e-05
3.85744e-05
3.85429e-05
3.84731e-05
3.83648e-05
3.82157e-05
3.80405e-05
3.78375e-05
3.75991e-05
3.73303e-05
3.70285e-05
3.66851e-05
3.62908e-05
3.58366e-05
3.53233e-05
3.47509e-05
3.41129e-05
3.34003e-05
3.25955e-05
1.03638e-05
1.0366e-05
1.03685e-05
1.03714e-05
1.03748e-05
1.03786e-05
1.03831e-05
1.03882e-05
1.03941e-05
1.04009e-05
1.04087e-05
1.04177e-05
1.0428e-05
1.04398e-05
1.04531e-05
1.04683e-05
1.04854e-05
1.05048e-05
1.05271e-05
1.05525e-05
1.05817e-05
1.06151e-05
1.06531e-05
1.06961e-05
1.07446e-05
1.07987e-05
1.08587e-05
1.09252e-05
1.09992e-05
1.10824e-05
1.11766e-05
1.12835e-05
1.14045e-05
1.15406e-05
1.16922e-05
1.18595e-05
1.20422e-05
1.22395e-05
1.24506e-05
1.26753e-05
1.29153e-05
1.31763e-05
1.34654e-05
1.37874e-05
1.4144e-05
1.45341e-05
1.49551e-05
1.54029e-05
1.58729e-05
1.63598e-05
1.68583e-05
1.73643e-05
1.78751e-05
1.83918e-05
1.8923e-05
1.94916e-05
2.01158e-05
2.07951e-05
2.1519e-05
2.22748e-05
2.305e-05
2.38334e-05
2.46147e-05
2.53853e-05
2.61393e-05
2.68743e-05
2.75909e-05
2.82912e-05
2.89812e-05
2.96741e-05
3.04287e-05
3.13067e-05
3.22576e-05
3.32295e-05
3.4187e-05
3.51086e-05
3.59814e-05
3.67968e-05
3.75517e-05
3.82486e-05
3.88941e-05
3.94933e-05
4.00467e-05
4.05549e-05
4.1017e-05
4.1433e-05
4.17989e-05
4.21073e-05
4.23663e-05
4.25828e-05
4.2761e-05
4.29057e-05
4.30208e-05
4.31114e-05
4.31823e-05
4.32399e-05
4.32912e-05
4.33334e-05
4.33654e-05
4.33805e-05
4.33772e-05
4.33641e-05
4.33367e-05
4.32953e-05
4.32417e-05
4.31775e-05
4.31007e-05
4.30088e-05
4.29055e-05
4.27969e-05
4.26808e-05
4.25647e-05
4.24339e-05
4.22841e-05
4.21275e-05
4.19704e-05
4.17991e-05
4.16179e-05
4.1427e-05
4.12236e-05
4.10123e-05
4.07814e-05
4.05301e-05
4.0261e-05
3.99698e-05
1.04291e-05
1.04423e-05
1.04576e-05
1.04751e-05
1.04952e-05
1.05182e-05
1.05445e-05
1.05749e-05
1.06097e-05
1.06499e-05
1.06959e-05
1.07485e-05
1.08083e-05
1.08759e-05
1.09517e-05
1.10366e-05
1.11317e-05
1.12387e-05
1.13597e-05
1.14967e-05
1.16512e-05
1.18247e-05
1.20179e-05
1.22314e-05
1.2465e-05
1.27184e-05
1.29909e-05
1.32835e-05
1.36005e-05
1.39482e-05
1.43316e-05
1.4753e-05
1.52121e-05
1.57067e-05
1.62333e-05
1.67872e-05
1.73628e-05
1.79541e-05
1.8556e-05
1.91667e-05
1.97921e-05
2.04512e-05
2.11586e-05
2.19136e-05
2.27072e-05
2.35283e-05
2.43659e-05
2.52094e-05
2.60486e-05
2.68742e-05
2.7679e-05
2.84591e-05
2.92143e-05
2.99497e-05
3.06795e-05
3.14684e-05
3.23482e-05
3.32787e-05
3.42215e-05
3.51501e-05
3.6047e-05
3.69009e-05
3.77037e-05
3.84504e-05
3.9141e-05
3.97792e-05
4.03714e-05
4.0923e-05
4.14368e-05
4.19135e-05
4.23484e-05
4.27337e-05
4.30745e-05
4.33755e-05
4.364e-05
4.38708e-05
4.40684e-05
4.4235e-05
4.4375e-05
4.44957e-05
4.46081e-05
4.47159e-05
4.48148e-05
4.49035e-05
4.49812e-05
4.50466e-05
4.50979e-05
4.51368e-05
4.51667e-05
4.51876e-05
4.51901e-05
4.51846e-05
4.51689e-05
4.51418e-05
4.51036e-05
4.50557e-05
4.50056e-05
4.4947e-05
4.48852e-05
4.48246e-05
4.47563e-05
4.46797e-05
4.46016e-05
4.45169e-05
4.44279e-05
4.43402e-05
4.42426e-05
4.41343e-05
4.40264e-05
4.39147e-05
4.37886e-05
4.36672e-05
4.35466e-05
4.34194e-05
4.32961e-05
4.31484e-05
4.29845e-05
4.28306e-05
4.26766e-05
4.25307e-05
4.23675e-05
4.21833e-05
4.20039e-05
4.18242e-05
4.16434e-05
1.07414e-05
1.0806e-05
1.08802e-05
1.09649e-05
1.1061e-05
1.11696e-05
1.12923e-05
1.14309e-05
1.1588e-05
1.17655e-05
1.19654e-05
1.21893e-05
1.2438e-05
1.27122e-05
1.30118e-05
1.33365e-05
1.36869e-05
1.40661e-05
1.44793e-05
1.4931e-05
1.54232e-05
1.59556e-05
1.65262e-05
1.71315e-05
1.77671e-05
1.84273e-05
1.91061e-05
1.97991e-05
2.05079e-05
2.12451e-05
2.20241e-05
2.28456e-05
2.37026e-05
2.45855e-05
2.54845e-05
2.639e-05
2.72927e-05
2.81832e-05
2.90532e-05
2.98974e-05
3.0717e-05
3.15234e-05
3.23754e-05
3.32975e-05
3.42568e-05
3.5221e-05
3.61668e-05
3.70782e-05
3.7944e-05
3.87557e-05
3.95072e-05
4.01968e-05
4.08275e-05
4.1406e-05
4.19383e-05
4.24284e-05
4.28731e-05
4.32708e-05
4.36263e-05
4.39434e-05
4.42247e-05