/*--------------------------------*- C++ -*----------------------------------*\
| =========                 |                                                 |
| \\      /  F ield         | OpenFOAM: The Open Source CFD Toolbox           |
|  \\    /   O peration     | Version:  v1706                                 |
|   \\  /    A nd           | Web:      www.OpenFOAM.com                      |
|    \\/     M anipulation  |                                                 |
\*---------------------------------------------------------------------------*/
FoamFile
{
    version     2.0;
    format      ascii;
    class       volScalarField;
    location    "1.4e-05";
    object      p;
}
// * * * * * * * * * * * * * * * * * * * * * * * * * * * * * * * * * * * * * //

dimensions      [1 -1 -2 0 0 0 0];


internalField   nonuniform List<scalar> 
29871
(
21.9139
21.9139
21.9139
21.9139
21.9139
21.9139
21.9139
21.9139
21.9139
21.9139
21.9139
21.9139
21.9139
21.9139
21.9139
21.9139
21.9139
21.9139
21.9139
21.9139
21.9139
21.9139
21.9139
21.9139
21.9139
21.9139
21.9139
21.9139
21.9139
21.9139
21.9139
21.9139
21.9139
21.9139
21.9139
21.9139
21.9139
21.9139
21.9139
21.9139
21.9139
21.9139
21.9139
21.9139
21.9139
21.9139
21.9139
21.9139
21.9139
21.9139
21.9139
21.9139
21.9139
21.9139
21.9139
21.9139
21.9139
21.9139
21.9139
21.9139
21.9139
21.9139
21.9139
21.9139
21.9139
21.9139
21.9139
21.9139
21.9139
21.9139
21.9139
21.9139
21.9139
21.9139
21.9139
21.9139
21.9139
21.9139
21.9139
21.9139
21.9139
21.9139
21.9139
21.9139
21.9139
21.9139
21.9139
21.9139
21.9139
21.9139
21.9139
21.9139
21.9139
21.9139
21.9139
21.9139
21.9139
21.9139
21.9139
21.9139
21.9139
21.9139
21.9139
21.9139
21.9139
21.9139
21.9139
21.9139
21.9139
21.9139
21.9139
21.9139
21.9139
21.9139
21.9139
21.9139
21.9139
21.9139
21.9139
21.9139
21.9139
21.9139
21.9139
21.9139
21.9139
21.9139
21.9139
21.9139
21.9139
21.9139
21.9139
21.9139
21.9139
21.9139
21.9139
21.9139
21.9139
21.9139
21.9139
21.9139
21.9139
21.9139
21.9139
21.9139
21.9139
21.9139
21.9139
21.9139
21.9139
21.9139
21.9139
21.9139
21.9139
21.9139
21.9139
21.9139
21.9139
21.9139
21.9139
21.9139
21.9139
21.9139
21.9139
21.9139
21.9139
21.9139
21.9139
21.9139
21.9139
21.9139
21.9139
21.9139
21.9139
21.9139
21.9139
21.9139
21.9139
21.9139
21.9139
21.9139
21.9139
21.9139
21.9139
21.9139
21.9139
21.9139
21.9139
21.9139
21.9139
21.9139
21.9139
21.9139
21.9139
21.9139
21.9139
21.9139
21.9139
21.9139
21.9139
21.9139
21.9139
21.9139
21.9139
21.9139
21.9139
21.9139
21.9139
21.9139
21.9139
21.9139
21.9139
21.9139
21.9139
21.9139
21.9139
21.9139
21.9139
21.9139
21.9139
21.9139
21.9139
21.9139
21.9139
21.9139
21.9139
21.9139
21.9139
21.9139
21.9139
21.9139
21.9139
21.9139
21.9139
21.9139
21.9139
21.9139
21.9139
21.9139
21.9139
21.9139
21.9139
21.9139
21.9139
21.9139
21.9139
21.9139
21.9139
21.9139
21.9139
21.9139
21.9139
21.9139
21.9139
21.9139
21.9139
21.9139
21.9139
21.9139
21.9139
21.9139
21.9139
21.9139
21.9139
21.9139
21.9139
21.9139
21.9139
21.9139
21.9139
21.9139
21.9139
21.9139
21.9139
21.9139
21.9139
21.9139
21.9139
21.9139
21.9139
21.9139
21.9139
21.9139
21.9139
21.9139
21.9139
21.9139
21.9139
21.9139
21.9139
21.9139
21.9139
21.9139
21.9139
21.9139
21.9139
21.9139
21.9139
21.9139
21.9139
21.9139
21.9139
21.9139
21.9139
21.9139
21.9139
21.9139
21.9139
21.9139
21.9139
21.9139
21.9139
21.9139
21.9139
21.9139
21.9139
21.9139
21.9139
21.9139
21.9139
21.9139
21.9139
21.9139
21.9139
21.9139
21.9139
21.9139
21.9139
21.9139
21.9139
21.9139
21.9139
21.9139
21.9139
21.9139
21.9139
21.9139
21.9139
21.9139
21.9139
21.9139
21.9139
21.9139
21.9139
21.9139
21.9139
21.9139
21.9139
21.9139
21.9139
21.9139
21.9139
21.9139
21.9139
21.9139
21.9139
21.9139
21.9139
21.9139
21.9139
21.9139
21.9139
21.9139
21.9139
21.9139
21.9139
21.9139
21.9139
21.9139
21.9139
21.9139
21.9139
21.9139
21.9139
21.9139
21.9139
21.9139
21.9139
21.9139
21.9139
21.9139
21.9139
21.9139
21.9139
21.9139
21.9139
21.9139
21.9139
21.9139
21.9139
21.9139
21.9139
21.9139
21.9139
21.9139
21.9139
21.9139
21.9139
21.9139
21.9139
21.9139
21.9139
21.9139
21.9139
21.9139
21.9139
21.9139
21.9139
21.9139
21.9139
21.9139
21.9139
21.9139
21.9139
21.9139
21.9139
21.9139
21.9139
21.9139
21.9139
21.9139
21.9139
21.9139
21.9139
21.9139
21.9139
21.9139
21.9139
21.9139
21.9139
21.9139
21.9139
21.9139
21.9139
21.9139
21.9139
21.9139
21.9139
21.9139
21.9139
21.9139
21.9139
21.9139
21.9139
21.9139
21.9139
21.9139
21.9139
21.9139
21.9139
21.9139
21.9139
21.9139
21.9139
21.9139
21.9139
21.9139
21.9139
21.9139
21.9139
21.9139
21.9139
21.9139
21.9139
21.9139
21.9139
21.9139
21.9139
21.9139
21.9139
21.9139
21.9139
21.9139
21.9139
21.9139
21.9139
21.9139
21.9139
21.9139
21.9139
21.9139
21.9139
21.9139
21.9139
21.9139
21.9139
21.9139
21.9139
21.9139
21.9139
21.9139
21.9139
21.9139
21.9139
21.9139
21.9139
21.9139
21.9139
21.9139
21.9139
21.9139
21.9139
21.9139
21.9139
21.9139
21.9139
21.9139
21.9139
21.9139
21.9139
21.9139
21.9139
21.9139
21.9139
21.9139
21.9139
21.9139
21.9139
21.9139
21.9139
21.9139
21.9139
21.9139
21.9139
21.9139
21.9139
21.9139
21.9139
21.9139
21.9139
21.9139
21.9139
21.9139
21.9139
21.9139
21.9139
21.9139
21.9139
21.9139
21.9139
21.9139
21.9139
21.9139
21.9139
21.9139
21.9139
21.9139
21.9139
21.9139
21.9139
21.9139
21.9139
21.9139
21.9139
21.9139
21.9139
21.9139
21.9139
21.9139
21.9139
21.9139
21.9139
21.9139
21.9139
21.9139
21.9139
21.9139
21.9139
21.9139
21.9139
21.9139
21.9139
21.9139
21.9139
21.9139
21.9139
21.9139
21.9139
21.9139
21.9139
21.9139
21.9139
21.9139
21.9139
21.9139
21.9139
21.9139
21.9139
21.9139
21.9139
21.9139
21.9139
21.9139
21.9139
21.9139
21.9139
21.9139
21.9139
21.9139
21.9139
21.9139
21.9139
21.9139
21.9139
21.9139
21.9139
21.9139
21.9139
21.9139
21.9139
21.9139
21.9139
21.9139
21.9139
21.9139
21.9139
21.9139
21.9139
21.9139
21.9139
21.9139
21.9139
21.9139
21.9139
21.9139
21.9139
21.9139
21.9139
21.9139
21.9139
21.9139
21.9139
21.9139
21.9139
21.9139
21.9139
21.9139
21.9139
21.9139
21.9139
21.9139
21.9139
21.9139
21.9139
21.9139
21.9139
21.9139
21.9139
21.9139
21.9139
21.9139
21.9139
21.9139
21.9139
21.9139
21.9139
21.9139
21.9139
21.9139
21.9139
21.9139
21.9139
21.9139
21.9139
21.9139
21.9139
21.9139
21.9139
21.9139
21.9139
21.9139
21.9139
21.9139
21.9139
21.9139
21.9139
21.9139
21.9139
21.9139
21.9139
21.9139
21.9139
21.9139
21.9139
21.9139
21.9139
21.9139
21.9139
21.9139
21.9139
21.9139
21.9139
21.9139
21.9139
21.9139
21.9139
21.9139
21.9139
21.9139
21.9139
21.9139
21.9139
21.9139
21.9139
21.9139
21.9139
21.9139
21.9139
21.9139
21.9139
21.9139
21.9139
21.9139
21.9139
21.9139
21.9139
21.9139
21.9139
21.9139
21.9139
21.9139
21.9139
21.9139
21.9139
21.9139
21.9139
21.9139
21.9139
21.9139
21.9139
21.9139
21.9139
21.9139
21.9139
21.9139
21.9139
21.9139
21.9139
21.9139
21.9139
21.9139
21.9139
21.9139
21.9139
21.9139
21.9139
21.9139
21.9139
21.9139
21.9139
21.9139
21.9139
21.9139
21.9139
21.9139
21.9139
21.9139
21.9139
21.9139
21.9139
21.9139
21.9139
21.9139
21.9139
21.9139
21.9139
21.9139
21.9139
21.9139
21.9139
21.9139
21.9139
21.9139
21.9139
21.9139
21.9139
21.9139
21.9139
21.9139
21.9139
21.9139
21.9139
21.9139
21.9139
21.9139
21.9139
21.9139
21.9139
21.9139
21.9139
21.9139
21.9139
21.9139
21.9139
21.9139
21.9139
21.9139
21.9139
21.9139
21.9139
21.9139
21.9139
21.9139
21.9139
21.9139
21.9139
21.9139
21.9139
21.9139
21.9139
21.9139
21.9139
21.9139
21.9139
21.9139
21.9139
21.9139
21.9139
21.9139
21.9139
21.9139
21.9139
21.9139
21.9139
21.9139
21.9139
21.9139
21.9139
21.9139
21.9139
21.9139
21.9139
21.9139
21.9139
21.9139
21.9139
21.9139
21.9139
21.9139
21.9139
21.9139
21.9139
21.9139
21.9139
21.9139
21.9139
21.9139
21.9139
21.9139
21.9139
21.9139
21.9139
21.9139
21.9139
21.9139
21.9139
21.9139
21.9139
21.9139
21.9139
21.9139
21.9139
21.9139
21.9139
21.9139
21.9139
21.9139
21.9139
21.9139
21.9139
21.9139
21.9139
21.9139
21.9139
21.9139
21.9139
21.9139
21.9139
21.9139
21.9139
21.9139
21.9139
21.9139
21.9139
21.9139
21.9139
21.9139
21.9139
21.9139
21.9139
21.9139
21.9139
21.9139
21.9139
21.9139
21.9139
21.9139
21.9139
21.9139
21.9139
21.9139
21.9139
21.9139
21.9139
21.9139
21.9139
21.9139
21.9139
21.9139
21.9139
21.9139
21.9139
21.9139
21.9139
21.9139
21.9139
21.9139
21.9139
21.9139
21.9139
21.9139
21.9139
21.9139
21.9139
21.9139
21.9139
21.9139
21.9139
21.9139
21.9139
21.9139
21.9139
21.9139
21.9139
21.9139
21.9139
21.9139
21.9139
21.9139
21.9139
21.9139
21.9139
21.9139
21.9139
21.9139
21.9139
21.9139
21.9139
21.9139
21.9139
21.9139
21.9139
21.9139
21.9139
21.9139
21.9139
21.9139
21.9139
21.9139
21.9139
21.9139
21.9139
21.9139
21.9139
21.9139
21.9139
21.9139
21.9139
21.9139
21.9139
21.9139
21.9139
21.9139
21.9139
21.9139
21.9139
21.9139
21.9139
21.9139
21.9139
21.9139
21.9139
21.9139
21.9139
21.9139
21.9139
21.9139
21.9139
21.9139
21.9139
21.9139
21.9139
21.9139
21.9139
21.9139
21.9139
21.9139
21.9139
21.9139
21.9139
21.9139
21.9139
21.9139
21.9139
21.9139
21.9139
21.9139
21.9139
21.9139
21.9139
21.9139
21.9139
21.9139
21.9139
21.9139
21.9139
21.9139
21.9139
21.9139
21.9139
21.9139
21.9139
21.9139
21.9139
21.9139
21.9139
21.9139
21.9139
21.9139
21.9139
21.9139
21.9139
21.9139
21.9139
21.9139
21.9139
21.9139
21.9139
21.9139
21.9139
21.9139
21.9139
21.9139
21.9139
21.9139
21.9139
21.9139
21.9139
21.9139
21.9139
21.9139
21.9139
21.9139
21.9139
21.9139
21.9139
21.9139
21.9139
21.9139
21.9139
21.9139
21.9139
21.9139
21.9139
21.9139
21.9139
21.9139
21.9139
21.9139
21.9139
21.9139
21.9139
21.9139
21.9139
21.9139
21.9139
21.9139
21.9139
21.9139
21.9139
21.9139
21.9139
21.9139
21.9139
21.9139
21.9139
21.9139
21.9139
21.9139
21.9139
21.9139
21.9139
21.9139
21.9139
21.9139
21.9139
21.9139
21.9139
21.9139
21.9139
21.9139
21.9139
21.9139
21.9139
21.9139
21.9139
21.9139
21.9139
21.9139
21.9139
21.9139
21.9139
21.9139
21.9139
21.9139
21.9139
21.9139
21.9139
21.9139
21.9139
21.9139
21.9139
21.9139
21.9139
21.9139
21.9139
21.9139
21.9139
21.9139
21.9139
21.9139
21.9139
21.9139
21.9139
21.9139
21.9139
21.9139
21.9139
21.9139
21.9139
21.9139
21.9139
21.9139
21.9139
21.9139
21.9139
21.9139
21.9139
21.9139
21.9139
21.9139
21.9139
21.9139
21.9139
21.9139
21.9139
21.9139
21.9139
21.9139
21.9139
21.9139
21.9139
21.9139
21.9139
21.9139
21.9139
21.9139
21.9139
21.9139
21.9139
21.9139
21.9139
21.9139
21.9139
21.9139
21.9139
21.9139
21.9139
21.9139
21.9139
21.9139
21.9139
21.9139
21.9139
21.9139
21.9139
21.9139
21.9139
21.9139
21.9139
21.9139
21.9139
21.9139
21.9139
21.9139
21.9139
21.9139
21.9139
21.9139
21.9139
21.9139
21.9139
21.9139
21.9139
21.9139
21.9139
21.9139
21.9139
21.9139
21.9139
21.9139
21.9139
21.9139
21.9139
21.9139
21.9139
21.9139
21.9139
21.9139
21.9139
21.9139
21.9139
21.9139
21.9139
21.9139
21.9139
21.9139
21.9139
21.9139
21.9139
21.9139
21.9139
21.9139
21.9139
21.9139
21.9139
21.9139
21.9139
21.9139
21.9139
21.9139
21.9139
21.9139
21.9139
21.9139
21.9139
21.9139
21.9139
21.9139
21.9139
21.9139
21.9139
21.9139
21.9139
21.9139
21.9139
21.9139
21.9139
21.9139
21.9139
21.9139
21.9139
21.9139
21.9139
21.9139
21.9139
21.9139
21.9139
21.914
21.914
21.914
21.914
21.914
21.914
21.914
21.914
21.914
21.914
21.914
21.914
21.914
21.914
21.914
21.914
21.914
21.914
21.914
21.914
21.914
21.914
21.914
21.914
21.914
21.914
21.914
21.914
21.914
21.914
21.9139
21.9139
21.9139
21.9139
21.9139
21.9139
21.9139
21.9139
21.9139
21.9139
21.9139
21.9139
21.9139
21.9139
21.9139
21.9139
21.9139
21.9139
21.9139
21.9139
21.9139
21.9139
21.9139
21.9139
21.9139
21.9139
21.9139
21.9139
21.9139
21.9139
21.9139
21.9139
21.9139
21.9139
21.9139
21.9139
21.9139
21.9139
21.9139
21.9139
21.9139
21.9139
21.9139
21.9139
21.9139
21.9139
21.9139
21.9139
21.9139
21.9139
21.9139
21.9139
21.9139
21.9139
21.9139
21.9139
21.9139
21.9139
21.9139
21.9139
21.914
21.914
21.914
21.914
21.914
21.914
21.914
21.914
21.914
21.914
21.914
21.9141
21.9141
21.9141
21.9141
21.9141
21.9142
21.9142
21.9142
21.9142
21.9143
21.9143
21.9143
21.9144
21.9144
21.9145
21.9145
21.9146
21.9146
21.9146
21.9147
21.9147
21.9148
21.9148
21.9148
21.9148
21.9149
21.9149
21.9149
21.9149
21.9149
21.9149
21.9149
21.9148
21.9148
21.9148
21.9147
21.9147
21.9147
21.9146
21.9146
21.9145
21.9145
21.9139
21.9139
21.9139
21.9139
21.9139
21.9139
21.9139
21.9139
21.9139
21.9139
21.9139
21.9139
21.9139
21.9139
21.9139
21.9139
21.9139
21.9139
21.9139
21.9139
21.9139
21.9139
21.9139
21.9139
21.9139
21.9139
21.9139
21.9139
21.9139
21.9139
21.9139
21.9139
21.9139
21.9139
21.9139
21.9139
21.9139
21.9139
21.9139
21.9139
21.9139
21.9139
21.914
21.914
21.914
21.914
21.914
21.914
21.914
21.914
21.914
21.914
21.9141
21.9141
21.9141
21.9141
21.9141
21.9142
21.9142
21.9142
21.9143
21.9143
21.9144
21.9144
21.9145
21.9145
21.9146
21.9147
21.9148
21.9149
21.915
21.9151
21.9152
21.9154
21.9155
21.9156
21.9158
21.916
21.9162
21.9164
21.9166
21.9169
21.9172
21.9176
21.9179
21.9183
21.9186
21.919
21.9193
21.9196
21.92
21.9202
21.9205
21.9208
21.921
21.9211
21.9213
21.9214
21.9214
21.9214
21.9214
21.9213
21.9212
21.921
21.9208
21.9206
21.9203
21.9201
21.9198
21.9194
21.9191
21.9188
21.9184
21.9139
21.9139
21.9139
21.9139
21.9139
21.9139
21.9139
21.9139
21.9139
21.9139
21.9139
21.9139
21.9139
21.9139
21.9139
21.9139
21.9139
21.9139
21.9139
21.9139
21.9139
21.9139
21.9139
21.9139
21.9139
21.9139
21.9139
21.914
21.914
21.914
21.914
21.914
21.914
21.914
21.914
21.914
21.9141
21.9141
21.9141
21.9141
21.9142
21.9142
21.9142
21.9143
21.9143
21.9143
21.9144
21.9145
21.9145
21.9146
21.9147
21.9147
21.9148
21.915
21.9151
21.9152
21.9154
21.9155
21.9157
21.9159
21.9161
21.9164
21.9166
21.9169
21.9172
21.9176
21.918
21.9185
21.919
21.9197
21.9204
21.9211
21.922
21.9228
21.9238
21.9248
21.9258
21.9269
21.9281
21.9294
21.9309
21.9325
21.9344
21.9365
21.9388
21.9413
21.9438
21.9464
21.949
21.9516
21.9541
21.9566
21.9589
21.9611
21.9631
21.9648
21.9664
21.9677
21.9687
21.9694
21.9697
21.9698
21.9695
21.9689
21.968
21.9668
21.9654
21.9637
21.9618
21.9597
21.9575
21.9551
21.9525
21.9499
21.9473
21.9139
21.9139
21.9139
21.9139
21.9139
21.9139
21.9139
21.9139
21.9139
21.9139
21.9139
21.9139
21.914
21.914
21.914
21.914
21.914
21.914
21.914
21.914
21.9141
21.9141
21.9141
21.9141
21.9142
21.9142
21.9142
21.9143
21.9143
21.9144
21.9145
21.9145
21.9146
21.9147
21.9148
21.9149
21.915
21.9152
21.9153
21.9155
21.9157
21.9159
21.9162
21.9164
21.9167
21.9171
21.9174
21.9178
21.9183
21.9187
21.9193
21.9199
21.9206
21.9214
21.9223
21.9233
21.9244
21.9257
21.927
21.9285
21.93
21.9317
21.9335
21.9356
21.9378
21.9405
21.9435
21.947
21.9511
21.9556
21.9606
21.9661
21.9721
21.9784
21.9852
21.9923
21.9998
22.0077
22.0162
22.0257
22.0364
22.0489
22.0632
22.0791
22.0964
22.1147
22.1336
22.1528
22.1719
22.1907
22.2092
22.227
22.2439
22.2597
22.2742
22.2871
22.2983
22.3075
22.3147
22.3196
22.3221
22.3223
22.3203
22.3159
22.3094
22.3007
22.2901
22.2778
22.2641
22.2489
22.2325
22.215
22.1965
22.1774
22.1579
22.1381
21.9139
21.9139
21.9139
21.9139
21.9139
21.9139
21.914
21.914
21.914
21.914
21.914
21.914
21.914
21.9141
21.9141
21.9141
21.9141
21.9142
21.9142
21.9143
21.9143
21.9144
21.9145
21.9145
21.9146
21.9147
21.9148
21.915
21.9151
21.9153
21.9155
21.9157
21.9159
21.9162
21.9165
21.9168
21.9172
21.9177
21.9182
21.9187
21.9193
21.92
21.9207
21.9216
21.9225
21.9236
21.9248
21.9262
21.9278
21.9295
21.9315
21.9336
21.9359
21.9384
21.9411
21.9441
21.9475
21.9512
21.9555
21.9605
21.966
21.9724
21.9794
21.9873
21.9959
22.0052
22.0153
22.0261
22.0377
22.0504
22.0645
22.0807
22.0996
22.1217
22.1474
22.1766
22.2094
22.2456
22.285
22.3272
22.3721
22.4196
22.4695
22.5219
22.5772
22.6366
22.7029
22.7792
22.8676
22.9683
23.0797
23.1997
23.3255
23.4547
23.5849
23.7144
23.842
23.9666
24.0868
24.2012
24.3079
24.4053
24.4922
24.5674
24.6299
24.6781
24.7111
24.7281
24.7299
24.7167
24.6879
24.6439
24.5857
24.5146
24.432
24.3393
24.237
24.1255
24.0058
23.8791
23.7473
23.6122
23.4749
21.9141
21.9141
21.9141
21.9141
21.9142
21.9142
21.9143
21.9143
21.9144
21.9145
21.9146
21.9147
21.9148
21.915
21.9151
21.9153
21.9155
21.9158
21.9161
21.9164
21.9167
21.9171
21.9176
21.9181
21.9187
21.9194
21.9202
21.921
21.922
21.9231
21.9243
21.9257
21.9273
21.9292
21.9313
21.9336
21.9363
21.9393
21.9426
21.9463
21.9503
21.9548
21.9598
21.9655
21.9719
21.9793
21.9876
21.997
22.0076
22.0193
22.0323
22.0465
22.062
22.0787
22.0969
22.117
22.1396
22.1655
22.1953
22.2296
22.2687
22.3128
22.3618
22.4158
22.4746
22.5381
22.6062
22.679
22.7571
22.8421
22.9373
23.0472
23.1759
23.3262
23.4992
23.6947
23.9121
24.1497
24.4057
24.6784
24.9664
25.269
25.5855
25.9161
26.2627
26.6334
27.0497
27.5366
28.1047
28.7476
29.4484
30.1879
30.9478
31.7128
32.4704
33.2127
33.9352
34.6341
35.303
35.9332
36.5155
37.0423
37.5077
37.9082
38.2398
38.4935
38.6651
38.7526
38.7608
38.693
38.5408
38.3072
37.9982
37.6198
37.1789
36.6815
36.1297
35.5229
34.8621
34.1528
33.4048
32.6274
31.8271
21.9149
21.9151
21.9153
21.9155
21.9158
21.9161
21.9164
21.9168
21.9173
21.9178
21.9184
21.9191
21.92
21.9209
21.9219
21.9231
21.9245
21.9261
21.9278
21.9299
21.9322
21.9349
21.9379
21.9414
21.9454
21.9498
21.9549
21.9605
21.9669
21.974
21.9821
21.9913
22.0018
22.0138
22.0274
22.0429
22.0602
22.0796
22.1011
22.1248
22.151
22.1801
22.2128
22.2501
22.2928
22.3417
22.3974
22.4603
22.5307
22.6086
22.6941
22.7869
22.887
22.9949
23.112
23.2415
23.3882
23.5564
23.7498
23.9706
24.2198
24.4979
24.8045
25.1385
25.4985
25.8832
26.292
26.7253
27.1863
27.6846
28.2448
28.899
29.6695
30.5631
31.5751
32.6949
33.9091
35.2032
36.5633
37.9783
39.4413
40.9481
42.4956
44.0825
45.7156
47.4328
49.3362
51.5259
53.994
56.6795
59.5118
62.4251
65.3609
68.2693
71.1132
73.8747
76.5509
79.1366
81.6132
83.9487
86.1125
88.0801
89.8333
91.3632
92.6593
93.6812
94.3966
94.8417
95.0134
94.8635
94.3994
93.6458
92.6078
91.2964
89.7325
87.9382
85.9138
83.6477
81.1385
78.4084
75.4954
72.4293
69.225
21.9202
21.9213
21.9226
21.924
21.9257
21.9276
21.9299
21.9324
21.9353
21.9387
21.9426
21.9471
21.9523
21.9582
21.965
21.9727
21.9814
21.9913
22.0026
22.0155
22.0303
22.0473
22.0667
22.0887
22.1137
22.1419
22.1734
22.2088
22.2485
22.2933
22.3444
22.4029
22.4701
22.5469
22.6343
22.7331
22.8436
22.9663
23.1013
23.2492
23.4115
23.5916
23.7945
24.0255
24.2888
24.588
24.9252
25.3018
25.718
26.1732
26.6656
27.1936
27.7558
28.354
28.9968
29.7081
30.5183
31.4502
32.514
33.7102
35.0331
36.4738
38.0208
39.6615
41.384
43.1793
45.0432
46.977
48.9932
51.1387
53.5206
56.2504
59.3519
62.8016
66.5647
70.603
74.8735
79.3291
83.9277
88.6432
93.4705
98.4148
103.476
108.661
113.995
119.531
126.007
134.647
145.173
157.004
169.654
182.789
196.197
209.706
223.156
236.449
249.575
262.506
275.099
287.109
298.362
308.704
317.956
326.171
333.376
339.199
343.391
346.681
348.911
349.427
348.014
345.281
341.494
336.588
330.351
323.076
314.819
305.343
294.458
282.083
268.54
254.148
238.996
223.116
206.428
21.9534
21.9602
21.968
21.977
21.9874
21.9994
22.0132
22.029
22.0473
22.0683
22.0926
22.1204
22.1523
22.1887
22.23
22.2767
22.3298
22.3901
22.459
22.5382
22.6291
22.7335
22.8527
22.9882
23.141
23.3121
23.5026
23.7143
23.9507
24.2171
24.5196
24.864
25.2554
25.6976
26.1938
26.746
27.3549
28.0199
28.7399
29.5157
30.3546
31.279
32.319
33.4991
34.8328
36.3242
37.9706
39.7642
41.6934
43.7437
45.8994
48.1471
50.4786
52.9006
55.4584
58.251
61.3638
64.8157
68.5963
72.6904
77.08
81.7407
86.6398
91.7415
97.0161
102.451
108.054
113.841
119.869
126.199
133.63
143.362
155.328
169.169
184.557
201.268
219.149
238.047
257.816
278.369
299.692
321.778
344.518
367.77
391.313
414.997
437.894
458.56
477.279
494.471
510.3
524.786
537.946
549.917
560.84
571.018
580.95
590.464
599.319
607.436
614.561
620.609
625.595
629.628
632.758
635.129
636.793
637.392
637.132
636.151
634.221
632.389
629.296
624.715
619.4
614.258
608.174
601.045
592.79
583.52
574.007
563.449
551.533
538.355
523.674
22.155
22.1958
22.2428
22.2969
22.3589
22.43
22.5116
22.6056
22.7139
22.8389
22.9828
23.1479
23.3363
23.55
23.791
24.0618
24.3665
24.7111
25.1024
25.5475
26.0526
26.6234
27.2647
27.9801
28.7723
29.6424
30.592
31.627
32.7656
34.0373
35.4693
37.0806
38.8811
40.8734
43.054
45.4146
47.9419
50.6198
53.433
56.3783
59.4938
62.8645
66.5603
70.5971
74.9691
79.6696
84.6915
90.02
95.6297
101.485
107.551
113.807
120.249
126.917
133.868
142.031
152.268
164.522
178.536
194.082
210.999
229.168
248.474
268.792
290.018
312.092
335.011
358.799
383.417
408.87
434.335
458.457
481.275
503
523.725
543.44
561.955
579.13
595.039
609.893
624.401
638.9
653.035
666.645
679.727
692.172
703.522
713.468
722.11
729.601
735.774
740.72
744.381
746.984
748.437
748.707
748.208
746.61
744.704
743.148
741.288
738.756
736.093
732.946
729.732
727.138
724.013
720.159
717.005
713.929
709.653
705.715
702.401
699.468
697.201
693.217
687.521
682.81
679.057
676.342
672.451
666.766
661.538
656.959
653.082
23.121
23.3233
23.5566
23.8243
24.1298
24.4772
24.8718
25.3209
25.8329
26.4159
27.0778
27.8256
28.6655
29.6026
30.6411
31.7847
33.0399
34.4232
35.962
37.684
39.6109
41.7565
44.1276
46.7249
49.5434
52.5729
55.7995
59.2121
62.8347
66.7306
70.9644
75.5538
80.4958
85.79
91.4405
97.4484
103.805
110.487
117.466
124.717
132.256
140.116
149.191
160.273
173.365
188.286
204.85
222.911
242.351
263.046
284.845
307.596
331.18
355.554
380.689
406.619
432.441
457.242
481.046
503.977
526.015
547.079
567.101
585.854
603.159
619.093
634.137
648.931
663.562
678.008
692.28
705.982
718.683
730.327
740.984
750.649
759.263
766.877
773.354
778.102
781.161
783.465
784.5
784.439
784.07
783.616
783.081
782.37
781.466
780.438
779.287
778.122
777.143
775.969
774.579
773.192
771.828
769.937
767.189
764.594
762.649
760.252
757.305
754.457
751.222
747.763
744.99
741.763
737.824
734.669
731.595
727.242
723.241
720.14
717.482
715.588
711.683
705.973
701.603
698.196
695.891
692.248
686.782
682.074
678.034
674.645
28.415
29.4109
30.5301
31.779
33.1642
34.6943
36.3871
38.2694
40.3689
42.7079
45.3021
48.1607
51.2863
54.6759
58.3216
62.2119
66.363
70.8229
75.6428
80.8328
86.3852
92.2985
98.5817
105.248
112.306
119.751
127.567
135.758
144.32
153.856
165.282
178.74
194.145
211.361
230.264
250.755
272.729
296.048
320.534
346.042
372.462
399.794
427.17
453.764
479.554
504.596
528.827
552.1
574.268
595.169
614.405
631.854
648.02
663.434
678.441
693.185
707.4
720.868
733.393
744.994
755.756
765.567
774.535
782.585
789.253
794.178
797.507
799.661
800.925
801.823
802.274
802.462
802.413
802.348
802.327
802.349
802.413
802.663
803.25
803.816
804.335
804.838
804.545
803.723
802.628
801.431
800.145
798.735
797.191
795.5
793.608
791.748
790.118
788.344
786.239
784.177
782.03
779.096
775.346
771.916
768.837
765.071
761.361
758.302
754.597
750.356
747.345
744.022
739.696
736.344
733.015
728.446
724.504
721.503
719.04
717.312
713.184
707.955
704.026
700.91
699.138
695.993
691.38
687.266
683.629
680.959
680.113
676.745
49.706
53.2044
57.0223
61.158
65.6052
70.381
75.5273
81.0794
87.0339
93.3722
100.085
107.178
114.67
122.582
130.924
139.712
148.94
159.042
170.913
184.775
200.628
218.391
237.967
259.266
282.201
306.654
332.458
359.452
387.549
416.129
444.265
471.797
498.733
525.03
550.517
575.007
598.35
620.155
640.017
658.181
675.154
691.513
707.203
721.992
735.906
748.907
760.978
772.16
782.444
791.802
799.817
805.967
810.151
812.859
814.706
815.822
816.48
816.862
816.949
816.875
816.866
816.89
817.051
817.556
818.596
820.089
821.531
822.464
822.795
822.887
822.479
821.826
821.024
820.142
819.222
818.279
817.325
816.546
816.122
815.676
815.124
814.273
812.773
810.703
808.236
805.6
802.938
800.303
797.699
795.068
792.397
789.865
787.407
784.757
782.097
779.828
777.349
774.074
770.464
767.409
764.142
760.012
756.748
753.894
749.968
745.715
742.904
739.704
735.424
732.069
728.586
723.997
720.317
717.511
715.409
713.206
708.568
703.989
700.465
697.473
695.808
693.034
688.795
684.874
681.267
678.376
676.966
674.857
109.389
117.539
126.115
135.144
144.668
154.695
165.656
178.345
193.021
209.745
228.481
249.153
271.674
295.953
321.872
349.261
377.975
407.501
436.856
465.783
494.211
522.078
549.234
575.471
600.63
624.432
646.318
666.289
684.799
702.224
718.722
734.107
748.56
762.058
774.604
786.284
797.043
806.712
814.482
819.946
823.726
826.421
828.152
829.381
830.198
830.684
830.967
831.116
831.304
831.733
832.726
834.561
836.691
838.341
839.327
839.607
839.491
839.009
838.249
837.32
836.281
835.197
834.129
833.255
832.973
832.998
833.072
832.728
831.909
830.522
828.672
826.591
824.409
822.211
820.066
818.025
816.077
814.283
812.717
811.297
810.052
808.796
807.259
805.323
803.024
800.491
797.851
795.185
792.512
789.806
787.118
784.509
781.83
779.018
776.495
774.227
771.568
768.292
765.177
762.282
758.736
754.735
751.856
748.951
744.742
740.714
738.054
734.853
730.628
727.32
723.851
719.398
715.875
713.311
711.411
708.066
703.358
699.588
696.429
693.591
691.967
689.242
685.222
681.494
678.035
674.895
672.703
670.966
241.914
264.282
288.676
314.984
343.069
372.763
403.494
434.342
464.934
495.09
524.681
553.537
581.448
608.223
633.637
657.183
678.632
698.284
716.459
733.299
748.936
763.527
777.036
789.607
801.254
811.871
820.888
827.381
831.792
835.116
837.477
839.237
840.558
841.355
842.101
842.663
843.255
844.228
846.186
848.948
851.667
853.526
854.482
854.984
854.918
854.435
853.772
852.795
851.726
850.573
849.866
849.921
850.281
850.46
850.101
849.177
847.675
845.709
843.543
841.272
838.96
836.709
834.527
832.524
830.816
829.478
828.398
827.473
826.547
825.287
823.649
821.731
819.639
817.456
815.26
813.1
811.002
809.016
807.149
805.433
803.935
802.552
801.084
799.358
797.31
794.98
792.46
789.834
787.15
784.442
781.761
779.08
776.298
773.554
771.133
768.758
765.963
762.962
760.283
757.431
753.796
750.244
747.5
744.428
740.026
736.392
733.814
730.552
726.321
723.103
719.828
715.66
712.211
709.803
707.264
703.067
699.141
695.967
693.066
690.513
688.899
685.702
681.869
678.438
675.211
672.045
669.386
667.455
665.494
564.43
594.273
622.822
649.878
674.988
697.712
718.24
736.881
753.892
769.551
783.901
797.125
809.292
820.335
829.951
836.922
841.524
844.857
847.343
849.267
850.575
851.585
852.37
852.971
853.818
855.498
858.346
861.582
864.202
865.806
866.836
867.311
867.094
866.748
866.107
865.228
864.228
864.173
864.636
865.447
865.671
865.242
864.393
863.015
861.175
859.108
856.919
854.693
852.484
850.525
848.821
847.556
846.535
845.668
844.738
843.44
841.717
839.695
837.483
835.168
832.833
830.511
828.256
826.149
824.319
822.748
821.438
820.345
819.185
817.792
816.135
814.254
812.213
810.087
807.925
805.782
803.71
801.712
799.835
798.154
796.651
795.198
793.624
791.812
789.731
787.408
784.906
782.29
779.627
776.95
774.223
771.441
768.787
766.338
763.804
760.989
758.34
755.891
753.033
749.539
746.404
743.661
740.388
736.001
732.806
730.241
726.883
722.603
719.538
716.508
712.596
709.168
706.639
703.332
699.122
695.827
693.044
690.417
688.425
686.118
682.454
678.95
675.87
672.888
669.848
667.017
664.809
662.871
796.383
810.294
822.899
834.214
844.041
851.141
855.546
858.597
860.94
862.547
863.675
864.45
864.858
865.389
866.613
869.14
872.385
875.048
876.874
878.037
878.424
878.426
877.992
877.229
876.181
875.469
875.708
876.414
877.067
876.93
876.496
875.562
874.094
872.319
870.47
868.553
866.718
865.057
863.638
862.85
862.16
861.451
860.736
859.672
858.151
856.265
854.175
851.968
849.716
847.49
845.35
843.471
841.867
840.499
839.339
838.12
836.645
834.884
832.875
830.693
828.409
826.077
823.736
821.472
819.379
817.49
815.862
814.51
813.291
812.018
810.579
808.935
807.104
805.131
803.06
800.952
798.865
796.818
794.849
793.027
791.389
789.876
788.355
786.699
784.829
782.718
780.39
777.903
775.32
772.668
769.946
767.211
764.588
762.046
759.39
756.676
754.27
751.889
749.035
745.823
742.984
740.212
736.781
732.679
729.82
727.206
723.726
719.486
716.614
713.739
709.929
706.566
703.82
700.138
696.176
693.207
690.701
688.497
686.557
683.247
679.711
676.615
673.797
671.013
668.146
665.314
662.904
660.858
880.601
880.797
880.959
881.749
883.95
886.865
889.277
890.945
891.676
891.865
891.428
890.501
889.253
887.783
887.3
887.489
887.65
887.413
886.833
885.723
884.175
882.398
880.549
878.651
876.939
875.376
874.276
873.629
873.02
872.617
871.968
870.919
869.52
867.908
866.151
864.36
862.522
860.749
859.315
858.089
856.987
856.135
855.222
853.997
852.422
850.581
848.548
846.387
844.139
841.877
839.718
837.732
835.962
834.433
833.041
831.607
830.008
828.196
826.186
824.025
821.762
819.434
817.119
814.893
812.805
810.925
809.305
807.9
806.594
805.254
803.787
802.157
800.369
798.448
796.44
794.4
792.361
790.357
788.449
786.692
785.083
783.543
781.964
780.246
778.327
776.194
773.876
771.414
768.836
766.175
763.501
760.877
758.256
755.559
752.971
750.65
748.248
745.442
742.538
739.901
737.108
733.634
729.982
727.293
724.584
720.976
716.958
714.26
711.414
707.595
704.334
701.482
697.785
694.024
691.211
688.909
686.722
684.039
680.916
677.785
674.872
672.161
669.493
666.788
664.067
661.556
659.367
907.172
905.538
903.589
902.208
901.483
900.877
900.028
898.737
897.043
895.007
892.846
890.617
888.387
886.329
884.665
883.445
882.53
881.847
881.041
879.948
878.618
877.129
875.545
873.942
872.305
870.852
869.691
868.753
868.077
867.493
866.753
865.762
864.527
863.08
861.487
859.765
858.003
856.331
854.769
853.366
852.2
851.14
849.965
848.569
846.943
845.103
843.079
840.902
838.631
836.353
834.143
832.069
830.19
828.495
826.899
825.288
823.565
821.685
819.653
817.496
815.24
812.946
810.677
808.488
806.443
804.608
802.996
801.563
800.215
798.84
797.366
795.76
794.015
792.156
790.222
788.249
786.27
784.334
782.502
780.802
779.207
777.643
776.014
774.243
772.29
770.15
767.839
765.384
762.826
760.222
757.608
754.959
752.287
749.773
747.435
744.985
742.27
739.629
737.122
734.331
730.962
727.743
725.11
722.285
718.602
714.974
712.374
709.47
705.621
702.471
699.647
696.09
692.47
689.733
687.503
684.739
681.834
679.101
676.342
673.553
670.888
668.289
665.689
663.108
660.602
658.277
656.011
653.568
908.137
905.337
902.526
899.686
897.201
895.208
893.607
892.204
890.756
889.158
887.445
885.65
883.801
881.923
880.159
878.635
877.42
876.512
875.785
875.034
874.159
873.124
871.948
870.663
869.286
867.917
866.646
865.524
864.598
863.836
863.109
862.291