/*--------------------------------*- C++ -*----------------------------------*\
| =========                 |                                                 |
| \\      /  F ield         | OpenFOAM: The Open Source CFD Toolbox           |
|  \\    /   O peration     | Version:  v1706                                 |
|   \\  /    A nd           | Web:      www.OpenFOAM.com                      |
|    \\/     M anipulation  |                                                 |
\*---------------------------------------------------------------------------*/
FoamFile
{
    version     2.0;
    format      ascii;
    class       volScalarField;
    location    "1.4e-05";
    object      rho;
}
// * * * * * * * * * * * * * * * * * * * * * * * * * * * * * * * * * * * * * //

dimensions      [1 -3 0 0 0 0 0];


internalField   nonuniform List<scalar> 
29871
(
0.000511309
0.000511309
0.000511309
0.000511309
0.000511309
0.000511309
0.000511309
0.000511309
0.000511309
0.000511309
0.000511309
0.000511309
0.000511309
0.000511309
0.000511309
0.000511309
0.000511309
0.000511309
0.000511309
0.000511309
0.000511309
0.000511309
0.000511309
0.000511309
0.000511309
0.000511309
0.000511309
0.000511309
0.000511309
0.000511309
0.000511309
0.000511309
0.000511309
0.000511309
0.000511309
0.000511309
0.000511309
0.000511309
0.000511309
0.000511309
0.000511309
0.000511309
0.000511309
0.000511309
0.000511309
0.000511309
0.000511309
0.000511309
0.000511309
0.000511309
0.000511309
0.000511309
0.000511309
0.000511309
0.000511309
0.000511309
0.000511309
0.000511309
0.000511309
0.000511309
0.000511309
0.000511309
0.000511309
0.000511309
0.000511309
0.000511309
0.000511309
0.000511309
0.000511309
0.000511309
0.000511309
0.000511309
0.000511309
0.000511309
0.000511309
0.000511309
0.000511309
0.000511309
0.000511309
0.000511309
0.000511309
0.000511309
0.000511309
0.000511309
0.000511309
0.000511309
0.000511309
0.000511309
0.000511309
0.000511309
0.000511309
0.000511309
0.000511309
0.000511309
0.000511309
0.000511309
0.000511309
0.000511309
0.000511309
0.000511309
0.000511309
0.000511309
0.000511309
0.000511309
0.000511309
0.000511309
0.000511309
0.000511309
0.000511309
0.000511309
0.000511309
0.000511309
0.000511309
0.000511309
0.000511309
0.000511309
0.000511309
0.000511309
0.000511309
0.000511309
0.000511309
0.000511309
0.000511309
0.000511309
0.000511309
0.000511309
0.000511309
0.000511309
0.000511309
0.000511309
0.000511309
0.000511309
0.000511309
0.000511309
0.000511309
0.000511309
0.000511309
0.000511309
0.000511309
0.000511309
0.000511309
0.000511309
0.000511309
0.000511309
0.000511309
0.000511309
0.000511309
0.000511309
0.000511309
0.000511309
0.000511309
0.000511309
0.000511309
0.000511309
0.000511309
0.000511309
0.000511309
0.000511309
0.000511309
0.000511309
0.000511309
0.000511309
0.000511309
0.000511309
0.000511309
0.000511309
0.000511309
0.000511309
0.000511309
0.000511309
0.000511309
0.000511309
0.000511309
0.000511309
0.000511309
0.000511309
0.000511309
0.000511309
0.000511309
0.000511309
0.000511309
0.000511309
0.000511309
0.000511309
0.000511309
0.000511309
0.000511309
0.000511309
0.000511309
0.000511309
0.000511309
0.000511309
0.000511309
0.000511309
0.000511309
0.000511309
0.000511309
0.000511309
0.000511309
0.000511309
0.000511309
0.000511309
0.000511309
0.000511309
0.000511309
0.000511309
0.000511309
0.000511309
0.000511309
0.000511309
0.000511309
0.000511309
0.000511309
0.000511309
0.000511309
0.000511309
0.000511309
0.000511309
0.000511309
0.000511309
0.000511309
0.000511309
0.000511309
0.000511309
0.000511309
0.000511309
0.000511309
0.000511309
0.000511309
0.000511309
0.000511309
0.000511309
0.000511309
0.000511309
0.000511309
0.000511309
0.000511309
0.000511309
0.000511309
0.000511309
0.000511309
0.000511309
0.000511309
0.000511309
0.000511309
0.000511309
0.000511309
0.000511309
0.000511309
0.000511309
0.000511309
0.000511309
0.000511309
0.000511309
0.000511309
0.000511309
0.000511309
0.000511309
0.000511309
0.000511309
0.000511309
0.000511309
0.000511309
0.000511309
0.000511309
0.000511309
0.000511309
0.000511309
0.000511309
0.000511309
0.000511309
0.000511309
0.000511309
0.000511309
0.000511309
0.000511309
0.000511309
0.000511309
0.000511309
0.000511309
0.000511309
0.000511309
0.000511309
0.000511309
0.000511309
0.000511309
0.000511309
0.000511309
0.000511309
0.000511309
0.000511309
0.000511309
0.000511309
0.000511309
0.000511309
0.000511309
0.000511309
0.000511309
0.000511309
0.000511309
0.000511309
0.000511309
0.000511309
0.000511309
0.000511309
0.000511309
0.000511309
0.000511309
0.000511309
0.000511309
0.000511309
0.000511309
0.000511309
0.000511309
0.000511309
0.000511309
0.000511309
0.000511309
0.000511309
0.000511309
0.000511309
0.000511309
0.000511309
0.000511309
0.000511309
0.000511309
0.000511309
0.000511309
0.000511309
0.000511309
0.000511309
0.000511309
0.000511309
0.000511309
0.000511309
0.000511309
0.000511309
0.000511309
0.000511309
0.000511309
0.000511309
0.000511309
0.000511309
0.000511309
0.000511309
0.000511309
0.000511309
0.000511309
0.000511309
0.000511309
0.000511309
0.000511309
0.000511309
0.000511309
0.000511309
0.000511309
0.000511309
0.000511309
0.000511309
0.000511309
0.000511309
0.000511309
0.000511309
0.000511309
0.000511309
0.000511309
0.000511309
0.000511309
0.000511309
0.000511309
0.000511309
0.000511309
0.000511309
0.000511309
0.000511309
0.000511309
0.000511309
0.000511309
0.000511309
0.000511309
0.000511309
0.000511309
0.000511309
0.000511309
0.000511309
0.000511309
0.000511309
0.000511309
0.000511309
0.000511309
0.000511309
0.000511309
0.000511309
0.000511309
0.000511309
0.000511309
0.000511309
0.000511309
0.000511309
0.000511309
0.000511309
0.000511309
0.000511309
0.000511309
0.000511309
0.000511309
0.000511309
0.000511309
0.000511309
0.000511309
0.000511309
0.000511309
0.000511309
0.000511309
0.000511309
0.000511309
0.000511309
0.000511309
0.000511309
0.000511309
0.000511309
0.000511309
0.000511309
0.000511309
0.000511309
0.000511309
0.000511309
0.000511309
0.000511309
0.000511309
0.000511309
0.000511309
0.000511309
0.000511309
0.000511309
0.000511309
0.000511309
0.000511309
0.000511309
0.000511309
0.000511309
0.000511309
0.000511309
0.000511309
0.000511309
0.000511309
0.000511309
0.000511309
0.000511309
0.000511309
0.000511309
0.000511309
0.000511309
0.000511309
0.000511309
0.000511309
0.000511309
0.000511309
0.000511309
0.000511309
0.000511309
0.000511309
0.000511309
0.000511309
0.000511309
0.000511309
0.000511309
0.000511309
0.000511309
0.000511309
0.000511309
0.000511309
0.000511309
0.000511309
0.000511309
0.000511309
0.000511309
0.000511309
0.000511309
0.000511309
0.000511309
0.000511309
0.000511309
0.000511309
0.000511309
0.000511309
0.000511309
0.000511309
0.000511309
0.000511309
0.000511309
0.000511309
0.000511309
0.000511309
0.000511309
0.000511309
0.000511309
0.000511309
0.000511309
0.000511309
0.000511309
0.000511309
0.000511309
0.000511309
0.000511309
0.000511309
0.000511309
0.000511309
0.000511309
0.000511309
0.000511309
0.000511309
0.000511309
0.000511309
0.000511309
0.000511309
0.000511309
0.000511309
0.000511309
0.000511309
0.000511309
0.000511309
0.000511309
0.000511309
0.000511309
0.000511309
0.000511309
0.000511309
0.000511309
0.000511309
0.000511309
0.000511309
0.000511309
0.000511309
0.000511309
0.000511309
0.000511309
0.000511309
0.000511309
0.000511309
0.000511309
0.000511309
0.000511309
0.000511309
0.000511309
0.000511309
0.000511309
0.000511309
0.000511309
0.000511309
0.000511309
0.000511309
0.000511309
0.000511309
0.000511309
0.000511309
0.000511309
0.000511309
0.000511309
0.000511309
0.000511309
0.000511309
0.000511309
0.000511309
0.000511309
0.000511309
0.000511309
0.000511309
0.000511309
0.000511309
0.000511309
0.000511309
0.000511309
0.000511309
0.000511309
0.000511309
0.000511309
0.000511309
0.000511309
0.000511309
0.000511309
0.000511309
0.000511309
0.000511309
0.000511309
0.000511309
0.000511309
0.000511309
0.000511309
0.000511309
0.000511309
0.000511309
0.000511309
0.000511309
0.000511309
0.000511309
0.000511309
0.000511309
0.000511309
0.000511309
0.000511309
0.000511309
0.000511309
0.000511309
0.000511309
0.000511309
0.000511309
0.000511309
0.000511309
0.000511309
0.000511309
0.000511309
0.000511309
0.000511309
0.000511309
0.000511309
0.000511309
0.000511309
0.000511309
0.000511309
0.000511309
0.000511309
0.000511309
0.000511309
0.000511309
0.000511309
0.000511309
0.000511309
0.000511309
0.000511309
0.000511309
0.000511309
0.000511309
0.000511309
0.000511309
0.000511309
0.000511309
0.000511309
0.000511309
0.000511309
0.000511309
0.000511309
0.000511309
0.000511309
0.000511309
0.000511309
0.000511309
0.000511309
0.000511309
0.000511309
0.000511309
0.000511309
0.000511309
0.000511309
0.000511309
0.000511309
0.000511309
0.000511309
0.000511309
0.000511309
0.000511309
0.000511309
0.000511309
0.000511309
0.000511309
0.000511309
0.000511309
0.000511309
0.000511309
0.000511309
0.000511309
0.000511309
0.000511309
0.000511309
0.000511309
0.000511309
0.000511309
0.000511309
0.000511309
0.000511309
0.000511309
0.000511309
0.000511309
0.000511309
0.000511309
0.000511309
0.000511309
0.000511309
0.000511309
0.000511309
0.000511309
0.000511309
0.000511309
0.000511309
0.000511309
0.000511309
0.000511309
0.000511309
0.000511309
0.000511309
0.000511309
0.000511309
0.000511309
0.000511309
0.000511309
0.000511309
0.000511309
0.000511309
0.000511309
0.000511309
0.000511309
0.000511309
0.000511309
0.000511309
0.000511309
0.000511309
0.000511309
0.000511309
0.000511309
0.000511309
0.000511309
0.000511309
0.000511309
0.000511309
0.000511309
0.000511309
0.000511309
0.000511309
0.000511309
0.000511309
0.000511309
0.000511309
0.000511309
0.000511309
0.000511309
0.000511309
0.000511309
0.000511309
0.000511309
0.000511309
0.000511309
0.000511309
0.000511309
0.000511309
0.000511309
0.000511309
0.000511309
0.000511309
0.000511309
0.000511309
0.000511309
0.000511309
0.000511309
0.000511309
0.000511309
0.000511309
0.000511309
0.000511309
0.000511309
0.000511309
0.000511309
0.000511309
0.000511309
0.000511309
0.000511309
0.000511309
0.000511309
0.000511309
0.000511309
0.000511309
0.000511309
0.000511309
0.000511309
0.000511309
0.000511309
0.000511309
0.000511309
0.000511309
0.000511309
0.000511309
0.000511309
0.000511309
0.000511309
0.000511309
0.000511309
0.000511309
0.000511309
0.000511309
0.000511309
0.000511309
0.000511309
0.000511309
0.000511309
0.000511309
0.000511309
0.000511309
0.000511309
0.000511309
0.000511309
0.000511309
0.000511309
0.000511309
0.000511309
0.000511309
0.000511309
0.000511309
0.000511309
0.000511309
0.000511309
0.000511309
0.000511309
0.000511309
0.000511309
0.000511309
0.000511309
0.000511309
0.000511309
0.000511309
0.000511309
0.000511309
0.000511309
0.000511309
0.000511309
0.000511309
0.000511309
0.000511309
0.000511309
0.000511309
0.000511309
0.000511309
0.000511309
0.000511309
0.000511309
0.000511309
0.000511309
0.000511309
0.000511309
0.000511309
0.000511309
0.000511309
0.000511309
0.000511309
0.000511309
0.000511309
0.000511309
0.000511309
0.000511309
0.000511309
0.000511309
0.000511309
0.000511309
0.000511309
0.000511309
0.000511309
0.000511309
0.000511309
0.000511309
0.000511309
0.000511309
0.000511309
0.000511309
0.000511309
0.000511309
0.000511309
0.000511309
0.000511309
0.000511309
0.000511309
0.000511309
0.000511309
0.000511309
0.000511309
0.000511309
0.000511309
0.000511309
0.000511309
0.000511309
0.000511309
0.000511309
0.000511309
0.000511309
0.000511309
0.000511309
0.000511309
0.000511309
0.000511309
0.000511309
0.000511309
0.000511309
0.000511309
0.000511309
0.000511309
0.000511309
0.000511309
0.000511309
0.000511309
0.000511309
0.000511309
0.000511309
0.000511309
0.000511309
0.000511309
0.000511309
0.000511309
0.000511309
0.000511309
0.000511309
0.000511309
0.000511309
0.000511309
0.000511309
0.000511309
0.000511309
0.000511309
0.000511309
0.000511309
0.000511309
0.000511309
0.000511309
0.000511309
0.000511309
0.000511309
0.000511309
0.000511309
0.000511309
0.000511309
0.000511309
0.000511309
0.000511309
0.000511309
0.000511309
0.000511309
0.000511309
0.000511309
0.000511309
0.000511309
0.000511309
0.000511309
0.000511309
0.000511309
0.000511309
0.000511309
0.000511309
0.000511309
0.000511309
0.000511309
0.000511309
0.000511309
0.000511309
0.000511309
0.000511309
0.000511309
0.000511309
0.000511309
0.000511309
0.000511309
0.000511309
0.000511309
0.000511309
0.000511309
0.000511309
0.000511309
0.000511309
0.000511309
0.000511309
0.000511309
0.000511309
0.000511309
0.000511309
0.000511309
0.000511309
0.000511309
0.000511309
0.000511309
0.000511309
0.000511309
0.000511309
0.000511309
0.000511309
0.000511309
0.000511309
0.000511309
0.000511309
0.000511309
0.000511309
0.000511309
0.000511309
0.000511309
0.000511309
0.000511309
0.000511309
0.000511309
0.000511309
0.000511309
0.000511309
0.000511309
0.000511309
0.000511309
0.000511309
0.000511309
0.000511309
0.000511309
0.000511309
0.000511309
0.000511309
0.000511309
0.000511309
0.000511309
0.000511309
0.000511309
0.000511309
0.000511309
0.000511309
0.000511309
0.000511309
0.000511309
0.000511309
0.000511309
0.000511309
0.000511309
0.000511309
0.000511309
0.000511309
0.000511309
0.000511309
0.000511309
0.000511309
0.000511309
0.000511309
0.000511309
0.000511309
0.000511309
0.000511309
0.000511309
0.000511309
0.000511309
0.000511309
0.000511309
0.000511309
0.000511309
0.000511309
0.000511309
0.000511309
0.000511309
0.000511309
0.000511309
0.000511309
0.000511309
0.000511309
0.000511309
0.000511309
0.000511309
0.000511309
0.000511309
0.000511309
0.000511309
0.000511309
0.000511309
0.000511309
0.000511309
0.000511309
0.000511309
0.000511309
0.000511309
0.000511309
0.000511309
0.000511309
0.000511309
0.000511309
0.000511309
0.000511309
0.000511309
0.000511309
0.000511309
0.000511309
0.000511309
0.000511309
0.000511309
0.000511309
0.000511309
0.000511309
0.000511309
0.000511309
0.000511309
0.000511309
0.000511309
0.000511309
0.000511309
0.000511309
0.000511309
0.000511309
0.000511309
0.000511309
0.000511309
0.000511309
0.000511309
0.000511309
0.000511309
0.000511309
0.000511309
0.000511309
0.000511309
0.000511309
0.000511309
0.000511309
0.000511309
0.000511309
0.000511309
0.000511309
0.000511309
0.000511309
0.000511309
0.000511309
0.000511309
0.000511309
0.000511309
0.000511309
0.000511309
0.000511309
0.000511309
0.000511309
0.000511309
0.000511309
0.000511309
0.000511309
0.000511309
0.000511309
0.000511309
0.000511309
0.000511309
0.000511309
0.000511309
0.000511309
0.000511309
0.000511309
0.000511309
0.000511309
0.000511309
0.000511309
0.000511309
0.000511309
0.000511309
0.000511309
0.000511309
0.000511309
0.000511309
0.000511309
0.000511309
0.000511309
0.000511309
0.000511309
0.000511309
0.000511309
0.000511309
0.000511309
0.000511309
0.000511309
0.000511309
0.000511309
0.000511309
0.000511309
0.000511309
0.000511309
0.000511309
0.000511309
0.000511309
0.000511309
0.000511309
0.000511309
0.000511309
0.000511309
0.000511309
0.000511309
0.000511309
0.000511309
0.000511309
0.000511309
0.000511309
0.000511309
0.000511309
0.000511309
0.000511309
0.000511309
0.000511309
0.000511309
0.000511309
0.000511309
0.000511309
0.000511309
0.000511309
0.000511309
0.000511309
0.000511309
0.000511309
0.000511309
0.000511309
0.000511309
0.000511309
0.000511309
0.000511309
0.000511309
0.000511309
0.000511309
0.000511309
0.000511309
0.000511309
0.000511309
0.000511309
0.000511309
0.000511309
0.000511309
0.000511309
0.000511309
0.000511309
0.000511309
0.000511309
0.000511309
0.000511309
0.000511309
0.000511309
0.000511309
0.000511309
0.000511309
0.000511309
0.000511309
0.000511309
0.000511309
0.000511309
0.000511309
0.000511309
0.000511309
0.000511309
0.000511309
0.000511309
0.000511309
0.000511309
0.000511309
0.000511309
0.000511309
0.000511309
0.000511309
0.000511309
0.000511309
0.000511309
0.000511309
0.000511309
0.000511309
0.000511309
0.000511309
0.000511309
0.000511309
0.000511309
0.000511309
0.000511309
0.000511309
0.000511309
0.000511309
0.000511309
0.000511309
0.000511309
0.000511309
0.000511309
0.000511309
0.000511309
0.000511309
0.000511309
0.000511309
0.000511309
0.00051131
0.00051131
0.00051131
0.00051131
0.00051131
0.00051131
0.00051131
0.00051131
0.00051131
0.00051131
0.00051131
0.00051131
0.00051131
0.00051131
0.00051131
0.00051131
0.00051131
0.00051131
0.00051131
0.00051131
0.00051131
0.00051131
0.00051131
0.00051131
0.00051131
0.00051131
0.00051131
0.00051131
0.00051131
0.000511309
0.000511309
0.000511309
0.000511309
0.000511309
0.000511309
0.000511309
0.000511309
0.000511309
0.000511309
0.000511309
0.000511309
0.000511309
0.000511309
0.000511309
0.000511309
0.000511309
0.000511309
0.000511309
0.000511309
0.000511309
0.000511309
0.000511309
0.000511309
0.000511309
0.000511309
0.000511309
0.000511309
0.000511309
0.000511309
0.000511309
0.000511309
0.000511309
0.000511309
0.000511309
0.000511309
0.000511309
0.000511309
0.000511309
0.000511309
0.000511309
0.000511309
0.000511309
0.000511309
0.000511309
0.000511309
0.000511309
0.000511309
0.000511309
0.000511309
0.000511309
0.000511309
0.000511309
0.000511309
0.000511309
0.000511309
0.000511309
0.000511309
0.000511309
0.000511309
0.000511309
0.000511309
0.00051131
0.00051131
0.00051131
0.00051131
0.00051131
0.00051131
0.00051131
0.00051131
0.00051131
0.00051131
0.00051131
0.00051131
0.00051131
0.00051131
0.00051131
0.00051131
0.00051131
0.00051131
0.00051131
0.00051131
0.00051131
0.000511311
0.000511311
0.000511311
0.000511311
0.000511311
0.000511311
0.000511311
0.000511311
0.000511312
0.000511312
0.000511312
0.000511312
0.000511312
0.000511312
0.000511312
0.000511312
0.000511312
0.000511312
0.000511312
0.000511312
0.000511312
0.000511312
0.000511312
0.000511312
0.000511312
0.000511312
0.000511311
0.000511311
0.000511311
0.000511311
0.000511309
0.000511309
0.000511309
0.000511309
0.000511309
0.000511309
0.000511309
0.000511309
0.000511309
0.000511309
0.000511309
0.000511309
0.000511309
0.000511309
0.000511309
0.000511309
0.000511309
0.000511309
0.000511309
0.000511309
0.000511309
0.000511309
0.000511309
0.000511309
0.000511309
0.000511309
0.000511309
0.000511309
0.000511309
0.000511309
0.000511309
0.000511309
0.000511309
0.000511309
0.000511309
0.000511309
0.000511309
0.000511309
0.000511309
0.000511309
0.000511309
0.000511309
0.000511309
0.000511309
0.00051131
0.00051131
0.00051131
0.00051131
0.00051131
0.00051131
0.00051131
0.00051131
0.00051131
0.00051131
0.00051131
0.00051131
0.00051131
0.00051131
0.00051131
0.00051131
0.00051131
0.00051131
0.000511311
0.000511311
0.000511311
0.000511311
0.000511311
0.000511311
0.000511311
0.000511312
0.000511312
0.000511312
0.000511313
0.000511313
0.000511313
0.000511314
0.000511314
0.000511314
0.000511315
0.000511316
0.000511316
0.000511317
0.000511318
0.000511319
0.000511319
0.00051132
0.000511321
0.000511322
0.000511323
0.000511324
0.000511325
0.000511326
0.000511327
0.000511327
0.000511328
0.000511328
0.000511329
0.000511329
0.000511329
0.000511329
0.000511329
0.000511329
0.000511329
0.000511329
0.000511328
0.000511328
0.000511327
0.000511327
0.000511326
0.000511325
0.000511324
0.000511323
0.000511322
0.000511309
0.000511309
0.000511309
0.000511309
0.000511309
0.000511309
0.000511309
0.000511309
0.000511309
0.000511309
0.000511309
0.000511309
0.000511309
0.000511309
0.000511309
0.000511309
0.000511309
0.000511309
0.000511309
0.000511309
0.000511309
0.000511309
0.000511309
0.000511309
0.000511309
0.000511309
0.000511309
0.000511309
0.000511309
0.00051131
0.00051131
0.00051131
0.00051131
0.00051131
0.00051131
0.00051131
0.00051131
0.00051131
0.00051131
0.00051131
0.00051131
0.00051131
0.00051131
0.00051131
0.00051131
0.00051131
0.000511311
0.000511311
0.000511311
0.000511311
0.000511311
0.000511311
0.000511312
0.000511312
0.000511312
0.000511312
0.000511313
0.000511313
0.000511314
0.000511314
0.000511315
0.000511315
0.000511316
0.000511316
0.000511317
0.000511318
0.000511319
0.00051132
0.000511321
0.000511323
0.000511325
0.000511326
0.000511328
0.000511331
0.000511333
0.000511335
0.000511338
0.00051134
0.000511343
0.000511346
0.00051135
0.000511353
0.000511358
0.000511362
0.000511367
0.000511372
0.000511378
0.000511384
0.00051139
0.000511396
0.000511402
0.000511407
0.000511413
0.000511419
0.000511424
0.000511428
0.000511433
0.000511436
0.000511439
0.000511442
0.000511443
0.000511444
0.000511444
0.000511444
0.000511442
0.00051144
0.000511438
0.000511434
0.00051143
0.000511426
0.000511421
0.000511415
0.000511409
0.000511403
0.000511397
0.000511309
0.000511309
0.000511309
0.000511309
0.000511309
0.000511309
0.000511309
0.000511309
0.000511309
0.000511309
0.000511309
0.000511309
0.000511309
0.000511309
0.00051131
0.00051131
0.00051131
0.00051131
0.00051131
0.00051131
0.00051131
0.00051131
0.00051131
0.00051131
0.00051131
0.00051131
0.00051131
0.00051131
0.00051131
0.00051131
0.000511311
0.000511311
0.000511311
0.000511311
0.000511311
0.000511312
0.000511312
0.000511312
0.000511313
0.000511313
0.000511313
0.000511314
0.000511314
0.000511315
0.000511316
0.000511316
0.000511317
0.000511318
0.000511319
0.00051132
0.000511321
0.000511323
0.000511324
0.000511326
0.000511328
0.00051133
0.000511333
0.000511336
0.000511339
0.000511342
0.000511346
0.00051135
0.000511354
0.000511358
0.000511363
0.000511369
0.000511375
0.000511383
0.000511391
0.0005114
0.00051141
0.000511421
0.000511433
0.000511447
0.000511461
0.000511477
0.000511493
0.00051151
0.000511529
0.000511549
0.000511573
0.000511601
0.000511633
0.000511668
0.000511707
0.000511748
0.000511791
0.000511834
0.000511878
0.000511921
0.000511964
0.000512005
0.000512044
0.000512081
0.000512116
0.000512147
0.000512175
0.000512199
0.000512218
0.000512233
0.000512243
0.000512247
0.000512247
0.000512242
0.000512232
0.000512217
0.000512197
0.000512174
0.000512147
0.000512116
0.000512082
0.000512046
0.000512007
0.000511965
0.000511923
0.000511879
0.000511309
0.000511309
0.000511309
0.000511309
0.000511309
0.000511309
0.000511309
0.000511309
0.00051131
0.00051131
0.00051131
0.00051131
0.00051131
0.00051131
0.00051131
0.00051131
0.00051131
0.00051131
0.00051131
0.00051131
0.00051131
0.00051131
0.000511311
0.000511311
0.000511311
0.000511311
0.000511311
0.000511312
0.000511312
0.000511312
0.000511313
0.000511313
0.000511314
0.000511314
0.000511315
0.000511316
0.000511317
0.000511317
0.000511318
0.00051132
0.000511321
0.000511322
0.000511324
0.000511326
0.000511328
0.00051133
0.000511332
0.000511336
0.000511339
0.000511343
0.000511347
0.000511352
0.000511357
0.000511362
0.000511368
0.000511375
0.000511382
0.000511389
0.000511398
0.000511408
0.000511419
0.000511431
0.000511445
0.00051146
0.000511477
0.000511495
0.000511515
0.000511537
0.000511561
0.000511587
0.000511616
0.000511649
0.000511687
0.000511733
0.000511786
0.000511847
0.000511915
0.00051199
0.000512072
0.000512159
0.000512252
0.00051235
0.000512454
0.000512562
0.000512675
0.000512796
0.000512928
0.000513075
0.000513239
0.000513419
0.000513616
0.00051383
0.000514059
0.0005143
0.000514549
0.000514802
0.000515056
0.000515307
0.000515555
0.000515794
0.000516022
0.000516235
0.000516432
0.000516608
0.000516762
0.000516889
0.000516988
0.000517058
0.000517096
0.000517102
0.000517076
0.000517018
0.00051693
0.000516814
0.000516671
0.000516504
0.000516314
0.000516101
0.000515869
0.00051562
0.00051536
0.00051509
0.000514813
0.00051131
0.00051131
0.00051131
0.00051131
0.00051131
0.00051131
0.00051131
0.00051131
0.00051131
0.000511311
0.000511311
0.000511311
0.000511311
0.000511312
0.000511312
0.000511312
0.000511313
0.000511313
0.000511314
0.000511314
0.000511315
0.000511316
0.000511317
0.000511318
0.000511319
0.000511321
0.000511322
0.000511324
0.000511326
0.000511328
0.00051133
0.000511333
0.000511336
0.00051134
0.000511344
0.000511349
0.000511355
0.000511361
0.000511368
0.000511376
0.000511384
0.000511394
0.000511404
0.000511415
0.000511428
0.000511442
0.000511458
0.000511475
0.000511495
0.000511516
0.000511541
0.000511567
0.000511597
0.000511629
0.000511664
0.000511703
0.000511747
0.000511797
0.000511856
0.000511924
0.000512002
0.00051209
0.000512187
0.000512294
0.00051241
0.000512536
0.00051267
0.000512814
0.000512967
0.000513133
0.000513315
0.000513519
0.000513749
0.000514008
0.000514301
0.000514631
0.000515002
0.000515415
0.000515869
0.000516362
0.000516891
0.000517455
0.000518051
0.000518681
0.000519346
0.000520056
0.00052086
0.000521826
0.000522983
0.000524315
0.000525782
0.00052734
0.000528952
0.000530586
0.000532216
0.000533824
0.000535398
0.000536926
0.000538395
0.000539789
0.000541091
0.000542286
0.000543363
0.000544312
0.000545124
0.000545781
0.000546275
0.000546614
0.000546784
0.000546781
0.000546612
0.000546279
0.000545787
0.000545145
0.000544367
0.000543462
0.000542435
0.000541285
0.000540015
0.000538632
0.000537153
0.000535594
0.000533966
0.000511311
0.000511312
0.000511312
0.000511312
0.000511313
0.000511314
0.000511314
0.000511315
0.000511316
0.000511317
0.000511318
0.00051132
0.000511321
0.000511323
0.000511325
0.000511327
0.00051133
0.000511333
0.000511336
0.00051134
0.000511345
0.00051135
0.000511356
0.000511363
0.00051137
0.000511379
0.00051139
0.000511401
0.000511413
0.000511427
0.000511443
0.000511461
0.000511481
0.000511503
0.000511527
0.000511555
0.000511586
0.00051162
0.000511659
0.000511702
0.00051175
0.000511803
0.000511863
0.000511932
0.000512011
0.000512104
0.00051221
0.00051233
0.000512464
0.000512612
0.000512775
0.000512951
0.000513141
0.000513345
0.000513565
0.000513806
0.000514071
0.000514366
0.000514694
0.000515059
0.000515468
0.000515927
0.000516439
0.000517006
0.00051763
0.000518308
0.000519039
0.000519824
0.000520666
0.000521572
0.000522594
0.00052381
0.000525279
0.000527016
0.000529008
0.000531226
0.000533641
0.000536227
0.000538957
0.000541809
0.000544767
0.000547817
0.00055095
0.000554163
0.000557453
0.000560895
0.000564583
0.000568513
0.00057267
0.000577135
0.000581993
0.000587241
0.000592791
0.000598519
0.000604316
0.000610115
0.000615881
0.00062158
0.000627165
0.000632572
0.000637733
0.000642589
0.000647088
0.000651181
0.000654817
0.000657909
0.000660391
0.00066234
0.00066368
0.000664107
0.000663886
0.000663061
0.000661541
0.000659332
0.0006565
0.000653078
0.000649058
0.000644427
0.000639225
0.000633549
0.00062749
0.000621094
0.000614381
0.000511321
0.000511323
0.000511326
0.000511328
0.000511331
0.000511335
0.000511339
0.000511344
0.000511349
0.000511355
0.000511362
0.00051137
0.00051138
0.000511391
0.000511404
0.000511419
0.000511436
0.000511454
0.000511476
0.0005115
0.000511527
0.000511557
0.000511591
0.000511629
0.000511672
0.000511721
0.000511775
0.000511836
0.000511905
0.000511983
0.000512073
0.000512176
0.000512297
0.000512436
0.000512596
0.000512777
0.00051298
0.000513204
0.000513451
0.000513721
0.000514016
0.00051434
0.000514698
0.000515094
0.000515534
0.000516021
0.000516563
0.000517168
0.000517842
0.000518591
0.000519415
0.000520315
0.00052129
0.000522339
0.000523468
0.000524723
0.000526177
0.000527892
0.000529894
0.00053218
0.000534733
0.000537528
0.000540542
0.000543754
0.000547143
0.00055069
0.000554383
0.00055822
0.000562207
0.000566432
0.000570961
0.000575802
0.000580978
0.000586621
0.000592899
0.000599915
0.000607673
0.000616109
0.000625133
0.000634672
0.000644696
0.0006552
0.00066618
0.000677661
0.000689686
0.000702191
0.000717528
0.000739564
0.000767757
0.000800265
0.000835496
0.000872435
0.000910475
0.000949114
0.000987861
0.00102639
0.0010646
0.0011024
0.00113943
0.00117505
0.00120883
0.00124033
0.00126905
0.0012951
0.00131851
0.00133816
0.00135391
0.00136732
0.00137762
0.00138301
0.00138265
0.00137901
0.00137237
0.00136245
0.00134865
0.00133179
0.00131204
0.00128866
0.00126096
0.00122867
0.00119268
0.00115392
0.00111261
0.0010687
0.00102185
0.000511379
0.00051139
0.000511404
0.00051142
0.000511439
0.000511461
0.000511486
0.000511514
0.000511547
0.000511584
0.000511626
0.000511674
0.000511727
0.000511788
0.000511857
0.000511934
0.000512022
0.000512121
0.000512236
0.000512369
0.000512524
0.000512705
0.000512913
0.000513152
0.000513422
0.000513725
0.000514061
0.000514434
0.000514848
0.000515308
0.00051582
0.000516389
0.00051702
0.000517721
0.000518503
0.000519375
0.000520347
0.000521425
0.000522612
0.000523912
0.000525327
0.000526897
0.000528696
0.000530792
0.000533221
0.000535992
0.00053909
0.000542494
0.000546177
0.000550113
0.000554275
0.000558639
0.000563185
0.000567912
0.000572901
0.000578168
0.000583684
0.000589475
0.000595673
0.000602459
0.000609974
0.000618283
0.000627376
0.000637198
0.000647687
0.000658804
0.000670541
0.000682917
0.000696029
0.000709762
0.000726524
0.000750078
0.000780487
0.0008166
0.000857304
0.00090189
0.000949932
0.00100103
0.00105478
0.00111088
0.0011692
0.00122966
0.001292
0.00135587
0.00142071
0.00148626
0.0015497
0.00160675
0.00165851
0.00170643
0.00175111
0.00179259
0.00183088
0.0018663
0.00189913
0.00193011
0.00196053
0.00199001
0.00201783
0.00204417
0.00206836
0.00208955
0.00210812
0.00212444
0.00213857
0.00215089
0.00216171
0.00216998
0.00217615
0.00218025
0.00218161
0.00218334
0.00218169
0.00217617
0.00216851
0.00216139
0.00215183
0.00213911
0.00212287
0.00210361
0.00208373
0.00206104
0.00203437
0.0020037
0.00196825
0.000511716
0.000511783
0.00051186
0.000511947
0.000512046
0.000512158
0.000512287
0.000512436
0.000512609
0.000512811
0.000513048
0.000513323
0.00051364
0.000514003
0.000514413
0.000514875
0.000515394
0.000515975
0.000516625
0.00051735
0.000518155
0.00051905
0.000520045
0.000521153
0.000522389
0.000523762
0.000525285
0.000526961
0.000528823
0.000530938
0.000533383
0.000536214
0.000539457
0.000543111
0.00054716
0.000551581
0.000556347
0.000561428
0.000566796
0.000572434
0.000578418
0.000584733
0.000591316
0.000598165
0.000605396
0.000613197
0.000621745
0.000631149
0.000641443
0.000652596
0.000664555
0.000677269
0.000690708
0.000704915
0.000719717
0.000737878
0.00076215
0.000792522
0.000828157
0.000868265
0.00091232
0.000959993
0.001011
0.00106504
0.0011218
0.00118105
0.0012427
0.00130673
0.00137302
0.00144168
0.00151023
0.00157468
0.00163537
0.00169317
0.00174848
0.00180139
0.00185146
0.00189832
0.00194214
0.00198332
0.00202358