/*--------------------------------*- C++ -*----------------------------------*\
| =========                 |                                                 |
| \\      /  F ield         | OpenFOAM: The Open Source CFD Toolbox           |
|  \\    /   O peration     | Version:  v1706                                 |
|   \\  /    A nd           | Web:      www.OpenFOAM.com                      |
|    \\/     M anipulation  |                                                 |
\*---------------------------------------------------------------------------*/
FoamFile
{
    version     2.0;
    format      ascii;
    class       volScalarField;
    location    "1.4e-05";
    object      Tv;
}
// * * * * * * * * * * * * * * * * * * * * * * * * * * * * * * * * * * * * * //

dimensions      [0 0 0 1 0 0 0];


internalField   nonuniform List<scalar> 
29871
(
144.4
144.4
144.4
144.4
144.4
144.4
144.4
144.4
144.4
144.4
144.4
144.4
144.4
144.4
144.4
144.4
144.4
144.4
144.4
144.4
144.4
144.4
144.4
144.4
144.4
144.4
144.4
144.4
144.4
144.4
144.4
144.4
144.4
144.4
144.4
144.4
144.4
144.4
144.4
144.4
144.4
144.4
144.4
144.4
144.4
144.4
144.4
144.4
144.4
144.4
144.4
144.4
144.4
144.4
144.4
144.4
144.4
144.4
144.4
144.4
144.4
144.4
144.4
144.4
144.4
144.4
144.4
144.4
144.4
144.4
144.4
144.4
144.4
144.4
144.4
144.4
144.4
144.4
144.4
144.4
144.4
144.4
144.4
144.4
144.4
144.4
144.4
144.4
144.4
144.4
144.4
144.4
144.4
144.4
144.4
144.4
144.4
144.4
144.4
144.4
144.4
144.4
144.4
144.4
144.4
144.4
144.4
144.4
144.4
144.4
144.4
144.4
144.4
144.4
144.4
144.4
144.4
144.4
144.4
144.4
144.4
144.4
144.4
144.4
144.4
144.4
144.4
144.4
144.4
144.4
144.4
144.4
144.4
144.4
144.4
144.4
144.4
144.4
144.4
144.4
144.4
144.4
144.4
144.4
144.4
144.4
144.4
144.4
144.4
144.4
144.4
144.4
144.4
144.4
144.4
144.4
144.4
144.4
144.4
144.4
144.4
144.4
144.4
144.4
144.4
144.4
144.4
144.4
144.4
144.4
144.4
144.4
144.4
144.4
144.4
144.4
144.4
144.4
144.4
144.4
144.4
144.4
144.4
144.4
144.4
144.4
144.4
144.4
144.4
144.4
144.4
144.4
144.4
144.4
144.4
144.4
144.4
144.4
144.4
144.4
144.4
144.4
144.4
144.4
144.4
144.4
144.4
144.4
144.4
144.4
144.4
144.4
144.4
144.4
144.4
144.4
144.4
144.4
144.4
144.4
144.4
144.4
144.4
144.4
144.4
144.4
144.4
144.4
144.4
144.4
144.4
144.4
144.4
144.4
144.4
144.4
144.4
144.4
144.4
144.4
144.4
144.4
144.4
144.4
144.4
144.4
144.4
144.4
144.4
144.4
144.4
144.4
144.4
144.4
144.4
144.4
144.4
144.4
144.4
144.4
144.4
144.4
144.4
144.4
144.4
144.4
144.4
144.4
144.4
144.4
144.4
144.4
144.4
144.4
144.4
144.4
144.4
144.4
144.4
144.4
144.4
144.4
144.4
144.4
144.4
144.4
144.4
144.4
144.4
144.4
144.4
144.4
144.4
144.4
144.4
144.4
144.4
144.4
144.4
144.4
144.4
144.4
144.4
144.4
144.4
144.4
144.4
144.4
144.4
144.4
144.4
144.4
144.4
144.4
144.4
144.4
144.4
144.4
144.4
144.4
144.4
144.4
144.4
144.4
144.4
144.4
144.4
144.4
144.4
144.4
144.4
144.4
144.4
144.4
144.4
144.4
144.4
144.4
144.4
144.4
144.4
144.4
144.4
144.4
144.4
144.4
144.4
144.4
144.4
144.4
144.4
144.4
144.4
144.4
144.4
144.4
144.4
144.4
144.4
144.4
144.4
144.4
144.4
144.4
144.4
144.4
144.4
144.4
144.4
144.4
144.4
144.4
144.4
144.4
144.4
144.4
144.4
144.4
144.4
144.4
144.4
144.4
144.4
144.4
144.4
144.4
144.4
144.4
144.4
144.4
144.4
144.4
144.4
144.4
144.4
144.4
144.4
144.4
144.4
144.4
144.4
144.4
144.4
144.4
144.4
144.4
144.4
144.4
144.4
144.4
144.4
144.4
144.4
144.4
144.4
144.4
144.4
144.4
144.4
144.4
144.4
144.4
144.4
144.4
144.4
144.4
144.4
144.4
144.4
144.4
144.4
144.4
144.4
144.4
144.4
144.4
144.4
144.4
144.4
144.4
144.4
144.4
144.4
144.4
144.4
144.4
144.4
144.4
144.4
144.4
144.4
144.4
144.4
144.4
144.4
144.4
144.4
144.4
144.4
144.4
144.4
144.4
144.4
144.4
144.4
144.4
144.4
144.4
144.4
144.4
144.4
144.4
144.4
144.4
144.4
144.4
144.4
144.4
144.4
144.4
144.4
144.4
144.4
144.4
144.4
144.4
144.4
144.4
144.4
144.4
144.4
144.4
144.4
144.4
144.4
144.4
144.4
144.4
144.4
144.4
144.4
144.4
144.4
144.4
144.4
144.4
144.4
144.4
144.4
144.4
144.4
144.4
144.4
144.4
144.4
144.4
144.4
144.4
144.4
144.4
144.4
144.4
144.4
144.4
144.4
144.4
144.4
144.4
144.4
144.4
144.4
144.4
144.4
144.4
144.4
144.4
144.4
144.4
144.4
144.4
144.4
144.4
144.4
144.4
144.4
144.4
144.4
144.4
144.4
144.4
144.4
144.4
144.4
144.4
144.4
144.4
144.4
144.4
144.4
144.4
144.4
144.4
144.4
144.4
144.4
144.4
144.4
144.4
144.4
144.4
144.4
144.4
144.4
144.4
144.4
144.4
144.4
144.4
144.4
144.4
144.4
144.4
144.4
144.4
144.4
144.4
144.4
144.4
144.4
144.4
144.4
144.4
144.4
144.4
144.4
144.4
144.4
144.4
144.4
144.4
144.4
144.4
144.4
144.4
144.4
144.4
144.4
144.4
144.4
144.4
144.4
144.4
144.4
144.4
144.4
144.4
144.4
144.4
144.4
144.4
144.4
144.4
144.4
144.4
144.4
144.4
144.4
144.4
144.4
144.4
144.4
144.4
144.4
144.4
144.4
144.4
144.4
144.4
144.4
144.4
144.4
144.4
144.4
144.4
144.4
144.4
144.4
144.4
144.4
144.4
144.4
144.4
144.4
144.4
144.4
144.4
144.4
144.4
144.4
144.4
144.4
144.4
144.4
144.4
144.4
144.4
144.4
144.4
144.4
144.4
144.4
144.4
144.4
144.4
144.4
144.4
144.4
144.4
144.4
144.4
144.4
144.4
144.4
144.4
144.4
144.4
144.4
144.4
144.4
144.4
144.4
144.4
144.4
144.4
144.4
144.4
144.4
144.4
144.4
144.4
144.4
144.4
144.4
144.4
144.4
144.4
144.4
144.4
144.4
144.4
144.4
144.4
144.4
144.4
144.4
144.4
144.4
144.4
144.4
144.4
144.4
144.4
144.4
144.4
144.4
144.4
144.4
144.4
144.4
144.4
144.4
144.4
144.4
144.4
144.4
144.4
144.4
144.4
144.4
144.4
144.4
144.4
144.4
144.4
144.4
144.4
144.4
144.4
144.4
144.4
144.4
144.4
144.4
144.4
144.4
144.4
144.4
144.4
144.4
144.4
144.4
144.4
144.4
144.4
144.4
144.4
144.4
144.4
144.4
144.4
144.4
144.4
144.4
144.4
144.4
144.4
144.4
144.4
144.4
144.4
144.4
144.4
144.4
144.4
144.4
144.4
144.4
144.4
144.4
144.4
144.4
144.4
144.4
144.4
144.4
144.4
144.4
144.4
144.4
144.4
144.4
144.4
144.4
144.4
144.4
144.4
144.4
144.4
144.4
144.4
144.4
144.4
144.4
144.4
144.4
144.4
144.4
144.4
144.4
144.4
144.4
144.4
144.4
144.4
144.4
144.4
144.4
144.4
144.4
144.4
144.4
144.4
144.4
144.4
144.4
144.4
144.4
144.4
144.4
144.4
144.4
144.4
144.4
144.4
144.4
144.4
144.4
144.4
144.4
144.4
144.4
144.4
144.4
144.4
144.4
144.4
144.4
144.4
144.4
144.4
144.4
144.4
144.4
144.4
144.4
144.4
144.4
144.4
144.4
144.4
144.4
144.4
144.4
144.4
144.4
144.4
144.4
144.4
144.4
144.4
144.4
144.4
144.4
144.4
144.4
144.4
144.4
144.4
144.4
144.4
144.4
144.4
144.4
144.4
144.4
144.4
144.4
144.4
144.4
144.4
144.4
144.4
144.4
144.4
144.4
144.4
144.4
144.4
144.4
144.4
144.4
144.4
144.4
144.4
144.4
144.4
144.4
144.4
144.4
144.4
144.4
144.4
144.4
144.4
144.4
144.4
144.4
144.4
144.4
144.4
144.4
144.4
144.4
144.4
144.4
144.4
144.4
144.4
144.4
144.4
144.4
144.4
144.4
144.4
144.4
144.4
144.4
144.4
144.4
144.4
144.4
144.4
144.4
144.4
144.4
144.4
144.4
144.4
144.4
144.4
144.4
144.4
144.4
144.4
144.4
144.4
144.4
144.4
144.4
144.4
144.4
144.4
144.4
144.4
144.4
144.4
144.4
144.4
144.4
144.4
144.4
144.4
144.4
144.4
144.4
144.4
144.4
144.4
144.4
144.4
144.4
144.4
144.4
144.4
144.4
144.4
144.4
144.4
144.4
144.4
144.4
144.4
144.4
144.4
144.4
144.4
144.4
144.4
144.4
144.4
144.4
144.4
144.4
144.4
144.4
144.4
144.4
144.4
144.4
144.4
144.4
144.4
144.4
144.4
144.4
144.4
144.4
144.4
144.4
144.4
144.4
144.4
144.4
144.4
144.4
144.4
144.4
144.4
144.4
144.4
144.4
144.4
144.4
144.4
144.4
144.4
144.4
144.4
144.4
144.4
144.4
144.4
144.4
144.4
144.4
144.4
144.4
144.4
144.4
144.4
144.4
144.4
144.4
144.4
144.4
144.4
144.4
144.4
144.4
144.4
144.4
144.4
144.4
144.4
144.4
144.4
144.4
144.4
144.4
144.4
144.4
144.4
144.4
144.4
144.4
144.4
144.4
144.4
144.4
144.4
144.4
144.4
144.4
144.4
144.4
144.4
144.4
144.4
144.4
144.4
144.4
144.4
144.4
144.4
144.4
144.4
144.4
144.4
144.4
144.4
144.4
144.4
144.4
144.4
144.4
144.4
144.4
144.4
144.4
144.4
144.4
144.4
144.4
144.4
144.4
144.4
144.4
144.4
144.4
144.4
144.4
144.4
144.4
144.4
144.4
144.4
144.4
144.4
144.4
144.4
144.4
144.4
144.4
144.4
144.4
144.4
144.4
144.4
144.4
144.4
144.4
144.4
144.4
144.4
144.4
144.4
144.4
144.4
144.4
144.4
144.4
144.4
144.4
144.4
144.4
144.4
144.4
144.4
144.4
144.4
144.4
144.4
144.4
144.4
144.4
144.4
144.4
144.4
144.4
144.4
144.4
144.4
144.4
144.4
144.4
144.4
144.4
144.4
144.4
144.4
144.4
144.4
144.4
144.4
144.4
144.4
144.4
144.4
144.4
144.4
144.4
144.4
144.4
144.4
144.4
144.4
144.4
144.4
144.4
144.4
144.4
144.4
144.4
144.4
144.4
144.4
144.4
144.4
144.4
144.4
144.4
144.4
144.4
144.4
144.4
144.4
144.4
144.4
144.4
144.4
144.4
144.4
144.4
144.4
144.4
144.4
144.4
144.4
144.4
144.4
144.4
144.4
144.4
144.4
144.4
144.4
144.4
144.4
144.4
144.4
144.4
144.4
144.4
144.4
144.4
144.4
144.4
144.4
144.4
144.4
144.4
144.4
144.4
144.4
144.4
144.4
144.4
144.4
144.4
144.4
144.4
144.4
144.4
144.4
144.4
144.4
144.4
144.4
144.4
144.4
144.4
144.4
144.4
144.4
144.4
144.4
144.4
144.4
144.4
144.4
144.4
144.4
144.4
144.4
144.4
144.4
144.4
144.4
144.4
144.4
144.4
144.4
144.4
144.4
144.4
144.4
144.4
144.4
144.4
144.4
144.4
144.4
144.4
144.4
144.4
144.4
144.4
144.4
144.4
144.4
144.4
144.4
144.4
144.4
144.4
144.4
144.4
144.4
144.4
144.4
144.4
144.4
144.4
144.4
144.4
144.4
144.4
144.4
144.4
144.4
144.4
144.4
144.4
144.4
144.4
144.4
144.4
144.4
144.4
144.4
144.4
144.4
144.4
144.4
144.4
144.4
144.4
144.4
144.4
144.4
144.4
144.4
144.4
144.4
144.4
144.4
144.4
144.4
144.4
144.4
144.4
144.4
144.4
144.4
144.4
144.4
144.4
144.4
144.4
144.4
144.4
144.4
144.4
144.4
144.4
144.4
144.4
144.4
144.4
144.4
144.4
144.4
144.4
144.4
144.4
144.4
144.4
144.4
144.4
144.4
144.4
144.4
144.4
144.4
144.4
144.4
144.4
144.4
144.4
144.4
144.4
144.4
144.4
144.4
144.4
144.4
144.4
144.4
144.4
144.4
144.4
144.4
144.4
144.4
144.4
144.4
144.4
144.4
144.4
144.4
144.4
144.4
144.4
144.4
144.4
144.4
144.4
144.4
144.4
144.4
144.4
144.4
144.4
144.4
144.4
144.4
144.4
144.4
144.4
144.4
144.4
144.4
144.4
144.4
144.4
144.4
144.4
144.4
144.4
144.4
144.4
144.4
144.4
144.4
144.4
144.4
144.4
144.4
144.4
144.4
144.4
144.4
144.4
144.4
144.4
144.4
144.4
144.4
144.4
144.4
144.4
144.4
144.4
144.401
144.401
144.401
144.401
144.401
144.401
144.401
144.401
144.401
144.401
144.401
144.401
144.402
144.402
144.402
144.402
144.402
144.402
144.402
144.402
144.403
144.403
144.403
144.403
144.403
144.403
144.403
144.403
144.403
144.403
144.402
144.402
144.402
144.402
144.402
144.402
144.402
144.402
144.401
144.401
144.4
144.4
144.4
144.4
144.4
144.4
144.4
144.4
144.4
144.4
144.4
144.4
144.4
144.4
144.4
144.4
144.4
144.4
144.4
144.4
144.4
144.4
144.4
144.4
144.4
144.4
144.4
144.4
144.4
144.4
144.4
144.4
144.4
144.4
144.4
144.4
144.4
144.4
144.4
144.4
144.4
144.4
144.4
144.4
144.4
144.4
144.4
144.4
144.4
144.4
144.4
144.4
144.4
144.401
144.401
144.401
144.401
144.401
144.401
144.401
144.401
144.401
144.401
144.402
144.402
144.402
144.402
144.402
144.403
144.403
144.403
144.404
144.404
144.405
144.405
144.406
144.407
144.407
144.408
144.409
144.41
144.411
144.412
144.413
144.414
144.416
144.417
144.419
144.42
144.422
144.424
144.425
144.426
144.428
144.429
144.43
144.431
144.432
144.432
144.432
144.433
144.432
144.432
144.431
144.43
144.429
144.428
144.427
144.425
144.424
144.422
144.42
144.418
144.417
144.415
144.4
144.4
144.4
144.4
144.4
144.4
144.4
144.4
144.4
144.4
144.4
144.4
144.4
144.4
144.4
144.4
144.4
144.4
144.4
144.4
144.4
144.4
144.4
144.4
144.4
144.4
144.4
144.4
144.4
144.4
144.4
144.4
144.4
144.401
144.401
144.401
144.401
144.401
144.401
144.401
144.401
144.402
144.402
144.402
144.402
144.402
144.403
144.403
144.403
144.404
144.404
144.405
144.405
144.406
144.407
144.408
144.409
144.41
144.411
144.412
144.413
144.415
144.417
144.418
144.42
144.423
144.425
144.428
144.432
144.436
144.44
144.445
144.45
144.456
144.462
144.469
144.476
144.484
144.492
144.501
144.511
144.522
144.535
144.55
144.565
144.582
144.599
144.617
144.635
144.652
144.669
144.686
144.702
144.717
144.73
144.742
144.752
144.759
144.765
144.768
144.768
144.766
144.761
144.754
144.744
144.732
144.718
144.703
144.686
144.668
144.649
144.63
144.61
144.59
144.57
144.551
144.4
144.4
144.4
144.4
144.4
144.4
144.4
144.4
144.4
144.4
144.4
144.4
144.4
144.4
144.4
144.4
144.4
144.4
144.4
144.4
144.4
144.4
144.401
144.401
144.401
144.401
144.401
144.401
144.401
144.401
144.402
144.402
144.402
144.402
144.403
144.403
144.404
144.404
144.405
144.405
144.406
144.407
144.408
144.409
144.41
144.412
144.413
144.415
144.417
144.419
144.422
144.424
144.428
144.431
144.435
144.439
144.443
144.448
144.454
144.46
144.468
144.476
144.486
144.496
144.508
144.521
144.535
144.549
144.565
144.583
144.602
144.624
144.649
144.678
144.712
144.75
144.793
144.841
144.893
144.949
145.008
145.072
145.139
145.209
145.284
145.363
145.45
145.548
145.658
145.781
145.916
146.057
146.204
146.352
146.498
146.642
146.781
146.915
147.042
147.161
147.269
147.366
147.449
147.519
147.573
147.61
147.628
147.629
147.612
147.577
147.525
147.455
147.368
147.266
147.15
147.022
146.883
146.735
146.577
146.413
146.245
146.075
145.907
144.4
144.4
144.4
144.4
144.4
144.4
144.4
144.401
144.401
144.401
144.401
144.401
144.401
144.401
144.402
144.402
144.402
144.403
144.403
144.403
144.404
144.405
144.405
144.406
144.407
144.408
144.41
144.411
144.413
144.415
144.417
144.42
144.423
144.426
144.43
144.434
144.439
144.445
144.451
144.458
144.466
144.475
144.485
144.496
144.509
144.524
144.54
144.559
144.581
144.605
144.632
144.661
144.693
144.727
144.764
144.805
144.851
144.903
144.961
145.028
145.104
145.188
145.281
145.382
145.492
145.609
145.734
145.865
146.004
146.153
146.314
146.495
146.7
146.931
147.188
147.469
147.77
148.088
148.417
148.755
149.098
149.447
149.798
150.152
150.509
150.873
151.254
151.665
152.108
152.574
153.048
153.518
153.975
154.41
154.819
155.202
155.559
155.889
156.194
156.469
156.713
156.925
157.103
157.247
157.358
157.429
157.459
157.452
157.409
157.329
157.208
157.047
156.846
156.606
156.329
156.017
155.669
155.284
154.859
154.396
153.896
153.363
152.802
144.402
144.402
144.402
144.403
144.403
144.404
144.404
144.405
144.406
144.407
144.409
144.41
144.412
144.414
144.417
144.42
144.423
144.427
144.431
144.436
144.442
144.449
144.456
144.465
144.476
144.488
144.501
144.517
144.534
144.554
144.576
144.602
144.632
144.666
144.705
144.749
144.799
144.855
144.918
144.987
145.063
145.147
145.24
145.345
145.463
145.597
145.746
145.912
146.094
146.292
146.505
146.731
146.969
147.218
147.479
147.756
148.057
148.385
148.744
149.133
149.548
149.987
150.443
150.911
151.387
151.865
152.345
152.823
153.303
153.788
154.293
154.832
155.412
156.026
156.665
157.315
157.966
158.608
159.237
159.847
160.438
161.011
161.567
162.107
162.633
163.15
163.676
164.23
164.804
165.382
165.947
166.486
166.994
167.466
167.901
168.301
168.669
169.006
169.314
169.589
169.831
170.036
170.206
170.341
170.442
170.502
170.513
170.493
170.436
170.338
170.197
170.012
169.785
169.515
169.202
168.848
168.452
168.01
167.516
166.969
166.369
165.718
165.015
144.416
144.419
144.423
144.427
144.433
144.439
144.446
144.454
144.464
144.475
144.489
144.504
144.523
144.544
144.568
144.596
144.628
144.665
144.708
144.757
144.813
144.878
144.952
145.037
145.133
145.242
145.364
145.499
145.649
145.817
146.003
146.213
146.447
146.707
146.994
147.308
147.648
148.011
148.396
148.799
149.219
149.661
150.13
150.629
151.162
151.727
152.319
152.933
153.563
154.201
154.84
155.476
156.103
156.723
157.337
157.96
158.606
159.278
159.975
160.687
161.406
162.123
162.829
163.52
164.19
164.837
165.462
166.067
166.656
167.237
167.829
168.45
169.099
169.764
170.431
171.089
171.73
172.348
172.941
173.509
174.054
174.578
175.083
175.572
176.045
176.506
176.968
177.45
177.937
178.413
178.871
179.306
179.714
180.095
180.448
180.774
181.076
181.355
181.611
181.841
182.042
182.212
182.351
182.461
182.543
182.583
182.582
182.554
182.493
182.392
182.25
182.068
181.846
181.584
181.279
180.935
180.552
180.124
179.647
179.117
178.537
177.907
177.226
176.491
175.694
144.559
144.59
144.626
144.669
144.719
144.776
144.843
144.921
145.01
145.114
145.234
145.371
145.528
145.705
145.905
146.128
146.376
146.651
146.956
147.294
147.666
148.075
148.52
149
149.512
150.054
150.621
151.211
151.824
152.464
153.135
153.838
154.572
155.332
156.112
156.907
157.708
158.509
159.303
160.086
160.86
161.635
162.423
163.229
164.049
164.878
165.707
166.529
167.337
168.124
168.884
169.616
170.319
170.994
171.651
172.308
172.98
173.666
174.359
175.048
175.726
176.388
177.027
177.641
178.229
178.79
179.328
179.846
180.348
180.84
181.339
181.861
182.394
182.927
183.454
183.971
184.474
184.962
185.433
185.887
186.327
186.757
187.177
187.588
187.989
188.381
188.767
189.154
189.538
189.913
190.274
190.62
190.948
191.257
191.546
191.815
192.066
192.299
192.511
192.701
192.866
193.004
193.114
193.199
193.261
193.277
193.266
193.228
193.158
193.053
192.913
192.735
192.52
192.266
191.971
191.644
191.281
190.879
190.431
189.935
189.397
188.816
188.19
187.517
186.792
145.813
146.058
146.335
146.647
146.996
147.382
147.808
148.275
148.786
149.341
149.939
150.579
151.257
151.969
152.709
153.474
154.262
155.076
155.915
156.782
157.673
158.585
159.512
160.449
161.387
162.322
163.248
164.162
165.072
165.986
166.909
167.841
168.776
169.71
170.635
171.545
172.434
173.297
174.13
174.932
175.71
176.479
177.253
178.03
178.807
179.575
180.329
181.064
181.774
182.456
183.108
183.728
184.32
184.885
185.432
185.979
186.537
187.097
187.652
188.196
188.728
189.245
189.745
190.227
190.69
191.135
191.566
191.986
192.396
192.8
193.203
193.613
194.026
194.439
194.849
195.254
195.652
196.042
196.424
196.795
197.159
197.519
197.874
198.222
198.564
198.897
199.223
199.545
199.862
200.174
200.478
200.772
201.054
201.322
201.576
201.813
202.035
202.24
202.426
202.592
202.737
202.857
202.952
203.026
203.076
203.081
203.066
203.024
202.95
202.845
202.707
202.534
202.324
202.075
201.786
201.468
201.117
200.729
200.298
199.82
199.306
198.755
198.161
197.522
196.836
151.499
152.321
153.185
154.085
155.014
155.968
156.943
157.94
158.959
159.997
161.052
162.12
163.194
164.269
165.34
166.401
167.448
168.486
169.521
170.557
171.592
172.624
173.647
174.658
175.651
176.621
177.564
178.477
179.362
180.231
181.094
181.955
182.81
183.655
184.484
185.295
186.082
186.843
187.574
188.274
188.943
189.588
190.228
190.87
191.509
192.137
192.753
193.354
193.939
194.505
195.051
195.574
196.074
196.555
197.018
197.468
197.912
198.357
198.799
199.237
199.667
200.09
200.503
200.906
201.297
201.675
202.041
202.399
202.75
203.096
203.437
203.774
204.11
204.447
204.783
205.119
205.453
205.784
206.111
206.433
206.749
207.06
207.369
207.677
207.981
208.28
208.574
208.862
209.145
209.423
209.698
209.966
210.229
210.484
210.728
210.96
211.18
211.386
211.576
211.75
211.906
212.044
212.159
212.253
212.327
212.376
212.384
212.372
212.334
212.265
212.165
212.034
211.869
211.669
211.426
211.145
210.835
210.494
210.117
209.694
209.225
208.724
208.19
207.615
206.994
206.323
164.666
165.9
167.131
168.353
169.563
170.756
171.935
173.104
174.264
175.416
176.554
177.676
178.777
179.853
180.901
181.919
182.906
183.869
184.82
185.759
186.686
187.597
188.489
189.359
190.206
191.026
191.817
192.577
193.31
194.027
194.743
195.451
196.148
196.831
197.499
198.152
198.788
199.405
200.001
200.574
201.126
201.661
202.186
202.709
203.227
203.738
204.241
204.735
205.219
205.691
206.149
206.589
207.014
207.425
207.824
208.214
208.596
208.972
209.344
209.711
210.073
210.428
210.777
211.118
211.448
211.768
212.078
212.382
212.683
212.979
213.273
213.563
213.85
214.136
214.422
214.707
214.991
215.276
215.559
215.84
216.117
216.389
216.662
216.935
217.207
217.478
217.746
218.012
218.274
218.534
218.79
219.042
219.29
219.532
219.764
219.986
220.197
220.396
220.579
220.747
220.9
221.036
221.15
221.246
221.324
221.377
221.39
221.384
221.352
221.29
221.197
221.073
220.917
220.724
220.49
220.217
219.916
219.583
219.213
218.798
218.336
217.841
217.317
216.754
216.146
215.485
214.773
214.027
180.57
181.802
183.005
184.174
185.309
186.408
187.48
188.53
189.561
190.571
191.557
192.517
193.451
194.356
195.232
196.077
196.892
197.686
198.471
199.243
199.999
200.738
201.46
202.164
202.853
203.523
204.172
204.8
205.407
206
206.588
207.17
207.745
208.312
208.871
209.422
209.963
210.492
211.005
211.501
211.983
212.454
212.915
213.37
213.82
214.265
214.704
215.136
215.56
215.975
216.377
216.763
217.135
217.497
217.85
218.196
218.534
218.866
219.192
219.512
219.827
220.135
220.438
220.735
221.024
221.303
221.573
221.836
222.095
222.351
222.606
222.859
223.111
223.362
223.614
223.865
224.118
224.372
224.626
224.881
225.132
225.379
225.626
225.874
226.122
226.372
226.622
226.872
227.12
227.367
227.613
227.855
228.095
228.33
228.557
228.773
228.982
229.178
229.358
229.525
229.68
229.816
229.931
230.03
230.112
230.169
230.189
230.186
230.16
230.103
230.017
229.9
229.749
229.562
229.334
229.071
228.778
228.453
228.088
227.677
227.219
226.728
226.209
225.655
225.054
224.4
223.696
222.953
195.54
196.58
197.587
198.561
199.5
200.407
201.289
202.155
203.001
203.825
204.627
205.407
206.166
206.905
207.625
208.322
208.998
209.656
210.303
210.94
211.568
212.187
212.796
213.396
213.986
214.566
215.132
215.681
216.216
216.739
217.256
217.767
218.274
218.777
219.274
219.765
220.25
220.725
221.185
221.63
222.063
222.489
222.908
223.32
223.727
224.129
224.525
224.915
225.298
225.674
226.039
226.391
226.729
227.055
227.373
227.682
227.985
228.283
228.574
228.86
229.141
229.417
229.688
229.954
230.214
230.467
230.71
230.945
231.173
231.398
231.622
231.844
232.067
232.29
232.514
232.74
232.968
233.197
233.43
233.663
233.896
234.127
234.357
234.587
234.819
235.053
235.289
235.527
235.765
236.003
236.24
236.476
236.71
236.94
237.163
237.378
237.584
237.778
237.957
238.125
238.281
238.416
238.532
238.635
238.719
238.777
238.801
238.799
238.777
238.724
238.642
238.527
238.38
238.195
237.972
237.717
237.43
237.108
236.745
236.335
235.88
235.392
234.878
234.327
233.729
233.079
232.38
231.639
208.505
209.353
210.176
210.976
211.752
212.504
213.236
213.953
214.655
215.344
216.019
216.681
217.331
217.97
218.598
219.21
219.805
220.384
220.953
221.514
222.069
222.619
223.162
223.701
224.233
224.758
225.269
225.765
226.248
226.724
227.195
227.661
228.123
228.583
229.038
229.489
229.936
230.375
230.803
231.217
231.619
232.012
232.398
232.778
233.153
233.523
233.889
234.249
234.603
234.952
235.293
235.624
235.943
236.249
236.543
236.827
237.103
237.373
237.638
237.896
238.15
238.398
238.643
238.884
239.119
239.349
239.572
239.787
239.993
240.196
240.395
240.593
240.791
240.991
241.192
241.396
241.602
241.812
242.025
242.241
242.458
242.675
242.892
243.11
243.329
243.551
243.776
244.003
244.231
244.46
244.69
244.919
245.147
245.371
245.59
245.803
246.007
246.197
246.374
246.541
246.695
246.828
246.944
247.048
247.131
247.187
247.209
247.208
247.185
247.132
247.051
246.937
246.788
246.603
246.383
246.13
245.845
245.523
245.157
244.746
244.291
243.807
243.294
242.743
242.144
241.494
240.796
240.056
239.278
220.545
221.255
221.951
222.632
223.297
223.943
224.573
225.19
225.798
226.398
226.99
227.573
228.15
228.718
229.273
229.811
230.334
230.85
231.359
231.865
232.366
232.864
233.359
233.85
234.336
234.813
235.276
235.727
236.171
236.609
237.042
237.472
237.9
238.325
238.747
239.167
239.582
239.99
240.389
240.776
241.152
241.519
241.877
242.23
242.578
242.92
243.258
243.59
243.917
244.238
244.551
244.855
245.147
245.427
245.694
245.952
246.202
246.444
246.681
246.912
247.137
247.358
247.576
247.789
247.997
248.201
248.397
248.587
248.771
248.951
249.128
249.306
249.484
249.665
249.848
250.035
250.226
250.421
250.62
250.823
251.027
251.232
251.439
251.647
251.858
252.072
252.289
252.508
252.728
252.949
253.171
253.391
253.607
253.82
254.028
254.227
254.412
254.585
254.749
254.897
255.024
255.137
255.237
255.315
255.364
255.38
255.376
255.35
255.293
255.208
255.09
254.936
254.747
254.525
254.27
253.981
253.653
253.282
252.865
252.411
251.927
251.413
250.857
250.252
249.597
248.898
248.157
247.379
230.783
231.421
232.048
232.665
233.268
233.851
234.419
234.976
235.526
236.071
236.61
237.144
237.673
238.197
238.712
239.213
239.701
240.18
240.653
241.122
241.588
242.052
242.514
242.974
243.432
243.886
244.332
244.769
245.197
245.617
246.03
246.44
246.846
247.251
247.652
248.051
248.448
248.84
249.227
249.604
249.973
250.33
250.677
251.016
251.349
251.675
251.996
252.31
252.619
252.922
253.219
253.508
253.787
254.055
254.31
254.554
254.788
255.013
255.23
255.441
255.646
255.846
256.041
256.232
256.419
256.602
256.781
256.953
257.12
257.283
257.443
257.601
257.761
257.922
258.087
258.255
258.427
258.605
258.787
258.974
259.165
259.358
259.554
259.751
259.951
260.154
260.36
260.568
260.779
260.99
261.201
261.412
261.619
261.824
262.023
262.213
262.39
262.556
262.711
262.849
262.968
263.073
263.165
263.232
263.267
263.272
263.264
263.229
263.163
263.068
262.941
262.778
262.581
262.351
262.087
261.788
261.45
261.068
260.645
260.188
259.701
259.178
258.611
257.996
257.334
256.63
255.887
255.106
240.897
241.47
242.036
242.592
243.132
243.657
244.172
244.68
245.183
245.681
246.176
246.668
247.158
247.644
248.123
248.592
249.052
249.505
249.952
250.396
250.837
251.276
251.714
252.152
252.587
253.02
253.447
253.867
254.28
254.685
255.085
255.48
255.871
256.259
256.645
257.027
257.406
257.781
258.15
258.511
258.862
259.203
259.534
259.857
260.172
260.479
260.78
261.073
261.36
261.641
261.914
262.178
262.433
262.676
262.907
263.127
263.336
263.537
263.729
263.915
264.094
264.269
264.438
264.604
264.766
264.925
265.079
265.229
265.374
265.516
265.658
265.799
265.942
266.088
266.238
266.392
266.552
266.717
266.889
267.065
267.245
267.427
267.613
267.801
267.992
268.185
268.381
268.579
268.779
268.978
269.176
269.371
269.563
269.75
269.926
270.092
270.247
270.388
270.512
270.618
270.71
270.787
270.836
270.85
270.846
270.825
270.776
270.695
270.584
270.442
270.264
270.053
269.809
269.53
269.216
268.862
268.467
268.034
267.569
267.071
266.533
265.95
265.322
264.65
263.938
263.189
262.403
250.335
250.859
251.378
251.89
252.39
252.881
253.363
253.839
254.311
254.779
255.245
255.709
256.172
256.633
257.089
257.539
257.982
258.419
258.852
259.28
259.707
260.132
260.555
260.978
261.399
261.817
262.231
262.64
263.042
263.437
263.827
264.211
264.591
264.966
265.338
265.707
266.071
266.429
266.782
267.127
267.462
267.786
268.101
268.407
268.704
268.992
269.272
269.545
269.809
270.066
270.314
270.554
270.782
271
271.205
271.4
271.584
271.759
271.926
272.085
272.239
272.388
272.532
272.673
272.81
272.944
273.075
273.202
273.327
273.45
273.574
273.698
273.826
273.957
274.094
274.235
274.383
274.537
274.697
274.862
275.03
275.202
275.376
275.553
275.733
275.914
276.097
276.281
276.465
276.647
276.826
277.002
277.171
277.331
277.48
277.618
277.741
277.846
277.934
278.007
278.061
278.082
278.078
278.059
278.018
277.945
277.842
277.711
277.547
277.348
277.116
276.852
276.552
276.216
275.843
275.43
274.983
274.502
273.984
273.426
272.824
272.18
271.494
270.771
270.012
269.215
268.379
267.5
258.752
259.245
259.735
260.222
260.704
261.179
261.647
262.108
262.565
263.018
263.469
263.917
264.364
264.81
265.255
265.696
266.134
266.566
266.994
267.417
267.837
268.254
268.67
269.083
269.496
269.906
270.313
270.717
271.116
271.508
271.894
272.274
272.649
273.018
273.382
273.741
274.095
274.444
274.787
275.123
275.45
275.767
276.074
276.371
276.658
276.935
277.202
277.46
277.71
277.95
278.182
278.404
278.616
278.817
279.007
279.186
279.353
279.51
279.658
279.798
279.931
280.059
280.181
280.3
280.415
280.528
280.638
280.746
280.852
280.957
281.061
281.167
281.276
281.388
281.506
281.629
281.758
281.893
282.035
282.182
282.334
282.49
282.648
282.809
282.971
283.136
283.301
283.466
283.63
283.793
283.951
284.106
284.253
284.391
284.518
284.633
284.733
284.813
284.876
284.923
284.945
284.94
284.915
284.869
284.799
284.697
284.565
284.406
284.214
283.987
283.728
283.437
283.109
282.747
282.349
281.914
281.444
280.94
280.397
279.814
279.19
278.526
277.823
277.085
276.311
275.5
274.649
273.758
266.789
267.262
267.732
268.2
268.666
269.129
269.587
270.04
270.489
270.934
271.376
271.815
272.253
272.689
273.124
273.558
273.99
274.418
274.843
275.263
275.68
276.093
276.504
276.912
277.317
277.721
278.122
278.519
278.913
279.301
279.684
280.06
280.429
280.792
281.149
281.501
281.846
282.185
282.517
282.843
283.16
283.467
283.765
284.052
284.328
284.593
284.848
285.092
285.325
285.549
285.763
285.968
286.161
286.345
286.517
286.677
286.827
286.965
287.094
287.213
287.325
287.431
287.531
287.627
287.72
287.81
287.898
287.985
288.07
288.155
288.24
288.326
288.415
288.508
288.605
288.708
288.817
288.932
289.054
289.181
289.314
289.45
289.589
289.731
289.873
290.017
290.161
290.303
290.444
290.582
290.716
290.844
290.964
291.075
291.174
291.26
291.33
291.38
291.413
291.422
291.412
291.379
291.321
291.24
291.133
290.996
290.83
290.636
290.409
290.148
289.855
289.529
289.169
288.774
288.345
287.881
287.382
286.847
286.275
285.664
285.014
284.326
283.603
282.844
282.05
281.221
280.352
279.445
274.951
275.409
275.865
276.319
276.771
277.221
277.668
278.111
278.551
278.988
279.422
279.854
280.284
280.713
281.14
281.566
281.99
282.411
282.828
283.242
283.652
284.059
284.462
284.863
285.26
285.654
286.045
286.432
286.815
287.192
287.562
287.926
288.283
288.633
288.976
289.312
289.64
289.962
290.276
290.581
290.877
291.163
291.438
291.702
291.954
292.195
292.424
292.641
292.848
293.044
293.229
293.403
293.566
293.719
293.86
293.989
294.108
294.216
294.314
294.404
294.487
294.564
294.637
294.706
294.773
294.838
294.901
294.965
295.028
295.092
295.157
295.225
295.296
295.372
295.453
295.54
295.633
295.732
295.837
295.948
296.062
296.178
296.297
296.416
296.535
296.653
296.769
296.882
296.991
297.095
297.191
297.279
297.356
297.421
297.471
297.506
297.517
297.511
297.487
297.438
297.365
297.267
297.145
296.995
296.816
296.608
296.372
296.103
295.801
295.468
295.103
294.704
294.271
293.805
293.305
292.77
292.2
291.594
290.951
290.272
289.557
288.808
288.025
287.208
286.355
285.466
284.541
282.34
282.79
283.238
283.684
284.128
284.57
285.011
285.449
285.885
286.318
286.748
287.176
287.602
288.025
288.447
288.868
289.286
289.702
290.115
290.525
290.931
291.333
291.732
292.127
292.518
292.906
293.29
293.669
294.044
294.413
294.776
295.132
295.482
295.823
296.157
296.482
296.8
297.11
297.411
297.703
297.986
298.258
298.519