/*--------------------------------*- C++ -*----------------------------------*\
| =========                 |                                                 |
| \\      /  F ield         | OpenFOAM: The Open Source CFD Toolbox           |
|  \\    /   O peration     | Version:  v1706                                 |
|   \\  /    A nd           | Web:      www.OpenFOAM.com                      |
|    \\/     M anipulation  |                                                 |
\*---------------------------------------------------------------------------*/
FoamFile
{
    version     2.0;
    format      ascii;
    class       volVectorField;
    location    "1.4e-05";
    object      U;
}
// * * * * * * * * * * * * * * * * * * * * * * * * * * * * * * * * * * * * * //

dimensions      [0 1 -1 0 0 0 0];


internalField   nonuniform List<vector> 
29871
(
(2764.5 -3.90542e-11 6.63384e-15)
(2764.5 -3.8301e-11 3.72078e-15)
(2764.5 -3.72906e-11 3.52574e-15)
(2764.5 -3.72646e-11 3.42505e-15)
(2764.5 -3.68752e-11 1.86067e-15)
(2764.5 -3.57362e-11 1.96761e-15)
(2764.5 -3.41343e-11 2.68099e-15)
(2764.5 -3.36167e-11 3.02332e-15)
(2764.5 -3.50366e-11 3.6792e-15)
(2764.5 -3.64172e-11 3.61768e-15)
(2764.5 -3.74904e-11 3.83877e-15)
(2764.5 -3.99861e-11 5.68429e-15)
(2764.5 -4.19726e-11 4.90663e-15)
(2764.5 -4.25889e-11 5.15198e-15)
(2764.5 -4.28466e-11 4.55406e-15)
(2764.5 -4.16223e-11 2.79896e-15)
(2764.5 -4.0022e-11 2.96488e-15)
(2764.5 -4.02808e-11 3.40428e-15)
(2764.5 -4.03043e-11 4.62078e-15)
(2764.5 -4.0085e-11 4.45675e-15)
(2764.5 -4.03766e-11 2.73056e-15)
(2764.5 -4.03264e-11 3.02035e-15)
(2764.5 -4.02214e-11 1.87779e-15)
(2764.5 -4.02149e-11 3.00372e-15)
(2764.5 -4.03518e-11 4.45345e-15)
(2764.5 -3.829e-11 3.41503e-15)
(2764.5 -3.58498e-11 6.28366e-15)
(2764.5 -3.19174e-11 2.76155e-15)
(2764.5 -2.96924e-11 1.52621e-15)
(2764.5 -2.9857e-11 3.70099e-15)
(2764.5 -3.14461e-11 3.70093e-15)
(2764.5 -3.27054e-11 2.20448e-15)
(2764.5 -3.70652e-11 2.7816e-15)
(2764.5 -4.137e-11 6.76107e-15)
(2764.5 -4.55507e-11 4.34824e-15)
(2764.5 -5.12299e-11 4.87986e-16)
(2764.5 -5.44809e-11 6.97962e-16)
(2764.5 -5.62863e-11 3.16973e-15)
(2764.5 -5.87015e-11 3.68096e-15)
(2764.5 -6.10988e-11 4.23392e-15)
(2764.5 -6.32629e-11 5.46239e-15)
(2764.5 -6.59469e-11 6.42876e-15)
(2764.5 -7.03264e-11 6.14423e-15)
(2764.5 -7.20582e-11 3.67449e-15)
(2764.5 -7.30547e-11 3.35426e-15)
(2764.5 -7.17591e-11 4.16105e-15)
(2764.5 -6.92844e-11 2.76907e-15)
(2764.5 -6.31454e-11 3.89887e-16)
(2764.5 -5.52547e-11 1.18554e-15)
(2764.5 -4.81316e-11 3.82718e-15)
(2764.5 -3.26892e-11 4.65993e-15)
(2764.5 -1.6419e-11 8.76925e-16)
(2764.5 -9.84974e-12 7.93914e-16)
(2764.5 -6.78116e-12 3.97875e-15)
(2764.5 -5.27333e-12 3.22511e-15)
(2764.5 -1.79085e-12 3.55481e-15)
(2764.5 1.76819e-12 4.10846e-15)
(2764.5 5.3693e-12 5.06992e-15)
(2764.5 8.5039e-12 4.6488e-15)
(2764.5 1.28527e-11 3.30231e-15)
(2764.5 1.54463e-11 1.54835e-15)
(2764.5 1.62007e-11 9.4515e-16)
(2764.5 1.31592e-11 2.14582e-15)
(2764.5 9.16208e-12 -9.51967e-16)
(2764.5 3.68424e-13 2.9124e-15)
(2764.5 -1.39419e-11 5.92042e-15)
(2764.5 -2.53117e-11 3.75206e-15)
(2764.5 -3.48217e-11 3.16208e-15)
(2764.5 -5.148e-11 1.79478e-15)
(2764.5 -6.40101e-11 2.17004e-15)
(2764.5 -7.43868e-11 3.31249e-15)
(2764.5 -8.51848e-11 4.5388e-15)
(2764.5 -9.48772e-11 1.9134e-15)
(2764.5 -1.00076e-10 2.93995e-15)
(2764.5 -1.06724e-10 2.7003e-15)
(2764.5 -1.15332e-10 4.89566e-15)
(2764.5 -1.2459e-10 1.62358e-15)
(2764.5 -1.36135e-10 2.34643e-15)
(2764.5 -1.44805e-10 2.16367e-15)
(2764.5 -1.50406e-10 4.49665e-15)
(2764.5 -1.47032e-10 4.91779e-15)
(2764.5 -1.37706e-10 3.16061e-15)
(2764.5 -1.27782e-10 5.00836e-15)
(2764.5 -1.1373e-10 2.86491e-15)
(2764.5 -9.8341e-11 4.28164e-15)
(2764.5 -8.5781e-11 4.09188e-15)
(2764.5 -7.16206e-11 2.69085e-15)
(2764.5 -5.62005e-11 3.67853e-15)
(2764.5 -4.418e-11 5.04561e-15)
(2764.5 -2.75572e-11 3.84428e-15)
(2764.5 -3.58571e-12 3.88526e-15)
(2764.5 1.35884e-11 1.44002e-15)
(2764.5 2.57531e-11 2.17213e-15)
(2764.5 3.79185e-11 3.95156e-15)
(2764.5 4.17676e-11 2.13087e-15)
(2764.5 4.15343e-11 1.86192e-15)
(2764.5 4.15378e-11 2.04768e-15)
(2764.5 3.98219e-11 2.21542e-15)
(2764.5 3.91766e-11 2.44796e-15)
(2764.5 4.1808e-11 2.69557e-15)
(2764.5 4.39335e-11 3.74533e-15)
(2764.5 4.89018e-11 2.71271e-15)
(2764.5 5.07581e-11 1.53734e-15)
(2764.5 4.86655e-11 2.28857e-15)
(2764.5 4.50106e-11 -1.2962e-16)
(2764.5 -1.19088e-10 9.89144e-15)
(2764.5 -1.21539e-10 8.23455e-15)
(2764.5 -1.19974e-10 1.3183e-14)
(2764.5 -1.18728e-10 1.36152e-14)
(2764.5 -1.18748e-10 1.09901e-14)
(2764.5 -1.19192e-10 1.22155e-14)
(2764.5 -1.19399e-10 1.27055e-14)
(2764.5 -1.19737e-10 1.1508e-14)
(2764.5 -1.16867e-10 1.13293e-14)
(2764.5 -1.14451e-10 1.26243e-14)
(2764.5 -1.11746e-10 1.22158e-14)
(2764.5 -1.06682e-10 1.12277e-14)
(2764.5 -1.06361e-10 1.25027e-14)
(2764.5 -1.05461e-10 1.09757e-14)
(2764.5 -1.09194e-10 5.54303e-15)
(2764.5 -1.14819e-10 8.22601e-15)
(2764.5 -1.18383e-10 1.07533e-14)
(2764.5 -1.20506e-10 1.10219e-14)
(2764.5 -1.21273e-10 1.09998e-14)
(2764.5 -1.20766e-10 7.85892e-15)
(2764.5 -1.21991e-10 8.45939e-15)
(2764.5 -1.2226e-10 9.17001e-15)
(2764.5 -1.23659e-10 1.17674e-14)
(2764.5 -1.24777e-10 1.45039e-14)
(2764.5 -1.2774e-10 1.10075e-14)
(2764.5 -1.3525e-10 1.13088e-14)
(2764.5 -1.38317e-10 1.17653e-14)
(2764.5 -1.42993e-10 1.0839e-14)
(2764.5 -1.45479e-10 1.17758e-14)
(2764.5 -1.41899e-10 9.90711e-15)
(2764.5 -1.36781e-10 1.3999e-14)
(2764.5 -1.26854e-10 6.64381e-15)
(2764.5 -1.14213e-10 8.51757e-15)
(2764.5 -1.05164e-10 1.37406e-14)
(2764.5 -9.42648e-11 1.18096e-14)
(2764.5 -8.84814e-11 1.30418e-14)
(2764.5 -8.38064e-11 7.6489e-15)
(2764.5 -8.11339e-11 1.11979e-14)
(2764.5 -7.6343e-11 1.03185e-14)
(2764.5 -6.86982e-11 1.14671e-14)
(2764.5 -6.34685e-11 1.19081e-14)
(2764.5 -5.71757e-11 1.02899e-14)
(2764.5 -5.75546e-11 1.04749e-14)
(2764.5 -5.9044e-11 1.02355e-14)
(2764.5 -6.32912e-11 9.82664e-15)
(2764.5 -7.21962e-11 1.08351e-14)
(2764.5 -8.99461e-11 1.13313e-14)
(2764.5 -1.03936e-10 8.24359e-15)
(2764.5 -1.17808e-10 1.03721e-14)
(2764.5 -1.38868e-10 1.09388e-14)
(2764.5 -1.65606e-10 5.67424e-15)
(2764.5 -1.79145e-10 1.06358e-14)
(2764.5 -1.81993e-10 1.21326e-14)
(2764.5 -1.83769e-10 1.0558e-14)
(2764.5 -1.84971e-10 1.07588e-14)
(2764.5 -1.97456e-10 1.01041e-14)
(2764.5 -2.05604e-10 1.11681e-14)
(2764.5 -2.16542e-10 1.35988e-14)
(2764.5 -2.26879e-10 7.64239e-15)
(2764.5 -2.34189e-10 6.82905e-15)
(2764.5 -2.36911e-10 9.29883e-15)
(2764.5 -2.32967e-10 6.43127e-15)
(2764.5 -2.21553e-10 7.93001e-15)
(2764.5 -2.03392e-10 5.79875e-15)
(2764.5 -1.776e-10 7.91214e-15)
(2764.5 -1.44675e-10 8.15502e-15)
(2764.5 -1.14544e-10 5.94643e-15)
(2764.5 -8.15938e-11 8.27191e-15)
(2764.5 -5.93588e-11 1.01779e-14)
(2764.5 -2.98231e-11 6.4675e-15)
(2764.5 -2.51625e-13 9.8537e-15)
(2764.5 1.8486e-11 8.63474e-15)
(2764.5 3.7722e-11 4.47743e-15)
(2764.5 5.15253e-11 9.00676e-15)
(2764.5 6.56924e-11 7.0704e-15)
(2764.5 8.63701e-11 7.78018e-15)
(2764.5 1.04202e-10 6.40311e-15)
(2764.5 1.1995e-10 8.25828e-15)
(2764.5 1.23026e-10 7.04849e-15)
(2764.5 1.18438e-10 9.99337e-15)
(2764.5 9.87599e-11 9.08127e-15)
(2764.5 7.73091e-11 8.52297e-15)
(2764.5 5.48163e-11 9.14101e-15)
(2764.5 2.42945e-11 1.01736e-14)
(2764.5 -4.19418e-12 1.03264e-14)
(2764.5 -2.44302e-11 1.13298e-14)
(2764.5 -5.07359e-11 1.19093e-14)
(2764.5 -7.57518e-11 9.62443e-15)
(2764.5 -1.00616e-10 1.10437e-14)
(2764.5 -1.21781e-10 9.731e-15)
(2764.5 -1.69579e-10 1.28584e-14)
(2764.5 -2.01757e-10 6.88514e-15)
(2764.5 -2.24054e-10 1.19076e-14)
(2764.5 -2.39717e-10 1.20497e-14)
(2764.5 -2.44217e-10 8.65139e-15)
(2764.5 -2.49634e-10 8.77121e-15)
(2764.5 -2.55436e-10 8.60848e-15)
(2764.5 -2.59273e-10 1.05159e-14)
(2764.5 -2.66009e-10 1.05261e-14)
(2764.5 -2.74972e-10 5.64097e-15)
(2764.5 -2.78352e-10 7.12242e-15)
(2764.5 -2.82252e-10 9.29267e-15)
(2764.5 -2.79955e-10 6.99258e-15)
(2764.5 -2.69858e-10 8.92628e-15)
(2764.5 -2.56755e-10 6.68894e-15)
(2764.5 -2.11466e-10 2.30326e-14)
(2764.5 -2.07629e-10 2.39643e-14)
(2764.5 -2.07741e-10 1.72225e-14)
(2764.5 -2.0744e-10 2.09844e-14)
(2764.5 -2.06437e-10 2.35696e-14)
(2764.5 -2.04514e-10 1.93664e-14)
(2764.5 -2.04861e-10 2.03167e-14)
(2764.5 -2.04244e-10 1.89461e-14)
(2764.5 -2.02408e-10 2.31933e-14)
(2764.5 -2.03093e-10 2.17222e-14)
(2764.5 -2.05206e-10 1.81033e-14)
(2764.5 -2.11274e-10 1.92113e-14)
(2764.5 -2.11537e-10 1.25537e-14)
(2764.5 -2.07555e-10 1.60749e-14)
(2764.5 -2.05382e-10 1.85338e-14)
(2764.5 -2.05402e-10 1.82889e-14)
(2764.5 -2.043e-10 1.72628e-14)
(2764.5 -2.02087e-10 1.79768e-14)
(2764.5 -1.99136e-10 1.66326e-14)
(2764.5 -1.98333e-10 1.68809e-14)
(2764.5 -1.93915e-10 1.70288e-14)
(2764.5 -1.85939e-10 1.34153e-14)
(2764.5 -1.79865e-10 1.48539e-14)
(2764.5 -1.72902e-10 2.02241e-14)
(2764.5 -1.6213e-10 1.40468e-14)
(2764.5 -1.54407e-10 1.64687e-14)
(2764.5 -1.50625e-10 1.89743e-14)
(2764.5 -1.52583e-10 1.79244e-14)
(2764.5 -1.56453e-10 1.70252e-14)
(2764.5 -1.66864e-10 1.80188e-14)
(2764.5 -1.82534e-10 1.71959e-14)
(2764.5 -2.00097e-10 1.90825e-14)
(2764.5 -2.13351e-10 1.78156e-14)
(2764.5 -2.23502e-10 1.85161e-14)
(2764.5 -2.32343e-10 1.90271e-14)
(2764.5 -2.42235e-10 1.90624e-14)
(2764.5 -2.48107e-10 1.96304e-14)
(2764.5 -2.58482e-10 1.87083e-14)
(2764.5 -2.67373e-10 1.78488e-14)
(2764.5 -2.76443e-10 1.96295e-14)
(2764.5 -2.83869e-10 1.91561e-14)
(2764.5 -2.84138e-10 1.78906e-14)
(2764.5 -2.79161e-10 1.75952e-14)
(2764.5 -2.73279e-10 1.67357e-14)
(2764.5 -2.59118e-10 1.74414e-14)
(2764.5 -2.42746e-10 1.63845e-14)
(2764.5 -2.22534e-10 1.83381e-14)
(2764.5 -2.04996e-10 1.82587e-14)
(2764.5 -1.8164e-10 1.50773e-14)
(2764.5 -1.59573e-10 1.50554e-14)
(2764.5 -1.45672e-10 1.29206e-14)
(2764.5 -1.31973e-10 1.55483e-14)
(2764.5 -1.18623e-10 1.36365e-14)
(2764.5 -1.0785e-10 1.2032e-14)
(2764.5 -9.09643e-11 1.29796e-14)
(2764.5 -7.03589e-11 1.71576e-14)
(2764.5 -4.72816e-11 1.32018e-14)
(2764.5 -2.77234e-11 1.75362e-14)
(2764.5 -1.43164e-11 2.00799e-14)
(2764.5 -1.28607e-11 1.51018e-14)
(2764.5 -1.98309e-11 1.43747e-14)
(2764.5 -3.64924e-11 1.34331e-14)
(2764.5 -6.36664e-11 1.41016e-14)
(2764.5 -1.02339e-10 1.99517e-14)
(2764.5 -1.36547e-10 1.5217e-14)
(2764.5 -1.81737e-10 1.53846e-14)
(2764.5 -2.24746e-10 1.52109e-14)
(2764.5 -2.60693e-10 1.52183e-14)
(2764.5 -2.92482e-10 1.53973e-14)
(2764.5 -3.18858e-10 1.59563e-14)
(2764.5 -3.34592e-10 1.48218e-14)
(2764.5 -3.53846e-10 1.72969e-14)
(2764.5 -3.8076e-10 1.39566e-14)
(2764.5 -3.96492e-10 1.48385e-14)
(2764.5 -4.10851e-10 1.5724e-14)
(2764.5 -4.18001e-10 1.25537e-14)
(2764.5 -4.366e-10 1.61958e-14)
(2764.5 -4.51941e-10 1.64905e-14)
(2764.5 -4.52432e-10 1.39047e-14)
(2764.5 -4.46257e-10 1.2887e-14)
(2764.5 -4.29523e-10 1.574e-14)
(2764.5 -4.19672e-10 1.51229e-14)
(2764.5 -4.07102e-10 1.57761e-14)
(2764.5 -3.88169e-10 1.45057e-14)
(2764.5 -3.70123e-10 1.62634e-14)
(2764.5 -3.43013e-10 1.91096e-14)
(2764.5 -2.95676e-10 1.64359e-14)
(2764.5 -2.38198e-10 1.30231e-14)
(2764.5 -1.97613e-10 1.71526e-14)
(2764.5 -1.69594e-10 1.65082e-14)
(2764.5 -1.33539e-10 1.56168e-14)
(2764.5 -8.3226e-11 1.69257e-14)
(2764.5 -4.80214e-11 1.42357e-14)
(2764.5 -2.21663e-11 1.60709e-14)
(2764.5 9.61136e-13 1.68685e-14)
(2764.5 1.47409e-11 1.57893e-14)
(2764.5 2.47338e-11 1.30683e-14)
(2764.5 2.7105e-11 1.51293e-14)
(2764.5 3.1826e-11 1.46382e-14)
(2764.5 2.85661e-11 1.22874e-14)
(2764.5 1.88192e-11 1.28962e-14)
(2764.5 6.3284e-12 1.33826e-14)
(2764.5 -6.52187e-12 1.35249e-14)
(2764.5 -2.39395e-11 1.35988e-14)
(2764.5 -4.99781e-11 1.40932e-14)
(2764.5 -8.51645e-11 1.37095e-14)
(2764.5 -3.05523e-10 2.73038e-14)
(2764.5 -3.08223e-10 3.78109e-14)
(2764.5 -3.06993e-10 2.65355e-14)
(2764.5 -3.04512e-10 2.80816e-14)
(2764.5 -3.02925e-10 2.85565e-14)
(2764.5 -2.99389e-10 2.62693e-14)
(2764.5 -2.89661e-10 3.02296e-14)
(2764.5 -2.82876e-10 2.88813e-14)
(2764.5 -2.76534e-10 2.42366e-14)
(2764.5 -2.61691e-10 2.24059e-14)
(2764.5 -2.50376e-10 2.61782e-14)
(2764.5 -2.4918e-10 2.57877e-14)
(2764.5 -2.52442e-10 2.57184e-14)
(2764.5 -2.54182e-10 2.54614e-14)
(2764.5 -2.55841e-10 2.69038e-14)
(2764.5 -2.59187e-10 2.40395e-14)
(2764.5 -2.62003e-10 2.32122e-14)
(2764.5 -2.73954e-10 2.45186e-14)
(2764.5 -2.84342e-10 2.37283e-14)
(2764.5 -2.98679e-10 2.54184e-14)
(2764.5 -3.1287e-10 2.26685e-14)
(2764.5 -3.2516e-10 2.67115e-14)
(2764.5 -3.41142e-10 2.87658e-14)
(2764.5 -3.52046e-10 2.49651e-14)
(2764.5 -3.53388e-10 2.46959e-14)
(2764.5 -3.52665e-10 2.46366e-14)
(2764.5 -3.41817e-10 2.7079e-14)
(2764.5 -3.2518e-10 2.56367e-14)
(2764.5 -3.04176e-10 2.06425e-14)
(2764.5 -2.76177e-10 2.41626e-14)
(2764.5 -2.54291e-10 2.33952e-14)
(2764.5 -2.37813e-10 2.48905e-14)
(2764.5 -2.22035e-10 2.28842e-14)
(2764.5 -2.03095e-10 2.52675e-14)
(2764.5 -1.84004e-10 2.55988e-14)
(2764.5 -1.69815e-10 2.53895e-14)
(2764.5 -1.5532e-10 2.67194e-14)
(2764.5 -1.41954e-10 2.36013e-14)
(2764.5 -1.32132e-10 2.3718e-14)
(2764.5 -1.23683e-10 2.15363e-14)
(2764.5 -1.24223e-10 2.3166e-14)
(2764.5 -1.31421e-10 2.70389e-14)
(2764.5 -1.43452e-10 2.41309e-14)
(2764.5 -1.65272e-10 2.53989e-14)
(2764.5 -1.96463e-10 2.74429e-14)
(2764.5 -2.35052e-10 2.45591e-14)
(2764.5 -2.61409e-10 2.33185e-14)
(2764.5 -2.88432e-10 2.27776e-14)
(2764.5 -3.26771e-10 2.84689e-14)
(2764.5 -3.55712e-10 2.5207e-14)
(2764.5 -3.78985e-10 2.19566e-14)
(2764.5 -4.02203e-10 2.28397e-14)
(2764.5 -4.37933e-10 2.25345e-14)
(2764.5 -4.68073e-10 2.61252e-14)
(2764.5 -5.02469e-10 2.12818e-14)
(2764.5 -5.24351e-10 2.12251e-14)
(2764.5 -5.36146e-10 2.37351e-14)
(2764.5 -5.45374e-10 2.45983e-14)
(2764.5 -5.50911e-10 2.28259e-14)
(2764.5 -5.42999e-10 2.22929e-14)
(2764.5 -5.17796e-10 2.40856e-14)
(2764.5 -4.59699e-10 2.11901e-14)
(2764.5 -4.1768e-10 2.00967e-14)
(2764.5 -3.7124e-10 2.03947e-14)
(2764.5 -3.27876e-10 1.98348e-14)
(2764.5 -2.63219e-10 2.00409e-14)
(2764.5 -1.83382e-10 1.99669e-14)
(2764.5 -1.28292e-10 2.00863e-14)
(2764.5 -8.28036e-11 1.96226e-14)
(2764.5 -3.58537e-11 1.99494e-14)
(2764.5 -9.03166e-12 2.1e-14)
(2764.5 3.60096e-11 2.11594e-14)
(2764.5 6.67815e-11 2.09912e-14)
(2764.5 9.92083e-11 2.2333e-14)
(2764.5 1.55869e-10 1.92979e-14)
(2764.5 1.83348e-10 1.83565e-14)
(2764.5 2.22001e-10 2.15009e-14)
(2764.5 2.54005e-10 2.10964e-14)
(2764.5 2.58929e-10 2.07187e-14)
(2764.5 2.47127e-10 2.42614e-14)
(2764.5 2.12615e-10 2.38163e-14)
(2764.5 1.71553e-10 2.03969e-14)
(2764.5 1.36389e-10 1.89182e-14)
(2764.5 1.14239e-10 1.98264e-14)
(2764.5 8.6238e-11 2.15607e-14)
(2764.5 3.25722e-11 1.67988e-14)
(2764.5 -3.54436e-11 1.73985e-14)
(2764.5 -1.6494e-10 2.32646e-14)
(2764.5 -3.12488e-10 2.26584e-14)
(2764.5 -3.91068e-10 1.91505e-14)
(2764.5 -4.0939e-10 2.0078e-14)
(2764.5 -4.40791e-10 2.05635e-14)
(2764.5 -4.84599e-10 2.10361e-14)
(2764.5 -5.13212e-10 2.28992e-14)
(2764.5 -5.24203e-10 1.89925e-14)
(2764.5 -5.27521e-10 1.94873e-14)
(2764.5 -5.24878e-10 2.28073e-14)
(2764.5 -5.22028e-10 2.32542e-14)
(2764.5 -5.1552e-10 1.79802e-14)
(2764.5 -5.02827e-10 2.07211e-14)
(2764.5 -5.04196e-10 2.06175e-14)
(2764.5 -5.04516e-10 1.94246e-14)
(2764.5 -4.88052e-10 2.00195e-14)
(2764.5 -4.65728e-10 1.89408e-14)
(2764.5 -4.13683e-10 1.75574e-14)
(2764.5 -2.96936e-10 1.82348e-14)
(2764.5 -3.58475e-10 3.57259e-14)
(2764.5 -3.5596e-10 3.70709e-14)
(2764.5 -3.63126e-10 3.67175e-14)
(2764.5 -3.68894e-10 3.36807e-14)
(2764.5 -3.81372e-10 3.83539e-14)
(2764.5 -3.90841e-10 3.66361e-14)
(2764.5 -4.02252e-10 3.58915e-14)
(2764.5 -4.07128e-10 3.79347e-14)
(2764.5 -4.17936e-10 3.94599e-14)
(2764.5 -4.30519e-10 3.82964e-14)
(2764.5 -4.31742e-10 3.63612e-14)
(2764.5 -4.28897e-10 3.55052e-14)
(2764.5 -4.18519e-10 3.68196e-14)
(2764.5 -4.07143e-10 3.3983e-14)
(2764.5 -3.91618e-10 3.18409e-14)
(2764.5 -3.71464e-10 3.58091e-14)
(2764.5 -3.54303e-10 3.36426e-14)
(2764.5 -3.3591e-10 3.61406e-14)
(2764.5 -3.11001e-10 3.65976e-14)
(2764.5 -2.85552e-10 3.16889e-14)
(2764.5 -2.6525e-10 3.27027e-14)
(2764.5 -2.50777e-10 3.04674e-14)
(2764.5 -2.38604e-10 3.30818e-14)
(2764.5 -2.34218e-10 3.62126e-14)
(2764.5 -2.41279e-10 3.39217e-14)
(2764.5 -2.59404e-10 3.25449e-14)
(2764.5 -2.77484e-10 3.54991e-14)
(2764.5 -3.13581e-10 3.03226e-14)
(2764.5 -3.5534e-10 2.85336e-14)
(2764.5 -3.8403e-10 3.20391e-14)
(2764.5 -4.13858e-10 3.26719e-14)
(2764.5 -4.4096e-10 3.27882e-14)
(2764.5 -4.56743e-10 3.29779e-14)
(2764.5 -4.82044e-10 3.23165e-14)
(2764.5 -5.01201e-10 3.30881e-14)
(2764.5 -5.24853e-10 3.16921e-14)
(2764.5 -5.37811e-10 3.43871e-14)
(2764.5 -5.49881e-10 3.62834e-14)
(2764.5 -5.74998e-10 2.83482e-14)
(2764.5 -5.82475e-10 2.90189e-14)
(2764.5 -5.81922e-10 3.25615e-14)
(2764.5 -5.67703e-10 3.36797e-14)
(2764.5 -5.3704e-10 3.12316e-14)
(2764.5 -4.90933e-10 2.99232e-14)
(2764.5 -4.1548e-10 3.17055e-14)
(2764.5 -3.50044e-10 3.16924e-14)
(2764.5 -3.0042e-10 3.17165e-14)
(2764.5 -2.64495e-10 3.24012e-14)
(2764.5 -2.24725e-10 2.90534e-14)
(2764.5 -1.76627e-10 2.99077e-14)
(2764.5 -1.42169e-10 2.88786e-14)
(2764.5 -9.85815e-11 2.73372e-14)
(2764.5 -5.89034e-11 2.65343e-14)
(2764.5 -1.58918e-11 3.06607e-14)
(2764.5 2.94962e-11 3.16084e-14)
(2764.5 5.89184e-11 2.8952e-14)
(2764.5 8.58395e-11 2.85515e-14)
(2764.5 1.02943e-10 2.95733e-14)
(2764.5 1.07738e-10 2.98055e-14)
(2764.5 8.78264e-11 2.85203e-14)
(2764.5 4.47535e-11 2.71411e-14)
(2764.5 -4.48914e-11 3.07097e-14)
(2764.5 -1.7155e-10 2.89011e-14)
(2764.5 -2.81316e-10 2.79273e-14)
(2764.5 -3.24865e-10 2.96667e-14)
(2764.5 -3.7315e-10 2.89699e-14)
(2764.5 -4.20745e-10 2.56033e-14)
(2764.5 -5.08456e-10 2.48533e-14)
(2764.5 -5.9478e-10 2.40174e-14)
(2764.5 -6.40541e-10 2.58714e-14)
(2764.5 -6.93706e-10 2.67607e-14)
(2764.5 -7.26502e-10 2.56579e-14)
(2764.5 -7.81695e-10 2.86499e-14)
(2764.5 -8.28248e-10 2.78262e-14)
(2764.5 -8.71533e-10 2.48489e-14)
(2764.5 -9.25991e-10 2.66558e-14)
(2764.5 -9.75262e-10 2.62974e-14)
(2764.5 -1.01766e-09 2.68457e-14)
(2764.5 -1.06284e-09 2.72444e-14)
(2764.5 -1.10805e-09 2.65676e-14)
(2764.5 -1.10639e-09 2.8702e-14)
(2764.5 -1.06704e-09 2.86139e-14)
(2764.5 -1.01373e-09 2.63714e-14)
(2764.5 -8.95728e-10 2.56527e-14)
(2764.5 -6.39643e-10 2.8514e-14)
(2764.5 -6.50867e-10 2.9349e-14)
(2764.5 -7.71634e-10 2.83367e-14)
(2764.5 -7.88194e-10 2.82016e-14)
(2764.5 -6.93904e-10 2.91518e-14)
(2764.5 -3.80122e-10 2.83214e-14)
(2764.5 1.95519e-10 2.89054e-14)
(2764.5 3.27904e-10 3.15942e-14)
(2764.5 3.4542e-10 2.96627e-14)
(2764.5 3.58068e-10 2.93695e-14)
(2764.5 3.76127e-10 3.01784e-14)
(2764.5 3.8371e-10 2.78343e-14)
(2764.5 3.84125e-10 2.93745e-14)
(2764.5 3.82817e-10 2.96804e-14)
(2764.5 3.79279e-10 2.77607e-14)
(2764.5 3.77722e-10 2.83764e-14)
(2764.5 3.80822e-10 2.91276e-14)
(2764.5 3.74779e-10 2.6913e-14)
(2764.5 3.43756e-10 2.89033e-14)
(2764.5 2.34521e-10 2.94766e-14)
(2764.5 -4.17887e-11 2.8102e-14)
(2764.5 -4.05466e-10 2.73185e-14)
(2764.5 -4.14354e-10 2.85151e-14)
(2764.5 -4.74956e-10 4.67131e-14)
(2764.5 -4.65776e-10 4.43891e-14)
(2764.5 -4.58721e-10 4.48979e-14)
(2764.5 -4.45981e-10 4.23989e-14)
(2764.5 -4.37104e-10 4.34483e-14)
(2764.5 -4.30166e-10 4.33435e-14)
(2764.5 -4.12744e-10 4.73028e-14)
(2764.5 -3.9474e-10 4.63019e-14)
(2764.5 -3.84317e-10 4.45234e-14)
(2764.5 -3.81482e-10 4.45296e-14)
(2764.5 -3.82257e-10 4.22445e-14)
(2764.5 -3.95484e-10 4.65238e-14)
(2764.5 -4.1799e-10 4.64505e-14)
(2764.5 -4.36197e-10 4.2283e-14)
(2764.5 -4.62197e-10 4.55774e-14)
(2764.5 -4.96374e-10 4.53044e-14)
(2764.5 -5.20479e-10 4.22024e-14)
(2764.5 -5.35676e-10 4.29596e-14)
(2764.5 -5.63077e-10 4.25586e-14)
(2764.5 -5.92177e-10 4.23605e-14)
(2764.5 -6.05564e-10 4.15598e-14)
(2764.5 -6.2734e-10 4.38628e-14)
(2764.5 -6.33036e-10 4.56308e-14)
(2764.5 -6.24208e-10 4.36034e-14)
(2764.5 -6.03162e-10 3.78698e-14)
(2764.5 -5.69529e-10 3.64548e-14)
(2764.5 -5.02712e-10 3.67146e-14)
(2764.5 -4.37167e-10 3.38693e-14)
(2764.5 -3.75966e-10 3.77241e-14)
(2764.5 -3.31997e-10 3.72933e-14)
(2764.5 -2.81863e-10 3.7732e-14)
(2764.5 -2.44595e-10 3.68662e-14)
(2764.5 -2.00397e-10 3.89782e-14)
(2764.5 -1.49054e-10 3.74388e-14)
(2764.5 -1.12022e-10 4.07444e-14)
(2764.5 -6.9855e-11 4.0683e-14)
(2764.5 -2.56962e-11 3.95561e-14)
(2764.5 7.38634e-12 3.74418e-14)
(2764.5 2.22466e-11 3.55159e-14)
(2764.5 1.39088e-11 3.88247e-14)
(2764.5 -3.81123e-11 3.93759e-14)
(2764.5 -1.29697e-10 3.81222e-14)
(2764.5 -2.44946e-10 4.06105e-14)
(2764.5 -3.69514e-10 3.68709e-14)
(2764.5 -4.67936e-10 4.09568e-14)
(2764.5 -5.42511e-10 4.00923e-14)
(2764.5 -5.91631e-10 3.76754e-14)
(2764.5 -6.27276e-10 3.7687e-14)
(2764.5 -6.4558e-10 3.64515e-14)
(2764.5 -6.96317e-10 3.89601e-14)
(2764.5 -7.55998e-10 3.78764e-14)
(2764.5 -8.02735e-10 3.38164e-14)
(2764.5 -8.64712e-10 3.5816e-14)
(2764.5 -9.09276e-10 3.83303e-14)
(2764.5 -9.61954e-10 4.16031e-14)
(2764.5 -1.01486e-09 4.17403e-14)
(2764.5 -1.07709e-09 3.92082e-14)
(2764.5 -1.12323e-09 3.45488e-14)
(2764.5 -1.14663e-09 3.27892e-14)
(2764.5 -1.10773e-09 3.57643e-14)
(2764.5 -1.0273e-09 3.60145e-14)
(2764.5 -9.11741e-10 3.48342e-14)
(2764.5 -6.34062e-10 3.5956e-14)
(2764.5 -6.79425e-11 3.96226e-14)
(2764.5 8.98873e-11 3.53698e-14)
(2764.5 1.92495e-10 3.5778e-14)
(2764.5 3.25939e-10 4.29447e-14)
(2764.5 4.43463e-10 3.96771e-14)
(2764.5 5.55099e-10 3.34386e-14)
(2764.5 6.95756e-10 3.78786e-14)
(2764.5 8.39919e-10 3.79649e-14)
(2764.5 9.59774e-10 3.42607e-14)
(2764.5 1.06366e-09 3.48529e-14)
(2764.5 1.18582e-09 3.65896e-14)
(2764.5 1.32271e-09 3.66931e-14)
(2764.5 1.45968e-09 3.63535e-14)
(2764.5 1.62025e-09 3.63112e-14)
(2764.5 1.80347e-09 3.75055e-14)
(2764.5 1.99926e-09 3.7525e-14)
(2764.5 2.20497e-09 3.51526e-14)
(2764.5 2.42163e-09 3.2273e-14)
(2764.5 2.60786e-09 3.59167e-14)
(2764.5 2.70825e-09 3.74508e-14)
(2764.5 2.67615e-09 3.66334e-14)
(2764.5 2.61078e-09 3.54969e-14)
(2764.5 2.92964e-09 3.45992e-14)
(2764.5 3.41141e-09 3.48034e-14)
(2764.5 3.8767e-09 3.66375e-14)
(2764.5 4.04899e-09 3.67193e-14)
(2764.5 3.93332e-09 3.56935e-14)
(2764.5 3.60088e-09 3.56013e-14)
(2764.5 3.6311e-09 3.3466e-14)
(2764.5 3.74013e-09 3.39994e-14)
(2764.5 3.82784e-09 3.62314e-14)
(2764.5 3.89948e-09 3.62376e-14)
(2764.5 3.92775e-09 3.33486e-14)
(2764.5 3.92293e-09 3.322e-14)
(2764.5 3.90766e-09 3.55274e-14)
(2764.5 3.87495e-09 3.37634e-14)
(2764.5 3.83157e-09 3.29909e-14)
(2764.5 3.77788e-09 3.54641e-14)
(2764.5 3.73941e-09 3.41722e-14)
(2764.5 3.59868e-09 3.56948e-14)
(2764.5 3.52765e-09 3.48867e-14)
(2764.5 3.76099e-09 3.34662e-14)
(2764.5 3.64478e-09 3.32797e-14)
(2764.5 3.2102e-09 3.53584e-14)
(2764.5 -4.64428e-10 5.16554e-14)
(2764.5 -4.71136e-10 5.13231e-14)
(2764.5 -4.85884e-10 5.45542e-14)
(2764.5 -5.09772e-10 4.95514e-14)
(2764.5 -5.35159e-10 5.02033e-14)
(2764.5 -5.73493e-10 5.21846e-14)
(2764.5 -6.01817e-10 5.26141e-14)
(2764.5 -6.24219e-10 5.64947e-14)
(2764.5 -6.45984e-10 5.47334e-14)
(2764.5 -6.90707e-10 5.50508e-14)
(2764.5 -7.1389e-10 5.00994e-14)
(2764.5 -7.17256e-10 5.07758e-14)
(2764.5 -7.04316e-10 5.67609e-14)
(2764.5 -6.7332e-10 5.21027e-14)
(2764.5 -6.22741e-10 4.84373e-14)
(2764.5 -5.6967e-10 5.0687e-14)
(2764.5 -5.06995e-10 4.82289e-14)
(2764.5 -4.34454e-10 4.85425e-14)
(2764.5 -3.63125e-10 4.82959e-14)
(2764.5 -3.06453e-10 4.90575e-14)
(2764.5 -2.67394e-10 4.81791e-14)
(2764.5 -2.15478e-10 4.90973e-14)
(2764.5 -1.62232e-10 4.80224e-14)
(2764.5 -1.14627e-10 4.54632e-14)
(2764.5 -1.00989e-10 4.63886e-14)
(2764.5 -1.23448e-10 4.87798e-14)
(2764.5 -2.42033e-10 4.85893e-14)
(2764.5 -3.53567e-10 4.69875e-14)
(2764.5 -4.55277e-10 4.87769e-14)
(2764.5 -5.44868e-10 4.84283e-14)
(2764.5 -6.36927e-10 4.85756e-14)
(2764.5 -7.19007e-10 4.71644e-14)
(2764.5 -7.81153e-10 4.87207e-14)
(2764.5 -8.28011e-10 5.13642e-14)
(2764.5 -8.73986e-10 4.99761e-14)
(2764.5 -9.18473e-10 4.7342e-14)
(2764.5 -9.68088e-10 4.35892e-14)
(2764.5 -1.01223e-09 4.44697e-14)
(2764.5 -1.04799e-09 4.44607e-14)
(2764.5 -1.08132e-09 4.4629e-14)
(2764.5 -1.11334e-09 4.52545e-14)
(2764.5 -1.13434e-09 4.59507e-14)
(2764.5 -1.09703e-09 4.42002e-14)
(2764.5 -1.00833e-09 4.44751e-14)
(2764.5 -4.31154e-10 4.74262e-14)
(2764.5 -3.48316e-10 4.82552e-14)
(2764.5 -2.65771e-10 4.74453e-14)
(2764.5 -7.09254e-11 4.85033e-14)
(2764.5 2.99194e-10 5.05718e-14)
(2764.5 4.58253e-10 5.03784e-14)
(2764.5 5.91521e-10 4.74382e-14)
(2764.5 6.93443e-10 4.70486e-14)
(2764.5 7.99642e-10 4.83292e-14)
(2764.5 9.38436e-10 4.69386e-14)
(2764.5 1.09359e-09 5.09063e-14)
(2764.5 1.24933e-09 4.6804e-14)
(2764.5 1.41478e-09 4.33613e-14)
(2764.5 1.60701e-09 4.87294e-14)
(2764.5 1.80444e-09 4.82957e-14)
(2764.5 2.03318e-09 4.48954e-14)
(2764.5 2.30972e-09 4.526e-14)
(2764.5 2.48063e-09 4.8697e-14)
(2764.5 2.69547e-09 4.39795e-14)
(2764.5 2.96936e-09 4.46609e-14)
(2764.5 3.25162e-09 4.43769e-14)
(2764.5 3.32074e-09 4.3344e-14)
(2764.5 3.22016e-09 4.77185e-14)
(2764.5 3.43265e-09 4.44157e-14)
(2764.5 3.91428e-09 4.39125e-14)
(2764.5 4.43572e-09 4.5987e-14)
(2764.5 4.93407e-09 4.4209e-14)
(2764.5 5.42037e-09 4.34204e-14)
(2764.5 5.92971e-09 4.20787e-14)
(2764.5 6.48399e-09 4.25106e-14)
(2764.5 7.05274e-09 4.37025e-14)
(2764.5 7.62775e-09 4.22369e-14)
(2764.5 8.23898e-09 4.2576e-14)
(2764.5 8.91039e-09 4.32436e-14)
(2764.5 9.66331e-09 4.12852e-14)
(2764.5 1.04942e-08 4.17614e-14)
(2764.5 1.1422e-08 4.09698e-14)
(2764.5 1.24481e-08 4.12879e-14)
(2764.5 1.35505e-08 4.07362e-14)
(2764.5 1.47938e-08 3.92252e-14)
(2764.5 1.6122e-08 4.19812e-14)
(2764.5 1.75589e-08 4.15961e-14)
(2764.5 1.91486e-08 4.2415e-14)
(2764.5 2.08454e-08 4.15685e-14)
(2764.5 2.2358e-08 3.96022e-14)
(2764.5 2.35697e-08 3.92691e-14)
(2764.5 2.44801e-08 4.00453e-14)
(2764.5 2.52883e-08 4.09715e-14)
(2764.5 2.62981e-08 4.24005e-14)
(2764.5 2.75053e-08 3.74897e-14)
(2764.5 2.85006e-08 3.88766e-14)
(2764.5 2.9192e-08 4.24731e-14)
(2764.5 2.9679e-08 4.06523e-14)
(2764.5 3.00081e-08 4.23867e-14)
(2764.5 3.01584e-08 4.09372e-14)
(2764.5 3.01765e-08 3.93659e-14)
(2764.5 3.00371e-08 3.9909e-14)
(2764.5 2.96825e-08 3.91724e-14)
(2764.5 2.91905e-08 4.1502e-14)
(2764.5 2.85297e-08 3.86562e-14)
(2764.5 2.78159e-08 4.1263e-14)
(2764.5 2.68533e-08 4.12598e-14)
(2764.5 2.57928e-08 3.95588e-14)
(2764.5 2.48248e-08 4.04134e-14)
(2764.5 2.3795e-08 3.70487e-14)
(2764.5 2.27202e-08 4.00251e-14)
(2764.5 -7.09602e-10 5.9419e-14)
(2764.5 -6.62347e-10 5.74367e-14)
(2764.5 -6.12166e-10 6.10242e-14)
(2764.5 -5.47729e-10 5.48318e-14)
(2764.5 -4.83059e-10 5.77385e-14)
(2764.5 -4.23863e-10 5.90242e-14)
(2764.5 -3.6715e-10 5.96239e-14)
(2764.5 -3.09008e-10 5.52947e-14)
(2764.5 -2.65376e-10 5.78568e-14)
(2764.5 -2.37279e-10 5.88973e-14)
(2764.5 -2.43187e-10 5.58109e-14)
(2764.5 -3.31767e-10 5.85362e-14)
(2764.5 -4.30564e-10 6.1014e-14)
(2764.5 -5.55372e-10 5.90937e-14)
(2764.5 -6.90467e-10 5.44759e-14)
(2764.5 -7.70112e-10 5.5072e-14)
(2764.5 -8.24629e-10 6.07548e-14)
(2764.5 -8.84925e-10 6.16901e-14)
(2764.5 -9.48699e-10 6.01232e-14)
(2764.5 -1.02382e-09 5.57659e-14)
(2764.5 -1.06604e-09 5.60347e-14)
(2764.5 -1.1178e-09 5.5351e-14)
(2764.5 -1.15752e-09 5.788e-14)
(2764.5 -1.19038e-09 6.01137e-14)
(2764.5 -1.17156e-09 5.69519e-14)
(2764.5 -1.02402e-09 5.57663e-14)
(2764.5 -4.28361e-10 5.95731e-14)
(2764.5 -7.07509e-11 6.05405e-14)
(2764.5 -1.93247e-10 5.85501e-14)
(2764.5 -6.70979e-11 5.49447e-14)
(2764.5 2.34171e-10 5.50543e-14)
(2764.5 4.4197e-10 5.96909e-14)
(2764.5 6.29832e-10 6.07349e-14)
(2764.5 7.91449e-10 5.55172e-14)
(2764.5 9.43319e-10 5.54234e-14)
(2764.5 1.12238e-09 5.80766e-14)
(2764.5 1.31391e-09 5.67724e-14)
(2764.5 1.51987e-09 5.69028e-14)
(2764.5 1.75509e-09 5.55651e-14)
(2764.5 2.01799e-09 5.78811e-14)
(2764.5 2.36266e-09 5.72681e-14)
(2764.5 2.64138e-09 5.61434e-14)
(2764.5 2.88154e-09 5.50338e-14)
(2764.5 2.9211e-09 5.60556e-14)
(2764.5 2.97574e-09 5.41918e-14)
(2764.5 3.30966e-09 5.43741e-14)
(2764.5 3.97734e-09 5.65175e-14)
(2764.5 4.29617e-09 5.66737e-14)
(2764.5 4.54978e-09 5.38969e-14)
(2764.5 5.04738e-09 5.44157e-14)
(2764.5 5.57386e-09 5.37958e-14)
(2764.5 6.119e-09 5.50775e-14)
(2764.5 6.71729e-09 5.28272e-14)
(2764.5 7.38983e-09 5.41559e-14)
(2764.5 8.10293e-09 5.55631e-14)
(2764.5 8.86781e-09 5.26189e-14)
(2764.5 9.71066e-09 5.39574e-14)
(2764.5 1.06258e-08 5.18701e-14)
(2764.5 1.16053e-08 5.35979e-14)
(2764.5 1.27349e-08 5.4899e-14)
(2764.5 1.39375e-08 5.27056e-14)
(2764.5 1.51847e-08 5.40227e-14)
(2764.5 1.67381e-08 5.24874e-14)
(2764.5 1.83523e-08 5.15365e-14)
(2764.5 1.99348e-08 4.84824e-14)
(2764.5 2.17097e-08 5.12e-14)
(2764.5 2.41333e-08 5.39173e-14)
(2764.5 2.71807e-08 4.81221e-14)
(2764.5 3.04448e-08 5.14168e-14)
(2764.5 3.38147e-08 5.31474e-14)
(2764.5 3.74488e-08 5.00017e-14)
(2764.5 4.15362e-08 4.9322e-14)
(2764.5 4.61233e-08 4.91102e-14)
(2764.5 5.10458e-08 5.21956e-14)
(2764.5 5.61362e-08 4.92205e-14)
(2764.5 6.13982e-08 4.78554e-14)
(2764.5 6.69301e-08 4.9982e-14)
(2764.5 7.28576e-08 4.86329e-14)
(2764.5 7.92651e-08 4.75047e-14)
(2764.5 8.61639e-08 4.71403e-14)
(2764.5 9.35577e-08 4.61382e-14)
(2764.5 1.01351e-07 4.57826e-14)
(2764.5 1.09455e-07 4.78744e-14)
(2764.5 1.17857e-07 4.74276e-14)
(2764.5 1.26603e-07 4.77219e-14)
(2764.5 1.35737e-07 4.88353e-14)
(2764.5 1.4509e-07 4.82508e-14)
(2764.5 1.54343e-07 4.40789e-14)
(2764.5 1.63328e-07 4.48309e-14)
(2764.5 1.72073e-07 4.48952e-14)
(2764.5 1.80845e-07 4.74056e-14)
(2764.5 1.89858e-07 4.51254e-14)
(2764.5 1.98567e-07 4.85943e-14)
(2764.5 2.06044e-07 4.54079e-14)
(2764.5 2.12074e-07 4.59924e-14)
(2764.5 2.1694e-07 4.59195e-14)
(2764.5 2.20868e-07 4.62816e-14)
(2764.5 2.23797e-07 4.6938e-14)
(2764.5 2.25392e-07 4.47811e-14)
(2764.5 2.25877e-07 4.59471e-14)
(2764.5 2.24992e-07 4.79564e-14)
(2764.5 2.229e-07 4.64398e-14)
(2764.5 2.19581e-07 4.619e-14)
(2764.5 2.14924e-07 4.3076e-14)
(2764.5 2.0919e-07 4.61073e-14)
(2764.5 2.02333e-07 4.44863e-14)
(2764.5 1.94535e-07 4.4472e-14)
(2764.5 1.85906e-07 4.47221e-14)
(2764.5 1.76569e-07 4.52754e-14)
(2764.5 1.66852e-07 4.29067e-14)
(2764.5 -6.73245e-10 7.11146e-14)
(2764.5 -7.66084e-10 7.00074e-14)
(2764.5 -8.46611e-10 6.94437e-14)
(2764.5 -9.13234e-10 6.93209e-14)
(2764.5 -9.78263e-10 7.20497e-14)
(2764.5 -1.04036e-09 6.94076e-14)
(2764.5 -1.09882e-09 6.58961e-14)
(2764.5 -1.15837e-09 6.82896e-14)
(2764.5 -1.19403e-09 7.126e-14)
(2764.5 -1.17863e-09 6.97501e-14)
(2764.5 -1.06462e-09 6.90054e-14)
(2764.5 -7.11556e-10 6.7241e-14)
(2764.5 -1.20106e-10 6.96438e-14)
(2764.5 1.25319e-10 6.89289e-14)