/*--------------------------------*- C++ -*----------------------------------*\
| =========                 |                                                 |
| \\      /  F ield         | OpenFOAM: The Open Source CFD Toolbox           |
|  \\    /   O peration     | Version:  v1706                                 |
|   \\  /    A nd           | Web:      www.OpenFOAM.com                      |
|    \\/     M anipulation  |                                                 |
\*---------------------------------------------------------------------------*/
FoamFile
{
    version     2.0;
    format      ascii;
    class       volScalarField;
    location    "1.4e-05";
    object      wallHeatFlux;
}
// * * * * * * * * * * * * * * * * * * * * * * * * * * * * * * * * * * * * * //

dimensions      [1 0 -3 0 0 0 0];


internalField   uniform 0;

boundaryField
{
    cone
    {
        type            calculated;
        value           nonuniform List<scalar> 
181
(
87694.5
87460.5
87002.7
86336.9
85486.7
84479.7
83343.6
82104.1
80782.6
79394.5
77949.3
76449.9
74894.6
73277.6
71591.8
69830.3
67988.8
66067.9
64074.7
62023.4
59936.1
57842.3
55777.3
53780.4
51892.1
50150.7
48590.9
47244.3
46138.1
45296.1
44744
44502.1
44587
45019.9
45825.5
47026.3
48647.3
50718.2
53270.1
56335.1
59944.2
64124.5
68894.1
74256.4
80191.1
86645.9
93527.6
100698
107975
115152
122016
128393
134173
139330
143912
148015
151745
155187
158384
161325
163979
166270
168090
169325
169850
169532
168234
165826
162207
157314
151147
143786
135403
126254
116654
106940
97429.7
88380.5
79973.8
72311.2
65426.1
59301
53886.6
49116
44916.8
41217.9
37953.2
35064.1
32499.7
30216.3
28177.2
26351.1
24711.9
23237.4
21909.2
20711.2
19629.9
18653.9
17772.9
16978.4
16262.7
15619.2
15042
14525.7
14065.5
13657.5
13298.3
12984.3
12712.4
12480.5
12286.4
12128
12003.6
11911.8
11851.5
11821.4
11820.9
11849.3
11906
11990.6
12103.1
12243.3
12411.3
12607.5
12832.1
13085.6
13368.7
13682.3
14027.1
14404.3
14815.2
15261
15743.3
16263.8
16824.3
17427
18074
18767.7
19510.8
20306
21156.3
22065
23035.4
24071.1
25175.8
26353.3
27607.8
28943
30362.7
31870.7
33469.8
35162.2
36949.1
38829.8
40801.1
42857
44987
47175.6
49400.2
51630.7
53827.8
55942.7
57917.8
59689
61189.9
62360.2
63154.6
63552.7
63552.6
63179.8
62497.4
61587.5
60539
59446.5
58396.9
57458
56674.6
56070.5
55657.8
55436.7
55397.9
)
;
    }
    inlet
    {
        type            calculated;
        value           uniform 0;
    }
    rWedge
    {
        type            wedge;
    }
    lWedge
    {
        type            wedge;
    }
    outlet
    {
        type            calculated;
        value           nonuniform 0();
    }
    procBoundary1to0
    {
        type            processor;
        value           uniform 0;
    }
    procBoundary1to2
    {
        type            processor;
        value           uniform 0;
    }
}


// ************************************************************************* //
