/*--------------------------------*- C++ -*----------------------------------*\
| =========                 |                                                 |
| \\      /  F ield         | OpenFOAM: The Open Source CFD Toolbox           |
|  \\    /   O peration     | Version:  v1706                                 |
|   \\  /    A nd           | Web:      www.OpenFOAM.com                      |
|    \\/     M anipulation  |                                                 |
\*---------------------------------------------------------------------------*/
FoamFile
{
    version     2.0;
    format      ascii;
    class       volScalarField;
    location    "1.5e-05";
    object      wallHeatFlux;
}
// * * * * * * * * * * * * * * * * * * * * * * * * * * * * * * * * * * * * * //

dimensions      [1 0 -3 0 0 0 0];


internalField   uniform 0;

boundaryField
{
    cone
    {
        type            calculated;
        value           nonuniform List<scalar> 
147
(
7501.86
7499.48
7495.71
7492.17
7487.78
7482.81
7477.08
7470.56
7463.24
7455.13
7446.25
7436.65
7426.32
7415.29
7403.59
7391.25
7378.31
7364.81
7350.79
7336.29
7321.37
7306.05
7290.41
7274.49
7258.37
7242.11
7225.78
7209.46
7193.18
7176.99
7160.93
7145.03
7129.33
7113.87
7098.71
7083.93
7069.6
7055.82
7042.67
7030.23
7018.58
7007.82
6998.01
6989.25
6981.63
6975.25
6970.18
6966.54
6964.42
6963.91
6965.1
6968.1
6972.98
6979.86
6988.82
6999.97
7013.39
7029.18
7047.44
7068.25
7091.7
7117.88
7146.87
7178.77
7213.65
7251.59
7292.66
7336.91
7384.37
7435.07
7489.05
7546.32
7606.88
7670.73
7737.83
7808.15
7881.64
7958.2
8037.77
8120.22
8205.4
8293.15
8383.29
8475.61
8569.87
8665.81
8763.13
8861.52
8960.62
9060.07
9159.46
9258.37
9356.35
9452.92
9547.59
9639.84
9729.17
9815.02
9896.86
9974.15
10046.3
10112.9
10173.4
10227.3
10274.2
10313.8
10345.7
10369.6
10385
10391.9
10389.9
10379.1
10359.4
10330.8
10293.4
10247.3
10192.9
10130.2
10059.6
9981.42
9895.97
9803.62
9704.73
9599.69
9488.87
9372.65
9251.37
9125.39
8995.02
8860.56
8722.27
8580.42
8435.24
8286.93
8135.68
7981.63
7824.93
7665.71
7504.09
7340.16
7174.04
7005.81
6835.57
6663.44
6489.5
6313.9
7512.13
)
;
    }
    inlet
    {
        type            calculated;
        value           uniform 0;
    }
    rWedge
    {
        type            wedge;
    }
    lWedge
    {
        type            wedge;
    }
    outlet
    {
        type            calculated;
        value           nonuniform 0();
    }
    procBoundary3to2
    {
        type            processor;
        value           uniform 0;
    }
}


// ************************************************************************* //
