/*--------------------------------*- C++ -*----------------------------------*\
| =========                 |                                                 |
| \\      /  F ield         | OpenFOAM: The Open Source CFD Toolbox           |
|  \\    /   O peration     | Version:  v1706                                 |
|   \\  /    A nd           | Web:      www.OpenFOAM.com                      |
|    \\/     M anipulation  |                                                 |
\*---------------------------------------------------------------------------*/
FoamFile
{
    version     2.0;
    format      ascii;
    class       volScalarField;
    location    "3.3e-05";
    object      wallHeatFlux;
}
// * * * * * * * * * * * * * * * * * * * * * * * * * * * * * * * * * * * * * //

dimensions      [1 0 -3 0 0 0 0];


internalField   uniform 0;

boundaryField
{
    cone
    {
        type            calculated;
        value           nonuniform List<scalar> 
147
(
243387
243336
243263
243199
243112
243020
242908
242784
242643
242488
242317
242131
241930
241714
241482
241235
240973
240696
240404
240096
239772
239434
239080
238710
238326
237926
237511
237080
236634
236174
235698
235208
234703
234183
233649
233100
232537
231960
231368
230763
230143
229510
228864
228204
227531
226844
226145
225432
224707
223969
223218
222455
221680
220892
220093
219282
218459
217626
216783
215928
215063
214188
213301
212404
211497
210580
209652
208715
207767
206811
205844
204869
203884
202890
201887
200876
199856
198827
197791
196746
195694
194634
193566
192492
191410
190321
189225
188122
187014
185898
184777
183650
182517
181379
180235
179086
177933
176774
175610
174443
173271
172095
170915
169732
168545
167354
166161
164965
163766
162565
161361
160155
158948
157738
156527
155315
154102
152887
151672
150456
149240
148023
146806
145590
144373
143157
141942
140728
139514
138302
137091
135881
134673
133467
132263
131061
129861
128663
127469
126277
125088
123905
122727
121555
120385
119216
243653
)
;
    }
    inlet
    {
        type            calculated;
        value           uniform 0;
    }
    rWedge
    {
        type            wedge;
    }
    lWedge
    {
        type            wedge;
    }
    outlet
    {
        type            calculated;
        value           nonuniform 0();
    }
    procBoundary3to2
    {
        type            processor;
        value           uniform 0;
    }
}


// ************************************************************************* //
