/*--------------------------------*- C++ -*----------------------------------*\
| =========                 |                                                 |
| \\      /  F ield         | OpenFOAM: The Open Source CFD Toolbox           |
|  \\    /   O peration     | Version:  v1706                                 |
|   \\  /    A nd           | Web:      www.OpenFOAM.com                      |
|    \\/     M anipulation  |                                                 |
\*---------------------------------------------------------------------------*/
FoamFile
{
    version     2.0;
    format      ascii;
    class       volScalarField;
    location    "1.3e-05";
    object      alpha;
}
// * * * * * * * * * * * * * * * * * * * * * * * * * * * * * * * * * * * * * //

dimensions      [1 -1 -1 0 0 0 0];


internalField   nonuniform List<scalar> 
30038
(
1.40478e-05
1.40478e-05
1.40478e-05
1.40478e-05
1.40478e-05
1.40478e-05
1.40478e-05
1.40478e-05
1.40478e-05
1.40478e-05
1.40478e-05
1.40478e-05
1.40478e-05
1.40478e-05
1.40478e-05
1.40478e-05
1.40478e-05
1.40478e-05
1.40478e-05
1.40478e-05
1.40478e-05
1.40478e-05
1.40478e-05
1.40478e-05
1.40478e-05
1.40478e-05
1.40478e-05
1.40478e-05
1.40478e-05
1.40478e-05
1.40478e-05
1.40478e-05
1.40478e-05
1.40478e-05
1.40478e-05
1.40478e-05
1.40478e-05
1.40478e-05
1.40478e-05
1.40478e-05
1.40478e-05
1.40478e-05
1.40478e-05
1.40478e-05
1.40478e-05
1.40478e-05
1.40478e-05
1.40478e-05
1.40478e-05
1.40478e-05
1.40478e-05
1.40478e-05
1.40478e-05
1.40478e-05
1.40478e-05
1.40478e-05
1.40478e-05
1.40478e-05
1.40478e-05
1.40478e-05
1.40478e-05
1.40478e-05
1.40478e-05
1.40478e-05
1.40478e-05
1.40478e-05
1.40478e-05
1.40478e-05
1.40478e-05
1.40478e-05
1.40478e-05
1.40478e-05
1.40478e-05
1.40478e-05
1.40478e-05
1.40478e-05
1.40478e-05
1.40478e-05
1.40478e-05
1.40478e-05
1.40478e-05
1.40478e-05
1.40478e-05
1.40478e-05
1.40478e-05
1.40478e-05
1.40478e-05
1.40478e-05
1.40478e-05
1.40478e-05
1.40478e-05
1.40478e-05
1.40478e-05
1.40478e-05
1.40478e-05
1.40478e-05
1.40478e-05
1.40478e-05
1.40478e-05
1.40478e-05
1.40478e-05
1.40478e-05
1.40478e-05
1.40478e-05
1.40478e-05
1.40478e-05
1.40478e-05
1.40478e-05
1.40478e-05
1.40478e-05
1.40478e-05
1.40478e-05
1.40478e-05
1.40478e-05
1.40478e-05
1.40478e-05
1.40478e-05
1.40478e-05
1.40478e-05
1.40478e-05
1.40478e-05
1.40478e-05
1.40478e-05
1.40478e-05
1.40478e-05
1.40478e-05
1.40478e-05
1.40478e-05
1.40478e-05
1.40478e-05
1.40478e-05
1.40478e-05
1.40478e-05
1.40478e-05
1.40478e-05
1.40478e-05
1.40478e-05
1.40478e-05
1.40478e-05
1.40478e-05
1.40478e-05
1.40478e-05
1.40478e-05
1.40478e-05
1.40478e-05
1.40478e-05
1.40478e-05
1.40478e-05
1.40478e-05
1.40478e-05
1.40478e-05
1.40478e-05
1.40478e-05
1.40478e-05
1.40478e-05
1.40478e-05
1.40478e-05
1.40478e-05
1.40478e-05
1.40478e-05
1.40478e-05
1.40478e-05
1.40478e-05
1.40478e-05
1.40478e-05
1.40478e-05
1.40478e-05
1.40478e-05
1.40478e-05
1.40478e-05
1.40478e-05
1.40478e-05
1.40478e-05
1.40478e-05
1.40478e-05
1.40478e-05
1.40478e-05
1.40478e-05
1.40478e-05
1.40478e-05
1.40478e-05
1.40478e-05
1.40478e-05
1.40478e-05
1.40478e-05
1.40478e-05
1.40478e-05
1.40478e-05
1.40479e-05
1.40479e-05
1.40478e-05
1.40478e-05
1.40478e-05
1.40478e-05
1.40478e-05
1.40478e-05
1.40478e-05
1.40478e-05
1.40478e-05
1.40478e-05
1.40478e-05
1.40478e-05
1.40478e-05
1.40478e-05
1.40478e-05
1.40478e-05
1.40478e-05
1.40478e-05
1.40478e-05
1.40478e-05
1.40478e-05
1.40478e-05
1.40478e-05
1.40478e-05
1.40478e-05
1.40478e-05
1.40478e-05
1.40478e-05
1.40478e-05
1.40478e-05
1.40478e-05
1.40478e-05
1.40478e-05
1.40479e-05
1.40479e-05
1.40479e-05
1.40479e-05
1.4048e-05
1.40478e-05
1.40478e-05
1.40478e-05
1.40478e-05
1.40478e-05
1.40478e-05
1.40478e-05
1.40478e-05
1.40478e-05
1.40478e-05
1.40478e-05
1.40478e-05
1.40478e-05
1.40478e-05
1.40478e-05
1.40478e-05
1.40478e-05
1.40478e-05
1.40478e-05
1.40478e-05
1.40478e-05
1.40478e-05
1.40478e-05
1.40478e-05
1.40478e-05
1.40478e-05
1.40478e-05
1.40478e-05
1.40478e-05
1.40478e-05
1.40478e-05
1.40479e-05
1.40479e-05
1.40479e-05
1.4048e-05
1.40481e-05
1.40482e-05
1.40483e-05
1.40478e-05
1.40478e-05
1.40478e-05
1.40478e-05
1.40478e-05
1.40478e-05
1.40478e-05
1.40478e-05
1.40478e-05
1.40478e-05
1.40478e-05
1.40478e-05
1.40478e-05
1.40478e-05
1.40478e-05
1.40478e-05
1.40478e-05
1.40478e-05
1.40478e-05
1.40478e-05
1.40478e-05
1.40478e-05
1.40478e-05
1.40478e-05
1.40478e-05
1.40478e-05
1.40478e-05
1.40478e-05
1.40479e-05
1.40479e-05
1.40479e-05
1.4048e-05
1.4048e-05
1.40481e-05
1.40482e-05
1.40484e-05
1.40486e-05
1.40489e-05
1.40478e-05
1.40478e-05
1.40478e-05
1.40478e-05
1.40478e-05
1.40478e-05
1.40478e-05
1.40478e-05
1.40478e-05
1.40478e-05
1.40478e-05
1.40478e-05
1.40478e-05
1.40478e-05
1.40478e-05
1.40478e-05
1.40478e-05
1.40478e-05
1.40478e-05
1.40478e-05
1.40478e-05
1.40478e-05
1.40478e-05
1.40478e-05
1.40478e-05
1.40478e-05
1.40479e-05
1.40479e-05
1.40479e-05
1.4048e-05
1.4048e-05
1.40481e-05
1.40482e-05
1.40484e-05
1.40486e-05
1.40488e-05
1.40492e-05
1.40497e-05
1.40504e-05
1.40478e-05
1.40478e-05
1.40478e-05
1.40478e-05
1.40478e-05
1.40478e-05
1.40478e-05
1.40478e-05
1.40478e-05
1.40478e-05
1.40478e-05
1.40478e-05
1.40478e-05
1.40478e-05
1.40478e-05
1.40478e-05
1.40478e-05
1.40478e-05
1.40478e-05
1.40478e-05
1.40478e-05
1.40478e-05
1.40478e-05
1.40479e-05
1.40479e-05
1.40479e-05
1.4048e-05
1.4048e-05
1.40481e-05
1.40482e-05
1.40483e-05
1.40485e-05
1.40487e-05
1.40491e-05
1.40495e-05
1.40501e-05
1.40509e-05
1.40521e-05
1.40536e-05
1.40478e-05
1.40478e-05
1.40478e-05
1.40478e-05
1.40478e-05
1.40478e-05
1.40478e-05
1.40478e-05
1.40478e-05
1.40478e-05
1.40478e-05
1.40478e-05
1.40478e-05
1.40478e-05
1.40478e-05
1.40478e-05
1.40478e-05
1.40478e-05
1.40478e-05
1.40478e-05
1.40479e-05
1.40479e-05
1.40479e-05
1.40479e-05
1.4048e-05
1.40481e-05
1.40482e-05
1.40483e-05
1.40484e-05
1.40487e-05
1.4049e-05
1.40494e-05
1.40499e-05
1.40506e-05
1.40516e-05
1.4053e-05
1.40548e-05
1.40572e-05
1.40606e-05
1.40478e-05
1.40478e-05
1.40478e-05
1.40478e-05
1.40478e-05
1.40478e-05
1.40478e-05
1.40478e-05
1.40478e-05
1.40478e-05
1.40478e-05
1.40478e-05
1.40478e-05
1.40478e-05
1.40478e-05
1.40478e-05
1.40478e-05
1.40478e-05
1.40478e-05
1.40479e-05
1.40479e-05
1.40479e-05
1.4048e-05
1.4048e-05
1.40481e-05
1.40482e-05
1.40484e-05
1.40486e-05
1.40489e-05
1.40492e-05
1.40497e-05
1.40504e-05
1.40513e-05
1.40525e-05
1.40541e-05
1.40562e-05
1.40591e-05
1.4063e-05
1.40683e-05
1.40755e-05
1.40478e-05
1.40478e-05
1.40478e-05
1.40478e-05
1.40478e-05
1.40478e-05
1.40478e-05
1.40478e-05
1.40478e-05
1.40478e-05
1.40478e-05
1.40478e-05
1.40478e-05
1.40478e-05
1.40478e-05
1.40478e-05
1.40479e-05
1.40479e-05
1.40479e-05
1.4048e-05
1.4048e-05
1.40481e-05
1.40482e-05
1.40483e-05
1.40485e-05
1.40488e-05
1.40491e-05
1.40496e-05
1.40501e-05
1.40509e-05
1.4052e-05
1.40534e-05
1.40553e-05
1.40579e-05
1.40614e-05
1.4066e-05
1.40722e-05
1.40806e-05
1.40918e-05
1.41072e-05
1.40478e-05
1.40478e-05
1.40478e-05
1.40478e-05
1.40478e-05
1.40478e-05
1.40478e-05
1.40478e-05
1.40478e-05
1.40478e-05
1.40478e-05
1.40478e-05
1.40478e-05
1.40479e-05
1.40479e-05
1.40479e-05
1.4048e-05
1.4048e-05
1.40481e-05
1.40482e-05
1.40483e-05
1.40485e-05
1.40487e-05
1.4049e-05
1.40494e-05
1.40499e-05
1.40507e-05
1.40516e-05
1.40529e-05
1.40546e-05
1.40569e-05
1.40599e-05
1.4064e-05
1.40695e-05
1.40768e-05
1.40866e-05
1.40998e-05
1.41174e-05
1.4141e-05
1.41729e-05
1.40478e-05
1.40478e-05
1.40478e-05
1.40478e-05
1.40478e-05
1.40478e-05
1.40478e-05
1.40478e-05
1.40478e-05
1.40478e-05
1.40479e-05
1.40479e-05
1.40479e-05
1.40479e-05
1.4048e-05
1.40481e-05
1.40482e-05
1.40483e-05
1.40484e-05
1.40486e-05
1.40489e-05
1.40493e-05
1.40498e-05
1.40504e-05
1.40513e-05
1.40524e-05
1.40539e-05
1.4056e-05
1.40587e-05
1.40623e-05
1.40672e-05
1.40736e-05
1.40822e-05
1.40937e-05
1.41091e-05
1.41296e-05
1.41568e-05
1.41932e-05
1.42417e-05
1.43064e-05
1.40478e-05
1.40478e-05
1.40478e-05
1.40478e-05
1.40478e-05
1.40478e-05
1.40478e-05
1.40479e-05
1.40479e-05
1.40479e-05
1.40479e-05
1.4048e-05
1.4048e-05
1.40481e-05
1.40482e-05
1.40484e-05
1.40486e-05
1.40488e-05
1.40491e-05
1.40496e-05
1.40502e-05
1.40509e-05
1.4052e-05
1.40533e-05
1.40552e-05
1.40576e-05
1.40608e-05
1.40651e-05
1.40708e-05
1.40784e-05
1.40885e-05
1.4102e-05
1.41199e-05
1.41436e-05
1.41752e-05
1.42171e-05
1.42724e-05
1.43455e-05
1.44419e-05
1.45684e-05
1.40478e-05
1.40478e-05
1.40478e-05
1.40478e-05
1.40479e-05
1.40479e-05
1.40479e-05
1.40479e-05
1.4048e-05
1.4048e-05
1.40481e-05
1.40482e-05
1.40483e-05
1.40485e-05
1.40487e-05
1.4049e-05
1.40494e-05
1.405e-05
1.40507e-05
1.40516e-05
1.40528e-05
1.40544e-05
1.40566e-05
1.40595e-05
1.40633e-05
1.40683e-05
1.4075e-05
1.40839e-05
1.40957e-05
1.41114e-05
1.41322e-05
1.41598e-05
1.41962e-05
1.42444e-05
1.43077e-05
1.43909e-05
1.44995e-05
1.46406e-05
1.48228e-05
1.50558e-05
1.40478e-05
1.40478e-05
1.40479e-05
1.40479e-05
1.40479e-05
1.4048e-05
1.4048e-05
1.40481e-05
1.40482e-05
1.40483e-05
1.40485e-05
1.40487e-05
1.40489e-05
1.40493e-05
1.40498e-05
1.40504e-05
1.40513e-05
1.40524e-05
1.40538e-05
1.40557e-05
1.40583e-05
1.40617e-05
1.40661e-05
1.40721e-05
1.40799e-05
1.40903e-05
1.41041e-05
1.41223e-05
1.41463e-05
1.41781e-05
1.42201e-05
1.42752e-05
1.43475e-05
1.4442e-05
1.45646e-05
1.47227e-05
1.49247e-05
1.518e-05
1.54987e-05
1.58898e-05
1.40479e-05
1.40479e-05
1.40479e-05
1.4048e-05
1.4048e-05
1.40481e-05
1.40482e-05
1.40483e-05
1.40484e-05
1.40486e-05
1.40489e-05
1.40492e-05
1.40496e-05
1.40502e-05
1.4051e-05
1.4052e-05
1.40533e-05
1.4055e-05
1.40573e-05
1.40603e-05
1.40642e-05
1.40695e-05
1.40764e-05
1.40856e-05
1.40976e-05
1.41136e-05
1.41346e-05
1.41624e-05
1.4199e-05
1.4247e-05
1.43099e-05
1.43921e-05
1.44989e-05
1.46368e-05
1.48135e-05
1.50375e-05
1.53179e-05
1.56635e-05
1.60818e-05
1.65779e-05
1.71511e-05
1.40479e-05
1.4048e-05
1.40481e-05
1.40481e-05
1.40482e-05
1.40484e-05
1.40486e-05
1.40488e-05
1.40491e-05
1.40495e-05
1.405e-05
1.40507e-05
1.40516e-05
1.40528e-05
1.40543e-05
1.40564e-05
1.4059e-05
1.40626e-05
1.40672e-05
1.40733e-05
1.40814e-05
1.4092e-05
1.4106e-05
1.41245e-05
1.41487e-05
1.41806e-05
1.42225e-05
1.42772e-05
1.43488e-05
1.44417e-05
1.4562e-05
1.47164e-05
1.49129e-05
1.51602e-05
1.54671e-05
1.58415e-05
1.62891e-05
1.6812e-05
1.74066e-05
1.80626e-05
1.87638e-05
1.4048e-05
1.40481e-05
1.40482e-05
1.40483e-05
1.40485e-05
1.40487e-05
1.4049e-05
1.40494e-05
1.40498e-05
1.40505e-05
1.40513e-05
1.40523e-05
1.40537e-05
1.40556e-05
1.4058e-05
1.40611e-05
1.40652e-05
1.40707e-05
1.40778e-05
1.40872e-05
1.40995e-05
1.41156e-05
1.41369e-05
1.41647e-05
1.42012e-05
1.42489e-05
1.43111e-05
1.4392e-05
1.44968e-05
1.46315e-05
1.48034e-05
1.50209e-05
1.52924e-05
1.56265e-05
1.603e-05
1.65073e-05
1.70579e-05
1.76749e-05
1.8344e-05
1.90444e-05
1.97477e-05
2.04226e-05
1.40482e-05
1.40483e-05
1.40485e-05
1.40487e-05
1.40489e-05
1.40493e-05
1.40497e-05
1.40503e-05
1.4051e-05
1.4052e-05
1.40532e-05
1.40549e-05
1.4057e-05
1.40598e-05
1.40635e-05
1.40683e-05
1.40746e-05
1.40829e-05
1.40938e-05
1.4108e-05
1.41266e-05
1.41509e-05
1.41828e-05
1.42244e-05
1.42785e-05
1.4349e-05
1.44401e-05
1.45575e-05
1.47077e-05
1.48983e-05
1.51376e-05
1.54341e-05
1.57956e-05
1.62281e-05
1.67339e-05
1.73106e-05
1.79485e-05
1.86307e-05
1.93336e-05
2.00258e-05
2.06703e-05
2.12323e-05
2.16947e-05
1.40486e-05
1.40488e-05
1.40492e-05
1.40496e-05
1.40501e-05
1.40507e-05
1.40516e-05
1.40528e-05
1.40542e-05
1.40562e-05
1.40587e-05
1.4062e-05
1.40663e-05
1.40719e-05
1.40792e-05
1.40888e-05
1.41013e-05
1.41176e-05
1.4139e-05
1.41668e-05
1.42031e-05
1.42503e-05
1.43116e-05
1.4391e-05
1.44933e-05
1.46243e-05
1.4791e-05
1.50012e-05
1.52632e-05
1.55851e-05
1.59741e-05
1.64347e-05
1.69677e-05
1.75682e-05
1.82239e-05
1.89159e-05
1.9619e-05
2.03001e-05
2.09222e-05
2.14528e-05
2.18742e-05
2.21863e-05
2.2408e-05
1.40491e-05
1.40494e-05
1.40499e-05
1.40505e-05
1.40513e-05
1.40524e-05
1.40537e-05
1.40554e-05
1.40577e-05
1.40607e-05
1.40645e-05
1.40695e-05
1.4076e-05
1.40845e-05
1.40955e-05
1.41099e-05
1.41286e-05
1.4153e-05
1.41847e-05
1.42259e-05
1.42794e-05
1.43485e-05
1.44376e-05
1.45518e-05
1.46974e-05
1.48816e-05
1.51122e-05
1.53975e-05
1.57452e-05
1.61613e-05
1.66492e-05
1.72075e-05
1.78291e-05
1.84994e-05
1.91977e-05
1.98974e-05
2.05646e-05
2.1163e-05
2.16639e-05
2.2054e-05
2.23381e-05
2.25333e-05
2.26601e-05
2.27405e-05
1.40498e-05
1.40503e-05
1.40511e-05
1.4052e-05
1.40532e-05
1.40548e-05
1.40569e-05
1.40595e-05
1.40629e-05
1.40674e-05
1.40732e-05
1.40807e-05
1.40905e-05
1.41032e-05
1.41196e-05
1.4141e-05
1.41688e-05
1.42049e-05
1.42515e-05
1.43118e-05
1.43894e-05
1.44889e-05
1.4616e-05
1.47771e-05
1.49796e-05
1.52314e-05
1.55405e-05
1.5914e-05
1.63568e-05
1.68705e-05
1.74522e-05
1.80921e-05
1.87736e-05
1.94749e-05
2.01679e-05
2.08183e-05
2.13916e-05
2.18628e-05
2.22238e-05
2.24827e-05
2.2658e-05
2.27707e-05
2.28397e-05
2.28792e-05
2.29011e-05
1.40508e-05
1.40517e-05
1.40528e-05
1.40542e-05
1.40561e-05
1.40585e-05
1.40616e-05
1.40656e-05
1.40707e-05
1.40774e-05
1.40861e-05
1.40973e-05
1.41119e-05
1.41307e-05
1.41551e-05
1.41866e-05
1.42274e-05
1.428e-05
1.43477e-05
1.44345e-05
1.45454e-05
1.46862e-05
1.48636e-05
1.50852e-05
1.53589e-05
1.56921e-05
1.60911e-05
1.65597e-05
1.70979e-05
1.77005e-05
1.83559e-05
1.90455e-05
1.97464e-05
2.04297e-05
2.1061e-05
2.16081e-05
2.20502e-05
2.23835e-05
2.26195e-05
2.27774e-05
2.28777e-05
2.29385e-05
2.29729e-05
2.29903e-05
2.29977e-05
2.29986e-05
1.40514e-05
1.40524e-05
1.40538e-05
1.40554e-05
1.40576e-05
1.40604e-05
1.4064e-05
1.40686e-05
1.40746e-05
1.40823e-05
1.40923e-05
1.41051e-05
1.41217e-05
1.41432e-05
1.41709e-05
1.42066e-05
1.42526e-05
1.43117e-05
1.43875e-05
1.44843e-05
1.46073e-05
1.47626e-05
1.49572e-05
1.51986e-05
1.54945e-05
1.58518e-05
1.6276e-05
1.67693e-05
1.73302e-05
1.79514e-05
1.86194e-05
1.93139e-05
2.00113e-05
2.06822e-05
2.12926e-05
2.18129e-05
2.22266e-05
2.25341e-05
2.2749e-05
2.28914e-05
2.29812e-05
2.30348e-05
2.30646e-05
2.30801e-05
2.30852e-05
2.30843e-05
2.30815e-05
2.30779e-05
1.40549e-05
1.40568e-05
1.40593e-05
1.40626e-05
1.40667e-05
1.40721e-05
1.4079e-05
1.40879e-05
1.40993e-05
1.4114e-05
1.41329e-05
1.41573e-05
1.41887e-05
1.4229e-05
1.42807e-05
1.43469e-05
1.44315e-05
1.45389e-05
1.46748e-05
1.48454e-05
1.50579e-05
1.53197e-05
1.56381e-05
1.60195e-05
1.64681e-05
1.69849e-05
1.75665e-05
1.82038e-05
1.88813e-05
1.95778e-05
2.02691e-05
2.09252e-05
2.15132e-05
2.20066e-05
2.2393e-05
2.26763e-05
2.28723e-05
2.30008e-05
2.3081e-05
2.31287e-05
2.31548e-05
2.31674e-05
2.31718e-05
2.31708e-05
2.31668e-05
2.31614e-05
2.31568e-05
2.31502e-05
1.40561e-05
1.40584e-05
1.40614e-05
1.40651e-05
1.40699e-05
1.40761e-05
1.4084e-05
1.40942e-05
1.41073e-05
1.4124e-05
1.41455e-05
1.41732e-05
1.42086e-05
1.42539e-05
1.43119e-05
1.43858e-05
1.44798e-05
1.45987e-05
1.47482e-05
1.49349e-05
1.51659e-05
1.54485e-05
1.57896e-05
1.61947e-05
1.66669e-05
1.72056e-05
1.78058e-05
1.84566e-05
1.91409e-05
1.98365e-05
2.0519e-05
2.11584e-05
2.1723e-05
2.21897e-05
2.255e-05
2.28111e-05
2.29897e-05
2.31059e-05
2.31779e-05
2.32201e-05
2.32431e-05
2.32544e-05
2.32566e-05
2.32552e-05
2.32522e-05
2.32466e-05
2.32395e-05
2.32334e-05
2.3229e-05
2.32206e-05
1.40637e-05
1.40681e-05
1.40736e-05
1.40807e-05
1.40898e-05
1.41014e-05
1.41163e-05
1.41354e-05
1.41598e-05
1.4191e-05
1.42308e-05
1.42817e-05
1.43465e-05
1.44288e-05
1.45328e-05
1.46639e-05
1.48278e-05
1.50312e-05
1.52813e-05
1.5585e-05
1.59487e-05
1.6377e-05
1.68716e-05
1.74305e-05
1.80471e-05
1.87088e-05
1.93971e-05
2.00894e-05
2.07609e-05
2.13818e-05
2.19224e-05
2.23629e-05
2.26985e-05
2.2939e-05
2.3102e-05
2.32072e-05
2.32719e-05
2.33096e-05
2.33296e-05
2.33388e-05
2.3341e-05
2.33392e-05
2.33348e-05
2.333e-05
2.33257e-05
2.33167e-05
2.33099e-05
2.33045e-05
2.32994e-05
2.32908e-05
1.40778e-05
1.4086e-05
1.40964e-05
1.41097e-05
1.41266e-05
1.41482e-05
1.41758e-05
1.42109e-05
1.42557e-05
1.43126e-05
1.43847e-05
1.44759e-05
1.45908e-05
1.47347e-05
1.49137e-05
1.51345e-05
1.54041e-05
1.57291e-05
1.61151e-05
1.65658e-05
1.70815e-05
1.76589e-05
1.82897e-05
1.89596e-05
1.96494e-05
2.03358e-05
2.09943e-05
2.15955e-05
2.21118e-05
2.25268e-05
2.28392e-05
2.30607e-05
2.32097e-05
2.33051e-05
2.33634e-05
2.33969e-05
2.34148e-05
2.34227e-05
2.34233e-05
2.34217e-05
2.34178e-05
2.3412e-05
2.34057e-05
2.34017e-05
2.33953e-05
2.33857e-05
2.33795e-05
2.3375e-05
2.33694e-05
2.33613e-05
1.41039e-05
1.4119e-05
1.41382e-05
1.41627e-05
1.41937e-05
1.42332e-05
1.42833e-05
1.43467e-05
1.44268e-05
1.45277e-05
1.46541e-05
1.48115e-05
1.50062e-05
1.52449e-05
1.55343e-05
1.58805e-05
1.62884e-05
1.67606e-05
1.72961e-05
1.789e-05
1.85325e-05
1.92082e-05
1.98969e-05
2.05754e-05
2.12191e-05
2.17997e-05
2.22916e-05
2.2682e-05
2.29727e-05
2.31769e-05
2.33131e-05
2.33998e-05
2.34524e-05
2.34825e-05
2.34979e-05
2.35046e-05
2.35051e-05
2.35027e-05
2.34984e-05
2.34944e-05
2.34881e-05
2.34808e-05
2.34749e-05
2.34712e-05
2.34635e-05
2.34542e-05
2.34487e-05
2.34448e-05
2.34392e-05
2.3432e-05
1.41513e-05
1.41789e-05
1.42138e-05
1.4258e-05
1.43139e-05
1.43845e-05
1.44731e-05
1.45842e-05
1.47228e-05
1.48944e-05
1.51055e-05
1.53625e-05
1.56718e-05
1.60391e-05
1.64683e-05
1.69608e-05
1.75144e-05
1.81228e-05
1.87748e-05
1.94539e-05
2.01392e-05
2.08078e-05
2.14353e-05
2.19945e-05
2.24623e-05
2.28292e-05
2.30996e-05
2.32879e-05
2.34127e-05
2.34917e-05
2.35392e-05
2.35661e-05
2.35801e-05
2.35853e-05
2.3585e-05
2.35829e-05
2.35784e-05
2.35727e-05
2.35679e-05
2.3564e-05
2.35555e-05
2.35486e-05
2.35433e-05
2.35394e-05
2.3531e-05
2.35225e-05
2.35177e-05
2.35142e-05
2.35087e-05
2.35025e-05
1.42363e-05
1.42857e-05
1.43479e-05
1.44261e-05
1.45239e-05
1.46459e-05
1.47973e-05
1.49838e-05
1.52116e-05
1.54872e-05
1.58165e-05
1.62045e-05
1.66543e-05
1.71659e-05
1.7736e-05
1.83568e-05
1.90159e-05
1.9696e-05
2.03759e-05
2.10328e-05
2.16429e-05
2.21802e-05
2.26244e-05
2.2969e-05
2.32205e-05
2.33944e-05
2.35089e-05
2.35808e-05
2.3624e-05
2.36481e-05
2.36601e-05
2.36647e-05
2.36642e-05
2.36612e-05
2.3657e-05
2.36528e-05
2.3646e-05
2.36397e-05
2.36354e-05
2.3631e-05
2.36217e-05
2.36156e-05
2.3611e-05
2.36065e-05
2.35981e-05
2.35904e-05
2.35864e-05
2.35828e-05
2.35778e-05
2.35726e-05
1.43854e-05
1.44718e-05
1.45794e-05
1.4713e-05
1.48778e-05
1.50797e-05
1.53247e-05
1.56191e-05
1.59683e-05
1.63766e-05
1.68459e-05
1.73753e-05
1.79599e-05
1.8591e-05
1.92551e-05
1.9934e-05
2.06065e-05
2.12503e-05
2.18421e-05
2.23573e-05
2.27785e-05
2.31019e-05
2.33359e-05
2.34966e-05
2.36018e-05
2.36676e-05
2.37067e-05
2.37284e-05
2.37392e-05
2.37424e-05
2.37416e-05
2.3739e-05
2.37343e-05
2.37288e-05
2.37246e-05
2.37194e-05
2.37113e-05
2.37055e-05
2.37019e-05
2.3696e-05
2.36869e-05
2.36814e-05
2.36776e-05
2.36725e-05
2.36648e-05
2.3658e-05
2.36544e-05
2.36507e-05
2.36464e-05
2.36424e-05
1.464e-05
1.47858e-05
1.49646e-05
1.51823e-05
1.54449e-05
1.57581e-05
1.6127e-05
1.65549e-05
1.70427e-05
1.75882e-05
1.81857e-05
1.8825e-05
1.94918e-05
2.01675e-05
2.08309e-05
2.14602e-05
2.2033e-05
2.25262e-05
2.2925e-05
2.32284e-05
2.34463e-05
2.35949e-05
2.36917e-05
2.37519e-05
2.37876e-05
2.3807e-05
2.38165e-05
2.38192e-05
2.3818e-05
2.38146e-05
2.38104e-05
2.38057e-05
2.37994e-05
2.37935e-05
2.37903e-05
2.37833e-05
2.37756e-05
2.37703e-05
2.37669e-05
2.37596e-05
2.37511e-05
2.37462e-05
2.37428e-05
2.37376e-05
2.37308e-05
2.3725e-05
2.37215e-05
2.37181e-05
2.37148e-05
2.37119e-05
1.50579e-05
1.52918e-05
1.55722e-05
1.59042e-05
1.62923e-05
1.6739e-05
1.7244e-05
1.78043e-05
1.84126e-05
1.90581e-05
1.97255e-05
2.03962e-05
2.10489e-05
2.16626e-05
2.22157e-05
2.26871e-05
2.30645e-05
2.33491e-05
2.3552e-05
2.36897e-05
2.37789e-05
2.38342e-05
2.38666e-05
2.38842e-05
2.38925e-05
2.38942e-05
2.38929e-05
2.38896e-05
2.38847e-05
2.38796e-05
2.38754e-05
2.38692e-05
2.38623e-05
2.38569e-05
2.38537e-05
2.38455e-05
2.38386e-05
2.38337e-05
2.38301e-05
2.38222e-05
2.38143e-05
2.381e-05
2.38068e-05
2.38017e-05
2.3796e-05
2.37913e-05
2.3788e-05
2.37853e-05
2.37832e-05
2.37817e-05
1.57066e-05
1.60573e-05
1.64641e-05
1.69285e-05
1.74496e-05
1.80227e-05
1.86401e-05
1.92897e-05
1.99558e-05
2.06196e-05
2.12603e-05
2.18575e-05
2.23907e-05
2.28405e-05
2.31974e-05
2.34643e-05
2.36534e-05
2.37811e-05
2.38635e-05
2.39143e-05
2.39439e-05
2.39597e-05
2.39669e-05
2.39682e-05
2.39664e-05
2.39627e-05
2.39583e-05
2.39531e-05
2.39469e-05
2.39422e-05
2.39383e-05
2.39303e-05
2.39238e-05
2.39193e-05
2.3915e-05
2.39061e-05
2.39e-05
2.38957e-05
2.38914e-05
2.38838e-05
2.38767e-05
2.38729e-05
2.38695e-05
2.3865e-05
2.38604e-05
2.38568e-05
2.38543e-05
2.38527e-05
2.38518e-05
2.38517e-05
1.66419e-05
1.71232e-05
1.76587e-05
1.82432e-05
1.88676e-05
1.95193e-05
2.01824e-05
2.08377e-05
2.14652e-05
2.20451e-05
2.25582e-05
2.29869e-05
2.33241e-05
2.35745e-05
2.3751e-05
2.38695e-05
2.39457e-05
2.39925e-05
2.40195e-05
2.40338e-05
2.40401e-05
2.40405e-05
2.40387e-05
2.40349e-05
2.40299e-05
2.40249e-05
2.40201e-05
2.40137e-05
2.40071e-05
2.4003e-05
2.39984e-05
2.39897e-05
2.39839e-05
2.39801e-05
2.39741e-05
2.39653e-05
2.39598e-05
2.39561e-05
2.39512e-05
2.39443e-05
2.39383e-05
2.39347e-05
2.39314e-05
2.39278e-05
2.39246e-05
2.39222e-05
2.39208e-05
2.39203e-05
2.39206e-05
2.39219e-05
1.78711e-05
1.8465e-05
1.90946e-05
1.97467e-05
2.04048e-05
2.10503e-05
2.16635e-05
2.22256e-05
2.27185e-05
2.31267e-05
2.34452e-05
2.36802e-05
2.38449e-05
2.39551e-05
2.40257e-05
2.40688e-05
2.40935e-05
2.41064e-05
2.41117e-05
2.41119e-05
2.41096e-05
2.41055e-05
2.41008e-05
2.40954e-05
2.40894e-05
2.40846e-05
2.40799e-05
2.4072e-05
2.40658e-05
2.40623e-05
2.40557e-05
2.40476e-05
2.40424e-05
2.40388e-05
2.40315e-05
2.40232e-05
2.40182e-05
2.40148e-05
2.40098e-05
2.40039e-05
2.3999e-05
2.39957e-05
2.3993e-05
2.39906e-05
2.39886e-05
2.39875e-05
2.39873e-05
2.3988e-05
2.39898e-05
2.3993e-05
1.93208e-05
1.99714e-05
2.0623e-05
2.12574e-05
2.18554e-05
2.23992e-05
2.2872e-05
2.32603e-05
2.35611e-05
2.37816e-05
2.39355e-05
2.40381e-05
2.41035e-05
2.41434e-05
2.4166e-05
2.41777e-05
2.41821e-05
2.41818e-05
2.41793e-05
2.4175e-05
2.41699e-05
2.41646e-05
2.41594e-05
2.41531e-05
2.41467e-05
2.41428e-05
2.41366e-05
2.41288e-05
2.4123e-05
2.41195e-05
2.41113e-05
2.41039e-05
2.4099e-05
2.40952e-05
2.40878e-05
2.40802e-05
2.40757e-05
2.40722e-05
2.40676e-05
2.40628e-05
2.4059e-05
2.40564e-05
2.40546e-05
2.40533e-05
2.40526e-05
2.40527e-05
2.40539e-05
2.40563e-05
2.40599e-05
2.4065e-05
2.0837e-05
2.1459e-05
2.20411e-05
2.25662e-05
2.30192e-05
2.33883e-05
2.36722e-05
2.38792e-05
2.40231e-05
2.41187e-05
2.41795e-05
2.42164e-05
2.42371e-05
2.42476e-05
2.42513e-05
2.42506e-05
2.42477e-05
2.42432e-05
2.42383e-05
2.42327e-05
2.42267e-05
2.42215e-05
2.42162e-05
2.42086e-05
2.42025e-05
2.4199e-05
2.41909e-05
2.4184e-05
2.41788e-05
2.41742e-05
2.41654e-05
2.41586e-05
2.41542e-05
2.41498e-05
2.41429e-05
2.41363e-05
2.41322e-05
2.41287e-05
2.4125e-05
2.41214e-05
2.41187e-05
2.4117e-05
2.41161e-05
2.4116e-05
2.41167e-05
2.41184e-05
2.41214e-05
2.41256e-05
2.41313e-05
2.41386e-05
2.22209e-05
2.27273e-05
2.31606e-05
2.35111e-05
2.3779e-05
2.39735e-05
2.41082e-05
2.41974e-05
2.4254e-05
2.4288e-05
2.43071e-05
2.43165e-05
2.43194e-05
2.43184e-05
2.43153e-05
2.43106e-05
2.43053e-05
2.42998e-05
2.42941e-05
2.42878e-05
2.42815e-05
2.42772e-05
2.42701e-05
2.42628e-05
2.42573e-05
2.42527e-05
2.42437e-05
2.42377e-05
2.42331e-05
2.4227e-05
2.42183e-05
2.42121e-05
2.42083e-05
2.42034e-05
2.41973e-05
2.41918e-05
2.4188e-05
2.41851e-05
2.41823e-05
2.41799e-05
2.41782e-05
2.41776e-05
2.41779e-05
2.41792e-05
2.41816e-05
2.41851e-05
2.419e-05
2.41964e-05
2.42043e-05
2.4214e-05
2.28831e-05
2.3297e-05
2.36297e-05
2.38824e-05
2.40651e-05
2.41912e-05
2.42746e-05
2.43272e-05
2.43588e-05
2.43763e-05
2.43848e-05
2.4387e-05
2.43858e-05
2.43822e-05
2.43774e-05
2.43721e-05
2.43663e-05
2.43601e-05
2.43545e-05
2.43488e-05
2.43414e-05
2.43355e-05
2.43311e-05
2.43225e-05
2.43158e-05
2.43112e-05
2.43045e-05
2.42956e-05
2.429e-05
2.42858e-05
2.4279e-05
2.42709e-05
2.42652e-05
2.42614e-05
2.42566e-05
2.42515e-05
2.42471e-05
2.42439e-05
2.42416e-05
2.42397e-05
2.42383e-05
2.4238e-05
2.42386e-05
2.42404e-05
2.42434e-05
2.42477e-05
2.42532e-05
2.42603e-05
2.42689e-05
2.42791e-05
2.42912e-05
2.37451e-05
2.39835e-05
2.41551e-05
2.42732e-05
2.43511e-05
2.44002e-05
2.44296e-05
2.44456e-05
2.44532e-05
2.44548e-05
2.44532e-05
2.44495e-05
2.44445e-05
2.44389e-05
2.44331e-05
2.44271e-05
2.44206e-05
2.44143e-05
2.44092e-05
2.44021e-05
2.43946e-05
2.43894e-05
2.43835e-05
2.43747e-05
2.43685e-05
2.43641e-05
2.43558e-05
2.43474e-05
2.43421e-05
2.43378e-05
2.4331e-05
2.43236e-05
2.43184e-05
2.43145e-05
2.43103e-05
2.43061e-05
2.43027e-05
2.43002e-05
2.42986e-05
2.42977e-05
2.42977e-05
2.42987e-05
2.43009e-05
2.43044e-05
2.43092e-05
2.43154e-05
2.43231e-05
2.43324e-05
2.43433e-05
2.43559e-05
2.43704e-05
2.40839e-05
2.42451e-05
2.43558e-05
2.44286e-05
2.44744e-05
2.45017e-05
2.45164e-05
2.45232e-05
2.45242e-05
2.45224e-05
2.45184e-05
2.45132e-05
2.45077e-05
2.45016e-05
2.44953e-05
2.44893e-05
2.44831e-05
2.44757e-05
2.44697e-05
2.44646e-05
2.4456e-05
2.4449e-05
2.44443e-05
2.44361e-05
2.44279e-05
2.4422e-05
2.44171e-05
2.44083e-05
2.44003e-05
2.43954e-05
2.43905e-05
2.4384e-05
2.43776e-05
2.43728e-05
2.43689e-05
2.43653e-05
2.43619e-05
2.43593e-05
2.43577e-05
2.4357e-05
2.43574e-05
2.43587e-05
2.43613e-05
2.43651e-05
2.43704e-05
2.43771e-05
2.43853e-05
2.43951e-05
2.44066e-05
2.44198e-05
2.44348e-05
2.44517e-05
2.44417e-05
2.45098e-05
2.45525e-05
2.45778e-05
2.45915e-05
2.45975e-05
2.45981e-05
2.4596e-05
2.45918e-05
2.45866e-05
2.45808e-05
2.45748e-05
2.45686e-05
2.45621e-05
2.45554e-05
2.45496e-05
2.45424e-05
2.45347e-05
2.45293e-05
2.45225e-05
2.45138e-05
2.4507e-05
2.45018e-05
2.4492e-05
2.44844e-05
2.44788e-05
2.44728e-05
2.44641e-05
2.44565e-05
2.44516e-05
2.44462e-05
2.44401e-05
2.44344e-05
2.44298e-05
2.44262e-05
2.4423e-05
2.44203e-05
2.44185e-05
2.44178e-05
2.44182e-05
2.44197e-05
2.44225e-05
2.44265e-05
2.4432e-05
2.4439e-05
2.44476e-05
2.44577e-05
2.44696e-05
2.44832e-05
2.44987e-05
2.45159e-05
2.4535e-05
2.46393e-05
2.46629e-05
2.46756e-05
2.4681e-05
2.46812e-05
2.4679e-05
2.46747e-05
2.46695e-05
2.46639e-05
2.46579e-05
2.46515e-05
2.46451e-05
2.46387e-05
2.46313e-05
2.46248e-05
2.4619e-05
2.46101e-05
2.46025e-05
2.45972e-05
2.45878e-05
2.45797e-05
2.45732e-05
2.45659e-05
2.45557e-05
2.4548e-05
2.45423e-05
2.45351e-05
2.45265e-05
2.45191e-05
2.45135e-05
2.45078e-05
2.45019e-05
2.44965e-05
2.4492e-05
2.44884e-05
2.44856e-05
2.44835e-05
2.44824e-05
2.44825e-05
2.44837e-05
2.44863e-05
2.44903e-05
2.44957e-05
2.45026e-05
2.45112e-05
2.45214e-05
2.45334e-05
2.45472e-05
2.45627e-05
2.45801e-05
2.45994e-05
2.46205e-05
2.47771e-05
2.4782e-05
2.47821e-05
2.47799e-05
2.47759e-05
2.4771e-05
2.47656e-05
2.47598e-05
2.47538e-05
2.47473e-05
2.47405e-05
2.47342e-05
2.47271e-05
2.47188e-05
2.47126e-05
2.47048e-05
2.46955e-05
2.46878e-05
2.46806e-05
2.46694e-05
2.4661e-05
2.46542e-05
2.46445e-05
2.46336e-05
2.46254e-05
2.46185e-05
2.46099e-05
2.4601e-05
2.4593e-05
2.45862e-05
2.45797e-05
2.45734e-05
2.45678e-05
2.4563e-05
2.45592e-05
2.45564e-05
2.45545e-05
2.45538e-05
2.45542e-05
2.45559e-05
2.45592e-05
2.4564e-05
2.45704e-05
2.45784e-05
2.45882e-05
2.45998e-05
2.46132e-05
2.46285e-05
2.46456e-05
2.46646e-05
2.46855e-05
2.47082e-05
2.49154e-05
2.49136e-05
2.49103e-05
2.49062e-05
2.49015e-05
2.48964e-05
2.48908e-05
2.48849e-05
2.48786e-05
2.48715e-05
2.48646e-05
2.48581e-05
2.48488e-05
2.48402e-05
2.48333e-05
2.48221e-05
2.48124e-05
2.48041e-05
2.47929e-05
2.47805e-05
2.47706e-05
2.47616e-05
2.47495e-05
2.47371e-05
2.4727e-05
2.47171e-05
2.47065e-05
2.46959e-05
2.46861e-05
2.46772e-05
2.4669e-05
2.46612e-05
2.46543e-05
2.46483e-05
2.46435e-05
2.46398e-05
2.46374e-05
2.46363e-05
2.46364e-05
2.46381e-05
2.46413e-05
2.46462e-05
2.46529e-05
2.46614e-05
2.46718e-05
2.46841e-05
2.46983e-05
2.47145e-05
2.47327e-05
2.47527e-05
2.47747e-05
2.47985e-05
2.51024e-05
2.51e-05
2.5097e-05
2.50933e-05
2.5089e-05
2.50841e-05
2.50783e-05
2.50722e-05
2.50654e-05
2.5057e-05
2.50497e-05
2.50407e-05
2.50296e-05
2.50198e-05
2.5009e-05
2.4995e-05
2.49831e-05
2.49718e-05
2.49565e-05
2.49411e-05
2.4928e-05
2.49141e-05
2.48985e-05
2.4883e-05
2.48683e-05
2.48539e-05
2.48392e-05
2.48249e-05
2.48112e-05
2.47984e-05
2.47864e-05
2.47753e-05
2.47651e-05
2.47563e-05
2.47488e-05
2.47428e-05
2.47383e-05
2.47353e-05
2.4734e-05
2.47344e-05
2.47365e-05
2.47405e-05
2.47465e-05
2.47544e-05
2.47643e-05
2.47764e-05
2.47905e-05
2.48068e-05
2.48251e-05
2.48454e-05
2.48677e-05
2.48918e-05
2.53907e-05
2.53896e-05
2.53876e-05
2.53847e-05
2.53808e-05
2.53756e-05
2.53692e-05
2.53624e-05
2.5353e-05
2.53428e-05
2.53333e-05
2.53191e-05
2.53053e-05
2.52924e-05
2.52749e-05
2.52568e-05
2.524e-05
2.52219e-05
2.52011e-05
2.51801e-05
2.51601e-05
2.51387e-05
2.51166e-05
2.50943e-05
2.50724e-05
2.50506e-05
2.50288e-05
2.50074e-05
2.49867e-05
2.4967e-05
2.49482e-05
2.49305e-05
2.49141e-05
2.48992e-05
2.48862e-05
2.4875e-05
2.48659e-05
2.48588e-05
2.48538e-05
2.48508e-05
2.48501e-05
2.48515e-05
2.48552e-05
2.48611e-05
2.48692e-05
2.48796e-05
2.48924e-05
2.49074e-05
2.49247e-05
2.49442e-05
2.49657e-05
2.49891e-05
2.5841e-05
2.58394e-05
2.58364e-05
2.58317e-05
2.5825e-05
2.58165e-05
2.58063e-05
2.57923e-05
2.57783e-05
2.5762e-05
2.57414e-05
2.57216e-05
2.57007e-05
2.56753e-05
2.56491e-05
2.5623e-05
2.55942e-05
2.55643e-05
2.55332e-05
2.55015e-05
2.54688e-05
2.54354e-05
2.54017e-05
2.53681e-05
2.53346e-05
2.53011e-05
2.52681e-05
2.52358e-05
2.52047e-05
2.51748e-05
2.51463e-05
2.51194e-05
2.50944e-05
2.50715e-05
2.5051e-05
2.5033e-05
2.50178e-05
2.50055e-05
2.49961e-05
2.49896e-05
2.49859e-05
2.49848e-05
2.49864e-05
2.49907e-05
2.49977e-05
2.50072e-05
2.50193e-05
2.50339e-05
2.50509e-05
2.50703e-05
2.50916e-05
2.65118e-05
2.65086e-05
2.65028e-05
2.64947e-05
2.64832e-05
2.64696e-05
2.6451e-05
2.64298e-05
2.64086e-05
2.63808e-05
2.6351e-05
2.63207e-05
2.62866e-05
2.62501e-05
2.62112e-05
2.61701e-05
2.61269e-05
2.60819e-05
2.60354e-05
2.59876e-05
2.59384e-05
2.58881e-05
2.58372e-05
2.57862e-05
2.57352e-05
2.56844e-05
2.5634e-05
2.55844e-05
2.55361e-05
2.54894e-05
2.54444e-05
2.54016e-05
2.53611e-05
2.53233e-05
2.52884e-05
2.52566e-05
2.52281e-05
2.52032e-05
2.51822e-05