/*--------------------------------*- C++ -*----------------------------------*\
| =========                 |                                                 |
| \\      /  F ield         | OpenFOAM: The Open Source CFD Toolbox           |
|  \\    /   O peration     | Version:  v1706                                 |
|   \\  /    A nd           | Web:      www.OpenFOAM.com                      |
|    \\/     M anipulation  |                                                 |
\*---------------------------------------------------------------------------*/
FoamFile
{
    version     2.0;
    format      ascii;
    class       volScalarField;
    location    "1.3e-05";
    object      mu;
}
// * * * * * * * * * * * * * * * * * * * * * * * * * * * * * * * * * * * * * //

dimensions      [1 -1 -1 0 0 0 0];


internalField   nonuniform List<scalar> 
30038
(
1.0351e-05
1.0351e-05
1.0351e-05
1.0351e-05
1.0351e-05
1.0351e-05
1.0351e-05
1.0351e-05
1.0351e-05
1.0351e-05
1.0351e-05
1.0351e-05
1.0351e-05
1.0351e-05
1.0351e-05
1.0351e-05
1.0351e-05
1.0351e-05
1.0351e-05
1.0351e-05
1.0351e-05
1.0351e-05
1.0351e-05
1.0351e-05
1.0351e-05
1.0351e-05
1.0351e-05
1.0351e-05
1.0351e-05
1.0351e-05
1.0351e-05
1.0351e-05
1.0351e-05
1.0351e-05
1.0351e-05
1.0351e-05
1.0351e-05
1.0351e-05
1.0351e-05
1.0351e-05
1.0351e-05
1.0351e-05
1.0351e-05
1.0351e-05
1.0351e-05
1.0351e-05
1.0351e-05
1.0351e-05
1.0351e-05
1.0351e-05
1.0351e-05
1.0351e-05
1.0351e-05
1.0351e-05
1.0351e-05
1.0351e-05
1.0351e-05
1.0351e-05
1.0351e-05
1.0351e-05
1.0351e-05
1.0351e-05
1.0351e-05
1.0351e-05
1.0351e-05
1.0351e-05
1.0351e-05
1.0351e-05
1.0351e-05
1.0351e-05
1.0351e-05
1.0351e-05
1.0351e-05
1.0351e-05
1.0351e-05
1.0351e-05
1.0351e-05
1.0351e-05
1.0351e-05
1.0351e-05
1.0351e-05
1.0351e-05
1.0351e-05
1.0351e-05
1.0351e-05
1.0351e-05
1.0351e-05
1.0351e-05
1.0351e-05
1.0351e-05
1.0351e-05
1.0351e-05
1.0351e-05
1.0351e-05
1.0351e-05
1.0351e-05
1.0351e-05
1.0351e-05
1.0351e-05
1.0351e-05
1.0351e-05
1.0351e-05
1.0351e-05
1.0351e-05
1.0351e-05
1.0351e-05
1.0351e-05
1.0351e-05
1.0351e-05
1.0351e-05
1.0351e-05
1.0351e-05
1.0351e-05
1.0351e-05
1.0351e-05
1.0351e-05
1.0351e-05
1.0351e-05
1.0351e-05
1.0351e-05
1.0351e-05
1.0351e-05
1.0351e-05
1.0351e-05
1.0351e-05
1.0351e-05
1.0351e-05
1.0351e-05
1.0351e-05
1.0351e-05
1.0351e-05
1.0351e-05
1.0351e-05
1.0351e-05
1.0351e-05
1.0351e-05
1.0351e-05
1.0351e-05
1.0351e-05
1.0351e-05
1.0351e-05
1.0351e-05
1.0351e-05
1.0351e-05
1.0351e-05
1.0351e-05
1.0351e-05
1.0351e-05
1.0351e-05
1.0351e-05
1.0351e-05
1.0351e-05
1.0351e-05
1.0351e-05
1.0351e-05
1.0351e-05
1.0351e-05
1.0351e-05
1.0351e-05
1.0351e-05
1.0351e-05
1.0351e-05
1.0351e-05
1.0351e-05
1.0351e-05
1.0351e-05
1.0351e-05
1.0351e-05
1.0351e-05
1.0351e-05
1.0351e-05
1.0351e-05
1.0351e-05
1.0351e-05
1.0351e-05
1.0351e-05
1.0351e-05
1.0351e-05
1.0351e-05
1.0351e-05
1.0351e-05
1.0351e-05
1.0351e-05
1.0351e-05
1.0351e-05
1.0351e-05
1.0351e-05
1.0351e-05
1.03511e-05
1.03511e-05
1.0351e-05
1.0351e-05
1.0351e-05
1.0351e-05
1.0351e-05
1.0351e-05
1.0351e-05
1.0351e-05
1.0351e-05
1.0351e-05
1.0351e-05
1.0351e-05
1.0351e-05
1.0351e-05
1.0351e-05
1.0351e-05
1.0351e-05
1.0351e-05
1.0351e-05
1.0351e-05
1.0351e-05
1.0351e-05
1.0351e-05
1.0351e-05
1.0351e-05
1.0351e-05
1.0351e-05
1.0351e-05
1.0351e-05
1.0351e-05
1.0351e-05
1.0351e-05
1.0351e-05
1.0351e-05
1.03511e-05
1.03511e-05
1.03511e-05
1.03512e-05
1.0351e-05
1.0351e-05
1.0351e-05
1.0351e-05
1.0351e-05
1.0351e-05
1.0351e-05
1.0351e-05
1.0351e-05
1.0351e-05
1.0351e-05
1.0351e-05
1.0351e-05
1.0351e-05
1.0351e-05
1.0351e-05
1.0351e-05
1.0351e-05
1.0351e-05
1.0351e-05
1.0351e-05
1.0351e-05
1.0351e-05
1.0351e-05
1.0351e-05
1.0351e-05
1.0351e-05
1.0351e-05
1.0351e-05
1.0351e-05
1.0351e-05
1.03511e-05
1.03511e-05
1.03511e-05
1.03511e-05
1.03512e-05
1.03513e-05
1.03514e-05
1.0351e-05
1.0351e-05
1.0351e-05
1.0351e-05
1.0351e-05
1.0351e-05
1.0351e-05
1.0351e-05
1.0351e-05
1.0351e-05
1.0351e-05
1.0351e-05
1.0351e-05
1.0351e-05
1.0351e-05
1.0351e-05
1.0351e-05
1.0351e-05
1.0351e-05
1.0351e-05
1.0351e-05
1.0351e-05
1.0351e-05
1.0351e-05
1.0351e-05
1.0351e-05
1.0351e-05
1.0351e-05
1.03511e-05
1.03511e-05
1.03511e-05
1.03511e-05
1.03512e-05
1.03513e-05
1.03513e-05
1.03515e-05
1.03516e-05
1.03519e-05
1.0351e-05
1.0351e-05
1.0351e-05
1.0351e-05
1.0351e-05
1.0351e-05
1.0351e-05
1.0351e-05
1.0351e-05
1.0351e-05
1.0351e-05
1.0351e-05
1.0351e-05
1.0351e-05
1.0351e-05
1.0351e-05
1.0351e-05
1.0351e-05
1.0351e-05
1.0351e-05
1.0351e-05
1.0351e-05
1.0351e-05
1.0351e-05
1.0351e-05
1.0351e-05
1.03511e-05
1.03511e-05
1.03511e-05
1.03511e-05
1.03512e-05
1.03512e-05
1.03513e-05
1.03514e-05
1.03516e-05
1.03518e-05
1.0352e-05
1.03524e-05
1.03529e-05
1.0351e-05
1.0351e-05
1.0351e-05
1.0351e-05
1.0351e-05
1.0351e-05
1.0351e-05
1.0351e-05
1.0351e-05
1.0351e-05
1.0351e-05
1.0351e-05
1.0351e-05
1.0351e-05
1.0351e-05
1.0351e-05
1.0351e-05
1.0351e-05
1.0351e-05
1.0351e-05
1.0351e-05
1.0351e-05
1.0351e-05
1.03511e-05
1.03511e-05
1.03511e-05
1.03511e-05
1.03512e-05
1.03512e-05
1.03513e-05
1.03514e-05
1.03515e-05
1.03517e-05
1.03519e-05
1.03523e-05
1.03527e-05
1.03533e-05
1.03542e-05
1.03553e-05
1.0351e-05
1.0351e-05
1.0351e-05
1.0351e-05
1.0351e-05
1.0351e-05
1.0351e-05
1.0351e-05
1.0351e-05
1.0351e-05
1.0351e-05
1.0351e-05
1.0351e-05
1.0351e-05
1.0351e-05
1.0351e-05
1.0351e-05
1.0351e-05
1.0351e-05
1.0351e-05
1.0351e-05
1.03511e-05
1.03511e-05
1.03511e-05
1.03512e-05
1.03512e-05
1.03513e-05
1.03514e-05
1.03515e-05
1.03516e-05
1.03519e-05
1.03522e-05
1.03526e-05
1.03531e-05
1.03538e-05
1.03548e-05
1.03561e-05
1.03579e-05
1.03604e-05
1.0351e-05
1.0351e-05
1.0351e-05
1.0351e-05
1.0351e-05
1.0351e-05
1.0351e-05
1.0351e-05
1.0351e-05
1.0351e-05
1.0351e-05
1.0351e-05
1.0351e-05
1.0351e-05
1.0351e-05
1.0351e-05
1.0351e-05
1.0351e-05
1.0351e-05
1.03511e-05
1.03511e-05
1.03511e-05
1.03511e-05
1.03512e-05
1.03513e-05
1.03513e-05
1.03514e-05
1.03516e-05
1.03518e-05
1.03521e-05
1.03524e-05
1.03529e-05
1.03536e-05
1.03544e-05
1.03556e-05
1.03572e-05
1.03593e-05
1.03622e-05
1.03661e-05
1.03714e-05
1.0351e-05
1.0351e-05
1.0351e-05
1.0351e-05
1.0351e-05
1.0351e-05
1.0351e-05
1.0351e-05
1.0351e-05
1.0351e-05
1.0351e-05
1.0351e-05
1.0351e-05
1.0351e-05
1.0351e-05
1.0351e-05
1.03511e-05
1.03511e-05
1.03511e-05
1.03511e-05
1.03512e-05
1.03512e-05
1.03513e-05
1.03514e-05
1.03515e-05
1.03517e-05
1.0352e-05
1.03523e-05
1.03527e-05
1.03533e-05
1.03541e-05
1.03552e-05
1.03566e-05
1.03585e-05
1.0361e-05
1.03644e-05
1.0369e-05
1.03751e-05
1.03835e-05
1.03948e-05
1.0351e-05
1.0351e-05
1.0351e-05
1.0351e-05
1.0351e-05
1.0351e-05
1.0351e-05
1.0351e-05
1.0351e-05
1.0351e-05
1.0351e-05
1.0351e-05
1.0351e-05
1.03511e-05
1.03511e-05
1.03511e-05
1.03511e-05
1.03512e-05
1.03512e-05
1.03513e-05
1.03514e-05
1.03515e-05
1.03517e-05
1.03519e-05
1.03522e-05
1.03526e-05
1.03531e-05
1.03538e-05
1.03548e-05
1.0356e-05
1.03577e-05
1.036e-05
1.0363e-05
1.0367e-05
1.03724e-05
1.03796e-05
1.03893e-05
1.04023e-05
1.04197e-05
1.04432e-05
1.0351e-05
1.0351e-05
1.0351e-05
1.0351e-05
1.0351e-05
1.0351e-05
1.0351e-05
1.0351e-05
1.0351e-05
1.0351e-05
1.03511e-05
1.03511e-05
1.03511e-05
1.03511e-05
1.03512e-05
1.03512e-05
1.03513e-05
1.03514e-05
1.03515e-05
1.03516e-05
1.03518e-05
1.03521e-05
1.03524e-05
1.03529e-05
1.03536e-05
1.03544e-05
1.03555e-05
1.0357e-05
1.0359e-05
1.03617e-05
1.03653e-05
1.037e-05
1.03764e-05
1.03849e-05
1.03962e-05
1.04112e-05
1.04313e-05
1.04581e-05
1.04939e-05
1.05416e-05
1.0351e-05
1.0351e-05
1.0351e-05
1.0351e-05
1.0351e-05
1.0351e-05
1.0351e-05
1.03511e-05
1.03511e-05
1.03511e-05
1.03511e-05
1.03511e-05
1.03512e-05
1.03513e-05
1.03513e-05
1.03514e-05
1.03516e-05
1.03518e-05
1.0352e-05
1.03523e-05
1.03528e-05
1.03533e-05
1.03541e-05
1.03551e-05
1.03564e-05
1.03582e-05
1.03606e-05
1.03637e-05
1.0368e-05
1.03736e-05
1.0381e-05
1.03909e-05
1.04041e-05
1.04216e-05
1.04449e-05
1.04757e-05
1.05165e-05
1.05704e-05
1.06414e-05
1.07346e-05
1.0351e-05
1.0351e-05
1.0351e-05
1.0351e-05
1.0351e-05
1.03511e-05
1.03511e-05
1.03511e-05
1.03511e-05
1.03512e-05
1.03512e-05
1.03513e-05
1.03514e-05
1.03515e-05
1.03517e-05
1.03519e-05
1.03522e-05
1.03526e-05
1.03531e-05
1.03538e-05
1.03547e-05
1.03559e-05
1.03575e-05
1.03596e-05
1.03624e-05
1.03661e-05
1.03711e-05
1.03776e-05
1.03863e-05
1.03979e-05
1.04132e-05
1.04335e-05
1.04604e-05
1.04958e-05
1.05425e-05
1.06038e-05
1.06838e-05
1.07878e-05
1.0922e-05
1.10938e-05
1.0351e-05
1.0351e-05
1.03511e-05
1.03511e-05
1.03511e-05
1.03511e-05
1.03512e-05
1.03512e-05
1.03513e-05
1.03514e-05
1.03515e-05
1.03517e-05
1.03519e-05
1.03521e-05
1.03525e-05
1.03529e-05
1.03536e-05
1.03544e-05
1.03554e-05
1.03569e-05
1.03587e-05
1.03612e-05
1.03645e-05
1.03689e-05
1.03747e-05
1.03823e-05
1.03925e-05
1.04059e-05
1.04236e-05
1.0447e-05
1.04779e-05
1.05186e-05
1.05719e-05
1.06415e-05
1.07318e-05
1.08483e-05
1.09971e-05
1.11853e-05
1.14201e-05
1.17083e-05
1.03511e-05
1.03511e-05
1.03511e-05
1.03511e-05
1.03512e-05
1.03512e-05
1.03513e-05
1.03514e-05
1.03515e-05
1.03516e-05
1.03518e-05
1.0352e-05
1.03524e-05
1.03528e-05
1.03533e-05
1.03541e-05
1.0355e-05
1.03563e-05
1.0358e-05
1.03602e-05
1.03631e-05
1.0367e-05
1.03721e-05
1.03788e-05
1.03877e-05
1.03995e-05
1.0415e-05
1.04355e-05
1.04624e-05
1.04978e-05
1.05441e-05
1.06047e-05
1.06834e-05
1.0785e-05
1.09152e-05
1.10803e-05
1.12869e-05
1.15415e-05
1.18497e-05
1.22153e-05
1.26377e-05
1.03511e-05
1.03512e-05
1.03512e-05
1.03513e-05
1.03513e-05
1.03514e-05
1.03516e-05
1.03517e-05
1.0352e-05
1.03523e-05
1.03526e-05
1.03531e-05
1.03538e-05
1.03547e-05
1.03558e-05
1.03573e-05
1.03593e-05
1.03619e-05
1.03653e-05
1.03698e-05
1.03758e-05
1.03836e-05
1.03939e-05
1.04075e-05
1.04254e-05
1.04489e-05
1.04797e-05
1.05201e-05
1.05728e-05
1.06413e-05
1.07299e-05
1.08436e-05
1.09884e-05
1.11706e-05
1.13968e-05
1.16727e-05
1.20025e-05
1.23878e-05
1.28259e-05
1.33093e-05
1.38259e-05
1.03512e-05
1.03512e-05
1.03513e-05
1.03514e-05
1.03515e-05
1.03517e-05
1.03519e-05
1.03522e-05
1.03525e-05
1.0353e-05
1.03536e-05
1.03544e-05
1.03554e-05
1.03567e-05
1.03585e-05
1.03608e-05
1.03639e-05
1.03679e-05
1.03731e-05
1.038e-05
1.03891e-05
1.0401e-05
1.04166e-05
1.04372e-05
1.0464e-05
1.04992e-05
1.0545e-05
1.06047e-05
1.06818e-05
1.07811e-05
1.09078e-05
1.1068e-05
1.12681e-05
1.15142e-05
1.18116e-05
1.21633e-05
1.2569e-05
1.30236e-05
1.35166e-05
1.40327e-05
1.45509e-05
1.50482e-05
1.03513e-05
1.03514e-05
1.03515e-05
1.03516e-05
1.03518e-05
1.03521e-05
1.03524e-05
1.03528e-05
1.03534e-05
1.03541e-05
1.0355e-05
1.03562e-05
1.03578e-05
1.03599e-05
1.03626e-05
1.03661e-05
1.03708e-05
1.03769e-05
1.03849e-05
1.03953e-05
1.0409e-05
1.0427e-05
1.04505e-05
1.04811e-05
1.0521e-05
1.05729e-05
1.06401e-05
1.07266e-05
1.08373e-05
1.09777e-05
1.1154e-05
1.13725e-05
1.16389e-05
1.19575e-05
1.23303e-05
1.27552e-05
1.32252e-05
1.37279e-05
1.42458e-05
1.47559e-05
1.52308e-05
1.56448e-05
1.59856e-05
1.03516e-05
1.03518e-05
1.0352e-05
1.03523e-05
1.03527e-05
1.03532e-05
1.03538e-05
1.03547e-05
1.03558e-05
1.03572e-05
1.0359e-05
1.03615e-05
1.03646e-05
1.03688e-05
1.03742e-05
1.03812e-05
1.03904e-05
1.04025e-05
1.04182e-05
1.04387e-05
1.04654e-05
1.05002e-05
1.05454e-05
1.06039e-05
1.06792e-05
1.07758e-05
1.08986e-05
1.10535e-05
1.12465e-05
1.14838e-05
1.17704e-05
1.21098e-05
1.25025e-05
1.2945e-05
1.34281e-05
1.3938e-05
1.44561e-05
1.4958e-05
1.54164e-05
1.58073e-05
1.61178e-05
1.63478e-05
1.65112e-05
1.03519e-05
1.03522e-05
1.03526e-05
1.0353e-05
1.03536e-05
1.03544e-05
1.03554e-05
1.03566e-05
1.03583e-05
1.03605e-05
1.03633e-05
1.0367e-05
1.03718e-05
1.0378e-05
1.03862e-05
1.03968e-05
1.04106e-05
1.04285e-05
1.04519e-05
1.04823e-05
1.05216e-05
1.05726e-05
1.06382e-05
1.07224e-05
1.08297e-05
1.09654e-05
1.11353e-05
1.13455e-05
1.16017e-05
1.19084e-05
1.22678e-05
1.26792e-05
1.31373e-05
1.36311e-05
1.41457e-05
1.46613e-05
1.51528e-05
1.55938e-05
1.59629e-05
1.62503e-05
1.64596e-05
1.66035e-05
1.66969e-05
1.67561e-05
1.03525e-05
1.03529e-05
1.03534e-05
1.03541e-05
1.0355e-05
1.03562e-05
1.03577e-05
1.03596e-05
1.03622e-05
1.03654e-05
1.03697e-05
1.03753e-05
1.03824e-05
1.03918e-05
1.04039e-05
1.04197e-05
1.04402e-05
1.04667e-05
1.05011e-05
1.05455e-05
1.06027e-05
1.06761e-05
1.07697e-05
1.08884e-05
1.10376e-05
1.12231e-05
1.14509e-05
1.17261e-05
1.20524e-05
1.24309e-05
1.28595e-05
1.3331e-05
1.38332e-05
1.43499e-05
1.48606e-05
1.53398e-05
1.57622e-05
1.61095e-05
1.63754e-05
1.65662e-05
1.66954e-05
1.67784e-05
1.68292e-05
1.68583e-05
1.68745e-05
1.03532e-05
1.03539e-05
1.03547e-05
1.03558e-05
1.03571e-05
1.03589e-05
1.03612e-05
1.03641e-05
1.03679e-05
1.03728e-05
1.03792e-05
1.03875e-05
1.03982e-05
1.04121e-05
1.04301e-05
1.04533e-05
1.04834e-05
1.05221e-05
1.0572e-05
1.0636e-05
1.07177e-05
1.08214e-05
1.09521e-05
1.11154e-05
1.1317e-05
1.15626e-05
1.18566e-05
1.22019e-05
1.25984e-05
1.30425e-05
1.35254e-05
1.40335e-05
1.455e-05
1.50534e-05
1.55186e-05
1.59217e-05
1.62475e-05
1.64931e-05
1.6667e-05
1.67834e-05
1.68573e-05
1.6902e-05
1.69274e-05
1.69403e-05
1.69457e-05
1.69463e-05
1.03537e-05
1.03544e-05
1.03554e-05
1.03566e-05
1.03582e-05
1.03603e-05
1.03629e-05
1.03663e-05
1.03707e-05
1.03764e-05
1.03838e-05
1.03932e-05
1.04055e-05
1.04213e-05
1.04417e-05
1.0468e-05
1.05019e-05
1.05455e-05
1.06013e-05
1.06726e-05
1.07632e-05
1.08777e-05
1.10211e-05
1.11989e-05
1.1417e-05
1.16803e-05
1.19928e-05
1.23563e-05
1.27696e-05
1.32274e-05
1.37195e-05
1.42313e-05
1.47452e-05
1.52395e-05
1.56893e-05
1.60727e-05
1.63775e-05
1.66041e-05
1.67624e-05
1.68674e-05
1.69336e-05
1.6973e-05
1.6995e-05
1.70064e-05
1.70102e-05
1.70095e-05
1.70075e-05
1.70048e-05
1.03562e-05
1.03577e-05
1.03595e-05
1.03619e-05
1.0365e-05
1.03689e-05
1.0374e-05
1.03805e-05
1.03889e-05
1.03998e-05
1.04137e-05
1.04317e-05
1.04548e-05
1.04845e-05
1.05226e-05
1.05714e-05
1.06337e-05
1.07129e-05
1.0813e-05
1.09387e-05
1.10953e-05
1.12882e-05
1.15228e-05
1.18039e-05
1.21344e-05
1.25152e-05
1.29437e-05
1.34133e-05
1.39126e-05
1.44257e-05
1.49351e-05
1.54186e-05
1.58518e-05
1.62154e-05
1.65001e-05
1.67089e-05
1.68532e-05
1.69479e-05
1.7007e-05
1.70422e-05
1.70615e-05
1.70707e-05
1.70739e-05
1.70732e-05
1.70703e-05
1.70663e-05
1.70629e-05
1.70581e-05
1.03572e-05
1.03588e-05
1.0361e-05
1.03638e-05
1.03673e-05
1.03719e-05
1.03777e-05
1.03852e-05
1.03948e-05
1.04072e-05
1.0423e-05
1.04434e-05
1.04695e-05
1.05029e-05
1.05456e-05
1.06001e-05
1.06693e-05
1.07569e-05
1.08671e-05
1.10047e-05
1.11749e-05
1.13831e-05
1.16344e-05
1.19329e-05
1.22808e-05
1.26778e-05
1.312e-05
1.35996e-05
1.41038e-05
1.46164e-05
1.51193e-05
1.55904e-05
1.60064e-05
1.63503e-05
1.66158e-05
1.68082e-05
1.69398e-05
1.70254e-05
1.70785e-05
1.71095e-05
1.71265e-05
1.71348e-05
1.71365e-05
1.71354e-05
1.71332e-05
1.71291e-05
1.71239e-05
1.71194e-05
1.71161e-05
1.71099e-05
1.03627e-05
1.03659e-05
1.037e-05
1.03753e-05
1.0382e-05
1.03905e-05
1.04015e-05
1.04155e-05
1.04335e-05
1.04565e-05
1.04859e-05
1.05234e-05
1.05711e-05
1.06317e-05
1.07084e-05
1.08049e-05
1.09257e-05
1.10756e-05
1.12599e-05
1.14837e-05
1.17517e-05
1.20672e-05
1.24317e-05
1.28435e-05
1.32979e-05
1.37854e-05
1.42926e-05
1.48027e-05
1.52975e-05
1.5755e-05
1.61534e-05
1.64779e-05
1.67252e-05
1.69024e-05
1.70225e-05
1.71e-05
1.71477e-05
1.71755e-05
1.71902e-05
1.7197e-05
1.71986e-05
1.71973e-05
1.7194e-05
1.71905e-05
1.71874e-05
1.71807e-05
1.71757e-05
1.71717e-05
1.7168e-05
1.71616e-05
1.03732e-05
1.03792e-05
1.03868e-05
1.03966e-05
1.04091e-05
1.0425e-05
1.04453e-05
1.04712e-05
1.05042e-05
1.05461e-05
1.05993e-05
1.06665e-05
1.07511e-05
1.08572e-05
1.09891e-05
1.11518e-05
1.13504e-05
1.15898e-05
1.18743e-05
1.22064e-05
1.25864e-05
1.30118e-05
1.34766e-05
1.39703e-05
1.44785e-05
1.49843e-05
1.54695e-05
1.59125e-05
1.62929e-05
1.65987e-05
1.68289e-05
1.69921e-05
1.71019e-05
1.71722e-05
1.72151e-05
1.72398e-05
1.7253e-05
1.72588e-05
1.72592e-05
1.72581e-05
1.72552e-05
1.7251e-05
1.72463e-05
1.72433e-05
1.72387e-05
1.72315e-05
1.7227e-05
1.72237e-05
1.72195e-05
1.72136e-05
1.03923e-05
1.04035e-05
1.04176e-05
1.04356e-05
1.04585e-05
1.04876e-05
1.05245e-05
1.05713e-05
1.06303e-05
1.07046e-05
1.07977e-05
1.09137e-05
1.10572e-05
1.12331e-05
1.14463e-05
1.17014e-05
1.2002e-05
1.23499e-05
1.27445e-05
1.31821e-05
1.36555e-05
1.41534e-05
1.46609e-05
1.51608e-05
1.56351e-05
1.60629e-05
1.64254e-05
1.67131e-05
1.69272e-05
1.70777e-05
1.71781e-05
1.72419e-05
1.72807e-05
1.73029e-05
1.73142e-05
1.73192e-05
1.73195e-05
1.73178e-05
1.73146e-05
1.73117e-05
1.7307e-05
1.73016e-05
1.72973e-05
1.72946e-05
1.72889e-05
1.72821e-05
1.7278e-05
1.72752e-05
1.7271e-05
1.72657e-05
1.04273e-05
1.04476e-05
1.04733e-05
1.05059e-05
1.05471e-05
1.05991e-05
1.06644e-05
1.07463e-05
1.08484e-05
1.09749e-05
1.11304e-05
1.13197e-05
1.15476e-05
1.18183e-05
1.21346e-05
1.24975e-05
1.29054e-05
1.33537e-05
1.38341e-05
1.43344e-05
1.48394e-05
1.5332e-05
1.57944e-05
1.62064e-05
1.65512e-05
1.68215e-05
1.70208e-05
1.71595e-05
1.72515e-05
1.73097e-05
1.73447e-05
1.73645e-05
1.73748e-05
1.73786e-05
1.73784e-05
1.73769e-05
1.73736e-05
1.73694e-05
1.73658e-05
1.73629e-05
1.73567e-05
1.73516e-05
1.73477e-05
1.73449e-05
1.73386e-05
1.73324e-05
1.73289e-05
1.73262e-05
1.73222e-05
1.73176e-05
1.04899e-05
1.05263e-05
1.05721e-05
1.06297e-05
1.07018e-05
1.07917e-05
1.09033e-05
1.10407e-05
1.12085e-05
1.14116e-05
1.16543e-05
1.19402e-05
1.22716e-05
1.26486e-05
1.30686e-05
1.3526e-05
1.40117e-05
1.45128e-05
1.50138e-05
1.54978e-05
1.59474e-05
1.63433e-05
1.66706e-05
1.69245e-05
1.71098e-05
1.7238e-05
1.73223e-05
1.73753e-05
1.74072e-05
1.74249e-05
1.74338e-05
1.74372e-05
1.74368e-05
1.74346e-05
1.74315e-05
1.74284e-05
1.74234e-05
1.74187e-05
1.74156e-05
1.74123e-05
1.74054e-05
1.7401e-05
1.73976e-05
1.73942e-05
1.73881e-05
1.73824e-05
1.73795e-05
1.73768e-05
1.73731e-05
1.73693e-05
1.05998e-05
1.06634e-05
1.07427e-05
1.08412e-05
1.09626e-05
1.11113e-05
1.12919e-05
1.15088e-05
1.17661e-05
1.2067e-05
1.24128e-05
1.28028e-05
1.32336e-05
1.36987e-05
1.4188e-05
1.46882e-05
1.51838e-05
1.56581e-05
1.60942e-05
1.64738e-05
1.67842e-05
1.70224e-05
1.71949e-05
1.73133e-05
1.73908e-05
1.74393e-05
1.74681e-05
1.74841e-05
1.74921e-05
1.74944e-05
1.74938e-05
1.74919e-05
1.74884e-05
1.74844e-05
1.74813e-05
1.74775e-05
1.74715e-05
1.74672e-05
1.74646e-05
1.74602e-05
1.74535e-05
1.74495e-05
1.74466e-05
1.74429e-05
1.74372e-05
1.74322e-05
1.74296e-05
1.74268e-05
1.74237e-05
1.74207e-05
1.07874e-05
1.08948e-05
1.10265e-05
1.1187e-05
1.13804e-05
1.16113e-05
1.18831e-05
1.21983e-05
1.25577e-05
1.29597e-05
1.34e-05
1.38711e-05
1.43624e-05
1.48603e-05
1.53491e-05
1.58128e-05
1.62348e-05
1.65982e-05
1.68921e-05
1.71157e-05
1.72762e-05
1.73857e-05
1.7457e-05
1.75014e-05
1.75277e-05
1.7542e-05
1.7549e-05
1.7551e-05
1.75501e-05
1.75476e-05
1.75445e-05
1.75411e-05
1.75364e-05
1.75321e-05
1.75297e-05
1.75245e-05
1.75189e-05
1.75149e-05
1.75125e-05
1.75071e-05
1.75008e-05
1.74972e-05
1.74947e-05
1.74908e-05
1.74858e-05
1.74816e-05
1.7479e-05
1.74765e-05
1.74741e-05
1.7472e-05
1.10953e-05
1.12677e-05
1.14742e-05
1.17189e-05
1.20049e-05
1.2334e-05
1.27061e-05
1.31189e-05
1.35672e-05
1.40428e-05
1.45346e-05
1.50288e-05
1.55097e-05
1.59619e-05
1.63695e-05
1.67168e-05
1.69949e-05
1.72046e-05
1.73541e-05
1.74555e-05
1.75213e-05
1.7562e-05
1.75859e-05
1.75989e-05
1.7605e-05
1.76062e-05
1.76053e-05
1.76028e-05
1.75993e-05
1.75955e-05
1.75924e-05
1.75878e-05
1.75828e-05
1.75788e-05
1.75764e-05
1.75703e-05
1.75653e-05
1.75617e-05
1.7559e-05
1.75532e-05
1.75474e-05
1.75442e-05
1.75418e-05
1.75381e-05
1.75339e-05
1.75304e-05
1.7528e-05
1.7526e-05
1.75244e-05
1.75234e-05
1.15733e-05
1.18317e-05
1.21314e-05
1.24737e-05
1.28576e-05
1.32799e-05
1.37348e-05
1.42134e-05
1.47043e-05
1.51934e-05
1.56655e-05
1.61056e-05
1.64984e-05
1.68299e-05
1.70928e-05
1.72895e-05
1.74288e-05
1.75229e-05
1.75836e-05
1.7621e-05
1.76429e-05
1.76545e-05
1.76599e-05
1.76607e-05
1.76595e-05
1.76567e-05
1.76535e-05
1.76497e-05
1.76451e-05
1.76416e-05
1.76387e-05
1.76328e-05
1.76281e-05
1.76247e-05
1.76216e-05
1.7615e-05
1.76105e-05
1.76074e-05
1.76042e-05
1.75986e-05
1.75933e-05
1.75906e-05
1.7588e-05
1.75847e-05
1.75814e-05
1.75787e-05
1.75769e-05
1.75756e-05
1.7575e-05
1.7575e-05
1.22625e-05
1.26171e-05
1.30117e-05
1.34423e-05
1.39024e-05
1.43827e-05
1.48712e-05
1.53541e-05
1.58165e-05
1.62438e-05
1.66218e-05
1.69378e-05
1.71862e-05
1.73707e-05
1.75007e-05
1.75881e-05
1.76442e-05
1.76787e-05
1.76986e-05
1.77091e-05
1.77137e-05
1.77141e-05
1.77127e-05
1.77099e-05
1.77062e-05
1.77025e-05
1.76991e-05
1.76943e-05
1.76895e-05
1.76864e-05
1.7683e-05
1.76766e-05
1.76724e-05
1.76695e-05
1.76651e-05
1.76587e-05
1.76546e-05
1.76518e-05
1.76483e-05
1.76432e-05
1.76387e-05
1.76361e-05
1.76337e-05
1.7631e-05
1.76286e-05
1.76269e-05
1.76258e-05
1.76255e-05
1.76257e-05
1.76267e-05
1.31682e-05
1.36058e-05
1.40697e-05
1.45502e-05
1.50351e-05
1.55108e-05
1.59626e-05
1.63768e-05
1.67399e-05
1.70407e-05
1.72754e-05
1.74486e-05
1.75699e-05
1.76511e-05
1.77031e-05
1.77349e-05
1.77531e-05
1.77626e-05
1.77666e-05
1.77666e-05
1.7765e-05
1.77619e-05
1.77585e-05
1.77545e-05
1.77501e-05
1.77466e-05
1.77431e-05
1.77373e-05
1.77327e-05
1.77301e-05
1.77253e-05
1.77193e-05
1.77155e-05
1.77128e-05
1.77074e-05
1.77013e-05
1.76976e-05
1.76951e-05
1.76914e-05
1.76871e-05
1.76835e-05
1.7681e-05
1.7679e-05
1.76773e-05
1.76758e-05
1.7675e-05
1.76748e-05
1.76754e-05
1.76767e-05
1.7679e-05
1.42364e-05
1.47158e-05
1.51959e-05
1.56633e-05
1.6104e-05
1.65047e-05
1.6853e-05
1.71392e-05
1.73608e-05
1.75233e-05
1.76367e-05
1.77123e-05
1.77605e-05
1.77898e-05
1.78065e-05
1.78151e-05
1.78184e-05
1.78181e-05
1.78163e-05
1.78132e-05
1.78094e-05
1.78055e-05
1.78017e-05
1.7797e-05
1.77923e-05
1.77895e-05
1.77848e-05
1.77791e-05
1.77749e-05
1.77722e-05
1.77662e-05
1.77607e-05
1.77572e-05
1.77543e-05
1.77489e-05
1.77433e-05
1.774e-05
1.77374e-05
1.7734e-05
1.77305e-05
1.77277e-05
1.77257e-05
1.77244e-05
1.77235e-05
1.77229e-05
1.7723e-05
1.77239e-05
1.77257e-05
1.77284e-05
1.77321e-05
1.53536e-05
1.58119e-05
1.62408e-05
1.66278e-05
1.69615e-05
1.72335e-05
1.74426e-05
1.75952e-05
1.77012e-05
1.77717e-05
1.78165e-05
1.78436e-05
1.78589e-05
1.78667e-05
1.78693e-05
1.78689e-05
1.78667e-05
1.78634e-05
1.78598e-05
1.78557e-05
1.78512e-05
1.78474e-05
1.78435e-05
1.78379e-05
1.78334e-05
1.78308e-05
1.78249e-05
1.78198e-05
1.78159e-05
1.78125e-05
1.78061e-05
1.78011e-05
1.77979e-05
1.77946e-05
1.77895e-05
1.77846e-05
1.77816e-05
1.77791e-05
1.77763e-05
1.77737e-05
1.77717e-05
1.77704e-05
1.77698e-05
1.77697e-05
1.77702e-05
1.77715e-05
1.77736e-05
1.77768e-05
1.7781e-05
1.77864e-05
1.63733e-05
1.67464e-05
1.70657e-05
1.7324e-05
1.75214e-05
1.76647e-05
1.77639e-05
1.78297e-05
1.78713e-05
1.78965e-05
1.79105e-05
1.79175e-05
1.79196e-05
1.79189e-05
1.79165e-05
1.79131e-05
1.79091e-05
1.79051e-05
1.7901e-05
1.78963e-05
1.78917e-05
1.78884e-05
1.78832e-05
1.78778e-05
1.78738e-05
1.78704e-05
1.78638e-05
1.78593e-05
1.78559e-05
1.78515e-05
1.78451e-05
1.78405e-05
1.78377e-05
1.78341e-05
1.78296e-05
1.78255e-05
1.78228e-05
1.78206e-05
1.78185e-05
1.78167e-05
1.78155e-05
1.7815e-05
1.78153e-05
1.78162e-05
1.7818e-05
1.78206e-05
1.78242e-05
1.78289e-05
1.78348e-05
1.78419e-05
1.68612e-05
1.71662e-05
1.74113e-05
1.75976e-05
1.77322e-05
1.78251e-05
1.78865e-05
1.79253e-05
1.79486e-05
1.79615e-05
1.79678e-05
1.79694e-05
1.79684e-05
1.79658e-05
1.79623e-05
1.79584e-05
1.79541e-05
1.79496e-05
1.79454e-05
1.79412e-05
1.79358e-05
1.79314e-05
1.79282e-05
1.79219e-05
1.79169e-05
1.79135e-05
1.79086e-05
1.79021e-05
1.78979e-05
1.78948e-05
1.78898e-05
1.78838e-05
1.78796e-05
1.78768e-05
1.78733e-05
1.78695e-05
1.78663e-05
1.78639e-05
1.78622e-05
1.78608e-05
1.78598e-05
1.78596e-05
1.786e-05
1.78614e-05
1.78636e-05
1.78667e-05
1.78708e-05
1.7876e-05
1.78823e-05
1.78899e-05
1.78988e-05
1.74964e-05
1.7672e-05
1.77985e-05
1.78855e-05
1.79429e-05
1.79791e-05
1.80007e-05
1.80126e-05
1.80182e-05
1.80193e-05
1.80182e-05
1.80154e-05
1.80117e-05
1.80076e-05
1.80033e-05
1.79989e-05
1.79942e-05
1.79895e-05
1.79858e-05
1.79805e-05
1.7975e-05
1.79712e-05
1.79668e-05
1.79603e-05
1.79557e-05
1.79525e-05
1.79464e-05
1.79402e-05
1.79363e-05
1.79331e-05
1.79281e-05
1.79227e-05
1.79189e-05
1.7916e-05
1.79129e-05
1.79098e-05
1.79073e-05
1.79054e-05
1.79042e-05
1.79036e-05
1.79036e-05
1.79043e-05
1.79059e-05
1.79085e-05
1.7912e-05
1.79166e-05
1.79223e-05
1.79291e-05
1.79371e-05
1.79465e-05
1.79572e-05
1.7746e-05
1.78648e-05
1.79464e-05
1.8e-05
1.80338e-05
1.80539e-05
1.80647e-05
1.80697e-05
1.80705e-05
1.80692e-05
1.80662e-05
1.80624e-05
1.80583e-05
1.80538e-05
1.80492e-05
1.80447e-05
1.80402e-05
1.80348e-05
1.80303e-05
1.80266e-05
1.80202e-05
1.8015e-05
1.80116e-05
1.80055e-05
1.79995e-05
1.79952e-05
1.79916e-05
1.79851e-05
1.79792e-05
1.79755e-05
1.7972e-05
1.79672e-05
1.79625e-05
1.79589e-05
1.79561e-05
1.79534e-05
1.79509e-05
1.79489e-05
1.79477e-05
1.79473e-05
1.79475e-05
1.79485e-05
1.79504e-05
1.79533e-05
1.79571e-05
1.7962e-05
1.79681e-05
1.79753e-05
1.79838e-05
1.79935e-05
1.80046e-05
1.8017e-05
1.80096e-05
1.80598e-05
1.80913e-05
1.811e-05
1.812e-05
1.81245e-05
1.81249e-05
1.81234e-05
1.81203e-05
1.81165e-05
1.81122e-05
1.81078e-05
1.81032e-05
1.80984e-05
1.80935e-05
1.80892e-05
1.80839e-05
1.80782e-05
1.80742e-05
1.80692e-05
1.80628e-05
1.80578e-05
1.8054e-05
1.80468e-05
1.80411e-05
1.8037e-05
1.80326e-05
1.80262e-05
1.80206e-05
1.80169e-05
1.8013e-05
1.80085e-05
1.80043e-05
1.80009e-05
1.79982e-05
1.79959e-05
1.79939e-05
1.79926e-05
1.79921e-05
1.79923e-05
1.79935e-05
1.79955e-05
1.79985e-05
1.80025e-05
1.80077e-05
1.8014e-05
1.80215e-05
1.80302e-05
1.80403e-05
1.80516e-05
1.80644e-05
1.80785e-05
1.81553e-05
1.81727e-05
1.8182e-05
1.8186e-05
1.81861e-05
1.81845e-05
1.81814e-05
1.81776e-05
1.81734e-05
1.81689e-05
1.81642e-05
1.81596e-05
1.81548e-05
1.81494e-05
1.81446e-05
1.81403e-05
1.81338e-05
1.81282e-05
1.81243e-05
1.81173e-05
1.81113e-05
1.81066e-05
1.81012e-05
1.80936e-05
1.8088e-05
1.80838e-05
1.80785e-05
1.80722e-05
1.80667e-05
1.80626e-05
1.80584e-05
1.8054e-05
1.805e-05
1.80468e-05
1.80441e-05
1.8042e-05
1.80405e-05
1.80397e-05
1.80397e-05
1.80406e-05
1.80425e-05
1.80455e-05
1.80495e-05
1.80546e-05
1.80609e-05
1.80684e-05
1.80773e-05
1.80874e-05
1.80989e-05
1.81117e-05
1.81259e-05
1.81414e-05
1.82568e-05
1.82604e-05
1.82605e-05
1.82589e-05
1.82559e-05
1.82523e-05
1.82483e-05
1.8244e-05
1.82396e-05
1.82349e-05
1.82299e-05
1.82252e-05
1.82199e-05
1.82139e-05
1.82093e-05
1.82036e-05
1.81966e-05
1.8191e-05
1.81857e-05
1.81775e-05
1.81713e-05
1.81663e-05
1.81591e-05
1.81511e-05
1.8145e-05
1.81399e-05
1.81336e-05
1.8127e-05
1.81212e-05
1.81161e-05
1.81114e-05
1.81067e-05
1.81026e-05
1.80991e-05
1.80963e-05
1.80942e-05
1.80928e-05
1.80922e-05
1.80925e-05
1.80938e-05
1.80962e-05
1.80998e-05
1.81045e-05
1.81104e-05
1.81176e-05
1.81262e-05
1.8136e-05
1.81473e-05
1.81599e-05
1.81739e-05
1.81893e-05
1.82061e-05
1.83587e-05
1.83574e-05
1.8355e-05
1.83519e-05
1.83485e-05
1.83447e-05
1.83406e-05
1.83362e-05
1.83316e-05
1.83264e-05
1.83213e-05
1.83165e-05
1.83097e-05
1.83033e-05
1.82982e-05
1.829e-05
1.82828e-05
1.82767e-05
1.82685e-05
1.82593e-05
1.8252e-05
1.82454e-05
1.82365e-05
1.82273e-05
1.82199e-05
1.82126e-05
1.82048e-05
1.8197e-05
1.81898e-05
1.81832e-05
1.81771e-05
1.81714e-05
1.81663e-05
1.81619e-05
1.81584e-05
1.81557e-05
1.81539e-05
1.81531e-05
1.81532e-05
1.81544e-05
1.81568e-05
1.81604e-05
1.81653e-05
1.81715e-05
1.81792e-05
1.81882e-05
1.81987e-05
1.82107e-05
1.82241e-05
1.82389e-05
1.82551e-05
1.82726e-05
1.84965e-05
1.84947e-05
1.84925e-05
1.84898e-05
1.84867e-05
1.8483e-05
1.84787e-05
1.84743e-05
1.84693e-05
1.8463e-05
1.84577e-05
1.8451e-05
1.84429e-05
1.84357e-05
1.84277e-05
1.84174e-05
1.84086e-05
1.84003e-05
1.8389e-05
1.83777e-05
1.8368e-05
1.83578e-05
1.83463e-05
1.83348e-05
1.8324e-05
1.83134e-05
1.83026e-05
1.8292e-05
1.8282e-05
1.82725e-05
1.82637e-05
1.82555e-05
1.8248e-05
1.82415e-05
1.8236e-05
1.82315e-05
1.82282e-05
1.8226e-05
1.8225e-05
1.82253e-05
1.82269e-05
1.82299e-05
1.82342e-05
1.82401e-05
1.82474e-05
1.82563e-05
1.82667e-05
1.82787e-05
1.82922e-05
1.83072e-05
1.83236e-05
1.83413e-05
1.87089e-05
1.87081e-05
1.87066e-05
1.87045e-05
1.87016e-05
1.86978e-05
1.86931e-05
1.86881e-05
1.86812e-05
1.86736e-05
1.86666e-05
1.86562e-05
1.8646e-05
1.86365e-05
1.86236e-05
1.86103e-05
1.85979e-05
1.85846e-05
1.85693e-05
1.85538e-05
1.8539e-05
1.85232e-05
1.85069e-05
1.84906e-05
1.84744e-05
1.84584e-05
1.84423e-05
1.84265e-05
1.84113e-05
1.83967e-05
1.83829e-05
1.83698e-05
1.83578e-05
1.83468e-05
1.83372e-05
1.8329e-05
1.83222e-05
1.8317e-05
1.83133e-05
1.83111e-05
1.83106e-05
1.83117e-05
1.83144e-05
1.83187e-05
1.83247e-05
1.83324e-05
1.83418e-05
1.83528e-05
1.83656e-05
1.83799e-05
1.83958e-05
1.8413e-05
1.90407e-05
1.90396e-05
1.90373e-05
1.90339e-05
1.90289e-05
1.90227e-05
1.90152e-05
1.90048e-05
1.89945e-05
1.89826e-05
1.89674e-05
1.89527e-05
1.89373e-05
1.89186e-05
1.88993e-05
1.88801e-05
1.88589e-05
1.88368e-05
1.8814e-05
1.87906e-05
1.87665e-05
1.87419e-05
1.8717e-05
1.86923e-05
1.86676e-05
1.86429e-05
1.86186e-05
1.85948e-05
1.85719e-05
1.85498e-05
1.85288e-05
1.8509e-05
1.84906e-05
1.84737e-05
1.84586e-05
1.84454e-05
1.84342e-05
1.84251e-05
1.84182e-05
1.84134e-05
1.84106e-05
1.84099e-05
1.8411e-05
1.84142e-05
1.84193e-05
1.84264e-05
1.84353e-05
1.84461e-05
1.84586e-05
1.84728e-05
1.84885e-05
1.9535e-05
1.95326e-05
1.95284e-05
1.95224e-05
1.95139e-05
1.95039e-05
1.94902e-05
1.94746e-05
1.9459e-05
1.94385e-05
1.94166e-05
1.93942e-05
1.93691e-05
1.93422e-05
1.93135e-05
1.92832e-05
1.92514e-05
1.92183e-05
1.9184e-05
1.91487e-05
1.91125e-05
1.90754e-05
1.90379e-05
1.90003e-05
1.89628e-05
1.89253e-05
1.88882e-05
1.88517e-05
1.88161e-05
1.87816e-05
1.87485e-05
1.8717e-05
1.86872e-05
1.86593e-05
1.86335e-05
1.86101e-05
1.85891e-05
1.85708e-05
1.85553e-05
1.85428e-05
1.85333e-05
1.85265e-05
1.85222e-05
1.85204e-05
1.85209e-05
1.85237e-05
1.85288e-05
1.8536e-05
1.85453e-05
1.85565e-05
1.85694e-05
2.02024e-05
2.01955e-05
2.01863e-05
2.01737e-05
2.01585e-05
2.01412e-05
2.01185e-05
2.00951e-05
2.007e-05
2.00404e-05
2.00089e-05
1.99753e-05
1.99391e-05
1.99005e-05
1.98596e-05
1.98165e-05
1.97713e-05
1.9724e-05
1.96753e-05
1.96253e-05