/*--------------------------------*- C++ -*----------------------------------*\
| =========                 |                                                 |
| \\      /  F ield         | OpenFOAM: The Open Source CFD Toolbox           |
|  \\    /   O peration     | Version:  v1706                                 |
|   \\  /    A nd           | Web:      www.OpenFOAM.com                      |
|    \\/     M anipulation  |                                                 |
\*---------------------------------------------------------------------------*/
FoamFile
{
    version     2.0;
    format      ascii;
    class       volScalarField;
    location    "1.3e-05";
    object      rho;
}
// * * * * * * * * * * * * * * * * * * * * * * * * * * * * * * * * * * * * * //

dimensions      [1 -3 0 0 0 0 0];


internalField   nonuniform List<scalar> 
30038
(
0.000511309
0.000511309
0.000511309
0.000511309
0.000511309
0.000511309
0.000511309
0.000511309
0.000511309
0.000511309
0.000511309
0.000511309
0.000511309
0.000511309
0.000511309
0.000511309
0.000511309
0.000511309
0.000511309
0.000511309
0.000511309
0.000511309
0.000511309
0.000511309
0.000511309
0.000511309
0.000511309
0.000511309
0.000511309
0.000511309
0.000511309
0.000511309
0.000511309
0.000511309
0.000511309
0.000511309
0.000511309
0.000511309
0.000511309
0.000511309
0.000511309
0.000511309
0.000511309
0.000511309
0.000511309
0.000511309
0.000511309
0.000511309
0.000511309
0.000511309
0.000511309
0.000511309
0.000511309
0.000511309
0.000511309
0.000511309
0.000511309
0.000511309
0.000511309
0.000511309
0.000511309
0.000511309
0.000511309
0.000511309
0.000511309
0.000511309
0.000511309
0.000511309
0.000511309
0.000511309
0.000511309
0.000511309
0.000511309
0.000511309
0.000511309
0.000511309
0.000511309
0.000511309
0.000511309
0.000511309
0.000511309
0.000511309
0.000511309
0.000511309
0.000511309
0.000511309
0.000511309
0.000511309
0.000511309
0.000511309
0.000511309
0.000511309
0.000511309
0.000511309
0.000511309
0.000511309
0.000511309
0.000511309
0.000511309
0.000511309
0.000511309
0.000511309
0.000511309
0.000511309
0.000511309
0.000511309
0.000511309
0.000511309
0.000511309
0.000511309
0.000511309
0.00051131
0.00051131
0.00051131
0.000511309
0.000511309
0.000511309
0.000511309
0.000511309
0.000511309
0.000511309
0.000511309
0.000511309
0.000511309
0.000511309
0.000511309
0.000511309
0.000511309
0.000511309
0.000511309
0.000511309
0.000511309
0.000511309
0.000511309
0.000511309
0.000511309
0.000511309
0.000511309
0.000511309
0.000511309
0.000511309
0.000511309
0.000511309
0.000511309
0.000511309
0.000511309
0.00051131
0.00051131
0.00051131
0.00051131
0.00051131
0.00051131
0.000511309
0.000511309
0.000511309
0.000511309
0.000511309
0.000511309
0.000511309
0.000511309
0.000511309
0.000511309
0.000511309
0.000511309
0.000511309
0.000511309
0.000511309
0.000511309
0.000511309
0.000511309
0.000511309
0.000511309
0.000511309
0.000511309
0.000511309
0.000511309
0.000511309
0.000511309
0.000511309
0.000511309
0.000511309
0.00051131
0.00051131
0.00051131
0.00051131
0.00051131
0.00051131
0.000511311
0.000511311
0.000511312
0.000511309
0.000511309
0.000511309
0.000511309
0.000511309
0.000511309
0.000511309
0.000511309
0.000511309
0.000511309
0.000511309
0.000511309
0.000511309
0.000511309
0.000511309
0.000511309
0.000511309
0.000511309
0.000511309
0.000511309
0.000511309
0.000511309
0.000511309
0.000511309
0.000511309
0.000511309
0.00051131
0.00051131
0.00051131
0.00051131
0.00051131
0.00051131
0.00051131
0.000511311
0.000511311
0.000511312
0.000511313
0.000511315
0.000511309
0.000511309
0.000511309
0.000511309
0.000511309
0.000511309
0.000511309
0.000511309
0.000511309
0.000511309
0.000511309
0.000511309
0.000511309
0.000511309
0.000511309
0.000511309
0.000511309
0.000511309
0.000511309
0.000511309
0.000511309
0.000511309
0.000511309
0.00051131
0.00051131
0.00051131
0.00051131
0.00051131
0.00051131
0.00051131
0.000511311
0.000511311
0.000511312
0.000511313
0.000511314
0.000511316
0.000511318
0.000511322
0.000511309
0.000511309
0.000511309
0.000511309
0.000511309
0.000511309
0.000511309
0.000511309
0.000511309
0.000511309
0.000511309
0.000511309
0.000511309
0.000511309
0.000511309
0.000511309
0.000511309
0.000511309
0.000511309
0.000511309
0.00051131
0.00051131
0.00051131
0.00051131
0.00051131
0.00051131
0.00051131
0.000511311
0.000511311
0.000511312
0.000511313
0.000511314
0.000511315
0.000511318
0.00051132
0.000511324
0.00051133
0.000511338
0.000511309
0.000511309
0.000511309
0.000511309
0.000511309
0.000511309
0.000511309
0.000511309
0.000511309
0.000511309
0.000511309
0.000511309
0.000511309
0.000511309
0.000511309
0.000511309
0.000511309
0.000511309
0.00051131
0.00051131
0.00051131
0.00051131
0.00051131
0.00051131
0.00051131
0.000511311
0.000511311
0.000511312
0.000511312
0.000511313
0.000511315
0.000511317
0.00051132
0.000511323
0.000511328
0.000511334
0.000511343
0.000511355
0.000511373
0.000511309
0.000511309
0.000511309
0.000511309
0.000511309
0.000511309
0.000511309
0.000511309
0.000511309
0.000511309
0.000511309
0.000511309
0.000511309
0.000511309
0.000511309
0.00051131
0.00051131
0.00051131
0.00051131
0.00051131
0.00051131
0.00051131
0.000511311
0.000511311
0.000511311
0.000511312
0.000511313
0.000511315
0.000511316
0.000511319
0.000511322
0.000511326
0.000511332
0.00051134
0.000511351
0.000511365
0.000511385
0.000511412
0.000511451
0.000511309
0.000511309
0.000511309
0.000511309
0.000511309
0.000511309
0.000511309
0.000511309
0.000511309
0.000511309
0.000511309
0.000511309
0.000511309
0.00051131
0.00051131
0.00051131
0.00051131
0.00051131
0.00051131
0.00051131
0.000511311
0.000511311
0.000511312
0.000511313
0.000511314
0.000511316
0.000511318
0.000511321
0.000511325
0.00051133
0.000511337
0.000511347
0.00051136
0.000511378
0.000511401
0.000511433
0.000511477
0.000511535
0.000511621
0.000511309
0.000511309
0.000511309
0.000511309
0.000511309
0.000511309
0.000511309
0.000511309
0.000511309
0.000511309
0.000511309
0.00051131
0.00051131
0.00051131
0.00051131
0.00051131
0.00051131
0.00051131
0.000511311
0.000511311
0.000511312
0.000511313
0.000511314
0.000511315
0.000511317
0.00051132
0.000511323
0.000511328
0.000511335
0.000511343
0.000511355
0.000511371
0.000511392
0.00051142
0.000511458
0.00051151
0.00051158
0.000511674
0.0005118
0.000511985
0.000511309
0.000511309
0.000511309
0.000511309
0.000511309
0.000511309
0.000511309
0.000511309
0.00051131
0.00051131
0.00051131
0.00051131
0.00051131
0.00051131
0.00051131
0.000511311
0.000511311
0.000511312
0.000511312
0.000511313
0.000511315
0.000511317
0.000511319
0.000511322
0.000511327
0.000511332
0.00051134
0.000511351
0.000511365
0.000511383
0.000511409
0.000511443
0.000511488
0.000511549
0.000511632
0.000511743
0.000511892
0.000512093
0.000512362
0.000512756
0.000511309
0.000511309
0.000511309
0.000511309
0.000511309
0.00051131
0.00051131
0.00051131
0.00051131
0.00051131
0.00051131
0.00051131
0.000511311
0.000511311
0.000511312
0.000511312
0.000511313
0.000511314
0.000511316
0.000511318
0.000511321
0.000511325
0.00051133
0.000511337
0.000511347
0.000511359
0.000511376
0.000511399
0.000511429
0.000511469
0.000511523
0.000511595
0.000511692
0.000511823
0.000511998
0.000512233
0.000512549
0.000512975
0.000513541
0.000514368
0.000511309
0.000511309
0.00051131
0.00051131
0.00051131
0.00051131
0.00051131
0.00051131
0.00051131
0.000511311
0.000511311
0.000511311
0.000511312
0.000511313
0.000511314
0.000511316
0.000511318
0.00051132
0.000511324
0.000511329
0.000511335
0.000511343
0.000511355
0.00051137
0.00051139
0.000511416
0.000511452
0.0005115
0.000511563
0.000511649
0.000511763
0.000511916
0.000512121
0.000512395
0.000512763
0.000513256
0.000513916
0.000514804
0.000515981
0.000517691
0.00051131
0.00051131
0.00051131
0.00051131
0.00051131
0.00051131
0.00051131
0.000511311
0.000511311
0.000511312
0.000511313
0.000511314
0.000511315
0.000511317
0.000511319
0.000511323
0.000511327
0.000511333
0.00051134
0.00051135
0.000511364
0.000511382
0.000511405
0.000511437
0.000511479
0.000511536
0.000511611
0.000511711
0.000511844
0.000512023
0.000512262
0.000512581
0.000513007
0.000513577
0.00051434
0.000515358
0.00051672
0.000518543
0.000520953
0.000524427
0.00051131
0.00051131
0.00051131
0.00051131
0.000511311
0.000511311
0.000511312
0.000511313
0.000511313
0.000511315
0.000511316
0.000511319
0.000511322
0.000511326
0.000511331
0.000511338
0.000511347
0.000511359
0.000511375
0.000511396
0.000511424
0.000511461
0.000511511
0.000511577
0.000511665
0.000511782
0.000511938
0.000512146
0.000512423
0.000512793
0.000513286
0.000513943
0.000514819
0.000515987
0.000517544
0.000519619
0.000522378
0.000526053
0.000530883
0.000537798
0.00051131
0.000511311
0.000511311
0.000511312
0.000511312
0.000511313
0.000511314
0.000511316
0.000511318
0.000511321
0.000511324
0.000511329
0.000511335
0.000511344
0.000511354
0.000511369
0.000511388
0.000511413
0.000511446
0.00051149
0.000511548
0.000511626
0.000511728
0.000511865
0.000512046
0.000512288
0.000512608
0.000513034
0.000513602
0.000514356
0.00051536
0.000516694
0.000518468
0.000520825
0.000523951
0.00052809
0.000533568
0.000540823
0.000550255
0.000563615
0.000511311
0.000511312
0.000511312
0.000511313
0.000511314
0.000511316
0.000511317
0.00051132
0.000511323
0.000511328
0.000511333
0.000511341
0.00051135
0.000511363
0.00051138
0.000511403
0.000511432
0.000511471
0.000511523
0.000511591
0.000511682
0.000511801
0.00051196
0.00051217
0.000512449
0.000512818
0.000513308
0.000513959
0.000514823
0.000515967
0.000517486
0.0005195
0.000522168
0.000525693
0.000530349
0.000536493
0.000544577
0.000555152
0.000568994
0.000586861
0.000611958
0.000511313
0.000511314
0.000511315
0.000511317
0.000511319
0.000511322
0.000511326
0.000511331
0.000511338
0.000511347
0.000511359
0.000511374
0.000511394
0.00051142
0.000511455
0.000511501
0.000511561
0.000511641
0.000511746
0.000511885
0.000512068
0.000512311
0.000512632
0.000513056
0.000513618
0.000514362
0.000515346
0.000516648
0.00051837
0.000520648
0.000523655
0.000527617
0.000532834
0.000539696
0.000548686
0.0005604
0.000575647
0.000595479
0.000621208
0.00065361
0.000699073
0.000511315
0.000511317
0.000511319
0.000511321
0.000511325
0.00051133
0.000511336
0.000511344
0.000511354
0.000511368
0.000511386
0.00051141
0.000511441
0.000511482
0.000511535
0.000511605
0.000511698
0.00051182
0.000511981
0.000512192
0.000512471
0.00051284
0.000513326
0.000513968
0.000514815
0.000515933
0.000517407
0.000519354
0.00052192
0.000525297
0.000529732
0.000535555
0.000543189
0.000553145
0.000566066
0.000582836
0.000604583
0.000632531
0.000668121
0.000713926
0.000772047
0.00085178
0.000511318
0.000511321
0.000511324
0.000511328
0.000511334
0.000511341
0.000511351
0.000511363
0.000511379
0.000511401
0.000511428
0.000511465
0.000511512
0.000511575
0.000511656
0.000511764
0.000511905
0.00051209
0.000512333
0.000512654
0.000513075
0.00051363
0.00051436
0.000515322
0.000516587
0.000518252
0.000520444
0.000523325
0.000527102
0.000532049
0.000538525
0.000546981
0.00055796
0.000572158
0.000590534
0.00061427
0.000644592
0.000683096
0.000732424
0.000795742
0.000875271
0.000967778
0.00107461
0.000511327
0.000511332
0.000511339
0.000511348
0.000511359
0.000511374
0.000511393
0.000511418
0.00051145
0.000511492
0.000511548
0.00051162
0.000511715
0.000511839
0.000512001
0.000512214
0.000512493
0.00051286
0.00051334
0.000513971
0.0005148
0.000515888
0.000517316
0.000519189
0.000521649
0.00052487
0.000529081
0.000534578
0.000541752
0.000551081
0.00056314
0.000578682
0.000598744
0.00062454
0.000657304
0.000698801
0.000751904
0.000819716
0.000903423
0.00100013
0.00110314
0.00120142
0.00129219
0.000511337
0.000511345
0.000511355
0.000511368
0.000511386
0.000511408
0.000511437
0.000511475
0.000511524
0.000511589
0.000511673
0.000511782
0.000511925
0.000512112
0.000512355
0.000512675
0.000513092
0.000513638
0.000514354
0.000515291
0.000516518
0.000518124
0.000520226
0.000522976
0.000526566
0.000531242
0.000537329
0.000545246
0.000555497
0.00056869
0.000585643
0.000607461
0.000635377
0.00067064
0.000715221
0.000772187
0.000844383
0.000932136
0.0010315
0.00113453
0.00123174
0.00131602
0.00138229
0.00143337
0.000511352
0.000511364
0.000511379
0.0005114
0.000511426
0.00051146
0.000511504
0.000511562
0.000511636
0.000511733
0.000511859
0.000512023
0.000512237
0.000512516
0.000512879
0.000513354
0.000513973
0.000514782
0.000515839
0.000517218
0.000519018
0.000521368
0.000524432
0.000528419
0.000533595
0.000540312
0.000549017
0.000560236
0.000574616
0.000593044
0.000616683
0.000646769
0.000684586
0.000732333
0.000793204
0.000869648
0.000961044
0.00106238
0.00116511
0.00125998
0.00134038
0.00140341
0.00144958
0.00148102
0.00150261
0.000511374
0.000511393
0.000511416
0.000511447
0.000511487
0.000511538
0.000511604
0.00051169
0.000511802
0.000511946
0.000512134
0.000512379
0.000512696
0.00051311
0.000513647
0.000514348
0.00051526
0.000516448
0.000517993
0.000520005
0.000522624
0.000526027
0.000530439
0.000536149
0.000543535
0.000553069
0.000565302
0.000580923
0.000600887
0.000626403
0.000658699
0.000699119
0.000750104
0.000814881
0.000895362
0.000989953
0.00109266
0.00119452
0.00128678
0.00136349
0.00142257
0.00146555
0.00149493
0.00151383
0.00152588
0.00153313
0.000511386
0.000511408
0.000511435
0.000511471
0.000511517
0.000511577
0.000511653
0.000511752
0.00051188
0.000512046
0.000512261
0.000512539
0.0005129
0.000513369
0.000513977
0.000514766
0.000515791
0.000517122
0.000518849
0.000521091
0.000524
0.000527767
0.000532634
0.000538912
0.000547007
0.000557411
0.000570701
0.000587612
0.000609168
0.000636609
0.000671149
0.000714221
0.000768496
0.000837138
0.0009214
0.00101869
0.00112219
0.00122273
0.00131201
0.00138518
0.00144092
0.00148053
0.00150766
0.00152562
0.00153593
0.00154164
0.00154554
0.00154704
0.000511458
0.000511499
0.000511553
0.000511621
0.00051171
0.000511823
0.00051197
0.00051216
0.000512404
0.000512721
0.00051313
0.000513659
0.000514344
0.000515232
0.000516381
0.000517868
0.000519793
0.000522283
0.000525504
0.000529661
0.000535012
0.000541893
0.000550734
0.000562047
0.000576436
0.000594687
0.000617886
0.000647289
0.000684099
0.000729865
0.000787463
0.000859877
0.000947608
0.00104711
0.00115084
0.00124967
0.00133595
0.00140542
0.00145772
0.00149502
0.00151996
0.00153602
0.00154661
0.00155187
0.00155339
0.00155451
0.00155599
0.00155535
0.000511484
0.000511532
0.000511593
0.000511673
0.000511774
0.000511905
0.000512072
0.000512288
0.000512567
0.000512925
0.000513388
0.000513984
0.000514755
0.000515749
0.000517033
0.000518691
0.000520829
0.000523588
0.000527144
0.000531716
0.000537581
0.000545099
0.000554722
0.000566982
0.00058251
0.000602147
0.000627032
0.000658427
0.000697529
0.000746028
0.000806955
0.000883004
0.000973858
0.00107506
0.00117857
0.00127534
0.00135844
0.00142462
0.00147376
0.00150824
0.00153179
0.00154691
0.00155553
0.001561
0.00156432
0.00156419
0.00156295
0.00156282
0.00156326
0.00156155
0.00051164
0.000511731
0.000511848
0.000511997
0.000512188
0.000512434
0.000512749
0.000513155
0.000513677
0.000514347
0.000515211
0.000516323
0.000517755
0.000519596
0.000521966
0.000525013
0.000528926
0.00053394
0.00054035
0.000548539
0.000558978
0.000572219
0.000588925
0.000609991
0.0006366
0.000670007
0.000711418
0.000762679
0.000826911
0.000906411
0.00100002
0.00110244
0.00120526
0.00129977
0.00137969
0.00144241
0.00148878
0.00152124
0.00154274
0.0015569
0.00156577
0.00156973
0.00157151
0.00157361
0.00157432
0.00157212
0.00156981
0.00156953
0.00156927
0.00156673
0.000511932
0.000512102
0.00051232
0.000512598
0.000512955
0.000513413
0.000514
0.000514752
0.000515718
0.000516958
0.00051855
0.000520591
0.000523209
0.000526565
0.000530859
0.000536341
0.000543327
0.000552217
0.000563506
0.000577761
0.000595682
0.000618215
0.000646578
0.000682014
0.000725748
0.000779786
0.000847269
0.000930002
0.00102596
0.00112915
0.00123092
0.00132293
0.00139971
0.0014594
0.00150289
0.00153324
0.0015538
0.00156666
0.0015744
0.00157951
0.00158162
0.00158133
0.00158109
0.00158213
0.00158157
0.00157829
0.00157577
0.00157536
0.00157445
0.00157136
0.000512469
0.000512784
0.000513187
0.000513702
0.00051436
0.000515203
0.000516281
0.00051766
0.000519425
0.000521682
0.000524567
0.000528252
0.000532951
0.000538928
0.000546518
0.000556142
0.00056831
0.000583612
0.000602782
0.000626817
0.000656956
0.000694429
0.000740496
0.000797313
0.00086796
0.00095367
0.00105159
0.0011551
0.00125549
0.00134492
0.00141855
0.00147518
0.00151641
0.00154486
0.0015638
0.0015764
0.00158373
0.00158713
0.00158959
0.00159177
0.00159118
0.00158917
0.00158849
0.00158906
0.00158763
0.00158372
0.0015812
0.00158048
0.00157896
0.00157559
0.000513447
0.000514025
0.000514762
0.000515703
0.000516903
0.000518433
0.000520386
0.000522874
0.000526045
0.000530082
0.00053521
0.000541708
0.00054993
0.000560318
0.000573395
0.000589774
0.000610225
0.00063579
0.000667722
0.000707237
0.000755641
0.00081522
0.000888915
0.000977325
0.00107681
0.00118026
0.00127901
0.00136573
0.00143638
0.00149022
0.00152897
0.00155595
0.001574
0.00158524
0.00159244
0.00159693
0.00159827
0.00159837
0.00159933
0.00160029
0.00159831
0.00159558
0.001595
0.00159516
0.00159294
0.00158865
0.00158618
0.00158499
0.00158286
0.00157934
0.00051521
0.000516258
0.00051759
0.000519285
0.000521439
0.000524176
0.000527653
0.000532062
0.000537642
0.000544689
0.000553572
0.00056475
0.000578765
0.000596248
0.000618009
0.000645128
0.000678863
0.00072042
0.00077116
0.000833466
0.000910061
0.00100087
0.00110153
0.00120455
0.00130144
0.00138545
0.00145312
0.00150432
0.00154115
0.00156641
0.00158337
0.00159455
0.00160083
0.00160423
0.00160708
0.00160854
0.00160758
0.00160653
0.00160712
0.00160716
0.00160424
0.00160137
0.00160091
0.00160051
0.00159759
0.00159316
0.0015907
0.00158882
0.0015861
0.00158243
0.000518348
0.00052022
0.000522591
0.000525595
0.000529397
0.0005342
0.000540257
0.000547878
0.000557449
0.000569445
0.000584422
0.000603037
0.000626134
0.000654825
0.000690367
0.000733963
0.000787029
0.000852006
0.000931329
0.00102423
0.0011257
0.00122798
0.00132284
0.00140411
0.001469
0.00151771
0.00155251
0.00157666
0.00159272
0.00160285
0.00160945
0.00161331
0.00161459
0.00161533
0.001617
0.00161693
0.00161467
0.0016134
0.00161395
0.00161313
0.0016095
0.0016067
0.00160611
0.00160502
0.00160165
0.00159731
0.00159454
0.00159188
0.00158865
0.00158471
0.00052385
0.000527139
0.000531285
0.000536505
0.000543063
0.000551283
0.000561568
0.000574406
0.00059037
0.000610141
0.000634596
0.000664872
0.000702222
0.000747851
0.000803224
0.000870795
0.000952649
0.00104733
0.00114925
0.00125051
0.00134322
0.00142178
0.00148394
0.00153038
0.00156351
0.00158623
0.00160157
0.00161157
0.00161725
0.0016207
0.00162346
0.00162448
0.00162384
0.00162374
0.00162491
0.00162368
0.00162073
0.00161963
0.00162001
0.00161835
0.00161421
0.00161148
0.00161052
0.0016087
0.00160512
0.00160093
0.00159751
0.00159413
0.00159042
0.00158612
0.000533326
0.000538985
0.000546067
0.000554911
0.000565935
0.00057964
0.000596613
0.000617561
0.000643393
0.000675263
0.000714418
0.000762067
0.000819717
0.000889787
0.000973956
0.0010701
0.00117214
0.00127216
0.00136261
0.00143851
0.00149813
0.00154239
0.00157387
0.00159568
0.00161021
0.0016195
0.00162556
0.001629
0.00163044
0.0016317
0.00163331
0.00163276
0.00163111
0.00163101
0.00163163
0.00162944
0.00162618
0.00162531
0.00162525
0.00162281
0.00161835
0.00161567
0.0016141
0.00161156
0.00160785
0.00160366
0.00159962
0.00159559
0.00159135
0.00158665
0.000549279
0.000558771
0.000570556
0.000585149
0.000603154
0.0006253
0.000652523
0.000685991
0.000726944
0.000776596
0.000836484
0.000908935
0.000995191
0.00109248
0.00119435
0.00129292
0.00138106
0.00145436
0.00151152
0.00155381
0.00158386
0.00160453
0.00161854
0.00162762
0.00163294
0.00163641
0.00163903
0.00163987
0.00163963
0.0016403
0.00164123
0.00163943
0.00163744
0.00163758
0.00163748
0.00163438
0.0016311
0.00163028
0.00162956
0.00162649
0.00162197
0.00161915
0.00161676
0.0016136
0.00160968
0.00160532
0.00160081
0.00159622
0.00159154
0.00158647
0.000575439
0.000590941
0.000609996
0.000633357
0.000661984
0.00069705
0.000739789
0.000791423
0.000853496
0.000928195
0.0010163
0.00111444
0.00121587
0.00131281
0.00139861
0.00146937
0.00152424
0.00156466
0.00159334
0.00161325
0.00162658
0.00163519
0.0016408
0.00164405
0.00164572
0.00164729
0.00164867
0.00164808
0.00164712
0.00164785
0.0016478
0.00164503
0.00164317
0.00164346
0.00164247
0.00163864
0.00163542
0.0016344
0.00163289
0.00162941
0.00162507
0.00162168
0.00161848
0.00161477
0.00161052
0.00160593
0.00160112
0.00159614
0.00159108
0.00158557
0.000617145
0.000641736
0.000671774
0.000708435
0.000752946
0.000806535
0.000870727
0.000947526
0.00103723
0.00113593
0.00123667
0.00133186
0.0014153
0.00148361
0.00153628
0.001575
0.00160247
0.00162147
0.00163439
0.00164277
0.00164786
0.00165131
0.00165379
0.00165469
0.00165486
0.00165598
0.00165648
0.00165476
0.00165373
0.00165451
0.00165331
0.00164992
0.00164834
0.00164843
0.00164657
0.00164222
0.0016391
0.00163759
0.00163528
0.00163157
0.00162729
0.00162327
0.0016193
0.00161513
0.00161058
0.00160574
0.00160066
0.00159533
0.00158979
0.00158379
0.000681893
0.000720143
0.000766409
0.000821918
0.000888153
0.000966889
0.00105794
0.00115693
0.00125676
0.00135009
0.00143118
0.00149712
0.00154775
0.00158485
0.00161118
0.00162953
0.00164191
0.00164997
0.00165524
0.00165844
0.00166032
0.00166205
0.00166328
0.00166287
0.00166248
0.00166355
0.00166288
0.00166044
0.00165975
0.0016602
0.00165796
0.00165423
0.00165282
0.00165236
0.00164978
0.00164521
0.00164207
0.00163978
0.00163675
0.00163283
0.00162841
0.00162393
0.00161945
0.00161486
0.00160999
0.0016048
0.00159933
0.00159357
0.0015876
0.00158114
0.000780173
0.000837561
0.000905751
0.000986253
0.00107841
0.00117743
0.00127616
0.00136754
0.0014463
0.00150996
0.00155864
0.00159427
0.00161958
0.00163719
0.00164922
0.0016571
0.00166202
0.00166539
0.0016678
0.00166892
0.00166947
0.0016707
0.001671
0.00166962
0.00166928
0.00167007
0.00166818
0.00166548
0.00166515
0.00166493
0.00166176
0.00165792
0.00165649
0.00165527
0.00165214
0.00164766
0.00164415
0.00164097
0.00163734
0.00163318
0.00162861
0.00162384
0.00161898
0.00161391
0.00160859
0.00160299
0.00159711
0.00159095
0.00158459
0.00157772
0.000923507
0.00100559
0.00109861
0.00119743
0.00129489
0.00138425
0.00146071
0.00152219
0.00156905
0.0016033
0.00162764
0.0016447
0.00165631
0.00166393
0.00166897
0.00167218
0.00167421
0.00167598
0.00167723
0.00167712
0.00167711
0.00167822
0.00167736
0.00167546
0.00167551
0.00167553
0.00167257
0.00166997
0.00166977
0.00166869
0.00166478
0.00166098
0.00165928
0.0016572
0.0016537
0.00164935
0.00164524
0.00164135
0.00163727
0.00163284
0.00162806
0.001623
0.0016177
0.00161217
0.0016064
0.00160039
0.00159412
0.00158758
0.00158086
0.00157361
0.00102491
0.00111855
0.00121694
0.00131299
0.0014003
0.0014745
0.00153388
0.00157901
0.00161198
0.00163547
0.00165193
0.00166323
0.00167072
0.00167552
0.00167883
0.00168124
0.00168258
0.00168339
0.00168462
0.00168498
0.001684
0.00168404
0.00168467
0.00168262
0.00168073
0.00168108
0.00168
0.00167627
0.00167389
0.00167341
0.0016715
0.0016672
0.00166345
0.00166113
0.00165824
0.00165442
0.00165003
0.00164556
0.00164118
0.00163666
0.00163183
0.0016267
0.00162128
0.00161559
0.00160966
0.0016035
0.0015971
0.00159047
0.00158358
0.00157652
0.00156892
0.00123601
0.00133053
0.00141576
0.00148776
0.00154513
0.00158864
0.00162041
0.0016431
0.00165908
0.00167005
0.00167732
0.00168219
0.00168544
0.00168761
0.00168943
0.00169075
0.00169093
0.00169116
0.00169224
0.00169152
0.00169007
0.00169051
0.00169007
0.00168711
0.00168559
0.00168578
0.00168365
0.00167945
0.00167719
0.00167613
0.00167352
0.00166916
0.00166526
0.00166208
0.00165857
0.00165447
0.00164996
0.00164526
0.00164042
0.0016354
0.00163013
0.00162461
0.00161882
0.00161278
0.00160649
0.00159998
0.00159323
0.00158625
0.00157903
0.00157166
0.00156373
0.00134764
0.00143078
0.00150063
0.00155609
0.00159806
0.00162873
0.0016507
0.00166621
0.00167689
0.00168406
0.00168878
0.00169207
0.00169453
0.0016961
0.00169712
0.00169834
0.00169886
0.00169821
0.00169843
0.00169902
0.00169715
0.00169582
0.00169638
0.00169462
0.00169121
0.00169005
0.00168965
0.00168665
0.00168223
0.00167995
0.00167808
0.00167491
0.00167062
0.00166638
0.00166245
0.00165845
0.00165408
0.00164932
0.00164427
0.001639
0.00163353
0.00162785
0.00162194
0.00161579
0.0016094
0.00160278
0.00159593
0.00158886
0.00158157
0.00157403
0.00156637
0.00155813
0.00151336
0.00156698
0.00160752
0.00163719
0.0016585
0.00167359
0.00168401
0.001691
0.00169576
0.00169908
0.00170139
0.00170325
0.0017047
0.00170523
0.00170561
0.00170665
0.0017062
0.00170505
0.00170564
0.00170506
0.00170241
0.00170161
0.00170165
0.00169875
0.00169522
0.00169415
0.00169294
0.00168929
0.00168488
0.00168226
0.00167954
0.00167592
0.00167157
0.00166702
0.00166255
0.00165802
0.00165323
0.00164811
0.00164271
0.00163706
0.0016312
0.00162512
0.00161884
0.00161233
0.0016056
0.00159866
0.00159149
0.00158411
0.00157651
0.00156869
0.00156075
0.00155224
0.00161743
0.0016462
0.00166694
0.00168164
0.00169179
0.00169869
0.00170341
0.00170675
0.00170929
0.00171111
0.00171234
0.00171358
0.00171435
0.001714
0.00171427
0.00171495
0.00171335
0.00171233
0.00171293
0.00171091
0.00170803
0.00170767
0.00170674
0.00170291
0.00169944
0.00169815
0.00169608
0.00169207
0.00168772
0.00168438
0.00168091
0.00167687
0.00167232
0.00166748
0.00166254
0.00165745
0.00165216
0.00164664
0.00164085
0.00163483
0.00162859
0.00162214
0.00161548
0.00160862
0.00160154
0.00159427
0.00158678
0.00157909
0.00157121
0.00156311
0.00155492
0.00154616
0.00167677
0.0016911
0.00170102
0.00170781
0.00171258
0.00171605
0.00171859
0.00172058
0.00172224
0.00172314
0.00172365
0.00172473
0.00172463
0.00172368
0.00172434
0.00172382
0.00172143
0.00172105
0.00172079
0.00171754
0.00171482
0.00171439
0.00171239
0.0017079
0.00170453
0.00170262
0.00169972
0.00169552
0.00169104
0.00168689
0.00168273
0.00167822
0.00167334
0.00166815
0.00166274
0.00165712
0.0016513
0.00164527
0.00163905
0.00163262
0.00162598
0.00161913
0.00161208
0.00160484
0.00159741
0.00158979
0.00158198
0.00157398
0.00156581
0.00155744
0.00154901
0.00154002
0.00171294
0.00171974
0.00172462
0.00172823
0.00173104
0.00173323
0.00173478
0.00173619
0.00173731
0.00173728
0.00173764
0.00173851
0.00173717
0.00173634
0.00173695
0.0017348
0.00173234
0.00173234
0.00173062
0.00172647
0.001724
0.00172289
0.00171987
0.00171502
0.00171151
0.00170852
0.00170483
0.00170036
0.0016955
0.00169062
0.00168571
0.00168062
0.00167524
0.00166958
0.00166366
0.00165753
0.00165117
0.00164461
0.00163783
0.00163085
0.0016237
0.0016164
0.00160892
0.00160127
0.00159344
0.00158545
0.00157729
0.00156896
0.0015605
0.00155185
0.00154318
0.00153397
0.00174191
0.00174589
0.001749
0.00175145
0.00175356
0.00175499
0.0017559
0.00175718
0.00175751
0.00175688
0.00175763
0.00175723
0.00175512
0.00175494
0.00175426
0.00175086
0.00174872
0.00174808
0.00174498
0.00174024
0.0017377
0.00173527
0.00173137
0.00172642
0.0017219
0.00171763
0.00171303
0.00170794
0.00170244
0.00169675
0.00169096
0.00168504
0.00167894
0.00167261
0.00166605
0.00165929
0.00165234
0.00164517
0.00163779
0.00163021
0.00162245
0.0016145
0.00160643
0.00159825
0.00158995
0.00158153
0.00157297
0.00156428
0.00155548
0.00154654
0.00153762
0.00152818
0.00177683
0.00177989
0.00178226
0.00178433
0.00178606
0.00178674
0.00178751
0.00178865
0.00178785
0.00178723
0.00178787
0.00178573
0.00178347
0.0017833
0.00178075
0.00177649
0.00177436
0.0017722
0.00176785
0.0017627
0.00175901
0.00175501
0.00175012
0.00174448
0.00173869
0.00173293
0.00172701
0.00172076
0.00171419
0.00170736
0.00170037
0.00169324
0.00168598
0.00167858
0.00167104
0.00166338
0.00165558
0.00164762
0.00163952
0.00163123
0.00162276
0.00161411
0.00160534
0.00159644
0.00158744
0.00157841
0.00156935
0.00156022
0.00155103
0.00154175
0.00153253
0.00152284
0.0018316
0.00183368
0.00183575
0.00183695
0.00183709
0.00183813
0.00183831
0.00183652
0.00183628
0.00183539
0.00183172
0.00182943
0.00182781
0.00182349
0.00181842
0.00181507
0.00181084
0.00180533
0.00179913
0.00179314
0.00178714
0.00178062
0.00177347
0.00176597
0.00175831
0.00175048
0.00174239
0.00173405
0.00172549
0.00171677
0.00170791
0.00169894
0.00168986
0.00168072
0.00167153
0.00166232
0.00165312
0.00164391
0.00163464
0.00162527
0.00161579
0.00160618
0.00159645
0.00158667
0.00157686
0.00156703
0.00155723
0.00154749
0.00153777
0.00152819
0.0015182
0.00191477
0.00191687
0.00191885
0.00191923
0.00191915
0.00192012
0.00191834
0.0019158
0.00191518
0.00191164
0.00190656
0.00190319
0.0018988
0.00189288
0.00188624
0.00187975
0.00187299
0.00186532
0.00185683
0.00184806
0.00183908
0.00182968
0.0018198
0.00180956
0.00179908
0.00178839
0.00177749
0.0017664
0.00175515
0.00174381
0.00173239
0.00172093
0.00170945
0.00169797
0.00168653
0.00167514
0.00166385
0.00165271
0.00164176
0.00163098
0.0016203
0.0016096
0.00159889
0.00158815
0.00157739
0.00156666
0.00155605
0.00154554
0.00153509
0.00152494
0.00151453
0.00204883
0.00205088
0.00205213
0.00205126
0.00205088
0.00205014
0.00204578
0.00204197
0.00203856
0.00203242
0.00202522
0.00201819
0.00201059
0.00200176
0.00199185
0.00198142
0.00197046
0.00195868
0.00194619
0.00193323
0.00191987
0.00190605
0.00189179
0.00187721
0.00186238
0.00184736
0.0018322
0.00181692
0.00180161
0.0017863
0.00177105
0.0017559
0.00174087
0.00172602
0.00171135
0.00169691
0.00168272
0.00166879
0.00165516
0.00164189
0.00162906
0.00161665
0.00160454
0.00159254
0.0015806
0.0015688
0.00155714
0.00154567
0.00153438
0.00152349
0.0015124
0.0022539
0.00225287
0.00224978
0.00224772
0.00224276
0.00223545
0.00222862
0.00222043
0.00221069
0.00219989
0.00218829
0.00217555
0.00216147
0.00214633
0.00213041
0.00211366
0.00209598
0.00207752
0.00205846
0.00203887
0.00201874
0.00199817
0.00197727
0.00195615
0.00193489
0.00191357
0.00189226
0.00187105
0.00185001
0.00182922
0.00180874
0.00178861
0.0017689
0.00174963
0.00173084
0.00171257
0.00169483
0.00167763
0.00166099
0.00164492
0.00162949
0.00161479
0.00160083
0.00158737
0.00157416
0.00156115