/*--------------------------------*- C++ -*----------------------------------*\
| =========                 |                                                 |
| \\      /  F ield         | OpenFOAM: The Open Source CFD Toolbox           |
|  \\    /   O peration     | Version:  v1706                                 |
|   \\  /    A nd           | Web:      www.OpenFOAM.com                      |
|    \\/     M anipulation  |                                                 |
\*---------------------------------------------------------------------------*/
FoamFile
{
    version     2.0;
    format      ascii;
    class       volScalarField;
    location    "1.3e-05";
    object      Tv;
}
// * * * * * * * * * * * * * * * * * * * * * * * * * * * * * * * * * * * * * //

dimensions      [0 0 0 1 0 0 0];


internalField   nonuniform List<scalar> 
30038
(
144.4
144.4
144.4
144.4
144.4
144.4
144.4
144.4
144.4
144.4
144.4
144.4
144.4
144.4
144.4
144.4
144.4
144.4
144.4
144.4
144.4
144.4
144.4
144.4
144.4
144.4
144.4
144.4
144.4
144.4
144.4
144.4
144.4
144.4
144.4
144.4
144.4
144.4
144.4
144.4
144.4
144.4
144.4
144.4
144.4
144.4
144.4
144.4
144.4
144.4
144.4
144.4
144.4
144.4
144.4
144.4
144.4
144.4
144.4
144.4
144.4
144.4
144.4
144.4
144.4
144.4
144.4
144.4
144.4
144.4
144.4
144.4
144.4
144.4
144.4
144.4
144.4
144.4
144.4
144.4
144.4
144.4
144.4
144.4
144.4
144.4
144.4
144.4
144.4
144.4
144.4
144.4
144.4
144.4
144.4
144.4
144.4
144.4
144.4
144.4
144.4
144.4
144.4
144.4
144.4
144.4
144.4
144.4
144.4
144.4
144.4
144.4
144.4
144.4
144.4
144.4
144.4
144.4
144.4
144.4
144.4
144.4
144.4
144.4
144.4
144.4
144.4
144.4
144.4
144.4
144.4
144.4
144.4
144.4
144.4
144.4
144.4
144.4
144.4
144.4
144.4
144.4
144.4
144.4
144.4
144.4
144.4
144.4
144.4
144.4
144.4
144.4
144.4
144.4
144.4
144.4
144.4
144.4
144.4
144.4
144.4
144.4
144.4
144.4
144.4
144.4
144.4
144.4
144.4
144.4
144.4
144.4
144.4
144.4
144.4
144.4
144.4
144.4
144.4
144.4
144.4
144.4
144.4
144.4
144.4
144.4
144.4
144.4
144.4
144.4
144.4
144.4
144.4
144.4
144.4
144.4
144.4
144.4
144.4
144.4
144.4
144.4
144.4
144.4
144.4
144.4
144.4
144.4
144.4
144.4
144.4
144.4
144.4
144.4
144.4
144.4
144.4
144.4
144.4
144.4
144.4
144.4
144.4
144.4
144.4
144.4
144.4
144.4
144.4
144.4
144.4
144.4
144.4
144.4
144.4
144.4
144.4
144.4
144.4
144.4
144.4
144.4
144.4
144.4
144.4
144.4
144.4
144.4
144.4
144.4
144.4
144.4
144.4
144.4
144.4
144.4
144.4
144.4
144.4
144.4
144.4
144.4
144.4
144.4
144.4
144.4
144.4
144.4
144.4
144.4
144.4
144.4
144.4
144.4
144.4
144.4
144.4
144.4
144.4
144.4
144.4
144.4
144.4
144.4
144.4
144.4
144.4
144.4
144.4
144.4
144.4
144.4
144.4
144.4
144.4
144.4
144.4
144.4
144.4
144.4
144.4
144.4
144.4
144.4
144.4
144.4
144.4
144.4
144.4
144.4
144.4
144.4
144.4
144.4
144.4
144.4
144.4
144.4
144.4
144.4
144.4
144.4
144.4
144.4
144.4
144.4
144.4
144.4
144.4
144.4
144.4
144.4
144.4
144.4
144.4
144.4
144.4
144.4
144.4
144.4
144.4
144.4
144.4
144.4
144.4
144.4
144.4
144.4
144.4
144.4
144.4
144.4
144.4
144.4
144.4
144.4
144.4
144.4
144.4
144.4
144.4
144.4
144.4
144.4
144.4
144.4
144.4
144.4
144.4
144.4
144.4
144.4
144.4
144.4
144.4
144.4
144.4
144.4
144.4
144.4
144.4
144.4
144.4
144.4
144.4
144.4
144.4
144.4
144.4
144.4
144.4
144.4
144.4
144.4
144.4
144.4
144.4
144.4
144.4
144.4
144.4
144.4
144.4
144.4
144.4
144.4
144.4
144.4
144.4
144.4
144.4
144.4
144.4
144.4
144.4
144.4
144.4
144.4
144.4
144.4
144.4
144.4
144.4
144.4
144.4
144.4
144.4
144.4
144.4
144.4
144.4
144.4
144.4
144.4
144.4
144.4
144.4
144.4
144.4
144.4
144.4
144.4
144.4
144.4
144.4
144.4
144.4
144.4
144.4
144.4
144.4
144.4
144.4
144.4
144.4
144.4
144.4
144.4
144.4
144.4
144.4
144.4
144.4
144.4
144.4
144.4
144.4
144.4
144.4
144.4
144.4
144.4
144.4
144.4
144.4
144.4
144.4
144.4
144.4
144.4
144.4
144.4
144.4
144.4
144.4
144.4
144.4
144.4
144.4
144.4
144.4
144.4
144.4
144.4
144.4
144.4
144.4
144.4
144.4
144.4
144.4
144.4
144.4
144.4
144.4
144.4
144.4
144.4
144.4
144.4
144.4
144.4
144.4
144.4
144.4
144.4
144.4
144.4
144.4
144.4
144.4
144.4
144.4
144.4
144.4
144.4
144.4
144.4
144.4
144.4
144.4
144.4
144.4
144.4
144.4
144.4
144.4
144.4
144.4
144.4
144.4
144.4
144.4
144.4
144.4
144.4
144.4
144.4
144.4
144.4
144.4
144.4
144.4
144.4
144.4
144.4
144.4
144.4
144.4
144.4
144.4
144.4
144.4
144.4
144.4
144.4
144.4
144.4
144.4
144.4
144.4
144.4
144.4
144.4
144.4
144.4
144.4
144.4
144.4
144.4
144.4
144.4
144.4
144.4
144.4
144.4
144.4
144.4
144.4
144.4
144.4
144.4
144.4
144.4
144.4
144.4
144.4
144.4
144.4
144.4
144.4
144.4
144.4
144.4
144.4
144.4
144.4
144.4
144.4
144.4
144.4
144.4
144.4
144.4
144.4
144.4
144.4
144.4
144.4
144.4
144.4
144.4
144.4
144.4
144.4
144.4
144.4
144.4
144.4
144.4
144.4
144.4
144.4
144.4
144.4
144.4
144.4
144.4
144.4
144.4
144.4
144.4
144.4
144.4
144.4
144.4
144.4
144.4
144.4
144.4
144.4
144.4
144.4
144.4
144.4
144.4
144.4
144.4
144.4
144.4
144.4
144.4
144.4
144.4
144.4
144.4
144.4
144.4
144.4
144.4
144.4
144.4
144.4
144.4
144.4
144.4
144.4
144.4
144.4
144.4
144.4
144.4
144.4
144.4
144.4
144.4
144.4
144.4
144.4
144.4
144.4
144.4
144.4
144.4
144.4
144.4
144.4
144.4
144.4
144.4
144.4
144.4
144.4
144.4
144.4
144.4
144.4
144.4
144.4
144.4
144.4
144.4
144.4
144.4
144.4
144.4
144.4
144.4
144.4
144.4
144.4
144.4
144.4
144.4
144.4
144.4
144.4
144.4
144.4
144.4
144.4
144.4
144.4
144.4
144.4
144.4
144.4
144.4
144.4
144.4
144.4
144.4
144.4
144.4
144.4
144.4
144.4
144.4
144.4
144.4
144.4
144.4
144.4
144.4
144.4
144.4
144.4
144.4
144.4
144.4
144.4
144.4
144.4
144.4
144.4
144.4
144.4
144.4
144.4
144.4
144.4
144.4
144.4
144.4
144.4
144.4
144.4
144.4
144.4
144.4
144.4
144.4
144.4
144.4
144.4
144.4
144.4
144.4
144.4
144.4
144.4
144.4
144.4
144.4
144.4
144.4
144.4
144.4
144.4
144.4
144.4
144.4
144.4
144.4
144.4
144.4
144.4
144.4
144.4
144.4
144.4
144.4
144.4
144.4
144.4
144.4
144.4
144.4
144.4
144.4
144.4
144.4
144.4
144.4
144.4
144.4
144.4
144.4
144.4
144.4
144.4
144.4
144.4
144.4
144.4
144.4
144.4
144.4
144.4
144.4
144.4
144.4
144.4
144.4
144.4
144.4
144.4
144.4
144.4
144.4
144.4
144.4
144.4
144.4
144.4
144.4
144.4
144.4
144.4
144.4
144.4
144.4
144.4
144.4
144.4
144.4
144.4
144.4
144.4
144.4
144.4
144.4
144.4
144.4
144.4
144.4
144.4
144.4
144.4
144.4
144.4
144.4
144.4
144.4
144.4
144.4
144.4
144.4
144.4
144.4
144.4
144.4
144.4
144.4
144.4
144.4
144.4
144.4
144.4
144.4
144.4
144.4
144.4
144.4
144.4
144.4
144.4
144.4
144.4
144.4
144.4
144.4
144.4
144.4
144.4
144.4
144.4
144.4
144.4
144.4
144.4
144.4
144.4
144.4
144.4
144.4
144.4
144.4
144.4
144.4
144.4
144.4
144.4
144.4
144.4
144.4
144.4
144.4
144.4
144.4
144.4
144.4
144.4
144.4
144.4
144.4
144.4
144.4
144.4
144.4
144.4
144.4
144.4
144.4
144.4
144.4
144.4
144.4
144.4
144.4
144.4
144.4
144.4
144.4
144.4
144.4
144.4
144.4
144.4
144.4
144.4
144.4
144.4
144.4
144.4
144.4
144.4
144.4
144.4
144.4
144.4
144.4
144.4
144.4
144.4
144.4
144.4
144.4
144.4
144.4
144.4
144.4
144.4
144.4
144.4
144.4
144.4
144.4
144.4
144.4
144.4
144.4
144.4
144.4
144.4
144.4
144.4
144.4
144.4
144.4
144.4
144.4
144.4
144.4
144.4
144.4
144.4
144.4
144.4
144.4
144.4
144.4
144.4
144.4
144.4
144.4
144.4
144.4
144.4
144.4
144.4
144.4
144.4
144.4
144.4
144.4
144.4
144.4
144.4
144.4
144.4
144.4
144.4
144.4
144.4
144.4
144.4
144.4
144.4
144.4
144.4
144.4
144.4
144.4
144.4
144.4
144.4
144.4
144.4
144.4
144.4
144.4
144.4
144.4
144.4
144.4
144.4
144.4
144.4
144.4
144.4
144.4
144.4
144.4
144.4
144.4
144.4
144.4
144.4
144.4
144.4
144.4
144.4
144.4
144.4
144.4
144.4
144.4
144.4
144.4
144.4
144.4
144.4
144.4
144.4
144.4
144.4
144.4
144.4
144.4
144.4
144.4
144.4
144.4
144.4
144.4
144.4
144.4
144.4
144.4
144.4
144.4
144.4
144.4
144.4
144.4
144.4
144.4
144.4
144.4
144.4
144.4
144.4
144.4
144.4
144.4
144.4
144.4
144.4
144.4
144.4
144.4
144.4
144.4
144.4
144.4
144.4
144.4
144.4
144.4
144.4
144.4
144.4
144.4
144.4
144.4
144.4
144.4
144.4
144.4
144.4
144.4
144.4
144.4
144.4
144.4
144.4
144.4
144.4
144.4
144.4
144.4
144.4
144.4
144.4
144.4
144.4
144.4
144.4
144.4
144.4
144.4
144.4
144.4
144.4
144.4
144.4
144.4
144.4
144.4
144.4
144.4
144.4
144.4
144.4
144.4
144.4
144.4
144.4
144.4
144.4
144.4
144.4
144.4
144.4
144.4
144.4
144.4
144.4
144.4
144.4
144.4
144.4
144.4
144.4
144.4
144.4
144.4
144.4
144.4
144.4
144.4
144.4
144.4
144.4
144.4
144.4
144.4
144.4
144.4
144.4
144.4
144.4
144.4
144.4
144.4
144.4
144.4
144.4
144.4
144.4
144.4
144.4
144.4
144.4
144.4
144.4
144.4
144.4
144.4
144.4
144.4
144.4
144.4
144.4
144.4
144.4
144.4
144.4
144.4
144.4
144.4
144.4
144.4
144.4
144.4
144.4
144.4
144.4
144.4
144.4
144.4
144.4
144.4
144.4
144.4
144.4
144.4
144.4
144.4
144.4
144.4
144.4
144.4
144.4
144.4
144.4
144.4
144.4
144.4
144.4
144.4
144.4
144.4
144.4
144.4
144.4
144.4
144.4
144.4
144.4
144.4
144.4
144.4
144.4
144.4
144.4
144.4
144.4
144.4
144.4
144.4
144.4
144.4
144.4
144.4
144.4
144.4
144.4
144.4
144.4
144.4
144.4
144.4
144.4
144.4
144.4
144.4
144.4
144.4
144.4
144.4
144.4
144.4
144.4
144.4
144.4
144.4
144.4
144.4
144.4
144.4
144.4
144.4
144.4
144.4
144.4
144.4
144.4
144.4
144.4
144.4
144.4
144.4
144.4
144.4
144.4
144.4
144.4
144.4
144.4
144.4
144.4
144.4
144.4
144.4
144.4
144.4
144.4
144.4
144.4
144.4
144.4
144.4
144.4
144.4
144.4
144.4
144.4
144.4
144.4
144.4
144.4
144.4
144.4
144.4
144.4
144.4
144.4
144.4
144.4
144.4
144.4
144.4
144.4
144.4
144.4
144.4
144.4
144.4
144.4
144.4
144.4
144.4
144.4
144.4
144.4
144.4
144.4
144.4
144.4
144.4
144.4
144.4
144.4
144.4
144.4
144.4
144.4
144.4
144.4
144.4
144.4
144.4
144.4
144.4
144.4
144.4
144.4
144.4
144.4
144.4
144.4
144.4
144.4
144.4
144.4
144.4
144.4
144.4
144.4
144.4
144.4
144.4
144.4
144.4
144.4
144.4
144.4
144.4
144.4
144.4
144.4
144.4
144.4
144.4
144.4
144.4
144.4
144.4
144.4
144.4
144.4
144.4
144.4
144.4
144.4
144.4
144.4
144.4
144.4
144.4
144.4
144.4
144.4
144.4
144.4
144.4
144.4
144.4
144.4
144.4
144.4
144.4
144.4
144.4
144.4
144.4
144.4
144.4
144.4
144.4
144.4
144.4
144.4
144.4
144.4
144.4
144.4
144.4
144.4
144.4
144.4
144.4
144.4
144.4
144.4
144.4
144.4
144.4
144.4
144.4
144.4
144.4
144.4
144.4
144.4
144.4
144.4
144.4
144.4
144.4
144.4
144.4
144.4
144.4
144.4
144.4
144.4
144.4
144.4
144.4
144.4
144.4
144.4
144.4
144.4
144.4
144.4
144.4
144.4
144.4
144.4
144.4
144.4
144.4
144.4
144.4
144.4
144.4
144.4
144.4
144.4
144.4
144.4
144.4
144.4
144.4
144.4
144.4
144.4
144.4
144.4
144.4
144.4
144.4
144.4
144.4
144.4
144.4
144.4
144.4
144.4
144.4
144.4
144.4
144.4
144.4
144.4
144.4
144.4
144.4
144.4
144.4
144.4
144.4
144.4
144.4
144.4
144.4
144.4
144.4
144.4
144.4
144.4
144.4
144.4
144.4
144.4
144.4
144.4
144.401
144.4
144.4
144.4
144.4
144.4
144.4
144.4
144.4
144.4
144.4
144.4
144.4
144.4
144.4
144.4
144.4
144.4
144.4
144.4
144.4
144.4
144.4
144.4
144.4
144.4
144.4
144.4
144.4
144.4
144.4
144.4
144.4
144.4
144.4
144.4
144.4
144.4
144.4
144.4
144.4
144.4
144.4
144.4
144.4
144.4
144.4
144.401
144.401
144.401
144.401
144.4
144.4
144.4
144.4
144.4
144.4
144.4
144.4
144.4
144.4
144.4
144.4
144.4
144.4
144.4
144.4
144.4
144.4
144.4
144.4
144.4
144.4
144.4
144.4
144.4
144.4
144.4
144.4
144.4
144.4
144.4
144.4
144.4
144.4
144.4
144.4
144.4
144.4
144.4
144.4
144.4
144.4
144.4
144.4
144.401
144.401
144.401
144.401
144.401
144.402
144.4
144.4
144.4
144.4
144.4
144.4
144.4
144.4
144.4
144.4
144.4
144.4
144.4
144.4
144.4
144.4
144.4
144.4
144.4
144.4
144.4
144.4
144.4
144.4
144.4
144.4
144.4
144.4
144.4
144.4
144.4
144.4
144.4
144.4
144.4
144.4
144.4
144.4
144.4
144.4
144.4
144.4
144.401
144.401
144.401
144.401
144.402
144.402
144.402
144.403
144.4
144.4
144.4
144.4
144.4
144.4
144.4
144.4
144.4
144.4
144.4
144.4
144.4
144.4
144.4
144.4
144.4
144.4
144.4
144.4
144.4
144.4
144.4
144.4
144.4
144.4
144.4
144.4
144.4
144.4
144.4
144.4
144.4
144.4
144.4
144.4
144.4
144.4
144.4
144.4
144.401
144.401
144.401
144.401
144.402
144.402
144.403
144.403
144.404
144.405
144.4
144.4
144.4
144.4
144.4
144.4
144.4
144.4
144.4
144.4
144.4
144.4
144.4
144.4
144.4
144.4
144.4
144.4
144.4
144.4
144.4
144.4
144.4
144.4
144.4
144.4
144.4
144.4
144.4
144.4
144.4
144.4
144.4
144.4
144.4
144.4
144.4
144.401
144.401
144.401
144.401
144.401
144.402
144.402
144.403
144.403
144.404
144.405
144.407
144.408
144.4
144.4
144.4
144.4
144.4
144.4
144.4
144.4
144.4
144.4
144.4
144.4
144.4
144.4
144.4
144.4
144.4
144.4
144.4
144.4
144.4
144.4
144.4
144.4
144.4
144.4
144.4
144.4
144.4
144.4
144.4
144.4
144.4
144.4
144.4
144.401
144.401
144.401
144.401
144.401
144.402
144.402
144.403
144.404
144.404
144.405
144.407
144.408
144.41
144.413
144.4
144.4
144.4
144.4
144.4
144.4
144.4
144.4
144.4
144.4
144.4
144.4
144.4
144.4
144.4
144.4
144.4
144.4
144.4
144.4
144.4
144.4
144.4
144.4
144.4
144.4
144.4
144.4
144.4
144.4
144.4
144.4
144.4
144.4
144.401
144.401
144.401
144.401
144.401
144.402
144.402
144.403
144.404
144.405
144.406
144.407
144.409
144.411
144.413
144.416
144.42
144.4
144.4
144.4
144.4
144.4
144.4
144.4
144.4
144.4
144.4
144.4
144.4
144.4
144.4
144.4
144.4
144.4
144.4
144.4
144.4
144.4
144.4
144.4
144.4
144.4
144.4
144.4
144.4
144.4
144.4
144.4
144.4
144.401
144.401
144.401
144.401
144.402
144.402
144.402
144.403
144.404
144.405
144.406
144.407
144.409
144.411
144.413
144.416
144.42
144.424
144.43
144.4
144.4
144.4
144.4
144.4
144.4
144.4
144.4
144.4
144.4
144.4
144.4
144.4
144.4
144.4
144.4
144.4
144.4
144.4
144.4
144.4
144.4
144.4
144.4
144.4
144.4
144.4
144.4
144.4
144.4
144.401
144.401
144.401
144.401
144.401
144.402
144.402
144.402
144.403
144.404
144.405
144.406
144.407
144.409
144.411
144.414
144.417
144.42
144.425
144.43
144.436
144.444
144.4
144.4
144.4
144.4
144.4
144.4
144.4
144.4
144.4
144.4
144.4
144.4
144.4
144.4
144.4
144.4
144.4
144.4
144.4
144.4
144.4
144.4
144.4
144.4
144.4
144.4
144.4
144.4
144.401
144.401
144.401
144.401
144.401
144.402
144.402
144.403
144.403
144.404
144.405
144.406
144.407
144.409
144.411
144.414
144.417
144.421
144.425
144.43
144.437
144.444
144.453
144.464
144.4
144.4
144.4
144.4
144.4
144.4
144.4
144.4
144.4
144.4
144.4
144.4
144.4
144.4
144.4
144.4
144.4
144.4
144.4
144.4
144.4
144.4
144.4
144.4
144.4
144.4
144.401
144.401
144.401
144.401
144.401
144.402
144.402
144.403
144.403
144.404
144.405
144.406
144.408
144.409
144.411
144.414
144.417
144.421
144.425
144.43
144.437
144.445
144.454
144.464
144.477
144.492
144.4
144.4
144.4
144.4
144.4
144.4
144.4
144.4
144.4
144.4
144.4
144.4
144.4
144.4
144.4
144.4
144.4
144.4
144.4
144.4
144.4
144.4
144.4
144.4
144.401
144.401
144.401
144.401
144.401
144.402
144.402
144.403
144.403
144.404
144.405
144.406
144.408
144.409
144.411
144.414
144.417
144.421
144.425
144.431
144.437
144.445
144.454
144.464
144.477
144.492
144.51
144.531
144.4
144.4
144.4
144.4
144.4
144.4
144.4
144.4
144.4
144.4
144.4
144.4
144.4
144.4
144.4
144.4
144.4
144.4
144.4
144.4
144.4
144.401
144.401
144.401
144.401
144.401
144.401
144.402
144.402
144.403
144.403
144.404
144.405
144.406
144.408
144.41
144.412
144.414
144.417
144.421
144.425
144.431
144.437
144.445
144.454
144.464
144.477
144.492
144.509
144.53
144.553
144.582
144.4
144.4
144.4
144.4
144.4
144.4
144.4
144.4
144.4
144.4
144.4
144.4
144.4
144.4
144.4
144.4
144.4
144.401
144.401
144.401
144.401
144.401
144.401
144.401
144.402
144.402
144.402
144.403
144.404
144.404
144.405
144.407
144.408
144.41
144.412
144.414
144.417
144.421
144.426
144.431
144.437
144.445
144.454
144.464
144.477
144.491
144.509
144.529
144.552
144.58
144.612
144.649
144.4
144.4
144.4
144.4
144.4
144.4
144.4
144.4
144.4
144.4
144.401
144.401
144.401
144.401
144.401
144.401
144.401
144.401
144.401
144.401
144.402
144.402
144.402
144.403
144.403
144.404
144.404
144.405
144.406
144.407
144.409
144.41
144.413
144.415
144.418
144.422
144.426
144.431
144.438
144.445
144.454
144.464
144.477
144.491
144.508
144.528
144.551
144.578
144.61
144.646
144.688
144.737
144.401
144.401
144.401
144.401
144.401
144.401
144.401
144.401
144.401
144.402
144.402
144.402
144.402
144.402
144.402
144.402
144.403
144.403
144.403
144.404
144.404
144.404
144.405
144.406
144.407
144.408
144.409
144.41
144.412
144.414
144.417
144.42
144.423
144.428
144.433
144.439
144.446
144.455
144.465
144.477
144.492
144.508
144.528
144.551
144.577
144.608
144.644
144.685
144.732
144.787
144.849
144.402
144.402
144.403
144.403
144.403
144.403
144.403
144.404
144.404
144.404
144.404
144.405
144.405
144.405
144.406
144.406
144.407
144.407
144.408
144.408
144.409
144.41
144.411
144.412
144.413
144.414
144.416
144.418
144.421
144.424
144.427
144.432
144.437
144.443
144.45
144.459
144.469
144.48
144.494
144.511
144.53
144.552
144.578
144.608
144.643
144.683
144.73
144.783
144.843
144.912
144.992
144.407
144.407
144.408
144.408
144.409
144.409
144.41
144.41
144.411
144.412
144.412
144.413
144.413
144.414
144.415
144.416
144.416
144.417
144.418
144.419
144.42
144.422
144.423
144.425
144.426
144.429
144.431
144.434
144.438
144.442
144.447
144.453
144.46
144.468
144.477
144.489
144.502
144.518
144.537
144.558
144.583
144.613
144.646
144.686
144.731
144.782
144.841
144.908
144.985
145.071
145.17
144.419
144.42
144.422
144.423
144.424
144.426
144.427
144.429
144.43
144.431
144.433
144.434
144.436
144.437
144.439
144.44
144.442
144.444
144.445
144.447
144.449
144.451
144.453
144.456
144.459
144.462
144.466
144.471
144.476
144.483
144.49
144.5
144.51
144.523
144.538
144.555
144.575
144.599
144.627
144.659
144.697
144.74
144.789
144.846
144.911
144.985
145.069
145.163
145.269
145.39
144.448
144.451
144.454
144.457
144.461
144.464
144.467
144.47
144.473
144.477
144.48
144.483
144.486
144.489
144.492
144.495
144.498
144.501
144.504
144.506
144.509
144.512
144.515
144.519
144.523
144.527
144.532
144.537
144.544
144.552
144.561
144.572
144.585
144.6
144.618
144.64
144.665
144.695
144.729
144.769
144.816
144.869
144.93
145
145.08
145.17
145.272
145.387
145.515
145.659
144.514
144.52
144.527
144.534
144.541
144.548
144.555
144.562
144.568
144.575
144.582
144.588
144.594
144.601
144.606
144.612
144.617
144.622
144.626
144.631
144.635
144.639
144.643
144.647
144.651
144.656
144.661
144.667
144.674
144.682
144.691
144.703
144.717
144.734
144.755
144.779
144.809
144.843
144.884
144.931
144.986
145.05
145.123
145.207
145.302
145.409
145.53
145.666
145.817
145.986
144.65
144.663
144.677
144.691
144.705
144.719
144.733
144.747
144.76
144.774
144.786
144.799
144.811
144.822
144.832
144.842
144.851
144.86
144.867
144.874
144.879
144.885
144.889
144.893
144.897
144.901
144.904
144.908
144.913
144.919
144.927
144.937
144.949
144.965
144.985
145.01
145.04
145.077
145.121
145.173
145.235
145.307
145.39
145.486
145.595
145.719
145.858
146.014
146.188
146.382
144.912
144.938
144.964
144.991
145.017
145.043
145.068
145.094
145.118
145.142
145.165
145.187
145.208
145.228
145.246
145.262
145.277
145.29
145.302
145.311
145.319
145.325
145.329
145.332
145.334
145.334
145.334
145.333
145.332
145.332
145.333
145.337
145.342
145.352
145.365
145.384
145.41
145.443
145.485
145.536
145.599
145.674
145.763
145.866
145.985
146.121
146.275
146.448
146.641
146.857
145.38
145.425
145.47
145.515
145.56
145.604
145.647
145.69
145.731
145.77
145.808
145.844
145.877
145.908
145.937
145.962
145.985
146.004
146.02
146.033
146.042
146.048
146.05
146.05
146.047
146.042
146.034
146.024
146.013
146.001
145.989
145.979
145.97
145.965
145.964
145.969
145.981
146.001
146.031
146.073
146.127
146.196
146.281
146.383
146.504
146.645
146.806
146.989
147.196
147.428
146.143
146.215
146.286
146.357
146.426
146.494
146.56
146.624
146.686
146.745
146.801
146.853
146.902
146.947
146.987
147.023
147.053
147.079
147.1
147.115
147.124
147.128
147.128
147.122
147.113
147.098
147.078
147.054
147.026
146.997
146.966
146.935
146.904
146.876
146.851
146.832
146.819
146.815
146.822
146.841
146.874
146.925
146.993
147.082
147.192
147.325
147.482
147.665
147.874
148.112
147.386
147.488
147.587
147.685
147.779
147.87
147.958
148.042
148.121
148.196
148.265
148.329
148.387
148.438
148.483
148.521
148.552
148.575
148.591
148.599
148.599
148.594
148.581
148.562
148.534
148.498
148.456
148.409
148.358
148.303
148.245
148.187
148.128
148.072
148.019
147.972
147.933
147.905
147.889
147.888
147.905
147.943
148.002
148.086
148.197
148.335
148.502
148.7
148.931
148.97
149.101
149.229
149.353
149.472
149.586
149.695
149.798
149.895
149.985
150.069
150.144
150.212
150.272
150.323
150.365
150.398
150.421
150.435
150.438
150.434
150.422
150.401
150.369
150.325
150.272
150.212
150.144
150.068
149.987
149.901
149.812
149.72
149.628
149.538
149.451
149.371
149.3
149.24
149.194
149.167
149.16
149.176
149.219
149.29
149.392
149.528
149.698
149.907
150.937
151.093
151.243
151.388
151.526
151.658
151.782
151.899
152.009
152.109
152.201
152.284
152.357
152.42
152.473
152.516
152.547
152.567
152.576
152.574
152.563
152.543
152.51
152.463
152.404
152.335
152.256
152.168
152.07
151.964
151.85
151.731
151.607
151.48
151.352
151.226
151.103
150.987
150.88
150.785
150.707
150.647
150.611
150.601
150.62
150.673
150.761
150.887
151.057
153.386
153.551
153.71
153.86
154.002
154.136
154.26
154.376
154.481
154.576
154.66
154.734
154.796
154.847
154.886
154.913
154.927
154.928
154.92
154.902
154.871
154.824
154.763
154.69
154.605
154.509
154.402
154.283
154.155
154.018
153.872
153.72
153.562
153.4
153.238
153.076
152.918
152.766
152.623
152.494
152.381
152.289
152.221
152.183
152.177
152.206
152.276
152.393
155.892
156.065
156.23
156.386
156.532
156.669
156.795
156.911
157.015
157.109
157.191
157.261
157.319
157.364
157.396
157.416
157.421
157.416
157.4
157.371
157.328
157.267
157.193
157.107
157.007
156.895
156.771
156.635
156.488
156.33
156.162
155.986
155.802
155.613
155.42
155.225
155.03
154.839
154.655
154.48
154.318
154.173
154.05
153.952
153.885
153.853
153.86
153.915
158.707
158.873
159.028
159.174
159.308
159.432
159.544
159.644
159.733
159.809
159.872
159.923
159.96
159.984
159.994
159.991
159.978
159.952
159.912
159.854
159.781
159.695
159.596
159.483
159.357
159.218
159.066
158.902
158.727
158.541
158.345
158.141
157.929
157.711
157.489
157.266
157.043
156.823
156.61
156.406
156.216
156.043
155.892
155.768
155.675
155.619
155.611
161.417
161.58
161.732
161.872
162.002
162.119
162.225
162.318
162.399
162.467
162.522
162.564
162.592
162.605
162.605
162.595
162.572
162.535
162.48
162.41
162.326
162.228
162.116
161.99
161.851
161.699
161.534
161.356
161.166
160.965
160.753
160.532
160.302
160.065
159.822
159.575
159.327
159.08
158.836
158.598
158.371
158.157
157.961
157.787
157.64
157.526
157.457
164.312
164.457
164.59
164.712
164.822
164.919
165.003
165.075
165.134
165.179
165.21
165.228
165.231
165.222
165.202
165.169
165.118
165.051
164.969
164.874
164.764
164.641
164.504
164.353
164.188
164.01
163.82
163.617
163.403
163.178
162.943
162.698
162.446
162.187
161.923
161.655
161.387
161.119
160.855
160.598
160.352
160.119
159.904
159.712
159.549
159.428
167.042
167.178
167.303
167.416
167.516
167.604
167.678
167.74
167.788
167.823
167.843
167.849
167.844
167.826
167.796
167.749
167.686
167.607
167.515
167.408
167.288
167.153
167.005
166.843
166.667
166.478
166.277
166.063
165.838
165.601
165.354
165.098
164.833
164.561
164.283
164.001
163.716
163.431
163.147
162.868
162.596
162.335
162.088
161.86
161.657
161.491
169.752
169.879
169.994
170.097
170.187
170.265
170.329
170.38
170.418
170.441
170.45
170.447
170.432
170.405
170.362
170.303
170.228
170.139
170.036
169.919
169.788
169.643
169.484
169.312
169.126
168.927
168.716
168.492
168.256
168.01
167.753
167.487
167.212
166.929
166.641
166.347
166.05
165.751
165.452
165.157
164.866
164.583
164.312
164.057
163.822
163.621
172.432
172.549
172.654
172.747
172.827
172.893
172.947
172.987
173.014
173.026
173.025
173.013
172.989
172.95
172.895
172.824
172.739
172.64
172.527
172.4
172.259
172.104
171.935
171.753
171.558
171.35
171.129
170.897
170.653
170.397
170.132
169.857
169.574
169.283
168.985
168.682
168.375
168.066
167.757
167.449
167.144
166.846
166.557
166.281
166.022
165.794
175.076
175.183
175.277
175.359
175.428
175.484
175.527
175.557
175.572
175.574
175.565
175.543
175.509
175.458
175.391
175.31
175.215
175.106
174.983
174.847
174.696
174.532
174.355
174.164
173.96
173.744
173.515
173.274
173.022
172.759
172.487
172.204
171.914
171.615
171.311
171
170.686
170.369
170.051
169.734
169.42
169.11
168.808
168.517
168.241
167.992
177.678
177.775
177.859
177.93
177.989
178.035
178.067
178.086
178.091
178.084
178.066
178.035
177.989
177.926
177.849
177.759
177.654
177.536
177.405
177.259
177.1
176.927
176.741
176.543
176.331
176.107
175.87
175.623
175.364
175.094
174.815
174.526
174.229
173.925
173.614
173.298
172.978
172.655
172.33
172.006
171.684
171.367
171.056
170.754
170.466
170.203
180.237
180.324
180.397
180.459
180.507
180.543
180.565
180.573
180.569
180.554
180.527
180.486
180.428
180.356
180.27
180.17
180.057
179.93
179.79
179.636
179.469
179.288
179.095
178.888
178.669
178.438
178.195
177.941
177.676
177.4
177.115
176.821
176.519
176.209
175.893
175.572
175.247
174.92
174.59
174.261
173.934
173.611
173.293
172.984
172.688
172.415
182.829
182.893
182.944
182.983
183.008
183.02
183.019
183.008
182.984
182.947
182.895
182.828
182.746
182.652
182.544
182.423
182.288
182.14
181.978
181.803
181.615
181.415
181.202
180.976
180.739
180.49
180.23
179.959
179.678
179.388
179.089
178.782
178.468
178.148
177.823
177.495
177.163
176.83
176.497
176.166
175.839
175.517
175.203
174.901
174.621
185.29
185.345
185.386
185.415
185.431
185.434
185.425
185.406
185.374
185.327
185.265
185.188
185.099
184.997
184.881
184.752
184.61
184.454
184.285
184.104
183.909
183.702
183.483
183.251
183.008
182.754
182.489
182.213
181.928
181.633
181.33
181.019
180.702
180.379
180.05
179.719
179.384
179.049
178.713
178.38
178.049
177.725
177.408
177.102
176.818
187.708
187.753
187.786
187.805
187.812
187.807
187.791
187.764
187.723
187.666
187.595
187.511
187.415
187.305
187.182
187.045
186.896
186.734
186.559
186.371
186.17
185.957
185.733
185.496
185.248
184.988
184.719
184.439
184.149
183.851
183.545
183.231
182.91
182.584
182.254
181.92
181.583
181.245
180.908
180.573
180.241
179.914
179.596
179.289
179.001
190.119
190.143
190.154
190.152
190.141
190.118
190.082
190.032
189.966
189.888
189.797
189.693
189.577
189.447
189.304
189.148
188.98
188.799
188.605
188.4
188.181
187.952
187.71
187.458
187.194
186.92
186.637
186.344
186.043
185.733
185.417
185.094
184.766
184.433
184.098
183.76
183.421
183.082
182.746
182.413
182.086
181.766
181.458
181.17
192.443
192.458
192.461
192.454
192.435
192.405
192.361
192.302
192.229
192.144
192.047
191.936
191.813
191.677
191.529
191.367
191.193
191.007
190.808
190.598
190.375
190.141
189.895
189.639
189.372
189.095
188.808
188.512
188.208
187.897
187.578
187.254
186.924
186.59
186.253
185.914
185.575
185.236
184.899
184.566
184.238
183.919
183.611
183.322
194.726
194.734
194.73
194.716
194.691
194.653
194.601
194.534
194.456
194.364
194.261
194.144
194.015
193.874
193.72
193.554
193.375
193.184
192.98
192.765
192.539
192.301
192.052
191.792
191.522
191.242
190.953
190.655
190.349
190.035
189.715
189.389
189.059
188.724
188.386
188.047
187.707
187.368
187.032
186.699
186.372
186.053
185.746
185.458
196.969
196.97
196.96
196.94
196.909
196.863
196.803
196.731
196.646
196.549
196.44
196.318
196.184
196.038
195.879
195.708
195.525
195.329
195.122
194.903
194.673
194.432
194.18
193.917
193.645
193.362
193.071
192.772
192.464
192.149
191.828
191.502
191.17
190.835
190.497
190.158
189.819
189.48
189.144
188.812
188.487
188.169
187.863
187.576
199.168
199.153
199.127
199.088
199.036
198.97
198.892
198.802
198.7
198.585
198.459
198.32
198.169
198.006
197.831
197.644
197.445
197.234
197.012
196.779
196.535
196.28
196.016
195.741
195.457
195.164
194.863
194.555
194.239
193.918
193.591
193.259
192.924
192.587
192.248
191.909
191.572
191.237
190.906
190.582
190.266
189.962
189.676
201.328
201.308
201.276
201.231
201.172
201.101
201.018
200.923
200.816
200.697
200.566
200.424
200.269
200.102
199.923
199.732
199.53
199.317
199.092
198.857
198.61
198.354
198.087
197.811
197.526
197.232
196.93
196.621
196.305
195.983
195.657
195.325
194.991
194.654
194.316
193.979
193.643
193.309
192.98
192.658
192.344
192.042
191.758
203.452
203.426
203.389
203.337
203.273
203.197
203.11
203.01
202.899
202.777
202.642
202.495
202.337
202.167
201.985
201.791
201.587
201.371
201.144
200.906
200.658
200.4
200.132
199.855
199.569
199.275
198.973
198.663
198.348
198.026
197.7
197.369
197.036
196.7
196.364
196.027
195.693
195.361
195.035
194.714
194.403
194.104
193.821
205.509
205.465
205.408
205.34
205.26
205.168
205.065
204.95
204.824
204.685
204.536
204.374
204.201
204.017
203.821
203.614
203.396
203.168
202.929
202.679
202.42
202.151
201.874
201.587
201.293
200.991
200.681
200.366
200.045
199.72
199.391
199.058
198.724
198.389
198.055
197.723
197.393
197.069
196.751
196.442
196.146
195.866
207.555
207.506
207.445
207.372
207.288
207.193
207.086
206.968
206.839
206.698
206.545
206.381
206.206
206.019
205.821
205.613
205.393
205.163
204.923
204.673
204.413
204.144
203.866
203.58
203.286
202.984
202.676
202.361
202.041
201.717
201.389
201.059
200.727
200.394
200.062
199.731
199.405
199.083
198.768
198.462
198.169
197.892
209.567
209.513
209.447
209.371
209.284
209.185
209.076
208.955
208.822
208.679
208.524
208.357
208.18
207.992
207.793
207.583
207.362
207.132
206.891
206.64
206.38
206.111
205.833
205.547
205.254
204.953
204.646
204.332
204.014
203.692
203.365
203.037
202.707
202.376
202.047
201.719
201.395
201.076
200.764
200.461
200.172
199.898
211.543
211.485
211.416
211.337
211.247
211.145
211.033
210.909
210.775
210.629
210.472
210.304
210.125
209.936
209.735
209.525
209.303
209.072
208.831
208.58
208.321
208.052
207.775
207.49
207.197
206.897
206.591
206.28
205.963
205.643
205.319
204.992
204.665
204.337
204.01
203.686
203.365
203.049
202.74
202.441
202.154
201.884
213.424
213.352
213.27
213.177
213.073
212.958
212.833
212.696
212.548
212.39
212.221
212.041
211.85
211.649
211.438
211.217
210.985
210.744
210.494
210.235
209.967
209.69
209.406
209.115
208.817
208.513
208.203
207.889
207.57
207.249
206.925
206.6
206.275
205.952
205.63
205.313
205
204.695
204.399
204.117
203.85
215.329
215.255
215.17
215.075
214.969
214.852
214.725
214.587
214.438
214.278
214.108
213.927
213.736
213.535
213.323