/*--------------------------------*- C++ -*----------------------------------*\
| =========                 |                                                 |
| \\      /  F ield         | OpenFOAM: The Open Source CFD Toolbox           |
|  \\    /   O peration     | Version:  v1706                                 |
|   \\  /    A nd           | Web:      www.OpenFOAM.com                      |
|    \\/     M anipulation  |                                                 |
\*---------------------------------------------------------------------------*/
FoamFile
{
    version     2.0;
    format      ascii;
    class       volVectorField;
    location    "1.3e-05";
    object      U;
}
// * * * * * * * * * * * * * * * * * * * * * * * * * * * * * * * * * * * * * //

dimensions      [0 1 -1 0 0 0 0];


internalField   nonuniform List<vector> 
30038
(
(978.58 1.02951e-10 5.82876e-15)
(978.58 2.17775e-10 6.37067e-15)
(978.58 3.19299e-10 8.14595e-15)
(978.58 6.24141e-10 6.58897e-15)
(978.58 8.77211e-10 8.38616e-15)
(978.58 1.11657e-09 9.13188e-15)
(978.58 1.42941e-09 1.15375e-14)
(978.58 1.86878e-09 1.05584e-14)
(978.58 2.48022e-09 6.98624e-15)
(978.58 3.3187e-09 8.81732e-15)
(978.58 4.46119e-09 1.12932e-14)
(978.58 6.0144e-09 7.99482e-15)
(978.58 8.12711e-09 6.53504e-15)
(978.58 1.10015e-08 5.59296e-15)
(978.58 1.49144e-08 8.45874e-15)
(978.58 2.0247e-08 9.27221e-15)
(978.58 2.75209e-08 6.81294e-15)
(978.58 3.74513e-08 4.8521e-15)
(978.58 5.10207e-08 7.3659e-15)
(978.58 6.95801e-08 9.27253e-15)
(978.58 9.49878e-08 8.92601e-15)
(978.58 1.29804e-07 5.95512e-15)
(978.58 1.77555e-07 4.49724e-15)
(978.58 2.43105e-07 9.00328e-15)
(978.58 3.33166e-07 6.51877e-15)
(978.58 4.57013e-07 4.56284e-15)
(978.58 6.27464e-07 5.13683e-15)
(978.58 8.6225e-07 8.87968e-15)
(978.58 1.18591e-06 1.01538e-14)
(978.58 1.63243e-06 8.14828e-15)
(978.58 2.24895e-06 7.60984e-15)
(978.58 3.10089e-06 9.44347e-15)
(978.58 4.27922e-06 7.39231e-15)
(978.58 5.91191e-06 8.16557e-15)
(978.58 8.17189e-06 1.01861e-14)
(978.58 1.13077e-05 6.34476e-15)
(978.58 1.60599e-05 3.59125e-15)
(978.58 2.23521e-05 8.00828e-15)
(978.58 1.22439e-09 2.30617e-14)
(978.58 1.69169e-09 2.4848e-14)
(978.58 2.13254e-09 2.26074e-14)
(978.58 2.61785e-09 2.12757e-14)
(978.58 3.42801e-09 2.29965e-14)
(978.58 4.65544e-09 2.21015e-14)
(978.58 6.34812e-09 2.36385e-14)
(978.58 8.62886e-09 2.19012e-14)
(978.58 1.16938e-08 1.90946e-14)
(978.58 1.58226e-08 2.27356e-14)
(978.58 2.13941e-08 2.04021e-14)
(978.58 2.89219e-08 1.79068e-14)
(978.58 3.91126e-08 2.02016e-14)
(978.58 5.29265e-08 2.15397e-14)
(978.58 7.16674e-08 2.28475e-14)
(978.58 9.71187e-08 2.19686e-14)
(978.58 1.3172e-07 2.1473e-14)
(978.58 1.78805e-07 2.0663e-14)
(978.58 2.42941e-07 2.01981e-14)
(978.58 3.3038e-07 2.17037e-14)
(978.58 4.49699e-07 2.10618e-14)
(978.58 6.12669e-07 2.20716e-14)
(978.58 8.35455e-07 2.20625e-14)
(978.58 1.14027e-06 2.08775e-14)
(978.58 1.55767e-06 2.00057e-14)
(978.58 2.12969e-06 2.09252e-14)
(978.58 2.91424e-06 2.079e-14)
(978.58 3.99109e-06 2.01184e-14)
(978.58 5.47028e-06 2.30201e-14)
(978.58 7.50368e-06 2.09095e-14)
(978.58 1.0301e-05 1.95337e-14)
(978.58 1.41519e-05 2.70287e-14)
(978.58 1.94568e-05 2.54687e-14)
(978.58 2.67706e-05 2.34282e-14)
(978.58 3.68829e-05 2.33125e-14)
(978.58 5.06417e-05 1.91666e-14)
(978.58 7.11738e-05 1.99304e-14)
(978.58 9.90375e-05 2.24186e-14)
(978.58 3.20671e-09 3.49597e-14)
(978.58 4.30243e-09 3.59533e-14)
(978.58 5.74548e-09 3.29219e-14)
(978.58 7.64013e-09 3.16669e-14)
(978.58 1.02435e-08 3.35067e-14)
(978.58 1.38067e-08 3.39868e-14)
(978.58 1.86258e-08 3.29937e-14)
(978.58 2.51114e-08 2.89012e-14)
(978.58 3.38344e-08 3.04898e-14)
(978.58 4.5577e-08 3.11616e-14)
(978.58 6.14003e-08 3.01304e-14)
(978.58 8.27377e-08 3.25481e-14)
(978.58 1.11548e-07 3.44206e-14)
(978.58 1.50492e-07 3.40812e-14)
(978.58 2.03187e-07 3.34493e-14)
(978.58 2.74556e-07 3.52087e-14)
(978.58 3.71317e-07 3.35358e-14)
(978.58 5.02624e-07 3.28719e-14)
(978.58 6.80976e-07 3.25636e-14)
(978.58 9.2345e-07 3.20348e-14)
(978.58 1.25339e-06 3.2069e-14)
(978.58 1.70273e-06 3.3117e-14)
(978.58 2.31519e-06 3.12743e-14)
(978.58 3.15069e-06 3.27203e-14)
(978.58 4.29134e-06 3.58783e-14)
(978.58 5.84983e-06 3.44472e-14)
(978.58 7.98084e-06 3.15552e-14)
(978.58 1.08968e-05 3.03049e-14)
(978.58 1.48898e-05 3.42121e-14)
(978.58 2.03612e-05 3.51998e-14)
(978.58 2.78635e-05 3.52911e-14)
(978.58 3.81574e-05 3.7538e-14)
(978.58 5.2291e-05 3.51589e-14)
(978.58 7.17036e-05 3.5673e-14)
(978.58 9.84653e-05 3.67117e-14)
(978.58 0.000134723 3.59474e-14)
(978.58 0.000188336 3.31237e-14)
(978.58 0.000260143 3.5671e-14)
(978.58 8.50222e-09 4.75044e-14)
(978.58 1.13737e-08 4.63318e-14)
(978.58 1.51811e-08 4.45966e-14)
(978.58 2.0277e-08 4.43209e-14)
(978.58 2.71529e-08 4.64542e-14)
(978.58 3.64053e-08 4.34232e-14)
(978.58 4.88202e-08 4.26207e-14)
(978.58 6.54751e-08 4.35762e-14)
(978.58 8.7835e-08 4.46831e-14)
(978.58 1.17888e-07 4.40009e-14)
(978.58 1.5832e-07 4.61114e-14)
(978.58 2.12765e-07 4.6359e-14)
(978.58 2.86152e-07 4.60106e-14)
(978.58 3.85173e-07 4.17097e-14)
(978.58 5.18914e-07 4.39998e-14)
(978.58 6.99722e-07 4.46359e-14)
(978.58 9.444e-07 4.43769e-14)
(978.58 1.27581e-06 4.75175e-14)
(978.58 1.72512e-06 4.71905e-14)
(978.58 2.33478e-06 4.48063e-14)
(978.58 3.16277e-06 4.38944e-14)
(978.58 4.2882e-06 4.38295e-14)
(978.58 5.81921e-06 4.77739e-14)
(978.58 7.90365e-06 4.86317e-14)
(978.58 1.07438e-05 4.72363e-14)
(978.58 1.46165e-05 4.73379e-14)
(978.58 1.99012e-05 4.59649e-14)
(978.58 2.71176e-05 4.51382e-14)
(978.58 3.69789e-05 4.77989e-14)
(978.58 5.04635e-05 4.86084e-14)
(978.58 6.89151e-05 4.72311e-14)
(978.58 9.41789e-05 4.89741e-14)
(978.58 0.000128793 4.78135e-14)
(978.58 0.000176226 4.75216e-14)
(978.58 0.000241475 5.00067e-14)
(978.58 0.000329719 5.10175e-14)
(978.579 0.000459604 4.98405e-14)
(978.579 0.000632942 5.08919e-14)
(978.58 2.16767e-08 5.7016e-14)
(978.58 2.88834e-08 5.82525e-14)
(978.58 3.84657e-08 5.7341e-14)
(978.58 5.12619e-08 5.59286e-14)
(978.58 6.84006e-08 5.48078e-14)
(978.58 9.13518e-08 5.58498e-14)
(978.58 1.22077e-07 5.65326e-14)
(978.58 1.6323e-07 5.78448e-14)
(978.58 2.18404e-07 5.88274e-14)
(978.58 2.92458e-07 5.8274e-14)
(978.58 3.91955e-07 5.80186e-14)
(978.58 5.25771e-07 5.6973e-14)
(978.58 7.05918e-07 5.53036e-14)
(978.58 9.48676e-07 5.62297e-14)
(978.58 1.27613e-06 5.83388e-14)
(978.58 1.71823e-06 6.01032e-14)
(978.58 2.31569e-06 6.21349e-14)
(978.58 3.12384e-06 5.91549e-14)
(978.58 4.21795e-06 5.75637e-14)
(978.58 5.70049e-06 5.99201e-14)
(978.58 7.71109e-06 5.60278e-14)
(978.58 1.04401e-05 5.6509e-14)
(978.58 1.41473e-05 6.19414e-14)
(978.58 1.9187e-05 6.02585e-14)
(978.58 2.60436e-05 6.06742e-14)
(978.58 3.53791e-05 6.16697e-14)
(978.58 4.80989e-05 6.07047e-14)
(978.58 6.54421e-05 5.47262e-14)
(978.58 8.91053e-05 5.44227e-14)
(978.58 0.000121412 5.63893e-14)
(978.58 0.000165547 6.16718e-14)
(978.58 0.000225877 6.48479e-14)
(978.58 0.000308401 6.18293e-14)
(978.579 0.000421301 6.01926e-14)
(978.579 0.000576331 6.10406e-14)
(978.579 0.000785769 6.2684e-14)
(978.579 0.00109283 6.40051e-14)
(978.578 0.00150195 6.43586e-14)
(978.58 5.36533e-08 7.21092e-14)
(978.58 7.12517e-08 7.08098e-14)
(978.58 9.46654e-08 6.68417e-14)
(978.58 1.25878e-07 6.46039e-14)
(978.58 1.67549e-07 6.72124e-14)
(978.58 2.23226e-07 6.72932e-14)
(978.58 2.97663e-07 6.68237e-14)
(978.58 3.97261e-07 7.43652e-14)
(978.58 5.30659e-07 7.31233e-14)
(978.58 7.09517e-07 6.99053e-14)
(978.58 9.49573e-07 6.98441e-14)
(978.58 1.27209e-06 6.89885e-14)
(978.58 1.70582e-06 6.85181e-14)
(978.58 2.28968e-06 6.96914e-14)
(978.58 3.07639e-06 6.90807e-14)
(978.58 4.13738e-06 7.05449e-14)
(978.58 5.56962e-06 7.3209e-14)
(978.58 7.50472e-06 6.96777e-14)
(978.58 1.01215e-05 6.83846e-14)
(978.58 1.36633e-05 7.2086e-14)
(978.58 1.84607e-05 7.25926e-14)
(978.58 2.49644e-05 7.45666e-14)
(978.58 3.37881e-05 7.24781e-14)
(978.58 4.57687e-05 7.01166e-14)
(978.58 6.2048e-05 7.04585e-14)
(978.58 8.41841e-05 7.58492e-14)
(978.58 0.000114305 7.64727e-14)
(978.58 0.000155318 7.01592e-14)
(978.58 0.000211198 7.27187e-14)
(978.58 0.000287383 7.23126e-14)
(978.579 0.000391317 7.07749e-14)
(978.579 0.000533188 7.22163e-14)
(978.579 0.000726961 7.32468e-14)
(978.579 0.000991656 7.67964e-14)
(978.578 0.00135451 7.50899e-14)
(978.578 0.00184426 7.15084e-14)
(978.577 0.00255961 7.34979e-14)
(978.575 0.00351152 7.47538e-14)
(978.58 1.29941e-07 8.1919e-14)
(978.58 1.72183e-07 8.12144e-14)
(978.58 2.28355e-07 8.36727e-14)
(978.58 3.03149e-07 8.43814e-14)
(978.58 4.02853e-07 8.23338e-14)
(978.58 5.35892e-07 8.04051e-14)
(978.58 7.13576e-07 8.27661e-14)
(978.58 9.51115e-07 8.41674e-14)
(978.58 1.26899e-06 7.99571e-14)
(978.58 1.69481e-06 8.38727e-14)
(978.58 2.2658e-06 8.24091e-14)
(978.58 3.03221e-06 8.03916e-14)
(978.58 4.06192e-06 7.97603e-14)
(978.58 5.44671e-06 7.94521e-14)
(978.58 7.31076e-06 7.9952e-14)
(978.58 9.82221e-06 8.30576e-14)
(978.58 1.32089e-05 8.39812e-14)
(978.58 1.77799e-05 8.52853e-14)
(978.58 2.39545e-05 8.31363e-14)
(978.58 3.23023e-05 8.51446e-14)
(978.58 4.35972e-05 8.37328e-14)
(978.58 5.88919e-05 8.32846e-14)
(978.58 7.96187e-05 8.32746e-14)
(978.58 0.000107727 8.43412e-14)
(978.58 0.000145874 8.29272e-14)
(978.58 0.000197679 8.71936e-14)
(978.58 0.000268082 8.61428e-14)
(978.579 0.000363822 8.00441e-14)
(978.579 0.000494098 8.15382e-14)
(978.579 0.000671473 8.42815e-14)
(978.579 0.000913109 8.48629e-14)
(978.578 0.00124247 8.53532e-14)
(978.578 0.00169169 8.81073e-14)
(978.577 0.00230444 9.06112e-14)
(978.576 0.00314305 9.06688e-14)
(978.574 0.00427383 8.74213e-14)
(978.572 0.00591949 8.78e-14)
(978.569 0.00810644 8.85947e-14)
(978.58 3.09507e-07 9.53812e-14)
(978.58 4.09535e-07 9.6537e-14)
(978.58 5.42447e-07 9.77743e-14)
(978.58 7.19258e-07 9.88045e-14)
(978.58 9.54718e-07 9.59724e-14)
(978.58 1.2686e-06 9.32345e-14)
(978.58 1.68746e-06 9.55152e-14)
(978.58 2.24694e-06 9.66895e-14)
(978.58 2.99502e-06 9.74703e-14)
(978.58 3.99627e-06 9.4354e-14)
(978.58 5.33769e-06 9.27986e-14)
(978.58 7.1366e-06 9.28218e-14)
(978.58 9.55131e-06 9.22797e-14)
(978.58 1.27956e-05 9.38223e-14)
(978.58 1.71585e-05 9.47353e-14)
(978.58 2.30309e-05 9.79879e-14)
(978.58 3.09417e-05 9.88818e-14)
(978.58 4.16079e-05 9.61367e-14)
(978.58 5.60009e-05 9.5619e-14)
(978.58 7.54386e-05 9.57085e-14)
(978.58 0.00010171 9.41641e-14)
(978.58 0.000137243 9.64425e-14)
(978.58 0.000185339 9.39971e-14)
(978.58 0.000250487 9.41692e-14)
(978.579 0.000338795 9.43368e-14)
(978.579 0.000458577 9.90839e-14)
(978.579 0.000621151 9.59165e-14)
(978.579 0.000841938 9.59881e-14)
(978.578 0.00114196 9.92664e-14)
(978.578 0.00154991 1.00606e-13)
(978.577 0.00210489 1.00906e-13)
(978.576 0.0028603 1.00224e-13)
(978.575 0.00388907 1.00494e-13)
(978.573 0.00529025 9.92507e-14)
(978.57 0.00720475 1.01975e-13)
(978.567 0.00978369 1.03757e-13)
(978.562 0.0135233 9.90322e-14)
(978.556 0.018486 9.58516e-14)
(978.58 5.50694e-07 1.09847e-13)
(978.58 7.27133e-07 1.09716e-13)
(978.58 9.61135e-07 1.11514e-13)
(978.58 1.27183e-06 1.10697e-13)
(978.58 1.68479e-06 1.10132e-13)
(978.58 2.23428e-06 1.10353e-13)
(978.58 2.96618e-06 1.11641e-13)
(978.58 3.94202e-06 1.08631e-13)
(978.58 5.24444e-06 1.08889e-13)
(978.58 6.98444e-06 1.06145e-13)
(978.58 9.31131e-06 1.04538e-13)
(978.58 1.2426e-05 1.07298e-13)
(978.58 1.65992e-05 1.02799e-13)
(978.58 2.21957e-05 1.08581e-13)
(978.58 2.97078e-05 1.08452e-13)
(978.58 3.98001e-05 1.09466e-13)
(978.58 5.33707e-05 1.07946e-13)
(978.58 7.16336e-05 1.06008e-13)
(978.58 9.62316e-05 1.06072e-13)
(978.58 0.000129388 1.07469e-13)
(978.58 0.000174116 1.07014e-13)
(978.58 0.0002345 1.06771e-13)
(978.58 0.00031608 1.05162e-13)
(978.579 0.000426377 1.05567e-13)
(978.579 0.000575597 1.0835e-13)
(978.579 0.000777609 1.10299e-13)
(978.578 0.00105126 1.10966e-13)
(978.578 0.00142221 1.08527e-13)
(978.577 0.00192533 1.08951e-13)
(978.576 0.00260811 1.10266e-13)
(978.575 0.00353516 1.12012e-13)
(978.573 0.00479454 1.12006e-13)
(978.571 0.00650622 1.12477e-13)
(978.568 0.0088339 1.11888e-13)
(978.563 0.0119994 1.1543e-13)
(978.558 0.0163172 1.14323e-13)
(978.55 0.0221271 1.1112e-13)
(978.539 0.0305217 1.09827e-13)
(978.525 0.041645 1.09555e-13)
(978.58 1.27908e-06 1.21638e-13)
(978.58 1.6874e-06 1.20488e-13)
(978.58 2.22854e-06 1.22157e-13)
(978.58 2.94649e-06 1.24715e-13)
(978.58 3.90002e-06 1.22916e-13)
(978.58 5.16777e-06 1.23648e-13)
(978.58 6.85501e-06 1.21862e-13)
(978.58 9.10278e-06 1.18369e-13)
(978.58 1.21003e-05 1.17609e-13)
(978.58 1.61014e-05 1.17836e-13)
(978.58 2.14475e-05 1.19887e-13)
(978.58 2.85971e-05 1.16254e-13)
(978.58 3.81675e-05 1.16748e-13)
(978.58 5.09901e-05 1.21757e-13)
(978.58 6.81851e-05 1.20434e-13)
(978.58 9.12632e-05 1.19801e-13)
(978.58 0.000122263 1.18105e-13)
(978.58 0.000163937 1.21571e-13)
(978.58 0.000220008 1.20517e-13)
(978.58 0.000295505 1.20197e-13)
(978.579 0.000397239 1.18343e-13)
(978.579 0.000534424 1.18277e-13)
(978.579 0.000719541 1.1856e-13)
(978.579 0.000969509 1.21384e-13)
(978.578 0.00130727 1.22925e-13)
(978.577 0.00176397 1.22808e-13)
(978.576 0.00238186 1.22264e-13)
(978.575 0.00321829 1.189e-13)
(978.574 0.00435117 1.20455e-13)
(978.572 0.00588642 1.25126e-13)
(978.569 0.00796805 1.25136e-13)
(978.565 0.0107919 1.24619e-13)
(978.56 0.014624 1.24333e-13)
(978.553 0.0198271 1.24621e-13)
(978.543 0.0268918 1.25522e-13)
(978.53 0.0365117 1.23233e-13)
(978.513 0.0494407 1.21744e-13)
(978.489 0.0680531 1.25069e-13)
(978.458 0.0926749 1.25434e-13)
(978.58 2.93643e-06 1.38269e-13)
(978.58 3.87083e-06 1.36498e-13)
(978.58 5.10827e-06 1.35111e-13)
(978.58 6.74878e-06 1.34979e-13)
(978.58 8.92592e-06 1.32403e-13)
(978.58 1.18182e-05 1.34075e-13)
(978.58 1.56643e-05 1.35809e-13)
(978.58 2.07839e-05 1.33482e-13)
(978.58 2.76052e-05 1.30382e-13)
(978.58 3.67026e-05 1.3208e-13)
(978.58 4.88468e-05 1.32094e-13)
(978.58 6.50733e-05 1.31742e-13)
(978.58 8.67735e-05 1.29911e-13)
(978.58 0.000115819 1.30102e-13)
(978.58 0.00015473 1.36085e-13)
(978.58 0.0002069 1.3688e-13)
(978.58 0.000276905 1.36215e-13)
(978.579 0.000370917 1.32218e-13)
(978.579 0.000497266 1.29427e-13)
(978.579 0.000667198 1.30461e-13)
(978.579 0.00089591 1.32429e-13)
(978.578 0.00120396 1.31651e-13)
(978.578 0.00161915 1.30268e-13)
(978.577 0.00217911 1.31322e-13)
(978.576 0.0029348 1.33614e-13)
(978.574 0.0039552 1.34974e-13)
(978.572 0.00533385 1.30515e-13)
(978.569 0.00719764 1.32137e-13)
(978.566 0.00971862 1.36713e-13)
(978.561 0.0131301 1.38606e-13)
(978.555 0.0177487 1.37126e-13)
(978.546 0.0240043 1.34747e-13)
(978.535 0.0324808 1.35028e-13)
(978.519 0.0439716 1.36135e-13)
(978.498 0.0595476 1.36875e-13)
(978.47 0.0807171 1.36441e-13)
(978.433 0.109131 1.38422e-13)
(978.381 0.149886 1.38418e-13)
(978.311 0.2037 1.36453e-13)
(978.58 5.06631e-06 1.51396e-13)
(978.58 6.66608e-06 1.48708e-13)
(978.58 8.78087e-06 1.48259e-13)
(978.58 1.15794e-05 1.49596e-13)
(978.58 1.52867e-05 1.4887e-13)
(978.58 2.02026e-05 1.49173e-13)
(978.58 2.6728e-05 1.49272e-13)
(978.58 3.53981e-05 1.48841e-13)
(978.58 4.69291e-05 1.46555e-13)
(978.58 6.22794e-05 1.48023e-13)
(978.58 8.27333e-05 1.45872e-13)
(978.58 0.000110012 1.45542e-13)
(978.58 0.000146426 1.4256e-13)
(978.58 0.000195075 1.41171e-13)
(978.58 0.000260127 1.46025e-13)
(978.579 0.000347185 1.47074e-13)
(978.579 0.000463788 1.4506e-13)
(978.579 0.000620083 1.4451e-13)
(978.579 0.000829741 1.43803e-13)
(978.578 0.00111119 1.41674e-13)
(978.578 0.00148929 1.39702e-13)
(978.577 0.0019976 1.41677e-13)
(978.576 0.0026814 1.41981e-13)
(978.574 0.00360186 1.41169e-13)
(978.573 0.00484164 1.4428e-13)
(978.57 0.00651257 1.48126e-13)
(978.567 0.00876596 1.4395e-13)
(978.563 0.0118064 1.42202e-13)
(978.557 0.0159108 1.46186e-13)
(978.549 0.0214541 1.47309e-13)
(978.539 0.0289444 1.48618e-13)
(978.525 0.0390703 1.46407e-13)
(978.506 0.0527637 1.47171e-13)
(978.481 0.0712868 1.49124e-13)
(978.447 0.0963527 1.51569e-13)
(978.402 0.130272 1.50242e-13)
(978.341 0.176284 1.49286e-13)
(978.259 0.237942 1.49524e-13)
(978.147 0.326026 1.47713e-13)
(977.998 0.442078 1.48229e-13)
(978.58 1.13838e-05 1.64696e-13)
(978.58 1.49677e-05 1.6377e-13)
(978.58 1.97018e-05 1.62734e-13)
(978.58 2.59617e-05 1.60399e-13)
(978.58 3.42476e-05 1.61759e-13)
(978.58 4.52261e-05 1.62768e-13)
(978.58 5.97864e-05 1.63171e-13)
(978.58 7.91158e-05 1.61168e-13)
(978.58 0.0001048 1.61127e-13)
(978.58 0.000138962 1.61212e-13)
(978.58 0.000184437 1.5598e-13)
(978.58 0.000245029 1.56867e-13)
(978.579 0.000325833 1.56432e-13)
(978.579 0.000433681 1.5624e-13)
(978.579 0.000577743 1.57668e-13)
(978.579 0.000770332 1.57124e-13)
(978.578 0.001028 1.54217e-13)
(978.578 0.00137299 1.52796e-13)
(978.577 0.00183526 1.54672e-13)
(978.576 0.00245512 1.53561e-13)
(978.575 0.00328684 1.56889e-13)
(978.573 0.00440356 1.58681e-13)
(978.571 0.00590393 1.59123e-13)
(978.568 0.00792107 1.56474e-13)
(978.564 0.0106346 1.5566e-13)
(978.559 0.0142869 1.56658e-13)
(978.552 0.019205 1.55801e-13)
(978.542 0.0258313 1.5536e-13)
(978.529 0.0347639 1.56931e-13)
(978.512 0.0468106 1.59594e-13)
(978.49 0.0630625 1.59834e-13)
(978.459 0.0849945 1.59396e-13)
(978.419 0.114603 1.59305e-13)
(978.365 0.154589 1.61248e-13)
(978.292 0.208597 1.6192e-13)
(978.195 0.281523 1.5784e-13)
(978.064 0.38022 1.59926e-13)
(977.89 0.512242 1.61202e-13)
(977.651 0.700046 1.61372e-13)
(977.334 0.946738 1.60954e-13)
(978.58 2.53033e-05 1.76636e-13)
(978.58 3.32454e-05 1.7398e-13)
(978.58 4.37283e-05 1.74913e-13)
(978.58 5.75786e-05 1.75707e-13)
(978.58 7.58964e-05 1.76625e-13)
(978.58 0.000100146 1.77268e-13)
(978.58 0.00013228 1.72995e-13)
(978.58 0.0001749 1.70699e-13)
(978.58 0.000231482 1.7479e-13)
(978.579 0.000306667 1.73701e-13)
(978.579 0.000406659 1.70093e-13)
(978.579 0.000539758 1.73923e-13)
(978.579 0.000717073 1.72191e-13)
(978.578 0.000953487 1.69507e-13)
(978.578 0.00126895 1.68936e-13)
(978.577 0.00169023 1.654e-13)
(978.576 0.00225325 1.64484e-13)
(978.575 0.00300623 1.67156e-13)
(978.574 0.00401397 1.68145e-13)
(978.572 0.00536357 1.71135e-13)
(978.569 0.00717229 1.75515e-13)
(978.565 0.0095979 1.71173e-13)
(978.56 0.0128527 1.69516e-13)
(978.554 0.0172225 1.69497e-13)
(978.545 0.0230925 1.68882e-13)
(978.534 0.0309823 1.68928e-13)
(978.518 0.0415925 1.67756e-13)
(978.498 0.055867 1.67499e-13)
(978.471 0.0750776 1.74793e-13)
(978.434 0.100941 1.71695e-13)
(978.386 0.135777 1.68032e-13)
(978.321 0.182711 1.67733e-13)
(978.235 0.245949 1.68742e-13)
(978.119 0.331159 1.72138e-13)
(977.965 0.445998 1.74134e-13)
(977.759 0.600727 1.73049e-13)
(977.483 0.809557 1.71779e-13)
(977.116 1.08809 1.73336e-13)
(976.614 1.48225 1.77445e-13)
(975.952 1.99794 1.74895e-13)
(978.58 5.56423e-05 1.88667e-13)
(978.58 7.30532e-05 1.89732e-13)
(978.58 9.60154e-05 1.89032e-13)
(978.58 0.000126329 1.86567e-13)
(978.58 0.000166385 1.87234e-13)
(978.58 0.000219368 1.88844e-13)
(978.579 0.000289513 1.8629e-13)
(978.579 0.000382464 1.81242e-13)
(978.579 0.000505749 1.85525e-13)
(978.579 0.000669409 1.85663e-13)
(978.578 0.00088685 1.83211e-13)
(978.578 0.00117599 1.86163e-13)
(978.577 0.00156079 1.81625e-13)
(978.577 0.00207331 1.79412e-13)
(978.575 0.00275647 1.81148e-13)
(978.574 0.00366773 1.79806e-13)
(978.572 0.00488415 1.77705e-13)
(978.57 0.00650909 1.81163e-13)
(978.566 0.0086813 1.82727e-13)
(978.562 0.011587 1.85869e-13)
(978.556 0.0154761 1.84801e-13)
(978.548 0.0206845 1.81278e-13)
(978.538 0.0276638 1.83661e-13)
(978.524 0.0370219 1.8208e-13)
(978.505 0.049576 1.79612e-13)
(978.481 0.0664239 1.82139e-13)
(978.448 0.089043 1.77917e-13)
(978.405 0.119424 1.81077e-13)
(978.347 0.160249 1.81808e-13)
(978.27 0.215118 1.79455e-13)
(978.168 0.288866 1.81956e-13)
(978.031 0.388003 1.83817e-13)
(977.849 0.521296 1.81899e-13)
(977.607 0.700495 1.81059e-13)
(977.283 0.941303 1.85155e-13)
(976.853 1.26459 1.85531e-13)
(976.278 1.69935 1.85922e-13)
(975.516 2.27724 1.86646e-13)
(974.482 3.08938 1.85693e-13)
(973.126 4.14481 1.85313e-13)
(978.58 0.000121061 2.01852e-13)
(978.58 0.000158821 2.018e-13)
(978.58 0.000208579 2.00359e-13)
(978.579 0.00027421 1.99308e-13)
(978.579 0.000360861 1.98039e-13)
(978.579 0.00047537 1.97352e-13)
(978.579 0.000626832 1.98519e-13)
(978.579 0.00082735 1.97627e-13)
(978.578 0.00109304 1.98505e-13)
(978.578 0.0014454 1.97228e-13)
(978.577 0.00191308 1.96628e-13)
(978.576 0.00253434 1.9707e-13)
(978.574 0.00336025 1.92798e-13)
(978.573 0.00445906 1.93064e-13)
(978.57 0.00592202 1.95303e-13)
(978.567 0.0078713 1.94212e-13)
(978.563 0.0104704 1.93652e-13)
(978.558 0.0139383 1.94058e-13)
(978.55 0.018568 1.93269e-13)
(978.541 0.0247527 1.95141e-13)
(978.528 0.03302 1.94666e-13)
(978.512 0.044078 1.93003e-13)
(978.49 0.0588754 1.9312e-13)
(978.461 0.0786848 1.93024e-13)
(978.422 0.105216 1.92905e-13)
(978.37 0.140767 1.92649e-13)
(978.302 0.188424 1.93496e-13)
(978.211 0.252317 1.93566e-13)
(978.09 0.337985 1.91547e-13)
(977.929 0.452872 1.94818e-13)
(977.715 0.606974 1.95463e-13)
(977.43 0.813627 1.97675e-13)
(977.052 1.09058 1.92894e-13)
(976.55 1.46154 1.93269e-13)
(975.883 1.95824 1.96831e-13)
(974.998 2.62238 1.99334e-13)
(973.825 3.51018 1.98454e-13)
(972.279 4.68225 1.96555e-13)
(970.198 6.314 1.96404e-13)
(967.499 8.41371 1.99819e-13)
(978.58 0.000260615 2.15411e-13)
(978.579 0.000341635 2.14569e-13)
(978.579 0.000448308 2.13893e-13)
(978.579 0.000588886 2.10795e-13)
(978.579 0.00077432 2.11296e-13)
(978.578 0.00101914 2.14631e-13)
(978.578 0.00134266 2.1325e-13)
(978.577 0.00177056 2.09458e-13)
(978.576 0.00233698 2.11222e-13)
(978.575 0.00308739 2.11104e-13)
(978.573 0.00408235 2.10036e-13)
(978.571 0.00540259 2.09379e-13)
(978.568 0.00715581 2.05713e-13)
(978.564 0.00948581 2.07476e-13)
(978.559 0.0125846 2.09627e-13)
(978.553 0.0167084 2.06794e-13)
(978.544 0.0221998 2.08276e-13)
(978.533 0.0295173 2.10397e-13)
(978.518 0.0392748 2.07976e-13)
(978.498 0.0522932 2.06849e-13)
(978.471 0.0696702 2.05682e-13)
(978.437 0.0928753 2.0425e-13)
(978.391 0.123879 2.08496e-13)
(978.329 0.165325 2.09135e-13)
(978.248 0.220747 2.09589e-13)
(978.141 0.294864 2.07067e-13)
(977.999 0.393996 2.04236e-13)
(977.81 0.526625 2.04112e-13)
(977.559 0.704088 2.03722e-13)
(977.227 0.941439 2.06532e-13)
(976.787 1.25868 2.05616e-13)
(976.204 1.68252 2.05176e-13)
(975.431 2.24849 2.06761e-13)
(974.409 3.00309 2.06667e-13)
(973.06 4.00685 2.04817e-13)
(971.284 5.33844 2.07485e-13)
(968.95 7.10455 2.0803e-13)
(965.907 9.41336 2.06742e-13)
(961.873 12.5765 2.08429e-13)
(956.734 16.575 2.10535e-13)
(978.579 0.000555161 2.32048e-13)
(978.579 0.000727164 2.2976e-13)
(978.578 0.000953423 2.26677e-13)
(978.578 0.00125133 2.2534e-13)
(978.577 0.00164393 2.25805e-13)
(978.576 0.00216178 2.24758e-13)
(978.575 0.00284543 2.24988e-13)
(978.573 0.00374873 2.24027e-13)
(978.571 0.00494323 2.24885e-13)
(978.569 0.00652405 2.2125e-13)
(978.565 0.00861785 2.19425e-13)
(978.561 0.0113932 2.20025e-13)
(978.555 0.0150747 2.19478e-13)
(978.547 0.0199613 2.21573e-13)
(978.537 0.0264519 2.21637e-13)
(978.523 0.0350793 2.23652e-13)
(978.505 0.0465544 2.23794e-13)
(978.481 0.0618257 2.21009e-13)
(978.45 0.0821584 2.21597e-13)
(978.409 0.109243 2.21881e-13)
(978.354 0.145344 2.17367e-13)
(978.282 0.193485 2.18162e-13)
(978.186 0.257697 2.19215e-13)
(978.06 0.343352 2.17629e-13)
(977.893 0.457638 2.19187e-13)
(977.673 0.610174 2.17282e-13)
(977.38 0.81375 2.17839e-13)
(976.994 1.08529 2.17256e-13)
(976.483 1.44725 2.15802e-13)
(975.808 1.92958 2.18902e-13)
(974.917 2.57184 2.19909e-13)
(973.741 3.4254 2.20657e-13)
(972.196 4.55685 2.21184e-13)
(970.167 6.05328 2.17566e-13)
(967.515 8.0272 2.18548e-13)
(964.065 10.6166 2.21741e-13)
(959.602 13.9952 2.22339e-13)
(953.898 18.331 2.21289e-13)
(946.51 24.1427 2.22185e-13)
(937.356 31.2956 2.24246e-13)
(978.578 0.00089511 2.4627e-13)
(978.578 0.00117028 2.46751e-13)
(978.577 0.00153159 2.42303e-13)
(978.576 0.00200644 2.41336e-13)
(978.575 0.00263108 2.41599e-13)
(978.574 0.00345349 2.37679e-13)
(978.572 0.0045372 2.40242e-13)
(978.569 0.00596644 2.36969e-13)
(978.566 0.00785294 2.35092e-13)
(978.562 0.010345 2.36462e-13)
(978.557 0.0136397 2.33821e-13)
(978.549 0.0179985 2.31448e-13)
(978.54 0.0237692 2.31984e-13)
(978.527 0.0314147 2.33771e-13)
(978.511 0.0415514 2.32655e-13)
(978.49 0.0549997 2.33221e-13)
(978.462 0.0728511 2.35599e-13)
(978.424 0.096559 2.31749e-13)
(978.376 0.128062 2.30109e-13)
(978.311 0.16995 2.31364e-13)
(978.226 0.225667 2.31208e-13)
(978.114 0.299793 2.29896e-13)
(977.967 0.398424 2.31092e-13)
(977.772 0.529704 2.28724e-13)
(977.515 0.704488 2.28446e-13)
(977.175 0.937133 2.33016e-13)
(976.727 1.24658 2.31016e-13)
(976.137 1.65798 2.2924e-13)
(975.359 2.20474 2.29329e-13)
(974.334 2.9306 2.31934e-13)
(972.988 3.89197 2.31858e-13)
(971.224 5.16193 2.27548e-13)
(968.918 6.83586 2.32941e-13)
(965.915 9.03492 2.34586e-13)
(962.028 11.906 2.31078e-13)
(957.034 15.6261 2.32981e-13)
(950.672 20.4111 2.35805e-13)
(942.641 26.5244 2.34845e-13)
(932.681 34.1474 2.3322e-13)
(920.265 43.9603 2.34312e-13)
(905.489 55.5718 2.3281e-13)
(978.576 0.0018689 2.6292e-13)
(978.575 0.00244139 2.59692e-13)
(978.574 0.00319242 2.53707e-13)
(978.572 0.00417855 2.5481e-13)
(978.57 0.00547449 2.53899e-13)
(978.567 0.00717906 2.50937e-13)
(978.563 0.00942299 2.50365e-13)
(978.558 0.0123794 2.49338e-13)
(978.552 0.0162776 2.51335e-13)
(978.543 0.0214213 2.51341e-13)
(978.532 0.0282136 2.46611e-13)
(978.517 0.0371894 2.4609e-13)
(978.497 0.0490595 2.47606e-13)
(978.472 0.0647669 2.46854e-13)
(978.439 0.0855634 2.44798e-13)
(978.395 0.113113 2.46553e-13)
(978.337 0.149631 2.46597e-13)
(978.261 0.198064 2.43954e-13)
(978.162 0.262323 2.42962e-13)
(978.031 0.347592 2.43159e-13)
(977.859 0.460766 2.43265e-13)
(977.632 0.611033 2.44878e-13)
(977.333 0.810581 2.39957e-13)
(976.94 1.07545 2.36965e-13)
(976.423 1.42679 2.43881e-13)
(975.744 1.89263 2.46051e-13)
(974.85 2.51003 2.41757e-13)
(973.678 3.32705 2.41414e-13)
(972.142 4.40534 2.41659e-13)
(970.137 5.82483 2.42843e-13)
(967.526 7.68919 2.41555e-13)
(964.141 10.1277 2.43722e-13)
(959.783 13.2946 2.4704e-13)
(954.217 17.3756 2.45569e-13)
(947.169 22.5972 2.46866e-13)
(938.345 29.2123 2.45339e-13)
(927.465 37.4526 2.44253e-13)
(914.266 47.5609 2.46539e-13)
(898.624 59.6369 2.48082e-13)
(879.994 74.5599 2.43404e-13)
(858.991 91.2039 2.41741e-13)
(978.574 0.00296183 2.75722e-13)
(978.573 0.003862 2.74075e-13)
(978.571 0.00504072 2.66023e-13)
(978.568 0.00658558 2.67474e-13)
(978.564 0.00861209 2.69217e-13)
(978.56 0.0112727 2.65587e-13)
(978.553 0.0147688 2.65495e-13)
(978.546 0.0193662 2.66216e-13)
(978.535 0.0254167 2.64303e-13)
(978.522 0.0333856 2.66198e-13)
(978.504 0.0438892 2.64925e-13)
(978.481 0.0577436 2.59006e-13)
(978.451 0.0760293 2.59421e-13)
(978.412 0.100177 2.59494e-13)
(978.36 0.132085 2.59078e-13)
(978.292 0.174275 2.60179e-13)
(978.204 0.230088 2.60598e-13)
(978.087 0.303945 2.55833e-13)
(977.935 0.401696 2.53289e-13)
(977.734 0.531114 2.53658e-13)
(977.471 0.702518 2.55234e-13)
(977.126 0.929522 2.55943e-13)
(976.673 1.22999 2.53878e-13)
(976.078 1.62743 2.53507e-13)
(975.298 2.15299 2.56555e-13)
(974.277 2.84749 2.57801e-13)
(972.94 3.76342 2.56672e-13)
(971.196 4.96791 2.55547e-13)
(968.926 6.54802 2.54613e-13)
(965.983 8.61549 2.54119e-13)
(962.186 11.3069 2.56973e-13)
(957.324 14.783 2.59757e-13)
(951.15 19.238 2.54142e-13)
(943.383 24.9054 2.51055e-13)
(933.731 32.0315 2.53631e-13)
(921.93 40.8333 2.55179e-13)
(907.758 51.5175 2.55059e-13)
(891.05 64.2978 2.55015e-13)
(871.743 79.318 2.57621e-13)
(850.151 96.2378 2.54993e-13)
(826.296 115.473 2.50686e-13)
(801.447 135.341 2.49221e-13)
(978.571 0.00465855 2.86561e-13)
(978.569 0.0060632 2.85074e-13)
(978.565 0.00789916 2.82871e-13)
(978.561 0.010301 2.83025e-13)
(978.555 0.013446 2.83674e-13)
(978.548 0.0175673 2.81035e-13)
(978.538 0.0229727 2.79557e-13)
(978.526 0.0300677 2.8045e-13)
(978.51 0.0393878 2.79356e-13)
(978.489 0.0516404 2.78814e-13)
(978.462 0.0677594 2.7865e-13)
(978.426 0.0889784 2.74105e-13)
(978.38 0.116928 2.71375e-13)
(978.319 0.153765 2.72772e-13)
(978.24 0.202349 2.72702e-13)
(978.137 0.266455 2.72207e-13)
(978.001 0.351061 2.72195e-13)
(977.824 0.462751 2.68282e-13)
(977.592 0.610249 2.66369e-13)
(977.288 0.805093 2.66104e-13)
(976.89 1.06242 2.68925e-13)
(976.369 1.40205 2.70562e-13)
(975.687 1.85006 2.68035e-13)
(974.796 2.44085 2.65909e-13)
(973.632 3.21911 2.68692e-13)
(972.114 4.24184 2.68265e-13)
(970.141 5.58196 2.66561e-13)
(967.583 7.33376 2.65352e-13)
(964.28 9.61657 2.6584e-13)
(960.041 12.5731 2.64756e-13)
(954.643 16.3704 2.66558e-13)
(947.828 21.2104 2.69047e-13)
(939.313 27.33 2.66393e-13)
(928.812 34.9637 2.63369e-13)
(916.083 44.3085 2.65629e-13)
(900.932 55.5587 2.66115e-13)
(883.226 68.912 2.65781e-13)
(862.999 84.4064 2.66285e-13)
(840.548 101.806 2.64213e-13)
(816.468 120.712 2.63274e-13)
(791.965 140.171 2.61932e-13)
(768.075 159.84 2.56944e-13)
(746.513 177.715 2.54988e-13)
(978.562 0.00944809 2.99823e-13)
(978.557 0.0122863 3.01012e-13)
(978.55 0.0159926 3.00352e-13)
(978.541 0.0208366 2.97347e-13)
(978.53 0.0271727 2.94286e-13)
(978.515 0.0354673 2.92901e-13)
(978.496 0.0463345 2.93439e-13)
(978.472 0.0605834 2.92282e-13)
(978.44 0.0792794 2.9001e-13)
(978.398 0.103826 2.89945e-13)
(978.343 0.136075 2.88397e-13)
(978.272 0.178471 2.85683e-13)
(978.18 0.234241 2.8694e-13)
(978.059 0.307633 2.85766e-13)
(977.902 0.404241 2.85191e-13)
(977.697 0.531445 2.85483e-13)
(977.429 0.699001 2.82982e-13)
(977.079 0.919746 2.84241e-13)
(976.622 1.21045 2.83239e-13)
(976.025 1.59303 2.81635e-13)
(975.246 2.0963 2.84819e-13)
(974.231 2.75802 2.83943e-13)
(972.91 3.62684 2.80024e-13)
(971.193 4.76442 2.79258e-13)
(968.97 6.24963 2.81415e-13)
(966.099 8.18398 2.81679e-13)
(962.409 10.6936 2.78542e-13)
(957.698 13.9265 2.76469e-13)
(951.733 18.0552 2.77627e-13)
(944.249 23.2884 2.80296e-13)
(934.961 29.8623 2.82336e-13)
(923.599 37.9945 2.80166e-13)
(909.944 47.8619 2.76798e-13)
(893.828 59.6485 2.76168e-13)
(875.165 73.5203 2.78955e-13)
(854.064 89.4366 2.76258e-13)
(830.902 107.104 2.75562e-13)
(806.41 126.028 2.7406e-13)
(781.785 145.404 2.70144e-13)
(758.517 164.195 2.66052e-13)
(738.233 180.952 2.67115e-13)
(721.546 195.322 2.64384e-13)