/*--------------------------------*- C++ -*----------------------------------*\
| =========                 |                                                 |
| \\      /  F ield         | OpenFOAM: The Open Source CFD Toolbox           |
|  \\    /   O peration     | Version:  v1706                                 |
|   \\  /    A nd           | Web:      www.OpenFOAM.com                      |
|    \\/     M anipulation  |                                                 |
\*---------------------------------------------------------------------------*/
FoamFile
{
    version     2.0;
    format      ascii;
    class       volScalarField;
    location    "1.1e-05";
    object      alpha;
}
// * * * * * * * * * * * * * * * * * * * * * * * * * * * * * * * * * * * * * //

dimensions      [1 -1 -1 0 0 0 0];


internalField   nonuniform List<scalar> 
29871
(
1.40478e-05
1.40478e-05
1.40478e-05
1.40478e-05
1.40478e-05
1.40478e-05
1.40478e-05
1.40478e-05
1.40478e-05
1.40478e-05
1.40478e-05
1.40478e-05
1.40478e-05
1.40478e-05
1.40478e-05
1.40478e-05
1.40478e-05
1.40478e-05
1.40478e-05
1.40478e-05
1.40478e-05
1.40478e-05
1.40478e-05
1.40478e-05
1.40478e-05
1.40478e-05
1.40478e-05
1.40478e-05
1.40478e-05
1.40478e-05
1.40478e-05
1.40478e-05
1.40478e-05
1.40478e-05
1.40478e-05
1.40478e-05
1.40478e-05
1.40478e-05
1.40478e-05
1.40478e-05
1.40478e-05
1.40478e-05
1.40478e-05
1.40478e-05
1.40478e-05
1.40478e-05
1.40478e-05
1.40478e-05
1.40478e-05
1.40478e-05
1.40478e-05
1.40478e-05
1.40478e-05
1.40478e-05
1.40478e-05
1.40478e-05
1.40478e-05
1.40478e-05
1.40478e-05
1.40478e-05
1.40478e-05
1.40478e-05
1.40478e-05
1.40478e-05
1.40478e-05
1.40478e-05
1.40478e-05
1.40478e-05
1.40478e-05
1.40478e-05
1.40478e-05
1.40478e-05
1.40478e-05
1.40478e-05
1.40478e-05
1.40478e-05
1.40478e-05
1.40478e-05
1.40478e-05
1.40478e-05
1.40478e-05
1.40478e-05
1.40478e-05
1.40478e-05
1.40478e-05
1.40478e-05
1.40478e-05
1.40478e-05
1.40478e-05
1.40478e-05
1.40478e-05
1.40478e-05
1.40478e-05
1.40478e-05
1.40478e-05
1.40478e-05
1.40478e-05
1.40478e-05
1.40478e-05
1.40478e-05
1.40478e-05
1.40478e-05
1.40478e-05
1.40478e-05
1.40478e-05
1.40478e-05
1.40478e-05
1.40478e-05
1.40478e-05
1.40478e-05
1.40478e-05
1.40478e-05
1.40478e-05
1.40478e-05
1.40478e-05
1.40478e-05
1.40478e-05
1.40478e-05
1.40478e-05
1.40478e-05
1.40478e-05
1.40478e-05
1.40478e-05
1.40478e-05
1.40478e-05
1.40478e-05
1.40478e-05
1.40478e-05
1.40478e-05
1.40478e-05
1.40478e-05
1.40478e-05
1.40478e-05
1.40478e-05
1.40478e-05
1.40478e-05
1.40478e-05
1.40478e-05
1.40478e-05
1.40478e-05
1.40478e-05
1.40478e-05
1.40478e-05
1.40478e-05
1.40478e-05
1.40478e-05
1.40478e-05
1.40478e-05
1.40478e-05
1.40478e-05
1.40478e-05
1.40478e-05
1.40478e-05
1.40478e-05
1.40478e-05
1.40478e-05
1.40478e-05
1.40478e-05
1.40478e-05
1.40478e-05
1.40478e-05
1.40478e-05
1.40478e-05
1.40478e-05
1.40478e-05
1.40478e-05
1.40478e-05
1.40478e-05
1.40478e-05
1.40478e-05
1.40478e-05
1.40478e-05
1.40478e-05
1.40478e-05
1.40478e-05
1.40478e-05
1.40478e-05
1.40478e-05
1.40478e-05
1.40478e-05
1.40478e-05
1.40478e-05
1.40478e-05
1.40478e-05
1.40478e-05
1.40478e-05
1.40478e-05
1.40478e-05
1.40478e-05
1.40478e-05
1.40478e-05
1.40478e-05
1.40478e-05
1.40478e-05
1.40478e-05
1.40478e-05
1.40478e-05
1.40478e-05
1.40478e-05
1.40478e-05
1.40478e-05
1.40478e-05
1.40478e-05
1.40478e-05
1.40478e-05
1.40478e-05
1.40478e-05
1.40478e-05
1.40478e-05
1.40478e-05
1.40478e-05
1.40478e-05
1.40478e-05
1.40478e-05
1.40478e-05
1.40478e-05
1.40478e-05
1.40478e-05
1.40478e-05
1.40478e-05
1.40478e-05
1.40478e-05
1.40478e-05
1.40478e-05
1.40478e-05
1.40478e-05
1.40478e-05
1.40478e-05
1.40478e-05
1.40478e-05
1.40478e-05
1.40478e-05
1.40478e-05
1.40478e-05
1.40478e-05
1.40478e-05
1.40478e-05
1.40478e-05
1.40478e-05
1.40478e-05
1.40478e-05
1.40478e-05
1.40478e-05
1.40478e-05
1.40478e-05
1.40478e-05
1.40478e-05
1.40478e-05
1.40478e-05
1.40478e-05
1.40478e-05
1.40478e-05
1.40478e-05
1.40478e-05
1.40478e-05
1.40478e-05
1.40478e-05
1.40478e-05
1.40478e-05
1.40478e-05
1.40478e-05
1.40478e-05
1.40478e-05
1.40478e-05
1.40478e-05
1.40478e-05
1.40478e-05
1.40478e-05
1.40478e-05
1.40478e-05
1.40478e-05
1.40478e-05
1.40478e-05
1.40478e-05
1.40478e-05
1.40478e-05
1.40478e-05
1.40478e-05
1.40478e-05
1.40478e-05
1.40478e-05
1.40478e-05
1.40478e-05
1.40478e-05
1.40478e-05
1.40478e-05
1.40478e-05
1.40478e-05
1.40478e-05
1.40478e-05
1.40478e-05
1.40478e-05
1.40478e-05
1.40478e-05
1.40478e-05
1.40478e-05
1.40478e-05
1.40478e-05
1.40478e-05
1.40478e-05
1.40478e-05
1.40478e-05
1.40478e-05
1.40478e-05
1.40478e-05
1.40478e-05
1.40478e-05
1.40478e-05
1.40478e-05
1.40478e-05
1.40478e-05
1.40478e-05
1.40478e-05
1.40478e-05
1.40478e-05
1.40478e-05
1.40478e-05
1.40478e-05
1.40478e-05
1.40478e-05
1.40478e-05
1.40478e-05
1.40478e-05
1.40478e-05
1.40478e-05
1.40478e-05
1.40478e-05
1.40478e-05
1.40478e-05
1.40478e-05
1.40478e-05
1.40478e-05
1.40478e-05
1.40478e-05
1.40478e-05
1.40478e-05
1.40478e-05
1.40478e-05
1.40478e-05
1.40478e-05
1.40478e-05
1.40478e-05
1.40478e-05
1.40478e-05
1.40478e-05
1.40478e-05
1.40478e-05
1.40478e-05
1.40478e-05
1.40478e-05
1.40478e-05
1.40478e-05
1.40478e-05
1.40478e-05
1.40478e-05
1.40478e-05
1.40478e-05
1.40478e-05
1.40478e-05
1.40478e-05
1.40478e-05
1.40478e-05
1.40478e-05
1.40478e-05
1.40478e-05
1.40478e-05
1.40478e-05
1.40478e-05
1.40478e-05
1.40478e-05
1.40478e-05
1.40478e-05
1.40478e-05
1.40478e-05
1.40478e-05
1.40478e-05
1.40478e-05
1.40478e-05
1.40478e-05
1.40478e-05
1.40478e-05
1.40478e-05
1.40478e-05
1.40478e-05
1.40478e-05
1.40478e-05
1.40478e-05
1.40478e-05
1.40478e-05
1.40478e-05
1.40478e-05
1.40478e-05
1.40478e-05
1.40478e-05
1.40478e-05
1.40478e-05
1.40478e-05
1.40478e-05
1.40478e-05
1.40478e-05
1.40478e-05
1.40478e-05
1.40478e-05
1.40478e-05
1.40478e-05
1.40478e-05
1.40478e-05
1.40478e-05
1.40478e-05
1.40478e-05
1.40478e-05
1.40478e-05
1.40478e-05
1.40478e-05
1.40478e-05
1.40478e-05
1.40478e-05
1.40478e-05
1.40478e-05
1.40478e-05
1.40478e-05
1.40478e-05
1.40478e-05
1.40478e-05
1.40478e-05
1.40478e-05
1.40478e-05
1.40478e-05
1.40478e-05
1.40478e-05
1.40478e-05
1.40478e-05
1.40478e-05
1.40478e-05
1.40478e-05
1.40478e-05
1.40478e-05
1.40478e-05
1.40478e-05
1.40478e-05
1.40478e-05
1.40478e-05
1.40478e-05
1.40478e-05
1.40478e-05
1.40478e-05
1.40478e-05
1.40478e-05
1.40478e-05
1.40478e-05
1.40478e-05
1.40478e-05
1.40478e-05
1.40478e-05
1.40478e-05
1.40478e-05
1.40478e-05
1.40478e-05
1.40478e-05
1.40478e-05
1.40478e-05
1.40478e-05
1.40478e-05
1.40478e-05
1.40478e-05
1.40478e-05
1.40478e-05
1.40478e-05
1.40478e-05
1.40478e-05
1.40478e-05
1.40478e-05
1.40478e-05
1.40478e-05
1.40478e-05
1.40478e-05
1.40478e-05
1.40478e-05
1.40478e-05
1.40478e-05
1.40478e-05
1.40478e-05
1.40478e-05
1.40478e-05
1.40478e-05
1.40478e-05
1.40478e-05
1.40478e-05
1.40478e-05
1.40478e-05
1.40478e-05
1.40478e-05
1.40478e-05
1.40478e-05
1.40478e-05
1.40478e-05
1.40478e-05
1.40478e-05
1.40478e-05
1.40478e-05
1.40478e-05
1.40478e-05
1.40478e-05
1.40478e-05
1.40478e-05
1.40478e-05
1.40478e-05
1.40478e-05
1.40478e-05
1.40478e-05
1.40478e-05
1.40478e-05
1.40478e-05
1.40478e-05
1.40478e-05
1.40478e-05
1.40478e-05
1.40478e-05
1.40478e-05
1.40478e-05
1.40478e-05
1.40478e-05
1.40478e-05
1.40478e-05
1.40478e-05
1.40478e-05
1.40478e-05
1.40478e-05
1.40478e-05
1.40478e-05
1.40478e-05
1.40478e-05
1.40478e-05
1.40478e-05
1.40478e-05
1.40478e-05
1.40478e-05
1.40478e-05
1.40478e-05
1.40478e-05
1.40478e-05
1.40478e-05
1.40478e-05
1.40478e-05
1.40478e-05
1.40478e-05
1.40478e-05
1.40478e-05
1.40478e-05
1.40478e-05
1.40478e-05
1.40478e-05
1.40478e-05
1.40478e-05
1.40478e-05
1.40478e-05
1.40478e-05
1.40478e-05
1.40478e-05
1.40478e-05
1.40478e-05
1.40478e-05
1.40478e-05
1.40478e-05
1.40478e-05
1.40478e-05
1.40478e-05
1.40478e-05
1.40478e-05
1.40478e-05
1.40478e-05
1.40478e-05
1.40478e-05
1.40478e-05
1.40478e-05
1.40478e-05
1.40478e-05
1.40478e-05
1.40478e-05
1.40478e-05
1.40478e-05
1.40478e-05
1.40478e-05
1.40478e-05
1.40478e-05
1.40478e-05
1.40478e-05
1.40478e-05
1.40478e-05
1.40478e-05
1.40478e-05
1.40478e-05
1.40478e-05
1.40478e-05
1.40478e-05
1.40478e-05
1.40478e-05
1.40478e-05
1.40478e-05
1.40478e-05
1.40478e-05
1.40478e-05
1.40478e-05
1.40478e-05
1.40478e-05
1.40478e-05
1.40478e-05
1.40478e-05
1.40478e-05
1.40478e-05
1.40478e-05
1.40478e-05
1.40478e-05
1.40478e-05
1.40478e-05
1.40478e-05
1.40478e-05
1.40478e-05
1.40478e-05
1.40478e-05
1.40478e-05
1.40478e-05
1.40478e-05
1.40478e-05
1.40478e-05
1.40478e-05
1.40478e-05
1.40478e-05
1.40478e-05
1.40478e-05
1.40478e-05
1.40478e-05
1.40478e-05
1.40478e-05
1.40478e-05
1.40478e-05
1.40478e-05
1.40478e-05
1.40478e-05
1.40478e-05
1.40478e-05
1.40478e-05
1.40478e-05
1.40478e-05
1.40478e-05
1.40478e-05
1.40478e-05
1.40478e-05
1.40478e-05
1.40478e-05
1.40478e-05
1.40478e-05
1.40478e-05
1.40478e-05
1.40478e-05
1.40478e-05
1.40478e-05
1.40478e-05
1.40478e-05
1.40478e-05
1.40478e-05
1.40478e-05
1.40478e-05
1.40478e-05
1.40478e-05
1.40478e-05
1.40478e-05
1.40478e-05
1.40478e-05
1.40478e-05
1.40478e-05
1.40478e-05
1.40478e-05
1.40478e-05
1.40478e-05
1.40478e-05
1.40478e-05
1.40478e-05
1.40478e-05
1.40478e-05
1.40478e-05
1.40478e-05
1.40478e-05
1.40478e-05
1.40478e-05
1.40478e-05
1.40478e-05
1.40478e-05
1.40478e-05
1.40478e-05
1.40478e-05
1.40478e-05
1.40478e-05
1.40478e-05
1.40478e-05
1.40478e-05
1.40478e-05
1.40478e-05
1.40478e-05
1.40478e-05
1.40478e-05
1.40478e-05
1.40478e-05
1.40478e-05
1.40478e-05
1.40478e-05
1.40478e-05
1.40478e-05
1.40478e-05
1.40478e-05
1.40478e-05
1.40478e-05
1.40478e-05
1.40478e-05
1.40478e-05
1.40478e-05
1.40478e-05
1.40478e-05
1.40478e-05
1.40478e-05
1.40478e-05
1.40478e-05
1.40478e-05
1.40478e-05
1.40478e-05
1.40478e-05
1.40478e-05
1.40478e-05
1.40478e-05
1.40478e-05
1.40478e-05
1.40478e-05
1.40478e-05
1.40478e-05
1.40478e-05
1.40478e-05
1.40478e-05
1.40478e-05
1.40478e-05
1.40478e-05
1.40478e-05
1.40478e-05
1.40478e-05
1.40478e-05
1.40478e-05
1.40478e-05
1.40478e-05
1.40478e-05
1.40478e-05
1.40478e-05
1.40478e-05
1.40478e-05
1.40478e-05
1.40478e-05
1.40478e-05
1.40478e-05
1.40478e-05
1.40478e-05
1.40478e-05
1.40478e-05
1.40478e-05
1.40478e-05
1.40478e-05
1.40478e-05
1.40478e-05
1.40478e-05
1.40478e-05
1.40478e-05
1.40478e-05
1.40478e-05
1.40478e-05
1.40478e-05
1.40478e-05
1.40478e-05
1.40478e-05
1.40478e-05
1.40478e-05
1.40478e-05
1.40478e-05
1.40478e-05
1.40478e-05
1.40478e-05
1.40478e-05
1.40478e-05
1.40478e-05
1.40478e-05
1.40478e-05
1.40478e-05
1.40478e-05
1.40478e-05
1.40478e-05
1.40478e-05
1.40478e-05
1.40478e-05
1.40478e-05
1.40478e-05
1.40478e-05
1.40478e-05
1.40478e-05
1.40478e-05
1.40478e-05
1.40478e-05
1.40478e-05
1.40478e-05
1.40478e-05
1.40478e-05
1.40478e-05
1.40478e-05
1.40478e-05
1.40478e-05
1.40478e-05
1.40478e-05
1.40478e-05
1.40478e-05
1.40478e-05
1.40478e-05
1.40478e-05
1.40478e-05
1.40478e-05
1.40478e-05
1.40478e-05
1.40478e-05
1.40478e-05
1.40478e-05
1.40478e-05
1.40478e-05
1.40478e-05
1.40478e-05
1.40478e-05
1.40478e-05
1.40478e-05
1.40478e-05
1.40478e-05
1.40478e-05
1.40478e-05
1.40478e-05
1.40478e-05
1.40478e-05
1.40478e-05
1.40478e-05
1.40478e-05
1.40478e-05
1.40478e-05
1.40478e-05
1.40478e-05
1.40478e-05
1.40478e-05
1.40478e-05
1.40478e-05
1.40478e-05
1.40478e-05
1.40478e-05
1.40478e-05
1.40478e-05
1.40478e-05
1.40478e-05
1.40478e-05
1.40478e-05
1.40478e-05
1.40478e-05
1.40478e-05
1.40478e-05
1.40478e-05
1.40478e-05
1.40478e-05
1.40478e-05
1.40478e-05
1.40478e-05
1.40478e-05
1.40478e-05
1.40478e-05
1.40478e-05
1.40478e-05
1.40478e-05
1.40478e-05
1.40478e-05
1.40478e-05
1.40478e-05
1.40478e-05
1.40478e-05
1.40478e-05
1.40478e-05
1.40478e-05
1.40478e-05
1.40478e-05
1.40478e-05
1.40478e-05
1.40478e-05
1.40478e-05
1.40478e-05
1.40478e-05
1.40478e-05
1.40478e-05
1.40478e-05
1.40478e-05
1.40478e-05
1.40478e-05
1.40478e-05
1.40478e-05
1.40478e-05
1.40478e-05
1.40478e-05
1.40478e-05
1.40478e-05
1.40478e-05
1.40478e-05
1.40478e-05
1.40478e-05
1.40478e-05
1.40478e-05
1.40478e-05
1.40478e-05
1.40478e-05
1.40478e-05
1.40478e-05
1.40478e-05
1.40478e-05
1.40478e-05
1.40478e-05
1.40478e-05
1.40478e-05
1.40478e-05
1.40478e-05
1.40478e-05
1.40478e-05
1.40478e-05
1.40478e-05
1.40478e-05
1.40478e-05
1.40478e-05
1.40478e-05
1.40478e-05
1.40478e-05
1.40478e-05
1.40478e-05
1.40478e-05
1.40478e-05
1.40478e-05
1.40478e-05
1.40478e-05
1.40478e-05
1.40478e-05
1.40478e-05
1.40478e-05
1.40478e-05
1.40478e-05
1.40478e-05
1.40478e-05
1.40478e-05
1.40478e-05
1.40478e-05
1.40478e-05
1.40478e-05
1.40478e-05
1.40478e-05
1.40478e-05
1.40478e-05
1.40478e-05
1.40478e-05
1.40478e-05
1.40478e-05
1.40478e-05
1.40478e-05
1.40478e-05
1.40478e-05
1.40478e-05
1.40478e-05
1.40478e-05
1.40478e-05
1.40478e-05
1.40478e-05
1.40478e-05
1.40478e-05
1.40478e-05
1.40478e-05
1.40478e-05
1.40478e-05
1.40478e-05
1.40478e-05
1.40478e-05
1.40478e-05
1.40478e-05
1.40478e-05
1.40478e-05
1.40478e-05
1.40478e-05
1.40478e-05
1.40478e-05
1.40478e-05
1.40478e-05
1.40478e-05
1.40478e-05
1.40478e-05
1.40478e-05
1.40478e-05
1.40478e-05
1.40478e-05
1.40478e-05
1.40478e-05
1.40478e-05
1.40478e-05
1.40478e-05
1.40478e-05
1.40478e-05
1.40478e-05
1.40478e-05
1.40478e-05
1.40478e-05
1.40478e-05
1.40478e-05
1.40478e-05
1.40478e-05
1.40478e-05
1.40478e-05
1.40478e-05
1.40478e-05
1.40478e-05
1.40478e-05
1.40478e-05
1.40478e-05
1.40478e-05
1.40478e-05
1.40478e-05
1.40478e-05
1.40478e-05
1.40478e-05
1.40478e-05
1.40478e-05
1.40478e-05
1.40478e-05
1.40478e-05
1.40478e-05
1.40478e-05
1.40478e-05
1.40478e-05
1.40478e-05
1.40478e-05
1.40478e-05
1.40478e-05
1.40478e-05
1.40478e-05
1.40478e-05
1.40478e-05
1.40478e-05
1.40478e-05
1.40478e-05
1.40478e-05
1.40478e-05
1.40478e-05
1.40478e-05
1.40478e-05
1.40478e-05
1.40478e-05
1.40478e-05
1.40478e-05
1.40478e-05
1.40478e-05
1.40478e-05
1.40478e-05
1.40478e-05
1.40478e-05
1.40478e-05
1.40478e-05
1.40478e-05
1.40478e-05
1.40478e-05
1.40478e-05
1.40478e-05
1.40478e-05
1.40478e-05
1.40478e-05
1.40478e-05
1.40478e-05
1.40478e-05
1.40478e-05
1.40478e-05
1.40478e-05
1.40478e-05
1.40478e-05
1.40478e-05
1.40478e-05
1.40478e-05
1.40478e-05
1.40478e-05
1.40478e-05
1.40478e-05
1.40478e-05
1.40478e-05
1.40478e-05
1.40478e-05
1.40478e-05
1.40478e-05
1.40478e-05
1.40478e-05
1.40478e-05
1.40478e-05
1.40478e-05
1.40478e-05
1.40478e-05
1.40478e-05
1.40478e-05
1.40478e-05
1.40478e-05
1.40478e-05
1.40478e-05
1.40478e-05
1.40478e-05
1.40478e-05
1.40478e-05
1.40478e-05
1.40478e-05
1.40478e-05
1.40478e-05
1.40478e-05
1.40478e-05
1.40478e-05
1.40478e-05
1.40478e-05
1.40478e-05
1.40478e-05
1.40478e-05
1.40478e-05
1.40478e-05
1.40478e-05
1.40478e-05
1.40478e-05
1.40478e-05
1.40478e-05
1.40478e-05
1.40478e-05
1.40478e-05
1.40478e-05
1.40478e-05
1.40478e-05
1.40478e-05
1.40478e-05
1.40478e-05
1.40478e-05
1.40478e-05
1.40478e-05
1.40478e-05
1.40478e-05
1.40478e-05
1.40478e-05
1.40478e-05
1.40478e-05
1.40478e-05
1.40478e-05
1.40478e-05
1.40478e-05
1.40478e-05
1.40478e-05
1.40478e-05
1.40478e-05
1.40478e-05
1.40478e-05
1.40478e-05
1.40478e-05
1.40478e-05
1.40478e-05
1.40478e-05
1.40478e-05
1.40478e-05
1.40478e-05
1.40478e-05
1.40478e-05
1.40478e-05
1.40478e-05
1.40478e-05
1.40478e-05
1.40478e-05
1.40478e-05
1.40478e-05
1.40478e-05
1.40478e-05
1.40478e-05
1.40478e-05
1.40478e-05
1.40478e-05
1.40478e-05
1.40478e-05
1.40478e-05
1.40478e-05
1.40478e-05
1.40478e-05
1.40478e-05
1.40478e-05
1.40478e-05
1.40478e-05
1.40478e-05
1.40478e-05
1.40478e-05
1.40478e-05
1.40478e-05
1.40478e-05
1.40478e-05
1.40478e-05
1.40478e-05
1.40478e-05
1.40478e-05
1.40478e-05
1.40478e-05
1.40478e-05
1.40478e-05
1.40478e-05
1.40478e-05
1.40478e-05
1.40478e-05
1.40478e-05
1.40478e-05
1.40478e-05
1.40478e-05
1.40478e-05
1.40478e-05
1.40478e-05
1.40478e-05
1.40478e-05
1.40478e-05
1.40478e-05
1.40478e-05
1.40478e-05
1.40478e-05
1.40478e-05
1.40478e-05
1.40478e-05
1.40478e-05
1.40478e-05
1.40478e-05
1.40478e-05
1.40478e-05
1.40478e-05
1.40478e-05
1.40478e-05
1.40478e-05
1.40478e-05
1.40478e-05
1.40478e-05
1.40478e-05
1.40478e-05
1.40478e-05
1.40478e-05
1.40478e-05
1.40478e-05
1.40478e-05
1.40478e-05
1.40478e-05
1.40478e-05
1.40478e-05
1.40478e-05
1.40478e-05
1.40478e-05
1.40478e-05
1.40478e-05
1.40478e-05
1.40478e-05
1.40478e-05
1.40478e-05
1.40478e-05
1.40478e-05
1.40478e-05
1.40478e-05
1.40478e-05
1.40478e-05
1.40478e-05
1.40478e-05
1.40478e-05
1.40478e-05
1.40478e-05
1.40478e-05
1.40478e-05
1.40478e-05
1.40478e-05
1.40478e-05
1.40478e-05
1.40478e-05
1.40478e-05
1.40478e-05
1.40478e-05
1.40478e-05
1.40478e-05
1.40478e-05
1.40478e-05
1.40478e-05
1.40478e-05
1.40478e-05
1.40478e-05
1.40478e-05
1.40478e-05
1.40478e-05
1.40478e-05
1.40478e-05
1.40478e-05
1.40478e-05
1.40478e-05
1.40478e-05
1.40478e-05
1.40478e-05
1.40478e-05
1.40478e-05
1.40478e-05
1.40478e-05
1.40478e-05
1.40478e-05
1.40478e-05
1.40478e-05
1.40478e-05
1.40478e-05
1.40478e-05
1.40478e-05
1.40478e-05
1.40478e-05
1.40478e-05
1.40478e-05
1.40478e-05
1.40478e-05
1.40478e-05
1.40478e-05
1.40478e-05
1.40478e-05
1.40478e-05
1.40478e-05
1.40478e-05
1.40479e-05
1.40479e-05
1.40479e-05
1.40479e-05
1.40479e-05
1.40479e-05
1.40479e-05
1.40479e-05
1.4048e-05
1.4048e-05
1.4048e-05
1.4048e-05
1.4048e-05
1.4048e-05
1.4048e-05
1.40481e-05
1.40481e-05
1.40481e-05
1.40481e-05
1.40481e-05
1.40481e-05
1.40481e-05
1.40482e-05
1.40482e-05
1.40482e-05
1.40482e-05
1.40482e-05
1.40481e-05
1.40481e-05
1.40481e-05
1.40481e-05
1.40481e-05
1.40481e-05
1.40481e-05
1.4048e-05
1.4048e-05
1.4048e-05
1.4048e-05
1.4048e-05
1.40479e-05
1.40479e-05
1.40479e-05
1.40479e-05
1.40479e-05
1.40479e-05
1.40478e-05
1.40478e-05
1.40478e-05
1.40478e-05
1.40478e-05
1.40478e-05
1.40478e-05
1.40478e-05
1.40478e-05
1.40478e-05
1.40478e-05
1.40478e-05
1.40478e-05
1.40478e-05
1.40478e-05
1.40478e-05
1.40478e-05
1.40478e-05
1.40478e-05
1.40478e-05
1.40478e-05
1.40478e-05
1.40478e-05
1.40478e-05
1.40478e-05
1.40478e-05
1.40478e-05
1.40478e-05
1.40478e-05
1.40478e-05
1.40478e-05
1.40478e-05
1.40478e-05
1.40478e-05
1.40478e-05
1.40478e-05
1.40478e-05
1.40478e-05
1.40478e-05
1.40478e-05
1.40478e-05
1.40478e-05
1.40478e-05
1.40478e-05
1.40478e-05
1.40478e-05
1.40478e-05
1.40478e-05
1.40478e-05
1.40478e-05
1.40478e-05
1.40478e-05
1.40478e-05
1.40479e-05
1.40479e-05
1.40479e-05
1.40479e-05
1.40479e-05
1.40479e-05
1.40479e-05
1.4048e-05
1.4048e-05
1.4048e-05
1.40481e-05
1.40481e-05
1.40481e-05
1.40482e-05
1.40482e-05
1.40483e-05
1.40484e-05
1.40484e-05
1.40485e-05
1.40486e-05
1.40487e-05
1.40488e-05
1.40489e-05
1.4049e-05
1.40491e-05
1.40492e-05
1.40494e-05
1.40495e-05
1.40496e-05
1.40497e-05
1.40498e-05
1.405e-05
1.40501e-05
1.40502e-05
1.40503e-05
1.40504e-05
1.40505e-05
1.40505e-05
1.40505e-05
1.40506e-05
1.40506e-05
1.40505e-05
1.40505e-05
1.40504e-05
1.40503e-05
1.40502e-05
1.40501e-05
1.40499e-05
1.40498e-05
1.40496e-05
1.40495e-05
1.40493e-05
1.40492e-05
1.4049e-05
1.40489e-05
1.40488e-05
1.40486e-05
1.40485e-05
1.40484e-05
1.40483e-05
1.40482e-05
1.40481e-05
1.40481e-05
1.4048e-05
1.4048e-05
1.40479e-05
1.40479e-05
1.40479e-05
1.40479e-05
1.40478e-05
1.40478e-05
1.40478e-05
1.40478e-05
1.40478e-05
1.40478e-05
1.40478e-05
1.40478e-05
1.40478e-05
1.40478e-05
1.40478e-05
1.40478e-05
1.40478e-05
1.40478e-05
1.40478e-05
1.40478e-05
1.40478e-05
1.40478e-05
1.40478e-05
1.40478e-05
1.40478e-05
1.40478e-05
1.40478e-05
1.40478e-05
1.40478e-05
1.40478e-05
1.40478e-05
1.40478e-05
1.40478e-05
1.40478e-05
1.40478e-05
1.40478e-05
1.40478e-05
1.40478e-05
1.40479e-05
1.40479e-05
1.40479e-05
1.40479e-05
1.40479e-05
1.40479e-05
1.4048e-05
1.4048e-05
1.4048e-05
1.40481e-05
1.40481e-05
1.40482e-05
1.40483e-05
1.40483e-05
1.40484e-05
1.40485e-05
1.40486e-05
1.40488e-05
1.40489e-05
1.40491e-05
1.40493e-05
1.40495e-05
1.40498e-05
1.405e-05
1.40503e-05
1.40507e-05
1.40511e-05
1.40515e-05
1.4052e-05
1.40525e-05
1.40531e-05
1.40538e-05
1.40545e-05
1.40552e-05
1.4056e-05
1.40567e-05
1.40576e-05
1.40584e-05
1.40592e-05
1.40601e-05
1.4061e-05
1.40619e-05
1.40628e-05
1.40637e-05
1.40645e-05
1.40654e-05
1.40661e-05
1.40668e-05
1.40673e-05
1.40678e-05
1.40681e-05
1.40682e-05
1.40681e-05
1.40679e-05
1.40675e-05
1.4067e-05
1.40663e-05
1.40655e-05
1.40646e-05
1.40636e-05
1.40625e-05
1.40613e-05
1.40601e-05
1.4059e-05
1.40578e-05
1.40568e-05
1.40558e-05
1.40548e-05
1.4054e-05
1.40532e-05
1.40524e-05
1.40517e-05
1.4051e-05
1.40504e-05
1.40499e-05
1.40495e-05
1.40491e-05
1.40488e-05
1.40486e-05
1.40484e-05
1.40483e-05
1.40482e-05
1.40481e-05
1.4048e-05
1.40479e-05
1.40479e-05
1.40479e-05
1.40478e-05
1.40478e-05
1.40478e-05
1.40478e-05
1.40478e-05
1.40478e-05
1.40478e-05
1.40478e-05
1.40478e-05
1.40478e-05
1.40478e-05
1.40478e-05
1.40478e-05
1.40478e-05
1.40478e-05
1.40478e-05
1.40478e-05
1.40478e-05
1.40478e-05
1.40478e-05
1.40478e-05
1.40478e-05
1.40478e-05
1.40478e-05
1.40478e-05
1.40478e-05
1.40478e-05
1.40478e-05
1.40483e-05
1.40484e-05
1.40485e-05
1.40486e-05
1.40488e-05
1.40489e-05
1.40491e-05
1.40494e-05
1.40496e-05
1.40499e-05
1.40503e-05
1.40507e-05
1.40512e-05
1.40517e-05
1.40524e-05
1.40531e-05
1.40539e-05
1.40549e-05
1.4056e-05
1.40572e-05
1.40586e-05
1.40602e-05
1.4062e-05
1.40639e-05
1.40661e-05
1.40686e-05
1.40714e-05
1.40745e-05
1.4078e-05
1.40819e-05
1.40861e-05
1.40907e-05
1.40956e-05
1.41007e-05
1.41061e-05
1.41116e-05
1.41173e-05
1.41231e-05
1.41291e-05
1.41352e-05
1.41415e-05
1.4148e-05
1.41545e-05
1.4161e-05
1.41673e-05
1.41733e-05
1.41787e-05
1.41836e-05
1.41876e-05
1.41907e-05
1.41927e-05
1.41933e-05
1.41929e-05
1.41913e-05
1.41886e-05
1.41848e-05
1.41801e-05
1.41744e-05
1.41678e-05
1.41606e-05
1.41528e-05
1.41445e-05
1.41361e-05
1.41276e-05
1.41194e-05
1.41116e-05
1.41044e-05
1.40979e-05
1.40918e-05
1.4086e-05
1.40806e-05
1.40756e-05
1.40709e-05
1.40667e-05
1.40631e-05
1.406e-05
1.40574e-05
1.40553e-05
1.40537e-05
1.40524e-05
1.40513e-05
1.40504e-05
1.40498e-05
1.40492e-05
1.40488e-05
1.40485e-05
1.40483e-05
1.40482e-05
1.40481e-05
1.4048e-05
1.40479e-05
1.40479e-05
1.40478e-05
1.40478e-05
1.40478e-05
1.40478e-05
1.40478e-05
1.40478e-05
1.40478e-05
1.40478e-05
1.40478e-05
1.40478e-05
1.40478e-05
1.40478e-05
1.40478e-05
1.40478e-05
1.40478e-05
1.40478e-05
1.40478e-05
1.40478e-05
1.40478e-05
1.40478e-05
1.40478e-05
1.40478e-05
1.40478e-05
1.40478e-05
1.40489e-05
1.40491e-05
1.40493e-05
1.40496e-05
1.405e-05
1.40504e-05
1.40508e-05
1.40514e-05
1.4052e-05
1.40528e-05
1.40536e-05
1.40546e-05
1.40558e-05
1.40572e-05
1.40589e-05
1.40607e-05
1.40629e-05
1.40654e-05
1.40683e-05
1.40716e-05
1.40754e-05
1.40798e-05
1.4085e-05
1.40909e-05
1.40977e-05
1.41053e-05
1.4114e-05
1.41237e-05
1.41345e-05
1.41465e-05
1.416e-05
1.41753e-05
1.41926e-05
1.42121e-05
1.4234e-05
1.42583e-05
1.42851e-05
1.43143e-05
1.43455e-05
1.43786e-05
1.44132e-05
1.44489e-05
1.44855e-05
1.45228e-05
1.4561e-05
1.46004e-05
1.46414e-05
1.46838e-05
1.47273e-05
1.47712e-05
1.48146e-05
1.48563e-05
1.48955e-05
1.49311e-05
1.49621e-05
1.49876e-05
1.50072e-05
1.50196e-05
1.50226e-05
1.50191e-05
1.50086e-05
1.4991e-05
1.49666e-05
1.49357e-05
1.48988e-05
1.48566e-05
1.48095e-05
1.47584e-05
1.47042e-05
1.4648e-05
1.45913e-05
1.45357e-05
1.44832e-05
1.44348e-05
1.43905e-05
1.43496e-05
1.4311e-05
1.42746e-05
1.42403e-05
1.42085e-05
1.41797e-05
1.41543e-05
1.41326e-05
1.41147e-05
1.41004e-05
1.4089e-05
1.40799e-05
1.40724e-05
1.40664e-05
1.40616e-05
1.40579e-05
1.40552e-05
1.40531e-05
1.40516e-05
1.40505e-05
1.40496e-05
1.40491e-05
1.40487e-05
1.40484e-05
1.40482e-05
1.4048e-05
1.4048e-05
1.40479e-05
1.40479e-05
1.40478e-05
1.40478e-05
1.40478e-05
1.40478e-05
1.40478e-05
1.40478e-05
1.40478e-05
1.40478e-05
1.40478e-05
1.40478e-05
1.40478e-05
1.40478e-05
1.40478e-05
1.40478e-05
1.40478e-05
1.40478e-05
1.40478e-05
1.40478e-05
1.40478e-05
1.40553e-05
1.40567e-05
1.40584e-05
1.40604e-05
1.40627e-05
1.40654e-05
1.40686e-05
1.40723e-05
1.40767e-05
1.40818e-05
1.40878e-05
1.40948e-05
1.4103e-05
1.41126e-05
1.41236e-05
1.41364e-05
1.4151e-05
1.41678e-05
1.41872e-05
1.42096e-05
1.42355e-05
1.42656e-05
1.43004e-05
1.43402e-05
1.43855e-05
1.44365e-05
1.44935e-05
1.45566e-05
1.46264e-05
1.47039e-05
1.47909e-05
1.48888e-05
1.4999e-05
1.51223e-05
1.52589e-05
1.54084e-05
1.557e-05
1.57422e-05
1.59232e-05
1.61105e-05
1.63022e-05
1.6496e-05
1.66906e-05
1.68861e-05
1.70858e-05
1.72922e-05
1.75059e-05
1.77254e-05
1.79473e-05
1.81672e-05
1.83803e-05
1.85814e-05
1.87658e-05
1.89296e-05
1.90692e-05
1.91818e-05
1.92664e-05
1.93182e-05
1.93257e-05
1.93065e-05
1.92563e-05
1.91751e-05
1.90635e-05
1.89222e-05
1.87524e-05
1.85556e-05
1.83333e-05
1.80873e-05
1.78208e-05
1.75383e-05
1.72456e-05
1.69508e-05
1.66647e-05
1.63974e-05
1.61511e-05
1.59205e-05
1.57001e-05
1.54873e-05
1.52829e-05
1.50895e-05
1.49106e-05
1.47497e-05
1.46101e-05
1.4494e-05
1.44005e-05
1.43257e-05
1.42653e-05
1.42157e-05
1.41751e-05
1.41425e-05
1.41172e-05
1.40983e-05
1.40842e-05
1.40739e-05
1.40662e-05
1.40606e-05
1.40566e-05
1.40538e-05
1.40518e-05
1.40505e-05
1.40495e-05
1.40489e-05
1.40485e-05
1.40483e-05
1.40481e-05
1.4048e-05
1.40479e-05
1.40479e-05
1.40478e-05
1.40478e-05
1.40478e-05
1.40478e-05
1.40478e-05
1.40478e-05
1.40478e-05
1.40478e-05
1.40478e-05
1.40478e-05
1.40478e-05
1.40478e-05
1.40478e-05
1.40478e-05
1.40478e-05
1.40984e-05
1.41079e-05
1.41191e-05
1.41323e-05
1.41477e-05
1.41657e-05
1.41867e-05
1.42112e-05
1.42399e-05
1.42735e-05
1.43128e-05
1.43589e-05
1.44125e-05
1.44745e-05
1.45457e-05
1.46268e-05
1.47191e-05
1.48241e-05
1.49443e-05
1.50823e-05
1.52408e-05
1.54218e-05
1.5627e-05
1.58572e-05
1.61127e-05
1.6393e-05
1.6697e-05
1.70237e-05
1.73749e-05
1.77568e-05
1.81762e-05
1.86372e-05
1.91403e-05
1.96827e-05
2.02597e-05
2.08645e-05
2.14891e-05
2.21246e-05
2.27619e-05
2.33928e-05
2.40108e-05
2.46112e-05
2.51926e-05
2.57618e-05
2.6339e-05
2.69293e-05
2.75263e-05
2.81196e-05
2.86981e-05
2.9251e-05
2.97677e-05
3.02388e-05
3.06567e-05
3.10164e-05
3.13131e-05
3.15448e-05
3.1713e-05
3.18057e-05
3.18059e-05
3.17491e-05
3.16259e-05
3.14382e-05
3.11845e-05
3.08627e-05
3.04734e-05
3.00163e-05
2.94886e-05
2.88888e-05
2.82189e-05
2.74833e-05
2.66894e-05
2.58521e-05
2.49996e-05
2.41716e-05
2.33823e-05
2.2613e-05
2.18415e-05
2.10576e-05
2.02632e-05
1.94686e-05
1.86892e-05
1.79449e-05
1.72608e-05
1.66635e-05
1.61643e-05
1.57519e-05
1.5407e-05
1.51141e-05
1.48664e-05
1.46626e-05
1.45023e-05
1.43807e-05
1.429e-05
1.42222e-05
1.41715e-05
1.41341e-05
1.41073e-05
1.40884e-05
1.40752e-05
1.4066e-05
1.40598e-05
1.40556e-05
1.40528e-05
1.4051e-05
1.40498e-05
1.4049e-05
1.40486e-05
1.40483e-05
1.40481e-05
1.4048e-05
1.40479e-05
1.40478e-05
1.40478e-05
1.40478e-05
1.40478e-05
1.40478e-05
1.40478e-05
1.40478e-05
1.40478e-05
1.40478e-05
1.40478e-05
1.40478e-05
1.40478e-05
1.43753e-05
1.44357e-05
1.45066e-05
1.45892e-05
1.4685e-05
1.47955e-05
1.49228e-05
1.50698e-05
1.52398e-05
1.54365e-05
1.56632e-05
1.59226e-05
1.62169e-05
1.65474e-05
1.69148e-05
1.73196e-05
1.77636e-05
1.82529e-05
1.87956e-05
1.93978e-05
2.00616e-05
2.07858e-05
2.15664e-05
2.23968e-05
2.32686e-05
2.4172e-05
2.5097e-05
2.60376e-05
2.70001e-05
2.80094e-05
2.90751e-05
3.01903e-05
3.1341e-05
3.25108e-05
3.36839e-05
3.48449e-05
3.59797e-05
3.70745e-05
3.81183e-05
3.91043e-05
4.00301e-05
4.0896e-05
4.1707e-05
4.2482e-05
4.33111e-05
4.41724e-05
4.5027e-05
4.58482e-05
4.66184e-05
4.73252e-05
4.79588e-05
4.85114e-05
4.89774e-05
4.93618e-05
4.96633e-05
4.98827e-05
5.00336e-05
5.00897e-05
5.00623e-05
4.99696e-05
4.98004e-05
4.95694e-05
4.92699e-05
4.88924e-05
4.84377e-05
4.79016e-05
4.72712e-05
4.65349e-05
4.56882e-05
4.47268e-05
4.36485e-05
4.24539e-05
4.11603e-05
3.98683e-05
3.86442e-05
3.74184e-05
3.61278e-05
3.47392e-05
3.32427e-05
3.16421e-05
2.99493e-05
2.81923e-05
2.6428e-05
2.47498e-05
2.3234e-05
2.18747e-05
2.06319e-05
1.94768e-05
1.84098e-05
1.74591e-05
1.66605e-05
1.60228e-05
1.55239e-05
1.51338e-05
1.48305e-05
1.46008e-05
1.44328e-05
1.43128e-05
1.42281e-05
1.41686e-05
1.41276e-05
1.40998e-05
1.40814e-05
1.40692e-05
1.40613e-05
1.40562e-05
1.4053e-05
1.40509e-05
1.40497e-05
1.40489e-05
1.40485e-05
1.40482e-05
1.4048e-05
1.40479e-05
1.40479e-05
1.40478e-05
1.40478e-05
1.40478e-05
1.40478e-05
1.40478e-05
1.40478e-05
1.40478e-05
1.40478e-05
1.40478e-05
1.40478e-05
1.59741e-05
1.62967e-05
1.66638e-05
1.70773e-05
1.75389e-05
1.80503e-05
1.86161e-05
1.92439e-05
1.99408e-05
2.0711e-05
2.15543e-05
2.24674e-05
2.34443e-05
2.44769e-05
2.55556e-05
2.6672e-05
2.78269e-05
2.90371e-05
3.0315e-05
3.16554e-05
3.30436e-05
3.44622e-05
3.58942e-05
3.73233e-05
3.87343e-05
4.01128e-05
4.14466e-05
4.27327e-05
4.39889e-05
4.53226e-05
4.67204e-05
4.81351e-05
4.95274e-05
5.08675e-05
5.21344e-05
5.33139e-05
5.43967e-05
5.53758e-05
5.62503e-05
5.70259e-05
5.77111e-05
5.83157e-05
5.88476e-05
5.93145e-05
5.97141e-05
6.00504e-05
6.03293e-05
6.05567e-05
6.07379e-05
6.08776e-05
6.09775e-05
6.10404e-05
6.10496e-05
6.1034e-05
6.09928e-05
6.09219e-05
6.08307e-05
6.07107e-05
6.05681e-05
6.04211e-05
6.02666e-05
6.00749e-05
5.9864e-05
5.96355e-05
5.9394e-05
5.91235e-05
5.88217e-05
5.84882e-05
5.81224e-05
5.77174e-05
5.7273e-05
5.6784e-05
5.62346e-05
5.55984e-05
5.4855e-05
5.3992e-05
5.29836e-05
5.18066e-05
5.04397e-05
4.88601e-05
4.70384e-05
4.49564e-05
4.26428e-05
4.02298e-05
3.7964e-05
3.57955e-05
3.36232e-05
3.13793e-05
2.90589e-05
2.67384e-05
2.45652e-05
2.26381e-05
2.09516e-05
1.94693e-05
1.81812e-05
1.71093e-05
1.62665e-05
1.56281e-05
1.51521e-05
1.48027e-05
1.45536e-05
1.43816e-05
1.42653e-05
1.41876e-05
1.41364e-05
1.41032e-05
1.40821e-05
1.40687e-05
1.40604e-05
1.40553e-05
1.40523e-05
1.40504e-05
1.40493e-05
1.40487e-05
1.40483e-05
1.40481e-05
1.40479e-05
1.40479e-05
1.40478e-05
1.40478e-05
1.40478e-05
1.40478e-05
1.40478e-05
1.40478e-05
1.40478e-05
2.24969e-05
2.35397e-05
2.46533e-05
2.58293e-05
2.70582e-05
2.83351e-05
2.96662e-05
3.10651e-05
3.25306e-05
3.40498e-05
3.56051e-05
3.71786e-05
3.87536e-05
4.03149e-05
4.18489e-05
4.33464e-05
4.48126e-05
4.63209e-05
4.78969e-05
4.94991e-05
5.10847e-05
5.26201e-05
5.40811e-05
5.545e-05
5.67154e-05
5.78691e-05
5.8907e-05
5.98326e-05
6.06527e-05
6.13657e-05
6.19855e-05
6.25256e-05
6.29955e-05
6.34019e-05
6.37487e-05
6.40372e-05
6.42687e-05
6.44437e-05
6.45706e-05
6.46646e-05
6.47346e-05
6.47918e-05
6.48369e-05
6.48647e-05
6.48844e-05
6.4887e-05
6.4879e-05
6.48597e-05
6.4828e-05
6.47831e-05
6.47262e-05
6.46571e-05
6.45695e-05
6.44676e-05
6.43512e-05
6.42173e-05
6.407e-05
6.39247e-05
6.37559e-05
6.35808e-05
6.34139e-05
6.32427e-05
6.3068e-05
6.28974e-05