/*--------------------------------*- C++ -*----------------------------------*\
| =========                 |                                                 |
| \\      /  F ield         | OpenFOAM: The Open Source CFD Toolbox           |
|  \\    /   O peration     | Version:  v1706                                 |
|   \\  /    A nd           | Web:      www.OpenFOAM.com                      |
|    \\/     M anipulation  |                                                 |
\*---------------------------------------------------------------------------*/
FoamFile
{
    version     2.0;
    format      ascii;
    class       volScalarField;
    location    "1.1e-05";
    object      kappatr;
}
// * * * * * * * * * * * * * * * * * * * * * * * * * * * * * * * * * * * * * //

dimensions      [1 1 -3 -1 0 0 0];


internalField   nonuniform List<scalar> 
29871
(
0.014593
0.014593
0.014593
0.014593
0.014593
0.014593
0.014593
0.014593
0.014593
0.014593
0.014593
0.014593
0.014593
0.014593
0.014593
0.014593
0.014593
0.014593
0.014593
0.014593
0.014593
0.014593
0.014593
0.014593
0.014593
0.014593
0.014593
0.014593
0.014593
0.014593
0.014593
0.014593
0.014593
0.014593
0.014593
0.014593
0.014593
0.014593
0.014593
0.014593
0.014593
0.014593
0.014593
0.014593
0.014593
0.014593
0.014593
0.014593
0.014593
0.014593
0.014593
0.014593
0.014593
0.014593
0.014593
0.014593
0.014593
0.014593
0.014593
0.014593
0.014593
0.014593
0.014593
0.014593
0.014593
0.014593
0.014593
0.014593
0.014593
0.014593
0.014593
0.014593
0.014593
0.014593
0.014593
0.014593
0.014593
0.014593
0.014593
0.014593
0.014593
0.014593
0.014593
0.014593
0.014593
0.014593
0.014593
0.014593
0.014593
0.014593
0.014593
0.014593
0.014593
0.014593
0.014593
0.014593
0.014593
0.014593
0.014593
0.014593
0.014593
0.014593
0.014593
0.014593
0.014593
0.014593
0.014593
0.014593
0.014593
0.014593
0.014593
0.014593
0.014593
0.014593
0.014593
0.014593
0.014593
0.014593
0.014593
0.014593
0.014593
0.014593
0.014593
0.014593
0.014593
0.014593
0.014593
0.014593
0.014593
0.014593
0.014593
0.014593
0.014593
0.014593
0.014593
0.014593
0.014593
0.014593
0.014593
0.014593
0.014593
0.014593
0.014593
0.014593
0.014593
0.014593
0.014593
0.014593
0.014593
0.014593
0.014593
0.014593
0.014593
0.014593
0.014593
0.014593
0.014593
0.014593
0.014593
0.014593
0.014593
0.014593
0.014593
0.014593
0.014593
0.014593
0.014593
0.014593
0.014593
0.014593
0.014593
0.014593
0.014593
0.014593
0.014593
0.014593
0.014593
0.014593
0.014593
0.014593
0.014593
0.014593
0.014593
0.014593
0.014593
0.014593
0.014593
0.014593
0.014593
0.014593
0.014593
0.014593
0.014593
0.014593
0.014593
0.014593
0.014593
0.014593
0.014593
0.014593
0.014593
0.014593
0.014593
0.014593
0.014593
0.014593
0.014593
0.014593
0.014593
0.014593
0.014593
0.014593
0.014593
0.014593
0.014593
0.014593
0.014593
0.014593
0.014593
0.014593
0.014593
0.014593
0.014593
0.014593
0.014593
0.014593
0.014593
0.014593
0.014593
0.014593
0.014593
0.014593
0.014593
0.014593
0.014593
0.014593
0.014593
0.014593
0.014593
0.014593
0.014593
0.014593
0.014593
0.014593
0.014593
0.014593
0.014593
0.014593
0.014593
0.014593
0.014593
0.014593
0.014593
0.014593
0.014593
0.014593
0.014593
0.014593
0.014593
0.014593
0.014593
0.014593
0.014593
0.014593
0.014593
0.014593
0.014593
0.014593
0.014593
0.014593
0.014593
0.014593
0.014593
0.014593
0.014593
0.014593
0.014593
0.014593
0.014593
0.014593
0.014593
0.014593
0.014593
0.014593
0.014593
0.014593
0.014593
0.014593
0.014593
0.014593
0.014593
0.014593
0.014593
0.014593
0.014593
0.014593
0.014593
0.014593
0.014593
0.014593
0.014593
0.014593
0.014593
0.014593
0.014593
0.014593
0.014593
0.014593
0.014593
0.014593
0.014593
0.014593
0.014593
0.014593
0.014593
0.014593
0.014593
0.014593
0.014593
0.014593
0.014593
0.014593
0.014593
0.014593
0.014593
0.014593
0.014593
0.014593
0.014593
0.014593
0.014593
0.014593
0.014593
0.014593
0.014593
0.014593
0.014593
0.014593
0.014593
0.014593
0.014593
0.014593
0.014593
0.014593
0.014593
0.014593
0.014593
0.014593
0.014593
0.014593
0.014593
0.014593
0.014593
0.014593
0.014593
0.014593
0.014593
0.014593
0.014593
0.014593
0.014593
0.014593
0.014593
0.014593
0.014593
0.014593
0.014593
0.014593
0.014593
0.014593
0.014593
0.014593
0.014593
0.014593
0.014593
0.014593
0.014593
0.014593
0.014593
0.014593
0.014593
0.014593
0.014593
0.014593
0.014593
0.014593
0.014593
0.014593
0.014593
0.014593
0.014593
0.014593
0.014593
0.014593
0.014593
0.014593
0.014593
0.014593
0.014593
0.014593
0.014593
0.014593
0.014593
0.014593
0.014593
0.014593
0.014593
0.014593
0.014593
0.014593
0.014593
0.014593
0.014593
0.014593
0.014593
0.014593
0.014593
0.014593
0.014593
0.014593
0.014593
0.014593
0.014593
0.014593
0.014593
0.014593
0.014593
0.014593
0.014593
0.014593
0.014593
0.014593
0.014593
0.014593
0.014593
0.014593
0.014593
0.014593
0.014593
0.014593
0.014593
0.014593
0.014593
0.014593
0.014593
0.014593
0.014593
0.014593
0.014593
0.014593
0.014593
0.014593
0.014593
0.014593
0.014593
0.014593
0.014593
0.014593
0.014593
0.014593
0.014593
0.014593
0.014593
0.014593
0.014593
0.014593
0.014593
0.014593
0.014593
0.014593
0.014593
0.014593
0.014593
0.014593
0.014593
0.014593
0.014593
0.014593
0.014593
0.014593
0.014593
0.014593
0.014593
0.014593
0.014593
0.014593
0.014593
0.014593
0.014593
0.014593
0.014593
0.014593
0.014593
0.014593
0.014593
0.014593
0.014593
0.014593
0.014593
0.014593
0.014593
0.014593
0.014593
0.014593
0.014593
0.014593
0.014593
0.014593
0.014593
0.014593
0.014593
0.014593
0.014593
0.014593
0.014593
0.014593
0.014593
0.014593
0.014593
0.014593
0.014593
0.014593
0.014593
0.014593
0.014593
0.014593
0.014593
0.014593
0.014593
0.014593
0.014593
0.014593
0.014593
0.014593
0.014593
0.014593
0.014593
0.014593
0.014593
0.014593
0.014593
0.014593
0.014593
0.014593
0.014593
0.014593
0.014593
0.014593
0.014593
0.014593
0.014593
0.014593
0.014593
0.014593
0.014593
0.014593
0.014593
0.014593
0.014593
0.014593
0.014593
0.014593
0.014593
0.014593
0.014593
0.014593
0.014593
0.014593
0.014593
0.014593
0.014593
0.014593
0.014593
0.014593
0.014593
0.014593
0.014593
0.014593
0.014593
0.014593
0.014593
0.014593
0.014593
0.014593
0.014593
0.014593
0.014593
0.014593
0.014593
0.014593
0.014593
0.014593
0.014593
0.014593
0.014593
0.014593
0.014593
0.014593
0.014593
0.014593
0.014593
0.014593
0.014593
0.014593
0.014593
0.014593
0.014593
0.014593
0.014593
0.014593
0.014593
0.014593
0.014593
0.014593
0.014593
0.014593
0.014593
0.014593
0.014593
0.014593
0.014593
0.014593
0.014593
0.014593
0.014593
0.014593
0.014593
0.014593
0.014593
0.014593
0.014593
0.014593
0.014593
0.014593
0.014593
0.014593
0.014593
0.014593
0.014593
0.014593
0.014593
0.014593
0.014593
0.014593
0.014593
0.014593
0.014593
0.014593
0.014593
0.014593
0.014593
0.014593
0.014593
0.014593
0.014593
0.014593
0.014593
0.014593
0.014593
0.014593
0.014593
0.014593
0.014593
0.014593
0.014593
0.014593
0.014593
0.014593
0.014593
0.014593
0.014593
0.014593
0.014593
0.014593
0.014593
0.014593
0.014593
0.014593
0.014593
0.014593
0.014593
0.014593
0.014593
0.014593
0.014593
0.014593
0.014593
0.014593
0.014593
0.014593
0.014593
0.014593
0.014593
0.014593
0.014593
0.014593
0.014593
0.014593
0.014593
0.014593
0.014593
0.014593
0.014593
0.014593
0.014593
0.014593
0.014593
0.014593
0.014593
0.014593
0.014593
0.014593
0.014593
0.014593
0.014593
0.014593
0.014593
0.014593
0.014593
0.014593
0.014593
0.014593
0.014593
0.014593
0.014593
0.014593
0.014593
0.014593
0.014593
0.014593
0.014593
0.014593
0.014593
0.014593
0.014593
0.014593
0.014593
0.014593
0.014593
0.014593
0.014593
0.014593
0.014593
0.014593
0.014593
0.014593
0.014593
0.014593
0.014593
0.014593
0.014593
0.014593
0.014593
0.014593
0.014593
0.014593
0.014593
0.014593
0.014593
0.014593
0.014593
0.014593
0.014593
0.014593
0.014593
0.014593
0.014593
0.014593
0.014593
0.014593
0.014593
0.014593
0.014593
0.014593
0.014593
0.014593
0.014593
0.014593
0.014593
0.014593
0.014593
0.014593
0.014593
0.014593
0.014593
0.014593
0.014593
0.014593
0.014593
0.014593
0.014593
0.014593
0.014593
0.014593
0.014593
0.014593
0.014593
0.014593
0.014593
0.014593
0.014593
0.014593
0.014593
0.014593
0.014593
0.014593
0.014593
0.014593
0.014593
0.014593
0.014593
0.014593
0.014593
0.014593
0.014593
0.014593
0.014593
0.014593
0.014593
0.014593
0.014593
0.014593
0.014593
0.014593
0.014593
0.014593
0.014593
0.014593
0.014593
0.014593
0.014593
0.014593
0.014593
0.014593
0.014593
0.014593
0.014593
0.014593
0.014593
0.014593
0.014593
0.014593
0.014593
0.014593
0.014593
0.014593
0.014593
0.014593
0.014593
0.014593
0.014593
0.014593
0.014593
0.014593
0.014593
0.014593
0.014593
0.014593
0.014593
0.014593
0.014593
0.014593
0.014593
0.014593
0.014593
0.014593
0.014593
0.014593
0.014593
0.014593
0.014593
0.014593
0.014593
0.014593
0.014593
0.014593
0.014593
0.014593
0.014593
0.014593
0.014593
0.014593
0.014593
0.014593
0.014593
0.014593
0.014593
0.014593
0.014593
0.014593
0.014593
0.014593
0.014593
0.014593
0.014593
0.014593
0.014593
0.014593
0.014593
0.014593
0.014593
0.014593
0.014593
0.014593
0.014593
0.014593
0.014593
0.014593
0.014593
0.014593
0.014593
0.014593
0.014593
0.014593
0.014593
0.014593
0.014593
0.014593
0.014593
0.014593
0.014593
0.014593
0.014593
0.014593
0.014593
0.014593
0.014593
0.014593
0.014593
0.014593
0.014593
0.014593
0.014593
0.014593
0.014593
0.014593
0.014593
0.014593
0.014593
0.014593
0.014593
0.014593
0.014593
0.014593
0.014593
0.014593
0.014593
0.014593
0.014593
0.014593
0.014593
0.014593
0.014593
0.014593
0.014593
0.014593
0.014593
0.014593
0.014593
0.014593
0.014593
0.014593
0.014593
0.014593
0.014593
0.014593
0.014593
0.014593
0.014593
0.014593
0.014593
0.014593
0.014593
0.014593
0.014593
0.014593
0.014593
0.014593
0.014593
0.014593
0.014593
0.014593
0.014593
0.014593
0.014593
0.014593
0.014593
0.014593
0.014593
0.014593
0.014593
0.014593
0.014593
0.014593
0.014593
0.014593
0.014593
0.014593
0.014593
0.014593
0.014593
0.014593
0.014593
0.014593
0.014593
0.014593
0.014593
0.014593
0.014593
0.014593
0.014593
0.014593
0.014593
0.014593
0.014593
0.014593
0.014593
0.014593
0.014593
0.014593
0.014593
0.014593
0.014593
0.014593
0.014593
0.014593
0.014593
0.014593
0.014593
0.014593
0.014593
0.014593
0.014593
0.014593
0.014593
0.014593
0.014593
0.014593
0.014593
0.014593
0.014593
0.014593
0.014593
0.014593
0.014593
0.014593
0.014593
0.014593
0.014593
0.014593
0.014593
0.014593
0.014593
0.014593
0.014593
0.014593
0.014593
0.014593
0.014593
0.014593
0.014593
0.014593
0.014593
0.014593
0.014593
0.014593
0.014593
0.014593
0.014593
0.014593
0.014593
0.014593
0.014593
0.014593
0.014593
0.014593
0.014593
0.014593
0.014593
0.014593
0.014593
0.014593
0.014593
0.014593
0.014593
0.014593
0.014593
0.014593
0.014593
0.014593
0.014593
0.014593
0.014593
0.014593
0.014593
0.014593
0.014593
0.014593
0.014593
0.014593
0.014593
0.014593
0.014593
0.014593
0.014593
0.014593
0.014593
0.014593
0.014593
0.014593
0.014593
0.014593
0.014593
0.014593
0.014593
0.014593
0.014593
0.014593
0.014593
0.014593
0.014593
0.014593
0.014593
0.014593
0.014593
0.014593
0.014593
0.014593
0.014593
0.014593
0.014593
0.014593
0.014593
0.014593
0.014593
0.014593
0.014593
0.014593
0.014593
0.014593
0.014593
0.014593
0.014593
0.014593
0.014593
0.014593
0.014593
0.014593
0.014593
0.014593
0.014593
0.014593
0.014593
0.014593
0.014593
0.014593
0.014593
0.014593
0.014593
0.014593
0.014593
0.014593
0.014593
0.014593
0.014593
0.014593
0.014593
0.014593
0.014593
0.014593
0.014593
0.014593
0.014593
0.014593
0.014593
0.014593
0.014593
0.014593
0.014593
0.014593
0.014593
0.014593
0.014593
0.014593
0.014593
0.014593
0.014593
0.014593
0.014593
0.014593
0.014593
0.014593
0.014593
0.014593
0.014593
0.014593
0.014593
0.014593
0.014593
0.014593
0.014593
0.014593
0.014593
0.014593
0.014593
0.014593
0.014593
0.014593
0.014593
0.014593
0.014593
0.014593
0.014593
0.014593
0.014593
0.014593
0.014593
0.014593
0.014593
0.014593
0.014593
0.014593
0.014593
0.014593
0.014593
0.014593
0.014593
0.014593
0.014593
0.014593
0.0145931
0.0145931
0.0145931
0.0145931
0.0145931
0.0145931
0.0145931
0.0145931
0.0145931
0.0145931
0.0145931
0.014593
0.014593
0.014593
0.014593
0.014593
0.014593
0.014593
0.014593
0.014593
0.014593
0.014593
0.014593
0.014593
0.014593
0.014593
0.014593
0.014593
0.014593
0.014593
0.014593
0.014593
0.014593
0.014593
0.014593
0.014593
0.014593
0.014593
0.014593
0.014593
0.014593
0.014593
0.014593
0.014593
0.014593
0.014593
0.014593
0.014593
0.014593
0.014593
0.014593
0.014593
0.014593
0.014593
0.014593
0.014593
0.014593
0.014593
0.014593
0.014593
0.014593
0.014593
0.014593
0.014593
0.014593
0.014593
0.014593
0.014593
0.014593
0.014593
0.014593
0.014593
0.014593
0.014593
0.014593
0.014593
0.014593
0.014593
0.014593
0.014593
0.014593
0.014593
0.014593
0.014593
0.014593
0.014593
0.014593
0.014593
0.014593
0.0145931
0.0145931
0.0145931
0.0145931
0.0145931
0.0145931
0.0145931
0.0145931
0.0145931
0.0145931
0.0145932
0.0145932
0.0145932
0.0145932
0.0145932
0.0145932
0.0145933
0.0145933
0.0145933
0.0145933
0.0145933
0.0145933
0.0145934
0.0145934
0.0145934
0.0145934
0.0145934
0.0145934
0.0145934
0.0145934
0.0145934
0.0145934
0.0145934
0.0145933
0.0145933
0.0145933
0.0145933
0.0145933
0.0145932
0.0145932
0.0145932
0.0145932
0.0145932
0.0145931
0.0145931
0.0145931
0.0145931
0.0145931
0.0145931
0.0145931
0.014593
0.014593
0.014593
0.014593
0.014593
0.014593
0.014593
0.014593
0.014593
0.014593
0.014593
0.014593
0.014593
0.014593
0.014593
0.014593
0.014593
0.014593
0.014593
0.014593
0.014593
0.014593
0.014593
0.014593
0.014593
0.014593
0.014593
0.014593
0.014593
0.014593
0.014593
0.014593
0.014593
0.014593
0.014593
0.014593
0.014593
0.014593
0.014593
0.014593
0.014593
0.014593
0.014593
0.014593
0.014593
0.014593
0.014593
0.014593
0.014593
0.0145931
0.0145931
0.0145931
0.0145931
0.0145931
0.0145931
0.0145931
0.0145931
0.0145932
0.0145932
0.0145932
0.0145933
0.0145933
0.0145933
0.0145934
0.0145934
0.0145935
0.0145935
0.0145936
0.0145937
0.0145938
0.0145939
0.014594
0.0145941
0.0145942
0.0145943
0.0145944
0.0145945
0.0145946
0.0145948
0.0145949
0.014595
0.0145951
0.0145953
0.0145954
0.0145955
0.0145956
0.0145957
0.0145958
0.0145958
0.0145959
0.0145959
0.0145959
0.0145959
0.0145958
0.0145957
0.0145956
0.0145955
0.0145954
0.0145952
0.0145951
0.0145949
0.0145948
0.0145946
0.0145944
0.0145943
0.0145941
0.014594
0.0145939
0.0145938
0.0145937
0.0145936
0.0145935
0.0145934
0.0145933
0.0145932
0.0145932
0.0145932
0.0145931
0.0145931
0.0145931
0.0145931
0.014593
0.014593
0.014593
0.014593
0.014593
0.014593
0.014593
0.014593
0.014593
0.014593
0.014593
0.014593
0.014593
0.014593
0.014593
0.014593
0.014593
0.014593
0.014593
0.014593
0.014593
0.014593
0.014593
0.014593
0.014593
0.014593
0.014593
0.014593
0.014593
0.014593
0.014593
0.014593
0.014593
0.0145931
0.0145931
0.0145931
0.0145931
0.0145931
0.0145932
0.0145932
0.0145932
0.0145933
0.0145933
0.0145934
0.0145934
0.0145935
0.0145936
0.0145937
0.0145938
0.0145939
0.014594
0.0145942
0.0145944
0.0145946
0.0145948
0.0145951
0.0145953
0.0145957
0.014596
0.0145964
0.0145969
0.0145974
0.0145979
0.0145986
0.0145992
0.0145999
0.0146007
0.0146015
0.0146023
0.0146032
0.014604
0.0146049
0.0146058
0.0146067
0.0146076
0.0146086
0.0146095
0.0146104
0.0146113
0.014612
0.0146127
0.0146133
0.0146138
0.0146141
0.0146142
0.0146141
0.0146139
0.0146135
0.0146129
0.0146123
0.0146114
0.0146105
0.0146094
0.0146083
0.0146071
0.0146058
0.0146046
0.0146034
0.0146023
0.0146013
0.0146003
0.0145994
0.0145986
0.0145978
0.0145971
0.0145964
0.0145958
0.0145952
0.0145948
0.0145944
0.0145941
0.0145939
0.0145937
0.0145935
0.0145934
0.0145933
0.0145932
0.0145932
0.0145931
0.0145931
0.0145931
0.014593
0.014593
0.014593
0.014593
0.014593
0.014593
0.014593
0.014593
0.014593
0.014593
0.014593
0.014593
0.014593
0.014593
0.014593
0.014593
0.014593
0.014593
0.014593
0.014593
0.014593
0.014593
0.014593
0.014593
0.014593
0.014593
0.014593
0.0145935
0.0145936
0.0145937
0.0145939
0.014594
0.0145942
0.0145944
0.0145946
0.0145949
0.0145952
0.0145956
0.014596
0.0145965
0.0145971
0.0145978
0.0145985
0.0145994
0.0146004
0.0146015
0.0146028
0.0146043
0.0146059
0.0146077
0.0146097
0.014612
0.0146146
0.0146175
0.0146208
0.0146244
0.0146284
0.0146328
0.0146376
0.0146427
0.014648
0.0146536
0.0146593
0.0146652
0.0146713
0.0146774
0.0146838
0.0146904
0.0146971
0.0147039
0.0147106
0.0147172
0.0147234
0.014729
0.014734
0.0147382
0.0147414
0.0147435
0.0147442
0.0147437
0.0147421
0.0147393
0.0147354
0.0147304
0.0147245
0.0147177
0.0147102
0.0147021
0.0146935
0.0146847
0.0146759
0.0146674
0.0146593
0.0146519
0.014645
0.0146387
0.0146327
0.0146271
0.0146219
0.014617
0.0146127
0.0146089
0.0146057
0.014603
0.0146008
0.0145991
0.0145978
0.0145967
0.0145958
0.0145951
0.0145945
0.0145941
0.0145938
0.0145936
0.0145934
0.0145933
0.0145932
0.0145931
0.0145931
0.0145931
0.014593
0.014593
0.014593
0.014593
0.014593
0.014593
0.014593
0.014593
0.014593
0.014593
0.014593
0.014593
0.014593
0.014593
0.014593
0.014593
0.014593
0.014593
0.014593
0.014593
0.014593
0.014593
0.014593
0.0145941
0.0145944
0.0145946
0.0145949
0.0145953
0.0145957
0.0145962
0.0145967
0.0145974
0.0145982
0.0145991
0.0146001
0.0146014
0.0146028
0.0146045
0.0146065
0.0146087
0.0146113
0.0146143
0.0146177
0.0146217
0.0146263
0.0146316
0.0146378
0.0146448
0.0146528
0.0146618
0.0146718
0.014683
0.0146955
0.0147096
0.0147255
0.0147434
0.0147637
0.0147864
0.0148117
0.0148396
0.0148698
0.0149023
0.0149367
0.0149726
0.0150097
0.0150477
0.0150864
0.0151261
0.0151671
0.0152097
0.0152537
0.0152989
0.0153445
0.0153895
0.0154329
0.0154737
0.0155106
0.0155428
0.0155693
0.0155896
0.0156025
0.0156056
0.015602
0.0155911
0.0155728
0.0155475
0.0155154
0.0154771
0.0154332
0.0153843
0.0153312
0.0152749
0.0152165
0.0151576
0.0150999
0.0150453
0.014995
0.014949
0.0149065
0.0148665
0.0148286
0.014793
0.0147599
0.01473
0.0147036
0.0146811
0.0146625
0.0146477
0.0146358
0.0146263
0.0146186
0.0146124
0.0146074
0.0146036
0.0146007
0.0145985
0.0145969
0.0145958
0.0145949
0.0145943
0.0145939
0.0145936
0.0145934
0.0145933
0.0145932
0.0145931
0.0145931
0.014593
0.014593
0.014593
0.014593
0.014593
0.014593
0.014593
0.014593
0.014593
0.014593
0.014593
0.014593
0.014593
0.014593
0.014593
0.014593
0.014593
0.014593
0.014593
0.0146008
0.0146023
0.0146041
0.0146061
0.0146085
0.0146113
0.0146147
0.0146185
0.014623
0.0146283
0.0146345
0.0146418
0.0146504
0.0146603
0.0146718
0.014685
0.0147002
0.0147177
0.0147378
0.0147611
0.014788
0.0148193
0.0148554
0.0148968
0.0149438
0.0149968
0.015056
0.0151216
0.0151941
0.0152746
0.0153649
0.0154667
0.0155812
0.0157092
0.0158511
0.0160064
0.0161743
0.0163532
0.0165412
0.0167358
0.0169349
0.0171362
0.0173383
0.0175415
0.0177489
0.0179633
0.0181853
0.0184133
0.0186438
0.0188723
0.0190936
0.0193025
0.0194942
0.0196643
0.0198093
0.0199263
0.0200141
0.020068
0.0200757
0.0200558
0.0200037
0.0199194
0.0198034
0.0196566
0.0194802
0.0192758
0.0190448
0.0187893
0.0185124
0.018219
0.017915
0.0176087
0.0173115
0.0170338
0.0167779
0.0165384
0.0163095
0.0160884
0.015876
0.0156752
0.0154893
0.0153222
0.0151772
0.0150566
0.0149594
0.0148818
0.014819
0.0147675
0.0147253
0.0146914
0.0146652
0.0146454
0.0146309
0.0146201
0.0146121
0.0146063
0.0146022
0.0145992
0.0145972
0.0145958
0.0145948
0.0145942
0.0145938
0.0145935
0.0145933
0.0145932
0.0145931
0.0145931
0.014593
0.014593
0.014593
0.014593
0.014593
0.014593
0.014593
0.014593
0.014593
0.014593
0.014593
0.014593
0.014593
0.014593
0.014593
0.0146456
0.0146554
0.0146671
0.0146808
0.0146968
0.0147155
0.0147373
0.0147628
0.0147925
0.0148274
0.0148684
0.0149162
0.0149719
0.0150363
0.0151102
0.0151945
0.0152903
0.0153994
0.0155243
0.0156677
0.0158323
0.0160204
0.0162335
0.0164727
0.0167381
0.0170293
0.017345
0.0176844
0.0180492
0.018446
0.0188817
0.0193605
0.0198831
0.0204467
0.021046
0.0216742
0.0223231
0.0229833
0.0236454
0.0243008
0.0249428
0.0255664
0.0261703
0.0267617
0.0273613
0.0279745
0.0285946
0.0292109
0.0298119
0.0303863
0.030923
0.0314125
0.0318466
0.0322202
0.0325284
0.0327691
0.0329438
0.0330401
0.0330404
0.0329813
0.0328534
0.0326584
0.0323948
0.0320605
0.0316561
0.0311812
0.0306331
0.03001
0.0293141
0.02855
0.0277252
0.0268555
0.0259699
0.0251098
0.0242899
0.0234906
0.0226892
0.0218749
0.0210496
0.0202242
0.0194146
0.0186414
0.0179307
0.0173103
0.0167916
0.0163633
0.0160049
0.0157007
0.0154433
0.0152317
0.0150651
0.0149389
0.0148446
0.0147741
0.0147215
0.0146827
0.0146548
0.0146351
0.0146214
0.014612
0.0146055
0.0146011
0.0145982
0.0145963
0.0145951
0.0145943
0.0145938
0.0145935
0.0145933
0.0145932
0.0145931
0.0145931
0.014593
0.014593
0.014593
0.014593
0.014593
0.014593
0.014593
0.014593
0.014593
0.014593
0.014593
0.0149332
0.014996
0.0150696
0.0151554
0.015255
0.0153698
0.015502
0.0156547
0.0158313
0.0160356
0.0162711
0.0165406
0.0168463
0.0171896
0.0175713
0.0179918
0.018453
0.0189613
0.0195251
0.0201506
0.0208402
0.0215926
0.0224035
0.0232661
0.0241717
0.0251101
0.026071
0.0270482
0.028048
0.0290965
0.0302035
0.0313621
0.0325574
0.0337726
0.0349912
0.0361973
0.0373761
0.0385134
0.0395977
0.0406221
0.0415838
0.0424833
0.0433257
0.0441308
0.0449921
0.0458869
0.0467746
0.0476276
0.0484277
0.049162
0.0498202
0.0503942
0.0508783
0.0512777
0.0515908
0.0518187
0.0519755
0.0520337
0.0520054
0.0519091
0.0517332
0.0514932
0.0511821
0.05079
0.0503177
0.0497608
0.0491059
0.048341
0.0474614
0.0464627
0.0453426
0.0441016
0.0427578
0.0414156
0.0401441
0.0388707
0.0375299
0.0360875
0.034533
0.0328702
0.0311117
0.0292865
0.0274537
0.0257103
0.0241357
0.0227237
0.0214326
0.0202327
0.0191243
0.0181367
0.0173071
0.0166447
0.0161264
0.0157212
0.0154061
0.0151675
0.0149929
0.0148683
0.0147803
0.0147185
0.0146759
0.014647
0.0146279
0.0146153
0.014607
0.0146017
0.0145984
0.0145963
0.014595
0.0145942
0.0145937
0.0145934
0.0145932
0.0145931
0.0145931
0.014593
0.014593
0.014593
0.014593
0.014593
0.014593
0.014593
0.014593
0.014593
0.014593
0.0165941
0.0169292
0.0173105
0.0177401
0.0182196
0.0187509
0.0193386
0.0199907
0.0207148
0.0215148
0.0223908
0.0233394
0.0243542
0.0254269
0.0265475
0.0277072
0.0289069
0.0301641
0.0314916
0.032884
0.0343261
0.0357997
0.0372873
0.0387719
0.0402376
0.0416696
0.0430552
0.0443912
0.0456962
0.0470817
0.0485337
0.0500033
0.0514496
0.0528417
0.0541578
0.0553832
0.056508
0.0575251
0.0584335
0.0592392
0.059951
0.060579
0.0611316
0.0616167
0.0620317
0.0623811
0.0626708
0.0629071
0.0630953
0.0632404
0.0633442
0.0634095
0.0634191
0.0634028
0.06336
0.0632865
0.0631917
0.063067
0.0629189
0.0627662
0.0626057
0.0624066
0.0621874
0.0619501
0.0616992
0.0614182
0.0611047
0.0607583
0.0603783
0.0599575
0.0594959
0.0589879
0.0584172
0.0577563
0.056984
0.0560875
0.05504
0.0538173
0.0523973
0.0507564
0.048864
0.0467013
0.0442979
0.0417912
0.0394375
0.0371848
0.0349282
0.0325972
0.0301867
0.0277761
0.0255186
0.0235167
0.0217647
0.0202249
0.0188868
0.0177734
0.0168978
0.0162346
0.0157402
0.0153773
0.0151184
0.0149397
0.0148189
0.0147383
0.0146851
0.0146506
0.0146286
0.0146148
0.0146061
0.0146009
0.0145976
0.0145957
0.0145946
0.0145939
0.0145935
0.0145933
0.0145932
0.0145931
0.0145931
0.014593
0.014593
0.014593
0.014593
0.014593
0.014593
0.0233701
0.0244533
0.0256102
0.0268318
0.0281084
0.0294348
0.0308176
0.0322708
0.0337932
0.0353713
0.036987
0.0386216
0.0402577
0.0418796
0.0434732
0.0450288
0.0465519
0.0481187
0.0497559
0.0514203
0.0530674
0.0546624
0.0561801
0.0576022
0.0589167
0.0601151
0.0611933
0.0621549
0.0630068
0.0637474
0.0643913
0.0649524
0.0654406
0.0658627
0.0662229
0.0665227
0.0667632
0.066945
0.0670767
0.0671744
0.0672472
0.0673066
0.0673535
0.0673823
0.0674027
0.0674055
0.0673972
0.0673771
0.0673442
0.0672975
0.0672385
0.0671666
0.0670757
0.0669698
0.0668489
0.0667098
0.0665568
0.0664059
0.0662305
0.0660486
0.0658753
0.0656973
0.0655159
0.0653386
0.065134
0.0648957
0.0646684
0.0644561
0.0642238
0.0639661
0.0637044
0.0634291
0.0631321
0.0628023
0.0624458
0.0620594
0.0616236
0.0611328
0.0605805
0.0599687
0.0592824
0.0584979
0.0576225
0.0566054
0.0553748
0.0538819
0.052073
0.0498832
0.0472586
0.0442413
0.0411043
0.0381154
0.0352174
0.0323175
0.0294159
0.0266454
0.0241731
0.0220416
0.0202221
0.0187029
0.0174981
0.0165954
0.0159434
0.0154836
0.0151681
0.014958
0.0148213
0.0147337
0.0146786
0.0146444
0.0146235
0.0146109
0.0146034
0.014599
0.0145964
0.0145949
0.0145941
0.0145936
0.0145933
0.0145932
0.0145931
0.0145931
0.014593
0.014593
0.014593
0.0366762
0.038405
0.0401487
0.0418896
0.0436124
0.0453046
0.046963
0.048615
0.0503293
0.0520775
0.0538197
0.0555198
0.0571483
0.0586842
0.0601131
0.061426
0.0626173
0.0636838
0.0646213
0.0654372
0.0661488
0.0667703
0.0673129
0.0677841
0.0681885
0.0685304
0.0688099
0.069024
0.06919
0.069324
0.0694374
0.069534
0.0696164
0.0696881
0.0697498
0.069799
0.0698352
0.0698494
0.0698422
0.0698137
0.0697614
0.0696923
0.0696198
0.0695449
0.0694538
0.0693602
0.0692715
0.0691792
0.0690831
0.0689854
0.0688857
0.0687884
0.0686937
0.0685912
0.0684862
0.0683789
0.0682565
0.0681178
0.0679811
0.0678241
0.0676529
0.0674886
0.0673248
0.0671563
0.0669924
0.0667967
0.0665676
0.066359
0.066161
0.0659513
0.0657099
0.0654658
0.0652208
0.0649505
0.0646495
0.0643499
0.064044
0.0637461
0.0634086
0.0630348
0.0626596
0.0622889
0.0619535
0.0615669
0.0611087
0.0606083
0.0600543
0.0594215
0.0586748
0.0577652
0.0567026
0.0554271
0.0538089
0.0517399
0.0491191
0.0459154
0.0423251
0.0388105
0.0354237
0.0320855
0.0288106
0.0257764
0.0231388
0.0209229
0.0191121
0.0177032
0.016669
0.0159426
0.0154489
0.0151242
0.0149171
0.0147878
0.0147085
0.0146606
0.0146322
0.0146154
0.0146057
0.0146002
0.014597
0.0145952
0.0145942
0.0145937
0.0145934
0.0145932
0.0145931
0.0145931
0.0548735
0.0566262
0.0583075
0.0598951
0.0613737
0.0627349
0.0639723
0.0650789
0.0660485
0.0668951
0.0676336
0.0682779
0.0688395
0.0693276
0.069748
0.0701052
0.0703975
0.0706275
0.0708115
0.0709664
0.0711025
0.0712223
0.0713289
0.0714228
0.071505
0.0715725
0.0716254
0.0716411
0.0716298
0.0716055
0.0715706
0.0715274
0.0714814
0.0714311
0.0713822
0.0713355
0.0712912
0.0712537
0.0712249
0.0711992
0.0711632
0.0711072
0.0710393
0.0709581
0.0708545
0.0707474
0.0706439
0.0705367
0.0704247
0.0703095
0.0701917
0.0700784
0.0699658
0.0698471
0.0697265
0.0696125
0.0694852
0.0693432
0.0692084
0.0690627
0.0688962
0.0687395
0.068589
0.0684303
0.068279
0.0680872
0.0678668
0.0676694
0.0674781
0.0672815
0.0670434
0.0668108
0.0665813
0.0663317
0.0660483
0.065774
0.0654949
0.0652359
0.0649411
0.0646073
0.0642732
0.0639527
0.0636695
0.0633382
0.0629375
0.0625278
0.0621163
0.0616898
0.0612636
0.0608679
0.0604483
0.0599211
0.0592958
0.0585716
0.0576943
0.0566183
0.0553209
0.0536464
0.0514246
0.0484962
0.0448478
0.0408674
0.0369821
0.033222
0.0295793
0.0262085
0.023285
0.0208575
0.0189228
0.0174697
0.0164424
0.0157485
0.0152973
0.0150139
0.0148405
0.0147365
0.0146752
0.0146396
0.0146191
0.0146075
0.014601
0.0145974
0.0145954
0.0145943
0.0145937
0.0145934
0.0145932
0.0145931
0.068603
0.069316
0.0699353
0.0704724
0.0709364
0.0713345
0.0716682
0.0719363
0.072152
0.0723327
0.0724902
0.0726309
0.0727563
0.0728687
0.0729675
0.0730517
0.0731152
0.073147
0.0731455
0.0731383
0.0731252
0.0731062
0.0730835
0.07306
0.0730379
0.0730182
0.0730089
0.0730128
0.0730129
0.0730003
0.0729648
0.0729133
0.0728514
0.0727791
0.0727049
0.0726307
0.0725566
0.0724888
0.0724308
0.0723796
0.072326
0.0722653
0.0722032
0.0721241
0.0720231
0.0719163
0.0718084
0.0716946
0.0715749
0.0714512
0.0713256
0.0712
0.0710724
0.0709415
0.0708142
0.0706919
0.0705585
0.0704138
0.0702811
0.0701375
0.0699746
0.0698272
0.0696854
0.0695311
0.0693829
0.0691831
0.0689699
0.0687769
0.0685815
0.0683869
0.068148
0.06791
0.067671
0.0674238
0.067162
0.0668927
0.0666212
0.0663727
0.0661168
0.0658371
0.0655426
0.0652561
0.0649846
0.0646927
0.0643547
0.0640013
0.0636414
0.0632609
0.0628819
0.0625326
0.0621728
0.0617229
0.0612428
0.060749
0.0602884
0.059859
0.0593405
0.0587045
0.057929
0.0569573
0.0557731
0.054243
0.0521373
0.0492405
0.0454852
0.041233
0.0370135
0.0329326
0.0290314
0.0255049
0.0225118
0.0200909
0.0182413
0.0169207
0.0160301
0.0154558
0.0150997
0.0148856
0.0147595
0.0146866
0.0146451
0.0146218
0.0146088
0.0146016
0.0145976
0.0145955
0.0145943
0.0145937
0.0737722
0.0739319
0.0740742
0.0742005
0.0743127
0.0744111
0.0744912
0.074544
0.0745648
0.0745678
0.0745675
0.0745642
0.0745576
0.0745484
0.0745395
0.0745349
0.0745412
0.0745597
0.0745721
0.0745644
0.0745397
0.0745006
0.0744545
0.0744014
0.0743456
0.0742903
0.0742429
0.0742079
0.0741799
0.0741516
0.0741155
0.0740646
0.0740018
0.0739301
0.0738528
0.0737724
0.0736902
0.0736093
0.0735337
0.0734685
0.0734096
0.0733565
0.0733069
0.0732446
0.0731685
0.0730888
0.0730015
0.0729038
0.0727979
0.0726859
0.0725695
0.0724486
0.0723216
0.07219
0.0720603
0.0719295
0.0717879
0.0716431
0.0715047
0.071356
0.0711914
0.0710434
0.0709022
0.0707517
0.0705948
0.0703855
0.0701811
0.0699894
0.0697915
0.0695859
0.0693577
0.0691152
0.0688714
0.0686204
0.0683625
0.0680971
0.0678285
0.0675683
0.0673076
0.0670338
0.0667474
0.0664582
0.0661681
0.0658657
0.0655414
0.0652013
0.0648553
0.0645044
0.0641626
0.063842
0.063509
0.0631406
0.0627421
0.062318
0.0619153
0.0615176
0.0610645
0.0605617
0.0600584
0.0595975
0.0591125
0.0585243
0.0577787
0.0568241
0.0556519
0.0540942
0.0518661
0.0487194
0.0446195
0.0401007
0.0356482
0.0313639
0.0273837
0.0239275
0.021095
0.0189046
0.0173282
0.0162656
0.015585
0.0151676
0.0149201
0.0147766
0.0146949
0.0146491
0.0146237
0.0146097
0.014602
0.0145979
0.0760109
0.0760128
0.0760112
0.0760079
0.0760015
0.0759976
0.0760015
0.0760179
0.0760425
0.0760439
0.0760317
0.0760046
0.0759674
0.0759266
0.0758809
0.0758349
0.0757961
0.0757699
0.0757505
0.0757282
0.0756964
0.075655
0.0756033
0.0755459
0.0754848
0.0754228
0.0753631
0.0753106
0.0752704
0.0752404
0.0752151
0.0751864
0.0751501
0.0751059
0.0750542
0.0749958
0.0749316
0.0748635
0.0747938
0.0747261
0.074663
0.0746085
0.0745576
0.0745012
0.0744406
0.074377
0.0743039
0.0742202
0.0741277
0.0740277
0.0739205
0.0738062
0.073684
0.0735557
0.0734244
0.0732874
0.0731415
0.0729943
0.0728468
0.0726915
0.0725241
0.072368
0.0722191
0.0720682
0.0718932
0.071685
0.0714856
0.0712918