/*--------------------------------*- C++ -*----------------------------------*\
| =========                 |                                                 |
| \\      /  F ield         | OpenFOAM: The Open Source CFD Toolbox           |
|  \\    /   O peration     | Version:  v1706                                 |
|   \\  /    A nd           | Web:      www.OpenFOAM.com                      |
|    \\/     M anipulation  |                                                 |
\*---------------------------------------------------------------------------*/
FoamFile
{
    version     2.0;
    format      ascii;
    class       volScalarField;
    location    "1.1e-05";
    object      Mach;
}
// * * * * * * * * * * * * * * * * * * * * * * * * * * * * * * * * * * * * * //

dimensions      [0 0 0 0 0 0 0];


internalField   nonuniform List<scalar> 
29871
(
11.2859
11.2859
11.2859
11.2859
11.2859
11.2859
11.2859
11.2859
11.2859
11.2859
11.2859
11.2859
11.2859
11.2859
11.2859
11.2859
11.2859
11.2859
11.2859
11.2859
11.2859
11.2859
11.2859
11.2859
11.2859
11.2859
11.2859
11.2859
11.2859
11.2859
11.2859
11.2859
11.2859
11.2859
11.2859
11.2859
11.2859
11.2859
11.2859
11.2859
11.2859
11.2859
11.2859
11.2859
11.2859
11.2859
11.2859
11.2859
11.2859
11.2859
11.2859
11.2859
11.2859
11.2859
11.2859
11.2859
11.2859
11.2859
11.2859
11.2859
11.2859
11.2859
11.2859
11.2859
11.2859
11.2859
11.2859
11.2859
11.2859
11.2859
11.2859
11.2859
11.2859
11.2859
11.2859
11.2859
11.2859
11.2859
11.2859
11.2859
11.2859
11.2859
11.2859
11.2859
11.2859
11.2859
11.2859
11.2859
11.2859
11.2859
11.2859
11.2859
11.2859
11.2859
11.2859
11.2859
11.2859
11.2859
11.2859
11.2859
11.2859
11.2859
11.2859
11.2859
11.2859
11.2859
11.2859
11.2859
11.2859
11.2859
11.2859
11.2859
11.2859
11.2859
11.2859
11.2859
11.2859
11.2859
11.2859
11.2859
11.2859
11.2859
11.2859
11.2859
11.2859
11.2859
11.2859
11.2859
11.2859
11.2859
11.2859
11.2859
11.2859
11.2859
11.2859
11.2859
11.2859
11.2859
11.2859
11.2859
11.2859
11.2859
11.2859
11.2859
11.2859
11.2859
11.2859
11.2859
11.2859
11.2859
11.2859
11.2859
11.2859
11.2859
11.2859
11.2859
11.2859
11.2859
11.2859
11.2859
11.2859
11.2859
11.2859
11.2859
11.2859
11.2859
11.2859
11.2859
11.2859
11.2859
11.2859
11.2859
11.2859
11.2859
11.2859
11.2859
11.2859
11.2859
11.2859
11.2859
11.2859
11.2859
11.2859
11.2859
11.2859
11.2859
11.2859
11.2859
11.2859
11.2859
11.2859
11.2859
11.2859
11.2859
11.2859
11.2859
11.2859
11.2859
11.2859
11.2859
11.2859
11.2859
11.2859
11.2859
11.2859
11.2859
11.2859
11.2859
11.2859
11.2859
11.2859
11.2859
11.2859
11.2859
11.2859
11.2859
11.2859
11.2859
11.2859
11.2859
11.2859
11.2859
11.2859
11.2859
11.2859
11.2859
11.2859
11.2859
11.2859
11.2859
11.2859
11.2859
11.2859
11.2859
11.2859
11.2859
11.2859
11.2859
11.2859
11.2859
11.2859
11.2859
11.2859
11.2859
11.2859
11.2859
11.2859
11.2859
11.2859
11.2859
11.2859
11.2859
11.2859
11.2859
11.2859
11.2859
11.2859
11.2859
11.2859
11.2859
11.2859
11.2859
11.2859
11.2859
11.2859
11.2859
11.2859
11.2859
11.2859
11.2859
11.2859
11.2859
11.2859
11.2859
11.2859
11.2859
11.2859
11.2859
11.2859
11.2859
11.2859
11.2859
11.2859
11.2859
11.2859
11.2859
11.2859
11.2859
11.2859
11.2859
11.2859
11.2859
11.2859
11.2859
11.2859
11.2859
11.2859
11.2859
11.2859
11.2859
11.2859
11.2859
11.2859
11.2859
11.2859
11.2859
11.2859
11.2859
11.2859
11.2859
11.2859
11.2859
11.2859
11.2859
11.2859
11.2859
11.2859
11.2859
11.2859
11.2859
11.2859
11.2859
11.2859
11.2859
11.2859
11.2859
11.2859
11.2859
11.2859
11.2859
11.2859
11.2859
11.2859
11.2859
11.2859
11.2859
11.2859
11.2859
11.2859
11.2859
11.2859
11.2859
11.2859
11.2859
11.2859
11.2859
11.2859
11.2859
11.2859
11.2859
11.2859
11.2859
11.2859
11.2859
11.2859
11.2859
11.2859
11.2859
11.2859
11.2859
11.2859
11.2859
11.2859
11.2859
11.2859
11.2859
11.2859
11.2859
11.2859
11.2859
11.2859
11.2859
11.2859
11.2859
11.2859
11.2859
11.2859
11.2859
11.2859
11.2859
11.2859
11.2859
11.2859
11.2859
11.2859
11.2859
11.2859
11.2859
11.2859
11.2859
11.2859
11.2859
11.2859
11.2859
11.2859
11.2859
11.2859
11.2859
11.2859
11.2859
11.2859
11.2859
11.2859
11.2859
11.2859
11.2859
11.2859
11.2859
11.2859
11.2859
11.2859
11.2859
11.2859
11.2859
11.2859
11.2859
11.2859
11.2859
11.2859
11.2859
11.2859
11.2859
11.2859
11.2859
11.2859
11.2859
11.2859
11.2859
11.2859
11.2859
11.2859
11.2859
11.2859
11.2859
11.2859
11.2859
11.2859
11.2859
11.2859
11.2859
11.2859
11.2859
11.2859
11.2859
11.2859
11.2859
11.2859
11.2859
11.2859
11.2859
11.2859
11.2859
11.2859
11.2859
11.2859
11.2859
11.2859
11.2859
11.2859
11.2859
11.2859
11.2859
11.2859
11.2859
11.2859
11.2859
11.2859
11.2859
11.2859
11.2859
11.2859
11.2859
11.2859
11.2859
11.2859
11.2859
11.2859
11.2859
11.2859
11.2859
11.2859
11.2859
11.2859
11.2859
11.2859
11.2859
11.2859
11.2859
11.2859
11.2859
11.2859
11.2859
11.2859
11.2859
11.2859
11.2859
11.2859
11.2859
11.2859
11.2859
11.2859
11.2859
11.2859
11.2859
11.2859
11.2859
11.2859
11.2859
11.2859
11.2859
11.2859
11.2859
11.2859
11.2859
11.2859
11.2859
11.2859
11.2859
11.2859
11.2859
11.2859
11.2859
11.2859
11.2859
11.2859
11.2859
11.2859
11.2859
11.2859
11.2859
11.2859
11.2859
11.2859
11.2859
11.2859
11.2859
11.2859
11.2859
11.2859
11.2859
11.2859
11.2859
11.2859
11.2859
11.2859
11.2859
11.2859
11.2859
11.2859
11.2859
11.2859
11.2859
11.2859
11.2859
11.2859
11.2859
11.2859
11.2859
11.2859
11.2859
11.2859
11.2859
11.2859
11.2859
11.2859
11.2859
11.2859
11.2859
11.2859
11.2859
11.2859
11.2859
11.2859
11.2859
11.2859
11.2859
11.2859
11.2859
11.2859
11.2859
11.2859
11.2859
11.2859
11.2859
11.2859
11.2859
11.2859
11.2859
11.2859
11.2859
11.2859
11.2859
11.2859
11.2859
11.2859
11.2859
11.2859
11.2859
11.2859
11.2859
11.2859
11.2859
11.2859
11.2859
11.2859
11.2859
11.2859
11.2859
11.2859
11.2859
11.2859
11.2859
11.2859
11.2859
11.2859
11.2859
11.2859
11.2859
11.2859
11.2859
11.2859
11.2859
11.2859
11.2859
11.2859
11.2859
11.2859
11.2859
11.2859
11.2859
11.2859
11.2859
11.2859
11.2859
11.2859
11.2859
11.2859
11.2859
11.2859
11.2859
11.2859
11.2859
11.2859
11.2859
11.2859
11.2859
11.2859
11.2859
11.2859
11.2859
11.2859
11.2859
11.2859
11.2859
11.2859
11.2859
11.2859
11.2859
11.2859
11.2859
11.2859
11.2859
11.2859
11.2859
11.2859
11.2859
11.2859
11.2859
11.2859
11.2859
11.2859
11.2859
11.2859
11.2859
11.2859
11.2859
11.2859
11.2859
11.2859
11.2859
11.2859
11.2859
11.2859
11.2859
11.2859
11.2859
11.2859
11.2859
11.2859
11.2859
11.2859
11.2859
11.2859
11.2859
11.2859
11.2859
11.2859
11.2859
11.2859
11.2859
11.2859
11.2859
11.2859
11.2859
11.2859
11.2859
11.2859
11.2859
11.2859
11.2859
11.2859
11.2859
11.2859
11.2859
11.2859
11.2859
11.2859
11.2859
11.2859
11.2859
11.2859
11.2859
11.2859
11.2859
11.2859
11.2859
11.2859
11.2859
11.2859
11.2859
11.2859
11.2859
11.2859
11.2859
11.2859
11.2859
11.2859
11.2859
11.2859
11.2859
11.2859
11.2859
11.2859
11.2859
11.2859
11.2859
11.2859
11.2859
11.2859
11.2859
11.2859
11.2859
11.2859
11.2859
11.2859
11.2859
11.2859
11.2859
11.2859
11.2859
11.2859
11.2859
11.2859
11.2859
11.2859
11.2859
11.2859
11.2859
11.2859
11.2859
11.2859
11.2859
11.2859
11.2859
11.2859
11.2859
11.2859
11.2859
11.2859
11.2859
11.2859
11.2859
11.2859
11.2859
11.2859
11.2859
11.2859
11.2859
11.2859
11.2859
11.2859
11.2859
11.2859
11.2859
11.2859
11.2859
11.2859
11.2859
11.2859
11.2859
11.2859
11.2859
11.2859
11.2859
11.2859
11.2859
11.2859
11.2859
11.2859
11.2859
11.2859
11.2859
11.2859
11.2859
11.2859
11.2859
11.2859
11.2859
11.2859
11.2859
11.2859
11.2859
11.2859
11.2859
11.2859
11.2859
11.2859
11.2859
11.2859
11.2859
11.2859
11.2859
11.2859
11.2859
11.2859
11.2859
11.2859
11.2859
11.2859
11.2859
11.2859
11.2859
11.2859
11.2859
11.2859
11.2859
11.2859
11.2859
11.2859
11.2859
11.2859
11.2859
11.2859
11.2859
11.2859
11.2859
11.2859
11.2859
11.2859
11.2859
11.2859
11.2859
11.2859
11.2859
11.2859
11.2859
11.2859
11.2859
11.2859
11.2859
11.2859
11.2859
11.2859
11.2859
11.2859
11.2859
11.2859
11.2859
11.2859
11.2859
11.2859
11.2859
11.2859
11.2859
11.2859
11.2859
11.2859
11.2859
11.2859
11.2859
11.2859
11.2859
11.2859
11.2859
11.2859
11.2859
11.2859
11.2859
11.2859
11.2859
11.2859
11.2859
11.2859
11.2859
11.2859
11.2859
11.2859
11.2859
11.2859
11.2859
11.2859
11.2859
11.2859
11.2859
11.2859
11.2859
11.2859
11.2859
11.2859
11.2859
11.2859
11.2859
11.2859
11.2859
11.2859
11.2859
11.2859
11.2859
11.2859
11.2859
11.2859
11.2859
11.2859
11.2859
11.2859
11.2859
11.2859
11.2859
11.2859
11.2859
11.2859
11.2859
11.2859
11.2859
11.2859
11.2859
11.2859
11.2859
11.2859
11.2859
11.2859
11.2859
11.2859
11.2859
11.2859
11.2859
11.2859
11.2859
11.2859
11.2859
11.2859
11.2859
11.2859
11.2859
11.2859
11.2859
11.2859
11.2859
11.2859
11.2859
11.2859
11.2859
11.2859
11.2859
11.2859
11.2859
11.2859
11.2859
11.2859
11.2859
11.2859
11.2859
11.2859
11.2859
11.2859
11.2859
11.2859
11.2859
11.2859
11.2859
11.2859
11.2859
11.2859
11.2859
11.2859
11.2859
11.2859
11.2859
11.2859
11.2859
11.2859
11.2859
11.2859
11.2859
11.2859
11.2859
11.2859
11.2859
11.2859
11.2859
11.2859
11.2859
11.2859
11.2859
11.2859
11.2859
11.2859
11.2859
11.2859
11.2859
11.2859
11.2859
11.2859
11.2859
11.2859
11.2859
11.2859
11.2859
11.2859
11.2859
11.2859
11.2859
11.2859
11.2859
11.2859
11.2859
11.2859
11.2859
11.2859
11.2859
11.2859
11.2859
11.2859
11.2859
11.2859
11.2859
11.2859
11.2859
11.2859
11.2859
11.2859
11.2859
11.2859
11.2859
11.2859
11.2859
11.2859
11.2859
11.2859
11.2859
11.2859
11.2859
11.2859
11.2859
11.2859
11.2859
11.2859
11.2859
11.2859
11.2859
11.2859
11.2859
11.2859
11.2859
11.2859
11.2859
11.2859
11.2859
11.2859
11.2859
11.2859
11.2859
11.2859
11.2859
11.2859
11.2859
11.2859
11.2859
11.2859
11.2859
11.2859
11.2859
11.2859
11.2859
11.2859
11.2859
11.2859
11.2859
11.2859
11.2859
11.2859
11.2859
11.2859
11.2859
11.2859
11.2859
11.2859
11.2859
11.2859
11.2859
11.2859
11.2859
11.2859
11.2859
11.2859
11.2859
11.2859
11.2859
11.2859
11.2859
11.2859
11.2859
11.2859
11.2859
11.2859
11.2859
11.2859
11.2859
11.2859
11.2859
11.2859
11.2859
11.2859
11.2859
11.2859
11.2859
11.2859
11.2859
11.2859
11.2859
11.2859
11.2859
11.2859
11.2859
11.2859
11.2859
11.2859
11.2859
11.2859
11.2859
11.2859
11.2859
11.2859
11.2859
11.2859
11.2859
11.2859
11.2859
11.2859
11.2859
11.2859
11.2859
11.2859
11.2859
11.2859
11.2859
11.2859
11.2859
11.2859
11.2859
11.2859
11.2859
11.2859
11.2859
11.2859
11.2859
11.2859
11.2859
11.2859
11.2859
11.2859
11.2859
11.2859
11.2859
11.2859
11.2859
11.2859
11.2859
11.2859
11.2859
11.2859
11.2859
11.2859
11.2859
11.2859
11.2859
11.2859
11.2859
11.2859
11.2859
11.2859
11.2859
11.2859
11.2859
11.2859
11.2859
11.2859
11.2859
11.2859
11.2859
11.2859
11.2859
11.2859
11.2859
11.2859
11.2859
11.2858
11.2858
11.2858
11.2858
11.2858
11.2858
11.2858
11.2858
11.2858
11.2858
11.2858
11.2858
11.2858
11.2858
11.2858
11.2858
11.2858
11.2858
11.2858
11.2858
11.2858
11.2858
11.2858
11.2858
11.2858
11.2858
11.2858
11.2858
11.2858
11.2858
11.2858
11.2858
11.2858
11.2858
11.2858
11.2858
11.2858
11.2859
11.2859
11.2859
11.2859
11.2859
11.2859
11.2859
11.2859
11.2859
11.2859
11.2859
11.2859
11.2859
11.2859
11.2859
11.2859
11.2859
11.2859
11.2859
11.2859
11.2859
11.2859
11.2859
11.2859
11.2859
11.2859
11.2859
11.2859
11.2859
11.2859
11.2859
11.2859
11.2859
11.2859
11.2859
11.2859
11.2859
11.2859
11.2859
11.2859
11.2859
11.2859
11.2859
11.2859
11.2859
11.2859
11.2859
11.2859
11.2859
11.2859
11.2859
11.2859
11.2859
11.2859
11.2859
11.2859
11.2859
11.2859
11.2858
11.2858
11.2858
11.2858
11.2858
11.2858
11.2858
11.2858
11.2858
11.2858
11.2858
11.2858
11.2858
11.2858
11.2858
11.2858
11.2858
11.2858
11.2858
11.2858
11.2858
11.2857
11.2857
11.2857
11.2857
11.2857
11.2857
11.2857
11.2857
11.2857
11.2857
11.2857
11.2857
11.2856
11.2856
11.2856
11.2856
11.2856
11.2857
11.2857
11.2857
11.2857
11.2857
11.2857
11.2857
11.2857
11.2857
11.2857
11.2858
11.2858
11.2858
11.2858
11.2858
11.2858
11.2858
11.2858
11.2858
11.2858
11.2858
11.2858
11.2858
11.2858
11.2858
11.2859
11.2859
11.2859
11.2859
11.2859
11.2859
11.2859
11.2859
11.2859
11.2859
11.2859
11.2859
11.2859
11.2859
11.2859
11.2859
11.2859
11.2859
11.2859
11.2859
11.2859
11.2859
11.2859
11.2859
11.2859
11.2859
11.2859
11.2859
11.2859
11.2859
11.2859
11.2859
11.2859
11.2859
11.2859
11.2859
11.2859
11.2858
11.2858
11.2858
11.2858
11.2858
11.2858
11.2858
11.2858
11.2858
11.2858
11.2858
11.2858
11.2858
11.2858
11.2858
11.2858
11.2858
11.2857
11.2857
11.2857
11.2857
11.2857
11.2856
11.2856
11.2856
11.2855
11.2855
11.2854
11.2854
11.2853
11.2853
11.2852
11.2852
11.2851
11.285
11.285
11.2849
11.2848
11.2847
11.2847
11.2846
11.2845
11.2845
11.2844
11.2844
11.2843
11.2843
11.2843
11.2843
11.2843
11.2843
11.2843
11.2844
11.2844
11.2845
11.2845
11.2846
11.2847
11.2848
11.2849
11.285
11.2851
11.2852
11.2852
11.2853
11.2854
11.2854
11.2855
11.2856
11.2856
11.2857
11.2857
11.2857
11.2858
11.2858
11.2858
11.2858
11.2858
11.2858
11.2858
11.2858
11.2858
11.2859
11.2859
11.2859
11.2859
11.2859
11.2859
11.2859
11.2859
11.2859
11.2859
11.2859
11.2859
11.2859
11.2859
11.2859
11.2859
11.2859
11.2859
11.2859
11.2859
11.2859
11.2859
11.2859
11.2859
11.2859
11.2859
11.2859
11.2859
11.2859
11.2859
11.2858
11.2858
11.2858
11.2858
11.2858
11.2858
11.2857
11.2857
11.2857
11.2857
11.2857
11.2856
11.2856
11.2855
11.2855
11.2854
11.2854
11.2853
11.2852
11.2851
11.285
11.2849
11.2847
11.2846
11.2844
11.2842
11.284
11.2837
11.2834
11.2831
11.2828
11.2824
11.282
11.2816
11.2812
11.2807
11.2803
11.2798
11.2793
11.2788
11.2783
11.2778
11.2773
11.2768
11.2763
11.2758
11.2754
11.275
11.2747
11.2744
11.2743
11.2742
11.2742
11.2744
11.2746
11.2749
11.2753
11.2757
11.2762
11.2768
11.2775
11.2781
11.2788
11.2795
11.2801
11.2807
11.2813
11.2818
11.2823
11.2828
11.2832
11.2836
11.284
11.2844
11.2846
11.2849
11.2851
11.2853
11.2854
11.2855
11.2856
11.2856
11.2857
11.2857
11.2858
11.2858
11.2858
11.2858
11.2858
11.2858
11.2858
11.2859
11.2859
11.2859
11.2859
11.2859
11.2859
11.2859
11.2859
11.2859
11.2859
11.2859
11.2859
11.2859
11.2859
11.2859
11.2859
11.2859
11.2859
11.2859
11.2859
11.2859
11.2859
11.2859
11.2859
11.2856
11.2855
11.2855
11.2854
11.2853
11.2852
11.2851
11.2849
11.2848
11.2846
11.2844
11.2842
11.2839
11.2836
11.2832
11.2828
11.2823
11.2818
11.2811
11.2804
11.2796
11.2787
11.2777
11.2766
11.2754
11.274
11.2724
11.2706
11.2686
11.2664
11.2639
11.2613
11.2585
11.2556
11.2525
11.2494
11.2462
11.2429
11.2395
11.2361
11.2325
11.2289
11.2252
11.2216
11.2181
11.2148
11.2117
11.2091
11.2069
11.2052
11.2041
11.2038
11.2041
11.205
11.2066
11.2087
11.2114
11.2146
11.2183
11.2223
11.2267
11.2313
11.2361
11.2408
11.2454
11.2497
11.2537
11.2574
11.2609
11.2641
11.2672
11.2701
11.2727
11.2751
11.2772
11.2789
11.2804
11.2816
11.2825
11.2833
11.2839
11.2844
11.2847
11.285
11.2853
11.2854
11.2856
11.2856
11.2857
11.2858
11.2858
11.2858
11.2858
11.2858
11.2858
11.2859
11.2859
11.2859
11.2859
11.2859
11.2859
11.2859
11.2859
11.2859
11.2859
11.2859
11.2859
11.2859
11.2859
11.2859
11.2859
11.2859
11.2859
11.2859
11.2859
11.2859
11.2852
11.2851
11.285
11.2848
11.2846
11.2844
11.2841
11.2838
11.2834
11.283
11.2825
11.2819
11.2812
11.2804
11.2795
11.2784
11.2772
11.2758
11.2741
11.2723
11.2701
11.2675
11.2646
11.2613
11.2574
11.253
11.2481
11.2426
11.2365
11.2297
11.222
11.2134
11.2037
11.1928
11.1806
11.167
11.1522
11.1362
11.1191
11.101
11.0823
11.0629
11.0432
11.0232
11.0028
10.9817
10.9599
10.9374
10.9144
10.8913
10.8686
10.8468
10.8264
10.8081
10.7922
10.7792
10.7693
10.7631
10.7617
10.7637
10.7691
10.7782
10.7908
10.8068
10.8259
10.8478
10.8723
10.8991
10.9276
10.9574
10.9876
11.0174
11.0458
11.0721
11.0961
11.1185
11.1396
11.1597
11.1787
11.1963
11.2123
11.2264
11.2384
11.2483
11.2562
11.2626
11.2677
11.2719
11.2753
11.278
11.2801
11.2817
11.2829
11.2837
11.2844
11.2848
11.2851
11.2854
11.2855
11.2856
11.2857
11.2858
11.2858
11.2858
11.2858
11.2858
11.2858
11.2859
11.2859
11.2859
11.2859
11.2859
11.2859
11.2859
11.2859
11.2859
11.2859
11.2859
11.2859
11.2859
11.2859
11.2859
11.2859
11.2815
11.2807
11.2798
11.2786
11.2773
11.2757
11.2739
11.2718
11.2693
11.2664
11.263
11.2591
11.2544
11.249
11.2427
11.2355
11.2272
11.2177
11.2068
11.1942
11.1797
11.1629
11.1437
11.1217
11.0969
11.0692
11.0384
11.0046
10.9674
10.9265
10.881
10.8301
10.7734
10.7107
10.6422
10.5683
10.4898
10.4077
10.3231
10.2372
10.1512
10.0659
9.98202
9.89932
9.81648
9.73248
9.64729
9.56172
9.47719
9.39535
9.3179
9.24637
9.18207
9.12603
9.07914
9.04192
9.01446
8.99807
8.9968
9.0048
9.02209
9.05017
9.08895
9.13836
9.19825
9.26854
9.34927
9.44025
9.54092
9.65018
9.76621
9.88602
10.0053
10.1197
10.2284
10.333
10.4355
10.5369
10.6364
10.7326
10.8232
10.9062
10.9795
11.0412
11.0916
11.1322
11.1653
11.1926
11.2151
11.2331
11.247
11.2576
11.2654
11.2712
11.2755
11.2786
11.2809
11.2825
11.2836
11.2844
11.2849
11.2852
11.2854
11.2856
11.2857
11.2858
11.2858
11.2858
11.2858
11.2858
11.2859
11.2859
11.2859
11.2859
11.2859
11.2859
11.2859
11.2859
11.2859
11.2859
11.2859
11.2859
11.2859
11.257
11.2517
11.2453
11.2379
11.2291
11.219
11.2072
11.1934
11.1774
11.1587
11.1369
11.1115
11.0822
11.0485
11.0102
10.9669
10.9183
10.8635
10.8015
10.7313
10.6518
10.5626
10.4634
10.3546
10.2368
10.1112
9.97894
9.84127
9.69808
9.54762
9.38836
9.22025
9.04466
8.86397
8.68093
8.49832
8.31881
8.14483
7.9784
7.82093
7.67318
7.53535
7.40686
7.28566
7.16665
7.04847
6.93239
6.82048
6.71483
6.61721
6.52897
6.45103
6.38391
6.32773
6.28263
6.24842
6.2244
6.21184
6.21386
6.22544
6.2452
6.27521
6.31597
6.36808
6.43182
6.50792
6.59775
6.7028
6.82407
6.96222
7.11809
7.29151
7.47733
7.66618
7.85544
8.05027
8.25697
8.47946
8.71865
8.97302
9.23868
9.50863
9.77194
10.0152
10.2299
10.4162
10.5792
10.7226
10.8477
10.9532
11.0378
11.103
11.1523
11.1894
11.2173
11.2378
11.2527
11.2631
11.2705
11.2756
11.2791
11.2815
11.283
11.2841
11.2847
11.2852
11.2854
11.2856
11.2857
11.2858
11.2858
11.2858
11.2858
11.2858
11.2859
11.2859
11.2859
11.2859
11.2859
11.2859
11.2859
11.2859
11.2859
11.1026
11.0696
11.0312
10.9869
10.9361
10.8781
10.8124
10.7376
10.6525
10.5559
10.447
10.3253
10.191
10.0448
9.88785
9.72139
9.54602
9.36086
9.16476
8.95785
8.74182
8.51942
8.2939
8.06856
7.84642
7.63022
7.42198
7.22246
7.03
6.83893
6.64749
6.45752
6.27215
6.09437
5.92633
5.76935
5.62426
5.49154
5.37118
5.26266
5.16503
5.0773
4.99806
4.92457
4.84853
4.77213
4.69886
4.63073
4.56879
4.51369
4.46584
4.42544
4.39248
4.36635
4.34703
4.33414
4.32656
4.32576
4.33183
4.3461
4.36017
4.37999
4.40596
4.43836
4.4769
4.52204
4.57526
4.63804
4.71129
4.79604
4.89352
5.00491
5.12976
5.25979
5.38994
5.52826
5.68267
5.85899
6.06158
6.29433
6.56097
6.86409
7.20093
7.55595
7.91078
8.26267
8.61764
8.98017
9.34622
9.70061
10.0221
10.2974
10.5265
10.715
10.8675
10.9866
11.0757
11.1403
11.1865
11.2191
11.2416
11.2569
11.2671
11.2739
11.2783
11.2811
11.283
11.2841
11.2848
11.2852
11.2855
11.2856
11.2857
11.2858
11.2858
11.2858
11.2858
11.2859
11.2859
11.2859
11.2859
11.2859
11.2859
11.2859
11.2859
10.3022
10.1563
9.99586
9.82178
9.63547
9.43822
9.23036
9.01145
8.78174
8.54285
8.29764
8.04956
7.80213
7.55854
7.32148
7.09255
6.87158
6.65485
6.43996
6.22815
6.02225
5.82505
5.63862
5.46422
5.3025
5.15363
5.01759
4.89315
4.77708
4.65999
4.54307
4.43015
4.32385
4.22568
4.13633
4.05603
3.98472
3.92233
3.86842
3.8221
3.78241
3.74836
3.71926
3.6945
3.67413
3.65781
3.64497
3.63506
3.62776
3.62288
3.62033
3.62012
3.62276
3.62705
3.63307
3.64105
3.65044
3.66179
3.67482
3.68949
3.70378
3.7162
3.73252
3.75044
3.76875
3.78863
3.81074
3.83481
3.86078
3.88918
3.91993
3.95387
3.99244
4.03719
4.08942
4.15049
4.22263
4.30814
4.40915
4.52906
4.67273
4.8451
5.04851
5.27665
5.51095
5.76019
6.03863
6.35988
6.73383
7.15901
7.61367
8.07461
8.53444
8.99127
9.43496
9.84298
10.1936
10.4803
10.7078
10.883
11.0122
11.1037
11.1665
11.2088
11.2368
11.255
11.2667
11.2742
11.2788
11.2816
11.2834
11.2844
11.285
11.2854
11.2856
11.2857
11.2858
11.2858
11.2858
11.2858
11.2859
11.2859
11.2859
11.2859
11.2859
8.04324
7.77967
7.51873
7.26356
7.01647
6.77834
6.54783
6.32208
6.10111
5.88686
5.68175
5.48777
5.30616
5.13746
4.98173
4.83866
4.70565
4.57637
4.44845
4.32498
4.2086
4.10083
4.00235
3.91341
3.83392
3.76369
3.70241
3.64927
3.60348
3.56485
3.53213
3.50424
3.48042
3.46017
3.44316
3.4292
3.41808
3.41004
3.40488
3.40184
3.40035
3.4
3.40045
3.40181
3.40406
3.40732
3.4114
3.41626
3.42185
3.42814
3.43512
3.443
3.45216
3.4624
3.47279
3.48492
3.49857
3.51338
3.52435
3.53912
3.55376
3.56815
3.58356
3.59935
3.61174
3.62762
3.64711
3.6656
3.68171
3.70079
3.72112
3.74171
3.76407
3.78867
3.81467
3.84195
3.87152
3.90349
3.93874
3.97724
4.01955
4.06616
4.11738
4.17881
4.25694
4.35625
4.48186
4.64136
4.84382
5.09409
5.37953
5.68613
6.02763
6.4224
6.8813
7.3931
7.92825
8.46742
8.99931
9.50472
9.95367
10.3245
10.6146
10.832
10.9878
11.0947
11.1655
11.2113
11.2403
11.2584
11.2695
11.2762
11.2803
11.2826
11.284
11.2848
11.2853
11.2855
11.2857
11.2858
11.2858
11.2858
11.2858
11.2859
11.2859
5.72535
5.51902
5.32459
5.14306
4.97471
4.81954
4.67605
4.54087
4.40855
4.28081
4.15994
4.04748
3.94428
3.85064
3.76648
3.69155
3.62553
3.568
3.51885
3.47721
3.44169
3.4112
3.38495
3.36236
3.3431
3.32688
3.31358
3.30342
3.29583
3.29009
3.28559
3.28214
3.27976
3.27807
3.27694
3.27637
3.27635
3.27728
3.2792
3.28274
3.2874
3.29287
3.29965
3.30524
3.31032
3.31762
3.32445
3.33141
3.33913
3.34717
3.35536
3.36463
3.37349
3.38288
3.39337
3.40388
3.41423
3.42697
3.44046
3.45157
3.46509
3.47942
3.49408
3.50891
3.52426
3.53578
3.55209
3.57056
3.58782
3.60311
3.61939
3.6401
3.66026
3.67781
3.6982
3.72264
3.74498
3.76913
3.78811
3.81386
3.84278
3.87225
3.90061
3.92139
3.94926
3.98485
4.02456
4.06767
4.11562
4.16977
4.23022
4.30509
4.40702
4.54693
4.73627
4.98584
5.2941
5.63686
6.0232
6.4741
7.0006
7.58348
8.1894
8.79269
9.36685
9.87668
10.2951
10.6164
10.8498
11.0105
11.1161
11.1832
11.2246
11.2498
11.2649
11.2738
11.279
11.282
11.2837
11.2847
11.2852
11.2855
11.2857
11.2858
11.2858
11.2858
4.09373
3.98102
3.87756
3.78362
3.69912
3.62375
3.55713
3.49916
3.44972
3.40757
3.37156
3.34064
3.31403
3.29109
3.2714
3.25466
3.24082
3.22992
3.22141
3.21451
3.20867
3.20376
3.19942
3.19585
3.19275
3.19016
3.18787
3.18736
3.18832
3.18989
3.19146
3.19378
3.19681
3.1993
3.20216
3.20508
3.20823
3.21307
3.2161
3.21943
3.22345
3.2288
3.2361
3.24135
3.24817
3.25647
3.26459
3.27299
3.28209
3.29161
3.30133
3.31143
3.32103
3.33055
3.3411
3.3515
3.36101
3.37309
3.38601
3.39699
3.40951
3.42373
3.43743
3.45106
3.46623
3.47738
3.49394
3.51146
3.52724
3.54213
3.55806
3.57759
3.59674
3.61366
3.6335
3.65566
3.67647
3.6994
3.71622
3.73828
3.76207
3.78788
3.81445
3.83458
3.86057
3.8917
3.9201
3.94982
3.98492
4.01785
4.0428
4.07138
4.11275
4.16213
4.21815
4.28068
4.35472
4.45661
4.60375
4.81411
5.10124
5.45424
5.85785
6.32788
6.88069
7.50354
8.16084
8.81768
9.43527
9.96966
10.3941
10.7076
10.9247
11.0668
11.1559
11.21
11.2422
11.261
11.2719
11.2781
11.2816
11.2835
11.2846
11.2852
11.2855
11.2857
11.2858
11.2858
3.3293
3.29561
3.26676
3.242
3.22073
3.20251
3.18714
3.17467
3.16478
3.1567
3.14981
3.14375
3.13839
3.13356
3.12918
3.12533
3.12202
3.12032
3.11985
3.1196
3.11927
3.11959
3.11971
3.12069
3.12131
3.12216
3.12304
3.12388
3.12478
3.12618
3.12806
3.13237
3.13577
3.13989
3.14465
3.14977
3.15525
3.16114
3.16612
3.17034
3.17438
3.18021
3.18688
3.193
3.20056
3.20912
3.2176
3.22639
3.23566
3.24516
3.2548
3.26459
3.27474
3.28504
3.29601
3.30644
3.31655
3.32857
3.34119
3.35217
3.36449
3.37862
3.39115
3.40383
3.41783
3.42915
3.44653
3.46308
3.47811
3.49404
3.5088
3.52748
3.54459
3.56253
3.58147
3.60084
3.62069
3.64104
3.65966
3.6797
3.70064
3.72263
3.74472
3.76825
3.79212
3.81785
3.84486
3.87168
3.89972
3.929
3.95595
3.98205
4.01707
4.05015
4.08848
4.11816
4.14594
4.18502
4.23659
4.29763
4.36612
4.45558
4.58827
4.7872
5.07182
5.43864
5.87047
6.38118
6.98417
7.65863
8.36363
9.05469
9.67924
10.1922
10.5783
10.8477
11.0237
11.1328
11.1981
11.2362
11.2581
11.2705
11.2774
11.2813
11.2834
11.2845
11.2851
11.2855
3.09836
3.09148
3.08535
3.07991
3.07497
3.07045
3.06646
3.06349
3.06193
3.06075
3.05971
3.05864
3.058
3.05742
3.05669
3.05648
3.05638
3.05586
3.05542
3.05563
3.05646
3.05783
3.06032
3.06244
3.06515
3.06821
3.07144
3.07379
3.07547
3.07793
3.08088
3.08444
3.08867
3.09344
3.09855
3.10389
3.10939
3.11481
3.12026
3.12547
3.1303
3.13587
3.14145
3.14735
3.15433
3.16197
3.16984
3.17832
3.18728
3.19651
3.20601
3.21581
3.226
3.23654
3.24738
3.25809
3.26886
3.28108
3.29306
3.30444
3.31676
3.33122
3.34336
3.35567
3.36741
3.37998
3.39742
3.41316
3.42777
3.44329
3.45874
3.47592
3.49301
3.51016
3.52835
3.54683
3.56575
3.58498
3.6042
3.62383
3.64413
3.665
3.68702
3.71026
3.73361
3.75722
3.78145
3.80627
3.83122
3.8558
3.88241
3.91166
3.94077
3.97105
4.00244
4.03362
4.05971
4.09236
4.13011
4.16658
4.19338
4.22776
4.27685
4.3361
4.40303
4.49353
4.63326
4.8483
5.1611
5.56174
6.04181
6.6179
7.28899
8.01793
8.75612
9.44562
10.0278
10.4733
10.7861
10.9899
11.1152
11.1892
11.2318
11.256
11.2695
11.2769
11.281
11.2832
3.00417
3.00296
3.00168
3.00082
2.99995
2.99896
2.9986
2.99794
2.99683
2.99631
2.99625
2.99674
2.99766
2.99913
3.0006
3.00235
3.00426
3.00524
3.00609
3.0073
3.00888
3.01094
3.01343
3.01621
3.01915
3.02212
3.02482
3.02745
3.02988
3.03231
3.03496
3.03786
3.04133
3.04535
3.04985
3.05479
3.06008
3.06555
3.07121
3.07695
3.08258
3.08821
3.09381
3.09963
3.10607
3.11291
3.12023
3.12819
3.1366
3.14544
3.15471
3.16437
3.17442
3.18492
3.1957
3.20661
3.21773
3.22976
3.24165
3.25327
3.26529
3.27972
3.29208
3.30441
3.3153
3.32924
3.34581
3.36078
3.37525
3.39005
3.40572
3.42216
3.43914
3.45596
3.47338
3.49131
3.50963
3.52824
3.54708
3.56636
3.58629
3.60697
3.62859
3.65091
3.6735
3.69629
3.71942
3.743
3.76699
3.79212
3.81949
3.84705
3.87379
3.90115
3.92891
3.95638
3.98549
4.01691
4.04876
4.07899
4.11005
4.14295
4.18162
4.21498
4.24141
4.278
4.32842
4.38589
4.4552
4.55968
4.72765
4.98819
5.35634
5.81306
6.3677
7.02976
7.76973
8.5376
9.27179
9.9043
10.3943
10.7399
10.9647
11.102
11.1824
11.2283
11.2541
11.2685
11.2764
2.94018
2.94061
2.94142
2.94259
2.94387
2.94532
2.94646
2.94682
2.94754
2.94844
2.94967
2.95115
2.95284
2.9546
2.95624
2.9575
2.95868
2.95983
2.9609
2.9621
2.96355
2.9653
2.96743
2.96988
2.97256
2.97534
2.97822
2.9811
2.98385
2.98653
2.98928
2.9923
2.99572
2.9996
3.00398
3.00881
3.01404
3.01961
3.02548
3.03146
3.03747
3.04349
3.04957
3.05586
3.06243
3.06946
3.07695
3.08487
3.09328
3.10221
3.11153
3.12125
3.13153
3.14222
3.1531
3.16421
3.17594
3.18798
3.19974
3.21143
3.2252
3.23808
3.25041
3.26217
3.27623
3.29186
3.30632
3.32055
3.33509
3.35033
3.36651
3.38313
3.40001
3.41708
3.43445
3.45228
3.47045
3.48885
3.50771
3.52726
3.54755
3.56849
3.58992
3.61167
3.6337
3.65608
3.67898
3.7028
3.72807
3.75443
3.7808
3.80686
3.83299
3.8596
3.88749
3.91727
3.94734
3.97644
4.00411
4.03376
4.06635
4.09772
4.12814
4.16206
4.19842
4.23376
4.26029
4.28952
4.33125
4.38095
4.43797
4.5213
4.65926
4.88295
5.2205
5.65897
6.19812
6.85147
7.59614
8.38179
9.14506
9.81194
10.3334
10.7028
10.9431
11.0895
11.1751
11.2239
2.89297
2.89416
2.89552
2.89691
2.89826
2.8993
2.89999
2.90069
2.90135
2.90195
2.90266
2.90354
2.90461
2.90586
2.90722
2.90857
2.90993
2.91126
2.91247
2.91358
2.91472
2.91603
2.9176
2.91949
2.9217
2.92422
2.92699
2.92995
2.93296
2.93594
2.93889
2.94191
2.94514
2.94869
2.95265
2.95702
2.96184
2.9671
2.97276
2.97873
2.9849
2.99121
2.99757
3.00403
3.01072
3.01769
3.02497
3.0326
3.04071
3.04931
3.05825
3.0676
3.07755
3.08803
3.09874
3.10963
3.12097
3.13309
3.14507
3.15661
3.16934
3.18282
3.19541
3.20761
3.22137
3.23632
3.25046
3.26449
3.27886
3.29383
3.30959
3.3259
3.34277
3.35971
3.37676
3.39414
3.41187
3.42987
3.4483
3.46737
3.48709
3.50732
3.52795
3.54892
3.57025
3.59203
3.61448
3.63795
3.66252
3.68772
3.71306
3.73837
3.76388
3.79024
3.81812
3.8472
3.87629
3.9047
3.93316
3.96317
3.99387
4.02346
4.05275
4.08534
4.11866
4.14827
4.18147
4.21596
4.25078
4.27582
4.30124
4.33693
4.37891
4.42622
4.49566
4.61415
4.81341
5.12653
5.55113
6.07866
6.72365
7.46784
8.26131
9.04073
9.72942
10.273
10.6612
10.9154
2.84802
2.84879
2.84964
2.85056
2.85144
2.85226
2.85303
2.8537
2.85424
2.85471
2.8552
2.8558
2.85655
2.85749
2.85858
2.85982
2.86114
2.86246
2.86371
2.86491
2.86613
2.86747
2.86902
2.87084
2.87298
2.87543
2.87818
2.88115
2.88424
2.88739
2.89059
2.8939
2.8974
2.90117
2.90528
2.90978
2.91471
2.92006
2.92581
2.93189
2.93822
2.94472
2.95139
2.95824
2.96529
2.97256
2.98012
2.98807
2.99642
3.00508
3.01414
3.02374
3.03393
3.04437
3.05498
3.06585
3.07786
3.09028
3.10157
3.11354
3.12714
3.14007
3.15227
3.16569
3.18009
3.19399
3.20787
3.22209
3.23683
3.25223
3.26822
3.28487
3.3017
3.31854
3.33558
3.35289
3.3705
3.38851
3.40706
3.42617
3.44572
3.46565
3.48595
3.50667
3.52791
3.54987
3.57271
3.59634
3.62047
3.64482
3.66936
3.69439
3.72038
3.74757
3.77552
3.8036
3.83172
3.86051
3.8902
3.92007
3.9498
3.98032
4.01189
4.04267
4.07253
4.1049
4.1392
4.17001
4.20063
4.23246
4.26328
4.28634
4.30852
4.33938
4.37351
4.41195
4.47096
4.57575
4.75826
5.0534
5.4658
5.98128
6.61428
7.34975
8.13932
8.92258
9.62421
2.80183
2.80225
2.80273
2.80328
2.80389
2.80454
2.80517
2.80574
2.80622
2.80664
2.80706
2.80754
2.80814
2.8089
2.80984
2.81093
2.81214
2.81342
2.8147
2.81597
2.8173
2.81875
2.82038
2.82225
2.82442
2.82689
2.82965
2.83265
2.83582
2.83913
2.84255
2.84612
2.84988
2.8539
2.85823
2.86293
2.86802
2.87351
2.87938
2.88558
2.89205
2.89878
2.90572
2.91285
2.92019
2.92779
2.93567
2.94387
2.95239
2.96126
2.97055
2.98044
2.99062
3.00097
3.01156
3.02325
3.03575
3.04683
3.05846
3.07165
3.08482
3.09694
3.11003
3.12394
3.13763
3.15138
3.16545
3.17996
3.19503
3.21069
3.22701
3.24361
3.26022
3.27697
3.29392
3.31114
3.32873
3.34678
3.3653
3.38424
3.40356
3.42326
3.44342
3.46412
3.4855
3.50759
3.5303
3.55344
3.57688
3.60069
3.62513
3.65047
3.67669
3.70347
3.73058
3.75816
3.7865
3.81549
3.84483
3.87468
3.9053
3.93618
3.96684
3.99805
4.03042
4.06239
4.09309
4.12477
4.15787
4.18775
4.21651
4.24538
4.27167
4.29088
4.30972
4.33495
4.36013
4.38986
4.43973
4.53335
4.70232
4.98147
5.37947
5.87671
6.48736
7.20052
7.97074
8.7438
2.75508
2.75531
2.75553
2.75579
2.7561
2.75649
2.75694
2.7574
2.75786
2.75827
2.75865
2.75904
2.75947
2.76001
2.76069
2.76153
2.76253
2.76367
2.7649