/*--------------------------------*- C++ -*----------------------------------*\
| =========                 |                                                 |
| \\      /  F ield         | OpenFOAM: The Open Source CFD Toolbox           |
|  \\    /   O peration     | Version:  v1706                                 |
|   \\  /    A nd           | Web:      www.OpenFOAM.com                      |
|    \\/     M anipulation  |                                                 |
\*---------------------------------------------------------------------------*/
FoamFile
{
    version     2.0;
    format      ascii;
    class       volScalarField;
    location    "1.1e-05";
    object      Tov;
}
// * * * * * * * * * * * * * * * * * * * * * * * * * * * * * * * * * * * * * //

dimensions      [0 0 0 1 0 0 0];


internalField   nonuniform List<scalar> 
29871
(
144.4
144.4
144.4
144.4
144.4
144.4
144.4
144.4
144.4
144.4
144.4
144.4
144.4
144.4
144.4
144.4
144.4
144.4
144.4
144.4
144.4
144.4
144.4
144.4
144.4
144.4
144.4
144.4
144.4
144.4
144.4
144.4
144.4
144.4
144.4
144.4
144.4
144.4
144.4
144.4
144.4
144.4
144.4
144.4
144.4
144.4
144.4
144.4
144.4
144.4
144.4
144.4
144.4
144.4
144.4
144.4
144.4
144.4
144.4
144.4
144.4
144.4
144.4
144.4
144.4
144.4
144.4
144.4
144.4
144.4
144.4
144.4
144.4
144.4
144.4
144.4
144.4
144.4
144.4
144.4
144.4
144.4
144.4
144.4
144.4
144.4
144.4
144.4
144.4
144.4
144.4
144.4
144.4
144.4
144.4
144.4
144.4
144.4
144.4
144.4
144.4
144.4
144.4
144.4
144.4
144.4
144.4
144.4
144.4
144.4
144.4
144.4
144.4
144.4
144.4
144.4
144.4
144.4
144.4
144.4
144.4
144.4
144.4
144.4
144.4
144.4
144.4
144.4
144.4
144.4
144.4
144.4
144.4
144.4
144.4
144.4
144.4
144.4
144.4
144.4
144.4
144.4
144.4
144.4
144.4
144.4
144.4
144.4
144.4
144.4
144.4
144.4
144.4
144.4
144.4
144.4
144.4
144.4
144.4
144.4
144.4
144.4
144.4
144.4
144.4
144.4
144.4
144.4
144.4
144.4
144.4
144.4
144.4
144.4
144.4
144.4
144.4
144.4
144.4
144.4
144.4
144.4
144.4
144.4
144.4
144.4
144.4
144.4
144.4
144.4
144.4
144.4
144.4
144.4
144.4
144.4
144.4
144.4
144.4
144.4
144.4
144.4
144.4
144.4
144.4
144.4
144.4
144.4
144.4
144.4
144.4
144.4
144.4
144.4
144.4
144.4
144.4
144.4
144.4
144.4
144.4
144.4
144.4
144.4
144.4
144.4
144.4
144.4
144.4
144.4
144.4
144.4
144.4
144.4
144.4
144.4
144.4
144.4
144.4
144.4
144.4
144.4
144.4
144.4
144.4
144.4
144.4
144.4
144.4
144.4
144.4
144.4
144.4
144.4
144.4
144.4
144.4
144.4
144.4
144.4
144.4
144.4
144.4
144.4
144.4
144.4
144.4
144.4
144.4
144.4
144.4
144.4
144.4
144.4
144.4
144.4
144.4
144.4
144.4
144.4
144.4
144.4
144.4
144.4
144.4
144.4
144.4
144.4
144.4
144.4
144.4
144.4
144.4
144.4
144.4
144.4
144.4
144.4
144.4
144.4
144.4
144.4
144.4
144.4
144.4
144.4
144.4
144.4
144.4
144.4
144.4
144.4
144.4
144.4
144.4
144.4
144.4
144.4
144.4
144.4
144.4
144.4
144.4
144.4
144.4
144.4
144.4
144.4
144.4
144.4
144.4
144.4
144.4
144.4
144.4
144.4
144.4
144.4
144.4
144.4
144.4
144.4
144.4
144.4
144.4
144.4
144.4
144.4
144.4
144.4
144.4
144.4
144.4
144.4
144.4
144.4
144.4
144.4
144.4
144.4
144.4
144.4
144.4
144.4
144.4
144.4
144.4
144.4
144.4
144.4
144.4
144.4
144.4
144.4
144.4
144.4
144.4
144.4
144.4
144.4
144.4
144.4
144.4
144.4
144.4
144.4
144.4
144.4
144.4
144.4
144.4
144.4
144.4
144.4
144.4
144.4
144.4
144.4
144.4
144.4
144.4
144.4
144.4
144.4
144.4
144.4
144.4
144.4
144.4
144.4
144.4
144.4
144.4
144.4
144.4
144.4
144.4
144.4
144.4
144.4
144.4
144.4
144.4
144.4
144.4
144.4
144.4
144.4
144.4
144.4
144.4
144.4
144.4
144.4
144.4
144.4
144.4
144.4
144.4
144.4
144.4
144.4
144.4
144.4
144.4
144.4
144.4
144.4
144.4
144.4
144.4
144.4
144.4
144.4
144.4
144.4
144.4
144.4
144.4
144.4
144.4
144.4
144.4
144.4
144.4
144.4
144.4
144.4
144.4
144.4
144.4
144.4
144.4
144.4
144.4
144.4
144.4
144.4
144.4
144.4
144.4
144.4
144.4
144.4
144.4
144.4
144.4
144.4
144.4
144.4
144.4
144.4
144.4
144.4
144.4
144.4
144.4
144.4
144.4
144.4
144.4
144.4
144.4
144.4
144.4
144.4
144.4
144.4
144.4
144.4
144.4
144.4
144.4
144.4
144.4
144.4
144.4
144.4
144.4
144.4
144.4
144.4
144.4
144.4
144.4
144.4
144.4
144.4
144.4
144.4
144.4
144.4
144.4
144.4
144.4
144.4
144.4
144.4
144.4
144.4
144.4
144.4
144.4
144.4
144.4
144.4
144.4
144.4
144.4
144.4
144.4
144.4
144.4
144.4
144.4
144.4
144.4
144.4
144.4
144.4
144.4
144.4
144.4
144.4
144.4
144.4
144.4
144.4
144.4
144.4
144.4
144.4
144.4
144.4
144.4
144.4
144.4
144.4
144.4
144.4
144.4
144.4
144.4
144.4
144.4
144.4
144.4
144.4
144.4
144.4
144.4
144.4
144.4
144.4
144.4
144.4
144.4
144.4
144.4
144.4
144.4
144.4
144.4
144.4
144.4
144.4
144.4
144.4
144.4
144.4
144.4
144.4
144.4
144.4
144.4
144.4
144.4
144.4
144.4
144.4
144.4
144.4
144.4
144.4
144.4
144.4
144.4
144.4
144.4
144.4
144.4
144.4
144.4
144.4
144.4
144.4
144.4
144.4
144.4
144.4
144.4
144.4
144.4
144.4
144.4
144.4
144.4
144.4
144.4
144.4
144.4
144.4
144.4
144.4
144.4
144.4
144.4
144.4
144.4
144.4
144.4
144.4
144.4
144.4
144.4
144.4
144.4
144.4
144.4
144.4
144.4
144.4
144.4
144.4
144.4
144.4
144.4
144.4
144.4
144.4
144.4
144.4
144.4
144.4
144.4
144.4
144.4
144.4
144.4
144.4
144.4
144.4
144.4
144.4
144.4
144.4
144.4
144.4
144.4
144.4
144.4
144.4
144.4
144.4
144.4
144.4
144.4
144.4
144.4
144.4
144.4
144.4
144.4
144.4
144.4
144.4
144.4
144.4
144.4
144.4
144.4
144.4
144.4
144.4
144.4
144.4
144.4
144.4
144.4
144.4
144.4
144.4
144.4
144.4
144.4
144.4
144.4
144.4
144.4
144.4
144.4
144.4
144.4
144.4
144.4
144.4
144.4
144.4
144.4
144.4
144.4
144.4
144.4
144.4
144.4
144.4
144.4
144.4
144.4
144.4
144.4
144.4
144.4
144.4
144.4
144.4
144.4
144.4
144.4
144.4
144.4
144.4
144.4
144.4
144.4
144.4
144.4
144.4
144.4
144.4
144.4
144.4
144.4
144.4
144.4
144.4
144.4
144.4
144.4
144.4
144.4
144.4
144.4
144.4
144.4
144.4
144.4
144.4
144.4
144.4
144.4
144.4
144.4
144.4
144.4
144.4
144.4
144.4
144.4
144.4
144.4
144.4
144.4
144.4
144.4
144.4
144.4
144.4
144.4
144.4
144.4
144.4
144.4
144.4
144.4
144.4
144.4
144.4
144.4
144.4
144.4
144.4
144.4
144.4
144.4
144.4
144.4
144.4
144.4
144.4
144.4
144.4
144.4
144.4
144.4
144.4
144.4
144.4
144.4
144.4
144.4
144.4
144.4
144.4
144.4
144.4
144.4
144.4
144.4
144.4
144.4
144.4
144.4
144.4
144.4
144.4
144.4
144.4
144.4
144.4
144.4
144.4
144.4
144.4
144.4
144.4
144.4
144.4
144.4
144.4
144.4
144.4
144.4
144.4
144.4
144.4
144.4
144.4
144.4
144.4
144.4
144.4
144.4
144.4
144.4
144.4
144.4
144.4
144.4
144.4
144.4
144.4
144.4
144.4
144.4
144.4
144.4
144.4
144.4
144.4
144.4
144.4
144.4
144.4
144.4
144.4
144.4
144.4
144.4
144.4
144.4
144.4
144.4
144.4
144.4
144.4
144.4
144.4
144.4
144.4
144.4
144.4
144.4
144.4
144.4
144.4
144.4
144.4
144.4
144.4
144.4
144.4
144.4
144.4
144.4
144.4
144.4
144.4
144.4
144.4
144.4
144.4
144.4
144.4
144.4
144.4
144.4
144.4
144.4
144.4
144.4
144.4
144.4
144.4
144.4
144.4
144.4
144.4
144.4
144.4
144.4
144.4
144.4
144.4
144.4
144.4
144.4
144.4
144.4
144.4
144.4
144.4
144.4
144.4
144.4
144.4
144.4
144.4
144.4
144.4
144.4
144.4
144.4
144.4
144.4
144.4
144.4
144.4
144.4
144.4
144.4
144.4
144.4
144.4
144.4
144.4
144.4
144.4
144.4
144.4
144.4
144.4
144.4
144.4
144.4
144.4
144.4
144.4
144.4
144.4
144.4
144.4
144.4
144.4
144.4
144.4
144.4
144.4
144.4
144.4
144.4
144.4
144.4
144.4
144.4
144.4
144.4
144.4
144.4
144.4
144.4
144.4
144.4
144.4
144.4
144.4
144.4
144.4
144.4
144.4
144.4
144.4
144.4
144.4
144.4
144.4
144.4
144.4
144.4
144.4
144.4
144.4
144.4
144.4
144.4
144.4
144.4
144.4
144.4
144.4
144.4
144.4
144.4
144.4
144.4
144.4
144.4
144.4
144.4
144.4
144.4
144.4
144.4
144.4
144.4
144.4
144.4
144.4
144.4
144.4
144.4
144.4
144.4
144.4
144.4
144.4
144.4
144.4
144.4
144.4
144.4
144.4
144.4
144.4
144.4
144.4
144.4
144.4
144.4
144.4
144.4
144.4
144.4
144.4
144.4
144.4
144.4
144.4
144.4
144.4
144.4
144.4
144.4
144.4
144.4
144.4
144.4
144.4
144.4
144.4
144.4
144.4
144.4
144.4
144.4
144.4
144.4
144.4
144.4
144.4
144.4
144.4
144.4
144.4
144.4
144.4
144.4
144.4
144.4
144.4
144.4
144.4
144.4
144.4
144.4
144.4
144.4
144.4
144.4
144.4
144.4
144.4
144.4
144.4
144.4
144.4
144.4
144.4
144.4
144.4
144.4
144.4
144.4
144.4
144.4
144.4
144.4
144.4
144.4
144.4
144.4
144.4
144.4
144.4
144.4
144.4
144.4
144.4
144.4
144.4
144.4
144.4
144.4
144.4
144.4
144.4
144.4
144.4
144.4
144.4
144.4
144.4
144.4
144.4
144.4
144.4
144.4
144.4
144.4
144.4
144.4
144.4
144.4
144.4
144.4
144.4
144.4
144.4
144.4
144.4
144.4
144.4
144.4
144.4
144.4
144.4
144.401
144.401
144.401
144.401
144.401
144.401
144.401
144.401
144.401
144.401
144.401
144.401
144.401
144.401
144.401
144.401
144.401
144.401
144.4
144.4
144.4
144.4
144.4
144.4
144.4
144.4
144.4
144.4
144.4
144.4
144.4
144.4
144.4
144.4
144.4
144.4
144.4
144.4
144.4
144.4
144.4
144.4
144.4
144.4
144.4
144.4
144.4
144.4
144.4
144.4
144.4
144.4
144.4
144.4
144.4
144.4
144.4
144.4
144.4
144.4
144.4
144.4
144.4
144.4
144.4
144.4
144.4
144.4
144.4
144.4
144.4
144.4
144.4
144.4
144.4
144.4
144.4
144.4
144.4
144.4
144.4
144.4
144.4
144.4
144.4
144.4
144.4
144.4
144.4
144.4
144.4
144.401
144.401
144.401
144.401
144.401
144.401
144.401
144.401
144.401
144.402
144.402
144.402
144.402
144.402
144.402
144.403
144.403
144.403
144.403
144.404
144.404
144.404
144.404
144.404
144.405
144.405
144.405
144.405
144.405
144.405
144.405
144.405
144.405
144.405
144.405
144.404
144.404
144.404
144.404
144.403
144.403
144.403
144.403
144.402
144.402
144.402
144.402
144.401
144.401
144.401
144.401
144.401
144.401
144.4
144.4
144.4
144.4
144.4
144.4
144.4
144.4
144.4
144.4
144.4
144.4
144.4
144.4
144.4
144.4
144.4
144.4
144.4
144.4
144.4
144.4
144.4
144.4
144.4
144.4
144.4
144.4
144.4
144.4
144.4
144.4
144.4
144.4
144.4
144.4
144.4
144.4
144.4
144.4
144.4
144.4
144.4
144.4
144.4
144.4
144.4
144.401
144.401
144.401
144.401
144.401
144.401
144.401
144.402
144.402
144.402
144.402
144.403
144.403
144.404
144.404
144.405
144.406
144.406
144.407
144.408
144.409
144.41
144.411
144.413
144.414
144.415
144.417
144.419
144.42
144.422
144.423
144.425
144.427
144.428
144.43
144.432
144.433
144.435
144.436
144.437
144.438
144.438
144.439
144.439
144.438
144.437
144.436
144.435
144.434
144.432
144.43
144.428
144.426
144.424
144.421
144.419
144.417
144.415
144.414
144.412
144.41
144.409
144.407
144.406
144.405
144.404
144.403
144.403
144.402
144.402
144.401
144.401
144.401
144.401
144.4
144.4
144.4
144.4
144.4
144.4
144.4
144.4
144.4
144.4
144.4
144.4
144.4
144.4
144.4
144.4
144.4
144.4
144.4
144.4
144.4
144.4
144.4
144.4
144.4
144.4
144.4
144.4
144.4
144.4
144.4
144.4
144.401
144.401
144.401
144.402
144.402
144.402
144.403
144.403
144.404
144.404
144.405
144.406
144.407
144.408
144.409
144.41
144.412
144.414
144.416
144.418
144.421
144.424
144.427
144.431
144.436
144.44
144.446
144.452
144.458
144.466
144.474
144.483
144.493
144.503
144.513
144.524
144.536
144.547
144.559
144.571
144.583
144.596
144.608
144.621
144.633
144.644
144.655
144.664
144.672
144.678
144.682
144.683
144.683
144.68
144.674
144.667
144.658
144.647
144.634
144.62
144.605
144.589
144.572
144.556
144.54
144.525
144.511
144.498
144.486
144.475
144.464
144.454
144.445
144.437
144.43
144.424
144.419
144.415
144.412
144.409
144.407
144.405
144.404
144.403
144.402
144.401
144.401
144.401
144.401
144.4
144.4
144.4
144.4
144.4
144.4
144.4
144.4
144.4
144.4
144.4
144.4
144.4
144.4
144.4
144.4
144.4
144.4
144.4
144.4
144.4
144.4
144.4
144.4
144.4
144.4
144.407
144.408
144.41
144.412
144.414
144.416
144.419
144.422
144.426
144.43
144.435
144.441
144.447
144.455
144.463
144.474
144.485
144.499
144.514
144.531
144.551
144.572
144.597
144.624
144.654
144.689
144.727
144.771
144.82
144.873
144.932
144.996
145.064
145.135
145.21
145.287
145.366
145.447
145.53
145.615
145.703
145.793
145.884
145.975
146.063
146.146
146.222
146.29
146.346
146.389
146.417
146.427
146.421
146.399
146.362
146.309
146.243
146.164
146.073
145.972
145.863
145.748
145.63
145.512
145.398
145.29
145.19
145.098
145.013
144.933
144.858
144.788
144.723
144.664
144.613
144.57
144.534
144.505
144.482
144.464
144.449
144.437
144.428
144.42
144.415
144.411
144.407
144.405
144.404
144.403
144.402
144.401
144.401
144.4
144.4
144.4
144.4
144.4
144.4
144.4
144.4
144.4
144.4
144.4
144.4
144.4
144.4
144.4
144.4
144.4
144.4
144.4
144.4
144.4
144.4
144.4
144.415
144.418
144.421
144.425
144.43
144.436
144.442
144.45
144.459
144.469
144.481
144.495
144.512
144.531
144.554
144.58
144.61
144.644
144.684
144.73
144.783
144.845
144.916
144.998
145.092
145.199
145.319
145.454
145.604
145.771
145.959
146.172
146.413
146.684
146.99
147.329
147.704
148.111
148.548
149.011
149.495
149.996
150.509
151.033
151.57
152.125
152.703
153.302
153.916
154.537
155.15
155.743
156.3
156.806
157.246
157.611
157.89
158.069
158.114
158.065
157.917
157.669
157.323
156.886
156.364
155.766
155.1
154.378
153.612
152.819
152.019
151.237
150.496
149.815
149.194
148.619
148.08
147.57
147.09
146.645
146.243
145.888
145.585
145.335
145.135
144.976
144.848
144.744
144.66
144.594
144.542
144.503
144.474
144.453
144.437
144.426
144.418
144.412
144.408
144.405
144.404
144.402
144.401
144.401
144.401
144.4
144.4
144.4
144.4
144.4
144.4
144.4
144.4
144.4
144.4
144.4
144.4
144.4
144.4
144.4
144.4
144.4
144.4
144.505
144.524
144.548
144.575
144.607
144.645
144.689
144.741
144.801
144.872
144.955
145.053
145.167
145.299
145.453
145.63
145.834
146.068
146.337
146.649
147.011
147.431
147.915
148.472
149.105
149.82
150.619
151.505
152.486
153.579
154.806
156.191
157.754
159.507
161.455
163.596
165.918
168.402
171.023
173.748
176.547
179.39
182.256
185.148
188.113
191.192
194.393
197.696
201.051
204.391
207.641
210.722
213.56
216.089
218.251
220.002
221.32
222.135
222.259
221.968
221.196
219.945
218.224
216.047
213.438
210.424
207.03
203.29
199.258
195.004
190.621
186.229
181.988
178.047
174.435
171.075
167.88
164.811
161.875
159.11
156.562
154.278
152.302
150.662
149.344
148.293
147.445
146.75
146.181
145.725
145.372
145.106
144.91
144.765
144.658
144.58
144.523
144.484
144.456
144.438
144.425
144.416
144.41
144.407
144.404
144.403
144.402
144.401
144.401
144.4
144.4
144.4
144.4
144.4
144.4
144.4
144.4
144.4
144.4
144.4
144.4
144.4
144.4
145.103
145.234
145.39
145.573
145.788
146.039
146.331
146.672
147.071
147.54
148.089
148.733
149.483
150.351
151.35
152.491
153.791
155.274
156.976
158.936
161.195
163.785
166.733
170.058
173.769
177.864
182.332
187.168
192.402
198.135
204.482
211.517
219.265
227.702
236.766
246.367
256.388
266.69
277.127
287.562
297.882
307.997
317.875
327.625
337.587
347.857
358.325
368.81
379.111
389.027
398.356
406.915
414.548
421.15
426.622
430.911
434.035
435.778
435.797
434.765
432.506
429.061
424.408
418.522
411.427
403.133
393.611
382.858
370.935
357.954
344.073
329.582
314.983
300.957
287.745
275.027
262.433
249.797
237.158
224.685
212.617
201.249
190.937
182.04
174.684
168.67
163.683
159.481
155.948
153.055
150.787
149.072
147.796
146.843
146.132
145.609
145.233
144.968
144.783
144.655
144.568
144.509
144.47
144.445
144.428
144.417
144.411
144.406
144.404
144.402
144.401
144.401
144.4
144.4
144.4
144.4
144.4
144.4
144.4
144.4
144.4
144.4
144.4
148.963
149.808
150.801
151.962
153.311
154.87
156.672
158.758
161.181
163.995
167.254
171.004
175.285
180.127
185.549
191.57
198.232
205.641
213.941
223.249
233.63
245.095
257.61
271.101
285.457
300.536
316.183
332.304
349.011
366.754
385.734
405.863
426.909
448.589
470.607
492.671
514.489
535.771
556.271
575.821
594.336
611.791
628.256
644.09
661.135
678.974
696.801
714.044
730.32
745.345
758.883
770.746
780.791
789.105
795.647
800.421
803.713
804.967
804.392
802.405
798.756
793.777
787.331
779.223
769.477
758.028
744.622
729.041
711.222
691.127
668.762
644.204
617.858
591.768
567.34
543.179
518.062
491.396
463.072
433.261
402.296
370.784
339.801
310.957
285.475
263.121
243.114
224.898
208.4
193.966
182.039
172.65
165.396
159.781
155.45
152.187
149.811
148.12
146.928
146.094
145.518
145.129
144.87
144.7
144.589
144.518
144.473
144.444
144.427
144.416
144.409
144.405
144.403
144.402
144.401
144.401
144.4
144.4
144.4
144.4
144.4
144.4
144.4
144.4
144.4
171.753
176.453
181.84
187.961
194.854
202.566
211.187
220.862
231.734
243.902
257.412
272.253
288.368
305.66
324.004
343.277
363.514
385.037
408.108
432.68
458.519
485.324
512.782
540.574
568.383
595.903
622.85
649.123
675.05
702.844
732.294
762.427
792.395
821.525
849.317
875.411
899.547
921.52
941.263
958.867
974.488
988.326
1000.54
1011.3
1020.53
1028.32
1034.79
1040.08
1044.29
1047.55
1049.88
1051.35
1051.58
1051.22
1050.26
1048.62
1046.51
1043.73
1040.42
1037.01
1033.44
1029.01
1024.14
1018.87
1013.3
1007.09
1000.16
992.519
984.156
974.917
964.805
953.713
941.3
926.989
910.336
891.103
868.768
842.881
813.07
778.969
740.117
696.337
648.478
599.406
554.237
511.916
470.45
428.61
386.423
345.358
307.966
275.744
248.325
224.858
204.959
188.756
176.251
166.926
160.059
155.064
151.525
149.093
147.454
146.362
145.643
145.178
144.881
144.694
144.577
144.506
144.463
144.437
144.421
144.412
144.407
144.404
144.402
144.401
144.401
144.4
144.4
144.4
144.4
144.4
144.4
272.743
289.959
308.646
328.704
350.011
372.515
396.353
421.816
448.926
477.488
507.2
537.731
568.751
599.945
631.013
661.729
692.166
723.827
757.303
791.744
826.223
859.977
892.421
923.107
951.714
977.993
1001.8
1023.15
1042.17
1058.78
1073.28
1085.95
1097.01
1106.59
1114.79
1121.63
1127.12
1131.28
1134.3
1136.54
1138.21
1139.57
1140.65
1141.31
1141.77
1141.84
1141.65
1141.2
1140.45
1139.38
1138.03
1136.39
1134.32
1131.9
1129.14
1125.97
1122.49
1119.05
1115.07
1110.92
1106.98
1102.95
1098.83
1094.81
1090.2
1084.82
1079.68
1074.89
1069.68
1063.88
1058.01
1051.84
1045.21
1037.85
1029.91
1021.33
1011.68
1000.83
988.66
975.224
960.216
943.129
924.157
902.268
875.974
844.346
806.432
761.148
707.759
647.582
586.362
529.519
475.914
423.825
373.3
326.603
286.303
252.689
224.879
202.305
184.835
172.006
162.888
156.534
152.209
149.346
147.489
146.303
145.556
145.094
144.812
144.642
144.541
144.481
144.446
144.426
144.415
144.408
144.404
144.402
144.401
144.401
144.4
144.4
144.4
501.462
533.67
566.679
600.144
633.747
667.214
700.44
733.938
769.128
805.455
842.093
878.254
913.266
946.611
977.915
1006.91
1033.42
1057.3
1078.41
1096.87
1113.04
1127.21
1139.62
1150.43
1159.73
1167.6
1174.05
1179
1182.84
1185.95
1188.57
1190.81
1192.72
1194.38
1195.81
1196.96
1197.8
1198.13
1197.97
1197.31
1196.11
1194.51
1192.82
1191.09
1188.99
1186.82
1184.77
1182.64
1180.42
1178.17
1175.87
1173.62
1171.44
1169.08
1166.66
1164.19
1161.39
1158.2
1155.06
1151.46
1147.53
1143.76
1140.01
1136.16
1132.41
1127.97
1122.74
1117.98
1113.47
1108.72
1103.25
1097.72
1092.17
1086.08
1079.29
1072.53
1065.65
1058.96
1051.42
1043.05
1034.68
1026.4
1018.94
1010.39
1000.27
989.236
977.067
963.222
946.969
927.263
904.359
877.108
842.866
799.603
745.644
680.97
610.162
542.765
479.832
419.858
363.078
312.383
269.941
235.555
208.368
187.809
173.064
162.891
156.065
151.615
148.793
147.037
145.962
145.314
144.929
144.703
144.572
144.497
144.454
144.43
144.416
144.409
144.405
144.403
144.401
144.401
864.474
902.009
938.405
973.118
1005.74
1036.03
1063.76
1088.72
1110.72
1130.03
1146.93
1161.74
1174.68
1185.97
1195.71
1204
1210.8
1216.16
1220.45
1224.06
1227.24
1230.04
1232.53
1234.73
1236.65
1238.23
1239.47
1239.85
1239.58
1239.02
1238.2
1237.19
1236.12
1234.95
1233.8
1232.71
1231.67
1230.8
1230.12
1229.52
1228.69
1227.38
1225.8
1223.91
1221.5
1219
1216.59
1214.1
1211.5
1208.82
1206.08
1203.45
1200.84
1198.09
1195.3
1192.66
1189.72
1186.43
1183.32
1179.96
1176.12
1172.5
1169.03
1165.38
1161.89
1157.51
1152.45
1147.91
1143.52
1139.04
1133.61
1128.29
1123.05
1117.4
1110.95
1104.71
1098.39
1092.51
1085.88
1078.34
1070.82
1063.59
1057.22
1049.84
1040.9
1031.75
1022.58
1013.12
1003.66
994.896
985.682
974.136
960.466
944.702
925.719
902.553
874.85
839.461
793.112
733.053
659.867
582.12
508.69
440.17
376.315
319.562
272.318
234.611
205.612
184.479
169.89
160.209
153.989
150.113
147.754
146.343
145.512
145.03
144.753
144.597
144.508
144.459
144.432
144.417
144.409
144.405
144.403
144.401
1169.2
1185.67
1200.02
1212.5
1223.32
1232.61
1240.42
1246.7
1251.77
1256.01
1259.71
1263.02
1265.97
1268.61
1270.94
1272.93
1274.43
1275.19
1275.15
1274.98
1274.67
1274.23
1273.69
1273.14
1272.62
1272.16
1271.93
1272.03
1272.03
1271.74
1270.9
1269.69
1268.24
1266.54
1264.79
1263.05
1261.31
1259.71
1258.35
1257.15
1255.89
1254.46
1253.01
1251.16
1248.8
1246.29
1243.76
1241.1
1238.3
1235.41
1232.48
1229.55
1226.57
1223.52
1220.55
1217.71
1214.61
1211.25
1208.16
1204.84
1201.06
1197.63
1194.35
1190.78
1187.35
1182.76
1177.83
1173.37
1168.87
1164.4
1158.92
1153.45
1147.97
1142.31
1136.33
1130.18
1123.98
1118.31
1112.5
1106.15
1099.47
1092.97
1086.83
1080.26
1072.66
1064.71
1056.63
1048.11
1039.62
1031.82
1023.83
1013.87
1003.24
992.324
982.147
972.722
961.4
947.561
930.76
909.818
884.462
852.037
807.955
748.289
672.623
589.272
509.392
435.112
367.019
308.088
260.21
223.048
195.657
176.663
164.133
156.174
151.288
148.368
146.656
145.668
145.106
144.789
144.613
144.516
144.463
144.434
144.418
144.41
1289.9
1293.68
1297.05
1300.04
1302.7
1305.03
1306.94
1308.2
1308.69
1308.77
1308.76
1308.68
1308.52
1308.31
1308.1
1307.98
1308.13
1308.57
1308.87
1308.69
1308.11
1307.18
1306.09
1304.83
1303.51
1302.2
1301.07
1300.24
1299.58
1298.91
1298.05
1296.85
1295.37
1293.67
1291.84
1289.94
1288
1286.09
1284.3
1282.76
1281.37
1280.11
1278.95
1277.48
1275.69
1273.81
1271.76
1269.46
1266.97
1264.34
1261.6
1258.77
1255.79
1252.7
1249.66
1246.6
1243.29
1239.9
1236.67
1233.2
1229.36
1225.9
1222.61
1219.1
1215.47
1210.62
1205.86
1201.41
1196.82
1192.07
1186.8
1181.2
1175.57
1169.79
1163.85
1157.76
1151.59
1145.62
1139.65
1133.4
1126.86
1120.27
1113.67
1106.81
1099.46
1091.77
1083.95
1076.03
1068.32
1061.11
1053.65
1045.42
1036.53
1027.08
1018.11
1009.29
999.294
988.204
977.111
966.978
956.401
943.619
927.495
906.944
881.874
848.913
802.365
737.75
655.545
567.653
484.308
407.467
339.228
282.655
238.328
205.406
182.491
167.435
157.963
152.221
148.841
146.889
145.781
145.16
144.815
144.626
144.522
144.466
1343.1
1343.15
1343.11
1343.03
1342.88
1342.79
1342.88
1343.27
1343.86
1343.89
1343.61
1342.96
1342.07
1341.1
1340.01
1338.91
1337.98
1337.35
1336.89
1336.36
1335.61
1334.62
1333.39
1332.02
1330.56
1329.09
1327.66
1326.41
1325.45
1324.73
1324.13
1323.45
1322.59
1321.54
1320.31
1318.92
1317.39
1315.78
1314.12
1312.51
1311.01
1309.72
1308.51
1307.18
1305.74
1304.23
1302.5
1300.52
1298.33
1295.97
1293.44
1290.74
1287.85
1284.82
1281.72
1278.5
1275.06
1271.6
1268.13
1264.48
1260.55
1256.88
1253.39
1249.85
1245.78
1240.91
1236.24
1231.71
1227.03
1222.07
1216.78
1211.15
1205.43
1199.59
1193.61
1187.51
1181.34
1175.21
1169.06
1162.74
1156.21
1149.52
1142.67
1135.56
1128.1
1120.33
1112.34
1104.27
1096.31
1088.52
1080.67
1072.68
1064.37
1055.65
1047.12
1038.91
1030.15
1020.68
1011.09
1002.04
992.224
981.216
970.236
959.93
949.248
936.337
919.556
898.6
872.164
834.678
779.732
703.986
613.276
523.183
439.449
364.121
300.676
250.548
213.139
187.059
169.986
159.325
152.924
149.196
147.068
145.872
145.207
144.841
144.641
1379.09
1378.38
1377.46
1376.47
1375.37
1374.34
1373.54
1373
1372.48
1371.81
1370.94
1369.86
1368.65
1367.37
1366.08
1364.84
1363.79
1363.03
1362.49
1362.03
1361.54
1360.91
1360.14
1359.22
1358.21
1357.13
1356.05
1355.07
1354.27
1353.66
1353.13
1352.59
1351.96
1351.19
1350.27
1349.17
1347.94
1346.57
1345.12
1343.67
1342.31
1340.99
1339.65
1338.32
1336.93
1335.37
1333.61
1331.66
1329.52
1327.16
1324.6
1321.85
1318.9
1315.78
1312.47
1308.99
1305.42
1301.73
1297.92
1293.94
1289.98
1286.19
1282.43
1278.07
1273.21
1268.49
1263.83
1259.01
1253.91
1248.5
1242.82
1236.99
1231.07
1225.05
1218.9
1212.67
1206.43
1200.15
1193.72
1187.11
1180.32
1173.3
1166.01
1158.41
1150.54
1142.45
1134.27
1126.14
1118.05
1109.92
1101.71
1093.26
1084.48
1075.6
1066.72
1057.73
1048.59
1039.66
1031.19
1022.35
1012.71
1002.98
993.585
983.417
972.582
962.28
952.516
941.583
927.403
909.458
887.158
855.597
807.511
737.51
647.245
552.548
463.568
382.978
314.377
259.854
219.043
190.574
171.986
160.432
153.531
149.533
147.259
145.983
1407.8
1406.77
1405.59
1404.32
1403.01
1401.72
1400.54
1399.6
1398.92
1398.38
1397.87
1397.29
1396.6
1395.81
1394.94
1394.02
1393.1
1392.3
1391.67
1391.22
1390.87
1390.55
1390.17
1389.71
1389.15
1388.49
1387.76
1387.01
1386.31
1385.72
1385.24
1384.83
1384.42
1383.95
1383.37
1382.65
1381.77
1380.73
1379.54
1378.27
1376.94
1375.58
1374.21
1372.84
1371.42
1369.87
1368.2
1366.37
1364.34
1362.09
1359.64
1356.98
1354.08
1350.95
1347.62
1344.12
1340.41
1336.52
1332.64
1328.63
1324.4
1320.31
1316.26
1311.72
1306.78
1301.94
1297.11
1292.13
1286.89
1281.37
1275.6
1269.63
1263.6
1257.51
1251.3
1244.99
1238.64
1232.24
1225.7
1218.99
1212.08
1204.93
1197.52
1189.83
1181.88
1173.75
1165.54
1157.32
1149.08
1140.79
1132.38
1123.76
1114.86
1105.78
1096.56
1087.27
1077.98
1068.86
1059.8
1050.45
1040.82
1031.53
1022.65
1013.3
1003.58
994.247
984.749
974.334
964.425
955.488
946.003
933.719
918.275
899.134
871.523
827.902
761.721
672.55
574.637
481.794
397.433
325.115
267.381
224.05
193.77
173.986
161.675
154.306
1433.87
1433.14
1432.33
1431.45
1430.51
1429.55
1428.64
1427.87
1427.26
1426.78
1426.36
1425.95
1425.51
1425.01
1424.45
1423.85
1423.26
1422.73
1422.31
1422.03
1421.85
1421.71
1421.56
1421.36
1421.09
1420.74
1420.32
1419.88
1419.44
1419.06
1418.74
1418.44
1418.14
1417.77
1417.3
1416.7
1415.93
1415
1413.92
1412.71
1411.39
1410
1408.56
1407.04
1405.42
1403.71
1401.86
1399.82
1397.59
1395.17
1392.53
1389.63
1386.47
1383.14
1379.58
1375.71
1371.64
1367.78
1363.71
1359.29
1354.87
1350.57
1345.88
1340.84
1335.84
1330.82
1325.65
1320.26
1314.64
1308.77
1302.69
1296.53
1290.33
1284.05
1277.66
1271.2
1264.68
1258.04
1251.22
1244.2
1236.96
1229.46
1221.71
1213.74
1205.62
1197.42
1189.17
1180.88
1172.51
1164
1155.28
1146.33
1137.18
1127.85
1118.43
1109.01
1099.62
1090.16
1080.47
1070.7
1061.08
1051.48
1041.62
1031.9
1022.81
1013.59
1003.94
994.91
986.156
976.485
967.28
959.397
951.196
940.528
927.542
911.142
886.303
845.471
781.45
692.836
592.662
497.206
410.318
335.379
275.245
229.865
197.926
1461.86
1461.27
1460.67
1460.03
1459.36
1458.67
1458.01
1457.43
1456.97
1456.61
1456.33
1456.1
1455.87
1455.63
1455.36
1455.07
1454.78
1454.55
1454.4
1454.35
1454.37
1454.43
1454.49
1454.53
1454.5
1454.42
1454.26
1454.06
1453.84
1453.63
1453.43
1453.21
1452.96
1452.63
1452.19
1451.6
1450.85
1449.93
1448.83
1447.57
1446.17
1444.66
1443.04
1441.3
1439.47
1437.49
1435.34
1433.03
1430.54
1427.83
1424.84
1421.63
1418.25
1414.6
1410.59
1406.36
1402.47
1398.3
1393.74
1389.03
1384.51
1379.68
1374.55
1369.37
1364.14
1358.79
1353.26
1347.53
1341.57
1335.4
1329.12
1322.81
1316.45
1309.98
1303.44
1296.81
1290.06
1283.15
1276.05
1268.73
1261.19
1253.43
1245.49
1237.41
1229.26
1221.05
1212.77
1204.39
1195.86
1187.15
1178.22
1169.1
1159.8
1150.38
1140.9
1131.38
1121.72
1111.91
1102.03
1092.13
1082.1
1071.93
1061.89
1052.03
1042.03
1032.17
1023.1
1014.19
1004.98
996.443
988.357
979.517
971.532
965.199
958.314
949.445
939.147
925.286
902.611
863.614
800.847
712.58
610.954
514.086
425.752
348.845
286.57
239.045
1491.31
1490.8
1490.34
1489.9
1489.46
1489.01
1488.57
1488.16
1487.82
1487.56
1487.4
1487.31
1487.28
1487.28
1487.28
1487.29
1487.3
1487.32
1487.38
1487.51
1487.69
1487.92
1488.18
1488.44
1488.67
1488.84
1488.94
1488.96
1488.92
1488.84
1488.72
1488.56
1488.36
1488.08
1487.7
1487.18
1486.51
1485.66
1484.61
1483.38
1481.97
1480.38
1478.64
1476.76
1474.75
1472.58
1470.25
1467.77
1465.12
1462.24
1459.09
1455.76
1452.28
1448.49
1444.33
1439.98
1435.94
1431.64
1426.93
1421.99
1417.24
1412.33
1407.1
1401.75
1396.33
1390.8
1385.13
1379.29
1373.25
1366.99
1360.63
1354.23
1347.79
1341.26
1334.64
1327.93
1321.1
1314.11
1306.95
1299.6
1292.06
1284.34
1276.47
1268.48
1260.42
1252.29
1244.08
1235.76
1227.3
1218.67
1209.85
1200.83
1191.64
1182.31
1172.87
1163.34
1153.68
1143.88
1133.99
1123.99
1113.81
1103.51
1093.2
1082.84
1072.41
1062.17
1052.27
1042.44
1032.87
1024.11
1015.52
1006.85
999.163
991.814
984.215
978.107
973.7
968.35
961.968
954.625
943.31
922.721
885.475
824.183
737.119
635.084
537.968
449.199
1521.04
1520.6
1520.23
1519.93
1519.66
1519.42
1519.2
1519.01
1518.85
1518.76
1518.76
1518.82
1518.96
1519.15
1519.39
1519.65
1519.92
1520.21
1520.5
1520.83
1521.18
1521.57
1521.99
1522.41
1522.81
1523.16
1523.44
1523.64
1523.75
1523.74
1523.68
1523.56
1523.35
1523.05
1522.64
1522.1
1521.41
1520.53
1519.46
1518.18
1516.7
1515.01
1513.13
1511.08
1508.86
1506.46
1503.9
1501.18
1498.29
1495.17
1491.81
1488.29
1484.62
1480.65
1476.32
1471.83
1467.59
1463.11
1458.21
1453.1
1448.14
1443.09
1437.77
1432.28
1426.68
1421
1415.2
1409.26
1403.13
1396.81
1390.38
1383.92
1377.42
1370.84
1364.17
1357.4
1350.51
1343.48
1336.31
1328.97
1321.47
1313.83
1306.06
1298.21
1290.28
1282.28
1274.2
1266.01
1257.67
1249.18
1240.51
1231.66
1222.64
1213.46
1204.17
1194.75
1185.2
1175.53
1165.73
1155.78
1145.64
1135.37
1124.97
1114.43
1103.83
1093.31
1082.88
1072.51
1062.45
1052.74
1043.16
1034.04
1025.81
1017.7
1009.98
1003.62
997.221
991.543
988.059
985.575
982.535
979.48
975.387
966.994
948.982
914.403
856.221
772.753
1550.35
1550.1
1549.91
1549.79
1549.72
1549.7
1549.71
1549.76
1549.87
1550.04
1550.28
1550.59
1550.97
1551.4
1551.86
1552.35
1552.85
1553.36
1553.87
1554.39
1554.92
1555.45
1555.98
1556.48
1556.93
1557.31
1557.6
1557.78
1557.82
1557.77
1557.62
1557.36
1556.98
1556.47
1555.82
1555.01
1554.01
1552.82
1551.41
1549.79
1547.94
1545.89
1543.63
1541.17
1538.51
1535.68
1532.68
1529.5
1526.1
1522.47
1518.7
1514.79
1510.58
1506.04
1501.38
1496.91
1492.19
1487.08
1481.81
1476.69
1471.45
1466.01
1460.38
1454.65
1448.83
1442.92
1436.87
1430.66
1424.27
1417.8
1411.3
1404.76
1398.16
1391.46
1384.65
1377.74
1370.72
1363.56
1356.28
1348.87
1341.35
1333.73
1326.04
1318.28
1310.44
1302.53
1294.5
1286.34
1278.04
1269.56
1260.92
1252.11
1243.16
1234.07
1224.86
1215.52
1206.05
1196.44
1186.67
1176.71
1166.58
1156.27
1145.8
1135.23
1124.63
1113.99
1103.41
1092.98
1082.67
1072.51
1062.74
1053.35
1044.23
1035.92
1028.46
1021.23
1015.02
1010.15
1005.34
1002.39
1002.18
1002.2
1002.51
1003.17
1002.72
998.279
984.2
1579.8
1579.67
1579.62
1579.64
1579.72
1579.86
1580.06
1580.31
1580.61
1580.97
1581.39
1581.86
1582.4
1582.99
1583.61
1584.27
1584.93
1585.6
1586.26