/*--------------------------------*- C++ -*----------------------------------*\
| =========                 |                                                 |
| \\      /  F ield         | OpenFOAM: The Open Source CFD Toolbox           |
|  \\    /   O peration     | Version:  v1706                                 |
|   \\  /    A nd           | Web:      www.OpenFOAM.com                      |
|    \\/     M anipulation  |                                                 |
\*---------------------------------------------------------------------------*/
FoamFile
{
    version     2.0;
    format      ascii;
    class       volVectorField;
    location    "1.1e-05";
    object      U;
}
// * * * * * * * * * * * * * * * * * * * * * * * * * * * * * * * * * * * * * //

dimensions      [0 1 -1 0 0 0 0];


internalField   nonuniform List<vector> 
29871
(
(2764.5 -3.31943e-11 7.04263e-15)
(2764.5 -3.50612e-11 4.19232e-15)
(2764.5 -3.80273e-11 4.27983e-15)
(2764.5 -4.03314e-11 3.64273e-15)
(2764.5 -4.12945e-11 2.47455e-15)
(2764.5 -4.22489e-11 2.50883e-15)
(2764.5 -4.35764e-11 3.30843e-15)
(2764.5 -4.40942e-11 3.26485e-15)
(2764.5 -4.51711e-11 3.73531e-15)
(2764.5 -4.6727e-11 3.71167e-15)
(2764.5 -4.79911e-11 4.23218e-15)
(2764.5 -4.88692e-11 5.54157e-15)
(2764.5 -4.92332e-11 4.56497e-15)
(2764.5 -4.62761e-11 5.22152e-15)
(2764.5 -4.22514e-11 4.58392e-15)
(2764.5 -3.79797e-11 2.5159e-15)
(2764.5 -3.35198e-11 2.51116e-15)
(2764.5 -2.7697e-11 3.32936e-15)
(2764.5 -2.48616e-11 4.43029e-15)
(2764.5 -1.87205e-11 3.98669e-15)
(2764.5 -1.5474e-11 2.16584e-15)
(2764.5 -1.4176e-11 3.31096e-15)
(2764.5 -1.30688e-11 1.08152e-15)
(2764.5 -1.56327e-11 1.80558e-15)
(2764.5 -2.12033e-11 5.23788e-15)
(2764.5 -2.69643e-11 3.19861e-15)
(2764.5 -3.43637e-11 6.83453e-15)
(2764.5 -4.2028e-11 4.16384e-15)
(2764.5 -4.9718e-11 2.0205e-15)
(2764.5 -6.14991e-11 4.3919e-15)
(2764.5 -7.34763e-11 4.76773e-15)
(2764.5 -8.30975e-11 3.09038e-15)
(2764.5 -9.35617e-11 3.45713e-15)
(2764.5 -1.01177e-10 7.27508e-15)
(2764.5 -1.09729e-10 5.09413e-15)
(2764.5 -1.16395e-10 1.38563e-15)
(2764.5 -1.2335e-10 1.15835e-15)
(2764.5 -1.26282e-10 3.27131e-15)
(2764.5 -1.28724e-10 3.76044e-15)
(2764.5 -1.28636e-10 4.30053e-15)
(2764.5 -1.26848e-10 5.21211e-15)
(2764.5 -1.24981e-10 6.30729e-15)
(2764.5 -1.23651e-10 7.01735e-15)
(2764.5 -1.21941e-10 3.43025e-15)
(2764.5 -1.21943e-10 3.30918e-15)
(2764.5 -1.22851e-10 4.27269e-15)
(2764.5 -1.23846e-10 2.77842e-15)
(2764.5 -1.25242e-10 3.60625e-16)
(2764.5 -1.26144e-10 1.50128e-15)
(2764.5 -1.27331e-10 4.73373e-15)
(2764.5 -1.28551e-10 4.51143e-15)
(2764.5 -1.29211e-10 1.64945e-15)
(2764.5 -1.31095e-10 1.84822e-15)
(2764.5 -1.33574e-10 4.48566e-15)
(2764.5 -1.3502e-10 3.91008e-15)
(2764.5 -1.34101e-10 4.23409e-15)
(2764.5 -1.31251e-10 4.58189e-15)
(2764.5 -1.29471e-10 5.50423e-15)
(2764.5 -1.29087e-10 5.02521e-15)
(2764.5 -1.27322e-10 4.82725e-15)
(2764.5 -1.22425e-10 2.20243e-15)
(2764.5 -1.15843e-10 1.03971e-15)
(2764.5 -1.08652e-10 2.32999e-15)
(2764.5 -9.65943e-11 -4.88981e-16)
(2764.5 -8.32625e-11 3.46154e-15)
(2764.5 -6.79372e-11 5.0769e-15)
(2764.5 -4.87415e-11 3.88292e-15)
(2764.5 -1.85617e-11 2.61563e-15)
(2764.5 8.61205e-12 6.72207e-16)
(2764.5 1.76647e-11 1.61229e-15)
(2764.5 1.72498e-11 2.97348e-15)
(2764.5 1.37258e-11 3.32161e-15)
(2764.5 5.4454e-12 1.21868e-15)
(2764.5 -8.57248e-12 2.55485e-15)
(2764.5 -2.11784e-11 1.95412e-15)
(2764.5 -3.96741e-11 5.61245e-15)
(2764.5 -5.97235e-11 7.66548e-16)
(2764.5 -7.08813e-11 1.58475e-15)
(2764.5 -7.31694e-11 2.24972e-15)
(2764.5 -7.20843e-11 4.28113e-15)
(2764.5 -6.569e-11 5.09172e-15)
(2764.5 -5.25077e-11 3.98622e-15)
(2764.5 -3.30736e-11 4.80848e-15)
(2764.5 -1.83345e-11 2.60184e-15)
(2764.5 -1.71726e-11 3.91441e-15)
(2764.5 -2.20659e-11 4.49143e-15)
(2764.5 -2.83107e-11 1.44716e-15)
(2764.5 -3.32648e-11 4.02954e-15)
(2764.5 -3.56216e-11 5.05871e-15)
(2764.5 -3.55292e-11 3.95219e-15)
(2764.5 -3.21698e-11 3.63025e-15)
(2764.5 -3.14561e-11 1.9789e-15)
(2764.5 -3.15127e-11 3.12669e-15)
(2764.5 -3.094e-11 4.28839e-15)
(2764.5 -3.49245e-11 2.34403e-15)
(2764.5 -3.97046e-11 2.06181e-15)
(2764.5 -4.42535e-11 2.21593e-15)
(2764.5 -4.87763e-11 2.62916e-15)
(2764.5 -5.02499e-11 2.49231e-15)
(2764.5 -4.92118e-11 2.57754e-15)
(2764.5 -4.8389e-11 3.4981e-15)
(2764.5 -4.57201e-11 3.12246e-15)
(2764.5 -4.19519e-11 1.8087e-15)
(2764.5 -4.00738e-11 2.93006e-15)
(2764.5 -3.86543e-11 5.69558e-16)
(2764.5 -1.25087e-10 1.05806e-14)
(2764.5 -1.21068e-10 9.4386e-15)
(2764.5 -1.18122e-10 1.18745e-14)
(2764.5 -1.14208e-10 1.19213e-14)
(2764.5 -1.12977e-10 1.07488e-14)
(2764.5 -1.06982e-10 1.23018e-14)
(2764.5 -1.03112e-10 1.12939e-14)
(2764.5 -1.00736e-10 1.04272e-14)
(2764.5 -9.7402e-11 1.11836e-14)
(2764.5 -9.52211e-11 1.19127e-14)
(2764.5 -9.40199e-11 1.25038e-14)
(2764.5 -9.5691e-11 1.04594e-14)
(2764.5 -1.02641e-10 1.44258e-14)
(2764.5 -1.16586e-10 1.13202e-14)
(2764.5 -1.34646e-10 6.53894e-15)
(2764.5 -1.51897e-10 9.20419e-15)
(2764.5 -1.61715e-10 1.19504e-14)
(2764.5 -1.77503e-10 1.21648e-14)
(2764.5 -1.85008e-10 1.11502e-14)
(2764.5 -1.92047e-10 8.99663e-15)
(2764.5 -1.92183e-10 8.33612e-15)
(2764.5 -1.88605e-10 1.10364e-14)
(2764.5 -1.79664e-10 1.16169e-14)
(2764.5 -1.62184e-10 1.36658e-14)
(2764.5 -1.42417e-10 1.04627e-14)
(2764.5 -1.16738e-10 9.30174e-15)
(2764.5 -9.05322e-11 1.08068e-14)
(2764.5 -6.16227e-11 9.21058e-15)
(2764.5 -4.08933e-11 9.71483e-15)
(2764.5 -1.64024e-11 8.39635e-15)
(2764.5 6.14774e-12 1.14753e-14)
(2764.5 2.2978e-11 5.67001e-15)
(2764.5 3.74242e-11 6.80302e-15)
(2764.5 5.28289e-11 1.34282e-14)
(2764.5 6.80255e-11 1.15254e-14)
(2764.5 7.13273e-11 1.28361e-14)
(2764.5 7.49314e-11 7.22276e-15)
(2764.5 7.11918e-11 1.20988e-14)
(2764.5 7.02384e-11 1.10424e-14)
(2764.5 6.21475e-11 1.10266e-14)
(2764.5 5.54817e-11 1.21033e-14)
(2764.5 4.96067e-11 1.02598e-14)
(2764.5 3.97584e-11 1.12118e-14)
(2764.5 3.30332e-11 9.9289e-15)
(2764.5 3.32199e-11 9.8377e-15)
(2764.5 3.63643e-11 1.09901e-14)
(2764.5 3.77347e-11 1.09799e-14)
(2764.5 4.58139e-11 7.83884e-15)
(2764.5 5.06342e-11 9.80369e-15)
(2764.5 6.54487e-11 9.81177e-15)
(2764.5 7.61188e-11 5.69194e-15)
(2764.5 8.56551e-11 9.03361e-15)
(2764.5 9.33419e-11 1.13868e-14)
(2764.5 1.03867e-10 8.84814e-15)
(2764.5 1.12593e-10 9.39075e-15)
(2764.5 1.12899e-10 9.4164e-15)
(2764.5 1.10643e-10 1.01356e-14)
(2764.5 1.09515e-10 1.14438e-14)
(2764.5 1.05623e-10 7.34875e-15)
(2764.5 9.4847e-11 6.07348e-15)
(2764.5 8.43548e-11 9.17283e-15)
(2764.5 6.57748e-11 6.08603e-15)
(2764.5 5.06413e-11 7.22155e-15)
(2764.5 2.68158e-11 6.005e-15)
(2764.5 -4.07694e-12 7.04438e-15)
(2764.5 -3.82369e-11 8.65212e-15)
(2764.5 -7.42979e-11 7.57629e-15)
(2764.5 -1.30298e-10 8.55629e-15)
(2764.5 -1.86449e-10 1.23573e-14)
(2764.5 -2.2127e-10 7.91957e-15)
(2764.5 -2.28465e-10 9.9449e-15)
(2764.5 -2.25635e-10 7.33221e-15)
(2764.5 -2.10599e-10 6.63914e-15)
(2764.5 -1.98958e-10 9.82009e-15)
(2764.5 -1.70804e-10 7.60799e-15)
(2764.5 -1.30414e-10 8.81868e-15)
(2764.5 -8.98766e-11 6.33617e-15)
(2764.5 -6.49285e-11 7.86017e-15)
(2764.5 -6.05826e-11 8.12839e-15)
(2764.5 -6.39597e-11 1.05858e-14)
(2764.5 -7.65839e-11 9.64215e-15)
(2764.5 -1.07117e-10 8.90673e-15)
(2764.5 -1.39778e-10 8.45928e-15)
(2764.5 -1.50856e-10 9.40271e-15)
(2764.5 -1.46896e-10 1.0026e-14)
(2764.5 -1.35191e-10 9.7208e-15)
(2764.5 -1.19781e-10 1.02957e-14)
(2764.5 -1.08263e-10 1.06463e-14)
(2764.5 -9.89984e-11 1.10901e-14)
(2764.5 -1.00047e-10 1.13621e-14)
(2764.5 -1.06101e-10 9.7493e-15)
(2764.5 -1.01438e-10 8.27904e-15)
(2764.5 -1.02481e-10 1.19252e-14)
(2764.5 -9.9671e-11 1.10584e-14)
(2764.5 -9.46742e-11 9.55671e-15)
(2764.5 -9.24107e-11 8.06591e-15)
(2764.5 -9.17172e-11 8.60916e-15)
(2764.5 -9.09567e-11 8.80858e-15)
(2764.5 -9.98349e-11 8.70643e-15)
(2764.5 -1.07272e-10 6.70293e-15)
(2764.5 -1.11077e-10 8.50399e-15)
(2764.5 -1.186e-10 9.03333e-15)
(2764.5 -1.20819e-10 7.39729e-15)
(2764.5 -1.1796e-10 7.62113e-15)
(2764.5 -1.15323e-10 6.24321e-15)
(2764.5 -2.08973e-10 2.19473e-14)
(2764.5 -2.10492e-10 2.37393e-14)
(2764.5 -2.17158e-10 1.74718e-14)
(2764.5 -2.23578e-10 1.88107e-14)
(2764.5 -2.32214e-10 2.41389e-14)
(2764.5 -2.39062e-10 2.10094e-14)
(2764.5 -2.47974e-10 2.06018e-14)
(2764.5 -2.47539e-10 2.01382e-14)
(2764.5 -2.45756e-10 2.26111e-14)
(2764.5 -2.38592e-10 2.13969e-14)
(2764.5 -2.2564e-10 1.85665e-14)
(2764.5 -2.13781e-10 1.72213e-14)
(2764.5 -1.89399e-10 1.27477e-14)
(2764.5 -1.60244e-10 1.52923e-14)
(2764.5 -1.32031e-10 1.67871e-14)
(2764.5 -1.07848e-10 1.72922e-14)
(2764.5 -8.2589e-11 1.55586e-14)
(2764.5 -7.23308e-11 1.65317e-14)
(2764.5 -6.87347e-11 1.56052e-14)
(2764.5 -7.59404e-11 1.6087e-14)
(2764.5 -8.8771e-11 1.71119e-14)
(2764.5 -1.12118e-10 1.49639e-14)
(2764.5 -1.44925e-10 1.45516e-14)
(2764.5 -1.84982e-10 2.2651e-14)
(2764.5 -2.25396e-10 1.57383e-14)
(2764.5 -2.6135e-10 1.82212e-14)
(2764.5 -2.95869e-10 2.11512e-14)
(2764.5 -3.26689e-10 1.96309e-14)
(2764.5 -3.51464e-10 1.84693e-14)
(2764.5 -3.68083e-10 1.9025e-14)
(2764.5 -3.85806e-10 1.76473e-14)
(2764.5 -4.01605e-10 1.85115e-14)
(2764.5 -4.10103e-10 1.76418e-14)
(2764.5 -4.22041e-10 1.798e-14)
(2764.5 -4.29253e-10 1.83524e-14)
(2764.5 -4.29217e-10 1.82898e-14)
(2764.5 -4.28316e-10 1.85284e-14)
(2764.5 -4.23164e-10 1.77087e-14)
(2764.5 -4.16936e-10 1.7875e-14)
(2764.5 -4.04216e-10 1.88531e-14)
(2764.5 -3.88576e-10 1.97464e-14)
(2764.5 -3.72394e-10 1.71366e-14)
(2764.5 -3.46464e-10 1.69552e-14)
(2764.5 -3.21069e-10 1.60587e-14)
(2764.5 -3.06331e-10 1.66679e-14)
(2764.5 -3.02357e-10 1.59306e-14)
(2764.5 -3.01331e-10 1.84159e-14)
(2764.5 -3.04796e-10 1.79518e-14)
(2764.5 -3.13338e-10 1.58335e-14)
(2764.5 -3.33356e-10 1.57569e-14)
(2764.5 -3.55382e-10 1.2597e-14)
(2764.5 -3.78636e-10 1.58522e-14)
(2764.5 -4.0848e-10 1.54348e-14)
(2764.5 -4.24515e-10 1.30214e-14)
(2764.5 -4.39387e-10 1.37333e-14)
(2764.5 -4.46471e-10 1.70537e-14)
(2764.5 -4.52574e-10 1.37627e-14)
(2764.5 -4.53772e-10 1.93016e-14)
(2764.5 -4.5066e-10 2.14595e-14)
(2764.5 -4.4264e-10 1.60557e-14)
(2764.5 -4.34104e-10 1.49003e-14)
(2764.5 -4.21246e-10 1.39948e-14)
(2764.5 -3.99437e-10 1.61812e-14)
(2764.5 -3.76508e-10 1.92573e-14)
(2764.5 -3.503e-10 1.41272e-14)
(2764.5 -3.17406e-10 1.42826e-14)
(2764.5 -2.77824e-10 1.48914e-14)
(2764.5 -2.47618e-10 1.49944e-14)
(2764.5 -1.95096e-10 1.50003e-14)
(2764.5 -9.93756e-11 1.60214e-14)
(2764.5 -4.40298e-11 1.42599e-14)
(2764.5 -3.25822e-11 1.61903e-14)
(2764.5 -4.17756e-11 1.37507e-14)
(2764.5 -5.9935e-11 1.43444e-14)
(2764.5 -7.73899e-11 1.62947e-14)
(2764.5 -1.16881e-10 1.21365e-14)
(2764.5 -1.6775e-10 1.46627e-14)
(2764.5 -2.27878e-10 2.01346e-14)
(2764.5 -2.56662e-10 1.35256e-14)
(2764.5 -2.60977e-10 1.38127e-14)
(2764.5 -2.56144e-10 1.56808e-14)
(2764.5 -2.40185e-10 1.43494e-14)
(2764.5 -2.06696e-10 1.56914e-14)
(2764.5 -1.86972e-10 1.25641e-14)
(2764.5 -1.79232e-10 1.7862e-14)
(2764.5 -1.79152e-10 1.84406e-14)
(2764.5 -1.83409e-10 1.53062e-14)
(2764.5 -1.90433e-10 1.52251e-14)
(2764.5 -2.05503e-10 1.87759e-14)
(2764.5 -2.09717e-10 1.57104e-14)
(2764.5 -2.06087e-10 1.58294e-14)
(2764.5 -2.01338e-10 1.61541e-14)
(2764.5 -1.94765e-10 1.29986e-14)
(2764.5 -1.85217e-10 1.59178e-14)
(2764.5 -1.85354e-10 1.73329e-14)
(2764.5 -1.79418e-10 1.57936e-14)
(2764.5 -1.7285e-10 1.26907e-14)
(2764.5 -1.72146e-10 1.69888e-14)
(2764.5 -1.62919e-10 1.50298e-14)
(2764.5 -1.60978e-10 1.29367e-14)
(2764.5 -1.63952e-10 1.32048e-14)
(2764.5 -1.72034e-10 1.39608e-14)
(2764.5 -1.75011e-10 1.37754e-14)
(2764.5 -1.85032e-10 1.37441e-14)
(2764.5 -1.93441e-10 1.35788e-14)
(2764.5 -1.95496e-10 1.28778e-14)
(2764.5 -2.94249e-10 2.77219e-14)
(2764.5 -2.80545e-10 3.35096e-14)
(2764.5 -2.52627e-10 2.57864e-14)
(2764.5 -2.25309e-10 2.60663e-14)
(2764.5 -2.10227e-10 2.66388e-14)
(2764.5 -2.01218e-10 2.52143e-14)
(2764.5 -2.04106e-10 2.81142e-14)
(2764.5 -2.16526e-10 2.92984e-14)
(2764.5 -2.35366e-10 2.46064e-14)
(2764.5 -2.59326e-10 2.33497e-14)
(2764.5 -2.92087e-10 2.92413e-14)
(2764.5 -3.40545e-10 2.81202e-14)
(2764.5 -3.76457e-10 2.75656e-14)
(2764.5 -4.07923e-10 2.69447e-14)
(2764.5 -4.32959e-10 2.79706e-14)
(2764.5 -4.63538e-10 2.4624e-14)
(2764.5 -4.74494e-10 2.41657e-14)
(2764.5 -4.73791e-10 2.46616e-14)
(2764.5 -4.60621e-10 2.41028e-14)
(2764.5 -4.25521e-10 2.41191e-14)
(2764.5 -3.70448e-10 2.07447e-14)
(2764.5 -3.16674e-10 2.5931e-14)
(2764.5 -2.41713e-10 2.53398e-14)
(2764.5 -1.76187e-10 2.33487e-14)
(2764.5 -1.12341e-10 2.28745e-14)
(2764.5 -6.90026e-11 2.22639e-14)
(2764.5 -2.57795e-11 2.59203e-14)
(2764.5 1.77912e-11 2.51819e-14)
(2764.5 6.00984e-11 2.10013e-14)
(2764.5 9.43276e-11 2.49743e-14)
(2764.5 1.26238e-10 2.43869e-14)
(2764.5 1.62127e-10 2.50409e-14)
(2764.5 1.83441e-10 2.39127e-14)
(2764.5 2.00457e-10 2.63164e-14)
(2764.5 2.099e-10 2.62304e-14)
(2764.5 2.05984e-10 2.52566e-14)
(2764.5 1.87034e-10 2.67474e-14)
(2764.5 1.48919e-10 2.40918e-14)
(2764.5 9.0045e-11 2.44255e-14)
(2764.5 2.04405e-11 2.30709e-14)
(2764.5 -5.59552e-11 2.28604e-14)
(2764.5 -1.21942e-10 2.89407e-14)
(2764.5 -1.81095e-10 2.32075e-14)
(2764.5 -2.21345e-10 2.53155e-14)
(2764.5 -2.53993e-10 2.73388e-14)
(2764.5 -2.6387e-10 2.39633e-14)
(2764.5 -2.6635e-10 2.32544e-14)
(2764.5 -2.62333e-10 2.47954e-14)
(2764.5 -2.49511e-10 2.7738e-14)
(2764.5 -2.16583e-10 2.46107e-14)
(2764.5 -1.65379e-10 2.12748e-14)
(2764.5 -8.20087e-11 2.17156e-14)
(2764.5 5.07134e-11 2.24308e-14)
(2764.5 1.54486e-10 2.45497e-14)
(2764.5 1.81663e-10 2.04646e-14)
(2764.5 2.04812e-10 1.99481e-14)
(2764.5 2.33174e-10 2.34106e-14)
(2764.5 2.49901e-10 2.45733e-14)
(2764.5 2.6179e-10 2.19542e-14)
(2764.5 2.60656e-10 2.23726e-14)
(2764.5 2.45498e-10 2.42145e-14)
(2764.5 2.0883e-10 2.21904e-14)
(2764.5 1.64476e-10 2.11681e-14)
(2764.5 1.11598e-10 2.01434e-14)
(2764.5 5.12019e-11 2.00032e-14)
(2764.5 -1.17545e-11 2.04286e-14)
(2764.5 -6.41652e-11 2.08099e-14)
(2764.5 -1.4707e-10 2.09746e-14)
(2764.5 -2.68527e-10 2.07468e-14)
(2764.5 -4.20575e-10 1.99762e-14)
(2764.5 -5.1768e-10 2.21698e-14)
(2764.5 -5.35012e-10 2.16183e-14)
(2764.5 -5.23796e-10 2.132e-14)
(2764.5 -4.89192e-10 2.18221e-14)
(2764.5 -4.32226e-10 1.96054e-14)
(2764.5 -3.78104e-10 1.82435e-14)
(2764.5 -2.86924e-10 2.07651e-14)
(2764.5 -1.81495e-10 2.09551e-14)
(2764.5 -1.34566e-10 2.03927e-14)
(2764.5 -1.21046e-10 2.31079e-14)
(2764.5 -1.44321e-10 2.25744e-14)
(2764.5 -1.88742e-10 2.08078e-14)
(2764.5 -2.36293e-10 1.88481e-14)
(2764.5 -2.90668e-10 1.97479e-14)
(2764.5 -3.3467e-10 2.08082e-14)
(2764.5 -3.45265e-10 1.64632e-14)
(2764.5 -3.39587e-10 1.78701e-14)
(2764.5 -3.20262e-10 2.21241e-14)
(2764.5 -2.76447e-10 2.19099e-14)
(2764.5 -2.57403e-10 1.97471e-14)
(2764.5 -2.56667e-10 2.07273e-14)
(2764.5 -2.58533e-10 2.0191e-14)
(2764.5 -2.69223e-10 1.99699e-14)
(2764.5 -2.7664e-10 2.34284e-14)
(2764.5 -2.80327e-10 2.17416e-14)
(2764.5 -2.77026e-10 1.80075e-14)
(2764.5 -2.67825e-10 2.33308e-14)
(2764.5 -2.64507e-10 2.46602e-14)
(2764.5 -2.53708e-10 1.82876e-14)
(2764.5 -2.47401e-10 2.10206e-14)
(2764.5 -2.38843e-10 2.22983e-14)
(2764.5 -2.35968e-10 2.0642e-14)
(2764.5 -2.339e-10 2.07219e-14)
(2764.5 -2.36391e-10 1.95729e-14)
(2764.5 -2.41189e-10 1.65346e-14)
(2764.5 -2.54655e-10 1.90703e-14)
(2764.5 -4.11862e-10 3.46789e-14)
(2764.5 -4.50043e-10 3.88032e-14)
(2764.5 -4.88944e-10 3.76659e-14)
(2764.5 -5.21495e-10 3.7135e-14)
(2764.5 -5.38407e-10 3.944e-14)
(2764.5 -5.34419e-10 3.66208e-14)
(2764.5 -5.20982e-10 3.51402e-14)
(2764.5 -4.77523e-10 3.71091e-14)
(2764.5 -4.27006e-10 3.79037e-14)
(2764.5 -3.67327e-10 3.90453e-14)
(2764.5 -2.8809e-10 3.49981e-14)
(2764.5 -2.09333e-10 3.29503e-14)
(2764.5 -1.35005e-10 3.41777e-14)
(2764.5 -9.09806e-11 3.19784e-14)
(2764.5 -3.4478e-11 3.11558e-14)
(2764.5 2.57686e-11 3.50628e-14)
(2764.5 5.43226e-11 3.34909e-14)
(2764.5 4.71835e-11 3.52403e-14)
(2764.5 -2.59468e-11 3.5882e-14)
(2764.5 -1.38097e-10 3.33249e-14)
(2764.5 -2.44134e-10 3.43019e-14)
(2764.5 -3.9012e-10 3.2841e-14)
(2764.5 -4.78057e-10 3.41703e-14)
(2764.5 -5.44367e-10 3.84541e-14)
(2764.5 -6.08819e-10 3.55811e-14)
(2764.5 -6.65341e-10 3.3362e-14)
(2764.5 -7.26919e-10 3.4323e-14)
(2764.5 -7.76468e-10 2.88309e-14)
(2764.5 -8.17114e-10 2.75026e-14)
(2764.5 -8.65429e-10 3.07396e-14)
(2764.5 -9.08555e-10 3.08484e-14)
(2764.5 -9.42062e-10 3.08809e-14)
(2764.5 -9.67882e-10 3.1106e-14)
(2764.5 -9.94549e-10 3.10743e-14)
(2764.5 -1.00608e-09 3.15908e-14)
(2764.5 -9.91572e-10 3.17673e-14)
(2764.5 -9.41836e-10 3.33636e-14)
(2764.5 -8.58024e-10 3.551e-14)
(2764.5 -7.04777e-10 2.98926e-14)
(2764.5 -4.12566e-10 2.85577e-14)
(2764.5 -1.39683e-10 3.4974e-14)
(2764.5 3.78227e-11 3.55323e-14)
(2764.5 1.60018e-10 3.42413e-14)
(2764.5 2.05208e-10 3.23539e-14)
(2764.5 1.72158e-10 3.46318e-14)
(2764.5 1.29375e-10 3.56297e-14)
(2764.5 1.17534e-10 3.44111e-14)
(2764.5 1.32748e-10 3.40066e-14)
(2764.5 1.88724e-10 3.2717e-14)
(2764.5 2.55896e-10 3.3672e-14)
(2764.5 2.27523e-10 3.23898e-14)
(2764.5 1.39525e-10 3.04898e-14)
(2764.5 1.84321e-12 3.03277e-14)
(2764.5 -3.16717e-10 3.33325e-14)
(2764.5 -8.17474e-10 3.2519e-14)
(2764.5 -9.692e-10 3.06325e-14)
(2764.5 -1.03091e-09 2.98213e-14)
(2764.5 -1.11619e-09 3.03419e-14)
(2764.5 -1.15122e-09 2.96482e-14)
(2764.5 -1.16868e-09 2.84723e-14)
(2764.5 -1.14516e-09 2.63384e-14)
(2764.5 -1.07224e-09 2.92116e-14)
(2764.5 -9.84246e-10 2.83319e-14)
(2764.5 -9.0305e-10 2.61034e-14)
(2764.5 -8.23487e-10 2.87785e-14)
(2764.5 -7.43875e-10 2.88219e-14)
(2764.5 -6.62058e-10 2.46538e-14)
(2764.5 -5.67507e-10 2.43414e-14)
(2764.5 -4.9463e-10 2.3864e-14)
(2764.5 -3.70749e-10 2.50611e-14)
(2764.5 -6.55643e-11 2.58927e-14)
(2764.5 1.02065e-10 2.66532e-14)
(2764.5 1.15004e-10 2.90916e-14)
(2764.5 8.14563e-11 2.83563e-14)
(2764.5 1.13314e-11 2.56364e-14)
(2764.5 -9.52657e-11 2.81681e-14)
(2764.5 -1.99277e-10 2.78294e-14)
(2764.5 -3.34849e-10 2.77478e-14)
(2764.5 -4.80689e-10 2.82674e-14)
(2764.5 -5.41185e-10 2.83764e-14)
(2764.5 -5.33444e-10 2.93333e-14)
(2764.5 -4.99639e-10 2.86203e-14)
(2764.5 -4.71086e-10 2.74003e-14)
(2764.5 -3.93939e-10 2.34674e-14)
(2764.5 -2.84539e-10 2.65093e-14)
(2764.5 -2.42968e-10 2.72678e-14)
(2764.5 -2.35425e-10 2.72285e-14)
(2764.5 -2.66408e-10 2.65083e-14)
(2764.5 -3.31625e-10 2.82704e-14)
(2764.5 -3.92091e-10 2.66661e-14)
(2764.5 -4.20123e-10 2.70565e-14)
(2764.5 -4.20715e-10 2.89439e-14)
(2764.5 -4.09969e-10 2.68226e-14)
(2764.5 -3.74922e-10 2.64257e-14)
(2764.5 -3.46938e-10 2.70388e-14)
(2764.5 -3.43292e-10 2.61851e-14)
(2764.5 -3.46737e-10 2.48261e-14)
(2764.5 -3.57863e-10 2.96046e-14)
(2764.5 -3.56491e-10 2.51514e-14)
(2764.5 -3.46095e-10 2.62936e-14)
(2764.5 -3.36052e-10 2.72807e-14)
(2764.5 -3.33285e-10 2.41349e-14)
(2764.5 -3.23577e-10 2.34893e-14)
(2764.5 -3.16815e-10 2.56794e-14)
(2764.5 -3.06963e-10 2.56303e-14)
(2764.5 -3.02448e-10 2.50894e-14)
(2764.5 -3.01248e-10 2.66942e-14)
(2764.5 -2.23824e-10 4.28535e-14)
(2764.5 -1.52731e-10 4.39062e-14)
(2764.5 -9.83547e-11 4.49047e-14)
(2764.5 -7.80752e-11 4.22736e-14)
(2764.5 -1.10276e-10 4.32113e-14)
(2764.5 -2.14581e-10 4.45453e-14)
(2764.5 -3.13503e-10 4.80063e-14)
(2764.5 -4.42939e-10 4.30335e-14)
(2764.5 -5.60566e-10 4.5954e-14)
(2764.5 -6.30261e-10 4.85401e-14)
(2764.5 -7.11289e-10 4.5655e-14)
(2764.5 -7.86245e-10 4.66319e-14)
(2764.5 -8.62361e-10 4.53865e-14)
(2764.5 -9.18405e-10 4.42897e-14)
(2764.5 -9.75068e-10 4.65023e-14)
(2764.5 -1.01336e-09 4.38096e-14)
(2764.5 -1.01845e-09 4.11254e-14)
(2764.5 -9.08515e-10 4.17022e-14)
(2764.5 -5.4468e-10 4.25527e-14)
(2764.5 3.12154e-11 4.31194e-14)
(2764.5 2.96992e-10 4.35922e-14)
(2764.5 4.66898e-10 4.38185e-14)
(2764.5 6.26082e-10 4.63046e-14)
(2764.5 7.72902e-10 4.65768e-14)
(2764.5 9.22217e-10 4.03621e-14)
(2764.5 1.08353e-09 4.15956e-14)
(2764.5 1.26544e-09 4.22261e-14)
(2764.5 1.43581e-09 4.11251e-14)
(2764.5 1.61648e-09 4.38045e-14)
(2764.5 1.83405e-09 4.27545e-14)
(2764.5 2.05838e-09 4.34867e-14)
(2764.5 2.28281e-09 4.32167e-14)
(2764.5 2.50908e-09 4.43992e-14)
(2764.5 2.7475e-09 4.2607e-14)
(2764.5 3.00167e-09 4.44369e-14)
(2764.5 3.21668e-09 4.40594e-14)
(2764.5 3.31857e-09 4.19066e-14)
(2764.5 3.34972e-09 4.0462e-14)
(2764.5 3.36732e-09 3.9138e-14)
(2764.5 3.19758e-09 3.99327e-14)
(2764.5 3.20607e-09 4.01483e-14)
(2764.5 3.2618e-09 4.04134e-14)
(2764.5 3.37409e-09 4.07068e-14)
(2764.5 3.56129e-09 3.88973e-14)
(2764.5 3.75687e-09 4.24474e-14)
(2764.5 3.89533e-09 4.15943e-14)
(2764.5 3.92725e-09 4.04911e-14)
(2764.5 3.88633e-09 4.04586e-14)
(2764.5 3.73956e-09 3.94508e-14)
(2764.5 3.49017e-09 4.13508e-14)
(2764.5 3.26137e-09 3.94111e-14)
(2764.5 3.05721e-09 3.60631e-14)
(2764.5 2.95693e-09 3.86732e-14)
(2764.5 3.0351e-09 4.02309e-14)
(2764.5 3.29682e-09 4.37838e-14)
(2764.5 3.27364e-09 4.36135e-14)
(2764.5 3.0777e-09 4.11835e-14)
(2764.5 2.87003e-09 3.70254e-14)
(2764.5 2.62588e-09 3.6328e-14)
(2764.5 2.35975e-09 3.86668e-14)
(2764.5 2.09449e-09 3.84871e-14)
(2764.5 1.83661e-09 3.7582e-14)
(2764.5 1.55285e-09 3.6517e-14)
(2764.5 1.26034e-09 4.05091e-14)
(2764.5 1.02794e-09 3.5996e-14)
(2764.5 8.53487e-10 3.51477e-14)
(2764.5 6.54568e-10 4.35235e-14)
(2764.5 3.63084e-10 3.85248e-14)
(2764.5 1.31758e-10 3.42977e-14)
(2764.5 -3.51205e-10 3.64683e-14)
(2764.5 -9.76714e-10 3.67276e-14)
(2764.5 -1.19044e-09 3.01995e-14)
(2764.5 -1.17762e-09 3.08783e-14)
(2764.5 -1.07844e-09 3.22737e-14)
(2764.5 -9.16127e-10 3.22126e-14)
(2764.5 -7.38919e-10 3.26181e-14)
(2764.5 -5.82593e-10 3.2791e-14)
(2764.5 -4.33639e-10 3.42406e-14)
(2764.5 -1.09797e-10 3.54637e-14)
(2764.5 8.64245e-12 3.26401e-14)
(2764.5 1.63406e-13 3.12531e-14)
(2764.5 -8.26418e-11 3.29991e-14)
(2764.5 -2.0778e-10 3.49108e-14)
(2764.5 -3.72249e-10 3.59632e-14)
(2764.5 -5.30507e-10 3.60426e-14)
(2764.5 -5.79039e-10 3.23491e-14)
(2764.5 -5.71728e-10 3.24891e-14)
(2764.5 -5.39574e-10 3.31848e-14)
(2764.5 -4.66693e-10 3.46461e-14)
(2764.5 -3.78783e-10 3.23507e-14)
(2764.5 -3.56621e-10 3.32628e-14)
(2764.5 -3.62974e-10 3.23854e-14)
(2764.5 -4.03438e-10 3.05624e-14)
(2764.5 -4.54143e-10 3.44648e-14)
(2764.5 -4.81998e-10 3.41387e-14)
(2764.5 -4.7994e-10 3.1281e-14)
(2764.5 -4.65392e-10 2.91516e-14)
(2764.5 -4.47022e-10 3.17483e-14)
(2764.5 -4.33899e-10 3.14817e-14)
(2764.5 -4.2798e-10 2.7908e-14)
(2764.5 -4.28364e-10 3.40867e-14)
(2764.5 -4.2714e-10 3.2175e-14)
(2764.5 -4.22988e-10 3.25461e-14)
(2764.5 -4.20462e-10 3.23402e-14)
(2764.5 -4.11623e-10 3.02965e-14)
(2764.5 -4.04011e-10 2.91868e-14)
(2764.5 -3.9266e-10 3.19025e-14)
(2764.5 -7.2903e-10 5.33116e-14)
(2764.5 -8.0024e-10 5.31591e-14)
(2764.5 -8.66256e-10 5.41613e-14)
(2764.5 -9.43974e-10 4.98407e-14)
(2764.5 -9.94352e-10 5.06355e-14)
(2764.5 -1.01368e-09 5.03574e-14)
(2764.5 -9.42116e-10 5.20473e-14)
(2764.5 -6.13954e-10 5.5864e-14)
(2764.5 -1.85323e-10 5.46743e-14)
(2764.5 2.64762e-10 5.4722e-14)
(2764.5 4.9905e-10 5.08511e-14)
(2764.5 7.03575e-10 5.22361e-14)
(2764.5 9.26695e-10 5.90084e-14)
(2764.5 1.17154e-09 5.5714e-14)
(2764.5 1.4525e-09 5.38617e-14)
(2764.5 1.74526e-09 5.43038e-14)
(2764.5 2.06008e-09 5.3912e-14)
(2764.5 2.43839e-09 5.43863e-14)
(2764.5 2.89865e-09 5.38638e-14)
(2764.5 3.27507e-09 5.39911e-14)
(2764.5 3.49503e-09 5.19633e-14)
(2764.5 3.40361e-09 5.09412e-14)
(2764.5 3.7373e-09 5.02002e-14)
(2764.5 4.32295e-09 4.91246e-14)
(2764.5 5.02911e-09 4.92005e-14)
(2764.5 5.77777e-09 5.20636e-14)
(2764.5 6.53616e-09 5.26048e-14)
(2764.5 7.31395e-09 5.11482e-14)
(2764.5 8.13936e-09 5.16851e-14)
(2764.5 9.0176e-09 5.09008e-14)
(2764.5 9.93689e-09 4.98434e-14)
(2764.5 1.09168e-08 4.92706e-14)
(2764.5 1.19671e-08 5.14543e-14)
(2764.5 1.30524e-08 5.30163e-14)
(2764.5 1.41509e-08 5.11693e-14)
(2764.5 1.52754e-08 4.97747e-14)
(2764.5 1.6423e-08 4.70545e-14)
(2764.5 1.76064e-08 4.84295e-14)
(2764.5 1.88104e-08 4.85199e-14)
(2764.5 2.00301e-08 4.84199e-14)
(2764.5 2.11809e-08 4.8353e-14)
(2764.5 2.22822e-08 4.87069e-14)
(2764.5 2.32347e-08 4.62631e-14)
(2764.5 2.40764e-08 4.60007e-14)
(2764.5 2.4789e-08 4.83381e-14)
(2764.5 2.54053e-08 4.83331e-14)
(2764.5 2.59391e-08 4.69741e-14)
(2764.5 2.63433e-08 4.79056e-14)
(2764.5 2.66207e-08 4.90807e-14)
(2764.5 2.67366e-08 4.90211e-14)
(2764.5 2.67101e-08 4.62683e-14)
(2764.5 2.64985e-08 4.57803e-14)
(2764.5 2.61094e-08 4.70214e-14)
(2764.5 2.56081e-08 4.57683e-14)
(2764.5 2.50491e-08 4.8927e-14)
(2764.5 2.43313e-08 4.53212e-14)
(2764.5 2.325e-08 4.1668e-14)
(2764.5 2.17698e-08 4.84685e-14)
(2764.5 2.02149e-08 4.80361e-14)
(2764.5 1.8665e-08 4.47208e-14)
(2764.5 1.70806e-08 4.42701e-14)
(2764.5 1.54869e-08 4.6941e-14)
(2764.5 1.39324e-08 4.33278e-14)
(2764.5 1.24602e-08 4.33805e-14)
(2764.5 1.10613e-08 4.51751e-14)
(2764.5 9.71042e-09 4.07764e-14)
(2764.5 8.39563e-09 4.8416e-14)
(2764.5 7.17817e-09 4.55295e-14)
(2764.5 6.20584e-09 4.39527e-14)
(2764.5 5.32744e-09 4.66867e-14)
(2764.5 4.20944e-09 4.389e-14)
(2764.5 3.3932e-09 4.35709e-14)
(2764.5 3.23627e-09 4.27098e-14)
(2764.5 2.89724e-09 4.23321e-14)
(2764.5 2.32548e-09 4.50539e-14)
(2764.5 1.71845e-09 4.3327e-14)
(2764.5 1.29439e-09 4.33548e-14)
(2764.5 8.89883e-10 4.37859e-14)
(2764.5 4.2871e-10 4.14665e-14)
(2764.5 2.14644e-10 4.21431e-14)
(2764.5 -4.12634e-10 4.08575e-14)
(2764.5 -1.08846e-09 3.9008e-14)
(2764.5 -1.20957e-09 3.68597e-14)
(2764.5 -1.1276e-09 3.66763e-14)
(2764.5 -9.35652e-10 3.89925e-14)
(2764.5 -7.02969e-10 3.81676e-14)
(2764.5 -5.39298e-10 3.88113e-14)
(2764.5 -2.06571e-10 3.92669e-14)
(2764.5 -1.05568e-10 3.80434e-14)
(2764.5 -1.40081e-10 3.83161e-14)
(2764.5 -2.62382e-10 3.71414e-14)
(2764.5 -4.26063e-10 4.00511e-14)
(2764.5 -5.86434e-10 4.05231e-14)
(2764.5 -6.33287e-10 3.63393e-14)
(2764.5 -6.2539e-10 3.70703e-14)
(2764.5 -5.78872e-10 4.09058e-14)
(2764.5 -4.98245e-10 3.83414e-14)
(2764.5 -4.63247e-10 4.05189e-14)
(2764.5 -4.61481e-10 4.00078e-14)
(2764.5 -4.808e-10 3.85697e-14)
(2764.5 -5.16548e-10 3.62638e-14)
(2764.5 -5.36789e-10 3.60232e-14)
(2764.5 -5.35814e-10 3.74121e-14)
(2764.5 -5.27778e-10 3.64192e-14)
(2764.5 -5.15746e-10 3.87605e-14)
(2764.5 -5.05075e-10 3.85641e-14)
(2764.5 -5.03962e-10 3.77106e-14)
(2764.5 -5.00497e-10 3.88048e-14)
(2764.5 -4.91737e-10 3.47104e-14)
(2764.5 -4.88841e-10 3.67619e-14)
(2764.5 1.15651e-09 6.22274e-14)
(2764.5 1.48841e-09 6.33524e-14)
(2764.5 1.86375e-09 6.48681e-14)
(2764.5 2.2558e-09 6.14452e-14)
(2764.5 2.76967e-09 6.42448e-14)
(2764.5 3.30285e-09 6.48452e-14)
(2764.5 3.78484e-09 6.46243e-14)
(2764.5 3.65962e-09 6.10439e-14)
(2764.5 4.01759e-09 6.30676e-14)
(2764.5 4.73665e-09 6.24192e-14)
(2764.5 5.617e-09 5.96116e-14)
(2764.5 6.59369e-09 6.1824e-14)
(2764.5 7.67927e-09 6.39195e-14)
(2764.5 8.91488e-09 6.16301e-14)
(2764.5 1.03167e-08 5.82742e-14)
(2764.5 1.18737e-08 5.99214e-14)
(2764.5 1.36222e-08 6.37312e-14)
(2764.5 1.56522e-08 6.28686e-14)
(2764.5 1.78835e-08 6.20103e-14)
(2764.5 2.05944e-08 5.88997e-14)
(2764.5 2.3416e-08 5.98064e-14)
(2764.5 2.64241e-08 5.91227e-14)
(2764.5 2.954e-08 6.0312e-14)
(2764.5 3.30297e-08 6.17683e-14)
(2764.5 3.70371e-08 5.83471e-14)
(2764.5 4.16052e-08 5.79517e-14)
(2764.5 4.67326e-08 6.05621e-14)
(2764.5 5.24363e-08 6.1251e-14)
(2764.5 5.87483e-08 5.93563e-14)
(2764.5 6.5712e-08 5.53606e-14)
(2764.5 7.33751e-08 5.36329e-14)
(2764.5 8.17705e-08 5.86348e-14)
(2764.5 9.08776e-08 5.91074e-14)
(2764.5 1.00604e-07 5.43876e-14)
(2764.5 1.1082e-07 5.43884e-14)
(2764.5 1.21408e-07 5.72036e-14)
(2764.5 1.32253e-07 5.58225e-14)
(2764.5 1.43158e-07 5.60588e-14)
(2764.5 1.53943e-07 5.49295e-14)
(2764.5 1.64472e-07 5.72103e-14)
(2764.5 1.74593e-07 5.64687e-14)
(2764.5 1.84196e-07 5.54779e-14)
(2764.5 1.93038e-07 5.41848e-14)
(2764.5 2.00943e-07 5.55362e-14)
(2764.5 2.07822e-07 5.47486e-14)
(2764.5 2.13346e-07 5.4369e-14)
(2764.5 2.17343e-07 5.58645e-14)
(2764.5 2.19932e-07 5.64121e-14)
(2764.5 2.20841e-07 5.33522e-14)
(2764.5 2.19866e-07 5.38761e-14)
(2764.5 2.17255e-07 5.29896e-14)
(2764.5 2.13214e-07 5.46277e-14)
(2764.5 2.07774e-07 5.18255e-14)
(2764.5 2.01065e-07 5.37335e-14)
(2764.5 1.93182e-07 5.50546e-14)
(2764.5 1.84106e-07 5.14697e-14)
(2764.5 1.74015e-07 5.34621e-14)
(2764.5 1.63445e-07 5.16891e-14)
(2764.5 1.52823e-07 5.32851e-14)
(2764.5 1.42362e-07 5.50919e-14)
(2764.5 1.32031e-07 5.22676e-14)
(2764.5 1.21651e-07 5.37235e-14)
(2764.5 1.11119e-07 5.2475e-14)
(2764.5 1.00483e-07 5.11008e-14)
(2764.5 8.98191e-08 4.87905e-14)
(2764.5 7.91709e-08 5.06466e-14)
(2764.5 6.87312e-08 5.43685e-14)
(2764.5 5.91223e-08 4.88841e-14)
(2764.5 5.05791e-08 5.0855e-14)
(2764.5 4.23954e-08 5.39922e-14)
(2764.5 3.47076e-08 4.99414e-14)
(2764.5 2.84152e-08 4.96121e-14)
(2764.5 2.3243e-08 4.92797e-14)
(2764.5 1.8741e-08 5.22805e-14)
(2764.5 1.46949e-08 4.99791e-14)
(2764.5 1.1299e-08 4.78155e-14)
(2764.5 8.7956e-09 5.01249e-14)
(2764.5 6.75147e-09 4.87718e-14)
(2764.5 4.84069e-09 4.73841e-14)
(2764.5 3.67236e-09 4.76791e-14)
(2764.5 3.28831e-09 4.70111e-14)
(2764.5 2.64432e-09 4.59896e-14)
(2764.5 1.89571e-09 4.8242e-14)
(2764.5 1.26849e-09 4.8046e-14)
(2764.5 6.06877e-10 4.84295e-14)
(2764.5 1.42588e-10 4.95112e-14)
(2764.5 -4.42088e-10 5.02992e-14)
(2764.5 -1.13765e-09 4.01099e-14)
(2764.5 -1.21358e-09 4.08297e-14)
(2764.5 -1.05608e-09 4.1423e-14)
(2764.5 -8.15985e-10 4.3004e-14)
(2764.5 -6.15458e-10 4.16514e-14)
(2764.5 -2.99243e-10 4.46781e-14)
(2764.5 -2.32759e-10 4.34602e-14)
(2764.5 -2.76509e-10 4.44339e-14)
(2764.5 -4.31821e-10 4.4651e-14)
(2764.5 -6.11909e-10 4.49914e-14)
(2764.5 -6.82621e-10 4.36657e-14)
(2764.5 -6.83556e-10 4.24563e-14)
(2764.5 -6.56613e-10 4.48621e-14)
(2764.5 -5.81421e-10 4.58137e-14)
(2764.5 -5.46329e-10 4.50233e-14)
(2764.5 -5.43596e-10 4.41592e-14)
(2764.5 -5.67266e-10 4.17974e-14)
(2764.5 -5.91046e-10 4.34975e-14)
(2764.5 -5.96064e-10 4.14515e-14)
(2764.5 -5.93263e-10 4.19929e-14)
(2764.5 -5.81522e-10 4.24193e-14)
(2764.5 -5.7161e-10 4.30266e-14)
(2764.5 -5.67237e-10 4.16974e-14)
(2764.5 9.1657e-09 7.29277e-14)
(2764.5 1.0823e-08 7.14075e-14)
(2764.5 1.2725e-08 7.1114e-14)
(2764.5 1.48937e-08 7.13419e-14)
(2764.5 1.74556e-08 7.38862e-14)
(2764.5 2.04415e-08 7.16397e-14)
(2764.5 2.41703e-08 6.97267e-14)
(2764.5 2.81011e-08 7.16703e-14)
(2764.5 3.25301e-08 7.40395e-14)
(2764.5 3.75413e-08 7.18477e-14)
(2764.5 4.33249e-08 7.07839e-14)
(2764.5 4.99905e-08 6.84914e-14)
(2764.5 5.76782e-08 7.02404e-14)
(2764.5 6.6532e-08 6.8188e-14)
(2764.5 7.6643e-08 6.90004e-14)