/*--------------------------------*- C++ -*----------------------------------*\
| =========                 |                                                 |
| \\      /  F ield         | OpenFOAM: The Open Source CFD Toolbox           |
|  \\    /   O peration     | Version:  v1706                                 |
|   \\  /    A nd           | Web:      www.OpenFOAM.com                      |
|    \\/     M anipulation  |                                                 |
\*---------------------------------------------------------------------------*/
FoamFile
{
    version     2.0;
    format      ascii;
    class       volScalarField;
    location    "1.1e-05";
    object      wallHeatFlux;
}
// * * * * * * * * * * * * * * * * * * * * * * * * * * * * * * * * * * * * * //

dimensions      [1 0 -3 0 0 0 0];


internalField   uniform 0;

boundaryField
{
    cone
    {
        type            calculated;
        value           nonuniform List<scalar> 
181
(
168734
166510
162529
156547
148362
137910
125369
111248
96365.6
81682.3
68066
56096.1
46009.1
37765.6
31163.5
25937.2
21821.2
18581.3
16024.5
13998.1
12383.5
11090.3
10049.6
9208.64
8527.84
7976.25
7531.08
7175.27
6894.01
6676.32
6513.77
6399.77
6329.13
6297.77
6302.49
6340.74
6410.68
6511.18
6641.27
6800.17
6987.61
7203.55
7448.17
7721.86
8025.22
8359.03
8724.23
9121.98
9553.59
10020.6
10524.7
11067.8
11652
12279.7
12953.5
13676.3
14451.1
15281.4
16171
17124
18144.8
19238.3
20409.9
21665.3
23010.9
24453.4
26000.4
27659.9
29440.7
31352
33404.2
35607.9
37974.7
40516.8
43246.9
46178.1
49323.4
52695.9
56307.4
60168.2
64285.6
68662.1
73293.7
78166.2
83251.6
88503.4
93850.4
99191.5
104391
109275
113632
117217
119781
121093
120992
119436
116506
112422
107499
102112
96634.1
91369.4
86520.1
82188.3
78397.2
75116.3
72286.1
69835.7
67695.4
65803.6
64109.4
62573.7
61167.3
59870
58667.7
57551.5
56515.5
55555.5
54668.7
53852.8
53105.7
52425.2
51809.3
51256
50763.1
50328.1
49950
49627.7
49360.1
49147
48988.4
48884.6
48836.1
48843.6
48907.8
49029.4
49208.9
49447
49744.3
50101.5
50519.3
50998.6
51539.9
52143.7
52809.9
53538.2
54327.5
55176
56080.7
57037.6
58041.3
59084.7
60159.1
61253.8
62356.4
63452.7
64527
65562.3
66541
67445.1
68256.9
68959.3
69536.5
69974.6
70265.4
70414.1
70444.4
70365.6
70177.5
69902.7
69571.3
69209.1
68840.5
68488.1
68172.1
67908.3
67708.5
67580.4
67527.8
67551.2
67648.8
)
;
    }
    inlet
    {
        type            calculated;
        value           uniform 0;
    }
    rWedge
    {
        type            wedge;
    }
    lWedge
    {
        type            wedge;
    }
    outlet
    {
        type            calculated;
        value           nonuniform 0();
    }
    procBoundary1to0
    {
        type            processor;
        value           uniform 0;
    }
    procBoundary1to2
    {
        type            processor;
        value           uniform 0;
    }
}


// ************************************************************************* //
