/*--------------------------------*- C++ -*----------------------------------*\
| =========                 |                                                 |
| \\      /  F ield         | OpenFOAM: The Open Source CFD Toolbox           |
|  \\    /   O peration     | Version:  v1706                                 |
|   \\  /    A nd           | Web:      www.OpenFOAM.com                      |
|    \\/     M anipulation  |                                                 |
\*---------------------------------------------------------------------------*/
FoamFile
{
    version     2.0;
    format      ascii;
    class       volScalarField;
    location    "1.3e-05";
    object      kappave;
}
// * * * * * * * * * * * * * * * * * * * * * * * * * * * * * * * * * * * * * //

dimensions      [1 1 -3 -1 0 0 0];


internalField   nonuniform List<scalar> 
30038
(
1.46038e-10
1.46038e-10
1.46038e-10
1.46038e-10
1.46038e-10
1.46038e-10
1.46038e-10
1.46038e-10
1.46038e-10
1.46038e-10
1.46038e-10
1.46038e-10
1.46038e-10
1.46038e-10
1.46038e-10
1.46038e-10
1.46038e-10
1.46038e-10
1.46038e-10
1.46038e-10
1.46038e-10
1.46038e-10
1.46038e-10
1.46038e-10
1.46038e-10
1.46038e-10
1.46038e-10
1.46038e-10
1.46038e-10
1.46038e-10
1.46038e-10
1.46038e-10
1.46038e-10
1.46038e-10
1.46038e-10
1.46038e-10
1.46038e-10
1.46038e-10
1.46038e-10
1.46038e-10
1.46038e-10
1.46038e-10
1.46038e-10
1.46038e-10
1.46038e-10
1.46038e-10
1.46038e-10
1.46038e-10
1.46038e-10
1.46038e-10
1.46038e-10
1.46038e-10
1.46038e-10
1.46038e-10
1.46038e-10
1.46038e-10
1.46038e-10
1.46038e-10
1.46038e-10
1.46038e-10
1.46038e-10
1.46038e-10
1.46038e-10
1.46038e-10
1.46038e-10
1.46038e-10
1.46038e-10
1.46038e-10
1.46038e-10
1.46038e-10
1.46038e-10
1.46038e-10
1.46038e-10
1.46038e-10
1.46038e-10
1.46038e-10
1.46038e-10
1.46038e-10
1.46038e-10
1.46038e-10
1.46038e-10
1.46038e-10
1.46038e-10
1.46038e-10
1.46038e-10
1.46038e-10
1.46038e-10
1.46038e-10
1.46038e-10
1.46038e-10
1.46038e-10
1.46038e-10
1.46038e-10
1.46038e-10
1.46038e-10
1.46038e-10
1.46038e-10
1.46038e-10
1.46038e-10
1.46038e-10
1.46038e-10
1.46038e-10
1.46038e-10
1.46038e-10
1.46038e-10
1.46038e-10
1.46038e-10
1.46038e-10
1.46038e-10
1.46038e-10
1.46038e-10
1.46038e-10
1.46038e-10
1.46038e-10
1.46038e-10
1.46038e-10
1.46038e-10
1.46038e-10
1.46038e-10
1.46038e-10
1.46038e-10
1.46038e-10
1.46038e-10
1.46038e-10
1.46038e-10
1.46038e-10
1.46038e-10
1.46038e-10
1.46038e-10
1.46038e-10
1.46038e-10
1.46038e-10
1.46038e-10
1.46038e-10
1.46038e-10
1.46038e-10
1.46038e-10
1.46038e-10
1.46038e-10
1.46038e-10
1.46038e-10
1.46038e-10
1.46038e-10
1.46038e-10
1.46038e-10
1.46038e-10
1.46038e-10
1.46038e-10
1.46038e-10
1.46038e-10
1.46038e-10
1.46038e-10
1.46038e-10
1.46038e-10
1.46038e-10
1.46038e-10
1.46038e-10
1.46038e-10
1.46038e-10
1.46038e-10
1.46038e-10
1.46038e-10
1.46038e-10
1.46038e-10
1.46038e-10
1.46038e-10
1.46038e-10
1.46038e-10
1.46038e-10
1.46038e-10
1.46038e-10
1.46038e-10
1.46038e-10
1.46038e-10
1.46038e-10
1.46038e-10
1.46038e-10
1.46038e-10
1.46038e-10
1.46038e-10
1.46038e-10
1.46038e-10
1.46038e-10
1.46038e-10
1.46038e-10
1.46038e-10
1.46038e-10
1.46038e-10
1.46038e-10
1.46038e-10
1.46038e-10
1.46038e-10
1.46038e-10
1.46038e-10
1.46038e-10
1.46038e-10
1.46038e-10
1.46038e-10
1.46038e-10
1.46038e-10
1.46038e-10
1.46038e-10
1.46038e-10
1.46038e-10
1.46038e-10
1.46038e-10
1.46038e-10
1.46038e-10
1.46038e-10
1.46038e-10
1.46038e-10
1.46038e-10
1.46038e-10
1.46038e-10
1.46038e-10
1.46038e-10
1.46038e-10
1.46038e-10
1.46038e-10
1.46038e-10
1.46038e-10
1.46038e-10
1.46038e-10
1.46038e-10
1.46038e-10
1.46038e-10
1.46038e-10
1.46038e-10
1.46038e-10
1.46038e-10
1.46038e-10
1.46038e-10
1.46038e-10
1.46038e-10
1.46038e-10
1.46038e-10
1.46038e-10
1.46038e-10
1.46038e-10
1.46038e-10
1.46038e-10
1.46038e-10
1.46038e-10
1.46038e-10
1.46038e-10
1.46038e-10
1.46038e-10
1.46038e-10
1.46038e-10
1.46038e-10
1.46038e-10
1.46038e-10
1.46038e-10
1.46038e-10
1.46038e-10
1.46038e-10
1.46038e-10
1.46038e-10
1.46038e-10
1.46038e-10
1.46038e-10
1.46038e-10
1.46038e-10
1.46038e-10
1.46038e-10
1.46038e-10
1.46038e-10
1.46038e-10
1.46038e-10
1.46038e-10
1.46038e-10
1.46038e-10
1.46038e-10
1.46038e-10
1.46038e-10
1.46038e-10
1.46038e-10
1.46038e-10
1.46038e-10
1.46038e-10
1.46038e-10
1.46038e-10
1.46038e-10
1.46038e-10
1.46038e-10
1.46038e-10
1.46038e-10
1.46038e-10
1.46038e-10
1.46038e-10
1.46038e-10
1.46038e-10
1.46038e-10
1.46038e-10
1.46038e-10
1.46038e-10
1.46038e-10
1.46038e-10
1.46038e-10
1.46038e-10
1.46038e-10
1.46038e-10
1.46038e-10
1.46038e-10
1.46038e-10
1.46038e-10
1.46038e-10
1.46038e-10
1.46038e-10
1.46038e-10
1.46038e-10
1.46038e-10
1.46038e-10
1.46038e-10
1.46038e-10
1.46038e-10
1.46038e-10
1.46038e-10
1.46038e-10
1.46038e-10
1.46038e-10
1.46038e-10
1.46038e-10
1.46038e-10
1.46038e-10
1.46038e-10
1.46038e-10
1.46038e-10
1.46038e-10
1.46038e-10
1.46038e-10
1.46038e-10
1.46038e-10
1.46038e-10
1.46038e-10
1.46038e-10
1.46038e-10
1.46038e-10
1.46038e-10
1.46038e-10
1.46038e-10
1.46038e-10
1.46038e-10
1.46038e-10
1.46038e-10
1.46038e-10
1.46038e-10
1.46038e-10
1.46038e-10
1.46038e-10
1.46038e-10
1.46038e-10
1.46038e-10
1.46038e-10
1.46038e-10
1.46038e-10
1.46038e-10
1.46038e-10
1.46038e-10
1.46038e-10
1.46038e-10
1.46038e-10
1.46038e-10
1.46038e-10
1.46038e-10
1.46038e-10
1.46038e-10
1.46038e-10
1.46038e-10
1.46038e-10
1.46038e-10
1.46038e-10
1.46038e-10
1.46038e-10
1.46038e-10
1.46038e-10
1.46038e-10
1.46038e-10
1.46038e-10
1.46038e-10
1.46038e-10
1.46038e-10
1.46038e-10
1.46038e-10
1.46038e-10
1.46038e-10
1.46038e-10
1.46038e-10
1.46038e-10
1.46038e-10
1.46038e-10
1.46038e-10
1.46038e-10
1.46038e-10
1.46038e-10
1.46038e-10
1.46038e-10
1.46038e-10
1.46038e-10
1.46038e-10
1.46038e-10
1.46038e-10
1.46038e-10
1.46038e-10
1.46038e-10
1.46038e-10
1.46038e-10
1.46038e-10
1.46038e-10
1.46038e-10
1.46038e-10
1.46038e-10
1.46038e-10
1.46038e-10
1.46038e-10
1.46038e-10
1.46038e-10
1.46038e-10
1.46038e-10
1.46038e-10
1.46038e-10
1.46038e-10
1.46038e-10
1.46038e-10
1.46038e-10
1.46038e-10
1.46038e-10
1.46038e-10
1.46038e-10
1.46038e-10
1.46038e-10
1.46038e-10
1.46038e-10
1.46038e-10
1.46038e-10
1.46038e-10
1.46038e-10
1.46038e-10
1.46038e-10
1.46038e-10
1.46038e-10
1.46038e-10
1.46038e-10
1.46038e-10
1.46038e-10
1.46038e-10
1.46038e-10
1.46038e-10
1.46038e-10
1.46038e-10
1.46038e-10
1.46038e-10
1.46038e-10
1.46038e-10
1.46038e-10
1.46038e-10
1.46038e-10
1.46038e-10
1.46038e-10
1.46038e-10
1.46038e-10
1.46038e-10
1.46038e-10
1.46038e-10
1.46038e-10
1.46038e-10
1.46038e-10
1.46038e-10
1.46038e-10
1.46038e-10
1.46038e-10
1.46038e-10
1.46038e-10
1.46038e-10
1.46038e-10
1.46038e-10
1.46038e-10
1.46038e-10
1.46038e-10
1.46038e-10
1.46038e-10
1.46038e-10
1.46038e-10
1.46038e-10
1.46038e-10
1.46038e-10
1.46038e-10
1.46038e-10
1.46038e-10
1.46038e-10
1.46038e-10
1.46038e-10
1.46038e-10
1.46038e-10
1.46038e-10
1.46038e-10
1.46038e-10
1.46038e-10
1.46038e-10
1.46038e-10
1.46038e-10
1.46038e-10
1.46038e-10
1.46038e-10
1.46038e-10
1.46038e-10
1.46038e-10
1.46038e-10
1.46038e-10
1.46038e-10
1.46038e-10
1.46038e-10
1.46038e-10
1.46038e-10
1.46038e-10
1.46038e-10
1.46038e-10
1.46038e-10
1.46038e-10
1.46038e-10
1.46038e-10
1.46038e-10
1.46038e-10
1.46038e-10
1.46038e-10
1.46038e-10
1.46038e-10
1.46038e-10
1.46038e-10
1.46038e-10
1.46038e-10
1.46038e-10
1.46038e-10
1.46038e-10
1.46038e-10
1.46038e-10
1.46038e-10
1.46038e-10
1.46038e-10
1.46038e-10
1.46038e-10
1.46038e-10
1.46038e-10
1.46038e-10
1.46038e-10
1.46038e-10
1.46038e-10
1.46038e-10
1.46038e-10
1.46038e-10
1.46038e-10
1.46038e-10
1.46038e-10
1.46038e-10
1.46038e-10
1.46038e-10
1.46038e-10
1.46038e-10
1.46038e-10
1.46038e-10
1.46038e-10
1.46038e-10
1.46038e-10
1.46038e-10
1.46038e-10
1.46038e-10
1.46038e-10
1.46038e-10
1.46038e-10
1.46038e-10
1.46038e-10
1.46038e-10
1.46038e-10
1.46038e-10
1.46038e-10
1.46038e-10
1.46038e-10
1.46038e-10
1.46038e-10
1.46038e-10
1.46038e-10
1.46038e-10
1.46038e-10
1.46038e-10
1.46038e-10
1.46038e-10
1.46038e-10
1.46038e-10
1.46038e-10
1.46038e-10
1.46038e-10
1.46038e-10
1.46038e-10
1.46038e-10
1.46038e-10
1.46038e-10
1.46038e-10
1.46038e-10
1.46038e-10
1.46038e-10
1.46038e-10
1.46038e-10
1.46038e-10
1.46038e-10
1.46038e-10
1.46038e-10
1.46038e-10
1.46038e-10
1.46038e-10
1.46038e-10
1.46038e-10
1.46038e-10
1.46038e-10
1.46038e-10
1.46038e-10
1.46038e-10
1.46038e-10
1.46038e-10
1.46038e-10
1.46038e-10
1.46038e-10
1.46038e-10
1.46038e-10
1.46038e-10
1.46038e-10
1.46038e-10
1.46038e-10
1.46038e-10
1.46038e-10
1.46038e-10
1.46038e-10
1.46038e-10
1.46038e-10
1.46038e-10
1.46038e-10
1.46038e-10
1.46038e-10
1.46038e-10
1.46038e-10
1.46038e-10
1.46038e-10
1.46038e-10
1.46038e-10
1.46038e-10
1.46038e-10
1.46038e-10
1.46038e-10
1.46038e-10
1.46038e-10
1.46038e-10
1.46038e-10
1.46038e-10
1.46038e-10
1.46038e-10
1.46038e-10
1.46038e-10
1.46038e-10
1.46038e-10
1.46038e-10
1.46038e-10
1.46038e-10
1.46038e-10
1.46038e-10
1.46038e-10
1.46038e-10
1.46038e-10
1.46038e-10
1.46038e-10
1.46038e-10
1.46038e-10
1.46038e-10
1.46038e-10
1.46038e-10
1.46038e-10
1.46038e-10
1.46038e-10
1.46038e-10
1.46038e-10
1.46038e-10
1.46038e-10
1.46038e-10
1.46038e-10
1.46038e-10
1.46038e-10
1.46038e-10
1.46038e-10
1.46038e-10
1.46038e-10
1.46038e-10
1.46038e-10
1.46038e-10
1.46038e-10
1.46038e-10
1.46038e-10
1.46038e-10
1.46038e-10
1.46038e-10
1.46038e-10
1.46038e-10
1.46038e-10
1.46038e-10
1.46038e-10
1.46038e-10
1.46038e-10
1.46038e-10
1.46038e-10
1.46038e-10
1.46038e-10
1.46038e-10
1.46038e-10
1.46038e-10
1.46038e-10
1.46038e-10
1.46038e-10
1.46038e-10
1.46038e-10
1.46038e-10
1.46038e-10
1.46038e-10
1.46038e-10
1.46038e-10
1.46038e-10
1.46038e-10
1.46038e-10
1.46038e-10
1.46038e-10
1.46038e-10
1.46038e-10
1.46038e-10
1.46038e-10
1.46038e-10
1.46038e-10
1.46038e-10
1.46038e-10
1.46038e-10
1.46038e-10
1.46038e-10
1.46038e-10
1.46038e-10
1.46038e-10
1.46038e-10
1.46038e-10
1.46038e-10
1.46038e-10
1.46038e-10
1.46038e-10
1.46038e-10
1.46038e-10
1.46038e-10
1.46038e-10
1.46038e-10
1.46038e-10
1.46038e-10
1.46038e-10
1.46038e-10
1.46038e-10
1.46038e-10
1.46038e-10
1.46038e-10
1.46038e-10
1.46038e-10
1.46038e-10
1.46038e-10
1.46038e-10
1.46038e-10
1.46038e-10
1.46038e-10
1.46038e-10
1.46038e-10
1.46038e-10
1.46038e-10
1.46038e-10
1.46038e-10
1.46038e-10
1.46038e-10
1.46038e-10
1.46038e-10
1.46038e-10
1.46038e-10
1.46038e-10
1.46038e-10
1.46038e-10
1.46038e-10
1.46038e-10
1.46038e-10
1.46038e-10
1.46038e-10
1.46038e-10
1.46038e-10
1.46038e-10
1.46038e-10
1.46038e-10
1.46038e-10
1.46038e-10
1.46038e-10
1.46038e-10
1.46038e-10
1.46038e-10
1.46038e-10
1.46038e-10
1.46038e-10
1.46038e-10
1.46038e-10
1.46038e-10
1.46038e-10
1.46038e-10
1.46038e-10
1.46038e-10
1.46038e-10
1.46038e-10
1.46038e-10
1.46038e-10
1.46038e-10
1.46038e-10
1.46038e-10
1.46038e-10
1.46038e-10
1.46038e-10
1.46038e-10
1.46038e-10
1.46038e-10
1.46038e-10
1.46038e-10
1.46038e-10
1.46038e-10
1.46038e-10
1.46038e-10
1.46038e-10
1.46038e-10
1.46038e-10
1.46038e-10
1.46038e-10
1.46038e-10
1.46038e-10
1.46038e-10
1.46038e-10
1.46038e-10
1.46038e-10
1.46038e-10
1.46038e-10
1.46038e-10
1.46038e-10
1.46038e-10
1.46038e-10
1.46038e-10
1.46038e-10
1.46038e-10
1.46038e-10
1.46038e-10
1.46038e-10
1.46038e-10
1.46038e-10
1.46038e-10
1.46038e-10
1.46038e-10
1.46038e-10
1.46038e-10
1.46038e-10
1.46038e-10
1.46038e-10
1.46038e-10
1.46038e-10
1.46038e-10
1.46038e-10
1.46038e-10
1.46038e-10
1.46038e-10
1.46038e-10
1.46038e-10
1.46038e-10
1.46038e-10
1.46038e-10
1.46038e-10
1.46038e-10
1.46038e-10
1.46038e-10
1.46038e-10
1.46038e-10
1.46038e-10
1.46038e-10
1.46038e-10
1.46038e-10
1.46038e-10
1.46038e-10
1.46038e-10
1.46038e-10
1.46038e-10
1.46038e-10
1.46038e-10
1.46038e-10
1.46038e-10
1.46038e-10
1.46038e-10
1.46038e-10
1.46038e-10
1.46038e-10
1.46038e-10
1.46038e-10
1.46038e-10
1.46038e-10
1.46038e-10
1.46038e-10
1.46038e-10
1.46038e-10
1.46038e-10
1.46038e-10
1.46038e-10
1.46038e-10
1.46038e-10
1.46038e-10
1.46038e-10
1.46038e-10
1.46038e-10
1.46038e-10
1.46038e-10
1.46038e-10
1.46038e-10
1.46038e-10
1.46038e-10
1.46038e-10
1.46038e-10
1.46038e-10
1.46038e-10
1.46038e-10
1.46038e-10
1.46038e-10
1.46038e-10
1.46038e-10
1.46038e-10
1.46038e-10
1.46038e-10
1.46038e-10
1.46038e-10
1.46038e-10
1.46038e-10
1.46038e-10
1.46038e-10
1.46038e-10
1.46038e-10
1.46038e-10
1.46038e-10
1.46038e-10
1.46038e-10
1.46038e-10
1.46038e-10
1.46038e-10
1.46038e-10
1.46038e-10
1.46038e-10
1.46038e-10
1.46038e-10
1.46038e-10
1.46038e-10
1.46038e-10
1.46038e-10
1.46038e-10
1.46038e-10
1.46038e-10
1.46038e-10
1.46038e-10
1.46038e-10
1.46038e-10
1.46038e-10
1.46038e-10
1.46038e-10
1.46038e-10
1.46038e-10
1.46038e-10
1.46038e-10
1.46038e-10
1.46038e-10
1.46038e-10
1.46038e-10
1.46038e-10
1.46038e-10
1.46038e-10
1.46038e-10
1.46038e-10
1.46038e-10
1.46038e-10
1.46038e-10
1.46038e-10
1.46038e-10
1.46038e-10
1.46038e-10
1.46038e-10
1.46038e-10
1.46038e-10
1.46038e-10
1.46038e-10
1.46038e-10
1.46038e-10
1.46038e-10
1.46038e-10
1.46038e-10
1.46038e-10
1.46038e-10
1.46038e-10
1.46038e-10
1.46038e-10
1.46038e-10
1.46038e-10
1.46038e-10
1.46038e-10
1.46038e-10
1.46038e-10
1.46038e-10
1.46038e-10
1.46038e-10
1.46038e-10
1.46038e-10
1.46038e-10
1.46038e-10
1.46038e-10
1.46038e-10
1.46038e-10
1.46038e-10
1.46038e-10
1.46038e-10
1.46038e-10
1.46038e-10
1.46038e-10
1.46038e-10
1.46038e-10
1.46038e-10
1.46038e-10
1.46038e-10
1.46038e-10
1.46038e-10
1.46038e-10
1.46038e-10
1.46038e-10
1.46038e-10
1.46038e-10
1.46038e-10
1.46038e-10
1.46038e-10
1.46038e-10
1.46038e-10
1.46038e-10
1.46038e-10
1.46038e-10
1.46038e-10
1.46038e-10
1.46038e-10
1.46038e-10
1.46038e-10
1.46038e-10
1.46038e-10
1.46038e-10
1.46038e-10
1.46038e-10
1.46038e-10
1.46038e-10
1.46038e-10
1.46038e-10
1.46038e-10
1.46038e-10
1.46038e-10
1.46038e-10
1.46038e-10
1.46038e-10
1.46038e-10
1.46038e-10
1.46038e-10
1.46038e-10
1.46038e-10
1.46038e-10
1.46038e-10
1.46038e-10
1.46038e-10
1.46038e-10
1.46038e-10
1.46038e-10
1.46038e-10
1.46038e-10
1.46038e-10
1.46038e-10
1.46038e-10
1.46038e-10
1.46038e-10
1.46038e-10
1.46038e-10
1.46038e-10
1.46038e-10
1.46038e-10
1.46038e-10
1.46038e-10
1.46038e-10
1.46038e-10
1.46038e-10
1.46038e-10
1.46038e-10
1.46038e-10
1.46038e-10
1.46038e-10
1.46038e-10
1.46038e-10
1.46038e-10
1.46038e-10
1.46038e-10
1.46038e-10
1.46038e-10
1.46038e-10
1.46038e-10
1.46038e-10
1.46038e-10
1.46038e-10
1.46038e-10
1.46038e-10
1.46038e-10
1.46038e-10
1.46038e-10
1.46038e-10
1.46038e-10
1.46038e-10
1.46038e-10
1.46038e-10
1.46038e-10
1.46038e-10
1.46038e-10
1.46038e-10
1.46038e-10
1.46038e-10
1.46038e-10
1.46038e-10
1.46038e-10
1.46038e-10
1.46038e-10
1.46038e-10
1.46038e-10
1.46038e-10
1.46038e-10
1.46038e-10
1.46038e-10
1.46038e-10
1.46038e-10
1.46038e-10
1.46038e-10
1.46038e-10
1.46038e-10
1.46038e-10
1.46038e-10
1.46038e-10
1.46038e-10
1.46038e-10
1.46038e-10
1.46038e-10
1.46038e-10
1.46038e-10
1.46038e-10
1.46038e-10
1.46038e-10
1.46038e-10
1.46038e-10
1.46038e-10
1.46038e-10
1.46038e-10
1.46038e-10
1.46038e-10
1.46038e-10
1.46038e-10
1.46038e-10
1.46038e-10
1.46038e-10
1.46038e-10
1.46038e-10
1.46038e-10
1.46038e-10
1.46038e-10
1.46038e-10
1.46038e-10
1.46038e-10
1.46038e-10
1.46038e-10
1.46038e-10
1.46038e-10
1.46038e-10
1.46038e-10
1.46038e-10
1.46038e-10
1.46038e-10
1.46038e-10
1.46038e-10
1.46038e-10
1.46038e-10
1.46038e-10
1.46038e-10
1.46038e-10
1.46038e-10
1.46038e-10
1.46038e-10
1.46038e-10
1.46038e-10
1.46038e-10
1.46038e-10
1.46038e-10
1.46038e-10
1.46038e-10
1.46038e-10
1.46038e-10
1.46038e-10
1.46038e-10
1.46038e-10
1.46038e-10
1.46038e-10
1.46038e-10
1.46038e-10
1.46038e-10
1.46038e-10
1.46038e-10
1.46038e-10
1.46038e-10
1.46038e-10
1.46038e-10
1.46038e-10
1.46038e-10
1.46038e-10
1.46038e-10
1.46038e-10
1.46038e-10
1.46038e-10
1.46038e-10
1.46038e-10
1.46038e-10
1.46038e-10
1.46038e-10
1.46038e-10
1.46038e-10
1.46038e-10
1.46038e-10
1.46038e-10
1.46038e-10
1.46038e-10
1.46038e-10
1.46038e-10
1.46038e-10
1.46038e-10
1.46038e-10
1.46038e-10
1.46038e-10
1.46039e-10
1.46038e-10
1.46038e-10
1.46038e-10
1.46038e-10
1.46038e-10
1.46038e-10
1.46038e-10
1.46038e-10
1.46038e-10
1.46038e-10
1.46038e-10
1.46038e-10
1.46038e-10
1.46038e-10
1.46038e-10
1.46038e-10
1.46038e-10
1.46038e-10
1.46038e-10
1.46038e-10
1.46038e-10
1.46038e-10
1.46038e-10
1.46038e-10
1.46038e-10
1.46038e-10
1.46038e-10
1.46038e-10
1.46038e-10
1.46038e-10
1.46038e-10
1.46038e-10
1.46038e-10
1.46038e-10
1.46038e-10
1.46038e-10
1.46038e-10
1.46038e-10
1.46038e-10
1.46038e-10
1.46038e-10
1.46038e-10
1.46038e-10
1.46038e-10
1.46038e-10
1.46038e-10
1.46039e-10
1.4604e-10
1.46042e-10
1.46047e-10
1.46038e-10
1.46038e-10
1.46038e-10
1.46038e-10
1.46038e-10
1.46038e-10
1.46038e-10
1.46038e-10
1.46038e-10
1.46038e-10
1.46038e-10
1.46038e-10
1.46038e-10
1.46038e-10
1.46038e-10
1.46038e-10
1.46038e-10
1.46038e-10
1.46038e-10
1.46038e-10
1.46038e-10
1.46038e-10
1.46038e-10
1.46038e-10
1.46038e-10
1.46038e-10
1.46038e-10
1.46038e-10
1.46038e-10
1.46038e-10
1.46038e-10
1.46038e-10
1.46038e-10
1.46038e-10
1.46038e-10
1.46038e-10
1.46038e-10
1.46038e-10
1.46038e-10
1.46038e-10
1.46038e-10
1.46038e-10
1.46038e-10
1.46039e-10
1.4604e-10
1.46042e-10
1.46046e-10
1.46055e-10
1.46074e-10
1.46122e-10
1.46038e-10
1.46038e-10
1.46038e-10
1.46038e-10
1.46038e-10
1.46038e-10
1.46038e-10
1.46038e-10
1.46038e-10
1.46038e-10
1.46038e-10
1.46038e-10
1.46038e-10
1.46038e-10
1.46038e-10
1.46038e-10
1.46038e-10
1.46038e-10
1.46038e-10
1.46038e-10
1.46038e-10
1.46038e-10
1.46038e-10
1.46038e-10
1.46038e-10
1.46038e-10
1.46038e-10
1.46038e-10
1.46038e-10
1.46038e-10
1.46038e-10
1.46038e-10
1.46038e-10
1.46038e-10
1.46038e-10
1.46038e-10
1.46038e-10
1.46038e-10
1.46038e-10
1.46038e-10
1.46039e-10
1.4604e-10
1.46042e-10
1.46046e-10
1.46055e-10
1.46073e-10
1.46112e-10
1.46191e-10
1.46364e-10
1.46798e-10
1.46038e-10
1.46038e-10
1.46038e-10
1.46038e-10
1.46038e-10
1.46038e-10
1.46038e-10
1.46038e-10
1.46038e-10
1.46038e-10
1.46038e-10
1.46038e-10
1.46038e-10
1.46038e-10
1.46038e-10
1.46038e-10
1.46038e-10
1.46038e-10
1.46038e-10
1.46038e-10
1.46038e-10
1.46038e-10
1.46038e-10
1.46038e-10
1.46038e-10
1.46038e-10
1.46038e-10
1.46038e-10
1.46038e-10
1.46038e-10
1.46038e-10
1.46038e-10
1.46038e-10
1.46038e-10
1.46038e-10
1.46038e-10
1.46038e-10
1.46039e-10
1.4604e-10
1.46042e-10
1.46047e-10
1.46057e-10
1.46076e-10
1.46115e-10
1.46195e-10
1.4636e-10
1.46702e-10
1.47417e-10
1.48956e-10
1.52755e-10
1.46038e-10
1.46038e-10
1.46038e-10
1.46038e-10
1.46038e-10
1.46038e-10
1.46038e-10
1.46038e-10
1.46038e-10
1.46038e-10
1.46038e-10
1.46038e-10
1.46038e-10
1.46038e-10
1.46038e-10
1.46038e-10
1.46038e-10
1.46038e-10
1.46038e-10
1.46038e-10
1.46038e-10
1.46038e-10
1.46038e-10
1.46038e-10
1.46038e-10
1.46038e-10
1.46038e-10
1.46038e-10
1.46038e-10
1.46038e-10
1.46038e-10
1.46038e-10
1.46038e-10
1.46038e-10
1.46039e-10
1.4604e-10
1.46043e-10
1.46048e-10
1.46059e-10
1.4608e-10
1.46121e-10
1.46205e-10
1.46375e-10
1.46722e-10
1.47431e-10
1.48889e-10
1.51902e-10
1.58169e-10
1.71497e-10
2.03333e-10
1.46038e-10
1.46038e-10
1.46038e-10
1.46038e-10
1.46038e-10
1.46038e-10
1.46038e-10
1.46038e-10
1.46038e-10
1.46038e-10
1.46038e-10
1.46038e-10
1.46038e-10
1.46038e-10
1.46038e-10
1.46038e-10
1.46038e-10
1.46038e-10
1.46038e-10
1.46038e-10
1.46038e-10
1.46038e-10
1.46038e-10
1.46038e-10
1.46038e-10
1.46038e-10
1.46038e-10
1.46038e-10
1.46038e-10
1.46038e-10
1.46039e-10
1.46039e-10
1.46041e-10
1.46044e-10
1.4605e-10
1.46062e-10
1.46085e-10
1.46131e-10
1.46223e-10
1.46405e-10
1.46769e-10
1.47502e-10
1.48985e-10
1.51994e-10
1.58125e-10
1.70645e-10
1.96229e-10
2.48496e-10
3.56313e-10
5.98998e-10
1.46038e-10
1.46038e-10
1.46038e-10
1.46038e-10
1.46038e-10
1.46038e-10
1.46038e-10
1.46038e-10
1.46038e-10
1.46038e-10
1.46038e-10
1.46038e-10
1.46038e-10
1.46038e-10
1.46038e-10
1.46038e-10
1.46038e-10
1.46038e-10
1.46038e-10
1.46038e-10
1.46038e-10
1.46038e-10
1.46038e-10
1.46038e-10
1.46038e-10
1.46038e-10
1.46038e-10
1.46039e-10
1.4604e-10
1.46042e-10
1.46046e-10
1.46053e-10
1.46067e-10
1.46094e-10
1.46147e-10
1.46249e-10
1.46451e-10
1.46847e-10
1.47633e-10
1.49195e-10
1.52314e-10
1.58562e-10
1.71107e-10
1.96297e-10
2.46744e-10
3.47256e-10
5.46416e-10
9.40175e-10
1.72676e-09
3.40947e-09
1.46038e-10
1.46038e-10
1.46038e-10
1.46038e-10
1.46038e-10
1.46038e-10
1.46038e-10
1.46038e-10
1.46038e-10
1.46038e-10
1.46038e-10
1.46038e-10
1.46038e-10
1.46038e-10
1.46038e-10
1.46038e-10
1.46038e-10
1.46038e-10
1.46038e-10
1.46038e-10
1.46038e-10
1.46038e-10
1.46038e-10
1.46039e-10
1.46039e-10
1.46041e-10
1.46043e-10
1.46048e-10
1.46057e-10
1.46074e-10
1.46107e-10
1.46169e-10
1.46289e-10
1.46519e-10
1.46967e-10
1.47838e-10
1.49543e-10
1.52891e-10
1.59488e-10
1.72514e-10
1.98234e-10
2.48886e-10
3.48138e-10
5.415e-10
9.16625e-10
1.64373e-09
3.05718e-09
5.82229e-09
1.12922e-08
2.24691e-08
1.46038e-10
1.46038e-10
1.46038e-10
1.46038e-10
1.46038e-10
1.46038e-10
1.46038e-10
1.46038e-10
1.46038e-10
1.46038e-10
1.46038e-10
1.46038e-10
1.46038e-10
1.46038e-10
1.46038e-10
1.46038e-10
1.46038e-10
1.46038e-10
1.46038e-10
1.46038e-10
1.46039e-10
1.4604e-10
1.46042e-10
1.46045e-10
1.46051e-10
1.46063e-10
1.46085e-10
1.46125e-10
1.46201e-10
1.46345e-10
1.46619e-10
1.47141e-10
1.48141e-10
1.50067e-10
1.53789e-10
1.61001e-10
1.75005e-10
2.02192e-10
2.54835e-10
3.56277e-10
5.50697e-10
9.21868e-10
1.62981e-09
2.98303e-09
5.58055e-09
1.05836e-08
2.01993e-08
3.84343e-08
7.21292e-08
1.32484e-07
1.46038e-10
1.46038e-10
1.46038e-10
1.46038e-10
1.46038e-10
1.46038e-10
1.46038e-10
1.46038e-10
1.46038e-10
1.46038e-10
1.46038e-10
1.46038e-10
1.46038e-10
1.46038e-10
1.46038e-10
1.46038e-10
1.46039e-10
1.4604e-10
1.46041e-10
1.46043e-10
1.46048e-10
1.46057e-10
1.46072e-10
1.461e-10
1.46152e-10
1.46249e-10
1.46428e-10
1.46764e-10
1.47394e-10
1.48583e-10
1.50835e-10
1.55115e-10
1.63275e-10
1.78855e-10
2.0859e-10
2.65182e-10
3.72392e-10
5.74484e-10
9.54137e-10
1.66692e-09
3.00811e-09
5.5421e-09
1.03463e-08
1.94392e-08
3.64342e-08
6.7322e-08
1.2109e-07
2.09848e-07
3.48696e-07
5.55737e-07
1.46038e-10
1.46038e-10
1.46038e-10
1.46038e-10
1.46038e-10
1.46038e-10
1.46038e-10
1.46038e-10
1.46038e-10
1.46038e-10
1.46038e-10
1.46038e-10
1.46039e-10
1.46039e-10
1.4604e-10
1.46043e-10
1.46046e-10
1.46053e-10
1.46064e-10
1.46086e-10
1.46124e-10
1.46193e-10
1.46319e-10
1.4655e-10
1.46976e-10
1.47763e-10
1.49224e-10
1.51948e-10
1.57041e-10
1.66591e-10
1.84518e-10
2.18145e-10
2.81035e-10
3.9813e-10
6.1517e-10
1.01634e-09
1.75775e-09
3.1313e-09
5.68644e-09
1.04566e-08
1.93525e-08
3.57622e-08
6.52799e-08
1.16293e-07
2.00073e-07
3.30209e-07
5.21655e-07
7.89908e-07
1.15132e-06
1.62352e-06
1.46038e-10
1.46038e-10
1.46038e-10
1.46038e-10
1.46038e-10
1.46038e-10
1.46038e-10
1.46038e-10
1.46039e-10
1.46039e-10
1.4604e-10
1.46042e-10
1.46045e-10
1.46051e-10
1.4606e-10
1.46077e-10
1.46107e-10
1.4616e-10
1.46255e-10
1.46426e-10
1.46734e-10
1.47292e-10
1.48308e-10
1.50165e-10
1.5357e-10
1.59836e-10
1.7139e-10
1.92712e-10
2.32009e-10
3.04207e-10
4.36287e-10
6.76981e-10
1.1147e-09
1.91105e-09
3.36385e-09
6.02526e-09
1.0918e-08
1.99058e-08
3.62532e-08
6.53075e-08
1.15066e-07
1.963e-07
3.22078e-07
5.06809e-07
7.65218e-07
1.11151e-06
1.55905e-06
2.12051e-06
2.809e-06
3.64035e-06
1.46038e-10
1.46038e-10
1.46038e-10
1.46038e-10
1.46039e-10
1.46039e-10
1.4604e-10
1.46042e-10
1.46045e-10
1.46049e-10
1.46058e-10
1.46072e-10
1.46097e-10
1.46141e-10
1.46217e-10
1.46352e-10
1.46591e-10
1.47015e-10
1.47771e-10
1.49126e-10
1.51564e-10
1.55965e-10
1.6393e-10
1.78373e-10
2.04565e-10
2.51981e-10
3.37536e-10
4.91295e-10
7.66763e-10
1.25966e-09
2.14254e-09
3.72884e-09
6.59111e-09
1.17732e-08
2.1147e-08
3.79422e-08
6.73846e-08
1.17228e-07
1.9789e-07
3.22026e-07
5.03668e-07
7.57229e-07
1.09672e-06
1.53516e-06
2.08437e-06
2.75439e-06
3.55363e-06
4.48941e-06
5.57075e-06
6.81238e-06
1.46038e-10
1.46039e-10
1.46039e-10
1.4604e-10
1.46042e-10
1.46044e-10
1.46049e-10
1.46057e-10
1.4607e-10
1.46092e-10
1.46131e-10
1.46196e-10
1.4631e-10
1.46508e-10
1.46852e-10
1.47454e-10
1.48513e-10
1.5038e-10
1.53687e-10
1.5956e-10
1.70016e-10
1.88653e-10
2.21856e-10
2.80876e-10
3.85435e-10
5.70032e-10
8.95188e-10
1.46772e-09
2.47757e-09
4.26495e-09
7.44202e-09
1.31067e-08
2.31938e-08
4.09823e-08
7.16917e-08
1.22968e-07
2.04996e-07
3.30107e-07
5.11989e-07
7.64753e-07
1.10217e-06
1.53712e-06
2.0813e-06
2.74507e-06
3.53662e-06
4.46252e-06
5.52724e-06
6.73199e-06
8.07337e-06
9.54917e-06
1.11793e-05
1.46042e-10
1.46045e-10
1.4605e-10
1.46057e-10
1.4607e-10
1.46091e-10
1.46127e-10
1.46188e-10
1.4629e-10
1.46465e-10
1.46764e-10
1.47276e-10
1.4816e-10
1.49689e-10
1.52345e-10
1.56975e-10
1.65064e-10
1.79227e-10
2.0403e-10
2.47419e-10
3.23126e-10
4.54797e-10
6.83179e-10
1.07878e-09
1.76444e-09
2.95565e-09
5.03308e-09
8.67124e-09
1.50593e-08
2.62525e-08
4.5663e-08
7.86132e-08
1.32763e-07
2.18183e-07
3.46963e-07
5.32468e-07
7.88488e-07
1.12849e-06
1.56518e-06
2.11012e-06
2.77366e-06
3.56434e-06
4.48886e-06
5.55205e-06
6.75631e-06
8.09928e-06
9.57351e-06
1.11688e-05
1.28759e-05
1.46946e-05
1.66668e-05
1.46059e-10
1.46072e-10
1.46094e-10
1.4613e-10
1.46189e-10
1.46288e-10
1.46453e-10
1.46729e-10
1.47195e-10
1.47983e-10
1.4932e-10
1.51599e-10
1.55497e-10
1.62183e-10
1.73673e-10
1.93445e-10
2.2745e-10
2.85835e-10
3.85804e-10
5.56512e-10
8.47485e-10
1.34333e-09
2.18952e-09
3.63802e-09
6.1276e-09
1.04236e-08
1.78506e-08
3.06492e-08
5.24518e-08
8.87892e-08
1.47448e-07
2.38482e-07
3.73807e-07
5.66496e-07
8.3e-07
1.17746e-06
1.6213e-06
2.17285e-06
2.8423e-06
3.63848e-06
4.5681e-06
5.63636e-06
6.84633e-06
8.19761e-06
9.68454e-06
1.12975e-05
1.30252e-05
1.48582e-05
1.67901e-05
1.88183e-05
2.09485e-05
2.32384e-05
1.462e-10
1.46302e-10
1.46467e-10
1.4674e-10
1.47192e-10
1.47941e-10
1.49189e-10
1.51276e-10
1.54779e-10
1.60676e-10
1.70625e-10
1.87436e-10
2.15847e-10
2.63809e-10
3.44601e-10
4.80357e-10
7.08027e-10
1.08957e-09
1.7295e-09
2.80529e-09
4.6203e-09
7.69527e-09
1.29234e-08
2.18193e-08
3.68839e-08
6.20627e-08
1.03198e-07
1.683e-07
2.67487e-07
4.12554e-07
6.16296e-07
8.91802e-07
1.25185e-06
1.70847e-06
2.27277e-06
2.9547e-06
3.76302e-06
4.70461e-06
5.78475e-06
7.00683e-06
8.37181e-06
9.876e-06
1.15109e-05
1.32653e-05
1.5128e-05
1.7091e-05
1.91482e-05
2.12968e-05
2.35352e-05
2.58642e-05
2.82924e-05
3.08854e-05
1.47265e-10
1.48024e-10
1.49266e-10
1.51304e-10
1.5466e-10
1.60206e-10
1.69392e-10
1.8463e-10
2.09924e-10
2.51882e-10
3.21368e-10
4.36197e-10
6.25605e-10
9.37756e-10
1.45241e-09
2.30248e-09
3.71089e-09
6.05359e-09
9.96628e-09
1.65192e-08
2.74862e-08
4.57162e-08
7.55667e-08
1.23287e-07
1.97192e-07
3.07522e-07
4.65974e-07
6.85069e-07
9.77504e-07
1.35563e-06
1.83108e-06
2.4146e-06
3.11584e-06
3.94333e-06
4.90414e-06
6.00341e-06
7.24483e-06
8.62994e-06
1.01567e-05
1.18181e-05
1.36035e-05
1.5501e-05
1.75005e-05
1.95948e-05
2.17786e-05
2.40504e-05
2.64076e-05
2.88505e-05
3.13799e-05
3.39949e-05
3.67098e-05
3.96039e-05
1.55108e-10
1.60665e-10
1.69698e-10
1.84411e-10
2.0839e-10
2.47458e-10
3.11029e-10
4.14286e-10
5.81738e-10
8.53065e-10
1.29283e-09
2.00669e-09
3.16861e-09
5.06676e-09
8.18035e-09
1.33062e-08
2.17579e-08
3.56553e-08
5.82972e-08
9.45547e-08
1.51168e-07
2.36812e-07
3.61868e-07
5.37939e-07
7.77245e-07
1.09206e-06
1.49427e-06
1.99504e-06
2.60469e-06
3.33252e-06
4.18676e-06
5.17443e-06
6.30062e-06
7.56903e-06
8.98144e-06
1.0537e-05
1.22303e-05
1.40515e-05
1.59887e-05
1.80303e-05
2.01677e-05
2.23939e-05
2.47052e-05
2.70998e-05
2.95756e-05
3.21343e-05
3.47739e-05
3.74936e-05
4.03048e-05
4.32069e-05
4.61967e-05
4.93572e-05
2.10878e-10
2.49562e-10
3.1138e-10
4.10025e-10
5.67233e-10
8.17611e-10
1.21651e-09
1.85295e-09
2.87092e-09
4.5047e-09
7.1373e-09
1.1396e-08
1.83038e-08
2.95054e-08
4.75744e-08
7.63718e-08
1.21379e-07
1.89887e-07
2.90952e-07
4.35082e-07
6.33747e-07
8.98825e-07
1.24212e-06
1.675e-06
2.20813e-06
2.85134e-06
3.61352e-06
4.50255e-06
5.52518e-06
6.68649e-06
7.99004e-06
9.43775e-06
1.10294e-05
1.27608e-05
1.46234e-05
1.66054e-05
1.86947e-05
2.08806e-05
2.31556e-05
2.55137e-05
2.79526e-05
3.0469e-05
3.30631e-05
3.57358e-05
3.84832e-05
4.13114e-05
4.42282e-05
4.72228e-05
5.02941e-05
5.34441e-05
5.66838e-05
6.00983e-05
5.78912e-10
8.2398e-10
1.20773e-09
1.80953e-09
2.75562e-09
4.24783e-09
6.6105e-09
1.03663e-08
1.63561e-08
2.59191e-08
4.11453e-08
6.51873e-08
1.02583e-07
1.59499e-07
2.43805e-07
3.64908e-07
5.33389e-07
7.60519e-07
1.05777e-06
1.43643e-06
1.90728e-06
2.48044e-06
3.16521e-06
3.97001e-06
4.90231e-06
5.96852e-06
7.17368e-06
8.52105e-06
1.00126e-05
1.16483e-05
1.34251e-05
1.53353e-05
1.73678e-05
1.95102e-05
2.17507e-05
2.40804e-05
2.64921e-05
2.89812e-05
3.15458e-05
3.41832e-05
3.68945e-05
3.96776e-05
4.25322e-05
4.54687e-05
4.8485e-05
5.15739e-05
5.47341e-05
5.79679e-05
6.12763e-05
6.46658e-05
6.81503e-05
7.18151e-05
2.79836e-09
4.24303e-09
6.49128e-09
1.00041e-08
1.55115e-08
2.41621e-08
3.77331e-08
5.88982e-08
9.15228e-08
1.40919e-07
2.13977e-07
3.19112e-07
4.66005e-07
6.65211e-07
9.27711e-07
1.2645e-06
1.68626e-06
2.20319e-06
2.8248e-06
3.55979e-06
4.4161e-06
5.40072e-06
6.51967e-06
7.7778e-06
9.17814e-06
1.07225e-05
1.2411e-05
1.4241e-05
1.62059e-05
1.82953e-05
2.04967e-05
2.27976e-05
2.51877e-05
2.76591e-05
3.02056e-05
3.28244e-05
3.55123e-05
3.8268e-05
4.10938e-05
4.39852e-05
4.69464e-05
4.99865e-05
5.30996e-05
5.6279e-05
5.95252e-05
6.28411e-05
6.62283e-05
6.96914e-05
7.32333e-05
7.68567e-05
8.05743e-05
8.44718e-05
2.3885e-08
3.66834e-08
5.63595e-08
8.63243e-08
1.31275e-07
1.97352e-07
2.9214e-07
4.24503e-07
6.04264e-07
8.41819e-07
1.14775e-06
1.53248e-06
2.00607e-06
2.57805e-06
3.25728e-06
4.05189e-06
4.96925e-06
6.01583e-06
7.19724e-06
8.51798e-06
9.98087e-06
1.15875e-05
1.33377e-05
1.52295e-05
1.72569e-05
1.94101e-05
2.16768e-05
2.40441e-05
2.65009e-05
2.9038e-05
3.16479e-05
3.43266e-05
3.70717e-05
3.98794e-05
4.27519e-05
4.56873e-05
4.86821e-05
5.17507e-05
5.48912e-05
5.80944e-05
6.1359e-05
6.46887e-05
6.80833e-05
7.15463e-05
7.50814e-05
7.86908e-05
8.23748e-05
8.61351e-05
8.99743e-05
9.39058e-05
9.80149e-05
1.29085e-07
1.91635e-07
2.80699e-07
4.04447e-07
5.72026e-07
7.93224e-07
1.07812e-06
1.43679e-06
1.87901e-06
2.41416e-06
3.05106e-06
3.79793e-06
4.66227e-06
5.65085e-06
6.76963e-06
8.02372e-06
9.41724e-06
1.09527e-05
1.26313e-05
1.44529e-05
1.64155e-05
1.85136e-05
2.0738e-05
2.30767e-05
2.55167e-05
2.8046e-05
3.06544e-05