/*--------------------------------*- C++ -*----------------------------------*\
| =========                 |                                                 |
| \\      /  F ield         | OpenFOAM: The Open Source CFD Toolbox           |
|  \\    /   O peration     | Version:  v1706                                 |
|   \\  /    A nd           | Web:      www.OpenFOAM.com                      |
|    \\/     M anipulation  |                                                 |
\*---------------------------------------------------------------------------*/
FoamFile
{
    version     2.0;
    format      ascii;
    class       volScalarField;
    location    "1.3e-05";
    object      Mach;
}
// * * * * * * * * * * * * * * * * * * * * * * * * * * * * * * * * * * * * * //

dimensions      [0 0 0 0 0 0 0];


internalField   nonuniform List<scalar> 
30038
(
11.2859
11.2859
11.2859
11.2859
11.2859
11.2859
11.2859
11.2859
11.2859
11.2859
11.2859
11.2859
11.2859
11.2859
11.2859
11.2859
11.2859
11.2859
11.2859
11.2859
11.2859
11.2859
11.2859
11.2859
11.2859
11.2859
11.2859
11.2859
11.2859
11.2859
11.2859
11.2859
11.2859
11.2859
11.2859
11.2859
11.2859
11.2859
11.2859
11.2859
11.2859
11.2859
11.2859
11.2859
11.2859
11.2859
11.2859
11.2859
11.2859
11.2859
11.2859
11.2859
11.2859
11.2859
11.2859
11.2859
11.2859
11.2859
11.2859
11.2859
11.2859
11.2859
11.2859
11.2859
11.2859
11.2859
11.2859
11.2859
11.2859
11.2859
11.2859
11.2859
11.2859
11.2859
11.2859
11.2859
11.2859
11.2859
11.2859
11.2859
11.2859
11.2859
11.2859
11.2859
11.2859
11.2859
11.2859
11.2859
11.2859
11.2859
11.2859
11.2859
11.2859
11.2859
11.2859
11.2859
11.2859
11.2859
11.2859
11.2859
11.2859
11.2859
11.2859
11.2859
11.2859
11.2859
11.2859
11.2859
11.2859
11.2859
11.2859
11.2859
11.2859
11.2859
11.2859
11.2859
11.2859
11.2859
11.2859
11.2859
11.2859
11.2859
11.2859
11.2859
11.2859
11.2859
11.2859
11.2859
11.2859
11.2859
11.2859
11.2859
11.2859
11.2859
11.2859
11.2859
11.2859
11.2859
11.2859
11.2859
11.2859
11.2859
11.2859
11.2859
11.2859
11.2859
11.2859
11.2859
11.2859
11.2859
11.2859
11.2859
11.2859
11.2859
11.2859
11.2859
11.2859
11.2859
11.2859
11.2859
11.2859
11.2859
11.2859
11.2859
11.2859
11.2859
11.2859
11.2859
11.2859
11.2859
11.2859
11.2859
11.2859
11.2859
11.2859
11.2859
11.2859
11.2859
11.2859
11.2859
11.2859
11.2859
11.2859
11.2859
11.2859
11.2859
11.2859
11.2859
11.2859
11.2859
11.2859
11.2859
11.2859
11.2859
11.2859
11.2859
11.2859
11.2859
11.2859
11.2859
11.2859
11.2859
11.2859
11.2859
11.2859
11.2859
11.2859
11.2859
11.2859
11.2859
11.2859
11.2859
11.2859
11.2859
11.2859
11.2859
11.2859
11.2859
11.2859
11.2859
11.2859
11.2859
11.2859
11.2859
11.2859
11.2859
11.2859
11.2859
11.2859
11.2859
11.2859
11.2859
11.2859
11.2859
11.2859
11.2859
11.2859
11.2859
11.2859
11.2859
11.2859
11.2859
11.2859
11.2859
11.2859
11.2859
11.2859
11.2859
11.2859
11.2859
11.2859
11.2859
11.2859
11.2859
11.2859
11.2859
11.2859
11.2859
11.2859
11.2859
11.2859
11.2859
11.2859
11.2859
11.2859
11.2859
11.2859
11.2859
11.2859
11.2859
11.2859
11.2859
11.2859
11.2859
11.2859
11.2859
11.2859
11.2859
11.2859
11.2859
11.2859
11.2859
11.2859
11.2859
11.2859
11.2859
11.2859
11.2859
11.2859
11.2859
11.2859
11.2859
11.2859
11.2859
11.2859
11.2859
11.2859
11.2859
11.2859
11.2859
11.2859
11.2859
11.2859
11.2859
11.2859
11.2859
11.2859
11.2859
11.2859
11.2859
11.2859
11.2859
11.2859
11.2859
11.2859
11.2859
11.2859
11.2859
11.2859
11.2859
11.2859
11.2859
11.2859
11.2859
11.2859
11.2859
11.2859
11.2859
11.2859
11.2859
11.2859
11.2859
11.2859
11.2859
11.2859
11.2859
11.2859
11.2859
11.2859
11.2859
11.2859
11.2859
11.2859
11.2859
11.2859
11.2859
11.2859
11.2859
11.2859
11.2859
11.2859
11.2859
11.2859
11.2859
11.2859
11.2859
11.2859
11.2859
11.2859
11.2859
11.2859
11.2859
11.2859
11.2859
11.2859
11.2859
11.2859
11.2859
11.2859
11.2859
11.2859
11.2859
11.2859
11.2859
11.2859
11.2859
11.2859
11.2859
11.2859
11.2859
11.2859
11.2859
11.2859
11.2859
11.2859
11.2859
11.2859
11.2859
11.2859
11.2859
11.2859
11.2859
11.2859
11.2859
11.2859
11.2859
11.2859
11.2859
11.2859
11.2859
11.2859
11.2859
11.2859
11.2859
11.2859
11.2859
11.2859
11.2859
11.2859
11.2859
11.2859
11.2859
11.2859
11.2859
11.2859
11.2859
11.2859
11.2859
11.2859
11.2859
11.2859
11.2859
11.2859
11.2859
11.2859
11.2859
11.2859
11.2859
11.2859
11.2859
11.2859
11.2859
11.2859
11.2859
11.2859
11.2859
11.2859
11.2859
11.2859
11.2859
11.2859
11.2859
11.2859
11.2859
11.2859
11.2859
11.2859
11.2859
11.2859
11.2859
11.2859
11.2859
11.2859
11.2859
11.2859
11.2859
11.2859
11.2859
11.2859
11.2859
11.2859
11.2859
11.2859
11.2859
11.2859
11.2859
11.2859
11.2859
11.2859
11.2859
11.2859
11.2859
11.2859
11.2859
11.2859
11.2859
11.2859
11.2859
11.2859
11.2859
11.2859
11.2859
11.2859
11.2859
11.2859
11.2859
11.2859
11.2859
11.2859
11.2859
11.2859
11.2859
11.2859
11.2859
11.2859
11.2859
11.2859
11.2859
11.2859
11.2859
11.2859
11.2859
11.2859
11.2859
11.2859
11.2859
11.2859
11.2859
11.2859
11.2859
11.2859
11.2859
11.2859
11.2859
11.2859
11.2859
11.2859
11.2859
11.2859
11.2859
11.2859
11.2859
11.2859
11.2859
11.2859
11.2859
11.2859
11.2859
11.2859
11.2859
11.2859
11.2859
11.2859
11.2859
11.2859
11.2859
11.2859
11.2859
11.2859
11.2859
11.2859
11.2859
11.2859
11.2859
11.2859
11.2859
11.2859
11.2859
11.2859
11.2859
11.2859
11.2859
11.2859
11.2859
11.2859
11.2859
11.2859
11.2859
11.2859
11.2859
11.2859
11.2859
11.2859
11.2859
11.2859
11.2859
11.2859
11.2859
11.2859
11.2859
11.2859
11.2859
11.2859
11.2859
11.2859
11.2859
11.2859
11.2859
11.2859
11.2859
11.2859
11.2859
11.2859
11.2859
11.2859
11.2859
11.2859
11.2859
11.2859
11.2859
11.2859
11.2859
11.2859
11.2859
11.2859
11.2859
11.2859
11.2859
11.2859
11.2859
11.2859
11.2859
11.2859
11.2859
11.2859
11.2859
11.2859
11.2859
11.2859
11.2859
11.2859
11.2859
11.2859
11.2859
11.2859
11.2859
11.2859
11.2859
11.2859
11.2859
11.2859
11.2859
11.2859
11.2859
11.2859
11.2859
11.2859
11.2859
11.2859
11.2859
11.2859
11.2859
11.2859
11.2859
11.2859
11.2859
11.2859
11.2859
11.2859
11.2859
11.2859
11.2859
11.2859
11.2859
11.2859
11.2859
11.2859
11.2859
11.2859
11.2859
11.2859
11.2859
11.2859
11.2859
11.2859
11.2859
11.2859
11.2859
11.2859
11.2859
11.2859
11.2859
11.2859
11.2859
11.2859
11.2859
11.2859
11.2859
11.2859
11.2859
11.2859
11.2859
11.2859
11.2859
11.2859
11.2859
11.2859
11.2859
11.2859
11.2859
11.2859
11.2859
11.2859
11.2859
11.2859
11.2859
11.2859
11.2859
11.2859
11.2859
11.2859
11.2859
11.2859
11.2859
11.2859
11.2859
11.2859
11.2859
11.2859
11.2859
11.2859
11.2859
11.2859
11.2859
11.2859
11.2859
11.2859
11.2859
11.2859
11.2859
11.2859
11.2859
11.2859
11.2859
11.2859
11.2859
11.2859
11.2859
11.2859
11.2859
11.2859
11.2859
11.2859
11.2859
11.2859
11.2859
11.2859
11.2859
11.2859
11.2859
11.2859
11.2859
11.2859
11.2859
11.2859
11.2859
11.2859
11.2859
11.2859
11.2859
11.2859
11.2859
11.2859
11.2859
11.2859
11.2859
11.2859
11.2859
11.2859
11.2859
11.2859
11.2859
11.2859
11.2859
11.2859
11.2859
11.2859
11.2859
11.2859
11.2859
11.2859
11.2859
11.2859
11.2859
11.2859
11.2859
11.2859
11.2859
11.2859
11.2859
11.2859
11.2859
11.2859
11.2859
11.2859
11.2859
11.2859
11.2859
11.2859
11.2859
11.2859
11.2859
11.2859
11.2859
11.2859
11.2859
11.2859
11.2859
11.2859
11.2859
11.2859
11.2859
11.2859
11.2859
11.2859
11.2859
11.2859
11.2859
11.2859
11.2859
11.2859
11.2859
11.2859
11.2859
11.2859
11.2859
11.2859
11.2859
11.2859
11.2859
11.2859
11.2859
11.2859
11.2859
11.2859
11.2859
11.2859
11.2859
11.2859
11.2859
11.2859
11.2859
11.2859
11.2859
11.2859
11.2859
11.2859
11.2859
11.2859
11.2859
11.2859
11.2859
11.2859
11.2859
11.2859
11.2859
11.2859
11.2859
11.2859
11.2859
11.2859
11.2859
11.2859
11.2859
11.2859
11.2859
11.2859
11.2859
11.2859
11.2859
11.2859
11.2859
11.2859
11.2859
11.2859
11.2859
11.2859
11.2859
11.2859
11.2859
11.2859
11.2859
11.2859
11.2859
11.2859
11.2859
11.2859
11.2859
11.2859
11.2859
11.2859
11.2859
11.2859
11.2859
11.2859
11.2859
11.2859
11.2859
11.2859
11.2859
11.2859
11.2859
11.2859
11.2859
11.2859
11.2859
11.2859
11.2859
11.2859
11.2859
11.2859
11.2859
11.2859
11.2859
11.2859
11.2859
11.2859
11.2859
11.2859
11.2859
11.2859
11.2859
11.2859
11.2859
11.2859
11.2859
11.2859
11.2859
11.2859
11.2859
11.2859
11.2859
11.2859
11.2859
11.2859
11.2859
11.2859
11.2859
11.2859
11.2859
11.2859
11.2859
11.2859
11.2859
11.2859
11.2859
11.2859
11.2859
11.2859
11.2859
11.2859
11.2859
11.2859
11.2859
11.2859
11.2859
11.2859
11.2859
11.2859
11.2859
11.2859
11.2859
11.2859
11.2859
11.2859
11.2859
11.2859
11.2859
11.2859
11.2859
11.2859
11.2859
11.2859
11.2859
11.2859
11.2859
11.2859
11.2859
11.2859
11.2859
11.2859
11.2859
11.2859
11.2859
11.2859
11.2859
11.2859
11.2859
11.2859
11.2859
11.2859
11.2859
11.2859
11.2859
11.2859
11.2859
11.2859
11.2859
11.2859
11.2859
11.2859
11.2859
11.2859
11.2859
11.2859
11.2859
11.2859
11.2859
11.2859
11.2859
11.2859
11.2859
11.2859
11.2859
11.2859
11.2859
11.2859
11.2859
11.2859
11.2859
11.2859
11.2859
11.2859
11.2859
11.2859
11.2859
11.2859
11.2859
11.2859
11.2859
11.2859
11.2859
11.2859
11.2859
11.2859
11.2859
11.2859
11.2859
11.2859
11.2859
11.2859
11.2859
11.2859
11.2859
11.2859
11.2859
11.2859
11.2859
11.2859
11.2859
11.2859
11.2859
11.2859
11.2859
11.2859
11.2859
11.2859
11.2859
11.2859
11.2859
11.2859
11.2859
11.2859
11.2859
11.2859
11.2859
11.2859
11.2859
11.2859
11.2859
11.2859
11.2859
11.2859
11.2859
11.2859
11.2859
11.2859
11.2859
11.2859
11.2859
11.2859
11.2859
11.2859
11.2859
11.2859
11.2859
11.2859
11.2859
11.2859
11.2859
11.2859
11.2859
11.2859
11.2859
11.2859
11.2859
11.2859
11.2859
11.2859
11.2859
11.2859
11.2859
11.2859
11.2859
11.2859
11.2859
11.2859
11.2859
11.2859
11.2859
11.2859
11.2859
11.2859
11.2859
11.2859
11.2859
11.2859
11.2859
11.2859
11.2859
11.2859
11.2859
11.2859
11.2859
11.2859
11.2859
11.2859
11.2859
11.2859
11.2859
11.2859
11.2859
11.2859
11.2859
11.2859
11.2859
11.2859
11.2859
11.2859
11.2859
11.2859
11.2859
11.2859
11.2859
11.2859
11.2859
11.2859
11.2859
11.2859
11.2859
11.2859
11.2859
11.2859
11.2859
11.2859
11.2859
11.2859
11.2859
11.2859
11.2859
11.2859
11.2859
11.2859
11.2859
11.2859
11.2859
11.2859
11.2859
11.2859
11.2859
11.2859
11.2859
11.2859
11.2859
11.2859
11.2859
11.2859
11.2859
11.2859
11.2859
11.2859
11.2859
11.2859
11.2859
11.2859
11.2859
11.2859
11.2859
11.2859
11.2859
11.2859
11.2859
11.2859
11.2859
11.2859
11.2859
11.2859
11.2859
11.2859
11.2859
11.2859
11.2859
11.2859
11.2859
11.2859
11.2859
11.2859
11.2859
11.2859
11.2859
11.2859
11.2859
11.2859
11.2859
11.2859
11.2859
11.2859
11.2859
11.2859
11.2859
11.2859
11.2859
11.2859
11.2859
11.2859
11.2859
11.2859
11.2859
11.2859
11.2859
11.2859
11.2859
11.2859
11.2859
11.2859
11.2859
11.2859
11.2859
11.2859
11.2859
11.2859
11.2859
11.2859
11.2859
11.2859
11.2859
11.2859
11.2859
11.2859
11.2859
11.2859
11.2859
11.2859
11.2859
11.2859
11.2859
11.2859
11.2859
11.2859
11.2859
11.2859
11.2859
11.2859
11.2859
11.2859
11.2859
11.2859
11.2859
11.2859
11.2859
11.2859
11.2859
11.2859
11.2859
11.2859
11.2859
11.2859
11.2859
11.2859
11.2859
11.2859
11.2859
11.2859
11.2859
11.2859
11.2859
11.2859
11.2859
11.2859
11.2859
11.2859
11.2859
11.2859
11.2859
11.2859
11.2859
11.2859
11.2859
11.2859
11.2859
11.2859
11.2859
11.2859
11.2859
11.2859
11.2859
11.2859
11.2859
11.2859
11.2858
11.2858
11.2858
11.2859
11.2859
11.2859
11.2859
11.2859
11.2859
11.2859
11.2859
11.2859
11.2859
11.2859
11.2859
11.2859
11.2859
11.2859
11.2859
11.2859
11.2859
11.2859
11.2859
11.2859
11.2859
11.2859
11.2859
11.2859
11.2859
11.2859
11.2859
11.2859
11.2859
11.2859
11.2859
11.2859
11.2859
11.2859
11.2859
11.2859
11.2859
11.2859
11.2859
11.2859
11.2859
11.2859
11.2859
11.2858
11.2858
11.2858
11.2858
11.2858
11.2857
11.2859
11.2859
11.2859
11.2859
11.2859
11.2859
11.2859
11.2859
11.2859
11.2859
11.2859
11.2859
11.2859
11.2859
11.2859
11.2859
11.2859
11.2859
11.2859
11.2859
11.2859
11.2859
11.2859
11.2859
11.2859
11.2859
11.2859
11.2859
11.2859
11.2859
11.2859
11.2859
11.2859
11.2859
11.2859
11.2859
11.2859
11.2859
11.2859
11.2859
11.2859
11.2858
11.2858
11.2858
11.2858
11.2858
11.2857
11.2856
11.2853
11.2849
11.2859
11.2859
11.2859
11.2859
11.2859
11.2859
11.2859
11.2859
11.2859
11.2859
11.2859
11.2859
11.2859
11.2859
11.2859
11.2859
11.2859
11.2859
11.2859
11.2859
11.2859
11.2859
11.2859
11.2859
11.2859
11.2859
11.2859
11.2859
11.2859
11.2859
11.2859
11.2859
11.2859
11.2859
11.2859
11.2859
11.2859
11.2859
11.2858
11.2858
11.2858
11.2858
11.2858
11.2857
11.2856
11.2854
11.285
11.2843
11.283
11.2805
11.2859
11.2859
11.2859
11.2859
11.2859
11.2859
11.2859
11.2859
11.2859
11.2859
11.2859
11.2859
11.2859
11.2859
11.2859
11.2859
11.2859
11.2859
11.2859
11.2859
11.2859
11.2859
11.2859
11.2859
11.2859
11.2859
11.2859
11.2859
11.2859
11.2859
11.2859
11.2859
11.2859
11.2859
11.2859
11.2858
11.2858
11.2858
11.2858
11.2858
11.2857
11.2856
11.2854
11.285
11.2843
11.2832
11.2811
11.2774
11.2706
11.2576
11.2859
11.2859
11.2859
11.2859
11.2859
11.2859
11.2859
11.2859
11.2859
11.2859
11.2859
11.2859
11.2859
11.2859
11.2859
11.2859
11.2859
11.2859
11.2859
11.2859
11.2859
11.2859
11.2859
11.2859
11.2859
11.2859
11.2859
11.2859
11.2859
11.2859
11.2859
11.2859
11.2858
11.2858
11.2858
11.2858
11.2858
11.2857
11.2856
11.2854
11.285
11.2844
11.2832
11.2813
11.2778
11.2717
11.2609
11.2416
11.2069
11.1426
11.2859
11.2859
11.2859
11.2859
11.2859
11.2859
11.2859
11.2859
11.2859
11.2859
11.2859
11.2859
11.2859
11.2859
11.2859
11.2859
11.2859
11.2859
11.2859
11.2859
11.2859
11.2859
11.2859
11.2859
11.2859
11.2859
11.2859
11.2859
11.2859
11.2858
11.2858
11.2858
11.2858
11.2858
11.2857
11.2856
11.2853
11.285
11.2843
11.2832
11.2813
11.278
11.2722
11.262
11.2442
11.2131
11.159
11.0655
10.9058
10.636
11.2859
11.2859
11.2859
11.2859
11.2859
11.2859
11.2859
11.2859
11.2859
11.2859
11.2859
11.2859
11.2859
11.2859
11.2859
11.2859
11.2859
11.2859
11.2859
11.2859
11.2859
11.2859
11.2859
11.2859
11.2859
11.2858
11.2858
11.2858
11.2858
11.2858
11.2857
11.2857
11.2855
11.2853
11.2849
11.2843
11.2831
11.2812
11.2779
11.2722
11.2624
11.2455
11.2163
11.166
11.0804
10.937
10.7038
10.3424
9.81782
9.11998
11.2859
11.2859
11.2859
11.2859
11.2859
11.2859
11.2859
11.2859
11.2859
11.2859
11.2859
11.2859
11.2859
11.2859
11.2859
11.2859
11.2859
11.2859
11.2859
11.2859
11.2859
11.2859
11.2858
11.2858
11.2858
11.2858
11.2858
11.2857
11.2856
11.2855
11.2852
11.2848
11.2841
11.283
11.281
11.2776
11.2719
11.2622
11.2456
11.2173
11.1694
11.0886
10.9546
10.7386
10.4052
9.92334
9.28452
8.51899
7.68815
6.8663
11.2859
11.2859
11.2859
11.2859
11.2859
11.2859
11.2859
11.2859
11.2859
11.2859
11.2859
11.2859
11.2859
11.2859
11.2859
11.2859
11.2859
11.2859
11.2858
11.2858
11.2858
11.2858
11.2858
11.2858
11.2857
11.2856
11.2854
11.2852
11.2847
11.2839
11.2827
11.2806
11.2771
11.2712
11.2613
11.2446
11.2165
11.1695
11.0912
10.9629
10.7578
10.4433
9.98928
9.38491
8.6539
7.85325
7.05114
6.30223
5.63303
5.05575
11.2859
11.2859
11.2859
11.2859
11.2859
11.2859
11.2859
11.2859
11.2859
11.2859
11.2859
11.2859
11.2859
11.2859
11.2859
11.2858
11.2858
11.2858
11.2858
11.2858
11.2857
11.2857
11.2855
11.2854
11.285
11.2845
11.2837
11.2823
11.28
11.2763
11.27
11.2596
11.2424
11.2138
11.1664
11.0886
10.9626
10.7635
10.4607
10.0259
9.44732
8.74411
7.96705
7.18024
6.43766
5.77084
5.1899
4.69199
4.26571
3.90443
11.2859
11.2859
11.2859
11.2859
11.2859
11.2859
11.2859
11.2859
11.2859
11.2859
11.2859
11.2858
11.2858
11.2858
11.2858
11.2858
11.2858
11.2857
11.2856
11.2855
11.2852
11.2849
11.2843
11.2833
11.2818
11.2792
11.2751
11.2683
11.2571
11.2388
11.2089
11.16
11.0807
10.954
10.7562
10.4588
10.0356
9.47512
8.79425
8.03892
7.26875
6.5358
5.87221
5.29024
4.78863
4.35956
3.99301
3.67985
3.40997
3.17992
11.2859
11.2859
11.2859
11.2859
11.2859
11.2859
11.2859
11.2858
11.2858
11.2858
11.2858
11.2858
11.2858
11.2857
11.2857
11.2856
11.2854
11.2851
11.2847
11.2839
11.2828
11.281
11.2781
11.2734
11.2658
11.2535
11.2336
11.2015
11.1496
11.0668
10.9363
10.7355
10.4377
10.019
9.4696
8.80569
8.06988
7.31754
6.59783
5.94218
5.3636
4.86212
4.43104
4.06134
3.74407
3.47152
3.23702
3.03589
2.86329
2.71873
11.2859
11.2859
11.2859
11.2859
11.2858
11.2858
11.2858
11.2858
11.2858
11.2858
11.2857
11.2857
11.2856
11.2855
11.2852
11.2849
11.2843
11.2835
11.2821
11.28
11.2765
11.2711
11.2624
11.2485
11.2263
11.1909
11.1346
11.046
10.9085
10.7003
10.3965
9.97572
9.43097
8.77908
8.06051
7.32674
6.62337
5.97999
5.40942
4.9124
4.48308
4.1132
3.79443
3.5193
3.28165
3.07644
2.9001
2.75027
2.62603
2.52568
2.44774
11.2858
11.2858
11.2858
11.2858
11.2858
11.2858
11.2858
11.2857
11.2856
11.2855
11.2853
11.285
11.2846
11.2839
11.2828
11.2811
11.2785
11.2744
11.2679
11.2577
11.2416
11.2162
11.1762
11.1136
11.0166
10.8686
10.6484
10.333
9.90427
9.35854
8.71448
8.0113
7.29676
6.61242
5.98522
5.42694
4.9385
4.51469
4.14793
3.83042
3.55513
3.3162
3.1088
2.92927
2.77508
2.6449
2.53803
2.45342
2.38924
2.34207
2.30801
11.2858
11.2858
11.2858
11.2858
11.2857
11.2856
11.2855
11.2854
11.2851
11.2847
11.2841
11.2832
11.2819
11.2797
11.2765
11.2714
11.2634
11.2511
11.232
11.2022
11.1561
11.0849
10.9764
10.8138
10.5767
10.2443
9.80211
9.25077
8.61149
7.92264
7.22828
6.56556
5.95807
5.41602
4.94001
4.52523
4.16469
3.85117
3.57813
3.34001
3.13228
2.95134
2.79458
2.66044
2.54819
2.4572
2.38628
2.33319
2.29479
2.2678
2.24897
2.2354
11.2857
11.2856
11.2855
11.2854
11.2852
11.2848
11.2843
11.2835
11.2823
11.2805
11.2777
11.2735
11.2671
11.2572
11.242
11.2187
11.183
11.1285
11.0458
10.9219
10.7401
10.4809
10.1261
9.66581
9.1056
8.46949
7.79506
7.12242
6.48393
5.89946
5.37719
4.91708
4.51457
4.16317
3.85622
3.58768
3.35237
3.1461
2.96543
2.80779
2.67146
2.55558
2.45973
2.38321
2.3245
2.28111
2.25008
2.2284
2.21339
2.20307
2.19572
2.19042
11.2852
11.2848
11.2843
11.2836
11.2825
11.2809
11.2785
11.2748
11.2693
11.2609
11.2483
11.2291
11.2002
11.1564
11.0906
10.9926
10.8487
10.6422
10.3552
9.97315
9.49137
8.92074
8.28802
7.62946
6.98081
6.36933
5.81094
5.31159
4.87047
4.48308
4.14343
3.8454
3.58345
3.35286
3.14972
2.97088
2.81386
2.67692
2.55908
2.45994
2.37908
2.31557
2.26759
2.23262
2.2079
2.19067
2.17881
2.17073
2.16514
2.16168
2.1592
2.15836
11.2826
11.2811
11.2788
11.2755
11.2705
11.2631
11.252
11.2354
11.2107
11.1739
11.1191
11.0382
10.92
10.7505
10.5133
10.193
9.7796
9.27465
8.69426
8.06714
7.42734
6.80566
6.2241
5.69462
5.22094
4.80143
4.43163
4.10599
3.81895
3.56549
3.34131
3.14286
2.96727
2.81225
2.6761
2.55776
2.45679
2.37295
2.30568
2.25375
2.2151
2.18731
2.16785
2.15442
2.14533
2.13901
2.13494
2.13258
2.13127
2.13076
2.13072
2.1311
11.2708
11.2639
11.2537
11.2387
11.2166
11.1841
11.1363
11.0665
10.9653
10.821
10.6191
10.3448
9.98622
9.53934
9.0121
8.42522
7.80801
7.19113
6.59996
6.05124
5.55319
5.10747
4.71172
4.36153
4.05179
3.77748
3.53411
3.31784
3.12547
2.95443
2.80263
2.66849
2.55095
2.4495
2.36397
2.29406
2.23896
2.19715
2.16653
2.1448
2.12971
2.11946
2.1126
2.10799
2.1053
2.1036
2.10349
2.10343
2.10391
2.10491
2.10622
2.1072
11.2188
11.1887
11.145
11.0819
10.9916
10.8637
10.6857
10.4441
10.1267
9.72684
9.24713
8.70172
8.11439
7.51326
6.92442
6.36753
5.85438
5.38983
4.97383
4.60346
4.27442
3.98206
3.72189
3.48995
3.28284
3.09775
2.93239
2.7849
2.65384
2.53821
2.43746
2.35144
2.28
2.22265
2.17829
2.1452
2.12136
2.10468
2.09327
2.08563
2.08057
2.07751
2.07592
2.07527
2.0756
2.07609
2.07719
2.07869
2.08025
2.08184
2.08371
2.08536
11.0027
10.8846
10.7217
10.5018
10.2134
9.8488
9.40782
8.89995
8.34411
7.76492
7.18733
6.63201
6.11299
5.63764
5.2081
4.823
4.47907
4.17223
3.89829
3.65333
3.43386
3.23694
3.06012
2.90139
2.75914
2.63209
2.51932
2.4203
2.33485
2.26292
2.20425
2.15806
2.123
2.09732
2.07913
2.06659
2.05822
2.05279
2.04936
2.04751
2.04674
2.04718
2.04789
2.04895
2.05063
2.05249
2.05421
2.05629
2.05847
2.06056
2.06267
2.0646
9.91422
9.5022
9.02521
8.49852
7.94335
7.38258
6.83641
6.31974
5.84151
5.40551
5.0118
4.65814
4.34115
4.05707
3.8022
3.57313
3.36687
3.18091
3.01313
2.86182
2.7256
2.60335
2.49426
2.39782
2.31387
2.2424
2.18328
2.13602
2.09955
2.07241
2.05294
2.0394
2.03029
2.02437
2.02071
2.01875
2.01803
2.01816
2.01927
2.02034
2.02203
2.02413
2.02627
2.02838
2.03082
2.0332
2.03559
2.03799
2.04033
2.04265
2.0448
8.04854
7.50732
6.9756
6.46802
5.9941
5.55858
5.16259
4.80479
4.48249
4.19241
3.93119
3.69561
3.48279
3.29019
3.1157
2.95754
2.81425
2.68467
2.56786
2.46312
2.36999
2.28833
2.21815
2.15942
2.11181
2.07453
2.04639
2.02592
2.01151
2.00177
1.99549
1.99161
1.98947
1.98864
1.98877
1.98985
1.99136
1.99303
1.99534
1.99773
2.00005
2.00263
2.00535
2.008
2.01067
2.01332
2.01592
2.01851
2.02104
2.02355
2.02591
6.09047
5.66182
5.26968
4.91336
4.59079
4.29916
4.03547
3.79677
3.58037
3.38384
3.20509
3.04235
2.89417
2.75933
2.63687
2.526
2.42615
2.33693
2.25822
2.19004
2.13242
2.08516
2.0477
2.01901
1.99787
1.98285
1.9726
1.96597
1.96185
1.95967
1.95893
1.95908
1.96006
1.96186
1.96369
1.96595
1.96867
1.97135
1.97395
1.97693
1.97989
1.98282
1.98576
1.98866
1.99152
1.99436
1.99715
1.99993
2.00265
2.00536
2.00793
4.37326
4.11109
3.87281
3.65596
3.4583
3.27784
3.11287
2.96197
2.82395
2.69782
2.58279
2.47824
2.3837
2.29887
2.22363
2.15805
2.10218
2.05591
2.01881
1.99007
1.96864
1.95327
1.94266
1.93578
1.9316
1.92937
1.92862
1.92877
1.92985
1.93168
1.93395
1.93622
1.93916
1.94211
1.94497
1.94807
1.95132
1.95448
1.95769
1.96087
1.96402
1.96713
1.97021
1.97325
1.97627
1.97926
1.98221
1.98513
1.98802
1.99079
3.51076
3.33114
3.16629
3.01484
2.87567
2.74782
2.63051
2.52311
2.42514
2.33622
2.25612
2.18479
2.12228
2.06869
2.02396
1.98776
1.95945
1.93811
1.92264
1.91191
1.90491
1.9007
1.89844
1.89778
1.89814
1.8993
1.90115
1.90362
1.90617
1.90908
1.9124
1.91559
1.91872
1.92223
1.9257
1.92915
1.93261
1.93603
1.93941
1.94275
1.94607
1.94936
1.95261
1.95583
1.95903
1.9622
1.96533
1.96843
1.97151
1.97445
2.91226
2.78455
2.66675
2.55823
2.45854
2.36728
2.28419
2.2091
2.14199
2.08295
2.03207
1.98934
1.95451
1.92705
1.90616
1.89091
1.88029
1.8733
1.86913
1.86697
1.86643
1.86696
1.86819
1.8702
1.87276
1.8758
1.87869
1.88223
1.88572
1.8891
1.89274
1.89649
1.90016
1.90387
1.90756
1.91121
1.91483
1.91841
1.92195
1.92547
1.92895
1.9324
1.93583
1.93923
1.9426
1.94593
1.94924
1.95251
1.95576
1.95887
2.48182
2.38979
2.30529
2.22814
2.15824
2.09559
2.04031
1.9925
1.95216
1.91909
1.89286
1.87277
1.85801
1.8477
1.84091
1.83689
1.83498
1.83454
1.83525
1.83667
1.8389
1.84155
1.84477
1.84797
1.85154
1.85544
1.85912
1.86281
1.86681
1.87076
1.87471
1.87867
1.88257
1.88644
1.89028
1.89409
1.89786
1.9016
1.9053
1.90898
1.91262
1.91624
1.91983
1.92339
1.92693
1.93043
1.9339
1.93733
1.94073
1.94401
2.16864
2.10402
2.046
1.99469
1.95021
1.91257
1.8816
1.85693
1.83795
1.82395
1.81416
1.80773
1.80398
1.80232
1.80209
1.80304
1.80481
1.80713
1.80997
1.81329
1.81708
1.82054
1.82468
1.82867
1.83255
1.83674
1.84099
1.84514
1.84934
1.8535
1.85763
1.86173
1.86578
1.8698
1.87379
1.87774
1.88166
1.88555
1.88942
1.89325
1.89705
1.90083
1.90457
1.90829
1.91198
1.91563
1.91926
1.92284
1.92639
1.92982
1.94647
1.90552
1.87081
1.8422
1.81936
1.80175
1.78875
1.77968
1.77378
1.77042
1.76909
1.76915
1.77034
1.7724
1.77489
1.77799
1.78147
1.7855
1.78925
1.7935
1.79792
1.80203
1.8063
1.81078
1.81518
1.81961
1.82404
1.82841
1.83275
1.83705
1.84132
1.84555
1.84975
1.85391
1.85804
1.86214
1.86621
1.87025
1.87426
1.87824
1.88219
1.88612
1.89001
1.89388
1.89771
1.90151
1.90528
1.909
1.91269
1.91626
1.8011
1.7803
1.76427
1.75247
1.74429
1.73906
1.7362
1.73528
1.73573
1.7372
1.73955
1.74232
1.74566
1.74931
1.75345
1.75771
1.76196
1.76666
1.77109
1.77545
1.7802
1.7849
1.78953
1.79418
1.7988
1.80338
1.80793
1.81244
1.81691
1.82134
1.82574
1.8301
1.83444
1.83874
1.84301
1.84725
1.85146
1.85564
1.85979
1.86391
1.86801
1.87207
1.87611
1.88011
1.88408
1.88802
1.89192
1.89577
1.89958
1.90328
1.70806
1.70362
1.70137
1.70093
1.70179
1.70361
1.70628
1.70941
1.71293
1.71683
1.72118
1.72584
1.73016
1.73503
1.73984
1.74443
1.7493
1.75423
1.75905
1.76395
1.76883
1.77365
1.77843
1.78317
1.78787
1.79254
1.79717
1.80177
1.80633
1.81085
1.81535
1.81982
1.82425
1.82865
1.83303
1.83737
1.84169
1.84598
1.85023
1.85446
1.85866
1.86282
1.86696
1.87105
1.87511
1.87914
1.8831
1.88704
1.89085
1.66608
1.66741
1.66962
1.67261
1.67609
1.67985
1.68401
1.68853
1.6934
1.69813
1.70313
1.70827
1.71309
1.71804
1.72323
1.72831
1.73341
1.73851
1.74354
1.74855
1.75354
1.75847
1.76337
1.76822
1.77304
1.77783
1.78258
1.7873
1.79198
1.79663
1.80126
1.80585
1.81041
1.81494
1.81944
1.82392
1.82836
1.83277
1.83716
1.84151
1.84583
1.85012
1.85437
1.85859
1.86276
1.8669
1.87098
1.87502
1.87894
1.6386
1.64242
1.64646
1.65088
1.65562
1.6607
1.66578
1.67089
1.67626
1.68141
1.6865
1.69193
1.69726
1.70254
1.70786
1.71313
1.71837
1.72357
1.72872
1.73384
1.73892
1.74396
1.74897
1.75394
1.75887
1.76377
1.76864
1.77347
1.77828
1.78305
1.78779
1.7925
1.79718
1.80184
1.80646
1.81105
1.81562
1.82015
1.82465
1.82912
1.83356
1.83796
1.84232
1.84665
1.85093
1.85517
1.85935
1.86348
1.86749
1.62244
1.62779
1.63309
1.63844
1.644
1.64946
1.65476
1.66032
1.66589
1.67136
1.6769
1.68241
1.68786
1.69328
1.69865
1.70399
1.70928
1.71454
1.71976
1.72494
1.73009
1.7352
1.74027
1.74532
1.75033
1.75531
1.76025
1.76517
1.77006
1.77491
1.77974
1.78454
1.7893
1.79404
1.79875
1.80342
1.80806
1.81268
1.81725
1.8218
1.8263
1.83077
1.8352
1.83957
1.84391
1.84817
1.8524
1.85649
1.60577
1.61154
1.61721
1.62276
1.62846
1.63425
1.63995
1.64568
1.65139
1.65704
1.66267
1.66827
1.67382
1.67933
1.68479
1.69022
1.69561
1.70096
1.70628
1.71156
1.71681
1.72202
1.72721
1.73235
1.73747
1.74256
1.74761
1.75263
1.75763
1.76259
1.76753
1.77243
1.77731
1.78215
1.78696
1.79174
1.79649
1.8012
1.80588
1.81052
1.81512
1.81968
1.8242
1.82867
1.83308
1.83743
1.84173
1.84589
1.59637
1.60237
1.60829
1.61419
1.62011
1.62598
1.63181
1.6376
1.64335
1.64907
1.65474
1.66037
1.66597
1.67152
1.67704
1.68252
1.68797
1.69338
1.69876
1.70411
1.70942
1.7147
1.71995
1.72516
1.73035
1.73551
1.74063
1.74573
1.7508
1.75583
1.76084
1.76581
1.77075
1.77566
1.78054
1.78538
1.79019
1.79496
1.79969
1.80438
1.80903
1.81363
1.81817
1.82266
1.82708
1.83144
1.83567
1.58248
1.58859
1.59466
1.60068
1.60667
1.61263
1.61854
1.62441
1.63024
1.63603
1.64178
1.6475
1.65317
1.65882
1.66442
1.66999
1.67553
1.68103
1.6865
1.69194
1.69735
1.70272
1.70807
1.71338
1.71866
1.72392
1.72914
1.73433
1.73949
1.74462
1.74972
1.75479
1.75982
1.76482
1.76979
1.77472
1.77962
1.78447
1.78928
1.79405
1.79877
1.80344
1.80806
1.81261
1.81709
1.8215
1.82578
1.5755
1.58165
1.58775
1.59381
1.59983
1.60582
1.61176
1.61766
1.62353
1.62936
1.63516
1.64092
1.64664
1.65233
1.65799
1.66361
1.6692
1.67476
1.68029
1.68579
1.69125
1.69668
1.70209
1.70746
1.7128
1.71811
1.72339
1.72864
1.73386
1.73905
1.7442
1.74932
1.75441
1.75946
1.76447
1.76944
1.77437
1.77926
1.7841
1.78889
1.79362
1.79829
1.8029
1.80743
1.81189
1.81621
1.56297
1.56918
1.57535
1.58148
1.58757
1.59362
1.59963
1.60561
1.61155
1.61746
1.62333
1.62917
1.63498
1.64075
1.64649
1.65219
1.65786
1.66351
1.66912
1.6747
1.68025
1.68577
1.69125
1.69671
1.70214
1.70753
1.7129
1.71823
1.72353
1.7288
1.73403
1.73923
1.74439
1.74952
1.7546
1.75964
1.76464
1.76959
1.77449
1.77934
1.78413
1.78885
1.79351
1.79808
1.80258
1.80692
1.55095
1.55722
1.56345
1.56965
1.5758
1.58192
1.58801
1.59406
1.60007
1.60605
1.612
1.61791
1.62379
1.62964
1.63545
1.64124
1.64699
1.65271
1.6584
1.66406
1.66969
1.67529
1.68085
1.68639
1.69189
1.69737
1.70281
1.70822
1.71359
1.71893
1.72424
1.72951
1.73474
1.73993
1.74508
1.75019
1.75525
1.76025
1.76521
1.77011
1.77494
1.77971
1.7844
1.789
1.79351
1.79788
1.53942
1.54575
1.55204
1.55829
1.56451
1.5707
1.57685
1.58297
1.58905
1.5951
1.60112
1.6071
1.61306
1.61898
1.62486
1.63072
1.63655
1.64234
1.64811
1.65384
1.65954
1.66521
1.67085
1.67646
1.68204
1.68758
1.6931
1.69857
1.70402
1.70943
1.7148
1.72013
1.72543
1.73068
1.73589
1.74105
1.74616
1.75122
1.75622
1.76116
1.76603
1.77082
1.77554
1.78015
1.78468
1.78905
1.52834
1.53473
1.54108
1.5474
1.55368
1.55993
1.56614
1.57232
1.57847
1.58459
1.59067
1.59673
1.60275
1.60873
1.61469
1.62062
1.62651
1.63238
1.63821
1.64401
1.64978
1.65552
1.66123
1.66691
1.67255
1.67816
1.68374
1.68928
1.69479
1.70025
1.70569
1.71108
1.71643
1.72173
1.72699
1.7322
1.73736
1.74245
1.74749
1.75246
1.75735
1.76216
1.76689
1.77152
1.77606
1.78042
1.51771
1.52415
1.53056
1.53693
1.54327
1.54958
1.55586
1.5621
1.56831
1.57449
1.58064
1.58675
1.59284
1.59889
1.60491
1.6109
1.61686
1.62279
1.62869
1.63455
1.64039
1.64619
1.65196
1.6577
1.6634
1.66907
1.67471
1.68031
1.68587
1.69139
1.69688
1.70232
1.70772
1.71307
1.71836
1.72361
1.7288
1.73392
1.73898
1.74397
1.74889
1.75372
1.75846
1.76309
1.76762
1.77198
1.50749
1.51398
1.52044
1.52687
1.53327
1.53964
1.54597
1.55227
1.55854
1.56478
1.57098
1.57716
1.5833
1.58941
1.5955
1.60155
1.60757
1.61355
1.61951
1.62543
1.63133
1.63719
1.64301
1.64881
1.65457
1.66029
1.66598
1.67163
1.67724
1.68281
1.68834
1.69382
1.69926
1.70464
1.70997
1.71525
1.72046
1.72561
1.7307
1.7357
1.74063
1.74547
1.7502
1.75483
1.75935
1.76368
1.5042
1.51072
1.5172
1.52365
1.53007
1.53646
1.54281
1.54913
1.55543
1.56169
1.56792
1.57412
1.58029
1.58642
1.59253
1.5986
1.60465
1.61066
1.61663
1.62258
1.62849
1.63437
1.64021
1.64602
1.65179
1.65753
1.66322
1.66887
1.67448
1.68004
1.68556
1.69102
1.69644
1.7018
1.7071
1.71234
1.71751
1.7226
1.72762
1.73255
1.73738
1.74211
1.74672
1.75122
1.75552
1.49479
1.50136
1.50789
1.51439
1.52086
1.52729
1.5337
1.54007
1.54642
1.55273
1.55901
1.56526
1.57148
1.57767
1.58382
1.58995
1.59604
1.6021
1.60813
1.61412
1.62008
1.62601
1.63189
1.63774
1.64355
1.64932
1.65505
1.66073
1.66637
1.67197
1.67751
1.68301
1.68844
1.69383
1.69914
1.7044
1.70957
1.71468
1.71969
1.72462
1.72944
1.73416
1.73874
1.74321
1.74747
1.48573
1.49234
1.49891
1.50546
1.51198
1.51846
1.52491
1.53133
1.53772
1.54408
1.55041
1.55671
1.56298
1.56921
1.57541
1.58158
1.58772
1.59382
1.59989
1.60593
1.61192
1.61788
1.62381
1.62969
1.63553
1.64133
1.64709
1.65281
1.65848
1.6641
1.66967
1.67518
1.68064
1.68603
1.69136
1.69662
1.7018
1.7069
1.71191
1.71682
1.72163
1.72632
1.73087
1.7353
1.73951
1.48364
1.49026
1.49685
1.50341
1.50993
1.51643
1.52289
1.52933
1.53573
1.5421
1.54844
1.55475
1.56103
1.56727