/*--------------------------------*- C++ -*----------------------------------*\
| =========                 |                                                 |
| \\      /  F ield         | OpenFOAM: The Open Source CFD Toolbox           |
|  \\    /   O peration     | Version:  v1706                                 |
|   \\  /    A nd           | Web:      www.OpenFOAM.com                      |
|    \\/     M anipulation  |                                                 |
\*---------------------------------------------------------------------------*/
FoamFile
{
    version     2.0;
    format      ascii;
    class       volScalarField;
    location    "1.3e-05";
    object      mu;
}
// * * * * * * * * * * * * * * * * * * * * * * * * * * * * * * * * * * * * * //

dimensions      [1 -1 -1 0 0 0 0];


internalField   nonuniform List<scalar> 
30038
(
1.0351e-05
1.0351e-05
1.0351e-05
1.0351e-05
1.0351e-05
1.0351e-05
1.0351e-05
1.0351e-05
1.0351e-05
1.0351e-05
1.0351e-05
1.0351e-05
1.0351e-05
1.0351e-05
1.0351e-05
1.0351e-05
1.0351e-05
1.0351e-05
1.0351e-05
1.0351e-05
1.0351e-05
1.0351e-05
1.0351e-05
1.0351e-05
1.0351e-05
1.0351e-05
1.0351e-05
1.0351e-05
1.0351e-05
1.0351e-05
1.0351e-05
1.0351e-05
1.0351e-05
1.0351e-05
1.0351e-05
1.0351e-05
1.0351e-05
1.0351e-05
1.0351e-05
1.0351e-05
1.0351e-05
1.0351e-05
1.0351e-05
1.0351e-05
1.0351e-05
1.0351e-05
1.0351e-05
1.0351e-05
1.0351e-05
1.0351e-05
1.0351e-05
1.0351e-05
1.0351e-05
1.0351e-05
1.0351e-05
1.0351e-05
1.0351e-05
1.0351e-05
1.0351e-05
1.0351e-05
1.0351e-05
1.0351e-05
1.0351e-05
1.0351e-05
1.0351e-05
1.0351e-05
1.0351e-05
1.0351e-05
1.0351e-05
1.0351e-05
1.0351e-05
1.0351e-05
1.0351e-05
1.0351e-05
1.0351e-05
1.0351e-05
1.0351e-05
1.0351e-05
1.0351e-05
1.0351e-05
1.0351e-05
1.0351e-05
1.0351e-05
1.0351e-05
1.0351e-05
1.0351e-05
1.0351e-05
1.0351e-05
1.0351e-05
1.0351e-05
1.0351e-05
1.0351e-05
1.0351e-05
1.0351e-05
1.0351e-05
1.0351e-05
1.0351e-05
1.0351e-05
1.0351e-05
1.0351e-05
1.0351e-05
1.0351e-05
1.0351e-05
1.0351e-05
1.0351e-05
1.0351e-05
1.0351e-05
1.0351e-05
1.0351e-05
1.0351e-05
1.0351e-05
1.0351e-05
1.0351e-05
1.0351e-05
1.0351e-05
1.0351e-05
1.0351e-05
1.0351e-05
1.0351e-05
1.0351e-05
1.0351e-05
1.0351e-05
1.0351e-05
1.0351e-05
1.0351e-05
1.0351e-05
1.0351e-05
1.0351e-05
1.0351e-05
1.0351e-05
1.0351e-05
1.0351e-05
1.0351e-05
1.0351e-05
1.0351e-05
1.0351e-05
1.0351e-05
1.0351e-05
1.0351e-05
1.0351e-05
1.0351e-05
1.0351e-05
1.0351e-05
1.0351e-05
1.0351e-05
1.0351e-05
1.0351e-05
1.0351e-05
1.0351e-05
1.0351e-05
1.0351e-05
1.0351e-05
1.0351e-05
1.0351e-05
1.0351e-05
1.0351e-05
1.0351e-05
1.0351e-05
1.0351e-05
1.0351e-05
1.0351e-05
1.0351e-05
1.0351e-05
1.0351e-05
1.0351e-05
1.0351e-05
1.0351e-05
1.0351e-05
1.0351e-05
1.0351e-05
1.0351e-05
1.0351e-05
1.0351e-05
1.0351e-05
1.0351e-05
1.0351e-05
1.0351e-05
1.0351e-05
1.0351e-05
1.0351e-05
1.0351e-05
1.0351e-05
1.0351e-05
1.0351e-05
1.0351e-05
1.0351e-05
1.0351e-05
1.0351e-05
1.0351e-05
1.0351e-05
1.0351e-05
1.0351e-05
1.0351e-05
1.0351e-05
1.0351e-05
1.0351e-05
1.0351e-05
1.0351e-05
1.0351e-05
1.0351e-05
1.0351e-05
1.0351e-05
1.0351e-05
1.0351e-05
1.0351e-05
1.0351e-05
1.0351e-05
1.0351e-05
1.0351e-05
1.0351e-05
1.0351e-05
1.0351e-05
1.0351e-05
1.0351e-05
1.0351e-05
1.0351e-05
1.0351e-05
1.0351e-05
1.0351e-05
1.0351e-05
1.0351e-05
1.0351e-05
1.0351e-05
1.0351e-05
1.0351e-05
1.0351e-05
1.0351e-05
1.0351e-05
1.0351e-05
1.0351e-05
1.0351e-05
1.0351e-05
1.0351e-05
1.0351e-05
1.0351e-05
1.0351e-05
1.0351e-05
1.0351e-05
1.0351e-05
1.0351e-05
1.0351e-05
1.0351e-05
1.0351e-05
1.0351e-05
1.0351e-05
1.0351e-05
1.0351e-05
1.0351e-05
1.0351e-05
1.0351e-05
1.0351e-05
1.0351e-05
1.0351e-05
1.0351e-05
1.0351e-05
1.0351e-05
1.0351e-05
1.0351e-05
1.0351e-05
1.0351e-05
1.0351e-05
1.0351e-05
1.0351e-05
1.0351e-05
1.0351e-05
1.0351e-05
1.0351e-05
1.0351e-05
1.0351e-05
1.0351e-05
1.0351e-05
1.0351e-05
1.0351e-05
1.0351e-05
1.0351e-05
1.0351e-05
1.0351e-05
1.0351e-05
1.0351e-05
1.0351e-05
1.0351e-05
1.0351e-05
1.0351e-05
1.0351e-05
1.0351e-05
1.0351e-05
1.0351e-05
1.0351e-05
1.0351e-05
1.0351e-05
1.0351e-05
1.0351e-05
1.0351e-05
1.0351e-05
1.0351e-05
1.0351e-05
1.0351e-05
1.0351e-05
1.0351e-05
1.0351e-05
1.0351e-05
1.0351e-05
1.0351e-05
1.0351e-05
1.0351e-05
1.0351e-05
1.0351e-05
1.0351e-05
1.0351e-05
1.0351e-05
1.0351e-05
1.0351e-05
1.0351e-05
1.0351e-05
1.0351e-05
1.0351e-05
1.0351e-05
1.0351e-05
1.0351e-05
1.0351e-05
1.0351e-05
1.0351e-05
1.0351e-05
1.0351e-05
1.0351e-05
1.0351e-05
1.0351e-05
1.0351e-05
1.0351e-05
1.0351e-05
1.0351e-05
1.0351e-05
1.0351e-05
1.0351e-05
1.0351e-05
1.0351e-05
1.0351e-05
1.0351e-05
1.0351e-05
1.0351e-05
1.0351e-05
1.0351e-05
1.0351e-05
1.0351e-05
1.0351e-05
1.0351e-05
1.0351e-05
1.0351e-05
1.0351e-05
1.0351e-05
1.0351e-05
1.0351e-05
1.0351e-05
1.0351e-05
1.0351e-05
1.0351e-05
1.0351e-05
1.0351e-05
1.0351e-05
1.0351e-05
1.0351e-05
1.0351e-05
1.0351e-05
1.0351e-05
1.0351e-05
1.0351e-05
1.0351e-05
1.0351e-05
1.0351e-05
1.0351e-05
1.0351e-05
1.0351e-05
1.0351e-05
1.0351e-05
1.0351e-05
1.0351e-05
1.0351e-05
1.0351e-05
1.0351e-05
1.0351e-05
1.0351e-05
1.0351e-05
1.0351e-05
1.0351e-05
1.0351e-05
1.0351e-05
1.0351e-05
1.0351e-05
1.0351e-05
1.0351e-05
1.0351e-05
1.0351e-05
1.0351e-05
1.0351e-05
1.0351e-05
1.0351e-05
1.0351e-05
1.0351e-05
1.0351e-05
1.0351e-05
1.0351e-05
1.0351e-05
1.0351e-05
1.0351e-05
1.0351e-05
1.0351e-05
1.0351e-05
1.0351e-05
1.0351e-05
1.0351e-05
1.0351e-05
1.0351e-05
1.0351e-05
1.0351e-05
1.0351e-05
1.0351e-05
1.0351e-05
1.0351e-05
1.0351e-05
1.0351e-05
1.0351e-05
1.0351e-05
1.0351e-05
1.0351e-05
1.0351e-05
1.0351e-05
1.0351e-05
1.0351e-05
1.0351e-05
1.0351e-05
1.0351e-05
1.0351e-05
1.0351e-05
1.0351e-05
1.0351e-05
1.0351e-05
1.0351e-05
1.0351e-05
1.0351e-05
1.0351e-05
1.0351e-05
1.0351e-05
1.0351e-05
1.0351e-05
1.0351e-05
1.0351e-05
1.0351e-05
1.0351e-05
1.0351e-05
1.0351e-05
1.0351e-05
1.0351e-05
1.0351e-05
1.0351e-05
1.0351e-05
1.0351e-05
1.0351e-05
1.0351e-05
1.0351e-05
1.0351e-05
1.0351e-05
1.0351e-05
1.0351e-05
1.0351e-05
1.0351e-05
1.0351e-05
1.0351e-05
1.0351e-05
1.0351e-05
1.0351e-05
1.0351e-05
1.0351e-05
1.0351e-05
1.0351e-05
1.0351e-05
1.0351e-05
1.0351e-05
1.0351e-05
1.0351e-05
1.0351e-05
1.0351e-05
1.0351e-05
1.0351e-05
1.0351e-05
1.0351e-05
1.0351e-05
1.0351e-05
1.0351e-05
1.0351e-05
1.0351e-05
1.0351e-05
1.0351e-05
1.0351e-05
1.0351e-05
1.0351e-05
1.0351e-05
1.0351e-05
1.0351e-05
1.0351e-05
1.0351e-05
1.0351e-05
1.0351e-05
1.0351e-05
1.0351e-05
1.0351e-05
1.0351e-05
1.0351e-05
1.0351e-05
1.0351e-05
1.0351e-05
1.0351e-05
1.0351e-05
1.0351e-05
1.0351e-05
1.0351e-05
1.0351e-05
1.0351e-05
1.0351e-05
1.0351e-05
1.0351e-05
1.0351e-05
1.0351e-05
1.0351e-05
1.0351e-05
1.0351e-05
1.0351e-05
1.0351e-05
1.0351e-05
1.0351e-05
1.0351e-05
1.0351e-05
1.0351e-05
1.0351e-05
1.0351e-05
1.0351e-05
1.0351e-05
1.0351e-05
1.0351e-05
1.0351e-05
1.0351e-05
1.0351e-05
1.0351e-05
1.0351e-05
1.0351e-05
1.0351e-05
1.0351e-05
1.0351e-05
1.0351e-05
1.0351e-05
1.0351e-05
1.0351e-05
1.0351e-05
1.0351e-05
1.0351e-05
1.0351e-05
1.0351e-05
1.0351e-05
1.0351e-05
1.0351e-05
1.0351e-05
1.0351e-05
1.0351e-05
1.0351e-05
1.0351e-05
1.0351e-05
1.0351e-05
1.0351e-05
1.0351e-05
1.0351e-05
1.0351e-05
1.0351e-05
1.0351e-05
1.0351e-05
1.0351e-05
1.0351e-05
1.0351e-05
1.0351e-05
1.0351e-05
1.0351e-05
1.0351e-05
1.0351e-05
1.0351e-05
1.0351e-05
1.0351e-05
1.0351e-05
1.0351e-05
1.0351e-05
1.0351e-05
1.0351e-05
1.0351e-05
1.0351e-05
1.0351e-05
1.0351e-05
1.0351e-05
1.0351e-05
1.0351e-05
1.0351e-05
1.0351e-05
1.0351e-05
1.0351e-05
1.0351e-05
1.0351e-05
1.0351e-05
1.0351e-05
1.0351e-05
1.0351e-05
1.0351e-05
1.0351e-05
1.0351e-05
1.0351e-05
1.0351e-05
1.0351e-05
1.0351e-05
1.0351e-05
1.0351e-05
1.0351e-05
1.0351e-05
1.0351e-05
1.0351e-05
1.0351e-05
1.0351e-05
1.0351e-05
1.0351e-05
1.0351e-05
1.0351e-05
1.0351e-05
1.0351e-05
1.0351e-05
1.0351e-05
1.0351e-05
1.0351e-05
1.0351e-05
1.0351e-05
1.0351e-05
1.0351e-05
1.0351e-05
1.0351e-05
1.0351e-05
1.0351e-05
1.0351e-05
1.0351e-05
1.0351e-05
1.0351e-05
1.0351e-05
1.0351e-05
1.0351e-05
1.0351e-05
1.0351e-05
1.0351e-05
1.0351e-05
1.0351e-05
1.0351e-05
1.0351e-05
1.0351e-05
1.0351e-05
1.0351e-05
1.0351e-05
1.0351e-05
1.0351e-05
1.0351e-05
1.0351e-05
1.0351e-05
1.0351e-05
1.0351e-05
1.0351e-05
1.0351e-05
1.0351e-05
1.0351e-05
1.0351e-05
1.0351e-05
1.0351e-05
1.0351e-05
1.0351e-05
1.0351e-05
1.0351e-05
1.0351e-05
1.0351e-05
1.0351e-05
1.0351e-05
1.0351e-05
1.0351e-05
1.0351e-05
1.0351e-05
1.0351e-05
1.0351e-05
1.0351e-05
1.0351e-05
1.0351e-05
1.0351e-05
1.0351e-05
1.0351e-05
1.0351e-05
1.0351e-05
1.0351e-05
1.0351e-05
1.0351e-05
1.0351e-05
1.0351e-05
1.0351e-05
1.0351e-05
1.0351e-05
1.0351e-05
1.0351e-05
1.0351e-05
1.0351e-05
1.0351e-05
1.0351e-05
1.0351e-05
1.0351e-05
1.0351e-05
1.0351e-05
1.0351e-05
1.0351e-05
1.0351e-05
1.0351e-05
1.0351e-05
1.0351e-05
1.0351e-05
1.0351e-05
1.0351e-05
1.0351e-05
1.0351e-05
1.0351e-05
1.0351e-05
1.0351e-05
1.0351e-05
1.0351e-05
1.0351e-05
1.0351e-05
1.0351e-05
1.0351e-05
1.0351e-05
1.0351e-05
1.0351e-05
1.0351e-05
1.0351e-05
1.0351e-05
1.0351e-05
1.0351e-05
1.0351e-05
1.0351e-05
1.0351e-05
1.0351e-05
1.0351e-05
1.0351e-05
1.0351e-05
1.0351e-05
1.0351e-05
1.0351e-05
1.0351e-05
1.0351e-05
1.0351e-05
1.0351e-05
1.0351e-05
1.0351e-05
1.0351e-05
1.0351e-05
1.0351e-05
1.0351e-05
1.0351e-05
1.0351e-05
1.0351e-05
1.0351e-05
1.0351e-05
1.0351e-05
1.0351e-05
1.0351e-05
1.0351e-05
1.0351e-05
1.0351e-05
1.0351e-05
1.0351e-05
1.0351e-05
1.0351e-05
1.0351e-05
1.0351e-05
1.0351e-05
1.0351e-05
1.0351e-05
1.0351e-05
1.0351e-05
1.0351e-05
1.0351e-05
1.0351e-05
1.0351e-05
1.0351e-05
1.0351e-05
1.0351e-05
1.0351e-05
1.0351e-05
1.0351e-05
1.0351e-05
1.0351e-05
1.0351e-05
1.0351e-05
1.0351e-05
1.0351e-05
1.0351e-05
1.0351e-05
1.0351e-05
1.0351e-05
1.0351e-05
1.0351e-05
1.0351e-05
1.0351e-05
1.0351e-05
1.0351e-05
1.0351e-05
1.0351e-05
1.0351e-05
1.0351e-05
1.0351e-05
1.0351e-05
1.0351e-05
1.0351e-05
1.0351e-05
1.0351e-05
1.0351e-05
1.0351e-05
1.0351e-05
1.0351e-05
1.0351e-05
1.0351e-05
1.0351e-05
1.0351e-05
1.0351e-05
1.0351e-05
1.0351e-05
1.0351e-05
1.0351e-05
1.0351e-05
1.0351e-05
1.0351e-05
1.0351e-05
1.0351e-05
1.0351e-05
1.0351e-05
1.0351e-05
1.0351e-05
1.0351e-05
1.0351e-05
1.0351e-05
1.0351e-05
1.0351e-05
1.0351e-05
1.0351e-05
1.0351e-05
1.0351e-05
1.0351e-05
1.0351e-05
1.0351e-05
1.0351e-05
1.0351e-05
1.0351e-05
1.0351e-05
1.0351e-05
1.0351e-05
1.0351e-05
1.0351e-05
1.0351e-05
1.0351e-05
1.0351e-05
1.0351e-05
1.0351e-05
1.0351e-05
1.0351e-05
1.0351e-05
1.0351e-05
1.0351e-05
1.0351e-05
1.0351e-05
1.0351e-05
1.0351e-05
1.0351e-05
1.0351e-05
1.0351e-05
1.0351e-05
1.0351e-05
1.0351e-05
1.0351e-05
1.0351e-05
1.0351e-05
1.0351e-05
1.0351e-05
1.0351e-05
1.0351e-05
1.0351e-05
1.0351e-05
1.0351e-05
1.0351e-05
1.0351e-05
1.0351e-05
1.0351e-05
1.0351e-05
1.0351e-05
1.0351e-05
1.0351e-05
1.0351e-05
1.0351e-05
1.0351e-05
1.0351e-05
1.0351e-05
1.0351e-05
1.0351e-05
1.0351e-05
1.0351e-05
1.0351e-05
1.0351e-05
1.0351e-05
1.0351e-05
1.0351e-05
1.0351e-05
1.0351e-05
1.0351e-05
1.0351e-05
1.0351e-05
1.0351e-05
1.0351e-05
1.0351e-05
1.0351e-05
1.0351e-05
1.0351e-05
1.0351e-05
1.0351e-05
1.0351e-05
1.0351e-05
1.0351e-05
1.0351e-05
1.0351e-05
1.0351e-05
1.0351e-05
1.0351e-05
1.0351e-05
1.0351e-05
1.0351e-05
1.0351e-05
1.0351e-05
1.0351e-05
1.0351e-05
1.0351e-05
1.0351e-05
1.0351e-05
1.0351e-05
1.0351e-05
1.0351e-05
1.0351e-05
1.0351e-05
1.0351e-05
1.0351e-05
1.0351e-05
1.0351e-05
1.0351e-05
1.0351e-05
1.0351e-05
1.0351e-05
1.0351e-05
1.0351e-05
1.0351e-05
1.0351e-05
1.0351e-05
1.0351e-05
1.0351e-05
1.0351e-05
1.0351e-05
1.0351e-05
1.0351e-05
1.0351e-05
1.0351e-05
1.0351e-05
1.0351e-05
1.0351e-05
1.0351e-05
1.0351e-05
1.0351e-05
1.0351e-05
1.0351e-05
1.0351e-05
1.0351e-05
1.0351e-05
1.0351e-05
1.0351e-05
1.0351e-05
1.0351e-05
1.0351e-05
1.0351e-05
1.0351e-05
1.0351e-05
1.0351e-05
1.0351e-05
1.0351e-05
1.0351e-05
1.0351e-05
1.0351e-05
1.0351e-05
1.0351e-05
1.0351e-05
1.0351e-05
1.0351e-05
1.0351e-05
1.0351e-05
1.0351e-05
1.0351e-05
1.0351e-05
1.0351e-05
1.0351e-05
1.0351e-05
1.0351e-05
1.0351e-05
1.0351e-05
1.0351e-05
1.0351e-05
1.0351e-05
1.0351e-05
1.0351e-05
1.0351e-05
1.0351e-05
1.0351e-05
1.0351e-05
1.0351e-05
1.0351e-05
1.0351e-05
1.0351e-05
1.0351e-05
1.0351e-05
1.0351e-05
1.0351e-05
1.0351e-05
1.0351e-05
1.0351e-05
1.0351e-05
1.0351e-05
1.0351e-05
1.0351e-05
1.0351e-05
1.0351e-05
1.0351e-05
1.0351e-05
1.0351e-05
1.0351e-05
1.0351e-05
1.0351e-05
1.0351e-05
1.0351e-05
1.0351e-05
1.0351e-05
1.0351e-05
1.0351e-05
1.0351e-05
1.0351e-05
1.0351e-05
1.0351e-05
1.0351e-05
1.0351e-05
1.0351e-05
1.0351e-05
1.0351e-05
1.0351e-05
1.0351e-05
1.0351e-05
1.0351e-05
1.0351e-05
1.0351e-05
1.0351e-05
1.0351e-05
1.0351e-05
1.0351e-05
1.0351e-05
1.0351e-05
1.0351e-05
1.0351e-05
1.0351e-05
1.0351e-05
1.0351e-05
1.0351e-05
1.0351e-05
1.0351e-05
1.0351e-05
1.0351e-05
1.0351e-05
1.0351e-05
1.0351e-05
1.0351e-05
1.0351e-05
1.0351e-05
1.0351e-05
1.0351e-05
1.0351e-05
1.0351e-05
1.0351e-05
1.0351e-05
1.0351e-05
1.0351e-05
1.0351e-05
1.0351e-05
1.0351e-05
1.0351e-05
1.0351e-05
1.0351e-05
1.0351e-05
1.0351e-05
1.0351e-05
1.0351e-05
1.0351e-05
1.0351e-05
1.0351e-05
1.0351e-05
1.0351e-05
1.0351e-05
1.0351e-05
1.0351e-05
1.0351e-05
1.0351e-05
1.0351e-05
1.0351e-05
1.0351e-05
1.0351e-05
1.0351e-05
1.0351e-05
1.0351e-05
1.0351e-05
1.0351e-05
1.0351e-05
1.0351e-05
1.0351e-05
1.0351e-05
1.0351e-05
1.0351e-05
1.0351e-05
1.0351e-05
1.0351e-05
1.0351e-05
1.0351e-05
1.0351e-05
1.0351e-05
1.0351e-05
1.0351e-05
1.0351e-05
1.0351e-05
1.0351e-05
1.0351e-05
1.0351e-05
1.0351e-05
1.0351e-05
1.0351e-05
1.0351e-05
1.0351e-05
1.0351e-05
1.0351e-05
1.0351e-05
1.0351e-05
1.0351e-05
1.0351e-05
1.0351e-05
1.0351e-05
1.0351e-05
1.0351e-05
1.0351e-05
1.0351e-05
1.0351e-05
1.0351e-05
1.0351e-05
1.0351e-05
1.0351e-05
1.0351e-05
1.0351e-05
1.0351e-05
1.0351e-05
1.0351e-05
1.0351e-05
1.0351e-05
1.0351e-05
1.0351e-05
1.0351e-05
1.0351e-05
1.0351e-05
1.0351e-05
1.0351e-05
1.0351e-05
1.0351e-05
1.0351e-05
1.0351e-05
1.0351e-05
1.0351e-05
1.0351e-05
1.0351e-05
1.0351e-05
1.0351e-05
1.0351e-05
1.0351e-05
1.0351e-05
1.0351e-05
1.0351e-05
1.0351e-05
1.0351e-05
1.0351e-05
1.0351e-05
1.0351e-05
1.0351e-05
1.0351e-05
1.0351e-05
1.0351e-05
1.0351e-05
1.0351e-05
1.0351e-05
1.0351e-05
1.0351e-05
1.0351e-05
1.0351e-05
1.0351e-05
1.0351e-05
1.0351e-05
1.0351e-05
1.0351e-05
1.0351e-05
1.0351e-05
1.0351e-05
1.0351e-05
1.0351e-05
1.0351e-05
1.0351e-05
1.0351e-05
1.0351e-05
1.0351e-05
1.0351e-05
1.0351e-05
1.0351e-05
1.0351e-05
1.0351e-05
1.0351e-05
1.0351e-05
1.0351e-05
1.0351e-05
1.0351e-05
1.0351e-05
1.0351e-05
1.0351e-05
1.0351e-05
1.0351e-05
1.0351e-05
1.0351e-05
1.0351e-05
1.0351e-05
1.0351e-05
1.0351e-05
1.0351e-05
1.0351e-05
1.0351e-05
1.0351e-05
1.0351e-05
1.0351e-05
1.0351e-05
1.0351e-05
1.0351e-05
1.0351e-05
1.0351e-05
1.0351e-05
1.0351e-05
1.0351e-05
1.0351e-05
1.0351e-05
1.0351e-05
1.0351e-05
1.0351e-05
1.0351e-05
1.0351e-05
1.0351e-05
1.0351e-05
1.0351e-05
1.0351e-05
1.0351e-05
1.0351e-05
1.0351e-05
1.0351e-05
1.0351e-05
1.0351e-05
1.0351e-05
1.0351e-05
1.0351e-05
1.0351e-05
1.0351e-05
1.0351e-05
1.0351e-05
1.0351e-05
1.0351e-05
1.0351e-05
1.0351e-05
1.0351e-05
1.0351e-05
1.0351e-05
1.0351e-05
1.0351e-05
1.0351e-05
1.0351e-05
1.0351e-05
1.0351e-05
1.0351e-05
1.0351e-05
1.0351e-05
1.0351e-05
1.0351e-05
1.0351e-05
1.0351e-05
1.0351e-05
1.0351e-05
1.0351e-05
1.0351e-05
1.0351e-05
1.0351e-05
1.0351e-05
1.0351e-05
1.0351e-05
1.0351e-05
1.0351e-05
1.0351e-05
1.0351e-05
1.0351e-05
1.0351e-05
1.0351e-05
1.0351e-05
1.0351e-05
1.0351e-05
1.0351e-05
1.0351e-05
1.0351e-05
1.0351e-05
1.0351e-05
1.0351e-05
1.0351e-05
1.0351e-05
1.0351e-05
1.0351e-05
1.0351e-05
1.0351e-05
1.0351e-05
1.0351e-05
1.0351e-05
1.0351e-05
1.0351e-05
1.0351e-05
1.03511e-05
1.03511e-05
1.03512e-05
1.0351e-05
1.0351e-05
1.0351e-05
1.0351e-05
1.0351e-05
1.0351e-05
1.0351e-05
1.0351e-05
1.0351e-05
1.0351e-05
1.0351e-05
1.0351e-05
1.0351e-05
1.0351e-05
1.0351e-05
1.0351e-05
1.0351e-05
1.0351e-05
1.0351e-05
1.0351e-05
1.0351e-05
1.0351e-05
1.0351e-05
1.0351e-05
1.0351e-05
1.0351e-05
1.0351e-05
1.0351e-05
1.0351e-05
1.0351e-05
1.0351e-05
1.0351e-05
1.0351e-05
1.0351e-05
1.0351e-05
1.0351e-05
1.0351e-05
1.0351e-05
1.0351e-05
1.0351e-05
1.0351e-05
1.0351e-05
1.0351e-05
1.0351e-05
1.03511e-05
1.03511e-05
1.03512e-05
1.03514e-05
1.03517e-05
1.03523e-05
1.0351e-05
1.0351e-05
1.0351e-05
1.0351e-05
1.0351e-05
1.0351e-05
1.0351e-05
1.0351e-05
1.0351e-05
1.0351e-05
1.0351e-05
1.0351e-05
1.0351e-05
1.0351e-05
1.0351e-05
1.0351e-05
1.0351e-05
1.0351e-05
1.0351e-05
1.0351e-05
1.0351e-05
1.0351e-05
1.0351e-05
1.0351e-05
1.0351e-05
1.0351e-05
1.0351e-05
1.0351e-05
1.0351e-05
1.0351e-05
1.0351e-05
1.0351e-05
1.0351e-05
1.0351e-05
1.0351e-05
1.0351e-05
1.0351e-05
1.0351e-05
1.0351e-05
1.0351e-05
1.0351e-05
1.03511e-05
1.03511e-05
1.03512e-05
1.03514e-05
1.03516e-05
1.03521e-05
1.0353e-05
1.03547e-05
1.03579e-05
1.0351e-05
1.0351e-05
1.0351e-05
1.0351e-05
1.0351e-05
1.0351e-05
1.0351e-05
1.0351e-05
1.0351e-05
1.0351e-05
1.0351e-05
1.0351e-05
1.0351e-05
1.0351e-05
1.0351e-05
1.0351e-05
1.0351e-05
1.0351e-05
1.0351e-05
1.0351e-05
1.0351e-05
1.0351e-05
1.0351e-05
1.0351e-05
1.0351e-05
1.0351e-05
1.0351e-05
1.0351e-05
1.0351e-05
1.0351e-05
1.0351e-05
1.0351e-05
1.0351e-05
1.0351e-05
1.0351e-05
1.0351e-05
1.0351e-05
1.0351e-05
1.03511e-05
1.03511e-05
1.03512e-05
1.03514e-05
1.03516e-05
1.03521e-05
1.0353e-05
1.03545e-05
1.03571e-05
1.0362e-05
1.03708e-05
1.03877e-05
1.0351e-05
1.0351e-05
1.0351e-05
1.0351e-05
1.0351e-05
1.0351e-05
1.0351e-05
1.0351e-05
1.0351e-05
1.0351e-05
1.0351e-05
1.0351e-05
1.0351e-05
1.0351e-05
1.0351e-05
1.0351e-05
1.0351e-05
1.0351e-05
1.0351e-05
1.0351e-05
1.0351e-05
1.0351e-05
1.0351e-05
1.0351e-05
1.0351e-05
1.0351e-05
1.0351e-05
1.0351e-05
1.0351e-05
1.0351e-05
1.0351e-05
1.0351e-05
1.0351e-05
1.0351e-05
1.0351e-05
1.03511e-05
1.03511e-05
1.03512e-05
1.03514e-05
1.03516e-05
1.03521e-05
1.03529e-05
1.03544e-05
1.03569e-05
1.03614e-05
1.03694e-05
1.03835e-05
1.04087e-05
1.04543e-05
1.05398e-05
1.0351e-05
1.0351e-05
1.0351e-05
1.0351e-05
1.0351e-05
1.0351e-05
1.0351e-05
1.0351e-05
1.0351e-05
1.0351e-05
1.0351e-05
1.0351e-05
1.0351e-05
1.0351e-05
1.0351e-05
1.0351e-05
1.0351e-05
1.0351e-05
1.0351e-05
1.0351e-05
1.0351e-05
1.0351e-05
1.0351e-05
1.0351e-05
1.0351e-05
1.0351e-05
1.0351e-05
1.0351e-05
1.0351e-05
1.0351e-05
1.0351e-05
1.0351e-05
1.03511e-05
1.03511e-05
1.03512e-05
1.03514e-05
1.03517e-05
1.03521e-05
1.0353e-05
1.03544e-05
1.03569e-05
1.03612e-05
1.03688e-05
1.0382e-05
1.04052e-05
1.04461e-05
1.05179e-05
1.0644e-05
1.08651e-05
1.12571e-05
1.0351e-05
1.0351e-05
1.0351e-05
1.0351e-05
1.0351e-05
1.0351e-05
1.0351e-05
1.0351e-05
1.0351e-05
1.0351e-05
1.0351e-05
1.0351e-05
1.0351e-05
1.0351e-05
1.0351e-05
1.0351e-05
1.0351e-05
1.0351e-05
1.0351e-05
1.0351e-05
1.0351e-05
1.0351e-05
1.0351e-05
1.0351e-05
1.0351e-05
1.0351e-05
1.0351e-05
1.0351e-05
1.03511e-05
1.03511e-05
1.03512e-05
1.03513e-05
1.03514e-05
1.03517e-05
1.03522e-05
1.03531e-05
1.03545e-05
1.0357e-05
1.03613e-05
1.03687e-05
1.03814e-05
1.04036e-05
1.0442e-05
1.05086e-05
1.06237e-05
1.08214e-05
1.11563e-05
1.17106e-05
1.25991e-05
1.39683e-05
1.0351e-05
1.0351e-05
1.0351e-05
1.0351e-05
1.0351e-05
1.0351e-05
1.0351e-05
1.0351e-05
1.0351e-05
1.0351e-05
1.0351e-05
1.0351e-05
1.0351e-05
1.0351e-05
1.0351e-05
1.0351e-05
1.0351e-05
1.0351e-05
1.0351e-05
1.0351e-05
1.0351e-05
1.0351e-05
1.0351e-05
1.0351e-05
1.0351e-05
1.03511e-05
1.03511e-05
1.03512e-05
1.03513e-05
1.03515e-05
1.03518e-05
1.03523e-05
1.03532e-05
1.03547e-05
1.03573e-05
1.03617e-05
1.03691e-05
1.03818e-05
1.04034e-05
1.04405e-05
1.05041e-05
1.06127e-05
1.07969e-05
1.11054e-05
1.16111e-05
1.24124e-05
1.36241e-05
1.53536e-05
1.76717e-05
2.05872e-05
1.0351e-05
1.0351e-05
1.0351e-05
1.0351e-05
1.0351e-05
1.0351e-05
1.0351e-05
1.0351e-05
1.0351e-05
1.0351e-05
1.0351e-05
1.0351e-05
1.0351e-05
1.0351e-05
1.0351e-05
1.0351e-05
1.0351e-05
1.0351e-05
1.0351e-05
1.0351e-05
1.0351e-05
1.03511e-05
1.03511e-05
1.03511e-05
1.03512e-05
1.03513e-05
1.03516e-05
1.03519e-05
1.03525e-05
1.03535e-05
1.03551e-05
1.03578e-05
1.03624e-05
1.037e-05
1.03829e-05
1.04047e-05
1.04416e-05
1.05039e-05
1.06091e-05
1.07854e-05
1.10774e-05
1.15515e-05
1.22976e-05
1.34215e-05
1.50238e-05
1.71699e-05
1.98671e-05
2.30621e-05
2.66623e-05
3.05497e-05
1.0351e-05
1.0351e-05
1.0351e-05
1.0351e-05
1.0351e-05
1.0351e-05
1.0351e-05
1.0351e-05
1.0351e-05
1.0351e-05
1.0351e-05
1.0351e-05
1.0351e-05
1.0351e-05
1.0351e-05
1.0351e-05
1.0351e-05
1.0351e-05
1.03511e-05
1.03511e-05
1.03512e-05
1.03513e-05
1.03514e-05
1.03517e-05
1.03521e-05
1.03527e-05
1.03538e-05
1.03556e-05
1.03586e-05
1.03634e-05
1.03716e-05
1.03851e-05
1.04076e-05
1.04452e-05
1.0508e-05
1.06126e-05
1.07858e-05
1.10692e-05
1.15245e-05
1.22347e-05
1.32981e-05
1.48101e-05
1.68363e-05
1.93901e-05
2.24268e-05
2.58577e-05
2.95729e-05
3.34633e-05
3.74355e-05
4.14029e-05
1.0351e-05
1.0351e-05
1.0351e-05
1.0351e-05
1.0351e-05
1.0351e-05
1.0351e-05
1.0351e-05
1.0351e-05
1.0351e-05
1.0351e-05
1.0351e-05
1.0351e-05
1.0351e-05
1.03511e-05
1.03511e-05
1.03511e-05
1.03512e-05
1.03513e-05
1.03515e-05
1.03518e-05
1.03523e-05
1.0353e-05
1.03543e-05
1.03563e-05
1.03596e-05
1.0365e-05
1.03738e-05
1.03884e-05
1.04123e-05
1.04517e-05
1.05167e-05
1.06234e-05
1.07979e-05
1.10799e-05
1.15276e-05
1.22184e-05
1.3244e-05
1.46938e-05
1.66314e-05
1.90739e-05
2.19852e-05
2.52867e-05
2.88769e-05
3.26507e-05
3.65113e-05
4.03771e-05
4.41786e-05
4.78525e-05
5.13537e-05
1.0351e-05
1.0351e-05
1.0351e-05
1.0351e-05
1.0351e-05
1.0351e-05
1.0351e-05
1.0351e-05
1.0351e-05
1.0351e-05
1.0351e-05
1.03511e-05
1.03511e-05
1.03512e-05
1.03513e-05
1.03514e-05
1.03516e-05
1.0352e-05
1.03526e-05
1.03535e-05
1.03549e-05
1.03573e-05
1.03611e-05
1.03672e-05
1.03771e-05
1.03931e-05
1.04191e-05
1.04615e-05
1.05305e-05
1.06423e-05
1.08226e-05
1.11102e-05
1.15606e-05
1.22471e-05
1.32552e-05
1.46679e-05
1.65448e-05
1.89035e-05
2.17135e-05
2.49046e-05
2.83845e-05
3.20555e-05
3.58264e-05
3.96177e-05
4.33617e-05
4.69944e-05
5.04609e-05
5.37169e-05
5.67144e-05
5.94111e-05
1.0351e-05
1.0351e-05
1.0351e-05
1.0351e-05
1.0351e-05
1.0351e-05
1.0351e-05
1.0351e-05
1.03511e-05
1.03511e-05
1.03511e-05
1.03512e-05
1.03513e-05
1.03515e-05
1.03518e-05
1.03523e-05
1.0353e-05
1.03541e-05
1.03558e-05
1.03586e-05
1.03631e-05
1.03702e-05
1.03815e-05
1.03997e-05
1.04288e-05
1.04756e-05
1.05506e-05
1.06708e-05
1.08618e-05
1.1162e-05
1.16255e-05
1.2322e-05
1.33315e-05
1.47301e-05
1.65719e-05
1.88726e-05
2.16043e-05
2.47031e-05
2.80848e-05
3.16593e-05
3.53416e-05
3.90565e-05
4.27402e-05
4.63349e-05
4.97859e-05
5.3047e-05
5.60761e-05
5.88222e-05
6.12273e-05
6.32397e-05
6.48651e-05
1.0351e-05
1.0351e-05
1.0351e-05
1.0351e-05
1.03511e-05
1.03511e-05
1.03511e-05
1.03512e-05
1.03513e-05
1.03515e-05
1.03517e-05
1.03521e-05
1.03527e-05
1.03535e-05
1.03549e-05
1.03571e-05
1.03605e-05
1.03659e-05
1.03743e-05
1.03877e-05
1.04087e-05
1.04421e-05
1.04951e-05
1.05789e-05
1.07111e-05
1.09183e-05
1.1239e-05
1.17265e-05
1.24474e-05
1.34763e-05
1.48823e-05
1.67126e-05
1.89788e-05
2.16535e-05
2.46775e-05
2.79732e-05
3.14579e-05
3.5053e-05
3.86886e-05
4.23049e-05
4.58497e-05
4.9272e-05
5.25264e-05
5.55732e-05
5.83712e-05
6.08679e-05
6.30098e-05
6.47634e-05
6.61334e-05
6.7155e-05
6.79052e-05
1.0351e-05
1.03511e-05
1.03511e-05
1.03511e-05
1.03512e-05
1.03513e-05
1.03514e-05
1.03516e-05
1.0352e-05
1.03525e-05
1.03532e-05
1.03544e-05
1.03562e-05
1.03589e-05
1.03632e-05
1.03698e-05
1.03801e-05
1.03962e-05
1.04213e-05
1.04606e-05
1.05219e-05
1.06178e-05
1.07668e-05
1.09968e-05
1.1347e-05
1.18701e-05
1.26302e-05
1.36964e-05
1.513e-05
1.69701e-05
1.9223e-05
2.18602e-05
2.48254e-05
2.8047e-05
3.14492e-05
3.49602e-05
3.85157e-05
4.20598e-05
4.55447e-05
4.89247e-05
5.2156e-05
5.52005e-05
5.80227e-05
6.05797e-05
6.28208e-05
6.47045e-05
6.62147e-05
6.73709e-05
6.82197e-05
6.88241e-05
6.92431e-05
6.95381e-05
1.03512e-05
1.03513e-05
1.03514e-05
1.03516e-05
1.03519e-05
1.03524e-05
1.0353e-05
1.03541e-05
1.03556e-05
1.03579e-05
1.03615e-05
1.0367e-05
1.03754e-05
1.03883e-05
1.04081e-05
1.04388e-05
1.0486e-05
1.05589e-05
1.06711e-05
1.08429e-05
1.11037e-05
1.1494e-05
1.2066e-05
1.28811e-05
1.40023e-05
1.54825e-05
1.73519e-05
1.96101e-05
2.22265e-05
2.51471e-05
2.83054e-05
3.16323e-05
3.50625e-05
3.85372e-05
4.20055e-05
4.54229e-05
4.8749e-05
5.19432e-05
5.49686e-05
5.77927e-05
6.03807e-05
6.26882e-05
6.4671e-05
6.63021e-05
6.75831e-05
6.85471e-05
6.92442e-05
6.97333e-05
7.00686e-05
7.02969e-05
7.04523e-05
7.05583e-05
1.03519e-05
1.03523e-05
1.0353e-05
1.03539e-05
1.03553e-05
1.03574e-05
1.03606e-05
1.03653e-05
1.03725e-05
1.03834e-05
1.03999e-05
1.04251e-05
1.04633e-05
1.05215e-05
1.06101e-05
1.07444e-05
1.09468e-05
1.12485e-05
1.16914e-05
1.23274e-05
1.32143e-05
1.44083e-05
1.59528e-05
1.78683e-05
2.01475e-05
2.2757e-05
2.56446e-05
2.87486e-05
3.20061e-05
3.53584e-05
3.87525e-05
4.2142e-05
4.54863e-05
4.87494e-05
5.18946e-05
5.48869e-05
5.76955e-05
6.02904e-05
6.26348e-05
6.46866e-05
6.64127e-05
6.78019e-05
6.88715e-05
6.96625e-05
7.02261e-05
7.06175e-05
7.08818e-05
7.10586e-05
7.11752e-05
7.12467e-05
7.12937e-05
7.13381e-05
1.03552e-05
1.03572e-05
1.03601e-05
1.03645e-05
1.0371e-05
1.03806e-05
1.03951e-05
1.04168e-05
1.04493e-05
1.04982e-05
1.05716e-05
1.06816e-05
1.08457e-05
1.10887e-05
1.14441e-05
1.19549e-05
1.26718e-05
1.36484e-05
1.49325e-05
1.65573e-05
1.8533e-05
2.08454e-05
2.34583e-05
2.63214e-05
2.93777e-05
3.25705e-05
3.58472e-05
3.91608e-05
4.24695e-05
4.57365e-05
4.89291e-05
5.20153e-05
5.49621e-05
5.77402e-05
6.03227e-05
6.26792e-05
6.47723e-05
6.65668e-05
6.8043e-05
6.92057e-05
7.00843e-05
7.07223e-05
7.11705e-05
7.14769e-05
7.16804e-05
7.18143e-05
7.18969e-05
7.19417e-05
7.19742e-05
7.19994e-05
7.1997e-05
7.19818e-05
1.03705e-05
1.03795e-05
1.03928e-05
1.04125e-05
1.04415e-05
1.04846e-05
1.05485e-05
1.06429e-05
1.07823e-05
1.09866e-05
1.12834e-05
1.17084e-05
1.23051e-05
1.31219e-05
1.42064e-05
1.55969e-05
1.73152e-05
1.93618e-05
2.17155e-05
2.43384e-05
2.71823e-05
3.0195e-05
3.33258e-05
3.65285e-05
3.97613e-05
4.29871e-05
4.61728e-05
4.9289e-05
5.23073e-05
5.51979e-05
5.79328e-05
6.04874e-05
6.28357e-05
6.49457e-05
6.67833e-05
6.83242e-05
6.95633e-05
7.05188e-05
7.12269e-05
7.17321e-05
7.20816e-05
7.23147e-05
7.24667e-05
7.25627e-05
7.26138e-05
7.26395e-05
7.26603e-05
7.26632e-05
7.26458e-05
7.26141e-05
7.2571e-05
7.25256e-05
1.04387e-05
1.04785e-05
1.05368e-05
1.06219e-05
1.07458e-05
1.09256e-05
1.11841e-05
1.15516e-05
1.20656e-05
1.27689e-05
1.37058e-05
1.49158e-05
1.64265e-05
1.82481e-05
2.03715e-05
2.27704e-05
2.54059e-05
2.82324e-05
3.1203e-05
3.42728e-05
3.74014e-05
4.05524e-05
4.36929e-05
4.67938e-05
4.98282e-05
5.27713e-05
5.55964e-05
5.82773e-05
6.07908e-05
6.31143e-05
6.52206e-05
6.70783e-05
6.86612e-05
6.9958e-05
7.09775e-05
7.17475e-05
7.23065e-05
7.26977e-05
7.29628e-05
7.31348e-05
7.32427e-05
7.33028e-05
7.33282e-05
7.33404e-05
7.33442e-05
7.33288e-05
7.32961e-05
7.32514e-05
7.31977e-05
7.31415e-05
7.30854e-05
7.30322e-05
1.07305e-05
1.08958e-05
1.1131e-05
1.14621e-05
1.19217e-05
1.25476e-05
1.33801e-05
1.44569e-05
1.58077e-05
1.74483e-05
1.93778e-05
2.15792e-05
2.40224e-05
2.66688e-05
2.94765e-05
3.24037e-05
3.54115e-05
3.84649e-05
4.15322e-05
4.4585e-05
4.75974e-05
5.05455e-05
5.3407e-05
5.61585e-05
5.87757e-05
6.12368e-05
6.35214e-05
6.56064e-05
6.7464e-05
6.90681e-05
7.04034e-05
7.14716e-05
7.22926e-05
7.28994e-05
7.33303e-05
7.36254e-05
7.38187e-05
7.39385e-05
7.40087e-05
7.40381e-05
7.40423e-05
7.40403e-05
7.40282e-05
7.39958e-05
7.39487e-05
7.38917e-05
7.38287e-05
7.3764e-05
7.37e-05
7.36371e-05
7.35752e-05
7.35154e-05
1.24315e-05
1.31947e-05
1.41789e-05
1.5413e-05
1.69152e-05
1.86895e-05
2.07256e-05
2.30004e-05
2.54821e-05
2.81339e-05
3.09182e-05
3.37985e-05
3.67414e-05
3.9717e-05
4.26983e-05
4.56606e-05
4.8581e-05
5.14383e-05
5.42126e-05
5.68833e-05
5.94281e-05
6.18267e-05
6.40605e-05
6.61096e-05
6.79497e-05
6.95558e-05
7.09109e-05
7.20116e-05
7.28716e-05
7.35175e-05
7.39828e-05
7.43055e-05
7.45201e-05
7.46523e-05
7.47298e-05
7.47658e-05
7.47663e-05
7.47576e-05
7.47428e-05
7.47108e-05
7.46615e-05
7.46026e-05
7.45349e-05
7.44636e-05
7.43912e-05
7.43199e-05
7.42488e-05
7.41786e-05
7.41092e-05
7.4041e-05
7.3974e-05
1.66134e-05
1.82704e-05
2.01751e-05
2.23097e-05
2.46477e-05
2.71577e-05
2.98059e-05
3.25594e-05
3.53872e-05
3.82609e-05
4.11553e-05
4.40474e-05
4.69158e-05
4.97405e-05
5.25027e-05
5.51847e-05
5.77682e-05
6.0233e-05
6.25603e-05
6.47331e-05
6.67338e-05
6.85412e-05
7.01323e-05
7.14898e-05
7.26071e-05
7.34925e-05
7.41672e-05
7.46607e-05
7.50075e-05
7.52402e-05
7.53845e-05
7.5469e-05
7.55107e-05
7.55103e-05
7.54953e-05
7.54741e-05
7.54416e-05
7.53909e-05
7.53289e-05
7.52585e-05
7.51805e-05
7.51008e-05
7.50214e-05
7.49429e-05
7.48645e-05
7.4787e-05
7.47099e-05
7.46332e-05
7.45569e-05
7.44815e-05
7.44069e-05
2.41434e-05
2.65295e-05
2.90537e-05
3.16867e-05
3.44003e-05
3.71683e-05
3.99673e-05
4.2776e-05
4.5575e-05
4.83458e-05
5.1071e-05
5.3734e-05
5.63189e-05
5.88095e-05
6.11875e-05
6.34357e-05
6.55384e-05
6.748e-05
6.92418e-05
7.08032e-05
7.21472e-05
7.32654e-05
7.41624e-05
7.48554e-05
7.5369e-05
7.5734e-05
7.59814e-05
7.61371e-05
7.62277e-05
7.62719e-05
7.62735e-05
7.62548e-05
7.62252e-05
7.61875e-05
7.61369e-05
7.60715e-05
7.59974e-05
7.59149e-05
7.58287e-05
7.57414e-05
7.5655e-05
7.55687e-05
7.5483e-05
7.53983e-05
7.53139e-05
7.52299e-05
7.51461e-05
7.50625e-05
7.4979e-05
7.48961e-05
7.48139e-05
3.64379e-05
3.91381e-05
4.1856e-05
4.4574e-05
4.72755e-05
4.99449e-05
5.25667e-05
5.51263e-05
5.76096e-05
6.00021e-05
6.22873e-05
6.44493e-05
6.64739e-05
6.83469e-05
7.00522e-05
7.15711e-05
7.28873e-05
7.39922e-05
7.48878e-05
7.55873e-05
7.61117e-05
7.64887e-05
7.67474e-05
7.69111e-05
7.7006e-05
7.70519e-05
7.70554e-05
7.70333e-05
7.69956e-05
7.69512e-05
7.68986e-05
7.68297e-05
7.67511e-05
7.6666e-05
7.65734e-05
7.64789e-05
7.63846e-05
7.6291e-05
7.61975e-05
7.61048e-05
7.60127e-05
7.5921e-05
7.58297e-05
7.57387e-05
7.56478e-05
7.55569e-05
7.54661e-05
7.53752e-05
7.52848e-05
7.51949e-05
4.65426e-05
4.91423e-05
5.17061e-05
5.42206e-05
5.66728e-05
5.90502e-05
6.13397e-05
6.35264e-05
6.55959e-05
6.75353e-05
6.93318e-05
7.09709e-05