/*--------------------------------*- C++ -*----------------------------------*\
| =========                 |                                                 |
| \\      /  F ield         | OpenFOAM: The Open Source CFD Toolbox           |
|  \\    /   O peration     | Version:  v1706                                 |
|   \\  /    A nd           | Web:      www.OpenFOAM.com                      |
|    \\/     M anipulation  |                                                 |
\*---------------------------------------------------------------------------*/
FoamFile
{
    version     2.0;
    format      ascii;
    class       volScalarField;
    location    "1.3e-05";
    object      Tov;
}
// * * * * * * * * * * * * * * * * * * * * * * * * * * * * * * * * * * * * * //

dimensions      [0 0 0 1 0 0 0];


internalField   nonuniform List<scalar> 
30038
(
144.4
144.4
144.4
144.4
144.4
144.4
144.4
144.4
144.4
144.4
144.4
144.4
144.4
144.4
144.4
144.4
144.4
144.4
144.4
144.4
144.4
144.4
144.4
144.4
144.4
144.4
144.4
144.4
144.4
144.4
144.4
144.4
144.4
144.4
144.4
144.4
144.4
144.4
144.4
144.4
144.4
144.4
144.4
144.4
144.4
144.4
144.4
144.4
144.4
144.4
144.4
144.4
144.4
144.4
144.4
144.4
144.4
144.4
144.4
144.4
144.4
144.4
144.4
144.4
144.4
144.4
144.4
144.4
144.4
144.4
144.4
144.4
144.4
144.4
144.4
144.4
144.4
144.4
144.4
144.4
144.4
144.4
144.4
144.4
144.4
144.4
144.4
144.4
144.4
144.4
144.4
144.4
144.4
144.4
144.4
144.4
144.4
144.4
144.4
144.4
144.4
144.4
144.4
144.4
144.4
144.4
144.4
144.4
144.4
144.4
144.4
144.4
144.4
144.4
144.4
144.4
144.4
144.4
144.4
144.4
144.4
144.4
144.4
144.4
144.4
144.4
144.4
144.4
144.4
144.4
144.4
144.4
144.4
144.4
144.4
144.4
144.4
144.4
144.4
144.4
144.4
144.4
144.4
144.4
144.4
144.4
144.4
144.4
144.4
144.4
144.4
144.4
144.4
144.4
144.4
144.4
144.4
144.4
144.4
144.4
144.4
144.4
144.4
144.4
144.4
144.4
144.4
144.4
144.4
144.4
144.4
144.4
144.4
144.4
144.4
144.4
144.4
144.4
144.4
144.4
144.4
144.4
144.4
144.4
144.4
144.4
144.4
144.4
144.4
144.4
144.4
144.4
144.4
144.4
144.4
144.4
144.4
144.4
144.4
144.4
144.4
144.4
144.4
144.4
144.4
144.4
144.4
144.4
144.4
144.4
144.4
144.4
144.4
144.4
144.4
144.4
144.4
144.4
144.4
144.4
144.4
144.4
144.4
144.4
144.4
144.4
144.4
144.4
144.4
144.4
144.4
144.4
144.4
144.4
144.4
144.4
144.4
144.4
144.4
144.4
144.4
144.4
144.4
144.4
144.4
144.4
144.4
144.4
144.4
144.4
144.4
144.4
144.4
144.4
144.4
144.4
144.4
144.4
144.4
144.4
144.4
144.4
144.4
144.4
144.4
144.4
144.4
144.4
144.4
144.4
144.4
144.4
144.4
144.4
144.4
144.4
144.4
144.4
144.4
144.4
144.4
144.4
144.4
144.4
144.4
144.4
144.4
144.4
144.4
144.4
144.4
144.4
144.4
144.4
144.4
144.4
144.4
144.4
144.4
144.4
144.4
144.4
144.4
144.4
144.4
144.4
144.4
144.4
144.4
144.4
144.4
144.4
144.4
144.4
144.4
144.4
144.4
144.4
144.4
144.4
144.4
144.4
144.4
144.4
144.4
144.4
144.4
144.4
144.4
144.4
144.4
144.4
144.4
144.4
144.4
144.4
144.4
144.4
144.4
144.4
144.4
144.4
144.4
144.4
144.4
144.4
144.4
144.4
144.4
144.4
144.4
144.4
144.4
144.4
144.4
144.4
144.4
144.4
144.4
144.4
144.4
144.4
144.4
144.4
144.4
144.4
144.4
144.4
144.4
144.4
144.4
144.4
144.4
144.4
144.4
144.4
144.4
144.4
144.4
144.4
144.4
144.4
144.4
144.4
144.4
144.4
144.4
144.4
144.4
144.4
144.4
144.4
144.4
144.4
144.4
144.4
144.4
144.4
144.4
144.4
144.4
144.4
144.4
144.4
144.4
144.4
144.4
144.4
144.4
144.4
144.4
144.4
144.4
144.4
144.4
144.4
144.4
144.4
144.4
144.4
144.4
144.4
144.4
144.4
144.4
144.4
144.4
144.4
144.4
144.4
144.4
144.4
144.4
144.4
144.4
144.4
144.4
144.4
144.4
144.4
144.4
144.4
144.4
144.4
144.4
144.4
144.4
144.4
144.4
144.4
144.4
144.4
144.4
144.4
144.4
144.4
144.4
144.4
144.4
144.4
144.4
144.4
144.4
144.4
144.4
144.4
144.4
144.4
144.4
144.4
144.4
144.4
144.4
144.4
144.4
144.4
144.4
144.4
144.4
144.4
144.4
144.4
144.4
144.4
144.4
144.4
144.4
144.4
144.4
144.4
144.4
144.4
144.4
144.4
144.4
144.4
144.4
144.4
144.4
144.4
144.4
144.4
144.4
144.4
144.4
144.4
144.4
144.4
144.4
144.4
144.4
144.4
144.4
144.4
144.4
144.4
144.4
144.4
144.4
144.4
144.4
144.4
144.4
144.4
144.4
144.4
144.4
144.4
144.4
144.4
144.4
144.4
144.4
144.4
144.4
144.4
144.4
144.4
144.4
144.4
144.4
144.4
144.4
144.4
144.4
144.4
144.4
144.4
144.4
144.4
144.4
144.4
144.4
144.4
144.4
144.4
144.4
144.4
144.4
144.4
144.4
144.4
144.4
144.4
144.4
144.4
144.4
144.4
144.4
144.4
144.4
144.4
144.4
144.4
144.4
144.4
144.4
144.4
144.4
144.4
144.4
144.4
144.4
144.4
144.4
144.4
144.4
144.4
144.4
144.4
144.4
144.4
144.4
144.4
144.4
144.4
144.4
144.4
144.4
144.4
144.4
144.4
144.4
144.4
144.4
144.4
144.4
144.4
144.4
144.4
144.4
144.4
144.4
144.4
144.4
144.4
144.4
144.4
144.4
144.4
144.4
144.4
144.4
144.4
144.4
144.4
144.4
144.4
144.4
144.4
144.4
144.4
144.4
144.4
144.4
144.4
144.4
144.4
144.4
144.4
144.4
144.4
144.4
144.4
144.4
144.4
144.4
144.4
144.4
144.4
144.4
144.4
144.4
144.4
144.4
144.4
144.4
144.4
144.4
144.4
144.4
144.4
144.4
144.4
144.4
144.4
144.4
144.4
144.4
144.4
144.4
144.4
144.4
144.4
144.4
144.4
144.4
144.4
144.4
144.4
144.4
144.4
144.4
144.4
144.4
144.4
144.4
144.4
144.4
144.4
144.4
144.4
144.4
144.4
144.4
144.4
144.4
144.4
144.4
144.4
144.4
144.4
144.4
144.4
144.4
144.4
144.4
144.4
144.4
144.4
144.4
144.4
144.4
144.4
144.4
144.4
144.4
144.4
144.4
144.4
144.4
144.4
144.4
144.4
144.4
144.4
144.4
144.4
144.4
144.4
144.4
144.4
144.4
144.4
144.4
144.4
144.4
144.4
144.4
144.4
144.4
144.4
144.4
144.4
144.4
144.4
144.4
144.4
144.4
144.4
144.4
144.4
144.4
144.4
144.4
144.4
144.4
144.4
144.4
144.4
144.4
144.4
144.4
144.4
144.4
144.4
144.4
144.4
144.4
144.4
144.4
144.4
144.4
144.4
144.4
144.4
144.4
144.4
144.4
144.4
144.4
144.4
144.4
144.4
144.4
144.4
144.4
144.4
144.4
144.4
144.4
144.4
144.4
144.4
144.4
144.4
144.4
144.4
144.4
144.4
144.4
144.4
144.4
144.4
144.4
144.4
144.4
144.4
144.4
144.4
144.4
144.4
144.4
144.4
144.4
144.4
144.4
144.4
144.4
144.4
144.4
144.4
144.4
144.4
144.4
144.4
144.4
144.4
144.4
144.4
144.4
144.4
144.4
144.4
144.4
144.4
144.4
144.4
144.4
144.4
144.4
144.4
144.4
144.4
144.4
144.4
144.4
144.4
144.4
144.4
144.4
144.4
144.4
144.4
144.4
144.4
144.4
144.4
144.4
144.4
144.4
144.4
144.4
144.4
144.4
144.4
144.4
144.4
144.4
144.4
144.4
144.4
144.4
144.4
144.4
144.4
144.4
144.4
144.4
144.4
144.4
144.4
144.4
144.4
144.4
144.4
144.4
144.4
144.4
144.4
144.4
144.4
144.4
144.4
144.4
144.4
144.4
144.4
144.4
144.4
144.4
144.4
144.4
144.4
144.4
144.4
144.4
144.4
144.4
144.4
144.4
144.4
144.4
144.4
144.4
144.4
144.4
144.4
144.4
144.4
144.4
144.4
144.4
144.4
144.4
144.4
144.4
144.4
144.4
144.4
144.4
144.4
144.4
144.4
144.4
144.4
144.4
144.4
144.4
144.4
144.4
144.4
144.4
144.4
144.4
144.4
144.4
144.4
144.4
144.4
144.4
144.4
144.4
144.4
144.4
144.4
144.4
144.4
144.4
144.4
144.4
144.4
144.4
144.4
144.4
144.4
144.4
144.4
144.4
144.4
144.4
144.4
144.4
144.4
144.4
144.4
144.4
144.4
144.4
144.4
144.4
144.4
144.4
144.4
144.4
144.4
144.4
144.4
144.4
144.4
144.4
144.4
144.4
144.4
144.4
144.4
144.4
144.4
144.4
144.4
144.4
144.4
144.4
144.4
144.4
144.4
144.4
144.4
144.4
144.4
144.4
144.4
144.4
144.4
144.4
144.4
144.4
144.4
144.4
144.4
144.4
144.4
144.4
144.4
144.4
144.4
144.4
144.4
144.4
144.4
144.4
144.4
144.4
144.4
144.4
144.4
144.4
144.4
144.4
144.4
144.4
144.4
144.4
144.4
144.4
144.4
144.4
144.4
144.4
144.4
144.4
144.4
144.4
144.4
144.4
144.4
144.4
144.4
144.4
144.4
144.4
144.4
144.4
144.4
144.4
144.4
144.4
144.4
144.4
144.4
144.4
144.4
144.4
144.4
144.4
144.4
144.4
144.4
144.4
144.4
144.4
144.4
144.4
144.4
144.4
144.4
144.4
144.4
144.4
144.4
144.4
144.4
144.4
144.4
144.4
144.4
144.4
144.4
144.4
144.4
144.4
144.4
144.4
144.4
144.4
144.4
144.4
144.4
144.4
144.4
144.4
144.4
144.4
144.4
144.4
144.4
144.4
144.4
144.4
144.4
144.4
144.4
144.4
144.4
144.4
144.4
144.4
144.4
144.4
144.4
144.4
144.4
144.4
144.4
144.4
144.4
144.4
144.4
144.4
144.4
144.4
144.4
144.4
144.4
144.4
144.4
144.4
144.4
144.4
144.4
144.4
144.4
144.4
144.4
144.4
144.4
144.4
144.4
144.4
144.4
144.4
144.4
144.4
144.4
144.4
144.4
144.4
144.4
144.4
144.4
144.4
144.4
144.4
144.4
144.4
144.4
144.4
144.4
144.4
144.4
144.4
144.4
144.4
144.4
144.4
144.4
144.4
144.4
144.4
144.4
144.4
144.4
144.4
144.4
144.4
144.4
144.4
144.4
144.4
144.4
144.4
144.4
144.4
144.4
144.4
144.4
144.4
144.4
144.4
144.4
144.4
144.4
144.4
144.4
144.4
144.4
144.4
144.4
144.4
144.4
144.4
144.4
144.4
144.4
144.4
144.4
144.4
144.4
144.4
144.4
144.4
144.4
144.4
144.4
144.4
144.4
144.4
144.4
144.4
144.4
144.4
144.4
144.4
144.4
144.4
144.4
144.4
144.4
144.4
144.4
144.4
144.4
144.4
144.4
144.4
144.4
144.4
144.4
144.4
144.4
144.4
144.4
144.4
144.4
144.4
144.4
144.4
144.4
144.4
144.4
144.4
144.4
144.4
144.4
144.4
144.4
144.4
144.4
144.4
144.4
144.4
144.4
144.4
144.4
144.4
144.4
144.4
144.4
144.4
144.4
144.4
144.401
144.4
144.4
144.4
144.4
144.4
144.4
144.4
144.4
144.4
144.4
144.4
144.4
144.4
144.4
144.4
144.4
144.4
144.4
144.4
144.4
144.4
144.4
144.4
144.4
144.4
144.4
144.4
144.4
144.4
144.4
144.4
144.4
144.4
144.4
144.4
144.4
144.4
144.4
144.4
144.4
144.4
144.4
144.4
144.4
144.4
144.4
144.401
144.401
144.402
144.404
144.4
144.4
144.4
144.4
144.4
144.4
144.4
144.4
144.4
144.4
144.4
144.4
144.4
144.4
144.4
144.4
144.4
144.4
144.4
144.4
144.4
144.4
144.4
144.4
144.4
144.4
144.4
144.4
144.4
144.4
144.4
144.4
144.4
144.4
144.4
144.4
144.4
144.4
144.4
144.4
144.4
144.4
144.4
144.401
144.401
144.402
144.404
144.407
144.413
144.424
144.4
144.4
144.4
144.4
144.4
144.4
144.4
144.4
144.4
144.4
144.4
144.4
144.4
144.4
144.4
144.4
144.4
144.4
144.4
144.4
144.4
144.4
144.4
144.4
144.4
144.4
144.4
144.4
144.4
144.4
144.4
144.4
144.4
144.4
144.4
144.4
144.4
144.4
144.4
144.4
144.401
144.401
144.402
144.404
144.407
144.412
144.421
144.438
144.469
144.53
144.4
144.4
144.4
144.4
144.4
144.4
144.4
144.4
144.4
144.4
144.4
144.4
144.4
144.4
144.4
144.4
144.4
144.4
144.4
144.4
144.4
144.4
144.4
144.4
144.4
144.4
144.4
144.4
144.4
144.4
144.4
144.4
144.4
144.4
144.4
144.4
144.4
144.401
144.401
144.402
144.404
144.407
144.412
144.421
144.437
144.465
144.516
144.606
144.772
145.092
144.4
144.4
144.4
144.4
144.4
144.4
144.4
144.4
144.4
144.4
144.4
144.4
144.4
144.4
144.4
144.4
144.4
144.4
144.4
144.4
144.4
144.4
144.4
144.4
144.4
144.4
144.4
144.4
144.4
144.4
144.4
144.4
144.4
144.4
144.401
144.401
144.402
144.404
144.407
144.412
144.421
144.436
144.464
144.511
144.596
144.746
145.012
145.488
146.348
147.967
144.4
144.4
144.4
144.4
144.4
144.4
144.4
144.4
144.4
144.4
144.4
144.4
144.4
144.4
144.4
144.4
144.4
144.4
144.4
144.4
144.4
144.4
144.4
144.4
144.4
144.4
144.4
144.4
144.4
144.4
144.401
144.401
144.402
144.403
144.404
144.407
144.413
144.422
144.437
144.464
144.511
144.592
144.734
144.984
145.422
146.194
147.552
149.944
154.164
161.72
144.4
144.4
144.4
144.4
144.4
144.4
144.4
144.4
144.4
144.4
144.4
144.4
144.4
144.4
144.4
144.4
144.4
144.4
144.4
144.4
144.4
144.4
144.4
144.4
144.4
144.4
144.4
144.401
144.401
144.402
144.403
144.405
144.408
144.414
144.423
144.439
144.466
144.513
144.594
144.733
144.974
145.391
146.116
147.375
149.559
153.329
159.768
170.579
188.284
216.433
144.4
144.4
144.4
144.4
144.4
144.4
144.4
144.4
144.4
144.4
144.4
144.4
144.4
144.4
144.4
144.4
144.4
144.4
144.4
144.4
144.4
144.4
144.4
144.4
144.401
144.401
144.402
144.403
144.405
144.409
144.415
144.425
144.442
144.471
144.519
144.601
144.741
144.979
145.388
146.089
147.291
149.349
152.859
158.786
168.625
184.525
209.262
245.923
297.375
365.525
144.4
144.4
144.4
144.4
144.4
144.4
144.4
144.4
144.4
144.4
144.4
144.4
144.4
144.4
144.4
144.4
144.4
144.4
144.4
144.4
144.401
144.401
144.401
144.402
144.404
144.406
144.41
144.417
144.428
144.446
144.477
144.528
144.614
144.758
145.002
145.413
146.109
147.288
149.281
152.639
158.245
167.458
182.226
205.071
238.814
286.024
348.357
426.133
518.425
623.128
144.4
144.4
144.4
144.4
144.4
144.4
144.4
144.4
144.4
144.4
144.4
144.4
144.4
144.4
144.4
144.4
144.4
144.401
144.401
144.402
144.403
144.405
144.408
144.412
144.42
144.432
144.453
144.487
144.542
144.634
144.787
145.042
145.467
146.178
147.365
149.348
152.647
158.088
166.929
180.969
202.53
234.239
278.544
337.104
410.349
497.399
596.356
704.777
820.156
939.785
144.4
144.4
144.4
144.4
144.4
144.4
144.4
144.4
144.4
144.4
144.4
144.4
144.4
144.401
144.401
144.401
144.402
144.404
144.406
144.409
144.415
144.424
144.438
144.462
144.5
144.562
144.664
144.83
145.104
145.555
146.3
147.528
149.554
152.879
158.295
166.99
180.643
201.417
231.758
273.974
329.7
399.468
482.613
577.468
681.747
792.911
908.452
1025.94
1142.92
1257.38
144.4
144.4
144.4
144.4
144.4
144.4
144.4
144.4
144.4
144.401
144.401
144.401
144.402
144.403
144.405
144.407
144.412
144.419
144.429
144.447
144.474
144.518
144.59
144.705
144.891
145.193
145.685
146.486
147.79
149.913
153.352
158.879
167.636
181.217
201.648
231.207
272.05
325.729
392.815
472.787
564.202
665.008
772.876
885.438
1000.38
1115.31
1227.93
1336.23
1438
1531.19
144.4
144.4
144.4
144.4
144.4
144.4
144.4
144.401
144.401
144.402
144.403
144.404
144.406
144.41
144.415
144.424
144.437
144.458
144.491
144.544
144.628
144.761
144.975
145.317
145.867
146.751
148.173
150.454
154.101
159.88
168.909
182.717
203.218
232.535
272.655
325.012
390.15
467.628
556.168
653.926
758.778
868.529
981.054
1094.2
1205.78
1313.75
1416.16
1510.7
1594.8
1666.07
1724.23
144.4
144.4
144.4
144.401
144.401
144.402
144.402
144.404
144.406
144.409
144.413
144.42
144.431
144.448
144.474
144.515
144.58
144.681
144.84
145.091
145.489
146.119
147.12
148.708
151.223
155.185
161.373
170.893
185.232
206.206
235.788
275.787
327.486
391.353
466.975
553.185
648.312
750.417
857.494
967.575
1078.75
1188.99
1296.35
1399.02
1495.06
1582.15
1657.88
1720.57
1769.96
1807.03
1834.38
144.401
144.401
144.402
144.402
144.404
144.405
144.408
144.412
144.418
144.427
144.442
144.464
144.497
144.549
144.63
144.755
144.949
145.252
145.726
146.467
147.629
149.447
152.286
156.693
163.469
173.726
188.917
210.77
241.106
281.547
333.197
396.413
470.765
555.162
648.074
747.738
852.32
960.006
1069.06
1177.67
1284.01
1386.35
1483.01
1572.03
1651.16
1718.44
1772.89
1814.87
1845.86
1868.01
1883.4
1894.25
144.404
144.405
144.408
144.411
144.417
144.426
144.438
144.457
144.487
144.531
144.598
144.701
144.86
145.103
145.477
146.055
146.949
148.33
150.462
153.742
158.755
166.335
177.61
194.003
217.155
248.727
290.14
342.297
405.419
479.031
562.089
653.18
750.698
852.968
958.334
1065.2
1171.96
1276.94
1378.48
1475.07
1565.05
1646.44
1717.23
1776.04
1822.59
1857.83
1883.42
1901.43
1913.8
1922.23
1927.98
1931.9
144.417
144.425
144.437
144.455
144.481
144.521
144.58
144.67
144.805
145.011
145.322
145.797
146.519
147.621
149.302
151.859
155.733
161.557
170.206
182.826
200.813
225.704
258.99
301.87
355.036
418.553
491.886
574.02
663.639
759.278
859.418
962.551
1067.21
1171.98
1275.32
1375.71
1471.71
1561.88
1644.54
1717.78
1780.04
1830.56
1869.72
1898.81
1919.61
1934.09
1943.88
1950.43
1954.76
1957.41
1959.14
1960.79
144.48
144.517
144.572
144.654
144.776
144.959
145.231
145.64
146.255
147.179
148.57
150.661
153.795
158.465
165.362
175.406
189.76
209.774
236.868
272.337
317.145
371.757
436.081
509.515
591.065
679.507
773.503
871.682
972.678
1075.15
1177.82
1279.33
1378.26
1473.25
1563.02
1646.11
1720.85
1785.61
1839.36
1881.98
1914.35
1937.95
1954.58
1965.96
1973.53
1978.51
1981.58
1983.25
1984.45
1985.38
1985.29
1984.72
144.767
144.937
145.188
145.559
146.108
146.923
148.132
149.926
152.582
156.5
162.235
170.54
182.381
198.921
221.444
251.218
289.318
336.459
392.881
458.339
532.168
613.4
700.896
793.44
889.798
988.736
1089.05
1189.55
1289.05
1386.26
1479.9
1568.78
1651.67
1727.08
1793.46
1849.63
1895.12
1930.4
1956.66
1975.44
1988.46
1997.16
2002.84
2006.42
2008.32
2009.28
2010.05
2010.15
2009.5
2008.3
2006.69
2004.98
146.054
146.807
147.911
149.526
151.886
155.326
160.31
167.464
177.604
191.727
210.97
236.513
269.438
310.577
360.387
418.894
485.717
560.144
641.241
727.952
819.179
913.813
1010.75
1108.89
1207.17
1304.53
1399.81
1491.81
1579.43
1661.57
1736.96
1804.17
1861.96
1909.66
1947.38
1976
1996.85
2011.46
2021.38
2027.83
2031.87
2034.12
2035.06
2035.52
2035.65
2035.07
2033.83
2032.15
2030.13
2028.01
2025.9
2023.9
151.593
154.756
159.284
165.715
174.751
187.254
204.227
226.738
255.819
292.33
336.84
389.558
450.32
518.633
593.764
674.819
760.834
850.819
943.785
1038.74
1134.71
1230.72
1325.82
1418.97
1509.08
1595.11
1676.07
1750.86
1818.2
1876.89
1926.11
1965.72
1996.31
2019
2035.15
2046.22
2053.49
2057.99
2060.63
2061.73
2061.88
2061.8
2061.34
2060.11
2058.33
2056.18
2053.8
2051.36
2048.95
2046.57
2044.24
2041.98
184.919
200.415
220.868
247.229
280.329
320.777
368.883
424.629
487.693
557.511
633.35
714.374
799.708
888.47
979.779
1072.76
1166.52
1260.2
1352.92
1443.78
1531.76
1615.91
1695.32
1769.03
1835.91
1894.82
1944.89
1985.81
2017.94
2042.16
2059.65
2071.8
2079.89
2084.88
2087.8
2089.16
2089.17
2088.84
2088.27
2087.06
2085.19
2082.95
2080.39
2077.69
2074.95
2072.26
2069.57
2066.91
2064.29
2061.71
2059.18
273.595
311.098
355.708
407.49
466.241
531.529
602.756
679.212
760.134
844.735
932.235
1021.85
1112.81
1204.31
1295.57
1385.82
1474.22
1559.87
1641.88
1719.42
1791.64
1857.54
1916.07
1966.37
2008.03
2041.2
2066.58
2085.19
2098.29
2107.09
2112.56
2115.75
2117.33
2117.31
2116.73
2115.92
2114.68
2112.76
2110.4
2107.73
2104.77
2101.74
2098.73
2095.75
2092.78
2089.84
2086.92
2084.01
2081.12
2078.26
2075.44
453.399
514.985
582.294
654.728
731.626
812.3
896.053
982.197
1070.04
1158.9
1248.05
1336.81
1424.45
1510.25
1593.37
1673.01
1748.4
1818.77
1883.24
1940.88
1990.84
2032.67
2066.38
2092.53
2111.96
2125.8
2135.19
2141.1
2144.54
2146.22
2146.27
2145.56
2144.43
2142.98
2141.05
2138.56
2135.74
2132.59
2129.31
2125.99
2122.7
2119.42
2116.16
2112.94
2109.74
2106.55
2103.36
2100.19
2097.02
2093.87
2090.76
790.804
871.021
953.756
1038.4
1124.36
1211.01
1297.71
1383.84
1468.75
1551.79
1632.2
1709.24
1782.21
1850.42
1913.09
1969.37
2018.49
2059.96
2093.74
2120.22
2140.13
2154.47
2164.32
2170.56
2174.18
2175.93
2176.05
2175.21
2173.76
2172.06
2170.04
2167.41
2164.4
2161.15
2157.61
2154.01
2150.41
2146.84
2143.27
2139.74
2136.23
2132.73
2129.26
2125.79
2122.33
2118.87
2115.42
2111.96
2108.53
2105.11
1100.87
1184.78
1269.08
1353.2
1436.57
1518.61
1598.73
1676.24
1750.46
1820.77
1886.54
1947.07
2001.6
2049.42
2090.06
2123.43
2149.82
2169.88
2184.47
2194.56
2200.98
2204.73
2206.53
2206.59
2205.67
2204
2201.96
2199.71
2197
2193.81
2190.36
2186.63
2182.75
2178.86
2174.98
2171.12
2167.27
2163.46
2159.67
2155.9
2152.14
2148.39
2144.65
2140.91
2137.18
2133.44
2129.7
2125.96
2122.23
2118.51
1414.4
1494.85
1573.87
1650.91
1725.33
1796.55
1863.97
1927.04
1985.12
2037.54
2083.65
2123.03
2155.56
2181.48
2201.33
2215.88
2225.98
2232.48
2236.26
2237.97
2237.94
2236.96
2235.07
2232.66
2230.14
2227.31
2223.91
2220.23
2216.36
2212.23
2208.04
2203.85
2199.7
2195.55
2191.43
2187.34
2183.27
2179.22
2175.19
2171.16
2167.14
2163.13
2159.11
2155.1
2151.08
2147.06
2143.03
2139
2134.98
2130.96
1708.12
1779.29
1847.29
1911.61
1971.74
2027.11
2077.1
2121.15
2158.88
2190.18
2215.24
2234.54
2248.77
2258.69
2265.08
2268.75
2270.32
2270.18
2269.06
2266.9
2264.21
2261.37
2258.29
2254.73
2250.82
2246.74
2242.39
2237.91
2233.45
2228.99
2224.54
2220.11
2215.73
2211.36
2207.02
2202.69
2198.38
2194.08
2189.78
2185.5
2181.21
2176.92
2172.63
2168.34
2164.04
2159.73
2155.42
2151.09
2146.78
2142.47
1963.47
2020.43
2072.84
2120.13
2161.8
2197.54
2227.26
2251.12
2269.57
2283.21
2292.7
2298.8
2302.26
2303.59
2303.25
2301.93
2299.58
2296.57
2293.35
2289.97
2286.3
2282.12
2277.77
2273.23
2268.49
2263.72
2258.97
2254.22
2249.5
2244.81
2240.15
2235.51
2230.89
2226.29
2221.71
2217.14
2212.57
2208.01
2203.46
2198.9
2194.34
2189.78
2185.21
2180.64
2176.06
2171.46
2166.86
2162.25
2157.64
2153.03
2166.39
2205.42
2238.88
2266.71
2289.07
2306.38
2319.18
2328.03
2333.69
2336.79
2337.77
2337.19
2335.6
2332.99
2329.65
2326.12
2322.42
2318.46
2314.07
2309.46
2304.74
2299.75
2294.67
2289.63
2284.6
2279.56
2274.57
2269.61
2264.68
2259.78
2254.89
2250.02
2245.17
2240.33
2235.49
2230.67
2225.85
2221.03
2216.2
2211.38
2206.55
2201.71
2196.86
2192.01
2187.14
2182.26
2177.37
2172.46
2167.56
2162.65
2308.37
2328.98
2344.91
2356.64
2364.65
2369.71
2372.34
2372.86
2371.99
2370.07
2367.14
2363.49
2359.64
2355.58
2351.29
2346.72
2341.83
2336.82
2331.62
2326.27
2320.94
2315.62
2310.29
2305
2299.75
2294.52
2289.32
2284.14
2278.99
2273.86
2268.75
2263.64
2258.54
2253.45
2248.36
2243.28
2238.2
2233.11
2228.02
2222.93
2217.82
2212.71
2207.58
2202.44
2197.29
2192.12
2186.94
2181.75
2176.55
2171.34
2402.53
2406.84
2408.86
2408.81
2407.6
2405.29
2402.02
2398.06
2393.84
2389.42
2384.81
2380.03
2374.85
2369.53
2364.12
2358.52
2352.87
2347.27
2341.66
2336.07
2330.52
2325
2319.51
2314.05
2308.62
2303.2
2297.8
2292.42
2287.06
2281.7
2276.35
2271
2265.66
2260.32
2254.98
2249.63
2244.28
2238.92
2233.55
2228.17
2222.78
2217.37
2211.95
2206.51
2201.06
2195.59
2190.1
2184.62
2179.11
2445.68
2443.99
2441.24
2437.57
2433.29
2428.7
2423.94
2418.99
2413.88
2408.48
2402.87
2397.22
2391.37
2385.42
2379.53
2373.64
2367.75
2361.91
2356.11
2350.32
2344.57
2338.86
2333.16
2327.49
2321.84
2316.2
2310.57
2304.96
2299.35
2293.75
2288.15
2282.56
2276.96
2271.36
2265.76
2260.15
2254.53
2248.9
2243.26
2237.6
2231.93
2226.24
2220.53
2214.81
2209.07
2203.31
2197.54
2191.76
2185.96
2473.78
2469.15
2464.18
2459.06
2453.77
2448.34
2442.69
2436.8
2430.83
2424.76
2418.54
2412.36
2406.21
2400.03
2393.89
2387.8
2381.74
2375.7
2369.71
2363.73
2357.78
2351.85
2345.94
2340.05
2334.17
2328.3
2322.44
2316.59
2310.75
2304.9
2299.06
2293.21
2287.36
2281.5
2275.63
2269.75
2263.86
2257.96
2252.04
2246.11
2240.16
2234.19
2228.2
2222.19
2216.16
2210.12
2204.06
2197.99
2191.9
2489.13
2483.38
2477.43
2471.27
2465.01
2458.68
2452.21
2445.73
2439.3
2432.86
2426.43
2420.07
2413.72
2407.4
2401.13
2394.88
2388.65
2382.45
2376.27
2370.11
2363.97
2357.84
2351.73
2345.62
2339.52
2333.43
2327.33
2321.24
2315.15
2309.05
2302.95
2296.84
2290.72
2284.59
2278.45
2272.29
2266.11
2259.92
2253.71
2247.48
2241.22
2234.95
2228.66
2222.35
2216.02
2209.67
2203.31
2196.93
2506.26
2499.71
2493.11
2486.39
2479.62
2472.92
2466.21
2459.5
2452.86
2446.25
2439.65
2433.09
2426.57
2420.07
2413.61
2407.16
2400.74
2394.34
2387.95
2381.58
2375.21
2368.86
2362.52
2356.18
2349.85
2343.51
2337.18
2330.84
2324.5
2318.15
2311.79
2305.42
2299.04
2292.64
2286.23
2279.8
2273.35
2266.89
2260.4
2253.89
2247.36
2240.8
2234.23
2227.63
2221.02
2214.39
2207.75
2201.08
2514
2507.01
2500.05
2493.07
2486.15
2479.27
2472.4
2465.58
2458.79
2452.03
2445.29
2438.59
2431.9
2425.24
2418.59
2411.97
2405.35
2398.75
2392.16
2385.58
2379
2372.43
2365.86
2359.29
2352.71
2346.13
2339.55
2332.95
2326.35
2319.73
2313.1
2306.46
2299.8
2293.12
2286.42
2279.69
2272.95
2266.19
2259.4
2252.59
2245.76
2238.9
2232.02
2225.13
2218.22
2211.3
2204.35
2527.1
2519.9
2512.77
2505.64
2498.55
2491.5
2484.47
2477.47
2470.51
2463.57
2456.65
2449.75
2442.87
2436.01
2429.16
2422.32
2415.5
2408.68
2401.87
2395.06
2388.26
2381.45
2374.64
2367.83
2361.02
2354.19
2347.36
2340.51
2333.65
2326.78
2319.89
2312.98
2306.05
2299.1
2292.13
2285.14
2278.12
2271.08
2264.02
2256.93
2249.82
2242.69
2235.53
2228.36
2221.17
2213.97
2206.75
2531.96
2524.66
2517.38
2510.12
2502.91
2495.71
2488.54
2481.39
2474.27
2467.16
2460.06
2452.98
2445.92
2438.86
2431.81
2424.77
2417.73
2410.7
2403.67
2396.63
2389.59
2382.55
2375.49
2368.43
2361.36
2354.28
2347.18
2340.06
2332.93
2325.78
2318.61
2311.41
2304.2
2296.96
2289.7
2282.41
2275.1
2267.76
2260.4
2253.01
2245.6
2238.17
2230.73
2223.26
2215.79
2208.3
2543.2
2535.74
2528.3
2520.88
2513.49
2506.12
2498.76
2491.43
2484.11
2476.81
2469.52
2462.24
2454.96
2447.7
2440.43
2433.17
2425.91
2418.65
2411.39
2404.12
2396.85
2389.57
2382.27
2374.97
2367.65
2360.31
2352.96
2345.59
2338.2
2330.79
2323.35
2315.9
2308.41
2300.91
2293.37
2285.82
2278.23
2270.62
2262.99
2255.33
2247.65
2239.95
2232.24
2224.5
2216.76
2208.99
2553.63
2546
2538.39
2530.8
2523.23
2515.68
2508.14
2500.62
2493.11
2485.6
2478.11
2470.62
2463.14
2455.66
2448.18
2440.7
2433.22
2425.73
2418.24
2410.74
2403.23
2395.71
2388.17
2380.62
2373.05
2365.46
2357.86
2350.23
2342.59
2334.91
2327.22
2319.5
2311.75
2303.98
2296.18
2288.36
2280.5
2272.62
2264.72
2256.8
2248.85
2240.88
2232.9
2224.91
2216.93
2208.92
2563.23
2555.43
2547.65
2539.88
2532.13
2524.4
2516.67
2508.95
2501.25
2493.54
2485.85
2478.15
2470.46
2462.76
2455.07
2447.36
2439.66
2431.94
2424.22
2416.48
2408.73
2400.97
2393.19
2385.39
2377.58
2369.74
2361.88
2354
2346.1
2338.17
2330.22
2322.23
2314.23
2306.19
2298.13
2290.04
2281.92
2273.77
2265.6
2257.41
2249.22
2241
2232.78
2224.54
2216.31
2208.06
2572
2564.03
2556.07
2548.13
2540.19
2532.27
2524.35
2516.44
2508.53
2500.62
2492.72
2484.82
2476.91
2469
2461.08
2453.16
2445.22
2437.28
2429.32
2421.35
2413.36
2405.36
2397.34
2389.3
2381.23
2373.15
2365.04
2356.91
2348.75
2340.56
2332.35
2324.11
2315.84
2307.54
2299.22
2290.86
2282.49
2274.1
2265.68
2257.25
2248.8
2240.34
2231.87
2223.39
2214.91
2206.41
2579.93
2571.79
2563.65
2555.52
2547.4
2539.29
2531.18
2523.07
2514.96
2506.85
2498.74
2490.62
2482.5
2474.37
2466.23
2458.08
2449.92
2441.75
2433.56
2425.35
2417.13
2408.89
2400.62
2392.34
2384.03
2375.7
2367.34
2358.95
2350.54
2342.1
2333.63
2325.13
2316.6
2308.06
2299.49
2290.89
2282.27
2273.64
2264.98
2256.3
2247.6
2238.89
2230.17
2221.45
2212.73
2203.99
2587.03
2578.71
2570.39
2562.08
2553.77
2545.46
2537.15
2528.84
2520.53
2512.21
2503.89
2495.56
2487.22
2478.88
2470.52
2462.15
2453.76
2445.35
2436.93
2428.49
2420.03
2411.55
2403.05
2394.52
2385.96
2377.38
2368.78
2360.14
2351.48
2342.78
2334.08
2325.34
2316.57
2307.78
2298.97
2290.13
2281.27
2272.38
2263.47
2254.55
2245.61
2236.66
2227.7
2218.75
2209.8
2200.84
2584.79
2576.28
2567.78
2559.28
2550.78
2542.27
2533.76
2525.25
2516.72
2508.19
2499.65
2491.09
2482.53
2473.95
2465.35
2456.74
2448.1
2439.45
2430.78
2422.08
2413.36
2404.62
2395.85
2387.05
2378.22
2369.37
2360.5
2351.61
2342.68
2333.73
2324.76
2315.75
2306.72
2297.66
2288.58
2279.47
2270.34
2261.19
2252.03
2242.85
2233.67
2224.49
2215.31
2206.14
2196.96
2590.02
2581.33
2572.64
2563.95
2555.25
2546.54
2537.83
2529.11
2520.38
2511.63
2502.88
2494.11
2485.32
2476.52
2467.7
2458.86
2450
2441.12
2432.21
2423.28
2414.32
2405.33
2396.34
2387.31
2378.26
2369.18
2360.08
2350.95
2341.79
2332.59
2323.38
2314.13
2304.86
2295.56
2286.24
2276.89
2267.53
2258.15
2248.76
2239.36
2229.95
2220.55
2211.16
2201.78
2192.39
2594.41
2585.54
2576.66
2567.77
2558.87
2549.96
2541.05
2532.12
2523.18
2514.23
2505.26
2496.27
2487.27
2478.24
2469.2
2460.13
2451.04
2441.93
2432.8
2423.65
2414.47
2405.26
2396.03
2386.78
2377.5
2368.19
2358.85
2349.48
2340.09
2330.66
2321.2
2311.72
2302.22
2292.69
2283.14
2273.56
2263.97
2254.37
2244.76
2235.14
2225.52
2215.91
2206.31
2196.73
2187.15
2588.9
2579.82
2570.74
2561.64
2552.54
2543.42
2534.29
2525.14
2515.97
2506.79
2497.59
2488.36
2479.12
2469.85
2460.57
2451.27
2441.94
2432.59
2423.22
2413.82
2404.4
2394.94
2385.45
2375.94
2366.4
2356.83
2347.23
2337.6
2327.95
2318.26
2308.56
2298.83
2289.07
2279.3
2269.5
2259.7
2249.88
2240.06
2230.23
2220.41
2210.59
2200.8
2191.02
2181.25
2591.41
2582.15
2572.87
2563.57
2554.27
2544.95
2535.61
2526.25
2516.87
2507.47
2498.07
2488.64
2479.19
2469.71
2460.22
2450.71
2441.17
2431.6
2422
2412.37
2402.72
2393.04
2383.33
2373.59
2363.82
2354.03
2344.21
2334.36
2324.48
2314.58
2304.65
2294.7
2284.73
2274.74
2264.73
2254.72
2244.69
2234.67
2224.64
2214.62
2204.62
2194.63
2184.68
2174.73
2593.08
2583.62
2574.15
2564.66
2555.15
2545.62
2536.09
2526.53
2516.96
2507.36
2497.75
2488.12
2478.46
2468.78
2459.07
2449.34
2439.58
2429.79
2419.97
2410.13
2400.26
2390.36
2380.43
2370.47
2360.49
2350.47
2340.43
2330.37
2320.27
2310.16
2300.02
2289.86
2279.68
2269.48
2259.28
2249.06
2238.84
2228.61
2218.4
2208.19
2198.01
2187.84
2177.72
2167.6
2593.91
2584.26
2574.6
2564.92
2555.22
2545.5
2535.77
2526.02
2516.25
2506.46
2496.64
2486.79
2476.93
2467.03
2457.11
2447.17
2437.19
2427.19
2417.16
2407.11
2397.02
2386.91
2376.77
2366.6
2356.4
2346.18
2335.93
2325.65
2315.35
2305.03
2294.69
2284.32
2273.94
2263.55
2253.15
2242.74
2232.33
2221.92
2211.52
2201.14
2190.78
2180.46
2170.17
2159.9
2584.09
2574.25
2564.38
2554.5
2544.59
2534.66
2524.71
2514.74
2504.74
2494.71
2484.67
2474.59
2464.49
2454.37
2444.21
2434.03
2423.82
2413.59
2403.32
2393.03
2382.71
2372.37
2361.99
2351.59
2341.16
2330.71
2320.23
2309.73
2299.21
2288.67
2278.12
2267.55
2256.97
2246.38
2235.79
2225.2
2214.61
2204.04
2193.49
2182.97
2172.49
2162.05
2151.63
2583.14
2573.1
2563.04
2552.97
2542.86
2532.74
2522.59
2512.42
2502.22
2492
2481.75
2471.48
2461.18
2450.85
2440.49
2430.11
2419.7
2409.26
2398.8
2388.31
2377.79
2367.24
2356.67
2346.07
2335.45
2324.8
2314.13
2303.44
2292.73
2282
2271.26
2260.51
2249.75
2238.98
2228.22
2217.46
2206.71
2195.98
2185.27
2174.6
2163.97
2153.38
2142.83
2581.37
2571.14
2560.89
2550.63
2540.33
2530.02
2519.68
2509.31
2498.92
2488.5
2478.06
2467.59
2457.1
2446.58
2436.03
2425.45
2414.84
2404.21
2393.55
2382.87
2372.16
2361.42
2350.66
2339.87
2329.06
2318.22
2307.37
2296.49
2285.6
2274.7
2263.78
2252.85
2241.92
2230.99
2220.06
2209.14
2198.23
2187.35
2176.49
2165.68
2154.91
2144.19
2133.52
2568.38
2557.95
2547.5
2537.02
2526.52
2515.99
2505.43
2494.86
2484.25
2473.62
2462.96
2452.28
2441.56
2430.83
2420.06
2409.27
2398.45
2387.6
2376.73
2365.83
2354.91
2343.97
2333
2322.01
2310.99
2299.96
2288.92
2277.85
2266.78
2255.69
2244.6
2233.51
2222.41
2211.33
2200.26
2189.21
2178.18
2167.19
2156.24
2145.35
2134.51
2123.72
2564.83
2554.22
2543.59
2532.93
2522.25
2511.54
2500.8
2490.04
2479.25
2468.44
2457.6
2446.73
2435.83
2424.91
2413.97
2402.99
2391.99
2380.97
2369.92
2358.84
2347.74
2336.62
2325.48
2314.32
2303.14
2291.94
2280.72
2269.5
2258.26
2247.02
2235.77
2224.53
2213.28
2202.05
2190.84
2179.65
2168.5
2157.38
2146.31
2135.3
2124.35
2113.46
2560.52
2549.73
2538.92
2528.09
2517.23
2506.34
2495.43
2484.49
2473.53
2462.53
2451.52
2440.47
2429.4
2418.31
2407.18
2396.04
2384.86
2373.67
2362.45
2351.2
2339.94
2328.65
2317.34
2306.01
2294.67
2283.31
2271.94
2260.56
2249.18
2237.78
2226.39
2215
2203.62
2192.26
2180.92
2169.6
2158.32
2147.09
2135.91
2124.79
2113.75
2102.76
2555.44
2544.49