/*--------------------------------*- C++ -*----------------------------------*\
| =========                 |                                                 |
| \\      /  F ield         | OpenFOAM: The Open Source CFD Toolbox           |
|  \\    /   O peration     | Version:  v1706                                 |
|   \\  /    A nd           | Web:      www.OpenFOAM.com                      |
|    \\/     M anipulation  |                                                 |
\*---------------------------------------------------------------------------*/
FoamFile
{
    version     2.0;
    format      ascii;
    class       volScalarField;
    location    "1.3e-05";
    object      Tt;
}
// * * * * * * * * * * * * * * * * * * * * * * * * * * * * * * * * * * * * * //

dimensions      [0 0 0 1 0 0 0];


internalField   nonuniform List<scalar> 
30038
(
144.4
144.4
144.4
144.4
144.4
144.4
144.4
144.4
144.4
144.4
144.4
144.4
144.4
144.4
144.4
144.4
144.4
144.4
144.4
144.4
144.4
144.4
144.4
144.4
144.4
144.4
144.4
144.4
144.4
144.4
144.4
144.4
144.4
144.4
144.4
144.4
144.4
144.4
144.4
144.4
144.4
144.4
144.4
144.4
144.4
144.4
144.4
144.4
144.4
144.4
144.4
144.4
144.4
144.4
144.4
144.4
144.4
144.4
144.4
144.4
144.4
144.4
144.4
144.4
144.4
144.4
144.4
144.4
144.4
144.4
144.4
144.4
144.4
144.4
144.4
144.4
144.4
144.4
144.4
144.4
144.4
144.4
144.4
144.4
144.4
144.4
144.4
144.4
144.4
144.4
144.4
144.4
144.4
144.4
144.4
144.4
144.4
144.4
144.4
144.4
144.4
144.4
144.4
144.4
144.4
144.4
144.4
144.4
144.4
144.4
144.4
144.4
144.4
144.4
144.4
144.4
144.4
144.4
144.4
144.4
144.4
144.4
144.4
144.4
144.4
144.4
144.4
144.4
144.4
144.4
144.4
144.4
144.4
144.4
144.4
144.4
144.4
144.4
144.4
144.4
144.4
144.4
144.4
144.4
144.4
144.4
144.4
144.4
144.4
144.4
144.4
144.4
144.4
144.4
144.4
144.4
144.4
144.4
144.4
144.4
144.4
144.4
144.4
144.4
144.4
144.4
144.4
144.4
144.4
144.4
144.4
144.4
144.4
144.4
144.4
144.4
144.4
144.4
144.4
144.4
144.4
144.4
144.4
144.4
144.4
144.4
144.4
144.4
144.4
144.4
144.4
144.4
144.4
144.4
144.4
144.4
144.4
144.4
144.4
144.4
144.4
144.4
144.4
144.4
144.4
144.4
144.4
144.4
144.4
144.4
144.4
144.4
144.4
144.4
144.4
144.4
144.4
144.4
144.4
144.4
144.4
144.4
144.4
144.4
144.4
144.4
144.4
144.4
144.4
144.4
144.4
144.4
144.4
144.4
144.4
144.4
144.4
144.4
144.4
144.4
144.4
144.4
144.4
144.4
144.4
144.4
144.4
144.4
144.4
144.4
144.4
144.4
144.4
144.4
144.4
144.4
144.4
144.4
144.4
144.4
144.4
144.4
144.4
144.4
144.4
144.4
144.4
144.4
144.4
144.4
144.4
144.4
144.4
144.4
144.4
144.4
144.4
144.4
144.4
144.4
144.4
144.4
144.4
144.4
144.4
144.4
144.4
144.4
144.4
144.4
144.4
144.4
144.4
144.4
144.4
144.4
144.4
144.4
144.4
144.4
144.4
144.4
144.4
144.4
144.4
144.4
144.4
144.4
144.4
144.4
144.4
144.4
144.4
144.4
144.4
144.4
144.4
144.4
144.4
144.4
144.4
144.4
144.4
144.4
144.4
144.4
144.4
144.4
144.4
144.4
144.4
144.4
144.4
144.4
144.4
144.4
144.4
144.4
144.4
144.4
144.4
144.4
144.4
144.4
144.4
144.4
144.4
144.4
144.4
144.4
144.4
144.4
144.4
144.4
144.4
144.4
144.4
144.4
144.4
144.4
144.4
144.4
144.4
144.4
144.4
144.4
144.4
144.4
144.4
144.4
144.4
144.4
144.4
144.4
144.4
144.4
144.4
144.4
144.4
144.4
144.4
144.4
144.4
144.4
144.4
144.4
144.4
144.4
144.4
144.4
144.4
144.4
144.4
144.4
144.4
144.4
144.4
144.4
144.4
144.4
144.4
144.4
144.4
144.4
144.4
144.4
144.4
144.4
144.4
144.4
144.4
144.4
144.4
144.4
144.4
144.4
144.4
144.4
144.4
144.4
144.4
144.4
144.4
144.4
144.4
144.4
144.4
144.4
144.4
144.4
144.4
144.4
144.4
144.4
144.4
144.4
144.4
144.4
144.4
144.4
144.4
144.4
144.4
144.4
144.4
144.4
144.4
144.4
144.4
144.4
144.4
144.4
144.4
144.4
144.4
144.4
144.4
144.4
144.4
144.4
144.4
144.4
144.4
144.4
144.4
144.4
144.4
144.4
144.4
144.4
144.4
144.4
144.4
144.4
144.4
144.4
144.4
144.4
144.4
144.4
144.4
144.4
144.4
144.4
144.4
144.4
144.4
144.4
144.4
144.4
144.4
144.4
144.4
144.4
144.4
144.4
144.4
144.4
144.4
144.4
144.4
144.4
144.4
144.4
144.4
144.4
144.4
144.4
144.4
144.4
144.4
144.4
144.4
144.4
144.4
144.4
144.4
144.4
144.4
144.4
144.4
144.4
144.4
144.4
144.4
144.4
144.4
144.4
144.4
144.4
144.4
144.4
144.4
144.4
144.4
144.4
144.4
144.4
144.4
144.4
144.4
144.4
144.4
144.4
144.4
144.4
144.4
144.4
144.4
144.4
144.4
144.4
144.4
144.4
144.4
144.4
144.4
144.4
144.4
144.4
144.4
144.4
144.4
144.4
144.4
144.4
144.4
144.4
144.4
144.4
144.4
144.4
144.4
144.4
144.4
144.4
144.4
144.4
144.4
144.4
144.4
144.4
144.4
144.4
144.4
144.4
144.4
144.4
144.4
144.4
144.4
144.4
144.4
144.4
144.4
144.4
144.4
144.4
144.4
144.4
144.4
144.4
144.4
144.4
144.4
144.4
144.4
144.4
144.4
144.4
144.4
144.4
144.4
144.4
144.4
144.4
144.4
144.4
144.4
144.4
144.4
144.4
144.4
144.4
144.4
144.4
144.4
144.4
144.4
144.4
144.4
144.4
144.4
144.4
144.4
144.4
144.4
144.4
144.4
144.4
144.4
144.4
144.4
144.4
144.4
144.4
144.4
144.4
144.4
144.4
144.4
144.4
144.4
144.4
144.4
144.4
144.4
144.4
144.4
144.4
144.4
144.4
144.4
144.4
144.4
144.4
144.4
144.4
144.4
144.4
144.4
144.4
144.4
144.4
144.4
144.4
144.4
144.4
144.4
144.4
144.4
144.4
144.4
144.4
144.4
144.4
144.4
144.4
144.4
144.4
144.4
144.4
144.4
144.4
144.4
144.4
144.4
144.4
144.4
144.4
144.4
144.4
144.4
144.4
144.4
144.4
144.4
144.4
144.4
144.4
144.4
144.4
144.4
144.4
144.4
144.4
144.4
144.4
144.4
144.4
144.4
144.4
144.4
144.4
144.4
144.4
144.4
144.4
144.4
144.4
144.4
144.4
144.4
144.4
144.4
144.4
144.4
144.4
144.4
144.4
144.4
144.4
144.4
144.4
144.4
144.4
144.4
144.4
144.4
144.4
144.4
144.4
144.4
144.4
144.4
144.4
144.4
144.4
144.4
144.4
144.4
144.4
144.4
144.4
144.4
144.4
144.4
144.4
144.4
144.4
144.4
144.4
144.4
144.4
144.4
144.4
144.4
144.4
144.4
144.4
144.4
144.4
144.4
144.4
144.4
144.4
144.4
144.4
144.4
144.4
144.4
144.4
144.4
144.4
144.4
144.4
144.4
144.4
144.4
144.4
144.4
144.4
144.4
144.4
144.4
144.4
144.4
144.4
144.4
144.4
144.4
144.4
144.4
144.4
144.4
144.4
144.4
144.4
144.4
144.4
144.4
144.4
144.4
144.4
144.4
144.4
144.4
144.4
144.4
144.4
144.4
144.4
144.4
144.4
144.4
144.4
144.4
144.4
144.4
144.4
144.4
144.4
144.4
144.4
144.4
144.4
144.4
144.4
144.4
144.4
144.4
144.4
144.4
144.4
144.4
144.4
144.4
144.4
144.4
144.4
144.4
144.4
144.4
144.4
144.4
144.4
144.4
144.4
144.4
144.4
144.4
144.4
144.4
144.4
144.4
144.4
144.4
144.4
144.4
144.4
144.4
144.4
144.4
144.4
144.4
144.4
144.4
144.4
144.4
144.4
144.4
144.4
144.4
144.4
144.4
144.4
144.4
144.4
144.4
144.4
144.4
144.4
144.4
144.4
144.4
144.4
144.4
144.4
144.4
144.4
144.4
144.4
144.4
144.4
144.4
144.4
144.4
144.4
144.4
144.4
144.4
144.4
144.4
144.4
144.4
144.4
144.4
144.4
144.4
144.4
144.4
144.4
144.4
144.4
144.4
144.4
144.4
144.4
144.4
144.4
144.4
144.4
144.4
144.4
144.4
144.4
144.4
144.4
144.4
144.4
144.4
144.4
144.4
144.4
144.4
144.4
144.4
144.4
144.4
144.4
144.4
144.4
144.4
144.4
144.4
144.4
144.4
144.4
144.4
144.4
144.4
144.4
144.4
144.4
144.4
144.4
144.4
144.4
144.4
144.4
144.4
144.4
144.4
144.4
144.4
144.4
144.4
144.4
144.4
144.4
144.4
144.4
144.4
144.4
144.4
144.4
144.4
144.4
144.4
144.4
144.4
144.4
144.4
144.4
144.4
144.4
144.4
144.4
144.4
144.4
144.4
144.4
144.4
144.4
144.4
144.4
144.4
144.4
144.4
144.4
144.4
144.4
144.4
144.4
144.4
144.4
144.4
144.4
144.4
144.4
144.4
144.4
144.4
144.4
144.4
144.4
144.4
144.4
144.4
144.4
144.4
144.4
144.4
144.4
144.4
144.4
144.4
144.4
144.4
144.4
144.4
144.4
144.4
144.4
144.4
144.4
144.4
144.4
144.4
144.4
144.4
144.4
144.4
144.4
144.4
144.4
144.4
144.4
144.4
144.4
144.4
144.4
144.4
144.4
144.4
144.4
144.4
144.4
144.4
144.4
144.4
144.4
144.4
144.4
144.4
144.4
144.4
144.4
144.4
144.4
144.4
144.4
144.4
144.4
144.4
144.4
144.4
144.4
144.4
144.4
144.4
144.4
144.4
144.4
144.4
144.4
144.4
144.4
144.4
144.4
144.4
144.4
144.4
144.4
144.4
144.4
144.4
144.4
144.4
144.4
144.4
144.4
144.4
144.4
144.4
144.4
144.4
144.4
144.4
144.4
144.4
144.4
144.4
144.4
144.4
144.4
144.4
144.4
144.4
144.4
144.4
144.4
144.4
144.4
144.4
144.4
144.4
144.4
144.4
144.4
144.4
144.4
144.4
144.4
144.4
144.4
144.4
144.4
144.4
144.4
144.4
144.4
144.4
144.4
144.4
144.4
144.4
144.4
144.4
144.4
144.4
144.4
144.4
144.4
144.4
144.4
144.4
144.4
144.4
144.4
144.4
144.4
144.4
144.4
144.4
144.4
144.4
144.4
144.4
144.4
144.4
144.4
144.4
144.4
144.4
144.4
144.4
144.4
144.4
144.4
144.4
144.4
144.4
144.4
144.4
144.4
144.4
144.4
144.4
144.4
144.4
144.4
144.4
144.4
144.4
144.4
144.4
144.4
144.4
144.4
144.4
144.4
144.4
144.4
144.4
144.4
144.4
144.4
144.4
144.4
144.4
144.4
144.4
144.4
144.4
144.4
144.4
144.4
144.4
144.4
144.4
144.4
144.4
144.4
144.4
144.4
144.4
144.4
144.4
144.4
144.4
144.4
144.4
144.4
144.4
144.4
144.4
144.4
144.4
144.4
144.4
144.4
144.4
144.4
144.4
144.4
144.4
144.4
144.4
144.4
144.4
144.4
144.4
144.4
144.4
144.4
144.4
144.4
144.4
144.4
144.4
144.4
144.4
144.4
144.4
144.4
144.4
144.4
144.4
144.4
144.4
144.401
144.4
144.4
144.4
144.4
144.4
144.4
144.4
144.4
144.4
144.4
144.4
144.4
144.4
144.4
144.4
144.4
144.4
144.4
144.4
144.4
144.4
144.4
144.4
144.4
144.4
144.4
144.4
144.4
144.4
144.4
144.4
144.4
144.4
144.4
144.4
144.4
144.4
144.4
144.4
144.4
144.4
144.4
144.4
144.4
144.4
144.4
144.401
144.401
144.402
144.404
144.4
144.4
144.4
144.4
144.4
144.4
144.4
144.4
144.4
144.4
144.4
144.4
144.4
144.4
144.4
144.4
144.4
144.4
144.4
144.4
144.4
144.4
144.4
144.4
144.4
144.4
144.4
144.4
144.4
144.4
144.4
144.4
144.4
144.4
144.4
144.4
144.4
144.4
144.4
144.4
144.4
144.4
144.4
144.401
144.401
144.402
144.404
144.407
144.413
144.424
144.4
144.4
144.4
144.4
144.4
144.4
144.4
144.4
144.4
144.4
144.4
144.4
144.4
144.4
144.4
144.4
144.4
144.4
144.4
144.4
144.4
144.4
144.4
144.4
144.4
144.4
144.4
144.4
144.4
144.4
144.4
144.4
144.4
144.4
144.4
144.4
144.4
144.4
144.4
144.4
144.401
144.401
144.402
144.404
144.407
144.412
144.421
144.438
144.469
144.53
144.4
144.4
144.4
144.4
144.4
144.4
144.4
144.4
144.4
144.4
144.4
144.4
144.4
144.4
144.4
144.4
144.4
144.4
144.4
144.4
144.4
144.4
144.4
144.4
144.4
144.4
144.4
144.4
144.4
144.4
144.4
144.4
144.4
144.4
144.4
144.4
144.4
144.401
144.401
144.402
144.404
144.407
144.412
144.421
144.437
144.465
144.516
144.606
144.772
145.092
144.4
144.4
144.4
144.4
144.4
144.4
144.4
144.4
144.4
144.4
144.4
144.4
144.4
144.4
144.4
144.4
144.4
144.4
144.4
144.4
144.4
144.4
144.4
144.4
144.4
144.4
144.4
144.4
144.4
144.4
144.4
144.4
144.4
144.4
144.401
144.401
144.402
144.404
144.407
144.412
144.421
144.436
144.464
144.511
144.596
144.746
145.012
145.488
146.348
147.967
144.4
144.4
144.4
144.4
144.4
144.4
144.4
144.4
144.4
144.4
144.4
144.4
144.4
144.4
144.4
144.4
144.4
144.4
144.4
144.4
144.4
144.4
144.4
144.4
144.4
144.4
144.4
144.4
144.4
144.4
144.401
144.401
144.402
144.403
144.404
144.407
144.413
144.422
144.437
144.464
144.511
144.592
144.734
144.984
145.422
146.194
147.552
149.944
154.164
161.72
144.4
144.4
144.4
144.4
144.4
144.4
144.4
144.4
144.4
144.4
144.4
144.4
144.4
144.4
144.4
144.4
144.4
144.4
144.4
144.4
144.4
144.4
144.4
144.4
144.4
144.4
144.4
144.401
144.401
144.402
144.403
144.405
144.408
144.414
144.423
144.439
144.466
144.513
144.594
144.733
144.974
145.391
146.116
147.375
149.559
153.329
159.768
170.579
188.284
216.433
144.4
144.4
144.4
144.4
144.4
144.4
144.4
144.4
144.4
144.4
144.4
144.4
144.4
144.4
144.4
144.4
144.4
144.4
144.4
144.4
144.4
144.4
144.4
144.4
144.401
144.401
144.402
144.403
144.405
144.409
144.415
144.425
144.442
144.471
144.519
144.601
144.741
144.979
145.388
146.089
147.291
149.349
152.859
158.786
168.625
184.525
209.262
245.923
297.375
365.526
144.4
144.4
144.4
144.4
144.4
144.4
144.4
144.4
144.4
144.4
144.4
144.4
144.4
144.4
144.4
144.4
144.4
144.4
144.4
144.4
144.401
144.401
144.401
144.402
144.404
144.406
144.41
144.417
144.428
144.446
144.477
144.528
144.614
144.758
145.002
145.413
146.109
147.288
149.281
152.639
158.245
167.458
182.226
205.071
238.814
286.024
348.357
426.133
518.426
623.129
144.4
144.4
144.4
144.4
144.4
144.4
144.4
144.4
144.4
144.4
144.4
144.4
144.4
144.4
144.4
144.4
144.4
144.401
144.401
144.402
144.403
144.405
144.408
144.412
144.42
144.432
144.453
144.487
144.542
144.634
144.787
145.042
145.467
146.178
147.365
149.348
152.647
158.088
166.929
180.969
202.53
234.239
278.544
337.104
410.349
497.399
596.357
704.778
820.157
939.787
144.4
144.4
144.4
144.4
144.4
144.4
144.4
144.4
144.4
144.4
144.4
144.4
144.4
144.401
144.401
144.401
144.402
144.404
144.406
144.409
144.415
144.424
144.438
144.462
144.5
144.562
144.664
144.83
145.104
145.555
146.3
147.528
149.554
152.879
158.295
166.99
180.643
201.417
231.758
273.974
329.7
399.469
482.613
577.468
681.748
792.912
908.454
1025.94
1142.92
1257.39
144.4
144.4
144.4
144.4
144.4
144.4
144.4
144.4
144.4
144.401
144.401
144.401
144.402
144.403
144.405
144.407
144.412
144.419
144.429
144.447
144.474
144.518
144.59
144.705
144.891
145.193
145.685
146.486
147.79
149.913
153.352
158.879
167.636
181.217
201.648
231.207
272.05
325.729
392.815
472.787
564.203
665.009
772.878
885.44
1000.38
1115.31
1227.93
1336.23
1438
1531.2
144.4
144.4
144.4
144.4
144.4
144.4
144.4
144.401
144.401
144.402
144.403
144.404
144.406
144.41
144.415
144.424
144.437
144.458
144.491
144.544
144.628
144.761
144.975
145.317
145.867
146.751
148.173
150.454
154.101
159.88
168.909
182.717
203.218
232.535
272.655
325.012
390.15
467.629
556.168
653.927
758.779
868.531
981.057
1094.21
1205.78
1313.76
1416.17
1510.72
1594.82
1666.09
1724.25
144.4
144.4
144.4
144.401
144.401
144.402
144.402
144.404
144.406
144.409
144.413
144.42
144.431
144.448
144.474
144.515
144.58
144.681
144.84
145.091
145.489
146.119
147.12
148.708
151.223
155.185
161.373
170.893
185.232
206.206
235.788
275.787
327.486
391.354
466.976
553.186
648.313
750.418
857.496
967.578
1078.75
1188.99
1296.36
1399.03
1495.08
1582.17
1657.9
1720.59
1769.99
1807.06
1834.41
144.401
144.401
144.402
144.402
144.404
144.405
144.408
144.412
144.418
144.427
144.442
144.464
144.497
144.549
144.63
144.755
144.949
145.252
145.726
146.467
147.629
149.447
152.286
156.693
163.469
173.726
188.917
210.77
241.106
281.548
333.197
396.413
470.765
555.163
648.075
747.739
852.322
960.009
1069.06
1177.68
1284.02
1386.36
1483.02
1572.05
1651.18
1718.46
1772.92
1814.9
1845.9
1868.05
1883.44
1894.3
144.404
144.405
144.408
144.411
144.417
144.426
144.438
144.457
144.487
144.531
144.598
144.701
144.86
145.103
145.477
146.055
146.949
148.33
150.462
153.742
158.755
166.335
177.61
194.003
217.155
248.727
290.14
342.297
405.419
479.031
562.09
653.181
750.699
852.97
958.338
1065.2
1171.97
1276.94
1378.49
1475.08
1565.07
1646.46
1717.25
1776.07
1822.63
1857.87
1883.46
1901.48
1913.85
1922.29
1928.04
1931.97
144.417
144.425
144.437
144.455
144.481
144.521
144.58
144.67
144.805
145.011
145.322
145.797
146.519
147.621
149.302
151.859
155.733
161.557
170.206
182.826
200.813
225.704
258.99
301.87
355.036
418.554
491.886
574.02
663.64
759.28
859.42
962.555
1067.22
1171.98
1275.33
1375.72
1471.73
1561.9
1644.56
1717.8
1780.07
1830.59
1869.75
1898.85
1919.66
1934.14
1943.93
1950.5
1954.83
1957.48
1959.23
1960.88
144.48
144.517
144.572
144.654
144.776
144.959
145.231
145.64
146.255
147.179
148.57
150.661
153.795
158.465
165.362
175.406
189.76
209.774
236.868
272.338
317.145
371.757
436.082
509.515
591.066
679.508
773.505
871.685
972.681
1075.16
1177.83
1279.34
1378.27
1473.27
1563.03
1646.13
1720.88
1785.64
1839.39
1882.02
1914.4
1938
1954.63
1966.02
1973.6
1978.59
1981.66
1983.33
1984.55
1985.49
1985.4
1984.83
144.767
144.937
145.188
145.559
146.108
146.923
148.132
149.926
152.582
156.5
162.235
170.54
182.381
198.921
221.444
251.218
289.318
336.459
392.881
458.34
532.169
613.401
700.897
793.442
889.801
988.74
1089.05
1189.56
1289.06
1386.27
1479.92
1568.8
1651.69
1727.1
1793.49
1849.66
1895.16
1930.45
1956.71
1975.5
1988.53
1997.23
2002.91
2006.5
2008.41
2009.38
2010.15
2010.27
2009.62
2008.43
2006.82
2005.12
146.054
146.807
147.911
149.526
151.886
155.326
160.31
167.464
177.604
191.727
210.97
236.513
269.438
310.577
360.387
418.894
485.717
560.145
641.242
727.954
819.181
913.816
1010.75
1108.9
1207.18
1304.54
1399.82
1491.82
1579.45
1661.59
1736.99
1804.2
1862
1909.71
1947.43
1976.06
1996.9
2011.53
2021.46
2027.9
2031.95
2034.21
2035.16
2035.62
2035.77
2035.19
2033.97
2032.29
2030.28
2028.17
2026.07
2024.08
151.593
154.756
159.284
165.715
174.751
187.254
204.227
226.738
255.819
292.33
336.84
389.558
450.32
518.634
593.765
674.821
760.836
850.822
943.788
1038.75
1134.72
1230.73
1325.83
1418.98
1509.1
1595.13
1676.09
1750.89
1818.24
1876.92
1926.15
1965.77
1996.37
2019.06
2035.22
2046.3
2053.57
2058.08
2060.73
2061.84
2061.99
2061.92
2061.47
2060.25
2058.48
2056.34
2053.97
2051.53
2049.13
2046.76
2044.44
2042.19
184.919
200.415
220.868
247.229
280.329
320.777
368.883
424.629
487.693
557.512
633.351
714.376
799.71
888.473
979.784
1072.76
1166.53
1260.21
1352.94
1443.79
1531.78
1615.94
1695.35
1769.06
1835.95
1894.86
1944.93
1985.86
2018
2042.23
2059.73
2071.88
2079.98
2084.98
2087.9
2089.27
2089.29
2088.96
2088.4
2087.2
2085.34
2083.11
2080.56
2077.87
2075.14
2072.45
2069.78
2067.13
2064.52
2061.95
2059.43
273.595
311.098
355.708
407.49
466.241
531.53
602.757
679.214
760.136
844.738
932.239
1021.86
1112.82
1204.32
1295.58
1385.83
1474.24
1559.89
1641.91
1719.45
1791.68
1857.58
1916.11
1966.42
2008.09
2041.27
2066.65
2085.27
2098.38
2107.19
2112.66
2115.86
2117.45
2117.43
2116.86
2116.06
2114.83
2112.91
2110.57
2107.9
2104.95
2101.93
2098.93
2095.97
2093
2090.08
2087.17
2084.27
2081.39
2078.55
2075.74
453.399
514.985
582.295
654.729
731.628
812.302
896.057
982.202
1070.05
1158.91
1248.07
1336.82
1424.47
1510.27
1593.39
1673.04
1748.43
1818.8
1883.29
1940.93
1990.9
2032.73
2066.45
2092.61
2112.04
2125.89
2135.29
2141.21
2144.66
2146.34
2146.4
2145.7
2144.57
2143.14
2141.22
2138.73
2135.92
2132.78
2129.51
2126.2
2122.92
2119.65
2116.41
2113.2
2110
2106.82
2103.65
2100.49
2097.33
2094.2
2091.09
790.807
871.025
953.761
1038.41
1124.37
1211.02
1297.72
1383.85
1468.77
1551.81
1632.23
1709.27
1782.24
1850.46
1913.14
1969.43
2018.55
2060.03
2093.81
2120.3
2140.22
2154.57
2164.43
2170.68
2174.3
2176.06
2176.19
2175.35
2173.92
2172.22
2170.21
2167.59
2164.59
2161.35
2157.83
2154.23
2150.64
2147.08
2143.52
2140
2136.5
2133.02
2129.55
2126.1
2122.65
2119.21
2115.76
2112.32
2108.9
2105.5
1100.88
1184.79
1269.09
1353.21
1436.58
1518.63
1598.75
1676.27
1750.5
1820.82
1886.59
1947.13
2001.66
2049.48
2090.13
2123.51
2149.91
2169.97
2184.57
2194.67
2201.1
2204.86
2206.66
2206.74
2205.83
2204.17
2202.13
2199.9
2197.2
2194.01
2190.58
2186.85
2182.98
2179.1
2175.24
2171.38
2167.55
2163.75
2159.97
2156.21
2152.46
2148.73
2145
2141.27
2137.54
2133.82
2130.09
2126.36
2122.65
2118.95
1414.41
1494.87
1573.9
1650.94
1725.37
1796.59
1864.02
1927.09
1985.18
2037.61
2083.73
2123.11
2155.65
2181.57
2201.43
2215.99
2226.11
2232.61
2236.4
2238.12
2238.09
2237.13
2235.25
2232.85
2230.33
2227.52
2224.12
2220.46
2216.6
2212.47
2208.29
2204.12
2199.97
2195.83
2191.73
2187.65
2183.59
2179.55
2175.53
2171.52
2167.51
2163.51
2159.5
2155.5
2151.5
2147.49
2143.48
2139.46
2135.45
2131.45
1708.16
1779.33
1847.34
1911.67
1971.8
2027.17
2077.18
2121.23
2158.97
2190.28
2215.34
2234.66
2248.9
2258.82
2265.22
2268.91
2270.48
2270.34
2269.24
2267.09
2264.41
2261.58
2258.51
2254.95
2251.06
2246.99
2242.65
2238.18
2233.73
2229.28
2224.84
2220.42
2216.05
2211.69
2207.36
2203.05
2198.75
2194.46
2190.18
2185.9
2181.63
2177.35
2173.08
2168.8
2164.51
2160.22
2155.92
2151.61
2147.31
2143.01
1963.53
2020.5
2072.91
2120.21
2161.89
2197.64
2227.37
2251.24
2269.69
2283.34
2292.84
2298.96
2302.42
2303.76
2303.43
2302.12
2299.78
2296.78
2293.58
2290.2
2286.54
2282.37
2278.03
2273.51
2268.77
2264.01
2259.27
2254.54
2249.83
2245.15
2240.5
2235.87
2231.26
2226.68
2222.11
2217.55
2212.99
2208.45
2203.9
2199.36
2194.82
2190.27
2185.71
2181.15
2176.58
2172
2167.42
2162.82
2158.22
2153.62
2166.49
2205.52
2238.99
2266.84
2289.2
2306.52
2319.33
2328.19
2333.86
2336.97
2337.96
2337.39
2335.81
2333.21
2329.88
2326.35
2322.67
2318.72
2314.34
2309.74
2305.03
2300.05
2294.99
2289.96
2284.93
2279.91
2274.92
2269.98
2265.06
2260.17
2255.29
2250.43
2245.59
2240.76
2235.95
2231.13
2226.32
2221.51
2216.7
2211.89
2207.08
2202.25
2197.42
2192.58
2187.72
2182.86
2177.98
2173.09
2168.2
2163.31
2308.51
2329.13
2345.07
2356.81
2364.83
2369.89
2372.53
2373.06
2372.2
2370.29
2367.38
2363.73
2359.89
2355.84
2351.57
2347.01
2342.13
2337.13
2331.94
2326.6
2321.28
2315.97
2310.66
2305.38
2300.14
2294.92
2289.72
2284.56
2279.43
2274.31
2269.2
2264.11
2259.02
2253.94
2248.87
2243.8
2238.73
2233.66
2228.58
2223.5
2218.41
2213.31
2208.19
2203.07
2197.93
2192.78
2187.61
2182.43
2177.25
2172.06
2402.72
2407.04
2409.07
2409.03
2407.83
2405.53
2402.27
2398.33
2394.11
2389.7
2385.11
2380.34
2375.17
2369.86
2364.46
2358.87
2353.23
2347.65
2342.05
2336.46
2330.93
2325.42
2319.94
2314.5
2309.07
2303.66
2298.28
2292.91
2287.56
2282.22
2276.88
2271.54
2266.22
2260.89
2255.56
2250.23
2244.89
2239.54
2234.18
2228.82
2223.44
2218.04
2212.64
2207.21
2201.77
2196.32
2190.85
2185.37
2179.88
2445.92
2444.25
2441.51
2437.84
2433.58
2428.99
2424.25
2419.31
2414.22
2408.82
2403.23
2397.58
2391.74
2385.81
2379.92
2374.05
2368.17
2362.34
2356.55
2350.78
2345.04
2339.33
2333.65
2327.99
2322.35
2316.72
2311.11
2305.51
2299.91
2294.33
2288.74
2283.16
2277.58
2271.99
2266.4
2260.8
2255.2
2249.58
2243.95
2238.31
2232.65
2226.97
2221.28
2215.57
2209.84
2204.1
2198.34
2192.58
2186.79
2474.08
2469.47
2464.51
2459.39
2454.12
2448.7
2443.06
2437.17
2431.22
2425.16
2418.96
2412.78
2406.64
2400.47
2394.35
2388.27
2382.22
2376.2
2370.21
2364.25
2358.31
2352.39
2346.49
2340.62
2334.75
2328.89
2323.05
2317.21
2311.37
2305.54
2299.71
2293.87
2288.03
2282.19
2276.33
2270.47
2264.59
2258.7
2252.8
2246.88
2240.94
2234.98
2229.01
2223.01
2217
2210.97
2204.92
2198.86
2192.79
2489.51
2483.77
2477.83
2471.68
2465.43
2459.11
2452.65
2446.18
2439.77
2433.34
2426.92
2420.56
2414.23
2407.92
2401.66
2395.42
2389.21
2383.02
2376.85
2370.71
2364.58
2358.46
2352.36
2346.26
2340.18
2334.09
2328.01
2321.93
2315.85
2309.77
2303.68
2297.58
2291.48
2285.36
2279.23
2273.08
2266.92
2260.74
2254.54
2248.32
2242.08
2235.82
2229.54
2223.25
2216.93
2210.59
2204.25
2197.88
2506.7
2500.17
2493.57
2486.86
2480.11
2473.41
2466.72
2460.02
2453.39
2446.79
2440.2
2433.66
2427.15
2420.66
2414.21
2407.78
2401.36
2394.97
2388.6
2382.24
2375.89
2369.55
2363.22
2356.89
2350.57
2344.25
2337.92
2331.6
2325.27
2318.93
2312.59
2306.23
2299.86
2293.48
2287.08
2280.66
2274.22
2267.77
2261.29
2254.8
2248.28
2241.74
2235.17
2228.59
2221.99
2215.37
2208.74
2202.09
2514.52
2507.54
2500.6
2493.63
2486.72
2479.85
2472.99
2466.18
2459.4
2452.65
2445.93
2439.23
2432.56
2425.91
2419.28
2412.66
2406.06
2399.47
2392.89
2386.32
2379.75
2373.19
2366.63
2360.07
2353.51
2346.94
2340.37
2333.79
2327.2
2320.59
2313.98
2307.34
2300.69
2294.03
2287.34
2280.63
2273.9
2267.15
2260.37
2253.57
2246.75
2239.91
2233.04
2226.16
2219.26
2212.35
2205.41
2527.7
2520.51
2513.38
2506.27
2499.18
2492.15
2485.13
2478.15
2471.2
2464.26
2457.36
2450.47
2443.6
2436.75
2429.91
2423.09
2416.27
2409.47
2402.67
2395.87
2389.08
2382.29
2375.49
2368.69
2361.89
2355.07
2348.25
2341.42
2334.57
2327.71
2320.83
2313.93
2307.02
2300.08
2293.12
2286.14
2279.13
2272.11
2265.05
2257.98
2250.88
2243.76
2236.61
2229.45
2222.27
2215.09
2207.87
2532.64
2525.35
2518.08
2510.84
2503.63
2496.45
2489.29
2482.15
2475.04
2467.94
2460.86
2453.79
2446.73
2439.69
2432.65
2425.62
2418.59
2411.57
2404.55
2397.52
2390.5
2383.46
2376.42
2369.37
2362.31
2355.24
2348.15
2341.05
2333.93
2326.79
2319.63
2312.45
2305.24
2298.01
2290.76
2283.48
2276.18
2268.85
2261.5
2254.13
2246.73
2239.31
2231.88
2224.42
2216.96
2209.48
2543.96
2536.51
2529.08
2521.67
2514.29
2506.93
2499.59
2492.27
2484.96
2477.67
2470.38
2463.11
2455.85
2448.6
2441.34
2434.1
2426.85
2419.6
2412.35
2405.09
2397.83
2390.55
2383.27
2375.98
2368.67
2361.34
2354
2346.64
2339.26
2331.86
2324.44
2316.99
2309.52
2302.02
2294.5
2286.95
2279.38
2271.78
2264.16
2256.51
2248.84
2241.15
2233.44
2225.71
2217.98
2210.23
2554.47
2546.85
2539.25
2531.67
2524.11
2516.57
2509.04
2501.53
2494.03
2486.54
2479.06
2471.58
2464.11
2456.64
2449.17
2441.7
2434.23
2426.75
2419.27
2411.78
2404.28
2396.77
2389.24
2381.7
2374.14
2366.57
2358.97
2351.35
2343.72
2336.06
2328.37
2320.66
2312.92
2305.16
2297.37
2289.55
2281.71
2273.84
2265.95
2258.03
2250.09
2242.13
2234.16
2226.18
2218.2
2210.2
2564.15
2556.36
2548.59
2540.84
2533.1
2525.37
2517.65
2509.95
2502.25
2494.56
2486.87
2479.18
2471.5
2463.82
2456.13
2448.44
2440.74
2433.03
2425.32
2417.59
2409.85
2402.1
2394.33
2386.54
2378.74
2370.91
2363.06
2355.19
2347.3
2339.38
2331.43
2323.46
2315.46
2307.43
2299.38
2291.29
2283.18
2275.05
2266.88
2258.71
2250.52
2242.31
2234.09
2225.86
2217.64
2209.39
2573.01
2565.05
2557.1
2549.16
2541.24
2533.32
2525.41
2517.51
2509.61
2501.72
2493.82
2485.93
2478.03
2470.13
2462.22
2454.3
2446.38
2438.44
2430.5
2422.53
2414.56
2406.56
2398.55
2390.52
2382.46
2374.39
2366.29
2358.16
2350.01
2341.83
2333.63
2325.4
2317.14
2308.85
2300.53
2292.18
2283.81
2275.43
2267.02
2258.59
2250.15
2241.7
2233.24
2224.76
2216.28
2207.79
2581.03
2572.89
2564.76
2556.64
2548.53
2540.43
2532.32
2524.22
2516.12
2508.02
2499.92
2491.81
2483.69
2475.57
2467.44
2459.3
2451.15
2442.99
2434.81
2426.61
2418.39
2410.16
2401.9
2393.63
2385.32
2377
2368.65
2360.27
2351.87
2343.43
2334.97
2326.48
2317.96
2309.42
2300.86
2292.27
2283.65
2275.02
2266.37
2257.69
2249
2240.3
2231.58
2222.87
2214.15
2205.42
2588.21
2579.9
2571.59
2563.28
2554.98
2546.68
2538.38
2530.08
2521.77
2513.46
2505.15
2496.83
2488.5
2480.16
2471.81
2463.44
2455.06
2446.67
2438.25
2429.82
2421.37
2412.89
2404.4
2395.87
2387.33
2378.75
2370.15
2361.52
2352.86
2344.18
2335.48
2326.74
2317.98
2309.2
2300.4
2291.56
2282.7
2273.82
2264.92
2256
2247.06
2238.11
2229.16
2220.21
2211.27
2202.31
2586.06
2577.57
2569.07
2560.58
2552.08
2543.58
2535.08
2526.57
2518.05
2509.53
2500.99
2492.45
2483.89
2475.31
2466.72
2458.11
2449.49
2440.84
2432.17
2423.48
2414.77
2406.03
2397.27
2388.47
2379.65
2370.81
2361.95
2353.05
2344.13
2335.19
2326.22
2317.22
2308.19
2299.14
2290.06
2280.95
2271.83
2262.68
2253.52
2244.35
2235.17
2226
2216.82
2207.65
2198.47
2591.38
2582.7
2574.02
2565.33
2556.63
2547.93
2539.23
2530.51
2521.79
2513.05
2504.3
2495.54
2486.76
2477.96
2469.14
2460.31
2451.45
2442.58
2433.68
2424.75
2415.79
2406.81
2397.82
2388.8
2379.75
2370.68
2361.58
2352.45
2343.3
2334.11
2324.89
2315.65
2306.38
2297.09
2287.77
2278.43
2269.06
2259.69
2250.3
2240.9
2231.5
2222.1
2212.71
2203.33
2193.94
2595.86
2586.99
2578.11
2569.23
2560.34
2551.44
2542.53
2533.6
2524.67
2515.72
2506.76
2497.77
2488.77
2479.75
2470.72
2461.65
2452.57
2443.46
2434.33
2425.18
2416.01
2406.8
2397.58
2388.33
2379.06
2369.75
2360.41
2351.05
2341.65
2332.23
2322.78
2313.3
2303.79
2294.26
2284.71
2275.14
2265.56
2255.96
2246.34
2236.73
2227.11
2217.5
2207.9
2198.32
2188.73
2590.43
2581.36
2572.28
2563.19
2554.09
2544.98
2535.85
2526.7
2517.54
2508.36
2499.16
2489.94
2480.7
2471.44
2462.16
2452.86
2443.53
2434.19
2424.82
2415.42
2406
2396.55
2387.06
2377.55
2368.01
2358.44
2348.85
2339.22
2329.57
2319.89
2310.18
2300.45
2290.69
2280.92
2271.13
2261.32
2251.5
2241.68
2231.85
2222.03
2212.22
2202.42
2192.64
2182.87
2593.03
2583.76
2574.49
2565.2
2555.89
2546.58
2537.24
2527.88
2518.51
2509.11
2499.71
2490.28
2480.83
2471.36
2461.87
2452.36
2442.82
2433.25
2423.66
2414.03
2404.38
2394.7
2384.99
2375.26
2365.49
2355.7
2345.87
2336.02
2326.15
2316.24
2306.32
2296.37
2286.39
2276.4
2266.4
2256.38
2246.36
2236.33
2226.3
2216.28
2206.27
2196.29
2186.33
2176.38
2594.78
2585.32
2575.85
2566.36
2556.85
2547.33
2537.79
2528.24
2518.67
2509.07
2499.46
2489.83
2480.18
2470.49
2460.79
2451.05
2441.29
2431.5
2421.69
2411.85
2401.97
2392.07
2382.14
2372.19
2362.2
2352.19
2342.15
2332.08
2321.99
2311.87
2301.73
2291.57
2281.39
2271.19
2260.98
2250.76
2240.54
2230.31
2220.09
2209.88
2199.69
2189.53
2179.4
2169.28
2595.68
2586.03
2576.37
2566.69
2557
2547.28
2537.55
2527.8
2518.03
2508.24
2498.41
2488.57
2478.7
2468.81
2458.89
2448.94
2438.97
2428.97
2418.94
2408.88
2398.79
2388.68
2378.53
2368.36
2358.17
2347.94
2337.69
2327.41
2317.11
2306.78
2296.44
2286.07
2275.69
2265.29
2254.89
2244.48
2234.06
2223.65
2213.25
2202.86
2192.5
2182.17
2171.87
2161.6
2585.94
2576.1
2566.23
2556.35
2546.44
2536.51
2526.55
2516.58
2506.58
2496.55
2486.5
2476.43
2466.33
2456.2
2446.04
2435.86
2425.65
2415.41
2405.15
2394.85
2384.53
2374.18
2363.8
2353.4
2342.97
2332.51
2322.03
2311.53
2301.01
2290.46
2279.9
2269.33
2258.74
2248.15
2237.55
2226.96
2216.37
2205.79
2195.24
2184.72
2174.22
2163.78
2153.35
2585.06
2575.02
2564.96
2554.88
2544.78
2534.65
2524.5
2514.32
2504.12
2493.9
2483.65
2473.37
2463.07
2452.74
2442.38
2431.99
2421.58
2411.14
2400.67
2390.18
2379.65
2369.1
2358.53
2347.92
2337.3
2326.64
2315.97
2305.27
2294.56
2283.83
2273.08
2262.32
2251.56
2240.78
2230.01
2219.25
2208.49
2197.75
2187.04
2176.36
2165.72
2155.13
2144.57
2583.36
2573.13
2562.88
2552.61
2542.31
2531.99
2521.65
2511.28
2500.88
2490.46
2480.02
2469.54
2459.04
2448.52
2437.96
2427.38
2416.77
2406.13
2395.47
2384.78
2374.06
2363.32
2352.55
2341.76
2330.94
2320.1
2309.24
2298.36
2287.46
2276.55
2265.63
2254.69
2243.76
2232.82
2221.88
2210.95
2200.04
2189.15
2178.29
2167.46
2156.69
2145.96
2135.28
2570.43
2560
2549.54
2539.06
2528.55
2518.01
2507.46
2496.87
2486.26
2475.63
2464.96
2454.27
2443.55
2432.81
2422.04
2411.24
2400.41
2389.56
2378.68
2367.78
2356.85
2345.9
2334.92
2323.93
2312.91
2301.87
2290.81
2279.74
2268.66
2257.57
2246.47
2235.37
2224.27
2213.17
2202.09
2191.03
2180
2169
2158.04
2147.14
2136.29
2125.49
2566.95
2556.33
2545.69
2535.03
2524.34
2513.62
2502.88
2492.11
2481.31
2470.49
2459.64
2448.77
2437.87
2426.94
2415.99
2405
2394
2382.96
2371.91
2360.83
2349.72
2338.59
2327.44
2316.27
2305.08
2293.87
2282.65
2271.41
2260.17
2248.92
2237.66
2226.41
2215.16
2203.92
2192.7
2181.5
2170.33
2159.2
2148.12
2137.1
2126.15
2115.24
2562.69
2551.9
2541.08
2530.24
2519.37
2508.47
2497.55
2486.61
2475.63
2464.64
2453.61
2442.56
2431.48
2420.37
2409.24
2398.09
2386.91
2375.7
2364.47
2353.22
2341.94
2330.65
2319.33
2307.99
2296.64
2285.27
2273.89
2262.5
2251.11
2239.7
2228.3
2216.9
2205.51
2194.14
2182.78
2171.46
2160.17
2148.93
2137.74
2126.61
2115.55
2104.55
2557.67
2546.71