/*--------------------------------*- C++ -*----------------------------------*\
| =========                 |                                                 |
| \\      /  F ield         | OpenFOAM: The Open Source CFD Toolbox           |
|  \\    /   O peration     | Version:  v1706                                 |
|   \\  /    A nd           | Web:      www.OpenFOAM.com                      |
|    \\/     M anipulation  |                                                 |
\*---------------------------------------------------------------------------*/
FoamFile
{
    version     2.0;
    format      ascii;
    class       volScalarField;
    location    "1.3e-05";
    object      Tv;
}
// * * * * * * * * * * * * * * * * * * * * * * * * * * * * * * * * * * * * * //

dimensions      [0 0 0 1 0 0 0];


internalField   nonuniform List<scalar> 
30038
(
144.4
144.4
144.4
144.4
144.4
144.4
144.4
144.4
144.4
144.4
144.4
144.4
144.4
144.4
144.4
144.4
144.4
144.4
144.4
144.4
144.4
144.4
144.4
144.4
144.4
144.4
144.4
144.4
144.4
144.4
144.4
144.4
144.4
144.4
144.4
144.4
144.4
144.4
144.4
144.4
144.4
144.4
144.4
144.4
144.4
144.4
144.4
144.4
144.4
144.4
144.4
144.4
144.4
144.4
144.4
144.4
144.4
144.4
144.4
144.4
144.4
144.4
144.4
144.4
144.4
144.4
144.4
144.4
144.4
144.4
144.4
144.4
144.4
144.4
144.4
144.4
144.4
144.4
144.4
144.4
144.4
144.4
144.4
144.4
144.4
144.4
144.4
144.4
144.4
144.4
144.4
144.4
144.4
144.4
144.4
144.4
144.4
144.4
144.4
144.4
144.4
144.4
144.4
144.4
144.4
144.4
144.4
144.4
144.4
144.4
144.4
144.4
144.4
144.4
144.4
144.4
144.4
144.4
144.4
144.4
144.4
144.4
144.4
144.4
144.4
144.4
144.4
144.4
144.4
144.4
144.4
144.4
144.4
144.4
144.4
144.4
144.4
144.4
144.4
144.4
144.4
144.4
144.4
144.4
144.4
144.4
144.4
144.4
144.4
144.4
144.4
144.4
144.4
144.4
144.4
144.4
144.4
144.4
144.4
144.4
144.4
144.4
144.4
144.4
144.4
144.4
144.4
144.4
144.4
144.4
144.4
144.4
144.4
144.4
144.4
144.4
144.4
144.4
144.4
144.4
144.4
144.4
144.4
144.4
144.4
144.4
144.4
144.4
144.4
144.4
144.4
144.4
144.4
144.4
144.4
144.4
144.4
144.4
144.4
144.4
144.4
144.4
144.4
144.4
144.4
144.4
144.4
144.4
144.4
144.4
144.4
144.4
144.4
144.4
144.4
144.4
144.4
144.4
144.4
144.4
144.4
144.4
144.4
144.4
144.4
144.4
144.4
144.4
144.4
144.4
144.4
144.4
144.4
144.4
144.4
144.4
144.4
144.4
144.4
144.4
144.4
144.4
144.4
144.4
144.4
144.4
144.4
144.4
144.4
144.4
144.4
144.4
144.4
144.4
144.4
144.4
144.4
144.4
144.4
144.4
144.4
144.4
144.4
144.4
144.4
144.4
144.4
144.4
144.4
144.4
144.4
144.4
144.4
144.4
144.4
144.4
144.4
144.4
144.4
144.4
144.4
144.4
144.4
144.4
144.4
144.4
144.4
144.4
144.4
144.4
144.4
144.4
144.4
144.4
144.4
144.4
144.4
144.4
144.4
144.4
144.4
144.4
144.4
144.4
144.4
144.4
144.4
144.4
144.4
144.4
144.4
144.4
144.4
144.4
144.4
144.4
144.4
144.4
144.4
144.4
144.4
144.4
144.4
144.4
144.4
144.4
144.4
144.4
144.4
144.4
144.4
144.4
144.4
144.4
144.4
144.4
144.4
144.4
144.4
144.4
144.4
144.4
144.4
144.4
144.4
144.4
144.4
144.4
144.4
144.4
144.4
144.4
144.4
144.4
144.4
144.4
144.4
144.4
144.4
144.4
144.4
144.4
144.4
144.4
144.4
144.4
144.4
144.4
144.4
144.4
144.4
144.4
144.4
144.4
144.4
144.4
144.4
144.4
144.4
144.4
144.4
144.4
144.4
144.4
144.4
144.4
144.4
144.4
144.4
144.4
144.4
144.4
144.4
144.4
144.4
144.4
144.4
144.4
144.4
144.4
144.4
144.4
144.4
144.4
144.4
144.4
144.4
144.4
144.4
144.4
144.4
144.4
144.4
144.4
144.4
144.4
144.4
144.4
144.4
144.4
144.4
144.4
144.4
144.4
144.4
144.4
144.4
144.4
144.4
144.4
144.4
144.4
144.4
144.4
144.4
144.4
144.4
144.4
144.4
144.4
144.4
144.4
144.4
144.4
144.4
144.4
144.4
144.4
144.4
144.4
144.4
144.4
144.4
144.4
144.4
144.4
144.4
144.4
144.4
144.4
144.4
144.4
144.4
144.4
144.4
144.4
144.4
144.4
144.4
144.4
144.4
144.4
144.4
144.4
144.4
144.4
144.4
144.4
144.4
144.4
144.4
144.4
144.4
144.4
144.4
144.4
144.4
144.4
144.4
144.4
144.4
144.4
144.4
144.4
144.4
144.4
144.4
144.4
144.4
144.4
144.4
144.4
144.4
144.4
144.4
144.4
144.4
144.4
144.4
144.4
144.4
144.4
144.4
144.4
144.4
144.4
144.4
144.4
144.4
144.4
144.4
144.4
144.4
144.4
144.4
144.4
144.4
144.4
144.4
144.4
144.4
144.4
144.4
144.4
144.4
144.4
144.4
144.4
144.4
144.4
144.4
144.4
144.4
144.4
144.4
144.4
144.4
144.4
144.4
144.4
144.4
144.4
144.4
144.4
144.4
144.4
144.4
144.4
144.4
144.4
144.4
144.4
144.4
144.4
144.4
144.4
144.4
144.4
144.4
144.4
144.4
144.4
144.4
144.4
144.4
144.4
144.4
144.4
144.4
144.4
144.4
144.4
144.4
144.4
144.4
144.4
144.4
144.4
144.4
144.4
144.4
144.4
144.4
144.4
144.4
144.4
144.4
144.4
144.4
144.4
144.4
144.4
144.4
144.4
144.4
144.4
144.4
144.4
144.4
144.4
144.4
144.4
144.4
144.4
144.4
144.4
144.4
144.4
144.4
144.4
144.4
144.4
144.4
144.4
144.4
144.4
144.4
144.4
144.4
144.4
144.4
144.4
144.4
144.4
144.4
144.4
144.4
144.4
144.4
144.4
144.4
144.4
144.4
144.4
144.4
144.4
144.4
144.4
144.4
144.4
144.4
144.4
144.4
144.4
144.4
144.4
144.4
144.4
144.4
144.4
144.4
144.4
144.4
144.4
144.4
144.4
144.4
144.4
144.4
144.4
144.4
144.4
144.4
144.4
144.4
144.4
144.4
144.4
144.4
144.4
144.4
144.4
144.4
144.4
144.4
144.4
144.4
144.4
144.4
144.4
144.4
144.4
144.4
144.4
144.4
144.4
144.4
144.4
144.4
144.4
144.4
144.4
144.4
144.4
144.4
144.4
144.4
144.4
144.4
144.4
144.4
144.4
144.4
144.4
144.4
144.4
144.4
144.4
144.4
144.4
144.4
144.4
144.4
144.4
144.4
144.4
144.4
144.4
144.4
144.4
144.4
144.4
144.4
144.4
144.4
144.4
144.4
144.4
144.4
144.4
144.4
144.4
144.4
144.4
144.4
144.4
144.4
144.4
144.4
144.4
144.4
144.4
144.4
144.4
144.4
144.4
144.4
144.4
144.4
144.4
144.4
144.4
144.4
144.4
144.4
144.4
144.4
144.4
144.4
144.4
144.4
144.4
144.4
144.4
144.4
144.4
144.4
144.4
144.4
144.4
144.4
144.4
144.4
144.4
144.4
144.4
144.4
144.4
144.4
144.4
144.4
144.4
144.4
144.4
144.4
144.4
144.4
144.4
144.4
144.4
144.4
144.4
144.4
144.4
144.4
144.4
144.4
144.4
144.4
144.4
144.4
144.4
144.4
144.4
144.4
144.4
144.4
144.4
144.4
144.4
144.4
144.4
144.4
144.4
144.4
144.4
144.4
144.4
144.4
144.4
144.4
144.4
144.4
144.4
144.4
144.4
144.4
144.4
144.4
144.4
144.4
144.4
144.4
144.4
144.4
144.4
144.4
144.4
144.4
144.4
144.4
144.4
144.4
144.4
144.4
144.4
144.4
144.4
144.4
144.4
144.4
144.4
144.4
144.4
144.4
144.4
144.4
144.4
144.4
144.4
144.4
144.4
144.4
144.4
144.4
144.4
144.4
144.4
144.4
144.4
144.4
144.4
144.4
144.4
144.4
144.4
144.4
144.4
144.4
144.4
144.4
144.4
144.4
144.4
144.4
144.4
144.4
144.4
144.4
144.4
144.4
144.4
144.4
144.4
144.4
144.4
144.4
144.4
144.4
144.4
144.4
144.4
144.4
144.4
144.4
144.4
144.4
144.4
144.4
144.4
144.4
144.4
144.4
144.4
144.4
144.4
144.4
144.4
144.4
144.4
144.4
144.4
144.4
144.4
144.4
144.4
144.4
144.4
144.4
144.4
144.4
144.4
144.4
144.4
144.4
144.4
144.4
144.4
144.4
144.4
144.4
144.4
144.4
144.4
144.4
144.4
144.4
144.4
144.4
144.4
144.4
144.4
144.4
144.4
144.4
144.4
144.4
144.4
144.4
144.4
144.4
144.4
144.4
144.4
144.4
144.4
144.4
144.4
144.4
144.4
144.4
144.4
144.4
144.4
144.4
144.4
144.4
144.4
144.4
144.4
144.4
144.4
144.4
144.4
144.4
144.4
144.4
144.4
144.4
144.4
144.4
144.4
144.4
144.4
144.4
144.4
144.4
144.4
144.4
144.4
144.4
144.4
144.4
144.4
144.4
144.4
144.4
144.4
144.4
144.4
144.4
144.4
144.4
144.4
144.4
144.4
144.4
144.4
144.4
144.4
144.4
144.4
144.4
144.4
144.4
144.4
144.4
144.4
144.4
144.4
144.4
144.4
144.4
144.4
144.4
144.4
144.4
144.4
144.4
144.4
144.4
144.4
144.4
144.4
144.4
144.4
144.4
144.4
144.4
144.4
144.4
144.4
144.4
144.4
144.4
144.4
144.4
144.4
144.4
144.4
144.4
144.4
144.4
144.4
144.4
144.4
144.4
144.4
144.4
144.4
144.4
144.4
144.4
144.4
144.4
144.4
144.4
144.4
144.4
144.4
144.4
144.4
144.4
144.4
144.4
144.4
144.4
144.4
144.4
144.4
144.4
144.4
144.4
144.4
144.4
144.4
144.4
144.4
144.4
144.4
144.4
144.4
144.4
144.4
144.4
144.4
144.4
144.4
144.4
144.4
144.4
144.4
144.4
144.4
144.4
144.4
144.4
144.4
144.4
144.4
144.4
144.4
144.4
144.4
144.4
144.4
144.4
144.4
144.4
144.4
144.4
144.4
144.4
144.4
144.4
144.4
144.4
144.4
144.4
144.4
144.4
144.4
144.4
144.4
144.4
144.4
144.4
144.4
144.4
144.4
144.4
144.4
144.4
144.4
144.4
144.4
144.4
144.4
144.4
144.4
144.4
144.4
144.4
144.4
144.4
144.4
144.4
144.4
144.4
144.4
144.4
144.4
144.4
144.4
144.4
144.4
144.4
144.4
144.4
144.4
144.4
144.4
144.4
144.4
144.4
144.4
144.4
144.4
144.4
144.4
144.4
144.4
144.4
144.4
144.4
144.4
144.4
144.4
144.4
144.4
144.4
144.4
144.4
144.4
144.4
144.4
144.4
144.4
144.4
144.4
144.4
144.4
144.4
144.4
144.4
144.4
144.4
144.4
144.4
144.4
144.4
144.4
144.4
144.4
144.4
144.4
144.4
144.4
144.4
144.4
144.4
144.4
144.4
144.4
144.4
144.4
144.4
144.4
144.4
144.4
144.4
144.4
144.4
144.4
144.4
144.4
144.4
144.4
144.4
144.4
144.4
144.4
144.4
144.4
144.4
144.4
144.4
144.4
144.4
144.4
144.4
144.4
144.4
144.4
144.4
144.4
144.4
144.4
144.4
144.4
144.4
144.4
144.4
144.4
144.4
144.4
144.4
144.4
144.4
144.4
144.4
144.4
144.4
144.4
144.4
144.4
144.4
144.4
144.4
144.4
144.4
144.4
144.4
144.4
144.4
144.4
144.4
144.4
144.4
144.4
144.4
144.4
144.4
144.4
144.4
144.4
144.4
144.4
144.4
144.4
144.4
144.4
144.4
144.4
144.4
144.4
144.4
144.4
144.4
144.4
144.4
144.4
144.4
144.4
144.4
144.4
144.4
144.4
144.4
144.401
144.402
144.404
144.4
144.4
144.4
144.4
144.4
144.4
144.4
144.4
144.4
144.4
144.4
144.4
144.4
144.4
144.4
144.4
144.4
144.4
144.4
144.4
144.4
144.4
144.4
144.4
144.4
144.4
144.4
144.4
144.4
144.4
144.4
144.4
144.4
144.4
144.4
144.4
144.4
144.4
144.4
144.4
144.4
144.4
144.4
144.4
144.401
144.402
144.403
144.407
144.415
144.434
144.4
144.4
144.4
144.4
144.4
144.4
144.4
144.4
144.4
144.4
144.4
144.4
144.4
144.4
144.4
144.4
144.4
144.4
144.4
144.4
144.4
144.4
144.4
144.4
144.4
144.4
144.4
144.4
144.4
144.4
144.4
144.4
144.4
144.4
144.4
144.4
144.4
144.4
144.4
144.4
144.4
144.401
144.402
144.403
144.407
144.414
144.43
144.462
144.531
144.7
144.4
144.4
144.4
144.4
144.4
144.4
144.4
144.4
144.4
144.4
144.4
144.4
144.4
144.4
144.4
144.4
144.4
144.4
144.4
144.4
144.4
144.4
144.4
144.4
144.4
144.4
144.4
144.4
144.4
144.4
144.4
144.4
144.4
144.4
144.4
144.4
144.4
144.4
144.401
144.402
144.404
144.408
144.415
144.431
144.463
144.528
144.662
144.934
145.481
146.648
144.4
144.4
144.4
144.4
144.4
144.4
144.4
144.4
144.4
144.4
144.4
144.4
144.4
144.4
144.4
144.4
144.4
144.4
144.4
144.4
144.4
144.4
144.4
144.4
144.4
144.4
144.4
144.4
144.4
144.4
144.4
144.4
144.4
144.4
144.401
144.401
144.402
144.404
144.408
144.417
144.433
144.466
144.533
144.667
144.932
145.448
146.403
148.048
150.631
154.51
144.4
144.4
144.4
144.4
144.4
144.4
144.4
144.4
144.4
144.4
144.4
144.4
144.4
144.4
144.4
144.4
144.4
144.4
144.4
144.4
144.4
144.4
144.4
144.4
144.4
144.4
144.4
144.4
144.4
144.4
144.4
144.401
144.401
144.403
144.405
144.41
144.419
144.437
144.472
144.542
144.681
144.951
145.467
146.407
148
150.447
153.814
158.03
162.99
168.828
144.4
144.4
144.4
144.4
144.4
144.4
144.4
144.4
144.4
144.4
144.4
144.4
144.4
144.4
144.4
144.4
144.4
144.4
144.4
144.4
144.4
144.4
144.4
144.4
144.4
144.4
144.4
144.4
144.401
144.402
144.403
144.406
144.411
144.422
144.442
144.481
144.558
144.707
144.991
145.523
146.476
148.063
150.468
153.751
157.839
162.596
167.894
173.626
179.719
186.234
144.4
144.4
144.4
144.4
144.4
144.4
144.4
144.4
144.4
144.4
144.4
144.4
144.4
144.4
144.4
144.4
144.4
144.4
144.4
144.4
144.4
144.4
144.4
144.4
144.401
144.401
144.402
144.404
144.407
144.414
144.426
144.45
144.495
144.582
144.746
145.055
145.621
146.613
148.232
150.64
153.885
157.894
162.542
167.708
173.289
179.186
185.296
191.504
197.713
203.896
144.4
144.4
144.4
144.4
144.4
144.4
144.4
144.4
144.4
144.4
144.4
144.4
144.4
144.4
144.4
144.4
144.4
144.4
144.4
144.4
144.4
144.401
144.402
144.403
144.405
144.41
144.418
144.433
144.462
144.515
144.616
144.804
145.15
145.771
146.83
148.516
150.967
154.212
158.178
162.747
167.81
173.271
179.044
185.029
191.116
197.187
203.136
208.884
214.396
219.69
144.4
144.4
144.4
144.4
144.4
144.4
144.4
144.4
144.4
144.4
144.4
144.4
144.4
144.4
144.4
144.4
144.4
144.401
144.401
144.402
144.404
144.407
144.413
144.423
144.443
144.478
144.544
144.666
144.888
145.287
145.985
147.143
148.931
151.462
154.743
158.695
163.21
168.19
173.551
179.212
185.083
191.063
197.041
202.912
208.592
214.024
219.184
224.072
228.719
233.174
144.4
144.4
144.4
144.4
144.4
144.4
144.4
144.4
144.4
144.4
144.4
144.4
144.4
144.401
144.401
144.402
144.403
144.406
144.41
144.418
144.432
144.457
144.503
144.586
144.737
145.007
145.481
146.284
147.575
149.502
152.145
155.489
159.452
163.935
168.852
174.127
179.688
185.453
191.327
197.207
202.993
208.605
213.984
219.101
223.948
228.536
232.885
237.026
241.002
244.861
144.4
144.4
144.4
144.4
144.4
144.4
144.4
144.4
144.4
144.401
144.401
144.402
144.403
144.405
144.408
144.414
144.425
144.444
144.479
144.54
144.649
144.842
145.179
145.754
146.698
148.159
150.257
153.039
156.469
160.462
164.931
169.8
175.003
180.475
186.139
191.908
197.685
203.378
208.907
214.219
219.281
224.084
228.635
232.951
237.055
240.971
244.724
248.34
251.859
255.335
144.4
144.4
144.4
144.4
144.4
144.4
144.401
144.401
144.401
144.402
144.404
144.407
144.412
144.421
144.437
144.464
144.512
144.596
144.743
144.996
145.427
146.139
147.264
148.933
151.232
154.174
157.703
161.741
166.209
171.043
176.186
181.577
187.147
192.811
198.481
204.07
209.505
214.733
219.725
224.468
228.969
233.242
237.307
241.187
244.904
248.481
251.936
255.291
258.564
261.783
265.008
144.4
144.4
144.401
144.401
144.401
144.402
144.404
144.407
144.411
144.419
144.433
144.456
144.496
144.565
144.684
144.886
145.226
145.788
146.682
148.033
149.945
152.466
155.577
159.215
163.305
167.782
172.591
177.683
183.001
188.478
194.038
199.597
205.074
210.403
215.534
220.439
225.108
229.543
233.76
237.774
241.608
245.283
248.819
252.235
255.549
258.777
261.932
265.024
268.06
271.057
274.076
144.401
144.402
144.403
144.404
144.407
144.411
144.419
144.432
144.453
144.488
144.549
144.651
144.822
145.107
145.573
146.314
147.441
149.062
151.245
153.999
157.281
161.027
165.172
169.664
174.455
179.502
184.751
190.139
195.593
201.035
206.392
211.603
216.623
221.427
226.007
230.363
234.51
238.462
242.239
245.863
249.35
252.72
255.989
259.172
262.282
265.33
268.322
271.262
274.15
276.983
279.769
282.57
144.407
144.412
144.42
144.432
144.453
144.487
144.543
144.637
144.791
145.044
145.453
146.097
147.076
148.491
150.418
152.885
155.868
159.313
163.163
167.363
171.871
176.649
181.654
186.835
192.133
197.477
202.796
208.024
213.105
218.002
222.693
227.168
231.433
235.496
239.375
243.086
246.648
250.079
253.395
256.613
259.746
262.808
265.808
268.753
271.649
274.496
277.291
280.032
282.715
285.337
287.907
290.489
144.456
144.49
144.547
144.638
144.786
145.024
145.403
145.993
146.882
148.163
149.912
152.163
154.909
158.105
161.7
165.644
169.896
174.421
179.185
184.148
189.26
194.463
199.691
204.879
209.968
214.909
219.671
224.234
228.594
232.753
236.722
240.516
244.15
247.641
251.008
254.264
257.424
260.503
263.511
266.459
269.354
272.202
275.003
277.757
280.461
283.11
285.701
288.233
290.706
293.123
295.494
297.879
144.806
145.044
145.416
145.986
146.832
148.039
149.676
151.782
154.352
157.353
160.739
164.465
168.493
172.79
177.329
182.077
186.994
192.031
197.132
202.235
207.282
212.22
217.01
221.625
226.05
230.281
234.324
238.188
241.886
245.434
248.847
252.141
255.329
258.427
261.444
264.395
267.286
270.127
272.923
275.675
278.383
281.045
283.656
286.213
288.713
291.155
293.542
295.874
298.156
300.391
302.59
304.805
146.916
148.1
149.686
151.707
154.161
157.021
160.244
163.792
167.629
171.728
176.064
180.611
185.335
190.198
195.15
200.138
205.104
209.998
214.775
219.403
223.859
228.135
232.228
236.144
239.892
243.486
246.939
250.265
253.479
256.593
259.621
262.574
265.461
268.293
271.076
273.815
276.514
279.172
281.788
284.356
286.875
289.339
291.748
294.102
296.403
298.653
300.856
303.013
305.129
307.209
309.259
311.329
154.322
157.088
160.193
163.601
167.282
171.213
175.371
179.735
184.279
188.969
193.764
198.617
203.476
208.292
213.02
217.624
222.077
226.366
230.482
234.427
238.207
241.832
245.313
248.663
251.895
255.023
258.057
261.01
263.892
266.713
269.48
272.201
274.881
277.523
280.127
282.693
285.215
287.69
290.115
292.487
294.806
297.072
299.288
301.457
303.58
305.662
307.706
309.714
311.688
313.633
315.555
317.498
167.437
171.228
175.234
179.438
183.816
188.342
192.981
197.69
202.425
207.138
211.787
216.335
220.754
225.023
229.134
233.083
236.872
240.509
244.003
247.364
250.605
253.737
256.771
259.72
262.594
265.401
268.15
270.849
273.505
276.122
278.704
281.251
283.762
286.234
288.663
291.044
293.376
295.656
297.885
300.064
302.196
304.284
306.33
308.337
310.309
312.247
314.154
316.032
317.884
319.711
321.521
323.354
188.316
192.803
197.367
201.968
206.562
211.109
215.574
219.928
224.15
228.227
232.153
235.927
239.555
243.042
246.398
249.634
252.76
255.786
258.724
261.582
264.371
267.099
269.773
272.401
274.989
277.54
280.059
282.545
284.999
287.417
289.795
292.129
294.416
296.654
298.843
300.983
303.076
305.126
307.134
309.103
311.037
312.938
314.807
316.647
318.461
320.249
322.014
323.758
325.483
327.194
328.928
206.579
211.008
215.369
219.633
223.781
227.797
231.673
235.408
239.003
242.463
245.797
249.012
252.117
255.124
258.04
260.876
263.64
266.341
268.986
271.582
274.136
276.652
279.135
281.587
284.011
286.404
288.764
291.088
293.371
295.611
297.804
299.949
302.047
304.1
306.108
308.077
310.006
311.9
313.761
315.591
317.392
319.167
320.916
322.642
324.347
326.031
327.697
329.345
330.978
332.6
334.244
223.941
227.871
231.673
235.344
238.884
242.296
245.587
248.764
251.834
254.807
257.691
260.495
263.226
265.892
268.502
271.061
273.576
276.052
278.494
280.906
283.29
285.648
287.978
290.278
292.545
294.774
296.962
299.107
301.206
303.259
305.267
307.233
309.159
311.047
312.899
314.719
316.508
318.269
320.002
321.711
323.397
325.062
326.707
328.333
329.941
331.533
333.109
334.671
336.22
337.76
339.321
242.565
245.794
248.914
251.933
254.858
257.696
260.455
263.144
265.768
268.334
270.85
273.321
275.753
278.149
280.515
282.854
285.168
287.457
289.722
291.959
294.166
296.338
298.472
300.565
302.614
304.62
306.582
308.503
310.384
312.228
314.036
315.813
317.56
319.278
320.969
322.636
324.281
325.904
327.507
329.092
330.66
332.212
333.748
335.27
336.778
338.273
339.755
341.226
342.69
344.173
255.293
258.072
260.775
263.41
265.981
268.497
270.962
273.383
275.764
278.11
280.426
282.714
284.978
287.219
289.439
291.636
293.808
295.952
298.064
300.14
302.178
304.175
306.131
308.044
309.917
311.751
313.549
315.313
317.044
318.746
320.42
322.068
323.692
325.294
326.874
328.435
329.978
331.504
333.014
334.509
335.99
337.458
338.912
340.355
341.785
343.204
344.612
346.01
347.403
348.813
266.547
269.002
271.409
273.772
276.096
278.386
280.646
282.879
285.088
287.276
289.443
291.591
293.719
295.823
297.903
299.952
301.969
303.949
305.891
307.793
309.655
311.477
313.263
315.012
316.728
318.413
320.069
321.698
323.3
324.879
326.436
327.973
329.49
330.99
332.473
333.94
335.393
336.832
338.258
339.672
341.074
342.464
343.843
345.212
346.57
347.918
349.256
350.586
351.91
353.251
276.758
278.986
281.185
283.357
285.506
287.635
289.746
291.838
293.913
295.97
298.006
300.018
302.003
303.957
305.878
307.761
309.607
311.415
313.185
314.919
316.618
318.285
319.921
321.529
323.11
324.666
326.199
327.71
329.201
330.673
332.128
333.567
334.991
336.4
337.796
339.18
340.551
341.911
343.261
344.599
345.928
347.246
348.555
349.855
351.145
352.426
353.698
354.962
356.221
357.495
286.24
288.306
290.354
292.386
294.402
296.403
298.388
300.353
302.297
304.215
306.105
307.963
309.786
311.574
313.325
315.04
316.72
318.367
319.982
321.568
323.125
324.658
326.166
327.651
329.115
330.559
331.986
333.395
334.788
336.167
337.532
338.884
340.223
341.552
342.869
344.176
345.473
346.76
348.038
349.307
350.567
351.818
353.06
354.294
355.52
356.737
357.945
359.147
360.344
361.554
295.194
297.134
299.06
300.971
302.865
304.738
306.588
308.411
310.204
311.965
313.692
315.384
317.042
318.666
320.259
321.821
323.354
324.86
326.342
327.799
329.235
330.651
332.048
333.426
334.789
336.135
337.468
338.787
340.094
341.389
342.673
343.947
345.21
346.465
347.71
348.946
350.174
351.393
352.604
353.807
355.002
356.189
357.369
358.54
359.704
360.859
362.007
363.148
364.285
365.435
303.717
305.538
307.34
309.12
310.874
312.601
314.297
315.961
317.592
319.191
320.757
322.292
323.799
325.278
326.732
328.161
329.568
330.953
332.319
333.666
334.996
336.31
337.609
338.895
340.167
341.428
342.678
343.916
345.145
346.365
347.575
348.777
349.97
351.156
352.333
353.503
354.666
355.821
356.969
358.11
359.243
360.369
361.488
362.6
363.704
364.801
365.89
366.973
368.052
369.143
313.492
315.15
316.78
318.379
319.947
321.484
322.991
324.468
325.918
327.341
328.74
330.115
331.469
332.803
334.117
335.414
336.694
337.959
339.209
340.447
341.672
342.885
344.088
345.281
346.464
347.638
348.804
349.962
351.111
352.254
353.389
354.517
355.638
356.752
357.86
358.961
360.055
361.143
362.224
363.298
364.366
365.427
366.481
367.528
368.568
369.601
370.628
371.651
372.684
320.945
322.448
323.922
325.367
326.784
328.175
329.541
330.883
332.204
333.503
334.783
336.045
337.291
338.52
339.735
340.936
342.124
343.3
344.466
345.621
346.766
347.903
349.031
350.151
351.264
352.369
353.468
354.559
355.644
356.723
357.795
358.862
359.922
360.976
362.025
363.067
364.103
365.134
366.158
367.175
368.187
369.192
370.19
371.182
372.167
373.146
374.118
375.087
376.065
327.883
329.239
330.569
331.876
333.161
334.425
335.669
336.894
338.103
339.295
340.473
341.636
342.786
343.925
345.052
346.168
347.275
348.373
349.462
350.543
351.617
352.684
353.744
354.797
355.844
356.886
357.921
358.951
359.975
360.994
362.007
363.015
364.018
365.015
366.007
366.993
367.973
368.948
369.917
370.881
371.838
372.789
373.734
374.672
375.604
376.53
377.449
378.365
379.289
335.571
336.777
337.964
339.134
340.288
341.427
342.551
343.662
344.761
345.849
346.925
347.992
349.05
350.099
351.14
352.174
353.201
354.221
355.235
356.242
357.245
358.241
359.233
360.219
361.2
362.177
363.148
364.115
365.077
366.034
366.986
367.933
368.876
369.813
370.745
371.672
372.594
373.51
374.42
375.325
376.224
377.117
378.004
378.884
379.758
380.626
381.491
382.363
341.501
342.599
343.683
344.754
345.812
346.858
347.894
348.92
349.936
350.944
351.944
352.937
353.922
354.901
355.874
356.841
357.802
358.759
359.71
360.657
361.599
362.537
363.47
364.399
365.323
366.244
367.16
368.072
368.979
369.882
370.781
371.675
372.565
373.45
374.33
375.205
376.076
376.94
377.8
378.654
379.502
380.345
381.181
382.012
382.836
383.655
384.47
385.291
348.083
349.076
350.06
351.034
351.999
352.957
353.907
354.85
355.786
356.717
357.642
358.562
359.476
360.387
361.292
362.193
363.091
363.984
364.873
365.759
366.641
367.519
368.393
369.264
370.131
370.994
371.853
372.709
373.56
374.408
375.251
376.09
376.924
377.754
378.579
379.4
380.215
381.025
381.83
382.629
383.422
384.21
384.992
385.768
386.538
387.305
388.078
353.265
354.179
355.085
355.985
356.878
357.765
358.647
359.524
360.396
361.263
362.126
362.986
363.841
364.693
365.541
366.386
367.228
368.066
368.901
369.733
370.562
371.388
372.21
373.029
373.845
374.658
375.467
376.272
377.074
377.871
378.665
379.455
380.241
381.022
381.799
382.571
383.338
384.1
384.857
385.609
386.355
387.095
387.83
388.559
389.282
390.002
390.727
359.02
359.857
360.69
361.518
362.342
363.161
363.977
364.79
365.599
366.405
367.207
368.007
368.804
369.599
370.39
371.179
371.966
372.749
373.53
374.309
375.084
375.857
376.627
377.393
378.157
378.918
379.675
380.428
381.178
381.925
382.667
383.405
384.139
384.869
385.594
386.315
387.031
387.741
388.447
389.147
389.841
390.53
391.213
391.891
392.566
393.244
363.622
364.397
365.169
365.937
366.702
367.465
368.224
368.981
369.736
370.488
371.238
371.986
372.731
373.475
374.216
374.955
375.691
376.426
377.158
377.888
378.615
379.34
380.062
380.782
381.499
382.212
382.923
383.63
384.333
385.034
385.73
386.422
387.111
387.795
388.475
389.15
389.821
390.486
391.147
391.802
392.452
393.096
393.735
394.369
394.999
395.632
368.005
368.722
369.438
370.151
370.862
371.57
372.277
372.982
373.686
374.387
375.087
375.785
376.482
377.177
377.869
378.561
379.25
379.937
380.623
381.306
381.987
382.666
383.342
384.016
384.687
385.355
386.021
386.683
387.342
387.997
388.649
389.297
389.941
390.581
391.217
391.848
392.475
393.097
393.714
394.326
394.932
395.533
396.129
396.72
397.307
397.897
372.181
372.846
373.509
374.17
374.83
375.489
376.146
376.802
377.457
378.111
378.763
379.414
380.064
380.712
381.359
382.004
382.648
383.29
383.93
384.569
385.205
385.839
386.471
387.101
387.728
388.352
388.974
389.593
390.208
390.82
391.429
392.034
392.635
393.232
393.825
394.414
394.998
395.577
396.152
396.722
397.286
397.845
398.399
398.948
399.493
400.041
376.165
376.78
377.394
378.007
378.619
379.23
379.84
380.45
381.058
381.666
382.273
382.879
383.483
384.087
384.69
385.291
385.891
386.489
387.086
387.681
388.274
388.865
389.455
390.042
390.626
391.208
391.787
392.364
392.937
393.507
394.074
394.637
395.196
395.752
396.303
396.85
397.393
397.932
398.465
398.994
399.517
400.036
400.549
401.057
401.562
402.069
379.966
380.534
381.101
381.668
382.235
382.801
383.366
383.931
384.496
385.059
385.623
386.185
386.747
387.308
387.868
388.426
388.984
389.54
390.095
390.648
391.2
391.749
392.297
392.843
393.386
393.927
394.465
395
395.533
396.062
396.588
397.11
397.629
398.145
398.656
399.163
399.666
400.164
400.658
401.146
401.63
402.109
402.583
403.052
403.517
403.984
383.593
384.116
384.639
385.162
385.686
386.208
386.731
387.254
387.776
388.298
388.819
389.34
389.86
390.38
390.898
391.416
391.933
392.448
392.962
393.475
393.986
394.496
395.003
395.508
396.012
396.513
397.011
397.507
397.999
398.489
398.976
399.459
399.939
400.415
400.887
401.355
401.818
402.278
402.733
403.183
403.629
404.069
404.505
404.936
405.363
405.791
387.534
388.015
388.497
388.978
389.46
389.941
390.423
390.905
391.386
391.867
392.348
392.828
393.307
393.786
394.265
394.742
395.218
395.693
396.166
396.638
397.108
397.577
398.044
398.508
398.97
399.43
399.887
400.341
400.793
401.241
401.686
402.128
402.566
403
403.43
403.856
404.278
404.695
405.108
405.516
405.92
406.318
406.712
407.102
407.493
390.794
391.235
391.677
392.118
392.56
393.002
393.445
393.887
394.329
394.772
395.214
395.655
396.096
396.537
396.976
397.415
397.853
398.29
398.726
399.16
399.592
400.023
400.452
400.879
401.303
401.726
402.145
402.563
402.977
403.388
403.796
404.2
404.601
404.999
405.392
405.782
406.167
406.548
406.925
407.297
407.664
408.026
408.384
408.739
409.093
393.903
394.305
394.708
395.112
395.515
395.919
396.324
396.728
397.133
397.538
397.942
398.346
398.75
399.154
399.556
399.958
400.359
400.759
401.158
401.555
401.951
402.345
402.738
403.128
403.516
403.902
404.286
404.667
405.045
405.42
405.792
406.161
406.526
406.888
407.246
407.6
407.95
408.296
408.637
408.974
409.306
409.634
409.957
410.276
410.596
397.23
397.596
397.963
398.33
398.697
399.065
399.433
399.802
400.17
400.538
400.906
401.274
401.641
402.008
402.374
402.74
403.104
403.467
403.829
404.189
404.548
404.905
405.26
405.613
405.964
406.312
406.658
407.001
407.341
407.679
408.013
408.343
408.67
408.994
409.313
409.629
409.941
410.248
410.551
410.849
411.143
411.432
411.718
412.003
400.016
400.346
400.677
401.008
401.341
401.673
402.006
402.339
402.672
403.006
403.339
403.672
404.004
404.336
404.668
404.998
405.328
405.656
405.984
406.31
406.634
406.957
407.278
407.597
407.913
408.228
408.54
408.849
409.155
409.459
409.759
410.056
410.35
410.64
410.926
411.209
411.487
411.761
412.031
412.297
412.558
412.814
413.068
413.32
402.666
402.962
403.258
403.556
403.854
404.152
404.451
404.75
405.049
405.349
405.648
405.947
406.246
406.545
406.842
407.139
407.435
407.731
408.024
408.317
408.608
408.898
409.185
409.471
409.755
410.036
410.315
410.592
410.865
411.136
411.404
411.669
411.93
412.188
412.442
412.692
412.938
413.181
413.419
413.652
413.882
414.107
414.328
414.549
405.185
405.448
405.711
405.976
406.241
406.506
406.772
407.038
407.305
407.572
407.838
408.105
408.371
408.637
408.902
409.166
409.43
409.693
409.954
410.215
410.474
410.731
410.987
411.24
411.492
411.742
411.989
412.233
412.476
412.715
412.951
413.184
413.414
413.64
413.863
414.082
414.297
414.509
414.716
414.919
415.117
415.312
415.503
415.692
407.809
408.04
408.273
408.506
408.739
408.973
409.208
409.443
409.678
409.913
410.148
410.382
410.616
410.85
411.083
411.316
411.547
411.777
412.006
412.234
412.46
412.685
412.908
413.128
413.347
413.563
413.777
413.989
414.197
414.403
414.606
414.805
415.001
415.194
415.383
415.568
415.749
415.926
416.1
416.268
416.433
416.594
416.754
410.049
410.249
410.451
410.653
410.856
411.059
411.263
411.467
411.671
411.875
412.08
412.284
412.488
412.691
412.894
413.096
413.297
413.497
413.696
413.893
414.089
414.284
414.476
414.667
414.856
415.042
415.227
415.408
415.587
415.763
415.936
416.106
416.273
416.437
416.597
416.753
416.905
417.053
417.197
417.338
417.474
417.606
417.737
412.171
412.342
412.513
412.685
412.859
413.032
413.206
413.381
413.555
413.73
413.905
414.079
414.254
414.428
414.601
414.773
414.945
415.116
415.285
415.454
415.621
415.786
415.95
416.112
416.272
416.429
416.585
416.738
416.888
417.035
417.18
417.322
417.46
417.595
417.727
417.855
417.979
418.099
418.216
418.328
418.436
418.541
418.644
414.321
414.464
414.608
414.752
414.897
415.042
415.188
415.334
415.48
415.626
415.772
415.918
416.063
416.208
416.352
416.496
416.638
416.78
416.92
417.058
417.196
417.331
417.465
417.597
417.727
417.855
417.98
418.102
418.222
418.339
418.453
418.564
418.672
418.776
418.877
418.974
419.067
419.157
419.242
419.324
419.401
419.477
416.192
416.307
416.423
416.539
416.657
416.774
416.892
417.011
417.129
417.248
417.366
417.484
417.602
417.719
417.836
417.952
418.067
418.181
418.294
418.405
418.516
418.624
418.731
418.836
418.939
419.039
419.138
419.233
419.327
419.417
419.504
419.589
419.67
419.748
419.823
419.894
419.961
420.024
420.083
420.139
420.19
420.24
417.958
418.046
418.135
418.224
418.315
418.405
418.497
418.588
418.68
418.772
418.864
418.955
419.046
419.137
419.227
419.317
419.406
419.493
419.58
419.665
419.749
419.831
419.912
419.991
420.067
420.142
420.214
420.284
420.352
420.416
420.478
420.537
420.593
420.645
420.694
420.74
420.781
420.82
420.854
420.884