/*--------------------------------*- C++ -*----------------------------------*\
| =========                 |                                                 |
| \\      /  F ield         | OpenFOAM: The Open Source CFD Toolbox           |
|  \\    /   O peration     | Version:  v1706                                 |
|   \\  /    A nd           | Web:      www.OpenFOAM.com                      |
|    \\/     M anipulation  |                                                 |
\*---------------------------------------------------------------------------*/
FoamFile
{
    version     2.0;
    format      ascii;
    class       volScalarField;
    location    "3.1e-05";
    object      Mach;
}
// * * * * * * * * * * * * * * * * * * * * * * * * * * * * * * * * * * * * * //

dimensions      [0 0 0 0 0 0 0];


internalField   nonuniform List<scalar> 
30104
(
7.18506
7.18506
7.18506
7.18506
7.18506
7.18506
7.18506
7.18506
7.18506
7.18506
7.18506
7.18506
7.18506
7.18506
7.18506
7.18506
7.18506
7.18506
7.18506
7.18506
7.18506
7.18506
7.18506
7.18506
7.18506
7.18506
7.18506
7.18506
7.18506
7.18506
7.18506
7.18506
7.18506
7.18506
7.18506
7.18506
7.18506
7.18506
7.18506
7.18506
7.18506
7.18506
7.18506
7.18506
7.18506
7.18506
7.18506
7.18506
7.18506
7.18506
7.18506
7.18506
7.18506
7.18506
7.18506
7.18506
7.18506
7.18506
7.18506
7.18506
7.18506
7.18506
7.18506
7.18506
7.18506
7.18506
7.18506
7.18506
7.18506
7.18506
7.18506
7.18506
7.18506
7.18506
7.18506
7.18506
7.18506
7.18506
7.18506
7.18506
7.18506
7.18506
7.18506
7.18506
7.18506
7.18506
7.18506
7.18506
7.18506
7.18506
7.18506
7.18506
7.18506
7.18506
7.18506
7.18506
7.18506
7.18506
7.18506
7.18506
7.18506
7.18506
7.18506
7.18506
7.18506
7.18506
7.18506
7.18506
7.18506
7.18506
7.18506
7.18506
7.18506
7.18506
7.18506
7.18506
7.18506
7.18506
7.18506
7.18506
7.18506
7.18506
7.18506
7.18506
7.18506
7.18506
7.18506
7.18506
7.18506
7.18506
7.18506
7.18506
7.18506
7.18506
7.18506
7.18506
7.18506
7.18506
7.18506
7.18506
7.18506
7.18506
7.18506
7.18506
7.18506
7.18506
7.18506
7.18506
7.18506
7.18506
7.18506
7.18506
7.18506
7.18506
7.18506
7.18506
7.18506
7.18506
7.18506
7.18506
7.18506
7.18506
7.18506
7.18506
7.18506
7.18506
7.18506
7.18506
7.18506
7.18506
7.18506
7.18506
7.18506
7.18506
7.18506
7.18506
7.18506
7.18506
7.18506
7.18506
7.18506
7.18506
7.18506
7.18506
7.18506
7.18506
7.18506
7.18506
7.18506
7.18506
7.18506
7.18506
7.18506
7.18506
7.18506
7.18506
7.18506
7.18506
7.18506
7.18506
7.18506
7.18506
7.18506
7.18506
7.18506
7.18506
7.18506
7.18506
7.18506
7.18506
7.18506
7.18506
7.18506
7.18506
7.18506
7.18506
7.18506
7.18506
7.18506
7.18506
7.18506
7.18506
7.18506
7.18506
7.18506
7.18506
7.18506
7.18506
7.18506
7.18506
7.18506
7.18506
7.18506
7.18506
7.18506
7.18506
7.18506
7.18506
7.18506
7.18506
7.18506
7.18506
7.18506
7.18506
7.18506
7.18506
7.18506
7.18506
7.18506
7.18506
7.18506
7.18506
7.18506
7.18506
7.18506
7.18506
7.18506
7.18506
7.18506
7.18506
7.18506
7.18506
7.18506
7.18506
7.18506
7.18506
7.18506
7.18506
7.18506
7.18506
7.18506
7.18506
7.18506
7.18506
7.18506
7.18506
7.18506
7.18506
7.18506
7.18506
7.18506
7.18506
7.18506
7.18506
7.18506
7.18506
7.18506
7.18506
7.18506
7.18506
7.18506
7.18506
7.18506
7.18506
7.18506
7.18506
7.18506
7.18506
7.18506
7.18506
7.18506
7.18506
7.18506
7.18506
7.18506
7.18506
7.18506
7.18506
7.18506
7.18506
7.18506
7.18506
7.18506
7.18506
7.18506
7.18506
7.18506
7.18506
7.18506
7.18506
7.18506
7.18506
7.18506
7.18506
7.18506
7.18506
7.18506
7.18506
7.18506
7.18506
7.18506
7.18506
7.18506
7.18506
7.18506
7.18506
7.18506
7.18506
7.18506
7.18506
7.18506
7.18506
7.18506
7.18506
7.18506
7.18506
7.18506
7.18506
7.18506
7.18506
7.18506
7.18506
7.18506
7.18506
7.18506
7.18506
7.18506
7.18506
7.18506
7.18506
7.18506
7.18506
7.18506
7.18506
7.18506
7.18506
7.18506
7.18506
7.18506
7.18506
7.18506
7.18506
7.18506
7.18506
7.18506
7.18506
7.18506
7.18506
7.18506
7.18506
7.18506
7.18506
7.18506
7.18506
7.18506
7.18506
7.18506
7.18506
7.18506
7.18506
7.18506
7.18506
7.18506
7.18506
7.18506
7.18506
7.18506
7.18506
7.18506
7.18506
7.18506
7.18506
7.18506
7.18506
7.18506
7.18506
7.18506
7.18506
7.18506
7.18506
7.18506
7.18506
7.18506
7.18506
7.18506
7.18506
7.18506
7.18506
7.18506
7.18506
7.18506
7.18506
7.18506
7.18506
7.18506
7.18506
7.18506
7.18506
7.18506
7.18506
7.18506
7.18506
7.18506
7.18506
7.18506
7.18506
7.18506
7.18506
7.18506
7.18506
7.18506
7.18506
7.18506
7.18506
7.18506
7.18506
7.18506
7.18506
7.18506
7.18506
7.18506
7.18506
7.18506
7.18506
7.18506
7.18506
7.18506
7.18506
7.18506
7.18506
7.18506
7.18506
7.18506
7.18506
7.18506
7.18506
7.18506
7.18506
7.18506
7.18506
7.18506
7.18506
7.18506
7.18506
7.18506
7.18506
7.18506
7.18506
7.18506
7.18506
7.18506
7.18506
7.18506
7.18506
7.18506
7.18506
7.18506
7.18506
7.18506
7.18506
7.18506
7.18506
7.18506
7.18506
7.18506
7.18506
7.18506
7.18506
7.18506
7.18506
7.18506
7.18506
7.18506
7.18506
7.18506
7.18506
7.18506
7.18506
7.18506
7.18506
7.18506
7.18506
7.18506
7.18506
7.18506
7.18506
7.18506
7.18506
7.18506
7.18506
7.18506
7.18506
7.18506
7.18506
7.18506
7.18506
7.18506
7.18506
7.18506
7.18506
7.18506
7.18506
7.18506
7.18506
7.18506
7.18506
7.18506
7.18506
7.18506
7.18506
7.18506
7.18506
7.18506
7.18506
7.18506
7.18506
7.18506
7.18506
7.18506
7.18506
7.18506
7.18506
7.18506
7.18506
7.18506
7.18506
7.18506
7.18506
7.18506
7.18506
7.18506
7.18506
7.18506
7.18506
7.18506
7.18506
7.18506
7.18506
7.18506
7.18506
7.18506
7.18506
7.18506
7.18506
7.18506
7.18506
7.18506
7.18506
7.18506
7.18506
7.18506
7.18506
7.18506
7.18506
7.18506
7.18506
7.18506
7.18506
7.18506
7.18506
7.18506
7.18506
7.18506
7.18506
7.18506
7.18506
7.18506
7.18506
7.18506
7.18506
7.18506
7.18506
7.18506
7.18506
7.18506
7.18506
7.18506
7.18506
7.18506
7.18506
7.18506
7.18506
7.18506
7.18506
7.18506
7.18506
7.18506
7.18506
7.18506
7.18506
7.18506
7.18506
7.18506
7.18506
7.18506
7.18506
7.18506
7.18506
7.18506
7.18506
7.18506
7.18506
7.18506
7.18506
7.18506
7.18506
7.18506
7.18506
7.18506
7.18506
7.18506
7.18506
7.18506
7.18506
7.18506
7.18506
7.18506
7.18506
7.18506
7.18506
7.18506
7.18506
7.18506
7.18506
7.18506
7.18506
7.18506
7.18506
7.18506
7.18506
7.18506
7.18506
7.18506
7.18506
7.18506
7.18506
7.18506
7.18506
7.18506
7.18506
7.18506
7.18506
7.18506
7.18506
7.18506
7.18506
7.18506
7.18506
7.18506
7.18506
7.18506
7.18506
7.18506
7.18506
7.18506
7.18506
7.18506
7.18506
7.18506
7.18506
7.18506
7.18506
7.18506
7.18506
7.18506
7.18506
7.18506
7.18506
7.18506
7.18506
7.18506
7.18506
7.18506
7.18506
7.18506
7.18506
7.18506
7.18506
7.18506
7.18506
7.18506
7.18506
7.18506
7.18506
7.18506
7.18506
7.18506
7.18506
7.18506
7.18506
7.18506
7.18506
7.18506
7.18506
7.18506
7.18506
7.18506
7.18506
7.18506
7.18506
7.18506
7.18506
7.18506
7.18506
7.18506
7.18506
7.18506
7.18506
7.18506
7.18506
7.18506
7.18506
7.18506
7.18506
7.18506
7.18506
7.18506
7.18506
7.18506
7.18506
7.18506
7.18506
7.18506
7.18506
7.18506
7.18506
7.18506
7.18506
7.18506
7.18506
7.18506
7.18506
7.18506
7.18506
7.18506
7.18506
7.18506
7.18506
7.18506
7.18506
7.18506
7.18506
7.18506
7.18506
7.18506
7.18506
7.18506
7.18506
7.18506
7.18506
7.18506
7.18506
7.18506
7.18506
7.18506
7.18506
7.18506
7.18506
7.18506
7.18506
7.18506
7.18506
7.18506
7.18506
7.18506
7.18506
7.18506
7.18506
7.18506
7.18506
7.18506
7.18506
7.18506
7.18506
7.18506
7.18506
7.18506
7.18506
7.18506
7.18506
7.18506
7.18506
7.18506
7.18506
7.18506
7.18506
7.18506
7.18506
7.18506
7.18506
7.18506
7.18506
7.18506
7.18506
7.18506
7.18506
7.18506
7.18506
7.18506
7.18506
7.18506
7.18506
7.18506
7.18506
7.18506
7.18506
7.18506
7.18506
7.18506
7.18506
7.18506
7.18506
7.18506
7.18506
7.18506
7.18506
7.18506
7.18506
7.18506
7.18506
7.18506
7.18506
7.18506
7.18506
7.18506
7.18506
7.18506
7.18506
7.18506
7.18506
7.18506
7.18506
7.18506
7.18506
7.18506
7.18506
7.18506
7.18506
7.18506
7.18506
7.18506
7.18506
7.18506
7.18506
7.18506
7.18506
7.18506
7.18506
7.18506
7.18506
7.18506
7.18506
7.18506
7.18506
7.18506
7.18506
7.18506
7.18506
7.18506
7.18506
7.18506
7.18506
7.18506
7.18506
7.18506
7.18506
7.18506
7.18506
7.18506
7.18506
7.18506
7.18506
7.18506
7.18506
7.18506
7.18506
7.18506
7.18506
7.18506
7.18506
7.18506
7.18506
7.18506
7.18506
7.18506
7.18506
7.18506
7.18506
7.18506
7.18506
7.18506
7.18506
7.18506
7.18506
7.18506
7.18506
7.18506
7.18506
7.18506
7.18506
7.18506
7.18506
7.18506
7.18506
7.18506
7.18506
7.18506
7.18506
7.18506
7.18506
7.18506
7.18506
7.18506
7.18506
7.18506
7.18506
7.18506
7.18506
7.18506
7.18506
7.18506
7.18506
7.18506
7.18506
7.18506
7.18506
7.18506
7.18506
7.18506
7.18506
7.18506
7.18506
7.18506
7.18506
7.18506
7.18506
7.18506
7.18506
7.18506
7.18506
7.18506
7.18506
7.18506
7.18506
7.18506
7.18506
7.18506
7.18506
7.18506
7.18506
7.18506
7.18506
7.18506
7.18506
7.18506
7.18506
7.18506
7.18506
7.18506
7.18506
7.18506
7.18506
7.18506
7.18506
7.18506
7.18506
7.18506
7.18506
7.18506
7.18506
7.18506
7.18506
7.18506
7.18506
7.18506
7.18506
7.18506
7.18506
7.18506
7.18506
7.18506
7.18506
7.18506
7.18506
7.18506
7.18506
7.18506
7.18506
7.18506
7.18506
7.18506
7.18506
7.18506
7.18506
7.18506
7.18506
7.18506
7.18506
7.18506
7.18506
7.18506
7.18506
7.18506
7.18506
7.18506
7.18506
7.18506
7.18506
7.18506
7.18506
7.18506
7.18506
7.18506
7.18506
7.18506
7.18506
7.18506
7.18506
7.18506
7.18506
7.18506
7.18506
7.18506
7.18506
7.18506
7.18506
7.18506
7.18506
7.18506
7.18506
7.18506
7.18506
7.18506
7.18506
7.18506
7.18506
7.18506
7.18506
7.18506
7.18506
7.18506
7.18506
7.18506
7.18506
7.18506
7.18506
7.18506
7.18506
7.18506
7.18506
7.18506
7.18506
7.18506
7.18506
7.18506
7.18506
7.18506
7.18506
7.18506
7.18506
7.18506
7.18506
7.18506
7.18506
7.18506
7.18506
7.18506
7.18506
7.18506
7.18506
7.18506
7.18506
7.18506
7.18506
7.18506
7.18506
7.18506
7.18506
7.18506
7.18506
7.18506
7.18506
7.18506
7.18506
7.18506
7.18506
7.18506
7.18506
7.18506
7.18506
7.18506
7.18506
7.18506
7.18506
7.18506
7.18506
7.18506
7.18506
7.18506
7.18506
7.18506
7.18506
7.18506
7.18506
7.18506
7.18506
7.18506
7.18506
7.18506
7.18506
7.18506
7.18506
7.18506
7.18506
7.18506
7.18506
7.18506
7.18506
7.18506
7.18506
7.18506
7.18506
7.18506
7.18506
7.18506
7.18506
7.18506
7.18506
7.18506
7.18506
7.18506
7.18506
7.18506
7.18506
7.18506
7.18506
7.18506
7.18506
7.18506
7.18506
7.18506
7.18506
7.18506
7.18506
7.18506
7.18506
7.18506
7.18506
7.18506
7.18506
7.18506
7.18506
7.18506
7.18506
7.18506
7.18506
7.18506
7.18506
7.18506
7.18506
7.18506
7.18506
7.18506
7.18506
7.18506
7.18506
7.18506
7.18506
7.18506
7.18506
7.18506
7.18506
7.18506
7.18506
7.18506
7.18506
7.18506
7.18506
7.18506
7.18506
7.18506
7.18506
7.18506
7.18506
7.18506
7.18506
7.18506
7.18506
7.18506
7.18506
7.18506
7.18506
7.18506
7.18506
7.18506
7.18506
7.18506
7.18506
7.18506
7.18506
7.18506
7.18506
7.18506
7.18506
7.18506
7.18506
7.18506
7.18506
7.18506
7.18506
7.18506
7.18506
7.18506
7.18506
7.18506
7.18506
7.18506
7.18506
7.18506
7.18506
7.18506
7.18506
7.18506
7.18506
7.18506
7.18506
7.18506
7.18506
7.18506
7.18506
7.18506
7.18506
7.18506
7.18506
7.18506
7.18506
7.18506
7.18506
7.18506
7.18506
7.18506
7.18506
7.18506
7.18506
7.18506
7.18506
7.18506
7.18506
7.18506
7.18506
7.18506
7.18506
7.18506
7.18506
7.18506
7.18506
7.18506
7.18506
7.18506
7.18506
7.18506
7.18506
7.18506
7.18505
7.18505
7.18505
7.18505
7.18505
7.18505
7.18505
7.18505
7.18505
7.18505
7.18504
7.18504
7.18504
7.18504
7.18504
7.18504
7.18504
7.18504
7.18504
7.18504
7.18503
7.18503
7.18503
7.18503
7.18503
7.18503
7.18503
7.18502
7.18502
7.18502
7.18502
7.18502
7.18502
7.18502
7.18502
7.18502
7.18502
7.18502
7.18502
7.18502
7.18502
7.18502
7.18502
7.18502
7.18502
7.18502
7.18503
7.18503
7.18503
7.18503
7.18503
7.18503
7.18504
7.18504
7.18504
7.18504
7.18504
7.18505
7.18505
7.18505
7.18505
7.18505
7.18505
7.18506
7.18506
7.18506
7.18506
7.18506
7.18506
7.18506
7.18506
7.18506
7.18506
7.18506
7.18506
7.18506
7.18506
7.18506
7.18506
7.18506
7.18506
7.18506
7.18506
7.18506
7.18506
7.18506
7.18506
7.18506
7.18506
7.18506
7.18506
7.18506
7.18506
7.18506
7.18506
7.18506
7.18506
7.18506
7.18506
7.18506
7.18506
7.18506
7.18506
7.18506
7.18506
7.18506
7.18506
7.18506
7.18506
7.18506
7.18506
7.18506
7.18506
7.18506
7.18506
7.18506
7.18506
7.18506
7.18506
7.18506
7.18506
7.18506
7.18506
7.18506
7.18506
7.18506
7.18506
7.18506
7.18506
7.18506
7.18506
7.18506
7.18506
7.18506
7.18506
7.18506
7.18506
7.18506
7.18506
7.18506
7.18506
7.18506
7.18506
7.18506
7.18506
7.18506
7.18506
7.18506
7.18506
7.18506
7.18506
7.18506
7.18506
7.18506
7.18506
7.18506
7.18506
7.18506
7.18506
7.18506
7.18506
7.18506
7.18506
7.18506
7.18506
7.18506
7.18506
7.18506
7.18506
7.18506
7.18506
7.18506
7.18506
7.18506
7.18506
7.18506
7.18506
7.18506
7.18506
7.18506
7.18506
7.18506
7.18506
7.18506
7.18506
7.18506
7.18506
7.18506
7.18506
7.18505
7.18505
7.18505
7.18505
7.18505
7.18505
7.18504
7.18504
7.18504
7.18504
7.18503
7.18503
7.18503
7.18502
7.18502
7.18501
7.18501
7.185
7.185
7.18499
7.18498
7.18498
7.18497
7.18496
7.18496
7.18495
7.18494
7.18494
7.18493
7.18493
7.18493
7.18492
7.18492
7.18491
7.1849
7.18489
7.18488
7.18487
7.18487
7.18486
7.18485
7.18484
7.18483
7.18482
7.18482
7.18481
7.1848
7.1848
7.18479
7.18479
7.18479
7.18478
7.18478
7.18478
7.18478
7.18478
7.18478
7.18478
7.18479
7.18479
7.1848
7.1848
7.18481
7.18482
7.18483
7.18484
7.18485
7.18486
7.18487
7.18489
7.1849
7.18491
7.18493
7.18494
7.18495
7.18497
7.18498
7.18499
7.185
7.185
7.18501
7.18502
7.18502
7.18503
7.18503
7.18504
7.18504
7.18505
7.18505
7.18505
7.18505
7.18506
7.18506
7.18506
7.18506
7.18506
7.18506
7.18506
7.18506
7.18506
7.18506
7.18506
7.18506
7.18506
7.18506
7.18506
7.18506
7.18506
7.18506
7.18506
7.18506
7.18506
7.18506
7.18506
7.18506
7.18506
7.18506
7.18506
7.18506
7.18506
7.18506
7.18506
7.18506
7.18506
7.18506
7.18506
7.18506
7.18506
7.18506
7.18506
7.18506
7.18506
7.18506
7.18506
7.18506
7.18506
7.18506
7.18506
7.18506
7.18506
7.18506
7.18506
7.18506
7.18506
7.18506
7.18506
7.18506
7.18506
7.18506
7.18506
7.18506
7.18506
7.18506
7.18506
7.18506
7.18506
7.18506
7.18506
7.18506
7.18506
7.18506
7.18506
7.18506
7.18506
7.18506
7.18506
7.18506
7.18506
7.18506
7.18506
7.18506
7.18506
7.18506
7.18506
7.18506
7.18506
7.18506
7.18506
7.18506
7.18506
7.18506
7.18506
7.18506
7.18506
7.18506
7.18506
7.18506
7.18506
7.18506
7.18506
7.18506
7.18506
7.18506
7.18506
7.18506
7.18506
7.18506
7.18506
7.18506
7.18504
7.18504
7.18504
7.18503
7.18503
7.18502
7.18502
7.18501
7.18501
7.185
7.18499
7.18498
7.18497
7.18495
7.18494
7.18492
7.18491
7.18489
7.18487
7.18485
7.18483
7.18481
7.18478
7.18475
7.18472
7.18468
7.18465
7.18461
7.18457
7.18453
7.18449
7.18445
7.18441
7.18438
7.18434
7.18431
7.18428
7.18425
7.18423
7.1842
7.18416
7.18413
7.18408
7.18403
7.18397
7.1839
7.18384
7.18378
7.18372
7.18366
7.18361
7.18356
7.18352
7.18348
7.18344
7.1834
7.18337
7.18335
7.18332
7.1833
7.18329
7.18328
7.18327
7.18327
7.18328
7.18329
7.18331
7.18333
7.18337
7.1834
7.18345
7.1835
7.18356
7.18363
7.1837
7.18378
7.18386
7.18394
7.18402
7.18411
7.1842
7.18428
7.18436
7.18444
7.18451
7.18457
7.18463
7.18468
7.18473
7.18477
7.1848
7.18484
7.18487
7.1849
7.18492
7.18495
7.18497
7.18498
7.185
7.18501
7.18502
7.18503
7.18503
7.18504
7.18505
7.18505
7.18505
7.18506
7.18506
7.18506
7.18506
7.18506
7.18506
7.18506
7.18506
7.18506
7.18506
7.18506
7.18506
7.18506
7.18506
7.18506
7.18506
7.18506
7.18506
7.18506
7.18506
7.18506
7.18506
7.18506
7.18506
7.18506
7.18506
7.18506
7.18506
7.18506
7.18506
7.18506
7.18506
7.18506
7.18506
7.18506
7.18506
7.18506
7.18506
7.18506
7.18506
7.18506
7.18506
7.18506
7.18506
7.18506
7.18506
7.18506
7.18506
7.18506
7.18506
7.18506
7.18506
7.18506
7.18506
7.18506
7.18506
7.18506
7.18506
7.18506
7.18506
7.18506
7.18506
7.18506
7.18506
7.18506
7.18506
7.18506
7.18506
7.18506
7.18506
7.18506
7.18506
7.18506
7.18506
7.18506
7.18506
7.18506
7.18506
7.18506
7.18506
7.18506
7.18506
7.18506
7.18506
7.18506
7.18506
7.18506
7.18506
7.18506
7.18506
7.18506
7.18506
7.18506
7.18506
7.18506
7.18506
7.18506
7.18506
7.18506
7.18506
7.18494
7.18492
7.1849
7.18488
7.18485
7.18482
7.18479
7.18476
7.18472
7.18467
7.18462
7.18455
7.18448
7.18441
7.18432
7.18423
7.18414
7.18404
7.18394
7.18383
7.18371
7.18357
7.1834
7.18322
7.18301
7.18279
7.18255
7.18231
7.18206
7.18182
7.18158
7.18135
7.18113
7.18092
7.18072
7.18053
7.18036
7.18019
7.18002
7.17985
7.17967
7.17944
7.17917
7.17886
7.17852
7.17816
7.1778
7.17744
7.17709
7.17677
7.17646
7.17617
7.17591
7.17567
7.17545
7.17524
7.17505
7.17488
7.17473
7.17461
7.17451
7.17443
7.17439
7.17438
7.1744
7.17446
7.17456
7.17471
7.17489
7.17512
7.17539
7.1757
7.17606
7.17645
7.17688
7.17735
7.17783
7.17834
7.17887
7.1794
7.17993
7.18045
7.18094
7.18138
7.18178
7.18213
7.18244
7.18272
7.18297
7.1832
7.18342
7.18362
7.18382
7.184
7.18417
7.18432
7.18445
7.18456
7.18465
7.18472
7.18478
7.18483
7.18488
7.18492
7.18495
7.18497
7.18499
7.18501
7.18502
7.18503
7.18504
7.18504
7.18505
7.18505
7.18505
7.18506
7.18506
7.18506
7.18506
7.18506
7.18506
7.18506
7.18506
7.18506
7.18506
7.18506
7.18506
7.18506
7.18506
7.18506
7.18506
7.18506
7.18506
7.18506
7.18506
7.18506
7.18506
7.18506
7.18506
7.18506
7.18506
7.18506
7.18506
7.18506
7.18506
7.18506
7.18506
7.18506
7.18506
7.18506
7.18506
7.18506
7.18506
7.18506
7.18506
7.18506
7.18506
7.18506
7.18506
7.18506
7.18506
7.18506
7.18506
7.18506
7.18506
7.18506
7.18506
7.18506
7.18506
7.18506
7.18506
7.18506
7.18506
7.18506
7.18506
7.18506
7.18506
7.18506
7.18506
7.18506
7.18506
7.18506
7.18506
7.18506
7.18506
7.18506
7.18506
7.18506
7.18506
7.18506
7.18506
7.18506
7.18506
7.18506
7.18506
7.18506
7.18506
7.18506
7.18506
7.18506
7.18506
7.18506
7.18506
7.18506
7.18506
7.18506
7.18506
7.18435
7.18424
7.18413
7.184
7.18385
7.1837
7.18352
7.18333
7.1831
7.18283
7.18251
7.18214
7.18172
7.18125
7.18075
7.18022
7.17967
7.1791
7.17851
7.17788
7.17717
7.17635
7.1754
7.17432
7.17312
7.17184
7.17049
7.16911
7.16772
7.16634
7.16498
7.16368
7.16243
7.16124
7.16011
7.15904
7.15801
7.15703
7.15608
7.15511
7.15405
7.15277
7.15116
7.14923
7.14708
7.14484
7.1426
7.1404
7.13829
7.13629
7.13442
7.13269
7.1311
7.12964
7.12829
7.12704
7.12588
7.12484
7.1239
7.12311
7.12246
7.12195
7.12162
7.12149
7.12156
7.12186
7.12242
7.12321
7.12424
7.12553
7.12707
7.12888
7.13095
7.13328
7.13584
7.13859
7.14152
7.14459
7.14778
7.15104
7.1543
7.15746
7.1604
7.16306
7.16541
7.16747
7.16929
7.17093
7.17242
7.17381
7.17512
7.17637
7.17756
7.17869
7.17973
7.18065
7.18143
7.18206
7.18256
7.18298
7.18333
7.18363
7.18389
7.18412
7.18432
7.18448
7.1846
7.1847
7.18478
7.18484
7.18489
7.18493
7.18496
7.18499
7.185
7.18502
7.18503
7.18504
7.18504
7.18505
7.18505
7.18506
7.18506
7.18506
7.18506
7.18506
7.18506
7.18506
7.18506
7.18506
7.18506
7.18506
7.18506
7.18506
7.18506
7.18506
7.18506
7.18506
7.18506
7.18506
7.18506
7.18506
7.18506
7.18506
7.18506
7.18506
7.18506
7.18506
7.18506
7.18506
7.18506
7.18506
7.18506
7.18506
7.18506
7.18506
7.18506
7.18506
7.18506
7.18506
7.18506
7.18506
7.18506
7.18506
7.18506
7.18506
7.18506
7.18506
7.18506
7.18506
7.18506
7.18506
7.18506
7.18506
7.18506
7.18506
7.18506
7.18506
7.18506
7.18506
7.18506
7.18506
7.18506
7.18506
7.18506
7.18506
7.18506
7.18506
7.18506
7.18506
7.18506
7.18506
7.18506
7.18506
7.18506
7.18506
7.18506
7.18506
7.18506
7.18506
7.18506
7.18506
7.18506
7.18506
7.18506
7.18506
7.1811
7.18051
7.17983
7.17909
7.17828
7.1774
7.17643
7.17534
7.17405
7.17252
7.17071
7.16862
7.16628
7.16371
7.16094
7.15802
7.15498
7.15185
7.14862
7.14519
7.14128
7.1366
7.13104
7.12466
7.11764
7.11019
7.10247
7.09465
7.08687
7.07924
7.07186
7.06479
7.05807
7.05169
7.04565
7.03993
7.03448
7.0293
7.02432
7.01935
7.01398
7.00749
6.99928
6.98948
6.97868
6.96748
6.95629
6.94537
6.93492
6.92503
6.91579
6.90724
6.89939
6.89218
6.8855
6.87926
6.87346
6.86813
6.86336
6.85924
6.8558
6.85307
6.85107
6.85007
6.85025
6.85159
6.85409
6.85774
6.86258
6.86871
6.87621
6.88514
6.89551
6.9073
6.92038
6.93461
6.94989
6.9661
6.98305
7.00051
7.01803
7.03473
7.04985
7.06311
7.07462
7.08474
7.09383
7.10223
7.1102
7.11788
7.12535
7.13264
7.13973
7.14655
7.15291
7.15853
7.16322
7.16701
7.17006
7.17255
7.17465
7.17648
7.1781
7.17951
7.18068
7.18161
7.18233
7.18288
7.18332
7.18368
7.18398
7.18423
7.18442
7.18457
7.18469
7.18477
7.18484
7.1849
7.18494
7.18497
7.18499
7.18501
7.18502
7.18503
7.18504
7.18505
7.18505
7.18505
7.18506
7.18506
7.18506
7.18506
7.18506
7.18506
7.18506
7.18506
7.18506
7.18506
7.18506
7.18506
7.18506
7.18506
7.18506
7.18506
7.18506
7.18506
7.18506
7.18506
7.18506
7.18506
7.18506
7.18506
7.18506
7.18506
7.18506
7.18506
7.18506
7.18506
7.18506
7.18506
7.18506
7.18506
7.18506
7.18506
7.18506
7.18506
7.18506
7.18506
7.18506
7.18506
7.18506
7.18506
7.18506
7.18506
7.18506
7.18506
7.18506
7.18506
7.18506
7.18506
7.18506
7.18506
7.18506
7.18506
7.18506
7.18506
7.18506
7.18506
7.18506
7.18506
7.18506
7.18506
7.18506
7.18506
7.18506
7.18506
7.18506
7.18506
7.18506
7.18506
7.18506
7.18506
7.18506
7.18506
7.18506
7.18506
7.15687
7.15292
7.14862
7.14398
7.1389
7.1331
7.12613
7.11765
7.10754
7.09593
7.08301
7.06904
7.05424
7.03889
7.02318
7.00732
6.99122
6.97419
6.95462
6.93111
6.90351
6.87262
6.83953
6.80518
6.77039
6.73587
6.70216
6.6697
6.63878
6.60962
6.58228
6.55662
6.53245
6.50964
6.48808
6.46764
6.44814
6.42923
6.40964
6.38603
6.35444
6.31608
6.27478
6.2332
6.19288
6.1547
6.11909
6.08618
6.056
6.02859
6.00388
5.98151
5.96096
5.94186
5.92416
5.90801
5.89358
5.8811
5.87079
5.86246
5.85597
5.8524
5.85305
5.85611
5.86286
5.87329
5.88678
5.90411
5.92581
5.95221
5.98359
6.02021
6.06199
6.10856
6.15988
6.21636
6.2777
6.3432
6.41139
6.47672
6.53583
6.58802
6.63422
6.67602
6.71503
6.75265
6.78983
6.8271
6.86459
6.90217
6.93958
6.97628
7.01076
7.04068
7.0649
7.08398
7.09929
7.11213
7.12344
7.13374
7.1432
7.15167
7.15878
7.16441
7.16872
7.17205
7.17469
7.17686
7.17868
7.18016
7.18131
7.18216
7.1828
7.1833
7.18369
7.18401
7.18426
7.18446
7.1846
7.18471
7.1848
7.18486
7.18491
7.18495
7.18497
7.185
7.18501
7.18502
7.18503
7.18504
7.18504
7.18505
7.18505
7.18505
7.18506
7.18506
7.18506
7.18506
7.18506
7.18506
7.18506
7.18506
7.18506
7.18506
7.18506
7.18506
7.18506
7.18506
7.18506
7.18506
7.18506
7.18506
7.18506
7.18506
7.18506
7.18506
7.18506
7.18506
7.18506
7.18506
7.18506
7.18506
7.18506
7.18506
7.18506
7.18506
7.18506
7.18506
7.18506
7.18506
7.18506
7.18506
7.18506
7.18506
7.18506
7.18506
7.18506
7.18506
7.18506
7.18506
7.18506
7.18506
7.18506
7.18506
7.18506
7.18506
7.18506
7.18506
7.18506
7.18506
7.18506
7.18506
7.18506
7.18506
7.18506
7.18506
7.18506
7.18506
7.18506
7.18506
7.18506
7.18506
7.18506
7.03888
7.01888
6.9976
6.97509
6.95087
6.92332
6.89016
6.85027
6.80402
6.75257
6.69725
6.63937
6.58013
6.52064
6.46182
6.40413
6.34771
6.29062
6.22448
6.14335
6.05081
5.95332
5.85577
5.76121
5.67149
5.58772
5.51044
5.43965
5.37525
5.31698
5.26429
5.21631
5.17221
5.13146
5.09373
5.05873
5.02621
4.99567
4.96553
4.93136
4.88291
4.82327
4.76105
4.70095
4.64505
4.59397
4.54781
4.50639
4.4693
4.43645
4.4076
4.38204
4.35879
4.33718
4.31719
4.29917
4.2832
4.26955
4.2586
4.2498
4.24245
4.23825
4.23963
4.24565
4.25339
4.26499
4.28002
4.29983
4.32532
4.35674
4.39466
4.44007
4.49352
4.55478
4.62455
4.70515
4.79732
4.9012
5.01644
5.12186
5.21423
5.29647
5.373
5.44802
5.52506
5.60673
5.69485
5.79064
5.8946
6.00688
6.12733
6.25528
6.38486
6.50166
6.59855
6.67737
6.74367
6.80248
6.85714
6.90932
6.95914
7.00457
7.04234
7.07138
7.09318
7.11012
7.12412
7.13626
7.14686
7.15571
7.16263
7.16779
7.17163
7.17459
7.17695
7.17887
7.18038
7.18151
7.18234
7.18295
7.18342
7.18379
7.18409
7.18433
7.1845
7.18463
7.18473
7.1848
7.18486
7.18491
7.18494
7.18497
7.18499
7.185
7.18501
7.18502
7.18503
7.18503
7.18504
7.18504
7.18504
7.18505
7.18505
7.18505
7.18505
7.18505
7.18505
7.18505
7.18506
7.18506
7.18506
7.18506
7.18506
7.18506
7.18506
7.18506
7.18506
7.18506
7.18506
7.18506
7.18506
7.18506
7.18506
7.18506
7.18506
7.18506
7.18506
7.18506
7.18505
7.18505
7.18505
7.18505
7.18505
7.18504
7.18504
7.18504
7.18504
7.18504
7.18504
7.18503
7.18503
7.18504
7.18504
7.18504
7.18504
7.18504
7.18505
7.18505
7.18505
7.18505
7.18506
7.18506
7.18506
7.18506
7.18506
7.18506
7.18506
7.18506
7.18506
7.18506
7.18506
6.53993
6.46668
6.39181
6.31578
6.23808
6.15249
6.04883
5.92775
5.7967
5.66279
5.531
5.40453
5.28536
5.1746
5.07253
4.97907
4.89298
4.81104
4.7168
4.5998
4.47512
4.35487
4.24455
4.14579
4.05849
3.98218
3.91604
3.85874
3.80929
3.76689
3.7303
3.69822
3.66948
3.64355
3.62039
3.59969
3.58118
3.56487
3.55041
3.53746
3.52615
3.51594
3.5065
3.49817
3.49139
3.4862
3.48251
3.4802
3.47892
3.47879
3.47966
3.481
3.48239
3.48375
3.48527
3.48729
3.48986
3.49282
3.49622
3.49977
3.50364
3.50833
3.51477
3.52284
3.53159
3.53773
3.5455
3.55511
3.56582
3.57769
3.59084
3.60517
3.62068
3.63715
3.65446
3.67348
3.69396
3.71679
3.74257
3.77141
3.80267
3.83745
3.87733
3.92369
3.97863
4.04433
4.12259
4.21573
4.3258
4.45556
4.609
4.79107
4.99901
5.18828
5.34617
5.48274
5.61199
5.74396
5.88439
6.03618
6.19935
6.36472
6.51103
6.62826
6.72041
6.79622
6.86279
6.92388
6.97952
7.02646
7.06238
7.08856
7.10812
7.12372
7.13688
7.14807
7.1571
7.16392
7.16887
7.17251
7.17531
7.17756
7.17936
7.18074
7.18176
7.18249
7.18303
7.18345
7.18379
7.18407
7.18429
7.18446
7.18458
7.18467
7.18474
7.18479
7.18483
7.18486
7.18489
7.18491
7.18493
7.18494
7.18496
7.18497
7.18498
7.18499
7.18499
7.185
7.185
7.18501
7.18501
7.18501
7.18501
7.18502
7.18502
7.18502
7.18502
7.18502
7.18502
7.18503
7.18503
7.18502
7.18502
7.18502
7.18502
7.18502
7.18501
7.185
7.18499
7.18497
7.18496
7.18494
7.18492
7.1849
7.18489
7.18487
7.18485
7.18484
7.18482
7.18481
7.18481
7.18482
7.18483
7.18485
7.18487
7.18489
7.18491
7.18493
7.18495
7.18497
7.18501
7.18505
7.18505
7.18505
7.18505
7.18504
7.18504
7.18504
7.18504
7.18504
5.11961
4.99654
4.88129
4.77131
4.65841
4.51869
4.36565
4.21532
4.07635
3.95198
3.84264
3.74775
3.66638
3.59694
3.5377
3.48787
3.44635
3.41231
3.38449
3.36104
3.34104
3.32433
3.31085
3.30042
3.29287
3.28793
3.28503
3.28398
3.28502
3.28703
3.28955
3.29214
3.29488
3.29793
3.30119
3.30482
3.30864
3.31268
3.31661
3.32019
3.32332
3.32591
3.32799
3.33013
3.333
3.33628
3.33965
3.34356
3.34804
3.35284
3.35786
3.36325
3.36886
3.37436
3.37957
3.38527
3.39102
3.39683
3.40197
3.40711
3.41339
3.41986
3.42764
3.436
3.44341
3.4515
3.46
3.46693
3.4753
3.48671
3.4983
3.50779
3.51748
3.52932
3.54041
3.54861
3.55961
3.57498
3.58697
3.59826
3.61164
3.62647
3.64181
3.6575
3.67315
3.6892
3.70579
3.72377
3.74475
3.76993
3.80134
3.83933
3.88514
3.94052
4.00894
4.0956
4.20531
4.3429
4.51508
4.72952
4.98313
5.21858
5.4132
5.5809
5.74146
5.90818
6.08717
6.27528
6.45118
6.59378
6.70274
6.7888
6.86204
6.92781
6.98621
7.0337
7.06876
7.09383
7.11256
7.12762
7.14034
7.15097
7.1593
7.16541
7.16978
7.17298
7.17547
7.1775
7.17917
7.18049
7.18146
7.18216
7.18266
7.18302
7.18331
7.18355
7.18375
7.18392
7.18406
7.18418
7.18429
7.18438
7.18445
7.18452
7.18457
7.18461
7.18464
7.18467
7.18469
7.1847
7.18472
7.18473
7.18475
7.18476
7.18477
7.18478
7.18478
7.18479
7.18479
7.18479
7.18479
7.18478
7.18477
7.18475
7.18471
7.18465
7.18457
7.18447
7.18435
7.18422
7.18408
7.18394
7.18381
7.18367
7.18353
7.18338
7.18324
7.18311
7.18302
7.18301
7.18304
7.18312
7.18325
7.18342
7.1836
7.18378
7.18395
7.1841
7.18425
7.18452
7.18501
7.185
3.65961
3.5746
3.50128
3.43875
3.38609
3.3432
3.30763
3.27748
3.25172
3.23013
3.21255
3.19878
3.18865
3.18165
3.1772
3.17594
3.17691
3.17901
3.18124
3.18308
3.1847
3.18629
3.18819
3.19058
3.19354
3.19715
3.20149
3.20633
3.21186
3.21844
3.22587
3.23197
3.2386
3.24493
3.24987
3.25592
3.2618
3.26711
3.27192
3.2761
3.28099
3.28519
3.2884
3.29163
3.29564
3.29994
3.30333
3.30703
3.31209
3.31669
3.32075
3.32573
3.33165
3.33735
3.34295
3.34745
3.35368
3.35953
3.36437
3.37079
3.37739
3.38351
3.39055
3.39866
3.40609
3.41349
3.42135
3.42846
3.43563
3.44629
3.45599
3.46526
3.47504
3.48488
3.49524
3.50503
3.51535
3.52617
3.53679
3.54761
3.55967
3.57233
3.58686
3.60229
3.61217
3.62581
3.63844
3.6494
3.66125
3.67253
3.68544
3.69772
3.71131
3.72754
3.74524
3.76363
3.78083
3.79856
3.82104
3.85226
3.89345
3.94729
4.0175
4.10964
4.23065
4.38883
4.59385
4.85268
5.1287
5.36103
5.55271
5.72932
5.90993
6.10253
6.30162
6.48082
6.62069
6.72575
6.80923
6.8811
6.94553
7.00132
7.04482
7.07587
7.09788
7.11451
7.12809
7.13972
7.14965
7.15763
7.16353
7.16767
7.17059
7.17276
7.17447
7.17588
7.17707
7.17808
7.17895
7.17968
7.18031
7.18085
7.18131
7.18168
7.18197
7.18219
7.18236
7.1825
7.18261
7.1827
7.18279
7.18287
7.18294
7.183
7.18306
7.18311
7.18315
7.18317
7.18318
7.18316
7.18314
7.18309
7.18298
7.18279
7.18249
7.18204
7.18143
7.18067
7.17979
7.17882
7.17779
7.17676
7.17574
7.17473
7.17358
7.17224
7.1708
7.16948
7.16847
7.16806
7.16813
7.16866
7.16967
7.17109
7.17275
7.17442
7.17591
7.17717
7.17833
7.18042
3.16961
3.15575
3.14506
3.13746
3.13272
3.13008
3.12847
3.12703
3.12518
3.12298
3.12111
3.1199
3.11949
3.12028
3.12201
3.1248
3.12928
3.1359
3.14267
3.14709
3.15236
3.15738
3.16192
3.16626
3.17047
3.17462
3.17913
3.18391
3.18877
3.19436
3.20007
3.20586
3.21277
3.21878
3.22375
3.22967
3.23633
3.24173
3.24638
3.2509
3.25697
3.26168
3.26527
3.26934
3.27437
3.27913
3.28274
3.2866
3.29127
3.29541
3.29896
3.30345
3.30894
3.31396
3.31865
3.32322
3.32947
3.33489
3.33978
3.34628
3.35256
3.35847
3.36541
3.37336
3.38058
3.38757
3.39518
3.40258
3.40937
3.41948
3.42887
3.43784
3.44725
3.45675
3.46671
3.47687
3.48732
3.49768
3.50774
3.51815
3.52937
3.54056
3.55185
3.56425
3.57537
3.58896
3.60267
3.61419
3.62433
3.63803
3.64873
3.66018
3.67209
3.68306
3.6982
3.71437
3.72293
3.73395
3.7459
3.75806
3.77035
3.7833
3.79811
3.81197
3.82479
3.84064
3.86502
3.90117
3.95115
4.01932
4.1112
4.23502
4.40095
4.61945
4.89495
5.17587
5.40503
5.59606
5.77648
5.9627
6.15962
6.35638
6.52353
6.64874
6.74195
6.81682
6.88195
6.94083
6.99294
7.03489
7.06502
7.08566
7.1004
7.11179
7.12119
7.12922
7.13617
7.14218
7.14736
7.15182
7.15567
7.159
7.16185
7.16417
7.16594
7.16724
7.16821
7.16897
7.1696
7.17015
7.17063
7.17107
7.17146
7.17182
7.17213
7.17239
7.17258
7.17266
7.17261
7.17251
7.17228
7.17182
7.17099
7.1695
7.16702
7.1634
7.15859
7.1527
7.14596
7.13868
7.13117