/*--------------------------------*- C++ -*----------------------------------*\
| =========                 |                                                 |
| \\      /  F ield         | OpenFOAM: The Open Source CFD Toolbox           |
|  \\    /   O peration     | Version:  v1706                                 |
|   \\  /    A nd           | Web:      www.OpenFOAM.com                      |
|    \\/     M anipulation  |                                                 |
\*---------------------------------------------------------------------------*/
FoamFile
{
    version     2.0;
    format      ascii;
    class       volScalarField;
    location    "3.1e-05";
    object      p;
}
// * * * * * * * * * * * * * * * * * * * * * * * * * * * * * * * * * * * * * //

dimensions      [1 -1 -2 0 0 0 0];


internalField   nonuniform List<scalar> 
30104
(
21.9139
21.9139
21.9139
21.9139
21.9139
21.9139
21.9139
21.9139
21.9139
21.9139
21.9139
21.9139
21.9139
21.9139
21.9139
21.9139
21.9139
21.9139
21.9139
21.9139
21.9139
21.9139
21.9139
21.9139
21.9139
21.9139
21.9139
21.9139
21.9139
21.9139
21.9139
21.9139
21.9139
21.9139
21.9139
21.9139
21.9139
21.9139
21.9139
21.9139
21.9139
21.9139
21.9139
21.9139
21.9139
21.9139
21.9139
21.9139
21.9139
21.9139
21.9139
21.9139
21.9139
21.9139
21.9139
21.9139
21.9139
21.9139
21.9139
21.9139
21.9139
21.9139
21.9139
21.9139
21.9139
21.9139
21.9139
21.9139
21.9139
21.9139
21.9139
21.9139
21.9139
21.9139
21.9139
21.9139
21.9139
21.9139
21.9139
21.9139
21.9139
21.9139
21.9139
21.9139
21.9139
21.9139
21.9139
21.9139
21.9139
21.9139
21.9139
21.9139
21.9139
21.9139
21.9139
21.9139
21.9139
21.9139
21.9139
21.9139
21.9139
21.9139
21.9139
21.9139
21.9139
21.9139
21.9139
21.9139
21.9139
21.9139
21.9139
21.9139
21.9139
21.9139
21.9139
21.9139
21.9139
21.9139
21.9139
21.9139
21.9139
21.9139
21.9139
21.9139
21.9139
21.9139
21.9139
21.9139
21.9139
21.9139
21.9139
21.9139
21.9139
21.9139
21.9139
21.9139
21.9139
21.9139
21.9139
21.9139
21.9139
21.9139
21.9139
21.9139
21.9139
21.9139
21.9139
21.9139
21.9139
21.9139
21.9139
21.9139
21.9139
21.9139
21.9139
21.9139
21.9139
21.9139
21.9139
21.9139
21.9139
21.9139
21.9139
21.9139
21.9139
21.9139
21.9139
21.9139
21.9139
21.9139
21.9139
21.9139
21.9139
21.9139
21.9139
21.9139
21.9139
21.9139
21.9139
21.9139
21.9139
21.9139
21.9139
21.9139
21.9139
21.9139
21.9139
21.9139
21.9139
21.9139
21.9139
21.9139
21.9139
21.9139
21.9139
21.9139
21.9139
21.9139
21.9139
21.9139
21.9139
21.9139
21.9139
21.9139
21.9139
21.9139
21.9139
21.9139
21.9139
21.9139
21.9139
21.9139
21.9139
21.9139
21.9139
21.9139
21.9139
21.9139
21.9139
21.9139
21.9139
21.9139
21.9139
21.9139
21.9139
21.9139
21.9139
21.9139
21.9139
21.9139
21.9139
21.9139
21.9139
21.9139
21.9139
21.9139
21.9139
21.9139
21.9139
21.9139
21.9139
21.9139
21.9139
21.9139
21.9139
21.9139
21.9139
21.9139
21.9139
21.9139
21.9139
21.9139
21.9139
21.9139
21.9139
21.9139
21.9139
21.9139
21.9139
21.9139
21.9139
21.9139
21.9139
21.9139
21.9139
21.9139
21.9139
21.9139
21.9139
21.9139
21.9139
21.9139
21.9139
21.9139
21.9139
21.9139
21.9139
21.9139
21.9139
21.9139
21.9139
21.9139
21.9139
21.9139
21.9139
21.9139
21.9139
21.9139
21.9139
21.9139
21.9139
21.9139
21.9139
21.9139
21.9139
21.9139
21.9139
21.9139
21.9139
21.9139
21.9139
21.9139
21.9139
21.9139
21.9139
21.9139
21.9139
21.9139
21.9139
21.9139
21.9139
21.9139
21.9139
21.9139
21.9139
21.9139
21.9139
21.9139
21.9139
21.9139
21.9139
21.9139
21.9139
21.9139
21.9139
21.9139
21.9139
21.9139
21.9139
21.9139
21.9139
21.9139
21.9139
21.9139
21.9139
21.9139
21.9139
21.9139
21.9139
21.9139
21.9139
21.9139
21.9139
21.9139
21.9139
21.9139
21.9139
21.9139
21.9139
21.9139
21.9139
21.9139
21.9139
21.9139
21.9139
21.9139
21.9139
21.9139
21.9139
21.9139
21.9139
21.9139
21.9139
21.9139
21.9139
21.9139
21.9139
21.9139
21.9139
21.9139
21.9139
21.9139
21.9139
21.9139
21.9139
21.9139
21.9139
21.9139
21.9139
21.9139
21.9139
21.9139
21.9139
21.9139
21.9139
21.9139
21.9139
21.9139
21.9139
21.9139
21.9139
21.9139
21.9139
21.9139
21.9139
21.9139
21.9139
21.9139
21.9139
21.9139
21.9139
21.9139
21.9139
21.9139
21.9139
21.9139
21.9139
21.9139
21.9139
21.9139
21.9139
21.9139
21.9139
21.9139
21.9139
21.9139
21.9139
21.9139
21.9139
21.9139
21.9139
21.9139
21.9139
21.9139
21.9139
21.9139
21.9139
21.9139
21.9139
21.9139
21.9139
21.9139
21.9139
21.9139
21.9139
21.9139
21.9139
21.9139
21.9139
21.9139
21.9139
21.9139
21.9139
21.9139
21.9139
21.9139
21.9139
21.9139
21.9139
21.9139
21.9139
21.9139
21.9139
21.9139
21.9139
21.9139
21.9139
21.9139
21.9139
21.9139
21.9139
21.9139
21.9139
21.9139
21.9139
21.9139
21.9139
21.9139
21.9139
21.9139
21.9139
21.9139
21.9139
21.9139
21.9139
21.9139
21.9139
21.9139
21.9139
21.9139
21.9139
21.9139
21.9139
21.9139
21.9139
21.9139
21.9139
21.9139
21.9139
21.9139
21.9139
21.9139
21.9139
21.9139
21.9139
21.9139
21.9139
21.9139
21.9139
21.9139
21.9139
21.9139
21.9139
21.9139
21.9139
21.9139
21.9139
21.9139
21.9139
21.9139
21.9139
21.9139
21.9139
21.9139
21.9139
21.9139
21.9139
21.9139
21.9139
21.9139
21.9139
21.9139
21.9139
21.9139
21.9139
21.9139
21.9139
21.9139
21.9139
21.9139
21.9139
21.9139
21.9139
21.9139
21.9139
21.9139
21.9139
21.9139
21.9139
21.9139
21.9139
21.9139
21.9139
21.9139
21.9139
21.9139
21.9139
21.9139
21.9139
21.9139
21.9139
21.9139
21.9139
21.9139
21.9139
21.9139
21.9139
21.9139
21.9139
21.9139
21.9139
21.9139
21.9139
21.9139
21.9139
21.9139
21.9139
21.9139
21.9139
21.9139
21.9139
21.9139
21.9139
21.9139
21.9139
21.9139
21.9139
21.9139
21.9139
21.9139
21.9139
21.9139
21.9139
21.9139
21.9139
21.9139
21.9139
21.9139
21.9139
21.9139
21.9139
21.9139
21.9139
21.9139
21.9139
21.9139
21.9139
21.9139
21.9139
21.9139
21.9139
21.9139
21.9139
21.9139
21.9139
21.9139
21.9139
21.9139
21.9139
21.9139
21.9139
21.9139
21.9139
21.9139
21.9139
21.9139
21.9139
21.9139
21.9139
21.9139
21.9139
21.9139
21.9139
21.9139
21.9139
21.9139
21.9139
21.9139
21.9139
21.9139
21.9139
21.9139
21.9139
21.9139
21.9139
21.9139
21.9139
21.9139
21.9139
21.9139
21.9139
21.9139
21.9139
21.9139
21.9139
21.9139
21.9139
21.9139
21.9139
21.9139
21.9139
21.9139
21.9139
21.9139
21.9139
21.9139
21.9139
21.9139
21.9139
21.9139
21.9139
21.9139
21.9139
21.9139
21.9139
21.9139
21.9139
21.9139
21.9139
21.9139
21.9139
21.9139
21.9139
21.9139
21.9139
21.9139
21.9139
21.9139
21.9139
21.9139
21.9139
21.9139
21.9139
21.9139
21.9139
21.9139
21.9139
21.9139
21.9139
21.9139
21.9139
21.9139
21.9139
21.9139
21.9139
21.9139
21.9139
21.9139
21.9139
21.9139
21.9139
21.9139
21.9139
21.9139
21.9139
21.9139
21.9139
21.9139
21.9139
21.9139
21.9139
21.9139
21.9139
21.9139
21.9139
21.9139
21.9139
21.9139
21.9139
21.9139
21.9139
21.9139
21.9139
21.9139
21.9139
21.9139
21.9139
21.9139
21.9139
21.9139
21.9139
21.9139
21.9139
21.9139
21.9139
21.9139
21.9139
21.9139
21.9139
21.9139
21.9139
21.9139
21.9139
21.9139
21.9139
21.9139
21.9139
21.9139
21.9139
21.9139
21.9139
21.9139
21.9139
21.9139
21.9139
21.9139
21.9139
21.9139
21.9139
21.9139
21.9139
21.9139
21.9139
21.9139
21.9139
21.9139
21.9139
21.9139
21.9139
21.9139
21.9139
21.9139
21.9139
21.9139
21.9139
21.9139
21.9139
21.9139
21.9139
21.9139
21.9139
21.9139
21.9139
21.9139
21.9139
21.9139
21.9139
21.9139
21.9139
21.9139
21.9139
21.9139
21.9139
21.9139
21.9139
21.9139
21.9139
21.9139
21.9139
21.9139
21.9139
21.9139
21.9139
21.9139
21.9139
21.9139
21.9139
21.9139
21.9139
21.9139
21.9139
21.9139
21.9139
21.9139
21.9139
21.9139
21.9139
21.9139
21.9139
21.9139
21.9139
21.9139
21.9139
21.9139
21.9139
21.9139
21.9139
21.9139
21.9139
21.9139
21.9139
21.9139
21.9139
21.9139
21.9139
21.9139
21.9139
21.9139
21.9139
21.9139
21.9139
21.9139
21.9139
21.9139
21.9139
21.9139
21.9139
21.9139
21.9139
21.9139
21.9139
21.9139
21.9139
21.9139
21.9139
21.9139
21.9139
21.9139
21.9139
21.9139
21.9139
21.9139
21.9139
21.9139
21.9139
21.9139
21.9139
21.9139
21.9139
21.9139
21.9139
21.9139
21.9139
21.9139
21.9139
21.9139
21.9139
21.9139
21.9139
21.9139
21.9139
21.9139
21.9139
21.9139
21.9139
21.9139
21.9139
21.9139
21.9139
21.9139
21.9139
21.9139
21.9139
21.9139
21.9139
21.9139
21.9139
21.9139
21.9139
21.9139
21.9139
21.9139
21.9139
21.9139
21.9139
21.9139
21.9139
21.9139
21.9139
21.9139
21.9139
21.9139
21.9139
21.9139
21.9139
21.9139
21.9139
21.9139
21.9139
21.9139
21.9139
21.9139
21.9139
21.9139
21.9139
21.9139
21.9139
21.9139
21.9139
21.9139
21.9139
21.9139
21.9139
21.9139
21.9139
21.9139
21.9139
21.9139
21.9139
21.9139
21.9139
21.9139
21.9139
21.9139
21.9139
21.9139
21.9139
21.9139
21.9139
21.9139
21.9139
21.9139
21.9139
21.9139
21.9139
21.9139
21.9139
21.9139
21.9139
21.9139
21.9139
21.9139
21.9139
21.9139
21.9139
21.9139
21.9139
21.9139
21.9139
21.9139
21.9139
21.9139
21.9139
21.9139
21.9139
21.9139
21.9139
21.9139
21.9139
21.9139
21.9139
21.9139
21.9139
21.9139
21.9139
21.9139
21.9139
21.9139
21.9139
21.9139
21.9139
21.9139
21.9139
21.9139
21.9139
21.9139
21.9139
21.9139
21.9139
21.9139
21.9139
21.9139
21.9139
21.9139
21.9139
21.9139
21.9139
21.9139
21.9139
21.9139
21.9139
21.9139
21.9139
21.9139
21.9139
21.9139
21.9139
21.9139
21.9139
21.9139
21.9139
21.9139
21.9139
21.9139
21.9139
21.9139
21.9139
21.9139
21.9139
21.9139
21.9139
21.9139
21.9139
21.9139
21.9139
21.9139
21.9139
21.9139
21.9139
21.9139
21.9139
21.9139
21.9139
21.9139
21.9139
21.9139
21.9139
21.9139
21.9139
21.9139
21.9139
21.9139
21.9139
21.9139
21.9139
21.9139
21.9139
21.9139
21.9139
21.9139
21.9139
21.9139
21.9139
21.9139
21.9139
21.9139
21.9139
21.9139
21.9139
21.9139
21.9139
21.9139
21.9139
21.9139
21.9139
21.9139
21.9139
21.9139
21.9139
21.9139
21.9139
21.9139
21.9139
21.9139
21.9139
21.9139
21.9139
21.9139
21.9139
21.9139
21.9139
21.9139
21.9139
21.9139
21.9139
21.9139
21.9139
21.9139
21.9139
21.9139
21.9139
21.9139
21.9139
21.9139
21.9139
21.9139
21.9139
21.9139
21.9139
21.9139
21.9139
21.9139
21.9139
21.9139
21.9139
21.9139
21.9139
21.9139
21.9139
21.9139
21.9139
21.9139
21.9139
21.9139
21.9139
21.9139
21.9139
21.9139
21.9139
21.9139
21.9139
21.9139
21.9139
21.9139
21.9139
21.9139
21.9139
21.9139
21.9139
21.9139
21.9139
21.9139
21.9139
21.9139
21.9139
21.9139
21.9139
21.9139
21.9139
21.9139
21.9139
21.9139
21.9139
21.9139
21.9139
21.9139
21.9139
21.9139
21.9139
21.9139
21.9139
21.9139
21.9139
21.9139
21.9139
21.9139
21.9139
21.9139
21.9139
21.9139
21.9139
21.9139
21.9139
21.9139
21.9139
21.9139
21.9139
21.9139
21.9139
21.9139
21.9139
21.9139
21.9139
21.9139
21.9139
21.9139
21.9139
21.9139
21.9139
21.9139
21.9139
21.9139
21.9139
21.9139
21.9139
21.9139
21.9139
21.9139
21.9139
21.9139
21.9139
21.9139
21.9139
21.9139
21.9139
21.9139
21.9139
21.9139
21.9139
21.9139
21.9139
21.9139
21.9139
21.9139
21.9139
21.9139
21.9139
21.9139
21.9139
21.9139
21.9139
21.9139
21.9139
21.9139
21.9139
21.9139
21.9139
21.9139
21.9139
21.9139
21.9139
21.9139
21.9139
21.9139
21.9139
21.9139
21.9139
21.9139
21.9139
21.9139
21.9139
21.9139
21.9139
21.9139
21.9139
21.9139
21.9139
21.9139
21.9139
21.9139
21.9139
21.9139
21.9139
21.9139
21.9139
21.9139
21.9139
21.9139
21.9139
21.9139
21.9139
21.9139
21.9139
21.9139
21.9139
21.9139
21.9139
21.9139
21.9139
21.9139
21.9139
21.9139
21.9139
21.9139
21.9139
21.9139
21.9139
21.9139
21.9139
21.9139
21.9139
21.9139
21.9139
21.9139
21.9139
21.9139
21.9139
21.9139
21.9139
21.9139
21.9139
21.914
21.914
21.914
21.914
21.914
21.914
21.914
21.914
21.914
21.914
21.914
21.914
21.914
21.914
21.914
21.9141
21.9141
21.9141
21.9141
21.9141
21.9141
21.9141
21.9141
21.9141
21.9141
21.9141
21.9141
21.9142
21.9142
21.9142
21.9142
21.9142
21.9142
21.9142
21.9142
21.9142
21.9142
21.9142
21.9142
21.9142
21.9142
21.9142
21.9142
21.9142
21.9142
21.9142
21.9142
21.9142
21.9142
21.9142
21.9141
21.9141
21.9141
21.9141
21.9141
21.9141
21.9141
21.9141
21.914
21.914
21.914
21.914
21.914
21.914
21.914
21.914
21.914
21.9139
21.9139
21.9139
21.9139
21.9139
21.9139
21.9139
21.9139
21.9139
21.9139
21.9139
21.9139
21.9139
21.9139
21.9139
21.9139
21.9139
21.9139
21.9139
21.9139
21.9139
21.9139
21.9139
21.9139
21.9139
21.9139
21.9139
21.9139
21.9139
21.9139
21.9139
21.9139
21.9139
21.9139
21.9139
21.9139
21.9139
21.9139
21.9139
21.9139
21.9139
21.9139
21.9139
21.9139
21.9139
21.9139
21.9139
21.9139
21.9139
21.9139
21.9139
21.9139
21.9139
21.9139
21.9139
21.9139
21.9139
21.9139
21.9139
21.9139
21.9139
21.9139
21.9139
21.9139
21.9139
21.9139
21.9139
21.9139
21.9139
21.9139
21.9139
21.9139
21.9139
21.9139
21.9139
21.9139
21.9139
21.9139
21.9139
21.9139
21.9139
21.9139
21.9139
21.9139
21.9139
21.9139
21.9139
21.9139
21.9139
21.9139
21.9139
21.9139
21.9139
21.9139
21.9139
21.9139
21.9139
21.9139
21.9139
21.9139
21.9139
21.9139
21.9139
21.9139
21.9139
21.9139
21.9139
21.9139
21.9139
21.9139
21.9139
21.9139
21.9139
21.9139
21.9139
21.9139
21.9139
21.9139
21.9139
21.9139
21.9139
21.9139
21.914
21.914
21.914
21.914
21.914
21.914
21.914
21.914
21.914
21.9141
21.9141
21.9141
21.9141
21.9141
21.9142
21.9142
21.9142
21.9142
21.9143
21.9143
21.9144
21.9144
21.9144
21.9145
21.9145
21.9146
21.9146
21.9147
21.9147
21.9147
21.9148
21.9148
21.9148
21.9149
21.9149
21.9149
21.915
21.915
21.9151
21.9152
21.9153
21.9153
21.9154
21.9154
21.9155
21.9156
21.9156
21.9157
21.9157
21.9157
21.9158
21.9158
21.9158
21.9159
21.9159
21.9159
21.9159
21.9159
21.9159
21.9159
21.9158
21.9158
21.9158
21.9157
21.9157
21.9156
21.9156
21.9155
21.9154
21.9153
21.9153
21.9152
21.9151
21.915
21.9149
21.9148
21.9147
21.9146
21.9145
21.9145
21.9144
21.9143
21.9143
21.9142
21.9142
21.9142
21.9141
21.9141
21.9141
21.914
21.914
21.914
21.914
21.914
21.914
21.9139
21.9139
21.9139
21.9139
21.9139
21.9139
21.9139
21.9139
21.9139
21.9139
21.9139
21.9139
21.9139
21.9139
21.9139
21.9139
21.9139
21.9139
21.9139
21.9139
21.9139
21.9139
21.9139
21.9139
21.9139
21.9139
21.9139
21.9139
21.9139
21.9139
21.9139
21.9139
21.9139
21.9139
21.9139
21.9139
21.9139
21.9139
21.9139
21.9139
21.9139
21.9139
21.9139
21.9139
21.9139
21.9139
21.9139
21.9139
21.9139
21.9139
21.9139
21.9139
21.9139
21.9139
21.9139
21.9139
21.9139
21.9139
21.9139
21.9139
21.9139
21.9139
21.9139
21.9139
21.9139
21.9139
21.9139
21.9139
21.9139
21.9139
21.9139
21.9139
21.9139
21.9139
21.9139
21.9139
21.9139
21.9139
21.9139
21.9139
21.9139
21.9139
21.9139
21.9139
21.9139
21.9139
21.9139
21.9139
21.9139
21.9139
21.9139
21.9139
21.9139
21.9139
21.9139
21.9139
21.9139
21.9139
21.9139
21.9139
21.9139
21.9139
21.9139
21.9139
21.9139
21.9139
21.914
21.9141
21.9141
21.9141
21.9141
21.9142
21.9142
21.9142
21.9143
21.9143
21.9144
21.9145
21.9145
21.9146
21.9147
21.9148
21.9149
21.915
21.9152
21.9153
21.9154
21.9156
21.9158
21.916
21.9162
21.9164
21.9167
21.917
21.9172
21.9175
21.9178
21.9181
21.9183
21.9186
21.9188
21.919
21.9192
21.9194
21.9196
21.9198
21.92
21.9203
21.9206
21.9209
21.9213
21.9217
21.9221
21.9225
21.9229
21.9233
21.9236
21.9239
21.9243
21.9245
21.9248
21.925
21.9252
21.9254
21.9256
21.9258
21.9259
21.9259
21.926
21.926
21.926
21.9259
21.9258
21.9256
21.9254
21.9252
21.9249
21.9245
21.9241
21.9237
21.9232
21.9227
21.9222
21.9216
21.9211
21.9205
21.9199
21.9193
21.9188
21.9183
21.9178
21.9174
21.917
21.9166
21.9163
21.916
21.9158
21.9156
21.9153
21.9151
21.9149
21.9148
21.9146
21.9145
21.9144
21.9143
21.9142
21.9142
21.9141
21.9141
21.914
21.914
21.914
21.914
21.914
21.9139
21.9139
21.9139
21.9139
21.9139
21.9139
21.9139
21.9139
21.9139
21.9139
21.9139
21.9139
21.9139
21.9139
21.9139
21.9139
21.9139
21.9139
21.9139
21.9139
21.9139
21.9139
21.9139
21.9139
21.9139
21.9139
21.9139
21.9139
21.9139
21.9139
21.9139
21.9139
21.9139
21.9139
21.9139
21.9139
21.9139
21.9139
21.9139
21.9139
21.9139
21.9139
21.9139
21.9139
21.9139
21.9139
21.9139
21.9139
21.9139
21.9139
21.9139
21.9139
21.9139
21.9139
21.9139
21.9139
21.9139
21.9139
21.9139
21.9139
21.9139
21.9139
21.9139
21.9139
21.9139
21.9139
21.9139
21.9139
21.9139
21.9139
21.9139
21.9139
21.9139
21.9139
21.9139
21.9139
21.9139
21.9139
21.9139
21.9139
21.9139
21.9139
21.9139
21.9139
21.9139
21.9139
21.9139
21.9139
21.9139
21.9139
21.9139
21.9139
21.9139
21.9139
21.9139
21.9139
21.9139
21.9139
21.9147
21.9148
21.915
21.9151
21.9153
21.9155
21.9157
21.9159
21.9162
21.9165
21.9168
21.9172
21.9177
21.9182
21.9188
21.9194
21.9201
21.9207
21.9214
21.9222
21.923
21.9239
21.9249
21.9261
21.9274
21.9288
21.9304
21.932
21.9336
21.9352
21.9368
21.9384
21.9399
21.9413
21.9426
21.9439
21.9451
21.9463
21.9475
21.9486
21.9499
21.9514
21.9533
21.9554
21.9579
21.9605
21.9631
21.9657
21.9683
21.9707
21.9729
21.975
21.977
21.9787
21.9804
21.9819
21.9833
21.9845
21.9856
21.9865
21.9873
21.9879
21.9882
21.9884
21.9883
21.988
21.9873
21.9864
21.9852
21.9837
21.9819
21.9798
21.9774
21.9748
21.9719
21.9687
21.9654
21.9619
21.9583
21.9546
21.9509
21.9473
21.9438
21.9405
21.9375
21.9349
21.9325
21.9305
21.9286
21.927
21.9254
21.924
21.9227
21.9214
21.9202
21.9192
21.9183
21.9175
21.9169
21.9164
21.916
21.9156
21.9153
21.915
21.9148
21.9146
21.9145
21.9143
21.9142
21.9142
21.9141
21.9141
21.914
21.914
21.914
21.914
21.9139
21.9139
21.9139
21.9139
21.9139
21.9139
21.9139
21.9139
21.9139
21.9139
21.9139
21.9139
21.9139
21.9139
21.9139
21.9139
21.9139
21.9139
21.9139
21.9139
21.9139
21.9139
21.9139
21.9139
21.9139
21.9139
21.9139
21.9139
21.9139
21.9139
21.9139
21.9139
21.9139
21.9139
21.9139
21.9139
21.9139
21.9139
21.9139
21.9139
21.9139
21.9139
21.9139
21.9139
21.9139
21.9139
21.9139
21.9139
21.9139
21.9139
21.9139
21.9139
21.9139
21.9139
21.9139
21.9139
21.9139
21.9139
21.9139
21.9139
21.9139
21.9139
21.9139
21.9139
21.9139
21.9139
21.9139
21.9139
21.9139
21.9139
21.9139
21.9139
21.9139
21.9139
21.9139
21.9139
21.9139
21.9139
21.9139
21.9139
21.9139
21.9139
21.9139
21.9139
21.9139
21.9139
21.9139
21.9139
21.9139
21.9139
21.9139
21.9186
21.9193
21.9201
21.9209
21.9219
21.9229
21.9241
21.9254
21.9269
21.9286
21.9307
21.933
21.9357
21.9387
21.9419
21.9454
21.949
21.9528
21.9567
21.9609
21.9656
21.971
21.9774
21.9847
21.9929
22.0018
22.0112
22.0208
22.0305
22.0401
22.0495
22.0586
22.0673
22.0756
22.0834
22.0909
22.0979
22.1047
22.1112
22.1177
22.1249
22.1333
22.1437
22.1558
22.1693
22.1837
22.1984
22.213
22.2273
22.2409
22.2538
22.2658
22.2769
22.2872
22.2966
22.3055
22.3136
22.3211
22.3278
22.3336
22.3384
22.3422
22.3449
22.3462
22.3461
22.3443
22.341
22.3361
22.3294
22.321
22.3108
22.2988
22.2849
22.2693
22.2522
22.2337
22.214
22.1932
22.1718
22.1498
22.1278
22.1065
22.0866
22.0686
22.0526
22.0384
22.0258
22.0144
22.004
21.9944
21.9853
21.9766
21.9684
21.9605
21.9532
21.9466
21.9408
21.936
21.9321
21.9289
21.9263
21.9241
21.9222
21.9206
21.9192
21.9181
21.9172
21.9166
21.916
21.9156
21.9152
21.9149
21.9147
21.9145
21.9144
21.9142
21.9142
21.9141
21.9141
21.914
21.914
21.914
21.914
21.9139
21.9139
21.9139
21.9139
21.9139
21.9139
21.9139
21.9139
21.9139
21.9139
21.9139
21.9139
21.9139
21.9139
21.9139
21.9139
21.9139
21.9139
21.9139
21.9139
21.9139
21.9139
21.9139
21.9139
21.9139
21.9139
21.9139
21.9139
21.9139
21.9139
21.9139
21.9139
21.9139
21.9139
21.9139
21.9139
21.9139
21.9139
21.9139
21.9139
21.9139
21.9139
21.9139
21.9139
21.9139
21.9139
21.9139
21.9139
21.9139
21.9139
21.9139
21.9139
21.9139
21.9139
21.9139
21.9139
21.9139
21.9139
21.9139
21.9139
21.9139
21.9139
21.9139
21.9139
21.9139
21.9139
21.9139
21.9139
21.9139
21.9139
21.9139
21.9139
21.9139
21.9139
21.9139
21.9139
21.9139
21.9139
21.9139
21.9139
21.9139
21.9139
21.9139
21.9397
21.9435
21.9478
21.9526
21.9579
21.9636
21.97
21.9771
21.9855
21.9957
22.0077
22.0218
22.0377
22.0552
22.0741
22.094
22.1147
22.136
22.158
22.1813
22.2075
22.2381
22.2739
22.3148
22.3602
22.4093
22.4609
22.5141
22.5677
22.6208
22.6727
22.7229
22.771
22.8169
22.8607
22.9024
22.9424
22.9806
23.0177
23.0546
23.0943
23.1421
23.2032
23.278
23.3626
23.4521
23.5427
23.6318
23.7177
23.7995
23.8765
23.9481
24.0143
24.0753
24.132
24.1849
24.2342
24.2796
24.3205
24.3563
24.3865
24.4109
24.4293
24.4399
24.4414
24.4338
24.4166
24.3896
24.3531
24.3067
24.2497
24.1815
24.1021
24.0116
23.9111
23.8018
23.6848
23.5607
23.431
23.2973
23.1624
23.0323
22.9125
22.8065
22.7144
22.6346
22.5644
22.501
22.4422
22.3865
22.3332
22.2818
22.2323
22.185
22.1411
22.1023
22.0698
22.0434
22.0221
22.0046
21.9897
21.9768
21.9654
21.9553
21.9467
21.9397
21.9342
21.9299
21.9265
21.9238
21.9217
21.9199
21.9185
21.9175
21.9167
21.9161
21.9156
21.9152
21.9149
21.9146
21.9145
21.9143
21.9142
21.9141
21.9141
21.914
21.914
21.914
21.914
21.9139
21.9139
21.9139
21.9139
21.9139
21.9139
21.9139
21.9139
21.9139
21.9139
21.9139
21.9139
21.9139
21.9139
21.9139
21.9139
21.9139
21.9139
21.9139
21.9139
21.9139
21.9139
21.9139
21.9139
21.9139
21.9139
21.9139
21.9139
21.9139
21.9139
21.9139
21.9139
21.9139
21.9139
21.9139
21.9139
21.9139
21.9139
21.9139
21.9139
21.9139
21.9139
21.9139
21.9139
21.9139
21.9139
21.9139
21.9139
21.9139
21.9139
21.9139
21.9139
21.9139
21.9139
21.9139
21.9139
21.9139
21.9139
21.9139
21.9139
21.9139
21.9139
21.9139
21.9139
21.9139
21.9139
21.9139
21.9139
21.9139
21.9139
21.9139
21.9139
21.9139
21.9139
21.9139
21.9139
21.9139
22.1
22.1268
22.1559
22.1874
22.2217
22.2606
22.3066
22.3618
22.4272
22.5028
22.5882
22.6822
22.7834
22.8902
23.001
23.1148
23.2313
23.3547
23.4972
23.6716
23.8818
24.1238
24.3897
24.6717
24.9628
25.2571
25.5496
25.8363
26.114
26.3803
26.6337
26.8745
27.1035
27.3215
27.5292
27.7274
27.9171
28.1019
28.2949
28.5245
28.8167
29.1673
29.5592
29.9746
30.3976
30.8159
31.2211
31.6077
31.9727
32.3132
32.6281
32.9195
33.1921
33.4496
33.6923
33.9182
34.1245
34.3075
34.464
34.5947
34.7005
34.7681
34.7806
34.7536
34.6846
34.5691
34.4051
34.1887
33.9173
33.5891
33.2026
32.7576
32.2585
31.7131
31.1258
30.4991
29.841
29.1622
28.4812
27.8471
27.2859
26.7986
26.3732
25.9945
25.6481
25.3224
25.0089
24.7021
24.3996
24.1012
23.8078
23.5219
23.2522
23.0142
22.8178
22.662
22.5388
22.4387
22.3539
22.279
22.2117
22.1522
22.1024
22.0629
22.0326
22.0091
21.9903
21.9747
21.9616
21.9508
21.9422
21.9355
21.9305
21.9267
21.9238
21.9215
21.9197
21.9183
21.9173
21.9165
21.9159
21.9154
21.9151
21.9148
21.9146
21.9144
21.9143
21.9142
21.9141
21.9141
21.914
21.914
21.914
21.914
21.914
21.9139
21.9139
21.9139
21.9139
21.9139
21.9139
21.9139
21.9139
21.9139
21.9139
21.9139
21.9139
21.9139
21.9139
21.9139
21.9139
21.9139
21.9139
21.9139
21.9139
21.9139
21.9139
21.9139
21.9139
21.9139
21.9139
21.9139
21.9139
21.9139
21.9139
21.9139
21.9139
21.9139
21.9139
21.9139
21.9139
21.9139
21.9139
21.9139
21.9139
21.9139
21.9139
21.9139
21.9139
21.9139
21.9139
21.9139
21.9139
21.9139
21.9139
21.9139
21.9139
21.9139
21.9139
21.9139
21.9139
21.9139
21.9139
21.9139
21.9139
21.9139
21.9139
21.9139
21.9139
21.9139
21.9139
21.9139
21.9139
22.8864
23.0247
23.1745
23.3358
23.511
23.7119
23.9583
24.2633
24.6289
25.0494
25.5155
26.018
26.5476
27.0953
27.6538
28.2176
28.7857
29.38
30.0661
30.8961
31.8699
32.9645
34.1502
35.3965
36.6753
37.9606
39.2319
40.4751
41.6784
42.8322
43.9338
44.9884
46.0038
46.9844
47.9325
48.8527
49.7468
50.619
51.5068
52.5646
54.185
56.3819
58.9066
61.5786
64.292
66.9877
69.629
72.1919
74.6651
77.0262
79.2551
81.3587
83.3658
85.2999
87.1577
88.9155
90.5617
92.0692
93.3859
94.5227
95.5368
96.3371
96.7619
96.8132
96.4809
95.8918
95.0466
93.8496
92.2314
90.1877
87.7156
84.8077
81.4916
77.8585
73.9665
69.7753
65.3434
60.7806
56.1726
52.2809
49.1547
46.6404
44.5558
42.742
41.0792
39.4895
37.9287
36.3771
34.8315
33.2969
31.7815
30.2998
28.9116
27.7334
26.799
26.0651
25.4682
24.9572
24.499
24.0748
23.6779
23.3172
23.0131
22.775
22.5959
22.4603
22.353
22.2636
22.1878
22.1252
22.0764
22.0398
22.0125
21.9913
21.9743
21.9604
21.9492
21.9405
21.9341
21.9294
21.9258
21.923
21.9209
21.9192
21.918
21.917
21.9164
21.9158
21.9154
21.9151
21.9148
21.9146
21.9145
21.9144
21.9143
21.9142
21.9142
21.9141
21.9141
21.9141
21.9141
21.914
21.914
21.914
21.914
21.914
21.914
21.914
21.914
21.914
21.914
21.914
21.914
21.9139
21.9139
21.9139
21.9139
21.9139
21.9139
21.9139
21.9139
21.9139
21.9139
21.9139
21.9139
21.9139
21.9139
21.914
21.914
21.914
21.914
21.914
21.914
21.914
21.9141
21.9141
21.9141
21.9141
21.9141
21.9141
21.9141
21.9141
21.9141
21.9141
21.9141
21.914
21.914
21.914
21.914
21.914
21.9139
21.9139
21.9139
21.9139
21.9139
21.9139
21.9139
21.9139
21.9139
21.9139
21.9139
26.8733
27.5591
28.2865
29.0519
29.8687
30.7949
31.921
33.279
34.8614
36.6431
38.5915
40.6714
42.8481
45.0893
47.3689
49.668
51.9769
54.3286
57.3805
61.8145
67.4234
73.8496
80.8231
88.1731
95.7922
103.575
111.411
119.223
126.944
134.499
141.842
148.95
155.853
162.563
169.031
175.213
181.077
186.639
191.979
196.971
201.276
205.168
208.92
212.503
215.849
218.975
221.846
224.41
226.722
228.771
230.536
232.072
233.489
234.879
236.222
237.404
238.424
239.291
239.976
240.589
241.067
241.216
241
240.578
240.159
239.47
238.469
237.081
235.448
233.609
231.418
228.823
225.787
222.365
218.555
214.189
209.567
204.465
198.613
191.603
183.722
175.105
165.885
156.238
146.214
135.866
125.22
114.256
103.117
91.9405
80.8804
70.0522
59.9186
52.2061
46.8272
43.0039
40.0486
37.5384
35.2583
33.1112
31.0736
29.2221
27.7135
26.5759
25.7224
25.0486
24.4804
23.9771
23.5275
23.1473
22.8518
22.6353
22.4775
22.3573
22.2601
22.1799
22.1158
22.0675
22.0323
22.0062
21.9861
21.9699
21.9567
21.9463
21.9385
21.9328
21.9286
21.9254
21.923
21.921
21.9195
21.9183
21.9174
21.9167
21.9163
21.9159
21.9156
21.9154
21.9152
21.915
21.9149
21.9148
21.9147
21.9146
21.9145
21.9144
21.9144
21.9144
21.9143
21.9143
21.9143
21.9143
21.9142
21.9142
21.9142
21.9142
21.9142
21.9142
21.9142
21.9142
21.9142
21.9142
21.9142
21.9142
21.9142
21.9142
21.9143
21.9143
21.9144
21.9145
21.9146
21.9148
21.9149
21.915
21.9151
21.9152
21.9153
21.9154
21.9155
21.9156
21.9156
21.9155
21.9155
21.9154
21.9152
21.9151
21.9149
21.9148
21.9147
21.9145
21.9143
21.914
21.914
21.914
21.914
21.914
21.914
21.9141
21.9141
21.9141
46.0369
48.8415
51.788
54.881
58.4603
63.7602
70.8713
79.4896
89.2997
100.061
111.603
123.783
136.421
149.382
162.595
175.89
189.215
201.88
213.187
223.365
232.596
240.89
248.259
254.748
260.391
265.302
269.651
273.481
276.734
279.644
282.377
285.062
287.674
290.116
292.41
294.519
296.465
298.156
299.643
300.984
302.052
302.756
303.347
303.915
304.234
304.368
304.494
304.569
304.611
304.662
304.703
304.667
304.517
304.264
303.915
303.418
302.878
302.429
301.922
301.123
300.31
299.366
298.181
297.181
296.331
295.475
294.816
294.068
292.733
291.16
290.022
289.026
287.635
286.419
285.724
284.562
282.46
280.586
279.119
277.065
273.947
269.716
264.643
258.819
252.609
246.127
239.562
232.899
225.876
218.249
209.436
199.185
186.704
172.235
156.488
140.137
123.687
107.422
91.504
76.1514
62.2414
52.1388
45.5553
41.139
37.8345
35.0583
32.5508
30.2707
28.3651
26.9385
25.9086
25.1312
24.4979
23.9507
23.4747
23.0866
22.7967
22.5906
22.4418
22.3276
22.2347
22.1589
22.0999
22.0566
22.0254
22.0024
21.9845
21.9698
21.9577
21.9479
21.9404
21.935
21.9311
21.9283
21.9262
21.9245
21.9231
21.9219
21.9209
21.9201
21.9193
21.9187
21.9182
21.9177
21.9174
21.9171
21.9169
21.9167
21.9166
21.9164
21.9163
21.9162
21.9161
21.9161
21.916
21.9159
21.9159
21.9158
21.9158
21.9158
21.9158
21.9159
21.9159
21.9161
21.9163
21.9167
21.9172
21.9178
21.9186
21.9194
21.9203
21.9213
21.9222
21.9231
21.9241
21.9251
21.9261
21.9271
21.9278
21.928
21.9279
21.9274
21.9265
21.9254
21.924
21.9227
21.9215
21.9204
21.9194
21.9176
21.9143
21.9143
132.957
147.663
163.032
178.895
194.98
210.052
224.07
237.19
249.436
260.733
270.998
280.12
288.051
294.909
300.779
305.48
309.257
312.486
315.47
318.226
320.758
323.097
325.17
326.842
328.057
328.868
329.314
329.495
329.356
328.878
328.338
327.54
326.603
325.909
325.142
324.02
323.135
322.545
322.056
321.216
320.463
319.973
319.504
318.793
317.831
317.168
316.593
315.768
314.943
314.366
313.785
312.934
312.182
311.567
311.07
310.308
309.487
308.9
308.136
307.18
306.368
305.445
304.226
303.129
302.265
301.481
300.871
300.293
299.053
297.588
296.532
295.593
294.601
293.695
293.039
292.448
291.653
290.832
289.996
288.971
287.879
286.803
285.635
284.749
283.576
282.028
280.794
279.305
277.555
275.533
273.511
271.368
268.218
263.436
257.069
249.182
240.707
231.994
222.797
212.454
200.132
184.54
166.215
146.447
126.272
106.426
87.437
69.9074
56.1544
47.3958
41.9417
38.1461
35.0922
32.3953
30.0011
28.0766
26.6858
25.6964
24.9473
24.3326
23.8014
23.3477
22.9906
22.7329
22.5529
22.4225
22.321
22.237
22.1666
22.1104
22.0687
22.0392
22.0182
22.0026
21.9903
21.9802
21.9716
21.9644
21.9581
21.9528
21.9482
21.9442
21.9408
21.9379
21.9357
21.934
21.9327
21.9317
21.9308
21.9302
21.9295
21.929
21.9285
21.928
21.9276
21.9273
21.927
21.9268
21.9267
21.9268
21.927
21.9273
21.9279
21.9291
21.9311
21.9342
21.9383
21.9435
21.9496
21.9563
21.9633
21.9704
21.9773
21.9842
21.9918
22.0002
22.0089
22.0169
22.0232
22.026
22.0254
22.022
22.0156
22.0065
21.9962
21.9859
21.9767
21.9686
21.9609
21.9469
286.17
295.681
304.093
311.496
317.718
322.579
326.36
329.55
332.609
335.538
338.16
340.429
342.372
343.909
345.11
345.904
346.04
345.639
345.128
344.318
343.301
342.276
341.273
340.322
339.473
338.579
337.576
336.555
335.478
334.384
333.427
332.24
331.04
330.253
329.383
328.142
327.105
326.458
325.938
324.957
324.028
323.473
322.935
322.062
320.932
320.222
319.578
318.69
317.824
317.257
316.592
315.623
314.807
314.211
313.732
312.833
311.95
311.333
310.44
309.489
308.74
307.844
306.614
305.47
304.596
303.832
303.223
302.726
301.572
300.141
299.041
298.123
297.259
296.415
295.692
295.23
294.745
294.107
293.338
292.452
291.589
290.843
290.098
289.514
288.401
287.052
285.977
285.139
283.713
282.242
281.266
280.427
279.883
279.369
278.479
277.874
276.853
275.004
272.415
269.391
266.03
261.734
255.58
248.073
239.872
230.934
220.519
208.018
192.22
172.673
150.854
128.339
106.345
85.7521
67.4394
54.0247
45.9045
40.8741
37.2691
34.2914
31.6538
29.3716
27.6229
26.3991
25.5308
24.8638
24.3085
23.8243
23.4024
23.06
22.8099
22.6388
22.5203
22.4328
22.3632
22.3051
22.2555
22.2131
22.1766
22.1454
22.1186
22.0956
22.076
22.0601
22.048
22.0389
22.032
22.0266
22.0221
22.0183
22.015
22.0119
22.0092
22.0067
22.0045
22.0026
22.0012
22.0005
22.0006
22.0012
22.0026
22.0055
22.0107
22.02
22.0352
22.0576
22.0879
22.1258
22.17
22.2186
22.2694
22.3205
22.37
22.4205
22.4829
22.5611
22.6471
22.7283
22.7942
22.8318