/*--------------------------------*- C++ -*----------------------------------*\
| =========                 |                                                 |
| \\      /  F ield         | OpenFOAM: The Open Source CFD Toolbox           |
|  \\    /   O peration     | Version:  v1706                                 |
|   \\  /    A nd           | Web:      www.OpenFOAM.com                      |
|    \\/     M anipulation  |                                                 |
\*---------------------------------------------------------------------------*/
FoamFile
{
    version     2.0;
    format      ascii;
    class       volScalarField;
    location    "3.1e-05";
    object      Tov;
}
// * * * * * * * * * * * * * * * * * * * * * * * * * * * * * * * * * * * * * //

dimensions      [0 0 0 1 0 0 0];


internalField   nonuniform List<scalar> 
30104
(
144.4
144.4
144.4
144.4
144.4
144.4
144.4
144.4
144.4
144.4
144.4
144.4
144.4
144.4
144.4
144.4
144.4
144.4
144.4
144.4
144.4
144.4
144.4
144.4
144.4
144.4
144.4
144.4
144.4
144.4
144.4
144.4
144.4
144.4
144.4
144.4
144.4
144.4
144.4
144.4
144.4
144.4
144.4
144.4
144.4
144.4
144.4
144.4
144.4
144.4
144.4
144.4
144.4
144.4
144.4
144.4
144.4
144.4
144.4
144.4
144.4
144.4
144.4
144.4
144.4
144.4
144.4
144.4
144.4
144.4
144.4
144.4
144.4
144.4
144.4
144.4
144.4
144.4
144.4
144.4
144.4
144.4
144.4
144.4
144.4
144.4
144.4
144.4
144.4
144.4
144.4
144.4
144.4
144.4
144.4
144.4
144.4
144.4
144.4
144.4
144.4
144.4
144.4
144.4
144.4
144.4
144.4
144.4
144.4
144.4
144.4
144.4
144.4
144.4
144.4
144.4
144.4
144.4
144.4
144.4
144.4
144.4
144.4
144.4
144.4
144.4
144.4
144.4
144.4
144.4
144.4
144.4
144.4
144.4
144.4
144.4
144.4
144.4
144.4
144.4
144.4
144.4
144.4
144.4
144.4
144.4
144.4
144.4
144.4
144.4
144.4
144.4
144.4
144.4
144.4
144.4
144.4
144.4
144.4
144.4
144.4
144.4
144.4
144.4
144.4
144.4
144.4
144.4
144.4
144.4
144.4
144.4
144.4
144.4
144.4
144.4
144.4
144.4
144.4
144.4
144.4
144.4
144.4
144.4
144.4
144.4
144.4
144.4
144.4
144.4
144.4
144.4
144.4
144.4
144.4
144.4
144.4
144.4
144.4
144.4
144.4
144.4
144.4
144.4
144.4
144.4
144.4
144.4
144.4
144.4
144.4
144.4
144.4
144.4
144.4
144.4
144.4
144.4
144.4
144.4
144.4
144.4
144.4
144.4
144.4
144.4
144.4
144.4
144.4
144.4
144.4
144.4
144.4
144.4
144.4
144.4
144.4
144.4
144.4
144.4
144.4
144.4
144.4
144.4
144.4
144.4
144.4
144.4
144.4
144.4
144.4
144.4
144.4
144.4
144.4
144.4
144.4
144.4
144.4
144.4
144.4
144.4
144.4
144.4
144.4
144.4
144.4
144.4
144.4
144.4
144.4
144.4
144.4
144.4
144.4
144.4
144.4
144.4
144.4
144.4
144.4
144.4
144.4
144.4
144.4
144.4
144.4
144.4
144.4
144.4
144.4
144.4
144.4
144.4
144.4
144.4
144.4
144.4
144.4
144.4
144.4
144.4
144.4
144.4
144.4
144.4
144.4
144.4
144.4
144.4
144.4
144.4
144.4
144.4
144.4
144.4
144.4
144.4
144.4
144.4
144.4
144.4
144.4
144.4
144.4
144.4
144.4
144.4
144.4
144.4
144.4
144.4
144.4
144.4
144.4
144.4
144.4
144.4
144.4
144.4
144.4
144.4
144.4
144.4
144.4
144.4
144.4
144.4
144.4
144.4
144.4
144.4
144.4
144.4
144.4
144.4
144.4
144.4
144.4
144.4
144.4
144.4
144.4
144.4
144.4
144.4
144.4
144.4
144.4
144.4
144.4
144.4
144.4
144.4
144.4
144.4
144.4
144.4
144.4
144.4
144.4
144.4
144.4
144.4
144.4
144.4
144.4
144.4
144.4
144.4
144.4
144.4
144.4
144.4
144.4
144.4
144.4
144.4
144.4
144.4
144.4
144.4
144.4
144.4
144.4
144.4
144.4
144.4
144.4
144.4
144.4
144.4
144.4
144.4
144.4
144.4
144.4
144.4
144.4
144.4
144.4
144.4
144.4
144.4
144.4
144.4
144.4
144.4
144.4
144.4
144.4
144.4
144.4
144.4
144.4
144.4
144.4
144.4
144.4
144.4
144.4
144.4
144.4
144.4
144.4
144.4
144.4
144.4
144.4
144.4
144.4
144.4
144.4
144.4
144.4
144.4
144.4
144.4
144.4
144.4
144.4
144.4
144.4
144.4
144.4
144.4
144.4
144.4
144.4
144.4
144.4
144.4
144.4
144.4
144.4
144.4
144.4
144.4
144.4
144.4
144.4
144.4
144.4
144.4
144.4
144.4
144.4
144.4
144.4
144.4
144.4
144.4
144.4
144.4
144.4
144.4
144.4
144.4
144.4
144.4
144.4
144.4
144.4
144.4
144.4
144.4
144.4
144.4
144.4
144.4
144.4
144.4
144.4
144.4
144.4
144.4
144.4
144.4
144.4
144.4
144.4
144.4
144.4
144.4
144.4
144.4
144.4
144.4
144.4
144.4
144.4
144.4
144.4
144.4
144.4
144.4
144.4
144.4
144.4
144.4
144.4
144.4
144.4
144.4
144.4
144.4
144.4
144.4
144.4
144.4
144.4
144.4
144.4
144.4
144.4
144.4
144.4
144.4
144.4
144.4
144.4
144.4
144.4
144.4
144.4
144.4
144.4
144.4
144.4
144.4
144.4
144.4
144.4
144.4
144.4
144.4
144.4
144.4
144.4
144.4
144.4
144.4
144.4
144.4
144.4
144.4
144.4
144.4
144.4
144.4
144.4
144.4
144.4
144.4
144.4
144.4
144.4
144.4
144.4
144.4
144.4
144.4
144.4
144.4
144.4
144.4
144.4
144.4
144.4
144.4
144.4
144.4
144.4
144.4
144.4
144.4
144.4
144.4
144.4
144.4
144.4
144.4
144.4
144.4
144.4
144.4
144.4
144.4
144.4
144.4
144.4
144.4
144.4
144.4
144.4
144.4
144.4
144.4
144.4
144.4
144.4
144.4
144.4
144.4
144.4
144.4
144.4
144.4
144.4
144.4
144.4
144.4
144.4
144.4
144.4
144.4
144.4
144.4
144.4
144.4
144.4
144.4
144.4
144.4
144.4
144.4
144.4
144.4
144.4
144.4
144.4
144.4
144.4
144.4
144.4
144.4
144.4
144.4
144.4
144.4
144.4
144.4
144.4
144.4
144.4
144.4
144.4
144.4
144.4
144.4
144.4
144.4
144.4
144.4
144.4
144.4
144.4
144.4
144.4
144.4
144.4
144.4
144.4
144.4
144.4
144.4
144.4
144.4
144.4
144.4
144.4
144.4
144.4
144.4
144.4
144.4
144.4
144.4
144.4
144.4
144.4
144.4
144.4
144.4
144.4
144.4
144.4
144.4
144.4
144.4
144.4
144.4
144.4
144.4
144.4
144.4
144.4
144.4
144.4
144.4
144.4
144.4
144.4
144.4
144.4
144.4
144.4
144.4
144.4
144.4
144.4
144.4
144.4
144.4
144.4
144.4
144.4
144.4
144.4
144.4
144.4
144.4
144.4
144.4
144.4
144.4
144.4
144.4
144.4
144.4
144.4
144.4
144.4
144.4
144.4
144.4
144.4
144.4
144.4
144.4
144.4
144.4
144.4
144.4
144.4
144.4
144.4
144.4
144.4
144.4
144.4
144.4
144.4
144.4
144.4
144.4
144.4
144.4
144.4
144.4
144.4
144.4
144.4
144.4
144.4
144.4
144.4
144.4
144.4
144.4
144.4
144.4
144.4
144.4
144.4
144.4
144.4
144.4
144.4
144.4
144.4
144.4
144.4
144.4
144.4
144.4
144.4
144.4
144.4
144.4
144.4
144.4
144.4
144.4
144.4
144.4
144.4
144.4
144.4
144.4
144.4
144.4
144.4
144.4
144.4
144.4
144.4
144.4
144.4
144.4
144.4
144.4
144.4
144.4
144.4
144.4
144.4
144.4
144.4
144.4
144.4
144.4
144.4
144.4
144.4
144.4
144.4
144.4
144.4
144.4
144.4
144.4
144.4
144.4
144.4
144.4
144.4
144.4
144.4
144.4
144.4
144.4
144.4
144.4
144.4
144.4
144.4
144.4
144.4
144.4
144.4
144.4
144.4
144.4
144.4
144.4
144.4
144.4
144.4
144.4
144.4
144.4
144.4
144.4
144.4
144.4
144.4
144.4
144.4
144.4
144.4
144.4
144.4
144.4
144.4
144.4
144.4
144.4
144.4
144.4
144.4
144.4
144.4
144.4
144.4
144.4
144.4
144.4
144.4
144.4
144.4
144.4
144.4
144.4
144.4
144.4
144.4
144.4
144.4
144.4
144.4
144.4
144.4
144.4
144.4
144.4
144.4
144.4
144.4
144.4
144.4
144.4
144.4
144.4
144.4
144.4
144.4
144.4
144.4
144.4
144.4
144.4
144.4
144.4
144.4
144.4
144.4
144.4
144.4
144.4
144.4
144.4
144.4
144.4
144.4
144.4
144.4
144.4
144.4
144.4
144.4
144.4
144.4
144.4
144.4
144.4
144.4
144.4
144.4
144.4
144.4
144.4
144.4
144.4
144.4
144.4
144.4
144.4
144.4
144.4
144.4
144.4
144.4
144.4
144.4
144.4
144.4
144.4
144.4
144.4
144.4
144.4
144.4
144.4
144.4
144.4
144.4
144.4
144.4
144.4
144.4
144.4
144.4
144.4
144.4
144.4
144.4
144.4
144.4
144.4
144.4
144.4
144.4
144.4
144.4
144.4
144.4
144.4
144.4
144.4
144.4
144.4
144.4
144.4
144.4
144.4
144.4
144.4
144.4
144.4
144.4
144.4
144.4
144.4
144.4
144.4
144.4
144.4
144.4
144.4
144.4
144.4
144.4
144.4
144.4
144.4
144.4
144.4
144.4
144.4
144.4
144.4
144.4
144.4
144.4
144.4
144.4
144.4
144.4
144.4
144.4
144.4
144.4
144.4
144.4
144.4
144.4
144.4
144.4
144.4
144.4
144.4
144.4
144.4
144.4
144.4
144.4
144.4
144.4
144.4
144.4
144.4
144.4
144.4
144.4
144.4
144.4
144.4
144.4
144.4
144.4
144.4
144.4
144.4
144.4
144.4
144.4
144.4
144.4
144.4
144.4
144.4
144.4
144.4
144.4
144.4
144.4
144.4
144.4
144.4
144.4
144.4
144.4
144.4
144.4
144.4
144.4
144.4
144.4
144.4
144.4
144.4
144.4
144.4
144.4
144.4
144.4
144.4
144.4
144.4
144.4
144.4
144.4
144.4
144.4
144.4
144.4
144.4
144.4
144.4
144.4
144.4
144.4
144.4
144.4
144.4
144.4
144.4
144.4
144.4
144.4
144.4
144.4
144.4
144.4
144.4
144.4
144.4
144.4
144.4
144.4
144.4
144.4
144.4
144.4
144.4
144.4
144.4
144.4
144.4
144.4
144.4
144.4
144.4
144.4
144.4
144.4
144.4
144.4
144.4
144.4
144.4
144.4
144.4
144.4
144.4
144.4
144.4
144.4
144.4
144.4
144.4
144.4
144.4
144.4
144.4
144.4
144.4
144.4
144.4
144.4
144.4
144.4
144.4
144.4
144.4
144.4
144.4
144.4
144.4
144.4
144.4
144.4
144.4
144.4
144.4
144.4
144.4
144.4
144.4
144.4
144.4
144.4
144.4
144.4
144.4
144.4
144.4
144.4
144.4
144.4
144.4
144.4
144.4
144.4
144.4
144.4
144.4
144.4
144.4
144.4
144.4
144.4
144.4
144.4
144.4
144.4
144.4
144.4
144.4
144.4
144.4
144.4
144.4
144.4
144.4
144.4
144.4
144.4
144.4
144.4
144.4
144.4
144.4
144.4
144.4
144.4
144.4
144.4
144.4
144.4
144.4
144.4
144.4
144.4
144.4
144.4
144.4
144.401
144.401
144.401
144.401
144.401
144.401
144.401
144.401
144.401
144.401
144.401
144.401
144.401
144.401
144.401
144.401
144.401
144.401
144.401
144.401
144.401
144.401
144.401
144.401
144.401
144.401
144.402
144.402
144.402
144.402
144.402
144.402
144.402
144.402
144.402
144.402
144.402
144.402
144.401
144.401
144.401
144.401
144.401
144.401
144.401
144.401
144.401
144.401
144.401
144.401
144.401
144.401
144.401
144.401
144.4
144.4
144.4
144.4
144.4
144.4
144.4
144.4
144.4
144.4
144.4
144.4
144.4
144.4
144.4
144.4
144.4
144.4
144.4
144.4
144.4
144.4
144.4
144.4
144.4
144.4
144.4
144.4
144.4
144.4
144.4
144.4
144.4
144.4
144.4
144.4
144.4
144.4
144.4
144.4
144.4
144.4
144.4
144.4
144.4
144.4
144.4
144.4
144.4
144.4
144.4
144.4
144.4
144.4
144.4
144.4
144.4
144.4
144.4
144.4
144.4
144.4
144.4
144.4
144.4
144.4
144.4
144.4
144.4
144.4
144.4
144.4
144.4
144.4
144.4
144.4
144.4
144.4
144.4
144.4
144.4
144.4
144.4
144.4
144.4
144.4
144.4
144.4
144.4
144.4
144.4
144.4
144.4
144.4
144.4
144.4
144.4
144.4
144.4
144.4
144.4
144.4
144.4
144.4
144.4
144.4
144.4
144.4
144.4
144.4
144.4
144.4
144.4
144.4
144.4
144.4
144.4
144.4
144.4
144.4
144.4
144.4
144.4
144.4
144.4
144.4
144.4
144.4
144.4
144.4
144.4
144.4
144.4
144.401
144.401
144.401
144.401
144.401
144.401
144.401
144.401
144.401
144.401
144.401
144.402
144.402
144.402
144.402
144.402
144.403
144.403
144.403
144.403
144.404
144.404
144.404
144.404
144.404
144.405
144.405
144.405
144.405
144.405
144.405
144.406
144.406
144.406
144.407
144.407
144.407
144.408
144.408
144.408
144.409
144.409
144.409
144.409
144.409
144.41
144.41
144.41
144.41
144.41
144.41
144.41
144.41
144.41
144.41
144.41
144.41
144.41
144.409
144.409
144.409
144.408
144.408
144.408
144.407
144.407
144.406
144.406
144.405
144.405
144.404
144.404
144.404
144.403
144.403
144.402
144.402
144.402
144.402
144.401
144.401
144.401
144.401
144.401
144.401
144.401
144.4
144.4
144.4
144.4
144.4
144.4
144.4
144.4
144.4
144.4
144.4
144.4
144.4
144.4
144.4
144.4
144.4
144.4
144.4
144.4
144.4
144.4
144.4
144.4
144.4
144.4
144.4
144.4
144.4
144.4
144.4
144.4
144.4
144.4
144.4
144.4
144.4
144.4
144.4
144.4
144.4
144.4
144.4
144.4
144.4
144.4
144.4
144.4
144.4
144.4
144.4
144.4
144.4
144.4
144.4
144.4
144.4
144.4
144.4
144.4
144.4
144.4
144.4
144.4
144.4
144.4
144.4
144.4
144.4
144.4
144.4
144.4
144.4
144.4
144.4
144.4
144.4
144.4
144.4
144.4
144.4
144.4
144.4
144.4
144.4
144.4
144.4
144.4
144.4
144.4
144.4
144.4
144.4
144.4
144.4
144.4
144.4
144.4
144.4
144.4
144.4
144.4
144.4
144.4
144.4
144.4
144.4
144.4
144.4
144.4
144.401
144.401
144.401
144.401
144.401
144.401
144.402
144.402
144.402
144.402
144.403
144.403
144.403
144.404
144.404
144.405
144.406
144.406
144.407
144.407
144.408
144.409
144.41
144.411
144.412
144.413
144.415
144.416
144.418
144.419
144.42
144.422
144.423
144.424
144.426
144.427
144.428
144.429
144.43
144.431
144.432
144.433
144.435
144.437
144.439
144.441
144.443
144.445
144.447
144.449
144.451
144.453
144.454
144.456
144.457
144.458
144.459
144.46
144.461
144.462
144.462
144.463
144.463
144.463
144.463
144.462
144.462
144.461
144.46
144.458
144.457
144.455
144.453
144.45
144.448
144.445
144.442
144.44
144.437
144.434
144.43
144.427
144.425
144.422
144.419
144.417
144.415
144.414
144.412
144.411
144.409
144.408
144.407
144.406
144.405
144.404
144.404
144.403
144.402
144.402
144.402
144.401
144.401
144.401
144.401
144.401
144.4
144.4
144.4
144.4
144.4
144.4
144.4
144.4
144.4
144.4
144.4
144.4
144.4
144.4
144.4
144.4
144.4
144.4
144.4
144.4
144.4
144.4
144.4
144.4
144.4
144.4
144.4
144.4
144.4
144.4
144.4
144.4
144.4
144.4
144.4
144.4
144.4
144.4
144.4
144.4
144.4
144.4
144.4
144.4
144.4
144.4
144.4
144.4
144.4
144.4
144.4
144.4
144.4
144.4
144.4
144.4
144.4
144.4
144.4
144.4
144.4
144.4
144.4
144.4
144.4
144.4
144.4
144.4
144.4
144.4
144.4
144.4
144.4
144.4
144.4
144.4
144.4
144.4
144.4
144.4
144.4
144.4
144.4
144.4
144.4
144.4
144.4
144.4
144.4
144.4
144.4
144.4
144.4
144.4
144.4
144.4
144.4
144.4
144.4
144.4
144.4
144.404
144.405
144.406
144.407
144.407
144.408
144.41
144.411
144.412
144.414
144.416
144.418
144.42
144.423
144.426
144.429
144.433
144.436
144.44
144.444
144.448
144.453
144.459
144.465
144.472
144.48
144.488
144.497
144.505
144.514
144.522
144.531
144.538
144.546
144.553
144.56
144.566
144.572
144.578
144.584
144.59
144.598
144.607
144.619
144.631
144.644
144.658
144.671
144.684
144.696
144.708
144.718
144.728
144.737
144.745
144.753
144.76
144.766
144.771
144.776
144.78
144.782
144.784
144.784
144.784
144.782
144.778
144.773
144.766
144.758
144.749
144.738
144.725
144.711
144.696
144.679
144.662
144.644
144.625
144.606
144.586
144.568
144.55
144.533
144.518
144.505
144.494
144.483
144.474
144.466
144.458
144.451
144.444
144.438
144.432
144.427
144.422
144.418
144.415
144.412
144.41
144.408
144.407
144.405
144.404
144.403
144.403
144.402
144.402
144.401
144.401
144.401
144.401
144.4
144.4
144.4
144.4
144.4
144.4
144.4
144.4
144.4
144.4
144.4
144.4
144.4
144.4
144.4
144.4
144.4
144.4
144.4
144.4
144.4
144.4
144.4
144.4
144.4
144.4
144.4
144.4
144.4
144.4
144.4
144.4
144.4
144.4
144.4
144.4
144.4
144.4
144.4
144.4
144.4
144.4
144.4
144.4
144.4
144.4
144.4
144.4
144.4
144.4
144.4
144.4
144.4
144.4
144.4
144.4
144.4
144.4
144.4
144.4
144.4
144.4
144.4
144.4
144.4
144.4
144.4
144.4
144.4
144.4
144.4
144.4
144.4
144.4
144.4
144.4
144.4
144.4
144.4
144.4
144.4
144.4
144.4
144.4
144.4
144.4
144.4
144.4
144.4
144.4
144.4
144.4
144.4
144.4
144.425
144.429
144.433
144.438
144.443
144.448
144.455
144.462
144.47
144.479
144.49
144.503
144.518
144.534
144.551
144.57
144.59
144.61
144.631
144.653
144.678
144.707
144.741
144.78
144.823
144.87
144.92
144.97
145.022
145.072
145.122
145.169
145.215
145.258
145.299
145.338
145.374
145.409
145.443
145.477
145.515
145.559
145.614
145.68
145.754
145.832
145.912
145.991
146.067
146.14
146.208
146.271
146.329
146.382
146.431
146.477
146.519
146.557
146.591
146.62
146.644
146.662
146.675
146.68
146.678
146.667
146.647
146.619
146.582
146.536
146.481
146.416
146.341
146.258
146.166
146.067
145.961
145.851
145.736
145.619
145.502
145.389
145.283
145.188
145.104
145.031
144.966
144.908
144.856
144.806
144.76
144.716
144.673
144.633
144.596
144.562
144.533
144.51
144.49
144.475
144.462
144.451
144.442
144.434
144.427
144.421
144.416
144.413
144.41
144.408
144.406
144.405
144.404
144.403
144.402
144.402
144.401
144.401
144.401
144.401
144.4
144.4
144.4
144.4
144.4
144.4
144.4
144.4
144.4
144.4
144.4
144.4
144.4
144.4
144.4
144.4
144.4
144.4
144.4
144.4
144.4
144.4
144.4
144.4
144.4
144.4
144.4
144.4
144.4
144.4
144.4
144.4
144.4
144.4
144.4
144.4
144.4
144.4
144.4
144.4
144.4
144.4
144.4
144.4
144.4
144.4
144.4
144.4
144.4
144.4
144.4
144.4
144.4
144.4
144.4
144.4
144.4
144.4
144.4
144.4
144.4
144.4
144.4
144.4
144.4
144.4
144.4
144.4
144.4
144.4
144.4
144.4
144.4
144.4
144.4
144.4
144.4
144.4
144.4
144.4
144.4
144.4
144.4
144.4
144.4
144.4
144.54
144.561
144.584
144.611
144.639
144.67
144.705
144.743
144.789
144.843
144.908
144.983
145.068
145.162
145.263
145.37
145.481
145.594
145.712
145.836
145.977
146.143
146.34
146.566
146.817
147.087
147.368
147.656
147.944
148.227
148.503
148.768
149.021
149.261
149.489
149.706
149.913
150.11
150.299
150.488
150.69
150.933
151.241
151.617
152.043
152.493
152.949
153.396
153.826
154.233
154.615
154.969
155.295
155.594
155.871
156.129
156.368
156.588
156.785
156.956
157.098
157.211
157.294
157.337
157.334
157.284
157.185
157.039
156.845
156.601
156.303
155.948
155.537
155.069
154.551
153.989
153.387
152.751
152.085
151.401
150.715
150.058
149.46
148.936
148.482
148.088
147.738
147.42
147.122
146.838
146.564
146.298
146.04
145.793
145.563
145.359
145.189
145.052
144.942
144.853
144.779
144.714
144.656
144.605
144.562
144.527
144.5
144.479
144.463
144.45
144.439
144.43
144.423
144.418
144.414
144.41
144.408
144.406
144.405
144.404
144.403
144.402
144.402
144.401
144.401
144.401
144.401
144.4
144.4
144.4
144.4
144.4
144.4
144.4
144.4
144.4
144.4
144.4
144.4
144.4
144.4
144.4
144.4
144.4
144.4
144.4
144.4
144.4
144.4
144.4
144.4
144.4
144.4
144.4
144.4
144.4
144.4
144.4
144.4
144.4
144.4
144.4
144.4
144.4
144.4
144.4
144.4
144.4
144.4
144.4
144.4
144.4
144.4
144.4
144.4
144.4
144.4
144.4
144.4
144.4
144.4
144.4
144.4
144.4
144.4
144.4
144.4
144.4
144.4
144.4
144.4
144.4
144.4
144.4
144.4
144.4
144.4
144.4
144.4
144.4
144.4
144.4
144.4
144.4
144.4
144.4
145.409
145.553
145.71
145.879
146.064
146.275
146.526
146.83
147.192
147.611
148.082
148.598
149.149
149.726
150.32
150.925
151.543
152.198
152.952
153.865
154.957
156.206
157.574
159.018
160.5
161.989
163.459
164.89
166.267
167.578
168.82
169.993
171.104
172.158
173.159
174.11
175.018
175.901
176.82
177.91
179.334
181.092
183.062
185.118
187.17
189.161
191.057
192.841
194.504
196.037
197.437
198.717
199.9
201.005
202.037
202.985
203.84
204.587
205.21
205.716
206.116
206.35
206.353
206.17
205.786
205.207
204.434
203.442
202.207
200.715
198.956
196.923
194.633
192.115
189.387
186.447
183.322
180.057
176.743
173.646
170.912
168.555
166.513
164.699
163.034
161.453
159.914
158.392
156.879
155.377
153.895
152.449
151.091
149.903
148.935
148.174
147.572
147.077
146.651
146.27
145.924
145.615
145.356
145.15
144.993
144.874
144.78
144.702
144.636
144.582
144.539
144.507
144.482
144.464
144.449
144.438
144.429
144.422
144.417
144.413
144.41
144.407
144.406
144.404
144.403
144.403
144.402
144.402
144.401
144.401
144.401
144.401
144.4
144.4
144.4
144.4
144.4
144.4
144.4
144.4
144.4
144.4
144.4
144.4
144.4
144.4
144.4
144.4
144.4
144.4
144.4
144.4
144.4
144.4
144.4
144.4
144.4
144.4
144.4
144.4
144.4
144.4
144.4
144.4
144.4
144.4
144.4
144.4
144.4
144.4
144.4
144.4
144.4
144.4
144.4
144.4
144.4
144.4
144.4
144.4
144.4
144.4
144.4
144.4
144.4
144.4
144.4
144.4
144.4
144.4
144.4
144.4
144.4
144.4
144.4
144.4
144.4
144.4
144.4
144.4
144.4
144.4
144.4
149.727
150.481
151.291
152.157
153.095
154.167
155.471
157.069
158.97
161.141
163.533
166.09
168.761
171.499
174.263
177.025
179.785
182.651
185.982
190.077
194.898
200.232
205.85
211.564
217.235
222.759
228.059
233.092
237.827
242.243
246.346
250.17
253.757
257.135
260.317
263.318
266.151
268.845
271.52
274.551
278.878
284.396
290.404
296.449
302.278
307.77
312.872
317.567
321.87
325.768
329.262
332.406
335.283
337.955
340.437
342.696
344.721
346.484
347.92
349.076
350.064
350.679
350.622
350.219
349.275
347.936
346.223
343.991
341.125
337.587
333.322
328.262
322.383
315.763
308.423
300.192
291.068
281.155
270.621
261.303
253.373
246.533
240.412
234.676
229.054
223.361
217.483
211.369
205.024
198.481
191.786
185.018
178.484
172.84
168.342
164.821
161.962
159.499
157.264
155.167
153.187
151.385
149.875
148.708
147.835
147.172
146.638
146.187
145.797
145.472
145.218
145.03
144.891
144.784
144.699
144.63
144.574
144.531
144.5
144.477
144.459
144.446
144.435
144.426
144.42
144.415
144.412
144.409
144.407
144.406
144.405
144.404
144.403
144.402
144.402
144.402
144.401
144.401
144.401
144.401
144.401
144.401
144.401
144.401
144.4
144.4
144.4
144.4
144.4
144.4
144.4
144.4
144.4
144.4
144.4
144.4
144.4
144.4
144.4
144.4
144.4
144.4
144.4
144.4
144.4
144.4
144.4
144.4
144.4
144.4
144.4
144.401
144.401
144.401
144.401
144.401
144.401
144.401
144.401
144.401
144.401
144.401
144.401
144.401
144.401
144.401
144.401
144.401
144.4
144.4
144.4
144.4
144.4
144.4
144.4
144.4
144.4
144.4
144.4
144.4
144.4
170.546
173.978
177.578
181.324
185.279
189.741
195.216
201.835
209.423
217.696
226.375
235.231
244.08
252.775
261.218
269.348
277.163
284.881
294.098
306.047
319.524
333.348
346.807
359.539
371.385
382.258
392.121
401.02
409.003
416.108
422.43
428.075
433.174
437.809
441.987
445.715
449.02
451.949
454.572
456.872
458.778
460.439
461.961
463.319
464.475
465.438
466.2
466.75
467.147
467.317
467.289
467.177
467.024
466.854
466.671
466.434
466.126
465.752
465.303
464.813
464.265
463.556
462.69
461.775
460.861
459.82
458.611
457.236
455.753
454.141
452.314
450.257
447.948
445.425
442.711
439.689
436.484
432.953
428.985
424.522
419.663
414.26
408.128
401.125
393.051
383.75
373.068
360.827
346.998
331.508
314.274
295.258
275.177
258.043
244.559
233.655
224.121
215.136
206.262
197.318
188.34
179.795
172.632
167.176
163.087
159.858
157.11
154.642
152.415
150.532
149.081
148.027
147.256
146.659
146.168
145.755
145.423
145.172
144.991
144.859
144.759
144.678
144.612
144.56
144.522
144.494
144.473
144.458
144.446
144.436
144.428
144.422
144.417
144.414
144.412
144.41
144.409
144.407
144.406
144.406
144.405
144.404
144.404
144.403
144.403
144.403
144.402
144.402
144.402
144.402
144.402
144.402
144.402
144.402
144.402
144.402
144.401
144.401
144.401
144.401
144.401
144.401
144.401
144.401
144.402
144.402
144.402
144.402
144.403
144.403
144.404
144.404
144.405
144.406
144.406
144.407
144.407
144.408
144.408
144.409
144.409
144.409
144.408
144.408
144.407
144.406
144.405
144.405
144.404
144.403
144.402
144.4
144.401
144.401
144.401
144.401
144.401
144.401
144.401
144.401
257.166
267.58
277.926
288.292
299.521
314.224
331.452
349.656
367.721
384.983
401.093
415.872
429.219
441.171
451.851
461.244
469.475
476.594
482.608
487.706
491.994
495.517
498.335
500.524
502.143
503.282
504.076
504.541
504.574
504.495
504.371
504.207
504.012
503.764
503.458
503.074
502.635
502.135
501.606
501.088
500.573
500.026
499.476
498.918
498.28
497.585
496.882
496.143
495.359
494.549
493.713
492.847
491.976
491.104
490.219
489.323
488.431
487.566
486.7
485.694
484.697
483.641
482.5
481.45
480.462
479.45
478.454
477.377
476.004
474.569
473.254
471.954
470.471
469.016
467.746
466.274
464.446
462.753
461.238
459.533
457.587
455.486
453.31
450.964
448.464
445.765
442.877
439.73
436.131
431.915
426.785
420.723
413.574
405.019
394.585
381.847
366.579
348.621
327.768
304.009
278.547
256.828
240.23
227.169
215.879
205.236
194.758
184.583
175.681
168.875
163.948
160.232
157.18
154.507
152.156
150.24
148.82
147.815
147.084
146.513
146.04
145.648
145.341
145.117
144.958
144.842
144.752
144.679
144.618
144.569
144.532
144.505
144.487
144.473
144.462
144.454
144.447
144.441
144.436
144.431
144.427
144.424
144.422
144.419
144.417
144.416
144.415
144.414
144.413
144.413
144.412
144.412
144.411
144.411
144.411
144.41
144.41
144.41
144.41
144.41
144.41
144.41
144.41
144.411
144.412
144.414
144.417
144.421
144.425
144.429
144.434
144.439
144.444
144.448
144.453
144.459
144.464
144.469
144.472
144.473
144.473
144.47
144.465
144.459
144.452
144.446
144.44
144.434
144.429
144.419
144.402
144.402
429.918
444.34
457.358
468.931
479.174
487.953
495.499
502.005
507.594
512.328
516.238
519.338
521.655
523.304
524.421
524.768
524.693
524.549
524.466
524.459
524.504
524.55
524.52
524.389
524.092
523.633
523.029
522.288
521.393
520.374
519.346
518.24
517.103
516.061
514.993
513.824
512.761
511.794
510.902
509.895
508.971
508.165
507.402
506.542
505.63
504.824
504.051
503.186
502.32
501.488
500.629
499.656
498.727
497.815
496.942
495.958
494.986
494.101
493.137
492.106
491.12
490.07
488.91
487.817
486.814
485.814
484.827
483.823
482.47
481.062
479.789
478.542
477.229
475.887
474.642
473.366
471.981
470.569
469.152
467.624
466.043
464.47
462.903
461.484
459.962
458.374
457
455.539
453.972
452.308
450.658
449.014
447.135
444.925
442.466
439.652
436.632
433.259
429.183
423.977
417.312
408.743
397.804
383.922
366.591
345.528
320.69
292.635
265.742
245.095
229.662
216.971
205.33
194.044
183.317
174.306
167.679
162.959
159.376
156.4
153.79
151.544
149.782
148.523
147.645
147.001
146.489
146.059
145.693
145.4
145.183
145.032
144.926
144.848
144.786
144.735
144.692
144.655
144.623
144.596
144.573
144.553
144.536
144.521
144.51
144.502
144.496
144.491
144.487
144.483
144.48
144.477
144.475
144.473
144.471
144.469
144.467
144.466
144.466
144.467
144.467
144.469
144.473
144.479
144.49
144.506
144.528
144.555
144.587
144.623
144.66
144.697
144.733
144.769
144.809
144.856
144.905
144.952
144.988
145.004
145.001
144.984
144.949
144.899
144.841
144.783
144.731
144.687
144.646
144.571
524.917
527.934
530.259
531.947
533.004
533.584
533.976
534.38
534.901
535.48
536.002
536.432
536.735
536.761
536.655
536.302
535.66
534.831
533.992
533.063
532.161
531.362
530.641
529.974
529.341
528.672
527.935
527.146
526.28
525.338
524.395
523.339
522.234
521.208
520.134
518.947
517.852
516.854
515.937
514.855
513.867
513.015
512.195
511.255
510.284
509.473
508.698
507.837
506.978
506.178
505.314
504.333
503.406
502.51
501.658
500.62
499.616
498.712
497.694
496.674
495.72
494.683
493.514
492.397
491.379
490.371
489.375
488.412
487.105
485.712
484.438
483.213
481.975
480.682
479.419
478.253
477.077
475.827
474.479
473.026
471.554
470.105
468.602
467.181
465.605
463.978
462.469
461.062
459.419
457.853
456.402
454.996
453.678
452.32
450.913
449.738
448.472
446.965
445.332
443.651
441.958
440.145
437.982
435.675
433.196
430.101
425.727
419.656
411.466
400.526
386.178
367.804
345.141
318.406
288.657
261.536
241.463
226.454
213.854
202.155
190.882
180.489
172.222
166.374
162.233
159.037
156.339
153.95
151.852
150.155
148.929
148.096
147.516
147.08
146.727
146.429
146.172
145.951
145.761
145.598
145.457
145.336
145.233
145.149
145.086
145.04
145.005
144.978
144.955
144.936
144.919
144.903
144.889
144.877
144.866
144.856
144.849
144.846
144.847
144.851
144.858
144.874
144.903
144.955
145.039
145.164
145.333
145.542
145.783
146.045
146.317
146.587
146.847
147.115
147.444
147.855
148.309
148.737
149.085
149.284
149.294
149.196
148.957
148.577
148.099
147.59
147.116
146.732
146.419
145.858
540.646
541.394
541.996
542.46
542.568
542.473
542.206
541.85
541.556
541.319
541.095
540.89
540.689
540.442
540.132
539.735
539.209
538.541
537.782
536.931
536.028
535.131
534.262
533.453
532.715
531.968
531.183
530.38
529.517
528.626
527.723
526.7
525.607
524.637
523.607
522.416
521.35
520.409
519.445
518.307
517.324
516.484
515.644
514.635
513.661
512.874
512.095
511.232
510.421
509.675
508.826
507.928
507.096
506.294
505.393
504.369
503.43
502.517
501.514
500.568
499.67
498.652
497.479
496.37
495.353
494.339
493.321
492.379
491.146
489.776
488.514
487.31
486.094
484.822
483.542
482.382
481.269
480.109
478.845
477.452
475.994
474.596
473.242
471.872
470.42
468.851
467.277
465.86
464.173
462.525
460.973
459.513
458.25
457.034
455.718
454.436
453.106
451.646
450.199
448.822
447.587
446.424
445.453
444.508
443.38
442.076
440.723
439.391
437.877
436.39
434.881
433.032
430.328
425.99
419.441
410.245
397.876
381.873
361.962
338.047
310.377
280.597
255.624
237.829
224.421
212.932
202.193
191.889
182.254
174.228
168.527
164.674
161.903
159.707
157.844
156.216
154.787
153.54
152.457
151.518
150.702
149.992
149.383
148.901
148.55
148.301
148.118
147.974
147.853
147.748
147.656
147.573
147.499
147.435
147.379
147.334
147.306
147.305
147.319
147.353
147.424
147.552
147.77
148.164
148.817
149.769
151.02
152.537
154.247
156.063
157.904
159.699
161.396
163.145
165.573
168.728
172.155
175.288
177.794
179.458
179.795
179.409
178.109
175.791
172.642
169.043
165.414
162.31
160.014
156.267
545.462
545.632
545.64
545.568
545.36
545.033
544.668
544.317
543.983
543.649
543.315
542.972
542.601
542.183
541.683
541.085
540.388
539.603
538.753
537.859
536.937
536.068
535.259
534.422
533.584
532.776
531.927
531.067
530.219
529.266
528.252
527.401
526.483
525.398
524.437
523.59
522.622
521.561
520.646
519.855
519.016
517.997
517.093
516.331
515.535
514.691
513.961
513.253
512.437
511.653
510.904
510.169
509.247
508.29
507.418
506.489
505.549
504.663
503.816
502.824
501.654
500.539
499.523
498.514
497.488
496.565
495.405
494.075
492.835
491.651
490.461
489.226
487.947
486.741
485.609
484.473
483.271
481.951
480.514
479.09
477.773
476.467
475.093
473.605
472.051
470.514
468.889
467.218
465.572
463.998
462.622
461.377
460.111
458.784
457.423
455.963
454.458
453.011
451.693
450.49
449.459
448.348
447.211
446.104
445.09
444.179
443.605
442.987
442.183
441.306
440.451
439.685
439.102
438.555
437.814
436.575
434.409
430.864
425.603
418.475
409.02
396.657
380.845
361.496
339.079
314.122
287.452
262.905
245.724
233.855
224.631
216.64
209.372
202.694
196.616
191.153
186.28
181.942
178.085
174.661
171.677
169.353
167.743
166.631
165.805
165.139
164.574
164.082
163.649
163.267
162.938
162.657
162.413
162.249
162.203
162.249
162.383
162.677
163.223
164.094
165.502
168.136
172.463
178.468
185.954
194.596
203.827
213.101
222.07
230.447
238.026
245.424
258.56
275.293
291.728
305.47
315.827
323.094
325.892
325.162
321.658
314.096
302.549
287.713
270.194
252.395
239.092
222.065
547.912
547.994
548
547.954
547.804
547.537
547.187
546.807
546.419
546.022
545.615
545.194
544.755
544.291
543.781
543.203
542.552
541.838
541.073
540.248
539.381
538.568
537.768
536.91
536.098
535.321
534.488
533.666
532.865
531.955
531.031
530.277
529.446
528.456
527.588
526.823
525.9
524.956
524.117
523.387
522.539
521.573
520.744
519.996
519.167
518.373
517.698
517.007
516.231
515.524
514.856
514.15
513.267
512.387
511.568
510.663
509.791
508.956
508.154
507.213
506.079
504.952
503.939
502.949
501.939
501.043
499.956
498.691
497.494
496.342
495.184
493.99
492.746
491.508
490.336
489.19
488.017
486.758
485.381
483.943
482.6
481.322
480.005
478.603
477.117
475.555
473.919
472.235
470.542
468.889
467.373
466.002
464.685
463.343
461.947
460.478
458.957
457.463
456.047
454.742
453.57
452.369
451.112
449.882
448.715
447.666
446.887
446.105
445.309
444.516
443.825
443.435