/*--------------------------------*- C++ -*----------------------------------*\
| =========                 |                                                 |
| \\      /  F ield         | OpenFOAM: The Open Source CFD Toolbox           |
|  \\    /   O peration     | Version:  v1706                                 |
|   \\  /    A nd           | Web:      www.OpenFOAM.com                      |
|    \\/     M anipulation  |                                                 |
\*---------------------------------------------------------------------------*/
FoamFile
{
    version     2.0;
    format      ascii;
    class       volVectorField;
    location    "3.1e-05";
    object      U;
}
// * * * * * * * * * * * * * * * * * * * * * * * * * * * * * * * * * * * * * //

dimensions      [0 1 -1 0 0 0 0];


internalField   nonuniform List<vector> 
30104
(
(1760 -6.59466e-11 3.36262e-15)
(1760 -6.57125e-11 5.17663e-15)
(1760 -6.55176e-11 4.47518e-15)
(1760 -6.53115e-11 2.53173e-15)
(1760 -6.53931e-11 4.79021e-15)
(1760 -6.61533e-11 3.54055e-15)
(1760 -6.64755e-11 6.87505e-16)
(1760 -6.6583e-11 8.67903e-16)
(1760 -6.64373e-11 4.50357e-15)
(1760 -6.61847e-11 6.69154e-15)
(1760 -6.61496e-11 4.23058e-15)
(1760 -6.57012e-11 3.12879e-15)
(1760 -6.50352e-11 1.27224e-15)
(1760 -6.42548e-11 2.54707e-15)
(1760 -6.34194e-11 4.61533e-15)
(1760 -6.34046e-11 4.81593e-15)
(1760 -6.35825e-11 4.41065e-15)
(1760 4.62489e-10 3.79952e-15)
(1760 5.29431e-10 5.10704e-15)
(1760 6.03622e-10 4.97872e-15)
(1760 6.87061e-10 4.84871e-15)
(1760 7.79564e-10 4.62405e-15)
(1760 8.72316e-10 4.69765e-15)
(1760 9.84445e-10 4.21731e-15)
(1760 1.11736e-09 5.60626e-15)
(1760 1.25831e-09 5.5217e-15)
(1760 1.38547e-09 3.81748e-15)
(1760 1.46368e-09 4.28867e-15)
(1760 1.554e-09 3.66189e-15)
(1760 1.64915e-09 6.01857e-15)
(1760 1.75463e-09 5.28216e-15)
(1760 1.87166e-09 1.65891e-15)
(1760 2.00975e-09 2.92332e-15)
(1760 2.16304e-09 3.10781e-15)
(1760 2.33701e-09 3.13491e-15)
(1760 2.52625e-09 5.53267e-15)
(1760 2.73321e-09 3.15078e-15)
(1760 2.95586e-09 5.30435e-15)
(1760 3.19104e-09 5.76741e-15)
(1760 3.43509e-09 3.40308e-15)
(1760 3.69361e-09 3.63342e-15)
(1760 3.97068e-09 3.56924e-15)
(1760 4.25564e-09 3.78213e-15)
(1760 4.54295e-09 3.60357e-15)
(1760 4.8128e-09 3.89006e-15)
(1760 5.07425e-09 3.64096e-15)
(1760 5.32911e-09 4.16213e-15)
(1760 5.57891e-09 2.37287e-15)
(1760 5.83284e-09 4.44714e-15)
(1760 6.09428e-09 5.25974e-15)
(1760 6.3652e-09 3.79005e-15)
(1760 6.63779e-09 2.54768e-15)
(1760 6.91894e-09 2.70575e-15)
(1760 7.1989e-09 5.21753e-15)
(1760 7.47904e-09 2.7423e-15)
(1760 7.76607e-09 3.63211e-15)
(1760 8.0663e-09 4.3611e-15)
(1760 8.38679e-09 3.04199e-15)
(1760 8.7482e-09 3.99298e-15)
(1760 9.15584e-09 3.9988e-15)
(1760 9.62277e-09 4.86043e-15)
(1760 1.01741e-08 5.22545e-15)
(1760 1.08205e-08 3.8545e-15)
(1760 1.15479e-08 3.88533e-15)
(1760 1.2327e-08 3.32793e-15)
(1760 1.31232e-08 4.18058e-15)
(1760 1.38829e-08 2.04634e-15)
(1760 1.45816e-08 5.23797e-15)
(1760 1.52055e-08 3.64083e-15)
(1760 1.57549e-08 2.0305e-15)
(1760 1.62322e-08 3.27088e-15)
(1760 1.66411e-08 3.48355e-15)
(1760 1.69855e-08 1.69804e-15)
(1760 1.72744e-08 3.68726e-15)
(1760 1.74946e-08 3.46721e-15)
(1760 1.7651e-08 2.97153e-15)
(1760 1.77563e-08 2.68299e-15)
(1760 1.77998e-08 2.71494e-15)
(1760 1.78124e-08 2.80488e-15)
(1760 1.77788e-08 5.94224e-15)
(1760 1.76861e-08 1.47489e-15)
(1760 1.75212e-08 5.80206e-15)
(1760 1.73046e-08 4.91127e-15)
(1760 1.70254e-08 3.53973e-15)
(1760 1.6689e-08 4.5607e-15)
(1760 1.63086e-08 3.71834e-15)
(1760 1.58749e-08 4.39789e-15)
(1760 1.53849e-08 3.5223e-15)
(1760 1.48614e-08 3.09123e-15)
(1760 1.43048e-08 3.99534e-15)
(1760 1.37222e-08 1.71892e-15)
(1760 1.31095e-08 4.34241e-15)
(1760 1.24638e-08 4.50352e-15)
(1760 1.17881e-08 4.51335e-15)
(1760 1.1121e-08 1.55209e-15)
(1760 1.04433e-08 -1.67926e-16)
(1760 9.76384e-09 3.62103e-15)
(1760 9.07623e-09 1.43672e-15)
(1760 8.39992e-09 2.9475e-15)
(1760 7.71339e-09 2.10603e-15)
(1760 7.04495e-09 1.09423e-15)
(1760 6.40132e-09 4.8823e-15)
(1760 5.76335e-09 4.9297e-15)
(1760 5.15932e-09 3.95306e-15)
(1760 4.59552e-09 2.42467e-15)
(1760 4.04628e-09 2.89615e-15)
(1760 3.53353e-09 4.14155e-15)
(1760 3.05349e-09 3.86588e-15)
(1760 2.62537e-09 4.20237e-15)
(1760 2.25871e-09 5.20139e-15)
(1760 1.94969e-09 4.05125e-15)
(1760 1.72326e-09 7.19171e-16)
(1760 1.52722e-09 3.67068e-15)
(1760 1.40109e-09 1.82374e-15)
(1760 1.31989e-09 5.14048e-16)
(1760 1.15827e-09 3.71933e-15)
(1760 9.76719e-10 3.24413e-15)
(1760 8.14003e-10 3.39716e-15)
(1760 6.70867e-10 3.517e-15)
(1760 5.28239e-10 2.68692e-15)
(1760 4.17334e-10 2.83736e-15)
(1760 3.1672e-10 3.071e-15)
(1760 1.50495e-10 3.14864e-15)
(1760 -9.57915e-11 2.78629e-15)
(1760 -3.26419e-10 -1.56953e-15)
(1760 -4.41554e-10 2.6035e-15)
(1760 -4.50823e-10 2.84237e-15)
(1760 -4.31985e-10 1.98833e-15)
(1760 -3.96517e-10 1.57356e-15)
(1760 -3.2999e-10 1.41561e-15)
(1760 -2.28644e-10 1.12255e-15)
(1760 -1.51123e-10 -2.13833e-16)
(1760 -3.11176e-11 5.6111e-16)
(1760 1.11849e-10 1.52775e-15)
(1760 1.67905e-10 1.5876e-15)
(1760 1.85149e-10 1.60061e-15)
(1760 1.71849e-10 1.21122e-15)
(1760 1.31376e-10 2.20719e-15)
(1760 8.22027e-11 1.09778e-15)
(1760 1.42236e-11 2.60078e-15)
(1760 -6.96526e-11 3.71009e-15)
(1760 -1.32159e-10 2.33453e-16)
(1760 -1.68466e-10 -3.89898e-16)
(1760 -1.80309e-10 2.63721e-16)
(1760 -1.73334e-10 7.27447e-16)
(1760 -1.48885e-10 1.15585e-15)
(1760 -1.13163e-10 9.45544e-16)
(1760 -6.07887e-11 4.68399e-16)
(1760 -1.71933e-11 1.52733e-15)
(1760 7.34734e-12 9.32323e-16)
(1760 1.38175e-11 1.81789e-15)
(1760 1.16049e-11 7.49934e-16)
(1760 -2.91997e-12 1.90113e-15)
(1760 -2.19159e-11 6.93401e-16)
(1760 -3.8956e-11 1.95552e-15)
(1760 -6.29161e-11 2.15503e-15)
(1760 -9.14257e-11 9.33764e-16)
(1760 -1.08646e-10 2.66559e-15)
(1760 -1.21294e-10 3.14963e-15)
(1760 -1.22211e-10 2.09785e-15)
(1760 -1.20079e-10 2.04828e-15)
(1760 -1.16948e-10 6.56474e-16)
(1760 -1.10022e-10 1.37296e-15)
(1760 -1.02546e-10 2.96844e-15)
(1760 -8.84951e-11 2.31143e-15)
(1760 -7.33748e-11 4.17516e-16)
(1760 -5.63585e-11 5.12099e-16)
(1760 -4.77241e-11 2.03917e-15)
(1760 -3.35357e-11 9.83787e-16)
(1760 -2.3566e-11 1.3323e-15)
(1760 -1.55435e-11 1.14316e-15)
(1760 -9.10192e-12 1.30417e-15)
(1760 -1.12103e-12 1.979e-15)
(1760 5.50509e-14 1.55034e-15)
(1760 -3.10126e-12 1.78125e-15)
(1760 -4.03612e-12 1.29527e-15)
(1760 -4.63193e-12 9.25756e-16)
(1760 -9.39655e-12 8.41658e-16)
(1760 -1.61081e-11 1.48746e-15)
(1760 -1.85611e-11 8.83594e-16)
(1760 -2.42505e-11 1.6337e-15)
(1760 -3.52042e-11 1.67484e-15)
(1760 -4.37994e-11 1.68005e-15)
(1760 -5.72205e-11 3.10927e-15)
(1760 -7.26688e-11 1.68123e-15)
(1760 -8.91091e-11 1.13307e-15)
(1760 -9.93942e-11 -2.79183e-17)
(1760 -9.80739e-11 1.68199e-15)
(1760 -9.76971e-11 1.7865e-15)
(1760 -9.87786e-11 1.8327e-15)
(1760 -9.92121e-11 1.11773e-15)
(1760 -9.73762e-11 7.95829e-16)
(1760 -9.44941e-11 6.59036e-16)
(1760 -8.73614e-11 1.57732e-15)
(1760 -8.31561e-11 1.21175e-15)
(1760 -7.92262e-11 8.07432e-16)
(1760 -7.49224e-11 1.27805e-15)
(1760 -7.18069e-11 8.65933e-17)
(1760 -7.58101e-11 1.02368e-15)
(1760 -7.84313e-11 1.84972e-15)
(1760 -8.25872e-11 1.31082e-15)
(1760 -8.50377e-11 1.91873e-15)
(1760 -8.80795e-11 1.80067e-15)
(1760 -8.95814e-11 6.15821e-16)
(1760 -9.10098e-11 1.76233e-15)
(1760 -8.91318e-11 2.14836e-15)
(1760 -8.37378e-11 1.55412e-15)
(1760 -7.43184e-11 8.55836e-16)
(1760 -6.35498e-11 1.08816e-15)
(1760 -5.72423e-11 1.08956e-15)
(1760 -1.93687e-10 1.34472e-14)
(1760 -1.94436e-10 1.44356e-14)
(1760 -1.94481e-10 1.00374e-14)
(1760 -1.94984e-10 1.02695e-14)
(1760 -1.93978e-10 1.14548e-14)
(1760 -1.92818e-10 1.02776e-14)
(1760 -1.93087e-10 9.5658e-15)
(1760 -1.93102e-10 1.14296e-14)
(1760 -1.94351e-10 1.43793e-14)
(1760 -1.94423e-10 1.2033e-14)
(1760 -1.93835e-10 1.04862e-14)
(1760 -1.9527e-10 1.40898e-14)
(1760 -1.95839e-10 1.59895e-14)
(1760 -1.97425e-10 1.46824e-14)
(1760 -1.97985e-10 1.49191e-14)
(1760 -1.96697e-10 1.41484e-14)
(1760 -1.97121e-10 1.23309e-14)
(1760 3.18936e-09 6.47908e-15)
(1760 3.53047e-09 9.21635e-15)
(1760 3.92325e-09 1.10342e-14)
(1760 4.36873e-09 1.07214e-14)
(1760 4.87389e-09 1.00985e-14)
(1760 5.43638e-09 1.02692e-14)
(1760 6.08063e-09 8.22107e-15)
(1760 6.82156e-09 1.0362e-14)
(1760 7.61759e-09 1.09378e-14)
(1760 8.49842e-09 7.87494e-15)
(1760 9.51202e-09 7.34025e-15)
(1760 1.06289e-08 8.76758e-15)
(1760 1.18482e-08 9.47047e-15)
(1760 1.31823e-08 8.92398e-15)
(1760 1.46251e-08 6.69284e-15)
(1760 1.61528e-08 7.01786e-15)
(1760 1.77611e-08 7.38626e-15)
(1760 1.94646e-08 8.39122e-15)
(1760 2.12661e-08 1.14529e-14)
(1760 2.32017e-08 9.77088e-15)
(1760 2.52961e-08 1.03122e-14)
(1760 2.75963e-08 1.04745e-14)
(1760 3.0138e-08 9.70945e-15)
(1760 3.29441e-08 9.4029e-15)
(1760 3.60871e-08 9.07853e-15)
(1760 3.96357e-08 8.87421e-15)
(1760 4.36146e-08 8.84393e-15)
(1760 4.80259e-08 8.90586e-15)
(1760 5.28043e-08 8.44547e-15)
(1760 5.78419e-08 9.31611e-15)
(1760 6.29928e-08 7.74351e-15)
(1760 6.813e-08 1.00416e-14)
(1760 7.31373e-08 9.69242e-15)
(1760 7.79349e-08 9.00669e-15)
(1760 8.24693e-08 6.68303e-15)
(1760 8.67173e-08 9.01787e-15)
(1760 9.06871e-08 1.03981e-14)
(1760 9.44232e-08 7.64011e-15)
(1760 9.79891e-08 7.96392e-15)
(1760 1.0152e-07 1.0267e-14)
(1760 1.05198e-07 9.7003e-15)
(1760 1.09177e-07 1.09154e-14)
(1760 1.13533e-07 8.65315e-15)
(1760 1.18211e-07 8.79344e-15)
(1760 1.2299e-07 1.14032e-14)
(1760 1.27599e-07 9.22683e-15)
(1760 1.31918e-07 7.03502e-15)
(1760 1.35973e-07 6.72173e-15)
(1760 1.39898e-07 1.0226e-14)
(1760 1.43786e-07 7.1527e-15)
(1760 1.47656e-07 8.779e-15)
(1760 1.51461e-07 9.4409e-15)
(1760 1.55114e-07 8.35963e-15)
(1760 1.58537e-07 8.81495e-15)
(1760 1.61671e-07 6.17818e-15)
(1760 1.64477e-07 6.88929e-15)
(1760 1.66926e-07 8.77667e-15)
(1760 1.6897e-07 8.61365e-15)
(1760 1.70573e-07 1.0063e-14)
(1760 1.71736e-07 7.86319e-15)
(1760 1.72319e-07 7.12568e-15)
(1760 1.72503e-07 7.25638e-15)
(1760 1.72561e-07 8.81984e-15)
(1760 1.71839e-07 6.80293e-15)
(1760 1.70636e-07 9.57276e-15)
(1760 1.68839e-07 9.90161e-15)
(1760 1.66419e-07 7.50306e-15)
(1760 1.63364e-07 6.7145e-15)
(1760 1.59705e-07 8.86453e-15)
(1760 1.555e-07 7.8941e-15)
(1760 1.50765e-07 7.89428e-15)
(1760 1.45512e-07 7.1822e-15)
(1760 1.39789e-07 7.92401e-15)
(1760 1.33647e-07 6.77954e-15)
(1760 1.27143e-07 1.04804e-14)
(1760 1.20343e-07 8.58119e-15)
(1760 1.13347e-07 7.16075e-15)
(1760 1.06229e-07 6.22466e-15)
(1760 9.89933e-08 5.81427e-15)
(1760 9.17006e-08 6.4777e-15)
(1760 8.44212e-08 4.01008e-15)
(1760 7.72145e-08 5.05378e-15)
(1760 7.01497e-08 6.50691e-15)
(1760 6.3278e-08 7.74549e-15)
(1760 5.66804e-08 8.38689e-15)
(1760 5.04695e-08 8.14085e-15)
(1760 4.47406e-08 6.78623e-15)
(1760 3.95592e-08 6.03213e-15)
(1760 3.49951e-08 7.68399e-15)
(1760 3.10054e-08 7.90077e-15)
(1760 2.75054e-08 8.46583e-15)
(1760 2.43731e-08 8.63415e-15)
(1760 2.14973e-08 7.4091e-15)
(1760 1.88053e-08 7.22783e-15)
(1760 1.62797e-08 3.02717e-15)
(1760 1.39206e-08 6.69145e-15)
(1760 1.17984e-08 4.31538e-15)
(1760 9.90902e-09 4.67543e-15)
(1760 8.32253e-09 8.05633e-15)
(1760 6.91914e-09 5.32139e-15)
(1760 5.70225e-09 6.61777e-15)
(1760 4.6677e-09 5.55967e-15)
(1760 3.72178e-09 5.38076e-15)
(1760 3.03022e-09 7.12405e-15)
(1760 2.284e-09 7.33105e-15)
(1760 1.86201e-09 6.59511e-15)
(1760 2.0456e-09 5.96876e-15)
(1760 1.76228e-09 7.60983e-15)
(1760 1.41681e-09 7.66157e-15)
(1760 1.11352e-09 6.97846e-15)
(1760 8.41719e-10 1.04361e-14)
(1760 6.45316e-10 1.1129e-14)
(1760 4.07964e-10 7.06527e-15)
(1760 1.1888e-10 7.04616e-15)
(1760 -2.1258e-10 7.43929e-15)
(1760 -5.78485e-10 3.70638e-15)
(1760 -7.22497e-10 6.77587e-15)
(1760 -7.2435e-10 6.96652e-15)
(1760 -6.92856e-10 5.58026e-15)
(1760 -6.02981e-10 5.41651e-15)
(1760 -4.51034e-10 3.17559e-15)
(1760 -3.03885e-10 1.55901e-15)
(1760 -7.6681e-11 6.48388e-15)
(1760 9.81688e-11 7.04794e-15)
(1760 1.72112e-10 4.67896e-15)
(1760 1.85241e-10 3.91522e-15)
(1760 1.42067e-10 4.46752e-15)
(1760 5.69813e-11 4.29715e-15)
(1760 -4.50443e-11 4.16702e-15)
(1760 -1.73176e-10 4.01075e-15)
(1760 -2.72315e-10 7.31959e-15)
(1760 -3.23494e-10 3.45386e-15)
(1760 -3.4897e-10 3.54239e-15)
(1760 -3.54084e-10 3.45696e-15)
(1760 -3.207e-10 4.51052e-15)
(1760 -2.79869e-10 5.71046e-15)
(1760 -2.33321e-10 3.95795e-15)
(1760 -1.69455e-10 3.32919e-15)
(1760 -1.03035e-10 3.38245e-15)
(1760 -6.05264e-11 5.06254e-15)
(1760 -4.76611e-11 5.61138e-15)
(1760 -3.80543e-11 5.94339e-15)
(1760 -5.05016e-11 6.05891e-15)
(1760 -6.15226e-11 5.95662e-15)
(1760 -7.44514e-11 6.07242e-15)
(1760 -9.05981e-11 5.77643e-15)
(1760 -1.06383e-10 4.66636e-15)
(1760 -1.31922e-10 5.92851e-15)
(1760 -1.59569e-10 5.0637e-15)
(1760 -1.88238e-10 4.49934e-15)
(1760 -2.06748e-10 4.8367e-15)
(1760 -2.28871e-10 4.47666e-15)
(1760 -2.38513e-10 6.41448e-15)
(1760 -2.44511e-10 6.72229e-15)
(1760 -2.53508e-10 6.59073e-15)
(1760 -2.58428e-10 6.44911e-15)
(1760 -2.56343e-10 5.58968e-15)
(1760 -2.50203e-10 6.29832e-15)
(1760 -2.51316e-10 5.89131e-15)
(1760 -2.4086e-10 3.88507e-15)
(1760 -2.27795e-10 5.01938e-15)
(1760 -2.15484e-10 4.17381e-15)
(1760 -2.08614e-10 4.36454e-15)
(1760 -1.99134e-10 4.86377e-15)
(1760 -1.87478e-10 3.05177e-15)
(1760 -1.69693e-10 3.5767e-15)
(1760 -1.45196e-10 5.00956e-15)
(1760 -1.34745e-10 6.32206e-15)
(1760 -1.20386e-10 4.74285e-15)
(1760 -1.09053e-10 4.81057e-15)
(1760 -1.11568e-10 4.47956e-15)
(1760 -1.13097e-10 2.81635e-15)
(1760 -1.13392e-10 3.79417e-15)
(1760 -1.14832e-10 4.49519e-15)
(1760 -1.20355e-10 3.46891e-15)
(1760 -1.26721e-10 4.54843e-15)
(1760 -1.35054e-10 4.05786e-15)
(1760 -1.33354e-10 3.71496e-15)
(1760 -1.34022e-10 3.62495e-15)
(1760 -1.36618e-10 4.0966e-15)
(1760 -1.31864e-10 3.95792e-15)
(1760 -1.26887e-10 4.38187e-15)
(1760 -1.23627e-10 4.54317e-15)
(1760 -1.16159e-10 4.5015e-15)
(1760 -1.04969e-10 2.98419e-15)
(1760 -9.59904e-11 1.63976e-15)
(1760 -9.0229e-11 4.28102e-15)
(1760 -8.87261e-11 5.32863e-15)
(1760 -9.1802e-11 5.78271e-15)
(1760 -1.01918e-10 5.54259e-15)
(1760 -1.18217e-10 5.81188e-15)
(1760 -1.39167e-10 5.18791e-15)
(1760 -1.64062e-10 3.84045e-15)
(1760 -3.30655e-10 1.87273e-14)
(1760 -3.30291e-10 2.09208e-14)
(1760 -3.30561e-10 2.02175e-14)
(1760 -3.31001e-10 2.0219e-14)
(1760 -3.3087e-10 2.2795e-14)
(1760 -3.30552e-10 2.06546e-14)
(1760 -3.29095e-10 2.02146e-14)
(1760 -3.28554e-10 1.99779e-14)
(1760 -3.28551e-10 2.0937e-14)
(1760 -3.2809e-10 2.05152e-14)
(1760 -3.26323e-10 2.09834e-14)
(1760 -3.2506e-10 2.22611e-14)
(1760 -3.23058e-10 1.72906e-14)
(1760 -3.20638e-10 1.90285e-14)
(1760 -3.19397e-10 2.14388e-14)
(1760 -3.17694e-10 2.1284e-14)
(1760 1.99274e-08 1.43965e-14)
(1760 2.2367e-08 1.51651e-14)
(1760 2.51088e-08 1.53353e-14)
(1760 2.81246e-08 1.57438e-14)
(1760 3.14007e-08 1.55635e-14)
(1760 3.49473e-08 1.49984e-14)
(1760 3.88375e-08 1.37362e-14)
(1760 4.31523e-08 1.70274e-14)
(1760 4.79645e-08 1.44922e-14)
(1760 5.34282e-08 1.46118e-14)
(1760 5.96841e-08 1.56969e-14)
(1760 6.68701e-08 1.46713e-14)
(1760 7.51688e-08 1.56886e-14)
(1760 8.47411e-08 1.51063e-14)
(1760 9.56952e-08 1.21205e-14)
(1760 1.08046e-07 1.282e-14)
(1760 1.21705e-07 1.23902e-14)
(1760 1.36483e-07 1.42966e-14)
(1760 1.52161e-07 1.52075e-14)
(1760 1.68603e-07 1.22849e-14)
(1760 1.85858e-07 1.46588e-14)
(1760 2.0415e-07 1.50776e-14)
(1760 2.23759e-07 1.41365e-14)
(1760 2.4485e-07 1.41294e-14)
(1760 2.67365e-07 1.42945e-14)
(1760 2.91012e-07 1.35843e-14)
(1760 3.15412e-07 1.37731e-14)
(1760 3.40371e-07 1.32884e-14)
(1760 3.65926e-07 1.27193e-14)
(1760 3.92206e-07 1.4313e-14)
(1760 4.19277e-07 1.26387e-14)
(1760 4.47027e-07 1.35973e-14)
(1760 4.75112e-07 1.35112e-14)
(1760 5.03106e-07 1.34187e-14)
(1760 5.30608e-07 1.26405e-14)
(1760 5.57266e-07 1.60488e-14)
(1760 5.82915e-07 1.17353e-14)
(1760 6.07746e-07 1.27687e-14)
(1760 6.3233e-07 1.3879e-14)
(1760 6.57492e-07 1.35687e-14)
(1760 6.84237e-07 1.39054e-14)
(1760 7.13742e-07 1.57894e-14)
(1760 7.4731e-07 1.23063e-14)
(1760 7.86221e-07 1.38591e-14)
(1760 8.31278e-07 1.31007e-14)
(1760 8.82194e-07 1.33374e-14)
(1760 9.37311e-07 1.49051e-14)
(1760 9.94109e-07 1.44867e-14)
(1760 1.05016e-06 1.38243e-14)
(1760 1.10369e-06 1.21449e-14)
(1760 1.15359e-06 1.1444e-14)
(1760 1.19925e-06 1.27631e-14)
(1760 1.24047e-06 1.18263e-14)
(1760 1.27727e-06 1.15988e-14)
(1760 1.30981e-06 1.27558e-14)
(1760 1.33827e-06 1.49485e-14)
(1760 1.36276e-06 1.20366e-14)
(1760 1.38333e-06 1.27857e-14)
(1760 1.39984e-06 1.38493e-14)
(1760 1.41199e-06 1.30415e-14)
(1760 1.41911e-06 1.27547e-14)
(1760 1.42159e-06 1.26314e-14)
(1760 1.42265e-06 1.35204e-14)
(1760 1.4206e-06 1.3197e-14)
(1760 1.41161e-06 1.11822e-14)
(1760 1.39764e-06 9.53082e-15)
(1760 1.37897e-06 1.44676e-14)
(1760 1.35565e-06 1.22883e-14)
(1760 1.32769e-06 1.16609e-14)
(1760 1.29504e-06 1.42265e-14)
(1760 1.25784e-06 1.19513e-14)
(1760 1.21644e-06 1.08687e-14)
(1760 1.17141e-06 1.35622e-14)
(1760 1.12323e-06 1.30124e-14)
(1760 1.07234e-06 1.14066e-14)
(1760 1.01917e-06 1.03941e-14)
(1760 9.64161e-07 1.28357e-14)
(1760 9.07685e-07 1.1997e-14)
(1760 8.50052e-07 1.09956e-14)
(1760 7.91604e-07 9.94492e-15)
(1760 7.32678e-07 1.04551e-14)
(1760 6.73663e-07 1.16858e-14)
(1760 6.1506e-07 1.26917e-14)
(1760 5.57402e-07 1.15665e-14)
(1760 5.01186e-07 1.11748e-14)
(1760 4.46862e-07 1.20263e-14)
(1760 3.94726e-07 1.07076e-14)
(1760 3.44968e-07 1.04497e-14)
(1760 2.97919e-07 9.63176e-15)
(1760 2.54102e-07 1.04998e-14)
(1760 2.14315e-07 1.2776e-14)
(1760 1.79356e-07 1.19573e-14)
(1760 1.49519e-07 9.61824e-15)
(1760 1.24477e-07 1.17162e-14)
(1760 1.03509e-07 8.74524e-15)
(1760 8.58948e-08 9.60273e-15)
(1760 7.1004e-08 8.87799e-15)
(1760 5.84594e-08 1.0685e-14)
(1760 4.81132e-08 1.02574e-14)
(1760 3.96447e-08 8.81181e-15)
(1760 3.28671e-08 9.41339e-15)
(1760 2.73787e-08 1.04508e-14)
(1760 2.29453e-08 8.60807e-15)
(1760 1.93422e-08 1.13597e-14)
(1760 1.57664e-08 1.13708e-14)
(1760 1.29156e-08 8.91611e-15)
(1760 1.06625e-08 8.35172e-15)
(1760 8.65943e-09 1.21834e-14)
(1760 6.90883e-09 1.12606e-14)
(1760 5.40411e-09 1.19682e-14)
(1760 4.12427e-09 1.2767e-14)
(1760 3.24941e-09 1.32825e-14)
(1760 2.24707e-09 1.01724e-14)
(1760 1.81994e-09 1.05111e-14)
(1760 1.82044e-09 1.20615e-14)
(1760 1.37159e-09 1.11229e-14)
(1760 9.62971e-10 1.15455e-14)
(1760 6.44458e-10 1.17739e-14)
(1760 4.15336e-10 1.09221e-14)
(1760 1.4983e-10 1.16116e-14)
(1760 -1.6844e-10 1.09907e-14)
(1760 -4.90486e-10 9.65767e-15)
(1760 -7.72744e-10 9.05758e-15)
(1760 -8.09209e-10 7.96381e-15)
(1760 -7.73219e-10 7.52747e-15)
(1760 -6.73222e-10 7.19081e-15)
(1760 -5.38372e-10 6.22909e-15)
(1760 -3.57375e-10 8.4492e-15)
(1760 -1.94738e-10 6.11084e-15)
(1760 -2.03065e-11 5.94818e-15)
(1760 2.18698e-11 6.82517e-15)
(1760 1.25438e-11 7.01509e-15)
(1760 -1.92308e-11 9.77766e-15)
(1760 -6.99386e-11 9.08292e-15)
(1760 -1.49609e-10 8.35125e-15)
(1760 -2.02811e-10 8.70919e-15)
(1760 -3.07583e-10 8.62473e-15)
(1760 -3.97486e-10 8.2975e-15)
(1760 -4.40485e-10 1.08332e-14)
(1760 -4.44058e-10 8.90465e-15)
(1760 -4.38412e-10 8.1525e-15)
(1760 -4.2628e-10 8.39491e-15)
(1760 -4.17903e-10 8.9608e-15)
(1760 -3.94946e-10 8.65795e-15)
(1760 -3.81494e-10 8.3268e-15)
(1760 -3.55195e-10 7.43793e-15)
(1760 -3.20315e-10 7.89139e-15)
(1760 -2.78813e-10 8.79254e-15)
(1760 -2.34258e-10 8.47223e-15)
(1760 -1.87092e-10 6.88061e-15)
(1760 -1.59167e-10 7.96396e-15)
(1760 -1.54756e-10 7.25662e-15)
(1760 -1.58651e-10 8.90062e-15)
(1760 -1.50843e-10 7.33368e-15)
(1760 -1.45722e-10 7.27922e-15)
(1760 -1.52151e-10 8.8433e-15)
(1760 -1.63173e-10 9.30047e-15)
(1760 -1.6819e-10 1.00411e-14)
(1760 -1.85951e-10 7.7401e-15)
(1760 -2.1176e-10 8.92673e-15)
(1760 -2.27985e-10 7.81868e-15)
(1760 -2.34052e-10 5.85817e-15)
(1760 -2.38301e-10 5.52901e-15)
(1760 -2.42406e-10 6.23156e-15)
(1760 -2.53018e-10 6.68076e-15)
(1760 -2.76763e-10 7.97157e-15)
(1760 -2.854e-10 6.51353e-15)
(1760 -2.83948e-10 7.0724e-15)
(1760 -2.90916e-10 9.79e-15)
(1760 -2.95115e-10 8.1054e-15)
(1760 -3.07631e-10 5.82755e-15)
(1760 -3.09518e-10 9.26129e-15)
(1760 -3.10181e-10 8.23329e-15)
(1760 -3.05809e-10 7.57974e-15)
(1760 -2.99186e-10 5.51882e-15)
(1760 -2.92731e-10 5.44846e-15)
(1760 -2.84853e-10 6.26306e-15)
(1760 -2.84435e-10 6.6583e-15)
(1760 -2.73692e-10 5.09347e-15)
(1760 -2.68584e-10 4.28403e-15)
(1760 -2.65802e-10 4.88538e-15)
(1760 -2.62428e-10 5.42614e-15)
(1760 -2.62831e-10 5.96762e-15)
(1760 -2.68881e-10 7.29593e-15)
(1760 -2.88338e-10 5.49982e-15)
(1760 -3.12003e-10 8.77678e-15)
(1760 -3.31092e-10 7.1444e-15)
(1760 -3.36322e-10 6.15797e-15)
(1760 -3.42624e-10 7.68255e-15)
(1760 -3.42123e-10 6.24205e-15)
(1760 -3.37573e-10 6.60398e-15)
(1760 -3.22945e-10 7.33559e-15)
(1760 -2.72023e-10 7.34786e-15)
(1760 -4.60407e-10 2.78363e-14)
(1760 -4.56526e-10 2.59837e-14)
(1760 -4.53072e-10 2.49572e-14)
(1760 -4.51025e-10 2.90691e-14)
(1760 -4.49801e-10 2.83849e-14)
(1760 -4.49507e-10 2.41746e-14)
(1760 -4.49337e-10 2.63843e-14)
(1760 -4.51093e-10 2.5856e-14)
(1760 -4.55142e-10 2.52598e-14)
(1760 -4.58648e-10 2.64217e-14)
(1760 -4.63512e-10 3.08105e-14)
(1760 -4.67941e-10 2.95102e-14)
(1760 -4.72507e-10 2.79303e-14)
(1760 -4.78823e-10 2.69406e-14)
(1760 -4.84031e-10 2.84764e-14)
(1760 -4.89705e-10 2.57488e-14)
(1760 1.20331e-07 2.08141e-14)
(1760 1.35694e-07 1.97103e-14)
(1760 1.53651e-07 2.01091e-14)
(1760 1.74523e-07 1.95614e-14)
(1760 1.98524e-07 2.16417e-14)
(1760 2.25716e-07 2.16081e-14)
(1760 2.56089e-07 1.87453e-14)
(1760 2.89677e-07 1.95363e-14)
(1760 3.26762e-07 2.14732e-14)
(1760 3.67904e-07 2.14824e-14)
(1760 4.13701e-07 1.9647e-14)
(1760 4.64551e-07 2.02207e-14)
(1760 5.20436e-07 1.85935e-14)
(1760 5.81019e-07 1.92741e-14)
(1760 6.46028e-07 2.04822e-14)
(1760 7.15497e-07 1.88115e-14)
(1760 7.89768e-07 1.9246e-14)
(1760 8.6949e-07 1.81931e-14)
(1760 9.55486e-07 1.71455e-14)
(1760 1.04861e-06 1.9399e-14)
(1760 1.14985e-06 2.04646e-14)
(1760 1.2607e-06 2.15926e-14)
(1760 1.38362e-06 2.05442e-14)
(1760 1.52206e-06 1.92909e-14)
(1760 1.67981e-06 1.77975e-14)
(1760 1.8597e-06 1.83772e-14)
(1760 2.06205e-06 1.85984e-14)
(1760 2.28398e-06 1.80749e-14)
(1760 2.52006e-06 2.05716e-14)
(1760 2.76385e-06 1.94045e-14)
(1760 3.00911e-06 1.64767e-14)
(1760 3.25057e-06 1.94093e-14)
(1760 3.48429e-06 1.75982e-14)
(1760 3.70742e-06 1.80079e-14)
(1760 3.91804e-06 1.90448e-14)
(1760 4.11547e-06 1.93782e-14)
(1760 4.3002e-06 1.91833e-14)
(1760 4.47361e-06 2.01694e-14)
(1760 4.63906e-06 1.85953e-14)
(1760 4.80324e-06 1.65083e-14)
(1760 4.9755e-06 1.87733e-14)
(1760 5.16436e-06 1.75364e-14)
(1760 5.37286e-06 1.79528e-14)
(1760 5.59568e-06 1.89929e-14)
(1760 5.82165e-06 1.83888e-14)
(1760 6.04136e-06 1.82807e-14)
(1760 6.25298e-06 1.79972e-14)
(1760 6.46073e-06 1.69399e-14)
(1760 6.66932e-06 1.81529e-14)
(1760 6.88e-06 1.51413e-14)
(1760 7.09013e-06 1.47505e-14)
(1760 7.29499e-06 1.83318e-14)
(1760 7.48995e-06 1.73287e-14)
(1760 7.67177e-06 1.68857e-14)
(1760 7.83864e-06 1.77488e-14)
(1760 7.98958e-06 1.84368e-14)
(1760 8.12383e-06 1.65454e-14)
(1760 8.2407e-06 1.72346e-14)
(1760 8.339e-06 1.7986e-14)
(1760 8.41595e-06 1.77602e-14)
(1760 8.46968e-06 1.77655e-14)
(1760 8.49531e-06 1.67485e-14)
(1760 8.50374e-06 1.62113e-14)
(1760 8.50013e-06 1.71334e-14)
(1760 8.45935e-06 1.44835e-14)
(1760 8.39066e-06 1.33274e-14)
(1760 8.29063e-06 1.81209e-14)
(1760 8.15922e-06 1.69146e-14)
(1760 7.99687e-06 1.64314e-14)
(1760 7.80431e-06 1.71752e-14)
(1760 7.58253e-06 1.66031e-14)
(1760 7.33261e-06 1.5939e-14)
(1760 7.05621e-06 1.6075e-14)
(1760 6.75587e-06 1.58628e-14)
(1760 6.43494e-06 1.68192e-14)
(1760 6.09693e-06 1.52993e-14)
(1760 5.74518e-06 1.64786e-14)
(1760 5.38327e-06 1.52682e-14)
(1760 5.01515e-06 1.62905e-14)
(1760 4.64411e-06 1.54438e-14)
(1760 4.27272e-06 1.75842e-14)
(1760 3.90362e-06 1.60547e-14)
(1760 3.54063e-06 1.58227e-14)
(1760 3.18907e-06 1.52538e-14)
(1760 2.8553e-06 1.63864e-14)
(1760 2.54548e-06 1.64443e-14)
(1760 2.26458e-06 1.4763e-14)
(1760 2.01507e-06 1.46461e-14)
(1760 1.79584e-06 1.30447e-14)
(1760 1.60192e-06 1.49561e-14)
(1760 1.42642e-06 1.67142e-14)
(1760 1.26342e-06 1.54503e-14)
(1760 1.10995e-06 1.46286e-14)
(1760 9.65794e-07 1.6101e-14)
(1760 8.32095e-07 1.39451e-14)
(1760 7.10042e-07 1.36519e-14)
(1760 6.00173e-07 1.30397e-14)
(1760 5.02451e-07 1.40139e-14)
(1760 4.16241e-07 1.50233e-14)
(1760 3.40336e-07 1.28764e-14)
(1760 2.73798e-07 1.37234e-14)
(1760 2.15918e-07 1.40266e-14)
(1760 1.67393e-07 1.31622e-14)
(1760 1.28355e-07 1.4776e-14)
(1760 9.77086e-08 1.33841e-14)
(1760 7.46962e-08 1.23198e-14)
(1760 5.77393e-08 1.38917e-14)
(1760 4.51651e-08 1.49263e-14)
(1760 3.5896e-08 1.44575e-14)
(1760 2.88283e-08 1.30791e-14)
(1760 2.34426e-08 1.45521e-14)
(1760 1.9119e-08 1.77747e-14)
(1760 1.50198e-08 1.35476e-14)
(1760 1.1974e-08 1.32931e-14)
(1760 9.45392e-09 1.49381e-14)
(1760 7.2685e-09 1.30811e-14)
(1760 5.43507e-09 1.39288e-14)
(1760 3.94838e-09 1.4637e-14)
(1760 2.96846e-09 1.50226e-14)
(1760 1.90024e-09 1.71587e-14)
(1760 1.54245e-09 1.56223e-14)
(1760 1.46095e-09 1.37231e-14)
(1760 1.06963e-09 1.50526e-14)
(1760 7.1278e-10 1.49561e-14)
(1760 4.39271e-10 1.39498e-14)
(1760 2.45787e-10 1.44477e-14)
(1760 -7.29349e-11 1.21435e-14)
(1760 -3.18329e-10 1.14734e-14)
(1760 -6.71665e-10 1.42235e-14)
(1760 -8.5881e-10 1.202e-14)
(1760 -8.72385e-10 1.14002e-14)
(1760 -8.31587e-10 1.09393e-14)
(1760 -7.63486e-10 1.04052e-14)
(1760 -6.16829e-10 1.02399e-14)
(1760 -5.31965e-10 1.05184e-14)
(1760 -3.85453e-10 8.99892e-15)
(1760 -2.00912e-10 1.14346e-14)
(1760 -1.22076e-10 1.27259e-14)
(1760 -1.02908e-10 1.08666e-14)
(1760 -1.04523e-10 1.0496e-14)
(1760 -1.16118e-10 9.84556e-15)
(1760 -1.43278e-10 1.06387e-14)
(1760 -1.8522e-10 1.12193e-14)
(1760 -2.16061e-10 1.09504e-14)
(1760 -2.80841e-10 9.79098e-15)
(1760 -3.34312e-10 1.32424e-14)
(1760 -3.77058e-10 1.21154e-14)
(1760 -4.45237e-10 1.14292e-14)
(1760 -5.05174e-10 1.15273e-14)
(1760 -5.43371e-10 1.16224e-14)
(1760 -5.51802e-10 1.18397e-14)
(1760 -5.56389e-10 1.00415e-14)
(1760 -5.61494e-10 1.00471e-14)
(1760 -5.61295e-10 9.10625e-15)
(1760 -5.57997e-10 9.64259e-15)
(1760 -5.47054e-10 9.22508e-15)
(1760 -5.28632e-10 1.00028e-14)
(1760 -5.02322e-10 1.16714e-14)
(1760 -4.73348e-10 1.17736e-14)
(1760 -4.68714e-10 1.09764e-14)
(1760 -4.70742e-10 1.2085e-14)
(1760 -4.71243e-10 1.17433e-14)
(1760 -4.64199e-10 1.16485e-14)
(1760 -4.49656e-10 1.02472e-14)
(1760 -4.11733e-10 1.04096e-14)
(1760 -3.84901e-10 1.10113e-14)
(1760 -3.69562e-10 9.44975e-15)
(1760 -3.56817e-10 9.1279e-15)
(1760 -3.35622e-10 9.31497e-15)
(1760 -3.1645e-10 8.15183e-15)
(1760 -2.96626e-10 1.11186e-14)
(1760 -2.89821e-10 9.93811e-15)
(1760 -2.89971e-10 1.06376e-14)
(1760 -3.18002e-10 1.21137e-14)
(1760 -3.32601e-10 1.13594e-14)
(1760 -3.52464e-10 9.59655e-15)
(1760 -3.74292e-10 1.12099e-14)
(1760 -4.054e-10 1.06662e-14)
(1760 -4.34682e-10 9.43327e-15)
(1760 -4.43678e-10 9.24332e-15)
(1760 -4.43791e-10 9.68782e-15)
(1760 -4.35696e-10 9.78334e-15)
(1760 -4.26152e-10 8.22584e-15)
(1760 -4.0248e-10 9.76952e-15)
(1760 -3.72692e-10 9.4246e-15)
(1760 -3.4117e-10 9.36641e-15)
(1760 -3.12305e-10 8.57073e-15)
(1760 -2.71446e-10 7.9846e-15)
(1760 -2.45686e-10 8.56324e-15)
(1760 -2.46186e-10 9.02094e-15)
(1760 -2.6079e-10 9.02299e-15)
(1760 -3.00241e-10 8.86844e-15)
(1760 -3.63463e-10 8.31865e-15)
(1760 -6.21344e-10 3.47008e-14)
(1760 -6.23579e-10 3.39418e-14)
(1760 -6.26132e-10 4.01016e-14)
(1760 -6.25823e-10 4.03786e-14)
(1760 -6.19722e-10 3.57917e-14)
(1760 -6.13764e-10 3.57861e-14)
(1760 -6.02245e-10 3.72154e-14)
(1760 -5.86992e-10 3.68522e-14)
(1760 -5.70555e-10 3.55293e-14)
(1760 -5.52011e-10 3.83044e-14)
(1760 -5.36792e-10 3.91102e-14)
(1760 -5.16054e-10 3.41571e-14)
(1760 -4.95288e-10 3.53471e-14)
(1760 -4.8001e-10 3.15633e-14)
(1760 -4.62979e-10 3.18751e-14)
(1760 8.01937e-07 2.71374e-14)
(1760 9.03701e-07 2.55249e-14)
(1760 1.01604e-06 2.48636e-14)
(1760 1.13891e-06 2.40237e-14)
(1760 1.27293e-06 2.65307e-14)
(1760 1.41997e-06 2.48401e-14)
(1760 1.58309e-06 2.39888e-14)
(1760 1.7661e-06 2.56982e-14)
(1760 1.97345e-06 2.61024e-14)
(1760 2.21074e-06 2.65804e-14)
(1760 2.48528e-06 2.55221e-14)
(1760 2.80566e-06 2.51103e-14)
(1760 3.1808e-06 2.64289e-14)
(1760 3.61721e-06 2.65626e-14)
(1760 4.11578e-06 2.39961e-14)
(1760 4.67212e-06 2.53687e-14)
(1760 5.27798e-06 2.67324e-14)
(1760 5.92227e-06 2.4285e-14)
(1760 6.59522e-06 2.56002e-14)
(1760 7.29471e-06 2.31884e-14)
(1760 8.02932e-06 2.23052e-14)
(1760 8.81424e-06 2.35653e-14)
(1760 9.66199e-06 2.30314e-14)
(1760 1.05742e-05 2.37107e-14)
(1760 1.15404e-05 2.31399e-14)
(1760 1.25468e-05 2.3524e-14)
(1760 1.35872e-05 2.3974e-14)
(1760 1.46665e-05 2.38798e-14)
(1760 1.57941e-05 2.45363e-14)
(1760 1.69735e-05 2.42574e-14)
(1760 1.81982e-05 2.37806e-14)
(1760 1.94515e-05 2.35571e-14)
(1760 2.07109e-05 2.31568e-14)
(1760 2.19539e-05 2.42013e-14)
(1760 2.31637e-05 2.35309e-14)
(1760 2.43283e-05 2.44933e-14)
(1760 2.54429e-05 2.46842e-14)
(1760 2.65188e-05 2.44512e-14)
(1760 2.75826e-05 2.30379e-14)
(1760 2.86705e-05 2.0917e-14)
(1760 2.98318e-05 2.10684e-14)
(1760 3.11342e-05 2.21277e-14)
(1760 3.26595e-05 2.25679e-14)
(1760 3.44826e-05 2.19172e-14)
(1760 3.66333e-05 2.0452e-14)
(1760 3.90604e-05 2.11422e-14)
(1760 4.16463e-05 2.16962e-14)
(1760 4.4262e-05 2.1775e-14)
(1760 4.68079e-05 2.22312e-14)
(1760 4.92198e-05 2.09289e-14)
(1760 5.14613e-05 2.2445e-14)
(1760 5.35151e-05 2.22044e-14)
(1760 5.53776e-05 2.27383e-14)
(1760 5.70542e-05 2.059e-14)
(1760 5.85544e-05 2.10113e-14)
(1760 5.98876e-05 2.26755e-14)
(1760 6.10588e-05 2.25453e-14)
(1760 6.20691e-05 2.37339e-14)
(1760 6.29159e-05 2.03701e-14)
(1760 6.3588e-05 1.8723e-14)
(1760 6.40685e-05 2.22646e-14)
(1760 6.43305e-05 2.22629e-14)
(1760 6.44078e-05 2.0247e-14)
(1760 6.44529e-05 2.04913e-14)
(1760 6.42337e-05 2.15437e-14)
(1760 6.37601e-05 2.01011e-14)
(1760 6.30658e-05 2.07237e-14)
(1760 6.21476e-05 2.11967e-14)
(1760 6.10027e-05 2.06193e-14)
(1760 5.96339e-05 2.11629e-14)
(1760 5.80495e-05 2.05146e-14)
(1760 5.62624e-05 2.07514e-14)
(1760 5.42872e-05 1.97847e-14)
(1760 5.21405e-05 2.30295e-14)
(1760 4.98412e-05 2.18224e-14)
(1760 4.74114e-05 1.90605e-14)
(1760 4.48749e-05 1.99292e-14)
(1760 4.22513e-05 1.99059e-14)
(1760 3.9555e-05 2.15526e-14)
(1760 3.68014e-05 1.97862e-14)
(1760 3.401e-05 2.05232e-14)