/*--------------------------------*- C++ -*----------------------------------*\
| =========                 |                                                 |
| \\      /  F ield         | OpenFOAM: The Open Source CFD Toolbox           |
|  \\    /   O peration     | Version:  v1706                                 |
|   \\  /    A nd           | Web:      www.OpenFOAM.com                      |
|    \\/     M anipulation  |                                                 |
\*---------------------------------------------------------------------------*/
FoamFile
{
    version     2.0;
    format      ascii;
    class       volVectorField;
    location    "1.8e-05";
    object      U;
}
// * * * * * * * * * * * * * * * * * * * * * * * * * * * * * * * * * * * * * //

dimensions      [0 1 -1 0 0 0 0];


internalField   nonuniform List<vector> 
29987
(
(2764.5 -2.08824e-08 4.07772e-11)
(2764.5 -6.56052e-09 1.19893e-11)
(2764.5 -3.16031e-09 5.80952e-12)
(2764.5 -1.95612e-09 3.5002e-12)
(2764.5 -1.33606e-09 2.32291e-12)
(2764.5 -9.66466e-10 1.6791e-12)
(2764.5 -7.301e-10 1.28914e-12)
(2764.5 -5.71951e-10 1.0077e-12)
(2764.5 -4.62482e-10 8.07808e-13)
(2764.5 -3.81028e-10 6.85882e-13)
(2764.5 -3.20191e-10 5.22862e-13)
(2764.5 -2.72254e-10 4.54895e-13)
(2764.5 -2.35273e-10 4.23003e-13)
(2764.5 -2.05225e-10 3.49469e-13)
(2764.5 -1.80706e-10 3.11007e-13)
(2764.5 -1.69073e-10 2.62499e-13)
(2764.5 -1.47289e-10 2.19399e-13)
(2764.5 -1.32116e-10 1.95106e-13)
(2764.5 -1.19798e-10 1.85626e-13)
(2764.5 -1.12196e-10 1.74051e-13)
(2764.5 -1.00717e-10 1.688e-13)
(2764.5 -9.67099e-11 1.38143e-13)
(2764.5 -8.78558e-11 1.31994e-13)
(2764.5 -8.22279e-11 1.13177e-13)
(2764.5 -7.5817e-11 1.16314e-13)
(2764.5 -7.20539e-11 1.1317e-13)
(2764.5 -6.58063e-11 9.00727e-14)
(2764.5 -6.5522e-11 7.95615e-14)
(2764.5 -5.89952e-11 8.95421e-14)
(2764.5 -5.87807e-11 7.98623e-14)
(2764.5 -5.43397e-11 8.79342e-14)
(2764.5 -5.45691e-11 7.37281e-14)
(2764.5 -4.90731e-11 6.68634e-14)
(2764.5 -4.87877e-11 6.06098e-14)
(2764.5 -4.71247e-11 6.24751e-14)
(2764.5 -4.54505e-11 5.54332e-14)
(2764.5 -4.31565e-11 5.44635e-14)
(2764.5 -3.90324e-11 4.31664e-14)
(2764.5 -3.99931e-11 4.13439e-14)
(2764.5 -4.17983e-11 4.8267e-14)
(2764.5 -3.87153e-11 3.71849e-14)
(2764.5 -3.62837e-11 3.84158e-14)
(2764.5 -3.73831e-11 4.51788e-14)
(2764.5 -3.43625e-11 3.95641e-14)
(2764.5 -3.53082e-11 3.90783e-14)
(2764.5 -3.18291e-11 3.2827e-14)
(2764.5 -3.50224e-11 4.44e-14)
(2764.5 -3.36342e-11 3.22803e-14)
(2764.5 -3.14356e-11 3.02329e-14)
(2764.5 -3.08743e-11 3.25042e-14)
(2764.5 -2.98617e-11 3.12816e-14)
(2764.5 -2.97799e-11 3.00385e-14)
(2764.5 -2.9056e-11 2.85083e-14)
(2764.5 -3.08192e-11 2.67036e-14)
(2764.5 -2.89246e-11 2.87486e-14)
(2764.5 -2.48755e-11 2.2328e-14)
(2764.5 -2.90784e-11 1.83513e-14)
(2764.5 -2.84402e-11 1.82947e-14)
(2764.5 -3.18075e-11 2.18669e-14)
(2764.5 -2.90776e-11 2.6961e-14)
(2764.5 -2.66795e-11 2.56613e-14)
(2764.5 -2.76737e-11 1.34775e-14)
(2764.5 -2.72769e-11 1.89281e-14)
(2764.5 -2.51527e-11 2.16698e-14)
(2764.5 -2.55547e-11 1.65485e-14)
(2764.5 -2.47325e-11 1.56266e-14)
(2764.5 -2.45021e-11 1.50912e-14)
(2764.5 -2.55628e-11 1.80653e-14)
(2764.5 -2.65356e-11 1.90132e-14)
(2764.5 -2.61302e-11 1.74753e-14)
(2764.5 -2.61957e-11 1.4604e-14)
(2764.5 -2.61298e-11 1.57694e-14)
(2764.5 -2.7644e-11 1.45318e-14)
(2764.5 -2.35796e-11 1.44496e-14)
(2764.5 -2.0913e-11 1.85672e-14)
(2764.5 -2.36916e-11 1.67409e-14)
(2764.5 -2.40912e-11 1.44541e-14)
(2764.5 -2.48961e-11 1.62507e-14)
(2764.5 -2.52629e-11 1.15519e-14)
(2764.5 -2.24919e-11 6.84114e-15)
(2764.5 -2.31467e-11 1.00116e-14)
(2764.5 -2.49388e-11 1.20641e-14)
(2764.5 -2.55354e-11 9.55569e-15)
(2764.5 -2.44755e-11 1.10124e-14)
(2764.5 -2.33544e-11 1.12201e-14)
(2764.5 -2.44449e-11 9.74712e-15)
(2764.5 -2.50884e-11 9.40037e-15)
(2764.5 -2.59386e-11 9.32159e-15)
(2764.5 -2.51231e-11 1.23259e-14)
(2764.5 -2.61113e-11 9.13743e-15)
(2764.5 -2.58934e-11 7.03072e-15)
(2764.5 -2.51334e-11 6.99137e-15)
(2764.5 -2.33276e-11 1.05211e-14)
(2764.5 -2.41256e-11 1.23923e-14)
(2764.5 -2.44974e-11 1.2848e-14)
(2764.5 -2.42875e-11 1.17822e-14)
(2764.5 -2.29858e-11 6.58253e-15)
(2764.5 -2.26055e-11 9.50064e-15)
(2764.5 -2.43125e-11 1.18641e-14)
(2764.5 -2.33439e-11 8.78143e-15)
(2764.5 -2.49736e-11 7.71755e-15)
(2764.5 -2.57004e-11 1.28642e-14)
(2764.5 -2.41668e-11 1.24883e-14)
(2764.5 -2.31291e-11 9.72204e-15)
(2764.5 -2.3295e-11 1.03004e-14)
(2764.5 -2.44108e-11 9.42627e-15)
(2764.5 -2.60956e-11 6.87188e-15)
(2764.5 -2.74813e-11 6.11876e-15)
(2764.5 -2.58269e-11 9.18923e-15)
(2764.5 -2.44694e-11 7.0562e-15)
(2764.5 -2.51491e-11 6.7914e-15)
(2764.5 -2.56224e-11 6.81868e-15)
(2764.5 -2.50609e-11 8.96203e-15)
(2764.5 -2.54723e-11 7.3149e-15)
(2764.5 -2.63693e-11 9.69856e-15)
(2764.5 -2.61607e-11 6.74702e-15)
(2764.5 -2.65903e-11 7.90909e-15)
(2764.5 -2.60057e-11 1.23239e-14)
(2764.5 -2.5037e-11 1.10339e-14)
(2764.5 -2.6711e-11 6.31705e-15)
(2764.5 -2.86865e-11 7.22123e-15)
(2764.5 -2.9879e-11 8.49703e-15)
(2764.5 -2.97855e-11 6.62229e-15)
(2764.5 -3.03617e-11 7.93059e-15)
(2764.5 -3.0621e-11 9.68497e-15)
(2764.5 -3.12133e-11 8.34435e-15)
(2764.5 -3.08111e-11 9.02397e-15)
(2764.5 -3.04803e-11 7.20054e-15)
(2764.5 -3.16162e-11 9.78577e-15)
(2764.5 -3.21234e-11 8.63823e-15)
(2764.5 -3.08117e-11 7.97955e-15)
(2764.5 -3.11712e-11 1.20111e-14)
(2764.5 -3.12586e-11 8.14188e-15)
(2764.5 -3.23725e-11 6.21701e-15)
(2764.5 -3.07995e-11 5.82235e-15)
(2764.5 -3.16457e-11 3.30381e-15)
(2764.5 -3.00937e-11 8.90078e-15)
(2764.5 -2.89089e-11 8.68519e-15)
(2764.5 -2.90408e-11 6.89486e-15)
(2764.5 -2.58147e-11 7.42582e-15)
(2764.5 -2.93439e-11 2.20478e-15)
(2764.5 -3.24391e-11 1.75594e-15)
(2764.5 -3.68412e-11 1.03656e-14)
(2764.5 -3.62258e-11 3.01679e-15)
(2764.5 -3.83128e-11 6.74513e-15)
(2764.5 -3.62799e-11 9.48432e-15)
(2764.5 -3.16406e-11 9.80452e-15)
(2764.5 -3.28934e-11 8.46143e-15)
(2764.5 -3.43999e-11 7.61728e-15)
(2764.5 -3.78459e-11 7.91143e-15)
(2764.5 -3.99232e-11 9.9356e-16)
(2764.5 -3.94274e-11 5.58565e-15)
(2764.5 -3.94695e-11 3.94065e-15)
(2764.5 -4.07814e-11 8.79008e-15)
(2764.5 -3.43188e-11 4.74398e-15)
(2764.5 -3.78249e-11 9.04262e-15)
(2764.5 -6.69611e-08 1.17799e-10)
(2764.5 -2.47823e-08 4.14254e-11)
(2764.5 -1.1352e-08 1.87458e-11)
(2764.5 -6.60827e-09 1.10873e-11)
(2764.5 -4.38566e-09 7.38775e-12)
(2764.5 -3.13989e-09 5.31376e-12)
(2764.5 -2.37409e-09 4.00558e-12)
(2764.5 -1.85943e-09 3.0983e-12)
(2764.5 -1.50044e-09 2.50881e-12)
(2764.5 -1.23134e-09 2.03684e-12)
(2764.5 -1.02742e-09 1.61119e-12)
(2764.5 -8.7908e-10 1.41373e-12)
(2764.5 -7.58732e-10 1.18803e-12)
(2764.5 -6.59441e-10 1.04598e-12)
(2764.5 -5.86961e-10 8.93382e-13)
(2764.5 -5.26546e-10 8.22844e-13)
(2764.5 -4.70793e-10 6.93857e-13)
(2764.5 -4.27714e-10 6.27487e-13)
(2764.5 -3.85678e-10 5.85745e-13)
(2764.5 -3.54671e-10 5.26522e-13)
(2764.5 -3.24228e-10 4.88868e-13)
(2764.5 -3.06609e-10 4.13955e-13)
(2764.5 -2.82771e-10 3.92949e-13)
(2764.5 -2.59751e-10 3.51167e-13)
(2764.5 -2.4607e-10 3.46357e-13)
(2764.5 -2.29589e-10 3.37504e-13)
(2764.5 -2.10666e-10 3.06202e-13)
(2764.5 -2.07366e-10 2.7358e-13)
(2764.5 -1.94711e-10 2.71193e-13)
(2764.5 -1.82037e-10 2.51526e-13)
(2764.5 -1.71447e-10 2.21781e-13)
(2764.5 -1.63809e-10 2.17224e-13)
(2764.5 -1.56294e-10 1.82226e-13)
(2764.5 -1.58658e-10 1.70571e-13)
(2764.5 -1.52635e-10 1.74575e-13)
(2764.5 -1.45821e-10 1.74755e-13)
(2764.5 -1.37111e-10 1.57979e-13)
(2764.5 -1.24321e-10 1.52775e-13)
(2764.5 -1.2594e-10 1.40339e-13)
(2764.5 -1.2513e-10 1.29024e-13)
(2764.5 -1.21399e-10 1.11361e-13)
(2764.5 -1.14172e-10 1.18116e-13)
(2764.5 -1.15498e-10 1.30432e-13)
(2764.5 -1.13184e-10 1.14505e-13)
(2764.5 -1.0784e-10 9.33287e-14)
(2764.5 -1.00729e-10 1.08e-13)
(2764.5 -9.75411e-11 1.07733e-13)
(2764.5 -1.00493e-10 8.88804e-14)
(2764.5 -9.88622e-11 8.92565e-14)
(2764.5 -1.02107e-10 9.49788e-14)
(2764.5 -9.43184e-11 9.59839e-14)
(2764.5 -9.40541e-11 8.15242e-14)
(2764.5 -8.94343e-11 7.9838e-14)
(2764.5 -8.93348e-11 6.41248e-14)
(2764.5 -9.29289e-11 7.07481e-14)
(2764.5 -8.45477e-11 6.22533e-14)
(2764.5 -7.98606e-11 6.06027e-14)
(2764.5 -8.1193e-11 6.28561e-14)
(2764.5 -8.54858e-11 7.50935e-14)
(2764.5 -8.98214e-11 7.29314e-14)
(2764.5 -8.66187e-11 6.17933e-14)
(2764.5 -8.22055e-11 4.41486e-14)
(2764.5 -8.14015e-11 6.24304e-14)
(2764.5 -8.40519e-11 5.82986e-14)
(2764.5 -7.9892e-11 5.23071e-14)
(2764.5 -7.89208e-11 5.29291e-14)
(2764.5 -7.51398e-11 4.56354e-14)
(2764.5 -7.71816e-11 5.28337e-14)
(2764.5 -7.54665e-11 5.7043e-14)
(2764.5 -7.42547e-11 4.99135e-14)
(2764.5 -7.39196e-11 4.95716e-14)
(2764.5 -7.66575e-11 5.00352e-14)
(2764.5 -7.79873e-11 4.30947e-14)
(2764.5 -7.95459e-11 4.40533e-14)
(2764.5 -7.23195e-11 5.04345e-14)
(2764.5 -7.19019e-11 5.13289e-14)
(2764.5 -7.04756e-11 4.64909e-14)
(2764.5 -7.10229e-11 4.73739e-14)
(2764.5 -7.71672e-11 3.1473e-14)
(2764.5 -7.68925e-11 2.68159e-14)
(2764.5 -7.31333e-11 3.35355e-14)
(2764.5 -7.1894e-11 3.4688e-14)
(2764.5 -7.48025e-11 3.09187e-14)
(2764.5 -7.30947e-11 3.71692e-14)
(2764.5 -7.05793e-11 4.33074e-14)
(2764.5 -6.89927e-11 4.12719e-14)
(2764.5 -6.73392e-11 3.38676e-14)
(2764.5 -7.07342e-11 3.97532e-14)
(2764.5 -6.5821e-11 3.73102e-14)
(2764.5 -6.69584e-11 2.83355e-14)
(2764.5 -7.13331e-11 3.1641e-14)
(2764.5 -7.45352e-11 2.68622e-14)
(2764.5 -7.07766e-11 3.19414e-14)
(2764.5 -7.07716e-11 3.30442e-14)
(2764.5 -7.41868e-11 3.90052e-14)
(2764.5 -7.64108e-11 3.10497e-14)
(2764.5 -7.46761e-11 2.448e-14)
(2764.5 -6.93991e-11 2.81747e-14)
(2764.5 -7.06069e-11 2.84866e-14)
(2764.5 -6.93449e-11 2.6992e-14)
(2764.5 -6.84772e-11 2.63569e-14)
(2764.5 -7.46599e-11 2.63427e-14)
(2764.5 -7.57923e-11 2.99316e-14)
(2764.5 -7.46846e-11 1.99381e-14)
(2764.5 -7.50218e-11 2.0727e-14)
(2764.5 -7.18519e-11 2.06341e-14)
(2764.5 -7.17714e-11 2.12564e-14)
(2764.5 -7.42414e-11 2.20143e-14)
(2764.5 -7.78061e-11 2.04119e-14)
(2764.5 -7.55351e-11 2.01031e-14)
(2764.5 -7.56131e-11 2.34865e-14)
(2764.5 -7.83172e-11 2.34245e-14)
(2764.5 -7.58261e-11 2.24471e-14)
(2764.5 -7.3931e-11 2.36725e-14)
(2764.5 -7.42358e-11 2.77358e-14)
(2764.5 -7.36595e-11 2.60269e-14)
(2764.5 -7.51973e-11 2.8262e-14)
(2764.5 -7.6987e-11 2.78048e-14)
(2764.5 -7.45359e-11 2.25056e-14)
(2764.5 -7.30078e-11 1.80464e-14)
(2764.5 -7.37743e-11 1.98909e-14)
(2764.5 -7.69018e-11 2.06076e-14)
(2764.5 -7.90141e-11 2.11392e-14)
(2764.5 -8.03822e-11 2.34989e-14)
(2764.5 -8.19221e-11 2.46339e-14)
(2764.5 -8.32389e-11 2.24734e-14)
(2764.5 -8.45223e-11 2.231e-14)
(2764.5 -8.46009e-11 2.14828e-14)
(2764.5 -8.66766e-11 2.16883e-14)
(2764.5 -8.76696e-11 2.34792e-14)
(2764.5 -8.81355e-11 2.36266e-14)
(2764.5 -9.01747e-11 1.98694e-14)
(2764.5 -9.05976e-11 2.01082e-14)
(2764.5 -9.31104e-11 2.22477e-14)
(2764.5 -9.05368e-11 1.9677e-14)
(2764.5 -9.11079e-11 1.68953e-14)
(2764.5 -9.21482e-11 2.90015e-14)
(2764.5 -9.30313e-11 1.66284e-14)
(2764.5 -9.73505e-11 1.81642e-14)
(2764.5 -9.40566e-11 2.01217e-14)
(2764.5 -8.32958e-11 1.77993e-14)
(2764.5 -8.36121e-11 1.98169e-14)
(2764.5 -8.54752e-11 1.82905e-14)
(2764.5 -8.97449e-11 2.15619e-14)
(2764.5 -9.24277e-11 1.86991e-14)
(2764.5 -9.89651e-11 2.27388e-14)
(2764.5 -1.03298e-10 2.31802e-14)
(2764.5 -9.84983e-11 2.36234e-14)
(2764.5 -9.61845e-11 2.52903e-14)
(2764.5 -9.53619e-11 1.81568e-14)
(2764.5 -1.02321e-10 1.7465e-14)
(2764.5 -1.04808e-10 1.42935e-14)
(2764.5 -1.07526e-10 1.54474e-14)
(2764.5 -1.13523e-10 1.8241e-14)
(2764.5 -1.14361e-10 1.57293e-14)
(2764.5 -1.11828e-10 1.84065e-14)
(2764.5 -1.0628e-07 1.82028e-10)
(2764.5 -4.53323e-08 7.33667e-11)
(2764.5 -2.12537e-08 3.34578e-11)
(2764.5 -1.2034e-08 1.91697e-11)
(2764.5 -7.83647e-09 1.25195e-11)
(2764.5 -5.56414e-09 8.86708e-12)
(2764.5 -4.18185e-09 6.69731e-12)
(2764.5 -3.2698e-09 5.15175e-12)
(2764.5 -2.62882e-09 4.16789e-12)
(2764.5 -2.15643e-09 3.37166e-12)
(2764.5 -1.80064e-09 2.79043e-12)
(2764.5 -1.53397e-09 2.39649e-12)
(2764.5 -1.32218e-09 2.01878e-12)
(2764.5 -1.15417e-09 1.74804e-12)
(2764.5 -1.02539e-09 1.53668e-12)
(2764.5 -9.12076e-10 1.36467e-12)
(2764.5 -8.1938e-10 1.16814e-12)
(2764.5 -7.43935e-10 1.08083e-12)
(2764.5 -6.7668e-10 9.63942e-13)
(2764.5 -6.2153e-10 8.96192e-13)
(2764.5 -5.61357e-10 7.99893e-13)
(2764.5 -5.26153e-10 6.94421e-13)
(2764.5 -4.86477e-10 6.73226e-13)
(2764.5 -4.52944e-10 6.05017e-13)
(2764.5 -4.2033e-10 5.95357e-13)
(2764.5 -3.97863e-10 5.56771e-13)
(2764.5 -3.70219e-10 5.27958e-13)
(2764.5 -3.56608e-10 4.66833e-13)
(2764.5 -3.36339e-10 4.2264e-13)
(2764.5 -3.21388e-10 4.09077e-13)
(2764.5 -2.98095e-10 3.62806e-13)
(2764.5 -2.82629e-10 3.70846e-13)
(2764.5 -2.66463e-10 3.14616e-13)
(2764.5 -2.63546e-10 3.1296e-13)
(2764.5 -2.58377e-10 3.11615e-13)
(2764.5 -2.45895e-10 2.76454e-13)
(2764.5 -2.38743e-10 2.55666e-13)
(2764.5 -2.23332e-10 2.62614e-13)
(2764.5 -2.17399e-10 2.54374e-13)
(2764.5 -2.11355e-10 2.21806e-13)
(2764.5 -2.0948e-10 2.12841e-13)
(2764.5 -2.00851e-10 2.08598e-13)
(2764.5 -1.94713e-10 2.13601e-13)
(2764.5 -1.89816e-10 1.9773e-13)
(2764.5 -1.83289e-10 1.69519e-13)
(2764.5 -1.73998e-10 1.76873e-13)
(2764.5 -1.70907e-10 1.70023e-13)
(2764.5 -1.67906e-10 1.68422e-13)
(2764.5 -1.67279e-10 1.61285e-13)
(2764.5 -1.69439e-10 1.73339e-13)
(2764.5 -1.64672e-10 1.55378e-13)
(2764.5 -1.58708e-10 1.41889e-13)
(2764.5 -1.50857e-10 1.3442e-13)
(2764.5 -1.54333e-10 1.30099e-13)
(2764.5 -1.55933e-10 1.26762e-13)
(2764.5 -1.47975e-10 1.21421e-13)
(2764.5 -1.39027e-10 1.1177e-13)
(2764.5 -1.36565e-10 1.06767e-13)
(2764.5 -1.40823e-10 1.19204e-13)
(2764.5 -1.42144e-10 1.1204e-13)
(2764.5 -1.44661e-10 1.06078e-13)
(2764.5 -1.41962e-10 1.07558e-13)
(2764.5 -1.35327e-10 1.03713e-13)
(2764.5 -1.34218e-10 8.45675e-14)
(2764.5 -1.34287e-10 9.3197e-14)
(2764.5 -1.34803e-10 8.99702e-14)
(2764.5 -1.30446e-10 8.02946e-14)
(2764.5 -1.28164e-10 9.09385e-14)
(2764.5 -1.28274e-10 8.35502e-14)
(2764.5 -1.25125e-10 7.94267e-14)
(2764.5 -1.23268e-10 7.63645e-14)
(2764.5 -1.26177e-10 7.77252e-14)
(2764.5 -1.29206e-10 7.2365e-14)
(2764.5 -1.29004e-10 7.51821e-14)
(2764.5 -1.23495e-10 8.14746e-14)
(2764.5 -1.19279e-10 8.25515e-14)
(2764.5 -1.18004e-10 6.96326e-14)
(2764.5 -1.17046e-10 7.02311e-14)
(2764.5 -1.2009e-10 6.75534e-14)
(2764.5 -1.21826e-10 6.20252e-14)
(2764.5 -1.16184e-10 6.09176e-14)
(2764.5 -1.19543e-10 5.75197e-14)
(2764.5 -1.2952e-10 5.44797e-14)
(2764.5 -1.24861e-10 5.48495e-14)
(2764.5 -1.21205e-10 5.71824e-14)
(2764.5 -1.19491e-10 5.39783e-14)
(2764.5 -1.18921e-10 5.93668e-14)
(2764.5 -1.21895e-10 6.7161e-14)
(2764.5 -1.18682e-10 5.84247e-14)
(2764.5 -1.14495e-10 5.55665e-14)
(2764.5 -1.15044e-10 5.07332e-14)
(2764.5 -1.19864e-10 5.01007e-14)
(2764.5 -1.17765e-10 5.76573e-14)
(2764.5 -1.14228e-10 6.36876e-14)
(2764.5 -1.16479e-10 6.50204e-14)
(2764.5 -1.20759e-10 4.59741e-14)
(2764.5 -1.2128e-10 4.02741e-14)
(2764.5 -1.19141e-10 4.49905e-14)
(2764.5 -1.18476e-10 4.8046e-14)
(2764.5 -1.16856e-10 4.81824e-14)
(2764.5 -1.12391e-10 4.16471e-14)
(2764.5 -1.16288e-10 4.5713e-14)
(2764.5 -1.19767e-10 4.81435e-14)
(2764.5 -1.20909e-10 4.19183e-14)
(2764.5 -1.21739e-10 4.80454e-14)
(2764.5 -1.22854e-10 4.40635e-14)
(2764.5 -1.21145e-10 3.99423e-14)
(2764.5 -1.19649e-10 3.6684e-14)
(2764.5 -1.22299e-10 3.83703e-14)
(2764.5 -1.2456e-10 4.17244e-14)
(2764.5 -1.23453e-10 3.63784e-14)
(2764.5 -1.29674e-10 3.56737e-14)
(2764.5 -1.30029e-10 3.60115e-14)
(2764.5 -1.27794e-10 3.97943e-14)
(2764.5 -1.29091e-10 3.86925e-14)
(2764.5 -1.28095e-10 4.29808e-14)
(2764.5 -1.28732e-10 4.57324e-14)
(2764.5 -1.29363e-10 4.68772e-14)
(2764.5 -1.28029e-10 3.97599e-14)
(2764.5 -1.27698e-10 3.80564e-14)
(2764.5 -1.27565e-10 3.82443e-14)
(2764.5 -1.26987e-10 3.773e-14)
(2764.5 -1.29496e-10 3.67479e-14)
(2764.5 -1.30372e-10 3.37614e-14)
(2764.5 -1.33196e-10 3.33799e-14)
(2764.5 -1.35861e-10 3.46078e-14)
(2764.5 -1.37441e-10 3.45335e-14)
(2764.5 -1.38915e-10 3.47418e-14)
(2764.5 -1.42864e-10 3.94542e-14)
(2764.5 -1.43202e-10 3.80275e-14)
(2764.5 -1.42884e-10 3.45117e-14)
(2764.5 -1.42934e-10 3.73403e-14)
(2764.5 -1.45765e-10 3.90622e-14)
(2764.5 -1.49634e-10 3.46665e-14)
(2764.5 -1.52392e-10 3.55814e-14)
(2764.5 -1.52232e-10 3.0414e-14)
(2764.5 -1.54699e-10 2.5402e-14)
(2764.5 -1.5248e-10 3.74749e-14)
(2764.5 -1.53776e-10 4.21181e-14)
(2764.5 -1.54837e-10 3.28616e-14)
(2764.5 -1.55798e-10 2.61405e-14)
(2764.5 -1.49054e-10 2.18074e-14)
(2764.5 -1.47628e-10 3.33353e-14)
(2764.5 -1.43927e-10 2.49952e-14)
(2764.5 -1.47985e-10 3.41166e-14)
(2764.5 -1.54982e-10 3.06589e-14)
(2764.5 -1.65012e-10 3.18324e-14)
(2764.5 -1.652e-10 3.26462e-14)
(2764.5 -1.62637e-10 3.57149e-14)
(2764.5 -1.60182e-10 2.93023e-14)
(2764.5 -1.66895e-10 3.2498e-14)
(2764.5 -1.66941e-10 3.40954e-14)
(2764.5 -1.71437e-10 3.16556e-14)
(2764.5 -1.73947e-10 2.51082e-14)
(2764.5 -1.78597e-10 3.23974e-14)
(2764.5 -1.79057e-10 3.28907e-14)
(2764.5 -1.37732e-07 2.33337e-10)
(2764.5 -6.63988e-08 1.0522e-10)
(2764.5 -3.25575e-08 4.95134e-11)
(2764.5 -1.83119e-08 2.7707e-11)
(2764.5 -1.17456e-08 1.78071e-11)
(2764.5 -8.25365e-09 1.25334e-11)
(2764.5 -6.1689e-09 9.4069e-12)
(2764.5 -4.8137e-09 7.28898e-12)
(2764.5 -3.86228e-09 5.84748e-12)
(2764.5 -3.15815e-09 4.79626e-12)
(2764.5 -2.63497e-09 3.8998e-12)
(2764.5 -2.24346e-09 3.35893e-12)
(2764.5 -1.93104e-09 2.88664e-12)
(2764.5 -1.68853e-09 2.49852e-12)
(2764.5 -1.49192e-09 2.24357e-12)
(2764.5 -1.3325e-09 1.92692e-12)
(2764.5 -1.19614e-09 1.68502e-12)
(2764.5 -1.08331e-09 1.50765e-12)
(2764.5 -9.81943e-10 1.32692e-12)
(2764.5 -9.03525e-10 1.26654e-12)
(2764.5 -8.25136e-10 1.11409e-12)
(2764.5 -7.62375e-10 1.03165e-12)
(2764.5 -7.03343e-10 9.52876e-13)
(2764.5 -6.58935e-10 8.78012e-13)
(2764.5 -6.09226e-10 8.16787e-13)
(2764.5 -5.79718e-10 7.57077e-13)
(2764.5 -5.43401e-10 6.98615e-13)
(2764.5 -5.12389e-10 6.36258e-13)
(2764.5 -4.81337e-10 6.13224e-13)
(2764.5 -4.62465e-10 5.66275e-13)
(2764.5 -4.37034e-10 5.34921e-13)
(2764.5 -4.12268e-10 5.07937e-13)
(2764.5 -3.90882e-10 4.83263e-13)
(2764.5 -3.78612e-10 4.53735e-13)
(2764.5 -3.64772e-10 4.30603e-13)
(2764.5 -3.49403e-10 3.97275e-13)
(2764.5 -3.42711e-10 3.78855e-13)
(2764.5 -3.2582e-10 3.45738e-13)
(2764.5 -3.13241e-10 3.54728e-13)
(2764.5 -3.06191e-10 3.15789e-13)
(2764.5 -2.99236e-10 3.04406e-13)
(2764.5 -2.92462e-10 2.83082e-13)
(2764.5 -2.79556e-10 2.84014e-13)
(2764.5 -2.71025e-10 2.65056e-13)
(2764.5 -2.64215e-10 2.67698e-13)
(2764.5 -2.52187e-10 2.43735e-13)
(2764.5 -2.45883e-10 2.46116e-13)
(2764.5 -2.39429e-10 2.36038e-13)
(2764.5 -2.37568e-10 2.36191e-13)
(2764.5 -2.35559e-10 2.29976e-13)
(2764.5 -2.34262e-10 2.07599e-13)
(2764.5 -2.25518e-10 2.0594e-13)
(2764.5 -2.14528e-10 1.93755e-13)
(2764.5 -2.18024e-10 1.89724e-13)
(2764.5 -2.19801e-10 1.70221e-13)
(2764.5 -2.15155e-10 1.7168e-13)
(2764.5 -2.02467e-10 1.65692e-13)
(2764.5 -1.96758e-10 1.60826e-13)
(2764.5 -2.01788e-10 1.67899e-13)
(2764.5 -1.99279e-10 1.63884e-13)
(2764.5 -1.98997e-10 1.53803e-13)
(2764.5 -2.05788e-10 1.40868e-13)
(2764.5 -2.0095e-10 1.35601e-13)
(2764.5 -1.91298e-10 1.31547e-13)
(2764.5 -1.86135e-10 1.46275e-13)
(2764.5 -1.88879e-10 1.34673e-13)
(2764.5 -1.87045e-10 1.22911e-13)
(2764.5 -1.86926e-10 1.28154e-13)
(2764.5 -1.84604e-10 1.07921e-13)
(2764.5 -1.81153e-10 1.0382e-13)
(2764.5 -1.75284e-10 1.03916e-13)
(2764.5 -1.75614e-10 1.137e-13)
(2764.5 -1.81196e-10 1.1117e-13)
(2764.5 -1.82728e-10 1.13337e-13)
(2764.5 -1.79116e-10 1.0655e-13)
(2764.5 -1.74407e-10 1.03734e-13)
(2764.5 -1.70393e-10 1.05322e-13)
(2764.5 -1.65818e-10 1.08072e-13)
(2764.5 -1.68183e-10 1.00263e-13)
(2764.5 -1.69205e-10 9.09055e-14)
(2764.5 -1.62994e-10 8.19472e-14)
(2764.5 -1.6477e-10 9.24398e-14)
(2764.5 -1.69749e-10 8.62413e-14)
(2764.5 -1.73022e-10 8.59599e-14)
(2764.5 -1.70587e-10 8.29679e-14)
(2764.5 -1.68734e-10 8.7386e-14)
(2764.5 -1.68073e-10 8.63011e-14)
(2764.5 -1.68593e-10 8.00724e-14)
(2764.5 -1.69372e-10 7.38836e-14)
(2764.5 -1.65991e-10 7.92812e-14)
(2764.5 -1.6727e-10 7.82989e-14)
(2764.5 -1.68874e-10 7.9052e-14)
(2764.5 -1.66465e-10 8.05678e-14)
(2764.5 -1.65456e-10 8.74985e-14)
(2764.5 -1.63159e-10 7.40553e-14)
(2764.5 -1.65824e-10 6.99331e-14)
(2764.5 -1.68462e-10 7.55774e-14)
(2764.5 -1.6973e-10 6.72758e-14)
(2764.5 -1.68533e-10 6.61495e-14)
(2764.5 -1.68392e-10 6.44112e-14)
(2764.5 -1.62637e-10 5.93352e-14)
(2764.5 -1.62341e-10 6.36049e-14)
(2764.5 -1.64962e-10 6.66173e-14)
(2764.5 -1.65933e-10 6.65874e-14)
(2764.5 -1.65365e-10 6.65878e-14)
(2764.5 -1.70779e-10 6.45553e-14)
(2764.5 -1.71532e-10 6.1206e-14)
(2764.5 -1.69829e-10 5.97338e-14)
(2764.5 -1.70147e-10 5.71177e-14)
(2764.5 -1.7102e-10 5.10215e-14)
(2764.5 -1.7281e-10 5.26017e-14)
(2764.5 -1.74932e-10 5.16583e-14)
(2764.5 -1.78854e-10 5.6884e-14)
(2764.5 -1.79473e-10 5.77317e-14)
(2764.5 -1.80142e-10 6.03256e-14)
(2764.5 -1.80929e-10 6.02253e-14)
(2764.5 -1.84122e-10 6.16735e-14)
(2764.5 -1.84214e-10 5.82233e-14)
(2764.5 -1.84594e-10 5.15283e-14)
(2764.5 -1.82264e-10 5.31945e-14)
(2764.5 -1.83821e-10 5.39171e-14)
(2764.5 -1.81008e-10 5.24803e-14)
(2764.5 -1.821e-10 4.95953e-14)
(2764.5 -1.82194e-10 5.00686e-14)
(2764.5 -1.82754e-10 5.36471e-14)
(2764.5 -1.84693e-10 5.19059e-14)
(2764.5 -1.85382e-10 5.55719e-14)
(2764.5 -1.87026e-10 5.67587e-14)
(2764.5 -1.9027e-10 5.05607e-14)
(2764.5 -1.93636e-10 4.86642e-14)
(2764.5 -1.95904e-10 4.96924e-14)
(2764.5 -1.94658e-10 5.09998e-14)
(2764.5 -1.95521e-10 4.8111e-14)
(2764.5 -1.98855e-10 4.79657e-14)
(2764.5 -2.04667e-10 4.87241e-14)
(2764.5 -2.0801e-10 4.87792e-14)
(2764.5 -2.13357e-10 5.10778e-14)
(2764.5 -2.13123e-10 5.57345e-14)
(2764.5 -2.19383e-10 5.24772e-14)
(2764.5 -2.17666e-10 4.47032e-14)
(2764.5 -2.18669e-10 4.32739e-14)
(2764.5 -2.16056e-10 4.462e-14)
(2764.5 -2.15407e-10 4.63281e-14)
(2764.5 -2.10033e-10 4.31778e-14)
(2764.5 -2.05396e-10 4.42481e-14)
(2764.5 -2.06826e-10 4.53629e-14)
(2764.5 -2.13053e-10 4.51964e-14)
(2764.5 -2.19894e-10 4.83707e-14)
(2764.5 -2.24791e-10 4.41599e-14)
(2764.5 -2.2452e-10 4.32562e-14)
(2764.5 -2.2665e-10 4.66897e-14)
(2764.5 -2.2804e-10 4.81621e-14)
(2764.5 -2.32425e-10 5.2391e-14)
(2764.5 -2.34854e-10 4.08641e-14)
(2764.5 -2.41417e-10 4.44969e-14)
(2764.5 -2.40629e-10 4.22615e-14)
(2764.5 -1.62697e-07 2.73934e-10)
(2764.5 -8.685e-08 1.35936e-10)
(2764.5 -4.48804e-08 6.63725e-11)
(2764.5 -2.54175e-08 3.68039e-11)
(2764.5 -1.61487e-08 2.3499e-11)
(2764.5 -1.12321e-08 1.64554e-11)
(2764.5 -8.33783e-09 1.21765e-11)
(2764.5 -6.48641e-09 9.47302e-12)
(2764.5 -5.19857e-09 7.61417e-12)
(2764.5 -4.24704e-09 6.26788e-12)
(2764.5 -3.5364e-09 5.14331e-12)
(2764.5 -3.00502e-09 4.35892e-12)
(2764.5 -2.58243e-09 3.71016e-12)
(2764.5 -2.25947e-09 3.22632e-12)
(2764.5 -1.99833e-09 2.8754e-12)
(2764.5 -1.78207e-09 2.50926e-12)
(2764.5 -1.59936e-09 2.18405e-12)
(2764.5 -1.43997e-09 1.97296e-12)
(2764.5 -1.31153e-09 1.79649e-12)
(2764.5 -1.20131e-09 1.63084e-12)
(2764.5 -1.10018e-09 1.48402e-12)
(2764.5 -1.01528e-09 1.36046e-12)
(2764.5 -9.40753e-10 1.22333e-12)
(2764.5 -8.73588e-10 1.14888e-12)
(2764.5 -8.16576e-10 1.04245e-12)
(2764.5 -7.74675e-10 1.00095e-12)
(2764.5 -7.23856e-10 9.10925e-13)
(2764.5 -6.78929e-10 8.67856e-13)
(2764.5 -6.36201e-10 8.27127e-13)
(2764.5 -6.05578e-10 7.62682e-13)
(2764.5 -5.82772e-10 6.93845e-13)
(2764.5 -5.50227e-10 6.65377e-13)
(2764.5 -5.21397e-10 6.13077e-13)
(2764.5 -4.99253e-10 5.70002e-13)
(2764.5 -4.83573e-10 5.51631e-13)
(2764.5 -4.6531e-10 5.36705e-13)
(2764.5 -4.50751e-10 4.96337e-13)
(2764.5 -4.33873e-10 4.6762e-13)
(2764.5 -4.14849e-10 4.34452e-13)
(2764.5 -4.04327e-10 4.07557e-13)
(2764.5 -3.90948e-10 4.13106e-13)
(2764.5 -3.82442e-10 3.96518e-13)
(2764.5 -3.71829e-10 3.77973e-13)
(2764.5 -3.56566e-10 3.66675e-13)
(2764.5 -3.4588e-10 3.50533e-13)
(2764.5 -3.3429e-10 3.33054e-13)
(2764.5 -3.23851e-10 3.14139e-13)
(2764.5 -3.09237e-10 3.04618e-13)
(2764.5 -3.11037e-10 2.89987e-13)
(2764.5 -3.08802e-10 2.67528e-13)
(2764.5 -3.06026e-10 2.75529e-13)
(2764.5 -2.95716e-10 2.65804e-13)
(2764.5 -2.85527e-10 2.55136e-13)
(2764.5 -2.85001e-10 2.45337e-13)
(2764.5 -2.82762e-10 2.38396e-13)
(2764.5 -2.81747e-10 2.33639e-13)
(2764.5 -2.70144e-10 2.14757e-13)
(2764.5 -2.59158e-10 2.06631e-13)
(2764.5 -2.52675e-10 2.16177e-13)
(2764.5 -2.56911e-10 1.95791e-13)
(2764.5 -2.55962e-10 1.87417e-13)
(2764.5 -2.61724e-10 1.77221e-13)
(2764.5 -2.61386e-10 1.78759e-13)
(2764.5 -2.52844e-10 1.89679e-13)
(2764.5 -2.45305e-10 1.73855e-13)
(2764.5 -2.44388e-10 1.77844e-13)
(2764.5 -2.4206e-10 1.69412e-13)
(2764.5 -2.42141e-10 1.53911e-13)
(2764.5 -2.39073e-10 1.59201e-13)
(2764.5 -2.35307e-10 1.5708e-13)
(2764.5 -2.2978e-10 1.48319e-13)
(2764.5 -2.32264e-10 1.50063e-13)
(2764.5 -2.30915e-10 1.42771e-13)
(2764.5 -2.2996e-10 1.39939e-13)
(2764.5 -2.298e-10 1.43021e-13)
(2764.5 -2.29948e-10 1.38859e-13)
(2764.5 -2.27264e-10 1.37954e-13)
(2764.5 -2.20645e-10 1.29571e-13)
(2764.5 -2.1967e-10 1.20786e-13)
(2764.5 -2.19159e-10 1.21493e-13)
(2764.5 -2.13057e-10 1.2822e-13)
(2764.5 -2.12334e-10 1.20288e-13)
(2764.5 -2.18164e-10 1.12162e-13)
(2764.5 -2.19847e-10 1.14822e-13)
(2764.5 -2.166e-10 1.12999e-13)
(2764.5 -2.17657e-10 1.08661e-13)
(2764.5 -2.12873e-10 1.01381e-13)
(2764.5 -2.13463e-10 1.0806e-13)
(2764.5 -2.17972e-10 1.14446e-13)
(2764.5 -2.14868e-10 1.12762e-13)
(2764.5 -2.14978e-10 1.02981e-13)
(2764.5 -2.19837e-10 1.00912e-13)
(2764.5 -2.21963e-10 9.95954e-14)
(2764.5 -2.17348e-10 9.605e-14)
(2764.5 -2.11915e-10 9.42414e-14)
(2764.5 -2.11412e-10 9.86552e-14)
(2764.5 -2.151e-10 9.16265e-14)
(2764.5 -2.16554e-10 8.84825e-14)
(2764.5 -2.13748e-10 9.03295e-14)
(2764.5 -2.19082e-10 8.38388e-14)
(2764.5 -2.13977e-10 7.85803e-14)
(2764.5 -2.09925e-10 8.25756e-14)
(2764.5 -2.11376e-10 8.53145e-14)
(2764.5 -2.1103e-10 7.94163e-14)
(2764.5 -2.09176e-10 7.9979e-14)
(2764.5 -2.10792e-10 8.38378e-14)
(2764.5 -2.16469e-10 8.06298e-14)
(2764.5 -2.17909e-10 7.9306e-14)
(2764.5 -2.21481e-10 7.59413e-14)
(2764.5 -2.20707e-10 7.66406e-14)
(2764.5 -2.22087e-10 7.61814e-14)
(2764.5 -2.22547e-10 7.38411e-14)
(2764.5 -2.24071e-10 7.76874e-14)
(2764.5 -2.27073e-10 6.5012e-14)
(2764.5 -2.27152e-10 6.5305e-14)
(2764.5 -2.27121e-10 6.9172e-14)
(2764.5 -2.31563e-10 7.43063e-14)
(2764.5 -2.3363e-10 7.16237e-14)
(2764.5 -2.35116e-10 7.24788e-14)
(2764.5 -2.35091e-10 7.32809e-14)
(2764.5 -2.36707e-10 6.932e-14)
(2764.5 -2.35986e-10 6.59345e-14)
(2764.5 -2.34842e-10 6.87318e-14)
(2764.5 -2.34259e-10 7.16178e-14)
(2764.5 -2.35358e-10 6.52132e-14)
(2764.5 -2.40036e-10 6.89371e-14)
(2764.5 -2.38549e-10 7.12658e-14)
(2764.5 -2.37901e-10 6.35703e-14)
(2764.5 -2.38195e-10 6.09485e-14)
(2764.5 -2.41322e-10 6.08955e-14)
(2764.5 -2.46922e-10 6.19847e-14)
(2764.5 -2.47566e-10 6.57996e-14)
(2764.5 -2.46924e-10 6.43968e-14)
(2764.5 -2.45703e-10 6.66606e-14)
(2764.5 -2.491e-10 6.71091e-14)
(2764.5 -2.53596e-10 6.6741e-14)
(2764.5 -2.58091e-10 6.61914e-14)
(2764.5 -2.6252e-10 6.1621e-14)
(2764.5 -2.6766e-10 6.33111e-14)
(2764.5 -2.74841e-10 5.48692e-14)
(2764.5 -2.79724e-10 6.04468e-14)
(2764.5 -2.81149e-10 5.89453e-14)
(2764.5 -2.80146e-10 6.21137e-14)
(2764.5 -2.77491e-10 5.86578e-14)
(2764.5 -2.72448e-10 6.13105e-14)
(2764.5 -2.72006e-10 6.22242e-14)
(2764.5 -2.76591e-10 5.56152e-14)
(2764.5 -2.74793e-10 5.31327e-14)
(2764.5 -2.81291e-10 5.4215e-14)
(2764.5 -2.8691e-10 5.87531e-14)
(2764.5 -2.891e-10 5.37043e-14)
(2764.5 -2.90264e-10 6.26804e-14)
(2764.5 -2.963e-10 5.57322e-14)
(2764.5 -2.97565e-10 5.43514e-14)
(2764.5 -3.01392e-10 6.21382e-14)
(2764.5 -2.99173e-10 6.00349e-14)
(2764.5 -1.82787e-07 3.07141e-10)
(2764.5 -1.06078e-07 1.64633e-10)
(2764.5 -5.78156e-08 8.34752e-11)
(2764.5 -3.32702e-08 4.65304e-11)
(2764.5 -2.106e-08 2.94819e-11)
(2764.5 -1.45286e-08 2.04538e-11)
(2764.5 -1.07099e-08 1.52528e-11)
(2764.5 -8.2995e-09 1.17202e-11)
(2764.5 -6.63554e-09 9.34644e-12)
(2764.5 -5.41106e-09 7.64916e-12)
(2764.5 -4.50648e-09 6.3536e-12)
(2764.5 -3.82299e-09 5.36646e-12)
(2764.5 -3.28529e-09 4.59733e-12)
(2764.5 -2.86827e-09 4.02211e-12)
(2764.5 -2.53632e-09 3.48929e-12)
(2764.5 -2.25816e-09 3.06128e-12)
(2764.5 -2.02567e-09 2.73121e-12)
(2764.5 -1.82784e-09 2.4242e-12)
(2764.5 -1.66056e-09 2.21346e-12)
(2764.5 -1.5198e-09 1.97337e-12)
(2764.5 -1.38946e-09 1.82202e-12)
(2764.5 -1.28353e-09 1.66199e-12)
(2764.5 -1.18672e-09 1.51235e-12)
(2764.5 -1.10361e-09 1.36127e-12)
(2764.5 -1.03123e-09 1.29104e-12)
(2764.5 -9.7533e-10 1.22231e-12)
(2764.5 -9.11523e-10 1.12516e-12)
(2764.5 -8.57592e-10 1.06525e-12)
(2764.5 -7.9961e-10 9.79813e-13)
(2764.5 -7.58075e-10 8.94736e-13)
(2764.5 -7.3059e-10 8.58425e-13)
(2764.5 -6.97741e-10 8.03488e-13)
(2764.5 -6.59341e-10 7.57586e-13)
(2764.5 -6.33923e-10 7.24018e-13)
(2764.5 -6.10301e-10 6.81384e-13)
(2764.5 -5.85336e-10 6.15062e-13)
(2764.5 -5.63423e-10 6.22563e-13)
(2764.5 -5.41712e-10 5.7942e-13)
(2764.5 -5.20341e-10 5.51261e-13)
(2764.5 -5.05068e-10 5.32695e-13)
(2764.5 -4.91875e-10 4.94161e-13)
(2764.5 -4.79494e-10 4.73587e-13)
(2764.5 -4.64283e-10 4.55263e-13)
(2764.5 -4.46698e-10 4.4602e-13)
(2764.5 -4.35281e-10 4.22919e-13)
(2764.5 -4.20002e-10 4.23364e-13)
(2764.5 -4.06549e-10 3.83732e-13)
(2764.5 -3.87949e-10 3.72503e-13)
(2764.5 -3.83054e-10 3.65121e-13)
(2764.5 -3.78479e-10 3.41865e-13)
(2764.5 -3.75702e-10 3.35052e-13)
(2764.5 -3.6803e-10 3.21354e-13)
(2764.5 -3.58899e-10 3.07882e-13)
(2764.5 -3.54373e-10 3.04618e-13)
(2764.5 -3.49113e-10 2.8594e-13)
(2764.5 -3.49324e-10 2.76791e-13)
(2764.5 -3.41179e-10 2.66142e-13)
(2764.5 -3.2922e-10 2.65814e-13)
(2764.5 -3.17984e-10 2.53284e-13)
(2764.5 -3.15959e-10 2.39375e-13)
(2764.5 -3.18104e-10 2.39372e-13)
(2764.5 -3.16637e-10 2.26046e-13)
(2764.5 -3.169e-10 2.22917e-13)
(2764.5 -3.0864e-10 2.16578e-13)
(2764.5 -3.05134e-10 2.13775e-13)
(2764.5 -3.02843e-10 2.1822e-13)
(2764.5 -3.00114e-10 2.02313e-13)
(2764.5 -2.98501e-10 1.86312e-13)
(2764.5 -2.93074e-10 1.99056e-13)
(2764.5 -2.87682e-10 1.91257e-13)
(2764.5 -2.87232e-10 1.79431e-13)
(2764.5 -2.87696e-10 1.77523e-13)
(2764.5 -2.86936e-10 1.78785e-13)
(2764.5 -2.81665e-10 1.65711e-13)
(2764.5 -2.81441e-10 1.73223e-13)
(2764.5 -2.80629e-10 1.6704e-13)
(2764.5 -2.8387e-10 1.6141e-13)
(2764.5 -2.77872e-10 1.56313e-13)
(2764.5 -2.72157e-10 1.68473e-13)
(2764.5 -2.7089e-10 1.61737e-13)
(2764.5 -2.67191e-10 1.56923e-13)
(2764.5 -2.6022e-10 1.4215e-13)