/*--------------------------------*- C++ -*----------------------------------*\
| =========                 |                                                 |
| \\      /  F ield         | OpenFOAM: The Open Source CFD Toolbox           |
|  \\    /   O peration     | Version:  v1706                                 |
|   \\  /    A nd           | Web:      www.OpenFOAM.com                      |
|    \\/     M anipulation  |                                                 |
\*---------------------------------------------------------------------------*/
FoamFile
{
    version     2.0;
    format      ascii;
    class       volScalarField;
    location    "1.8e-05";
    object      Mach;
}
// * * * * * * * * * * * * * * * * * * * * * * * * * * * * * * * * * * * * * //

dimensions      [0 0 0 0 0 0 0];


internalField   nonuniform List<scalar> 
30038
(
11.2859
11.2859
11.2859
11.2859
11.2859
11.2859
11.2859
11.2859
11.2859
11.2859
11.2859
11.2859
11.2859
11.2859
11.2859
11.2859
11.2859
11.2859
11.2859
11.2859
11.2859
11.2859
11.2859
11.2859
11.2859
11.2859
11.2859
11.2859
11.2859
11.2859
11.2859
11.2859
11.2859
11.2859
11.2859
11.2859
11.2859
11.2859
11.2859
11.2859
11.2859
11.2859
11.2859
11.2859
11.2859
11.2859
11.2859
11.2859
11.2859
11.2859
11.2859
11.2859
11.2859
11.2859
11.2859
11.2859
11.2859
11.2859
11.2859
11.2859
11.2859
11.2859
11.2859
11.2859
11.2859
11.2859
11.2859
11.2859
11.2859
11.2859
11.2859
11.2859
11.2859
11.2859
11.2859
11.2859
11.2859
11.2859
11.2859
11.2859
11.2859
11.2859
11.2859
11.2859
11.2859
11.2859
11.2859
11.2859
11.2859
11.2859
11.2859
11.2859
11.2859
11.2859
11.2859
11.2859
11.2859
11.2859
11.2859
11.2859
11.2859
11.2859
11.2859
11.2859
11.2859
11.2859
11.2859
11.2859
11.2859
11.2859
11.2859
11.2859
11.2859
11.2859
11.2859
11.2859
11.2859
11.2859
11.2859
11.2859
11.2859
11.2859
11.2859
11.2859
11.2859
11.2859
11.2859
11.2859
11.2859
11.2859
11.2859
11.2859
11.2859
11.2859
11.2859
11.2859
11.2859
11.2859
11.2859
11.2859
11.2859
11.2859
11.2859
11.2859
11.2859
11.2859
11.2859
11.2859
11.2859
11.2859
11.2859
11.2859
11.2859
11.2859
11.2859
11.2859
11.2859
11.2859
11.2859
11.2859
11.2859
11.2859
11.2859
11.2859
11.2859
11.2859
11.2859
11.2859
11.2859
11.2859
11.2859
11.2859
11.2859
11.2859
11.2859
11.2859
11.2859
11.2859
11.2859
11.2859
11.2859
11.2859
11.2859
11.2859
11.2859
11.2859
11.2859
11.2859
11.2859
11.2859
11.2859
11.2859
11.2859
11.2859
11.2859
11.2859
11.2859
11.2859
11.2859
11.2859
11.2859
11.2859
11.2859
11.2859
11.2859
11.2859
11.2859
11.2859
11.2859
11.2859
11.2859
11.2859
11.2859
11.2859
11.2859
11.2859
11.2859
11.2859
11.2859
11.2859
11.2859
11.2859
11.2859
11.2859
11.2859
11.2859
11.2859
11.2859
11.2859
11.2859
11.2859
11.2859
11.2859
11.2859
11.2859
11.2859
11.2859
11.2859
11.2859
11.2859
11.2859
11.2859
11.2859
11.2859
11.2859
11.2859
11.2859
11.2859
11.2859
11.2859
11.2859
11.2859
11.2859
11.2859
11.2859
11.2859
11.2859
11.2859
11.2859
11.2859
11.2859
11.2859
11.2859
11.2859
11.2859
11.2859
11.2859
11.2859
11.2859
11.2859
11.2859
11.2859
11.2859
11.2859
11.2859
11.2859
11.2859
11.2859
11.2859
11.2859
11.2859
11.2859
11.2859
11.2859
11.2859
11.2859
11.2859
11.2859
11.2859
11.2859
11.2859
11.2859
11.2859
11.2859
11.2859
11.2859
11.2859
11.2859
11.2859
11.2859
11.2859
11.2859
11.2859
11.2859
11.2859
11.2859
11.2859
11.2859
11.2859
11.2859
11.2859
11.2859
11.2859
11.2859
11.2859
11.2859
11.2859
11.2859
11.2859
11.2859
11.2859
11.2859
11.2859
11.2859
11.2859
11.2859
11.2859
11.2859
11.2859
11.2859
11.2859
11.2859
11.2859
11.2859
11.2859
11.2859
11.2859
11.2859
11.2859
11.2859
11.2859
11.2859
11.2859
11.2859
11.2859
11.2859
11.2859
11.2859
11.2859
11.2859
11.2859
11.2859
11.2859
11.2859
11.2859
11.2859
11.2859
11.2859
11.2859
11.2859
11.2859
11.2859
11.2859
11.2859
11.2859
11.2859
11.2859
11.2859
11.2859
11.2859
11.2859
11.2859
11.2859
11.2859
11.2859
11.2859
11.2859
11.2859
11.2859
11.2859
11.2859
11.2859
11.2859
11.2859
11.2859
11.2859
11.2859
11.2859
11.2859
11.2859
11.2859
11.2859
11.2859
11.2859
11.2859
11.2859
11.2859
11.2859
11.2859
11.2859
11.2859
11.2859
11.2859
11.2859
11.2859
11.2859
11.2859
11.2859
11.2859
11.2859
11.2859
11.2859
11.2859
11.2859
11.2859
11.2859
11.2859
11.2859
11.2859
11.2859
11.2859
11.2859
11.2859
11.2859
11.2859
11.2859
11.2859
11.2859
11.2859
11.2859
11.2859
11.2859
11.2859
11.2859
11.2859
11.2859
11.2859
11.2859
11.2859
11.2859
11.2859
11.2859
11.2859
11.2859
11.2859
11.2859
11.2859
11.2859
11.2859
11.2859
11.2859
11.2859
11.2859
11.2859
11.2859
11.2859
11.2859
11.2859
11.2859
11.2859
11.2859
11.2859
11.2859
11.2859
11.2859
11.2859
11.2859
11.2859
11.2859
11.2859
11.2859
11.2859
11.2859
11.2859
11.2859
11.2859
11.2859
11.2859
11.2859
11.2859
11.2859
11.2859
11.2859
11.2859
11.2859
11.2859
11.2859
11.2859
11.2859
11.2859
11.2859
11.2859
11.2859
11.2859
11.2859
11.2859
11.2859
11.2859
11.2859
11.2859
11.2859
11.2859
11.2859
11.2859
11.2859
11.2859
11.2859
11.2859
11.2859
11.2859
11.2859
11.2859
11.2859
11.2859
11.2859
11.2859
11.2859
11.2859
11.2859
11.2859
11.2859
11.2859
11.2859
11.2859
11.2859
11.2859
11.2859
11.2859
11.2859
11.2859
11.2859
11.2859
11.2859
11.2859
11.2859
11.2859
11.2859
11.2859
11.2859
11.2859
11.2859
11.2859
11.2859
11.2859
11.2859
11.2859
11.2859
11.2859
11.2859
11.2859
11.2859
11.2859
11.2859
11.2859
11.2859
11.2859
11.2859
11.2859
11.2859
11.2859
11.2859
11.2859
11.2859
11.2859
11.2859
11.2859
11.2859
11.2859
11.2859
11.2859
11.2859
11.2859
11.2859
11.2859
11.2859
11.2859
11.2859
11.2859
11.2859
11.2859
11.2859
11.2859
11.2859
11.2859
11.2859
11.2859
11.2859
11.2859
11.2859
11.2859
11.2859
11.2859
11.2859
11.2859
11.2859
11.2859
11.2859
11.2859
11.2859
11.2859
11.2859
11.2859
11.2859
11.2859
11.2859
11.2859
11.2859
11.2859
11.2859
11.2859
11.2859
11.2859
11.2859
11.2859
11.2859
11.2859
11.2859
11.2859
11.2859
11.2859
11.2859
11.2859
11.2859
11.2859
11.2859
11.2859
11.2859
11.2859
11.2859
11.2859
11.2859
11.2859
11.2859
11.2859
11.2859
11.2859
11.2859
11.2859
11.2859
11.2859
11.2859
11.2859
11.2859
11.2859
11.2859
11.2859
11.2859
11.2859
11.2859
11.2859
11.2859
11.2859
11.2859
11.2859
11.2859
11.2859
11.2859
11.2859
11.2859
11.2859
11.2859
11.2859
11.2859
11.2859
11.2859
11.2859
11.2859
11.2859
11.2859
11.2859
11.2859
11.2859
11.2859
11.2859
11.2859
11.2859
11.2859
11.2859
11.2859
11.2859
11.2859
11.2859
11.2859
11.2859
11.2859
11.2859
11.2859
11.2859
11.2859
11.2859
11.2859
11.2859
11.2859
11.2859
11.2859
11.2859
11.2859
11.2859
11.2859
11.2859
11.2859
11.2859
11.2859
11.2859
11.2859
11.2859
11.2859
11.2859
11.2859
11.2859
11.2859
11.2859
11.2859
11.2859
11.2859
11.2859
11.2859
11.2859
11.2859
11.2859
11.2859
11.2859
11.2859
11.2859
11.2859
11.2859
11.2859
11.2859
11.2859
11.2859
11.2859
11.2859
11.2859
11.2859
11.2859
11.2859
11.2859
11.2859
11.2859
11.2859
11.2859
11.2859
11.2859
11.2859
11.2859
11.2859
11.2859
11.2859
11.2859
11.2859
11.2859
11.2859
11.2859
11.2859
11.2859
11.2859
11.2859
11.2859
11.2859
11.2859
11.2859
11.2859
11.2859
11.2859
11.2859
11.2859
11.2859
11.2859
11.2859
11.2859
11.2859
11.2859
11.2859
11.2859
11.2859
11.2859
11.2859
11.2859
11.2859
11.2859
11.2859
11.2859
11.2859
11.2859
11.2859
11.2859
11.2859
11.2859
11.2859
11.2859
11.2859
11.2859
11.2859
11.2859
11.2859
11.2859
11.2859
11.2859
11.2859
11.2859
11.2859
11.2859
11.2859
11.2859
11.2859
11.2859
11.2859
11.2859
11.2859
11.2859
11.2859
11.2859
11.2859
11.2859
11.2859
11.2859
11.2859
11.2859
11.2859
11.2859
11.2859
11.2859
11.2859
11.2859
11.2859
11.2859
11.2859
11.2859
11.2859
11.2859
11.2859
11.2859
11.2859
11.2859
11.2859
11.2859
11.2859
11.2859
11.2859
11.2859
11.2859
11.2859
11.2859
11.2859
11.2859
11.2859
11.2859
11.2859
11.2859
11.2859
11.2859
11.2859
11.2859
11.2859
11.2859
11.2859
11.2859
11.2859
11.2859
11.2859
11.2859
11.2859
11.2859
11.2859
11.2859
11.2859
11.2859
11.2859
11.2859
11.2859
11.2859
11.2859
11.2859
11.2859
11.2859
11.2859
11.2859
11.2859
11.2859
11.2859
11.2859
11.2859
11.2859
11.2859
11.2859
11.2859
11.2859
11.2859
11.2859
11.2859
11.2859
11.2859
11.2859
11.2859
11.2859
11.2859
11.2859
11.2859
11.2859
11.2859
11.2859
11.2859
11.2859
11.2859
11.2859
11.2859
11.2859
11.2859
11.2859
11.2859
11.2859
11.2859
11.2859
11.2859
11.2859
11.2859
11.2859
11.2859
11.2859
11.2859
11.2859
11.2859
11.2859
11.2859
11.2859
11.2859
11.2859
11.2859
11.2859
11.2859
11.2859
11.2859
11.2859
11.2859
11.2859
11.2859
11.2859
11.2859
11.2859
11.2859
11.2859
11.2859
11.2859
11.2859
11.2859
11.2859
11.2859
11.2859
11.2859
11.2859
11.2859
11.2859
11.2859
11.2859
11.2859
11.2859
11.2859
11.2859
11.2859
11.2859
11.2859
11.2859
11.2859
11.2859
11.2859
11.2859
11.2859
11.2859
11.2859
11.2859
11.2859
11.2859
11.2859
11.2859
11.2859
11.2859
11.2859
11.2859
11.2859
11.2859
11.2859
11.2859
11.2859
11.2859
11.2859
11.2859
11.2859
11.2859
11.2859
11.2859
11.2859
11.2859
11.2859
11.2859
11.2859
11.2859
11.2859
11.2859
11.2859
11.2859
11.2859
11.2859
11.2859
11.2859
11.2859
11.2859
11.2859
11.2859
11.2859
11.2859
11.2859
11.2859
11.2859
11.2859
11.2859
11.2859
11.2859
11.2859
11.2859
11.2859
11.2859
11.2859
11.2859
11.2859
11.2859
11.2859
11.2859
11.2859
11.2859
11.2859
11.2859
11.2859
11.2859
11.2859
11.2859
11.2859
11.2859
11.2859
11.2859
11.2859
11.2859
11.2859
11.2859
11.2859
11.2859
11.2859
11.2859
11.2859
11.2859
11.2859
11.2859
11.2859
11.2859
11.2859
11.2859
11.2859
11.2859
11.2859
11.2859
11.2859
11.2859
11.2859
11.2859
11.2859
11.2859
11.2859
11.2859
11.2859
11.2859
11.2859
11.2859
11.2859
11.2859
11.2859
11.2859
11.2859
11.2859
11.2859
11.2859
11.2859
11.2859
11.2859
11.2859
11.2859
11.2859
11.2859
11.2859
11.2859
11.2859
11.2859
11.2859
11.2859
11.2859
11.2859
11.2859
11.2859
11.2859
11.2859
11.2859
11.2859
11.2859
11.2859
11.2859
11.2859
11.2859
11.2859
11.2859
11.2859
11.2859
11.2859
11.2859
11.2859
11.2859
11.2859
11.2859
11.2859
11.2859
11.2859
11.2859
11.2859
11.2859
11.2859
11.2859
11.2859
11.2859
11.2859
11.2859
11.2859
11.2859
11.2859
11.2859
11.2859
11.2859
11.2859
11.2859
11.2859
11.2859
11.2859
11.2859
11.2859
11.2859
11.2859
11.2859
11.2859
11.2859
11.2859
11.2859
11.2859
11.2859
11.2859
11.2859
11.2859
11.2859
11.2859
11.2859
11.2859
11.2859
11.2859
11.2859
11.2859
11.2859
11.2859
11.2859
11.2859
11.2859
11.2859
11.2859
11.2859
11.2859
11.2859
11.2859
11.2859
11.2859
11.2859
11.2859
11.2859
11.2859
11.2859
11.2859
11.2859
11.2859
11.2859
11.2859
11.2859
11.2859
11.2859
11.2859
11.2859
11.2859
11.2859
11.2859
11.2859
11.2859
11.2859
11.2859
11.2859
11.2859
11.2859
11.2859
11.2859
11.2859
11.2859
11.2859
11.2859
11.2859
11.2859
11.2859
11.2859
11.2859
11.2859
11.2859
11.2859
11.2859
11.2859
11.2859
11.2859
11.2859
11.2859
11.2859
11.2859
11.2859
11.2859
11.2859
11.2859
11.2859
11.2859
11.2859
11.2859
11.2859
11.2859
11.2859
11.2859
11.2859
11.2859
11.2859
11.2859
11.2859
11.2859
11.2859
11.2859
11.2859
11.2859
11.2859
11.2859
11.2859
11.2859
11.2859
11.2859
11.2859
11.2859
11.2859
11.2859
11.2859
11.2859
11.2859
11.2859
11.2859
11.2859
11.2859
11.2859
11.2859
11.2859
11.2859
11.2859
11.2859
11.2859
11.2859
11.2859
11.2859
11.2859
11.2859
11.2859
11.2859
11.2859
11.2859
11.2859
11.2859
11.2859
11.2859
11.2859
11.2859
11.2859
11.2859
11.2859
11.2859
11.2859
11.2859
11.2859
11.2859
11.2859
11.2859
11.2859
11.2859
11.2859
11.2859
11.2859
11.2859
11.2859
11.2859
11.2859
11.2859
11.2859
11.2859
11.2859
11.2859
11.2859
11.2859
11.2859
11.2859
11.2859
11.2859
11.2859
11.2859
11.2859
11.2859
11.2859
11.2859
11.2859
11.2859
11.2859
11.2859
11.2859
11.2859
11.2859
11.2859
11.2859
11.2859
11.2859
11.2859
11.2859
11.2859
11.2859
11.2859
11.2859
11.2859
11.2859
11.2859
11.2859
11.2859
11.2859
11.2859
11.2859
11.2859
11.2859
11.2859
11.2859
11.2859
11.2859
11.2859
11.2859
11.2859
11.2859
11.2859
11.2859
11.2859
11.2859
11.2859
11.2859
11.2859
11.2859
11.2859
11.2859
11.2859
11.2859
11.2859
11.2859
11.2859
11.2859
11.2859
11.2859
11.2859
11.2859
11.2859
11.2859
11.2859
11.2859
11.2859
11.2859
11.2859
11.2859
11.2859
11.2859
11.2859
11.2859
11.2859
11.2859
11.2859
11.2859
11.2859
11.2859
11.2859
11.2859
11.2859
11.2859
11.2859
11.2859
11.2859
11.2859
11.2859
11.2859
11.2859
11.2859
11.2859
11.2859
11.2859
11.2859
11.2859
11.2859
11.2859
11.2859
11.2859
11.2859
11.2859
11.2859
11.2859
11.2859
11.2859
11.2859
11.2859
11.2859
11.2859
11.2859
11.2859
11.2859
11.2859
11.2859
11.2859
11.2859
11.2859
11.2859
11.2859
11.2859
11.2859
11.2859
11.2859
11.2859
11.2859
11.2859
11.2859
11.2858
11.2858
11.2858
11.2859
11.2859
11.2859
11.2859
11.2859
11.2859
11.2859
11.2859
11.2859
11.2859
11.2859
11.2859
11.2859
11.2859
11.2859
11.2859
11.2859
11.2859
11.2859
11.2859
11.2859
11.2859
11.2859
11.2859
11.2859
11.2859
11.2859
11.2859
11.2859
11.2859
11.2859
11.2859
11.2859
11.2859
11.2859
11.2859
11.2859
11.2859
11.2859
11.2859
11.2859
11.2859
11.2859
11.2859
11.2858
11.2858
11.2858
11.2858
11.2858
11.2857
11.2859
11.2859
11.2859
11.2859
11.2859
11.2859
11.2859
11.2859
11.2859
11.2859
11.2859
11.2859
11.2859
11.2859
11.2859
11.2859
11.2859
11.2859
11.2859
11.2859
11.2859
11.2859
11.2859
11.2859
11.2859
11.2859
11.2859
11.2859
11.2859
11.2859
11.2859
11.2859
11.2859
11.2859
11.2859
11.2859
11.2859
11.2859
11.2859
11.2859
11.2859
11.2858
11.2858
11.2858
11.2858
11.2858
11.2857
11.2856
11.2854
11.285
11.2859
11.2859
11.2859
11.2859
11.2859
11.2859
11.2859
11.2859
11.2859
11.2859
11.2859
11.2859
11.2859
11.2859
11.2859
11.2859
11.2859
11.2859
11.2859
11.2859
11.2859
11.2859
11.2859
11.2859
11.2859
11.2859
11.2859
11.2859
11.2859
11.2859
11.2859
11.2859
11.2859
11.2859
11.2859
11.2859
11.2859
11.2859
11.2858
11.2858
11.2858
11.2858
11.2858
11.2857
11.2856
11.2854
11.285
11.2844
11.2833
11.2813
11.2859
11.2859
11.2859
11.2859
11.2859
11.2859
11.2859
11.2859
11.2859
11.2859
11.2859
11.2859
11.2859
11.2859
11.2859
11.2859
11.2859
11.2859
11.2859
11.2859
11.2859
11.2859
11.2859
11.2859
11.2859
11.2859
11.2859
11.2859
11.2859
11.2859
11.2859
11.2859
11.2859
11.2859
11.2858
11.2858
11.2858
11.2858
11.2858
11.2857
11.2857
11.2855
11.2853
11.285
11.2843
11.2833
11.2815
11.2784
11.273
11.2631
11.2859
11.2859
11.2859
11.2859
11.2859
11.2859
11.2859
11.2859
11.2859
11.2859
11.2859
11.2859
11.2859
11.2859
11.2859
11.2859
11.2859
11.2859
11.2859
11.2859
11.2859
11.2859
11.2859
11.2859
11.2859
11.2859
11.2859
11.2859
11.2859
11.2859
11.2859
11.2858
11.2858
11.2858
11.2858
11.2858
11.2857
11.2856
11.2855
11.2853
11.2849
11.2843
11.2832
11.2814
11.2783
11.2731
11.2642
11.2492
11.2233
11.1772
11.2859
11.2859
11.2859
11.2859
11.2859
11.2859
11.2859
11.2859
11.2859
11.2859
11.2859
11.2859
11.2859
11.2859
11.2859
11.2859
11.2859
11.2859
11.2859
11.2859
11.2859
11.2859
11.2859
11.2859
11.2859
11.2859
11.2859
11.2859
11.2858
11.2858
11.2858
11.2858
11.2858
11.2857
11.2856
11.2855
11.2852
11.2848
11.2841
11.283
11.2811
11.2779
11.2727
11.2638
11.249
11.2242
11.1827
11.1136
10.9991
10.8085
11.2859
11.2859
11.2859
11.2859
11.2859
11.2859
11.2859
11.2859
11.2859
11.2859
11.2859
11.2859
11.2859
11.2859
11.2859
11.2859
11.2859
11.2859
11.2859
11.2859
11.2859
11.2859
11.2859
11.2859
11.2858
11.2858
11.2858
11.2858
11.2858
11.2858
11.2857
11.2856
11.2854
11.2851
11.2847
11.2839
11.2827
11.2807
11.2774
11.2719
11.2628
11.2478
11.2229
11.1819
11.1145
11.0054
10.832
10.5656
10.1738
9.63009
11.2859
11.2859
11.2859
11.2859
11.2859
11.2859
11.2859
11.2859
11.2859
11.2859
11.2859
11.2859
11.2859
11.2859
11.2859
11.2859
11.2859
11.2859
11.2859
11.2859
11.2858
11.2858
11.2858
11.2858
11.2858
11.2858
11.2857
11.2856
11.2855
11.2853
11.285
11.2845
11.2837
11.2823
11.2801
11.2765
11.2707
11.2611
11.2455
11.2199
11.1782
11.1107
11.0026
10.8329
10.5752
10.202
9.69566
9.06182
8.33262
7.56239
11.2859
11.2859
11.2859
11.2859
11.2859
11.2859
11.2859
11.2859
11.2859
11.2859
11.2859
11.2859
11.2859
11.2859
11.2859
11.2859
11.2859
11.2858
11.2858
11.2858
11.2858
11.2858
11.2858
11.2857
11.2856
11.2854
11.2852
11.2848
11.2842
11.2833
11.2817
11.2793
11.2753
11.2689
11.2586
11.2419
11.215
11.1716
11.1023
10.9926
10.8227
10.5675
10.2018
9.70953
9.09598
8.39354
7.65309
6.92658
6.24915
5.64365
11.2859
11.2859
11.2859
11.2859
11.2859
11.2859
11.2859
11.2859
11.2859
11.2859
11.2859
11.2859
11.2859
11.2859
11.2858
11.2858
11.2858
11.2858
11.2858
11.2858
11.2857
11.2856
11.2855
11.2853
11.2851
11.2846
11.2839
11.2828
11.281
11.2782
11.2737
11.2665
11.2551
11.2368
11.2078
11.1616
11.0886
10.9749
10.801
10.5435
10.1791
9.69365
9.09314
8.4081
7.68616
6.97603
6.31404
5.71932
5.19732
4.7423
4.35081
11.2859
11.2859
11.2859
11.2859
11.2859
11.2859
11.2859
11.2859
11.2859
11.2859
11.2858
11.2858
11.2858
11.2858
11.2858
11.2858
11.2857
11.2857
11.2856
11.2854
11.2852
11.2848
11.2843
11.2834
11.282
11.2799
11.2766
11.2714
11.2632
11.2502
11.2298
11.1977
11.1473
11.0688
10.9482
10.7667
10.5021
10.1332
9.64866
9.05599
8.38496
7.68022
6.98697
6.33907
5.75497
5.2402
4.79212
4.40402
4.06846
3.77621
3.52409
11.2859
11.2859
11.2859
11.2859
11.2859
11.2859
11.2859
11.2858
11.2858
11.2858
11.2858
11.2858
11.2858
11.2857
11.2857
11.2856
11.2855
11.2853
11.285
11.2845
11.2838
11.2827
11.2811
11.2785
11.2745
11.2683
11.2586
11.2436
11.2202
11.1838
11.1276
11.0413
10.9108
10.7177
10.4411
10.0624
9.57348
8.98434
8.3248
7.63692
6.96216
6.33125
5.76099
5.25656
4.81566
4.43234
4.09954
3.81051
3.55917
3.34082
3.14987
2.98538
11.2859
11.2859
11.2859
11.2858
11.2858
11.2858
11.2858
11.2858
11.2858
11.2857
11.2857
11.2856
11.2855
11.2853
11.2851
11.2847
11.2841
11.2832
11.2818
11.2797
11.2765
11.2715
11.264
11.2523
11.2345
11.207
11.165
11.1009
11.0041
10.8601
10.651
10.3574
9.96395
9.46624
8.8774
8.22777
7.55697
6.90247
6.29141
5.73841
5.24779
4.81733
4.44153
4.1139
3.82813
3.57862
3.36078
3.17077
3.00554
2.86335
2.74208
2.64172
11.2858
11.2858
11.2858
11.2858
11.2858
11.2857
11.2857
11.2856
11.2855
11.2854
11.2851
11.2848
11.2842
11.2834
11.2822
11.2804
11.2777
11.2736
11.2674
11.2579
11.2436
11.2219
11.189
11.1394
11.0648
10.954
10.7924
10.5625
10.2471
9.83436
9.32447
8.73404
8.09394
7.44117
6.80897
6.22055
5.68794
5.21435
4.7974
4.43194
4.11195
3.83161
3.58573
3.37004
3.18094
3.01562
2.87201
2.74892
2.64564
2.5617
2.49541
2.44472
11.2858
11.2857
11.2857
11.2856
11.2855
11.2853
11.2851
11.2848
11.2843
11.2835
11.2824
11.2808
11.2784
11.2748
11.2695
11.2614
11.2494
11.2315
11.2045
11.1642
11.1043
11.0159
10.8871
10.7029
10.4471
10.1051
9.66942
9.14545
8.55318
7.92367
7.29082
6.68332
6.12023
5.61088
5.15718
4.75647
4.40387
4.09381
3.82096
3.58059
3.36871
3.18205
3.01794
2.87438
2.75005
2.64429
2.55666
2.48643
2.43216
2.39175
2.36244
2.34124
11.2855
11.2853
11.2851
11.2847
11.2843
11.2835
11.2825
11.281
11.2787
11.2754
11.2706
11.2634
11.2529
11.2373
11.2141
11.18
11.1298
11.0562
10.9496
10.7975
10.5853
10.2982
9.92538
9.46467
8.92663
8.33423
7.71787
7.10773
6.52765
5.99254
5.509
5.07765
4.69551
4.35795
4.05985
3.79635
3.56317
3.35665
3.17383
3.01225
2.87003
2.74584
2.63894
2.54898
2.47549
2.41754
2.3735
2.34114
2.31805
2.30184
2.29066
2.28261
11.2842
11.2834
11.2824
11.2809
11.2787
11.2755
11.2709
11.2643
11.2545
11.2403
11.2196
11.1893
11.1452
11.0814
10.9897
10.8595
10.678
10.4316
10.1083
9.70183
9.21602
8.66632
8.0776
7.4784
6.8945
6.34478
5.84011
5.38457
4.9776
4.61596
4.29524
4.01078
3.75821
3.53366
3.33387
3.15617
2.99834
2.85864
2.73578
2.629
2.53796
2.46237
2.40162
2.35452
2.31928
2.29377
2.2758
2.26334
2.25488
2.24904
2.24544
2.24312
11.2783
11.2751
11.2706
11.2641
11.2547
11.2411
11.2216
11.1935
11.1531
11.0953
11.013
10.8972
10.7367
10.519
10.2325
9.8692
9.42865
8.92059
8.36436
7.78511
7.20824
6.65458
6.13811
5.66603
5.24024
4.85921
4.51953
4.21706
3.9476
3.70724
3.49256
3.30068
3.12919
2.97617
2.84001
2.71954
2.614
2.52303
2.44642
2.38381
2.33439
2.29676
2.26905
2.24928
2.23552
2.22618
2.21998
2.21591
2.21361
2.21239
2.21271
2.21292
11.2398
11.2206
11.1933
11.1546
11.0999
11.023
10.9158
10.7685
10.57
10.3092
9.97787
9.57344
9.1018
8.57778
8.0228
7.4604
6.91166
6.39224
5.9116
5.4738
5.079
4.72495
4.40823
4.12502
3.87155
3.64439
3.44056
3.25753
3.0932
2.94588
2.81417
2.697
2.59364
2.50373
2.42713
2.36362
2.31265
2.27316
2.2436
2.22225
2.20728
2.19704
2.19022
2.18583
2.18331
2.1822
2.18207
2.18296
2.18375
2.18518
2.18697
11.0961
11.0211
10.9178
10.7775
10.5901
10.3457
10.0362
9.65831
9.21587
8.72048
8.19028
7.64642
7.10901
6.59412
6.11247
5.66963
5.26718
4.90401
4.57747
4.28424
4.02086
3.78402
3.57076
3.37851
3.20508
3.04866
2.9078
2.78128
2.66816
2.56779
2.47983
2.40414
2.3406
2.28885
2.24814
2.21721
2.19451
2.1784
2.16734
2.16004
2.15538
2.15259
2.15126
2.15108
2.15202
2.15319
2.15465
2.15675
2.15907
2.16133
2.16372
10.5821
10.3458
10.049
9.68877
9.26778
8.79582
8.28849
7.76457
7.24259
6.73806
6.26196
5.82067
5.41676
5.05
4.7185
4.41946
4.1498
3.90645
3.68656
3.48761
3.3074
3.1441
2.99617
2.86235
2.74164
2.63322
2.53652
2.45122
2.37721
2.31443
2.26268
2.22138
2.18953
2.16583
2.14886
2.1371
2.12927
2.12426
2.12134
2.12003
2.11985
2.12054
2.12222
2.12376
2.12581
2.12836
2.13103
2.13361
2.13656
2.13952
2.14233
8.80647
8.31901
7.81485
7.31069
6.82081
6.35572
5.9219
5.52237
5.15752
4.82604
4.52563
4.2536
4.00716
3.78368
3.58075
3.39624
3.22833
3.07548
2.93642
2.8101
2.69567
2.59246
2.49998
2.41794
2.34628
2.28496
2.23387
2.19259
2.16036
2.13607
2.11845
2.10611
2.09787
2.0927
2.08967
2.08825
2.08801
2.08873
2.09041
2.09241
2.0945
2.09727
2.10017
2.10301
2.10608
2.10934
2.11255
2.11577
2.11901
2.12208
6.84116
6.39153
5.97031
5.58049
5.22274
4.89613
4.59879
4.32837
4.08241
3.85849
3.65441
3.46816
3.29799
3.14241
3.00017
2.87021
2.75167
2.64387
2.54626
2.45843
2.38016
2.31138
2.25212
2.20229
2.16162
2.12951
2.10501
2.08703
2.07436
2.06585
2.0605
2.05735
2.05595
2.05588
2.05664
2.05823
2.0606
2.0629
2.0656
2.06879
2.072
2.0751
2.07862
2.08214
2.08563
2.08915
2.09263
2.09608
2.09953
2.10282
5.2436
4.92638
4.63631
4.37137
4.12938
3.9082
3.70581
3.52039
3.35032
3.19419
3.0508
2.91913
2.79834
2.68776
2.58681
2.49508
2.41223
2.33811
2.27266
2.21593
2.1679
2.12836
2.09683
2.07253
2.05453
2.04175
2.03308
2.02763
2.02454
2.0232
2.02318
2.02398
2.02568
2.02812
2.03088
2.03362
2.03704
2.04052
2.0439
2.0475
2.0513
2.05501
2.05878
2.06255
2.06629
2.07
2.0737
2.07735
2.081
2.08452
4.14642
3.93097
3.73301
3.55093
3.38325
3.22868
3.08611
2.9546
2.83335
2.72169
2.61908
2.52511
2.43943
2.3618
2.29211
2.23034
2.17655
2.13075
2.09278
2.06226
2.03857
2.02085
2.00817
1.99954
1.99412
1.99114
1.98986
1.98996
1.99098
1.99283
1.9953
1.99835
2.00136
2.00475
2.00856
2.01228
2.01594
2.01999
2.02401
2.02802
2.03204
2.03603
2.04
2.04396
2.04789
2.0518
2.05569
2.05954
2.06339
2.06712
3.39544
3.24442
3.10455
2.97495
2.85489
2.74377
2.64107
2.54639
2.4594
2.37986
2.3076
2.24254
2.18471
2.13417
2.09096
2.05494
2.02582
2.00307
1.98592
1.9736
1.96522
1.95995
1.95709
1.95598
1.95627
1.95754
1.95947
1.9621
1.96524
1.96883
1.97219
1.97623
1.98025
1.98414
1.9883
1.99261
1.99683
2.0011
2.00537
2.00959
2.0138
2.01798
2.02213
2.02627
2.03038
2.03448
2.03856
2.04261
2.04665
2.05058
2.86178
2.75266
2.6513
2.55731
2.4704
2.39034
2.31694
2.25011
2.18982
2.13611
2.08907
2.04871
2.01496
1.98755
1.96604
1.94976
1.93802
1.93006
1.92506
1.92246
1.92165
1.9221
1.92358
1.92568
1.92856
1.93185
1.93568
1.93932
1.9434
1.94781
1.95201
1.95625
1.96079
1.96529
1.96978
1.9743
1.97878
1.98323
1.98766
1.99206
1.99644
2.00079
2.00512
2.00943
2.01373
2.01801
2.02227
2.0265
2.03073
2.03484
2.47119
2.39183
2.31855
2.25125
2.18986
2.1344
2.08493
2.04153
2.00426
1.97301
1.94758
1.92757
1.9124
1.90145
1.89407
1.88949
1.88722
1.88674
1.88743
1.88918
1.89164
1.89467
1.89812
1.9021
1.90628
1.91033
1.91498
1.91948
1.92385
1.9286
1.93339
1.9381
1.94286
1.94758
1.95228
1.95695
1.96159
1.96621
1.9708
1.97536
1.97991
1.98443
1.98893
1.99342
1.99788
2.00233
2.00677
2.01117
2.01557
2.01986
2.12735
2.07672
2.03155
1.99193
1.95787
1.92931
1.90606
1.88776
1.8739
1.86394
1.85728
1.85327
1.85142
1.85131
1.85231
1.85436
1.85713
1.86032
1.86403
1.86812
1.87277
1.87695
1.88177
1.88665
1.89129
1.89612
1.90113
1.90606
1.91103
1.91602
1.92096
1.92587
1.93075
1.9356
1.94042
1.94522
1.94999
1.95474
1.95946
1.96417
1.96885
1.97352
1.97816
1.9828
1.98741
1.99201
1.99657
2.00114
2.0056
1.9406
1.90986
1.88412
1.8632
1.84676
1.83437
1.82554
1.81974
1.8164
1.81508
1.81538
1.81679
1.81914
1.82222
1.82566
1.82965
1.83391
1.83871
1.84335
1.84819
1.85342
1.85834
1.86323
1.86853
1.87375
1.87893
1.88414
1.8893
1.89443
1.89955
1.90464
1.90969
1.91472
1.91971
1.92468
1.92962
1.93454
1.93944
1.94432
1.94917
1.95401
1.95883
1.96364
1.96842
1.97319
1.97794
1.98266
1.98738
1.992
1.8192
1.80474
1.79394
1.78636
1.78152
1.77895
1.77824
1.779
1.78086
1.78355
1.78695
1.79073
1.79494
1.79943
1.80444
1.8095
1.81441
1.81982
1.82509
1.8302
1.83565
1.8411
1.84646
1.8519
1.85732
1.86269
1.86804
1.87334
1.87861
1.88386
1.88907
1.89426
1.89942
1.90456
1.90967
1.91475
1.91982
1.92486
1.92988
1.93489
1.93987
1.94484
1.94979
1.95472
1.95963
1.96453
1.96939
1.97426
1.97902
1.74272
1.74099
1.74093
1.74221
1.74454
1.74762
1.75136
1.75549
1.75992
1.76468
1.76989
1.77522
1.78042
1.786
1.79159
1.79692
1.80246
1.80816
1.81376
1.8194
1.82504
1.83062
1.83618
1.84172
1.84722
1.85268
1.85811
1.86351
1.86888
1.87423
1.87955
1.88484
1.89011
1.89535
1.90057
1.90577
1.91096
1.91612
1.92126
1.92638
1.93149
1.93657
1.94164
1.94669
1.95172
1.95672
1.96172
1.96661
1.70509
1.70791
1.71139
1.71547
1.71996
1.72465
1.72967
1.73507
1.74062
1.74618
1.75191
1.75775
1.76336
1.76902
1.77496
1.78081
1.78663
1.79248
1.79828
1.80406
1.80981
1.81552
1.82119
1.82684
1.83245
1.83803
1.84358
1.8491
1.85459
1.86006
1.8655
1.87092
1.87632
1.88169
1.88705
1.89238
1.89769
1.90298
1.90825
1.9135
1.91874
1.92395
1.92915
1.93433
1.93949
1.94461
1.94973
1.95475
1.68418
1.68914
1.69442
1.70006
1.70585
1.71169
1.71759
1.72364
1.72955
1.73538
1.74151
1.74758
1.75358
1.75965
1.76568
1.77166
1.77762
1.78354
1.78942
1.79527
1.80108
1.80687
1.81262
1.81834
1.82404
1.8297
1.83534
1.84095
1.84654
1.8521
1.85764
1.86316
1.86865
1.87413
1.87958
1.88501
1.89043
1.89582
1.9012
1.90655
1.91189
1.91721
1.9225
1.92777
1.93302
1.93825
1.94338
1.66487
1.67091
1.67696
1.68311
1.68936
1.69551
1.70156
1.70783
1.71412
1.72032
1.72658
1.73282
1.739
1.74516
1.75129
1.75738
1.76343
1.76944
1.77543
1.78138
1.78729
1.79318
1.79904
1.80487
1.81067
1.81645
1.8222
1.82792
1.83362
1.8393
1.84495
1.85058
1.85619
1.86178
1.86735
1.8729
1.87843
1.88394
1.88943
1.89489
1.90034
1.90577
1.91117
1.91655
1.9219
1.92723
1.93247
1.65492
1.66127
1.66755
1.67398
1.68047
1.68688
1.69331
1.69974
1.70612
1.71248
1.7188
1.72508
1.73133
1.73754
1.74372
1.74986
1.75597
1.76205
1.7681
1.77411
1.7801
1.78606
1.79199
1.7979
1.80378
1.80963
1.81546
1.82127
1.82705
1.83282
1.83856
1.84428
1.84997
1.85565
1.8613
1.86694
1.87255
1.87815
1.88372
1.88927
1.8948
1.90031
1.90579
1.91123
1.91666
1.92198
1.63996
1.64663
1.65324
1.65986
1.66647
1.67304
1.67958
1.68609
1.69256
1.699
1.7054
1.71177
1.7181
1.72439
1.73066
1.73689
1.74309
1.74926
1.7554
1.76151
1.76759
1.77365
1.77968
1.78568
1.79166
1.79762
1.80355
1.80945
1.81534
1.8212
1.82704
1.83286
1.83866
1.84444
1.85019
1.85593
1.86164
1.86733
1.873
1.87865
1.88427
1.88987
1.89544
1.90097
1.90648
1.91189
1.62623
1.63303
1.63978
1.6465
1.65319
1.65985
1.66646
1.67304
1.67959
1.6861
1.69258
1.69902
1.70543
1.71181
1.71815
1.72447
1.73076
1.73701
1.74324
1.74944
1.75562
1.76177
1.76789
1.77399
1.78006
1.78611
1.79213
1.79814
1.80412
1.81007
1.81601
1.82192
1.82782
1.83369
1.83954
1.84536
1.85117
1.85695
1.8627
1.86844
1.87414
1.87982
1.88547
1.89108
1.89666
1.90215
1.61325
1.62012
1.62694
1.63374
1.64049
1.64721
1.6539
1.66054
1.66716
1.67374
1.6803
1.68681
1.6933
1.69976
1.70618
1.71258
1.71895
1.72529
1.7316
1.73789
1.74415
1.75039
1.7566
1.76278
1.76894
1.77508
1.78119
1.78729
1.79335
1.7994
1.80542
1.81142
1.8174
1.82336
1.82929
1.8352
1.84109
1.84695
1.85279
1.8586
1.86438
1.87013
1.87586
1.88153
1.88718
1.89273
1.60084
1.60776
1.61465
1.6215
1.62832
1.6351
1.64185
1.64857
1.65525
1.66191
1.66853
1.67512
1.68168
1.68821
1.69471
1.70119
1.70764
1.71406
1.72045
1.72682
1.73316
1.73948
1.74577
1.75204
1.75828
1.7645
1.7707
1.77687
1.78302
1.78915
1.79525
1.80133
1.80739
1.81342
1.81944
1.82542
1.83139
1.83732
1.84323
1.84911
1.85496
1.86078
1.86656
1.8723
1.87801
1.88361
1.58894
1.59592
1.60286
1.60977
1.61665
1.62349
1.6303
1.63709
1.64384
1.65056
1.65725
1.66391
1.67054
1.67714
1.68372
1.69026
1.69678
1.70328
1.70975
1.71619
1.72261
1.729
1.73537
1.74172
1.74804
1.75433
1.7606
1.76685
1.77308
1.77928
1.78546
1.79162
1.79775
1.80385
1.80994
1.81599
1.82202
1.82802
1.834
1.83994
1.84585
1.85173
1.85757
1.86335
1.86911
1.87475
1.57752
1.58455
1.59155
1.59852
1.60545
1.61235
1.61923
1.62607
1.63288
1.63967
1.64642
1.65315
1.65985
1.66652
1.67316
1.67978
1.68637
1.69293
1.69947
1.70598
1.71247
1.71894
1.72538
1.73179
1.73818
1.74455
1.75089
1.75721
1.76351
1.76978
1.77602
1.78225
1.78844
1.79462
1.80076
1.80688
1.81297
1.81903
1.82506
1.83106
1.83702
1.84294
1.84882
1.85465
1.86043
1.86611
1.57364
1.58069
1.58771
1.5947
1.60166
1.60859
1.61549
1.62237
1.62921
1.63603
1.64282
1.64958
1.65631
1.66302
1.6697
1.67636
1.68298
1.68959
1.69617
1.70272
1.70925
1.71576
1.72224
1.7287
1.73513
1.74153
1.74792
1.75427
1.76061
1.76692
1.7732
1.77945
1.78568
1.79189
1.79806
1.80421
1.81031
1.81639
1.82243
1.82843
1.83439
1.8403
1.84616
1.85198
1.85768
1.56316
1.57026
1.57733
1.58438
1.59139
1.59837
1.60533
1.61226
1.61916
1.62604
1.63288
1.6397
1.6465
1.65326
1.66001
1.66672
1.67341
1.68008
1.68672
1.69333
1.69992
1.70649
1.71303
1.71954
1.72603
1.7325
1.73894
1.74535
1.75174
1.75811
1.76444
1.77075
1.77703
1.78328
1.7895
1.79568
1.80183
1.80795
1.81402
1.82006
1.82605
1.832
1.83788
1.84372
1.84944
1.55308
1.56023
1.56735
1.57445
1.58151
1.58855
1.59556
1.60254
1.60949
1.61642
1.62332
1.6302
1.63705
1.64387
1.65067
1.65744
1.66418
1.6709
1.6776
1.68427
1.69092
1.69754
1.70413
1.7107
1.71724
1.72376
1.73026
1.73672
1.74316
1.74957
1.75595
1.7623
1.76862
1.77491
1.78116
1.78739
1.79357
1.79972
1.80583
1.8119
1.81791
1.82388
1.82978
1.83563
1.84136
1.55059
1.55775
1.56489
1.572
1.57909
1.58615
1.59318
1.60018
1.60716
1.61411
1.62104
1.62794
1.63481
1.64166