/*--------------------------------*- C++ -*----------------------------------*\
| =========                 |                                                 |
| \\      /  F ield         | OpenFOAM: The Open Source CFD Toolbox           |
|  \\    /   O peration     | Version:  v1706                                 |
|   \\  /    A nd           | Web:      www.OpenFOAM.com                      |
|    \\/     M anipulation  |                                                 |
\*---------------------------------------------------------------------------*/
FoamFile
{
    version     2.0;
    format      ascii;
    class       volScalarField;
    location    "1.8e-05";
    object      p;
}
// * * * * * * * * * * * * * * * * * * * * * * * * * * * * * * * * * * * * * //

dimensions      [1 -1 -2 0 0 0 0];


internalField   nonuniform List<scalar> 
30038
(
21.9139
21.9139
21.9139
21.9139
21.9139
21.9139
21.9139
21.9139
21.9139
21.9139
21.9139
21.9139
21.9139
21.9139
21.9139
21.9139
21.9139
21.9139
21.9139
21.9139
21.9139
21.9139
21.9139
21.9139
21.9139
21.9139
21.9139
21.9139
21.9139
21.9139
21.9139
21.9139
21.9139
21.9139
21.9139
21.9139
21.9139
21.9139
21.9139
21.9139
21.9139
21.9139
21.9139
21.9139
21.9139
21.9139
21.9139
21.9139
21.9139
21.9139
21.9139
21.9139
21.9139
21.9139
21.9139
21.9139
21.9139
21.9139
21.9139
21.9139
21.9139
21.9139
21.9139
21.9139
21.9139
21.9139
21.9139
21.9139
21.9139
21.9139
21.9139
21.9139
21.9139
21.9139
21.9139
21.9139
21.9139
21.9139
21.9139
21.9139
21.9139
21.9139
21.9139
21.9139
21.9139
21.9139
21.9139
21.9139
21.9139
21.9139
21.9139
21.9139
21.9139
21.9139
21.9139
21.9139
21.9139
21.9139
21.9139
21.9139
21.9139
21.9139
21.9139
21.9139
21.9139
21.9139
21.9139
21.9139
21.9139
21.9139
21.9139
21.9139
21.9139
21.9139
21.9139
21.9139
21.9139
21.9139
21.9139
21.9139
21.9139
21.9139
21.9139
21.9139
21.9139
21.9139
21.9139
21.9139
21.9139
21.9139
21.9139
21.9139
21.9139
21.9139
21.9139
21.9139
21.9139
21.9139
21.9139
21.9139
21.9139
21.9139
21.9139
21.9139
21.9139
21.9139
21.9139
21.9139
21.9139
21.9139
21.9139
21.9139
21.9139
21.9139
21.9139
21.9139
21.9139
21.9139
21.9139
21.9139
21.9139
21.9139
21.9139
21.9139
21.9139
21.9139
21.9139
21.9139
21.9139
21.9139
21.9139
21.9139
21.9139
21.9139
21.9139
21.9139
21.9139
21.9139
21.9139
21.9139
21.9139
21.9139
21.9139
21.9139
21.9139
21.9139
21.9139
21.9139
21.9139
21.9139
21.9139
21.9139
21.9139
21.9139
21.9139
21.9139
21.9139
21.9139
21.9139
21.9139
21.9139
21.9139
21.9139
21.9139
21.9139
21.9139
21.9139
21.9139
21.9139
21.9139
21.9139
21.9139
21.9139
21.9139
21.9139
21.9139
21.9139
21.9139
21.9139
21.9139
21.9139
21.9139
21.9139
21.9139
21.9139
21.9139
21.9139
21.9139
21.9139
21.9139
21.9139
21.9139
21.9139
21.9139
21.9139
21.9139
21.9139
21.9139
21.9139
21.9139
21.9139
21.9139
21.9139
21.9139
21.9139
21.9139
21.9139
21.9139
21.9139
21.9139
21.9139
21.9139
21.9139
21.9139
21.9139
21.9139
21.9139
21.9139
21.9139
21.9139
21.9139
21.9139
21.9139
21.9139
21.9139
21.9139
21.9139
21.9139
21.9139
21.9139
21.9139
21.9139
21.9139
21.9139
21.9139
21.9139
21.9139
21.9139
21.9139
21.9139
21.9139
21.9139
21.9139
21.9139
21.9139
21.9139
21.9139
21.9139
21.9139
21.9139
21.9139
21.9139
21.9139
21.9139
21.9139
21.9139
21.9139
21.9139
21.9139
21.9139
21.9139
21.9139
21.9139
21.9139
21.9139
21.9139
21.9139
21.9139
21.9139
21.9139
21.9139
21.9139
21.9139
21.9139
21.9139
21.9139
21.9139
21.9139
21.9139
21.9139
21.9139
21.9139
21.9139
21.9139
21.9139
21.9139
21.9139
21.9139
21.9139
21.9139
21.9139
21.9139
21.9139
21.9139
21.9139
21.9139
21.9139
21.9139
21.9139
21.9139
21.9139
21.9139
21.9139
21.9139
21.9139
21.9139
21.9139
21.9139
21.9139
21.9139
21.9139
21.9139
21.9139
21.9139
21.9139
21.9139
21.9139
21.9139
21.9139
21.9139
21.9139
21.9139
21.9139
21.9139
21.9139
21.9139
21.9139
21.9139
21.9139
21.9139
21.9139
21.9139
21.9139
21.9139
21.9139
21.9139
21.9139
21.9139
21.9139
21.9139
21.9139
21.9139
21.9139
21.9139
21.9139
21.9139
21.9139
21.9139
21.9139
21.9139
21.9139
21.9139
21.9139
21.9139
21.9139
21.9139
21.9139
21.9139
21.9139
21.9139
21.9139
21.9139
21.9139
21.9139
21.9139
21.9139
21.9139
21.9139
21.9139
21.9139
21.9139
21.9139
21.9139
21.9139
21.9139
21.9139
21.9139
21.9139
21.9139
21.9139
21.9139
21.9139
21.9139
21.9139
21.9139
21.9139
21.9139
21.9139
21.9139
21.9139
21.9139
21.9139
21.9139
21.9139
21.9139
21.9139
21.9139
21.9139
21.9139
21.9139
21.9139
21.9139
21.9139
21.9139
21.9139
21.9139
21.9139
21.9139
21.9139
21.9139
21.9139
21.9139
21.9139
21.9139
21.9139
21.9139
21.9139
21.9139
21.9139
21.9139
21.9139
21.9139
21.9139
21.9139
21.9139
21.9139
21.9139
21.9139
21.9139
21.9139
21.9139
21.9139
21.9139
21.9139
21.9139
21.9139
21.9139
21.9139
21.9139
21.9139
21.9139
21.9139
21.9139
21.9139
21.9139
21.9139
21.9139
21.9139
21.9139
21.9139
21.9139
21.9139
21.9139
21.9139
21.9139
21.9139
21.9139
21.9139
21.9139
21.9139
21.9139
21.9139
21.9139
21.9139
21.9139
21.9139
21.9139
21.9139
21.9139
21.9139
21.9139
21.9139
21.9139
21.9139
21.9139
21.9139
21.9139
21.9139
21.9139
21.9139
21.9139
21.9139
21.9139
21.9139
21.9139
21.9139
21.9139
21.9139
21.9139
21.9139
21.9139
21.9139
21.9139
21.9139
21.9139
21.9139
21.9139
21.9139
21.9139
21.9139
21.9139
21.9139
21.9139
21.9139
21.9139
21.9139
21.9139
21.9139
21.9139
21.9139
21.9139
21.9139
21.9139
21.9139
21.9139
21.9139
21.9139
21.9139
21.9139
21.9139
21.9139
21.9139
21.9139
21.9139
21.9139
21.9139
21.9139
21.9139
21.9139
21.9139
21.9139
21.9139
21.9139
21.9139
21.9139
21.9139
21.9139
21.9139
21.9139
21.9139
21.9139
21.9139
21.9139
21.9139
21.9139
21.9139
21.9139
21.9139
21.9139
21.9139
21.9139
21.9139
21.9139
21.9139
21.9139
21.9139
21.9139
21.9139
21.9139
21.9139
21.9139
21.9139
21.9139
21.9139
21.9139
21.9139
21.9139
21.9139
21.9139
21.9139
21.9139
21.9139
21.9139
21.9139
21.9139
21.9139
21.9139
21.9139
21.9139
21.9139
21.9139
21.9139
21.9139
21.9139
21.9139
21.9139
21.9139
21.9139
21.9139
21.9139
21.9139
21.9139
21.9139
21.9139
21.9139
21.9139
21.9139
21.9139
21.9139
21.9139
21.9139
21.9139
21.9139
21.9139
21.9139
21.9139
21.9139
21.9139
21.9139
21.9139
21.9139
21.9139
21.9139
21.9139
21.9139
21.9139
21.9139
21.9139
21.9139
21.9139
21.9139
21.9139
21.9139
21.9139
21.9139
21.9139
21.9139
21.9139
21.9139
21.9139
21.9139
21.9139
21.9139
21.9139
21.9139
21.9139
21.9139
21.9139
21.9139
21.9139
21.9139
21.9139
21.9139
21.9139
21.9139
21.9139
21.9139
21.9139
21.9139
21.9139
21.9139
21.9139
21.9139
21.9139
21.9139
21.9139
21.9139
21.9139
21.9139
21.9139
21.9139
21.9139
21.9139
21.9139
21.9139
21.9139
21.9139
21.9139
21.9139
21.9139
21.9139
21.9139
21.9139
21.9139
21.9139
21.9139
21.9139
21.9139
21.9139
21.9139
21.9139
21.9139
21.9139
21.9139
21.9139
21.9139
21.9139
21.9139
21.9139
21.9139
21.9139
21.9139
21.9139
21.9139
21.9139
21.9139
21.9139
21.9139
21.9139
21.9139
21.9139
21.9139
21.9139
21.9139
21.9139
21.9139
21.9139
21.9139
21.9139
21.9139
21.9139
21.9139
21.9139
21.9139
21.9139
21.9139
21.9139
21.9139
21.9139
21.9139
21.9139
21.9139
21.9139
21.9139
21.9139
21.9139
21.9139
21.9139
21.9139
21.9139
21.9139
21.9139
21.9139
21.9139
21.9139
21.9139
21.9139
21.9139
21.9139
21.9139
21.9139
21.9139
21.9139
21.9139
21.9139
21.9139
21.9139
21.9139
21.9139
21.9139
21.9139
21.9139
21.9139
21.9139
21.9139
21.9139
21.9139
21.9139
21.9139
21.9139
21.9139
21.9139
21.9139
21.9139
21.9139
21.9139
21.9139
21.9139
21.9139
21.9139
21.9139
21.9139
21.9139
21.9139
21.9139
21.9139
21.9139
21.9139
21.9139
21.9139
21.9139
21.9139
21.9139
21.9139
21.9139
21.9139
21.9139
21.9139
21.9139
21.9139
21.9139
21.9139
21.9139
21.9139
21.9139
21.9139
21.9139
21.9139
21.9139
21.9139
21.9139
21.9139
21.9139
21.9139
21.9139
21.9139
21.9139
21.9139
21.9139
21.9139
21.9139
21.9139
21.9139
21.9139
21.9139
21.9139
21.9139
21.9139
21.9139
21.9139
21.9139
21.9139
21.9139
21.9139
21.9139
21.9139
21.9139
21.9139
21.9139
21.9139
21.9139
21.9139
21.9139
21.9139
21.9139
21.9139
21.9139
21.9139
21.9139
21.9139
21.9139
21.9139
21.9139
21.9139
21.9139
21.9139
21.9139
21.9139
21.9139
21.9139
21.9139
21.9139
21.9139
21.9139
21.9139
21.9139
21.9139
21.9139
21.9139
21.9139
21.9139
21.9139
21.9139
21.9139
21.9139
21.9139
21.9139
21.9139
21.9139
21.9139
21.9139
21.9139
21.9139
21.9139
21.9139
21.9139
21.9139
21.9139
21.9139
21.9139
21.9139
21.9139
21.9139
21.9139
21.9139
21.9139
21.9139
21.9139
21.9139
21.9139
21.9139
21.9139
21.9139
21.9139
21.9139
21.9139
21.9139
21.9139
21.9139
21.9139
21.9139
21.9139
21.9139
21.9139
21.9139
21.9139
21.9139
21.9139
21.9139
21.9139
21.9139
21.9139
21.9139
21.9139
21.9139
21.9139
21.9139
21.9139
21.9139
21.9139
21.9139
21.9139
21.9139
21.9139
21.9139
21.9139
21.9139
21.9139
21.9139
21.9139
21.9139
21.9139
21.9139
21.9139
21.9139
21.9139
21.9139
21.9139
21.9139
21.9139
21.9139
21.9139
21.9139
21.9139
21.9139
21.9139
21.9139
21.9139
21.9139
21.9139
21.9139
21.9139
21.9139
21.9139
21.9139
21.9139
21.9139
21.9139
21.9139
21.9139
21.9139
21.9139
21.9139
21.9139
21.9139
21.9139
21.9139
21.9139
21.9139
21.9139
21.9139
21.9139
21.9139
21.9139
21.9139
21.9139
21.9139
21.9139
21.9139
21.9139
21.9139
21.9139
21.9139
21.9139
21.9139
21.9139
21.9139
21.9139
21.9139
21.9139
21.9139
21.9139
21.9139
21.9139
21.9139
21.9139
21.9139
21.9139
21.9139
21.9139
21.9139
21.9139
21.9139
21.9139
21.9139
21.9139
21.9139
21.9139
21.9139
21.9139
21.9139
21.9139
21.9139
21.9139
21.9139
21.9139
21.9139
21.9139
21.9139
21.9139
21.9139
21.9139
21.9139
21.9139
21.9139
21.9139
21.9139
21.9139
21.9139
21.9139
21.9139
21.9139
21.9139
21.9139
21.9139
21.9139
21.9139
21.9139
21.9139
21.9139
21.9139
21.9139
21.9139
21.9139
21.9139
21.9139
21.9139
21.9139
21.9139
21.9139
21.9139
21.9139
21.9139
21.9139
21.9139
21.9139
21.9139
21.9139
21.9139
21.9139
21.9139
21.9139
21.9139
21.9139
21.9139
21.9139
21.9139
21.9139
21.9139
21.9139
21.9139
21.9139
21.9139
21.9139
21.9139
21.9139
21.9139
21.9139
21.9139
21.9139
21.9139
21.9139
21.9139
21.9139
21.9139
21.9139
21.9139
21.9139
21.9139
21.9139
21.9139
21.9139
21.9139
21.9139
21.9139
21.9139
21.9139
21.9139
21.9139
21.9139
21.9139
21.9139
21.9139
21.9139
21.9139
21.9139
21.9139
21.9139
21.9139
21.9139
21.9139
21.9139
21.9139
21.9139
21.9139
21.9139
21.9139
21.9139
21.9139
21.9139
21.9139
21.9139
21.9139
21.9139
21.9139
21.9139
21.9139
21.9139
21.9139
21.9139
21.9139
21.9139
21.9139
21.9139
21.9139
21.9139
21.9139
21.9139
21.9139
21.9139
21.9139
21.9139
21.9139
21.9139
21.9139
21.9139
21.9139
21.9139
21.9139
21.9139
21.9139
21.9139
21.9139
21.9139
21.9139
21.9139
21.9139
21.9139
21.9139
21.9139
21.9139
21.9139
21.9139
21.9139
21.9139
21.9139
21.9139
21.9139
21.9139
21.9139
21.9139
21.9139
21.9139
21.9139
21.9139
21.9139
21.9139
21.9139
21.9139
21.9139
21.9139
21.9139
21.9139
21.9139
21.9139
21.9139
21.9139
21.9139
21.9139
21.9139
21.9139
21.9139
21.9139
21.9139
21.9139
21.9139
21.9139
21.9139
21.9139
21.9139
21.9139
21.9139
21.9139
21.9139
21.9139
21.9139
21.9139
21.9139
21.9139
21.9139
21.9139
21.9139
21.9139
21.9139
21.9139
21.9139
21.9139
21.9139
21.9139
21.9139
21.9139
21.9139
21.9139
21.9139
21.9139
21.9139
21.9139
21.9139
21.9139
21.9139
21.9139
21.9139
21.9139
21.9139
21.9139
21.9139
21.9139
21.9139
21.9139
21.9139
21.9139
21.9139
21.9139
21.9139
21.9139
21.9139
21.9139
21.9139
21.9139
21.9139
21.9139
21.9139
21.9139
21.9139
21.9139
21.9139
21.9139
21.9139
21.9139
21.9139
21.9139
21.9139
21.9139
21.9139
21.9139
21.9139
21.9139
21.9139
21.9139
21.9139
21.9139
21.9139
21.9139
21.9139
21.9139
21.9139
21.9139
21.9139
21.9139
21.9139
21.9139
21.9139
21.9139
21.9139
21.9139
21.9139
21.9139
21.9139
21.9139
21.9139
21.9139
21.9139
21.9139
21.9139
21.9139
21.9139
21.9139
21.9139
21.9139
21.9139
21.9139
21.9139
21.9139
21.9139
21.9139
21.9139
21.9139
21.9139
21.9139
21.9139
21.9139
21.9139
21.9139
21.9139
21.9139
21.9139
21.9139
21.9139
21.9139
21.9139
21.9139
21.9139
21.9139
21.9139
21.9139
21.9139
21.9139
21.9139
21.9139
21.9139
21.9139
21.9139
21.9139
21.9139
21.9139
21.9139
21.9139
21.9139
21.9139
21.9139
21.9139
21.9139
21.9139
21.9139
21.9139
21.9139
21.9139
21.9139
21.9139
21.9139
21.9139
21.9139
21.9139
21.9139
21.9139
21.9139
21.9139
21.9139
21.9139
21.9139
21.9139
21.9139
21.9139
21.9139
21.9139
21.9139
21.9139
21.9139
21.9139
21.9139
21.9139
21.9139
21.9139
21.9139
21.9139
21.9139
21.9139
21.9139
21.9139
21.9139
21.9139
21.9139
21.9139
21.9139
21.9139
21.9139
21.9139
21.9139
21.9139
21.9139
21.9139
21.9139
21.9139
21.9139
21.9139
21.9139
21.9139
21.9139
21.9139
21.9139
21.914
21.914
21.9139
21.9139
21.9139
21.9139
21.9139
21.9139
21.9139
21.9139
21.9139
21.9139
21.9139
21.9139
21.9139
21.9139
21.9139
21.9139
21.9139
21.9139
21.9139
21.9139
21.9139
21.9139
21.9139
21.9139
21.9139
21.9139
21.9139
21.9139
21.9139
21.9139
21.9139
21.9139
21.9139
21.9139
21.9139
21.9139
21.9139
21.9139
21.9139
21.9139
21.9139
21.9139
21.9139
21.9139
21.9139
21.914
21.914
21.9141
21.9143
21.9146
21.9139
21.9139
21.9139
21.9139
21.9139
21.9139
21.9139
21.9139
21.9139
21.9139
21.9139
21.9139
21.9139
21.9139
21.9139
21.9139
21.9139
21.9139
21.9139
21.9139
21.9139
21.9139
21.9139
21.9139
21.9139
21.9139
21.9139
21.9139
21.9139
21.9139
21.9139
21.9139
21.9139
21.9139
21.9139
21.9139
21.9139
21.9139
21.9139
21.9139
21.9139
21.9139
21.914
21.914
21.9141
21.9143
21.9145
21.915
21.9158
21.9174
21.9139
21.9139
21.9139
21.9139
21.9139
21.9139
21.9139
21.9139
21.9139
21.9139
21.9139
21.9139
21.9139
21.9139
21.9139
21.9139
21.9139
21.9139
21.9139
21.9139
21.9139
21.9139
21.9139
21.9139
21.9139
21.9139
21.9139
21.9139
21.9139
21.9139
21.9139
21.9139
21.9139
21.9139
21.9139
21.9139
21.9139
21.9139
21.914
21.914
21.914
21.9141
21.9143
21.9146
21.9151
21.9159
21.9173
21.9197
21.9239
21.9317
21.9139
21.9139
21.9139
21.9139
21.9139
21.9139
21.9139
21.9139
21.9139
21.9139
21.9139
21.9139
21.9139
21.9139
21.9139
21.9139
21.9139
21.9139
21.9139
21.9139
21.9139
21.9139
21.9139
21.9139
21.9139
21.9139
21.9139
21.9139
21.9139
21.9139
21.9139
21.9139
21.9139
21.9139
21.9139
21.914
21.914
21.9141
21.9142
21.9143
21.9146
21.9151
21.916
21.9174
21.9198
21.9239
21.9309
21.9429
21.9639
22.0025
21.9139
21.9139
21.9139
21.9139
21.9139
21.9139
21.9139
21.9139
21.9139
21.9139
21.9139
21.9139
21.9139
21.9139
21.9139
21.9139
21.9139
21.9139
21.9139
21.9139
21.9139
21.9139
21.9139
21.9139
21.9139
21.9139
21.9139
21.9139
21.9139
21.9139
21.9139
21.9139
21.914
21.914
21.9141
21.9142
21.9144
21.9147
21.9153
21.9161
21.9176
21.9201
21.9243
21.9314
21.9433
21.9636
21.9981
22.0569
22.1586
22.3425
21.9139
21.9139
21.9139
21.9139
21.9139
21.9139
21.9139
21.9139
21.9139
21.9139
21.9139
21.9139
21.9139
21.9139
21.9139
21.9139
21.9139
21.9139
21.9139
21.9139
21.9139
21.9139
21.9139
21.9139
21.9139
21.9139
21.9139
21.9139
21.914
21.914
21.914
21.9141
21.9143
21.9145
21.9148
21.9154
21.9164
21.918
21.9206
21.925
21.9324
21.9446
21.9652
21.9996
22.0575
22.1551
22.3199
22.5981
23.0705
23.8938
21.9139
21.9139
21.9139
21.9139
21.9139
21.9139
21.9139
21.9139
21.9139
21.9139
21.9139
21.9139
21.9139
21.9139
21.9139
21.9139
21.9139
21.9139
21.9139
21.9139
21.9139
21.9139
21.9139
21.9139
21.9139
21.914
21.914
21.9141
21.9142
21.9143
21.9146
21.915
21.9157
21.9167
21.9185
21.9214
21.9261
21.934
21.9468
21.9682
22.0035
22.0623
22.1601
22.3229
22.594
23.0441
23.7871
25.0018
26.9625
30.1063
21.9139
21.9139
21.9139
21.9139
21.9139
21.9139
21.9139
21.9139
21.9139
21.9139
21.9139
21.9139
21.9139
21.9139
21.9139
21.9139
21.9139
21.9139
21.9139
21.9139
21.9139
21.914
21.914
21.914
21.9141
21.9142
21.9144
21.9147
21.9152
21.916
21.9172
21.9192
21.9224
21.9277
21.9362
21.9501
21.9729
22.0101
22.0712
22.1717
22.3371
22.6091
23.055
23.782
24.9545
26.8132
29.6886
33.9979
40.2296
48.9613
21.9139
21.9139
21.9139
21.9139
21.9139
21.9139
21.9139
21.9139
21.9139
21.9139
21.9139
21.9139
21.9139
21.9139
21.9139
21.9139
21.9139
21.9139
21.914
21.914
21.9141
21.9142
21.9143
21.9145
21.9149
21.9155
21.9164
21.9179
21.9202
21.9239
21.9298
21.9394
21.9548
21.9796
22.0198
22.085
22.191
22.3632
22.643
23.0961
23.8258
24.9884
26.8101
29.5971
33.7289
39.6296
47.7224
58.3899
71.9643
88.8973
21.9139
21.9139
21.9139
21.9139
21.9139
21.9139
21.9139
21.9139
21.9139
21.9139
21.9139
21.9139
21.9139
21.9139
21.9139
21.914
21.914
21.914
21.9141
21.9142
21.9144
21.9147
21.9152
21.9159
21.917
21.9188
21.9215
21.9259
21.9328
21.9437
21.9612
21.989
22.0335
22.1049
22.2193
22.4032
22.6981
23.1698
23.9199
25.0999
26.9263
29.6879
33.7394
39.4738
47.2797
57.4995
70.4121
86.2457
105.232
127.584
154.108
21.9139
21.9139
21.9139
21.9139
21.9139
21.9139
21.9139
21.9139
21.9139
21.9139
21.9139
21.914
21.914
21.914
21.9141
21.9142
21.9144
21.9146
21.915
21.9156
21.9165
21.9179
21.92
21.9234
21.9286
21.9368
21.9497
21.9699
22.0019
22.0524
22.1323
22.2591
22.4601
22.7786
23.2816
24.0708
25.2958
27.1666
29.9588
34.0059
39.6727
47.317
57.2521
69.7291
84.9469
103.082
124.323
148.919
177.316
209.916
248.452
21.9139
21.9139
21.9139
21.9139
21.9139
21.9139
21.9139
21.9139
21.914
21.914
21.914
21.9141
21.9142
21.9143
21.9146
21.9149
21.9154
21.9161
21.9173
21.9191
21.9218
21.926
21.9324
21.9424
21.9579
21.982
22.0196
22.0782
22.17
22.3138
22.5389
22.8911
23.4399
24.2892
25.5889
27.5453
30.4234
34.5379
40.2276
47.8201
57.6004
69.7959
84.5872
102.136
122.613
146.24
173.336
204.384
239.871
280.593
327.216
384.673
21.9139
21.9139
21.9139
21.9139
21.914
21.914
21.914
21.9141
21.9142
21.9143
21.9145
21.9148
21.9153
21.9159
21.917
21.9185
21.9208
21.9243
21.9296
21.9378
21.9502
21.9693
21.9987
22.0439
22.1137
22.2216
22.3885
22.6466
23.045
23.6573
24.5915
25.9996
28.086
31.1074
35.3612
41.1604
48.8027
58.5437
70.5859
85.0897
102.198
122.067
144.886
170.923
200.588
234.39
272.886
316.922
368.046
428.869
501.029
591.159
21.914
21.914
21.914
21.9141
21.9142
21.9143
21.9145
21.9148
21.9152
21.9159
21.9168
21.9182
21.9202
21.9233
21.9279
21.9349
21.9454
21.9613
21.9854
22.022
22.0777
22.1627
22.2925
22.4907
22.7934
23.2542
23.9523
25.0012
26.5568
28.823
32.0489
36.5146
42.5074
50.2943
60.1005
72.1034
86.4435
103.248
122.66
144.854
170.071
198.662
231.122
267.969
309.851
357.929
414.167
481.045
560.525
653.296
755.31
866.614
21.9142
21.9144
21.9145
21.9148
21.9153
21.9159
21.9168
21.9181
21.92
21.9229
21.9271
21.9333
21.9426
21.9565
21.9772
22.0083
22.055
22.1252
22.2311
22.3907
22.6315
22.9942
23.5386
24.351
25.5515
27.3013
29.8042
33.301
38.054
44.3235
52.3453
62.3145
74.3838
88.6753
105.303
124.398
146.124
170.699
198.428
229.765
265.206
305.312
350.954
403.722
465.842
539.541
625.921
723.843
828.874
934.705
1032.17
1118.69
21.9153
21.916
21.9169
21.9182
21.9201
21.9228
21.9269
21.9327
21.9414
21.9541
21.9728
22.0005
22.0415
22.1024
22.1929
22.3277
22.5284
22.8272
23.2709
23.927
24.8901
26.2886
28.2887
31.0935
34.9339
40.052
46.6802
55.022
65.2431
77.4725
91.8155
108.374
127.269
148.657
172.737
199.785
230.201
264.482
303.144
346.873
396.921
455.218
523.96
604.727
697.373
799.112
904.331
1005.93
1096.63
1171.86
1228.71
1268.63
21.9204
21.9232
21.9273
21.9331
21.9415
21.9536
21.9714
21.9972
22.035
22.0903
22.1715
22.2907
22.466
22.7237
23.1019
23.6553
24.4604
25.6217
27.2758
29.5935
32.7747
37.0376
42.6014
49.6684
58.4104
68.9645
81.4385
95.9228
112.51
131.314
152.485
176.211
202.746
232.447
265.794
303.275
345.475
393.37
448.6
513.227
589.049
676.623
774.33
877.845
980.856
1076.33
1158.46
1223.8
1271.63
1302.93
1321.09
1328.88
21.9429
21.9551
21.9727
21.998
22.0344
22.0871
22.1633
22.2738
22.4341
22.6668
23.0041
23.4919
24.1942
25.198
26.6181
28.5991
31.3135
34.9547
39.7238
45.8139
53.3959
62.6107
73.5692
86.3605
101.064
117.765
136.572
157.631
181.123
207.287
236.445
269.05
305.576
346.547
392.748
445.552
506.834
578.443
661.376
754.871
855.777
958.666
1057.04
1144.63
1217.27
1272.74
1311.7
1335.57
1348.6
1352.42
1353.56
1354.17
22.0921
22.167
22.2742
22.4277
22.6475
22.9621
23.4114
24.0509
24.9554
26.2233
27.9791
30.3727
33.5747
37.7666
43.1277
49.8221
57.9893
67.7412
79.1664
92.339
107.33
124.221
143.118
164.163
187.534
213.455
242.226
274.267
310.044
350.042
394.915
445.812
504.41
572.51
651.351
740.781
838.584
940.296
1040.02
1131.55
1209.95
1272.44
1318.46
1348.97
1366.44
1374.49
1375.94
1376.92
1375.98
1372.06
1364.19
22.6624
22.9692
23.4016
24.0095
24.859
26.0371
27.653
29.8387
32.7451
36.5347
41.3711
47.4076
54.7777
63.5909
73.9337
85.8766
99.4831
114.819
131.965
151.025
172.141
195.488
221.281
249.803
281.441
316.655
355.901
399.752
449.175
505.655
570.897
646.247
731.964
826.541
926.388
1026.25
1120.25
1203.16
1271.6
1323.88
1360.64
1383.45
1395.77
1399.27
1399.84
1400.22
1397.72
1391.84
1382.7
1371.19
1357.06
24.8944
26.0335
27.5783
29.6465
32.3727
35.9024
40.3829
45.9545
52.7415
60.8473
70.3548
81.3302
93.8313
107.915
123.646
141.104
160.397
181.664
205.081
230.855
259.255
290.644
325.469
364.165
407.249
455.549
510.384
573.346
645.798
728.25
819.711
917.313
1016.48
1111.78
1197.91
1270.98
1328.86
1371.46
1399.65
1415.71
1422.81
1423.93
1424.3
1422.96
1418.85
1411.43
1400.98
1388.58
1374.26
1359.35
1343.38
35.8018
40.0685
45.3388
51.7255
59.3238
68.2105
78.4469
90.0849
103.175
117.771
133.939
151.762
171.348
192.84
216.411
242.263
270.656
301.934
336.53
374.859
417.4
464.882
518.485
579.678
649.791
729.463
818.073
913.319
1011.25
1106.88
1195.06
1271.71
1334.31
1381.8
1414.96
1435.37
1446.05
1448.71
1448.8
1448.57
1445.59
1439.43
1430.58
1419.28
1406.02
1391.35
1376.18
1360.55
1345
1328.82
58.9064
67.3577
77.0526
88.0375
100.356
114.056
129.193
145.835
164.067
184.005
205.79
229.597
255.622
284.119
315.419
349.939
388.078
430.281
477.21
529.933
589.801
658.082
735.469
821.572
914.518
1010.88
1106.14
1195.45
1274.62
1340.79
1392.52
1430.24
1454.86
1468.48
1473.94
1474.41
1474.15
1472.16
1467.53
1459.94
1449.68
1437.57
1423.57
1408.7
1393.37
1377.72
1362.02
1346.25
1330.75
1314.73
99.3025
112.311
126.637
142.339
159.488
178.176
198.521
220.668
244.789
271.079
299.786
331.233
365.822
403.933
445.99
492.604
544.758
603.7
670.613
746.184
830.155
920.966
1015.62
1110.02
1199.67
1280.37
1349.17
1404.43
1445.85
1474.14
1491.05
1499.37
1500.76
1500.24
1499.2
1495.5
1488.81
1479.87
1468.71
1455.68
1441.25
1426.26
1410.81
1395.14
1379.43
1363.71
1348.07
1332.42
1317.06
1301.2
157.376
175.065
194.25
215.056
237.631
262.143
288.788
317.809
349.527
384.326
422.572
464.664
511.186
563.057
621.429
687.391
761.583
843.803
932.704
1025.62
1118.83
1208.17
1289.62
1360.19
1418.01
1462.36
1493.98
1514.05
1524.55
1527.66
1527.35
1526.46
1523.56
1518.05
1510.05
1499.74
1487.7
1473.86
1459.18
1444
1428.46
1412.81
1397.11
1381.42
1365.77
1350.17
1334.65
1319.14
1303.89
1288.18
233.802
256.872
281.856
308.946
338.388
370.501
405.653
444.187
486.491
533.13
584.981
643.11
708.498
781.709
862.544
949.779
1041
1132.8
1221.35
1302.86
1374.3
1433.82
1480.53
1514.77
1537.38
1550.1
1555.29
1555.35
1554.15
1551.99
1547.36
1539.97
1530.71
1519.51
1506.49
1492.2
1477.35
1462
1446.41
1430.74
1415.05
1399.38
1383.74
1368.15
1352.62
1337.13
1321.73
1306.33
1291.17
1275.58
331.77
361.741
394.375
430.018
468.995
511.685
558.652
610.738
668.925
734.083
806.67
886.452
972.256
1061.85
1152.1
1239.47
1320.43
1392.02
1452.48
1500.76
1536.77
1561.55
1576.48
1583.14
1583.98
1582.82
1581.03
1576.97
1570.33
1561.75
1551.24
1539.04
1525.27
1510.74
1495.68
1480.23
1464.64
1448.97
1433.28
1417.62
1401.99
1386.4
1370.87
1355.38
1339.94
1324.55
1309.23
1293.92
1278.85
1263.37
457.694
497.269
540.521
588.025
640.592
699.122
764.358
836.636
915.647
1000.23
1088.27
1176.85
1262.72
1342.6
1413.7
1474.34
1523.41
1560.62
1587.04
1603.58
1611.5
1613.48
1612.46
1610.27
1606.91
1601.07
1592.87
1583.12
1571.7
1558.52
1544.28
1529.5
1514.23
1498.73
1483.13
1467.46
1451.79
1436.14
1420.52
1404.93
1389.39
1373.89
1358.43
1343.02
1327.66
1312.35
1297.12
1281.89
1266.89
1251.51
674.869
734.01
799.599
871.831
950.303
1033.82
1120.33
1207.14
1291.2
1369.54
1439.57
1499.68
1548.84
1586.66
1614.06
1631.71
1640.87
1643.65
1642.8
1640.6
1637.5
1632.16
1624.19
1615.05
1604.24
1591.71
1577.9
1563.48
1548.47
1533.08
1517.54
1501.91
1486.24
1470.59
1454.94
1439.33
1423.74
1408.19
1392.68
1377.2
1361.77
1346.38
1331.04
1315.75
1300.51
1285.35
1270.2
1255.27
1240
912.526
990.62
1073.15
1158.13
1243.02
1325
1401.35
1469.78
1528.72
1577.28
1615.1
1642.84
1661.18
1671.23
1674.56
1673.99
1671.83
1668.58
1663.7
1656.34
1647.32
1637.03
1625.23
1611.74
1597.55
1582.79
1567.58
1552.17
1536.62
1521
1505.34
1489.68
1474.04
1458.42
1442.83
1427.28
1411.75
1396.25
1380.79
1365.38
1350
1334.67
1319.39
1304.17
1289
1273.91
1258.83
1243.98
1228.8
1201.74
1284.51
1364.1
1438.06
1504.36
1561.57
1608.9
1646.13
1673.61
1692.16
1702.65
1706.39
1706.03
1703.85
1700.31
1695.78
1688.85
1679.93
1670.04
1658.73
1645.69
1631.79
1617.4
1602.37
1587.03
1571.55
1555.97
1540.35
1524.71
1509.07
1493.44
1477.82
1462.22
1446.65
1431.1
1415.59
1400.11
1384.66
1369.25
1353.88
1338.56
1323.29
1308.07
1292.91
1277.8
1262.78
1247.78
1233
1217.92
1543.27
1598.2
1643.76
1679.82
1706.55
1724.8
1735.32
1739.24
1738.91
1736.68
1733
1728.42
1721.84
1712.95
1703.34
1692.45
1679.9
1666.25
1652.1
1637.29
1622.1
1606.75
1591.24
1575.65
1560.02
1544.38
1528.74
1513.12
1497.5
1481.9
1466.32
1450.75
1435.22
1419.71
1404.23
1388.79
1373.38
1358.02
1342.7
1327.43
1312.21
1297.05
1281.95
1266.91
1251.96
1237.03
1222.32
1207.33
1716.17
1741.64
1759.17
1769.34
1773.13
1772.72
1770.35
1766.63
1761.76
1755.38
1746.66
1737.05
1726.46
1714.42
1700.95
1687
1672.45
1657.41
1642.17
1626.75
1611.21
1595.62
1580.01
1564.37
1548.73
1533.1
1517.48
1501.87
1486.28
1470.7
1455.14
1439.61
1424.1
1408.62
1393.18
1377.77
1362.41
1347.09
1331.82
1316.59
1301.43
1286.33
1271.29
1256.31
1241.42
1226.57
1211.92
1197.02
1808.07
1807.46
1804.88
1801.01
1795.85
1789.46
1780.99
1771.29
1760.84
1749.17
1735.91
1722.12
1707.87
1692.97
1677.82
1662.5
1647.03
1631.49
1615.91
1600.29
1584.66
1569.03
1553.4
1537.77
1522.14
1506.53
1490.94
1475.36
1459.8
1444.26
1428.75
1413.27
1397.82
1382.41
1367.04
1351.71
1336.44
1321.21
1306.04
1290.93
1275.88
1260.9
1245.98
1231.16
1216.38
1201.8
1186.98
1836.16
1830.7
1824.12
1815.81
1806.03
1795.6
1784.16
1771.2
1757.53
1743.52
1728.76
1713.71
1698.51
1683.12
1667.63
1652.09
1636.5
1620.89
1605.27
1589.64
1574
1558.36
1542.73
1527.1
1511.48
1495.88
1480.29
1464.72
1449.18
1433.66
1418.17
1402.71
1387.29
1371.91
1356.58
1341.29
1326.06
1310.88
1295.75
1280.69
1265.7
1250.78
1235.92
1221.17
1206.45
1191.94
1177.21
1841.26
1830.82
1819.51
1806.8
1793.23
1779.36
1764.82
1749.86
1734.79
1719.48
1704.04
1688.55
1673
1657.42
1641.81
1626.19
1610.55
1594.91
1579.27
1563.62
1547.98
1532.34
1516.71
1501.09
1485.49
1469.91
1454.35
1438.82
1423.32
1407.85
1392.42
1377.03
1361.68
1346.38
1331.13
1315.94
1300.8
1285.73
1270.72
1255.78
1240.91
1226.12
1211.43
1196.78
1182.33
1167.68
1842.74
1829.25
1815.48
1801.13
1786.28
1771.3
1756.1
1740.73
1725.3
1709.8
1694.24
1678.66
1663.05
1647.42
1631.79
1616.13
1600.48
1584.82
1569.16
1553.5
1537.85
1522.2
1506.57
1490.95
1475.35
1459.78
1444.23
1428.72
1413.23
1397.79
1382.38
1367.02
1351.7
1336.44
1321.22
1306.07
1290.98
1275.95
1260.99
1246.11
1231.3
1216.56
1201.93
1187.34
1172.96
1158.4
1837.72
1822.97
1808.06
1792.98
1777.68
1762.32
1746.88
1731.36
1715.81
1700.23
1684.62
1668.99
1653.34
1637.68
1622.01
1606.33
1590.65
1574.97
1559.3
1543.62
1527.96
1512.31
1496.67
1481.05
1465.46
1449.89
1434.36
1418.85
1403.39
1387.96
1372.58
1357.25
1341.96
1326.73
1311.56
1296.45
1281.4
1266.42
1251.51
1236.67
1221.92
1207.24
1192.67
1178.15
1163.83
1149.34
1830.13
1814.91
1799.6
1784.23
1768.76
1753.26
1737.71
1722.12
1706.51
1690.88
1675.22
1659.55
1643.86
1628.17
1612.47
1596.76
1581.06
1565.36
1549.66
1533.97
1518.3
1502.64
1487
1471.38
1455.79
1440.24
1424.71
1409.22
1393.78
1378.37
1363.02
1347.71
1332.46
1317.26
1302.12
1287.05
1272.05
1257.11
1242.25
1227.46
1212.76
1198.14
1183.63
1169.18
1154.92
1140.52
1821.86
1806.45
1790.99
1775.49
1759.93
1744.35
1728.74
1713.09
1697.43
1681.75
1666.04
1650.33
1634.61
1618.87
1603.14
1587.41
1571.68
1555.95
1540.24
1524.54
1508.86
1493.19
1477.55
1461.94
1446.35
1430.8
1415.29
1399.82
1384.39
1369.01
1353.68
1338.4
1323.18
1308.01
1292.91
1277.88
1262.92
1248.03
1233.21
1218.48
1203.83
1189.27
1174.82
1160.43
1146.24
1131.92
1813.56
1798.04
1782.49
1766.91
1751.28
1735.63
1719.96
1704.26
1688.55
1672.81
1657.07
1641.31
1625.55
1609.78
1594.02
1578.26
1562.5
1546.76
1531.03
1515.32
1499.63
1483.96
1468.32
1452.71
1437.13
1421.59
1406.09
1390.63
1375.22
1359.86
1344.56
1329.31
1314.11
1298.98
1283.92
1268.93
1254.01
1239.16
1224.4
1209.72
1195.13
1180.62
1166.23
1151.91
1137.78
1123.54
1805.38
1789.79
1774.16
1758.5
1742.82
1727.11
1711.37
1695.62
1679.85
1664.07
1648.28
1632.48
1616.68
1600.88
1585.09
1569.3
1553.53
1537.77
1522.02
1506.3
1490.6
1474.93
1459.29
1443.68
1428.11
1412.58
1397.1
1381.66
1366.27
1350.93
1335.65
1320.42
1305.26
1290.17
1275.14
1260.19
1245.31
1230.51
1215.8
1201.17
1186.64
1172.19
1157.85
1143.59
1129.52
1115.34
1781.7
1766
1750.28
1734.53
1718.75
1702.96
1687.15
1671.33
1655.51
1639.67
1623.84
1608
1592.17
1576.35
1560.54
1544.75
1528.97
1513.22
1497.48
1481.78
1466.11
1450.47
1434.86
1419.3
1403.78
1388.31
1372.88
1357.51
1342.2
1326.94
1311.75
1296.62
1281.56
1266.57
1251.66
1236.83
1222.08
1207.41
1192.82
1178.34
1163.94
1149.65
1135.45
1121.44
1107.34
1773.78
1758
1742.21
1726.4
1710.56
1694.71
1678.85
1662.99
1647.12
1631.24
1615.37
1599.5
1583.65
1567.8
1551.97
1536.15
1520.36
1504.6
1488.86
1473.15
1457.47
1441.84
1426.24
1410.68
1395.17
1379.71
1364.31
1348.96
1333.67
1318.44
1303.28
1288.19
1273.16
1258.21
1243.34
1228.54
1213.83
1199.2
1184.66
1170.22
1155.87
1141.65
1127.51
1113.56
1099.54
1766
1750.16
1734.3
1718.42
1702.53
1686.63
1670.72
1654.81
1638.89
1622.98
1607.08
1591.18
1575.29
1559.43
1543.57
1527.74
1511.94
1496.16
1480.42
1464.7
1449.03
1433.39
1417.8
1402.26
1386.76
1371.32
1355.94
1340.61
1325.35
1310.15
1295.01
1279.94
1264.95
1250.03
1235.19
1220.42
1205.75
1191.17
1176.68
1162.29
1148
1133.83
1119.75
1105.87
1091.92
1742.46
1726.53
1710.6
1694.65
1678.7
1662.75
1646.79
1630.84
1614.89
1598.95
1583.03
1567.12
1551.23
1535.36
1519.51
1503.69
1487.91
1472.16
1456.45
1440.77
1425.14