/*--------------------------------*- C++ -*----------------------------------*\
| =========                 |                                                 |
| \\      /  F ield         | OpenFOAM: The Open Source CFD Toolbox           |
|  \\    /   O peration     | Version:  v1706                                 |
|   \\  /    A nd           | Web:      www.OpenFOAM.com                      |
|    \\/     M anipulation  |                                                 |
\*---------------------------------------------------------------------------*/
FoamFile
{
    version     2.0;
    format      ascii;
    class       volScalarField;
    location    "1.8e-05";
    object      wallHeatFlux;
}
// * * * * * * * * * * * * * * * * * * * * * * * * * * * * * * * * * * * * * //

dimensions      [1 0 -3 0 0 0 0];


internalField   uniform 0;

boundaryField
{
    cone
    {
        type            calculated;
        value           nonuniform List<scalar> 
153
(
545454
539912
534398
528910
523447
518007
512590
507196
501825
496478
491155
485857
480584
475336
470115
464920
459752
454612
449500
444416
439362
434337
429341
424376
419442
414538
409667
404827
400020
395247
390507
385801
381131
376496
371899
367341
362822
358346
353915
349531
345198
340921
336707
332559
328485
324474
320526
316459
312532
309152
306005
303061
300267
297600
295035
292547
290125
287760
285442
283165
280922
278710
276523
274357
272210
270078
267960
265852
263753
261661
259575
257493
255414
253338
251262
249187
247112
245037
242961
240883
238804
236724
234642
232558
230473
228386
226298
224209
222118
220027
217936
215844
213753
211662
209571
207482
205394
203308
201225
199144
197065
194991
192920
190854
188792
186735
184685
182640
180602
178572
176550
174536
172532
170537
168553
166581
164620
162672
160738
158817
156912
155023
153150
151295
149457
147638
145839
144059
142300
140563
138846
137153
135482
133834
132209
130609
129032
127480
125953
124450
122973
121521
120095
118694
117319
115969
114646
113349
112078
110833
109614
108421
107255
)
;
    }
    inlet
    {
        type            calculated;
        value           uniform 0;
    }
    rWedge
    {
        type            wedge;
    }
    lWedge
    {
        type            wedge;
    }
    outlet
    {
        type            calculated;
        value           nonuniform 0();
    }
    procBoundary2to0
    {
        type            processor;
        value           uniform 0;
    }
    procBoundary2to1
    {
        type            processor;
        value           uniform 0;
    }
    procBoundary2to3
    {
        type            processor;
        value           uniform 0;
    }
}


// ************************************************************************* //
