/*--------------------------------*- C++ -*----------------------------------*\
| =========                 |                                                 |
| \\      /  F ield         | OpenFOAM: The Open Source CFD Toolbox           |
|  \\    /   O peration     | Version:  v1706                                 |
|   \\  /    A nd           | Web:      www.OpenFOAM.com                      |
|    \\/     M anipulation  |                                                 |
\*---------------------------------------------------------------------------*/
FoamFile
{
    version     2.0;
    format      ascii;
    class       volScalarField;
    location    "1.6e-05";
    object      alpha;
}
// * * * * * * * * * * * * * * * * * * * * * * * * * * * * * * * * * * * * * //

dimensions      [1 -1 -1 0 0 0 0];


internalField   nonuniform List<scalar> 
29871
(
1.40489e-05
1.40489e-05
1.40489e-05
1.4049e-05
1.4049e-05
1.4049e-05
1.40491e-05
1.40491e-05
1.40491e-05
1.40491e-05
1.40492e-05
1.40492e-05
1.40492e-05
1.40492e-05
1.40492e-05
1.40492e-05
1.40492e-05
1.40492e-05
1.40492e-05
1.40492e-05
1.40492e-05
1.40492e-05
1.40492e-05
1.40492e-05
1.40491e-05
1.40491e-05
1.40491e-05
1.40491e-05
1.4049e-05
1.4049e-05
1.4049e-05
1.40489e-05
1.40489e-05
1.40489e-05
1.40488e-05
1.40488e-05
1.40488e-05
1.40487e-05
1.40487e-05
1.40487e-05
1.40486e-05
1.40486e-05
1.40486e-05
1.40485e-05
1.40485e-05
1.40485e-05
1.40484e-05
1.40484e-05
1.40484e-05
1.40484e-05
1.40483e-05
1.40483e-05
1.40483e-05
1.40483e-05
1.40483e-05
1.40482e-05
1.40482e-05
1.40482e-05
1.40482e-05
1.40482e-05
1.40482e-05
1.40482e-05
1.40482e-05
1.40482e-05
1.40482e-05
1.40482e-05
1.40482e-05
1.40482e-05
1.40482e-05
1.40482e-05
1.40482e-05
1.40482e-05
1.40482e-05
1.40482e-05
1.40482e-05
1.40482e-05
1.40482e-05
1.40482e-05
1.40482e-05
1.40482e-05
1.40482e-05
1.40482e-05
1.40482e-05
1.40482e-05
1.40482e-05
1.40482e-05
1.40482e-05
1.40482e-05
1.40483e-05
1.40483e-05
1.40483e-05
1.40483e-05
1.40483e-05
1.40483e-05
1.40483e-05
1.40483e-05
1.40483e-05
1.40483e-05
1.40483e-05
1.40483e-05
1.40483e-05
1.40483e-05
1.40483e-05
1.40484e-05
1.40484e-05
1.40539e-05
1.40542e-05
1.40544e-05
1.40546e-05
1.40548e-05
1.4055e-05
1.40552e-05
1.40554e-05
1.40556e-05
1.40557e-05
1.40558e-05
1.4056e-05
1.40561e-05
1.40561e-05
1.40562e-05
1.40563e-05
1.40563e-05
1.40563e-05
1.40563e-05
1.40563e-05
1.40562e-05
1.40562e-05
1.40561e-05
1.4056e-05
1.40559e-05
1.40557e-05
1.40556e-05
1.40555e-05
1.40553e-05
1.40551e-05
1.40549e-05
1.40547e-05
1.40546e-05
1.40543e-05
1.40541e-05
1.40539e-05
1.40537e-05
1.40535e-05
1.40533e-05
1.40531e-05
1.40529e-05
1.40527e-05
1.40525e-05
1.40523e-05
1.40521e-05
1.40519e-05
1.40518e-05
1.40516e-05
1.40514e-05
1.40513e-05
1.40511e-05
1.4051e-05
1.40509e-05
1.40508e-05
1.40507e-05
1.40506e-05
1.40505e-05
1.40505e-05
1.40504e-05
1.40503e-05
1.40503e-05
1.40503e-05
1.40502e-05
1.40502e-05
1.40502e-05
1.40502e-05
1.40502e-05
1.40502e-05
1.40502e-05
1.40502e-05
1.40502e-05
1.40502e-05
1.40502e-05
1.40503e-05
1.40503e-05
1.40503e-05
1.40503e-05
1.40504e-05
1.40504e-05
1.40504e-05
1.40505e-05
1.40505e-05
1.40505e-05
1.40506e-05
1.40506e-05
1.40506e-05
1.40507e-05
1.40507e-05
1.40508e-05
1.40508e-05
1.40508e-05
1.40509e-05
1.40509e-05
1.4051e-05
1.4051e-05
1.40511e-05
1.40511e-05
1.40512e-05
1.40512e-05
1.40513e-05
1.40513e-05
1.40514e-05
1.40514e-05
1.40515e-05
1.40515e-05
1.4066e-05
1.40667e-05
1.40675e-05
1.40681e-05
1.40688e-05
1.40695e-05
1.40701e-05
1.40707e-05
1.40712e-05
1.40717e-05
1.40722e-05
1.40726e-05
1.4073e-05
1.40733e-05
1.40736e-05
1.40738e-05
1.40739e-05
1.4074e-05
1.40741e-05
1.4074e-05
1.4074e-05
1.40739e-05
1.40737e-05
1.40734e-05
1.40732e-05
1.40728e-05
1.40725e-05
1.4072e-05
1.40716e-05
1.40711e-05
1.40706e-05
1.407e-05
1.40694e-05
1.40688e-05
1.40682e-05
1.40676e-05
1.4067e-05
1.40663e-05
1.40657e-05
1.4065e-05
1.40644e-05
1.40638e-05
1.40631e-05
1.40625e-05
1.40619e-05
1.40614e-05
1.40608e-05
1.40603e-05
1.40598e-05
1.40593e-05
1.40589e-05
1.40585e-05
1.40581e-05
1.40577e-05
1.40574e-05
1.40571e-05
1.40568e-05
1.40566e-05
1.40563e-05
1.40562e-05
1.4056e-05
1.40559e-05
1.40558e-05
1.40557e-05
1.40556e-05
1.40556e-05
1.40556e-05
1.40556e-05
1.40556e-05
1.40556e-05
1.40556e-05
1.40557e-05
1.40558e-05
1.40558e-05
1.40559e-05
1.4056e-05
1.40561e-05
1.40562e-05
1.40563e-05
1.40564e-05
1.40565e-05
1.40566e-05
1.40567e-05
1.40569e-05
1.4057e-05
1.40571e-05
1.40573e-05
1.40574e-05
1.40575e-05
1.40577e-05
1.40578e-05
1.4058e-05
1.40581e-05
1.40583e-05
1.40584e-05
1.40586e-05
1.40588e-05
1.40589e-05
1.40591e-05
1.40593e-05
1.40595e-05
1.40597e-05
1.40599e-05
1.40601e-05
1.40603e-05
1.40605e-05
1.40961e-05
1.40981e-05
1.40999e-05
1.41018e-05
1.41035e-05
1.41052e-05
1.41068e-05
1.41084e-05
1.41098e-05
1.41111e-05
1.41123e-05
1.41134e-05
1.41144e-05
1.41152e-05
1.41159e-05
1.41164e-05
1.41168e-05
1.41171e-05
1.41171e-05
1.41171e-05
1.41169e-05
1.41166e-05
1.41161e-05
1.41155e-05
1.41148e-05
1.41139e-05
1.41129e-05
1.41118e-05
1.41106e-05
1.41094e-05
1.4108e-05
1.41066e-05
1.41051e-05
1.41035e-05
1.41019e-05
1.41003e-05
1.40986e-05
1.40969e-05
1.40952e-05
1.40936e-05
1.40919e-05
1.40902e-05
1.40886e-05
1.40871e-05
1.40855e-05
1.4084e-05
1.40826e-05
1.40812e-05
1.40799e-05
1.40787e-05
1.40776e-05
1.40765e-05
1.40755e-05
1.40745e-05
1.40737e-05
1.40729e-05
1.40722e-05
1.40716e-05
1.40711e-05
1.40706e-05
1.40703e-05
1.407e-05
1.40697e-05
1.40695e-05
1.40694e-05
1.40693e-05
1.40693e-05
1.40694e-05
1.40694e-05
1.40695e-05
1.40697e-05
1.40699e-05
1.40701e-05
1.40703e-05
1.40706e-05
1.40709e-05
1.40712e-05
1.40715e-05
1.40718e-05
1.40721e-05
1.40725e-05
1.40729e-05
1.40732e-05
1.40736e-05
1.4074e-05
1.40744e-05
1.40748e-05
1.40752e-05
1.40756e-05
1.40761e-05
1.40765e-05
1.40769e-05
1.40774e-05
1.40779e-05
1.40784e-05
1.40789e-05
1.40794e-05
1.40799e-05
1.40805e-05
1.40811e-05
1.40816e-05
1.40822e-05
1.40829e-05
1.40835e-05
1.40841e-05
1.40848e-05
1.41629e-05
1.41676e-05
1.41723e-05
1.41768e-05
1.41812e-05
1.41854e-05
1.41894e-05
1.41932e-05
1.41969e-05
1.42002e-05
1.42033e-05
1.42061e-05
1.42087e-05
1.42109e-05
1.42128e-05
1.42144e-05
1.42156e-05
1.42164e-05
1.42169e-05
1.42171e-05
1.42169e-05
1.42164e-05
1.42155e-05
1.42143e-05
1.42128e-05
1.4211e-05
1.42088e-05
1.42064e-05
1.42038e-05
1.42009e-05
1.41978e-05
1.41945e-05
1.4191e-05
1.41873e-05
1.41836e-05
1.41797e-05
1.41758e-05
1.41718e-05
1.41678e-05
1.41638e-05
1.41598e-05
1.41558e-05
1.41519e-05
1.4148e-05
1.41443e-05
1.41406e-05
1.41371e-05
1.41337e-05
1.41304e-05
1.41274e-05
1.41244e-05
1.41217e-05
1.41191e-05
1.41168e-05
1.41146e-05
1.41126e-05
1.41109e-05
1.41093e-05
1.41079e-05
1.41067e-05
1.41057e-05
1.41049e-05
1.41043e-05
1.41038e-05
1.41035e-05
1.41033e-05
1.41033e-05
1.41034e-05
1.41035e-05
1.41038e-05
1.41042e-05
1.41047e-05
1.41053e-05
1.4106e-05
1.41067e-05
1.41074e-05
1.41083e-05
1.41091e-05
1.41101e-05
1.4111e-05
1.4112e-05
1.4113e-05
1.4114e-05
1.41151e-05
1.41161e-05
1.41172e-05
1.41184e-05
1.41195e-05
1.41207e-05
1.41219e-05
1.41231e-05
1.41244e-05
1.41257e-05
1.4127e-05
1.41284e-05
1.41298e-05
1.41313e-05
1.41328e-05
1.41343e-05
1.41359e-05
1.41375e-05
1.41392e-05
1.4141e-05
1.41428e-05
1.41446e-05
1.41465e-05
1.41484e-05
1.43205e-05
1.43313e-05
1.43418e-05
1.43521e-05
1.4362e-05
1.43714e-05
1.43804e-05
1.43889e-05
1.43969e-05
1.44042e-05
1.4411e-05
1.44171e-05
1.44225e-05
1.44272e-05
1.44311e-05
1.44343e-05
1.44368e-05
1.44384e-05
1.44392e-05
1.44392e-05
1.44385e-05
1.44371e-05
1.44349e-05
1.44319e-05
1.44282e-05
1.44239e-05
1.44189e-05
1.44133e-05
1.44072e-05
1.44005e-05
1.43934e-05
1.43858e-05
1.43779e-05
1.43696e-05
1.43611e-05
1.43523e-05
1.43434e-05
1.43344e-05
1.43253e-05
1.43162e-05
1.43071e-05
1.42981e-05
1.42893e-05
1.42806e-05
1.42722e-05
1.4264e-05
1.42561e-05
1.42485e-05
1.42413e-05
1.42344e-05
1.4228e-05
1.4222e-05
1.42164e-05
1.42112e-05
1.42065e-05
1.42022e-05
1.41984e-05
1.41951e-05
1.41922e-05
1.41897e-05
1.41877e-05
1.41862e-05
1.4185e-05
1.41842e-05
1.41838e-05
1.41838e-05
1.4184e-05
1.41845e-05
1.41853e-05
1.41864e-05
1.41877e-05
1.41892e-05
1.41909e-05
1.41928e-05
1.41949e-05
1.4197e-05
1.41993e-05
1.42017e-05
1.42043e-05
1.42068e-05
1.42095e-05
1.42122e-05
1.4215e-05
1.42179e-05
1.42208e-05
1.42238e-05
1.42269e-05
1.423e-05
1.42332e-05
1.42364e-05
1.42397e-05
1.42431e-05
1.42466e-05
1.42502e-05
1.42539e-05
1.42577e-05
1.42616e-05
1.42657e-05
1.42698e-05
1.42741e-05
1.42785e-05
1.42831e-05
1.42878e-05
1.42926e-05
1.42976e-05
1.43027e-05
1.43079e-05
1.45926e-05
1.46164e-05
1.46399e-05
1.4663e-05
1.46856e-05
1.47075e-05
1.47286e-05
1.47488e-05
1.4768e-05
1.47861e-05
1.4803e-05
1.48186e-05
1.4833e-05
1.4846e-05
1.48576e-05
1.48677e-05
1.48763e-05
1.48835e-05
1.4889e-05
1.4893e-05
1.48954e-05
1.4896e-05
1.48953e-05
1.4893e-05
1.48893e-05
1.4884e-05
1.48772e-05
1.4869e-05
1.48595e-05
1.48488e-05
1.48368e-05
1.48237e-05
1.48096e-05
1.47946e-05
1.47787e-05
1.47621e-05
1.47449e-05
1.47271e-05
1.4709e-05
1.46905e-05
1.46718e-05
1.4653e-05
1.46342e-05
1.46155e-05
1.45969e-05
1.45786e-05
1.45606e-05
1.45431e-05
1.45262e-05
1.45098e-05
1.4494e-05
1.44791e-05
1.44649e-05
1.44516e-05
1.44391e-05
1.44276e-05
1.44171e-05
1.44076e-05
1.43992e-05
1.43917e-05
1.43852e-05
1.43798e-05
1.43753e-05
1.43719e-05
1.43693e-05
1.43677e-05
1.4367e-05
1.43671e-05
1.43677e-05
1.4369e-05
1.43711e-05
1.43737e-05
1.4377e-05
1.43807e-05
1.4385e-05
1.43896e-05
1.43946e-05
1.44e-05
1.44057e-05
1.44116e-05
1.44178e-05
1.44242e-05
1.44307e-05
1.44375e-05
1.44444e-05
1.44515e-05
1.44586e-05
1.4466e-05
1.44735e-05
1.44811e-05
1.44889e-05
1.44968e-05
1.45049e-05
1.45133e-05
1.45218e-05
1.45305e-05
1.45395e-05
1.45488e-05
1.45583e-05
1.4568e-05
1.45781e-05
1.45885e-05
1.45992e-05
1.46103e-05
1.46216e-05
1.46334e-05
1.46455e-05
1.46579e-05
1.46707e-05
1.46839e-05
1.5209e-05
1.52543e-05
1.52987e-05
1.5342e-05
1.53839e-05
1.54242e-05
1.54626e-05
1.5499e-05
1.55331e-05
1.55648e-05
1.5594e-05
1.56207e-05
1.56447e-05
1.5666e-05
1.56845e-05
1.57003e-05
1.57134e-05
1.57237e-05
1.57312e-05
1.57358e-05
1.57374e-05
1.57365e-05
1.5733e-05
1.5727e-05
1.57183e-05
1.57069e-05
1.5693e-05
1.56768e-05
1.56583e-05
1.56376e-05
1.56149e-05
1.55902e-05
1.55638e-05
1.55358e-05
1.55063e-05
1.54755e-05
1.54435e-05
1.54106e-05
1.5377e-05
1.53427e-05
1.5308e-05
1.52731e-05
1.52382e-05
1.52033e-05
1.51688e-05
1.51348e-05
1.51015e-05
1.5069e-05
1.50375e-05
1.50071e-05
1.49781e-05
1.49504e-05
1.49242e-05
1.48997e-05
1.48769e-05
1.4856e-05
1.48369e-05
1.48197e-05
1.48046e-05
1.47915e-05
1.47804e-05
1.47714e-05
1.47644e-05
1.47595e-05
1.47564e-05
1.47555e-05
1.47561e-05
1.47579e-05
1.47613e-05
1.47663e-05
1.47725e-05
1.47801e-05
1.47887e-05
1.47984e-05
1.4809e-05
1.48205e-05
1.48327e-05
1.48455e-05
1.48589e-05
1.48729e-05
1.48873e-05
1.49021e-05
1.49173e-05
1.49328e-05
1.49486e-05
1.49648e-05
1.49813e-05
1.4998e-05
1.50151e-05
1.50324e-05
1.50501e-05
1.5068e-05
1.50864e-05
1.51051e-05
1.51242e-05
1.51437e-05
1.51637e-05
1.51841e-05
1.52051e-05
1.52266e-05
1.52486e-05
1.52712e-05
1.52944e-05
1.53182e-05
1.53426e-05
1.53677e-05
1.53935e-05
1.54199e-05
1.5447e-05
1.54748e-05
1.62947e-05
1.63644e-05
1.64315e-05
1.64958e-05
1.65569e-05
1.66147e-05
1.66687e-05
1.67188e-05
1.67647e-05
1.68064e-05
1.68438e-05
1.68768e-05
1.69054e-05
1.69297e-05
1.69497e-05
1.69657e-05
1.69778e-05
1.69862e-05
1.69907e-05
1.69908e-05
1.69878e-05
1.6981e-05
1.69708e-05
1.69578e-05
1.69411e-05
1.69207e-05
1.68972e-05
1.68707e-05
1.68412e-05
1.6809e-05
1.67742e-05
1.67369e-05
1.66973e-05
1.66556e-05
1.66119e-05
1.65665e-05
1.65195e-05
1.6471e-05
1.64214e-05
1.63708e-05
1.63194e-05
1.62675e-05
1.62152e-05
1.61628e-05
1.61105e-05
1.60587e-05
1.60077e-05
1.59576e-05
1.59087e-05
1.58615e-05
1.58161e-05
1.57729e-05
1.57321e-05
1.5694e-05
1.56588e-05
1.56267e-05
1.5598e-05
1.55726e-05
1.55507e-05
1.55324e-05
1.55177e-05
1.55066e-05
1.5499e-05
1.5495e-05
1.54949e-05
1.5497e-05
1.55019e-05
1.55099e-05
1.55205e-05
1.55336e-05
1.55489e-05
1.55663e-05
1.55856e-05
1.56065e-05
1.56289e-05
1.56525e-05
1.56773e-05
1.5703e-05
1.57296e-05
1.57569e-05
1.57849e-05
1.58134e-05
1.58424e-05
1.58719e-05
1.59018e-05
1.5932e-05
1.59626e-05
1.59935e-05
1.60248e-05
1.60565e-05
1.60886e-05
1.61212e-05
1.61542e-05
1.61878e-05
1.62219e-05
1.62567e-05
1.62921e-05
1.63281e-05
1.63649e-05
1.64023e-05
1.64404e-05
1.64792e-05
1.65188e-05
1.65592e-05
1.66004e-05
1.66424e-05
1.66852e-05
1.67288e-05
1.67732e-05
1.68184e-05
1.77941e-05
1.78696e-05
1.79403e-05
1.80063e-05
1.80679e-05
1.81243e-05
1.81752e-05
1.82203e-05
1.82598e-05
1.8294e-05
1.83229e-05
1.83465e-05
1.8365e-05
1.83785e-05
1.83872e-05
1.83911e-05
1.83908e-05
1.83881e-05
1.83816e-05
1.83713e-05
1.83576e-05
1.83409e-05
1.83223e-05
1.82993e-05
1.82732e-05
1.82443e-05
1.82126e-05
1.81783e-05
1.81415e-05
1.81023e-05
1.80605e-05
1.80166e-05
1.79707e-05
1.79228e-05
1.78729e-05
1.78214e-05
1.77684e-05
1.77139e-05
1.76583e-05
1.76015e-05
1.75441e-05
1.74861e-05
1.74277e-05
1.73693e-05
1.73109e-05
1.72529e-05
1.71957e-05
1.71396e-05
1.70849e-05
1.70318e-05
1.69807e-05
1.69319e-05
1.68857e-05
1.68426e-05
1.68028e-05
1.67669e-05
1.6735e-05
1.67078e-05
1.66853e-05
1.66677e-05
1.66551e-05
1.66476e-05
1.66465e-05
1.66491e-05
1.66556e-05
1.6667e-05
1.66826e-05
1.67018e-05
1.67245e-05
1.67504e-05
1.6779e-05
1.68101e-05
1.68432e-05
1.68782e-05
1.69146e-05
1.69523e-05
1.6991e-05
1.70305e-05
1.70706e-05
1.71111e-05
1.7152e-05
1.7193e-05
1.72343e-05
1.72756e-05
1.7317e-05
1.73585e-05
1.74e-05
1.74417e-05
1.74834e-05
1.75252e-05
1.75672e-05
1.76093e-05
1.76515e-05
1.76939e-05
1.77364e-05
1.77792e-05
1.78222e-05
1.78655e-05
1.79091e-05
1.79527e-05
1.79962e-05
1.80396e-05
1.80829e-05
1.81259e-05
1.81688e-05
1.82113e-05
1.82535e-05
1.82952e-05
1.83365e-05
1.83772e-05
1.92479e-05
1.92858e-05
1.9316e-05
1.93392e-05
1.93561e-05
1.93677e-05
1.93745e-05
1.93763e-05
1.93752e-05
1.93713e-05
1.93641e-05
1.93538e-05
1.93404e-05
1.93245e-05
1.93062e-05
1.9286e-05
1.92645e-05
1.92426e-05
1.92204e-05
1.91944e-05
1.91671e-05
1.91402e-05
1.91134e-05
1.90856e-05
1.9056e-05
1.90251e-05
1.89938e-05
1.89623e-05
1.89301e-05
1.88975e-05
1.88649e-05
1.88318e-05
1.87981e-05
1.87639e-05
1.87295e-05
1.86946e-05
1.86589e-05
1.86226e-05
1.85858e-05
1.85483e-05
1.851e-05
1.84709e-05
1.84311e-05
1.83909e-05
1.83504e-05
1.83099e-05
1.82695e-05
1.82297e-05
1.81909e-05
1.81536e-05
1.81182e-05
1.80852e-05
1.80552e-05
1.80286e-05
1.80055e-05
1.79864e-05
1.79714e-05
1.79608e-05
1.79546e-05
1.79538e-05
1.79563e-05
1.79634e-05
1.79746e-05
1.79898e-05
1.80094e-05
1.80324e-05
1.8059e-05
1.80888e-05
1.81213e-05
1.81557e-05
1.81916e-05
1.82286e-05
1.82664e-05
1.83044e-05
1.83424e-05
1.83801e-05
1.84174e-05
1.84541e-05
1.84899e-05
1.85246e-05
1.85582e-05
1.85908e-05
1.86224e-05
1.8653e-05
1.86826e-05
1.87112e-05
1.87388e-05
1.87654e-05
1.87911e-05
1.88158e-05
1.88397e-05
1.88628e-05
1.88852e-05
1.89069e-05
1.89279e-05
1.89482e-05
1.8968e-05
1.89871e-05
1.90055e-05
1.90235e-05
1.90409e-05
1.90579e-05
1.90744e-05
1.90905e-05
1.91062e-05
1.91215e-05
1.91363e-05
1.91509e-05
1.91652e-05
1.91791e-05
1.996e-05
1.99525e-05
1.99412e-05
1.99266e-05
1.99094e-05
1.98902e-05
1.98692e-05
1.98467e-05
1.98228e-05
1.97982e-05
1.97732e-05
1.97474e-05
1.97208e-05
1.96941e-05
1.9666e-05
1.9638e-05
1.96076e-05
1.95775e-05
1.95487e-05
1.95206e-05
1.94892e-05
1.94566e-05
1.94265e-05
1.93988e-05
1.93691e-05
1.93382e-05
1.93078e-05
1.92778e-05
1.92475e-05
1.92179e-05
1.91888e-05
1.91596e-05
1.9131e-05
1.91035e-05
1.90767e-05
1.90502e-05
1.90245e-05
1.89998e-05
1.89757e-05
1.89522e-05
1.89296e-05
1.89081e-05
1.88879e-05
1.88686e-05
1.88506e-05
1.88337e-05
1.88183e-05
1.88045e-05
1.87922e-05
1.87814e-05
1.87721e-05
1.87642e-05
1.87582e-05
1.87545e-05
1.87534e-05
1.87543e-05
1.87578e-05
1.87646e-05
1.87747e-05
1.87882e-05
1.8803e-05
1.88223e-05
1.88437e-05
1.88667e-05
1.88909e-05
1.89163e-05
1.89424e-05
1.89687e-05
1.89947e-05
1.902e-05
1.90447e-05
1.90687e-05
1.90915e-05
1.91129e-05
1.91335e-05
1.91533e-05
1.91719e-05
1.9189e-05
1.9205e-05
1.92202e-05
1.92347e-05
1.92482e-05
1.92609e-05
1.92727e-05
1.92836e-05
1.92937e-05
1.9303e-05
1.93117e-05
1.93198e-05
1.93275e-05
1.93347e-05
1.93415e-05
1.93479e-05
1.93539e-05
1.93596e-05
1.9365e-05
1.93701e-05
1.93748e-05
1.93793e-05
1.93835e-05
1.93875e-05
1.93913e-05
1.9395e-05
1.93985e-05
1.94019e-05
1.94053e-05
1.94086e-05
1.9412e-05
1.94153e-05
1.94186e-05
1.9422e-05
2.02281e-05
2.02016e-05
2.01744e-05
2.01481e-05
2.01185e-05
2.00874e-05
2.0057e-05
2.00251e-05
1.99928e-05
1.99602e-05
1.99272e-05
1.98943e-05
1.98619e-05
1.98292e-05
1.97962e-05
1.97634e-05
1.97301e-05
1.96965e-05
1.96647e-05
1.96331e-05
1.95999e-05
1.95663e-05
1.9535e-05
1.95045e-05
1.94735e-05
1.94432e-05
1.94137e-05
1.93841e-05
1.93556e-05
1.93278e-05
1.92999e-05
1.92731e-05
1.92485e-05
1.92244e-05
1.92005e-05
1.91782e-05
1.91574e-05
1.91375e-05
1.91179e-05
1.90994e-05
1.90819e-05
1.90654e-05
1.905e-05
1.9036e-05
1.90237e-05
1.90133e-05
1.90051e-05
1.89992e-05
1.89957e-05
1.89953e-05
1.89965e-05
1.89996e-05
1.90058e-05
1.90153e-05
1.90272e-05
1.9041e-05
1.90566e-05
1.90738e-05
1.90931e-05
1.91141e-05
1.91344e-05
1.91557e-05
1.91792e-05
1.92027e-05
1.92264e-05
1.92505e-05
1.92735e-05
1.92953e-05
1.93163e-05
1.93359e-05
1.93539e-05
1.93705e-05
1.9386e-05
1.94001e-05
1.94128e-05
1.94239e-05
1.94341e-05
1.94433e-05
1.94514e-05
1.94584e-05
1.94645e-05
1.94697e-05
1.94741e-05
1.94777e-05
1.94809e-05
1.94837e-05
1.9486e-05
1.9488e-05
1.94895e-05
1.94908e-05
1.94918e-05
1.94926e-05
1.94932e-05
1.94936e-05
1.94939e-05
1.94941e-05
1.94942e-05
1.94942e-05
1.94942e-05
1.94942e-05
1.94942e-05
1.94942e-05
1.94942e-05
1.94943e-05
1.94944e-05
1.94946e-05
1.94949e-05
1.94953e-05
1.94958e-05
1.94964e-05
1.94971e-05
1.9498e-05
1.9499e-05
2.03384e-05
2.03042e-05
2.02701e-05
2.02364e-05
2.02022e-05
2.01676e-05
2.0133e-05
2.00982e-05
2.00633e-05
2.00284e-05
1.99933e-05
1.99588e-05
1.99248e-05
1.98908e-05
1.98571e-05
1.98235e-05
1.97897e-05
1.97558e-05
1.97238e-05
1.96917e-05
1.96583e-05
1.96247e-05
1.95932e-05
1.95621e-05
1.95305e-05
1.95003e-05
1.94707e-05
1.94408e-05
1.94125e-05
1.93848e-05
1.93566e-05
1.93301e-05
1.93061e-05
1.92818e-05
1.9258e-05
1.92372e-05
1.92182e-05
1.91984e-05
1.9179e-05
1.91623e-05
1.91473e-05
1.91336e-05
1.91213e-05
1.91111e-05
1.91029e-05
1.90969e-05
1.90929e-05
1.90916e-05
1.90921e-05
1.90943e-05
1.90987e-05
1.91046e-05
1.91123e-05
1.91229e-05
1.9136e-05
1.91513e-05
1.91685e-05
1.91875e-05
1.9208e-05
1.92292e-05
1.92507e-05
1.92728e-05
1.92955e-05
1.93179e-05
1.93401e-05
1.93608e-05
1.93804e-05
1.93994e-05
1.94174e-05
1.94327e-05
1.9447e-05
1.94616e-05
1.94748e-05
1.94855e-05
1.94955e-05
1.95052e-05
1.95138e-05
1.95204e-05
1.95259e-05
1.95313e-05
1.95359e-05
1.95395e-05
1.95424e-05
1.95448e-05
1.95467e-05
1.95481e-05
1.95491e-05
1.95495e-05
1.95496e-05
1.95495e-05
1.95492e-05
1.95487e-05
1.9548e-05
1.95471e-05
1.95462e-05
1.95451e-05
1.9544e-05
1.95429e-05
1.95417e-05
1.95405e-05
1.95394e-05
1.95383e-05
1.95372e-05
1.95363e-05
1.95354e-05
1.95347e-05
1.9534e-05
1.95334e-05
1.95329e-05
1.95326e-05
1.95324e-05
1.95323e-05
1.95323e-05
2.04727e-05
2.04374e-05
2.0402e-05
2.03666e-05
2.03314e-05
2.02963e-05
2.0261e-05
2.02255e-05
2.01899e-05
2.01542e-05
2.01184e-05
2.00825e-05
2.00464e-05
2.0011e-05
1.99759e-05
1.99409e-05
1.99064e-05
1.98723e-05
1.98379e-05
1.98039e-05
1.97718e-05
1.97393e-05
1.97055e-05
1.9672e-05
1.96407e-05
1.9609e-05
1.95771e-05
1.95474e-05
1.95181e-05
1.94881e-05
1.94607e-05
1.94337e-05
1.94057e-05
1.93805e-05
1.93572e-05
1.9333e-05
1.93103e-05
1.92899e-05
1.92711e-05
1.92505e-05
1.92308e-05
1.92142e-05
1.91991e-05
1.91853e-05
1.91736e-05
1.91638e-05
1.91559e-05
1.91501e-05
1.91466e-05
1.91461e-05
1.91472e-05
1.91502e-05
1.91554e-05
1.91627e-05
1.91719e-05
1.91833e-05
1.91965e-05
1.92116e-05
1.9228e-05
1.92455e-05
1.92637e-05
1.92826e-05
1.9302e-05
1.93211e-05
1.93406e-05
1.93607e-05
1.93812e-05
1.9401e-05
1.94176e-05
1.94345e-05
1.94512e-05
1.94659e-05
1.94789e-05
1.94926e-05
1.95049e-05
1.95157e-05
1.95252e-05
1.95349e-05
1.95434e-05
1.95505e-05
1.95565e-05
1.95622e-05
1.95671e-05
1.9571e-05
1.95742e-05
1.95763e-05
1.95778e-05
1.95792e-05
1.95801e-05
1.95802e-05
1.958e-05
1.95794e-05
1.95787e-05
1.95777e-05
1.95765e-05
1.95752e-05
1.95739e-05
1.95724e-05
1.95709e-05
1.95694e-05
1.95679e-05
1.95664e-05
1.9565e-05
1.95637e-05
1.95624e-05
1.95612e-05
1.95602e-05
1.95592e-05
1.95584e-05
1.95576e-05
1.9557e-05
1.95565e-05
1.95561e-05
1.9556e-05
1.95559e-05
2.05291e-05
2.04927e-05
2.04561e-05
2.04196e-05
2.03832e-05
2.03467e-05
2.03103e-05
2.02739e-05
2.02374e-05
2.0201e-05
2.01645e-05
2.01278e-05
2.00914e-05
2.00557e-05
2.00202e-05
1.9985e-05
1.99504e-05
1.99161e-05
1.98816e-05
1.98477e-05
1.98156e-05
1.97829e-05
1.97488e-05
1.97161e-05
1.96849e-05
1.96528e-05
1.96211e-05
1.95924e-05
1.95631e-05
1.95336e-05
1.95073e-05
1.94807e-05
1.94538e-05
1.94297e-05
1.94068e-05
1.93827e-05
1.93614e-05
1.93414e-05
1.93234e-05
1.93031e-05
1.92837e-05
1.92669e-05
1.92516e-05
1.92382e-05
1.92268e-05
1.92172e-05
1.92095e-05
1.92037e-05
1.92001e-05
1.91995e-05
1.92003e-05
1.92027e-05
1.92069e-05
1.9213e-05
1.92208e-05
1.92305e-05
1.92419e-05
1.92551e-05
1.92696e-05
1.92851e-05
1.93015e-05
1.93185e-05
1.93356e-05
1.93523e-05
1.93693e-05
1.93869e-05
1.94048e-05
1.94221e-05
1.94375e-05
1.94519e-05
1.94674e-05
1.94819e-05
1.9495e-05
1.95076e-05
1.95197e-05
1.95308e-05
1.9541e-05
1.95507e-05
1.95595e-05
1.95673e-05
1.95739e-05
1.958e-05
1.95857e-05
1.95903e-05
1.95938e-05
1.95966e-05
1.95989e-05
1.96007e-05
1.9602e-05
1.96025e-05
1.96025e-05
1.96023e-05
1.96018e-05
1.96011e-05
1.96003e-05
1.95992e-05
1.95981e-05
1.95968e-05
1.95954e-05
1.9594e-05
1.95925e-05
1.95911e-05
1.95897e-05
1.95884e-05
1.95872e-05
1.9586e-05
1.9585e-05
1.95841e-05
1.95832e-05
1.95825e-05
1.95819e-05
1.95815e-05
1.95812e-05
1.95811e-05
1.95811e-05
1.95813e-05
2.08358e-05
2.07998e-05
2.07636e-05
2.07269e-05
2.069e-05
2.0653e-05
2.06159e-05
2.05788e-05
2.05416e-05
2.05044e-05
2.04674e-05
2.04304e-05
2.03935e-05
2.03566e-05
2.03198e-05
2.02832e-05
2.02466e-05
2.02099e-05
2.01733e-05
2.01372e-05
2.01016e-05
2.00661e-05
2.0031e-05
1.99967e-05
1.99625e-05
1.9928e-05
1.98945e-05
1.98626e-05
1.98297e-05
1.97955e-05
1.97639e-05
1.97329e-05
1.97004e-05
1.96698e-05
1.96417e-05
1.96124e-05
1.95839e-05
1.95584e-05
1.9532e-05
1.95067e-05
1.94836e-05
1.94606e-05
1.94372e-05
1.94164e-05
1.93963e-05
1.93786e-05
1.93587e-05
1.93402e-05
1.93234e-05
1.93085e-05
1.92957e-05
1.92846e-05
1.92751e-05
1.92672e-05
1.92612e-05
1.92572e-05
1.92558e-05
1.92561e-05
1.92577e-05
1.92608e-05
1.92656e-05
1.92718e-05
1.92797e-05
1.9289e-05
1.92996e-05
1.93114e-05
1.93241e-05
1.93376e-05
1.93516e-05
1.93657e-05
1.93801e-05
1.9395e-05
1.941e-05
1.94249e-05
1.94407e-05
1.94553e-05
1.94683e-05
1.94818e-05
1.94956e-05
1.95086e-05
1.95209e-05
1.95327e-05
1.95439e-05
1.95546e-05
1.95647e-05
1.95743e-05
1.9583e-05
1.95904e-05
1.95972e-05
1.96039e-05
1.96097e-05
1.9614e-05
1.96176e-05
1.96207e-05
1.96233e-05
1.96253e-05
1.96266e-05
1.96273e-05
1.96275e-05
1.96275e-05
1.96272e-05
1.96266e-05
1.96258e-05
1.96249e-05
1.96237e-05
1.96225e-05
1.96212e-05
1.96198e-05
1.96185e-05
1.96172e-05
1.9616e-05
1.96148e-05
1.96137e-05
1.96128e-05
1.9612e-05
1.96113e-05
1.96108e-05
1.96104e-05
1.96101e-05
1.96101e-05
1.96102e-05
1.96105e-05
1.9611e-05
2.08879e-05
2.08511e-05
2.08142e-05
2.0777e-05
2.07397e-05
2.07024e-05
2.06651e-05
2.06278e-05
2.05905e-05
2.05533e-05
2.05162e-05
2.04791e-05
2.04422e-05
2.04054e-05
2.03687e-05
2.03322e-05
2.02958e-05
2.02594e-05
2.02232e-05
2.01876e-05
2.01522e-05
2.0117e-05
2.00825e-05
2.00485e-05
2.00145e-05
1.99802e-05
1.99474e-05
1.99156e-05
1.98826e-05
1.98491e-05
1.98185e-05
1.97876e-05
1.97552e-05
1.97261e-05
1.96984e-05
1.96691e-05
1.96421e-05
1.96169e-05
1.95908e-05
1.9567e-05
1.9545e-05
1.95215e-05
1.94988e-05
1.9478e-05
1.94579e-05
1.94392e-05
1.94208e-05
1.9403e-05
1.93866e-05
1.93722e-05
1.93597e-05
1.93487e-05
1.93391e-05
1.9331e-05
1.93246e-05
1.932e-05
1.93173e-05
1.93169e-05
1.93175e-05
1.93193e-05
1.93225e-05
1.9327e-05
1.93327e-05
1.93397e-05
1.93478e-05
1.93569e-05
1.93669e-05
1.93775e-05
1.93886e-05
1.94e-05
1.94119e-05
1.94242e-05
1.94365e-05
1.94491e-05
1.94627e-05
1.94763e-05
1.9488e-05
1.94996e-05
1.95124e-05
1.95252e-05
1.95373e-05
1.95489e-05
1.95602e-05
1.95711e-05
1.95817e-05
1.9592e-05
1.96015e-05
1.96097e-05
1.96174e-05
1.96248e-05
1.96315e-05
1.96368e-05
1.96413e-05
1.96455e-05
1.96491e-05
1.96519e-05
1.9654e-05
1.96555e-05
1.96565e-05
1.9657e-05
1.96572e-05
1.96571e-05
1.96568e-05
1.96562e-05
1.96554e-05
1.96544e-05
1.96533e-05
1.96522e-05
1.96511e-05
1.965e-05
1.96489e-05
1.9648e-05
1.96472e-05
1.96465e-05
1.9646e-05
1.96456e-05
1.96454e-05
1.96454e-05
1.96455e-05
1.96458e-05
1.96463e-05
1.9647e-05
1.96479e-05
2.0939e-05
2.0902e-05
2.08649e-05
2.08278e-05
2.07906e-05
2.07534e-05
2.07162e-05
2.06791e-05
2.0642e-05
2.0605e-05
2.05681e-05
2.05313e-05
2.04947e-05
2.04582e-05
2.04219e-05
2.03859e-05
2.03499e-05
2.0314e-05
2.02785e-05
2.02435e-05
2.02085e-05
2.0174e-05
2.01401e-05
2.01066e-05
2.00731e-05
2.00393e-05
2.00073e-05
1.99758e-05
1.99429e-05
1.99106e-05
1.98809e-05
1.98502e-05
1.98187e-05
1.97909e-05
1.97632e-05
1.97347e-05
1.97091e-05
1.96837e-05
1.96588e-05
1.9636e-05
1.96147e-05
1.95911e-05
1.95682e-05
1.95475e-05
1.95275e-05
1.95084e-05
1.94907e-05
1.94737e-05
1.9458e-05
1.94438e-05
1.94313e-05
1.94202e-05
1.94104e-05
1.94019e-05
1.93949e-05
1.93895e-05
1.93857e-05
1.93836e-05
1.93831e-05
1.93836e-05
1.93851e-05
1.93876e-05
1.93913e-05
1.9396e-05
1.94016e-05
1.94081e-05
1.94153e-05
1.94232e-05
1.94315e-05
1.94404e-05
1.94498e-05
1.94595e-05
1.94694e-05
1.94799e-05
1.94911e-05
1.95033e-05
1.9514e-05
1.95241e-05
1.95357e-05
1.95481e-05
1.95598e-05
1.9571e-05
1.95821e-05
1.9593e-05
1.9604e-05
1.96149e-05
1.96251e-05
1.96341e-05
1.96426e-05
1.9651e-05
1.96586e-05
1.96648e-05
1.96705e-05
1.96758e-05
1.96804e-05
1.96843e-05
1.96874e-05
1.96899e-05
1.96917e-05
1.96931e-05
1.9694e-05
1.96945e-05
1.96946e-05
1.96946e-05
1.96942e-05
1.96937e-05
1.96931e-05
1.96923e-05
1.96916e-05
1.96908e-05
1.96902e-05
1.96896e-05
1.96892e-05
1.96889e-05
1.96889e-05
1.96889e-05
1.96892e-05
1.96897e-05
1.96904e-05
1.96913e-05
1.96924e-05
1.96936e-05
1.96951e-05
2.09909e-05
2.09541e-05
2.09172e-05
2.08803e-05
2.08434e-05
2.08066e-05
2.07698e-05
2.07331e-05
2.06965e-05
2.066e-05
2.06236e-05
2.05874e-05
2.05513e-05
2.05154e-05
2.04798e-05
2.04444e-05
2.04091e-05
2.0374e-05
2.03394e-05
2.03051e-05
2.02709e-05
2.02373e-05
2.02042e-05
2.01715e-05
2.01386e-05
2.01056e-05
2.00746e-05
2.00436e-05
2.0011e-05
1.99806e-05
1.99515e-05
1.99208e-05
1.98913e-05
1.98646e-05
1.98366e-05
1.98098e-05
1.97854e-05
1.97601e-05
1.97362e-05
1.97137e-05
1.96928e-05
1.96701e-05
1.96468e-05
1.96258e-05
1.96059e-05
1.95868e-05
1.95695e-05
1.95532e-05
1.9538e-05
1.95239e-05
1.95112e-05
1.94998e-05
1.94896e-05
1.94806e-05
1.94729e-05
1.94665e-05
1.94615e-05
1.9458e-05
1.94558e-05
1.94546e-05
1.94546e-05
1.94553e-05
1.94568e-05
1.94592e-05
1.94624e-05
1.94664e-05
1.94711e-05
1.94764e-05
1.94822e-05
1.94885e-05
1.94954e-05
1.95027e-05
1.95105e-05
1.95189e-05
1.9528e-05
1.95383e-05
1.95482e-05
1.95571e-05
1.95673e-05
1.95791e-05
1.95903e-05
1.9601e-05
1.96118e-05
1.96226e-05
1.96337e-05
1.96452e-05
1.96564e-05
1.96662e-05
1.96753e-05
1.96844e-05
1.96929e-05
1.97004e-05
1.97073e-05
1.97138e-05
1.97197e-05
1.97248e-05
1.97291e-05
1.97326e-05
1.97356e-05
1.97379e-05
1.97398e-05
1.97412e-05
1.97422e-05
1.97428e-05
1.97432e-05
1.97433e-05
1.97433e-05
1.97431e-05
1.97429e-05
1.97428e-05
1.97428e-05
1.97428e-05
1.9743e-05
1.97434e-05
1.97439e-05
1.97447e-05
1.97456e-05
1.97467e-05
1.97481e-05
1.97497e-05
1.97515e-05
1.97535e-05
1.97557e-05
1.97581e-05
1.97607e-05
2.10438e-05
2.10074e-05
2.0971e-05
2.09347e-05
2.08984e-05
2.08621e-05
2.0826e-05
2.079e-05
2.07541e-05
2.07183e-05
2.06827e-05
2.06472e-05
2.0612e-05
2.0577e-05
2.05423e-05
2.05078e-05
2.04734e-05
2.04395e-05
2.04059e-05
2.03725e-05
2.03395e-05
2.0307e-05
2.02749e-05
2.02431e-05
2.02111e-05
2.01793e-05
2.01494e-05
2.01189e-05
2.00875e-05
2.00589e-05
2.00302e-05
2.00002e-05
1.99731e-05
1.99469e-05
1.99193e-05
1.98942e-05
1.98709e-05
1.98461e-05
1.98227e-05
1.98006e-05
1.97797e-05
1.97582e-05
1.97352e-05
1.97142e-05
1.96942e-05
1.96753e-05
1.96582e-05
1.96423e-05
1.96272e-05
1.96131e-05
1.96e-05
1.95881e-05
1.95774e-05
1.95678e-05
1.95593e-05
1.9552e-05
1.95458e-05
1.95408e-05
1.9537e-05
1.95342e-05
1.95323e-05
1.95311e-05
1.95308e-05
1.95311e-05
1.95321e-05
1.95337e-05
1.9536e-05
1.95388e-05
1.95422e-05
1.95462e-05
1.95507e-05
1.95558e-05
1.95615e-05
1.95678e-05
1.9575e-05
1.95834e-05
1.95922e-05
1.95999e-05
1.9609e-05
1.96199e-05
1.96306e-05
1.96408e-05
1.96513e-05
1.9662e-05
1.96731e-05
1.96849e-05
1.96969e-05
1.97079e-05
1.97177e-05
1.97275e-05
1.9737e-05
1.97459e-05
1.97543e-05
1.97621e-05
1.97694e-05
1.97759e-05
1.97817e-05
1.97867e-05
1.9791e-05
1.97947e-05
1.97979e-05
1.98004e-05
1.98025e-05
1.98041e-05
1.98055e-05
1.98065e-05
1.98074e-05
1.98082e-05
1.98089e-05
1.98095e-05
1.98102e-05
1.98111e-05
1.9812e-05
1.98132e-05
1.98146e-05
1.98163e-05
1.98182e-05
1.98203e-05
1.98227e-05
1.98254e-05
1.98283e-05
1.98314e-05
1.98347e-05
1.98383e-05
1.9842e-05
2.10979e-05
2.10622e-05
2.10265e-05
2.09909e-05
2.09554e-05
2.092e-05
2.08848e-05
2.08497e-05
2.08147e-05
2.07799e-05
2.07454e-05
2.0711e-05
2.06769e-05
2.06431e-05
2.06095e-05
2.05761e-05
2.0543e-05
2.05105e-05
2.04782e-05
2.04459e-05
2.04144e-05
2.03832e-05
2.03522e-05
2.03217e-05
2.02909e-05
2.02606e-05
2.02318e-05
2.0202e-05
2.01728e-05
2.01455e-05
2.01171e-05
2.0089e-05
2.00637e-05
2.00378e-05
2.00116e-05
1.99879e-05
1.99658e-05
1.99417e-05
1.99188e-05
1.98972e-05
1.98762e-05
1.98554e-05
1.98335e-05
1.98127e-05
1.97929e-05
1.97742e-05
1.97572e-05
1.97415e-05
1.97265e-05
1.97122e-05
1.96988e-05
1.96864e-05
1.96751e-05
1.96648e-05
1.96555e-05
1.96472e-05
1.96399e-05
1.96336e-05
1.96282e-05
1.96238e-05
1.96201e-05
1.96172e-05
1.96149e-05
1.96133e-05
1.96122e-05
1.96117e-05
1.96119e-05
1.96124e-05
1.96136e-05
1.96153e-05
1.96177e-05
1.96207e-05
1.96244e-05
1.96288e-05
1.96341e-05
1.96408e-05
1.9648e-05