/*--------------------------------*- C++ -*----------------------------------*\
| =========                 |                                                 |
| \\      /  F ield         | OpenFOAM: The Open Source CFD Toolbox           |
|  \\    /   O peration     | Version:  v1706                                 |
|   \\  /    A nd           | Web:      www.OpenFOAM.com                      |
|    \\/     M anipulation  |                                                 |
\*---------------------------------------------------------------------------*/
FoamFile
{
    version     2.0;
    format      ascii;
    class       volScalarField;
    location    "1.6e-05";
    object      kappave;
}
// * * * * * * * * * * * * * * * * * * * * * * * * * * * * * * * * * * * * * //

dimensions      [1 1 -3 -1 0 0 0];


internalField   nonuniform List<scalar> 
29871
(
1.46049e-10
1.46049e-10
1.4605e-10
1.4605e-10
1.4605e-10
1.46051e-10
1.46051e-10
1.46051e-10
1.46052e-10
1.46052e-10
1.46052e-10
1.46052e-10
1.46052e-10
1.46052e-10
1.46053e-10
1.46053e-10
1.46053e-10
1.46053e-10
1.46053e-10
1.46053e-10
1.46053e-10
1.46052e-10
1.46052e-10
1.46052e-10
1.46052e-10
1.46052e-10
1.46051e-10
1.46051e-10
1.46051e-10
1.4605e-10
1.4605e-10
1.4605e-10
1.46049e-10
1.46049e-10
1.46049e-10
1.46048e-10
1.46048e-10
1.46048e-10
1.46047e-10
1.46047e-10
1.46046e-10
1.46046e-10
1.46046e-10
1.46045e-10
1.46045e-10
1.46045e-10
1.46044e-10
1.46044e-10
1.46044e-10
1.46044e-10
1.46043e-10
1.46043e-10
1.46043e-10
1.46043e-10
1.46043e-10
1.46042e-10
1.46042e-10
1.46042e-10
1.46042e-10
1.46042e-10
1.46042e-10
1.46042e-10
1.46042e-10
1.46042e-10
1.46042e-10
1.46042e-10
1.46042e-10
1.46042e-10
1.46042e-10
1.46042e-10
1.46042e-10
1.46042e-10
1.46042e-10
1.46042e-10
1.46042e-10
1.46042e-10
1.46042e-10
1.46042e-10
1.46042e-10
1.46042e-10
1.46042e-10
1.46042e-10
1.46042e-10
1.46042e-10
1.46042e-10
1.46042e-10
1.46042e-10
1.46042e-10
1.46043e-10
1.46043e-10
1.46043e-10
1.46043e-10
1.46043e-10
1.46043e-10
1.46043e-10
1.46043e-10
1.46043e-10
1.46043e-10
1.46043e-10
1.46043e-10
1.46043e-10
1.46043e-10
1.46044e-10
1.46044e-10
1.46044e-10
1.46102e-10
1.46104e-10
1.46106e-10
1.46109e-10
1.46111e-10
1.46113e-10
1.46115e-10
1.46117e-10
1.46119e-10
1.4612e-10
1.46121e-10
1.46123e-10
1.46124e-10
1.46125e-10
1.46125e-10
1.46126e-10
1.46126e-10
1.46126e-10
1.46126e-10
1.46126e-10
1.46125e-10
1.46125e-10
1.46124e-10
1.46123e-10
1.46122e-10
1.4612e-10
1.46119e-10
1.46117e-10
1.46116e-10
1.46114e-10
1.46112e-10
1.4611e-10
1.46108e-10
1.46106e-10
1.46104e-10
1.46102e-10
1.46099e-10
1.46097e-10
1.46095e-10
1.46093e-10
1.46091e-10
1.46089e-10
1.46086e-10
1.46084e-10
1.46083e-10
1.46081e-10
1.46079e-10
1.46077e-10
1.46076e-10
1.46074e-10
1.46073e-10
1.46071e-10
1.4607e-10
1.46069e-10
1.46068e-10
1.46067e-10
1.46066e-10
1.46065e-10
1.46065e-10
1.46064e-10
1.46064e-10
1.46063e-10
1.46063e-10
1.46063e-10
1.46063e-10
1.46063e-10
1.46063e-10
1.46063e-10
1.46063e-10
1.46063e-10
1.46063e-10
1.46063e-10
1.46063e-10
1.46063e-10
1.46064e-10
1.46064e-10
1.46064e-10
1.46065e-10
1.46065e-10
1.46065e-10
1.46066e-10
1.46066e-10
1.46066e-10
1.46067e-10
1.46067e-10
1.46067e-10
1.46068e-10
1.46068e-10
1.46069e-10
1.46069e-10
1.46069e-10
1.4607e-10
1.4607e-10
1.46071e-10
1.46071e-10
1.46072e-10
1.46072e-10
1.46073e-10
1.46073e-10
1.46074e-10
1.46074e-10
1.46075e-10
1.46075e-10
1.46076e-10
1.46077e-10
1.46227e-10
1.46235e-10
1.46242e-10
1.46249e-10
1.46256e-10
1.46263e-10
1.4627e-10
1.46276e-10
1.46281e-10
1.46287e-10
1.46291e-10
1.46296e-10
1.463e-10
1.46303e-10
1.46306e-10
1.46308e-10
1.46309e-10
1.4631e-10
1.46311e-10
1.46311e-10
1.4631e-10
1.46309e-10
1.46307e-10
1.46304e-10
1.46301e-10
1.46298e-10
1.46294e-10
1.4629e-10
1.46285e-10
1.4628e-10
1.46274e-10
1.46269e-10
1.46263e-10
1.46257e-10
1.4625e-10
1.46244e-10
1.46237e-10
1.4623e-10
1.46224e-10
1.46217e-10
1.4621e-10
1.46204e-10
1.46197e-10
1.46191e-10
1.46185e-10
1.46179e-10
1.46173e-10
1.46168e-10
1.46163e-10
1.46158e-10
1.46153e-10
1.46149e-10
1.46144e-10
1.46141e-10
1.46137e-10
1.46134e-10
1.46131e-10
1.46129e-10
1.46127e-10
1.46125e-10
1.46123e-10
1.46122e-10
1.46121e-10
1.4612e-10
1.46119e-10
1.46119e-10
1.46119e-10
1.46119e-10
1.46119e-10
1.46119e-10
1.46119e-10
1.4612e-10
1.4612e-10
1.46121e-10
1.46122e-10
1.46123e-10
1.46124e-10
1.46125e-10
1.46126e-10
1.46127e-10
1.46128e-10
1.4613e-10
1.46131e-10
1.46132e-10
1.46133e-10
1.46135e-10
1.46136e-10
1.46137e-10
1.46139e-10
1.4614e-10
1.46142e-10
1.46143e-10
1.46145e-10
1.46147e-10
1.46148e-10
1.4615e-10
1.46152e-10
1.46153e-10
1.46155e-10
1.46157e-10
1.46159e-10
1.46161e-10
1.46163e-10
1.46165e-10
1.46167e-10
1.4617e-10
1.4654e-10
1.4656e-10
1.4658e-10
1.46599e-10
1.46617e-10
1.46635e-10
1.46652e-10
1.46667e-10
1.46682e-10
1.46696e-10
1.46709e-10
1.4672e-10
1.4673e-10
1.46738e-10
1.46746e-10
1.46751e-10
1.46755e-10
1.46758e-10
1.46759e-10
1.46758e-10
1.46756e-10
1.46753e-10
1.46748e-10
1.46742e-10
1.46734e-10
1.46725e-10
1.46715e-10
1.46703e-10
1.46691e-10
1.46678e-10
1.46664e-10
1.46649e-10
1.46633e-10
1.46617e-10
1.466e-10
1.46583e-10
1.46566e-10
1.46548e-10
1.46531e-10
1.46513e-10
1.46496e-10
1.46479e-10
1.46462e-10
1.46446e-10
1.4643e-10
1.46415e-10
1.464e-10
1.46385e-10
1.46372e-10
1.46359e-10
1.46347e-10
1.46336e-10
1.46325e-10
1.46316e-10
1.46307e-10
1.46299e-10
1.46292e-10
1.46286e-10
1.4628e-10
1.46275e-10
1.46271e-10
1.46268e-10
1.46266e-10
1.46264e-10
1.46262e-10
1.46262e-10
1.46262e-10
1.46262e-10
1.46263e-10
1.46264e-10
1.46265e-10
1.46267e-10
1.46269e-10
1.46272e-10
1.46275e-10
1.46278e-10
1.46281e-10
1.46284e-10
1.46287e-10
1.46291e-10
1.46295e-10
1.46298e-10
1.46302e-10
1.46306e-10
1.4631e-10
1.46314e-10
1.46318e-10
1.46323e-10
1.46327e-10
1.46332e-10
1.46336e-10
1.46341e-10
1.46346e-10
1.46351e-10
1.46356e-10
1.46361e-10
1.46366e-10
1.46372e-10
1.46378e-10
1.46384e-10
1.4639e-10
1.46396e-10
1.46402e-10
1.46409e-10
1.46415e-10
1.46422e-10
1.47234e-10
1.47284e-10
1.47332e-10
1.47379e-10
1.47424e-10
1.47468e-10
1.4751e-10
1.4755e-10
1.47587e-10
1.47622e-10
1.47655e-10
1.47684e-10
1.4771e-10
1.47733e-10
1.47753e-10
1.47769e-10
1.47782e-10
1.47791e-10
1.47796e-10
1.47797e-10
1.47796e-10
1.4779e-10
1.47781e-10
1.47769e-10
1.47753e-10
1.47734e-10
1.47712e-10
1.47687e-10
1.47659e-10
1.47629e-10
1.47597e-10
1.47562e-10
1.47526e-10
1.47488e-10
1.47449e-10
1.47409e-10
1.47368e-10
1.47327e-10
1.47285e-10
1.47243e-10
1.47202e-10
1.4716e-10
1.4712e-10
1.4708e-10
1.47041e-10
1.47003e-10
1.46966e-10
1.46931e-10
1.46897e-10
1.46865e-10
1.46835e-10
1.46806e-10
1.4678e-10
1.46755e-10
1.46732e-10
1.46712e-10
1.46693e-10
1.46677e-10
1.46663e-10
1.4665e-10
1.4664e-10
1.46631e-10
1.46625e-10
1.4662e-10
1.46616e-10
1.46615e-10
1.46615e-10
1.46615e-10
1.46617e-10
1.4662e-10
1.46624e-10
1.4663e-10
1.46636e-10
1.46642e-10
1.4665e-10
1.46658e-10
1.46666e-10
1.46676e-10
1.46685e-10
1.46695e-10
1.46705e-10
1.46715e-10
1.46726e-10
1.46737e-10
1.46748e-10
1.4676e-10
1.46771e-10
1.46783e-10
1.46795e-10
1.46808e-10
1.46821e-10
1.46834e-10
1.46847e-10
1.46861e-10
1.46876e-10
1.4689e-10
1.46905e-10
1.46921e-10
1.46937e-10
1.46954e-10
1.46971e-10
1.46988e-10
1.47006e-10
1.47025e-10
1.47044e-10
1.47064e-10
1.47084e-10
1.48873e-10
1.48985e-10
1.49095e-10
1.49201e-10
1.49304e-10
1.49402e-10
1.49496e-10
1.49584e-10
1.49667e-10
1.49743e-10
1.49813e-10
1.49877e-10
1.49933e-10
1.49982e-10
1.50023e-10
1.50056e-10
1.50081e-10
1.50098e-10
1.50106e-10
1.50106e-10
1.50099e-10
1.50085e-10
1.50062e-10
1.50031e-10
1.49993e-10
1.49948e-10
1.49896e-10
1.49838e-10
1.49774e-10
1.49705e-10
1.4963e-10
1.49552e-10
1.49469e-10
1.49383e-10
1.49294e-10
1.49203e-10
1.49111e-10
1.49017e-10
1.48922e-10
1.48828e-10
1.48734e-10
1.4864e-10
1.48548e-10
1.48458e-10
1.48371e-10
1.48285e-10
1.48203e-10
1.48124e-10
1.48049e-10
1.47978e-10
1.47911e-10
1.47848e-10
1.4779e-10
1.47736e-10
1.47687e-10
1.47643e-10
1.47604e-10
1.47569e-10
1.47539e-10
1.47513e-10
1.47493e-10
1.47476e-10
1.47464e-10
1.47456e-10
1.47452e-10
1.47452e-10
1.47454e-10
1.47459e-10
1.47468e-10
1.47479e-10
1.47492e-10
1.47508e-10
1.47526e-10
1.47545e-10
1.47567e-10
1.47589e-10
1.47613e-10
1.47638e-10
1.47664e-10
1.47691e-10
1.47719e-10
1.47747e-10
1.47776e-10
1.47806e-10
1.47837e-10
1.47868e-10
1.47899e-10
1.47932e-10
1.47965e-10
1.47999e-10
1.48033e-10
1.48069e-10
1.48105e-10
1.48142e-10
1.48181e-10
1.4822e-10
1.48261e-10
1.48303e-10
1.48346e-10
1.48391e-10
1.48436e-10
1.48484e-10
1.48532e-10
1.48583e-10
1.48634e-10
1.48687e-10
1.48742e-10
1.51702e-10
1.51949e-10
1.52193e-10
1.52433e-10
1.52668e-10
1.52895e-10
1.53115e-10
1.53325e-10
1.53524e-10
1.53713e-10
1.53888e-10
1.54051e-10
1.542e-10
1.54335e-10
1.54456e-10
1.54561e-10
1.54651e-10
1.54725e-10
1.54783e-10
1.54825e-10
1.54849e-10
1.54855e-10
1.54848e-10
1.54824e-10
1.54786e-10
1.54731e-10
1.5466e-10
1.54575e-10
1.54477e-10
1.54365e-10
1.5424e-10
1.54104e-10
1.53957e-10
1.53801e-10
1.53636e-10
1.53464e-10
1.53285e-10
1.531e-10
1.52911e-10
1.52719e-10
1.52525e-10
1.52329e-10
1.52134e-10
1.51939e-10
1.51746e-10
1.51556e-10
1.51369e-10
1.51187e-10
1.51011e-10
1.5084e-10
1.50677e-10
1.50521e-10
1.50374e-10
1.50235e-10
1.50106e-10
1.49987e-10
1.49877e-10
1.49779e-10
1.4969e-10
1.49613e-10
1.49546e-10
1.49489e-10
1.49443e-10
1.49407e-10
1.4938e-10
1.49363e-10
1.49356e-10
1.49357e-10
1.49363e-10
1.49377e-10
1.49398e-10
1.49426e-10
1.4946e-10
1.49499e-10
1.49543e-10
1.49591e-10
1.49643e-10
1.49699e-10
1.49758e-10
1.4982e-10
1.49884e-10
1.4995e-10
1.50019e-10
1.50089e-10
1.50161e-10
1.50234e-10
1.50309e-10
1.50385e-10
1.50463e-10
1.50542e-10
1.50623e-10
1.50706e-10
1.5079e-10
1.50877e-10
1.50965e-10
1.51056e-10
1.5115e-10
1.51246e-10
1.51344e-10
1.51446e-10
1.51551e-10
1.51659e-10
1.5177e-10
1.51885e-10
1.52003e-10
1.52125e-10
1.52251e-10
1.52381e-10
1.52514e-10
1.52651e-10
1.5811e-10
1.5858e-10
1.59041e-10
1.59492e-10
1.59928e-10
1.60347e-10
1.60746e-10
1.61124e-10
1.61478e-10
1.61808e-10
1.62112e-10
1.62389e-10
1.62639e-10
1.6286e-10
1.63053e-10
1.63217e-10
1.63353e-10
1.6346e-10
1.63538e-10
1.63586e-10
1.63602e-10
1.63593e-10
1.63557e-10
1.63494e-10
1.63404e-10
1.63286e-10
1.63141e-10
1.62972e-10
1.6278e-10
1.62565e-10
1.62329e-10
1.62073e-10
1.61798e-10
1.61507e-10
1.612e-10
1.6088e-10
1.60548e-10
1.60206e-10
1.59856e-10
1.59499e-10
1.59139e-10
1.58776e-10
1.58413e-10
1.58051e-10
1.57692e-10
1.57338e-10
1.56992e-10
1.56654e-10
1.56326e-10
1.56011e-10
1.55709e-10
1.55421e-10
1.55149e-10
1.54894e-10
1.54657e-10
1.54439e-10
1.54241e-10
1.54063e-10
1.53905e-10
1.53769e-10
1.53654e-10
1.5356e-10
1.53488e-10
1.53436e-10
1.53404e-10
1.53395e-10
1.53401e-10
1.5342e-10
1.53456e-10
1.53507e-10
1.53572e-10
1.5365e-10
1.5374e-10
1.53841e-10
1.53951e-10
1.5407e-10
1.54197e-10
1.54331e-10
1.5447e-10
1.54615e-10
1.54765e-10
1.54919e-10
1.55076e-10
1.55238e-10
1.55403e-10
1.55571e-10
1.55742e-10
1.55916e-10
1.56093e-10
1.56274e-10
1.56457e-10
1.56644e-10
1.56835e-10
1.57029e-10
1.57228e-10
1.57431e-10
1.57638e-10
1.57851e-10
1.58069e-10
1.58292e-10
1.58521e-10
1.58756e-10
1.58997e-10
1.59244e-10
1.59499e-10
1.59759e-10
1.60027e-10
1.60302e-10
1.60584e-10
1.60873e-10
1.69396e-10
1.70121e-10
1.70818e-10
1.71486e-10
1.72122e-10
1.72723e-10
1.73284e-10
1.73804e-10
1.74282e-10
1.74716e-10
1.75104e-10
1.75447e-10
1.75744e-10
1.75997e-10
1.76206e-10
1.76372e-10
1.76497e-10
1.76585e-10
1.76632e-10
1.76632e-10
1.76601e-10
1.76531e-10
1.76425e-10
1.7629e-10
1.76116e-10
1.75904e-10
1.7566e-10
1.75384e-10
1.75078e-10
1.74743e-10
1.74381e-10
1.73994e-10
1.73582e-10
1.73148e-10
1.72694e-10
1.72222e-10
1.71733e-10
1.71229e-10
1.70713e-10
1.70187e-10
1.69653e-10
1.69113e-10
1.68569e-10
1.68024e-10
1.67482e-10
1.66943e-10
1.66412e-10
1.65891e-10
1.65384e-10
1.64893e-10
1.64421e-10
1.63972e-10
1.63547e-10
1.63151e-10
1.62785e-10
1.62452e-10
1.62153e-10
1.61889e-10
1.61662e-10
1.61472e-10
1.61319e-10
1.61203e-10
1.61125e-10
1.61082e-10
1.61082e-10
1.61103e-10
1.61154e-10
1.61237e-10
1.61347e-10
1.61483e-10
1.61643e-10
1.61824e-10
1.62024e-10
1.62242e-10
1.62474e-10
1.6272e-10
1.62977e-10
1.63245e-10
1.63521e-10
1.63805e-10
1.64096e-10
1.64393e-10
1.64694e-10
1.65001e-10
1.65311e-10
1.65625e-10
1.65943e-10
1.66265e-10
1.6659e-10
1.6692e-10
1.67254e-10
1.67592e-10
1.67936e-10
1.68285e-10
1.6864e-10
1.69001e-10
1.69369e-10
1.69744e-10
1.70125e-10
1.70514e-10
1.7091e-10
1.71314e-10
1.71726e-10
1.72146e-10
1.72574e-10
1.7301e-10
1.73455e-10
1.73909e-10
1.74371e-10
1.7484e-10
1.84984e-10
1.85769e-10
1.86503e-10
1.8719e-10
1.87829e-10
1.88416e-10
1.88945e-10
1.89414e-10
1.89825e-10
1.9018e-10
1.9048e-10
1.90726e-10
1.90919e-10
1.91059e-10
1.9115e-10
1.9119e-10
1.91187e-10
1.91159e-10
1.91091e-10
1.90984e-10
1.90842e-10
1.90668e-10
1.90475e-10
1.90235e-10
1.89964e-10
1.89664e-10
1.89334e-10
1.88978e-10
1.88595e-10
1.88187e-10
1.87753e-10
1.87296e-10
1.86819e-10
1.86321e-10
1.85803e-10
1.85267e-10
1.84716e-10
1.8415e-10
1.83571e-10
1.82982e-10
1.82384e-10
1.81782e-10
1.81175e-10
1.80567e-10
1.7996e-10
1.79358e-10
1.78763e-10
1.7818e-10
1.77611e-10
1.77059e-10
1.76528e-10
1.7602e-10
1.7554e-10
1.75092e-10
1.74679e-10
1.74305e-10
1.73974e-10
1.7369e-10
1.73457e-10
1.73274e-10
1.73143e-10
1.73064e-10
1.73053e-10
1.7308e-10
1.73148e-10
1.73267e-10
1.73428e-10
1.73628e-10
1.73864e-10
1.74133e-10
1.74431e-10
1.74754e-10
1.75099e-10
1.75462e-10
1.75841e-10
1.76233e-10
1.76635e-10
1.77045e-10
1.77462e-10
1.77883e-10
1.78308e-10
1.78735e-10
1.79164e-10
1.79593e-10
1.80023e-10
1.80455e-10
1.80887e-10
1.8132e-10
1.81754e-10
1.82189e-10
1.82625e-10
1.83062e-10
1.83501e-10
1.83941e-10
1.84384e-10
1.84829e-10
1.85276e-10
1.85726e-10
1.86179e-10
1.86632e-10
1.87084e-10
1.87536e-10
1.87985e-10
1.88433e-10
1.88878e-10
1.8932e-10
1.89759e-10
1.90193e-10
1.90622e-10
1.91046e-10
2.00097e-10
2.00491e-10
2.00805e-10
2.01046e-10
2.01222e-10
2.01342e-10
2.01413e-10
2.01432e-10
2.0142e-10
2.0138e-10
2.01305e-10
2.01197e-10
2.01059e-10
2.00893e-10
2.00703e-10
2.00493e-10
2.0027e-10
2.00041e-10
1.99811e-10
1.99541e-10
1.99257e-10
1.98977e-10
1.98699e-10
1.98409e-10
1.98102e-10
1.9778e-10
1.97455e-10
1.97128e-10
1.96793e-10
1.96454e-10
1.96115e-10
1.95772e-10
1.95421e-10
1.95065e-10
1.94708e-10
1.94345e-10
1.93974e-10
1.93596e-10
1.93213e-10
1.92824e-10
1.92426e-10
1.92019e-10
1.91605e-10
1.91187e-10
1.90767e-10
1.90345e-10
1.89926e-10
1.89512e-10
1.89109e-10
1.88721e-10
1.88352e-10
1.8801e-10
1.87698e-10
1.87421e-10
1.87181e-10
1.86982e-10
1.86827e-10
1.86716e-10
1.86653e-10
1.86643e-10
1.86669e-10
1.86744e-10
1.8686e-10
1.87018e-10
1.87221e-10
1.87461e-10
1.87738e-10
1.88047e-10
1.88385e-10
1.88742e-10
1.89115e-10
1.895e-10
1.89893e-10
1.90289e-10
1.90684e-10
1.91076e-10
1.91464e-10
1.91845e-10
1.92216e-10
1.92577e-10
1.92927e-10
1.93266e-10
1.93594e-10
1.93912e-10
1.9422e-10
1.94517e-10
1.94804e-10
1.95081e-10
1.95348e-10
1.95605e-10
1.95854e-10
1.96094e-10
1.96326e-10
1.96552e-10
1.9677e-10
1.96982e-10
1.97187e-10
1.97385e-10
1.97577e-10
1.97764e-10
1.97945e-10
1.98122e-10
1.98294e-10
1.98461e-10
1.98624e-10
1.98782e-10
1.98937e-10
1.99089e-10
1.99237e-10
1.99382e-10
2.075e-10
2.07422e-10
2.07304e-10
2.07152e-10
2.06974e-10
2.06774e-10
2.06556e-10
2.06321e-10
2.06073e-10
2.05818e-10
2.05558e-10
2.05289e-10
2.05013e-10
2.04735e-10
2.04444e-10
2.04152e-10
2.03837e-10
2.03523e-10
2.03224e-10
2.02932e-10
2.02606e-10
2.02267e-10
2.01953e-10
2.01666e-10
2.01357e-10
2.01035e-10
2.0072e-10
2.00407e-10
2.00093e-10
1.99785e-10
1.99482e-10
1.99179e-10
1.98881e-10
1.98596e-10
1.98317e-10
1.98042e-10
1.97775e-10
1.97518e-10
1.97267e-10
1.97023e-10
1.96788e-10
1.96565e-10
1.96354e-10
1.96154e-10
1.95966e-10
1.95791e-10
1.95631e-10
1.95487e-10
1.95359e-10
1.95247e-10
1.95151e-10
1.95069e-10
1.95006e-10
1.94967e-10
1.94956e-10
1.94965e-10
1.95002e-10
1.95072e-10
1.95177e-10
1.95318e-10
1.95471e-10
1.95672e-10
1.95895e-10
1.96134e-10
1.96385e-10
1.96649e-10
1.96921e-10
1.97195e-10
1.97465e-10
1.97728e-10
1.97985e-10
1.98234e-10
1.98471e-10
1.98694e-10
1.98908e-10
1.99114e-10
1.99307e-10
1.99484e-10
1.99651e-10
1.99809e-10
1.99959e-10
2.001e-10
2.00232e-10
2.00355e-10
2.00468e-10
2.00573e-10
2.00669e-10
2.0076e-10
2.00844e-10
2.00924e-10
2.00999e-10
2.01069e-10
2.01136e-10
2.01199e-10
2.01259e-10
2.01314e-10
2.01367e-10
2.01416e-10
2.01462e-10
2.01506e-10
2.01548e-10
2.01588e-10
2.01626e-10
2.01663e-10
2.01698e-10
2.01733e-10
2.01768e-10
2.01803e-10
2.01837e-10
2.01872e-10
2.01907e-10
2.10287e-10
2.10011e-10
2.09729e-10
2.09455e-10
2.09147e-10
2.08825e-10
2.08508e-10
2.08176e-10
2.0784e-10
2.07502e-10
2.07159e-10
2.06817e-10
2.0648e-10
2.0614e-10
2.05797e-10
2.05456e-10
2.0511e-10
2.04761e-10
2.0443e-10
2.04101e-10
2.03756e-10
2.03407e-10
2.03081e-10
2.02765e-10
2.02442e-10
2.02127e-10
2.0182e-10
2.01513e-10
2.01216e-10
2.00928e-10
2.00638e-10
2.00359e-10
2.00103e-10
1.99853e-10
1.99604e-10
1.99373e-10
1.99156e-10
1.98949e-10
1.98746e-10
1.98553e-10
1.98371e-10
1.982e-10
1.98039e-10
1.97894e-10
1.97766e-10
1.97658e-10
1.97573e-10
1.97511e-10
1.97475e-10
1.97471e-10
1.97484e-10
1.97515e-10
1.9758e-10
1.97679e-10
1.97802e-10
1.97946e-10
1.98108e-10
1.98287e-10
1.98488e-10
1.98706e-10
1.98917e-10
1.99138e-10
1.99383e-10
1.99627e-10
1.99873e-10
2.00124e-10
2.00363e-10
2.0059e-10
2.00808e-10
2.01011e-10
2.01199e-10
2.01372e-10
2.01532e-10
2.0168e-10
2.01811e-10
2.01927e-10
2.02033e-10
2.02128e-10
2.02213e-10
2.02286e-10
2.02349e-10
2.02403e-10
2.02448e-10
2.02486e-10
2.02519e-10
2.02548e-10
2.02572e-10
2.02593e-10
2.02609e-10
2.02622e-10
2.02632e-10
2.0264e-10
2.02647e-10
2.02651e-10
2.02654e-10
2.02656e-10
2.02657e-10
2.02658e-10
2.02658e-10
2.02658e-10
2.02657e-10
2.02657e-10
2.02658e-10
2.02658e-10
2.0266e-10
2.02662e-10
2.02665e-10
2.02669e-10
2.02674e-10
2.0268e-10
2.02688e-10
2.02697e-10
2.02707e-10
2.11433e-10
2.11078e-10
2.10724e-10
2.10373e-10
2.10018e-10
2.09658e-10
2.09298e-10
2.08937e-10
2.08574e-10
2.0821e-10
2.07846e-10
2.07487e-10
2.07134e-10
2.06781e-10
2.0643e-10
2.06081e-10
2.0573e-10
2.05377e-10
2.05044e-10
2.04711e-10
2.04364e-10
2.04014e-10
2.03686e-10
2.03363e-10
2.03035e-10
2.02721e-10
2.02414e-10
2.02102e-10
2.01808e-10
2.0152e-10
2.01227e-10
2.00951e-10
2.00702e-10
2.00449e-10
2.00202e-10
1.99985e-10
1.99788e-10
1.99582e-10
1.99381e-10
1.99207e-10
1.99051e-10
1.98908e-10
1.98781e-10
1.98675e-10
1.9859e-10
1.98527e-10
1.98486e-10
1.98472e-10
1.98477e-10
1.985e-10
1.98546e-10
1.98607e-10
1.98688e-10
1.98797e-10
1.98934e-10
1.99093e-10
1.99272e-10
1.99469e-10
1.99682e-10
1.99903e-10
2.00126e-10
2.00356e-10
2.00592e-10
2.00825e-10
2.01055e-10
2.01271e-10
2.01474e-10
2.01672e-10
2.0186e-10
2.02018e-10
2.02167e-10
2.02319e-10
2.02455e-10
2.02567e-10
2.0267e-10
2.02772e-10
2.02861e-10
2.02929e-10
2.02987e-10
2.03043e-10
2.03091e-10
2.03129e-10
2.03158e-10
2.03183e-10
2.03203e-10
2.03218e-10
2.03228e-10
2.03233e-10
2.03233e-10
2.03233e-10
2.0323e-10
2.03224e-10
2.03217e-10
2.03208e-10
2.03198e-10
2.03187e-10
2.03175e-10
2.03164e-10
2.03151e-10
2.03139e-10
2.03127e-10
2.03116e-10
2.03105e-10
2.03095e-10
2.03086e-10
2.03078e-10
2.03072e-10
2.03065e-10
2.0306e-10
2.03056e-10
2.03054e-10
2.03054e-10
2.03054e-10
2.1283e-10
2.12463e-10
2.12094e-10
2.11726e-10
2.11361e-10
2.10996e-10
2.10629e-10
2.1026e-10
2.0989e-10
2.09519e-10
2.09147e-10
2.08773e-10
2.08398e-10
2.0803e-10
2.07665e-10
2.07301e-10
2.06943e-10
2.06588e-10
2.06231e-10
2.05877e-10
2.05543e-10
2.05205e-10
2.04854e-10
2.04506e-10
2.0418e-10
2.03851e-10
2.03519e-10
2.03211e-10
2.02906e-10
2.02594e-10
2.02309e-10
2.02028e-10
2.01737e-10
2.01475e-10
2.01234e-10
2.00982e-10
2.00746e-10
2.00533e-10
2.00338e-10
2.00124e-10
1.9992e-10
1.99747e-10
1.9959e-10
1.99446e-10
1.99324e-10
1.99223e-10
1.99141e-10
1.9908e-10
1.99044e-10
1.99039e-10
1.9905e-10
1.99081e-10
1.99135e-10
1.99211e-10
1.99307e-10
1.99425e-10
1.99563e-10
1.99719e-10
1.9989e-10
2.00072e-10
2.00262e-10
2.00458e-10
2.00659e-10
2.00858e-10
2.01061e-10
2.01269e-10
2.01483e-10
2.01689e-10
2.01861e-10
2.02037e-10
2.0221e-10
2.02363e-10
2.02499e-10
2.02641e-10
2.02769e-10
2.02881e-10
2.0298e-10
2.0308e-10
2.03169e-10
2.03242e-10
2.03305e-10
2.03364e-10
2.03416e-10
2.03456e-10
2.03489e-10
2.03511e-10
2.03527e-10
2.03541e-10
2.03551e-10
2.03552e-10
2.03549e-10
2.03544e-10
2.03536e-10
2.03525e-10
2.03513e-10
2.035e-10
2.03486e-10
2.0347e-10
2.03455e-10
2.03439e-10
2.03424e-10
2.03408e-10
2.03394e-10
2.0338e-10
2.03366e-10
2.03354e-10
2.03343e-10
2.03333e-10
2.03324e-10
2.03317e-10
2.0331e-10
2.03305e-10
2.03301e-10
2.03299e-10
2.03299e-10
2.13416e-10
2.13038e-10
2.12658e-10
2.12278e-10
2.11899e-10
2.1152e-10
2.11141e-10
2.10763e-10
2.10384e-10
2.10005e-10
2.09625e-10
2.09244e-10
2.08866e-10
2.08495e-10
2.08126e-10
2.07759e-10
2.074e-10
2.07043e-10
2.06684e-10
2.06333e-10
2.05999e-10
2.05659e-10
2.05304e-10
2.04964e-10
2.0464e-10
2.04306e-10
2.03976e-10
2.03678e-10
2.03374e-10
2.03067e-10
2.02793e-10
2.02517e-10
2.02237e-10
2.01987e-10
2.01749e-10
2.01498e-10
2.01277e-10
2.01069e-10
2.00882e-10
2.0067e-10
2.0047e-10
2.00294e-10
2.00135e-10
1.99996e-10
1.99878e-10
1.99778e-10
1.99697e-10
1.99637e-10
1.996e-10
1.99594e-10
1.99602e-10
1.99627e-10
1.99671e-10
1.99734e-10
1.99816e-10
1.99916e-10
2.00035e-10
2.00171e-10
2.00322e-10
2.00484e-10
2.00654e-10
2.00831e-10
2.01008e-10
2.01182e-10
2.01359e-10
2.01542e-10
2.01728e-10
2.01908e-10
2.02067e-10
2.02217e-10
2.02379e-10
2.0253e-10
2.02666e-10
2.02797e-10
2.02922e-10
2.03038e-10
2.03144e-10
2.03244e-10
2.03336e-10
2.03418e-10
2.03486e-10
2.03549e-10
2.03608e-10
2.03656e-10
2.03693e-10
2.03722e-10
2.03746e-10
2.03765e-10
2.03778e-10
2.03783e-10
2.03783e-10
2.03781e-10
2.03776e-10
2.03769e-10
2.0376e-10
2.03749e-10
2.03737e-10
2.03724e-10
2.03709e-10
2.03695e-10
2.0368e-10
2.03665e-10
2.03651e-10
2.03637e-10
2.03624e-10
2.03612e-10
2.03601e-10
2.03591e-10
2.03583e-10
2.03575e-10
2.03569e-10
2.03565e-10
2.03562e-10
2.03561e-10
2.03561e-10
2.03563e-10
2.16604e-10
2.1623e-10
2.15853e-10
2.15472e-10
2.15088e-10
2.14704e-10
2.14318e-10
2.13932e-10
2.13546e-10
2.13159e-10
2.12774e-10
2.1239e-10
2.12006e-10
2.11623e-10
2.11241e-10
2.10859e-10
2.10479e-10
2.10098e-10
2.09717e-10
2.09342e-10
2.08972e-10
2.08602e-10
2.08238e-10
2.07881e-10
2.07525e-10
2.07167e-10
2.06819e-10
2.06487e-10
2.06145e-10
2.0579e-10
2.05462e-10
2.05139e-10
2.04801e-10
2.04483e-10
2.04191e-10
2.03886e-10
2.0359e-10
2.03325e-10
2.03051e-10
2.02787e-10
2.02548e-10
2.02308e-10
2.02064e-10
2.01849e-10
2.01639e-10
2.01456e-10
2.01249e-10
2.01056e-10
2.00882e-10
2.00727e-10
2.00594e-10
2.00478e-10
2.00379e-10
2.00298e-10
2.00235e-10
2.00194e-10
2.00179e-10
2.00183e-10
2.00199e-10
2.00231e-10
2.00281e-10
2.00346e-10
2.00427e-10
2.00524e-10
2.00634e-10
2.00757e-10
2.00889e-10
2.0103e-10
2.01175e-10
2.01322e-10
2.01471e-10
2.01626e-10
2.01782e-10
2.01937e-10
2.02101e-10
2.02253e-10
2.02388e-10
2.02528e-10
2.02671e-10
2.02807e-10
2.02935e-10
2.03057e-10
2.03174e-10
2.03285e-10
2.0339e-10
2.0349e-10
2.0358e-10
2.03657e-10
2.03728e-10
2.03797e-10
2.03858e-10
2.03903e-10
2.0394e-10
2.03973e-10
2.04e-10
2.04021e-10
2.04034e-10
2.04041e-10
2.04043e-10
2.04043e-10
2.0404e-10
2.04034e-10
2.04026e-10
2.04016e-10
2.04004e-10
2.03991e-10
2.03977e-10
2.03963e-10
2.0395e-10
2.03936e-10
2.03923e-10
2.03911e-10
2.039e-10
2.0389e-10
2.03882e-10
2.03875e-10
2.03869e-10
2.03865e-10
2.03863e-10
2.03862e-10
2.03863e-10
2.03866e-10
2.03871e-10
2.17146e-10
2.16764e-10
2.1638e-10
2.15993e-10
2.15606e-10
2.15218e-10
2.1483e-10
2.14442e-10
2.14054e-10
2.13667e-10
2.13281e-10
2.12896e-10
2.12512e-10
2.1213e-10
2.11748e-10
2.11369e-10
2.1099e-10
2.10612e-10
2.10236e-10
2.09865e-10
2.09498e-10
2.09132e-10
2.08773e-10
2.0842e-10
2.08066e-10
2.0771e-10
2.07369e-10
2.07038e-10
2.06695e-10
2.06346e-10
2.06029e-10
2.05708e-10
2.05371e-10
2.05068e-10
2.0478e-10
2.04475e-10
2.04195e-10
2.03933e-10
2.03662e-10
2.03414e-10
2.03186e-10
2.02942e-10
2.02705e-10
2.02489e-10
2.0228e-10
2.02086e-10
2.01895e-10
2.01709e-10
2.01539e-10
2.01389e-10
2.01259e-10
2.01145e-10
2.01045e-10
2.00961e-10
2.00894e-10
2.00846e-10
2.00819e-10
2.00814e-10
2.0082e-10
2.00839e-10
2.00872e-10
2.00919e-10
2.00979e-10
2.01052e-10
2.01136e-10
2.0123e-10
2.01334e-10
2.01444e-10
2.01559e-10
2.01678e-10
2.01802e-10
2.01929e-10
2.02057e-10
2.02188e-10
2.0233e-10
2.02471e-10
2.02593e-10
2.02713e-10
2.02847e-10
2.0298e-10
2.03106e-10
2.03226e-10
2.03343e-10
2.03457e-10
2.03567e-10
2.03674e-10
2.03773e-10
2.03858e-10
2.03938e-10
2.04015e-10
2.04085e-10
2.04139e-10
2.04187e-10
2.0423e-10
2.04267e-10
2.04297e-10
2.04319e-10
2.04334e-10
2.04344e-10
2.0435e-10
2.04352e-10
2.04351e-10
2.04348e-10
2.04341e-10
2.04333e-10
2.04323e-10
2.04312e-10
2.043e-10
2.04288e-10
2.04277e-10
2.04266e-10
2.04256e-10
2.04248e-10
2.04241e-10
2.04235e-10
2.04231e-10
2.04229e-10
2.04229e-10
2.0423e-10
2.04233e-10
2.04238e-10
2.04246e-10
2.04255e-10
2.17677e-10
2.17293e-10
2.16907e-10
2.16521e-10
2.16134e-10
2.15748e-10
2.15361e-10
2.14975e-10
2.14589e-10
2.14205e-10
2.13821e-10
2.13439e-10
2.13058e-10
2.12679e-10
2.12302e-10
2.11927e-10
2.11553e-10
2.1118e-10
2.10811e-10
2.10447e-10
2.10084e-10
2.09724e-10
2.09372e-10
2.09024e-10
2.08676e-10
2.08324e-10
2.07992e-10
2.07664e-10
2.07322e-10
2.06987e-10
2.06678e-10
2.06358e-10
2.06031e-10
2.05742e-10
2.05454e-10
2.05157e-10
2.04891e-10
2.04628e-10
2.04369e-10
2.04132e-10
2.0391e-10
2.03665e-10
2.03427e-10
2.03211e-10
2.03003e-10
2.02805e-10
2.02621e-10
2.02445e-10
2.02281e-10
2.02134e-10
2.02004e-10
2.01888e-10
2.01786e-10
2.01698e-10
2.01625e-10
2.01569e-10
2.0153e-10
2.01508e-10
2.01503e-10
2.01508e-10
2.01523e-10
2.01549e-10
2.01588e-10
2.01636e-10
2.01695e-10
2.01762e-10
2.01838e-10
2.01919e-10
2.02006e-10
2.02098e-10
2.02195e-10
2.02296e-10
2.024e-10
2.02509e-10
2.02625e-10
2.02752e-10
2.02864e-10
2.02968e-10
2.03089e-10
2.03218e-10
2.03339e-10
2.03456e-10
2.03571e-10
2.03684e-10
2.03799e-10
2.03912e-10
2.04019e-10
2.04112e-10
2.042e-10
2.04287e-10
2.04366e-10
2.04431e-10
2.0449e-10
2.04545e-10
2.04593e-10
2.04634e-10
2.04666e-10
2.04692e-10
2.04711e-10
2.04725e-10
2.04734e-10
2.0474e-10
2.04741e-10
2.0474e-10
2.04737e-10
2.04732e-10
2.04725e-10
2.04717e-10
2.04709e-10
2.04702e-10
2.04695e-10
2.04689e-10
2.04685e-10
2.04682e-10
2.04681e-10
2.04682e-10
2.04685e-10
2.0469e-10
2.04697e-10
2.04706e-10
2.04717e-10
2.04731e-10
2.04746e-10
2.18216e-10
2.17834e-10
2.17451e-10
2.17067e-10
2.16684e-10
2.16301e-10
2.15919e-10
2.15537e-10
2.15156e-10
2.14777e-10
2.14399e-10
2.14022e-10
2.13647e-10
2.13274e-10
2.12904e-10
2.12535e-10
2.12168e-10
2.11804e-10
2.11444e-10
2.11087e-10
2.10732e-10
2.10383e-10
2.10039e-10
2.09698e-10
2.09356e-10
2.09013e-10
2.08691e-10
2.08369e-10
2.0803e-10
2.07714e-10
2.07412e-10
2.07092e-10
2.06786e-10
2.06508e-10
2.06217e-10
2.05938e-10
2.05684e-10
2.05422e-10
2.05173e-10
2.0494e-10
2.04722e-10
2.04486e-10
2.04244e-10
2.04026e-10
2.03818e-10
2.0362e-10
2.0344e-10
2.03271e-10
2.03112e-10
2.02966e-10
2.02834e-10
2.02715e-10
2.02609e-10
2.02516e-10
2.02436e-10
2.02369e-10
2.02318e-10
2.02281e-10
2.02258e-10
2.02246e-10
2.02246e-10
2.02253e-10
2.02269e-10
2.02294e-10
2.02327e-10
2.02369e-10
2.02417e-10
2.02472e-10
2.02532e-10
2.02598e-10
2.0267e-10
2.02746e-10
2.02827e-10
2.02914e-10
2.03009e-10
2.03116e-10
2.03219e-10
2.03311e-10
2.03418e-10
2.0354e-10
2.03656e-10
2.03768e-10
2.0388e-10
2.03992e-10
2.04108e-10
2.04227e-10
2.04344e-10
2.04445e-10
2.0454e-10
2.04635e-10
2.04723e-10
2.04801e-10
2.04873e-10
2.04941e-10
2.05001e-10
2.05054e-10
2.05099e-10
2.05136e-10
2.05167e-10
2.05191e-10
2.0521e-10
2.05225e-10
2.05235e-10
2.05242e-10
2.05246e-10
2.05247e-10
2.05247e-10
2.05245e-10
2.05243e-10
2.05242e-10
2.05242e-10
2.05242e-10
2.05244e-10
2.05248e-10
2.05254e-10
2.05261e-10
2.05271e-10
2.05283e-10
2.05297e-10
2.05313e-10
2.05332e-10
2.05353e-10
2.05376e-10
2.05401e-10
2.05428e-10
2.18767e-10
2.18389e-10
2.18011e-10
2.17633e-10
2.17255e-10
2.16879e-10
2.16503e-10
2.16128e-10
2.15755e-10
2.15383e-10
2.15013e-10
2.14645e-10
2.14278e-10
2.13914e-10
2.13554e-10
2.13195e-10
2.12837e-10
2.12485e-10
2.12136e-10
2.11789e-10
2.11445e-10
2.11108e-10
2.10773e-10
2.10443e-10
2.1011e-10
2.0978e-10
2.09469e-10
2.09152e-10
2.08826e-10
2.08529e-10
2.0823e-10
2.07918e-10
2.07636e-10
2.07364e-10
2.07077e-10
2.06816e-10
2.06574e-10
2.06316e-10
2.06073e-10
2.05843e-10
2.05625e-10
2.05402e-10
2.05162e-10
2.04944e-10
2.04737e-10
2.0454e-10
2.04362e-10
2.04197e-10
2.0404e-10
2.03893e-10
2.03757e-10
2.03634e-10
2.03522e-10
2.03422e-10
2.03334e-10
2.03258e-10
2.03194e-10
2.03142e-10
2.03102e-10
2.03073e-10
2.03053e-10
2.03041e-10
2.03038e-10
2.03041e-10
2.03051e-10
2.03068e-10
2.03092e-10
2.03121e-10
2.03156e-10
2.03198e-10
2.03245e-10
2.03298e-10
2.03357e-10
2.03423e-10
2.03497e-10
2.03585e-10
2.03676e-10
2.03756e-10
2.03851e-10
2.03964e-10
2.04075e-10
2.04181e-10
2.0429e-10
2.04402e-10
2.04517e-10
2.0464e-10
2.04765e-10
2.04879e-10
2.04981e-10
2.05082e-10
2.05182e-10
2.05274e-10
2.05361e-10
2.05443e-10
2.05518e-10
2.05586e-10
2.05646e-10
2.05698e-10
2.05743e-10
2.05782e-10
2.05814e-10
2.05841e-10
2.05862e-10
2.0588e-10
2.05893e-10
2.05905e-10
2.05914e-10
2.05921e-10
2.05929e-10
2.05935e-10
2.05943e-10
2.05951e-10
2.05962e-10
2.05974e-10
2.05989e-10
2.06006e-10
2.06026e-10
2.06048e-10
2.06073e-10
2.061e-10
2.0613e-10
2.06163e-10
2.06197e-10
2.06234e-10
2.06273e-10
2.1933e-10
2.18959e-10
2.18588e-10
2.18218e-10
2.17849e-10
2.17481e-10
2.17114e-10
2.1675e-10
2.16386e-10
2.16025e-10
2.15665e-10
2.15308e-10
2.14954e-10
2.14602e-10
2.14253e-10
2.13906e-10
2.13562e-10
2.13223e-10
2.12887e-10
2.12552e-10
2.12224e-10
2.119e-10
2.11577e-10
2.1126e-10
2.1094e-10
2.10626e-10
2.10326e-10
2.10016e-10
2.09712e-10
2.09429e-10
2.09133e-10
2.08841e-10
2.08578e-10
2.08309e-10
2.08036e-10
2.0779e-10
2.07561e-10
2.0731e-10
2.07072e-10
2.06847e-10
2.06629e-10
2.06413e-10
2.06185e-10
2.05969e-10
2.05762e-10
2.05568e-10
2.05392e-10
2.05228e-10
2.05072e-10
2.04924e-10
2.04784e-10
2.04656e-10
2.04538e-10
2.04431e-10
2.04334e-10
2.04248e-10
2.04172e-10
2.04106e-10
2.04051e-10
2.04004e-10
2.03966e-10
2.03936e-10
2.03913e-10
2.03896e-10
2.03884e-10
2.03879e-10
2.03881e-10
2.03886e-10
2.03898e-10
2.03917e-10
2.03941e-10
2.03972e-10
2.04011e-10
2.04057e-10
2.04112e-10
2.04181e-10