/*--------------------------------*- C++ -*----------------------------------*\
| =========                 |                                                 |
| \\      /  F ield         | OpenFOAM: The Open Source CFD Toolbox           |
|  \\    /   O peration     | Version:  v1706                                 |
|   \\  /    A nd           | Web:      www.OpenFOAM.com                      |
|    \\/     M anipulation  |                                                 |
\*---------------------------------------------------------------------------*/
FoamFile
{
    version     2.0;
    format      ascii;
    class       volScalarField;
    location    "1.6e-05";
    object      Mach;
}
// * * * * * * * * * * * * * * * * * * * * * * * * * * * * * * * * * * * * * //

dimensions      [0 0 0 0 0 0 0];


internalField   nonuniform List<scalar> 
29871
(
3.99469
3.99468
3.99467
3.99466
3.99466
3.99465
3.99464
3.99463
3.99462
3.99462
3.99461
3.99461
3.9946
3.9946
3.9946
3.9946
3.9946
3.9946
3.9946
3.9946
3.9946
3.9946
3.99461
3.99461
3.99462
3.99462
3.99463
3.99464
3.99465
3.99465
3.99466
3.99467
3.99468
3.99469
3.9947
3.99471
3.99472
3.99473
3.99474
3.99475
3.99476
3.99477
3.99477
3.99478
3.99479
3.9948
3.99481
3.99481
3.99482
3.99483
3.99483
3.99484
3.99484
3.99485
3.99485
3.99486
3.99486
3.99486
3.99487
3.99487
3.99487
3.99487
3.99487
3.99487
3.99487
3.99487
3.99487
3.99487
3.99487
3.99487
3.99487
3.99487
3.99487
3.99487
3.99487
3.99487
3.99487
3.99487
3.99487
3.99486
3.99486
3.99486
3.99486
3.99486
3.99486
3.99486
3.99486
3.99485
3.99485
3.99485
3.99485
3.99485
3.99485
3.99484
3.99484
3.99484
3.99484
3.99484
3.99484
3.99483
3.99483
3.99483
3.99483
3.99483
3.99482
3.99334
3.99328
3.99322
3.99316
3.99311
3.99306
3.99301
3.99296
3.99292
3.99289
3.99285
3.99282
3.9928
3.99278
3.99276
3.99275
3.99274
3.99274
3.99275
3.99276
3.99277
3.99279
3.99281
3.99283
3.99287
3.9929
3.99294
3.99298
3.99302
3.99307
3.99312
3.99317
3.99322
3.99328
3.99333
3.99339
3.99344
3.9935
3.99355
3.99361
3.99366
3.99371
3.99377
3.99382
3.99386
3.99391
3.99395
3.994
3.99404
3.99407
3.99411
3.99414
3.99417
3.9942
3.99422
3.99424
3.99426
3.99428
3.9943
3.99431
3.99432
3.99433
3.99434
3.99434
3.99434
3.99435
3.99435
3.99434
3.99434
3.99434
3.99434
3.99433
3.99433
3.99432
3.99431
3.99431
3.9943
3.99429
3.99428
3.99428
3.99427
3.99426
3.99425
3.99424
3.99423
3.99422
3.99421
3.9942
3.99419
3.99418
3.99417
3.99416
3.99414
3.99413
3.99412
3.99411
3.99409
3.99408
3.99407
3.99405
3.99404
3.99403
3.99401
3.994
3.99398
3.99011
3.98991
3.98973
3.98955
3.98937
3.9892
3.98904
3.98889
3.98875
3.98862
3.98851
3.9884
3.98831
3.98823
3.98817
3.98812
3.98809
3.98807
3.98807
3.98808
3.98811
3.98814
3.9882
3.98826
3.98834
3.98844
3.98854
3.98866
3.98878
3.98891
3.98906
3.9892
3.98936
3.98952
3.98968
3.98985
3.99002
3.99019
3.99036
3.99053
3.99069
3.99086
3.99102
3.99118
3.99133
3.99148
3.99162
3.99176
3.99189
3.99201
3.99212
3.99223
3.99233
3.99242
3.9925
3.99258
3.99264
3.9927
3.99275
3.9928
3.99284
3.99287
3.99289
3.99291
3.99292
3.99293
3.99293
3.99293
3.99292
3.99292
3.9929
3.99289
3.99287
3.99285
3.99282
3.9928
3.99277
3.99275
3.99272
3.99269
3.99266
3.99263
3.99259
3.99256
3.99253
3.99249
3.99246
3.99242
3.99238
3.99235
3.99231
3.99227
3.99223
3.99219
3.99214
3.9921
3.99205
3.99201
3.99196
3.99191
3.99186
3.99181
3.99176
3.99171
3.99165
3.9916
3.98205
3.98155
3.98107
3.9806
3.98015
3.97971
3.9793
3.97891
3.97855
3.97822
3.97792
3.97765
3.97742
3.97722
3.97706
3.97693
3.97685
3.9768
3.9768
3.97683
3.97691
3.977
3.97714
3.97732
3.97753
3.97777
3.97805
3.97835
3.97867
3.97902
3.97939
3.97978
3.98018
3.9806
3.98102
3.98146
3.9819
3.98234
3.98278
3.98321
3.98365
3.98407
3.98449
3.9849
3.98529
3.98567
3.98604
3.98638
3.98672
3.98703
3.98732
3.98759
3.98785
3.98808
3.98829
3.98848
3.98865
3.9888
3.98893
3.98903
3.98912
3.98919
3.98925
3.98928
3.98931
3.98931
3.9893
3.98929
3.98927
3.98923
3.98919
3.98913
3.98907
3.98901
3.98893
3.98886
3.98877
3.98869
3.9886
3.98851
3.98841
3.98832
3.98822
3.98812
3.98801
3.98791
3.9878
3.98769
3.98758
3.98746
3.98734
3.98722
3.98709
3.98696
3.98683
3.98669
3.98655
3.98641
3.98626
3.9861
3.98595
3.98578
3.98562
3.98545
3.98527
3.9851
3.96424
3.96301
3.9618
3.96063
3.9595
3.95842
3.95739
3.95641
3.9555
3.95465
3.95387
3.95317
3.95256
3.95202
3.95157
3.95121
3.95095
3.95077
3.95069
3.95071
3.95082
3.95102
3.95127
3.95162
3.95206
3.95259
3.95318
3.95385
3.95458
3.95537
3.95621
3.9571
3.95803
3.959
3.96
3.96102
3.96205
3.9631
3.96416
3.96521
3.96626
3.96729
3.96831
3.96931
3.97028
3.97122
3.97213
3.973
3.97382
3.97461
3.97534
3.97603
3.97667
3.97725
3.97779
3.97827
3.9787
3.97908
3.97942
3.9797
3.97993
3.98012
3.98026
3.98036
3.98041
3.98043
3.98041
3.98036
3.98031
3.98021
3.98009
3.97994
3.97977
3.97959
3.97938
3.97917
3.97894
3.9787
3.97845
3.9782
3.97793
3.97766
3.97738
3.9771
3.97681
3.97651
3.97621
3.9759
3.97559
3.97527
3.97494
3.9746
3.97425
3.97389
3.97353
3.97315
3.97276
3.97236
3.97195
3.97153
3.97109
3.97064
3.97018
3.96971
3.96922
3.96872
3.96821
3.92268
3.91995
3.91729
3.91473
3.91226
3.9099
3.90768
3.90559
3.90364
3.90185
3.90023
3.89878
3.8975
3.89642
3.89552
3.89481
3.89431
3.89402
3.89393
3.89405
3.89436
3.89488
3.89548
3.89633
3.89737
3.89858
3.89995
3.90147
3.90313
3.90491
3.9068
3.9088
3.91089
3.91305
3.91527
3.91753
3.91983
3.92215
3.92448
3.92681
3.92911
3.9314
3.93364
3.93583
3.93796
3.94003
3.94201
3.94392
3.94573
3.94744
3.94905
3.95055
3.95194
3.95321
3.95436
3.95539
3.9563
3.95709
3.95776
3.95832
3.95876
3.95909
3.95932
3.95945
3.95948
3.95942
3.95929
3.95913
3.95888
3.95856
3.95818
3.95774
3.95726
3.95674
3.95618
3.95558
3.95496
3.95432
3.95365
3.95296
3.95226
3.95154
3.9508
3.95005
3.94928
3.9485
3.9477
3.94689
3.94605
3.94519
3.94432
3.94341
3.94249
3.94154
3.94055
3.93954
3.9385
3.93743
3.93632
3.93518
3.93401
3.9328
3.93155
3.93027
3.92895
3.9276
3.92621
3.85214
3.84617
3.8403
3.83455
3.82898
3.8236
3.81844
3.81354
3.80891
3.80458
3.80055
3.79685
3.79349
3.79049
3.78784
3.78557
3.78367
3.78216
3.78105
3.78033
3.78002
3.78012
3.78059
3.78145
3.78267
3.78407
3.78594
3.78819
3.79076
3.79363
3.79677
3.80018
3.80383
3.8077
3.81176
3.81599
3.82037
3.82486
3.82945
3.83411
3.83882
3.84354
3.84826
3.85295
3.85758
3.86214
3.8666
3.87093
3.87512
3.87914
3.88298
3.88663
3.89007
3.89328
3.89626
3.899
3.9015
3.90374
3.90572
3.90745
3.90893
3.91015
3.91112
3.91185
3.91233
3.91258
3.91262
3.91244
3.91208
3.91167
3.91104
3.91024
3.90929
3.90822
3.90704
3.90576
3.90439
3.90295
3.90143
3.89985
3.89822
3.89654
3.89482
3.89305
3.89125
3.88942
3.88754
3.88564
3.8837
3.88172
3.8797
3.87764
3.87554
3.87339
3.87119
3.86894
3.86662
3.86425
3.8618
3.85929
3.85671
3.85405
3.85131
3.8485
3.8456
3.84262
3.83955
3.83641
3.83317
3.82986
3.69856
3.68793
3.67759
3.66762
3.65805
3.64896
3.64036
3.63232
3.62484
3.61795
3.61168
3.60604
3.60103
3.59666
3.59294
3.58985
3.58739
3.58557
3.5844
3.58388
3.58405
3.58481
3.58621
3.58831
3.59062
3.59352
3.59713
3.6013
3.60599
3.61114
3.61674
3.62276
3.62916
3.63591
3.64297
3.6503
3.65787
3.66564
3.67358
3.68163
3.68976
3.69793
3.70611
3.71425
3.72232
3.73026
3.73805
3.74564
3.75299
3.76008
3.76685
3.77329
3.77936
3.78502
3.79025
3.79503
3.79933
3.80314
3.80645
3.80925
3.81155
3.81335
3.81467
3.81548
3.81583
3.81572
3.81516
3.81431
3.81332
3.81183
3.81001
3.8079
3.80553
3.80293
3.80013
3.79715
3.79401
3.79073
3.78732
3.78381
3.7802
3.77651
3.77274
3.76891
3.76501
3.76105
3.75703
3.75296
3.74881
3.7446
3.74032
3.73596
3.73151
3.72697
3.72233
3.71759
3.71273
3.70776
3.70267
3.69745
3.6921
3.6866
3.68097
3.6752
3.66927
3.6632
3.65698
3.65061
3.6441
3.63744
3.44852
3.43357
3.41928
3.40572
3.39297
3.38111
3.37019
3.36023
3.35124
3.34321
3.33614
3.33004
3.32489
3.32067
3.31735
3.3149
3.31327
3.31242
3.3124
3.31328
3.31488
3.31732
3.32046
3.32433
3.32818
3.33307
3.33883
3.34523
3.35219
3.35971
3.36775
3.37628
3.38528
3.3947
3.40451
3.41468
3.42516
3.43591
3.4469
3.45808
3.4694
3.48082
3.49228
3.50373
3.5151
3.52635
3.53739
3.54818
3.55864
3.56872
3.57835
3.58748
3.59606
3.60402
3.61132
3.61792
3.62378
3.62886
3.63314
3.63661
3.63927
3.64109
3.64206
3.64222
3.64156
3.64012
3.63827
3.63608
3.63303
3.62941
3.6253
3.62076
3.61585
3.61061
3.60507
3.59929
3.5933
3.58714
3.58082
3.57438
3.56783
3.56119
3.55448
3.54769
3.54083
3.53392
3.52694
3.5199
3.51279
3.50561
3.49835
3.49101
3.48358
3.47604
3.46839
3.46062
3.45273
3.44471
3.43657
3.4283
3.41989
3.41135
3.40267
3.39385
3.3849
3.3758
3.36656
3.35719
3.3477
3.33808
3.13341
3.11916
3.10597
3.09383
3.08276
3.07287
3.06424
3.05684
3.0506
3.04546
3.04141
3.03842
3.03647
3.03551
3.03546
3.03628
3.03785
3.03997
3.04272
3.04618
3.0505
3.05567
3.06128
3.06609
3.07224
3.07911
3.08652
3.09438
3.10267
3.11136
3.12046
3.12991
3.13968
3.14979
3.16018
3.17084
3.18173
3.19283
3.20412
3.21556
3.22711
3.23873
3.25039
3.26203
3.27361
3.28506
3.29632
3.30731
3.31799
3.32827
3.33809
3.34737
3.356
3.36392
3.37105
3.37729
3.38259
3.38688
3.39012
3.3923
3.39342
3.39346
3.39236
3.39035
3.38689
3.38384
3.37951
3.37431
3.36843
3.36198
3.35502
3.34766
3.33997
3.33199
3.32381
3.31546
3.307
3.29847
3.28989
3.28131
3.27272
3.26416
3.25562
3.2471
3.23861
3.23014
3.22169
3.21325
3.20482
3.19639
3.18796
3.17952
3.17106
3.16257
3.15404
3.14548
3.13687
3.12822
3.11954
3.11086
3.1022
3.09359
3.08501
3.07649
3.06804
3.05966
3.05137
3.04318
3.03511
3.02716
2.85644
2.85122
2.84749
2.84505
2.84373
2.84337
2.84386
2.84518
2.84709
2.84955
2.85258
2.85615
2.8602
2.86468
2.86954
2.87484
2.88064
2.88659
2.89259
2.89761
2.90418
2.91125
2.91799
2.92455
2.93144
2.93867
2.9461
2.95354
2.96099
2.9685
2.97611
2.98373
2.99139
2.99912
3.0069
3.01466
3.02245
3.03026
3.03809
3.04592
3.05375
3.06157
3.06935
3.07705
3.08463
3.09207
3.09931
3.10627
3.11287
3.11904
3.12471
3.12979
3.13419
3.13786
3.14075
3.14278
3.14391
3.14408
3.14325
3.14143
3.13879
3.13515
3.1301
3.12555
3.12004
3.1135
3.10638
3.09879
3.09086
3.08271
3.07443
3.06611
3.05782
3.04962
3.04156
3.03368
3.02602
3.01861
3.01146
3.0046
2.998
2.99167
2.98561
2.9798
2.97425
2.96892
2.96381
2.95889
2.95415
2.94956
2.94511
2.94078
2.93658
2.93248
2.92849
2.9246
2.92081
2.91712
2.91352
2.90999
2.90654
2.90317
2.89986
2.89664
2.89349
2.89042
2.88743
2.88453
2.88172
2.87899
2.72747
2.73025
2.73364
2.73758
2.74199
2.74688
2.75217
2.75776
2.76364
2.76975
2.77613
2.78267
2.78928
2.79606
2.80298
2.81009
2.81657
2.82422
2.8317
2.83857
2.84506
2.8524
2.86053
2.86799
2.87484
2.88221
2.88968
2.89695
2.90407
2.91115
2.91814
2.92504
2.93176
2.93828
2.94464
2.95085
2.95685
2.96265
2.96825
2.97362
2.97872
2.98354
2.98812
2.99243
2.99642
3.00005
3.00327
3.00603
3.0083
3.01005
3.01131
3.01206
3.01217
3.01157
3.01023
3.00821
3.00545
3.00196
2.99764
2.99226
2.98593
2.98096
2.97449
2.96748
2.96054
2.95351
2.94639
2.93936
2.93252
2.92588
2.91951
2.91348
2.90783
2.90251
2.89753
2.8929
2.88867
2.88482
2.88128
2.87803
2.87508
2.87245
2.87009
2.86796
2.86603
2.86424
2.86257
2.86101
2.85954
2.85815
2.85682
2.85554
2.85431
2.85312
2.85195
2.85081
2.84968
2.84856
2.84745
2.84636
2.84528
2.84422
2.84317
2.84215
2.84115
2.84017
2.83922
2.8383
2.83741
2.83655
2.83572
2.6787
2.68517
2.69196
2.69931
2.70568
2.71313
2.72078
2.72817
2.73598
2.74378
2.7516
2.75959
2.76758
2.77523
2.78301
2.79073
2.79829
2.80599
2.81419
2.82153
2.82881
2.83636
2.84438
2.85176
2.85907
2.8666
2.87378
2.88086
2.88807
2.89482
2.90134
2.90808
2.91454
2.92035
2.92611
2.93173
2.93696
2.94187
2.94667
2.9512
2.95529
2.95903
2.96249
2.9656
2.96825
2.97035
2.97189
2.97283
2.97317
2.97282
2.9718
2.96994
2.9683
2.96564
2.96212
2.95803
2.9534
2.94819
2.94266
2.93615
2.92902
2.92255
2.91595
2.90833
2.9011
2.89417
2.88745
2.881
2.87491
2.86932
2.86417
2.8594
2.85509
2.85126
2.84781
2.84467
2.84191
2.83955
2.83754
2.83582
2.83435
2.83312
2.83208
2.8312
2.83045
2.82982
2.82931
2.8289
2.82856
2.82826
2.82799
2.82774
2.82749
2.82724
2.82699
2.82673
2.82646
2.82617
2.82588
2.82558
2.82526
2.82495
2.82462
2.82429
2.82396
2.82363
2.8233
2.82297
2.82265
2.82234
2.82203
2.82173
2.82144
2.66144
2.66917
2.67695
2.68465
2.69226
2.70001
2.70779
2.71559
2.7235
2.73145
2.73948
2.74771
2.75587
2.76395
2.77211
2.78013
2.78797
2.79594
2.8042
2.81178
2.81932
2.82716
2.83507
2.84232
2.84972
2.85734
2.86423
2.87114
2.87843
2.88483
2.89085
2.89771
2.90393
2.9092
2.91483
2.92056
2.92573
2.92992
2.93466
2.93939
2.94353
2.94721
2.95043
2.95326
2.95556
2.95729
2.95836
2.95872
2.95842
2.95749
2.95593
2.9535
2.95067
2.94729
2.9432
2.93848
2.93322
2.92755
2.92163
2.91529
2.90855
2.90183
2.89516
2.88858
2.88182
2.87478
2.86867
2.8631
2.85738
2.85197
2.84747
2.84344
2.83927
2.83554
2.8326
2.83002
2.82748
2.82519
2.82346
2.82212
2.8209
2.81991
2.81918
2.81864
2.81824
2.81797
2.8178
2.81772
2.81771
2.81774
2.81781
2.8179
2.81799
2.81807
2.81814
2.81819
2.81822
2.81823
2.81821
2.81817
2.8181
2.81801
2.81791
2.8178
2.81767
2.81753
2.81738
2.81721
2.81703
2.81686
2.81669
2.81651
2.81632
2.63374
2.64171
2.64983
2.65807
2.66638
2.67469
2.68298
2.69123
2.69944
2.70763
2.71579
2.72388
2.73195
2.74009
2.74809
2.75612
2.76425
2.77221
2.78
2.78804
2.79621
2.80374
2.81125
2.81927
2.82704
2.83414
2.84159
2.8493
2.85599
2.86288
2.87032
2.87659
2.88266
2.88966
2.8957
2.90093
2.90672
2.91171
2.91642
2.91988
2.92444
2.92878
2.93245
2.93575
2.93885
2.94142
2.94346
2.94499
2.94595
2.94627
2.9461
2.94536
2.94403
2.94208
2.93952
2.93631
2.93245
2.92799
2.923
2.9176
2.91187
2.90599
2.89989
2.89343
2.88705
2.88081
2.8748
2.86834
2.86218
2.85719
2.85194
2.84681
2.84231
2.83851
2.83441
2.83087
2.82766
2.82514
2.82253
2.82028
2.81841
2.81698
2.81573
2.81475
2.81402
2.81336
2.81292
2.81276
2.81263
2.81256
2.81255
2.81262
2.81271
2.81282
2.81294
2.81307
2.81318
2.81328
2.81337
2.81343
2.81347
2.81348
2.81347
2.81344
2.81338
2.81331
2.81322
2.81311
2.81299
2.81286
2.81272
2.81258
2.81244
2.81229
2.81214
2.6257
2.63381
2.64191
2.65007
2.65826
2.66648
2.67473
2.68294
2.69114
2.69932
2.70746
2.71555
2.72372
2.7319
2.74003
2.74823
2.75642
2.7644
2.77223
2.78035
2.78838
2.79587
2.8034
2.81158
2.81904
2.82602
2.83367
2.84118
2.84761
2.85457
2.8618
2.8678
2.87399
2.88055
2.88617
2.89143
2.89739
2.9023
2.90737
2.9108
2.91521
2.91907
2.92244
2.92572
2.92855
2.93086
2.93268
2.93401
2.93482
2.93502
2.93475
2.93398
2.93269
2.93086
2.92851
2.92564
2.92226
2.9184
2.91411
2.90946
2.9045
2.89935
2.89403
2.88846
2.88262
2.87682
2.87142
2.86544
2.85964
2.8546
2.84999
2.84498
2.84049
2.83643
2.83251
2.8289
2.82566
2.82274
2.82004
2.81761
2.81544
2.81368
2.81224
2.81096
2.80991
2.80913
2.80858
2.80821
2.80797
2.80786
2.80788
2.80796
2.80812
2.80833
2.80854
2.80875
2.80896
2.80914
2.8093
2.80943
2.80953
2.8096
2.80964
2.80965
2.80963
2.80958
2.80951
2.80942
2.80931
2.80919
2.80905
2.80891
2.80876
2.80859
2.80844
2.80828
2.56049
2.56854
2.57657
2.58465
2.59278
2.60093
2.60907
2.61722
2.62543
2.6337
2.64201
2.65036
2.65871
2.66703
2.67531
2.68358
2.69181
2.7
2.70817
2.71639
2.72454
2.73268
2.7409
2.74903
2.75696
2.76473
2.77287
2.7807
2.78808
2.79561
2.80381
2.81095
2.81779
2.82569
2.83276
2.83901
2.84613
2.85296
2.85869
2.86504
2.87118
2.87627
2.88176
2.8873
2.8921
2.89709
2.9006
2.90497
2.90857
2.91198
2.91506
2.91766
2.91979
2.92147
2.92268
2.92338
2.92354
2.92323
2.9225
2.92134
2.91973
2.91768
2.91517
2.91224
2.9089
2.9052
2.90118
2.8969
2.89244
2.88787
2.88318
2.87828
2.87311
2.86813
2.86313
2.85751
2.85264
2.84823
2.84364
2.83916
2.835
2.83106
2.82737
2.82396
2.82081
2.81795
2.81528
2.81288
2.81088
2.80927
2.80782
2.80656
2.80564
2.80496
2.80447
2.80414
2.80398
2.80395
2.80402
2.80416
2.80433
2.80453
2.80473
2.80492
2.80509
2.80525
2.80538
2.80547
2.80554
2.80557
2.80557
2.80553
2.80547
2.80538
2.80527
2.80513
2.80498
2.80482
2.80464
2.80446
2.80427
2.80407
2.80388
2.55191
2.56003
2.56823
2.57648
2.58474
2.593
2.60126
2.60954
2.61786
2.62621
2.63458
2.64297
2.65133
2.65966
2.66794
2.67621
2.68443
2.69261
2.70079
2.70893
2.717
2.72509
2.73322
2.74122
2.74901
2.75668
2.76481
2.77236
2.77957
2.78722
2.79516
2.80205
2.80887
2.81675
2.82337
2.82957
2.83678
2.84302
2.84885
2.85505
2.86082
2.86546
2.87108
2.87628
2.8809
2.8855
2.88979
2.89371
2.89729
2.90059
2.90346
2.90589
2.90791
2.90952
2.91068
2.91137
2.91156
2.91128
2.91063
2.9096
2.90818
2.90639
2.90423
2.9017
2.89885
2.8957
2.89228
2.88864
2.88487
2.88097
2.87695
2.87277
2.86835
2.86396
2.85958
2.85449
2.84983
2.84566
2.8416
2.83721
2.83306
2.82915
2.82544
2.82194
2.81866
2.81565
2.8128
2.81022
2.80804
2.80622
2.80457
2.80312
2.80206
2.80124
2.80058
2.80011
2.79983
2.79968
2.79965
2.79971
2.79982
2.79996
2.80012
2.80027
2.80041
2.80053
2.80062
2.80069
2.80072
2.80071
2.80067
2.80059
2.80049
2.80035
2.80019
2.80001
2.79981
2.79959
2.79936
2.79913
2.79888
2.79862
2.79837
2.544
2.55223
2.56053
2.56885
2.57717
2.58548
2.59378
2.6021
2.61043
2.61878
2.62713
2.63547
2.64378
2.65204
2.66028
2.66848
2.67662
2.68474
2.69283
2.70085
2.70881
2.71678
2.72476
2.7326
2.7402
2.74777
2.75578
2.76305
2.77006
2.77788
2.78532
2.79199
2.79899
2.80649
2.81269
2.8191
2.82602
2.83172
2.83794
2.84378
2.84934
2.85347
2.85896
2.86404
2.86859
2.87309
2.87736
2.88125
2.88481
2.88796
2.89068
2.89301
2.89497
2.89656
2.89773
2.89846
2.89875
2.89861
2.89806
2.89719
2.89599
2.89446
2.89261
2.89048
2.88806
2.8854
2.88251
2.87946
2.87626
2.87293
2.86949
2.86597
2.86227
2.85843
2.85448
2.85023
2.84561
2.84167
2.83813
2.83401
2.82992
2.82613
2.8225
2.81901
2.81571
2.8126
2.80962
2.80692
2.80463
2.80264
2.80077
2.79915
2.79792
2.7969
2.79606
2.79541
2.79495
2.79465
2.79447
2.79438
2.79437
2.7944
2.79446
2.79452
2.79458
2.79463
2.79465
2.79464
2.79459
2.79452
2.79441
2.79426
2.79408
2.79387
2.79363
2.79337
2.79309
2.79277
2.79243
2.79207
2.79169
2.79127
2.79084
2.53642
2.5447
2.553
2.56131
2.56962
2.57792
2.58621
2.59449
2.60278
2.61106
2.61934
2.62759
2.6358
2.64396
2.6521
2.66017
2.66819
2.67619
2.68414
2.69199
2.69982
2.70761
2.71538
2.72304
2.73041
2.73789
2.74565
2.75266
2.75952
2.76736
2.77423
2.78067
2.78796
2.79481
2.80072
2.80737
2.81374
2.81913
2.82534
2.83083
2.83644
2.84055
2.84555
2.8505
2.85492
2.85925
2.86349
2.86734
2.87079
2.87385
2.87652
2.87881
2.88076
2.88235
2.88357
2.8844
2.88482
2.88484
2.88449
2.88382
2.88283
2.88158
2.88006
2.87828
2.87628
2.87405
2.87164
2.8691
2.86641
2.86358
2.86066
2.85769
2.85458
2.85127
2.84782
2.84422
2.83989
2.83606
2.83278
2.82906
2.82509
2.82146
2.81799
2.81458
2.81132
2.80818
2.80523
2.80237
2.79998
2.7978
2.79576
2.794
2.79255
2.7913
2.79023
2.78936
2.78868
2.78817
2.7878
2.78754
2.78736
2.78724
2.78715
2.78709
2.78702
2.78695
2.78686
2.78674
2.78658
2.78639
2.78615
2.78587
2.78555
2.78518
2.78476
2.7843
2.7838
2.78328
2.78274
2.78217
2.78159
2.78099
2.78039
2.77977
2.77913
2.52887
2.53713
2.54539
2.55365
2.56191
2.57014
2.57836
2.58657
2.59476
2.60294
2.61109
2.61921
2.62727
2.6353
2.64328
2.65118
2.65904
2.66688
2.67461
2.68228
2.68993
2.69746
2.70502
2.71246
2.71956
2.72693
2.73435
2.74107
2.74797
2.75539
2.76182
2.76828
2.7755
2.78162
2.7876
2.7941
2.79998
2.80507
2.81107
2.81636
2.82183
2.82629
2.8309
2.8357
2.83995
2.84416
2.84823
2.8519
2.8552
2.85818
2.86082
2.86311
2.86507
2.86669
2.86798
2.8689
2.86947
2.86968
2.86955
2.86912
2.8684
2.86743
2.8662
2.86478
2.86315
2.86134
2.85936
2.85726
2.85501
2.85264
2.85018
2.84766
2.84502
2.8422
2.83921
2.83614
2.83223
2.82852
2.82541
2.822
2.81821
2.81474
2.81143
2.80814
2.80491
2.80182
2.79886
2.79598
2.79338
2.79106
2.78889
2.78695
2.78526
2.78376
2.78245
2.78133
2.78041
2.77967
2.77906
2.77858
2.77819
2.77788
2.7776
2.77735
2.77711
2.77685
2.77656
2.77622
2.77583
2.77539
2.7749
2.77439
2.77383
2.77324
2.77262
2.77197
2.77129
2.77059
2.76985
2.76908
2.7683
2.76749
2.76666
2.7658
2.76493
2.5212
2.52939
2.53757
2.54575
2.5539
2.56203
2.57013
2.57822
2.58627
2.5943
2.60229
2.61022
2.61811
2.62595
2.63372
2.64141
2.64908
2.65668
2.66416
2.67161
2.67902
2.68625
2.69356
2.70074
2.70757
2.71478
2.72176
2.72817
2.73523
2.7419
2.74801
2.75471
2.76139
2.76699
2.77315
2.7792
2.78474
2.78942
2.79517
2.80031
2.80534
2.81007
2.81465
2.81925
2.82335
2.82742
2.83128
2.83476
2.83792
2.8408
2.84341
2.8457
2.84768
2.84935
2.8507
2.85173
2.85244
2.85283
2.85292
2.85273
2.85227
2.85158
2.85067
2.84957
2.84829
2.84684
2.84524
2.84352
2.84167
2.83969
2.83762
2.83548
2.83321
2.83078
2.8282
2.82557
2.82207
2.81868
2.81571
2.81251
2.8089
2.80555
2.80237
2.79918
2.79598
2.79296
2.78999
2.78705
2.78425
2.7818
2.77949
2.77735
2.77542
2.77368
2.77211
2.77073
2.76954
2.76853
2.76766
2.7669
2.76624
2.76565
2.76508
2.76452
2.76393
2.76332
2.7627
2.76208
2.76143
2.76076
2.76006
2.75931
2.75853
2.7577
2.75684
2.75593
2.75499
2.754
2.75298
2.75192
2.75083
2.7497
2.74855
2.74736
2.74614
2.5052
2.51329
2.52137
2.52943
2.53747
2.54548
2.55346
2.5614
2.56931
2.57718
2.58501
2.59279
2.60051
2.60816
2.61577
2.62329
2.63073
2.63815
2.64547
2.65265
2.65986
2.66695
2.67382
2.68089
2.68775
2.69428
2.70122
2.70776
2.71401
2.72086
2.72691
2.7328
2.73949
2.7456
2.75086
2.75694
2.76257
2.7679
2.77206
2.77743
2.78248
2.7871
2.79176
2.7964
2.80081
2.8049
2.80881
2.81245
2.81576
2.81879
2.82158
2.82414
2.82641
2.82841
2.8301
2.83151
2.83263
2.83347
2.83402
2.8343
2.83432
2.83411
2.83367
2.83304
2.83223
2.83125
2.83011
2.82884
2.82744
2.82591
2.82425
2.82251
2.82066
2.81868
2.81655
2.81431
2.81201
2.80901
2.80601
2.80315
2.80013
2.79668
2.79344
2.79036
2.78725
2.78408
2.78109
2.77808
2.77503
2.77208
2.76948
2.76702
2.76467
2.76249
2.76049
2.75865
2.75698
2.75546
2.75411
2.75287
2.75171
2.7506
2.74952
2.74851
2.74755
2.74663
2.74573
2.74482
2.74389
2.74294
2.74195
2.74091
2.73984
2.73871
2.73754
2.73632
2.73504
2.73372
2.73235
2.73093
2.72947
2.72796
2.7264
2.7248
2.72317
2.72149
2.49705
2.50499
2.51292
2.52081
2.52867
2.53649
2.54427
2.55201
2.55969
2.56733
2.57491
2.58243
2.58988
2.59726
2.60458
2.6118
2.61896
2.62607
2.63304
2.63991
2.64682
2.65351
2.66002
2.66681
2.67328
2.6795
2.68605
2.69219
2.69834
2.70462
2.71029
2.71594
2.72228
2.72801
2.73295
2.73866
2.74404
2.74902
2.75304
2.75762
2.76256
2.76702
2.77138
2.77581
2.78002
2.78395
2.78768
2.79115
2.7943
2.7972
2.7999
2.80241
2.80468
2.80669
2.80843
2.80989
2.81109
2.81203
2.81271
2.81315
2.81335
2.81334
2.81312
2.81273
2.81216
2.81144
2.81057
2.80957
2.80844
2.80719
2.80582
2.80435
2.80274
2.80099
2.7991
2.79711
2.79508
2.79258
2.78988
2.78716
2.78433
2.78104
2.7779
2.77491
2.77185
2.76872
2.76568
2.76263
2.75942
2.75636
2.75361
2.75096
2.74837
2.7459
2.74357
2.74137
2.73928
2.73729
2.73536
2.73354
2.73185
2.73027
2.7288
2.72739
2.72602
2.72468
2.72335
2.72201
2.72064
2.71925
2.71781
2.71633
2.7148
2.71322
2.71158
2.70988
2.70812
2.70631
2.70444
2.70251
2.70052
2.69847
2.69638
2.69422
2.69202
2.68977
2.68746
2.68511
2.48837
2.49613
2.50385
2.51153
2.51916
2.52674
2.53426
2.54173
2.54915
2.55649
2.56378
2.57099
2.57812
2.58518
2.59216
2.59904
2.60586
2.61261
2.61919
2.62571
2.63226
2.6385
2.64463
2.65109
2.6571
2.66292
2.66905
2.67497
2.68066
2.68643
2.69184
2.69704
2.70292
2.70838
2.713
2.71815
2.72327
2.72765
2.7322
2.73569
2.74035
2.74464
2.74866
2.7528
2.75679
2.76049
2.76397
2.76722
2.77017
2.77287
2.77539
2.77774
2.7799
2.78183
2.78352
2.78497
2.78618
2.78716
2.78791
2.78844
2.78877
2.78891
2.78886
2.78865
2.78828
2.78778
2.78714
2.78639
2.78552
2.78455
2.78347
2.7823
2.781
2.77955
2.77789
2.77616
2.77435
2.77222
2.76979
2.76724
2.76462
2.76151
2.75848
2.75556
2.7525
2.74938
2.74626
2.74307
2.7397
2.73654
2.73355
2.73058
2.72762
2.72471
2.72183
2.71902
2.71633
2.71376
2.71135
2.70905
2.70686
2.70477
2.70275
2.70079
2.69886
2.69696
2.69506
2.69315
2.69122
2.68926
2.68726
2.68522
2.68312
2.68096
2.67874
2.67646
2.67411
2.67169
2.6692
2.66665
2.66403
2.66134
2.65859
2.65578
2.6529
2.64996
2.64696
2.64391
2.47896
2.48647
2.49393
2.50134
2.50868
2.51597
2.52319
2.53034
2.53742
2.54443
2.55136
2.55821
2.56497
2.57166
2.57825
2.58474
2.59116
2.59748
2.60365
2.60979
2.61587
2.62166
2.62741
2.63342
2.63892
2.64428
2.65005
2.65563
2.66065
2.666
2.67126
2.67592
2.68113
2.68636
2.69069
2.69518
2.69995
2.70393
2.70835
2.71164
2.7155
2.7196
2.72329
2.72704
2.73075
2.73416
2.73737
2.74039
2.74313
2.74563
2.74795
2.75012
2.75212
2.75393
2.75553
2.75691
2.75809
2.75906
2.75983
2.76041
2.7608
2.76102
2.76107
2.76098
2.76074
2.76037
2.75987
2.75926
2.75853
2.7577
2.75676
2.75572
2.75455
2.75325
2.75181
2.75031
2.74872
2.74691
2.74483
2.74258
2.74023
2.73732
2.73438
2.7315
2.72841
2.7252
2.72193
2.71841
2.71483
2.71137
2.70794
2.70445
2.70095
2.69749
2.69412
2.69084
2.68765
2.68454
2.68154
2.67862
2.67578
2.67301
2.67031
2.66766
2.66505
2.66246
2.65988
2.65729
2.65469
2.65207
2.6494
2.64669
2.64391
2.64108
2.63818
2.63521
2.63216
2.62904
2.62584
2.62256
2.61921
2.61579
2.61229
2.60872
2.60508
2.60137
2.59759
2.59375
2.46854
2.47575
2.48289
2.48997
2.49698
2.50391
2.51076
2.51754
2.52423
2.53084
2.53736
2.54379
2.55013
2.55638
2.56253
2.56858
2.57455
2.5804
2.58611
2.59181
2.59736
2.60268
2.60804
2.61347
2.61846
2.62331
2.62875
2.63367
2.63817
2.64305
2.64807
2.65221
2.65668
2.66157
2.66561
2.66945
2.67375
2.6774
2.68129
2.68476
2.68768
2.69151
2.69486
2.69814
2.7015
2.70455
2.70744
2.71018
2.71268
2.71494
2.71702
2.71898
2.72079
2.72244
2.7239
2.72517
2.72626
2.72717
2.7279
2.72846
2.72886
2.7291
2.7292
2.72916
2.72898
2.72869
2.72828
2.72775
2.72711
2.72636
2.72551
2.72453
2.72343
2.72218
2.7208
2.71932
2.71778
2.71604
2.71403
2.71185
2.70967
2.70685
2.70394
2.70101
2.69783
2.69452
2.69096
2.68712
2.68336
2.67964
2.67584
2.67195
2.66802
2.66408
2.66017
2.6563
2.65246
2.64868
2.64494
2.64128
2.63767
2.63413
2.63065
2.62722
2.62383
2.62046
2.61711
2.61377
2.61041
2.60702
2.6036
2.60013
2.5966
2.59301
2.58934
2.58559
2.58177
2.57787
2.57388
2.56981
2.56565
2.56142
2.55711
2.55271
2.54825
2.54371
2.5391
2.53442
2.52966
2.46368
2.47045
2.47713
2.48373
2.49025
2.49667
2.50301
2.50926
2.51541
2.52146
2.52742
2.53328
2.53903
2.54468
2.55023
2.55569
2.56102
2.56623
2.57141
2.57641
2.58121
2.58612
2.59089
2.59538
2.59974
2.60465
2.60888
2.61289
2.61729
2.62178
2.62543
2.62925
2.63366
2.63733
2.64057
2.64431
2.64759
2.65094
2.6542
2.65657
2.65995
2.66292
2.6657
2.66864
2.67127
2.67376
2.67616
2.67834
2.6803
2.6821
2.6838
2.68537
2.68679
2.68805
2.68915
2.69009
2.69088
2.69151
2.69199
2.69233
2.69254
2.69262
2.69257
2.6924
2.69212
2.69173
2.69124
2.69063
2.68992
2.6891
2.68815
2.68708
2.68585
2.68449
2.68301
2.68144
2.67967
2.67763
2.67545
2.67326
2.67035
2.66742
2.66434
2.66099
2.65747
2.65355
2.64949
2.64548
2.64137
2.63713
2.63275
2.62827
2.62374
2.61917
2.61459
2.61
2.60544
2.6009
2.59641
2.59197
2.58759
2.58327
2.579
2.57477
2.57057
2.56639
2.56222
2.55804
2.55384
2.5496
2.54532
2.54097
2.53656
2.53207
2.5275
2.52285
2.51811
2.51329
2.50838
2.50338
2.4983
2.49314
2.4879
2.48259
2.47719
2.47172
2.46618
2.46057
2.44996
2.45628
2.46251
2.46864
2.47467
2.48061
2.48644
2.49218
2.49781
2.50333
2.50875
2.51407
2.51927
2.52437
2.52936
2.53425
2.539
2.54366
2.54825
2.55266
2.55693
2.56126
2.56539
2.56932
2.5732
2.57737
2.58099
2.58446
2.5883
2.59212
2.59525
2.59844
2.60228
2.60546
2.60815
2.61127
2.6141
2.61693
2.61968
2.62166
2.62455
2.62702
2.62928
2.63177
2.63392
2.63593
2.63793
2.63974
2.64133
2.64278
2.64415
2.64542
2.64656
2.64757
2.64843
2.64916
2.64976
2.65023
2.65057
2.6508
2.6509
2.65089
2.65078
2.65056
2.65023
2.64981
2.64928
2.64865
2.64792
2.64707
2.6461
2.645
2.64376
2.64236
2.64083
2.6392
2.63733
2.6352
2.63298
2.63068
2.62759
2.62454
2.62121
2.61761
2.61373
2.60943
2.60508
2.60066
2.59606
2.59126
2.58629
2.58118
2.57595
2.57065
2.56529
2.55991
2.55452
2.54914
2.54379
2.53849
2.53324
2.52805
2.52291
2.51782
2.51277
2.50773
2.50271
2.49768
2.49264
2.48755
2.48242
2.47723
2.47198
2.46665
2.46124
2.45574
2.45016
2.44449
2.43874
2.4329
2.42698
2.42098
2.4149
2.40874
2.4025
2.3962
2.38982
2.38338
2.44009
2.44579
2.45138
2.45687
2.46225
2.46752
2.47268
2.47773
2.48266
2.48748
2.49219
2.49679
2.50127
2.50564
2.5099
2.51404
2.51808
2.52201
2.5258
2.52948
2.53314
2.53663
2.53995
2.54327
2.54664
2.54967
2.55256
2.55574
2.5588
2.56138
2.56394
2.5671
2.56969
2.57183
2.57431
2.57663
2.57897
2.5809
2.58263
2.58499
2.58683
2.58856
2.59055
2.59221
2.59367
2.5952
2.59659
2.59776
2.59879
2.59978
2.60069
2.6015
2.60219
2.60276
2.60322
2.60357
2.60382
2.60396
2.60401
2.60395
2.6038
2.60356
2.60323
2.6028
2.60228
2.60167
2.60096
2.60014
2.59922
2.59817
2.59698
2.59564
2.59414
2.59253
2.59075
2.58873
2.58645
2.58416
2.58153
2.57826
2.57495
2.57129
2.56736
2.563
2.55834
2.55359
2.54866
2.54348
2.53805
2.53242
2.52661
2.52065
2.51459
2.50844
2.50224
2.49601
2.48979
2.48359
2.47744
2.47133
2.46528
2.45928
2.45334
2.44743
2.44155
2.43568
2.42981
2.42393
2.41801
2.41204
2.40602
2.39994
2.39378
2.38754
2.38123
2.37483
2.36834
2.36178
2.35513
2.3484
2.3416
2.33472
2.32777
2.32075
2.31366
2.3065
2.29928
2.4267
2.43169
2.43656
2.44132
2.44596
2.45048
2.45488
2.45916
2.46333
2.46737
2.4713
2.47511
2.47881
2.48239
2.48584
2.4892
2.49245
2.49556
2.49858
2.50153
2.50435
2.50701
2.50967
2.51226
2.51467
2.51693
2.51936
2.52164
2.52364
2.52555
2.52792
2.52984
2.5314
2.53322
2.53502
2.53675
2.53776
2.5394
2.54105
2.54215
2.54335
2.54482
2.54598
2.54684
2.54787
2.54878
2.54947
2.55004
2.55059
2.55109
2.55152
2.55185
2.55208
2.55222
2.55227
2.55224
2.55214
2.55195
2.55168
2.55134
2.55092
2.55042
2.54984
2.54917
2.54841
2.54757
2.54662
2.54555
2.54436
2.54303
2.54153
2.53989
2.53811
2.53613
2.53387
2.53141
2.52896
2.5258
2.52235
2.51867
2.51463
2.51029
2.50543
2.50036
2.49512
2.48961
2.4838
2.47771
2.47139
2.46487
2.45818
2.45135
2.44442
2.43743
2.4304
2.42338
2.41637
2.40939
2.40247
2.39561
2.3888
2.38204
2.37532
2.36863
2.36196
2.35529
2.3486
2.34189
2.33513
2.32832
2.32145
2.31451
2.3075
2.30042
2.29326
2.28602
2.2787
2.27131
2.26385
2.25631
2.24871
2.24105
2.23332
2.22553
2.21768
2.20977
2.20181
2.19379
2.40498
2.4093
2.4135
2.41758
2.42153
2.42535
2.42905
2.43262
2.43607
2.4394
2.4426
2.44569
2.44866
2.45151
2.45424
2.45687
2.45938
2.46177
2.46406
2.46627
2.46837
2.47033
2.47225
2.47409
2.47581
2.4774
2.47904
2.48056
2.48191
2.48316
2.48466
2.48587
2.48682
2.4879
2.48916
2.49006
2.4906
2.49174
2.49266
2.49301
2.49364
2.49461
2.49522
2.49548