/*--------------------------------*- C++ -*----------------------------------*\
| =========                 |                                                 |
| \\      /  F ield         | OpenFOAM: The Open Source CFD Toolbox           |
|  \\    /   O peration     | Version:  v1706                                 |
|   \\  /    A nd           | Web:      www.OpenFOAM.com                      |
|    \\/     M anipulation  |                                                 |
\*---------------------------------------------------------------------------*/
FoamFile
{
    version     2.0;
    format      ascii;
    class       volScalarField;
    location    "1.6e-05";
    object      mu;
}
// * * * * * * * * * * * * * * * * * * * * * * * * * * * * * * * * * * * * * //

dimensions      [1 -1 -1 0 0 0 0];


internalField   nonuniform List<scalar> 
29871
(
1.03518e-05
1.03518e-05
1.03518e-05
1.03519e-05
1.03519e-05
1.03519e-05
1.03519e-05
1.0352e-05
1.0352e-05
1.0352e-05
1.0352e-05
1.0352e-05
1.0352e-05
1.03521e-05
1.03521e-05
1.03521e-05
1.03521e-05
1.03521e-05
1.03521e-05
1.03521e-05
1.03521e-05
1.0352e-05
1.0352e-05
1.0352e-05
1.0352e-05
1.0352e-05
1.0352e-05
1.03519e-05
1.03519e-05
1.03519e-05
1.03519e-05
1.03519e-05
1.03518e-05
1.03518e-05
1.03518e-05
1.03518e-05
1.03517e-05
1.03517e-05
1.03517e-05
1.03516e-05
1.03516e-05
1.03516e-05
1.03516e-05
1.03515e-05
1.03515e-05
1.03515e-05
1.03515e-05
1.03515e-05
1.03514e-05
1.03514e-05
1.03514e-05
1.03514e-05
1.03514e-05
1.03514e-05
1.03514e-05
1.03513e-05
1.03513e-05
1.03513e-05
1.03513e-05
1.03513e-05
1.03513e-05
1.03513e-05
1.03513e-05
1.03513e-05
1.03513e-05
1.03513e-05
1.03513e-05
1.03513e-05
1.03513e-05
1.03513e-05
1.03513e-05
1.03513e-05
1.03513e-05
1.03513e-05
1.03513e-05
1.03513e-05
1.03513e-05
1.03513e-05
1.03513e-05
1.03513e-05
1.03513e-05
1.03513e-05
1.03513e-05
1.03513e-05
1.03513e-05
1.03513e-05
1.03513e-05
1.03513e-05
1.03513e-05
1.03513e-05
1.03514e-05
1.03514e-05
1.03514e-05
1.03514e-05
1.03514e-05
1.03514e-05
1.03514e-05
1.03514e-05
1.03514e-05
1.03514e-05
1.03514e-05
1.03514e-05
1.03514e-05
1.03514e-05
1.03514e-05
1.03555e-05
1.03557e-05
1.03559e-05
1.0356e-05
1.03562e-05
1.03563e-05
1.03565e-05
1.03566e-05
1.03567e-05
1.03568e-05
1.03569e-05
1.0357e-05
1.03571e-05
1.03572e-05
1.03572e-05
1.03572e-05
1.03573e-05
1.03573e-05
1.03573e-05
1.03572e-05
1.03572e-05
1.03572e-05
1.03571e-05
1.0357e-05
1.0357e-05
1.03569e-05
1.03568e-05
1.03567e-05
1.03565e-05
1.03564e-05
1.03563e-05
1.03561e-05
1.0356e-05
1.03558e-05
1.03557e-05
1.03555e-05
1.03554e-05
1.03552e-05
1.03551e-05
1.03549e-05
1.03548e-05
1.03546e-05
1.03545e-05
1.03543e-05
1.03542e-05
1.0354e-05
1.03539e-05
1.03538e-05
1.03537e-05
1.03536e-05
1.03535e-05
1.03534e-05
1.03533e-05
1.03532e-05
1.03531e-05
1.03531e-05
1.0353e-05
1.0353e-05
1.03529e-05
1.03529e-05
1.03529e-05
1.03528e-05
1.03528e-05
1.03528e-05
1.03528e-05
1.03528e-05
1.03528e-05
1.03528e-05
1.03528e-05
1.03528e-05
1.03528e-05
1.03528e-05
1.03528e-05
1.03528e-05
1.03528e-05
1.03529e-05
1.03529e-05
1.03529e-05
1.03529e-05
1.0353e-05
1.0353e-05
1.0353e-05
1.0353e-05
1.03531e-05
1.03531e-05
1.03531e-05
1.03531e-05
1.03532e-05
1.03532e-05
1.03532e-05
1.03532e-05
1.03533e-05
1.03533e-05
1.03533e-05
1.03534e-05
1.03534e-05
1.03534e-05
1.03535e-05
1.03535e-05
1.03536e-05
1.03536e-05
1.03536e-05
1.03537e-05
1.03537e-05
1.03538e-05
1.03644e-05
1.0365e-05
1.03655e-05
1.0366e-05
1.03665e-05
1.0367e-05
1.03674e-05
1.03679e-05
1.03683e-05
1.03686e-05
1.0369e-05
1.03693e-05
1.03696e-05
1.03698e-05
1.037e-05
1.03701e-05
1.03703e-05
1.03703e-05
1.03704e-05
1.03703e-05
1.03703e-05
1.03702e-05
1.03701e-05
1.03699e-05
1.03697e-05
1.03695e-05
1.03692e-05
1.03689e-05
1.03685e-05
1.03682e-05
1.03678e-05
1.03674e-05
1.0367e-05
1.03665e-05
1.03661e-05
1.03656e-05
1.03651e-05
1.03647e-05
1.03642e-05
1.03637e-05
1.03632e-05
1.03628e-05
1.03623e-05
1.03619e-05
1.03614e-05
1.0361e-05
1.03606e-05
1.03602e-05
1.03599e-05
1.03595e-05
1.03592e-05
1.03589e-05
1.03586e-05
1.03583e-05
1.03581e-05
1.03578e-05
1.03576e-05
1.03575e-05
1.03573e-05
1.03572e-05
1.03571e-05
1.0357e-05
1.03569e-05
1.03568e-05
1.03568e-05
1.03567e-05
1.03567e-05
1.03567e-05
1.03567e-05
1.03568e-05
1.03568e-05
1.03568e-05
1.03569e-05
1.03569e-05
1.0357e-05
1.0357e-05
1.03571e-05
1.03572e-05
1.03573e-05
1.03573e-05
1.03574e-05
1.03575e-05
1.03576e-05
1.03577e-05
1.03578e-05
1.03579e-05
1.0358e-05
1.03581e-05
1.03582e-05
1.03583e-05
1.03584e-05
1.03585e-05
1.03586e-05
1.03587e-05
1.03588e-05
1.0359e-05
1.03591e-05
1.03592e-05
1.03593e-05
1.03595e-05
1.03596e-05
1.03598e-05
1.03599e-05
1.036e-05
1.03602e-05
1.03604e-05
1.03866e-05
1.0388e-05
1.03894e-05
1.03908e-05
1.03921e-05
1.03933e-05
1.03945e-05
1.03956e-05
1.03967e-05
1.03977e-05
1.03986e-05
1.03994e-05
1.04001e-05
1.04007e-05
1.04012e-05
1.04016e-05
1.04019e-05
1.0402e-05
1.04021e-05
1.04021e-05
1.04019e-05
1.04017e-05
1.04013e-05
1.04009e-05
1.04003e-05
1.03997e-05
1.0399e-05
1.03982e-05
1.03973e-05
1.03964e-05
1.03954e-05
1.03943e-05
1.03932e-05
1.0392e-05
1.03909e-05
1.03897e-05
1.03884e-05
1.03872e-05
1.0386e-05
1.03847e-05
1.03835e-05
1.03823e-05
1.03811e-05
1.03799e-05
1.03788e-05
1.03777e-05
1.03767e-05
1.03757e-05
1.03747e-05
1.03738e-05
1.03729e-05
1.03721e-05
1.03714e-05
1.03707e-05
1.03701e-05
1.03695e-05
1.0369e-05
1.03686e-05
1.03682e-05
1.03678e-05
1.03676e-05
1.03673e-05
1.03672e-05
1.0367e-05
1.03669e-05
1.03669e-05
1.03669e-05
1.03669e-05
1.03669e-05
1.0367e-05
1.03671e-05
1.03673e-05
1.03674e-05
1.03676e-05
1.03678e-05
1.0368e-05
1.03682e-05
1.03685e-05
1.03687e-05
1.03689e-05
1.03692e-05
1.03695e-05
1.03697e-05
1.037e-05
1.03703e-05
1.03706e-05
1.03709e-05
1.03712e-05
1.03715e-05
1.03718e-05
1.03722e-05
1.03725e-05
1.03728e-05
1.03732e-05
1.03735e-05
1.03739e-05
1.03743e-05
1.03747e-05
1.03751e-05
1.03755e-05
1.0376e-05
1.03764e-05
1.03768e-05
1.03773e-05
1.03778e-05
1.03783e-05
1.04358e-05
1.04393e-05
1.04427e-05
1.0446e-05
1.04493e-05
1.04524e-05
1.04554e-05
1.04582e-05
1.04608e-05
1.04633e-05
1.04656e-05
1.04677e-05
1.04695e-05
1.04712e-05
1.04726e-05
1.04737e-05
1.04746e-05
1.04753e-05
1.04756e-05
1.04757e-05
1.04756e-05
1.04752e-05
1.04746e-05
1.04737e-05
1.04726e-05
1.04712e-05
1.04697e-05
1.04679e-05
1.04659e-05
1.04638e-05
1.04615e-05
1.04591e-05
1.04565e-05
1.04538e-05
1.04511e-05
1.04482e-05
1.04453e-05
1.04424e-05
1.04394e-05
1.04365e-05
1.04335e-05
1.04306e-05
1.04277e-05
1.04249e-05
1.04221e-05
1.04194e-05
1.04168e-05
1.04143e-05
1.04119e-05
1.04096e-05
1.04075e-05
1.04055e-05
1.04036e-05
1.04018e-05
1.04002e-05
1.03988e-05
1.03975e-05
1.03963e-05
1.03953e-05
1.03944e-05
1.03937e-05
1.03931e-05
1.03926e-05
1.03923e-05
1.0392e-05
1.03919e-05
1.03919e-05
1.03919e-05
1.03921e-05
1.03923e-05
1.03926e-05
1.0393e-05
1.03934e-05
1.03939e-05
1.03944e-05
1.0395e-05
1.03956e-05
1.03962e-05
1.03969e-05
1.03976e-05
1.03983e-05
1.0399e-05
1.03998e-05
1.04006e-05
1.04014e-05
1.04022e-05
1.0403e-05
1.04038e-05
1.04047e-05
1.04056e-05
1.04065e-05
1.04074e-05
1.04084e-05
1.04094e-05
1.04104e-05
1.04114e-05
1.04125e-05
1.04136e-05
1.04148e-05
1.04159e-05
1.04171e-05
1.04184e-05
1.04197e-05
1.0421e-05
1.04223e-05
1.04237e-05
1.04252e-05
1.05519e-05
1.05599e-05
1.05677e-05
1.05752e-05
1.05825e-05
1.05895e-05
1.05961e-05
1.06024e-05
1.06082e-05
1.06137e-05
1.06186e-05
1.06231e-05
1.06271e-05
1.06306e-05
1.06335e-05
1.06358e-05
1.06376e-05
1.06388e-05
1.06394e-05
1.06394e-05
1.06389e-05
1.06378e-05
1.06362e-05
1.0634e-05
1.06313e-05
1.06281e-05
1.06245e-05
1.06203e-05
1.06158e-05
1.06109e-05
1.06056e-05
1.06001e-05
1.05942e-05
1.05881e-05
1.05818e-05
1.05754e-05
1.05688e-05
1.05622e-05
1.05555e-05
1.05488e-05
1.05421e-05
1.05355e-05
1.0529e-05
1.05226e-05
1.05163e-05
1.05103e-05
1.05045e-05
1.04989e-05
1.04936e-05
1.04885e-05
1.04838e-05
1.04793e-05
1.04752e-05
1.04714e-05
1.04679e-05
1.04648e-05
1.0462e-05
1.04595e-05
1.04574e-05
1.04556e-05
1.04541e-05
1.0453e-05
1.04521e-05
1.04515e-05
1.04512e-05
1.04513e-05
1.04514e-05
1.04518e-05
1.04524e-05
1.04531e-05
1.04541e-05
1.04552e-05
1.04565e-05
1.04579e-05
1.04594e-05
1.0461e-05
1.04627e-05
1.04644e-05
1.04663e-05
1.04682e-05
1.04702e-05
1.04722e-05
1.04742e-05
1.04764e-05
1.04785e-05
1.04807e-05
1.0483e-05
1.04853e-05
1.04876e-05
1.049e-05
1.04924e-05
1.04949e-05
1.04975e-05
1.05002e-05
1.05029e-05
1.05057e-05
1.05086e-05
1.05115e-05
1.05146e-05
1.05178e-05
1.0521e-05
1.05244e-05
1.05278e-05
1.05314e-05
1.0535e-05
1.05388e-05
1.05427e-05
1.07525e-05
1.077e-05
1.07873e-05
1.08043e-05
1.08209e-05
1.08371e-05
1.08526e-05
1.08675e-05
1.08817e-05
1.0895e-05
1.09075e-05
1.0919e-05
1.09296e-05
1.09391e-05
1.09477e-05
1.09551e-05
1.09615e-05
1.09668e-05
1.09709e-05
1.09738e-05
1.09756e-05
1.0976e-05
1.09754e-05
1.09738e-05
1.09711e-05
1.09672e-05
1.09622e-05
1.09561e-05
1.09491e-05
1.09412e-05
1.09324e-05
1.09227e-05
1.09123e-05
1.09013e-05
1.08896e-05
1.08773e-05
1.08647e-05
1.08516e-05
1.08382e-05
1.08246e-05
1.08108e-05
1.0797e-05
1.07831e-05
1.07693e-05
1.07556e-05
1.07421e-05
1.07289e-05
1.0716e-05
1.07035e-05
1.06914e-05
1.06798e-05
1.06688e-05
1.06583e-05
1.06485e-05
1.06394e-05
1.06309e-05
1.06232e-05
1.06162e-05
1.06099e-05
1.06044e-05
1.05996e-05
1.05956e-05
1.05924e-05
1.05898e-05
1.05879e-05
1.05867e-05
1.05862e-05
1.05863e-05
1.05867e-05
1.05877e-05
1.05892e-05
1.05912e-05
1.05936e-05
1.05963e-05
1.05994e-05
1.06029e-05
1.06066e-05
1.06105e-05
1.06147e-05
1.06191e-05
1.06236e-05
1.06283e-05
1.06332e-05
1.06382e-05
1.06432e-05
1.06484e-05
1.06537e-05
1.06591e-05
1.06647e-05
1.06703e-05
1.0676e-05
1.06819e-05
1.06879e-05
1.0694e-05
1.07003e-05
1.07067e-05
1.07133e-05
1.07201e-05
1.07271e-05
1.07343e-05
1.07418e-05
1.07494e-05
1.07573e-05
1.07655e-05
1.07738e-05
1.07825e-05
1.07914e-05
1.08006e-05
1.081e-05
1.08197e-05
1.12067e-05
1.124e-05
1.12727e-05
1.13046e-05
1.13355e-05
1.13652e-05
1.13935e-05
1.14203e-05
1.14454e-05
1.14688e-05
1.14903e-05
1.151e-05
1.15277e-05
1.15434e-05
1.1557e-05
1.15687e-05
1.15783e-05
1.15859e-05
1.15914e-05
1.15948e-05
1.1596e-05
1.15953e-05
1.15928e-05
1.15883e-05
1.15819e-05
1.15735e-05
1.15633e-05
1.15513e-05
1.15377e-05
1.15224e-05
1.15057e-05
1.14876e-05
1.14681e-05
1.14474e-05
1.14257e-05
1.1403e-05
1.13795e-05
1.13552e-05
1.13304e-05
1.13052e-05
1.12796e-05
1.12539e-05
1.12281e-05
1.12025e-05
1.1177e-05
1.1152e-05
1.11274e-05
1.11035e-05
1.10803e-05
1.10579e-05
1.10365e-05
1.10161e-05
1.09968e-05
1.09787e-05
1.0962e-05
1.09465e-05
1.09324e-05
1.09198e-05
1.09086e-05
1.0899e-05
1.08908e-05
1.08842e-05
1.0879e-05
1.08754e-05
1.08731e-05
1.08725e-05
1.08729e-05
1.08742e-05
1.08768e-05
1.08804e-05
1.0885e-05
1.08906e-05
1.0897e-05
1.09041e-05
1.09119e-05
1.09204e-05
1.09293e-05
1.09388e-05
1.09487e-05
1.0959e-05
1.09696e-05
1.09805e-05
1.09917e-05
1.10031e-05
1.10148e-05
1.10267e-05
1.10388e-05
1.10512e-05
1.10637e-05
1.10765e-05
1.10895e-05
1.11028e-05
1.11163e-05
1.11301e-05
1.11441e-05
1.11585e-05
1.11732e-05
1.11883e-05
1.12037e-05
1.12196e-05
1.12358e-05
1.12524e-05
1.12695e-05
1.12871e-05
1.13051e-05
1.13236e-05
1.13426e-05
1.1362e-05
1.1382e-05
1.14025e-05
1.20066e-05
1.2058e-05
1.21074e-05
1.21548e-05
1.21998e-05
1.22424e-05
1.22822e-05
1.23191e-05
1.23529e-05
1.23837e-05
1.24112e-05
1.24355e-05
1.24566e-05
1.24745e-05
1.24893e-05
1.2501e-05
1.251e-05
1.25162e-05
1.25195e-05
1.25195e-05
1.25173e-05
1.25123e-05
1.25048e-05
1.24953e-05
1.24829e-05
1.24679e-05
1.24506e-05
1.2431e-05
1.24093e-05
1.23856e-05
1.236e-05
1.23325e-05
1.23033e-05
1.22725e-05
1.22404e-05
1.22069e-05
1.21722e-05
1.21366e-05
1.21e-05
1.20627e-05
1.20248e-05
1.19866e-05
1.1948e-05
1.19094e-05
1.18709e-05
1.18328e-05
1.17951e-05
1.17582e-05
1.17222e-05
1.16874e-05
1.1654e-05
1.16221e-05
1.15921e-05
1.1564e-05
1.15381e-05
1.15144e-05
1.14932e-05
1.14745e-05
1.14584e-05
1.1445e-05
1.14341e-05
1.14259e-05
1.14203e-05
1.14173e-05
1.14173e-05
1.14188e-05
1.14224e-05
1.14283e-05
1.14361e-05
1.14458e-05
1.14571e-05
1.14699e-05
1.14841e-05
1.14995e-05
1.1516e-05
1.15334e-05
1.15517e-05
1.15706e-05
1.15902e-05
1.16104e-05
1.1631e-05
1.1652e-05
1.16734e-05
1.16951e-05
1.17171e-05
1.17394e-05
1.17619e-05
1.17847e-05
1.18078e-05
1.18311e-05
1.18548e-05
1.18788e-05
1.19031e-05
1.19278e-05
1.1953e-05
1.19786e-05
1.20047e-05
1.20313e-05
1.20583e-05
1.20859e-05
1.2114e-05
1.21426e-05
1.21717e-05
1.22015e-05
1.22318e-05
1.22628e-05
1.22943e-05
1.23265e-05
1.23592e-05
1.23925e-05
1.31115e-05
1.31671e-05
1.32192e-05
1.32678e-05
1.33132e-05
1.33548e-05
1.33922e-05
1.34255e-05
1.34546e-05
1.34798e-05
1.35011e-05
1.35185e-05
1.35321e-05
1.35421e-05
1.35485e-05
1.35514e-05
1.35511e-05
1.35491e-05
1.35443e-05
1.35368e-05
1.35267e-05
1.35144e-05
1.35007e-05
1.34837e-05
1.34645e-05
1.34432e-05
1.34198e-05
1.33945e-05
1.33674e-05
1.33385e-05
1.33077e-05
1.32754e-05
1.32416e-05
1.32063e-05
1.31695e-05
1.31315e-05
1.30925e-05
1.30524e-05
1.30113e-05
1.29696e-05
1.29272e-05
1.28845e-05
1.28415e-05
1.27984e-05
1.27554e-05
1.27127e-05
1.26705e-05
1.26292e-05
1.25889e-05
1.25498e-05
1.25121e-05
1.24761e-05
1.24421e-05
1.24103e-05
1.2381e-05
1.23545e-05
1.23311e-05
1.2311e-05
1.22944e-05
1.22815e-05
1.22722e-05
1.22666e-05
1.22658e-05
1.22677e-05
1.22725e-05
1.2281e-05
1.22924e-05
1.23066e-05
1.23233e-05
1.23424e-05
1.23635e-05
1.23864e-05
1.24108e-05
1.24365e-05
1.24634e-05
1.24912e-05
1.25197e-05
1.25488e-05
1.25783e-05
1.26082e-05
1.26383e-05
1.26686e-05
1.26989e-05
1.27294e-05
1.27599e-05
1.27904e-05
1.28211e-05
1.28518e-05
1.28825e-05
1.29133e-05
1.29443e-05
1.29753e-05
1.30064e-05
1.30376e-05
1.30689e-05
1.31005e-05
1.31322e-05
1.31641e-05
1.31962e-05
1.32283e-05
1.32604e-05
1.32923e-05
1.33242e-05
1.33559e-05
1.33875e-05
1.34188e-05
1.34499e-05
1.34807e-05
1.35111e-05
1.35411e-05
1.41826e-05
1.42106e-05
1.42329e-05
1.42499e-05
1.42624e-05
1.42709e-05
1.42759e-05
1.42773e-05
1.42764e-05
1.42736e-05
1.42683e-05
1.42607e-05
1.42508e-05
1.42391e-05
1.42256e-05
1.42108e-05
1.41949e-05
1.41787e-05
1.41624e-05
1.41433e-05
1.41232e-05
1.41033e-05
1.40836e-05
1.4063e-05
1.40412e-05
1.40185e-05
1.39954e-05
1.39722e-05
1.39485e-05
1.39245e-05
1.39004e-05
1.38761e-05
1.38512e-05
1.3826e-05
1.38007e-05
1.3775e-05
1.37487e-05
1.37219e-05
1.36948e-05
1.36672e-05
1.36389e-05
1.36101e-05
1.35808e-05
1.35512e-05
1.35214e-05
1.34915e-05
1.34617e-05
1.34324e-05
1.34038e-05
1.33763e-05
1.33502e-05
1.3326e-05
1.33039e-05
1.32842e-05
1.32672e-05
1.32531e-05
1.32421e-05
1.32343e-05
1.32297e-05
1.32291e-05
1.32309e-05
1.32362e-05
1.32444e-05
1.32556e-05
1.32701e-05
1.3287e-05
1.33066e-05
1.33286e-05
1.33525e-05
1.33779e-05
1.34043e-05
1.34316e-05
1.34594e-05
1.34875e-05
1.35155e-05
1.35432e-05
1.35707e-05
1.35978e-05
1.36241e-05
1.36497e-05
1.36745e-05
1.36985e-05
1.37218e-05
1.37443e-05
1.37661e-05
1.37872e-05
1.38075e-05
1.38271e-05
1.3846e-05
1.38643e-05
1.38819e-05
1.38989e-05
1.39154e-05
1.39314e-05
1.39468e-05
1.39619e-05
1.39764e-05
1.39905e-05
1.40041e-05
1.40173e-05
1.40302e-05
1.40427e-05
1.40548e-05
1.40667e-05
1.40782e-05
1.40895e-05
1.41005e-05
1.41112e-05
1.41217e-05
1.4132e-05
1.47074e-05
1.47018e-05
1.46935e-05
1.46828e-05
1.46701e-05
1.46559e-05
1.46405e-05
1.46239e-05
1.46062e-05
1.45882e-05
1.45697e-05
1.45507e-05
1.45311e-05
1.45114e-05
1.44908e-05
1.44701e-05
1.44477e-05
1.44255e-05
1.44043e-05
1.43836e-05
1.43605e-05
1.43364e-05
1.43143e-05
1.42939e-05
1.4272e-05
1.42492e-05
1.42268e-05
1.42047e-05
1.41824e-05
1.41606e-05
1.41391e-05
1.41176e-05
1.40965e-05
1.40763e-05
1.40565e-05
1.4037e-05
1.40181e-05
1.39999e-05
1.39821e-05
1.39648e-05
1.39481e-05
1.39323e-05
1.39174e-05
1.39032e-05
1.38899e-05
1.38775e-05
1.38661e-05
1.38559e-05
1.38469e-05
1.38389e-05
1.38321e-05
1.38263e-05
1.38219e-05
1.38191e-05
1.38183e-05
1.38189e-05
1.38216e-05
1.38265e-05
1.3834e-05
1.38439e-05
1.38548e-05
1.3869e-05
1.38849e-05
1.39018e-05
1.39196e-05
1.39383e-05
1.39576e-05
1.3977e-05
1.39961e-05
1.40147e-05
1.40329e-05
1.40506e-05
1.40674e-05
1.40832e-05
1.40984e-05
1.4113e-05
1.41266e-05
1.41392e-05
1.4151e-05
1.41623e-05
1.41729e-05
1.41829e-05
1.41922e-05
1.42009e-05
1.4209e-05
1.42164e-05
1.42232e-05
1.42296e-05
1.42356e-05
1.42413e-05
1.42466e-05
1.42516e-05
1.42563e-05
1.42608e-05
1.4265e-05
1.4269e-05
1.42727e-05
1.42762e-05
1.42795e-05
1.42826e-05
1.42855e-05
1.42883e-05
1.4291e-05
1.42936e-05
1.42962e-05
1.42986e-05
1.43011e-05
1.43036e-05
1.4306e-05
1.43085e-05
1.4311e-05
1.49049e-05
1.48854e-05
1.48654e-05
1.48459e-05
1.48242e-05
1.48013e-05
1.47788e-05
1.47553e-05
1.47315e-05
1.47075e-05
1.46832e-05
1.4659e-05
1.46351e-05
1.4611e-05
1.45867e-05
1.45625e-05
1.4538e-05
1.45132e-05
1.44898e-05
1.44665e-05
1.4442e-05
1.44173e-05
1.43942e-05
1.43718e-05
1.43489e-05
1.43266e-05
1.43048e-05
1.4283e-05
1.4262e-05
1.42416e-05
1.4221e-05
1.42012e-05
1.41831e-05
1.41654e-05
1.41477e-05
1.41313e-05
1.4116e-05
1.41013e-05
1.40869e-05
1.40732e-05
1.40604e-05
1.40482e-05
1.40368e-05
1.40265e-05
1.40174e-05
1.40098e-05
1.40038e-05
1.39994e-05
1.39968e-05
1.39965e-05
1.39974e-05
1.39997e-05
1.40042e-05
1.40113e-05
1.402e-05
1.40302e-05
1.40417e-05
1.40544e-05
1.40686e-05
1.40841e-05
1.4099e-05
1.41147e-05
1.41321e-05
1.41493e-05
1.41668e-05
1.41846e-05
1.42015e-05
1.42176e-05
1.4233e-05
1.42475e-05
1.42608e-05
1.4273e-05
1.42844e-05
1.42948e-05
1.43042e-05
1.43124e-05
1.43199e-05
1.43266e-05
1.43326e-05
1.43378e-05
1.43423e-05
1.43461e-05
1.43493e-05
1.4352e-05
1.43543e-05
1.43564e-05
1.43581e-05
1.43596e-05
1.43607e-05
1.43616e-05
1.43624e-05
1.43629e-05
1.43634e-05
1.43637e-05
1.43639e-05
1.43641e-05
1.43641e-05
1.43642e-05
1.43642e-05
1.43642e-05
1.43642e-05
1.43642e-05
1.43642e-05
1.43642e-05
1.43643e-05
1.43644e-05
1.43647e-05
1.43649e-05
1.43653e-05
1.43658e-05
1.43663e-05
1.43669e-05
1.43676e-05
1.49862e-05
1.4961e-05
1.49359e-05
1.4911e-05
1.48859e-05
1.48603e-05
1.48348e-05
1.48092e-05
1.47835e-05
1.47577e-05
1.47319e-05
1.47064e-05
1.46814e-05
1.46564e-05
1.46315e-05
1.46068e-05
1.45819e-05
1.45569e-05
1.45333e-05
1.45097e-05
1.44851e-05
1.44603e-05
1.44371e-05
1.44142e-05
1.43909e-05
1.43687e-05
1.43469e-05
1.43248e-05
1.43039e-05
1.42836e-05
1.42627e-05
1.42432e-05
1.42255e-05
1.42076e-05
1.41901e-05
1.41748e-05
1.41608e-05
1.41462e-05
1.41319e-05
1.41196e-05
1.41085e-05
1.40984e-05
1.40894e-05
1.40819e-05
1.40758e-05
1.40714e-05
1.40685e-05
1.40675e-05
1.40679e-05
1.40695e-05
1.40727e-05
1.40771e-05
1.40828e-05
1.40905e-05
1.41002e-05
1.41115e-05
1.41242e-05
1.41382e-05
1.41533e-05
1.41689e-05
1.41847e-05
1.4201e-05
1.42178e-05
1.42343e-05
1.42506e-05
1.42659e-05
1.42803e-05
1.42943e-05
1.43076e-05
1.43188e-05
1.43294e-05
1.43401e-05
1.43498e-05
1.43578e-05
1.43651e-05
1.43723e-05
1.43786e-05
1.43834e-05
1.43875e-05
1.43915e-05
1.43949e-05
1.43975e-05
1.43997e-05
1.44014e-05
1.44029e-05
1.44039e-05
1.44046e-05
1.44049e-05
1.4405e-05
1.44049e-05
1.44047e-05
1.44043e-05
1.44038e-05
1.44032e-05
1.44024e-05
1.44017e-05
1.44009e-05
1.44e-05
1.43992e-05
1.43983e-05
1.43974e-05
1.43966e-05
1.43959e-05
1.43952e-05
1.43945e-05
1.4394e-05
1.43935e-05
1.43931e-05
1.43927e-05
1.43924e-05
1.43923e-05
1.43922e-05
1.43922e-05
1.50851e-05
1.50591e-05
1.5033e-05
1.50069e-05
1.4981e-05
1.49552e-05
1.49291e-05
1.4903e-05
1.48768e-05
1.48505e-05
1.48241e-05
1.47976e-05
1.4771e-05
1.47449e-05
1.47191e-05
1.46933e-05
1.46679e-05
1.46427e-05
1.46174e-05
1.45923e-05
1.45687e-05
1.45447e-05
1.45198e-05
1.44952e-05
1.44721e-05
1.44488e-05
1.44252e-05
1.44034e-05
1.43817e-05
1.43597e-05
1.43395e-05
1.43196e-05
1.42989e-05
1.42803e-05
1.42632e-05
1.42454e-05
1.42286e-05
1.42136e-05
1.41997e-05
1.41846e-05
1.41701e-05
1.41578e-05
1.41467e-05
1.41366e-05
1.41279e-05
1.41207e-05
1.41149e-05
1.41106e-05
1.4108e-05
1.41077e-05
1.41084e-05
1.41107e-05
1.41145e-05
1.41199e-05
1.41267e-05
1.4135e-05
1.41448e-05
1.41559e-05
1.4168e-05
1.41809e-05
1.41943e-05
1.42083e-05
1.42225e-05
1.42366e-05
1.4251e-05
1.42657e-05
1.42809e-05
1.42955e-05
1.43077e-05
1.43202e-05
1.43324e-05
1.43433e-05
1.43529e-05
1.4363e-05
1.4372e-05
1.438e-05
1.4387e-05
1.43941e-05
1.44004e-05
1.44056e-05
1.441e-05
1.44143e-05
1.44179e-05
1.44208e-05
1.44231e-05
1.44247e-05
1.44258e-05
1.44268e-05
1.44275e-05
1.44275e-05
1.44273e-05
1.4427e-05
1.44264e-05
1.44257e-05
1.44248e-05
1.44239e-05
1.44228e-05
1.44218e-05
1.44207e-05
1.44196e-05
1.44185e-05
1.44174e-05
1.44163e-05
1.44153e-05
1.44144e-05
1.44135e-05
1.44128e-05
1.44121e-05
1.44114e-05
1.44109e-05
1.44104e-05
1.441e-05
1.44098e-05
1.44097e-05
1.44096e-05
1.51267e-05
1.50999e-05
1.5073e-05
1.5046e-05
1.50192e-05
1.49923e-05
1.49655e-05
1.49386e-05
1.49118e-05
1.48849e-05
1.4858e-05
1.4831e-05
1.48042e-05
1.47779e-05
1.47517e-05
1.47258e-05
1.47003e-05
1.4675e-05
1.46496e-05
1.46246e-05
1.4601e-05
1.45769e-05
1.45517e-05
1.45277e-05
1.45047e-05
1.4481e-05
1.44576e-05
1.44365e-05
1.44149e-05
1.43932e-05
1.43738e-05
1.43542e-05
1.43344e-05
1.43166e-05
1.42998e-05
1.4282e-05
1.42663e-05
1.42516e-05
1.42383e-05
1.42233e-05
1.42091e-05
1.41967e-05
1.41854e-05
1.41755e-05
1.41671e-05
1.41601e-05
1.41544e-05
1.41501e-05
1.41474e-05
1.4147e-05
1.41476e-05
1.41493e-05
1.41525e-05
1.41569e-05
1.41627e-05
1.41698e-05
1.41783e-05
1.41879e-05
1.41986e-05
1.42101e-05
1.42222e-05
1.42347e-05
1.42473e-05
1.42596e-05
1.42721e-05
1.42851e-05
1.42983e-05
1.4311e-05
1.43223e-05
1.4333e-05
1.43444e-05
1.43551e-05
1.43647e-05
1.43741e-05
1.43829e-05
1.43911e-05
1.43986e-05
1.44057e-05
1.44123e-05
1.4418e-05
1.44229e-05
1.44274e-05
1.44315e-05
1.4435e-05
1.44375e-05
1.44396e-05
1.44413e-05
1.44426e-05
1.44436e-05
1.4444e-05
1.4444e-05
1.44438e-05
1.44434e-05
1.44429e-05
1.44423e-05
1.44415e-05
1.44407e-05
1.44397e-05
1.44387e-05
1.44377e-05
1.44366e-05
1.44356e-05
1.44345e-05
1.44336e-05
1.44327e-05
1.44318e-05
1.44311e-05
1.44304e-05
1.44297e-05
1.44292e-05
1.44288e-05
1.44285e-05
1.44282e-05
1.44282e-05
1.44282e-05
1.44283e-05
1.53527e-05
1.53262e-05
1.52995e-05
1.52724e-05
1.52452e-05
1.5218e-05
1.51907e-05
1.51633e-05
1.51359e-05
1.51085e-05
1.50812e-05
1.5054e-05
1.50268e-05
1.49996e-05
1.49725e-05
1.49455e-05
1.49185e-05
1.48915e-05
1.48645e-05
1.4838e-05
1.48117e-05
1.47855e-05
1.47597e-05
1.47344e-05
1.47092e-05
1.46838e-05
1.46591e-05
1.46356e-05
1.46113e-05
1.45862e-05
1.45629e-05
1.454e-05
1.45161e-05
1.44935e-05
1.44729e-05
1.44513e-05
1.44303e-05
1.44115e-05
1.4392e-05
1.43733e-05
1.43564e-05
1.43394e-05
1.43221e-05
1.43068e-05
1.4292e-05
1.4279e-05
1.42643e-05
1.42507e-05
1.42383e-05
1.42273e-05
1.42179e-05
1.42097e-05
1.42027e-05
1.41969e-05
1.41925e-05
1.41895e-05
1.41885e-05
1.41887e-05
1.41899e-05
1.41922e-05
1.41957e-05
1.42003e-05
1.42061e-05
1.42129e-05
1.42208e-05
1.42294e-05
1.42388e-05
1.42488e-05
1.42591e-05
1.42695e-05
1.428e-05
1.42911e-05
1.43021e-05
1.43131e-05
1.43247e-05
1.43355e-05
1.43451e-05
1.4355e-05
1.43651e-05
1.43747e-05
1.43838e-05
1.43925e-05
1.44008e-05
1.44086e-05
1.44161e-05
1.44232e-05
1.44296e-05
1.4435e-05
1.444e-05
1.44449e-05
1.44492e-05
1.44524e-05
1.44551e-05
1.44574e-05
1.44593e-05
1.44608e-05
1.44617e-05
1.44622e-05
1.44624e-05
1.44623e-05
1.44621e-05
1.44617e-05
1.44611e-05
1.44604e-05
1.44596e-05
1.44587e-05
1.44577e-05
1.44567e-05
1.44557e-05
1.44548e-05
1.44539e-05
1.4453e-05
1.44522e-05
1.44515e-05
1.44509e-05
1.44504e-05
1.445e-05
1.44497e-05
1.44496e-05
1.44496e-05
1.44496e-05
1.44498e-05
1.44502e-05
1.53911e-05
1.5364e-05
1.53368e-05
1.53094e-05
1.52819e-05
1.52544e-05
1.52269e-05
1.51994e-05
1.51719e-05
1.51445e-05
1.51172e-05
1.50899e-05
1.50627e-05
1.50355e-05
1.50085e-05
1.49816e-05
1.49548e-05
1.49279e-05
1.49013e-05
1.4875e-05
1.4849e-05
1.4823e-05
1.47976e-05
1.47726e-05
1.47475e-05
1.47222e-05
1.46981e-05
1.46747e-05
1.46504e-05
1.46256e-05
1.46031e-05
1.45804e-05
1.45565e-05
1.4535e-05
1.45146e-05
1.4493e-05
1.44731e-05
1.44545e-05
1.44353e-05
1.44178e-05
1.44016e-05
1.43843e-05
1.43675e-05
1.43522e-05
1.43374e-05
1.43236e-05
1.43101e-05
1.42969e-05
1.42849e-05
1.42743e-05
1.42651e-05
1.4257e-05
1.42499e-05
1.42439e-05
1.42392e-05
1.42358e-05
1.42338e-05
1.42335e-05
1.42339e-05
1.42353e-05
1.42376e-05
1.42409e-05
1.42452e-05
1.42503e-05
1.42563e-05
1.4263e-05
1.42703e-05
1.42782e-05
1.42863e-05
1.42948e-05
1.43035e-05
1.43126e-05
1.43216e-05
1.43309e-05
1.43409e-05
1.43509e-05
1.43596e-05
1.43681e-05
1.43776e-05
1.4387e-05
1.43959e-05
1.44045e-05
1.44127e-05
1.44208e-05
1.44286e-05
1.44362e-05
1.44432e-05
1.44492e-05
1.44549e-05
1.44604e-05
1.44653e-05
1.44692e-05
1.44725e-05
1.44756e-05
1.44783e-05
1.44804e-05
1.44819e-05
1.4483e-05
1.44837e-05
1.44841e-05
1.44843e-05
1.44842e-05
1.44839e-05
1.44835e-05
1.44829e-05
1.44822e-05
1.44814e-05
1.44806e-05
1.44797e-05
1.44789e-05
1.44782e-05
1.44775e-05
1.44769e-05
1.44764e-05
1.4476e-05
1.44757e-05
1.44755e-05
1.44755e-05
1.44756e-05
1.44758e-05
1.44762e-05
1.44767e-05
1.44774e-05
1.54287e-05
1.54015e-05
1.53742e-05
1.53468e-05
1.53194e-05
1.5292e-05
1.52646e-05
1.52372e-05
1.52099e-05
1.51826e-05
1.51554e-05
1.51283e-05
1.51014e-05
1.50745e-05
1.50477e-05
1.50212e-05
1.49946e-05
1.49682e-05
1.49421e-05
1.49162e-05
1.48905e-05
1.4865e-05
1.48401e-05
1.48154e-05
1.47907e-05
1.47658e-05
1.47423e-05
1.4719e-05
1.46947e-05
1.4671e-05
1.46491e-05
1.46264e-05
1.46033e-05
1.45828e-05
1.45623e-05
1.45413e-05
1.45225e-05
1.45038e-05
1.44854e-05
1.44686e-05
1.4453e-05
1.44356e-05
1.44187e-05
1.44034e-05
1.43887e-05
1.43746e-05
1.43616e-05
1.43491e-05
1.43374e-05
1.4327e-05
1.43178e-05
1.43096e-05
1.43024e-05
1.42962e-05
1.4291e-05
1.4287e-05
1.42842e-05
1.42827e-05
1.42823e-05
1.42827e-05
1.42837e-05
1.42856e-05
1.42883e-05
1.42918e-05
1.42959e-05
1.43007e-05
1.4306e-05
1.43118e-05
1.4318e-05
1.43245e-05
1.43314e-05
1.43386e-05
1.43459e-05
1.43536e-05
1.43619e-05
1.43709e-05
1.43788e-05
1.43862e-05
1.43947e-05
1.44039e-05
1.44125e-05
1.44208e-05
1.44289e-05
1.44369e-05
1.4445e-05
1.44531e-05
1.44606e-05
1.44672e-05
1.44735e-05
1.44797e-05
1.44853e-05
1.44899e-05
1.4494e-05
1.44979e-05
1.45014e-05
1.45042e-05
1.45065e-05
1.45083e-05
1.45097e-05
1.45107e-05
1.45113e-05
1.45117e-05
1.45118e-05
1.45118e-05
1.45115e-05
1.45112e-05
1.45107e-05
1.45101e-05
1.45096e-05
1.4509e-05
1.45086e-05
1.45081e-05
1.45078e-05
1.45076e-05
1.45076e-05
1.45076e-05
1.45078e-05
1.45082e-05
1.45087e-05
1.45094e-05
1.45102e-05
1.45111e-05
1.45122e-05
1.54669e-05
1.54398e-05
1.54127e-05
1.53855e-05
1.53583e-05
1.53312e-05
1.53041e-05
1.5277e-05
1.52501e-05
1.52231e-05
1.51963e-05
1.51696e-05
1.51431e-05
1.51166e-05
1.50904e-05
1.50643e-05
1.50383e-05
1.50124e-05
1.49869e-05
1.49616e-05
1.49365e-05
1.49117e-05
1.48873e-05
1.48632e-05
1.48389e-05
1.48146e-05
1.47918e-05
1.47689e-05
1.47449e-05
1.47226e-05
1.47011e-05
1.46785e-05
1.46568e-05
1.46371e-05
1.46165e-05
1.45967e-05
1.45787e-05
1.45601e-05
1.45424e-05
1.45259e-05
1.45105e-05
1.44938e-05
1.44766e-05
1.44611e-05
1.44464e-05
1.44324e-05
1.44196e-05
1.44077e-05
1.43964e-05
1.4386e-05
1.43767e-05
1.43682e-05
1.43607e-05
1.43541e-05
1.43484e-05
1.43437e-05
1.43401e-05
1.43375e-05
1.43358e-05
1.4335e-05
1.4335e-05
1.43355e-05
1.43366e-05
1.43384e-05
1.43408e-05
1.43437e-05
1.43471e-05
1.4351e-05
1.43553e-05
1.436e-05
1.4365e-05
1.43704e-05
1.43762e-05
1.43823e-05
1.43891e-05
1.43967e-05
1.4404e-05
1.44105e-05
1.4418e-05
1.44267e-05
1.44349e-05
1.44429e-05
1.44508e-05
1.44588e-05
1.44669e-05
1.44754e-05
1.44837e-05
1.44909e-05
1.44976e-05
1.45043e-05
1.45106e-05
1.45161e-05
1.45212e-05
1.4526e-05
1.45303e-05
1.4534e-05
1.45372e-05
1.45398e-05
1.4542e-05
1.45437e-05
1.45451e-05
1.45461e-05
1.45469e-05
1.45473e-05
1.45476e-05
1.45477e-05
1.45477e-05
1.45476e-05
1.45474e-05
1.45473e-05
1.45473e-05
1.45473e-05
1.45475e-05
1.45478e-05
1.45482e-05
1.45487e-05
1.45494e-05
1.45502e-05
1.45512e-05
1.45524e-05
1.45537e-05
1.45552e-05
1.45568e-05
1.45586e-05
1.45605e-05
1.5506e-05
1.54792e-05
1.54523e-05
1.54256e-05
1.53988e-05
1.53721e-05
1.53455e-05
1.53189e-05
1.52925e-05
1.52661e-05
1.52399e-05
1.52138e-05
1.51878e-05
1.5162e-05
1.51364e-05
1.5111e-05
1.50857e-05
1.50607e-05
1.5036e-05
1.50113e-05
1.4987e-05
1.49631e-05
1.49394e-05
1.4916e-05
1.48924e-05
1.4869e-05
1.48469e-05
1.48245e-05
1.48013e-05
1.47803e-05
1.47591e-05
1.4737e-05
1.4717e-05
1.46977e-05
1.46774e-05
1.46589e-05
1.46417e-05
1.46234e-05
1.46062e-05
1.45899e-05
1.45745e-05
1.45587e-05
1.45417e-05
1.45262e-05
1.45115e-05
1.44976e-05
1.4485e-05
1.44733e-05
1.44622e-05
1.44517e-05
1.44421e-05
1.44334e-05
1.44255e-05
1.44184e-05
1.44121e-05
1.44067e-05
1.44022e-05
1.43985e-05
1.43957e-05
1.43936e-05
1.43922e-05
1.43913e-05
1.43911e-05
1.43914e-05
1.4392e-05
1.43933e-05
1.43949e-05
1.4397e-05
1.43995e-05
1.44025e-05
1.44058e-05
1.44095e-05
1.44137e-05
1.44184e-05
1.44237e-05
1.44299e-05
1.44363e-05
1.4442e-05
1.44487e-05
1.44568e-05
1.44646e-05
1.44722e-05
1.44799e-05
1.44878e-05
1.4496e-05
1.45047e-05
1.45135e-05
1.45216e-05
1.45288e-05
1.4536e-05
1.45431e-05
1.45496e-05
1.45558e-05
1.45616e-05
1.45669e-05
1.45717e-05
1.4576e-05
1.45797e-05
1.45829e-05
1.45856e-05
1.45879e-05
1.45898e-05
1.45913e-05
1.45925e-05
1.45935e-05
1.45943e-05
1.45949e-05
1.45955e-05
1.4596e-05
1.45965e-05
1.4597e-05
1.45976e-05
1.45984e-05
1.45992e-05
1.46003e-05
1.46015e-05
1.46029e-05
1.46045e-05
1.46062e-05
1.46082e-05
1.46103e-05
1.46126e-05
1.46151e-05
1.46177e-05
1.46204e-05
1.55458e-05
1.55195e-05
1.54932e-05
1.5467e-05
1.54408e-05
1.54148e-05
1.53888e-05
1.53629e-05
1.53372e-05
1.53115e-05
1.52861e-05
1.52608e-05
1.52356e-05
1.52107e-05
1.5186e-05
1.51614e-05
1.5137e-05
1.5113e-05
1.50892e-05
1.50654e-05
1.50422e-05
1.50192e-05
1.49963e-05
1.49739e-05
1.49512e-05
1.49289e-05
1.49076e-05
1.48857e-05
1.48641e-05
1.4844e-05
1.48231e-05
1.48024e-05
1.47838e-05
1.47647e-05
1.47454e-05
1.47279e-05
1.47116e-05
1.46939e-05
1.4677e-05
1.46611e-05
1.46456e-05
1.46303e-05
1.46141e-05
1.45989e-05
1.45842e-05
1.45705e-05
1.45579e-05
1.45463e-05
1.45353e-05
1.45248e-05
1.45149e-05
1.45058e-05
1.44974e-05
1.44898e-05
1.4483e-05
1.44769e-05
1.44715e-05
1.44668e-05
1.44629e-05
1.44596e-05
1.44569e-05
1.44548e-05
1.44531e-05
1.44519e-05
1.44511e-05
1.44507e-05
1.44508e-05
1.44513e-05
1.44521e-05
1.44534e-05
1.44552e-05
1.44573e-05
1.44601e-05
1.44633e-05
1.44672e-05
1.44722e-05
1.44774e-05