/*--------------------------------*- C++ -*----------------------------------*\
| =========                 |                                                 |
| \\      /  F ield         | OpenFOAM: The Open Source CFD Toolbox           |
|  \\    /   O peration     | Version:  v1706                                 |
|   \\  /    A nd           | Web:      www.OpenFOAM.com                      |
|    \\/     M anipulation  |                                                 |
\*---------------------------------------------------------------------------*/
FoamFile
{
    version     2.0;
    format      ascii;
    class       volScalarField;
    location    "1.6e-05";
    object      rho;
}
// * * * * * * * * * * * * * * * * * * * * * * * * * * * * * * * * * * * * * //

dimensions      [1 -3 0 0 0 0 0];


internalField   nonuniform List<scalar> 
29871
(
0.000511342
0.000511343
0.000511344
0.000511345
0.000511346
0.000511347
0.000511348
0.000511349
0.00051135
0.000511351
0.000511352
0.000511353
0.000511353
0.000511354
0.000511354
0.000511355
0.000511355
0.000511355
0.000511355
0.000511355
0.000511355
0.000511355
0.000511354
0.000511354
0.000511353
0.000511352
0.000511352
0.000511351
0.00051135
0.000511349
0.000511348
0.000511347
0.000511346
0.000511345
0.000511344
0.000511342
0.000511341
0.00051134
0.000511339
0.000511338
0.000511337
0.000511336
0.000511334
0.000511333
0.000511332
0.000511331
0.000511331
0.00051133
0.000511329
0.000511328
0.000511327
0.000511327
0.000511326
0.000511325
0.000511325
0.000511324
0.000511324
0.000511323
0.000511323
0.000511323
0.000511323
0.000511322
0.000511322
0.000511322
0.000511322
0.000511322
0.000511322
0.000511322
0.000511322
0.000511322
0.000511322
0.000511322
0.000511322
0.000511322
0.000511322
0.000511322
0.000511323
0.000511323
0.000511323
0.000511323
0.000511323
0.000511323
0.000511323
0.000511324
0.000511324
0.000511324
0.000511324
0.000511324
0.000511325
0.000511325
0.000511325
0.000511325
0.000511325
0.000511326
0.000511326
0.000511326
0.000511326
0.000511327
0.000511327
0.000511327
0.000511327
0.000511328
0.000511328
0.000511328
0.000511329
0.000511504
0.000511512
0.00051152
0.000511527
0.000511535
0.000511542
0.000511549
0.000511556
0.000511562
0.000511568
0.000511573
0.000511578
0.000511582
0.000511585
0.000511588
0.000511591
0.000511592
0.000511593
0.000511594
0.000511594
0.000511593
0.000511592
0.00051159
0.000511587
0.000511584
0.00051158
0.000511576
0.000511572
0.000511567
0.000511562
0.000511556
0.00051155
0.000511543
0.000511537
0.00051153
0.000511523
0.000511516
0.000511509
0.000511502
0.000511495
0.000511488
0.000511481
0.000511474
0.000511467
0.00051146
0.000511454
0.000511448
0.000511442
0.000511437
0.000511432
0.000511427
0.000511422
0.000511418
0.000511414
0.000511411
0.000511408
0.000511405
0.000511402
0.0005114
0.000511398
0.000511396
0.000511395
0.000511394
0.000511393
0.000511392
0.000511392
0.000511392
0.000511392
0.000511392
0.000511392
0.000511392
0.000511393
0.000511394
0.000511394
0.000511395
0.000511396
0.000511397
0.000511398
0.000511399
0.000511401
0.000511402
0.000511403
0.000511404
0.000511406
0.000511407
0.000511408
0.00051141
0.000511411
0.000511412
0.000511414
0.000511415
0.000511417
0.000511418
0.00051142
0.000511421
0.000511423
0.000511425
0.000511427
0.000511428
0.00051143
0.000511432
0.000511434
0.000511436
0.000511438
0.00051144
0.000511893
0.000511918
0.000511943
0.000511968
0.000511993
0.000512016
0.000512039
0.000512061
0.000512082
0.000512102
0.00051212
0.000512137
0.000512153
0.000512167
0.000512179
0.00051219
0.000512199
0.000512205
0.00051221
0.000512213
0.000512213
0.000512212
0.000512209
0.000512204
0.000512197
0.000512188
0.000512177
0.000512165
0.000512151
0.000512136
0.000512119
0.000512102
0.000512083
0.000512063
0.000512042
0.000512021
0.000512
0.000511978
0.000511956
0.000511934
0.000511912
0.00051189
0.000511868
0.000511847
0.000511826
0.000511806
0.000511786
0.000511767
0.000511749
0.000511732
0.000511715
0.000511699
0.000511685
0.000511671
0.000511658
0.000511647
0.000511636
0.000511627
0.000511619
0.000511611
0.000511605
0.0005116
0.000511596
0.000511592
0.00051159
0.000511588
0.000511587
0.000511587
0.000511587
0.000511588
0.000511589
0.00051159
0.000511592
0.000511595
0.000511598
0.000511601
0.000511604
0.000511608
0.000511612
0.000511615
0.00051162
0.000511624
0.000511628
0.000511633
0.000511637
0.000511642
0.000511647
0.000511652
0.000511657
0.000511663
0.000511668
0.000511674
0.00051168
0.000511686
0.000511692
0.000511698
0.000511705
0.000511711
0.000511718
0.000511725
0.000511732
0.00051174
0.000511747
0.000511755
0.000511763
0.00051177
0.000512889
0.000512961
0.000513032
0.000513101
0.000513169
0.000513236
0.0005133
0.000513361
0.00051342
0.000513476
0.000513527
0.000513575
0.000513618
0.000513656
0.000513689
0.000513717
0.000513741
0.000513759
0.000513771
0.000513778
0.000513781
0.000513778
0.000513769
0.000513755
0.000513737
0.000513714
0.000513686
0.000513654
0.000513618
0.000513578
0.000513534
0.000513487
0.000513437
0.000513385
0.00051333
0.000513273
0.000513215
0.000513155
0.000513095
0.000513034
0.000512973
0.000512912
0.000512852
0.000512793
0.000512736
0.00051268
0.000512626
0.000512574
0.000512525
0.000512478
0.000512434
0.000512392
0.000512353
0.000512317
0.000512284
0.000512254
0.000512226
0.000512201
0.000512179
0.00051216
0.000512143
0.00051213
0.000512118
0.00051211
0.000512103
0.0005121
0.000512098
0.000512098
0.0005121
0.000512103
0.000512108
0.000512114
0.000512122
0.00051213
0.00051214
0.00051215
0.000512162
0.000512174
0.000512186
0.000512199
0.000512213
0.000512227
0.000512242
0.000512256
0.000512272
0.000512287
0.000512303
0.000512319
0.000512335
0.000512352
0.000512369
0.000512386
0.000512404
0.000512422
0.000512441
0.00051246
0.00051248
0.000512501
0.000512521
0.000512543
0.000512565
0.000512587
0.00051261
0.000512634
0.000512658
0.000512682
0.000515116
0.00051529
0.000515463
0.000515634
0.000515802
0.000515967
0.000516126
0.000516281
0.000516429
0.00051657
0.000516703
0.000516827
0.000516943
0.000517048
0.000517143
0.000517226
0.000517298
0.000517357
0.000517402
0.000517434
0.000517451
0.000517459
0.000517454
0.000517433
0.000517399
0.000517354
0.000517297
0.000517228
0.000517148
0.000517058
0.000516958
0.000516849
0.000516733
0.00051661
0.000516481
0.000516347
0.000516209
0.000516068
0.000515925
0.00051578
0.000515635
0.000515489
0.000515345
0.000515202
0.000515061
0.000514922
0.000514787
0.000514656
0.000514529
0.000514406
0.00051429
0.000514179
0.000514075
0.000513979
0.000513889
0.000513808
0.000513734
0.000513668
0.000513609
0.000513558
0.000513515
0.000513478
0.000513448
0.000513425
0.000513407
0.000513396
0.000513391
0.00051339
0.000513394
0.000513402
0.000513414
0.00051343
0.000513449
0.000513471
0.000513497
0.000513525
0.000513555
0.000513587
0.000513621
0.000513657
0.000513694
0.000513732
0.000513771
0.000513811
0.000513852
0.000513894
0.000513938
0.000513982
0.000514028
0.000514075
0.000514124
0.000514174
0.000514226
0.000514279
0.000514334
0.000514391
0.000514449
0.000514509
0.000514572
0.000514636
0.000514702
0.00051477
0.00051484
0.000514912
0.000514986
0.000515062
0.000515139
0.000520557
0.000520992
0.000521422
0.000521846
0.000522262
0.000522667
0.000523061
0.000523441
0.000523805
0.000524151
0.000524476
0.000524778
0.000525056
0.000525306
0.000525529
0.000525722
0.000525885
0.000526017
0.000526119
0.000526188
0.000526223
0.000526232
0.000526209
0.000526152
0.000526064
0.000525948
0.000525804
0.000525634
0.000525437
0.000525217
0.000524973
0.000524709
0.000524424
0.000524123
0.000523806
0.000523477
0.000523137
0.000522788
0.000522433
0.000522074
0.000521715
0.000521356
0.000521001
0.000520652
0.000520311
0.000519979
0.000519658
0.000519349
0.000519054
0.000518774
0.000518508
0.000518258
0.000518024
0.000517805
0.000517602
0.000517416
0.000517248
0.000517096
0.000516962
0.000516846
0.000516747
0.000516667
0.000516604
0.000516556
0.000516527
0.000516513
0.000516511
0.000516522
0.000516543
0.000516576
0.000516619
0.000516672
0.000516734
0.000516804
0.000516881
0.000516965
0.000517054
0.000517148
0.000517247
0.00051735
0.000517457
0.000517569
0.000517683
0.000517801
0.000517922
0.000518045
0.000518171
0.0005183
0.000518431
0.000518565
0.000518702
0.000518842
0.000518986
0.000519133
0.000519284
0.000519439
0.000519599
0.000519763
0.000519932
0.000520106
0.000520285
0.000520469
0.000520658
0.000520853
0.000521053
0.000521259
0.00052147
0.000530267
0.000531241
0.000532212
0.000533178
0.000534137
0.000535087
0.000536023
0.000536939
0.000537831
0.000538692
0.000539517
0.000540302
0.000541044
0.000541741
0.00054239
0.000542985
0.000543524
0.000544004
0.000544421
0.000544772
0.000545051
0.000545258
0.000545384
0.000545441
0.000545457
0.000545391
0.000545244
0.000545028
0.000544749
0.000544408
0.000544007
0.00054355
0.000543039
0.00054248
0.000541878
0.000541238
0.000540565
0.000539862
0.000539134
0.000538388
0.000537627
0.000536856
0.000536077
0.000535295
0.000534513
0.000533735
0.000532965
0.000532206
0.000531463
0.000530739
0.000530038
0.000529363
0.000528719
0.00052811
0.000527539
0.000527009
0.000526522
0.000526079
0.00052568
0.000525325
0.000525015
0.000524747
0.000524518
0.000524333
0.000524187
0.000524073
0.000524003
0.000523969
0.000523965
0.000523991
0.000524044
0.000524124
0.000524229
0.000524359
0.000524512
0.000524685
0.000524877
0.000525087
0.000525311
0.00052555
0.0005258
0.000526062
0.000526333
0.000526612
0.000526899
0.000527192
0.000527492
0.000527798
0.000528112
0.000528435
0.000528765
0.000529105
0.000529455
0.000529816
0.000530188
0.000530572
0.000530968
0.000531378
0.000531802
0.000532241
0.000532695
0.000533166
0.000533655
0.000534161
0.000534685
0.000535227
0.000535788
0.000536368
0.000536966
0.000537583
0.000554718
0.000556967
0.000559245
0.000561535
0.000563813
0.000566059
0.000568258
0.000570399
0.000572471
0.000574469
0.000576384
0.000578207
0.000579923
0.00058152
0.000582989
0.000584324
0.000585518
0.000586564
0.000587454
0.000588181
0.00058876
0.000589186
0.000589412
0.000589486
0.000589435
0.000589201
0.000588798
0.000588241
0.00058754
0.000586699
0.000585722
0.000584616
0.000583392
0.000582055
0.000580612
0.000579075
0.000577459
0.000575777
0.000574041
0.000572261
0.000570451
0.000568625
0.000566798
0.00056498
0.000563183
0.000561418
0.000559695
0.000558023
0.000556408
0.000554856
0.000553372
0.00055196
0.000550621
0.000549357
0.000548169
0.00054706
0.000546033
0.000545093
0.000544244
0.000543488
0.000542826
0.000542266
0.000541812
0.000541452
0.000541181
0.000541026
0.000540955
0.000540961
0.000541036
0.000541179
0.00054139
0.000541668
0.00054201
0.000542409
0.000542862
0.000543362
0.000543906
0.00054449
0.000545109
0.00054576
0.000546441
0.000547148
0.000547881
0.000548639
0.000549421
0.000550227
0.000551057
0.000551908
0.000552781
0.000553675
0.000554589
0.000555524
0.000556481
0.00055746
0.000558464
0.000559493
0.00056055
0.000561635
0.000562752
0.000563901
0.000565084
0.000566304
0.00056756
0.000568855
0.00057019
0.000571566
0.000572985
0.000574447
0.000575954
0.000577507
0.000610088
0.000614898
0.000619647
0.000624317
0.000628909
0.00063342
0.000637831
0.000642113
0.000646235
0.000650164
0.000653871
0.000657339
0.000660563
0.00066354
0.000666261
0.00066871
0.000670881
0.00067277
0.000674355
0.000675618
0.000676541
0.000677035
0.000677214
0.000677308
0.000677079
0.000676429
0.000675442
0.00067417
0.000672626
0.000670824
0.000668783
0.000666511
0.000664015
0.000661324
0.000658469
0.000655465
0.000652316
0.00064904
0.000645661
0.000642202
0.000638673
0.000635085
0.000631457
0.000627809
0.000624165
0.000620542
0.000616956
0.00061343
0.000609987
0.000606653
0.000603451
0.000600406
0.000597539
0.000594871
0.000592417
0.000590184
0.000588174
0.000586387
0.000584818
0.000583467
0.000582335
0.000581403
0.000580647
0.000580107
0.0005798
0.000579653
0.000579694
0.000579897
0.000580261
0.000580781
0.000581452
0.000582266
0.000583213
0.000584282
0.000585462
0.000586744
0.000588121
0.000589585
0.000591128
0.000592743
0.000594425
0.000596169
0.00059797
0.000599822
0.000601718
0.000603657
0.000605636
0.000607658
0.000609725
0.000611841
0.000614011
0.000616238
0.000618529
0.000620889
0.000623324
0.000625838
0.000628438
0.000631131
0.000633921
0.000636816
0.000639823
0.000642949
0.000646201
0.000649586
0.000653112
0.000656786
0.000660613
0.000664601
0.000668751
0.000673066
0.000722418
0.000732197
0.00074214
0.000752255
0.000762444
0.000772472
0.000782141
0.000791365
0.000800099
0.000808318
0.000816021
0.000823169
0.000829685
0.000835521
0.000840643
0.000845079
0.00084888
0.000852006
0.000854499
0.000856406
0.000857518
0.000858045
0.00085813
0.000857467
0.000856108
0.00085416
0.000851603
0.000848457
0.000844793
0.000840601
0.000835847
0.00083062
0.000825014
0.000819025
0.000812638
0.00080594
0.000799036
0.000791964
0.000784736
0.000777411
0.000770072
0.000762782
0.000755572
0.000748456
0.000741462
0.000734636
0.000728023
0.000721644
0.000715506
0.000709612
0.000703962
0.000698562
0.000693418
0.000688543
0.000683963
0.00067971
0.000675825
0.000672354
0.000669328
0.00066676
0.000664651
0.00066302
0.000661962
0.00066139
0.000661229
0.000661514
0.00066213
0.000663087
0.000664391
0.000666045
0.000668032
0.000670321
0.00067289
0.000675728
0.000678824
0.000682153
0.000685688
0.000689415
0.000693329
0.000697416
0.000701659
0.000706043
0.000710562
0.000715217
0.000720012
0.000724951
0.000730037
0.00073527
0.00074065
0.000746177
0.000751851
0.000757673
0.000763645
0.000769771
0.000776056
0.000782508
0.000789133
0.000795939
0.00080292
0.000810041
0.00081729
0.000824665
0.00083216
0.000839767
0.000847478
0.000855282
0.000863165
0.000871113
0.000879116
0.000887166
0.000946232
0.000960724
0.000973991
0.000985918
0.000996522
0.00100596
0.00101436
0.00102173
0.00102809
0.00103356
0.00103822
0.00104196
0.00104486
0.00104707
0.00104868
0.00104972
0.00105007
0.0010502
0.00105027
0.00104945
0.00104782
0.00104597
0.00104418
0.00104224
0.00103981
0.00103675
0.00103336
0.00102985
0.00102604
0.00102198
0.00101788
0.00101363
0.00100899
0.00100402
0.000998908
0.000993565
0.000987796
0.000981627
0.000975166
0.000968387
0.000961172
0.000953478
0.000945371
0.000936962
0.000928334
0.000919508
0.000910521
0.000901485
0.00089254
0.00088383
0.000875499
0.000867669
0.000860443
0.000853886
0.000848025
0.000842872
0.000838432
0.000834671
0.000831544
0.00082911
0.000827436
0.000826447
0.000825883
0.000826124
0.000827165
0.000828903
0.000831361
0.000834554
0.000838437
0.000842904
0.000847869
0.000853312
0.000859184
0.000865371
0.000871782
0.000878408
0.000885253
0.000892247
0.000899297
0.000906359
0.000913434
0.000920525
0.000927628
0.000934729
0.000941798
0.000948805
0.000955723
0.000962538
0.000969245
0.000975844
0.000982339
0.000988737
0.000995046
0.00100127
0.00100742
0.00101349
0.00101946
0.00102534
0.00103112
0.00103683
0.00104248
0.00104808
0.00105362
0.00105911
0.00106454
0.00106993
0.00107526
0.00108056
0.00108581
0.00109101
0.00113488
0.00114131
0.00114645
0.00115061
0.00115416
0.00115713
0.00115948
0.00116132
0.00116274
0.00116377
0.00116436
0.00116463
0.00116488
0.00116491
0.00116454
0.00116396
0.00116231
0.00116015
0.00115898
0.00115838
0.00115661
0.00115327
0.00115051
0.00114898
0.00114681
0.00114363
0.00114017
0.00113663
0.00113278
0.00112898
0.00112524
0.00112112
0.00111668
0.00111242
0.00110827
0.00110389
0.00109939
0.00109506
0.00109083
0.00108653
0.00108223
0.00107814
0.00107429
0.00107061
0.001067
0.00106342
0.0010599
0.00105649
0.00105316
0.00104983
0.00104644
0.00104289
0.00103925
0.00103557
0.00103193
0.00102849
0.00102543
0.00102287
0.00102104
0.00102017
0.00101986
0.00102066
0.00102218
0.00102415
0.00102663
0.00102978
0.00103349
0.00103752
0.00104166
0.00104588
0.00105031
0.00105496
0.00105963
0.00106423
0.00106893
0.0010738
0.00107868
0.00108339
0.001088
0.00109266
0.00109737
0.00110203
0.00110658
0.00111096
0.00111513
0.00111908
0.00112286
0.0011265
0.00113003
0.00113347
0.00113681
0.00114006
0.00114321
0.00114626
0.00114919
0.00115202
0.00115472
0.00115733
0.00115984
0.00116227
0.00116464
0.00116695
0.00116921
0.00117141
0.00117356
0.00117565
0.00117769
0.00117969
0.00118163
0.0011835
0.0011853
0.00123489
0.00123606
0.00123744
0.00123857
0.00123797
0.00123671
0.00123562
0.00123399
0.00123198
0.00122964
0.00122685
0.00122393
0.00122137
0.00121873
0.00121586
0.00121287
0.00120939
0.00120546
0.00120248
0.00119992
0.00119674
0.00119298
0.00118992
0.0011872
0.0011841
0.0011811
0.00117829
0.00117532
0.00117262
0.0011701
0.00116717
0.00116431
0.00116217
0.00116006
0.0011575
0.00115495
0.00115272
0.00115068
0.00114842
0.00114602
0.00114361
0.00114115
0.00113852
0.00113575
0.001133
0.00113042
0.00112812
0.00112616
0.00112458
0.00112352
0.00112296
0.0011227
0.00112299
0.00112395
0.00112539
0.0011271
0.00112893
0.00113068
0.00113275
0.00113517
0.00113679
0.00113839
0.00114087
0.0011434
0.00114598
0.00114892
0.00115188
0.00115485
0.001158
0.00116133
0.00116456
0.00116747
0.00117025
0.0011731
0.0011758
0.00117812
0.0011803
0.00118252
0.00118475
0.0011867
0.00118838
0.00118988
0.00119121
0.00119245
0.00119372
0.00119502
0.00119631
0.00119754
0.00119871
0.0011998
0.00120085
0.00120185
0.00120281
0.00120374
0.00120463
0.00120549
0.00120634
0.00120719
0.00120802
0.00120883
0.00120963
0.0012104
0.00121114
0.00121185
0.00121254
0.00121321
0.00121385
0.00121446
0.00121503
0.00121559
0.00121612
0.00121662
0.0012171
0.00127206
0.00126865
0.00126528
0.00126186
0.0012581
0.00125408
0.0012501
0.00124618
0.00124228
0.00123831
0.00123423
0.00123044
0.00122701
0.00122357
0.00122016
0.00121674
0.0012129
0.00120883
0.00120574
0.00120285
0.00119934
0.00119555
0.00119265
0.00118978
0.00118647
0.00118364
0.001181
0.00117804
0.00117565
0.00117344
0.00117053
0.00116818
0.00116683
0.00116502
0.00116266
0.00116144
0.00116097
0.00115994
0.00115837
0.00115735
0.00115682
0.00115661
0.00115658
0.00115662
0.00115676
0.00115707
0.00115762
0.00115836
0.00115923
0.00116021
0.00116138
0.00116242
0.00116339
0.00116471
0.00116649
0.00116874
0.0011714
0.00117446
0.00117791
0.00118144
0.0011848
0.00118833
0.00119196
0.00119544
0.00119868
0.00120118
0.00120336
0.00120577
0.00120816
0.00120949
0.00121059
0.00121222
0.0012138
0.0012146
0.00121534
0.00121646
0.00121764
0.00121823
0.00121862
0.00121917
0.00121981
0.0012204
0.00122097
0.0012216
0.0012222
0.00122267
0.00122306
0.00122342
0.0012238
0.00122418
0.00122455
0.00122488
0.00122519
0.00122548
0.00122576
0.00122601
0.00122624
0.00122644
0.00122661
0.00122675
0.00122687
0.00122697
0.00122706
0.00122712
0.00122717
0.0012272
0.0012272
0.00122717
0.00122713
0.00122708
0.00122703
0.00122699
0.00122689
0.00128486
0.00128064
0.00127642
0.00127228
0.00126826
0.00126415
0.00125983
0.00125544
0.00125108
0.00124682
0.00124264
0.00123843
0.00123422
0.00123037
0.00122674
0.00122307
0.00121951
0.00121597
0.00121197
0.00120792
0.00120484
0.00120186
0.00119818
0.0011945
0.00119173
0.00118874
0.0011853
0.0011827
0.00118015
0.00117715
0.00117503
0.00117296
0.00117005
0.0011681
0.00116699
0.00116515
0.00116327
0.00116264
0.0011627
0.00116201
0.00116072
0.00116007
0.00115986
0.00115985
0.00116009
0.00116063
0.00116139
0.00116236
0.00116359
0.00116513
0.00116701
0.00116925
0.00117183
0.00117466
0.00117767
0.00118085
0.00118416
0.00118759
0.0011911
0.00119455
0.00119787
0.0012012
0.00120458
0.00120757
0.00121036
0.0012133
0.00121691
0.00122022
0.00122194
0.00122378
0.00122585
0.00122712
0.00122781
0.00122898
0.00123003
0.0012305
0.00123065
0.00123113
0.00123169
0.00123197
0.00123209
0.00123234
0.00123259
0.00123276
0.00123284
0.00123276
0.00123259
0.00123263
0.0012327
0.00123268
0.0012326
0.00123249
0.00123238
0.00123229
0.00123222
0.00123217
0.00123211
0.00123205
0.00123199
0.00123193
0.00123185
0.00123177
0.00123168
0.00123159
0.00123148
0.00123137
0.00123125
0.00123111
0.00123097
0.00123082
0.00123066
0.00123049
0.00123032
0.00123017
0.00123001
0.00128506
0.00128055
0.0012761
0.00127174
0.00126741
0.00126297
0.00125843
0.00125388
0.00124939
0.00124502
0.00124071
0.0012363
0.00123201
0.00122806
0.00122417
0.00122029
0.00121665
0.00121298
0.00120886
0.00120492
0.00120191
0.00119882
0.00119493
0.00119157
0.00118897
0.0011857
0.00118228
0.00118012
0.0011776
0.00117467
0.00117296
0.00117101
0.0011684
0.00116699
0.00116603
0.00116415
0.0011627
0.00116233
0.00116261
0.00116202
0.00116111
0.00116078
0.00116076
0.00116097
0.00116159
0.00116258
0.00116382
0.00116529
0.00116701
0.001169
0.00117131
0.00117392
0.00117682
0.00117995
0.00118327
0.00118676
0.00119043
0.00119427
0.0011982
0.00120209
0.00120599
0.00120992
0.00121351
0.00121659
0.00121951
0.00122243
0.00122549
0.00122822
0.00122969
0.00123072
0.00123229
0.00123368
0.00123456
0.00123532
0.00123601
0.00123648
0.00123673
0.00123692
0.00123706
0.00123707
0.00123694
0.00123691
0.00123696
0.00123694
0.00123677
0.0012365
0.00123626
0.00123613
0.00123604
0.00123592
0.00123577
0.0012356
0.00123546
0.00123537
0.0012353
0.00123523
0.00123515
0.00123507
0.00123498
0.00123488
0.00123476
0.00123464
0.0012345
0.00123436
0.0012342
0.00123403
0.00123384
0.00123365
0.00123344
0.00123322
0.00123299
0.00123275
0.00123252
0.00123229
0.00123206
0.00123182
0.00131701
0.00131237
0.00130777
0.00130301
0.00129809
0.00129314
0.00128822
0.00128337
0.00127855
0.00127382
0.00126917
0.0012645
0.00125979
0.00125508
0.0012504
0.00124582
0.00124138
0.0012369
0.0012324
0.00122817
0.00122415
0.00122009
0.00121618
0.00121254
0.00120882
0.00120465
0.00120091
0.00119802
0.00119479
0.00119079
0.0011879
0.00118536
0.00118174
0.00117875
0.00117693
0.00117433
0.00117175
0.00117033
0.00116833
0.00116633
0.00116544
0.00116442
0.00116275
0.00116178
0.00116162
0.00116207
0.00116161
0.00116103
0.00116093
0.00116106
0.00116157
0.00116254
0.00116388
0.00116549
0.00116734
0.00116943
0.00117177
0.00117438
0.00117726
0.0011804
0.00118374
0.00118726
0.00119094
0.00119476
0.00119868
0.00120261
0.00120651
0.00121042
0.00121419
0.00121758
0.00122078
0.00122404
0.00122689
0.00122932
0.00123207
0.00123419
0.00123524
0.00123629
0.00123743
0.00123831
0.00123894
0.00123941
0.00123976
0.00123998
0.00124015
0.00124025
0.00124023
0.00124002
0.00123992
0.00124
0.00124003
0.00123986
0.00123951
0.00123923
0.00123905
0.00123892
0.00123877
0.00123859
0.00123841
0.00123824
0.00123807
0.00123791
0.00123775
0.00123759
0.00123743
0.00123726
0.00123709
0.0012369
0.00123671
0.00123651
0.0012363
0.00123607
0.00123584
0.00123559
0.00123532
0.00123505
0.00123477
0.00123448
0.00123418
0.00123387
0.00123357
0.00123328
0.00123298
0.00131567
0.00131069
0.00130567
0.00130056
0.00129541
0.00129027
0.00128518
0.00128011
0.00127511
0.00127023
0.00126538
0.00126053
0.00125571
0.00125092
0.00124621
0.00124163
0.00123713
0.00123258
0.00122815
0.00122401
0.00121992
0.00121581
0.00121196
0.00120837
0.00120463
0.00120047
0.00119702
0.00119422
0.00119078
0.00118691
0.00118445
0.00118182
0.00117807
0.00117573
0.001174
0.00117132
0.00116931
0.00116791
0.00116585
0.00116453
0.00116411
0.00116307
0.00116174
0.00116108
0.00116097
0.00116118
0.00116119
0.00116111
0.00116117
0.00116154
0.00116237
0.00116362
0.00116521
0.00116708
0.00116919
0.00117156
0.00117417
0.00117701
0.0011801
0.0011834
0.00118689
0.00119053
0.00119429
0.00119816
0.00120207
0.00120597
0.00120985
0.00121368
0.0012173
0.00122066
0.0012239
0.00122703
0.00122965
0.00123197
0.00123467
0.00123723
0.00123847
0.00123926
0.00124036
0.00124139
0.00124207
0.00124251
0.0012428
0.00124302
0.00124322
0.00124334
0.0012433
0.00124306
0.0012429
0.00124295
0.00124297
0.00124278
0.00124241
0.0012421
0.00124186
0.00124163
0.00124139
0.00124113
0.00124085
0.00124058
0.00124032
0.00124005
0.0012398
0.00123954
0.00123928
0.00123902
0.00123876
0.0012385
0.00123822
0.00123794
0.00123766
0.00123736
0.00123705
0.00123673
0.00123639
0.00123605
0.00123569
0.00123533
0.00123496
0.00123458
0.00123421
0.00123384
0.00123347
0.00131296
0.00130772
0.00130245
0.00129716
0.00129188
0.00128665
0.00128145
0.0012763
0.00127124
0.00126626
0.00126131
0.0012564
0.00125155
0.00124675
0.00124206
0.00123751
0.00123297
0.00122845
0.00122417
0.00122007
0.00121594
0.00121189
0.00120815
0.00120461
0.00120086
0.0011968
0.00119365
0.00119087
0.0011872
0.00118378
0.00118157
0.00117871
0.00117522
0.00117343
0.00117157
0.00116903
0.00116756
0.001166
0.0011641
0.00116324
0.00116327
0.00116251
0.00116132
0.00116078
0.00116064
0.00116071
0.001161
0.00116133
0.00116175
0.00116244
0.00116352
0.00116498
0.00116675
0.0011688
0.00117111
0.00117366
0.00117645
0.00117946
0.00118267
0.00118608
0.00118965
0.00119335
0.00119715
0.00120102
0.00120491
0.00120878
0.00121262
0.00121636
0.00121989
0.00122324
0.00122648
0.00122949
0.00123207
0.00123438
0.00123684
0.00123967
0.00124131
0.00124209
0.00124317
0.00124445
0.00124532
0.00124583
0.0012461
0.00124629
0.00124653
0.00124672
0.00124668
0.00124637
0.00124622
0.00124627
0.00124624
0.00124594
0.00124548
0.00124506
0.0012447
0.00124433
0.00124393
0.00124352
0.00124309
0.00124267
0.00124226
0.00124185
0.00124146
0.00124107
0.00124069
0.00124032
0.00123996
0.00123959
0.00123923
0.00123886
0.00123848
0.0012381
0.00123771
0.00123731
0.0012369
0.00123648
0.00123605
0.00123562
0.00123519
0.00123475
0.00123432
0.00123389
0.00123347
0.00130954
0.00130415
0.00129876
0.00129338
0.00128805
0.00128276
0.00127752
0.00127235
0.00126727
0.00126225
0.00125727
0.00125236
0.00124752
0.00124276
0.00123813
0.0012336
0.00122907
0.00122467
0.00122053
0.00121643
0.00121232
0.00120842
0.00120478
0.00120129
0.00119757
0.0011937
0.00119081
0.00118796
0.00118419
0.00118141
0.00117922
0.00117601
0.00117325
0.00117178
0.00116959
0.00116753
0.00116646
0.00116484
0.00116318
0.00116252
0.00116277
0.00116242
0.00116138
0.00116087
0.00116076
0.0011608
0.00116114
0.00116177
0.00116258
0.00116359
0.0011649
0.00116652
0.00116843
0.00117061
0.00117304
0.00117571
0.00117861
0.00118171
0.001185
0.00118846
0.00119206
0.00119578
0.00119958
0.00120344
0.0012073
0.00121115
0.00121495
0.00121862
0.00122213
0.00122549
0.00122872
0.00123169
0.0012343
0.00123662
0.001239
0.00124185
0.00124392
0.00124486
0.00124595
0.00124746
0.00124858
0.00124924
0.00124959
0.00124976
0.00124997
0.00125025
0.00125035
0.00125009
0.00124978
0.00124965
0.00124947
0.00124906
0.00124849
0.00124792
0.00124736
0.00124679
0.00124619
0.00124558
0.00124497
0.00124437
0.00124379
0.00124322
0.00124268
0.00124215
0.00124164
0.00124115
0.00124066
0.00124019
0.00123973
0.00123927
0.00123881
0.00123835
0.00123789
0.00123742
0.00123694
0.00123646
0.00123596
0.00123546
0.00123495
0.00123443
0.00123391
0.00123338
0.00123285
0.00123232
0.0012318
0.00130568
0.0013002
0.00129475
0.00128935
0.00128399
0.00127868
0.00127344
0.00126828
0.0012632
0.00125818
0.00125322
0.00124836
0.00124356
0.00123886
0.0012343
0.00122981
0.00122536
0.00122113
0.00121708
0.00121298
0.001209
0.00120528
0.0012017
0.00119829
0.00119465
0.00119105
0.00118832
0.0011853
0.0011818
0.00117956
0.00117712
0.00117381
0.00117193
0.00117043
0.00116805
0.00116653
0.00116576
0.00116426
0.00116278
0.00116219
0.00116245
0.00116243
0.00116162
0.00116119
0.00116112
0.00116118
0.00116159
0.00116242
0.00116351
0.00116478
0.00116627
0.00116802
0.00117003
0.0011723
0.00117481
0.00117755
0.0011805
0.00118366
0.00118699
0.00119047
0.00119408
0.00119779
0.00120158
0.00120542
0.00120926
0.00121309
0.00121687
0.00122052
0.00122404
0.00122743
0.00123066
0.00123367
0.00123636
0.00123875
0.00124113
0.00124398
0.00124629
0.00124741
0.00124865
0.00125036
0.00125172
0.0012525
0.00125295
0.00125314
0.00125329
0.00125356
0.00125376
0.00125365
0.00125321
0.0012528
0.0012524
0.00125185
0.00125116
0.00125041
0.00124964
0.00124885
0.00124804
0.00124723
0.00124643
0.00124564
0.00124487
0.00124413
0.00124342
0.00124274
0.0012421
0.00124149
0.0012409
0.00124033
0.00123978
0.00123923
0.00123868
0.00123812
0.00123756
0.00123698
0.00123639
0.00123578
0.00123516
0.00123453
0.00123389
0.00123323
0.00123257
0.0012319
0.00123123
0.00123055
0.00122987
0.00130135
0.00129584
0.00129038
0.00128497
0.00127961
0.00127431
0.0012691
0.00126397
0.00125892
0.00125393
0.00124903
0.00124423
0.0012395
0.0012349
0.00123043
0.00122599
0.00122166
0.00121761
0.00121362
0.00120957
0.00120582
0.00120223
0.0011987
0.0011954
0.00119191
0.0011886
0.00118589
0.0011827
0.00117987
0.00117784
0.00117498
0.00117212
0.00117079
0.00116912
0.0011668
0.00116564
0.00116518
0.00116389
0.00116254
0.00116198
0.00116209
0.00116219
0.00116178
0.00116151
0.00116148
0.0011616
0.00116209
0.00116303
0.00116428
0.00116573
0.00116737
0.00116922
0.0011713
0.00117363
0.00117619
0.00117898
0.00118197
0.00118514
0.00118849
0.00119198
0.0011956
0.00119931
0.00120309
0.00120691
0.00121075
0.00121457
0.00121834
0.00122202
0.00122558
0.00122902
0.0012323
0.00123538
0.0012382
0.00124071
0.00124319
0.00124607
0.00124842
0.00124973
0.00125117
0.00125307
0.00125461
0.00125547
0.00125597
0.00125619
0.00125628
0.00125651
0.00125675
0.00125669
0.00125621
0.00125555
0.00125492
0.0012542
0.00125336
0.00125243
0.00125146
0.00125046
0.00124943
0.0012484
0.00124737
0.00124638
0.00124542
0.00124452
0.00124366
0.00124285
0.00124207
0.00124132
0.00124058
0.00123986
0.00123915
0.00123844
0.00123773
0.00123701
0.00123629
0.00123556
0.00123481
0.00123405
0.00123327
0.00123247
0.00123166
0.00123084
0.00123
0.00122915
0.0012283
0.00122743
0.00122657
0.00130204
0.00129648
0.00129096
0.00128551
0.00128011
0.00127478
0.00126952
0.00126435
0.00125927
0.00125427
0.00124935
0.00124454
0.00123981
0.00123518
0.00123069
0.00122631
0.00122196
0.00121781
0.00121389
0.00120993
0.00120603
0.00120254
0.00119901
0.00119553
0.00119243
0.00118914
0.00118603
0.00118323
0.00118016
0.00117799
0.00117588
0.00117277
0.00117054
0.00116945
0.00116768
0.00116546
0.00116447
0.00116433
0.00116341
0.00116215
0.00116156
0.00116149
0.00116156
0.00116152
0.0011615
0.00116154
0.00116173
0.0011623
0.00116329
0.00116463
0.00116618
0.0011679
0.00116983
0.00117197
0.00117434
0.00117694
0.00117975
0.00118276
0.00118595
0.00118931
0.00119281
0.00119643
0.00120015
0.00120393
0.00120776
0.00121161
0.00121545
0.00121926
0.00122299
0.00122662
0.00123014