/*--------------------------------*- C++ -*----------------------------------*\
| =========                 |                                                 |
| \\      /  F ield         | OpenFOAM: The Open Source CFD Toolbox           |
|  \\    /   O peration     | Version:  v1706                                 |
|   \\  /    A nd           | Web:      www.OpenFOAM.com                      |
|    \\/     M anipulation  |                                                 |
\*---------------------------------------------------------------------------*/
FoamFile
{
    version     2.0;
    format      ascii;
    class       volScalarField;
    location    "1.6e-05";
    object      Tov;
}
// * * * * * * * * * * * * * * * * * * * * * * * * * * * * * * * * * * * * * //

dimensions      [0 0 0 1 0 0 0];


internalField   nonuniform List<scalar> 
29871
(
144.415
144.415
144.416
144.416
144.417
144.417
144.418
144.418
144.418
144.419
144.419
144.419
144.42
144.42
144.42
144.42
144.42
144.42
144.42
144.42
144.42
144.42
144.419
144.419
144.419
144.419
144.418
144.418
144.417
144.417
144.417
144.416
144.416
144.415
144.415
144.414
144.414
144.413
144.413
144.412
144.412
144.411
144.411
144.41
144.41
144.409
144.409
144.409
144.408
144.408
144.408
144.407
144.407
144.407
144.407
144.406
144.406
144.406
144.406
144.406
144.406
144.406
144.405
144.405
144.405
144.405
144.405
144.405
144.405
144.405
144.405
144.405
144.405
144.406
144.406
144.406
144.406
144.406
144.406
144.406
144.406
144.406
144.406
144.406
144.406
144.406
144.406
144.406
144.406
144.407
144.407
144.407
144.407
144.407
144.407
144.407
144.407
144.407
144.407
144.407
144.408
144.408
144.408
144.408
144.408
144.485
144.489
144.492
144.495
144.498
144.501
144.503
144.506
144.508
144.51
144.512
144.513
144.515
144.516
144.517
144.518
144.518
144.518
144.518
144.518
144.517
144.516
144.515
144.514
144.512
144.51
144.509
144.506
144.504
144.502
144.499
144.497
144.494
144.491
144.488
144.485
144.482
144.479
144.477
144.474
144.471
144.468
144.465
144.463
144.46
144.457
144.455
144.453
144.451
144.449
144.447
144.445
144.443
144.442
144.44
144.439
144.438
144.437
144.436
144.435
144.435
144.434
144.434
144.434
144.433
144.433
144.433
144.433
144.433
144.433
144.434
144.434
144.434
144.434
144.435
144.435
144.435
144.436
144.436
144.437
144.437
144.438
144.438
144.439
144.439
144.44
144.44
144.441
144.441
144.442
144.442
144.443
144.443
144.444
144.445
144.445
144.446
144.447
144.447
144.448
144.449
144.45
144.45
144.451
144.452
144.653
144.663
144.673
144.682
144.692
144.701
144.709
144.717
144.725
144.732
144.739
144.744
144.75
144.754
144.758
144.761
144.763
144.764
144.765
144.764
144.764
144.762
144.759
144.756
144.752
144.748
144.743
144.737
144.73
144.724
144.716
144.709
144.701
144.692
144.684
144.675
144.666
144.657
144.648
144.639
144.631
144.622
144.613
144.605
144.597
144.589
144.581
144.574
144.567
144.56
144.554
144.548
144.543
144.538
144.533
144.529
144.525
144.522
144.519
144.516
144.514
144.512
144.511
144.51
144.509
144.508
144.508
144.508
144.508
144.508
144.509
144.51
144.51
144.512
144.513
144.514
144.515
144.517
144.518
144.52
144.521
144.523
144.524
144.526
144.528
144.53
144.531
144.533
144.535
144.537
144.539
144.541
144.543
144.545
144.548
144.55
144.552
144.555
144.557
144.56
144.562
144.565
144.568
144.57
144.573
144.576
145.071
145.098
145.124
145.149
145.174
145.197
145.22
145.241
145.261
145.279
145.296
145.311
145.325
145.336
145.346
145.353
145.359
145.362
145.363
145.363
145.36
145.356
145.349
145.341
145.33
145.318
145.305
145.29
145.273
145.255
145.236
145.216
145.196
145.174
145.152
145.129
145.106
145.083
145.059
145.036
145.013
144.99
144.967
144.946
144.924
144.904
144.884
144.865
144.847
144.83
144.814
144.798
144.785
144.772
144.76
144.749
144.74
144.731
144.724
144.717
144.712
144.708
144.704
144.702
144.7
144.699
144.699
144.699
144.7
144.702
144.704
144.706
144.709
144.713
144.716
144.72
144.724
144.729
144.733
144.738
144.743
144.748
144.753
144.758
144.764
144.769
144.775
144.78
144.786
144.792
144.798
144.805
144.811
144.818
144.825
144.832
144.839
144.846
144.854
144.862
144.87
144.878
144.887
144.895
144.904
144.914
145.999
146.064
146.129
146.192
146.253
146.312
146.368
146.421
146.472
146.519
146.562
146.601
146.637
146.668
146.694
146.716
146.733
146.745
146.752
146.754
146.752
146.745
146.733
146.716
146.695
146.67
146.64
146.607
146.57
146.529
146.486
146.44
146.391
146.341
146.289
146.235
146.18
146.125
146.069
146.013
145.957
145.902
145.847
145.794
145.741
145.691
145.642
145.594
145.549
145.506
145.466
145.427
145.392
145.359
145.329
145.301
145.277
145.255
145.235
145.219
145.205
145.193
145.184
145.178
145.173
145.171
145.171
145.172
145.174
145.178
145.184
145.191
145.199
145.208
145.218
145.228
145.24
145.252
145.265
145.278
145.291
145.305
145.319
145.334
145.349
145.364
145.38
145.396
145.412
145.429
145.446
145.464
145.482
145.5
145.519
145.539
145.559
145.58
145.602
145.624
145.647
145.67
145.694
145.719
145.745
145.771
145.798
148.195
148.346
148.493
148.637
148.775
148.907
149.033
149.152
149.264
149.367
149.462
149.547
149.623
149.689
149.745
149.79
149.824
149.847
149.858
149.858
149.849
149.829
149.798
149.757
149.706
149.645
149.576
149.498
149.412
149.318
149.219
149.113
149.002
148.886
148.767
148.644
148.52
148.394
148.267
148.139
148.013
147.887
147.764
147.643
147.525
147.411
147.3
147.195
147.094
146.998
146.908
146.824
146.746
146.674
146.608
146.548
146.495
146.448
146.408
146.374
146.346
146.324
146.308
146.297
146.291
146.291
146.294
146.301
146.312
146.327
146.345
146.366
146.39
146.416
146.444
146.475
146.507
146.54
146.575
146.611
146.648
146.686
146.725
146.765
146.806
146.848
146.89
146.934
146.978
147.023
147.07
147.117
147.166
147.216
147.267
147.32
147.375
147.431
147.489
147.549
147.611
147.674
147.74
147.807
147.876
147.948
148.021
152.007
152.342
152.673
152.998
153.316
153.625
153.923
154.208
154.48
154.736
154.975
155.197
155.4
155.585
155.749
155.893
156.015
156.117
156.196
156.253
156.287
156.296
156.286
156.254
156.203
156.128
156.032
155.916
155.782
155.63
155.461
155.276
155.077
154.864
154.64
154.406
154.163
153.913
153.656
153.396
153.132
152.868
152.602
152.339
152.077
151.82
151.568
151.321
151.083
150.852
150.632
150.421
150.222
150.035
149.861
149.7
149.552
149.419
149.3
149.195
149.104
149.028
148.965
148.917
148.881
148.858
148.848
148.849
148.857
148.876
148.904
148.941
148.987
149.039
149.098
149.163
149.233
149.308
149.388
149.471
149.557
149.647
149.739
149.833
149.93
150.029
150.13
150.233
150.337
150.444
150.554
150.665
150.779
150.896
151.016
151.138
151.265
151.394
151.528
151.665
151.807
151.953
152.103
152.259
152.419
152.584
152.754
152.93
153.11
153.296
160.737
161.382
162.017
162.637
163.239
163.817
164.369
164.892
165.382
165.84
166.261
166.646
166.993
167.301
167.569
167.797
167.987
168.136
168.245
168.313
168.336
168.324
168.275
168.188
168.064
167.9
167.7
167.466
167.2
166.902
166.575
166.221
165.841
165.438
165.014
164.571
164.113
163.641
163.159
162.668
162.172
161.673
161.173
160.676
160.183
159.698
159.223
158.761
158.312
157.881
157.467
157.074
156.703
156.355
156.032
155.734
155.463
155.22
155.006
154.82
154.663
154.535
154.436
154.366
154.322
154.309
154.317
154.342
154.39
154.46
154.548
154.654
154.776
154.913
155.063
155.225
155.397
155.578
155.768
155.965
156.169
156.379
156.594
156.814
157.039
157.268
157.502
157.74
157.982
158.228
158.479
158.735
158.996
159.262
159.534
159.812
160.097
160.389
160.687
160.994
161.308
161.631
161.963
162.303
162.653
163.013
163.382
163.761
164.15
164.548
176.421
177.442
178.426
179.37
180.27
181.121
181.918
182.658
183.338
183.955
184.51
184.999
185.424
185.786
186.085
186.323
186.503
186.63
186.698
186.699
186.656
186.556
186.406
186.214
185.967
185.666
185.318
184.926
184.491
184.015
183.501
182.951
182.367
181.751
181.108
180.44
179.749
179.038
178.31
177.568
176.815
176.055
175.291
174.526
173.765
173.01
172.267
171.539
170.83
170.145
169.487
168.861
168.271
167.72
167.211
166.748
166.333
165.967
165.651
165.387
165.175
165.014
164.904
164.845
164.844
164.873
164.942
165.056
165.208
165.396
165.616
165.866
166.143
166.444
166.766
167.106
167.463
167.835
168.218
168.613
169.017
169.43
169.85
170.277
170.71
171.148
171.592
172.041
172.496
172.957
173.425
173.899
174.381
174.87
175.369
175.876
176.394
176.921
177.459
178.007
178.566
179.136
179.718
180.311
180.917
181.536
182.167
182.81
183.466
184.135
198.704
199.845
200.915
201.917
202.851
203.71
204.484
205.172
205.777
206.299
206.741
207.104
207.388
207.595
207.73
207.791
207.788
207.747
207.649
207.494
207.285
207.031
206.749
206.399
206.002
205.563
205.081
204.56
204.002
203.406
202.773
202.107
201.412
200.687
199.934
199.155
198.355
197.535
196.697
195.844
194.98
194.11
193.235
192.359
191.486
190.62
189.766
188.93
188.114
187.325
186.565
185.84
185.155
184.515
183.926
183.393
182.922
182.517
182.185
181.924
181.737
181.624
181.607
181.644
181.739
181.907
182.135
182.418
182.752
183.133
183.556
184.015
184.505
185.022
185.561
186.12
186.694
187.28
187.876
188.479
189.088
189.7
190.315
190.932
191.55
192.171
192.793
193.417
194.043
194.67
195.3
195.933
196.568
197.206
197.847
198.492
199.142
199.796
200.455
201.115
201.775
202.433
203.09
203.744
204.395
205.043
205.685
206.322
206.952
207.574
220.972
221.564
222.036
222.399
222.665
222.846
222.954
222.985
222.968
222.909
222.799
222.639
222.433
222.187
221.904
221.591
221.257
220.917
220.574
220.172
219.75
219.331
218.918
218.487
218.03
217.553
217.069
216.583
216.087
215.584
215.08
214.572
214.053
213.527
212.998
212.461
211.913
211.355
210.791
210.216
209.63
209.031
208.423
207.808
207.19
206.571
205.955
205.348
204.758
204.189
203.65
203.149
202.693
202.287
201.936
201.645
201.417
201.254
201.16
201.145
201.182
201.289
201.457
201.686
201.981
202.329
202.732
203.184
203.676
204.198
204.744
205.307
205.883
206.463
207.043
207.618
208.189
208.75
209.297
209.829
210.345
210.845
211.33
211.8
212.255
212.695
213.12
213.529
213.925
214.307
214.675
215.032
215.377
215.711
216.036
216.351
216.656
216.951
217.237
217.515
217.785
218.048
218.304
218.553
218.796
219.032
219.263
219.489
219.71
219.927
232.117
232
231.824
231.596
231.327
231.027
230.699
230.345
229.971
229.586
229.194
228.79
228.375
227.957
227.519
227.081
226.607
226.136
225.686
225.249
224.76
224.252
223.782
223.351
222.89
222.409
221.937
221.47
221.001
220.542
220.09
219.638
219.194
218.769
218.354
217.944
217.547
217.165
216.793
216.429
216.08
215.749
215.435
215.139
214.86
214.6
214.362
214.148
213.959
213.792
213.649
213.527
213.434
213.375
213.357
213.37
213.424
213.527
213.681
213.888
214.115
214.411
214.741
215.094
215.466
215.858
216.261
216.667
217.068
217.459
217.841
218.213
218.565
218.898
219.217
219.524
219.812
220.078
220.327
220.563
220.788
220.998
221.195
221.379
221.549
221.706
221.851
221.986
222.113
222.232
222.344
222.45
222.55
222.645
222.734
222.817
222.896
222.97
223.04
223.105
223.168
223.227
223.284
223.34
223.393
223.446
223.498
223.549
223.601
223.653
223.706
236.35
235.932
235.503
235.087
234.623
234.134
233.654
233.153
232.645
232.133
231.615
231.098
230.59
230.077
229.56
229.046
228.525
227.999
227.502
227.008
226.489
225.965
225.475
225.001
224.517
224.045
223.585
223.125
222.681
222.25
221.816
221.399
221.017
220.643
220.272
219.926
219.603
219.295
218.992
218.704
218.434
218.178
217.939
217.722
217.532
217.371
217.244
217.151
217.096
217.09
217.109
217.155
217.249
217.396
217.579
217.792
218.033
218.299
218.596
218.921
219.235
219.564
219.929
220.292
220.66
221.034
221.391
221.73
222.056
222.361
222.643
222.901
223.142
223.362
223.56
223.734
223.892
224.035
224.163
224.272
224.367
224.448
224.516
224.573
224.623
224.666
224.704
224.734
224.758
224.778
224.794
224.806
224.815
224.822
224.827
224.83
224.832
224.833
224.833
224.832
224.832
224.832
224.832
224.833
224.835
224.838
224.843
224.849
224.856
224.866
224.878
224.891
224.906
238.097
237.557
237.018
236.485
235.946
235.399
234.854
234.306
233.757
233.206
232.655
232.111
231.578
231.044
230.514
229.989
229.459
228.927
228.426
227.924
227.403
226.876
226.384
225.898
225.406
224.935
224.474
224.008
223.566
223.136
222.697
222.284
221.911
221.534
221.164
220.84
220.546
220.239
219.939
219.679
219.446
219.233
219.043
218.884
218.757
218.663
218.601
218.58
218.587
218.621
218.688
218.779
218.899
219.061
219.263
219.5
219.766
220.06
220.377
220.706
221.039
221.383
221.735
222.083
222.428
222.751
223.055
223.351
223.632
223.871
224.093
224.321
224.526
224.695
224.849
225.002
225.135
225.238
225.325
225.409
225.481
225.538
225.583
225.62
225.651
225.673
225.688
225.695
225.696
225.695
225.691
225.682
225.671
225.658
225.643
225.627
225.61
225.592
225.574
225.555
225.537
225.52
225.504
225.489
225.476
225.464
225.454
225.444
225.437
225.431
225.428
225.427
225.427
240.225
239.666
239.104
238.544
237.987
237.432
236.874
236.314
235.752
235.189
234.625
234.058
233.491
232.933
232.382
231.831
231.289
230.754
230.215
229.681
229.177
228.668
228.14
227.616
227.126
226.632
226.132
225.67
225.212
224.745
224.318
223.897
223.461
223.067
222.706
222.33
221.976
221.659
221.366
221.047
220.742
220.483
220.249
220.035
219.852
219.7
219.578
219.487
219.432
219.424
219.44
219.486
219.567
219.679
219.822
219.996
220.202
220.434
220.689
220.96
221.243
221.537
221.837
222.134
222.437
222.748
223.068
223.377
223.635
223.898
224.158
224.387
224.591
224.805
224.997
225.165
225.313
225.464
225.598
225.708
225.802
225.892
225.969
226.03
226.079
226.113
226.136
226.158
226.173
226.174
226.17
226.162
226.15
226.135
226.117
226.097
226.075
226.053
226.03
226.006
225.983
225.96
225.937
225.916
225.896
225.878
225.862
225.847
225.833
225.822
225.812
225.804
225.798
225.796
225.795
241.12
240.543
239.963
239.384
238.807
238.23
237.654
237.078
236.503
235.927
235.351
234.774
234.2
233.637
233.078
232.524
231.98
231.442
230.899
230.368
229.864
229.352
228.818
228.306
227.818
227.317
226.82
226.371
225.915
225.454
225.043
224.63
224.209
223.833
223.478
223.102
222.77
222.459
222.179
221.864
221.563
221.301
221.062
220.854
220.678
220.529
220.408
220.317
220.261
220.251
220.263
220.3
220.365
220.459
220.58
220.729
220.907
221.11
221.334
221.576
221.83
222.095
222.36
222.619
222.884
223.157
223.435
223.706
223.945
224.169
224.411
224.638
224.842
225.039
225.227
225.4
225.56
225.711
225.849
225.972
226.075
226.169
226.258
226.331
226.386
226.43
226.465
226.494
226.514
226.522
226.522
226.519
226.511
226.501
226.488
226.471
226.453
226.433
226.412
226.389
226.367
226.345
226.323
226.303
226.283
226.265
226.249
226.234
226.221
226.21
226.201
226.194
226.189
226.188
226.189
226.191
246
245.427
244.849
244.265
243.677
243.089
242.5
241.91
241.319
240.729
240.142
239.555
238.97
238.387
237.805
237.225
236.647
236.069
235.491
234.921
234.36
233.8
233.249
232.708
232.17
231.628
231.103
230.601
230.086
229.551
229.055
228.569
228.061
227.58
227.142
226.685
226.239
225.84
225.429
225.033
224.673
224.315
223.95
223.626
223.312
223.037
222.728
222.44
222.179
221.947
221.747
221.574
221.426
221.303
221.209
221.147
221.125
221.13
221.154
221.202
221.275
221.372
221.493
221.637
221.802
221.984
222.182
222.392
222.609
222.828
223.052
223.285
223.518
223.75
223.995
224.224
224.426
224.635
224.85
225.054
225.246
225.43
225.605
225.771
225.93
226.079
226.215
226.331
226.438
226.542
226.633
226.701
226.757
226.806
226.847
226.878
226.898
226.909
226.913
226.912
226.908
226.899
226.887
226.872
226.854
226.835
226.814
226.793
226.772
226.752
226.732
226.714
226.698
226.683
226.67
226.659
226.651
226.645
226.641
226.641
226.642
226.647
226.654
246.833
246.246
245.656
245.064
244.47
243.876
243.283
242.689
242.095
241.504
240.915
240.328
239.742
239.159
238.578
238
237.425
236.849
236.278
235.715
235.157
234.602
234.058
233.523
232.988
232.449
231.933
231.434
230.916
230.389
229.91
229.426
228.918
228.462
228.028
227.57
227.147
226.753
226.346
225.974
225.63
225.265
224.909
224.586
224.271
223.981
223.694
223.417
223.161
222.937
222.742
222.571
222.421
222.295
222.194
222.122
222.081
222.073
222.082
222.11
222.159
222.228
222.318
222.426
222.552
222.693
222.848
223.013
223.185
223.363
223.548
223.739
223.93
224.127
224.338
224.55
224.734
224.913
225.114
225.313
225.502
225.683
225.858
226.029
226.195
226.356
226.504
226.633
226.752
226.868
226.974
227.056
227.127
227.193
227.249
227.293
227.327
227.35
227.365
227.374
227.377
227.375
227.37
227.361
227.348
227.333
227.316
227.299
227.281
227.264
227.248
227.233
227.22
227.209
227.201
227.195
227.191
227.191
227.193
227.198
227.206
227.216
227.23
247.649
247.058
246.466
245.873
245.28
244.688
244.095
243.504
242.914
242.326
241.74
241.156
240.575
239.996
239.421
238.85
238.28
237.712
237.151
236.598
236.046
235.501
234.966
234.439
233.911
233.378
232.875
232.38
231.862
231.355
230.889
230.407
229.913
229.477
229.042
228.596
228.194
227.798
227.408
227.051
226.719
226.351
225.993
225.668
225.356
225.059
224.782
224.518
224.272
224.051
223.856
223.683
223.53
223.397
223.288
223.203
223.144
223.111
223.103
223.11
223.132
223.172
223.229
223.302
223.389
223.49
223.602
223.725
223.854
223.992
224.138
224.289
224.444
224.608
224.782
224.972
225.139
225.296
225.477
225.67
225.853
226.028
226.201
226.371
226.543
226.713
226.873
227.013
227.147
227.278
227.396
227.494
227.583
227.666
227.739
227.8
227.849
227.887
227.916
227.937
227.951
227.96
227.962
227.96
227.956
227.947
227.937
227.926
227.914
227.902
227.892
227.883
227.877
227.872
227.871
227.872
227.877
227.884
227.895
227.909
227.925
227.945
227.967
248.478
247.89
247.301
246.711
246.123
245.536
244.949
244.364
243.781
243.2
242.621
242.046
241.473
240.903
240.338
239.777
239.217
238.661
238.114
237.571
237.031
236.5
235.977
235.461
234.942
234.421
233.934
233.445
232.933
232.454
231.997
231.515
231.051
230.631
230.193
229.771
229.389
228.993
228.617
228.267
227.939
227.585
227.22
226.891
226.58
226.282
226.01
225.757
225.518
225.299
225.1
224.922
224.762
224.622
224.501
224.402
224.324
224.269
224.234
224.216
224.216
224.225
224.249
224.287
224.337
224.399
224.471
224.553
224.643
224.742
224.849
224.963
225.084
225.215
225.357
225.518
225.673
225.811
225.97
226.153
226.328
226.497
226.665
226.834
227.007
227.186
227.362
227.514
227.657
227.8
227.933
228.05
228.159
228.261
228.352
228.432
228.499
228.555
228.602
228.639
228.668
228.69
228.705
228.715
228.721
228.723
228.722
228.72
228.717
228.715
228.714
228.715
228.718
228.724
228.732
228.744
228.758
228.776
228.797
228.822
228.85
228.881
228.916
228.953
228.994
249.325
248.743
248.161
247.58
247
246.421
245.844
245.27
244.697
244.127
243.56
242.997
242.437
241.881
241.329
240.781
240.236
239.698
239.167
238.638
238.115
237.601
237.093
236.591
236.086
235.584
235.111
234.632
234.136
233.686
233.234
232.762
232.335
231.923
231.49
231.095
230.729
230.34
229.973
229.627
229.298
228.963
228.601
228.272
227.96
227.664
227.396
227.147
226.912
226.69
226.486
226.3
226.132
225.982
225.849
225.734
225.638
225.56
225.5
225.456
225.426
225.408
225.403
225.408
225.422
225.448
225.483
225.527
225.58
225.642
225.713
225.791
225.88
225.979
226.09
226.222
226.359
226.479
226.621
226.791
226.958
227.118
227.281
227.449
227.622
227.807
227.995
228.167
228.32
228.473
228.622
228.762
228.893
229.016
229.13
229.232
229.323
229.401
229.469
229.528
229.576
229.617
229.649
229.675
229.696
229.713
229.727
229.738
229.749
229.759
229.77
229.783
229.799
229.817
229.839
229.865
229.895
229.928
229.966
230.007
230.052
230.101
230.153
230.208
230.267
250.191
249.619
249.048
248.478
247.911
247.345
246.782
246.221
245.664
245.109
244.558
244.012
243.468
242.93
242.396
241.866
241.34
240.823
240.311
239.8
239.3
238.805
238.314
237.832
237.345
236.867
236.411
235.941
235.479
235.049
234.602
234.158
233.759
233.352
232.939
232.566
232.219
231.841
231.481
231.141
230.811
230.485
230.141
229.816
229.504
229.211
228.945
228.698
228.463
228.239
228.029
227.836
227.658
227.497
227.351
227.221
227.107
227.008
226.924
226.854
226.797
226.751
226.716
226.69
226.673
226.666
226.668
226.676
226.694
226.722
226.758
226.805
226.862
226.931
227.014
227.118
227.23
227.333
227.46
227.616
227.773
227.924
228.082
228.249
228.425
228.616
228.815
229.005
229.173
229.34
229.51
229.675
229.832
229.982
230.123
230.254
230.373
230.481
230.576
230.66
230.734
230.799
230.855
230.903
230.944
230.978
231.009
231.038
231.066
231.094
231.123
231.155
231.189
231.227
231.269
231.315
231.365
231.42
231.479
231.543
231.611
231.682
231.758
231.837
231.919
251.639
251.079
250.521
249.965
249.411
248.86
248.311
247.766
247.224
246.686
246.151
245.62
245.094
244.572
244.055
243.544
243.036
242.534
242.041
241.55
241.063
240.59
240.117
239.647
239.19
238.726
238.273
237.835
237.384
236.961
236.546
236.109
235.701
235.326
234.93
234.54
234.189
233.862
233.501
233.146
232.815
232.488
232.167
231.845
231.53
231.224
230.936
230.67
230.423
230.188
229.963
229.748
229.547
229.361
229.188
229.03
228.886
228.754
228.636
228.531
228.438
228.356
228.283
228.22
228.166
228.12
228.082
228.053
228.03
228.017
228.016
228.021
228.037
228.066
228.107
228.163
228.241
228.327
228.414
228.527
228.669
228.815
228.957
229.111
229.28
229.462
229.661
229.873
230.08
230.267
230.455
230.651
230.846
231.036
231.219
231.394
231.559
231.713
231.855
231.985
232.103
232.208
232.3
232.383
232.456
232.522
232.583
232.639
232.692
232.744
232.796
232.85
232.906
232.965
233.028
233.096
233.168
233.246
233.328
233.415
233.507
233.603
233.704
233.809
233.918
234.03
252.541
251.999
251.459
250.922
250.388
249.857
249.329
248.806
248.286
247.771
247.26
246.754
246.252
245.756
245.265
244.779
244.298
243.825
243.359
242.892
242.436
241.991
241.541
241.1
240.671
240.235
239.807
239.39
238.974
238.581
238.183
237.77
237.392
237.039
236.664
236.298
235.97
235.658
235.33
234.979
234.655
234.34
234.027
233.72
233.42
233.126
232.843
232.581
232.335
232.102
231.876
231.66
231.455
231.262
231.081
230.912
230.755
230.61
230.475
230.351
230.236
230.132
230.035
229.948
229.868
229.795
229.73
229.673
229.623
229.582
229.551
229.529
229.521
229.526
229.543
229.575
229.628
229.692
229.766
229.865
229.994
230.131
230.267
230.419
230.593
230.785
230.998
231.226
231.452
231.664
231.881
232.109
232.339
232.567
232.789
233.006
233.213
233.408
233.59
233.757
233.911
234.052
234.181
234.299
234.407
234.506
234.599
234.686
234.77
234.853
234.936
235.02
235.106
235.197
235.291
235.391
235.496
235.606
235.722
235.844
235.97
236.102
236.238
236.379
236.524
236.673
236.827
236.984
253.482
252.961
252.443
251.929
251.419
250.912
250.41
249.912
249.419
248.931
248.448
247.97
247.498
247.031
246.57
246.114
245.663
245.222
244.785
244.349
243.928
243.512
243.089
242.683
242.286
241.879
241.477
241.092
240.716
240.344
239.97
239.594
239.24
238.912
238.567
238.225
237.919
237.619
237.331
236.999
236.678
236.377
236.077
235.784
235.503
235.224
234.951
234.693
234.452
234.222
233.998
233.782
233.574
233.376
233.188
233.011
232.844
232.686
232.537
232.396
232.264
232.141
232.024
231.915
231.813
231.718
231.63
231.549
231.477
231.413
231.359
231.316
231.286
231.271
231.272
231.285
231.317
231.364
231.428
231.516
231.636
231.769
231.902
232.058
232.242
232.451
232.682
232.931
233.178
233.423
233.677
233.944
234.218
234.491
234.758
235.018
235.269
235.509
235.737
235.952
236.152
236.338
236.511
236.67
236.819
236.957
237.087
237.212
237.333
237.452
237.571
237.691
237.815
237.943
238.075
238.213
238.357
238.507
238.663
238.825
238.992
239.165
239.343
239.526
239.714
239.906
240.103
240.304
254.477
253.981
253.489
253.002
252.519
252.041
251.568
251.1
250.637
250.18
249.729
249.283
248.843
248.409
247.982
247.559
247.144
246.737
246.332
245.932
245.548
245.164
244.774
244.407
244.044
243.667
243.297
242.957
242.612
242.262
241.924
241.588
241.257
240.955
240.646
240.332
240.047
239.767
239.504
239.215
238.901
238.612
238.329
238.052
237.792
237.533
237.274
237.026
236.792
236.569
236.351
236.138
235.931
235.732
235.541
235.359
235.184
235.017
234.858
234.705
234.559
234.419
234.286
234.159
234.039
233.924
233.817
233.716
233.624
233.541
233.467
233.405
233.356
233.323
233.311
233.315
233.333
233.37
233.43
233.517
233.636
233.77
233.909
234.076
234.278
234.509
234.767
235.039
235.314
235.597
235.895
236.205
236.524
236.844
237.163
237.478
237.784
238.08
238.363
238.631
238.883
239.119
239.34
239.546
239.739
239.921
240.095
240.262
240.424
240.585
240.746
240.909
241.076
241.246
241.423
241.605
241.793
241.988
242.189
242.397
242.61
242.829
243.054
243.284
243.519
243.758
244.003
244.252
255.541
255.074
254.612
254.156
253.704
253.258
252.818
252.384
251.956
251.533
251.117
250.707
250.304
249.907
249.516
249.13
248.753
248.383
248.015
247.657
247.31
246.96
246.61
246.285
245.957
245.612
245.288
244.988
244.672
244.35
244.058
243.762
243.456
243.182
242.913
242.63
242.369
242.116
241.872
241.629
241.336
241.061
240.799
240.541
240.303
240.066
239.825
239.591
239.371
239.159
238.951
238.745
238.544
238.348
238.159
237.975
237.797
237.625
237.459
237.298
237.142
236.991
236.845
236.704
236.569
236.439
236.316
236.2
236.092
235.993
235.905
235.828
235.766
235.719
235.694
235.692
235.703
235.735
235.793
235.881
236.006
236.148
236.3
236.487
236.715
236.979
237.27
237.57
237.883
238.215
238.566
238.932
239.307
239.687
240.067
240.443
240.81
241.165
241.507
241.831
242.138
242.428
242.7
242.956
243.198
243.428
243.648
243.861
244.071
244.278
244.485
244.695
244.908
245.127
245.351
245.581
245.818
246.061
246.312
246.568
246.831
247.099
247.373
247.653
247.937
248.226
248.521
248.82
249.125
256.258
255.83
255.408
254.991
254.581
254.178
253.78
253.39
253.006
252.629
252.258
251.894
251.537
251.186
250.842
250.506
250.176
249.849
249.534
249.226
248.914
248.611
248.327
248.036
247.731
247.457
247.193
246.912
246.629
246.381
246.124
245.851
245.608
245.378
245.131
244.898
244.676
244.458
244.25
243.99
243.736
243.5
243.264
243.049
242.838
242.618
242.403
242.199
242.004
241.809
241.615
241.423
241.235
241.05
240.87
240.693
240.521
240.351
240.186
240.024
239.865
239.71
239.56
239.414
239.274
239.14
239.013
238.894
238.784
238.686
238.601
238.53
238.478
238.447
238.444
238.455
238.49
238.553
238.649
238.788
238.941
239.117
239.336
239.6
239.905
240.234
240.575
240.94
241.33
241.742
242.17
242.609
243.053
243.497
243.936
244.367
244.784
245.185
245.567
245.931
246.274
246.599
246.907
247.199
247.478
247.748
248.01
248.267
248.523
248.78
249.039
249.301
249.569
249.843
250.124
250.411
250.704
251.004
251.311
251.623
251.942
252.265
252.594
252.927
253.266
253.609
253.957
254.31
257.549
257.158
256.773
256.395
256.025
255.661
255.304
254.955
254.612
254.277
253.949
253.628
253.314
253.007
252.707
252.414
252.127
251.846
251.576
251.309
251.041
250.788
250.544
250.294
250.037
249.811
249.585
249.344
249.107
248.902
248.685
248.451
248.243
248.052
247.844
247.643
247.457
247.27
247.095
246.866
246.646
246.44
246.23
246.04
245.856
245.66
245.466
245.284
245.109
244.932
244.753
244.573
244.395
244.22
244.046
243.875
243.705
243.537
243.37
243.206
243.044
242.885
242.729
242.577
242.43
242.289
242.156
242.031
241.916
241.813
241.725
241.654
241.602
241.576
241.577
241.596
241.643
241.721
241.836
241.997
242.172
242.385
242.647
242.957
243.31
243.683
244.078
244.502
244.956
245.433
245.928
246.433
246.944
247.453
247.957
248.45
248.927
249.387
249.826
250.244
250.64
251.017
251.374
251.716
252.044
252.362
252.672
252.979
253.283
253.588
253.896
254.208
254.525
254.848
255.178
255.513
255.856
256.204
256.558
256.918
257.283
257.653
258.028
258.407
258.79
259.178
259.57
259.967
258.609
258.266
257.93
257.601
257.281
256.968
256.662
256.365
256.074
255.792
255.517
255.249
254.988
254.735
254.489
254.248
254.015
253.791
253.569
253.351
253.145
252.945
252.739
252.536
252.355
252.171
251.975
251.788
251.625
251.45
251.26
251.093
250.941
250.774
250.61
250.46
250.313
250.165
249.968
249.792
249.62
249.438
249.274
249.119
248.949
248.779
248.622
248.47
248.314
248.152
247.988
247.824
247.66
247.496
247.332
247.168
247.005
246.841
246.678
246.516
246.356
246.199
246.045
245.897
245.754
245.619
245.493
245.379
245.279
245.194
245.129
245.086
245.074
245.084
245.12
245.188
245.291
245.439
245.63
245.84
246.101
246.416
246.781
247.186
247.613
248.068
248.558
249.08
249.625
250.187
250.759
251.335
251.908
252.473
253.024
253.558
254.072
254.563
255.03
255.475
255.898
256.302
256.689
257.062
257.426
257.782
258.133
258.484
258.835
259.189
259.546
259.909
260.278
260.652
261.032
261.418
261.81
262.207
262.608
263.014
263.424
263.838
264.255
264.676
265.1
265.528
265.96
259.895
259.604
259.321
259.047
258.78
258.522
258.271
258.029
257.794
257.567
257.348
257.136
256.932
256.734
256.543
256.36
256.184
256.011
255.844
255.687
255.532
255.376
255.227
255.091
254.951
254.805
254.67
254.549
254.418
254.276
254.153
254.042
253.917
253.792
253.681
253.579
253.448
253.299
253.167
253.029
252.875
252.738
252.614
252.472
252.329
252.198
252.07
251.937
251.795
251.649
251.499
251.349
251.197
251.043
250.888
250.731
250.574
250.415
250.257
250.1
249.946
249.795
249.648
249.509
249.378
249.257
249.15
249.058
248.984
248.933
248.91
248.915
248.944
249.007
249.106
249.245
249.436
249.662
249.923
250.241
250.616
251.043
251.503
251.99
252.512
253.071
253.661
254.273
254.9
255.535
256.171
256.802
257.421
258.024
258.607
259.166
259.701
260.21
260.696
261.159
261.602
262.028
262.441
262.843
263.239
263.63
264.021
264.412
264.806
265.203
265.605
266.013
266.425
266.842
267.264
267.691
268.121
268.556
268.993
269.434
269.877
270.323
270.772
271.222
271.676
272.132
272.591
273.053
261.669
261.425
261.19
260.964
260.746
260.536
260.335
260.143
259.958
259.782
259.613
259.452
259.299
259.152
259.013
258.88
258.754
258.632
258.517
258.41
258.304
258.199
258.103
258.014
257.922
257.827
257.743
257.665
257.58
257.487
257.41
257.34
257.258
257.173
257.104
257.04
256.939
256.84
256.751
256.643
256.518
256.41
256.316
256.201
256.087
255.983
255.881
255.77
255.65
255.522