/*--------------------------------*- C++ -*----------------------------------*\
| =========                 |                                                 |
| \\      /  F ield         | OpenFOAM: The Open Source CFD Toolbox           |
|  \\    /   O peration     | Version:  v1706                                 |
|   \\  /    A nd           | Web:      www.OpenFOAM.com                      |
|    \\/     M anipulation  |                                                 |
\*---------------------------------------------------------------------------*/
FoamFile
{
    version     2.0;
    format      ascii;
    class       volVectorField;
    location    "1.6e-05";
    object      U;
}
// * * * * * * * * * * * * * * * * * * * * * * * * * * * * * * * * * * * * * //

dimensions      [0 1 -1 0 0 0 0];


internalField   nonuniform List<vector> 
29871
(
(978.561 0.0279532 7.14993e-15)
(978.56 0.0291181 4.64014e-15)
(978.559 0.0302585 4.95525e-15)
(978.559 0.0313698 3.99236e-15)
(978.558 0.0324459 2.45441e-15)
(978.557 0.0334788 3.2695e-15)
(978.557 0.0344593 4.18996e-15)
(978.556 0.0353778 4.46058e-15)
(978.556 0.0362259 5.01768e-15)
(978.556 0.0369971 4.94938e-15)
(978.555 0.0376872 5.08926e-15)
(978.555 0.0382936 6.32136e-15)
(978.555 0.0388146 5.29801e-15)
(978.554 0.0392489 5.70219e-15)
(978.554 0.0395971 4.03264e-15)
(978.554 0.0398584 2.79598e-15)
(978.554 0.040033 3.40869e-15)
(978.554 0.0401255 4.20342e-15)
(978.554 0.0401364 4.4047e-15)
(978.555 0.0400839 4.35947e-15)
(978.555 0.0399104 3.93374e-15)
(978.555 0.0396672 4.38733e-15)
(978.555 0.0393496 2.84508e-15)
(978.556 0.0389572 4.63472e-15)
(978.556 0.0384924 6.11036e-15)
(978.557 0.0379584 5.318e-15)
(978.557 0.0373594 6.66694e-15)
(978.558 0.0367 3.68192e-15)
(978.558 0.035985 3.33581e-15)
(978.559 0.0352193 5.19903e-15)
(978.559 0.0344084 5.15655e-15)
(978.56 0.0335576 3.46318e-15)
(978.56 0.032672 4.76655e-15)
(978.561 0.0317563 7.19778e-15)
(978.562 0.0308142 4.30563e-15)
(978.562 0.02985 2.15565e-15)
(978.563 0.0288683 2.13072e-15)
(978.564 0.0278743 5.07782e-15)
(978.564 0.0268734 5.278e-15)
(978.565 0.0258709 5.7137e-15)
(978.565 0.0248716 6.84516e-15)
(978.566 0.0238802 6.85744e-15)
(978.567 0.0229015 6.76254e-15)
(978.567 0.0219405 3.64808e-15)
(978.568 0.0210026 3.64349e-15)
(978.568 0.0200934 4.47668e-15)
(978.569 0.0192181 3.22092e-15)
(978.569 0.0183817 1.17142e-15)
(978.57 0.0175886 2.65065e-15)
(978.57 0.0168422 6.44797e-15)
(978.571 0.0161452 4.78058e-15)
(978.571 0.0154992 1.77043e-15)
(978.571 0.0149045 3.80928e-15)
(978.571 0.0143596 5.57959e-15)
(978.572 0.0138629 4.64703e-15)
(978.572 0.0134125 4.73716e-15)
(978.572 0.0130066 5.65843e-15)
(978.572 0.0126437 6.29695e-15)
(978.573 0.0123216 4.60577e-15)
(978.573 0.0120383 3.47743e-15)
(978.573 0.0117922 2.02834e-15)
(978.573 0.0115821 1.10564e-15)
(978.573 0.0114076 3.20873e-15)
(978.573 0.0112666 -3.21877e-16)
(978.573 0.0111594 4.98529e-15)
(978.573 0.0110852 6.03114e-15)
(978.573 0.0110384 3.22549e-15)
(978.573 0.0110312 2.67171e-15)
(978.573 0.0110397 2.75169e-15)
(978.573 0.0110629 3.4246e-15)
(978.573 0.0111018 4.26004e-15)
(978.573 0.0111558 3.58875e-15)
(978.573 0.0112245 2.49454e-15)
(978.573 0.0113108 3.14164e-15)
(978.573 0.0114122 3.46741e-15)
(978.573 0.0115253 4.48866e-15)
(978.572 0.0116475 2.1886e-15)
(978.572 0.0117772 3.03464e-15)
(978.572 0.0119127 3.41196e-15)
(978.572 0.0120528 5.98616e-15)
(978.572 0.0121963 5.76672e-15)
(978.572 0.012342 5.0738e-15)
(978.572 0.0124892 4.6922e-15)
(978.572 0.0126372 3.86343e-15)
(978.572 0.0127858 5.60328e-15)
(978.572 0.0129351 4.71649e-15)
(978.572 0.0130854 4.17424e-15)
(978.571 0.0132374 5.34384e-15)
(978.571 0.0133915 5.34495e-15)
(978.571 0.0135486 4.66908e-15)
(978.571 0.013709 4.55355e-15)
(978.571 0.0138733 2.80935e-15)
(978.571 0.0140418 4.35254e-15)
(978.571 0.0142147 4.72501e-15)
(978.571 0.0143923 3.62661e-15)
(978.571 0.0145747 3.80171e-15)
(978.57 0.0147618 3.92423e-15)
(978.57 0.0149538 3.94554e-15)
(978.57 0.0151507 3.92916e-15)
(978.57 0.0153525 3.85729e-15)
(978.57 0.0155592 4.69914e-15)
(978.57 0.0157708 3.69144e-15)
(978.57 0.0159872 2.24958e-15)
(978.569 0.0162084 3.09226e-15)
(978.569 0.0164344 1.59355e-15)
(978.468 0.154897 1.19568e-14)
(978.465 0.161274 1.21298e-14)
(978.461 0.167556 1.35786e-14)
(978.457 0.173705 1.308e-14)
(978.454 0.179685 1.19683e-14)
(978.451 0.185467 1.37456e-14)
(978.448 0.191026 1.26334e-14)
(978.445 0.196344 1.25204e-14)
(978.443 0.201397 1.2492e-14)
(978.44 0.20616 1.26091e-14)
(978.438 0.210601 1.20514e-14)
(978.437 0.214685 1.17709e-14)
(978.435 0.218376 1.28371e-14)
(978.434 0.221646 8.99855e-15)
(978.433 0.224456 7.75756e-15)
(978.433 0.226778 9.9067e-15)
(978.433 0.228603 1.19686e-14)
(978.433 0.229849 1.15506e-14)
(978.434 0.230556 9.84523e-15)
(978.434 0.230822 8.54201e-15)
(978.435 0.23055 9.67076e-15)
(978.437 0.229752 1.09886e-14)
(978.439 0.228445 1.29669e-14)
(978.441 0.226643 1.29287e-14)
(978.443 0.224363 1.06695e-14)
(978.445 0.221621 1.17121e-14)
(978.448 0.218439 1.25685e-14)
(978.451 0.214843 1.12582e-14)
(978.454 0.210862 1.15247e-14)
(978.458 0.206529 1.15868e-14)
(978.461 0.201877 1.23873e-14)
(978.465 0.196941 8.14941e-15)
(978.468 0.191758 1.16187e-14)
(978.472 0.186372 1.46666e-14)
(978.476 0.180826 1.33852e-14)
(978.479 0.175165 1.18608e-14)
(978.483 0.169427 9.31249e-15)
(978.487 0.16365 1.21739e-14)
(978.49 0.157866 1.14817e-14)
(978.494 0.152108 1.27139e-14)
(978.497 0.146407 1.26206e-14)
(978.501 0.140793 1.14953e-14)
(978.504 0.135293 1.19688e-14)
(978.507 0.129928 1.09256e-14)
(978.51 0.124718 1.05426e-14)
(978.513 0.119674 1.1811e-14)
(978.516 0.114808 1.14558e-14)
(978.518 0.110131 8.2414e-15)
(978.521 0.105651 1.04925e-14)
(978.523 0.101378 9.29309e-15)
(978.525 0.0973224 8.29869e-15)
(978.527 0.0934935 1.0456e-14)
(978.529 0.0899024 1.18947e-14)
(978.53 0.0865632 9.86828e-15)
(978.532 0.0834871 1.0222e-14)
(978.533 0.0806797 9.79699e-15)
(978.534 0.0781456 1.13999e-14)
(978.535 0.0758829 1.23374e-14)
(978.536 0.0738886 7.97974e-15)
(978.537 0.0721606 8.2392e-15)
(978.537 0.0706864 1.01169e-14)
(978.538 0.0694551 6.39584e-15)
(978.538 0.0684525 9.88621e-15)
(978.538 0.0676526 7.20029e-15)
(978.538 0.0670451 1.01918e-14)
(978.538 0.0666306 1.01989e-14)
(978.538 0.0663929 9.41337e-15)
(978.538 0.066362 1.09891e-14)
(978.538 0.0664159 1.07274e-14)
(978.537 0.0665392 9.92976e-15)
(978.537 0.0667624 1.09215e-14)
(978.537 0.0670967 8.14265e-15)
(978.536 0.0675304 8.29265e-15)
(978.536 0.068053 1.03872e-14)
(978.535 0.0686538 8.79421e-15)
(978.535 0.0693214 8.98878e-15)
(978.534 0.0700447 8.62935e-15)
(978.534 0.0708146 9.20537e-15)
(978.533 0.0716243 9.35701e-15)
(978.533 0.0724694 1.17214e-14)
(978.532 0.0733482 1.01513e-14)
(978.531 0.0742603 9.82643e-15)
(978.531 0.0752064 9.57051e-15)
(978.53 0.0761869 1.07977e-14)
(978.529 0.0772021 1.17514e-14)
(978.529 0.0782516 1.17043e-14)
(978.528 0.0793348 1.09296e-14)
(978.527 0.0804509 1.07199e-14)
(978.526 0.081599 1.12937e-14)
(978.526 0.0827789 1.10497e-14)
(978.525 0.0839904 9.7196e-15)
(978.524 0.0852338 8.9916e-15)
(978.523 0.0865098 1.26515e-14)
(978.522 0.0878194 1.13005e-14)
(978.521 0.0891631 9.80669e-15)
(978.521 0.0905418 9.36561e-15)
(978.52 0.0919558 9.6984e-15)
(978.519 0.093405 1.04504e-14)
(978.518 0.0948889 9.28907e-15)
(978.517 0.0964065 6.43412e-15)
(978.516 0.0979563 9.66413e-15)
(978.515 0.0995362 1.03849e-14)
(978.514 0.101144 7.76946e-15)
(978.513 0.102776 8.1788e-15)
(978.512 0.10443 6.38032e-15)
(978.243 0.457118 2.26793e-14)
(978.231 0.478155 2.25224e-14)
(978.218 0.498969 1.79892e-14)
(978.207 0.519466 2.15493e-14)
(978.195 0.539554 2.30363e-14)
(978.185 0.559134 2.02461e-14)
(978.174 0.578098 2.06707e-14)
(978.165 0.596328 2.02003e-14)
(978.156 0.613699 2.21887e-14)
(978.148 0.630084 1.99305e-14)
(978.141 0.645366 1.85035e-14)
(978.135 0.659439 1.65986e-14)
(978.13 0.672209 1.58251e-14)
(978.126 0.683597 1.89389e-14)
(978.123 0.693537 1.94277e-14)
(978.121 0.701988 1.88217e-14)
(978.12 0.708953 1.75629e-14)
(978.12 0.714411 1.84187e-14)
(978.122 0.718353 1.7207e-14)
(978.124 0.720751 1.72757e-14)
(978.127 0.721237 1.64397e-14)
(978.13 0.720289 1.52937e-14)
(978.135 0.718174 1.84471e-14)
(978.141 0.714468 2.06288e-14)
(978.147 0.709259 1.63214e-14)
(978.154 0.702629 1.88243e-14)
(978.162 0.69464 2.01587e-14)
(978.171 0.685358 1.89951e-14)
(978.18 0.674858 1.82504e-14)
(978.19 0.663216 1.83215e-14)
(978.2 0.650515 1.83517e-14)
(978.21 0.636845 1.90882e-14)
(978.221 0.622306 1.78179e-14)
(978.232 0.606995 1.87138e-14)
(978.243 0.591004 1.94469e-14)
(978.254 0.574419 1.99742e-14)
(978.266 0.557333 1.96849e-14)
(978.277 0.539847 1.86041e-14)
(978.288 0.522072 1.8485e-14)
(978.3 0.504124 1.94026e-14)
(978.311 0.486113 1.84775e-14)
(978.322 0.468144 1.70919e-14)
(978.332 0.450315 1.76036e-14)
(978.342 0.432722 1.76771e-14)
(978.352 0.415462 1.85795e-14)
(978.362 0.398632 1.77609e-14)
(978.371 0.382327 1.96769e-14)
(978.379 0.366631 1.81082e-14)
(978.387 0.351618 1.62071e-14)
(978.395 0.337343 1.58224e-14)
(978.402 0.323849 1.48509e-14)
(978.408 0.311166 1.69349e-14)
(978.414 0.29931 1.50258e-14)
(978.419 0.288291 1.50217e-14)
(978.424 0.278097 1.66337e-14)
(978.428 0.268715 1.78237e-14)
(978.432 0.26015 1.62789e-14)
(978.435 0.252391 1.93414e-14)
(978.438 0.245431 1.98072e-14)
(978.44 0.239271 1.54202e-14)
(978.442 0.233876 1.46059e-14)
(978.443 0.229238 1.40761e-14)
(978.444 0.225353 1.56497e-14)
(978.445 0.222175 1.78448e-14)
(978.445 0.219692 1.31343e-14)
(978.445 0.217836 1.45275e-14)
(978.445 0.216669 1.49781e-14)
(978.444 0.216272 1.60497e-14)
(978.443 0.21635 1.66767e-14)
(978.442 0.216674 1.65585e-14)
(978.441 0.21733 1.65418e-14)
(978.44 0.218413 1.70772e-14)
(978.438 0.219901 1.49558e-14)
(978.436 0.221739 1.6023e-14)
(978.435 0.22388 1.57188e-14)
(978.433 0.226282 1.41741e-14)
(978.431 0.228911 1.67689e-14)
(978.429 0.231737 1.71962e-14)
(978.427 0.234733 1.44986e-14)
(978.424 0.237879 1.48393e-14)
(978.422 0.241153 1.75544e-14)
(978.42 0.244536 1.65273e-14)
(978.417 0.248009 1.65944e-14)
(978.415 0.251557 1.53023e-14)
(978.413 0.255166 1.77478e-14)
(978.41 0.25883 1.76674e-14)
(978.408 0.262546 1.4579e-14)
(978.405 0.266317 1.48145e-14)
(978.403 0.270147 1.66016e-14)
(978.4 0.274045 1.49248e-14)
(978.397 0.278019 1.59539e-14)
(978.395 0.28208 1.45125e-14)
(978.392 0.286234 1.4238e-14)
(978.389 0.290492 1.63573e-14)
(978.386 0.294859 1.65268e-14)
(978.383 0.299342 1.4815e-14)
(978.38 0.303945 1.39204e-14)
(978.377 0.308673 1.71821e-14)
(978.373 0.313528 1.63432e-14)
(978.37 0.318512 1.49101e-14)
(978.367 0.323625 1.48018e-14)
(978.363 0.328868 1.55455e-14)
(978.359 0.334239 1.55031e-14)
(978.356 0.339734 1.4133e-14)
(978.352 0.345352 1.40039e-14)
(978.348 0.351089 1.42135e-14)
(977.682 1.21076 3.08973e-14)
(977.649 1.26452 3.21915e-14)
(977.618 1.31778 2.77235e-14)
(977.588 1.37028 2.87914e-14)
(977.56 1.42171 2.88161e-14)
(977.533 1.47179 2.7668e-14)
(977.507 1.52027 3.01458e-14)
(977.483 1.56691 2.91209e-14)
(977.462 1.61152 2.62729e-14)
(977.442 1.65387 2.60865e-14)
(977.425 1.69373 2.81666e-14)
(977.409 1.73086 2.71002e-14)
(977.396 1.76502 2.65048e-14)
(977.386 1.79599 2.62206e-14)
(977.378 1.82356 2.67773e-14)
(977.373 1.84749 2.46404e-14)
(977.37 1.86749 2.53243e-14)
(977.371 1.88337 2.6071e-14)
(977.373 1.89517 2.62512e-14)
(977.379 1.90253 2.5806e-14)
(977.389 1.90494 2.56548e-14)
(977.397 1.90387 2.7978e-14)
(977.409 1.89946 2.78107e-14)
(977.424 1.89066 2.61957e-14)
(977.441 1.87771 2.53682e-14)
(977.46 1.86087 2.63488e-14)
(977.482 1.84029 2.8082e-14)
(977.504 1.81613 2.50029e-14)
(977.529 1.78859 2.35337e-14)
(977.555 1.75791 2.56058e-14)
(977.582 1.72437 2.56655e-14)
(977.609 1.68825 2.56656e-14)
(977.638 1.64981 2.5017e-14)
(977.667 1.60936 2.68853e-14)
(977.697 1.56721 2.59919e-14)
(977.727 1.52371 2.62437e-14)
(977.757 1.47919 2.64855e-14)
(977.786 1.43394 2.45342e-14)
(977.815 1.38821 2.45891e-14)
(977.844 1.34223 2.34308e-14)
(977.873 1.29624 2.55669e-14)
(977.9 1.25047 2.64445e-14)
(977.927 1.20516 2.40877e-14)
(977.953 1.16052 2.56895e-14)
(977.978 1.11675 2.58635e-14)
(978.001 1.07399 2.39273e-14)
(978.024 1.03238 2.35233e-14)
(978.045 0.992063 2.47748e-14)
(978.066 0.953172 2.74357e-14)
(978.085 0.915862 2.25867e-14)
(978.102 0.880287 2.11667e-14)
(978.119 0.846595 2.12195e-14)
(978.134 0.814921 2.27254e-14)
(978.147 0.78538 2.51167e-14)
(978.159 0.758095 2.18583e-14)
(978.17 0.733173 2.26052e-14)
(978.179 0.710599 2.53096e-14)
(978.187 0.690363 2.5318e-14)
(978.193 0.67249 2.37096e-14)
(978.198 0.65686 2.32084e-14)
(978.202 0.643452 2.40258e-14)
(978.205 0.632245 2.11773e-14)
(978.206 0.622973 2.00778e-14)
(978.207 0.615718 2.08584e-14)
(978.206 0.610201 2.07391e-14)
(978.205 0.606159 2.09797e-14)
(978.203 0.604356 2.05237e-14)
(978.2 0.604285 2.07288e-14)
(978.198 0.604926 2.08709e-14)
(978.195 0.606407 2.12294e-14)
(978.191 0.609071 2.21396e-14)
(978.186 0.612897 2.18314e-14)
(978.181 0.617758 2.2198e-14)
(978.176 0.62352 2.18712e-14)
(978.17 0.630069 1.99968e-14)
(978.165 0.63731 2.0511e-14)
(978.159 0.645153 2.28335e-14)
(978.153 0.653512 2.23419e-14)
(978.146 0.662308 2.26472e-14)
(978.14 0.671477 2.42158e-14)
(978.133 0.680973 2.24847e-14)
(978.126 0.690773 2.09e-14)
(978.12 0.70087 1.98291e-14)
(978.113 0.711269 2.11125e-14)
(978.106 0.721981 2.2221e-14)
(978.098 0.733015 1.89417e-14)
(978.091 0.744383 2.12253e-14)
(978.083 0.756093 2.38755e-14)
(978.075 0.768153 2.2293e-14)
(978.066 0.780569 1.99439e-14)
(978.058 0.793352 2.07528e-14)
(978.049 0.806512 2.01926e-14)
(978.04 0.820063 2.12175e-14)
(978.031 0.83402 2.18726e-14)
(978.021 0.848398 1.93762e-14)
(978.011 0.863212 1.95502e-14)
(978.001 0.878476 2.40278e-14)
(977.99 0.8942 2.25625e-14)
(977.98 0.91039 1.98071e-14)
(977.969 0.927052 2.17363e-14)
(977.957 0.944182 2.12882e-14)
(977.946 0.961778 2.02848e-14)
(977.934 0.979829 2.16613e-14)
(977.922 0.998324 2.04506e-14)
(977.909 1.01724 1.90787e-14)
(977.897 1.03656 1.98579e-14)
(976.419 2.88869 3.81248e-14)
(976.335 3.02749 3.91946e-14)
(976.254 3.16523 3.83223e-14)
(976.176 3.30121 3.74635e-14)
(976.101 3.4348 3.87102e-14)
(976.029 3.56543 3.59806e-14)
(975.962 3.69251 3.65995e-14)
(975.898 3.8154 3.94994e-14)
(975.84 3.93338 4.02684e-14)
(975.786 4.04568 3.86843e-14)
(975.738 4.15157 3.57491e-14)
(975.696 4.25041 3.58502e-14)
(975.66 4.34155 3.63367e-14)
(975.631 4.42442 3.37318e-14)
(975.607 4.49846 3.44681e-14)
(975.591 4.56319 3.71979e-14)
(975.581 4.6184 3.54188e-14)
(975.578 4.66402 3.72294e-14)
(975.582 4.7 3.60002e-14)
(975.592 4.72652 3.39908e-14)
(975.609 4.74261 3.37143e-14)
(975.636 4.74583 3.36948e-14)
(975.658 4.7387 3.6543e-14)
(975.688 4.72637 3.72333e-14)
(975.727 4.70347 3.37824e-14)
(975.771 4.67059 3.28308e-14)
(975.82 4.62839 3.28837e-14)
(975.873 4.5774 2.93369e-14)
(975.93 4.51807 2.98843e-14)
(975.99 4.45085 3.23626e-14)
(976.054 4.37617 3.24936e-14)
(976.12 4.29451 3.25585e-14)
(976.188 4.20647 3.26587e-14)
(976.258 4.11272 3.22725e-14)
(976.33 4.01389 3.31862e-14)
(976.402 3.9106 3.26781e-14)
(976.475 3.8034 3.42498e-14)
(976.548 3.69292 3.36287e-14)
(976.622 3.5799 2.92404e-14)
(976.694 3.46511 3.02924e-14)
(976.766 3.34937 3.32592e-14)
(976.836 3.23344 3.32115e-14)
(976.905 3.11803 3.11974e-14)
(976.971 3.0038 3.0784e-14)
(977.035 2.89139 3.27739e-14)
(977.096 2.78143 3.24074e-14)
(977.155 2.67455 3.17896e-14)
(977.21 2.57134 3.07563e-14)
(977.262 2.47228 2.97701e-14)
(977.31 2.37777 3.10176e-14)
(977.355 2.28804 2.94665e-14)
(977.396 2.20328 2.80631e-14)
(977.433 2.12362 2.853e-14)
(977.467 2.04916 3.20557e-14)
(977.497 1.97996 3.18198e-14)
(977.524 1.91604 3.03528e-14)
(977.547 1.85731 3.05006e-14)
(977.567 1.80394 3.143e-14)
(977.584 1.75618 3.08169e-14)
(977.598 1.71372 2.91773e-14)
(977.608 1.67675 2.93685e-14)
(977.616 1.64545 3.10169e-14)
(977.62 1.619 2.91126e-14)
(977.622 1.59806 2.78775e-14)
(977.622 1.58252 2.9655e-14)
(977.619 1.57048 2.80935e-14)
(977.613 1.56445 2.51298e-14)
(977.604 1.56433 2.62753e-14)
(977.599 1.56614 2.67155e-14)
(977.59 1.57011 2.81361e-14)
(977.578 1.57754 2.82979e-14)
(977.565 1.58843 2.8271e-14)
(977.55 1.60237 2.95632e-14)
(977.535 1.61898 2.79315e-14)
(977.519 1.63792 2.68481e-14)
(977.502 1.65892 2.77049e-14)
(977.485 1.68172 2.72409e-14)
(977.467 1.7061 2.78852e-14)
(977.449 1.73189 2.82639e-14)
(977.43 1.75898 2.85153e-14)
(977.41 1.78723 2.98576e-14)
(977.391 1.81654 2.84181e-14)
(977.37 1.84677 2.60829e-14)
(977.35 1.8778 2.57096e-14)
(977.329 1.90952 2.79595e-14)
(977.308 1.94184 2.88445e-14)
(977.286 1.97469 2.76403e-14)
(977.264 2.00807 2.78242e-14)
(977.241 2.04198 2.90025e-14)
(977.218 2.07646 2.71844e-14)
(977.195 2.11157 2.77248e-14)
(977.171 2.14738 2.93468e-14)
(977.146 2.18397 2.66454e-14)
(977.121 2.22141 2.63503e-14)
(977.095 2.25979 2.68621e-14)
(977.068 2.29918 2.48751e-14)
(977.04 2.33963 2.61603e-14)
(977.012 2.38121 2.73508e-14)
(976.983 2.42397 2.47616e-14)
(976.953 2.46797 2.6212e-14)
(976.922 2.51324 2.68479e-14)
(976.891 2.55983 2.47955e-14)
(976.858 2.60776 2.65033e-14)
(976.825 2.65705 2.80527e-14)
(976.791 2.70771 2.65266e-14)
(976.757 2.75975 2.58684e-14)
(976.721 2.81317 2.78694e-14)
(973.419 6.9101 4.65726e-14)
(973.234 7.22056 4.53651e-14)
(973.056 7.52829 4.53682e-14)
(972.884 7.83172 4.38831e-14)
(972.721 8.12917 4.5193e-14)
(972.566 8.41894 4.59834e-14)
(972.421 8.69934 4.847e-14)
(972.286 8.96895 4.63421e-14)
(972.163 9.22667 4.6374e-14)
(972.051 9.47154 4.6001e-14)
(971.951 9.70253 4.29212e-14)
(971.865 9.91846 4.44495e-14)
(971.791 10.1182 4.35873e-14)
(971.731 10.3006 4.25164e-14)
(971.685 10.4647 4.45273e-14)
(971.653 10.6094 4.21314e-14)
(971.636 10.7336 4.02612e-14)
(971.635 10.8352 4.1321e-14)
(971.648 10.9134 4.12705e-14)
(971.677 10.9703 4.14339e-14)
(971.723 11.0031 4.06851e-14)
(971.788 11.0052 4.1918e-14)
(971.838 10.9906 4.34721e-14)
(971.914 10.9594 4.12705e-14)
(972.007 10.9038 3.72869e-14)
(972.112 10.8253 3.84356e-14)
(972.228 10.7254 3.82679e-14)
(972.353 10.6052 3.79798e-14)
(972.487 10.4656 4.01662e-14)
(972.628 10.3079 3.97032e-14)
(972.776 10.1336 4.00725e-14)
(972.929 9.94436 4.0301e-14)
(973.087 9.74161 4.05468e-14)
(973.248 9.52675 3.9765e-14)
(973.411 9.30132 4.17083e-14)
(973.575 9.06715 4.04979e-14)
(973.74 8.82605 3.94101e-14)
(973.905 8.57965 3.78549e-14)
(974.067 8.32927 3.76301e-14)
(974.228 8.07612 3.95166e-14)
(974.385 7.82136 3.89004e-14)
(974.54 7.56622 3.87301e-14)
(974.69 7.31193 3.86951e-14)
(974.835 7.05974 3.79033e-14)
(974.976 6.81088 4.01218e-14)
(975.11 6.56646 3.90463e-14)
(975.238 6.32745 3.775e-14)
(975.36 6.09482 3.71763e-14)
(975.476 5.86956 3.65812e-14)
(975.583 5.65282 3.8767e-14)
(975.684 5.44581 3.64771e-14)
(975.776 5.24968 3.39176e-14)
(975.859 5.06543 3.6622e-14)
(975.934 4.89388 3.91759e-14)
(976.001 4.73563 4.10009e-14)
(976.058 4.59117 3.93932e-14)
(976.106 4.4611 3.72929e-14)
(976.146 4.34522 3.37401e-14)
(976.178 4.24251 3.43721e-14)
(976.202 4.15367 3.59482e-14)
(976.218 4.07884 3.64361e-14)
(976.227 4.01551 3.50601e-14)
(976.23 3.96533 3.58204e-14)
(976.226 3.92845 3.81584e-14)
(976.217 3.89917 3.26742e-14)
(976.201 3.88362 3.46765e-14)
(976.178 3.88273 3.84559e-14)
(976.163 3.88693 3.43516e-14)
(976.139 3.8966 3.26061e-14)
(976.108 3.91464 3.54131e-14)
(976.074 3.94106 3.47807e-14)
(976.037 3.97515 3.24479e-14)
(975.998 4.01611 3.37255e-14)
(975.957 4.06313 3.4318e-14)
(975.913 4.11555 3.43738e-14)
(975.869 4.17274 3.40382e-14)
(975.822 4.2342 3.42591e-14)
(975.775 4.29939 3.50006e-14)
(975.726 4.36782 3.40575e-14)
(975.676 4.43896 3.1456e-14)
(975.625 4.51241 3.16788e-14)
(975.574 4.58786 3.44593e-14)
(975.522 4.66518 3.48875e-14)
(975.469 4.74435 3.35044e-14)
(975.415 4.82545 3.29476e-14)
(975.36 4.90859 3.22554e-14)
(975.303 4.99392 3.27201e-14)
(975.245 5.08157 3.37988e-14)
(975.185 5.17169 3.38146e-14)
(975.124 5.26439 3.26423e-14)
(975.06 5.35983 3.37592e-14)
(974.994 5.45814 3.18396e-14)
(974.927 5.55946 3.21416e-14)
(974.856 5.66397 3.40806e-14)
(974.784 5.77185 3.31943e-14)
(974.709 5.88329 3.06858e-14)
(974.632 5.99846 3.10553e-14)
(974.552 6.11754 3.26646e-14)
(974.469 6.24069 3.06036e-14)
(974.383 6.36804 3.13643e-14)
(974.295 6.49971 3.34121e-14)
(974.204 6.63577 3.25752e-14)
(974.111 6.77625 3.33467e-14)
(974.015 6.92119 3.21874e-14)
(973.916 7.07055 3.02532e-14)
(973.814 7.22426 3.07817e-14)
(973.711 7.38218 3.34658e-14)
(968.087 13.7309 5.35028e-14)
(967.641 14.4449 5.37804e-14)
(967.201 15.1647 5.37902e-14)
(966.772 15.8846 5.0324e-14)
(966.356 16.5988 5.10454e-14)
(965.957 17.3026 5.10721e-14)
(965.578 17.9921 5.25241e-14)
(965.219 18.6636 5.48282e-14)
(964.882 19.3143 5.34562e-14)
(964.569 19.9416 5.31809e-14)
(964.28 20.5429 4.9999e-14)
(964.017 21.1148 5.2051e-14)
(963.782 21.6539 5.45517e-14)
(963.576 22.1573 5.05982e-14)
(963.4 22.6227 4.98115e-14)
(963.255 23.0481 5.00423e-14)
(963.141 23.4314 4.97484e-14)
(963.06 23.7704 5.01655e-14)
(963.011 24.063 4.91382e-14)
(962.996 24.3087 4.88407e-14)
(963.014 24.5071 4.79329e-14)
(963.062 24.6587 4.79859e-14)
(963.145 24.7649 4.80666e-14)
(963.265 24.8133 4.63397e-14)
(963.416 24.7912 4.78799e-14)
(963.54 24.7427 4.96442e-14)
(963.721 24.6567 4.87616e-14)
(963.938 24.519 4.78198e-14)
(964.18 24.3335 4.81926e-14)
(964.442 24.1031 4.71316e-14)
(964.723 23.8298 4.65298e-14)
(965.021 23.5162 4.63302e-14)
(965.335 23.1645 4.83456e-14)
(965.662 22.7765 4.90111e-14)
(966.001 22.3543 4.74123e-14)
(966.349 21.9011 4.52692e-14)
(966.705 21.4208 4.37715e-14)
(967.066 20.9164 4.49561e-14)
(967.431 20.3908 4.5269e-14)
(967.797 19.8471 4.54831e-14)
(968.162 19.2889 4.57587e-14)
(968.526 18.7201 4.61675e-14)
(968.884 18.145 4.43614e-14)
(969.236 17.5673 4.48474e-14)
(969.579 16.9908 4.6509e-14)
(969.912 16.4192 4.6468e-14)
(970.232 15.8558 4.56408e-14)
(970.539 15.3039 4.61423e-14)
(970.83 14.7663 4.71261e-14)
(971.105 14.2459 4.61901e-14)
(971.363 13.7451 4.35155e-14)
(971.603 13.2658 4.33072e-14)
(971.825 12.8094 4.3705e-14)
(972.028 12.3766 4.34797e-14)
(972.212 11.9681 4.52747e-14)
(972.378 11.5847 4.13468e-14)
(972.526 11.2272 4.0518e-14)
(972.655 10.8967 4.56807e-14)
(972.766 10.5939 4.44156e-14)
(972.859 10.3187 4.11575e-14)
(972.935 10.072 4.17704e-14)
(972.993 9.85727 4.34865e-14)
(973.032 9.67354 4.05105e-14)
(973.055 9.51649 4.18059e-14)
(973.062 9.3932 4.18029e-14)
(973.05 9.30265 4.04869e-14)
(973.028 9.23135 4.70971e-14)
(972.988 9.19477 4.26431e-14)
(972.927 9.19592 4.2845e-14)
(972.887 9.20805 4.28242e-14)
(972.824 9.23462 4.07957e-14)
(972.746 9.28338 4.0357e-14)
(972.658 9.35376 3.96196e-14)
(972.562 9.44378 4.06518e-14)
(972.461 9.55135 4.16586e-14)
(972.353 9.67451 4.09294e-14)
(972.241 9.81156 4.07539e-14)
(972.124 9.96102 4.10117e-14)
(972.003 10.1215 3.9356e-14)
(971.879 10.2917 4.01338e-14)
(971.752 10.4707 3.94294e-14)
(971.622 10.6576 3.93332e-14)
(971.49 10.8519 3.76684e-14)
(971.354 11.0533 3.7839e-14)
(971.216 11.2613 4.07821e-14)
(971.076 11.4753 3.9803e-14)
(970.932 11.6947 4.01444e-14)
(970.786 11.9189 3.84008e-14)
(970.637 12.1474 3.68498e-14)
(970.485 12.3801 3.675e-14)
(970.33 12.6167 3.71589e-14)
(970.172 12.8574 3.85224e-14)
(970.011 13.1024 3.8275e-14)
(969.845 13.3519 3.57701e-14)
(969.676 13.6064 3.77766e-14)
(969.502 13.8664 4.02899e-14)
(969.323 14.1323 3.87198e-14)
(969.139 14.4047 4.01528e-14)
(968.95 14.684 3.80388e-14)
(968.755 14.9708 3.71147e-14)
(968.554 15.2654 3.64858e-14)
(968.348 15.5684 3.67171e-14)
(968.135 15.88 3.86966e-14)
(967.916 16.2008 3.72508e-14)
(967.691 16.5311 3.95832e-14)
(967.46 16.8713 3.79877e-14)
(967.222 17.2216 3.81909e-14)
(966.978 17.5824 3.66062e-14)
(966.728 17.9539 3.50468e-14)
(966.471 18.3365 3.70277e-14)
(955.467 30.4525 5.93533e-14)
(954.586 31.875 6.09792e-14)
(953.733 33.2868 6.07482e-14)
(952.914 34.6844 5.86053e-14)
(952.132 36.0631 6.06151e-14)
(951.391 37.4155 6.07695e-14)
(950.693 38.7334 6.05505e-14)
(950.043 40.009 5.86445e-14)
(949.441 41.2348 6.09025e-14)
(948.892 42.4035 6.0043e-14)
(948.398 43.5093 5.85814e-14)
(947.96 44.5493 6.10676e-14)
(947.578 45.5215 6.07072e-14)
(947.254 46.4234 5.72348e-14)
(946.987 47.2518 5.48861e-14)
(946.777 48.0038 5.7061e-14)
(946.625 48.6785 6.00375e-14)
(946.531 49.2737 5.88395e-14)
(946.497 49.7869 5.7066e-14)
(946.525 50.2121 5.41668e-14)
(946.617 50.5365 5.51795e-14)
(946.769 50.7727 5.44914e-14)
(946.987 50.9296 5.73791e-14)
(947.295 50.9726 5.78079e-14)
(947.559 50.8915 5.49006e-14)
(947.861 50.7856 5.50199e-14)
(948.257 50.5871 5.66237e-14)
(948.71 50.2951 5.68224e-14)
(949.206 49.9138 5.38716e-14)
(949.74 49.4493 5.04083e-14)
(950.307 48.9069 5.04885e-14)
(950.905 48.2893 5.47285e-14)
(951.53 47.6008 5.42647e-14)
(952.177 46.849 5.01715e-14)
(952.841 46.0406 5.11928e-14)
(953.519 45.1795 5.25202e-14)
(954.207 44.2693 5.17178e-14)
(954.903 43.3164 5.13421e-14)
(955.601 42.3281 5.10371e-14)
(956.298 41.3107 5.30036e-14)
(956.992 40.2686 5.23968e-14)
(957.678 39.2062 5.12012e-14)
(958.356 38.1281 5.10227e-14)
(959.021 37.0401 5.22019e-14)
(959.671 35.9473 5.16414e-14)
(960.303 34.8549 5.1604e-14)
(960.915 33.7682 5.35676e-14)
(961.503 32.6931 5.27807e-14)
(962.066 31.6356 5.06181e-14)
(962.6 30.6011 5.09811e-14)
(963.105 29.5956 5.02177e-14)
(963.576 28.6254 5.13001e-14)
(964.012 27.6971 4.84363e-14)
(964.41 26.8175 5.1157e-14)
(964.768 25.9923 5.08833e-14)
(965.084 25.226 4.83025e-14)
(965.357 24.5214 5.02229e-14)
(965.587 23.881 4.8678e-14)
(965.775 23.3058 5.04421e-14)
(965.922 22.7979 5.08505e-14)
(966.026 22.3575 4.89675e-14)
(966.094 21.9765 5.03052e-14)
(966.126 21.6542 4.88364e-14)
(966.119 21.4064 4.84373e-14)
(966.077 21.2184 4.49752e-14)
(966.011 21.0705 5.02606e-14)
(965.9 21.0032 5.04402e-14)
(965.764 21.0117 4.68479e-14)
(965.664 21.041 4.92078e-14)
(965.506 21.1067 4.95981e-14)
(965.319 21.2198 4.69545e-14)
(965.113 21.3795 4.59388e-14)
(964.89 21.5821 4.64833e-14)
(964.653 21.8231 4.82876e-14)
(964.404 22.0989 4.58567e-14)
(964.144 22.4064 4.58932e-14)
(963.873 22.7424 4.72975e-14)
(963.594 23.1041 4.61007e-14)
(963.308 23.4888 4.56067e-14)
(963.014 23.8942 4.50729e-14)
(962.715 24.318 4.39903e-14)
(962.41 24.758 4.47252e-14)
(962.1 25.2117 4.59359e-14)
(961.785 25.677 4.53236e-14)
(961.467 26.1524 4.62688e-14)
(961.145 26.6372 4.69175e-14)
(960.818 27.131 4.5188e-14)
(960.486 27.6343 4.18312e-14)
(960.147 28.1476 4.26897e-14)
(959.802 28.6717 4.31279e-14)
(959.449 29.2074 4.38382e-14)
(959.087 29.7556 4.27944e-14)
(958.715 30.3174 4.47e-14)
(958.332 30.8937 4.20085e-14)
(957.938 31.4856 4.31096e-14)
(957.531 32.0939 4.27079e-14)
(957.111 32.7198 4.33702e-14)
(956.678 33.3643 4.3037e-14)
(956.231 34.0285 4.12255e-14)
(955.769 34.7137 4.35716e-14)
(955.292 35.421 4.34487e-14)
(954.798 36.1516 4.25478e-14)
(954.289 36.9068 4.15224e-14)
(953.762 37.6874 4.08616e-14)
(953.219 38.4943 4.25622e-14)
(952.659 39.3281 4.11813e-14)
(952.082 40.1896 4.23117e-14)
(951.489 41.079 4.17803e-14)
(950.878 41.9959 4.1727e-14)
(950.252 42.9401 4.01024e-14)
(931.807 61.8683 6.86633e-14)
(930.263 64.4696 6.7742e-14)
(928.765 67.0655 6.69802e-14)
(927.328 69.6351 6.81275e-14)
(925.97 72.1523 6.91287e-14)
(924.706 74.5941 6.65157e-14)
(923.542 76.9433 6.51335e-14)
(922.482 79.1869 6.76092e-14)
(921.527 81.316 6.86727e-14)
(920.677 83.3262 6.78271e-14)
(919.932 85.2131 6.6602e-14)
(919.293 86.967 6.50449e-14)
(918.764 88.5795 6.57928e-14)
(918.342 90.0471 6.35806e-14)
(918.025 91.3683 6.44509e-14)
(917.81 92.5447 6.4872e-14)
(917.693 93.579 6.43429e-14)
(917.674 94.4721 6.39957e-14)
(917.755 95.223 6.27466e-14)
(917.937 95.8204 6.28475e-14)
(918.226 96.2787 6.53272e-14)
(918.622 96.6166 6.14691e-14)
(919.107 96.771 6.14236e-14)
(919.714 96.7112 6.13366e-14)
(920.191 96.5093 6.12519e-14)
(920.824 96.271 6.1051e-14)
(921.597 95.8706 5.94074e-14)
(922.447 95.3148 5.94947e-14)
(923.357 94.6198 6.13121e-14)
(924.323 93.7881 5.6611e-14)
(925.344 92.8232 5.81463e-14)
(926.412 91.7365 5.81424e-14)
(927.52 90.5356 5.94509e-14)
(928.666 89.2191 5.98469e-14)
(929.846 87.7913 5.88777e-14)
(931.05 86.2681 5.86082e-14)
(932.27 84.663 5.81866e-14)
(933.502 82.9809 5.77678e-14)
(934.743 81.2269 5.73123e-14)
(935.985 79.4135 5.77367e-14)
(937.22 77.5558 5.8883e-14)
(938.441 75.6665 5.79179e-14)
(939.643 73.7554 5.75786e-14)
(940.819 71.8315 5.54158e-14)
(941.963 69.9063 5.41166e-14)
(943.067 67.9936 5.65336e-14)
(944.126 66.1054 5.78783e-14)
(945.133 64.2515 5.50845e-14)
(946.086 62.4407 5.51133e-14)
(946.979 60.6817 5.74403e-14)
(947.81 58.9817 5.88912e-14)
(948.576 57.3466 5.86539e-14)
(949.276 55.7812 5.52121e-14)
(949.909 54.2904 5.6379e-14)
(950.473 52.8797 5.7418e-14)
(950.967 51.5567 5.67059e-14)
(951.388 50.33 5.4751e-14)
(951.736 49.208 5.42533e-14)
(952.008 48.1978 5.46719e-14)
(952.206 47.3017 5.80447e-14)
(952.333 46.5211 5.50909e-14)
(952.381 45.8761 5.44532e-14)
(952.345 45.3761 5.53625e-14)
(952.238 44.9788 5.51041e-14)
(952.077 44.698 5.30406e-14)
(951.794 44.5963 5.51959e-14)
(951.508 44.6424 5.40806e-14)
(951.263 44.7142 5.42055e-14)
(950.899 44.8716 5.44166e-14)
(950.479 45.1328 5.27496e-14)
(950.02 45.4936 5.40402e-14)
(949.528 45.9433 5.40972e-14)
(949.006 46.4732 5.33101e-14)
(948.458 47.0768 5.44545e-14)
(947.886 47.7472 4.95043e-14)
(947.296 48.4768 4.92283e-14)
(946.689 49.2588 5.19385e-14)
(946.067 50.0881 5.02082e-14)
(945.434 50.9596 5.05975e-14)
(944.79 51.8681 5.18731e-14)
(944.136 52.809 4.98645e-14)
(943.474 53.7793 5.06863e-14)
(942.803 54.7774 5.18089e-14)
(942.123 55.8019 5.28348e-14)
(941.433 56.8514 5.00743e-14)
(940.733 57.9242 4.96737e-14)
(940.023 59.0184 5.01017e-14)
(939.301 60.1324 5.28704e-14)
(938.569 61.265 5.17475e-14)
(937.824 62.4155 5.02709e-14)
(937.065 63.5836 4.91325e-14)
(936.293 64.7694 5.05597e-14)
(935.505 65.9734 4.93844e-14)
(934.7 67.1965 4.72238e-14)
(933.878 68.4398 4.81327e-14)
(933.038 69.7046 4.84187e-14)
(932.179 70.9921 4.90567e-14)
(931.299 72.3033 4.55647e-14)
(930.4 73.6388 4.5088e-14)
(929.48 74.9998 4.68583e-14)
(928.539 76.3876 4.57633e-14)
(927.575 77.8036 4.58695e-14)
(926.589 79.2493 4.76558e-14)
(925.58 80.7258 4.60677e-14)
(924.548 82.2344 4.62133e-14)
(923.493 83.7761 4.48881e-14)
(922.414 85.3514 4.39578e-14)
(921.314 86.9614 4.56852e-14)