/*--------------------------------*- C++ -*----------------------------------*\
| =========                 |                                                 |
| \\      /  F ield         | OpenFOAM: The Open Source CFD Toolbox           |
|  \\    /   O peration     | Version:  v1706                                 |
|   \\  /    A nd           | Web:      www.OpenFOAM.com                      |
|    \\/     M anipulation  |                                                 |
\*---------------------------------------------------------------------------*/
FoamFile
{
    version     2.0;
    format      ascii;
    class       volScalarField;
    location    "1.6e-05";
    object      wallHeatFlux;
}
// * * * * * * * * * * * * * * * * * * * * * * * * * * * * * * * * * * * * * //

dimensions      [1 0 -3 0 0 0 0];


internalField   uniform 0;

boundaryField
{
    cone
    {
        type            calculated;
        value           nonuniform List<scalar> 
181
(
2363.23
2341.78
2325.92
2316.62
2313.59
2316.56
2325.7
2341.08
2362.55
2390.16
2423.94
2463.78
2509.73
2561.78
2619.85
2683.84
2753.64
2829.12
2910.13
2996.49
3088
3184.44
3285.53
3390.99
3500.49
3613.64
3730.06
3849.3
3970.87
4094.27
4218.96
4344.36
4469.89
4594.93
4718.87
4841.1
4961.03
5078.08
5191.73
5301.49
5406.97
5507.82
5603.82
5694.82
5780.78
5861.77
5937.92
6009.49
6076.82
6140.33
6200.53
6257.98
6313.26
6366.96
6419.67
6471.96
6524.37
6577.42
6631.54
6687.16
6744.63
6804.21
6866.13
6930.53
6997.54
7067.2
7139.52
7214.49
7292.04
7372.09
7454.53
7539.25
7626.14
7715.05
7805.88
7898.49
7992.78
8088.65
8186
8284.77
8384.88
8486.3
8588.99
8692.95
8798.16
8904.64
9012.41
9121.5
9231.96
9343.83
9457.17
9572.04
9688.52
9806.65
9926.53
10048.2
10171.8
10297.4
10425
10554.7
10686.6
10820.9
10957.5
11096.6
11238.3
11382.7
11529.9
11679.9
11832.9
11989
12148.4
12311.2
12477.4
12647.3
12821.1
12998.8
13180.6
13366.8
13557.6
13753.1
13953.5
14159.2
14370.2
14587
14809.8
15038.9
15274.5
15517
15766.8
16024.2
16289.5
16563.3
16845.8
17137.5
17438.9
17750.3
18072.1
18404.9
18749.1
19104.9
19472.7
19852.7
20245.2
20650.1
21067.2
21496.1
21936.1
22386.1
22844.5
23309.1
23776.9
24244.2
24706.2
25156.7
25588.5
25992.5
26358.4
26674
26925.9
27099.3
27178.5
27148
26992.8
26700.5
26263.5
25683.4
24951.8
24070.5
23048.7
21901.6
20648.6
19313.6
17923.5
16503.6
15078.7
13671.5
12302.1
10987
9738.91
8567.15
7477.57
)
;
    }
    inlet
    {
        type            calculated;
        value           uniform 0;
    }
    rWedge
    {
        type            wedge;
    }
    lWedge
    {
        type            wedge;
    }
    outlet
    {
        type            calculated;
        value           nonuniform 0();
    }
    procBoundary1to0
    {
        type            processor;
        value           uniform 0;
    }
    procBoundary1to2
    {
        type            processor;
        value           uniform 0;
    }
}


// ************************************************************************* //
