/*--------------------------------*- C++ -*----------------------------------*\
| =========                 |                                                 |
| \\      /  F ield         | OpenFOAM: The Open Source CFD Toolbox           |
|  \\    /   O peration     | Version:  v1706                                 |
|   \\  /    A nd           | Web:      www.OpenFOAM.com                      |
|    \\/     M anipulation  |                                                 |
\*---------------------------------------------------------------------------*/
FoamFile
{
    version     2.0;
    format      ascii;
    class       volScalarField;
    location    "3.5e-05";
    object      kappatr;
}
// * * * * * * * * * * * * * * * * * * * * * * * * * * * * * * * * * * * * * //

dimensions      [1 1 -3 -1 0 0 0];


internalField   nonuniform List<scalar> 
29871
(
0.014593
0.014593
0.014593
0.014593
0.014593
0.014593
0.014593
0.014593
0.014593
0.014593
0.014593
0.014593
0.014593
0.014593
0.014593
0.014593
0.014593
0.014593
0.014593
0.014593
0.014593
0.014593
0.014593
0.014593
0.014593
0.014593
0.014593
0.014593
0.014593
0.014593
0.014593
0.014593
0.014593
0.014593
0.014593
0.014593
0.014593
0.014593
0.014593
0.014593
0.014593
0.014593
0.014593
0.014593
0.014593
0.014593
0.014593
0.014593
0.014593
0.014593
0.014593
0.014593
0.014593
0.014593
0.014593
0.014593
0.014593
0.014593
0.014593
0.014593
0.014593
0.014593
0.014593
0.014593
0.014593
0.014593
0.014593
0.014593
0.014593
0.014593
0.014593
0.014593
0.014593
0.014593
0.014593
0.014593
0.014593
0.014593
0.014593
0.014593
0.014593
0.014593
0.014593
0.014593
0.014593
0.014593
0.014593
0.014593
0.014593
0.014593
0.014593
0.014593
0.014593
0.014593
0.014593
0.014593
0.014593
0.014593
0.014593
0.014593
0.014593
0.014593
0.014593
0.014593
0.014593
0.014593
0.014593
0.014593
0.014593
0.014593
0.014593
0.014593
0.014593
0.014593
0.014593
0.014593
0.014593
0.014593
0.014593
0.014593
0.014593
0.014593
0.014593
0.014593
0.014593
0.014593
0.014593
0.014593
0.014593
0.014593
0.014593
0.014593
0.014593
0.014593
0.014593
0.014593
0.014593
0.014593
0.014593
0.014593
0.014593
0.014593
0.014593
0.014593
0.014593
0.014593
0.014593
0.014593
0.014593
0.014593
0.014593
0.014593
0.014593
0.014593
0.014593
0.014593
0.014593
0.014593
0.014593
0.014593
0.014593
0.014593
0.014593
0.014593
0.014593
0.014593
0.014593
0.014593
0.014593
0.014593
0.014593
0.014593
0.014593
0.014593
0.014593
0.014593
0.014593
0.014593
0.014593
0.014593
0.014593
0.014593
0.014593
0.014593
0.014593
0.014593
0.014593
0.014593
0.014593
0.014593
0.014593
0.014593
0.014593
0.014593
0.014593
0.014593
0.014593
0.014593
0.014593
0.014593
0.014593
0.014593
0.014593
0.014593
0.014593
0.014593
0.014593
0.014593
0.014593
0.014593
0.014593
0.014593
0.014593
0.014593
0.014593
0.014593
0.014593
0.014593
0.014593
0.014593
0.014593
0.014593
0.014593
0.014593
0.014593
0.014593
0.014593
0.014593
0.014593
0.014593
0.014593
0.014593
0.014593
0.014593
0.014593
0.014593
0.014593
0.014593
0.014593
0.014593
0.014593
0.014593
0.014593
0.014593
0.014593
0.014593
0.014593
0.014593
0.014593
0.014593
0.014593
0.014593
0.014593
0.014593
0.014593
0.014593
0.014593
0.014593
0.014593
0.014593
0.014593
0.014593
0.014593
0.014593
0.014593
0.014593
0.014593
0.014593
0.014593
0.014593
0.014593
0.014593
0.014593
0.014593
0.014593
0.014593
0.014593
0.014593
0.014593
0.014593
0.014593
0.014593
0.014593
0.014593
0.014593
0.014593
0.014593
0.014593
0.014593
0.014593
0.014593
0.014593
0.014593
0.014593
0.014593
0.014593
0.014593
0.014593
0.014593
0.014593
0.014593
0.014593
0.014593
0.014593
0.014593
0.014593
0.014593
0.014593
0.014593
0.014593
0.014593
0.014593
0.014593
0.014593
0.014593
0.014593
0.014593
0.014593
0.014593
0.014593
0.014593
0.014593
0.014593
0.014593
0.014593
0.014593
0.014593
0.014593
0.014593
0.014593
0.014593
0.014593
0.014593
0.014593
0.014593
0.014593
0.014593
0.014593
0.014593
0.014593
0.014593
0.014593
0.014593
0.014593
0.014593
0.014593
0.014593
0.014593
0.014593
0.014593
0.014593
0.014593
0.014593
0.014593
0.014593
0.014593
0.014593
0.014593
0.014593
0.014593
0.014593
0.014593
0.014593
0.014593
0.014593
0.014593
0.014593
0.014593
0.014593
0.014593
0.014593
0.014593
0.014593
0.014593
0.014593
0.014593
0.014593
0.014593
0.014593
0.014593
0.014593
0.014593
0.014593
0.014593
0.014593
0.014593
0.014593
0.014593
0.014593
0.014593
0.014593
0.014593
0.014593
0.014593
0.014593
0.014593
0.014593
0.014593
0.014593
0.014593
0.014593
0.014593
0.014593
0.014593
0.014593
0.014593
0.014593
0.014593
0.014593
0.014593
0.014593
0.014593
0.014593
0.014593
0.014593
0.014593
0.014593
0.014593
0.014593
0.014593
0.014593
0.014593
0.014593
0.014593
0.014593
0.014593
0.014593
0.014593
0.014593
0.014593
0.014593
0.014593
0.014593
0.014593
0.014593
0.014593
0.014593
0.014593
0.014593
0.014593
0.014593
0.014593
0.014593
0.014593
0.014593
0.014593
0.014593
0.014593
0.014593
0.014593
0.014593
0.014593
0.014593
0.014593
0.014593
0.014593
0.014593
0.014593
0.014593
0.014593
0.014593
0.014593
0.014593
0.014593
0.014593
0.014593
0.014593
0.014593
0.014593
0.014593
0.014593
0.014593
0.014593
0.014593
0.014593
0.014593
0.014593
0.014593
0.014593
0.014593
0.014593
0.014593
0.014593
0.014593
0.014593
0.014593
0.014593
0.014593
0.014593
0.014593
0.014593
0.014593
0.014593
0.014593
0.014593
0.014593
0.014593
0.014593
0.014593
0.014593
0.014593
0.014593
0.014593
0.014593
0.014593
0.014593
0.014593
0.014593
0.014593
0.014593
0.014593
0.014593
0.014593
0.014593
0.014593
0.014593
0.014593
0.014593
0.014593
0.014593
0.014593
0.014593
0.014593
0.014593
0.014593
0.014593
0.014593
0.014593
0.014593
0.014593
0.014593
0.014593
0.014593
0.014593
0.014593
0.014593
0.014593
0.014593
0.014593
0.014593
0.014593
0.014593
0.014593
0.014593
0.014593
0.014593
0.014593
0.014593
0.014593
0.014593
0.014593
0.014593
0.014593
0.014593
0.014593
0.014593
0.014593
0.014593
0.014593
0.014593
0.014593
0.014593
0.014593
0.014593
0.014593
0.014593
0.014593
0.014593
0.014593
0.014593
0.014593
0.014593
0.014593
0.014593
0.014593
0.014593
0.014593
0.014593
0.014593
0.014593
0.014593
0.014593
0.014593
0.014593
0.014593
0.014593
0.014593
0.014593
0.014593
0.014593
0.014593
0.014593
0.014593
0.014593
0.014593
0.014593
0.014593
0.014593
0.014593
0.014593
0.014593
0.014593
0.014593
0.014593
0.014593
0.014593
0.014593
0.014593
0.014593
0.014593
0.014593
0.014593
0.014593
0.014593
0.014593
0.014593
0.014593
0.014593
0.014593
0.014593
0.014593
0.014593
0.014593
0.014593
0.014593
0.014593
0.014593
0.014593
0.014593
0.014593
0.014593
0.014593
0.014593
0.014593
0.014593
0.014593
0.014593
0.014593
0.014593
0.014593
0.014593
0.014593
0.014593
0.014593
0.014593
0.014593
0.014593
0.014593
0.014593
0.014593
0.014593
0.014593
0.014593
0.014593
0.014593
0.014593
0.014593
0.014593
0.014593
0.014593
0.014593
0.014593
0.014593
0.014593
0.014593
0.014593
0.014593
0.014593
0.014593
0.014593
0.014593
0.014593
0.014593
0.014593
0.014593
0.014593
0.014593
0.014593
0.014593
0.014593
0.014593
0.014593
0.014593
0.014593
0.014593
0.014593
0.014593
0.014593
0.014593
0.014593
0.014593
0.014593
0.014593
0.014593
0.014593
0.014593
0.014593
0.014593
0.014593
0.014593
0.014593
0.014593
0.014593
0.014593
0.014593
0.014593
0.014593
0.014593
0.014593
0.014593
0.014593
0.014593
0.014593
0.014593
0.014593
0.014593
0.014593
0.014593
0.014593
0.014593
0.014593
0.014593
0.014593
0.014593
0.014593
0.014593
0.014593
0.014593
0.014593
0.014593
0.014593
0.014593
0.014593
0.014593
0.014593
0.014593
0.014593
0.014593
0.014593
0.014593
0.014593
0.014593
0.014593
0.014593
0.014593
0.014593
0.014593
0.014593
0.014593
0.014593
0.014593
0.014593
0.014593
0.014593
0.014593
0.014593
0.014593
0.014593
0.014593
0.014593
0.014593
0.014593
0.014593
0.014593
0.014593
0.014593
0.014593
0.014593
0.014593
0.014593
0.014593
0.014593
0.014593
0.014593
0.014593
0.014593
0.014593
0.014593
0.014593
0.014593
0.014593
0.014593
0.014593
0.014593
0.014593
0.014593
0.014593
0.014593
0.014593
0.014593
0.014593
0.014593
0.014593
0.014593
0.014593
0.014593
0.014593
0.014593
0.014593
0.014593
0.014593
0.014593
0.014593
0.014593
0.014593
0.014593
0.014593
0.014593
0.014593
0.014593
0.014593
0.014593
0.014593
0.014593
0.014593
0.014593
0.014593
0.014593
0.014593
0.014593
0.014593
0.014593
0.014593
0.014593
0.014593
0.014593
0.014593
0.014593
0.014593
0.014593
0.014593
0.014593
0.014593
0.014593
0.014593
0.014593
0.014593
0.014593
0.014593
0.014593
0.014593
0.014593
0.014593
0.014593
0.014593
0.014593
0.014593
0.014593
0.014593
0.014593
0.014593
0.014593
0.014593
0.014593
0.014593
0.014593
0.014593
0.014593
0.014593
0.014593
0.014593
0.014593
0.014593
0.014593
0.014593
0.014593
0.014593
0.014593
0.014593
0.014593
0.014593
0.014593
0.014593
0.014593
0.014593
0.014593
0.014593
0.014593
0.014593
0.014593
0.014593
0.014593
0.014593
0.014593
0.014593
0.014593
0.014593
0.014593
0.014593
0.014593
0.014593
0.014593
0.014593
0.014593
0.014593
0.014593
0.014593
0.014593
0.014593
0.014593
0.014593
0.014593
0.014593
0.014593
0.014593
0.014593
0.014593
0.014593
0.014593
0.014593
0.014593
0.014593
0.014593
0.014593
0.014593
0.014593
0.014593
0.014593
0.014593
0.014593
0.014593
0.014593
0.014593
0.014593
0.014593
0.014593
0.014593
0.014593
0.014593
0.014593
0.014593
0.014593
0.014593
0.014593
0.014593
0.014593
0.014593
0.014593
0.014593
0.014593
0.014593
0.014593
0.014593
0.014593
0.014593
0.014593
0.014593
0.014593
0.014593
0.014593
0.014593
0.014593
0.014593
0.014593
0.014593
0.014593
0.014593
0.014593
0.014593
0.014593
0.014593
0.014593
0.014593
0.014593
0.014593
0.014593
0.014593
0.014593
0.014593
0.014593
0.014593
0.014593
0.014593
0.014593
0.014593
0.014593
0.014593
0.014593
0.014593
0.014593
0.014593
0.014593
0.014593
0.014593
0.014593
0.014593
0.014593
0.014593
0.014593
0.014593
0.014593
0.014593
0.014593
0.014593
0.014593
0.014593
0.014593
0.014593
0.014593
0.014593
0.014593
0.014593
0.014593
0.014593
0.014593
0.014593
0.014593
0.014593
0.014593
0.014593
0.014593
0.014593
0.014593
0.014593
0.014593
0.014593
0.014593
0.014593
0.014593
0.014593
0.014593
0.014593
0.014593
0.014593
0.014593
0.014593
0.014593
0.014593
0.014593
0.014593
0.014593
0.014593
0.014593
0.014593
0.014593
0.014593
0.014593
0.014593
0.014593
0.014593
0.014593
0.014593
0.014593
0.014593
0.014593
0.014593
0.014593
0.014593
0.014593
0.014593
0.014593
0.014593
0.014593
0.014593
0.014593
0.014593
0.014593
0.014593
0.014593
0.014593
0.014593
0.014593
0.014593
0.014593
0.014593
0.014593
0.014593
0.014593
0.014593
0.014593
0.014593
0.014593
0.014593
0.014593
0.014593
0.014593
0.014593
0.014593
0.014593
0.014593
0.014593
0.014593
0.014593
0.014593
0.014593
0.014593
0.014593
0.014593
0.014593
0.014593
0.014593
0.014593
0.014593
0.014593
0.014593
0.014593
0.014593
0.014593
0.014593
0.014593
0.014593
0.014593
0.014593
0.014593
0.014593
0.014593
0.014593
0.014593
0.014593
0.014593
0.014593
0.014593
0.014593
0.014593
0.014593
0.014593
0.014593
0.014593
0.014593
0.014593
0.014593
0.014593
0.014593
0.014593
0.014593
0.014593
0.014593
0.014593
0.014593
0.014593
0.014593
0.014593
0.014593
0.014593
0.014593
0.014593
0.014593
0.014593
0.014593
0.014593
0.014593
0.014593
0.014593
0.014593
0.014593
0.014593
0.014593
0.014593
0.014593
0.014593
0.014593
0.014593
0.014593
0.014593
0.014593
0.014593
0.014593
0.014593
0.014593
0.014593
0.014593
0.014593
0.014593
0.014593
0.014593
0.014593
0.014593
0.014593
0.014593
0.014593
0.014593
0.014593
0.014593
0.014593
0.014593
0.014593
0.014593
0.014593
0.014593
0.014593
0.014593
0.014593
0.014593
0.014593
0.014593
0.014593
0.014593
0.014593
0.014593
0.014593
0.014593
0.014593
0.014593
0.014593
0.014593
0.014593
0.014593
0.014593
0.014593
0.014593
0.014593
0.014593
0.014593
0.014593
0.014593
0.014593
0.014593
0.014593
0.014593
0.014593
0.014593
0.014593
0.014593
0.014593
0.014593
0.014593
0.014593
0.014593
0.014593
0.014593
0.014593
0.014593
0.014593
0.014593
0.014593
0.014593
0.014593
0.014593
0.014593
0.014593
0.014593
0.014593
0.014593
0.014593
0.014593
0.014593
0.014593
0.014593
0.014593
0.014593
0.014593
0.014593
0.014593
0.014593
0.014593
0.014593
0.014593
0.014593
0.014593
0.014593
0.014593
0.014593
0.014593
0.014593
0.014593
0.014593
0.014593
0.014593
0.014593
0.014593
0.014593
0.014593
0.014593
0.014593
0.014593
0.014593
0.014593
0.014593
0.014593
0.014593
0.014593
0.014593
0.014593
0.014593
0.014593
0.014593
0.014593
0.014593
0.014593
0.014593
0.014593
0.014593
0.014593
0.014593
0.014593
0.014593
0.014593
0.014593
0.014593
0.014593
0.014593
0.0145931
0.0145931
0.0145931
0.0145931
0.0145931
0.0145931
0.014593
0.014593
0.014593
0.014593
0.014593
0.014593
0.014593
0.014593
0.014593
0.014593
0.014593
0.014593
0.014593
0.014593
0.014593
0.014593
0.014593
0.014593
0.014593
0.014593
0.014593
0.014593
0.014593
0.014593
0.014593
0.014593
0.014593
0.014593
0.014593
0.014593
0.014593
0.014593
0.014593
0.014593
0.014593
0.014593
0.014593
0.014593
0.014593
0.014593
0.014593
0.014593
0.014593
0.014593
0.014593
0.014593
0.014593
0.014593
0.014593
0.014593
0.014593
0.014593
0.014593
0.014593
0.014593
0.014593
0.014593
0.014593
0.014593
0.014593
0.014593
0.014593
0.014593
0.014593
0.014593
0.014593
0.014593
0.014593
0.014593
0.014593
0.014593
0.014593
0.014593
0.014593
0.014593
0.014593
0.014593
0.014593
0.014593
0.014593
0.014593
0.014593
0.014593
0.014593
0.014593
0.014593
0.014593
0.014593
0.014593
0.0145931
0.0145931
0.0145931
0.0145931
0.0145931
0.0145931
0.0145931
0.0145931
0.0145931
0.0145931
0.0145931
0.0145931
0.0145932
0.0145932
0.0145932
0.0145932
0.0145932
0.0145933
0.0145933
0.0145933
0.0145934
0.0145934
0.0145935
0.0145935
0.014593
0.014593
0.014593
0.014593
0.014593
0.014593
0.014593
0.014593
0.014593
0.014593
0.014593
0.014593
0.014593
0.014593
0.014593
0.014593
0.014593
0.014593
0.014593
0.014593
0.014593
0.014593
0.014593
0.014593
0.014593
0.014593
0.014593
0.014593
0.014593
0.014593
0.014593
0.014593
0.014593
0.014593
0.014593
0.014593
0.014593
0.014593
0.014593
0.014593
0.014593
0.014593
0.014593
0.014593
0.014593
0.014593
0.014593
0.014593
0.014593
0.014593
0.014593
0.014593
0.014593
0.014593
0.014593
0.014593
0.014593
0.014593
0.014593
0.014593
0.014593
0.014593
0.014593
0.014593
0.014593
0.014593
0.014593
0.014593
0.0145931
0.0145931
0.0145931
0.0145931
0.0145931
0.0145931
0.0145931
0.0145931
0.0145931
0.0145931
0.0145931
0.0145931
0.0145931
0.0145931
0.0145931
0.0145931
0.0145932
0.0145932
0.0145932
0.0145932
0.0145932
0.0145932
0.0145933
0.0145933
0.0145933
0.0145934
0.0145934
0.0145934
0.0145935
0.0145935
0.0145936
0.0145936
0.0145937
0.0145938
0.0145939
0.014594
0.0145941
0.0145943
0.0145944
0.0145946
0.0145948
0.014595
0.0145952
0.0145955
0.0145958
0.014593
0.014593
0.014593
0.014593
0.014593
0.014593
0.014593
0.014593
0.014593
0.014593
0.014593
0.014593
0.014593
0.014593
0.014593
0.014593
0.014593
0.014593
0.014593
0.014593
0.014593
0.014593
0.014593
0.014593
0.014593
0.014593
0.014593
0.014593
0.014593
0.014593
0.014593
0.014593
0.014593
0.014593
0.014593
0.014593
0.014593
0.0145931
0.0145931
0.0145931
0.0145931
0.0145931
0.0145931
0.0145931
0.0145931
0.0145931
0.0145931
0.0145931
0.0145931
0.0145931
0.0145931
0.0145931
0.0145931
0.0145931
0.0145931
0.0145931
0.0145931
0.0145931
0.0145931
0.0145931
0.0145931
0.0145931
0.0145931
0.0145931
0.0145932
0.0145932
0.0145932
0.0145932
0.0145932
0.0145932
0.0145932
0.0145932
0.0145932
0.0145933
0.0145933
0.0145933
0.0145933
0.0145933
0.0145934
0.0145934
0.0145934
0.0145935
0.0145935
0.0145936
0.0145936
0.0145937
0.0145937
0.0145938
0.0145939
0.0145939
0.014594
0.0145941
0.0145943
0.0145944
0.0145946
0.0145947
0.0145949
0.0145951
0.0145954
0.0145956
0.0145959
0.0145962
0.0145966
0.0145971
0.0145976
0.0145981
0.0145988
0.0145995
0.0146003
0.0146011
0.0146021
0.0146032
0.0146044
0.0146059
0.0146077
0.014593
0.014593
0.014593
0.014593
0.014593
0.014593
0.014593
0.014593
0.0145931
0.0145931
0.0145931
0.0145931
0.0145931
0.0145931
0.0145931
0.0145931
0.0145931
0.0145931
0.0145931
0.0145931
0.0145931
0.0145931
0.0145931
0.0145931
0.0145931
0.0145931
0.0145931
0.0145931
0.0145931
0.0145931
0.0145932
0.0145932
0.0145932
0.0145932
0.0145932
0.0145932
0.0145932
0.0145932
0.0145932
0.0145932
0.0145932
0.0145932
0.0145932
0.0145933
0.0145933
0.0145933
0.0145933
0.0145933
0.0145933
0.0145933
0.0145933
0.0145934
0.0145934
0.0145934
0.0145934
0.0145934
0.0145934
0.0145935
0.0145935
0.0145935
0.0145935
0.0145936
0.0145936
0.0145936
0.0145937
0.0145937
0.0145937
0.0145938
0.0145938
0.0145939
0.014594
0.014594
0.0145941
0.0145942
0.0145943
0.0145944
0.0145945
0.0145946
0.0145947
0.0145949
0.014595
0.0145952
0.0145954
0.0145956
0.0145959
0.0145961
0.0145964
0.0145967
0.0145971
0.0145975
0.014598
0.0145985
0.0145991
0.0145998
0.0146006
0.0146015
0.0146024
0.0146034
0.0146046
0.0146058
0.0146073
0.014609
0.0146109
0.0146132
0.0146157
0.0146186
0.0146218
0.0146254
0.0146293
0.0146336
0.0146384
0.014644
0.0146505
0.0146583
0.0146673
0.0146778
0.0145931
0.0145931
0.0145931
0.0145931
0.0145931
0.0145931
0.0145931
0.0145931
0.0145931
0.0145931
0.0145931
0.0145932
0.0145932
0.0145932
0.0145932
0.0145932
0.0145932
0.0145932
0.0145932
0.0145933
0.0145933
0.0145933
0.0145933
0.0145933
0.0145933
0.0145934
0.0145934
0.0145934
0.0145934
0.0145934
0.0145935
0.0145935
0.0145935
0.0145935
0.0145936
0.0145936
0.0145936
0.0145936
0.0145937
0.0145937
0.0145937
0.0145937
0.0145938
0.0145938
0.0145938
0.0145939
0.0145939
0.0145939
0.014594
0.014594
0.0145941
0.0145941
0.0145942
0.0145942
0.0145943
0.0145943
0.0145944
0.0145944
0.0145945
0.0145946
0.0145947
0.0145947
0.0145948
0.0145949
0.014595
0.0145951
0.0145952
0.0145953
0.0145954
0.0145956
0.0145957
0.0145959
0.0145961
0.0145963
0.0145965
0.0145968
0.014597
0.0145973
0.0145976
0.0145979
0.0145983
0.0145987
0.0145991
0.0145996
0.0146001
0.0146008
0.0146015
0.0146023
0.0146032
0.0146041
0.0146052
0.0146063
0.0146076
0.014609
0.0146105
0.0146123
0.0146142
0.0146165
0.0146191
0.0146221
0.0146255
0.0146292
0.0146333
0.0146379
0.0146428
0.0146483
0.0146545
0.0146616
0.0146699
0.0146796
0.0146909
0.0147037
0.014718
0.0147339
0.0147514
0.0147704
0.0147912
0.0148146
0.0148419
0.0148744
0.0149128
0.0149577
0.0150089
0.0145933
0.0145933
0.0145933
0.0145933
0.0145934
0.0145934
0.0145934
0.0145935
0.0145935
0.0145935
0.0145936
0.0145936
0.0145937
0.0145937
0.0145938
0.0145938
0.0145939
0.0145939
0.014594
0.014594
0.0145941
0.0145942
0.0145942
0.0145943
0.0145944
0.0145944
0.0145945
0.0145946
0.0145947
0.0145948
0.0145949
0.014595
0.0145951
0.0145952
0.0145953
0.0145954
0.0145955
0.0145956
0.0145957
0.0145958
0.0145959
0.0145961
0.0145962
0.0145963
0.0145965
0.0145966
0.0145967
0.0145969
0.0145971
0.0145972
0.0145974
0.0145976
0.0145978
0.014598
0.0145983
0.0145985
0.0145988
0.014599
0.0145993
0.0145996
0.0146
0.0146003
0.0146006
0.014601
0.0146014
0.0146019
0.0146023
0.0146028
0.0146034
0.0146041
0.0146048
0.0146055
0.0146064
0.0146073
0.0146083
0.0146094
0.0146106
0.0146119
0.0146132
0.0146147
0.0146163
0.0146181
0.0146201
0.0146224
0.014625
0.0146279
0.0146312
0.0146348
0.0146389
0.0146434
0.0146483
0.0146536
0.0146594
0.0146658
0.0146729
0.0146811
0.0146905
0.0147014
0.0147139
0.0147281
0.014744
0.0147617
0.0147811
0.0148023
0.0148254
0.0148508
0.0148796
0.0149131
0.0149525
0.0149984
0.015051
0.0151106
0.0151768
0.0152495
0.0153284
0.0154134
0.0155056
0.0156091
0.0157309
0.0158768
0.0160489
0.0162462
0.0164663
0.0145941
0.0145942
0.0145943
0.0145944
0.0145945
0.0145946
0.0145948
0.0145949
0.014595
0.0145952
0.0145954
0.0145955
0.0145957
0.0145959
0.0145961
0.0145963
0.0145965
0.0145967
0.014597
0.0145972
0.0145975
0.0145977
0.014598
0.0145983
0.0145986
0.0145989
0.0145992
0.0145995
0.0145998
0.0146002
0.0146005
0.0146009
0.0146013
0.0146017
0.0146021
0.0146025
0.014603
0.0146034
0.0146039
0.0146044
0.0146049
0.0146053
0.0146059
0.0146064
0.0146069
0.0146075
0.0146081
0.0146088
0.0146095
0.0146102
0.014611
0.0146118
0.0146127
0.0146136
0.0146146
0.0146157
0.0146168
0.0146179
0.0146192
0.0146204
0.0146218
0.0146232
0.0146247
0.0146264
0.0146281
0.01463
0.014632
0.0146343
0.0146368
0.0146396
0.0146427
0.0146461
0.0146499
0.0146539
0.0146583
0.0146631
0.0146683
0.0146739
0.0146799
0.0146864
0.0146935
0.0147014
0.0147104
0.0147207
0.0147325
0.0147458
0.0147607
0.0147774
0.0147958
0.0148159
0.0148378
0.0148615
0.0148872
0.0149154
0.0149471
0.0149837
0.015026
0.0150749
0.0151308
0.0151938
0.0152638
0.0153407
0.0154243
0.0155145
0.0156117
0.015718
0.0158389
0.0159806
0.0161469
0.0163387
0.0165545
0.0167924
0.0170498
0.0173241
0.017613
0.0179153
0.0182339
0.0185833
0.0189928
0.0194719
0.0200133
0.0206029
0.0212262
0.0145974
0.0145978
0.0145982
0.0145986
0.0145991
0.0145995
0.0146001
0.0146006
0.0146012
0.0146018
0.0146024
0.0146031
0.0146038
0.0146046
0.0146053
0.0146061
0.014607
0.0146079
0.0146088
0.0146097
0.0146107
0.0146117
0.0146127
0.0146138
0.0146149
0.0146161
0.0146173
0.0146186
0.0146199
0.0146213
0.0146228
0.0146243
0.0146258
0.0146274
0.014629
0.0146307
0.0146325
0.0146343
0.0146361
0.014638
0.0146399
0.0146418
0.0146439
0.014646
0.0146482
0.0146505
0.014653
0.0146556
0.0146584
0.0146614
0.0146646
0.014668
0.0146716
0.0146755
0.0146795
0.0146838
0.0146884
0.0146931
0.0146982
0.0147035
0.0147091
0.014715
0.0147213
0.0147279
0.0147351
0.014743
0.0147518
0.0147615
0.0147724
0.0147845
0.0147978
0.0148124
0.0148284
0.0148458
0.0148646
0.0148849
0.0149068
0.0149303
0.0149555
0.0149828
0.0150127
0.0150464
0.0150847
0.0151286
0.0151785
0.0152348
0.0152976
0.0153669
0.0154427
0.0155249
0.0156135
0.0157085
0.0158105
0.0159217
0.0160472
0.0161925
0.0163608
0.0165529
0.0167683
0.0170053
0.0172619
0.0175361
0.0178257
0.0181291
0.0184465
0.0187844
0.0191642
0.0196033
0.020102
0.0206508
0.0212382
0.0218532
0.0224856
0.0231271
0.023771
0.0244138
0.0250582
0.0257349
0.026564
0.0275081
0.0285014
0.0294942
0.0304554
0.0313668
0.0322168
0.0146103
0.0146118
0.0146134
0.014615
0.0146168
0.0146187
0.0146206
0.0146227
0.014625
0.0146273
0.0146298
0.0146324
0.0146351
0.014638
0.014641
0.0146441
0.0146473
0.0146507
0.0146542
0.0146577
0.0146614
0.0146653
0.0146693
0.0146734
0.0146777
0.0146822
0.0146869
0.0146918
0.0146969
0.0147022
0.0147077
0.0147134
0.0147193
0.0147254
0.0147317
0.0147382
0.0147448
0.0147516
0.0147586
0.0147657
0.014773
0.0147804
0.0147882
0.0147963
0.0148049
0.014814
0.0148238
0.0148343
0.0148454
0.0148574
0.0148701
0.0148837
0.014898
0.0149133
0.0149294
0.0149464
0.0149643
0.0149832
0.0150032
0.0150241
0.0150462
0.0150694
0.0150939
0.01512
0.0151484
0.0151798
0.0152148
0.0152537
0.015297
0.0153449
0.0153974
0.0154547
0.0155169
0.0155841
0.0156564
0.0157339
0.0158168
0.0159051
0.0159992
0.0161001
0.0162109
0.0163358
0.0164787
0.0166415
0.0168244
0.0170269
0.017248
0.0174864
0.0177408
0.0180098
0.0182921
0.018587
0.0188953
0.0192237
0.0195908
0.0200093
0.0204787
0.0209923
0.0215417
0.0221182
0.0227139
0.0233217
0.0239353
0.0245498
0.025165
0.0257893
0.0264969
0.0273228
0.0282183
0.0291355
0.0300421
0.0309175
0.0317484
0.0325259
0.0332462
0.0339087
0.0345103
0.0350511
0.0355213
0.0359303
0.0362875
0.0366027
0.0368812
0.0371229
0.0373317
0.0146596
0.0146652
0.0146712
0.0146775
0.0146842
0.0146913
0.0146987
0.0147066
0.014715
0.0147238
0.014733
0.0147427
0.0147529
0.0147635
0.0147746
0.014786
0.0147979
0.0148102
0.0148228
0.0148359
0.0148494
0.0148634
0.014878
0.0148932
0.0149092
0.0149258
0.0149432
0.0149613
0.0149801
0.0149997
0.01502
0.0150409
0.0150625
0.0150848
0.0151076
0.0151311
0.015155
0.0151795
0.0152045
0.01523
0.015256
0.0152828
0.0153107
0.01534
0.0153712
0.0154046
0.0154402
0.0154782
0.0155188
0.015562
0.0156079
0.0156564
0.0157078
0.015762
0.0158191
0.0158791
0.0159422
0.0160083
0.0160777
0.0161502
0.0162262
0.0163057
0.0163893
0.0164782
0.0165753
0.016683
0.0168033
0.0169369
0.0170838
0.0172438
0.0174168
0.0176023
0.0178
0.0180096
0.0182309
0.0184634
0.018707
0.0189612
0.0192264
0.0195054
0.0198069
0.0201449
0.0205239
0.0209419
0.021394
0.0218749
0.022379
0.0229013
0.023437
0.0239816
0.0245317
0.0250843
0.0256403
0.0262087
0.0268554
0.0275956
0.0283923
0.0292112
0.0300275
0.0308238
0.0315887
0.032314
0.0329933
0.0336246
0.0342063
0.0347374
0.0352123
0.0356297
0.0359981
0.0363251
0.0366166
0.0368756
0.037103
0.0373019
0.0374773
0.037629
0.0377558
0.03786
0.037946
0.038018
0.0380804
0.0381358
0.0381855
0.0382313
0.0382724
0.0148227
0.0148419
0.0148622
0.0148837
0.0149064
0.0149303
0.0149557
0.0149825
0.0150108
0.0150406
0.0150719
0.0151048
0.0151392
0.015175
0.0152122
0.0152507
0.0152905
0.0153314
0.0153733
0.0154163
0.0154606
0.0155063
0.0155537
0.015603
0.0156543
0.0157078
0.0157633
0.015821
0.0158807
0.0159424
0.0160062
0.0160718
0.0161392
0.0162082
0.0162789
0.0163509
0.0164243
0.0164989
0.0165746
0.0166514
0.0167292
0.0168083
0.0168895
0.0169743
0.0170642
0.0171602
0.0172628
0.0173722
0.0174883
0.017611
0.0177402
0.0178759
0.0180179
0.0181662
0.0183206
0.0184812
0.0186479
0.0188207
0.0189995
0.0191844
0.0193752
0.0195722
0.0197754
0.019986
0.0202077
0.0204489
0.0207149
0.0210061
0.0213208
0.0216569
0.0220125
0.0223858
0.0227749
0.0231778
0.023593
0.0240187
0.0244533
0.0248954
0.0253437
0.0257977
0.0262604
0.0267511
0.0273194
0.0279483
0.0286138
0.0292959
0.0299801
0.0306549
0.031312
0.0319452
0.0325499
0.0331223
0.0336615
0.0341663
0.0346359
0.0350629
0.0354471
0.0357946
0.0361098
0.0363944
0.036651
0.0368827
0.037089
0.0372707
0.0374308
0.0375701
0.0376886
0.0377871
0.0378691
0.0379398
0.0380032
0.0380604
0.0381124
0.038161
0.0382058
0.0382435
0.038277
0.0383097
0.0383382
0.0383608
0.0383796
0.0383962
0.0384118
0.0384277
0.0384441
0.0384613
0.0154115
0.0154764
0.0155445
0.0156158
0.0156908
0.0157695
0.0158521
0.0159388
0.0160293
0.0161238
0.016222
0.0163238
0.0164289
0.0165372
0.0166484
0.0167622
0.0168781
0.016996
0.0171154
0.0172366
0.0173604
0.0174879
0.0176196
0.0177561
0.0178972
0.018043
0.0181931
0.0183472
0.0185049
0.0186659
0.0188297
0.0189959
0.0191641
0.0193339
0.0195051
0.0196772
0.0198499
0.0200231
0.0201965
0.0203699
0.0205435
0.0207181
0.0208961
0.0210822
0.0212792
0.0214873
0.0217058
0.021934
0.0221715
0.0224176
0.022672
0.0229341
0.0232035
0.0234796
0.0237621
0.0240504
0.0243442
0.0246431
0.0249469
0.0252551
0.0255676
0.0258841
0.0262045
0.02653
0.0268656
0.0272407
0.0276608
0.0281131
0.0285865
0.0290728
0.0295664
0.0300625
0.0305575
0.031048
0.0315314
0.032005
0.0324666
0.0329144
0.0333467
0.0337626
0.0341606
0.0345381
0.0348878
0.0352123
0.0355142
0.0357949
0.0360544
0.0362942
0.0365158
0.036718
0.0369011
0.0370664
0.0372144
0.0373452
0.03746
0.0375597
0.0376466
0.0377239
0.0377937
0.0378585
0.0379188
0.0379723
0.0380211
0.03807
0.0381154
0.0381553
0.038193
0.0382268
0.038255
0.0382792
0.0383007
0.0383216
0.0383432
0.0383652
0.0383868
0.0384083
0.0384306
0.0384504
0.0384681
0.0384855
0.0385007
0.0385125
0.0385231
0.0385336
0.0385438
0.0385546
0.0385671
0.03858
0.0172185
0.0173983
0.0175839
0.0177759
0.017975
0.0181816
0.0183955
0.0186163
0.0188436
0.0190766
0.0193145
0.0195565
0.0198015
0.0200487
0.0202971
0.0205458
0.0207938
0.0210405
0.0212852
0.0215291
0.0217757
0.022027
0.0222829
0.0225426
0.0228054
0.0230705
0.0233374
0.0236055
0.0238741
0.0241426
0.0244105
0.0246772
0.024942
0.0252045
0.0254642
0.0257208
0.0259739
0.0262234
0.0264691
0.0267113
0.0269503
0.0271874
0.0274264
0.0276858
0.027966
0.0282612
0.0285666
0.0288789
0.029196
0.0295159
0.0298375
0.0301596
0.0304813
0.030802
0.0311208
0.031437
0.0317501
0.0320595
0.0323645
0.0326646
0.0329595
0.0332486
0.0335318
0.0338085
0.0340783
0.0343366
0.0345826
0.0348179
0.0350433
0.0352592
0.035466
0.0356633
0.0358512
0.0360297
0.0361985
0.0363577
0.0365076
0.0366476
0.0367778
0.0368989
0.0370103
0.0371119
0.0372052
0.0372912
0.0373712
0.0374463
0.0375178
0.0375864
0.0376496
0.0377105
0.0377718
0.0378286
0.0378816
0.0379333
0.0379804
0.0380221
0.0380602
0.0380938
0.0381244
0.0381545
0.0381831
0.0382101
0.0382385
0.0382663
0.0382905
0.0383159
0.0383429
0.0383661
0.0383875
0.0384063
0.0384227
0.038438
0.0384529
0.0384684
0.038484
0.0385005
0.0385182
0.0385361
0.0385534
0.0385713
0.0385879
0.0386023
0.0386145
0.0386253
0.0386356
0.0386458
0.0386568
0.0386686
0.0214815
0.021839
0.022199
0.0225639
0.0229337
0.0233071
0.0236824
0.0240577
0.0244319
0.0248036
0.0251718
0.0255355
0.0258937
0.0262453
0.0265896
0.0269257
0.0272529
0.0275703
0.0278776
0.0281771
0.0284844
0.028801
0.0291224
0.0294448
0.0297654
0.0300819
0.0303926
0.0306962
0.0309917
0.0312783
0.0315556
0.0318233
0.0320812
0.0323292
0.0325674
0.0327957
0.0330143
0.0332233
0.0334232
0.0336146
0.0337983
0.0339752
0.0341459
0.0343078
0.0344618
0.0346092
0.0347509
0.0348873
0.0350189
0.035146
0.0352687
0.0353873
0.0355019
0.0356127
0.0357199
0.0358236
0.035924
0.0360213
0.0361153
0.0362064
0.0362943
0.0363792
0.0364611
0.03654
0.0366158
0.0366886
0.0367593
0.0368289
0.036898
0.0369673
0.0370365
0.0371051
0.0371732
0.0372402
0.0373054
0.0373696
0.0374319
0.0374911
0.0375492
0.0376046
0.0376561
0.0377061
0.0377525
0.0377945
0.0378356
0.0378741
0.0379109
0.0379477
0.0379824
0.0380181
0.0380514
0.0380827
0.0381172
0.0381497
0.038178
0.0382073
0.0382354
0.0382587
0.0382804
0.038302
0.0383228
0.0383425
0.0383622
0.0383834
0.0384041
0.0384251
0.0384482
0.0384699
0.0384904
0.0385095
0.0385271
0.038543
0.0385578
0.0385726
0.0385874
0.0386025
0.0386185
0.0386356
0.038653
0.0386707
0.0386879
0.0387037
0.0387179
0.0387304
0.0387419
0.0387527
0.0387635
0.0387747
0.028218
0.0286552
0.0290857
0.0295219
0.02996
0.0303954
0.0308236
0.0312414
0.0316457
0.0320346
0.0324062
0.0327597
0.0330941
0.0334089
0.0337043
0.0339804
0.0342373
0.034475
0.034694
0.0348955
0.0350783
0.0352443
0.0353957
0.0355343
0.0356612
0.0357774
0.0358835
0.0359802
0.0360679
0.0361471
0.0362184
0.0362824
0.0363396
0.0363906
0.0364359
0.0364759
0.0365114
0.0365429
0.0365718
0.0365993
0.0366267
0.0366542
0.0366821
0.0367103
0.0367391
0.0367687
0.0367992
0.0368306
0.0368628
0.0368956
0.0369288
0.0369624
0.0369961
0.03703
0.0370641
0.0370984
0.0371328
0.0371675
0.0372023
0.0372372
0.0372723
0.0373074
0.0373423
0.0373771
0.0374114
0.037445
0.0374776
0.0375097
0.0375417