/*--------------------------------*- C++ -*----------------------------------*\
| =========                 |                                                 |
| \\      /  F ield         | OpenFOAM: The Open Source CFD Toolbox           |
|  \\    /   O peration     | Version:  v1706                                 |
|   \\  /    A nd           | Web:      www.OpenFOAM.com                      |
|    \\/     M anipulation  |                                                 |
\*---------------------------------------------------------------------------*/
FoamFile
{
    version     2.0;
    format      ascii;
    class       volScalarField;
    location    "3.5e-05";
    object      Mach;
}
// * * * * * * * * * * * * * * * * * * * * * * * * * * * * * * * * * * * * * //

dimensions      [0 0 0 0 0 0 0];


internalField   nonuniform List<scalar> 
29871
(
7.18506
7.18506
7.18506
7.18506
7.18506
7.18506
7.18506
7.18506
7.18506
7.18506
7.18506
7.18506
7.18506
7.18506
7.18506
7.18506
7.18506
7.18506
7.18506
7.18506
7.18506
7.18506
7.18506
7.18506
7.18506
7.18506
7.18506
7.18506
7.18506
7.18506
7.18506
7.18506
7.18506
7.18506
7.18506
7.18506
7.18506
7.18506
7.18506
7.18506
7.18506
7.18506
7.18506
7.18506
7.18506
7.18506
7.18506
7.18506
7.18506
7.18506
7.18506
7.18506
7.18506
7.18506
7.18506
7.18506
7.18506
7.18506
7.18506
7.18506
7.18506
7.18506
7.18506
7.18506
7.18506
7.18506
7.18506
7.18506
7.18506
7.18506
7.18506
7.18506
7.18506
7.18506
7.18506
7.18506
7.18506
7.18506
7.18506
7.18506
7.18506
7.18506
7.18506
7.18506
7.18506
7.18506
7.18506
7.18506
7.18506
7.18506
7.18506
7.18506
7.18506
7.18506
7.18506
7.18506
7.18506
7.18506
7.18506
7.18506
7.18506
7.18506
7.18506
7.18506
7.18506
7.18506
7.18506
7.18506
7.18506
7.18506
7.18506
7.18506
7.18506
7.18506
7.18506
7.18506
7.18506
7.18506
7.18506
7.18506
7.18506
7.18506
7.18506
7.18506
7.18506
7.18506
7.18506
7.18506
7.18506
7.18506
7.18506
7.18506
7.18506
7.18506
7.18506
7.18506
7.18506
7.18506
7.18506
7.18506
7.18506
7.18506
7.18506
7.18506
7.18506
7.18506
7.18506
7.18506
7.18506
7.18506
7.18506
7.18506
7.18506
7.18506
7.18506
7.18506
7.18506
7.18506
7.18506
7.18506
7.18506
7.18506
7.18506
7.18506
7.18506
7.18506
7.18506
7.18506
7.18506
7.18506
7.18506
7.18506
7.18506
7.18506
7.18506
7.18506
7.18506
7.18506
7.18506
7.18506
7.18506
7.18506
7.18506
7.18506
7.18506
7.18506
7.18506
7.18506
7.18506
7.18506
7.18506
7.18506
7.18506
7.18506
7.18506
7.18506
7.18506
7.18506
7.18506
7.18506
7.18506
7.18506
7.18506
7.18506
7.18506
7.18506
7.18506
7.18506
7.18506
7.18506
7.18506
7.18506
7.18506
7.18506
7.18506
7.18506
7.18506
7.18506
7.18506
7.18506
7.18506
7.18506
7.18506
7.18506
7.18506
7.18506
7.18506
7.18506
7.18506
7.18506
7.18506
7.18506
7.18506
7.18506
7.18506
7.18506
7.18506
7.18506
7.18506
7.18506
7.18506
7.18506
7.18506
7.18506
7.18506
7.18506
7.18506
7.18506
7.18506
7.18506
7.18506
7.18506
7.18506
7.18506
7.18506
7.18506
7.18506
7.18506
7.18506
7.18506
7.18506
7.18506
7.18506
7.18506
7.18506
7.18506
7.18506
7.18506
7.18506
7.18506
7.18506
7.18506
7.18506
7.18506
7.18506
7.18506
7.18506
7.18506
7.18506
7.18506
7.18506
7.18506
7.18506
7.18506
7.18506
7.18506
7.18506
7.18506
7.18506
7.18506
7.18506
7.18506
7.18506
7.18506
7.18506
7.18506
7.18506
7.18506
7.18506
7.18506
7.18506
7.18506
7.18506
7.18506
7.18506
7.18506
7.18506
7.18506
7.18506
7.18506
7.18506
7.18506
7.18506
7.18506
7.18506
7.18506
7.18506
7.18506
7.18506
7.18506
7.18506
7.18506
7.18506
7.18506
7.18506
7.18506
7.18506
7.18506
7.18506
7.18506
7.18506
7.18506
7.18506
7.18506
7.18506
7.18506
7.18506
7.18506
7.18506
7.18506
7.18506
7.18506
7.18506
7.18506
7.18506
7.18506
7.18506
7.18506
7.18506
7.18506
7.18506
7.18506
7.18506
7.18506
7.18506
7.18506
7.18506
7.18506
7.18506
7.18506
7.18506
7.18506
7.18506
7.18506
7.18506
7.18506
7.18506
7.18506
7.18506
7.18506
7.18506
7.18506
7.18506
7.18506
7.18506
7.18506
7.18506
7.18506
7.18506
7.18506
7.18506
7.18506
7.18506
7.18506
7.18506
7.18506
7.18506
7.18506
7.18506
7.18506
7.18506
7.18506
7.18506
7.18506
7.18506
7.18506
7.18506
7.18506
7.18506
7.18506
7.18506
7.18506
7.18506
7.18506
7.18506
7.18506
7.18506
7.18506
7.18506
7.18506
7.18506
7.18506
7.18506
7.18506
7.18506
7.18506
7.18506
7.18506
7.18506
7.18506
7.18506
7.18506
7.18506
7.18506
7.18506
7.18506
7.18506
7.18506
7.18506
7.18506
7.18506
7.18506
7.18506
7.18506
7.18506
7.18506
7.18506
7.18506
7.18506
7.18506
7.18506
7.18506
7.18506
7.18506
7.18506
7.18506
7.18506
7.18506
7.18506
7.18506
7.18506
7.18506
7.18506
7.18506
7.18506
7.18506
7.18506
7.18506
7.18506
7.18506
7.18506
7.18506
7.18506
7.18506
7.18506
7.18506
7.18506
7.18506
7.18506
7.18506
7.18506
7.18506
7.18506
7.18506
7.18506
7.18506
7.18506
7.18506
7.18506
7.18506
7.18506
7.18506
7.18506
7.18506
7.18506
7.18506
7.18506
7.18506
7.18506
7.18506
7.18506
7.18506
7.18506
7.18506
7.18506
7.18506
7.18506
7.18506
7.18506
7.18506
7.18506
7.18506
7.18506
7.18506
7.18506
7.18506
7.18506
7.18506
7.18506
7.18506
7.18506
7.18506
7.18506
7.18506
7.18506
7.18506
7.18506
7.18506
7.18506
7.18506
7.18506
7.18506
7.18506
7.18506
7.18506
7.18506
7.18506
7.18506
7.18506
7.18506
7.18506
7.18506
7.18506
7.18506
7.18506
7.18506
7.18506
7.18506
7.18506
7.18506
7.18506
7.18506
7.18506
7.18506
7.18506
7.18506
7.18506
7.18506
7.18506
7.18506
7.18506
7.18506
7.18506
7.18506
7.18506
7.18506
7.18506
7.18506
7.18506
7.18506
7.18506
7.18506
7.18506
7.18506
7.18506
7.18506
7.18506
7.18506
7.18506
7.18506
7.18506
7.18506
7.18506
7.18506
7.18506
7.18506
7.18506
7.18506
7.18506
7.18506
7.18506
7.18506
7.18506
7.18506
7.18506
7.18506
7.18506
7.18506
7.18506
7.18506
7.18506
7.18506
7.18506
7.18506
7.18506
7.18506
7.18506
7.18506
7.18506
7.18506
7.18506
7.18506
7.18506
7.18506
7.18506
7.18506
7.18506
7.18506
7.18506
7.18506
7.18506
7.18506
7.18506
7.18506
7.18506
7.18506
7.18506
7.18506
7.18506
7.18506
7.18506
7.18506
7.18506
7.18506
7.18506
7.18506
7.18506
7.18506
7.18506
7.18506
7.18506
7.18506
7.18506
7.18506
7.18506
7.18506
7.18506
7.18506
7.18506
7.18506
7.18506
7.18506
7.18506
7.18506
7.18506
7.18506
7.18506
7.18506
7.18506
7.18506
7.18506
7.18506
7.18506
7.18506
7.18506
7.18506
7.18506
7.18506
7.18506
7.18506
7.18506
7.18506
7.18506
7.18506
7.18506
7.18506
7.18506
7.18506
7.18506
7.18506
7.18506
7.18506
7.18506
7.18506
7.18506
7.18506
7.18506
7.18506
7.18506
7.18506
7.18506
7.18506
7.18506
7.18506
7.18506
7.18506
7.18506
7.18506
7.18506
7.18506
7.18506
7.18506
7.18506
7.18506
7.18506
7.18506
7.18506
7.18506
7.18506
7.18506
7.18506
7.18506
7.18506
7.18506
7.18506
7.18506
7.18506
7.18506
7.18506
7.18506
7.18506
7.18506
7.18506
7.18506
7.18506
7.18506
7.18506
7.18506
7.18506
7.18506
7.18506
7.18506
7.18506
7.18506
7.18506
7.18506
7.18506
7.18506
7.18506
7.18506
7.18506
7.18506
7.18506
7.18506
7.18506
7.18506
7.18506
7.18506
7.18506
7.18506
7.18506
7.18506
7.18506
7.18506
7.18506
7.18506
7.18506
7.18506
7.18506
7.18506
7.18506
7.18506
7.18506
7.18506
7.18506
7.18506
7.18506
7.18506
7.18506
7.18506
7.18506
7.18506
7.18506
7.18506
7.18506
7.18506
7.18506
7.18506
7.18506
7.18506
7.18506
7.18506
7.18506
7.18506
7.18506
7.18506
7.18506
7.18506
7.18506
7.18506
7.18506
7.18506
7.18506
7.18506
7.18506
7.18506
7.18506
7.18506
7.18506
7.18506
7.18506
7.18506
7.18506
7.18506
7.18506
7.18506
7.18506
7.18506
7.18506
7.18506
7.18506
7.18506
7.18506
7.18506
7.18506
7.18506
7.18506
7.18506
7.18506
7.18506
7.18506
7.18506
7.18506
7.18506
7.18506
7.18506
7.18506
7.18506
7.18506
7.18506
7.18506
7.18506
7.18506
7.18506
7.18506
7.18506
7.18506
7.18506
7.18506
7.18506
7.18506
7.18506
7.18506
7.18506
7.18506
7.18506
7.18506
7.18506
7.18506
7.18506
7.18506
7.18506
7.18506
7.18506
7.18506
7.18506
7.18506
7.18506
7.18506
7.18506
7.18506
7.18506
7.18506
7.18506
7.18506
7.18506
7.18506
7.18506
7.18506
7.18506
7.18506
7.18506
7.18506
7.18506
7.18506
7.18506
7.18506
7.18506
7.18506
7.18506
7.18506
7.18506
7.18506
7.18506
7.18506
7.18506
7.18506
7.18506
7.18506
7.18506
7.18506
7.18506
7.18506
7.18506
7.18506
7.18506
7.18506
7.18506
7.18506
7.18506
7.18506
7.18506
7.18506
7.18506
7.18506
7.18506
7.18506
7.18506
7.18506
7.18506
7.18506
7.18506
7.18506
7.18506
7.18506
7.18506
7.18506
7.18506
7.18506
7.18506
7.18506
7.18506
7.18506
7.18506
7.18506
7.18506
7.18506
7.18506
7.18506
7.18506
7.18506
7.18506
7.18506
7.18506
7.18506
7.18506
7.18506
7.18506
7.18506
7.18506
7.18506
7.18506
7.18506
7.18506
7.18506
7.18506
7.18506
7.18506
7.18506
7.18506
7.18506
7.18506
7.18506
7.18506
7.18506
7.18506
7.18506
7.18506
7.18506
7.18506
7.18506
7.18506
7.18506
7.18506
7.18506
7.18506
7.18506
7.18506
7.18506
7.18506
7.18506
7.18506
7.18506
7.18506
7.18506
7.18506
7.18506
7.18506
7.18506
7.18506
7.18506
7.18506
7.18506
7.18506
7.18506
7.18506
7.18506
7.18506
7.18506
7.18506
7.18506
7.18506
7.18506
7.18506
7.18506
7.18506
7.18506
7.18506
7.18506
7.18506
7.18506
7.18506
7.18506
7.18506
7.18506
7.18506
7.18506
7.18506
7.18506
7.18506
7.18506
7.18506
7.18506
7.18506
7.18506
7.18506
7.18506
7.18506
7.18506
7.18506
7.18506
7.18506
7.18506
7.18506
7.18506
7.18506
7.18506
7.18506
7.18506
7.18506
7.18506
7.18506
7.18506
7.18506
7.18506
7.18506
7.18506
7.18506
7.18506
7.18506
7.18506
7.18506
7.18506
7.18506
7.18506
7.18506
7.18506
7.18506
7.18506
7.18506
7.18506
7.18506
7.18506
7.18506
7.18506
7.18506
7.18506
7.18506
7.18506
7.18506
7.18506
7.18506
7.18506
7.18506
7.18506
7.18506
7.18506
7.18506
7.18506
7.18506
7.18506
7.18506
7.18506
7.18506
7.18506
7.18506
7.18506
7.18506
7.18506
7.18506
7.18506
7.18506
7.18506
7.18506
7.18506
7.18506
7.18506
7.18506
7.18506
7.18506
7.18506
7.18506
7.18506
7.18506
7.18506
7.18506
7.18506
7.18506
7.18506
7.18506
7.18506
7.18506
7.18506
7.18506
7.18506
7.18506
7.18506
7.18506
7.18506
7.18506
7.18506
7.18506
7.18506
7.18506
7.18506
7.18506
7.18506
7.18506
7.18506
7.18506
7.18506
7.18506
7.18506
7.18506
7.18506
7.18506
7.18506
7.18506
7.18506
7.18506
7.18506
7.18506
7.18506
7.18506
7.18506
7.18506
7.18506
7.18506
7.18506
7.18506
7.18506
7.18506
7.18506
7.18506
7.18506
7.18506
7.18506
7.18506
7.18506
7.18506
7.18506
7.18506
7.18506
7.18506
7.18506
7.18506
7.18506
7.18506
7.18506
7.18506
7.18506
7.18506
7.18506
7.18506
7.18506
7.18506
7.18506
7.18506
7.18506
7.18506
7.18506
7.18506
7.18506
7.18506
7.18506
7.18506
7.18506
7.18506
7.18506
7.18506
7.18506
7.18506
7.18506
7.18506
7.18506
7.18506
7.18506
7.18506
7.18506
7.18506
7.18506
7.18506
7.18506
7.18506
7.18506
7.18506
7.18506
7.18506
7.18506
7.18506
7.18506
7.18506
7.18506
7.18506
7.18506
7.18506
7.18506
7.18506
7.18506
7.18506
7.18506
7.18506
7.18506
7.18506
7.18506
7.18506
7.18506
7.18506
7.18506
7.18506
7.18506
7.18506
7.18506
7.18506
7.18506
7.18506
7.18506
7.18506
7.18506
7.18506
7.18506
7.18506
7.18506
7.18506
7.18506
7.18506
7.18506
7.18506
7.18506
7.18506
7.18506
7.18506
7.18506
7.18506
7.18506
7.18506
7.18506
7.18506
7.18506
7.18506
7.18506
7.18506
7.18506
7.18506
7.18506
7.18506
7.18506
7.18506
7.18506
7.18506
7.18506
7.18506
7.18506
7.18506
7.18506
7.18506
7.18506
7.18506
7.18506
7.18506
7.18506
7.18506
7.18506
7.18506
7.18506
7.18506
7.18506
7.18506
7.18506
7.18506
7.18506
7.18506
7.18506
7.18506
7.18506
7.18506
7.18506
7.18506
7.18506
7.18506
7.18506
7.18506
7.18506
7.18506
7.18506
7.18506
7.18505
7.18505
7.18505
7.18505
7.18505
7.18505
7.18505
7.18504
7.18504
7.18504
7.18503
7.18506
7.18506
7.18506
7.18506
7.18506
7.18506
7.18506
7.18506
7.18506
7.18506
7.18506
7.18506
7.18506
7.18506
7.18506
7.18506
7.18506
7.18506
7.18506
7.18506
7.18506
7.18506
7.18506
7.18506
7.18506
7.18506
7.18506
7.18506
7.18506
7.18506
7.18506
7.18506
7.18506
7.18506
7.18506
7.18506
7.18506
7.18506
7.18506
7.18506
7.18506
7.18506
7.18506
7.18506
7.18506
7.18506
7.18506
7.18506
7.18506
7.18506
7.18506
7.18506
7.18506
7.18506
7.18506
7.18506
7.18506
7.18506
7.18506
7.18506
7.18506
7.18506
7.18506
7.18506
7.18506
7.18506
7.18506
7.18506
7.18506
7.18506
7.18506
7.18506
7.18506
7.18506
7.18506
7.18506
7.18506
7.18506
7.18506
7.18506
7.18506
7.18506
7.18506
7.18505
7.18505
7.18505
7.18505
7.18505
7.18505
7.18505
7.18505
7.18504
7.18504
7.18504
7.18504
7.18503
7.18503
7.18503
7.18502
7.18502
7.18501
7.18501
7.185
7.18499
7.18498
7.18497
7.18496
7.18495
7.18494
7.18492
7.18491
7.18489
7.18486
7.18506
7.18506
7.18506
7.18506
7.18506
7.18506
7.18506
7.18506
7.18506
7.18506
7.18506
7.18506
7.18506
7.18506
7.18506
7.18506
7.18506
7.18506
7.18506
7.18506
7.18506
7.18506
7.18506
7.18506
7.18506
7.18506
7.18506
7.18506
7.18506
7.18506
7.18506
7.18506
7.18506
7.18506
7.18506
7.18506
7.18506
7.18506
7.18506
7.18506
7.18506
7.18506
7.18506
7.18506
7.18506
7.18506
7.18506
7.18506
7.18506
7.18506
7.18506
7.18506
7.18506
7.18506
7.18506
7.18506
7.18506
7.18506
7.18505
7.18505
7.18505
7.18505
7.18505
7.18505
7.18505
7.18505
7.18505
7.18505
7.18505
7.18505
7.18505
7.18504
7.18504
7.18504
7.18504
7.18504
7.18504
7.18503
7.18503
7.18503
7.18502
7.18502
7.18502
7.18501
7.18501
7.185
7.185
7.18499
7.18498
7.18498
7.18497
7.18496
7.18495
7.18493
7.18492
7.1849
7.18489
7.18487
7.18485
7.18482
7.18479
7.18476
7.18473
7.18468
7.18464
7.18459
7.18453
7.18447
7.1844
7.18432
7.18422
7.18412
7.18399
7.18506
7.18506
7.18506
7.18506
7.18506
7.18506
7.18506
7.18506
7.18506
7.18506
7.18506
7.18506
7.18506
7.18506
7.18506
7.18506
7.18506
7.18506
7.18506
7.18506
7.18506
7.18506
7.18506
7.18506
7.18505
7.18505
7.18505
7.18505
7.18505
7.18505
7.18505
7.18505
7.18505
7.18505
7.18505
7.18505
7.18505
7.18505
7.18505
7.18505
7.18505
7.18504
7.18504
7.18504
7.18504
7.18504
7.18504
7.18504
7.18504
7.18504
7.18504
7.18503
7.18503
7.18503
7.18503
7.18503
7.18503
7.18503
7.18502
7.18502
7.18502
7.18502
7.18502
7.18501
7.18501
7.18501
7.185
7.185
7.185
7.18499
7.18499
7.18498
7.18497
7.18497
7.18496
7.18495
7.18495
7.18494
7.18493
7.18492
7.1849
7.18489
7.18487
7.18486
7.18484
7.18482
7.1848
7.18477
7.18474
7.18471
7.18468
7.18464
7.18459
7.18454
7.18448
7.18441
7.18434
7.18426
7.18418
7.18408
7.18397
7.18384
7.1837
7.18353
7.18334
7.18313
7.1829
7.18263
7.18235
7.18203
7.18167
7.18126
7.18078
7.18022
7.17956
7.18506
7.18505
7.18505
7.18505
7.18505
7.18505
7.18505
7.18505
7.18505
7.18505
7.18505
7.18504
7.18504
7.18504
7.18504
7.18504
7.18504
7.18504
7.18503
7.18503
7.18503
7.18503
7.18503
7.18502
7.18502
7.18502
7.18502
7.18502
7.18501
7.18501
7.18501
7.18501
7.185
7.185
7.185
7.185
7.18499
7.18499
7.18499
7.18499
7.18498
7.18498
7.18498
7.18497
7.18497
7.18496
7.18496
7.18495
7.18495
7.18494
7.18494
7.18493
7.18493
7.18492
7.18491
7.18491
7.1849
7.18489
7.18488
7.18488
7.18487
7.18486
7.18484
7.18483
7.18482
7.1848
7.18479
7.18477
7.18475
7.18473
7.18471
7.18468
7.18466
7.18463
7.1846
7.18456
7.18452
7.18448
7.18443
7.18437
7.18431
7.18424
7.18416
7.18408
7.18399
7.18389
7.18378
7.18366
7.18352
7.18337
7.18319
7.18299
7.18276
7.1825
7.18222
7.1819
7.18155
7.18117
7.18075
7.18027
7.17973
7.1791
7.17836
7.17751
7.17653
7.17544
7.17423
7.17289
7.17143
7.16983
7.16802
7.16594
7.16349
7.16061
7.15726
7.15343
7.18504
7.18504
7.18504
7.18503
7.18503
7.18503
7.18503
7.18502
7.18502
7.18502
7.18501
7.18501
7.18501
7.185
7.185
7.18499
7.18499
7.18498
7.18498
7.18497
7.18497
7.18496
7.18495
7.18495
7.18494
7.18493
7.18493
7.18492
7.18491
7.18491
7.1849
7.18489
7.18488
7.18487
7.18486
7.18485
7.18484
7.18483
7.18482
7.18481
7.1848
7.18479
7.18478
7.18477
7.18475
7.18474
7.18473
7.18471
7.1847
7.18468
7.18467
7.18465
7.18463
7.18461
7.1846
7.18457
7.18455
7.18453
7.1845
7.18448
7.18445
7.18442
7.18439
7.18436
7.18433
7.18429
7.18425
7.18421
7.18416
7.18411
7.18405
7.18398
7.18391
7.18383
7.18375
7.18366
7.18356
7.18346
7.18334
7.18322
7.18309
7.18294
7.18278
7.18259
7.18239
7.18215
7.18189
7.18159
7.18127
7.18091
7.18052
7.18009
7.17963
7.17912
7.17854
7.17789
7.17715
7.17629
7.1753
7.17417
7.17291
7.1715
7.16996
7.16826
7.16641
7.16437
7.16207
7.15941
7.15632
7.15273
7.1486
7.14394
7.13872
7.13295
7.12663
7.11973
7.11216
7.10366
7.0937
7.0818
7.06768
7.05129
7.03274
7.18497
7.18496
7.18495
7.18494
7.18493
7.18492
7.18491
7.18489
7.18488
7.18487
7.18485
7.18483
7.18482
7.1848
7.18478
7.18476
7.18474
7.18472
7.1847
7.18468
7.18466
7.18463
7.18461
7.18458
7.18455
7.18453
7.1845
7.18447
7.18444
7.1844
7.18437
7.18434
7.1843
7.18426
7.18423
7.18419
7.18415
7.18411
7.18406
7.18402
7.18398
7.18393
7.18388
7.18384
7.18379
7.18373
7.18368
7.18362
7.18356
7.18349
7.18343
7.18335
7.18327
7.18319
7.1831
7.18301
7.18291
7.18281
7.1827
7.18259
7.18247
7.18234
7.18221
7.18207
7.18192
7.18176
7.18158
7.18139
7.18117
7.18094
7.18067
7.18039
7.18008
7.17974
7.17936
7.17896
7.17853
7.17806
7.17756
7.17701
7.17641
7.17575
7.175
7.17415
7.17318
7.17208
7.17084
7.16946
7.16793
7.16626
7.16443
7.16245
7.1603
7.15793
7.15528
7.15226
7.14878
7.14476
7.14019
7.13502
7.12924
7.12285
7.11584
7.1082
7.09987
7.09071
7.08031
7.06816
7.05385
7.0372
7.01819
6.99693
6.97352
6.94811
6.92081
6.89169
6.86038
6.82551
6.78485
6.73697
6.68179
6.62006
6.55284
7.18466
7.18463
7.18459
7.18455
7.18451
7.18446
7.18441
7.18436
7.18431
7.18425
7.18419
7.18412
7.18406
7.18399
7.18391
7.18384
7.18376
7.18368
7.18359
7.1835
7.18341
7.18332
7.18322
7.18312
7.18301
7.1829
7.18278
7.18266
7.18254
7.18241
7.18227
7.18213
7.18199
7.18183
7.18168
7.18152
7.18135
7.18119
7.18101
7.18084
7.18066
7.18047
7.18028
7.18009
7.17988
7.17967
7.17944
7.1792
7.17895
7.17867
7.17839
7.17808
7.17776
7.17741
7.17705
7.17667
7.17626
7.17584
7.17538
7.17491
7.17441
7.17388
7.17332
7.17273
7.17209
7.1714
7.17064
7.16979
7.16884
7.16779
7.16662
7.16534
7.16395
7.16243
7.16078
7.159
7.15709
7.15502
7.15281
7.15041
7.14778
7.14485
7.14152
7.13774
7.13344
7.12859
7.12317
7.11717
7.11056
7.10333
7.09548
7.08698
7.07777
7.06768
7.05632
7.04322
7.02798
7.01041
6.99047
6.9682
6.94369
6.91706
6.8884
6.85783
6.82525
6.78994
6.75015
6.70412
6.65114
6.59153
6.52606
6.45566
6.38123
6.30372
6.22395
6.14226
6.05857
5.96902
5.86541
5.74697
5.61868
5.48607
5.35321
7.18344
7.1833
7.18315
7.18299
7.18282
7.18264
7.18245
7.18225
7.18204
7.18182
7.18158
7.18133
7.18107
7.18079
7.1805
7.1802
7.17988
7.17956
7.17922
7.17887
7.17851
7.17814
7.17775
7.17735
7.17693
7.17649
7.17604
7.17557
7.17508
7.17457
7.17404
7.1735
7.17293
7.17235
7.17175
7.17113
7.1705
7.16985
7.16918
7.16849
7.16779
7.16707
7.16633
7.16556
7.16475
7.16389
7.16297
7.16199
7.16094
7.15982
7.15863
7.15736
7.15601
7.15459
7.15308
7.15149
7.14981
7.14804
7.14618
7.14423
7.14217
7.14
7.13771
7.13527
7.13264
7.12975
7.12654
7.12298
7.11903
7.11466
7.10986
7.10461
7.09889
7.09268
7.08596
7.07872
7.07094
7.06259
7.05362
7.04395
7.03335
7.02143
7.00782
6.99223
6.97453
6.9547
6.93278
6.90881
6.88286
6.855
6.8253
6.7938
6.76034
6.72419
6.68378
6.63766
6.58523
6.52671
6.46271
6.39397
6.32125
6.24532
6.16699
6.0868
6.00491
5.92023
5.82684
5.72062
5.60366
5.48048
5.35504
5.23019
5.10805
4.99
4.87687
4.76905
4.66495
4.56016
4.43731
4.30388
4.17058
4.04403
3.9272
3.82126
3.72638
7.17868
7.17813
7.17754
7.17692
7.17626
7.17557
7.17483
7.17405
7.17323
7.17237
7.17145
7.17049
7.16949
7.16844
7.16735
7.16621
7.16504
7.16382
7.16256
7.16126
7.15991
7.15852
7.15706
7.15555
7.15397
7.15231
7.15058
7.14877
7.14689
7.14493
7.14289
7.14079
7.13861
7.13637
7.13407
7.1317
7.12928
7.1268
7.12427
7.12168
7.11904
7.11632
7.11351
7.11057
7.10746
7.10415
7.10062
7.09685
7.09284
7.08857
7.08404
7.07923
7.07414
7.06876
7.06307
7.05707
7.05075
7.04409
7.03709
7.02973
7.022
7.01388
7.00531
6.99618
6.98628
6.97533
6.96311
6.94946
6.93433
6.91769
6.89955
6.87992
6.85878
6.83615
6.81202
6.78638
6.75924
6.73059
6.70036
6.66821
6.63327
6.59423
6.55021
6.50099
6.44683
6.38818
6.32555
6.25945
6.19043
6.119
6.0457
5.97082
5.89434
5.81506
5.72802
5.63045
5.52399
5.41196
5.29742
5.18268
5.06947
4.9591
4.85247
4.75024
4.65193
4.55559
4.45097
4.33379
4.21243
4.09382
3.98174
3.87799
3.78335
3.69792
3.62134
3.55296
3.49253
3.43991
3.39559
3.35779
3.32496
3.29617
3.27096
3.2491
3.2303
7.16053
7.15848
7.15631
7.15402
7.1516
7.14904
7.14632
7.14345
7.14042
7.13721
7.13384
7.13029
7.12657
7.1227
7.11867
7.11449
7.11018
7.10574
7.10116
7.09646
7.0916
7.08656
7.08132
7.07587
7.07018
7.06426
7.05811
7.05172
7.0451
7.03825
7.03117
7.02388
7.01638
7.00867
7.00077
6.99268
6.98442
6.97599
6.96741
6.95868
6.94976
6.94062
6.93111
6.9211
6.91045
6.89906
6.88687
6.87386
6.86002
6.84537
6.82991
6.81364
6.79656
6.77867
6.75996
6.74043
6.72006
6.69886
6.6768
6.65388
6.63008
6.60536
6.57959
6.55235
6.52286
6.4904
6.45461
6.41549
6.37318
6.32787
6.27976
6.22904
6.17588
6.12049
6.06305
6.00378
5.94288
5.88053
5.8167
5.75107
5.68159
5.60475
5.51993
5.42878
5.33349
5.23597
5.13773
5.03998
4.94364
4.84944
4.75786
4.66929
4.58321
4.49786
4.40439
4.30129
4.19472
4.08962
3.98898
3.89446
3.8068
3.7264
3.65343
3.5876
3.5284
3.47574
3.43014
3.3911
3.35711
3.32708
3.30045
3.27691
3.25626
3.23825
3.22257
3.20911
3.19789
3.18882
3.18164
3.17586
3.17093
3.16626
3.16167
3.15736
3.15331
7.10148
7.09454
7.08722
7.0795
7.07138
7.06281
7.05379
7.04429
7.0343
7.02382
7.01286
7.00143
6.98955
6.97724
6.96451
6.9514
6.93793
6.92413
6.91003
6.89561
6.88084
6.86562
6.84987
6.83353
6.81654
6.79888
6.78058
6.76165
6.74214
6.7221
6.70156
6.68058
6.6592
6.63747
6.61544
6.59313
6.57061
6.54789
6.52502
6.502
6.47885
6.45549
6.43169
6.40699
6.38098
6.35347
6.32439
6.29377
6.26169
6.22823
6.19345
6.1574
6.12014
6.08172
6.0422
6.00164
5.96009
5.9176
5.87423
5.83002
5.785
5.73925
5.6927
5.6452
5.59607
5.54319
5.48531
5.4227
5.35632
5.28715
5.216
5.14349
5.07019
4.99653
4.92293
4.84971
4.77716
4.7055
4.63493
4.5656
4.4966
4.42544
4.34554
4.25988
4.17228
4.08549
4.0013
3.92087
3.84488
3.77375
3.7077
3.64677
3.59082
3.53958
3.49301
3.45179
3.4155
3.38308
3.35393
3.32771
3.30419
3.28317
3.26455
3.24818
3.23383
3.22144
3.21099
3.2025
3.19559
3.18967
3.1843
3.17916
3.17414
3.16935
3.16487
3.1605
3.15633
3.15239
3.14902
3.14638
3.14431
3.14275
3.14151
3.14029
3.13893
3.13746
6.89673
6.87512
6.85262
6.8292
6.80477
6.77926
6.75264
6.72488
6.69603
6.66614
6.63529
6.60358
6.57115
6.5381
6.50456
6.47065
6.4365
6.40221
6.36789
6.33347
6.2987
6.26331
6.22716
6.19023
6.15255
6.11421
6.07534
6.03604
5.99642
5.95658
5.91662
5.87661
5.83667
5.79687
5.75728
5.71799
5.67905
5.64053
5.60244
5.56481
5.52759
5.4906
5.4534
5.41478
5.37412
5.33142
5.28697
5.24114
5.19424
5.14653
5.09821
5.04943
5.00034
4.95107
4.90173
4.85239
4.80316
4.75408
4.70523
4.65665
4.60838
4.56046
4.51295
4.46557
4.41748
4.36487
4.30721
4.24657
4.18465
4.12253
4.06097
4.0005
3.94154
3.8844
3.82933
3.77653
3.72613
3.67821
3.63287
3.59006
3.54978
3.51238
3.4785
3.44753
3.41905
3.3928
3.36864
3.34646
3.32621
3.30782
3.29118
3.27624
3.26288
3.25099
3.24054
3.23154
3.2238
3.21688
3.21042
3.20433
3.19857
3.19301
3.18765
3.18238
3.17745
3.17294
3.16871
3.16503
3.16221
3.15995
3.15809
3.15636
3.15458
3.15265
3.15064
3.14861
3.1466
3.14398
3.1417
3.1399
3.13821
3.13675
3.13586
3.13503
3.13394
3.13288
3.13186
3.13069
6.34024
6.28967
6.23839
6.18624
6.13312
6.07905
6.02416
5.96864
5.91272
5.85662
5.80058
5.7448
5.68947
5.63477
5.58086
5.52788
5.47597
5.42527
5.37579
5.32734
5.27906
5.23046
5.18151
5.13237
5.08328
5.03447
4.98616
4.93851
4.89168
4.84576
4.80085
4.757
4.71428
4.67272
4.63234
4.59314
4.55512
4.51826
4.48253
4.44784
4.41413
4.38115
4.34821
4.31297
4.27546
4.23657
4.19697
4.15709
4.11722
4.07756
4.03827
3.99949
3.9613
3.92381
3.88708
3.85118
3.81615
3.78205
3.74889
3.71672
3.68555
3.65539
3.62625
3.59812
3.57106
3.54564
3.52177
3.49915
3.47758
3.45699
3.43732
3.41857
3.40075
3.38385
3.36789
3.35284
3.3387
3.32548
3.31314
3.30164
3.29102
3.28128
3.27246
3.26439
3.25682
3.2496
3.24267
3.23599
3.22953
3.22324
3.21702
3.2113
3.20598
3.20081
3.19617
3.19216
3.1886
3.18556
3.18286
3.18024
3.17765
3.17507
3.17256
3.16961
3.16658
3.16401
3.16127
3.15823
3.15611
3.15406
3.15242
3.151
3.14969
3.1483
3.14665
3.1451
3.14348
3.14155
3.13934
3.13759
3.13563
3.13399
3.13246
3.1311
3.12984
3.12865
3.1275
3.12633
5.33605
5.26666
5.19851
5.13097
5.06388
4.99741
4.93188
4.86759
4.80485
4.74389
4.68488
4.62795
4.57321
4.52071
4.47048
4.4225
4.3768
4.33337
4.29217
4.25261
4.21275
4.17243
4.13223
4.09263
4.05391
4.01625
3.97979
3.94464
3.91085
3.87846
3.8475
3.81797
3.78986
3.76315
3.7378
3.71379
3.69105
3.66954
3.64918
3.62986
3.61148
3.59389
3.57704
3.56122
3.54627
3.53199
3.51827
3.50504
3.49225
3.47988
3.46792
3.45633
3.44513
3.43428
3.42378
3.41363
3.4038
3.3943
3.38511
3.37623
3.36764
3.35936
3.35135
3.34362
3.3362
3.32914
3.32239
3.31582
3.30931
3.3028
3.29627
3.28979
3.28339
3.27712
3.271
3.26498
3.25913
3.25351
3.24799
3.2427
3.2377
3.23282
3.22832
3.22424
3.22025
3.21652
3.21289
3.20909
3.20558
3.20218
3.19796
3.19453
3.1916
3.18762
3.18434
3.1819
3.17893
3.17623
3.17437
3.17245
3.17039
3.16814
3.16642
3.16454
3.16209
3.15999
3.15777
3.15514
3.1526
3.15033
3.14832
3.14642
3.14474
3.14315
3.14154
3.13997
3.13839
3.1367
3.13492
3.13285
3.13075
3.12877
3.12695
3.12531
3.12381
3.1224
3.12104
3.11969
4.25062
4.19387
4.1393
4.08544
4.03269
3.98156
3.93244
3.88554
3.84101
3.79893
3.75933
3.72221
3.68757
3.65539
3.62559
3.59807
3.57278
3.54969
3.52866
3.50953
3.49242
3.47708
3.46318
3.45051
3.43893
3.42832
3.41863
3.40977
3.40168
3.39432
3.38763
3.38156
3.37606
3.37109
3.36661
3.36256
3.35891
3.35563
3.35268
3.34993
3.34728
3.34469
3.34212
3.33961
3.33715
3.33469
3.33218
3.32958
3.32689
3.3241
3.32122
3.31826
3.3152
3.31205
3.30882
3.3055
3.3021
3.29862
3.29507
3.29145
3.28777
3.28405
3.28029
3.27651
3.27273
3.26903
3.26542
3.2619
3.2584
3.25487
3.25125
3.24764
3.24401
3.24039
3.23684
3.23319
3.22954
3.22615
3.22249
3.21887
3.2157
3.21211
3.20875
3.206
3.20265
3.19981
3.19746
3.19415
3.19163
3.18951
3.18604
3.18331
3.18097
3.17761
3.17476
3.1727
3.16982
3.1673
3.16527
3.16339
3.16149
3.15942
3.15781
3.15618
3.15427
3.15238
3.15012
3.14773
3.14531
3.14291
3.14066
3.13858
3.13666
3.13485
3.13312
3.13142
3.12971
3.12796
3.12614
3.12423
3.12226
3.12029
3.11842
3.11669
3.1151
3.11362
3.11222
3.11086
3.1095
3.44245
3.4153
3.39151
3.37071
3.35253
3.33665
3.32272
3.31052
3.29985
3.29058
3.28256
3.27569
3.26991
3.2651
3.26117
3.25813
3.25604
3.25476
3.25401
3.2536
3.25343
3.25345
3.25359
3.25382
3.25417
3.2546
3.25507
3.2556
3.25619
3.25681
3.25745
3.25809
3.25873
3.25936
3.25998
3.2606
3.2614
3.26234
3.2633
3.26419
3.26496
3.26559
3.26607
3.26642
3.2666
3.26661
3.26641
3.26598
3.26536
3.26453
3.26347
3.26223
3.2608
3.25919
3.25743
3.25552
3.25347
3.25129
3.249
3.2466
3.24411
3.24154
3.23889
3.2362
3.23348
3.23078
3.22812
3.22552
3.22296
3.22042
3.21785
3.21517
3.2125
3.20989
3.2071
3.20441
3.20192
3.19905
3.19635
3.19402
3.1911
3.18852
3.18646
3.18359
3.18135
3.17962
3.17689
3.17493
3.17341
3.17076
3.16848
3.16639
3.16353
3.16104
3.15917
3.15656
3.1542
3.15214
3.15012
3.14831
3.14643
3.14469
3.14303
3.14132
3.13955
3.1377
3.13572
3.13363
3.13148
3.12933
3.12725
3.12527
3.12339
3.12159
3.11984
3.11812
3.11637
3.1146
3.11279
3.11092
3.10901
3.10716
3.10541
3.10379
3.1023
3.1009
3.09956
3.09824
3.1473
3.14411
3.14224
3.14141
3.14123
3.14157
3.14217
3.143
3.14411
3.14544
3.14701
3.14872
3.15057
3.15251
3.1546
3.15695
3.15992
3.16337
3.16693
3.17043
3.17381
3.17709
3.18026
3.18331
3.18622
3.18898
3.19157
3.194
3.19629
3.19842
3.2004
3.20224
3.20399
3.20565
3.20722
3.20868
3.21001
3.21126
3.21249
3.21371
3.21488
3.21597
3.21695
3.21779
3.2185
3.21906
3.21945
3.21966
3.21968
3.21954
3.21917
3.21865
3.21796
3.2171
3.21608
3.21492
3.21363
3.21222
3.2107
3.20907
3.20735
3.20555
3.20368
3.20175
3.19978
3.1978
3.19584
3.19393
3.19208
3.19028
3.18836
3.18627
3.18417
3.18208
3.17981
3.17772
3.17574
3.17337
3.17132
3.16948
3.167
3.16498
3.16333
3.16082
3.1589
3.15744
3.15515
3.15328
3.15185
3.14983
3.14803
3.14657
3.1446
3.1427
3.14075
3.13902
3.13695
3.13508
3.13318
3.13147
3.12978
3.1281
3.1265
3.12493
3.12332
3.12167
3.11993
3.1181
3.11618
3.1142
3.11222
3.11028
3.1084
3.10659
3.10484
3.10311
3.10139
3.09966
3.09789
3.09607
3.09421
3.09239
3.09066
3.08904
3.08755
3.08616
3.08486
3.0836
3.04983
3.05344
3.05757
3.06169
3.06577
3.06977
3.07377
3.07802
3.08171
3.08549
3.08937
3.093
3.09638
3.09996
3.10358
3.10708
3.11037
3.1138
3.11745
3.12118
3.12495
3.12877
3.13259
3.13629
3.13989
3.1434
3.14677
3.14999
3.15305
3.15594
3.15867
3.16124
3.16367
3.16595
3.16808
3.16972
3.17095
3.172
3.173
3.17398
3.17494
3.17586
3.17669
3.17743
3.17806
3.17856
3.17892
3.17913
3.17918
3.17905
3.17877
3.17829
3.17769
3.17695
3.17608
3.17508
3.17397
3.17276
3.17145
3.17006
3.16859
3.16704
3.16542
3.16374
3.16201
3.16028
3.15856
3.1569
3.15532
3.15382
3.15235
3.15093
3.14945
3.14787
3.14647
3.14503
3.14327
3.14191
3.14058
3.13865
3.13723
3.13604
3.13408
3.13248
3.13138
3.12976
3.12793
3.12672
3.12527
3.12382
3.12235
3.12132
3.11972
3.11815
3.11656
3.11516
3.11348
3.11187
3.11024
3.10874
3.10723
3.10573
3.10425
3.10278
3.10126
3.09966
3.09799
3.09624
3.09443
3.09258
3.09073
3.08892
3.08716
3.08544
3.08376
3.08208
3.0804
3.07869
3.07694
3.07515
3.07339
3.07169
3.0701
3.06863
3.06729
3.06604
3.06485
3.00202
3.00612
3.0105
3.01501
3.01968
3.02484
3.03031
3.03473
3.03956
3.04499
3.04998
3.05464
3.05957
3.06432
3.06855
3.07186
3.07531
3.07924
3.08304
3.08693
3.09109
3.09526
3.09905
3.10291
3.1066
3.11013
3.11337
3.11639
3.11917
3.12168
3.12393
3.12592
3.12764
3.12912
3.13047
3.13162
3.13253
3.13327
3.13392
3.13453
3.13511
3.13565
3.13614
3.13657
3.13691
3.13716
3.1373
3.13732
3.13722
3.13699
3.1366
3.13611
3.13552
3.13482
3.13402
3.13314
3.13218
3.13115
3.13005
3.1289
3.12769
3.12644
3.12513
3.12378
3.12241
3.12103
3.11968
3.1184
3.11719
3.11606
3.11502
3.11394
3.11284
3.1119
3.11084
3.10963
3.10873
3.10778
3.10636
3.1054
3.10456
3.10315
3.10184
3.10103
3.09999
3.09837
3.09733
3.09634
3.09507
3.09385
3.09299
3.09194
3.09059
3.08923
3.08817
3.08687
3.0855
3.0841
3.08273
3.08142
3.08009
3.07872
3.07737
3.076
3.07453
3.07298
3.07137
3.06971
3.06799
3.06626
3.06454
3.06286
3.06121
3.0596
3.058
3.05641
3.05479
3.05314
3.05145
3.04977
3.04814
3.0466
3.04518
3.04389
3.04271
3.04161
3.04055
3.03949
2.96547
2.97015
2.97562
2.98048
2.98526
2.99146
2.99702
3.0018
3.00706
3.01275
3.01753
3.02213
3.02665
3.03082
3.03485
3.03838
3.04201
3.04535
3.04864
3.05185
3.0553
3.0588
3.06212
3.06548
3.06879
3.07194
3.07489