/*--------------------------------*- C++ -*----------------------------------*\
| =========                 |                                                 |
| \\      /  F ield         | OpenFOAM: The Open Source CFD Toolbox           |
|  \\    /   O peration     | Version:  v1706                                 |
|   \\  /    A nd           | Web:      www.OpenFOAM.com                      |
|    \\/     M anipulation  |                                                 |
\*---------------------------------------------------------------------------*/
FoamFile
{
    version     2.0;
    format      ascii;
    class       volScalarField;
    location    "3.5e-05";
    object      rho;
}
// * * * * * * * * * * * * * * * * * * * * * * * * * * * * * * * * * * * * * //

dimensions      [1 -3 0 0 0 0 0];


internalField   nonuniform List<scalar> 
29871
(
0.000511309
0.000511309
0.000511309
0.000511309
0.000511309
0.000511309
0.000511309
0.000511309
0.000511309
0.000511309
0.000511309
0.000511309
0.000511309
0.000511309
0.000511309
0.000511309
0.000511309
0.000511309
0.000511309
0.000511309
0.000511309
0.000511309
0.000511309
0.000511309
0.000511309
0.000511309
0.000511309
0.000511309
0.000511309
0.000511309
0.000511309
0.000511309
0.000511309
0.000511309
0.000511309
0.000511309
0.000511309
0.000511309
0.000511309
0.000511309
0.000511309
0.000511309
0.000511309
0.000511309
0.000511309
0.000511309
0.000511309
0.000511309
0.000511309
0.000511309
0.000511309
0.000511309
0.000511309
0.000511309
0.000511309
0.000511309
0.000511309
0.000511309
0.000511309
0.000511309
0.000511309
0.000511309
0.000511309
0.000511309
0.000511309
0.000511309
0.000511309
0.000511309
0.000511309
0.000511309
0.000511309
0.000511309
0.000511309
0.000511309
0.000511309
0.000511309
0.000511309
0.000511309
0.000511309
0.000511309
0.000511309
0.000511309
0.000511309
0.000511309
0.000511309
0.000511309
0.000511309
0.000511309
0.000511309
0.000511309
0.000511309
0.000511309
0.000511309
0.000511309
0.000511309
0.000511309
0.000511309
0.000511309
0.000511309
0.000511309
0.000511309
0.000511309
0.000511309
0.000511309
0.000511309
0.000511309
0.000511309
0.000511309
0.000511309
0.000511309
0.000511309
0.000511309
0.000511309
0.000511309
0.000511309
0.000511309
0.000511309
0.000511309
0.000511309
0.000511309
0.000511309
0.000511309
0.000511309
0.000511309
0.000511309
0.000511309
0.000511309
0.000511309
0.000511309
0.000511309
0.000511309
0.000511309
0.000511309
0.000511309
0.000511309
0.000511309
0.000511309
0.000511309
0.000511309
0.000511309
0.000511309
0.000511309
0.000511309
0.000511309
0.000511309
0.000511309
0.000511309
0.000511309
0.000511309
0.000511309
0.000511309
0.000511309
0.000511309
0.000511309
0.000511309
0.000511309
0.000511309
0.000511309
0.000511309
0.000511309
0.000511309
0.000511309
0.000511309
0.000511309
0.000511309
0.000511309
0.000511309
0.000511309
0.000511309
0.000511309
0.000511309
0.000511309
0.000511309
0.000511309
0.000511309
0.000511309
0.000511309
0.000511309
0.000511309
0.000511309
0.000511309
0.000511309
0.000511309
0.000511309
0.000511309
0.000511309
0.000511309
0.000511309
0.000511309
0.000511309
0.000511309
0.000511309
0.000511309
0.000511309
0.000511309
0.000511309
0.000511309
0.000511309
0.000511309
0.000511309
0.000511309
0.000511309
0.000511309
0.000511309
0.000511309
0.000511309
0.000511309
0.000511309
0.000511309
0.000511309
0.000511309
0.000511309
0.000511309
0.000511309
0.000511309
0.000511309
0.000511309
0.000511309
0.000511309
0.000511309
0.000511309
0.000511309
0.000511309
0.000511309
0.000511309
0.000511309
0.000511309
0.000511309
0.000511309
0.000511309
0.000511309
0.000511309
0.000511309
0.000511309
0.000511309
0.000511309
0.000511309
0.000511309
0.000511309
0.000511309
0.000511309
0.000511309
0.000511309
0.000511309
0.000511309
0.000511309
0.000511309
0.000511309
0.000511309
0.000511309
0.000511309
0.000511309
0.000511309
0.000511309
0.000511309
0.000511309
0.000511309
0.000511309
0.000511309
0.000511309
0.000511309
0.000511309
0.000511309
0.000511309
0.000511309
0.000511309
0.000511309
0.000511309
0.000511309
0.000511309
0.000511309
0.000511309
0.000511309
0.000511309
0.000511309
0.000511309
0.000511309
0.000511309
0.000511309
0.000511309
0.000511309
0.000511309
0.000511309
0.000511309
0.000511309
0.000511309
0.000511309
0.000511309
0.000511309
0.000511309
0.000511309
0.000511309
0.000511309
0.000511309
0.000511309
0.000511309
0.000511309
0.000511309
0.000511309
0.000511309
0.000511309
0.000511309
0.000511309
0.000511309
0.000511309
0.000511309
0.000511309
0.000511309
0.000511309
0.000511309
0.000511309
0.000511309
0.000511309
0.000511309
0.000511309
0.000511309
0.000511309
0.000511309
0.000511309
0.000511309
0.000511309
0.000511309
0.000511309
0.000511309
0.000511309
0.000511309
0.000511309
0.000511309
0.000511309
0.000511309
0.000511309
0.000511309
0.000511309
0.000511309
0.000511309
0.000511309
0.000511309
0.000511309
0.000511309
0.000511309
0.000511309
0.000511309
0.000511309
0.000511309
0.000511309
0.000511309
0.000511309
0.000511309
0.000511309
0.000511309
0.000511309
0.000511309
0.000511309
0.000511309
0.000511309
0.000511309
0.000511309
0.000511309
0.000511309
0.000511309
0.000511309
0.000511309
0.000511309
0.000511309
0.000511309
0.000511309
0.000511309
0.000511309
0.000511309
0.000511309
0.000511309
0.000511309
0.000511309
0.000511309
0.000511309
0.000511309
0.000511309
0.000511309
0.000511309
0.000511309
0.000511309
0.000511309
0.000511309
0.000511309
0.000511309
0.000511309
0.000511309
0.000511309
0.000511309
0.000511309
0.000511309
0.000511309
0.000511309
0.000511309
0.000511309
0.000511309
0.000511309
0.000511309
0.000511309
0.000511309
0.000511309
0.000511309
0.000511309
0.000511309
0.000511309
0.000511309
0.000511309
0.000511309
0.000511309
0.000511309
0.000511309
0.000511309
0.000511309
0.000511309
0.000511309
0.000511309
0.000511309
0.000511309
0.000511309
0.000511309
0.000511309
0.000511309
0.000511309
0.000511309
0.000511309
0.000511309
0.000511309
0.000511309
0.000511309
0.000511309
0.000511309
0.000511309
0.000511309
0.000511309
0.000511309
0.000511309
0.000511309
0.000511309
0.000511309
0.000511309
0.000511309
0.000511309
0.000511309
0.000511309
0.000511309
0.000511309
0.000511309
0.000511309
0.000511309
0.000511309
0.000511309
0.000511309
0.000511309
0.000511309
0.000511309
0.000511309
0.000511309
0.000511309
0.000511309
0.000511309
0.000511309
0.000511309
0.000511309
0.000511309
0.000511309
0.000511309
0.000511309
0.000511309
0.000511309
0.000511309
0.000511309
0.000511309
0.000511309
0.000511309
0.000511309
0.000511309
0.000511309
0.000511309
0.000511309
0.000511309
0.000511309
0.000511309
0.000511309
0.000511309
0.000511309
0.000511309
0.000511309
0.000511309
0.000511309
0.000511309
0.000511309
0.000511309
0.000511309
0.000511309
0.000511309
0.000511309
0.000511309
0.000511309
0.000511309
0.000511309
0.000511309
0.000511309
0.000511309
0.000511309
0.000511309
0.000511309
0.000511309
0.000511309
0.000511309
0.000511309
0.000511309
0.000511309
0.000511309
0.000511309
0.000511309
0.000511309
0.000511309
0.000511309
0.000511309
0.000511309
0.000511309
0.000511309
0.000511309
0.000511309
0.000511309
0.000511309
0.000511309
0.000511309
0.000511309
0.000511309
0.000511309
0.000511309
0.000511309
0.000511309
0.000511309
0.000511309
0.000511309
0.000511309
0.000511309
0.000511309
0.000511309
0.000511309
0.000511309
0.000511309
0.000511309
0.000511309
0.000511309
0.000511309
0.000511309
0.000511309
0.000511309
0.000511309
0.000511309
0.000511309
0.000511309
0.000511309
0.000511309
0.000511309
0.000511309
0.000511309
0.000511309
0.000511309
0.000511309
0.000511309
0.000511309
0.000511309
0.000511309
0.000511309
0.000511309
0.000511309
0.000511309
0.000511309
0.000511309
0.000511309
0.000511309
0.000511309
0.000511309
0.000511309
0.000511309
0.000511309
0.000511309
0.000511309
0.000511309
0.000511309
0.000511309
0.000511309
0.000511309
0.000511309
0.000511309
0.000511309
0.000511309
0.000511309
0.000511309
0.000511309
0.000511309
0.000511309
0.000511309
0.000511309
0.000511309
0.000511309
0.000511309
0.000511309
0.000511309
0.000511309
0.000511309
0.000511309
0.000511309
0.000511309
0.000511309
0.000511309
0.000511309
0.000511309
0.000511309
0.000511309
0.000511309
0.000511309
0.000511309
0.000511309
0.000511309
0.000511309
0.000511309
0.000511309
0.000511309
0.000511309
0.000511309
0.000511309
0.000511309
0.000511309
0.000511309
0.000511309
0.000511309
0.000511309
0.000511309
0.000511309
0.000511309
0.000511309
0.000511309
0.000511309
0.000511309
0.000511309
0.000511309
0.000511309
0.000511309
0.000511309
0.000511309
0.000511309
0.000511309
0.000511309
0.000511309
0.000511309
0.000511309
0.000511309
0.000511309
0.000511309
0.000511309
0.000511309
0.000511309
0.000511309
0.000511309
0.000511309
0.000511309
0.000511309
0.000511309
0.000511309
0.000511309
0.000511309
0.000511309
0.000511309
0.000511309
0.000511309
0.000511309
0.000511309
0.000511309
0.000511309
0.000511309
0.000511309
0.000511309
0.000511309
0.000511309
0.000511309
0.000511309
0.000511309
0.000511309
0.000511309
0.000511309
0.000511309
0.000511309
0.000511309
0.000511309
0.000511309
0.000511309
0.000511309
0.000511309
0.000511309
0.000511309
0.000511309
0.000511309
0.000511309
0.000511309
0.000511309
0.000511309
0.000511309
0.000511309
0.000511309
0.000511309
0.000511309
0.000511309
0.000511309
0.000511309
0.000511309
0.000511309
0.000511309
0.000511309
0.000511309
0.000511309
0.000511309
0.000511309
0.000511309
0.000511309
0.000511309
0.000511309
0.000511309
0.000511309
0.000511309
0.000511309
0.000511309
0.000511309
0.000511309
0.000511309
0.000511309
0.000511309
0.000511309
0.000511309
0.000511309
0.000511309
0.000511309
0.000511309
0.000511309
0.000511309
0.000511309
0.000511309
0.000511309
0.000511309
0.000511309
0.000511309
0.000511309
0.000511309
0.000511309
0.000511309
0.000511309
0.000511309
0.000511309
0.000511309
0.000511309
0.000511309
0.000511309
0.000511309
0.000511309
0.000511309
0.000511309
0.000511309
0.000511309
0.000511309
0.000511309
0.000511309
0.000511309
0.000511309
0.000511309
0.000511309
0.000511309
0.000511309
0.000511309
0.000511309
0.000511309
0.000511309
0.000511309
0.000511309
0.000511309
0.000511309
0.000511309
0.000511309
0.000511309
0.000511309
0.000511309
0.000511309
0.000511309
0.000511309
0.000511309
0.000511309
0.000511309
0.000511309
0.000511309
0.000511309
0.000511309
0.000511309
0.000511309
0.000511309
0.000511309
0.000511309
0.000511309
0.000511309
0.000511309
0.000511309
0.000511309
0.000511309
0.000511309
0.000511309
0.000511309
0.000511309
0.000511309
0.000511309
0.000511309
0.000511309
0.000511309
0.000511309
0.000511309
0.000511309
0.000511309
0.000511309
0.000511309
0.000511309
0.000511309
0.000511309
0.000511309
0.000511309
0.000511309
0.000511309
0.000511309
0.000511309
0.000511309
0.000511309
0.000511309
0.000511309
0.000511309
0.000511309
0.000511309
0.000511309
0.000511309
0.000511309
0.000511309
0.000511309
0.000511309
0.000511309
0.000511309
0.000511309
0.000511309
0.000511309
0.000511309
0.000511309
0.000511309
0.000511309
0.000511309
0.000511309
0.000511309
0.000511309
0.000511309
0.000511309
0.000511309
0.000511309
0.000511309
0.000511309
0.000511309
0.000511309
0.000511309
0.000511309
0.000511309
0.000511309
0.000511309
0.000511309
0.000511309
0.000511309
0.000511309
0.000511309
0.000511309
0.000511309
0.000511309
0.000511309
0.000511309
0.000511309
0.000511309
0.000511309
0.000511309
0.000511309
0.000511309
0.000511309
0.000511309
0.000511309
0.000511309
0.000511309
0.000511309
0.000511309
0.000511309
0.000511309
0.000511309
0.000511309
0.000511309
0.000511309
0.000511309
0.000511309
0.000511309
0.000511309
0.000511309
0.000511309
0.000511309
0.000511309
0.000511309
0.000511309
0.000511309
0.000511309
0.000511309
0.000511309
0.000511309
0.000511309
0.000511309
0.000511309
0.000511309
0.000511309
0.000511309
0.000511309
0.000511309
0.000511309
0.000511309
0.000511309
0.000511309
0.000511309
0.000511309
0.000511309
0.000511309
0.000511309
0.000511309
0.000511309
0.000511309
0.000511309
0.000511309
0.000511309
0.000511309
0.000511309
0.000511309
0.000511309
0.000511309
0.000511309
0.000511309
0.000511309
0.000511309
0.000511309
0.000511309
0.000511309
0.000511309
0.000511309
0.000511309
0.000511309
0.000511309
0.000511309
0.000511309
0.000511309
0.000511309
0.000511309
0.000511309
0.000511309
0.000511309
0.000511309
0.000511309
0.000511309
0.000511309
0.000511309
0.000511309
0.000511309
0.000511309
0.000511309
0.000511309
0.000511309
0.000511309
0.000511309
0.000511309
0.000511309
0.000511309
0.000511309
0.000511309
0.000511309
0.000511309
0.000511309
0.000511309
0.000511309
0.000511309
0.000511309
0.000511309
0.000511309
0.000511309
0.000511309
0.000511309
0.000511309
0.000511309
0.000511309
0.000511309
0.000511309
0.000511309
0.000511309
0.000511309
0.000511309
0.000511309
0.000511309
0.000511309
0.000511309
0.000511309
0.000511309
0.000511309
0.000511309
0.000511309
0.000511309
0.000511309
0.000511309
0.000511309
0.000511309
0.000511309
0.000511309
0.000511309
0.000511309
0.000511309
0.000511309
0.000511309
0.000511309
0.000511309
0.000511309
0.000511309
0.000511309
0.000511309
0.000511309
0.000511309
0.000511309
0.000511309
0.000511309
0.000511309
0.000511309
0.000511309
0.000511309
0.000511309
0.000511309
0.000511309
0.000511309
0.000511309
0.000511309
0.000511309
0.000511309
0.000511309
0.000511309
0.000511309
0.000511309
0.000511309
0.000511309
0.000511309
0.000511309
0.000511309
0.000511309
0.000511309
0.000511309
0.000511309
0.000511309
0.000511309
0.000511309
0.000511309
0.000511309
0.000511309
0.000511309
0.000511309
0.000511309
0.000511309
0.000511309
0.000511309
0.000511309
0.000511309
0.000511309
0.000511309
0.000511309
0.000511309
0.000511309
0.000511309
0.000511309
0.000511309
0.000511309
0.000511309
0.000511309
0.000511309
0.000511309
0.000511309
0.000511309
0.000511309
0.000511309
0.000511309
0.000511309
0.000511309
0.000511309
0.000511309
0.000511309
0.000511309
0.000511309
0.000511309
0.000511309
0.000511309
0.000511309
0.000511309
0.000511309
0.000511309
0.000511309
0.000511309
0.000511309
0.000511309
0.000511309
0.000511309
0.000511309
0.000511309
0.000511309
0.000511309
0.000511309
0.000511309
0.000511309
0.000511309
0.000511309
0.000511309
0.000511309
0.000511309
0.000511309
0.000511309
0.000511309
0.000511309
0.000511309
0.000511309
0.000511309
0.000511309
0.000511309
0.000511309
0.000511309
0.000511309
0.000511309
0.000511309
0.000511309
0.000511309
0.000511309
0.000511309
0.000511309
0.000511309
0.000511309
0.000511309
0.000511309
0.000511309
0.000511309
0.000511309
0.000511309
0.000511309
0.000511309
0.000511309
0.000511309
0.000511309
0.000511309
0.000511309
0.000511309
0.000511309
0.000511309
0.000511309
0.000511309
0.000511309
0.000511309
0.000511309
0.000511309
0.000511309
0.000511309
0.000511309
0.000511309
0.000511309
0.000511309
0.000511309
0.000511309
0.000511309
0.000511309
0.000511309
0.000511309
0.000511309
0.000511309
0.000511309
0.000511309
0.000511309
0.000511309
0.000511309
0.000511309
0.000511309
0.000511309
0.00051131
0.000511309
0.000511309
0.000511309
0.000511309
0.000511309
0.000511309
0.000511309
0.000511309
0.000511309
0.000511309
0.000511309
0.000511309
0.000511309
0.000511309
0.000511309
0.000511309
0.000511309
0.000511309
0.000511309
0.000511309
0.000511309
0.000511309
0.000511309
0.000511309
0.000511309
0.000511309
0.000511309
0.000511309
0.000511309
0.000511309
0.000511309
0.000511309
0.000511309
0.000511309
0.000511309
0.000511309
0.000511309
0.000511309
0.000511309
0.000511309
0.000511309
0.000511309
0.000511309
0.000511309
0.000511309
0.000511309
0.000511309
0.000511309
0.000511309
0.000511309
0.000511309
0.000511309
0.000511309
0.000511309
0.000511309
0.000511309
0.000511309
0.000511309
0.000511309
0.000511309
0.000511309
0.000511309
0.000511309
0.000511309
0.000511309
0.000511309
0.000511309
0.000511309
0.000511309
0.000511309
0.000511309
0.000511309
0.000511309
0.000511309
0.000511309
0.000511309
0.000511309
0.000511309
0.000511309
0.000511309
0.000511309
0.000511309
0.000511309
0.000511309
0.000511309
0.000511309
0.000511309
0.000511309
0.000511309
0.000511309
0.000511309
0.000511309
0.000511309
0.000511309
0.00051131
0.00051131
0.00051131
0.00051131
0.00051131
0.00051131
0.00051131
0.00051131
0.00051131
0.00051131
0.00051131
0.00051131
0.00051131
0.00051131
0.00051131
0.00051131
0.00051131
0.000511309
0.000511309
0.000511309
0.000511309
0.000511309
0.000511309
0.000511309
0.000511309
0.000511309
0.000511309
0.000511309
0.000511309
0.000511309
0.000511309
0.000511309
0.000511309
0.000511309
0.000511309
0.000511309
0.000511309
0.000511309
0.000511309
0.000511309
0.000511309
0.000511309
0.000511309
0.000511309
0.000511309
0.000511309
0.000511309
0.000511309
0.000511309
0.000511309
0.000511309
0.000511309
0.000511309
0.000511309
0.000511309
0.000511309
0.000511309
0.000511309
0.000511309
0.000511309
0.000511309
0.000511309
0.000511309
0.000511309
0.000511309
0.000511309
0.000511309
0.000511309
0.000511309
0.000511309
0.000511309
0.000511309
0.000511309
0.000511309
0.000511309
0.000511309
0.000511309
0.000511309
0.000511309
0.000511309
0.000511309
0.000511309
0.000511309
0.000511309
0.000511309
0.000511309
0.000511309
0.000511309
0.000511309
0.000511309
0.000511309
0.000511309
0.00051131
0.00051131
0.00051131
0.00051131
0.00051131
0.00051131
0.00051131
0.00051131
0.00051131
0.00051131
0.00051131
0.00051131
0.00051131
0.00051131
0.00051131
0.00051131
0.00051131
0.00051131
0.00051131
0.00051131
0.00051131
0.00051131
0.00051131
0.000511311
0.000511311
0.000511311
0.000511311
0.000511311
0.000511311
0.000511312
0.000511312
0.000511312
0.000511313
0.000511313
0.000511314
0.000511314
0.000511315
0.000511315
0.000511309
0.000511309
0.000511309
0.000511309
0.000511309
0.000511309
0.000511309
0.000511309
0.000511309
0.000511309
0.000511309
0.000511309
0.000511309
0.000511309
0.000511309
0.000511309
0.000511309
0.000511309
0.000511309
0.000511309
0.000511309
0.000511309
0.000511309
0.000511309
0.000511309
0.000511309
0.000511309
0.000511309
0.000511309
0.000511309
0.000511309
0.000511309
0.000511309
0.000511309
0.000511309
0.000511309
0.000511309
0.000511309
0.000511309
0.000511309
0.000511309
0.000511309
0.000511309
0.000511309
0.00051131
0.00051131
0.00051131
0.00051131
0.00051131
0.00051131
0.00051131
0.00051131
0.00051131
0.00051131
0.00051131
0.00051131
0.00051131
0.00051131
0.00051131
0.00051131
0.00051131
0.00051131
0.00051131
0.00051131
0.00051131
0.00051131
0.00051131
0.00051131
0.00051131
0.00051131
0.00051131
0.00051131
0.00051131
0.00051131
0.00051131
0.00051131
0.00051131
0.00051131
0.00051131
0.00051131
0.00051131
0.000511311
0.000511311
0.000511311
0.000511311
0.000511311
0.000511311
0.000511311
0.000511312
0.000511312
0.000511312
0.000511312
0.000511313
0.000511313
0.000511314
0.000511314
0.000511314
0.000511315
0.000511316
0.000511316
0.000511317
0.000511318
0.000511319
0.00051132
0.000511321
0.000511323
0.000511324
0.000511326
0.000511328
0.00051133
0.000511332
0.000511335
0.000511339
0.000511309
0.000511309
0.000511309
0.000511309
0.000511309
0.000511309
0.000511309
0.000511309
0.000511309
0.000511309
0.000511309
0.000511309
0.000511309
0.000511309
0.000511309
0.00051131
0.00051131
0.00051131
0.00051131
0.00051131
0.00051131
0.00051131
0.00051131
0.00051131
0.00051131
0.00051131
0.00051131
0.00051131
0.00051131
0.00051131
0.00051131
0.00051131
0.00051131
0.00051131
0.00051131
0.00051131
0.00051131
0.00051131
0.00051131
0.00051131
0.00051131
0.00051131
0.00051131
0.00051131
0.00051131
0.00051131
0.00051131
0.00051131
0.00051131
0.00051131
0.00051131
0.00051131
0.00051131
0.00051131
0.00051131
0.00051131
0.00051131
0.00051131
0.000511311
0.000511311
0.000511311
0.000511311
0.000511311
0.000511311
0.000511311
0.000511311
0.000511311
0.000511311
0.000511311
0.000511311
0.000511312
0.000511312
0.000511312
0.000511312
0.000511312
0.000511312
0.000511313
0.000511313
0.000511313
0.000511314
0.000511314
0.000511314
0.000511315
0.000511315
0.000511316
0.000511316
0.000511317
0.000511318
0.000511319
0.00051132
0.00051132
0.000511322
0.000511323
0.000511324
0.000511326
0.000511327
0.000511329
0.000511331
0.000511333
0.000511336
0.000511339
0.000511342
0.000511347
0.000511351
0.000511357
0.000511363
0.00051137
0.000511378
0.000511386
0.000511395
0.000511406
0.000511417
0.00051143
0.000511444
0.000511461
0.00051131
0.00051131
0.00051131
0.00051131
0.00051131
0.00051131
0.00051131
0.00051131
0.00051131
0.00051131
0.00051131
0.00051131
0.00051131
0.00051131
0.00051131
0.00051131
0.00051131
0.00051131
0.00051131
0.00051131
0.00051131
0.00051131
0.00051131
0.00051131
0.00051131
0.000511311
0.000511311
0.000511311
0.000511311
0.000511311
0.000511311
0.000511311
0.000511311
0.000511311
0.000511311
0.000511311
0.000511311
0.000511311
0.000511312
0.000511312
0.000511312
0.000511312
0.000511312
0.000511312
0.000511312
0.000511312
0.000511312
0.000511312
0.000511313
0.000511313
0.000511313
0.000511313
0.000511313
0.000511313
0.000511314
0.000511314
0.000511314
0.000511314
0.000511314
0.000511315
0.000511315
0.000511315
0.000511316
0.000511316
0.000511316
0.000511317
0.000511317
0.000511318
0.000511318
0.000511319
0.00051132
0.00051132
0.000511321
0.000511322
0.000511323
0.000511324
0.000511325
0.000511326
0.000511327
0.000511329
0.00051133
0.000511332
0.000511334
0.000511336
0.000511339
0.000511341
0.000511344
0.000511347
0.000511351
0.000511355
0.00051136
0.000511366
0.000511372
0.00051138
0.000511388
0.000511397
0.000511407
0.000511418
0.00051143
0.000511444
0.000511458
0.000511475
0.000511493
0.000511514
0.000511537
0.000511563
0.000511593
0.000511627
0.000511665
0.000511707
0.000511755
0.00051181
0.000511877
0.000511957
0.000512052
0.000512162
0.00051131
0.00051131
0.00051131
0.00051131
0.00051131
0.00051131
0.00051131
0.00051131
0.00051131
0.00051131
0.000511311
0.000511311
0.000511311
0.000511311
0.000511311
0.000511311
0.000511311
0.000511311
0.000511312
0.000511312
0.000511312
0.000511312
0.000511312
0.000511312
0.000511313
0.000511313
0.000511313
0.000511313
0.000511313
0.000511314
0.000511314
0.000511314
0.000511314
0.000511315
0.000511315
0.000511315
0.000511315
0.000511316
0.000511316
0.000511316
0.000511316
0.000511317
0.000511317
0.000511317
0.000511318
0.000511318
0.000511319
0.000511319
0.000511319
0.00051132
0.00051132
0.000511321
0.000511321
0.000511322
0.000511323
0.000511323
0.000511324
0.000511325
0.000511326
0.000511326
0.000511327
0.000511328
0.000511329
0.00051133
0.000511331
0.000511332
0.000511333
0.000511334
0.000511336
0.000511337
0.000511338
0.00051134
0.000511342
0.000511344
0.000511346
0.000511348
0.000511351
0.000511353
0.000511356
0.00051136
0.000511363
0.000511367
0.000511372
0.000511377
0.000511382
0.000511389
0.000511397
0.000511405
0.000511414
0.000511425
0.000511436
0.000511448
0.000511461
0.000511476
0.000511491
0.000511509
0.000511528
0.00051155
0.000511574
0.0005116
0.00051163
0.000511664
0.000511702
0.000511745
0.000511793
0.000511846
0.000511907
0.000511977
0.000512061
0.000512161
0.000512277
0.00051241
0.000512559
0.000512723
0.000512902
0.000513095
0.000513306
0.00051354
0.000513803
0.000514101
0.000514437
0.000514819
0.000515258
0.000511312
0.000511312
0.000511312
0.000511312
0.000511313
0.000511313
0.000511313
0.000511314
0.000511314
0.000511314
0.000511315
0.000511315
0.000511316
0.000511316
0.000511316
0.000511317
0.000511317
0.000511318
0.000511319
0.000511319
0.00051132
0.00051132
0.000511321
0.000511322
0.000511322
0.000511323
0.000511324
0.000511325
0.000511326
0.000511327
0.000511328
0.000511329
0.00051133
0.000511331
0.000511332
0.000511333
0.000511335
0.000511336
0.000511337
0.000511338
0.00051134
0.000511341
0.000511343
0.000511344
0.000511346
0.000511347
0.000511349
0.00051135
0.000511352
0.000511354
0.000511356
0.000511357
0.000511359
0.000511361
0.000511364
0.000511366
0.000511369
0.000511371
0.000511374
0.000511377
0.000511381
0.000511384
0.000511388
0.000511392
0.000511396
0.0005114
0.000511405
0.00051141
0.000511416
0.000511423
0.000511431
0.000511439
0.000511449
0.000511459
0.000511469
0.000511481
0.000511493
0.000511507
0.000511521
0.000511536
0.000511553
0.000511571
0.000511591
0.000511613
0.000511637
0.000511663
0.000511692
0.000511725
0.000511761
0.000511802
0.000511847
0.000511898
0.000511954
0.000512016
0.000512085
0.000512164
0.000512258
0.000512368
0.000512496
0.000512642
0.000512806
0.000512987
0.000513184
0.000513398
0.00051363
0.000513884
0.000514166
0.000514481
0.000514834
0.000515229
0.000515677
0.00051619
0.000516776
0.000517443
0.000518192
0.000519025
0.00051994
0.000520974
0.00052223
0.000523799
0.00052571
0.000527943
0.000530467
0.000511319
0.00051132
0.000511321
0.000511322
0.000511323
0.000511324
0.000511325
0.000511326
0.000511327
0.000511329
0.00051133
0.000511332
0.000511334
0.000511335
0.000511338
0.00051134
0.000511342
0.000511344
0.000511347
0.00051135
0.000511352
0.000511355
0.000511358
0.000511361
0.000511364
0.000511367
0.00051137
0.000511373
0.000511376
0.00051138
0.000511383
0.000511387
0.00051139
0.000511394
0.000511398
0.000511402
0.000511407
0.000511411
0.000511416
0.000511421
0.000511426
0.000511431
0.000511437
0.000511442
0.000511448
0.000511454
0.000511461
0.000511468
0.000511475
0.000511484
0.000511492
0.000511502
0.000511512
0.000511522
0.000511533
0.000511545
0.000511557
0.00051157
0.000511583
0.000511597
0.000511611
0.000511626
0.000511642
0.000511659
0.000511677
0.000511696
0.000511717
0.000511739
0.000511763
0.000511788
0.000511816
0.000511846
0.000511879
0.000511916
0.000511956
0.000512001
0.00051205
0.000512103
0.000512161
0.000512224
0.000512293
0.00051237
0.000512457
0.00051256
0.000512678
0.000512815
0.000512969
0.00051314
0.000513328
0.000513532
0.000513753
0.000513991
0.000514248
0.000514528
0.000514837
0.00051518
0.000515561
0.000515985
0.000516461
0.000517
0.000517615
0.000518313
0.000519097
0.000519969
0.000520932
0.00052199
0.000523215
0.000524707
0.00052653
0.000528694
0.000531178
0.000533952
0.000536996
0.000540288
0.000543819
0.000547572
0.000551595
0.000555989
0.000560803
0.000566108
0.000572128
0.000579144
0.000587337
0.000511346
0.00051135
0.000511354
0.000511358
0.000511362
0.000511367
0.000511372
0.000511378
0.000511383
0.000511389
0.000511395
0.000511402
0.000511408
0.000511415
0.000511422
0.000511429
0.000511437
0.000511445
0.000511453
0.000511462
0.000511471
0.000511481
0.000511491
0.000511501
0.000511513
0.000511525
0.000511538
0.000511551
0.000511565
0.000511581
0.000511597
0.000511613
0.00051163
0.000511648
0.000511666
0.000511685
0.000511704
0.000511723
0.000511743
0.000511764
0.000511784
0.000511806
0.000511828
0.00051185
0.000511874
0.000511898
0.000511923
0.000511948
0.000511975
0.000512003
0.000512032
0.000512063
0.000512096
0.000512131
0.000512169
0.00051221
0.000512253
0.000512299
0.000512348
0.000512401
0.000512456
0.000512515
0.000512577
0.000512643
0.000512714
0.000512791
0.000512879
0.000512978
0.00051309
0.000513217
0.000513357
0.00051351
0.000513677
0.000513856
0.00051405
0.000514257
0.000514479
0.000514717
0.000514971
0.000515245
0.000515542
0.000515869
0.000516227
0.000516621
0.000517055
0.000517537
0.000518079
0.000518691
0.000519379
0.000520148
0.000521
0.000521937
0.000522961
0.000524081
0.000525365
0.000526905
0.000528762
0.000530952
0.000533459
0.00053626
0.000539335
0.00054267
0.000546253
0.000550076
0.000554142
0.000558545
0.000563326
0.000568504
0.000574205
0.00058068
0.000588176
0.000596828
0.000606669
0.000617694
0.000629864
0.000643221
0.000657619
0.000674178
0.000699022
0.00073344
0.000776415
0.000826572
0.000882983
0.000945135
0.0010125
0.000511457
0.00051147
0.000511483
0.000511497
0.000511512
0.000511528
0.000511546
0.000511564
0.000511584
0.000511606
0.00051163
0.000511655
0.000511682
0.000511712
0.000511742
0.000511775
0.000511808
0.000511843
0.000511879
0.000511916
0.000511954
0.000511993
0.000512034
0.000512075
0.000512118
0.000512162
0.000512207
0.000512252
0.000512299
0.000512348
0.000512398
0.00051245
0.000512505
0.000512563
0.000512623
0.000512686
0.000512751
0.000512819
0.000512889
0.000512961
0.000513036
0.000513112
0.000513192
0.000513275
0.000513364
0.000513459
0.000513563
0.000513676
0.000513799
0.000513931
0.000514071
0.000514219
0.000514376
0.00051454
0.000514713
0.000514894
0.000515084
0.000515284
0.000515493
0.000515713
0.000515944
0.000516186
0.00051644
0.00051671
0.000516998
0.000517308
0.000517641
0.000517998
0.000518383
0.000518802
0.000519264
0.000519775
0.000520343
0.000520969
0.000521658
0.000522412
0.000523232
0.000524122
0.000525086
0.000526125
0.000527267
0.000528583
0.000530144
0.000531993
0.000534134
0.000536553
0.000539231
0.000542154
0.000545315
0.000548707
0.000552328
0.000556174
0.000560264
0.00056469
0.000569465
0.000574595
0.000580189
0.000586467
0.000593655
0.000601904
0.000611277
0.000621783
0.000633412
0.000646152
0.000660073
0.00067503
0.00069478
0.000722822
0.000759033
0.000802303
0.000851705
0.000906686
0.000966897
0.00103191
0.00110133
0.00117479
0.00125186
0.00133126
0.00140648
0.00147694
0.00154358
0.00160745
0.00166886
0.00172697
0.00178178
0.000511865
0.000511919
0.000511976
0.000512036
0.0005121
0.000512168
0.000512239
0.000512312
0.000512389
0.000512468
0.000512551
0.000512636
0.000512724
0.000512816
0.000512913
0.000513014
0.00051312
0.000513232
0.00051335
0.000513472
0.000513601
0.000513736
0.000513879
0.00051403
0.000514192
0.000514365
0.000514549
0.000514744
0.000514949
0.000515164
0.000515386
0.000515615
0.000515852
0.000516094
0.000516343
0.000516598
0.000516859
0.000517127
0.0005174
0.00051768
0.000517965
0.000518258
0.00051856
0.000518873
0.000519196
0.000519529
0.000519873
0.000520231
0.000520607
0.000521007
0.000521434
0.000521892
0.000522385
0.000522913
0.000523478
0.00052408
0.000524722
0.000525403
0.000526125
0.000526891
0.000527701
0.00052856
0.000529468
0.000530432
0.000531489
0.000532692
0.000534084
0.000535684
0.000537489
0.00053949
0.000541674
0.000544035
0.000546572
0.000549288
0.000552186
0.000555271