/*--------------------------------*- C++ -*----------------------------------*\
| =========                 |                                                 |
| \\      /  F ield         | OpenFOAM: The Open Source CFD Toolbox           |
|  \\    /   O peration     | Version:  v1706                                 |
|   \\  /    A nd           | Web:      www.OpenFOAM.com                      |
|    \\/     M anipulation  |                                                 |
\*---------------------------------------------------------------------------*/
FoamFile
{
    version     2.0;
    format      ascii;
    class       volScalarField;
    location    "3.5e-05";
    object      Tt;
}
// * * * * * * * * * * * * * * * * * * * * * * * * * * * * * * * * * * * * * //

dimensions      [0 0 0 1 0 0 0];


internalField   nonuniform List<scalar> 
29871
(
144.4
144.4
144.4
144.4
144.4
144.4
144.4
144.4
144.4
144.4
144.4
144.4
144.4
144.4
144.4
144.4
144.4
144.4
144.4
144.4
144.4
144.4
144.4
144.4
144.4
144.4
144.4
144.4
144.4
144.4
144.4
144.4
144.4
144.4
144.4
144.4
144.4
144.4
144.4
144.4
144.4
144.4
144.4
144.4
144.4
144.4
144.4
144.4
144.4
144.4
144.4
144.4
144.4
144.4
144.4
144.4
144.4
144.4
144.4
144.4
144.4
144.4
144.4
144.4
144.4
144.4
144.4
144.4
144.4
144.4
144.4
144.4
144.4
144.4
144.4
144.4
144.4
144.4
144.4
144.4
144.4
144.4
144.4
144.4
144.4
144.4
144.4
144.4
144.4
144.4
144.4
144.4
144.4
144.4
144.4
144.4
144.4
144.4
144.4
144.4
144.4
144.4
144.4
144.4
144.4
144.4
144.4
144.4
144.4
144.4
144.4
144.4
144.4
144.4
144.4
144.4
144.4
144.4
144.4
144.4
144.4
144.4
144.4
144.4
144.4
144.4
144.4
144.4
144.4
144.4
144.4
144.4
144.4
144.4
144.4
144.4
144.4
144.4
144.4
144.4
144.4
144.4
144.4
144.4
144.4
144.4
144.4
144.4
144.4
144.4
144.4
144.4
144.4
144.4
144.4
144.4
144.4
144.4
144.4
144.4
144.4
144.4
144.4
144.4
144.4
144.4
144.4
144.4
144.4
144.4
144.4
144.4
144.4
144.4
144.4
144.4
144.4
144.4
144.4
144.4
144.4
144.4
144.4
144.4
144.4
144.4
144.4
144.4
144.4
144.4
144.4
144.4
144.4
144.4
144.4
144.4
144.4
144.4
144.4
144.4
144.4
144.4
144.4
144.4
144.4
144.4
144.4
144.4
144.4
144.4
144.4
144.4
144.4
144.4
144.4
144.4
144.4
144.4
144.4
144.4
144.4
144.4
144.4
144.4
144.4
144.4
144.4
144.4
144.4
144.4
144.4
144.4
144.4
144.4
144.4
144.4
144.4
144.4
144.4
144.4
144.4
144.4
144.4
144.4
144.4
144.4
144.4
144.4
144.4
144.4
144.4
144.4
144.4
144.4
144.4
144.4
144.4
144.4
144.4
144.4
144.4
144.4
144.4
144.4
144.4
144.4
144.4
144.4
144.4
144.4
144.4
144.4
144.4
144.4
144.4
144.4
144.4
144.4
144.4
144.4
144.4
144.4
144.4
144.4
144.4
144.4
144.4
144.4
144.4
144.4
144.4
144.4
144.4
144.4
144.4
144.4
144.4
144.4
144.4
144.4
144.4
144.4
144.4
144.4
144.4
144.4
144.4
144.4
144.4
144.4
144.4
144.4
144.4
144.4
144.4
144.4
144.4
144.4
144.4
144.4
144.4
144.4
144.4
144.4
144.4
144.4
144.4
144.4
144.4
144.4
144.4
144.4
144.4
144.4
144.4
144.4
144.4
144.4
144.4
144.4
144.4
144.4
144.4
144.4
144.4
144.4
144.4
144.4
144.4
144.4
144.4
144.4
144.4
144.4
144.4
144.4
144.4
144.4
144.4
144.4
144.4
144.4
144.4
144.4
144.4
144.4
144.4
144.4
144.4
144.4
144.4
144.4
144.4
144.4
144.4
144.4
144.4
144.4
144.4
144.4
144.4
144.4
144.4
144.4
144.4
144.4
144.4
144.4
144.4
144.4
144.4
144.4
144.4
144.4
144.4
144.4
144.4
144.4
144.4
144.4
144.4
144.4
144.4
144.4
144.4
144.4
144.4
144.4
144.4
144.4
144.4
144.4
144.4
144.4
144.4
144.4
144.4
144.4
144.4
144.4
144.4
144.4
144.4
144.4
144.4
144.4
144.4
144.4
144.4
144.4
144.4
144.4
144.4
144.4
144.4
144.4
144.4
144.4
144.4
144.4
144.4
144.4
144.4
144.4
144.4
144.4
144.4
144.4
144.4
144.4
144.4
144.4
144.4
144.4
144.4
144.4
144.4
144.4
144.4
144.4
144.4
144.4
144.4
144.4
144.4
144.4
144.4
144.4
144.4
144.4
144.4
144.4
144.4
144.4
144.4
144.4
144.4
144.4
144.4
144.4
144.4
144.4
144.4
144.4
144.4
144.4
144.4
144.4
144.4
144.4
144.4
144.4
144.4
144.4
144.4
144.4
144.4
144.4
144.4
144.4
144.4
144.4
144.4
144.4
144.4
144.4
144.4
144.4
144.4
144.4
144.4
144.4
144.4
144.4
144.4
144.4
144.4
144.4
144.4
144.4
144.4
144.4
144.4
144.4
144.4
144.4
144.4
144.4
144.4
144.4
144.4
144.4
144.4
144.4
144.4
144.4
144.4
144.4
144.4
144.4
144.4
144.4
144.4
144.4
144.4
144.4
144.4
144.4
144.4
144.4
144.4
144.4
144.4
144.4
144.4
144.4
144.4
144.4
144.4
144.4
144.4
144.4
144.4
144.4
144.4
144.4
144.4
144.4
144.4
144.4
144.4
144.4
144.4
144.4
144.4
144.4
144.4
144.4
144.4
144.4
144.4
144.4
144.4
144.4
144.4
144.4
144.4
144.4
144.4
144.4
144.4
144.4
144.4
144.4
144.4
144.4
144.4
144.4
144.4
144.4
144.4
144.4
144.4
144.4
144.4
144.4
144.4
144.4
144.4
144.4
144.4
144.4
144.4
144.4
144.4
144.4
144.4
144.4
144.4
144.4
144.4
144.4
144.4
144.4
144.4
144.4
144.4
144.4
144.4
144.4
144.4
144.4
144.4
144.4
144.4
144.4
144.4
144.4
144.4
144.4
144.4
144.4
144.4
144.4
144.4
144.4
144.4
144.4
144.4
144.4
144.4
144.4
144.4
144.4
144.4
144.4
144.4
144.4
144.4
144.4
144.4
144.4
144.4
144.4
144.4
144.4
144.4
144.4
144.4
144.4
144.4
144.4
144.4
144.4
144.4
144.4
144.4
144.4
144.4
144.4
144.4
144.4
144.4
144.4
144.4
144.4
144.4
144.4
144.4
144.4
144.4
144.4
144.4
144.4
144.4
144.4
144.4
144.4
144.4
144.4
144.4
144.4
144.4
144.4
144.4
144.4
144.4
144.4
144.4
144.4
144.4
144.4
144.4
144.4
144.4
144.4
144.4
144.4
144.4
144.4
144.4
144.4
144.4
144.4
144.4
144.4
144.4
144.4
144.4
144.4
144.4
144.4
144.4
144.4
144.4
144.4
144.4
144.4
144.4
144.4
144.4
144.4
144.4
144.4
144.4
144.4
144.4
144.4
144.4
144.4
144.4
144.4
144.4
144.4
144.4
144.4
144.4
144.4
144.4
144.4
144.4
144.4
144.4
144.4
144.4
144.4
144.4
144.4
144.4
144.4
144.4
144.4
144.4
144.4
144.4
144.4
144.4
144.4
144.4
144.4
144.4
144.4
144.4
144.4
144.4
144.4
144.4
144.4
144.4
144.4
144.4
144.4
144.4
144.4
144.4
144.4
144.4
144.4
144.4
144.4
144.4
144.4
144.4
144.4
144.4
144.4
144.4
144.4
144.4
144.4
144.4
144.4
144.4
144.4
144.4
144.4
144.4
144.4
144.4
144.4
144.4
144.4
144.4
144.4
144.4
144.4
144.4
144.4
144.4
144.4
144.4
144.4
144.4
144.4
144.4
144.4
144.4
144.4
144.4
144.4
144.4
144.4
144.4
144.4
144.4
144.4
144.4
144.4
144.4
144.4
144.4
144.4
144.4
144.4
144.4
144.4
144.4
144.4
144.4
144.4
144.4
144.4
144.4
144.4
144.4
144.4
144.4
144.4
144.4
144.4
144.4
144.4
144.4
144.4
144.4
144.4
144.4
144.4
144.4
144.4
144.4
144.4
144.4
144.4
144.4
144.4
144.4
144.4
144.4
144.4
144.4
144.4
144.4
144.4
144.4
144.4
144.4
144.4
144.4
144.4
144.4
144.4
144.4
144.4
144.4
144.4
144.4
144.4
144.4
144.4
144.4
144.4
144.4
144.4
144.4
144.4
144.4
144.4
144.4
144.4
144.4
144.4
144.4
144.4
144.4
144.4
144.4
144.4
144.4
144.4
144.4
144.4
144.4
144.4
144.4
144.4
144.4
144.4
144.4
144.4
144.4
144.4
144.4
144.4
144.4
144.4
144.4
144.4
144.4
144.4
144.4
144.4
144.4
144.4
144.4
144.4
144.4
144.4
144.4
144.4
144.4
144.4
144.4
144.4
144.4
144.4
144.4
144.4
144.4
144.4
144.4
144.4
144.4
144.4
144.4
144.4
144.4
144.4
144.4
144.4
144.4
144.4
144.4
144.4
144.4
144.4
144.4
144.4
144.4
144.4
144.4
144.4
144.4
144.4
144.4
144.4
144.4
144.4
144.4
144.4
144.4
144.4
144.4
144.4
144.4
144.4
144.4
144.4
144.4
144.4
144.4
144.4
144.4
144.4
144.4
144.4
144.4
144.4
144.4
144.4
144.4
144.4
144.4
144.4
144.4
144.4
144.4
144.4
144.4
144.4
144.4
144.4
144.4
144.4
144.4
144.4
144.4
144.4
144.4
144.4
144.4
144.4
144.4
144.4
144.4
144.4
144.4
144.4
144.4
144.4
144.4
144.4
144.4
144.4
144.4
144.4
144.4
144.4
144.4
144.4
144.4
144.4
144.4
144.4
144.4
144.4
144.4
144.4
144.4
144.4
144.4
144.4
144.4
144.4
144.4
144.4
144.4
144.4
144.4
144.4
144.4
144.4
144.4
144.4
144.4
144.4
144.4
144.4
144.4
144.4
144.4
144.4
144.4
144.4
144.4
144.4
144.4
144.4
144.4
144.4
144.4
144.4
144.4
144.4
144.4
144.4
144.4
144.4
144.4
144.4
144.4
144.4
144.4
144.4
144.4
144.4
144.4
144.4
144.4
144.4
144.4
144.4
144.4
144.4
144.4
144.4
144.4
144.4
144.4
144.4
144.4
144.4
144.4
144.4
144.4
144.4
144.4
144.4
144.4
144.4
144.4
144.4
144.4
144.4
144.4
144.4
144.4
144.4
144.4
144.4
144.4
144.4
144.4
144.4
144.4
144.4
144.4
144.4
144.4
144.4
144.4
144.4
144.4
144.4
144.4
144.4
144.4
144.4
144.4
144.4
144.4
144.4
144.4
144.4
144.4
144.4
144.4
144.4
144.4
144.4
144.4
144.4
144.4
144.4
144.4
144.4
144.4
144.4
144.4
144.4
144.4
144.4
144.4
144.4
144.4
144.4
144.4
144.4
144.4
144.4
144.4
144.4
144.4
144.4
144.4
144.4
144.4
144.4
144.4
144.4
144.4
144.4
144.4
144.4
144.4
144.4
144.4
144.4
144.4
144.4
144.4
144.4
144.4
144.4
144.4
144.4
144.4
144.4
144.4
144.4
144.4
144.4
144.4
144.4
144.4
144.4
144.4
144.4
144.4
144.4
144.4
144.4
144.4
144.4
144.4
144.4
144.4
144.4
144.4
144.4
144.4
144.4
144.4
144.4
144.4
144.4
144.4
144.4
144.4
144.4
144.4
144.4
144.4
144.4
144.4
144.4
144.4
144.4
144.4
144.4
144.4
144.4
144.4
144.4
144.4
144.4
144.4
144.4
144.4
144.4
144.4
144.4
144.4
144.4
144.4
144.4
144.4
144.4
144.4
144.4
144.401
144.401
144.401
144.401
144.401
144.401
144.401
144.4
144.4
144.4
144.4
144.4
144.4
144.4
144.4
144.4
144.4
144.4
144.4
144.4
144.4
144.4
144.4
144.4
144.4
144.4
144.4
144.4
144.4
144.4
144.4
144.4
144.4
144.4
144.4
144.4
144.4
144.4
144.4
144.4
144.4
144.4
144.4
144.4
144.4
144.4
144.4
144.4
144.4
144.4
144.4
144.4
144.4
144.4
144.4
144.4
144.4
144.4
144.4
144.4
144.4
144.4
144.4
144.4
144.4
144.4
144.4
144.4
144.4
144.4
144.4
144.4
144.4
144.4
144.4
144.4
144.4
144.4
144.4
144.4
144.4
144.4
144.4
144.4
144.4
144.4
144.4
144.4
144.4
144.4
144.4
144.4
144.4
144.4
144.401
144.401
144.401
144.401
144.401
144.401
144.401
144.401
144.401
144.401
144.401
144.402
144.402
144.402
144.402
144.402
144.403
144.403
144.403
144.404
144.404
144.405
144.405
144.406
144.406
144.407
144.4
144.4
144.4
144.4
144.4
144.4
144.4
144.4
144.4
144.4
144.4
144.4
144.4
144.4
144.4
144.4
144.4
144.4
144.4
144.4
144.4
144.4
144.4
144.4
144.4
144.4
144.4
144.4
144.4
144.4
144.4
144.4
144.4
144.4
144.4
144.4
144.4
144.4
144.4
144.4
144.4
144.4
144.4
144.4
144.4
144.4
144.4
144.4
144.4
144.4
144.4
144.4
144.4
144.4
144.4
144.4
144.4
144.4
144.4
144.4
144.4
144.4
144.4
144.4
144.4
144.401
144.401
144.401
144.401
144.401
144.401
144.401
144.401
144.401
144.401
144.401
144.401
144.401
144.401
144.401
144.401
144.402
144.402
144.402
144.402
144.402
144.402
144.403
144.403
144.403
144.403
144.404
144.404
144.405
144.405
144.406
144.406
144.407
144.408
144.409
144.41
144.411
144.412
144.413
144.415
144.417
144.419
144.421
144.424
144.426
144.43
144.433
144.438
144.4
144.4
144.4
144.4
144.4
144.4
144.4
144.4
144.4
144.4
144.4
144.4
144.4
144.4
144.4
144.4
144.4
144.4
144.4
144.4
144.4
144.4
144.4
144.4
144.4
144.4
144.4
144.4
144.4
144.4
144.4
144.4
144.4
144.401
144.401
144.401
144.401
144.401
144.401
144.401
144.401
144.401
144.401
144.401
144.401
144.401
144.401
144.401
144.401
144.401
144.401
144.401
144.401
144.401
144.401
144.401
144.401
144.401
144.401
144.402
144.402
144.402
144.402
144.402
144.402
144.402
144.402
144.402
144.402
144.403
144.403
144.403
144.403
144.403
144.404
144.404
144.404
144.404
144.405
144.405
144.406
144.406
144.407
144.407
144.408
144.409
144.41
144.41
144.411
144.413
144.414
144.415
144.417
144.419
144.421
144.423
144.426
144.428
144.431
144.435
144.439
144.443
144.448
144.454
144.461
144.469
144.477
144.487
144.497
144.508
144.521
144.536
144.553
144.573
144.596
144.4
144.4
144.4
144.4
144.4
144.4
144.401
144.401
144.401
144.401
144.401
144.401
144.401
144.401
144.401
144.401
144.401
144.401
144.401
144.401
144.401
144.401
144.401
144.401
144.401
144.402
144.402
144.402
144.402
144.402
144.402
144.402
144.402
144.402
144.402
144.402
144.403
144.403
144.403
144.403
144.403
144.403
144.403
144.403
144.403
144.404
144.404
144.404
144.404
144.404
144.404
144.405
144.405
144.405
144.405
144.406
144.406
144.406
144.406
144.407
144.407
144.407
144.408
144.408
144.409
144.409
144.41
144.411
144.411
144.412
144.413
144.414
144.415
144.416
144.417
144.418
144.419
144.421
144.423
144.425
144.427
144.429
144.432
144.435
144.438
144.442
144.446
144.45
144.455
144.46
144.467
144.474
144.482
144.491
144.501
144.513
144.525
144.539
144.554
144.571
144.591
144.613
144.639
144.669
144.703
144.742
144.785
144.833
144.885
144.942
145.007
145.081
145.168
145.272
145.393
145.533
144.401
144.401
144.401
144.401
144.401
144.401
144.401
144.401
144.402
144.402
144.402
144.402
144.402
144.402
144.402
144.403
144.403
144.403
144.403
144.403
144.404
144.404
144.404
144.404
144.404
144.405
144.405
144.405
144.405
144.406
144.406
144.406
144.407
144.407
144.407
144.408
144.408
144.408
144.409
144.409
144.409
144.41
144.41
144.411
144.411
144.412
144.412
144.413
144.413
144.414
144.414
144.415
144.415
144.416
144.417
144.418
144.418
144.419
144.42
144.421
144.422
144.423
144.424
144.425
144.427
144.428
144.429
144.431
144.433
144.434
144.436
144.439
144.441
144.444
144.447
144.45
144.454
144.457
144.461
144.466
144.47
144.476
144.481
144.488
144.495
144.504
144.513
144.524
144.536
144.549
144.563
144.578
144.595
144.613
144.634
144.657
144.684
144.714
144.749
144.789
144.834
144.884
144.939
144.999
145.066
145.139
145.222
145.317
145.428
145.558
145.709
145.88
146.072
146.285
146.519
146.774
147.054
147.368
147.734
148.17
148.687
149.291
149.982
144.403
144.404
144.404
144.405
144.405
144.405
144.406
144.406
144.407
144.407
144.408
144.408
144.409
144.409
144.41
144.411
144.412
144.412
144.413
144.414
144.415
144.416
144.416
144.417
144.418
144.419
144.42
144.421
144.423
144.424
144.425
144.426
144.427
144.429
144.43
144.432
144.433
144.435
144.436
144.438
144.439
144.441
144.443
144.444
144.446
144.448
144.45
144.452
144.454
144.456
144.459
144.462
144.464
144.467
144.47
144.474
144.477
144.481
144.485
144.489
144.493
144.497
144.502
144.507
144.513
144.518
144.525
144.532
144.539
144.548
144.557
144.567
144.579
144.591
144.605
144.619
144.635
144.652
144.67
144.69
144.712
144.735
144.762
144.793
144.827
144.866
144.91
144.959
145.014
145.073
145.139
145.21
145.288
145.373
145.469
145.578
145.704
145.849
146.017
146.207
146.421
146.658
146.919
147.203
147.513
147.854
148.242
148.692
149.222
149.84
150.551
151.355
152.252
153.237
154.308
155.465
156.722
158.135
159.803
161.806
164.176
166.906
169.967
144.414
144.416
144.417
144.419
144.42
144.422
144.423
144.425
144.427
144.429
144.431
144.434
144.436
144.439
144.441
144.444
144.447
144.45
144.453
144.456
144.46
144.463
144.467
144.47
144.474
144.478
144.482
144.487
144.491
144.496
144.501
144.506
144.511
144.516
144.522
144.527
144.533
144.539
144.546
144.552
144.558
144.565
144.572
144.579
144.586
144.594
144.602
144.611
144.62
144.63
144.64
144.651
144.663
144.676
144.689
144.703
144.718
144.733
144.75
144.767
144.785
144.804
144.824
144.846
144.869
144.894
144.921
144.952
144.986
145.023
145.065
145.11
145.16
145.214
145.274
145.338
145.407
145.482
145.562
145.649
145.744
145.851
145.971
146.109
146.266
146.445
146.645
146.869
147.115
147.386
147.68
147.998
148.344
148.723
149.151
149.643
150.214
150.874
151.63
152.482
153.431
154.476
155.614
156.844
158.173
159.628
161.287
163.237
165.534
168.193
171.2
174.53
178.153
182.035
186.149
190.478
195.066
200.129
206.103
213.152
221.195
230.042
239.495
144.458
144.464
144.469
144.475
144.481
144.487
144.494
144.502
144.509
144.517
144.526
144.535
144.545
144.554
144.565
144.576
144.587
144.599
144.611
144.623
144.636
144.65
144.664
144.678
144.693
144.709
144.725
144.742
144.76
144.779
144.798
144.818
144.839
144.86
144.882
144.905
144.928
144.952
144.976
145.001
145.027
145.053
145.08
145.108
145.138
145.169
145.202
145.237
145.275
145.315
145.358
145.403
145.452
145.503
145.557
145.615
145.676
145.74
145.808
145.879
145.954
146.033
146.117
146.206
146.303
146.408
146.526
146.656
146.802
146.964
147.143
147.339
147.554
147.788
148.041
148.314
148.608
148.925
149.264
149.632
150.036
150.49
151.008
151.601
152.277
153.039
153.891
154.833
155.865
156.987
158.198
159.499
160.899
162.429
164.159
166.168
168.503
171.181
174.194
177.527
181.154
185.052
189.193
193.556
198.148
203.066
208.627
215.106
222.526
230.77
239.684
249.109
258.901
268.933
279.104
289.354
299.724
310.702
324.284
339.948
356.644
373.542
390.099
405.972
420.923
144.631
144.651
144.672
144.694
144.718
144.743
144.77
144.798
144.827
144.859
144.892
144.927
144.963
145.002
145.042
145.084
145.127
145.172
145.218
145.266
145.316
145.367
145.42
145.476
145.534
145.594
145.657
145.723
145.791
145.862
145.936
146.012
146.091
146.173
146.257
146.344
146.433
146.524
146.618
146.713
146.811
146.911
147.015
147.124
147.239
147.362
147.493
147.634
147.784
147.945
148.116
148.298
148.491
148.697
148.913
149.143
149.385
149.64
149.908
150.191
150.489
150.802
151.134
151.487
151.872
152.296
152.77
153.299
153.886
154.536
155.251
156.031
156.88
157.798
158.788
159.851
160.988
162.203
163.5
164.895
166.428
168.162
170.15
172.423
174.986
177.837
180.962
184.348
187.98
191.841
195.915
200.193
204.692
209.512
214.931
221.151
228.186
235.95
244.33
253.206
262.466
272.002
281.72
291.54
301.457
311.607
323.198
336.875
351.877
367.425
382.968
398.136
412.676
426.404
439.226
451.107
461.97
471.792
480.379
487.88
494.454
500.273
505.431
509.919
513.804
145.291
145.366
145.446
145.531
145.62
145.715
145.815
145.921
146.033
146.151
146.275
146.405
146.542
146.684
146.832
146.986
147.146
147.31
147.48
147.656
147.838
148.026
148.223
148.428
148.642
148.866
149.1
149.345
149.599
149.863
150.136
150.419
150.712
151.012
151.321
151.639
151.963
152.295
152.634
152.979
153.333
153.696
154.075
154.474
154.898
155.352
155.837
156.356
156.91
157.5
158.127
158.792
159.496
160.24
161.024
161.85
162.719
163.631
164.589
165.593
166.646
167.75
168.912
170.152
171.505
173.012
174.699
176.576
178.647
180.91
183.365
186.008
188.835
191.846
195.037
198.405
201.948
205.665
209.56
213.678
218.151
223.19
228.879
235.196
242.081
249.461
257.26
265.407
273.83
282.466
291.258
300.161
309.187
318.484
329.134
341.443
354.83
368.733
382.731
396.518
409.882
422.661
434.724
446.013
456.481
466.095
474.738
482.369
489.131
495.151
500.534
505.331
509.551
513.251
516.52
519.352
521.722
523.673
525.283
526.633
527.802
528.842
529.774
530.634
531.405
147.479
147.737
148.011
148.3
148.605
148.928
149.27
149.631
150.013
150.416
150.839
151.284
151.749
152.234
152.739
153.262
153.802
154.358
154.928
155.514
156.118
156.741
157.389
158.063
158.766
159.499
160.261
161.053
161.875
162.726
163.605
164.512
165.444
166.402
167.382
168.384
169.405
170.446
171.503
172.577
173.667
174.778
175.919
177.113
178.381
179.737
181.19
182.742
184.393
186.143
187.99
189.935
191.976
194.113
196.345
198.674
201.099
203.62
206.237
208.953
211.766
214.68
217.696
220.834
224.149
227.769
231.779
236.19
240.981
246.127
251.602
257.384
263.446
269.764
276.314
283.072
290.016
297.125
304.378
311.77
319.35
327.431
336.857
347.374
358.596
370.199
381.933
393.602
405.052
416.168
426.855
437.039
446.688
455.772
464.265
472.026
479.035
485.4
491.191
496.434
501.176
505.467
509.296
512.673
515.657
518.255
520.468
522.312
523.845
525.17
526.358
527.43
528.404
529.316
530.156
530.864
531.493
532.106
532.644
533.068
533.421
533.733
534.027
534.325
534.634
534.957
155.45
156.334
157.263
158.24
159.267
160.347
161.484
162.677
163.927
165.233
166.594
168.008
169.472
170.983
172.538
174.133
175.762
177.422
179.109
180.825
182.582
184.395
186.274
188.225
190.249
192.345
194.51
196.74
199.028
201.371
203.761
206.195
208.666
211.168
213.698
216.249
218.819
221.402
223.995
226.599
229.212
231.848
234.542
237.368
240.369
243.548
246.899
250.413
254.082
257.9
261.861
265.96
270.189
274.543
279.014
283.599
288.29
293.084
297.975
302.961
308.038
313.202
318.453
323.81
329.355
335.577
342.584
350.173
358.163
366.422
374.854
383.382
391.939
400.467
408.918
417.243
425.4
433.353
441.066
448.521
455.683
462.508
468.854
474.761
480.274
485.414
490.18
494.596
498.685
502.424
505.816
508.883
511.633
514.067
516.207
518.068
519.69
521.133
522.439
523.649
524.779
525.781
526.694
527.609
528.461
529.209
529.917
530.552
531.081
531.535
531.94
532.331
532.736
533.151
533.557
533.96
534.378
534.751
535.085
535.411
535.698
535.921
536.12
536.316
536.508
536.712
536.946
537.189
180.569
183.122
185.766
188.512
191.371
194.348
197.444
200.653
203.97
207.385
210.888
214.465
218.104
221.791
225.511
229.253
233.001
236.743
240.472
244.203
247.99
251.863
255.824
259.861
263.962
268.118
272.317
276.552
280.812
285.089
289.372
293.651
297.918
302.162
306.377
310.556
314.693
318.784
322.827
326.825
330.783
334.722
338.703
343.036
347.733
352.699
357.858
363.155
368.553
374.021
379.537
385.085
390.648
396.212
401.764
407.292
412.784
418.23
423.617
428.936
434.179
439.334
444.4
449.366
454.22
458.881
463.332
467.6
471.697
475.631
479.406
483.017
486.461
489.738
492.845
495.778
498.543
501.13
503.539
505.783
507.85
509.738
511.471
513.07
514.559
515.957
517.291
518.57
519.749
520.885
522.031
523.093
524.084
525.051
525.932
526.715
527.429
528.058
528.632
529.196
529.732
530.239
530.771
531.293
531.747
532.223
532.73
533.166
533.568
533.923
534.231
534.518
534.799
535.09
535.383
535.693
536.025
536.361
536.687
537.024
537.337
537.608
537.838
538.042
538.235
538.428
538.635
538.857
243.476
248.968
254.53
260.199
265.978
271.846
277.777
283.743
289.722
295.694
301.641
307.546
313.389
319.155
324.825
330.387
335.823
341.119
346.268
351.305
356.49
361.853
367.32
372.825
378.321
383.767
389.134
394.396
399.535
404.536
409.391
414.092
418.634
423.014
427.231
431.284
435.175
438.903
442.476
445.904
449.201
452.383
455.456
458.378
461.162
463.831
466.399
468.875
471.268
473.581
475.819
477.982
480.076
482.103
484.065
485.967
487.809
489.595
491.324
492.999
494.619
496.183
497.695
499.152
500.552
501.898
503.205
504.493
505.775
507.057
508.34
509.615
510.879
512.124
513.336
514.531
515.69
516.793
517.876
518.91
519.87
520.805
521.671
522.456
523.225
523.944
524.633
525.321
525.971
526.638
527.264
527.849
528.494
529.105
529.636
530.184
530.712
531.151
531.557
531.963
532.353
532.724
533.092
533.492
533.88
534.274
534.708
535.116
535.502
535.861
536.193
536.492
536.771
537.048
537.326
537.611
537.912
538.234
538.562
538.895
539.218
539.517
539.784
540.021
540.237
540.442
540.645
540.856
351.999
359.389
366.704
374.154
381.677
389.19
396.619
403.9
410.981
417.82
424.385
430.653
436.605
442.228
447.519
452.482
457.112
461.406
465.373
469.031
472.355
475.378
478.141
480.673
482.996
485.124
487.07
488.844
490.456
491.913
493.225
494.403
495.458
496.398
497.233
497.973
498.627
499.209
499.743
500.252
500.757
501.265
501.781
502.302
502.834
503.382
503.946
504.527
505.124
505.732
506.347
506.968
507.594
508.223
508.856
509.492
510.131
510.775
511.421
512.071
512.723
513.375
514.026
514.673
515.312
515.936
516.546
517.143
517.739
518.344
518.959
519.59
520.244
520.906
521.578
522.263
522.927
523.593
524.27
524.903
525.535
526.173
526.747
527.317
527.873
528.37
528.894
529.392
529.858
530.383
530.87
531.31
531.822
532.297
532.711
533.175
533.636
534.036
534.405
534.763
535.118
535.448
535.756
536.095
536.441
536.794
537.163
537.532
537.894
538.244
538.579
538.895
539.19
539.474
539.754
540.032
540.319
540.622
540.938
541.264
541.593
541.913
542.211
542.481
542.726
542.951
543.165
543.376
543.588
482.476
487.916
492.773
497.094
500.929
504.323
507.332
509.995
512.337
514.378
516.145
517.654
518.92
519.955
520.776
521.389
521.798
522.048
522.204
522.308
522.386
522.446
522.489
522.52
522.529
522.516
522.488
522.441
522.372
522.279
522.164
522.025
521.863
521.675
521.458
521.208
520.927
520.629
520.331
520.046
519.784
519.55
519.345
519.173
519.039
518.946
518.899
518.908
518.953
519.041
519.174
519.344
519.55
519.787
520.054
520.348
520.666
521.008
521.37
521.751
522.15
522.564
522.992
523.43
523.877
524.324
524.768
525.207
525.644
526.08
526.525
526.979
527.429
527.896
528.374
528.833
529.313
529.81
530.267
530.748
531.246
531.687
532.152
532.61
533.007
533.441
533.84
534.204
534.632
535.027
535.371
535.77
536.138
536.464
536.838
537.221
537.573
537.905
538.213
538.527
538.834
539.107
539.391
539.693
540.004
540.326
540.662
541.001
541.34
541.673
541.996
542.304
542.6
542.887
543.17
543.455
543.749
544.055
544.375
544.706
545.037
545.355
545.652
545.923
546.169
546.398
546.616
546.83
547.044
547.779
548.216
548.443
548.555
548.558
548.519
548.426
548.281
548.082
547.818
547.504
547.142
546.725
546.235
545.648
544.944
544.136
543.272
542.397
541.526
540.665
539.83
539.025
538.246
537.504
536.807
536.153
535.54
534.966
534.431
533.933
533.471
533.045
532.654
532.294
531.958
531.626
531.285
530.937
530.588
530.25
529.93
529.636
529.371
529.14
528.947
528.798
528.692
528.623
528.617
528.64
528.703
528.804
528.939
529.107
529.303
529.526
529.773
530.042
530.331
530.639
530.962
531.3
531.651
532.008
532.366
532.72
533.068
533.407
533.747
534.075
534.388
534.714
535.038
535.344
535.684
536.028
536.338
536.69
537.051
537.366
537.722
538.072
538.374
538.708
539.022
539.298
539.613
539.915
540.187
540.475
540.775
541.061
541.337
541.649
541.958
542.261
542.533
542.798
543.074
543.338
543.59
543.853
544.132
544.43
544.744
545.067
545.395
545.724
546.05
546.367
546.674
546.97
547.261
547.548
547.839
548.139
548.451
548.775
549.105
549.43
549.739
550.025
550.286
550.525
550.748
550.962
571.595
570.7
569.664
568.592
567.514
566.415
565.317
564.26
563.229
562.158
561.146
560.194
559.275
558.372
557.524
556.767
556.007
555.171
554.266
553.302
552.304
551.306
550.32
549.352
548.415
547.523
546.681
545.887
545.143
544.451
543.812
543.225
542.691
542.213
541.795
541.431
541.097
540.774
540.45
540.123
539.796
539.477
539.171
538.885
538.624
538.393
538.196
538.037
537.914
537.835
537.792
537.797
537.829
537.893
537.989
538.113
538.262
538.434
538.627
538.837
539.064
539.304
539.556
539.818
540.087
540.357
540.625
540.885
541.135
541.382
541.616
541.84
542.076
542.293
542.498
542.74
542.966
543.167
543.422
543.669
543.882
544.14
544.405
544.628
544.866
545.129
545.352
545.577
545.825
546.057
546.265
546.507
546.77
547.014
547.243
547.506
547.774
548.031
548.261
548.49
548.729
548.965
549.198
549.442
549.708
549.994
550.292
550.599
550.912
551.228
551.542
551.849
552.148
552.44
552.727
553.014
553.306
553.607
553.919
554.239
554.559
554.869
555.16
555.427
555.671
555.896
556.107
582.936
581.956
580.864
579.665
578.372
577.045
575.753
574.455
573.116
571.838
570.645
569.462
568.305
567.226
566.26
565.35
564.432
563.521
562.581
561.586
560.577
559.581
558.58
557.589
556.637
555.738
554.886
554.082
553.333
552.64
552.006
551.431
550.917
550.462
550.071
549.743
549.463
549.213
548.977
548.75
548.527
548.311
548.105
547.914
547.74
547.589
547.462
547.362
547.29
547.243
547.241
547.257
547.297
547.361
547.447
547.554
547.678
547.818
547.972
548.139
548.316
548.502
548.697
548.897
549.101
549.305
549.503
549.694
549.882
550.054
550.223
550.397
550.543
550.685
550.857
550.992
551.118
551.295
551.449
551.579
551.752
551.943
552.089
552.244
552.445
552.616
552.767
552.95
553.128
553.284
553.449
553.674
553.886
554.067
554.264
554.492
554.716
554.927
555.12
555.319
555.53
555.744
555.96
556.19
556.444
556.717
557
557.291
557.59
557.893
558.194
558.489
558.778
559.062
559.343
559.625
559.914
560.211
560.516
560.823
561.124
561.41
561.676
561.918
562.14
562.345
562.54
562.732
592.392
591.122
589.889
588.629
587.223
585.832
584.504
583.104
581.649
580.298
579.014
577.718
576.459
575.292
574.22
573.236
572.323
571.466
570.646
569.819
568.974
568.14
567.306
566.465
565.633
564.833
564.067
563.338
562.649
562.006
561.413
560.872
560.386
559.955
559.58
559.265
559.009
558.805
558.638
558.495
558.363
558.239
558.118
558.002
557.894
557.796
557.712
557.642
557.589
557.551
557.542
557.55
557.573
557.612
557.667
557.737
557.819
557.912
558.015
558.125
558.244
558.368
558.499
558.634
558.773
558.913
559.049
559.183
559.312
559.427
559.545
559.66
559.748
559.842
559.951
560.018
560.089
560.202
560.28
560.346
560.45
560.576
560.653
560.742
560.881
561.005
561.096
561.221
561.346
561.455
561.566
561.743
561.91
562.053
562.205
562.391
562.573
562.759
562.934
563.099
563.275
563.468
563.667
563.869
564.09
564.336
564.596
564.864
565.141
565.428
565.718
566.005
566.287
566.565
566.839
567.112
567.387
567.668
567.955
568.244
568.529
568.803
569.06
569.296
569.51
569.705
569.888
570.065
600.023
598.669
597.44
596.238
594.959
593.772
592.599
591.3
590.02
588.834
587.615
586.376
585.206
584.093
583.008
581.989
581.062
580.219
579.433
578.693
577.971
577.27
576.584
575.897
575.214
574.545
573.897
573.272
572.674
572.112
571.589
571.11
570.676
570.289
569.948
569.658
569.42
569.237
569.103
569.006
568.935
568.877
568.826
568.777
568.729
568.682
568.639
568.6
568.568
568.543
568.53
568.532
568.541
568.561
568.591
568.63
568.677
568.731
568.79
568.855
568.923
568.996
569.072
569.151
569.234
569.317
569.399
569.481
569.556
569.623
569.694
569.756
569.799
569.853
569.907
569.926
569.958
570.019
570.039
570.059
570.114
570.183
570.206
570.246
570.335
570.413
570.457
570.534
570.616
570.68
570.761
570.888
571.008
571.109
571.238
571.387
571.531
571.682
571.845
571.993
572.137
572.3
572.485
572.675
572.871
573.089
573.327
573.575
573.831
574.099
574.374
574.652
574.926
575.196
575.463
575.726
575.989
576.254
576.522
576.79
577.056
577.313
577.555
577.779
577.982
578.165
578.333
578.492
606.946
605.678
604.433
603.215
602.134
601.024
599.862
598.769
597.705
596.573
595.482
594.445
593.406
592.377
591.414
590.518
589.688
588.924
588.224
587.574
586.965
586.388
585.831
585.286
584.755
584.237
583.732
583.246
582.783
582.349
581.947
581.581
581.252
580.961
580.709
580.499
580.336
580.219
580.144
580.104
580.088
580.084
580.085
580.084
580.082
580.077
580.068
580.057
580.045
580.036
580.032
580.033
580.038
580.048
580.063
580.082
580.106
580.132
580.161
580.193
580.226
580.26
580.297
580.335
580.374
580.412
580.452
580.484
580.513
580.546
580.565
580.574
580.596
580.603
580.591
580.595
580.61
580.593
580.582
580.604
580.625
580.611
580.621
580.673
580.708
580.719
580.76
580.813
580.843
580.901
580.982
581.063
581.131
581.245
581.362
581.478
581.595
581.736
581.883
582.01
582.143
582.308
582.498
582.685
582.878
583.094
583.326
583.565
583.814
584.074
584.341
584.607
584.87
585.129
585.384
585.636
585.886
586.135
586.383
586.628
586.864
587.088
587.295
587.483
587.651
587.803
587.944
615.658
614.396
613.132
611.974
610.917
609.831
608.802
607.828
606.837
605.854
604.895