/*--------------------------------*- C++ -*----------------------------------*\
| =========                 |                                                 |
| \\      /  F ield         | OpenFOAM: The Open Source CFD Toolbox           |
|  \\    /   O peration     | Version:  v1706                                 |
|   \\  /    A nd           | Web:      www.OpenFOAM.com                      |
|    \\/     M anipulation  |                                                 |
\*---------------------------------------------------------------------------*/
FoamFile
{
    version     2.0;
    format      ascii;
    class       volScalarField;
    location    "3.5e-05";
    object      Tv;
}
// * * * * * * * * * * * * * * * * * * * * * * * * * * * * * * * * * * * * * //

dimensions      [0 0 0 1 0 0 0];


internalField   nonuniform List<scalar> 
29871
(
144.4
144.4
144.4
144.4
144.4
144.4
144.4
144.4
144.4
144.4
144.4
144.4
144.4
144.4
144.4
144.4
144.4
144.4
144.4
144.4
144.4
144.4
144.4
144.4
144.4
144.4
144.4
144.4
144.4
144.4
144.4
144.4
144.4
144.4
144.4
144.4
144.4
144.4
144.4
144.4
144.4
144.4
144.4
144.4
144.4
144.4
144.4
144.4
144.4
144.4
144.4
144.4
144.4
144.4
144.4
144.4
144.4
144.4
144.4
144.4
144.4
144.4
144.4
144.4
144.4
144.4
144.4
144.4
144.4
144.4
144.4
144.4
144.4
144.4
144.4
144.4
144.4
144.4
144.4
144.4
144.4
144.4
144.4
144.4
144.4
144.4
144.4
144.4
144.4
144.4
144.4
144.4
144.4
144.4
144.4
144.4
144.4
144.4
144.4
144.4
144.4
144.4
144.4
144.4
144.4
144.4
144.4
144.4
144.4
144.4
144.4
144.4
144.4
144.4
144.4
144.4
144.4
144.4
144.4
144.4
144.4
144.4
144.4
144.4
144.4
144.4
144.4
144.4
144.4
144.4
144.4
144.4
144.4
144.4
144.4
144.4
144.4
144.4
144.4
144.4
144.4
144.4
144.4
144.4
144.4
144.4
144.4
144.4
144.4
144.4
144.4
144.4
144.4
144.4
144.4
144.4
144.4
144.4
144.4
144.4
144.4
144.4
144.4
144.4
144.4
144.4
144.4
144.4
144.4
144.4
144.4
144.4
144.4
144.4
144.4
144.4
144.4
144.4
144.4
144.4
144.4
144.4
144.4
144.4
144.4
144.4
144.4
144.4
144.4
144.4
144.4
144.4
144.4
144.4
144.4
144.4
144.4
144.4
144.4
144.4
144.4
144.4
144.4
144.4
144.4
144.4
144.4
144.4
144.4
144.4
144.4
144.4
144.4
144.4
144.4
144.4
144.4
144.4
144.4
144.4
144.4
144.4
144.4
144.4
144.4
144.4
144.4
144.4
144.4
144.4
144.4
144.4
144.4
144.4
144.4
144.4
144.4
144.4
144.4
144.4
144.4
144.4
144.4
144.4
144.4
144.4
144.4
144.4
144.4
144.4
144.4
144.4
144.4
144.4
144.4
144.4
144.4
144.4
144.4
144.4
144.4
144.4
144.4
144.4
144.4
144.4
144.4
144.4
144.4
144.4
144.4
144.4
144.4
144.4
144.4
144.4
144.4
144.4
144.4
144.4
144.4
144.4
144.4
144.4
144.4
144.4
144.4
144.4
144.4
144.4
144.4
144.4
144.4
144.4
144.4
144.4
144.4
144.4
144.4
144.4
144.4
144.4
144.4
144.4
144.4
144.4
144.4
144.4
144.4
144.4
144.4
144.4
144.4
144.4
144.4
144.4
144.4
144.4
144.4
144.4
144.4
144.4
144.4
144.4
144.4
144.4
144.4
144.4
144.4
144.4
144.4
144.4
144.4
144.4
144.4
144.4
144.4
144.4
144.4
144.4
144.4
144.4
144.4
144.4
144.4
144.4
144.4
144.4
144.4
144.4
144.4
144.4
144.4
144.4
144.4
144.4
144.4
144.4
144.4
144.4
144.4
144.4
144.4
144.4
144.4
144.4
144.4
144.4
144.4
144.4
144.4
144.4
144.4
144.4
144.4
144.4
144.4
144.4
144.4
144.4
144.4
144.4
144.4
144.4
144.4
144.4
144.4
144.4
144.4
144.4
144.4
144.4
144.4
144.4
144.4
144.4
144.4
144.4
144.4
144.4
144.4
144.4
144.4
144.4
144.4
144.4
144.4
144.4
144.4
144.4
144.4
144.4
144.4
144.4
144.4
144.4
144.4
144.4
144.4
144.4
144.4
144.4
144.4
144.4
144.4
144.4
144.4
144.4
144.4
144.4
144.4
144.4
144.4
144.4
144.4
144.4
144.4
144.4
144.4
144.4
144.4
144.4
144.4
144.4
144.4
144.4
144.4
144.4
144.4
144.4
144.4
144.4
144.4
144.4
144.4
144.4
144.4
144.4
144.4
144.4
144.4
144.4
144.4
144.4
144.4
144.4
144.4
144.4
144.4
144.4
144.4
144.4
144.4
144.4
144.4
144.4
144.4
144.4
144.4
144.4
144.4
144.4
144.4
144.4
144.4
144.4
144.4
144.4
144.4
144.4
144.4
144.4
144.4
144.4
144.4
144.4
144.4
144.4
144.4
144.4
144.4
144.4
144.4
144.4
144.4
144.4
144.4
144.4
144.4
144.4
144.4
144.4
144.4
144.4
144.4
144.4
144.4
144.4
144.4
144.4
144.4
144.4
144.4
144.4
144.4
144.4
144.4
144.4
144.4
144.4
144.4
144.4
144.4
144.4
144.4
144.4
144.4
144.4
144.4
144.4
144.4
144.4
144.4
144.4
144.4
144.4
144.4
144.4
144.4
144.4
144.4
144.4
144.4
144.4
144.4
144.4
144.4
144.4
144.4
144.4
144.4
144.4
144.4
144.4
144.4
144.4
144.4
144.4
144.4
144.4
144.4
144.4
144.4
144.4
144.4
144.4
144.4
144.4
144.4
144.4
144.4
144.4
144.4
144.4
144.4
144.4
144.4
144.4
144.4
144.4
144.4
144.4
144.4
144.4
144.4
144.4
144.4
144.4
144.4
144.4
144.4
144.4
144.4
144.4
144.4
144.4
144.4
144.4
144.4
144.4
144.4
144.4
144.4
144.4
144.4
144.4
144.4
144.4
144.4
144.4
144.4
144.4
144.4
144.4
144.4
144.4
144.4
144.4
144.4
144.4
144.4
144.4
144.4
144.4
144.4
144.4
144.4
144.4
144.4
144.4
144.4
144.4
144.4
144.4
144.4
144.4
144.4
144.4
144.4
144.4
144.4
144.4
144.4
144.4
144.4
144.4
144.4
144.4
144.4
144.4
144.4
144.4
144.4
144.4
144.4
144.4
144.4
144.4
144.4
144.4
144.4
144.4
144.4
144.4
144.4
144.4
144.4
144.4
144.4
144.4
144.4
144.4
144.4
144.4
144.4
144.4
144.4
144.4
144.4
144.4
144.4
144.4
144.4
144.4
144.4
144.4
144.4
144.4
144.4
144.4
144.4
144.4
144.4
144.4
144.4
144.4
144.4
144.4
144.4
144.4
144.4
144.4
144.4
144.4
144.4
144.4
144.4
144.4
144.4
144.4
144.4
144.4
144.4
144.4
144.4
144.4
144.4
144.4
144.4
144.4
144.4
144.4
144.4
144.4
144.4
144.4
144.4
144.4
144.4
144.4
144.4
144.4
144.4
144.4
144.4
144.4
144.4
144.4
144.4
144.4
144.4
144.4
144.4
144.4
144.4
144.4
144.4
144.4
144.4
144.4
144.4
144.4
144.4
144.4
144.4
144.4
144.4
144.4
144.4
144.4
144.4
144.4
144.4
144.4
144.4
144.4
144.4
144.4
144.4
144.4
144.4
144.4
144.4
144.4
144.4
144.4
144.4
144.4
144.4
144.4
144.4
144.4
144.4
144.4
144.4
144.4
144.4
144.4
144.4
144.4
144.4
144.4
144.4
144.4
144.4
144.4
144.4
144.4
144.4
144.4
144.4
144.4
144.4
144.4
144.4
144.4
144.4
144.4
144.4
144.4
144.4
144.4
144.4
144.4
144.4
144.4
144.4
144.4
144.4
144.4
144.4
144.4
144.4
144.4
144.4
144.4
144.4
144.4
144.4
144.4
144.4
144.4
144.4
144.4
144.4
144.4
144.4
144.4
144.4
144.4
144.4
144.4
144.4
144.4
144.4
144.4
144.4
144.4
144.4
144.4
144.4
144.4
144.4
144.4
144.4
144.4
144.4
144.4
144.4
144.4
144.4
144.4
144.4
144.4
144.4
144.4
144.4
144.4
144.4
144.4
144.4
144.4
144.4
144.4
144.4
144.4
144.4
144.4
144.4
144.4
144.4
144.4
144.4
144.4
144.4
144.4
144.4
144.4
144.4
144.4
144.4
144.4
144.4
144.4
144.4
144.4
144.4
144.4
144.4
144.4
144.4
144.4
144.4
144.4
144.4
144.4
144.4
144.4
144.4
144.4
144.4
144.4
144.4
144.4
144.4
144.4
144.4
144.4
144.4
144.4
144.4
144.4
144.4
144.4
144.4
144.4
144.4
144.4
144.4
144.4
144.4
144.4
144.4
144.4
144.4
144.4
144.4
144.4
144.4
144.4
144.4
144.4
144.4
144.4
144.4
144.4
144.4
144.4
144.4
144.4
144.4
144.4
144.4
144.4
144.4
144.4
144.4
144.4
144.4
144.4
144.4
144.4
144.4
144.4
144.4
144.4
144.4
144.4
144.4
144.4
144.4
144.4
144.4
144.4
144.4
144.4
144.4
144.4
144.4
144.4
144.4
144.4
144.4
144.4
144.4
144.4
144.4
144.4
144.4
144.4
144.4
144.4
144.4
144.4
144.4
144.4
144.4
144.4
144.4
144.4
144.4
144.4
144.4
144.4
144.4
144.4
144.4
144.4
144.4
144.4
144.4
144.4
144.4
144.4
144.4
144.4
144.4
144.4
144.4
144.4
144.4
144.4
144.4
144.4
144.4
144.4
144.4
144.4
144.4
144.4
144.4
144.4
144.4
144.4
144.4
144.4
144.4
144.4
144.4
144.4
144.4
144.4
144.4
144.4
144.4
144.4
144.4
144.4
144.4
144.4
144.4
144.4
144.4
144.4
144.4
144.4
144.4
144.4
144.4
144.4
144.4
144.4
144.4
144.4
144.4
144.4
144.4
144.4
144.4
144.4
144.4
144.4
144.4
144.4
144.4
144.4
144.4
144.4
144.4
144.4
144.4
144.4
144.4
144.4
144.4
144.4
144.4
144.4
144.4
144.4
144.4
144.4
144.4
144.4
144.4
144.4
144.4
144.4
144.4
144.4
144.4
144.4
144.4
144.4
144.4
144.4
144.4
144.4
144.4
144.4
144.4
144.4
144.4
144.4
144.4
144.4
144.4
144.4
144.4
144.4
144.4
144.4
144.4
144.4
144.4
144.4
144.4
144.4
144.4
144.4
144.4
144.4
144.4
144.4
144.4
144.4
144.4
144.4
144.4
144.4
144.4
144.4
144.4
144.4
144.4
144.4
144.4
144.4
144.4
144.4
144.4
144.4
144.4
144.4
144.4
144.4
144.4
144.4
144.4
144.4
144.4
144.4
144.4
144.4
144.4
144.4
144.4
144.4
144.4
144.4
144.4
144.4
144.4
144.4
144.4
144.4
144.4
144.4
144.4
144.4
144.4
144.4
144.4
144.4
144.4
144.4
144.4
144.4
144.4
144.4
144.4
144.4
144.4
144.4
144.4
144.4
144.4
144.4
144.4
144.4
144.4
144.4
144.4
144.4
144.4
144.4
144.4
144.4
144.4
144.4
144.4
144.4
144.4
144.4
144.4
144.4
144.4
144.4
144.4
144.4
144.4
144.4
144.4
144.4
144.4
144.4
144.4
144.4
144.4
144.4
144.4
144.4
144.4
144.4
144.4
144.4
144.4
144.4
144.4
144.4
144.4
144.4
144.4
144.4
144.4
144.4
144.4
144.4
144.4
144.4
144.4
144.4
144.4
144.4
144.4
144.4
144.4
144.4
144.4
144.4
144.4
144.4
144.4
144.4
144.4
144.4
144.4
144.4
144.4
144.4
144.4
144.4
144.4
144.4
144.4
144.4
144.4
144.4
144.4
144.4
144.4
144.4
144.4
144.4
144.4
144.4
144.4
144.4
144.4
144.4
144.4
144.4
144.4
144.4
144.4
144.4
144.4
144.4
144.4
144.4
144.4
144.4
144.4
144.4
144.4
144.4
144.4
144.4
144.4
144.4
144.4
144.4
144.4
144.4
144.4
144.4
144.4
144.4
144.4
144.4
144.4
144.4
144.4
144.4
144.4
144.4
144.4
144.4
144.4
144.4
144.4
144.4
144.4
144.4
144.4
144.4
144.4
144.4
144.4
144.4
144.4
144.4
144.4
144.4
144.4
144.4
144.4
144.4
144.4
144.4
144.4
144.4
144.4
144.4
144.4
144.4
144.4
144.4
144.4
144.4
144.4
144.4
144.4
144.4
144.4
144.4
144.4
144.4
144.4
144.4
144.4
144.4
144.4
144.4
144.4
144.4
144.4
144.4
144.4
144.4
144.4
144.4
144.4
144.4
144.4
144.4
144.4
144.4
144.4
144.4
144.4
144.4
144.4
144.4
144.4
144.4
144.4
144.4
144.4
144.4
144.4
144.4
144.4
144.4
144.4
144.4
144.4
144.4
144.4
144.4
144.4
144.4
144.4
144.4
144.4
144.4
144.4
144.4
144.4
144.4
144.4
144.4
144.4
144.4
144.4
144.4
144.4
144.4
144.4
144.4
144.4
144.4
144.4
144.4
144.4
144.4
144.4
144.4
144.4
144.4
144.4
144.4
144.4
144.4
144.4
144.4
144.4
144.4
144.4
144.4
144.4
144.4
144.4
144.4
144.4
144.4
144.4
144.4
144.4
144.4
144.4
144.4
144.4
144.4
144.4
144.4
144.4
144.4
144.4
144.4
144.4
144.4
144.4
144.4
144.4
144.4
144.4
144.4
144.4
144.4
144.4
144.4
144.4
144.4
144.4
144.4
144.4
144.4
144.4
144.4
144.4
144.4
144.4
144.4
144.4
144.4
144.4
144.4
144.4
144.4
144.4
144.4
144.4
144.4
144.4
144.4
144.4
144.4
144.4
144.4
144.4
144.4
144.4
144.4
144.4
144.4
144.4
144.4
144.4
144.4
144.4
144.4
144.4
144.4
144.4
144.4
144.4
144.4
144.4
144.4
144.4
144.4
144.4
144.4
144.4
144.4
144.4
144.4
144.4
144.4
144.4
144.4
144.4
144.4
144.4
144.4
144.4
144.4
144.4
144.4
144.4
144.4
144.4
144.4
144.4
144.4
144.4
144.4
144.4
144.4
144.4
144.4
144.4
144.4
144.4
144.4
144.4
144.4
144.4
144.4
144.4
144.4
144.4
144.4
144.4
144.4
144.4
144.4
144.4
144.4
144.4
144.4
144.4
144.4
144.4
144.4
144.4
144.4
144.4
144.4
144.4
144.4
144.4
144.4
144.4
144.4
144.4
144.4
144.4
144.4
144.4
144.4
144.4
144.4
144.4
144.4
144.4
144.4
144.4
144.4
144.4
144.4
144.4
144.4
144.4
144.4
144.4
144.4
144.4
144.4
144.4
144.4
144.4
144.4
144.4
144.4
144.4
144.4
144.4
144.4
144.4
144.4
144.4
144.4
144.4
144.4
144.4
144.4
144.4
144.4
144.4
144.4
144.4
144.4
144.4
144.4
144.4
144.4
144.4
144.4
144.4
144.4
144.4
144.4
144.4
144.4
144.4
144.4
144.4
144.4
144.4
144.4
144.4
144.4
144.4
144.4
144.4
144.4
144.4
144.4
144.4
144.4
144.4
144.4
144.4
144.4
144.4
144.4
144.4
144.4
144.4
144.4
144.4
144.4
144.4
144.4
144.4
144.4
144.4
144.4
144.4
144.4
144.4
144.4
144.4
144.4
144.4
144.4
144.4
144.4
144.4
144.4
144.4
144.4
144.4
144.4
144.4
144.4
144.4
144.4
144.4
144.4
144.4
144.4
144.4
144.4
144.4
144.4
144.4
144.4
144.4
144.4
144.4
144.4
144.4
144.4
144.4
144.4
144.4
144.4
144.4
144.4
144.4
144.4
144.4
144.4
144.4
144.4
144.4
144.4
144.4
144.4
144.4
144.4
144.4
144.4
144.4
144.4
144.4
144.4
144.4
144.4
144.4
144.4
144.4
144.4
144.4
144.4
144.4
144.4
144.4
144.4
144.4
144.4
144.4
144.4
144.4
144.4
144.4
144.4
144.4
144.4
144.4
144.4
144.4
144.4
144.4
144.4
144.4
144.4
144.4
144.4
144.4
144.4
144.4
144.4
144.4
144.4
144.4
144.4
144.4
144.4
144.4
144.4
144.4
144.4
144.4
144.4
144.4
144.4
144.4
144.4
144.4
144.4
144.4
144.4
144.4
144.4
144.4
144.4
144.4
144.4
144.4
144.4
144.4
144.4
144.4
144.4
144.4
144.4
144.4
144.4
144.4
144.4
144.4
144.4
144.4
144.4
144.4
144.4
144.4
144.4
144.4
144.4
144.4
144.4
144.4
144.4
144.4
144.4
144.4
144.4
144.4
144.4
144.4
144.4
144.4
144.4
144.4
144.4
144.4
144.4
144.4
144.4
144.4
144.4
144.4
144.4
144.4
144.4
144.4
144.4
144.4
144.4
144.4
144.4
144.4
144.4
144.4
144.4
144.4
144.4
144.4
144.4
144.4
144.4
144.4
144.4
144.4
144.4
144.4
144.4
144.4
144.4
144.4
144.4
144.4
144.4
144.4
144.4
144.4
144.4
144.4
144.4
144.4
144.4
144.4
144.4
144.4
144.4
144.4
144.4
144.4
144.4
144.4
144.4
144.4
144.4
144.4
144.4
144.4
144.4
144.4
144.4
144.4
144.4
144.4
144.4
144.4
144.4
144.4
144.4
144.4
144.4
144.4
144.4
144.4
144.4
144.4
144.4
144.4
144.4
144.4
144.4
144.4
144.4
144.4
144.4
144.4
144.4
144.4
144.4
144.4
144.4
144.4
144.4
144.4
144.4
144.4
144.4
144.4
144.4
144.4
144.4
144.4
144.4
144.4
144.4
144.4
144.4
144.4
144.4
144.4
144.4
144.4
144.4
144.4
144.4
144.4
144.4
144.4
144.4
144.4
144.4
144.4
144.4
144.4
144.4
144.4
144.4
144.4
144.4
144.4
144.4
144.401
144.401
144.401
144.401
144.401
144.401
144.4
144.4
144.4
144.4
144.4
144.4
144.4
144.4
144.4
144.4
144.4
144.4
144.4
144.4
144.4
144.4
144.4
144.4
144.4
144.4
144.4
144.4
144.4
144.4
144.4
144.4
144.4
144.4
144.4
144.4
144.4
144.4
144.4
144.4
144.4
144.4
144.4
144.4
144.4
144.4
144.4
144.4
144.4
144.4
144.4
144.4
144.4
144.4
144.4
144.4
144.4
144.4
144.4
144.4
144.4
144.4
144.4
144.4
144.4
144.4
144.4
144.4
144.4
144.4
144.4
144.4
144.4
144.4
144.4
144.4
144.4
144.4
144.4
144.4
144.4
144.4
144.4
144.4
144.4
144.4
144.4
144.4
144.4
144.4
144.4
144.4
144.4
144.4
144.4
144.4
144.4
144.4
144.4
144.4
144.4
144.4
144.4
144.4
144.4
144.4
144.401
144.401
144.401
144.401
144.401
144.401
144.401
144.401
144.401
144.401
144.402
144.402
144.402
144.402
144.403
144.403
144.403
144.404
144.404
144.405
144.405
144.406
144.407
144.4
144.4
144.4
144.4
144.4
144.4
144.4
144.4
144.4
144.4
144.4
144.4
144.4
144.4
144.4
144.4
144.4
144.4
144.4
144.4
144.4
144.4
144.4
144.4
144.4
144.4
144.4
144.4
144.4
144.4
144.4
144.4
144.4
144.4
144.4
144.4
144.4
144.4
144.4
144.4
144.4
144.4
144.4
144.4
144.4
144.4
144.4
144.4
144.4
144.4
144.4
144.4
144.4
144.4
144.4
144.4
144.4
144.4
144.4
144.4
144.4
144.4
144.4
144.4
144.4
144.4
144.4
144.4
144.4
144.4
144.4
144.4
144.4
144.4
144.4
144.4
144.4
144.4
144.4
144.4
144.401
144.401
144.401
144.401
144.401
144.401
144.401
144.401
144.401
144.401
144.401
144.401
144.402
144.402
144.402
144.402
144.402
144.403
144.403
144.403
144.404
144.404
144.404
144.405
144.405
144.406
144.407
144.407
144.408
144.409
144.41
144.411
144.412
144.413
144.415
144.416
144.418
144.419
144.421
144.423
144.425
144.427
144.43
144.432
144.435
144.4
144.4
144.4
144.4
144.4
144.4
144.4
144.4
144.4
144.4
144.4
144.4
144.4
144.4
144.4
144.4
144.4
144.4
144.4
144.4
144.4
144.4
144.4
144.4
144.4
144.4
144.4
144.4
144.4
144.4
144.4
144.4
144.4
144.4
144.4
144.4
144.4
144.4
144.4
144.4
144.4
144.401
144.401
144.401
144.401
144.401
144.401
144.401
144.401
144.401
144.401
144.401
144.401
144.401
144.401
144.401
144.401
144.401
144.401
144.401
144.401
144.401
144.401
144.401
144.401
144.401
144.401
144.401
144.401
144.402
144.402
144.402
144.402
144.402
144.402
144.402
144.402
144.403
144.403
144.403
144.403
144.404
144.404
144.404
144.405
144.405
144.405
144.406
144.407
144.407
144.408
144.409
144.409
144.41
144.411
144.412
144.413
144.414
144.416
144.417
144.419
144.421
144.423
144.425
144.427
144.429
144.431
144.434
144.437
144.44
144.443
144.447
144.451
144.454
144.459
144.463
144.467
144.472
144.477
144.482
144.488
144.494
144.501
144.508
144.515
144.4
144.4
144.4
144.4
144.401
144.401
144.401
144.401
144.401
144.401
144.401
144.401
144.401
144.401
144.401
144.401
144.401
144.401
144.401
144.401
144.401
144.401
144.402
144.402
144.402
144.402
144.402
144.402
144.402
144.402
144.402
144.402
144.402
144.402
144.402
144.403
144.403
144.403
144.403
144.403
144.403
144.403
144.403
144.403
144.403
144.403
144.404
144.404
144.404
144.404
144.404
144.404
144.404
144.404
144.405
144.405
144.405
144.405
144.405
144.406
144.406
144.406
144.406
144.407
144.407
144.407
144.408
144.408
144.409
144.409
144.41
144.41
144.411
144.412
144.412
144.413
144.414
144.415
144.416
144.417
144.418
144.419
144.421
144.422
144.424
144.426
144.428
144.43
144.432
144.435
144.437
144.44
144.443
144.446
144.449
144.453
144.457
144.461
144.466
144.471
144.476
144.481
144.486
144.492
144.498
144.504
144.511
144.518
144.525
144.533
144.542
144.551
144.56
144.57
144.58
144.59
144.601
144.613
144.624
144.637
144.65
144.664
144.678
144.693
144.709
144.402
144.402
144.403
144.403
144.403
144.403
144.403
144.404
144.404
144.404
144.404
144.405
144.405
144.405
144.406
144.406
144.406
144.407
144.407
144.407
144.408
144.408
144.408
144.409
144.409
144.41
144.41
144.41
144.411
144.411
144.411
144.412
144.412
144.413
144.413
144.414
144.414
144.414
144.415
144.415
144.416
144.416
144.416
144.417
144.417
144.418
144.418
144.419
144.419
144.42
144.421
144.421
144.422
144.423
144.423
144.424
144.425
144.426
144.427
144.428
144.429
144.43
144.431
144.432
144.433
144.435
144.436
144.438
144.44
144.441
144.443
144.446
144.448
144.451
144.453
144.456
144.459
144.462
144.465
144.469
144.473
144.476
144.481
144.485
144.49
144.496
144.501
144.507
144.514
144.52
144.527
144.534
144.542
144.55
144.558
144.567
144.576
144.586
144.596
144.607
144.618
144.63
144.643
144.656
144.67
144.684
144.699
144.714
144.73
144.747
144.764
144.783
144.802
144.822
144.843
144.865
144.888
144.912
144.936
144.962
144.988
145.016
145.045
145.075
145.106
145.138
144.412
144.413
144.414
144.415
144.416
144.418
144.419
144.42
144.422
144.423
144.424
144.426
144.427
144.429
144.43
144.432
144.434
144.435
144.437
144.438
144.44
144.441
144.443
144.445
144.446
144.448
144.45
144.451
144.453
144.455
144.456
144.458
144.46
144.461
144.463
144.465
144.466
144.468
144.469
144.471
144.472
144.474
144.475
144.477
144.479
144.48
144.482
144.484
144.486
144.488
144.49
144.492
144.495
144.497
144.499
144.502
144.505
144.508
144.51
144.513
144.517
144.52
144.523
144.527
144.53
144.535
144.539
144.544
144.549
144.554
144.56
144.566
144.573
144.579
144.586
144.594
144.602
144.61
144.618
144.627
144.636
144.646
144.656
144.668
144.679
144.692
144.705
144.718
144.733
144.748
144.764
144.78
144.797
144.815
144.834
144.853
144.874
144.895
144.917
144.941
144.965
144.991
145.017
145.045
145.074
145.104
145.135
145.167
145.201
145.235
145.271
145.308
145.347
145.388
145.43
145.474
145.519
145.566
145.615
145.665
145.717
145.771
145.827
145.885
145.945
146.007
146.071
146.137
144.463
144.467
144.472
144.477
144.482
144.487
144.493
144.498
144.504
144.509
144.515
144.521
144.527
144.532
144.538
144.544
144.55
144.555
144.561
144.566
144.571
144.576
144.582
144.587
144.592
144.597
144.602
144.607
144.612
144.617
144.621
144.626
144.631
144.635
144.639
144.643
144.647
144.651
144.655
144.659
144.662
144.666
144.669
144.673
144.677
144.681
144.685
144.689
144.694
144.699
144.703
144.708
144.714
144.719
144.724
144.73
144.736
144.742
144.749
144.756
144.763
144.77
144.778
144.786
144.794
144.804
144.813
144.824
144.835
144.846
144.858
144.871
144.885
144.899
144.915
144.931
144.947
144.965
144.983
145.003
145.023
145.044
145.066
145.089
145.114
145.139
145.166
145.195
145.224
145.255
145.288
145.322
145.357
145.394
145.432
145.471
145.512
145.554
145.598
145.644
145.691
145.74
145.791
145.844
145.899
145.956
146.015
146.076
146.139
146.204
146.271
146.34
146.411
146.485
146.561
146.64
146.721
146.805
146.891
146.98
147.072
147.166
147.263
147.363
147.466
147.572
147.68
147.791
144.669
144.685
144.7
144.716
144.732
144.748
144.765
144.781
144.797
144.813
144.829
144.844
144.859
144.874
144.889
144.903
144.917
144.93
144.942
144.954
144.966
144.977
144.989
145
145.01
145.02
145.03
145.04
145.049
145.058
145.067
145.075
145.083
145.091
145.098
145.105
145.112
145.118
145.125
145.131
145.137
145.142
145.148
145.154
145.16
145.167
145.173
145.18
145.188
145.195
145.203
145.212
145.22
145.23
145.239
145.25
145.261
145.272
145.284
145.297
145.311
145.325
145.34
145.356
145.372
145.39
145.409
145.429
145.45
145.473
145.497
145.522
145.549
145.577
145.607
145.638
145.671
145.705
145.741
145.779
145.818
145.859
145.902
145.947
145.993
146.041
146.092
146.145
146.2
146.257
146.316
146.378
146.443
146.509
146.578
146.649
146.722
146.797
146.874
146.954
147.036
147.121
147.208
147.298
147.391
147.487
147.585
147.687
147.791
147.897
148.006
148.118
148.234
148.352
148.473
148.597
148.724
148.855
148.988
149.125
149.265
149.407
149.553
149.702
149.854
150.009
150.168
150.329
145.278
145.313
145.348
145.383
145.418
145.452
145.485
145.517
145.549
145.579
145.608
145.637
145.664
145.69
145.715
145.739
145.762
145.784
145.804
145.823
145.841
145.858
145.875
145.89
145.905
145.92
145.933
145.946
145.959
145.971
145.982
145.993
146.003
146.013
146.022
146.031
146.04
146.048
146.056
146.064
146.072
146.08
146.087
146.095
146.104
146.113
146.123
146.133
146.144
146.155
146.168
146.181
146.195
146.211
146.227
146.245
146.263
146.283
146.305
146.328
146.352
146.378
146.405
146.434
146.465
146.497
146.531
146.567
146.606
146.646
146.689
146.734
146.781
146.831
146.884
146.939
146.996
147.056
147.119
147.185
147.252
147.323
147.396
147.471
147.549
147.63
147.714
147.8
147.89
147.983
148.078
148.178
148.279
148.385
148.493
148.603
148.717
148.833
148.952
149.073
149.197
149.325
149.455
149.588
149.724
149.864
150.007
150.152
150.301
150.452
150.607
150.765
150.926
151.09
151.257
151.427
151.6
151.777
151.956
152.138
152.324
152.512
152.703
152.897
153.093
153.292
153.494
153.699
153.906
146.616
146.672
146.726
146.778
146.828
146.876
146.923
146.967
147.01
147.05
147.089
147.126
147.162
147.195
147.227
147.257
147.284
147.31
147.333
147.355
147.376
147.395
147.413
147.43
147.447
147.462
147.477
147.491
147.504
147.516
147.528
147.54
147.551
147.561
147.572
147.582
147.591
147.601
147.611
147.621
147.631
147.642
147.653
147.665
147.678
147.693
147.708
147.725
147.743
147.763
147.784
147.807
147.831
147.858
147.887
147.918
147.951
147.986
148.024
148.064
148.107
148.152
148.2
148.251
148.305
148.361
148.42
148.482
148.547
148.616
148.687
148.762
148.841
148.922
149.008
149.096
149.188
149.283
149.382
149.484
149.589
149.698
149.809
149.923
150.041
150.162
150.287
150.414
150.545
150.68
150.818
150.959
151.103
151.251
151.401
151.554
151.71
151.869
152.031
152.195
152.362
152.532
152.705
152.881
153.06
153.241
153.426
153.613
153.803
153.996
154.192
154.391
154.593
154.798
155.005
155.216
155.429
155.645
155.864
156.085
156.308
156.533
156.76
156.99
157.222
157.456
157.691
157.929
148.673
148.743
148.81
148.874
148.934
148.992
149.046
149.099
149.148
149.195
149.24
149.282
149.322
149.36
149.395
149.428
149.458
149.485
149.509
149.532
149.552
149.572
149.59
149.608
149.624
149.639
149.654
149.668
149.682
149.695
149.707
149.72
149.732
149.745
149.757
149.77
149.782
149.795
149.808
149.822
149.837
149.853
149.87
149.889
149.909
149.931
149.956
149.982
150.01
150.041
150.074
150.11
150.149
150.19
150.235
150.282
150.333
150.387
150.444
150.505
150.569
150.637
150.709
150.784
150.863
150.946
151.032
151.122
151.215
151.312
151.413
151.518
151.627
151.74
151.856
151.977
152.1
152.229
152.36
152.495
152.633
152.775
152.92
153.068
153.22
153.375
153.533
153.695
153.859
154.027
154.198
154.373
154.55
154.73
154.913
155.098
155.286
155.477
155.67
155.866
156.064
156.265
156.468
156.674
156.882
157.093
157.307
157.523
157.742
157.963
158.186
158.413
158.641
158.873
159.107
159.344
159.583
159.825
160.068
160.314
160.562
160.811
161.061
161.313
161.567
161.821
162.078
162.335
151.44
151.511
151.577
151.64
151.699
151.755
151.808
151.858
151.906
151.951
151.994
152.034
152.072
152.107
152.14
152.17
152.196
152.22
152.242
152.262
152.28
152.297
152.314
152.33
152.345
152.36
152.375
152.39
152.405
152.42
152.435
152.451
152.468
152.485
152.503
152.522
152.542
152.562
152.584
152.607
152.632
152.659
152.688
152.72
152.754
152.791
152.831
152.873
152.919
152.969
153.022
153.078
153.138
153.202
153.27
153.341
153.417
153.496
153.58
153.668
153.76
153.857
153.958
154.063
154.172
154.285
154.402
154.523
154.648
154.777
154.91
155.047
155.188
155.332
155.481
155.633
155.789
155.948
156.11
156.277
156.447
156.618
156.794
156.973
157.154
157.339
157.526
157.717
157.91
158.107
158.306
158.507
158.711
158.918
159.127
159.338
159.552
159.767
159.985
160.205
160.428
160.652
160.879
161.108
161.339
161.573
161.809
162.048
162.288
162.531
162.776
163.023
163.273
163.525
163.779
164.036
164.294
164.555
164.817
165.081
165.346
165.612
165.879
166.146
166.415
166.684
166.953
154.596
154.66
154.721
154.777
154.83
154.88
154.927
154.972
155.014
155.054
155.092
155.128
155.162
155.194
155.225
155.252
155.277
155.3
155.321
155.34
155.358
155.376
155.393
155.411
155.428
155.446
155.465
155.484
155.504
155.525
155.548
155.572
155.597
155.624
155.653
155.683
155.715
155.749
155.785
155.823
155.864
155.907
155.954
156.004
156.057
156.113
156.174
156.238
156.307
156.379
156.456
156.537
156.622
156.711
156.805
156.903
157.006
157.113
157.225
157.341
157.461
157.586
157.715
157.849
157.987
158.128
158.274
158.424
158.577
158.735
158.895
159.06
159.228
159.399
159.574
159.753
159.934
160.119
160.307
160.498
160.691
160.887
161.087
161.288
161.492
161.699
161.909
162.121
162.335
162.552
162.772
162.993
163.216
163.442
163.67
163.899
164.131
164.364
164.599
164.837
165.076
165.317
165.56
165.806
166.054
166.304
166.556
166.81
167.066
167.324
167.584
167.846
168.111
168.377
168.645
168.915
169.187
169.461
169.735
170.011
170.287
170.564
170.841
171.118
171.395
171.672
171.949
172.225
157.862
157.925
157.983
158.038
158.088
158.135
158.179
158.221
158.261
158.298
158.334
158.369
158.402
158.434
158.465
158.495
158.523
158.55
158.575
158.598
158.621
158.643
158.666
158.688
158.712
158.736
158.761
158.788
158.816
158.847
158.879
158.913
158.95
158.989
159.031
159.075
159.122
159.171
159.223
159.278
159.336
159.396
159.461
159.529
159.601
159.677
159.757
159.841
159.93
160.024
160.121
160.224
160.331
160.442
160.558
160.679
160.804
160.933
161.067
161.206
161.348
161.495
161.646
161.802
161.961
162.124
162.291
162.462
162.636
162.813
162.994
163.178
163.366
163.556
163.75
163.947
164.146
164.348
164.553
164.761
164.97
165.182
165.398
165.615
165.833
166.055
166.278
166.504
166.733
166.963
167.195
167.43
167.665
167.903
168.143
168.385
168.627
168.872
169.118
169.367
169.617
169.869
170.122
170.377
170.635
170.895
171.157
171.421
171.687
171.954
172.223
172.495
172.768
173.042
173.319
173.597
173.876
174.157
174.439
174.722
175.005
175.288
175.571
175.853
176.135
176.416
176.697
176.976
161.19
161.251
161.307
161.361
161.411
161.457
161.501
161.542
161.582
161.619
161.655
161.691
161.726
161.759
161.793
161.826
161.859
161.891
161.923
161.953
161.984
162.015
162.046
162.077
162.11
162.143
162.179
162.216
162.256
162.298
162.342
162.39
162.44
162.494
162.551
162.611
162.675
162.741
162.812
162.885
162.962
163.043
163.127
163.215
163.307
163.403
163.504
163.609
163.719
163.833
163.952
164.076
164.204
164.337
164.474
164.616
164.762
164.912
165.067
165.226
165.388
165.555
165.726
165.901
166.079
166.261
166.446
166.635
166.827
167.021
167.219
167.42
167.624
167.83
168.039
168.251
168.464
168.681
168.9
169.121
169.344
169.569
169.797
170.026
170.256
170.489
170.724
170.961
171.2
171.441
171.683
171.927
172.173
172.42
172.67
172.92
173.171
173.424
173.68
173.936
174.195
174.454
174.715
174.978
175.243
175.511
175.78
176.051
176.324
176.598
176.874
177.152
177.431
177.712
177.994
178.278
178.563
178.849
179.135
179.423
179.71
179.997
180.283
180.569
180.853
181.136
181.418
181.698
164.576
164.632
164.686
164.737
164.784
164.83
164.874
164.916
164.956
164.996
165.035
165.073
165.111
165.149
165.188
165.227
165.266
165.306
165.346
165.387
165.428
165.471
165.514
165.558
165.605
165.653
165.704
165.757
165.813
165.873
165.935
166.001
166.071
166.145
166.223
166.304
166.389
166.479
166.572
166.669
166.77
166.874
166.983
167.096
167.213
167.334
167.46
167.59
167.725
167.865
168.009
168.157
168.31
168.467
168.628
168.794
168.964
169.137
169.315
169.496
169.681
169.87
170.061
170.256
170.455
170.656
170.86
171.068
171.277
171.49
171.705
171.922
172.142
172.364
172.589
172.814
173.043
173.274
173.506
173.74
173.976
174.214
174.453
174.693
174.936
175.18
175.426
175.674
175.923
176.173
176.425
176.679
176.934
177.19
177.448
177.706
177.966
178.228
178.492
178.756
179.022
179.289
179.558
179.829
180.102
180.377
180.653
180.931
181.21
181.491
181.774
182.058
182.343
182.629
182.916
183.204
183.493
183.783
184.072
184.362
184.651
184.938
185.225
185.51
185.793
186.074
186.353
167.87
167.927
167.982
168.035
168.085
168.135
168.183
168.23
168.275
168.321
168.366
168.411
168.455
168.501
168.548
168.595
168.643
168.693
168.743
168.796
168.849
168.905
168.961
169.02
169.081
169.145
169.211
169.28
169.352
169.428
169.507
169.59
169.678
169.769
169.865
169.965
170.069
170.178
170.291
170.408
170.529
170.654
170.783
170.917
171.054
171.196
171.341
171.492
171.646
171.805
171.968
172.135
172.307
172.482
172.662
172.845
173.033
173.224
173.418
173.616
173.817
174.021
174.229
174.439
174.652
174.867
175.085
175.306
175.529
175.754
175.982
176.211
176.442
176.675
176.911
177.147
177.386
177.627
177.869
178.112
178.357
178.604
178.852
179.1
179.351
179.603
179.856
180.111
180.367
180.624
180.882
181.142
181.403
181.666
181.929
182.194
182.459
182.727
182.995
183.264
183.535
183.807
184.08
184.355
184.632
184.911
185.192
185.473
185.756
186.041
186.327
186.614
186.901
187.19
187.479
187.769
188.06
188.35
188.641
188.931
189.22
189.507
189.793
190.077
190.358
190.637
190.913
191.187
191.457
171.118
171.177
171.235
171.291
171.347
171.401
171.455
171.509
171.561
171.614
171.667
171.72
171.774
171.829
171.885
171.943
172.002
172.063
172.126
172.191
172.258
172.327
172.399
172.473
172.55
172.63
172.712
172.798
172.888
172.981
173.078
173.179
173.284
173.394
173.508
173.627
173.75
173.878
174.01
174.147
174.287
174.432
174.581
174.735
174.892
175.053
175.218
175.386
175.559
175.736
175.917
176.102
176.29
176.483
176.679
176.879
177.082
177.288
177.498
177.711
177.926