/*--------------------------------*- C++ -*----------------------------------*\
| =========                 |                                                 |
| \\      /  F ield         | OpenFOAM: The Open Source CFD Toolbox           |
|  \\    /   O peration     | Version:  v1706                                 |
|   \\  /    A nd           | Web:      www.OpenFOAM.com                      |
|    \\/     M anipulation  |                                                 |
\*---------------------------------------------------------------------------*/
FoamFile
{
    version     2.0;
    format      ascii;
    class       volVectorField;
    location    "3.5e-05";
    object      U;
}
// * * * * * * * * * * * * * * * * * * * * * * * * * * * * * * * * * * * * * //

dimensions      [0 1 -1 0 0 0 0];


internalField   nonuniform List<vector> 
29871
(
(1760 -6.64626e-11 6.46408e-15)
(1760 -6.62148e-11 2.81292e-15)
(1760 -6.54095e-11 3.8103e-15)
(1760 -6.51317e-11 4.16858e-15)
(1760 -6.4647e-11 2.00804e-15)
(1760 -6.43664e-11 2.28105e-15)
(1760 -6.41903e-11 3.02245e-15)
(1760 -6.43747e-11 3.15652e-15)
(1760 -6.48913e-11 3.80564e-15)
(1760 -6.51337e-11 3.86621e-15)
(1760 -6.51686e-11 4.43261e-15)
(1760 -6.49511e-11 5.79045e-15)
(1760 -6.3591e-11 4.41414e-15)
(1760 -6.22621e-11 4.80537e-15)
(1760 -6.2112e-11 3.62774e-15)
(1760 -6.23e-11 2.31112e-15)
(1760 -6.21147e-11 2.48786e-15)
(1760 -6.13634e-11 3.34418e-15)
(1760 -6.00238e-11 3.539e-15)
(1760 -5.78977e-11 3.90749e-15)
(1760 -5.6042e-11 3.73138e-15)
(1760 -5.49999e-11 4.20544e-15)
(1760 -5.3929e-11 1.64735e-15)
(1760 -5.43616e-11 3.22893e-15)
(1760 -5.48345e-11 4.95893e-15)
(1760 -5.48387e-11 4.02293e-15)
(1760 -5.37234e-11 6.23644e-15)
(1760 -5.28848e-11 2.48441e-15)
(1760 -5.38627e-11 1.89001e-15)
(1760 -5.59674e-11 3.91815e-15)
(1760 -5.7797e-11 4.07483e-15)
(1760 -6.10076e-11 2.6579e-15)
(1760 -6.30484e-11 3.59636e-15)
(1760 -6.51697e-11 5.30872e-15)
(1760 -6.59805e-11 3.08668e-15)
(1760 -6.63358e-11 1.85459e-15)
(1760 -6.81222e-11 9.24263e-16)
(1760 -6.92254e-11 3.83568e-15)
(1760 -7.08868e-11 4.70043e-15)
(1760 -7.21413e-11 4.60096e-15)
(1760 -7.25093e-11 6.04121e-15)
(1760 -7.2541e-11 6.22605e-15)
(1760 -7.18818e-11 6.06155e-15)
(1760 -7.19232e-11 3.80097e-15)
(1760 -7.23741e-11 3.55321e-15)
(1760 -7.3899e-11 4.40677e-15)
(1760 -7.58348e-11 2.19057e-15)
(1760 -7.6397e-11 7.90104e-16)
(1760 -7.64571e-11 1.98058e-15)
(1760 -7.64223e-11 5.18775e-15)
(1760 -7.66688e-11 4.94185e-15)
(1760 -7.7579e-11 7.73774e-16)
(1760 -7.83937e-11 3.20321e-15)
(1760 -7.8608e-11 4.61289e-15)
(1760 -7.96349e-11 4.40905e-15)
(1760 -8.07479e-11 4.46018e-15)
(1760 -8.14791e-11 4.87762e-15)
(1760 -8.12444e-11 5.76003e-15)
(1760 -8.0655e-11 4.99734e-15)
(1760 -8.07719e-11 4.01165e-15)
(1760 -8.05597e-11 1.89594e-15)
(1760 -7.98971e-11 1.23942e-15)
(1760 -7.81661e-11 2.26431e-15)
(1760 -7.62131e-11 -1.02627e-15)
(1760 -7.41094e-11 3.86957e-15)
(1760 -7.17743e-11 5.16001e-15)
(1760 -6.9936e-11 3.28871e-15)
(1760 -6.68952e-11 2.51181e-15)
(1760 -6.36586e-11 1.35479e-15)
(1760 -6.13207e-11 1.86771e-15)
(1760 -5.70609e-11 2.85677e-15)
(1760 -5.35515e-11 3.26816e-15)
(1760 -5.09039e-11 1.05961e-15)
(1760 -4.59287e-11 2.36843e-15)
(1760 -4.22552e-11 1.21201e-15)
(1760 -3.7981e-11 4.93292e-15)
(1760 -3.46612e-11 2.94613e-16)
(1760 -3.12117e-11 1.80912e-15)
(1760 -2.81733e-11 1.68529e-15)
(1760 -2.68069e-11 4.35063e-15)
(1760 -2.62658e-11 4.6804e-15)
(1760 -2.64466e-11 3.4475e-15)
(1760 -2.56891e-11 3.28158e-15)
(1760 -2.47505e-11 2.31233e-15)
(1760 -2.20583e-11 4.80456e-15)
(1760 -2.06386e-11 3.83815e-15)
(1760 -2.03319e-11 2.57787e-15)
(1760 -1.93892e-11 3.87385e-15)
(1760 -1.87888e-11 4.46711e-15)
(1760 -1.8266e-11 3.58376e-15)
(1760 -1.87145e-11 3.50547e-15)
(1760 -2.15204e-11 2.21482e-15)
(1760 -2.84455e-11 2.44532e-15)
(1760 -3.55055e-11 2.69065e-15)
(1760 -4.60705e-11 2.09026e-15)
(1760 -5.58229e-11 2.51644e-15)
(1760 -6.76771e-11 2.74731e-15)
(1760 -7.99118e-11 3.1209e-15)
(1760 -9.0942e-11 3.20763e-15)
(1760 -1.01547e-10 3.24386e-15)
(1760 -1.10032e-10 4.64963e-15)
(1760 -1.16111e-10 3.88737e-15)
(1760 -1.24928e-10 1.71256e-15)
(1760 -1.32449e-10 2.60826e-15)
(1760 -1.38483e-10 7.31445e-16)
(1760 -1.90317e-10 1.03283e-14)
(1760 -1.91629e-10 9.29338e-15)
(1760 -1.93364e-10 1.20908e-14)
(1760 -1.93285e-10 1.23902e-14)
(1760 -1.93093e-10 1.11273e-14)
(1760 -1.92229e-10 1.35098e-14)
(1760 -1.91452e-10 1.27359e-14)
(1760 -1.91528e-10 1.17461e-14)
(1760 -1.92371e-10 1.19502e-14)
(1760 -1.93942e-10 1.12412e-14)
(1760 -1.95188e-10 1.15395e-14)
(1760 -1.97033e-10 1.15821e-14)
(1760 -1.99497e-10 1.27695e-14)
(1760 -1.99789e-10 1.07049e-14)
(1760 -2.00714e-10 6.2535e-15)
(1760 -2.00039e-10 8.29447e-15)
(1760 -2.02038e-10 1.0765e-14)
(1760 -2.03493e-10 1.1352e-14)
(1760 -2.05035e-10 8.98403e-15)
(1760 -2.07775e-10 8.16077e-15)
(1760 -2.09206e-10 9.20274e-15)
(1760 -2.10022e-10 1.00284e-14)
(1760 -2.09315e-10 1.24472e-14)
(1760 -2.07769e-10 1.33149e-14)
(1760 -2.06556e-10 1.03797e-14)
(1760 -2.06337e-10 1.13852e-14)
(1760 -2.05974e-10 1.1869e-14)
(1760 -2.04089e-10 1.10833e-14)
(1760 -1.99312e-10 1.12226e-14)
(1760 -1.95649e-10 1.07354e-14)
(1760 -1.91841e-10 1.24249e-14)
(1760 -1.85704e-10 7.16472e-15)
(1760 -1.82273e-10 8.98524e-15)
(1760 -1.77853e-10 1.37292e-14)
(1760 -1.76426e-10 1.18091e-14)
(1760 -1.74379e-10 1.1159e-14)
(1760 -1.71198e-10 9.28165e-15)
(1760 -1.70494e-10 1.16765e-14)
(1760 -1.67786e-10 1.08282e-14)
(1760 -1.67363e-10 1.14018e-14)
(1760 -1.65565e-10 1.16979e-14)
(1760 -1.63511e-10 9.95859e-15)
(1760 -1.61889e-10 1.05184e-14)
(1760 -1.60392e-10 9.88755e-15)
(1760 -1.57005e-10 9.71989e-15)
(1760 -1.54481e-10 1.04921e-14)
(1760 -1.51976e-10 9.92149e-15)
(1760 -1.50243e-10 7.56704e-15)
(1760 -1.48305e-10 9.37524e-15)
(1760 -1.42815e-10 7.80267e-15)
(1760 -1.40743e-10 6.13256e-15)
(1760 -1.36167e-10 9.32557e-15)
(1760 -1.33463e-10 1.10812e-14)
(1760 -1.31456e-10 8.71604e-15)
(1760 -1.27497e-10 8.42408e-15)
(1760 -1.25195e-10 8.63247e-15)
(1760 -1.2479e-10 9.72e-15)
(1760 -1.2921e-10 1.19663e-14)
(1760 -1.33372e-10 7.44033e-15)
(1760 -1.33989e-10 6.289e-15)
(1760 -1.3842e-10 9.24735e-15)
(1760 -1.4182e-10 6.26592e-15)
(1760 -1.45175e-10 7.75281e-15)
(1760 -1.51917e-10 6.22225e-15)
(1760 -1.57566e-10 8.2686e-15)
(1760 -1.63214e-10 8.86533e-15)
(1760 -1.69667e-10 6.63714e-15)
(1760 -1.80082e-10 9.99848e-15)
(1760 -1.84827e-10 1.11052e-14)
(1760 -1.90526e-10 8.02948e-15)
(1760 -2.05142e-10 1.07336e-14)
(1760 -2.12947e-10 7.76637e-15)
(1760 -2.21837e-10 6.19413e-15)
(1760 -2.29212e-10 1.00644e-14)
(1760 -2.38132e-10 7.73303e-15)
(1760 -2.47589e-10 8.25375e-15)
(1760 -2.52776e-10 7.18597e-15)
(1760 -2.58441e-10 8.49191e-15)
(1760 -2.63977e-10 8.79997e-15)
(1760 -2.66328e-10 1.0752e-14)
(1760 -2.70816e-10 9.23711e-15)
(1760 -2.7436e-10 8.68621e-15)
(1760 -2.78537e-10 8.69694e-15)
(1760 -2.85527e-10 1.00562e-14)
(1760 -2.93719e-10 1.10085e-14)
(1760 -2.97433e-10 1.10763e-14)
(1760 -2.98799e-10 1.16071e-14)
(1760 -3.02419e-10 1.08883e-14)
(1760 -3.02675e-10 1.12058e-14)
(1760 -3.01151e-10 1.07301e-14)
(1760 -2.95814e-10 1.02525e-14)
(1760 -2.76446e-10 7.77589e-15)
(1760 -2.51136e-10 1.15756e-14)
(1760 -2.24577e-10 1.10254e-14)
(1760 -2.00181e-10 8.98882e-15)
(1760 -1.7784e-10 8.55758e-15)
(1760 -1.42753e-10 8.21104e-15)
(1760 -9.70858e-11 9.26641e-15)
(1760 -6.16633e-11 9.69025e-15)
(1760 -3.22402e-11 3.42256e-15)
(1760 -8.91165e-12 5.73766e-15)
(1760 1.33293e-11 9.80786e-15)
(1760 3.75287e-11 6.91411e-15)
(1760 6.24909e-11 7.32195e-15)
(1760 8.53247e-11 4.34356e-15)
(1760 -3.32645e-10 2.25149e-14)
(1760 -3.3009e-10 2.25207e-14)
(1760 -3.29208e-10 1.78256e-14)
(1760 -3.30283e-10 2.19506e-14)
(1760 -3.30194e-10 2.38679e-14)
(1760 -3.29469e-10 1.95718e-14)
(1760 -3.27843e-10 2.01826e-14)
(1760 -3.24475e-10 1.9297e-14)
(1760 -3.1942e-10 2.30196e-14)
(1760 -3.13991e-10 1.99621e-14)
(1760 -3.1248e-10 1.81901e-14)
(1760 -3.12423e-10 1.69152e-14)
(1760 -3.10856e-10 1.35626e-14)
(1760 -3.0935e-10 1.70671e-14)
(1760 -3.06736e-10 1.81046e-14)
(1760 -3.04649e-10 1.76389e-14)
(1760 -3.03093e-10 1.6781e-14)
(1760 -2.99662e-10 1.69608e-14)
(1760 -2.96203e-10 1.55433e-14)
(1760 -2.94011e-10 1.52219e-14)
(1760 -2.93046e-10 1.54392e-14)
(1760 -2.92719e-10 1.25745e-14)
(1760 -2.91901e-10 1.44213e-14)
(1760 -2.92979e-10 2.01007e-14)
(1760 -2.94838e-10 1.3854e-14)
(1760 -2.95099e-10 1.71582e-14)
(1760 -2.97919e-10 1.91361e-14)
(1760 -3.05027e-10 1.76774e-14)
(1760 -3.12814e-10 1.71155e-14)
(1760 -3.21731e-10 1.81517e-14)
(1760 -3.25944e-10 1.71312e-14)
(1760 -3.30721e-10 1.89226e-14)
(1760 -3.36072e-10 1.74982e-14)
(1760 -3.38279e-10 1.80647e-14)
(1760 -3.42924e-10 1.8703e-14)
(1760 -3.44583e-10 1.87374e-14)
(1760 -3.5085e-10 1.86429e-14)
(1760 -3.54462e-10 1.8937e-14)
(1760 -3.57414e-10 1.84218e-14)
(1760 -3.59247e-10 1.96115e-14)
(1760 -3.61257e-10 1.92771e-14)
(1760 -3.65068e-10 1.7245e-14)
(1760 -3.6673e-10 1.73352e-14)
(1760 -3.68945e-10 1.71307e-14)
(1760 -3.71515e-10 1.78836e-14)
(1760 -3.75463e-10 1.71857e-14)
(1760 -3.77738e-10 1.93877e-14)
(1760 -3.81185e-10 1.7901e-14)
(1760 -3.85383e-10 1.63089e-14)
(1760 -3.93644e-10 1.57137e-14)
(1760 -3.99098e-10 1.46892e-14)
(1760 -4.00632e-10 1.65118e-14)
(1760 -4.03284e-10 1.42322e-14)
(1760 -4.04525e-10 1.36954e-14)
(1760 -4.04316e-10 1.51236e-14)
(1760 -4.02484e-10 1.68908e-14)
(1760 -3.99792e-10 1.55182e-14)
(1760 -3.95107e-10 1.84748e-14)
(1760 -3.89271e-10 1.9404e-14)
(1760 -3.87116e-10 1.61536e-14)
(1760 -3.85106e-10 1.49614e-14)
(1760 -3.82626e-10 1.22043e-14)
(1760 -3.77375e-10 1.58383e-14)
(1760 -3.71402e-10 1.73488e-14)
(1760 -3.68385e-10 1.44467e-14)
(1760 -3.56707e-10 1.46829e-14)
(1760 -3.37627e-10 1.4706e-14)
(1760 -3.32917e-10 1.48003e-14)
(1760 -3.2443e-10 1.54576e-14)
(1760 -3.11799e-10 1.62154e-14)
(1760 -2.93623e-10 1.47056e-14)
(1760 -2.72618e-10 1.72713e-14)
(1760 -2.44201e-10 1.36018e-14)
(1760 -2.16994e-10 1.40455e-14)
(1760 -2.05745e-10 1.58867e-14)
(1760 -1.95036e-10 1.14234e-14)
(1760 -1.88723e-10 1.51397e-14)
(1760 -1.81476e-10 1.62149e-14)
(1760 -1.77553e-10 1.36622e-14)
(1760 -1.67519e-10 1.26258e-14)
(1760 -1.52716e-10 1.49578e-14)
(1760 -1.35283e-10 1.42449e-14)
(1760 -1.24792e-10 1.52273e-14)
(1760 -1.13746e-10 1.34131e-14)
(1760 -1.0011e-10 1.66238e-14)
(1760 -8.96109e-11 1.76195e-14)
(1760 -8.77712e-11 1.55556e-14)
(1760 -9.44064e-11 1.40705e-14)
(1760 -1.01128e-10 1.78851e-14)
(1760 -1.10416e-10 1.50081e-14)
(1760 -1.25767e-10 1.59189e-14)
(1760 -1.47591e-10 1.50181e-14)
(1760 -1.96402e-10 1.38591e-14)
(1760 -2.78411e-10 1.63807e-14)
(1760 -3.27519e-10 1.65396e-14)
(1760 -3.41163e-10 1.47576e-14)
(1760 -3.56639e-10 1.26609e-14)
(1760 -3.97321e-10 1.59517e-14)
(1760 -4.33804e-10 1.55173e-14)
(1760 -4.68361e-10 1.43412e-14)
(1760 -4.85616e-10 1.32649e-14)
(1760 -5.01333e-10 1.42156e-14)
(1760 -5.20126e-10 1.43397e-14)
(1760 -5.40744e-10 1.2647e-14)
(1760 -5.60708e-10 1.28745e-14)
(1760 -5.78709e-10 1.31449e-14)
(1760 -4.40489e-10 2.93734e-14)
(1760 -4.40836e-10 3.23865e-14)
(1760 -4.41892e-10 2.73558e-14)
(1760 -4.45761e-10 2.76112e-14)
(1760 -4.50125e-10 2.81624e-14)
(1760 -4.57218e-10 2.56428e-14)
(1760 -4.65474e-10 2.9465e-14)
(1760 -4.73171e-10 2.97976e-14)
(1760 -4.77294e-10 2.48875e-14)
(1760 -4.80841e-10 2.43685e-14)
(1760 -4.81791e-10 2.81517e-14)
(1760 -4.83913e-10 2.74507e-14)
(1760 -4.88314e-10 2.71696e-14)
(1760 -4.94175e-10 2.6487e-14)
(1760 -4.98413e-10 2.69635e-14)
(1760 -5.0079e-10 2.47135e-14)
(1760 -5.04512e-10 2.48892e-14)
(1760 -5.10498e-10 2.53409e-14)
(1760 -5.1296e-10 2.47747e-14)
(1760 -5.12995e-10 2.45211e-14)
(1760 -5.13295e-10 2.40961e-14)
(1760 -5.12623e-10 2.73606e-14)
(1760 -5.1141e-10 2.69659e-14)
(1760 -5.08165e-10 2.56195e-14)
(1760 -5.00106e-10 2.44702e-14)
(1760 -4.86874e-10 2.41962e-14)
(1760 -4.71596e-10 2.78013e-14)
(1760 -4.4401e-10 2.36176e-14)
(1760 -4.33639e-10 2.18214e-14)
(1760 -4.22871e-10 2.45312e-14)
(1760 -4.15399e-10 2.41662e-14)
(1760 -4.0511e-10 2.46374e-14)
(1760 -3.90717e-10 2.40201e-14)
(1760 -3.79586e-10 2.58809e-14)
(1760 -3.68141e-10 2.53082e-14)
(1760 -3.5123e-10 2.51576e-14)
(1760 -3.40005e-10 2.5825e-14)
(1760 -3.29369e-10 2.37216e-14)
(1760 -3.20853e-10 2.49153e-14)
(1760 -3.12338e-10 2.148e-14)
(1760 -3.00262e-10 2.36544e-14)
(1760 -2.93868e-10 2.63429e-14)
(1760 -2.83568e-10 2.37e-14)
(1760 -2.72782e-10 2.47204e-14)
(1760 -2.60676e-10 2.47525e-14)
(1760 -2.55952e-10 2.30839e-14)
(1760 -2.54051e-10 2.17921e-14)
(1760 -2.48217e-10 2.2213e-14)
(1760 -2.40885e-10 2.68704e-14)
(1760 -2.37126e-10 2.28082e-14)
(1760 -2.36868e-10 2.09457e-14)
(1760 -2.37278e-10 2.06218e-14)
(1760 -2.362e-10 2.06895e-14)
(1760 -2.36533e-10 2.36099e-14)
(1760 -2.34318e-10 1.99533e-14)
(1760 -2.34239e-10 2.02297e-14)
(1760 -2.40339e-10 2.28228e-14)
(1760 -2.53021e-10 2.51231e-14)
(1760 -2.577e-10 2.13787e-14)
(1760 -2.55739e-10 2.19827e-14)
(1760 -2.5356e-10 2.32485e-14)
(1760 -2.5527e-10 2.03058e-14)
(1760 -2.61855e-10 1.96687e-14)
(1760 -2.75163e-10 1.94496e-14)
(1760 -2.98194e-10 1.98688e-14)
(1760 -3.3994e-10 2.06281e-14)
(1760 -3.94587e-10 2.00177e-14)
(1760 -4.15376e-10 1.9719e-14)
(1760 -4.1823e-10 1.96529e-14)
(1760 -4.24405e-10 2.00328e-14)
(1760 -4.36657e-10 2.08526e-14)
(1760 -4.5206e-10 2.10927e-14)
(1760 -5.01139e-10 2.11361e-14)
(1760 -5.49535e-10 2.28639e-14)
(1760 -5.6798e-10 1.92054e-14)
(1760 -5.8262e-10 1.8426e-14)
(1760 -5.96133e-10 2.138e-14)
(1760 -6.06066e-10 2.14303e-14)
(1760 -6.24326e-10 2.11577e-14)
(1760 -6.47148e-10 2.38948e-14)
(1760 -6.67491e-10 2.25823e-14)
(1760 -6.74261e-10 2.07143e-14)
(1760 -6.83195e-10 1.80765e-14)
(1760 -6.97273e-10 1.90584e-14)
(1760 -7.08445e-10 2.0293e-14)
(1760 -7.20239e-10 1.67468e-14)
(1760 -7.35007e-10 1.88777e-14)
(1760 -7.44851e-10 2.22675e-14)
(1760 -7.24115e-10 2.10693e-14)
(1760 -7.04437e-10 1.97354e-14)
(1760 -6.63784e-10 2.03508e-14)
(1760 -5.85314e-10 2.06818e-14)
(1760 -5.0197e-10 2.18174e-14)
(1760 -2.31975e-10 2.3781e-14)
(1760 8.26582e-11 2.0872e-14)
(1760 1.47186e-10 2.10163e-14)
(1760 2.25119e-10 2.58364e-14)
(1760 3.2594e-10 2.52969e-14)
(1760 4.28495e-10 2.13793e-14)
(1760 5.23308e-10 2.40455e-14)
(1760 6.22825e-10 2.31134e-14)
(1760 7.35751e-10 2.15961e-14)
(1760 8.6276e-10 2.34569e-14)
(1760 9.94899e-10 2.27496e-14)
(1760 1.13987e-09 2.09582e-14)
(1760 1.29572e-09 2.20042e-14)
(1760 -6.24167e-10 3.6742e-14)
(1760 -6.1784e-10 3.82223e-14)
(1760 -6.09526e-10 3.77287e-14)
(1760 -5.95474e-10 3.66711e-14)
(1760 -5.80531e-10 3.85881e-14)
(1760 -5.59462e-10 3.5523e-14)
(1760 -5.468e-10 3.22892e-14)
(1760 -5.34823e-10 3.69029e-14)
(1760 -5.23119e-10 3.82859e-14)
(1760 -5.0975e-10 3.72169e-14)
(1760 -4.97124e-10 3.45111e-14)
(1760 -4.82732e-10 3.36624e-14)
(1760 -4.66672e-10 3.4857e-14)
(1760 -4.51435e-10 3.18183e-14)
(1760 -4.39016e-10 3.12305e-14)
(1760 -4.2815e-10 3.53276e-14)
(1760 -4.20757e-10 3.32282e-14)
(1760 -4.13401e-10 3.64683e-14)
(1760 -4.04916e-10 3.56023e-14)
(1760 -4.02039e-10 3.27913e-14)
(1760 -4.03863e-10 3.21913e-14)
(1760 -4.08877e-10 3.20074e-14)
(1760 -4.17261e-10 3.45737e-14)
(1760 -4.31356e-10 3.73712e-14)
(1760 -4.6279e-10 3.43214e-14)
(1760 -5.0345e-10 3.33564e-14)
(1760 -5.43667e-10 3.46945e-14)
(1760 -5.89712e-10 2.82223e-14)
(1760 -5.93595e-10 2.78857e-14)
(1760 -5.97761e-10 3.07454e-14)
(1760 -6.10602e-10 3.11825e-14)
(1760 -6.21059e-10 3.13096e-14)
(1760 -6.34595e-10 3.1726e-14)
(1760 -6.45081e-10 3.10167e-14)
(1760 -6.61959e-10 3.21389e-14)
(1760 -6.68871e-10 3.08176e-14)
(1760 -6.78345e-10 3.36509e-14)
(1760 -6.87545e-10 3.51695e-14)
(1760 -6.97457e-10 2.90415e-14)
(1760 -7.06124e-10 2.85512e-14)
(1760 -7.12046e-10 3.23826e-14)
(1760 -7.22937e-10 3.34492e-14)
(1760 -7.2868e-10 3.19247e-14)
(1760 -7.3532e-10 3.02898e-14)
(1760 -7.44934e-10 3.25837e-14)
(1760 -7.47646e-10 3.23312e-14)
(1760 -7.47052e-10 3.23241e-14)
(1760 -7.48656e-10 3.13618e-14)
(1760 -7.5453e-10 2.93848e-14)
(1760 -7.63293e-10 3.03362e-14)
(1760 -7.69758e-10 2.88814e-14)
(1760 -7.72766e-10 2.7675e-14)
(1760 -7.81573e-10 2.70278e-14)
(1760 -7.90143e-10 3.11412e-14)
(1760 -7.98404e-10 3.08413e-14)
(1760 -7.99714e-10 2.93815e-14)
(1760 -8.01163e-10 2.95799e-14)
(1760 -8.02963e-10 3.05505e-14)
(1760 -8.00677e-10 2.98095e-14)
(1760 -7.99342e-10 2.84958e-14)
(1760 -7.93934e-10 2.82965e-14)
(1760 -7.63319e-10 2.98716e-14)
(1760 -7.35977e-10 2.86442e-14)
(1760 -6.95881e-10 2.83153e-14)
(1760 -6.35498e-10 2.96308e-14)
(1760 -5.64369e-10 2.84289e-14)
(1760 -4.70534e-10 2.67005e-14)
(1760 -1.92479e-10 2.78936e-14)
(1760 -7.20792e-11 2.81018e-14)
(1760 -6.36223e-11 2.94157e-14)
(1760 -8.24725e-11 2.96688e-14)
(1760 -7.75788e-11 2.9672e-14)
(1760 -3.3422e-11 3.11999e-14)
(1760 1.01364e-10 3.0184e-14)
(1760 2.50903e-10 2.86028e-14)
(1760 3.33646e-10 2.9883e-14)
(1760 4.11363e-10 2.95362e-14)
(1760 4.7308e-10 3.02323e-14)
(1760 5.27862e-10 3.07336e-14)
(1760 5.89548e-10 3.10131e-14)
(1760 6.51818e-10 3.1643e-14)
(1760 7.24521e-10 3.13299e-14)
(1760 8.07835e-10 2.92083e-14)
(1760 9.03084e-10 2.75795e-14)
(1760 1.00896e-09 2.96478e-14)
(1760 1.12593e-09 3.06496e-14)
(1760 1.25934e-09 2.9321e-14)
(1760 1.4028e-09 2.8935e-14)
(1760 1.49311e-09 3.06974e-14)
(1760 1.59812e-09 2.86771e-14)
(1760 1.70673e-09 2.90013e-14)
(1760 1.86417e-09 3.15531e-14)
(1760 2.06384e-09 2.82314e-14)
(1760 2.20176e-09 2.84491e-14)
(1760 2.19786e-09 2.8998e-14)
(1760 2.20605e-09 2.65838e-14)
(1760 2.42993e-09 2.70914e-14)
(1760 2.75026e-09 2.90862e-14)
(1760 3.10179e-09 2.69547e-14)
(1760 3.44822e-09 2.75337e-14)
(1760 3.794e-09 2.8751e-14)
(1760 4.17972e-09 2.60653e-14)
(1760 4.60234e-09 2.74576e-14)
(1760 5.05141e-09 2.95878e-14)
(1760 5.53161e-09 2.80274e-14)
(1760 6.0647e-09 2.67995e-14)
(1760 6.66236e-09 2.89309e-14)
(1760 -6.00093e-10 4.53934e-14)
(1760 -6.25721e-10 4.43024e-14)
(1760 -6.55457e-10 4.54624e-14)
(1760 -6.84942e-10 4.20617e-14)
(1760 -7.12242e-10 4.51927e-14)
(1760 -7.27906e-10 4.30859e-14)
(1760 -7.40832e-10 4.96732e-14)
(1760 -7.49187e-10 4.73664e-14)
(1760 -7.58958e-10 4.53883e-14)
(1760 -7.7751e-10 4.6749e-14)
(1760 -7.93717e-10 4.37779e-14)
(1760 -8.0717e-10 4.57471e-14)
(1760 -8.17816e-10 4.52518e-14)
(1760 -8.25503e-10 4.37411e-14)
(1760 -8.33398e-10 4.56776e-14)
(1760 -8.3694e-10 4.34546e-14)
(1760 -8.38419e-10 4.10647e-14)
(1760 -8.38585e-10 4.18179e-14)
(1760 -8.33185e-10 4.17131e-14)
(1760 -8.21034e-10 4.1561e-14)
(1760 -8.07246e-10 4.12648e-14)
(1760 -7.71548e-10 4.20653e-14)
(1760 -7.42916e-10 4.54206e-14)
(1760 -6.66861e-10 4.22812e-14)
(1760 -5.33496e-10 3.81201e-14)
(1760 -3.08288e-10 4.06515e-14)
(1760 -1.1616e-10 4.13355e-14)
(1760 -1.42188e-10 4.05646e-14)
(1760 -2.65306e-10 4.21708e-14)
(1760 -2.77453e-10 4.15063e-14)
(1760 -1.7344e-10 4.22691e-14)
(1760 -1.76555e-11 4.27446e-14)
(1760 1.25128e-10 4.39722e-14)
(1760 1.98029e-10 4.24884e-14)
(1760 2.59226e-10 4.46439e-14)
(1760 3.18736e-10 4.31807e-14)
(1760 3.72698e-10 4.22553e-14)
(1760 4.21619e-10 4.08206e-14)
(1760 4.72545e-10 4.03892e-14)
(1760 5.22345e-10 4.22754e-14)
(1760 5.67717e-10 4.17646e-14)
(1760 6.14854e-10 4.15674e-14)
(1760 6.61867e-10 4.23043e-14)
(1760 7.08045e-10 4.08531e-14)
(1760 7.58366e-10 4.34457e-14)
(1760 8.07379e-10 4.25784e-14)
(1760 8.6102e-10 4.15723e-14)
(1760 9.18627e-10 4.1073e-14)
(1760 9.80212e-10 4.00342e-14)
(1760 1.03907e-09 4.25596e-14)
(1760 1.09371e-09 4.05625e-14)
(1760 1.15304e-09 3.72481e-14)
(1760 1.22132e-09 3.9391e-14)
(1760 1.27827e-09 4.14515e-14)
(1760 1.33389e-09 4.39111e-14)
(1760 1.4018e-09 4.27208e-14)
(1760 1.4781e-09 4.1344e-14)
(1760 1.51059e-09 3.65497e-14)
(1760 1.55036e-09 3.60045e-14)
(1760 1.61095e-09 3.79276e-14)
(1760 1.66875e-09 3.81348e-14)
(1760 1.73401e-09 3.70045e-14)
(1760 1.77939e-09 3.72987e-14)
(1760 1.81043e-09 4.01148e-14)
(1760 1.88273e-09 3.50816e-14)
(1760 1.97733e-09 3.6605e-14)
(1760 1.96377e-09 4.10677e-14)
(1760 1.86273e-09 3.70205e-14)
(1760 1.86324e-09 3.26808e-14)
(1760 1.94335e-09 3.69489e-14)
(1760 2.13047e-09 3.62947e-14)
(1760 2.3322e-09 3.41893e-14)
(1760 2.54028e-09 3.55809e-14)
(1760 2.74263e-09 3.63126e-14)
(1760 2.88473e-09 3.61341e-14)
(1760 3.05531e-09 3.5714e-14)
(1760 3.27904e-09 3.61152e-14)
(1760 3.50157e-09 3.66025e-14)
(1760 3.72882e-09 3.63938e-14)
(1760 3.98214e-09 3.39982e-14)
(1760 4.26382e-09 3.3047e-14)
(1760 4.57842e-09 3.59968e-14)
(1760 4.92285e-09 3.72232e-14)
(1760 5.30798e-09 3.56144e-14)
(1760 5.73142e-09 3.49891e-14)
(1760 6.19301e-09 3.42498e-14)
(1760 6.7082e-09 3.42221e-14)
(1760 7.24973e-09 3.49887e-14)
(1760 7.8529e-09 3.5783e-14)
(1760 8.50034e-09 3.41167e-14)
(1760 9.23147e-09 3.48042e-14)
(1760 1.00239e-08 3.34853e-14)
(1760 1.07725e-08 3.31441e-14)
(1760 1.14806e-08 3.51748e-14)
(1760 1.23557e-08 3.50553e-14)
(1760 1.3574e-08 3.20343e-14)
(1760 1.49642e-08 3.19475e-14)
(1760 1.63595e-08 3.42318e-14)
(1760 1.78197e-08 3.22096e-14)
(1760 1.94684e-08 3.26077e-14)
(1760 2.14351e-08 3.50655e-14)
(1760 2.37681e-08 3.39218e-14)
(1760 2.64107e-08 3.48425e-14)
(1760 2.93516e-08 3.38581e-14)
(1760 3.26392e-08 3.21118e-14)
(1760 3.6326e-08 3.14167e-14)
(1760 4.04238e-08 3.42752e-14)
(1760 -8.6469e-10 5.37745e-14)
(1760 -8.38733e-10 5.40008e-14)
(1760 -7.89125e-10 5.45887e-14)
(1760 -6.85416e-10 5.11479e-14)
(1760 -4.54681e-10 5.22826e-14)
(1760 -2.59165e-10 5.28747e-14)
(1760 -5.93727e-11 5.39985e-14)
(1760 6.79323e-11 5.69153e-14)
(1760 1.7578e-10 5.54429e-14)
(1760 2.79044e-10 5.69068e-14)
(1760 3.80816e-10 5.24828e-14)
(1760 4.83345e-10 5.40526e-14)
(1760 5.85898e-10 5.87116e-14)
(1760 6.91772e-10 5.44022e-14)
(1760 7.93065e-10 5.34963e-14)
(1760 8.9402e-10 5.39759e-14)
(1760 1.00311e-09 5.42959e-14)
(1760 1.11705e-09 5.47605e-14)
(1760 1.23338e-09 5.41894e-14)
(1760 1.35528e-09 5.37946e-14)
(1760 1.4807e-09 5.26626e-14)
(1760 1.62085e-09 5.26812e-14)
(1760 1.71331e-09 5.21251e-14)
(1760 1.75397e-09 5.07309e-14)
(1760 1.8063e-09 5.04303e-14)
(1760 1.82417e-09 5.36319e-14)
(1760 1.90915e-09 5.2273e-14)
(1760 1.86485e-09 5.09288e-14)
(1760 1.85539e-09 5.08453e-14)
(1760 1.94568e-09 4.99781e-14)
(1760 2.16547e-09 4.94933e-14)
(1760 2.48849e-09 4.97628e-14)
(1760 2.70844e-09 5.2044e-14)
(1760 2.67959e-09 5.27157e-14)
(1760 2.63632e-09 5.07571e-14)
(1760 2.74657e-09 4.85205e-14)
(1760 2.9051e-09 4.65909e-14)
(1760 3.08048e-09 4.83565e-14)
(1760 3.25196e-09 4.82452e-14)
(1760 3.41854e-09 4.84926e-14)
(1760 3.57905e-09 4.85409e-14)
(1760 3.73566e-09 4.86452e-14)
(1760 3.89117e-09 4.69487e-14)
(1760 4.04294e-09 4.7142e-14)
(1760 4.19481e-09 4.89555e-14)
(1760 4.34912e-09 4.92454e-14)
(1760 4.50806e-09 4.80357e-14)
(1760 4.6685e-09 4.9036e-14)
(1760 4.82836e-09 4.98881e-14)
(1760 4.98993e-09 4.91831e-14)
(1760 5.16191e-09 4.67679e-14)
(1760 5.34239e-09 4.63912e-14)
(1760 5.52445e-09 4.73026e-14)
(1760 5.70644e-09 4.66809e-14)
(1760 5.89687e-09 4.88845e-14)
(1760 6.10155e-09 4.4486e-14)
(1760 6.30438e-09 4.29011e-14)
(1760 6.51689e-09 4.82809e-14)
(1760 6.75469e-09 4.73485e-14)
(1760 6.99827e-09 4.45757e-14)
(1760 7.25993e-09 4.4103e-14)
(1760 7.53852e-09 4.60462e-14)
(1760 7.81684e-09 4.24899e-14)
(1760 8.12945e-09 4.34798e-14)
(1760 8.47439e-09 4.36106e-14)
(1760 8.84154e-09 4.22035e-14)
(1760 9.24738e-09 4.78299e-14)
(1760 9.73152e-09 4.43818e-14)
(1760 1.02086e-08 4.41356e-14)
(1760 1.06439e-08 4.55474e-14)
(1760 1.11816e-08 4.30677e-14)
(1760 1.1921e-08 4.22286e-14)
(1760 1.27653e-08 4.11076e-14)
(1760 1.35704e-08 4.20306e-14)
(1760 1.42762e-08 4.34423e-14)
(1760 1.49188e-08 4.23983e-14)
(1760 1.56177e-08 4.28077e-14)
(1760 1.65083e-08 4.34786e-14)
(1760 1.75839e-08 4.11179e-14)
(1760 1.87211e-08 4.1939e-14)
(1760 1.98897e-08 4.10596e-14)
(1760 2.11304e-08 4.12032e-14)
(1760 2.24732e-08 4.00573e-14)
(1760 2.39208e-08 3.94207e-14)
(1760 2.54786e-08 4.23357e-14)
(1760 2.71757e-08 4.15157e-14)
(1760 2.90592e-08 4.18528e-14)
(1760 3.11594e-08 4.06099e-14)
(1760 3.35161e-08 3.90657e-14)
(1760 3.61749e-08 3.87455e-14)
(1760 3.91749e-08 3.89641e-14)
(1760 4.2584e-08 4.05066e-14)
(1760 4.64682e-08 4.08536e-14)
(1760 5.09083e-08 3.74166e-14)
(1760 5.5869e-08 3.85105e-14)
(1760 6.13481e-08 4.20256e-14)
(1760 6.75221e-08 3.99743e-14)
(1760 7.45737e-08 4.1646e-14)
(1760 8.23401e-08 3.97888e-14)
(1760 9.05757e-08 3.84903e-14)
(1760 9.9392e-08 3.83137e-14)
(1760 1.09151e-07 3.82259e-14)
(1760 1.20133e-07 4.07115e-14)
(1760 1.3232e-07 3.89138e-14)
(1760 1.45513e-07 4.13406e-14)
(1760 1.59654e-07 4.02844e-14)
(1760 1.74967e-07 3.95493e-14)
(1760 1.91833e-07 3.89724e-14)
(1760 2.10682e-07 3.64722e-14)
(1760 2.31947e-07 3.83575e-14)
(1760 1.90946e-09 6.28608e-14)
(1760 2.0619e-09 6.41772e-14)
(1760 2.18958e-09 6.44561e-14)
(1760 2.32601e-09 6.15358e-14)
(1760 2.27011e-09 6.27362e-14)
(1760 2.36011e-09 6.31224e-14)
(1760 2.57266e-09 6.2352e-14)
(1760 2.85007e-09 6.09328e-14)
(1760 3.1602e-09 6.30226e-14)
(1760 3.47597e-09 6.30497e-14)
(1760 3.79437e-09 6.10033e-14)
(1760 4.11697e-09 6.32926e-14)
(1760 4.44325e-09 6.40151e-14)
(1760 4.78011e-09 6.121e-14)
(1760 5.12062e-09 5.86601e-14)
(1760 5.46898e-09 6.0657e-14)
(1760 5.83745e-09 6.43621e-14)
(1760 6.23309e-09 6.32562e-14)
(1760 6.64827e-09 6.21603e-14)
(1760 7.08393e-09 5.88082e-14)
(1760 7.53457e-09 5.99261e-14)
(1760 8.00277e-09 5.94691e-14)
(1760 8.5303e-09 6.14957e-14)
(1760 9.0729e-09 6.24644e-14)
(1760 9.61847e-09 5.92743e-14)
(1760 1.01204e-08 5.91326e-14)
(1760 1.06494e-08 6.11028e-14)
(1760 1.11274e-08 6.13357e-14)
(1760 1.15944e-08 5.90095e-14)
(1760 1.20047e-08 5.43889e-14)
(1760 1.24407e-08 5.32632e-14)
(1760 1.30029e-08 5.85856e-14)
(1760 1.36064e-08 5.84815e-14)
(1760 1.41455e-08 5.44919e-14)
(1760 1.46658e-08 5.46356e-14)
(1760 1.5186e-08 5.6796e-14)
(1760 1.57074e-08 5.54178e-14)
(1760 1.62582e-08 5.53379e-14)
(1760 1.68433e-08 5.46321e-14)
(1760 1.74557e-08 5.68485e-14)
(1760 1.81092e-08 5.61343e-14)
(1760 1.88025e-08 5.49018e-14)
(1760 1.95248e-08 5.40115e-14)
(1760 2.02739e-08 5.53349e-14)
(1760 2.10472e-08 5.47162e-14)
(1760 2.18462e-08 5.45648e-14)
(1760 2.26944e-08 5.62542e-14)
(1760 2.36001e-08 5.62355e-14)
(1760 2.45583e-08 5.36063e-14)
(1760 2.55636e-08 5.4132e-14)
(1760 2.66227e-08 5.34752e-14)
(1760 2.77405e-08 5.46753e-14)
(1760 2.88949e-08 5.2238e-14)
(1760 3.00881e-08 5.43962e-14)
(1760 3.13173e-08 5.47168e-14)
(1760 3.25758e-08 5.15361e-14)
(1760 3.38561e-08 5.33136e-14)
(1760 3.51761e-08 5.1718e-14)
(1760 3.6543e-08 5.35014e-14)
(1760 3.79587e-08 5.44518e-14)
(1760 3.94572e-08 5.22802e-14)
(1760 4.10292e-08 5.30496e-14)
(1760 4.26733e-08 5.1503e-14)
(1760 4.43995e-08 5.05411e-14)
(1760 4.62181e-08 4.79488e-14)
(1760 4.81365e-08 5.14686e-14)
(1760 5.01595e-08 5.31674e-14)
(1760 5.22824e-08 4.83011e-14)
(1760 5.44713e-08 5.13896e-14)
(1760 5.68056e-08 5.31838e-14)
(1760 5.94147e-08 4.95967e-14)
(1760 6.22949e-08 4.83492e-14)
(1760 6.53415e-08 4.86399e-14)
(1760 6.85477e-08 5.1353e-14)
(1760 7.20035e-08 4.84165e-14)
(1760 7.59038e-08 4.75871e-14)
(1760 8.04922e-08 4.93121e-14)
(1760 8.57978e-08 4.82322e-14)
(1760 9.16552e-08 4.74534e-14)
(1760 9.80624e-08 4.72094e-14)
(1760 1.05188e-07 4.61449e-14)
(1760 1.13215e-07 4.61242e-14)
(1760 1.22241e-07 4.79637e-14)
(1760 1.32243e-07 4.72336e-14)
(1760 1.43166e-07 4.81656e-14)
(1760 1.55019e-07 4.92459e-14)
(1760 1.67866e-07 4.77873e-14)
(1760 1.8182e-07 4.39755e-14)
(1760 1.97039e-07 4.50116e-14)
(1760 2.13678e-07 4.53683e-14)
(1760 2.31867e-07 4.68195e-14)
(1760 2.51704e-07 4.53991e-14)
(1760 2.73227e-07 4.77754e-14)
(1760 2.96456e-07 4.50711e-14)
(1760 3.2151e-07 4.57046e-14)
(1760 3.48837e-07 4.55739e-14)
(1760 3.79069e-07 4.61581e-14)
(1760 4.12782e-07 4.64624e-14)
(1760 4.50468e-07 4.35888e-14)
(1760 4.92918e-07 4.58868e-14)
(1760 5.41475e-07 4.6106e-14)
(1760 5.97681e-07 4.48144e-14)
(1760 6.62777e-07 4.46096e-14)
(1760 7.37685e-07 4.33674e-14)
(1760 8.23312e-07 4.53345e-14)
(1760 9.205e-07 4.39429e-14)
(1760 1.02969e-06 4.45806e-14)
(1760 1.151e-06 4.4357e-14)
(1760 1.28483e-06 4.43274e-14)
(1760 1.43244e-06 4.23835e-14)
(1760 9.54926e-09 7.29218e-14)
(1760 1.04543e-08 7.18733e-14)
(1760 1.13963e-08 7.12984e-14)
(1760 1.2438e-08 7.21764e-14)
(1760 1.34297e-08 7.35443e-14)
(1760 1.44672e-08 7.08264e-14)
(1760 1.55253e-08 6.87825e-14)
(1760 1.66642e-08 7.0974e-14)
(1760 1.79279e-08 7.31773e-14)
(1760 1.93085e-08 7.19612e-14)
(1760 2.07972e-08 7.13985e-14)
(1760 2.23781e-08 6.96792e-14)
(1760 2.40335e-08 7.07635e-14)
(1760 2.57345e-08 6.89815e-14)
(1760 2.74559e-08 6.95135e-14)
(1760 2.91857e-08 7.09531e-14)
(1760 3.09326e-08 7.11728e-14)
(1760 3.26977e-08 7.08837e-14)
(1760 3.44747e-08 6.93051e-14)
(1760 3.62722e-08 6.88054e-14)
(1760 3.81054e-08 7.21147e-14)
(1760 3.99979e-08 6.86447e-14)
(1760 4.20006e-08 6.89936e-14)
(1760 4.41298e-08 6.86204e-14)
(1760 4.63914e-08 6.80655e-14)
(1760 4.87658e-08 6.79326e-14)
(1760 5.12836e-08 6.58393e-14)
(1760 5.39112e-08 6.53745e-14)
(1760 5.66782e-08 6.90503e-14)
(1760 5.95359e-08 6.32034e-14)
(1760 6.25024e-08 6.34347e-14)
(1760 6.55962e-08 6.43068e-14)
(1760 6.88305e-08 6.49627e-14)
(1760 7.21789e-08 6.59524e-14)
(1760 7.56459e-08 6.43842e-14)
(1760 7.91645e-08 6.43468e-14)
(1760 8.26745e-08 6.38715e-14)
(1760 8.61554e-08 6.35432e-14)
(1760 8.96204e-08 6.26515e-14)
(1760 9.31038e-08 6.3517e-14)
(1760 9.66448e-08 6.48971e-14)
(1760 1.00267e-07 6.35742e-14)
(1760 1.03967e-07 6.29919e-14)
(1760 1.07732e-07 6.11387e-14)
(1760 1.11537e-07 5.91578e-14)
(1760 1.15388e-07 6.14084e-14)
(1760 1.19282e-07 6.27938e-14)
(1760 1.23215e-07 5.98293e-14)
(1760 1.27184e-07 5.89461e-14)
(1760 1.31203e-07 6.17316e-14)
(1760 1.35313e-07 6.28217e-14)
(1760 1.39572e-07 6.29392e-14)
(1760 1.44038e-07 5.93363e-14)
(1760 1.48775e-07 6.02648e-14)
(1760 1.53832e-07 6.16211e-14)
(1760 1.59236e-07 6.09323e-14)
(1760 1.64993e-07 5.89694e-14)
(1760 1.71141e-07 5.86397e-14)
(1760 1.77693e-07 5.83931e-14)
(1760 1.84697e-07 6.24117e-14)
(1760 1.92222e-07 5.93029e-14)
(1760 2.00337e-07 5.77306e-14)
(1760 2.0915e-07 5.90077e-14)
(1760 2.18811e-07 5.83452e-14)
(1760 2.29478e-07 5.63465e-14)
(1760 2.41302e-07 5.81451e-14)
(1760 2.54359e-07 5.79288e-14)
(1760 2.68648e-07 5.70118e-14)
(1760 2.84152e-07 5.76278e-14)
(1760 3.00852e-07 5.57904e-14)
(1760 3.18687e-07 5.70476e-14)
(1760 3.37531e-07 5.75709e-14)
(1760 3.57376e-07 5.54822e-14)