/*--------------------------------*- C++ -*----------------------------------*\
| =========                 |                                                 |
| \\      /  F ield         | OpenFOAM: The Open Source CFD Toolbox           |
|  \\    /   O peration     | Version:  v1706                                 |
|   \\  /    A nd           | Web:      www.OpenFOAM.com                      |
|    \\/     M anipulation  |                                                 |
\*---------------------------------------------------------------------------*/
FoamFile
{
    version     2.0;
    format      ascii;
    class       volScalarField;
    location    "3.5e-05";
    object      wallHeatFlux;
}
// * * * * * * * * * * * * * * * * * * * * * * * * * * * * * * * * * * * * * //

dimensions      [1 0 -3 0 0 0 0];


internalField   uniform 0;

boundaryField
{
    cone
    {
        type            calculated;
        value           nonuniform List<scalar> 
181
(
32664.6
32316.8
31970.1
31624.4
31279.8
30936.4
30594.2
30253.4
29913.9
29576
29239.6
28904.9
28572.1
28241.1
27912.1
27585.2
27260.6
26938.4
26618.6
26301.4
25986.9
25675.3
25366.7
25061.2
24758.9
24460
24164.6
23872.8
23584.8
23300.7
23020.6
22744.5
22472.7
22205.3
21942.3
21683.8
21429.9
21180.7
20936.3
20696.8
20462.2
20232.5
20007.8
19788.2
19573.6
19364.1
19159.7
18960.4
18766.2
18577.1
18393.1
18214.1
18040.3
17871.5
17707.8
17549.3
17396
17247.8
17104.9
16967.1
16834.4
16706.6
16583.5
16464.6
16349.6
16237.7
16128.3
16020.6
15914
15807.7
15701.4
15594.9
15488.3
15382.2
15277.8
15176.5
15080.3
14991.6
14913.4
14849.6
14805.2
14783
14781.7
14801.4
14845.8
14918.1
15017.3
15140.4
15283.7
15441.8
15607.2
15771.1
15923.6
16054.9
16151.7
16196.3
16174.2
16073.8
15882.1
15592.4
15203.2
14718.9
14150.5
13515.9
12837.9
12142.9
11457.9
10807.9
10213.8
9695.67
9265.46
8933.91
8716.38
8621.09
8653.9
8828.14
9153.77
9639.21
10291.8
11116.4
12113.4
13276.8
14592.5
16035.1
17566.6
19135.7
20680.5
22134.2
23434.5
24522.4
25360.4
25919.6
26187.2
26170.9
25877.9
25310.6
24480.5
23404.8
22109.1
20629.7
19014.1
17318
15599.5
13913.6
12306.2
10811.5
9451.15
8235.28
7165.06
6235.22
5436.46
4757.43
4186.08
3712.75
3327.3
3021.31
2789.67
2625.86
2524.73
2482.6
2496.11
2564.09
2685.08
2856.25
3075.98
3342.43
3653.31
4005.86
4396.73
4821.97
5277.04
5756.86
6256.04
6768.98
7290.22
7814.55
8337.29
8854.36
9362.35
9858.49
10340.5
)
;
    }
    inlet
    {
        type            calculated;
        value           uniform 0;
    }
    rWedge
    {
        type            wedge;
    }
    lWedge
    {
        type            wedge;
    }
    outlet
    {
        type            calculated;
        value           nonuniform 0();
    }
    procBoundary1to0
    {
        type            processor;
        value           uniform 0;
    }
    procBoundary1to2
    {
        type            processor;
        value           uniform 0;
    }
}


// ************************************************************************* //
