# Force coefficients
# liftDir    : (0.000000e+00 1.000000e+00 0.000000e+00)
# dragDir    : (1.000000e+00 0.000000e+00 0.000000e+00)
# pitchAxis  : (0.000000e+00 0.000000e+00 1.000000e+00)
# magUInf    : 2.764500e+03
# lRef       : 5.000000e-02
# Aref       : 1.966460e-05
# CofR       : (0.000000e+00 0.000000e+00 0.000000e+00)
#            
# Time       	Cm           	Cd           	Cl           	Cl(f)        	Cl(r)        
2.808988764e-09	-2.047136e-02	1.133710e-02	-2.351447e-02	-3.222859e-02	8.714118e-03
5.839964482e-09	9.235334e-02	-5.189219e-02	1.058296e-01	1.452682e-01	-3.943852e-02
8.270673615e-09	-7.989222e-02	4.353741e-02	-9.225385e-02	-1.260191e-01	3.376530e-02
1.048930746e-08	8.727477e-03	-5.985125e-03	9.738147e-03	1.359655e-02	-3.858404e-03
1.259017941e-08	-3.554930e-02	1.900649e-02	-4.129168e-02	-5.619514e-02	1.490346e-02
1.462188686e-08	-1.404879e-02	6.863807e-03	-1.641097e-02	-2.225427e-02	5.843298e-03
1.660055777e-08	-2.458568e-02	1.293102e-02	-2.861655e-02	-3.889395e-02	1.027741e-02
1.854403493e-08	-1.954614e-02	1.005768e-02	-2.273301e-02	-3.091264e-02	8.179631e-03
2.046094111e-08	-2.202618e-02	1.153674e-02	-2.561915e-02	-3.483575e-02	9.216600e-03
2.235927262e-08	-2.086857e-02	1.088046e-02	-2.424603e-02	-3.299159e-02	8.745558e-03
2.424660993e-08	-2.146973e-02	1.126556e-02	-2.494468e-02	-3.394207e-02	8.997386e-03
2.612305876e-08	-2.121830e-02	1.113459e-02	-2.463466e-02	-3.353563e-02	8.900970e-03
2.799230433e-08	-2.138256e-02	1.125593e-02	-2.482076e-02	-3.379294e-02	8.972183e-03
2.98579621e-08	-2.134560e-02	1.125035e-02	-2.476612e-02	-3.372866e-02	8.962539e-03
3.172003894e-08	-2.140734e-02	1.130567e-02	-2.483125e-02	-3.382297e-02	8.991714e-03
3.358211579e-08	-2.142170e-02	1.132921e-02	-2.483925e-02	-3.384133e-02	9.002077e-03
3.544778738e-08	-2.146084e-02	1.136773e-02	-2.487793e-02	-3.389981e-02	9.021878e-03
3.731707462e-08	-2.148495e-02	1.139563e-02	-2.489874e-02	-3.393432e-02	9.035579e-03
3.91899986e-08	-2.151618e-02	1.142723e-02	-2.492851e-02	-3.398043e-02	9.051923e-03
4.1070253e-08	-2.154100e-02	1.145420e-02	-2.495125e-02	-3.401663e-02	9.065372e-03
4.295790998e-08	-2.156915e-02	1.148239e-02	-2.497812e-02	-3.405821e-02	9.080084e-03
4.485304284e-08	-2.159563e-02	1.150894e-02	-2.500335e-02	-3.409730e-02	9.093949e-03
4.675572602e-08	-2.162270e-02	1.153525e-02	-2.502953e-02	-3.413747e-02	9.107937e-03
4.866987115e-08	-2.164968e-02	1.156095e-02	-2.505580e-02	-3.417758e-02	9.121776e-03
5.059175019e-08	-2.167606e-02	1.158585e-02	-2.508161e-02	-3.421687e-02	9.135256e-03
5.252537188e-08	-2.170306e-02	1.161062e-02	-2.510831e-02	-3.425721e-02	9.148906e-03
5.446691825e-08	-2.172908e-02	1.163443e-02	-2.513406e-02	-3.429611e-02	9.162052e-03
5.641245957e-08	-2.175512e-02	1.165786e-02	-2.516000e-02	-3.433513e-02	9.175124e-03
5.834208645e-08	-2.177912e-02	1.167977e-02	-2.518378e-02	-3.437101e-02	9.187237e-03
6.025992334e-08	-2.180479e-02	1.170222e-02	-2.520961e-02	-3.440959e-02	9.199982e-03
6.216608982e-08	-2.182933e-02	1.172371e-02	-2.523430e-02	-3.444648e-02	9.212175e-03
6.406070378e-08	-2.185431e-02	1.174512e-02	-2.525964e-02	-3.448413e-02	9.224487e-03
6.594767817e-08	-2.187929e-02	1.176623e-02	-2.528511e-02	-3.452185e-02	9.236739e-03
6.78270591e-08	-2.190400e-02	1.178691e-02	-2.531038e-02	-3.455919e-02	9.248811e-03
6.970265858e-08	-2.192901e-02	1.180750e-02	-2.533609e-02	-3.459705e-02	9.260959e-03
7.157448421e-08	-2.195353e-02	1.182758e-02	-2.536136e-02	-3.463421e-02	9.272849e-03
7.34425436e-08	-2.197802e-02	1.184742e-02	-2.538669e-02	-3.467137e-02	9.284679e-03
7.531060299e-08	-2.200261e-02	1.186710e-02	-2.541221e-02	-3.470872e-02	9.296505e-03
7.717489613e-08	-2.202609e-02	1.188596e-02	-2.543655e-02	-3.474437e-02	9.307819e-03
7.903918927e-08	-2.205022e-02	1.190501e-02	-2.546171e-02	-3.478108e-02	9.319369e-03
8.090348241e-08	-2.207371e-02	1.192351e-02	-2.548620e-02	-3.481681e-02	9.330606e-03
8.276777555e-08	-2.209725e-02	1.194189e-02	-2.551083e-02	-3.485266e-02	9.341833e-03
8.463206868e-08	-2.212047e-02	1.195993e-02	-2.553516e-02	-3.488805e-02	9.352890e-03
8.649636182e-08	-2.214355e-02	1.197773e-02	-2.555939e-02	-3.492325e-02	9.363853e-03
8.836446742e-08	-2.216678e-02	1.199549e-02	-2.558385e-02	-3.495871e-02	9.374851e-03
9.023257302e-08	-2.218917e-02	1.201264e-02	-2.560742e-02	-3.499288e-02	9.385464e-03
9.210452246e-08	-2.221212e-02	1.202998e-02	-2.563168e-02	-3.502796e-02	9.396287e-03
9.39764719e-08	-2.223242e-02	1.204567e-02	-2.565293e-02	-3.505888e-02	9.405950e-03
9.585229701e-08	-2.225606e-02	1.206314e-02	-2.567809e-02	-3.509510e-02	9.417012e-03
9.772812212e-08	-2.227580e-02	1.207830e-02	-2.569883e-02	-3.512522e-02	9.426390e-03
9.96078552e-08	-2.229771e-02	1.209453e-02	-2.572210e-02	-3.515876e-02	9.436665e-03
1.014915208e-07	-2.231853e-02	1.211006e-02	-2.574415e-02	-3.519060e-02	9.446449e-03
1.033791436e-07	-2.233976e-02	1.212572e-02	-2.576674e-02	-3.522313e-02	9.456390e-03
1.052707488e-07	-2.236061e-02	1.214106e-02	-2.578893e-02	-3.525507e-02	9.466145e-03
1.071663616e-07	-2.238143e-02	1.215631e-02	-2.581112e-02	-3.528699e-02	9.475868e-03
1.090660077e-07	-2.240369e-02	1.217230e-02	-2.583501e-02	-3.532119e-02	9.486186e-03
1.109697128e-07	-2.242471e-02	1.218755e-02	-2.585750e-02	-3.535345e-02	9.495959e-03
1.128775031e-07	-2.244567e-02	1.220268e-02	-2.587995e-02	-3.538564e-02	9.505693e-03
1.147811994e-07	-2.246369e-02	1.221606e-02	-2.589906e-02	-3.541321e-02	9.514158e-03
1.166808106e-07	-2.248318e-02	1.223016e-02	-2.591990e-02	-3.544313e-02	9.523228e-03
1.185763453e-07	-2.250205e-02	1.224383e-02	-2.594007e-02	-3.547209e-02	9.532016e-03
1.204678124e-07	-2.252120e-02	1.225757e-02	-2.596060e-02	-3.550150e-02	9.540903e-03
1.223552205e-07	-2.254013e-02	1.227112e-02	-2.598091e-02	-3.553058e-02	9.549677e-03
1.242385784e-07	-2.255903e-02	1.228457e-02	-2.600122e-02	-3.555964e-02	9.558423e-03
1.261178948e-07	-2.257779e-02	1.229788e-02	-2.602140e-02	-3.558849e-02	9.567091e-03
1.279931783e-07	-2.259645e-02	1.231106e-02	-2.604149e-02	-3.561719e-02	9.575699e-03
1.298644376e-07	-2.261497e-02	1.232410e-02	-2.606146e-02	-3.564570e-02	9.584235e-03
1.317356968e-07	-2.263376e-02	1.233723e-02	-2.608177e-02	-3.567464e-02	9.592873e-03
1.336069561e-07	-2.265216e-02	1.235009e-02	-2.610165e-02	-3.570298e-02	9.601332e-03
1.354741825e-07	-2.267013e-02	1.236265e-02	-2.612107e-02	-3.573067e-02	9.609596e-03
1.373414089e-07	-2.268853e-02	1.237539e-02	-2.614100e-02	-3.575903e-02	9.618028e-03
1.392086353e-07	-2.270645e-02	1.238782e-02	-2.616041e-02	-3.578666e-02	9.626247e-03
1.410758617e-07	-2.272439e-02	1.240021e-02	-2.617986e-02	-3.581432e-02	9.634461e-03
1.429390377e-07	-2.274170e-02	1.241219e-02	-2.619861e-02	-3.584100e-02	9.642394e-03
1.448022137e-07	-2.275891e-02	1.242408e-02	-2.621726e-02	-3.586753e-02	9.650278e-03
1.466653897e-07	-2.277584e-02	1.243577e-02	-2.623561e-02	-3.589364e-02	9.658035e-03
1.485285657e-07	-2.279286e-02	1.244747e-02	-2.625408e-02	-3.591990e-02	9.665820e-03
1.503917417e-07	-2.280972e-02	1.245904e-02	-2.627239e-02	-3.594592e-02	9.673528e-03
1.522549177e-07	-2.282652e-02	1.247053e-02	-2.629064e-02	-3.597184e-02	9.681199e-03
1.541180937e-07	-2.284319e-02	1.248191e-02	-2.630877e-02	-3.599757e-02	9.688806e-03
1.559812697e-07	-2.285975e-02	1.249319e-02	-2.632678e-02	-3.602314e-02	9.696358e-03
1.578444457e-07	-2.287619e-02	1.250437e-02	-2.634468e-02	-3.604853e-02	9.703850e-03
1.597076217e-07	-2.289251e-02	1.251544e-02	-2.636245e-02	-3.607374e-02	9.711283e-03
1.615707977e-07	-2.290871e-02	1.252641e-02	-2.638010e-02	-3.609876e-02	9.718655e-03
1.634381233e-07	-2.292518e-02	1.253750e-02	-2.639809e-02	-3.612422e-02	9.726139e-03
1.653054489e-07	-2.294090e-02	1.254814e-02	-2.641521e-02	-3.614850e-02	9.733291e-03
1.671727746e-07	-2.295682e-02	1.255886e-02	-2.643259e-02	-3.617311e-02	9.740523e-03
1.690401002e-07	-2.297245e-02	1.256938e-02	-2.644965e-02	-3.619727e-02	9.747625e-03
1.709116315e-07	-2.298845e-02	1.258008e-02	-2.646714e-02	-3.622202e-02	9.754877e-03
1.727831628e-07	-2.300365e-02	1.259031e-02	-2.648374e-02	-3.624552e-02	9.761784e-03
1.746589379e-07	-2.301949e-02	1.260086e-02	-2.650107e-02	-3.627002e-02	9.768952e-03
1.765347131e-07	-2.303439e-02	1.261086e-02	-2.651734e-02	-3.629306e-02	9.775719e-03
1.784147708e-07	-2.305000e-02	1.262123e-02	-2.653444e-02	-3.631721e-02	9.782778e-03
1.802948285e-07	-2.306464e-02	1.263104e-02	-2.655044e-02	-3.633986e-02	9.789423e-03
1.821705841e-07	-2.307920e-02	1.264077e-02	-2.656635e-02	-3.636237e-02	9.796020e-03
1.840420473e-07	-2.309367e-02	1.265041e-02	-2.658219e-02	-3.638476e-02	9.802575e-03
1.859092279e-07	-2.310806e-02	1.265999e-02	-2.659795e-02	-3.640704e-02	9.809090e-03
1.877721359e-07	-2.312239e-02	1.266949e-02	-2.661364e-02	-3.642921e-02	9.815568e-03
1.896350438e-07	-2.313703e-02	1.267915e-02	-2.662971e-02	-3.645189e-02	9.822175e-03
1.914936791e-07	-2.315096e-02	1.268839e-02	-2.664498e-02	-3.647345e-02	9.828474e-03
1.933523143e-07	-2.316552e-02	1.269795e-02	-2.666097e-02	-3.649600e-02	9.835031e-03
1.952066768e-07	-2.317920e-02	1.270699e-02	-2.667598e-02	-3.651719e-02	9.841213e-03
1.970610393e-07	-2.319358e-02	1.271640e-02	-2.669179e-02	-3.653948e-02	9.847684e-03
1.98911129e-07	-2.320706e-02	1.272529e-02	-2.670659e-02	-3.656036e-02	9.853768e-03
2.007612188e-07	-2.322125e-02	1.273455e-02	-2.672221e-02	-3.658236e-02	9.860146e-03
2.026113086e-07	-2.323494e-02	1.274350e-02	-2.673726e-02	-3.660357e-02	9.866308e-03
2.044613984e-07	-2.324871e-02	1.275249e-02	-2.675243e-02	-3.662493e-02	9.872502e-03
2.063071956e-07	-2.326189e-02	1.276112e-02	-2.676691e-02	-3.664534e-02	9.878434e-03
2.081529928e-07	-2.327561e-02	1.277004e-02	-2.678203e-02	-3.666663e-02	9.884597e-03
2.0999879e-07	-2.328893e-02	1.277870e-02	-2.679669e-02	-3.668727e-02	9.890580e-03
2.118445872e-07	-2.330230e-02	1.278738e-02	-2.681143e-02	-3.670801e-02	9.896581e-03
2.136903845e-07	-2.331548e-02	1.279595e-02	-2.682596e-02	-3.672846e-02	9.902502e-03
2.155361817e-07	-2.332860e-02	1.280445e-02	-2.684043e-02	-3.674882e-02	9.908391e-03
2.173819789e-07	-2.334161e-02	1.281288e-02	-2.685477e-02	-3.676899e-02	9.914225e-03
2.192277761e-07	-2.335452e-02	1.282124e-02	-2.686901e-02	-3.678903e-02	9.920018e-03
2.210735733e-07	-2.336734e-02	1.282952e-02	-2.688315e-02	-3.680891e-02	9.925764e-03
2.229193705e-07	-2.338006e-02	1.283774e-02	-2.689718e-02	-3.682865e-02	9.931467e-03
2.247651678e-07	-2.339269e-02	1.284589e-02	-2.691112e-02	-3.684825e-02	9.937126e-03
2.26610965e-07	-2.340522e-02	1.285397e-02	-2.692496e-02	-3.686770e-02	9.942742e-03
2.284567622e-07	-2.341767e-02	1.286198e-02	-2.693870e-02	-3.688702e-02	9.948315e-03
2.303025594e-07	-2.343002e-02	1.286994e-02	-2.695235e-02	-3.690619e-02	9.953847e-03
2.321483566e-07	-2.344368e-02	1.287865e-02	-2.696751e-02	-3.692743e-02	9.959928e-03
2.339941539e-07	-2.345631e-02	1.288678e-02	-2.698148e-02	-3.694706e-02	9.965573e-03
2.358399511e-07	-2.346898e-02	1.289491e-02	-2.699550e-02	-3.696672e-02	9.971228e-03
2.376902175e-07	-2.348171e-02	1.290308e-02	-2.700959e-02	-3.698651e-02	9.976916e-03
2.39540484e-07	-2.349374e-02	1.291085e-02	-2.702288e-02	-3.700518e-02	9.982301e-03
2.413907505e-07	-2.350587e-02	1.291866e-02	-2.703629e-02	-3.702401e-02	9.987724e-03
2.432410169e-07	-2.351775e-02	1.292631e-02	-2.704941e-02	-3.704246e-02	9.993042e-03
2.450912834e-07	-2.352958e-02	1.293393e-02	-2.706249e-02	-3.706083e-02	9.998336e-03
2.46937026e-07	-2.354087e-02	1.294123e-02	-2.707495e-02	-3.707834e-02	1.000339e-02
2.487827686e-07	-2.355268e-02	1.294881e-02	-2.708802e-02	-3.709669e-02	1.000867e-02
2.506239873e-07	-2.356372e-02	1.295594e-02	-2.710020e-02	-3.711383e-02	1.001362e-02
2.52465206e-07	-2.357542e-02	1.296342e-02	-2.711315e-02	-3.713199e-02	1.001884e-02
2.543064247e-07	-2.358670e-02	1.297065e-02	-2.712562e-02	-3.714951e-02	1.002389e-02
2.561431084e-07	-2.359631e-02	1.297690e-02	-2.713617e-02	-3.716439e-02	1.002822e-02
2.57979792e-07	-2.360858e-02	1.298466e-02	-2.714981e-02	-3.718348e-02	1.003368e-02
2.598164757e-07	-2.361955e-02	1.299168e-02	-2.716194e-02	-3.720052e-02	1.003857e-02
2.616486132e-07	-2.362916e-02	1.299789e-02	-2.717253e-02	-3.721542e-02	1.004290e-02
2.634807506e-07	-2.363989e-02	1.300470e-02	-2.718440e-02	-3.723209e-02	1.004769e-02
2.65312888e-07	-2.365028e-02	1.301131e-02	-2.719589e-02	-3.724822e-02	1.005233e-02
2.671450255e-07	-2.366088e-02	1.301802e-02	-2.720763e-02	-3.726469e-02	1.005706e-02
2.689771629e-07	-2.367136e-02	1.302466e-02	-2.721925e-02	-3.728098e-02	1.006173e-02
2.7080472e-07	-2.368145e-02	1.303106e-02	-2.723042e-02	-3.729666e-02	1.006624e-02
2.726322771e-07	-2.369206e-02	1.303774e-02	-2.724220e-02	-3.731316e-02	1.007096e-02
2.744598342e-07	-2.370240e-02	1.304426e-02	-2.725367e-02	-3.732923e-02	1.007556e-02
2.762873913e-07	-2.371279e-02	1.305081e-02	-2.726521e-02	-3.734539e-02	1.008018e-02
2.781149484e-07	-2.372306e-02	1.305727e-02	-2.727662e-02	-3.736137e-02	1.008476e-02
2.799425055e-07	-2.373330e-02	1.306371e-02	-2.728799e-02	-3.737730e-02	1.008931e-02
2.817700626e-07	-2.374347e-02	1.307010e-02	-2.729928e-02	-3.739310e-02	1.009383e-02
2.835976197e-07	-2.375357e-02	1.307644e-02	-2.731050e-02	-3.740882e-02	1.009832e-02
2.854251767e-07	-2.376361e-02	1.308275e-02	-2.732166e-02	-3.742444e-02	1.010278e-02
2.872527338e-07	-2.377359e-02	1.308900e-02	-2.733275e-02	-3.743996e-02	1.010722e-02
2.890802909e-07	-2.378350e-02	1.309522e-02	-2.734376e-02	-3.745538e-02	1.011162e-02
2.90907848e-07	-2.379335e-02	1.310139e-02	-2.735471e-02	-3.747070e-02	1.011599e-02
2.927354051e-07	-2.380313e-02	1.310752e-02	-2.736559e-02	-3.748593e-02	1.012034e-02
2.945629622e-07	-2.381286e-02	1.311360e-02	-2.737640e-02	-3.750106e-02	1.012466e-02
2.963905193e-07	-2.382252e-02	1.311964e-02	-2.738715e-02	-3.751609e-02	1.012894e-02
2.982180764e-07	-2.383211e-02	1.312564e-02	-2.739782e-02	-3.753102e-02	1.013320e-02
3.000456335e-07	-2.384165e-02	1.313160e-02	-2.740843e-02	-3.754586e-02	1.013743e-02
3.018731906e-07	-2.385112e-02	1.313752e-02	-2.741897e-02	-3.756060e-02	1.014164e-02
3.037007477e-07	-2.386053e-02	1.314340e-02	-2.742944e-02	-3.757525e-02	1.014581e-02
3.055283048e-07	-2.386988e-02	1.314923e-02	-2.743985e-02	-3.758981e-02	1.014996e-02
3.073558619e-07	-2.387918e-02	1.315503e-02	-2.745019e-02	-3.760427e-02	1.015408e-02
3.091834189e-07	-2.388750e-02	1.316028e-02	-2.745941e-02	-3.761721e-02	1.015779e-02
3.11010976e-07	-2.389613e-02	1.316571e-02	-2.746899e-02	-3.763062e-02	1.016163e-02
3.128336983e-07	-2.390436e-02	1.317090e-02	-2.747811e-02	-3.764341e-02	1.016530e-02
3.146564206e-07	-2.391322e-02	1.317645e-02	-2.748797e-02	-3.765721e-02	1.016924e-02
3.164791429e-07	-2.392187e-02	1.318186e-02	-2.749758e-02	-3.767066e-02	1.017308e-02
3.182970175e-07	-2.393021e-02	1.318710e-02	-2.750684e-02	-3.768363e-02	1.017679e-02
3.201148921e-07	-2.393889e-02	1.319251e-02	-2.751649e-02	-3.769713e-02	1.018064e-02
3.219327668e-07	-2.394849e-02	1.319847e-02	-2.752721e-02	-3.771210e-02	1.018489e-02
3.237506414e-07	-2.395431e-02	1.320228e-02	-2.753357e-02	-3.772109e-02	1.018752e-02
3.255636423e-07	-2.396481e-02	1.320872e-02	-2.754533e-02	-3.773748e-02	1.019215e-02
3.273766433e-07	-2.397109e-02	1.321278e-02	-2.755222e-02	-3.774720e-02	1.019498e-02
3.291896443e-07	-2.397858e-02	1.321751e-02	-2.756052e-02	-3.775884e-02	1.019831e-02
3.310026452e-07	-2.398852e-02	1.322361e-02	-2.757163e-02	-3.777433e-02	1.020270e-02
3.328156462e-07	-2.399481e-02	1.322768e-02	-2.757856e-02	-3.778409e-02	1.020553e-02
3.346286471e-07	-2.400303e-02	1.323281e-02	-2.758769e-02	-3.779687e-02	1.020918e-02
3.364416481e-07	-2.401023e-02	1.323736e-02	-2.759566e-02	-3.780806e-02	1.021240e-02
3.382546491e-07	-2.401786e-02	1.324216e-02	-2.760414e-02	-3.781993e-02	1.021580e-02
3.400626965e-07	-2.402482e-02	1.324657e-02	-2.761183e-02	-3.783074e-02	1.021891e-02
3.418707439e-07	-2.403244e-02	1.325134e-02	-2.762029e-02	-3.784258e-02	1.022229e-02
3.436787913e-07	-2.403977e-02	1.325594e-02	-2.762843e-02	-3.785399e-02	1.022556e-02
3.454868387e-07	-2.404720e-02	1.326059e-02	-2.763666e-02	-3.786553e-02	1.022886e-02
3.472948861e-07	-2.405452e-02	1.326518e-02	-2.764480e-02	-3.787692e-02	1.023212e-02
3.491029335e-07	-2.406184e-02	1.326976e-02	-2.765292e-02	-3.788830e-02	1.023538e-02
3.509109809e-07	-2.406911e-02	1.327431e-02	-2.766099e-02	-3.789961e-02	1.023862e-02
3.527190283e-07	-2.407636e-02	1.327883e-02	-2.766904e-02	-3.791088e-02	1.024184e-02
3.545270757e-07	-2.408356e-02	1.328334e-02	-2.767704e-02	-3.792208e-02	1.024504e-02
3.563351231e-07	-2.409073e-02	1.328781e-02	-2.768500e-02	-3.793323e-02	1.024823e-02
3.581431705e-07	-2.409787e-02	1.329227e-02	-2.769293e-02	-3.794433e-02	1.025140e-02
3.59951218e-07	-2.410497e-02	1.329669e-02	-2.770082e-02	-3.795538e-02	1.025456e-02
3.617592654e-07	-2.411203e-02	1.330110e-02	-2.770867e-02	-3.796637e-02	1.025770e-02
3.635673128e-07	-2.411906e-02	1.330548e-02	-2.771648e-02	-3.797730e-02	1.026082e-02
3.653753602e-07	-2.412606e-02	1.330983e-02	-2.772425e-02	-3.798818e-02	1.026393e-02
3.671834076e-07	-2.413302e-02	1.331416e-02	-2.773199e-02	-3.799901e-02	1.026702e-02
3.68991455e-07	-2.413994e-02	1.331847e-02	-2.773968e-02	-3.800978e-02	1.027010e-02
3.707995024e-07	-2.414683e-02	1.332275e-02	-2.774734e-02	-3.802050e-02	1.027316e-02
3.726075498e-07	-2.415368e-02	1.332701e-02	-2.775496e-02	-3.803116e-02	1.027620e-02
3.744155972e-07	-2.416050e-02	1.333125e-02	-2.776254e-02	-3.804177e-02	1.027923e-02
3.762184341e-07	-2.416685e-02	1.333521e-02	-2.776959e-02	-3.805165e-02	1.028205e-02
3.78021271e-07	-2.417375e-02	1.333948e-02	-2.777727e-02	-3.806239e-02	1.028511e-02
3.798241079e-07	-2.418044e-02	1.334363e-02	-2.778472e-02	-3.807280e-02	1.028808e-02
3.816269448e-07	-2.418717e-02	1.334780e-02	-2.779221e-02	-3.808328e-02	1.029106e-02
3.834245409e-07	-2.419340e-02	1.335167e-02	-2.779913e-02	-3.809296e-02	1.029383e-02
3.85222137e-07	-2.420018e-02	1.335586e-02	-2.780669e-02	-3.810353e-02	1.029684e-02
3.870197331e-07	-2.420675e-02	1.335992e-02	-2.781401e-02	-3.811376e-02	1.029975e-02
3.888173292e-07	-2.421337e-02	1.336400e-02	-2.782138e-02	-3.812406e-02	1.030268e-02
3.906149252e-07	-2.421990e-02	1.336803e-02	-2.782866e-02	-3.813423e-02	1.030557e-02
3.924125213e-07	-2.422642e-02	1.337205e-02	-2.783591e-02	-3.814437e-02	1.030846e-02
3.942101174e-07	-2.423288e-02	1.337604e-02	-2.784312e-02	-3.815444e-02	1.031132e-02
3.960077135e-07	-2.423932e-02	1.338001e-02	-2.785029e-02	-3.816446e-02	1.031417e-02
3.977999755e-07	-2.424528e-02	1.338371e-02	-2.785692e-02	-3.817374e-02	1.031682e-02
3.995922375e-07	-2.425179e-02	1.338771e-02	-2.786418e-02	-3.818387e-02	1.031970e-02
4.013844994e-07	-2.425809e-02	1.339159e-02	-2.787120e-02	-3.819369e-02	1.032249e-02
4.031767614e-07	-2.426443e-02	1.339549e-02	-2.787828e-02	-3.820357e-02	1.032529e-02
4.049690234e-07	-2.427070e-02	1.339935e-02	-2.788526e-02	-3.821333e-02	1.032807e-02
4.067612854e-07	-2.427695e-02	1.340319e-02	-2.789223e-02	-3.822306e-02	1.033083e-02
4.085535474e-07	-2.428315e-02	1.340700e-02	-2.789914e-02	-3.823272e-02	1.033357e-02
4.103458093e-07	-2.428931e-02	1.341079e-02	-2.790602e-02	-3.824233e-02	1.033630e-02
4.121380713e-07	-2.429544e-02	1.341456e-02	-2.791286e-02	-3.825187e-02	1.033902e-02
4.139303333e-07	-2.430154e-02	1.341830e-02	-2.791966e-02	-3.826137e-02	1.034171e-02
4.157225953e-07	-2.430760e-02	1.342202e-02	-2.792642e-02	-3.827081e-02	1.034439e-02
4.175148572e-07	-2.431362e-02	1.342572e-02	-2.793314e-02	-3.828019e-02	1.034706e-02
4.193071192e-07	-2.431961e-02	1.342940e-02	-2.793982e-02	-3.828952e-02	1.034970e-02
4.210993812e-07	-2.432451e-02	1.343248e-02	-2.794523e-02	-3.829712e-02	1.035189e-02
4.228916432e-07	-2.432980e-02	1.343578e-02	-2.795111e-02	-3.830536e-02	1.035424e-02
4.246839052e-07	-2.433514e-02	1.343910e-02	-2.795704e-02	-3.831366e-02	1.035662e-02
4.264761671e-07	-2.434058e-02	1.344248e-02	-2.796308e-02	-3.832212e-02	1.035904e-02
4.282684291e-07	-2.434604e-02	1.344586e-02	-2.796916e-02	-3.833062e-02	1.036146e-02
4.300606911e-07	-2.435153e-02	1.344927e-02	-2.797526e-02	-3.833916e-02	1.036390e-02
4.318529531e-07	-2.435703e-02	1.345267e-02	-2.798137e-02	-3.834771e-02	1.036634e-02
4.33645215e-07	-2.436252e-02	1.345607e-02	-2.798748e-02	-3.835627e-02	1.036878e-02
4.354318232e-07	-2.436757e-02	1.345921e-02	-2.799309e-02	-3.836411e-02	1.037103e-02
4.372184314e-07	-2.437319e-02	1.346267e-02	-2.799934e-02	-3.837286e-02	1.037351e-02
4.390050395e-07	-2.437864e-02	1.346604e-02	-2.800542e-02	-3.838135e-02	1.037593e-02
4.407916477e-07	-2.438414e-02	1.346943e-02	-2.801155e-02	-3.838992e-02	1.037837e-02
4.425782558e-07	-2.438959e-02	1.347278e-02	-2.801761e-02	-3.839840e-02	1.038078e-02
4.44364864e-07	-2.439503e-02	1.347613e-02	-2.802367e-02	-3.840687e-02	1.038319e-02
4.461457458e-07	-2.439999e-02	1.347921e-02	-2.802919e-02	-3.841459e-02	1.038540e-02
4.479266277e-07	-2.440552e-02	1.348260e-02	-2.803536e-02	-3.842320e-02	1.038784e-02
4.497075095e-07	-2.441087e-02	1.348589e-02	-2.804133e-02	-3.843154e-02	1.039021e-02
4.514883914e-07	-2.441626e-02	1.348920e-02	-2.804734e-02	-3.843993e-02	1.039260e-02
4.532692732e-07	-2.442160e-02	1.349248e-02	-2.805328e-02	-3.844824e-02	1.039495e-02
4.550501551e-07	-2.442691e-02	1.349574e-02	-2.805921e-02	-3.845652e-02	1.039731e-02
4.568310369e-07	-2.443220e-02	1.349898e-02	-2.806511e-02	-3.846475e-02	1.039964e-02
4.586119187e-07	-2.443745e-02	1.350221e-02	-2.807097e-02	-3.847294e-02	1.040197e-02
4.603928006e-07	-2.444268e-02	1.350542e-02	-2.807680e-02	-3.848108e-02	1.040428e-02
4.621736824e-07	-2.444788e-02	1.350861e-02	-2.808260e-02	-3.848918e-02	1.040658e-02
4.639545643e-07	-2.445306e-02	1.351178e-02	-2.808837e-02	-3.849724e-02	1.040887e-02
4.657295492e-07	-2.445775e-02	1.351468e-02	-2.809359e-02	-3.850454e-02	1.041095e-02
4.675045341e-07	-2.446300e-02	1.351788e-02	-2.809946e-02	-3.851273e-02	1.041327e-02
4.692795189e-07	-2.446808e-02	1.352100e-02	-2.810514e-02	-3.852065e-02	1.041552e-02
4.710545038e-07	-2.447320e-02	1.352412e-02	-2.811085e-02	-3.852862e-02	1.041778e-02
4.728294887e-07	-2.447826e-02	1.352721e-02	-2.811649e-02	-3.853650e-02	1.042001e-02
4.746044736e-07	-2.448330e-02	1.353030e-02	-2.812212e-02	-3.854436e-02	1.042224e-02
4.763794585e-07	-2.448830e-02	1.353336e-02	-2.812771e-02	-3.855215e-02	1.042445e-02
4.781544434e-07	-2.449328e-02	1.353640e-02	-2.813327e-02	-3.855991e-02	1.042665e-02
4.799294283e-07	-2.449823e-02	1.353942e-02	-2.813879e-02	-3.856763e-02	1.042883e-02
4.817044131e-07	-2.450315e-02	1.354243e-02	-2.814429e-02	-3.857529e-02	1.043100e-02
4.83479398e-07	-2.450804e-02	1.354542e-02	-2.814975e-02	-3.858292e-02	1.043317e-02
4.852543829e-07	-2.451291e-02	1.354839e-02	-2.815519e-02	-3.859050e-02	1.043531e-02
4.870293678e-07	-2.451775e-02	1.355135e-02	-2.816059e-02	-3.859804e-02	1.043745e-02
4.888043527e-07	-2.452137e-02	1.355359e-02	-2.816460e-02	-3.860367e-02	1.043908e-02
4.905793376e-07	-2.452564e-02	1.355617e-02	-2.816934e-02	-3.861030e-02	1.044097e-02
4.923543225e-07	-2.453098e-02	1.355937e-02	-2.817532e-02	-3.861864e-02	1.044332e-02
4.941293074e-07	-2.453264e-02	1.356050e-02	-2.817709e-02	-3.862119e-02	1.044410e-02
4.959042922e-07	-2.453853e-02	1.356398e-02	-2.818371e-02	-3.863039e-02	1.044667e-02
4.976730491e-07	-2.454265e-02	1.356648e-02	-2.818830e-02	-3.863680e-02	1.044850e-02
4.99441806e-07	-2.454595e-02	1.356853e-02	-2.819195e-02	-3.864192e-02	1.044997e-02
5.012105628e-07	-2.454890e-02	1.357036e-02	-2.819521e-02	-3.864650e-02	1.045129e-02
5.029793197e-07	-2.455538e-02	1.357417e-02	-2.820251e-02	-3.865664e-02	1.045412e-02
5.047480766e-07	-2.455650e-02	1.357498e-02	-2.820368e-02	-3.865834e-02	1.045466e-02
5.065168335e-07	-2.456373e-02	1.357921e-02	-2.821185e-02	-3.866966e-02	1.045781e-02
5.082855903e-07	-2.456562e-02	1.358045e-02	-2.821388e-02	-3.867256e-02	1.045868e-02
5.100543472e-07	-2.456921e-02	1.358264e-02	-2.821789e-02	-3.867816e-02	1.046027e-02
5.118231041e-07	-2.457517e-02	1.358614e-02	-2.822459e-02	-3.868746e-02	1.046287e-02
5.135854755e-07	-2.457700e-02	1.358735e-02	-2.822657e-02	-3.869029e-02	1.046372e-02
5.15347847e-07	-2.458146e-02	1.359003e-02	-2.823156e-02	-3.869724e-02	1.046568e-02
5.171102185e-07	-2.458477e-02	1.359205e-02	-2.823523e-02	-3.870238e-02	1.046715e-02
5.188725899e-07	-2.458860e-02	1.359437e-02	-2.823951e-02	-3.870835e-02	1.046884e-02
5.206349614e-07	-2.459215e-02	1.359653e-02	-2.824347e-02	-3.871389e-02	1.047042e-02
5.223973329e-07	-2.459582e-02	1.359875e-02	-2.824756e-02	-3.871960e-02	1.047204e-02
5.241597043e-07	-2.459942e-02	1.360094e-02	-2.825156e-02	-3.872520e-02	1.047363e-02
5.259220758e-07	-2.460303e-02	1.360313e-02	-2.825559e-02	-3.873083e-02	1.047523e-02
5.276844473e-07	-2.460662e-02	1.360530e-02	-2.825959e-02	-3.873642e-02	1.047682e-02
5.294468187e-07	-2.461021e-02	1.360747e-02	-2.826359e-02	-3.874200e-02	1.047841e-02
5.312091902e-07	-2.461378e-02	1.360964e-02	-2.826757e-02	-3.874756e-02	1.047999e-02
5.329715616e-07	-2.461734e-02	1.361179e-02	-2.827154e-02	-3.875311e-02	1.048157e-02
5.347339331e-07	-2.462089e-02	1.361394e-02	-2.827550e-02	-3.875864e-02	1.048314e-02
5.364963046e-07	-2.462443e-02	1.361608e-02	-2.827944e-02	-3.876415e-02	1.048471e-02
5.38258676e-07	-2.462795e-02	1.361822e-02	-2.828337e-02	-3.876964e-02	1.048627e-02
5.400210475e-07	-2.463147e-02	1.362034e-02	-2.828729e-02	-3.877511e-02	1.048782e-02
5.41783419e-07	-2.463380e-02	1.362182e-02	-2.828985e-02	-3.877872e-02	1.048887e-02
5.435457904e-07	-2.463661e-02	1.362357e-02	-2.829295e-02	-3.878309e-02	1.049013e-02
5.453081619e-07	-2.463949e-02	1.362536e-02	-2.829613e-02	-3.878756e-02	1.049142e-02
5.470705334e-07	-2.464251e-02	1.362722e-02	-2.829947e-02	-3.879225e-02	1.049277e-02
5.488329048e-07	-2.464557e-02	1.362911e-02	-2.830286e-02	-3.879700e-02	1.049414e-02
5.505952763e-07	-2.464868e-02	1.363103e-02	-2.830631e-02	-3.880184e-02	1.049553e-02
5.523507635e-07	-2.465132e-02	1.363267e-02	-2.830922e-02	-3.880594e-02	1.049671e-02
5.541062507e-07	-2.465461e-02	1.363468e-02	-2.831288e-02	-3.881105e-02	1.049817e-02
5.558617379e-07	-2.465781e-02	1.363664e-02	-2.831642e-02	-3.881602e-02	1.049960e-02
5.576172251e-07	-2.466105e-02	1.363861e-02	-2.832002e-02	-3.882106e-02	1.050104e-02
5.593727123e-07	-2.466427e-02	1.364058e-02	-2.832360e-02	-3.882607e-02	1.050247e-02
5.611281995e-07	-2.466750e-02	1.364256e-02	-2.832719e-02	-3.883110e-02	1.050390e-02
5.628836867e-07	-2.467072e-02	1.364452e-02	-2.833078e-02	-3.883611e-02	1.050533e-02
5.646391739e-07	-2.467394e-02	1.364649e-02	-2.833436e-02	-3.884112e-02	1.050677e-02
5.663946611e-07	-2.467716e-02	1.364845e-02	-2.833793e-02	-3.884613e-02	1.050819e-02
5.681501483e-07	-2.468037e-02	1.365041e-02	-2.834150e-02	-3.885112e-02	1.050962e-02
5.698985283e-07	-2.468306e-02	1.365207e-02	-2.834448e-02	-3.885530e-02	1.051082e-02
5.716469083e-07	-2.468638e-02	1.365408e-02	-2.834818e-02	-3.886046e-02	1.051229e-02
5.733952882e-07	-2.468958e-02	1.365603e-02	-2.835175e-02	-3.886546e-02	1.051371e-02
5.751436682e-07	-2.469281e-02	1.365799e-02	-2.835534e-02	-3.887048e-02	1.051514e-02
5.768920482e-07	-2.469601e-02	1.365993e-02	-2.835891e-02	-3.887546e-02	1.051656e-02
5.786404281e-07	-2.469920e-02	1.366187e-02	-2.836246e-02	-3.888044e-02	1.051797e-02
5.803888081e-07	-2.470238e-02	1.366380e-02	-2.836600e-02	-3.888538e-02	1.051938e-02
5.821371881e-07	-2.470555e-02	1.366572e-02	-2.836953e-02	-3.889031e-02	1.052078e-02
5.83885568e-07	-2.470870e-02	1.366763e-02	-2.837304e-02	-3.889522e-02	1.052218e-02
5.85633948e-07	-2.471184e-02	1.366954e-02	-2.837654e-02	-3.890011e-02	1.052357e-02
5.87382328e-07	-2.471496e-02	1.367143e-02	-2.838002e-02	-3.890497e-02	1.052495e-02
5.891307079e-07	-2.471807e-02	1.367332e-02	-2.838349e-02	-3.890982e-02	1.052633e-02
5.908790879e-07	-2.472117e-02	1.367520e-02	-2.838694e-02	-3.891464e-02	1.052770e-02
5.926274679e-07	-2.472426e-02	1.367707e-02	-2.839038e-02	-3.891945e-02	1.052907e-02
5.943758478e-07	-2.472733e-02	1.367893e-02	-2.839380e-02	-3.892423e-02	1.053043e-02
5.961242278e-07	-2.473039e-02	1.368079e-02	-2.839721e-02	-3.892900e-02	1.053178e-02
5.978726078e-07	-2.473344e-02	1.368264e-02	-2.840061e-02	-3.893374e-02	1.053313e-02
5.996209877e-07	-2.473647e-02	1.368447e-02	-2.840398e-02	-3.893846e-02	1.053447e-02
6.013693677e-07	-2.473948e-02	1.368630e-02	-2.840735e-02	-3.894316e-02	1.053581e-02
6.031177476e-07	-2.474249e-02	1.368813e-02	-2.841070e-02	-3.894784e-02	1.053714e-02
6.048661276e-07	-2.474548e-02	1.368994e-02	-2.841403e-02	-3.895250e-02	1.053847e-02
6.066145076e-07	-2.474846e-02	1.369174e-02	-2.841735e-02	-3.895713e-02	1.053978e-02
6.083551514e-07	-2.475087e-02	1.369323e-02	-2.842003e-02	-3.896089e-02	1.054086e-02
6.100957951e-07	-2.475394e-02	1.369508e-02	-2.842345e-02	-3.896567e-02	1.054221e-02
6.118364389e-07	-2.475690e-02	1.369687e-02	-2.842676e-02	-3.897028e-02	1.054352e-02
6.135770827e-07	-2.475988e-02	1.369866e-02	-2.843008e-02	-3.897492e-02	1.054484e-02
6.153177264e-07	-2.476282e-02	1.370044e-02	-2.843337e-02	-3.897950e-02	1.054614e-02
6.170583702e-07	-2.476575e-02	1.370221e-02	-2.843664e-02	-3.898407e-02	1.054743e-02
6.18799014e-07	-2.476867e-02	1.370396e-02	-2.843989e-02	-3.898861e-02	1.054872e-02
6.205396578e-07	-2.477157e-02	1.370572e-02	-2.844313e-02	-3.899313e-02	1.055000e-02
6.222803015e-07	-2.477445e-02	1.370746e-02	-2.844635e-02	-3.899763e-02	1.055128e-02
6.240209453e-07	-2.477732e-02	1.370919e-02	-2.844955e-02	-3.900210e-02	1.055255e-02
6.257615891e-07	-2.478017e-02	1.371091e-02	-2.845274e-02	-3.900654e-02	1.055381e-02
6.275022328e-07	-2.478301e-02	1.371262e-02	-2.845591e-02	-3.901097e-02	1.055506e-02
6.292428766e-07	-2.478584e-02	1.371433e-02	-2.845906e-02	-3.901537e-02	1.055631e-02
6.309835204e-07	-2.478865e-02	1.371603e-02	-2.846219e-02	-3.901974e-02	1.055755e-02
6.327241642e-07	-2.479026e-02	1.371701e-02	-2.846395e-02	-3.902224e-02	1.055829e-02
6.344565973e-07	-2.479213e-02	1.371813e-02	-2.846600e-02	-3.902513e-02	1.055912e-02
6.361890305e-07	-2.479453e-02	1.371955e-02	-2.846868e-02	-3.902887e-02	1.056019e-02
6.379214637e-07	-2.479705e-02	1.372103e-02	-2.847150e-02	-3.903280e-02	1.056130e-02
6.396538969e-07	-2.479957e-02	1.372250e-02	-2.847432e-02	-3.903673e-02	1.056241e-02
6.413863301e-07	-2.480214e-02	1.372401e-02	-2.847719e-02	-3.904074e-02	1.056354e-02
6.431187633e-07	-2.480471e-02	1.372551e-02	-2.848007e-02	-3.904475e-02	1.056468e-02