# Cf ()      
# Time       	patch        	min          	max          	average      
4e-05        	cone	2.690521e-04	1.215806e-01	4.633160e-02
