/*--------------------------------*- C++ -*----------------------------------*\
| =========                 |                                                 |
| \\      /  F ield         | OpenFOAM: The Open Source CFD Toolbox           |
|  \\    /   O peration     | Version:  v1706                                 |
|   \\  /    A nd           | Web:      www.OpenFOAM.com                      |
|    \\/     M anipulation  |                                                 |
\*---------------------------------------------------------------------------*/
FoamFile
{
    version     2.0;
    format      ascii;
    class       volScalarField;
    location    "1.6e-05";
    object      kappatr;
}
// * * * * * * * * * * * * * * * * * * * * * * * * * * * * * * * * * * * * * //

dimensions      [1 1 -3 -1 0 0 0];


internalField   nonuniform List<scalar> 
29871
(
0.014593
0.014593
0.014593
0.014593
0.014593
0.014593
0.014593
0.014593
0.014593
0.014593
0.014593
0.014593
0.014593
0.014593
0.014593
0.014593
0.014593
0.014593
0.014593
0.014593
0.014593
0.014593
0.014593
0.014593
0.014593
0.014593
0.014593
0.014593
0.014593
0.014593
0.014593
0.014593
0.014593
0.014593
0.014593
0.014593
0.014593
0.014593
0.014593
0.014593
0.014593
0.014593
0.014593
0.014593
0.014593
0.014593
0.014593
0.014593
0.014593
0.014593
0.014593
0.014593
0.014593
0.014593
0.014593
0.014593
0.014593
0.014593
0.014593
0.014593
0.014593
0.014593
0.014593
0.014593
0.014593
0.014593
0.014593
0.014593
0.014593
0.014593
0.014593
0.014593
0.014593
0.014593
0.014593
0.014593
0.014593
0.014593
0.014593
0.014593
0.014593
0.014593
0.014593
0.014593
0.014593
0.014593
0.014593
0.014593
0.014593
0.014593
0.014593
0.014593
0.014593
0.014593
0.014593
0.014593
0.014593
0.014593
0.014593
0.014593
0.014593
0.014593
0.014593
0.014593
0.014593
0.014593
0.014593
0.014593
0.014593
0.014593
0.014593
0.014593
0.014593
0.014593
0.014593
0.014593
0.014593
0.014593
0.014593
0.014593
0.014593
0.014593
0.014593
0.014593
0.014593
0.014593
0.014593
0.014593
0.014593
0.014593
0.014593
0.014593
0.014593
0.014593
0.014593
0.014593
0.014593
0.014593
0.014593
0.014593
0.014593
0.014593
0.014593
0.014593
0.014593
0.014593
0.014593
0.014593
0.014593
0.014593
0.014593
0.014593
0.014593
0.014593
0.014593
0.014593
0.014593
0.014593
0.014593
0.014593
0.014593
0.014593
0.014593
0.014593
0.014593
0.014593
0.014593
0.014593
0.014593
0.014593
0.014593
0.014593
0.014593
0.014593
0.014593
0.014593
0.014593
0.014593
0.014593
0.014593
0.014593
0.014593
0.014593
0.014593
0.014593
0.014593
0.014593
0.014593
0.014593
0.014593
0.014593
0.014593
0.014593
0.014593
0.014593
0.014593
0.014593
0.014593
0.014593
0.014593
0.014593
0.014593
0.014593
0.014593
0.014593
0.014593
0.014593
0.014593
0.014593
0.014593
0.014593
0.014593
0.014593
0.014593
0.014593
0.014593
0.014593
0.014593
0.014593
0.014593
0.014593
0.014593
0.014593
0.014593
0.014593
0.014593
0.014593
0.014593
0.014593
0.014593
0.014593
0.014593
0.014593
0.014593
0.014593
0.014593
0.014593
0.014593
0.014593
0.014593
0.014593
0.014593
0.014593
0.014593
0.014593
0.014593
0.014593
0.014593
0.014593
0.014593
0.014593
0.014593
0.014593
0.014593
0.014593
0.014593
0.014593
0.014593
0.014593
0.014593
0.014593
0.014593
0.014593
0.014593
0.014593
0.014593
0.014593
0.014593
0.014593
0.014593
0.014593
0.014593
0.014593
0.014593
0.014593
0.014593
0.014593
0.014593
0.014593
0.014593
0.014593
0.014593
0.014593
0.014593
0.014593
0.014593
0.014593
0.014593
0.014593
0.014593
0.014593
0.014593
0.014593
0.014593
0.014593
0.014593
0.014593
0.014593
0.014593
0.014593
0.014593
0.014593
0.014593
0.014593
0.014593
0.014593
0.014593
0.014593
0.014593
0.014593
0.014593
0.014593
0.014593
0.014593
0.014593
0.014593
0.014593
0.014593
0.014593
0.014593
0.014593
0.014593
0.014593
0.014593
0.014593
0.014593
0.014593
0.014593
0.014593
0.014593
0.014593
0.014593
0.014593
0.014593
0.014593
0.014593
0.014593
0.014593
0.014593
0.014593
0.014593
0.014593
0.014593
0.014593
0.014593
0.014593
0.014593
0.014593
0.014593
0.014593
0.014593
0.014593
0.014593
0.014593
0.014593
0.014593
0.014593
0.014593
0.014593
0.014593
0.014593
0.014593
0.014593
0.014593
0.014593
0.014593
0.014593
0.014593
0.014593
0.014593
0.014593
0.014593
0.014593
0.014593
0.014593
0.014593
0.014593
0.014593
0.014593
0.014593
0.014593
0.014593
0.014593
0.014593
0.014593
0.014593
0.014593
0.014593
0.014593
0.014593
0.014593
0.014593
0.014593
0.014593
0.014593
0.014593
0.014593
0.014593
0.014593
0.014593
0.014593
0.014593
0.014593
0.014593
0.014593
0.014593
0.014593
0.014593
0.014593
0.014593
0.014593
0.014593
0.014593
0.014593
0.014593
0.014593
0.014593
0.014593
0.014593
0.014593
0.014593
0.014593
0.014593
0.014593
0.014593
0.014593
0.014593
0.014593
0.014593
0.014593
0.014593
0.014593
0.014593
0.014593
0.014593
0.014593
0.014593
0.014593
0.014593
0.014593
0.014593
0.014593
0.014593
0.014593
0.014593
0.014593
0.014593
0.014593
0.014593
0.014593
0.014593
0.014593
0.014593
0.014593
0.014593
0.014593
0.014593
0.014593
0.014593
0.014593
0.014593
0.014593
0.014593
0.014593
0.014593
0.014593
0.014593
0.014593
0.014593
0.014593
0.014593
0.014593
0.014593
0.014593
0.014593
0.014593
0.014593
0.014593
0.014593
0.014593
0.014593
0.014593
0.014593
0.014593
0.014593
0.014593
0.014593
0.014593
0.014593
0.014593
0.014593
0.014593
0.014593
0.014593
0.014593
0.014593
0.014593
0.014593
0.014593
0.014593
0.014593
0.014593
0.014593
0.014593
0.014593
0.014593
0.014593
0.014593
0.014593
0.014593
0.014593
0.014593
0.014593
0.014593
0.014593
0.014593
0.014593
0.014593
0.014593
0.014593
0.014593
0.014593
0.014593
0.014593
0.014593
0.014593
0.014593
0.014593
0.014593
0.014593
0.014593
0.014593
0.014593
0.014593
0.014593
0.014593
0.014593
0.014593
0.014593
0.014593
0.014593
0.014593
0.014593
0.014593
0.014593
0.014593
0.014593
0.014593
0.014593
0.014593
0.014593
0.014593
0.014593
0.014593
0.014593
0.014593
0.014593
0.014593
0.014593
0.014593
0.014593
0.014593
0.014593
0.014593
0.014593
0.014593
0.014593
0.014593
0.014593
0.014593
0.014593
0.014593
0.014593
0.014593
0.014593
0.014593
0.014593
0.014593
0.014593
0.014593
0.014593
0.014593
0.014593
0.014593
0.014593
0.014593
0.014593
0.014593
0.014593
0.014593
0.014593
0.014593
0.014593
0.014593
0.014593
0.014593
0.014593
0.014593
0.014593
0.014593
0.014593
0.014593
0.014593
0.014593
0.014593
0.014593
0.014593
0.014593
0.014593
0.014593
0.014593
0.014593
0.014593
0.014593
0.014593
0.014593
0.014593
0.014593
0.014593
0.014593
0.014593
0.014593
0.014593
0.014593
0.014593
0.014593
0.014593
0.014593
0.014593
0.014593
0.014593
0.014593
0.014593
0.014593
0.014593
0.014593
0.014593
0.014593
0.014593
0.014593
0.014593
0.014593
0.014593
0.014593
0.014593
0.014593
0.014593
0.014593
0.014593
0.014593
0.014593
0.014593
0.014593
0.014593
0.014593
0.014593
0.014593
0.014593
0.014593
0.014593
0.014593
0.014593
0.014593
0.014593
0.014593
0.014593
0.014593
0.014593
0.014593
0.014593
0.014593
0.014593
0.014593
0.014593
0.014593
0.014593
0.014593
0.014593
0.014593
0.014593
0.014593
0.014593
0.014593
0.014593
0.014593
0.014593
0.014593
0.014593
0.014593
0.014593
0.014593
0.014593
0.014593
0.014593
0.014593
0.014593
0.014593
0.014593
0.014593
0.014593
0.014593
0.014593
0.014593
0.014593
0.014593
0.014593
0.014593
0.014593
0.014593
0.014593
0.014593
0.014593
0.014593
0.014593
0.014593
0.014593
0.014593
0.014593
0.014593
0.014593
0.014593
0.014593
0.014593
0.014593
0.014593
0.014593
0.014593
0.014593
0.014593
0.014593
0.014593
0.014593
0.014593
0.014593
0.014593
0.014593
0.014593
0.014593
0.014593
0.014593
0.014593
0.014593
0.014593
0.014593
0.014593
0.014593
0.014593
0.014593
0.014593
0.014593
0.014593
0.014593
0.014593
0.014593
0.014593
0.014593
0.014593
0.014593
0.014593
0.014593
0.014593
0.014593
0.014593
0.014593
0.014593
0.014593
0.014593
0.014593
0.014593
0.014593
0.014593
0.014593
0.014593
0.014593
0.014593
0.014593
0.014593
0.014593
0.014593
0.014593
0.014593
0.014593
0.014593
0.014593
0.014593
0.014593
0.014593
0.014593
0.014593
0.014593
0.014593
0.014593
0.014593
0.014593
0.014593
0.014593
0.014593
0.014593
0.014593
0.014593
0.014593
0.014593
0.014593
0.014593
0.014593
0.014593
0.014593
0.014593
0.014593
0.014593
0.014593
0.014593
0.014593
0.014593
0.014593
0.014593
0.014593
0.014593
0.014593
0.014593
0.014593
0.014593
0.014593
0.014593
0.014593
0.014593
0.014593
0.014593
0.014593
0.014593
0.014593
0.014593
0.014593
0.014593
0.014593
0.014593
0.014593
0.014593
0.014593
0.014593
0.014593
0.014593
0.014593
0.014593
0.014593
0.014593
0.014593
0.014593
0.014593
0.014593
0.014593
0.014593
0.014593
0.014593
0.014593
0.014593
0.014593
0.014593
0.014593
0.014593
0.014593
0.014593
0.014593
0.014593
0.014593
0.014593
0.014593
0.014593
0.014593
0.014593
0.014593
0.014593
0.014593
0.014593
0.014593
0.014593
0.014593
0.014593
0.014593
0.014593
0.014593
0.014593
0.014593
0.014593
0.014593
0.014593
0.014593
0.014593
0.014593
0.014593
0.014593
0.014593
0.014593
0.014593
0.014593
0.014593
0.014593
0.014593
0.014593
0.014593
0.014593
0.014593
0.014593
0.014593
0.014593
0.014593
0.014593
0.014593
0.014593
0.014593
0.014593
0.014593
0.014593
0.014593
0.014593
0.014593
0.014593
0.014593
0.014593
0.014593
0.014593
0.014593
0.014593
0.014593
0.014593
0.014593
0.014593
0.014593
0.014593
0.014593
0.014593
0.014593
0.014593
0.014593
0.014593
0.014593
0.014593
0.014593
0.014593
0.014593
0.014593
0.014593
0.014593
0.014593
0.014593
0.014593
0.014593
0.014593
0.014593
0.014593
0.014593
0.014593
0.014593
0.014593
0.014593
0.014593
0.014593
0.014593
0.014593
0.014593
0.014593
0.014593
0.014593
0.014593
0.014593
0.014593
0.014593
0.014593
0.014593
0.014593
0.014593
0.014593
0.014593
0.014593
0.014593
0.014593
0.014593
0.014593
0.014593
0.014593
0.014593
0.014593
0.014593
0.014593
0.014593
0.014593
0.014593
0.014593
0.014593
0.014593
0.014593
0.014593
0.014593
0.014593
0.014593
0.014593
0.014593
0.014593
0.014593
0.014593
0.014593
0.014593
0.014593
0.014593
0.014593
0.014593
0.014593
0.014593
0.014593
0.014593
0.014593
0.014593
0.014593
0.014593
0.014593
0.014593
0.014593
0.014593
0.014593
0.014593
0.014593
0.014593
0.014593
0.014593
0.014593
0.014593
0.014593
0.014593
0.014593
0.014593
0.014593
0.014593
0.014593
0.014593
0.014593
0.014593
0.014593
0.014593
0.014593
0.014593
0.014593
0.014593
0.014593
0.014593
0.014593
0.014593
0.014593
0.014593
0.014593
0.014593
0.014593
0.014593
0.014593
0.014593
0.014593
0.014593
0.014593
0.014593
0.014593
0.014593
0.014593
0.014593
0.014593
0.014593
0.014593
0.014593
0.014593
0.014593
0.014593
0.014593
0.014593
0.014593
0.014593
0.014593
0.014593
0.014593
0.014593
0.014593
0.014593
0.014593
0.014593
0.014593
0.014593
0.014593
0.014593
0.014593
0.014593
0.014593
0.014593
0.014593
0.014593
0.014593
0.014593
0.014593
0.014593
0.014593
0.014593
0.014593
0.014593
0.014593
0.014593
0.014593
0.014593
0.014593
0.014593
0.014593
0.014593
0.014593
0.014593
0.014593
0.014593
0.014593
0.014593
0.014593
0.014593
0.014593
0.014593
0.014593
0.014593
0.014593
0.014593
0.014593
0.014593
0.014593
0.014593
0.014593
0.014593
0.014593
0.014593
0.014593
0.014593
0.014593
0.014593
0.014593
0.014593
0.014593
0.014593
0.014593
0.014593
0.014593
0.014593
0.014593
0.014593
0.014593
0.014593
0.014593
0.014593
0.014593
0.014593
0.014593
0.014593
0.014593
0.014593
0.014593
0.014593
0.014593
0.014593
0.014593
0.014593
0.014593
0.014593
0.014593
0.014593
0.014593
0.014593
0.014593
0.014593
0.014593
0.014593
0.014593
0.014593
0.014593
0.014593
0.014593
0.014593
0.014593
0.014593
0.014593
0.014593
0.014593
0.014593
0.014593
0.014593
0.014593
0.014593
0.014593
0.014593
0.014593
0.014593
0.014593
0.014593
0.014593
0.014593
0.014593
0.014593
0.014593
0.014593
0.014593
0.014593
0.014593
0.014593
0.014593
0.014593
0.014593
0.014593
0.014593
0.014593
0.014593
0.014593
0.014593
0.014593
0.014593
0.014593
0.014593
0.014593
0.014593
0.014593
0.014593
0.014593
0.014593
0.014593
0.014593
0.014593
0.014593
0.014593
0.014593
0.014593
0.014593
0.014593
0.014593
0.014593
0.014593
0.014593
0.014593
0.014593
0.014593
0.014593
0.014593
0.014593
0.014593
0.014593
0.014593
0.014593
0.014593
0.014593
0.014593
0.014593
0.014593
0.014593
0.014593
0.014593
0.014593
0.014593
0.014593
0.014593
0.014593
0.014593
0.014593
0.014593
0.014593
0.014593
0.014593
0.014593
0.014593
0.014593
0.014593
0.014593
0.014593
0.014593
0.014593
0.014593
0.014593
0.014593
0.014593
0.014593
0.014593
0.014593
0.014593
0.014593
0.014593
0.014593
0.014593
0.014593
0.014593
0.014593
0.014593
0.014593
0.014593
0.014593
0.014593
0.014593
0.014593
0.014593
0.014593
0.014593
0.014593
0.014593
0.014593
0.014593
0.014593
0.014593
0.014593
0.014593
0.014593
0.014593
0.014593
0.014593
0.014593
0.014593
0.014593
0.014593
0.014593
0.014593
0.014593
0.014593
0.014593
0.014593
0.014593
0.014593
0.014593
0.014593
0.014593
0.014593
0.014593
0.014593
0.014593
0.014593
0.014593
0.014593
0.014593
0.014593
0.014593
0.014593
0.014593
0.014593
0.014593
0.014593
0.014593
0.014593
0.014593
0.014593
0.014593
0.014593
0.014593
0.014593
0.014593
0.014593
0.014593
0.014593
0.014593
0.014593
0.014593
0.014593
0.014593
0.014593
0.014593
0.014593
0.014593
0.014593
0.014593
0.014593
0.014593
0.014593
0.014593
0.014593
0.014593
0.014593
0.014593
0.014593
0.014593
0.014593
0.014593
0.014593
0.014593
0.014593
0.014593
0.014593
0.014593
0.014593
0.014593
0.014593
0.014593
0.014593
0.014593
0.014593
0.014593
0.014593
0.014593
0.014593
0.014593
0.014593
0.014593
0.014593
0.014593
0.014593
0.014593
0.014593
0.014593
0.014593
0.014593
0.014593
0.014593
0.014593
0.014593
0.014593
0.014593
0.014593
0.014593
0.014593
0.014593
0.014593
0.014593
0.014593
0.014593
0.014593
0.014593
0.014593
0.014593
0.014593
0.014593
0.014593
0.014593
0.014593
0.014593
0.014593
0.014593
0.014593
0.014593
0.014593
0.014593
0.014593
0.014593
0.014593
0.014593
0.014593
0.014593
0.014593
0.014593
0.014593
0.014593
0.014593
0.014593
0.014593
0.014593
0.014593
0.014593
0.014593
0.014593
0.014593
0.014593
0.014593
0.014593
0.014593
0.014593
0.014593
0.014593
0.014593
0.014593
0.014593
0.014593
0.014593
0.014593
0.014593
0.014593
0.014593
0.014593
0.014593
0.014593
0.014593
0.014593
0.014593
0.014593
0.014593
0.014593
0.014593
0.014593
0.014593
0.014593
0.014593
0.014593
0.014593
0.014593
0.014593
0.014593
0.014593
0.014593
0.014593
0.014593
0.014593
0.014593
0.014593
0.014593
0.014593
0.014593
0.014593
0.014593
0.014593
0.014593
0.0145931
0.0145931
0.0145931
0.0145931
0.0145931
0.0145931
0.0145931
0.0145931
0.0145931
0.0145931
0.0145931
0.0145931
0.0145931
0.0145931
0.0145931
0.0145931
0.0145932
0.0145932
0.0145932
0.0145932
0.0145932
0.0145932
0.0145932
0.0145933
0.0145933
0.014593
0.014593
0.014593
0.014593
0.014593
0.014593
0.014593
0.014593
0.014593
0.014593
0.014593
0.014593
0.014593
0.014593
0.014593
0.014593
0.014593
0.014593
0.014593
0.014593
0.014593
0.014593
0.014593
0.014593
0.014593
0.014593
0.014593
0.014593
0.014593
0.014593
0.014593
0.014593
0.014593
0.014593
0.014593
0.014593
0.014593
0.014593
0.014593
0.014593
0.014593
0.014593
0.014593
0.014593
0.014593
0.014593
0.014593
0.014593
0.014593
0.014593
0.014593
0.014593
0.014593
0.014593
0.014593
0.014593
0.014593
0.014593
0.014593
0.014593
0.014593
0.014593
0.014593
0.014593
0.014593
0.014593
0.014593
0.014593
0.014593
0.0145931
0.0145931
0.0145931
0.0145931
0.0145931
0.0145931
0.0145931
0.0145931
0.0145931
0.0145931
0.0145931
0.0145932
0.0145932
0.0145932
0.0145932
0.0145932
0.0145932
0.0145933
0.0145933
0.0145933
0.0145933
0.0145934
0.0145934
0.0145934
0.0145935
0.0145935
0.0145935
0.0145936
0.0145936
0.0145936
0.0145937
0.0145937
0.0145938
0.0145938
0.0145939
0.0145939
0.014594
0.0145941
0.0145942
0.0145943
0.0145944
0.0145946
0.0145947
0.0145948
0.0145949
0.0145951
0.014593
0.014593
0.014593
0.014593
0.014593
0.014593
0.014593
0.014593
0.014593
0.014593
0.014593
0.014593
0.014593
0.014593
0.014593
0.014593
0.014593
0.014593
0.014593
0.014593
0.014593
0.014593
0.014593
0.014593
0.014593
0.014593
0.014593
0.014593
0.014593
0.014593
0.014593
0.014593
0.014593
0.014593
0.014593
0.014593
0.014593
0.014593
0.014593
0.014593
0.014593
0.014593
0.014593
0.014593
0.014593
0.014593
0.014593
0.014593
0.014593
0.014593
0.014593
0.0145931
0.0145931
0.0145931
0.0145931
0.0145931
0.0145931
0.0145931
0.0145931
0.0145931
0.0145931
0.0145932
0.0145932
0.0145932
0.0145932
0.0145932
0.0145933
0.0145933
0.0145933
0.0145933
0.0145934
0.0145934
0.0145935
0.0145935
0.0145936
0.0145937
0.0145937
0.0145938
0.0145939
0.014594
0.0145941
0.0145942
0.0145943
0.0145944
0.0145945
0.0145947
0.0145948
0.014595
0.0145952
0.0145954
0.0145956
0.0145959
0.0145961
0.0145964
0.0145966
0.0145969
0.0145972
0.0145974
0.0145977
0.014598
0.0145983
0.0145986
0.014599
0.0145995
0.0146
0.0146006
0.0146013
0.0146021
0.0146029
0.0146037
0.0146046
0.0146055
0.0146065
0.0146075
0.0146085
0.0146095
0.014593
0.014593
0.014593
0.014593
0.014593
0.014593
0.014593
0.014593
0.014593
0.014593
0.014593
0.014593
0.014593
0.014593
0.014593
0.014593
0.014593
0.014593
0.014593
0.014593
0.014593
0.014593
0.014593
0.014593
0.014593
0.014593
0.014593
0.014593
0.014593
0.014593
0.014593
0.014593
0.014593
0.014593
0.014593
0.014593
0.014593
0.014593
0.014593
0.014593
0.0145931
0.0145931
0.0145931
0.0145931
0.0145931
0.0145931
0.0145931
0.0145931
0.0145931
0.0145931
0.0145931
0.0145932
0.0145932
0.0145932
0.0145932
0.0145933
0.0145933
0.0145933
0.0145933
0.0145934
0.0145934
0.0145935
0.0145935
0.0145936
0.0145937
0.0145937
0.0145938
0.0145939
0.014594
0.0145942
0.0145943
0.0145944
0.0145946
0.0145948
0.014595
0.0145952
0.0145954
0.0145957
0.014596
0.0145964
0.0145968
0.0145973
0.0145977
0.0145983
0.0145988
0.0145994
0.0146
0.0146006
0.0146013
0.014602
0.0146028
0.0146038
0.0146049
0.0146061
0.0146074
0.0146089
0.0146105
0.0146121
0.0146138
0.0146156
0.0146174
0.0146192
0.0146211
0.014623
0.014625
0.014627
0.0146291
0.0146313
0.0146337
0.0146365
0.0146399
0.0146439
0.0146485
0.0146537
0.0146593
0.0146653
0.0146716
0.0146781
0.0146849
0.0146919
0.0146991
0.0147066
0.0147142
0.014593
0.014593
0.014593
0.014593
0.014593
0.014593
0.014593
0.014593
0.014593
0.014593
0.014593
0.014593
0.014593
0.014593
0.014593
0.014593
0.014593
0.014593
0.014593
0.014593
0.014593
0.014593
0.014593
0.0145931
0.0145931
0.0145931
0.0145931
0.0145931
0.0145931
0.0145931
0.0145931
0.0145931
0.0145931
0.0145931
0.0145932
0.0145932
0.0145932
0.0145932
0.0145933
0.0145933
0.0145933
0.0145934
0.0145934
0.0145934
0.0145935
0.0145936
0.0145936
0.0145937
0.0145938
0.0145938
0.0145939
0.0145941
0.0145942
0.0145943
0.0145945
0.0145947
0.0145949
0.0145951
0.0145953
0.0145956
0.0145959
0.0145962
0.0145966
0.014597
0.0145975
0.014598
0.0145987
0.0145994
0.0146001
0.014601
0.0146019
0.0146029
0.014604
0.0146052
0.0146065
0.014608
0.0146097
0.0146118
0.0146141
0.0146167
0.0146196
0.0146227
0.0146261
0.0146297
0.0146336
0.0146375
0.0146417
0.014646
0.0146507
0.0146558
0.0146617
0.0146685
0.0146763
0.0146851
0.0146949
0.0147054
0.0147165
0.0147282
0.0147402
0.0147526
0.0147652
0.014778
0.0147911
0.0148044
0.0148182
0.0148323
0.0148469
0.0148623
0.0148791
0.0148986
0.0149221
0.0149502
0.0149828
0.0150192
0.0150586
0.0151002
0.0151436
0.0151885
0.0152349
0.0152828
0.0153324
0.0153834
0.0154357
0.014593
0.014593
0.014593
0.014593
0.014593
0.014593
0.014593
0.014593
0.0145931
0.0145931
0.0145931
0.0145931
0.0145931
0.0145931
0.0145931
0.0145931
0.0145931
0.0145931
0.0145932
0.0145932
0.0145932
0.0145932
0.0145933
0.0145933
0.0145933
0.0145934
0.0145934
0.0145935
0.0145935
0.0145936
0.0145937
0.0145937
0.0145938
0.0145939
0.014594
0.0145942
0.0145943
0.0145945
0.0145946
0.0145948
0.014595
0.0145953
0.0145956
0.0145959
0.0145962
0.0145966
0.014597
0.0145974
0.0145979
0.0145985
0.0145992
0.0145999
0.0146008
0.0146017
0.0146028
0.014604
0.0146053
0.0146067
0.0146083
0.01461
0.0146119
0.0146141
0.0146166
0.0146195
0.0146228
0.0146266
0.0146309
0.0146357
0.0146409
0.0146466
0.0146528
0.0146594
0.0146666
0.0146745
0.0146835
0.0146939
0.0147059
0.0147199
0.0147359
0.0147538
0.0147736
0.0147951
0.0148181
0.0148425
0.014868
0.0148946
0.0149222
0.014951
0.0149819
0.0150163
0.0150559
0.015102
0.0151549
0.015214
0.0152785
0.0153474
0.0154199
0.0154949
0.0155718
0.0156499
0.0157291
0.0158092
0.0158905
0.0159733
0.016058
0.0161448
0.0162339
0.0163266
0.0164266
0.0165417
0.0166812
0.0168482
0.0170396
0.0172492
0.0174715
0.0177019
0.0179376
0.0181771
0.0184201
0.0186676
0.0189197
0.0191755
0.019433
0.0145931
0.0145931
0.0145931
0.0145932
0.0145932
0.0145932
0.0145932
0.0145933
0.0145933
0.0145933
0.0145934
0.0145934
0.0145935
0.0145936
0.0145936
0.0145937
0.0145938
0.0145939
0.014594
0.0145942
0.0145943
0.0145945
0.0145946
0.0145948
0.0145951
0.0145953
0.0145956
0.014596
0.0145963
0.0145967
0.0145972
0.0145977
0.0145982
0.0145988
0.0145995
0.0146003
0.0146012
0.0146022
0.0146033
0.0146046
0.014606
0.0146076
0.0146093
0.0146112
0.0146134
0.0146157
0.0146183
0.0146212
0.0146245
0.0146283
0.0146326
0.0146375
0.0146431
0.0146493
0.0146563
0.0146639
0.0146723
0.0146815
0.0146915
0.0147025
0.0147149
0.0147292
0.0147458
0.014765
0.014787
0.014812
0.01484
0.014871
0.0149049
0.0149416
0.0149811
0.0150233
0.0150689
0.0151191
0.0151763
0.0152428
0.0153204
0.0154095
0.0155103
0.0156218
0.0157433
0.0158733
0.0160106
0.0161537
0.0163015
0.0164532
0.0166087
0.0167695
0.0169397
0.0171292
0.0173484
0.0176012
0.0178847
0.0181931
0.0185196
0.0188583
0.0192039
0.019552
0.0198992
0.0202434
0.0205838
0.0209211
0.0212569
0.0215926
0.0219294
0.0222677
0.022608
0.0229531
0.023314
0.0237201
0.0242092
0.0247826
0.0254148
0.0260791
0.0267559
0.0274326
0.0281012
0.0287585
0.0294058
0.0300471
0.030684
0.0313141
0.0319322
0.0325326
0.0331092
0.0145936
0.0145937
0.0145938
0.0145939
0.0145941
0.0145942
0.0145944
0.0145946
0.0145948
0.0145951
0.0145953
0.0145957
0.014596
0.0145964
0.0145969
0.0145974
0.0145979
0.0145986
0.0145993
0.0146001
0.014601
0.014602
0.0146031
0.0146043
0.0146058
0.0146074
0.0146092
0.0146112
0.0146135
0.014616
0.0146188
0.0146218
0.0146253
0.0146291
0.0146333
0.0146382
0.0146436
0.0146498
0.0146568
0.0146647
0.0146736
0.0146834
0.0146943
0.0147063
0.0147194
0.0147338
0.0147498
0.014768
0.0147887
0.0148125
0.0148397
0.0148706
0.0149055
0.0149444
0.0149874
0.0150345
0.0150857
0.0151411
0.0152013
0.0152676
0.0153428
0.0154293
0.0155294
0.0156444
0.015775
0.015921
0.0160821
0.0162573
0.0164455
0.0166455
0.0168564
0.0170779
0.0173126
0.0175683
0.0178585
0.0181931
0.018575
0.0190011
0.0194654
0.0199602
0.020478
0.0210111
0.0215523
0.0220957
0.0226368
0.0231738
0.0237075
0.0242426
0.0247937
0.0253978
0.0260858
0.0268503
0.027666
0.0285077
0.0293555
0.0301952
0.0310157
0.0318098
0.0325732
0.0333047
0.0340065
0.0346834
0.0353414
0.035985
0.0366167
0.0372371
0.0378464
0.0384467
0.0390509
0.0397062
0.0405326
0.0414968
0.0425125
0.0435271
0.044514
0.0454592
0.0463565
0.0472055
0.048012
0.048785
0.0495281
0.0502369
0.050905
0.0515285
0.0521029
0.0145967
0.0145973
0.0145979
0.0145986
0.0145994
0.0146004
0.0146014
0.0146026
0.0146039
0.0146054
0.014607
0.0146089
0.0146111
0.0146135
0.0146162
0.0146193
0.0146227
0.0146265
0.0146308
0.0146356
0.0146409
0.0146468
0.0146536
0.0146611
0.0146697
0.0146794
0.0146902
0.0147024
0.014716
0.014731
0.0147476
0.014766
0.0147863
0.0148089
0.0148344
0.0148634
0.0148962
0.0149335
0.0149755
0.0150226
0.015075
0.0151329
0.0151963
0.0152653
0.0153404
0.0154227
0.0155142
0.0156176
0.0157355
0.0158697
0.0160215
0.0161914
0.0163795
0.0165857
0.016809
0.0170484
0.0173028
0.0175721
0.0178584
0.0181693
0.0185175
0.0189132
0.0193605
0.0198584
0.0204023
0.0209862
0.0216031
0.0222457
0.0229064
0.0235789
0.0242587
0.0249451
0.0256462
0.0263872
0.027212
0.0281316
0.0291298
0.0301814
0.0312624
0.032352
0.0334333
0.0344923
0.0355178
0.036503
0.0374453
0.0383471
0.0392147
0.0400585
0.0408982
0.0418234
0.04291
0.0440775
0.0452526
0.0463936
0.0474799
0.0485009
0.049451
0.0503288
0.0511366
0.0518793
0.0525643
0.0532013
0.0537987
0.0543611
0.0548903
0.0553862
0.0558471
0.0562708
0.0566601
0.0570156
0.0573251
0.0575957
0.0578388
0.0580596
0.0582595
0.0584378
0.0585931
0.0587273
0.0588466
0.0589606
0.0590735
0.0591802
0.059275
0.0593572
0.0594259
0.0146122
0.014615
0.0146183
0.014622
0.0146262
0.014631
0.0146363
0.0146424
0.0146492
0.0146569
0.0146655
0.0146753
0.0146864
0.0146989
0.014713
0.0147289
0.0147467
0.0147666
0.0147887
0.0148133
0.0148406
0.0148711
0.0149054
0.014944
0.0149875
0.0150366
0.0150918
0.0151535
0.0152222
0.0152982
0.0153816
0.0154729
0.0155726
0.0156822
0.0158039
0.0159405
0.0160941
0.0162666
0.0164593
0.0166728
0.0169073
0.0171627
0.0174382
0.0177326
0.0180451
0.0183764
0.0187311
0.0191194
0.0195513
0.0200321
0.0205631
0.021142
0.0217645
0.0224252
0.0231176
0.0238347
0.0245695
0.0253167
0.0260743
0.0268493
0.0276642
0.0285553
0.0295324
0.0305839
0.0316906
0.0328331
0.0339936
0.0351561
0.0363063
0.0374326
0.0385274
0.0395878
0.0406173
0.0416294
0.042667
0.0438664
0.0451853
0.0465462
0.0478941
0.0491951
0.0504282
0.0515817
0.0526487
0.0536257
0.054514
0.0553193
0.0560519
0.0567235
0.0573385
0.0578991
0.0584001
0.0588324
0.0592039
0.0595235
0.059799
0.0600357
0.0602362
0.060404
0.060542
0.0606539
0.0607447
0.0608218
0.0608927
0.0609605
0.0610264
0.0610891
0.061144
0.061188
0.0612213
0.0612467
0.0612681
0.0612869
0.061303
0.0613162
0.0613218
0.0613206
0.0613169
0.0613088
0.0612953
0.0612772
0.061254
0.0612251
0.0611911
0.0611551
0.0611179
0.0610803
0.0147035
0.0147198
0.0147384
0.0147595
0.0147834
0.0148103
0.0148405
0.0148744
0.0149123
0.014955
0.015003
0.0150572
0.0151182
0.0151868
0.0152638
0.0153498
0.0154454
0.0155511
0.0156673
0.0157949
0.0159352
0.0160903
0.0162628
0.0164549
0.0166685
0.016905
0.0171653
0.01745
0.017759
0.0180917
0.018447
0.0188244
0.0192249
0.0196544
0.0201214
0.0206329
0.0211921
0.0217987
0.0224504
0.0231433
0.0238721
0.0246309
0.0254127
0.026211
0.0270212
0.0278447
0.0286947
0.0296006
0.0305756
0.0316142
0.0327039
0.0338303
0.0349796
0.0361386
0.0372944
0.0384355
0.0395524
0.0406393
0.0416985
0.042742
0.0438099
0.0450156
0.0463184
0.04766
0.0489952
0.0502943
0.0515383
0.0527132
0.0538098
0.0548231
0.0557529
0.0566051
0.0573879
0.0581068
0.0587678
0.0593582
0.0598812
0.0603426
0.0607481
0.061102
0.0614079
0.0616692
0.0618876
0.0620649
0.0622087
0.0623283
0.0624316
0.0625277
0.0626165
0.0626956
0.0627659
0.0628261
0.0628741
0.0629112
0.0629391
0.0629585
0.0629611
0.0629563
0.0629429
0.0629188
0.0628868
0.0628478
0.0628018
0.0627515
0.0627016
0.0626535
0.0626065
0.0625583
0.0625122
0.0624687
0.0624265
0.0623854
0.0623489
0.0623172
0.0622871
0.0622577
0.0622288
0.0621989
0.0621667
0.0621326
0.062095
0.0620546
0.0620078
0.0619575
0.0619079
0.0618595
0.0618075
0.061749
0.0152014
0.0152883
0.0153865
0.0154967
0.01562
0.0157573
0.0159093
0.0160772
0.0162628
0.0164683
0.016696
0.0169482
0.0172267
0.0175327
0.0178671
0.0182303
0.018622
0.0190416
0.0194881
0.019962
0.0204675
0.0210109
0.0215974
0.0222294
0.0229068
0.0236275
0.024388
0.0251839
0.0260094
0.0268583
0.027724
0.0286023
0.0294965
0.0304226
0.0313986
0.0324273
0.0335012
0.0346102
0.0357434
0.0368902
0.0380403
0.0391833
0.0403092
0.04141
0.0424821
0.043531
0.0445779
0.0457156
0.0469391
0.0482028
0.0494695
0.0507131
0.0519154
0.053063
0.0541455
0.0551556
0.0560893
0.0569488
0.0577417
0.0584743
0.0591495
0.059758
0.0603076
0.0608014
0.061242
0.0616338
0.0619806
0.0622835
0.0625431
0.0627597
0.0629408
0.0631015
0.0632465
0.0633797
0.0635078
0.0636295
0.063743
0.0638463
0.0639396
0.0640221
0.064091
0.0641455
0.0641867
0.0642113
0.0642128
0.064206
0.0641897
0.0641657
0.0641334
0.064099
0.0640646
0.0640311
0.0639976
0.0639649
0.0639336
0.0639031
0.0638716
0.0638393
0.0638048
0.063766
0.0637239
0.0636773
0.0636249
0.0635666
0.0635068
0.0634481
0.0633864
0.0633247
0.0632668
0.0632138
0.0631609
0.0631085
0.0630606
0.0630177
0.0629784
0.0629415
0.0629058
0.0628688
0.0628298
0.0627874
0.0627409
0.0626906
0.0626354
0.0625769
0.0625197
0.0624639
0.0624053
0.0623422
0.0175493
0.0179184
0.0183223
0.0187613
0.0192354
0.0197438
0.0202858
0.0208619
0.0214756
0.0221313
0.0228318
0.0235776
0.0243673
0.0251981
0.026066
0.0269659
0.0278921
0.0288383
0.029799
0.0307748
0.0317762
0.0328154
0.0338928
0.035002
0.0361351
0.0372838
0.03844
0.0395957
0.0407426
0.0418723
0.0429772
0.0440542
0.0451104
0.0461893
0.0473406
0.0485371
0.0497477
0.0509473
0.0521172
0.0532438
0.054317
0.0553285
0.0562718
0.0571434
0.0579472
0.0586883
0.0593725
0.0599942
0.0605578
0.0610681
0.0615287
0.0619431
0.0623141
0.0626427
0.0629295
0.0631746
0.0633802
0.0635563
0.063718
0.0638735
0.0640189
0.0641556
0.064291
0.0644202
0.0645378
0.0646437
0.0647422
0.0648306
0.0649041
0.06496
0.0649998
0.0650247
0.0650336
0.0650382
0.0650402
0.06504
0.065041
0.0650436
0.0650489
0.0650565
0.0650648
0.0650725
0.06508
0.065082
0.065078
0.0650656
0.0650437
0.065013
0.0649719
0.0649234
0.064873
0.0648223
0.0647718
0.0647222
0.0646739
0.0646273
0.0645829
0.0645403
0.0644966
0.0644503
0.0644009
0.0643471
0.064287
0.0642193
0.0641511
0.0640827
0.0640108
0.0639378
0.0638702
0.0638083
0.0637468
0.0636861
0.0636293
0.0635767
0.0635281
0.0634827
0.0634393
0.0633974
0.0633564
0.0633149
0.0632727
0.0632285
0.0631803
0.0631298
0.0630802
0.0630296
0.062975
0.0629186
0.0251002
0.0260384
0.0270161
0.0280279
0.0290677
0.0301291
0.0312066
0.0323004
0.0334191
0.0345672
0.0357404
0.0369311
0.0381317
0.0393353
0.040535
0.0417244
0.0428972
0.0440465
0.0451673
0.0462625
0.0473678
0.0485194
0.0496974
0.0508786
0.0520437
0.0531778
0.0542693
0.0553094
0.0562913
0.0572086
0.0580574
0.0588391
0.0595579
0.0602156
0.0608109
0.0613513
0.0618423
0.0622872
0.062688
0.0630464
0.0633645
0.0636428
0.0638789
0.0640764
0.0642499
0.0644096
0.0645593
0.0647034
0.0648428
0.0649752
0.0650989
0.0652153
0.0653243
0.0654235
0.065511
0.0655835
0.0656369
0.0656727
0.0656982
0.0657144
0.0657242
0.0657363
0.0657538
0.0657703
0.0657875
0.0658104
0.0658396
0.0658696
0.0659007
0.0659325
0.0659646
0.0659856
0.0659861
0.065982
0.0659713
0.0659539
0.0659348
0.0659144
0.0658953
0.065879
0.0658654
0.0658546
0.065846
0.0658372
0.0658252
0.0658063
0.0657783
0.06574
0.0656915