/*--------------------------------*- C++ -*----------------------------------*\
| =========                 |                                                 |
| \\      /  F ield         | OpenFOAM: The Open Source CFD Toolbox           |
|  \\    /   O peration     | Version:  v1706                                 |
|   \\  /    A nd           | Web:      www.OpenFOAM.com                      |
|    \\/     M anipulation  |                                                 |
\*---------------------------------------------------------------------------*/
FoamFile
{
    version     2.0;
    format      ascii;
    class       volScalarField;
    location    "1.6e-05";
    object      Mach;
}
// * * * * * * * * * * * * * * * * * * * * * * * * * * * * * * * * * * * * * //

dimensions      [0 0 0 0 0 0 0];


internalField   nonuniform List<scalar> 
29871
(
11.2859
11.2859
11.2859
11.2859
11.2859
11.2859
11.2859
11.2859
11.2859
11.2859
11.2859
11.2859
11.2859
11.2859
11.2859
11.2859
11.2859
11.2859
11.2859
11.2859
11.2859
11.2859
11.2859
11.2859
11.2859
11.2859
11.2859
11.2859
11.2859
11.2859
11.2859
11.2859
11.2859
11.2859
11.2859
11.2859
11.2859
11.2859
11.2859
11.2859
11.2859
11.2859
11.2859
11.2859
11.2859
11.2859
11.2859
11.2859
11.2859
11.2859
11.2859
11.2859
11.2859
11.2859
11.2859
11.2859
11.2859
11.2859
11.2859
11.2859
11.2859
11.2859
11.2859
11.2859
11.2859
11.2859
11.2859
11.2859
11.2859
11.2859
11.2859
11.2859
11.2859
11.2859
11.2859
11.2859
11.2859
11.2859
11.2859
11.2859
11.2859
11.2859
11.2859
11.2859
11.2859
11.2859
11.2859
11.2859
11.2859
11.2859
11.2859
11.2859
11.2859
11.2859
11.2859
11.2859
11.2859
11.2859
11.2859
11.2859
11.2859
11.2859
11.2859
11.2859
11.2859
11.2859
11.2859
11.2859
11.2859
11.2859
11.2859
11.2859
11.2859
11.2859
11.2859
11.2859
11.2859
11.2859
11.2859
11.2859
11.2859
11.2859
11.2859
11.2859
11.2859
11.2859
11.2859
11.2859
11.2859
11.2859
11.2859
11.2859
11.2859
11.2859
11.2859
11.2859
11.2859
11.2859
11.2859
11.2859
11.2859
11.2859
11.2859
11.2859
11.2859
11.2859
11.2859
11.2859
11.2859
11.2859
11.2859
11.2859
11.2859
11.2859
11.2859
11.2859
11.2859
11.2859
11.2859
11.2859
11.2859
11.2859
11.2859
11.2859
11.2859
11.2859
11.2859
11.2859
11.2859
11.2859
11.2859
11.2859
11.2859
11.2859
11.2859
11.2859
11.2859
11.2859
11.2859
11.2859
11.2859
11.2859
11.2859
11.2859
11.2859
11.2859
11.2859
11.2859
11.2859
11.2859
11.2859
11.2859
11.2859
11.2859
11.2859
11.2859
11.2859
11.2859
11.2859
11.2859
11.2859
11.2859
11.2859
11.2859
11.2859
11.2859
11.2859
11.2859
11.2859
11.2859
11.2859
11.2859
11.2859
11.2859
11.2859
11.2859
11.2859
11.2859
11.2859
11.2859
11.2859
11.2859
11.2859
11.2859
11.2859
11.2859
11.2859
11.2859
11.2859
11.2859
11.2859
11.2859
11.2859
11.2859
11.2859
11.2859
11.2859
11.2859
11.2859
11.2859
11.2859
11.2859
11.2859
11.2859
11.2859
11.2859
11.2859
11.2859
11.2859
11.2859
11.2859
11.2859
11.2859
11.2859
11.2859
11.2859
11.2859
11.2859
11.2859
11.2859
11.2859
11.2859
11.2859
11.2859
11.2859
11.2859
11.2859
11.2859
11.2859
11.2859
11.2859
11.2859
11.2859
11.2859
11.2859
11.2859
11.2859
11.2859
11.2859
11.2859
11.2859
11.2859
11.2859
11.2859
11.2859
11.2859
11.2859
11.2859
11.2859
11.2859
11.2859
11.2859
11.2859
11.2859
11.2859
11.2859
11.2859
11.2859
11.2859
11.2859
11.2859
11.2859
11.2859
11.2859
11.2859
11.2859
11.2859
11.2859
11.2859
11.2859
11.2859
11.2859
11.2859
11.2859
11.2859
11.2859
11.2859
11.2859
11.2859
11.2859
11.2859
11.2859
11.2859
11.2859
11.2859
11.2859
11.2859
11.2859
11.2859
11.2859
11.2859
11.2859
11.2859
11.2859
11.2859
11.2859
11.2859
11.2859
11.2859
11.2859
11.2859
11.2859
11.2859
11.2859
11.2859
11.2859
11.2859
11.2859
11.2859
11.2859
11.2859
11.2859
11.2859
11.2859
11.2859
11.2859
11.2859
11.2859
11.2859
11.2859
11.2859
11.2859
11.2859
11.2859
11.2859
11.2859
11.2859
11.2859
11.2859
11.2859
11.2859
11.2859
11.2859
11.2859
11.2859
11.2859
11.2859
11.2859
11.2859
11.2859
11.2859
11.2859
11.2859
11.2859
11.2859
11.2859
11.2859
11.2859
11.2859
11.2859
11.2859
11.2859
11.2859
11.2859
11.2859
11.2859
11.2859
11.2859
11.2859
11.2859
11.2859
11.2859
11.2859
11.2859
11.2859
11.2859
11.2859
11.2859
11.2859
11.2859
11.2859
11.2859
11.2859
11.2859
11.2859
11.2859
11.2859
11.2859
11.2859
11.2859
11.2859
11.2859
11.2859
11.2859
11.2859
11.2859
11.2859
11.2859
11.2859
11.2859
11.2859
11.2859
11.2859
11.2859
11.2859
11.2859
11.2859
11.2859
11.2859
11.2859
11.2859
11.2859
11.2859
11.2859
11.2859
11.2859
11.2859
11.2859
11.2859
11.2859
11.2859
11.2859
11.2859
11.2859
11.2859
11.2859
11.2859
11.2859
11.2859
11.2859
11.2859
11.2859
11.2859
11.2859
11.2859
11.2859
11.2859
11.2859
11.2859
11.2859
11.2859
11.2859
11.2859
11.2859
11.2859
11.2859
11.2859
11.2859
11.2859
11.2859
11.2859
11.2859
11.2859
11.2859
11.2859
11.2859
11.2859
11.2859
11.2859
11.2859
11.2859
11.2859
11.2859
11.2859
11.2859
11.2859
11.2859
11.2859
11.2859
11.2859
11.2859
11.2859
11.2859
11.2859
11.2859
11.2859
11.2859
11.2859
11.2859
11.2859
11.2859
11.2859
11.2859
11.2859
11.2859
11.2859
11.2859
11.2859
11.2859
11.2859
11.2859
11.2859
11.2859
11.2859
11.2859
11.2859
11.2859
11.2859
11.2859
11.2859
11.2859
11.2859
11.2859
11.2859
11.2859
11.2859
11.2859
11.2859
11.2859
11.2859
11.2859
11.2859
11.2859
11.2859
11.2859
11.2859
11.2859
11.2859
11.2859
11.2859
11.2859
11.2859
11.2859
11.2859
11.2859
11.2859
11.2859
11.2859
11.2859
11.2859
11.2859
11.2859
11.2859
11.2859
11.2859
11.2859
11.2859
11.2859
11.2859
11.2859
11.2859
11.2859
11.2859
11.2859
11.2859
11.2859
11.2859
11.2859
11.2859
11.2859
11.2859
11.2859
11.2859
11.2859
11.2859
11.2859
11.2859
11.2859
11.2859
11.2859
11.2859
11.2859
11.2859
11.2859
11.2859
11.2859
11.2859
11.2859
11.2859
11.2859
11.2859
11.2859
11.2859
11.2859
11.2859
11.2859
11.2859
11.2859
11.2859
11.2859
11.2859
11.2859
11.2859
11.2859
11.2859
11.2859
11.2859
11.2859
11.2859
11.2859
11.2859
11.2859
11.2859
11.2859
11.2859
11.2859
11.2859
11.2859
11.2859
11.2859
11.2859
11.2859
11.2859
11.2859
11.2859
11.2859
11.2859
11.2859
11.2859
11.2859
11.2859
11.2859
11.2859
11.2859
11.2859
11.2859
11.2859
11.2859
11.2859
11.2859
11.2859
11.2859
11.2859
11.2859
11.2859
11.2859
11.2859
11.2859
11.2859
11.2859
11.2859
11.2859
11.2859
11.2859
11.2859
11.2859
11.2859
11.2859
11.2859
11.2859
11.2859
11.2859
11.2859
11.2859
11.2859
11.2859
11.2859
11.2859
11.2859
11.2859
11.2859
11.2859
11.2859
11.2859
11.2859
11.2859
11.2859
11.2859
11.2859
11.2859
11.2859
11.2859
11.2859
11.2859
11.2859
11.2859
11.2859
11.2859
11.2859
11.2859
11.2859
11.2859
11.2859
11.2859
11.2859
11.2859
11.2859
11.2859
11.2859
11.2859
11.2859
11.2859
11.2859
11.2859
11.2859
11.2859
11.2859
11.2859
11.2859
11.2859
11.2859
11.2859
11.2859
11.2859
11.2859
11.2859
11.2859
11.2859
11.2859
11.2859
11.2859
11.2859
11.2859
11.2859
11.2859
11.2859
11.2859
11.2859
11.2859
11.2859
11.2859
11.2859
11.2859
11.2859
11.2859
11.2859
11.2859
11.2859
11.2859
11.2859
11.2859
11.2859
11.2859
11.2859
11.2859
11.2859
11.2859
11.2859
11.2859
11.2859
11.2859
11.2859
11.2859
11.2859
11.2859
11.2859
11.2859
11.2859
11.2859
11.2859
11.2859
11.2859
11.2859
11.2859
11.2859
11.2859
11.2859
11.2859
11.2859
11.2859
11.2859
11.2859
11.2859
11.2859
11.2859
11.2859
11.2859
11.2859
11.2859
11.2859
11.2859
11.2859
11.2859
11.2859
11.2859
11.2859
11.2859
11.2859
11.2859
11.2859
11.2859
11.2859
11.2859
11.2859
11.2859
11.2859
11.2859
11.2859
11.2859
11.2859
11.2859
11.2859
11.2859
11.2859
11.2859
11.2859
11.2859
11.2859
11.2859
11.2859
11.2859
11.2859
11.2859
11.2859
11.2859
11.2859
11.2859
11.2859
11.2859
11.2859
11.2859
11.2859
11.2859
11.2859
11.2859
11.2859
11.2859
11.2859
11.2859
11.2859
11.2859
11.2859
11.2859
11.2859
11.2859
11.2859
11.2859
11.2859
11.2859
11.2859
11.2859
11.2859
11.2859
11.2859
11.2859
11.2859
11.2859
11.2859
11.2859
11.2859
11.2859
11.2859
11.2859
11.2859
11.2859
11.2859
11.2859
11.2859
11.2859
11.2859
11.2859
11.2859
11.2859
11.2859
11.2859
11.2859
11.2859
11.2859
11.2859
11.2859
11.2859
11.2859
11.2859
11.2859
11.2859
11.2859
11.2859
11.2859
11.2859
11.2859
11.2859
11.2859
11.2859
11.2859
11.2859
11.2859
11.2859
11.2859
11.2859
11.2859
11.2859
11.2859
11.2859
11.2859
11.2859
11.2859
11.2859
11.2859
11.2859
11.2859
11.2859
11.2859
11.2859
11.2859
11.2859
11.2859
11.2859
11.2859
11.2859
11.2859
11.2859
11.2859
11.2859
11.2859
11.2859
11.2859
11.2859
11.2859
11.2859
11.2859
11.2859
11.2859
11.2859
11.2859
11.2859
11.2859
11.2859
11.2859
11.2859
11.2859
11.2859
11.2859
11.2859
11.2859
11.2859
11.2859
11.2859
11.2859
11.2859
11.2859
11.2859
11.2859
11.2859
11.2859
11.2859
11.2859
11.2859
11.2859
11.2859
11.2859
11.2859
11.2859
11.2859
11.2859
11.2859
11.2859
11.2859
11.2859
11.2859
11.2859
11.2859
11.2859
11.2859
11.2859
11.2859
11.2859
11.2859
11.2859
11.2859
11.2859
11.2859
11.2859
11.2859
11.2859
11.2859
11.2859
11.2859
11.2859
11.2859
11.2859
11.2859
11.2859
11.2859
11.2859
11.2859
11.2859
11.2859
11.2859
11.2859
11.2859
11.2859
11.2859
11.2859
11.2859
11.2859
11.2859
11.2859
11.2859
11.2859
11.2859
11.2859
11.2859
11.2859
11.2859
11.2859
11.2859
11.2859
11.2859
11.2859
11.2859
11.2859
11.2859
11.2859
11.2859
11.2859
11.2859
11.2859
11.2859
11.2859
11.2859
11.2859
11.2859
11.2859
11.2859
11.2859
11.2859
11.2859
11.2859
11.2859
11.2859
11.2859
11.2859
11.2859
11.2859
11.2859
11.2859
11.2859
11.2859
11.2859
11.2859
11.2859
11.2859
11.2859
11.2859
11.2859
11.2859
11.2859
11.2859
11.2859
11.2859
11.2859
11.2859
11.2859
11.2859
11.2859
11.2859
11.2859
11.2859
11.2859
11.2859
11.2859
11.2859
11.2859
11.2859
11.2859
11.2859
11.2859
11.2859
11.2859
11.2859
11.2859
11.2859
11.2859
11.2859
11.2859
11.2859
11.2859
11.2859
11.2859
11.2859
11.2859
11.2859
11.2859
11.2859
11.2859
11.2859
11.2859
11.2859
11.2859
11.2859
11.2859
11.2859
11.2859
11.2859
11.2859
11.2859
11.2859
11.2859
11.2859
11.2859
11.2859
11.2859
11.2859
11.2859
11.2859
11.2859
11.2859
11.2859
11.2859
11.2859
11.2859
11.2859
11.2859
11.2859
11.2859
11.2859
11.2859
11.2859
11.2859
11.2859
11.2859
11.2859
11.2859
11.2859
11.2859
11.2859
11.2859
11.2859
11.2859
11.2859
11.2859
11.2859
11.2859
11.2859
11.2859
11.2859
11.2859
11.2859
11.2859
11.2859
11.2859
11.2859
11.2859
11.2859
11.2859
11.2859
11.2859
11.2859
11.2859
11.2859
11.2859
11.2859
11.2859
11.2859
11.2859
11.2859
11.2859
11.2859
11.2859
11.2859
11.2859
11.2859
11.2859
11.2859
11.2859
11.2859
11.2859
11.2859
11.2859
11.2859
11.2859
11.2859
11.2859
11.2859
11.2859
11.2859
11.2859
11.2859
11.2859
11.2859
11.2859
11.2859
11.2859
11.2859
11.2859
11.2859
11.2859
11.2859
11.2859
11.2859
11.2859
11.2859
11.2859
11.2859
11.2859
11.2859
11.2859
11.2859
11.2859
11.2859
11.2859
11.2859
11.2859
11.2859
11.2859
11.2859
11.2859
11.2859
11.2859
11.2859
11.2859
11.2859
11.2859
11.2859
11.2859
11.2859
11.2859
11.2859
11.2859
11.2859
11.2859
11.2859
11.2859
11.2859
11.2859
11.2859
11.2859
11.2859
11.2859
11.2859
11.2859
11.2859
11.2859
11.2859
11.2859
11.2859
11.2859
11.2859
11.2859
11.2859
11.2859
11.2859
11.2859
11.2859
11.2859
11.2859
11.2859
11.2859
11.2859
11.2859
11.2859
11.2859
11.2859
11.2859
11.2859
11.2859
11.2859
11.2859
11.2859
11.2859
11.2859
11.2859
11.2859
11.2859
11.2859
11.2859
11.2859
11.2859
11.2859
11.2859
11.2859
11.2859
11.2859
11.2859
11.2859
11.2859
11.2859
11.2859
11.2859
11.2859
11.2859
11.2859
11.2859
11.2859
11.2859
11.2859
11.2859
11.2859
11.2859
11.2859
11.2859
11.2859
11.2859
11.2859
11.2859
11.2859
11.2859
11.2859
11.2859
11.2859
11.2859
11.2859
11.2859
11.2859
11.2859
11.2859
11.2859
11.2859
11.2859
11.2859
11.2859
11.2859
11.2859
11.2859
11.2859
11.2859
11.2859
11.2859
11.2859
11.2859
11.2859
11.2859
11.2859
11.2859
11.2859
11.2859
11.2859
11.2859
11.2859
11.2859
11.2859
11.2859
11.2859
11.2859
11.2859
11.2859
11.2859
11.2859
11.2859
11.2859
11.2859
11.2859
11.2859
11.2859
11.2859
11.2859
11.2859
11.2859
11.2859
11.2859
11.2859
11.2859
11.2859
11.2859
11.2859
11.2859
11.2859
11.2859
11.2859
11.2859
11.2859
11.2859
11.2859
11.2859
11.2859
11.2859
11.2859
11.2859
11.2859
11.2859
11.2859
11.2859
11.2859
11.2859
11.2859
11.2859
11.2859
11.2859
11.2859
11.2859
11.2859
11.2859
11.2859
11.2859
11.2859
11.2859
11.2859
11.2859
11.2859
11.2858
11.2858
11.2858
11.2858
11.2858
11.2858
11.2858
11.2858
11.2858
11.2858
11.2858
11.2859
11.2859
11.2859
11.2859
11.2859
11.2859
11.2859
11.2859
11.2859
11.2859
11.2859
11.2859
11.2859
11.2859
11.2859
11.2859
11.2859
11.2859
11.2859
11.2859
11.2859
11.2859
11.2859
11.2859
11.2859
11.2859
11.2859
11.2859
11.2859
11.2859
11.2859
11.2859
11.2859
11.2859
11.2859
11.2859
11.2859
11.2859
11.2859
11.2859
11.2859
11.2859
11.2859
11.2859
11.2859
11.2859
11.2859
11.2859
11.2859
11.2859
11.2859
11.2859
11.2859
11.2859
11.2859
11.2859
11.2859
11.2859
11.2859
11.2859
11.2859
11.2859
11.2859
11.2859
11.2859
11.2859
11.2859
11.2859
11.2859
11.2859
11.2859
11.2859
11.2859
11.2859
11.2859
11.2859
11.2858
11.2858
11.2858
11.2858
11.2858
11.2858
11.2858
11.2858
11.2858
11.2858
11.2858
11.2858
11.2858
11.2858
11.2858
11.2858
11.2858
11.2858
11.2858
11.2858
11.2858
11.2858
11.2858
11.2858
11.2858
11.2858
11.2858
11.2858
11.2858
11.2858
11.2858
11.2858
11.2857
11.2857
11.2857
11.2857
11.2857
11.2859
11.2859
11.2859
11.2859
11.2859
11.2859
11.2859
11.2859
11.2859
11.2859
11.2859
11.2859
11.2859
11.2859
11.2859
11.2859
11.2859
11.2859
11.2859
11.2859
11.2859
11.2859
11.2859
11.2859
11.2859
11.2859
11.2859
11.2859
11.2859
11.2859
11.2859
11.2859
11.2859
11.2859
11.2859
11.2859
11.2859
11.2859
11.2859
11.2859
11.2859
11.2859
11.2859
11.2859
11.2859
11.2859
11.2859
11.2859
11.2859
11.2859
11.2859
11.2859
11.2859
11.2859
11.2859
11.2859
11.2859
11.2859
11.2859
11.2858
11.2858
11.2858
11.2858
11.2858
11.2858
11.2858
11.2858
11.2858
11.2858
11.2858
11.2858
11.2858
11.2858
11.2858
11.2858
11.2858
11.2858
11.2858
11.2858
11.2858
11.2858
11.2858
11.2858
11.2858
11.2857
11.2857
11.2857
11.2857
11.2857
11.2857
11.2857
11.2856
11.2856
11.2856
11.2856
11.2856
11.2855
11.2855
11.2855
11.2855
11.2855
11.2854
11.2854
11.2854
11.2853
11.2853
11.2852
11.2852
11.2851
11.2851
11.285
11.2849
11.2849
11.2848
11.2847
11.2859
11.2859
11.2859
11.2859
11.2859
11.2859
11.2859
11.2859
11.2859
11.2859
11.2859
11.2859
11.2859
11.2859
11.2859
11.2859
11.2859
11.2859
11.2859
11.2859
11.2859
11.2859
11.2859
11.2859
11.2859
11.2859
11.2859
11.2859
11.2859
11.2859
11.2859
11.2859
11.2859
11.2859
11.2859
11.2859
11.2859
11.2859
11.2859
11.2859
11.2859
11.2858
11.2858
11.2858
11.2858
11.2858
11.2858
11.2858
11.2858
11.2858
11.2858
11.2858
11.2858
11.2858
11.2858
11.2858
11.2858
11.2858
11.2858
11.2858
11.2858
11.2858
11.2858
11.2858
11.2857
11.2857
11.2857
11.2857
11.2857
11.2857
11.2856
11.2856
11.2856
11.2856
11.2855
11.2855
11.2854
11.2854
11.2854
11.2853
11.2853
11.2852
11.2852
11.2851
11.285
11.2849
11.2848
11.2847
11.2846
11.2845
11.2844
11.2843
11.2841
11.284
11.2839
11.2837
11.2836
11.2834
11.2833
11.2831
11.2829
11.2827
11.2825
11.2823
11.282
11.2816
11.2812
11.2808
11.2804
11.2799
11.2794
11.2789
11.2784
11.2778
11.2773
11.2767
11.2859
11.2859
11.2859
11.2859
11.2859
11.2859
11.2859
11.2859
11.2859
11.2859
11.2859
11.2859
11.2859
11.2859
11.2859
11.2859
11.2859
11.2859
11.2859
11.2859
11.2859
11.2859
11.2859
11.2859
11.2859
11.2859
11.2859
11.2859
11.2859
11.2859
11.2858
11.2858
11.2858
11.2858
11.2858
11.2858
11.2858
11.2858
11.2858
11.2858
11.2858
11.2858
11.2858
11.2858
11.2858
11.2858
11.2858
11.2858
11.2858
11.2858
11.2858
11.2858
11.2858
11.2857
11.2857
11.2857
11.2857
11.2857
11.2857
11.2856
11.2856
11.2856
11.2856
11.2855
11.2855
11.2855
11.2854
11.2853
11.2853
11.2852
11.2851
11.2851
11.285
11.2849
11.2848
11.2847
11.2845
11.2844
11.2842
11.284
11.2837
11.2835
11.2832
11.2829
11.2826
11.2823
11.282
11.2817
11.2813
11.2809
11.2804
11.2799
11.2793
11.2786
11.2779
11.277
11.2762
11.2753
11.2743
11.2733
11.2723
11.2713
11.2703
11.2693
11.2682
11.2671
11.2659
11.2647
11.2634
11.2618
11.26
11.2578
11.2552
11.2524
11.2494
11.2461
11.2427
11.2392
11.2355
11.2317
11.2278
11.2238
11.2197
11.2859
11.2859
11.2859
11.2859
11.2859
11.2859
11.2859
11.2859
11.2859
11.2859
11.2859
11.2859
11.2859
11.2859
11.2858
11.2858
11.2858
11.2858
11.2858
11.2858
11.2858
11.2858
11.2858
11.2858
11.2858
11.2858
11.2858
11.2858
11.2858
11.2858
11.2858
11.2858
11.2858
11.2858
11.2858
11.2858
11.2857
11.2857
11.2857
11.2857
11.2857
11.2857
11.2856
11.2856
11.2856
11.2856
11.2855
11.2855
11.2854
11.2854
11.2853
11.2853
11.2852
11.2851
11.285
11.2849
11.2848
11.2847
11.2846
11.2844
11.2843
11.2841
11.2839
11.2837
11.2834
11.2831
11.2827
11.2823
11.2819
11.2814
11.2809
11.2804
11.2798
11.2792
11.2784
11.2776
11.2766
11.2755
11.2742
11.2728
11.2712
11.2694
11.2676
11.2656
11.2635
11.2613
11.259
11.2566
11.2541
11.2512
11.248
11.2443
11.24
11.2353
11.23
11.2243
11.2183
11.2121
11.2056
11.199
11.1922
11.1853
11.1783
11.1712
11.1638
11.1563
11.1484
11.1402
11.1312
11.1208
11.1082
11.0931
11.0757
11.0564
11.0357
11.0139
10.9913
10.9682
10.9444
10.9199
10.8947
10.8689
10.8426
11.2858
11.2858
11.2858
11.2858
11.2858
11.2858
11.2858
11.2858
11.2858
11.2858
11.2858
11.2858
11.2858
11.2858
11.2858
11.2858
11.2858
11.2858
11.2858
11.2858
11.2857
11.2857
11.2857
11.2857
11.2857
11.2857
11.2856
11.2856
11.2856
11.2855
11.2855
11.2854
11.2854
11.2853
11.2853
11.2852
11.2851
11.2851
11.285
11.2849
11.2847
11.2846
11.2844
11.2843
11.2841
11.2839
11.2837
11.2834
11.2831
11.2828
11.2824
11.282
11.2816
11.281
11.2804
11.2798
11.2791
11.2783
11.2774
11.2765
11.2755
11.2742
11.2729
11.2713
11.2694
11.2673
11.265
11.2623
11.2595
11.2563
11.2529
11.2493
11.2454
11.241
11.2361
11.2305
11.2239
11.2163
11.2077
11.1981
11.1875
11.176
11.1637
11.1508
11.1372
11.1232
11.1086
11.0934
11.0772
11.0591
11.0383
11.0141
10.9865
10.9559
10.9227
10.8876
10.8511
10.8136
10.7756
10.7372
10.6987
10.6601
10.6212
10.5818
10.542
10.5016
10.4604
10.4179
10.3724
10.3205
10.2584
10.1854
10.1037
10.0163
9.92567
9.83374
9.74169
9.65011
9.55902
9.46813
9.37737
9.28713
9.19815
11.2858
11.2858
11.2858
11.2858
11.2858
11.2857
11.2857
11.2857
11.2857
11.2857
11.2856
11.2856
11.2856
11.2856
11.2855
11.2855
11.2854
11.2854
11.2853
11.2852
11.2851
11.2851
11.285
11.2848
11.2847
11.2846
11.2844
11.2842
11.284
11.2838
11.2836
11.2833
11.283
11.2826
11.2822
11.2818
11.2813
11.2808
11.2802
11.2795
11.2787
11.2778
11.2769
11.2758
11.2747
11.2734
11.272
11.2704
11.2685
11.2665
11.2641
11.2614
11.2583
11.2549
11.2511
11.2469
11.2423
11.2373
11.2319
11.2259
11.2191
11.2113
11.2024
11.192
11.1802
11.1669
11.152
11.1355
11.1176
11.0983
11.0776
11.0555
11.0318
11.0058
10.9763
10.9421
10.9024
10.8571
10.8066
10.7513
10.692
10.6293
10.5642
10.4974
10.4294
10.3607
10.2914
10.2208
10.1472
10.0665
9.97493
9.87191
9.75961
9.64117
9.51955
9.39719
9.27602
9.15749
9.04257
8.93174
8.82499
8.72185
8.62166
8.52381
8.42793
8.33383
8.24124
8.14956
8.05598
7.95247
7.82963
7.69027
7.54363
7.397
7.25454
7.11841
6.9895
6.86773
6.75218
6.64165
6.53553
6.43402
6.33768
6.24705
6.16271
11.2855
11.2855
11.2854
11.2853
11.2853
11.2852
11.2851
11.285
11.2849
11.2847
11.2846
11.2844
11.2842
11.284
11.2837
11.2835
11.2831
11.2828
11.2824
11.2819
11.2815
11.2809
11.2803
11.2796
11.2788
11.2779
11.2769
11.2758
11.2746
11.2732
11.2717
11.27
11.2681
11.2661
11.2637
11.2611
11.2581
11.2547
11.2509
11.2465
11.2417
11.2363
11.2304
11.2239
11.2168
11.209
11.2003
11.1905
11.1793
11.1666
11.152
11.1356
11.1172
11.0967
11.0742
11.0497
11.0231
10.9946
10.9637
10.9299
10.8919
10.8483
10.7983
10.7413
10.6776
10.6074
10.5313
10.45
10.3644
10.2752
10.1832
10.0885
9.99043
9.8858
9.76997
9.64022
9.49716
9.34356
9.18296
9.01878
8.85405
8.6914
8.53293
8.38015
8.23384
8.09403
7.95991
7.83007
7.70113
7.56377
7.41156
7.24893
7.08391
6.92258
6.76844
6.62333
6.48815
6.36306
6.24771
6.14135
6.04286
5.95086
5.86406
5.78152
5.70268
5.62726
5.55513
5.48576
5.41743
5.34479
5.2552
5.15426
5.05234
4.95474
4.86343
4.77907
4.7016
4.63047
4.56458
4.50268
4.44423
4.38952
4.33897
4.2928
4.25122
11.2838
11.2835
11.2832
11.2828
11.2823
11.2818
11.2812
11.2806
11.2799
11.2791
11.2781
11.2771
11.2759
11.2746
11.2731
11.2714
11.2695
11.2674
11.2651
11.2625
11.2596
11.2564
11.2527
11.2486
11.2439
11.2386
11.2327
11.2261
11.2187
11.2106
11.2016
11.1917
11.1808
11.1686
11.1549
11.1395
11.1221
11.1024
11.0803
11.0557
11.0285
10.9987
10.9663
10.9311
10.8932
10.8521
10.8066
10.7557
10.6982
10.6334
10.5612
10.4817
10.3954
10.3027
10.2045
10.1017
9.99512
9.88516
9.77121
9.65068
9.51952
9.37532
9.2184
9.05103
8.87624
8.69713
8.51663
8.33736
8.16152
7.99071
7.82573
7.66628
7.51065
7.35299
7.18379
7.0028
6.81631
6.63117
6.45216
6.28224
6.12307
5.9755
5.83974
5.71545
5.60172
5.49718
5.4003
5.30914
5.22105
5.12714
5.02044
4.91021
4.80384
4.7047
4.61389
4.53154
4.45745
4.39112
4.33181
4.2787
4.23076
4.18686
4.1461
4.10796
4.0723
4.03911
4.00848
3.98054
3.95512
3.93208
3.9118
3.89357
3.8768
3.86151
3.84786
3.83605
3.82606
3.81754
3.80997
3.80278
3.79592
3.78988
3.78501
3.78123
3.77851
11.2753
11.2738
11.272
11.2699
11.2676
11.265
11.2621
11.2588
11.2551
11.2509
11.2462
11.2409
11.2349
11.2281
11.2205
11.2119
11.2022
11.1915
11.1796
11.1664
11.1518
11.1355
11.1173
11.097
11.0741
11.0484
11.0198
10.988
10.9529
10.9144
10.8725
10.8271
10.778
10.7246
10.6659
10.6009
10.5286
10.4487
10.361
10.2658
10.1635
10.0548
9.94065
9.82195
9.69955
9.57357
9.44267
9.30385
9.15477
8.99511
8.82627
8.65051
8.47034
8.28828
8.10667
7.92763
7.75292
7.58365
7.41977
7.25991
7.09927
6.93046
6.75312
6.57175
6.39156
6.21641
6.04882
5.89043
5.74222
5.60457
5.47726
5.35956
5.2502
5.14653
5.0442
4.93048
4.81043
4.69189
4.57955
4.47562
4.38097
4.29571
4.21963
4.15232
4.09306
4.04083
3.99443
3.95262
3.91474
3.88064
3.85073
3.82523
3.80331
3.78429
3.76778
3.75353
3.74146
3.73144
3.72341
3.71709
3.71216
3.70819
3.70474
3.70149
3.69826
3.69517
3.69254
3.69052
3.68902
3.68792
3.68714
3.68644
3.68552
3.6843
3.68304
3.68194
3.68117
3.68101
3.68145
3.68246
3.68402
3.68566
3.68719
3.68915
3.69142
3.69364
11.2257
11.2168
11.2068
11.1955
11.1826
11.1682
11.1521
11.134
11.1139
11.0914
11.0661
11.0379
11.0063
10.971
10.9317
10.8883
10.8406
10.7884
10.7317
10.6703
10.6037
10.5311
10.4516
10.3645
10.2695
10.1665
10.0558
9.93775
9.81326
9.68321
9.54865
9.41047
9.26868
9.12187
8.968
8.80608
8.63661
8.46111
8.28153
8.09998
7.91845
7.73884
7.56287
7.39194
7.22664
7.06651
6.90893
6.74797
6.58181
6.41277
6.24441
6.07976
5.92099
5.76956
5.62648
5.49238
5.36745
5.25139
5.14319
5.04046
4.93932
4.82957
4.71562
4.60305
4.49556
4.39504
4.30233
4.21786
4.14167
4.07356
4.01296
3.95891
3.91041
3.86665
3.82719
3.7926
3.76222
3.73545
3.71186
3.69123
3.67343
3.65829
3.64571
3.63564
3.62778
3.62166
3.61669
3.61217
3.60823
3.60511
3.60277
3.6011
3.60002
3.59937
3.59895
3.5987
3.59889
3.59928
3.60021
3.6018
3.60395
3.60667
3.6098
3.61293
3.61569
3.61771
3.61944
3.62136
3.62322
3.6248
3.62641
3.62797
3.62923
3.63011
3.63073
3.6313
3.63194
3.63278
3.63428
3.63613
3.63814
3.6403
3.64235
3.64464
3.64707
3.64945
3.65196
3.65501
10.9638
10.9195
10.87
10.8152
10.7546
10.6881
10.6157
10.537
10.4517
10.359
10.2583
10.1494
10.0319
9.90622
9.77282
9.63247
9.48615
9.33498
9.18009
9.02193
8.85988
8.69277
8.5202
8.34275
8.16172
7.97874
7.79549
7.6136
7.43459
7.25986
7.09053
6.92705
6.76867
6.6122
6.45423
6.29478
6.13585
5.97976
5.82841
5.68312
5.54481
5.41413
5.2915
5.17704
5.07041
4.97009
4.87352
4.77267
4.66827
4.56454
4.46444
4.36968
4.28119
4.19947
4.12479
4.05719
3.99653
3.94224
3.89328
3.84884
3.80877
3.77336
3.74163
3.71318
3.6878
3.6652
3.64516
3.62764
3.61266
3.60015
3.5898
3.58094
3.5733
3.56652
3.56018
3.55448
3.54947
3.54516
3.54134
3.53789
3.53488
3.53236
3.53031
3.5292
3.52939
3.53037
3.53221
3.53406
3.53576
3.53821
3.54055
3.54221
3.54381
3.54574
3.54772
3.54963
3.55155
3.5535
3.55545
3.5578
3.56063
3.56347
3.56654
3.56973
3.57292
3.57557
3.57789
3.58055
3.58319
3.58569
3.5877
3.58988
3.59225
3.59439
3.59633
3.59808
3.59954
3.60076
3.60206
3.60356
3.6054
3.60752
3.60998
3.6128
3.61577
3.61861
3.62155
3.62492
9.90059
9.75437
9.59975
9.43772
9.26949
9.09644
8.91984
8.7404
8.55791
8.3721
8.18335
7.99264
7.80136
7.61098
7.42296
7.23859
7.05904
6.88529
6.71789
6.55648
6.39883
6.24257
6.08761
5.93517
5.7867
5.64345
5.5063
5.37584
5.25246
5.13646
5.02796
4.92666
4.83085
4.73671
4.64005
4.54325
4.44882
4.35845
4.27317
4.19355
4.11991
4.05242
3.99121
3.93613
3.8866
3.84183
3.80133
3.76526
3.73302
3.70406
3.67799
3.65453
3.63349
3.61481
3.59844
3.5844
3.57267
3.56281
3.55397
3.54573
3.53837
3.53174
3.52521
3.51902
3.51359
3.50872
3.50392
3.49942
3.49543
3.49218
3.49006
3.48881
3.48843
3.48853
3.48811
3.48784
3.48745
3.48717
3.48701
3.48657
3.48594
3.48563
3.48554
3.4858
3.48645
3.48762
3.4894
3.49192
3.49402
3.49662
3.49952
3.50243
3.50536
3.50834
3.51138
3.51445
3.51751
3.52049
3.52315
3.52568
3.52817
3.53074
3.53353
3.53696
3.54084
3.54421
3.54746
3.55084
3.55425
3.55703
3.55946
3.56195
3.56441
3.56669
3.56876
3.5706
3.57227
3.57382
3.57521
3.57663
3.57821
3.58005
3.58225
3.58479
3.58745
3.59012
3.59301
3.59617
7.63472
7.43004
7.22933
7.0339
6.84479
6.66281
6.48828
6.32074
6.15816
5.99936
5.8446
5.69473
5.55063
5.41299
5.28228
5.15872
5.04242
4.93341
4.83165
4.73586
4.64293
4.54982
4.45805
4.36926
4.28455
4.20462
4.12988
4.06056
3.99679
3.93866
3.88619
3.83896
3.79638
3.75825
3.7244
3.69408
3.66675
3.64208
3.6199
3.60006
3.58241
3.56691
3.55364
3.54259
3.5331
3.52463
3.5169
3.50965
3.50283
3.49657
3.49081
3.48531
3.47999
3.47502
3.47046
3.46633
3.46322
3.46133
3.4601
3.45873
3.45762
3.45702
3.45573
3.45348
3.45177
3.45072
3.449
3.44701
3.44525
3.44362
3.44214
3.4412
3.44122
3.44164
3.44193
3.4426
3.44372
3.44451
3.44551
3.44662
3.44774
3.4489
3.45012
3.45117
3.45198
3.45296
3.4545
3.45674
3.45951
3.4628
3.46643
3.47017
3.47385
3.47743
3.48093
3.48434
3.48758
3.49065
3.49372
3.49674
3.49954
3.50215
3.50487
3.50814
3.51165
3.51492
3.51821
3.52159
3.52482
3.52754
3.53012
3.53262
3.53497
3.53719
3.53925
3.54112
3.54286
3.54447
3.54595
3.54738
3.54888
3.55056
3.55252
3.55472
3.55704
3.55953
3.56223
3.56509
3.56806
5.31283
5.17737
5.04999
4.93063
4.81914
4.71521
4.61761
4.523
4.4304
4.34097
4.25567
4.17511
4.09964
4.02949
3.9647
3.90528
3.85126
3.8026
3.75898
3.72025
3.6861
3.65573
3.62851
3.60406
3.58212
3.5625
3.54503
3.52961
3.51628
3.50513
3.49577
3.48753
3.48002
3.47308
3.46667
3.46066
3.45495
3.44963
3.44463
3.43992
3.43553
3.4316
3.42895
3.42735
3.42606
3.42503
3.42391
3.42246
3.4209
3.41952
3.41795
3.41585
3.41385
3.41198
3.41009
3.40817
3.40643
3.40526
3.40471
3.40452
3.40448
3.40424
3.40424
3.40421
3.40437
3.40439
3.40418
3.40395
3.40361
3.40271
3.4018
3.40143
3.40206
3.40272
3.40406
3.40597
3.40792
3.40977
3.41153
3.41316
3.41464
3.41598
3.41733
3.41868
3.42009
3.42174
3.42381
3.42645
3.4296
3.43312
3.43685
3.4406
3.44432
3.44799
3.45157
3.45498
3.45823
3.46145
3.46464
3.46763
3.47041
3.47326
3.4764
3.47957
3.48268
3.48587
3.48913
3.49211
3.49484
3.49751
3.49999
3.5023
3.50451
3.50658
3.50848
3.51026
3.51193
3.5135
3.51499
3.51649
3.51811
3.5199
3.52183
3.5239
3.52617
3.52863
3.53122
3.534
4.0545
3.98133
3.91392
3.85221
3.79608
3.7454
3.70011
3.66034
3.62557
3.59499
3.56795
3.54397
3.52266
3.5038
3.48711
3.47247
3.45987
3.44943
3.44084
3.43343
3.42678
3.42067
3.41497
3.40965
3.40468
3.40003
3.39566
3.39161
3.38792
3.38522
3.38377
3.38274
3.38173
3.3806
3.37951
3.37836
3.37684
3.37537
3.37379
3.3721
3.37048
3.36882
3.36704
3.36547
3.36439
3.36398
3.36385
3.36379
3.36378
3.36395
3.36406
3.36395
3.36395
3.36374
3.3636
3.36288
3.36138
3.36002
3.35964
3.35978
3.36036
3.36115
3.36217
3.36315
3.3639
3.36443
3.36469
3.36468
3.3643
3.36389
3.36329
3.36308
3.36344
3.364
3.36514
3.36684
3.36883
3.37087
3.37286
3.37477
3.37658
3.37829
3.37993
3.38155
3.38322
3.38503
3.38713
3.38963
3.3926
3.39597
3.3996
3.40337
3.40717
3.41098
3.41475
3.41839
3.42188
3.4253
3.42868
3.43183
3.43483
3.43787
3.44101
3.44406
3.4471
3.45023
3.4533
3.45611
3.45884
3.46152
3.46397
3.46623
3.46845
3.47055
3.47246
3.47426
3.47599
3.47764
3.47921
3.48076
3.48238
3.48407
3.48585
3.48776
3.48984
3.49206
3.49444
3.49704
3.44887
3.43043
3.41437
3.40048
3.38864
3.37901
3.37131
3.36485
3.35913
3.35396
3.34923
3.34484
3.34087
3.33714
3.33375
3.3307
3.32864
3.32784
3.32734
3.32669
3.326
3.32526
3.32442
3.32349
3.3224
3.32131
3.32024
3.31913
3.31778
3.31637
3.31542
3.31503
3.31489
3.31514
3.31549
3.31578
3.31619
3.31657
3.31692
3.31701
3.31726
3.31671
3.31535
3.31428
3.31398
3.3146
3.31541
3.31634
3.31733
3.31825
3.31903
3.31955
3.31971
3.31936
3.31872
3.3178
3.31672
3.31598
3.31605
3.31616
3.31667
3.31762
3.31868
3.31959
3.32034
3.32094
3.32133
3.32145
3.3213
3.32097
3.32079
3.32095
3.32134
3.3222
3.32361
3.32541
3.32743
3.32953
3.33166
3.33379
3.33589
3.33793
3.33991
3.34187
3.34393
3.34618
3.34873
3.35167
3.35498
3.35858
3.36236
3.36623
3.37015
3.37409
3.37794
3.38164
3.38528
3.38886
3.3922
3.39541
3.39865
3.40187
3.40495
3.40804
3.41117
3.41413
3.41685
3.41956
3.42227
3.42466
3.42685
3.42908
3.43122
3.43313
3.43492
3.43669
3.4384
3.44004
3.44166
3.44331
3.44498
3.4467
3.44851
3.45043
3.45247
3.45468
3.45709
3.27027
3.26722
3.26455
3.26219
3.26086
3.26078
3.26081
3.26072
3.2606
3.26049
3.26014
3.25992
3.25955
3.2592
3.25894
3.25838
3.25754
3.2572
3.25717
3.25752
3.25825
3.25908
3.25993
3.26071
3.26179
3.26254
3.26325
3.26337
3.26266
3.26187
3.2617
3.26217
3.26332
3.26443
3.26556
3.26673
3.26776
3.26855
3.26892
3.26885
3.26844
3.26759
3.26693
3.26644
3.26652
3.26695
3.26755
3.26839
3.26935
3.27031
3.27112
3.27166
3.27183
3.27163
3.27103
3.27018
3.26935
3.26902
3.26882
3.26886
3.26937
3.27017
3.27104
3.27189
3.2727
3.27342
3.27396
3.27427
3.27435
3.27432
3.27447
3.27481
3.27553
3.27672
3.27835
3.28028
3.2824
3.28465
3.28699
3.28939
3.29178
3.29412
3.29642
3.29877
3.30126
3.30398
3.30702
3.31038
3.31403
3.31789
3.32187
3.32591
3.33001
3.33403
3.33794
3.34179
3.34556
3.34909
3.3525
3.35593
3.35927
3.36245
3.36563
3.36882
3.37176
3.37445
3.37715
3.37995
3.38226
3.38431
3.38659
3.38879
3.39065
3.39241
3.39418
3.39594
3.39764
3.39931
3.40099
3.40269
3.4044
3.40616
3.40797
3.40989
3.41195
3.41419
3.41658
3.41916
3.18862
3.1889
3.18943
3.18999
3.19026
3.19031
3.19062
3.19134
3.1925
3.19384
3.19527
3.19678
3.19863
3.19999
3.20152
3.2025