/*--------------------------------*- C++ -*----------------------------------*\
| =========                 |                                                 |
| \\      /  F ield         | OpenFOAM: The Open Source CFD Toolbox           |
|  \\    /   O peration     | Version:  v1706                                 |
|   \\  /    A nd           | Web:      www.OpenFOAM.com                      |
|    \\/     M anipulation  |                                                 |
\*---------------------------------------------------------------------------*/
FoamFile
{
    version     2.0;
    format      ascii;
    class       volScalarField;
    location    "1.6e-05";
    object      p;
}
// * * * * * * * * * * * * * * * * * * * * * * * * * * * * * * * * * * * * * //

dimensions      [1 -1 -2 0 0 0 0];


internalField   nonuniform List<scalar> 
29871
(
21.9139
21.9139
21.9139
21.9139
21.9139
21.9139
21.9139
21.9139
21.9139
21.9139
21.9139
21.9139
21.9139
21.9139
21.9139
21.9139
21.9139
21.9139
21.9139
21.9139
21.9139
21.9139
21.9139
21.9139
21.9139
21.9139
21.9139
21.9139
21.9139
21.9139
21.9139
21.9139
21.9139
21.9139
21.9139
21.9139
21.9139
21.9139
21.9139
21.9139
21.9139
21.9139
21.9139
21.9139
21.9139
21.9139
21.9139
21.9139
21.9139
21.9139
21.9139
21.9139
21.9139
21.9139
21.9139
21.9139
21.9139
21.9139
21.9139
21.9139
21.9139
21.9139
21.9139
21.9139
21.9139
21.9139
21.9139
21.9139
21.9139
21.9139
21.9139
21.9139
21.9139
21.9139
21.9139
21.9139
21.9139
21.9139
21.9139
21.9139
21.9139
21.9139
21.9139
21.9139
21.9139
21.9139
21.9139
21.9139
21.9139
21.9139
21.9139
21.9139
21.9139
21.9139
21.9139
21.9139
21.9139
21.9139
21.9139
21.9139
21.9139
21.9139
21.9139
21.9139
21.9139
21.9139
21.9139
21.9139
21.9139
21.9139
21.9139
21.9139
21.9139
21.9139
21.9139
21.9139
21.9139
21.9139
21.9139
21.9139
21.9139
21.9139
21.9139
21.9139
21.9139
21.9139
21.9139
21.9139
21.9139
21.9139
21.9139
21.9139
21.9139
21.9139
21.9139
21.9139
21.9139
21.9139
21.9139
21.9139
21.9139
21.9139
21.9139
21.9139
21.9139
21.9139
21.9139
21.9139
21.9139
21.9139
21.9139
21.9139
21.9139
21.9139
21.9139
21.9139
21.9139
21.9139
21.9139
21.9139
21.9139
21.9139
21.9139
21.9139
21.9139
21.9139
21.9139
21.9139
21.9139
21.9139
21.9139
21.9139
21.9139
21.9139
21.9139
21.9139
21.9139
21.9139
21.9139
21.9139
21.9139
21.9139
21.9139
21.9139
21.9139
21.9139
21.9139
21.9139
21.9139
21.9139
21.9139
21.9139
21.9139
21.9139
21.9139
21.9139
21.9139
21.9139
21.9139
21.9139
21.9139
21.9139
21.9139
21.9139
21.9139
21.9139
21.9139
21.9139
21.9139
21.9139
21.9139
21.9139
21.9139
21.9139
21.9139
21.9139
21.9139
21.9139
21.9139
21.9139
21.9139
21.9139
21.9139
21.9139
21.9139
21.9139
21.9139
21.9139
21.9139
21.9139
21.9139
21.9139
21.9139
21.9139
21.9139
21.9139
21.9139
21.9139
21.9139
21.9139
21.9139
21.9139
21.9139
21.9139
21.9139
21.9139
21.9139
21.9139
21.9139
21.9139
21.9139
21.9139
21.9139
21.9139
21.9139
21.9139
21.9139
21.9139
21.9139
21.9139
21.9139
21.9139
21.9139
21.9139
21.9139
21.9139
21.9139
21.9139
21.9139
21.9139
21.9139
21.9139
21.9139
21.9139
21.9139
21.9139
21.9139
21.9139
21.9139
21.9139
21.9139
21.9139
21.9139
21.9139
21.9139
21.9139
21.9139
21.9139
21.9139
21.9139
21.9139
21.9139
21.9139
21.9139
21.9139
21.9139
21.9139
21.9139
21.9139
21.9139
21.9139
21.9139
21.9139
21.9139
21.9139
21.9139
21.9139
21.9139
21.9139
21.9139
21.9139
21.9139
21.9139
21.9139
21.9139
21.9139
21.9139
21.9139
21.9139
21.9139
21.9139
21.9139
21.9139
21.9139
21.9139
21.9139
21.9139
21.9139
21.9139
21.9139
21.9139
21.9139
21.9139
21.9139
21.9139
21.9139
21.9139
21.9139
21.9139
21.9139
21.9139
21.9139
21.9139
21.9139
21.9139
21.9139
21.9139
21.9139
21.9139
21.9139
21.9139
21.9139
21.9139
21.9139
21.9139
21.9139
21.9139
21.9139
21.9139
21.9139
21.9139
21.9139
21.9139
21.9139
21.9139
21.9139
21.9139
21.9139
21.9139
21.9139
21.9139
21.9139
21.9139
21.9139
21.9139
21.9139
21.9139
21.9139
21.9139
21.9139
21.9139
21.9139
21.9139
21.9139
21.9139
21.9139
21.9139
21.9139
21.9139
21.9139
21.9139
21.9139
21.9139
21.9139
21.9139
21.9139
21.9139
21.9139
21.9139
21.9139
21.9139
21.9139
21.9139
21.9139
21.9139
21.9139
21.9139
21.9139
21.9139
21.9139
21.9139
21.9139
21.9139
21.9139
21.9139
21.9139
21.9139
21.9139
21.9139
21.9139
21.9139
21.9139
21.9139
21.9139
21.9139
21.9139
21.9139
21.9139
21.9139
21.9139
21.9139
21.9139
21.9139
21.9139
21.9139
21.9139
21.9139
21.9139
21.9139
21.9139
21.9139
21.9139
21.9139
21.9139
21.9139
21.9139
21.9139
21.9139
21.9139
21.9139
21.9139
21.9139
21.9139
21.9139
21.9139
21.9139
21.9139
21.9139
21.9139
21.9139
21.9139
21.9139
21.9139
21.9139
21.9139
21.9139
21.9139
21.9139
21.9139
21.9139
21.9139
21.9139
21.9139
21.9139
21.9139
21.9139
21.9139
21.9139
21.9139
21.9139
21.9139
21.9139
21.9139
21.9139
21.9139
21.9139
21.9139
21.9139
21.9139
21.9139
21.9139
21.9139
21.9139
21.9139
21.9139
21.9139
21.9139
21.9139
21.9139
21.9139
21.9139
21.9139
21.9139
21.9139
21.9139
21.9139
21.9139
21.9139
21.9139
21.9139
21.9139
21.9139
21.9139
21.9139
21.9139
21.9139
21.9139
21.9139
21.9139
21.9139
21.9139
21.9139
21.9139
21.9139
21.9139
21.9139
21.9139
21.9139
21.9139
21.9139
21.9139
21.9139
21.9139
21.9139
21.9139
21.9139
21.9139
21.9139
21.9139
21.9139
21.9139
21.9139
21.9139
21.9139
21.9139
21.9139
21.9139
21.9139
21.9139
21.9139
21.9139
21.9139
21.9139
21.9139
21.9139
21.9139
21.9139
21.9139
21.9139
21.9139
21.9139
21.9139
21.9139
21.9139
21.9139
21.9139
21.9139
21.9139
21.9139
21.9139
21.9139
21.9139
21.9139
21.9139
21.9139
21.9139
21.9139
21.9139
21.9139
21.9139
21.9139
21.9139
21.9139
21.9139
21.9139
21.9139
21.9139
21.9139
21.9139
21.9139
21.9139
21.9139
21.9139
21.9139
21.9139
21.9139
21.9139
21.9139
21.9139
21.9139
21.9139
21.9139
21.9139
21.9139
21.9139
21.9139
21.9139
21.9139
21.9139
21.9139
21.9139
21.9139
21.9139
21.9139
21.9139
21.9139
21.9139
21.9139
21.9139
21.9139
21.9139
21.9139
21.9139
21.9139
21.9139
21.9139
21.9139
21.9139
21.9139
21.9139
21.9139
21.9139
21.9139
21.9139
21.9139
21.9139
21.9139
21.9139
21.9139
21.9139
21.9139
21.9139
21.9139
21.9139
21.9139
21.9139
21.9139
21.9139
21.9139
21.9139
21.9139
21.9139
21.9139
21.9139
21.9139
21.9139
21.9139
21.9139
21.9139
21.9139
21.9139
21.9139
21.9139
21.9139
21.9139
21.9139
21.9139
21.9139
21.9139
21.9139
21.9139
21.9139
21.9139
21.9139
21.9139
21.9139
21.9139
21.9139
21.9139
21.9139
21.9139
21.9139
21.9139
21.9139
21.9139
21.9139
21.9139
21.9139
21.9139
21.9139
21.9139
21.9139
21.9139
21.9139
21.9139
21.9139
21.9139
21.9139
21.9139
21.9139
21.9139
21.9139
21.9139
21.9139
21.9139
21.9139
21.9139
21.9139
21.9139
21.9139
21.9139
21.9139
21.9139
21.9139
21.9139
21.9139
21.9139
21.9139
21.9139
21.9139
21.9139
21.9139
21.9139
21.9139
21.9139
21.9139
21.9139
21.9139
21.9139
21.9139
21.9139
21.9139
21.9139
21.9139
21.9139
21.9139
21.9139
21.9139
21.9139
21.9139
21.9139
21.9139
21.9139
21.9139
21.9139
21.9139
21.9139
21.9139
21.9139
21.9139
21.9139
21.9139
21.9139
21.9139
21.9139
21.9139
21.9139
21.9139
21.9139
21.9139
21.9139
21.9139
21.9139
21.9139
21.9139
21.9139
21.9139
21.9139
21.9139
21.9139
21.9139
21.9139
21.9139
21.9139
21.9139
21.9139
21.9139
21.9139
21.9139
21.9139
21.9139
21.9139
21.9139
21.9139
21.9139
21.9139
21.9139
21.9139
21.9139
21.9139
21.9139
21.9139
21.9139
21.9139
21.9139
21.9139
21.9139
21.9139
21.9139
21.9139
21.9139
21.9139
21.9139
21.9139
21.9139
21.9139
21.9139
21.9139
21.9139
21.9139
21.9139
21.9139
21.9139
21.9139
21.9139
21.9139
21.9139
21.9139
21.9139
21.9139
21.9139
21.9139
21.9139
21.9139
21.9139
21.9139
21.9139
21.9139
21.9139
21.9139
21.9139
21.9139
21.9139
21.9139
21.9139
21.9139
21.9139
21.9139
21.9139
21.9139
21.9139
21.9139
21.9139
21.9139
21.9139
21.9139
21.9139
21.9139
21.9139
21.9139
21.9139
21.9139
21.9139
21.9139
21.9139
21.9139
21.9139
21.9139
21.9139
21.9139
21.9139
21.9139
21.9139
21.9139
21.9139
21.9139
21.9139
21.9139
21.9139
21.9139
21.9139
21.9139
21.9139
21.9139
21.9139
21.9139
21.9139
21.9139
21.9139
21.9139
21.9139
21.9139
21.9139
21.9139
21.9139
21.9139
21.9139
21.9139
21.9139
21.9139
21.9139
21.9139
21.9139
21.9139
21.9139
21.9139
21.9139
21.9139
21.9139
21.9139
21.9139
21.9139
21.9139
21.9139
21.9139
21.9139
21.9139
21.9139
21.9139
21.9139
21.9139
21.9139
21.9139
21.9139
21.9139
21.9139
21.9139
21.9139
21.9139
21.9139
21.9139
21.9139
21.9139
21.9139
21.9139
21.9139
21.9139
21.9139
21.9139
21.9139
21.9139
21.9139
21.9139
21.9139
21.9139
21.9139
21.9139
21.9139
21.9139
21.9139
21.9139
21.9139
21.9139
21.9139
21.9139
21.9139
21.9139
21.9139
21.9139
21.9139
21.9139
21.9139
21.9139
21.9139
21.9139
21.9139
21.9139
21.9139
21.9139
21.9139
21.9139
21.9139
21.9139
21.9139
21.9139
21.9139
21.9139
21.9139
21.9139
21.9139
21.9139
21.9139
21.9139
21.9139
21.9139
21.9139
21.9139
21.9139
21.9139
21.9139
21.9139
21.9139
21.9139
21.9139
21.9139
21.9139
21.9139
21.9139
21.9139
21.9139
21.9139
21.9139
21.9139
21.9139
21.9139
21.9139
21.9139
21.9139
21.9139
21.9139
21.9139
21.9139
21.9139
21.9139
21.9139
21.9139
21.9139
21.9139
21.9139
21.9139
21.9139
21.9139
21.9139
21.9139
21.9139
21.9139
21.9139
21.9139
21.9139
21.9139
21.9139
21.9139
21.9139
21.9139
21.9139
21.9139
21.9139
21.9139
21.9139
21.9139
21.9139
21.9139
21.9139
21.9139
21.9139
21.9139
21.9139
21.9139
21.9139
21.9139
21.9139
21.9139
21.9139
21.9139
21.9139
21.9139
21.9139
21.9139
21.9139
21.9139
21.9139
21.9139
21.9139
21.9139
21.9139
21.9139
21.9139
21.9139
21.9139
21.9139
21.9139
21.9139
21.9139
21.9139
21.9139
21.9139
21.9139
21.9139
21.9139
21.9139
21.9139
21.9139
21.9139
21.9139
21.9139
21.9139
21.9139
21.9139
21.9139
21.9139
21.9139
21.9139
21.9139
21.9139
21.9139
21.9139
21.9139
21.9139
21.9139
21.9139
21.9139
21.9139
21.9139
21.9139
21.9139
21.9139
21.9139
21.9139
21.9139
21.9139
21.9139
21.9139
21.9139
21.9139
21.9139
21.9139
21.9139
21.9139
21.9139
21.9139
21.9139
21.9139
21.9139
21.9139
21.9139
21.9139
21.9139
21.9139
21.9139
21.9139
21.9139
21.9139
21.9139
21.9139
21.9139
21.9139
21.9139
21.9139
21.9139
21.9139
21.9139
21.9139
21.9139
21.9139
21.9139
21.9139
21.9139
21.9139
21.9139
21.9139
21.9139
21.9139
21.9139
21.9139
21.9139
21.9139
21.9139
21.9139
21.9139
21.9139
21.9139
21.9139
21.9139
21.9139
21.9139
21.9139
21.9139
21.9139
21.9139
21.9139
21.9139
21.9139
21.9139
21.9139
21.9139
21.9139
21.9139
21.9139
21.9139
21.9139
21.9139
21.9139
21.9139
21.9139
21.9139
21.9139
21.9139
21.9139
21.9139
21.9139
21.9139
21.9139
21.9139
21.9139
21.9139
21.9139
21.9139
21.9139
21.9139
21.9139
21.9139
21.9139
21.9139
21.9139
21.9139
21.9139
21.9139
21.9139
21.9139
21.9139
21.9139
21.9139
21.9139
21.9139
21.9139
21.9139
21.9139
21.9139
21.9139
21.9139
21.9139
21.9139
21.9139
21.9139
21.9139
21.9139
21.9139
21.9139
21.9139
21.9139
21.9139
21.9139
21.9139
21.9139
21.9139
21.9139
21.9139
21.9139
21.9139
21.9139
21.9139
21.9139
21.9139
21.9139
21.9139
21.9139
21.9139
21.9139
21.9139
21.9139
21.9139
21.9139
21.9139
21.9139
21.9139
21.9139
21.9139
21.9139
21.9139
21.9139
21.9139
21.9139
21.9139
21.9139
21.9139
21.9139
21.9139
21.9139
21.9139
21.9139
21.9139
21.9139
21.9139
21.9139
21.9139
21.9139
21.9139
21.9139
21.9139
21.9139
21.9139
21.9139
21.9139
21.9139
21.9139
21.9139
21.9139
21.9139
21.9139
21.9139
21.9139
21.9139
21.9139
21.9139
21.9139
21.9139
21.9139
21.9139
21.9139
21.9139
21.9139
21.9139
21.9139
21.9139
21.9139
21.9139
21.9139
21.9139
21.9139
21.9139
21.9139
21.9139
21.9139
21.9139
21.9139
21.9139
21.9139
21.9139
21.9139
21.9139
21.9139
21.9139
21.9139
21.9139
21.9139
21.9139
21.9139
21.9139
21.9139
21.9139
21.9139
21.9139
21.9139
21.9139
21.9139
21.9139
21.9139
21.9139
21.9139
21.9139
21.9139
21.9139
21.9139
21.9139
21.9139
21.9139
21.9139
21.9139
21.9139
21.9139
21.9139
21.9139
21.9139
21.9139
21.9139
21.9139
21.9139
21.9139
21.9139
21.9139
21.9139
21.9139
21.9139
21.9139
21.9139
21.9139
21.9139
21.9139
21.9139
21.9139
21.9139
21.9139
21.9139
21.9139
21.9139
21.9139
21.9139
21.9139
21.9139
21.9139
21.9139
21.9139
21.9139
21.9139
21.9139
21.9139
21.9139
21.9139
21.9139
21.9139
21.9139
21.9139
21.9139
21.9139
21.9139
21.9139
21.9139
21.9139
21.9139
21.9139
21.9139
21.9139
21.9139
21.9139
21.9139
21.9139
21.9139
21.9139
21.9139
21.9139
21.9139
21.9139
21.9139
21.914
21.914
21.914
21.914
21.914
21.914
21.914
21.9139
21.9139
21.9139
21.9139
21.9139
21.9139
21.9139
21.9139
21.9139
21.9139
21.9139
21.9139
21.9139
21.9139
21.9139
21.9139
21.9139
21.9139
21.9139
21.9139
21.9139
21.9139
21.9139
21.9139
21.9139
21.9139
21.9139
21.9139
21.9139
21.9139
21.9139
21.9139
21.9139
21.9139
21.9139
21.9139
21.9139
21.9139
21.9139
21.9139
21.9139
21.9139
21.9139
21.9139
21.9139
21.9139
21.9139
21.9139
21.9139
21.9139
21.9139
21.9139
21.9139
21.9139
21.9139
21.9139
21.9139
21.9139
21.9139
21.9139
21.9139
21.9139
21.9139
21.9139
21.9139
21.9139
21.9139
21.9139
21.9139
21.9139
21.9139
21.9139
21.9139
21.9139
21.9139
21.9139
21.9139
21.9139
21.9139
21.9139
21.914
21.914
21.914
21.914
21.914
21.914
21.914
21.914
21.914
21.914
21.914
21.914
21.914
21.9141
21.9141
21.9141
21.9141
21.9141
21.9141
21.9141
21.9141
21.9142
21.9142
21.9142
21.9142
21.9143
21.9143
21.9143
21.9144
21.9144
21.9144
21.9145
21.9145
21.9139
21.9139
21.9139
21.9139
21.9139
21.9139
21.9139
21.9139
21.9139
21.9139
21.9139
21.9139
21.9139
21.9139
21.9139
21.9139
21.9139
21.9139
21.9139
21.9139
21.9139
21.9139
21.9139
21.9139
21.9139
21.9139
21.9139
21.9139
21.9139
21.9139
21.9139
21.9139
21.9139
21.9139
21.9139
21.9139
21.9139
21.9139
21.9139
21.9139
21.9139
21.9139
21.9139
21.9139
21.9139
21.9139
21.9139
21.9139
21.9139
21.9139
21.9139
21.9139
21.9139
21.9139
21.9139
21.9139
21.9139
21.9139
21.9139
21.9139
21.9139
21.9139
21.914
21.914
21.914
21.914
21.914
21.914
21.914
21.914
21.914
21.914
21.914
21.9141
21.9141
21.9141
21.9141
21.9142
21.9142
21.9142
21.9142
21.9143
21.9143
21.9143
21.9144
21.9144
21.9145
21.9145
21.9146
21.9146
21.9147
21.9148
21.9149
21.9149
21.915
21.9151
21.9152
21.9153
21.9153
21.9154
21.9155
21.9156
21.9158
21.9159
21.9161
21.9162
21.9165
21.9167
21.9169
21.9172
21.9175
21.9177
21.918
21.9183
21.9186
21.9139
21.9139
21.9139
21.9139
21.9139
21.9139
21.9139
21.9139
21.9139
21.9139
21.9139
21.9139
21.9139
21.9139
21.9139
21.9139
21.9139
21.9139
21.9139
21.9139
21.9139
21.9139
21.9139
21.9139
21.9139
21.9139
21.9139
21.9139
21.9139
21.9139
21.9139
21.9139
21.9139
21.9139
21.9139
21.9139
21.9139
21.9139
21.9139
21.9139
21.9139
21.9139
21.9139
21.9139
21.914
21.914
21.914
21.914
21.914
21.914
21.914
21.914
21.914
21.914
21.9141
21.9141
21.9141
21.9141
21.9141
21.9142
21.9142
21.9142
21.9143
21.9143
21.9144
21.9144
21.9145
21.9145
21.9146
21.9147
21.9148
21.9149
21.915
21.9151
21.9152
21.9154
21.9156
21.9157
21.9159
21.9161
21.9163
21.9165
21.9167
21.917
21.9173
21.9176
21.918
21.9184
21.9189
21.9194
21.9199
21.9204
21.921
21.9216
21.9221
21.9227
21.9233
21.9239
21.9246
21.9252
21.9259
21.9267
21.9276
21.9286
21.9298
21.9312
21.9328
21.9345
21.9363
21.9382
21.9402
21.9423
21.9444
21.9466
21.9489
21.9512
21.9139
21.9139
21.9139
21.9139
21.9139
21.9139
21.9139
21.9139
21.9139
21.9139
21.9139
21.9139
21.9139
21.9139
21.9139
21.9139
21.9139
21.9139
21.9139
21.9139
21.9139
21.9139
21.9139
21.9139
21.9139
21.9139
21.9139
21.9139
21.9139
21.9139
21.9139
21.9139
21.9139
21.9139
21.914
21.914
21.914
21.914
21.914
21.914
21.914
21.914
21.914
21.914
21.9141
21.9141
21.9141
21.9141
21.9142
21.9142
21.9142
21.9143
21.9143
21.9143
21.9144
21.9145
21.9145
21.9146
21.9147
21.9148
21.9149
21.915
21.9151
21.9152
21.9154
21.9156
21.9158
21.916
21.9162
21.9165
21.9168
21.9171
21.9175
21.9179
21.9183
21.9188
21.9193
21.92
21.9207
21.9215
21.9225
21.9235
21.9246
21.9258
21.927
21.9283
21.9296
21.931
21.9326
21.9342
21.9361
21.9382
21.9406
21.9433
21.9463
21.9496
21.9531
21.9568
21.9607
21.9646
21.9687
21.9728
21.977
21.9814
21.9858
21.9903
21.9951
22.0001
22.0055
22.0119
22.0194
22.0284
22.0389
22.0507
22.0635
22.0771
22.0913
22.1061
22.1214
22.1372
22.1536
22.1705
22.1878
21.9139
21.9139
21.9139
21.9139
21.9139
21.9139
21.9139
21.9139
21.9139
21.9139
21.9139
21.9139
21.9139
21.9139
21.9139
21.9139
21.9139
21.914
21.914
21.914
21.914
21.914
21.914
21.914
21.914
21.914
21.914
21.9141
21.9141
21.9141
21.9141
21.9142
21.9142
21.9142
21.9143
21.9143
21.9143
21.9144
21.9145
21.9145
21.9146
21.9147
21.9148
21.9149
21.915
21.9151
21.9153
21.9154
21.9156
21.9158
21.916
21.9163
21.9165
21.9169
21.9172
21.9176
21.9181
21.9185
21.9191
21.9196
21.9203
21.921
21.9218
21.9228
21.9239
21.9252
21.9266
21.9281
21.9299
21.9318
21.9339
21.9361
21.9385
21.9412
21.9441
21.9475
21.9514
21.9559
21.961
21.9668
21.9732
21.9802
21.9878
21.9959
22.0044
22.0133
22.0226
22.0324
22.0428
22.0543
22.0674
22.0826
22.1002
22.12
22.1419
22.1655
22.1906
22.2169
22.2441
22.2719
22.3004
22.3293
22.3589
22.3891
22.4201
22.4521
22.4852
22.52
22.558
22.6019
22.6546
22.7176
22.7906
22.8722
22.9607
23.0547
23.1531
23.2551
23.3608
23.4703
23.5839
23.7013
23.8218
21.9139
21.9139
21.9139
21.914
21.914
21.914
21.914
21.914
21.914
21.914
21.914
21.9141
21.9141
21.9141
21.9141
21.9142
21.9142
21.9142
21.9143
21.9143
21.9144
21.9144
21.9145
21.9146
21.9146
21.9147
21.9148
21.9149
21.9151
21.9152
21.9154
21.9156
21.9158
21.916
21.9162
21.9165
21.9168
21.9171
21.9175
21.918
21.9185
21.919
21.9196
21.9203
21.921
21.9218
21.9227
21.9237
21.9249
21.9262
21.9277
21.9293
21.9313
21.9334
21.9358
21.9385
21.9414
21.9445
21.948
21.9518
21.9561
21.961
21.9666
21.973
21.9804
21.9888
21.9982
22.0088
22.0204
22.0331
22.0468
22.0616
22.0776
22.0952
22.1152
22.1383
22.1652
22.1964
22.2322
22.2723
22.3166
22.3648
22.4165
22.4712
22.5287
22.5885
22.6507
22.7158
22.7854
22.8628
22.9519
23.0553
23.1738
23.3064
23.4517
23.6077
23.7724
23.9439
24.1204
24.3007
24.484
24.6704
24.8604
25.0547
25.2542
25.4595
25.6714
25.8926
26.132
26.4091
26.7475
27.1566
27.6294
28.1518
28.7108
29.2961
29.9007
30.521
31.1569
31.8104
32.4827
33.1717
33.8723
21.9141
21.9142
21.9142
21.9142
21.9143
21.9143
21.9144
21.9145
21.9146
21.9146
21.9147
21.9149
21.915
21.9151
21.9153
21.9155
21.9157
21.9159
21.9162
21.9165
21.9168
21.9172
21.9176
21.918
21.9185
21.9191
21.9197
21.9205
21.9213
21.9222
21.9232
21.9243
21.9255
21.9269
21.9284
21.9301
21.9321
21.9343
21.9368
21.9396
21.9428
21.9463
21.9502
21.9545
21.9592
21.9644
21.9702
21.9767
21.984
21.9924
22.0019
22.0128
22.0251
22.0389
22.0542
22.0712
22.0898
22.1101
22.1322
22.1567
22.1843
22.2161
22.2529
22.2956
22.3448
22.4006
22.4633
22.5327
22.6087
22.6912
22.7799
22.8751
22.9777
23.0909
23.2198
23.3697
23.5442
23.7452
23.9729
24.2264
24.504
24.8033
25.1214
25.4555
25.8029
26.1622
26.5332
26.9191
27.33
27.791
28.3298
28.9589
29.6741
30.4623
31.3084
32.1984
33.1195
34.0608
35.0137
35.9719
36.9329
37.8981
38.8713
39.8569
40.8578
41.8762
42.9138
43.9784
45.1064
46.3895
47.9375
49.761
51.808
54.0208
56.3516
58.7618
61.2229
63.7208
66.2592
68.8536
71.5137
74.2326
76.9916
79.7661
82.5257
21.9153
21.9155
21.9157
21.916
21.9163
21.9166
21.917
21.9174
21.9179
21.9184
21.9191
21.9198
21.9206
21.9214
21.9224
21.9236
21.9248
21.9262
21.9278
21.9296
21.9315
21.9337
21.9362
21.939
21.9421
21.9457
21.9497
21.9542
21.9592
21.9648
21.971
21.9779
21.9855
21.9939
22.0034
22.0141
22.0261
22.0398
22.0553
22.0727
22.0922
22.114
22.138
22.1644
22.1934
22.2253
22.2609
22.3011
22.3472
22.4002
22.4608
22.5299
22.6078
22.6949
22.7914
22.8972
23.0124
23.1374
23.2733
23.4235
23.5935
23.7894
24.0162
24.2773
24.5747
24.9092
25.2806
25.688
26.1294
26.6026
27.1061
27.6401
28.2107
28.838
29.5579
30.4005
31.3785
32.4893
33.7217
35.0609
36.4906
37.9937
39.5529
41.1526
42.7803
44.4302
46.1041
47.8154
49.6111
51.603
53.8875
56.4607
59.2754
62.2817
65.4338
68.6885
72.0055
75.3508
78.6992
82.0371
85.3656
88.7005
92.0656
95.4835
98.9696
102.532
106.176
109.914
113.821
118.323
124.596
132.722
142.143
152.44
163.391
174.872
186.806
199.151
211.93
225.222
239.058
253.359
267.984
282.787
297.582
21.9221
21.9233
21.9247
21.9263
21.9281
21.9301
21.9324
21.935
21.9379
21.9411
21.9448
21.949
21.9537
21.959
21.965
21.9718
21.9794
21.9879
21.9974
22.0079
22.0197
22.0329
22.0478
22.0645
22.0834
22.1047
22.1286
22.1554
22.1853
22.2184
22.2551
22.2956
22.3405
22.3906
22.4472
22.5114
22.5846
22.6677
22.7616
22.8671
22.9848
23.115
23.258
23.4141
23.5843
23.7711
23.9794
24.2152
24.4843
24.7914
25.1399
25.5322
25.9699
26.4533
26.982
27.5546
28.1696
28.8277
29.5348
30.3111
31.1922
32.2104
33.3835
34.7155
36.2019
37.8335
39.5977
41.4803
43.4656
45.5391
47.6909
49.92
52.2555
54.7807
57.6325
60.863
64.4581
68.3853
72.6073
77.0822
81.7639
86.6028
91.5504
96.5681
101.634
106.748
111.934
117.24
122.746
129.31
137.976
148.475
160.31
173.111
186.664
200.83
215.484
230.513
245.829
261.355
277.063
292.993
309.21
325.731
342.536
359.593
376.79
393.958
411.098
427.945
443.376
457.61
471.252
484.547
497.481
509.918
521.707
532.811
543.458
554.103
564.946
575.664
585.895
595.581
604.664
21.9559
21.9622
21.9694
21.9775
21.9868
21.9973
22.0091
22.0225
22.0375
22.0545
22.0736
22.0952
22.1195
22.1471
22.1781
22.213
22.2522
22.2959
22.3447
22.3989
22.4592
22.5266
22.6024
22.6881
22.785
22.8945
23.018
23.1566
23.3112
23.4826
23.6716
23.879
24.1062
24.3569
24.6363
24.9505
25.3052
25.705
26.1537
26.6545
27.2094
27.8196
28.4849
29.2045
29.9781
30.8085
31.7089
32.7087
33.84
35.1254
36.5759
38.1937
39.9754
41.9138
43.9984
46.2163
48.5533
50.9981
53.5483
56.2333
59.1293
62.3539
65.9559
69.9353
74.2797
78.9743
83.9982
89.3203
94.9028
100.706
106.699
112.867
119.233
125.838
133.029
142.329
153.976
167.643
182.974
199.71
217.665
236.692
256.641
277.33
298.579
320.244
342.272
364.689
387.424
410.42
432.745
453.22
472.089
489.725
506.331
521.979
536.673
550.399
563.145
574.947
585.904
596.288
606.422
616.477
626.537
636.529
646.164
655.249
663.74
671.724
679.22
686.092
692.279
697.837
702.758
707.092
710.94
714.299
717.268
719.953
722.156
723.489
723.742
723.306
722.699
722.094
22.1561
22.1921
22.2329
22.2793
22.3317
22.3908
22.4573
22.5319
22.6156
22.7098
22.816
22.9361
23.0719
23.2253
23.398
23.5916
23.8078
24.0478
24.3129
24.6052
24.9282
25.2871
25.688
26.1365
26.638
27.197
27.8173
28.5021
29.2536
30.0729
30.9601
31.916
32.9456
34.0664
35.307
36.6938
38.2448
39.9695
41.8704
43.9455
46.1887
48.5911
51.1405
53.824
56.6318
59.5763
62.7093
66.1248
69.8746
73.9669
78.4013
83.18
88.3012
93.7542
99.5177
105.563
111.859
118.385
125.164
132.23
139.941
149.685
161.651
175.645
191.416
208.78
227.617
247.811
269.236
291.759
315.221
339.524
364.614
390.452
416.859
442.277
466.406
489.4
511.358
532.238
551.956
570.474
587.664
603.397
617.848
631.239
643.865
656.245
668.397
680.164
691.335
701.525
710.467
718.26
725.091
731.102
736.256
740.703
744.309
747.085
749.317
750.952
751.724
751.807
751.683
751.387
750.706
749.898
749.31
748.88
748.236
747.509
746.851
746.288
745.741
745.177
744.589
743.908
743.133
742.485
741.885
741.296
740.43
739.296
738.167
737.163
736.03
734.56
23.2523
23.4461
23.6658
23.914
24.1931
24.5055
24.8537
25.2408
25.6713
26.1512
26.6869
27.2844
27.9494
28.6868
29.501
30.3956
31.3736
32.4366
33.5867
34.8283
36.1761
37.6544
39.2866
41.0907
43.0777
45.2532
47.6176
50.1677
52.8967
55.7944
58.8487
62.0516
65.4273
69.0324
72.9269
77.1291
81.6412
86.4685
91.6208
97.1048
102.919
109.053
115.484
122.187
129.159
136.422
144.101
153.327
164.54
177.653
192.492
208.912
226.819
246.136
266.778
288.632
311.562
335.452
360.251
385.96
412.328
437.998
462.839
486.928
510.254
532.757
554.318
574.8
594.071
611.847
628.174
643.671
658.472
672.761
686.863
700.429
713.081
724.596
735.06
744.562
753.022
760.44
766.884
772.201
776.183
778.931
780.723
781.892
781.961
781.443
780.819
780.173
779.399
778.49
777.506
776.488
775.477
774.536
773.575
772.513
771.567
770.705
769.779
768.717
767.757
766.868
765.731
764.466
763.472
762.676
761.769
760.693
759.598
758.564
757.54
756.52
755.528
754.47
753.34
752.114
750.776
749.335
747.659
745.765
743.99
742.384
740.642
738.643
28.7
29.5988
30.5945
31.6917
32.8944
34.2059
35.63
37.1732
38.8519
40.6881
42.702
44.9095
47.3214
49.9435
52.777
55.8193
59.0639
62.5013
66.1213
69.9409
74.002
78.3438
82.9723
87.8841
93.084
98.5859
104.406
110.556
117.038
123.843
130.955
138.378
146.114
154.646
164.824
176.772
190.409
205.619
222.3
240.383
259.812
280.515
302.384
325.284
349.127
373.859
399.435
424.787
449.534
473.716
497.342
520.35
542.632
564.021
584.36
603.458
621.072
637.325
652.905
668.355
683.276
697.405
711.141
724.182
736.085
746.831
756.874
766.22
774.575
781.646
787.355
791.655
794.377
796.372
797.854
798.732
799.286
799.466
799.539
799.631
799.715
799.749
799.83
799.924
800.042
800.036
799.888
799.571
798.806
797.711
796.504
795.217
793.848
792.407
790.883
789.291
787.709
786.199
784.71
783.208
781.72
780.192
778.456
776.385
774.458
772.628
770.552
768.331
766.511
765.063
763.551
761.93
760.349
758.834
757.363
755.913
754.436
752.933
751.435
749.901
748.392
746.839
745.1
743.292
741.691
740.126
738.336
736.519
49.3688
52.3596
55.5976
59.0842
62.8165
66.7875
70.9912
75.4468
80.1892
85.2327
90.5655
96.1739
102.058
108.231
114.716
121.529
128.688
136.191
144.049
152.245
161.211
171.649
183.703
197.346
212.502
229.098
247.073
266.376
286.952
308.707
331.518
355.279
379.952
405.099
429.9
454.267
478.237
501.79
524.798
547.092
568.539
589.002
608.148
625.747
642.233
658.027
673.281
688.113
702.431
715.958
728.561
740.379
751.526
761.899
771.431
779.986
787.036
792.416
796.602
799.489
801.237
802.956
804.861
805.829
806.258
806.926
807.996
809.014
810.068
811.333
813
814.543
815.447
816.254
816.831
816.932
816.695
816.249
815.667
815.012
814.306
813.591
812.87
812.276
811.754
811.075
810.132
808.813
807.076
804.952
802.595
800.151
797.738
795.372
793.016
790.69
788.45
786.255
784.002
781.779
779.702
777.726
775.539
773.202
771.19
769.236
767.038
764.841
763.136
761.607
760.004
758.408
756.869
755.373
753.921
752.478
751.003
749.509
748.002
746.515
745.066
743.538
741.86
740.237
738.754
737.183
735.486
733.897
732.294
112.246
119.397
126.865
134.675
142.851
151.422
160.383
170.328
181.716
194.657
209.154
225.165
242.636
261.501
281.704
303.186
325.852
349.574
374.266
399.468
424.466
449.14
473.498
497.504
521.048
543.967
566.103
587.33
607.37
625.897
643.039
659.265
674.847
689.807
704.029
717.51
730.308
742.323
753.566
764.099
773.861
782.59
789.697
794.982
798.715
801.554
803.913
805.675
806.88
807.961
809.207
810.342
811.372
812.529
814.021
816.009
818.418
820.816
822.338
823.217
824.274
825.427
825.455
825.093
825.104
825.331
825.455
825.534
825.829
826.55
827.304
827.441
827.339
826.897
825.91
824.465
822.872
821.231
819.584
817.979
816.417
814.866
813.351
811.876
810.391
808.837
807.1
805.094
802.821
800.343
797.775
795.219
792.692
790.187
787.737
785.369
783.019
780.61
778.247
776.094
773.984
771.654
769.348
767.315
765.241
762.966
760.904
759.227
757.601
755.982
754.464
753.012
751.596
750.218
748.852
747.467
746.054
744.63
743.254
741.891
740.435
738.908
737.465
736.049
734.53
733.014
731.561
729.987
239.928
258.968
279.508
301.469
324.768
349.294
374.928
400.991
426.962
452.691
478.111
503.138
527.663
551.516
574.539
596.609
617.481
636.751
654.5
671.092
686.721
701.476
715.431
728.599
740.996
752.64
763.556
773.72
782.984
790.749
796.489
800.591
803.728
806.192
808.072
809.648
810.94
812.067
813.191
814.278
815.509
817.208
819.646
822.441
824.946
826.95
828.485
829.423
829.829
830.145
830.587
830.785
830.829
830.911
831.151
831.871
833.176
834.507
835.08
835.242
835.141
834.66
833.783
832.585
831.504
830.573
829.749
828.954
828.319
827.856
827.573
827.115
826.674
826.053
825.028
823.596
821.937
820.194
818.436
816.697
814.958
813.213
811.475
809.75
808.035
806.299
804.448
802.386
800.075
797.547
794.899
792.215
789.539
786.898
784.331
781.858
779.405
776.902
774.508
772.338
770.147
767.798
765.58
763.541
761.395
759.16
757.221
755.518
753.826
752.233
750.81
749.457
748.121
746.829
745.571
744.301
742.992
741.683
740.412
739.126
737.766
736.393
735.066
733.708
732.303
730.946
729.573
728.08
539.886
565.352
589.847
613.233
635.285
655.609
674.138
691.101
706.799
721.389
734.985
747.706
759.512
770.543
780.767
790.066
797.765
803.215
807.02
809.965
812.297
814.084
815.477
816.637
817.633
818.565
819.525
820.917
823.122
826.09
829.04
831.416
833.178
834.306
835.112
835.558
835.794
835.953
835.94
835.933
836.077
836.852
838.15
839.454
840.564
840.986
840.61
839.939
839.136
838.283
837.336
836.372
835.472
834.766
834.245
834.263
834.503
834.507
834.56
834.502
834.082
833.271
832.225
831.152
830.118
829.129
828.181
827.315
826.619
825.992
825.364
824.851
824.239
823.311
822.001
820.395
818.622
816.785
814.928
813.05
811.154
809.254
807.363
805.494
803.634
801.709
799.621
797.307
794.778
792.092
789.323
786.534
783.77
781.089
778.516
775.965
773.387
770.985
768.789
766.541
764.213
762.065
760.018
757.849
755.697
753.833
752.106
750.359
748.802
747.5
746.231
744.939
743.742
742.617
741.47
740.277
739.083
737.908
736.705
735.457
734.211
732.969
731.691
730.42
729.18
727.887
726.522
773.023
784.262
794.51
803.727
811.25
816.224
819.573
822.1
823.977
825.387
826.366
827.118
827.761
828.332
829.165
830.933
833.754
836.606
838.977
840.668
841.699
842.288
842.598
842.652
842.439
842.126
841.876
842.111
843.036
844.31
845.364
845.972
845.997
845.488
844.734
843.81
842.803
841.764
840.762
839.922
839.297
839.075
839.283
839.651
839.904
839.745
839.313
838.682
837.876
836.937
835.949
834.992
834.108
833.347
832.948
832.787
832.607
832.633
832.628
832.384
831.805
830.966
830.004
828.993
827.958
826.939
825.983
825.118
824.304
823.573
822.983
822.364
821.509
820.32
818.813
817.078
815.21
813.266
811.271
809.239
807.191
805.147
803.131
801.142
799.124
796.984
794.655
792.123
789.415
786.591
783.716
780.841
778.047
775.371
772.715
770.069
767.649
765.413
763.111
760.81
758.726
756.695
754.537
752.467
750.686
748.954
747.134
745.676
744.517
743.264
741.978
740.931
739.959
738.934
737.858
736.774
735.691
734.583
733.449
732.306
731.143
729.964
728.811
727.664
726.469
725.238
723.997
722.7
843.068
843.149
843.151
843.464
844.695
847.019
849.59
851.571
852.77
853.43
853.548
853.384
852.844
852.113
851.11
850.662
850.91
851.563
852.188
852.374
852.044
851.367
850.469
849.355
848.078
846.821
845.692
844.751