/*--------------------------------*- C++ -*----------------------------------*\
| =========                 |                                                 |
| \\      /  F ield         | OpenFOAM: The Open Source CFD Toolbox           |
|  \\    /   O peration     | Version:  v1706                                 |
|   \\  /    A nd           | Web:      www.OpenFOAM.com                      |
|    \\/     M anipulation  |                                                 |
\*---------------------------------------------------------------------------*/
FoamFile
{
    version     2.0;
    format      ascii;
    class       volScalarField;
    location    "1.6e-05";
    object      Tov;
}
// * * * * * * * * * * * * * * * * * * * * * * * * * * * * * * * * * * * * * //

dimensions      [0 0 0 1 0 0 0];


internalField   nonuniform List<scalar> 
29871
(
144.4
144.4
144.4
144.4
144.4
144.4
144.4
144.4
144.4
144.4
144.4
144.4
144.4
144.4
144.4
144.4
144.4
144.4
144.4
144.4
144.4
144.4
144.4
144.4
144.4
144.4
144.4
144.4
144.4
144.4
144.4
144.4
144.4
144.4
144.4
144.4
144.4
144.4
144.4
144.4
144.4
144.4
144.4
144.4
144.4
144.4
144.4
144.4
144.4
144.4
144.4
144.4
144.4
144.4
144.4
144.4
144.4
144.4
144.4
144.4
144.4
144.4
144.4
144.4
144.4
144.4
144.4
144.4
144.4
144.4
144.4
144.4
144.4
144.4
144.4
144.4
144.4
144.4
144.4
144.4
144.4
144.4
144.4
144.4
144.4
144.4
144.4
144.4
144.4
144.4
144.4
144.4
144.4
144.4
144.4
144.4
144.4
144.4
144.4
144.4
144.4
144.4
144.4
144.4
144.4
144.4
144.4
144.4
144.4
144.4
144.4
144.4
144.4
144.4
144.4
144.4
144.4
144.4
144.4
144.4
144.4
144.4
144.4
144.4
144.4
144.4
144.4
144.4
144.4
144.4
144.4
144.4
144.4
144.4
144.4
144.4
144.4
144.4
144.4
144.4
144.4
144.4
144.4
144.4
144.4
144.4
144.4
144.4
144.4
144.4
144.4
144.4
144.4
144.4
144.4
144.4
144.4
144.4
144.4
144.4
144.4
144.4
144.4
144.4
144.4
144.4
144.4
144.4
144.4
144.4
144.4
144.4
144.4
144.4
144.4
144.4
144.4
144.4
144.4
144.4
144.4
144.4
144.4
144.4
144.4
144.4
144.4
144.4
144.4
144.4
144.4
144.4
144.4
144.4
144.4
144.4
144.4
144.4
144.4
144.4
144.4
144.4
144.4
144.4
144.4
144.4
144.4
144.4
144.4
144.4
144.4
144.4
144.4
144.4
144.4
144.4
144.4
144.4
144.4
144.4
144.4
144.4
144.4
144.4
144.4
144.4
144.4
144.4
144.4
144.4
144.4
144.4
144.4
144.4
144.4
144.4
144.4
144.4
144.4
144.4
144.4
144.4
144.4
144.4
144.4
144.4
144.4
144.4
144.4
144.4
144.4
144.4
144.4
144.4
144.4
144.4
144.4
144.4
144.4
144.4
144.4
144.4
144.4
144.4
144.4
144.4
144.4
144.4
144.4
144.4
144.4
144.4
144.4
144.4
144.4
144.4
144.4
144.4
144.4
144.4
144.4
144.4
144.4
144.4
144.4
144.4
144.4
144.4
144.4
144.4
144.4
144.4
144.4
144.4
144.4
144.4
144.4
144.4
144.4
144.4
144.4
144.4
144.4
144.4
144.4
144.4
144.4
144.4
144.4
144.4
144.4
144.4
144.4
144.4
144.4
144.4
144.4
144.4
144.4
144.4
144.4
144.4
144.4
144.4
144.4
144.4
144.4
144.4
144.4
144.4
144.4
144.4
144.4
144.4
144.4
144.4
144.4
144.4
144.4
144.4
144.4
144.4
144.4
144.4
144.4
144.4
144.4
144.4
144.4
144.4
144.4
144.4
144.4
144.4
144.4
144.4
144.4
144.4
144.4
144.4
144.4
144.4
144.4
144.4
144.4
144.4
144.4
144.4
144.4
144.4
144.4
144.4
144.4
144.4
144.4
144.4
144.4
144.4
144.4
144.4
144.4
144.4
144.4
144.4
144.4
144.4
144.4
144.4
144.4
144.4
144.4
144.4
144.4
144.4
144.4
144.4
144.4
144.4
144.4
144.4
144.4
144.4
144.4
144.4
144.4
144.4
144.4
144.4
144.4
144.4
144.4
144.4
144.4
144.4
144.4
144.4
144.4
144.4
144.4
144.4
144.4
144.4
144.4
144.4
144.4
144.4
144.4
144.4
144.4
144.4
144.4
144.4
144.4
144.4
144.4
144.4
144.4
144.4
144.4
144.4
144.4
144.4
144.4
144.4
144.4
144.4
144.4
144.4
144.4
144.4
144.4
144.4
144.4
144.4
144.4
144.4
144.4
144.4
144.4
144.4
144.4
144.4
144.4
144.4
144.4
144.4
144.4
144.4
144.4
144.4
144.4
144.4
144.4
144.4
144.4
144.4
144.4
144.4
144.4
144.4
144.4
144.4
144.4
144.4
144.4
144.4
144.4
144.4
144.4
144.4
144.4
144.4
144.4
144.4
144.4
144.4
144.4
144.4
144.4
144.4
144.4
144.4
144.4
144.4
144.4
144.4
144.4
144.4
144.4
144.4
144.4
144.4
144.4
144.4
144.4
144.4
144.4
144.4
144.4
144.4
144.4
144.4
144.4
144.4
144.4
144.4
144.4
144.4
144.4
144.4
144.4
144.4
144.4
144.4
144.4
144.4
144.4
144.4
144.4
144.4
144.4
144.4
144.4
144.4
144.4
144.4
144.4
144.4
144.4
144.4
144.4
144.4
144.4
144.4
144.4
144.4
144.4
144.4
144.4
144.4
144.4
144.4
144.4
144.4
144.4
144.4
144.4
144.4
144.4
144.4
144.4
144.4
144.4
144.4
144.4
144.4
144.4
144.4
144.4
144.4
144.4
144.4
144.4
144.4
144.4
144.4
144.4
144.4
144.4
144.4
144.4
144.4
144.4
144.4
144.4
144.4
144.4
144.4
144.4
144.4
144.4
144.4
144.4
144.4
144.4
144.4
144.4
144.4
144.4
144.4
144.4
144.4
144.4
144.4
144.4
144.4
144.4
144.4
144.4
144.4
144.4
144.4
144.4
144.4
144.4
144.4
144.4
144.4
144.4
144.4
144.4
144.4
144.4
144.4
144.4
144.4
144.4
144.4
144.4
144.4
144.4
144.4
144.4
144.4
144.4
144.4
144.4
144.4
144.4
144.4
144.4
144.4
144.4
144.4
144.4
144.4
144.4
144.4
144.4
144.4
144.4
144.4
144.4
144.4
144.4
144.4
144.4
144.4
144.4
144.4
144.4
144.4
144.4
144.4
144.4
144.4
144.4
144.4
144.4
144.4
144.4
144.4
144.4
144.4
144.4
144.4
144.4
144.4
144.4
144.4
144.4
144.4
144.4
144.4
144.4
144.4
144.4
144.4
144.4
144.4
144.4
144.4
144.4
144.4
144.4
144.4
144.4
144.4
144.4
144.4
144.4
144.4
144.4
144.4
144.4
144.4
144.4
144.4
144.4
144.4
144.4
144.4
144.4
144.4
144.4
144.4
144.4
144.4
144.4
144.4
144.4
144.4
144.4
144.4
144.4
144.4
144.4
144.4
144.4
144.4
144.4
144.4
144.4
144.4
144.4
144.4
144.4
144.4
144.4
144.4
144.4
144.4
144.4
144.4
144.4
144.4
144.4
144.4
144.4
144.4
144.4
144.4
144.4
144.4
144.4
144.4
144.4
144.4
144.4
144.4
144.4
144.4
144.4
144.4
144.4
144.4
144.4
144.4
144.4
144.4
144.4
144.4
144.4
144.4
144.4
144.4
144.4
144.4
144.4
144.4
144.4
144.4
144.4
144.4
144.4
144.4
144.4
144.4
144.4
144.4
144.4
144.4
144.4
144.4
144.4
144.4
144.4
144.4
144.4
144.4
144.4
144.4
144.4
144.4
144.4
144.4
144.4
144.4
144.4
144.4
144.4
144.4
144.4
144.4
144.4
144.4
144.4
144.4
144.4
144.4
144.4
144.4
144.4
144.4
144.4
144.4
144.4
144.4
144.4
144.4
144.4
144.4
144.4
144.4
144.4
144.4
144.4
144.4
144.4
144.4
144.4
144.4
144.4
144.4
144.4
144.4
144.4
144.4
144.4
144.4
144.4
144.4
144.4
144.4
144.4
144.4
144.4
144.4
144.4
144.4
144.4
144.4
144.4
144.4
144.4
144.4
144.4
144.4
144.4
144.4
144.4
144.4
144.4
144.4
144.4
144.4
144.4
144.4
144.4
144.4
144.4
144.4
144.4
144.4
144.4
144.4
144.4
144.4
144.4
144.4
144.4
144.4
144.4
144.4
144.4
144.4
144.4
144.4
144.4
144.4
144.4
144.4
144.4
144.4
144.4
144.4
144.4
144.4
144.4
144.4
144.4
144.4
144.4
144.4
144.4
144.4
144.4
144.4
144.4
144.4
144.4
144.4
144.4
144.4
144.4
144.4
144.4
144.4
144.4
144.4
144.4
144.4
144.4
144.4
144.4
144.4
144.4
144.4
144.4
144.4
144.4
144.4
144.4
144.4
144.4
144.4
144.4
144.4
144.4
144.4
144.4
144.4
144.4
144.4
144.4
144.4
144.4
144.4
144.4
144.4
144.4
144.4
144.4
144.4
144.4
144.4
144.4
144.4
144.4
144.4
144.4
144.4
144.4
144.4
144.4
144.4
144.4
144.4
144.4
144.4
144.4
144.4
144.4
144.4
144.4
144.4
144.4
144.4
144.4
144.4
144.4
144.4
144.4
144.4
144.4
144.4
144.4
144.4
144.4
144.4
144.4
144.4
144.4
144.4
144.4
144.4
144.4
144.4
144.4
144.4
144.4
144.4
144.4
144.4
144.4
144.4
144.4
144.4
144.4
144.4
144.4
144.4
144.4
144.4
144.4
144.4
144.4
144.4
144.4
144.4
144.4
144.4
144.4
144.4
144.4
144.4
144.4
144.4
144.4
144.4
144.4
144.4
144.4
144.4
144.4
144.4
144.4
144.4
144.4
144.4
144.4
144.4
144.4
144.4
144.4
144.4
144.4
144.4
144.4
144.4
144.4
144.4
144.4
144.4
144.4
144.4
144.4
144.4
144.4
144.4
144.4
144.4
144.4
144.4
144.4
144.4
144.4
144.4
144.4
144.4
144.4
144.4
144.4
144.4
144.4
144.4
144.4
144.4
144.4
144.4
144.4
144.4
144.4
144.4
144.4
144.4
144.4
144.4
144.4
144.4
144.4
144.4
144.4
144.4
144.4
144.4
144.4
144.4
144.4
144.4
144.4
144.4
144.4
144.4
144.4
144.4
144.4
144.4
144.4
144.4
144.4
144.4
144.4
144.4
144.4
144.4
144.4
144.4
144.4
144.4
144.4
144.4
144.4
144.4
144.4
144.4
144.4
144.4
144.4
144.4
144.4
144.4
144.4
144.4
144.4
144.4
144.4
144.4
144.4
144.4
144.4
144.4
144.4
144.4
144.4
144.4
144.4
144.4
144.4
144.4
144.4
144.4
144.4
144.4
144.4
144.4
144.4
144.4
144.4
144.4
144.4
144.4
144.4
144.4
144.4
144.4
144.4
144.4
144.4
144.4
144.4
144.4
144.4
144.4
144.4
144.4
144.4
144.4
144.4
144.4
144.4
144.4
144.4
144.4
144.4
144.4
144.4
144.4
144.4
144.4
144.4
144.4
144.4
144.4
144.4
144.4
144.4
144.4
144.4
144.4
144.4
144.4
144.4
144.4
144.4
144.4
144.4
144.4
144.4
144.4
144.4
144.4
144.4
144.4
144.4
144.4
144.4
144.4
144.4
144.4
144.4
144.4
144.4
144.4
144.4
144.4
144.4
144.4
144.4
144.4
144.4
144.4
144.4
144.4
144.4
144.4
144.4
144.4
144.4
144.4
144.4
144.4
144.4
144.4
144.4
144.4
144.4
144.4
144.4
144.4
144.4
144.4
144.4
144.4
144.4
144.4
144.4
144.4
144.4
144.4
144.4
144.4
144.4
144.4
144.4
144.4
144.4
144.4
144.4
144.4
144.4
144.4
144.4
144.4
144.4
144.4
144.4
144.4
144.4
144.4
144.4
144.4
144.4
144.4
144.4
144.4
144.4
144.4
144.4
144.4
144.4
144.4
144.4
144.4
144.4
144.4
144.4
144.4
144.4
144.4
144.4
144.4
144.4
144.4
144.4
144.4
144.4
144.4
144.4
144.4
144.4
144.4
144.4
144.4
144.4
144.4
144.4
144.4
144.4
144.4
144.4
144.4
144.4
144.4
144.4
144.4
144.4
144.4
144.4
144.4
144.4
144.4
144.4
144.4
144.4
144.4
144.4
144.4
144.4
144.4
144.4
144.4
144.4
144.4
144.4
144.4
144.4
144.4
144.4
144.4
144.4
144.4
144.4
144.4
144.4
144.4
144.4
144.4
144.4
144.4
144.4
144.4
144.4
144.4
144.4
144.4
144.4
144.4
144.4
144.4
144.4
144.4
144.4
144.4
144.4
144.4
144.4
144.4
144.4
144.4
144.4
144.4
144.4
144.4
144.4
144.4
144.4
144.4
144.4
144.4
144.4
144.4
144.4
144.4
144.4
144.4
144.4
144.4
144.4
144.4
144.4
144.4
144.4
144.4
144.4
144.4
144.4
144.4
144.4
144.4
144.4
144.4
144.4
144.4
144.4
144.4
144.4
144.4
144.4
144.4
144.4
144.4
144.4
144.4
144.4
144.4
144.4
144.4
144.4
144.4
144.4
144.4
144.4
144.4
144.4
144.4
144.4
144.4
144.4
144.4
144.4
144.4
144.4
144.4
144.4
144.4
144.4
144.4
144.4
144.4
144.4
144.4
144.4
144.4
144.4
144.4
144.4
144.4
144.4
144.4
144.4
144.4
144.4
144.4
144.4
144.4
144.4
144.4
144.4
144.4
144.4
144.4
144.4
144.4
144.4
144.4
144.401
144.401
144.401
144.401
144.401
144.401
144.401
144.401
144.401
144.401
144.401
144.401
144.401
144.401
144.401
144.402
144.402
144.402
144.402
144.402
144.402
144.403
144.403
144.403
144.403
144.403
144.404
144.4
144.4
144.4
144.4
144.4
144.4
144.4
144.4
144.4
144.4
144.4
144.4
144.4
144.4
144.4
144.4
144.4
144.4
144.4
144.4
144.4
144.4
144.4
144.4
144.4
144.4
144.4
144.4
144.4
144.4
144.4
144.4
144.4
144.4
144.4
144.4
144.4
144.4
144.4
144.4
144.4
144.4
144.4
144.4
144.4
144.4
144.4
144.4
144.4
144.4
144.4
144.4
144.4
144.4
144.4
144.4
144.4
144.4
144.4
144.4
144.4
144.4
144.4
144.4
144.4
144.4
144.4
144.401
144.401
144.401
144.401
144.401
144.401
144.401
144.401
144.401
144.401
144.401
144.402
144.402
144.402
144.402
144.402
144.403
144.403
144.403
144.403
144.404
144.404
144.404
144.405
144.405
144.406
144.406
144.407
144.407
144.407
144.408
144.408
144.409
144.41
144.41
144.411
144.412
144.413
144.414
144.415
144.416
144.418
144.419
144.421
144.422
144.424
144.426
144.427
144.4
144.4
144.4
144.4
144.4
144.4
144.4
144.4
144.4
144.4
144.4
144.4
144.4
144.4
144.4
144.4
144.4
144.4
144.4
144.4
144.4
144.4
144.4
144.4
144.4
144.4
144.4
144.4
144.4
144.4
144.4
144.4
144.4
144.4
144.4
144.4
144.4
144.4
144.4
144.4
144.4
144.4
144.4
144.4
144.4
144.4
144.4
144.4
144.4
144.401
144.401
144.401
144.401
144.401
144.401
144.401
144.401
144.401
144.401
144.402
144.402
144.402
144.402
144.402
144.403
144.403
144.403
144.404
144.404
144.405
144.405
144.406
144.406
144.407
144.408
144.409
144.41
144.411
144.412
144.413
144.414
144.415
144.417
144.418
144.42
144.422
144.424
144.427
144.429
144.432
144.435
144.438
144.442
144.445
144.448
144.452
144.455
144.459
144.463
144.467
144.471
144.475
144.48
144.486
144.493
144.502
144.511
144.521
144.532
144.543
144.555
144.567
144.58
144.593
144.606
144.62
144.4
144.4
144.4
144.4
144.4
144.4
144.4
144.4
144.4
144.4
144.4
144.4
144.4
144.4
144.4
144.4
144.4
144.4
144.4
144.4
144.4
144.4
144.4
144.4
144.4
144.4
144.4
144.4
144.4
144.4
144.4
144.4
144.4
144.4
144.4
144.4
144.4
144.4
144.401
144.401
144.401
144.401
144.401
144.401
144.401
144.401
144.401
144.401
144.402
144.402
144.402
144.402
144.402
144.403
144.403
144.403
144.404
144.404
144.405
144.405
144.406
144.406
144.407
144.408
144.409
144.41
144.411
144.412
144.414
144.415
144.417
144.419
144.421
144.424
144.426
144.429
144.432
144.436
144.44
144.445
144.451
144.457
144.463
144.47
144.478
144.485
144.493
144.502
144.51
144.52
144.531
144.544
144.558
144.575
144.593
144.612
144.633
144.655
144.678
144.702
144.726
144.75
144.775
144.801
144.827
144.854
144.882
144.912
144.944
144.981
145.026
145.079
145.141
145.21
145.286
145.366
145.45
145.538
145.628
145.722
145.818
145.918
146.02
144.4
144.4
144.4
144.4
144.4
144.4
144.4
144.4
144.4
144.4
144.4
144.4
144.4
144.4
144.4
144.4
144.4
144.4
144.4
144.4
144.4
144.4
144.401
144.401
144.401
144.401
144.401
144.401
144.401
144.401
144.401
144.402
144.402
144.402
144.402
144.402
144.403
144.403
144.403
144.404
144.404
144.405
144.405
144.406
144.407
144.407
144.408
144.409
144.41
144.411
144.413
144.414
144.416
144.418
144.42
144.422
144.425
144.428
144.431
144.434
144.438
144.442
144.447
144.453
144.46
144.467
144.475
144.485
144.495
144.507
144.519
144.532
144.546
144.562
144.58
144.6
144.623
144.65
144.681
144.716
144.755
144.797
144.842
144.891
144.942
144.995
145.051
145.109
145.171
145.24
145.318
145.409
145.513
145.631
145.761
145.902
146.051
146.208
146.369
146.535
146.704
146.876
147.051
147.231
147.415
147.605
147.802
148.009
148.235
148.496
148.811
149.188
149.627
150.118
150.649
151.212
151.799
152.407
153.036
153.686
154.359
155.054
155.765
144.4
144.4
144.4
144.4
144.4
144.4
144.4
144.401
144.401
144.401
144.401
144.401
144.401
144.401
144.401
144.402
144.402
144.402
144.402
144.402
144.403
144.403
144.403
144.404
144.404
144.405
144.406
144.406
144.407
144.408
144.409
144.41
144.411
144.412
144.414
144.415
144.417
144.419
144.422
144.424
144.427
144.43
144.434
144.438
144.443
144.447
144.453
144.459
144.466
144.473
144.482
144.492
144.504
144.517
144.531
144.547
144.564
144.583
144.604
144.627
144.652
144.681
144.715
144.754
144.798
144.849
144.906
144.97
145.04
145.116
145.199
145.288
145.384
145.49
145.61
145.748
145.91
146.097
146.311
146.551
146.816
147.105
147.414
147.741
148.085
148.442
148.813
149.202
149.618
150.081
150.616
151.238
151.952
152.752
153.627
154.563
155.549
156.573
157.623
158.692
159.777
160.877
161.996
163.138
164.307
165.506
166.741
168.028
169.417
171.018
172.963
175.301
177.992
180.954
184.108
187.396
190.774
194.222
197.739
201.335
205.017
208.771
212.568
144.401
144.402
144.402
144.402
144.402
144.403
144.403
144.403
144.404
144.404
144.405
144.406
144.407
144.407
144.408
144.409
144.411
144.412
144.414
144.415
144.417
144.419
144.422
144.425
144.428
144.431
144.435
144.439
144.444
144.45
144.456
144.462
144.47
144.478
144.487
144.497
144.509
144.522
144.537
144.554
144.573
144.594
144.618
144.643
144.672
144.703
144.738
144.776
144.821
144.871
144.929
144.995
145.069
145.152
145.245
145.348
145.46
145.583
145.716
145.864
146.03
146.222
146.443
146.7
146.995
147.33
147.706
148.123
148.579
149.074
149.606
150.175
150.79
151.468
152.242
153.143
154.194
155.406
156.778
158.302
159.966
161.753
163.645
165.624
167.674
169.784
171.956
174.207
176.598
179.269
182.37
185.963
190.017
194.454
199.183
204.12
209.19
214.331
219.491
224.637
229.758
234.861
239.969
245.105
250.284
255.515
260.806
266.197
271.862
278.262
286.021
295.194
305.406
316.24
327.384
338.626
349.831
360.94
371.967
382.975
393.99
404.967
415.813
426.421
436.675
144.408
144.409
144.411
144.412
144.414
144.416
144.419
144.421
144.424
144.427
144.431
144.435
144.44
144.445
144.451
144.458
144.466
144.474
144.484
144.495
144.506
144.52
144.535
144.551
144.57
144.592
144.616
144.643
144.673
144.707
144.744
144.785
144.831
144.882
144.939
145.003
145.076
145.159
145.253
145.359
145.477
145.609
145.754
145.914
146.09
146.283
146.498
146.741
147.019
147.338
147.704
148.119
148.587
149.111
149.69
150.326
151.017
151.766
152.581
153.48
154.5
155.676
157.04
158.612
160.4
162.407
164.629
167.055
169.672
172.464
175.421
178.542
181.862
185.497
189.642
194.451
199.98
206.198
213.03
220.377
228.136
236.198
244.459
252.826
261.232
269.644
278.071
286.587
295.421
305.175
316.382
328.966
342.539
356.697
371.113
385.536
399.771
413.675
427.157
440.182
452.771
465.001
476.967
488.746
500.38
511.876
523.229
534.478
545.854
558.238
573.935
592.436
612.115
631.95
651.406
670.189
688.147
705.253
721.603
737.36
752.592
767.199
781.039
794.012
806.017
144.45
144.457
144.466
144.475
144.486
144.498
144.512
144.528
144.545
144.565
144.587
144.613
144.641
144.673
144.71
144.751
144.797
144.848
144.905
144.969
145.04
145.119
145.209
145.311
145.425
145.554
145.7
145.863
146.044
146.246
146.469
146.714
146.987
147.291
147.633
148.022
148.463
148.965
149.53
150.165
150.873
151.655
152.513
153.45
154.47
155.588
156.835
158.248
159.861
161.704
163.793
166.142
168.753
171.627
174.754
178.124
181.723
185.552
189.645
194.115
199.152
204.916
211.485
218.859
226.992
235.811
245.225
255.131
265.424
276.01
286.82
297.844
309.209
321.334
334.965
350.34
367.234
385.262
404.03
423.184
442.421
461.477
480.132
498.232
515.707
532.575
548.935
564.965
581.026
598.818
619.912
642.809
666.087
688.905
710.814
731.572
751.03
769.125
785.877
801.361
815.71
829.11
841.726
853.652
864.911
875.497
885.369
894.47
902.853
910.528
917.231
923.099
928.375
933.174
937.526
941.412
944.804
947.735
950.342
952.83
955.296
957.632
959.71
961.514
963.024
144.656
144.694
144.738
144.787
144.844
144.907
144.979
145.06
145.151
145.254
145.37
145.501
145.648
145.816
146.005
146.217
146.456
146.723
147.02
147.35
147.717
148.127
148.587
149.107
149.693
150.355
151.1
151.935
152.865
153.896
155.03
156.273
157.634
159.132
160.802
162.68
164.8
167.188
169.866
172.846
176.137
179.739
183.646
187.845
192.33
197.113
202.268
207.949
214.313
221.459
229.421
238.185
247.706
257.918
268.735
280.061
291.793
303.849
316.203
328.969
342.523
357.504
374.122
392.229
411.529
431.706
452.461
473.505
494.573
515.433
535.925
555.969
575.608
595.083
615.199
638.647
664.721
691.926
719.161
745.71
771.11
795.07
817.407
838.003
856.845
874.02
889.718
904.173
917.463
929.622
940.53
949.97
958.102
965.112
971.166
976.375
980.793
984.497
987.546
990.02
992.027
993.733
995.299
996.796
998.252
999.64
1000.86
1001.83
1002.57
1003.14
1003.61
1004.03
1004.38
1004.68
1004.8
1004.78
1004.7
1004.52
1004.22
1003.82
1003.31
1002.67
1001.92
1001.13
1000.3
999.472
145.877
146.096
146.345
146.628
146.948
147.309
147.715
148.17
148.681
149.256
149.903
150.633
151.458
152.387
153.431
154.598
155.899
157.341
158.931
160.68
162.609
164.75
167.139
169.809
172.79
176.108
179.779
183.816
188.225
193.002
198.139
203.633
209.506
215.85
222.804
230.486
238.959
248.243
258.32
269.147
280.662
292.781
305.41
318.448
331.822
345.562
359.889
375.317
392.11
410.212
429.431
449.54
470.306
491.492
512.864
534.196
555.292
576.027
596.42
616.684
637.578
661.38
687.37
714.419
741.613
768.331
794.148
818.739
841.867
863.392
883.264
901.582
918.494
934.096
948.504
961.425
972.911
983.072
992.025
999.859
1006.64
1012.45
1017.31
1021.26
1024.47
1027.14
1029.44
1031.58
1033.56
1035.33
1036.9
1038.25
1039.33
1040.16
1040.78
1041.22
1041.28
1041.18
1040.88
1040.34
1039.63
1038.76
1037.74
1036.61
1035.5
1034.42
1033.38
1032.3
1031.27
1030.3
1029.36
1028.44
1027.63
1026.92
1026.25
1025.59
1024.95
1024.28
1023.57
1022.81
1021.97
1021.08
1020.04
1018.92
1017.82
1016.74
1015.59
1014.29
152.585
153.764
155.098
156.6
158.285
160.165
162.255
164.571
167.141
169.998
173.179
176.72
180.652
184.998
189.779
195.006
200.686
206.816
213.393
220.432
228.004
236.217
245.165
254.904
265.451
276.794
288.898
301.708
315.148
329.127
343.545
358.334
373.557
389.487
406.462
424.555
443.664
463.626
484.259
505.379
526.793
548.305
569.715
590.852
611.629
632.134
652.763
675.353
699.885
725.471
751.364
777.016
802.033
826.106
848.986
870.484
890.481
908.992
926.157
942.09
956.839
970.184
982.278
993.18
1002.93
1011.63
1019.34
1026.09
1031.89
1036.73
1040.78
1044.38
1047.63
1050.61
1053.49
1056.22
1058.76
1061.09
1063.19
1065.04
1066.6
1067.83
1068.76
1069.32
1069.36
1069.21
1068.84
1068.3
1067.58
1066.8
1066.03
1065.28
1064.52
1063.79
1063.08
1062.4
1061.69
1060.96
1060.19
1059.32
1058.38
1057.33
1056.16
1054.85
1053.51
1052.19
1050.81
1049.43
1048.13
1046.94
1045.76
1044.59
1043.51
1042.55
1041.67
1040.85
1040.05
1039.22
1038.35
1037.41
1036.37
1035.25
1034.02
1032.71
1031.44
1030.19
1028.89
1027.48
185.239
190.519
196.34
202.721
209.67
217.189
225.281
233.965
243.309
253.397
264.291
276.019
288.581
301.952
316.087
330.921
346.372
362.346
378.753
395.61
413.103
431.46
450.71
470.758
491.469
512.702
534.309
556.137
578.024
599.798
621.295
642.437
663.347
684.864
708.024
732.313
757.109
781.896
806.272
829.931
852.636
874.184
894.406
913.2
930.619
946.758
961.719
975.371
987.789
999.069
1009.28
1018.49
1026.75
1034.09
1040.5
1045.99
1050.61
1054.56
1058.19
1061.68
1064.95
1068.03
1071.08
1073.99
1076.64
1079.03
1081.26
1083.26
1084.92
1086.19
1087.09
1087.66
1087.87
1087.97
1088.02
1088.01
1088.03
1088.09
1088.21
1088.38
1088.57
1088.74
1088.91
1088.96
1088.87
1088.59
1088.1
1087.41
1086.48
1085.39
1084.25
1083.11
1081.96
1080.84
1079.75
1078.7
1077.7
1076.74
1075.76
1074.71
1073.6
1072.39
1071.04
1069.52
1067.98
1066.44
1064.83
1063.18
1061.66
1060.27
1058.89
1057.53
1056.25
1055.07
1053.98
1052.96
1051.99
1051.05
1050.13
1049.2
1048.26
1047.27
1046.19
1045.06
1043.95
1042.82
1041.6
1040.34
300.381
315.649
331.768
348.667
366.26
384.447
403.143
422.355
442.242
462.894
484.25
506.18
528.547
551.22
574.066
596.952
619.745
642.297
664.491
686.365
708.611
731.986
756.106
780.498
804.758
828.559
851.637
873.784
894.829
914.61
933.013
950.047
965.78
980.237
993.37
1005.33
1016.23
1026.14
1035.08
1043.1
1050.23
1056.47
1061.79
1066.23
1070.14
1073.74
1077.12
1080.37
1083.52
1086.51
1089.31
1091.94
1094.41
1096.66
1098.64
1100.29
1101.51
1102.33
1102.91
1103.28
1103.5
1103.77
1104.17
1104.54
1104.93
1105.45
1106.11
1106.79
1107.5
1108.22
1108.95
1109.44
1109.45
1109.36
1109.12
1108.72
1108.29
1107.83
1107.39
1107.02
1106.71
1106.46
1106.27
1106.07
1105.8
1105.37
1104.74
1103.87
1102.78
1101.48
1100.08
1098.62
1097.17
1095.75
1094.34
1092.97
1091.67
1090.4
1089.14
1087.9
1086.68
1085.44
1084.1
1082.67
1081.28
1079.86
1078.34
1076.82
1075.41
1074.05
1072.68
1071.34
1070.06
1068.84
1067.7
1066.63
1065.61
1064.65
1063.72
1062.82
1061.92
1061
1060.01
1059
1057.99
1056.93
1055.8
1054.66
1053.49
569.976
594.889
619.74
644.399
668.746
692.691
716.266
740.289
764.974
789.955
814.855
839.353
863.179
886.108
907.967
928.619
947.935
965.821
982.257
997.233
1010.75
1023.01
1034.15
1044.25
1053.38
1061.58
1068.88
1075.32
1080.84
1085.46
1089.4
1092.96
1096.29
1099.48
1102.51
1105.4
1108.15
1110.71
1113.08
1115.25
1117.17
1118.73
1119.82
1120.51
1120.93
1121.24
1121.53
1121.8
1122.08
1122.44
1122.94
1123.51
1124.14
1124.87
1125.69
1126.56
1127.36
1127.92
1128
1127.91
1127.78
1127.64
1127.44
1127.18
1127.15
1127.22
1127.37
1127.6
1127.95
1128.44
1128.75
1128.69
1128.5
1128.1
1127.47
1126.71
1125.93
1125.16
1124.43
1123.74
1123.11
1122.53
1122
1121.48
1120.93
1120.28
1119.48
1118.5
1117.35
1116.07
1114.7
1113.3
1111.87
1110.43
1109
1107.59
1106.2
1104.83
1103.48
1102.19
1100.89
1099.51
1098.11
1096.75
1095.33
1093.84
1092.39
1091.02
1089.65
1088.29
1086.97
1085.69
1084.45
1083.27
1082.15
1081.09
1080.08
1079.12
1078.2
1077.31
1076.4
1075.46
1074.53
1073.59
1072.59
1071.55
1070.5
1069.39
879.517
904.158
927.64
949.811
970.561
989.8
1007.43
1023.31
1037.53
1050.28
1061.73
1072.02
1081.24
1089.46
1096.75
1103.13
1108.58
1113.08
1116.84
1120.17
1123.26
1126.18
1128.95
1131.56
1134
1136.27
1138.34
1140.19
1141.72
1142.8
1143.4
1143.72
1143.93
1144.11
1144.27
1144.47
1144.73
1145.07
1145.5
1146.01
1146.63
1147.39
1148.24
1148.97
1149.37
1149.39
1149.27
1149.04
1148.73
1148.45
1148.28
1148.17
1148.19
1148.31
1148.59
1149.08
1149.65
1150.06
1150.04
1149.86
1149.55
1149.1
1148.57
1148.03
1147.59
1147.24
1146.97
1146.78
1146.77
1146.87
1147.02
1147.01
1146.94
1146.72
1146.29
1145.69
1145.01
1144.3
1143.57
1142.83
1142.1
1141.39
1140.71
1140.05
1139.4
1138.7
1137.89
1136.94
1135.83
1134.58
1133.24
1131.82
1130.37
1128.88
1127.38
1125.88
1124.39
1122.89
1121.43
1120.04
1118.63
1117.16
1115.72
1114.31
1112.84
1111.34
1109.9
1108.52
1107.13
1105.76
1104.45
1103.16
1101.9
1100.69
1099.53
1098.42
1097.36
1096.35
1095.39
1094.46
1093.54
1092.62
1091.72
1090.8
1089.85
1088.89
1087.9
1086.86
1116.23
1124.65
1132.01
1138.39
1143.78
1148.13
1151.67
1154.75
1157.56
1160.15
1162.55
1164.76
1166.77
1168.58
1170.19
1171.48
1172.29
1172.56
1172.55
1172.53
1172.49
1172.44
1172.43
1172.48
1172.6
1172.81
1173.12
1173.62
1174.29
1174.97
1175.34
1175.3
1175.09
1174.73
1174.32
1173.91
1173.55
1173.27
1173.08
1173.08
1173.22
1173.6
1174.05
1174.31
1174.27
1174
1173.55
1172.97
1172.37
1171.8
1171.27
1170.83
1170.5
1170.35
1170.41
1170.63
1170.92
1171.05
1171.08
1171.03
1170.81
1170.44
1170.02
1169.62
1169.25
1168.91
1168.62
1168.43
1168.38
1168.4
1168.39
1168.35
1168.21
1167.9
1167.41
1166.79
1166.1
1165.36
1164.59
1163.79
1162.97
1162.16
1161.37
1160.58
1159.77
1158.88
1157.88
1156.74
1155.47
1154.09
1152.63
1151.11
1149.56
1147.98
1146.4
1144.81
1143.2
1141.63
1140.11
1138.57
1137
1135.47
1133.95
1132.4
1130.84
1129.36
1127.92
1126.47
1125.08
1123.76
1122.45
1121.15
1119.91
1118.72
1117.58
1116.46
1115.39
1114.38
1113.4
1112.44
1111.51
1110.6
1109.69
1108.78
1107.86
1106.92
1105.93
1203.6
1205.16
1206.48
1207.49
1207.93
1207.78
1207.48
1207.15
1206.79
1206.45
1206.12
1205.85
1205.67
1205.6
1205.69
1206
1206.43
1206.45
1206.23
1205.76
1205.14
1204.48
1203.84
1203.24
1202.72
1202.33
1202.13
1202.2
1202.44
1202.6
1202.5
1202.18
1201.66
1201.01
1200.28
1199.56
1198.88
1198.27
1197.79
1197.43
1197.37
1197.47
1197.65
1197.77
1197.73
1197.56
1197.25
1196.84
1196.37
1195.88
1195.43
1195.03
1194.73
1194.59
1194.63
1194.78
1194.94
1195.08
1195.12
1195.03
1194.82
1194.51
1194.17
1193.81
1193.45
1193.11
1192.83
1192.63
1192.51
1192.44
1192.36
1192.22
1191.94
1191.51
1190.93
1190.25
1189.5
1188.69
1187.84
1186.94
1186.03
1185.11
1184.19
1183.25
1182.25
1181.16
1179.95
1178.6
1177.15
1175.6
1174
1172.34
1170.67
1168.99
1167.28
1165.56
1163.88
1162.23
1160.55
1158.86
1157.23
1155.59
1153.92
1152.28
1150.72
1149.19
1147.65
1146.22
1144.87
1143.51
1142.15
1140.88
1139.67
1138.48
1137.31
1136.19
1135.12
1134.08
1133.08
1132.11
1131.17
1130.25
1129.36
1128.46
1127.55
1126.62
1125.68
1124.72
1244.65
1244.01
1243.48
1243.12
1243.05
1243.02
1242.75
1242.14
1241.28
1240.31
1239.29
1238.29
1237.38
1236.55
1235.87
1235.48
1235.32
1235.13
1234.77
1234.16
1233.39
1232.53
1231.62
1230.69
1229.81
1229.04
1228.41
1227.98
1227.84
1227.85
1227.88
1227.8
1227.6
1227.28
1226.81
1226.25
1225.67
1225.09
1224.56
1224.09
1223.76
1223.66
1223.7
1223.77
1223.81
1223.78
1223.65
1223.41
1223.06
1222.66
1222.24
1221.83
1221.47
1221.2
1221.08
1221.1
1221.17
1221.3
1221.39
1221.37
1221.26
1221.06
1220.78
1220.46
1220.11
1219.75
1219.42
1219.14
1218.91
1218.74
1218.6
1218.42
1218.14
1217.72
1217.16
1216.48
1215.7
1214.85
1213.94
1212.97
1211.96
1210.93
1209.89
1208.82
1207.71
1206.5
1205.19
1203.76
1202.2
1200.55
1198.83
1197.06
1195.26
1193.46
1191.62
1189.78
1187.98
1186.19
1184.37
1182.56
1180.82
1179.06
1177.25
1175.53
1173.88
1172.22
1170.57
1169.08
1167.67
1166.22
1164.8
1163.49
1162.26
1161.02
1159.81
1158.62
1157.49
1156.4
1155.35
1154.34
1153.37
1152.43
1151.53
1150.64
1149.76
1148.87
1147.98
1147.07
1278.07
1276.68
1275.33
1274.13
1273.2
1272.49
1271.81
1270.98
1270
1268.85
1267.61
1266.36
1265.13
1263.99
1263
1262.2
1261.65
1261.33
1261.09
1260.8
1260.41
1259.96
1259.36
1258.68
1257.96
1257.27
1256.63
1256.08
1255.71
1255.53
1255.48
1255.45
1255.37
1255.23
1254.99
1254.62
1254.17
1253.68
1253.17
1252.67
1252.23
1251.94
1251.79
1251.76
1251.76
1251.75
1251.7
1251.57
1251.34
1251.03
1250.67
1250.3
1249.93
1249.61
1249.39
1249.27
1249.28
1249.34
1249.42
1249.44
1249.39
1249.26
1249.06
1248.78
1248.45
1248.1
1247.76
1247.43
1247.13
1246.88
1246.67
1246.43
1246.12
1245.69
1245.13
1244.45
1243.65
1242.75
1241.77
1240.73
1239.63
1238.5
1237.34
1236.15
1234.91
1233.59
1232.17
1230.63
1228.97
1227.21
1225.36
1223.45
1221.52
1219.57
1217.59
1215.61
1213.68
1211.74
1209.76
1207.87
1206.01
1204.09
1202.18
1200.39
1198.61
1196.79
1195.05
1193.48
1191.96
1190.43
1188.93
1187.55
1186.28
1185.03
1183.75
1182.51
1181.34
1180.2
1179.11
1178.05
1177.04
1176.08
1175.16
1174.28
1173.42
1172.57
1171.72
1170.86
1304.23
1302.64
1301.14
1299.85
1298.84
1298.05
1297.39
1296.73
1296.02
1295.23
1294.36
1293.43
1292.5
1291.62
1290.82
1290.15
1289.68
1289.37
1289.14
1288.92
1288.68
1288.36
1287.92
1287.41
1286.86
1286.31
1285.77
1285.3
1284.96
1284.76
1284.65
1284.57
1284.47
1284.33
1284.11
1283.79
1283.39
1282.94
1282.47
1282.02
1281.63
1281.34
1281.18
1281.09
1281.04
1281
1280.92
1280.77
1280.55
1280.27
1279.95
1279.61
1279.3
1279.03
1278.84
1278.76
1278.77
1278.82
1278.85
1278.84
1278.77
1278.62
1278.4
1278.11
1277.78
1277.44
1277.09
1276.75
1276.44
1276.16
1275.86
1275.51
1275.07
1274.5
1273.8
1272.98
1272.04
1271
1269.88
1268.69
1267.45
1266.18
1264.86
1263.5
1262.06
1260.53
1258.88
1257.12
1255.24
1253.26
1251.21
1249.13
1247.02
1244.88
1242.78
1240.69
1238.55
1236.47
1234.49
1232.47
1230.4
1228.47
1226.57
1224.58
1222.66
1220.85
1219.13
1217.5
1215.91
1214.33
1212.84
1211.54
1210.23
1208.9
1207.64
1206.43
1205.25
1204.11
1203.02
1201.97
1200.99
1200.07
1199.19
1198.35
1197.53
1196.72
1195.91
1331.74
1330.47
1329.22
1328.03
1326.98
1326.12
1325.43
1324.86
1324.34
1323.83
1323.27
1322.64
1321.97
1321.28
1320.61
1319.98
1319.45
1319.05
1318.76
1318.55
1318.38
1318.17
1317.91
1317.59
1317.19
1316.75
1316.28
1315.82
1315.42
1315.1
1314.88
1314.73
1314.6
1314.47
1314.31
1314.08
1313.78
1313.41
1312.99
1312.56
1312.15
1311.8
1311.53
1311.35
1311.24
1311.17
1311.1
1311.01
1310.86
1310.65
1310.39
1310.11
1309.83
1309.56
1309.35
1309.21
1309.17
1309.19
1309.22
1309.23
1309.2
1309.11
1308.94
1308.7
1308.41
1308.08