/*--------------------------------*- C++ -*----------------------------------*\
| =========                 |                                                 |
| \\      /  F ield         | OpenFOAM: The Open Source CFD Toolbox           |
|  \\    /   O peration     | Version:  v1706                                 |
|   \\  /    A nd           | Web:      www.OpenFOAM.com                      |
|    \\/     M anipulation  |                                                 |
\*---------------------------------------------------------------------------*/
FoamFile
{
    version     2.0;
    format      ascii;
    class       volScalarField;
    location    "1.6e-05";
    object      Tv;
}
// * * * * * * * * * * * * * * * * * * * * * * * * * * * * * * * * * * * * * //

dimensions      [0 0 0 1 0 0 0];


internalField   nonuniform List<scalar> 
29871
(
144.4
144.4
144.4
144.4
144.4
144.4
144.4
144.4
144.4
144.4
144.4
144.4
144.4
144.4
144.4
144.4
144.4
144.4
144.4
144.4
144.4
144.4
144.4
144.4
144.4
144.4
144.4
144.4
144.4
144.4
144.4
144.4
144.4
144.4
144.4
144.4
144.4
144.4
144.4
144.4
144.4
144.4
144.4
144.4
144.4
144.4
144.4
144.4
144.4
144.4
144.4
144.4
144.4
144.4
144.4
144.4
144.4
144.4
144.4
144.4
144.4
144.4
144.4
144.4
144.4
144.4
144.4
144.4
144.4
144.4
144.4
144.4
144.4
144.4
144.4
144.4
144.4
144.4
144.4
144.4
144.4
144.4
144.4
144.4
144.4
144.4
144.4
144.4
144.4
144.4
144.4
144.4
144.4
144.4
144.4
144.4
144.4
144.4
144.4
144.4
144.4
144.4
144.4
144.4
144.4
144.4
144.4
144.4
144.4
144.4
144.4
144.4
144.4
144.4
144.4
144.4
144.4
144.4
144.4
144.4
144.4
144.4
144.4
144.4
144.4
144.4
144.4
144.4
144.4
144.4
144.4
144.4
144.4
144.4
144.4
144.4
144.4
144.4
144.4
144.4
144.4
144.4
144.4
144.4
144.4
144.4
144.4
144.4
144.4
144.4
144.4
144.4
144.4
144.4
144.4
144.4
144.4
144.4
144.4
144.4
144.4
144.4
144.4
144.4
144.4
144.4
144.4
144.4
144.4
144.4
144.4
144.4
144.4
144.4
144.4
144.4
144.4
144.4
144.4
144.4
144.4
144.4
144.4
144.4
144.4
144.4
144.4
144.4
144.4
144.4
144.4
144.4
144.4
144.4
144.4
144.4
144.4
144.4
144.4
144.4
144.4
144.4
144.4
144.4
144.4
144.4
144.4
144.4
144.4
144.4
144.4
144.4
144.4
144.4
144.4
144.4
144.4
144.4
144.4
144.4
144.4
144.4
144.4
144.4
144.4
144.4
144.4
144.4
144.4
144.4
144.4
144.4
144.4
144.4
144.4
144.4
144.4
144.4
144.4
144.4
144.4
144.4
144.4
144.4
144.4
144.4
144.4
144.4
144.4
144.4
144.4
144.4
144.4
144.4
144.4
144.4
144.4
144.4
144.4
144.4
144.4
144.4
144.4
144.4
144.4
144.4
144.4
144.4
144.4
144.4
144.4
144.4
144.4
144.4
144.4
144.4
144.4
144.4
144.4
144.4
144.4
144.4
144.4
144.4
144.4
144.4
144.4
144.4
144.4
144.4
144.4
144.4
144.4
144.4
144.4
144.4
144.4
144.4
144.4
144.4
144.4
144.4
144.4
144.4
144.4
144.4
144.4
144.4
144.4
144.4
144.4
144.4
144.4
144.4
144.4
144.4
144.4
144.4
144.4
144.4
144.4
144.4
144.4
144.4
144.4
144.4
144.4
144.4
144.4
144.4
144.4
144.4
144.4
144.4
144.4
144.4
144.4
144.4
144.4
144.4
144.4
144.4
144.4
144.4
144.4
144.4
144.4
144.4
144.4
144.4
144.4
144.4
144.4
144.4
144.4
144.4
144.4
144.4
144.4
144.4
144.4
144.4
144.4
144.4
144.4
144.4
144.4
144.4
144.4
144.4
144.4
144.4
144.4
144.4
144.4
144.4
144.4
144.4
144.4
144.4
144.4
144.4
144.4
144.4
144.4
144.4
144.4
144.4
144.4
144.4
144.4
144.4
144.4
144.4
144.4
144.4
144.4
144.4
144.4
144.4
144.4
144.4
144.4
144.4
144.4
144.4
144.4
144.4
144.4
144.4
144.4
144.4
144.4
144.4
144.4
144.4
144.4
144.4
144.4
144.4
144.4
144.4
144.4
144.4
144.4
144.4
144.4
144.4
144.4
144.4
144.4
144.4
144.4
144.4
144.4
144.4
144.4
144.4
144.4
144.4
144.4
144.4
144.4
144.4
144.4
144.4
144.4
144.4
144.4
144.4
144.4
144.4
144.4
144.4
144.4
144.4
144.4
144.4
144.4
144.4
144.4
144.4
144.4
144.4
144.4
144.4
144.4
144.4
144.4
144.4
144.4
144.4
144.4
144.4
144.4
144.4
144.4
144.4
144.4
144.4
144.4
144.4
144.4
144.4
144.4
144.4
144.4
144.4
144.4
144.4
144.4
144.4
144.4
144.4
144.4
144.4
144.4
144.4
144.4
144.4
144.4
144.4
144.4
144.4
144.4
144.4
144.4
144.4
144.4
144.4
144.4
144.4
144.4
144.4
144.4
144.4
144.4
144.4
144.4
144.4
144.4
144.4
144.4
144.4
144.4
144.4
144.4
144.4
144.4
144.4
144.4
144.4
144.4
144.4
144.4
144.4
144.4
144.4
144.4
144.4
144.4
144.4
144.4
144.4
144.4
144.4
144.4
144.4
144.4
144.4
144.4
144.4
144.4
144.4
144.4
144.4
144.4
144.4
144.4
144.4
144.4
144.4
144.4
144.4
144.4
144.4
144.4
144.4
144.4
144.4
144.4
144.4
144.4
144.4
144.4
144.4
144.4
144.4
144.4
144.4
144.4
144.4
144.4
144.4
144.4
144.4
144.4
144.4
144.4
144.4
144.4
144.4
144.4
144.4
144.4
144.4
144.4
144.4
144.4
144.4
144.4
144.4
144.4
144.4
144.4
144.4
144.4
144.4
144.4
144.4
144.4
144.4
144.4
144.4
144.4
144.4
144.4
144.4
144.4
144.4
144.4
144.4
144.4
144.4
144.4
144.4
144.4
144.4
144.4
144.4
144.4
144.4
144.4
144.4
144.4
144.4
144.4
144.4
144.4
144.4
144.4
144.4
144.4
144.4
144.4
144.4
144.4
144.4
144.4
144.4
144.4
144.4
144.4
144.4
144.4
144.4
144.4
144.4
144.4
144.4
144.4
144.4
144.4
144.4
144.4
144.4
144.4
144.4
144.4
144.4
144.4
144.4
144.4
144.4
144.4
144.4
144.4
144.4
144.4
144.4
144.4
144.4
144.4
144.4
144.4
144.4
144.4
144.4
144.4
144.4
144.4
144.4
144.4
144.4
144.4
144.4
144.4
144.4
144.4
144.4
144.4
144.4
144.4
144.4
144.4
144.4
144.4
144.4
144.4
144.4
144.4
144.4
144.4
144.4
144.4
144.4
144.4
144.4
144.4
144.4
144.4
144.4
144.4
144.4
144.4
144.4
144.4
144.4
144.4
144.4
144.4
144.4
144.4
144.4
144.4
144.4
144.4
144.4
144.4
144.4
144.4
144.4
144.4
144.4
144.4
144.4
144.4
144.4
144.4
144.4
144.4
144.4
144.4
144.4
144.4
144.4
144.4
144.4
144.4
144.4
144.4
144.4
144.4
144.4
144.4
144.4
144.4
144.4
144.4
144.4
144.4
144.4
144.4
144.4
144.4
144.4
144.4
144.4
144.4
144.4
144.4
144.4
144.4
144.4
144.4
144.4
144.4
144.4
144.4
144.4
144.4
144.4
144.4
144.4
144.4
144.4
144.4
144.4
144.4
144.4
144.4
144.4
144.4
144.4
144.4
144.4
144.4
144.4
144.4
144.4
144.4
144.4
144.4
144.4
144.4
144.4
144.4
144.4
144.4
144.4
144.4
144.4
144.4
144.4
144.4
144.4
144.4
144.4
144.4
144.4
144.4
144.4
144.4
144.4
144.4
144.4
144.4
144.4
144.4
144.4
144.4
144.4
144.4
144.4
144.4
144.4
144.4
144.4
144.4
144.4
144.4
144.4
144.4
144.4
144.4
144.4
144.4
144.4
144.4
144.4
144.4
144.4
144.4
144.4
144.4
144.4
144.4
144.4
144.4
144.4
144.4
144.4
144.4
144.4
144.4
144.4
144.4
144.4
144.4
144.4
144.4
144.4
144.4
144.4
144.4
144.4
144.4
144.4
144.4
144.4
144.4
144.4
144.4
144.4
144.4
144.4
144.4
144.4
144.4
144.4
144.4
144.4
144.4
144.4
144.4
144.4
144.4
144.4
144.4
144.4
144.4
144.4
144.4
144.4
144.4
144.4
144.4
144.4
144.4
144.4
144.4
144.4
144.4
144.4
144.4
144.4
144.4
144.4
144.4
144.4
144.4
144.4
144.4
144.4
144.4
144.4
144.4
144.4
144.4
144.4
144.4
144.4
144.4
144.4
144.4
144.4
144.4
144.4
144.4
144.4
144.4
144.4
144.4
144.4
144.4
144.4
144.4
144.4
144.4
144.4
144.4
144.4
144.4
144.4
144.4
144.4
144.4
144.4
144.4
144.4
144.4
144.4
144.4
144.4
144.4
144.4
144.4
144.4
144.4
144.4
144.4
144.4
144.4
144.4
144.4
144.4
144.4
144.4
144.4
144.4
144.4
144.4
144.4
144.4
144.4
144.4
144.4
144.4
144.4
144.4
144.4
144.4
144.4
144.4
144.4
144.4
144.4
144.4
144.4
144.4
144.4
144.4
144.4
144.4
144.4
144.4
144.4
144.4
144.4
144.4
144.4
144.4
144.4
144.4
144.4
144.4
144.4
144.4
144.4
144.4
144.4
144.4
144.4
144.4
144.4
144.4
144.4
144.4
144.4
144.4
144.4
144.4
144.4
144.4
144.4
144.4
144.4
144.4
144.4
144.4
144.4
144.4
144.4
144.4
144.4
144.4
144.4
144.4
144.4
144.4
144.4
144.4
144.4
144.4
144.4
144.4
144.4
144.4
144.4
144.4
144.4
144.4
144.4
144.4
144.4
144.4
144.4
144.4
144.4
144.4
144.4
144.4
144.4
144.4
144.4
144.4
144.4
144.4
144.4
144.4
144.4
144.4
144.4
144.4
144.4
144.4
144.4
144.4
144.4
144.4
144.4
144.4
144.4
144.4
144.4
144.4
144.4
144.4
144.4
144.4
144.4
144.4
144.4
144.4
144.4
144.4
144.4
144.4
144.4
144.4
144.4
144.4
144.4
144.4
144.4
144.4
144.4
144.4
144.4
144.4
144.4
144.4
144.4
144.4
144.4
144.4
144.4
144.4
144.4
144.4
144.4
144.4
144.4
144.4
144.4
144.4
144.4
144.4
144.4
144.4
144.4
144.4
144.4
144.4
144.4
144.4
144.4
144.4
144.4
144.4
144.4
144.4
144.4
144.4
144.4
144.4
144.4
144.4
144.4
144.4
144.4
144.4
144.4
144.4
144.4
144.4
144.4
144.4
144.4
144.4
144.4
144.4
144.4
144.4
144.4
144.4
144.4
144.4
144.4
144.4
144.4
144.4
144.4
144.4
144.4
144.4
144.4
144.4
144.4
144.4
144.4
144.4
144.4
144.4
144.4
144.4
144.4
144.4
144.4
144.4
144.4
144.4
144.4
144.4
144.4
144.4
144.4
144.4
144.4
144.4
144.4
144.4
144.4
144.4
144.4
144.4
144.4
144.4
144.4
144.4
144.4
144.4
144.4
144.4
144.4
144.4
144.4
144.4
144.4
144.4
144.4
144.4
144.4
144.4
144.4
144.4
144.4
144.4
144.4
144.4
144.4
144.4
144.4
144.4
144.4
144.4
144.4
144.4
144.4
144.4
144.4
144.4
144.4
144.4
144.4
144.4
144.4
144.4
144.4
144.4
144.4
144.4
144.4
144.4
144.4
144.4
144.4
144.4
144.4
144.4
144.4
144.4
144.4
144.4
144.4
144.4
144.4
144.4
144.4
144.4
144.4
144.4
144.4
144.4
144.4
144.4
144.4
144.4
144.4
144.4
144.4
144.4
144.4
144.4
144.4
144.4
144.4
144.4
144.4
144.4
144.4
144.4
144.4
144.4
144.4
144.4
144.4
144.4
144.4
144.4
144.4
144.4
144.4
144.4
144.4
144.4
144.4
144.4
144.4
144.4
144.4
144.4
144.4
144.4
144.4
144.4
144.4
144.4
144.4
144.4
144.4
144.4
144.4
144.4
144.4
144.4
144.4
144.4
144.4
144.4
144.4
144.4
144.4
144.4
144.4
144.4
144.4
144.4
144.4
144.4
144.4
144.4
144.4
144.4
144.4
144.4
144.4
144.4
144.4
144.4
144.4
144.4
144.4
144.4
144.4
144.4
144.4
144.4
144.4
144.4
144.4
144.4
144.4
144.4
144.4
144.4
144.4
144.4
144.4
144.4
144.4
144.4
144.4
144.4
144.4
144.4
144.4
144.4
144.4
144.4
144.4
144.4
144.4
144.4
144.4
144.4
144.4
144.4
144.4
144.4
144.4
144.4
144.4
144.4
144.4
144.4
144.4
144.4
144.4
144.4
144.4
144.4
144.4
144.4
144.4
144.4
144.4
144.4
144.4
144.4
144.4
144.4
144.4
144.4
144.4
144.4
144.4
144.4
144.4
144.4
144.4
144.4
144.4
144.4
144.4
144.4
144.4
144.4
144.4
144.4
144.4
144.4
144.4
144.4
144.4
144.4
144.4
144.4
144.4
144.4
144.4
144.4
144.4
144.4
144.4
144.4
144.4
144.4
144.4
144.4
144.4
144.4
144.4
144.4
144.4
144.4
144.4
144.4
144.4
144.4
144.4
144.4
144.4
144.4
144.4
144.4
144.4
144.4
144.4
144.4
144.4
144.4
144.4
144.4
144.4
144.4
144.4
144.4
144.4
144.4
144.4
144.4
144.4
144.4
144.4
144.4
144.4
144.4
144.4
144.4
144.4
144.4
144.4
144.4
144.4
144.4
144.4
144.4
144.4
144.4
144.4
144.4
144.4
144.4
144.4
144.4
144.4
144.4
144.4
144.4
144.4
144.4
144.4
144.4
144.4
144.4
144.4
144.4
144.4
144.4
144.4
144.4
144.4
144.4
144.4
144.4
144.4
144.4
144.4
144.4
144.4
144.4
144.4
144.4
144.4
144.4
144.4
144.4
144.4
144.4
144.4
144.4
144.4
144.4
144.4
144.4
144.4
144.4
144.4
144.4
144.4
144.4
144.4
144.4
144.4
144.4
144.4
144.4
144.4
144.4
144.4
144.4
144.4
144.4
144.4
144.4
144.4
144.4
144.4
144.4
144.4
144.4
144.4
144.4
144.4
144.4
144.4
144.4
144.4
144.4
144.4
144.4
144.4
144.4
144.4
144.4
144.4
144.4
144.4
144.4
144.4
144.4
144.4
144.4
144.4
144.4
144.4
144.4
144.4
144.4
144.4
144.4
144.4
144.4
144.4
144.4
144.4
144.4
144.4
144.4
144.4
144.401
144.401
144.401
144.401
144.401
144.401
144.401
144.4
144.4
144.4
144.4
144.4
144.4
144.4
144.4
144.4
144.4
144.4
144.4
144.4
144.4
144.4
144.4
144.4
144.4
144.4
144.4
144.4
144.4
144.4
144.4
144.4
144.4
144.4
144.4
144.4
144.4
144.4
144.4
144.4
144.4
144.4
144.4
144.4
144.4
144.4
144.4
144.4
144.4
144.4
144.4
144.4
144.4
144.4
144.4
144.4
144.4
144.4
144.4
144.4
144.4
144.4
144.4
144.4
144.4
144.4
144.4
144.4
144.4
144.4
144.4
144.4
144.4
144.4
144.4
144.4
144.4
144.4
144.4
144.4
144.4
144.4
144.4
144.401
144.401
144.401
144.401
144.401
144.401
144.401
144.401
144.401
144.401
144.401
144.401
144.402
144.402
144.402
144.402
144.402
144.402
144.403
144.403
144.403
144.403
144.403
144.403
144.404
144.404
144.404
144.404
144.405
144.405
144.405
144.406
144.406
144.406
144.407
144.407
144.408
144.408
144.409
144.409
144.4
144.4
144.4
144.4
144.4
144.4
144.4
144.4
144.4
144.4
144.4
144.4
144.4
144.4
144.4
144.4
144.4
144.4
144.4
144.4
144.4
144.4
144.4
144.4
144.4
144.4
144.4
144.4
144.4
144.4
144.4
144.4
144.4
144.4
144.4
144.4
144.4
144.4
144.4
144.4
144.4
144.4
144.4
144.4
144.4
144.4
144.4
144.4
144.4
144.4
144.4
144.4
144.4
144.4
144.4
144.4
144.4
144.4
144.4
144.4
144.4
144.4
144.401
144.401
144.401
144.401
144.401
144.401
144.401
144.401
144.401
144.402
144.402
144.402
144.402
144.402
144.403
144.403
144.403
144.404
144.404
144.405
144.405
144.406
144.407
144.407
144.408
144.409
144.41
144.41
144.411
144.413
144.414
144.415
144.417
144.418
144.42
144.422
144.424
144.425
144.427
144.429
144.431
144.433
144.435
144.437
144.439
144.441
144.443
144.446
144.449
144.452
144.456
144.46
144.465
144.47
144.475
144.48
144.486
144.491
144.497
144.503
144.509
144.4
144.4
144.4
144.4
144.4
144.4
144.4
144.4
144.4
144.4
144.4
144.4
144.4
144.4
144.4
144.4
144.4
144.4
144.4
144.4
144.4
144.4
144.4
144.4
144.4
144.4
144.4
144.4
144.4
144.4
144.4
144.4
144.4
144.4
144.4
144.4
144.4
144.4
144.4
144.4
144.4
144.4
144.401
144.401
144.401
144.401
144.401
144.401
144.401
144.401
144.401
144.402
144.402
144.402
144.402
144.403
144.403
144.403
144.404
144.404
144.405
144.405
144.406
144.406
144.407
144.408
144.409
144.411
144.412
144.413
144.415
144.417
144.419
144.421
144.424
144.426
144.429
144.433
144.437
144.442
144.448
144.453
144.46
144.467
144.474
144.481
144.489
144.498
144.506
144.516
144.527
144.539
144.553
144.568
144.584
144.602
144.621
144.64
144.66
144.68
144.7
144.721
144.741
144.762
144.782
144.804
144.825
144.847
144.87
144.896
144.926
144.961
145.001
145.045
145.092
145.141
145.192
145.244
145.297
145.351
145.406
145.463
145.521
144.4
144.4
144.4
144.4
144.4
144.4
144.4
144.4
144.4
144.4
144.4
144.4
144.4
144.4
144.4
144.4
144.4
144.4
144.4
144.4
144.4
144.4
144.4
144.401
144.401
144.401
144.401
144.401
144.401
144.401
144.401
144.401
144.402
144.402
144.402
144.402
144.403
144.403
144.403
144.404
144.404
144.405
144.406
144.406
144.407
144.408
144.409
144.41
144.411
144.413
144.414
144.416
144.418
144.421
144.424
144.427
144.43
144.434
144.438
144.443
144.448
144.454
144.46
144.468
144.477
144.487
144.499
144.512
144.527
144.543
144.56
144.579
144.6
144.623
144.648
144.677
144.711
144.749
144.793
144.843
144.897
144.956
145.02
145.087
145.157
145.23
145.305
145.383
145.465
145.553
145.651
145.762
145.884
146.018
146.159
146.307
146.458
146.61
146.761
146.911
147.058
147.202
147.344
147.484
147.623
147.761
147.898
148.035
148.175
148.327
148.501
148.7
148.92
149.152
149.389
149.627
149.862
150.094
150.321
150.546
150.769
150.99
151.209
144.4
144.4
144.4
144.4
144.4
144.4
144.401
144.401
144.401
144.401
144.401
144.401
144.401
144.401
144.402
144.402
144.402
144.402
144.403
144.403
144.404
144.404
144.405
144.405
144.406
144.407
144.408
144.409
144.41
144.412
144.413
144.415
144.417
144.419
144.421
144.424
144.427
144.431
144.435
144.439
144.444
144.45
144.457
144.464
144.472
144.481
144.491
144.502
144.515
144.529
144.546
144.565
144.587
144.611
144.639
144.669
144.703
144.74
144.78
144.825
144.875
144.932
144.997
145.072
145.157
145.254
145.362
145.48
145.61
145.749
145.898
146.055
146.222
146.402
146.6
146.823
147.072
147.349
147.651
147.973
148.312
148.661
149.017
149.374
149.73
150.082
150.429
150.773
151.119
151.478
151.863
152.276
152.708
153.15
153.59
154.022
154.438
154.836
155.214
155.57
155.906
156.223
156.524
156.811
157.087
157.353
157.61
157.857
158.101
158.355
158.64
158.955
159.289
159.626
159.958
160.28
160.589
160.884
161.167
161.44
161.707
161.967
162.219
162.461
162.692
144.402
144.402
144.403
144.403
144.404
144.405
144.405
144.406
144.407
144.408
144.409
144.411
144.412
144.414
144.416
144.419
144.421
144.424
144.428
144.432
144.436
144.441
144.447
144.453
144.46
144.468
144.478
144.488
144.5
144.513
144.528
144.545
144.563
144.584
144.607
144.633
144.663
144.697
144.735
144.779
144.827
144.882
144.942
145.008
145.081
145.161
145.249
145.347
145.458
145.584
145.725
145.884
146.06
146.254
146.464
146.691
146.933
147.188
147.458
147.745
148.057
148.4
148.778
149.191
149.637
150.111
150.607
151.119
151.642
152.17
152.698
153.225
153.752
154.29
154.854
155.455
156.088
156.745
157.412
158.078
158.734
159.371
159.985
160.572
161.13
161.661
162.166
162.65
163.121
163.598
164.096
164.611
165.127
165.632
166.117
166.576
167.007
167.408
167.78
168.124
168.442
168.738
169.014
169.275
169.522
169.757
169.979
170.19
170.392
170.593
170.816
171.057
171.304
171.551
171.792
172.027
172.253
172.469
172.676
172.878
173.076
173.272
173.464
173.65
173.829
144.42
144.424
144.428
144.432
144.438
144.444
144.451
144.458
144.467
144.478
144.489
144.503
144.518
144.535
144.555
144.577
144.602
144.63
144.662
144.698
144.737
144.782
144.833
144.89
144.954
145.026
145.108
145.199
145.3
145.412
145.535
145.669
145.815
145.976
146.154
146.351
146.569
146.811
147.075
147.364
147.675
148.008
148.36
148.73
149.115
149.518
149.944
150.398
150.885
151.407
151.961
152.543
153.147
153.768
154.4
155.035
155.671
156.302
156.932
157.57
158.229
158.919
159.64
160.384
161.14
161.899
162.651
163.391
164.111
164.808
165.481
166.13
166.761
167.389
168.035
168.705
169.39
170.076
170.75
171.404
172.033
172.633
173.201
173.737
174.24
174.715
175.163
175.59
175.999
176.408
176.83
177.252
177.661
178.053
178.424
178.773
179.099
179.402
179.683
179.941
180.18
180.401
180.607
180.801
180.985
181.16
181.325
181.479
181.624
181.764
181.908
182.057
182.207
182.357
182.508
182.657
182.803
182.943
183.078
183.209
183.339
183.467
183.593
183.715
183.832
144.563
144.59
144.621
144.657
144.699
144.746
144.799
144.86
144.928
145.005
145.092
145.19
145.301
145.425
145.564
145.719
145.89
146.079
146.287
146.512
146.757
147.024
147.313
147.627
147.969
148.338
148.736
149.16
149.61
150.084
150.578
151.089
151.616
152.16
152.726
153.317
153.937
154.584
155.255
155.947
156.654
157.37
158.091
158.81
159.523
160.229
160.933
161.647
162.381
163.136
163.909
164.694
165.482
166.268
167.043
167.804
168.545
169.263
169.959
170.637
171.31
171.998
172.705
173.426
174.151
174.869
175.575
176.263
176.928
177.568
178.181
178.769
179.333
179.877
180.413
180.966
181.531
182.094
182.647
183.187
183.709
184.212
184.693
185.152
185.587
185.999
186.389
186.762
187.118
187.459
187.792
188.12
188.441
188.748
189.04
189.317
189.577
189.822
190.049
190.258
190.45
190.625
190.785
190.932
191.066
191.191
191.305
191.41
191.504
191.588
191.667
191.746
191.827
191.91
191.997
192.087
192.18
192.273
192.364
192.451
192.534
192.615
192.694
192.77
192.844
192.916
145.767
145.971
146.2
146.455
146.737
147.046
147.383
147.747
148.14
148.562
149.014
149.497
150.011
150.556
151.129
151.729
152.352
152.995
153.654
154.328
155.014
155.717
156.438
157.179
157.939
158.714
159.503
160.3
161.102
161.902
162.698
163.485
164.262
165.037
165.817
166.608
167.41
168.22
169.033
169.844
170.647
171.438
172.213
172.966
173.697
174.407
175.104
175.803
176.514
177.234
177.956
178.676
179.387
180.084
180.764
181.423
182.06
182.672
183.262
183.835
184.4
184.98
185.57
186.16
186.746
187.324
187.89
188.444
188.983
189.504
190.008
190.494
190.966
191.425
191.875
192.329
192.784
193.237
193.682
194.118
194.544
194.957
195.356
195.739
196.106
196.455
196.787
197.105
197.409
197.698
197.974
198.239
198.493
198.735
198.965
199.182
199.386
199.577
199.754
199.916
200.064
200.197
200.315
200.418
200.507
200.585
200.654
200.712
200.759
200.797
200.83
200.86
200.889
200.921
200.958
201
201.048
201.101
201.155
201.207
201.256
201.303
201.35
201.396
201.441
201.486
201.53
201.573
151.863
152.588
153.342
154.122
154.924
155.743
156.576
157.419
158.271
159.135
160.01
160.896
161.791
162.693
163.598
164.502
165.402
166.294
167.175
168.043
168.902
169.759
170.616
171.474
172.331
173.184
174.029
174.864
175.684
176.486
177.268
178.026
178.764
179.49
180.217
180.945
181.674
182.4
183.118
183.824
184.517
185.192
185.847
186.48
187.09
187.68
188.256
188.838
189.427
190.016
190.6
191.178
191.748
192.309
192.858
193.393
193.913
194.417
194.907
195.387
195.859
196.335
196.815
197.296
197.775
198.249
198.719
199.182
199.638
200.083
200.517
200.941
201.355
201.76
202.157
202.55
202.942
203.33
203.714
204.09
204.458
204.816
205.165
205.501
205.826
206.136
206.431
206.714
206.983
207.237
207.477
207.703
207.916
208.115
208.302
208.477
208.639
208.79
208.93
209.056
209.17
209.27
209.357
209.426
209.481
209.526
209.561
209.586
209.6
209.606
209.607
209.603
209.598
209.594
209.595
209.6
209.611
209.632
209.656
209.681
209.704
209.726
209.75
209.775
209.8
209.828
209.858
209.889
164.772
165.827
166.879
167.925
168.96
169.982
170.987
171.975
172.95
173.915
174.87
175.817
176.752
177.673
178.579
179.466
180.333
181.177
181.997
182.794
183.573
184.344
185.108
185.864
186.611
187.345
188.067
188.772
189.46
190.129
190.775
191.4
192.004
192.599
193.197
193.793
194.384
194.967
195.543
196.11
196.667
197.213
197.746
198.263
198.765
199.255
199.734
200.212
200.694
201.176
201.655
202.132
202.606
203.076
203.541
203.999
204.447
204.884
205.314
205.739
206.159
206.575
206.993
207.414
207.833
208.25
208.664
209.075
209.482
209.882
210.273
210.659
211.038
211.408
211.772
212.131
212.487
212.838
213.184
213.523
213.854
214.177
214.492
214.799
215.095
215.38
215.65
215.907
216.152
216.382
216.599
216.801
216.989
217.164
217.324
217.471
217.606
217.729
217.841
217.94
218.025
218.099
218.159
218.201
218.228
218.245
218.253
218.25
218.237
218.217
218.191
218.16
218.128
218.096
218.065
218.041
218.025
218.017
218.015
218.015
218.016
218.02
218.027
218.037
218.049
218.065
218.085
218.108
180.146
181.187
182.209
183.205
184.174
185.114
186.026
186.91
187.772
188.619
189.45
190.263
191.059
191.836
192.594
193.331
194.047
194.741
195.411
196.059
196.693
197.322
197.942
198.553
199.153
199.742
200.32
200.888
201.444
201.987
202.515
203.028
203.527
204.018
204.506
204.994
205.48
205.962
206.441
206.916
207.387
207.852
208.31
208.757
209.195
209.625
210.049
210.47
210.892
211.315
211.737
212.158
212.578
212.997
213.414
213.826
214.231
214.627
215.019
215.41
215.797
216.179
216.561
216.946
217.331
217.712
218.092
218.471
218.847
219.219
219.586
219.948
220.304
220.651
220.992
221.331
221.666
221.996
222.321
222.639
222.95
223.254
223.55
223.838
224.117
224.385
224.639
224.879
225.105
225.318
225.517
225.702
225.872
226.028
226.17
226.297
226.411
226.512
226.601
226.675
226.735
226.784
226.82
226.84
226.841
226.835
226.819
226.793
226.756
226.712
226.662
226.608
226.552
226.495
226.44
226.391
226.349
226.315
226.288
226.265
226.247
226.236
226.231
226.23
226.233
226.238
226.249
226.266
226.289
195.477
196.326
197.148
197.944
198.712
199.454
200.172
200.873
201.561
202.234
202.89
203.528
204.152
204.76
205.354
205.935
206.5
207.049
207.582
208.102
208.616
209.124
209.626
210.123
210.614
211.1
211.58
212.055
212.522
212.979
213.426
213.862
214.293
214.721
215.149
215.576
216.002
216.427
216.85
217.272
217.69
218.103
218.508
218.905
219.297
219.685
220.072
220.459
220.847
221.233
221.619
222.006
222.393
222.78
223.164
223.544
223.917
224.285
224.653
225.017
225.377
225.737
226.101
226.466
226.828
227.188
227.548
227.908
228.266
228.621
228.971
229.315
229.649
229.977
230.302
230.624
230.942
231.254
231.56
231.859
232.15
232.434
232.71
232.976
233.232
233.474
233.702
233.915
234.114
234.299
234.47
234.626
234.767
234.893
235.003
235.098
235.181
235.249
235.302
235.339
235.366
235.376
235.372
235.355
235.326
235.288
235.238
235.179
235.112
235.04
234.963
234.885
234.806
234.728
234.655
234.59
234.532
234.483
234.44
234.405
234.378
234.359
234.347
234.343
234.344
234.349
234.358
234.377
207.86
208.544
209.208
209.853
210.48
211.088
211.678
212.253
212.816
213.368
213.91
214.441
214.964
215.477
215.982
216.48
216.968
217.444
217.908
218.361
218.807
219.25
219.69
220.128
220.563
220.996
221.425
221.852
222.273
222.685
223.087
223.483
223.875
224.266
224.656
225.046
225.436
225.827
226.217
226.607
226.996
227.382
227.762
228.135
228.503
228.868
229.231
229.595
229.959
230.324
230.688
231.055
231.423
231.793
232.162
232.529
232.892
233.25
233.605
233.956
234.304
234.652
235.003
235.354
235.705
236.055
236.405
236.755
237.104
237.452
237.797
238.135
238.463
238.785
239.102
239.417
239.727
240.032
240.33
240.62
240.903
241.177
241.444
241.702
241.948
242.18
242.397
242.6
242.787
242.96
243.117
243.26
243.387
243.498
243.592
243.67
243.734
243.784
243.815
243.831
243.831
243.821
243.796
243.757
243.706
243.644
243.572
243.491
243.403
243.308
243.21
243.11
243.009
242.91
242.815
242.728
242.649
242.579
242.517
242.465
242.422
242.389
242.366
242.354
242.35
242.352
242.357
242.37
219.287
219.851
220.404
220.944
221.473
221.987
222.486
222.973
223.452
223.924
224.391
224.852
225.308
225.758
226.204
226.642
227.07
227.485
227.891
228.294
228.694
229.093
229.491
229.888
230.284
230.679
231.073
231.465
231.85
232.227
232.598
232.964
233.33
233.695
234.06
234.426
234.794
235.163
235.533
235.904
236.275
236.644
237.007
237.365
237.719
238.07
238.42
238.77
239.121
239.473
239.827
240.183
240.541
240.901
241.261
241.619
241.973
242.324
242.671
243.014
243.357
243.701
244.045
244.389
244.733
245.077
245.421
245.765
246.109
246.45
246.785
247.112
247.431
247.745
248.055
248.36
248.659
248.951
249.235
249.511
249.778
250.036
250.285
250.522
250.745
250.953
251.145
251.321
251.481
251.626
251.755
251.867
251.963
252.041
252.102
252.148
252.178
252.186
252.181
252.162
252.129
252.081
252.019
251.945
251.86
251.765
251.663
251.553
251.436
251.316
251.195
251.073
250.953
250.838
250.73
250.631
250.541
250.461
250.392
250.334
250.288
250.254
250.231
250.22
250.218
250.221
250.229
229.614
230.105
230.588
231.061
231.52
231.964
232.398
232.825
233.249
233.668
234.084
234.497
234.908
235.316
235.719
236.115
236.501
236.878
237.251
237.622
237.992
238.362
238.732
239.102
239.473
239.846
240.219
240.59
240.957
241.317
241.673
242.026
242.377
242.728
243.08
243.434
243.789
244.146
244.505
244.866
245.228
245.587
245.942
246.294
246.641
246.986
247.33
247.675
248.02
248.367
248.716
249.067
249.42
249.775
250.129
250.483
250.833
251.179
251.522
251.864
252.206
252.547
252.887
253.228
253.568
253.908
254.248
254.588
254.926
255.26
255.585
255.903
256.215
256.521
256.822
257.116
257.403
257.681
257.951
258.211
258.461
258.701
258.929
259.143
259.34
259.521
259.685
259.833
259.964
260.078
260.176
260.256
260.317
260.361
260.389
260.393
260.384
260.359
260.319
260.262
260.191
260.106
260.009
259.9
259.782
259.657
259.525
259.387
259.245
259.103
258.961
258.82
258.685
258.557
258.439
258.331
258.233
258.148
258.074
258.015
257.968
257.935
257.913
257.906
257.907
257.912
257.925
257.952
238.711
239.153
239.591
240.022
240.443
240.85
241.247
241.639
242.026
242.41
242.793
243.173
243.554
243.934
244.313
244.689
245.06
245.425
245.784
246.14
246.493
246.846
247.199
247.554
247.91
248.268
248.628
248.989
249.35
249.708
250.061
250.412
250.759
251.105
251.451
251.798
252.146
252.496
252.848
253.202
253.558
253.914
254.269
254.621
254.97
255.315
255.659
256.001
256.344
256.687
257.032
257.379
257.728
258.078
258.43
258.781
259.132
259.479
259.823
260.165
260.506
260.846
261.185
261.523
261.861
262.198
262.535
262.871
263.206
263.536
263.86
264.177
264.487
264.79
265.086
265.376
265.657
265.929
266.192
266.444
266.686
266.917
267.135
267.338
267.525
267.694
267.846
267.98
268.097
268.195
268.277
268.34
268.383
268.409
268.411
268.4
268.372
268.326
268.263
268.183
268.088
267.98
267.858
267.725
267.584
267.436
267.282
267.121
266.958
266.795
266.633
266.472
266.317
266.171
266.034
265.907
265.792
265.69
265.602
265.528
265.469
265.424
265.392
265.374
265.37
265.372
265.38
265.399
247.259
247.663
248.063
248.461
248.855
249.241
249.619
249.99
250.356
250.719
251.08
251.439
251.799
252.16
252.521
252.883
253.244
253.602
253.957
254.308
254.657
255.003
255.35
255.697
256.045
256.396
256.749
257.103
257.459
257.815
258.17
258.522
258.871
259.218
259.563
259.909
260.254
260.601
260.95
261.3
261.652
262.005
262.359
262.711
263.061
263.408
263.753
264.096
264.438
264.781
265.124
265.468
265.814
266.161
266.509
266.859
267.208
267.554
267.899
268.242
268.583
268.922
269.259
269.595
269.931
270.266
270.599
270.932
271.263
271.59
271.911
272.225
272.531
272.831
273.123
273.406
273.681
273.946
274.201
274.445
274.678
274.898
275.105
275.297
275.472
275.629
275.767
275.887
275.988
276.07
276.134
276.178
276.202
276.203
276.191
276.16
276.11
276.042
275.956
275.853
275.735
275.603
275.458
275.301
275.135
274.964
274.786
274.604
274.419
274.235
274.052
273.872
273.698
273.532
273.376
273.232
273.1
272.982
272.878
272.79
272.717
272.659
272.615
272.586
272.569
272.566
272.569
272.579
255.735
256.109
256.482
256.854
257.223
257.589
257.949
258.306
258.659
259.009
259.359
259.708
260.058
260.409
260.762
261.115
261.469
261.823
262.174
262.523
262.87
263.216
263.562
263.909
264.257
264.606
264.958
265.311
265.665
266.02
266.374
266.725
267.075
267.423
267.77
268.116
268.463
268.81
269.158
269.507
269.858
270.209
270.561
270.911
271.26
271.606
271.949
272.292
272.634
272.976
273.318
273.661
274.005
274.351
274.697
275.043
275.389
275.733
276.075
276.415
276.752
277.088
277.422
277.754
278.086
278.416
278.744
279.07
279.392
279.708
280.018
280.321
280.615
280.901
281.178
281.445
281.701
281.947
282.181
282.403
282.612
282.807
282.986
283.148
283.292
283.416
283.52
283.604
283.669
283.714
283.738
283.738
283.723
283.691
283.638
283.567
283.476
283.367
283.24
283.099
282.944
282.774
282.593
282.403
282.208
282.007
281.802
281.596
281.39
281.185
280.986
280.793
280.608
280.434
280.271
280.122
279.987
279.867
279.763
279.676
279.603
279.546
279.503
279.473
279.456
279.449
279.451
263.437
263.795
264.153
264.51
264.866
265.222
265.577
265.929
266.279
266.626
266.972
267.318
267.664
268.011
268.359
268.709
269.061
269.413
269.765
270.116
270.466
270.815
271.164
271.512
271.86
272.21
272.56
272.912
273.266
273.62
273.975
274.328
274.68
275.031
275.38
275.727
276.074
276.421
276.768
277.115
277.464
277.813
278.162
278.511
278.859
279.205
279.549
279.891
280.232
280.572
280.912
281.253
281.593
281.935
282.278
282.621
282.963
283.304
283.644
283.982
284.317
284.649
284.98
285.308
285.635
285.96
286.282
286.602
286.918
287.229
287.533
287.829
288.117
288.395
288.664
288.921
289.168
289.403
289.626
289.836
290.032
290.213
290.378
290.526
290.654
290.762
290.85
290.918
290.964
290.987
290.987
290.971
290.937
290.882
290.807
290.713
290.599
290.466
290.316
290.152
289.972
289.779
289.574
289.36
289.14
288.915