/*--------------------------------*- C++ -*----------------------------------*\
| =========                 |                                                 |
| \\      /  F ield         | OpenFOAM: The Open Source CFD Toolbox           |
|  \\    /   O peration     | Version:  v1706                                 |
|   \\  /    A nd           | Web:      www.OpenFOAM.com                      |
|    \\/     M anipulation  |                                                 |
\*---------------------------------------------------------------------------*/
FoamFile
{
    version     2.0;
    format      ascii;
    class       volVectorField;
    location    "1.6e-05";
    object      U;
}
// * * * * * * * * * * * * * * * * * * * * * * * * * * * * * * * * * * * * * //

dimensions      [0 1 -1 0 0 0 0];


internalField   nonuniform List<vector> 
29871
(
(2764.5 -3.85732e-11 7.07778e-15)
(2764.5 -4.02858e-11 4.25195e-15)
(2764.5 -4.00056e-11 4.85948e-15)
(2764.5 -3.9928e-11 3.0799e-15)
(2764.5 -3.92475e-11 1.31016e-15)
(2764.5 -3.69461e-11 1.9868e-15)
(2764.5 -3.57942e-11 2.75023e-15)
(2764.5 -3.25739e-11 2.96176e-15)
(2764.5 -3.06099e-11 3.55929e-15)
(2764.5 -3.1355e-11 3.57859e-15)
(2764.5 -3.2419e-11 3.65484e-15)
(2764.5 -3.59568e-11 5.43195e-15)
(2764.5 -3.75765e-11 4.54617e-15)
(2764.5 -3.88568e-11 5.12832e-15)
(2764.5 -3.96576e-11 4.01803e-15)
(2764.5 -3.98431e-11 2.66494e-15)
(2764.5 -4.02552e-11 3.20112e-15)
(2764.5 -4.16604e-11 3.72897e-15)
(2764.5 -4.49162e-11 4.78097e-15)
(2764.5 -4.48158e-11 4.29417e-15)
(2764.5 -4.43482e-11 2.7201e-15)
(2764.5 -4.48365e-11 3.90407e-15)
(2764.5 -4.39498e-11 9.69771e-16)
(2764.5 -4.41826e-11 3.2684e-15)
(2764.5 -4.49767e-11 4.63184e-15)
(2764.5 -4.50201e-11 4.08494e-15)
(2764.5 -4.25705e-11 5.51537e-15)
(2764.5 -3.95723e-11 2.83162e-15)
(2764.5 -3.78333e-11 1.64351e-15)
(2764.5 -3.75255e-11 4.42353e-15)
(2764.5 -3.69637e-11 3.65896e-15)
(2764.5 -3.6925e-11 2.42687e-15)
(2764.5 -3.80318e-11 2.44613e-15)
(2764.5 -4.15946e-11 6.90484e-15)
(2764.5 -4.55246e-11 4.43984e-15)
(2764.5 -4.91127e-11 4.58663e-16)
(2764.5 -5.08828e-11 1.17501e-15)
(2764.5 -5.13413e-11 2.95802e-15)
(2764.5 -5.21807e-11 3.58677e-15)
(2764.5 -5.315e-11 4.05847e-15)
(2764.5 -5.2691e-11 5.10985e-15)
(2764.5 -5.24935e-11 5.94293e-15)
(2764.5 -5.28628e-11 5.99163e-15)
(2764.5 -5.30729e-11 3.71805e-15)
(2764.5 -5.44473e-11 3.26207e-15)
(2764.5 -5.54303e-11 3.847e-15)
(2764.5 -5.48602e-11 2.17554e-15)
(2764.5 -5.27214e-11 3.50552e-16)
(2764.5 -4.76689e-11 5.35933e-16)
(2764.5 -3.73583e-11 5.05492e-15)
(2764.5 -2.71419e-11 3.48983e-15)
(2764.5 -2.3682e-11 1.75717e-15)
(2764.5 -2.3248e-11 2.26045e-15)
(2764.5 -2.30152e-11 3.81901e-15)
(2764.5 -2.23377e-11 3.40216e-15)
(2764.5 -2.07986e-11 3.60834e-15)
(2764.5 -1.63574e-11 4.31372e-15)
(2764.5 -1.28171e-11 5.0795e-15)
(2764.5 -1.44027e-11 4.73983e-15)
(2764.5 -1.58803e-11 3.84665e-15)
(2764.5 -1.66416e-11 1.83402e-15)
(2764.5 -2.02866e-11 1.2288e-15)
(2764.5 -2.28273e-11 1.4338e-15)
(2764.5 -2.32748e-11 -5.96284e-16)
(2764.5 -2.7021e-11 3.01802e-15)
(2764.5 -3.21271e-11 5.87204e-15)
(2764.5 -3.72768e-11 4.0676e-15)
(2764.5 -4.21075e-11 2.87937e-15)
(2764.5 -4.85205e-11 1.68331e-15)
(2764.5 -5.34739e-11 2.20729e-15)
(2764.5 -5.83618e-11 3.6869e-15)
(2764.5 -6.44103e-11 4.22061e-15)
(2764.5 -6.85747e-11 1.29964e-15)
(2764.5 -7.16429e-11 2.74903e-15)
(2764.5 -7.40596e-11 3.02109e-15)
(2764.5 -7.83747e-11 3.74745e-15)
(2764.5 -8.16279e-11 1.29186e-15)
(2764.5 -8.45825e-11 2.28008e-15)
(2764.5 -8.52655e-11 2.43798e-15)
(2764.5 -8.48188e-11 3.86075e-15)
(2764.5 -7.66954e-11 5.66055e-15)
(2764.5 -6.82161e-11 3.98184e-15)
(2764.5 -5.64271e-11 4.07581e-15)
(2764.5 -4.43176e-11 2.61522e-15)
(2764.5 -3.56188e-11 3.81205e-15)
(2764.5 -2.79108e-11 3.04454e-15)
(2764.5 -1.70576e-11 3.00166e-15)
(2764.5 -8.70264e-12 4.03367e-15)
(2764.5 -2.01706e-12 4.5183e-15)
(2764.5 1.65209e-12 3.58032e-15)
(2764.5 7.31618e-12 4.04087e-15)
(2764.5 1.14124e-11 2.04829e-15)
(2764.5 1.55483e-11 2.86192e-15)
(2764.5 1.86394e-11 3.25852e-15)
(2764.5 2.06588e-11 1.13825e-15)
(2764.5 2.1127e-11 1.26001e-15)
(2764.5 2.45043e-11 1.77347e-15)
(2764.5 2.43406e-11 2.20576e-15)
(2764.5 2.48819e-11 2.38496e-15)
(2764.5 2.78055e-11 2.28404e-15)
(2764.5 3.1144e-11 4.66856e-15)
(2764.5 3.31513e-11 2.69542e-15)
(2764.5 3.10394e-11 1.22468e-15)
(2764.5 2.61885e-11 1.94552e-15)
(2764.5 1.80509e-11 1.64717e-16)
(2764.5 -1.24897e-10 1.06913e-14)
(2764.5 -1.24863e-10 9.44593e-15)
(2764.5 -1.25841e-10 1.19549e-14)
(2764.5 -1.23255e-10 1.27159e-14)
(2764.5 -1.24962e-10 1.03748e-14)
(2764.5 -1.2465e-10 1.29998e-14)
(2764.5 -1.2476e-10 1.22834e-14)
(2764.5 -1.26369e-10 1.18537e-14)
(2764.5 -1.24516e-10 1.17705e-14)
(2764.5 -1.20774e-10 1.2076e-14)
(2764.5 -1.16858e-10 1.19558e-14)
(2764.5 -1.14263e-10 1.12254e-14)
(2764.5 -1.14801e-10 1.51232e-14)
(2764.5 -1.13379e-10 1.20609e-14)
(2764.5 -1.1411e-10 6.77859e-15)
(2764.5 -1.14938e-10 6.99363e-15)
(2764.5 -1.15987e-10 9.99919e-15)
(2764.5 -1.11352e-10 1.07223e-14)
(2764.5 -1.09388e-10 1.09234e-14)
(2764.5 -1.12473e-10 7.65314e-15)
(2764.5 -1.13914e-10 8.51341e-15)
(2764.5 -1.15613e-10 1.12548e-14)
(2764.5 -1.16386e-10 1.03422e-14)
(2764.5 -1.17775e-10 1.37822e-14)
(2764.5 -1.18611e-10 1.03947e-14)
(2764.5 -1.22468e-10 1.13498e-14)
(2764.5 -1.27915e-10 1.21475e-14)
(2764.5 -1.32094e-10 1.10291e-14)
(2764.5 -1.31686e-10 1.12731e-14)
(2764.5 -1.28805e-10 1.07435e-14)
(2764.5 -1.27794e-10 1.21276e-14)
(2764.5 -1.23068e-10 6.97724e-15)
(2764.5 -1.16203e-10 8.58697e-15)
(2764.5 -1.09095e-10 1.45331e-14)
(2764.5 -1.04391e-10 1.12883e-14)
(2764.5 -1.0378e-10 1.31409e-14)
(2764.5 -1.02135e-10 6.33722e-15)
(2764.5 -1.03998e-10 1.19465e-14)
(2764.5 -1.02586e-10 1.11125e-14)
(2764.5 -1.01951e-10 1.20177e-14)
(2764.5 -1.04089e-10 1.19237e-14)
(2764.5 -1.03724e-10 1.08111e-14)
(2764.5 -1.04642e-10 1.10352e-14)
(2764.5 -1.04835e-10 1.03961e-14)
(2764.5 -1.03952e-10 9.67613e-15)
(2764.5 -1.06902e-10 1.08625e-14)
(2764.5 -1.1103e-10 1.18481e-14)
(2764.5 -1.1884e-10 7.35456e-15)
(2764.5 -1.30184e-10 1.00784e-14)
(2764.5 -1.4129e-10 9.63068e-15)
(2764.5 -1.51544e-10 7.53691e-15)
(2764.5 -1.51157e-10 9.63648e-15)
(2764.5 -1.48028e-10 1.13052e-14)
(2764.5 -1.47627e-10 1.01244e-14)
(2764.5 -1.48494e-10 1.04827e-14)
(2764.5 -1.55167e-10 9.73797e-15)
(2764.5 -1.59306e-10 9.91907e-15)
(2764.5 -1.62037e-10 1.40239e-14)
(2764.5 -1.59066e-10 7.61387e-15)
(2764.5 -1.59937e-10 7.33265e-15)
(2764.5 -1.57229e-10 8.76444e-15)
(2764.5 -1.50153e-10 6.17249e-15)
(2764.5 -1.40097e-10 6.75985e-15)
(2764.5 -1.35458e-10 5.81722e-15)
(2764.5 -1.23629e-10 7.4767e-15)
(2764.5 -1.11585e-10 8.00933e-15)
(2764.5 -1.02301e-10 6.39964e-15)
(2764.5 -9.02144e-11 8.75649e-15)
(2764.5 -7.95029e-11 1.19918e-14)
(2764.5 -6.91003e-11 7.0537e-15)
(2764.5 -5.88955e-11 9.8091e-15)
(2764.5 -5.04351e-11 6.65374e-15)
(2764.5 -4.68816e-11 6.02468e-15)
(2764.5 -4.11294e-11 9.09414e-15)
(2764.5 -3.41752e-11 7.30331e-15)
(2764.5 -2.74321e-11 7.30891e-15)
(2764.5 -2.34495e-11 6.56609e-15)
(2764.5 -2.72162e-11 8.17358e-15)
(2764.5 -3.29326e-11 8.12427e-15)
(2764.5 -4.29707e-11 1.03211e-14)
(2764.5 -6.48674e-11 9.27228e-15)
(2764.5 -8.28079e-11 8.4124e-15)
(2764.5 -1.01428e-10 8.49504e-15)
(2764.5 -1.15656e-10 1.00236e-14)
(2764.5 -1.30318e-10 1.05524e-14)
(2764.5 -1.42265e-10 1.07055e-14)
(2764.5 -1.61128e-10 1.14582e-14)
(2764.5 -1.69779e-10 1.04231e-14)
(2764.5 -1.77944e-10 1.11198e-14)
(2764.5 -1.82104e-10 1.10666e-14)
(2764.5 -1.92747e-10 9.36293e-15)
(2764.5 -1.92676e-10 6.64793e-15)
(2764.5 -1.95e-10 1.12531e-14)
(2764.5 -2.0517e-10 1.17992e-14)
(2764.5 -2.07738e-10 9.67366e-15)
(2764.5 -2.17713e-10 8.88892e-15)
(2764.5 -2.31022e-10 9.47475e-15)
(2764.5 -2.38856e-10 1.03399e-14)
(2764.5 -2.52459e-10 8.25271e-15)
(2764.5 -2.65593e-10 5.68018e-15)
(2764.5 -2.72364e-10 8.40207e-15)
(2764.5 -2.73337e-10 1.03204e-14)
(2764.5 -2.6513e-10 8.06954e-15)
(2764.5 -2.5527e-10 8.43501e-15)
(2764.5 -2.41428e-10 6.57799e-15)
(2764.5 -2.15831e-10 2.27264e-14)
(2764.5 -2.14584e-10 2.27847e-14)
(2764.5 -2.12216e-10 1.83893e-14)
(2764.5 -2.1296e-10 1.99823e-14)
(2764.5 -2.0929e-10 2.40396e-14)
(2764.5 -2.08128e-10 2.05948e-14)
(2764.5 -2.09634e-10 2.0463e-14)
(2764.5 -2.08918e-10 1.93198e-14)
(2764.5 -2.07254e-10 2.15149e-14)
(2764.5 -2.09462e-10 2.3752e-14)
(2764.5 -2.11109e-10 1.79681e-14)
(2764.5 -2.11124e-10 1.58706e-14)
(2764.5 -2.07829e-10 1.49815e-14)
(2764.5 -2.06375e-10 1.70684e-14)
(2764.5 -2.0243e-10 1.83235e-14)
(2764.5 -2.02384e-10 1.92895e-14)
(2764.5 -2.00137e-10 1.68694e-14)
(2764.5 -1.98929e-10 1.84576e-14)
(2764.5 -1.97478e-10 1.56692e-14)
(2764.5 -1.94095e-10 1.57828e-14)
(2764.5 -1.91391e-10 1.76901e-14)
(2764.5 -1.86416e-10 1.38646e-14)
(2764.5 -1.84256e-10 1.51208e-14)
(2764.5 -1.81132e-10 2.10834e-14)
(2764.5 -1.77396e-10 1.29966e-14)
(2764.5 -1.71569e-10 1.638e-14)
(2764.5 -1.70893e-10 1.91097e-14)
(2764.5 -1.76365e-10 1.83111e-14)
(2764.5 -1.7799e-10 1.78331e-14)
(2764.5 -1.92018e-10 1.83737e-14)
(2764.5 -1.96886e-10 1.77514e-14)
(2764.5 -2.01945e-10 1.84376e-14)
(2764.5 -2.08243e-10 1.75717e-14)
(2764.5 -2.11324e-10 1.79323e-14)
(2764.5 -2.11183e-10 1.88006e-14)
(2764.5 -2.11227e-10 1.84202e-14)
(2764.5 -2.1032e-10 1.96128e-14)
(2764.5 -2.12787e-10 1.82828e-14)
(2764.5 -2.14279e-10 1.74114e-14)
(2764.5 -2.15534e-10 1.83415e-14)
(2764.5 -2.18646e-10 1.9478e-14)
(2764.5 -2.2146e-10 1.80369e-14)
(2764.5 -2.21094e-10 1.7757e-14)
(2764.5 -2.20602e-10 1.69472e-14)
(2764.5 -2.17639e-10 1.74023e-14)
(2764.5 -2.12468e-10 1.59878e-14)
(2764.5 -2.03075e-10 1.82783e-14)
(2764.5 -1.98184e-10 1.82591e-14)
(2764.5 -1.90461e-10 1.54545e-14)
(2764.5 -1.86968e-10 1.54095e-14)
(2764.5 -1.81238e-10 1.20852e-14)
(2764.5 -1.75196e-10 1.62634e-14)
(2764.5 -1.7305e-10 1.44758e-14)
(2764.5 -1.66578e-10 1.26457e-14)
(2764.5 -1.56469e-10 1.35428e-14)
(2764.5 -1.46148e-10 1.6466e-14)
(2764.5 -1.39713e-10 1.38723e-14)
(2764.5 -1.35621e-10 1.71446e-14)
(2764.5 -1.32588e-10 2.11772e-14)
(2764.5 -1.32883e-10 1.66723e-14)
(2764.5 -1.37986e-10 1.48668e-14)
(2764.5 -1.49832e-10 1.31788e-14)
(2764.5 -1.61978e-10 1.39091e-14)
(2764.5 -1.71791e-10 1.93192e-14)
(2764.5 -1.86616e-10 1.37127e-14)
(2764.5 -2.02742e-10 1.46351e-14)
(2764.5 -2.15201e-10 1.50031e-14)
(2764.5 -2.25497e-10 1.51902e-14)
(2764.5 -2.41265e-10 1.57321e-14)
(2764.5 -2.54028e-10 1.65264e-14)
(2764.5 -2.62669e-10 1.53999e-14)
(2764.5 -2.66417e-10 1.78407e-14)
(2764.5 -2.73917e-10 1.35374e-14)
(2764.5 -2.85156e-10 1.49112e-14)
(2764.5 -2.96644e-10 1.49339e-14)
(2764.5 -3.01684e-10 1.26142e-14)
(2764.5 -3.02259e-10 1.5698e-14)
(2764.5 -2.98061e-10 1.7142e-14)
(2764.5 -2.86454e-10 1.42835e-14)
(2764.5 -2.67276e-10 1.36277e-14)
(2764.5 -2.5252e-10 1.62245e-14)
(2764.5 -2.34e-10 1.51925e-14)
(2764.5 -2.20234e-10 1.53594e-14)
(2764.5 -2.10006e-10 1.45999e-14)
(2764.5 -1.93976e-10 1.64225e-14)
(2764.5 -1.77809e-10 1.87658e-14)
(2764.5 -1.49017e-10 1.46838e-14)
(2764.5 -1.33115e-10 1.41687e-14)
(2764.5 -1.15515e-10 1.70029e-14)
(2764.5 -1.03646e-10 1.58181e-14)
(2764.5 -9.43507e-11 1.55595e-14)
(2764.5 -8.26724e-11 1.4956e-14)
(2764.5 -7.12558e-11 1.38634e-14)
(2764.5 -5.52428e-11 1.61628e-14)
(2764.5 -3.93435e-11 1.63345e-14)
(2764.5 -1.96139e-11 1.63395e-14)
(2764.5 -4.82738e-12 1.10974e-14)
(2764.5 1.36815e-11 1.65009e-14)
(2764.5 3.12022e-11 1.6359e-14)
(2764.5 3.99902e-11 1.36592e-14)
(2764.5 3.31188e-11 1.25458e-14)
(2764.5 2.26724e-11 1.27997e-14)
(2764.5 4.79254e-12 1.31039e-14)
(2764.5 -8.84076e-12 1.34813e-14)
(2764.5 -1.97846e-11 1.37337e-14)
(2764.5 -4.21138e-11 1.29853e-14)
(2764.5 -2.92914e-10 2.8177e-14)
(2764.5 -2.94604e-10 3.03736e-14)
(2764.5 -2.96368e-10 2.83109e-14)
(2764.5 -3.00206e-10 2.86507e-14)
(2764.5 -3.01116e-10 2.85554e-14)
(2764.5 -2.99273e-10 2.69379e-14)
(2764.5 -2.9672e-10 2.9986e-14)
(2764.5 -2.92274e-10 2.8658e-14)
(2764.5 -2.87966e-10 2.59563e-14)
(2764.5 -2.82188e-10 2.33963e-14)
(2764.5 -2.76277e-10 2.6434e-14)
(2764.5 -2.74805e-10 2.58585e-14)
(2764.5 -2.74592e-10 2.63089e-14)
(2764.5 -2.74241e-10 2.59891e-14)
(2764.5 -2.7501e-10 2.62236e-14)
(2764.5 -2.75485e-10 2.48137e-14)
(2764.5 -2.81836e-10 2.29973e-14)
(2764.5 -2.83043e-10 2.27907e-14)
(2764.5 -2.87872e-10 2.2494e-14)
(2764.5 -2.91036e-10 2.41053e-14)
(2764.5 -2.96275e-10 2.201e-14)
(2764.5 -2.97762e-10 2.68828e-14)
(2764.5 -2.99761e-10 2.90642e-14)
(2764.5 -3.03659e-10 2.44897e-14)
(2764.5 -3.01635e-10 2.35297e-14)
(2764.5 -2.94743e-10 2.39756e-14)
(2764.5 -2.83688e-10 2.71918e-14)
(2764.5 -2.78194e-10 2.60704e-14)
(2764.5 -2.71904e-10 2.138e-14)
(2764.5 -2.62558e-10 2.52195e-14)
(2764.5 -2.57984e-10 2.3985e-14)
(2764.5 -2.53962e-10 2.55022e-14)
(2764.5 -2.51692e-10 2.19701e-14)
(2764.5 -2.5154e-10 2.63876e-14)
(2764.5 -2.46732e-10 2.66497e-14)
(2764.5 -2.3946e-10 2.56733e-14)
(2764.5 -2.29982e-10 2.60822e-14)
(2764.5 -2.24183e-10 2.41383e-14)
(2764.5 -2.18005e-10 2.4694e-14)
(2764.5 -2.12816e-10 2.17877e-14)
(2764.5 -2.11562e-10 2.36132e-14)
(2764.5 -2.13888e-10 2.80037e-14)
(2764.5 -2.21625e-10 2.44302e-14)
(2764.5 -2.26932e-10 2.50315e-14)
(2764.5 -2.40447e-10 2.66037e-14)
(2764.5 -2.54236e-10 2.44264e-14)
(2764.5 -2.70617e-10 2.33678e-14)
(2764.5 -2.81167e-10 2.31175e-14)
(2764.5 -2.96272e-10 2.8684e-14)
(2764.5 -3.10128e-10 2.51136e-14)
(2764.5 -3.31099e-10 2.14937e-14)
(2764.5 -3.42675e-10 2.249e-14)
(2764.5 -3.56507e-10 2.33487e-14)
(2764.5 -3.69116e-10 2.6103e-14)
(2764.5 -3.8123e-10 2.07399e-14)
(2764.5 -3.85297e-10 2.03624e-14)
(2764.5 -3.83853e-10 2.33534e-14)
(2764.5 -3.80645e-10 2.41719e-14)
(2764.5 -3.75431e-10 2.29948e-14)
(2764.5 -3.6236e-10 2.29226e-14)
(2764.5 -3.41405e-10 2.47529e-14)
(2764.5 -3.19654e-10 2.15866e-14)
(2764.5 -3.0297e-10 1.99779e-14)
(2764.5 -2.75913e-10 1.99245e-14)
(2764.5 -2.57178e-10 1.94606e-14)
(2764.5 -2.32153e-10 2.05082e-14)
(2764.5 -2.12885e-10 2.00169e-14)
(2764.5 -1.89736e-10 2.06403e-14)
(2764.5 -1.68177e-10 2.01431e-14)
(2764.5 -1.51724e-10 1.95224e-14)
(2764.5 -1.37521e-10 2.12535e-14)
(2764.5 -1.20107e-10 2.09948e-14)
(2764.5 -1.02254e-10 2.0188e-14)
(2764.5 -8.12033e-11 2.14655e-14)
(2764.5 -7.01134e-11 1.80959e-14)
(2764.5 -7.19416e-11 1.76478e-14)
(2764.5 -7.55789e-11 2.08111e-14)
(2764.5 -9.19576e-11 2.11688e-14)
(2764.5 -1.12421e-10 2.14152e-14)
(2764.5 -1.30198e-10 2.45424e-14)
(2764.5 -1.52033e-10 2.3537e-14)
(2764.5 -1.86104e-10 2.02405e-14)
(2764.5 -2.13152e-10 1.93817e-14)
(2764.5 -2.33794e-10 1.81919e-14)
(2764.5 -2.67934e-10 2.26546e-14)
(2764.5 -3.15532e-10 1.73609e-14)
(2764.5 -3.59754e-10 1.76019e-14)
(2764.5 -3.82574e-10 2.34997e-14)
(2764.5 -4.03564e-10 2.34973e-14)
(2764.5 -4.2276e-10 2.02809e-14)
(2764.5 -4.4284e-10 2.05986e-14)
(2764.5 -4.63712e-10 2.06158e-14)
(2764.5 -4.81508e-10 2.10665e-14)
(2764.5 -4.98279e-10 2.2424e-14)
(2764.5 -5.18557e-10 2.16358e-14)
(2764.5 -5.27307e-10 1.76328e-14)
(2764.5 -5.40929e-10 2.43936e-14)
(2764.5 -5.54024e-10 2.56152e-14)
(2764.5 -5.61096e-10 2.01028e-14)
(2764.5 -5.58466e-10 2.12148e-14)
(2764.5 -5.47655e-10 2.06634e-14)
(2764.5 -5.40535e-10 1.94302e-14)
(2764.5 -5.26794e-10 2.0509e-14)
(2764.5 -5.06513e-10 2.00091e-14)
(2764.5 -4.91378e-10 1.83386e-14)
(2764.5 -4.64499e-10 1.89947e-14)
(2764.5 -3.49165e-10 3.75159e-14)
(2764.5 -3.53269e-10 3.71776e-14)
(2764.5 -3.58036e-10 3.60834e-14)
(2764.5 -3.60052e-10 3.34402e-14)
(2764.5 -3.66056e-10 3.75047e-14)
(2764.5 -3.75426e-10 3.5315e-14)
(2764.5 -3.7873e-10 3.4646e-14)
(2764.5 -3.82508e-10 3.75764e-14)
(2764.5 -3.84696e-10 3.80313e-14)
(2764.5 -3.89525e-10 3.96611e-14)
(2764.5 -3.86348e-10 3.64143e-14)
(2764.5 -3.83346e-10 3.58148e-14)
(2764.5 -3.76974e-10 3.6713e-14)
(2764.5 -3.76325e-10 3.45688e-14)
(2764.5 -3.74432e-10 3.22101e-14)
(2764.5 -3.71307e-10 3.61667e-14)
(2764.5 -3.65285e-10 3.1404e-14)
(2764.5 -3.59601e-10 3.57135e-14)
(2764.5 -3.55476e-10 3.67041e-14)
(2764.5 -3.48311e-10 3.26355e-14)
(2764.5 -3.38766e-10 3.26555e-14)
(2764.5 -3.36108e-10 3.21012e-14)
(2764.5 -3.34578e-10 3.40646e-14)
(2764.5 -3.37978e-10 3.69852e-14)
(2764.5 -3.37776e-10 3.43014e-14)
(2764.5 -3.41737e-10 3.22153e-14)
(2764.5 -3.47219e-10 3.51962e-14)
(2764.5 -3.52309e-10 2.89409e-14)
(2764.5 -3.55624e-10 2.85002e-14)
(2764.5 -3.5957e-10 3.18021e-14)
(2764.5 -3.67387e-10 3.22139e-14)
(2764.5 -3.79634e-10 3.19773e-14)
(2764.5 -3.85145e-10 3.24297e-14)
(2764.5 -3.89874e-10 3.16287e-14)
(2764.5 -4.03771e-10 3.30389e-14)
(2764.5 -4.09225e-10 3.09524e-14)
(2764.5 -4.14358e-10 3.46861e-14)
(2764.5 -4.24906e-10 3.40487e-14)
(2764.5 -4.27213e-10 3.02759e-14)
(2764.5 -4.26526e-10 2.96113e-14)
(2764.5 -4.2031e-10 3.28125e-14)
(2764.5 -4.09975e-10 3.37278e-14)
(2764.5 -3.99354e-10 3.18264e-14)
(2764.5 -3.81259e-10 3.04337e-14)
(2764.5 -3.68909e-10 3.1836e-14)
(2764.5 -3.4912e-10 3.18381e-14)
(2764.5 -3.25978e-10 3.20765e-14)
(2764.5 -3.08632e-10 3.22171e-14)
(2764.5 -2.89973e-10 2.93445e-14)
(2764.5 -2.71655e-10 3.02767e-14)
(2764.5 -2.60196e-10 2.94421e-14)
(2764.5 -2.46078e-10 2.74941e-14)
(2764.5 -2.37368e-10 2.60959e-14)
(2764.5 -2.30034e-10 3.13269e-14)
(2764.5 -2.25016e-10 3.14578e-14)
(2764.5 -2.19994e-10 2.8847e-14)
(2764.5 -2.17206e-10 2.81738e-14)
(2764.5 -2.215e-10 2.92452e-14)
(2764.5 -2.3149e-10 2.94501e-14)
(2764.5 -2.43324e-10 2.87518e-14)
(2764.5 -2.68612e-10 2.7453e-14)
(2764.5 -3.02497e-10 3.00403e-14)
(2764.5 -3.31509e-10 2.87483e-14)
(2764.5 -3.66233e-10 2.74136e-14)
(2764.5 -3.96976e-10 2.9654e-14)
(2764.5 -4.12453e-10 2.96364e-14)
(2764.5 -4.37616e-10 2.57962e-14)
(2764.5 -4.58737e-10 2.63478e-14)
(2764.5 -4.83041e-10 2.55609e-14)
(2764.5 -5.1214e-10 2.66542e-14)
(2764.5 -5.27488e-10 2.83096e-14)
(2764.5 -5.48609e-10 2.72254e-14)
(2764.5 -5.59565e-10 3.01625e-14)
(2764.5 -5.81705e-10 2.80918e-14)
(2764.5 -5.94852e-10 2.54178e-14)
(2764.5 -5.96757e-10 2.69483e-14)
(2764.5 -5.89891e-10 2.69972e-14)
(2764.5 -5.71289e-10 2.71872e-14)
(2764.5 -5.55704e-10 2.76723e-14)
(2764.5 -5.35735e-10 2.76002e-14)
(2764.5 -5.06466e-10 2.89746e-14)
(2764.5 -4.671e-10 2.94406e-14)
(2764.5 -4.18584e-10 2.63711e-14)
(2764.5 -3.54302e-10 2.43825e-14)
(2764.5 -2.99822e-10 2.61836e-14)
(2764.5 -2.58305e-10 2.82112e-14)
(2764.5 -2.12079e-10 2.72077e-14)
(2764.5 -1.64201e-10 2.60838e-14)
(2764.5 -1.28137e-10 2.71412e-14)
(2764.5 -9.49853e-11 2.65762e-14)
(2764.5 -6.83531e-11 2.49868e-14)
(2764.5 -4.53841e-11 2.94285e-14)
(2764.5 -1.97544e-11 2.69516e-14)
(2764.5 -6.0269e-12 2.60799e-14)
(2764.5 1.55856e-11 2.80199e-14)
(2764.5 4.08071e-11 2.64598e-14)
(2764.5 6.31983e-11 2.58291e-14)
(2764.5 8.75393e-11 2.82436e-14)
(2764.5 1.22112e-10 2.5094e-14)
(2764.5 1.56046e-10 2.6443e-14)
(2764.5 1.7534e-10 2.79864e-14)
(2764.5 1.77027e-10 2.41741e-14)
(2764.5 1.53812e-10 2.42091e-14)
(2764.5 1.1463e-10 2.89194e-14)
(2764.5 9.60954e-11 2.64075e-14)
(2764.5 7.5031e-11 2.54816e-14)
(2764.5 1.14066e-11 2.72792e-14)
(2764.5 -4.40571e-10 4.67283e-14)
(2764.5 -4.36068e-10 4.3983e-14)
(2764.5 -4.33908e-10 4.52911e-14)
(2764.5 -4.29039e-10 4.24839e-14)
(2764.5 -4.27289e-10 4.32142e-14)
(2764.5 -4.32692e-10 4.02963e-14)
(2764.5 -4.33024e-10 4.93917e-14)
(2764.5 -4.32141e-10 4.64375e-14)
(2764.5 -4.32561e-10 4.6009e-14)
(2764.5 -4.34778e-10 4.66523e-14)
(2764.5 -4.41039e-10 4.35447e-14)
(2764.5 -4.45438e-10 4.61184e-14)
(2764.5 -4.4915e-10 4.61448e-14)
(2764.5 -4.53129e-10 4.31067e-14)
(2764.5 -4.57528e-10 4.48608e-14)
(2764.5 -4.61774e-10 4.58839e-14)
(2764.5 -4.68054e-10 4.24787e-14)
(2764.5 -4.80734e-10 4.28048e-14)
(2764.5 -4.84315e-10 4.24296e-14)
(2764.5 -4.96311e-10 4.15233e-14)
(2764.5 -5.03777e-10 4.14051e-14)
(2764.5 -5.08215e-10 4.21974e-14)
(2764.5 -5.07838e-10 4.50493e-14)
(2764.5 -5.00506e-10 4.1618e-14)
(2764.5 -4.93561e-10 3.76775e-14)
(2764.5 -4.83457e-10 3.7905e-14)
(2764.5 -4.69703e-10 3.7087e-14)
(2764.5 -4.57857e-10 3.5706e-14)
(2764.5 -4.31195e-10 3.85954e-14)
(2764.5 -4.07278e-10 3.78787e-14)
(2764.5 -3.95355e-10 3.80751e-14)
(2764.5 -3.7468e-10 3.74898e-14)
(2764.5 -3.52716e-10 3.90169e-14)
(2764.5 -3.36318e-10 3.75611e-14)
(2764.5 -3.24554e-10 4.04186e-14)
(2764.5 -3.08144e-10 4.0057e-14)
(2764.5 -3.00228e-10 3.93615e-14)
(2764.5 -2.88469e-10 3.77858e-14)
(2764.5 -2.84881e-10 3.60662e-14)
(2764.5 -2.95126e-10 3.88268e-14)
(2764.5 -3.07887e-10 3.9009e-14)
(2764.5 -3.24786e-10 3.80799e-14)
(2764.5 -3.51785e-10 3.92631e-14)
(2764.5 -3.77966e-10 3.71045e-14)
(2764.5 -3.99452e-10 4.00213e-14)
(2764.5 -4.2171e-10 4.04007e-14)
(2764.5 -4.59647e-10 3.80929e-14)
(2764.5 -4.9169e-10 3.85505e-14)
(2764.5 -5.18139e-10 3.68025e-14)
(2764.5 -5.42803e-10 3.95293e-14)
(2764.5 -5.64943e-10 3.99605e-14)
(2764.5 -5.83218e-10 3.38728e-14)
(2764.5 -6.07832e-10 3.54245e-14)
(2764.5 -6.25965e-10 3.86296e-14)
(2764.5 -6.52498e-10 4.29167e-14)
(2764.5 -6.75712e-10 4.19659e-14)
(2764.5 -6.8244e-10 3.99589e-14)
(2764.5 -6.80187e-10 3.63759e-14)
(2764.5 -6.52172e-10 3.38606e-14)
(2764.5 -6.12078e-10 3.57012e-14)
(2764.5 -5.78921e-10 3.61042e-14)
(2764.5 -5.47622e-10 3.35539e-14)
(2764.5 -4.80387e-10 3.36761e-14)
(2764.5 -3.8903e-10 3.64184e-14)
(2764.5 -3.4352e-10 3.088e-14)
(2764.5 -2.95086e-10 2.98444e-14)
(2764.5 -2.33649e-10 3.81873e-14)
(2764.5 -1.98174e-10 3.67603e-14)
(2764.5 -1.55268e-10 2.92989e-14)
(2764.5 -1.01235e-10 3.41331e-14)
(2764.5 -4.9423e-11 3.49093e-14)
(2764.5 -8.31267e-12 3.04571e-14)
(2764.5 2.25672e-11 3.06165e-14)
(2764.5 6.29179e-11 3.2642e-14)
(2764.5 8.70058e-11 3.28871e-14)
(2764.5 8.16041e-11 3.35385e-14)
(2764.5 5.17283e-11 3.33375e-14)
(2764.5 2.1028e-11 3.564e-14)
(2764.5 -1.87459e-11 3.5828e-14)
(2764.5 -4.92897e-11 3.23132e-14)
(2764.5 -7.80387e-11 3.08318e-14)
(2764.5 -1.21692e-10 3.33839e-14)
(2764.5 -2.0513e-10 3.49489e-14)
(2764.5 -3.53192e-10 3.46976e-14)
(2764.5 -4.92065e-10 3.48971e-14)
(2764.5 -5.55342e-10 3.30324e-14)
(2764.5 -5.90552e-10 3.21527e-14)
(2764.5 -6.35615e-10 3.31762e-14)
(2764.5 -6.85231e-10 3.46422e-14)
(2764.5 -7.30983e-10 3.20069e-14)
(2764.5 -7.69573e-10 3.32119e-14)
(2764.5 -8.11709e-10 3.15695e-14)
(2764.5 -8.48366e-10 3.04327e-14)
(2764.5 -8.92009e-10 3.31855e-14)
(2764.5 -9.3263e-10 3.39034e-14)
(2764.5 -9.75615e-10 3.09516e-14)
(2764.5 -1.00871e-09 2.91081e-14)
(2764.5 -1.04493e-09 3.20033e-14)
(2764.5 -1.07814e-09 2.97786e-14)
(2764.5 -1.12763e-09 2.94301e-14)
(2764.5 -1.19204e-09 3.25918e-14)
(2764.5 -1.25683e-09 3.15902e-14)
(2764.5 -1.28577e-09 3.3008e-14)
(2764.5 -1.27043e-09 3.18292e-14)
(2764.5 -1.24616e-09 3.03043e-14)
(2764.5 -1.21984e-09 2.90148e-14)
(2764.5 -1.13768e-09 3.32469e-14)
(2764.5 -5.25321e-10 5.23475e-14)
(2764.5 -5.27675e-10 5.27889e-14)
(2764.5 -5.30749e-10 5.49933e-14)
(2764.5 -5.35207e-10 5.00645e-14)
(2764.5 -5.38218e-10 5.06449e-14)
(2764.5 -5.43463e-10 5.08087e-14)
(2764.5 -5.49344e-10 5.0875e-14)
(2764.5 -5.5533e-10 5.2856e-14)
(2764.5 -5.62671e-10 5.23946e-14)
(2764.5 -5.74518e-10 5.44919e-14)
(2764.5 -5.79182e-10 4.91306e-14)
(2764.5 -5.78396e-10 4.94584e-14)
(2764.5 -5.74341e-10 5.65531e-14)
(2764.5 -5.62024e-10 5.09818e-14)
(2764.5 -5.50957e-10 4.96367e-14)
(2764.5 -5.35006e-10 5.23397e-14)
(2764.5 -5.18466e-10 5.05648e-14)
(2764.5 -5.04372e-10 5.06161e-14)
(2764.5 -4.9117e-10 4.97706e-14)
(2764.5 -4.68804e-10 4.99341e-14)
(2764.5 -4.49104e-10 4.79638e-14)
(2764.5 -4.35381e-10 4.82215e-14)
(2764.5 -4.24606e-10 4.73259e-14)
(2764.5 -4.18086e-10 4.5665e-14)
(2764.5 -4.21532e-10 4.44252e-14)
(2764.5 -4.272e-10 4.81366e-14)
(2764.5 -4.49158e-10 4.95217e-14)
(2764.5 -4.83477e-10 4.78148e-14)
(2764.5 -5.02976e-10 4.88132e-14)
(2764.5 -5.345e-10 4.83475e-14)
(2764.5 -5.61486e-10 4.85804e-14)
(2764.5 -5.90095e-10 4.76946e-14)
(2764.5 -6.16861e-10 4.90603e-14)
(2764.5 -6.3606e-10 5.15282e-14)
(2764.5 -6.62885e-10 5.1306e-14)
(2764.5 -6.82543e-10 4.86752e-14)
(2764.5 -7.00245e-10 4.55263e-14)
(2764.5 -7.07538e-10 4.66797e-14)
(2764.5 -7.20712e-10 4.62737e-14)
(2764.5 -7.27087e-10 4.614e-14)
(2764.5 -7.26716e-10 4.63309e-14)
(2764.5 -7.21369e-10 4.65587e-14)
(2764.5 -7.01378e-10 4.47319e-14)
(2764.5 -6.47453e-10 4.27159e-14)
(2764.5 -5.72996e-10 4.52632e-14)
(2764.5 -5.18138e-10 4.59049e-14)
(2764.5 -4.78358e-10 4.50315e-14)
(2764.5 -4.41684e-10 4.48419e-14)
(2764.5 -3.99235e-10 4.6586e-14)
(2764.5 -3.42084e-10 4.65457e-14)
(2764.5 -2.82323e-10 4.51593e-14)
(2764.5 -2.36215e-10 4.31152e-14)
(2764.5 -1.9529e-10 4.52634e-14)
(2764.5 -1.54363e-10 4.37337e-14)
(2764.5 -1.14656e-10 4.76458e-14)
(2764.5 -7.49367e-11 4.25871e-14)
(2764.5 -4.38415e-11 3.978e-14)
(2764.5 -3.28792e-11 4.54166e-14)
(2764.5 -4.75009e-11 4.58985e-14)
(2764.5 -8.15693e-11 4.1868e-14)
(2764.5 -1.45589e-10 4.22542e-14)
(2764.5 -2.61949e-10 4.56214e-14)
(2764.5 -3.63527e-10 4.05642e-14)
(2764.5 -3.91783e-10 4.10793e-14)
(2764.5 -4.47723e-10 4.13399e-14)
(2764.5 -4.87156e-10 3.92667e-14)
(2764.5 -6.03731e-10 4.51027e-14)
(2764.5 -7.3779e-10 4.34371e-14)
(2764.5 -7.89502e-10 4.27284e-14)
(2764.5 -8.47832e-10 4.3215e-14)
(2764.5 -8.91364e-10 4.09435e-14)
(2764.5 -9.46245e-10 4.07693e-14)
(2764.5 -9.88577e-10 3.91655e-14)
(2764.5 -1.04064e-09 3.84635e-14)
(2764.5 -1.08049e-09 3.99426e-14)
(2764.5 -1.12777e-09 3.92366e-14)
(2764.5 -1.16269e-09 3.94076e-14)
(2764.5 -1.20717e-09 3.95985e-14)
(2764.5 -1.25005e-09 3.81653e-14)
(2764.5 -1.22826e-09 3.85401e-14)
(2764.5 -1.18857e-09 3.85174e-14)
(2764.5 -1.11056e-09 3.90429e-14)
(2764.5 -9.54399e-10 3.85282e-14)
(2764.5 -9.22645e-10 3.82322e-14)
(2764.5 -9.42037e-10 4.09118e-14)
(2764.5 -8.45929e-10 4.02245e-14)
(2764.5 -7.00875e-10 4.13927e-14)
(2764.5 -1.59354e-10 4.16495e-14)
(2764.5 3.08534e-10 3.99169e-14)
(2764.5 3.87334e-10 3.9502e-14)
(2764.5 4.66486e-10 3.98756e-14)
(2764.5 5.26889e-10 4.10477e-14)
(2764.5 5.8854e-10 4.27939e-14)
(2764.5 6.62637e-10 3.89198e-14)
(2764.5 7.27395e-10 3.95915e-14)
(2764.5 7.84796e-10 4.38179e-14)
(2764.5 8.49993e-10 4.1216e-14)
(2764.5 9.20847e-10 4.37003e-14)
(2764.5 9.92696e-10 4.22055e-14)
(2764.5 1.08037e-09 3.99477e-14)
(2764.5 1.18285e-09 3.98268e-14)
(2764.5 1.29179e-09 3.91492e-14)
(2764.5 1.39141e-09 4.21398e-14)
(2764.5 1.55564e-09 3.9726e-14)
(2764.5 1.79948e-09 4.23486e-14)
(2764.5 1.97618e-09 4.17952e-14)
(2764.5 2.1068e-09 4.07463e-14)
(2764.5 2.31327e-09 4.0409e-14)
(2764.5 2.53177e-09 3.76684e-14)
(2764.5 2.75167e-09 4.01622e-14)
(2764.5 -6.43004e-10 5.7966e-14)
(2764.5 -6.28711e-10 5.87093e-14)
(2764.5 -6.18698e-10 5.99214e-14)
(2764.5 -5.99092e-10 5.69371e-14)
(2764.5 -5.7765e-10 5.8848e-14)
(2764.5 -5.6117e-10 5.75248e-14)
(2764.5 -5.44775e-10 5.82196e-14)
(2764.5 -5.34556e-10 5.53205e-14)
(2764.5 -5.29987e-10 5.7486e-14)
(2764.5 -5.36642e-10 5.98128e-14)
(2764.5 -5.50036e-10 5.49675e-14)
(2764.5 -5.74252e-10 6.0051e-14)
(2764.5 -6.00753e-10 6.27498e-14)
(2764.5 -6.19219e-10 6.06405e-14)
(2764.5 -6.50929e-10 5.65364e-14)
(2764.5 -6.84069e-10 5.48379e-14)
(2764.5 -7.03995e-10 6.27654e-14)
(2764.5 -7.19148e-10 6.19186e-14)
(2764.5 -7.45783e-10 6.1855e-14)
(2764.5 -7.62313e-10 5.60806e-14)
(2764.5 -7.78972e-10 5.54875e-14)
(2764.5 -7.9407e-10 5.59606e-14)
(2764.5 -7.95467e-10 5.80246e-14)
(2764.5 -7.89138e-10 5.96966e-14)
(2764.5 -7.75541e-10 5.56794e-14)
(2764.5 -7.52578e-10 5.47578e-14)
(2764.5 -6.89725e-10 5.68255e-14)
(2764.5 -6.10795e-10 5.933e-14)
(2764.5 -5.4617e-10 5.61272e-14)
(2764.5 -5.1098e-10 5.17545e-14)
(2764.5 -4.726e-10 4.88959e-14)
(2764.5 -4.26571e-10 5.47234e-14)
(2764.5 -3.72476e-10 5.54983e-14)
(2764.5 -3.38383e-10 5.1035e-14)
(2764.5 -2.98114e-10 5.07763e-14)
(2764.5 -2.68188e-10 5.27226e-14)
(2764.5 -2.29811e-10 5.23492e-14)
(2764.5 -1.95429e-10 5.28111e-14)
(2764.5 -1.74488e-10 5.20699e-14)
(2764.5 -1.87197e-10 5.43608e-14)
(2764.5 -2.09051e-10 5.36965e-14)
(2764.5 -2.38353e-10 5.32325e-14)
(2764.5 -3.0273e-10 5.13592e-14)
(2764.5 -3.90189e-10 5.30549e-14)
(2764.5 -4.80722e-10 5.29606e-14)
(2764.5 -6.00457e-10 5.20677e-14)
(2764.5 -7.11382e-10 5.45199e-14)
(2764.5 -7.55051e-10 5.43087e-14)
(2764.5 -7.7882e-10 5.17716e-14)
(2764.5 -8.20298e-10 5.1772e-14)
(2764.5 -8.72654e-10 5.09029e-14)
(2764.5 -9.32399e-10 5.2336e-14)
(2764.5 -9.75076e-10 4.89882e-14)
(2764.5 -1.03171e-09 5.12221e-14)
(2764.5 -1.0932e-09 5.19878e-14)
(2764.5 -1.13343e-09 4.86637e-14)
(2764.5 -1.16901e-09 5.15423e-14)
(2764.5 -1.20556e-09 4.90453e-14)
(2764.5 -1.23523e-09 5.03876e-14)
(2764.5 -1.16731e-09 5.23091e-14)
(2764.5 -1.06809e-09 5.12722e-14)
(2764.5 -7.77098e-10 5.24392e-14)
(2764.5 -3.02182e-10 5.19426e-14)
(2764.5 -2.28134e-10 5.12608e-14)
(2764.5 -1.71885e-10 4.90177e-14)
(2764.5 -3.54743e-11 5.21853e-14)
(2764.5 1.461e-10 5.42072e-14)
(2764.5 3.19088e-10 4.90617e-14)
(2764.5 4.69288e-10 5.21789e-14)
(2764.5 6.05083e-10 5.46623e-14)
(2764.5 7.30299e-10 5.09107e-14)
(2764.5 8.49894e-10 5.0393e-14)
(2764.5 9.84631e-10 5.03196e-14)
(2764.5 1.13697e-09 5.34367e-14)
(2764.5 1.29557e-09 4.9982e-14)
(2764.5 1.47449e-09 4.8081e-14)
(2764.5 1.65832e-09 5.0349e-14)
(2764.5 1.85325e-09 4.89597e-14)
(2764.5 2.12806e-09 4.79687e-14)
(2764.5 2.37358e-09 4.77879e-14)
(2764.5 2.54597e-09 4.61328e-14)
(2764.5 2.60985e-09 4.61412e-14)
(2764.5 2.65909e-09 4.76811e-14)
(2764.5 2.99131e-09 4.70524e-14)
(2764.5 3.49727e-09 4.82615e-14)
(2764.5 3.97184e-09 4.94751e-14)
(2764.5 4.16225e-09 4.78065e-14)
(2764.5 4.07109e-09 4.50443e-14)
(2764.5 4.10269e-09 4.59115e-14)
(2764.5 4.40269e-09 4.53105e-14)
(2764.5 4.72078e-09 4.75587e-14)
(2764.5 5.01995e-09 4.55359e-14)
(2764.5 5.33267e-09 4.87521e-14)
(2764.5 5.66924e-09 4.6132e-14)
(2764.5 5.99919e-09 4.60167e-14)
(2764.5 6.33099e-09 4.67506e-14)
(2764.5 6.68366e-09 4.7271e-14)
(2764.5 7.05408e-09 4.81756e-14)
(2764.5 7.46572e-09 4.52249e-14)
(2764.5 7.91217e-09 4.69918e-14)
(2764.5 8.42531e-09 4.74008e-14)
(2764.5 8.99501e-09 4.58409e-14)
(2764.5 9.64831e-09 4.60263e-14)
(2764.5 1.05055e-08 4.4158e-14)
(2764.5 1.14682e-08 4.64517e-14)
(2764.5 1.23854e-08 4.52034e-14)
(2764.5 1.34355e-08 4.53885e-14)
(2764.5 1.45705e-08 4.47722e-14)
(2764.5 1.56635e-08 4.50771e-14)
(2764.5 1.67276e-08 4.34696e-14)
(2764.5 -7.30852e-10 7.2134e-14)
(2764.5 -7.50948e-10 6.94251e-14)
(2764.5 -7.71171e-10 7.00014e-14)
(2764.5 -7.93656e-10 6.98573e-14)
(2764.5 -8.11083e-10 7.19249e-14)
(2764.5 -8.28213e-10 6.96822e-14)
(2764.5 -8.44554e-10 6.74745e-14)
(2764.5 -8.43911e-10 6.87476e-14)
(2764.5 -8.27995e-10 7.00801e-14)