/*--------------------------------*- C++ -*----------------------------------*\
| =========                 |                                                 |
| \\      /  F ield         | OpenFOAM: The Open Source CFD Toolbox           |
|  \\    /   O peration     | Version:  v1706                                 |
|   \\  /    A nd           | Web:      www.OpenFOAM.com                      |
|    \\/     M anipulation  |                                                 |
\*---------------------------------------------------------------------------*/
FoamFile
{
    version     2.0;
    format      ascii;
    class       volScalarField;
    location    "1.9e-05";
    object      kappave;
}
// * * * * * * * * * * * * * * * * * * * * * * * * * * * * * * * * * * * * * //

dimensions      [1 1 -3 -1 0 0 0];


internalField   nonuniform List<scalar> 
30104
(
1.46038e-10
1.46038e-10
1.46038e-10
1.46038e-10
1.46038e-10
1.46038e-10
1.46038e-10
1.46038e-10
1.46038e-10
1.46038e-10
1.46038e-10
1.46038e-10
1.46038e-10
1.46038e-10
1.46038e-10
1.46038e-10
1.46038e-10
1.46039e-10
1.46039e-10
1.46039e-10
1.46039e-10
1.46039e-10
1.46039e-10
1.46039e-10
1.46039e-10
1.46039e-10
1.46039e-10
1.46039e-10
1.46039e-10
1.46039e-10
1.46039e-10
1.46039e-10
1.46039e-10
1.46039e-10
1.46039e-10
1.46039e-10
1.46039e-10
1.46039e-10
1.46039e-10
1.46039e-10
1.46039e-10
1.46039e-10
1.46039e-10
1.46039e-10
1.46039e-10
1.46039e-10
1.46039e-10
1.46039e-10
1.46039e-10
1.46039e-10
1.46039e-10
1.46039e-10
1.46039e-10
1.46039e-10
1.46039e-10
1.46039e-10
1.46039e-10
1.46039e-10
1.46039e-10
1.46039e-10
1.4604e-10
1.4604e-10
1.4604e-10
1.4604e-10
1.4604e-10
1.4604e-10
1.4604e-10
1.4604e-10
1.4604e-10
1.4604e-10
1.4604e-10
1.4604e-10
1.4604e-10
1.4604e-10
1.4604e-10
1.4604e-10
1.4604e-10
1.4604e-10
1.4604e-10
1.4604e-10
1.4604e-10
1.4604e-10
1.4604e-10
1.4604e-10
1.4604e-10
1.4604e-10
1.4604e-10
1.4604e-10
1.4604e-10
1.4604e-10
1.4604e-10
1.4604e-10
1.46041e-10
1.46041e-10
1.46041e-10
1.46041e-10
1.46041e-10
1.46041e-10
1.46041e-10
1.46041e-10
1.46041e-10
1.46041e-10
1.46041e-10
1.46041e-10
1.46041e-10
1.46041e-10
1.46041e-10
1.46041e-10
1.46041e-10
1.46041e-10
1.46041e-10
1.46041e-10
1.46041e-10
1.46042e-10
1.46042e-10
1.46042e-10
1.46042e-10
1.46042e-10
1.46042e-10
1.46042e-10
1.46042e-10
1.46042e-10
1.46042e-10
1.46042e-10
1.46042e-10
1.46042e-10
1.46042e-10
1.46042e-10
1.46042e-10
1.46043e-10
1.46043e-10
1.46043e-10
1.46043e-10
1.46043e-10
1.46043e-10
1.46043e-10
1.46043e-10
1.46043e-10
1.46043e-10
1.46043e-10
1.46043e-10
1.46043e-10
1.46044e-10
1.46044e-10
1.46044e-10
1.46044e-10
1.46044e-10
1.46044e-10
1.46044e-10
1.46044e-10
1.46044e-10
1.46044e-10
1.46045e-10
1.46045e-10
1.46045e-10
1.46045e-10
1.46045e-10
1.46045e-10
1.46045e-10
1.46045e-10
1.46045e-10
1.46045e-10
1.46046e-10
1.46046e-10
1.46046e-10
1.46046e-10
1.46046e-10
1.46046e-10
1.46046e-10
1.46046e-10
1.46047e-10
1.46047e-10
1.46047e-10
1.46047e-10
1.46047e-10
1.46047e-10
1.46047e-10
1.46048e-10
1.46048e-10
1.46048e-10
1.46048e-10
1.46048e-10
1.46048e-10
1.46049e-10
1.46049e-10
1.46049e-10
1.46049e-10
1.46049e-10
1.46049e-10
1.4605e-10
1.4605e-10
1.4605e-10
1.4605e-10
1.4605e-10
1.46051e-10
1.46051e-10
1.46051e-10
1.46051e-10
1.46051e-10
1.46052e-10
1.46052e-10
1.46052e-10
1.46052e-10
1.46052e-10
1.46053e-10
1.46053e-10
1.46053e-10
1.46053e-10
1.46053e-10
1.46051e-10
1.46038e-10
1.46038e-10
1.46038e-10
1.46038e-10
1.46038e-10
1.46038e-10
1.46038e-10
1.46039e-10
1.46039e-10
1.46039e-10
1.46039e-10
1.46039e-10
1.46039e-10
1.46039e-10
1.4604e-10
1.4604e-10
1.4604e-10
1.46044e-10
1.46044e-10
1.46044e-10
1.46044e-10
1.46044e-10
1.46044e-10
1.46044e-10
1.46045e-10
1.46045e-10
1.46045e-10
1.46045e-10
1.46045e-10
1.46045e-10
1.46045e-10
1.46045e-10
1.46045e-10
1.46046e-10
1.46046e-10
1.46046e-10
1.46046e-10
1.46046e-10
1.46046e-10
1.46046e-10
1.46047e-10
1.46047e-10
1.46047e-10
1.46047e-10
1.46047e-10
1.46047e-10
1.46048e-10
1.46048e-10
1.46048e-10
1.46048e-10
1.46048e-10
1.46048e-10
1.46049e-10
1.46049e-10
1.46049e-10
1.46049e-10
1.46049e-10
1.4605e-10
1.4605e-10
1.4605e-10
1.4605e-10
1.4605e-10
1.46051e-10
1.46051e-10
1.46051e-10
1.46051e-10
1.46051e-10
1.46052e-10
1.46052e-10
1.46052e-10
1.46052e-10
1.46053e-10
1.46053e-10
1.46053e-10
1.46053e-10
1.46053e-10
1.46054e-10
1.46054e-10
1.46054e-10
1.46054e-10
1.46055e-10
1.46055e-10
1.46055e-10
1.46056e-10
1.46056e-10
1.46056e-10
1.46056e-10
1.46057e-10
1.46057e-10
1.46057e-10
1.46058e-10
1.46058e-10
1.46058e-10
1.46059e-10
1.46059e-10
1.46059e-10
1.4606e-10
1.4606e-10
1.4606e-10
1.46061e-10
1.46061e-10
1.46061e-10
1.46062e-10
1.46062e-10
1.46063e-10
1.46063e-10
1.46063e-10
1.46064e-10
1.46064e-10
1.46065e-10
1.46065e-10
1.46066e-10
1.46066e-10
1.46066e-10
1.46067e-10
1.46067e-10
1.46068e-10
1.46068e-10
1.46069e-10
1.46069e-10
1.4607e-10
1.4607e-10
1.46071e-10
1.46072e-10
1.46072e-10
1.46073e-10
1.46073e-10
1.46074e-10
1.46074e-10
1.46075e-10
1.46076e-10
1.46076e-10
1.46077e-10
1.46078e-10
1.46078e-10
1.46079e-10
1.4608e-10
1.4608e-10
1.46081e-10
1.46082e-10
1.46083e-10
1.46083e-10
1.46084e-10
1.46085e-10
1.46086e-10
1.46086e-10
1.46087e-10
1.46088e-10
1.46089e-10
1.4609e-10
1.46091e-10
1.46092e-10
1.46092e-10
1.46093e-10
1.46094e-10
1.46095e-10
1.46096e-10
1.46097e-10
1.46098e-10
1.46099e-10
1.461e-10
1.46101e-10
1.46102e-10
1.46103e-10
1.46104e-10
1.46106e-10
1.46107e-10
1.46108e-10
1.46109e-10
1.4611e-10
1.46112e-10
1.46113e-10
1.46114e-10
1.46116e-10
1.46117e-10
1.46118e-10
1.4612e-10
1.46121e-10
1.46123e-10
1.46124e-10
1.46126e-10
1.46128e-10
1.46129e-10
1.46131e-10
1.46133e-10
1.46134e-10
1.46136e-10
1.46138e-10
1.4614e-10
1.46142e-10
1.46144e-10
1.46146e-10
1.46148e-10
1.4615e-10
1.46152e-10
1.46154e-10
1.46156e-10
1.46158e-10
1.4616e-10
1.46162e-10
1.46164e-10
1.46166e-10
1.46169e-10
1.46171e-10
1.46173e-10
1.46175e-10
1.46178e-10
1.4618e-10
1.4618e-10
1.46169e-10
1.46039e-10
1.46039e-10
1.46039e-10
1.46039e-10
1.4604e-10
1.4604e-10
1.4604e-10
1.4604e-10
1.46041e-10
1.46041e-10
1.46041e-10
1.46042e-10
1.46042e-10
1.46043e-10
1.46043e-10
1.46044e-10
1.46059e-10
1.46059e-10
1.4606e-10
1.4606e-10
1.4606e-10
1.46061e-10
1.46061e-10
1.46061e-10
1.46062e-10
1.46062e-10
1.46063e-10
1.46063e-10
1.46063e-10
1.46064e-10
1.46064e-10
1.46065e-10
1.46065e-10
1.46066e-10
1.46066e-10
1.46067e-10
1.46067e-10
1.46068e-10
1.46068e-10
1.46069e-10
1.46069e-10
1.4607e-10
1.46071e-10
1.46071e-10
1.46072e-10
1.46073e-10
1.46073e-10
1.46074e-10
1.46075e-10
1.46075e-10
1.46076e-10
1.46077e-10
1.46078e-10
1.46078e-10
1.46079e-10
1.4608e-10
1.46081e-10
1.46081e-10
1.46082e-10
1.46083e-10
1.46084e-10
1.46084e-10
1.46085e-10
1.46086e-10
1.46087e-10
1.46088e-10
1.46089e-10
1.4609e-10
1.4609e-10
1.46091e-10
1.46092e-10
1.46093e-10
1.46094e-10
1.46095e-10
1.46096e-10
1.46097e-10
1.46098e-10
1.46099e-10
1.461e-10
1.46101e-10
1.46103e-10
1.46104e-10
1.46105e-10
1.46106e-10
1.46107e-10
1.46108e-10
1.4611e-10
1.46111e-10
1.46112e-10
1.46113e-10
1.46115e-10
1.46116e-10
1.46117e-10
1.46119e-10
1.4612e-10
1.46122e-10
1.46123e-10
1.46125e-10
1.46126e-10
1.46128e-10
1.46129e-10
1.46131e-10
1.46133e-10
1.46134e-10
1.46136e-10
1.46138e-10
1.4614e-10
1.46142e-10
1.46143e-10
1.46145e-10
1.46147e-10
1.46149e-10
1.46151e-10
1.46153e-10
1.46155e-10
1.46158e-10
1.4616e-10
1.46162e-10
1.46164e-10
1.46166e-10
1.46169e-10
1.46171e-10
1.46174e-10
1.46176e-10
1.46179e-10
1.46181e-10
1.46184e-10
1.46186e-10
1.46189e-10
1.46192e-10
1.46195e-10
1.46198e-10
1.46201e-10
1.46204e-10
1.46207e-10
1.4621e-10
1.46213e-10
1.46217e-10
1.4622e-10
1.46224e-10
1.46227e-10
1.46231e-10
1.46235e-10
1.46238e-10
1.46242e-10
1.46246e-10
1.4625e-10
1.46254e-10
1.46259e-10
1.46263e-10
1.46267e-10
1.46271e-10
1.46276e-10
1.4628e-10
1.46285e-10
1.4629e-10
1.46294e-10
1.46299e-10
1.46304e-10
1.46309e-10
1.46314e-10
1.46319e-10
1.46324e-10
1.4633e-10
1.46335e-10
1.4634e-10
1.46346e-10
1.46352e-10
1.46358e-10
1.46364e-10
1.4637e-10
1.46376e-10
1.46383e-10
1.46389e-10
1.46396e-10
1.46403e-10
1.4641e-10
1.46418e-10
1.46425e-10
1.46433e-10
1.46441e-10
1.46449e-10
1.46458e-10
1.46466e-10
1.46475e-10
1.46484e-10
1.46493e-10
1.46502e-10
1.46512e-10
1.46522e-10
1.46531e-10
1.46542e-10
1.46552e-10
1.46562e-10
1.46573e-10
1.46584e-10
1.46594e-10
1.46605e-10
1.46617e-10
1.46628e-10
1.46639e-10
1.46651e-10
1.46662e-10
1.46674e-10
1.46686e-10
1.46698e-10
1.46711e-10
1.46715e-10
1.46671e-10
1.46041e-10
1.46041e-10
1.46042e-10
1.46042e-10
1.46043e-10
1.46043e-10
1.46044e-10
1.46045e-10
1.46046e-10
1.46047e-10
1.46048e-10
1.46049e-10
1.46051e-10
1.46052e-10
1.46054e-10
1.46055e-10
1.461e-10
1.46101e-10
1.46102e-10
1.46103e-10
1.46104e-10
1.46105e-10
1.46107e-10
1.46108e-10
1.46109e-10
1.4611e-10
1.46111e-10
1.46113e-10
1.46114e-10
1.46115e-10
1.46117e-10
1.46118e-10
1.4612e-10
1.46121e-10
1.46123e-10
1.46125e-10
1.46126e-10
1.46128e-10
1.4613e-10
1.46132e-10
1.46134e-10
1.46136e-10
1.46138e-10
1.4614e-10
1.46142e-10
1.46144e-10
1.46147e-10
1.46149e-10
1.46151e-10
1.46154e-10
1.46156e-10
1.46159e-10
1.46161e-10
1.46164e-10
1.46166e-10
1.46169e-10
1.46171e-10
1.46174e-10
1.46176e-10
1.46179e-10
1.46182e-10
1.46185e-10
1.46187e-10
1.4619e-10
1.46193e-10
1.46196e-10
1.46199e-10
1.46202e-10
1.46205e-10
1.46208e-10
1.46212e-10
1.46215e-10
1.46218e-10
1.46222e-10
1.46225e-10
1.46229e-10
1.46233e-10
1.46236e-10
1.4624e-10
1.46244e-10
1.46248e-10
1.46252e-10
1.46256e-10
1.4626e-10
1.46264e-10
1.46269e-10
1.46273e-10
1.46278e-10
1.46282e-10
1.46287e-10
1.46292e-10
1.46297e-10
1.46302e-10
1.46307e-10
1.46312e-10
1.46318e-10
1.46323e-10
1.46329e-10
1.46334e-10
1.4634e-10
1.46346e-10
1.46352e-10
1.46359e-10
1.46365e-10
1.46372e-10
1.46378e-10
1.46385e-10
1.46392e-10
1.46399e-10
1.46407e-10
1.46414e-10
1.46422e-10
1.4643e-10
1.46438e-10
1.46446e-10
1.46454e-10
1.46463e-10
1.46471e-10
1.4648e-10
1.46489e-10
1.46498e-10
1.46507e-10
1.46517e-10
1.46526e-10
1.46536e-10
1.46546e-10
1.46556e-10
1.46566e-10
1.46577e-10
1.46587e-10
1.46599e-10
1.4661e-10
1.46621e-10
1.46633e-10
1.46645e-10
1.46658e-10
1.46671e-10
1.46684e-10
1.46697e-10
1.46711e-10
1.46725e-10
1.4674e-10
1.46754e-10
1.4677e-10
1.46785e-10
1.46801e-10
1.46817e-10
1.46834e-10
1.46851e-10
1.46869e-10
1.46886e-10
1.46904e-10
1.46923e-10
1.46942e-10
1.46961e-10
1.4698e-10
1.47e-10
1.4702e-10
1.47041e-10
1.47061e-10
1.47083e-10
1.47104e-10
1.47126e-10
1.47148e-10
1.47171e-10
1.47194e-10
1.47217e-10
1.47241e-10
1.47266e-10
1.47291e-10
1.47316e-10
1.47343e-10
1.4737e-10
1.47397e-10
1.47426e-10
1.47455e-10
1.47485e-10
1.47516e-10
1.47548e-10
1.47581e-10
1.47615e-10
1.47651e-10
1.47687e-10
1.47724e-10
1.47763e-10
1.47803e-10
1.47844e-10
1.47887e-10
1.4793e-10
1.47975e-10
1.48022e-10
1.48069e-10
1.48117e-10
1.48167e-10
1.48217e-10
1.48269e-10
1.48321e-10
1.48375e-10
1.48429e-10
1.48483e-10
1.48538e-10
1.48594e-10
1.4865e-10
1.48707e-10
1.48764e-10
1.48821e-10
1.4888e-10
1.48919e-10
1.48766e-10
1.46046e-10
1.46047e-10
1.46048e-10
1.46049e-10
1.46051e-10
1.46053e-10
1.46055e-10
1.46057e-10
1.46059e-10
1.46062e-10
1.46065e-10
1.46068e-10
1.46072e-10
1.46075e-10
1.4608e-10
1.46209e-10
1.46212e-10
1.46215e-10
1.46218e-10
1.46222e-10
1.46225e-10
1.46228e-10
1.46232e-10
1.46235e-10
1.46239e-10
1.46243e-10
1.46247e-10
1.46251e-10
1.46255e-10
1.46259e-10
1.46263e-10
1.46268e-10
1.46273e-10
1.46277e-10
1.46283e-10
1.46288e-10
1.46293e-10
1.46299e-10
1.46304e-10
1.4631e-10
1.46316e-10
1.46323e-10
1.46329e-10
1.46336e-10
1.46343e-10
1.46349e-10
1.46357e-10
1.46364e-10
1.46371e-10
1.46379e-10
1.46386e-10
1.46394e-10
1.46402e-10
1.4641e-10
1.46418e-10
1.46426e-10
1.46435e-10
1.46443e-10
1.46452e-10
1.46461e-10
1.4647e-10
1.46479e-10
1.46488e-10
1.46497e-10
1.46507e-10
1.46517e-10
1.46527e-10
1.46537e-10
1.46547e-10
1.46558e-10
1.46569e-10
1.4658e-10
1.46591e-10
1.46603e-10
1.46615e-10
1.46627e-10
1.4664e-10
1.46652e-10
1.46665e-10
1.46679e-10
1.46692e-10
1.46706e-10
1.4672e-10
1.46735e-10
1.4675e-10
1.46765e-10
1.4678e-10
1.46796e-10
1.46812e-10
1.46828e-10
1.46845e-10
1.46862e-10
1.46879e-10
1.46897e-10
1.46915e-10
1.46934e-10
1.46953e-10
1.46972e-10
1.46992e-10
1.47012e-10
1.47033e-10
1.47055e-10
1.47077e-10
1.47099e-10
1.47122e-10
1.47146e-10
1.4717e-10
1.47195e-10
1.47221e-10
1.47247e-10
1.47274e-10
1.47301e-10
1.47329e-10
1.47358e-10
1.47388e-10
1.47418e-10
1.47448e-10
1.4748e-10
1.47511e-10
1.47544e-10
1.47577e-10
1.47611e-10
1.47646e-10
1.47681e-10
1.47717e-10
1.47754e-10
1.47791e-10
1.47829e-10
1.47868e-10
1.47908e-10
1.47949e-10
1.47991e-10
1.48034e-10
1.48078e-10
1.48124e-10
1.4817e-10
1.48218e-10
1.48266e-10
1.48317e-10
1.48368e-10
1.48422e-10
1.48476e-10
1.48533e-10
1.48591e-10
1.4865e-10
1.48712e-10
1.48775e-10
1.4884e-10
1.48907e-10
1.48975e-10
1.49046e-10
1.49118e-10
1.49192e-10
1.49267e-10
1.49344e-10
1.49423e-10
1.49502e-10
1.49584e-10
1.49666e-10
1.49749e-10
1.49834e-10
1.4992e-10
1.50006e-10
1.50094e-10
1.50183e-10
1.50273e-10
1.50364e-10
1.50457e-10
1.50552e-10
1.50649e-10
1.50747e-10
1.50848e-10
1.50951e-10
1.51056e-10
1.51164e-10
1.51275e-10
1.51389e-10
1.51506e-10
1.51626e-10
1.5175e-10
1.51878e-10
1.5201e-10
1.52146e-10
1.52287e-10
1.52432e-10
1.52582e-10
1.52737e-10
1.52897e-10
1.53063e-10
1.53234e-10
1.5341e-10
1.53593e-10
1.53781e-10
1.53974e-10
1.54173e-10
1.54377e-10
1.54586e-10
1.548e-10
1.55018e-10
1.55241e-10
1.55467e-10
1.55696e-10
1.55927e-10
1.56159e-10
1.56395e-10
1.56626e-10
1.56859e-10
1.56462e-10
1.46056e-10
1.46058e-10
1.46061e-10
1.46064e-10
1.46068e-10
1.46072e-10
1.46077e-10
1.46082e-10
1.46087e-10
1.46093e-10
1.461e-10
1.46108e-10
1.46116e-10
1.46125e-10
1.46134e-10
1.46145e-10
1.4649e-10
1.46498e-10
1.46507e-10
1.46516e-10
1.46525e-10
1.46534e-10
1.46544e-10
1.46554e-10
1.46564e-10
1.46574e-10
1.46585e-10
1.46596e-10
1.46607e-10
1.46619e-10
1.46631e-10
1.46644e-10
1.46657e-10
1.4667e-10
1.46684e-10
1.46699e-10
1.46714e-10
1.4673e-10
1.46746e-10
1.46762e-10
1.4678e-10
1.46797e-10
1.46816e-10
1.46835e-10
1.46854e-10
1.46874e-10
1.46895e-10
1.46916e-10
1.46937e-10
1.46959e-10
1.46982e-10
1.47005e-10
1.47028e-10
1.47052e-10
1.47077e-10
1.47101e-10
1.47127e-10
1.47152e-10
1.47178e-10
1.47204e-10
1.47231e-10
1.47258e-10
1.47286e-10
1.47314e-10
1.47343e-10
1.47372e-10
1.47402e-10
1.47432e-10
1.47463e-10
1.47495e-10
1.47528e-10
1.47561e-10
1.47595e-10
1.4763e-10
1.47666e-10
1.47703e-10
1.47741e-10
1.4778e-10
1.4782e-10
1.4786e-10
1.47902e-10
1.47945e-10
1.47988e-10
1.48033e-10
1.48079e-10
1.48126e-10
1.48174e-10
1.48222e-10
1.48272e-10
1.48324e-10
1.48376e-10
1.48429e-10
1.48483e-10
1.48539e-10
1.48596e-10
1.48654e-10
1.48714e-10
1.48775e-10
1.48837e-10
1.48901e-10
1.48967e-10
1.49034e-10
1.49103e-10
1.49174e-10
1.49247e-10
1.49322e-10
1.49398e-10
1.49477e-10
1.49558e-10
1.49642e-10
1.49727e-10
1.49815e-10
1.49906e-10
1.49999e-10
1.50095e-10
1.50193e-10
1.50294e-10
1.50397e-10
1.50503e-10
1.50611e-10
1.50721e-10
1.50834e-10
1.50949e-10
1.51066e-10
1.51185e-10
1.51306e-10
1.51428e-10
1.51553e-10
1.51679e-10
1.51808e-10
1.51938e-10
1.52071e-10
1.52207e-10
1.52345e-10
1.52486e-10
1.5263e-10
1.52778e-10
1.52929e-10
1.53084e-10
1.53244e-10
1.53407e-10
1.53575e-10
1.53748e-10
1.53927e-10
1.5411e-10
1.54299e-10
1.54494e-10
1.54694e-10
1.54901e-10
1.55114e-10
1.55333e-10
1.55559e-10
1.55791e-10
1.5603e-10
1.56275e-10
1.56526e-10
1.56784e-10
1.57048e-10
1.57317e-10
1.57592e-10
1.57871e-10
1.58155e-10
1.58443e-10
1.58734e-10
1.59027e-10
1.59322e-10
1.5962e-10
1.5992e-10
1.60223e-10
1.60529e-10
1.60838e-10
1.6115e-10
1.61465e-10
1.61784e-10
1.62107e-10
1.62434e-10
1.62766e-10
1.63103e-10
1.63446e-10
1.63796e-10
1.64153e-10
1.64519e-10
1.64893e-10
1.65278e-10
1.65674e-10
1.66081e-10
1.66503e-10
1.66938e-10
1.6739e-10
1.67857e-10
1.68343e-10
1.68846e-10
1.69369e-10
1.69912e-10
1.70475e-10
1.71057e-10
1.71662e-10
1.72284e-10
1.72929e-10
1.73589e-10
1.74269e-10
1.74965e-10
1.75675e-10
1.76407e-10
1.77127e-10
1.77877e-10
1.78566e-10
1.79437e-10
1.79194e-10
1.46083e-10
1.4609e-10
1.46097e-10
1.46105e-10
1.46114e-10
1.46125e-10
1.46136e-10
1.46149e-10
1.46162e-10
1.46178e-10
1.46195e-10
1.46213e-10
1.46233e-10
1.47192e-10
1.47216e-10
1.4724e-10
1.47264e-10
1.47289e-10
1.47315e-10
1.47342e-10
1.47369e-10
1.47396e-10
1.47425e-10
1.47455e-10
1.47485e-10
1.47516e-10
1.47549e-10
1.47582e-10
1.47617e-10
1.47653e-10
1.4769e-10
1.47728e-10
1.47768e-10
1.47809e-10
1.47851e-10
1.47895e-10
1.47941e-10
1.47988e-10
1.48037e-10
1.48087e-10
1.48139e-10
1.48193e-10
1.48248e-10
1.48305e-10
1.48364e-10
1.48424e-10
1.48486e-10
1.48549e-10
1.48614e-10
1.4868e-10
1.48748e-10
1.48817e-10
1.48888e-10
1.48959e-10
1.49032e-10
1.49107e-10
1.49182e-10
1.49259e-10
1.49338e-10
1.49418e-10
1.49499e-10
1.49581e-10
1.49666e-10
1.49752e-10
1.4984e-10
1.4993e-10
1.50022e-10
1.50116e-10
1.50213e-10
1.50312e-10
1.50413e-10
1.50517e-10
1.50624e-10
1.50734e-10
1.50846e-10
1.50962e-10
1.5108e-10
1.51202e-10
1.51327e-10
1.51455e-10
1.51586e-10
1.51721e-10
1.51859e-10
1.52001e-10
1.52145e-10
1.52293e-10
1.52445e-10
1.52599e-10
1.52756e-10
1.52916e-10
1.53079e-10
1.53245e-10
1.53413e-10
1.53585e-10
1.53759e-10
1.53938e-10
1.54119e-10
1.54305e-10
1.54494e-10
1.54688e-10
1.54886e-10
1.55089e-10
1.55298e-10
1.55511e-10
1.55731e-10
1.55956e-10
1.56188e-10
1.56425e-10
1.5667e-10
1.56921e-10
1.57179e-10
1.57445e-10
1.57717e-10
1.57997e-10
1.58283e-10
1.58578e-10
1.58879e-10
1.59187e-10
1.59502e-10
1.59824e-10
1.60152e-10
1.60487e-10
1.60827e-10
1.61171e-10
1.6152e-10
1.61873e-10
1.6223e-10
1.6259e-10
1.62955e-10
1.63325e-10
1.63699e-10
1.64077e-10
1.64461e-10
1.6485e-10
1.65245e-10
1.65645e-10
1.66052e-10
1.66465e-10
1.66885e-10
1.67313e-10
1.67749e-10
1.68194e-10
1.68649e-10
1.69115e-10
1.69593e-10
1.70083e-10
1.70587e-10
1.71106e-10
1.71639e-10
1.72188e-10
1.72754e-10
1.73336e-10
1.73935e-10
1.7455e-10
1.75181e-10
1.75828e-10
1.76489e-10
1.77164e-10
1.77851e-10
1.7855e-10
1.79256e-10
1.79957e-10
1.80652e-10
1.8134e-10
1.8202e-10
1.82691e-10
1.83355e-10
1.8401e-10
1.84657e-10
1.85295e-10
1.85925e-10
1.86548e-10
1.87162e-10
1.87769e-10
1.88369e-10
1.88961e-10
1.89544e-10
1.9012e-10
1.90686e-10
1.91242e-10
1.91787e-10
1.9232e-10
1.92838e-10
1.93343e-10
1.93829e-10
1.94301e-10
1.94752e-10
1.95187e-10
1.95599e-10
1.95994e-10
1.96367e-10
1.96723e-10
1.97059e-10
1.97375e-10
1.97677e-10
1.97956e-10
1.98227e-10
1.98472e-10
1.98716e-10
1.98931e-10
1.99147e-10
1.99343e-10
1.99533e-10
1.99724e-10
1.99945e-10
1.99629e-10
1.46151e-10
1.46167e-10
1.46185e-10
1.46206e-10
1.46228e-10
1.46253e-10
1.46282e-10
1.46312e-10
1.46347e-10
1.46384e-10
1.46426e-10
1.46471e-10
1.4652e-10
1.48891e-10
1.48951e-10
1.49013e-10
1.49076e-10
1.49141e-10
1.49207e-10
1.49275e-10
1.49345e-10
1.49416e-10
1.4949e-10
1.49566e-10
1.49644e-10
1.49725e-10
1.49808e-10
1.49894e-10
1.49983e-10
1.50076e-10
1.50171e-10
1.5027e-10
1.50372e-10
1.50478e-10
1.50588e-10
1.50702e-10
1.5082e-10
1.50942e-10
1.51068e-10
1.51198e-10
1.51333e-10
1.51473e-10
1.51616e-10
1.51764e-10
1.51916e-10
1.52073e-10
1.52233e-10
1.52398e-10
1.52567e-10
1.5274e-10
1.52917e-10
1.53098e-10
1.53282e-10
1.5347e-10
1.53662e-10
1.53857e-10
1.54055e-10
1.54257e-10
1.54461e-10
1.54669e-10
1.5488e-10
1.55094e-10
1.55311e-10
1.55532e-10
1.55756e-10
1.55984e-10
1.56217e-10
1.56454e-10
1.56695e-10
1.56942e-10
1.57194e-10
1.57452e-10
1.57716e-10
1.57987e-10
1.58264e-10
1.58547e-10
1.58838e-10
1.59136e-10
1.59442e-10
1.59755e-10
1.60076e-10
1.60404e-10
1.6074e-10
1.61084e-10
1.61435e-10
1.61794e-10
1.6216e-10
1.62533e-10
1.62913e-10
1.63299e-10
1.63692e-10
1.64089e-10
1.64492e-10
1.64899e-10
1.65311e-10
1.65729e-10
1.66152e-10
1.6658e-10
1.67015e-10
1.67456e-10
1.67903e-10
1.68357e-10
1.68818e-10
1.69285e-10
1.6976e-10
1.70242e-10
1.70733e-10
1.71232e-10
1.7174e-10
1.72257e-10
1.72785e-10
1.73325e-10
1.73876e-10
1.74441e-10
1.75018e-10
1.75609e-10
1.76215e-10
1.76834e-10
1.77467e-10
1.78113e-10
1.78771e-10
1.79441e-10
1.8012e-10
1.80808e-10
1.81499e-10
1.82183e-10
1.82858e-10
1.83523e-10
1.84177e-10
1.8482e-10
1.8545e-10
1.86068e-10
1.86674e-10
1.87267e-10
1.87849e-10
1.8842e-10
1.8898e-10
1.89531e-10
1.90073e-10
1.90606e-10
1.91131e-10
1.91648e-10
1.92156e-10
1.92655e-10
1.93144e-10
1.93622e-10
1.94087e-10
1.94539e-10
1.94975e-10
1.95395e-10
1.95798e-10
1.96182e-10
1.96548e-10
1.96895e-10
1.97223e-10
1.97533e-10
1.97825e-10
1.98101e-10
1.98362e-10
1.98608e-10
1.98841e-10
1.99065e-10
1.99282e-10
1.99493e-10
1.99699e-10
1.999e-10
2.00097e-10
2.0029e-10
2.00478e-10
2.00662e-10
2.00839e-10
2.0101e-10
2.01173e-10
2.01328e-10
2.01473e-10
2.01607e-10
2.0173e-10
2.01841e-10
2.0194e-10
2.02028e-10
2.02105e-10
2.02171e-10
2.02229e-10
2.02278e-10
2.02323e-10
2.02361e-10
2.02399e-10
2.0243e-10
2.02466e-10
2.02498e-10
2.02535e-10
2.0257e-10
2.02612e-10
2.02652e-10
2.02698e-10
2.02744e-10
2.02795e-10
2.02846e-10
2.02898e-10
2.02956e-10
2.03005e-10
2.03068e-10
2.03112e-10
2.03173e-10
2.03236e-10
2.0318e-10
1.46281e-10
1.46316e-10
1.46355e-10
1.46399e-10
1.46448e-10
1.46503e-10
1.46564e-10
1.46632e-10
1.46706e-10
1.46789e-10
1.46879e-10
1.46978e-10
1.47086e-10
1.47203e-10
1.52755e-10
1.529e-10
1.53049e-10
1.532e-10
1.53355e-10
1.53514e-10
1.53676e-10
1.53843e-10
1.54014e-10
1.54189e-10
1.54369e-10
1.54554e-10
1.54745e-10
1.54942e-10
1.55144e-10
1.55353e-10
1.55569e-10
1.55791e-10
1.56021e-10
1.56258e-10
1.56502e-10
1.56754e-10
1.57014e-10
1.57281e-10
1.57556e-10
1.57839e-10
1.58131e-10
1.58431e-10
1.5874e-10
1.59057e-10
1.59383e-10
1.59718e-10
1.60061e-10
1.60412e-10
1.60772e-10
1.6114e-10
1.61516e-10
1.61899e-10
1.62291e-10
1.62689e-10
1.63094e-10
1.63506e-10
1.63925e-10
1.64349e-10
1.6478e-10
1.65216e-10
1.65657e-10
1.66103e-10
1.66553e-10
1.67007e-10
1.67465e-10
1.67927e-10
1.68393e-10
1.68864e-10
1.69341e-10
1.69823e-10
1.70311e-10
1.70805e-10
1.71306e-10
1.71814e-10
1.72328e-10
1.7285e-10
1.73378e-10
1.73914e-10
1.74458e-10
1.75009e-10
1.75568e-10
1.76135e-10
1.76711e-10
1.77296e-10
1.77889e-10
1.78492e-10
1.79105e-10
1.79726e-10
1.80357e-10
1.80996e-10
1.81643e-10
1.82296e-10
1.82954e-10
1.83608e-10
1.84253e-10
1.84891e-10
1.85518e-10
1.86134e-10
1.86738e-10
1.8733e-10
1.87909e-10
1.88475e-10
1.89029e-10
1.8957e-10
1.90101e-10
1.9062e-10
1.9113e-10
1.9163e-10
1.92122e-10
1.92603e-10
1.93077e-10
1.93541e-10
1.93993e-10
1.94435e-10
1.94863e-10
1.95276e-10
1.95673e-10
1.96053e-10
1.96412e-10
1.96752e-10
1.97071e-10
1.9737e-10
1.97648e-10
1.97906e-10
1.98146e-10
1.9837e-10
1.98583e-10
1.98787e-10
1.98983e-10
1.99173e-10
1.9936e-10
1.99544e-10
1.99727e-10
1.9991e-10
2.00091e-10
2.00272e-10
2.00451e-10
2.00626e-10
2.00797e-10
2.00961e-10
2.01117e-10
2.01263e-10
2.01398e-10
2.01522e-10
2.01633e-10
2.01733e-10
2.01821e-10
2.01899e-10
2.01968e-10
2.02029e-10
2.02085e-10
2.02137e-10
2.02187e-10
2.02235e-10
2.02285e-10
2.02335e-10
2.02388e-10
2.02442e-10
2.025e-10
2.0256e-10
2.02622e-10
2.02686e-10
2.02751e-10
2.02816e-10
2.02881e-10
2.02945e-10
2.03006e-10
2.03064e-10
2.03118e-10
2.03167e-10
2.0321e-10
2.03249e-10
2.03281e-10
2.03308e-10
2.03329e-10
2.03346e-10
2.03359e-10
2.03369e-10
2.03375e-10
2.03381e-10
2.03384e-10
2.03389e-10
2.03392e-10
2.03398e-10
2.03403e-10
2.03412e-10
2.03421e-10
2.03434e-10
2.03448e-10
2.03465e-10
2.03484e-10
2.03505e-10
2.03528e-10
2.03552e-10
2.03578e-10
2.03604e-10
2.03631e-10
2.03655e-10
2.03682e-10
2.03703e-10
2.03728e-10
2.03745e-10
2.03768e-10
2.0378e-10
2.03798e-10
2.03815e-10
2.03804e-10
1.46627e-10
1.4671e-10
1.46803e-10
1.46907e-10
1.47024e-10
1.47154e-10
1.47298e-10
1.47458e-10
1.47633e-10
1.47825e-10
1.48036e-10
1.48265e-10
1.48513e-10
1.48783e-10
1.6067e-10
1.60966e-10
1.61267e-10
1.61573e-10
1.61884e-10
1.622e-10
1.62523e-10
1.62851e-10
1.63187e-10
1.6353e-10
1.63881e-10
1.64241e-10
1.6461e-10
1.64987e-10
1.65375e-10
1.65773e-10
1.66181e-10
1.66601e-10
1.67032e-10
1.67474e-10
1.67928e-10
1.68393e-10
1.6887e-10
1.69357e-10
1.69856e-10
1.70365e-10
1.70886e-10
1.71418e-10
1.71961e-10
1.72513e-10
1.73075e-10
1.73645e-10
1.74223e-10
1.7481e-10
1.75405e-10
1.76007e-10
1.76615e-10
1.77228e-10
1.77846e-10
1.78468e-10
1.79094e-10
1.79722e-10
1.80353e-10
1.80985e-10
1.81619e-10
1.82255e-10
1.82891e-10
1.83528e-10
1.84165e-10
1.84795e-10
1.85417e-10
1.86027e-10
1.86627e-10
1.87215e-10
1.87791e-10
1.88355e-10
1.88906e-10
1.89444e-10
1.89969e-10
1.90481e-10
1.9098e-10
1.91467e-10
1.91941e-10
1.92404e-10
1.92856e-10
1.93298e-10
1.93728e-10
1.94148e-10
1.94558e-10
1.94955e-10
1.95341e-10
1.95714e-10
1.96071e-10
1.96414e-10
1.96739e-10
1.97046e-10
1.97336e-10
1.97607e-10
1.9786e-10
1.98098e-10
1.98323e-10
1.98536e-10
1.9874e-10
1.98935e-10
1.99124e-10
1.99308e-10
1.99489e-10
1.99667e-10
1.99842e-10
2.00016e-10
2.00186e-10
2.00351e-10
2.00513e-10
2.00666e-10
2.00811e-10
2.00947e-10
2.01071e-10
2.01183e-10
2.01284e-10
2.01374e-10
2.01452e-10
2.01522e-10
2.01585e-10
2.01642e-10
2.01695e-10
2.01747e-10
2.01798e-10
2.0185e-10
2.01905e-10
2.01964e-10
2.02026e-10
2.02092e-10
2.02162e-10
2.02237e-10
2.02314e-10
2.02393e-10
2.02473e-10
2.02552e-10
2.02629e-10
2.02703e-10
2.02771e-10
2.02832e-10
2.02887e-10
2.02933e-10
2.02972e-10
2.03003e-10
2.03029e-10
2.03049e-10
2.03065e-10
2.03079e-10
2.03091e-10
2.03102e-10
2.03114e-10
2.03127e-10
2.03141e-10
2.03158e-10
2.03177e-10
2.032e-10
2.03225e-10
2.03254e-10
2.03285e-10
2.03318e-10
2.03353e-10
2.0339e-10
2.03426e-10
2.03462e-10
2.03497e-10
2.03529e-10
2.0356e-10
2.03587e-10
2.0361e-10
2.03631e-10
2.03648e-10
2.03662e-10
2.03672e-10
2.0368e-10
2.03685e-10
2.03688e-10
2.03688e-10
2.03688e-10
2.03687e-10
2.03685e-10
2.03683e-10
2.03681e-10
2.0368e-10
2.0368e-10
2.03681e-10
2.03684e-10
2.03688e-10
2.03694e-10
2.03701e-10
2.0371e-10
2.03721e-10
2.03734e-10
2.03747e-10
2.03762e-10
2.03778e-10
2.03794e-10
2.03811e-10
2.03828e-10
2.03845e-10
2.03861e-10
2.03879e-10
2.03894e-10
2.03912e-10
2.03925e-10
2.03941e-10
2.03953e-10
2.03968e-10
2.03979e-10
2.03991e-10
2.04004e-10
2.04004e-10
1.47437e-10
1.4763e-10
1.47846e-10
1.48087e-10
1.48356e-10
1.48653e-10
1.48981e-10
1.49342e-10
1.49738e-10
1.50169e-10
1.50639e-10
1.51147e-10
1.51695e-10
1.52283e-10
1.73867e-10
1.74339e-10
1.74814e-10
1.75292e-10
1.75775e-10
1.76264e-10
1.76757e-10
1.77256e-10
1.77759e-10
1.78266e-10
1.78778e-10
1.79295e-10
1.79816e-10
1.80344e-10
1.80878e-10
1.81418e-10
1.81966e-10
1.8252e-10
1.83081e-10
1.83647e-10
1.84218e-10
1.84794e-10
1.85373e-10
1.85949e-10
1.86522e-10
1.87089e-10
1.87649e-10
1.88201e-10
1.88745e-10
1.89282e-10
1.89814e-10
1.90339e-10
1.90854e-10
1.91357e-10
1.91848e-10
1.92326e-10
1.92792e-10
1.93245e-10
1.93684e-10
1.9411e-10
1.94521e-10
1.94918e-10
1.95301e-10
1.9567e-10
1.96023e-10
1.9636e-10
1.96682e-10
1.96987e-10
1.97275e-10
1.97547e-10
1.97805e-10
1.98049e-10
1.9828e-10
1.98499e-10
1.98708e-10
1.98906e-10
1.99096e-10
1.99278e-10
1.99454e-10
1.99624e-10
1.99788e-10
1.99949e-10
2.00104e-10
2.00254e-10
2.00398e-10
2.00534e-10
2.00664e-10
2.00784e-10
2.00895e-10
2.00997e-10
2.01091e-10
2.01174e-10
2.01251e-10
2.01321e-10
2.01385e-10
2.01447e-10
2.01505e-10
2.01562e-10
2.01621e-10
2.01681e-10
2.01742e-10
2.01806e-10
2.01874e-10
2.01943e-10
2.02013e-10
2.02085e-10
2.02155e-10
2.02222e-10
2.02288e-10
2.02349e-10
2.02402e-10
2.02451e-10
2.02493e-10
2.02528e-10
2.02559e-10
2.02585e-10
2.02607e-10
2.02628e-10
2.02647e-10
2.02665e-10
2.02685e-10
2.02707e-10
2.0273e-10
2.02757e-10
2.02789e-10
2.02824e-10
2.02862e-10
2.02906e-10
2.02951e-10
2.02998e-10
2.03046e-10
2.03095e-10
2.03142e-10
2.03187e-10
2.03229e-10
2.03267e-10
2.033e-10
2.03329e-10
2.03353e-10
2.03374e-10
2.0339e-10
2.03401e-10
2.03409e-10
2.03414e-10
2.03417e-10
2.0342e-10
2.03422e-10
2.03424e-10
2.03428e-10
2.03432e-10
2.03439e-10
2.03447e-10
2.03457e-10
2.0347e-10
2.03485e-10
2.03502e-10
2.03522e-10
2.03542e-10
2.03564e-10
2.03587e-10
2.0361e-10
2.03633e-10
2.03655e-10
2.03676e-10
2.03697e-10
2.03715e-10
2.03733e-10
2.03748e-10
2.03762e-10
2.03774e-10
2.03784e-10
2.03793e-10
2.03799e-10
2.03804e-10
2.03807e-10
2.0381e-10
2.03811e-10
2.03812e-10
2.03812e-10
2.03813e-10
2.03814e-10
2.03816e-10
2.03818e-10
2.03822e-10
2.03827e-10
2.03834e-10
2.03842e-10
2.03851e-10
2.03862e-10
2.03874e-10
2.03888e-10
2.03902e-10
2.03918e-10
2.03934e-10
2.03952e-10
2.03969e-10
2.03987e-10
2.04005e-10
2.04023e-10
2.0404e-10
2.04058e-10
2.04074e-10
2.04092e-10
2.04107e-10
2.04123e-10
2.04137e-10
2.04153e-10
2.04166e-10
2.0418e-10
2.04193e-10
2.04205e-10
2.04221e-10
2.0422e-10
1.49286e-10
1.49714e-10
1.50193e-10
1.50724e-10
1.51313e-10
1.5196e-10
1.52669e-10
1.53441e-10
1.54275e-10
1.55172e-10
1.56133e-10
1.57157e-10
1.58245e-10
1.89519e-10
1.89965e-10
1.90399e-10
1.90822e-10
1.91231e-10
1.91627e-10
1.92009e-10
1.92379e-10
1.92741e-10
1.93096e-10
1.93445e-10
1.93788e-10
1.94123e-10
1.94451e-10
1.94769e-10
1.95077e-10
1.95376e-10
1.95666e-10
1.95946e-10
1.96217e-10
1.96479e-10
1.96731e-10
1.96975e-10
1.97213e-10
1.97445e-10
1.97671e-10
1.97892e-10
1.98112e-10
1.98328e-10
1.98537e-10
1.98735e-10
1.98922e-10
1.99098e-10
1.99269e-10
1.99435e-10
1.99596e-10
1.9975e-10
1.99899e-10
2.00042e-10
2.0018e-10
2.00312e-10
2.00438e-10
2.00559e-10
2.00672e-10
2.00779e-10
2.0088e-10
2.00974e-10
2.0106e-10
2.01142e-10
2.0122e-10
2.01293e-10
2.01363e-10
2.01432e-10
2.01499e-10
2.01563e-10
2.01627e-10
2.01691e-10
2.01753e-10
2.01814e-10
2.01875e-10
2.01933e-10
2.01988e-10
2.02039e-10
2.02086e-10
2.02129e-10
2.02168e-10
2.02204e-10
2.02236e-10
2.02267e-10
2.02296e-10
2.02323e-10
2.02351e-10
2.02379e-10
2.02408e-10
2.0244e-10
2.02475e-10
2.02511e-10
2.0255e-10
2.02593e-10
2.02635e-10
2.02679e-10
2.02725e-10
2.02767e-10
2.02806e-10
2.02846e-10
2.0288e-10
2.02907e-10
2.02935e-10
2.02958e-10
2.02973e-10
2.02989e-10
2.03002e-10
2.03011e-10
2.0302e-10
2.03029e-10
2.03037e-10
2.03047e-10
2.03058e-10
2.03071e-10
2.03086e-10
2.03105e-10
2.03127e-10
2.03151e-10
2.03178e-10
2.03207e-10
2.03236e-10
2.03269e-10
2.03301e-10
2.03329e-10
2.0336e-10
2.03391e-10
2.03417e-10
2.0344e-10
2.03465e-10
2.03486e-10
2.03502e-10
2.03516e-10
2.03527e-10
2.03536e-10
2.03542e-10
2.03546e-10
2.0355e-10
2.03553e-10
2.03557e-10
2.03561e-10
2.03566e-10
2.03572e-10
2.03579e-10
2.03588e-10
2.03599e-10
2.03611e-10
2.03626e-10
2.03642e-10
2.03659e-10
2.03678e-10
2.03698e-10
2.03718e-10
2.03739e-10
2.0376e-10
2.03781e-10
2.03801e-10
2.0382e-10
2.03838e-10
2.03855e-10
2.0387e-10
2.03884e-10
2.03897e-10
2.03908e-10
2.03918e-10