/*--------------------------------*- C++ -*----------------------------------*\
| =========                 |                                                 |
| \\      /  F ield         | OpenFOAM: The Open Source CFD Toolbox           |
|  \\    /   O peration     | Version:  v1706                                 |
|   \\  /    A nd           | Web:      www.OpenFOAM.com                      |
|    \\/     M anipulation  |                                                 |
\*---------------------------------------------------------------------------*/
FoamFile
{
    version     2.0;
    format      ascii;
    class       volScalarField;
    location    "1.9e-05";
    object      kappatr;
}
// * * * * * * * * * * * * * * * * * * * * * * * * * * * * * * * * * * * * * //

dimensions      [1 1 -3 -1 0 0 0];


internalField   nonuniform List<scalar> 
30104
(
0.014593
0.014593
0.014593
0.014593
0.014593
0.014593
0.014593
0.014593
0.014593
0.014593
0.014593
0.014593
0.014593
0.014593
0.014593
0.014593
0.014593
0.0145931
0.0145931
0.0145931
0.0145931
0.0145931
0.0145931
0.0145931
0.0145931
0.0145931
0.0145931
0.0145931
0.0145931
0.0145931
0.0145931
0.0145931
0.0145931
0.0145931
0.0145931
0.0145931
0.0145931
0.0145931
0.0145931
0.0145931
0.0145931
0.0145931
0.0145931
0.0145931
0.0145931
0.0145931
0.0145932
0.0145932
0.0145932
0.0145932
0.0145932
0.0145932
0.0145932
0.0145932
0.0145932
0.0145932
0.0145932
0.0145932
0.0145932
0.0145932
0.0145932
0.0145932
0.0145932
0.0145932
0.0145932
0.0145932
0.0145932
0.0145932
0.0145932
0.0145932
0.0145932
0.0145932
0.0145932
0.0145932
0.0145932
0.0145932
0.0145932
0.0145932
0.0145932
0.0145932
0.0145932
0.0145932
0.0145933
0.0145933
0.0145933
0.0145933
0.0145933
0.0145933
0.0145933
0.0145933
0.0145933
0.0145933
0.0145933
0.0145933
0.0145933
0.0145933
0.0145933
0.0145933
0.0145933
0.0145933
0.0145933
0.0145933
0.0145933
0.0145933
0.0145933
0.0145933
0.0145934
0.0145934
0.0145934
0.0145934
0.0145934
0.0145934
0.0145934
0.0145934
0.0145934
0.0145934
0.0145934
0.0145934
0.0145934
0.0145934
0.0145934
0.0145934
0.0145934
0.0145934
0.0145935
0.0145935
0.0145935
0.0145935
0.0145935
0.0145935
0.0145935
0.0145935
0.0145935
0.0145935
0.0145935
0.0145935
0.0145935
0.0145935
0.0145936
0.0145936
0.0145936
0.0145936
0.0145936
0.0145936
0.0145936
0.0145936
0.0145936
0.0145936
0.0145936
0.0145937
0.0145937
0.0145937
0.0145937
0.0145937
0.0145937
0.0145937
0.0145937
0.0145937
0.0145938
0.0145938
0.0145938
0.0145938
0.0145938
0.0145938
0.0145938
0.0145938
0.0145938
0.0145939
0.0145939
0.0145939
0.0145939
0.0145939
0.0145939
0.0145939
0.014594
0.014594
0.014594
0.014594
0.014594
0.014594
0.014594
0.0145941
0.0145941
0.0145941
0.0145941
0.0145941
0.0145941
0.0145942
0.0145942
0.0145942
0.0145942
0.0145942
0.0145943
0.0145943
0.0145943
0.0145943
0.0145943
0.0145944
0.0145944
0.0145944
0.0145944
0.0145944
0.0145945
0.0145945
0.0145945
0.0145945
0.0145945
0.0145946
0.0145946
0.0145943
0.014593
0.014593
0.0145931
0.0145931
0.0145931
0.0145931
0.0145931
0.0145931
0.0145931
0.0145931
0.0145931
0.0145931
0.0145932
0.0145932
0.0145932
0.0145932
0.0145932
0.0145936
0.0145936
0.0145936
0.0145937
0.0145937
0.0145937
0.0145937
0.0145937
0.0145937
0.0145937
0.0145937
0.0145937
0.0145937
0.0145938
0.0145938
0.0145938
0.0145938
0.0145938
0.0145938
0.0145938
0.0145938
0.0145939
0.0145939
0.0145939
0.0145939
0.0145939
0.0145939
0.014594
0.014594
0.014594
0.014594
0.014594
0.014594
0.0145941
0.0145941
0.0145941
0.0145941
0.0145941
0.0145942
0.0145942
0.0145942
0.0145942
0.0145942
0.0145943
0.0145943
0.0145943
0.0145943
0.0145943
0.0145944
0.0145944
0.0145944
0.0145944
0.0145944
0.0145945
0.0145945
0.0145945
0.0145945
0.0145946
0.0145946
0.0145946
0.0145946
0.0145947
0.0145947
0.0145947
0.0145947
0.0145948
0.0145948
0.0145948
0.0145948
0.0145949
0.0145949
0.0145949
0.014595
0.014595
0.014595
0.0145951
0.0145951
0.0145951
0.0145952
0.0145952
0.0145952
0.0145953
0.0145953
0.0145953
0.0145954
0.0145954
0.0145955
0.0145955
0.0145955
0.0145956
0.0145956
0.0145957
0.0145957
0.0145957
0.0145958
0.0145958
0.0145959
0.0145959
0.014596
0.014596
0.0145961
0.0145961
0.0145962
0.0145962
0.0145963
0.0145963
0.0145964
0.0145964
0.0145965
0.0145966
0.0145966
0.0145967
0.0145967
0.0145968
0.0145969
0.0145969
0.014597
0.0145971
0.0145971
0.0145972
0.0145973
0.0145973
0.0145974
0.0145975
0.0145976
0.0145976
0.0145977
0.0145978
0.0145979
0.014598
0.014598
0.0145981
0.0145982
0.0145983
0.0145984
0.0145985
0.0145986
0.0145987
0.0145988
0.0145989
0.0145989
0.014599
0.0145991
0.0145993
0.0145994
0.0145995
0.0145996
0.0145997
0.0145998
0.0145999
0.0146
0.0146001
0.0146003
0.0146004
0.0146005
0.0146006
0.0146008
0.0146009
0.0146011
0.0146012
0.0146014
0.0146015
0.0146017
0.0146018
0.014602
0.0146022
0.0146023
0.0146025
0.0146027
0.0146029
0.014603
0.0146032
0.0146034
0.0146036
0.0146038
0.014604
0.0146042
0.0146044
0.0146046
0.0146048
0.014605
0.0146052
0.0146054
0.0146057
0.0146059
0.0146061
0.0146063
0.0146065
0.0146068
0.014607
0.0146073
0.0146073
0.0146061
0.0145931
0.0145931
0.0145931
0.0145932
0.0145932
0.0145932
0.0145932
0.0145933
0.0145933
0.0145933
0.0145934
0.0145934
0.0145935
0.0145935
0.0145936
0.0145936
0.0145951
0.0145952
0.0145952
0.0145952
0.0145953
0.0145953
0.0145953
0.0145954
0.0145954
0.0145954
0.0145955
0.0145955
0.0145956
0.0145956
0.0145957
0.0145957
0.0145957
0.0145958
0.0145958
0.0145959
0.014596
0.014596
0.0145961
0.0145961
0.0145962
0.0145962
0.0145963
0.0145964
0.0145964
0.0145965
0.0145966
0.0145966
0.0145967
0.0145968
0.0145968
0.0145969
0.014597
0.0145971
0.0145971
0.0145972
0.0145973
0.0145974
0.0145974
0.0145975
0.0145976
0.0145977
0.0145978
0.0145978
0.0145979
0.014598
0.0145981
0.0145982
0.0145983
0.0145984
0.0145985
0.0145986
0.0145987
0.0145987
0.0145988
0.0145989
0.0145991
0.0145992
0.0145993
0.0145994
0.0145995
0.0145996
0.0145997
0.0145998
0.0145999
0.0146001
0.0146002
0.0146003
0.0146004
0.0146006
0.0146007
0.0146008
0.014601
0.0146011
0.0146013
0.0146014
0.0146015
0.0146017
0.0146019
0.014602
0.0146022
0.0146023
0.0146025
0.0146027
0.0146028
0.014603
0.0146032
0.0146034
0.0146036
0.0146038
0.014604
0.0146042
0.0146044
0.0146046
0.0146048
0.014605
0.0146052
0.0146054
0.0146056
0.0146059
0.0146061
0.0146063
0.0146066
0.0146068
0.0146071
0.0146073
0.0146076
0.0146079
0.0146081
0.0146084
0.0146087
0.014609
0.0146093
0.0146096
0.0146099
0.0146102
0.0146106
0.0146109
0.0146112
0.0146116
0.0146119
0.0146123
0.0146127
0.0146131
0.0146134
0.0146138
0.0146142
0.0146147
0.0146151
0.0146155
0.0146159
0.0146164
0.0146168
0.0146173
0.0146177
0.0146182
0.0146187
0.0146191
0.0146196
0.0146201
0.0146206
0.0146211
0.0146216
0.0146222
0.0146227
0.0146233
0.0146238
0.0146244
0.014625
0.0146256
0.0146262
0.0146268
0.0146275
0.0146282
0.0146288
0.0146295
0.0146303
0.014631
0.0146317
0.0146325
0.0146333
0.0146341
0.014635
0.0146358
0.0146367
0.0146376
0.0146385
0.0146394
0.0146404
0.0146414
0.0146423
0.0146434
0.0146444
0.0146454
0.0146465
0.0146475
0.0146486
0.0146497
0.0146508
0.014652
0.0146531
0.0146543
0.0146554
0.0146566
0.0146578
0.014659
0.0146603
0.0146607
0.0146563
0.0145933
0.0145933
0.0145934
0.0145935
0.0145935
0.0145936
0.0145937
0.0145937
0.0145938
0.0145939
0.014594
0.0145942
0.0145943
0.0145944
0.0145946
0.0145948
0.0145992
0.0145993
0.0145995
0.0145996
0.0145997
0.0145998
0.0145999
0.0146
0.0146001
0.0146002
0.0146004
0.0146005
0.0146006
0.0146008
0.0146009
0.0146011
0.0146012
0.0146014
0.0146015
0.0146017
0.0146019
0.014602
0.0146022
0.0146024
0.0146026
0.0146028
0.014603
0.0146032
0.0146035
0.0146037
0.0146039
0.0146041
0.0146044
0.0146046
0.0146048
0.0146051
0.0146053
0.0146056
0.0146058
0.0146061
0.0146063
0.0146066
0.0146069
0.0146071
0.0146074
0.0146077
0.014608
0.0146083
0.0146085
0.0146088
0.0146091
0.0146094
0.0146098
0.0146101
0.0146104
0.0146107
0.0146111
0.0146114
0.0146118
0.0146121
0.0146125
0.0146128
0.0146132
0.0146136
0.014614
0.0146144
0.0146148
0.0146152
0.0146157
0.0146161
0.0146165
0.014617
0.0146175
0.0146179
0.0146184
0.0146189
0.0146194
0.0146199
0.0146204
0.014621
0.0146215
0.0146221
0.0146227
0.0146232
0.0146238
0.0146245
0.0146251
0.0146257
0.0146264
0.014627
0.0146277
0.0146284
0.0146292
0.0146299
0.0146306
0.0146314
0.0146322
0.014633
0.0146338
0.0146346
0.0146355
0.0146363
0.0146372
0.0146381
0.014639
0.0146399
0.0146409
0.0146418
0.0146428
0.0146438
0.0146448
0.0146458
0.0146469
0.0146479
0.014649
0.0146502
0.0146513
0.0146525
0.0146537
0.014655
0.0146562
0.0146576
0.0146589
0.0146603
0.0146617
0.0146631
0.0146646
0.0146661
0.0146677
0.0146693
0.0146709
0.0146726
0.0146743
0.014676
0.0146778
0.0146796
0.0146815
0.0146833
0.0146852
0.0146872
0.0146892
0.0146912
0.0146932
0.0146953
0.0146974
0.0146996
0.0147017
0.014704
0.0147062
0.0147085
0.0147109
0.0147133
0.0147157
0.0147182
0.0147208
0.0147234
0.0147261
0.0147289
0.0147317
0.0147346
0.0147377
0.0147408
0.014744
0.0147473
0.0147507
0.0147542
0.0147578
0.0147616
0.0147654
0.0147694
0.0147735
0.0147778
0.0147821
0.0147866
0.0147912
0.014796
0.0148008
0.0148058
0.0148108
0.014816
0.0148212
0.0148265
0.0148319
0.0148374
0.0148429
0.0148485
0.0148541
0.0148597
0.0148654
0.0148712
0.014877
0.014881
0.0148656
0.0145938
0.0145939
0.014594
0.0145942
0.0145943
0.0145945
0.0145947
0.0145949
0.0145952
0.0145954
0.0145957
0.014596
0.0145964
0.0145968
0.0145972
0.0146101
0.0146104
0.0146107
0.0146111
0.0146114
0.0146117
0.014612
0.0146124
0.0146127
0.0146131
0.0146135
0.0146139
0.0146143
0.0146147
0.0146151
0.0146156
0.014616
0.0146165
0.014617
0.0146175
0.014618
0.0146185
0.0146191
0.0146197
0.0146203
0.0146209
0.0146215
0.0146221
0.0146228
0.0146235
0.0146242
0.0146249
0.0146256
0.0146263
0.0146271
0.0146279
0.0146286
0.0146294
0.0146302
0.014631
0.0146319
0.0146327
0.0146335
0.0146344
0.0146353
0.0146362
0.0146371
0.014638
0.0146389
0.0146399
0.0146409
0.0146419
0.0146429
0.0146439
0.014645
0.0146461
0.0146472
0.0146483
0.0146495
0.0146507
0.0146519
0.0146531
0.0146544
0.0146557
0.014657
0.0146584
0.0146598
0.0146612
0.0146627
0.0146641
0.0146657
0.0146672
0.0146688
0.0146704
0.014672
0.0146737
0.0146754
0.0146771
0.0146789
0.0146807
0.0146825
0.0146844
0.0146864
0.0146884
0.0146904
0.0146925
0.0146946
0.0146968
0.0146991
0.0147014
0.0147038
0.0147062
0.0147087
0.0147112
0.0147139
0.0147165
0.0147193
0.0147221
0.014725
0.0147279
0.0147309
0.014734
0.0147371
0.0147403
0.0147435
0.0147469
0.0147502
0.0147537
0.0147572
0.0147608
0.0147645
0.0147682
0.014772
0.0147759
0.0147799
0.014784
0.0147882
0.0147925
0.0147969
0.0148014
0.0148061
0.0148108
0.0148157
0.0148207
0.0148259
0.0148312
0.0148367
0.0148423
0.0148481
0.0148541
0.0148602
0.0148665
0.014873
0.0148797
0.0148865
0.0148936
0.0149008
0.0149082
0.0149157
0.0149234
0.0149312
0.0149392
0.0149473
0.0149556
0.0149639
0.0149724
0.0149809
0.0149896
0.0149983
0.0150072
0.0150162
0.0150253
0.0150346
0.0150441
0.0150538
0.0150636
0.0150737
0.0150839
0.0150945
0.0151053
0.0151163
0.0151277
0.0151394
0.0151514
0.0151638
0.0151766
0.0151898
0.0152034
0.0152174
0.015232
0.0152469
0.0152624
0.0152784
0.015295
0.0153121
0.0153297
0.0153479
0.0153667
0.015386
0.0154059
0.0154263
0.0154472
0.0154686
0.0154904
0.0155126
0.0155352
0.0155581
0.0155812
0.0156044
0.0156279
0.0156511
0.0156743
0.0156347
0.0145948
0.0145951
0.0145954
0.0145957
0.014596
0.0145964
0.0145969
0.0145974
0.014598
0.0145986
0.0145992
0.0146
0.0146008
0.0146017
0.0146026
0.0146037
0.0146382
0.014639
0.0146399
0.0146408
0.0146417
0.0146426
0.0146436
0.0146446
0.0146456
0.0146466
0.0146477
0.0146488
0.0146499
0.0146511
0.0146523
0.0146536
0.0146549
0.0146562
0.0146576
0.0146591
0.0146606
0.0146621
0.0146637
0.0146654
0.0146671
0.0146689
0.0146707
0.0146726
0.0146746
0.0146766
0.0146786
0.0146807
0.0146829
0.0146851
0.0146874
0.0146897
0.014692
0.0146944
0.0146968
0.0146993
0.0147018
0.0147044
0.014707
0.0147096
0.0147123
0.014715
0.0147177
0.0147206
0.0147234
0.0147263
0.0147293
0.0147324
0.0147355
0.0147387
0.0147419
0.0147452
0.0147487
0.0147522
0.0147558
0.0147594
0.0147632
0.0147671
0.0147711
0.0147751
0.0147793
0.0147836
0.0147879
0.0147924
0.014797
0.0148017
0.0148064
0.0148113
0.0148163
0.0148214
0.0148266
0.014832
0.0148374
0.014843
0.0148486
0.0148545
0.0148604
0.0148665
0.0148727
0.0148791
0.0148857
0.0148924
0.0148993
0.0149064
0.0149137
0.0149211
0.0149288
0.0149367
0.0149448
0.0149531
0.0149617
0.0149705
0.0149795
0.0149888
0.0149984
0.0150082
0.0150183
0.0150286
0.0150392
0.01505
0.015061
0.0150723
0.0150838
0.0150955
0.0151074
0.0151194
0.0151317
0.0151441
0.0151567
0.0151696
0.0151826
0.0151959
0.0152094
0.0152232
0.0152373
0.0152518
0.0152665
0.0152816
0.0152971
0.0153131
0.0153294
0.0153462
0.0153635
0.0153813
0.0153997
0.0154185
0.015438
0.015458
0.0154787
0.0155
0.0155219
0.0155444
0.0155676
0.0155915
0.015616
0.0156411
0.0156668
0.0156932
0.0157201
0.0157475
0.0157755
0.0158039
0.0158326
0.0158617
0.0158909
0.0159204
0.0159502
0.0159802
0.0160105
0.0160411
0.0160719
0.0161031
0.0161346
0.0161665
0.0161987
0.0162314
0.0162646
0.0162983
0.0163326
0.0163675
0.0164032
0.0164397
0.0164772
0.0165156
0.0165551
0.0165959
0.016638
0.0166815
0.0167266
0.0167733
0.0168219
0.0168722
0.0169245
0.0169786
0.017035
0.0170931
0.0171536
0.0172157
0.0172801
0.0173461
0.0174141
0.0174837
0.0175546
0.0176277
0.0176997
0.0177746
0.0178435
0.0179305
0.0179062
0.0145976
0.0145982
0.0145989
0.0145998
0.0146007
0.0146017
0.0146028
0.0146041
0.0146055
0.014607
0.0146087
0.0146105
0.0146126
0.0147084
0.0147107
0.0147131
0.0147156
0.0147181
0.0147207
0.0147233
0.014726
0.0147288
0.0147316
0.0147346
0.0147376
0.0147408
0.014744
0.0147473
0.0147508
0.0147544
0.0147581
0.0147619
0.0147659
0.01477
0.0147742
0.0147786
0.0147832
0.0147879
0.0147928
0.0147978
0.014803
0.0148084
0.0148139
0.0148196
0.0148255
0.0148315
0.0148377
0.014844
0.0148505
0.0148571
0.0148638
0.0148707
0.0148778
0.014885
0.0148923
0.0148997
0.0149073
0.0149149
0.0149228
0.0149307
0.0149389
0.0149471
0.0149555
0.0149641
0.0149729
0.0149819
0.0149911
0.0150005
0.0150102
0.0150201
0.0150302
0.0150406
0.0150513
0.0150623
0.0150735
0.0150851
0.0150969
0.0151091
0.0151215
0.0151343
0.0151475
0.0151609
0.0151747
0.0151889
0.0152033
0.0152181
0.0152332
0.0152486
0.0152643
0.0152803
0.0152966
0.0153132
0.01533
0.0153472
0.0153646
0.0153824
0.0154006
0.0154191
0.015438
0.0154574
0.0154772
0.0154975
0.0155183
0.0155397
0.0155616
0.0155841
0.0156072
0.015631
0.0156554
0.0156806
0.0157064
0.0157329
0.0157601
0.015788
0.0158167
0.0158461
0.0158762
0.015907
0.0159385
0.0159706
0.0160034
0.0160368
0.0160708
0.0161053
0.0161401
0.0161754
0.016211
0.016247
0.0162835
0.0163204
0.0163578
0.0163957
0.016434
0.0164729
0.0165123
0.0165523
0.0165929
0.0166342
0.0166762
0.0167189
0.0167625
0.016807
0.0168525
0.0168991
0.0169468
0.0169958
0.0170461
0.0170979
0.0171513
0.0172061
0.0172627
0.0173208
0.0173807
0.0174422
0.0175052
0.0175699
0.0176359
0.0177033
0.017772
0.0178418
0.0179123
0.0179825
0.0180519
0.0181206
0.0181886
0.0182557
0.018322
0.0183874
0.0184521
0.0185158
0.0185788
0.018641
0.0187024
0.0187631
0.018823
0.0188821
0.0189405
0.018998
0.0190545
0.0191101
0.0191645
0.0192178
0.0192696
0.01932
0.0193687
0.0194158
0.0194608
0.0195043
0.0195455
0.019585
0.0196223
0.0196578
0.0196913
0.019723
0.0197531
0.019781
0.0198081
0.0198326
0.0198569
0.0198784
0.0199
0.0199196
0.0199386
0.0199577
0.0199798
0.0199482
0.0146043
0.014606
0.0146078
0.0146098
0.014612
0.0146146
0.0146174
0.0146205
0.0146239
0.0146276
0.0146318
0.0146363
0.0146412
0.0148781
0.0148842
0.0148903
0.0148966
0.0149031
0.0149097
0.0149165
0.0149235
0.0149306
0.014938
0.0149456
0.0149534
0.0149614
0.0149698
0.0149784
0.0149873
0.0149965
0.015006
0.0150159
0.0150261
0.0150367
0.0150477
0.0150591
0.0150709
0.0150831
0.0150957
0.0151087
0.0151222
0.0151361
0.0151504
0.0151652
0.0151804
0.0151961
0.0152121
0.0152286
0.0152455
0.0152628
0.0152804
0.0152985
0.0153169
0.0153357
0.0153548
0.0153743
0.0153941
0.0154143
0.0154348
0.0154555
0.0154766
0.015498
0.0155197
0.0155417
0.0155641
0.0155869
0.0156102
0.0156338
0.015658
0.0156826
0.0157078
0.0157336
0.01576
0.015787
0.0158147
0.0158431
0.0158721
0.0159019
0.0159324
0.0159637
0.0159958
0.0160286
0.0160621
0.0160965
0.0161316
0.0161674
0.016204
0.0162413
0.0162793
0.0163179
0.0163571
0.0163968
0.016437
0.0164777
0.0165189
0.0165606
0.0166029
0.0166458
0.0166892
0.0167333
0.0167779
0.0168233
0.0168693
0.016916
0.0169635
0.0170117
0.0170607
0.0171105
0.0171613
0.017213
0.0172658
0.0173197
0.0173748
0.0174312
0.0174889
0.017548
0.0176085
0.0176704
0.0177336
0.0177982
0.017864
0.0179309
0.0179988
0.0180675
0.0181365
0.0182049
0.0182723
0.0183388
0.0184041
0.0184683
0.0185313
0.0185931
0.0186536
0.0187129
0.0187711
0.0188281
0.0188841
0.0189392
0.0189933
0.0190466
0.0190991
0.0191507
0.0192015
0.0192513
0.0193002
0.0193479
0.0193944
0.0194395
0.0194831
0.0195251
0.0195654
0.0196038
0.0196403
0.019675
0.0197078
0.0197387
0.019768
0.0197955
0.0198216
0.0198461
0.0198694
0.0198918
0.0199135
0.0199346
0.0199552
0.0199753
0.019995
0.0200142
0.020033
0.0200514
0.0200691
0.0200862
0.0201025
0.020118
0.0201324
0.0201458
0.0201581
0.0201692
0.0201791
0.0201879
0.0201956
0.0202022
0.020208
0.0202129
0.0202174
0.0202211
0.0202249
0.0202281
0.0202317
0.0202348
0.0202386
0.0202421
0.0202463
0.0202502
0.0202549
0.0202595
0.0202645
0.0202697
0.0202749
0.0202806
0.0202855
0.0202918
0.0202962
0.0203023
0.0203086
0.020303
0.0146173
0.0146208
0.0146247
0.0146291
0.0146341
0.0146395
0.0146456
0.0146524
0.0146598
0.014668
0.0146771
0.0146869
0.0146977
0.0147095
0.0152643
0.0152788
0.0152936
0.0153087
0.0153242
0.0153401
0.0153563
0.015373
0.01539
0.0154075
0.0154255
0.015444
0.0154631
0.0154827
0.015503
0.0155239
0.0155454
0.0155677
0.0155906
0.0156143
0.0156387
0.0156639
0.0156898
0.0157165
0.015744
0.0157723
0.0158014
0.0158314
0.0158623
0.015894
0.0159265
0.01596
0.0159943
0.0160294
0.0160654
0.0161021
0.0161397
0.016178
0.0162171
0.0162569
0.0162974
0.0163386
0.0163804
0.0164228
0.0164658
0.0165094
0.0165535
0.0165981
0.0166431
0.0166884
0.0167342
0.0167803
0.0168269
0.016874
0.0169216
0.0169698
0.0170185
0.0170679
0.017118
0.0171687
0.0172201
0.0172722
0.0173251
0.0173786
0.0174329
0.017488
0.0175438
0.0176005
0.0176581
0.0177165
0.0177758
0.0178361
0.0178973
0.0179594
0.0180224
0.0180863
0.0181509
0.0182162
0.0182819
0.0183472
0.0184118
0.0184754
0.0185381
0.0185996
0.01866
0.0187191
0.018777
0.0188336
0.0188889
0.018943
0.0189961
0.019048
0.0190989
0.0191489
0.019198
0.0192461
0.0192934
0.0193398
0.019385
0.0194291
0.0194719
0.0195132
0.0195529
0.0195908
0.0196268
0.0196607
0.0196926
0.0197224
0.0197502
0.019776
0.0198
0.0198224
0.0198437
0.019864
0.0198836
0.0199026
0.0199213
0.0199397
0.019958
0.0199762
0.0199944
0.0200124
0.0200303
0.0200478
0.0200649
0.0200813
0.0200969
0.0201115
0.020125
0.0201374
0.0201485
0.0201584
0.0201672
0.020175
0.0201819
0.020188
0.0201936
0.0201988
0.0202038
0.0202086
0.0202136
0.0202186
0.0202239
0.0202293
0.0202351
0.0202411
0.0202473
0.0202536
0.0202602
0.0202667
0.0202732
0.0202795
0.0202857
0.0202914
0.0202968
0.0203017
0.0203061
0.0203099
0.0203131
0.0203158
0.0203179
0.0203197
0.0203209
0.0203219
0.0203225
0.0203231
0.0203234
0.0203239
0.0203242
0.0203248
0.0203253
0.0203262
0.0203271
0.0203284
0.0203298
0.0203315
0.0203334
0.0203355
0.0203378
0.0203402
0.0203428
0.0203454
0.0203481
0.0203505
0.0203532
0.0203553
0.0203578
0.0203595
0.0203617
0.020363
0.0203648
0.0203665
0.0203654
0.0146519
0.0146601
0.0146695
0.0146799
0.0146916
0.0147046
0.014719
0.0147349
0.0147524
0.0147716
0.0147926
0.0148155
0.0148404
0.0148674
0.0160552
0.0160847
0.0161148
0.0161454
0.0161764
0.0162081
0.0162403
0.0162731
0.0163067
0.016341
0.0163761
0.016412
0.0164488
0.0164866
0.0165253
0.0165651
0.0166059
0.0166478
0.0166909
0.016735
0.0167804
0.0168269
0.0168745
0.0169233
0.0169731
0.017024
0.017076
0.0171292
0.0171834
0.0172386
0.0172947
0.0173517
0.0174095
0.0174682
0.0175276
0.0175877
0.0176485
0.0177098
0.0177715
0.0178337
0.0178962
0.017959
0.018022
0.0180852
0.0181486
0.0182121
0.0182756
0.0183392
0.0184029
0.0184659
0.018528
0.018589
0.018649
0.0187077
0.0187653
0.0188216
0.0188767
0.0189304
0.0189829
0.019034
0.0190839
0.0191325
0.0191799
0.0192262
0.0192714
0.0193155
0.0193585
0.0194005
0.0194414
0.0194812
0.0195197
0.0195569
0.0195927
0.0196269
0.0196594
0.0196901
0.019719
0.0197462
0.0197714
0.0197952
0.0198177
0.019839
0.0198593
0.0198789
0.0198977
0.0199161
0.0199342
0.019952
0.0199695
0.0199868
0.0200038
0.0200204
0.0200365
0.0200518
0.0200663
0.0200799
0.0200923
0.0201034
0.0201135
0.0201226
0.0201303
0.0201373
0.0201437
0.0201493
0.0201546
0.0201598
0.0201649
0.0201701
0.0201756
0.0201815
0.0201877
0.0201943
0.0202013
0.0202088
0.0202165
0.0202244
0.0202324
0.0202403
0.020248
0.0202553
0.0202621
0.0202683
0.0202737
0.0202784
0.0202822
0.0202854
0.0202879
0.0202899
0.0202915
0.0202929
0.0202941
0.0202953
0.0202964
0.0202977
0.0202992
0.0203008
0.0203028
0.020305
0.0203076
0.0203104
0.0203135
0.0203168
0.0203204
0.020324
0.0203276
0.0203312
0.0203347
0.0203379
0.020341
0.0203437
0.020346
0.0203481
0.0203498
0.0203512
0.0203522
0.020353
0.0203534
0.0203537
0.0203538
0.0203538
0.0203537
0.0203535
0.0203533
0.0203531
0.020353
0.020353
0.0203531
0.0203533
0.0203537
0.0203543
0.0203551
0.020356
0.0203571
0.0203584
0.0203597
0.0203612
0.0203628
0.0203644
0.0203661
0.0203677
0.0203695
0.0203711
0.0203729
0.0203744
0.0203761
0.0203775
0.0203791
0.0203803
0.0203818
0.0203828
0.0203841
0.0203854
0.0203854
0.0147329
0.0147521
0.0147737
0.0147978
0.0148246
0.0148543
0.0148871
0.0149232
0.0149627
0.0150059
0.0150528
0.0151036
0.0151583
0.0152171
0.0173739
0.0174211
0.0174685
0.0175163
0.0175646
0.0176134
0.0176627
0.0177125
0.0177628
0.0178135
0.0178646
0.0179162
0.0179684
0.0180211
0.0180744
0.0181285
0.0181832
0.0182386
0.0182946
0.0183511
0.0184082
0.0184658
0.0185236
0.0185812
0.0186384
0.0186951
0.0187511
0.0188062
0.0188606
0.0189142
0.0189674
0.0190198
0.0190713
0.0191216
0.0191706
0.0192184
0.019265
0.0193102
0.0193541
0.0193966
0.0194378
0.0194775
0.0195157
0.0195526
0.0195879
0.0196216
0.0196537
0.0196842
0.0197129
0.0197401
0.0197659
0.0197903
0.0198134
0.0198353
0.0198562
0.019876
0.0198949
0.0199132
0.0199307
0.0199476
0.0199641
0.0199801
0.0199956
0.0200107
0.020025
0.0200386
0.0200516
0.0200636
0.0200747
0.0200849
0.0200942
0.0201026
0.0201102
0.0201172
0.0201237
0.0201298
0.0201357
0.0201414
0.0201472
0.0201533
0.0201593
0.0201657
0.0201726
0.0201794
0.0201864
0.0201936
0.0202006
0.0202073
0.0202139
0.0202199
0.0202253
0.0202302
0.0202344
0.0202379
0.020241
0.0202435
0.0202458
0.0202479
0.0202497
0.0202516
0.0202536
0.0202557
0.0202581
0.0202608
0.020264
0.0202674
0.0202713
0.0202756
0.0202802
0.0202848
0.0202897
0.0202946
0.0202992
0.0203037
0.0203079
0.0203117
0.020315
0.0203179
0.0203204
0.0203224
0.020324
0.0203251
0.0203259
0.0203264
0.0203267
0.020327
0.0203272
0.0203275
0.0203278
0.0203282
0.0203289
0.0203297
0.0203307
0.020332
0.0203335
0.0203352
0.0203372
0.0203392
0.0203414
0.0203437
0.020346
0.0203483
0.0203505
0.0203526
0.0203546
0.0203565
0.0203583
0.0203598
0.0203612
0.0203624
0.0203634
0.0203642
0.0203649
0.0203654
0.0203657
0.0203659
0.020366
0.0203661
0.0203662
0.0203663
0.0203663
0.0203665
0.0203668
0.0203672
0.0203677
0.0203683
0.0203691
0.0203701
0.0203712
0.0203724
0.0203737
0.0203752
0.0203768
0.0203784
0.0203801
0.0203819
0.0203837
0.0203854
0.0203873
0.020389
0.0203908
0.0203924
0.0203941
0.0203957
0.0203973
0.0203987
0.0204002
0.0204016
0.020403
0.0204042
0.0204054
0.0204071
0.0204069
0.0149176
0.0149604
0.0150082
0.0150613
0.0151201
0.0151848
0.0152557
0.0153328
0.0154161
0.0155058
0.0156018
0.0157041
0.0158129
0.0189379
0.0189825
0.0190259
0.0190681
0.019109
0.0191486
0.0191867
0.0192238
0.0192599
0.0192954
0.0193302
0.0193645
0.019398
0.0194307
0.0194625
0.0194933
0.0195232
0.0195522
0.0195802
0.0196072
0.0196334
0.0196586
0.019683
0.0197068
0.0197299
0.0197525
0.0197746
0.0197966
0.0198182
0.0198391
0.0198589
0.0198775
0.0198952
0.0199123
0.0199288
0.0199449
0.0199603
0.0199751
0.0199894
0.0200032
0.0200164
0.0200291
0.0200411
0.0200525
0.0200631
0.0200732
0.0200825
0.0200912
0.0200994
0.0201072
0.0201145
0.0201215
0.0201283
0.020135
0.0201414
0.0201478
0.0201542
0.0201604
0.0201665
0.0201726
0.0201784
0.0201839
0.020189
0.0201937
0.020198
0.0202019
0.0202055
0.0202087
0.0202118
0.0202147
0.0202174
0.0202202
0.020223
0.0202259
0.0202291
0.0202325
0.0202361
0.0202401
0.0202443
0.0202486
0.020253
0.0202575
0.0202617
0.0202656
0.0202696
0.020273
0.0202757
0.0202785
0.0202808
0.0202824
0.020284
0.0202853
0.0202861
0.020287
0.0202879
0.0202887
0.0202897
0.0202908
0.0202921
0.0202937
0.0202956
0.0202977
0.0203001
0.0203028
0.0203057
0.0203086
0.0203119
0.0203151
0.020318
0.020321
0.0203241
0.0203267
0.020329
0.0203315
0.0203336
0.0203352
0.0203366
0.0203377
0.0203386
0.0203392
0.0203396
0.02034
0.0203403
0.0203407
0.0203411
0.0203416
0.0203422
0.0203429
0.0203438
0.0203449
0.0203461
0.0203476
0.0203492
0.0203509
0.0203528
0.0203548
0.0203568
0.0203589
0.020361
0.0203631
0.0203651
0.0203669
0.0203687
0.0203704
0.0203719
0.0203734
0.0203747
0.0203758
0.0203767
0.0203776
0.0203783
0.0203789
0.0203794
0.0203799
0.0203803
0.0203807
0.0203811
0.0203815
0.020382
0.0203826
0.0203834
0.0203842
0.0203852
0.0203863
0.0203875
0.0203889
0.0203904
0.020392
0.0203937
0.0203956
0.0203975
0.0203994
0.0204015
0.0204036
0.0204057
0.0204077
0.0204099
0.0204119
0.0204141
0.020416
0.0204181
0.0204201
0.0204221
0.0204239
0.0204259
0.0204277
0.0204295
0.0204313
0.0204331
0.0204349
0.0204367
0.0204393
0.020439
0.0153207
0.0154097
0.015508
0.0156158
0.0157332
0.0158605
0.0159976
0.0161446
0.016301
0.016466
0.0166387
0.0168182
0.0170036
0.0198678
0.0198834
0.0198984
0.0199131
0.0199275
0.0199417
0.0199554
0.0199685
0.0199806
0.0199917
0.0200018
0.0200112
0.0200199
0.0200282
0.020036
0.0200434
0.0200505
0.0200571
0.0200635
0.0200695
0.0200753
0.0200807
0.0200857
0.0200905
0.0200951
0.0200992
0.0201025
0.0201054
0.0201088
0.0201129
0.0201174
0.0201222
0.0201269
0.020132
0.0201373
0.0201428
0.0201483
0.0201536
0.0201588
0.0201639
0.0201688
0.0201736
0.0201783
0.0201828
0.0201873
0.0201917
0.0201962
0.0202005
0.020205
0.0202096
0.0202139
0.0202182
0.0202226
0.0202268
0.0202307
0.0202344
0.020238
0.0202412
0.0202438
0.0202463
0.0202485
0.0202504
0.0202521
0.0202537
0.0202552
0.0202567
0.0202583
0.02026
0.0202617
0.0202637
0.0202659
0.0202682
0.0202708
0.0202734
0.0202761
0.0202791
0.0202818
0.0202844
0.0202874
0.02029
0.020292
0.0202942
0.0202964
0.0202978
0.020299
0.0203005
0.0203014
0.0203021
0.020303
0.0203038
0.0203046
0.0203056
0.0203067
0.020308
0.0203095
0.0203112
0.0203131
0.0203153
0.0203177
0.0203202
0.0203229
0.0203257
0.0203284
0.0203311
0.0203341
0.0203366
0.0203387
0.0203412
0.0203434
0.0203449
0.0203465
0.0203481
0.0203493
0.02035
0.0203509
0.0203516
0.0203521
0.0203526
0.0203532
0.0203537
0.0203544
0.0203552
0.0203561
0.0203571
0.0203584
0.0203597
0.0203612
0.0203629
0.0203647
0.0203666
0.0203686
0.0203707
0.0203728
0.0203749
0.0203771
0.0203792
0.0203812
0.0203831
0.020385
0.0203867
0.0203883
0.0203899
0.0203912
0.0203924
0.0203936
0.0203946
0.0203956
0.0203965
0.0203974
0.0203982
0.0203991
0.0204
0.020401
0.020402
0.0204031
0.0204043
0.0204056
0.0204071
0.0204087
0.0204105
0.0204123
0.0204143
0.0204165
0.0204187
0.020421
0.0204234
0.020426
0.0204285
0.0204312
0.0204339
0.0204366
0.0204393
0.0204421
0.0204449
0.0204477
0.0204505
0.0204533
0.0204561
0.0204589
0.0204617
0.0204646
0.0204674
0.0204702
0.0204731
0.020476
0.020479
0.0204821
0.0204852
0.0204884
0.020493
0.0204927
0.0162933
0.0164707
0.0166617
0.0168652
0.0170799
0.0173045
0.0175369
0.0177746
0.0180151
0.0182563
0.0184963
0.018734
0.0201454
0.0201495
0.0201532
0.0201565
0.0201591
0.0201608
0.0201619
0.020163
0.0201644
0.0201661
0.020168
0.0201699
0.0201717
0.0201733
0.0201747
0.020176
0.0201771
0.0201782
0.0201791
0.02018
0.0201808
0.0201816
0.0201824
0.0201834
0.0201844
0.0201855
0.0201869
0.0201886
0.020191
0.020194
0.0201968
0.020199
0.0202012
0.0202035
0.0202058
0.020208
0.0202103
0.0202127
0.0202151
0.0202176
0.02022
0.0202227
0.0202254
0.0202281
0.0202311
0.0202342
0.0202373
0.0202405
0.0202439
0.0202471
0.0202501
0.0202533
0.0202563
0.0202587
0.0202611
0.0202636
0.0202656
0.0202671
0.0202687
0.0202702
0.0202715
0.0202726
0.0202739
0.0202753
0.0202766
0.0202782
0.0202799
0.0202817
0.0202837
0.020286
0.0202883
0.0202908
0.0202935
0.0202959
0.0202984
0.0203011
0.0203032
0.0203051
0.0203074
0.0203093
0.0203104
0.020312
0.0203134
0.0203142
0.0203152
0.0203163
0.0203172
0.0203181
0.0203193
0.0203205
0.0203218
0.0203234
0.0203251
0.020327
0.0203292
0.0203314
0.0203338
0.0203364
0.020339
0.0203415
0.0203443
0.0203468
0.020349
0.0203514
0.0203538
0.0203556
0.0203572
0.0203592
0.0203608
0.0203617
0.020363
0.0203643
0.0203651
0.0203658
0.0203668
0.0203677
0.0203685
0.0203695
0.0203705
0.0203717
0.020373
0.0203745
0.0203761
0.0203778
0.0203796
0.0203816
0.0203837
0.0203859
0.0203881
0.0203904
0.0203927
0.020395
0.0203973
0.0203996
0.0204018
0.0204039
0.0204059
0.0204079
0.0204098
0.0204116
0.0204133
0.020415
0.0204166
0.0204181
0.0204197
0.0204212
0.0204227
0.0204243
0.0204259
0.0204276
0.0204293
0.0204312
0.0204331
0.0204352
0.0204374
0.0204398
0.0204423
0.020445
0.0204478
0.0204507
0.0204538
0.020457
0.0204604
0.0204638
0.0204673
0.0204709
0.0204747
0.0204784
0.0204823
0.0204862
0.0204902
0.0204943
0.0204984
0.0205025
0.0205067
0.020511
0.0205153
0.0205197
0.0205241
0.0205287
0.0205333
0.020538
0.0205428
0.0205478
0.0205529
0.0205582
0.0205637
0.0205693
0.020575
0.0205832
0.0205828
0.0177944
0.0180489
0.0183124
0.0185815
0.0188537
0.0191287
0.0194035
0.0196724
0.0199298
0.0201709
0.0202351
0.020236
0.0202367
0.0202373
0.0202376
0.0202379
0.0202382
0.0202388
0.0202395
0.0202401
0.0202402
0.02024
0.0202394
0.0202386
0.0202377
0.0202369
0.020236
0.0202352
0.0202343
0.0202334
0.0202326
0.0202318
0.0202311
0.0202305
0.0202302
0.0202301
0.0202303
0.0202306
0.0202308
0.0202307
0.0202307
0.0202312
0.0202318
0.0202323
0.0202329