/*--------------------------------*- C++ -*----------------------------------*\
| =========                 |                                                 |
| \\      /  F ield         | OpenFOAM: The Open Source CFD Toolbox           |
|  \\    /   O peration     | Version:  v1706                                 |
|   \\  /    A nd           | Web:      www.OpenFOAM.com                      |
|    \\/     M anipulation  |                                                 |
\*---------------------------------------------------------------------------*/
FoamFile
{
    version     2.0;
    format      ascii;
    class       volScalarField;
    location    "1.9e-05";
    object      Mach;
}
// * * * * * * * * * * * * * * * * * * * * * * * * * * * * * * * * * * * * * //

dimensions      [0 0 0 0 0 0 0];


internalField   nonuniform List<scalar> 
30104
(
3.99498
3.99498
3.99498
3.99498
3.99497
3.99497
3.99497
3.99497
3.99497
3.99497
3.99497
3.99497
3.99497
3.99497
3.99497
3.99497
3.99497
3.99495
3.99495
3.99495
3.99495
3.99495
3.99495
3.99495
3.99495
3.99495
3.99495
3.99495
3.99495
3.99495
3.99495
3.99495
3.99495
3.99495
3.99495
3.99495
3.99495
3.99494
3.99494
3.99494
3.99494
3.99494
3.99494
3.99494
3.99494
3.99494
3.99494
3.99494
3.99494
3.99494
3.99494
3.99494
3.99494
3.99493
3.99493
3.99493
3.99493
3.99493
3.99493
3.99493
3.99493
3.99493
3.99493
3.99493
3.99493
3.99493
3.99493
3.99493
3.99492
3.99492
3.99492
3.99492
3.99492
3.99492
3.99492
3.99492
3.99492
3.99492
3.99492
3.99492
3.99492
3.99491
3.99491
3.99491
3.99491
3.99491
3.99491
3.99491
3.99491
3.99491
3.99491
3.9949
3.9949
3.9949
3.9949
3.9949
3.9949
3.9949
3.9949
3.9949
3.99489
3.99489
3.99489
3.99489
3.99489
3.99489
3.99489
3.99489
3.99488
3.99488
3.99488
3.99488
3.99488
3.99488
3.99488
3.99487
3.99487
3.99487
3.99487
3.99487
3.99487
3.99486
3.99486
3.99486
3.99486
3.99486
3.99486
3.99485
3.99485
3.99485
3.99485
3.99485
3.99484
3.99484
3.99484
3.99484
3.99484
3.99483
3.99483
3.99483
3.99483
3.99483
3.99482
3.99482
3.99482
3.99482
3.99481
3.99481
3.99481
3.99481
3.9948
3.9948
3.9948
3.9948
3.99479
3.99479
3.99479
3.99479
3.99478
3.99478
3.99478
3.99477
3.99477
3.99477
3.99476
3.99476
3.99476
3.99475
3.99475
3.99475
3.99474
3.99474
3.99474
3.99473
3.99473
3.99472
3.99472
3.99471
3.99471
3.9947
3.9947
3.9947
3.99469
3.99469
3.99468
3.99468
3.99467
3.99467
3.99466
3.99466
3.99465
3.99464
3.99464
3.99463
3.99463
3.99462
3.99462
3.99461
3.99461
3.9946
3.99459
3.99459
3.99458
3.99458
3.99457
3.99456
3.99456
3.99455
3.99456
3.99461
3.99497
3.99497
3.99497
3.99496
3.99496
3.99496
3.99496
3.99496
3.99495
3.99495
3.99495
3.99494
3.99494
3.99493
3.99493
3.99492
3.99492
3.99482
3.99481
3.99481
3.99481
3.99481
3.99481
3.9948
3.9948
3.9948
3.9948
3.99479
3.99479
3.99479
3.99478
3.99478
3.99478
3.99477
3.99477
3.99477
3.99476
3.99476
3.99476
3.99475
3.99475
3.99474
3.99474
3.99474
3.99473
3.99473
3.99472
3.99472
3.99471
3.99471
3.9947
3.9947
3.9947
3.99469
3.99469
3.99468
3.99468
3.99467
3.99467
3.99466
3.99466
3.99465
3.99465
3.99464
3.99463
3.99463
3.99462
3.99462
3.99461
3.99461
3.9946
3.99459
3.99459
3.99458
3.99458
3.99457
3.99456
3.99456
3.99455
3.99454
3.99454
3.99453
3.99452
3.99452
3.99451
3.9945
3.99449
3.99449
3.99448
3.99447
3.99446
3.99445
3.99445
3.99444
3.99443
3.99442
3.99441
3.9944
3.99439
3.99438
3.99437
3.99437
3.99436
3.99435
3.99434
3.99432
3.99431
3.9943
3.99429
3.99428
3.99427
3.99426
3.99425
3.99424
3.99422
3.99421
3.9942
3.99419
3.99417
3.99416
3.99415
3.99413
3.99412
3.9941
3.99409
3.99407
3.99406
3.99404
3.99403
3.99401
3.99399
3.99398
3.99396
3.99394
3.99392
3.99391
3.99389
3.99387
3.99385
3.99383
3.99381
3.99379
3.99377
3.99375
3.99373
3.9937
3.99368
3.99366
3.99364
3.99361
3.99359
3.99357
3.99354
3.99352
3.99349
3.99347
3.99344
3.99342
3.99339
3.99337
3.99334
3.99331
3.99328
3.99326
3.99323
3.9932
3.99317
3.99314
3.9931
3.99307
3.99304
3.99301
3.99297
3.99294
3.9929
3.99287
3.99283
3.99279
3.99276
3.99272
3.99268
3.99264
3.9926
3.99256
3.99252
3.99247
3.99243
3.99239
3.99234
3.9923
3.99225
3.9922
3.99215
3.9921
3.99205
3.992
3.99195
3.9919
3.99185
3.99179
3.99173
3.99168
3.99162
3.99156
3.9915
3.99144
3.99137
3.9913
3.9913
3.99158
3.99495
3.99494
3.99494
3.99494
3.99493
3.99492
3.99492
3.99491
3.9949
3.99489
3.99488
3.99487
3.99486
3.99484
3.99483
3.99481
3.99443
3.99442
3.99441
3.99441
3.9944
3.99439
3.99438
3.99437
3.99436
3.99435
3.99434
3.99433
3.99432
3.99431
3.9943
3.99428
3.99427
3.99426
3.99425
3.99423
3.99422
3.9942
3.99419
3.99417
3.99416
3.99414
3.99413
3.99411
3.99409
3.99407
3.99406
3.99404
3.99402
3.994
3.99398
3.99397
3.99395
3.99393
3.99391
3.99389
3.99387
3.99385
3.99383
3.99381
3.99379
3.99377
3.99375
3.99373
3.99371
3.99368
3.99366
3.99364
3.99362
3.99359
3.99357
3.99355
3.99352
3.9935
3.99347
3.99345
3.99342
3.99339
3.99336
3.99334
3.99331
3.99328
3.99325
3.99322
3.99319
3.99316
3.99313
3.99309
3.99306
3.99303
3.99299
3.99296
3.99292
3.99288
3.99285
3.99281
3.99277
3.99273
3.99269
3.99265
3.9926
3.99256
3.99252
3.99247
3.99243
3.99238
3.99233
3.99228
3.99223
3.99218
3.99213
3.99208
3.99203
3.99197
3.99192
3.99186
3.99181
3.99175
3.99169
3.99163
3.99157
3.99151
3.99145
3.99138
3.99132
3.99125
3.99118
3.99111
3.99104
3.99097
3.9909
3.99082
3.99074
3.99066
3.99058
3.9905
3.99042
3.99033
3.99024
3.99016
3.99006
3.98997
3.98988
3.98978
3.98968
3.98958
3.98948
3.98938
3.98927
3.98917
3.98906
3.98895
3.98883
3.98872
3.9886
3.98848
3.98836
3.98824
3.98811
3.98798
3.98785
3.98772
3.98758
3.98744
3.9873
3.98715
3.98701
3.98685
3.9867
3.98654
3.98637
3.9862
3.98603
3.98585
3.98567
3.98548
3.98529
3.98509
3.98488
3.98467
3.98446
3.98424
3.98401
3.98378
3.98355
3.9833
3.98306
3.98281
3.98255
3.98229
3.98203
3.98176
3.98148
3.98121
3.98092
3.98064
3.98035
3.98006
3.97976
3.97946
3.97916
3.97886
3.97855
3.97823
3.97792
3.9776
3.97726
3.97713
3.97823
3.9949
3.99489
3.99487
3.99486
3.99484
3.99483
3.99481
3.99479
3.99476
3.99473
3.99471
3.99467
3.99464
3.9946
3.99456
3.99451
3.99337
3.99335
3.99332
3.99329
3.99326
3.99324
3.99321
3.99318
3.99315
3.99311
3.99308
3.99305
3.99301
3.99298
3.99294
3.9929
3.99286
3.99282
3.99278
3.99274
3.99269
3.99264
3.9926
3.99255
3.9925
3.99245
3.99239
3.99234
3.99228
3.99223
3.99217
3.99211
3.99205
3.99199
3.99193
3.99187
3.9918
3.99174
3.99167
3.99161
3.99154
3.99147
3.9914
3.99133
3.99126
3.99119
3.99112
3.99105
3.99097
3.99089
3.99082
3.99074
3.99065
3.99057
3.99049
3.9904
3.99031
3.99022
3.99013
3.99004
3.98994
3.98985
3.98975
3.98965
3.98954
3.98944
3.98933
3.98922
3.98911
3.989
3.98888
3.98877
3.98865
3.98852
3.9884
3.98827
3.98814
3.98801
3.98788
3.98774
3.9876
3.98746
3.98731
3.98716
3.98701
3.98685
3.98669
3.98652
3.98636
3.98618
3.98601
3.98583
3.98565
3.98546
3.98527
3.98508
3.98488
3.98468
3.98447
3.98426
3.98404
3.98382
3.9836
3.98337
3.98314
3.9829
3.98265
3.98241
3.98215
3.98189
3.98162
3.98135
3.98107
3.98079
3.9805
3.9802
3.97989
3.97958
3.97926
3.97893
3.97859
3.97825
3.97789
3.97753
3.97716
3.97678
3.97639
3.97599
3.97558
3.97516
3.97473
3.97429
3.97384
3.97339
3.97292
3.97245
3.97196
3.97147
3.97097
3.97046
3.96995
3.96942
3.96889
3.96835
3.9678
3.96725
3.96668
3.96611
3.96552
3.96493
3.96432
3.9637
3.96306
3.96242
3.96175
3.96108
3.96038
3.95967
3.95894
3.95819
3.95743
3.95664
3.95583
3.955
3.95414
3.95327
3.95237
3.95145
3.9505
3.94952
3.94853
3.9475
3.94645
3.94537
3.94427
3.94313
3.94197
3.94079
3.93958
3.93834
3.93707
3.93578
3.93447
3.93314
3.93178
3.9304
3.929
3.92759
3.92615
3.9247
3.92319
3.92209
3.92586
3.99477
3.99474
3.9947
3.99467
3.99462
3.99458
3.99453
3.99447
3.99441
3.99434
3.99426
3.99418
3.99409
3.99399
3.99388
3.99058
3.9905
3.99042
3.99034
3.99026
3.99018
3.99009
3.99
3.98991
3.98981
3.98972
3.98962
3.98951
3.9894
3.98929
3.98918
3.98906
3.98894
3.98881
3.98868
3.98854
3.9884
3.98825
3.9881
3.98795
3.98779
3.98763
3.98746
3.98729
3.98711
3.98693
3.98675
3.98656
3.98637
3.98617
3.98598
3.98577
3.98557
3.98536
3.98516
3.98494
3.98473
3.98451
3.98429
3.98406
3.98384
3.9836
3.98337
3.98313
3.98288
3.98264
3.98238
3.98212
3.98186
3.98158
3.98131
3.98102
3.98073
3.98044
3.98013
3.97982
3.97951
3.97918
3.97885
3.97851
3.97817
3.97781
3.97745
3.97708
3.9767
3.97632
3.97592
3.97552
3.97511
3.97469
3.97426
3.97381
3.97336
3.9729
3.97243
3.97194
3.97145
3.97094
3.97042
3.96989
3.96934
3.96878
3.96821
3.96762
3.96702
3.96641
3.96577
3.96513
3.96446
3.96378
3.96308
3.96237
3.96164
3.9609
3.96014
3.95936
3.95856
3.95776
3.95693
3.95609
3.95524
3.95437
3.95348
3.95258
3.95166
3.95073
3.94977
3.9488
3.94781
3.9468
3.94576
3.9447
3.94361
3.9425
3.94136
3.94019
3.93898
3.93775
3.93648
3.93518
3.93385
3.93247
3.93106
3.92961
3.92813
3.9266
3.92503
3.92343
3.92178
3.92009
3.91837
3.9166
3.91479
3.91294
3.91105
3.90913
3.90716
3.90516
3.90313
3.90106
3.89896
3.89682
3.89466
3.89246
3.89022
3.88795
3.88563
3.88328
3.88088
3.87843
3.87593
3.87338
3.87076
3.86808
3.86534
3.86251
3.85961
3.85663
3.85355
3.85038
3.84711
3.84373
3.84025
3.83665
3.83294
3.82911
3.82516
3.82108
3.81689
3.81256
3.80812
3.80356
3.79888
3.79409
3.78919
3.78418
3.77908
3.77389
3.76861
3.76327
3.75786
3.75242
3.74694
3.74144
3.73594
3.7305
3.72494
3.73406
3.9945
3.99444
3.99436
3.99427
3.99418
3.99407
3.99395
3.99382
3.99367
3.99351
3.99334
3.99314
3.99293
3.9927
3.99245
3.99217
3.98339
3.98317
3.98294
3.98271
3.98247
3.98223
3.98198
3.98173
3.98146
3.98119
3.98092
3.98063
3.98033
3.98003
3.97971
3.97938
3.97905
3.9787
3.97834
3.97796
3.97757
3.97717
3.97676
3.97633
3.97589
3.97544
3.97497
3.97448
3.97399
3.97348
3.97296
3.97242
3.97187
3.97131
3.97074
3.97016
3.96956
3.96896
3.96834
3.96771
3.96707
3.96642
3.96576
3.96509
3.96441
3.96371
3.96301
3.96228
3.96155
3.9608
3.96003
3.95924
3.95844
3.95762
3.95678
3.95592
3.95504
3.95414
3.95321
3.95226
3.95129
3.9503
3.94928
3.94823
3.94716
3.94607
3.94495
3.94381
3.94264
3.94144
3.94022
3.93897
3.9377
3.9364
3.93507
3.93372
3.93235
3.93094
3.92951
3.92804
3.92655
3.92502
3.92345
3.92185
3.92021
3.91853
3.91681
3.91504
3.91323
3.91137
3.90946
3.9075
3.90548
3.90341
3.90129
3.89911
3.89688
3.89459
3.89224
3.88984
3.88737
3.88485
3.88227
3.87964
3.87694
3.87419
3.87138
3.86852
3.8656
3.86262
3.85959
3.85651
3.85336
3.85016
3.8469
3.84357
3.84018
3.83672
3.83318
3.82957
3.82588
3.82211
3.81824
3.81428
3.81022
3.80606
3.80178
3.79738
3.79286
3.78821
3.78343
3.77851
3.77345
3.76824
3.7629
3.75742
3.75179
3.74603
3.74014
3.73412
3.72797
3.72172
3.71536
3.70891
3.70238
3.69577
3.68912
3.68242
3.6757
3.66894
3.66215
3.65532
3.64845
3.64153
3.63456
3.62753
3.62044
3.61328
3.60605
3.59872
3.5913
3.58377
3.57612
3.56833
3.56039
3.55228
3.54398
3.53549
3.52677
3.51781
3.50858
3.49908
3.48929
3.47917
3.46874
3.45797
3.44686
3.43539
3.42359
3.41143
3.39895
3.38614
3.37302
3.35964
3.34596
3.3321
3.31799
3.30364
3.28958
3.27483
3.26219
3.24548
3.24863
3.99378
3.99361
3.99341
3.9932
3.99296
3.99269
3.99239
3.99206
3.9917
3.9913
3.99086
3.99037
3.98985
3.96547
3.96488
3.96427
3.96365
3.96302
3.96237
3.9617
3.96101
3.96031
3.95958
3.95883
3.95806
3.95726
3.95643
3.95558
3.95469
3.95377
3.95282
3.95184
3.95082
3.94976
3.94866
3.94753
3.94635
3.94513
3.94388
3.94258
3.94124
3.93987
3.93845
3.93699
3.9355
3.93397
3.9324
3.93079
3.92915
3.92747
3.92577
3.92403
3.92225
3.92045
3.91862
3.91675
3.91486
3.91293
3.91098
3.90899
3.90697
3.90491
3.90282
3.90068
3.89851
3.89628
3.89401
3.89168
3.8893
3.88686
3.88436
3.8818
3.87918
3.87648
3.87372
3.87089
3.86799
3.86502
3.86197
3.85884
3.85565
3.85237
3.84903
3.8456
3.8421
3.83852
3.83487
3.83115
3.82735
3.82347
3.81952
3.8155
3.81139
3.80721
3.80295
3.7986
3.79416
3.78962
3.78499
3.78026
3.77543
3.77049
3.76543
3.76026
3.75496
3.74954
3.74398
3.73828
3.73243
3.72644
3.7203
3.714
3.70755
3.70095
3.69419
3.68729
3.68025
3.67306
3.66575
3.65832
3.65078
3.64314
3.63541
3.62762
3.61977
3.61187
3.60391
3.5959
3.58782
3.57968
3.57147
3.56318
3.5548
3.54633
3.53776
3.52908
3.52028
3.51134
3.50226
3.49302
3.48361
3.47401
3.46421
3.4542
3.44395
3.43346
3.42272
3.4117
3.40041
3.38885
3.377
3.36487
3.35247
3.33981
3.3269
3.31376
3.30042
3.28689
3.27321
3.25939
3.24552
3.23179
3.21825
3.20488
3.19172
3.17875
3.166
3.15346
3.14115
3.12908
3.11725
3.10567
3.09434
3.08328
3.07248
3.06197
3.05173
3.04179
3.03213
3.02277
3.01371
3.00494
2.99647
2.98828
2.98039
2.97275
2.96544
2.95831
2.95156
2.94489
2.9387
2.93245
2.9268
2.92097
2.91581
2.91043
2.90568
2.90087
2.89635
2.89231
2.88789
2.88477
2.8804
2.87804
2.87356
2.87691
3.99199
3.99157
3.99109
3.99056
3.98997
3.98931
3.98858
3.98778
3.98688
3.9859
3.98483
3.98365
3.98237
3.92269
3.92116
3.9196
3.918
3.91636
3.91468
3.91296
3.9112
3.90939
3.90752
3.90561
3.90363
3.90159
3.89949
3.89732
3.89508
3.89276
3.89036
3.88789
3.88533
3.88268
3.87994
3.87711
3.87419
3.87118
3.86807
3.86486
3.86155
3.85815
3.85464
3.85104
3.84734
3.84354
3.83965
3.83566
3.83158
3.82742
3.82317
3.81883
3.81441
3.80991
3.80534
3.80069
3.79596
3.79116
3.78629
3.78135
3.77633
3.77124
3.76607
3.76082
3.75547
3.75004
3.7445
3.73886
3.7331
3.72724
3.72125
3.71514
3.7089
3.70253
3.69602
3.68937
3.68257
3.67563
3.66854
3.6613
3.6539
3.64635
3.63865
3.63081
3.62281
3.61468
3.60642
3.59803
3.58952
3.58091
3.57222
3.56344
3.55461
3.5457
3.53673
3.52767
3.51854
3.50931
3.5
3.49059
3.48107
3.47144
3.46169
3.45181
3.4418
3.43164
3.42133
3.41085
3.40019
3.38935
3.37832
3.36708
3.35563
3.34396
3.33207
3.31997
3.30766
3.29515
3.28246
3.2696
3.25659
3.24347
3.23026
3.21697
3.20372
3.19065
3.17778
3.16511
3.15266
3.14042
3.12841
3.11663
3.10508
3.09379
3.08275
3.07196
3.06145
3.0512
3.04123
3.03154
3.02213
3.01302
3.00421
2.99571
2.98751
2.97961
2.97202
2.96474
2.95775
2.95105
2.94464
2.93849
2.93261
2.92699
2.92161
2.91647
2.91156
2.90689
2.90244
2.89821
2.89419
2.89033
2.88662
2.88307
2.87967
2.87643
2.87332
2.87036
2.86753
2.86485
2.86229
2.85986
2.85755
2.85536
2.85328
2.85129
2.84941
2.84759
2.8459
2.84421
2.84268
2.8411
2.83973
2.83824
2.83701
2.83562
2.83449
2.83322
2.83216
2.83101
2.82999
2.82896
2.82798
2.82707
2.82614
2.82532
2.82447
2.82374
2.82301
2.82237
2.8218
2.82126
2.82088
2.82048
2.82003
2.82127
3.98858
3.98767
3.98665
3.9855
3.98422
3.98278
3.98119
3.97943
3.97749
3.97536
3.97302
3.97047
3.96769
3.96467
3.82763
3.82413
3.82057
3.81694
3.81323
3.80944
3.80556
3.8016
3.79753
3.79335
3.78906
3.78464
3.7801
3.77542
3.77059
3.76561
3.76048
3.75518
3.74972
3.74409
3.73828
3.73229
3.72613
3.71978
3.71326
3.70655
3.69965
3.69257
3.68531
3.67787
3.67027
3.6625
3.65456
3.64646
3.6382
3.6298
3.62126
3.61258
3.60377
3.59485
3.58581
3.57666
3.56741
3.55807
3.54864
3.53913
3.52955
3.51991
3.51022
3.50049
3.49071
3.48088
3.47099
3.46104
3.451
3.44089
3.43069
3.42039
3.40999
3.39948
3.38887
3.37813
3.36727
3.35629
3.34518
3.33393
3.32254
3.31102
3.29935
3.28755
3.2756
3.26352
3.25133
3.23901
3.22661
3.21413
3.20159
3.18902
3.17647
3.16407
3.15188
3.13988
3.12811
3.11656
3.10523
3.09413
3.08327
3.07265
3.06227
3.05214
3.04227
3.03266
3.02332
3.01426
3.00548
2.99699
2.98879
2.9809
2.97332
2.96605
2.95908
2.95243
2.94607
2.93999
2.93419
2.92867
2.92339
2.91836
2.91357
2.90901
2.90467
2.90054
2.89657
2.89277
2.88913
2.88564
2.88231
2.87913
2.8761
2.87321
2.87046
2.86785
2.86537
2.86303
2.86081
2.8587
2.85669
2.85478
2.85294
2.85118
2.84947
2.84782
2.84622
2.84465
2.84314
2.84167
2.84025
2.83886
2.83753
2.83624
2.835
2.83379
2.83263
2.8315
2.83042
2.82938
2.82839
2.82745
2.82655
2.8257
2.82489
2.82414
2.82342
2.82276
2.82213
2.82155
2.821
2.8205
2.82001
2.81957
2.81913
2.81876
2.81836
2.81804
2.8177
2.81741
2.81712
2.81687
2.81661
2.81638
2.81617
2.81597
2.8158
2.81565
2.81553
2.81542
2.81537
2.81533
2.81535
2.81539
2.81548
2.8156
2.81577
2.81594
2.81618
2.81639
2.81668
2.81689
2.81721
2.8174
2.81774
2.81781
2.81846
3.97957
3.9774
3.97497
3.97225
3.96922
3.96586
3.96215
3.95805
3.95354
3.9486
3.9432
3.93733
3.93096
3.92408
3.64333
3.63657
3.62971
3.62274
3.61567
3.60847
3.60115
3.5937
3.58612
3.57838
3.57049
3.56244
3.5542
3.54578
3.53717
3.52835
3.51932
3.51009
3.50064
3.49099
3.48112
3.47106
3.4608
3.45036
3.43975
3.42895
3.41798
3.40684
3.39555
3.38411
3.37253
3.36082
3.349
3.33706
3.32503
3.31292
3.30074
3.28851
3.27623
3.26393
3.2516
3.23926
3.22692
3.2146
3.2023
3.19004
3.17782
3.16566
3.15358
3.14167
3.13
3.11857
3.10738
3.09643
3.08573
3.07528
3.06508
3.05512
3.04542
3.03598
3.02679
3.01786
3.00919
3.00078
2.99265
2.9848
2.97724
2.96995
2.96296
2.95627
2.94987
2.94377
2.93795
2.93242
2.92715
2.92214
2.91738
2.91285
2.90853
2.90439
2.90041
2.89658
2.89291
2.8894
2.88604
2.88283
2.87976
2.87685
2.87409
2.87145
2.86895
2.8666
2.86436
2.86223
2.86021
2.85829
2.85642
2.85462
2.8529
2.85121
2.84956
2.848
2.84646
2.84497
2.84355
2.84217
2.84084
2.83956
2.83832
2.83713
2.83599
2.8349
2.83385
2.83286
2.83192
2.83103
2.83019
2.82941
2.82866
2.82795
2.82728
2.82662
2.82598
2.82535
2.82473
2.82411
2.82351
2.82292
2.82236
2.82181
2.82129
2.82077
2.82028
2.8198
2.81933
2.81888
2.81843
2.81801
2.8176
2.81722
2.81687
2.81654
2.81625
2.816
2.81577
2.81558
2.81542
2.81528
2.81515
2.81505
2.81494
2.81486
2.81475
2.81469
2.81458
2.81453
2.81444
2.8144
2.81433
2.81432
2.81426
2.81427
2.81425
2.81428
2.8143
2.81434
2.8144
2.81446
2.81454
2.81462
2.81472
2.81481
2.81493
2.81501
2.81513
2.8152
2.81533
2.81537
2.81548
2.81549
2.81558
2.81556
2.81562
2.81556
2.81562
2.81553
2.81557
2.81547
2.81551
2.81539
2.81542
2.81528
2.81542
3.95857
3.9536
3.94803
3.94183
3.93494
3.92732
3.91893
3.90975
3.89975
3.88892
3.87722
3.86463
3.85113
3.8367
3.3597
3.3501
3.34048
3.33082
3.3211
3.31132
3.30148
3.29157
3.28158
3.27152
3.26137
3.25112
3.24077
3.2303
3.21971
3.20901
3.1982
3.18728
3.17627
3.16518
3.15402
3.14282
3.13159
3.12043
3.10938
3.09844
3.08764
3.077
3.06652
3.05621
3.0461
3.03624
3.02665
3.01736
3.00834
2.99962
2.9912
2.98311
2.97534
2.9679
2.9608
2.95403
2.9476
2.9415
2.93573
2.93027
2.92511
2.92024
2.91564
2.91126
2.90707
2.90308
2.89925
2.8956
2.8921
2.88876
2.88558
2.88254
2.87964
2.87687
2.87424
2.87175
2.86938
2.86713
2.86499
2.86295
2.861
2.85912
2.85731
2.85557
2.85388
2.85224
2.85067
2.84914
2.84767
2.84626
2.8449
2.8436
2.84236
2.84117
2.84006
2.83898
2.83795
2.83701
2.8361
2.83522
2.83441
2.83363
2.83287
2.83214
2.83143
2.83074
2.83003
2.82936
2.82871
2.82805
2.82743
2.82683
2.82624
2.82566
2.82509
2.82454
2.82403
2.8235
2.82299
2.82255
2.82212
2.8217
2.82135
2.82104
2.82072
2.82044
2.82017
2.81988
2.81959
2.81929
2.81895
2.81858
2.81822
2.81787
2.8175
2.81713
2.81679
2.81647
2.81618
2.81591
2.81566
2.81543
2.81522
2.81502
2.81484
2.81467
2.81452
2.81439
2.81427
2.81417
2.81408
2.81401
2.81394
2.81388
2.81381
2.81376
2.81368
2.81363
2.81354
2.81349
2.8134
2.81336
2.81327
2.81324
2.81318
2.81317
2.81313
2.81316
2.81314
2.81318
2.81319
2.81325
2.81328
2.81334
2.81338
2.81344
2.81348
2.81352
2.81357
2.81359
2.81363
2.81364
2.81366
2.81365
2.81366
2.81362
2.81362
2.81356
2.81355
2.81347
2.81344
2.81333
2.8133
2.81316
2.81311
2.81294
2.81287
2.81267
2.81259
2.81237
2.81225
2.81201
2.81183
2.81161
2.81133
2.81108
2.81098
3.91134
3.90041
3.88829
3.87492
3.86025
3.84424
3.82682
3.80797
3.78768
3.76598
3.74293
3.71855
3.6929
3.05827
3.05006
3.04207
3.0343
3.02676
3.01942
3.01226
3.00525
2.99837
2.99163
2.98504
2.97861
2.97235
2.96628
2.96037
2.95463
2.94906
2.94366
2.93842
2.93335
2.92845
2.92371
2.91913
2.9147
2.91042
2.90629
2.90229
2.89843
2.89479
2.8914
2.8882
2.8851
2.88209
2.87919
2.87645
2.87387
2.87141
2.86908
2.86686
2.86475
2.86273
2.86082
2.85899
2.85723
2.85554
2.85393
2.85236
2.85086
2.84944
2.84807
2.84677
2.84553
2.84435
2.84324
2.84219
2.84118
2.84022
2.83931
2.83843
2.83759
2.83679
2.83602
2.83526
2.83451
2.8338
2.8331
2.8324
2.83173
2.83108
2.83045
2.82984
2.82924
2.82868
2.82815
2.82761
2.82712
2.82669
2.82626
2.82586
2.82553
2.8252
2.82488
2.82457
2.82427
2.82401
2.82356
2.82322
2.82295
2.82248
2.82206
2.82178
2.82136
2.82096
2.82066
2.82032
2.82
2.8197
2.81942
2.81916
2.8189
2.81864
2.81843
2.81821
2.81796
2.81773
2.8175
2.81725
2.81692
2.81664
2.81636
2.81604
2.81563
2.81538
2.81512
2.81478
2.81451
2.81433
2.81413
2.81395
2.81381
2.8137
2.8136
2.81352
2.81343
2.81336
2.81328
2.81321
2.81315
2.81308
2.81303
2.81297
2.81292
2.81286
2.81281
2.81276
2.81271
2.81266
2.81261
2.81256
2.81252
2.81246
2.81243
2.81239
2.81237
2.81234
2.81235
2.81234
2.81233
2.81231
2.81231
2.81229
2.81227
2.81225
2.81223
2.81219
2.81215
2.81211
2.81206
2.812
2.81193
2.81186
2.81176
2.81168
2.81156
2.81146
2.81132
2.8112
2.81103
2.81089
2.81069
2.81053
2.81031
2.81012
2.80987
2.80965
2.80936
2.80912
2.80881
2.80855
2.80822
2.80793
2.80759
2.80727
2.80692
2.80656
2.80619
2.80581
2.80542
2.80501
2.80461
2.80416
2.8037
2.80353
3.8114
3.78956
3.76562
3.73959
3.71149
3.68137
3.64934
3.61554
3.58019
3.54353
3.50578
3.46713
3.42768
2.8919
2.88922
2.88662
2.88411
2.88171
2.87947
2.87738
2.87539
2.87346
2.87156
2.86968
2.86784
2.86604
2.86428
2.86258
2.86092
2.85932
2.85776
2.85625
2.85479
2.85339
2.85205
2.85077
2.84955
2.84839
2.84724
2.84608
2.84502
2.84399
2.84294
2.84198
2.84112
2.8403
2.83947
2.83865
2.83787
2.83713
2.83642
2.83572
2.83505
2.83439
2.83376
2.83314
2.83255
2.83199
2.83144
2.83093
2.83045
2.82998
2.82953
2.82914
2.82874
2.82835
2.82801
2.82767
2.82732
2.827
2.82666
2.82629
2.82595
2.8256
2.82524
2.8249
2.82458
2.82426
2.82394
2.82363
2.82336
2.82309
2.82281
2.82258
2.82236
2.82208
2.82182
2.82158
2.8213
2.82089
2.82062
2.82032
2.81984
2.81946
2.81927
2.81884
2.81839
2.8182
2.81793
2.81756
2.81734
2.81715
2.8169
2.81669
2.81647
2.81626
2.81607
2.81585
2.81564
2.81544
2.81521
2.81498
2.81478
2.81455
2.8143
2.81408
2.81388
2.81366
2.81339
2.81324
2.81311
2.81287
2.81266
2.81263
2.8125
2.81232
2.8122
2.81219
2.81208
2.81199
2.81194
2.81189
2.81183
2.81178
2.81173
2.81168
2.81163
2.81158
2.81153
2.81148
2.81143
2.81137
2.81132
2.81126
2.8112
2.81114
2.81108
2.81102
2.81095
2.81087
2.81081
2.81069
2.81059
2.8105
2.81036
2.81021
2.81006
2.80991
2.80974
2.8096
2.80944
2.8093
2.80912
2.80897
2.80879
2.80863
2.80843
2.80826
2.80803
2.80784
2.80758
2.80738
2.80709
2.80685
2.80653
2.80626
2.80591
2.8056
2.80523
2.80489
2.80449
2.80411
2.80369
2.80327
2.80284
2.80238
2.80192
2.80144
2.80095
2.80044
2.79991
2.79936
2.7988
2.79822
2.79763
2.79701
2.79638
2.79573
2.79506
2.79437
2.79366
2.79292
2.79208
2.79179
3.58325
3.54304
3.50064
3.45636
3.41043
3.36305
3.31463
3.2658
3.21721
3.16939
3.12266
3.07718
2.84491
2.84422
2.8436
2.84305
2.84249
2.84189
2.84132
2.84078
2.8402
2.83959
2.83898
2.83838
2.83779
2.83722
2.83664
2.83607
2.8355
2.83494
2.8344
2.83387
2.83335
2.83285
2.83235
2.83187
2.83143
2.83099
2.83054
2.83014
2.82991
2.82983
2.82971
2.82952
2.82934
2.82921
2.82903
2.82876
2.82846
2.82814
2.82781
2.82748
2.82715
2.82683
2.82652
2.82623
2.82594
2.82563
2.82535
2.8251
2.82479
2.82446
2.82418
2.82393
2.82349
2.8231
2.82285
2.82245
2.82199
2.82162
2.82132
2.82101
2.82066
2.82037
2.8201
2.81982
2.81956
2.81928
2.81901
2.81877
2.81854
2.81827
2.81802
2.81779
2.8175
2.81722
2.817
2.81673
2.8164
2.81624
2.81605
2.81572
2.8155
2.81544
2.81516
2.81492
2.81485
2.81466
2.81447
2.81433
2.81416
2.81401
2.81385
2.81367
2.8135
2.81334
2.81314
2.81297
2.8128
2.8126
2.81239
2.81223
2.81205
2.81181
2.81166
2.81155
2.81134
2.81113
2.81108
2.811
2.81079
2.81066
2.81067
2.81056
2.81041
2.81038
2.81032
2.8102
2.81012
2.81006
2.80996
2.80987
2.80978
2.80968
2.80958
2.80947
2.80936
2.80924
2.80911
2.80897
2.80882
2.80866
2.80848
2.8083
2.80808
2.80786
2.80763
2.80736
2.80711
2.80687
2.80659
2.80633
2.80607
2.80579
2.80552
2.80526
2.80499
2.80471
2.80442
2.80412
2.80381
2.80348
2.80315
2.80279
2.80243
2.80204
2.80164
2.80121
2.80078
2.80032
2.79985
2.79935
2.79884
2.7983
2.79775
2.79718
2.79658
2.79597
2.79533
2.79467
2.794
2.7933
2.79257
2.79183
2.79106
2.79027
2.78945
2.7886
2.78773
2.78683
2.7859
2.78495
2.78396
2.78295
2.7819
2.78082
2.7797
2.77855
2.77736
2.77613
2.77487
2.77343
2.77295
3.26637
3.21359
3.16012
3.10665
3.05372
3.00133
2.94999
2.90069
2.85435
2.81167
2.82865
2.82856
2.8285
2.82845
2.82839
2.82833
2.82833
2.82848
2.82877
2.829
2.82905
2.82891
2.8287
2.82847
2.82823
2.828
2.82775
2.82749
2.82722
2.82695
2.82667
2.82639
2.82611
2.82584
2.82557
2.82528
2.82497
2.82458
2.82412
2.82363
2.82322
2.82291
2.82257
2.82222
2.82194
2.8218
2.82157
2.82136
2.82117
2.82099
2.82081
2.82063
2.82046
2.82029
2.82011
2.81991
2.81973
2.81957
2.81934
2.81908
2.81892
2.81874
2.81838
2.81817
2.81804
2.8178
2.81758
2.81744
2.81728
2.81708
2.81688
2.8167
2.8165
2.81629
2.8161
2.81588
2.81566
2.81548
2.81528
2.81501
2.8148
2.81462
2.81433
2.81412
2.81399
2.81373
2.81349
2.81342
2.81323
2.81298
2.81287
2.81278
2.81254
2.8124
2.81228
2.8121
2.81196
2.8118
2.81161
2.81147
2.8113
2.8111
2.81094
2.81078
2.81058
2.8104
2.81026
2.81006
2.80986
2.80975
2.80961
2.80939
2.80928
2.80922
2.80903
2.80881
2.80877
2.80862
2.80837
2.80824
2.80816
2.80791
2.80766
2.80759
2.8074
2.80714
2.80697
2.80682
2.80657
2.80634
2.80611
2.80587
2.80561
2.80534
2.80505
2.80476
2.80446
2.80413
2.80381
2.80347
2.80311
2.80276
2.80239
2.80202
2.80165
2.80126
2.80087
2.80047
2.80006
2.79963
2.7992
2.79876
2.7983
2.79783
2.79734
2.79683
2.7963
2.79575
2.79518
2.79459
2.79397
2.79333
2.79267
2.79198
2.79126
2.79052
2.78975
2.78896
2.78813
2.78728
2.7864
2.78549
2.78455
2.78358
2.78257
2.78154
2.78047
2.77936
2.77822
2.77705
2.77584
2.77459
2.7733
2.77197
2.77059
2.76918
2.76772
2.76622
2.76467
2.76308
2.76143
2.75974
2.75799
2.75618
2.75432
2.7524
2.75042
2.74839
2.74631
2.74401
2.7433
2.8392
2.79128
2.74647
2.70582
2.67022
2.63981
2.61434
2.59344
2.57671
2.82153
2.82165
2.8218
2.82188
2.82191
2.8219
2.82177
2.82155
2.82136
2.82125
2.82117
2.8211
2.82101
2.8209
2.82079
2.82065
2.82051
2.82035
2.82018
2.82001
2.81982
2.81963
2.81945
2.81927
2.81909
2.81892
2.81878
2.81877
2.81874
2.81865
2.81849
2.8183
2.81818
2.81802
2.81781
2.81764
2.81754
2.81741
2.81728
2.81715
2.817
2.81685
2.81672
2.81656
2.81634
2.81619
2.81605
2.81578
2.81558
2.81547
2.81526
2.815
2.8149
2.81476
2.81453
2.81438
2.81422
2.81402
2.81383
2.81365
2.81347
2.81326
2.81307
2.8129
2.8127
2.81247
2.8123
2.81211
2.81185
2.81171
2.81155
2.81129
2.81116
2.81106
2.81081
2.81063
2.81057
2.81035
2.81015
2.81009
2.80987
2.80968
2.80958
2.80938
2.80918
2.80904
2.80886
2.80863
2.80848
2.80831
2.80807
2.80789
2.80774
2.80749
2.80729
2.80713
2.80689
2.80662
2.80646
2.80619
2.80587
2.80564
2.80541
2.80506
2.80476
2.80457
2.80425
2.80389
2.80369
2.80343
2.80305
2.80276
2.80252
2.80218
2.80178
2.80147
2.80113
2.80072
2.80032
2.79992
2.79949
2.79906
2.79861
2.79814
2.79767
2.79718
2.79668
2.79616
2.79563
2.79509
2.79454
2.79397
2.79338
2.79278
2.79216
2.79152
2.79085
2.79017
2.78946
2.78872
2.78796
2.78717
2.78635
2.7855
2.78463
2.78372
2.78278
2.7818
2.78079
2.77975
2.77867
2.77755
2.7764
2.7752
2.77397
2.77269
2.77138
2.77002
2.76862
2.76717
2.76567
2.76413
2.76254
2.7609
2.75921
2.75747
2.75567
2.75382
2.75191
2.74995
2.74793
2.74584
2.7437
2.74149
2.73921
2.73687
2.73446
2.73198
2.72942
2.72679
2.72409
2.7213
2.71843
2.71547
2.71244
2.70931
2.70616
2.70294
2.69955
2.69861
2.55089
2.53171
2.81476
2.81488
2.81505
2.8152
2.81539
2.81557
2.81577
2.81589
2.81595
2.81599
2.81606
2.8161
2.8161
2.81607
2.81602
2.81594
2.81586
2.81575
2.81564
2.81551
2.81539
2.81526
2.81514
2.81502
2.8149
2.81478
2.81465
2.8145
2.81428
2.81404
2.81384
2.81368
2.81349
2.81331
2.81321
2.81313
2.81301
2.81284
2.81274
2.81266
2.81252
2.81241
2.81233
2.81219
2.81207
2.81201
2.8119
2.81174
2.81167
2.81159
2.81143
2.81134
2.81126
2.81109
2.81097
2.81085
2.81068
2.81053
2.81036
2.8102
2.81005
2.80983
2.80966
2.80951
2.80926
2.80908
2.80896
2.80873
2.80851
2.80841
2.80821
2.80795
2.80784
2.80768
2.80742
2.80728
2.80714
2.80687
2.8067
2.80657
2.8063
2.80609
2.80596
2.80567
2.80542
2.80524
2.80499
2.80468
2.80444
2.80419
2.80382
2.80353
2.80322
2.80282
2.80247
2.80215
2.80174
2.80135
2.80102
2.80062
2.80021
2.79985
2.79947
2.79904
2.79865
2.79824
2.7978
2.79736
2.79693
2.79646
2.79596
2.79547
2.79497
2.79443
2.79387
2.79331
2.79272
2.79211
2.79148
2.79083
2.79016
2.78947
2.78877
2.78804
2.78729
2.78652
2.78572
2.78491
2.78406
2.7832
2.7823
2.78137
2.78041
2.77942
2.77839
2.77733
2.77624
2.7751
2.77393
2.77271
2.77145
2.77015
2.76881
2.76742
2.76599
2.76451
2.76298
2.76141
2.75978
2.7581
2.75636
2.75457
2.75273
2.75082
2.74886
2.74684
2.74475
2.7426
2.74039
2.73811
2.73576
2.73334
2.73085
2.72829
2.72565
2.72294
2.72014
2.71727
2.71432
2.71129
2.70817
2.70496
2.70167
2.69828
2.6948
2.69123
2.68756
2.68379
2.67992
2.67594
2.67186
2.66765
2.66335
2.65892
2.65442
2.6498
2.64523
2.64057
2.636
2.63499
2.80887
2.80907
2.80931
2.80955
2.80978
2.81001
2.81018
2.81028
2.81033
2.81037
2.81042
2.81048
2.81052
2.81055
2.81055
2.81053
2.8105
2.81045
2.81039
2.81031
2.81023
2.81014
2.81004
2.80995
2.80987
2.80979
2.80972
2.80964
2.80955
2.80945
2.80933
2.80921
2.8091
2.809
2.80889
2.80885
2.80876
2.80868
2.80863
2.80857
2.80841
2.80832
2.80828
2.80813
2.80806
2.80802
2.80788
2.80779
2.80776
2.80762
2.80751
2.80746
2.80729
2.80713
2.80704
2.80687
2.80668
2.80656
2.80634
2.80617
2.806
2.80576
2.80559
2.80542
2.80518
2.80496
2.80481
2.80455
2.80432
2.80417
2.8039
2.80366
2.80351
2.80324
2.80297
2.80279
2.80252
2.80218
2.80195
2.80167
2.8013
2.80096
2.80066
2.80026
2.79983
2.79949
2.79905
2.7986
2.7982
2.79773
2.79727
2.79681
2.79633
2.79584
2.79536
2.79486
2.79435
2.79383
2.7933
2.79276
2.7922
2.79163
2.79105
2.79043
2.78981
2.78916
2.78849
2.7878
2.78709
2.78635
2.78559
2.7848
2.78399
2.78315
2.78228
2.78139
2.78046
2.77951
2.77853
2.77752
2.77647
2.77539
2.77428
2.77313
2.77195
2.77073
2.76947
2.76817
2.76682
2.76544
2.764
2.76252
2.76099
2.75941
2.75778
2.7561
2.75436
2.75257
2.75072
2.74881
2.74684
2.74481
2.74271
2.74055
2.73833
2.73604
2.73368
2.73125
2.72874
2.72617
2.72351
2.72078
2.71797
2.71507
2.7121
2.70904
2.70589
2.70265
2.69932
2.6959
2.69239
2.68878
2.68507
2.68127
2.67736
2.67335
2.66924
2.66502
2.66069
2.65625
2.6517
2.64703
2.64225
2.63734
2.63232
2.62718
2.62191
2.61651
2.61097
2.6053
2.5995
2.59355
2.58748
2.58126
2.57502
2.56865
2.56249
2.55624
2.55066
2.5499
2.80262
2.80287
2.80313
2.8034
2.80365
2.80389
2.80411
2.80432
2.8045