/*--------------------------------*- C++ -*----------------------------------*\
| =========                 |                                                 |
| \\      /  F ield         | OpenFOAM: The Open Source CFD Toolbox           |
|  \\    /   O peration     | Version:  v1706                                 |
|   \\  /    A nd           | Web:      www.OpenFOAM.com                      |
|    \\/     M anipulation  |                                                 |
\*---------------------------------------------------------------------------*/
FoamFile
{
    version     2.0;
    format      ascii;
    class       volScalarField;
    location    "1.9e-05";
    object      mu;
}
// * * * * * * * * * * * * * * * * * * * * * * * * * * * * * * * * * * * * * //

dimensions      [1 -1 -1 0 0 0 0];


internalField   nonuniform List<scalar> 
30104
(
1.0351e-05
1.0351e-05
1.0351e-05
1.0351e-05
1.0351e-05
1.0351e-05
1.0351e-05
1.0351e-05
1.0351e-05
1.0351e-05
1.0351e-05
1.0351e-05
1.0351e-05
1.0351e-05
1.0351e-05
1.0351e-05
1.0351e-05
1.03511e-05
1.03511e-05
1.03511e-05
1.03511e-05
1.03511e-05
1.03511e-05
1.03511e-05
1.03511e-05
1.03511e-05
1.03511e-05
1.03511e-05
1.03511e-05
1.03511e-05
1.03511e-05
1.03511e-05
1.03511e-05
1.03511e-05
1.03511e-05
1.03511e-05
1.03511e-05
1.03511e-05
1.03511e-05
1.03511e-05
1.03511e-05
1.03511e-05
1.03511e-05
1.03511e-05
1.03511e-05
1.03511e-05
1.03511e-05
1.03511e-05
1.03511e-05
1.03511e-05
1.03511e-05
1.03511e-05
1.03511e-05
1.03511e-05
1.03511e-05
1.03511e-05
1.03511e-05
1.03511e-05
1.03511e-05
1.03511e-05
1.03511e-05
1.03511e-05
1.03511e-05
1.03511e-05
1.03511e-05
1.03511e-05
1.03511e-05
1.03511e-05
1.03511e-05
1.03511e-05
1.03511e-05
1.03512e-05
1.03512e-05
1.03512e-05
1.03512e-05
1.03512e-05
1.03512e-05
1.03512e-05
1.03512e-05
1.03512e-05
1.03512e-05
1.03512e-05
1.03512e-05
1.03512e-05
1.03512e-05
1.03512e-05
1.03512e-05
1.03512e-05
1.03512e-05
1.03512e-05
1.03512e-05
1.03512e-05
1.03512e-05
1.03512e-05
1.03512e-05
1.03512e-05
1.03512e-05
1.03512e-05
1.03512e-05
1.03512e-05
1.03512e-05
1.03512e-05
1.03512e-05
1.03512e-05
1.03512e-05
1.03512e-05
1.03512e-05
1.03513e-05
1.03513e-05
1.03513e-05
1.03513e-05
1.03513e-05
1.03513e-05
1.03513e-05
1.03513e-05
1.03513e-05
1.03513e-05
1.03513e-05
1.03513e-05
1.03513e-05
1.03513e-05
1.03513e-05
1.03513e-05
1.03513e-05
1.03513e-05
1.03513e-05
1.03513e-05
1.03513e-05
1.03513e-05
1.03513e-05
1.03513e-05
1.03514e-05
1.03514e-05
1.03514e-05
1.03514e-05
1.03514e-05
1.03514e-05
1.03514e-05
1.03514e-05
1.03514e-05
1.03514e-05
1.03514e-05
1.03514e-05
1.03514e-05
1.03514e-05
1.03514e-05
1.03514e-05
1.03515e-05
1.03515e-05
1.03515e-05
1.03515e-05
1.03515e-05
1.03515e-05
1.03515e-05
1.03515e-05
1.03515e-05
1.03515e-05
1.03515e-05
1.03515e-05
1.03515e-05
1.03515e-05
1.03516e-05
1.03516e-05
1.03516e-05
1.03516e-05
1.03516e-05
1.03516e-05
1.03516e-05
1.03516e-05
1.03516e-05
1.03516e-05
1.03516e-05
1.03517e-05
1.03517e-05
1.03517e-05
1.03517e-05
1.03517e-05
1.03517e-05
1.03517e-05
1.03517e-05
1.03517e-05
1.03518e-05
1.03518e-05
1.03518e-05
1.03518e-05
1.03518e-05
1.03518e-05
1.03518e-05
1.03518e-05
1.03518e-05
1.03519e-05
1.03519e-05
1.03519e-05
1.03519e-05
1.03519e-05
1.03519e-05
1.03519e-05
1.0352e-05
1.0352e-05
1.0352e-05
1.0352e-05
1.0352e-05
1.0352e-05
1.0352e-05
1.03521e-05
1.03521e-05
1.03521e-05
1.03521e-05
1.03521e-05
1.03519e-05
1.0351e-05
1.0351e-05
1.0351e-05
1.0351e-05
1.0351e-05
1.0351e-05
1.03511e-05
1.03511e-05
1.03511e-05
1.03511e-05
1.03511e-05
1.03511e-05
1.03511e-05
1.03511e-05
1.03511e-05
1.03511e-05
1.03512e-05
1.03514e-05
1.03515e-05
1.03515e-05
1.03515e-05
1.03515e-05
1.03515e-05
1.03515e-05
1.03515e-05
1.03515e-05
1.03515e-05
1.03515e-05
1.03515e-05
1.03515e-05
1.03515e-05
1.03515e-05
1.03516e-05
1.03516e-05
1.03516e-05
1.03516e-05
1.03516e-05
1.03516e-05
1.03516e-05
1.03516e-05
1.03516e-05
1.03516e-05
1.03517e-05
1.03517e-05
1.03517e-05
1.03517e-05
1.03517e-05
1.03517e-05
1.03517e-05
1.03517e-05
1.03518e-05
1.03518e-05
1.03518e-05
1.03518e-05
1.03518e-05
1.03518e-05
1.03518e-05
1.03518e-05
1.03519e-05
1.03519e-05
1.03519e-05
1.03519e-05
1.03519e-05
1.03519e-05
1.03519e-05
1.0352e-05
1.0352e-05
1.0352e-05
1.0352e-05
1.0352e-05
1.0352e-05
1.03521e-05
1.03521e-05
1.03521e-05
1.03521e-05
1.03521e-05
1.03521e-05
1.03522e-05
1.03522e-05
1.03522e-05
1.03522e-05
1.03522e-05
1.03522e-05
1.03523e-05
1.03523e-05
1.03523e-05
1.03523e-05
1.03523e-05
1.03524e-05
1.03524e-05
1.03524e-05
1.03524e-05
1.03525e-05
1.03525e-05
1.03525e-05
1.03525e-05
1.03526e-05
1.03526e-05
1.03526e-05
1.03526e-05
1.03527e-05
1.03527e-05
1.03527e-05
1.03527e-05
1.03528e-05
1.03528e-05
1.03528e-05
1.03529e-05
1.03529e-05
1.03529e-05
1.03529e-05
1.0353e-05
1.0353e-05
1.0353e-05
1.03531e-05
1.03531e-05
1.03531e-05
1.03532e-05
1.03532e-05
1.03532e-05
1.03533e-05
1.03533e-05
1.03534e-05
1.03534e-05
1.03534e-05
1.03535e-05
1.03535e-05
1.03536e-05
1.03536e-05
1.03536e-05
1.03537e-05
1.03537e-05
1.03538e-05
1.03538e-05
1.03539e-05
1.03539e-05
1.0354e-05
1.0354e-05
1.03541e-05
1.03541e-05
1.03542e-05
1.03542e-05
1.03543e-05
1.03543e-05
1.03544e-05
1.03545e-05
1.03545e-05
1.03546e-05
1.03546e-05
1.03547e-05
1.03548e-05
1.03548e-05
1.03549e-05
1.03549e-05
1.0355e-05
1.03551e-05
1.03551e-05
1.03552e-05
1.03553e-05
1.03554e-05
1.03554e-05
1.03555e-05
1.03556e-05
1.03557e-05
1.03557e-05
1.03558e-05
1.03559e-05
1.0356e-05
1.03561e-05
1.03561e-05
1.03562e-05
1.03563e-05
1.03564e-05
1.03565e-05
1.03566e-05
1.03567e-05
1.03568e-05
1.03569e-05
1.0357e-05
1.03571e-05
1.03573e-05
1.03574e-05
1.03575e-05
1.03576e-05
1.03577e-05
1.03579e-05
1.0358e-05
1.03581e-05
1.03582e-05
1.03584e-05
1.03585e-05
1.03587e-05
1.03588e-05
1.03589e-05
1.03591e-05
1.03592e-05
1.03594e-05
1.03595e-05
1.03597e-05
1.03598e-05
1.036e-05
1.03601e-05
1.03603e-05
1.03604e-05
1.03606e-05
1.03608e-05
1.03609e-05
1.03611e-05
1.03611e-05
1.03603e-05
1.03511e-05
1.03511e-05
1.03511e-05
1.03511e-05
1.03511e-05
1.03511e-05
1.03512e-05
1.03512e-05
1.03512e-05
1.03512e-05
1.03513e-05
1.03513e-05
1.03513e-05
1.03514e-05
1.03514e-05
1.03515e-05
1.03525e-05
1.03525e-05
1.03526e-05
1.03526e-05
1.03526e-05
1.03526e-05
1.03527e-05
1.03527e-05
1.03527e-05
1.03527e-05
1.03528e-05
1.03528e-05
1.03528e-05
1.03528e-05
1.03529e-05
1.03529e-05
1.03529e-05
1.0353e-05
1.0353e-05
1.03531e-05
1.03531e-05
1.03531e-05
1.03532e-05
1.03532e-05
1.03533e-05
1.03533e-05
1.03533e-05
1.03534e-05
1.03534e-05
1.03535e-05
1.03535e-05
1.03536e-05
1.03536e-05
1.03537e-05
1.03537e-05
1.03538e-05
1.03538e-05
1.03539e-05
1.03539e-05
1.0354e-05
1.0354e-05
1.03541e-05
1.03542e-05
1.03542e-05
1.03543e-05
1.03543e-05
1.03544e-05
1.03544e-05
1.03545e-05
1.03546e-05
1.03546e-05
1.03547e-05
1.03547e-05
1.03548e-05
1.03549e-05
1.03549e-05
1.0355e-05
1.03551e-05
1.03551e-05
1.03552e-05
1.03553e-05
1.03554e-05
1.03554e-05
1.03555e-05
1.03556e-05
1.03557e-05
1.03558e-05
1.03558e-05
1.03559e-05
1.0356e-05
1.03561e-05
1.03562e-05
1.03563e-05
1.03564e-05
1.03565e-05
1.03566e-05
1.03567e-05
1.03568e-05
1.03569e-05
1.0357e-05
1.03571e-05
1.03572e-05
1.03573e-05
1.03574e-05
1.03575e-05
1.03576e-05
1.03577e-05
1.03579e-05
1.0358e-05
1.03581e-05
1.03582e-05
1.03584e-05
1.03585e-05
1.03586e-05
1.03588e-05
1.03589e-05
1.03591e-05
1.03592e-05
1.03593e-05
1.03595e-05
1.03597e-05
1.03598e-05
1.036e-05
1.03601e-05
1.03603e-05
1.03605e-05
1.03606e-05
1.03608e-05
1.0361e-05
1.03612e-05
1.03614e-05
1.03615e-05
1.03617e-05
1.03619e-05
1.03621e-05
1.03623e-05
1.03626e-05
1.03628e-05
1.0363e-05
1.03632e-05
1.03635e-05
1.03637e-05
1.03639e-05
1.03642e-05
1.03644e-05
1.03647e-05
1.0365e-05
1.03652e-05
1.03655e-05
1.03658e-05
1.03661e-05
1.03664e-05
1.03667e-05
1.0367e-05
1.03673e-05
1.03676e-05
1.03679e-05
1.03682e-05
1.03685e-05
1.03689e-05
1.03692e-05
1.03695e-05
1.03699e-05
1.03702e-05
1.03706e-05
1.03709e-05
1.03713e-05
1.03717e-05
1.03721e-05
1.03725e-05
1.03729e-05
1.03733e-05
1.03737e-05
1.03741e-05
1.03745e-05
1.0375e-05
1.03755e-05
1.03759e-05
1.03764e-05
1.03769e-05
1.03774e-05
1.03779e-05
1.03785e-05
1.0379e-05
1.03796e-05
1.03802e-05
1.03808e-05
1.03814e-05
1.0382e-05
1.03826e-05
1.03833e-05
1.03839e-05
1.03846e-05
1.03853e-05
1.0386e-05
1.03867e-05
1.03874e-05
1.03882e-05
1.03889e-05
1.03897e-05
1.03905e-05
1.03912e-05
1.0392e-05
1.03928e-05
1.03936e-05
1.03945e-05
1.03953e-05
1.03961e-05
1.0397e-05
1.03978e-05
1.03987e-05
1.0399e-05
1.03959e-05
1.03512e-05
1.03512e-05
1.03513e-05
1.03513e-05
1.03514e-05
1.03514e-05
1.03515e-05
1.03515e-05
1.03516e-05
1.03517e-05
1.03517e-05
1.03518e-05
1.03519e-05
1.0352e-05
1.03521e-05
1.03523e-05
1.03554e-05
1.03555e-05
1.03556e-05
1.03556e-05
1.03557e-05
1.03558e-05
1.03559e-05
1.0356e-05
1.0356e-05
1.03561e-05
1.03562e-05
1.03563e-05
1.03564e-05
1.03565e-05
1.03566e-05
1.03567e-05
1.03568e-05
1.03569e-05
1.0357e-05
1.03572e-05
1.03573e-05
1.03574e-05
1.03575e-05
1.03577e-05
1.03578e-05
1.0358e-05
1.03581e-05
1.03583e-05
1.03584e-05
1.03586e-05
1.03587e-05
1.03589e-05
1.03591e-05
1.03592e-05
1.03594e-05
1.03596e-05
1.03597e-05
1.03599e-05
1.03601e-05
1.03603e-05
1.03605e-05
1.03607e-05
1.03608e-05
1.0361e-05
1.03612e-05
1.03614e-05
1.03616e-05
1.03618e-05
1.0362e-05
1.03622e-05
1.03624e-05
1.03627e-05
1.03629e-05
1.03631e-05
1.03633e-05
1.03636e-05
1.03638e-05
1.03641e-05
1.03643e-05
1.03646e-05
1.03648e-05
1.03651e-05
1.03653e-05
1.03656e-05
1.03659e-05
1.03662e-05
1.03665e-05
1.03668e-05
1.03671e-05
1.03674e-05
1.03677e-05
1.0368e-05
1.03683e-05
1.03687e-05
1.0369e-05
1.03694e-05
1.03697e-05
1.03701e-05
1.03705e-05
1.03708e-05
1.03712e-05
1.03716e-05
1.0372e-05
1.03724e-05
1.03729e-05
1.03733e-05
1.03738e-05
1.03742e-05
1.03747e-05
1.03751e-05
1.03756e-05
1.03761e-05
1.03766e-05
1.03772e-05
1.03777e-05
1.03782e-05
1.03788e-05
1.03794e-05
1.03799e-05
1.03805e-05
1.03811e-05
1.03817e-05
1.03823e-05
1.0383e-05
1.03836e-05
1.03843e-05
1.03849e-05
1.03856e-05
1.03863e-05
1.0387e-05
1.03877e-05
1.03885e-05
1.03892e-05
1.039e-05
1.03908e-05
1.03916e-05
1.03924e-05
1.03932e-05
1.03941e-05
1.0395e-05
1.03959e-05
1.03968e-05
1.03977e-05
1.03987e-05
1.03997e-05
1.04007e-05
1.04018e-05
1.04029e-05
1.0404e-05
1.04051e-05
1.04063e-05
1.04075e-05
1.04087e-05
1.04099e-05
1.04111e-05
1.04124e-05
1.04137e-05
1.04151e-05
1.04164e-05
1.04178e-05
1.04192e-05
1.04206e-05
1.04221e-05
1.04236e-05
1.04251e-05
1.04266e-05
1.04281e-05
1.04297e-05
1.04313e-05
1.04329e-05
1.04346e-05
1.04363e-05
1.0438e-05
1.04398e-05
1.04416e-05
1.04435e-05
1.04454e-05
1.04474e-05
1.04494e-05
1.04515e-05
1.04536e-05
1.04558e-05
1.04581e-05
1.04604e-05
1.04628e-05
1.04653e-05
1.04679e-05
1.04706e-05
1.04733e-05
1.04761e-05
1.04791e-05
1.04821e-05
1.04852e-05
1.04883e-05
1.04916e-05
1.0495e-05
1.04984e-05
1.05019e-05
1.05055e-05
1.05092e-05
1.05129e-05
1.05166e-05
1.05205e-05
1.05243e-05
1.05283e-05
1.05322e-05
1.05362e-05
1.05402e-05
1.05442e-05
1.05483e-05
1.05525e-05
1.05553e-05
1.05443e-05
1.03516e-05
1.03516e-05
1.03517e-05
1.03518e-05
1.0352e-05
1.03521e-05
1.03522e-05
1.03524e-05
1.03525e-05
1.03527e-05
1.03529e-05
1.03532e-05
1.03534e-05
1.03537e-05
1.0354e-05
1.03631e-05
1.03634e-05
1.03636e-05
1.03638e-05
1.0364e-05
1.03643e-05
1.03645e-05
1.03648e-05
1.0365e-05
1.03653e-05
1.03655e-05
1.03658e-05
1.03661e-05
1.03664e-05
1.03667e-05
1.0367e-05
1.03673e-05
1.03677e-05
1.0368e-05
1.03684e-05
1.03687e-05
1.03691e-05
1.03695e-05
1.03699e-05
1.03703e-05
1.03708e-05
1.03712e-05
1.03717e-05
1.03721e-05
1.03726e-05
1.03731e-05
1.03736e-05
1.03741e-05
1.03746e-05
1.03752e-05
1.03757e-05
1.03763e-05
1.03768e-05
1.03774e-05
1.0378e-05
1.03786e-05
1.03792e-05
1.03798e-05
1.03804e-05
1.0381e-05
1.03816e-05
1.03823e-05
1.03829e-05
1.03836e-05
1.03843e-05
1.0385e-05
1.03857e-05
1.03864e-05
1.03871e-05
1.03879e-05
1.03886e-05
1.03894e-05
1.03902e-05
1.03911e-05
1.03919e-05
1.03928e-05
1.03937e-05
1.03946e-05
1.03955e-05
1.03964e-05
1.03974e-05
1.03984e-05
1.03994e-05
1.04004e-05
1.04015e-05
1.04025e-05
1.04036e-05
1.04047e-05
1.04059e-05
1.0407e-05
1.04082e-05
1.04094e-05
1.04106e-05
1.04119e-05
1.04132e-05
1.04145e-05
1.04159e-05
1.04172e-05
1.04186e-05
1.04201e-05
1.04216e-05
1.04231e-05
1.04246e-05
1.04262e-05
1.04279e-05
1.04296e-05
1.04313e-05
1.04331e-05
1.04349e-05
1.04367e-05
1.04386e-05
1.04406e-05
1.04426e-05
1.04446e-05
1.04467e-05
1.04488e-05
1.0451e-05
1.04532e-05
1.04555e-05
1.04578e-05
1.04601e-05
1.04625e-05
1.0465e-05
1.04675e-05
1.047e-05
1.04726e-05
1.04753e-05
1.0478e-05
1.04808e-05
1.04836e-05
1.04865e-05
1.04895e-05
1.04925e-05
1.04956e-05
1.04988e-05
1.05021e-05
1.05055e-05
1.0509e-05
1.05125e-05
1.05162e-05
1.052e-05
1.05238e-05
1.05278e-05
1.05319e-05
1.05362e-05
1.05405e-05
1.0545e-05
1.05496e-05
1.05544e-05
1.05592e-05
1.05642e-05
1.05693e-05
1.05745e-05
1.05799e-05
1.05854e-05
1.05909e-05
1.05966e-05
1.06023e-05
1.06082e-05
1.06141e-05
1.06201e-05
1.06261e-05
1.06323e-05
1.06385e-05
1.06448e-05
1.06512e-05
1.06577e-05
1.06643e-05
1.0671e-05
1.06778e-05
1.06848e-05
1.06919e-05
1.06992e-05
1.07067e-05
1.07144e-05
1.07222e-05
1.07303e-05
1.07386e-05
1.07471e-05
1.07559e-05
1.0765e-05
1.07743e-05
1.0784e-05
1.07939e-05
1.08042e-05
1.08148e-05
1.08258e-05
1.08372e-05
1.08489e-05
1.08611e-05
1.08736e-05
1.08865e-05
1.08998e-05
1.09135e-05
1.09276e-05
1.09421e-05
1.09569e-05
1.09721e-05
1.09875e-05
1.10033e-05
1.10193e-05
1.10356e-05
1.1052e-05
1.10684e-05
1.10851e-05
1.11015e-05
1.1118e-05
1.10899e-05
1.03523e-05
1.03525e-05
1.03527e-05
1.03529e-05
1.03532e-05
1.03534e-05
1.03538e-05
1.03541e-05
1.03545e-05
1.03549e-05
1.03554e-05
1.0356e-05
1.03565e-05
1.03572e-05
1.03578e-05
1.03586e-05
1.0383e-05
1.03836e-05
1.03843e-05
1.03849e-05
1.03855e-05
1.03862e-05
1.03869e-05
1.03876e-05
1.03883e-05
1.0389e-05
1.03898e-05
1.03906e-05
1.03914e-05
1.03922e-05
1.03931e-05
1.0394e-05
1.03949e-05
1.03958e-05
1.03968e-05
1.03979e-05
1.03989e-05
1.04e-05
1.04012e-05
1.04024e-05
1.04036e-05
1.04048e-05
1.04061e-05
1.04075e-05
1.04089e-05
1.04103e-05
1.04117e-05
1.04132e-05
1.04148e-05
1.04163e-05
1.04179e-05
1.04196e-05
1.04212e-05
1.04229e-05
1.04246e-05
1.04264e-05
1.04282e-05
1.043e-05
1.04318e-05
1.04337e-05
1.04356e-05
1.04375e-05
1.04395e-05
1.04415e-05
1.04435e-05
1.04456e-05
1.04477e-05
1.04498e-05
1.04521e-05
1.04543e-05
1.04566e-05
1.0459e-05
1.04614e-05
1.04639e-05
1.04664e-05
1.04691e-05
1.04717e-05
1.04745e-05
1.04773e-05
1.04802e-05
1.04831e-05
1.04862e-05
1.04893e-05
1.04924e-05
1.04957e-05
1.0499e-05
1.05024e-05
1.05059e-05
1.05094e-05
1.0513e-05
1.05167e-05
1.05205e-05
1.05244e-05
1.05283e-05
1.05323e-05
1.05365e-05
1.05407e-05
1.0545e-05
1.05494e-05
1.0554e-05
1.05586e-05
1.05634e-05
1.05683e-05
1.05733e-05
1.05785e-05
1.05838e-05
1.05892e-05
1.05948e-05
1.06005e-05
1.06064e-05
1.06125e-05
1.06188e-05
1.06252e-05
1.06318e-05
1.06386e-05
1.06455e-05
1.06527e-05
1.066e-05
1.06675e-05
1.06751e-05
1.0683e-05
1.0691e-05
1.06991e-05
1.07074e-05
1.07158e-05
1.07244e-05
1.07331e-05
1.07419e-05
1.07509e-05
1.076e-05
1.07692e-05
1.07786e-05
1.07882e-05
1.0798e-05
1.0808e-05
1.08183e-05
1.08287e-05
1.08395e-05
1.08505e-05
1.08617e-05
1.08733e-05
1.08853e-05
1.08975e-05
1.09102e-05
1.09232e-05
1.09366e-05
1.09504e-05
1.09646e-05
1.09792e-05
1.09943e-05
1.10099e-05
1.10259e-05
1.10423e-05
1.10592e-05
1.10766e-05
1.10944e-05
1.11127e-05
1.11314e-05
1.11505e-05
1.11699e-05
1.11898e-05
1.12099e-05
1.12303e-05
1.12509e-05
1.12716e-05
1.12926e-05
1.13137e-05
1.1335e-05
1.13565e-05
1.13781e-05
1.14e-05
1.14221e-05
1.14445e-05
1.14671e-05
1.149e-05
1.15131e-05
1.15367e-05
1.15606e-05
1.15849e-05
1.16097e-05
1.1635e-05
1.16609e-05
1.16875e-05
1.17147e-05
1.17428e-05
1.17717e-05
1.18015e-05
1.18324e-05
1.18644e-05
1.18975e-05
1.1932e-05
1.19676e-05
1.20047e-05
1.20432e-05
1.20831e-05
1.21244e-05
1.21672e-05
1.22113e-05
1.2257e-05
1.23038e-05
1.2352e-05
1.24014e-05
1.24517e-05
1.25036e-05
1.25546e-05
1.26077e-05
1.26566e-05
1.27183e-05
1.27011e-05
1.03542e-05
1.03547e-05
1.03552e-05
1.03558e-05
1.03564e-05
1.03572e-05
1.0358e-05
1.03589e-05
1.03598e-05
1.03609e-05
1.03621e-05
1.03634e-05
1.03649e-05
1.04328e-05
1.04345e-05
1.04362e-05
1.04379e-05
1.04397e-05
1.04415e-05
1.04434e-05
1.04453e-05
1.04473e-05
1.04493e-05
1.04514e-05
1.04536e-05
1.04558e-05
1.04581e-05
1.04605e-05
1.04629e-05
1.04655e-05
1.04681e-05
1.04708e-05
1.04736e-05
1.04765e-05
1.04796e-05
1.04827e-05
1.04859e-05
1.04893e-05
1.04927e-05
1.04963e-05
1.05e-05
1.05038e-05
1.05077e-05
1.05117e-05
1.05159e-05
1.05202e-05
1.05245e-05
1.0529e-05
1.05336e-05
1.05383e-05
1.05431e-05
1.0548e-05
1.0553e-05
1.05581e-05
1.05633e-05
1.05685e-05
1.05739e-05
1.05794e-05
1.05849e-05
1.05906e-05
1.05963e-05
1.06022e-05
1.06082e-05
1.06143e-05
1.06205e-05
1.06269e-05
1.06334e-05
1.06401e-05
1.06469e-05
1.06539e-05
1.06611e-05
1.06685e-05
1.06761e-05
1.06839e-05
1.06918e-05
1.07e-05
1.07084e-05
1.0717e-05
1.07259e-05
1.0735e-05
1.07443e-05
1.07538e-05
1.07636e-05
1.07737e-05
1.07839e-05
1.07944e-05
1.08051e-05
1.0816e-05
1.08272e-05
1.08385e-05
1.08501e-05
1.08618e-05
1.08738e-05
1.08859e-05
1.08983e-05
1.09109e-05
1.09238e-05
1.0937e-05
1.09504e-05
1.09641e-05
1.09782e-05
1.09926e-05
1.10073e-05
1.10225e-05
1.1038e-05
1.1054e-05
1.10704e-05
1.10873e-05
1.11046e-05
1.11224e-05
1.11407e-05
1.11595e-05
1.11788e-05
1.11986e-05
1.1219e-05
1.12398e-05
1.12612e-05
1.1283e-05
1.13053e-05
1.13282e-05
1.13514e-05
1.13751e-05
1.13992e-05
1.14237e-05
1.14484e-05
1.14734e-05
1.14987e-05
1.15242e-05
1.15501e-05
1.15763e-05
1.16028e-05
1.16296e-05
1.16568e-05
1.16844e-05
1.17124e-05
1.17408e-05
1.17696e-05
1.17989e-05
1.18286e-05
1.1859e-05
1.18899e-05
1.19214e-05
1.19537e-05
1.19867e-05
1.20206e-05
1.20553e-05
1.2091e-05
1.21278e-05
1.21656e-05
1.22045e-05
1.22446e-05
1.22859e-05
1.23283e-05
1.23719e-05
1.24167e-05
1.24625e-05
1.25094e-05
1.25572e-05
1.26059e-05
1.26554e-05
1.27055e-05
1.27552e-05
1.28044e-05
1.28532e-05
1.29014e-05
1.2949e-05
1.2996e-05
1.30424e-05
1.30883e-05
1.31335e-05
1.31782e-05
1.32223e-05
1.32659e-05
1.33089e-05
1.33514e-05
1.33933e-05
1.34347e-05
1.34755e-05
1.35156e-05
1.35551e-05
1.35936e-05
1.36314e-05
1.36682e-05
1.3704e-05
1.37384e-05
1.37719e-05
1.38038e-05
1.38346e-05
1.38638e-05
1.38919e-05
1.39183e-05
1.39435e-05
1.39673e-05
1.39898e-05
1.40111e-05
1.40309e-05
1.40501e-05
1.40675e-05
1.40848e-05
1.41e-05
1.41153e-05
1.41292e-05
1.41427e-05
1.41563e-05
1.41719e-05
1.41495e-05
1.0359e-05
1.03602e-05
1.03615e-05
1.03629e-05
1.03645e-05
1.03663e-05
1.03683e-05
1.03705e-05
1.03729e-05
1.03756e-05
1.03785e-05
1.03817e-05
1.03852e-05
1.05532e-05
1.05575e-05
1.05619e-05
1.05664e-05
1.0571e-05
1.05757e-05
1.05805e-05
1.05854e-05
1.05905e-05
1.05957e-05
1.06011e-05
1.06066e-05
1.06123e-05
1.06182e-05
1.06244e-05
1.06307e-05
1.06372e-05
1.0644e-05
1.0651e-05
1.06582e-05
1.06658e-05
1.06735e-05
1.06816e-05
1.069e-05
1.06986e-05
1.07075e-05
1.07168e-05
1.07264e-05
1.07362e-05
1.07464e-05
1.07569e-05
1.07677e-05
1.07788e-05
1.07901e-05
1.08018e-05
1.08138e-05
1.08261e-05
1.08386e-05
1.08514e-05
1.08645e-05
1.08778e-05
1.08914e-05
1.09052e-05
1.09193e-05
1.09335e-05
1.09481e-05
1.09628e-05
1.09777e-05
1.09929e-05
1.10083e-05
1.10239e-05
1.10398e-05
1.1056e-05
1.10725e-05
1.10893e-05
1.11064e-05
1.11239e-05
1.11418e-05
1.11601e-05
1.11788e-05
1.11979e-05
1.12176e-05
1.12377e-05
1.12583e-05
1.12794e-05
1.13011e-05
1.13233e-05
1.1346e-05
1.13693e-05
1.13931e-05
1.14174e-05
1.14423e-05
1.14678e-05
1.14937e-05
1.15202e-05
1.15471e-05
1.15745e-05
1.16023e-05
1.16305e-05
1.1659e-05
1.16879e-05
1.17171e-05
1.17467e-05
1.17767e-05
1.1807e-05
1.18379e-05
1.18691e-05
1.19008e-05
1.1933e-05
1.19656e-05
1.19988e-05
1.20324e-05
1.20666e-05
1.21014e-05
1.21367e-05
1.21727e-05
1.22094e-05
1.22469e-05
1.22851e-05
1.23242e-05
1.23642e-05
1.24051e-05
1.2447e-05
1.24899e-05
1.25338e-05
1.25787e-05
1.26245e-05
1.26711e-05
1.27186e-05
1.27667e-05
1.28155e-05
1.28645e-05
1.29129e-05
1.29608e-05
1.30079e-05
1.30543e-05
1.30998e-05
1.31445e-05
1.31883e-05
1.32312e-05
1.32733e-05
1.33145e-05
1.3355e-05
1.33947e-05
1.34338e-05
1.34722e-05
1.351e-05
1.35472e-05
1.35838e-05
1.36198e-05
1.36552e-05
1.36899e-05
1.37237e-05
1.37567e-05
1.37887e-05
1.38196e-05
1.38494e-05
1.3878e-05
1.39052e-05
1.39311e-05
1.39557e-05
1.3979e-05
1.40009e-05
1.40217e-05
1.40412e-05
1.40597e-05
1.40771e-05
1.40936e-05
1.41095e-05
1.41249e-05
1.41399e-05
1.41545e-05
1.41687e-05
1.41827e-05
1.41963e-05
1.42097e-05
1.42227e-05
1.42353e-05
1.42474e-05
1.42589e-05
1.42699e-05
1.42802e-05
1.42897e-05
1.42984e-05
1.43063e-05
1.43133e-05
1.43195e-05
1.4325e-05
1.43296e-05
1.43338e-05
1.43372e-05
1.43405e-05
1.43431e-05
1.43458e-05
1.43481e-05
1.43506e-05
1.43528e-05
1.43555e-05
1.4358e-05
1.43609e-05
1.43638e-05
1.43671e-05
1.43703e-05
1.43739e-05
1.43775e-05
1.43812e-05
1.43853e-05
1.43888e-05
1.43932e-05
1.43964e-05
1.44007e-05
1.44052e-05
1.44012e-05
1.03683e-05
1.03707e-05
1.03735e-05
1.03766e-05
1.03801e-05
1.0384e-05
1.03883e-05
1.03931e-05
1.03984e-05
1.04042e-05
1.04106e-05
1.04176e-05
1.04253e-05
1.04336e-05
1.08271e-05
1.08374e-05
1.08479e-05
1.08587e-05
1.08697e-05
1.08809e-05
1.08924e-05
1.09042e-05
1.09163e-05
1.09288e-05
1.09415e-05
1.09547e-05
1.09682e-05
1.09821e-05
1.09965e-05
1.10113e-05
1.10266e-05
1.10423e-05
1.10586e-05
1.10754e-05
1.10927e-05
1.11106e-05
1.1129e-05
1.11479e-05
1.11674e-05
1.11875e-05
1.12082e-05
1.12294e-05
1.12513e-05
1.12738e-05
1.12969e-05
1.13206e-05
1.13449e-05
1.13699e-05
1.13954e-05
1.14214e-05
1.14481e-05
1.14753e-05
1.1503e-05
1.15312e-05
1.156e-05
1.15892e-05
1.16188e-05
1.16489e-05
1.16794e-05
1.17103e-05
1.17416e-05
1.17732e-05
1.18051e-05
1.18373e-05
1.18698e-05
1.19025e-05
1.19355e-05
1.19689e-05
1.20027e-05
1.20369e-05
1.20715e-05
1.21065e-05
1.2142e-05
1.2178e-05
1.22144e-05
1.22514e-05
1.22889e-05
1.23269e-05
1.23654e-05
1.24044e-05
1.24441e-05
1.24843e-05
1.25251e-05
1.25665e-05
1.26086e-05
1.26514e-05
1.26948e-05
1.27388e-05
1.27835e-05
1.28288e-05
1.28746e-05
1.2921e-05
1.29676e-05
1.30139e-05
1.30597e-05
1.31049e-05
1.31493e-05
1.3193e-05
1.32358e-05
1.32777e-05
1.33188e-05
1.33589e-05
1.33981e-05
1.34365e-05
1.34742e-05
1.3511e-05
1.35471e-05
1.35825e-05
1.36174e-05
1.36515e-05
1.36851e-05
1.3718e-05
1.375e-05
1.37813e-05
1.38117e-05
1.3841e-05
1.38691e-05
1.3896e-05
1.39215e-05
1.39456e-05
1.39682e-05
1.39894e-05
1.40091e-05
1.40274e-05
1.40444e-05
1.40603e-05
1.40754e-05
1.40898e-05
1.41037e-05
1.41172e-05
1.41304e-05
1.41435e-05
1.41565e-05
1.41694e-05
1.41823e-05
1.41951e-05
1.42077e-05
1.42202e-05
1.42323e-05
1.42439e-05
1.4255e-05
1.42653e-05
1.42749e-05
1.42837e-05
1.42916e-05
1.42986e-05
1.43049e-05
1.43104e-05
1.43153e-05
1.43196e-05
1.43236e-05
1.43273e-05
1.43308e-05
1.43342e-05
1.43377e-05
1.43413e-05
1.4345e-05
1.43489e-05
1.4353e-05
1.43572e-05
1.43617e-05
1.43662e-05
1.43708e-05
1.43754e-05
1.438e-05
1.43845e-05
1.43889e-05
1.4393e-05
1.43968e-05
1.44003e-05
1.44034e-05
1.44061e-05
1.44083e-05
1.44103e-05
1.44118e-05
1.4413e-05
1.44139e-05
1.44146e-05
1.4415e-05
1.44154e-05
1.44157e-05
1.4416e-05
1.44162e-05
1.44166e-05
1.4417e-05
1.44176e-05
1.44183e-05
1.44192e-05
1.44202e-05
1.44214e-05
1.44227e-05
1.44242e-05
1.44259e-05
1.44276e-05
1.44294e-05
1.44312e-05
1.44332e-05
1.44349e-05
1.44368e-05
1.44383e-05
1.44401e-05
1.44412e-05
1.44428e-05
1.44438e-05
1.4445e-05
1.44462e-05
1.44454e-05
1.03927e-05
1.03986e-05
1.04052e-05
1.04126e-05
1.04209e-05
1.04301e-05
1.04404e-05
1.04516e-05
1.04641e-05
1.04777e-05
1.04926e-05
1.05088e-05
1.05265e-05
1.05456e-05
1.13881e-05
1.14091e-05
1.14304e-05
1.14521e-05
1.14742e-05
1.14966e-05
1.15194e-05
1.15427e-05
1.15665e-05
1.15909e-05
1.16157e-05
1.16412e-05
1.16674e-05
1.16941e-05
1.17216e-05
1.17498e-05
1.17788e-05
1.18085e-05
1.1839e-05
1.18704e-05
1.19025e-05
1.19355e-05
1.19693e-05
1.20039e-05
1.20392e-05
1.20753e-05
1.21122e-05
1.21499e-05
1.21884e-05
1.22276e-05
1.22673e-05
1.23078e-05
1.23488e-05
1.23904e-05
1.24325e-05
1.24752e-05
1.25183e-05
1.25618e-05
1.26056e-05
1.26496e-05
1.2694e-05
1.27385e-05
1.27832e-05
1.28281e-05
1.2873e-05
1.2918e-05
1.29631e-05
1.30082e-05
1.30534e-05
1.30981e-05
1.31421e-05
1.31854e-05
1.32279e-05
1.32696e-05
1.33105e-05
1.33504e-05
1.33895e-05
1.34276e-05
1.34648e-05
1.35011e-05
1.35365e-05
1.3571e-05
1.36046e-05
1.36374e-05
1.36694e-05
1.37007e-05
1.37312e-05
1.3761e-05
1.379e-05
1.38182e-05
1.38456e-05
1.3872e-05
1.38973e-05
1.39216e-05
1.39447e-05
1.39665e-05
1.3987e-05
1.40062e-05
1.40241e-05
1.4041e-05
1.40569e-05
1.40721e-05
1.40865e-05
1.41003e-05
1.41137e-05
1.41267e-05
1.41396e-05
1.41522e-05
1.41646e-05
1.41769e-05
1.4189e-05
1.42007e-05
1.42121e-05
1.4223e-05
1.42333e-05
1.42429e-05
1.42517e-05
1.42596e-05
1.42668e-05
1.42732e-05
1.42787e-05
1.42837e-05
1.42881e-05
1.42921e-05
1.42959e-05
1.42996e-05
1.43032e-05
1.43069e-05
1.43108e-05
1.4315e-05
1.43194e-05
1.43241e-05
1.43291e-05
1.43343e-05
1.43398e-05
1.43454e-05
1.43511e-05
1.43567e-05
1.43622e-05
1.43674e-05
1.43722e-05
1.43766e-05
1.43804e-05
1.43837e-05
1.43864e-05
1.43887e-05
1.43905e-05
1.43919e-05
1.4393e-05
1.4394e-05
1.43949e-05
1.43957e-05
1.43965e-05
1.43974e-05
1.43984e-05
1.43996e-05
1.4401e-05
1.44026e-05
1.44044e-05
1.44064e-05
1.44086e-05
1.4411e-05
1.44135e-05
1.4416e-05
1.44186e-05
1.44212e-05
1.44236e-05
1.4426e-05
1.44281e-05
1.443e-05
1.44317e-05
1.44332e-05
1.44344e-05
1.44353e-05
1.44361e-05
1.44366e-05
1.4437e-05
1.44372e-05
1.44372e-05
1.44372e-05
1.44371e-05
1.4437e-05
1.44368e-05
1.44367e-05
1.44366e-05
1.44366e-05
1.44367e-05
1.44369e-05
1.44372e-05
1.44376e-05
1.44381e-05
1.44388e-05
1.44396e-05
1.44404e-05
1.44414e-05
1.44424e-05
1.44436e-05
1.44447e-05
1.44459e-05
1.44471e-05
1.44483e-05
1.44495e-05
1.44508e-05
1.44518e-05
1.4453e-05
1.4454e-05
1.44551e-05
1.4456e-05
1.4457e-05
1.44578e-05
1.44587e-05
1.44596e-05
1.44596e-05
1.04502e-05
1.04639e-05
1.04792e-05
1.04963e-05
1.05153e-05
1.05364e-05
1.05596e-05
1.05852e-05
1.06132e-05
1.06439e-05
1.06771e-05
1.07131e-05
1.0752e-05
1.07937e-05
1.23235e-05
1.2357e-05
1.23906e-05
1.24245e-05
1.24588e-05
1.24934e-05
1.25284e-05
1.25637e-05
1.25994e-05
1.26353e-05
1.26716e-05
1.27082e-05
1.27452e-05
1.27826e-05
1.28204e-05
1.28588e-05
1.28976e-05
1.29368e-05
1.29766e-05
1.30167e-05
1.30572e-05
1.3098e-05
1.3139e-05
1.31799e-05
1.32205e-05
1.32607e-05
1.33004e-05
1.33395e-05
1.3378e-05
1.34161e-05
1.34538e-05
1.3491e-05
1.35275e-05
1.35632e-05
1.3598e-05
1.36319e-05
1.36649e-05
1.3697e-05
1.37281e-05
1.37583e-05
1.37875e-05
1.38156e-05
1.38428e-05
1.38689e-05
1.38939e-05
1.39178e-05
1.39406e-05
1.39623e-05
1.39826e-05
1.40019e-05
1.40202e-05
1.40375e-05
1.40539e-05
1.40694e-05
1.40842e-05
1.40983e-05
1.41117e-05
1.41247e-05
1.41371e-05
1.41491e-05
1.41608e-05
1.41721e-05
1.41832e-05
1.41938e-05
1.4204e-05
1.42137e-05
1.42228e-05
1.42314e-05
1.42392e-05
1.42465e-05
1.42531e-05
1.4259e-05
1.42644e-05
1.42694e-05
1.4274e-05
1.42783e-05
1.42825e-05
1.42865e-05
1.42907e-05
1.4295e-05
1.42992e-05
1.43038e-05
1.43086e-05
1.43135e-05
1.43185e-05
1.43236e-05
1.43286e-05
1.43333e-05
1.4338e-05
1.43423e-05
1.43461e-05
1.43495e-05
1.43525e-05
1.4355e-05
1.43572e-05
1.4359e-05
1.43606e-05
1.43621e-05
1.43634e-05
1.43647e-05
1.43661e-05
1.43676e-05
1.43693e-05
1.43712e-05
1.43735e-05
1.43759e-05
1.43787e-05
1.43817e-05
1.4385e-05
1.43883e-05
1.43917e-05
1.43952e-05
1.43985e-05
1.44017e-05
1.44046e-05
1.44073e-05
1.44097e-05
1.44117e-05
1.44135e-05
1.44149e-05
1.44161e-05
1.44168e-05
1.44174e-05
1.44178e-05
1.4418e-05
1.44182e-05
1.44183e-05
1.44185e-05
1.44188e-05
1.44191e-05
1.44195e-05
1.44201e-05
1.44208e-05
1.44217e-05
1.44228e-05
1.4424e-05
1.44254e-05
1.44269e-05
1.44284e-05
1.443e-05
1.44317e-05
1.44333e-05
1.44349e-05
1.44364e-05
1.44378e-05
1.44391e-05
1.44404e-05
1.44415e-05
1.44424e-05
1.44433e-05
1.4444e-05
1.44446e-05
1.44451e-05
1.44454e-05
1.44456e-05
1.44458e-05
1.44459e-05
1.4446e-05
1.4446e-05
1.4446e-05
1.44461e-05
1.44462e-05
1.44464e-05
1.44467e-05
1.4447e-05
1.44475e-05
1.44481e-05
1.44488e-05
1.44495e-05
1.44504e-05
1.44514e-05
1.44524e-05
1.44535e-05
1.44547e-05
1.44559e-05
1.44571e-05
1.44584e-05
1.44596e-05
1.44609e-05
1.44621e-05
1.44634e-05
1.44646e-05
1.44658e-05
1.44669e-05
1.44681e-05
1.44691e-05
1.44701e-05
1.44711e-05
1.44721e-05
1.4473e-05
1.44738e-05
1.4475e-05
1.44749e-05
1.05812e-05
1.06116e-05
1.06455e-05
1.06832e-05
1.07249e-05
1.07708e-05
1.0821e-05
1.08757e-05
1.09349e-05
1.09985e-05
1.10665e-05
1.11391e-05
1.12163e-05
1.34329e-05
1.34645e-05
1.34953e-05
1.35253e-05
1.35543e-05
1.35823e-05
1.36094e-05
1.36357e-05
1.36613e-05
1.36864e-05
1.37112e-05
1.37355e-05
1.37593e-05
1.37825e-05
1.3805e-05
1.38269e-05
1.38481e-05
1.38686e-05
1.38885e-05
1.39077e-05
1.39262e-05
1.39441e-05
1.39614e-05
1.39782e-05
1.39947e-05
1.40107e-05
1.40264e-05
1.4042e-05
1.40573e-05
1.40721e-05
1.40862e-05
1.40994e-05
1.41119e-05
1.4124e-05
1.41358e-05
1.41471e-05
1.41581e-05
1.41686e-05
1.41788e-05
1.41885e-05
1.41979e-05
1.42069e-05
1.42154e-05
1.42235e-05
1.4231e-05
1.42382e-05
1.42448e-05
1.42509e-05
1.42568e-05
1.42623e-05
1.42674e-05
1.42724e-05
1.42773e-05
1.4282e-05
1.42866e-05
1.42911e-05
1.42956e-05
1.43e-05
1.43044e-05
1.43087e-05
1.43128e-05
1.43167e-05
1.43203e-05
1.43237e-05
1.43267e-05
1.43295e-05
1.4332e-05
1.43343e-05
1.43365e-05
1.43385e-05
1.43405e-05
1.43424e-05
1.43444e-05
1.43465e-05
1.43487e-05
1.43512e-05
1.43538e-05
1.43565e-05
1.43596e-05
1.43626e-05
1.43657e-05
1.43689e-05
1.43719e-05
1.43747e-05
1.43775e-05
1.43799e-05
1.43818e-05
1.43838e-05
1.43854e-05
1.43866e-05
1.43877e-05
1.43886e-05
1.43892e-05
1.43899e-05
1.43905e-05
1.4391e-05
1.43917e-05
1.43925e-05
1.43934e-05
1.43946e-05
1.43959e-05
1.43974e-05
1.43991e-05
1.44011e-05
1.44031e-05
1.44052e-05
1.44075e-05
1.44097e-05
1.44118e-05
1.44139e-05
1.44162e-05
1.4418e-05
1.44196e-05
1.44214e-05
1.44229e-05
1.4424e-05
1.4425e-05
1.44258e-05
1.44264e-05
1.44268e-05
1.44272e-05
1.44274e-05
1.44277e-05
1.44279e-05
1.44282e-05
1.44285e-05
1.4429e-05
1.44295e-05
1.44301e-05
1.44309e-05
1.44318e-05
1.44328e-05
1.44339e-05
1.44352e-05
1.44365e-05
1.44379e-05
1.44393e-05
1.44408e-05
1.44423e-05
1.44438e-05
1.44452e-05
1.44465e-05
1.44478e-05
1.4449e-05
1.44501e-05
1.44511e-05
1.4452e-05
1.44528e-05
1.44535e-05
1.44541e-05