/*--------------------------------*- C++ -*----------------------------------*\
| =========                 |                                                 |
| \\      /  F ield         | OpenFOAM: The Open Source CFD Toolbox           |
|  \\    /   O peration     | Version:  v1706                                 |
|   \\  /    A nd           | Web:      www.OpenFOAM.com                      |
|    \\/     M anipulation  |                                                 |
\*---------------------------------------------------------------------------*/
FoamFile
{
    version     2.0;
    format      ascii;
    class       volScalarField;
    location    "1.9e-05";
    object      p;
}
// * * * * * * * * * * * * * * * * * * * * * * * * * * * * * * * * * * * * * //

dimensions      [1 -1 -2 0 0 0 0];


internalField   nonuniform List<scalar> 
30104
(
21.9139
21.9139
21.9139
21.9139
21.9139
21.9139
21.9139
21.9139
21.914
21.914
21.914
21.914
21.914
21.914
21.914
21.914
21.914
21.9142
21.9142
21.9142
21.9142
21.9142
21.9142
21.9143
21.9143
21.9143
21.9143
21.9143
21.9143
21.9143
21.9143
21.9143
21.9143
21.9143
21.9143
21.9143
21.9143
21.9143
21.9143
21.9143
21.9144
21.9144
21.9144
21.9144
21.9144
21.9144
21.9144
21.9144
21.9144
21.9144
21.9144
21.9144
21.9144
21.9145
21.9145
21.9145
21.9145
21.9145
21.9145
21.9145
21.9145
21.9145
21.9145
21.9145
21.9146
21.9146
21.9146
21.9146
21.9146
21.9146
21.9146
21.9146
21.9146
21.9146
21.9147
21.9147
21.9147
21.9147
21.9147
21.9147
21.9147
21.9147
21.9148
21.9148
21.9148
21.9148
21.9148
21.9148
21.9148
21.9148
21.9149
21.9149
21.9149
21.9149
21.9149
21.9149
21.9149
21.9149
21.915
21.915
21.915
21.915
21.915
21.915
21.9151
21.9151
21.9151
21.9151
21.9151
21.9151
21.9152
21.9152
21.9152
21.9152
21.9152
21.9152
21.9153
21.9153
21.9153
21.9153
21.9154
21.9154
21.9154
21.9154
21.9154
21.9155
21.9155
21.9155
21.9155
21.9156
21.9156
21.9156
21.9157
21.9157
21.9157
21.9157
21.9158
21.9158
21.9158
21.9159
21.9159
21.9159
21.916
21.916
21.916
21.9161
21.9161
21.9161
21.9162
21.9162
21.9162
21.9163
21.9163
21.9164
21.9164
21.9164
21.9165
21.9165
21.9166
21.9166
21.9166
21.9167
21.9167
21.9168
21.9168
21.9168
21.9169
21.9169
21.917
21.917
21.9171
21.9171
21.9172
21.9172
21.9173
21.9173
21.9174
21.9174
21.9175
21.9175
21.9176
21.9176
21.9177
21.9177
21.9178
21.9178
21.9179
21.9179
21.918
21.9181
21.9181
21.9182
21.9182
21.9183
21.9184
21.9184
21.9185
21.9186
21.9186
21.9187
21.9188
21.9189
21.9189
21.919
21.9191
21.9192
21.9193
21.9194
21.9194
21.9188
21.914
21.914
21.914
21.9141
21.9141
21.9141
21.9141
21.9142
21.9142
21.9142
21.9143
21.9143
21.9144
21.9144
21.9145
21.9145
21.9146
21.9161
21.9161
21.9161
21.9162
21.9162
21.9162
21.9163
21.9163
21.9163
21.9164
21.9164
21.9164
21.9165
21.9165
21.9166
21.9166
21.9166
21.9167
21.9167
21.9168
21.9168
21.9169
21.9169
21.917
21.9171
21.9171
21.9172
21.9172
21.9173
21.9174
21.9174
21.9175
21.9176
21.9176
21.9177
21.9177
21.9178
21.9179
21.9179
21.918
21.9181
21.9182
21.9182
21.9183
21.9184
21.9184
21.9185
21.9186
21.9186
21.9187
21.9188
21.9189
21.9189
21.919
21.9191
21.9192
21.9193
21.9194
21.9194
21.9195
21.9196
21.9197
21.9198
21.9199
21.92
21.9201
21.9202
21.9203
21.9204
21.9205
21.9206
21.9207
21.9208
21.9209
21.921
21.9211
21.9213
21.9214
21.9215
21.9216
21.9217
21.9219
21.922
21.9221
21.9223
21.9224
21.9226
21.9227
21.9229
21.923
21.9232
21.9233
21.9235
21.9236
21.9238
21.924
21.9241
21.9243
21.9245
21.9247
21.9248
21.925
21.9252
21.9254
21.9256
21.9258
21.926
21.9262
21.9264
21.9266
21.9268
21.927
21.9272
21.9274
21.9277
21.9279
21.9281
21.9284
21.9286
21.9289
21.9291
21.9294
21.9297
21.9299
21.9302
21.9305
21.9308
21.931
21.9313
21.9316
21.9319
21.9322
21.9325
21.9328
21.9332
21.9335
21.9338
21.9341
21.9345
21.9348
21.9352
21.9355
21.9359
21.9363
21.9367
21.937
21.9374
21.9378
21.9383
21.9387
21.9391
21.9395
21.94
21.9404
21.9409
21.9414
21.9419
21.9424
21.9429
21.9435
21.944
21.9446
21.9452
21.9457
21.9464
21.947
21.9476
21.9483
21.949
21.9496
21.9503
21.951
21.9518
21.9525
21.9532
21.954
21.9547
21.9555
21.9563
21.9571
21.9579
21.9587
21.9595
21.9603
21.9611
21.962
21.9628
21.9637
21.9646
21.9655
21.9665
21.9669
21.9641
21.9142
21.9143
21.9143
21.9144
21.9145
21.9146
21.9146
21.9147
21.9148
21.915
21.9151
21.9152
21.9154
21.9156
21.9157
21.9159
21.9214
21.9215
21.9216
21.9218
21.9219
21.922
21.9221
21.9223
21.9224
21.9225
21.9227
21.9228
21.923
21.9231
21.9233
21.9234
21.9236
21.9238
21.924
21.9242
21.9243
21.9245
21.9247
21.9249
21.9252
21.9254
21.9256
21.9258
21.9261
21.9263
21.9265
21.9268
21.927
21.9273
21.9275
21.9278
21.928
21.9283
21.9286
21.9288
21.9291
21.9294
21.9297
21.93
21.9302
21.9305
21.9308
21.9311
21.9314
21.9317
21.9321
21.9324
21.9327
21.933
21.9334
21.9337
21.9341
21.9344
21.9348
21.9352
21.9355
21.9359
21.9363
21.9367
21.9371
21.9375
21.9379
21.9384
21.9388
21.9392
21.9397
21.9401
21.9406
21.9411
21.9415
21.942
21.9425
21.943
21.9435
21.9441
21.9446
21.9451
21.9457
21.9463
21.9468
21.9474
21.948
21.9486
21.9493
21.9499
21.9505
21.9512
21.9519
21.9526
21.9533
21.954
21.9547
21.9554
21.9562
21.9569
21.9577
21.9585
21.9593
21.9602
21.961
21.9619
21.9628
21.9637
21.9646
21.9656
21.9666
21.9676
21.9686
21.9696
21.9707
21.9718
21.9729
21.974
21.9752
21.9764
21.9776
21.9788
21.9801
21.9814
21.9827
21.9841
21.9855
21.9869
21.9883
21.9898
21.9913
21.9928
21.9944
21.996
21.9976
21.9992
22.0009
22.0026
22.0043
22.006
22.0078
22.0096
22.0114
22.0132
22.0151
22.017
22.0189
22.0209
22.0229
22.025
22.0271
22.0293
22.0315
22.0337
22.0361
22.0384
22.0409
22.0433
22.0459
22.0485
22.0512
22.0539
22.0566
22.0595
22.0624
22.0653
22.0683
22.0714
22.0745
22.0777
22.0809
22.0842
22.0876
22.091
22.0945
22.0981
22.1017
22.1055
22.1092
22.1131
22.117
22.121
22.1251
22.1292
22.1334
22.1377
22.142
22.1465
22.151
22.1556
22.1603
22.1638
22.1538
21.9148
21.915
21.9151
21.9153
21.9155
21.9157
21.9159
21.9162
21.9165
21.9168
21.9172
21.9176
21.918
21.9185
21.919
21.9196
21.9361
21.9365
21.9368
21.9372
21.9376
21.938
21.9384
21.9388
21.9392
21.9397
21.9401
21.9406
21.9411
21.9416
21.9421
21.9426
21.9432
21.9437
21.9443
21.945
21.9456
21.9462
21.9469
21.9476
21.9483
21.9491
21.9498
21.9506
21.9514
21.9522
21.953
21.9539
21.9547
21.9556
21.9564
21.9573
21.9582
21.9591
21.9601
21.961
21.9619
21.9629
21.9638
21.9648
21.9658
21.9668
21.9678
21.9688
21.9699
21.9709
21.972
21.9731
21.9742
21.9754
21.9765
21.9777
21.9789
21.9802
21.9814
21.9827
21.984
21.9854
21.9867
21.9881
21.9896
21.991
21.9925
21.994
21.9955
21.9971
21.9987
22.0004
22.0021
22.0038
22.0056
22.0074
22.0092
22.0111
22.0131
22.0151
22.0171
22.0192
22.0213
22.0235
22.0258
22.028
22.0304
22.0328
22.0352
22.0377
22.0402
22.0428
22.0455
22.0482
22.051
22.0539
22.0568
22.0598
22.0628
22.0659
22.0691
22.0723
22.0755
22.0789
22.0823
22.0857
22.0892
22.0927
22.0963
22.1
22.1037
22.1076
22.1115
22.1154
22.1195
22.1237
22.1279
22.1323
22.1368
22.1414
22.1461
22.151
22.156
22.1611
22.1663
22.1716
22.1771
22.1827
22.1884
22.1942
22.2002
22.2062
22.2124
22.2187
22.2252
22.2317
22.2385
22.2453
22.2523
22.2594
22.2667
22.2741
22.2817
22.2894
22.2973
22.3054
22.3136
22.3221
22.3307
22.3395
22.3485
22.3577
22.3671
22.3768
22.3867
22.3968
22.4072
22.418
22.429
22.4404
22.4521
22.4642
22.4767
22.4896
22.5029
22.5167
22.531
22.5458
22.5611
22.5769
22.5932
22.61
22.6274
22.6452
22.6635
22.6823
22.7016
22.7212
22.7413
22.7617
22.7824
22.8035
22.8248
22.8464
22.8682
22.8902
22.9124
22.9348
22.9575
22.9804
23.0031
23.0271
22.9918
21.9164
21.9168
21.9172
21.9176
21.9181
21.9187
21.9193
21.92
21.9208
21.9216
21.9226
21.9236
21.9248
21.926
21.9274
21.9752
21.9763
21.9775
21.9786
21.9798
21.981
21.9823
21.9836
21.9849
21.9862
21.9876
21.989
21.9905
21.992
21.9936
21.9952
21.9969
21.9986
22.0003
22.0022
22.0041
22.006
22.008
22.0101
22.0123
22.0145
22.0167
22.0191
22.0215
22.0239
22.0264
22.029
22.0316
22.0343
22.037
22.0398
22.0426
22.0454
22.0484
22.0513
22.0543
22.0574
22.0605
22.0636
22.0668
22.0701
22.0734
22.0768
22.0803
22.0839
22.0875
22.0912
22.095
22.0988
22.1028
22.1068
22.111
22.1152
22.1195
22.1239
22.1284
22.1331
22.1378
22.1426
22.1476
22.1526
22.1578
22.1631
22.1685
22.174
22.1797
22.1854
22.1913
22.1972
22.2033
22.2095
22.2158
22.2223
22.2288
22.2355
22.2424
22.2494
22.2565
22.2639
22.2714
22.2791
22.2871
22.2952
22.3035
22.3121
22.3209
22.3299
22.3392
22.3486
22.3583
22.3682
22.3783
22.3887
22.3993
22.4101
22.4211
22.4324
22.4439
22.4557
22.4678
22.4802
22.4929
22.5059
22.5192
22.5329
22.5469
22.5613
22.576
22.5912
22.6067
22.6227
22.6391
22.6559
22.6732
22.6909
22.7091
22.7278
22.747
22.7668
22.7871
22.8079
22.8294
22.8516
22.8744
22.8979
22.9221
22.9471
22.9728
22.9993
23.0265
23.0544
23.0831
23.1124
23.1425
23.1731
23.2043
23.2361
23.2685
23.3013
23.3345
23.3683
23.4024
23.4371
23.4723
23.508
23.5444
23.5815
23.6194
23.6581
23.6977
23.7383
23.78
23.8227
23.8667
23.9119
23.9585
24.0064
24.0557
24.1065
24.1587
24.2126
24.2681
24.3252
24.384
24.4446
24.507
24.5714
24.6376
24.706
24.7763
24.8488
24.9235
25.0004
25.0796
25.161
25.2447
25.3307
25.4188
25.5092
25.6018
25.6962
25.7929
25.8911
25.9909
26.0937
26.193
26.3102
26.2396
21.9195
21.9203
21.9213
21.9223
21.9235
21.9248
21.9262
21.9278
21.9296
21.9316
21.9338
21.9362
21.9388
21.9417
21.9448
21.9482
22.0767
22.0797
22.0829
22.0861
22.0895
22.0929
22.0963
22.0999
22.1036
22.1074
22.1113
22.1153
22.1195
22.1239
22.1283
22.133
22.1378
22.1428
22.148
22.1534
22.159
22.1648
22.1708
22.177
22.1834
22.1901
22.1969
22.204
22.2113
22.2187
22.2264
22.2342
22.2423
22.2505
22.2589
22.2675
22.2762
22.2851
22.2941
22.3033
22.3127
22.3222
22.3318
22.3416
22.3516
22.3617
22.372
22.3824
22.3931
22.4039
22.415
22.4263
22.4378
22.4497
22.4618
22.4742
22.4869
22.4999
22.5133
22.5271
22.5412
22.5557
22.5705
22.5857
22.6013
22.6173
22.6337
22.6504
22.6676
22.6851
22.7031
22.7215
22.7403
22.7596
22.7795
22.7998
22.8206
22.8421
22.8641
22.8867
22.9099
22.9338
22.9583
22.9836
23.0096
23.0362
23.0636
23.0918
23.1207
23.1505
23.181
23.2124
23.2448
23.278
23.3123
23.3475
23.3838
23.4212
23.4597
23.4994
23.5402
23.5821
23.6251
23.6691
23.7143
23.7603
23.8073
23.8552
23.9039
23.9534
24.0037
24.0548
24.1067
24.1596
24.2135
24.2685
24.3247
24.3822
24.4413
24.5019
24.5642
24.6283
24.6945
24.7627
24.8331
24.9058
24.9809
25.0584
25.1384
25.221
25.3063
25.3942
25.4848
25.5781
25.6743
25.7734
25.8753
25.9802
26.0881
26.199
26.3131
26.4302
26.5506
26.674
26.8007
26.9305
27.0634
27.1992
27.338
27.4798
27.6247
27.7729
27.9244
28.0795
28.2382
28.4007
28.5673
28.7382
28.9136
29.0941
29.28
29.4719
29.6705
29.8765
30.0906
30.314
30.5474
30.7923
31.0495
31.3204
31.6063
31.9086
32.2285
32.5672
32.9264
33.3066
33.7099
34.1358
34.5874
35.0621
35.5646
36.0899
36.644
37.2203
37.8242
38.4513
39.0993
39.7791
40.4545
41.1742
41.8485
42.6044
43.1485
21.9281
21.9302
21.9325
21.9351
21.9381
21.9413
21.945
21.949
21.9535
21.9584
21.9639
21.9699
21.9766
22.3332
22.342
22.351
22.3603
22.3698
22.3795
22.3895
22.3998
22.4103
22.4212
22.4323
22.4438
22.4557
22.468
22.4806
22.4937
22.5072
22.5212
22.5357
22.5507
22.5662
22.5822
22.5988
22.616
22.6337
22.6521
22.671
22.6906
22.7108
22.7316
22.7531
22.7752
22.7979
22.8213
22.8452
22.8698
22.8949
22.9207
22.9469
22.9738
23.0012
23.0292
23.0577
23.0868
23.1165
23.1469
23.1779
23.2096
23.242
23.2752
23.3093
23.3442
23.3801
23.4169
23.4547
23.4936
23.5336
23.5747
23.6169
23.6603
23.7049
23.7508
23.7979
23.8463
23.8962
23.9474
24.0001
24.0543
24.1101
24.1674
24.2262
24.2867
24.3486
24.4121
24.4771
24.5434
24.6112
24.6802
24.7506
24.8224
24.8957
24.9705
25.0469
25.1251
25.2053
25.2875
25.372
25.4589
25.5484
25.6407
25.736
25.8344
25.936
26.0409
26.1493
26.2612
26.3767
26.4957
26.6184
26.7447
26.8747
27.0084
27.1459
27.2873
27.4325
27.5818
27.7353
27.8931
28.0553
28.2222
28.3938
28.5701
28.7513
28.9377
29.1295
29.3271
29.5306
29.7403
29.9564
30.179
30.4085
30.645
30.8889
31.1405
31.4003
31.6688
31.9468
32.2351
32.5347
32.8467
33.1724
33.513
33.8699
34.2446
34.6383
35.0525
35.4884
35.947
36.4293
36.9359
37.4673
38.0237
38.605
39.2107
39.8404
40.4933
41.1683
41.8619
42.5647
43.2748
43.9917
44.7156
45.446
46.1837
46.9284
47.6812
48.4424
49.2131
49.9937
50.7851
51.5875
52.4011
53.2259
54.0604
54.9045
55.7549
56.6114
57.468
58.3256
59.1752
60.0191
60.846
61.6601
62.4486
63.2177
63.9544
64.6661
65.3424
65.9884
66.6012
67.1776
67.7289
68.2365
68.7314
69.1759
69.62
70.0138
70.4102
70.7803
71.1372
71.5389
71.8479
72.1375
21.9494
21.9545
21.9602
21.9667
21.9739
21.982
21.9911
22.0011
22.0122
22.0243
22.0377
22.0523
22.0683
22.9707
22.9937
23.0173
23.0415
23.0662
23.0916
23.1176
23.1444
23.172
23.2005
23.2299
23.2603
23.2917
23.3243
23.3581
23.3931
23.4295
23.4673
23.5066
23.5475
23.59
23.6343
23.6803
23.7281
23.7779
23.8295
23.8832
23.9388
23.9964
24.0559
24.1174
24.1808
24.2461
24.3133
24.3825
24.4536
24.5265
24.6013
24.6779
24.7563
24.8365
24.9184
25.0022
25.0877
25.1749
25.2639
25.3545
25.4469
25.541
25.637
25.7349
25.8349
25.937
26.0415
26.1486
26.2584
26.3711
26.487
26.6062
26.729
26.8557
26.9863
27.1212
27.2604
27.4041
27.5524
27.7054
27.8631
28.0256
28.193
28.3653
28.5424
28.7246
28.9119
29.1043
29.3023
29.5059
29.7153
29.9308
30.1525
30.3809
30.6164
30.8595
31.1104
31.3698
31.6378
31.9148
32.201
32.4968
32.8024
33.118
33.4443
33.7817
34.1308
34.4925
34.8679
35.2582
35.6647
36.089
36.5326
36.997
37.484
37.9946
38.5301
39.0915
39.6792
40.2932
40.9332
41.5985
42.2875
42.9989
43.7266
44.4617
45.2018
45.9462
46.6935
47.4428
48.1937
48.9466
49.7017
50.4599
51.2225
51.9907
52.7659
53.5493
54.3419
55.1441
55.9557
56.776
57.6032
58.4351
59.2685
60.0997
60.9245
61.7381
62.5362
63.314
64.068
64.7941
65.4904
66.1548
66.7871
67.3868
67.9558
68.4953
69.0082
69.4967
69.9666
70.4276
70.8834
71.3356
71.7855
72.2339
72.6804
73.1251
73.5655
74.0011
74.4274
74.8437
75.2444
75.629
75.9917
76.3327
76.6475
76.9367
77.1989
77.434
77.6456
77.831
78
78.1459
78.2846
78.4045
78.5263
78.6345
78.7519
78.8603
78.9831
79.1004
79.2346
79.3659
79.5136
79.6615
79.8211
79.9865
80.1525
80.3347
80.4983
80.6964
80.8492
81.0581
81.203
81.4038
21.9899
22.001
22.0135
22.0276
22.0433
22.0609
22.0804
22.1021
22.1262
22.153
22.1826
22.2152
22.2511
22.2903
24.5034
24.5649
24.6281
24.693
24.7597
24.8284
24.8992
24.972
25.0468
25.1239
25.2033
25.2852
25.3698
25.4573
25.5479
25.6418
25.7391
25.8399
25.9443
26.0524
26.1644
26.2802
26.4
26.5239
26.6521
26.7848
26.922
27.0639
27.2107
27.3627
27.5203
27.6835
27.8522
28.0263
28.2061
28.3915
28.5827
28.7798
28.9827
29.1915
29.4061
29.6264
29.8525
30.0844
30.3222
30.5659
30.8157
31.0717
31.3342
31.6035
31.8799
32.1639
32.4563
32.7578
33.0688
33.3899
33.7217
34.0648
34.4195
34.7863
35.1656
35.5578
35.9633
36.3827
36.8163
37.2651
37.7301
38.2123
38.7128
39.2328
39.7736
40.3365
40.9228
41.5331
42.1683
42.8284
43.5125
44.2201
44.9484
45.6876
46.4343
47.1876
47.9451
48.7052
49.4676
50.231
50.9951
51.7607
52.5277
53.2977
54.073
54.8529
55.6385
56.4331
57.2348
58.0415
58.8542
59.6696
60.482
61.2892
62.0865
62.8661
63.6244
64.3573
65.0578
65.7235
66.3545
66.9486
67.5055
68.0286
68.5219
68.9923
69.4503
69.9006
70.3468
70.7926
71.2413
71.6943
72.1523
72.6153
73.0819
73.5494
74.0139
74.4707
74.9147
75.3407
75.7435
76.1192
76.4645
76.7777
77.058
77.3063
77.525
77.7171
77.8869
78.039
78.1783
78.309
78.4365
78.5636
78.6941
78.8297
78.9731
79.1239
79.2834
79.4501
79.624
79.8023
79.9843
80.1662
80.3468
80.522
80.691
80.8501
80.9985
81.1342
81.2568
81.366
81.4615
81.5453
81.6169
81.6803
81.734
81.784
81.8272
81.8708
81.9106
81.9538
81.9958
82.0433
82.0913
82.1462
82.2025
82.2663
82.3312
82.4032
82.4759
82.5537
82.6318
82.711
82.7911
82.8665
82.9446
83.0105
83.0822
83.1339
83.196
83.2319
83.283
83.3053
83.3426
83.362
83.376
22.0981
22.1245
22.1543
22.1879
22.2257
22.268
22.3153
22.3677
22.4255
22.4889
22.5585
22.6344
22.7175
22.8084
28.1165
28.2653
28.4175
28.5734
28.7329
28.8961
29.0635
29.2357
29.4133
29.597
29.7872
29.9843
30.1885
30.4001
30.6196
30.8474
31.0842
31.3304
31.5866
31.8536
32.1318
32.422
32.725
33.0412
33.3709
33.7147
34.0738
34.4489
34.8398
35.2456
35.6658
36.1008
36.552
37.0204
37.5058
38.008
38.5265
39.0613
39.6127
40.1806
40.7654
41.3673
41.9866
42.6236
43.279
43.9532
44.6461
45.3578
46.0878
46.8287
47.5761
48.3295
49.0876
49.8487
50.6121
51.3773
52.1432
52.9089
53.6746
54.44
55.205
55.9705
56.7365
57.5034
58.2731
59.0444
59.8146
60.5843
61.3511
62.1105
62.8602
63.5959
64.3113
65.0036
65.6683
66.3007
66.902
67.4717
68.0086
68.5245
69.0254
69.5095
69.9829
70.4521
70.9155
71.3766
71.8411
72.3045
72.7655
73.2259
73.6788
74.1197
74.5475
74.9526
75.3299
75.6816
76
76.2824
76.5367
76.762
76.9565
77.1321
77.2942
77.4428
77.587
77.7343
77.8848
78.042
78.2123
78.3954
78.5885
78.7936
79.0106
79.2345
79.4617
79.6895
79.9131
80.1279
80.3301
80.5162
80.683
80.8285
80.952
81.0537
81.1358
81.2009
81.2531
81.2961
81.3335
81.3682
81.4034
81.4409
81.4829
81.5304
81.585
81.6467
81.7166
81.7938
81.8785
81.9689
82.065
82.1638
82.2644
82.3639
82.4614
82.5534
82.6393
82.7171
82.7864
82.8463
82.8966
82.9388
82.9719
82.9987
83.0177
83.0329
83.042
83.0494
83.0525
83.0559
83.0569
83.0596
83.0615
83.0662
83.0713
83.0799
83.0896
83.1029
83.1176
83.1355
83.1547
83.1763
83.1988
83.2227
83.2471
83.2716
83.2968
83.3205
83.3456
83.3677
83.3924
83.4123
83.4363
83.4536
83.4764
83.491
83.5121
83.524
83.5426
83.5526
83.5672
83.5791
83.5838
22.3541
22.4168
22.4874
22.5664
22.6544
22.7523
22.8611
22.982
23.1162
23.2647
23.4283
23.6079
23.8037
24.0158
36.0335
36.395
36.7666
37.1495
37.5454
37.9555
38.3803
38.8191
39.2709
39.735
40.2118
40.7022
41.2082
41.7315
42.2738
42.8362
43.4196
44.0243
44.6507
45.2989
45.969
46.66
47.3688
48.0897
48.8215
49.5639
50.3135
51.0667
51.8248
52.5939
53.3784
54.1756
54.9778
55.7796
56.5796
57.3788
58.1772
58.9728
59.7634
60.5476
61.3235
62.0884
62.8409
63.579
64.2984
64.9952
65.6692
66.3169
66.9341
67.5279
68.1028
68.6568
69.1908
69.7092
70.2134
70.7035
71.1817
71.6503
72.1091
72.5587
73.0005
73.4323
73.8518
74.2574
74.6432
75.0055
75.3464
75.661
75.9459
76.2069
76.4438
76.6553
76.8505
77.0331
77.2051
77.3756
77.5459
77.7163
77.8962
78.0861
78.2772
78.4779
78.6904
78.8996
79.105
79.3131
79.5081
79.687
79.8563
80.0071
80.1349
80.2481
80.3439
80.4225
80.4926
80.5544
80.6119
80.6705
80.7293
80.7915
80.8632
80.9425
81.0273
81.1242
81.234
81.3481
81.4661
81.5953
81.7248
81.8459
81.9643
82.0788
82.1777
82.2626
82.3372
82.398
82.4438
82.478
82.5027
82.5197
82.5293
82.5321
82.5318
82.5307
82.5304
82.5324
82.5379
82.5473
82.5614
82.5801
82.6039
82.6326
82.6661
82.7037
82.7448
82.7881
82.833
82.8783
82.9228
82.9655
83.0062
83.0438
83.0781
83.1095
83.137
83.1618
83.1831
83.2022
83.2176
83.2311
83.2414
83.2502
83.2552
83.2592
83.2605
83.2609
83.2597
83.2588
83.2573
83.257
83.2569
83.2589
83.2617
83.2668
83.2733
83.2822
83.2925
83.305
83.319
83.3347
83.3517
83.3697
83.3891
83.4085
83.4293
83.4491
83.4707
83.4898
83.5112
83.5289
83.5494
83.5653
83.5843
83.5981
83.6151
83.627
83.6421
83.6526
83.6656
83.6754
83.6848
83.6963
83.6929
22.9474
23.09
23.2511
23.4327
23.6366
23.8641
24.1164
24.3938
24.697
25.027
25.3857
25.7757
26.2003
52.4331
53.0961
53.7577
54.4161
55.0666
55.7054
56.3325
56.953
57.5735
58.1999
58.8342
59.4748
60.1182
60.7602
61.398
62.0299
62.6546
63.2717
63.881
64.4815
65.0718
65.6518
66.2254
66.7987
67.3701
67.9371
68.5042
69.0793
69.6588
70.2255
70.761
71.2615
71.7387
72.2052
72.6622
73.1037
73.5252
73.927
74.3109
74.6764
75.022
75.3483
75.6551
75.9398
76.2043
76.454
76.6871
76.904
77.1142
77.3199
77.516
77.7083
77.9028
78.0935
78.2775
78.4609
78.6431
78.8185
78.9876
79.1519
79.3064
79.4461
79.5738
79.6902
79.7946
79.8906
79.9793
80.0634
80.1475
80.2299
80.3124
80.4018
80.4966
80.5936
80.7006
80.8157
80.9308
81.0503
81.1754
81.2905
81.4023
81.5136
81.6045
81.6779
81.7563
81.8121
81.846
81.8864
81.9167
81.9296
81.9478
81.9638
81.9738
81.9899
82.0097
82.0303
82.0573
82.0907
82.1271
82.1692
82.2186
82.2686
82.3203
82.3777
82.4305
82.4775
82.5307
82.5776
82.6091
82.6445
82.6869
82.7098
82.7288
82.756
82.7771
82.7879
82.7972
82.8065
82.8116
82.8139
82.8166
82.8203
82.8254
82.8325
82.842
82.8541
82.8688
82.886
82.9059
82.9281
82.9525
82.9788
83.0066
83.0356
83.0652
83.0948
83.1244
83.1535
83.1809
83.2077
83.2325
83.2547
83.275
83.294
83.3088
83.3226
83.334
83.3432
83.3495
83.3543
83.3576
83.3592
83.3592
83.3589
83.3578
83.3566
83.3556
83.3555
83.3562
83.3583
83.3618
83.3672
83.3742
83.3829
83.3936
83.4058
83.42
83.4352
83.4524
83.47
83.4896
83.5089
83.5301
83.5501
83.572
83.5917
83.6133
83.6318
83.6525
83.6691
83.6882
83.7031
83.7197
83.7327
83.7463
83.7575
83.7682
83.7777
83.7856
83.7938
83.7993
83.811
83.7959
24.3037
24.624
24.9823
25.3805
25.8216
26.3102
26.8526
27.455
28.1215
28.8536
29.6515
30.5157
31.4454
70.095
70.5302
70.96
71.3938
71.836
72.281
72.7166
73.13
73.5129
73.8637
74.1872
74.4907
74.7799
75.058
75.3261
75.5843
75.8322
76.0691
76.2963
76.5157
76.7261
76.9226
77.1034
77.2737
77.4355
77.5746
77.68
77.7715
77.8769
78.0106
78.1638
78.3149
78.4566
78.5982
78.7453
78.8926
79.0347
79.1702
79.3005
79.4265
79.5476
79.6661
79.7848
79.9021
80.0177
80.1375
80.2589
80.3746
80.4923
80.6146
80.7274
80.8311
80.9374
81.0376
81.1224
81.2001
81.2731
81.334
81.38
81.4216
81.4619
81.4961
81.5285
81.5629
81.5968
81.6325
81.672
81.7119
81.7545
81.8025
81.8496
81.8978
81.95
81.994
82.0355
82.0855
82.1176
82.1423
82.181
82.2098
82.2206
82.2414
82.2664
82.2725
82.2791
82.295
82.3011
82.3064
82.3193
82.3312
82.3448
82.3642
82.3856
82.409
82.4379
82.4693
82.5014
82.5386
82.5773
82.6129
82.6532
82.6959
82.7282
82.7607
82.8038
82.831
82.8495
82.8791
82.9075
82.9171
82.9294
82.949
82.9583
82.9612
82.9683
82.9753
82.9787
82.9826
82.9888
82.9961
83.0048
83.0155
83.0283
83.0431
83.0599
83.0784
83.0987
83.1204
83.1431
83.1669
83.1911
83.2156
83.2398
83.2635
83.2871
83.3095
83.3293
83.3498
83.3672
83.382
83.3963
83.4095
83.4185
83.4267
83.4334
83.438
83.4408
83.4428
83.4444
83.4449
83.445
83.4456
83.4466
83.4481
83.4509
83.4549
83.4606
83.4677
83.4769
83.4875
83.5003
83.5139
83.5301
83.5466
83.5654
83.584
83.6048
83.6245
83.6463
83.6663
83.688
83.7076
83.7282
83.7467
83.7656
83.7825
83.7993
83.8142
83.8282
83.841
83.8525
83.8629
83.872
83.8806
83.888
83.8955
83.9022
83.9096
83.9161
83.9322
83.8993
27.9429
28.7084
29.568
30.5259
31.5839
32.7385
33.9844
35.3201
36.7502
38.2835
39.9278
41.7003
78.1243
78.2803
78.429
78.5607
78.6621
78.7309
78.7845
78.8424
78.9161
79.0072
79.1094
79.2141
79.3151
79.4101
79.4992
79.5831
79.6623
79.7377
79.8098
79.8783
79.9425
80.0034
80.0639
80.1262
80.19
80.256
80.3309
80.4252
80.5412
80.6547
80.733
80.7856
80.8383
80.8994
80.9526
80.9911
81.0261
81.0617
81.0992
81.1379
81.1785
81.223
81.2706
81.319
81.3711
81.4273
81.4793
81.5306
81.5883
81.6369
81.6758
81.7239
81.7666
81.7892
81.8163
81.8482
81.8659
81.8775
81.8935
81.9132
81.9287
81.9425
81.9615
81.9834
82.0045
82.0293
82.0585
82.0881
82.122
82.1589
82.1908
82.2261
82.2649
82.2918
82.3197
82.3575
82.3754
82.3903
82.4183
82.436
82.44
82.4549
82.4709
82.4744
82.4839
82.4984
82.5081
82.5215
82.5398
82.5574
82.5781
82.6036
82.629
82.6568
82.6892
82.7201
82.7516
82.7888
82.8207
82.8492
82.8866
82.9172
82.9365
82.9632
82.9949
83.0068
83.0193
83.0431
83.0557
83.0585
83.0698
83.0815
83.0831
83.0855
83.0945
83.0998
83.1035
83.1111
83.1206
83.1305
83.142
83.1556
83.1709
83.1878
83.206
83.2256
83.2465
83.268
83.2902
83.3129
83.3355
83.3583
83.3801
83.401
83.4217
83.4398
83.4553
83.4719
83.4848
83.4954
83.5053
83.5134
83.5189
83.5232
83.5269
83.5296
83.5315
83.5334
83.5355
83.5378
83.5407
83.5447
83.55
83.5565
83.5647
83.5743
83.5859
83.5987
83.6135
83.6292
83.6466
83.6646
83.6841
83.7036
83.7242
83.7445
83.7653
83.7855
83.8056
83.825
83.8439
83.8617
83.8788
83.8947
83.9096
83.9234
83.9359
83.9474
83.9576
83.9672
83.9758
83.9841
83.9918
83.9996
84.0075
84.0158
84.0249
84.0345
84.044
84.0688
84.0038
34.9845
36.4746
38.1118
39.905
41.8773
44.0984
46.6078
49.3909
52.4052
55.5926
80.847
80.9004
80.9482
80.9939
81.042
81.0986
81.1719
81.2638
81.3586
81.4323
81.4759
81.4982
81.5087
81.5143
81.5184
81.5218
81.5246
81.5258
81.5249
81.5221
81.5187
81.5157
81.5141
81.5139
81.5148
81.5173
81.5201
81.5177
81.4937
81.4499
81.4247
81.4211
81.4174
81.4022
81.3937
81.404
81.4215
81.4409
81.4654
81.4944
81.5276
81.5668
81.6086
81.6506
81.6992
81.7502
81.793
81.8392
81.8917
81.9262
81.9562
81.9996
82.0265
82.0398
82.0623
82.0867
82.1021
82.1189
82.1402
82.161
82.1785
82.1974
82.2219
82.2457
82.2689
82.2993
82.33
82.3571
82.3909
82.4208
82.4432
82.4753
82.5037
82.5185
82.5417
82.5684
82.5769
82.5892
82.6111
82.6189
82.6243
82.6417
82.6517
82.6584
82.6742
82.6892
82.7023
82.7215
82.7425
82.7623
82.7867
82.8133
82.8377
82.8662
82.8965
82.9214
82.9498
82.9823
83.0039
83.0259
83.058
83.0763
83.0894
83.1127
83.1321
83.1382
83.1497
83.1663
83.172
83.1734
83.1852
83.1934
83.192
83.1979
83.2094
83.2154
83.2216
83.2342
83.2475
83.2606
83.2758
83.2929
83.3114
83.3311
83.3515
83.373
83.3953
83.4173
83.4394
83.4613
83.4819
83.502
83.5198
83.5365
83.5522
83.5654
83.5768
83.5873
83.596
83.6028
83.6084
83.6133
83.6173
83.6208
83.6241
83.6276
83.6312
83.6354
83.6404
83.6466
83.6539
83.6628
83.673
83.6849
83.6981
83.7128
83.7288
83.7459
83.764
83.7828
83.8023
83.8221
83.8422
83.8622
83.882
83.9015
83.9205
83.9387
83.9562
83.9729
83.9885
84.0032
84.0168
84.0293
84.0409
84.0516
84.0613
84.0706
84.0793
84.0878
84.0963
84.1049
84.114
84.1236
84.1344
84.1456
84.1587
84.1713
84.1829
84.2165
84.0917
51.7437
55.0513
58.6235
62.3724
66.1563
69.8569
73.399
76.7266
79.7989
82.1664
82.1784
82.1924
82.1992
82.1963
82.1864
82.1535
82.1002
82.0557
82.0308
82.0167
82.0063
81.9967
81.9869
81.9768
81.9667
81.9564
81.9455
81.934
81.9222
81.9106
81.8996
81.8896
81.8806
81.8722
81.8636
81.8552
81.8549
81.8583
81.8599
81.857
81.8519
81.8537
81.858
81.8596
81.8614
81.8722
81.8909
81.9109
81.9345
81.9628
81.9904
82.0208
82.059
82.0901
82.1169
82.1555
82.1876
82.2056
82.2327
82.2647
82.2786
82.2947
82.3213
82.3375
82.3519
82.3712
82.3893
82.4068
82.4248
82.4469
82.4719
82.4929
82.5182
82.5509
82.5717
82.5928
82.6242
82.6435
82.6609
82.69
82.706
82.7164
82.7383
82.7528
82.7573
82.7721
82.7861
82.7896
82.8009
82.8167
82.8239
82.836
82.8547
82.8683
82.8841
82.9067
82.9263
82.9457
82.9718
82.9954
83.0166
83.0449
83.0707
83.0901
83.1166
83.1438
83.1583
83.1777
83.2038
83.2161
83.2265
83.246
83.2586
83.2618
83.2734
83.2853
83.2876
83.2915
83.3029
83.3106
83.3113
83.323
83.3365
83.3453
83.3564
83.3737
83.39
83.4063
83.425
83.4447
83.4651
83.486
83.5068
83.528
83.5488
83.5686
83.5877
83.6055
83.6219
83.637
83.6505
83.6625
83.6732
83.6824
83.6902
83.6968
83.7027
83.7078
83.7123
83.7168
83.7213
83.726
83.7311
83.737
83.7438
83.7517
83.7608
83.7713
83.7832
83.7964
83.8109
83.8266
83.8434
83.8611
83.8795
83.8984
83.9177
83.9371
83.9566
83.9758
83.9948
84.0132
84.031
84.0481
84.0644
84.0798
84.0943
84.1078
84.1205
84.1322
84.1432
84.1535
84.1633
84.1726
84.1818
84.1909
84.2002
84.2097
84.22
84.2308
84.243
84.2557
84.2705
84.2848
84.3016
84.3146
84.3236
84.3582
84.1303
77.8085
81.1265
82.7258
82.7202
82.7079
82.6914
82.6782
82.6698
82.6667
82.667
82.6618
82.6497
82.6343
82.6183
82.6018
82.5844
82.5664
82.548
82.5292
82.5097
82.4898
82.4699
82.4505
82.4321
82.4142
82.3962
82.3775
82.3578
82.3351
82.3065
82.2733
82.2442
82.2256
82.212
82.1975
82.1867
82.1857
82.1915
82.2008
82.2067
82.2147
82.2329
82.2565
82.2768
82.3027
82.3324
82.3524
82.3769
82.4117
82.4317
82.4496
82.4799
82.5019
82.5166
82.5425
82.5657
82.5798
82.6005
82.622
82.6401
82.6602
82.6804
82.7052
82.7264
82.7437
82.77
82.7927
82.8054
82.826
82.8499
82.8604
82.8757
82.8951
82.903
82.9127
82.9278
82.9342
82.9393
82.953
82.9604
82.9645
82.9797
82.9908
82.9981
83.0153
83.0328
83.0453
83.0639
83.0881
83.1049
83.1245
83.1521
83.1725
83.192
83.2202
83.241
83.2574
83.2815
83.3018
83.3144
83.3311
83.3472
83.3573
83.3662
83.3777
83.3868
83.3914
83.399
83.4081
83.413
83.4195
83.4302
83.4403
83.4488
83.4618
83.4774
83.4915
83.5068
83.525
83.5437
83.5623
83.5817
83.6015
83.6213
83.6408
83.6597
83.6779
83.6951
83.7111
83.7257
83.7392
83.7513
83.7622
83.7718
83.7802
83.7875
83.7941
83.8
83.8054
83.8106
83.8159
83.8213
83.8271
83.8335
83.8406
83.8488
83.858
83.8684
83.8801
83.8929
83.907
83.9222
83.9384
83.9555
83.9733
83.9916
84.0103
84.0291
84.048
84.0667
84.0851
84.103
84.1204
84.1371
84.1531
84.1682
84.1826
84.1961
84.2088
84.2208
84.232
84.2427
84.253
84.2628
84.2725
84.2822
84.292
84.3021
84.3126
84.3239
84.3357
84.3488
84.3627
84.3784
84.3944
84.4127
84.4284
84.4455
84.4517
84.4476
84.4634
84.0761
83.3464
83.3313
83.3188
83.3087
83.2968
83.2813
83.2624
83.2384
83.2069
83.1711
83.1374
83.1084
83.0829
83.0591
83.0356
83.0121
82.9885
82.9646
82.9407
82.9166
82.8918
82.866
82.8391
82.8118
82.7847
82.7573
82.73
82.705
82.6836
82.6646
82.6458
82.6278
82.614
82.6034
82.5932
82.5923
82.595
82.598
82.6064
82.6225
82.6304
82.6378
82.6563
82.6719
82.6834
82.7058
82.7258
82.7366
82.757
82.7811
82.7945
82.8141
82.8391
82.852
82.868
82.8912
82.9065
82.9243
82.9418
82.9586
82.9803
82.9934
83.0064
83.0271
83.0404
83.0492
83.0653
83.0782
83.0834
83.0952
83.105
83.1072
83.1155
83.1244
83.1263
83.1334
83.1446
83.1497
83.1572
83.1719
83.1833
83.1927
83.2123
83.2291
83.2424
83.263
83.2854
83.3019
83.3221
83.3459
83.3643
83.3823
83.4026
83.42
83.4346
83.4499
83.4638
83.4749
83.4847
83.4943
83.5028
83.5097
83.5167
83.524
83.5305
83.5373
83.5458
83.5547
83.5642
83.5757
83.5885
83.6019
83.6165
83.6327
83.6494
83.6666
83.6845
83.7027
83.721
83.7389
83.7566
83.7736
83.7898
83.8051
83.8193
83.8324
83.8443
83.8551
83.8648
83.8734
83.8811
83.8881
83.8944
83.9003
83.9059
83.9115
83.9173
83.9234
83.93
83.9373
83.9454
83.9544
83.9645
83.9758
83.9881
84.0015
84.016
84.0315
84.0478
84.0648
84.0823
84.1002
84.1184
84.1366
84.1546
84.1725
84.1899
84.2069
84.2232
84.2389
84.2539
84.268
84.2815
84.2942
84.3063
84.3177
84.3287
84.3392
84.3495
84.3596
84.3697
84.3798
84.3903
84.4011
84.4124
84.4243
84.4369
84.4506
84.4651
84.4811
84.4979
84.5167
84.5347
84.554
84.566
84.5752
84.5615
84.5272
84.4919
83.8855
83.9837
83.9677
83.9514
83.9319
83.9072
83.8782
83.8483
83.8195
83.7918
83.7645
83.7367