/*--------------------------------*- C++ -*----------------------------------*\
| =========                 |                                                 |
| \\      /  F ield         | OpenFOAM: The Open Source CFD Toolbox           |
|  \\    /   O peration     | Version:  v1706                                 |
|   \\  /    A nd           | Web:      www.OpenFOAM.com                      |
|    \\/     M anipulation  |                                                 |
\*---------------------------------------------------------------------------*/
FoamFile
{
    version     2.0;
    format      ascii;
    class       volScalarField;
    location    "1.9e-05";
    object      rho;
}
// * * * * * * * * * * * * * * * * * * * * * * * * * * * * * * * * * * * * * //

dimensions      [1 -3 0 0 0 0 0];


internalField   nonuniform List<scalar> 
30104
(
0.00051131
0.00051131
0.00051131
0.00051131
0.00051131
0.00051131
0.00051131
0.00051131
0.00051131
0.00051131
0.00051131
0.00051131
0.00051131
0.00051131
0.00051131
0.00051131
0.00051131
0.000511312
0.000511312
0.000511313
0.000511313
0.000511313
0.000511313
0.000511313
0.000511313
0.000511313
0.000511313
0.000511313
0.000511313
0.000511313
0.000511313
0.000511313
0.000511313
0.000511313
0.000511313
0.000511313
0.000511313
0.000511313
0.000511313
0.000511314
0.000511314
0.000511314
0.000511314
0.000511314
0.000511314
0.000511314
0.000511314
0.000511314
0.000511314
0.000511314
0.000511314
0.000511314
0.000511315
0.000511315
0.000511315
0.000511315
0.000511315
0.000511315
0.000511315
0.000511315
0.000511315
0.000511315
0.000511315
0.000511316
0.000511316
0.000511316
0.000511316
0.000511316
0.000511316
0.000511316
0.000511316
0.000511316
0.000511316
0.000511317
0.000511317
0.000511317
0.000511317
0.000511317
0.000511317
0.000511317
0.000511317
0.000511318
0.000511318
0.000511318
0.000511318
0.000511318
0.000511318
0.000511318
0.000511318
0.000511318
0.000511319
0.000511319
0.000511319
0.000511319
0.000511319
0.000511319
0.000511319
0.000511319
0.00051132
0.00051132
0.00051132
0.00051132
0.00051132
0.00051132
0.00051132
0.000511321
0.000511321
0.000511321
0.000511321
0.000511321
0.000511321
0.000511322
0.000511322
0.000511322
0.000511322
0.000511322
0.000511322
0.000511323
0.000511323
0.000511323
0.000511323
0.000511324
0.000511324
0.000511324
0.000511324
0.000511325
0.000511325
0.000511325
0.000511325
0.000511326
0.000511326
0.000511326
0.000511326
0.000511327
0.000511327
0.000511327
0.000511328
0.000511328
0.000511328
0.000511329
0.000511329
0.000511329
0.00051133
0.00051133
0.00051133
0.000511331
0.000511331
0.000511332
0.000511332
0.000511332
0.000511333
0.000511333
0.000511334
0.000511334
0.000511334
0.000511335
0.000511335
0.000511336
0.000511336
0.000511336
0.000511337
0.000511337
0.000511338
0.000511338
0.000511338
0.000511339
0.000511339
0.00051134
0.00051134
0.000511341
0.000511341
0.000511342
0.000511342
0.000511343
0.000511343
0.000511343
0.000511344
0.000511344
0.000511345
0.000511345
0.000511346
0.000511346
0.000511346
0.000511347
0.000511347
0.000511348
0.000511348
0.000511349
0.000511349
0.00051135
0.00051135
0.000511351
0.000511351
0.000511352
0.000511353
0.000511353
0.000511354
0.000511355
0.000511355
0.000511356
0.000511357
0.000511357
0.000511358
0.000511359
0.00051136
0.000511361
0.000511362
0.000511363
0.000511363
0.000511361
0.00051131
0.00051131
0.000511311
0.000511311
0.000511311
0.000511311
0.000511311
0.000511312
0.000511312
0.000511312
0.000511313
0.000511313
0.000511313
0.000511314
0.000511314
0.000511315
0.000511316
0.00051133
0.000511331
0.000511331
0.000511331
0.000511332
0.000511332
0.000511332
0.000511333
0.000511333
0.000511333
0.000511334
0.000511334
0.000511334
0.000511335
0.000511335
0.000511336
0.000511336
0.000511337
0.000511337
0.000511338
0.000511338
0.000511339
0.000511339
0.00051134
0.00051134
0.000511341
0.000511341
0.000511342
0.000511343
0.000511343
0.000511344
0.000511345
0.000511345
0.000511346
0.000511347
0.000511347
0.000511348
0.000511349
0.000511349
0.00051135
0.000511351
0.000511351
0.000511352
0.000511353
0.000511353
0.000511354
0.000511355
0.000511355
0.000511356
0.000511357
0.000511358
0.000511358
0.000511359
0.00051136
0.000511361
0.000511362
0.000511362
0.000511363
0.000511364
0.000511365
0.000511366
0.000511367
0.000511368
0.000511368
0.000511369
0.00051137
0.000511371
0.000511372
0.000511373
0.000511374
0.000511375
0.000511376
0.000511378
0.000511379
0.00051138
0.000511381
0.000511382
0.000511384
0.000511385
0.000511386
0.000511387
0.000511389
0.00051139
0.000511392
0.000511393
0.000511394
0.000511396
0.000511397
0.000511399
0.0005114
0.000511402
0.000511404
0.000511405
0.000511407
0.000511409
0.00051141
0.000511412
0.000511414
0.000511416
0.000511418
0.00051142
0.000511421
0.000511423
0.000511425
0.000511427
0.000511429
0.000511431
0.000511433
0.000511435
0.000511437
0.00051144
0.000511442
0.000511444
0.000511446
0.000511449
0.000511451
0.000511453
0.000511456
0.000511458
0.000511461
0.000511464
0.000511466
0.000511469
0.000511472
0.000511474
0.000511477
0.00051148
0.000511483
0.000511486
0.000511488
0.000511491
0.000511494
0.000511497
0.000511501
0.000511504
0.000511507
0.00051151
0.000511514
0.000511517
0.000511521
0.000511524
0.000511528
0.000511532
0.000511536
0.00051154
0.000511544
0.000511548
0.000511552
0.000511556
0.000511561
0.000511565
0.00051157
0.000511575
0.000511579
0.000511584
0.000511589
0.000511594
0.0005116
0.000511605
0.000511611
0.000511617
0.000511623
0.000511629
0.000511635
0.000511642
0.000511648
0.000511655
0.000511662
0.00051167
0.000511677
0.000511685
0.000511692
0.0005117
0.000511708
0.000511716
0.000511724
0.000511733
0.000511741
0.000511749
0.000511758
0.000511767
0.000511775
0.000511784
0.000511793
0.000511802
0.000511812
0.000511821
0.000511831
0.00051184
0.00051185
0.00051186
0.000511871
0.000511862
0.000511312
0.000511313
0.000511313
0.000511314
0.000511314
0.000511315
0.000511316
0.000511316
0.000511317
0.000511318
0.000511319
0.000511321
0.000511322
0.000511324
0.000511325
0.000511327
0.000511384
0.000511385
0.000511386
0.000511387
0.000511389
0.00051139
0.000511391
0.000511393
0.000511394
0.000511395
0.000511397
0.000511398
0.0005114
0.000511401
0.000511403
0.000511405
0.000511406
0.000511408
0.00051141
0.000511412
0.000511414
0.000511416
0.000511418
0.00051142
0.000511422
0.000511424
0.000511426
0.000511429
0.000511431
0.000511433
0.000511436
0.000511438
0.000511441
0.000511443
0.000511446
0.000511448
0.000511451
0.000511454
0.000511456
0.000511459
0.000511462
0.000511465
0.000511467
0.00051147
0.000511473
0.000511476
0.000511479
0.000511482
0.000511486
0.000511489
0.000511492
0.000511495
0.000511499
0.000511502
0.000511506
0.000511509
0.000511513
0.000511516
0.00051152
0.000511524
0.000511528
0.000511532
0.000511536
0.00051154
0.000511544
0.000511549
0.000511553
0.000511557
0.000511562
0.000511566
0.000511571
0.000511576
0.00051158
0.000511585
0.00051159
0.000511595
0.0005116
0.000511605
0.00051161
0.000511616
0.000511621
0.000511627
0.000511632
0.000511638
0.000511644
0.00051165
0.000511656
0.000511662
0.000511668
0.000511675
0.000511682
0.000511688
0.000511695
0.000511702
0.000511709
0.000511716
0.000511723
0.000511731
0.000511738
0.000511746
0.000511754
0.000511762
0.000511771
0.000511779
0.000511788
0.000511797
0.000511807
0.000511816
0.000511826
0.000511836
0.000511847
0.000511857
0.000511868
0.000511879
0.000511891
0.000511902
0.000511914
0.000511926
0.000511939
0.000511951
0.000511964
0.000511977
0.000511991
0.000512004
0.000512018
0.000512032
0.000512047
0.000512062
0.000512077
0.000512093
0.000512109
0.000512125
0.000512142
0.000512159
0.000512176
0.000512193
0.000512211
0.000512229
0.000512247
0.000512266
0.000512285
0.000512303
0.000512323
0.000512342
0.000512362
0.000512382
0.000512403
0.000512424
0.000512445
0.000512467
0.000512489
0.000512512
0.000512536
0.00051256
0.000512585
0.00051261
0.000512636
0.000512662
0.000512689
0.000512716
0.000512744
0.000512772
0.000512801
0.00051283
0.00051286
0.000512889
0.00051292
0.00051295
0.000512982
0.000513013
0.000513045
0.000513078
0.000513111
0.000513145
0.00051318
0.000513215
0.000513251
0.000513288
0.000513326
0.000513365
0.000513404
0.000513445
0.000513487
0.000513529
0.000513573
0.000513618
0.000513663
0.00051371
0.000513758
0.000513807
0.000513856
0.00051392
0.000513896
0.000511317
0.000511318
0.00051132
0.000511321
0.000511323
0.000511324
0.000511327
0.000511329
0.000511331
0.000511334
0.000511337
0.000511341
0.000511345
0.000511349
0.000511353
0.000511358
0.000511532
0.000511536
0.000511539
0.000511543
0.000511547
0.000511551
0.000511555
0.000511559
0.000511564
0.000511568
0.000511573
0.000511577
0.000511582
0.000511588
0.000511593
0.000511598
0.000511604
0.00051161
0.000511616
0.000511623
0.000511629
0.000511636
0.000511643
0.00051165
0.000511658
0.000511665
0.000511673
0.000511681
0.00051169
0.000511698
0.000511706
0.000511715
0.000511724
0.000511733
0.000511742
0.000511751
0.00051176
0.00051177
0.000511779
0.000511789
0.000511798
0.000511808
0.000511818
0.000511828
0.000511838
0.000511848
0.000511858
0.000511869
0.000511879
0.00051189
0.000511901
0.000511912
0.000511924
0.000511935
0.000511947
0.000511959
0.000511972
0.000511984
0.000511997
0.00051201
0.000512023
0.000512037
0.000512051
0.000512065
0.00051208
0.000512094
0.00051211
0.000512125
0.000512141
0.000512157
0.000512173
0.00051219
0.000512208
0.000512226
0.000512244
0.000512263
0.000512283
0.000512303
0.000512323
0.000512344
0.000512366
0.000512388
0.00051241
0.000512434
0.000512457
0.000512481
0.000512506
0.000512531
0.000512556
0.000512583
0.000512609
0.000512637
0.000512665
0.000512693
0.000512723
0.000512753
0.000512784
0.000512815
0.000512848
0.000512881
0.000512914
0.000512948
0.000512983
0.000513018
0.000513054
0.00051309
0.000513127
0.000513164
0.000513202
0.00051324
0.000513279
0.000513319
0.000513359
0.000513401
0.000513443
0.000513486
0.000513531
0.000513576
0.000513623
0.000513671
0.00051372
0.000513771
0.000513823
0.000513876
0.00051393
0.000513985
0.000514042
0.000514099
0.000514158
0.000514217
0.000514278
0.00051434
0.000514403
0.000514467
0.000514532
0.000514598
0.000514666
0.000514736
0.000514807
0.00051488
0.000514954
0.000515031
0.000515109
0.00051519
0.000515273
0.000515358
0.000515445
0.000515534
0.000515626
0.00051572
0.000515817
0.000515916
0.000516017
0.000516121
0.000516228
0.000516338
0.000516451
0.000516567
0.000516687
0.00051681
0.000516937
0.000517068
0.000517204
0.000517345
0.000517491
0.000517642
0.000517798
0.00051796
0.000518128
0.000518302
0.000518481
0.000518667
0.000518857
0.000519054
0.000519255
0.000519461
0.000519672
0.000519887
0.000520106
0.000520329
0.000520554
0.000520782
0.000521014
0.000521247
0.000521482
0.00052172
0.00052196
0.000522203
0.000522448
0.000522695
0.000522935
0.000523293
0.000523221
0.00051133
0.000511333
0.000511336
0.00051134
0.000511345
0.000511349
0.000511355
0.000511361
0.000511368
0.000511375
0.000511383
0.000511392
0.000511403
0.000511414
0.000511426
0.000511929
0.000511941
0.000511953
0.000511965
0.000511977
0.00051199
0.000512003
0.000512016
0.00051203
0.000512044
0.000512059
0.000512074
0.000512089
0.000512105
0.000512121
0.000512138
0.000512155
0.000512173
0.000512191
0.00051221
0.000512229
0.000512249
0.00051227
0.000512291
0.000512313
0.000512336
0.000512359
0.000512383
0.000512407
0.000512432
0.000512457
0.000512484
0.00051251
0.000512538
0.000512565
0.000512594
0.000512622
0.000512651
0.000512681
0.000512711
0.000512742
0.000512774
0.000512806
0.000512838
0.000512871
0.000512905
0.00051294
0.000512975
0.000513012
0.000513049
0.000513087
0.000513125
0.000513165
0.000513206
0.000513247
0.000513289
0.000513333
0.000513377
0.000513422
0.000513469
0.000513516
0.000513564
0.000513614
0.000513664
0.000513716
0.000513769
0.000513824
0.000513879
0.000513936
0.000513994
0.000514053
0.000514113
0.000514175
0.000514237
0.000514301
0.000514365
0.000514431
0.000514498
0.000514566
0.000514635
0.000514706
0.000514778
0.000514852
0.000514928
0.000515006
0.000515086
0.000515167
0.000515252
0.000515338
0.000515426
0.000515517
0.00051561
0.000515706
0.000515803
0.000515903
0.000516004
0.000516108
0.000516214
0.000516322
0.000516432
0.000516544
0.000516659
0.000516777
0.000516898
0.000517022
0.000517149
0.000517281
0.000517416
0.000517555
0.000517699
0.000517848
0.000518001
0.000518159
0.000518321
0.000518489
0.000518661
0.000518838
0.000519021
0.000519208
0.0005194
0.000519597
0.000519799
0.000520006
0.000520219
0.000520438
0.000520663
0.000520895
0.000521133
0.000521379
0.000521632
0.000521893
0.000522162
0.000522439
0.000522724
0.000523017
0.000523317
0.000523626
0.000523941
0.000524264
0.000524593
0.000524927
0.000525267
0.000525612
0.000525962
0.000526316
0.000526675
0.000527039
0.000527408
0.000527783
0.000528165
0.000528555
0.000528952
0.000529359
0.000529776
0.000530204
0.000530644
0.000531096
0.000531562
0.000532041
0.000532535
0.000533044
0.000533567
0.000534105
0.000534659
0.000535227
0.000535811
0.000536409
0.000537023
0.000537651
0.000538294
0.000538953
0.000539627
0.000540317
0.000541024
0.000541747
0.000542489
0.000543247
0.000544026
0.000544823
0.000545641
0.000546478
0.000547338
0.000548218
0.000549121
0.000550046
0.000550992
0.000551964
0.000552957
0.000553973
0.000555034
0.000556033
0.000557404
0.000557813
0.000511356
0.000511362
0.00051137
0.000511379
0.000511389
0.0005114
0.000511413
0.000511427
0.000511442
0.000511459
0.000511478
0.000511499
0.000511522
0.000511547
0.000511575
0.000511605
0.000512963
0.000512995
0.000513027
0.00051306
0.000513094
0.000513128
0.000513164
0.000513201
0.000513238
0.000513277
0.000513318
0.000513359
0.000513403
0.000513447
0.000513494
0.000513542
0.000513592
0.000513645
0.000513699
0.000513755
0.000513814
0.000513874
0.000513937
0.000514003
0.00051407
0.00051414
0.000514212
0.000514286
0.000514363
0.000514441
0.000514521
0.000514604
0.000514687
0.000514773
0.000514861
0.00051495
0.000515041
0.000515133
0.000515227
0.000515323
0.00051542
0.000515519
0.000515619
0.00051572
0.000515823
0.000515928
0.000516034
0.000516142
0.000516252
0.000516364
0.000516478
0.000516595
0.000516714
0.000516835
0.00051696
0.000517087
0.000517218
0.000517352
0.00051749
0.000517632
0.000517777
0.000517926
0.000518079
0.000518236
0.000518396
0.00051856
0.000518729
0.000518901
0.000519077
0.000519257
0.000519441
0.000519631
0.000519825
0.000520025
0.000520231
0.000520442
0.000520661
0.000520886
0.000521118
0.000521358
0.000521605
0.00052186
0.000522123
0.000522394
0.000522673
0.00052296
0.000523254
0.000523557
0.000523868
0.000524188
0.000524515
0.000524852
0.000525198
0.000525554
0.000525921
0.000526298
0.000526687
0.000527087
0.0005275
0.000527925
0.000528363
0.000528812
0.000529274
0.000529747
0.000530231
0.000530725
0.000531228
0.00053174
0.000532259
0.000532786
0.000533321
0.000533864
0.000534415
0.000534975
0.000535546
0.000536129
0.000536725
0.000537336
0.000537964
0.000538609
0.000539275
0.000539961
0.00054067
0.000541403
0.000542161
0.000542944
0.000543753
0.000544589
0.00054545
0.000546338
0.000547251
0.000548191
0.000549156
0.000550147
0.000551163
0.000552206
0.000553274
0.00055437
0.000555494
0.000556647
0.00055783
0.000559044
0.000560291
0.000561572
0.000562889
0.000564244
0.000565637
0.00056707
0.000568545
0.000570063
0.000571626
0.000573234
0.00057489
0.000576595
0.00057835
0.000580159
0.000582022
0.000583945
0.00058593
0.000587984
0.000590111
0.000592321
0.000594621
0.000597022
0.000599535
0.000602174
0.000604952
0.000607885
0.000610986
0.000614275
0.000617766
0.000621478
0.000625425
0.000629623
0.000634089
0.000638831
0.000643871
0.000649199
0.000654852
0.000660792
0.000667075
0.00067363
0.000680532
0.000687687
0.000695161
0.000702892
0.00071084
0.000719147
0.000727341
0.00073607
0.000744218
0.000752693
0.000763704
0.000511426
0.000511444
0.000511464
0.000511486
0.000511511
0.000511539
0.00051157
0.000511604
0.000511643
0.000511686
0.000511734
0.000511787
0.000511846
0.000515584
0.000515676
0.000515771
0.000515868
0.000515968
0.000516071
0.000516177
0.000516285
0.000516397
0.000516511
0.000516629
0.00051675
0.000516875
0.000517004
0.000517137
0.000517274
0.000517416
0.000517562
0.000517714
0.00051787
0.000518032
0.000518198
0.000518371
0.000518548
0.000518732
0.000518921
0.000519117
0.000519318
0.000519526
0.000519741
0.000519962
0.00052019
0.000520424
0.000520665
0.000520911
0.000521164
0.000521423
0.000521688
0.000521959
0.000522236
0.000522519
0.000522808
0.000523103
0.000523405
0.000523714
0.00052403
0.000524354
0.000524686
0.000525027
0.000525378
0.000525738
0.000526109
0.00052649
0.000526883
0.000527287
0.000527703
0.000528131
0.000528571
0.000529023
0.000529488
0.000529965
0.000530455
0.000530959
0.000531476
0.000532008
0.000532555
0.000533118
0.000533697
0.000534292
0.000534905
0.000535534
0.000536181
0.000536844
0.000537523
0.000538217
0.000538927
0.00053965
0.000540387
0.000541137
0.000541902
0.000542681
0.000543476
0.000544289
0.00054512
0.000545971
0.000546845
0.000547744
0.00054867
0.000549626
0.000550613
0.000551634
0.000552689
0.000553781
0.00055491
0.000556076
0.00055728
0.00055852
0.000559797
0.00056111
0.000562459
0.000563842
0.000565261
0.000566717
0.000568209
0.00056974
0.000571313
0.00057293
0.000574595
0.000576312
0.000578085
0.000579919
0.000581817
0.000583785
0.000585825
0.000587942
0.00059014
0.00059242
0.000594786
0.00059724
0.000599783
0.000602418
0.000605146
0.000607971
0.000610897
0.000613929
0.000617075
0.000620343
0.000623744
0.000627292
0.000631001
0.000634887
0.000638967
0.00064326
0.000647782
0.000652552
0.000657585
0.000662895
0.000668494
0.000674392
0.000680594
0.000687101
0.000693913
0.000701024
0.000708423
0.000716099
0.000724037
0.000732218
0.000740595
0.000749062
0.000757599
0.000766205
0.000774881
0.000783626
0.00079245
0.000801355
0.000810357
0.000819462
0.000828686
0.000838035
0.000847523
0.000857152
0.000866926
0.000876843
0.000886884
0.000897047
0.000907286
0.0009176
0.000927911
0.000938227
0.000948437
0.000958564
0.000968472
0.000978206
0.000987614
0.000996764
0.00100551
0.00101392
0.00102189
0.00102947
0.00103663
0.00104333
0.00104972
0.00105557
0.00106126
0.00106634
0.0010714
0.00107588
0.00108039
0.00108462
0.00108869
0.00109341
0.0010965
0.00110327
0.000511601
0.000511644
0.000511692
0.000511747
0.000511809
0.000511879
0.000511958
0.000512045
0.000512141
0.000512247
0.000512363
0.00051249
0.00051263
0.000522149
0.000522386
0.00052263
0.000522879
0.000523135
0.000523396
0.000523665
0.000523941
0.000524227
0.000524522
0.000524827
0.000525144
0.000525472
0.000525812
0.000526165
0.000526531
0.000526913
0.00052731
0.000527725
0.000528156
0.000528607
0.000529076
0.000529567
0.000530077
0.000530609
0.000531162
0.000531738
0.000532335
0.000532954
0.000533594
0.000534254
0.000534933
0.000535633
0.000536354
0.000537094
0.000537855
0.000538634
0.000539433
0.00054025
0.000541086
0.000541941
0.000542815
0.000543707
0.000544618
0.000545547
0.000546495
0.000547461
0.000548445
0.000549448
0.000550472
0.000551516
0.000552582
0.000553671
0.000554786
0.000555928
0.000557099
0.000558303
0.000559542
0.000560817
0.000562133
0.000563492
0.000564896
0.000566347
0.000567846
0.000569397
0.000570998
0.000572649
0.000574352
0.000576106
0.000577911
0.000579767
0.000581675
0.000583635
0.00058565
0.000587722
0.000589855
0.000592056
0.000594328
0.000596679
0.000599114
0.000601639
0.000604261
0.000606986
0.000609819
0.000612765
0.000615829
0.000619011
0.000622316
0.000625747
0.000629305
0.000632991
0.000636813
0.000640777
0.000644888
0.000649158
0.000653604
0.000658238
0.000663079
0.000668149
0.000673466
0.00067905
0.000684923
0.000691098
0.00069759
0.000704408
0.000711556
0.000719027
0.000726816
0.000734908
0.000743277
0.000751897
0.000760691
0.000769554
0.000778463
0.000787407
0.000796372
0.000805349
0.000814338
0.000823345
0.00083238
0.000841458
0.000850597
0.000859818
0.00086914
0.00087858
0.000888148
0.00089785
0.000907682
0.000917632
0.000927674
0.000937776
0.000947897
0.000957983
0.000967981
0.000977829
0.00098747
0.000996845
0.00100591
0.00101461
0.00102293
0.00103085
0.00103836
0.00104545
0.00105217
0.00105853
0.00106456
0.0010703
0.00107582
0.00108126
0.00108666
0.00109202
0.00109738
0.00110273
0.00110807
0.0011134
0.00111868
0.00112391
0.00112904
0.00113405
0.00113887
0.0011435
0.00114786
0.00115197
0.00115577
0.00115926
0.00116244
0.00116529
0.00116787
0.00117014
0.00117222
0.00117403
0.00117576
0.00117727
0.0011788
0.00118017
0.00118165
0.00118303
0.00118457
0.00118606
0.00118774
0.00118939
0.00119123
0.00119309
0.00119507
0.00119714
0.00119921
0.00120148
0.00120353
0.00120599
0.00120791
0.00121054
0.0012122
0.00121565
0.000511932
0.000512026
0.000512133
0.000512252
0.000512387
0.000512536
0.000512702
0.000512888
0.000513095
0.000513328
0.000513588
0.000513877
0.000514196
0.000514546
0.000538053
0.000538713
0.000539392
0.000540091
0.000540813
0.000541557
0.000542324
0.000543115
0.000543928
0.000544764
0.000545624
0.000546512
0.000547429
0.000548377
0.000549359
0.000550377
0.000551431
0.000552523
0.000553654
0.000554823
0.000556033
0.000557284
0.000558575
0.000559909
0.000561289
0.000562716
0.000564191
0.000565715
0.000567291
0.000568925
0.000570622
0.000572383
0.000574204
0.000576085
0.000578027
0.000580034
0.000582107
0.000584246
0.000586451
0.000588723
0.00059106
0.000593463
0.000595932
0.000598467
0.000601069
0.000603741
0.000606486
0.000609307
0.000612212
0.000615205
0.000618295
0.000621488
0.000624793
0.00062822
0.000631775
0.000635465
0.000639297
0.000643277
0.000647409
0.000651699
0.000656149
0.000660763
0.000665548
0.000670507
0.000675644
0.000680973
0.000686507
0.000692257
0.000698237
0.000704466
0.000710959
0.000717732
0.000724802
0.000732176
0.000739864
0.000747863
0.000756157
0.000764733
0.000773551
0.000782491
0.000791512
0.000800607
0.000809742
0.000818901
0.000828082
0.000837269
0.000846464
0.000855683
0.000864924
0.000874211
0.000883581
0.000893023
0.00090255
0.000912207
0.000921967
0.0009318
0.000941715
0.000951667
0.000961581
0.000971423
0.000981133
0.000990609
0.000999807
0.00100867
0.00101712
0.00102513
0.0010327
0.00103982
0.00104647
0.00105271
0.00105861
0.00106424
0.00106975
0.0010752
0.00108062
0.00108606
0.00109156
0.00109713
0.00110277
0.00110848
0.00111423
0.00111999
0.00112571
0.00113132
0.00113675
0.00114195
0.00114685
0.00115141
0.00115558
0.00115935
0.00116271
0.00116567
0.00116828
0.00117056
0.00117258
0.00117438
0.00117604
0.0011776
0.00117912
0.00118065
0.00118222
0.00118386
0.00118559
0.00118742
0.00118936
0.00119139
0.0011935
0.00119566
0.00119787
0.00120007
0.00120225
0.00120437
0.0012064
0.00120831
0.0012101
0.00121173
0.0012132
0.00121452
0.00121569
0.00121672
0.00121761
0.00121842
0.00121912
0.00121978
0.00122038
0.00122098
0.00122155
0.00122215
0.00122275
0.00122342
0.00122409
0.00122484
0.0012256
0.00122645
0.00122731
0.00122824
0.00122917
0.00123015
0.00123113
0.00123211
0.00123309
0.00123401
0.00123495
0.00123573
0.00123657
0.00123717
0.00123789
0.00123829
0.00123886
0.00123908
0.0012395
0.00123964
0.00123994
0.000512819
0.000513041
0.000513292
0.000513577
0.000513901
0.000514267
0.000514678
0.000515135
0.000515639
0.000516191
0.000516796
0.000517456
0.000518182
0.000518982
0.000576683
0.000578294
0.000579945
0.000581636
0.000583366
0.000585134
0.000586948
0.000588816
0.000590749
0.000592754
0.000594838
0.000597003
0.000599252
0.000601587
0.000604014
0.000606537
0.000609163
0.000611901
0.000614759
0.000617744
0.000620867
0.000624137
0.000627569
0.000631169
0.000634941
0.000638894
0.000643042
0.000647396
0.000651953
0.000656696
0.000661613
0.000666715
0.000672021
0.000677545
0.000683286
0.000689237
0.000695392
0.000701752
0.000708318
0.000715092
0.000722077
0.000729279
0.000736701
0.000744347
0.000752228
0.00076035
0.000768708
0.000777302
0.000786122
0.000795074
0.000804106
0.000813213
0.000822381
0.000831587
0.000840821
0.000850079
0.000859349
0.000868621
0.000877899
0.000887181
0.000896469
0.000905776
0.000915103
0.000924456
0.00093386
0.000943297
0.00095273
0.000962166
0.00097157
0.000980881
0.000990069
0.000999077
0.00100782
0.00101627
0.00102436
0.00103204
0.00103933
0.00104623
0.00105274
0.001059
0.0010651
0.00107101
0.00107681
0.00108259
0.00108831
0.00109402
0.00109979
0.00110555
0.00111128
0.001117
0.00112262
0.00112807
0.00113335
0.00113833
0.00114294
0.00114722
0.00115109
0.00115449
0.00115755
0.00116025
0.00116258
0.00116469
0.00116664
0.00116844
0.0011702
0.00117201
0.00117388
0.00117584
0.00117797
0.00118026
0.00118268
0.00118525
0.00118795
0.00119073
0.00119353
0.00119631
0.00119903
0.00120162
0.00120403
0.00120623
0.00120818
0.00120986
0.00121126
0.00121241
0.00121332
0.00121404
0.00121461
0.00121509
0.00121552
0.00121593
0.00121635
0.00121682
0.00121736
0.00121796
0.00121866
0.00121945
0.00122033
0.00122131
0.00122236
0.00122348
0.00122466
0.00122587
0.00122708
0.00122827
0.00122943
0.0012305
0.0012315
0.00123239
0.00123318
0.00123385
0.0012344
0.00123486
0.00123521
0.0012355
0.00123569
0.00123586
0.00123595
0.00123604
0.00123608
0.00123613
0.00123616
0.00123621
0.00123626
0.00123634
0.00123643
0.00123655
0.00123669
0.00123687
0.00123705
0.00123727
0.0012375
0.00123774
0.00123799
0.00123824
0.00123849
0.00123873
0.00123898
0.0012392
0.00123943
0.00123963
0.00123985
0.00124001
0.00124022
0.00124035
0.00124055
0.00124066
0.00124084
0.00124092
0.00124107
0.00124113
0.00124125
0.00124131
0.00124138
0.000514918
0.000515455
0.00051606
0.000516735
0.000517487
0.000518322
0.000519254
0.0005203
0.000521474
0.00052279
0.000524256
0.000525879
0.000527658
0.000529587
0.000664315
0.000668527
0.000672876
0.000677377
0.000682054
0.000686926
0.000691995
0.000697248
0.000702666
0.000708237
0.000713962
0.00071986
0.000725953
0.000732268
0.000738826
0.000745641
0.000752724
0.000760078
0.000767705
0.000775606
0.000783781
0.000792214
0.000800857
0.000809638
0.000818551
0.000827592
0.000836716
0.000845875
0.00085509
0.000864452
0.000874023
0.000883767
0.000893581
0.000903388
0.000913175
0.00092296
0.000932744
0.000942503
0.000952209
0.000961842
0.000971379
0.000980784
0.000990037
0.000999114
0.00100795
0.00101651
0.00102478
0.00103271
0.00104027
0.00104754
0.00105459
0.0010614
0.00106797
0.00107436
0.00108059
0.00108666
0.0010926
0.00109844
0.00110415
0.00110976
0.00111527
0.00112065
0.00112587
0.00113091
0.00113568
0.00114014
0.00114432
0.00114816
0.00115163
0.00115479
0.00115765
0.0011602
0.00116255
0.00116476
0.00116686
0.00116895
0.00117107
0.00117319
0.00117544
0.00117783
0.00118024
0.00118276
0.00118542
0.00118802
0.00119056
0.00119311
0.00119549
0.00119764
0.00119965
0.00120143
0.00120292
0.00120423
0.00120532
0.00120622
0.00120702
0.00120774
0.00120842
0.00120913
0.00120986
0.00121064
0.00121155
0.00121257
0.00121365
0.00121488
0.00121627
0.0012177
0.00121916
0.00122074
0.0012223
0.00122373
0.00122511
0.00122642
0.00122751
0.00122842
0.00122919
0.00122978
0.00123019
0.00123047
0.00123063
0.00123072
0.00123073
0.00123068
0.00123061
0.00123055
0.00123052
0.00123053
0.00123059
0.00123071
0.00123089
0.00123114
0.00123144
0.0012318
0.00123222
0.00123267
0.00123316
0.00123367
0.00123418
0.00123468
0.00123517
0.00123562
0.00123604
0.00123641
0.00123674
0.00123703
0.00123727
0.00123748
0.00123766
0.00123781
0.00123793
0.00123803
0.0012381
0.00123816
0.00123818
0.0012382
0.0012382
0.00123818
0.00123815
0.00123813
0.00123811
0.0012381
0.00123809
0.0012381
0.00123813
0.00123817
0.00123823
0.0012383
0.00123839
0.0012385
0.00123862
0.00123875
0.00123889
0.00123904
0.0012392
0.00123936
0.00123952
0.00123968
0.00123985
0.00123999
0.00124015
0.00124028
0.00124043
0.00124054
0.00124067
0.00124075
0.00124087
0.00124093
0.00124103
0.00124108
0.00124115
0.00124119
0.00124123
0.00124127
0.00124123
0.00051978
0.000520994
0.000522378
0.000523955
0.000525744
0.000527758
0.000529999
0.000532464
0.000535152
0.000538077
0.000541264
0.000544751
0.000548591
0.000860349
0.00086846
0.000876568
0.000884646
0.000892628
0.000900461
0.000908148
0.000915758
0.000923387
0.000931113
0.000938963
0.000946917
0.000954921
0.000962922
0.000970881
0.000978773
0.000986583
0.000994305
0.00100194
0.00100947
0.00101687
0.00102415
0.00103137
0.0010386
0.00104582
0.00105299
0.00106017
0.00106747
0.00107484
0.00108204
0.00108882
0.00109513
0.00110113
0.00110701
0.00111276
0.0011183
0.00112358
0.00112858
0.00113334
0.00113785
0.0011421
0.00114609
0.00114982
0.00115326
0.00115644
0.00115944
0.00116225
0.00116485
0.00116739
0.00116989
0.00117228
0.00117464
0.00117704
0.00117939
0.00118166
0.00118392
0.00118616
0.00118831
0.00119037
0.00119236
0.00119422
0.00119589
0.0011974
0.00119877
0.0012
0.00120113
0.00120217
0.00120317
0.00120419
0.00120519
0.00120621
0.00120733
0.00120853
0.00120975
0.0012111
0.00121255
0.00121399
0.00121546
0.00121699
0.00121837
0.00121969
0.00122098
0.001222
0.00122278
0.00122363
0.00122419
0.00122447
0.00122485
0.00122511
0.00122518
0.00122532
0.00122545
0.00122553
0.0012257
0.00122592
0.00122616
0.00122649
0.00122689
0.00122733
0.00122784
0.00122842
0.00122899
0.00122957
0.0012302
0.00123076
0.00123122
0.00123175
0.00123218
0.00123242
0.0012327
0.00123307
0.00123321
0.0012333
0.0012335
0.00123364
0.00123367
0.00123369
0.00123374
0.00123374
0.00123373
0.00123373
0.00123375
0.0012338
0.00123388
0.00123399
0.00123413
0.0012343
0.00123449
0.00123472
0.00123496
0.00123522
0.0012355
0.00123578
0.00123607
0.00123636
0.00123663
0.00123691
0.00123717
0.0012374
0.00123763
0.00123784
0.00123801
0.00123817
0.00123831
0.0012384
0.00123849
0.00123856
0.0012386
0.00123861
0.00123862
0.0012386
0.00123858
0.00123854
0.00123849
0.00123845
0.00123839
0.00123835
0.00123831
0.00123828
0.00123826
0.00123825
0.00123826
0.00123829
0.00123833
0.00123839
0.00123846
0.00123854
0.00123864
0.00123875
0.00123886
0.00123899
0.00123912
0.00123926
0.00123939
0.00123954
0.00123967
0.00123981
0.00123992
0.00124005
0.00124013
0.00124025
0.00124031
0.00124039
0.00124043
0.00124047
0.00124049
0.00124049
0.00124049
0.00124046
0.00124043
0.00124037
0.00124033
0.00124013
0.000531055
0.000533872
0.000537014
0.000540501
0.000544365
0.000548671