/*--------------------------------*- C++ -*----------------------------------*\
| =========                 |                                                 |
| \\      /  F ield         | OpenFOAM: The Open Source CFD Toolbox           |
|  \\    /   O peration     | Version:  v1706                                 |
|   \\  /    A nd           | Web:      www.OpenFOAM.com                      |
|    \\/     M anipulation  |                                                 |
\*---------------------------------------------------------------------------*/
FoamFile
{
    version     2.0;
    format      ascii;
    class       volScalarField;
    location    "1.9e-05";
    object      Tov;
}
// * * * * * * * * * * * * * * * * * * * * * * * * * * * * * * * * * * * * * //

dimensions      [0 0 0 1 0 0 0];


internalField   nonuniform List<scalar> 
30104
(
144.4
144.4
144.4
144.4
144.4
144.4
144.4
144.4
144.4
144.4
144.4
144.4
144.4
144.4
144.4
144.4
144.401
144.401
144.401
144.401
144.401
144.401
144.401
144.401
144.401
144.401
144.401
144.401
144.401
144.402
144.402
144.402
144.402
144.402
144.402
144.402
144.402
144.402
144.402
144.402
144.402
144.402
144.402
144.402
144.402
144.402
144.402
144.402
144.402
144.402
144.402
144.402
144.402
144.402
144.402
144.402
144.402
144.402
144.402
144.402
144.402
144.402
144.402
144.403
144.403
144.403
144.403
144.403
144.403
144.403
144.403
144.403
144.403
144.403
144.403
144.403
144.403
144.403
144.403
144.403
144.403
144.403
144.403
144.403
144.403
144.403
144.403
144.404
144.404
144.404
144.404
144.404
144.404
144.404
144.404
144.404
144.404
144.404
144.404
144.404
144.404
144.404
144.404
144.404
144.404
144.405
144.405
144.405
144.405
144.405
144.405
144.405
144.405
144.405
144.405
144.405
144.405
144.405
144.405
144.406
144.406
144.406
144.406
144.406
144.406
144.406
144.406
144.406
144.406
144.406
144.407
144.407
144.407
144.407
144.407
144.407
144.407
144.407
144.407
144.407
144.408
144.408
144.408
144.408
144.408
144.408
144.408
144.408
144.409
144.409
144.409
144.409
144.409
144.409
144.409
144.41
144.41
144.41
144.41
144.41
144.41
144.41
144.411
144.411
144.411
144.411
144.411
144.411
144.412
144.412
144.412
144.412
144.412
144.412
144.413
144.413
144.413
144.413
144.413
144.414
144.414
144.414
144.414
144.415
144.415
144.415
144.415
144.415
144.416
144.416
144.416
144.416
144.417
144.417
144.417
144.417
144.418
144.418
144.418
144.419
144.419
144.419
144.419
144.42
144.42
144.42
144.421
144.421
144.421
144.418
144.4
144.401
144.401
144.401
144.401
144.401
144.401
144.401
144.401
144.401
144.402
144.402
144.402
144.402
144.402
144.403
144.403
144.408
144.408
144.409
144.409
144.409
144.409
144.409
144.409
144.409
144.409
144.41
144.41
144.41
144.41
144.41
144.41
144.411
144.411
144.411
144.411
144.411
144.411
144.412
144.412
144.412
144.412
144.413
144.413
144.413
144.413
144.413
144.414
144.414
144.414
144.414
144.415
144.415
144.415
144.415
144.416
144.416
144.416
144.416
144.417
144.417
144.417
144.417
144.418
144.418
144.418
144.419
144.419
144.419
144.419
144.42
144.42
144.42
144.421
144.421
144.421
144.422
144.422
144.422
144.423
144.423
144.423
144.424
144.424
144.425
144.425
144.425
144.426
144.426
144.427
144.427
144.427
144.428
144.428
144.429
144.429
144.43
144.43
144.431
144.431
144.432
144.432
144.433
144.433
144.434
144.434
144.435
144.435
144.436
144.437
144.437
144.438
144.438
144.439
144.44
144.44
144.441
144.442
144.442
144.443
144.444
144.444
144.445
144.446
144.447
144.447
144.448
144.449
144.45
144.451
144.451
144.452
144.453
144.454
144.455
144.456
144.457
144.458
144.459
144.46
144.461
144.462
144.463
144.464
144.465
144.466
144.467
144.468
144.47
144.471
144.472
144.473
144.474
144.476
144.477
144.478
144.479
144.481
144.482
144.483
144.485
144.486
144.488
144.489
144.491
144.492
144.494
144.495
144.497
144.499
144.5
144.502
144.504
144.506
144.508
144.51
144.512
144.514
144.516
144.518
144.52
144.522
144.524
144.527
144.529
144.532
144.534
144.537
144.539
144.542
144.544
144.547
144.55
144.552
144.555
144.558
144.56
144.563
144.566
144.569
144.572
144.575
144.578
144.581
144.584
144.587
144.591
144.59
144.575
144.401
144.402
144.402
144.402
144.402
144.403
144.403
144.404
144.404
144.404
144.405
144.406
144.406
144.407
144.408
144.408
144.428
144.429
144.429
144.43
144.43
144.431
144.431
144.432
144.432
144.433
144.433
144.434
144.434
144.435
144.435
144.436
144.437
144.437
144.438
144.439
144.439
144.44
144.441
144.442
144.442
144.443
144.444
144.445
144.446
144.447
144.448
144.448
144.449
144.45
144.451
144.452
144.453
144.454
144.455
144.456
144.457
144.458
144.459
144.46
144.461
144.462
144.464
144.465
144.466
144.467
144.468
144.469
144.47
144.472
144.473
144.474
144.475
144.477
144.478
144.479
144.481
144.482
144.484
144.485
144.487
144.488
144.49
144.491
144.493
144.494
144.496
144.498
144.499
144.501
144.503
144.505
144.506
144.508
144.51
144.512
144.514
144.516
144.518
144.52
144.522
144.525
144.527
144.529
144.531
144.534
144.536
144.539
144.541
144.544
144.546
144.549
144.552
144.554
144.557
144.56
144.563
144.566
144.569
144.572
144.575
144.578
144.581
144.585
144.588
144.591
144.595
144.599
144.602
144.606
144.61
144.614
144.618
144.622
144.626
144.63
144.635
144.639
144.644
144.648
144.653
144.658
144.663
144.668
144.673
144.678
144.684
144.689
144.695
144.701
144.706
144.712
144.718
144.724
144.73
144.736
144.743
144.749
144.756
144.762
144.769
144.776
144.783
144.79
144.797
144.804
144.812
144.819
144.827
144.835
144.844
144.852
144.861
144.87
144.879
144.888
144.898
144.908
144.918
144.928
144.939
144.95
144.961
144.972
144.984
144.996
145.008
145.021
145.033
145.046
145.06
145.073
145.087
145.101
145.115
145.129
145.144
145.158
145.173
145.188
145.204
145.219
145.235
145.251
145.267
145.283
145.3
145.305
145.246
144.404
144.405
144.405
144.406
144.407
144.408
144.409
144.41
144.411
144.412
144.414
144.415
144.417
144.419
144.421
144.423
144.483
144.485
144.486
144.487
144.489
144.49
144.492
144.493
144.495
144.497
144.498
144.5
144.502
144.504
144.506
144.508
144.51
144.512
144.514
144.516
144.518
144.521
144.523
144.526
144.528
144.531
144.534
144.537
144.54
144.542
144.545
144.549
144.552
144.555
144.558
144.561
144.565
144.568
144.571
144.575
144.578
144.582
144.585
144.589
144.593
144.596
144.6
144.604
144.608
144.612
144.615
144.62
144.624
144.628
144.632
144.637
144.641
144.646
144.65
144.655
144.66
144.665
144.67
144.675
144.681
144.686
144.691
144.697
144.703
144.709
144.714
144.72
144.727
144.733
144.739
144.746
144.753
144.76
144.767
144.774
144.781
144.788
144.796
144.804
144.812
144.82
144.829
144.837
144.846
144.855
144.864
144.873
144.883
144.893
144.903
144.913
144.924
144.934
144.945
144.956
144.967
144.979
144.991
145.003
145.015
145.027
145.039
145.052
145.065
145.079
145.092
145.106
145.12
145.134
145.149
145.164
145.18
145.195
145.212
145.228
145.245
145.263
145.281
145.299
145.318
145.338
145.358
145.378
145.399
145.42
145.442
145.464
145.487
145.51
145.534
145.558
145.583
145.608
145.634
145.66
145.686
145.713
145.74
145.768
145.797
145.825
145.854
145.884
145.914
145.945
145.977
146.009
146.042
146.075
146.11
146.145
146.181
146.218
146.256
146.295
146.336
146.377
146.42
146.464
146.51
146.557
146.606
146.656
146.708
146.762
146.817
146.874
146.932
146.993
147.055
147.118
147.183
147.25
147.317
147.387
147.457
147.528
147.601
147.674
147.748
147.823
147.899
147.975
148.052
148.129
148.208
148.261
148.054
144.411
144.412
144.414
144.416
144.418
144.42
144.423
144.426
144.429
144.432
144.436
144.441
144.445
144.45
144.456
144.629
144.633
144.637
144.641
144.645
144.65
144.654
144.659
144.664
144.669
144.674
144.679
144.684
144.69
144.695
144.701
144.707
144.714
144.72
144.727
144.734
144.741
144.748
144.756
144.764
144.772
144.781
144.789
144.798
144.807
144.816
144.826
144.835
144.845
144.855
144.866
144.876
144.887
144.897
144.908
144.919
144.93
144.942
144.953
144.965
144.977
144.989
145.001
145.014
145.027
145.04
145.053
145.067
145.081
145.095
145.109
145.124
145.139
145.155
145.171
145.187
145.204
145.221
145.238
145.256
145.274
145.293
145.312
145.331
145.351
145.371
145.392
145.413
145.434
145.456
145.478
145.501
145.524
145.548
145.572
145.597
145.623
145.649
145.675
145.702
145.73
145.759
145.788
145.819
145.85
145.881
145.914
145.947
145.982
146.017
146.053
146.089
146.127
146.165
146.205
146.245
146.286
146.328
146.371
146.414
146.459
146.504
146.551
146.598
146.646
146.695
146.745
146.797
146.849
146.903
146.958
147.014
147.072
147.131
147.191
147.253
147.317
147.383
147.45
147.52
147.591
147.665
147.74
147.818
147.898
147.981
148.066
148.153
148.243
148.335
148.43
148.527
148.626
148.727
148.831
148.937
149.044
149.153
149.264
149.377
149.491
149.606
149.723
149.841
149.961
150.082
150.206
150.331
150.459
150.59
150.723
150.858
150.997
151.14
151.286
151.435
151.589
151.748
151.911
152.078
152.251
152.43
152.614
152.804
153.001
153.204
153.415
153.632
153.857
154.089
154.329
154.576
154.831
155.094
155.365
155.643
155.927
156.219
156.517
156.82
157.129
157.442
157.758
158.075
158.397
158.714
159.032
158.489
144.424
144.427
144.431
144.436
144.44
144.446
144.452
144.459
144.466
144.474
144.483
144.493
144.504
144.516
144.529
144.543
145.003
145.015
145.027
145.038
145.051
145.063
145.076
145.089
145.103
145.116
145.131
145.145
145.161
145.176
145.193
145.21
145.227
145.245
145.264
145.283
145.303
145.324
145.346
145.368
145.391
145.415
145.439
145.465
145.491
145.517
145.545
145.573
145.602
145.631
145.662
145.692
145.724
145.756
145.788
145.821
145.855
145.889
145.924
145.959
145.995
146.032
146.069
146.106
146.145
146.184
146.224
146.264
146.306
146.349
146.392
146.437
146.483
146.53
146.578
146.627
146.678
146.73
146.783
146.838
146.894
146.951
147.01
147.07
147.131
147.194
147.258
147.324
147.391
147.459
147.529
147.601
147.674
147.749
147.825
147.903
147.983
148.065
148.149
148.235
148.323
148.414
148.507
148.602
148.7
148.8
148.904
149.01
149.119
149.231
149.347
149.465
149.587
149.713
149.841
149.974
150.11
150.249
150.392
150.538
150.687
150.839
150.994
151.153
151.313
151.477
151.642
151.811
151.982
152.155
152.332
152.512
152.696
152.883
153.074
153.27
153.47
153.675
153.886
154.102
154.324
154.553
154.788
155.03
155.28
155.537
155.802
156.075
156.357
156.647
156.946
157.254
157.571
157.897
158.232
158.576
158.928
159.289
159.658
160.035
160.419
160.809
161.204
161.604
162.007
162.413
162.823
163.238
163.656
164.078
164.504
164.936
165.372
165.813
166.26
166.714
167.174
167.642
168.119
168.605
169.102
169.61
170.132
170.668
171.22
171.789
172.378
172.987
173.618
174.274
174.954
175.661
176.397
177.159
177.953
178.774
179.628
180.508
181.42
182.356
183.322
184.312
185.322
186.367
187.396
188.468
189.457
190.707
190.358
144.461
144.469
144.479
144.49
144.502
144.516
144.531
144.548
144.566
144.587
144.609
144.634
144.661
145.943
145.974
146.006
146.039
146.073
146.107
146.143
146.179
146.216
146.255
146.294
146.335
146.377
146.42
146.465
146.511
146.559
146.609
146.66
146.714
146.769
146.826
146.885
146.946
147.009
147.075
147.142
147.212
147.284
147.358
147.435
147.513
147.594
147.677
147.762
147.849
147.938
148.029
148.122
148.217
148.313
148.411
148.511
148.613
148.717
148.822
148.929
149.039
149.15
149.263
149.379
149.498
149.619
149.743
149.87
150
150.134
150.271
150.411
150.555
150.703
150.855
151.011
151.171
151.336
151.504
151.678
151.855
152.038
152.224
152.416
152.612
152.812
153.017
153.226
153.439
153.657
153.878
154.103
154.332
154.565
154.802
155.044
155.292
155.544
155.802
156.066
156.336
156.613
156.897
157.189
157.488
157.796
158.112
158.437
158.772
159.116
159.469
159.833
160.206
160.59
160.984
161.388
161.802
162.226
162.66
163.103
163.556
164.017
164.487
164.963
165.446
165.934
166.428
166.928
167.434
167.947
168.467
168.994
169.528
170.07
170.62
171.179
171.747
172.324
172.912
173.511
174.122
174.746
175.385
176.04
176.712
177.402
178.112
178.844
179.597
180.374
181.174
181.999
182.849
183.723
184.621
185.542
186.485
187.448
188.431
189.432
190.445
191.454
192.454
193.445
194.426
195.397
196.358
197.307
198.245
199.172
200.089
200.995
201.891
202.777
203.653
204.518
205.373
206.217
207.047
207.865
208.666
209.451
210.215
210.96
211.678
212.376
213.043
213.687
214.298
214.884
215.438
215.967
216.466
216.937
217.385
217.801
218.206
218.57
218.934
219.255
219.577
219.87
220.153
220.439
220.769
220.297
144.551
144.573
144.597
144.624
144.654
144.688
144.725
144.766
144.812
144.862
144.917
144.977
145.043
148.221
148.302
148.385
148.47
148.557
148.646
148.738
148.831
148.928
149.027
149.129
149.234
149.343
149.455
149.571
149.691
149.815
149.944
150.077
150.215
150.358
150.506
150.66
150.819
150.984
151.154
151.33
151.512
151.701
151.895
152.095
152.301
152.512
152.73
152.953
153.182
153.417
153.657
153.902
154.152
154.408
154.668
154.933
155.203
155.477
155.756
156.039
156.327
156.618
156.915
157.216
157.522
157.834
158.151
158.475
158.806
159.144
159.489
159.843
160.205
160.576
160.956
161.346
161.745
162.155
162.576
163.007
163.449
163.902
164.366
164.841
165.326
165.822
166.329
166.846
167.374
167.91
168.455
169.009
169.569
170.136
170.711
171.294
171.884
172.484
173.092
173.71
174.337
174.974
175.621
176.278
176.946
177.626
178.317
179.021
179.739
180.471
181.219
181.984
182.766
183.568
184.389
185.231
186.094
186.978
187.882
188.807
189.75
190.711
191.687
192.677
193.673
194.66
195.636
196.599
197.548
198.48
199.396
200.296
201.178
202.044
202.893
203.728
204.548
205.354
206.149
206.931
207.703
208.462
209.21
209.945
210.666
211.371
212.059
212.727
213.373
213.995
214.592
215.163
215.706
216.221
216.709
217.17
217.606
218.017
218.405
218.772
219.119
219.454
219.778
220.093
220.4
220.7
220.994
221.282
221.563
221.838
222.103
222.36
222.604
222.836
223.053
223.254
223.438
223.605
223.755
223.886
224.002
224.101
224.19
224.263
224.331
224.387
224.444
224.492
224.546
224.592
224.649
224.701
224.764
224.823
224.893
224.961
225.037
225.114
225.192
225.278
225.352
225.446
225.513
225.604
225.699
225.615
144.725
144.771
144.823
144.882
144.948
145.021
145.102
145.192
145.292
145.401
145.522
145.654
145.799
145.956
153.438
153.635
153.836
154.041
154.252
154.467
154.688
154.915
155.147
155.385
155.631
155.883
156.142
156.41
156.686
156.971
157.265
157.569
157.883
158.207
158.541
158.885
159.241
159.607
159.984
160.372
160.773
161.185
161.609
162.045
162.494
162.954
163.427
163.912
164.409
164.917
165.437
165.968
166.509
167.062
167.624
168.196
168.778
169.369
169.968
170.576
171.191
171.815
172.444
173.08
173.721
174.368
175.023
175.685
176.355
177.033
177.721
178.418
179.125
179.843
180.571
181.309
182.059
182.82
183.592
184.376
185.172
185.981
186.802
187.638
188.487
189.351
190.229
191.122
192.028
192.948
193.88
194.823
195.774
196.721
197.657
198.582
199.493
200.39
201.27
202.133
202.979
203.807
204.617
205.411
206.189
206.951
207.699
208.436
209.159
209.868
210.566
211.251
211.92
212.572
213.207
213.819
214.407
214.97
215.505
216.009
216.484
216.929
217.342
217.727
218.085
218.42
218.737
219.04
219.332
219.616
219.895
220.17
220.443
220.715
220.986
221.256
221.523
221.785
222.041
222.286
222.52
222.739
222.942
223.127
223.295
223.444
223.577
223.694
223.797
223.889
223.973
224.051
224.126
224.199
224.272
224.348
224.426
224.508
224.595
224.684
224.778
224.873
224.971
225.069
225.166
225.262
225.354
225.441
225.522
225.595
225.661
225.719
225.767
225.808
225.84
225.866
225.885
225.9
225.91
225.918
225.924
225.93
225.935
225.943
225.952
225.965
225.978
225.997
226.018
226.044
226.072
226.104
226.138
226.175
226.214
226.252
226.293
226.329
226.37
226.401
226.44
226.465
226.499
226.518
226.544
226.57
226.554
145.185
145.296
145.421
145.56
145.716
145.89
146.083
146.296
146.53
146.788
147.069
147.376
147.71
148.072
164.269
164.678
165.094
165.517
165.947
166.385
166.832
167.288
167.754
168.231
168.719
169.219
169.732
170.258
170.798
171.354
171.924
172.51
173.113
173.732
174.368
175.021
175.691
176.377
177.078
177.796
178.531
179.282
180.049
180.831
181.626
182.435
183.257
184.092
184.938
185.796
186.664
187.54
188.424
189.315
190.212
191.115
192.022
192.933
193.847
194.764
195.683
196.604
197.527
198.443
199.346
200.234
201.108
201.966
202.807
203.631
204.437
205.225
205.995
206.746
207.479
208.195
208.893
209.575
210.241
210.893
211.528
212.149
212.755
213.344
213.915
214.467
214.998
215.507
215.99
216.447
216.878
217.282
217.658
218.013
218.349
218.667
218.97
219.262
219.543
219.817
220.087
220.353
220.614
220.873
221.127
221.375
221.616
221.846
222.062
222.266
222.453
222.62
222.772
222.907
223.024
223.129
223.224
223.309
223.388
223.466
223.543
223.621
223.703
223.791
223.884
223.982
224.088
224.199
224.314
224.433
224.553
224.672
224.788
224.898
225
225.093
225.175
225.245
225.303
225.351
225.389
225.419
225.444
225.465
225.483
225.5
225.518
225.537
225.558
225.583
225.612
225.646
225.684
225.726
225.773
225.823
225.876
225.93
225.985
226.039
226.091
226.14
226.186
226.227
226.263
226.294
226.319
226.34
226.355
226.367
226.375
226.379
226.38
226.38
226.378
226.376
226.372
226.37
226.368
226.368
226.369
226.373
226.379
226.388
226.399
226.413
226.429
226.448
226.468
226.49
226.514
226.538
226.564
226.589
226.615
226.64
226.666
226.689
226.715
226.735
226.76
226.778
226.8
226.816
226.834
226.855
226.854
146.268
146.526
146.815
147.138
147.497
147.896
148.336
148.821
149.353
149.934
150.567
151.252
151.993
152.789
182.753
183.423
184.099
184.78
185.468
186.164
186.869
187.581
188.301
189.028
189.762
190.503
191.252
192.011
192.779
193.558
194.348
195.149
195.959
196.778
197.606
198.442
199.283
200.121
200.954
201.781
202.599
203.406
204.2
204.987
205.766
206.537
207.293
208.033
208.755
209.459
210.146
210.815
211.463
212.092
212.701
213.289
213.856
214.403
214.927
215.428
215.906
216.359
216.787
217.192
217.576
217.94
218.284
218.611
218.922
219.218
219.501
219.773
220.035
220.288
220.534
220.774
221.006
221.23
221.445
221.649
221.843
222.024
222.19
222.343
222.483
222.609
222.723
222.828
222.925
223.017
223.105
223.19
223.278
223.368
223.458
223.554
223.657
223.759
223.864
223.972
224.077
224.178
224.277
224.368
224.448
224.522
224.585
224.638
224.684
224.723
224.757
224.788
224.816
224.844
224.874
224.906
224.941
224.982
225.029
225.081
225.138
225.203
225.272
225.342
225.414
225.488
225.558
225.625
225.688
225.746
225.796
225.839
225.876
225.908
225.932
225.948
225.96
225.968
225.973
225.977
225.98
225.984
225.989
225.996
226.005
226.017
226.033
226.052
226.074
226.1
226.129
226.16
226.193
226.227
226.262
226.296
226.329
226.362
226.392
226.42
226.446
226.47
226.491
226.509
226.524
226.537
226.546
226.554
226.559
226.562
226.564
226.565
226.566
226.567
226.568
226.571
226.575
226.581
226.588
226.598
226.61
226.624
226.64
226.659
226.679
226.701
226.725
226.749
226.775
226.801
226.828
226.855
226.882
226.908
226.935
226.96
226.986
227.009
227.033
227.054
227.077
227.097
227.119
227.138
227.156
227.18
227.179
148.746
149.321
149.965
150.681
151.475
152.35
153.309
154.355
155.488
156.71
158.02
159.42
160.912
205.335
205.989
206.627
207.247
207.85
208.432
208.994
209.54
210.073
210.596
211.112
211.618
212.114
212.598
213.069
213.526
213.969
214.398
214.814
215.216
215.605
215.979
216.342
216.696
217.041
217.377
217.707
218.033
218.356
218.667
218.963
219.241
219.505
219.76
220.008
220.247
220.478
220.7
220.914
221.12
221.318
221.507
221.687
221.857
222.017
222.168
222.308
222.438
222.561
222.678
222.787
222.891
222.995
223.094
223.191
223.286
223.382
223.475
223.567
223.658
223.745
223.827
223.904
223.975
224.039
224.098
224.152
224.201
224.247
224.29
224.331
224.373
224.415
224.458
224.506
224.558
224.611
224.67
224.734
224.798
224.864
224.932
224.996
225.054
225.114
225.165
225.206
225.248
225.283
225.307
225.331
225.35
225.363
225.377
225.39
225.402
225.416
225.433
225.452
225.476
225.504
225.536
225.572
225.613
225.656
225.7
225.749
225.797
225.84
225.885
225.933
225.971
226.006
226.044
226.075
226.099
226.12
226.138
226.151
226.16
226.167
226.173
226.178
226.183
226.189
226.196
226.205
226.216
226.23
226.246
226.264
226.285
226.309
226.336
226.364
226.393
226.424
226.456
226.487
226.518
226.548
226.577
226.604
226.629
226.652
226.674
226.693
226.71
226.724
226.737
226.748
226.757
226.765
226.772
226.778
226.784
226.79
226.797
226.804
226.813
226.824
226.836
226.851
226.867
226.886
226.906
226.929
226.953
226.98
227.007
227.036
227.065
227.096
227.127
227.159
227.19
227.222
227.253
227.285
227.315
227.346
227.375
227.406
227.434
227.463
227.49
227.518
227.545
227.572
227.599
227.625
227.664
227.661
154.193
155.401
156.739
158.21
159.817
161.563
163.451
165.481
167.648
169.943
172.353
174.869
177.478
219.096
219.329
219.553
219.772
219.988
220.2
220.405
220.6
220.782
220.948
221.1
221.24
221.371
221.494
221.611
221.723
221.828
221.928
222.023
222.114
222.2
222.281
222.357
222.429
222.498
222.559
222.608
222.653
222.703
222.763
222.832
222.903
222.974
223.049
223.13
223.212
223.294
223.374
223.452
223.529
223.602
223.674
223.744
223.812
223.879
223.946
224.012
224.077
224.144
224.213
224.278
224.342
224.408
224.472
224.53
224.586
224.64
224.687
224.727
224.764
224.797
224.826
224.851
224.876
224.899
224.922
224.946
224.97
224.996
225.026
225.058
225.093
225.132
225.171
225.211
225.257
225.298
225.336
225.381
225.42
225.45
225.484
225.517
225.538
225.557
225.578
225.592
225.603
225.617
225.629
225.641
225.656
225.672
225.691
225.714
225.739
225.768
225.8
225.836
225.873
225.914
225.957
225.997
226.037
226.082
226.12
226.152
226.189
226.223
226.246
226.269
226.294
226.311
226.323
226.336
226.347
226.355
226.362
226.37
226.379
226.389
226.4
226.414
226.43
226.448
226.468
226.491
226.516
226.543
226.572
226.602
226.633
226.665
226.697
226.729
226.76
226.79
226.82
226.848
226.874
226.899
226.922
226.942
226.96
226.978
226.993
227.007
227.021
227.035
227.048
227.061
227.074
227.089
227.104
227.12
227.139
227.159
227.181
227.205
227.231
227.259
227.289
227.321
227.354
227.39
227.426
227.464
227.503
227.543
227.583
227.624
227.665
227.707
227.749
227.791
227.833
227.875
227.917
227.96
228.002
228.045
228.087
228.13
228.174
228.218
228.263
228.308
228.356
228.404
228.473
228.468
167.544
170.01
172.675
175.527
178.55
181.727
185.031
188.427
191.881
195.361
198.84
202.302
223.25
223.311
223.368
223.418
223.457
223.482
223.498
223.515
223.536
223.562
223.59
223.619
223.645
223.669
223.69
223.71
223.727
223.743
223.757
223.771
223.783
223.795
223.807
223.821
223.836
223.853
223.874
223.9
223.935
223.979
224.021
224.056
224.088
224.122
224.157
224.191
224.225
224.26
224.297
224.333
224.371
224.41
224.45
224.492
224.536
224.583
224.629
224.677
224.728
224.776
224.821
224.869
224.914
224.95
224.987
225.025
225.054
225.078
225.101
225.124
225.143
225.16
225.18
225.2
225.22
225.243
225.269
225.296
225.327
225.361
225.395
225.433
225.473
225.509
225.546
225.587
225.619
225.648
225.683
225.71
225.728
225.751
225.772
225.785
225.8
225.816
225.829
225.843
225.861
225.878
225.899
225.923
225.948
225.977
226.009
226.042
226.078
226.117
226.156
226.193
226.235
226.274
226.307
226.343
226.38
226.406
226.431
226.461
226.484
226.499
226.518
226.537
226.549
226.56
226.575
226.588
226.6
226.615
226.631
226.648
226.668
226.69
226.714
226.74
226.767
226.797
226.829
226.861
226.895
226.929
226.964
226.999
227.033
227.067
227.1
227.132
227.162
227.193
227.221
227.248
227.274
227.299
227.323
227.346
227.37
227.393
227.416
227.439
227.463
227.488
227.514
227.542
227.572
227.603
227.637
227.672
227.71
227.75
227.792
227.836
227.883
227.931
227.981
228.033
228.086
228.14
228.196
228.253
228.311
228.37
228.43
228.491
228.553
228.616
228.679
228.743
228.808
228.874
228.941
229.01
229.079
229.15
229.223
229.298
229.375
229.454
229.537
229.622
229.708
229.831
229.825
188.722
192.373
196.175
200.078
204.048
208.079
212.129
216.114
219.948
223.559
224.596
224.61
224.621
224.629
224.635
224.639
224.644
224.652
224.663
224.671
224.673
224.67
224.662
224.65
224.637
224.624
224.611
224.598
224.585
224.572
224.559
224.547
224.537
224.529
224.524
224.523
224.525
224.53
224.532
224.531
224.532
224.538
224.548
224.555
224.564
224.582
224.605
224.628
224.655
224.685
224.717
224.754
224.792
224.833
224.878
224.925
224.97
225.018
225.068
225.11
225.149
225.193
225.229
225.255
225.286
225.314
225.336
225.358
225.38
225.402
225.423
225.444
225.469
225.494
225.52
225.55
225.581
225.613
225.649
225.685
225.718
225.756
225.791
225.82
225.853
225.885
225.908
225.932
225.958
225.977
225.992
226.014
226.03
226.044
226.063
226.082
226.1
226.123
226.147
226.172
226.202
226.233
226.266
226.301
226.339
226.375
226.413
226.454
226.49
226.525
226.565
226.599
226.628
226.662
226.693
226.715
226.739
226.767
226.787
226.803
226.825
226.846
226.86
226.878
226.902
226.922
226.943
226.97
226.997
227.025
227.056
227.089
227.123
227.159
227.196
227.235
227.275
227.315
227.356
227.397
227.437
227.478
227.518
227.557
227.596
227.635
227.672
227.71
227.747
227.783
227.819
227.856
227.893
227.93
227.969
228.008
228.049
228.091
228.135
228.181
228.229
228.279
228.332
228.388
228.446
228.507
228.571
228.637
228.705
228.776
228.85
228.925
229.003
229.083
229.165
229.249
229.335
229.422
229.512
229.603
229.696
229.791
229.888
229.987
230.088
230.191
230.296
230.404
230.515
230.628
230.745
230.865
230.989
231.116
231.249
231.385
231.526
231.671
231.817
232.019
232.008
221.914
225.729
229.394
232.805
235.869
238.54
240.814
242.707
244.245
225.337
225.332
225.326
225.316
225.302
225.286
225.262
225.229
225.196
225.169
225.146
225.125
225.104
225.083
225.062
225.042
225.023
225.005
224.988
224.971
224.956
224.943
224.933
224.926
224.921
224.92
224.921
224.927
224.937
224.945
224.952
224.961
224.973
224.987
225.001
225.016
225.036
225.06
225.086
225.115
225.148
225.183
225.22
225.261
225.3
225.338
225.381
225.42
225.452
225.487
225.522
225.548
225.574
225.603
225.626
225.647
225.67
225.692
225.715
225.739
225.765
225.794
225.822
225.853
225.887
225.918
225.95
225.987
226.018
226.049
226.084
226.113
226.137
226.167
226.192
226.211
226.234
226.257
226.273
226.294
226.317
226.335
226.357
226.383
226.408
226.435
226.466
226.498
226.53
226.567
226.604
226.641
226.682
226.722
226.76
226.801
226.842
226.877
226.913
226.952
226.983
227.012
227.046
227.076
227.1
227.128
227.158
227.182
227.207
227.237
227.266
227.292
227.323
227.359
227.392
227.427
227.468
227.509
227.551
227.595
227.642
227.689
227.739
227.789
227.84
227.892
227.944
227.997
228.05
228.103
228.156
228.209
228.263
228.317
228.371
228.425
228.48
228.535
228.592
228.649
228.708
228.769
228.831
228.896
228.963
229.032
229.104
229.179
229.257
229.338
229.423
229.511
229.603
229.698
229.796
229.897
230.002
230.11
230.222
230.336
230.453
230.574
230.698
230.824
230.954
231.087
231.223
231.362
231.504
231.649
231.798
231.95
232.107
232.267
232.431
232.599
232.772
232.95
233.133
233.322
233.516
233.717
233.923
234.137
234.357
234.583
234.812
235.04
235.34
235.31
248.405
249.633
225.849
225.84
225.826
225.809
225.791
225.774
225.761
225.749
225.733
225.709
225.684
225.658
225.632
225.607
225.583
225.559
225.536
225.515
225.494
225.475
225.458
225.444
225.431
225.421
225.413
225.407
225.4
225.391
225.38
225.372
225.371
225.373
225.377
225.384
225.396
225.412
225.433
225.453
225.474
225.503
225.535
225.566
225.601
225.638
225.67
225.704
225.743
225.773
225.802
225.837
225.866
225.89
225.92
225.948
225.971
225.998
226.026
226.052
226.08
226.109
226.141
226.172
226.202
226.236
226.269
226.298
226.332
226.366
226.393
226.423
226.454
226.479
226.504
226.532
226.555
226.576
226.603
226.627
226.648
226.676
226.704
226.729
226.762
226.795
226.827
226.864
226.904
226.942
226.982
227.026
227.068
227.109
227.155
227.197
227.237
227.281
227.324
227.361
227.402
227.442
227.479
227.515
227.554
227.592
227.627
227.664
227.704
227.742
227.782
227.826
227.87
227.915
227.964
228.016
228.069
228.123
228.181
228.241
228.302
228.366
228.431
228.498
228.566
228.636
228.707
228.778
228.851
228.925
228.999
229.075
229.151
229.229
229.307
229.387
229.468
229.551
229.636
229.723
229.813
229.905
230
230.097
230.199
230.303
230.412
230.524
230.641
230.762
230.887
231.016
231.15
231.289
231.432
231.579
231.731
231.887
232.048
232.213
232.382
232.556
232.734
232.916
233.103
233.295
233.491
233.692
233.897
234.108
234.323
234.544
234.77
235.002
235.24
235.484
235.734
235.991
236.255
236.527
236.806
237.093
237.389
237.693
238.005
238.327
238.654
238.989
239.32
239.645
240.042
239.966
226.432
226.423
226.411
226.398
226.38
226.359
226.334
226.307
226.276
226.242
226.207
226.174
226.143
226.114
226.086
226.06
226.035
226.012
225.99
225.97
225.952
225.935
225.919
225.905
225.893
225.882
225.872
225.865
225.86
225.858
225.858
225.858
225.863
225.87
225.88
225.894
225.911
225.931
225.953
225.982
226.006
226.031
226.061
226.09
226.116
226.148
226.178
226.203
226.233
226.264
226.29
226.318
226.35
226.376
226.405
226.437
226.467
226.498
226.529
226.561
226.595
226.626
226.658
226.693
226.726
226.755
226.789
226.821
226.849
226.879
226.91
226.936
226.964
226.994
227.021
227.05
227.083
227.113
227.144
227.181
227.217
227.253
227.295
227.337
227.378
227.424
227.471
227.517
227.566
227.616
227.666
227.715
227.766
227.817
227.866
227.917
227.968
228.017
228.066
228.117
228.168
228.219
228.271
228.324
228.378
228.433
228.492
228.552
228.614
228.679
228.746
228.817
228.889
228.965
229.044
229.125
229.209
229.295
229.383
229.474
229.567
229.662
229.76
229.859
229.96
230.062
230.167
230.273
230.382
230.492
230.605
230.72
230.838
230.958
231.082
231.209
231.339
231.473
231.611
231.754
231.901
232.053
232.21
232.372
232.539
232.712
232.89
233.074
233.264
233.459
233.66
233.867
234.08
234.299
234.523
234.753
234.989
235.231
235.478
235.732
235.992
236.257
236.529
236.807
237.091
237.382
237.68
237.985
238.297
238.617
238.944
239.279
239.622
239.974
240.334
240.703
241.082
241.47
241.868
242.276
242.694
243.123
243.561
244.008
244.457
244.91
245.348
245.77
246.229
246.064
227.059
227.052
227.041
227.024
227.002
226.975
226.946
226.916
226.885
226.853
226.821