/*--------------------------------*- C++ -*----------------------------------*\
| =========                 |                                                 |
| \\      /  F ield         | OpenFOAM: The Open Source CFD Toolbox           |
|  \\    /   O peration     | Version:  v1706                                 |
|   \\  /    A nd           | Web:      www.OpenFOAM.com                      |
|    \\/     M anipulation  |                                                 |
\*---------------------------------------------------------------------------*/
FoamFile
{
    version     2.0;
    format      ascii;
    class       volVectorField;
    location    "1.9e-05";
    object      U;
}
// * * * * * * * * * * * * * * * * * * * * * * * * * * * * * * * * * * * * * //

dimensions      [0 1 -1 0 0 0 0];


internalField   nonuniform List<vector> 
30104
(
(978.58 0.000128953 4.02163e-15)
(978.58 0.000147761 6.45064e-15)
(978.58 0.000168907 5.53795e-15)
(978.58 0.000192638 4.20208e-15)
(978.58 0.000219252 5.33951e-15)
(978.58 0.000249092 4.43139e-15)
(978.58 0.000282529 1.43001e-15)
(978.58 0.000319915 2.42466e-15)
(978.58 0.000361543 5.67597e-15)
(978.58 0.00040762 7.29094e-15)
(978.58 0.000458292 5.36085e-15)
(978.58 0.000513704 4.46793e-15)
(978.58 0.000574104 2.88424e-15)
(978.579 0.000639915 4.89342e-15)
(978.579 0.000711773 6.63017e-15)
(978.579 0.000790481 6.54501e-15)
(978.579 0.000876898 5.52658e-15)
(978.578 0.00265774 3.04536e-15)
(978.578 0.0026884 4.02206e-15)
(978.578 0.00272014 3.97277e-15)
(978.578 0.00275302 3.72961e-15)
(978.578 0.00278712 3.64301e-15)
(978.578 0.00282255 3.57547e-15)
(978.578 0.00285939 3.36024e-15)
(978.578 0.00289775 4.74904e-15)
(978.578 0.0029377 3.86642e-15)
(978.578 0.0029793 2.9498e-15)
(978.578 0.00302258 3.19146e-15)
(978.578 0.00306759 3.05916e-15)
(978.578 0.00311437 5.0136e-15)
(978.578 0.00316294 3.62705e-15)
(978.578 0.00321332 1.14792e-15)
(978.578 0.00326553 2.46585e-15)
(978.578 0.00331959 2.64322e-15)
(978.578 0.00337548 3.39662e-15)
(978.578 0.00343321 4.53135e-15)
(978.578 0.00349275 2.70752e-15)
(978.578 0.00355408 5.0309e-15)
(978.578 0.00361716 4.51784e-15)
(978.578 0.0036819 2.7901e-15)
(978.578 0.00374824 2.88281e-15)
(978.578 0.00381608 2.77349e-15)
(978.577 0.00388534 2.9464e-15)
(978.577 0.00395588 2.87898e-15)
(978.577 0.00402756 2.97463e-15)
(978.577 0.00410016 3.08955e-15)
(978.577 0.00417348 3.20291e-15)
(978.577 0.00424729 1.95777e-15)
(978.577 0.00432135 4.04211e-15)
(978.577 0.00439545 4.0943e-15)
(978.577 0.00446935 3.03057e-15)
(978.577 0.00454283 2.07658e-15)
(978.577 0.00461571 2.73297e-15)
(978.577 0.00468786 4.34938e-15)
(978.577 0.00475923 2.44412e-15)
(978.577 0.00482983 3.46577e-15)
(978.577 0.00489976 3.78808e-15)
(978.577 0.00496914 2.87836e-15)
(978.577 0.00503815 3.72594e-15)
(978.577 0.005107 3.66255e-15)
(978.577 0.0051759 4.77313e-15)
(978.577 0.00524504 4.64144e-15)
(978.577 0.0053146 3.39323e-15)
(978.577 0.00538473 3.38289e-15)
(978.576 0.00545554 2.9364e-15)
(978.576 0.00552711 2.86443e-15)
(978.576 0.0055995 1.5498e-15)
(978.576 0.00567271 4.11623e-15)
(978.576 0.00574679 2.29523e-15)
(978.576 0.00582174 1.35798e-15)
(978.576 0.0058976 2.86239e-15)
(978.576 0.00597442 3.44551e-15)
(978.576 0.00605228 1.7253e-15)
(978.576 0.0061313 3.51273e-15)
(978.576 0.00621163 2.84379e-15)
(978.576 0.00629347 2.27428e-15)
(978.576 0.00637707 2.02609e-15)
(978.576 0.00646272 2.10009e-15)
(978.576 0.00655073 3.91001e-15)
(978.576 0.0066414 3.31904e-15)
(978.576 0.00673505 2.79138e-15)
(978.576 0.00683195 4.68611e-15)
(978.576 0.00693233 3.63857e-15)
(978.575 0.00703637 3.59177e-15)
(978.575 0.00714417 3.9745e-15)
(978.575 0.00725577 3.64592e-15)
(978.575 0.00737111 3.88021e-15)
(978.575 0.0074901 2.96324e-15)
(978.575 0.00761258 3.04076e-15)
(978.575 0.00773834 2.92605e-15)
(978.575 0.00786718 1.69802e-15)
(978.575 0.0079989 3.92661e-15)
(978.575 0.00813328 3.84394e-15)
(978.575 0.00827018 3.02213e-15)
(978.575 0.00840947 4.15106e-16)
(978.574 0.0085511 6.48183e-16)
(978.574 0.00869505 2.8435e-15)
(978.574 0.00884139 1.42553e-15)
(978.574 0.00899022 2.70172e-15)
(978.574 0.0091417 1.43125e-15)
(978.574 0.00929595 1.74322e-15)
(978.574 0.00945314 4.33676e-15)
(978.574 0.00961338 3.84764e-15)
(978.574 0.00977671 2.7801e-15)
(978.574 0.00994309 2.05913e-15)
(978.574 0.0101124 2.77029e-15)
(978.573 0.0102845 3.54777e-15)
(978.573 0.0104589 3.09173e-15)
(978.573 0.0106354 3.55897e-15)
(978.573 0.0108134 3.87566e-15)
(978.573 0.0109925 2.26176e-15)
(978.573 0.011172 9.96424e-16)
(978.573 0.0113517 2.53101e-15)
(978.573 0.0115309 4.70431e-16)
(978.573 0.0117094 8.24378e-16)
(978.572 0.0118869 2.71275e-15)
(978.572 0.0120633 2.90609e-15)
(978.572 0.0122386 3.02722e-15)
(978.572 0.0124131 2.68931e-15)
(978.572 0.012587 2.07041e-15)
(978.572 0.0127607 2.36947e-15)
(978.572 0.0129348 2.4e-15)
(978.572 0.0131097 2.51989e-15)
(978.571 0.013286 1.47398e-15)
(978.571 0.0134644 1.5228e-15)
(978.571 0.0136454 3.78282e-15)
(978.571 0.0138293 3.61995e-15)
(978.571 0.0140165 2.93205e-15)
(978.571 0.0142072 3.16695e-15)
(978.571 0.0144012 2.97346e-15)
(978.571 0.0145985 2.45947e-15)
(978.57 0.0147988 1.75656e-15)
(978.57 0.0150016 2.38891e-15)
(978.57 0.0152065 2.70161e-15)
(978.57 0.0154129 3.00086e-15)
(978.57 0.0156203 2.79495e-15)
(978.57 0.0158283 2.58987e-15)
(978.57 0.0160363 2.5554e-15)
(978.57 0.0162444 1.60339e-15)
(978.569 0.0164524 3.45291e-15)
(978.569 0.0166604 2.70435e-15)
(978.569 0.016869 1.6711e-16)
(978.569 0.0170787 2.70305e-16)
(978.569 0.0172904 1.03911e-15)
(978.569 0.0175048 1.37699e-15)
(978.569 0.0177232 1.87968e-15)
(978.568 0.0179467 1.82439e-15)
(978.568 0.0181762 2.26033e-15)
(978.568 0.0184129 2.46073e-15)
(978.568 0.0186576 2.1266e-15)
(978.568 0.0189112 2.41151e-15)
(978.568 0.0191743 1.76152e-15)
(978.567 0.0194472 2.5259e-15)
(978.567 0.0197302 1.41595e-15)
(978.567 0.0200235 2.64882e-15)
(978.567 0.0203271 2.30021e-15)
(978.567 0.0206409 2.20101e-15)
(978.566 0.0209648 3.49476e-15)
(978.566 0.0212989 3.45969e-15)
(978.566 0.0216433 2.80229e-15)
(978.566 0.0219982 2.7366e-15)
(978.566 0.0223639 1.75826e-15)
(978.565 0.0227412 2.62755e-15)
(978.565 0.0231309 3.70581e-15)
(978.565 0.0235341 2.68935e-15)
(978.565 0.023952 1.5778e-15)
(978.564 0.0243862 2.19607e-15)
(978.564 0.0248383 2.82303e-15)
(978.564 0.0253099 1.51236e-15)
(978.563 0.0258027 2.48421e-15)
(978.563 0.0263183 2.11614e-15)
(978.563 0.0268581 2.74603e-15)
(978.562 0.0274235 3.18997e-15)
(978.562 0.0280154 2.78101e-15)
(978.562 0.0286344 3.04398e-15)
(978.561 0.0292806 2.08946e-15)
(978.561 0.0299537 1.37434e-15)
(978.56 0.0306528 1.34633e-15)
(978.56 0.0313766 2.06882e-15)
(978.56 0.0321232 1.02453e-15)
(978.559 0.0328904 2.26294e-15)
(978.559 0.0336755 2.1282e-15)
(978.558 0.0344758 2.65852e-15)
(978.558 0.0352883 3.40568e-15)
(978.557 0.0361099 2.17844e-15)
(978.557 0.036938 1.54028e-15)
(978.556 0.0377693 1.01108e-15)
(978.556 0.0386021 2.96018e-15)
(978.556 0.0394331 2.00819e-15)
(978.555 0.0402615 2.05191e-15)
(978.555 0.0410845 1.78904e-15)
(978.554 0.0419019 1.36177e-15)
(978.554 0.0427116 1.26932e-15)
(978.553 0.043514 2.36901e-15)
(978.553 0.0443074 1.66703e-15)
(978.552 0.0450924 1.40106e-15)
(978.552 0.0458684 1.47097e-15)
(978.551 0.0466351 1.53522e-15)
(978.551 0.047393 2.11356e-15)
(978.551 0.0481409 2.59402e-15)
(978.55 0.0488798 2.2707e-15)
(978.55 0.0496077 2.8954e-15)
(978.549 0.0503253 2.11209e-15)
(978.549 0.0510298 1.92759e-15)
(978.548 0.0517242 2.72151e-15)
(978.548 0.0523942 2.90582e-15)
(978.547 0.0530689 2.50024e-15)
(978.547 0.0537146 2.25181e-15)
(978.547 0.0537509 2.014e-15)
(978.551 0.0496191 2.05588e-15)
(978.579 0.00068628 1.40386e-14)
(978.579 0.000788074 1.3931e-14)
(978.579 0.000903226 1.19849e-14)
(978.579 0.00103308 1.21683e-14)
(978.579 0.00117894 1.2906e-14)
(978.579 0.00134212 1.25846e-14)
(978.579 0.001524 1.18533e-14)
(978.578 0.00172626 1.36711e-14)
(978.578 0.00195094 1.50643e-14)
(978.578 0.00220053 1.35192e-14)
(978.578 0.0024778 1.37383e-14)
(978.578 0.00278554 1.5657e-14)
(978.577 0.00312617 1.64022e-14)
(978.577 0.00350139 1.47664e-14)
(978.577 0.00391219 1.4609e-14)
(978.576 0.00435897 1.41473e-14)
(978.576 0.0048421 1.20084e-14)
(978.569 0.0168101 6.17295e-15)
(978.569 0.0170547 8.93201e-15)
(978.569 0.0173047 1.0749e-14)
(978.569 0.0175594 1.02356e-14)
(978.568 0.0178186 9.83909e-15)
(978.568 0.0180819 9.68365e-15)
(978.568 0.0183494 8.2201e-15)
(978.568 0.0186211 1.02364e-14)
(978.568 0.0188974 1.07024e-14)
(978.567 0.0191787 7.98182e-15)
(978.567 0.0194656 6.40915e-15)
(978.567 0.0197589 8.40183e-15)
(978.567 0.0200592 8.74112e-15)
(978.567 0.0203672 7.65393e-15)
(978.566 0.0206834 5.38203e-15)
(978.566 0.0210084 7.19841e-15)
(978.566 0.0213428 7.50333e-15)
(978.566 0.0216868 8.44927e-15)
(978.566 0.0220409 1.10274e-14)
(978.565 0.0224052 9.55357e-15)
(978.565 0.0227799 1.05738e-14)
(978.565 0.0231649 1.04522e-14)
(978.564 0.0235602 9.51737e-15)
(978.564 0.0239658 9.32608e-15)
(978.564 0.0243813 8.56295e-15)
(978.564 0.0248065 8.256e-15)
(978.563 0.0252408 8.04042e-15)
(978.563 0.0256839 7.77892e-15)
(978.563 0.0261355 7.82517e-15)
(978.562 0.0265956 8.00799e-15)
(978.562 0.0270639 7.11942e-15)
(978.562 0.0275403 9.61847e-15)
(978.562 0.0280246 8.21099e-15)
(978.561 0.028517 7.6259e-15)
(978.561 0.0290178 5.74105e-15)
(978.561 0.0295271 8.57926e-15)
(978.56 0.0300452 9.18639e-15)
(978.56 0.0305722 7.36569e-15)
(978.56 0.0311082 7.91872e-15)
(978.559 0.031653 1.00149e-14)
(978.559 0.0322065 9.20493e-15)
(978.559 0.0327683 1.04893e-14)
(978.558 0.0333383 7.76952e-15)
(978.558 0.0339163 8.66907e-15)
(978.557 0.034502 1.05656e-14)
(978.557 0.0350955 8.43644e-15)
(978.557 0.0356967 6.11891e-15)
(978.556 0.0363058 7.00865e-15)
(978.556 0.0369232 8.91139e-15)
(978.555 0.0375491 6.66465e-15)
(978.555 0.0381841 8.21525e-15)
(978.555 0.0388287 8.38414e-15)
(978.554 0.0394834 7.94781e-15)
(978.554 0.0401487 7.70155e-15)
(978.553 0.0408249 5.15561e-15)
(978.553 0.0415125 6.62262e-15)
(978.552 0.0422115 8.26737e-15)
(978.552 0.0429221 8.60825e-15)
(978.552 0.0436441 9.46309e-15)
(978.551 0.044377 7.14415e-15)
(978.551 0.0451202 6.22538e-15)
(978.55 0.045873 7.03778e-15)
(978.55 0.0466345 7.15402e-15)
(978.549 0.0474036 7.23962e-15)
(978.549 0.0481795 9.18601e-15)
(978.548 0.048961 8.23083e-15)
(978.548 0.0497477 6.49953e-15)
(978.547 0.0505388 6.39592e-15)
(978.547 0.0513344 8.41937e-15)
(978.546 0.0521344 7.62305e-15)
(978.546 0.0529396 7.56911e-15)
(978.545 0.0537507 7.03012e-15)
(978.544 0.0545689 6.71358e-15)
(978.544 0.0553956 7.24604e-15)
(978.543 0.0562322 1.01092e-14)
(978.543 0.0570802 7.7498e-15)
(978.542 0.0579412 6.51062e-15)
(978.542 0.0588166 5.40468e-15)
(978.541 0.0597075 5.94596e-15)
(978.54 0.0606149 5.62393e-15)
(978.54 0.0615394 4.11024e-15)
(978.539 0.0624812 5.35493e-15)
(978.539 0.0634403 6.36599e-15)
(978.538 0.0644164 7.74183e-15)
(978.537 0.0654089 7.82241e-15)
(978.537 0.0664171 7.21151e-15)
(978.536 0.0674408 5.52106e-15)
(978.535 0.0684796 5.96482e-15)
(978.535 0.0695334 7.34445e-15)
(978.534 0.0706029 7.12057e-15)
(978.533 0.0716889 7.77937e-15)
(978.532 0.072793 7.25245e-15)
(978.532 0.0739173 6.65404e-15)
(978.531 0.0750642 4.62185e-15)
(978.53 0.0762368 3.39344e-15)
(978.529 0.0774382 5.81019e-15)
(978.529 0.0786718 2.99353e-15)
(978.528 0.0799408 5.39209e-15)
(978.527 0.0812483 6.89327e-15)
(978.526 0.0825969 4.94322e-15)
(978.525 0.0839886 6.14544e-15)
(978.524 0.085425 4.71977e-15)
(978.523 0.0869071 5.73633e-15)
(978.522 0.0884353 6.88992e-15)
(978.521 0.0900092 7.15676e-15)
(978.52 0.0916283 5.74649e-15)
(978.519 0.0932913 5.43959e-15)
(978.518 0.0949968 6.79795e-15)
(978.517 0.0967434 6.01551e-15)
(978.516 0.0985296 6.37035e-15)
(978.514 0.100355 9.06746e-15)
(978.513 0.102217 8.72326e-15)
(978.512 0.104118 5.40765e-15)
(978.511 0.106056 6.20766e-15)
(978.51 0.108034 6.01004e-15)
(978.508 0.110052 5.25053e-15)
(978.507 0.112112 7.94248e-15)
(978.506 0.114218 8.08336e-15)
(978.504 0.116371 6.30972e-15)
(978.503 0.118573 6.86158e-15)
(978.501 0.120829 4.77255e-15)
(978.5 0.123138 5.24238e-15)
(978.498 0.125503 9.06224e-15)
(978.497 0.127924 7.33249e-15)
(978.495 0.1304 4.46794e-15)
(978.494 0.132931 4.1095e-15)
(978.492 0.135513 4.03692e-15)
(978.491 0.138143 4.21791e-15)
(978.489 0.140818 3.68158e-15)
(978.487 0.143532 5.16171e-15)
(978.485 0.146281 6.36857e-15)
(978.484 0.14906 3.76934e-15)
(978.482 0.151865 4.97767e-15)
(978.48 0.154692 5.37652e-15)
(978.478 0.157536 6.6315e-15)
(978.477 0.160397 6.88714e-15)
(978.475 0.163272 5.36174e-15)
(978.473 0.166163 4.86973e-15)
(978.471 0.16907 5.85888e-15)
(978.469 0.171995 6.97676e-15)
(978.467 0.174942 7.37097e-15)
(978.465 0.177915 7.12786e-15)
(978.463 0.180919 6.67557e-15)
(978.461 0.183956 6.32175e-15)
(978.459 0.187032 6.34348e-15)
(978.457 0.19015 5.66935e-15)
(978.455 0.193313 5.23608e-15)
(978.453 0.196523 6.33942e-15)
(978.451 0.19978 4.81595e-15)
(978.449 0.203083 4.9723e-15)
(978.447 0.206431 5.26832e-15)
(978.444 0.209819 5.34901e-15)
(978.442 0.213245 6.57158e-15)
(978.44 0.216703 6.26968e-15)
(978.437 0.220188 5.96961e-15)
(978.435 0.223693 6.53108e-15)
(978.433 0.227214 5.6615e-15)
(978.43 0.230745 6.96532e-15)
(978.428 0.234284 5.9796e-15)
(978.426 0.237826 4.67026e-15)
(978.423 0.241372 5.90308e-15)
(978.421 0.244922 4.84863e-15)
(978.418 0.24848 4.42941e-15)
(978.416 0.25205 4.16388e-15)
(978.414 0.25564 3.41378e-15)
(978.411 0.25926 5.02744e-15)
(978.409 0.262918 6.57023e-15)
(978.407 0.266629 6.47166e-15)
(978.404 0.270403 5.39415e-15)
(978.402 0.274256 6.08383e-15)
(978.399 0.278196 4.85068e-15)
(978.397 0.282245 3.6834e-15)
(978.394 0.286402 5.46704e-15)
(978.391 0.290693 5.61492e-15)
(978.389 0.295111 4.61116e-15)
(978.386 0.299683 4.99639e-15)
(978.383 0.3044 4.95842e-15)
(978.38 0.309284 4.7152e-15)
(978.377 0.314329 4.39002e-15)
(978.373 0.319549 4.00216e-15)
(978.37 0.324948 4.41384e-15)
(978.366 0.330525 4.18466e-15)
(978.362 0.336303 4.52026e-15)
(978.358 0.342268 4.38695e-15)
(978.354 0.348454 3.47426e-15)
(978.35 0.354848 4.17886e-15)
(978.346 0.361489 6.35873e-15)
(978.341 0.368342 6.63993e-15)
(978.336 0.375583 6.90546e-15)
(978.331 0.382725 6.53627e-15)
(978.326 0.391434 5.64609e-15)
(978.324 0.398781 4.17951e-15)
(978.341 0.383112 4.03489e-15)
(978.578 0.00210449 2.05369e-14)
(978.578 0.00241779 2.19827e-14)
(978.577 0.00277149 2.08859e-14)
(978.577 0.00317021 2.12824e-14)
(978.577 0.00361922 2.23534e-14)
(978.576 0.00412416 2.05892e-14)
(978.576 0.00469075 2.03973e-14)
(978.575 0.00532433 2.0864e-14)
(978.574 0.0060297 2.11199e-14)
(978.574 0.0068112 2.04913e-14)
(978.573 0.00767324 2.17916e-14)
(978.572 0.00862114 2.24465e-14)
(978.571 0.00966187 2.0023e-14)
(978.57 0.0108044 2.08418e-14)
(978.569 0.0120593 2.30336e-14)
(978.568 0.0134378 2.22405e-14)
(978.543 0.0569763 1.39724e-14)
(978.542 0.0577931 1.46566e-14)
(978.542 0.0586312 1.49812e-14)
(978.541 0.0594913 1.51483e-14)
(978.54 0.0603745 1.54629e-14)
(978.54 0.0612825 1.46442e-14)
(978.539 0.0622176 1.42644e-14)
(978.538 0.0631822 1.66977e-14)
(978.538 0.0641787 1.44718e-14)
(978.537 0.0652093 1.4965e-14)
(978.536 0.066276 1.54582e-14)
(978.536 0.0673807 1.44889e-14)
(978.535 0.0685255 1.52889e-14)
(978.534 0.0697122 1.365e-14)
(978.533 0.0709428 1.08651e-14)
(978.532 0.0722187 1.1673e-14)
(978.531 0.0735413 1.16241e-14)
(978.531 0.0749117 1.39616e-14)
(978.53 0.0763307 1.4227e-14)
(978.529 0.0777986 1.19719e-14)
(978.528 0.0793154 1.4341e-14)
(978.527 0.080881 1.43142e-14)
(978.525 0.0824943 1.34809e-14)
(978.524 0.0841541 1.3567e-14)
(978.523 0.0858588 1.36543e-14)
(978.522 0.0876072 1.30054e-14)
(978.521 0.0893976 1.30658e-14)
(978.52 0.0912281 1.25733e-14)
(978.519 0.0930959 1.24925e-14)
(978.517 0.0949979 1.35047e-14)
(978.516 0.0969313 1.24333e-14)
(978.515 0.0988934 1.29831e-14)
(978.514 0.100881 1.2532e-14)
(978.512 0.102891 1.23503e-14)
(978.511 0.10492 1.19601e-14)
(978.51 0.106964 1.45599e-14)
(978.508 0.10902 1.04436e-14)
(978.507 0.111085 1.21802e-14)
(978.506 0.113158 1.34835e-14)
(978.504 0.115237 1.30618e-14)
(978.503 0.117324 1.3643e-14)
(978.502 0.119418 1.52535e-14)
(978.5 0.121521 1.16302e-14)
(978.499 0.123637 1.33786e-14)
(978.497 0.125768 1.23728e-14)
(978.496 0.127918 1.27681e-14)
(978.495 0.13009 1.40224e-14)
(978.493 0.132289 1.40063e-14)
(978.492 0.134517 1.29324e-14)
(978.49 0.136779 1.11848e-14)
(978.489 0.139076 1.10267e-14)
(978.487 0.141412 1.17501e-14)
(978.486 0.143789 1.13345e-14)
(978.484 0.146208 1.08232e-14)
(978.482 0.14867 1.23955e-14)
(978.481 0.151175 1.38549e-14)
(978.479 0.153726 1.09653e-14)
(978.477 0.156321 1.21548e-14)
(978.476 0.158962 1.38279e-14)
(978.474 0.161649 1.24343e-14)
(978.472 0.164385 1.21987e-14)
(978.47 0.167172 1.18265e-14)
(978.468 0.170014 1.2405e-14)
(978.467 0.172915 1.19843e-14)
(978.465 0.17588 9.43913e-15)
(978.463 0.178914 1.0254e-14)
(978.461 0.182024 1.31668e-14)
(978.459 0.185216 1.11453e-14)
(978.456 0.188496 1.16364e-14)
(978.454 0.191868 1.35895e-14)
(978.452 0.195336 1.079e-14)
(978.45 0.198904 1.13864e-14)
(978.447 0.202573 1.23834e-14)
(978.445 0.206344 1.23031e-14)
(978.442 0.210217 1.04914e-14)
(978.44 0.214192 1.01659e-14)
(978.437 0.218266 1.22605e-14)
(978.434 0.222437 1.0558e-14)
(978.432 0.226702 1.0041e-14)
(978.429 0.231059 8.94225e-15)
(978.426 0.235506 1.03421e-14)
(978.423 0.240044 1.14922e-14)
(978.42 0.244671 1.22713e-14)
(978.417 0.249388 1.11827e-14)
(978.414 0.254199 1.12822e-14)
(978.411 0.259108 1.10544e-14)
(978.407 0.264118 9.9495e-15)
(978.404 0.269235 9.2609e-15)
(978.401 0.274462 9.37994e-15)
(978.397 0.279804 1.04138e-14)
(978.394 0.285263 1.23622e-14)
(978.39 0.29084 1.05517e-14)
(978.387 0.296535 9.49772e-15)
(978.383 0.302344 9.80982e-15)
(978.379 0.308262 8.01551e-15)
(978.375 0.314283 9.14777e-15)
(978.372 0.320398 8.27219e-15)
(978.368 0.326598 1.09435e-14)
(978.364 0.332872 9.65879e-15)
(978.359 0.339213 8.74838e-15)
(978.355 0.345613 9.68547e-15)
(978.351 0.352065 9.56636e-15)
(978.347 0.358566 9.0784e-15)
(978.343 0.365115 1.10234e-14)
(978.338 0.371714 1.12082e-14)
(978.334 0.378369 7.9532e-15)
(978.329 0.385088 8.74651e-15)
(978.325 0.391883 1.15718e-14)
(978.32 0.398768 1.01699e-14)
(978.316 0.405758 1.14962e-14)
(978.311 0.412868 1.20474e-14)
(978.306 0.420114 1.07486e-14)
(978.301 0.427511 8.90632e-15)
(978.296 0.43507 9.80819e-15)
(978.291 0.442803 9.76115e-15)
(978.286 0.450717 9.63981e-15)
(978.28 0.458815 1.02507e-14)
(978.275 0.467099 1.05713e-14)
(978.269 0.475567 9.71098e-15)
(978.264 0.484212 1.01937e-14)
(978.258 0.493029 1.01944e-14)
(978.252 0.502007 9.47249e-15)
(978.246 0.511139 1.05791e-14)
(978.24 0.520415 1.04254e-14)
(978.234 0.529828 9.66874e-15)
(978.227 0.539375 8.74989e-15)
(978.221 0.549055 8.06962e-15)
(978.215 0.558869 8.93852e-15)
(978.208 0.568825 6.34988e-15)
(978.202 0.578934 7.66926e-15)
(978.195 0.58921 8.36609e-15)
(978.188 0.59967 7.98675e-15)
(978.181 0.610336 1.05204e-14)
(978.174 0.621229 9.03607e-15)
(978.167 0.632371 9.01037e-15)
(978.159 0.643785 9.24449e-15)
(978.152 0.655492 9.15013e-15)
(978.144 0.66751 9.33436e-15)
(978.136 0.679856 1.04814e-14)
(978.128 0.692542 9.14901e-15)
(978.119 0.705579 8.95732e-15)
(978.111 0.718974 9.21778e-15)
(978.102 0.732734 9.31215e-15)
(978.092 0.746862 8.98352e-15)
(978.083 0.761364 8.06555e-15)
(978.073 0.776244 7.82015e-15)
(978.063 0.791511 8.58043e-15)
(978.053 0.807174 9.93625e-15)
(978.042 0.823248 8.40449e-15)
(978.031 0.839753 8.01704e-15)
(978.02 0.856711 8.47968e-15)
(978.009 0.874154 8.05978e-15)
(977.997 0.892114 8.53828e-15)
(977.985 0.910634 6.84092e-15)
(977.973 0.929755 6.80124e-15)
(977.96 0.949529 8.84634e-15)
(977.947 0.970002 8.83178e-15)
(977.933 0.991231 8.83265e-15)
(977.919 1.01326 7.48727e-15)
(977.904 1.03614 7.58936e-15)
(977.889 1.0599 7.61871e-15)
(977.874 1.08459 5.93764e-15)
(977.858 1.11022 6.77366e-15)
(977.841 1.13681 7.55231e-15)
(977.825 1.16435 7.96151e-15)
(977.807 1.19284 8.12306e-15)
(977.789 1.22225 7.35305e-15)
(977.771 1.25254 7.7746e-15)
(977.753 1.28366 1.03364e-14)
(977.734 1.31554 7.77592e-15)
(977.715 1.34815 7.56911e-15)
(977.695 1.38136 8.79425e-15)
(977.675 1.41516 9.00591e-15)
(977.655 1.44939 7.72408e-15)
(977.634 1.48408 7.34861e-15)
(977.614 1.51901 7.01921e-15)
(977.593 1.55429 8.12776e-15)
(977.572 1.58967 7.26438e-15)
(977.55 1.62527 6.47071e-15)
(977.528 1.6609 5.8746e-15)
(977.506 1.69663 7.01099e-15)
(977.484 1.73238 6.48659e-15)
(977.462 1.76812 7.46593e-15)
(977.439 1.80394 7.49999e-15)
(977.416 1.83969 7.26958e-15)
(977.393 1.87555 8.30608e-15)
(977.37 1.91144 6.95048e-15)
(977.346 1.94736 7.01702e-15)
(977.322 1.98355 8.80182e-15)
(977.298 2.01908 7.04577e-15)
(977.273 2.0579 7.06945e-15)
(977.258 2.09839 7.57399e-15)
(977.33 2.03721 7.21118e-15)
(978.574 0.00577493 2.92895e-14)
(978.573 0.00663993 2.78897e-14)
(978.572 0.00761869 2.82836e-14)
(978.571 0.00872174 3.11569e-14)
(978.57 0.0099597 2.94592e-14)
(978.569 0.0113442 2.68906e-14)
(978.568 0.0128891 2.8874e-14)
(978.566 0.0146111 2.85382e-14)
(978.564 0.0165301 2.77748e-14)
(978.562 0.0186686 2.99298e-14)
(978.56 0.0210488 3.2399e-14)
(978.558 0.0236907 3.03015e-14)
(978.555 0.0266091 2.87284e-14)
(978.553 0.0298142 2.82801e-14)
(978.55 0.033313 2.8741e-14)
(978.547 0.0371124 2.8044e-14)
(978.47 0.167986 2.00118e-14)
(978.468 0.17085 1.8805e-14)
(978.466 0.173788 1.97057e-14)
(978.464 0.176794 1.92237e-14)
(978.462 0.179868 2.1586e-14)
(978.46 0.183007 2.06633e-14)
(978.458 0.186211 1.83153e-14)
(978.456 0.189479 1.9402e-14)
(978.453 0.192813 2.08447e-14)
(978.451 0.196219 2.10172e-14)
(978.449 0.199701 1.89948e-14)
(978.446 0.203267 1.95902e-14)
(978.444 0.206923 1.84096e-14)
(978.441 0.210678 1.9273e-14)
(978.439 0.214536 1.97535e-14)
(978.436 0.218505 1.8256e-14)
(978.433 0.222591 1.84789e-14)
(978.43 0.226798 1.73476e-14)
(978.427 0.231133 1.68338e-14)
(978.424 0.235599 1.9072e-14)
(978.421 0.2402 2.0358e-14)
(978.418 0.244939 2.11336e-14)
(978.415 0.249819 1.95481e-14)
(978.411 0.254844 1.8297e-14)
(978.408 0.260015 1.69555e-14)
(978.404 0.265332 1.78594e-14)
(978.401 0.270791 1.7897e-14)
(978.397 0.27639 1.80607e-14)
(978.393 0.282129 2.05951e-14)
(978.389 0.288005 1.84147e-14)
(978.385 0.294015 1.69455e-14)
(978.381 0.300153 1.88476e-14)
(978.377 0.306413 1.69907e-14)
(978.373 0.312792 1.7444e-14)
(978.369 0.319288 1.83099e-14)
(978.365 0.325902 1.84408e-14)
(978.36 0.332636 1.79425e-14)
(978.356 0.339491 1.88952e-14)
(978.351 0.34647 1.71651e-14)
(978.347 0.353575 1.52964e-14)
(978.342 0.360811 1.80773e-14)
(978.337 0.36818 1.63181e-14)
(978.333 0.375686 1.72181e-14)
(978.328 0.383334 1.78941e-14)
(978.323 0.391127 1.79676e-14)
(978.318 0.399069 1.72043e-14)
(978.312 0.407164 1.66373e-14)
(978.307 0.415414 1.63454e-14)
(978.302 0.423824 1.71495e-14)
(978.296 0.432396 1.3939e-14)
(978.291 0.441135 1.50204e-14)
(978.285 0.450043 1.76151e-14)
(978.279 0.459123 1.70388e-14)
(978.273 0.46838 1.65053e-14)
(978.267 0.477818 1.76663e-14)
(978.261 0.487442 1.74078e-14)
(978.254 0.497258 1.55636e-14)
(978.248 0.507273 1.62213e-14)
(978.241 0.517495 1.75391e-14)
(978.235 0.527927 1.71643e-14)
(978.228 0.538575 1.70563e-14)
(978.221 0.549442 1.60268e-14)
(978.214 0.560529 1.54099e-14)
(978.206 0.571833 1.55143e-14)
(978.199 0.58335 1.30595e-14)
(978.191 0.595072 1.44847e-14)
(978.184 0.60699 1.77788e-14)
(978.176 0.619092 1.63513e-14)
(978.168 0.631367 1.62521e-14)
(978.16 0.643804 1.66465e-14)
(978.152 0.656397 1.57204e-14)
(978.143 0.669141 1.60019e-14)
(978.135 0.682035 1.55345e-14)
(978.126 0.695083 1.55949e-14)
(978.118 0.708293 1.57451e-14)
(978.109 0.721677 1.52958e-14)
(978.1 0.735254 1.57712e-14)
(978.09 0.749043 1.51641e-14)
(978.081 0.76307 1.54602e-14)
(978.072 0.777363 1.48625e-14)
(978.062 0.791949 1.61953e-14)
(978.052 0.806849 1.45356e-14)
(978.042 0.822091 1.48258e-14)
(978.032 0.837695 1.43573e-14)
(978.021 0.853671 1.63808e-14)
(978.01 0.870026 1.56207e-14)
(977.999 0.886771 1.46678e-14)
(977.988 0.9039 1.3665e-14)
(977.977 0.921405 1.28409e-14)
(977.965 0.93928 1.55225e-14)
(977.953 0.957519 1.64345e-14)
(977.941 0.976112 1.4378e-14)
(977.928 0.995055 1.49749e-14)
(977.915 1.01435 1.46159e-14)
(977.903 1.03401 1.31038e-14)
(977.889 1.05405 1.26559e-14)
(977.876 1.07449 1.25562e-14)
(977.862 1.09538 1.38974e-14)
(977.848 1.11675 1.42962e-14)
(977.834 1.13866 1.28154e-14)
(977.819 1.16114 1.43028e-14)
(977.804 1.18426 1.35759e-14)
(977.789 1.20807 1.39929e-14)
(977.773 1.23261 1.38928e-14)
(977.756 1.25793 1.3245e-14)
(977.739 1.28407 1.22728e-14)
(977.722 1.31105 1.40687e-14)
(977.703 1.33889 1.36665e-14)
(977.685 1.3676 1.27429e-14)
(977.665 1.39719 1.17813e-14)
(977.646 1.42764 1.41162e-14)
(977.625 1.45896 1.50364e-14)
(977.604 1.49114 1.24049e-14)
(977.583 1.52416 1.26482e-14)
(977.561 1.55803 1.26611e-14)
(977.539 1.59274 1.12946e-14)
(977.516 1.6283 1.29091e-14)
(977.492 1.66472 1.26502e-14)
(977.468 1.70202 1.4539e-14)
(977.443 1.74025 1.64636e-14)
(977.418 1.77944 1.32667e-14)
(977.392 1.81965 1.21439e-14)
(977.366 1.86093 1.38769e-14)
(977.339 1.90334 1.41456e-14)
(977.311 1.94695 1.36209e-14)
(977.282 1.99179 1.34978e-14)
(977.253 2.03792 1.13445e-14)
(977.223 2.08536 1.27983e-14)
(977.193 2.13413 1.37878e-14)
(977.161 2.18421 1.22288e-14)
(977.129 2.23559 1.22303e-14)
(977.096 2.28821 1.1598e-14)
(977.062 2.34201 1.17075e-14)
(977.028 2.39691 1.17514e-14)
(976.993 2.45283 1.19291e-14)
(976.958 2.50966 1.22408e-14)
(976.921 2.56731 1.34035e-14)
(976.885 2.62566 1.34691e-14)
(976.848 2.68465 1.16503e-14)
(976.81 2.74419 1.16406e-14)
(976.772 2.80423 1.02964e-14)
(976.733 2.86474 1.18207e-14)
(976.694 2.92571 1.18973e-14)
(976.654 2.98716 1.21192e-14)
(976.614 3.04915 1.12664e-14)
(976.573 3.11174 1.39928e-14)
(976.531 3.17504 1.24292e-14)
(976.489 3.23916 1.31781e-14)
(976.446 3.30421 1.21899e-14)
(976.402 3.37033 1.22935e-14)
(976.358 3.43762 1.24101e-14)
(976.312 3.50619 1.02099e-14)
(976.266 3.57613 1.08833e-14)
(976.219 3.64751 9.82234e-15)
(976.17 3.7204 1.06864e-14)
(976.121 3.79481 1.04247e-14)
(976.07 3.87079 1.17721e-14)
(976.018 3.94829 1.23083e-14)
(975.965 4.02733 1.15681e-14)
(975.912 4.10785 1.06067e-14)
(975.857 4.18984 1.21678e-14)
(975.801 4.27323 1.10498e-14)
(975.744 4.35802 1.1019e-14)
(975.687 4.44415 1.00605e-14)
(975.628 4.53166 1.09596e-14)
(975.569 4.62055 1.16126e-14)
(975.508 4.71089 1.01876e-14)
(975.447 4.80276 9.92309e-15)
(975.386 4.89625 1.06232e-14)
(975.323 4.99161 9.87145e-15)
(975.259 5.08882 1.28092e-14)
(975.195 5.18838 1.08697e-14)
(975.129 5.29007 1.17175e-14)
(975.062 5.39472 1.20642e-14)
(974.994 5.50177 1.147e-14)
(974.924 5.61243 1.03348e-14)
(974.853 5.72572 1.21425e-14)
(974.779 5.84321 1.02444e-14)
(974.703 5.96359 9.83001e-15)
(974.625 6.08848 9.50826e-15)
(974.544 6.21666 1.02423e-14)
(974.461 6.3492 8.87959e-15)
(974.374 6.48574 8.90117e-15)
(974.285 6.62595 9.61667e-15)
(974.192 6.77104 9.45577e-15)
(974.097 6.91917 9.36312e-15)
(973.998 7.07223 8.65011e-15)
(973.896 7.22902 8.5751e-15)
(973.791 7.39071 1.03495e-14)
(973.685 7.5509 1.03817e-14)
(973.568 7.73471 1.09502e-14)
(973.467 7.95831 1.04206e-14)
(973.724 7.73585 9.72133e-15)
(978.565 0.0152346 3.58183e-14)
(978.562 0.0174982 3.74199e-14)
(978.56 0.0200553 4.03416e-14)
(978.557 0.0229422 4.0301e-14)
(978.554 0.0261984 3.72001e-14)
(978.551 0.0298632 3.75576e-14)
(978.547 0.0339725 3.86992e-14)
(978.543 0.0385576 3.82359e-14)
(978.538 0.0436456 3.75346e-14)
(978.533 0.0492638 4.02709e-14)
(978.528 0.0554455 3.97111e-14)
(978.522 0.0622369 3.68556e-14)
(978.515 0.0697007 3.70994e-14)
(978.508 0.0779134 3.47498e-14)
(978.501 0.0869562 3.60467e-14)
(978.278 0.461238 2.64683e-14)
(978.272 0.469121 2.48906e-14)
(978.267 0.477191 2.43837e-14)
(978.261 0.485449 2.35882e-14)
(978.256 0.493902 2.61968e-14)
(978.25 0.502567 2.37674e-14)
(978.244 0.511467 2.38983e-14)
(978.238 0.520632 2.56966e-14)
(978.232 0.530088 2.56441e-14)
(978.225 0.53986 2.58168e-14)
(978.218 0.549971 2.47651e-14)
(978.211 0.560442 2.46633e-14)
(978.204 0.571298 2.57105e-14)
(978.196 0.582561 2.57779e-14)
(978.188 0.594257 2.32415e-14)
(978.18 0.606409 2.53537e-14)
(978.171 0.619041 2.57892e-14)
(978.162 0.632172 2.36339e-14)
(978.153 0.645822 2.47604e-14)
(978.144 0.660004 2.28942e-14)
(978.134 0.674732 2.20037e-14)
(978.124 0.690015 2.30645e-14)
(978.113 0.705855 2.29041e-14)
(978.102 0.722243 2.30295e-14)
(978.091 0.739171 2.24168e-14)
(978.079 0.756631 2.28441e-14)
(978.068 0.774618 2.32425e-14)
(978.055 0.793116 2.33191e-14)
(978.043 0.812099 2.42394e-14)
(978.03 0.831539 2.33624e-14)
(978.018 0.851416 2.33586e-14)
(978.004 0.871717 2.31064e-14)
(977.991 0.892426 2.29674e-14)
(977.978 0.913526 2.36761e-14)
(977.964 0.934988 2.3157e-14)
(977.95 0.956785 2.39007e-14)
(977.936 0.978888 2.33762e-14)
(977.921 1.00127 2.32827e-14)
(977.907 1.02392 2.14152e-14)
(977.892 1.0468 1.97514e-14)
(977.877 1.06991 2.00287e-14)
(977.862 1.09324 2.11889e-14)
(977.847 1.11679 2.13438e-14)
(977.832 1.14057 2.04616e-14)
(977.816 1.16458 1.95758e-14)
(977.801 1.18887 2.03241e-14)
(977.784 1.21344 2.07008e-14)
(977.768 1.23833 2.11427e-14)
(977.752 1.26359 2.11063e-14)
(977.735 1.28926 2.01969e-14)
(977.718 1.31537 2.18417e-14)
(977.7 1.34198 2.16192e-14)
(977.682 1.36912 2.20187e-14)
(977.664 1.39685 2.01814e-14)
(977.645 1.4252 2.09696e-14)
(977.626 1.4542 2.19216e-14)
(977.607 1.48389 2.20363e-14)
(977.587 1.51427 2.25423e-14)
(977.566 1.54536 1.94529e-14)
(977.546 1.57718 1.82402e-14)
(977.524 1.60972 2.14816e-14)
(977.502 1.643 2.19833e-14)
(977.48 1.67701 1.87835e-14)
(977.457 1.71177 1.97571e-14)
(977.434 1.74731 1.99013e-14)
(977.41 1.78364 2.00606e-14)
(977.386 1.82083 2.06076e-14)
(977.361 1.85891 2.03792e-14)
(977.335 1.89795 1.99223e-14)
(977.309 1.93803 2.0844e-14)
(977.282 1.97922 1.99221e-14)
(977.255 2.02159 2.0941e-14)
(977.226 2.06522 1.97684e-14)
(977.197 2.11017 2.26026e-14)
(977.167 2.1565 1.98328e-14)
(977.135 2.20427 1.83876e-14)
(977.103 2.25352 1.88142e-14)
(977.07 2.30427 1.97514e-14)
(977.036 2.35655 2.02748e-14)
(977.002 2.41033 1.90797e-14)
(976.966 2.46563 1.89618e-14)
(976.929 2.52245 1.84383e-14)
(976.891 2.58076 1.78094e-14)