/*--------------------------------*- C++ -*----------------------------------*\
| =========                 |                                                 |
| \\      /  F ield         | OpenFOAM: The Open Source CFD Toolbox           |
|  \\    /   O peration     | Version:  v1706                                 |
|   \\  /    A nd           | Web:      www.OpenFOAM.com                      |
|    \\/     M anipulation  |                                                 |
\*---------------------------------------------------------------------------*/
FoamFile
{
    version     2.0;
    format      ascii;
    class       volScalarField;
    location    "1.9e-05";
    object      wallHeatFlux;
}
// * * * * * * * * * * * * * * * * * * * * * * * * * * * * * * * * * * * * * //

dimensions      [1 0 -3 0 0 0 0];


internalField   uniform 0;

boundaryField
{
    cone
    {
        type            calculated;
        value           nonuniform List<scalar> 
119
(
10141.9
10293.4
10448.2
10606.3
10767.9
10933.1
11102.1
11275
11452.2
11633.6
11819.6
12010.4
12206.2
12407.3
12614
12826.4
13045
13270.1
13502
13741.2
13988
14242.8
14506.3
14778.8
15061
15353.5
15657
15972.2
16299.7
16640.5
16995.4
17365.2
17750.9
18153.3
18573.4
19011.9
19469.5
19946.9
20444.2
20961.3
21497.4
22051
22619.4
23198.5
23782.2
24362.2
24927.2
25462.3
25948.6
26363.2
26678.8
26865
26889.2
26719.4
26328.6
25701.2
24838.7
23733.5
22403.8
20883.2
19217.6
17461.3
15667.2
13885.3
12159
10522.7
9000.67
7607.99
6351.35
5230.86
4241.69
3375.6
2622.92
1972.42
1412.99
933.739
524.37
175.449
-121.415
-373.614
-587.598
-768.952
-922.484
-1052.31
-1161.97
-1254.45
-1332.34
-1397.83
-1452.78
-1498.81
-1537.29
-1569.37
-1596.07
-1618.22
-1636.54
-1651.66
-1664.09
-1674.26
-1682.55
-1689.27
-1694.7
-1699.06
-1702.57
-1705.41
-1707.76
-1709.8
-1711.72
-1713.73
-1716.08
-1719.09
-1723.16
-1728.84
-1736.89
-1748.34
-1764.82
-1789.11
-1826.05
-1883.91
-1968.1
)
;
    }
    inlet
    {
        type            calculated;
        value           uniform 0;
    }
    rWedge
    {
        type            wedge;
    }
    lWedge
    {
        type            wedge;
    }
    outlet
    {
        type            calculated;
        value           uniform 0;
    }
    procBoundary0to1
    {
        type            processor;
        value           uniform 0;
    }
    procBoundary0to2
    {
        type            processor;
        value           uniform 0;
    }
}


// ************************************************************************* //
