/*--------------------------------*- C++ -*----------------------------------*\
| =========                 |                                                 |
| \\      /  F ield         | OpenFOAM: The Open Source CFD Toolbox           |
|  \\    /   O peration     | Version:  v1706                                 |
|   \\  /    A nd           | Web:      www.OpenFOAM.com                      |
|    \\/     M anipulation  |                                                 |
\*---------------------------------------------------------------------------*/
FoamFile
{
    version     2.0;
    format      ascii;
    class       volVectorField;
    location    "3.7e-05";
    object      U;
}
// * * * * * * * * * * * * * * * * * * * * * * * * * * * * * * * * * * * * * //

dimensions      [0 1 -1 0 0 0 0];


internalField   nonuniform List<vector> 
29987
(
(1760 -2.25035e-08 4.13865e-11)
(1760 -7.40947e-09 1.30618e-11)
(1760 -3.30895e-09 5.93236e-12)
(1760 -1.97209e-09 3.4988e-12)
(1760 -1.34073e-09 2.33402e-12)
(1760 -9.7459e-10 1.6992e-12)
(1760 -7.41682e-10 1.29632e-12)
(1760 -5.84393e-10 1.01389e-12)
(1760 -4.73482e-10 8.12004e-13)
(1760 -3.90445e-10 6.88639e-13)
(1760 -3.26984e-10 5.17295e-13)
(1760 -2.80732e-10 4.58011e-13)
(1760 -2.46991e-10 4.16631e-13)
(1760 -2.15608e-10 3.52025e-13)
(1760 -1.90396e-10 3.08357e-13)
(1760 -1.71849e-10 2.64295e-13)
(1760 -1.55651e-10 2.23109e-13)
(1760 -1.41384e-10 1.93398e-13)
(1760 -1.29562e-10 1.84152e-13)
(1760 -1.18344e-10 1.72713e-13)
(1760 -1.11574e-10 1.66386e-13)
(1760 -1.01997e-10 1.39304e-13)
(1760 -9.41086e-11 1.32058e-13)
(1760 -9.12056e-11 1.1305e-13)
(1760 -8.43106e-11 1.1502e-13)
(1760 -8.00534e-11 1.13674e-13)
(1760 -7.50694e-11 9.12582e-14)
(1760 -7.19739e-11 8.07496e-14)
(1760 -7.02741e-11 8.77921e-14)
(1760 -6.66135e-11 8.02393e-14)
(1760 -6.23733e-11 8.396e-14)
(1760 -6.16182e-11 7.49152e-14)
(1760 -5.94359e-11 6.53118e-14)
(1760 -5.57977e-11 6.03685e-14)
(1760 -5.53649e-11 6.13537e-14)
(1760 -5.25397e-11 5.57901e-14)
(1760 -5.25118e-11 5.33909e-14)
(1760 -4.87606e-11 4.41894e-14)
(1760 -4.88901e-11 4.15503e-14)
(1760 -4.83888e-11 4.67108e-14)
(1760 -4.65326e-11 3.77116e-14)
(1760 -4.47208e-11 3.86772e-14)
(1760 -4.39211e-11 4.45948e-14)
(1760 -4.43675e-11 3.83194e-14)
(1760 -4.26645e-11 3.54564e-14)
(1760 -4.08532e-11 3.23039e-14)
(1760 -4.11863e-11 4.40575e-14)
(1760 -4.14787e-11 2.96516e-14)
(1760 -4.01359e-11 2.8746e-14)
(1760 -3.89604e-11 3.33777e-14)
(1760 -3.8377e-11 3.24418e-14)
(1760 -3.87981e-11 2.98611e-14)
(1760 -3.78084e-11 2.86942e-14)
(1760 -3.71708e-11 2.62011e-14)
(1760 -3.63598e-11 2.77127e-14)
(1760 -3.65323e-11 2.19355e-14)
(1760 -3.67604e-11 1.97049e-14)
(1760 -3.62773e-11 2.00409e-14)
(1760 -3.5937e-11 2.11693e-14)
(1760 -3.48976e-11 2.52777e-14)
(1760 -3.52706e-11 2.47981e-14)
(1760 -3.47791e-11 1.30645e-14)
(1760 -3.51004e-11 1.86232e-14)
(1760 -3.48393e-11 2.1307e-14)
(1760 -3.32436e-11 1.67016e-14)
(1760 -3.29754e-11 1.45667e-14)
(1760 -3.29339e-11 1.47984e-14)
(1760 -3.38604e-11 1.86135e-14)
(1760 -3.42938e-11 1.8218e-14)
(1760 -3.37209e-11 1.59836e-14)
(1760 -3.40112e-11 1.38138e-14)
(1760 -3.40457e-11 1.67418e-14)
(1760 -3.39018e-11 1.45658e-14)
(1760 -3.29814e-11 1.49923e-14)
(1760 -3.36606e-11 1.8294e-14)
(1760 -3.38551e-11 1.5677e-14)
(1760 -3.32291e-11 1.47611e-14)
(1760 -3.31978e-11 1.64612e-14)
(1760 -3.36321e-11 1.15593e-14)
(1760 -3.31806e-11 7.01124e-15)
(1760 -3.3093e-11 1.05272e-14)
(1760 -3.38356e-11 1.10088e-14)
(1760 -3.4494e-11 7.66662e-15)
(1760 -3.42604e-11 1.06083e-14)
(1760 -3.42981e-11 1.20189e-14)
(1760 -3.37349e-11 1.08086e-14)
(1760 -3.4038e-11 9.81136e-15)
(1760 -3.41103e-11 9.96512e-15)
(1760 -3.37009e-11 1.27082e-14)
(1760 -3.27579e-11 8.64318e-15)
(1760 -3.26092e-11 6.67696e-15)
(1760 -3.2589e-11 7.08304e-15)
(1760 -3.20861e-11 1.09492e-14)
(1760 -3.32059e-11 1.21111e-14)
(1760 -3.37336e-11 1.22795e-14)
(1760 -3.44572e-11 1.1788e-14)
(1760 -3.41874e-11 7.65044e-15)
(1760 -3.43745e-11 1.06735e-14)
(1760 -3.45082e-11 1.11164e-14)
(1760 -3.49978e-11 7.8808e-15)
(1760 -3.54497e-11 6.92135e-15)
(1760 -3.52911e-11 1.30728e-14)
(1760 -3.57601e-11 1.27829e-14)
(1760 -3.62823e-11 9.13316e-15)
(1760 -3.66147e-11 9.28928e-15)
(1760 -3.71752e-11 8.02308e-15)
(1760 -3.71123e-11 6.64027e-15)
(1760 -3.62526e-11 6.98937e-15)
(1760 -3.55225e-11 9.83115e-15)
(1760 -3.59397e-11 7.37732e-15)
(1760 -3.61243e-11 7.54956e-15)
(1760 -3.70234e-11 7.41545e-15)
(1760 -3.74498e-11 9.05308e-15)
(1760 -3.81765e-11 7.5613e-15)
(1760 -3.84661e-11 9.94033e-15)
(1760 -3.85113e-11 7.56777e-15)
(1760 -3.94985e-11 8.08618e-15)
(1760 -3.83771e-11 1.12063e-14)
(1760 -3.8709e-11 1.08967e-14)
(1760 -3.91067e-11 6.73336e-15)
(1760 -3.9614e-11 7.55484e-15)
(1760 -3.97856e-11 8.71288e-15)
(1760 -4.00097e-11 7.19108e-15)
(1760 -4.00437e-11 8.44604e-15)
(1760 -4.05464e-11 8.98734e-15)
(1760 -4.09509e-11 8.40552e-15)
(1760 -4.125e-11 9.10088e-15)
(1760 -4.16603e-11 8.04305e-15)
(1760 -4.22898e-11 9.57156e-15)
(1760 -4.34506e-11 7.8877e-15)
(1760 -4.41531e-11 9.12745e-15)
(1760 -4.42189e-11 1.40894e-14)
(1760 -4.59029e-11 5.06003e-15)
(1760 -4.56615e-11 3.67449e-15)
(1760 -4.61713e-11 6.44383e-15)
(1760 -4.51323e-11 5.24628e-15)
(1760 -4.49897e-11 7.36999e-15)
(1760 -4.61081e-11 9.01318e-15)
(1760 -4.73602e-11 4.48149e-15)
(1760 -4.84213e-11 1.08966e-14)
(1760 -4.77768e-11 -4.65661e-17)
(1760 -4.65993e-11 3.00149e-15)
(1760 -4.83516e-11 7.44014e-15)
(1760 -4.85623e-11 5.83677e-15)
(1760 -4.98724e-11 8.12578e-15)
(1760 -5.14289e-11 8.28266e-15)
(1760 -5.19427e-11 9.76573e-15)
(1760 -5.27509e-11 8.82504e-15)
(1760 -5.31271e-11 6.43523e-15)
(1760 -5.26454e-11 4.36381e-15)
(1760 -5.38128e-11 3.75851e-15)
(1760 -5.50033e-11 4.67511e-15)
(1760 -5.49948e-11 3.85731e-15)
(1760 -5.45205e-11 9.53703e-15)
(1760 -5.51036e-11 5.09266e-15)
(1760 -5.58293e-11 8.54572e-15)
(1760 -6.29894e-08 1.07771e-10)
(1760 -2.70661e-08 4.37483e-11)
(1760 -1.2765e-08 1.99771e-11)
(1760 -7.2059e-09 1.14413e-11)
(1760 -4.68356e-09 7.50842e-12)
(1760 -3.33084e-09 5.36739e-12)
(1760 -2.50561e-09 4.01182e-12)
(1760 -1.96219e-09 3.09548e-12)
(1760 -1.58418e-09 2.49708e-12)
(1760 -1.30626e-09 2.02549e-12)
(1760 -1.09371e-09 1.62992e-12)
(1760 -9.33308e-10 1.4202e-12)
(1760 -8.14165e-10 1.19111e-12)
(1760 -7.12749e-10 1.04342e-12)
(1760 -6.29444e-10 8.95358e-13)
(1760 -5.64911e-10 8.22085e-13)
(1760 -5.07692e-10 7.03456e-13)
(1760 -4.63176e-10 6.35657e-13)
(1760 -4.24693e-10 5.89397e-13)
(1760 -3.91205e-10 5.30553e-13)
(1760 -3.64021e-10 4.84803e-13)
(1760 -3.37239e-10 4.16721e-13)
(1760 -3.11041e-10 3.88698e-13)
(1760 -2.90797e-10 3.53758e-13)
(1760 -2.74088e-10 3.45586e-13)
(1760 -2.59166e-10 3.32832e-13)
(1760 -2.42599e-10 3.01936e-13)
(1760 -2.31248e-10 2.74377e-13)
(1760 -2.25041e-10 2.65897e-13)
(1760 -2.13651e-10 2.5028e-13)
(1760 -2.0254e-10 2.18315e-13)
(1760 -1.94699e-10 2.13907e-13)
(1760 -1.87109e-10 1.77249e-13)
(1760 -1.79847e-10 1.67714e-13)
(1760 -1.7616e-10 1.73548e-13)
(1760 -1.68292e-10 1.70035e-13)
(1760 -1.65447e-10 1.55613e-13)
(1760 -1.58793e-10 1.51276e-13)
(1760 -1.54359e-10 1.41075e-13)
(1760 -1.50495e-10 1.27878e-13)
(1760 -1.45497e-10 1.15327e-13)
(1760 -1.41293e-10 1.18893e-13)
(1760 -1.40857e-10 1.2517e-13)
(1760 -1.39596e-10 1.12289e-13)
(1760 -1.35923e-10 9.05521e-14)
(1760 -1.30874e-10 1.04688e-13)
(1760 -1.27438e-10 1.02929e-13)
(1760 -1.25788e-10 8.74173e-14)
(1760 -1.25554e-10 8.81679e-14)
(1760 -1.23252e-10 9.52319e-14)
(1760 -1.20979e-10 9.37392e-14)
(1760 -1.21689e-10 8.17833e-14)
(1760 -1.18883e-10 7.98421e-14)
(1760 -1.16702e-10 6.55606e-14)
(1760 -1.13342e-10 6.93689e-14)
(1760 -1.12681e-10 6.27033e-14)
(1760 -1.11372e-10 6.2634e-14)
(1760 -1.12498e-10 6.37283e-14)
(1760 -1.12666e-10 7.12016e-14)
(1760 -1.08699e-10 7.01739e-14)
(1760 -1.0742e-10 6.05404e-14)
(1760 -1.05387e-10 5.02998e-14)
(1760 -1.07688e-10 6.32474e-14)
(1760 -1.08664e-10 5.62541e-14)
(1760 -1.06293e-10 5.18901e-14)
(1760 -1.04186e-10 5.21831e-14)
(1760 -1.02105e-10 4.64228e-14)
(1760 -1.01841e-10 5.16507e-14)
(1760 -1.01917e-10 5.07941e-14)
(1760 -1.00684e-10 4.63999e-14)
(1760 -1.01793e-10 4.82223e-14)
(1760 -1.02269e-10 5.0745e-14)
(1760 -1.03888e-10 4.35265e-14)
(1760 -1.00846e-10 4.45216e-14)
(1760 -1.01658e-10 4.80072e-14)
(1760 -1.0172e-10 5.01162e-14)
(1760 -1.01556e-10 4.51862e-14)
(1760 -1.01173e-10 4.36146e-14)
(1760 -1.01172e-10 3.23982e-14)
(1760 -1.00102e-10 3.02716e-14)
(1760 -9.91909e-11 3.5788e-14)
(1760 -9.92507e-11 3.41009e-14)
(1760 -1.00344e-10 3.08745e-14)
(1760 -1.01027e-10 3.75267e-14)
(1760 -1.03004e-10 4.23302e-14)
(1760 -1.02218e-10 3.94696e-14)
(1760 -1.0159e-10 3.4226e-14)
(1760 -1.0307e-10 3.97035e-14)
(1760 -1.05701e-10 3.58608e-14)
(1760 -1.04651e-10 2.88686e-14)
(1760 -1.03467e-10 3.19727e-14)
(1760 -1.04913e-10 2.68203e-14)
(1760 -1.01985e-10 3.39862e-14)
(1760 -9.97675e-11 3.52798e-14)
(1760 -1.00362e-10 3.92091e-14)
(1760 -1.03022e-10 3.22973e-14)
(1760 -1.0312e-10 2.3902e-14)
(1760 -1.02687e-10 2.61593e-14)
(1760 -1.02629e-10 2.4656e-14)
(1760 -1.03301e-10 2.51205e-14)
(1760 -1.03857e-10 2.57813e-14)
(1760 -1.04908e-10 2.74585e-14)
(1760 -1.05517e-10 2.96921e-14)
(1760 -1.05115e-10 2.14735e-14)
(1760 -1.06976e-10 2.27867e-14)
(1760 -1.06682e-10 2.19899e-14)
(1760 -1.07372e-10 2.29278e-14)
(1760 -1.09968e-10 2.18924e-14)
(1760 -1.08467e-10 1.85813e-14)
(1760 -1.08025e-10 2.0345e-14)
(1760 -1.07863e-10 2.38949e-14)
(1760 -1.07801e-10 2.30131e-14)
(1760 -1.08748e-10 2.28454e-14)
(1760 -1.10435e-10 2.48314e-14)
(1760 -1.11575e-10 2.70806e-14)
(1760 -1.12199e-10 2.56341e-14)
(1760 -1.14578e-10 2.60643e-14)
(1760 -1.14643e-10 2.59912e-14)
(1760 -1.14715e-10 2.25463e-14)
(1760 -1.15079e-10 1.79816e-14)
(1760 -1.16343e-10 2.01581e-14)
(1760 -1.17898e-10 2.10038e-14)
(1760 -1.1897e-10 2.1504e-14)
(1760 -1.19923e-10 2.2536e-14)
(1760 -1.21417e-10 2.33782e-14)
(1760 -1.23009e-10 2.16162e-14)
(1760 -1.23761e-10 2.15367e-14)
(1760 -1.23687e-10 2.03557e-14)
(1760 -1.24683e-10 1.96877e-14)
(1760 -1.26371e-10 2.43801e-14)
(1760 -1.27432e-10 2.43002e-14)
(1760 -1.27978e-10 1.83872e-14)
(1760 -1.30094e-10 1.87152e-14)
(1760 -1.32429e-10 1.9707e-14)
(1760 -1.34928e-10 1.92688e-14)
(1760 -1.37112e-10 1.9172e-14)
(1760 -1.37545e-10 2.47e-14)
(1760 -1.36049e-10 1.75793e-14)
(1760 -1.38806e-10 2.11881e-14)
(1760 -1.40309e-10 2.31102e-14)
(1760 -1.44883e-10 1.62516e-14)
(1760 -1.43015e-10 1.98871e-14)
(1760 -1.44767e-10 1.87797e-14)
(1760 -1.43825e-10 2.03701e-14)
(1760 -1.44289e-10 1.76339e-14)
(1760 -1.44654e-10 2.20542e-14)
(1760 -1.48002e-10 2.07707e-14)
(1760 -1.51517e-10 2.16793e-14)
(1760 -1.54852e-10 2.28566e-14)
(1760 -1.56195e-10 1.80143e-14)
(1760 -1.58451e-10 1.7413e-14)
(1760 -1.61286e-10 1.22189e-14)
(1760 -1.65335e-10 1.60316e-14)
(1760 -1.66976e-10 1.8972e-14)
(1760 -1.68489e-10 1.66712e-14)
(1760 -1.67933e-10 1.95663e-14)
(1760 -9.30513e-08 1.5665e-10)
(1760 -4.73942e-08 7.42098e-11)
(1760 -2.41414e-08 3.58124e-11)
(1760 -1.36823e-08 2.00862e-11)
(1760 -8.72997e-09 1.28083e-11)
(1760 -6.1027e-09 8.96177e-12)
(1760 -4.54326e-09 6.73897e-12)
(1760 -3.53588e-09 5.19128e-12)
(1760 -2.84156e-09 4.16872e-12)
(1760 -2.34109e-09 3.37837e-12)
(1760 -1.96232e-09 2.80748e-12)
(1760 -1.67064e-09 2.40863e-12)
(1760 -1.44801e-09 2.04536e-12)
(1760 -1.26457e-09 1.75925e-12)
(1760 -1.11797e-09 1.55809e-12)
(1760 -1.00133e-09 1.36048e-12)
(1760 -9.00246e-10 1.17218e-12)
(1760 -8.18949e-10 1.07119e-12)
(1760 -7.49722e-10 9.52504e-13)
(1760 -6.89949e-10 8.9198e-13)
(1760 -6.41175e-10 7.93382e-13)
(1760 -5.95103e-10 6.99234e-13)
(1760 -5.49558e-10 6.72077e-13)
(1760 -5.12516e-10 6.10732e-13)
(1760 -4.8169e-10 5.93157e-13)
(1760 -4.55379e-10 5.48192e-13)
(1760 -4.26888e-10 5.19549e-13)
(1760 -4.05427e-10 4.7106e-13)
(1760 -3.90738e-10 4.27653e-13)
(1760 -3.72865e-10 4.06353e-13)
(1760 -3.56211e-10 3.70106e-13)
(1760 -3.39245e-10 3.63562e-13)
(1760 -3.25365e-10 3.23298e-13)
(1760 -3.13454e-10 3.18045e-13)
(1760 -3.05348e-10 3.1051e-13)
(1760 -2.93478e-10 2.7319e-13)
(1760 -2.8372e-10 2.55515e-13)
(1760 -2.74889e-10 2.5472e-13)
(1760 -2.68565e-10 2.53281e-13)
(1760 -2.59026e-10 2.26515e-13)
(1760 -2.50874e-10 2.148e-13)
(1760 -2.44527e-10 2.08228e-13)
(1760 -2.41387e-10 2.06845e-13)
(1760 -2.40138e-10 1.8995e-13)
(1760 -2.35059e-10 1.73151e-13)
(1760 -2.25021e-10 1.72794e-13)
(1760 -2.18797e-10 1.69944e-13)
(1760 -2.18073e-10 1.68242e-13)
(1760 -2.13783e-10 1.6526e-13)
(1760 -2.08734e-10 1.72791e-13)
(1760 -2.06442e-10 1.56096e-13)
(1760 -2.07204e-10 1.4541e-13)
(1760 -2.03889e-10 1.34665e-13)
(1760 -2.00277e-10 1.30712e-13)
(1760 -1.95383e-10 1.22563e-13)
(1760 -1.91451e-10 1.1863e-13)
(1760 -1.90294e-10 1.1154e-13)
(1760 -1.90068e-10 1.08119e-13)
(1760 -1.91321e-10 1.19094e-13)
(1760 -1.86767e-10 1.14475e-13)
(1760 -1.83414e-10 1.07936e-13)
(1760 -1.79943e-10 1.10961e-13)
(1760 -1.80602e-10 1.02815e-13)
(1760 -1.82834e-10 8.41186e-14)
(1760 -1.79626e-10 9.37854e-14)
(1760 -1.77299e-10 8.97188e-14)
(1760 -1.75135e-10 8.23503e-14)
(1760 -1.73484e-10 9.00434e-14)
(1760 -1.74112e-10 8.05577e-14)
(1760 -1.7161e-10 7.60043e-14)
(1760 -1.71362e-10 7.61647e-14)
(1760 -1.70319e-10 7.92068e-14)
(1760 -1.72583e-10 7.34307e-14)
(1760 -1.70739e-10 7.61017e-14)
(1760 -1.7124e-10 8.0116e-14)
(1760 -1.71907e-10 7.77219e-14)
(1760 -1.72489e-10 6.91293e-14)
(1760 -1.71216e-10 6.98384e-14)
(1760 -1.70466e-10 6.95625e-14)
(1760 -1.69873e-10 6.67876e-14)
(1760 -1.67312e-10 6.30906e-14)
(1760 -1.6557e-10 5.85616e-14)
(1760 -1.66321e-10 5.49148e-14)
(1760 -1.67091e-10 5.5856e-14)
(1760 -1.6914e-10 5.54305e-14)
(1760 -1.70359e-10 5.41995e-14)
(1760 -1.68024e-10 6.10798e-14)
(1760 -1.69795e-10 6.55978e-14)
(1760 -1.71912e-10 5.76455e-14)
(1760 -1.72438e-10 5.61083e-14)
(1760 -1.7202e-10 5.17863e-14)
(1760 -1.75806e-10 5.15075e-14)
(1760 -1.7349e-10 5.86822e-14)
(1760 -1.70438e-10 6.36455e-14)
(1760 -1.68737e-10 6.30708e-14)
(1760 -1.70339e-10 4.67345e-14)
(1760 -1.73558e-10 4.19579e-14)
(1760 -1.73002e-10 4.59456e-14)
(1760 -1.74745e-10 4.71129e-14)
(1760 -1.74911e-10 4.65239e-14)
(1760 -1.73709e-10 4.10464e-14)
(1760 -1.71807e-10 4.67093e-14)
(1760 -1.73697e-10 4.53377e-14)
(1760 -1.75123e-10 4.15073e-14)
(1760 -1.77722e-10 4.75466e-14)
(1760 -1.79857e-10 4.41051e-14)
(1760 -1.80164e-10 4.02867e-14)
(1760 -1.83345e-10 3.69776e-14)
(1760 -1.84889e-10 3.83366e-14)
(1760 -1.84742e-10 4.07971e-14)
(1760 -1.85059e-10 3.58706e-14)
(1760 -1.84121e-10 3.5148e-14)
(1760 -1.8363e-10 3.61381e-14)
(1760 -1.83429e-10 3.88565e-14)
(1760 -1.85804e-10 3.92758e-14)
(1760 -1.87466e-10 4.62924e-14)
(1760 -1.89919e-10 4.77851e-14)
(1760 -1.9121e-10 4.67776e-14)
(1760 -1.92565e-10 3.92774e-14)
(1760 -1.935e-10 3.79316e-14)
(1760 -1.94375e-10 3.86423e-14)
(1760 -1.96323e-10 3.7995e-14)
(1760 -1.97667e-10 3.6105e-14)
(1760 -1.987e-10 3.38805e-14)
(1760 -2.0049e-10 3.52667e-14)
(1760 -2.01906e-10 3.60042e-14)
(1760 -2.03849e-10 3.55963e-14)
(1760 -2.04742e-10 3.6011e-14)
(1760 -2.06399e-10 4.01269e-14)
(1760 -2.08423e-10 3.87063e-14)
(1760 -2.10381e-10 3.4872e-14)
(1760 -2.1235e-10 3.76741e-14)
(1760 -2.14449e-10 3.80662e-14)
(1760 -2.16368e-10 3.42349e-14)
(1760 -2.17715e-10 3.64341e-14)
(1760 -2.22073e-10 2.98047e-14)
(1760 -2.25084e-10 2.54569e-14)
(1760 -2.25201e-10 3.53479e-14)
(1760 -2.27856e-10 3.7822e-14)
(1760 -2.29203e-10 3.36181e-14)
(1760 -2.33011e-10 2.85464e-14)
(1760 -2.3687e-10 2.78209e-14)
(1760 -2.39789e-10 3.18554e-14)
(1760 -2.42183e-10 2.9477e-14)
(1760 -2.44598e-10 3.35353e-14)
(1760 -2.44421e-10 3.01152e-14)
(1760 -2.4212e-10 3.04032e-14)
(1760 -2.45482e-10 3.34567e-14)
(1760 -2.51311e-10 3.71454e-14)
(1760 -2.54902e-10 3.28319e-14)
(1760 -2.58173e-10 3.2647e-14)
(1760 -2.61734e-10 3.06559e-14)
(1760 -2.66391e-10 3.08661e-14)
(1760 -2.73236e-10 2.77121e-14)
(1760 -2.76702e-10 3.34976e-14)
(1760 -2.77863e-10 3.28925e-14)
(1760 -1.14835e-07 1.92263e-10)
(1760 -6.65012e-08 1.02177e-10)
(1760 -3.66234e-08 5.2433e-11)
(1760 -2.12838e-08 2.93824e-11)
(1760 -1.35283e-08 1.85035e-11)
(1760 -9.34327e-09 1.28121e-11)
(1760 -6.88659e-09 9.51245e-12)
(1760 -5.32275e-09 7.36184e-12)
(1760 -4.25391e-09 5.87992e-12)
(1760 -3.49527e-09 4.81584e-12)
(1760 -2.93031e-09 3.94722e-12)
(1760 -2.49242e-09 3.37421e-12)
(1760 -2.15277e-09 2.8951e-12)
(1760 -1.87756e-09 2.51013e-12)
(1760 -1.65825e-09 2.25266e-12)
(1760 -1.4804e-09 1.93884e-12)
(1760 -1.33146e-09 1.69555e-12)
(1760 -1.21075e-09 1.51076e-12)
(1760 -1.10546e-09 1.33925e-12)
(1760 -1.01763e-09 1.26168e-12)
(1760 -9.43435e-10 1.11706e-12)
(1760 -8.76263e-10 1.03364e-12)
(1760 -8.09363e-10 9.51028e-13)
(1760 -7.52706e-10 8.81815e-13)
(1760 -7.0823e-10 8.04803e-13)
(1760 -6.67119e-10 7.4751e-13)
(1760 -6.26371e-10 6.98462e-13)
(1760 -5.92499e-10 6.46526e-13)
(1760 -5.68512e-10 6.20118e-13)
(1760 -5.43556e-10 5.72555e-13)
(1760 -5.20714e-10 5.39774e-13)
(1760 -4.95939e-10 5.10572e-13)
(1760 -4.73954e-10 4.91402e-13)
(1760 -4.58117e-10 4.57806e-13)
(1760 -4.43108e-10 4.29524e-13)
(1760 -4.27735e-10 3.98983e-13)
(1760 -4.10995e-10 3.7892e-13)
(1760 -3.99771e-10 3.49705e-13)
(1760 -3.88918e-10 3.51246e-13)
(1760 -3.74684e-10 3.16796e-13)
(1760 -3.62215e-10 3.08964e-13)
(1760 -3.52698e-10 2.88867e-13)
(1760 -3.48489e-10 2.82662e-13)
(1760 -3.43724e-10 2.66963e-13)
(1760 -3.37347e-10 2.70676e-13)
(1760 -3.27135e-10 2.45272e-13)
(1760 -3.16546e-10 2.43568e-13)
(1760 -3.097e-10 2.35697e-13)
(1760 -3.08981e-10 2.38486e-13)
(1760 -3.03165e-10 2.26293e-13)
(1760 -2.96422e-10 2.07095e-13)
(1760 -2.93736e-10 2.03342e-13)
(1760 -2.90318e-10 1.943e-13)
(1760 -2.86686e-10 1.86898e-13)
(1760 -2.80492e-10 1.725e-13)
(1760 -2.74798e-10 1.74484e-13)
(1760 -2.72888e-10 1.65816e-13)
(1760 -2.71411e-10 1.62321e-13)
(1760 -2.71476e-10 1.6971e-13)
(1760 -2.67697e-10 1.62678e-13)
(1760 -2.62772e-10 1.50618e-13)
(1760 -2.58718e-10 1.39341e-13)
(1760 -2.5765e-10 1.33672e-13)
(1760 -2.56688e-10 1.36022e-13)
(1760 -2.55385e-10 1.44864e-13)
(1760 -2.53007e-10 1.33391e-13)
(1760 -2.50335e-10 1.26113e-13)
(1760 -2.4641e-10 1.27217e-13)
(1760 -2.45614e-10 1.11649e-13)
(1760 -2.43485e-10 1.0886e-13)
(1760 -2.41716e-10 1.1005e-13)
(1760 -2.41216e-10 1.1508e-13)
(1760 -2.42067e-10 1.11841e-13)
(1760 -2.40343e-10 1.12748e-13)
(1760 -2.40695e-10 1.07572e-13)
(1760 -2.413e-10 1.03119e-13)
(1760 -2.42135e-10 1.07426e-13)
(1760 -2.43206e-10 1.07789e-13)
(1760 -2.41665e-10 9.9909e-14)
(1760 -2.40933e-10 9.28785e-14)
(1760 -2.38153e-10 8.6454e-14)
(1760 -2.36063e-10 9.4406e-14)
(1760 -2.36446e-10 8.74695e-14)
(1760 -2.3618e-10 8.87234e-14)
(1760 -2.36936e-10 8.56755e-14)
(1760 -2.38573e-10 8.78535e-14)
(1760 -2.37332e-10 8.61415e-14)
(1760 -2.38664e-10 8.12634e-14)
(1760 -2.41112e-10 7.73081e-14)
(1760 -2.42007e-10 8.09761e-14)
(1760 -2.40858e-10 8.0163e-14)
(1760 -2.43106e-10 7.99427e-14)
(1760 -2.42735e-10 8.23012e-14)
(1760 -2.41165e-10 8.64737e-14)
(1760 -2.3844e-10 7.50281e-14)
(1760 -2.39364e-10 7.19135e-14)
(1760 -2.40952e-10 7.49366e-14)
(1760 -2.41535e-10 6.90532e-14)
(1760 -2.42881e-10 6.72177e-14)
(1760 -2.44004e-10 6.41165e-14)
(1760 -2.46041e-10 5.94021e-14)
(1760 -2.45168e-10 5.98218e-14)
(1760 -2.45493e-10 6.10888e-14)
(1760 -2.45505e-10 6.45845e-14)
(1760 -2.4677e-10 6.41064e-14)
(1760 -2.48936e-10 6.2871e-14)
(1760 -2.5182e-10 6.01761e-14)
(1760 -2.52813e-10 5.93786e-14)
(1760 -2.54375e-10 5.54893e-14)
(1760 -2.55254e-10 5.04827e-14)
(1760 -2.57096e-10 5.23535e-14)
(1760 -2.57515e-10 5.21764e-14)
(1760 -2.57815e-10 5.74081e-14)
(1760 -2.57296e-10 5.77443e-14)
(1760 -2.58674e-10 6.11543e-14)
(1760 -2.61305e-10 6.00161e-14)
(1760 -2.64317e-10 5.87211e-14)
(1760 -2.65225e-10 5.402e-14)
(1760 -2.6567e-10 5.07621e-14)
(1760 -2.671e-10 5.33725e-14)
(1760 -2.69316e-10 5.4026e-14)
(1760 -2.7191e-10 5.07857e-14)
(1760 -2.74947e-10 4.72773e-14)
(1760 -2.77383e-10 5.03983e-14)
(1760 -2.80692e-10 5.21586e-14)
(1760 -2.82816e-10 5.17376e-14)
(1760 -2.84017e-10 5.51468e-14)
(1760 -2.85648e-10 5.54961e-14)
(1760 -2.87169e-10 5.11054e-14)
(1760 -2.892e-10 4.98534e-14)
(1760 -2.9089e-10 4.96414e-14)
(1760 -2.92861e-10 5.05091e-14)
(1760 -2.95439e-10 4.79935e-14)
(1760 -2.98969e-10 4.80279e-14)
(1760 -3.01437e-10 4.941e-14)
(1760 -3.04371e-10 4.85634e-14)
(1760 -3.0708e-10 5.21543e-14)
(1760 -3.10801e-10 5.10662e-14)
(1760 -3.14367e-10 5.17888e-14)
(1760 -3.16165e-10 4.40695e-14)
(1760 -3.19729e-10 4.54922e-14)
(1760 -3.23995e-10 4.56262e-14)
(1760 -3.27137e-10 4.43106e-14)
(1760 -3.30998e-10 4.50451e-14)
(1760 -3.36751e-10 4.72411e-14)
(1760 -3.41714e-10 4.98854e-14)
(1760 -3.42684e-10 4.87765e-14)
(1760 -3.42878e-10 4.73942e-14)
(1760 -3.47155e-10 4.45124e-14)
(1760 -3.50848e-10 4.43843e-14)
(1760 -3.54506e-10 4.41791e-14)
(1760 -3.5743e-10 4.74374e-14)
(1760 -3.61235e-10 4.8181e-14)
(1760 -3.69545e-10 4.10058e-14)
(1760 -3.78329e-10 4.29212e-14)
(1760 -3.83017e-10 4.27814e-14)
(1760 -1.31027e-07 2.18773e-10)
(1760 -8.3645e-08 1.27303e-10)
(1760 -4.94909e-08 6.90928e-11)
(1760 -2.97632e-08 3.92709e-11)
(1760 -1.90544e-08 2.46949e-11)
(1760 -1.30916e-08 1.69762e-11)
(1760 -9.56565e-09 1.24382e-11)
(1760 -7.33916e-09 9.61395e-12)
(1760 -5.83819e-09 7.67734e-12)
(1760 -4.77765e-09 6.28109e-12)
(1760 -3.99932e-09 5.1943e-12)
(1760 -3.39843e-09 4.38166e-12)
(1760 -2.92747e-09 3.72859e-12)
(1760 -2.55184e-09 3.25053e-12)
(1760 -2.24937e-09 2.87251e-12)
(1760 -2.00498e-09 2.5193e-12)
(1760 -1.80219e-09 2.21352e-12)
(1760 -1.63516e-09 1.99301e-12)
(1760 -1.49363e-09 1.81168e-12)
(1760 -1.37165e-09 1.62485e-12)
(1760 -1.2711e-09 1.48655e-12)
(1760 -1.18064e-09 1.36677e-12)
(1760 -1.09278e-09 1.23022e-12)
(1760 -1.01381e-09 1.14574e-12)
(1760 -9.50245e-10 1.04488e-12)
(1760 -8.96509e-10 1.00282e-12)
(1760 -8.426e-10 9.17503e-13)
(1760 -7.95619e-10 8.69037e-13)
(1760 -7.58363e-10 8.25973e-13)
(1760 -7.26141e-10 7.59917e-13)
(1760 -6.95449e-10 7.01417e-13)
(1760 -6.6285e-10 6.67479e-13)
(1760 -6.33174e-10 6.13148e-13)
(1760 -6.10623e-10 5.74433e-13)
(1760 -5.89434e-10 5.52108e-13)
(1760 -5.67819e-10 5.24006e-13)
(1760 -5.46463e-10 4.94469e-13)
(1760 -5.31294e-10 4.69947e-13)
(1760 -5.16623e-10 4.32616e-13)
(1760 -4.98341e-10 4.14617e-13)
(1760 -4.8094e-10 4.12208e-13)
(1760 -4.6746e-10 3.97375e-13)
(1760 -4.6051e-10 3.76003e-13)
(1760 -4.52458e-10 3.63788e-13)
(1760 -4.43415e-10 3.49064e-13)
(1760 -4.33094e-10 3.37053e-13)
(1760 -4.19812e-10 3.13709e-13)
(1760 -4.09659e-10 3.03244e-13)
(1760 -4.01822e-10 2.90303e-13)
(1760 -4.01214e-10 2.69066e-13)
(1760 -3.92952e-10 2.72585e-13)
(1760 -3.84914e-10 2.61125e-13)
(1760 -3.78542e-10 2.55039e-13)
(1760 -3.74465e-10 2.44718e-13)
(1760 -3.69152e-10 2.41279e-13)
(1760 -3.61456e-10 2.32675e-13)
(1760 -3.59614e-10 2.12982e-13)
(1760 -3.5595e-10 2.09334e-13)
(1760 -3.51869e-10 2.11617e-13)
(1760 -3.50202e-10 1.93904e-13)
(1760 -3.44443e-10 1.86317e-13)
(1760 -3.38895e-10 1.80195e-13)
(1760 -3.36592e-10 1.83548e-13)
(1760 -3.34681e-10 1.89167e-13)
(1760 -3.32681e-10 1.73432e-13)
(1760 -3.30695e-10 1.75205e-13)
(1760 -3.28902e-10 1.69837e-13)
(1760 -3.23892e-10 1.56061e-13)
(1760 -3.20461e-10 1.6244e-13)
(1760 -3.16042e-10 1.58525e-13)
(1760 -3.1286e-10 1.49402e-13)
(1760 -3.13028e-10 1.48989e-13)
(1760 -3.13038e-10 1.43361e-13)
(1760 -3.10254e-10 1.39081e-13)
(1760 -3.11947e-10 1.4239e-13)
(1760 -3.11222e-10 1.39712e-13)
(1760 -3.10554e-10 1.3881e-13)
(1760 -3.12378e-10 1.2991e-13)
(1760 -3.13066e-10 1.21666e-13)
(1760 -3.12535e-10 1.22806e-13)
(1760 -3.08576e-10 1.29449e-13)
(1760 -3.05568e-10 1.19347e-13)
(1760 -3.04758e-10 1.14221e-13)
(1760 -3.0557e-10 1.13561e-13)
(1760 -3.06118e-10 1.13314e-13)
(1760 -3.07413e-10 1.07491e-13)
(1760 -3.06107e-10 1.03935e-13)
(1760 -3.07871e-10 1.08377e-13)
(1760 -3.09916e-10 1.13096e-13)
(1760 -3.10988e-10 1.11046e-13)
(1760 -3.11382e-10 1.02705e-13)
(1760 -3.11829e-10 1.01601e-13)
(1760 -3.12711e-10 9.99824e-14)
(1760 -3.12777e-10 9.59713e-14)
(1760 -3.10681e-10 9.4801e-14)
(1760 -3.09108e-10 9.65371e-14)
(1760 -3.10817e-10 9.0386e-14)
(1760 -3.11684e-10 9.06248e-14)
(1760 -3.12067e-10 9.12654e-14)
(1760 -3.1295e-10 8.49639e-14)
(1760 -3.14935e-10 7.98827e-14)
(1760 -3.156e-10 8.26363e-14)
(1760 -3.16198e-10 8.56566e-14)
(1760 -3.19712e-10 7.80502e-14)
(1760 -3.18473e-10 7.87558e-14)
(1760 -3.18322e-10 8.14394e-14)
(1760 -3.2053e-10 7.96627e-14)
(1760 -3.23046e-10 7.80298e-14)
(1760 -3.25681e-10 7.44852e-14)
(1760 -3.27172e-10 7.71016e-14)
(1760 -3.30641e-10 7.70004e-14)
(1760 -3.3036e-10 7.60353e-14)
(1760 -3.29876e-10 7.67719e-14)
(1760 -3.30263e-10 6.53695e-14)
(1760 -3.31311e-10 6.72497e-14)
(1760 -3.34988e-10 7.1638e-14)
(1760 -3.39332e-10 7.40462e-14)
(1760 -3.41565e-10 7.14931e-14)
(1760 -3.41414e-10 7.47141e-14)
(1760 -3.4142e-10 7.4362e-14)
(1760 -3.43877e-10 6.66278e-14)
(1760 -3.4581e-10 6.37256e-14)
(1760 -3.49402e-10 7.05467e-14)
(1760 -3.52619e-10 6.92296e-14)
(1760 -3.55814e-10 6.4793e-14)
(1760 -3.59504e-10 7.0147e-14)
(1760 -3.62112e-10 7.0459e-14)
(1760 -3.65697e-10 6.3513e-14)
(1760 -3.67691e-10 6.22382e-14)
(1760 -3.69978e-10 6.15286e-14)
(1760 -3.71912e-10 6.25488e-14)
(1760 -3.73736e-10 6.5787e-14)
(1760 -3.75898e-10 6.45092e-14)
(1760 -3.79469e-10 6.65053e-14)
(1760 -3.82607e-10 6.66911e-14)
(1760 -3.86199e-10 6.59459e-14)
(1760 -3.88751e-10 6.47895e-14)
(1760 -3.94649e-10 5.94237e-14)
(1760 -3.98721e-10 6.32007e-14)
(1760 -4.01908e-10 5.72874e-14)
(1760 -4.07059e-10 5.96958e-14)
(1760 -4.13083e-10 5.87018e-14)
(1760 -4.15275e-10 6.00263e-14)
(1760 -4.18804e-10 6.16969e-14)
(1760 -4.24131e-10 5.97064e-14)
(1760 -4.29413e-10 5.96095e-14)
(1760 -4.33245e-10 5.74306e-14)
(1760 -4.3525e-10 5.32709e-14)
(1760 -4.40222e-10 5.47329e-14)
(1760 -4.45954e-10 5.72877e-14)
(1760 -4.49586e-10 5.46079e-14)
(1760 -4.54067e-10 6.22022e-14)
(1760 -4.59041e-10 5.36273e-14)
(1760 -4.63116e-10 5.4574e-14)
(1760 -4.71822e-10 6.01645e-14)
(1760 -4.77951e-10 5.92225e-14)
(1760 -1.43499e-07 2.39717e-10)
(1760 -9.87017e-08 1.49235e-10)
(1760 -6.22126e-08 8.51518e-11)
(1760 -3.88433e-08 4.96906e-11)
(1760 -2.52297e-08 3.12659e-11)
(1760 -1.73444e-08 2.1327e-11)
(1760 -1.26051e-08 1.56382e-11)
(1760 -9.60621e-09 1.19368e-11)
(1760 -7.6012e-09 9.45302e-12)
(1760 -6.19659e-09 7.69642e-12)
(1760 -5.17197e-09 6.40274e-12)
(1760 -4.38853e-09 5.40025e-12)
(1760 -3.77636e-09 4.62588e-12)
(1760 -3.28874e-09 4.03585e-12)
(1760 -2.89428e-09 3.48725e-12)
(1760 -2.57678e-09 3.06614e-12)
(1760 -2.31314e-09 2.74773e-12)
(1760 -2.09609e-09 2.43711e-12)
(1760 -1.91277e-09 2.21635e-12)
(1760 -1.75298e-09 1.98205e-12)
(1760 -1.62132e-09 1.81988e-12)
(1760 -1.50421e-09 1.66067e-12)
(1760 -1.39378e-09 1.51462e-12)
(1760 -1.29572e-09 1.3728e-12)
(1760 -1.2136e-09 1.29728e-12)
(1760 -1.14133e-09 1.21928e-12)
(1760 -1.07458e-09 1.13081e-12)
(1760 -1.01262e-09 1.06386e-12)
(1760 -9.62165e-10 9.77895e-13)
(1760 -9.19767e-10 8.9741e-13)
(1760 -8.80912e-10 8.58894e-13)
(1760 -8.41661e-10 8.01636e-13)
(1760 -8.04619e-10 7.51541e-13)
(1760 -7.73306e-10 7.20521e-13)
(1760 -7.4495e-10 6.76938e-13)
(1760 -7.17129e-10 6.18831e-13)
(1760 -6.87982e-10 6.20331e-13)
(1760 -6.69791e-10 5.80602e-13)
(1760 -6.50487e-10 5.52916e-13)
(1760 -6.27866e-10 5.33445e-13)
(1760 -6.07166e-10 4.94243e-13)
(1760 -5.90813e-10 4.73854e-13)
(1760 -5.77089e-10 4.55579e-13)
(1760 -5.66808e-10 4.40951e-13)
(1760 -5.56017e-10 4.25413e-13)
(1760 -5.42226e-10 4.17144e-13)
(1760 -5.27556e-10 3.84312e-13)
(1760 -5.15585e-10 3.72617e-13)
(1760 -5.04076e-10 3.61733e-13)
(1760 -5.0007e-10 3.39955e-13)
(1760 -4.91604e-10 3.30911e-13)
(1760 -4.81629e-10 3.2003e-13)
(1760 -4.7145e-10 3.06823e-13)
(1760 -4.64959e-10 3.0118e-13)
(1760 -4.60625e-10 2.85064e-13)
(1760 -4.51904e-10 2.72392e-13)
(1760 -4.46502e-10 2.65694e-13)
(1760 -4.43479e-10 2.66025e-13)
(1760 -4.37515e-10 2.5065e-13)
(1760 -4.34811e-10 2.41597e-13)
(1760 -4.28374e-10 2.4029e-13)
(1760 -4.22069e-10 2.31011e-13)
(1760 -4.17403e-10 2.2553e-13)
(1760 -4.15311e-10 2.16367e-13)
(1760 -4.11784e-10 2.15274e-13)
(1760 -4.09932e-10 2.16216e-13)
(1760 -4.08727e-10 2.01701e-13)
(1760 -4.0346e-10 1.91164e-13)
(1760 -4.00915e-10 1.98122e-13)
(1760 -3.95031e-10 1.88259e-13)
(1760 -3.89942e-10 1.80506e-13)
(1760 -3.86235e-10 1.7763e-13)
(1760 -3.8591e-10 1.76498e-13)
(1760 -3.82189e-10 1.66537e-13)
(1760 -3.84042e-10 1.72148e-13)
(1760 -3.83554e-10 1.66554e-13)
(1760 -3.82455e-10 1.60889e-13)
(1760 -3.83258e-10 1.56686e-13)
(1760 -3.84289e-10 1.67626e-13)
(1760 -3.84507e-10 1.58874e-13)
(1760 -3.8098e-10 1.5367e-13)
(1760 -3.77745e-10 1.42659e-13)
(1760 -3.74948e-10 1.42393e-13)
(1760 -3.75083e-10 1.3296e-13)
(1760 -3.76877e-10 1.36123e-13)
(1760 -3.76694e-10 1.28515e-13)
(1760 -3.75386e-10 1.33388e-13)
(1760 -3.76161e-10 1.29473e-13)
(1760 -3.79935e-10 1.30409e-13)
(1760 -3.80496e-10 1.21102e-13)
(1760 -3.80856e-10 1.2027e-13)
(1760 -3.80539e-10 1.24089e-13)
(1760 -3.81626e-10 1.18517e-13)
(1760 -3.837e-10 1.14506e-13)
(1760 -3.82885e-10 1.16381e-13)
(1760 -3.81878e-10 1.15985e-13)
(1760 -3.81244e-10 1.08013e-13)
(1760 -3.81135e-10 1.10626e-13)
(1760 -3.80535e-10 1.11072e-13)
(1760 -3.81532e-10 1.09933e-13)
(1760 -3.82436e-10 1.07068e-13)
(1760 -3.85347e-10 1.07851e-13)
(1760 -3.85571e-10 9.87163e-14)
(1760 -3.89096e-10 9.72062e-14)
(1760 -3.90576e-10 1.02071e-13)
(1760 -3.9043e-10 1.00607e-13)
(1760 -3.91595e-10 9.88594e-14)
(1760 -3.92472e-10 9.61335e-14)
(1760 -3.95421e-10 9.92248e-14)
(1760 -3.97386e-10 9.98025e-14)
(1760 -4.02651e-10 9.31385e-14)
(1760 -4.05016e-10 9.16055e-14)
(1760 -4.03965e-10 8.82324e-14)
(1760 -4.03072e-10 8.81897e-14)
(1760 -4.03975e-10 9.15486e-14)
(1760 -4.06371e-10 9.12284e-14)
(1760 -4.10581e-10 9.36602e-14)
(1760 -4.13598e-10 9.41824e-14)
(1760 -4.14321e-10 9.32408e-14)
(1760 -4.14484e-10 8.84108e-14)
(1760 -4.16544e-10 7.95279e-14)
(1760 -4.19471e-10 8.6679e-14)
(1760 -4.22009e-10 9.0739e-14)
(1760 -4.26055e-10 8.39035e-14)
(1760 -4.30057e-10 8.02176e-14)
(1760 -4.32947e-10 8.09762e-14)
(1760 -4.35519e-10 8.14363e-14)
(1760 -4.4043e-10 8.10704e-14)
(1760 -4.43899e-10 8.21822e-14)
(1760 -4.48209e-10 8.05001e-14)
(1760 -4.52471e-10 8.21451e-14)
(1760 -4.54704e-10 8.21285e-14)
(1760 -4.56638e-10 8.09708e-14)
(1760 -4.59735e-10 8.16621e-14)
(1760 -4.63568e-10 8.0411e-14)
(1760 -4.67225e-10 8.00118e-14)