/*--------------------------------*- C++ -*----------------------------------*\
| =========                 |                                                 |
| \\      /  F ield         | OpenFOAM: The Open Source CFD Toolbox           |
|  \\    /   O peration     | Version:  v1706                                 |
|   \\  /    A nd           | Web:      www.OpenFOAM.com                      |
|    \\/     M anipulation  |                                                 |
\*---------------------------------------------------------------------------*/
FoamFile
{
    version     2.0;
    format      ascii;
    class       volScalarField;
    location    "3.7e-05";
    object      wallHeatFlux;
}
// * * * * * * * * * * * * * * * * * * * * * * * * * * * * * * * * * * * * * //

dimensions      [1 0 -3 0 0 0 0];


internalField   uniform 0;

boundaryField
{
    cone
    {
        type            calculated;
        value           nonuniform List<scalar> 
147
(
244377
244325
244252
244188
244101
244008
243896
243772
243631
243475
243304
243117
242916
242699
242467
242220
241957
241679
241386
241077
240754
240414
240059
239689
239304
238903
238487
238055
237609
237147
236671
236179
235673
235152
234616
234066
233502
232923
232330
231723
231102
230468
229819
229158
228483
227795
227093
226379
225652
224912
224160
223395
222618
221828
221027
220214
219389
218554
217708
216852
215985
215107
214218
213319
212410
211490
210560
209620
208671
207711
206743
205764
204777
203781
202775
201761
200739
199708
198668
197621
196566
195503
194433
193355
192270
191179
190080
188975
187863
186745
185620
184490
183354
182213
181066
179914
178757
177595
176429
175258
174083
172903
171720
170533
169343
168150
166953
165753
164551
163346
162139
160930
159719
158506
157292
156076
154859
153641
152423
151203
149983
148763
147543
146323
145103
143883
142665
141447
140230
139014
137799
136586
135374
134164
132957
131751
130548
129347
128148
126953
125761
124574
123393
122217
121044
119871
244643
)
;
    }
    inlet
    {
        type            calculated;
        value           uniform 0;
    }
    rWedge
    {
        type            wedge;
    }
    lWedge
    {
        type            wedge;
    }
    outlet
    {
        type            calculated;
        value           nonuniform 0();
    }
    procBoundary3to2
    {
        type            processor;
        value           uniform 0;
    }
}


// ************************************************************************* //
