/*--------------------------------*- C++ -*----------------------------------*\
| =========                 |                                                 |
| \\      /  F ield         | OpenFOAM: The Open Source CFD Toolbox           |
|  \\    /   O peration     | Version:  v1706                                 |
|   \\  /    A nd           | Web:      www.OpenFOAM.com                      |
|    \\/     M anipulation  |                                                 |
\*---------------------------------------------------------------------------*/
FoamFile
{
    version     2.0;
    format      ascii;
    class       volScalarField;
    location    "1.2e-05";
    object      kappatr;
}
// * * * * * * * * * * * * * * * * * * * * * * * * * * * * * * * * * * * * * //

dimensions      [1 1 -3 -1 0 0 0];


internalField   nonuniform List<scalar> 
30038
(
0.014593
0.014593
0.014593
0.014593
0.014593
0.014593
0.014593
0.014593
0.014593
0.014593
0.014593
0.014593
0.014593
0.014593
0.014593
0.014593
0.014593
0.014593
0.014593
0.014593
0.014593
0.014593
0.014593
0.014593
0.014593
0.014593
0.014593
0.014593
0.014593
0.014593
0.014593
0.014593
0.014593
0.014593
0.014593
0.014593
0.014593
0.014593
0.014593
0.014593
0.014593
0.014593
0.014593
0.014593
0.014593
0.014593
0.014593
0.014593
0.014593
0.014593
0.014593
0.014593
0.014593
0.014593
0.014593
0.014593
0.014593
0.014593
0.014593
0.014593
0.014593
0.014593
0.014593
0.014593
0.014593
0.014593
0.014593
0.014593
0.014593
0.014593
0.014593
0.014593
0.014593
0.014593
0.014593
0.014593
0.014593
0.014593
0.014593
0.014593
0.014593
0.014593
0.014593
0.014593
0.014593
0.014593
0.014593
0.014593
0.014593
0.014593
0.014593
0.014593
0.014593
0.014593
0.014593
0.014593
0.014593
0.014593
0.014593
0.014593
0.014593
0.014593
0.014593
0.014593
0.014593
0.014593
0.014593
0.014593
0.014593
0.014593
0.014593
0.014593
0.014593
0.014593
0.014593
0.014593
0.014593
0.014593
0.014593
0.014593
0.014593
0.014593
0.014593
0.014593
0.014593
0.014593
0.014593
0.014593
0.014593
0.014593
0.014593
0.014593
0.014593
0.014593
0.014593
0.014593
0.014593
0.014593
0.014593
0.014593
0.014593
0.014593
0.014593
0.014593
0.014593
0.014593
0.014593
0.014593
0.014593
0.014593
0.014593
0.014593
0.014593
0.014593
0.014593
0.014593
0.014593
0.014593
0.014593
0.014593
0.014593
0.014593
0.014593
0.014593
0.014593
0.014593
0.014593
0.014593
0.014593
0.014593
0.014593
0.014593
0.014593
0.014593
0.014593
0.014593
0.014593
0.014593
0.014593
0.014593
0.014593
0.014593
0.014593
0.014593
0.014593
0.014593
0.014593
0.014593
0.014593
0.014593
0.014593
0.014593
0.014593
0.014593
0.014593
0.014593
0.014593
0.014593
0.014593
0.014593
0.014593
0.014593
0.014593
0.014593
0.014593
0.014593
0.014593
0.014593
0.014593
0.014593
0.014593
0.014593
0.014593
0.014593
0.014593
0.014593
0.014593
0.014593
0.014593
0.014593
0.014593
0.014593
0.014593
0.014593
0.014593
0.014593
0.014593
0.014593
0.014593
0.014593
0.014593
0.014593
0.014593
0.014593
0.014593
0.014593
0.014593
0.014593
0.014593
0.014593
0.014593
0.014593
0.014593
0.014593
0.014593
0.014593
0.014593
0.014593
0.014593
0.014593
0.014593
0.014593
0.014593
0.014593
0.014593
0.014593
0.014593
0.014593
0.014593
0.014593
0.014593
0.014593
0.014593
0.014593
0.014593
0.014593
0.014593
0.014593
0.014593
0.014593
0.014593
0.014593
0.014593
0.014593
0.014593
0.014593
0.014593
0.014593
0.014593
0.014593
0.014593
0.014593
0.014593
0.014593
0.014593
0.014593
0.014593
0.014593
0.014593
0.014593
0.014593
0.014593
0.014593
0.014593
0.014593
0.014593
0.014593
0.014593
0.014593
0.014593
0.014593
0.014593
0.014593
0.014593
0.014593
0.014593
0.014593
0.014593
0.014593
0.014593
0.014593
0.014593
0.014593
0.014593
0.014593
0.014593
0.014593
0.014593
0.014593
0.014593
0.014593
0.014593
0.014593
0.014593
0.014593
0.014593
0.014593
0.014593
0.014593
0.014593
0.014593
0.014593
0.014593
0.014593
0.014593
0.014593
0.014593
0.014593
0.014593
0.014593
0.014593
0.014593
0.014593
0.014593
0.014593
0.014593
0.014593
0.014593
0.014593
0.014593
0.014593
0.014593
0.014593
0.014593
0.014593
0.014593
0.014593
0.014593
0.014593
0.014593
0.014593
0.014593
0.014593
0.014593
0.014593
0.014593
0.014593
0.014593
0.014593
0.014593
0.014593
0.014593
0.014593
0.014593
0.014593
0.014593
0.014593
0.014593
0.014593
0.014593
0.014593
0.014593
0.014593
0.014593
0.014593
0.014593
0.014593
0.014593
0.014593
0.014593
0.014593
0.014593
0.014593
0.014593
0.014593
0.014593
0.014593
0.014593
0.014593
0.014593
0.014593
0.014593
0.014593
0.014593
0.014593
0.014593
0.014593
0.014593
0.014593
0.014593
0.014593
0.014593
0.014593
0.014593
0.014593
0.014593
0.014593
0.014593
0.014593
0.014593
0.014593
0.014593
0.014593
0.014593
0.014593
0.014593
0.014593
0.014593
0.014593
0.014593
0.014593
0.014593
0.014593
0.014593
0.014593
0.014593
0.014593
0.014593
0.014593
0.014593
0.014593
0.014593
0.014593
0.014593
0.014593
0.014593
0.014593
0.014593
0.014593
0.014593
0.014593
0.014593
0.014593
0.014593
0.014593
0.014593
0.014593
0.014593
0.014593
0.014593
0.014593
0.014593
0.014593
0.014593
0.014593
0.014593
0.014593
0.014593
0.014593
0.014593
0.014593
0.014593
0.014593
0.014593
0.014593
0.014593
0.014593
0.014593
0.014593
0.014593
0.014593
0.014593
0.014593
0.014593
0.014593
0.014593
0.014593
0.014593
0.014593
0.014593
0.014593
0.014593
0.014593
0.014593
0.014593
0.014593
0.014593
0.014593
0.014593
0.014593
0.014593
0.014593
0.014593
0.014593
0.014593
0.014593
0.014593
0.014593
0.014593
0.014593
0.014593
0.014593
0.014593
0.014593
0.014593
0.014593
0.014593
0.014593
0.014593
0.014593
0.014593
0.014593
0.014593
0.014593
0.014593
0.014593
0.014593
0.014593
0.014593
0.014593
0.014593
0.014593
0.014593
0.014593
0.014593
0.014593
0.014593
0.014593
0.014593
0.014593
0.014593
0.014593
0.014593
0.014593
0.014593
0.014593
0.014593
0.014593
0.014593
0.014593
0.014593
0.014593
0.014593
0.014593
0.014593
0.014593
0.014593
0.014593
0.014593
0.014593
0.014593
0.014593
0.014593
0.014593
0.014593
0.014593
0.014593
0.014593
0.014593
0.014593
0.014593
0.014593
0.014593
0.014593
0.014593
0.014593
0.014593
0.014593
0.014593
0.014593
0.014593
0.014593
0.014593
0.014593
0.014593
0.014593
0.014593
0.014593
0.014593
0.014593
0.014593
0.014593
0.014593
0.014593
0.014593
0.014593
0.014593
0.014593
0.014593
0.014593
0.014593
0.014593
0.014593
0.014593
0.014593
0.014593
0.014593
0.014593
0.014593
0.014593
0.014593
0.014593
0.014593
0.014593
0.014593
0.014593
0.014593
0.014593
0.014593
0.014593
0.014593
0.014593
0.014593
0.014593
0.014593
0.014593
0.014593
0.014593
0.014593
0.014593
0.014593
0.014593
0.014593
0.014593
0.014593
0.014593
0.014593
0.014593
0.014593
0.014593
0.014593
0.014593
0.014593
0.014593
0.014593
0.014593
0.014593
0.014593
0.014593
0.014593
0.014593
0.014593
0.014593
0.014593
0.014593
0.014593
0.014593
0.014593
0.014593
0.014593
0.014593
0.014593
0.014593
0.014593
0.014593
0.014593
0.014593
0.014593
0.014593
0.014593
0.014593
0.014593
0.014593
0.014593
0.014593
0.014593
0.014593
0.014593
0.014593
0.014593
0.014593
0.014593
0.014593
0.014593
0.014593
0.014593
0.014593
0.014593
0.014593
0.014593
0.014593
0.014593
0.014593
0.014593
0.014593
0.014593
0.014593
0.014593
0.014593
0.014593
0.014593
0.014593
0.014593
0.014593
0.014593
0.014593
0.014593
0.014593
0.014593
0.014593
0.014593
0.014593
0.014593
0.014593
0.014593
0.014593
0.014593
0.014593
0.014593
0.014593
0.014593
0.014593
0.014593
0.014593
0.014593
0.014593
0.014593
0.014593
0.014593
0.014593
0.014593
0.014593
0.014593
0.014593
0.014593
0.014593
0.014593
0.014593
0.014593
0.014593
0.014593
0.014593
0.014593
0.014593
0.014593
0.014593
0.014593
0.014593
0.014593
0.014593
0.014593
0.014593
0.014593
0.014593
0.014593
0.014593
0.014593
0.014593
0.014593
0.014593
0.014593
0.014593
0.014593
0.014593
0.014593
0.014593
0.014593
0.014593
0.014593
0.014593
0.014593
0.014593
0.014593
0.014593
0.014593
0.014593
0.014593
0.014593
0.014593
0.014593
0.014593
0.014593
0.014593
0.014593
0.014593
0.014593
0.014593
0.014593
0.014593
0.014593
0.014593
0.014593
0.014593
0.014593
0.014593
0.014593
0.014593
0.014593
0.014593
0.014593
0.014593
0.014593
0.014593
0.014593
0.014593
0.014593
0.014593
0.014593
0.014593
0.014593
0.014593
0.014593
0.014593
0.014593
0.014593
0.014593
0.014593
0.014593
0.014593
0.014593
0.014593
0.014593
0.014593
0.014593
0.014593
0.014593
0.014593
0.014593
0.014593
0.014593
0.014593
0.014593
0.014593
0.014593
0.014593
0.014593
0.014593
0.014593
0.014593
0.014593
0.014593
0.014593
0.014593
0.014593
0.014593
0.014593
0.014593
0.014593
0.014593
0.014593
0.014593
0.014593
0.014593
0.014593
0.014593
0.014593
0.014593
0.014593
0.014593
0.014593
0.014593
0.014593
0.014593
0.014593
0.014593
0.014593
0.014593
0.014593
0.014593
0.014593
0.014593
0.014593
0.014593
0.014593
0.014593
0.014593
0.014593
0.014593
0.014593
0.014593
0.014593
0.014593
0.014593
0.014593
0.014593
0.014593
0.014593
0.014593
0.014593
0.014593
0.014593
0.014593
0.014593
0.014593
0.014593
0.014593
0.014593
0.014593
0.014593
0.014593
0.014593
0.014593
0.014593
0.014593
0.014593
0.014593
0.014593
0.014593
0.014593
0.014593
0.014593
0.014593
0.014593
0.014593
0.014593
0.014593
0.014593
0.014593
0.014593
0.014593
0.014593
0.014593
0.014593
0.014593
0.014593
0.014593
0.014593
0.014593
0.014593
0.014593
0.014593
0.014593
0.014593
0.014593
0.014593
0.014593
0.014593
0.014593
0.014593
0.014593
0.014593
0.014593
0.014593
0.014593
0.014593
0.014593
0.014593
0.014593
0.014593
0.014593
0.014593
0.014593
0.014593
0.014593
0.014593
0.014593
0.014593
0.014593
0.014593
0.014593
0.014593
0.014593
0.014593
0.014593
0.014593
0.014593
0.014593
0.014593
0.014593
0.014593
0.014593
0.014593
0.014593
0.014593
0.014593
0.014593
0.014593
0.014593
0.014593
0.014593
0.014593
0.014593
0.014593
0.014593
0.014593
0.014593
0.014593
0.014593
0.014593
0.014593
0.014593
0.014593
0.014593
0.014593
0.014593
0.014593
0.014593
0.014593
0.014593
0.014593
0.014593
0.014593
0.014593
0.014593
0.014593
0.014593
0.014593
0.014593
0.014593
0.014593
0.014593
0.014593
0.014593
0.014593
0.014593
0.014593
0.014593
0.014593
0.014593
0.014593
0.014593
0.014593
0.014593
0.014593
0.014593
0.014593
0.014593
0.014593
0.014593
0.014593
0.014593
0.014593
0.014593
0.014593
0.014593
0.014593
0.014593
0.014593
0.014593
0.014593
0.014593
0.014593
0.014593
0.014593
0.014593
0.014593
0.014593
0.014593
0.014593
0.014593
0.014593
0.014593
0.014593
0.014593
0.014593
0.014593
0.014593
0.014593
0.014593
0.014593
0.014593
0.014593
0.014593
0.014593
0.014593
0.014593
0.014593
0.014593
0.014593
0.014593
0.014593
0.014593
0.014593
0.014593
0.014593
0.014593
0.014593
0.014593
0.014593
0.014593
0.014593
0.014593
0.014593
0.014593
0.014593
0.014593
0.014593
0.014593
0.014593
0.014593
0.014593
0.014593
0.014593
0.014593
0.014593
0.014593
0.014593
0.014593
0.014593
0.014593
0.014593
0.014593
0.014593
0.014593
0.014593
0.014593
0.014593
0.014593
0.014593
0.014593
0.014593
0.014593
0.014593
0.014593
0.014593
0.014593
0.014593
0.014593
0.014593
0.014593
0.014593
0.014593
0.014593
0.014593
0.014593
0.014593
0.014593
0.014593
0.014593
0.014593
0.014593
0.014593
0.014593
0.014593
0.014593
0.014593
0.014593
0.014593
0.014593
0.014593
0.014593
0.014593
0.014593
0.014593
0.014593
0.014593
0.014593
0.014593
0.014593
0.014593
0.014593
0.014593
0.014593
0.014593
0.014593
0.014593
0.014593
0.014593
0.014593
0.014593
0.014593
0.014593
0.014593
0.014593
0.014593
0.014593
0.014593
0.014593
0.014593
0.014593
0.014593
0.014593
0.014593
0.014593
0.014593
0.014593
0.014593
0.014593
0.014593
0.014593
0.014593
0.014593
0.014593
0.014593
0.014593
0.014593
0.014593
0.014593
0.014593
0.014593
0.014593
0.014593
0.014593
0.014593
0.014593
0.014593
0.014593
0.014593
0.014593
0.014593
0.014593
0.014593
0.014593
0.014593
0.014593
0.014593
0.014593
0.014593
0.014593
0.014593
0.014593
0.014593
0.014593
0.014593
0.014593
0.014593
0.014593
0.014593
0.014593
0.014593
0.014593
0.014593
0.014593
0.014593
0.014593
0.014593
0.014593
0.014593
0.014593
0.014593
0.014593
0.014593
0.014593
0.014593
0.014593
0.014593
0.014593
0.014593
0.014593
0.014593
0.014593
0.0145931
0.014593
0.014593
0.014593
0.014593
0.014593
0.014593
0.014593
0.014593
0.014593
0.014593
0.014593
0.014593
0.014593
0.014593
0.014593
0.014593
0.014593
0.014593
0.014593
0.014593
0.014593
0.014593
0.014593
0.014593
0.014593
0.014593
0.014593
0.014593
0.014593
0.014593
0.014593
0.014593
0.014593
0.014593
0.014593
0.014593
0.014593
0.014593
0.014593
0.014593
0.014593
0.014593
0.014593
0.014593
0.014593
0.014593
0.014593
0.0145931
0.0145932
0.0145933
0.014593
0.014593
0.014593
0.014593
0.014593
0.014593
0.014593
0.014593
0.014593
0.014593
0.014593
0.014593
0.014593
0.014593
0.014593
0.014593
0.014593
0.014593
0.014593
0.014593
0.014593
0.014593
0.014593
0.014593
0.014593
0.014593
0.014593
0.014593
0.014593
0.014593
0.014593
0.014593
0.014593
0.014593
0.014593
0.014593
0.014593
0.014593
0.014593
0.014593
0.014593
0.014593
0.014593
0.014593
0.0145931
0.0145931
0.0145933
0.0145935
0.0145939
0.0145946
0.014593
0.014593
0.014593
0.014593
0.014593
0.014593
0.014593
0.014593
0.014593
0.014593
0.014593
0.014593
0.014593
0.014593
0.014593
0.014593
0.014593
0.014593
0.014593
0.014593
0.014593
0.014593
0.014593
0.014593
0.014593
0.014593
0.014593
0.014593
0.014593
0.014593
0.014593
0.014593
0.014593
0.014593
0.014593
0.014593
0.014593
0.014593
0.014593
0.014593
0.0145931
0.0145931
0.0145931
0.0145933
0.0145935
0.0145938
0.0145944
0.0145956
0.0145978
0.0146021
0.014593
0.014593
0.014593
0.014593
0.014593
0.014593
0.014593
0.014593
0.014593
0.014593
0.014593
0.014593
0.014593
0.014593
0.014593
0.014593
0.014593
0.014593
0.014593
0.014593
0.014593
0.014593
0.014593
0.014593
0.014593
0.014593
0.014593
0.014593
0.014593
0.014593
0.014593
0.014593
0.014593
0.014593
0.014593
0.014593
0.014593
0.0145931
0.0145931
0.0145931
0.0145933
0.0145935
0.0145938
0.0145944
0.0145955
0.0145975
0.014601
0.0146074
0.0146193
0.0146424
0.014593
0.014593
0.014593
0.014593
0.014593
0.014593
0.014593
0.014593
0.014593
0.014593
0.014593
0.014593
0.014593
0.014593
0.014593
0.014593
0.014593
0.014593
0.014593
0.014593
0.014593
0.014593
0.014593
0.014593
0.014593
0.014593
0.014593
0.014593
0.014593
0.014593
0.014593
0.014593
0.014593
0.014593
0.0145931
0.0145931
0.0145932
0.0145933
0.0145935
0.0145938
0.0145944
0.0145955
0.0145973
0.0146007
0.0146066
0.0146172
0.0146363
0.0146708
0.0147335
0.0148529
0.014593
0.014593
0.014593
0.014593
0.014593
0.014593
0.014593
0.014593
0.014593
0.014593
0.014593
0.014593
0.014593
0.014593
0.014593
0.014593
0.014593
0.014593
0.014593
0.014593
0.014593
0.014593
0.014593
0.014593
0.014593
0.014593
0.014593
0.014593
0.014593
0.014593
0.014593
0.0145931
0.0145931
0.0145932
0.0145933
0.0145935
0.0145938
0.0145944
0.0145955
0.0145973
0.0146006
0.0146062
0.0146163
0.014634
0.0146655
0.0147214
0.0148207
0.0149969
0.015309
0.0158682
0.014593
0.014593
0.014593
0.014593
0.014593
0.014593
0.014593
0.014593
0.014593
0.014593
0.014593
0.014593
0.014593
0.014593
0.014593
0.014593
0.014593
0.014593
0.014593
0.014593
0.014593
0.014593
0.014593
0.014593
0.014593
0.014593
0.014593
0.014593
0.0145931
0.0145931
0.0145932
0.0145933
0.0145935
0.0145939
0.0145945
0.0145956
0.0145974
0.0146006
0.0146062
0.014616
0.0146329
0.0146627
0.0147149
0.0148063
0.014966
0.015243
0.0157172
0.0165098
0.0177911
0.0197786
0.014593
0.014593
0.014593
0.014593
0.014593
0.014593
0.014593
0.014593
0.014593
0.014593
0.014593
0.014593
0.014593
0.014593
0.014593
0.014593
0.014593
0.014593
0.014593
0.014593
0.014593
0.014593
0.014593
0.014593
0.0145931
0.0145931
0.0145931
0.0145932
0.0145933
0.0145936
0.014594
0.0145946
0.0145958
0.0145977
0.014601
0.0146066
0.0146163
0.014633
0.0146619
0.0147119
0.0147985
0.0149478
0.015204
0.0156378
0.0163559
0.0175045
0.0192551
0.021768
0.0251472
0.029401
0.014593
0.014593
0.014593
0.014593
0.014593
0.014593
0.014593
0.014593
0.014593
0.014593
0.014593
0.014593
0.014593
0.014593
0.014593
0.014593
0.014593
0.014593
0.014593
0.014593
0.014593
0.0145931
0.0145931
0.0145932
0.0145932
0.0145934
0.0145937
0.0145941
0.0145948
0.014596
0.0145981
0.0146015
0.0146074
0.0146173
0.0146342
0.014663
0.0147123
0.0147964
0.0149399
0.0151832
0.0155905
0.0162591
0.0173217
0.0189364
0.0212544
0.0243736
0.0283033
0.032961
0.0382044
0.0438542
0.014593
0.014593
0.014593
0.014593
0.014593
0.014593
0.014593
0.014593
0.014593
0.014593
0.014593
0.014593
0.014593
0.014593
0.014593
0.014593
0.014593
0.014593
0.0145931
0.0145931
0.0145932
0.0145933
0.0145935
0.0145938
0.0145943
0.0145951
0.0145964
0.0145986
0.0146024
0.0146086
0.014619
0.0146365
0.0146661
0.0147159
0.0147999
0.0149415
0.0151784
0.0155707
0.0162078
0.0172124
0.0187312
0.0209079
0.0238421
0.0275536
0.0319744
0.0369691
0.0423716
0.0480181
0.0537701
0.0594978
0.014593
0.014593
0.014593
0.014593
0.014593
0.014593
0.014593
0.014593
0.014593
0.014593
0.014593
0.014593
0.014593
0.014593
0.0145931
0.0145931
0.0145931
0.0145932
0.0145934
0.0145936
0.0145939
0.0145945
0.0145954
0.0145969
0.0145994
0.0146036
0.0146103
0.0146216
0.0146403
0.0146713
0.0147231
0.0148092
0.0149525
0.0151892
0.0155763
0.0161979
0.0171681
0.0186237
0.0206999
0.0234944
0.0270339
0.0312643
0.0360666
0.0412873
0.046768
0.0523646
0.0579556
0.0634348
0.0687094
0.0737162
0.014593
0.014593
0.014593
0.014593
0.014593
0.014593
0.014593
0.014593
0.014593
0.014593
0.0145931
0.0145931
0.0145931
0.0145932
0.0145933
0.0145935
0.0145937
0.0145941
0.0145948
0.0145959
0.0145977
0.0146006
0.0146052
0.0146128
0.0146253
0.0146457
0.0146792
0.0147344
0.014825
0.0149737
0.0152163
0.0156077
0.0162282
0.0171854
0.018607
0.0206191
0.0233143
0.0267215
0.030796
0.0354321
0.0404902
0.0458226
0.0512923
0.056781
0.0621867
0.0674138
0.0723828
0.0770289
0.081274
0.0850512
0.014593
0.014593
0.014593
0.014593
0.014593
0.014593
0.014593
0.0145931
0.0145931
0.0145932
0.0145932
0.0145934
0.0145936
0.0145939
0.0145944
0.0145953
0.0145966
0.0145987
0.0146021
0.0146075
0.0146163
0.0146304
0.0146533
0.0146905
0.0147508
0.0148486
0.0150069
0.0152616
0.0156669
0.0163005
0.0172648
0.0186793
0.0206607
0.0232938
0.0266059
0.0305574
0.0350527
0.0399643
0.0451559
0.0504993
0.0558819
0.061209
0.0663921
0.0713509
0.0760183
0.0803297
0.0842027
0.0875504
0.0903048
0.0924929
0.014593
0.014593
0.014593
0.014593
0.0145931
0.0145931
0.0145931
0.0145932
0.0145933
0.0145935
0.0145938
0.0145942
0.0145949
0.0145959
0.0145976
0.0146001
0.0146042
0.0146107
0.0146211
0.0146376
0.0146639
0.0147061
0.0147737
0.0148819
0.0150546
0.0153285
0.0157581
0.0164194
0.0174106
0.0188437
0.0208251
0.0234305
0.026682
0.0305417
0.0349213
0.0397038
0.0447639
0.0499825
0.0552545
0.0604902
0.0656103
0.0705378
0.0752065
0.0795583
0.0835274
0.087031
0.0899941
0.0923791
0.0942115
0.0955562
0.096534
0.0145931
0.0145931
0.0145931
0.0145932
0.0145933
0.0145935
0.0145937
0.0145941
0.0145946
0.0145955
0.0145968
0.0145989
0.0146022
0.0146072
0.0146152
0.0146277
0.0146474
0.0146785
0.0147276
0.0148053
0.0149279
0.015121
0.0154225
0.0158879
0.0165927
0.0176312
0.0191079
0.0211186
0.0237276
0.02695
0.0307466
0.0350344
0.0397051
0.0446438
0.049741
0.0548993
0.0600348
0.0650752
0.0699506
0.0745962
0.0789571
0.0829787
0.0865918
0.0897198
0.0923083
0.0943486
0.0958866
0.0969994
0.0977844
0.0983252
0.0987087
0.0145932
0.0145933
0.0145934
0.0145937
0.014594
0.0145945
0.0145952
0.0145964
0.0145982
0.0146009
0.0146051
0.0146115
0.0146215
0.014637
0.0146611
0.0146987
0.0147573
0.0148487
0.0149911
0.0152118
0.0155512
0.0160662
0.016832
0.0179394
0.0194848
0.0215523
0.0241938
0.0274151
0.0311741
0.0353911
0.039966
0.0447933
0.0497733
0.0548167
0.0598458
0.0647943
0.0696003
0.0742022
0.0785465
0.0825848
0.0862609
0.0895056
0.0922561
0.0944828
0.0962032
0.097478
0.0983883
0.0990232
0.0994557
0.0997527
0.0999566
0.100097
0.014594
0.0145944
0.0145951
0.0145962
0.0145977
0.0146001
0.0146038
0.0146093
0.0146177
0.0146305
0.0146502
0.0146804
0.0147269
0.0147986
0.0149087
0.0150778
0.0153358
0.0157258
0.0163067
0.0171535
0.018353
0.0199925
0.0221428
0.0248424
0.0280866
0.0318295
0.0359938
0.0404865
0.0452115
0.0500786
0.0550068
0.0599254
0.0647731
0.0694951
0.0740349
0.0783409
0.0823678
0.0860693
0.0893862
0.0922554
0.0946344
0.0965185
0.0979474
0.0989884
0.0997226
0.100229
0.100571
0.100802
0.100954
0.10105
0.101124
0.101191
0.0145976
0.0145998
0.0146031
0.014608
0.0146155
0.0146267
0.0146436
0.0146692
0.014708
0.0147669
0.0148565
0.0149922
0.0151973
0.0155051
0.0159618
0.0166284
0.0175792
0.0188957
0.0206543
0.0229116
0.0256912
0.028978
0.0327215
0.0368471
0.0412684
0.0458985
0.0506564
0.0554696
0.060274
0.0650139
0.0696398
0.0741017
0.0783506
0.0823434
0.0860397
0.0893906
0.092338
0.0948326
0.0968541
0.0984216
0.0995887
0.100425
0.101008
0.101403
0.101668
0.101843
0.101951
0.102014
0.10207
0.102107
0.102103
0.102086
0.0146145
0.0146248
0.0146401
0.0146628
0.0146969
0.0147479
0.0148243
0.0149387
0.0151095
0.0153633
0.0157372
0.016281
0.0170571
0.0181379
0.0195973
0.0214993
0.0238846
0.0267617
0.0301052
0.0338612
0.0379576
0.042315
0.0468552
0.0515063
0.0562039
0.0608909
0.0655167
0.0700368
0.0744074
0.0785829
0.0825224
0.0861892
0.0895423
0.0925308
0.0951044
0.0972331
0.0989195
0.100201
0.101136
0.101797
0.10225
0.102552
0.102749
0.102873
0.102941
0.102985
0.103022
0.103022
0.103
0.102961
0.102908
0.102855
0.0146918
0.0147381
0.0148066
0.0149077
0.0150569
0.0152759
0.0155955
0.016057
0.016713
0.0176266
0.0188657
0.0204943
0.0225615
0.0250913
0.0280778
0.0314864
0.0352609
0.0393327
0.0436296
0.0480822
0.0526272
0.0572082
0.0617743
0.0662808
0.0706871
0.0749549
0.079043
0.0829125
0.0865291
0.089858
0.0928557
0.0954744
0.0976787
0.099459
0.100838
0.101865
0.102602
0.103112
0.103454
0.103677
0.103819
0.103895
0.103931
0.103958
0.103967
0.103945
0.103903
0.103845
0.103778
0.103709
0.103643
0.10358
0.0150306
0.0152286
0.0155142
0.0159226
0.0164989
0.0172978
0.0183804
0.0198071
0.0216291
0.0238788
0.0265635
0.0296642
0.0331395
0.0369327
0.0409797
0.0452159
0.0495804
0.0540183
0.0584804
0.0629223
0.0673041
0.0715896
0.0757448
0.0797329
0.0835176
0.0870666
0.0903494
0.093329
0.095962
0.0982111
0.100059
0.101518
0.102623
0.103428
0.103993
0.104378
0.104627
0.104783
0.104872
0.10491
0.104924
0.104929
0.104912
0.104869
0.104808
0.104734
0.104655
0.104575
0.104497
0.10442
0.104345
0.104273
0.016385
0.0171099
0.0180869
0.0193716
0.0210135
0.0230482
0.0254905
0.0283325
0.0315447
0.0350814
0.0388877
0.042905
0.0470766
0.0513499
0.0556777
0.0600178
0.0643314
0.0685835
0.0727415
0.0767752
0.0806522
0.0843391
0.0878054
0.0910236
0.0939621
0.0965825
0.0988485
0.100738
0.102253
0.10342
0.104285
0.104901
0.105323
0.1056
0.105772
0.105873
0.105915
0.105921
0.105916
0.1059
0.105856
0.105791
0.105715
0.105627
0.105537
0.105446
0.105358
0.10527
0.105184
0.105098
0.105014
0.104932
0.0225411
0.0247991
0.0274346
0.0304269
0.0337395
0.0373257
0.0411341
0.0451128
0.0492129
0.0533896
0.0576028
0.0618165
0.0659972
0.0701139
0.0741381
0.0780425
0.0817987
0.085376
0.0887462
0.091884
0.0947621
0.0973468
0.0996037
0.101509
0.103058
0.10427
0.105181
0.105839
0.106296
0.1066
0.106787
0.106896
0.106947
0.106947
0.106933
0.10691
0.106868
0.106799
0.106717
0.106623
0.106524
0.106422
0.106323
0.106223
0.106125
0.106028
0.105931
0.105836
0.10574
0.105646
0.105553
0.0328696
0.0362638
0.0398815
0.0436766
0.0476044
0.0516235
0.0556962
0.0597889
0.0638709
0.0679135
0.0718896
0.0757736
0.0795417
0.0831683
0.0866257
0.0898877
0.0929313
0.0957322
0.098261
0.100486
0.102384
0.103945
0.105182
0.106126
0.106816
0.107301
0.107627
0.107828
0.107946
0.108003
0.108
0.107978
0.107945
0.107899
0.107827
0.107741
0.107644
0.107536
0.107424
0.107312
0.107202
0.107093
0.106984
0.106877
0.10677
0.106663
0.106557
0.106452
0.106346
0.106241
0.106137
0.0465156
0.0503777
0.0543044
0.0582643
0.0622295
0.066174
0.070073
0.0739028
0.0776409
0.0812658
0.0847549
0.0880829
0.0912261
0.094163
0.0968723
0.0993281
0.101502
0.10337
0.104923
0.106167
0.107127
0.107838
0.108343
0.108685
0.108899
0.109023
0.109081
0.109081
0.109053
0.109007
0.108952
0.108882
0.108789
0.108685
0.10857
0.108449
0.108327
0.108206
0.108085
0.107966
0.107847
0.107729
0.107612
0.107496
0.107379
0.107263
0.107147
0.107031
0.106915
0.106799
0.106684
0.0649166
0.0687171
0.0724667
0.0761444
0.0797306
0.083206
0.0865502
0.0897405
0.0927552
0.0955747
0.0981798
0.100548
0.102653
0.104473
0.105997
0.10723
0.108191
0.10891
0.109426
0.109779
0.11
0.110128
0.110187
0.110187
0.110153
0.110097
0.110031
0.109956
0.109858
0.109747
0.109629
0.109499
0.109366
0.109234
0.109102
0.108971
0.108842
0.108714
0.108586
0.108459
0.108332
0.108205
0.108079
0.107953
0.107827
0.1077
0.107573
0.107446
0.10732
0.107194
0.0786035
0.0820318
0.0853516
0.0885442
0.0915891
0.0944667
0.0971592
0.0996493
0.101916
0.103938
0.105693
0.107172
0.108376
0.109323
0.110038
0.110555
0.110909
0.111134
0.111262
0.111321
0.111317
0.11128
0.111215
0.111136
0.111051
0.110952
0.110833
0.110706
0.11057
0.110427
0.110285
0.110143
0.110001
0.109861
0.109721
0.109583
0.109445
0.109308
0.109171
0.109035
0.108899
0.108763
0.108627
0.10849
0.108353
0.108216
0.108079
0.107941
0.107804
0.107666
0.0907256
0.0936181
0.0963508
0.0989076
0.101273
0.103428
0.105353
0.107028
0.108446
0.109607
0.110525
0.111223
0.111731
0.11208
0.112302
0.112429
0.11248
0.112473
0.112432
0.112358
0.112266
0.112171
0.112066
0.111939
0.111805
0.111663
0.111512
0.111359
0.111206
0.111054
0.110902
0.110752
0.110603
0.110455
0.110307
0.110161
0.110014
0.109868
0.109722
0.109576
0.10943
0.109284
0.109138
0.108991
0.108844
0.108696
0.108548
0.1084
0.108251
0.108102
0.100809
0.103041
0.105074
0.106891
0.108475
0.109818
0.110922
0.111798
0.112467
0.112956
0.113292
0.113506
0.113625
0.113669
0.113657
0.113609
0.113524
0.113423
0.113316
0.1132
0.113068
0.112925
0.112776
0.112617
0.112454
0.112291
0.112128
0.111966
0.111805
0.111646
0.111487
0.111329
0.111172
0.111016
0.11086
0.110704
0.110548
0.110393
0.110237
0.110082
0.109926
0.10977
0.109613
0.109456
0.109298
0.10914
0.108981
0.108821
0.108662
0.108501
0.108544
0.110025
0.111283
0.112318
0.11314
0.11377
0.114231
0.114546
0.114746
0.114853
0.114886
0.114866
0.114809
0.114716
0.114603
0.114483
0.114356
0.11422
0.114066
0.113907
0.113742
0.11357
0.113396
0.113224
0.113051
0.11288
0.11271
0.112541
0.112372
0.112205
0.112039
0.111873
0.111708
0.111542
0.111377
0.111212
0.111048
0.110883
0.110717
0.110552
0.110386
0.110219
0.110052
0.109885
0.109716
0.109547
0.109377
0.109207
0.109036
0.108864
0.113788
0.114548
0.115129
0.115554
0.115841
0.11602
0.116113
0.11613
0.1161
0.116032
0.115929
0.115804
0.115673
0.115535
0.115389
0.115228
0.115059
0.114887
0.114706
0.114522
0.11434
0.114157
0.113975
0.113794
0.113615
0.113437
0.113259
0.113083
0.112907
0.112732
0.112557
0.112383
0.112209
0.112034
0.11186
0.111686
0.111512
0.111337
0.111162
0.110986
0.11081
0.110633
0.110456
0.110278
0.110099
0.109919
0.109738
0.109556
0.109374
0.109191
0.11692
0.117175
0.11733
0.117402
0.1174
0.117359
0.117279
0.117164
0.117027
0.116885
0.116734
0.116576
0.116409
0.116231
0.116048
0.11586
0.115667
0.115474
0.115282
0.11509
0.114899
0.11471
0.114521
0.114333
0.114147
0.113961
0.113777
0.113592
0.113408
0.113225
0.113042
0.112858
0.112675
0.112492
0.112309
0.112125
0.111941
0.111756
0.111571
0.111386
0.111199
0.111012
0.110824
0.110635
0.110445
0.110254
0.110063
0.10987
0.109677
0.109482
0.118698
0.118641
0.118546
0.118418
0.118271
0.118115
0.117952
0.117784
0.117608
0.11742
0.117228
0.117032
0.11683
0.116627
0.116425
0.116223
0.116022
0.115822
0.115624
0.115427
0.115231
0.115035
0.114841
0.114647
0.114454
0.114261
0.114068
0.113876
0.113684
0.113492
0.1133
0.113108
0.112915
0.112723
0.112529
0.112335
0.112141
0.111946
0.11175
0.111553
0.111355
0.111157
0.110957
0.110756
0.110555
0.110352
0.110148
0.109944
0.109738
0.119692
0.119532
0.119364
0.119189
0.119009
0.118822
0.118627
0.118424
0.11822
0.11801
0.117796
0.117585
0.117374
0.117163
0.116953
0.116746
0.116538
0.116332
0.116127
0.115923
0.11572
0.115518
0.115315
0.115114
0.114913
0.114712
0.114511
0.11431
0.11411
0.113909
0.113708
0.113506
0.113304
0.113102
0.112899
0.112695
0.112491
0.112285
0.112079
0.111872
0.111664
0.111454
0.111244
0.111032
0.11082
0.110606
0.110391
0.110175
0.109959
0.120442
0.12025
0.120053
0.119848
0.119636
0.119422
0.119204
0.118982
0.118761
0.118541
0.11832
0.118101
0.117883
0.117667
0.117451
0.117237
0.117023
0.116811
0.116599
0.116388
0.116177
0.115967
0.115758
0.115548
0.115339
0.11513
0.11492
0.114711
0.114501
0.114292
0.114081
0.11387
0.113659
0.113447
0.113234
0.11302
0.112806
0.11259
0.112374
0.112156
0.111937
0.111717
0.111496
0.111273
0.11105
0.110825
0.110599
0.110372
0.110144
0.120863
0.120639
0.120413
0.120182
0.119951
0.119722
0.119493
0.119263
0.119037
0.118811
0.118586
0.118363
0.11814
0.117918
0.117697
0.117477
0.117258
0.117039
0.116821
0.116603
0.116385
0.116167
0.11595
0.115732
0.115514
0.115296
0.115078
0.11486
0.114641
0.114421
0.114201
0.11398
0.113758
0.113535
0.113311
0.113086
0.112861
0.112634
0.112405
0.112176
0.111945
0.111713
0.11148
0.111245
0.11101
0.110773
0.110535
0.110296
0.121394
0.121154
0.120917
0.120679
0.12044
0.120205
0.11997
0.119736
0.119503
0.119272
0.119041
0.118811
0.118583
0.118354
0.118127
0.1179
0.117673
0.117447
0.117221
0.116995
0.11677
0.116544
0.116318
0.116092
0.115866
0.115639
0.115412
0.115184
0.114956
0.114727
0.114497
0.114266
0.114034
0.113802
0.113568
0.113333
0.113097
0.112859
0.11262
0.11238
0.112139
0.111896
0.111652
0.111407
0.11116
0.110912
0.110664
0.110413
0.12163
0.121385
0.121142
0.120899
0.120658
0.120418
0.120178
0.11994
0.119702
0.119466
0.11923
0.118994
0.118759
0.118525
0.118291
0.118057
0.117823
0.117589
0.117356
0.117122
0.116888
0.116654
0.116419
0.116184
0.115948
0.115712
0.115475
0.115238
0.114999
0.11476
0.114519
0.114277
0.114035
0.113791
0.113545
0.113299
0.113051
0.112801
0.112551
0.112299
0.112045
0.11179
0.111534
0.111277
0.111018
0.110759
0.110498
0.122075
0.121825
0.121576
0.121328
0.121082
0.120836
0.120591
0.120346
0.120103
0.119859
0.119617
0.119375
0.119133
0.118891
0.11865
0.118408
0.118167
0.117925
0.117683
0.117441
0.117199
0.116956