/*--------------------------------*- C++ -*----------------------------------*\
| =========                 |                                                 |
| \\      /  F ield         | OpenFOAM: The Open Source CFD Toolbox           |
|  \\    /   O peration     | Version:  v1706                                 |
|   \\  /    A nd           | Web:      www.OpenFOAM.com                      |
|    \\/     M anipulation  |                                                 |
\*---------------------------------------------------------------------------*/
FoamFile
{
    version     2.0;
    format      ascii;
    class       volScalarField;
    location    "1.2e-05";
    object      Mach;
}
// * * * * * * * * * * * * * * * * * * * * * * * * * * * * * * * * * * * * * //

dimensions      [0 0 0 0 0 0 0];


internalField   nonuniform List<scalar> 
30038
(
11.2859
11.2859
11.2859
11.2859
11.2859
11.2859
11.2859
11.2859
11.2859
11.2859
11.2859
11.2859
11.2859
11.2859
11.2859
11.2859
11.2859
11.2859
11.2859
11.2859
11.2859
11.2859
11.2859
11.2859
11.2859
11.2859
11.2859
11.2859
11.2859
11.2859
11.2859
11.2859
11.2859
11.2859
11.2859
11.2859
11.2859
11.2859
11.2859
11.2859
11.2859
11.2859
11.2859
11.2859
11.2859
11.2859
11.2859
11.2859
11.2859
11.2859
11.2859
11.2859
11.2859
11.2859
11.2859
11.2859
11.2859
11.2859
11.2859
11.2859
11.2859
11.2859
11.2859
11.2859
11.2859
11.2859
11.2859
11.2859
11.2859
11.2859
11.2859
11.2859
11.2859
11.2859
11.2859
11.2859
11.2859
11.2859
11.2859
11.2859
11.2859
11.2859
11.2859
11.2859
11.2859
11.2859
11.2859
11.2859
11.2859
11.2859
11.2859
11.2859
11.2859
11.2859
11.2859
11.2859
11.2859
11.2859
11.2859
11.2859
11.2859
11.2859
11.2859
11.2859
11.2859
11.2859
11.2859
11.2859
11.2859
11.2859
11.2859
11.2859
11.2859
11.2859
11.2859
11.2859
11.2859
11.2859
11.2859
11.2859
11.2859
11.2859
11.2859
11.2859
11.2859
11.2859
11.2859
11.2859
11.2859
11.2859
11.2859
11.2859
11.2859
11.2859
11.2859
11.2859
11.2859
11.2859
11.2859
11.2859
11.2859
11.2859
11.2859
11.2859
11.2859
11.2859
11.2859
11.2859
11.2859
11.2859
11.2859
11.2859
11.2859
11.2859
11.2859
11.2859
11.2859
11.2859
11.2859
11.2859
11.2859
11.2859
11.2859
11.2859
11.2859
11.2859
11.2859
11.2859
11.2859
11.2859
11.2859
11.2859
11.2859
11.2859
11.2859
11.2859
11.2859
11.2859
11.2859
11.2859
11.2859
11.2859
11.2859
11.2859
11.2859
11.2859
11.2859
11.2859
11.2859
11.2859
11.2859
11.2859
11.2859
11.2859
11.2859
11.2859
11.2859
11.2859
11.2859
11.2859
11.2859
11.2859
11.2859
11.2859
11.2859
11.2859
11.2859
11.2859
11.2859
11.2859
11.2859
11.2859
11.2859
11.2859
11.2859
11.2859
11.2859
11.2859
11.2859
11.2859
11.2859
11.2859
11.2859
11.2859
11.2859
11.2859
11.2859
11.2859
11.2859
11.2859
11.2859
11.2859
11.2859
11.2859
11.2859
11.2859
11.2859
11.2859
11.2859
11.2859
11.2859
11.2859
11.2859
11.2859
11.2859
11.2859
11.2859
11.2859
11.2859
11.2859
11.2859
11.2859
11.2859
11.2859
11.2859
11.2859
11.2859
11.2859
11.2859
11.2859
11.2859
11.2859
11.2859
11.2859
11.2859
11.2859
11.2859
11.2859
11.2859
11.2859
11.2859
11.2859
11.2859
11.2859
11.2859
11.2859
11.2859
11.2859
11.2859
11.2859
11.2859
11.2859
11.2859
11.2859
11.2859
11.2859
11.2859
11.2859
11.2859
11.2859
11.2859
11.2859
11.2859
11.2859
11.2859
11.2859
11.2859
11.2859
11.2859
11.2859
11.2859
11.2859
11.2859
11.2859
11.2859
11.2859
11.2859
11.2859
11.2859
11.2859
11.2859
11.2859
11.2859
11.2859
11.2859
11.2859
11.2859
11.2859
11.2859
11.2859
11.2859
11.2859
11.2859
11.2859
11.2859
11.2859
11.2859
11.2859
11.2859
11.2859
11.2859
11.2859
11.2859
11.2859
11.2859
11.2859
11.2859
11.2859
11.2859
11.2859
11.2859
11.2859
11.2859
11.2859
11.2859
11.2859
11.2859
11.2859
11.2859
11.2859
11.2859
11.2859
11.2859
11.2859
11.2859
11.2859
11.2859
11.2859
11.2859
11.2859
11.2859
11.2859
11.2859
11.2859
11.2859
11.2859
11.2859
11.2859
11.2859
11.2859
11.2859
11.2859
11.2859
11.2859
11.2859
11.2859
11.2859
11.2859
11.2859
11.2859
11.2859
11.2859
11.2859
11.2859
11.2859
11.2859
11.2859
11.2859
11.2859
11.2859
11.2859
11.2859
11.2859
11.2859
11.2859
11.2859
11.2859
11.2859
11.2859
11.2859
11.2859
11.2859
11.2859
11.2859
11.2859
11.2859
11.2859
11.2859
11.2859
11.2859
11.2859
11.2859
11.2859
11.2859
11.2859
11.2859
11.2859
11.2859
11.2859
11.2859
11.2859
11.2859
11.2859
11.2859
11.2859
11.2859
11.2859
11.2859
11.2859
11.2859
11.2859
11.2859
11.2859
11.2859
11.2859
11.2859
11.2859
11.2859
11.2859
11.2859
11.2859
11.2859
11.2859
11.2859
11.2859
11.2859
11.2859
11.2859
11.2859
11.2859
11.2859
11.2859
11.2859
11.2859
11.2859
11.2859
11.2859
11.2859
11.2859
11.2859
11.2859
11.2859
11.2859
11.2859
11.2859
11.2859
11.2859
11.2859
11.2859
11.2859
11.2859
11.2859
11.2859
11.2859
11.2859
11.2859
11.2859
11.2859
11.2859
11.2859
11.2859
11.2859
11.2859
11.2859
11.2859
11.2859
11.2859
11.2859
11.2859
11.2859
11.2859
11.2859
11.2859
11.2859
11.2859
11.2859
11.2859
11.2859
11.2859
11.2859
11.2859
11.2859
11.2859
11.2859
11.2859
11.2859
11.2859
11.2859
11.2859
11.2859
11.2859
11.2859
11.2859
11.2859
11.2859
11.2859
11.2859
11.2859
11.2859
11.2859
11.2859
11.2859
11.2859
11.2859
11.2859
11.2859
11.2859
11.2859
11.2859
11.2859
11.2859
11.2859
11.2859
11.2859
11.2859
11.2859
11.2859
11.2859
11.2859
11.2859
11.2859
11.2859
11.2859
11.2859
11.2859
11.2859
11.2859
11.2859
11.2859
11.2859
11.2859
11.2859
11.2859
11.2859
11.2859
11.2859
11.2859
11.2859
11.2859
11.2859
11.2859
11.2859
11.2859
11.2859
11.2859
11.2859
11.2859
11.2859
11.2859
11.2859
11.2859
11.2859
11.2859
11.2859
11.2859
11.2859
11.2859
11.2859
11.2859
11.2859
11.2859
11.2859
11.2859
11.2859
11.2859
11.2859
11.2859
11.2859
11.2859
11.2859
11.2859
11.2859
11.2859
11.2859
11.2859
11.2859
11.2859
11.2859
11.2859
11.2859
11.2859
11.2859
11.2859
11.2859
11.2859
11.2859
11.2859
11.2859
11.2859
11.2859
11.2859
11.2859
11.2859
11.2859
11.2859
11.2859
11.2859
11.2859
11.2859
11.2859
11.2859
11.2859
11.2859
11.2859
11.2859
11.2859
11.2859
11.2859
11.2859
11.2859
11.2859
11.2859
11.2859
11.2859
11.2859
11.2859
11.2859
11.2859
11.2859
11.2859
11.2859
11.2859
11.2859
11.2859
11.2859
11.2859
11.2859
11.2859
11.2859
11.2859
11.2859
11.2859
11.2859
11.2859
11.2859
11.2859
11.2859
11.2859
11.2859
11.2859
11.2859
11.2859
11.2859
11.2859
11.2859
11.2859
11.2859
11.2859
11.2859
11.2859
11.2859
11.2859
11.2859
11.2859
11.2859
11.2859
11.2859
11.2859
11.2859
11.2859
11.2859
11.2859
11.2859
11.2859
11.2859
11.2859
11.2859
11.2859
11.2859
11.2859
11.2859
11.2859
11.2859
11.2859
11.2859
11.2859
11.2859
11.2859
11.2859
11.2859
11.2859
11.2859
11.2859
11.2859
11.2859
11.2859
11.2859
11.2859
11.2859
11.2859
11.2859
11.2859
11.2859
11.2859
11.2859
11.2859
11.2859
11.2859
11.2859
11.2859
11.2859
11.2859
11.2859
11.2859
11.2859
11.2859
11.2859
11.2859
11.2859
11.2859
11.2859
11.2859
11.2859
11.2859
11.2859
11.2859
11.2859
11.2859
11.2859
11.2859
11.2859
11.2859
11.2859
11.2859
11.2859
11.2859
11.2859
11.2859
11.2859
11.2859
11.2859
11.2859
11.2859
11.2859
11.2859
11.2859
11.2859
11.2859
11.2859
11.2859
11.2859
11.2859
11.2859
11.2859
11.2859
11.2859
11.2859
11.2859
11.2859
11.2859
11.2859
11.2859
11.2859
11.2859
11.2859
11.2859
11.2859
11.2859
11.2859
11.2859
11.2859
11.2859
11.2859
11.2859
11.2859
11.2859
11.2859
11.2859
11.2859
11.2859
11.2859
11.2859
11.2859
11.2859
11.2859
11.2859
11.2859
11.2859
11.2859
11.2859
11.2859
11.2859
11.2859
11.2859
11.2859
11.2859
11.2859
11.2859
11.2859
11.2859
11.2859
11.2859
11.2859
11.2859
11.2859
11.2859
11.2859
11.2859
11.2859
11.2859
11.2859
11.2859
11.2859
11.2859
11.2859
11.2859
11.2859
11.2859
11.2859
11.2859
11.2859
11.2859
11.2859
11.2859
11.2859
11.2859
11.2859
11.2859
11.2859
11.2859
11.2859
11.2859
11.2859
11.2859
11.2859
11.2859
11.2859
11.2859
11.2859
11.2859
11.2859
11.2859
11.2859
11.2859
11.2859
11.2859
11.2859
11.2859
11.2859
11.2859
11.2859
11.2859
11.2859
11.2859
11.2859
11.2859
11.2859
11.2859
11.2859
11.2859
11.2859
11.2859
11.2859
11.2859
11.2859
11.2859
11.2859
11.2859
11.2859
11.2859
11.2859
11.2859
11.2859
11.2859
11.2859
11.2859
11.2859
11.2859
11.2859
11.2859
11.2859
11.2859
11.2859
11.2859
11.2859
11.2859
11.2859
11.2859
11.2859
11.2859
11.2859
11.2859
11.2859
11.2859
11.2859
11.2859
11.2859
11.2859
11.2859
11.2859
11.2859
11.2859
11.2859
11.2859
11.2859
11.2859
11.2859
11.2859
11.2859
11.2859
11.2859
11.2859
11.2859
11.2859
11.2859
11.2859
11.2859
11.2859
11.2859
11.2859
11.2859
11.2859
11.2859
11.2859
11.2859
11.2859
11.2859
11.2859
11.2859
11.2859
11.2859
11.2859
11.2859
11.2859
11.2859
11.2859
11.2859
11.2859
11.2859
11.2859
11.2859
11.2859
11.2859
11.2859
11.2859
11.2859
11.2859
11.2859
11.2859
11.2859
11.2859
11.2859
11.2859
11.2859
11.2859
11.2859
11.2859
11.2859
11.2859
11.2859
11.2859
11.2859
11.2859
11.2859
11.2859
11.2859
11.2859
11.2859
11.2859
11.2859
11.2859
11.2859
11.2859
11.2859
11.2859
11.2859
11.2859
11.2859
11.2859
11.2859
11.2859
11.2859
11.2859
11.2859
11.2859
11.2859
11.2859
11.2859
11.2859
11.2859
11.2859
11.2859
11.2859
11.2859
11.2859
11.2859
11.2859
11.2859
11.2859
11.2859
11.2859
11.2859
11.2859
11.2859
11.2859
11.2859
11.2859
11.2859
11.2859
11.2859
11.2859
11.2859
11.2859
11.2859
11.2859
11.2859
11.2859
11.2859
11.2859
11.2859
11.2859
11.2859
11.2859
11.2859
11.2859
11.2859
11.2859
11.2859
11.2859
11.2859
11.2859
11.2859
11.2859
11.2859
11.2859
11.2859
11.2859
11.2859
11.2859
11.2859
11.2859
11.2859
11.2859
11.2859
11.2859
11.2859
11.2859
11.2859
11.2859
11.2859
11.2859
11.2859
11.2859
11.2859
11.2859
11.2859
11.2859
11.2859
11.2859
11.2859
11.2859
11.2859
11.2859
11.2859
11.2859
11.2859
11.2859
11.2859
11.2859
11.2859
11.2859
11.2859
11.2859
11.2859
11.2859
11.2859
11.2859
11.2859
11.2859
11.2859
11.2859
11.2859
11.2859
11.2859
11.2859
11.2859
11.2859
11.2859
11.2859
11.2859
11.2859
11.2859
11.2859
11.2859
11.2859
11.2859
11.2859
11.2859
11.2859
11.2859
11.2859
11.2859
11.2859
11.2859
11.2859
11.2859
11.2859
11.2859
11.2859
11.2859
11.2859
11.2859
11.2859
11.2859
11.2859
11.2859
11.2859
11.2859
11.2859
11.2859
11.2859
11.2859
11.2859
11.2859
11.2859
11.2859
11.2859
11.2859
11.2859
11.2859
11.2859
11.2859
11.2859
11.2859
11.2859
11.2859
11.2859
11.2859
11.2859
11.2859
11.2859
11.2859
11.2859
11.2859
11.2859
11.2859
11.2859
11.2859
11.2859
11.2859
11.2859
11.2859
11.2859
11.2859
11.2859
11.2859
11.2859
11.2859
11.2859
11.2859
11.2859
11.2859
11.2859
11.2859
11.2859
11.2859
11.2859
11.2859
11.2859
11.2859
11.2859
11.2859
11.2859
11.2859
11.2859
11.2859
11.2859
11.2859
11.2859
11.2859
11.2859
11.2859
11.2859
11.2859
11.2859
11.2859
11.2859
11.2859
11.2859
11.2859
11.2859
11.2859
11.2859
11.2859
11.2859
11.2859
11.2859
11.2859
11.2859
11.2859
11.2859
11.2859
11.2859
11.2859
11.2859
11.2859
11.2859
11.2859
11.2859
11.2859
11.2859
11.2859
11.2859
11.2859
11.2859
11.2859
11.2859
11.2859
11.2859
11.2859
11.2859
11.2859
11.2859
11.2859
11.2859
11.2859
11.2859
11.2859
11.2859
11.2859
11.2858
11.2858
11.2859
11.2859
11.2859
11.2859
11.2859
11.2859
11.2859
11.2859
11.2859
11.2859
11.2859
11.2859
11.2859
11.2859
11.2859
11.2859
11.2859
11.2859
11.2859
11.2859
11.2859
11.2859
11.2859
11.2859
11.2859
11.2859
11.2859
11.2859
11.2859
11.2859
11.2859
11.2859
11.2859
11.2859
11.2859
11.2859
11.2859
11.2859
11.2859
11.2859
11.2859
11.2859
11.2859
11.2859
11.2859
11.2858
11.2858
11.2858
11.2858
11.2857
11.2859
11.2859
11.2859
11.2859
11.2859
11.2859
11.2859
11.2859
11.2859
11.2859
11.2859
11.2859
11.2859
11.2859
11.2859
11.2859
11.2859
11.2859
11.2859
11.2859
11.2859
11.2859
11.2859
11.2859
11.2859
11.2859
11.2859
11.2859
11.2859
11.2859
11.2859
11.2859
11.2859
11.2859
11.2859
11.2859
11.2859
11.2859
11.2859
11.2859
11.2859
11.2859
11.2858
11.2858
11.2858
11.2858
11.2857
11.2856
11.2854
11.285
11.2859
11.2859
11.2859
11.2859
11.2859
11.2859
11.2859
11.2859
11.2859
11.2859
11.2859
11.2859
11.2859
11.2859
11.2859
11.2859
11.2859
11.2859
11.2859
11.2859
11.2859
11.2859
11.2859
11.2859
11.2859
11.2859
11.2859
11.2859
11.2859
11.2859
11.2859
11.2859
11.2859
11.2859
11.2859
11.2859
11.2859
11.2859
11.2859
11.2858
11.2858
11.2858
11.2858
11.2857
11.2856
11.2854
11.2851
11.2844
11.2832
11.2809
11.2859
11.2859
11.2859
11.2859
11.2859
11.2859
11.2859
11.2859
11.2859
11.2859
11.2859
11.2859
11.2859
11.2859
11.2859
11.2859
11.2859
11.2859
11.2859
11.2859
11.2859
11.2859
11.2859
11.2859
11.2859
11.2859
11.2859
11.2859
11.2859
11.2859
11.2859
11.2859
11.2859
11.2859
11.2859
11.2859
11.2858
11.2858
11.2858
11.2858
11.2857
11.2856
11.2854
11.2851
11.2845
11.2834
11.2815
11.278
11.2715
11.2589
11.2859
11.2859
11.2859
11.2859
11.2859
11.2859
11.2859
11.2859
11.2859
11.2859
11.2859
11.2859
11.2859
11.2859
11.2859
11.2859
11.2859
11.2859
11.2859
11.2859
11.2859
11.2859
11.2859
11.2859
11.2859
11.2859
11.2859
11.2859
11.2859
11.2859
11.2859
11.2859
11.2858
11.2858
11.2858
11.2858
11.2858
11.2857
11.2856
11.2854
11.2851
11.2845
11.2835
11.2817
11.2784
11.2726
11.2622
11.2435
11.2096
11.1459
11.2859
11.2859
11.2859
11.2859
11.2859
11.2859
11.2859
11.2859
11.2859
11.2859
11.2859
11.2859
11.2859
11.2859
11.2859
11.2859
11.2859
11.2859
11.2859
11.2859
11.2859
11.2859
11.2859
11.2859
11.2859
11.2859
11.2859
11.2859
11.2859
11.2858
11.2858
11.2858
11.2858
11.2858
11.2857
11.2856
11.2854
11.2851
11.2845
11.2835
11.2817
11.2786
11.2731
11.2635
11.2464
11.2162
11.163
11.0702
10.9101
10.6369
11.2859
11.2859
11.2859
11.2859
11.2859
11.2859
11.2859
11.2859
11.2859
11.2859
11.2859
11.2859
11.2859
11.2859
11.2859
11.2859
11.2859
11.2859
11.2859
11.2859
11.2859
11.2859
11.2859
11.2859
11.2859
11.2859
11.2858
11.2858
11.2858
11.2858
11.2858
11.2857
11.2856
11.2854
11.285
11.2844
11.2834
11.2817
11.2786
11.2733
11.264
11.2479
11.2197
11.1707
11.0864
10.9436
10.7091
10.3422
9.80625
9.09113
11.2859
11.2859
11.2859
11.2859
11.2859
11.2859
11.2859
11.2859
11.2859
11.2859
11.2859
11.2859
11.2859
11.2859
11.2859
11.2859
11.2859
11.2859
11.2859
11.2859
11.2859
11.2859
11.2858
11.2858
11.2858
11.2858
11.2858
11.2857
11.2857
11.2855
11.2853
11.285
11.2843
11.2833
11.2815
11.2784
11.2731
11.264
11.2483
11.2213
11.1749
11.0959
10.9635
10.7476
10.4111
9.92088
9.26762
8.48374
7.63485
6.79935
11.2859
11.2859
11.2859
11.2859
11.2859
11.2859
11.2859
11.2859
11.2859
11.2859
11.2859
11.2859
11.2859
11.2859
11.2859
11.2859
11.2859
11.2859
11.2859
11.2858
11.2858
11.2858
11.2858
11.2858
11.2857
11.2856
11.2855
11.2853
11.2849
11.2842
11.2831
11.2812
11.278
11.2726
11.2634
11.2477
11.2211
11.176
11.1
10.9741
10.7706
10.4551
9.99543
9.37933
8.63168
7.81308
6.99555
6.2359
5.56055
4.981
11.2859
11.2859
11.2859
11.2859
11.2859
11.2859
11.2859
11.2859
11.2859
11.2859
11.2859
11.2859
11.2859
11.2859
11.2859
11.2858
11.2858
11.2858
11.2858
11.2858
11.2858
11.2857
11.2856
11.2854
11.2852
11.2847
11.284
11.2828
11.2807
11.2773
11.2716
11.2621
11.2461
11.2191
11.1741
11.0993
10.9766
10.7804
10.4786
10.0407
9.45297
8.73502
7.94048
7.13729
6.38204
5.70695
5.12151
4.6219
4.19575
3.83588
11.2859
11.2859
11.2859
11.2859
11.2859
11.2859
11.2859
11.2859
11.2859
11.2859
11.2859
11.2859
11.2858
11.2858
11.2858
11.2858
11.2858
11.2857
11.2857
11.2855
11.2854
11.285
11.2845
11.2837
11.2823
11.2801
11.2764
11.2702
11.2601
11.2432
11.2153
11.1692
11.0935
10.9711
10.7777
10.4833
10.0592
9.49214
8.79848
8.02643
7.23929
6.4921
5.81827
5.22985
4.72476
4.29434
3.92787
3.61584
3.34766
3.11987
11.2859
11.2859
11.2859
11.2859
11.2859
11.2859
11.2859
11.2859
11.2858
11.2858
11.2858
11.2858
11.2858
11.2858
11.2857
11.2856
11.2855
11.2852
11.2849
11.2843
11.2833
11.2817
11.2792
11.275
11.2682
11.2571
11.2389
11.2092
11.1608
11.0824
10.9573
10.7624
10.4695
10.0521
9.49841
8.82355
8.0719
7.30227
6.56706
5.89934
5.3124
4.80567
4.3717
4.00082
3.68356
3.41185
3.17878
2.97967
2.80986
2.6689
11.2859
11.2859
11.2859
11.2859
11.2858
11.2858
11.2858
11.2858
11.2858
11.2858
11.2857
11.2857
11.2855
11.2854
11.2851
11.2846
11.2839
11.2827
11.2809
11.2779
11.2731
11.2654
11.253
11.2329
11.2004
11.1483
11.0651
10.9344
10.7337
10.4366
10.0194
9.47227
8.81101
8.07739
7.32611
6.60614
5.94908
5.36835
4.86436
4.43063
4.05824
3.73833
3.46308
3.22602
3.02203
2.84756
2.70043
2.57981
2.48383
2.4104
11.2859
11.2858
11.2858
11.2858
11.2858
11.2858
11.2858
11.2857
11.2857
11.2856
11.2854
11.2852
11.2848
11.2843
11.2834
11.2819
11.2797
11.2762
11.2705
11.2615
11.2472
11.2244
11.1882
11.1307
11.0404
10.9006
10.6898
10.3831
9.95972
9.41329
8.76102
8.04329
7.31097
6.60906
5.96673
5.39666
4.89964
4.46993
4.09933
3.77953
3.50312
3.26395
3.05697
2.87851
2.72615
2.59868
2.49535
2.4148
2.35467
2.31117
2.28005
11.2858
11.2858
11.2858
11.2857
11.2857
11.2856
11.2855
11.2853
11.285
11.2845
11.2838
11.2826
11.2808
11.2781
11.2737
11.2669
11.2562
11.2393
11.2129
11.1713
11.1064
11.0062
10.8537
10.6279
10.3062
9.871
9.32011
8.67324
7.96993
7.25737
6.57615
5.95225
5.39693
4.91085
4.48875
4.12311
3.80617
3.53101
3.29178
3.08371
2.90308
2.74734
2.61503
2.50549
2.41794
2.35079
2.30127
2.26595
2.24132
2.2243
2.21205
11.2858
11.2857
11.2856
11.2855
11.2853
11.285
11.2846
11.284
11.283
11.2815
11.2793
11.2757
11.2703
11.2618
11.2488
11.2284
11.1969
11.1482
11.0734
10.9597
10.7902
10.5444
10.2021
9.75004
9.19075
8.54699
7.85768
7.16617
6.50825
5.90621
5.36936
4.89784
4.48672
4.12902
3.81759
3.54597
3.30869
3.10132
2.92025
2.76289
2.6276
2.51362
2.42047
2.3472
2.29187
2.25159
2.22317
2.20341
2.18978
2.18037
2.17382
2.16921
11.2853
11.2851
11.2847
11.2841
11.2833
11.282
11.28
11.277
11.2724
11.2654
11.2547
11.2383
11.2132
11.1749
11.1165
11.0284
10.8971
10.7054
10.4341
10.066
9.59294
9.02285
8.38158
7.70714
7.03866
6.40679
5.8298
5.31476
4.86108
4.46396
4.11695
3.81345
3.54753
3.31414
3.10916
2.92924
2.77183
2.63522
2.5185
2.42131
2.34311
2.28262
2.2376
2.20525
2.18262
2.16697
2.15632
2.14883
2.14387
2.14078
2.13881
2.13772
11.2833
11.2821
11.2803
11.2776
11.2736
11.2675
11.2583
11.2444
11.2234
11.1918
11.1441
11.0728
10.9672
10.813
10.5933
10.2907
9.89215
9.39545
8.81412
8.17667
7.51942
6.8767
6.27379
5.72483
5.23456
4.80156
4.42111
4.08719
3.79382
3.53556
3.30783
3.10685
2.92955
2.77351
2.63704
2.51914
2.4194
2.33755
2.27281
2.22359
2.18749
2.16187
2.14406
2.13187
2.12365
2.11794
2.11446
2.11208
2.11139
2.11077
2.1108
2.11121
11.2741
11.2685
11.2602
11.2478
11.2294
11.202
11.1612
11.1008
11.0121
10.8834
10.7
10.4459
10.1066
9.6743
9.15347
8.56297
7.9328
7.29646
6.68292
6.11196
5.59372
5.13075
4.7208
4.35922
4.04047
3.7591
3.51024
3.28975
3.09422
2.92087
2.76749
2.63246
2.51472
2.41384
2.32966
2.26173
2.20896
2.16951
2.14102
2.12104
2.10728
2.09794
2.09166
2.08761
2.08534
2.08393
2.08375
2.08378
2.08438
2.08541
2.08656
2.08759
11.2322
11.2072
11.1706
11.1171
11.0393
10.9273
10.7687
10.549
10.2539
9.87347
9.40645
8.86402
8.26921
7.65184
7.0413
6.46073
5.92461
5.43941
5.00574
4.62072
4.27977
3.97784
3.71003
3.47203
3.26015
3.07134
2.90314
2.75356
2.62109
2.50472
2.40395
2.31865
2.24863
2.19318
2.1509
2.11981
2.09769
2.08236
2.07198
2.06509
2.06052
2.05777
2.05635
2.0561
2.05631
2.05689
2.05807
2.05952
2.06084
2.06248
2.06423
2.06577
11.0529
10.9513
10.8086
10.6119
10.3482
10.0067
9.58336
9.08418
8.52624
7.93476
7.33734
6.75814
6.21436
5.71562
5.26527
4.86236
4.50357
4.18452
3.90065
3.64763
3.42165
3.21949
3.03849
2.87647
2.73169
2.60278
2.4888
2.38923
2.30396
2.23291
2.17565
2.13119
2.09792
2.07391
2.05708
2.04559
2.03791
2.03299
2.03002
2.02852
2.02788
2.02849
2.02908
2.03021
2.03186
2.03361
2.03528
2.03731
2.03928
2.04124
2.04321
2.04499
10.3991
10.0848
9.69416
9.23034
8.7061
8.14245
7.56417
6.99472
6.45237
5.94874
5.4893
5.07494
4.70364
4.37185
4.0755
3.81051
3.57313
3.36005
3.16849
2.99617
2.84119
2.70205
2.57755
2.46683
2.36941
2.28515
2.21405
2.15589
2.10998
2.07505
2.04941
2.03121
2.01871
2.01042
2.00507
2.00176
1.99995
1.99946
1.99986
2.0008
2.00195
2.0038
2.00575
2.00767
2.00982
2.01213
2.01437
2.01663
2.01885
2.02102
2.02317
2.02516
8.27538
7.71876
7.16464
6.63102
6.1303
5.66928
5.25023
4.87228
4.53276
4.22818
3.95482
3.70914
3.4879
3.2883
3.10799
2.94501
2.79776
2.66495
2.54556
2.43884
2.34435
2.26196
2.1917
2.13349
2.08686
2.05081
2.02396
2.00469
1.99129
1.98232
1.97651
1.97303
1.97123
1.97065
1.97085
1.97207
1.97351
1.97515
1.97737
1.97966
1.98182
1.9844
1.98695
1.98948
1.99201
1.99449
1.99694
1.99935
2.00171
2.00405
2.00624
6.25433
5.79864
5.38151
5.00296
4.66107
4.35291
4.0752
3.82469
3.59834
3.39344
3.20763
3.03896
2.88578
2.74676
2.62082
2.50712
2.40501
2.3141
2.2343
2.16566
2.10816
2.06151
2.02496
1.99734
1.97725
1.96312
1.95362
1.94756
1.94386
1.94191
1.94118
1.94155
1.94269
1.94439
1.94615
1.94859
1.95115
1.9536
1.95623
1.95908
1.96183
1.96463
1.96741
1.97014
1.97284
1.97551
1.97814
1.98074
1.98329
1.98582
1.98821
4.7518
4.44488
4.16707
3.91546
3.68726
3.47995
3.29127
3.1193
2.96244
2.81933
2.68888
2.57021
2.46263
2.36561
2.27883
2.20222
2.13583
2.07972
2.03371
1.99724
1.96932
1.94876
1.93418
1.92428
1.91792
1.91404
1.91208
1.91154
1.91184
1.91294
1.91482
1.91703
1.91923
1.92207
1.92488
1.92755
1.93066
1.93375
1.93679
1.93985
1.94285
1.94583
1.94877
1.95168
1.95455
1.9574
1.96021
1.96299
1.96572
1.96844
1.97101
3.54457
3.35571
3.18291
3.02461
2.87953
2.74658
2.62488
2.51374
2.41259
2.32102
2.23879
2.16584
2.10226
2.04814
2.00335
1.96749
1.93974
1.91908
1.9043
1.89416
1.88763
1.88376
1.88177
1.88124
1.88156
1.88283
1.88476
1.8872
1.88957
1.89263
1.89576
1.89871
1.90185
1.90521
1.90847
1.91178
1.91508
1.91833
1.92155
1.92473
1.92787
1.93098
1.93406
1.93711
1.94012
1.94311
1.94606
1.94897
1.95186
1.95461
2.9248
2.79131
2.66847
2.55557
2.45208
2.35756
2.2717
2.19433
2.12542
2.06509
2.01344
1.97039
1.93562
1.9085
1.8881
1.87339
1.86323
1.85667
1.85282
1.85086
1.85044
1.85102
1.85235
1.85433
1.85689
1.85971
1.86263
1.86608
1.86938
1.87258
1.8762
1.87978
1.88331
1.88687
1.89038
1.89385
1.8973
1.9007
1.90408
1.90742
1.91072
1.914
1.91725
1.92046
1.92365
1.9268
1.92992
1.93299
1.93604
1.93896
2.48176
2.38594
2.29814
2.21815
2.14586
2.08129
2.02454
1.97575
1.93486
1.90164
1.87554
1.85575
1.84139
1.83145
1.82499
1.82124
1.81943
1.81915
1.81991
1.82133
1.8235
1.82618
1.82938
1.83237
1.83602
1.83964
1.84311
1.84681
1.85066
1.8544
1.8582
1.86199
1.86572
1.86943
1.87309
1.87672
1.88031
1.88387
1.8874
1.8909
1.89436
1.8978
1.90121
1.90458
1.90793
1.91123
1.91451
1.91774
1.92093
1.92401
2.16092
2.09385
2.0338
1.98091
1.93529
1.89693
1.8656
1.84086
1.82201
1.80826
1.79874
1.79255
1.78903
1.78749
1.78734
1.78832
1.78995
1.79234
1.79511
1.79844
1.80182
1.80548
1.80948
1.81324
1.817
1.8211
1.82513
1.82916
1.8332
1.83718
1.84113
1.84504
1.84892
1.85276
1.85657
1.86035
1.86409
1.8678
1.87148
1.87513
1.87875
1.88234
1.8859
1.88942
1.89292
1.89637
1.8998
1.90317
1.9065
1.90972
1.93454
1.89233
1.85676
1.82763
1.80456
1.78692
1.77403
1.76511
1.75936
1.75616
1.75492
1.75502
1.75625
1.75823
1.76072
1.7637
1.76716
1.77109
1.77464
1.77887
1.78296
1.78692
1.79119
1.7955
1.79972
1.80399
1.80823
1.81243
1.81659
1.82072
1.8248
1.82885
1.83286
1.83685
1.8408
1.84472
1.8486
1.85246
1.85629
1.86008
1.86385
1.86758
1.87128
1.87495
1.87858
1.88218
1.88573
1.88924
1.89271
1.89605
1.78791
1.76675
1.75056
1.73873
1.73061
1.72544
1.72267
1.7218
1.72221
1.72371
1.72599
1.72868
1.73192
1.73553
1.73967
1.74356
1.7479
1.75239
1.75657
1.76091
1.76546
1.76992
1.77442
1.77891
1.78335
1.78775
1.79211
1.79644
1.80073
1.80498
1.8092
1.81338
1.81753
1.82165
1.82573
1.82979
1.83382
1.83781
1.84178
1.84571
1.84961
1.85348
1.85731
1.86111
1.86488
1.8686
1.87228
1.87591
1.8795
1.88296
1.70245
1.69526
1.69082
1.68859
1.68816
1.68896
1.69075
1.69335
1.69629
1.69978
1.70358
1.70786
1.71222
1.71657
1.72134
1.72583
1.73027
1.73508
1.73983
1.74451
1.74923
1.75389
1.75853
1.76314
1.7677
1.77222
1.7767
1.78115
1.78556
1.78994
1.79429
1.7986
1.80288
1.80712
1.81134
1.81553
1.81969
1.82382
1.82791
1.83197
1.836
1.84
1.84396
1.84788
1.85177
1.85561
1.85941
1.86315
1.86684
1.87041
1.65401
1.65525
1.6574
1.66032
1.66361
1.66729
1.67133
1.67584
1.68054
1.685
1.68994
1.6948
1.69946
1.7044
1.70937
1.71424
1.71919
1.72412
1.72898
1.73381
1.73859
1.74334
1.74805
1.75273
1.75736
1.76196
1.76653
1.77106
1.77557
1.78003
1.78447
1.78887
1.79325
1.79759
1.8019
1.80618
1.81043
1.81465
1.81884
1.82299
1.8271
1.83118
1.83522
1.83921
1.84316
1.84707
1.85091
1.8547
1.85837
1.62691
1.63057
1.63448
1.63878
1.64347
1.64836
1.65322
1.65832
1.66347
1.66834
1.67337
1.6786
1.68372
1.68887
1.694
1.69908
1.70413
1.70915
1.71413
1.71906
1.72395
1.72881
1.73363
1.73841
1.74316
1.74787
1.75256
1.75721
1.76182
1.76641
1.77096
1.77549
1.77998
1.78444
1.78887
1.79327
1.79763
1.80197
1.80626
1.81052
1.81475
1.81894
1.82308
1.82718
1.83123
1.83523
1.83916
1.84304
1.84679
1.60592
1.61084
1.61596
1.62113
1.62636
1.63173
1.63693
1.64208
1.64755
1.65291
1.65823
1.66359
1.66889
1.67416
1.67939
1.68458
1.68972
1.69484
1.69991
1.70494
1.70994
1.7149
1.71982
1.72472
1.72957
1.7344
1.73919
1.74395
1.74868
1.75338
1.75805
1.76268
1.76728
1.77185
1.77639
1.7809
1.78538
1.78981
1.79422
1.79858
1.80291
1.80719
1.81143
1.81563
1.81977
1.82385
1.82787
1.83183
1.83565
1.5942
1.59977
1.60524
1.61061
1.61622
1.62181
1.62731
1.63288
1.63842
1.64389
1.64933
1.65473
1.66009
1.66541
1.67069
1.67593
1.68114
1.6863
1.69143
1.69653
1.70159
1.70662
1.71161
1.71658
1.72151
1.7264
1.73127
1.7361
1.74091
1.74568
1.75042
1.75513
1.7598
1.76445
1.76905
1.77363
1.77817
1.78267
1.78713
1.79155
1.79592
1.80025
1.80453
1.80875
1.81291
1.81699
1.82102
1.82491
1.57889
1.58465
1.59045
1.59617
1.60193
1.60766
1.61333
1.61898
1.62459
1.63016
1.63568
1.64117
1.64661
1.65202
1.65738
1.66272
1.66802
1.67328
1.6785
1.68369
1.68885
1.69398
1.69907
1.70413
1.70916
1.71416
1.71912
1.72406
1.72896
1.73383
1.73867
1.74348
1.74825
1.75299
1.75769
1.76236
1.76699
1.77158
1.77613
1.78063
1.78509
1.78949
1.79384
1.79813
1.80236
1.80651
1.81059
1.81453
1.57073
1.57666
1.58253
1.58838
1.59419
1.59995
1.60567
1.61136
1.617
1.62261
1.62817
1.6337
1.63919
1.64464
1.65006
1.65545
1.6608
1.66612
1.6714
1.67665
1.68187
1.68706
1.69221
1.69734
1.70243
1.70749
1.71251
1.71751
1.72247
1.7274
1.7323
1.73716
1.74199
1.74678
1.75153
1.75625
1.76092
1.76554
1.77012
1.77465
1.77913
1.78354
1.78789
1.79218
1.79638
1.80051
1.80449
1.55753
1.56353
1.56949
1.5754
1.58128
1.58712
1.59291
1.59867
1.60439
1.61007
1.61572
1.62132
1.6269
1.63243
1.63794
1.64341
1.64885
1.65425
1.65962
1.66496
1.67027
1.67554
1.68079
1.686
1.69118
1.69632
1.70144
1.70652
1.71157
1.71659
1.72157
1.72651
1.73142
1.73629
1.74112
1.74591
1.75066
1.75535
1.76
1.76459
1.76913
1.7736
1.778
1.78233
1.78658
1.79074
1.79475
1.55096
1.55698
1.56296
1.5689
1.57481
1.58068
1.5865
1.5923
1.59806
1.60378
1.60946
1.61511
1.62073
1.62632
1.63187
1.63739
1.64287
1.64833
1.65375
1.65914
1.6645
1.66982
1.67512
1.68038
1.68561
1.69081
1.69597
1.7011
1.70619
1.71125
1.71627
1.72125
1.7262
1.7311
1.73595
1.74076
1.74552
1.75023
1.75488
1.75946
1.76398
1.76843
1.7728
1.77708
1.78127
1.78529
1.53889
1.54498
1.55102
1.55703
1.563
1.56894
1.57484
1.5807
1.58653
1.59233
1.59809
1.60382
1.60951
1.61517
1.6208
1.62639
1.63196
1.63749
1.64299
1.64846
1.65389
1.6593
1.66467
1.67001
1.67531
1.68058
1.68582
1.69102
1.69619
1.70132
1.70641
1.71146
1.71647
1.72143
1.72634
1.73121
1.73603
1.74078
1.74548
1.75011
1.75467
1.75915
1.76354
1.76784
1.77204
1.77607
1.52732
1.53346
1.53957
1.54564
1.55168
1.55768
1.56364
1.56958
1.57548
1.58134
1.58717
1.59297
1.59874
1.60447
1.61017
1.61584
1.62148
1.62708
1.63265
1.63819
1.6437
1.64918
1.65462
1.66003
1.6654
1.67074
1.67605
1.68132
1.68655
1.69174
1.69689
1.702
1.70707
1.71209
1.71706
1.72197
1.72683
1.73164
1.73637
1.74103
1.74562
1.75012
1.75453
1.75883
1.76303
1.76707
1.5162
1.5224
1.52857
1.5347
1.5408
1.54687
1.5529
1.5589
1.56486
1.57079
1.57669
1.58256
1.58839
1.59419
1.59996
1.6057
1.6114
1.61707
1.62271
1.62832
1.6339
1.63944
1.64495
1.65042
1.65586
1.66126
1.66663
1.67196
1.67725
1.6825
1.68771
1.69287
1.69798
1.70305
1.70807
1.71303
1.71792
1.72275
1.72752
1.7322
1.7368
1.74132
1.74573
1.75004
1.75424
1.75826
1.50552
1.51178
1.51801
1.5242
1.53036
1.53648
1.54258
1.54863
1.55466
1.56065
1.56662
1.57254
1.57844
1.5843
1.59014
1.59594
1.60171
1.60744
1.61314
1.61881
1.62445
1.63005
1.63562
1.64115
1.64665
1.65211
1.65753
1.66292
1.66826
1.67356
1.67882
1.68403
1.68918
1.69429
1.69934
1.70433
1.70925
1.7141
1.71889
1.72359
1.7282
1.73273
1.73715
1.74145
1.74563
1.74963
1.49526
1.50157
1.50786
1.5141
1.52032
1.5265
1.53265
1.53877
1.54485
1.5509
1.55692
1.56291
1.56887
1.57479
1.58068
1.58654
1.59237
1.59816
1.60392
1.60965
1.61534
1.621
1.62662
1.63221
1.63776
1.64327
1.64874
1.65417
1.65956
1.6649
1.6702
1.67544
1.68063
1.68577
1.69084
1.69585
1.7008
1.70568
1.71047
1.71518
1.7198
1.72432
1.72874
1.73302
1.73719
1.74116
1.48539
1.49176
1.49809
1.50439
1.51066
1.5169
1.5231
1.52927
1.53541
1.54152
1.54759
1.55363
1.55964
1.56562
1.57157
1.57748
1.58336
1.58921
1.59502
1.6008
1.60654
1.61225
1.61792
1.62355
1.62915
1.63471
1.64022
1.64569
1.65111
1.65649
1.66181
1.66709
1.67231
1.67747
1.68257
1.6876
1.69256
1.69745
1.70225
1.70696
1.71158
1.71609
1.72048
1.72475
1.72888
1.73281
1.48231
1.48869
1.49504
1.50136
1.50765
1.5139
1.52012
1.52631
1.53247
1.53859
1.54469
1.55075
1.55678
1.56277
1.56873
1.57466
1.58056
1.58641
1.59224
1.59803
1.60378
1.6095
1.61517
1.6208
1.6264
1.63194
1.63744
1.64289
1.6483
1.65365
1.65895
1.66419
1.66937
1.67449
1.67953
1.6845
1.68939
1.69419
1.6989
1.7035
1.708
1.71237
1.7166
1.72069
1.72457
1.47321
1.47964
1.48604
1.4924
1.49873
1.50503
1.5113
1.51754
1.52374
1.52991
1.53605
1.54216
1.54823
1.55427
1.56028
1.56625
1.57219
1.57809
1.58395
1.58978
1.59557
1.60132
1.60702
1.61269
1.61831
1.62388
1.62941
1.63489
1.64032
1.6457
1.65102
1.65627
1.66146
1.66659
1.67164
1.67661
1.68149
1.68628
1.69098
1.69556
1.70003
1.70436
1.70855
1.7126
1.71642
1.46444
1.47091
1.47735
1.48375
1.49013
1.49647
1.50278
1.50906
1.51531
1.52152
1.5277
1.53385
1.53996
1.54605
1.55209
1.5581
1.56407
1.57001
1.57591
1.58176
1.58758
1.59336
1.5991
1.60479
1.61044
1.61604
1.62159
1.62709
1.63254
1.63793
1.64325
1.64852
1.65372
1.65884
1.66389
1.66885
1.67373
1.6785
1.68317
1.68773
1.69216
1.69646
1.7006
1.70458
1.70834
1.46248
1.46895
1.4754
1.48181
1.4882
1.49455
1.50086
1.50715
1.5134
1.51962
1.5258
1.53195
1.53807
1.54414
1.55018
1.55619