/*--------------------------------*- C++ -*----------------------------------*\
| =========                 |                                                 |
| \\      /  F ield         | OpenFOAM: The Open Source CFD Toolbox           |
|  \\    /   O peration     | Version:  v1706                                 |
|   \\  /    A nd           | Web:      www.OpenFOAM.com                      |
|    \\/     M anipulation  |                                                 |
\*---------------------------------------------------------------------------*/
FoamFile
{
    version     2.0;
    format      ascii;
    class       volScalarField;
    location    "1.2e-05";
    object      Tt;
}
// * * * * * * * * * * * * * * * * * * * * * * * * * * * * * * * * * * * * * //

dimensions      [0 0 0 1 0 0 0];


internalField   nonuniform List<scalar> 
30038
(
144.4
144.4
144.4
144.4
144.4
144.4
144.4
144.4
144.4
144.4
144.4
144.4
144.4
144.4
144.4
144.4
144.4
144.4
144.4
144.4
144.4
144.4
144.4
144.4
144.4
144.4
144.4
144.4
144.4
144.4
144.4
144.4
144.4
144.4
144.4
144.4
144.4
144.4
144.4
144.4
144.4
144.4
144.4
144.4
144.4
144.4
144.4
144.4
144.4
144.4
144.4
144.4
144.4
144.4
144.4
144.4
144.4
144.4
144.4
144.4
144.4
144.4
144.4
144.4
144.4
144.4
144.4
144.4
144.4
144.4
144.4
144.4
144.4
144.4
144.4
144.4
144.4
144.4
144.4
144.4
144.4
144.4
144.4
144.4
144.4
144.4
144.4
144.4
144.4
144.4
144.4
144.4
144.4
144.4
144.4
144.4
144.4
144.4
144.4
144.4
144.4
144.4
144.4
144.4
144.4
144.4
144.4
144.4
144.4
144.4
144.4
144.4
144.4
144.4
144.4
144.4
144.4
144.4
144.4
144.4
144.4
144.4
144.4
144.4
144.4
144.4
144.4
144.4
144.4
144.4
144.4
144.4
144.4
144.4
144.4
144.4
144.4
144.4
144.4
144.4
144.4
144.4
144.4
144.4
144.4
144.4
144.4
144.4
144.4
144.4
144.4
144.4
144.4
144.4
144.4
144.4
144.4
144.4
144.4
144.4
144.4
144.4
144.4
144.4
144.4
144.4
144.4
144.4
144.4
144.4
144.4
144.4
144.4
144.4
144.4
144.4
144.4
144.4
144.4
144.4
144.4
144.4
144.4
144.4
144.4
144.4
144.4
144.4
144.4
144.4
144.4
144.4
144.4
144.4
144.4
144.4
144.4
144.4
144.4
144.4
144.4
144.4
144.4
144.4
144.4
144.4
144.4
144.4
144.4
144.4
144.4
144.4
144.4
144.4
144.4
144.4
144.4
144.4
144.4
144.4
144.4
144.4
144.4
144.4
144.4
144.4
144.4
144.4
144.4
144.4
144.4
144.4
144.4
144.4
144.4
144.4
144.4
144.4
144.4
144.4
144.4
144.4
144.4
144.4
144.4
144.4
144.4
144.4
144.4
144.4
144.4
144.4
144.4
144.4
144.4
144.4
144.4
144.4
144.4
144.4
144.4
144.4
144.4
144.4
144.4
144.4
144.4
144.4
144.4
144.4
144.4
144.4
144.4
144.4
144.4
144.4
144.4
144.4
144.4
144.4
144.4
144.4
144.4
144.4
144.4
144.4
144.4
144.4
144.4
144.4
144.4
144.4
144.4
144.4
144.4
144.4
144.4
144.4
144.4
144.4
144.4
144.4
144.4
144.4
144.4
144.4
144.4
144.4
144.4
144.4
144.4
144.4
144.4
144.4
144.4
144.4
144.4
144.4
144.4
144.4
144.4
144.4
144.4
144.4
144.4
144.4
144.4
144.4
144.4
144.4
144.4
144.4
144.4
144.4
144.4
144.4
144.4
144.4
144.4
144.4
144.4
144.4
144.4
144.4
144.4
144.4
144.4
144.4
144.4
144.4
144.4
144.4
144.4
144.4
144.4
144.4
144.4
144.4
144.4
144.4
144.4
144.4
144.4
144.4
144.4
144.4
144.4
144.4
144.4
144.4
144.4
144.4
144.4
144.4
144.4
144.4
144.4
144.4
144.4
144.4
144.4
144.4
144.4
144.4
144.4
144.4
144.4
144.4
144.4
144.4
144.4
144.4
144.4
144.4
144.4
144.4
144.4
144.4
144.4
144.4
144.4
144.4
144.4
144.4
144.4
144.4
144.4
144.4
144.4
144.4
144.4
144.4
144.4
144.4
144.4
144.4
144.4
144.4
144.4
144.4
144.4
144.4
144.4
144.4
144.4
144.4
144.4
144.4
144.4
144.4
144.4
144.4
144.4
144.4
144.4
144.4
144.4
144.4
144.4
144.4
144.4
144.4
144.4
144.4
144.4
144.4
144.4
144.4
144.4
144.4
144.4
144.4
144.4
144.4
144.4
144.4
144.4
144.4
144.4
144.4
144.4
144.4
144.4
144.4
144.4
144.4
144.4
144.4
144.4
144.4
144.4
144.4
144.4
144.4
144.4
144.4
144.4
144.4
144.4
144.4
144.4
144.4
144.4
144.4
144.4
144.4
144.4
144.4
144.4
144.4
144.4
144.4
144.4
144.4
144.4
144.4
144.4
144.4
144.4
144.4
144.4
144.4
144.4
144.4
144.4
144.4
144.4
144.4
144.4
144.4
144.4
144.4
144.4
144.4
144.4
144.4
144.4
144.4
144.4
144.4
144.4
144.4
144.4
144.4
144.4
144.4
144.4
144.4
144.4
144.4
144.4
144.4
144.4
144.4
144.4
144.4
144.4
144.4
144.4
144.4
144.4
144.4
144.4
144.4
144.4
144.4
144.4
144.4
144.4
144.4
144.4
144.4
144.4
144.4
144.4
144.4
144.4
144.4
144.4
144.4
144.4
144.4
144.4
144.4
144.4
144.4
144.4
144.4
144.4
144.4
144.4
144.4
144.4
144.4
144.4
144.4
144.4
144.4
144.4
144.4
144.4
144.4
144.4
144.4
144.4
144.4
144.4
144.4
144.4
144.4
144.4
144.4
144.4
144.4
144.4
144.4
144.4
144.4
144.4
144.4
144.4
144.4
144.4
144.4
144.4
144.4
144.4
144.4
144.4
144.4
144.4
144.4
144.4
144.4
144.4
144.4
144.4
144.4
144.4
144.4
144.4
144.4
144.4
144.4
144.4
144.4
144.4
144.4
144.4
144.4
144.4
144.4
144.4
144.4
144.4
144.4
144.4
144.4
144.4
144.4
144.4
144.4
144.4
144.4
144.4
144.4
144.4
144.4
144.4
144.4
144.4
144.4
144.4
144.4
144.4
144.4
144.4
144.4
144.4
144.4
144.4
144.4
144.4
144.4
144.4
144.4
144.4
144.4
144.4
144.4
144.4
144.4
144.4
144.4
144.4
144.4
144.4
144.4
144.4
144.4
144.4
144.4
144.4
144.4
144.4
144.4
144.4
144.4
144.4
144.4
144.4
144.4
144.4
144.4
144.4
144.4
144.4
144.4
144.4
144.4
144.4
144.4
144.4
144.4
144.4
144.4
144.4
144.4
144.4
144.4
144.4
144.4
144.4
144.4
144.4
144.4
144.4
144.4
144.4
144.4
144.4
144.4
144.4
144.4
144.4
144.4
144.4
144.4
144.4
144.4
144.4
144.4
144.4
144.4
144.4
144.4
144.4
144.4
144.4
144.4
144.4
144.4
144.4
144.4
144.4
144.4
144.4
144.4
144.4
144.4
144.4
144.4
144.4
144.4
144.4
144.4
144.4
144.4
144.4
144.4
144.4
144.4
144.4
144.4
144.4
144.4
144.4
144.4
144.4
144.4
144.4
144.4
144.4
144.4
144.4
144.4
144.4
144.4
144.4
144.4
144.4
144.4
144.4
144.4
144.4
144.4
144.4
144.4
144.4
144.4
144.4
144.4
144.4
144.4
144.4
144.4
144.4
144.4
144.4
144.4
144.4
144.4
144.4
144.4
144.4
144.4
144.4
144.4
144.4
144.4
144.4
144.4
144.4
144.4
144.4
144.4
144.4
144.4
144.4
144.4
144.4
144.4
144.4
144.4
144.4
144.4
144.4
144.4
144.4
144.4
144.4
144.4
144.4
144.4
144.4
144.4
144.4
144.4
144.4
144.4
144.4
144.4
144.4
144.4
144.4
144.4
144.4
144.4
144.4
144.4
144.4
144.4
144.4
144.4
144.4
144.4
144.4
144.4
144.4
144.4
144.4
144.4
144.4
144.4
144.4
144.4
144.4
144.4
144.4
144.4
144.4
144.4
144.4
144.4
144.4
144.4
144.4
144.4
144.4
144.4
144.4
144.4
144.4
144.4
144.4
144.4
144.4
144.4
144.4
144.4
144.4
144.4
144.4
144.4
144.4
144.4
144.4
144.4
144.4
144.4
144.4
144.4
144.4
144.4
144.4
144.4
144.4
144.4
144.4
144.4
144.4
144.4
144.4
144.4
144.4
144.4
144.4
144.4
144.4
144.4
144.4
144.4
144.4
144.4
144.4
144.4
144.4
144.4
144.4
144.4
144.4
144.4
144.4
144.4
144.4
144.4
144.4
144.4
144.4
144.4
144.4
144.4
144.4
144.4
144.4
144.4
144.4
144.4
144.4
144.4
144.4
144.4
144.4
144.4
144.4
144.4
144.4
144.4
144.4
144.4
144.4
144.4
144.4
144.4
144.4
144.4
144.4
144.4
144.4
144.4
144.4
144.4
144.4
144.4
144.4
144.4
144.4
144.4
144.4
144.4
144.4
144.4
144.4
144.4
144.4
144.4
144.4
144.4
144.4
144.4
144.4
144.4
144.4
144.4
144.4
144.4
144.4
144.4
144.4
144.4
144.4
144.4
144.4
144.4
144.4
144.4
144.4
144.4
144.4
144.4
144.4
144.4
144.4
144.4
144.4
144.4
144.4
144.4
144.4
144.4
144.4
144.4
144.4
144.4
144.4
144.4
144.4
144.4
144.4
144.4
144.4
144.4
144.4
144.4
144.4
144.4
144.4
144.4
144.4
144.4
144.4
144.4
144.4
144.4
144.4
144.4
144.4
144.4
144.4
144.4
144.4
144.4
144.4
144.4
144.4
144.4
144.4
144.4
144.4
144.4
144.4
144.4
144.4
144.4
144.4
144.4
144.4
144.4
144.4
144.4
144.4
144.4
144.4
144.4
144.4
144.4
144.4
144.4
144.4
144.4
144.4
144.4
144.4
144.4
144.4
144.4
144.4
144.4
144.4
144.4
144.4
144.4
144.4
144.4
144.4
144.4
144.4
144.4
144.4
144.4
144.4
144.4
144.4
144.4
144.4
144.4
144.4
144.4
144.4
144.4
144.4
144.4
144.4
144.4
144.4
144.4
144.4
144.4
144.4
144.4
144.4
144.4
144.4
144.4
144.4
144.4
144.4
144.4
144.4
144.4
144.4
144.4
144.4
144.4
144.4
144.4
144.4
144.4
144.4
144.4
144.4
144.4
144.4
144.4
144.4
144.4
144.4
144.4
144.4
144.4
144.4
144.4
144.4
144.4
144.4
144.4
144.4
144.4
144.4
144.4
144.4
144.4
144.4
144.4
144.4
144.4
144.4
144.4
144.4
144.4
144.4
144.4
144.4
144.4
144.4
144.4
144.4
144.4
144.4
144.4
144.4
144.4
144.4
144.4
144.4
144.4
144.4
144.4
144.4
144.4
144.4
144.4
144.4
144.4
144.4
144.4
144.4
144.4
144.4
144.4
144.4
144.4
144.4
144.4
144.4
144.4
144.4
144.4
144.4
144.4
144.4
144.4
144.4
144.4
144.4
144.4
144.4
144.4
144.4
144.4
144.4
144.4
144.4
144.4
144.4
144.4
144.4
144.4
144.4
144.4
144.4
144.4
144.4
144.4
144.4
144.4
144.4
144.4
144.4
144.4
144.4
144.401
144.4
144.4
144.4
144.4
144.4
144.4
144.4
144.4
144.4
144.4
144.4
144.4
144.4
144.4
144.4
144.4
144.4
144.4
144.4
144.4
144.4
144.4
144.4
144.4
144.4
144.4
144.4
144.4
144.4
144.4
144.4
144.4
144.4
144.4
144.4
144.4
144.4
144.4
144.4
144.4
144.4
144.4
144.4
144.4
144.4
144.4
144.401
144.401
144.402
144.404
144.4
144.4
144.4
144.4
144.4
144.4
144.4
144.4
144.4
144.4
144.4
144.4
144.4
144.4
144.4
144.4
144.4
144.4
144.4
144.4
144.4
144.4
144.4
144.4
144.4
144.4
144.4
144.4
144.4
144.4
144.4
144.4
144.4
144.4
144.4
144.4
144.4
144.4
144.4
144.4
144.4
144.4
144.4
144.401
144.401
144.402
144.403
144.406
144.411
144.422
144.4
144.4
144.4
144.4
144.4
144.4
144.4
144.4
144.4
144.4
144.4
144.4
144.4
144.4
144.4
144.4
144.4
144.4
144.4
144.4
144.4
144.4
144.4
144.4
144.4
144.4
144.4
144.4
144.4
144.4
144.4
144.4
144.4
144.4
144.4
144.4
144.4
144.4
144.4
144.4
144.401
144.401
144.402
144.403
144.406
144.411
144.419
144.435
144.464
144.522
144.4
144.4
144.4
144.4
144.4
144.4
144.4
144.4
144.4
144.4
144.4
144.4
144.4
144.4
144.4
144.4
144.4
144.4
144.4
144.4
144.4
144.4
144.4
144.4
144.4
144.4
144.4
144.4
144.4
144.4
144.4
144.4
144.4
144.4
144.4
144.4
144.4
144.401
144.401
144.402
144.403
144.406
144.411
144.419
144.433
144.46
144.507
144.593
144.751
145.06
144.4
144.4
144.4
144.4
144.4
144.4
144.4
144.4
144.4
144.4
144.4
144.4
144.4
144.4
144.4
144.4
144.4
144.4
144.4
144.4
144.4
144.4
144.4
144.4
144.4
144.4
144.4
144.4
144.4
144.4
144.4
144.4
144.4
144.4
144.401
144.401
144.402
144.403
144.406
144.411
144.419
144.433
144.458
144.502
144.582
144.724
144.979
145.439
146.28
147.882
144.4
144.4
144.4
144.4
144.4
144.4
144.4
144.4
144.4
144.4
144.4
144.4
144.4
144.4
144.4
144.4
144.4
144.4
144.4
144.4
144.4
144.4
144.4
144.4
144.4
144.4
144.4
144.4
144.4
144.4
144.4
144.401
144.401
144.402
144.404
144.406
144.411
144.419
144.433
144.458
144.501
144.577
144.711
144.948
145.369
146.117
147.45
149.82
154.044
161.688
144.4
144.4
144.4
144.4
144.4
144.4
144.4
144.4
144.4
144.4
144.4
144.4
144.4
144.4
144.4
144.4
144.4
144.4
144.4
144.4
144.4
144.4
144.4
144.4
144.4
144.4
144.4
144.401
144.401
144.401
144.402
144.404
144.407
144.412
144.42
144.434
144.459
144.502
144.577
144.707
144.934
145.332
146.03
147.255
149.403
153.149
159.614
170.576
188.69
217.702
144.4
144.4
144.4
144.4
144.4
144.4
144.4
144.4
144.4
144.4
144.4
144.4
144.4
144.4
144.4
144.4
144.4
144.4
144.4
144.4
144.4
144.4
144.4
144.4
144.401
144.401
144.402
144.403
144.405
144.408
144.413
144.422
144.437
144.462
144.506
144.582
144.711
144.934
145.321
145.99
147.151
149.159
152.62
158.527
168.433
184.597
209.957
247.792
301.133
371.938
144.4
144.4
144.4
144.4
144.4
144.4
144.4
144.4
144.4
144.4
144.4
144.4
144.4
144.4
144.4
144.4
144.4
144.4
144.4
144.4
144.4
144.401
144.401
144.402
144.403
144.405
144.409
144.415
144.424
144.44
144.468
144.514
144.592
144.724
144.95
145.335
145.995
147.123
149.053
152.338
157.881
167.088
181.999
205.278
239.927
288.685
353.298
434.064
529.911
638.501
144.4
144.4
144.4
144.4
144.4
144.4
144.4
144.4
144.4
144.4
144.4
144.4
144.4
144.4
144.4
144.4
144.4
144.401
144.401
144.401
144.402
144.404
144.406
144.41
144.417
144.428
144.446
144.475
144.525
144.608
144.747
144.982
145.377
146.044
147.171
149.073
152.273
157.609
166.377
180.45
202.279
234.66
280.213
340.713
416.599
506.887
609.501
721.788
841.058
964.378
144.4
144.4
144.4
144.4
144.4
144.4
144.4
144.4
144.4
144.4
144.4
144.4
144.4
144.4
144.401
144.401
144.402
144.403
144.405
144.408
144.412
144.42
144.432
144.453
144.486
144.541
144.632
144.782
145.032
145.447
146.14
147.296
149.222
152.419
157.686
166.24
179.824
200.713
231.513
274.707
332.059
404.146
490.237
588.515
696.506
811.48
930.744
1051.63
1171.53
1288.38
144.4
144.4
144.4
144.4
144.4
144.4
144.4
144.4
144.4
144.4
144.401
144.401
144.402
144.402
144.404
144.406
144.41
144.415
144.424
144.439
144.463
144.501
144.563
144.665
144.831
145.104
145.553
146.291
147.508
149.508
152.786
158.116
166.661
180.069
200.471
230.294
271.867
326.886
395.988
478.619
573.214
677.547
789.102
905.339
1023.75
1141.76
1256.98
1367.26
1470.09
1563.21
144.4
144.4
144.4
144.4
144.4
144.4
144.401
144.401
144.401
144.402
144.403
144.405
144.408
144.412
144.419
144.43
144.448
144.476
144.522
144.594
144.711
144.9
145.207
145.703
146.511
147.824
149.955
153.401
158.926
167.665
181.194
201.524
230.922
271.545
324.978
391.849
471.707
563.176
664.258
772.657
886.017
1002.06
1118.44
1232.81
1343.06
1447.05
1542.16
1625.62
1695.15
1750.93
144.4
144.4
144.4
144.401
144.401
144.401
144.402
144.403
144.404
144.407
144.41
144.416
144.425
144.439
144.461
144.495
144.55
144.637
144.775
144.995
145.348
145.912
146.818
148.272
150.599
154.31
160.176
169.318
183.264
203.924
233.409
273.701
326.236
391.579
469.321
558.221
656.477
761.992
872.598
986.188
1100.67
1213.86
1323.71
1428.29
1525.45
1612.59
1687.26
1748.01
1795.06
1829.79
1855.16
144.401
144.401
144.402
144.403
144.404
144.406
144.409
144.414
144.422
144.433
144.451
144.479
144.522
144.59
144.697
144.864
145.127
145.543
146.201
147.242
148.891
151.496
155.589
161.961
171.735
186.407
207.796
237.864
278.402
330.673
395.136
471.377
558.248
654.099
757.022
865.028
976.166
1088.55
1200.22
1309.21
1413.72
1511.92
1601.59
1680.3
1746.18
1798.57
1838.34
1867.25
1887.71
1901.85
1911.89
144.403
144.404
144.406
144.409
144.413
144.42
144.43
144.445
144.469
144.505
144.561
144.647
144.781
144.988
145.31
145.813
146.599
147.826
149.743
152.727
157.345
164.419
175.088
190.821
213.352
244.488
285.819
338.408
402.579
477.878
563.213
657.064
757.688
863.27
972.016
1082.21
1192.1
1299.87
1403.79
1502.22
1593.32
1674.87
1744.84
1802.02
1846.53
1879.7
1903.48
1920.11
1931.46
1939.27
1944.63
1948.33
144.413
144.419
144.428
144.442
144.463
144.495
144.544
144.617
144.729
144.901
145.164
145.569
146.192
147.152
148.633
150.913
154.409
159.734
167.751
179.62
196.787
220.895
253.582
296.222
349.66
414.061
488.912
573.152
665.371
763.979
867.322
973.766
1081.73
1189.67
1295.91
1398.82
1496.89
1588.53
1671.85
1744.81
1805.92
1854.71
1891.93
1919.18
1938.46
1951.77
1960.79
1966.89
1970.9
1973.44
1975.4
1977.17
144.461
144.491
144.535
144.601
144.7
144.85
145.076
145.418
145.938
146.728
147.93
149.758
152.53
156.715
162.979
172.236
185.667
204.687
230.83
265.55
309.981
364.74
429.823
504.644
588.168
679.077
775.92
877.201
981.433
1087.17
1193.02
1297.49
1399.06
1496.28
1587.79
1671.95
1746.91
1811.02
1863.42
1904.31
1934.91
1956.93
1972.31
1982.75
1989.75
1994.39
1997.24
1998.93
2000.4
2001.37
2001.28
2000.83
144.688
144.825
145.029
145.334
145.79
146.473
147.498
149.037
151.342
154.784
159.891
167.395
178.259
193.679
215.02
243.679
280.899
327.562
384.046
450.181
525.311
608.419
698.28
793.569
892.937
995.036
1098.55
1202.22
1304.73
1404.67
1500.68
1591.52
1675.78
1751.84
1818.03
1873.27
1917.33
1950.99
1975.67
1993.14
2005.16
2013.16
2018.42
2021.71
2023.51
2024.68
2025.66
2025.66
2025.07
2024.05
2022.65
2021.22
145.721
146.342
147.26
148.62
150.63
153.596
157.951
164.293
173.422
186.344
204.25
228.421
260.085
300.245
349.517
408.048
475.513
551.196
634.109
723.112
817.005
914.572
1014.6
1115.91
1217.34
1317.73
1415.79
1510.28
1600.01
1683.77
1760.15
1827.59
1884.87
1931.47
1967.78
1994.94
2014.46
2028.02
2037.13
2043.07
2046.85
2048.88
2049.85
2050.56
2050.81
2050.23
2049.12
2047.56
2045.78
2043.95
2042.18
2040.51
150.277
152.955
156.841
162.44
170.428
181.666
197.187
218.137
245.672
280.811
324.292
376.468
437.268
506.237
582.622
665.471
753.735
846.331
942.172
1040.17
1139.26
1238.4
1336.53
1432.52
1525.2
1613.45
1696.23
1772.28
1840.21
1898.77
1947.24
1985.71
2015
2036.41
2051.48
2061.74
2068.41
2072.59
2074.97
2075.98
2076.37
2076.5
2076.06
2074.89
2073.26
2071.29
2069.19
2067.05
2064.97
2062.9
2060.9
2058.99
168.843
179.006
192.947
211.684
236.275
267.696
306.721
353.814
409.075
472.251
542.79
619.924
702.754
790.324
881.665
975.808
1071.78
1168.63
1265.41
1361.17
1454.89
1545.51
1631.99
1713.36
1788.55
1856.31
1915.43
1965.1
2005.16
2036.18
2059.24
2075.71
2087.02
2094.46
2099.07
2101.79
2102.91
2103.06
2102.94
2102.51
2101.32
2099.6
2097.55
2095.2
2092.77
2090.35
2087.99
2085.63
2083.31
2081.02
2078.77
2076.57
259.772
295.535
338.749
389.612
448.007
513.538
585.596
663.428
746.2
833.052
923.12
1015.55
1109.47
1204.02
1298.36
1391.63
1482.92
1571.25
1655.67
1735.28
1809.16
1876.19
1935.23
1985.45
2026.53
2058.82
2083.2
2100.84
2113.11
2121.29
2126.32
2129.27
2130.65
2130.65
2130.26
2129.64
2128.51
2126.67
2124.47
2121.95
2119.26
2116.54
2113.86
2111.19
2108.55
2105.94
2103.35
2100.79
2098.23
2095.7
2093.21
432.471
493.894
561.628
635.046
713.431
796.027
882.066
970.788
1061.43
1153.23
1245.42
1337.22
1427.88
1516.58
1602.41
1684.52
1762.07
1834.24
1900.04
1958.44
2008.61
2050.13
2083.21
2108.52
2127.09
2140.17
2148.95
2154.39
2157.57
2159.11
2159.05
2158.45
2157.57
2156.31
2154.39
2152.05
2149.44
2146.52
2143.5
2140.49
2137.53
2134.57
2131.65
2128.76
2125.88
2123.02
2120.17
2117.33
2114.49
2111.67
2108.88
691.469
770.178
852.409
937.484
1024.73
1113.49
1203.08
1292.8
1381.96
1469.88
1555.82
1638.96
1718.51
1793.71
1863.83
1927.98
1985.24
2034.81
2076.23
2109.59
2135.44
2154.64
2168.29
2177.55
2183.35
2186.71
2188.3
2188.3
2187.53
2186.31
2184.8
2182.91
2180.4
2177.58
2174.47
2171.19
2167.89
2164.62
2161.36
2158.12
2154.92
2151.75
2148.59
2145.44
2142.3
2139.17
2136.04
2132.91
2129.78
2126.67
2123.58
1084.99
1171.72
1258.96
1346.08
1432.47
1517.51
1600.53
1680.79
1757.55
1830.15
1897.91
1960.05
2015.72
2064.19
2105.02
2138.2
2164.15
2183.63
2197.63
2207.21
2213.24
2216.71
2218.34
2218.34
2217.41
2215.89
2214.11
2212.05
2209.39
2206.38
2203.16
2199.65
2196.05
2192.45
2188.89
2185.34
2181.83
2178.35
2174.89
2171.45
2168.02
2164.6
2161.19
2157.78
2154.37
2150.95
2147.54
2144.11
2140.7
2137.3
1405.17
1488.64
1570.64
1650.57
1727.75
1801.53
1871.28
1936.4
1996.19
2049.9
2096.84
2136.6
2169.14
2194.8
2214.23
2228.32
2237.99
2244.11
2247.64
2249.23
2249.14
2248.13
2246.36
2244.21
2241.88
2239.17
2235.93
2232.48
2228.76
2224.89
2221
2217.15
2213.3
2209.47
2205.69
2201.92
2198.19
2194.47
2190.76
2187.06
2183.37
2179.69
2176
2172.31
2168.61
2164.9
2161.19
2157.47
2153.76
2150.04
1705.77
1779.69
1850.27
1916.94
1979.17
2036.32
2087.71
2132.73
2171.02
2202.51
2227.48
2246.53
2260.41
2269.97
2276.07
2279.53
2280.96
2280.76
2279.65
2277.61
2275.1
2272.5
2269.61
2266.16
2262.46
2258.61
2254.47
2250.28
2246.11
2241.96
2237.82
2233.74
2229.68
2225.64
2221.62
2217.63
2213.65
2209.67
2205.71
2201.75
2197.78
2193.82
2189.85
2185.87
2181.88
2177.89
2173.88
2169.86
2165.84
2161.81
1966.92
2026.01
2080.25
2129.02
2171.78
2208.22
2238.29
2262.22
2280.56
2293.98
2303.22
2309.11
2312.38
2313.6
2313.26
2311.94
2309.62
2306.82
2303.89
2300.71
2297.1
2293.16
2289.07
2284.71
2280.23
2275.78
2271.33
2266.89
2262.48
2258.12
2253.78
2249.48
2245.19
2240.92
2236.67
2232.42
2228.18
2223.95
2219.72
2215.48
2211.24
2207
2202.74
2198.48
2194.2
2189.9
2185.6
2181.27
2176.95
2172.61
2173.64
2213.84
2248.11
2276.43
2299
2316.33
2329.03
2337.73
2343.25
2346.22
2347.13
2346.58
2345
2342.44
2339.33
2336.01
2332.52
2328.78
2324.54
2320.16
2315.62
2310.88
2306.11
2301.37
2296.63
2291.92
2287.26
2282.62
2278.01
2273.43
2268.88
2264.34
2259.81
2255.3
2250.79
2246.29
2241.79
2237.29
2232.79
2228.28
2223.76
2219.23
2214.68
2210.13
2205.55
2200.96
2196.35
2191.72
2187.09
2182.44
2316.8
2337.74
2353.81
2365.55
2373.51
2378.49
2381.05
2381.55
2380.71
2378.84
2375.99
2372.53
2368.89
2365.08
2361.02
2356.57
2351.92
2347.18
2342.18
2337.1
2332.07
2327.04
2322.02
2317.05
2312.12
2307.21
2302.34
2297.5
2292.67
2287.86
2283.07
2278.29
2273.52
2268.76
2263.99
2259.23
2254.46
2249.69
2244.91
2240.12
2235.32
2230.5
2225.67
2220.82
2215.94
2211.05
2206.14
2201.21
2196.27
2191.3
2403.44
2410.53
2414.83
2416.85
2416.82
2415.66
2413.44
2410.25
2406.45
2402.48
2398.31
2393.92
2389.28
2384.34
2379.29
2374.08
2368.73
2363.4
2358.08
2352.77
2347.5
2342.27
2337.07
2331.89
2326.76
2321.65
2316.56
2311.5
2306.44
2301.4
2296.36
2291.34
2286.31
2281.29
2276.27
2271.24
2266.2
2261.15
2256.09
2251.02
2245.93
2240.82
2235.7
2230.55
2225.38
2220.18
2214.97
2209.73
2204.48
2199.2
2452.99
2451.4
2448.75
2445.18
2441.07
2436.73
2432.2
2427.49
2422.62
2417.37
2412.02
2406.59
2400.97
2395.32
2389.74
2384.14
2378.56
2373.03
2367.54
2362.08
2356.66
2351.26
2345.89
2340.54
2335.21
2329.9
2324.6
2319.31
2314.02
2308.74
2303.46
2298.18
2292.9
2287.61
2282.31
2277
2271.67
2266.33
2260.97
2255.6
2250.2
2244.77
2239.33
2233.85
2228.36
2222.84
2217.29
2211.73
2206.14
2480.78
2476.32
2471.6
2466.72
2461.67
2456.47
2451.01
2445.36
2439.67
2433.79
2427.85
2421.96
2416.09
2410.21
2404.4
2398.63
2392.87
2387.16
2381.48
2375.82
2370.2
2364.59
2359.01
2353.44
2347.88
2342.34
2336.8
2331.27
2325.73
2320.2
2314.67
2309.13
2303.58
2298.02
2292.45
2286.86
2281.25
2275.63
2269.98
2264.31
2258.62
2252.9
2247.15
2241.38
2235.58
2229.75
2223.9
2218.04
2212.14
2501.82
2496.44
2490.9
2485.18
2479.24
2473.25
2467.15
2460.93
2454.75
2448.61
2442.44
2436.33
2430.28
2424.23
2418.24
2412.28
2406.35
2400.44
2394.56
2388.7
2382.87
2377.05
2371.24
2365.44
2359.65
2353.87
2348.09
2342.31
2336.53
2330.74
2324.95
2319.15
2313.33
2307.5
2301.65
2295.78
2289.89
2283.98
2278.05
2272.08
2266.1
2260.08
2254.03
2247.96
2241.86
2235.73
2229.57
2223.4
2217.19
2513.65
2507.36
2501
2494.52
2488.05
2481.64
2475.21
2468.8
2462.47
2456.15
2449.87
2443.63
2437.42
2431.24
2425.1
2418.97
2412.87
2406.78
2400.71
2394.66
2388.62
2382.58
2376.55
2370.53
2364.5
2358.48
2352.45
2346.41
2340.37
2334.31
2328.24
2322.15
2316.05
2309.92
2303.77
2297.6
2291.4
2285.17
2278.92
2272.63
2266.32
2259.97
2253.6
2247.19
2240.76
2234.3
2227.83
2221.31
2528.6
2521.85
2515.16
2508.47
2501.78
2495.17
2488.59
2482.02
2475.51
2469.03
2462.58
2456.17
2449.77
2443.41
2437.06
2430.73
2424.42
2418.12
2411.84
2405.56
2399.29
2393.03
2386.76
2380.5
2374.23
2367.96
2361.67
2355.38
2349.07
2342.75
2336.41
2330.05
2323.66
2317.26
2310.83
2304.37
2297.88
2291.36
2284.81
2278.23
2271.62
2264.98
2258.3
2251.6
2244.87
2238.11
2231.33
2224.52
2535.24
2528.35
2521.5
2514.67
2507.89
2501.15
2494.43
2487.74
2481.09
2474.46
2467.86
2461.27
2454.71
2448.16
2441.63
2435.1
2428.59
2422.08
2415.58
2409.08
2402.58
2396.07
2389.57
2383.05
2376.52
2369.98
2363.43
2356.86
2350.26
2343.65
2337.02
2330.36
2323.67
2316.95
2310.21
2303.43
2296.62
2289.78
2282.9
2276
2269.06
2262.09
2255.08
2248.06
2241
2233.93
2226.81
2547.77
2540.72
2533.72
2526.74
2519.8
2512.89
2506
2499.14
2492.31
2485.49
2478.69
2471.91
2465.15
2458.39
2451.64
2444.91
2438.17
2431.44
2424.71
2417.97
2411.23
2404.48
2397.73
2390.96
2384.18
2377.38
2370.56
2363.72
2356.86
2349.98
2343.06
2336.12
2329.15
2322.15
2315.12
2308.06
2300.96
2293.82
2286.66
2279.46
2272.22
2264.95
2257.66
2250.33
2242.98
2235.62
2228.21
2552.3
2545.14
2538
2530.89
2523.8
2516.74
2509.7
2502.67
2495.67
2488.67
2481.69
2474.71
2467.75
2460.78
2453.82
2446.86
2439.9
2432.94
2425.96
2418.98
2411.99
2404.98
2397.96
2390.92
2383.86
2376.78
2369.67
2362.54
2355.38
2348.19
2340.97
2333.72
2326.44
2319.12
2311.77
2304.38
2296.96
2289.5
2282.01
2274.48
2266.92
2259.33
2251.71
2244.07
2236.41
2228.73
2563.06
2555.73
2548.43
2541.14
2533.88
2526.63
2519.4
2512.19
2504.98
2497.78
2490.59
2483.41
2476.23
2469.04
2461.86
2454.67
2447.48
2440.27
2433.06
2425.83
2418.59
2411.33
2404.05
2396.76
2389.43
2382.09
2374.71
2367.31
2359.88
2352.41
2344.91
2337.38
2329.81
2322.21
2314.57
2306.9
2299.18
2291.44
2283.66
2275.84
2267.99
2260.11
2252.22
2244.31
2236.39
2228.44
2572.99
2565.5
2558.02
2550.56
2543.11
2535.68
2528.25
2520.84
2513.43
2506.03
2498.63
2491.23
2483.82
2476.42
2469.01
2461.59
2454.16
2446.71
2439.26
2431.78
2424.29
2416.78
2409.25
2401.69
2394.1
2386.49
2378.84
2371.17
2363.46
2355.72
2347.94
2340.13
2332.28
2324.4
2316.47
2308.52
2300.51
2292.48
2284.41
2276.32
2268.21
2260.07
2251.91
2243.73
2235.54
2227.32
2582.1
2574.43
2566.77
2559.12
2551.49
2543.86
2536.24
2528.62
2521.01
2513.4
2505.78
2498.16
2490.54
2482.91
2475.27
2467.61
2459.94
2452.26
2444.56
2436.84
2429.09
2421.33
2413.53
2405.71
2397.87
2389.99
2382.07
2374.13
2366.15
2358.13
2350.08
2341.99
2333.86
2325.69
2317.48
2309.24
2300.98
2292.68
2284.34
2275.99
2267.61
2259.2
2250.77
2242.32
2233.86
2225.37
2590.36
2582.51
2574.67
2566.84
2559.01
2551.19
2543.36
2535.54
2527.72
2519.89
2512.06
2504.22
2496.37
2488.51
2480.64
2472.75
2464.84
2456.91
2448.97
2441
2433
2424.98
2416.93
2408.85
2400.73
2392.59
2384.41
2376.19
2367.94
2359.65
2351.32
2342.95
2334.55
2326.12
2317.65
2309.15
2300.61
2292.05
2283.45
2274.82
2266.17
2257.49
2248.79
2240.08
2231.37
2222.62
2597.78
2589.75
2581.72
2573.69
2565.67
2557.65
2549.62
2541.59
2533.56
2525.51
2517.46
2509.4
2501.32
2493.23
2485.12
2477
2468.85
2460.68
2452.48
2444.26
2436.02
2427.74
2419.43
2411.09
2402.71
2394.3
2385.86
2377.37
2368.84
2360.29
2351.7
2343.08
2334.42
2325.72
2316.99
2308.22
2299.42
2290.58
2281.72
2272.82
2263.9
2254.97
2246.01
2237.05
2228.09
2219.1
2604.35
2596.13
2587.91
2579.69
2571.47
2563.24
2555.01
2546.77
2538.52
2530.26
2521.98
2513.7
2505.39
2497.07
2488.72
2480.36
2471.97
2463.56
2455.11
2446.64
2438.14
2429.61
2421.05
2412.44
2403.8
2395.13
2386.43
2377.69
2368.91
2360.1
2351.26
2342.38
2333.45
2324.49
2315.49
2306.46
2297.39
2288.29
2279.17
2270.02
2260.84
2251.66
2242.46
2233.25
2224.05
2214.82
2601.66
2593.24
2584.82
2576.4
2567.97
2559.52
2551.07
2542.6
2534.12
2525.63
2517.11
2508.58
2500.02
2491.44
2482.84
2474.21
2465.55
2456.86
2448.14
2439.39
2430.6
2421.78
2412.93
2404.05
2395.12
2386.17
2377.19
2368.16
2359.09
2349.98
2340.84
2331.65
2322.43
2313.17
2303.88
2294.56
2285.2
2275.83
2266.43
2257.01
2247.58
2238.14
2228.7
2219.27
2209.82
2606.32
2597.71
2589.09
2580.46
2571.82
2563.17
2554.5
2545.82
2537.12
2528.4
2519.65
2510.89
2502.1
2493.28
2484.44
2475.57
2466.66
2457.72
2448.76
2439.77
2430.75
2421.68
2412.59
2403.47
2394.3
2385.09
2375.84
2366.56
2357.23
2347.87
2338.47
2329.03
2319.56
2310.05
2300.51
2290.93
2281.34
2271.72
2262.08
2252.42
2242.76
2233.09
2223.43
2213.77
2204.11
2610.13
2601.32
2592.5
2583.66
2574.81
2565.94
2557.06
2548.16
2539.23
2530.29
2521.32
2512.32
2503.3
2494.24
2485.16
2476.06
2466.93
2457.76
2448.56
2439.34
2430.07
2420.77
2411.43
2402.05
2392.63
2383.17
2373.67
2364.14
2354.56
2344.95
2335.3
2325.62
2315.9
2306.14
2296.36
2286.55
2276.71
2266.86
2256.99
2247.11
2237.22
2227.33
2217.45
2207.59
2197.72
2604.06
2595.03
2585.99
2576.93
2567.85
2558.75
2549.63
2540.48
2531.3
2522.11
2512.89
2503.65
2494.37
2485.06
2475.73
2466.37
2456.98
2447.54
2438.07
2428.56
2419.01
2409.42
2399.8
2390.14
2380.43
2370.69
2360.91
2351.1
2341.24
2331.35
2321.43
2311.47
2301.48
2291.46
2281.42
2271.36
2261.28
2251.18
2241.08
2230.98
2220.89
2210.8
2200.73
2190.67
2605.93
2596.7
2587.45
2578.18
2568.88
2559.56
2550.23
2540.87
2531.49
2522.07
2512.64
2503.17
2493.68
2484.15
2474.58
2464.98
2455.34
2445.67
2435.96
2426.21
2416.43
2406.6
2396.74
2386.84
2376.9
2366.92
2356.91
2346.85
2336.76
2326.64
2316.48
2306.3
2296.08
2285.84
2275.57
2265.29
2254.99
2244.69
2234.38
2224.07
2213.78
2203.5
2193.24
2182.99
2606.94
2597.5
2588.05
2578.58
2569.08
2559.55
2550.01
2540.44
2530.85
2521.22
2511.56
2501.86
2492.14
2482.38
2472.58
2462.75
2452.89
2442.98
2433.04
2423.06
2413.04
2402.99
2392.89
2382.76
2372.59
2362.38
2352.13
2341.85
2331.54
2321.19
2310.81
2300.4
2289.96
2279.51
2269.03
2258.53
2248.03
2237.52
2227.01
2216.51
2206.03
2195.56
2185.13
2174.7
2607.12
2597.48
2587.83
2578.16
2568.46
2558.73
2548.97
2539.18
2529.37
2519.52
2509.64
2499.72
2489.77
2479.79
2469.77
2459.71
2449.62
2439.49
2429.32
2419.12
2408.87
2398.59
2388.27
2377.91
2367.52
2357.09
2346.62
2336.12
2325.58
2315.02
2304.42
2293.8
2283.16
2272.49
2261.81
2251.11
2240.41
2229.71
2219.01
2208.33
2197.66
2187.03
2176.42
2165.83
2596.65
2586.79
2576.91
2567
2557.06
2547.09
2537.09
2527.06
2516.99
2506.89
2496.76
2486.59
2476.39
2466.15
2455.88
2445.57
2435.22
2424.83
2414.4
2403.94
2393.44
2382.9
2372.32
2361.71
2351.07
2340.39
2329.67
2318.93
2308.15
2297.35
2286.53
2275.68
2264.82
2253.94
2243.05
2232.17
2221.28
2210.4
2199.54
2188.71
2177.91
2167.15
2156.4
2594.96
2584.9
2574.82
2564.7
2554.56
2544.38
2534.17
2523.93
2513.65
2503.34
2493
2482.62
2472.2
2461.75
2451.26
2440.74
2430.17
2419.57
2408.93
2398.26
2387.55
2376.8
2366.01
2355.19
2344.34
2333.45
2322.54
2311.59
2300.62
2289.62
2278.6
2267.56
2256.51
2245.45
2234.38
2223.31
2212.25
2201.21
2190.18
2179.19
2168.24
2157.33
2146.45
2592.45
2582.19
2571.91
2561.59
2551.24
2540.86
2530.45
2520
2509.52
2499.01
2488.45
2477.87
2467.24
2456.58
2445.89
2435.15
2424.38
2413.58
2402.73
2391.85
2380.93
2369.98
2359
2347.98
2336.92
2325.84
2314.73
2303.59
2292.43
2281.24
2270.04
2258.82
2247.59
2236.35
2225.11
2213.88
2202.65
2191.45
2180.28
2169.14
2158.04
2147
2135.99
2578.67
2568.19
2557.67
2547.13
2536.55
2525.94
2515.29
2504.61
2493.89
2483.14
2472.35
2461.53
2450.67
2439.77
2428.83
2417.86
2406.86
2395.82
2384.74
2373.63
2362.48
2351.3
2340.09
2328.85
2317.58
2306.28
2294.96
2283.61
2272.25
2260.87
2249.48
2238.08
2226.67
2215.27
2203.89
2192.51
2181.17
2169.85
2158.58
2147.35
2136.18
2125.05
2574.35
2563.67
2552.97
2542.23
2531.46
2520.65
2509.81
2498.93
2488.02
2477.07
2466.09
2455.07
2444.02
2432.93
2421.8
2410.64
2399.44
2388.21
2376.94
2365.64
2354.31
2342.94
2331.55
2320.13
2308.68
2297.2
2285.71
2274.19
2262.66
2251.12
2239.56
2228.01
2216.45
2204.9
2193.37
2181.86
2170.37
2158.93
2147.52
2136.18
2124.89
2113.65
2569.24
2558.38
2547.49
2536.56
2525.6
2514.61
2503.58
2492.51
2481.41
2470.28
2459.11
2447.9
2436.66
2425.38
2414.07
2402.72
2391.34
2379.93
2368.48
2357
2345.49
2333.95
2322.39
2310.79
2299.17
2287.53
2275.88
2264.2
2252.51
2240.81