/*--------------------------------*- C++ -*----------------------------------*\
| =========                 |                                                 |
| \\      /  F ield         | OpenFOAM: The Open Source CFD Toolbox           |
|  \\    /   O peration     | Version:  v1706                                 |
|   \\  /    A nd           | Web:      www.OpenFOAM.com                      |
|    \\/     M anipulation  |                                                 |
\*---------------------------------------------------------------------------*/
FoamFile
{
    version     2.0;
    format      ascii;
    class       volVectorField;
    location    "1.2e-05";
    object      U;
}
// * * * * * * * * * * * * * * * * * * * * * * * * * * * * * * * * * * * * * //

dimensions      [0 1 -1 0 0 0 0];


internalField   nonuniform List<vector> 
30038
(
(2764.5 -3.78376e-11 8.01759e-15)
(2764.5 -3.79836e-11 -3.72852e-15)
(2764.5 -3.36065e-11 1.24504e-14)
(2764.5 -3.78542e-11 3.42924e-15)
(2764.5 -3.86171e-11 2.8909e-15)
(2764.5 -3.74296e-11 3.01293e-15)
(2764.5 -3.8272e-11 7.17476e-15)
(2764.5 -3.96175e-11 1.16946e-14)
(2764.5 -3.91637e-11 6.48801e-15)
(2764.5 -3.71631e-11 1.22875e-15)
(2764.5 -3.32745e-11 9.85601e-15)
(2764.5 -3.5211e-11 9.37694e-15)
(2764.5 -3.57028e-11 3.8073e-15)
(2764.5 -3.61967e-11 5.82834e-15)
(2764.5 -3.812e-11 1.17167e-15)
(2764.5 -4.02478e-11 9.984e-15)
(2764.5 -4.34877e-11 7.75004e-15)
(2764.5 -4.45969e-11 2.06924e-15)
(2764.5 -4.61965e-11 1.23121e-15)
(2764.5 -4.73469e-11 9.57253e-15)
(2764.5 -4.78109e-11 8.62856e-15)
(2764.5 -4.87522e-11 9.14208e-15)
(2764.5 -5.57366e-11 -3.13691e-15)
(2764.5 -5.76763e-11 8.41638e-15)
(2764.5 -5.7724e-11 8.29756e-15)
(2764.5 -6.08627e-11 2.73831e-15)
(2764.5 -5.99584e-11 1.00787e-15)
(2764.5 -6.16443e-11 5.70908e-15)
(2764.5 -6.13548e-11 9.7803e-15)
(2764.5 -6.35267e-11 9.36654e-15)
(2764.5 -6.0799e-11 3.77808e-15)
(2764.5 -6.4991e-11 1.09522e-14)
(2764.5 -6.8643e-11 9.18121e-15)
(2764.5 -7.37219e-11 4.62945e-15)
(2764.5 -7.57793e-11 8.54323e-15)
(2764.5 -7.82697e-11 9.86357e-15)
(2764.5 -7.53986e-11 8.04617e-16)
(2764.5 -7.86869e-11 4.6464e-15)
(2764.5 -1.18559e-10 1.72809e-14)
(2764.5 -1.20255e-10 1.68228e-14)
(2764.5 -1.25286e-10 2.47515e-14)
(2764.5 -1.15471e-10 1.80296e-14)
(2764.5 -1.22286e-10 2.15685e-14)
(2764.5 -1.22059e-10 2.10242e-14)
(2764.5 -1.22292e-10 2.27116e-14)
(2764.5 -1.26635e-10 2.46768e-14)
(2764.5 -1.27053e-10 1.75818e-14)
(2764.5 -1.31976e-10 2.05308e-14)
(2764.5 -1.34687e-10 2.3145e-14)
(2764.5 -1.32676e-10 1.41924e-14)
(2764.5 -1.37417e-10 1.79592e-14)
(2764.5 -1.33718e-10 2.13631e-14)
(2764.5 -1.35118e-10 1.49905e-14)
(2764.5 -1.30199e-10 2.09352e-14)
(2764.5 -1.28992e-10 1.91196e-14)
(2764.5 -1.35729e-10 2.0052e-14)
(2764.5 -1.36956e-10 1.68302e-14)
(2764.5 -1.36897e-10 1.90898e-14)
(2764.5 -1.39729e-10 1.63269e-14)
(2764.5 -1.39863e-10 1.87251e-14)
(2764.5 -1.41093e-10 1.90927e-14)
(2764.5 -1.50274e-10 2.0703e-14)
(2764.5 -1.49285e-10 1.83064e-14)
(2764.5 -1.5435e-10 1.89277e-14)
(2764.5 -1.5768e-10 1.85861e-14)
(2764.5 -1.63251e-10 1.76311e-14)
(2764.5 -1.64195e-10 1.78276e-14)
(2764.5 -1.70302e-10 2.27417e-14)
(2764.5 -1.78195e-10 1.24117e-14)
(2764.5 -1.76375e-10 2.32987e-14)
(2764.5 -1.78657e-10 2.85396e-14)
(2764.5 -1.79311e-10 2.12515e-14)
(2764.5 -1.89103e-10 2.45904e-14)
(2764.5 -1.94723e-10 1.96599e-14)
(2764.5 -2.05021e-10 1.97338e-14)
(2764.5 -2.11e-10 2.09733e-14)
(2764.5 -1.80672e-10 3.21523e-14)
(2764.5 -1.87188e-10 3.51577e-14)
(2764.5 -1.97198e-10 3.61465e-14)
(2764.5 -1.96906e-10 3.06483e-14)
(2764.5 -1.97849e-10 3.19524e-14)
(2764.5 -2.01921e-10 3.19422e-14)
(2764.5 -1.98033e-10 3.33027e-14)
(2764.5 -1.99312e-10 2.66459e-14)
(2764.5 -2.01655e-10 2.83934e-14)
(2764.5 -2.06204e-10 3.13072e-14)
(2764.5 -2.12435e-10 2.66907e-14)
(2764.5 -2.13636e-10 3.30142e-14)
(2764.5 -2.20514e-10 3.27572e-14)
(2764.5 -2.22282e-10 3.37875e-14)
(2764.5 -2.25941e-10 2.93479e-14)
(2764.5 -2.27766e-10 3.48669e-14)
(2764.5 -2.26251e-10 3.36659e-14)
(2764.5 -2.25584e-10 3.60764e-14)
(2764.5 -2.28996e-10 3.29472e-14)
(2764.5 -2.34628e-10 3.25268e-14)
(2764.5 -2.39473e-10 2.86915e-14)
(2764.5 -2.42864e-10 3.26314e-14)
(2764.5 -2.44212e-10 2.90965e-14)
(2764.5 -2.47138e-10 2.79022e-14)
(2764.5 -2.50261e-10 3.31968e-14)
(2764.5 -2.53813e-10 3.36629e-14)
(2764.5 -2.55808e-10 3.00762e-14)
(2764.5 -2.62627e-10 2.73493e-14)
(2764.5 -2.66914e-10 2.75128e-14)
(2764.5 -2.68959e-10 3.23124e-14)
(2764.5 -2.76162e-10 3.08228e-14)
(2764.5 -2.82633e-10 3.42556e-14)
(2764.5 -2.854e-10 3.26291e-14)
(2764.5 -2.82324e-10 3.16091e-14)
(2764.5 -2.87697e-10 3.22837e-14)
(2764.5 -2.9317e-10 3.72189e-14)
(2764.5 -3.08596e-10 3.09706e-14)
(2764.5 -3.18685e-10 3.23085e-14)
(2764.5 -2.39722e-10 4.64354e-14)
(2764.5 -2.48356e-10 4.52001e-14)
(2764.5 -2.58052e-10 4.45802e-14)
(2764.5 -2.65734e-10 4.02715e-14)
(2764.5 -2.69401e-10 4.84208e-14)
(2764.5 -2.78002e-10 4.1932e-14)
(2764.5 -2.7961e-10 3.89187e-14)
(2764.5 -2.80821e-10 3.82738e-14)
(2764.5 -2.79812e-10 4.4375e-14)
(2764.5 -2.80634e-10 3.93662e-14)
(2764.5 -2.88505e-10 4.84497e-14)
(2764.5 -2.92801e-10 4.7889e-14)
(2764.5 -2.97745e-10 4.75604e-14)
(2764.5 -3.0177e-10 4.09127e-14)
(2764.5 -3.06461e-10 4.04965e-14)
(2764.5 -3.10662e-10 4.3781e-14)
(2764.5 -3.14484e-10 3.91451e-14)
(2764.5 -3.13989e-10 4.32859e-14)
(2764.5 -3.14268e-10 4.58309e-14)
(2764.5 -3.1626e-10 4.34147e-14)
(2764.5 -3.19509e-10 4.22203e-14)
(2764.5 -3.26515e-10 4.13704e-14)
(2764.5 -3.33598e-10 4.30388e-14)
(2764.5 -3.39159e-10 4.7084e-14)
(2764.5 -3.41533e-10 4.35962e-14)
(2764.5 -3.49049e-10 4.52532e-14)
(2764.5 -3.53164e-10 4.46785e-14)
(2764.5 -3.59785e-10 4.1908e-14)
(2764.5 -3.68159e-10 4.19534e-14)
(2764.5 -3.71555e-10 4.96369e-14)
(2764.5 -3.75402e-10 4.58942e-14)
(2764.5 -3.82681e-10 4.76054e-14)
(2764.5 -3.90007e-10 4.60398e-14)
(2764.5 -3.90825e-10 4.35816e-14)
(2764.5 -3.96767e-10 4.50756e-14)
(2764.5 -4.0054e-10 5.10242e-14)
(2764.5 -4.14216e-10 4.93134e-14)
(2764.5 -4.25163e-10 4.97212e-14)
(2764.5 -3.03098e-10 5.59583e-14)
(2764.5 -3.10528e-10 5.47288e-14)
(2764.5 -3.18556e-10 5.72642e-14)
(2764.5 -3.25606e-10 5.80896e-14)
(2764.5 -3.2849e-10 5.69125e-14)
(2764.5 -3.36324e-10 5.39084e-14)
(2764.5 -3.43765e-10 5.77484e-14)
(2764.5 -3.52887e-10 5.75718e-14)
(2764.5 -3.54384e-10 5.98014e-14)
(2764.5 -3.53786e-10 6.08189e-14)
(2764.5 -3.57067e-10 5.93645e-14)
(2764.5 -3.60158e-10 5.57258e-14)
(2764.5 -3.67284e-10 5.36412e-14)
(2764.5 -3.71753e-10 5.21938e-14)
(2764.5 -3.77481e-10 5.34358e-14)
(2764.5 -3.82435e-10 5.53591e-14)
(2764.5 -3.90854e-10 6.17567e-14)
(2764.5 -3.95321e-10 6.10842e-14)
(2764.5 -3.99201e-10 5.3084e-14)
(2764.5 -4.02777e-10 5.7564e-14)
(2764.5 -4.03839e-10 5.67751e-14)
(2764.5 -4.07641e-10 4.86433e-14)
(2764.5 -4.16101e-10 5.7307e-14)
(2764.5 -4.27033e-10 5.65519e-14)
(2764.5 -4.32444e-10 5.96839e-14)
(2764.5 -4.42221e-10 6.07929e-14)
(2764.5 -4.46714e-10 6.23804e-14)
(2764.5 -4.49294e-10 5.59691e-14)
(2764.5 -4.55037e-10 5.21467e-14)
(2764.5 -4.64942e-10 5.00644e-14)
(2764.5 -4.72906e-10 5.22537e-14)
(2764.5 -4.79728e-10 6.31379e-14)
(2764.5 -4.89397e-10 6.14508e-14)
(2764.5 -4.93604e-10 5.76455e-14)
(2764.5 -5.01016e-10 5.80026e-14)
(2764.5 -5.02372e-10 5.92179e-14)
(2764.5 -5.15107e-10 6.19332e-14)
(2764.5 -5.29054e-10 6.27229e-14)
(2764.5 -3.64082e-10 6.95804e-14)
(2764.5 -3.68339e-10 7.17236e-14)
(2764.5 -3.74446e-10 7.16454e-14)
(2764.5 -3.82663e-10 6.27832e-14)
(2764.5 -3.90449e-10 6.31814e-14)
(2764.5 -4.0017e-10 6.70525e-14)
(2764.5 -4.09293e-10 6.13703e-14)
(2764.5 -4.18261e-10 6.93532e-14)
(2764.5 -4.24369e-10 7.72443e-14)
(2764.5 -4.26154e-10 7.20934e-14)
(2764.5 -4.28734e-10 7.11275e-14)
(2764.5 -4.31011e-10 6.99256e-14)
(2764.5 -4.34607e-10 6.85409e-14)
(2764.5 -4.37529e-10 7.03765e-14)
(2764.5 -4.43631e-10 6.9002e-14)
(2764.5 -4.51106e-10 6.78963e-14)
(2764.5 -4.58353e-10 7.37857e-14)
(2764.5 -4.65793e-10 7.09134e-14)
(2764.5 -4.70571e-10 6.3225e-14)
(2764.5 -4.77247e-10 6.80109e-14)
(2764.5 -4.82308e-10 7.03261e-14)
(2764.5 -4.86871e-10 7.29349e-14)
(2764.5 -4.92291e-10 7.33192e-14)
(2764.5 -5.02068e-10 6.83154e-14)
(2764.5 -5.11105e-10 6.60553e-14)
(2764.5 -5.21374e-10 6.72544e-14)
(2764.5 -5.33087e-10 7.85161e-14)
(2764.5 -5.42874e-10 7.02797e-14)
(2764.5 -5.48938e-10 7.24253e-14)
(2764.5 -5.56379e-10 7.45324e-14)
(2764.5 -5.66879e-10 6.86718e-14)
(2764.5 -5.74094e-10 6.96304e-14)
(2764.5 -5.82573e-10 6.85338e-14)
(2764.5 -5.86303e-10 7.49014e-14)
(2764.5 -5.93436e-10 7.7358e-14)
(2764.5 -5.98864e-10 6.85916e-14)
(2764.5 -6.09739e-10 6.84671e-14)
(2764.5 -6.26397e-10 7.15616e-14)
(2764.5 -4.23621e-10 7.85037e-14)
(2764.5 -4.27287e-10 7.56455e-14)
(2764.5 -4.33504e-10 7.99188e-14)
(2764.5 -4.40056e-10 8.4231e-14)
(2764.5 -4.45453e-10 8.21589e-14)
(2764.5 -4.56761e-10 7.92503e-14)
(2764.5 -4.66371e-10 7.97762e-14)
(2764.5 -4.76728e-10 8.62066e-14)
(2764.5 -4.86313e-10 7.69322e-14)
(2764.5 -4.92341e-10 8.1602e-14)
(2764.5 -4.96309e-10 8.53018e-14)
(2764.5 -5.03876e-10 8.189e-14)
(2764.5 -5.11031e-10 8.16564e-14)
(2764.5 -5.16099e-10 8.02332e-14)
(2764.5 -5.17631e-10 7.68262e-14)
(2764.5 -5.23029e-10 8.19741e-14)
(2764.5 -5.28318e-10 7.93411e-14)
(2764.5 -5.36709e-10 8.38956e-14)
(2764.5 -5.4168e-10 8.04309e-14)
(2764.5 -5.50521e-10 8.35525e-14)
(2764.5 -5.55482e-10 8.34816e-14)
(2764.5 -5.60002e-10 8.23016e-14)
(2764.5 -5.67313e-10 8.08065e-14)
(2764.5 -5.7392e-10 8.35953e-14)
(2764.5 -5.84556e-10 8.22683e-14)
(2764.5 -5.93411e-10 8.3803e-14)
(2764.5 -6.02631e-10 8.98452e-14)
(2764.5 -6.13913e-10 7.93984e-14)
(2764.5 -6.26194e-10 7.66041e-14)
(2764.5 -6.35192e-10 8.11198e-14)
(2764.5 -6.44448e-10 8.19119e-14)
(2764.5 -6.52724e-10 7.98709e-14)
(2764.5 -6.62843e-10 8.22238e-14)
(2764.5 -6.68228e-10 8.54699e-14)
(2764.5 -6.78614e-10 9.02843e-14)
(2764.5 -6.8906e-10 8.64885e-14)
(2764.5 -7.01735e-10 8.45955e-14)
(2764.5 -7.18728e-10 8.67929e-14)
(2764.5 -4.86348e-10 9.42561e-14)
(2764.5 -4.86392e-10 9.36319e-14)
(2764.5 -4.91205e-10 9.2996e-14)
(2764.5 -4.98554e-10 9.69792e-14)
(2764.5 -5.0297e-10 9.88204e-14)
(2764.5 -5.11452e-10 9.11154e-14)
(2764.5 -5.1791e-10 9.14587e-14)
(2764.5 -5.29328e-10 9.40673e-14)
(2764.5 -5.44344e-10 9.68903e-14)
(2764.5 -5.54869e-10 9.6887e-14)
(2764.5 -5.61365e-10 9.06361e-14)
(2764.5 -5.68177e-10 9.39157e-14)
(2764.5 -5.75926e-10 9.06633e-14)
(2764.5 -5.83001e-10 9.49926e-14)
(2764.5 -5.89533e-10 9.16824e-14)
(2764.5 -5.94887e-10 9.6632e-14)
(2764.5 -6.00074e-10 9.87055e-14)
(2764.5 -6.09081e-10 9.70398e-14)
(2764.5 -6.15828e-10 9.42853e-14)
(2764.5 -6.25753e-10 9.83321e-14)
(2764.5 -6.32411e-10 9.06785e-14)
(2764.5 -6.35218e-10 9.84125e-14)
(2764.5 -6.40259e-10 9.30142e-14)
(2764.5 -6.4391e-10 9.2266e-14)
(2764.5 -6.51564e-10 8.85943e-14)
(2764.5 -6.61736e-10 9.55603e-14)
(2764.5 -6.721e-10 9.42459e-14)
(2764.5 -6.78567e-10 9.18349e-14)
(2764.5 -6.89626e-10 9.75913e-14)
(2764.5 -7.03405e-10 9.90297e-14)
(2764.5 -7.17795e-10 1.02332e-13)
(2764.5 -7.29665e-10 9.906e-14)
(2764.5 -7.40829e-10 1.00589e-13)
(2764.5 -7.51153e-10 9.7428e-14)
(2764.5 -7.57642e-10 9.63433e-14)
(2764.5 -7.63411e-10 1.06033e-13)
(2764.5 -7.79139e-10 9.95721e-14)
(2764.5 -7.98809e-10 9.58693e-14)
(2764.5 -5.4455e-10 1.06369e-13)
(2764.5 -5.48856e-10 1.05861e-13)
(2764.5 -5.50278e-10 1.12369e-13)
(2764.5 -5.52476e-10 1.0992e-13)
(2764.5 -5.57639e-10 1.09839e-13)
(2764.5 -5.62005e-10 1.08349e-13)
(2764.5 -5.66359e-10 1.13608e-13)
(2764.5 -5.70439e-10 1.0991e-13)
(2764.5 -5.82348e-10 1.09854e-13)
(2764.5 -6.00303e-10 1.08706e-13)
(2764.5 -6.14419e-10 1.00836e-13)
(2764.5 -6.26265e-10 1.09239e-13)
(2764.5 -6.35438e-10 1.00362e-13)
(2764.5 -6.42776e-10 1.07182e-13)
(2764.5 -6.48871e-10 1.09608e-13)
(2764.5 -6.57444e-10 1.0858e-13)
(2764.5 -6.63582e-10 1.10762e-13)
(2764.5 -6.68608e-10 1.04886e-13)
(2764.5 -6.73752e-10 1.04976e-13)
(2764.5 -6.82944e-10 1.06312e-13)
(2764.5 -6.92969e-10 1.07293e-13)
(2764.5 -6.99805e-10 1.06986e-13)
(2764.5 -7.06322e-10 1.05949e-13)
(2764.5 -7.13574e-10 1.0266e-13)
(2764.5 -7.2093e-10 1.06032e-13)
(2764.5 -7.26187e-10 1.06714e-13)
(2764.5 -7.31995e-10 1.10318e-13)
(2764.5 -7.40137e-10 1.06629e-13)
(2764.5 -7.48773e-10 1.08235e-13)
(2764.5 -7.56858e-10 1.07497e-13)
(2764.5 -7.69205e-10 1.10246e-13)
(2764.5 -7.85629e-10 1.1008e-13)
(2764.5 -8.03499e-10 1.11597e-13)
(2764.5 -8.15796e-10 1.08281e-13)
(2764.5 -8.25416e-10 1.15396e-13)
(2764.5 -8.36654e-10 1.15587e-13)
(2764.5 -8.42897e-10 1.12234e-13)
(2764.5 -8.54924e-10 1.09734e-13)
(2764.5 -8.72111e-10 1.08962e-13)
(2764.5 -6.06213e-10 1.22757e-13)
(2764.5 -6.07396e-10 1.15765e-13)
(2764.5 -6.08439e-10 1.16443e-13)
(2764.5 -6.12307e-10 1.24001e-13)
(2764.5 -6.15467e-10 1.24199e-13)
(2764.5 -6.18971e-10 1.23591e-13)
(2764.5 -6.23118e-10 1.27424e-13)
(2764.5 -6.28129e-10 1.1911e-13)
(2764.5 -6.41709e-10 1.17596e-13)
(2764.5 -6.58784e-10 1.1523e-13)
(2764.5 -6.70688e-10 1.20752e-13)
(2764.5 -6.82091e-10 1.16169e-13)
(2764.5 -6.9562e-10 1.11406e-13)
(2764.5 -7.05579e-10 1.2192e-13)
(2764.5 -7.11698e-10 1.19143e-13)
(2764.5 -7.1777e-10 1.21058e-13)
(2764.5 -7.22324e-10 1.13157e-13)
(2764.5 -7.30417e-10 1.19789e-13)
(2764.5 -7.38912e-10 1.18814e-13)
(2764.5 -7.47676e-10 1.2114e-13)
(2764.5 -7.57641e-10 1.17463e-13)
(2764.5 -7.65186e-10 1.16381e-13)
(2764.5 -7.71932e-10 1.16279e-13)
(2764.5 -7.79056e-10 1.17638e-13)
(2764.5 -7.89435e-10 1.21703e-13)
(2764.5 -7.97824e-10 1.19535e-13)
(2764.5 -8.06137e-10 1.22488e-13)
(2764.5 -8.15342e-10 1.17954e-13)
(2764.5 -8.22433e-10 1.16201e-13)
(2764.5 -8.29905e-10 1.22323e-13)
(2764.5 -8.41982e-10 1.23058e-13)
(2764.5 -8.59047e-10 1.22504e-13)
(2764.5 -8.78585e-10 1.23105e-13)
(2764.5 -8.94478e-10 1.21841e-13)
(2764.5 -9.06058e-10 1.24913e-13)
(2764.5 -9.16358e-10 1.23417e-13)
(2764.5 -9.21669e-10 1.1853e-13)
(2764.5 -9.30744e-10 1.23834e-13)
(2764.5 -9.45472e-10 1.25618e-13)
(2764.5 -6.6945e-10 1.34645e-13)
(2764.5 -6.70413e-10 1.38308e-13)
(2764.5 -6.68619e-10 1.33006e-13)
(2764.5 -6.70573e-10 1.34158e-13)
(2764.5 -6.75022e-10 1.29277e-13)
(2764.5 -6.77195e-10 1.28642e-13)
(2764.5 -6.80641e-10 1.34402e-13)
(2764.5 -6.87265e-10 1.3846e-13)
(2764.5 -7.01842e-10 1.28391e-13)
(2764.5 -7.15971e-10 1.30808e-13)
(2764.5 -7.23468e-10 1.3011e-13)
(2764.5 -7.32603e-10 1.31542e-13)
(2764.5 -7.43659e-10 1.29849e-13)
(2764.5 -7.57359e-10 1.24192e-13)
(2764.5 -7.65841e-10 1.32745e-13)
(2764.5 -7.72973e-10 1.37086e-13)
(2764.5 -7.78881e-10 1.392e-13)
(2764.5 -7.87079e-10 1.37219e-13)
(2764.5 -7.98505e-10 1.29837e-13)
(2764.5 -8.11532e-10 1.30274e-13)
(2764.5 -8.2237e-10 1.33087e-13)
(2764.5 -8.3132e-10 1.34778e-13)
(2764.5 -8.38334e-10 1.32005e-13)
(2764.5 -8.45657e-10 1.31757e-13)
(2764.5 -8.55012e-10 1.31046e-13)
(2764.5 -8.61697e-10 1.35804e-13)
(2764.5 -8.71091e-10 1.29759e-13)
(2764.5 -8.82134e-10 1.2813e-13)
(2764.5 -8.9153e-10 1.3438e-13)
(2764.5 -8.99791e-10 1.37038e-13)
(2764.5 -9.10946e-10 1.37925e-13)
(2764.5 -9.28973e-10 1.32526e-13)
(2764.5 -9.4822e-10 1.32637e-13)
(2764.5 -9.63024e-10 1.3252e-13)
(2764.5 -9.74803e-10 1.33669e-13)
(2764.5 -9.84137e-10 1.33563e-13)
(2764.5 -9.9238e-10 1.35731e-13)
(2764.5 -1.00076e-09 1.39588e-13)
(2764.5 -1.0201e-09 1.34881e-13)
(2764.5 -7.17011e-10 1.50672e-13)
(2764.5 -7.23532e-10 1.46681e-13)
(2764.5 -7.28907e-10 1.41608e-13)
(2764.5 -7.33826e-10 1.46501e-13)
(2764.5 -7.35415e-10 1.45483e-13)
(2764.5 -7.37849e-10 1.48511e-13)
(2764.5 -7.39727e-10 1.46482e-13)
(2764.5 -7.41037e-10 1.47774e-13)
(2764.5 -7.45863e-10 1.45213e-13)
(2764.5 -7.56188e-10 1.48267e-13)
(2764.5 -7.66042e-10 1.46577e-13)
(2764.5 -7.73217e-10 1.4586e-13)
(2764.5 -7.84071e-10 1.43751e-13)
(2764.5 -7.9694e-10 1.37974e-13)
(2764.5 -8.09782e-10 1.44141e-13)
(2764.5 -8.22832e-10 1.47332e-13)
(2764.5 -8.33577e-10 1.43483e-13)
(2764.5 -8.40247e-10 1.4432e-13)
(2764.5 -8.46587e-10 1.45255e-13)
(2764.5 -8.55113e-10 1.46958e-13)
(2764.5 -8.6685e-10 1.40667e-13)
(2764.5 -8.76013e-10 1.40927e-13)
(2764.5 -8.86055e-10 1.4188e-13)
(2764.5 -8.9437e-10 1.39513e-13)
(2764.5 -9.03588e-10 1.40077e-13)
(2764.5 -9.13918e-10 1.49197e-13)
(2764.5 -9.22807e-10 1.46018e-13)
(2764.5 -9.32573e-10 1.38308e-13)
(2764.5 -9.42731e-10 1.45607e-13)
(2764.5 -9.53243e-10 1.44748e-13)
(2764.5 -9.64824e-10 1.47892e-13)
(2764.5 -9.78294e-10 1.44546e-13)
(2764.5 -9.95387e-10 1.43979e-13)
(2764.5 -1.01013e-09 1.45827e-13)
(2764.5 -1.02293e-09 1.49621e-13)
(2764.5 -1.0348e-09 1.5085e-13)
(2764.5 -1.04758e-09 1.48639e-13)
(2764.5 -1.0544e-09 1.52837e-13)
(2764.5 -1.07241e-09 1.44507e-13)
(2764.5 -1.06951e-09 1.54618e-13)
(2764.5 -7.68182e-10 1.63083e-13)
(2764.5 -7.75728e-10 1.63104e-13)
(2764.5 -7.81763e-10 1.64022e-13)
(2764.5 -7.88091e-10 1.57772e-13)
(2764.5 -7.9257e-10 1.59045e-13)
(2764.5 -7.9519e-10 1.59637e-13)
(2764.5 -7.96811e-10 1.61118e-13)
(2764.5 -7.98336e-10 1.61462e-13)
(2764.5 -8.00384e-10 1.58384e-13)
(2764.5 -8.08566e-10 1.63922e-13)
(2764.5 -8.14923e-10 1.54813e-13)
(2764.5 -8.20932e-10 1.5493e-13)
(2764.5 -8.31958e-10 1.54567e-13)
(2764.5 -8.48904e-10 1.5359e-13)
(2764.5 -8.62354e-10 1.54962e-13)
(2764.5 -8.72521e-10 1.56345e-13)
(2764.5 -8.8016e-10 1.55007e-13)
(2764.5 -8.87842e-10 1.49521e-13)
(2764.5 -8.96042e-10 1.53522e-13)
(2764.5 -9.04589e-10 1.51782e-13)
(2764.5 -9.14886e-10 1.53894e-13)
(2764.5 -9.23991e-10 1.56381e-13)
(2764.5 -9.3541e-10 1.59426e-13)
(2764.5 -9.46026e-10 1.58133e-13)
(2764.5 -9.58193e-10 1.5395e-13)
(2764.5 -9.70801e-10 1.55665e-13)
(2764.5 -9.83022e-10 1.54509e-13)
(2764.5 -9.94636e-10 1.54865e-13)
(2764.5 -1.00411e-09 1.54207e-13)
(2764.5 -1.01369e-09 1.55756e-13)
(2764.5 -1.02241e-09 1.57754e-13)
(2764.5 -1.03393e-09 1.58478e-13)
(2764.5 -1.04847e-09 1.57924e-13)
(2764.5 -1.06374e-09 1.59591e-13)
(2764.5 -1.0778e-09 1.64038e-13)
(2764.5 -1.09015e-09 1.56698e-13)
(2764.5 -1.10759e-09 1.56986e-13)
(2764.5 -1.11551e-09 1.60657e-13)
(2764.5 -1.1385e-09 1.5923e-13)
(2764.5 -1.13862e-09 1.58131e-13)
(2764.5 -8.16312e-10 1.76706e-13)
(2764.5 -8.2867e-10 1.71441e-13)
(2764.5 -8.36045e-10 1.71299e-13)
(2764.5 -8.40437e-10 1.72664e-13)
(2764.5 -8.43929e-10 1.74317e-13)
(2764.5 -8.47487e-10 1.79289e-13)
(2764.5 -8.51506e-10 1.73928e-13)
(2764.5 -8.55858e-10 1.66344e-13)
(2764.5 -8.59743e-10 1.71877e-13)
(2764.5 -8.66764e-10 1.76735e-13)
(2764.5 -8.71506e-10 1.67175e-13)
(2764.5 -8.76855e-10 1.7334e-13)
(2764.5 -8.86745e-10 1.74257e-13)
(2764.5 -8.99412e-10 1.69302e-13)
(2764.5 -9.12275e-10 1.71366e-13)
(2764.5 -9.22625e-10 1.64703e-13)
(2764.5 -9.28087e-10 1.62107e-13)
(2764.5 -9.34409e-10 1.63735e-13)
(2764.5 -9.41008e-10 1.66027e-13)
(2764.5 -9.50067e-10 1.64607e-13)
(2764.5 -9.60669e-10 1.7596e-13)
(2764.5 -9.69903e-10 1.72175e-13)
(2764.5 -9.82341e-10 1.68526e-13)
(2764.5 -9.95936e-10 1.68909e-13)
(2764.5 -1.01199e-09 1.69459e-13)
(2764.5 -1.02844e-09 1.67559e-13)
(2764.5 -1.04198e-09 1.68957e-13)
(2764.5 -1.05397e-09 1.62158e-13)
(2764.5 -1.06188e-09 1.73328e-13)
(2764.5 -1.06815e-09 1.74855e-13)
(2764.5 -1.07313e-09 1.68614e-13)
(2764.5 -1.08374e-09 1.65865e-13)
(2764.5 -1.09729e-09 1.64002e-13)
(2764.5 -1.11145e-09 1.68448e-13)
(2764.5 -1.12939e-09 1.72626e-13)
(2764.5 -1.1444e-09 1.72951e-13)
(2764.5 -1.16594e-09 1.70648e-13)
(2764.5 -1.178e-09 1.69168e-13)
(2764.5 -1.20233e-09 1.75058e-13)
(2764.5 -1.21098e-09 1.81609e-13)
(2764.5 -8.5915e-10 1.89968e-13)
(2764.5 -8.71716e-10 1.90076e-13)
(2764.5 -8.81749e-10 1.91126e-13)
(2764.5 -8.89697e-10 1.85277e-13)
(2764.5 -8.93357e-10 1.83824e-13)
(2764.5 -8.9835e-10 1.88454e-13)
(2764.5 -9.05428e-10 1.91483e-13)
(2764.5 -9.13252e-10 1.81495e-13)
(2764.5 -9.1741e-10 1.80923e-13)
(2764.5 -9.23929e-10 1.87554e-13)
(2764.5 -9.29022e-10 1.80416e-13)
(2764.5 -9.33686e-10 1.87366e-13)
(2764.5 -9.43284e-10 1.84159e-13)
(2764.5 -9.54542e-10 1.77769e-13)
(2764.5 -9.64065e-10 1.81567e-13)
(2764.5 -9.7395e-10 1.81962e-13)
(2764.5 -9.80137e-10 1.75635e-13)
(2764.5 -9.86831e-10 1.78057e-13)
(2764.5 -9.9263e-10 1.80345e-13)
(2764.5 -9.98649e-10 1.8291e-13)
(2764.5 -1.00692e-09 1.86419e-13)
(2764.5 -1.01744e-09 1.79364e-13)
(2764.5 -1.03018e-09 1.83265e-13)
(2764.5 -1.04627e-09 1.86008e-13)
(2764.5 -1.06293e-09 1.78634e-13)
(2764.5 -1.08108e-09 1.85082e-13)
(2764.5 -1.09605e-09 1.79214e-13)
(2764.5 -1.10663e-09 1.78639e-13)
(2764.5 -1.11373e-09 1.83187e-13)
(2764.5 -1.12103e-09 1.7683e-13)
(2764.5 -1.12756e-09 1.80317e-13)
(2764.5 -1.137e-09 1.83221e-13)
(2764.5 -1.15288e-09 1.82886e-13)
(2764.5 -1.16623e-09 1.7643e-13)
(2764.5 -1.18126e-09 1.82561e-13)
(2764.5 -1.19679e-09 1.82711e-13)
(2764.5 -1.21668e-09 1.83298e-13)
(2764.5 -1.23106e-09 1.84836e-13)
(2764.5 -1.25635e-09 1.83423e-13)
(2764.5 -1.27217e-09 1.80023e-13)
(2764.5 -9.04646e-10 2.00862e-13)
(2764.5 -9.15457e-10 2.02084e-13)
(2764.5 -9.24189e-10 1.99978e-13)
(2764.5 -9.34154e-10 1.99774e-13)
(2764.5 -9.40351e-10 1.99036e-13)
(2764.5 -9.49078e-10 1.93584e-13)
(2764.5 -9.58849e-10 1.97063e-13)
(2764.5 -9.68466e-10 1.96631e-13)
(2764.5 -9.74079e-10 1.95905e-13)
(2764.5 -9.79434e-10 1.96485e-13)
(2764.5 -9.85705e-10 1.93751e-13)
(2764.5 -9.88051e-10 1.96639e-13)
(2764.5 -9.92533e-10 1.9152e-13)
(2764.5 -1.00134e-09 1.89644e-13)
(2764.5 -1.01156e-09 1.93394e-13)
(2764.5 -1.02144e-09 1.94175e-13)
(2764.5 -1.02972e-09 1.94227e-13)
(2764.5 -1.03803e-09 1.95231e-13)
(2764.5 -1.04626e-09 1.90802e-13)
(2764.5 -1.05387e-09 1.9192e-13)
(2764.5 -1.05946e-09 1.93092e-13)
(2764.5 -1.06507e-09 1.92369e-13)
(2764.5 -1.07553e-09 1.91745e-13)
(2764.5 -1.09224e-09 1.92413e-13)
(2764.5 -1.10813e-09 1.91391e-13)
(2764.5 -1.12661e-09 1.9013e-13)
(2764.5 -1.14459e-09 1.91553e-13)
(2764.5 -1.15633e-09 1.95049e-13)
(2764.5 -1.1644e-09 1.88777e-13)
(2764.5 -1.17415e-09 1.94491e-13)
(2764.5 -1.18227e-09 1.9178e-13)
(2764.5 -1.19088e-09 1.99765e-13)
(2764.5 -1.20611e-09 1.95497e-13)
(2764.5 -1.22208e-09 1.91441e-13)
(2764.5 -1.23559e-09 1.94373e-13)
(2764.5 -1.24899e-09 1.98807e-13)
(2764.5 -1.26649e-09 1.99451e-13)
(2764.5 -1.27783e-09 1.97575e-13)
(2764.5 -1.29993e-09 1.94615e-13)
(2764.5 -1.31428e-09 1.9878e-13)
(2764.5 -9.5182e-10 2.1423e-13)
(2764.5 -9.61837e-10 2.12157e-13)
(2764.5 -9.72274e-10 2.13317e-13)
(2764.5 -9.84376e-10 2.10135e-13)
(2764.5 -9.93127e-10 2.08405e-13)
(2764.5 -1.00043e-09 2.14798e-13)
(2764.5 -1.00819e-09 2.16548e-13)
(2764.5 -1.01648e-09 2.09146e-13)
(2764.5 -1.02106e-09 2.08914e-13)
(2764.5 -1.02553e-09 2.11523e-13)
(2764.5 -1.03286e-09 2.09384e-13)
(2764.5 -1.04083e-09 2.11487e-13)
(2764.5 -1.04939e-09 2.05941e-13)
(2764.5 -1.05687e-09 2.03135e-13)
(2764.5 -1.06373e-09 2.09266e-13)
(2764.5 -1.07117e-09 2.04914e-13)
(2764.5 -1.08004e-09 2.03113e-13)
(2764.5 -1.08712e-09 2.09435e-13)
(2764.5 -1.09339e-09 2.08985e-13)
(2764.5 -1.10304e-09 2.03707e-13)
(2764.5 -1.11211e-09 2.04608e-13)
(2764.5 -1.11755e-09 1.97868e-13)
(2764.5 -1.12298e-09 2.04135e-13)
(2764.5 -1.13592e-09 2.07603e-13)
(2764.5 -1.15331e-09 2.10095e-13)
(2764.5 -1.16923e-09 2.09843e-13)
(2764.5 -1.1875e-09 2.0393e-13)
(2764.5 -1.20461e-09 2.04971e-13)
(2764.5 -1.21975e-09 2.01733e-13)
(2764.5 -1.23123e-09 2.06736e-13)
(2764.5 -1.23927e-09 2.04842e-13)
(2764.5 -1.24385e-09 2.02422e-13)
(2764.5 -1.2547e-09 2.04692e-13)
(2764.5 -1.26886e-09 2.08224e-13)
(2764.5 -1.28275e-09 2.01764e-13)
(2764.5 -1.29531e-09 2.03916e-13)
(2764.5 -1.3142e-09 2.0608e-13)
(2764.5 -1.32429e-09 2.03613e-13)
(2764.5 -1.34522e-09 2.03607e-13)
(2764.5 -1.35509e-09 2.08133e-13)
(2764.5 -9.9341e-10 2.3193e-13)
(2764.5 -1.00497e-09 2.29343e-13)
(2764.5 -1.01862e-09 2.2712e-13)
(2764.5 -1.03063e-09 2.22645e-13)
(2764.5 -1.04208e-09 2.25417e-13)
(2764.5 -1.04957e-09 2.21264e-13)
(2764.5 -1.05491e-09 2.23518e-13)
(2764.5 -1.06107e-09 2.23111e-13)
(2764.5 -1.06626e-09 2.26702e-13)
(2764.5 -1.07391e-09 2.24454e-13)
(2764.5 -1.08211e-09 2.18921e-13)
(2764.5 -1.09166e-09 2.22359e-13)
(2764.5 -1.10227e-09 2.18723e-13)
(2764.5 -1.11161e-09 2.21246e-13)
(2764.5 -1.1192e-09 2.21451e-13)
(2764.5 -1.12616e-09 2.23632e-13)
(2764.5 -1.13585e-09 2.25009e-13)
(2764.5 -1.14677e-09 2.21273e-13)
(2764.5 -1.15224e-09 2.22974e-13)
(2764.5 -1.15702e-09 2.26512e-13)
(2764.5 -1.16596e-09 2.20395e-13)
(2764.5 -1.1754e-09 2.17232e-13)
(2764.5 -1.1811e-09 2.2022e-13)
(2764.5 -1.19093e-09 2.15387e-13)
(2764.5 -1.20828e-09 2.17705e-13)
(2764.5 -1.2242e-09 2.15281e-13)
(2764.5 -1.23922e-09 2.14665e-13)
(2764.5 -1.25064e-09 2.1814e-13)
(2764.5 -1.26465e-09 2.12636e-13)
(2764.5 -1.27959e-09 2.13364e-13)
(2764.5 -1.29285e-09 2.16898e-13)
(2764.5 -1.30033e-09 2.18815e-13)
(2764.5 -1.30926e-09 2.21872e-13)
(2764.5 -1.31923e-09 2.16923e-13)
(2764.5 -1.33169e-09 2.15291e-13)
(2764.5 -1.34005e-09 2.18639e-13)
(2764.5 -1.35516e-09 2.20232e-13)
(2764.5 -1.36395e-09 2.19291e-13)
(2764.5 -1.38601e-09 2.19479e-13)
(2764.5 -1.39627e-09 2.1976e-13)
(2764.5 -1.02804e-09 2.43025e-13)
(2764.5 -1.03244e-09 2.45329e-13)
(2764.5 -1.04188e-09 2.41018e-13)
(2764.5 -1.0556e-09 2.38957e-13)
(2764.5 -1.06802e-09 2.4213e-13)
(2764.5 -1.07999e-09 2.35409e-13)
(2764.5 -1.09085e-09 2.39986e-13)
(2764.5 -1.09863e-09 2.374e-13)
(2764.5 -1.10429e-09 2.30991e-13)
(2764.5 -1.10769e-09 2.34928e-13)
(2764.5 -1.11525e-09 2.3502e-13)
(2764.5 -1.1241e-09 2.32443e-13)
(2764.5 -1.13669e-09 2.30758e-13)
(2764.5 -1.15075e-09 2.33515e-13)
(2764.5 -1.16428e-09 2.34248e-13)
(2764.5 -1.17424e-09 2.31091e-13)
(2764.5 -1.18216e-09 2.36417e-13)
(2764.5 -1.19342e-09 2.33304e-13)
(2764.5 -1.20532e-09 2.30888e-13)
(2764.5 -1.2157e-09 2.30205e-13)
(2764.5 -1.21998e-09 2.32645e-13)
(2764.5 -1.22005e-09 2.29e-13)
(2764.5 -1.22689e-09 2.29582e-13)
(2764.5 -1.23644e-09 2.30584e-13)
(2764.5 -1.24281e-09 2.24887e-13)
(2764.5 -1.253e-09 2.32253e-13)
(2764.5 -1.26881e-09 2.32267e-13)
(2764.5 -1.28595e-09 2.29152e-13)
(2764.5 -1.2986e-09 2.29237e-13)
(2764.5 -1.31028e-09 2.31307e-13)
(2764.5 -1.32568e-09 2.35755e-13)
(2764.5 -1.34134e-09 2.25826e-13)
(2764.5 -1.35206e-09 2.28183e-13)
(2764.5 -1.36251e-09 2.36534e-13)
(2764.5 -1.37276e-09 2.28661e-13)
(2764.5 -1.38399e-09 2.29932e-13)
(2764.5 -1.39195e-09 2.33561e-13)
(2764.5 -1.40465e-09 2.35405e-13)
(2764.5 -1.4135e-09 2.29498e-13)
(2764.5 -1.43348e-09 2.32329e-13)
(2764.5 -1.44467e-09 2.30642e-13)
(2764.5 -1.0763e-09 2.58858e-13)
(2764.5 -1.07909e-09 2.62397e-13)
(2764.5 -1.08566e-09 2.5415e-13)
(2764.5 -1.09692e-09 2.50926e-13)
(2764.5 -1.11067e-09 2.5455e-13)
(2764.5 -1.12291e-09 2.49785e-13)
(2764.5 -1.13368e-09 2.47915e-13)
(2764.5 -1.14298e-09 2.45264e-13)
(2764.5 -1.15007e-09 2.48544e-13)
(2764.5 -1.15422e-09 2.51319e-13)
(2764.5 -1.16085e-09 2.48017e-13)
(2764.5 -1.16998e-09 2.45552e-13)
(2764.5 -1.18283e-09 2.46918e-13)
(2764.5 -1.19613e-09 2.48143e-13)
(2764.5 -1.20968e-09 2.44204e-13)
(2764.5 -1.22124e-09 2.44482e-13)
(2764.5 -1.23016e-09 2.47196e-13)
(2764.5 -1.24224e-09 2.46454e-13)
(2764.5 -1.25492e-09 2.45107e-13)
(2764.5 -1.26418e-09 2.44705e-13)
(2764.5 -1.27167e-09 2.42164e-13)
(2764.5 -1.27627e-09 2.46176e-13)
(2764.5 -1.27985e-09 2.44318e-13)
(2764.5 -1.2884e-09 2.32367e-13)
(2764.5 -1.29675e-09 2.40444e-13)
(2764.5 -1.30411e-09 2.47676e-13)
(2764.5 -1.31464e-09 2.3898e-13)
(2764.5 -1.33212e-09 2.39488e-13)
(2764.5 -1.34941e-09 2.38967e-13)
(2764.5 -1.363e-09 2.41086e-13)
(2764.5 -1.3769e-09 2.38235e-13)
(2764.5 -1.38988e-09 2.39569e-13)
(2764.5 -1.40274e-09 2.466e-13)
(2764.5 -1.41171e-09 2.44389e-13)
(2764.5 -1.42066e-09 2.49839e-13)
(2764.5 -1.43208e-09 2.49011e-13)
(2764.5 -1.44392e-09 2.43063e-13)
(2764.5 -1.45884e-09 2.43436e-13)
(2764.5 -1.4681e-09 2.51367e-13)
(2764.5 -1.48411e-09 2.47717e-13)
(2764.5 -1.49229e-09 2.42914e-13)
(2764.5 -1.12471e-09 2.7497e-13)
(2764.5 -1.12701e-09 2.7726e-13)
(2764.5 -1.1303e-09 2.69181e-13)
(2764.5 -1.13554e-09 2.647e-13)
(2764.5 -1.14531e-09 2.67807e-13)
(2764.5 -1.15808e-09 2.64197e-13)
(2764.5 -1.16998e-09 2.59684e-13)
(2764.5 -1.18232e-09 2.64461e-13)
(2764.5 -1.19369e-09 2.63005e-13)
(2764.5 -1.20287e-09 2.66297e-13)
(2764.5 -1.20715e-09 2.68585e-13)
(2764.5 -1.21123e-09 2.60003e-13)
(2764.5 -1.21955e-09 2.58572e-13)
(2764.5 -1.23126e-09 2.58872e-13)
(2764.5 -1.24192e-09 2.58568e-13)
(2764.5 -1.25428e-09 2.61007e-13)
(2764.5 -1.26574e-09 2.66646e-13)
(2764.5 -1.27688e-09 2.59286e-13)
(2764.5 -1.28926e-09 2.53849e-13)
(2764.5 -1.30303e-09 2.53721e-13)
(2764.5 -1.31483e-09 2.55817e-13)
(2764.5 -1.32204e-09 2.56036e-13)
(2764.5 -1.32921e-09 2.52605e-13)
(2764.5 -1.3351e-09 2.50838e-13)
(2764.5 -1.34309e-09 2.5913e-13)
(2764.5 -1.3517e-09 2.58661e-13)
(2764.5 -1.36077e-09 2.56779e-13)
(2764.5 -1.3704e-09 2.55166e-13)
(2764.5 -1.38355e-09 2.54925e-13)
(2764.5 -1.39923e-09 2.53462e-13)
(2764.5 -1.41157e-09 2.53406e-13)
(2764.5 -1.42552e-09 2.6475e-13)
(2764.5 -1.43975e-09 2.60993e-13)
(2764.5 -1.45361e-09 2.49231e-13)
(2764.5 -1.46632e-09 2.50272e-13)
(2764.5 -1.47975e-09 2.52309e-13)
(2764.5 -1.49041e-09 2.53659e-13)
(2764.5 -1.49897e-09 2.53087e-13)
(2764.5 -1.51149e-09 2.5642e-13)
(2764.5 -1.52035e-09 2.60889e-13)
(2764.5 -1.53624e-09 2.57858e-13)
(2764.5 -1.54234e-09 2.56536e-13)
(2764.5 -1.17289e-09 2.84961e-13)
(2764.5 -1.17686e-09 2.85138e-13)
(2764.5 -1.18012e-09 2.84196e-13)
(2764.5 -1.18403e-09 2.86447e-13)
(2764.5 -1.19077e-09 2.83463e-13)
(2764.5 -1.19695e-09 2.80958e-13)
(2764.5 -1.20734e-09 2.77947e-13)
(2764.5 -1.22012e-09 2.79648e-13)
(2764.5 -1.23307e-09 2.79903e-13)
(2764.5 -1.24563e-09 2.79643e-13)
(2764.5 -1.25511e-09 2.79123e-13)
(2764.5 -1.26145e-09 2.77742e-13)
(2764.5 -1.26696e-09 2.72556e-13)
(2764.5 -1.27404e-09 2.69138e-13)
(2764.5 -1.284e-09 2.7088e-13)
(2764.5 -1.29301e-09 2.67966e-13)
(2764.5 -1.30303e-09 2.72847e-13)
(2764.5 -1.31447e-09 2.68234e-13)
(2764.5 -1.32616e-09 2.633e-13)
(2764.5 -1.34005e-09 2.6311e-13)
(2764.5 -1.35386e-09 2.68883e-13)
(2764.5 -1.36521e-09 2.70261e-13)
(2764.5 -1.37276e-09 2.6721e-13)
(2764.5 -1.38035e-09 2.61062e-13)
(2764.5 -1.3894e-09 2.69327e-13)
(2764.5 -1.39854e-09 2.70088e-13)
(2764.5 -1.40873e-09 2.63815e-13)
(2764.5 -1.41682e-09 2.65785e-13)
(2764.5 -1.42785e-09 2.65991e-13)
(2764.5 -1.43957e-09 2.65005e-13)
(2764.5 -1.45268e-09 2.65604e-13)
(2764.5 -1.46552e-09 2.66501e-13)
(2764.5 -1.47717e-09 2.65984e-13)
(2764.5 -1.48932e-09 2.61758e-13)
(2764.5 -1.50211e-09 2.63287e-13)
(2764.5 -1.51304e-09 2.62715e-13)
(2764.5 -1.52548e-09 2.61996e-13)