/*--------------------------------*- C++ -*----------------------------------*\
| =========                 |                                                 |
| \\      /  F ield         | OpenFOAM: The Open Source CFD Toolbox           |
|  \\    /   O peration     | Version:  v1706                                 |
|   \\  /    A nd           | Web:      www.OpenFOAM.com                      |
|    \\/     M anipulation  |                                                 |
\*---------------------------------------------------------------------------*/
FoamFile
{
    version     2.0;
    format      ascii;
    class       volScalarField;
    location    "1.2e-05";
    object      wallHeatFlux;
}
// * * * * * * * * * * * * * * * * * * * * * * * * * * * * * * * * * * * * * //

dimensions      [1 0 -3 0 0 0 0];


internalField   uniform 0;

boundaryField
{
    cone
    {
        type            calculated;
        value           nonuniform List<scalar> 
153
(
478133
472568
467026
461506
456008
450532
445077
439644
434232
428843
423476
418133
412813
407517
402246
397000
391779
386583
381414
376272
371155
366066
361003
355968
350960
345980
341028
336104
331208
326339
321498
316684
311898
307140
302410
297706
293028
288376
283750
279148
274570
270014
265465
260919
256374
251819
247235
242444
237552
232889
228434
224156
220012
215975
212027
208155
204354
200617
196942
193326
189769
186271
182831
179451
176132
172875
169681
166554
163494
160504
157585
154739
151969
149275
146659
144122
141665
139288
136991
134774
132636
130574
128584
126665
124810
123014
121271
119575
117918
116295
114700
113130
111583
110058
108561
107097
105675
104308
103009
101793
100676
99672.2
98801.1
98074.6
97478.7
96995
96622
96342.5
96123.5
95923.4
95694
95377.2
94931.3
94315.1
93479
92379
90992.3
89314.3
87358.4
85156.7
82758.8
80228.2
77638.2
75065.9
72587.1
70270.6
68174.2
66342.9
64806.7
63584.3
62673.2
62068.5
61768.5
61768.1
62056.6
62613.1
63401.6
64381.2
65510.8
66745.5
68040.6
69355.6
70658.8
71929.5
73160
74358.6
75552.3
76782
78095.4
79549.4
81206.7
83134.1
85399
)
;
    }
    inlet
    {
        type            calculated;
        value           uniform 0;
    }
    rWedge
    {
        type            wedge;
    }
    lWedge
    {
        type            wedge;
    }
    outlet
    {
        type            calculated;
        value           nonuniform 0();
    }
    procBoundary2to0
    {
        type            processor;
        value           uniform 0;
    }
    procBoundary2to1
    {
        type            processor;
        value           uniform 0;
    }
    procBoundary2to3
    {
        type            processor;
        value           uniform 0;
    }
}


// ************************************************************************* //
