/*--------------------------------*- C++ -*----------------------------------*\
| =========                 |                                                 |
| \\      /  F ield         | OpenFOAM: The Open Source CFD Toolbox           |
|  \\    /   O peration     | Version:  v1706                                 |
|   \\  /    A nd           | Web:      www.OpenFOAM.com                      |
|    \\/     M anipulation  |                                                 |
\*---------------------------------------------------------------------------*/
FoamFile
{
    version     2.0;
    format      ascii;
    class       volVectorField;
    location    "1.8e-05";
    object      U;
}
// * * * * * * * * * * * * * * * * * * * * * * * * * * * * * * * * * * * * * //

dimensions      [0 1 -1 0 0 0 0];


internalField   nonuniform List<vector> 
29987
(
(978.58 -2.17577e-08 3.79587e-11)
(978.58 -8.57138e-09 1.42617e-11)
(978.58 -3.87819e-09 6.45535e-12)
(978.58 -2.16625e-09 3.63918e-12)
(978.58 -1.41539e-09 2.38796e-12)
(978.58 -1.01855e-09 1.71602e-12)
(978.58 -7.75774e-10 1.30381e-12)
(978.58 -6.14799e-10 1.02192e-12)
(978.58 -5.01396e-10 8.28079e-13)
(978.58 -4.17505e-10 6.90698e-13)
(978.58 -3.54804e-10 5.2267e-13)
(978.58 -3.06662e-10 4.58648e-13)
(978.58 -2.6865e-10 4.08831e-13)
(978.58 -2.38166e-10 3.49454e-13)
(978.58 -2.13325e-10 3.02067e-13)
(978.58 -1.92902e-10 2.63788e-13)
(978.58 -1.76247e-10 2.21396e-13)
(978.58 -1.62132e-10 1.9673e-13)
(978.58 -1.49775e-10 1.84847e-13)
(978.58 -1.3902e-10 1.71242e-13)
(978.58 -1.30049e-10 1.6237e-13)
(978.58 -1.22714e-10 1.38628e-13)
(978.58 -1.15866e-10 1.30866e-13)
(978.58 -1.1003e-10 1.14622e-13)
(978.58 -1.04696e-10 1.17696e-13)
(978.58 -9.93254e-11 1.11531e-13)
(978.58 -9.55459e-11 9.23716e-14)
(978.58 -9.19646e-11 8.32199e-14)
(978.58 -8.91601e-11 8.85975e-14)
(978.58 -8.5549e-11 8.14688e-14)
(978.58 -8.28803e-11 8.19092e-14)
(978.58 -8.02756e-11 7.39061e-14)
(978.58 -7.81091e-11 6.46803e-14)
(978.58 -7.59216e-11 5.90342e-14)
(978.58 -7.44167e-11 5.94487e-14)
(978.58 -7.24966e-11 5.52446e-14)
(978.58 -7.02879e-11 5.29513e-14)
(978.58 -6.94044e-11 4.44412e-14)
(978.58 -6.7741e-11 4.22893e-14)
(978.58 -6.74391e-11 4.32593e-14)
(978.58 -6.58683e-11 3.56805e-14)
(978.58 -6.44204e-11 3.94901e-14)
(978.58 -6.35319e-11 4.44238e-14)
(978.58 -6.26939e-11 3.75925e-14)
(978.58 -6.20213e-11 3.37235e-14)
(978.58 -6.18815e-11 3.27896e-14)
(978.58 -6.07224e-11 4.07396e-14)
(978.58 -6.00946e-11 2.89766e-14)
(978.58 -5.93996e-11 2.93299e-14)
(978.58 -5.91939e-11 3.27909e-14)
(978.58 -5.85653e-11 3.21298e-14)
(978.58 -5.84856e-11 2.91853e-14)
(978.58 -5.77266e-11 2.71136e-14)
(978.58 -5.78197e-11 2.2946e-14)
(978.58 -5.72089e-11 2.43218e-14)
(978.58 -5.68236e-11 2.04165e-14)
(978.58 -5.63515e-11 1.85109e-14)
(978.58 -5.64253e-11 1.96954e-14)
(978.58 -5.63834e-11 2.20414e-14)
(978.58 -5.62201e-11 2.52952e-14)
(978.58 -5.54684e-11 2.28051e-14)
(978.58 -5.59423e-11 1.3684e-14)
(978.58 -5.52307e-11 1.92925e-14)
(978.58 -5.55041e-11 2.04471e-14)
(978.58 -5.53323e-11 1.70844e-14)
(978.58 -5.47197e-11 1.51597e-14)
(978.58 -5.49877e-11 1.57212e-14)
(978.58 -5.5027e-11 1.85346e-14)
(978.58 -5.55248e-11 1.81496e-14)
(978.58 -5.50805e-11 1.58985e-14)
(978.58 -5.51432e-11 1.47369e-14)
(978.58 -5.54658e-11 1.57155e-14)
(978.58 -5.58894e-11 1.40692e-14)
(978.58 -5.57519e-11 1.49217e-14)
(978.58 -5.55922e-11 1.81459e-14)
(978.58 -5.62097e-11 1.67571e-14)
(978.58 -5.5884e-11 1.56173e-14)
(978.58 -5.62815e-11 1.61282e-14)
(978.58 -5.61196e-11 1.00215e-14)
(978.58 -5.65833e-11 7.31058e-15)
(978.58 -5.68886e-11 1.05059e-14)
(978.58 -5.69318e-11 1.04067e-14)
(978.58 -5.72308e-11 8.12286e-15)
(978.58 -5.70674e-11 1.12255e-14)
(978.58 -5.72757e-11 1.26947e-14)
(978.58 -5.75908e-11 1.15758e-14)
(978.58 -5.79203e-11 1.01703e-14)
(978.58 -5.76897e-11 1.07545e-14)
(978.58 -5.77066e-11 1.10727e-14)
(978.58 -5.79322e-11 7.87576e-15)
(978.58 -5.84464e-11 7.35567e-15)
(978.58 -5.89096e-11 7.78538e-15)
(978.58 -5.96516e-11 1.16345e-14)
(978.58 -5.93023e-11 1.25541e-14)
(978.58 -5.92904e-11 1.30925e-14)
(978.58 -5.92411e-11 1.13232e-14)
(978.58 -5.98199e-11 8.08309e-15)
(978.58 -6.02108e-11 1.05341e-14)
(978.58 -6.04695e-11 1.00725e-14)
(978.58 -6.08682e-11 7.44157e-15)
(978.58 -6.14524e-11 7.34216e-15)
(978.58 -6.20287e-11 1.27201e-14)
(978.58 -6.23517e-11 1.20027e-14)
(978.58 -6.24796e-11 8.58294e-15)
(978.58 -6.28483e-11 8.59675e-15)
(978.58 -6.34125e-11 6.7742e-15)
(978.58 -6.42127e-11 5.35102e-15)
(978.58 -6.48493e-11 5.92254e-15)
(978.58 -6.54413e-11 8.56593e-15)
(978.58 -6.57085e-11 6.43273e-15)
(978.58 -6.64172e-11 7.05819e-15)
(978.58 -6.70448e-11 7.68371e-15)
(978.58 -6.75703e-11 9.39671e-15)
(978.58 -6.84378e-11 8.23936e-15)
(978.58 -6.91299e-11 9.85421e-15)
(978.58 -6.98901e-11 7.61841e-15)
(978.58 -7.02876e-11 9.17526e-15)
(978.58 -7.09366e-11 1.11602e-14)
(978.58 -7.14672e-11 9.85787e-15)
(978.58 -7.19655e-11 5.86056e-15)
(978.58 -7.25571e-11 7.22607e-15)
(978.58 -7.31928e-11 7.93137e-15)
(978.58 -7.38696e-11 6.93125e-15)
(978.58 -7.4381e-11 8.37146e-15)
(978.58 -7.48944e-11 8.82874e-15)
(978.58 -7.53234e-11 7.99546e-15)
(978.58 -7.60921e-11 9.26573e-15)
(978.58 -7.72942e-11 7.97086e-15)
(978.58 -7.84751e-11 8.42026e-15)
(978.58 -7.88511e-11 7.57451e-15)
(978.58 -8.00594e-11 1.08591e-14)
(978.58 -8.06146e-11 1.04425e-14)
(978.58 -8.15639e-11 5.02854e-15)
(978.58 -8.21476e-11 4.57099e-15)
(978.58 -8.35167e-11 6.04248e-15)
(978.58 -8.45198e-11 4.36451e-15)
(978.58 -8.59679e-11 8.58873e-15)
(978.58 -8.69432e-11 8.40465e-15)
(978.58 -8.83331e-11 6.63865e-15)
(978.58 -8.97752e-11 5.90655e-15)
(978.58 -9.03047e-11 2.60652e-15)
(978.58 -9.06676e-11 5.11227e-15)
(978.58 -9.23393e-11 7.62236e-15)
(978.58 -9.33964e-11 6.19299e-15)
(978.58 -9.49174e-11 7.64018e-15)
(978.58 -9.568e-11 8.22691e-15)
(978.58 -9.79556e-11 7.94064e-15)
(978.58 -9.89785e-11 8.49521e-15)
(978.58 -1.00497e-10 6.74367e-15)
(978.58 -1.02447e-10 4.58928e-15)
(978.58 -1.04283e-10 4.41124e-15)
(978.58 -1.05484e-10 4.32704e-15)
(978.58 -1.06231e-10 5.19465e-15)
(978.58 -1.07704e-10 7.48933e-15)
(978.58 -1.10014e-10 6.0301e-15)
(978.58 -1.12399e-10 7.78415e-15)
(978.58 -5.20918e-08 8.6846e-11)
(978.58 -2.79327e-08 4.30734e-11)
(978.58 -1.50579e-08 2.16719e-11)
(978.58 -8.80027e-09 1.23265e-11)
(978.58 -5.64988e-09 7.85766e-12)
(978.58 -3.93455e-09 5.49072e-12)
(978.58 -2.91785e-09 4.07862e-12)
(978.58 -2.26826e-09 3.12731e-12)
(978.58 -1.82594e-09 2.50841e-12)
(978.58 -1.51017e-09 2.02218e-12)
(978.58 -1.27432e-09 1.65475e-12)
(978.58 -1.09292e-09 1.42152e-12)
(978.58 -9.52232e-10 1.20666e-12)
(978.58 -8.40252e-10 1.04514e-12)
(978.58 -7.48906e-10 9.046e-13)
(978.58 -6.74612e-10 8.16908e-13)
(978.58 -6.13046e-10 7.06577e-13)
(978.58 -5.60856e-10 6.44178e-13)
(978.58 -5.16829e-10 5.84861e-13)
(978.58 -4.78558e-10 5.32425e-13)
(978.58 -4.44673e-10 4.78124e-13)
(978.58 -4.16481e-10 4.14989e-13)
(978.58 -3.92864e-10 3.9352e-13)
(978.58 -3.7158e-10 3.61683e-13)
(978.58 -3.52074e-10 3.49125e-13)
(978.58 -3.34551e-10 3.3086e-13)
(978.58 -3.18838e-10 3.08005e-13)
(978.58 -3.05749e-10 2.85316e-13)
(978.58 -2.94343e-10 2.65616e-13)
(978.58 -2.82433e-10 2.44681e-13)
(978.58 -2.72223e-10 2.16771e-13)
(978.58 -2.6547e-10 2.11726e-13)
(978.58 -2.56835e-10 1.81247e-13)
(978.58 -2.48587e-10 1.71292e-13)
(978.58 -2.44264e-10 1.72099e-13)
(978.58 -2.37631e-10 1.64831e-13)
(978.58 -2.29831e-10 1.52857e-13)
(978.58 -2.2451e-10 1.5384e-13)
(978.58 -2.19348e-10 1.45111e-13)
(978.58 -2.15008e-10 1.2886e-13)
(978.58 -2.13546e-10 1.19895e-13)
(978.58 -2.09458e-10 1.22392e-13)
(978.58 -2.0399e-10 1.2445e-13)
(978.58 -1.99753e-10 1.09554e-13)
(978.58 -1.97544e-10 9.39196e-14)
(978.58 -1.97022e-10 1.03985e-13)
(978.58 -1.94484e-10 9.85469e-14)
(978.58 -1.91244e-10 9.06449e-14)
(978.58 -1.87742e-10 9.12815e-14)
(978.58 -1.86387e-10 9.82993e-14)
(978.58 -1.83706e-10 9.38059e-14)
(978.58 -1.83446e-10 8.19207e-14)
(978.58 -1.81675e-10 7.72129e-14)
(978.58 -1.80815e-10 6.59627e-14)
(978.58 -1.79885e-10 6.7822e-14)
(978.58 -1.78154e-10 6.54598e-14)
(978.58 -1.76711e-10 6.49209e-14)
(978.58 -1.75068e-10 6.36974e-14)
(978.58 -1.75396e-10 7.21917e-14)
(978.58 -1.74596e-10 6.9447e-14)
(978.58 -1.73831e-10 5.98627e-14)
(978.58 -1.73272e-10 5.59259e-14)
(978.58 -1.72098e-10 6.32267e-14)
(978.58 -1.70611e-10 5.50931e-14)
(978.58 -1.71602e-10 5.37708e-14)
(978.58 -1.70749e-10 5.30967e-14)
(978.58 -1.70155e-10 4.73509e-14)
(978.58 -1.70137e-10 5.10743e-14)
(978.58 -1.70286e-10 4.89708e-14)
(978.58 -1.69441e-10 4.61133e-14)
(978.58 -1.67945e-10 4.92053e-14)
(978.58 -1.69024e-10 4.95985e-14)
(978.58 -1.69233e-10 4.4543e-14)
(978.58 -1.70119e-10 4.56419e-14)
(978.58 -1.68776e-10 4.88818e-14)
(978.58 -1.70135e-10 5.03987e-14)
(978.58 -1.70676e-10 4.52936e-14)
(978.58 -1.71397e-10 4.21995e-14)
(978.58 -1.70251e-10 3.5255e-14)
(978.58 -1.6995e-10 3.45319e-14)
(978.58 -1.71321e-10 3.72597e-14)
(978.58 -1.72229e-10 3.46609e-14)
(978.58 -1.72956e-10 3.22367e-14)
(978.58 -1.72929e-10 3.73681e-14)
(978.58 -1.73975e-10 3.90952e-14)
(978.58 -1.74129e-10 3.68203e-14)
(978.58 -1.75073e-10 3.3042e-14)
(978.58 -1.75341e-10 3.61701e-14)
(978.58 -1.7611e-10 3.36409e-14)
(978.58 -1.76202e-10 3.16149e-14)
(978.58 -1.76037e-10 3.34348e-14)
(978.58 -1.76599e-10 3.07448e-14)
(978.58 -1.78707e-10 3.68805e-14)
(978.58 -1.80225e-10 3.67218e-14)
(978.58 -1.81313e-10 3.80821e-14)
(978.58 -1.80951e-10 2.96797e-14)
(978.58 -1.81637e-10 2.38184e-14)
(978.58 -1.82209e-10 2.53839e-14)
(978.58 -1.83175e-10 2.55955e-14)
(978.58 -1.84149e-10 2.55157e-14)
(978.58 -1.85031e-10 2.54925e-14)
(978.58 -1.86252e-10 2.73387e-14)
(978.58 -1.87444e-10 2.844e-14)
(978.58 -1.89002e-10 2.17023e-14)
(978.58 -1.90103e-10 2.3216e-14)
(978.58 -1.91174e-10 2.21066e-14)
(978.58 -1.92236e-10 2.21012e-14)
(978.58 -1.93289e-10 2.07878e-14)
(978.58 -1.95711e-10 1.84278e-14)
(978.58 -1.96757e-10 2.08622e-14)
(978.58 -1.98235e-10 2.2608e-14)
(978.58 -2.00171e-10 2.23616e-14)
(978.58 -2.01456e-10 2.30022e-14)
(978.58 -2.0268e-10 2.36975e-14)
(978.58 -2.0445e-10 2.58268e-14)
(978.58 -2.06854e-10 2.4981e-14)
(978.58 -2.08222e-10 2.60421e-14)
(978.58 -2.10199e-10 2.55387e-14)
(978.58 -2.12456e-10 2.13201e-14)
(978.58 -2.14384e-10 1.79147e-14)
(978.58 -2.16311e-10 2.00794e-14)
(978.58 -2.18219e-10 2.09358e-14)
(978.58 -2.20289e-10 2.15507e-14)
(978.58 -2.22541e-10 2.1926e-14)
(978.58 -2.2488e-10 2.2418e-14)
(978.58 -2.26228e-10 2.07654e-14)
(978.58 -2.27311e-10 2.04303e-14)
(978.58 -2.29352e-10 1.95975e-14)
(978.58 -2.33102e-10 2.12415e-14)
(978.58 -2.34598e-10 2.33602e-14)
(978.58 -2.36855e-10 2.48287e-14)
(978.58 -2.39692e-10 1.71622e-14)
(978.58 -2.42141e-10 1.75459e-14)
(978.58 -2.44221e-10 2.04383e-14)
(978.58 -2.47634e-10 2.01583e-14)
(978.58 -2.50415e-10 2.04036e-14)
(978.58 -2.53332e-10 2.14517e-14)
(978.58 -2.54909e-10 1.75497e-14)
(978.58 -2.57653e-10 2.12328e-14)
(978.58 -2.61608e-10 2.19042e-14)
(978.58 -2.66409e-10 1.88727e-14)
(978.58 -2.68906e-10 1.97262e-14)
(978.58 -2.72661e-10 1.83592e-14)
(978.58 -2.74937e-10 1.80939e-14)
(978.58 -2.80142e-10 1.71913e-14)
(978.58 -2.83355e-10 1.9822e-14)
(978.58 -2.86804e-10 1.93482e-14)
(978.58 -2.91372e-10 2.14014e-14)
(978.58 -2.94874e-10 2.10231e-14)
(978.58 -2.97994e-10 1.71354e-14)
(978.58 -3.01161e-10 1.60274e-14)
(978.58 -3.07954e-10 1.34252e-14)
(978.58 -3.12336e-10 1.77264e-14)
(978.58 -3.14066e-10 1.70601e-14)
(978.58 -3.18745e-10 1.69453e-14)
(978.58 -3.22725e-10 1.91955e-14)
(978.58 -7.11537e-08 1.17582e-10)
(978.58 -4.5238e-08 6.78367e-11)
(978.58 -2.73589e-08 3.74305e-11)
(978.58 -1.69425e-08 2.17517e-11)
(978.58 -1.10827e-08 1.37107e-11)
(978.58 -7.69704e-09 9.37849e-12)
(978.58 -5.64688e-09 6.92403e-12)
(978.58 -4.33827e-09 5.2986e-12)
(978.58 -3.45846e-09 4.22053e-12)
(978.58 -2.83836e-09 3.41934e-12)
(978.58 -2.38169e-09 2.84039e-12)
(978.58 -2.03489e-09 2.41949e-12)
(978.58 -1.76615e-09 2.06e-12)
(978.58 -1.55232e-09 1.77247e-12)
(978.58 -1.37996e-09 1.56127e-12)
(978.58 -1.23954e-09 1.35749e-12)
(978.58 -1.12255e-09 1.18928e-12)
(978.58 -1.02399e-09 1.07528e-12)
(978.58 -9.4026e-10 9.53738e-13)
(978.58 -8.68846e-10 8.86142e-13)
(978.58 -8.07832e-10 7.91436e-13)
(978.58 -7.55001e-10 7.12324e-13)
(978.58 -7.08942e-10 6.74215e-13)
(978.58 -6.67131e-10 6.17863e-13)
(978.58 -6.3103e-10 5.89577e-13)
(978.58 -5.99512e-10 5.44577e-13)
(978.58 -5.71534e-10 5.11437e-13)
(978.58 -5.45603e-10 4.68304e-13)
(978.58 -5.22951e-10 4.28459e-13)
(978.58 -5.01843e-10 4.00616e-13)
(978.58 -4.82326e-10 3.73675e-13)
(978.58 -4.68214e-10 3.60342e-13)
(978.58 -4.52998e-10 3.32884e-13)
(978.58 -4.38119e-10 3.23693e-13)
(978.58 -4.275e-10 3.06136e-13)
(978.58 -4.17659e-10 2.71316e-13)
(978.58 -4.04445e-10 2.58397e-13)
(978.58 -3.94197e-10 2.52542e-13)
(978.58 -3.84623e-10 2.46818e-13)
(978.58 -3.76461e-10 2.27044e-13)
(978.58 -3.70356e-10 2.20511e-13)
(978.58 -3.63054e-10 2.12039e-13)
(978.58 -3.55857e-10 2.06049e-13)
(978.58 -3.49167e-10 1.90378e-13)
(978.58 -3.43265e-10 1.80599e-13)
(978.58 -3.40075e-10 1.7644e-13)
(978.58 -3.35207e-10 1.70753e-13)
(978.58 -3.29183e-10 1.69505e-13)
(978.58 -3.25026e-10 1.6884e-13)
(978.58 -3.21478e-10 1.70403e-13)
(978.58 -3.17075e-10 1.54861e-13)
(978.58 -3.15579e-10 1.44688e-13)
(978.58 -3.11524e-10 1.34365e-13)
(978.58 -3.08294e-10 1.29871e-13)
(978.58 -3.07695e-10 1.21444e-13)
(978.58 -3.04185e-10 1.20651e-13)
(978.58 -3.02905e-10 1.14236e-13)
(978.58 -3.00152e-10 1.12633e-13)
(978.58 -2.99668e-10 1.2023e-13)
(978.58 -2.97754e-10 1.1642e-13)
(978.58 -2.9571e-10 1.09725e-13)
(978.58 -2.94405e-10 1.1041e-13)
(978.58 -2.93082e-10 9.91048e-14)
(978.58 -2.90954e-10 8.80176e-14)
(978.58 -2.90293e-10 9.71058e-14)
(978.58 -2.89627e-10 9.252e-14)
(978.58 -2.88901e-10 8.61355e-14)
(978.58 -2.88247e-10 9.01441e-14)
(978.58 -2.87624e-10 8.01042e-14)
(978.58 -2.86187e-10 7.66097e-14)
(978.58 -2.8495e-10 7.60843e-14)
(978.58 -2.84317e-10 7.63807e-14)
(978.58 -2.85613e-10 7.44995e-14)
(978.58 -2.84873e-10 7.67768e-14)
(978.58 -2.83965e-10 7.92207e-14)
(978.58 -2.85089e-10 7.46855e-14)
(978.58 -2.86692e-10 6.93533e-14)
(978.58 -2.87762e-10 7.03379e-14)
(978.58 -2.86358e-10 7.10146e-14)
(978.58 -2.85938e-10 6.81886e-14)
(978.58 -2.8769e-10 6.34215e-14)
(978.58 -2.89276e-10 6.12114e-14)
(978.58 -2.89653e-10 5.92264e-14)
(978.58 -2.90167e-10 5.85256e-14)
(978.58 -2.90762e-10 5.6469e-14)
(978.58 -2.91721e-10 5.61196e-14)
(978.58 -2.92665e-10 6.15277e-14)
(978.58 -2.93867e-10 6.18678e-14)
(978.58 -2.94259e-10 5.7745e-14)
(978.58 -2.94756e-10 5.61402e-14)
(978.58 -2.95042e-10 5.29264e-14)
(978.58 -2.96702e-10 5.51562e-14)
(978.58 -2.97777e-10 6.20459e-14)
(978.58 -2.99782e-10 6.53212e-14)
(978.58 -3.01283e-10 5.8736e-14)
(978.58 -3.0242e-10 4.72751e-14)
(978.58 -3.04474e-10 4.55569e-14)
(978.58 -3.04661e-10 4.81582e-14)
(978.58 -3.05127e-10 4.83919e-14)
(978.58 -3.06424e-10 4.71923e-14)
(978.58 -3.07581e-10 4.34454e-14)
(978.58 -3.102e-10 4.6791e-14)
(978.58 -3.12005e-10 4.30919e-14)
(978.58 -3.13334e-10 4.30464e-14)
(978.58 -3.14911e-10 4.64922e-14)
(978.58 -3.17709e-10 4.34417e-14)
(978.58 -3.19228e-10 4.05686e-14)
(978.58 -3.20535e-10 3.91265e-14)
(978.58 -3.22554e-10 4.01833e-14)
(978.58 -3.24967e-10 3.98347e-14)
(978.58 -3.27551e-10 3.54829e-14)
(978.58 -3.30067e-10 3.56303e-14)
(978.58 -3.32297e-10 3.713e-14)
(978.58 -3.34713e-10 3.87118e-14)
(978.58 -3.37758e-10 4.07554e-14)
(978.58 -3.41234e-10 4.58658e-14)
(978.58 -3.43907e-10 4.69414e-14)
(978.58 -3.46885e-10 4.34063e-14)
(978.58 -3.50063e-10 3.74639e-14)
(978.58 -3.52817e-10 3.70575e-14)
(978.58 -3.56298e-10 3.79619e-14)
(978.58 -3.59959e-10 3.74818e-14)
(978.58 -3.6308e-10 3.56772e-14)
(978.58 -3.66568e-10 3.47044e-14)
(978.58 -3.701e-10 3.62679e-14)
(978.58 -3.73586e-10 3.6495e-14)
(978.58 -3.7645e-10 3.53684e-14)
(978.58 -3.79132e-10 3.67838e-14)
(978.58 -3.82957e-10 4.163e-14)
(978.58 -3.87837e-10 3.67732e-14)
(978.58 -3.90767e-10 3.37322e-14)
(978.58 -3.95724e-10 3.72921e-14)
(978.58 -3.98028e-10 3.80781e-14)
(978.58 -4.01176e-10 3.32205e-14)
(978.58 -4.05318e-10 3.59559e-14)
(978.58 -4.09986e-10 2.95103e-14)
(978.58 -4.15324e-10 3.03239e-14)
(978.58 -4.19214e-10 3.58504e-14)
(978.58 -4.23728e-10 3.92831e-14)
(978.58 -4.28776e-10 3.25444e-14)
(978.58 -4.35005e-10 2.77423e-14)
(978.58 -4.40138e-10 2.93676e-14)
(978.58 -4.44726e-10 3.10973e-14)
(978.58 -4.49108e-10 2.95822e-14)
(978.58 -4.54838e-10 3.22464e-14)
(978.58 -4.60287e-10 2.97324e-14)
(978.58 -4.65511e-10 3.10201e-14)
(978.58 -4.72755e-10 3.31197e-14)
(978.58 -4.79116e-10 3.41526e-14)
(978.58 -4.83807e-10 3.08829e-14)
(978.58 -4.8912e-10 3.01573e-14)
(978.58 -4.96867e-10 2.99175e-14)
(978.58 -5.06096e-10 3.00192e-14)
(978.58 -5.12112e-10 2.83578e-14)
(978.58 -5.18809e-10 3.40443e-14)
(978.58 -5.24743e-10 3.24781e-14)
(978.58 -8.35627e-08 1.37753e-10)
(978.58 -5.95576e-08 8.79317e-11)
(978.58 -3.94985e-08 5.24016e-11)
(978.58 -2.59409e-08 3.15247e-11)
(978.58 -1.74928e-08 2.00614e-11)
(978.58 -1.22808e-08 1.36648e-11)
(978.58 -9.0003e-09 9.9308e-12)
(978.58 -6.8695e-09 7.5849e-12)
(978.58 -5.43342e-09 6.00811e-12)
(978.58 -4.42753e-09 4.89929e-12)
(978.58 -3.6936e-09 4.0325e-12)
(978.58 -3.14106e-09 3.41251e-12)
(978.58 -2.71538e-09 2.91393e-12)
(978.58 -2.37932e-09 2.53237e-12)
(978.58 -2.10961e-09 2.24214e-12)
(978.58 -1.88989e-09 1.94522e-12)
(978.58 -1.70756e-09 1.71233e-12)
(978.58 -1.55413e-09 1.5249e-12)
(978.58 -1.42342e-09 1.36531e-12)
(978.58 -1.31144e-09 1.25656e-12)
(978.58 -1.21625e-09 1.12856e-12)
(978.58 -1.13491e-09 1.05218e-12)
(978.58 -1.06299e-09 9.5831e-13)
(978.58 -9.99173e-10 8.90222e-13)
(978.58 -9.44018e-10 8.11935e-13)
(978.58 -8.9489e-10 7.58401e-13)
(978.58 -8.51553e-10 7.00839e-13)
(978.58 -8.11479e-10 6.55822e-13)
(978.58 -7.76152e-10 6.29047e-13)
(978.58 -7.44685e-10 5.80245e-13)
(978.58 -7.14742e-10 5.46768e-13)
(978.58 -6.88919e-10 5.10011e-13)
(978.58 -6.66546e-10 4.88709e-13)
(978.58 -6.458e-10 4.56648e-13)
(978.58 -6.28099e-10 4.26569e-13)
(978.58 -6.11179e-10 4.00341e-13)
(978.58 -5.93138e-10 3.78479e-13)
(978.58 -5.77365e-10 3.52773e-13)
(978.58 -5.62263e-10 3.40656e-13)
(978.58 -5.4965e-10 3.15919e-13)
(978.58 -5.38298e-10 3.10469e-13)
(978.58 -5.27161e-10 2.94218e-13)
(978.58 -5.17167e-10 2.84131e-13)
(978.58 -5.08454e-10 2.69165e-13)
(978.58 -4.99092e-10 2.70524e-13)
(978.58 -4.91416e-10 2.51519e-13)
(978.58 -4.85088e-10 2.44307e-13)
(978.58 -4.76052e-10 2.3628e-13)
(978.58 -4.69161e-10 2.3278e-13)
(978.58 -4.63021e-10 2.18433e-13)
(978.58 -4.57654e-10 2.05849e-13)
(978.58 -4.54187e-10 2.03034e-13)
(978.58 -4.49189e-10 1.9152e-13)
(978.58 -4.43988e-10 1.83416e-13)
(978.58 -4.40347e-10 1.75254e-13)
(978.58 -4.35685e-10 1.75968e-13)
(978.58 -4.33642e-10 1.67572e-13)
(978.58 -4.30354e-10 1.64689e-13)
(978.58 -4.27795e-10 1.67925e-13)
(978.58 -4.25581e-10 1.61285e-13)
(978.58 -4.22474e-10 1.51436e-13)
(978.58 -4.20054e-10 1.40252e-13)
(978.58 -4.18175e-10 1.35383e-13)
(978.58 -4.15782e-10 1.42423e-13)
(978.58 -4.13933e-10 1.45088e-13)
(978.58 -4.12131e-10 1.35207e-13)
(978.58 -4.10509e-10 1.29998e-13)
(978.58 -4.1005e-10 1.25295e-13)
(978.58 -4.08485e-10 1.14789e-13)
(978.58 -4.06399e-10 1.13835e-13)
(978.58 -4.05456e-10 1.15063e-13)
(978.58 -4.04583e-10 1.15472e-13)
(978.58 -4.04107e-10 1.12199e-13)
(978.58 -4.03437e-10 1.1194e-13)
(978.58 -4.02824e-10 1.07866e-13)
(978.58 -4.02174e-10 1.04487e-13)
(978.58 -4.03267e-10 1.06861e-13)
(978.58 -4.04261e-10 1.07228e-13)
(978.58 -4.03099e-10 9.83484e-14)
(978.58 -4.034e-10 9.11853e-14)
(978.58 -4.04325e-10 9.04501e-14)
(978.58 -4.07037e-10 9.58317e-14)
(978.58 -4.08072e-10 9.13117e-14)
(978.58 -4.0824e-10 9.09098e-14)
(978.58 -4.08431e-10 8.84728e-14)
(978.58 -4.09099e-10 8.81226e-14)
(978.58 -4.10241e-10 8.37422e-14)
(978.58 -4.11397e-10 7.91169e-14)
(978.58 -4.13524e-10 7.96811e-14)
(978.58 -4.14045e-10 8.28796e-14)
(978.58 -4.14401e-10 8.10778e-14)
(978.58 -4.1549e-10 8.21657e-14)
(978.58 -4.17734e-10 8.44292e-14)
(978.58 -4.19158e-10 8.44972e-14)
(978.58 -4.20597e-10 7.36329e-14)
(978.58 -4.22384e-10 7.41446e-14)
(978.58 -4.25661e-10 7.39575e-14)
(978.58 -4.2768e-10 6.85645e-14)
(978.58 -4.29105e-10 6.75381e-14)
(978.58 -4.30333e-10 6.39028e-14)
(978.58 -4.31326e-10 6.09533e-14)
(978.58 -4.3263e-10 6.10901e-14)
(978.58 -4.3557e-10 6.21804e-14)
(978.58 -4.37846e-10 6.46777e-14)
(978.58 -4.40257e-10 6.36742e-14)
(978.58 -4.43033e-10 6.19286e-14)
(978.58 -4.45723e-10 6.00328e-14)
(978.58 -4.48313e-10 5.90886e-14)
(978.58 -4.51017e-10 5.55481e-14)
(978.58 -4.52818e-10 5.14836e-14)
(978.58 -4.56108e-10 5.3355e-14)
(978.58 -4.59565e-10 5.43706e-14)
(978.58 -4.6189e-10 5.79501e-14)
(978.58 -4.65139e-10 5.77163e-14)
(978.58 -4.69045e-10 5.9907e-14)
(978.58 -4.73714e-10 5.88216e-14)
(978.58 -4.77462e-10 5.68192e-14)
(978.58 -4.8112e-10 5.22818e-14)
(978.58 -4.85656e-10 5.07299e-14)
(978.58 -4.89107e-10 5.38648e-14)
(978.58 -4.93812e-10 5.37619e-14)
(978.58 -4.97853e-10 5.05726e-14)
(978.58 -5.0251e-10 4.88917e-14)
(978.58 -5.07015e-10 5.19325e-14)
(978.58 -5.11316e-10 5.25905e-14)
(978.58 -5.15822e-10 5.20996e-14)
(978.58 -5.19623e-10 5.48304e-14)
(978.58 -5.23861e-10 5.46516e-14)
(978.58 -5.29342e-10 4.96332e-14)
(978.58 -5.36503e-10 4.8148e-14)
(978.58 -5.40255e-10 4.81353e-14)
(978.58 -5.45392e-10 5.04004e-14)
(978.58 -5.50601e-10 4.82866e-14)
(978.58 -5.55437e-10 4.76817e-14)
(978.58 -5.60352e-10 4.9458e-14)
(978.58 -5.65617e-10 4.90826e-14)
(978.58 -5.72051e-10 5.39464e-14)
(978.58 -5.77174e-10 5.14113e-14)
(978.58 -5.8384e-10 4.97935e-14)
(978.58 -5.90204e-10 4.52533e-14)
(978.58 -5.97288e-10 4.56003e-14)
(978.58 -6.04433e-10 4.50596e-14)
(978.58 -6.11686e-10 4.4372e-14)
(978.58 -6.18478e-10 4.62018e-14)
(978.58 -6.26048e-10 4.78904e-14)
(978.58 -6.32644e-10 4.871e-14)
(978.58 -6.3848e-10 4.72249e-14)
(978.58 -6.47245e-10 4.57324e-14)
(978.58 -6.55984e-10 4.28398e-14)
(978.58 -6.63672e-10 4.28717e-14)
(978.58 -6.71072e-10 4.2832e-14)
(978.58 -6.79515e-10 4.56043e-14)
(978.58 -6.90155e-10 4.35619e-14)
(978.58 -6.99839e-10 4.06304e-14)
(978.58 -7.0915e-10 4.36759e-14)
(978.58 -7.17391e-10 4.42193e-14)
(978.58 -9.21832e-08 1.51875e-10)
(978.58 -7.10952e-08 1.04315e-10)
(978.58 -5.07595e-08 6.59976e-11)
(978.58 -3.52072e-08 4.13009e-11)
(978.58 -2.45733e-08 2.67907e-11)
(978.58 -1.75683e-08 1.8303e-11)
(978.58 -1.29578e-08 1.32017e-11)
(978.58 -9.87992e-09 1.0014e-11)
(978.58 -7.77808e-09 7.89976e-12)
(978.58 -6.2993e-09 6.41925e-12)
(978.58 -5.22563e-09 5.31572e-12)
(978.58 -4.42429e-09 4.45598e-12)
(978.58 -3.80995e-09 3.79036e-12)
(978.58 -3.32767e-09 3.28469e-12)
(978.58 -2.94131e-09 2.86899e-12)
(978.58 -2.62727e-09 2.51892e-12)
(978.58 -2.36849e-09 2.23279e-12)
(978.58 -2.15187e-09 2.00669e-12)
(978.58 -1.96778e-09 1.81979e-12)
(978.58 -1.80879e-09 1.62737e-12)
(978.58 -1.67302e-09 1.48913e-12)
(978.58 -1.55747e-09 1.36946e-12)
(978.58 -1.45583e-09 1.24106e-12)
(978.58 -1.36849e-09 1.14355e-12)
(978.58 -1.28993e-09 1.05301e-12)
(978.58 -1.21973e-09 1.00025e-12)
(978.58 -1.15887e-09 9.23813e-13)
(978.58 -1.10366e-09 8.75796e-13)
(978.58 -1.05374e-09 8.22668e-13)
(978.58 -1.00921e-09 7.60181e-13)
(978.58 -9.68185e-10 7.07403e-13)
(978.58 -9.31228e-10 6.63519e-13)
(978.58 -8.98405e-10 6.14968e-13)
(978.58 -8.69196e-10 5.78403e-13)
(978.58 -8.43771e-10 5.50097e-13)
(978.58 -8.20763e-10 5.16818e-13)
(978.58 -7.95441e-10 4.92577e-13)
(978.58 -7.73211e-10 4.67833e-13)
(978.58 -7.53878e-10 4.37419e-13)
(978.58 -7.36653e-10 4.22516e-13)
(978.58 -7.18632e-10 4.11151e-13)
(978.58 -7.01485e-10 3.92573e-13)
(978.58 -6.88577e-10 3.74307e-13)
(978.58 -6.76193e-10 3.64318e-13)
(978.58 -6.64359e-10 3.48861e-13)
(978.58 -6.52522e-10 3.41176e-13)
(978.58 -6.4233e-10 3.19922e-13)
(978.58 -6.31758e-10 3.07217e-13)
(978.58 -6.218e-10 2.92069e-13)
(978.58 -6.12544e-10 2.71865e-13)
(978.58 -6.05254e-10 2.71766e-13)
(978.58 -5.98375e-10 2.60826e-13)
(978.58 -5.92562e-10 2.52185e-13)
(978.58 -5.85464e-10 2.44455e-13)
(978.58 -5.79714e-10 2.39819e-13)
(978.58 -5.73507e-10 2.28298e-13)
(978.58 -5.69466e-10 2.14293e-13)
(978.58 -5.65268e-10 2.12741e-13)
(978.58 -5.61374e-10 2.08929e-13)
(978.58 -5.57854e-10 1.94652e-13)
(978.58 -5.54011e-10 1.8888e-13)
(978.58 -5.49853e-10 1.84897e-13)
(978.58 -5.46593e-10 1.85137e-13)
(978.58 -5.44331e-10 1.87457e-13)
(978.58 -5.41217e-10 1.74864e-13)
(978.58 -5.3936e-10 1.76115e-13)
(978.58 -5.36295e-10 1.69453e-13)
(978.58 -5.34428e-10 1.56616e-13)
(978.58 -5.32819e-10 1.6359e-13)
(978.58 -5.3043e-10 1.59454e-13)
(978.58 -5.28433e-10 1.53065e-13)
(978.58 -5.27067e-10 1.5024e-13)
(978.58 -5.25675e-10 1.4489e-13)
(978.58 -5.24774e-10 1.39142e-13)
(978.58 -5.23945e-10 1.40787e-13)
(978.58 -5.23695e-10 1.38071e-13)
(978.58 -5.23811e-10 1.36067e-13)
(978.58 -5.23229e-10 1.28117e-13)
(978.58 -5.21827e-10 1.23835e-13)
(978.58 -5.22706e-10 1.25471e-13)
(978.58 -5.2289e-10 1.2989e-13)
(978.58 -5.25562e-10 1.18927e-13)
(978.58 -5.26378e-10 1.15297e-13)
(978.58 -5.26853e-10 1.14885e-13)
(978.58 -5.27747e-10 1.13162e-13)
(978.58 -5.28461e-10 1.07697e-13)
(978.58 -5.29658e-10 1.07403e-13)
(978.58 -5.30445e-10 1.09822e-13)
(978.58 -5.3221e-10 1.12093e-13)
(978.58 -5.33147e-10 1.0771e-13)
(978.58 -5.34752e-10 1.025e-13)
(978.58 -5.36229e-10 1.02696e-13)
(978.58 -5.38964e-10 1.00884e-13)
(978.58 -5.41074e-10 9.72076e-14)
(978.58 -5.4192e-10 9.49764e-14)
(978.58 -5.43225e-10 9.57839e-14)
(978.58 -5.45633e-10 8.95207e-14)
(978.58 -5.47935e-10 9.06105e-14)
(978.58 -5.50911e-10 9.04773e-14)
(978.58 -5.52937e-10 8.60927e-14)
(978.58 -5.54317e-10 8.35115e-14)
(978.58 -5.56212e-10 8.60253e-14)
(978.58 -5.59139e-10 8.56407e-14)
(978.58 -5.61279e-10 7.71724e-14)
(978.58 -5.64142e-10 7.86727e-14)
(978.58 -5.67563e-10 8.04759e-14)
(978.58 -5.70714e-10 7.9884e-14)
(978.58 -5.73966e-10 7.85688e-14)
(978.58 -5.77699e-10 7.67068e-14)
(978.58 -5.80956e-10 7.85965e-14)
(978.58 -5.84306e-10 7.7966e-14)
(978.58 -5.88267e-10 7.65551e-14)
(978.58 -5.90672e-10 7.47176e-14)
(978.58 -5.9395e-10 6.76658e-14)
(978.58 -5.97947e-10 7.0377e-14)
(978.58 -6.03823e-10 7.3564e-14)
(978.58 -6.08715e-10 7.40011e-14)
(978.58 -6.12992e-10 7.18782e-14)
(978.58 -6.18129e-10 7.40601e-14)
(978.58 -6.22842e-10 7.29606e-14)
(978.58 -6.28154e-10 6.62087e-14)
(978.58 -6.33644e-10 6.57646e-14)
(978.58 -6.39061e-10 7.14537e-14)
(978.58 -6.44151e-10 6.97e-14)
(978.58 -6.49577e-10 6.68784e-14)
(978.58 -6.5506e-10 7.09047e-14)
(978.58 -6.60249e-10 6.96478e-14)
(978.58 -6.6652e-10 6.2942e-14)
(978.58 -6.71072e-10 6.2338e-14)
(978.58 -6.78391e-10 6.0837e-14)
(978.58 -6.84525e-10 6.26786e-14)
(978.58 -6.90525e-10 6.738e-14)
(978.58 -6.9743e-10 6.36917e-14)
(978.58 -7.04095e-10 6.60554e-14)
(978.58 -7.10115e-10 6.56518e-14)
(978.58 -7.17376e-10 6.45036e-14)
(978.58 -7.24673e-10 6.41445e-14)
(978.58 -7.32078e-10 6.06665e-14)
(978.58 -7.4056e-10 6.002e-14)
(978.58 -7.48393e-10 5.73746e-14)
(978.58 -7.56237e-10 6.10112e-14)
(978.58 -7.64001e-10 5.97203e-14)
(978.58 -7.72205e-10 6.14255e-14)
(978.58 -7.8086e-10 6.17853e-14)
(978.58 -7.89462e-10 6.10885e-14)
(978.58 -7.9836e-10 6.03241e-14)
(978.58 -8.06845e-10 5.72414e-14)
(978.58 -8.16552e-10 5.39079e-14)
(978.58 -8.26333e-10 5.58374e-14)
(978.58 -8.36332e-10 5.61664e-14)
(978.58 -8.45914e-10 5.61736e-14)
(978.58 -8.54958e-10 5.91855e-14)
(978.58 -8.65855e-10 5.17193e-14)
(978.58 -8.77204e-10 5.41993e-14)
(978.58 -8.88431e-10 5.82623e-14)
(978.58 -8.99252e-10 5.71901e-14)
(978.58 -9.85207e-08 1.62701e-10)
(978.58 -8.03674e-08 1.17665e-10)
(978.58 -6.08431e-08 7.81486e-11)
(978.58 -4.42988e-08 5.09005e-11)
(978.58 -3.20127e-08 3.36808e-11)
(978.58 -2.3396e-08 2.31505e-11)
(978.58 -1.74548e-08 1.67344e-11)
(978.58 -1.33573e-08 1.25823e-11)
(978.58 -1.05019e-08 9.8242e-12)
(978.58 -8.47207e-09 7.91333e-12)
(978.58 -6.99728e-09 6.55432e-12)
(978.58 -5.89878e-09 5.50498e-12)
(978.58 -5.05828e-09 4.70723e-12)
(978.58 -4.40225e-09 4.07831e-12)
(978.58 -3.88004e-09 3.51682e-12)
(978.58 -3.45632e-09 3.09863e-12)
(978.58 -3.10777e-09 2.76969e-12)
(978.58 -2.81774e-09 2.4639e-12)
(978.58 -2.57191e-09 2.23048e-12)
(978.58 -2.36048e-09 1.99622e-12)
(978.58 -2.17984e-09 1.82071e-12)
(978.58 -2.02518e-09 1.66295e-12)
(978.58 -1.88969e-09 1.52578e-12)
(978.58 -1.77179e-09 1.38852e-12)
(978.58 -1.66864e-09 1.30279e-12)
(978.58 -1.57665e-09 1.21888e-12)
(978.58 -1.49458e-09 1.13809e-12)
(978.58 -1.42099e-09 1.06558e-12)
(978.58 -1.35473e-09 9.78051e-13)
(978.58 -1.29543e-09 9.05191e-13)
(978.58 -1.24117e-09 8.6147e-13)
(978.58 -1.19265e-09 8.0471e-13)
(978.58 -1.14999e-09 7.57287e-13)
(978.58 -1.11106e-09 7.20383e-13)
(978.58 -1.07567e-09 6.75104e-13)
(978.58 -1.04443e-09 6.26029e-13)
(978.58 -1.01297e-09 6.15073e-13)
(978.58 -9.83273e-10 5.79621e-13)
(978.58 -9.57414e-10 5.5238e-13)
(978.58 -9.33519e-10 5.31391e-13)
(978.58 -9.1124e-10 4.9247e-13)
(978.58 -8.89715e-10 4.70502e-13)
(978.58 -8.7084e-10 4.55026e-13)
(978.58 -8.53013e-10 4.41044e-13)
(978.58 -8.36832e-10 4.24088e-13)
(978.58 -8.21956e-10 4.09541e-13)
(978.58 -8.08101e-10 3.86619e-13)
(978.58 -7.93646e-10 3.75394e-13)
(978.58 -7.81747e-10 3.60893e-13)
(978.58 -7.70343e-10 3.4074e-13)
(978.58 -7.61056e-10 3.29812e-13)
(978.58 -7.50158e-10 3.1843e-13)
(978.58 -7.40625e-10 3.05099e-13)
(978.58 -7.3259e-10 2.95139e-13)
(978.58 -7.25376e-10 2.83334e-13)
(978.58 -7.17716e-10 2.72472e-13)
(978.58 -7.10704e-10 2.67799e-13)
(978.58 -7.05025e-10 2.65082e-13)
(978.58 -6.98795e-10 2.50899e-13)
(978.58 -6.93986e-10 2.42647e-13)
(978.58 -6.89839e-10 2.38347e-13)
(978.58 -6.84569e-10 2.32358e-13)
(978.58 -6.79019e-10 2.28843e-13)
(978.58 -6.75433e-10 2.20286e-13)
(978.58 -6.71506e-10 2.1925e-13)
(978.58 -6.68954e-10 2.16381e-13)
(978.58 -6.65941e-10 2.02828e-13)
(978.58 -6.62573e-10 1.97225e-13)
(978.58 -6.59685e-10 2.00664e-13)
(978.58 -6.57155e-10 1.91798e-13)
(978.58 -6.55006e-10 1.85227e-13)
(978.58 -6.52817e-10 1.81647e-13)
(978.58 -6.50895e-10 1.77377e-13)
(978.58 -6.48989e-10 1.70209e-13)
(978.58 -6.47628e-10 1.70576e-13)
(978.58 -6.471e-10 1.63217e-13)
(978.58 -6.46861e-10 1.6008e-13)
(978.58 -6.45585e-10 1.58851e-13)
(978.58 -6.44535e-10 1.67886e-13)
(978.58 -6.44701e-10 1.60071e-13)
(978.58 -6.44896e-10 1.52829e-13)
(978.58 -6.46051e-10 1.46551e-13)