/*--------------------------------*- C++ -*----------------------------------*\
| =========                 |                                                 |
| \\      /  F ield         | OpenFOAM: The Open Source CFD Toolbox           |
|  \\    /   O peration     | Version:  v1706                                 |
|   \\  /    A nd           | Web:      www.OpenFOAM.com                      |
|    \\/     M anipulation  |                                                 |
\*---------------------------------------------------------------------------*/
FoamFile
{
    version     2.0;
    format      ascii;
    class       volScalarField;
    location    "1.8e-05";
    object      wallHeatFlux;
}
// * * * * * * * * * * * * * * * * * * * * * * * * * * * * * * * * * * * * * //

dimensions      [1 0 -3 0 0 0 0];


internalField   uniform 0;

boundaryField
{
    cone
    {
        type            calculated;
        value           nonuniform List<scalar> 
147
(
10785.7
10783.2
10778.4
10772.3
10764.5
10755.8
10746.5
10736.6
10725.7
10713.8
10700.7
10686.5
10671.1
10654.6
10636.8
10617.9
10597.8
10576.5
10554
10530.4
10505.6
10479.7
10452.7
10424.5
10395.1
10364.7
10333.1
10300.4
10266.6
10231.7
10195.7
10158.6
10120.4
10081.1
10040.7
9999.29
9956.77
9913.2
9868.57
9822.89
9776.17
9728.42
9679.64
9629.84
9579.04
9527.22
9474.41
9420.62
9365.83
9310.08
9253.36
9195.69
9137.07
9077.51
9017.03
8955.62
8893.32
8830.12
8766.03
8701.07
8635.25
8568.58
8501.06
8432.73
8363.57
8293.6
8222.83
8151.28
8078.94
8005.82
7931.94
7857.31
7781.93
7705.81
7628.96
7551.39
7473.11
7394.11
7314.43
7234.06
7153.01
7071.27
6988.88
6905.83
6822.12
6737.75
6652.74
6567.1
6480.81
6393.89
6306.33
6218.15
6129.35
6039.92
5949.86
5859.18
5767.88
5675.95
5583.4
5490.21
5396.4
5301.94
5206.85
5111.12
5014.75
4917.73
4820.05
4721.73
4622.76
4523.13
4422.86
4321.93
4220.37
4118.17
4015.34
3911.9
3807.86
3703.25
3598.07
3492.37
3386.17
3279.52
3172.45
3065.03
2957.3
2849.34
2741.22
2633.02
2524.84
2416.77
2308.94
2201.47
2094.49
1988.14
1882.58
1777.97
1674.49
1572.33
1471.68
1372.74
1275.73
1180.86
1088.37
998.474
911.42
827.446
10799.1
)
;
    }
    inlet
    {
        type            calculated;
        value           uniform 0;
    }
    rWedge
    {
        type            wedge;
    }
    lWedge
    {
        type            wedge;
    }
    outlet
    {
        type            calculated;
        value           nonuniform 0();
    }
    procBoundary3to2
    {
        type            processor;
        value           uniform 0;
    }
}


// ************************************************************************* //
