/*--------------------------------*- C++ -*----------------------------------*\
| =========                 |                                                 |
| \\      /  F ield         | OpenFOAM: The Open Source CFD Toolbox           |
|  \\    /   O peration     | Version:  v1706                                 |
|   \\  /    A nd           | Web:      www.OpenFOAM.com                      |
|    \\/     M anipulation  |                                                 |
\*---------------------------------------------------------------------------*/
FoamFile
{
    version     2.0;
    format      ascii;
    class       volVectorField;
    location    "3.6e-05";
    object      U;
}
// * * * * * * * * * * * * * * * * * * * * * * * * * * * * * * * * * * * * * //

dimensions      [0 1 -1 0 0 0 0];


internalField   nonuniform List<vector> 
29987
(
(1760 -2.25029e-08 4.13998e-11)
(1760 -7.40919e-09 1.30629e-11)
(1760 -3.30967e-09 5.93653e-12)
(1760 -1.97098e-09 3.50219e-12)
(1760 -1.34182e-09 2.33555e-12)
(1760 -9.75726e-10 1.69928e-12)
(1760 -7.41464e-10 1.2941e-12)
(1760 -5.83602e-10 1.01443e-12)
(1760 -4.72782e-10 8.18663e-13)
(1760 -3.91165e-10 6.90924e-13)
(1760 -3.27088e-10 5.16955e-13)
(1760 -2.80746e-10 4.57352e-13)
(1760 -2.47029e-10 4.17697e-13)
(1760 -2.15452e-10 3.51675e-13)
(1760 -1.90459e-10 3.09234e-13)
(1760 -1.71806e-10 2.65873e-13)
(1760 -1.55268e-10 2.23065e-13)
(1760 -1.41484e-10 1.942e-13)
(1760 -1.29017e-10 1.82908e-13)
(1760 -1.1937e-10 1.72481e-13)
(1760 -1.122e-10 1.66572e-13)
(1760 -1.02354e-10 1.40857e-13)
(1760 -9.53202e-11 1.32718e-13)
(1760 -8.89796e-11 1.13601e-13)
(1760 -8.44569e-11 1.15917e-13)
(1760 -8.07803e-11 1.13936e-13)
(1760 -7.48016e-11 9.11269e-14)
(1760 -7.25742e-11 8.09091e-14)
(1760 -6.9556e-11 8.78694e-14)
(1760 -6.5443e-11 8.0267e-14)
(1760 -6.26615e-11 8.40872e-14)
(1760 -6.21619e-11 7.47366e-14)
(1760 -5.87962e-11 6.67829e-14)
(1760 -5.55039e-11 6.30152e-14)
(1760 -5.54091e-11 6.13309e-14)
(1760 -5.2536e-11 5.52211e-14)
(1760 -5.23633e-11 5.30957e-14)
(1760 -4.92471e-11 4.35669e-14)
(1760 -4.84459e-11 4.20092e-14)
(1760 -4.85565e-11 4.61038e-14)
(1760 -4.64449e-11 3.57449e-14)
(1760 -4.51817e-11 3.73151e-14)
(1760 -4.45932e-11 4.42256e-14)
(1760 -4.45145e-11 3.85443e-14)
(1760 -4.27965e-11 3.62883e-14)
(1760 -4.07896e-11 3.30312e-14)
(1760 -4.12911e-11 4.40688e-14)
(1760 -4.11426e-11 3.0189e-14)
(1760 -4.00611e-11 2.86922e-14)
(1760 -3.91481e-11 3.40171e-14)
(1760 -3.84178e-11 3.28625e-14)
(1760 -3.88057e-11 2.94569e-14)
(1760 -3.76564e-11 2.88844e-14)
(1760 -3.73167e-11 2.57226e-14)
(1760 -3.66301e-11 2.6793e-14)
(1760 -3.67377e-11 2.16984e-14)
(1760 -3.59869e-11 1.92537e-14)
(1760 -3.64041e-11 1.97257e-14)
(1760 -3.5944e-11 2.10516e-14)
(1760 -3.46523e-11 2.5205e-14)
(1760 -3.53597e-11 2.49641e-14)
(1760 -3.49407e-11 1.35335e-14)
(1760 -3.53515e-11 1.88486e-14)
(1760 -3.50472e-11 2.12954e-14)
(1760 -3.38058e-11 1.6882e-14)
(1760 -3.32207e-11 1.4834e-14)
(1760 -3.28839e-11 1.52281e-14)
(1760 -3.3826e-11 1.84464e-14)
(1760 -3.38616e-11 1.7779e-14)
(1760 -3.32144e-11 1.58316e-14)
(1760 -3.35943e-11 1.39539e-14)
(1760 -3.39084e-11 1.68281e-14)
(1760 -3.44059e-11 1.48483e-14)
(1760 -3.3145e-11 1.44239e-14)
(1760 -3.36346e-11 1.78117e-14)
(1760 -3.4199e-11 1.61494e-14)
(1760 -3.30383e-11 1.47639e-14)
(1760 -3.33293e-11 1.68295e-14)
(1760 -3.30651e-11 1.06347e-14)
(1760 -3.31125e-11 7.04173e-15)
(1760 -3.26345e-11 1.05181e-14)
(1760 -3.34238e-11 1.12301e-14)
(1760 -3.42546e-11 8.42709e-15)
(1760 -3.45593e-11 1.0624e-14)
(1760 -3.42595e-11 1.20461e-14)
(1760 -3.34682e-11 1.0646e-14)
(1760 -3.32351e-11 9.36281e-15)
(1760 -3.3548e-11 9.88981e-15)
(1760 -3.32536e-11 1.27878e-14)
(1760 -3.24884e-11 8.93692e-15)
(1760 -3.26025e-11 6.96028e-15)
(1760 -3.27286e-11 7.03632e-15)
(1760 -3.2115e-11 1.07509e-14)
(1760 -3.31544e-11 1.17642e-14)
(1760 -3.39657e-11 1.22566e-14)
(1760 -3.44869e-11 1.17566e-14)
(1760 -3.40462e-11 7.74443e-15)
(1760 -3.42178e-11 1.0899e-14)
(1760 -3.41057e-11 1.11177e-14)
(1760 -3.47722e-11 7.77085e-15)
(1760 -3.52066e-11 6.91458e-15)
(1760 -3.54787e-11 1.33581e-14)
(1760 -3.60003e-11 1.31251e-14)
(1760 -3.6558e-11 9.13545e-15)
(1760 -3.68667e-11 9.13893e-15)
(1760 -3.70836e-11 8.05052e-15)
(1760 -3.68073e-11 6.55027e-15)
(1760 -3.6018e-11 7.11458e-15)
(1760 -3.55014e-11 9.73513e-15)
(1760 -3.58581e-11 7.22916e-15)
(1760 -3.62364e-11 7.34653e-15)
(1760 -3.70374e-11 7.51442e-15)
(1760 -3.78292e-11 8.90789e-15)
(1760 -3.88285e-11 7.36478e-15)
(1760 -3.931e-11 9.95065e-15)
(1760 -3.93988e-11 7.338e-15)
(1760 -3.97852e-11 7.49918e-15)
(1760 -3.87716e-11 1.16972e-14)
(1760 -3.87564e-11 1.09054e-14)
(1760 -3.86912e-11 6.81541e-15)
(1760 -3.90175e-11 7.9001e-15)
(1760 -3.92239e-11 9.00676e-15)
(1760 -3.97377e-11 7.2613e-15)
(1760 -4.01103e-11 8.55167e-15)
(1760 -4.0612e-11 9.1195e-15)
(1760 -4.10469e-11 8.34291e-15)
(1760 -4.13586e-11 8.95481e-15)
(1760 -4.15557e-11 7.88209e-15)
(1760 -4.22164e-11 9.06321e-15)
(1760 -4.33298e-11 7.82226e-15)
(1760 -4.42955e-11 9.03756e-15)
(1760 -4.40389e-11 1.46383e-14)
(1760 -4.57262e-11 4.74227e-15)
(1760 -4.57208e-11 4.09171e-15)
(1760 -4.5702e-11 5.9481e-15)
(1760 -4.50792e-11 5.03e-15)
(1760 -4.48509e-11 7.85075e-15)
(1760 -4.70627e-11 7.60285e-15)
(1760 -4.74089e-11 4.14073e-15)
(1760 -4.78426e-11 1.12229e-14)
(1760 -4.65005e-11 1.11816e-15)
(1760 -4.65621e-11 4.67772e-15)
(1760 -4.74788e-11 6.71615e-15)
(1760 -4.83546e-11 4.98138e-15)
(1760 -4.98325e-11 8.39542e-15)
(1760 -5.10037e-11 7.61319e-15)
(1760 -5.28373e-11 9.42428e-15)
(1760 -5.16753e-11 8.27779e-15)
(1760 -5.16748e-11 7.49569e-15)
(1760 -5.19757e-11 4.61696e-15)
(1760 -5.32026e-11 3.30227e-15)
(1760 -5.54143e-11 4.35134e-15)
(1760 -5.49771e-11 3.70274e-15)
(1760 -5.3817e-11 9.60611e-15)
(1760 -5.56087e-11 5.42568e-15)
(1760 -5.70393e-11 8.14878e-15)
(1760 -6.29906e-08 1.07789e-10)
(1760 -2.70642e-08 4.37417e-11)
(1760 -1.27646e-08 1.99782e-11)
(1760 -7.20559e-09 1.14412e-11)
(1760 -4.68208e-09 7.49692e-12)
(1760 -3.33263e-09 5.35868e-12)
(1760 -2.50766e-09 4.00336e-12)
(1760 -1.96206e-09 3.09583e-12)
(1760 -1.58284e-09 2.50236e-12)
(1760 -1.30553e-09 2.02449e-12)
(1760 -1.09462e-09 1.63068e-12)
(1760 -9.3301e-10 1.42029e-12)
(1760 -8.14247e-10 1.19356e-12)
(1760 -7.14835e-10 1.0439e-12)
(1760 -6.29734e-10 8.92964e-13)
(1760 -5.6256e-10 8.1746e-13)
(1760 -5.0842e-10 7.08316e-13)
(1760 -4.61857e-10 6.43584e-13)
(1760 -4.22454e-10 5.90872e-13)
(1760 -3.93317e-10 5.32015e-13)
(1760 -3.65682e-10 4.83867e-13)
(1760 -3.34729e-10 4.14107e-13)
(1760 -3.0935e-10 3.88356e-13)
(1760 -2.91882e-10 3.53297e-13)
(1760 -2.74303e-10 3.46934e-13)
(1760 -2.61497e-10 3.33739e-13)
(1760 -2.42757e-10 3.00075e-13)
(1760 -2.33855e-10 2.76359e-13)
(1760 -2.25398e-10 2.67274e-13)
(1760 -2.11722e-10 2.50333e-13)
(1760 -2.01476e-10 2.17812e-13)
(1760 -1.95024e-10 2.14959e-13)
(1760 -1.88251e-10 1.77956e-13)
(1760 -1.79395e-10 1.67986e-13)
(1760 -1.75627e-10 1.71721e-13)
(1760 -1.68421e-10 1.70799e-13)
(1760 -1.65175e-10 1.55961e-13)
(1760 -1.58367e-10 1.54374e-13)
(1760 -1.54617e-10 1.4259e-13)
(1760 -1.49201e-10 1.29072e-13)
(1760 -1.4545e-10 1.13707e-13)
(1760 -1.40465e-10 1.1956e-13)
(1760 -1.40133e-10 1.25189e-13)
(1760 -1.39683e-10 1.1238e-13)
(1760 -1.36026e-10 9.13556e-14)
(1760 -1.30871e-10 1.0492e-13)
(1760 -1.28154e-10 1.01635e-13)
(1760 -1.26365e-10 8.80413e-14)
(1760 -1.25724e-10 8.83839e-14)
(1760 -1.23296e-10 9.58608e-14)
(1760 -1.1986e-10 9.48921e-14)
(1760 -1.21656e-10 8.10402e-14)
(1760 -1.18389e-10 7.9589e-14)
(1760 -1.16617e-10 6.6002e-14)
(1760 -1.12939e-10 6.8622e-14)
(1760 -1.12979e-10 6.40157e-14)
(1760 -1.12252e-10 6.45459e-14)
(1760 -1.11279e-10 6.36078e-14)
(1760 -1.1279e-10 7.07445e-14)
(1760 -1.08676e-10 6.99922e-14)
(1760 -1.07463e-10 5.98594e-14)
(1760 -1.05464e-10 5.01878e-14)
(1760 -1.06742e-10 6.27655e-14)
(1760 -1.07245e-10 5.65178e-14)
(1760 -1.07102e-10 5.20951e-14)
(1760 -1.04493e-10 5.21815e-14)
(1760 -1.02202e-10 4.60421e-14)
(1760 -1.02666e-10 5.00476e-14)
(1760 -1.0334e-10 4.9711e-14)
(1760 -1.02807e-10 4.64456e-14)
(1760 -1.0006e-10 4.84901e-14)
(1760 -1.00707e-10 5.02694e-14)
(1760 -1.02461e-10 4.44161e-14)
(1760 -1.01183e-10 4.34815e-14)
(1760 -1.01445e-10 4.80137e-14)
(1760 -1.02753e-10 5.02886e-14)
(1760 -1.01705e-10 4.57536e-14)
(1760 -1.0293e-10 4.36522e-14)
(1760 -1.02384e-10 3.22403e-14)
(1760 -1.01445e-10 3.07565e-14)
(1760 -9.9384e-11 3.50781e-14)
(1760 -9.98878e-11 3.35845e-14)
(1760 -1.00173e-10 3.15497e-14)
(1760 -1.00846e-10 3.74822e-14)
(1760 -1.02344e-10 4.22489e-14)
(1760 -1.03809e-10 3.95347e-14)
(1760 -1.02342e-10 3.50879e-14)
(1760 -1.03173e-10 3.9738e-14)
(1760 -1.04114e-10 3.61592e-14)
(1760 -1.03989e-10 2.81878e-14)
(1760 -1.02714e-10 3.14281e-14)
(1760 -1.04887e-10 2.70102e-14)
(1760 -1.0184e-10 3.35022e-14)
(1760 -9.97015e-11 3.53301e-14)
(1760 -1.00159e-10 3.9822e-14)
(1760 -1.02656e-10 3.17588e-14)
(1760 -1.03563e-10 2.42595e-14)
(1760 -1.03003e-10 2.62641e-14)
(1760 -1.04481e-10 2.41972e-14)
(1760 -1.04225e-10 2.53931e-14)
(1760 -1.03828e-10 2.59442e-14)
(1760 -1.03928e-10 2.79038e-14)
(1760 -1.04451e-10 2.97339e-14)
(1760 -1.04055e-10 2.10088e-14)
(1760 -1.06036e-10 2.26127e-14)
(1760 -1.07252e-10 2.18422e-14)
(1760 -1.08546e-10 2.26559e-14)
(1760 -1.1071e-10 2.11438e-14)
(1760 -1.08341e-10 1.84947e-14)
(1760 -1.08447e-10 2.05983e-14)
(1760 -1.08506e-10 2.39125e-14)
(1760 -1.07747e-10 2.32026e-14)
(1760 -1.07515e-10 2.25282e-14)
(1760 -1.099e-10 2.45658e-14)
(1760 -1.11391e-10 2.69956e-14)
(1760 -1.1286e-10 2.5474e-14)
(1760 -1.14633e-10 2.61018e-14)
(1760 -1.15714e-10 2.6314e-14)
(1760 -1.15907e-10 2.22425e-14)
(1760 -1.15988e-10 1.76231e-14)
(1760 -1.17258e-10 1.98682e-14)
(1760 -1.18656e-10 2.08401e-14)
(1760 -1.19982e-10 2.15709e-14)
(1760 -1.20707e-10 2.27591e-14)
(1760 -1.2154e-10 2.3421e-14)
(1760 -1.23063e-10 2.21e-14)
(1760 -1.24004e-10 2.19162e-14)
(1760 -1.23711e-10 2.07113e-14)
(1760 -1.24515e-10 2.0256e-14)
(1760 -1.25081e-10 2.4233e-14)
(1760 -1.26229e-10 2.38969e-14)
(1760 -1.27986e-10 1.82193e-14)
(1760 -1.30495e-10 1.79173e-14)
(1760 -1.31765e-10 1.9631e-14)
(1760 -1.36304e-10 1.83469e-14)
(1760 -1.37409e-10 2.10687e-14)
(1760 -1.36526e-10 2.43767e-14)
(1760 -1.36662e-10 1.54808e-14)
(1760 -1.39772e-10 1.91716e-14)
(1760 -1.43056e-10 2.40094e-14)
(1760 -1.47415e-10 1.63075e-14)
(1760 -1.44468e-10 2.18403e-14)
(1760 -1.45336e-10 1.9402e-14)
(1760 -1.46261e-10 1.94086e-14)
(1760 -1.47973e-10 1.76095e-14)
(1760 -1.47461e-10 2.20706e-14)
(1760 -1.50857e-10 2.11069e-14)
(1760 -1.54126e-10 2.206e-14)
(1760 -1.57811e-10 2.33586e-14)
(1760 -1.58091e-10 1.84639e-14)
(1760 -1.56087e-10 1.68244e-14)
(1760 -1.60134e-10 1.22865e-14)
(1760 -1.66347e-10 1.56774e-14)
(1760 -1.67597e-10 1.92149e-14)
(1760 -1.68843e-10 1.70183e-14)
(1760 -1.68788e-10 1.98234e-14)
(1760 -9.30511e-08 1.56651e-10)
(1760 -4.7393e-08 7.42228e-11)
(1760 -2.41424e-08 3.58139e-11)
(1760 -1.36828e-08 2.00846e-11)
(1760 -8.72984e-09 1.28114e-11)
(1760 -6.10344e-09 8.96944e-12)
(1760 -4.54505e-09 6.73462e-12)
(1760 -3.53448e-09 5.1834e-12)
(1760 -2.83949e-09 4.1696e-12)
(1760 -2.34229e-09 3.3686e-12)
(1760 -1.9622e-09 2.80304e-12)
(1760 -1.6691e-09 2.40601e-12)
(1760 -1.44805e-09 2.03999e-12)
(1760 -1.26768e-09 1.75974e-12)
(1760 -1.11975e-09 1.55822e-12)
(1760 -9.97907e-10 1.36634e-12)
(1760 -8.99266e-10 1.18019e-12)
(1760 -8.16894e-10 1.0725e-12)
(1760 -7.48132e-10 9.52987e-13)
(1760 -6.92487e-10 8.91676e-13)
(1760 -6.43343e-10 7.94334e-13)
(1760 -5.92359e-10 7.0045e-13)
(1760 -5.44629e-10 6.71705e-13)
(1760 -5.14418e-10 6.10832e-13)
(1760 -4.83028e-10 5.93374e-13)
(1760 -4.58279e-10 5.47488e-13)
(1760 -4.29997e-10 5.20926e-13)
(1760 -4.06673e-10 4.71679e-13)
(1760 -3.93388e-10 4.29114e-13)
(1760 -3.7227e-10 4.05798e-13)
(1760 -3.53095e-10 3.69126e-13)
(1760 -3.39172e-10 3.61346e-13)
(1760 -3.25314e-10 3.22184e-13)
(1760 -3.12457e-10 3.15863e-13)
(1760 -3.06471e-10 3.07831e-13)
(1760 -2.93306e-10 2.72245e-13)
(1760 -2.84725e-10 2.5671e-13)
(1760 -2.75822e-10 2.57251e-13)
(1760 -2.69547e-10 2.53708e-13)
(1760 -2.58249e-10 2.25869e-13)
(1760 -2.50791e-10 2.16825e-13)
(1760 -2.44665e-10 2.09087e-13)
(1760 -2.39485e-10 2.07247e-13)
(1760 -2.38406e-10 1.90393e-13)
(1760 -2.34433e-10 1.74402e-13)
(1760 -2.24878e-10 1.74215e-13)
(1760 -2.18301e-10 1.69897e-13)
(1760 -2.17454e-10 1.67295e-13)
(1760 -2.1379e-10 1.63765e-13)
(1760 -2.10569e-10 1.70811e-13)
(1760 -2.07161e-10 1.5539e-13)
(1760 -2.07209e-10 1.44819e-13)
(1760 -2.03647e-10 1.35433e-13)
(1760 -2.00098e-10 1.29665e-13)
(1760 -1.94824e-10 1.22065e-13)
(1760 -1.93568e-10 1.20772e-13)
(1760 -1.90776e-10 1.13373e-13)
(1760 -1.88251e-10 1.10341e-13)
(1760 -1.91067e-10 1.2087e-13)
(1760 -1.86758e-10 1.15725e-13)
(1760 -1.82909e-10 1.08184e-13)
(1760 -1.80257e-10 1.11062e-13)
(1760 -1.80372e-10 1.02234e-13)
(1760 -1.81856e-10 8.34565e-14)
(1760 -1.80783e-10 9.33229e-14)
(1760 -1.79819e-10 8.94796e-14)
(1760 -1.74783e-10 8.16249e-14)
(1760 -1.72117e-10 8.94145e-14)
(1760 -1.71505e-10 8.06824e-14)
(1760 -1.72264e-10 7.62241e-14)
(1760 -1.7079e-10 7.59179e-14)
(1760 -1.70004e-10 7.97966e-14)
(1760 -1.71368e-10 7.39522e-14)
(1760 -1.70032e-10 7.59662e-14)
(1760 -1.69715e-10 7.91516e-14)
(1760 -1.71688e-10 7.74733e-14)
(1760 -1.70644e-10 6.83326e-14)
(1760 -1.70036e-10 6.88863e-14)
(1760 -1.71706e-10 6.94851e-14)
(1760 -1.69911e-10 6.63805e-14)
(1760 -1.6721e-10 6.25054e-14)
(1760 -1.66947e-10 5.82832e-14)
(1760 -1.68021e-10 5.59655e-14)
(1760 -1.68102e-10 5.51816e-14)
(1760 -1.68107e-10 5.4712e-14)
(1760 -1.70124e-10 5.43525e-14)
(1760 -1.72061e-10 6.15459e-14)
(1760 -1.72184e-10 6.48515e-14)
(1760 -1.7258e-10 5.7749e-14)
(1760 -1.72818e-10 5.55225e-14)
(1760 -1.7216e-10 5.20101e-14)
(1760 -1.75267e-10 5.17723e-14)
(1760 -1.7339e-10 5.87721e-14)
(1760 -1.70556e-10 6.38e-14)
(1760 -1.69503e-10 6.15069e-14)
(1760 -1.70991e-10 4.65374e-14)
(1760 -1.72455e-10 4.23703e-14)
(1760 -1.70812e-10 4.63784e-14)
(1760 -1.72988e-10 4.73503e-14)
(1760 -1.73577e-10 4.69448e-14)
(1760 -1.74445e-10 4.15745e-14)
(1760 -1.74755e-10 4.70064e-14)
(1760 -1.75686e-10 4.49133e-14)
(1760 -1.75313e-10 4.21074e-14)
(1760 -1.76645e-10 4.75739e-14)
(1760 -1.79396e-10 4.36837e-14)
(1760 -1.80342e-10 4.03143e-14)
(1760 -1.82767e-10 3.69803e-14)
(1760 -1.83148e-10 3.86516e-14)
(1760 -1.83111e-10 4.09139e-14)
(1760 -1.8353e-10 3.58427e-14)
(1760 -1.82629e-10 3.50534e-14)
(1760 -1.81658e-10 3.61592e-14)
(1760 -1.8208e-10 3.87225e-14)
(1760 -1.84149e-10 3.96052e-14)
(1760 -1.867e-10 4.61672e-14)
(1760 -1.88923e-10 4.78425e-14)
(1760 -1.92444e-10 4.66185e-14)
(1760 -1.92657e-10 3.93897e-14)
(1760 -1.9155e-10 3.80811e-14)
(1760 -1.92101e-10 3.87957e-14)
(1760 -1.94791e-10 3.82264e-14)
(1760 -1.97221e-10 3.6392e-14)
(1760 -2.00258e-10 3.41812e-14)
(1760 -2.01734e-10 3.57309e-14)
(1760 -2.02797e-10 3.67556e-14)
(1760 -2.04279e-10 3.59388e-14)
(1760 -2.05295e-10 3.65704e-14)
(1760 -2.06205e-10 4.04561e-14)
(1760 -2.06951e-10 3.85333e-14)
(1760 -2.08331e-10 3.45336e-14)
(1760 -2.09863e-10 3.73038e-14)
(1760 -2.11654e-10 3.85785e-14)
(1760 -2.14592e-10 3.46577e-14)
(1760 -2.1762e-10 3.63285e-14)
(1760 -2.23297e-10 3.10904e-14)
(1760 -2.25308e-10 2.46268e-14)
(1760 -2.23631e-10 3.42676e-14)
(1760 -2.26944e-10 3.73251e-14)
(1760 -2.28906e-10 3.44017e-14)
(1760 -2.35398e-10 2.84862e-14)
(1760 -2.38686e-10 2.75762e-14)
(1760 -2.39851e-10 3.19933e-14)
(1760 -2.41167e-10 2.92862e-14)
(1760 -2.45139e-10 3.4339e-14)
(1760 -2.47125e-10 2.95865e-14)
(1760 -2.48048e-10 3.11305e-14)
(1760 -2.52106e-10 3.3946e-14)
(1760 -2.5559e-10 3.65282e-14)
(1760 -2.58512e-10 3.28527e-14)
(1760 -2.60382e-10 3.26857e-14)
(1760 -2.58232e-10 3.05957e-14)
(1760 -2.63055e-10 3.14262e-14)
(1760 -2.68949e-10 2.82767e-14)
(1760 -2.72867e-10 3.29133e-14)
(1760 -2.7805e-10 3.28988e-14)
(1760 -1.14837e-07 1.92253e-10)
(1760 -6.65015e-08 1.02155e-10)
(1760 -3.66222e-08 5.24264e-11)
(1760 -2.12839e-08 2.93718e-11)
(1760 -1.35266e-08 1.85002e-11)
(1760 -9.3433e-09 1.28088e-11)
(1760 -6.8887e-09 9.5032e-12)
(1760 -5.32201e-09 7.36019e-12)
(1760 -4.25397e-09 5.87595e-12)
(1760 -3.49695e-09 4.81303e-12)
(1760 -2.92958e-09 3.94474e-12)
(1760 -2.49165e-09 3.37408e-12)
(1760 -2.15301e-09 2.8949e-12)
(1760 -1.87941e-09 2.50972e-12)
(1760 -1.65942e-09 2.25147e-12)
(1760 -1.47768e-09 1.93834e-12)
(1760 -1.32986e-09 1.69632e-12)
(1760 -1.20899e-09 1.50924e-12)
(1760 -1.10411e-09 1.34204e-12)
(1760 -1.01834e-09 1.26128e-12)
(1760 -9.43478e-10 1.11892e-12)
(1760 -8.72924e-10 1.04102e-12)
(1760 -8.05815e-10 9.55099e-13)
(1760 -7.53406e-10 8.82207e-13)
(1760 -7.08286e-10 8.09981e-13)
(1760 -6.70923e-10 7.49582e-13)
(1760 -6.32927e-10 6.98664e-13)
(1760 -5.95407e-10 6.47054e-13)
(1760 -5.70381e-10 6.21788e-13)
(1760 -5.4512e-10 5.7324e-13)
(1760 -5.17448e-10 5.38356e-13)
(1760 -4.95248e-10 5.06946e-13)
(1760 -4.72369e-10 4.9269e-13)
(1760 -4.56454e-10 4.57591e-13)
(1760 -4.42939e-10 4.29279e-13)
(1760 -4.26533e-10 3.99196e-13)
(1760 -4.11392e-10 3.80425e-13)
(1760 -4.00948e-10 3.48178e-13)
(1760 -3.89394e-10 3.47824e-13)
(1760 -3.75504e-10 3.16049e-13)
(1760 -3.63471e-10 3.09416e-13)
(1760 -3.55551e-10 2.90562e-13)
(1760 -3.47164e-10 2.8444e-13)
(1760 -3.41593e-10 2.66536e-13)
(1760 -3.35951e-10 2.70593e-13)
(1760 -3.2669e-10 2.45347e-13)
(1760 -3.19138e-10 2.43485e-13)
(1760 -3.11961e-10 2.35454e-13)
(1760 -3.0618e-10 2.35324e-13)
(1760 -3.00181e-10 2.24367e-13)
(1760 -2.96557e-10 2.07399e-13)
(1760 -2.93821e-10 2.03444e-13)
(1760 -2.90107e-10 1.9329e-13)
(1760 -2.85843e-10 1.86883e-13)
(1760 -2.79271e-10 1.73083e-13)
(1760 -2.77155e-10 1.76e-13)
(1760 -2.74051e-10 1.6767e-13)
(1760 -2.70767e-10 1.62923e-13)
(1760 -2.70317e-10 1.69817e-13)
(1760 -2.67571e-10 1.63891e-13)
(1760 -2.62404e-10 1.5103e-13)
(1760 -2.58966e-10 1.39935e-13)
(1760 -2.56081e-10 1.32714e-13)
(1760 -2.56913e-10 1.3544e-13)
(1760 -2.55734e-10 1.45733e-13)
(1760 -2.55905e-10 1.33684e-13)
(1760 -2.5132e-10 1.26455e-13)
(1760 -2.46358e-10 1.28117e-13)
(1760 -2.43474e-10 1.12518e-13)
(1760 -2.42903e-10 1.0958e-13)
(1760 -2.4329e-10 1.1029e-13)
(1760 -2.40723e-10 1.16187e-13)
(1760 -2.4071e-10 1.11627e-13)
(1760 -2.39533e-10 1.11992e-13)
(1760 -2.40527e-10 1.06866e-13)
(1760 -2.41543e-10 1.03369e-13)
(1760 -2.41778e-10 1.06661e-13)
(1760 -2.4147e-10 1.08485e-13)
(1760 -2.43218e-10 1.00295e-13)
(1760 -2.40427e-10 9.28254e-14)
(1760 -2.37161e-10 8.70984e-14)
(1760 -2.35622e-10 9.45172e-14)
(1760 -2.36098e-10 8.76204e-14)
(1760 -2.3618e-10 8.91602e-14)
(1760 -2.35065e-10 8.61323e-14)
(1760 -2.37014e-10 8.7722e-14)
(1760 -2.38805e-10 8.56925e-14)
(1760 -2.39896e-10 8.15338e-14)
(1760 -2.42778e-10 7.79232e-14)
(1760 -2.43591e-10 8.12683e-14)
(1760 -2.43001e-10 8.0305e-14)
(1760 -2.43717e-10 8.02456e-14)
(1760 -2.42808e-10 8.25188e-14)
(1760 -2.40676e-10 8.57017e-14)
(1760 -2.3936e-10 7.40072e-14)
(1760 -2.39673e-10 7.2955e-14)
(1760 -2.41282e-10 7.54471e-14)
(1760 -2.41892e-10 6.88181e-14)
(1760 -2.42346e-10 6.67123e-14)
(1760 -2.42035e-10 6.36663e-14)
(1760 -2.42292e-10 5.91678e-14)
(1760 -2.44194e-10 5.94723e-14)
(1760 -2.47005e-10 6.12018e-14)
(1760 -2.46401e-10 6.5416e-14)
(1760 -2.45471e-10 6.41978e-14)
(1760 -2.4854e-10 6.2593e-14)
(1760 -2.52946e-10 6.02893e-14)
(1760 -2.56449e-10 5.93569e-14)
(1760 -2.5746e-10 5.57196e-14)
(1760 -2.58747e-10 5.04102e-14)
(1760 -2.57567e-10 5.21291e-14)
(1760 -2.56926e-10 5.20774e-14)
(1760 -2.56884e-10 5.79299e-14)
(1760 -2.56494e-10 5.81576e-14)
(1760 -2.57776e-10 6.1365e-14)
(1760 -2.60929e-10 6.03595e-14)
(1760 -2.63462e-10 5.96288e-14)
(1760 -2.67007e-10 5.44317e-14)
(1760 -2.69594e-10 5.06294e-14)
(1760 -2.70047e-10 5.32943e-14)
(1760 -2.68861e-10 5.39314e-14)
(1760 -2.69813e-10 5.08692e-14)
(1760 -2.71082e-10 4.74761e-14)
(1760 -2.73715e-10 5.09933e-14)
(1760 -2.78301e-10 5.23298e-14)
(1760 -2.80852e-10 5.12375e-14)
(1760 -2.83763e-10 5.52788e-14)
(1760 -2.86433e-10 5.58463e-14)
(1760 -2.88065e-10 5.07543e-14)
(1760 -2.89497e-10 4.9556e-14)
(1760 -2.90714e-10 4.96362e-14)
(1760 -2.92238e-10 5.07963e-14)
(1760 -2.93132e-10 4.86618e-14)
(1760 -2.95959e-10 4.86057e-14)
(1760 -2.99534e-10 4.93089e-14)
(1760 -3.0254e-10 4.7603e-14)
(1760 -3.07037e-10 5.20057e-14)
(1760 -3.10483e-10 5.1229e-14)
(1760 -3.13261e-10 5.28649e-14)
(1760 -3.14807e-10 4.49615e-14)
(1760 -3.17721e-10 4.47804e-14)
(1760 -3.229e-10 4.52893e-14)
(1760 -3.26632e-10 4.34881e-14)
(1760 -3.29455e-10 4.44574e-14)
(1760 -3.35406e-10 4.80211e-14)
(1760 -3.39289e-10 4.9879e-14)
(1760 -3.40189e-10 4.92709e-14)
(1760 -3.44024e-10 4.79372e-14)
(1760 -3.49432e-10 4.4443e-14)
(1760 -3.54655e-10 4.48328e-14)
(1760 -3.60652e-10 4.42531e-14)
(1760 -3.62893e-10 4.74272e-14)
(1760 -3.65558e-10 4.88232e-14)
(1760 -3.70526e-10 4.11444e-14)
(1760 -3.74436e-10 4.28141e-14)
(1760 -3.79099e-10 4.26571e-14)
(1760 -1.31026e-07 2.1877e-10)
(1760 -8.36454e-08 1.27309e-10)
(1760 -4.94888e-08 6.90882e-11)
(1760 -2.97617e-08 3.92703e-11)
(1760 -1.9053e-08 2.46856e-11)
(1760 -1.30888e-08 1.69611e-11)
(1760 -9.56536e-09 1.24387e-11)
(1760 -7.33956e-09 9.6049e-12)
(1760 -5.8402e-09 7.67822e-12)
(1760 -4.77969e-09 6.29481e-12)
(1760 -3.99776e-09 5.19704e-12)
(1760 -3.39773e-09 4.38367e-12)
(1760 -2.92851e-09 3.73041e-12)
(1760 -2.55363e-09 3.24784e-12)
(1760 -2.25044e-09 2.87076e-12)
(1760 -2.00406e-09 2.51745e-12)
(1760 -1.80151e-09 2.21018e-12)
(1760 -1.63512e-09 1.99403e-12)
(1760 -1.49339e-09 1.81046e-12)
(1760 -1.37106e-09 1.62456e-12)
(1760 -1.26787e-09 1.48621e-12)
(1760 -1.17455e-09 1.36205e-12)
(1760 -1.08829e-09 1.22828e-12)
(1760 -1.0147e-09 1.14454e-12)
(1760 -9.54291e-10 1.04418e-12)
(1760 -8.98434e-10 1.00065e-12)
(1760 -8.4743e-10 9.18053e-13)
(1760 -7.98529e-10 8.72691e-13)
(1760 -7.60509e-10 8.26619e-13)
(1760 -7.28353e-10 7.59529e-13)
(1760 -6.94243e-10 7.03218e-13)
(1760 -6.62759e-10 6.68564e-13)
(1760 -6.31907e-10 6.1404e-13)
(1760 -6.0801e-10 5.73807e-13)
(1760 -5.89516e-10 5.52322e-13)
(1760 -5.67644e-10 5.26387e-13)
(1760 -5.46784e-10 4.95318e-13)
(1760 -5.31115e-10 4.69062e-13)
(1760 -5.14559e-10 4.34216e-13)
(1760 -4.99331e-10 4.15509e-13)
(1760 -4.83159e-10 4.12274e-13)
(1760 -4.70003e-10 3.95907e-13)
(1760 -4.58275e-10 3.75285e-13)
(1760 -4.50244e-10 3.62782e-13)
(1760 -4.43327e-10 3.48148e-13)
(1760 -4.31996e-10 3.3524e-13)
(1760 -4.22934e-10 3.13446e-13)
(1760 -4.13449e-10 3.02884e-13)
(1760 -4.03015e-10 2.90246e-13)
(1760 -3.96884e-10 2.70073e-13)
(1760 -3.90355e-10 2.72483e-13)
(1760 -3.84095e-10 2.6156e-13)
(1760 -3.81255e-10 2.54808e-13)
(1760 -3.75387e-10 2.45406e-13)
(1760 -3.66895e-10 2.41564e-13)
(1760 -3.62337e-10 2.33306e-13)
(1760 -3.60476e-10 2.13088e-13)
(1760 -3.55359e-10 2.09535e-13)
(1760 -3.52094e-10 2.12931e-13)
(1760 -3.50577e-10 1.93266e-13)
(1760 -3.44629e-10 1.85606e-13)
(1760 -3.39417e-10 1.80208e-13)
(1760 -3.36191e-10 1.83792e-13)
(1760 -3.35828e-10 1.90686e-13)
(1760 -3.34703e-10 1.74558e-13)
(1760 -3.32366e-10 1.75527e-13)
(1760 -3.28406e-10 1.69994e-13)
(1760 -3.22344e-10 1.56155e-13)
(1760 -3.18764e-10 1.62494e-13)
(1760 -3.17134e-10 1.58603e-13)
(1760 -3.16802e-10 1.50589e-13)
(1760 -3.15049e-10 1.49862e-13)
(1760 -3.13943e-10 1.44779e-13)
(1760 -3.09234e-10 1.39661e-13)
(1760 -3.10853e-10 1.41257e-13)
(1760 -3.11722e-10 1.39717e-13)
(1760 -3.1061e-10 1.39503e-13)
(1760 -3.10991e-10 1.30082e-13)
(1760 -3.14099e-10 1.21215e-13)
(1760 -3.12382e-10 1.23378e-13)
(1760 -3.09638e-10 1.30507e-13)
(1760 -3.07187e-10 1.19222e-13)
(1760 -3.0577e-10 1.14123e-13)
(1760 -3.05958e-10 1.14054e-13)
(1760 -3.0491e-10 1.12661e-13)
(1760 -3.0492e-10 1.06793e-13)
(1760 -3.05119e-10 1.04402e-13)
(1760 -3.05382e-10 1.09356e-13)
(1760 -3.10497e-10 1.13993e-13)
(1760 -3.12502e-10 1.10737e-13)
(1760 -3.13504e-10 1.02803e-13)
(1760 -3.13457e-10 1.01654e-13)
(1760 -3.13617e-10 9.9968e-14)
(1760 -3.11769e-10 9.60689e-14)
(1760 -3.09851e-10 9.49742e-14)
(1760 -3.09619e-10 9.737e-14)
(1760 -3.10129e-10 9.01679e-14)
(1760 -3.11798e-10 8.9654e-14)
(1760 -3.11978e-10 9.07413e-14)
(1760 -3.12497e-10 8.41658e-14)
(1760 -3.11629e-10 8.00754e-14)
(1760 -3.11838e-10 8.23522e-14)
(1760 -3.15739e-10 8.57669e-14)
(1760 -3.19777e-10 7.78877e-14)
(1760 -3.17693e-10 7.89095e-14)
(1760 -3.17727e-10 8.14036e-14)
(1760 -3.19266e-10 7.95913e-14)
(1760 -3.21959e-10 7.87872e-14)
(1760 -3.27707e-10 7.50863e-14)
(1760 -3.30536e-10 7.70143e-14)
(1760 -3.32951e-10 7.76053e-14)
(1760 -3.32019e-10 7.58941e-14)
(1760 -3.31185e-10 7.67106e-14)
(1760 -3.31192e-10 6.60532e-14)
(1760 -3.3113e-10 6.68836e-14)
(1760 -3.31929e-10 7.08323e-14)
(1760 -3.36181e-10 7.40554e-14)
(1760 -3.40542e-10 7.14998e-14)
(1760 -3.4253e-10 7.45646e-14)
(1760 -3.44933e-10 7.42099e-14)
(1760 -3.46716e-10 6.65218e-14)
(1760 -3.49154e-10 6.39869e-14)
(1760 -3.50193e-10 7.04626e-14)
(1760 -3.52137e-10 6.86726e-14)
(1760 -3.5488e-10 6.35427e-14)
(1760 -3.58061e-10 7.00595e-14)
(1760 -3.6079e-10 7.05058e-14)
(1760 -3.65082e-10 6.26009e-14)
(1760 -3.67347e-10 6.18276e-14)
(1760 -3.70483e-10 6.1467e-14)
(1760 -3.72696e-10 6.26957e-14)
(1760 -3.75194e-10 6.59636e-14)
(1760 -3.76486e-10 6.46928e-14)
(1760 -3.78724e-10 6.65638e-14)
(1760 -3.82185e-10 6.64667e-14)
(1760 -3.85431e-10 6.52709e-14)
(1760 -3.8949e-10 6.46703e-14)
(1760 -3.94044e-10 6.07486e-14)
(1760 -3.99565e-10 6.30112e-14)
(1760 -4.02287e-10 5.71209e-14)
(1760 -4.0418e-10 6.13393e-14)
(1760 -4.07781e-10 5.86617e-14)
(1760 -4.13039e-10 5.99076e-14)
(1760 -4.1783e-10 6.18383e-14)
(1760 -4.22784e-10 5.99894e-14)
(1760 -4.25971e-10 6.02772e-14)
(1760 -4.28587e-10 5.85834e-14)
(1760 -4.34346e-10 5.34944e-14)
(1760 -4.39156e-10 5.47418e-14)
(1760 -4.45116e-10 5.62098e-14)
(1760 -4.52442e-10 5.45745e-14)
(1760 -4.5807e-10 6.24686e-14)
(1760 -4.62327e-10 5.46544e-14)
(1760 -4.68655e-10 5.46498e-14)
(1760 -4.7408e-10 5.97487e-14)
(1760 -4.77045e-10 5.87514e-14)
(1760 -1.43494e-07 2.39751e-10)
(1760 -9.86969e-08 1.49249e-10)
(1760 -6.2212e-08 8.51428e-11)
(1760 -3.88461e-08 4.96733e-11)
(1760 -2.52301e-08 3.12576e-11)
(1760 -1.73389e-08 2.13166e-11)
(1760 -1.26025e-08 1.56456e-11)
(1760 -9.60901e-09 1.19387e-11)
(1760 -7.60454e-09 9.4496e-12)
(1760 -6.19804e-09 7.70217e-12)
(1760 -5.16988e-09 6.40626e-12)
(1760 -4.38763e-09 5.39993e-12)
(1760 -3.7769e-09 4.62981e-12)
(1760 -3.28839e-09 4.03875e-12)
(1760 -2.89471e-09 3.4875e-12)
(1760 -2.57552e-09 3.06542e-12)
(1760 -2.31191e-09 2.75191e-12)
(1760 -2.09561e-09 2.44251e-12)
(1760 -1.91294e-09 2.21634e-12)
(1760 -1.75569e-09 1.9822e-12)
(1760 -1.6191e-09 1.81997e-12)
(1760 -1.49725e-09 1.6594e-12)
(1760 -1.39044e-09 1.51422e-12)
(1760 -1.2963e-09 1.37341e-12)
(1760 -1.21505e-09 1.29561e-12)
(1760 -1.14127e-09 1.21959e-12)
(1760 -1.07892e-09 1.13214e-12)
(1760 -1.01832e-09 1.06515e-12)
(1760 -9.65841e-10 9.75783e-13)
(1760 -9.22815e-10 8.95339e-13)
(1760 -8.8186e-10 8.60383e-13)
(1760 -8.39896e-10 8.016e-13)
(1760 -8.02409e-10 7.52516e-13)
(1760 -7.72149e-10 7.21096e-13)
(1760 -7.46962e-10 6.76862e-13)
(1760 -7.17529e-10 6.1872e-13)
(1760 -6.8898e-10 6.20258e-13)
(1760 -6.67212e-10 5.79765e-13)
(1760 -6.47462e-10 5.50427e-13)
(1760 -6.29304e-10 5.30569e-13)
(1760 -6.10587e-10 4.89991e-13)
(1760 -5.92444e-10 4.7271e-13)
(1760 -5.76173e-10 4.56191e-13)
(1760 -5.64695e-10 4.42275e-13)
(1760 -5.54455e-10 4.25001e-13)
(1760 -5.42021e-10 4.16637e-13)
(1760 -5.30463e-10 3.83326e-13)
(1760 -5.18775e-10 3.72246e-13)
(1760 -5.0544e-10 3.61304e-13)
(1760 -4.96589e-10 3.39723e-13)
(1760 -4.87112e-10 3.30329e-13)
(1760 -4.77441e-10 3.19086e-13)
(1760 -4.75004e-10 3.056e-13)
(1760 -4.66882e-10 2.99859e-13)
(1760 -4.59574e-10 2.84382e-13)
(1760 -4.52618e-10 2.72167e-13)
(1760 -4.48557e-10 2.66769e-13)
(1760 -4.42794e-10 2.6669e-13)
(1760 -4.383e-10 2.51414e-13)
(1760 -4.34548e-10 2.40673e-13)
(1760 -4.28578e-10 2.38642e-13)
(1760 -4.22494e-10 2.29179e-13)
(1760 -4.16996e-10 2.26192e-13)
(1760 -4.15413e-10 2.16816e-13)
(1760 -4.14392e-10 2.15101e-13)
(1760 -4.1222e-10 2.15448e-13)
(1760 -4.069e-10 2.01552e-13)
(1760 -4.00447e-10 1.90973e-13)
(1760 -3.9752e-10 1.97839e-13)
(1760 -3.94119e-10 1.88682e-13)
(1760 -3.90804e-10 1.81343e-13)
(1760 -3.90097e-10 1.79268e-13)
(1760 -3.89108e-10 1.77906e-13)
(1760 -3.84285e-10 1.65797e-13)
(1760 -3.8447e-10 1.72652e-13)
(1760 -3.83416e-10 1.65681e-13)
(1760 -3.8158e-10 1.59378e-13)
(1760 -3.82153e-10 1.55536e-13)
(1760 -3.84223e-10 1.68213e-13)
(1760 -3.84099e-10 1.60312e-13)
(1760 -3.83047e-10 1.53923e-13)
(1760 -3.78839e-10 1.42219e-13)
(1760 -3.76068e-10 1.42747e-13)
(1760 -3.75155e-10 1.32739e-13)
(1760 -3.77152e-10 1.36891e-13)
(1760 -3.76118e-10 1.29304e-13)
(1760 -3.75377e-10 1.34757e-13)
(1760 -3.73595e-10 1.29553e-13)
(1760 -3.76601e-10 1.30447e-13)
(1760 -3.80655e-10 1.20994e-13)
(1760 -3.8296e-10 1.20958e-13)
(1760 -3.82877e-10 1.23678e-13)
(1760 -3.83508e-10 1.18514e-13)
(1760 -3.8247e-10 1.14189e-13)
(1760 -3.81012e-10 1.15901e-13)
(1760 -3.80102e-10 1.15864e-13)
(1760 -3.8078e-10 1.08497e-13)
(1760 -3.81989e-10 1.10934e-13)
(1760 -3.82023e-10 1.10644e-13)
(1760 -3.81877e-10 1.09288e-13)
(1760 -3.82272e-10 1.06102e-13)
(1760 -3.81228e-10 1.0722e-13)
(1760 -3.83346e-10 9.89083e-14)
(1760 -3.88543e-10 9.71897e-14)
(1760 -3.89711e-10 1.01479e-13)
(1760 -3.89717e-10 1.00029e-13)
(1760 -3.90552e-10 9.9292e-14)
(1760 -3.90594e-10 9.68305e-14)
(1760 -3.95778e-10 9.83739e-14)
(1760 -4.00523e-10 1.00082e-13)
(1760 -4.03614e-10 9.34674e-14)
(1760 -4.06362e-10 9.06818e-14)
(1760 -4.0574e-10 8.75943e-14)
(1760 -4.04513e-10 8.73435e-14)
(1760 -4.05879e-10 9.0617e-14)
(1760 -4.05008e-10 9.20994e-14)
(1760 -4.06601e-10 9.42987e-14)
(1760 -4.12626e-10 9.46957e-14)
(1760 -4.16265e-10 9.34006e-14)
(1760 -4.18723e-10 8.77281e-14)
(1760 -4.19865e-10 7.79641e-14)
(1760 -4.23424e-10 8.55422e-14)
(1760 -4.24939e-10 9.04108e-14)
(1760 -4.27747e-10 8.34045e-14)
(1760 -4.31394e-10 8.0144e-14)
(1760 -4.36197e-10 8.07564e-14)
(1760 -4.38989e-10 8.07327e-14)
(1760 -4.42371e-10 8.12075e-14)
(1760 -4.4561e-10 8.2497e-14)
(1760 -4.489e-10 8.06751e-14)
(1760 -4.5306e-10 8.21947e-14)
(1760 -4.55983e-10 8.24021e-14)
(1760 -4.57846e-10 8.13057e-14)
(1760 -4.60219e-10 8.20279e-14)
(1760 -4.63168e-10 8.04594e-14)
(1760 -4.66036e-10 8.00141e-14)
(1760 -4.689e-10 7.80887e-14)