/*--------------------------------*- C++ -*----------------------------------*\
| =========                 |                                                 |
| \\      /  F ield         | OpenFOAM: The Open Source CFD Toolbox           |
|  \\    /   O peration     | Version:  v1706                                 |
|   \\  /    A nd           | Web:      www.OpenFOAM.com                      |
|    \\/     M anipulation  |                                                 |
\*---------------------------------------------------------------------------*/
FoamFile
{
    version     2.0;
    format      ascii;
    class       volScalarField;
    location    "3.4e-05";
    object      p;
}
// * * * * * * * * * * * * * * * * * * * * * * * * * * * * * * * * * * * * * //

dimensions      [1 -1 -2 0 0 0 0];


internalField   nonuniform List<scalar> 
30104
(
21.9139
21.9139
21.9139
21.9139
21.9139
21.9139
21.9139
21.9139
21.9139
21.9139
21.9139
21.9139
21.9139
21.9139
21.9139
21.9139
21.9139
21.9139
21.9139
21.9139
21.9139
21.9139
21.9139
21.9139
21.9139
21.9139
21.9139
21.9139
21.9139
21.9139
21.9139
21.9139
21.9139
21.9139
21.9139
21.9139
21.9139
21.9139
21.9139
21.9139
21.9139
21.9139
21.9139
21.9139
21.9139
21.9139
21.9139
21.9139
21.9139
21.9139
21.9139
21.9139
21.9139
21.9139
21.9139
21.9139
21.9139
21.9139
21.9139
21.9139
21.9139
21.9139
21.9139
21.9139
21.9139
21.9139
21.9139
21.9139
21.9139
21.9139
21.9139
21.9139
21.9139
21.9139
21.9139
21.9139
21.9139
21.9139
21.9139
21.9139
21.9139
21.9139
21.9139
21.9139
21.9139
21.9139
21.9139
21.9139
21.9139
21.9139
21.9139
21.9139
21.9139
21.9139
21.9139
21.9139
21.9139
21.9139
21.9139
21.9139
21.9139
21.9139
21.9139
21.9139
21.9139
21.9139
21.9139
21.9139
21.9139
21.9139
21.9139
21.9139
21.9139
21.9139
21.9139
21.9139
21.9139
21.9139
21.9139
21.9139
21.9139
21.9139
21.9139
21.9139
21.9139
21.9139
21.9139
21.9139
21.9139
21.9139
21.9139
21.9139
21.9139
21.9139
21.9139
21.9139
21.9139
21.9139
21.9139
21.9139
21.9139
21.9139
21.9139
21.9139
21.9139
21.9139
21.9139
21.9139
21.9139
21.9139
21.9139
21.9139
21.9139
21.9139
21.9139
21.9139
21.9139
21.9139
21.9139
21.9139
21.9139
21.9139
21.9139
21.9139
21.9139
21.9139
21.9139
21.9139
21.9139
21.9139
21.9139
21.9139
21.9139
21.9139
21.9139
21.9139
21.9139
21.9139
21.9139
21.9139
21.9139
21.9139
21.9139
21.9139
21.9139
21.9139
21.9139
21.9139
21.9139
21.9139
21.9139
21.9139
21.9139
21.9139
21.9139
21.9139
21.9139
21.9139
21.9139
21.9139
21.9139
21.9139
21.9139
21.9139
21.9139
21.9139
21.9139
21.9139
21.9139
21.9139
21.9139
21.9139
21.9139
21.9139
21.9139
21.9139
21.9139
21.9139
21.9139
21.9139
21.9139
21.9139
21.9139
21.9139
21.9139
21.9139
21.9139
21.9139
21.9139
21.9139
21.9139
21.9139
21.9139
21.9139
21.9139
21.9139
21.9139
21.9139
21.9139
21.9139
21.9139
21.9139
21.9139
21.9139
21.9139
21.9139
21.9139
21.9139
21.9139
21.9139
21.9139
21.9139
21.9139
21.9139
21.9139
21.9139
21.9139
21.9139
21.9139
21.9139
21.9139
21.9139
21.9139
21.9139
21.9139
21.9139
21.9139
21.9139
21.9139
21.9139
21.9139
21.9139
21.9139
21.9139
21.9139
21.9139
21.9139
21.9139
21.9139
21.9139
21.9139
21.9139
21.9139
21.9139
21.9139
21.9139
21.9139
21.9139
21.9139
21.9139
21.9139
21.9139
21.9139
21.9139
21.9139
21.9139
21.9139
21.9139
21.9139
21.9139
21.9139
21.9139
21.9139
21.9139
21.9139
21.9139
21.9139
21.9139
21.9139
21.9139
21.9139
21.9139
21.9139
21.9139
21.9139
21.9139
21.9139
21.9139
21.9139
21.9139
21.9139
21.9139
21.9139
21.9139
21.9139
21.9139
21.9139
21.9139
21.9139
21.9139
21.9139
21.9139
21.9139
21.9139
21.9139
21.9139
21.9139
21.9139
21.9139
21.9139
21.9139
21.9139
21.9139
21.9139
21.9139
21.9139
21.9139
21.9139
21.9139
21.9139
21.9139
21.9139
21.9139
21.9139
21.9139
21.9139
21.9139
21.9139
21.9139
21.9139
21.9139
21.9139
21.9139
21.9139
21.9139
21.9139
21.9139
21.9139
21.9139
21.9139
21.9139
21.9139
21.9139
21.9139
21.9139
21.9139
21.9139
21.9139
21.9139
21.9139
21.9139
21.9139
21.9139
21.9139
21.9139
21.9139
21.9139
21.9139
21.9139
21.9139
21.9139
21.9139
21.9139
21.9139
21.9139
21.9139
21.9139
21.9139
21.9139
21.9139
21.9139
21.9139
21.9139
21.9139
21.9139
21.9139
21.9139
21.9139
21.9139
21.9139
21.9139
21.9139
21.9139
21.9139
21.9139
21.9139
21.9139
21.9139
21.9139
21.9139
21.9139
21.9139
21.9139
21.9139
21.9139
21.9139
21.9139
21.9139
21.9139
21.9139
21.9139
21.9139
21.9139
21.9139
21.9139
21.9139
21.9139
21.9139
21.9139
21.9139
21.9139
21.9139
21.9139
21.9139
21.9139
21.9139
21.9139
21.9139
21.9139
21.9139
21.9139
21.9139
21.9139
21.9139
21.9139
21.9139
21.9139
21.9139
21.9139
21.9139
21.9139
21.9139
21.9139
21.9139
21.9139
21.9139
21.9139
21.9139
21.9139
21.9139
21.9139
21.9139
21.9139
21.9139
21.9139
21.9139
21.9139
21.9139
21.9139
21.9139
21.9139
21.9139
21.9139
21.9139
21.9139
21.9139
21.9139
21.9139
21.9139
21.9139
21.9139
21.9139
21.9139
21.9139
21.9139
21.9139
21.9139
21.9139
21.9139
21.9139
21.9139
21.9139
21.9139
21.9139
21.9139
21.9139
21.9139
21.9139
21.9139
21.9139
21.9139
21.9139
21.9139
21.9139
21.9139
21.9139
21.9139
21.9139
21.9139
21.9139
21.9139
21.9139
21.9139
21.9139
21.9139
21.9139
21.9139
21.9139
21.9139
21.9139
21.9139
21.9139
21.9139
21.9139
21.9139
21.9139
21.9139
21.9139
21.9139
21.9139
21.9139
21.9139
21.9139
21.9139
21.9139
21.9139
21.9139
21.9139
21.9139
21.9139
21.9139
21.9139
21.9139
21.9139
21.9139
21.9139
21.9139
21.9139
21.9139
21.9139
21.9139
21.9139
21.9139
21.9139
21.9139
21.9139
21.9139
21.9139
21.9139
21.9139
21.9139
21.9139
21.9139
21.9139
21.9139
21.9139
21.9139
21.9139
21.9139
21.9139
21.9139
21.9139
21.9139
21.9139
21.9139
21.9139
21.9139
21.9139
21.9139
21.9139
21.9139
21.9139
21.9139
21.9139
21.9139
21.9139
21.9139
21.9139
21.9139
21.9139
21.9139
21.9139
21.9139
21.9139
21.9139
21.9139
21.9139
21.9139
21.9139
21.9139
21.9139
21.9139
21.9139
21.9139
21.9139
21.9139
21.9139
21.9139
21.9139
21.9139
21.9139
21.9139
21.9139
21.9139
21.9139
21.9139
21.9139
21.9139
21.9139
21.9139
21.9139
21.9139
21.9139
21.9139
21.9139
21.9139
21.9139
21.9139
21.9139
21.9139
21.9139
21.9139
21.9139
21.9139
21.9139
21.9139
21.9139
21.9139
21.9139
21.9139
21.9139
21.9139
21.9139
21.9139
21.9139
21.9139
21.9139
21.9139
21.9139
21.9139
21.9139
21.9139
21.9139
21.9139
21.9139
21.9139
21.9139
21.9139
21.9139
21.9139
21.9139
21.9139
21.9139
21.9139
21.9139
21.9139
21.9139
21.9139
21.9139
21.9139
21.9139
21.9139
21.9139
21.9139
21.9139
21.9139
21.9139
21.9139
21.9139
21.9139
21.9139
21.9139
21.9139
21.9139
21.9139
21.9139
21.9139
21.9139
21.9139
21.9139
21.9139
21.9139
21.9139
21.9139
21.9139
21.9139
21.9139
21.9139
21.9139
21.9139
21.9139
21.9139
21.9139
21.9139
21.9139
21.9139
21.9139
21.9139
21.9139
21.9139
21.9139
21.9139
21.9139
21.9139
21.9139
21.9139
21.9139
21.9139
21.9139
21.9139
21.9139
21.9139
21.9139
21.9139
21.9139
21.9139
21.9139
21.9139
21.9139
21.9139
21.9139
21.9139
21.9139
21.9139
21.9139
21.9139
21.9139
21.9139
21.9139
21.9139
21.9139
21.9139
21.9139
21.9139
21.9139
21.9139
21.9139
21.9139
21.9139
21.9139
21.9139
21.9139
21.9139
21.9139
21.9139
21.9139
21.9139
21.9139
21.9139
21.9139
21.9139
21.9139
21.9139
21.9139
21.9139
21.9139
21.9139
21.9139
21.9139
21.9139
21.9139
21.9139
21.9139
21.9139
21.9139
21.9139
21.9139
21.9139
21.9139
21.9139
21.9139
21.9139
21.9139
21.9139
21.9139
21.9139
21.9139
21.9139
21.9139
21.9139
21.9139
21.9139
21.9139
21.9139
21.9139
21.9139
21.9139
21.9139
21.9139
21.9139
21.9139
21.9139
21.9139
21.9139
21.9139
21.9139
21.9139
21.9139
21.9139
21.9139
21.9139
21.9139
21.9139
21.9139
21.9139
21.9139
21.9139
21.9139
21.9139
21.9139
21.9139
21.9139
21.9139
21.9139
21.9139
21.9139
21.9139
21.9139
21.9139
21.9139
21.9139
21.9139
21.9139
21.9139
21.9139
21.9139
21.9139
21.9139
21.9139
21.9139
21.9139
21.9139
21.9139
21.9139
21.9139
21.9139
21.9139
21.9139
21.9139
21.9139
21.9139
21.9139
21.9139
21.9139
21.9139
21.9139
21.9139
21.9139
21.9139
21.9139
21.9139
21.9139
21.9139
21.9139
21.9139
21.9139
21.9139
21.9139
21.9139
21.9139
21.9139
21.9139
21.9139
21.9139
21.9139
21.9139
21.9139
21.9139
21.9139
21.9139
21.9139
21.9139
21.9139
21.9139
21.9139
21.9139
21.9139
21.9139
21.9139
21.9139
21.9139
21.9139
21.9139
21.9139
21.9139
21.9139
21.9139
21.9139
21.9139
21.9139
21.9139
21.9139
21.9139
21.9139
21.9139
21.9139
21.9139
21.9139
21.9139
21.9139
21.9139
21.9139
21.9139
21.9139
21.9139
21.9139
21.9139
21.9139
21.9139
21.9139
21.9139
21.9139
21.9139
21.9139
21.9139
21.9139
21.9139
21.9139
21.9139
21.9139
21.9139
21.9139
21.9139
21.9139
21.9139
21.9139
21.9139
21.9139
21.9139
21.9139
21.9139
21.9139
21.9139
21.9139
21.9139
21.9139
21.9139
21.9139
21.9139
21.9139
21.9139
21.9139
21.9139
21.9139
21.9139
21.9139
21.9139
21.9139
21.9139
21.9139
21.9139
21.9139
21.9139
21.9139
21.9139
21.9139
21.9139
21.9139
21.9139
21.9139
21.9139
21.9139
21.9139
21.9139
21.9139
21.9139
21.9139
21.9139
21.9139
21.9139
21.9139
21.9139
21.9139
21.9139
21.9139
21.9139
21.9139
21.9139
21.9139
21.9139
21.9139
21.9139
21.9139
21.9139
21.9139
21.9139
21.9139
21.9139
21.9139
21.9139
21.9139
21.9139
21.9139
21.9139
21.9139
21.9139
21.9139
21.9139
21.9139
21.9139
21.9139
21.9139
21.9139
21.9139
21.9139
21.9139
21.9139
21.9139
21.9139
21.9139
21.9139
21.9139
21.9139
21.9139
21.9139
21.9139
21.9139
21.9139
21.9139
21.9139
21.9139
21.9139
21.9139
21.9139
21.9139
21.9139
21.9139
21.9139
21.9139
21.9139
21.9139
21.9139
21.9139
21.9139
21.9139
21.9139
21.9139
21.9139
21.9139
21.9139
21.9139
21.9139
21.9139
21.9139
21.9139
21.9139
21.9139
21.9139
21.9139
21.9139
21.9139
21.9139
21.9139
21.9139
21.9139
21.9139
21.9139
21.9139
21.9139
21.9139
21.9139
21.9139
21.9139
21.9139
21.9139
21.9139
21.9139
21.9139
21.9139
21.9139
21.9139
21.9139
21.9139
21.9139
21.9139
21.9139
21.9139
21.9139
21.9139
21.9139
21.9139
21.9139
21.9139
21.9139
21.9139
21.9139
21.9139
21.9139
21.9139
21.9139
21.9139
21.9139
21.9139
21.9139
21.9139
21.9139
21.9139
21.9139
21.9139
21.9139
21.9139
21.9139
21.9139
21.9139
21.9139
21.9139
21.9139
21.9139
21.9139
21.9139
21.9139
21.9139
21.9139
21.9139
21.9139
21.9139
21.9139
21.9139
21.9139
21.9139
21.9139
21.9139
21.9139
21.9139
21.9139
21.9139
21.9139
21.9139
21.9139
21.9139
21.9139
21.9139
21.9139
21.9139
21.9139
21.9139
21.9139
21.9139
21.9139
21.9139
21.9139
21.9139
21.9139
21.9139
21.9139
21.9139
21.9139
21.9139
21.9139
21.9139
21.9139
21.9139
21.9139
21.9139
21.9139
21.9139
21.9139
21.9139
21.9139
21.9139
21.9139
21.9139
21.9139
21.9139
21.9139
21.9139
21.9139
21.9139
21.9139
21.9139
21.9139
21.9139
21.9139
21.9139
21.9139
21.9139
21.9139
21.9139
21.9139
21.9139
21.9139
21.9139
21.9139
21.9139
21.9139
21.9139
21.9139
21.9139
21.9139
21.9139
21.9139
21.9139
21.9139
21.9139
21.9139
21.9139
21.9139
21.9139
21.9139
21.9139
21.9139
21.9139
21.9139
21.9139
21.9139
21.9139
21.9139
21.9139
21.9139
21.9139
21.9139
21.9139
21.9139
21.9139
21.9139
21.9139
21.9139
21.9139
21.9139
21.9139
21.9139
21.9139
21.9139
21.9139
21.9139
21.9139
21.9139
21.9139
21.9139
21.9139
21.9139
21.9139
21.9139
21.9139
21.9139
21.9139
21.9139
21.9139
21.9139
21.9139
21.9139
21.9139
21.9139
21.9139
21.9139
21.9139
21.9139
21.9139
21.9139
21.9139
21.9139
21.9139
21.9139
21.9139
21.9139
21.9139
21.9139
21.9139
21.9139
21.9139
21.9139
21.9139
21.9139
21.9139
21.9139
21.9139
21.9139
21.9139
21.9139
21.9139
21.9139
21.9139
21.9139
21.9139
21.9139
21.9139
21.9139
21.9139
21.9139
21.9139
21.9139
21.9139
21.9139
21.9139
21.9139
21.9139
21.9139
21.9139
21.9139
21.9139
21.9139
21.9139
21.9139
21.9139
21.9139
21.9139
21.9139
21.9139
21.9139
21.9139
21.9139
21.9139
21.9139
21.9139
21.914
21.914
21.914
21.914
21.914
21.914
21.914
21.914
21.914
21.914
21.914
21.914
21.914
21.914
21.914
21.914
21.914
21.914
21.914
21.914
21.914
21.914
21.914
21.914
21.914
21.914
21.914
21.914
21.914
21.914
21.914
21.914
21.914
21.914
21.914
21.914
21.914
21.9139
21.9139
21.9139
21.9139
21.9139
21.9139
21.9139
21.9139
21.9139
21.9139
21.9139
21.9139
21.9139
21.9139
21.9139
21.9139
21.9139
21.9139
21.9139
21.9139
21.9139
21.9139
21.9139
21.9139
21.9139
21.9139
21.9139
21.9139
21.9139
21.9139
21.9139
21.9139
21.9139
21.9139
21.9139
21.9139
21.9139
21.9139
21.9139
21.9139
21.9139
21.9139
21.9139
21.9139
21.9139
21.9139
21.9139
21.9139
21.9139
21.9139
21.9139
21.9139
21.9139
21.9139
21.9139
21.9139
21.9139
21.9139
21.9139
21.9139
21.9139
21.9139
21.9139
21.9139
21.9139
21.9139
21.9139
21.9139
21.9139
21.9139
21.9139
21.9139
21.9139
21.9139
21.9139
21.9139
21.9139
21.9139
21.9139
21.9139
21.9139
21.9139
21.9139
21.9139
21.9139
21.9139
21.9139
21.9139
21.9139
21.9139
21.9139
21.9139
21.9139
21.9139
21.9139
21.9139
21.9139
21.9139
21.9139
21.9139
21.9139
21.9139
21.9139
21.9139
21.9139
21.9139
21.9139
21.9139
21.9139
21.9139
21.9139
21.9139
21.9139
21.9139
21.9139
21.9139
21.9139
21.9139
21.9139
21.9139
21.9139
21.9139
21.9139
21.9139
21.9139
21.9139
21.9139
21.9139
21.9139
21.9139
21.9139
21.9139
21.9139
21.9139
21.9139
21.9139
21.9139
21.9139
21.9139
21.9139
21.9139
21.9139
21.9139
21.9139
21.9139
21.9139
21.9139
21.9139
21.9139
21.914
21.914
21.914
21.914
21.914
21.914
21.914
21.914
21.914
21.914
21.914
21.9141
21.9141
21.9141
21.9141
21.9141
21.9141
21.9142
21.9142
21.9142
21.9142
21.9143
21.9143
21.9143
21.9143
21.9143
21.9143
21.9143
21.9143
21.9143
21.9143
21.9143
21.9143
21.9143
21.9143
21.9143
21.9143
21.9143
21.9143
21.9143
21.9143
21.9143
21.9143
21.9143
21.9143
21.9143
21.9143
21.9143
21.9143
21.9143
21.9143
21.9143
21.9143
21.9143
21.9143
21.9142
21.9142
21.9142
21.9142
21.9142
21.9142
21.9142
21.9142
21.9141
21.9141
21.9141
21.9141
21.9141
21.9141
21.9141
21.914
21.914
21.914
21.914
21.914
21.914
21.914
21.914
21.914
21.9139
21.9139
21.9139
21.9139
21.9139
21.9139
21.9139
21.9139
21.9139
21.9139
21.9139
21.9139
21.9139
21.9139
21.9139
21.9139
21.9139
21.9139
21.9139
21.9139
21.9139
21.9139
21.9139
21.9139
21.9139
21.9139
21.9139
21.9139
21.9139
21.9139
21.9139
21.9139
21.9139
21.9139
21.9139
21.9139
21.9139
21.9139
21.9139
21.9139
21.9139
21.9139
21.9139
21.9139
21.9139
21.9139
21.9139
21.9139
21.9139
21.9139
21.9139
21.9139
21.9139
21.9139
21.9139
21.9139
21.9139
21.9139
21.9139
21.9139
21.9139
21.9139
21.9139
21.9139
21.9139
21.9139
21.9139
21.9139
21.9139
21.9139
21.9139
21.9139
21.9139
21.9139
21.9139
21.9139
21.9139
21.9139
21.9139
21.9139
21.9139
21.9139
21.9139
21.9139
21.9139
21.9139
21.9139
21.9139
21.9139
21.9139
21.9139
21.9139
21.9139
21.9139
21.9139
21.9139
21.9139
21.9139
21.9139
21.9139
21.9139
21.9139
21.9139
21.9139
21.9139
21.9139
21.9139
21.9139
21.9139
21.9139
21.9139
21.9139
21.9139
21.9139
21.914
21.914
21.914
21.914
21.914
21.914
21.914
21.914
21.9141
21.9141
21.9141
21.9141
21.9141
21.9142
21.9142
21.9143
21.9143
21.9144
21.9144
21.9145
21.9146
21.9146
21.9147
21.9148
21.9148
21.9149
21.915
21.9151
21.9152
21.9154
21.9155
21.9156
21.9158
21.9159
21.916
21.9162
21.9163
21.9164
21.9165
21.9165
21.9166
21.9166
21.9167
21.9167
21.9167
21.9168
21.9168
21.9168
21.9168
21.9168
21.9168
21.9168
21.9168
21.9168
21.9168
21.9168
21.9167
21.9167
21.9167
21.9166
21.9166
21.9166
21.9165
21.9165
21.9165
21.9164
21.9163
21.9163
21.9162
21.9162
21.9161
21.916
21.916
21.9159
21.9158
21.9157
21.9156
21.9155
21.9155
21.9154
21.9153
21.9152
21.9151
21.915
21.9149
21.9148
21.9147
21.9146
21.9145
21.9144
21.9144
21.9143
21.9142
21.9142
21.9141
21.9141
21.9141
21.9141
21.914
21.914
21.914
21.914
21.914
21.9139
21.9139
21.9139
21.9139
21.9139
21.9139
21.9139
21.9139
21.9139
21.9139
21.9139
21.9139
21.9139
21.9139
21.9139
21.9139
21.9139
21.9139
21.9139
21.9139
21.9139
21.9139
21.9139
21.9139
21.9139
21.9139
21.9139
21.9139
21.9139
21.9139
21.9139
21.9139
21.9139
21.9139
21.9139
21.9139
21.9139
21.9139
21.9139
21.9139
21.9139
21.9139
21.9139
21.9139
21.9139
21.9139
21.9139
21.9139
21.9139
21.9139
21.9139
21.9139
21.9139
21.9139
21.9139
21.9139
21.9139
21.9139
21.9139
21.9139
21.9139
21.9139
21.9139
21.9139
21.9139
21.9139
21.9139
21.9139
21.9139
21.9139
21.9139
21.9139
21.9139
21.9139
21.9139
21.9139
21.9139
21.9139
21.9139
21.9139
21.9139
21.9139
21.9139
21.9139
21.9139
21.9139
21.9139
21.9139
21.9139
21.914
21.914
21.914
21.914
21.914
21.914
21.914
21.914
21.914
21.9141
21.9141
21.9141
21.9141
21.9142
21.9142
21.9142
21.9143
21.9143
21.9144
21.9144
21.9145
21.9146
21.9147
21.9148
21.9149
21.9151
21.9152
21.9154
21.9156
21.9158
21.9161
21.9164
21.9168
21.9171
21.9176
21.918
21.9184
21.9188
21.9193
21.9197
21.9202
21.9208
21.9214
21.9221
21.9229
21.9238
21.9246
21.9255
21.9263
21.9271
21.9278
21.9285
21.9291
21.9296
21.93
21.9304
21.9307
21.931
21.9312
21.9314
21.9316
21.9317
21.9318
21.9319
21.9319
21.9319
21.932
21.9319
21.9319
21.9319
21.9318
21.9317
21.9315
21.9314
21.9312
21.931
21.9308
21.9306
21.9303
21.93
21.9297
21.9294
21.9291
21.9287
21.9283
21.9279
21.9275
21.927
21.9265
21.926
21.9255
21.925
21.9244
21.9239
21.9233
21.9227
21.9221
21.9215
21.9208
21.9202
21.9196
21.919
21.9184
21.9178
21.9173
21.9168
21.9164
21.9161
21.9158
21.9155
21.9153
21.9151
21.9149
21.9148
21.9146
21.9145
21.9144
21.9143
21.9142
21.9141
21.9141
21.9141
21.914
21.914
21.914
21.914
21.9139
21.9139
21.9139
21.9139
21.9139
21.9139
21.9139
21.9139
21.9139
21.9139
21.9139
21.9139
21.9139
21.9139
21.9139
21.9139
21.9139
21.9139
21.9139
21.9139
21.9139
21.9139
21.9139
21.9139
21.9139
21.9139
21.9139
21.9139
21.9139
21.9139
21.9139
21.9139
21.9139
21.9139
21.9139
21.9139
21.9139
21.9139
21.9139
21.9139
21.9139
21.9139
21.9139
21.9139
21.9139
21.9139
21.9139
21.9139
21.9139
21.9139
21.9139
21.9139
21.9139
21.9139
21.9139
21.9139
21.9139
21.9139
21.9139
21.9139
21.9139
21.9139
21.9139
21.9139
21.9139
21.9139
21.9139
21.9139
21.9139
21.9139
21.9139
21.9139
21.9139
21.9139
21.914
21.914
21.9141
21.9141
21.9141
21.9141
21.9142
21.9142
21.9142
21.9143
21.9143
21.9144
21.9144
21.9145
21.9146
21.9147
21.9148
21.9149
21.915
21.9152
21.9153
21.9155
21.9157
21.916
21.9163
21.9166
21.917
21.9175
21.9181
21.9187
21.9193
21.9201
21.9208
21.9217
21.9227
21.9239
21.9253
21.927
21.9289
21.931
21.9333
21.9357
21.9382
21.9407
21.9432
21.9458
21.9485
21.9515
21.955
21.9591
21.9639
21.9691
21.9746
21.9801
21.9855
21.9907
21.9956
22.0001
22.0042
22.0079
22.011
22.0138
22.0161
22.0182
22.0199
22.0214
22.0227
22.0237
22.0246
22.0253
22.0258
22.0262
22.0264
22.0266
22.0266
22.0266
22.0264
22.0261
22.0256
22.0249
22.024
22.023
22.0219
22.0206
22.0192
22.0177
22.016
22.0143
22.0124
22.0103
22.0082
22.0059
22.0034
22.0008
21.998
21.9951
21.9921
21.9889
21.9855
21.9821
21.9785
21.9747
21.9709
21.967
21.9629
21.9589
21.9548
21.9507
21.9466
21.9426
21.9389
21.9355
21.9324
21.9299
21.9277
21.9258
21.9242
21.9228
21.9216
21.9204
21.9194
21.9184
21.9176
21.9169
21.9163
21.9159
21.9155
21.9152
21.915
21.9147
21.9146
21.9144
21.9143
21.9142
21.9141
21.9141
21.914
21.914
21.914
21.914
21.9139
21.9139
21.9139
21.9139
21.9139
21.9139
21.9139
21.9139
21.9139
21.9139
21.9139
21.9139
21.9139
21.9139
21.9139
21.9139
21.9139
21.9139
21.9139
21.9139
21.9139
21.9139
21.9139
21.9139
21.9139
21.9139
21.9139
21.9139
21.9139
21.9139
21.9139
21.9139
21.9139
21.9139
21.9139
21.9139
21.9139
21.9139
21.9139
21.9139
21.9139
21.9139
21.9139
21.9139
21.9139
21.9139
21.9139
21.9139
21.9139
21.9139
21.9139
21.9139
21.9139
21.9139
21.9139
21.9139
21.9139
21.9139
21.9139
21.9139
21.9139
21.9139
21.9139
21.9139
21.9139
21.9139
21.9146
21.9147
21.9148
21.9149
21.915
21.9151
21.9153
21.9155
21.9157
21.9159
21.9162
21.9165
21.9168
21.9172
21.9177
21.9182
21.9188
21.9196
21.9204
21.9213
21.9222
21.9233
21.9245
21.9259
21.9276
21.9296
21.932
21.9348
21.9379
21.9414
21.9452
21.9493
21.9537
21.9588
21.9647
21.972
21.9808
21.9912
22.0031
22.0161
22.0301
22.0446
22.0595
22.0744
22.0892
22.104
22.1195
22.137
22.1577
22.1821
22.2096
22.2395
22.2709
22.3027
22.334
22.3641
22.3925
22.4187
22.4424
22.4635
22.482
22.4982
22.5123
22.5246
22.5354
22.5448
22.553
22.56
22.566
22.571
22.5752
22.5785
22.5811
22.5832
22.5847
22.5855
22.5858
22.585
22.5831
22.5799
22.5758
22.5707
22.5647
22.5579
22.5502
22.5417
22.5325
22.5226
22.5118
22.5002
22.4876
22.4742
22.4598
22.4443
22.4278
22.4104
22.3919
22.3726
22.3523
22.331
22.3089
22.2859
22.2621
22.2376
22.2126
22.1872
22.1617
22.1361
22.1108
22.0863
22.0638
22.0439
22.0269
22.0125
22.0003
21.9897
21.9803
21.9717
21.9638
21.9564
21.9495
21.9431
21.9376
21.9329
21.9293
21.9263
21.924
21.9222
21.9206
21.9192
21.9181
21.9172
21.9165
21.9159
21.9155
21.9151
21.9149
21.9146
21.9145
21.9143
21.9142
21.9141
21.9141
21.914
21.914
21.914
21.914
21.9139
21.9139
21.9139
21.9139
21.9139
21.9139
21.9139
21.9139
21.9139
21.9139
21.9139
21.9139
21.9139
21.9139
21.9139
21.9139
21.9139
21.9139
21.9139
21.9139
21.9139
21.9139
21.9139
21.9139
21.9139
21.9139
21.9139
21.9139
21.9139
21.9139
21.9139
21.9139
21.9139
21.9139
21.9139
21.9139
21.9139
21.9139
21.9139
21.9139
21.9139
21.9139
21.9139
21.9139
21.9139
21.9139
21.9139
21.9139
21.9139
21.9139
21.9139
21.9139
21.9139
21.9139
21.9139
21.9139
21.9139
21.9139
21.9139
21.9185
21.9191
21.9198
21.9207
21.9216
21.9227
21.9239
21.9252
21.9266
21.9282
21.93
21.9322
21.9347
21.9378
21.9412
21.9452
21.9496
21.9545
21.9598
21.9657
21.9724
21.9804
21.9902
22.0022
22.0164
22.033
22.0515
22.072
22.094
22.1175
22.1428
22.1712
22.205
22.2463
22.2964
22.3553
22.4222
22.4958
22.5744
22.6565
22.7402
22.8242
22.9076
22.9904
23.0765
23.1768
23.3021
23.4542
23.6275
23.8137
24.0052
24.1958
24.3808
24.5567
24.7209
24.8719
25.0083
25.1292
25.235
25.3274
25.4085
25.4799
25.5428
25.5983
25.6471
25.6897
25.7263
25.7579
25.7852
25.8089
25.8294
25.8469
25.8605
25.8704
25.8763
25.8783
25.8724
25.8603
25.8433
25.8199
25.7901
25.7553
25.7159
25.672
25.6235
25.5705
25.5129
25.4503
25.3822
25.3082
25.228
25.1414
25.048
24.9479
24.8414
24.7285
24.6094
24.484
24.3521
24.2136
24.0688
23.9184
23.7633
23.605
23.4447
23.2832
23.1216
22.9644
22.8205
22.6962
22.593
22.508
22.4367
22.3749
22.3192
22.2677
22.2191
22.173
22.1296
22.0901
22.0566
22.0298
22.0088
21.9923
21.9789
21.9675
21.9576
21.9488
21.9412
21.935
21.9303
21.9267
21.9239
21.9218
21.9201
21.9187
21.9175
21.9167
21.916
21.9156
21.9152
21.9149
21.9147
21.9145
21.9143
21.9142
21.9142
21.9141
21.9141
21.914
21.914
21.914
21.914
21.9139
21.9139
21.9139
21.9139
21.9139
21.9139
21.9139
21.9139
21.9139
21.9139
21.9139
21.9139
21.9139
21.9139
21.9139
21.9139
21.9139
21.9139
21.9139
21.9139
21.9139
21.9139
21.9139
21.9139
21.9139
21.9139
21.9139
21.9139
21.9139
21.9139
21.9139
21.9139
21.9139
21.9139
21.9139
21.9139
21.9139
21.9139
21.9139
21.9139
21.9139
21.9139
21.9139
21.9139
21.9139
21.9139
21.9139
21.9139
21.9139
21.9139
21.9383
21.9416
21.9454
21.9498
21.9548
21.9604
21.9666
21.9734
21.9809
21.9894
21.9995
22.0116
22.0261
22.0434
22.0634
22.0859
22.1108
22.138
22.1674
22.1995
22.2361
22.2799
22.3335
22.3988
22.4762
22.5656
22.6663
22.777
22.8964
23.0237
23.1598
23.3126
23.501
23.7417
24.0391
24.3873
24.7761
25.1947
25.6327
26.0807
26.5305
26.9759
27.4127
27.8399
28.277
28.786
29.4174
30.1652
30.999
31.8855
32.7929
33.6922
34.5616
35.3867
36.1568
36.8658
37.508
38.0788
38.5809
39.0251
39.4233
39.7822
40.1052
40.3976
40.6631
40.9017
41.1133
41.3016
41.4716
41.626
41.7654
41.8917
42.0043
42.0966
42.1692
42.2159
42.2229
42.2007
42.1646
42.096
41.9941
41.8593
41.6977
41.5121
41.303
41.0701
40.8111
40.5229
40.2046
39.8544
39.4687
39.045
38.5838
38.0854
37.5495
36.9765
36.3675
35.7229
35.0409
34.3204
33.562
32.7678
31.9446
31.1021
30.2459
29.3802
28.5116
27.6795
26.9519
26.3493
25.8538
25.4358
25.0686
24.7328
24.4163
24.1124
23.8175
23.5307
23.2539
22.9989
22.7834
22.6145
22.4867
22.3885
22.3091
22.241
22.1803
22.1258
22.0794
22.0426
22.015
21.9944
21.9785
21.9655
21.9545
21.9452
21.9376
21.9319
21.9276
21.9245
21.9222
21.9203
21.9188
21.9176
21.9167
21.9161
21.9156
21.9152
21.915
21.9147
21.9145
21.9144
21.9143
21.9142
21.9141
21.9141
21.9141
21.9141
21.914
21.914
21.914
21.914
21.914
21.914
21.914
21.9139
21.9139
21.9139
21.9139
21.9139
21.9139
21.9139
21.9139
21.9139
21.9139
21.9139
21.9139
21.9139
21.9139
21.9139
21.9139
21.914
21.914
21.914
21.914
21.914
21.914
21.9141
21.9141
21.9142
21.9142
21.9139
21.9139
21.9139
21.9139
21.9139
21.9139
21.9139
21.9139
21.9139
21.9139
22.0391
22.057
22.0781
22.1023
22.1296
22.1599
22.193
22.229
22.2683
22.3129
22.3657
22.4293
22.5055
22.5952
22.6985
22.8151
22.9442
23.0848
23.2368
23.4021
23.5913
23.826
24.1243
24.4924
24.9269
25.4204
25.9638
26.5477
27.1647
27.8093
28.4839
29.2285
30.1436
31.2939
32.6802
34.2709
36.0229
37.8911
39.833
41.8106
43.7939
45.7586
47.6872
49.5702
51.4397
53.8395
57.5111
62.2132
67.5297
73.177
78.9918
84.8303
90.5718
96.1352
101.45
106.479
111.169
115.441
119.284
122.764
125.968
128.925
131.618
134.083
136.369
138.469
140.383
142.144
143.81
145.416
146.931
148.324
149.623
150.813
151.907
152.897
153.547
153.947
154.206
154.186
153.895
153.466
152.864
152.047
151.013
149.789
148.386
146.746
144.807
142.594
140.124
137.333
134.17
130.663
126.847
122.73
118.308
113.583
108.509
103.087
97.3851
91.406
85.1649
78.8286
72.4802
66.1144
59.708
53.6604
48.959
45.4867
42.8684
40.7544
38.9031
37.1785
35.5178
33.8978
32.3118
30.7593
29.2527
27.8805
26.7744
25.9413
25.3075
24.7967
24.3565
23.9567
23.5832
23.2362
22.935
22.699
22.527
22.4028
22.3081
22.2304
22.1631
22.1054
22.0593
22.0251
22.0007
21.9826
21.9684
21.9565
21.9465
21.9385
21.9324
21.928
21.9249
21.9226
21.9208
21.9193
21.9181
21.9171
21.9164
21.9159
21.9156
21.9154
21.9151
21.915
21.9148
21.9147
21.9146
21.9145
21.9144
21.9144
21.9143
21.9143
21.9142
21.9142
21.9142
21.9142
21.9142
21.9142
21.9141
21.9141
21.9141
21.9141
21.9142
21.9142
21.9142
21.9142
21.9143
21.9143
21.9144
21.9146
21.9147
21.9148
21.915
21.9152
21.9155
21.916
21.9163
21.9139
21.9139
21.9139
21.9139
21.914
21.914
21.914
21.914
21.914
22.6376
22.7424
22.8625
22.9978
23.1476
23.3113
23.4888
23.6823
23.9033
24.1734
24.5097
24.9184
25.397
25.9394
26.5383
27.1862
27.8773
28.6083
29.388
30.2667
31.3504
32.6972
34.3141
36.1843
38.2791
40.5631
43.0026
45.5696
48.2486
51.0353
54.0457
58.3802
64.7613
72.9024
82.3738
92.8448
104.076
115.876
128.044
140.386
152.822
165.292
177.6
189.657
200.918
210.66
219.142
226.62
233.258
239.086
244.07
248.353
252.15
255.415
258.138
260.412
262.196
263.624
264.927
266.251
267.574
268.711
269.655
270.539
271.323
271.918
272.356
272.76
273.139
273.392
273.569
273.781
273.914
273.942
273.849
273.697
273.434
272.952
272.498
272.166
271.606
270.831
269.952
269.008
268.081
267.046
265.808
264.495
263.17
261.676
259.916
258.094
256.154
253.922
251.5
248.934
246.223
243.315
240.1
236.452
232.26
227.805
222.969
217.386
211.23
204.627
196.996
187.661
176.962
165.404
153.37
141.023
128.404
115.68
102.991
90.4021
78.1055
66.216
55.6163
48.2086
43.3747
40.0351
37.4345
35.1755
33.0785
31.0768
29.192
27.5822
26.3794
25.5231
24.8834
24.3612
23.9021
23.4843
23.1131
22.8139
22.597
22.4464
22.3374
22.2513
22.1785
22.1162
22.0662
22.0297
22.0043
21.9861
21.9721
21.9605
21.9506
21.9422
21.9356
21.9308
21.9275
21.9253
21.9236
21.9223
21.9212
21.9202
21.9194
21.9186
21.918
21.9175
21.917
21.9167
21.9164
21.9161
21.916
21.9159
21.9158
21.9158
21.9157
21.9157
21.9157
21.9157
21.9157
21.9158
21.9159
21.916
21.9163
21.9167
21.9173
21.918
21.9188
21.9198
21.9209
21.9222
21.924
21.9266
21.9302
21.9335
21.9141
21.9141
25.4237
25.9545
26.5534
27.2138
27.929
28.6936
29.5042
30.3722
31.3497
32.5326
33.9663
35.6575
37.5965
39.7637
42.134
44.6832
47.3913
50.2551
53.2803
56.6642
61.6685
68.7567
77.6896
88.1681
99.9719
112.904
126.769
141.453
156.845
172.672
188.795
204.161
218.301
231.497
243.814
255.165
265.446
274.561
282.383
288.984
294.563
298.932
302.379
305.199
307.674
309.971
312.201
314.281
315.975
317.243
318.236
318.802
318.894
318.858
318.733
318.358
317.814
317.133
316.398
315.665
314.999
314.466
313.803
313.077
312.4
311.77
311.132
310.503
309.942
309.562
309.269
308.692
307.918
307.25
306.692
306.28
305.907
305.228
304.462
303.857
303.311
302.659
302.004
301.569
300.956
300.015
299.237
298.599
297.629
296.617
295.892
295.078
293.791
292.409
291.496
290.87
289.975
288.802
287.294
285.885
285.041
283.997
282.307
280.903
279.676
278.023
275.906
273.269
269.765
265.223
259.742
253.37
246.724
240.038
233.176
226.192
218.578
209.384
197.956
183.537
167.017
149.56
131.976
114.54
97.5112
81.2163
65.9657
53.6555
45.8868
41.1444
37.8775
35.23
32.8409
30.6059
28.592
27.0106
25.9085
25.1378
24.5474
24.0481
23.6008
23.2014
22.8734
22.6361
22.4764
22.3653
22.2801
22.2086
22.1461
22.0929
22.0515
22.0227
22.0034
21.9901
21.9798
21.9714
21.9641
21.9577
21.952
21.9471
21.9428
21.9392
21.936
21.9334
21.9313
21.9297
21.9285
21.9277
21.9272
21.9268
21.9266
21.9265
21.9265
21.9266
21.9267
21.9272
21.9281
21.9296
21.9319
21.9351
21.9395
21.945
21.9516
21.9591
21.9673
21.9772
21.9911
22.0108
22.038
22.0648
37.1749
39.1999
41.4516
43.9118
46.5618
49.3828
52.375
55.5435
59.1384
64.3788
71.4989
80.2839
90.5014
101.983
114.587
128.156
142.594
157.829
173.674
189.939
205.429
219.902
233.578
246.687
259.239
270.936
281.582
291.198
299.704
307.091
313.432
318.546
322.294
325.108
327.657
330.122
332.306
334.168
335.705
336.952
337.886
338.418
338.511
338.119
337.344
336.523
335.615
334.512
333.363
332.414
331.418
330.098
328.892
327.93
326.804
325.436
324.334
323.18
321.949
320.987
320.199
319.584
318.904
318.023
317.23
316.536
315.839
315.115
314.451
313.956
313.624
312.967
312.056
311.303
310.691
310.234
309.876
309.174
308.392
307.773
307.213
306.555
305.91
305.511
304.901
303.94
303.192
302.552
301.509
300.555
299.927
299.167
297.797
296.515
295.699
295.116
294.461
293.365
292.016
290.949
290.324
289.79
288.736
287.864
287.186
286.528
285.899
285.255
284.718
284.107
283.152
282.323
281.453
279.927
277.8
275.412
272.851
270.532
268.098
264.805
259.936
253.538
246.427
238.922
230.957
221.52
209.899
195.307
177.207
157.02
136.142
115.42
95.6637
77.4268
61.3342
49.9706
43.3822
39.3177
36.306
33.7117
31.3262
29.1581
27.3924
26.1686
25.3492
24.7488
24.255
23.8174
23.4219
23.0743
22.797
22.6058
22.4835
22.4008
22.338
22.2854
22.2394
22.1987
22.1629
22.1316
22.1044
22.0811
22.0614
22.0449
22.0313
22.0206
22.0132
22.0084
22.0054
22.0035
22.0022
22.0017
22.0018
22.0025
22.004
22.0076
22.0144
22.0255
22.0424
22.0664
22.0982
22.1381
22.186