/*--------------------------------*- C++ -*----------------------------------*\
| =========                 |                                                 |
| \\      /  F ield         | OpenFOAM: The Open Source CFD Toolbox           |
|  \\    /   O peration     | Version:  v1706                                 |
|   \\  /    A nd           | Web:      www.OpenFOAM.com                      |
|    \\/     M anipulation  |                                                 |
\*---------------------------------------------------------------------------*/
FoamFile
{
    version     2.0;
    format      ascii;
    class       volVectorField;
    location    "3.4e-05";
    object      U;
}
// * * * * * * * * * * * * * * * * * * * * * * * * * * * * * * * * * * * * * //

dimensions      [0 1 -1 0 0 0 0];


internalField   nonuniform List<vector> 
30104
(
(1760 -6.51475e-11 2.07411e-15)
(1760 -6.49999e-11 6.2516e-15)
(1760 -6.49245e-11 5.08312e-15)
(1760 -6.45601e-11 3.32268e-15)
(1760 -6.41059e-11 4.92924e-15)
(1760 -6.39429e-11 3.48209e-15)
(1760 -6.38838e-11 5.93901e-16)
(1760 -6.47048e-11 6.97827e-16)
(1760 -6.51993e-11 3.66672e-15)
(1760 -6.54943e-11 7.43137e-15)
(1760 -6.53286e-11 4.5148e-15)
(1760 -6.51488e-11 3.11573e-15)
(1760 -6.51707e-11 1.11687e-15)
(1760 -6.54298e-11 2.92294e-15)
(1760 -6.59253e-11 4.99075e-15)
(1760 -6.67223e-11 4.96591e-15)
(1760 -6.67967e-11 4.32798e-15)
(1760 2.10374e-11 1.48513e-15)
(1760 4.1596e-11 3.69957e-15)
(1760 6.0879e-11 3.24701e-15)
(1760 7.82717e-11 2.73745e-15)
(1760 9.57679e-11 2.56347e-15)
(1760 1.16396e-10 2.25027e-15)
(1760 1.3601e-10 2.24821e-15)
(1760 1.4417e-10 3.46284e-15)
(1760 1.39096e-10 3.31782e-15)
(1760 1.21503e-10 1.80014e-15)
(1760 9.81478e-11 2.5326e-15)
(1760 6.46993e-11 1.57011e-15)
(1760 2.3483e-11 4.74841e-15)
(1760 -7.82955e-13 3.658e-15)
(1760 -2.11123e-11 5.9385e-16)
(1760 -6.31212e-11 1.37174e-15)
(1760 -1.19157e-10 2.07505e-15)
(1760 -1.54829e-10 1.58057e-15)
(1760 -1.82337e-10 4.14749e-15)
(1760 -2.07488e-10 1.04644e-15)
(1760 -2.31359e-10 3.78504e-15)
(1760 -2.50127e-10 4.07552e-15)
(1760 -2.74006e-10 1.82154e-15)
(1760 -3.05196e-10 1.89544e-15)
(1760 -3.41994e-10 1.75066e-15)
(1760 -3.81245e-10 2.12625e-15)
(1760 -3.49418e-10 2.26477e-15)
(1760 -2.99993e-10 2.73236e-15)
(1760 -2.19716e-10 2.91923e-15)
(1760 -2.9397e-11 4.10026e-15)
(1760 1.69716e-10 1.72001e-15)
(1760 3.4051e-10 4.98468e-15)
(1760 4.21138e-10 5.97407e-15)
(1760 4.90275e-10 4.48078e-15)
(1760 5.58529e-10 2.93943e-15)
(1760 6.32159e-10 3.06703e-15)
(1760 7.08597e-10 5.75149e-15)
(1760 8.03239e-10 3.14064e-15)
(1760 9.09394e-10 3.96552e-15)
(1760 1.02311e-09 5.1875e-15)
(1760 1.15112e-09 3.52539e-15)
(1760 1.28258e-09 4.79226e-15)
(1760 1.4175e-09 4.32753e-15)
(1760 1.51692e-09 5.22111e-15)
(1760 1.59847e-09 5.84035e-15)
(1760 1.67966e-09 4.47486e-15)
(1760 1.7618e-09 4.20927e-15)
(1760 1.84322e-09 3.54511e-15)
(1760 1.92789e-09 4.56297e-15)
(1760 2.02193e-09 2.24272e-15)
(1760 2.12022e-09 5.46709e-15)
(1760 2.22068e-09 4.01151e-15)
(1760 2.31923e-09 2.37551e-15)
(1760 2.4152e-09 3.16638e-15)
(1760 2.49991e-09 4.3228e-15)
(1760 2.58258e-09 1.41377e-15)
(1760 2.66339e-09 3.6206e-15)
(1760 2.74104e-09 3.75228e-15)
(1760 2.81165e-09 3.05941e-15)
(1760 2.87821e-09 2.78942e-15)
(1760 2.93758e-09 2.39655e-15)
(1760 2.99872e-09 4.39933e-15)
(1760 3.04701e-09 3.83884e-15)
(1760 3.09116e-09 3.35373e-15)
(1760 3.13022e-09 5.13485e-15)
(1760 3.15731e-09 4.18346e-15)
(1760 3.17885e-09 3.85827e-15)
(1760 3.19146e-09 3.99187e-15)
(1760 3.19942e-09 3.73063e-15)
(1760 3.19945e-09 3.82942e-15)
(1760 3.20244e-09 4.52581e-15)
(1760 3.19889e-09 1.40654e-15)
(1760 3.20149e-09 6.2884e-15)
(1760 3.18834e-09 -3.93796e-17)
(1760 3.17318e-09 3.69119e-15)
(1760 3.16216e-09 4.51771e-15)
(1760 3.14618e-09 4.73635e-15)
(1760 3.14372e-09 2.77476e-15)
(1760 3.12384e-09 -1.60908e-15)
(1760 3.12025e-09 3.02887e-15)
(1760 3.10261e-09 1.74291e-15)
(1760 3.09905e-09 3.0372e-15)
(1760 3.09347e-09 2.91373e-15)
(1760 3.0712e-09 -1.44092e-16)
(1760 3.03036e-09 4.98955e-15)
(1760 2.9781e-09 5.17708e-15)
(1760 2.91754e-09 4.03777e-15)
(1760 2.85799e-09 2.43553e-15)
(1760 2.80624e-09 2.60366e-15)
(1760 2.74652e-09 4.06551e-15)
(1760 2.67155e-09 3.76936e-15)
(1760 2.58407e-09 4.03756e-15)
(1760 2.51318e-09 5.0961e-15)
(1760 2.43145e-09 4.29137e-15)
(1760 2.35162e-09 7.92369e-16)
(1760 2.26994e-09 3.45627e-15)
(1760 2.18502e-09 1.77976e-15)
(1760 2.10054e-09 3.51379e-16)
(1760 2.01483e-09 3.63282e-15)
(1760 1.93605e-09 3.11418e-15)
(1760 1.8559e-09 3.18717e-15)
(1760 1.77011e-09 3.29246e-15)
(1760 1.69044e-09 2.53243e-15)
(1760 1.61336e-09 2.82089e-15)
(1760 1.54009e-09 2.46697e-15)
(1760 1.4833e-09 3.58754e-15)
(1760 1.41802e-09 2.0075e-15)
(1760 1.37165e-09 1.37158e-15)
(1760 1.29931e-09 3.97228e-15)
(1760 1.19826e-09 4.38507e-15)
(1760 1.08293e-09 3.69886e-15)
(1760 9.72409e-10 4.02881e-15)
(1760 8.51245e-10 3.65786e-15)
(1760 7.30529e-10 3.44193e-15)
(1760 6.23795e-10 2.21963e-15)
(1760 5.3278e-10 2.86846e-15)
(1760 4.41208e-10 3.52607e-15)
(1760 3.77718e-10 3.78996e-15)
(1760 3.1447e-10 3.49504e-15)
(1760 1.75163e-10 3.07308e-15)
(1760 -8.61511e-11 3.46869e-15)
(1760 -2.80072e-10 3.28633e-16)
(1760 -4.10577e-10 3.26659e-15)
(1760 -4.68495e-10 1.6139e-15)
(1760 -4.69891e-10 -4.51865e-16)
(1760 -4.50982e-10 -7.34547e-16)
(1760 -4.08937e-10 -1.12748e-16)
(1760 -3.60432e-10 3.06391e-16)
(1760 -2.81108e-10 1.0146e-15)
(1760 -1.92755e-10 7.76921e-16)
(1760 -1.06804e-10 5.97907e-16)
(1760 2.24351e-11 1.43832e-15)
(1760 1.3566e-10 1.00848e-15)
(1760 1.80222e-10 2.34527e-15)
(1760 1.85386e-10 1.38234e-15)
(1760 1.68998e-10 2.15963e-15)
(1760 1.24705e-10 1.18467e-15)
(1760 8.08343e-11 2.24778e-15)
(1760 1.4712e-11 2.45249e-15)
(1760 -7.28056e-11 1.00921e-15)
(1760 -1.43961e-10 2.61641e-15)
(1760 -1.81153e-10 3.35548e-15)
(1760 -1.9228e-10 1.99031e-15)
(1760 -1.85217e-10 1.68268e-15)
(1760 -1.57235e-10 6.48157e-16)
(1760 -1.16346e-10 3.88979e-16)
(1760 -5.14846e-11 2.83882e-15)
(1760 1.46575e-11 2.11541e-15)
(1760 5.08819e-11 -1.76917e-16)
(1760 5.78561e-11 2.02384e-16)
(1760 4.80871e-11 2.30821e-15)
(1760 2.60458e-11 8.93746e-16)
(1760 -1.5385e-12 1.59629e-15)
(1760 -3.53981e-11 1.78964e-15)
(1760 -6.58588e-11 1.47039e-15)
(1760 -8.66708e-11 2.83062e-15)
(1760 -1.03036e-10 1.77949e-15)
(1760 -1.08948e-10 2.32942e-15)
(1760 -1.09931e-10 1.60325e-15)
(1760 -1.01192e-10 1.16972e-15)
(1760 -8.72987e-11 4.59679e-16)
(1760 -7.30289e-11 1.71028e-15)
(1760 -5.74538e-11 6.2462e-16)
(1760 -3.91207e-11 1.31273e-15)
(1760 -2.40688e-11 9.64349e-16)
(1760 -1.65847e-11 1.67684e-15)
(1760 -1.64591e-11 2.82368e-15)
(1760 -1.98853e-11 1.59408e-15)
(1760 -2.16177e-11 8.4064e-16)
(1760 -2.29666e-11 3.85485e-16)
(1760 -2.11054e-11 1.69834e-15)
(1760 -1.85113e-11 1.70521e-15)
(1760 -1.86552e-11 1.53982e-15)
(1760 -2.27683e-11 8.98782e-16)
(1760 -2.64906e-11 2.98878e-16)
(1760 -3.12117e-11 6.11809e-16)
(1760 -3.00222e-11 1.4998e-15)
(1760 -2.75711e-11 1.2249e-15)
(1760 -2.77903e-11 6.38261e-16)
(1760 -2.61311e-11 1.01557e-15)
(1760 -3.10388e-11 2.39326e-16)
(1760 -3.64371e-11 9.63028e-16)
(1760 -4.13835e-11 1.70913e-15)
(1760 -4.69489e-11 1.02902e-15)
(1760 -5.08526e-11 1.76996e-15)
(1760 -5.18132e-11 1.37539e-15)
(1760 -5.07981e-11 7.43929e-16)
(1760 -4.91747e-11 1.65136e-15)
(1760 -4.71374e-11 1.88173e-15)
(1760 -4.32334e-11 1.35492e-15)
(1760 -3.61091e-11 1.2038e-15)
(1760 -2.9921e-11 1.12355e-15)
(1760 -2.29622e-11 1.09386e-15)
(1760 -1.97907e-10 1.38604e-14)
(1760 -1.97606e-10 1.45276e-14)
(1760 -1.96915e-10 1.22389e-14)
(1760 -1.9744e-10 1.18617e-14)
(1760 -1.98315e-10 1.06204e-14)
(1760 -1.98332e-10 1.08659e-14)
(1760 -1.98404e-10 9.15871e-15)
(1760 -1.96411e-10 1.1787e-14)
(1760 -1.96392e-10 1.37764e-14)
(1760 -1.9472e-10 1.09893e-14)
(1760 -1.94368e-10 1.16994e-14)
(1760 -1.94176e-10 1.37075e-14)
(1760 -1.92811e-10 1.61988e-14)
(1760 -1.92391e-10 1.54264e-14)
(1760 -1.91726e-10 1.46016e-14)
(1760 -1.91055e-10 1.43629e-14)
(1760 -1.92009e-10 1.15551e-14)
(1760 -3.47305e-10 4.31475e-15)
(1760 -3.85484e-10 6.24828e-15)
(1760 -4.19273e-10 9.02091e-15)
(1760 -4.57755e-10 8.76345e-15)
(1760 -4.91641e-10 8.62315e-15)
(1760 -5.24002e-10 8.8861e-15)
(1760 -5.63136e-10 7.36947e-15)
(1760 -5.96658e-10 8.7697e-15)
(1760 -6.14778e-10 9.91182e-15)
(1760 -5.71378e-10 5.78952e-15)
(1760 -5.0527e-10 5.7733e-15)
(1760 -3.38904e-10 7.6443e-15)
(1760 -3.37031e-11 8.98408e-15)
(1760 4.2244e-11 8.4496e-15)
(1760 1.55978e-10 6.81771e-15)
(1760 3.25894e-10 7.52237e-15)
(1760 5.12884e-10 8.4146e-15)
(1760 6.45843e-10 9.04435e-15)
(1760 7.81041e-10 1.28211e-14)
(1760 9.26244e-10 1.06716e-14)
(1760 1.04709e-09 1.15156e-14)
(1760 1.17739e-09 1.14886e-14)
(1760 1.34266e-09 1.08566e-14)
(1760 1.54362e-09 1.07127e-14)
(1760 1.73431e-09 1.03246e-14)
(1760 1.88203e-09 1.00386e-14)
(1760 2.06539e-09 9.86655e-15)
(1760 2.20709e-09 9.55456e-15)
(1760 2.38435e-09 9.153e-15)
(1760 2.35064e-09 9.32728e-15)
(1760 2.54896e-09 7.69463e-15)
(1760 2.84518e-09 1.00426e-14)
(1760 3.14871e-09 9.80032e-15)
(1760 3.49639e-09 8.96685e-15)
(1760 3.89311e-09 6.68967e-15)
(1760 4.30909e-09 8.81884e-15)
(1760 4.77897e-09 1.01099e-14)
(1760 5.31393e-09 7.65337e-15)
(1760 5.9064e-09 8.05106e-15)
(1760 6.55236e-09 1.04334e-14)
(1760 7.24437e-09 9.32757e-15)
(1760 7.96994e-09 1.09629e-14)
(1760 8.73383e-09 8.35221e-15)
(1760 9.55319e-09 8.47578e-15)
(1760 1.03997e-08 1.15309e-14)
(1760 1.1279e-08 9.30918e-15)
(1760 1.2202e-08 7.02713e-15)
(1760 1.31689e-08 6.80538e-15)
(1760 1.42193e-08 1.0128e-14)
(1760 1.53728e-08 7.15674e-15)
(1760 1.66587e-08 8.91046e-15)
(1760 1.80879e-08 9.51678e-15)
(1760 1.96699e-08 8.63638e-15)
(1760 2.14139e-08 8.60099e-15)
(1760 2.32862e-08 6.52371e-15)
(1760 2.52018e-08 6.85993e-15)
(1760 2.70844e-08 8.82919e-15)
(1760 2.88849e-08 8.46987e-15)
(1760 3.0558e-08 1.03209e-14)
(1760 3.20647e-08 8.49454e-15)
(1760 3.33787e-08 6.8773e-15)
(1760 3.44961e-08 7.76493e-15)
(1760 3.54234e-08 7.86285e-15)
(1760 3.61695e-08 8.0182e-15)
(1760 3.67495e-08 9.82798e-15)
(1760 3.71672e-08 9.10892e-15)
(1760 3.74357e-08 7.12485e-15)
(1760 3.75592e-08 7.28332e-15)
(1760 3.75664e-08 8.20835e-15)
(1760 3.75154e-08 7.66554e-15)
(1760 3.74694e-08 8.15573e-15)
(1760 3.72898e-08 5.71384e-15)
(1760 3.70378e-08 9.70704e-15)
(1760 3.67426e-08 4.94314e-15)
(1760 3.64361e-08 1.09496e-14)
(1760 3.60945e-08 9.35313e-15)
(1760 3.57362e-08 6.85213e-15)
(1760 3.54733e-08 7.25312e-15)
(1760 3.52096e-08 4.34796e-15)
(1760 3.48914e-08 6.16511e-15)
(1760 3.46444e-08 4.15403e-15)
(1760 3.44358e-08 4.58681e-15)
(1760 3.41055e-08 7.26493e-15)
(1760 3.3679e-08 7.67241e-15)
(1760 3.32797e-08 8.33267e-15)
(1760 3.28921e-08 8.23929e-15)
(1760 3.24294e-08 7.0036e-15)
(1760 3.18869e-08 6.21834e-15)
(1760 3.12408e-08 7.73144e-15)
(1760 3.0481e-08 7.87799e-15)
(1760 2.96462e-08 8.61141e-15)
(1760 2.87502e-08 8.62523e-15)
(1760 2.77825e-08 7.27499e-15)
(1760 2.67641e-08 7.1975e-15)
(1760 2.56974e-08 3.15573e-15)
(1760 2.45727e-08 6.72239e-15)
(1760 2.34076e-08 4.25044e-15)
(1760 2.22108e-08 4.8371e-15)
(1760 2.10067e-08 8.07794e-15)
(1760 1.97751e-08 5.38107e-15)
(1760 1.85249e-08 6.64331e-15)
(1760 1.72989e-08 5.36366e-15)
(1760 1.60722e-08 5.34802e-15)
(1760 1.48479e-08 7.17151e-15)
(1760 1.36447e-08 7.24558e-15)
(1760 1.24946e-08 6.70353e-15)
(1760 1.14042e-08 4.91897e-15)
(1760 1.03448e-08 6.71334e-15)
(1760 9.36744e-09 6.24765e-15)
(1760 8.45097e-09 6.1511e-15)
(1760 7.56712e-09 8.91873e-15)
(1760 6.74327e-09 1.01829e-14)
(1760 5.9625e-09 5.86135e-15)
(1760 5.22507e-09 6.58857e-15)
(1760 4.53823e-09 7.10568e-15)
(1760 3.92963e-09 4.86175e-15)
(1760 3.32827e-09 7.59706e-15)
(1760 2.85803e-09 9.19381e-15)
(1760 2.36062e-09 6.82758e-15)
(1760 1.92019e-09 6.88397e-15)
(1760 2.08697e-09 6.57931e-15)
(1760 1.91742e-09 4.874e-15)
(1760 1.62876e-09 9.88048e-15)
(1760 1.34984e-09 8.72202e-15)
(1760 1.1095e-09 6.25489e-15)
(1760 8.68653e-10 5.8181e-15)
(1760 6.56532e-10 5.9138e-15)
(1760 5.05479e-10 6.06064e-15)
(1760 2.38155e-10 5.30737e-15)
(1760 -2.927e-13 4.96879e-15)
(1760 -3.86899e-10 7.12505e-15)
(1760 -6.46208e-10 3.26318e-15)
(1760 -7.46246e-10 2.91408e-15)
(1760 -7.49792e-10 3.05555e-15)
(1760 -7.22608e-10 3.61875e-15)
(1760 -6.31766e-10 4.72428e-15)
(1760 -4.83037e-10 3.49419e-15)
(1760 -3.52651e-10 3.14283e-15)
(1760 -1.28604e-10 3.44667e-15)
(1760 7.11222e-11 5.42799e-15)
(1760 1.5669e-10 6.03962e-15)
(1760 1.84366e-10 6.87019e-15)
(1760 1.44192e-10 6.70638e-15)
(1760 6.60657e-11 6.47046e-15)
(1760 -3.27448e-11 6.71683e-15)
(1760 -1.75377e-10 6.47733e-15)
(1760 -2.99202e-10 5.08414e-15)
(1760 -3.69342e-10 6.18019e-15)
(1760 -3.95486e-10 4.7848e-15)
(1760 -3.78733e-10 3.71504e-15)
(1760 -3.3078e-10 4.29954e-15)
(1760 -2.75918e-10 4.67031e-15)
(1760 -1.98892e-10 5.41603e-15)
(1760 -1.28018e-10 6.30231e-15)
(1760 -7.09663e-11 5.4849e-15)
(1760 -3.49714e-11 6.25621e-15)
(1760 -2.06478e-11 5.41686e-15)
(1760 -2.82953e-11 6.40562e-15)
(1760 -5.01224e-11 6.06003e-15)
(1760 -8.14714e-11 4.17215e-15)
(1760 -1.13742e-10 4.82453e-15)
(1760 -1.40026e-10 4.23249e-15)
(1760 -1.80672e-10 3.92085e-15)
(1760 -2.20828e-10 6.26104e-15)
(1760 -2.46772e-10 3.35804e-15)
(1760 -2.50966e-10 4.38444e-15)
(1760 -2.49813e-10 5.6432e-15)
(1760 -2.54302e-10 6.40136e-15)
(1760 -2.53856e-10 4.44068e-15)
(1760 -2.50561e-10 4.73462e-15)
(1760 -2.48999e-10 4.04325e-15)
(1760 -2.45108e-10 2.76402e-15)
(1760 -2.38673e-10 4.30178e-15)
(1760 -2.26719e-10 5.07948e-15)
(1760 -2.16562e-10 4.06072e-15)
(1760 -2.1256e-10 4.72677e-15)
(1760 -2.12491e-10 3.99522e-15)
(1760 -2.04275e-10 3.5859e-15)
(1760 -1.95642e-10 3.15894e-15)
(1760 -1.85447e-10 3.96952e-15)
(1760 -1.75678e-10 4.14807e-15)
(1760 -1.67589e-10 4.55982e-15)
(1760 -1.65718e-10 4.71934e-15)
(1760 -1.58904e-10 4.71546e-15)
(1760 -1.58002e-10 3.00821e-15)
(1760 -1.61854e-10 2.18698e-15)
(1760 -1.7003e-10 4.33214e-15)
(1760 -1.79622e-10 5.28944e-15)
(1760 -1.89618e-10 6.2648e-15)
(1760 -2.04059e-10 6.37112e-15)
(1760 -2.2534e-10 6.45215e-15)
(1760 -2.32538e-10 5.21917e-15)
(1760 -2.41862e-10 4.01074e-15)
(1760 -3.29219e-10 1.84623e-14)
(1760 -3.28995e-10 2.12483e-14)
(1760 -3.27312e-10 2.04373e-14)
(1760 -3.26003e-10 2.03983e-14)
(1760 -3.2559e-10 2.28537e-14)
(1760 -3.25706e-10 2.1196e-14)
(1760 -3.26826e-10 2.05138e-14)
(1760 -3.2624e-10 1.98599e-14)
(1760 -3.27641e-10 2.03967e-14)
(1760 -3.30282e-10 2.00796e-14)
(1760 -3.31923e-10 1.99272e-14)
(1760 -3.32855e-10 2.50262e-14)
(1760 -3.35186e-10 1.78409e-14)
(1760 -3.34638e-10 1.74335e-14)
(1760 -3.34166e-10 2.16127e-14)
(1760 -3.32761e-10 2.09396e-14)
(1760 5.45065e-10 1.58714e-14)
(1760 6.50584e-10 1.63709e-14)
(1760 7.70823e-10 1.6273e-14)
(1760 8.89613e-10 1.64826e-14)
(1760 1.01023e-09 1.64823e-14)
(1760 1.14741e-09 1.60977e-14)
(1760 1.30461e-09 1.50702e-14)
(1760 1.47314e-09 1.82476e-14)
(1760 1.65652e-09 1.55137e-14)
(1760 1.85846e-09 1.58039e-14)
(1760 2.03113e-09 1.67413e-14)
(1760 1.99244e-09 1.54757e-14)
(1760 1.99025e-09 1.5848e-14)
(1760 2.28358e-09 1.48718e-14)
(1760 2.59913e-09 1.22537e-14)
(1760 2.96944e-09 1.31048e-14)
(1760 3.33742e-09 1.30877e-14)
(1760 3.71517e-09 1.46419e-14)
(1760 4.17671e-09 1.5923e-14)
(1760 4.70579e-09 1.29579e-14)
(1760 5.25325e-09 1.55967e-14)
(1760 5.84615e-09 1.58573e-14)
(1760 6.5509e-09 1.46868e-14)
(1760 7.36133e-09 1.48842e-14)
(1760 8.21431e-09 1.50521e-14)
(1760 9.21225e-09 1.42411e-14)
(1760 1.03162e-08 1.45379e-14)
(1760 1.15272e-08 1.38346e-14)
(1760 1.29477e-08 1.32947e-14)
(1760 1.43877e-08 1.45284e-14)
(1760 1.58956e-08 1.28862e-14)
(1760 1.75459e-08 1.35978e-14)
(1760 1.94143e-08 1.34521e-14)
(1760 2.15602e-08 1.33021e-14)
(1760 2.40018e-08 1.27095e-14)
(1760 2.6762e-08 1.56107e-14)
(1760 2.9933e-08 1.15666e-14)
(1760 3.36248e-08 1.27227e-14)
(1760 3.79266e-08 1.3692e-14)
(1760 4.29092e-08 1.35203e-14)
(1760 4.85896e-08 1.36934e-14)
(1760 5.49127e-08 1.57353e-14)
(1760 6.17667e-08 1.20493e-14)
(1760 6.90167e-08 1.36254e-14)
(1760 7.65124e-08 1.30483e-14)
(1760 8.41301e-08 1.32303e-14)
(1760 9.1845e-08 1.4775e-14)
(1760 9.97819e-08 1.44637e-14)
(1760 1.08142e-07 1.37568e-14)
(1760 1.17074e-07 1.21133e-14)
(1760 1.26558e-07 1.16191e-14)
(1760 1.364e-07 1.26674e-14)
(1760 1.46343e-07 1.2127e-14)
(1760 1.56204e-07 1.14031e-14)
(1760 1.65934e-07 1.25981e-14)
(1760 1.75547e-07 1.49982e-14)
(1760 1.85055e-07 1.22313e-14)
(1760 1.9439e-07 1.24892e-14)
(1760 2.03382e-07 1.38778e-14)
(1760 2.1182e-07 1.35094e-14)
(1760 2.19507e-07 1.29848e-14)
(1760 2.26312e-07 1.2617e-14)
(1760 2.32155e-07 1.35809e-14)
(1760 2.37035e-07 1.36463e-14)
(1760 2.41018e-07 1.13515e-14)
(1760 2.44169e-07 1.07108e-14)
(1760 2.46467e-07 1.35034e-14)
(1760 2.48082e-07 1.19623e-14)
(1760 2.48798e-07 1.24094e-14)
(1760 2.49088e-07 1.3377e-14)
(1760 2.49259e-07 1.35385e-14)
(1760 2.48697e-07 9.14263e-15)
(1760 2.47849e-07 1.21434e-14)
(1760 2.4695e-07 1.32849e-14)
(1760 2.45289e-07 1.22331e-14)
(1760 2.44224e-07 8.77908e-15)
(1760 2.42868e-07 1.29963e-14)
(1760 2.40577e-07 1.23866e-14)
(1760 2.39866e-07 1.0904e-14)
(1760 2.38197e-07 8.35436e-15)
(1760 2.35866e-07 1.02404e-14)
(1760 2.34447e-07 1.10741e-14)
(1760 2.33582e-07 1.34642e-14)
(1760 2.31796e-07 1.18718e-14)
(1760 2.28807e-07 1.09305e-14)
(1760 2.25064e-07 1.21452e-14)
(1760 2.20711e-07 1.07164e-14)
(1760 2.15756e-07 1.06524e-14)
(1760 2.10287e-07 9.68688e-15)
(1760 2.04457e-07 1.04663e-14)
(1760 1.98364e-07 1.28879e-14)
(1760 1.9195e-07 1.1805e-14)
(1760 1.85144e-07 9.72191e-15)
(1760 1.77955e-07 1.16939e-14)
(1760 1.70421e-07 8.80818e-15)
(1760 1.62616e-07 9.73986e-15)
(1760 1.54627e-07 8.74936e-15)
(1760 1.46485e-07 1.10873e-14)
(1760 1.38258e-07 1.00191e-14)
(1760 1.29978e-07 9.26621e-15)
(1760 1.21694e-07 9.66313e-15)
(1760 1.13471e-07 1.03738e-14)
(1760 1.05329e-07 8.77556e-15)
(1760 9.72603e-08 1.14837e-14)
(1760 8.93148e-08 1.17051e-14)
(1760 8.15376e-08 8.84375e-15)
(1760 7.3969e-08 8.4226e-15)
(1760 6.66262e-08 1.16102e-14)
(1760 5.95961e-08 1.02244e-14)
(1760 5.29316e-08 1.16088e-14)
(1760 4.66743e-08 1.167e-14)
(1760 4.08218e-08 1.20596e-14)
(1760 3.54522e-08 9.4115e-15)
(1760 3.06171e-08 1.01613e-14)
(1760 2.63613e-08 1.03826e-14)
(1760 2.27104e-08 9.62378e-15)
(1760 1.95492e-08 9.47251e-15)
(1760 1.70709e-08 1.12866e-14)
(1760 1.47127e-08 9.99997e-15)
(1760 1.26596e-08 1.02252e-14)
(1760 1.10642e-08 1.1336e-14)
(1760 9.54793e-09 9.47985e-15)
(1760 8.10576e-09 1.09226e-14)
(1760 6.75889e-09 1.1541e-14)
(1760 5.59181e-09 1.04287e-14)
(1760 4.52743e-09 1.02565e-14)
(1760 3.66041e-09 9.02962e-15)
(1760 2.98219e-09 1.04428e-14)
(1760 2.07919e-09 8.07721e-15)
(1760 2.01223e-09 8.04139e-15)
(1760 1.74854e-09 1.01451e-14)
(1760 1.29127e-09 9.37607e-15)
(1760 9.59907e-10 1.2017e-14)
(1760 6.53383e-10 1.05911e-14)
(1760 4.06794e-10 9.68097e-15)
(1760 1.97512e-10 9.50467e-15)
(1760 -1.15849e-10 9.18266e-15)
(1760 -4.0173e-10 8.40083e-15)
(1760 -7.35145e-10 1.03513e-14)
(1760 -8.38498e-10 7.45359e-15)
(1760 -8.15333e-10 7.35391e-15)
(1760 -7.41324e-10 7.68815e-15)
(1760 -6.06006e-10 8.12673e-15)
(1760 -4.18651e-10 8.08221e-15)
(1760 -2.74726e-10 7.99584e-15)
(1760 -6.60942e-11 7.31918e-15)
(1760 1.46478e-12 8.16327e-15)
(1760 -1.84364e-11 9.40364e-15)
(1760 -4.39874e-11 8.82788e-15)
(1760 -9.7053e-11 7.8896e-15)
(1760 -1.80018e-10 8.55123e-15)
(1760 -2.48479e-10 8.17686e-15)
(1760 -3.2736e-10 9.19167e-15)
(1760 -4.08419e-10 7.29062e-15)
(1760 -4.37136e-10 7.10314e-15)
(1760 -4.34394e-10 8.54761e-15)
(1760 -4.21525e-10 8.91901e-15)
(1760 -3.94708e-10 9.78481e-15)
(1760 -3.55436e-10 8.08855e-15)
(1760 -3.27495e-10 8.34822e-15)
(1760 -2.98874e-10 7.70347e-15)
(1760 -2.47622e-10 6.30318e-15)
(1760 -1.80974e-10 3.97892e-15)
(1760 -1.54614e-10 5.41827e-15)
(1760 -1.47339e-10 7.64726e-15)
(1760 -1.51223e-10 7.35037e-15)
(1760 -1.5062e-10 6.53176e-15)
(1760 -1.45016e-10 6.86821e-15)
(1760 -1.55537e-10 9.5005e-15)
(1760 -1.68204e-10 8.48124e-15)
(1760 -1.86475e-10 5.82121e-15)
(1760 -2.01861e-10 7.92002e-15)
(1760 -2.19405e-10 9.42506e-15)
(1760 -2.30609e-10 6.79155e-15)
(1760 -2.33673e-10 5.86219e-15)
(1760 -2.38538e-10 6.00766e-15)
(1760 -2.53598e-10 6.91487e-15)
(1760 -2.77797e-10 6.89132e-15)
(1760 -2.82433e-10 5.34777e-15)
(1760 -2.8354e-10 4.46376e-15)
(1760 -2.78532e-10 5.29974e-15)
(1760 -2.73238e-10 5.70383e-15)
(1760 -2.69539e-10 6.06892e-15)
(1760 -2.67128e-10 6.99311e-15)
(1760 -2.64368e-10 6.36198e-15)
(1760 -2.6127e-10 8.30229e-15)
(1760 -2.48306e-10 7.13068e-15)
(1760 -2.3645e-10 5.27271e-15)
(1760 -2.26841e-10 8.26871e-15)
(1760 -2.095e-10 7.10154e-15)
(1760 -1.98038e-10 6.21717e-15)
(1760 -1.93361e-10 7.05984e-15)
(1760 -1.76134e-10 7.12548e-15)
(1760 -4.71438e-10 2.81701e-14)
(1760 -4.71887e-10 2.61393e-14)
(1760 -4.69257e-10 2.64629e-14)
(1760 -4.66992e-10 2.9372e-14)
(1760 -4.6411e-10 2.86076e-14)
(1760 -4.59149e-10 2.51896e-14)
(1760 -4.55649e-10 2.66372e-14)
(1760 -4.5339e-10 2.60946e-14)
(1760 -4.49861e-10 2.48993e-14)
(1760 -4.45988e-10 2.68634e-14)
(1760 -4.44174e-10 3.04921e-14)
(1760 -4.41945e-10 2.98152e-14)
(1760 -4.41493e-10 2.77549e-14)
(1760 -4.41259e-10 2.59516e-14)
(1760 -4.4103e-10 2.62495e-14)
(1760 -4.41892e-10 2.61299e-14)
(1760 3.67896e-09 2.17458e-14)
(1760 4.03683e-09 2.06546e-14)
(1760 4.46209e-09 2.10104e-14)
(1760 4.92618e-09 2.02e-14)
(1760 5.43732e-09 2.22453e-14)
(1760 6.02512e-09 2.21382e-14)
(1760 6.70326e-09 1.92437e-14)
(1760 7.44543e-09 2.03437e-14)
(1760 8.33016e-09 2.20657e-14)
(1760 9.3878e-09 2.21222e-14)
(1760 1.04773e-08 2.02268e-14)
(1760 1.16933e-08 2.07734e-14)
(1760 1.32602e-08 1.90782e-14)
(1760 1.49866e-08 1.97943e-14)
(1760 1.66554e-08 2.08348e-14)
(1760 1.84559e-08 1.92307e-14)
(1760 2.05586e-08 1.96065e-14)
(1760 2.30467e-08 1.84349e-14)
(1760 2.5833e-08 1.77932e-14)
(1760 2.88111e-08 1.98433e-14)
(1760 3.19925e-08 2.10511e-14)
(1760 3.54915e-08 2.20422e-14)
(1760 3.9461e-08 2.11202e-14)
(1760 4.39751e-08 1.94566e-14)
(1760 4.91285e-08 1.8124e-14)
(1760 5.50993e-08 1.84356e-14)
(1760 6.20845e-08 1.88891e-14)
(1760 7.03612e-08 1.82805e-14)
(1760 8.00857e-08 2.11514e-14)
(1760 9.12259e-08 1.94245e-14)
(1760 1.0392e-07 1.62768e-14)
(1760 1.1824e-07 1.91344e-14)
(1760 1.34133e-07 1.74444e-14)
(1760 1.5157e-07 1.77731e-14)
(1760 1.70739e-07 1.88096e-14)
(1760 1.92039e-07 1.89404e-14)
(1760 2.15875e-07 1.89106e-14)
(1760 2.42428e-07 1.98723e-14)
(1760 2.71601e-07 1.82446e-14)
(1760 3.03098e-07 1.64441e-14)
(1760 3.36737e-07 1.88219e-14)
(1760 3.72601e-07 1.74297e-14)
(1760 4.10767e-07 1.75552e-14)
(1760 4.51243e-07 1.84273e-14)
(1760 4.94066e-07 1.82996e-14)
(1760 5.39296e-07 1.77818e-14)
(1760 5.87096e-07 1.74941e-14)
(1760 6.37984e-07 1.67444e-14)
(1760 6.93118e-07 1.793e-14)
(1760 7.54334e-07 1.47875e-14)
(1760 8.23759e-07 1.49269e-14)
(1760 9.03e-07 1.79618e-14)
(1760 9.92199e-07 1.76401e-14)
(1760 1.08946e-06 1.70144e-14)
(1760 1.1913e-06 1.78649e-14)
(1760 1.2937e-06 1.82578e-14)
(1760 1.39309e-06 1.63279e-14)
(1760 1.48666e-06 1.69107e-14)
(1760 1.57243e-06 1.80064e-14)
(1760 1.64918e-06 1.79869e-14)
(1760 1.71635e-06 1.81844e-14)
(1760 1.77386e-06 1.7149e-14)
(1760 1.82202e-06 1.6145e-14)
(1760 1.86134e-06 1.71258e-14)
(1760 1.89259e-06 1.44089e-14)
(1760 1.91642e-06 1.51264e-14)
(1760 1.93315e-06 1.79166e-14)
(1760 1.9433e-06 1.66745e-14)
(1760 1.94642e-06 1.68682e-14)
(1760 1.94525e-06 1.69512e-14)
(1760 1.94217e-06 1.69824e-14)
(1760 1.938e-06 1.55708e-14)
(1760 1.92906e-06 1.46e-14)
(1760 1.91622e-06 1.60994e-14)
(1760 1.90234e-06 1.74601e-14)
(1760 1.88616e-06 1.39273e-14)
(1760 1.86778e-06 1.68394e-14)
(1760 1.85189e-06 1.55839e-14)
(1760 1.83626e-06 1.68211e-14)
(1760 1.81762e-06 1.36136e-14)
(1760 1.8027e-06 1.80564e-14)
(1760 1.78713e-06 1.54714e-14)
(1760 1.76804e-06 1.58923e-14)
(1760 1.74485e-06 1.50856e-14)
(1760 1.7212e-06 1.60939e-14)
(1760 1.6968e-06 1.64575e-14)
(1760 1.67021e-06 1.46946e-14)
(1760 1.64076e-06 1.47771e-14)
(1760 1.60809e-06 1.3128e-14)
(1760 1.57176e-06 1.49625e-14)
(1760 1.53143e-06 1.68853e-14)
(1760 1.4872e-06 1.54511e-14)
(1760 1.4396e-06 1.46012e-14)
(1760 1.38915e-06 1.61505e-14)
(1760 1.33611e-06 1.38114e-14)
(1760 1.28062e-06 1.3781e-14)
(1760 1.22289e-06 1.29005e-14)
(1760 1.16323e-06 1.43028e-14)
(1760 1.10209e-06 1.4934e-14)
(1760 1.04006e-06 1.29612e-14)
(1760 9.77662e-07 1.41345e-14)
(1760 9.15405e-07 1.39735e-14)
(1760 8.53746e-07 1.34655e-14)
(1760 7.93028e-07 1.47129e-14)
(1760 7.33513e-07 1.40112e-14)
(1760 6.75409e-07 1.28299e-14)
(1760 6.18832e-07 1.42429e-14)
(1760 5.63776e-07 1.47503e-14)
(1760 5.1028e-07 1.36837e-14)
(1760 4.58434e-07 1.26635e-14)
(1760 4.08469e-07 1.39973e-14)
(1760 3.60676e-07 1.64442e-14)
(1760 3.15546e-07 1.32626e-14)
(1760 2.73302e-07 1.31123e-14)
(1760 2.34102e-07 1.37962e-14)
(1760 1.97738e-07 1.20541e-14)
(1760 1.64262e-07 1.26653e-14)
(1760 1.34458e-07 1.33395e-14)
(1760 1.0847e-07 1.40343e-14)
(1760 8.6959e-08 1.6922e-14)
(1760 6.9833e-08 1.49079e-14)
(1760 5.63033e-08 1.24996e-14)
(1760 4.54777e-08 1.37759e-14)
(1760 3.67057e-08 1.52299e-14)
(1760 2.96522e-08 1.33195e-14)
(1760 2.3887e-08 1.4825e-14)
(1760 1.95615e-08 1.24201e-14)
(1760 1.60477e-08 1.25795e-14)
(1760 1.30158e-08 1.5015e-14)
(1760 1.09236e-08 1.29189e-14)
(1760 8.9807e-09 1.35975e-14)
(1760 7.18611e-09 1.30633e-14)
(1760 5.66921e-09 1.31331e-14)
(1760 4.32569e-09 1.27424e-14)
(1760 3.38379e-09 1.29368e-14)
(1760 2.3786e-09 1.21485e-14)
(1760 1.66691e-09 1.34305e-14)
(1760 1.6131e-09 1.43152e-14)
(1760 1.22803e-09 1.22959e-14)
(1760 8.39815e-10 1.29669e-14)
(1760 5.25598e-10 1.10807e-14)
(1760 3.21506e-10 1.18797e-14)
(1760 5.37465e-12 1.27016e-14)
(1760 -1.71002e-10 1.25593e-14)
(1760 -5.3988e-10 1.02108e-14)
(1760 -8.20333e-10 1.31322e-14)
(1760 -8.93446e-10 1.1778e-14)
(1760 -8.84709e-10 1.15661e-14)
(1760 -8.10165e-10 1.1098e-14)
(1760 -6.67033e-10 1.12194e-14)
(1760 -5.66487e-10 1.19824e-14)
(1760 -4.46998e-10 9.48908e-15)
(1760 -2.42126e-10 9.95197e-15)
(1760 -1.2492e-10 8.51337e-15)
(1760 -9.38202e-11 9.81311e-15)
(1760 -1.04384e-10 8.92934e-15)
(1760 -1.23751e-10 1.02776e-14)
(1760 -1.64257e-10 1.11822e-14)
(1760 -2.12635e-10 1.21316e-14)
(1760 -2.79763e-10 1.02642e-14)
(1760 -3.95449e-10 1.36169e-14)
(1760 -4.8932e-10 1.24781e-14)
(1760 -5.37107e-10 1.31095e-14)
(1760 -5.57727e-10 9.45863e-15)
(1760 -5.62804e-10 1.07808e-14)
(1760 -5.60343e-10 1.07247e-14)
(1760 -5.59953e-10 9.51349e-15)
(1760 -5.39046e-10 8.88188e-15)
(1760 -5.14685e-10 9.37857e-15)
(1760 -4.85641e-10 7.11338e-15)
(1760 -4.70443e-10 1.11327e-14)
(1760 -4.50441e-10 9.62353e-15)
(1760 -4.33246e-10 9.83214e-15)
(1760 -4.31499e-10 1.19745e-14)
(1760 -4.22735e-10 1.11502e-14)
(1760 -4.13072e-10 9.86808e-15)
(1760 -4.00379e-10 1.07348e-14)
(1760 -4.02771e-10 1.00286e-14)
(1760 -4.14199e-10 9.48269e-15)
(1760 -4.09817e-10 9.10447e-15)
(1760 -3.99315e-10 9.56529e-15)
(1760 -3.95258e-10 9.07522e-15)
(1760 -3.81706e-10 8.52342e-15)
(1760 -3.76042e-10 9.38452e-15)
(1760 -3.75333e-10 9.23983e-15)
(1760 -3.76604e-10 8.9381e-15)
(1760 -3.9165e-10 8.37814e-15)
(1760 -4.14521e-10 7.77561e-15)
(1760 -4.3636e-10 9.39655e-15)
(1760 -4.61476e-10 1.04652e-14)
(1760 -4.90969e-10 9.92294e-15)
(1760 -5.16211e-10 9.26338e-15)
(1760 -5.5035e-10 8.62944e-15)
(1760 -5.95715e-10 3.37056e-14)
(1760 -5.98134e-10 3.4646e-14)
(1760 -6.01967e-10 3.84019e-14)
(1760 -6.07682e-10 4.03977e-14)
(1760 -6.11115e-10 3.57007e-14)
(1760 -6.16032e-10 3.51646e-14)
(1760 -6.18751e-10 3.71598e-14)
(1760 -6.2182e-10 3.72688e-14)
(1760 -6.241e-10 3.58578e-14)
(1760 -6.25407e-10 3.87638e-14)
(1760 -6.2641e-10 3.94306e-14)
(1760 -6.26285e-10 3.72656e-14)
(1760 -6.2392e-10 3.60841e-14)
(1760 -6.2193e-10 3.37445e-14)
(1760 -6.16403e-10 3.35609e-14)
(1760 2.18347e-08 2.77652e-14)
(1760 2.44288e-08 2.64269e-14)
(1760 2.73186e-08 2.57189e-14)
(1760 3.05255e-08 2.49036e-14)
(1760 3.40896e-08 2.74252e-14)
(1760 3.80701e-08 2.54555e-14)
(1760 4.24719e-08 2.44921e-14)
(1760 4.72823e-08 2.63565e-14)
(1760 5.25531e-08 2.66324e-14)
(1760 5.82774e-08 2.7351e-14)
(1760 6.45504e-08 2.58556e-14)
(1760 7.1625e-08 2.5449e-14)
(1760 7.95957e-08 2.67357e-14)
(1760 8.84531e-08 2.69611e-14)
(1760 9.84376e-08 2.44357e-14)
(1760 1.10205e-07 2.56082e-14)
(1760 1.24313e-07 2.71714e-14)
(1760 1.40948e-07 2.46367e-14)
(1760 1.60174e-07 2.60255e-14)
(1760 1.82144e-07 2.41279e-14)
(1760 2.07011e-07 2.28179e-14)
(1760 2.34833e-07 2.40606e-14)
(1760 2.65726e-07 2.36418e-14)
(1760 3.00018e-07 2.40344e-14)
(1760 3.38371e-07 2.35726e-14)
(1760 3.81618e-07 2.38783e-14)
(1760 4.30395e-07 2.46796e-14)
(1760 4.84894e-07 2.41999e-14)
(1760 5.44969e-07 2.53934e-14)
(1760 6.10597e-07 2.43041e-14)
(1760 6.82463e-07 2.35794e-14)
(1760 7.61932e-07 2.30528e-14)
(1760 8.5068e-07 2.32078e-14)
(1760 9.50601e-07 2.40753e-14)
(1760 1.06415e-06 2.35299e-14)
(1760 1.19481e-06 2.41157e-14)
(1760 1.34754e-06 2.40459e-14)
(1760 1.52818e-06 2.42477e-14)
(1760 1.74172e-06 2.30579e-14)
(1760 1.99072e-06 2.07895e-14)
(1760 2.27342e-06 2.09664e-14)
(1760 2.58402e-06 2.1968e-14)
(1760 2.91522e-06 2.23971e-14)
(1760 3.25926e-06 2.12206e-14)
(1760 3.60846e-06 2.02253e-14)
(1760 3.95856e-06 2.07715e-14)
(1760 4.31272e-06 2.12751e-14)
(1760 4.68078e-06 2.15051e-14)
(1760 5.07332e-06 2.18905e-14)
(1760 5.49456e-06 2.06816e-14)
(1760 5.93921e-06 2.24254e-14)
(1760 6.39598e-06 2.20421e-14)
(1760 6.85583e-06 2.3087e-14)
(1760 7.31712e-06 2.07442e-14)
(1760 7.78292e-06 2.10956e-14)
(1760 8.25472e-06 2.24451e-14)
(1760 8.72844e-06 2.20462e-14)
(1760 9.19448e-06 2.34363e-14)
(1760 9.6405e-06 2.07321e-14)
(1760 1.00547e-05 1.80236e-14)
(1760 1.04285e-05 2.17143e-14)
(1760 1.07574e-05 2.36323e-14)
(1760 1.10404e-05 1.96403e-14)
(1760 1.12796e-05 2.00705e-14)
(1760 1.14781e-05 2.08275e-14)
(1760 1.16407e-05 2.0765e-14)
(1760 1.17691e-05 2.12668e-14)
(1760 1.18644e-05 2.09752e-14)
(1760 1.19307e-05 2.09298e-14)
(1760 1.19622e-05 2.08091e-14)
(1760 1.19765e-05 1.40942e-14)
(1760 1.19813e-05 3.12516e-14)
(1760 1.19615e-05 1.4784e-14)
(1760 1.19449e-05 2.29476e-14)
(1760 1.18606e-05 2.36907e-14)
(1760 1.18538e-05 1.71381e-14)
(1760 1.17669e-05 2.06797e-14)
(1760 1.1649e-05 1.88743e-14)
(1760 1.16214e-05 2.23347e-14)
(1760 1.15297e-05 1.83239e-14)
(1760 1.13835e-05 2.1172e-14)
(1760 1.12752e-05 1.86137e-14)