# Force      
# CofR       : (0.000000e+00 0.000000e+00 0.000000e+00)
#            
# Time       	(total_x total_y total_z)	(pressure_x pressure_y pressure_z)	(viscous_x viscous_y viscous_z)
2.000195e-05	(3.879997e-03 -7.431645e-03 3.710329e-16)	(3.597778e-03 -7.275718e-03 2.229554e-22)	(2.822191e-04 -1.559269e-04 3.710327e-16)
2.000390e-05	(3.873558e-03 -7.418165e-03 3.709671e-16)	(3.598555e-03 -7.277381e-03 2.228610e-22)	(2.750027e-04 -1.407840e-04 3.709669e-16)
2.000585e-05	(3.878134e-03 -7.427839e-03 3.708967e-16)	(3.599314e-03 -7.279002e-03 2.227682e-22)	(2.788204e-04 -1.488367e-04 3.708965e-16)
2.000780e-05	(3.877054e-03 -7.425466e-03 3.708266e-16)	(3.600088e-03 -7.280659e-03 2.226758e-22)	(2.769657e-04 -1.448070e-04 3.708264e-16)
2.000975e-05	(3.878729e-03 -7.428975e-03 3.707565e-16)	(3.600856e-03 -7.282301e-03 2.225842e-22)	(2.778725e-04 -1.466742e-04 3.707563e-16)
2.001170e-05	(3.879097e-03 -7.429691e-03 3.706864e-16)	(3.601628e-03 -7.283952e-03 2.224937e-22)	(2.774693e-04 -1.457388e-04 3.706861e-16)
2.001365e-05	(3.880108e-03 -7.431778e-03 3.706162e-16)	(3.602399e-03 -7.285601e-03 2.224041e-22)	(2.777087e-04 -1.461772e-04 3.706159e-16)
2.001559e-05	(3.880813e-03 -7.433212e-03 3.705460e-16)	(3.603171e-03 -7.287252e-03 2.223156e-22)	(2.776420e-04 -1.459599e-04 3.705457e-16)
2.001754e-05	(3.881672e-03 -7.434973e-03 3.704757e-16)	(3.603943e-03 -7.288903e-03 2.222281e-22)	(2.777288e-04 -1.460703e-04 3.704754e-16)
2.001949e-05	(3.882458e-03 -7.436578e-03 3.704054e-16)	(3.604715e-03 -7.290555e-03 2.221417e-22)	(2.777424e-04 -1.460234e-04 3.704051e-16)
2.002144e-05	(3.883283e-03 -7.438266e-03 3.703350e-16)	(3.605488e-03 -7.292207e-03 2.220564e-22)	(2.777944e-04 -1.460585e-04 3.703348e-16)
2.002339e-05	(3.884090e-03 -7.439916e-03 3.702646e-16)	(3.606261e-03 -7.293860e-03 2.219722e-22)	(2.778290e-04 -1.460556e-04 3.702644e-16)
2.002534e-05	(3.884908e-03 -7.441588e-03 3.701942e-16)	(3.607034e-03 -7.295514e-03 2.218890e-22)	(2.778738e-04 -1.460742e-04 3.701940e-16)
2.002729e-05	(3.885722e-03 -7.443251e-03 3.701237e-16)	(3.607807e-03 -7.297167e-03 2.218070e-22)	(2.779146e-04 -1.460839e-04 3.701235e-16)
2.002924e-05	(3.886539e-03 -7.444921e-03 3.700532e-16)	(3.608581e-03 -7.298821e-03 2.217261e-22)	(2.779584e-04 -1.460996e-04 3.700530e-16)
2.003119e-05	(3.887356e-03 -7.446589e-03 3.699826e-16)	(3.609354e-03 -7.300476e-03 2.216463e-22)	(2.780014e-04 -1.461134e-04 3.699824e-16)
2.003314e-05	(3.888174e-03 -7.448260e-03 3.699119e-16)	(3.610128e-03 -7.302131e-03 2.215676e-22)	(2.780455e-04 -1.461291e-04 3.699117e-16)
2.003509e-05	(3.888991e-03 -7.449929e-03 3.698412e-16)	(3.610902e-03 -7.303786e-03 2.214901e-22)	(2.780888e-04 -1.461430e-04 3.698410e-16)
2.003704e-05	(3.889809e-03 -7.451600e-03 3.697706e-16)	(3.611676e-03 -7.305441e-03 2.214136e-22)	(2.781328e-04 -1.461583e-04 3.697704e-16)
2.003899e-05	(3.890627e-03 -7.453270e-03 3.696998e-16)	(3.612450e-03 -7.307097e-03 2.213383e-22)	(2.781769e-04 -1.461734e-04 3.696996e-16)
2.004094e-05	(3.891446e-03 -7.454942e-03 3.696290e-16)	(3.613225e-03 -7.308753e-03 2.212641e-22)	(2.782212e-04 -1.461889e-04 3.696288e-16)
2.004288e-05	(3.892265e-03 -7.456614e-03 3.695581e-16)	(3.613999e-03 -7.310409e-03 2.211911e-22)	(2.782656e-04 -1.462045e-04 3.695579e-16)
2.004483e-05	(3.893084e-03 -7.458286e-03 3.694873e-16)	(3.614774e-03 -7.312065e-03 2.211191e-22)	(2.783102e-04 -1.462204e-04 3.694871e-16)
2.004678e-05	(3.893904e-03 -7.459960e-03 3.694163e-16)	(3.615548e-03 -7.313722e-03 2.210483e-22)	(2.783555e-04 -1.462376e-04 3.694161e-16)
2.004873e-05	(3.894724e-03 -7.461633e-03 3.693453e-16)	(3.616323e-03 -7.315379e-03 2.209786e-22)	(2.784005e-04 -1.462539e-04 3.693451e-16)
2.005068e-05	(3.895544e-03 -7.463308e-03 3.692744e-16)	(3.617098e-03 -7.317037e-03 2.209101e-22)	(2.784459e-04 -1.462709e-04 3.692741e-16)
2.005263e-05	(3.896364e-03 -7.464982e-03 3.692033e-16)	(3.617873e-03 -7.318695e-03 2.208426e-22)	(2.784912e-04 -1.462878e-04 3.692031e-16)
2.005458e-05	(3.897185e-03 -7.466657e-03 3.691322e-16)	(3.618648e-03 -7.320353e-03 2.207764e-22)	(2.785368e-04 -1.463048e-04 3.691320e-16)
2.005653e-05	(3.898006e-03 -7.468333e-03 3.690611e-16)	(3.619424e-03 -7.322011e-03 2.207112e-22)	(2.785824e-04 -1.463220e-04 3.690608e-16)
2.005848e-05	(3.898827e-03 -7.470009e-03 3.689899e-16)	(3.620199e-03 -7.323670e-03 2.206472e-22)	(2.786281e-04 -1.463392e-04 3.689897e-16)
2.006043e-05	(3.899649e-03 -7.471685e-03 3.689186e-16)	(3.620975e-03 -7.325328e-03 2.205843e-22)	(2.786739e-04 -1.463564e-04 3.689184e-16)
2.006238e-05	(3.900470e-03 -7.473361e-03 3.688473e-16)	(3.621751e-03 -7.326987e-03 2.205225e-22)	(2.787198e-04 -1.463737e-04 3.688471e-16)
2.006433e-05	(3.901292e-03 -7.475038e-03 3.687760e-16)	(3.622526e-03 -7.328647e-03 2.204619e-22)	(2.787657e-04 -1.463911e-04 3.687758e-16)
2.006628e-05	(3.902114e-03 -7.476715e-03 3.687047e-16)	(3.623302e-03 -7.330306e-03 2.204025e-22)	(2.788118e-04 -1.464085e-04 3.687044e-16)
2.006823e-05	(3.902936e-03 -7.478392e-03 3.686333e-16)	(3.624078e-03 -7.331966e-03 2.203442e-22)	(2.788579e-04 -1.464260e-04 3.686331e-16)
2.007018e-05	(3.903759e-03 -7.480070e-03 3.685618e-16)	(3.624855e-03 -7.333626e-03 2.202870e-22)	(2.789040e-04 -1.464435e-04 3.685616e-16)
2.007212e-05	(3.904581e-03 -7.481748e-03 3.684904e-16)	(3.625631e-03 -7.335287e-03 2.202310e-22)	(2.789503e-04 -1.464611e-04 3.684902e-16)
2.007407e-05	(3.905404e-03 -7.483426e-03 3.684189e-16)	(3.626407e-03 -7.336947e-03 2.201761e-22)	(2.789966e-04 -1.464788e-04 3.684186e-16)
2.007602e-05	(3.906227e-03 -7.485104e-03 3.683473e-16)	(3.627184e-03 -7.338608e-03 2.201223e-22)	(2.790430e-04 -1.464966e-04 3.683471e-16)
2.007797e-05	(3.907050e-03 -7.486783e-03 3.682757e-16)	(3.627960e-03 -7.340269e-03 2.200697e-22)	(2.790895e-04 -1.465144e-04 3.682755e-16)
2.007992e-05	(3.907873e-03 -7.488462e-03 3.682040e-16)	(3.628737e-03 -7.341930e-03 2.200183e-22)	(2.791360e-04 -1.465322e-04 3.682038e-16)
2.008187e-05	(3.908697e-03 -7.490142e-03 3.681323e-16)	(3.629514e-03 -7.343591e-03 2.199680e-22)	(2.791827e-04 -1.465502e-04 3.681321e-16)
2.008382e-05	(3.909520e-03 -7.491821e-03 3.680606e-16)	(3.630291e-03 -7.345253e-03 2.199189e-22)	(2.792294e-04 -1.465682e-04 3.680604e-16)
2.008577e-05	(3.910344e-03 -7.493501e-03 3.679889e-16)	(3.631068e-03 -7.346915e-03 2.198709e-22)	(2.792761e-04 -1.465862e-04 3.679886e-16)
2.008772e-05	(3.911168e-03 -7.495181e-03 3.679170e-16)	(3.631845e-03 -7.348577e-03 2.198241e-22)	(2.793229e-04 -1.466044e-04 3.679168e-16)
2.008967e-05	(3.911992e-03 -7.496862e-03 3.678452e-16)	(3.632622e-03 -7.350239e-03 2.197784e-22)	(2.793698e-04 -1.466226e-04 3.678450e-16)
2.009162e-05	(3.912816e-03 -7.498542e-03 3.677733e-16)	(3.633399e-03 -7.351901e-03 2.197338e-22)	(2.794167e-04 -1.466408e-04 3.677731e-16)
2.009357e-05	(3.913640e-03 -7.500223e-03 3.677014e-16)	(3.634177e-03 -7.353564e-03 2.196905e-22)	(2.794637e-04 -1.466590e-04 3.677011e-16)
2.009552e-05	(3.914464e-03 -7.501903e-03 3.676294e-16)	(3.634954e-03 -7.355227e-03 2.196482e-22)	(2.795100e-04 -1.466759e-04 3.676292e-16)
2.009747e-05	(3.915288e-03 -7.503582e-03 3.675574e-16)	(3.635732e-03 -7.356890e-03 2.196072e-22)	(2.795562e-04 -1.466925e-04 3.675571e-16)
2.009942e-05	(3.916112e-03 -7.505263e-03 3.674853e-16)	(3.636509e-03 -7.358553e-03 2.195671e-22)	(2.796029e-04 -1.467101e-04 3.674851e-16)
2.010136e-05	(3.916936e-03 -7.506944e-03 3.674132e-16)	(3.637287e-03 -7.360217e-03 2.195279e-22)	(2.796493e-04 -1.467271e-04 3.674130e-16)
2.010331e-05	(3.917761e-03 -7.508625e-03 3.673411e-16)	(3.638065e-03 -7.361881e-03 2.194898e-22)	(2.796958e-04 -1.467443e-04 3.673409e-16)
2.010526e-05	(3.918585e-03 -7.510306e-03 3.672689e-16)	(3.638843e-03 -7.363545e-03 2.194527e-22)	(2.797424e-04 -1.467615e-04 3.672687e-16)
2.010721e-05	(3.919410e-03 -7.511988e-03 3.671967e-16)	(3.639621e-03 -7.365209e-03 2.194166e-22)	(2.797889e-04 -1.467787e-04 3.671965e-16)
2.010916e-05	(3.920235e-03 -7.513670e-03 3.671244e-16)	(3.640400e-03 -7.366874e-03 2.193815e-22)	(2.798355e-04 -1.467959e-04 3.671242e-16)
2.011111e-05	(3.921060e-03 -7.515352e-03 3.670522e-16)	(3.641178e-03 -7.368539e-03 2.193475e-22)	(2.798821e-04 -1.468131e-04 3.670520e-16)
2.011306e-05	(3.921885e-03 -7.517034e-03 3.669799e-16)	(3.641956e-03 -7.370204e-03 2.193146e-22)	(2.799287e-04 -1.468303e-04 3.669797e-16)
2.011501e-05	(3.922710e-03 -7.518716e-03 3.669075e-16)	(3.642735e-03 -7.371869e-03 2.192827e-22)	(2.799753e-04 -1.468475e-04 3.669073e-16)
2.011696e-05	(3.923536e-03 -7.520399e-03 3.668351e-16)	(3.643514e-03 -7.373535e-03 2.192519e-22)	(2.800220e-04 -1.468647e-04 3.668348e-16)
2.011891e-05	(3.924361e-03 -7.522082e-03 3.667626e-16)	(3.644293e-03 -7.375200e-03 2.192221e-22)	(2.800686e-04 -1.468819e-04 3.667624e-16)
2.012085e-05	(3.925207e-03 -7.523808e-03 3.666903e-16)	(3.645070e-03 -7.376862e-03 2.191936e-22)	(2.801378e-04 -1.469461e-04 3.666900e-16)
2.012280e-05	(3.926032e-03 -7.525487e-03 3.666179e-16)	(3.645847e-03 -7.378525e-03 2.191661e-22)	(2.801849e-04 -1.469624e-04 3.666176e-16)
2.012474e-05	(3.926856e-03 -7.527167e-03 3.665455e-16)	(3.646624e-03 -7.380188e-03 2.191397e-22)	(2.802318e-04 -1.469791e-04 3.665452e-16)
2.012669e-05	(3.927681e-03 -7.528848e-03 3.664729e-16)	(3.647402e-03 -7.381851e-03 2.191144e-22)	(2.802795e-04 -1.469975e-04 3.664727e-16)
2.012863e-05	(3.928506e-03 -7.530529e-03 3.664005e-16)	(3.648180e-03 -7.383514e-03 2.190902e-22)	(2.803267e-04 -1.470145e-04 3.664003e-16)
2.013058e-05	(3.929331e-03 -7.532210e-03 3.663279e-16)	(3.648957e-03 -7.385178e-03 2.190671e-22)	(2.803740e-04 -1.470322e-04 3.663277e-16)
2.013252e-05	(3.930156e-03 -7.533891e-03 3.662553e-16)	(3.649735e-03 -7.386841e-03 2.190451e-22)	(2.804213e-04 -1.470495e-04 3.662551e-16)
2.013447e-05	(3.930981e-03 -7.535572e-03 3.661827e-16)	(3.650513e-03 -7.388505e-03 2.190242e-22)	(2.804686e-04 -1.470670e-04 3.661825e-16)
2.013641e-05	(3.931807e-03 -7.537253e-03 3.661101e-16)	(3.651291e-03 -7.390169e-03 2.190044e-22)	(2.805158e-04 -1.470844e-04 3.661098e-16)
2.013836e-05	(3.932632e-03 -7.538935e-03 3.660373e-16)	(3.652069e-03 -7.391833e-03 2.189858e-22)	(2.805631e-04 -1.471018e-04 3.660371e-16)
2.014030e-05	(3.933458e-03 -7.540617e-03 3.659646e-16)	(3.652847e-03 -7.393498e-03 2.189683e-22)	(2.806105e-04 -1.471194e-04 3.659644e-16)
2.014225e-05	(3.934283e-03 -7.542299e-03 3.658919e-16)	(3.653625e-03 -7.395162e-03 2.189519e-22)	(2.806578e-04 -1.471369e-04 3.658917e-16)
2.014419e-05	(3.935109e-03 -7.543981e-03 3.658191e-16)	(3.654404e-03 -7.396827e-03 2.189366e-22)	(2.807052e-04 -1.471545e-04 3.658189e-16)
2.014614e-05	(3.935935e-03 -7.545664e-03 3.657463e-16)	(3.655182e-03 -7.398492e-03 2.189225e-22)	(2.807526e-04 -1.471721e-04 3.657460e-16)
2.014808e-05	(3.936761e-03 -7.547347e-03 3.656734e-16)	(3.655961e-03 -7.400157e-03 2.189094e-22)	(2.808001e-04 -1.471899e-04 3.656732e-16)
2.015003e-05	(3.937587e-03 -7.549030e-03 3.656005e-16)	(3.656739e-03 -7.401822e-03 2.188975e-22)	(2.808475e-04 -1.472077e-04 3.656003e-16)
2.015197e-05	(3.938413e-03 -7.550713e-03 3.655275e-16)	(3.657518e-03 -7.403488e-03 2.188868e-22)	(2.808947e-04 -1.472249e-04 3.655273e-16)
2.015392e-05	(3.939238e-03 -7.552395e-03 3.654545e-16)	(3.658297e-03 -7.405154e-03 2.188771e-22)	(2.809415e-04 -1.472412e-04 3.654543e-16)
2.015586e-05	(3.940064e-03 -7.554078e-03 3.653815e-16)	(3.659076e-03 -7.406820e-03 2.188686e-22)	(2.809885e-04 -1.472580e-04 3.653813e-16)
2.015781e-05	(3.940890e-03 -7.555761e-03 3.653085e-16)	(3.659855e-03 -7.408487e-03 2.188612e-22)	(2.810353e-04 -1.472745e-04 3.653083e-16)
2.015975e-05	(3.941716e-03 -7.557444e-03 3.652354e-16)	(3.660634e-03 -7.410153e-03 2.188549e-22)	(2.810822e-04 -1.472910e-04 3.652352e-16)
2.016170e-05	(3.942542e-03 -7.559128e-03 3.651622e-16)	(3.661413e-03 -7.411820e-03 2.188497e-22)	(2.811291e-04 -1.473076e-04 3.651620e-16)
2.016364e-05	(3.943369e-03 -7.560811e-03 3.650891e-16)	(3.662193e-03 -7.413487e-03 2.188456e-22)	(2.811759e-04 -1.473241e-04 3.650889e-16)
2.016559e-05	(3.944195e-03 -7.562495e-03 3.650159e-16)	(3.662972e-03 -7.415155e-03 2.188427e-22)	(2.812228e-04 -1.473407e-04 3.650156e-16)
2.016753e-05	(3.945022e-03 -7.564180e-03 3.649427e-16)	(3.663752e-03 -7.416822e-03 2.188409e-22)	(2.812697e-04 -1.473572e-04 3.649424e-16)
2.016948e-05	(3.945848e-03 -7.565864e-03 3.648694e-16)	(3.664532e-03 -7.418490e-03 2.188402e-22)	(2.813165e-04 -1.473738e-04 3.648691e-16)
2.017142e-05	(3.946675e-03 -7.567549e-03 3.647961e-16)	(3.665312e-03 -7.420158e-03 2.188406e-22)	(2.813634e-04 -1.473904e-04 3.647959e-16)
2.017337e-05	(3.947502e-03 -7.569234e-03 3.647227e-16)	(3.666091e-03 -7.421827e-03 2.188421e-22)	(2.814103e-04 -1.474070e-04 3.647225e-16)
2.017531e-05	(3.948329e-03 -7.570919e-03 3.646493e-16)	(3.666872e-03 -7.423495e-03 2.188447e-22)	(2.814572e-04 -1.474236e-04 3.646491e-16)
2.017726e-05	(3.949156e-03 -7.572604e-03 3.645759e-16)	(3.667652e-03 -7.425164e-03 2.188485e-22)	(2.815041e-04 -1.474402e-04 3.645757e-16)
2.017920e-05	(3.949983e-03 -7.574290e-03 3.645025e-16)	(3.668432e-03 -7.426833e-03 2.188533e-22)	(2.815510e-04 -1.474568e-04 3.645022e-16)
2.018115e-05	(3.950810e-03 -7.575975e-03 3.644290e-16)	(3.669212e-03 -7.428502e-03 2.188593e-22)	(2.815980e-04 -1.474735e-04 3.644288e-16)
2.018309e-05	(3.951638e-03 -7.577661e-03 3.643555e-16)	(3.669993e-03 -7.430171e-03 2.188663e-22)	(2.816449e-04 -1.474902e-04 3.643553e-16)
2.018504e-05	(3.952465e-03 -7.579348e-03 3.642819e-16)	(3.670773e-03 -7.431841e-03 2.188745e-22)	(2.816919e-04 -1.475070e-04 3.642817e-16)
2.018698e-05	(3.953293e-03 -7.581034e-03 3.642084e-16)	(3.671554e-03 -7.433510e-03 2.188838e-22)	(2.817390e-04 -1.475239e-04 3.642081e-16)
2.018893e-05	(3.954120e-03 -7.582721e-03 3.641347e-16)	(3.672334e-03 -7.435180e-03 2.188942e-22)	(2.817860e-04 -1.475408e-04 3.641345e-16)
2.019087e-05	(3.954948e-03 -7.584408e-03 3.640611e-16)	(3.673115e-03 -7.436850e-03 2.189057e-22)	(2.818331e-04 -1.475578e-04 3.640608e-16)
2.019282e-05	(3.955776e-03 -7.586095e-03 3.639874e-16)	(3.673896e-03 -7.438521e-03 2.189183e-22)	(2.818803e-04 -1.475748e-04 3.639872e-16)
2.019476e-05	(3.956604e-03 -7.587783e-03 3.639137e-16)	(3.674677e-03 -7.440191e-03 2.189320e-22)	(2.819274e-04 -1.475918e-04 3.639134e-16)
2.019671e-05	(3.957433e-03 -7.589471e-03 3.638399e-16)	(3.675458e-03 -7.441862e-03 2.189467e-22)	(2.819746e-04 -1.476090e-04 3.638397e-16)
2.019865e-05	(3.958261e-03 -7.591159e-03 3.637661e-16)	(3.676239e-03 -7.443533e-03 2.189626e-22)	(2.820219e-04 -1.476262e-04 3.637659e-16)
2.020060e-05	(3.959089e-03 -7.592847e-03 3.636922e-16)	(3.677020e-03 -7.445204e-03 2.189796e-22)	(2.820692e-04 -1.476435e-04 3.636920e-16)
2.020254e-05	(3.959918e-03 -7.594536e-03 3.636183e-16)	(3.677802e-03 -7.446875e-03 2.189977e-22)	(2.821166e-04 -1.476610e-04 3.636181e-16)
2.020449e-05	(3.960747e-03 -7.596225e-03 3.635445e-16)	(3.678583e-03 -7.448546e-03 2.190169e-22)	(2.821642e-04 -1.476791e-04 3.635443e-16)
2.020643e-05	(3.961576e-03 -7.597914e-03 3.634706e-16)	(3.679365e-03 -7.450218e-03 2.190371e-22)	(2.822111e-04 -1.476955e-04 3.634703e-16)
2.020838e-05	(3.962404e-03 -7.599602e-03 3.633966e-16)	(3.680146e-03 -7.451890e-03 2.190585e-22)	(2.822579e-04 -1.477117e-04 3.633963e-16)
2.021032e-05	(3.963233e-03 -7.601291e-03 3.633226e-16)	(3.680928e-03 -7.453562e-03 2.190809e-22)	(2.823048e-04 -1.477281e-04 3.633224e-16)
2.021227e-05	(3.964062e-03 -7.602979e-03 3.632486e-16)	(3.681710e-03 -7.455235e-03 2.191043e-22)	(2.823516e-04 -1.477444e-04 3.632484e-16)
2.021421e-05	(3.964890e-03 -7.604668e-03 3.631744e-16)	(3.682492e-03 -7.456908e-03 2.191289e-22)	(2.823984e-04 -1.477606e-04 3.631742e-16)
2.021616e-05	(3.965719e-03 -7.606358e-03 3.631004e-16)	(3.683274e-03 -7.458581e-03 2.191545e-22)	(2.824452e-04 -1.477768e-04 3.631002e-16)
2.021810e-05	(3.966548e-03 -7.608047e-03 3.630262e-16)	(3.684056e-03 -7.460254e-03 2.191811e-22)	(2.824920e-04 -1.477930e-04 3.630260e-16)
2.022005e-05	(3.967377e-03 -7.609737e-03 3.629521e-16)	(3.684839e-03 -7.461927e-03 2.192088e-22)	(2.825387e-04 -1.478091e-04 3.629519e-16)
2.022199e-05	(3.968207e-03 -7.611426e-03 3.628779e-16)	(3.685621e-03 -7.463601e-03 2.192376e-22)	(2.825855e-04 -1.478253e-04 3.628777e-16)
2.022394e-05	(3.969036e-03 -7.613117e-03 3.628037e-16)	(3.686404e-03 -7.465275e-03 2.192674e-22)	(2.826323e-04 -1.478415e-04 3.628035e-16)
2.022588e-05	(3.969865e-03 -7.614807e-03 3.627294e-16)	(3.687186e-03 -7.466949e-03 2.192982e-22)	(2.826791e-04 -1.478577e-04 3.627292e-16)
2.022783e-05	(3.970695e-03 -7.616497e-03 3.626551e-16)	(3.687969e-03 -7.468623e-03 2.193301e-22)	(2.827258e-04 -1.478739e-04 3.626549e-16)
2.022977e-05	(3.971524e-03 -7.618188e-03 3.625808e-16)	(3.688752e-03 -7.470298e-03 2.193630e-22)	(2.827726e-04 -1.478902e-04 3.625806e-16)
2.023172e-05	(3.972354e-03 -7.619879e-03 3.625064e-16)	(3.689535e-03 -7.471973e-03 2.193969e-22)	(2.828194e-04 -1.479064e-04 3.625062e-16)
2.023366e-05	(3.973184e-03 -7.621570e-03 3.624320e-16)	(3.690318e-03 -7.473648e-03 2.194319e-22)	(2.828663e-04 -1.479227e-04 3.624318e-16)
2.023561e-05	(3.974014e-03 -7.623262e-03 3.623576e-16)	(3.691101e-03 -7.475323e-03 2.194679e-22)	(2.829131e-04 -1.479390e-04 3.623574e-16)
2.023755e-05	(3.974844e-03 -7.624953e-03 3.622831e-16)	(3.691884e-03 -7.476998e-03 2.195049e-22)	(2.829599e-04 -1.479553e-04 3.622829e-16)
2.023950e-05	(3.975674e-03 -7.626645e-03 3.622086e-16)	(3.692667e-03 -7.478674e-03 2.195429e-22)	(2.830068e-04 -1.479717e-04 3.622084e-16)
2.024144e-05	(3.976504e-03 -7.628337e-03 3.621341e-16)	(3.693451e-03 -7.480349e-03 2.195820e-22)	(2.830537e-04 -1.479881e-04 3.621339e-16)
2.024339e-05	(3.977335e-03 -7.630030e-03 3.620596e-16)	(3.694234e-03 -7.482025e-03 2.196220e-22)	(2.831007e-04 -1.480047e-04 3.620594e-16)
2.024533e-05	(3.978165e-03 -7.631723e-03 3.619850e-16)	(3.695017e-03 -7.483701e-03 2.196631e-22)	(2.831477e-04 -1.480213e-04 3.619848e-16)
2.024728e-05	(3.978996e-03 -7.633415e-03 3.619104e-16)	(3.695801e-03 -7.485378e-03 2.197051e-22)	(2.831947e-04 -1.480379e-04 3.619102e-16)
2.024922e-05	(3.979826e-03 -7.635109e-03 3.618357e-16)	(3.696585e-03 -7.487054e-03 2.197482e-22)	(2.832417e-04 -1.480546e-04 3.618355e-16)
2.025117e-05	(3.980657e-03 -7.636802e-03 3.617610e-16)	(3.697369e-03 -7.488731e-03 2.197922e-22)	(2.832888e-04 -1.480713e-04 3.617608e-16)
2.025311e-05	(3.981488e-03 -7.638495e-03 3.616863e-16)	(3.698152e-03 -7.490407e-03 2.198372e-22)	(2.833358e-04 -1.480880e-04 3.616861e-16)
2.025506e-05	(3.982319e-03 -7.640189e-03 3.616116e-16)	(3.698936e-03 -7.492084e-03 2.198833e-22)	(2.833830e-04 -1.481050e-04 3.616114e-16)
2.025700e-05	(3.983151e-03 -7.641884e-03 3.615368e-16)	(3.699720e-03 -7.493762e-03 2.199303e-22)	(2.834302e-04 -1.481219e-04 3.615366e-16)
2.025895e-05	(3.983983e-03 -7.643580e-03 3.614620e-16)	(3.700505e-03 -7.495439e-03 2.199782e-22)	(2.834782e-04 -1.481405e-04 3.614618e-16)
2.026089e-05	(3.984814e-03 -7.645273e-03 3.613872e-16)	(3.701289e-03 -7.497117e-03 2.200272e-22)	(2.835247e-04 -1.481560e-04 3.613870e-16)
2.026284e-05	(3.985645e-03 -7.646967e-03 3.613123e-16)	(3.702073e-03 -7.498795e-03 2.200772e-22)	(2.835716e-04 -1.481723e-04 3.613121e-16)
2.026478e-05	(3.986476e-03 -7.648661e-03 3.612374e-16)	(3.702858e-03 -7.500473e-03 2.201282e-22)	(2.836183e-04 -1.481881e-04 3.612372e-16)
2.026673e-05	(3.987308e-03 -7.650356e-03 3.611625e-16)	(3.703643e-03 -7.502152e-03 2.201801e-22)	(2.836650e-04 -1.482041e-04 3.611622e-16)
2.026867e-05	(3.988139e-03 -7.652051e-03 3.610875e-16)	(3.704427e-03 -7.503831e-03 2.202330e-22)	(2.837117e-04 -1.482199e-04 3.610873e-16)
2.027062e-05	(3.988971e-03 -7.653745e-03 3.610125e-16)	(3.705212e-03 -7.505510e-03 2.202869e-22)	(2.837584e-04 -1.482357e-04 3.610123e-16)
2.027256e-05	(3.989802e-03 -7.655440e-03 3.609375e-16)	(3.705997e-03 -7.507189e-03 2.203418e-22)	(2.838050e-04 -1.482515e-04 3.609373e-16)
2.027451e-05	(3.990634e-03 -7.657136e-03 3.608625e-16)	(3.706782e-03 -7.508868e-03 2.203976e-22)	(2.838516e-04 -1.482672e-04 3.608623e-16)
2.027645e-05	(3.991466e-03 -7.658831e-03 3.607874e-16)	(3.707568e-03 -7.510548e-03 2.204543e-22)	(2.838983e-04 -1.482830e-04 3.607872e-16)
2.027840e-05	(3.992298e-03 -7.660527e-03 3.607123e-16)	(3.708353e-03 -7.512228e-03 2.205120e-22)	(2.839449e-04 -1.482988e-04 3.607121e-16)
2.028034e-05	(3.993130e-03 -7.662222e-03 3.606372e-16)	(3.709138e-03 -7.513908e-03 2.205706e-22)	(2.839915e-04 -1.483145e-04 3.606370e-16)
2.028229e-05	(3.993962e-03 -7.663919e-03 3.605621e-16)	(3.709924e-03 -7.515588e-03 2.206302e-22)	(2.840382e-04 -1.483303e-04 3.605618e-16)
2.028423e-05	(3.994794e-03 -7.665615e-03 3.604868e-16)	(3.710709e-03 -7.517269e-03 2.206907e-22)	(2.840848e-04 -1.483461e-04 3.604866e-16)
2.028618e-05	(3.995626e-03 -7.667311e-03 3.604116e-16)	(3.711495e-03 -7.518949e-03 2.207522e-22)	(2.841315e-04 -1.483619e-04 3.604114e-16)
2.028812e-05	(3.996459e-03 -7.669008e-03 3.603363e-16)	(3.712281e-03 -7.520630e-03 2.208145e-22)	(2.841781e-04 -1.483777e-04 3.603361e-16)
2.029007e-05	(3.997291e-03 -7.670705e-03 3.602611e-16)	(3.713066e-03 -7.522311e-03 2.208778e-22)	(2.842248e-04 -1.483936e-04 3.602608e-16)
2.029201e-05	(3.998124e-03 -7.672402e-03 3.601857e-16)	(3.713852e-03 -7.523993e-03 2.209420e-22)	(2.842715e-04 -1.484095e-04 3.601855e-16)
2.029396e-05	(3.998957e-03 -7.674099e-03 3.601104e-16)	(3.714638e-03 -7.525674e-03 2.210071e-22)	(2.843182e-04 -1.484254e-04 3.601102e-16)
2.029590e-05	(3.999789e-03 -7.675797e-03 3.600350e-16)	(3.715424e-03 -7.527356e-03 2.210731e-22)	(2.843649e-04 -1.484413e-04 3.600348e-16)
2.029785e-05	(4.000622e-03 -7.677495e-03 3.599596e-16)	(3.716211e-03 -7.529038e-03 2.211400e-22)	(2.844117e-04 -1.484574e-04 3.599594e-16)
2.029979e-05	(4.001455e-03 -7.679193e-03 3.598842e-16)	(3.716997e-03 -7.530720e-03 2.212078e-22)	(2.844585e-04 -1.484735e-04 3.598839e-16)
2.030174e-05	(4.002289e-03 -7.680891e-03 3.598087e-16)	(3.717783e-03 -7.532402e-03 2.212765e-22)	(2.845053e-04 -1.484897e-04 3.598085e-16)
2.030368e-05	(4.003122e-03 -7.682590e-03 3.597332e-16)	(3.718570e-03 -7.534084e-03 2.213460e-22)	(2.845522e-04 -1.485059e-04 3.597330e-16)
2.030563e-05	(4.003955e-03 -7.684289e-03 3.596577e-16)	(3.719356e-03 -7.535767e-03 2.214165e-22)	(2.845991e-04 -1.485222e-04 3.596575e-16)
2.030757e-05	(4.004789e-03 -7.685988e-03 3.595822e-16)	(3.720143e-03 -7.537449e-03 2.214878e-22)	(2.846460e-04 -1.485384e-04 3.595819e-16)
2.030952e-05	(4.005622e-03 -7.687687e-03 3.595066e-16)	(3.720929e-03 -7.539132e-03 2.215600e-22)	(2.846929e-04 -1.485548e-04 3.595063e-16)
2.031146e-05	(4.006456e-03 -7.689387e-03 3.594310e-16)	(3.721716e-03 -7.540816e-03 2.216331e-22)	(2.847401e-04 -1.485716e-04 3.594307e-16)
2.031341e-05	(4.007291e-03 -7.691088e-03 3.593554e-16)	(3.722503e-03 -7.542499e-03 2.217070e-22)	(2.847876e-04 -1.485891e-04 3.593552e-16)
2.031535e-05	(4.008125e-03 -7.692788e-03 3.592797e-16)	(3.723290e-03 -7.544183e-03 2.217818e-22)	(2.848344e-04 -1.486050e-04 3.592795e-16)
2.031730e-05	(4.008958e-03 -7.694487e-03 3.592040e-16)	(3.724077e-03 -7.545867e-03 2.218574e-22)	(2.848810e-04 -1.486207e-04 3.592038e-16)
2.031924e-05	(4.009792e-03 -7.696187e-03 3.591283e-16)	(3.724865e-03 -7.547551e-03 2.219339e-22)	(2.849276e-04 -1.486361e-04 3.591281e-16)
2.032119e-05	(4.010626e-03 -7.697887e-03 3.590526e-16)	(3.725652e-03 -7.549235e-03 2.220113e-22)	(2.849741e-04 -1.486516e-04 3.590523e-16)
2.032313e-05	(4.011460e-03 -7.699587e-03 3.589768e-16)	(3.726440e-03 -7.550920e-03 2.220895e-22)	(2.850206e-04 -1.486670e-04 3.589766e-16)
2.032508e-05	(4.012294e-03 -7.701287e-03 3.589010e-16)	(3.727227e-03 -7.552605e-03 2.221685e-22)	(2.850671e-04 -1.486823e-04 3.589008e-16)
2.032702e-05	(4.013129e-03 -7.702988e-03 3.588252e-16)	(3.728015e-03 -7.554290e-03 2.222484e-22)	(2.851136e-04 -1.486976e-04 3.588249e-16)
2.032897e-05	(4.013963e-03 -7.704688e-03 3.587493e-16)	(3.728803e-03 -7.555976e-03 2.223291e-22)	(2.851600e-04 -1.487128e-04 3.587491e-16)
2.033091e-05	(4.014797e-03 -7.706389e-03 3.586734e-16)	(3.729591e-03 -7.557661e-03 2.224106e-22)	(2.852064e-04 -1.487280e-04 3.586732e-16)
2.033286e-05	(4.015632e-03 -7.708090e-03 3.585975e-16)	(3.730379e-03 -7.559347e-03 2.224929e-22)	(2.852528e-04 -1.487432e-04 3.585973e-16)
2.033481e-05	(4.016466e-03 -7.709791e-03 3.585216e-16)	(3.731167e-03 -7.561033e-03 2.225761e-22)	(2.852992e-04 -1.487584e-04 3.585214e-16)
2.033675e-05	(4.017301e-03 -7.711493e-03 3.584457e-16)	(3.731955e-03 -7.562719e-03 2.226600e-22)	(2.853457e-04 -1.487737e-04 3.584454e-16)
2.033870e-05	(4.018135e-03 -7.713195e-03 3.583696e-16)	(3.732743e-03 -7.564406e-03 2.227448e-22)	(2.853921e-04 -1.487889e-04 3.583694e-16)
2.034064e-05	(4.018970e-03 -7.714896e-03 3.582937e-16)	(3.733532e-03 -7.566092e-03 2.228304e-22)	(2.854385e-04 -1.488041e-04 3.582934e-16)
2.034259e-05	(4.019805e-03 -7.716598e-03 3.582176e-16)	(3.734320e-03 -7.567779e-03 2.229167e-22)	(2.854849e-04 -1.488194e-04 3.582174e-16)
2.034453e-05	(4.020640e-03 -7.718301e-03 3.581415e-16)	(3.735109e-03 -7.569466e-03 2.230039e-22)	(2.855314e-04 -1.488347e-04 3.581413e-16)
2.034648e-05	(4.021475e-03 -7.720003e-03 3.580654e-16)	(3.735897e-03 -7.571153e-03 2.230918e-22)	(2.855778e-04 -1.488500e-04 3.580652e-16)
2.034842e-05	(4.022310e-03 -7.721706e-03 3.579893e-16)	(3.736686e-03 -7.572840e-03 2.231805e-22)	(2.856243e-04 -1.488653e-04 3.579891e-16)
2.035037e-05	(4.023146e-03 -7.723409e-03 3.579131e-16)	(3.737475e-03 -7.574528e-03 2.232699e-22)	(2.856707e-04 -1.488806e-04 3.579129e-16)
2.035231e-05	(4.023981e-03 -7.725112e-03 3.578369e-16)	(3.738264e-03 -7.576216e-03 2.233602e-22)	(2.857172e-04 -1.488960e-04 3.578367e-16)
2.035426e-05	(4.024817e-03 -7.726815e-03 3.577607e-16)	(3.739053e-03 -7.577904e-03 2.234512e-22)	(2.857638e-04 -1.489115e-04 3.577605e-16)
2.035620e-05	(4.025652e-03 -7.728519e-03 3.576845e-16)	(3.739842e-03 -7.579592e-03 2.235429e-22)	(2.858103e-04 -1.489270e-04 3.576843e-16)
2.035815e-05	(4.026484e-03 -7.730214e-03 3.576083e-16)	(3.740631e-03 -7.581280e-03 2.236354e-22)	(2.858530e-04 -1.489343e-04 3.576081e-16)
2.036009e-05	(4.027322e-03 -7.731923e-03 3.575320e-16)	(3.741420e-03 -7.582968e-03 2.237287e-22)	(2.859020e-04 -1.489549e-04 3.575318e-16)
2.036204e-05	(4.028158e-03 -7.733628e-03 3.574557e-16)	(3.742210e-03 -7.584657e-03 2.238227e-22)	(2.859488e-04 -1.489709e-04 3.574555e-16)
2.036398e-05	(4.028995e-03 -7.735334e-03 3.573794e-16)	(3.742999e-03 -7.586346e-03 2.239175e-22)	(2.859960e-04 -1.489877e-04 3.573792e-16)
2.036593e-05	(4.029832e-03 -7.737039e-03 3.573030e-16)	(3.743788e-03 -7.588035e-03 2.240130e-22)	(2.860432e-04 -1.490045e-04 3.573028e-16)
2.036787e-05	(4.030669e-03 -7.738746e-03 3.572266e-16)	(3.744578e-03 -7.589724e-03 2.241092e-22)	(2.860904e-04 -1.490213e-04 3.572264e-16)
2.036982e-05	(4.031501e-03 -7.740443e-03 3.571503e-16)	(3.745368e-03 -7.591414e-03 2.242062e-22)	(2.861335e-04 -1.490291e-04 3.571500e-16)
2.037176e-05	(4.032340e-03 -7.742153e-03 3.570738e-16)	(3.746158e-03 -7.593104e-03 2.243039e-22)	(2.861821e-04 -1.490489e-04 3.570736e-16)
2.037371e-05	(4.033177e-03 -7.743858e-03 3.569974e-16)	(3.746948e-03 -7.594794e-03 2.244023e-22)	(2.862288e-04 -1.490645e-04 3.569971e-16)
2.037565e-05	(4.034014e-03 -7.745565e-03 3.569209e-16)	(3.747738e-03 -7.596484e-03 2.245014e-22)	(2.862757e-04 -1.490806e-04 3.569207e-16)
2.037760e-05	(4.034846e-03 -7.747262e-03 3.568444e-16)	(3.748528e-03 -7.598175e-03 2.246013e-22)	(2.863182e-04 -1.490873e-04 3.568442e-16)
2.037954e-05	(4.035685e-03 -7.748973e-03 3.567678e-16)	(3.749318e-03 -7.599866e-03 2.247018e-22)	(2.863670e-04 -1.491075e-04 3.567676e-16)
2.038149e-05	(4.036522e-03 -7.750679e-03 3.566913e-16)	(3.750109e-03 -7.601557e-03 2.248031e-22)	(2.864134e-04 -1.491226e-04 3.566910e-16)
2.038343e-05	(4.037360e-03 -7.752386e-03 3.566147e-16)	(3.750899e-03 -7.603248e-03 2.249051e-22)	(2.864603e-04 -1.491386e-04 3.566145e-16)
2.038538e-05	(4.038193e-03 -7.754084e-03 3.565381e-16)	(3.751690e-03 -7.604939e-03 2.250078e-22)	(2.865027e-04 -1.491451e-04 3.565378e-16)
2.038732e-05	(4.039032e-03 -7.755796e-03 3.564615e-16)	(3.752481e-03 -7.606631e-03 2.251112e-22)	(2.865514e-04 -1.491652e-04 3.564613e-16)
2.038927e-05	(4.039869e-03 -7.757503e-03 3.563848e-16)	(3.753271e-03 -7.608323e-03 2.252152e-22)	(2.865978e-04 -1.491802e-04 3.563846e-16)
2.039121e-05	(4.040703e-03 -7.759203e-03 3.563081e-16)	(3.754062e-03 -7.610015e-03 2.253200e-22)	(2.866407e-04 -1.491878e-04 3.563079e-16)
2.039316e-05	(4.041543e-03 -7.760915e-03 3.562314e-16)	(3.754853e-03 -7.611707e-03 2.254255e-22)	(2.866894e-04 -1.492077e-04 3.562312e-16)
2.039510e-05	(4.042380e-03 -7.762622e-03 3.561547e-16)	(3.755644e-03 -7.613399e-03 2.255316e-22)	(2.867359e-04 -1.492231e-04 3.561544e-16)
2.039705e-05	(4.043214e-03 -7.764323e-03 3.560779e-16)	(3.756436e-03 -7.615092e-03 2.256385e-22)	(2.867788e-04 -1.492307e-04 3.560777e-16)
2.039899e-05	(4.044054e-03 -7.766035e-03 3.560012e-16)	(3.757227e-03 -7.616785e-03 2.257460e-22)	(2.868276e-04 -1.492508e-04 3.560009e-16)
2.040094e-05	(4.044892e-03 -7.767744e-03 3.559244e-16)	(3.758018e-03 -7.618478e-03 2.258542e-22)	(2.868741e-04 -1.492663e-04 3.559241e-16)
2.040288e-05	(4.045727e-03 -7.769445e-03 3.558475e-16)	(3.758810e-03 -7.620171e-03 2.259631e-22)	(2.869171e-04 -1.492739e-04 3.558472e-16)
2.040483e-05	(4.046567e-03 -7.771158e-03 3.557707e-16)	(3.759601e-03 -7.621864e-03 2.260726e-22)	(2.869658e-04 -1.492941e-04 3.557705e-16)
2.040677e-05	(4.047405e-03 -7.772867e-03 3.556938e-16)	(3.760393e-03 -7.623558e-03 2.261828e-22)	(2.870125e-04 -1.493097e-04 3.556936e-16)
2.040872e-05	(4.048240e-03 -7.774569e-03 3.556169e-16)	(3.761184e-03 -7.625251e-03 2.262937e-22)	(2.870554e-04 -1.493175e-04 3.556167e-16)
2.041066e-05	(4.049080e-03 -7.776283e-03 3.555400e-16)	(3.761976e-03 -7.626945e-03 2.264052e-22)	(2.871043e-04 -1.493378e-04 3.555398e-16)
2.041261e-05	(4.049919e-03 -7.777993e-03 3.554630e-16)	(3.762768e-03 -7.628639e-03 2.265174e-22)	(2.871510e-04 -1.493535e-04 3.554628e-16)
2.041455e-05	(4.050754e-03 -7.779695e-03 3.553861e-16)	(3.763560e-03 -7.630334e-03 2.266303e-22)	(2.871941e-04 -1.493616e-04 3.553858e-16)
2.041650e-05	(4.051595e-03 -7.781410e-03 3.553091e-16)	(3.764352e-03 -7.632028e-03 2.267438e-22)	(2.872430e-04 -1.493821e-04 3.553089e-16)