# Moment     
# CofR       : (0.000000e+00 0.000000e+00 0.000000e+00)
#            
# Time       	(total_x total_y total_z)	(pressure_x pressure_y pressure_z)	(viscous_x viscous_y viscous_z)
2.000195e-05	(5.560849e-18 -1.223915e-17 -3.021431e-04)	(3.619397e-24 -8.822363e-24 -2.884296e-04)	(5.560846e-18 -1.223915e-17 -1.371348e-05)
2.000390e-05	(5.559873e-18 -1.223701e-17 -3.013876e-04)	(3.615402e-24 -8.819354e-24 -2.885282e-04)	(5.559870e-18 -1.223700e-17 -1.285938e-05)
2.000585e-05	(5.558828e-18 -1.223471e-17 -3.019410e-04)	(3.611525e-24 -8.816365e-24 -2.886245e-04)	(5.558825e-18 -1.223470e-17 -1.331653e-05)
2.000780e-05	(5.557788e-18 -1.223242e-17 -3.018141e-04)	(3.607616e-24 -8.813419e-24 -2.887227e-04)	(5.557784e-18 -1.223241e-17 -1.309135e-05)
2.000975e-05	(5.556748e-18 -1.223013e-17 -3.020199e-04)	(3.603730e-24 -8.810505e-24 -2.888202e-04)	(5.556745e-18 -1.223012e-17 -1.319966e-05)
2.001170e-05	(5.555707e-18 -1.222783e-17 -3.020674e-04)	(3.599850e-24 -8.807648e-24 -2.889182e-04)	(5.555703e-18 -1.222783e-17 -1.314921e-05)
2.001365e-05	(5.554665e-18 -1.222554e-17 -3.021928e-04)	(3.595983e-24 -8.804832e-24 -2.890161e-04)	(5.554661e-18 -1.222553e-17 -1.317676e-05)
2.001559e-05	(5.553623e-18 -1.222325e-17 -3.022811e-04)	(3.592129e-24 -8.802071e-24 -2.891141e-04)	(5.553619e-18 -1.222324e-17 -1.316703e-05)
2.001754e-05	(5.552580e-18 -1.222095e-17 -3.023881e-04)	(3.588288e-24 -8.799358e-24 -2.892121e-04)	(5.552576e-18 -1.222094e-17 -1.317597e-05)
2.001949e-05	(5.551536e-18 -1.221865e-17 -3.024862e-04)	(3.584460e-24 -8.796699e-24 -2.893103e-04)	(5.551533e-18 -1.221865e-17 -1.317595e-05)
2.002144e-05	(5.550492e-18 -1.221636e-17 -3.025890e-04)	(3.580645e-24 -8.794091e-24 -2.894084e-04)	(5.550489e-18 -1.221635e-17 -1.318061e-05)
2.002339e-05	(5.549448e-18 -1.221406e-17 -3.026897e-04)	(3.576844e-24 -8.791536e-24 -2.895066e-04)	(5.549444e-18 -1.221405e-17 -1.318310e-05)
2.002534e-05	(5.548402e-18 -1.221175e-17 -3.027917e-04)	(3.573058e-24 -8.789034e-24 -2.896048e-04)	(5.548398e-18 -1.221175e-17 -1.318683e-05)
2.002729e-05	(5.547356e-18 -1.220945e-17 -3.028931e-04)	(3.569285e-24 -8.786585e-24 -2.897031e-04)	(5.547352e-18 -1.220944e-17 -1.319005e-05)
2.002924e-05	(5.546309e-18 -1.220715e-17 -3.029950e-04)	(3.565527e-24 -8.784189e-24 -2.898014e-04)	(5.546305e-18 -1.220714e-17 -1.319362e-05)
2.003119e-05	(5.545261e-18 -1.220484e-17 -3.030968e-04)	(3.561784e-24 -8.781846e-24 -2.898997e-04)	(5.545257e-18 -1.220483e-17 -1.319709e-05)
2.003314e-05	(5.544212e-18 -1.220253e-17 -3.031988e-04)	(3.558055e-24 -8.779557e-24 -2.899981e-04)	(5.544208e-18 -1.220252e-17 -1.320066e-05)
2.003509e-05	(5.543163e-18 -1.220022e-17 -3.033006e-04)	(3.554341e-24 -8.777321e-24 -2.900965e-04)	(5.543160e-18 -1.220021e-17 -1.320414e-05)
2.003704e-05	(5.542114e-18 -1.219791e-17 -3.034026e-04)	(3.550643e-24 -8.775139e-24 -2.901949e-04)	(5.542110e-18 -1.219790e-17 -1.320770e-05)
2.003899e-05	(5.541063e-18 -1.219560e-17 -3.035046e-04)	(3.546960e-24 -8.773011e-24 -2.902934e-04)	(5.541060e-18 -1.219559e-17 -1.321125e-05)
2.004094e-05	(5.540012e-18 -1.219329e-17 -3.036067e-04)	(3.543292e-24 -8.770936e-24 -2.903919e-04)	(5.540009e-18 -1.219328e-17 -1.321482e-05)
2.004288e-05	(5.538960e-18 -1.219097e-17 -3.037088e-04)	(3.539640e-24 -8.768915e-24 -2.904904e-04)	(5.538957e-18 -1.219096e-17 -1.321841e-05)
2.004483e-05	(5.537909e-18 -1.218866e-17 -3.038109e-04)	(3.536004e-24 -8.766948e-24 -2.905889e-04)	(5.537905e-18 -1.218865e-17 -1.322201e-05)
2.004678e-05	(5.536855e-18 -1.218634e-17 -3.039132e-04)	(3.532384e-24 -8.765034e-24 -2.906875e-04)	(5.536852e-18 -1.218633e-17 -1.322567e-05)
2.004873e-05	(5.535802e-18 -1.218402e-17 -3.040154e-04)	(3.528780e-24 -8.763173e-24 -2.907861e-04)	(5.535798e-18 -1.218401e-17 -1.322930e-05)
2.005068e-05	(5.534748e-18 -1.218170e-17 -3.041177e-04)	(3.525193e-24 -8.761366e-24 -2.908848e-04)	(5.534745e-18 -1.218169e-17 -1.323297e-05)
2.005263e-05	(5.533693e-18 -1.217938e-17 -3.042201e-04)	(3.521621e-24 -8.759612e-24 -2.909834e-04)	(5.533689e-18 -1.217937e-17 -1.323663e-05)
2.005458e-05	(5.532638e-18 -1.217705e-17 -3.043224e-04)	(3.518066e-24 -8.757912e-24 -2.910821e-04)	(5.532634e-18 -1.217704e-17 -1.324030e-05)
2.005653e-05	(5.531582e-18 -1.217473e-17 -3.044249e-04)	(3.514528e-24 -8.756266e-24 -2.911809e-04)	(5.531578e-18 -1.217472e-17 -1.324398e-05)
2.005848e-05	(5.530525e-18 -1.217240e-17 -3.045273e-04)	(3.511007e-24 -8.754673e-24 -2.912796e-04)	(5.530522e-18 -1.217239e-17 -1.324767e-05)
2.006043e-05	(5.529467e-18 -1.217007e-17 -3.046298e-04)	(3.507502e-24 -8.753134e-24 -2.913784e-04)	(5.529464e-18 -1.217007e-17 -1.325136e-05)
2.006238e-05	(5.528409e-18 -1.216774e-17 -3.047323e-04)	(3.504014e-24 -8.751649e-24 -2.914773e-04)	(5.528406e-18 -1.216774e-17 -1.325505e-05)
2.006433e-05	(5.527350e-18 -1.216541e-17 -3.048349e-04)	(3.500544e-24 -8.750218e-24 -2.915761e-04)	(5.527346e-18 -1.216540e-17 -1.325875e-05)
2.006628e-05	(5.526291e-18 -1.216308e-17 -3.049374e-04)	(3.497091e-24 -8.748840e-24 -2.916750e-04)	(5.526287e-18 -1.216307e-17 -1.326246e-05)
2.006823e-05	(5.525231e-18 -1.216075e-17 -3.050400e-04)	(3.493655e-24 -8.747516e-24 -2.917739e-04)	(5.525228e-18 -1.216074e-17 -1.326616e-05)
2.007018e-05	(5.524170e-18 -1.215841e-17 -3.051427e-04)	(3.490236e-24 -8.746246e-24 -2.918728e-04)	(5.524167e-18 -1.215841e-17 -1.326987e-05)
2.007212e-05	(5.523110e-18 -1.215608e-17 -3.052454e-04)	(3.486836e-24 -8.745030e-24 -2.919718e-04)	(5.523106e-18 -1.215607e-17 -1.327359e-05)
2.007407e-05	(5.522047e-18 -1.215374e-17 -3.053481e-04)	(3.483453e-24 -8.743868e-24 -2.920708e-04)	(5.522044e-18 -1.215373e-17 -1.327732e-05)
2.007602e-05	(5.520985e-18 -1.215140e-17 -3.054508e-04)	(3.480088e-24 -8.742759e-24 -2.921698e-04)	(5.520982e-18 -1.215139e-17 -1.328105e-05)
2.007797e-05	(5.519922e-18 -1.214906e-17 -3.055536e-04)	(3.476740e-24 -8.741704e-24 -2.922688e-04)	(5.519918e-18 -1.214905e-17 -1.328478e-05)
2.007992e-05	(5.518858e-18 -1.214672e-17 -3.056564e-04)	(3.473411e-24 -8.740704e-24 -2.923679e-04)	(5.518855e-18 -1.214671e-17 -1.328851e-05)
2.008187e-05	(5.517794e-18 -1.214438e-17 -3.057592e-04)	(3.470101e-24 -8.739757e-24 -2.924670e-04)	(5.517790e-18 -1.214437e-17 -1.329226e-05)
2.008382e-05	(5.516728e-18 -1.214203e-17 -3.058621e-04)	(3.466808e-24 -8.738863e-24 -2.925661e-04)	(5.516725e-18 -1.214202e-17 -1.329601e-05)
2.008577e-05	(5.515663e-18 -1.213969e-17 -3.059650e-04)	(3.463534e-24 -8.738024e-24 -2.926652e-04)	(5.515660e-18 -1.213968e-17 -1.329976e-05)
2.008772e-05	(5.514597e-18 -1.213734e-17 -3.060679e-04)	(3.460279e-24 -8.737238e-24 -2.927644e-04)	(5.514593e-18 -1.213733e-17 -1.330352e-05)
2.008967e-05	(5.513530e-18 -1.213499e-17 -3.061709e-04)	(3.457042e-24 -8.736507e-24 -2.928636e-04)	(5.513527e-18 -1.213498e-17 -1.330728e-05)
2.009162e-05	(5.512462e-18 -1.213264e-17 -3.062739e-04)	(3.453824e-24 -8.735828e-24 -2.929628e-04)	(5.512459e-18 -1.213263e-17 -1.331104e-05)
2.009357e-05	(5.511394e-18 -1.213029e-17 -3.063769e-04)	(3.450625e-24 -8.735204e-24 -2.930621e-04)	(5.511391e-18 -1.213028e-17 -1.331481e-05)
2.009552e-05	(5.510326e-18 -1.212794e-17 -3.064798e-04)	(3.447445e-24 -8.734633e-24 -2.931613e-04)	(5.510323e-18 -1.212793e-17 -1.331850e-05)
2.009747e-05	(5.509256e-18 -1.212558e-17 -3.065828e-04)	(3.444285e-24 -8.734116e-24 -2.932606e-04)	(5.509253e-18 -1.212558e-17 -1.332217e-05)
2.009942e-05	(5.508187e-18 -1.212323e-17 -3.066859e-04)	(3.441139e-24 -8.733645e-24 -2.933600e-04)	(5.508183e-18 -1.212322e-17 -1.332591e-05)
2.010136e-05	(5.507116e-18 -1.212087e-17 -3.067889e-04)	(3.438010e-24 -8.733218e-24 -2.934593e-04)	(5.507113e-18 -1.212087e-17 -1.332961e-05)
2.010331e-05	(5.506045e-18 -1.211852e-17 -3.068920e-04)	(3.434897e-24 -8.732839e-24 -2.935587e-04)	(5.506042e-18 -1.211851e-17 -1.333332e-05)
2.010526e-05	(5.504973e-18 -1.211616e-17 -3.069952e-04)	(3.431800e-24 -8.732507e-24 -2.936581e-04)	(5.504970e-18 -1.211615e-17 -1.333703e-05)
2.010721e-05	(5.503901e-18 -1.211380e-17 -3.070983e-04)	(3.428721e-24 -8.732223e-24 -2.937576e-04)	(5.503898e-18 -1.211379e-17 -1.334074e-05)
2.010916e-05	(5.502828e-18 -1.211143e-17 -3.072015e-04)	(3.425659e-24 -8.731987e-24 -2.938571e-04)	(5.502825e-18 -1.211143e-17 -1.334445e-05)
2.011111e-05	(5.501756e-18 -1.210907e-17 -3.073047e-04)	(3.422614e-24 -8.731800e-24 -2.939566e-04)	(5.501752e-18 -1.210906e-17 -1.334817e-05)
2.011306e-05	(5.500681e-18 -1.210671e-17 -3.074080e-04)	(3.419588e-24 -8.731662e-24 -2.940561e-04)	(5.500678e-18 -1.210670e-17 -1.335188e-05)
2.011501e-05	(5.499607e-18 -1.210434e-17 -3.075112e-04)	(3.416580e-24 -8.731574e-24 -2.941556e-04)	(5.499603e-18 -1.210433e-17 -1.335560e-05)
2.011696e-05	(5.498531e-18 -1.210197e-17 -3.076145e-04)	(3.413591e-24 -8.731535e-24 -2.942552e-04)	(5.498527e-18 -1.210197e-17 -1.335932e-05)
2.011891e-05	(5.497455e-18 -1.209961e-17 -3.077179e-04)	(3.410621e-24 -8.731546e-24 -2.943548e-04)	(5.497452e-18 -1.209960e-17 -1.336304e-05)
2.012085e-05	(5.496380e-18 -1.209724e-17 -3.078237e-04)	(3.407677e-24 -8.731611e-24 -2.944542e-04)	(5.496377e-18 -1.209723e-17 -1.336943e-05)
2.012280e-05	(5.495305e-18 -1.209487e-17 -3.079268e-04)	(3.404750e-24 -8.731722e-24 -2.945537e-04)	(5.495302e-18 -1.209487e-17 -1.337311e-05)
2.012474e-05	(5.494230e-18 -1.209251e-17 -3.080300e-04)	(3.401843e-24 -8.731884e-24 -2.946532e-04)	(5.494227e-18 -1.209250e-17 -1.337681e-05)
2.012669e-05	(5.493154e-18 -1.209014e-17 -3.081333e-04)	(3.398956e-24 -8.732096e-24 -2.947527e-04)	(5.493150e-18 -1.209013e-17 -1.338060e-05)
2.012863e-05	(5.492077e-18 -1.208777e-17 -3.082365e-04)	(3.396088e-24 -8.732360e-24 -2.948522e-04)	(5.492074e-18 -1.208776e-17 -1.338432e-05)
2.013058e-05	(5.490999e-18 -1.208540e-17 -3.083398e-04)	(3.393241e-24 -8.732674e-24 -2.949518e-04)	(5.490996e-18 -1.208539e-17 -1.338807e-05)
2.013252e-05	(5.489921e-18 -1.208302e-17 -3.084431e-04)	(3.390413e-24 -8.733040e-24 -2.950513e-04)	(5.489918e-18 -1.208301e-17 -1.339180e-05)
2.013447e-05	(5.488843e-18 -1.208065e-17 -3.085465e-04)	(3.387606e-24 -8.733457e-24 -2.951510e-04)	(5.488840e-18 -1.208064e-17 -1.339554e-05)
2.013641e-05	(5.487764e-18 -1.207827e-17 -3.086499e-04)	(3.384820e-24 -8.733925e-24 -2.952506e-04)	(5.487761e-18 -1.207827e-17 -1.339928e-05)
2.013836e-05	(5.486684e-18 -1.207590e-17 -3.087533e-04)	(3.382054e-24 -8.734445e-24 -2.953502e-04)	(5.486681e-18 -1.207589e-17 -1.340302e-05)
2.014030e-05	(5.485605e-18 -1.207352e-17 -3.088567e-04)	(3.379309e-24 -8.735016e-24 -2.954499e-04)	(5.485601e-18 -1.207351e-17 -1.340677e-05)
2.014225e-05	(5.484525e-18 -1.207114e-17 -3.089601e-04)	(3.376585e-24 -8.735638e-24 -2.955496e-04)	(5.484521e-18 -1.207113e-17 -1.341051e-05)
2.014419e-05	(5.483443e-18 -1.206876e-17 -3.090636e-04)	(3.373881e-24 -8.736312e-24 -2.956494e-04)	(5.483440e-18 -1.206875e-17 -1.341426e-05)
2.014614e-05	(5.482362e-18 -1.206638e-17 -3.091671e-04)	(3.371199e-24 -8.737037e-24 -2.957491e-04)	(5.482358e-18 -1.206637e-17 -1.341802e-05)
2.014808e-05	(5.481279e-18 -1.206400e-17 -3.092707e-04)	(3.368538e-24 -8.737813e-24 -2.958489e-04)	(5.481276e-18 -1.206399e-17 -1.342178e-05)
2.015003e-05	(5.480196e-18 -1.206162e-17 -3.093742e-04)	(3.365899e-24 -8.738641e-24 -2.959487e-04)	(5.480193e-18 -1.206161e-17 -1.342554e-05)
2.015197e-05	(5.479113e-18 -1.205923e-17 -3.094778e-04)	(3.363279e-24 -8.739521e-24 -2.960485e-04)	(5.479110e-18 -1.205922e-17 -1.342927e-05)
2.015392e-05	(5.478029e-18 -1.205684e-17 -3.095813e-04)	(3.360679e-24 -8.740453e-24 -2.961484e-04)	(5.478025e-18 -1.205684e-17 -1.343295e-05)
2.015586e-05	(5.476944e-18 -1.205446e-17 -3.096849e-04)	(3.358098e-24 -8.741437e-24 -2.962483e-04)	(5.476941e-18 -1.205445e-17 -1.343666e-05)
2.015781e-05	(5.475860e-18 -1.205207e-17 -3.097886e-04)	(3.355539e-24 -8.742473e-24 -2.963482e-04)	(5.475857e-18 -1.205206e-17 -1.344035e-05)
2.015975e-05	(5.474774e-18 -1.204968e-17 -3.098922e-04)	(3.352999e-24 -8.743560e-24 -2.964482e-04)	(5.474771e-18 -1.204967e-17 -1.344405e-05)
2.016170e-05	(5.473687e-18 -1.204729e-17 -3.099959e-04)	(3.350481e-24 -8.744698e-24 -2.965481e-04)	(5.473684e-18 -1.204728e-17 -1.344775e-05)
2.016364e-05	(5.472601e-18 -1.204490e-17 -3.100996e-04)	(3.347983e-24 -8.745888e-24 -2.966481e-04)	(5.472597e-18 -1.204489e-17 -1.345144e-05)
2.016559e-05	(5.471513e-18 -1.204250e-17 -3.102033e-04)	(3.345506e-24 -8.747130e-24 -2.967482e-04)	(5.471510e-18 -1.204249e-17 -1.345514e-05)
2.016753e-05	(5.470426e-18 -1.204011e-17 -3.103071e-04)	(3.343050e-24 -8.748422e-24 -2.968482e-04)	(5.470423e-18 -1.204010e-17 -1.345883e-05)
2.016948e-05	(5.469337e-18 -1.203771e-17 -3.104109e-04)	(3.340616e-24 -8.749765e-24 -2.969483e-04)	(5.469334e-18 -1.203770e-17 -1.346253e-05)
2.017142e-05	(5.468249e-18 -1.203532e-17 -3.105147e-04)	(3.338203e-24 -8.751160e-24 -2.970484e-04)	(5.468245e-18 -1.203531e-17 -1.346623e-05)
2.017337e-05	(5.467159e-18 -1.203292e-17 -3.106185e-04)	(3.335812e-24 -8.752605e-24 -2.971486e-04)	(5.467156e-18 -1.203291e-17 -1.346993e-05)
2.017531e-05	(5.466070e-18 -1.203052e-17 -3.107224e-04)	(3.333442e-24 -8.754101e-24 -2.972487e-04)	(5.466066e-18 -1.203051e-17 -1.347364e-05)
2.017726e-05	(5.464979e-18 -1.202812e-17 -3.108263e-04)	(3.331094e-24 -8.755647e-24 -2.973489e-04)	(5.464975e-18 -1.202811e-17 -1.347734e-05)
2.017920e-05	(5.463887e-18 -1.202572e-17 -3.109302e-04)	(3.328768e-24 -8.757244e-24 -2.974492e-04)	(5.463884e-18 -1.202571e-17 -1.348104e-05)
2.018115e-05	(5.462796e-18 -1.202331e-17 -3.110342e-04)	(3.326464e-24 -8.758891e-24 -2.975494e-04)	(5.462793e-18 -1.202331e-17 -1.348475e-05)
2.018309e-05	(5.461705e-18 -1.202091e-17 -3.111381e-04)	(3.324182e-24 -8.760589e-24 -2.976497e-04)	(5.461701e-18 -1.202090e-17 -1.348846e-05)
2.018504e-05	(5.460612e-18 -1.201851e-17 -3.112421e-04)	(3.321922e-24 -8.762336e-24 -2.977500e-04)	(5.460609e-18 -1.201850e-17 -1.349217e-05)
2.018698e-05	(5.459519e-18 -1.201610e-17 -3.113462e-04)	(3.319684e-24 -8.764134e-24 -2.978503e-04)	(5.459516e-18 -1.201609e-17 -1.349589e-05)
2.018893e-05	(5.458425e-18 -1.201369e-17 -3.114502e-04)	(3.317469e-24 -8.765982e-24 -2.979506e-04)	(5.458422e-18 -1.201368e-17 -1.349962e-05)
2.019087e-05	(5.457331e-18 -1.201128e-17 -3.115543e-04)	(3.315276e-24 -8.767880e-24 -2.980510e-04)	(5.457328e-18 -1.201127e-17 -1.350334e-05)
2.019282e-05	(5.456236e-18 -1.200887e-17 -3.116585e-04)	(3.313105e-24 -8.769827e-24 -2.981514e-04)	(5.456233e-18 -1.200887e-17 -1.350707e-05)
2.019476e-05	(5.455141e-18 -1.200646e-17 -3.117626e-04)	(3.310957e-24 -8.771824e-24 -2.982518e-04)	(5.455138e-18 -1.200646e-17 -1.351080e-05)
2.019671e-05	(5.454046e-18 -1.200405e-17 -3.118668e-04)	(3.308831e-24 -8.773871e-24 -2.983523e-04)	(5.454043e-18 -1.200404e-17 -1.351454e-05)
2.019865e-05	(5.452949e-18 -1.200164e-17 -3.119710e-04)	(3.306728e-24 -8.775967e-24 -2.984527e-04)	(5.452946e-18 -1.200163e-17 -1.351829e-05)
2.020060e-05	(5.451852e-18 -1.199922e-17 -3.120753e-04)	(3.304648e-24 -8.778112e-24 -2.985532e-04)	(5.451849e-18 -1.199921e-17 -1.352203e-05)
2.020254e-05	(5.450754e-18 -1.199681e-17 -3.121795e-04)	(3.302591e-24 -8.780307e-24 -2.986538e-04)	(5.450751e-18 -1.199680e-17 -1.352579e-05)
2.020449e-05	(5.449657e-18 -1.199439e-17 -3.122839e-04)	(3.300556e-24 -8.782551e-24 -2.987543e-04)	(5.449653e-18 -1.199438e-17 -1.352958e-05)
2.020643e-05	(5.448559e-18 -1.199197e-17 -3.123882e-04)	(3.298545e-24 -8.784844e-24 -2.988549e-04)	(5.448555e-18 -1.199196e-17 -1.353328e-05)
2.020838e-05	(5.447459e-18 -1.198955e-17 -3.124925e-04)	(3.296556e-24 -8.787186e-24 -2.989555e-04)	(5.447456e-18 -1.198955e-17 -1.353697e-05)
2.021032e-05	(5.446361e-18 -1.198714e-17 -3.125968e-04)	(3.294590e-24 -8.789576e-24 -2.990561e-04)	(5.446357e-18 -1.198713e-17 -1.354067e-05)
2.021227e-05	(5.445261e-18 -1.198472e-17 -3.127012e-04)	(3.292646e-24 -8.792013e-24 -2.991568e-04)	(5.445258e-18 -1.198471e-17 -1.354436e-05)
2.021421e-05	(5.444159e-18 -1.198229e-17 -3.128055e-04)	(3.290725e-24 -8.794498e-24 -2.992575e-04)	(5.444156e-18 -1.198228e-17 -1.354805e-05)
2.021616e-05	(5.443060e-18 -1.197987e-17 -3.129099e-04)	(3.288827e-24 -8.797031e-24 -2.993582e-04)	(5.443056e-18 -1.197986e-17 -1.355174e-05)
2.021810e-05	(5.441958e-18 -1.197744e-17 -3.130144e-04)	(3.286951e-24 -8.799611e-24 -2.994590e-04)	(5.441954e-18 -1.197743e-17 -1.355542e-05)
2.022005e-05	(5.440856e-18 -1.197502e-17 -3.131188e-04)	(3.285098e-24 -8.802238e-24 -2.995597e-04)	(5.440853e-18 -1.197501e-17 -1.355911e-05)
2.022199e-05	(5.439753e-18 -1.197259e-17 -3.132233e-04)	(3.283267e-24 -8.804912e-24 -2.996605e-04)	(5.439750e-18 -1.197258e-17 -1.356280e-05)
2.022394e-05	(5.438651e-18 -1.197017e-17 -3.133279e-04)	(3.281459e-24 -8.807633e-24 -2.997614e-04)	(5.438648e-18 -1.197016e-17 -1.356649e-05)
2.022588e-05	(5.437548e-18 -1.196774e-17 -3.134324e-04)	(3.279674e-24 -8.810401e-24 -2.998622e-04)	(5.437545e-18 -1.196773e-17 -1.357018e-05)
2.022783e-05	(5.436444e-18 -1.196531e-17 -3.135370e-04)	(3.277911e-24 -8.813215e-24 -2.999631e-04)	(5.436440e-18 -1.196530e-17 -1.357387e-05)
2.022977e-05	(5.435339e-18 -1.196288e-17 -3.136416e-04)	(3.276171e-24 -8.816075e-24 -3.000640e-04)	(5.435336e-18 -1.196287e-17 -1.357757e-05)
2.023172e-05	(5.434234e-18 -1.196044e-17 -3.137462e-04)	(3.274454e-24 -8.818982e-24 -3.001649e-04)	(5.434231e-18 -1.196043e-17 -1.358126e-05)
2.023366e-05	(5.433129e-18 -1.195801e-17 -3.138509e-04)	(3.272759e-24 -8.821934e-24 -3.002659e-04)	(5.433125e-18 -1.195800e-17 -1.358496e-05)
2.023561e-05	(5.432023e-18 -1.195558e-17 -3.139555e-04)	(3.271087e-24 -8.824932e-24 -3.003669e-04)	(5.432020e-18 -1.195557e-17 -1.358865e-05)
2.023755e-05	(5.430917e-18 -1.195314e-17 -3.140603e-04)	(3.269437e-24 -8.827976e-24 -3.004679e-04)	(5.430914e-18 -1.195313e-17 -1.359235e-05)
2.023950e-05	(5.429810e-18 -1.195070e-17 -3.141650e-04)	(3.267810e-24 -8.831064e-24 -3.005689e-04)	(5.429807e-18 -1.195070e-17 -1.359606e-05)
2.024144e-05	(5.428703e-18 -1.194827e-17 -3.142698e-04)	(3.266205e-24 -8.834198e-24 -3.006700e-04)	(5.428699e-18 -1.194826e-17 -1.359977e-05)
2.024339e-05	(5.427596e-18 -1.194583e-17 -3.143746e-04)	(3.264623e-24 -8.837377e-24 -3.007711e-04)	(5.427592e-18 -1.194582e-17 -1.360348e-05)
2.024533e-05	(5.426487e-18 -1.194339e-17 -3.144794e-04)	(3.263063e-24 -8.840601e-24 -3.008722e-04)	(5.426484e-18 -1.194338e-17 -1.360720e-05)
2.024728e-05	(5.425379e-18 -1.194095e-17 -3.145842e-04)	(3.261526e-24 -8.843869e-24 -3.009733e-04)	(5.425376e-18 -1.194094e-17 -1.361092e-05)
2.024922e-05	(5.424270e-18 -1.193851e-17 -3.146891e-04)	(3.260011e-24 -8.847181e-24 -3.010745e-04)	(5.424266e-18 -1.193850e-17 -1.361464e-05)
2.025117e-05	(5.423160e-18 -1.193606e-17 -3.147940e-04)	(3.258519e-24 -8.850538e-24 -3.011757e-04)	(5.423157e-18 -1.193606e-17 -1.361836e-05)
2.025311e-05	(5.422050e-18 -1.193362e-17 -3.148990e-04)	(3.257048e-24 -8.853939e-24 -3.012769e-04)	(5.422047e-18 -1.193361e-17 -1.362209e-05)
2.025506e-05	(5.420939e-18 -1.193118e-17 -3.150040e-04)	(3.255600e-24 -8.857383e-24 -3.013781e-04)	(5.420936e-18 -1.193117e-17 -1.362583e-05)
2.025700e-05	(5.419828e-18 -1.192873e-17 -3.151090e-04)	(3.254175e-24 -8.860871e-24 -3.014794e-04)	(5.419825e-18 -1.192872e-17 -1.362957e-05)
2.025895e-05	(5.418717e-18 -1.192628e-17 -3.152141e-04)	(3.252767e-24 -8.864405e-24 -3.015807e-04)	(5.418713e-18 -1.192628e-17 -1.363340e-05)
2.026089e-05	(5.417605e-18 -1.192384e-17 -3.153191e-04)	(3.251380e-24 -8.867986e-24 -3.016820e-04)	(5.417602e-18 -1.192383e-17 -1.363706e-05)
2.026284e-05	(5.416492e-18 -1.192139e-17 -3.154241e-04)	(3.250012e-24 -8.871611e-24 -3.017834e-04)	(5.416489e-18 -1.192138e-17 -1.364076e-05)
2.026478e-05	(5.415379e-18 -1.191894e-17 -3.155292e-04)	(3.248665e-24 -8.875281e-24 -3.018847e-04)	(5.415376e-18 -1.191893e-17 -1.364444e-05)
2.026673e-05	(5.414266e-18 -1.191649e-17 -3.156343e-04)	(3.247337e-24 -8.878996e-24 -3.019861e-04)	(5.414262e-18 -1.191648e-17 -1.364812e-05)
2.026867e-05	(5.413152e-18 -1.191404e-17 -3.157394e-04)	(3.246031e-24 -8.882755e-24 -3.020876e-04)	(5.413149e-18 -1.191403e-17 -1.365180e-05)
2.027062e-05	(5.412038e-18 -1.191158e-17 -3.158445e-04)	(3.244745e-24 -8.886557e-24 -3.021890e-04)	(5.412035e-18 -1.191157e-17 -1.365548e-05)
2.027256e-05	(5.410923e-18 -1.190913e-17 -3.159497e-04)	(3.243480e-24 -8.890403e-24 -3.022905e-04)	(5.410920e-18 -1.190912e-17 -1.365916e-05)
2.027451e-05	(5.409808e-18 -1.190668e-17 -3.160549e-04)	(3.242235e-24 -8.894291e-24 -3.023921e-04)	(5.409805e-18 -1.190667e-17 -1.366283e-05)
2.027645e-05	(5.408693e-18 -1.190422e-17 -3.161601e-04)	(3.241012e-24 -8.898223e-24 -3.024936e-04)	(5.408689e-18 -1.190421e-17 -1.366651e-05)
2.027840e-05	(5.407576e-18 -1.190176e-17 -3.162653e-04)	(3.239809e-24 -8.902197e-24 -3.025952e-04)	(5.407573e-18 -1.190175e-17 -1.367018e-05)
2.028034e-05	(5.406460e-18 -1.189930e-17 -3.163706e-04)	(3.238628e-24 -8.906213e-24 -3.026968e-04)	(5.406457e-18 -1.189930e-17 -1.367386e-05)
2.028229e-05	(5.405344e-18 -1.189685e-17 -3.164759e-04)	(3.237467e-24 -8.910272e-24 -3.027984e-04)	(5.405340e-18 -1.189684e-17 -1.367754e-05)
2.028423e-05	(5.404225e-18 -1.189439e-17 -3.165812e-04)	(3.236328e-24 -8.914372e-24 -3.029000e-04)	(5.404222e-18 -1.189438e-17 -1.368122e-05)
2.028618e-05	(5.403108e-18 -1.189193e-17 -3.166866e-04)	(3.235210e-24 -8.918513e-24 -3.030017e-04)	(5.403105e-18 -1.189192e-17 -1.368490e-05)
2.028812e-05	(5.401989e-18 -1.188946e-17 -3.167920e-04)	(3.234113e-24 -8.922696e-24 -3.031034e-04)	(5.401986e-18 -1.188945e-17 -1.368858e-05)
2.029007e-05	(5.400870e-18 -1.188700e-17 -3.168974e-04)	(3.233037e-24 -8.926919e-24 -3.032051e-04)	(5.400867e-18 -1.188699e-17 -1.369226e-05)
2.029201e-05	(5.399751e-18 -1.188454e-17 -3.170028e-04)	(3.231982e-24 -8.931183e-24 -3.033069e-04)	(5.399748e-18 -1.188453e-17 -1.369595e-05)
2.029396e-05	(5.398632e-18 -1.188207e-17 -3.171083e-04)	(3.230949e-24 -8.935488e-24 -3.034087e-04)	(5.398629e-18 -1.188206e-17 -1.369963e-05)
2.029590e-05	(5.397511e-18 -1.187961e-17 -3.172138e-04)	(3.229936e-24 -8.939833e-24 -3.035105e-04)	(5.397508e-18 -1.187960e-17 -1.370332e-05)
2.029785e-05	(5.396390e-18 -1.187714e-17 -3.173193e-04)	(3.228945e-24 -8.944218e-24 -3.036123e-04)	(5.396387e-18 -1.187713e-17 -1.370702e-05)
2.029979e-05	(5.395269e-18 -1.187467e-17 -3.174248e-04)	(3.227975e-24 -8.948642e-24 -3.037141e-04)	(5.395266e-18 -1.187466e-17 -1.371072e-05)
2.030174e-05	(5.394148e-18 -1.187220e-17 -3.175304e-04)	(3.227026e-24 -8.953107e-24 -3.038160e-04)	(5.394145e-18 -1.187219e-17 -1.371442e-05)
2.030368e-05	(5.393026e-18 -1.186973e-17 -3.176360e-04)	(3.226098e-24 -8.957610e-24 -3.039179e-04)	(5.393022e-18 -1.186972e-17 -1.371813e-05)
2.030563e-05	(5.391904e-18 -1.186726e-17 -3.177417e-04)	(3.225191e-24 -8.962153e-24 -3.040198e-04)	(5.391901e-18 -1.186725e-17 -1.372184e-05)
2.030757e-05	(5.390781e-18 -1.186479e-17 -3.178473e-04)	(3.224305e-24 -8.966734e-24 -3.041218e-04)	(5.390778e-18 -1.186478e-17 -1.372555e-05)
2.030952e-05	(5.389657e-18 -1.186232e-17 -3.179530e-04)	(3.223440e-24 -8.971355e-24 -3.042238e-04)	(5.389654e-18 -1.186231e-17 -1.372926e-05)
2.031146e-05	(5.388534e-18 -1.185985e-17 -3.180588e-04)	(3.222596e-24 -8.976013e-24 -3.043258e-04)	(5.388531e-18 -1.185984e-17 -1.373300e-05)
2.031341e-05	(5.387411e-18 -1.185737e-17 -3.181646e-04)	(3.221773e-24 -8.980710e-24 -3.044278e-04)	(5.387407e-18 -1.185736e-17 -1.373678e-05)
2.031535e-05	(5.386286e-18 -1.185490e-17 -3.182703e-04)	(3.220972e-24 -8.985446e-24 -3.045299e-04)	(5.386283e-18 -1.185489e-17 -1.374048e-05)
2.031730e-05	(5.385161e-18 -1.185242e-17 -3.183761e-04)	(3.220191e-24 -8.990219e-24 -3.046320e-04)	(5.385158e-18 -1.185241e-17 -1.374416e-05)
2.031924e-05	(5.384035e-18 -1.184994e-17 -3.184819e-04)	(3.219431e-24 -8.995029e-24 -3.047341e-04)	(5.384032e-18 -1.184993e-17 -1.374782e-05)
2.032119e-05	(5.382909e-18 -1.184747e-17 -3.185877e-04)	(3.218692e-24 -8.999878e-24 -3.048362e-04)	(5.382906e-18 -1.184746e-17 -1.375149e-05)
2.032313e-05	(5.381783e-18 -1.184499e-17 -3.186936e-04)	(3.217974e-24 -9.004763e-24 -3.049384e-04)	(5.381780e-18 -1.184498e-17 -1.375515e-05)
2.032508e-05	(5.380657e-18 -1.184251e-17 -3.187994e-04)	(3.217277e-24 -9.009686e-24 -3.050406e-04)	(5.380654e-18 -1.184250e-17 -1.375881e-05)
2.032702e-05	(5.379529e-18 -1.184003e-17 -3.189053e-04)	(3.216600e-24 -9.014645e-24 -3.051428e-04)	(5.379526e-18 -1.184002e-17 -1.376247e-05)
2.032897e-05	(5.378402e-18 -1.183754e-17 -3.190112e-04)	(3.215944e-24 -9.019641e-24 -3.052451e-04)	(5.378399e-18 -1.183753e-17 -1.376612e-05)
2.033091e-05	(5.377274e-18 -1.183506e-17 -3.191172e-04)	(3.215308e-24 -9.024674e-24 -3.053474e-04)	(5.377271e-18 -1.183505e-17 -1.376978e-05)
2.033286e-05	(5.376146e-18 -1.183258e-17 -3.192231e-04)	(3.214693e-24 -9.029743e-24 -3.054497e-04)	(5.376143e-18 -1.183257e-17 -1.377343e-05)
2.033481e-05	(5.375018e-18 -1.183009e-17 -3.193291e-04)	(3.214098e-24 -9.034848e-24 -3.055520e-04)	(5.375015e-18 -1.183009e-17 -1.377709e-05)
2.033675e-05	(5.373889e-18 -1.182761e-17 -3.194351e-04)	(3.213523e-24 -9.039989e-24 -3.056544e-04)	(5.373886e-18 -1.182760e-17 -1.378074e-05)
2.033870e-05	(5.372759e-18 -1.182512e-17 -3.195412e-04)	(3.212969e-24 -9.045166e-24 -3.057568e-04)	(5.372756e-18 -1.182511e-17 -1.378440e-05)
2.034064e-05	(5.371630e-18 -1.182264e-17 -3.196472e-04)	(3.212434e-24 -9.050377e-24 -3.058592e-04)	(5.371626e-18 -1.182263e-17 -1.378806e-05)
2.034259e-05	(5.370499e-18 -1.182015e-17 -3.197533e-04)	(3.211920e-24 -9.055624e-24 -3.059616e-04)	(5.370496e-18 -1.182014e-17 -1.379172e-05)
2.034453e-05	(5.369369e-18 -1.181766e-17 -3.198595e-04)	(3.211425e-24 -9.060906e-24 -3.060641e-04)	(5.369365e-18 -1.181765e-17 -1.379538e-05)
2.034648e-05	(5.368237e-18 -1.181517e-17 -3.199656e-04)	(3.210950e-24 -9.066223e-24 -3.061666e-04)	(5.368234e-18 -1.181516e-17 -1.379904e-05)
2.034842e-05	(5.367106e-18 -1.181268e-17 -3.200718e-04)	(3.210494e-24 -9.071574e-24 -3.062691e-04)	(5.367103e-18 -1.181267e-17 -1.380270e-05)
2.035037e-05	(5.365973e-18 -1.181019e-17 -3.201780e-04)	(3.210058e-24 -9.076959e-24 -3.063716e-04)	(5.365970e-18 -1.181018e-17 -1.380636e-05)
2.035231e-05	(5.364841e-18 -1.180769e-17 -3.202842e-04)	(3.209642e-24 -9.082379e-24 -3.064742e-04)	(5.364838e-18 -1.180768e-17 -1.381003e-05)
2.035426e-05	(5.363708e-18 -1.180520e-17 -3.203905e-04)	(3.209245e-24 -9.087833e-24 -3.065768e-04)	(5.363705e-18 -1.180519e-17 -1.381370e-05)
2.035620e-05	(5.362576e-18 -1.180271e-17 -3.204968e-04)	(3.208867e-24 -9.093320e-24 -3.066794e-04)	(5.362572e-18 -1.180270e-17 -1.381738e-05)
2.035815e-05	(5.361442e-18 -1.180021e-17 -3.206026e-04)	(3.208508e-24 -9.098841e-24 -3.067820e-04)	(5.361439e-18 -1.180020e-17 -1.382057e-05)
2.036009e-05	(5.360308e-18 -1.179772e-17 -3.207093e-04)	(3.208169e-24 -9.104395e-24 -3.068847e-04)	(5.360305e-18 -1.179771e-17 -1.382454e-05)
2.036204e-05	(5.359174e-18 -1.179522e-17 -3.208156e-04)	(3.207849e-24 -9.109983e-24 -3.069874e-04)	(5.359171e-18 -1.179521e-17 -1.382825e-05)
2.036398e-05	(5.358040e-18 -1.179272e-17 -3.209221e-04)	(3.207547e-24 -9.115603e-24 -3.070901e-04)	(5.358037e-18 -1.179271e-17 -1.383200e-05)
2.036593e-05	(5.356904e-18 -1.179022e-17 -3.210286e-04)	(3.207266e-24 -9.121256e-24 -3.071929e-04)	(5.356901e-18 -1.179021e-17 -1.383575e-05)
2.036787e-05	(5.355769e-18 -1.178772e-17 -3.211351e-04)	(3.207005e-24 -9.126941e-24 -3.072956e-04)	(5.355766e-18 -1.178771e-17 -1.383950e-05)
2.036982e-05	(5.354634e-18 -1.178522e-17 -3.212412e-04)	(3.206765e-24 -9.132659e-24 -3.073984e-04)	(5.354630e-18 -1.178522e-17 -1.384272e-05)
2.037176e-05	(5.353497e-18 -1.178272e-17 -3.213479e-04)	(3.206544e-24 -9.138407e-24 -3.075013e-04)	(5.353494e-18 -1.178271e-17 -1.384666e-05)
2.037371e-05	(5.352361e-18 -1.178022e-17 -3.214545e-04)	(3.206342e-24 -9.144188e-24 -3.076041e-04)	(5.352358e-18 -1.178021e-17 -1.385034e-05)
2.037565e-05	(5.351224e-18 -1.177772e-17 -3.215611e-04)	(3.206160e-24 -9.150001e-24 -3.077070e-04)	(5.351220e-18 -1.177771e-17 -1.385406e-05)
2.037760e-05	(5.350087e-18 -1.177522e-17 -3.216672e-04)	(3.205998e-24 -9.155846e-24 -3.078099e-04)	(5.350084e-18 -1.177521e-17 -1.385722e-05)
2.037954e-05	(5.348948e-18 -1.177271e-17 -3.217741e-04)	(3.205854e-24 -9.161721e-24 -3.079129e-04)	(5.348945e-18 -1.177270e-17 -1.386117e-05)
2.038149e-05	(5.347810e-18 -1.177020e-17 -3.218807e-04)	(3.205729e-24 -9.167629e-24 -3.080158e-04)	(5.347807e-18 -1.177020e-17 -1.386483e-05)
2.038343e-05	(5.346672e-18 -1.176770e-17 -3.219874e-04)	(3.205623e-24 -9.173567e-24 -3.081188e-04)	(5.346669e-18 -1.176769e-17 -1.386854e-05)
2.038538e-05	(5.345533e-18 -1.176519e-17 -3.220936e-04)	(3.205536e-24 -9.179538e-24 -3.082219e-04)	(5.345529e-18 -1.176518e-17 -1.387169e-05)
2.038732e-05	(5.344394e-18 -1.176269e-17 -3.222006e-04)	(3.205467e-24 -9.185539e-24 -3.083249e-04)	(5.344391e-18 -1.176268e-17 -1.387564e-05)
2.038927e-05	(5.343254e-18 -1.176018e-17 -3.223073e-04)	(3.205417e-24 -9.191571e-24 -3.084280e-04)	(5.343251e-18 -1.176017e-17 -1.387930e-05)
2.039121e-05	(5.342114e-18 -1.175767e-17 -3.224136e-04)	(3.205385e-24 -9.197634e-24 -3.085311e-04)	(5.342111e-18 -1.175766e-17 -1.388251e-05)
2.039316e-05	(5.340974e-18 -1.175516e-17 -3.225207e-04)	(3.205371e-24 -9.203728e-24 -3.086342e-04)	(5.340971e-18 -1.175515e-17 -1.388645e-05)
2.039510e-05	(5.339833e-18 -1.175264e-17 -3.226275e-04)	(3.205375e-24 -9.209853e-24 -3.087374e-04)	(5.339829e-18 -1.175264e-17 -1.389013e-05)
2.039705e-05	(5.338691e-18 -1.175013e-17 -3.227339e-04)	(3.205397e-24 -9.216009e-24 -3.088405e-04)	(5.338688e-18 -1.175012e-17 -1.389335e-05)
2.039899e-05	(5.337551e-18 -1.174762e-17 -3.228410e-04)	(3.205437e-24 -9.222195e-24 -3.089437e-04)	(5.337547e-18 -1.174761e-17 -1.389730e-05)
2.040094e-05	(5.336409e-18 -1.174511e-17 -3.229479e-04)	(3.205494e-24 -9.228412e-24 -3.090470e-04)	(5.336405e-18 -1.174510e-17 -1.390098e-05)
2.040288e-05	(5.335266e-18 -1.174259e-17 -3.230544e-04)	(3.205570e-24 -9.234659e-24 -3.091502e-04)	(5.335262e-18 -1.174258e-17 -1.390420e-05)
2.040483e-05	(5.334125e-18 -1.174008e-17 -3.231617e-04)	(3.205663e-24 -9.240936e-24 -3.092535e-04)	(5.334122e-18 -1.174007e-17 -1.390816e-05)
2.040677e-05	(5.332981e-18 -1.173756e-17 -3.232686e-04)	(3.205773e-24 -9.247244e-24 -3.093568e-04)	(5.332978e-18 -1.173755e-17 -1.391185e-05)