/*--------------------------------*- C++ -*----------------------------------*\
| =========                 |                                                 |
| \\      /  F ield         | OpenFOAM: The Open Source CFD Toolbox           |
|  \\    /   O peration     | Version:  v1706                                 |
|   \\  /    A nd           | Web:      www.OpenFOAM.com                      |
|    \\/     M anipulation  |                                                 |
\*---------------------------------------------------------------------------*/
FoamFile
{
    version     2.0;
    format      ascii;
    class       volScalarField;
    location    "1.3e-05";
    object      wallHeatFlux;
}
// * * * * * * * * * * * * * * * * * * * * * * * * * * * * * * * * * * * * * //

dimensions      [1 0 -3 0 0 0 0];


internalField   uniform 0;

boundaryField
{
    cone
    {
        type            calculated;
        value           nonuniform List<scalar> 
147
(
1.08985e+06
1.08954e+06
1.0892e+06
1.08883e+06
1.0884e+06
1.08792e+06
1.08736e+06
1.08673e+06
1.08603e+06
1.08527e+06
1.08443e+06
1.08352e+06
1.08255e+06
1.0815e+06
1.08039e+06
1.07921e+06
1.07796e+06
1.07664e+06
1.07525e+06
1.07379e+06
1.07227e+06
1.07068e+06
1.06902e+06
1.06728e+06
1.06548e+06
1.06361e+06
1.06167e+06
1.05965e+06
1.05757e+06
1.05543e+06
1.05321e+06
1.05092e+06
1.04857e+06
1.04615e+06
1.04366e+06
1.04111e+06
1.03849e+06
1.03581e+06
1.03306e+06
1.03024e+06
1.02737e+06
1.02442e+06
1.02142e+06
1.01835e+06
1.01522e+06
1.01203e+06
1.00877e+06
1.00546e+06
1.00208e+06
998649
995156
991605
987997
984332
980610
976833
973002
969116
965177
961184
957140
953043
948895
944697
940449
936153
931809
927417
922978
918494
913964
909391
904773
900113
895411
890667
885883
881060
876198
871297
866359
861384
856374
851329
846250
841138
835993
830817
825610
820372
815106
809812
804491
799141
793767
788368
782945
777498
772028
766538
761029
755498
749949
744382
738799
733200
727585
721955
716313
710659
704993
699315
693628
687933
682230
676518
670801
665079
659351
653619
647886
642153
636419
630686
624953
619222
613493
607767
602044
596326
590613
584907
579206
573514
567829
562154
556488
550833
545188
539556
533937
528337
522761
517208
511667
506133
1.09101e+06
)
;
    }
    inlet
    {
        type            calculated;
        value           uniform 0;
    }
    rWedge
    {
        type            wedge;
    }
    lWedge
    {
        type            wedge;
    }
    outlet
    {
        type            calculated;
        value           nonuniform 0();
    }
    procBoundary3to2
    {
        type            processor;
        value           uniform 0;
    }
}


// ************************************************************************* //
