/*--------------------------------*- C++ -*----------------------------------*\
| =========                 |                                                 |
| \\      /  F ield         | OpenFOAM: The Open Source CFD Toolbox           |
|  \\    /   O peration     | Version:  v1706                                 |
|   \\  /    A nd           | Web:      www.OpenFOAM.com                      |
|    \\/     M anipulation  |                                                 |
\*---------------------------------------------------------------------------*/
FoamFile
{
    version     2.0;
    format      ascii;
    class       volScalarField;
    location    "3.9e-05";
    object      Mach;
}
// * * * * * * * * * * * * * * * * * * * * * * * * * * * * * * * * * * * * * //

dimensions      [0 0 0 0 0 0 0];


internalField   nonuniform List<scalar> 
30104
(
7.18506
7.18506
7.18506
7.18506
7.18506
7.18506
7.18506
7.18506
7.18506
7.18506
7.18506
7.18506
7.18506
7.18506
7.18506
7.18506
7.18506
7.18506
7.18506
7.18506
7.18506
7.18506
7.18506
7.18506
7.18506
7.18506
7.18506
7.18506
7.18506
7.18506
7.18506
7.18506
7.18506
7.18506
7.18506
7.18506
7.18506
7.18506
7.18506
7.18506
7.18506
7.18506
7.18506
7.18506
7.18506
7.18506
7.18506
7.18506
7.18506
7.18506
7.18506
7.18506
7.18506
7.18506
7.18506
7.18506
7.18506
7.18506
7.18506
7.18506
7.18506
7.18506
7.18506
7.18506
7.18506
7.18506
7.18506
7.18506
7.18506
7.18506
7.18506
7.18506
7.18506
7.18506
7.18506
7.18506
7.18506
7.18506
7.18506
7.18506
7.18506
7.18506
7.18506
7.18506
7.18506
7.18506
7.18506
7.18506
7.18506
7.18506
7.18506
7.18506
7.18506
7.18506
7.18506
7.18506
7.18506
7.18506
7.18506
7.18506
7.18506
7.18506
7.18506
7.18506
7.18506
7.18506
7.18506
7.18506
7.18506
7.18506
7.18506
7.18506
7.18506
7.18506
7.18506
7.18506
7.18506
7.18506
7.18506
7.18506
7.18506
7.18506
7.18506
7.18506
7.18506
7.18506
7.18506
7.18506
7.18506
7.18506
7.18506
7.18506
7.18506
7.18506
7.18506
7.18506
7.18506
7.18506
7.18506
7.18506
7.18506
7.18506
7.18506
7.18506
7.18506
7.18506
7.18506
7.18506
7.18506
7.18506
7.18506
7.18506
7.18506
7.18506
7.18506
7.18506
7.18506
7.18506
7.18506
7.18506
7.18506
7.18506
7.18506
7.18506
7.18506
7.18506
7.18506
7.18506
7.18506
7.18506
7.18506
7.18506
7.18506
7.18506
7.18506
7.18506
7.18506
7.18506
7.18506
7.18506
7.18506
7.18506
7.18506
7.18506
7.18506
7.18506
7.18506
7.18506
7.18506
7.18506
7.18506
7.18506
7.18506
7.18506
7.18506
7.18506
7.18506
7.18506
7.18506
7.18506
7.18506
7.18506
7.18506
7.18506
7.18506
7.18506
7.18506
7.18506
7.18506
7.18506
7.18506
7.18506
7.18506
7.18506
7.18506
7.18506
7.18506
7.18506
7.18506
7.18506
7.18506
7.18506
7.18506
7.18506
7.18506
7.18506
7.18506
7.18506
7.18506
7.18506
7.18506
7.18506
7.18506
7.18506
7.18506
7.18506
7.18506
7.18506
7.18506
7.18506
7.18506
7.18506
7.18506
7.18506
7.18506
7.18506
7.18506
7.18506
7.18506
7.18506
7.18506
7.18506
7.18506
7.18506
7.18506
7.18506
7.18506
7.18506
7.18506
7.18506
7.18506
7.18506
7.18506
7.18506
7.18506
7.18506
7.18506
7.18506
7.18506
7.18506
7.18506
7.18506
7.18506
7.18506
7.18506
7.18506
7.18506
7.18506
7.18506
7.18506
7.18506
7.18506
7.18506
7.18506
7.18506
7.18506
7.18506
7.18506
7.18506
7.18506
7.18506
7.18506
7.18506
7.18506
7.18506
7.18506
7.18506
7.18506
7.18506
7.18506
7.18506
7.18506
7.18506
7.18506
7.18506
7.18506
7.18506
7.18506
7.18506
7.18506
7.18506
7.18506
7.18506
7.18506
7.18506
7.18506
7.18506
7.18506
7.18506
7.18506
7.18506
7.18506
7.18506
7.18506
7.18506
7.18506
7.18506
7.18506
7.18506
7.18506
7.18506
7.18506
7.18506
7.18506
7.18506
7.18506
7.18506
7.18506
7.18506
7.18506
7.18506
7.18506
7.18506
7.18506
7.18506
7.18506
7.18506
7.18506
7.18506
7.18506
7.18506
7.18506
7.18506
7.18506
7.18506
7.18506
7.18506
7.18506
7.18506
7.18506
7.18506
7.18506
7.18506
7.18506
7.18506
7.18506
7.18506
7.18506
7.18506
7.18506
7.18506
7.18506
7.18506
7.18506
7.18506
7.18506
7.18506
7.18506
7.18506
7.18506
7.18506
7.18506
7.18506
7.18506
7.18506
7.18506
7.18506
7.18506
7.18506
7.18506
7.18506
7.18506
7.18506
7.18506
7.18506
7.18506
7.18506
7.18506
7.18506
7.18506
7.18506
7.18506
7.18506
7.18506
7.18506
7.18506
7.18506
7.18506
7.18506
7.18506
7.18506
7.18506
7.18506
7.18506
7.18506
7.18506
7.18506
7.18506
7.18506
7.18506
7.18506
7.18506
7.18506
7.18506
7.18506
7.18506
7.18506
7.18506
7.18506
7.18506
7.18506
7.18506
7.18506
7.18506
7.18506
7.18506
7.18506
7.18506
7.18506
7.18506
7.18506
7.18506
7.18506
7.18506
7.18506
7.18506
7.18506
7.18506
7.18506
7.18506
7.18506
7.18506
7.18506
7.18506
7.18506
7.18506
7.18506
7.18506
7.18506
7.18506
7.18506
7.18506
7.18506
7.18506
7.18506
7.18506
7.18506
7.18506
7.18506
7.18506
7.18506
7.18506
7.18506
7.18506
7.18506
7.18506
7.18506
7.18506
7.18506
7.18506
7.18506
7.18506
7.18506
7.18506
7.18506
7.18506
7.18506
7.18506
7.18506
7.18506
7.18506
7.18506
7.18506
7.18506
7.18506
7.18506
7.18506
7.18506
7.18506
7.18506
7.18506
7.18506
7.18506
7.18506
7.18506
7.18506
7.18506
7.18506
7.18506
7.18506
7.18506
7.18506
7.18506
7.18506
7.18506
7.18506
7.18506
7.18506
7.18506
7.18506
7.18506
7.18506
7.18506
7.18506
7.18506
7.18506
7.18506
7.18506
7.18506
7.18506
7.18506
7.18506
7.18506
7.18506
7.18506
7.18506
7.18506
7.18506
7.18506
7.18506
7.18506
7.18506
7.18506
7.18506
7.18506
7.18506
7.18506
7.18506
7.18506
7.18506
7.18506
7.18506
7.18506
7.18506
7.18506
7.18506
7.18506
7.18506
7.18506
7.18506
7.18506
7.18506
7.18506
7.18506
7.18506
7.18506
7.18506
7.18506
7.18506
7.18506
7.18506
7.18506
7.18506
7.18506
7.18506
7.18506
7.18506
7.18506
7.18506
7.18506
7.18506
7.18506
7.18506
7.18506
7.18506
7.18506
7.18506
7.18506
7.18506
7.18506
7.18506
7.18506
7.18506
7.18506
7.18506
7.18506
7.18506
7.18506
7.18506
7.18506
7.18506
7.18506
7.18506
7.18506
7.18506
7.18506
7.18506
7.18506
7.18506
7.18506
7.18506
7.18506
7.18506
7.18506
7.18506
7.18506
7.18506
7.18506
7.18506
7.18506
7.18506
7.18506
7.18506
7.18506
7.18506
7.18506
7.18506
7.18506
7.18506
7.18506
7.18506
7.18506
7.18506
7.18506
7.18506
7.18506
7.18506
7.18506
7.18506
7.18506
7.18506
7.18506
7.18506
7.18506
7.18506
7.18506
7.18506
7.18506
7.18506
7.18506
7.18506
7.18506
7.18506
7.18506
7.18506
7.18506
7.18506
7.18506
7.18506
7.18506
7.18506
7.18506
7.18506
7.18506
7.18506
7.18506
7.18506
7.18506
7.18506
7.18506
7.18506
7.18506
7.18506
7.18506
7.18506
7.18506
7.18506
7.18506
7.18506
7.18506
7.18506
7.18506
7.18506
7.18506
7.18506
7.18506
7.18506
7.18506
7.18506
7.18506
7.18506
7.18506
7.18506
7.18506
7.18506
7.18506
7.18506
7.18506
7.18506
7.18506
7.18506
7.18506
7.18506
7.18506
7.18506
7.18506
7.18506
7.18506
7.18506
7.18506
7.18506
7.18506
7.18506
7.18506
7.18506
7.18506
7.18506
7.18506
7.18506
7.18506
7.18506
7.18506
7.18506
7.18506
7.18506
7.18506
7.18506
7.18506
7.18506
7.18506
7.18506
7.18506
7.18506
7.18506
7.18506
7.18506
7.18506
7.18506
7.18506
7.18506
7.18506
7.18506
7.18506
7.18506
7.18506
7.18506
7.18506
7.18506
7.18506
7.18506
7.18506
7.18506
7.18506
7.18506
7.18506
7.18506
7.18506
7.18506
7.18506
7.18506
7.18506
7.18506
7.18506
7.18506
7.18506
7.18506
7.18506
7.18506
7.18506
7.18506
7.18506
7.18506
7.18506
7.18506
7.18506
7.18506
7.18506
7.18506
7.18506
7.18506
7.18506
7.18506
7.18506
7.18506
7.18506
7.18506
7.18506
7.18506
7.18506
7.18506
7.18506
7.18506
7.18506
7.18506
7.18506
7.18506
7.18506
7.18506
7.18506
7.18506
7.18506
7.18506
7.18506
7.18506
7.18506
7.18506
7.18506
7.18506
7.18506
7.18506
7.18506
7.18506
7.18506
7.18506
7.18506
7.18506
7.18506
7.18506
7.18506
7.18506
7.18506
7.18506
7.18506
7.18506
7.18506
7.18506
7.18506
7.18506
7.18506
7.18506
7.18506
7.18506
7.18506
7.18506
7.18506
7.18506
7.18506
7.18506
7.18506
7.18506
7.18506
7.18506
7.18506
7.18506
7.18506
7.18506
7.18506
7.18506
7.18506
7.18506
7.18506
7.18506
7.18506
7.18506
7.18506
7.18506
7.18506
7.18506
7.18506
7.18506
7.18506
7.18506
7.18506
7.18506
7.18506
7.18506
7.18506
7.18506
7.18506
7.18506
7.18506
7.18506
7.18506
7.18506
7.18506
7.18506
7.18506
7.18506
7.18506
7.18506
7.18506
7.18506
7.18506
7.18506
7.18506
7.18506
7.18506
7.18506
7.18506
7.18506
7.18506
7.18506
7.18506
7.18506
7.18506
7.18506
7.18506
7.18506
7.18506
7.18506
7.18506
7.18506
7.18506
7.18506
7.18506
7.18506
7.18506
7.18506
7.18506
7.18506
7.18506
7.18506
7.18506
7.18506
7.18506
7.18506
7.18506
7.18506
7.18506
7.18506
7.18506
7.18506
7.18506
7.18506
7.18506
7.18506
7.18506
7.18506
7.18506
7.18506
7.18506
7.18506
7.18506
7.18506
7.18506
7.18506
7.18506
7.18506
7.18506
7.18506
7.18506
7.18506
7.18506
7.18506
7.18506
7.18506
7.18506
7.18506
7.18506
7.18506
7.18506
7.18506
7.18506
7.18506
7.18506
7.18506
7.18506
7.18506
7.18506
7.18506
7.18506
7.18506
7.18506
7.18506
7.18506
7.18506
7.18506
7.18506
7.18506
7.18506
7.18506
7.18506
7.18506
7.18506
7.18506
7.18506
7.18506
7.18506
7.18506
7.18506
7.18506
7.18506
7.18506
7.18506
7.18506
7.18506
7.18506
7.18506
7.18506
7.18506
7.18506
7.18506
7.18506
7.18506
7.18506
7.18506
7.18506
7.18506
7.18506
7.18506
7.18506
7.18506
7.18506
7.18506
7.18506
7.18506
7.18506
7.18506
7.18506
7.18506
7.18506
7.18506
7.18506
7.18506
7.18506
7.18506
7.18506
7.18506
7.18506
7.18506
7.18506
7.18506
7.18506
7.18506
7.18506
7.18506
7.18506
7.18506
7.18506
7.18506
7.18506
7.18506
7.18506
7.18506
7.18506
7.18506
7.18506
7.18506
7.18506
7.18506
7.18506
7.18506
7.18506
7.18506
7.18506
7.18506
7.18506
7.18506
7.18506
7.18506
7.18506
7.18506
7.18506
7.18506
7.18506
7.18506
7.18506
7.18506
7.18506
7.18506
7.18506
7.18506
7.18506
7.18506
7.18506
7.18506
7.18506
7.18506
7.18506
7.18506
7.18506
7.18506
7.18506
7.18506
7.18506
7.18506
7.18506
7.18506
7.18506
7.18506
7.18506
7.18506
7.18506
7.18506
7.18506
7.18506
7.18506
7.18506
7.18506
7.18506
7.18506
7.18506
7.18506
7.18506
7.18506
7.18506
7.18506
7.18506
7.18506
7.18506
7.18506
7.18506
7.18506
7.18506
7.18506
7.18506
7.18506
7.18506
7.18506
7.18506
7.18506
7.18506
7.18506
7.18506
7.18506
7.18506
7.18506
7.18506
7.18506
7.18506
7.18506
7.18506
7.18506
7.18506
7.18506
7.18506
7.18506
7.18506
7.18506
7.18506
7.18506
7.18506
7.18506
7.18506
7.18506
7.18506
7.18506
7.18506
7.18506
7.18506
7.18506
7.18506
7.18506
7.18506
7.18506
7.18506
7.18506
7.18506
7.18506
7.18506
7.18506
7.18506
7.18506
7.18506
7.18506
7.18506
7.18506
7.18506
7.18506
7.18506
7.18506
7.18506
7.18506
7.18506
7.18506
7.18506
7.18506
7.18506
7.18506
7.18506
7.18506
7.18506
7.18506
7.18506
7.18506
7.18506
7.18506
7.18506
7.18506
7.18506
7.18506
7.18506
7.18506
7.18506
7.18506
7.18506
7.18506
7.18506
7.18506
7.18506
7.18506
7.18506
7.18506
7.18506
7.18506
7.18506
7.18506
7.18506
7.18506
7.18506
7.18506
7.18506
7.18506
7.18506
7.18506
7.18506
7.18506
7.18506
7.18506
7.18506
7.18506
7.18506
7.18506
7.18506
7.18506
7.18506
7.18506
7.18506
7.18506
7.18506
7.18506
7.18506
7.18506
7.18506
7.18506
7.18506
7.18506
7.18506
7.18506
7.18506
7.18506
7.18506
7.18506
7.18506
7.18506
7.18506
7.18506
7.18506
7.18506
7.18506
7.18506
7.18506
7.18506
7.18506
7.18506
7.18506
7.18506
7.18506
7.18506
7.18506
7.18506
7.18506
7.18506
7.18506
7.18506
7.18506
7.18506
7.18506
7.18506
7.18506
7.18506
7.18506
7.18506
7.18506
7.18506
7.18506
7.18506
7.18506
7.18506
7.18506
7.18506
7.18506
7.18506
7.18506
7.18506
7.18506
7.18506
7.18506
7.18506
7.18506
7.18506
7.18506
7.18506
7.18506
7.18506
7.18506
7.18506
7.18506
7.18506
7.18506
7.18506
7.18506
7.18506
7.18506
7.18506
7.18506
7.18506
7.18506
7.18506
7.18506
7.18506
7.18506
7.18506
7.18506
7.18506
7.18506
7.18506
7.18506
7.18506
7.18506
7.18506
7.18506
7.18506
7.18506
7.18506
7.18506
7.18506
7.18506
7.18506
7.18506
7.18506
7.18506
7.18506
7.18506
7.18506
7.18506
7.18506
7.18506
7.18506
7.18506
7.18506
7.18506
7.18506
7.18506
7.18506
7.18506
7.18506
7.18506
7.18506
7.18506
7.18506
7.18506
7.18506
7.18506
7.18506
7.18506
7.18506
7.18506
7.18506
7.18506
7.18506
7.18506
7.18506
7.18506
7.18506
7.18506
7.18506
7.18506
7.18506
7.18506
7.18506
7.18506
7.18506
7.18506
7.18506
7.18506
7.18506
7.18506
7.18506
7.18506
7.18506
7.18506
7.18506
7.18506
7.18506
7.18506
7.18506
7.18506
7.18506
7.18506
7.18506
7.18506
7.18506
7.18506
7.18506
7.18506
7.18506
7.18506
7.18506
7.18506
7.18506
7.18506
7.18506
7.18506
7.18506
7.18506
7.18506
7.18506
7.18506
7.18506
7.18506
7.18506
7.18506
7.18506
7.18506
7.18506
7.18506
7.18506
7.18506
7.18506
7.18506
7.18506
7.18506
7.18506
7.18506
7.18506
7.18506
7.18506
7.18506
7.18506
7.18506
7.18506
7.18506
7.18506
7.18506
7.18506
7.18506
7.18506
7.18506
7.18506
7.18506
7.18506
7.18506
7.18506
7.18506
7.18506
7.18506
7.18506
7.18506
7.18506
7.18506
7.18506
7.18506
7.18506
7.18506
7.18506
7.18506
7.18506
7.18506
7.18506
7.18506
7.18506
7.18506
7.18506
7.18506
7.18506
7.18506
7.18506
7.18506
7.18506
7.18506
7.18506
7.18506
7.18506
7.18506
7.18506
7.18506
7.18506
7.18506
7.18506
7.18506
7.18506
7.18506
7.18506
7.18506
7.18506
7.18506
7.18506
7.18506
7.18506
7.18506
7.18506
7.18506
7.18506
7.18506
7.18506
7.18506
7.18506
7.18506
7.18506
7.18506
7.18506
7.18506
7.18506
7.18506
7.18506
7.18506
7.18506
7.18506
7.18506
7.18506
7.18506
7.18506
7.18506
7.18506
7.18506
7.18506
7.18506
7.18506
7.18506
7.18506
7.18506
7.18506
7.18506
7.18506
7.18506
7.18506
7.18506
7.18506
7.18506
7.18506
7.18506
7.18506
7.18506
7.18506
7.18506
7.18506
7.18506
7.18506
7.18506
7.18506
7.18506
7.18506
7.18506
7.18506
7.18506
7.18506
7.18506
7.18506
7.18506
7.18506
7.18506
7.18506
7.18506
7.18506
7.18506
7.18506
7.18506
7.18506
7.18506
7.18506
7.18506
7.18506
7.18506
7.18506
7.18506
7.18506
7.18506
7.18506
7.18506
7.18506
7.18506
7.18506
7.18506
7.18506
7.18506
7.18505
7.18505
7.18505
7.18505
7.18505
7.18505
7.18505
7.18505
7.18505
7.18505
7.18505
7.18505
7.18505
7.18505
7.18505
7.18505
7.18505
7.18505
7.18505
7.18506
7.18506
7.18506
7.18506
7.18506
7.18506
7.18506
7.18506
7.18506
7.18506
7.18506
7.18506
7.18506
7.18506
7.18506
7.18506
7.18506
7.18506
7.18506
7.18506
7.18506
7.18506
7.18506
7.18506
7.18506
7.18506
7.18506
7.18506
7.18506
7.18506
7.18506
7.18506
7.18506
7.18506
7.18506
7.18506
7.18506
7.18506
7.18506
7.18506
7.18506
7.18506
7.18506
7.18506
7.18506
7.18506
7.18506
7.18506
7.18506
7.18506
7.18506
7.18506
7.18506
7.18506
7.18506
7.18506
7.18506
7.18506
7.18506
7.18506
7.18506
7.18506
7.18506
7.18506
7.18506
7.18506
7.18506
7.18506
7.18506
7.18506
7.18506
7.18506
7.18506
7.18506
7.18506
7.18506
7.18506
7.18506
7.18506
7.18506
7.18506
7.18506
7.18506
7.18506
7.18506
7.18506
7.18506
7.18506
7.18506
7.18506
7.18506
7.18506
7.18506
7.18506
7.18506
7.18506
7.18506
7.18506
7.18506
7.18506
7.18506
7.18506
7.18506
7.18506
7.18506
7.18506
7.18506
7.18506
7.18506
7.18506
7.18506
7.18506
7.18506
7.18506
7.18506
7.18506
7.18506
7.18506
7.18506
7.18506
7.18506
7.18506
7.18506
7.18506
7.18506
7.18506
7.18506
7.18506
7.18506
7.18506
7.18506
7.18506
7.18506
7.18506
7.18506
7.18506
7.18506
7.18506
7.18506
7.18506
7.18506
7.18506
7.18506
7.18506
7.18506
7.18506
7.18506
7.18506
7.18506
7.18506
7.18506
7.18506
7.18506
7.18506
7.18506
7.18506
7.18506
7.18506
7.18506
7.18506
7.18506
7.18506
7.18506
7.18506
7.18506
7.18506
7.18506
7.18505
7.18505
7.18505
7.18505
7.18505
7.18505
7.18505
7.18504
7.18504
7.18504
7.18503
7.18503
7.18502
7.18502
7.18502
7.18501
7.18501
7.18501
7.185
7.185
7.185
7.185
7.185
7.18499
7.18499
7.18499
7.18498
7.18498
7.18498
7.18498
7.18498
7.18498
7.18498
7.18498
7.18499
7.18499
7.18499
7.18499
7.185
7.185
7.185
7.185
7.18501
7.18501
7.18501
7.18501
7.18502
7.18502
7.18502
7.18502
7.18502
7.18503
7.18503
7.18503
7.18503
7.18503
7.18503
7.18504
7.18504
7.18504
7.18504
7.18504
7.18504
7.18504
7.18505
7.18505
7.18505
7.18505
7.18505
7.18505
7.18505
7.18506
7.18506
7.18506
7.18506
7.18506
7.18506
7.18506
7.18506
7.18506
7.18506
7.18506
7.18506
7.18506
7.18506
7.18506
7.18506
7.18506
7.18506
7.18506
7.18506
7.18506
7.18506
7.18506
7.18506
7.18506
7.18506
7.18506
7.18506
7.18506
7.18506
7.18506
7.18506
7.18506
7.18506
7.18506
7.18506
7.18506
7.18506
7.18506
7.18506
7.18506
7.18506
7.18506
7.18506
7.18506
7.18506
7.18506
7.18506
7.18506
7.18506
7.18506
7.18506
7.18506
7.18506
7.18506
7.18506
7.18506
7.18506
7.18506
7.18506
7.18506
7.18506
7.18506
7.18506
7.18506
7.18506
7.18506
7.18506
7.18506
7.18506
7.18506
7.18506
7.18506
7.18506
7.18506
7.18506
7.18506
7.18506
7.18506
7.18506
7.18506
7.18506
7.18506
7.18506
7.18506
7.18506
7.18506
7.18506
7.18506
7.18506
7.18506
7.18506
7.18506
7.18506
7.18506
7.18506
7.18506
7.18506
7.18506
7.18506
7.18506
7.18506
7.18506
7.18506
7.18506
7.18506
7.18506
7.18506
7.18506
7.18506
7.18506
7.18506
7.18506
7.18506
7.18506
7.18506
7.18506
7.18506
7.18506
7.18506
7.18506
7.18506
7.18505
7.18505
7.18505
7.18505
7.18505
7.18505
7.18504
7.18504
7.18504
7.18503
7.18503
7.18502
7.18502
7.18501
7.185
7.18499
7.18498
7.18497
7.18496
7.18495
7.18494
7.18492
7.1849
7.18487
7.18485
7.18482
7.18479
7.18477
7.18474
7.18472
7.1847
7.18468
7.18467
7.18465
7.18464
7.18463
7.18461
7.18459
7.18457
7.18455
7.18453
7.18452
7.1845
7.1845
7.1845
7.1845
7.18451
7.18452
7.18453
7.18455
7.18456
7.18458
7.1846
7.18462
7.18464
7.18466
7.18467
7.18469
7.18471
7.18472
7.18474
7.18475
7.18477
7.18478
7.18479
7.1848
7.18482
7.18483
7.18484
7.18485
7.18486
7.18487
7.18488
7.18489
7.1849
7.18491
7.18492
7.18493
7.18494
7.18495
7.18496
7.18497
7.18498
7.18498
7.18499
7.185
7.18501
7.18502
7.18502
7.18503
7.18504
7.18504
7.18504
7.18505
7.18505
7.18505
7.18505
7.18505
7.18506
7.18506
7.18506
7.18506
7.18506
7.18506
7.18506
7.18506
7.18506
7.18506
7.18506
7.18506
7.18506
7.18506
7.18506
7.18506
7.18506
7.18506
7.18506
7.18506
7.18506
7.18506
7.18506
7.18506
7.18506
7.18506
7.18506
7.18506
7.18506
7.18506
7.18506
7.18506
7.18506
7.18506
7.18506
7.18506
7.18506
7.18506
7.18506
7.18506
7.18506
7.18506
7.18506
7.18506
7.18506
7.18506
7.18506
7.18506
7.18506
7.18506
7.18506
7.18506
7.18506
7.18506
7.18506
7.18506
7.18506
7.18506
7.18506
7.18506
7.18506
7.18506
7.18506
7.18506
7.18506
7.18506
7.18506
7.18506
7.18506
7.18506
7.18506
7.18506
7.18506
7.18506
7.18506
7.18506
7.18506
7.18506
7.18506
7.18506
7.18506
7.18506
7.18506
7.18506
7.18506
7.18506
7.18506
7.18506
7.18506
7.18506
7.18506
7.18506
7.18506
7.18506
7.18505
7.18505
7.18505
7.18505
7.18505
7.18505
7.18504
7.18504
7.18504
7.18503
7.18503
7.18503
7.18502
7.18501
7.18501
7.185
7.18499
7.18498
7.18497
7.18495
7.18494
7.18493
7.18491
7.18489
7.18486
7.18483
7.18479
7.18475
7.18471
7.18466
7.1846
7.18455
7.18449
7.18442
7.18434
7.18423
7.18411
7.18396
7.1838
7.18362
7.18344
7.18327
7.1831
7.18294
7.18279
7.18266
7.18254
7.18243
7.18234
7.18225
7.18217
7.18207
7.18196
7.18183
7.1817
7.18158
7.18149
7.18143
7.1814
7.1814
7.18143
7.18148
7.18155
7.18163
7.18173
7.18184
7.18196
7.18207
7.18219
7.18231
7.18242
7.18253
7.18263
7.18273
7.18282
7.18291
7.183
7.18308
7.18316
7.18323
7.1833
7.18337
7.18344
7.18351
7.18357
7.18364
7.1837
7.18377
7.18383
7.1839
7.18396
7.18403
7.1841
7.18416
7.18423
7.1843
7.18437
7.18443
7.1845
7.18456
7.18462
7.18468
7.18474
7.18478
7.18483
7.18486
7.18489
7.18491
7.18493
7.18495
7.18497
7.18498
7.18499
7.18501
7.18502
7.18503
7.18503
7.18504
7.18504
7.18505
7.18505
7.18505
7.18505
7.18506
7.18506
7.18506
7.18506
7.18506
7.18506
7.18506
7.18506
7.18506
7.18506
7.18506
7.18506
7.18506
7.18506
7.18506
7.18506
7.18506
7.18506
7.18506
7.18506
7.18506
7.18506
7.18506
7.18506
7.18506
7.18506
7.18506
7.18506
7.18506
7.18506
7.18506
7.18506
7.18506
7.18506
7.18506
7.18506
7.18506
7.18506
7.18506
7.18506
7.18506
7.18506
7.18506
7.18506
7.18506
7.18506
7.18506
7.18506
7.18506
7.18506
7.18506
7.18506
7.18506
7.18506
7.18506
7.18506
7.18506
7.18506
7.18506
7.18506
7.18506
7.18506
7.18506
7.18506
7.18506
7.18506
7.18506
7.18506
7.18505
7.18505
7.18505
7.18505
7.18505
7.18505
7.18504
7.18504
7.18504
7.18503
7.18503
7.18503
7.18502
7.18502
7.18501
7.185
7.185
7.18499
7.18497
7.18496
7.18495
7.18493
7.18491
7.18489
7.18487
7.18485
7.18482
7.18479
7.18475
7.18471
7.18465
7.1846
7.18453
7.18446
7.18439
7.18431
7.18422
7.18411
7.18398
7.18381
7.1836
7.18336
7.18309
7.18279
7.18246
7.18213
7.18177
7.1814
7.18097
7.18044
7.17978
7.17897
7.17804
7.17701
7.17592
7.1748
7.1737
7.17263
7.17162
7.17069
7.16984
7.16908
7.16841
7.1678
7.16725
7.16672
7.16613
7.1654
7.16453
7.16362
7.1628
7.16215
7.16168
7.16143
7.16141
7.16156
7.16187
7.16232
7.16287
7.16351
7.16421
7.16495
7.16572
7.16649
7.16725
7.16799
7.16869
7.16935
7.16998
7.17056
7.17112
7.17164
7.17213
7.17259
7.17304
7.17348
7.1739
7.17432
7.17474
7.17516
7.17557
7.17599
7.17641
7.17683
7.17726
7.1777
7.17814
7.17859
7.17904
7.1795
7.17996
7.18042
7.18087
7.18132
7.18176
7.18219
7.18259
7.18294
7.18324
7.18349
7.18369
7.18386
7.18401
7.18414
7.18426
7.18437
7.18447
7.18457
7.18465
7.18473
7.18479
7.18485
7.18489
7.18492
7.18494
7.18496
7.18498
7.185
7.18501
7.18502
7.18503
7.18504
7.18504
7.18505
7.18505
7.18505
7.18506
7.18506
7.18506
7.18506
7.18506
7.18506
7.18506
7.18506
7.18506
7.18506
7.18506
7.18506
7.18506
7.18506
7.18506
7.18506
7.18506
7.18506
7.18506
7.18506
7.18506
7.18506
7.18506
7.18506
7.18506
7.18506
7.18506
7.18506
7.18506
7.18506
7.18506
7.18506
7.18506
7.18506
7.18506
7.18506
7.18506
7.18506
7.18506
7.18506
7.18506
7.18506
7.18505
7.18505
7.18505
7.18505
7.18505
7.18505
7.18505
7.18504
7.18504
7.18504
7.18503
7.18503
7.18503
7.18502
7.18502
7.18501
7.18501
7.185
7.18499
7.18498
7.18497
7.18496
7.18495
7.18493
7.18491
7.18489
7.18487
7.18484
7.18482
7.18478
7.18475
7.18471
7.18466
7.1846
7.18453
7.18446
7.18437
7.18428
7.18418
7.18407
7.18395
7.18381
7.18365
7.18345
7.1832
7.18291
7.18259
7.18222
7.18182
7.1814
7.18095
7.18046
7.17992
7.17926
7.17844
7.1774
7.17614
7.17467
7.173
7.17118
7.16923
7.16718
7.16504
7.16279
7.16021
7.15693
7.15265
7.14736
7.14125
7.13458
7.12761
7.12061
7.11376
7.10722
7.10109
7.09546
7.09035
7.08577
7.0817
7.07808
7.07485
7.07178
7.06849
7.06446
7.05962
7.0546
7.05019
7.04676
7.04432
7.04308
7.04322
7.04423
7.04608
7.04873
7.05198
7.0557
7.05977
7.06407
7.06848
7.07284
7.07705
7.08101
7.0847
7.08814
7.09135
7.09436
7.09721
7.09991
7.10251
7.10502
7.10748
7.10991
7.11234
7.11479
7.11725
7.11973
7.12224
7.12479
7.12738
7.13004
7.13276
7.13556
7.13843
7.14137
7.14436
7.14739
7.15046
7.15355
7.15665
7.15974
7.1628
7.16577
7.16852
7.17092
7.17292
7.17456
7.17589
7.17701
7.17798
7.17886
7.17966
7.18042
7.18113
7.18179
7.18239
7.1829
7.18331
7.18362
7.18386
7.18405
7.18421
7.18435
7.18447
7.18459
7.18468
7.18476
7.18483
7.18488
7.18491
7.18494
7.18496
7.18498
7.185
7.18501
7.18502
7.18503
7.18504
7.18504
7.18505
7.18505
7.18505
7.18505
7.18506
7.18506
7.18506
7.18506
7.18506
7.18506
7.18506
7.18506
7.18506
7.18506
7.18506
7.18506
7.18506
7.18506
7.18506
7.18506
7.18506
7.18506
7.18506
7.18506
7.18506
7.18506
7.18504
7.18504
7.18504
7.18503
7.18503
7.18503
7.18502
7.18502
7.18501
7.18501
7.185
7.185
7.18499
7.18498
7.18497
7.18496
7.18495
7.18494
7.18492
7.1849
7.18488
7.18486
7.18483
7.1848
7.18477
7.18474
7.1847
7.18466
7.18461
7.18455
7.18448
7.1844
7.18431
7.1842
7.18409
7.18396
7.18382
7.18367
7.18349
7.18329
7.18305
7.18276
7.18241
7.18201
7.18155
7.18104
7.18048
7.17989
7.17926
7.17857
7.17777
7.1768
7.17561
7.17417
7.17249
7.17059
7.16847
7.16617
7.16371
7.16109
7.1583
7.15518
7.15133
7.1463
7.13985
7.132
7.1229
7.11276
7.10179
7.09024
7.0783
7.06612
7.05346
7.03906
7.02054
6.99638
6.96692
6.93358
6.898
6.86168
6.82587
6.79151
6.7592
6.72933
6.70219
6.67785
6.65619
6.63696
6.61993
6.60477
6.59095
6.57691
6.5594
6.53645
6.51235
6.49161
6.47584
6.46447
6.45844
6.45889
6.46303
6.47129
6.48279
6.497
6.51343
6.53167
6.55123
6.57158
6.59129
6.60988
6.62719
6.64316
6.65792
6.67171
6.68473
6.69715
6.70911
6.72072
6.73214
6.74352
6.75498
6.76664
6.77858
6.79088
6.80351
6.8165
6.82989
6.84375
6.8581
6.87305
6.88865
6.90484
6.92156
6.93881
6.95656
6.9747
6.99313
7.01183
7.03069
7.04953
7.06792
7.08457
7.09846
7.1095
7.1183
7.12559
7.13196
7.13777
7.14324
7.14846
7.15348
7.1583
7.16289
7.16706
7.17056
7.17331
7.1754
7.177
7.17828
7.17934
7.18028
7.18113
7.18189
7.18256
7.18309
7.18349
7.18379
7.18401
7.18418
7.18433
7.18446
7.18457
7.18467
7.18476
7.18482
7.18487
7.18491
7.18493
7.18495
7.18497
7.18498
7.185
7.18501
7.18502
7.18503
7.18503
7.18504
7.18504
7.18504
7.18505
7.18505
7.18506
7.18506
7.18506
7.18506
7.18506
7.18506
7.18506
7.18506
7.18506
7.18506
7.18495
7.18493
7.18492
7.18491
7.18489
7.18487
7.18485
7.18483
7.1848
7.18477
7.18474
7.1847
7.18466
7.18461
7.18456
7.18451
7.18445
7.18438
7.1843
7.1842
7.18409
7.18396
7.18382
7.18367
7.18349
7.18331
7.1831
7.18287
7.1826
7.18228
7.18189
7.18143
7.1809
7.1803
7.17964
7.17891
7.17812
7.17726
7.17631
7.17518
7.17382
7.17217
7.1702
7.16793
7.16537
7.16254
7.15948
7.15621
7.15271
7.14891
7.14447
7.13891
7.13191
7.12341
7.11353
7.10243
7.09031
7.07735
7.06368
7.04942
7.03447
7.01788
6.9973
6.97029
6.93611
6.89545
6.84951
6.79967
6.74727
6.69357
6.63959
6.58586
6.53254
6.47469
6.39757
6.29611
6.1792
6.05728
5.93781
5.82538
5.72262
5.63055
5.54895
5.47717
5.41474
5.36088
5.31433
5.27395
5.23895
5.20866
5.18202
5.15689
5.12814
5.08716
5.04383
5.00836
4.98309
4.96514
4.95589
4.96006
4.96925
4.98542
5.00711
5.03384
5.06491
5.09986
5.13768
5.17731
5.2121
5.24287
5.27074
5.2964
5.3205
5.34365
5.36634
5.3889
5.41158
5.43459
5.45815
5.48247
5.50784
5.53459
5.563
5.59311
5.62494
5.65864
5.69444
5.7326
5.77346
5.81729
5.86465
5.9158
5.97036
6.02868
6.09147
6.15854
6.22954
6.30492
6.38495
6.46906
6.55582
6.6357
6.70176
6.75435
6.79711
6.8339
6.86753
6.89961
6.93094
6.96171
6.99191
7.02145
7.04998
7.07577
7.09659
7.11208
7.12351
7.13238
7.13979
7.14636
7.15243
7.15812
7.1634
7.16803
7.17172
7.17447
7.17645
7.17792
7.17909
7.18007
7.18095
7.18174
7.18244
7.18301
7.18344
7.18374
7.18395
7.18411
7.18424
7.18436
7.18446
7.18456
7.18464
7.18471
7.18478
7.18483
7.18486
7.18489
7.1849
7.18492
7.18494
7.18506
7.18506
7.18506
7.18506
7.18506
7.18506
7.18506
7.18506
7.18506
7.1844
7.18434
7.18426
7.18418
7.18409
7.18399
7.18387
7.18373
7.18357
7.1834
7.1832
7.18298
7.18275
7.18249
7.18221
7.18189
7.18152
7.18108
7.18056
7.17996
7.17927
7.17849
7.17764
7.17671
7.1757
7.1746
7.17336
7.17191
7.17017
7.16807
7.16561
7.16278
7.15958
7.15604
7.15219
7.14801
7.1435
7.13846
7.13243
7.12492
7.11565
7.10461
7.09197
7.07793
7.06268
7.04645
7.02941
7.01159
6.99244
6.97001
6.94178
6.90665
6.86506
6.81808
6.76685
6.71248
6.65599
6.59822
6.53952
6.48008
6.41765
6.33979
6.23562
6.10988
5.97219
5.83038
5.69021
5.55577
5.42926
5.31171
5.2036
5.10351
5.00484
4.87301
4.70241
4.52513
4.36149
4.21831
4.09638
3.99473
3.91103
3.84215
3.78545
3.73947
3.70241
3.67197
3.64672
3.62585
3.60866
3.59438
3.5826
3.5738
3.56855
3.56712
3.56793
3.57013
3.57375
3.57946
3.5874
3.59768
3.60481
3.61387
3.62397
3.6341
3.64389
3.65322
3.6622
3.67114
3.68039
3.69006
3.70013
3.71061
3.72157
3.73311
3.74542
3.75867
3.77291
3.7882
3.80473
3.82285
3.84281
3.86484
3.88904
3.91536
3.94415
3.97589
4.01092
4.04964
4.09273
4.14153
4.19671
4.25747
4.3254
4.40337
4.4917
4.59094
4.70432
4.83548
4.98614
5.15881
5.31841
5.44362
5.54387
5.63251
5.71886
5.80787
5.90249
6.00359
6.11078
6.22466
6.34531
6.4718
6.59373
6.69364
6.76844
6.8249
6.87074
6.91109
6.94865
6.98462
7.0193
7.05214
7.08069
7.10249
7.11783
7.12874
7.13713
7.1442
7.15056
7.15646
7.16194
7.16685
7.17087
7.17383
7.17588
7.17733
7.17842
7.17933
7.18012
7.18084
7.1815
7.18209
7.1826
7.18302
7.18336
7.1836
7.18376
7.18386
7.18393
7.18413
7.18505
7.18505
7.18182
7.1815
7.18115
7.18075
7.18029
7.17975
7.17913
7.1784
7.17758
7.17665
7.17563
7.17451
7.1733
7.17199
7.17055
7.16891
7.16699
7.1647
7.16202
7.15892
7.1554
7.15147
7.14715
7.14246
7.13737
7.13185
7.12562
7.11817
7.109
7.09787
7.08479
7.0699
7.05335
7.03534
7.01603
6.99558
6.97386
6.94981
6.92095
6.88509
6.84175
6.79175
6.73634
6.6768
6.61437
6.55017
6.48495
6.41903
6.35175
6.27432
6.17481
6.05515
5.92376
5.78791
5.65254
5.52104
5.39549
5.27665
5.16475
5.05906
4.95624
4.8337
4.66834
4.48623
4.30916
4.14661
4.00222
3.877
3.76967
3.67824
3.60141
3.53788
3.48473
3.44045
3.40348
3.37188
3.34553
3.3248
3.30978
3.30017
3.295
3.2938
3.296
3.29999
3.30587
3.31251
3.31956
3.32662
3.33342
3.34032
3.34761
3.35491
3.36222
3.37036
3.37826
3.38524
3.39358
3.40228
3.4109
3.41969
3.42737
3.4359
3.44398
3.45287
3.46004
3.46559
3.47182
3.47717
3.48182
3.48628
3.49035
3.49395
3.4973
3.50057
3.50401
3.50763
3.51111
3.51468
3.51874
3.52324
3.52795
3.53303
3.53864
3.54445
3.5505
3.55699
3.56403
3.57169
3.5799
3.58959
3.6009
3.61201
3.62438
3.63922
3.65564
3.67397
3.69525
3.71935
3.74648
3.77793
3.81497
3.8572
3.90491
3.96068
4.02766
4.10769
4.20305
4.31539
4.44579
4.60022
4.78489
5.00703
5.24963
5.44423
5.59018
5.71101
5.82496
5.94071
6.0633
6.19456
6.33341
6.47788
6.61324
6.71887
6.79398
6.84904
6.89358
6.93317
6.97038
7.00604
7.04005
7.07093
7.09557
7.11273
7.12418
7.13237
7.13893
7.14468
7.14995
7.15485
7.15938
7.16348
7.16706
7.1701
7.17257
7.17437
7.17554
7.17627
7.1768
7.17815
7.16939
7.16781
7.16608
7.16412
7.16185
7.1592
7.1561
7.15255
7.14852
7.14404
7.1391
7.13373
7.12792
7.12164
7.11474
7.10681
7.09731
7.08587
7.07236
7.05686
7.0395
7.02044
6.99983
6.97783
6.95451
6.92956
6.90161
6.86809
6.82725
6.77896
6.72405
6.66367
6.59896
6.53105
6.461
6.38932
6.31632
6.2395
6.14704
6.03268
5.90217
5.76381
5.62391
5.48674
5.35513
5.23055
5.11362
5.004
4.89943
4.78688
4.63839
4.47322
4.31056
4.15972
4.02357
3.90282
3.79716
3.70494
3.62435
3.55485
3.4955
3.44497
3.40202
3.36393
3.32962
3.29934
3.27393
3.25379
3.23832
3.22704
3.22003
3.21666
3.21656
3.21739
3.21797
3.21783
3.21671
3.21559
3.21581
3.21741
3.22029
3.22494
3.23111
3.23802
3.24697
3.25741
3.26809
3.27755
3.28688
3.29631
3.30573
3.31397
3.3213
3.33076
3.34101
3.34895
3.35699
3.36377
3.37105
3.37955
3.38708
3.39479
3.40258
3.41048
3.41789
3.42474
3.4315
3.43792
3.44376
3.44896
3.45389
3.45838
3.46224
3.46596
3.46979
3.47345
3.47636
3.47928
3.48344
3.48754
3.49067
3.49456
3.49957
3.50435
3.50909
3.51424
3.51997
3.52609
3.53215
3.5391
3.54603
3.55333
3.56081
3.5684
3.57489
3.58288
3.59344
3.60137
3.60972
3.62122
3.63291
3.64415
3.6569
3.67135
3.68517
3.69733
3.70936
3.72226
3.7364
3.75653
3.78343
3.81769
3.86096
3.91302
3.97467
4.04994
4.14289
4.25564
4.39359
4.56247
4.76609
5.01451
5.2822
5.48812
5.6375
5.76084
5.87847
6.00065
6.13059
6.26778
6.41077
6.55391
6.67515
6.76019