/*--------------------------------*- C++ -*----------------------------------*\
| =========                 |                                                 |
| \\      /  F ield         | OpenFOAM: The Open Source CFD Toolbox           |
|  \\    /   O peration     | Version:  v1706                                 |
|   \\  /    A nd           | Web:      www.OpenFOAM.com                      |
|    \\/     M anipulation  |                                                 |
\*---------------------------------------------------------------------------*/
FoamFile
{
    version     2.0;
    format      ascii;
    class       volScalarField;
    location    "3.9e-05";
    object      p;
}
// * * * * * * * * * * * * * * * * * * * * * * * * * * * * * * * * * * * * * //

dimensions      [1 -1 -2 0 0 0 0];


internalField   nonuniform List<scalar> 
30104
(
21.9139
21.9139
21.9139
21.9139
21.9139
21.9139
21.9139
21.9139
21.9139
21.9139
21.9139
21.9139
21.9139
21.9139
21.9139
21.9139
21.9139
21.9139
21.9139
21.9139
21.9139
21.9139
21.9139
21.9139
21.9139
21.9139
21.9139
21.9139
21.9139
21.9139
21.9139
21.9139
21.9139
21.9139
21.9139
21.9139
21.9139
21.9139
21.9139
21.9139
21.9139
21.9139
21.9139
21.9139
21.9139
21.9139
21.9139
21.9139
21.9139
21.9139
21.9139
21.9139
21.9139
21.9139
21.9139
21.9139
21.9139
21.9139
21.9139
21.9139
21.9139
21.9139
21.9139
21.9139
21.9139
21.9139
21.9139
21.9139
21.9139
21.9139
21.9139
21.9139
21.9139
21.9139
21.9139
21.9139
21.9139
21.9139
21.9139
21.9139
21.9139
21.9139
21.9139
21.9139
21.9139
21.9139
21.9139
21.9139
21.9139
21.9139
21.9139
21.9139
21.9139
21.9139
21.9139
21.9139
21.9139
21.9139
21.9139
21.9139
21.9139
21.9139
21.9139
21.9139
21.9139
21.9139
21.9139
21.9139
21.9139
21.9139
21.9139
21.9139
21.9139
21.9139
21.9139
21.9139
21.9139
21.9139
21.9139
21.9139
21.9139
21.9139
21.9139
21.9139
21.9139
21.9139
21.9139
21.9139
21.9139
21.9139
21.9139
21.9139
21.9139
21.9139
21.9139
21.9139
21.9139
21.9139
21.9139
21.9139
21.9139
21.9139
21.9139
21.9139
21.9139
21.9139
21.9139
21.9139
21.9139
21.9139
21.9139
21.9139
21.9139
21.9139
21.9139
21.9139
21.9139
21.9139
21.9139
21.9139
21.9139
21.9139
21.9139
21.9139
21.9139
21.9139
21.9139
21.9139
21.9139
21.9139
21.9139
21.9139
21.9139
21.9139
21.9139
21.9139
21.9139
21.9139
21.9139
21.9139
21.9139
21.9139
21.9139
21.9139
21.9139
21.9139
21.9139
21.9139
21.9139
21.9139
21.9139
21.9139
21.9139
21.9139
21.9139
21.9139
21.9139
21.9139
21.9139
21.9139
21.9139
21.9139
21.9139
21.9139
21.9139
21.9139
21.9139
21.9139
21.9139
21.9139
21.9139
21.9139
21.9139
21.9139
21.9139
21.9139
21.9139
21.9139
21.9139
21.9139
21.9139
21.9139
21.9139
21.9139
21.9139
21.9139
21.9139
21.9139
21.9139
21.9139
21.9139
21.9139
21.9139
21.9139
21.9139
21.9139
21.9139
21.9139
21.9139
21.9139
21.9139
21.9139
21.9139
21.9139
21.9139
21.9139
21.9139
21.9139
21.9139
21.9139
21.9139
21.9139
21.9139
21.9139
21.9139
21.9139
21.9139
21.9139
21.9139
21.9139
21.9139
21.9139
21.9139
21.9139
21.9139
21.9139
21.9139
21.9139
21.9139
21.9139
21.9139
21.9139
21.9139
21.9139
21.9139
21.9139
21.9139
21.9139
21.9139
21.9139
21.9139
21.9139
21.9139
21.9139
21.9139
21.9139
21.9139
21.9139
21.9139
21.9139
21.9139
21.9139
21.9139
21.9139
21.9139
21.9139
21.9139
21.9139
21.9139
21.9139
21.9139
21.9139
21.9139
21.9139
21.9139
21.9139
21.9139
21.9139
21.9139
21.9139
21.9139
21.9139
21.9139
21.9139
21.9139
21.9139
21.9139
21.9139
21.9139
21.9139
21.9139
21.9139
21.9139
21.9139
21.9139
21.9139
21.9139
21.9139
21.9139
21.9139
21.9139
21.9139
21.9139
21.9139
21.9139
21.9139
21.9139
21.9139
21.9139
21.9139
21.9139
21.9139
21.9139
21.9139
21.9139
21.9139
21.9139
21.9139
21.9139
21.9139
21.9139
21.9139
21.9139
21.9139
21.9139
21.9139
21.9139
21.9139
21.9139
21.9139
21.9139
21.9139
21.9139
21.9139
21.9139
21.9139
21.9139
21.9139
21.9139
21.9139
21.9139
21.9139
21.9139
21.9139
21.9139
21.9139
21.9139
21.9139
21.9139
21.9139
21.9139
21.9139
21.9139
21.9139
21.9139
21.9139
21.9139
21.9139
21.9139
21.9139
21.9139
21.9139
21.9139
21.9139
21.9139
21.9139
21.9139
21.9139
21.9139
21.9139
21.9139
21.9139
21.9139
21.9139
21.9139
21.9139
21.9139
21.9139
21.9139
21.9139
21.9139
21.9139
21.9139
21.9139
21.9139
21.9139
21.9139
21.9139
21.9139
21.9139
21.9139
21.9139
21.9139
21.9139
21.9139
21.9139
21.9139
21.9139
21.9139
21.9139
21.9139
21.9139
21.9139
21.9139
21.9139
21.9139
21.9139
21.9139
21.9139
21.9139
21.9139
21.9139
21.9139
21.9139
21.9139
21.9139
21.9139
21.9139
21.9139
21.9139
21.9139
21.9139
21.9139
21.9139
21.9139
21.9139
21.9139
21.9139
21.9139
21.9139
21.9139
21.9139
21.9139
21.9139
21.9139
21.9139
21.9139
21.9139
21.9139
21.9139
21.9139
21.9139
21.9139
21.9139
21.9139
21.9139
21.9139
21.9139
21.9139
21.9139
21.9139
21.9139
21.9139
21.9139
21.9139
21.9139
21.9139
21.9139
21.9139
21.9139
21.9139
21.9139
21.9139
21.9139
21.9139
21.9139
21.9139
21.9139
21.9139
21.9139
21.9139
21.9139
21.9139
21.9139
21.9139
21.9139
21.9139
21.9139
21.9139
21.9139
21.9139
21.9139
21.9139
21.9139
21.9139
21.9139
21.9139
21.9139
21.9139
21.9139
21.9139
21.9139
21.9139
21.9139
21.9139
21.9139
21.9139
21.9139
21.9139
21.9139
21.9139
21.9139
21.9139
21.9139
21.9139
21.9139
21.9139
21.9139
21.9139
21.9139
21.9139
21.9139
21.9139
21.9139
21.9139
21.9139
21.9139
21.9139
21.9139
21.9139
21.9139
21.9139
21.9139
21.9139
21.9139
21.9139
21.9139
21.9139
21.9139
21.9139
21.9139
21.9139
21.9139
21.9139
21.9139
21.9139
21.9139
21.9139
21.9139
21.9139
21.9139
21.9139
21.9139
21.9139
21.9139
21.9139
21.9139
21.9139
21.9139
21.9139
21.9139
21.9139
21.9139
21.9139
21.9139
21.9139
21.9139
21.9139
21.9139
21.9139
21.9139
21.9139
21.9139
21.9139
21.9139
21.9139
21.9139
21.9139
21.9139
21.9139
21.9139
21.9139
21.9139
21.9139
21.9139
21.9139
21.9139
21.9139
21.9139
21.9139
21.9139
21.9139
21.9139
21.9139
21.9139
21.9139
21.9139
21.9139
21.9139
21.9139
21.9139
21.9139
21.9139
21.9139
21.9139
21.9139
21.9139
21.9139
21.9139
21.9139
21.9139
21.9139
21.9139
21.9139
21.9139
21.9139
21.9139
21.9139
21.9139
21.9139
21.9139
21.9139
21.9139
21.9139
21.9139
21.9139
21.9139
21.9139
21.9139
21.9139
21.9139
21.9139
21.9139
21.9139
21.9139
21.9139
21.9139
21.9139
21.9139
21.9139
21.9139
21.9139
21.9139
21.9139
21.9139
21.9139
21.9139
21.9139
21.9139
21.9139
21.9139
21.9139
21.9139
21.9139
21.9139
21.9139
21.9139
21.9139
21.9139
21.9139
21.9139
21.9139
21.9139
21.9139
21.9139
21.9139
21.9139
21.9139
21.9139
21.9139
21.9139
21.9139
21.9139
21.9139
21.9139
21.9139
21.9139
21.9139
21.9139
21.9139
21.9139
21.9139
21.9139
21.9139
21.9139
21.9139
21.9139
21.9139
21.9139
21.9139
21.9139
21.9139
21.9139
21.9139
21.9139
21.9139
21.9139
21.9139
21.9139
21.9139
21.9139
21.9139
21.9139
21.9139
21.9139
21.9139
21.9139
21.9139
21.9139
21.9139
21.9139
21.9139
21.9139
21.9139
21.9139
21.9139
21.9139
21.9139
21.9139
21.9139
21.9139
21.9139
21.9139
21.9139
21.9139
21.9139
21.9139
21.9139
21.9139
21.9139
21.9139
21.9139
21.9139
21.9139
21.9139
21.9139
21.9139
21.9139
21.9139
21.9139
21.9139
21.9139
21.9139
21.9139
21.9139
21.9139
21.9139
21.9139
21.9139
21.9139
21.9139
21.9139
21.9139
21.9139
21.9139
21.9139
21.9139
21.9139
21.9139
21.9139
21.9139
21.9139
21.9139
21.9139
21.9139
21.9139
21.9139
21.9139
21.9139
21.9139
21.9139
21.9139
21.9139
21.9139
21.9139
21.9139
21.9139
21.9139
21.9139
21.9139
21.9139
21.9139
21.9139
21.9139
21.9139
21.9139
21.9139
21.9139
21.9139
21.9139
21.9139
21.9139
21.9139
21.9139
21.9139
21.9139
21.9139
21.9139
21.9139
21.9139
21.9139
21.9139
21.9139
21.9139
21.9139
21.9139
21.9139
21.9139
21.9139
21.9139
21.9139
21.9139
21.9139
21.9139
21.9139
21.9139
21.9139
21.9139
21.9139
21.9139
21.9139
21.9139
21.9139
21.9139
21.9139
21.9139
21.9139
21.9139
21.9139
21.9139
21.9139
21.9139
21.9139
21.9139
21.9139
21.9139
21.9139
21.9139
21.9139
21.9139
21.9139
21.9139
21.9139
21.9139
21.9139
21.9139
21.9139
21.9139
21.9139
21.9139
21.9139
21.9139
21.9139
21.9139
21.9139
21.9139
21.9139
21.9139
21.9139
21.9139
21.9139
21.9139
21.9139
21.9139
21.9139
21.9139
21.9139
21.9139
21.9139
21.9139
21.9139
21.9139
21.9139
21.9139
21.9139
21.9139
21.9139
21.9139
21.9139
21.9139
21.9139
21.9139
21.9139
21.9139
21.9139
21.9139
21.9139
21.9139
21.9139
21.9139
21.9139
21.9139
21.9139
21.9139
21.9139
21.9139
21.9139
21.9139
21.9139
21.9139
21.9139
21.9139
21.9139
21.9139
21.9139
21.9139
21.9139
21.9139
21.9139
21.9139
21.9139
21.9139
21.9139
21.9139
21.9139
21.9139
21.9139
21.9139
21.9139
21.9139
21.9139
21.9139
21.9139
21.9139
21.9139
21.9139
21.9139
21.9139
21.9139
21.9139
21.9139
21.9139
21.9139
21.9139
21.9139
21.9139
21.9139
21.9139
21.9139
21.9139
21.9139
21.9139
21.9139
21.9139
21.9139
21.9139
21.9139
21.9139
21.9139
21.9139
21.9139
21.9139
21.9139
21.9139
21.9139
21.9139
21.9139
21.9139
21.9139
21.9139
21.9139
21.9139
21.9139
21.9139
21.9139
21.9139
21.9139
21.9139
21.9139
21.9139
21.9139
21.9139
21.9139
21.9139
21.9139
21.9139
21.9139
21.9139
21.9139
21.9139
21.9139
21.9139
21.9139
21.9139
21.9139
21.9139
21.9139
21.9139
21.9139
21.9139
21.9139
21.9139
21.9139
21.9139
21.9139
21.9139
21.9139
21.9139
21.9139
21.9139
21.9139
21.9139
21.9139
21.9139
21.9139
21.9139
21.9139
21.9139
21.9139
21.9139
21.9139
21.9139
21.9139
21.9139
21.9139
21.9139
21.9139
21.9139
21.9139
21.9139
21.9139
21.9139
21.9139
21.9139
21.9139
21.9139
21.9139
21.9139
21.9139
21.9139
21.9139
21.9139
21.9139
21.9139
21.9139
21.9139
21.9139
21.9139
21.9139
21.9139
21.9139
21.9139
21.9139
21.9139
21.9139
21.9139
21.9139
21.9139
21.9139
21.9139
21.9139
21.9139
21.9139
21.9139
21.9139
21.9139
21.9139
21.9139
21.9139
21.9139
21.9139
21.9139
21.9139
21.9139
21.9139
21.9139
21.9139
21.9139
21.9139
21.9139
21.9139
21.9139
21.9139
21.9139
21.9139
21.9139
21.9139
21.9139
21.9139
21.9139
21.9139
21.9139
21.9139
21.9139
21.9139
21.9139
21.9139
21.9139
21.9139
21.9139
21.9139
21.9139
21.9139
21.9139
21.9139
21.9139
21.9139
21.9139
21.9139
21.9139
21.9139
21.9139
21.9139
21.9139
21.9139
21.9139
21.9139
21.9139
21.9139
21.9139
21.9139
21.9139
21.9139
21.9139
21.9139
21.9139
21.9139
21.9139
21.9139
21.9139
21.9139
21.9139
21.9139
21.9139
21.9139
21.9139
21.9139
21.9139
21.9139
21.9139
21.9139
21.9139
21.9139
21.9139
21.9139
21.9139
21.9139
21.9139
21.9139
21.9139
21.9139
21.9139
21.9139
21.9139
21.9139
21.9139
21.9139
21.9139
21.9139
21.9139
21.9139
21.9139
21.9139
21.9139
21.9139
21.9139
21.9139
21.9139
21.9139
21.9139
21.9139
21.9139
21.9139
21.9139
21.9139
21.9139
21.9139
21.9139
21.9139
21.9139
21.9139
21.9139
21.9139
21.9139
21.9139
21.9139
21.9139
21.9139
21.9139
21.9139
21.9139
21.9139
21.9139
21.9139
21.9139
21.9139
21.9139
21.9139
21.9139
21.9139
21.9139
21.9139
21.9139
21.9139
21.9139
21.9139
21.9139
21.9139
21.9139
21.9139
21.9139
21.9139
21.9139
21.9139
21.9139
21.9139
21.9139
21.9139
21.9139
21.9139
21.9139
21.9139
21.9139
21.9139
21.9139
21.9139
21.9139
21.9139
21.9139
21.9139
21.9139
21.9139
21.9139
21.9139
21.9139
21.9139
21.9139
21.9139
21.9139
21.9139
21.9139
21.9139
21.9139
21.9139
21.9139
21.9139
21.9139
21.9139
21.9139
21.9139
21.9139
21.9139
21.9139
21.9139
21.9139
21.9139
21.9139
21.9139
21.9139
21.9139
21.9139
21.9139
21.9139
21.9139
21.9139
21.9139
21.9139
21.9139
21.9139
21.9139
21.9139
21.9139
21.9139
21.9139
21.9139
21.9139
21.9139
21.9139
21.9139
21.9139
21.9139
21.9139
21.9139
21.9139
21.9139
21.9139
21.9139
21.9139
21.9139
21.9139
21.9139
21.9139
21.9139
21.9139
21.9139
21.9139
21.9139
21.9139
21.9139
21.9139
21.9139
21.9139
21.9139
21.9139
21.9139
21.9139
21.9139
21.9139
21.9139
21.9139
21.9139
21.9139
21.9139
21.9139
21.9139
21.9139
21.9139
21.9139
21.9139
21.9139
21.9139
21.9139
21.9139
21.9139
21.9139
21.9139
21.9139
21.9139
21.9139
21.9139
21.9139
21.9139
21.9139
21.9139
21.9139
21.9139
21.9139
21.9139
21.9139
21.9139
21.9139
21.9139
21.9139
21.9139
21.9139
21.9139
21.9139
21.9139
21.9139
21.9139
21.9139
21.9139
21.9139
21.9139
21.9139
21.9139
21.9139
21.9139
21.9139
21.9139
21.9139
21.9139
21.9139
21.9139
21.9139
21.9139
21.9139
21.9139
21.9139
21.9139
21.9139
21.9139
21.9139
21.9139
21.9139
21.9139
21.9139
21.9139
21.9139
21.9139
21.9139
21.9139
21.9139
21.9139
21.9139
21.9139
21.9139
21.9139
21.9139
21.9139
21.9139
21.9139
21.9139
21.9139
21.9139
21.9139
21.9139
21.9139
21.9139
21.9139
21.9139
21.9139
21.9139
21.9139
21.9139
21.9139
21.9139
21.9139
21.9139
21.9139
21.9139
21.9139
21.9139
21.9139
21.9139
21.9139
21.9139
21.9139
21.9139
21.9139
21.9139
21.9139
21.9139
21.9139
21.9139
21.9139
21.9139
21.9139
21.9139
21.9139
21.9139
21.9139
21.9139
21.9139
21.9139
21.9139
21.9139
21.9139
21.9139
21.9139
21.9139
21.9139
21.9139
21.9139
21.9139
21.9139
21.9139
21.9139
21.9139
21.9139
21.9139
21.9139
21.9139
21.9139
21.9139
21.9139
21.9139
21.9139
21.9139
21.9139
21.9139
21.9139
21.9139
21.9139
21.9139
21.9139
21.9139
21.9139
21.9139
21.9139
21.9139
21.9139
21.9139
21.9139
21.9139
21.9139
21.9139
21.9139
21.9139
21.9139
21.9139
21.9139
21.9139
21.9139
21.9139
21.9139
21.9139
21.9139
21.9139
21.9139
21.9139
21.9139
21.9139
21.9139
21.9139
21.9139
21.9139
21.9139
21.9139
21.9139
21.9139
21.9139
21.9139
21.9139
21.9139
21.9139
21.9139
21.9139
21.9139
21.9139
21.9139
21.9139
21.9139
21.9139
21.9139
21.9139
21.9139
21.9139
21.9139
21.9139
21.9139
21.9139
21.9139
21.9139
21.9139
21.9139
21.9139
21.9139
21.9139
21.9139
21.9139
21.9139
21.9139
21.9139
21.9139
21.9139
21.9139
21.9139
21.9139
21.9139
21.9139
21.9139
21.9139
21.9139
21.9139
21.9139
21.9139
21.9139
21.9139
21.9139
21.914
21.914
21.914
21.914
21.914
21.914
21.914
21.914
21.914
21.914
21.914
21.914
21.914
21.914
21.914
21.914
21.914
21.914
21.914
21.914
21.914
21.914
21.914
21.914
21.914
21.914
21.914
21.914
21.914
21.914
21.914
21.9139
21.9139
21.9139
21.9139
21.9139
21.9139
21.9139
21.9139
21.9139
21.9139
21.9139
21.9139
21.9139
21.9139
21.9139
21.9139
21.9139
21.9139
21.9139
21.9139
21.9139
21.9139
21.9139
21.9139
21.9139
21.9139
21.9139
21.9139
21.9139
21.9139
21.9139
21.9139
21.9139
21.9139
21.9139
21.9139
21.9139
21.9139
21.9139
21.9139
21.9139
21.9139
21.9139
21.9139
21.9139
21.9139
21.9139
21.9139
21.9139
21.9139
21.9139
21.9139
21.9139
21.9139
21.9139
21.9139
21.9139
21.9139
21.9139
21.9139
21.9139
21.9139
21.9139
21.9139
21.9139
21.9139
21.9139
21.9139
21.9139
21.9139
21.9139
21.9139
21.9139
21.9139
21.9139
21.9139
21.9139
21.9139
21.9139
21.9139
21.9139
21.9139
21.9139
21.9139
21.9139
21.9139
21.9139
21.9139
21.9139
21.9139
21.9139
21.9139
21.9139
21.9139
21.9139
21.9139
21.9139
21.9139
21.9139
21.9139
21.9139
21.9139
21.9139
21.9139
21.9139
21.9139
21.9139
21.9139
21.9139
21.9139
21.9139
21.9139
21.9139
21.9139
21.9139
21.9139
21.9139
21.9139
21.9139
21.9139
21.9139
21.9139
21.9139
21.9139
21.9139
21.9139
21.9139
21.9139
21.9139
21.9139
21.9139
21.9139
21.9139
21.9139
21.9139
21.9139
21.9139
21.9139
21.9139
21.9139
21.9139
21.9139
21.9139
21.9139
21.9139
21.9139
21.9139
21.9139
21.9139
21.9139
21.9139
21.9139
21.9139
21.9139
21.9139
21.9139
21.9139
21.9139
21.9139
21.9139
21.914
21.914
21.914
21.914
21.914
21.914
21.914
21.914
21.914
21.9141
21.9141
21.9141
21.9141
21.9142
21.9142
21.9142
21.9142
21.9143
21.9143
21.9143
21.9143
21.9143
21.9143
21.9144
21.9144
21.9144
21.9144
21.9144
21.9145
21.9145
21.9145
21.9145
21.9145
21.9145
21.9145
21.9145
21.9144
21.9144
21.9144
21.9144
21.9144
21.9143
21.9143
21.9143
21.9143
21.9143
21.9143
21.9142
21.9142
21.9142
21.9142
21.9142
21.9142
21.9142
21.9141
21.9141
21.9141
21.9141
21.9141
21.9141
21.9141
21.9141
21.9141
21.914
21.914
21.914
21.914
21.914
21.914
21.914
21.914
21.914
21.914
21.914
21.9139
21.9139
21.9139
21.9139
21.9139
21.9139
21.9139
21.9139
21.9139
21.9139
21.9139
21.9139
21.9139
21.9139
21.9139
21.9139
21.9139
21.9139
21.9139
21.9139
21.9139
21.9139
21.9139
21.9139
21.9139
21.9139
21.9139
21.9139
21.9139
21.9139
21.9139
21.9139
21.9139
21.9139
21.9139
21.9139
21.9139
21.9139
21.9139
21.9139
21.9139
21.9139
21.9139
21.9139
21.9139
21.9139
21.9139
21.9139
21.9139
21.9139
21.9139
21.9139
21.9139
21.9139
21.9139
21.9139
21.9139
21.9139
21.9139
21.9139
21.9139
21.9139
21.9139
21.9139
21.9139
21.9139
21.9139
21.9139
21.9139
21.9139
21.9139
21.9139
21.9139
21.9139
21.9139
21.9139
21.9139
21.9139
21.9139
21.9139
21.9139
21.9139
21.9139
21.9139
21.9139
21.9139
21.9139
21.9139
21.9139
21.9139
21.9139
21.9139
21.9139
21.9139
21.9139
21.9139
21.9139
21.9139
21.9139
21.9139
21.9139
21.9139
21.9139
21.9139
21.9139
21.9139
21.9139
21.9139
21.9139
21.9139
21.9139
21.9139
21.9139
21.9139
21.9139
21.9139
21.9139
21.9139
21.914
21.914
21.914
21.914
21.914
21.914
21.914
21.914
21.914
21.9141
21.9141
21.9141
21.9141
21.9142
21.9142
21.9143
21.9143
21.9144
21.9144
21.9145
21.9146
21.9147
21.9148
21.9149
21.915
21.9152
21.9154
21.9156
21.9157
21.9159
21.9161
21.9162
21.9164
21.9165
21.9166
21.9167
21.9168
21.9169
21.917
21.9171
21.9173
21.9174
21.9175
21.9176
21.9177
21.9177
21.9177
21.9177
21.9177
21.9176
21.9175
21.9174
21.9173
21.9172
21.9171
21.917
21.9168
21.9167
21.9166
21.9165
21.9164
21.9163
21.9162
21.9161
21.916
21.9159
21.9158
21.9157
21.9157
21.9156
21.9155
21.9154
21.9154
21.9153
21.9152
21.9151
21.9151
21.915
21.9149
21.9149
21.9148
21.9147
21.9147
21.9146
21.9145
21.9145
21.9144
21.9144
21.9143
21.9142
21.9142
21.9142
21.9141
21.9141
21.9141
21.914
21.914
21.914
21.914
21.914
21.914
21.9139
21.9139
21.9139
21.9139
21.9139
21.9139
21.9139
21.9139
21.9139
21.9139
21.9139
21.9139
21.9139
21.9139
21.9139
21.9139
21.9139
21.9139
21.9139
21.9139
21.9139
21.9139
21.9139
21.9139
21.9139
21.9139
21.9139
21.9139
21.9139
21.9139
21.9139
21.9139
21.9139
21.9139
21.9139
21.9139
21.9139
21.9139
21.9139
21.9139
21.9139
21.9139
21.9139
21.9139
21.9139
21.9139
21.9139
21.9139
21.9139
21.9139
21.9139
21.9139
21.9139
21.9139
21.9139
21.9139
21.9139
21.9139
21.9139
21.9139
21.9139
21.9139
21.9139
21.9139
21.9139
21.9139
21.9139
21.9139
21.9139
21.9139
21.9139
21.9139
21.9139
21.9139
21.9139
21.9139
21.9139
21.9139
21.9139
21.9139
21.9139
21.9139
21.9139
21.9139
21.9139
21.9139
21.9139
21.9139
21.9139
21.9139
21.9139
21.914
21.914
21.914
21.914
21.914
21.914
21.914
21.914
21.914
21.9141
21.9141
21.9141
21.9141
21.9142
21.9142
21.9142
21.9143
21.9143
21.9144
21.9145
21.9145
21.9146
21.9147
21.9148
21.9149
21.9151
21.9152
21.9155
21.9157
21.916
21.9163
21.9166
21.917
21.9174
21.9178
21.9182
21.9188
21.9195
21.9203
21.9212
21.9222
21.9234
21.9246
21.9257
21.9269
21.928
21.929
21.9299
21.9307
21.9315
21.9322
21.9328
21.9334
21.934
21.9348
21.9357
21.9367
21.9376
21.9383
21.9389
21.9392
21.9393
21.9392
21.9389
21.9385
21.9379
21.9373
21.9365
21.9358
21.9349
21.9341
21.9333
21.9325
21.9317
21.9309
21.9302
21.9295
21.9288
21.9282
21.9276
21.9271
21.9266
21.9261
21.9256
21.9251
21.9246
21.9242
21.9237
21.9233
21.9228
21.9224
21.9219
21.9215
21.921
21.9206
21.9201
21.9197
21.9192
21.9188
21.9183
21.9179
21.9174
21.917
21.9166
21.9162
21.9159
21.9156
21.9154
21.9152
21.915
21.9149
21.9147
21.9146
21.9145
21.9144
21.9143
21.9143
21.9142
21.9141
21.9141
21.9141
21.914
21.914
21.914
21.914
21.914
21.9139
21.9139
21.9139
21.9139
21.9139
21.9139
21.9139
21.9139
21.9139
21.9139
21.9139
21.9139
21.9139
21.9139
21.9139
21.9139
21.9139
21.9139
21.9139
21.9139
21.9139
21.9139
21.9139
21.9139
21.9139
21.9139
21.9139
21.9139
21.9139
21.9139
21.9139
21.9139
21.9139
21.9139
21.9139
21.9139
21.9139
21.9139
21.9139
21.9139
21.9139
21.9139
21.9139
21.9139
21.9139
21.9139
21.9139
21.9139
21.9139
21.9139
21.9139
21.9139
21.9139
21.9139
21.9139
21.9139
21.9139
21.9139
21.9139
21.9139
21.9139
21.9139
21.9139
21.9139
21.9139
21.914
21.914
21.914
21.914
21.914
21.914
21.914
21.914
21.914
21.9141
21.9141
21.9141
21.9141
21.9142
21.9142
21.9142
21.9143
21.9143
21.9144
21.9144
21.9145
21.9146
21.9147
21.9148
21.9149
21.915
21.9152
21.9153
21.9155
21.9157
21.916
21.9163
21.9166
21.917
21.9175
21.9179
21.9184
21.919
21.9196
21.9203
21.9212
21.9222
21.9235
21.9251
21.9268
21.9288
21.9309
21.9332
21.9355
21.938
21.9409
21.9444
21.9488
21.9543
21.9607
21.9679
21.9755
21.9832
21.9909
21.9984
22.0054
22.0119
22.0178
22.0231
22.0278
22.032
22.0358
22.0395
22.0435
22.0483
22.0538
22.0594
22.0646
22.0689
22.072
22.0739
22.0743
22.0735
22.0716
22.0689
22.0653
22.0612
22.0566
22.0518
22.0468
22.0417
22.0367
22.032
22.0274
22.023
22.0189
22.015
22.0113
22.0078
22.0044
22.0012
21.9981
21.9951
21.9921
21.9892
21.9863
21.9835
21.9807
21.9778
21.975
21.9721
21.9692
21.9662
21.9632
21.9601
21.957
21.9538
21.9507
21.9475
21.9443
21.9412
21.9381
21.9351
21.9322
21.9296
21.9273
21.9254
21.9238
21.9225
21.9214
21.9204
21.9196
21.9188
21.9181
21.9174
21.9168
21.9163
21.9158
21.9155
21.9152
21.915
21.9148
21.9146
21.9145
21.9144
21.9143
21.9142
21.9142
21.9141
21.9141
21.914
21.914
21.914
21.914
21.914
21.9139
21.9139
21.9139
21.9139
21.9139
21.9139
21.9139
21.9139
21.9139
21.9139
21.9139
21.9139
21.9139
21.9139
21.9139
21.9139
21.9139
21.9139
21.9139
21.9139
21.9139
21.9139
21.9139
21.9139
21.9139
21.9139
21.9139
21.9139
21.9139
21.9139
21.9139
21.9139
21.9139
21.9139
21.9139
21.9139
21.9139
21.914
21.914
21.914
21.914
21.914
21.914
21.914
21.914
21.914
21.914
21.914
21.9141
21.9141
21.9141
21.9141
21.9141
21.9142
21.9142
21.9143
21.9143
21.9143
21.9144
21.9144
21.9145
21.9146
21.9147
21.9148
21.9149
21.915
21.9152
21.9154
21.9155
21.9157
21.916
21.9162
21.9166
21.917
21.9174
21.9179
21.9185
21.9191
21.9198
21.9206
21.9214
21.9223
21.9234
21.9247
21.9262
21.928
21.9301
21.9325
21.9351
21.9379
21.9409
21.9441
21.9477
21.9521
21.9575
21.9645
21.973
21.9831
21.9945
22.007
22.0203
22.0343
22.0488
22.064
22.0813
22.1028
22.13
22.1636
22.2029
22.2466
22.2932
22.3408
22.388
22.4336
22.4767
22.5168
22.5533
22.5864
22.616
22.6425
22.6665
22.6891
22.7133
22.743
22.7796
22.8192
22.8558
22.8858
22.9082
22.9215
22.9246
22.92
22.9081
22.8902
22.8675
22.8409
22.8112
22.7795
22.7465
22.7135
22.6814
22.6508
22.6222
22.5957
22.5712
22.5484
22.5272
22.5072
22.4882
22.47
22.4523
22.4348
22.4175
22.4002
22.3828
22.3653
22.3477
22.3299
22.3118
22.2934
22.2745
22.2552
22.2355
22.2153
22.1949
22.1741
22.1532
22.1322
22.1111
22.0901
22.0694
22.0492
22.0305
22.0141
22.0004
21.9892
21.9798
21.972
21.9651
21.9589
21.9532
21.9479
21.9429
21.9382
21.9339
21.9301
21.927
21.9245
21.9226
21.9212
21.92
21.919
21.9181
21.9173
21.9166
21.9161
21.9156
21.9153
21.915
21.9148
21.9147
21.9145
21.9144
21.9143
21.9142
21.9141
21.9141
21.9141
21.914
21.914
21.914
21.914
21.914
21.914
21.9139
21.9139
21.9139
21.9139
21.9139
21.9139
21.9139
21.9139
21.9139
21.9139
21.9139
21.9139
21.9139
21.9139
21.9139
21.9139
21.9139
21.9139
21.9139
21.9139
21.9141
21.9141
21.9141
21.9141
21.9141
21.9141
21.9142
21.9142
21.9142
21.9143
21.9143
21.9144
21.9144
21.9145
21.9145
21.9146
21.9147
21.9148
21.9149
21.915
21.9151
21.9153
21.9154
21.9156
21.9158
21.916
21.9163
21.9166
21.9169
21.9173
21.9177
21.9183
21.9189
21.9196
21.9204
21.9213
21.9222
21.9232
21.9244
21.9257
21.9273
21.9292
21.9314
21.934
21.9369
21.9402
21.9438
21.9477
21.9519
21.9565
21.9618
21.9682
21.9761
21.9858
21.9973
22.0103
22.0248
22.0406
22.0574
22.0752
22.094
22.115
22.1405
22.1729
22.2139
22.2642
22.3235
22.3907
22.4647
22.5438
22.6265
22.7122
22.8016
22.9031
23.0347
23.2105
23.4308
23.6867
23.9658
24.2562
24.5477
24.8322
25.1041
25.3595
25.5956
25.8106
26.0045
26.1785
26.3339
26.4722
26.5984
26.7276
26.8837
27.0732
27.2717
27.4519
27.5981
27.7097
27.7741
27.7813
27.7519
27.6853
27.587
27.4629
27.3185
27.1586
26.9884
26.8135
26.6446
26.4857
26.3379
26.2009
26.0733
25.9534
25.8399
25.7319
25.6283
25.5282
25.4304
25.3339
25.2378
25.1409
25.0424
24.9419
24.8396
24.735
24.628
24.518
24.4046
24.2873
24.1657
24.0398
23.9103
23.7774
23.6412
23.5025
23.3622
23.2205
23.0779
22.9356
22.7956
22.6662
22.5553
22.4656
22.3946
22.3374
22.2892
22.2465
22.2072
22.1704
22.1354
22.1021
22.0705
22.0419
22.0177
21.9986
21.984
21.9726
21.9635
21.9558
21.9492
21.9431
21.9376
21.9328
21.9287
21.9256
21.9232
21.9215
21.9202
21.9191
21.9182
21.9174
21.9167
21.9161
21.9156
21.9153
21.915
21.9149
21.9147
21.9146
21.9145
21.9144
21.9143
21.9142
21.9142
21.9141
21.9141
21.9141
21.914
21.914
21.914
21.9139
21.9139
21.9139
21.9139
21.9139
21.9139
21.9139
21.9139
21.9139
21.9139
21.9147
21.9148
21.9149
21.915
21.9151
21.9152
21.9153
21.9155
21.9156
21.9158
21.916
21.9163
21.9166
21.9169
21.9172
21.9175
21.9179
21.9184
21.9189
21.9196
21.9203
21.9212
21.9221
21.9232
21.9244
21.9256
21.927
21.9286
21.9303
21.9324
21.9349
21.9378
21.9412
21.945
21.9493
21.9541
21.9593
21.9649
21.9713
21.9786
21.9877
21.9987
22.012
22.0274
22.045
22.0643
22.0852
22.1076
22.1313
22.157
22.1867
22.2231
22.2681
22.3227
22.387
22.4604
22.542
22.6307
22.7255
22.8258
22.9319
23.0495
23.1963
23.3929
23.6486
23.9615
24.324
24.7267
25.16
25.6145
26.0832
26.56
27.0458
27.5858
28.2882
29.2186
30.3648
31.6748
33.0879
34.5477
36.0048
37.4226
38.7779
40.0545
41.2374
42.3192
43.3037
44.1998
45.016
45.7569
46.4359
47.1053
47.9238
49.1802
50.6634
52.0318
53.1239
53.9768
54.5591
54.7242
54.5631
54.1757
53.5929
52.8306
51.923
50.8936
49.7814
48.621
47.6055
46.7221
45.9453
45.258
44.6419
44.0773
43.5472
43.0396
42.548
42.0679
41.5931
41.1166
40.6335
40.1407
39.6329
39.1076
38.5665
38.0093
37.4338
36.8384
36.2213
35.5783
34.9059
34.2059
33.4842
32.7392
31.9684
31.1784
30.3749
29.5575
28.7294
27.9001
27.0865
26.3654
25.7833
25.3262
24.9578
24.6459
24.3681
24.1096
23.8625
23.6239
23.392
23.1664
22.9485
22.7485
22.5822
22.4551
22.3616
22.2913
22.2351
22.1871
22.144
22.1042
22.0676
22.0356
22.0099
21.9907
21.9766
21.966
21.9576
21.9505
21.9443
21.9386
21.9335
21.9293
21.926
21.9236
21.9219
21.9206
21.9197
21.9188
21.9181
21.9175
21.9169
21.9164
21.9159
21.9156
21.9153
21.9152
21.915
21.915
21.9148
21.9139
21.9139
21.9139
21.9139
21.9139
21.9139
21.9139
21.9139
21.9139
21.9182
21.9187
21.9191
21.9197
21.9203
21.921
21.9218
21.9227
21.9237
21.9249
21.9263
21.9277
21.9293
21.931
21.9329
21.9351
21.9375
21.9403
21.9437
21.9475
21.9519
21.9569
21.9624
21.9685
21.9752
21.9824
21.9906
22.0001
22.0117
22.0257
22.0423
22.0616
22.0835
22.1077
22.134
22.1625
22.1931
22.2273
22.2675
22.3167
22.3766
22.4482
22.5315
22.6256
22.7297
22.8423
22.9624
23.0897
23.2272
23.3891
23.5966
23.8621
24.1862
24.5627
24.9838
25.4418
25.9295
26.4413
26.9744
27.5282
28.13
28.8775
29.8718
31.1398
32.6633
34.4061
36.3244
38.3734
40.5167
42.7237
44.9729
47.2531
49.7084
53.5158
59.4785
67.1759
76.0369
85.6432
95.7017
105.935
116.1
126.086
135.848
145.224
154.059
162.348
170.079
177.122
183.393
189.042
194.189
198.54
201.677
203.844
205.489
206.821
207.807
208.282
208.311
208.076
207.397
206.334
204.978
203.421
201.741
200.082
198.405
196.511
194.405
192.116
189.658
187.053
184.332
181.537
178.699
175.779
172.723
169.543
166.291
162.933
159.356
155.553
151.578
147.426
143.072
138.518
133.722
128.637
123.354
117.796
111.858
105.744
99.4965
92.9881
86.3216
79.6558
72.9808
66.2522
59.5643
52.976
47.6381
43.9173
41.3148
39.3428
37.6828
36.1677
34.7193
33.3075
31.928
30.5776
29.2563
27.9733
26.8164
25.9098
25.2489
24.7585
24.3694
24.0377
23.7376
23.456
23.1885
22.9361
22.7128
22.5364
22.4094
22.3203
22.2547
22.2022
22.1567
22.1153
22.0772
22.0432
22.0153
21.9945
21.98
21.9696
21.9618
21.9553
21.9497
21.9446
21.94
21.9358
21.9321
21.9289
21.9264
21.9245
21.9232
21.9223
21.9217
21.9204
21.914
21.914
21.9355
21.9377
21.9401
21.9427
21.9457
21.9492
21.9532
21.9579
21.9631
21.9691
21.9757
21.9829
21.9909
21.9995
22.0091
22.0199
22.0326
22.0478
22.0659
22.087
22.111
22.1379
22.1675
22.1997
22.2343
22.272
22.3144
22.3642
22.4246
22.4972
22.583
22.6821
22.7943
22.9186
23.0541
23.2001
23.3572
23.532
23.7445
24.0152
24.3529
24.7556
25.2159
25.7254
26.2755
26.8586
27.4692
28.1042
28.7776
29.5625
30.562
31.8113
33.3011
35.0045
36.8904
38.9271
41.0867
43.3512
45.7119
48.1691
50.7646
54.3121
60.0895
68.0048
77.6636
88.7761
101.136
114.502
128.669
143.535
158.798
174.088
189.578
204.391
217.861
230.219
241.506
251.626
260.437
267.79
273.842
278.812
282.634
285.484
287.643
289.584
291.382
293.03
294.635
296.159
297.368
298.267
298.903
298.945
298.717
298.467
297.844
297.064
296.302
295.799
295.477
294.907
294.058
293.322
292.752
291.797
290.674
289.677
288.701
287.601
286.432
285.244
283.994
282.67
281.206
279.537
277.902
276.341
274.67
272.822
270.99
269.176
267.203
265.167
263.12
260.971
258.725
256.563
254.184
251.248
248.316
245.542
242.182
238.205
234.008
229.19
223.358
216.89
210.215
202.602
193.104
181.97
169.956
157.525
145.01
132.593
120.032
107.514
95.3743
83.4344
71.8466
60.7872
51.2186
44.8638
40.8981
38.2188
36.1319
34.3121
32.617
30.9929
29.4307
27.9445
26.6547
25.6971
25.0336
24.5566
24.1813
23.8578
23.5618
23.2842
23.0232
22.7849
22.5891
22.448
22.353
22.2874
22.2376
22.1959
22.1585
22.1242
22.0927
22.0643
22.0394
22.0183
22.0012
21.9888
21.9808
21.9755
21.972
21.9631
22.0168
22.0272
22.0387
22.0516
22.0666
22.0843
22.1052
22.1293
22.1569
22.1876
22.2216
22.2585
22.2984
22.3414
22.3887
22.4427
22.5063
22.582
22.6712
22.7746
22.8923
23.0238
23.1687
23.3261
23.4959
23.6796
23.8871
24.1402
24.4573
24.8454
25.3021
25.821
26.3954
27.0179
27.6826
28.3853
29.1272
29.9399
30.9212
32.1482
33.6364
35.3702
37.3218
39.4592
41.7506
44.1702
46.7005
49.3399
52.0881
55.4383
60.7292
67.9671
76.8207
87.0008
98.3372
110.686
123.873
137.83
152.542
167.753
183.453
199.029
213.349
226.861
240
252.682
264.448
274.974
284.392
292.698
299.675
305.586
310.469
314.008
316.525
318.762
320.894
322.77
324.203
325.249
326.021
326.501
326.702
326.643
326.128
325.302
324.476
323.521
322.402
321.376
320.613
319.97
318.714
316.907
315.46
314.557
313.901
313.21
312.021
310.991
310.211
309.489
308.785
308.179
307.776
307.356
306.833
306.338
305.942
305.553
305.13
304.751
304.414
304.058
303.716
303.431
303.017
302.365
301.592
301.065
300.52
299.711
298.762
297.871
296.974
296.016
294.854
293.438
291.865
290.664
289.435
287.837
286.19
285.156
283.946
282.322
281.124
279.921
278.113
275.844
273.71
271.029
267.267
262.001
256.001
249.85
243.997
238.39
232.271
225.841
218.913
210.004
198.265
183.581
167.27
150.442
133.907
118.185
102.829
87.8639
73.927
61.0223
50.3655
43.7308
39.8219
37.2407
35.2226
33.4321
31.7446
30.1288
28.5888
27.177
26.0585
25.2996
24.7946
24.4274
24.1281
23.8627
23.6174
23.3875
23.1733