/*--------------------------------*- C++ -*----------------------------------*\
| =========                 |                                                 |
| \\      /  F ield         | OpenFOAM: The Open Source CFD Toolbox           |
|  \\    /   O peration     | Version:  v1706                                 |
|   \\  /    A nd           | Web:      www.OpenFOAM.com                      |
|    \\/     M anipulation  |                                                 |
\*---------------------------------------------------------------------------*/
FoamFile
{
    version     2.0;
    format      ascii;
    class       volScalarField;
    location    "3.9e-05";
    object      Tt;
}
// * * * * * * * * * * * * * * * * * * * * * * * * * * * * * * * * * * * * * //

dimensions      [0 0 0 1 0 0 0];


internalField   nonuniform List<scalar> 
30104
(
144.4
144.4
144.4
144.4
144.4
144.4
144.4
144.4
144.4
144.4
144.4
144.4
144.4
144.4
144.4
144.4
144.4
144.4
144.4
144.4
144.4
144.4
144.4
144.4
144.4
144.4
144.4
144.4
144.4
144.4
144.4
144.4
144.4
144.4
144.4
144.4
144.4
144.4
144.4
144.4
144.4
144.4
144.4
144.4
144.4
144.4
144.4
144.4
144.4
144.4
144.4
144.4
144.4
144.4
144.4
144.4
144.4
144.4
144.4
144.4
144.4
144.4
144.4
144.4
144.4
144.4
144.4
144.4
144.4
144.4
144.4
144.4
144.4
144.4
144.4
144.4
144.4
144.4
144.4
144.4
144.4
144.4
144.4
144.4
144.4
144.4
144.4
144.4
144.4
144.4
144.4
144.4
144.4
144.4
144.4
144.4
144.4
144.4
144.4
144.4
144.4
144.4
144.4
144.4
144.4
144.4
144.4
144.4
144.4
144.4
144.4
144.4
144.4
144.4
144.4
144.4
144.4
144.4
144.4
144.4
144.4
144.4
144.4
144.4
144.4
144.4
144.4
144.4
144.4
144.4
144.4
144.4
144.4
144.4
144.4
144.4
144.4
144.4
144.4
144.4
144.4
144.4
144.4
144.4
144.4
144.4
144.4
144.4
144.4
144.4
144.4
144.4
144.4
144.4
144.4
144.4
144.4
144.4
144.4
144.4
144.4
144.4
144.4
144.4
144.4
144.4
144.4
144.4
144.4
144.4
144.4
144.4
144.4
144.4
144.4
144.4
144.4
144.4
144.4
144.4
144.4
144.4
144.4
144.4
144.4
144.4
144.4
144.4
144.4
144.4
144.4
144.4
144.4
144.4
144.4
144.4
144.4
144.4
144.4
144.4
144.4
144.4
144.4
144.4
144.4
144.4
144.4
144.4
144.4
144.4
144.4
144.4
144.4
144.4
144.4
144.4
144.4
144.4
144.4
144.4
144.4
144.4
144.4
144.4
144.4
144.4
144.4
144.4
144.4
144.4
144.4
144.4
144.4
144.4
144.4
144.4
144.4
144.4
144.4
144.4
144.4
144.4
144.4
144.4
144.4
144.4
144.4
144.4
144.4
144.4
144.4
144.4
144.4
144.4
144.4
144.4
144.4
144.4
144.4
144.4
144.4
144.4
144.4
144.4
144.4
144.4
144.4
144.4
144.4
144.4
144.4
144.4
144.4
144.4
144.4
144.4
144.4
144.4
144.4
144.4
144.4
144.4
144.4
144.4
144.4
144.4
144.4
144.4
144.4
144.4
144.4
144.4
144.4
144.4
144.4
144.4
144.4
144.4
144.4
144.4
144.4
144.4
144.4
144.4
144.4
144.4
144.4
144.4
144.4
144.4
144.4
144.4
144.4
144.4
144.4
144.4
144.4
144.4
144.4
144.4
144.4
144.4
144.4
144.4
144.4
144.4
144.4
144.4
144.4
144.4
144.4
144.4
144.4
144.4
144.4
144.4
144.4
144.4
144.4
144.4
144.4
144.4
144.4
144.4
144.4
144.4
144.4
144.4
144.4
144.4
144.4
144.4
144.4
144.4
144.4
144.4
144.4
144.4
144.4
144.4
144.4
144.4
144.4
144.4
144.4
144.4
144.4
144.4
144.4
144.4
144.4
144.4
144.4
144.4
144.4
144.4
144.4
144.4
144.4
144.4
144.4
144.4
144.4
144.4
144.4
144.4
144.4
144.4
144.4
144.4
144.4
144.4
144.4
144.4
144.4
144.4
144.4
144.4
144.4
144.4
144.4
144.4
144.4
144.4
144.4
144.4
144.4
144.4
144.4
144.4
144.4
144.4
144.4
144.4
144.4
144.4
144.4
144.4
144.4
144.4
144.4
144.4
144.4
144.4
144.4
144.4
144.4
144.4
144.4
144.4
144.4
144.4
144.4
144.4
144.4
144.4
144.4
144.4
144.4
144.4
144.4
144.4
144.4
144.4
144.4
144.4
144.4
144.4
144.4
144.4
144.4
144.4
144.4
144.4
144.4
144.4
144.4
144.4
144.4
144.4
144.4
144.4
144.4
144.4
144.4
144.4
144.4
144.4
144.4
144.4
144.4
144.4
144.4
144.4
144.4
144.4
144.4
144.4
144.4
144.4
144.4
144.4
144.4
144.4
144.4
144.4
144.4
144.4
144.4
144.4
144.4
144.4
144.4
144.4
144.4
144.4
144.4
144.4
144.4
144.4
144.4
144.4
144.4
144.4
144.4
144.4
144.4
144.4
144.4
144.4
144.4
144.4
144.4
144.4
144.4
144.4
144.4
144.4
144.4
144.4
144.4
144.4
144.4
144.4
144.4
144.4
144.4
144.4
144.4
144.4
144.4
144.4
144.4
144.4
144.4
144.4
144.4
144.4
144.4
144.4
144.4
144.4
144.4
144.4
144.4
144.4
144.4
144.4
144.4
144.4
144.4
144.4
144.4
144.4
144.4
144.4
144.4
144.4
144.4
144.4
144.4
144.4
144.4
144.4
144.4
144.4
144.4
144.4
144.4
144.4
144.4
144.4
144.4
144.4
144.4
144.4
144.4
144.4
144.4
144.4
144.4
144.4
144.4
144.4
144.4
144.4
144.4
144.4
144.4
144.4
144.4
144.4
144.4
144.4
144.4
144.4
144.4
144.4
144.4
144.4
144.4
144.4
144.4
144.4
144.4
144.4
144.4
144.4
144.4
144.4
144.4
144.4
144.4
144.4
144.4
144.4
144.4
144.4
144.4
144.4
144.4
144.4
144.4
144.4
144.4
144.4
144.4
144.4
144.4
144.4
144.4
144.4
144.4
144.4
144.4
144.4
144.4
144.4
144.4
144.4
144.4
144.4
144.4
144.4
144.4
144.4
144.4
144.4
144.4
144.4
144.4
144.4
144.4
144.4
144.4
144.4
144.4
144.4
144.4
144.4
144.4
144.4
144.4
144.4
144.4
144.4
144.4
144.4
144.4
144.4
144.4
144.4
144.4
144.4
144.4
144.4
144.4
144.4
144.4
144.4
144.4
144.4
144.4
144.4
144.4
144.4
144.4
144.4
144.4
144.4
144.4
144.4
144.4
144.4
144.4
144.4
144.4
144.4
144.4
144.4
144.4
144.4
144.4
144.4
144.4
144.4
144.4
144.4
144.4
144.4
144.4
144.4
144.4
144.4
144.4
144.4
144.4
144.4
144.4
144.4
144.4
144.4
144.4
144.4
144.4
144.4
144.4
144.4
144.4
144.4
144.4
144.4
144.4
144.4
144.4
144.4
144.4
144.4
144.4
144.4
144.4
144.4
144.4
144.4
144.4
144.4
144.4
144.4
144.4
144.4
144.4
144.4
144.4
144.4
144.4
144.4
144.4
144.4
144.4
144.4
144.4
144.4
144.4
144.4
144.4
144.4
144.4
144.4
144.4
144.4
144.4
144.4
144.4
144.4
144.4
144.4
144.4
144.4
144.4
144.4
144.4
144.4
144.4
144.4
144.4
144.4
144.4
144.4
144.4
144.4
144.4
144.4
144.4
144.4
144.4
144.4
144.4
144.4
144.4
144.4
144.4
144.4
144.4
144.4
144.4
144.4
144.4
144.4
144.4
144.4
144.4
144.4
144.4
144.4
144.4
144.4
144.4
144.4
144.4
144.4
144.4
144.4
144.4
144.4
144.4
144.4
144.4
144.4
144.4
144.4
144.4
144.4
144.4
144.4
144.4
144.4
144.4
144.4
144.4
144.4
144.4
144.4
144.4
144.4
144.4
144.4
144.4
144.4
144.4
144.4
144.4
144.4
144.4
144.4
144.4
144.4
144.4
144.4
144.4
144.4
144.4
144.4
144.4
144.4
144.4
144.4
144.4
144.4
144.4
144.4
144.4
144.4
144.4
144.4
144.4
144.4
144.4
144.4
144.4
144.4
144.4
144.4
144.4
144.4
144.4
144.4
144.4
144.4
144.4
144.4
144.4
144.4
144.4
144.4
144.4
144.4
144.4
144.4
144.4
144.4
144.4
144.4
144.4
144.4
144.4
144.4
144.4
144.4
144.4
144.4
144.4
144.4
144.4
144.4
144.4
144.4
144.4
144.4
144.4
144.4
144.4
144.4
144.4
144.4
144.4
144.4
144.4
144.4
144.4
144.4
144.4
144.4
144.4
144.4
144.4
144.4
144.4
144.4
144.4
144.4
144.4
144.4
144.4
144.4
144.4
144.4
144.4
144.4
144.4
144.4
144.4
144.4
144.4
144.4
144.4
144.4
144.4
144.4
144.4
144.4
144.4
144.4
144.4
144.4
144.4
144.4
144.4
144.4
144.4
144.4
144.4
144.4
144.4
144.4
144.4
144.4
144.4
144.4
144.4
144.4
144.4
144.4
144.4
144.4
144.4
144.4
144.4
144.4
144.4
144.4
144.4
144.4
144.4
144.4
144.4
144.4
144.4
144.4
144.4
144.4
144.4
144.4
144.4
144.4
144.4
144.4
144.4
144.4
144.4
144.4
144.4
144.4
144.4
144.4
144.4
144.4
144.4
144.4
144.4
144.4
144.4
144.4
144.4
144.4
144.4
144.4
144.4
144.4
144.4
144.4
144.4
144.4
144.4
144.4
144.4
144.4
144.4
144.4
144.4
144.4
144.4
144.4
144.4
144.4
144.4
144.4
144.4
144.4
144.4
144.4
144.4
144.4
144.4
144.4
144.4
144.4
144.4
144.4
144.4
144.4
144.4
144.4
144.4
144.4
144.4
144.4
144.4
144.4
144.4
144.4
144.4
144.4
144.4
144.4
144.4
144.4
144.4
144.4
144.4
144.4
144.4
144.4
144.4
144.4
144.4
144.4
144.4
144.4
144.4
144.4
144.4
144.4
144.4
144.4
144.4
144.4
144.4
144.4
144.4
144.4
144.4
144.4
144.4
144.4
144.4
144.4
144.4
144.4
144.4
144.4
144.4
144.4
144.4
144.4
144.4
144.4
144.4
144.4
144.4
144.4
144.4
144.4
144.4
144.4
144.4
144.4
144.4
144.4
144.4
144.4
144.4
144.4
144.4
144.4
144.4
144.4
144.4
144.4
144.4
144.4
144.4
144.4
144.4
144.4
144.4
144.4
144.4
144.4
144.4
144.4
144.4
144.4
144.4
144.4
144.4
144.4
144.4
144.4
144.4
144.4
144.4
144.4
144.4
144.4
144.4
144.4
144.4
144.4
144.4
144.4
144.4
144.4
144.4
144.4
144.4
144.4
144.4
144.4
144.4
144.4
144.4
144.4
144.4
144.4
144.4
144.4
144.4
144.4
144.4
144.4
144.4
144.4
144.4
144.4
144.4
144.4
144.4
144.4
144.4
144.4
144.4
144.4
144.4
144.4
144.4
144.4
144.4
144.4
144.4
144.4
144.4
144.4
144.4
144.4
144.4
144.4
144.4
144.4
144.4
144.4
144.4
144.4
144.4
144.4
144.4
144.4
144.4
144.4
144.4
144.4
144.4
144.4
144.4
144.4
144.4
144.4
144.4
144.4
144.4
144.4
144.4
144.4
144.4
144.4
144.4
144.4
144.4
144.4
144.4
144.4
144.4
144.4
144.4
144.4
144.4
144.4
144.4
144.4
144.4
144.4
144.4
144.4
144.4
144.4
144.4
144.4
144.4
144.4
144.4
144.4
144.4
144.4
144.4
144.4
144.4
144.4
144.4
144.4
144.4
144.4
144.4
144.4
144.4
144.4
144.4
144.4
144.4
144.4
144.4
144.4
144.4
144.4
144.4
144.4
144.4
144.4
144.4
144.4
144.4
144.4
144.4
144.4
144.4
144.4
144.4
144.4
144.4
144.4
144.4
144.4
144.4
144.4
144.4
144.4
144.4
144.4
144.4
144.4
144.4
144.4
144.4
144.4
144.4
144.4
144.4
144.4
144.4
144.4
144.4
144.4
144.4
144.4
144.4
144.4
144.4
144.4
144.4
144.4
144.4
144.4
144.4
144.4
144.4
144.4
144.4
144.4
144.4
144.4
144.4
144.4
144.4
144.4
144.4
144.4
144.4
144.4
144.4
144.4
144.4
144.4
144.4
144.4
144.4
144.4
144.4
144.4
144.4
144.4
144.4
144.4
144.4
144.4
144.4
144.4
144.4
144.4
144.4
144.4
144.4
144.4
144.4
144.4
144.4
144.4
144.4
144.4
144.4
144.4
144.4
144.4
144.4
144.4
144.4
144.4
144.4
144.4
144.4
144.4
144.4
144.4
144.4
144.4
144.4
144.4
144.4
144.4
144.4
144.4
144.4
144.4
144.4
144.4
144.4
144.4
144.4
144.4
144.4
144.4
144.4
144.4
144.4
144.4
144.4
144.4
144.4
144.4
144.4
144.4
144.4
144.4
144.4
144.4
144.4
144.4
144.4
144.4
144.4
144.4
144.4
144.4
144.4
144.4
144.4
144.4
144.4
144.4
144.4
144.4
144.4
144.4
144.4
144.4
144.4
144.4
144.4
144.4
144.4
144.4
144.4
144.4
144.4
144.4
144.4
144.4
144.4
144.4
144.4
144.4
144.4
144.4
144.4
144.4
144.4
144.4
144.4
144.4
144.4
144.4
144.4
144.4
144.4
144.4
144.4
144.4
144.4
144.4
144.4
144.4
144.4
144.4
144.4
144.4
144.4
144.4
144.4
144.4
144.4
144.4
144.4
144.4
144.4
144.4
144.4
144.4
144.4
144.4
144.4
144.4
144.4
144.4
144.4
144.4
144.4
144.4
144.4
144.4
144.4
144.4
144.4
144.4
144.4
144.4
144.4
144.4
144.4
144.4
144.4
144.4
144.4
144.4
144.4
144.4
144.4
144.4
144.4
144.4
144.4
144.4
144.4
144.4
144.4
144.4
144.4
144.4
144.4
144.4
144.4
144.4
144.4
144.4
144.4
144.4
144.4
144.4
144.4
144.4
144.4
144.4
144.4
144.4
144.4
144.4
144.4
144.4
144.4
144.4
144.4
144.4
144.4
144.4
144.4
144.4
144.4
144.4
144.4
144.4
144.4
144.4
144.4
144.4
144.4
144.4
144.4
144.4
144.4
144.4
144.4
144.4
144.4
144.4
144.4
144.4
144.4
144.4
144.4
144.4
144.4
144.4
144.4
144.4
144.4
144.4
144.4
144.4
144.4
144.4
144.4
144.4
144.4
144.4
144.4
144.4
144.4
144.4
144.4
144.4
144.4
144.4
144.4
144.4
144.4
144.4
144.4
144.4
144.4
144.4
144.4
144.4
144.4
144.4
144.4
144.4
144.4
144.4
144.4
144.4
144.4
144.4
144.4
144.4
144.4
144.4
144.4
144.4
144.4
144.4
144.4
144.4
144.4
144.4
144.4
144.4
144.4
144.4
144.4
144.4
144.4
144.4
144.4
144.4
144.4
144.4
144.4
144.4
144.4
144.4
144.4
144.4
144.4
144.4
144.4
144.4
144.4
144.4
144.4
144.4
144.4
144.4
144.4
144.4
144.4
144.4
144.4
144.4
144.4
144.4
144.4
144.4
144.4
144.4
144.4
144.4
144.4
144.4
144.4
144.4
144.4
144.4
144.4
144.4
144.4
144.4
144.4
144.4
144.4
144.4
144.4
144.4
144.4
144.4
144.4
144.4
144.4
144.4
144.4
144.4
144.4
144.4
144.4
144.4
144.4
144.4
144.4
144.4
144.4
144.4
144.4
144.4
144.4
144.4
144.4
144.4
144.4
144.4
144.4
144.4
144.4
144.4
144.4
144.4
144.4
144.4
144.4
144.4
144.4
144.4
144.4
144.4
144.4
144.4
144.4
144.4
144.4
144.4
144.4
144.4
144.401
144.401
144.401
144.401
144.401
144.401
144.401
144.401
144.401
144.402
144.402
144.402
144.402
144.402
144.402
144.402
144.402
144.402
144.402
144.402
144.403
144.403
144.403
144.403
144.403
144.403
144.403
144.403
144.403
144.403
144.403
144.403
144.403
144.403
144.402
144.402
144.402
144.402
144.402
144.402
144.402
144.402
144.402
144.402
144.402
144.401
144.401
144.401
144.401
144.401
144.401
144.401
144.401
144.401
144.401
144.401
144.401
144.401
144.401
144.401
144.401
144.401
144.401
144.4
144.4
144.4
144.4
144.4
144.4
144.4
144.4
144.4
144.4
144.4
144.4
144.4
144.4
144.4
144.4
144.4
144.4
144.4
144.4
144.4
144.4
144.4
144.4
144.4
144.4
144.4
144.4
144.4
144.4
144.4
144.4
144.4
144.4
144.4
144.4
144.4
144.4
144.4
144.4
144.4
144.4
144.4
144.4
144.4
144.4
144.4
144.4
144.4
144.4
144.4
144.4
144.4
144.4
144.4
144.4
144.4
144.4
144.4
144.4
144.4
144.4
144.4
144.4
144.4
144.4
144.4
144.4
144.4
144.4
144.4
144.4
144.4
144.4
144.4
144.4
144.4
144.4
144.4
144.4
144.4
144.4
144.4
144.4
144.4
144.4
144.4
144.4
144.4
144.4
144.4
144.4
144.4
144.4
144.4
144.4
144.4
144.4
144.4
144.4
144.4
144.4
144.4
144.4
144.4
144.4
144.4
144.4
144.4
144.4
144.4
144.4
144.4
144.4
144.4
144.4
144.4
144.4
144.4
144.4
144.4
144.4
144.4
144.4
144.4
144.4
144.4
144.4
144.4
144.401
144.401
144.401
144.401
144.401
144.401
144.401
144.401
144.401
144.402
144.402
144.402
144.403
144.403
144.403
144.404
144.404
144.404
144.405
144.406
144.407
144.408
144.409
144.41
144.41
144.411
144.412
144.413
144.413
144.414
144.414
144.415
144.415
144.416
144.417
144.417
144.418
144.419
144.419
144.419
144.42
144.42
144.42
144.419
144.419
144.419
144.418
144.417
144.417
144.416
144.416
144.415
144.414
144.414
144.413
144.412
144.412
144.411
144.411
144.41
144.41
144.41
144.409
144.409
144.408
144.408
144.408
144.407
144.407
144.407
144.406
144.406
144.406
144.405
144.405
144.404
144.404
144.404
144.403
144.403
144.403
144.403
144.402
144.402
144.402
144.401
144.401
144.401
144.401
144.401
144.401
144.401
144.4
144.4
144.4
144.4
144.4
144.4
144.4
144.4
144.4
144.4
144.4
144.4
144.4
144.4
144.4
144.4
144.4
144.4
144.4
144.4
144.4
144.4
144.4
144.4
144.4
144.4
144.4
144.4
144.4
144.4
144.4
144.4
144.4
144.4
144.4
144.4
144.4
144.4
144.4
144.4
144.4
144.4
144.4
144.4
144.4
144.4
144.4
144.4
144.4
144.4
144.4
144.4
144.4
144.4
144.4
144.4
144.4
144.4
144.4
144.4
144.4
144.4
144.4
144.4
144.4
144.4
144.4
144.4
144.4
144.4
144.4
144.4
144.4
144.4
144.4
144.4
144.4
144.4
144.4
144.4
144.4
144.4
144.4
144.4
144.4
144.4
144.4
144.4
144.4
144.4
144.4
144.4
144.4
144.4
144.4
144.4
144.4
144.4
144.4
144.4
144.401
144.401
144.401
144.401
144.401
144.401
144.401
144.401
144.401
144.402
144.402
144.402
144.402
144.403
144.403
144.403
144.404
144.404
144.405
144.405
144.406
144.407
144.408
144.409
144.411
144.413
144.414
144.416
144.418
144.42
144.423
144.426
144.429
144.433
144.438
144.444
144.45
144.456
144.463
144.469
144.474
144.479
144.484
144.488
144.492
144.495
144.498
144.501
144.505
144.509
144.513
144.518
144.522
144.526
144.529
144.53
144.53
144.53
144.528
144.525
144.522
144.519
144.515
144.511
144.507
144.502
144.498
144.494
144.49
144.486
144.482
144.479
144.476
144.473
144.47
144.467
144.464
144.462
144.459
144.457
144.454
144.452
144.45
144.448
144.445
144.443
144.441
144.438
144.436
144.434
144.431
144.429
144.427
144.424
144.422
144.42
144.418
144.415
144.413
144.411
144.41
144.408
144.407
144.406
144.405
144.405
144.404
144.404
144.403
144.403
144.402
144.402
144.401
144.401
144.401
144.401
144.401
144.401
144.4
144.4
144.4
144.4
144.4
144.4
144.4
144.4
144.4
144.4
144.4
144.4
144.4
144.4
144.4
144.4
144.4
144.4
144.4
144.4
144.4
144.4
144.4
144.4
144.4
144.4
144.4
144.4
144.4
144.4
144.4
144.4
144.4
144.4
144.4
144.4
144.4
144.4
144.4
144.4
144.4
144.4
144.4
144.4
144.4
144.4
144.4
144.4
144.4
144.4
144.4
144.4
144.4
144.4
144.4
144.4
144.4
144.4
144.4
144.4
144.4
144.4
144.4
144.4
144.4
144.4
144.4
144.4
144.4
144.4
144.4
144.4
144.4
144.401
144.401
144.401
144.401
144.401
144.401
144.401
144.401
144.401
144.402
144.402
144.402
144.402
144.402
144.403
144.403
144.404
144.404
144.405
144.405
144.406
144.407
144.407
144.408
144.41
144.411
144.413
144.414
144.416
144.419
144.421
144.424
144.427
144.43
144.434
144.438
144.444
144.451
144.459
144.469
144.479
144.491
144.503
144.515
144.528
144.543
144.562
144.585
144.614
144.647
144.685
144.725
144.765
144.805
144.844
144.88
144.914
144.944
144.972
144.996
145.018
145.037
145.056
145.076
145.101
145.13
145.16
145.188
145.211
145.228
145.237
145.238
145.233
145.222
145.207
145.187
145.164
145.139
145.113
145.086
145.058
145.032
145.006
144.981
144.958
144.936
144.916
144.896
144.878
144.861
144.845
144.829
144.814
144.798
144.784
144.769
144.754
144.739
144.725
144.71
144.695
144.68
144.665
144.649
144.633
144.617
144.601
144.584
144.568
144.552
144.536
144.52
144.505
144.49
144.477
144.466
144.456
144.449
144.443
144.437
144.433
144.428
144.424
144.421
144.417
144.414
144.412
144.409
144.408
144.406
144.405
144.404
144.404
144.403
144.402
144.402
144.402
144.401
144.401
144.401
144.401
144.401
144.4
144.4
144.4
144.4
144.4
144.4
144.4
144.4
144.4
144.4
144.4
144.4
144.4
144.4
144.4
144.4
144.4
144.4
144.4
144.4
144.4
144.4
144.4
144.4
144.4
144.4
144.4
144.4
144.4
144.4
144.4
144.4
144.4
144.4
144.4
144.4
144.4
144.4
144.4
144.4
144.4
144.4
144.4
144.4
144.4
144.4
144.401
144.401
144.401
144.401
144.401
144.401
144.401
144.401
144.401
144.401
144.401
144.402
144.402
144.402
144.402
144.403
144.403
144.403
144.404
144.404
144.405
144.405
144.406
144.407
144.408
144.409
144.41
144.411
144.412
144.414
144.416
144.419
144.421
144.424
144.428
144.431
144.435
144.439
144.444
144.45
144.457
144.465
144.475
144.487
144.5
144.514
144.529
144.544
144.562
144.581
144.604
144.633
144.669
144.715
144.768
144.828
144.894
144.965
145.039
145.115
145.196
145.288
145.403
145.551
145.736
145.952
146.19
146.442
146.696
146.947
147.187
147.413
147.622
147.812
147.983
148.135
148.271
148.393
148.507
148.628
148.775
148.955
149.149
149.328
149.472
149.577
149.636
149.642
149.61
149.542
149.444
149.322
149.181
149.025
148.86
148.689
148.52
148.357
148.202
148.059
147.926
147.802
147.687
147.579
147.478
147.381
147.287
147.196
147.106
147.017
146.927
146.837
146.746
146.655
146.562
146.467
146.371
146.272
146.171
146.067
145.962
145.854
145.745
145.635
145.524
145.414
145.303
145.194
145.088
144.989
144.903
144.832
144.775
144.728
144.689
144.655
144.624
144.595
144.569
144.543
144.52
144.498
144.479
144.464
144.452
144.443
144.436
144.43
144.425
144.421
144.417
144.413
144.411
144.408
144.407
144.405
144.404
144.404
144.403
144.402
144.402
144.402
144.401
144.401
144.401
144.401
144.401
144.4
144.4
144.4
144.4
144.4
144.4
144.4
144.4
144.4
144.4
144.4
144.4
144.4
144.4
144.4
144.4
144.4
144.4
144.4
144.4
144.4
144.4
144.4
144.4
144.401
144.401
144.401
144.401
144.401
144.401
144.401
144.402
144.402
144.402
144.402
144.402
144.403
144.403
144.403
144.404
144.404
144.405
144.405
144.406
144.406
144.407
144.408
144.409
144.41
144.412
144.413
144.414
144.416
144.418
144.42
144.423
144.427
144.43
144.435
144.439
144.444
144.45
144.456
144.463
144.471
144.481
144.493
144.508
144.524
144.542
144.561
144.582
144.604
144.629
144.657
144.691
144.733
144.785
144.846
144.915
144.992
145.076
145.165
145.259
145.36
145.472
145.608
145.785
146.01
146.288
146.614
146.98
147.38
147.804
148.245
148.698
149.17
149.706
150.396
151.313
152.459
153.785
155.224
156.713
158.196
159.633
160.997
162.272
163.443
164.504
165.457
166.307
167.062
167.732
168.342
168.96
169.704
170.648
171.672
172.596
173.324
173.861
174.154
174.156
173.975
173.608
173.085
172.437
171.688
170.86
169.979
169.07
168.198
167.386
166.638
165.954
165.324
164.738
164.186
163.661
163.157
162.667
162.186
161.71
161.232
160.748
160.253
159.747
159.23
158.7
158.157
157.598
157.02
156.422
155.802
155.159
154.498
153.82
153.124
152.416
151.699
150.975
150.247
149.521
148.811
148.162
147.615
147.179
146.834
146.554
146.315
146.101
145.902
145.713
145.532
145.359
145.195
145.045
144.919
144.82
144.746
144.69
144.645
144.607
144.574
144.544
144.516
144.492
144.472
144.457
144.446
144.437
144.431
144.426
144.421
144.417
144.414
144.411
144.408
144.407
144.406
144.405
144.404
144.403
144.403
144.402
144.402
144.402
144.401
144.401
144.401
144.401
144.401
144.401
144.401
144.4
144.4
144.4
144.4
144.4
144.4
144.4
144.4
144.4
144.4
144.404
144.405
144.405
144.406
144.406
144.407
144.407
144.408
144.409
144.41
144.411
144.413
144.414
144.416
144.418
144.42
144.422
144.424
144.427
144.43
144.434
144.439
144.444
144.45
144.456
144.463
144.47
144.478
144.488
144.499
144.512
144.528
144.547
144.568
144.591
144.617
144.645
144.676
144.709
144.749
144.797
144.856
144.927
145.01
145.103
145.206
145.318
145.437
145.563
145.701
145.861
146.058
146.305
146.607
146.961
147.364
147.808
148.286
148.794
149.327
149.889
150.513
151.288
152.318
153.652
155.278
157.154
159.226
161.437
163.741
166.097
168.474
170.886
173.553
177.071
181.803
187.58
193.993
200.658
207.281
213.647
219.622
225.144
230.192
234.743
238.797
242.393
245.583
248.402
250.881
253.086
255.174
257.541
260.946
264.713
267.973
270.419
272.22
273.238
273.171
272.443
271.114
269.286
267.006
264.356
261.389
258.194
254.876
251.974
249.426
247.14
245.058
243.131
241.313
239.563
237.848
236.147
234.447
232.733
230.987
229.191
227.324
225.371
223.327
221.194
218.97
216.645
214.206
211.644
208.945
206.087
203.062
199.902
196.601
193.135
189.528
185.81
181.977
178.03
174.005
169.988
166.397
163.515
161.284
159.509
158.01
156.661
155.389
154.158
152.958
151.787
150.644
149.542
148.54
147.72
147.104
146.653
146.311
146.034
145.793
145.573
145.368
145.178
145.012
144.879
144.78
144.71
144.658
144.617
144.582
144.55
144.522
144.496
144.475
144.459
144.448
144.44
144.434
144.429
144.425
144.421
144.418
144.415
144.412
144.41
144.408
144.407
144.406
144.406
144.405
144.404
144.4
144.4
144.4
144.4
144.4
144.4
144.4
144.4
144.4
144.423
144.426
144.428
144.431
144.434
144.438
144.442
144.447
144.453
144.459
144.466
144.474
144.483
144.492
144.502
144.513
144.526
144.542
144.56
144.581
144.605
144.633
144.663
144.696
144.732
144.771
144.815
144.866
144.929
145.003
145.092
145.196
145.313
145.442
145.583
145.735
145.9
146.083
146.3
146.569
146.899
147.296
147.755
148.271
148.836
149.443
150.085
150.762
151.493
152.35
153.438
154.821
156.501
158.444
160.605
162.938
165.403
167.97
170.62
173.357
176.313
180.006
184.999
191.345
198.775
206.954
215.575
224.375
233.167
241.816
250.216
258.365
266.77
278.485
294.668
312.953
331.326
348.695
364.562
378.679
390.998
401.674
410.949
418.944
425.744
431.564
436.553
440.747
444.203
447.095
449.524
451.392
452.575
452.944
452.874
452.672
452.338
451.713
450.831
449.825
448.634
447.2
445.651
444.063
442.469
440.941
439.445
437.911
436.336
434.703
432.99
431.195
429.316
427.361
425.323
423.162
420.842
418.37
415.763
412.978
409.926
406.588
402.978
399.075
394.849
390.28
385.297
379.828
373.915
367.394
360.108
352.247
343.76
334.356
324.08
313.057
301.134
288.099
273.984
258.887
245.685
235.745
228.116
221.734
215.877
210.154
204.365
198.458
192.468
186.391
180.25
174.118
168.463
164.006
160.791
158.438
156.577
154.973
153.496
152.091
150.745
149.475
148.361
147.496
146.884
146.455
146.135
145.873
145.642
145.429
145.232
145.055
144.91
144.803
144.729
144.678
144.639
144.607
144.579
144.554
144.53
144.509
144.49
144.475
144.462
144.453
144.446
144.442
144.44
144.433
144.4
144.4
144.516
144.528
144.54
144.555
144.571
144.59
144.612
144.637
144.666
144.699
144.735
144.775
144.818
144.865
144.916
144.975
145.044
145.125
145.222
145.335
145.464
145.608
145.767
145.939
146.125
146.328
146.556
146.826
147.156
147.557
148.031
148.578
149.192
149.868
150.598
151.379
152.216
153.146
154.268
155.685
157.438
159.515
161.875
164.468
167.244
170.159
173.182
176.298
179.577
183.399
188.341
194.529
201.761
209.742
218.214
226.962
235.82
244.688
253.507
262.26
271.172
282.306
298.272
317.346
337.55
357.647
376.886
394.747
411.017
425.722
438.754
450.022
459.923
468.62
476.126
482.588
488.057
492.535
495.999
498.467
500.142
501.002
500.997
500.723
500.159
499.469
498.732
497.959
497.206
496.487
495.735
494.945
494.124
493.127
491.999
490.83
489.594
488.334
487.074
485.932
484.825
483.677
482.45
481.297
480.301
479.168
478.046
477.078
476.194
475.325
474.496
473.718
472.956
472.198
471.414
470.57
469.754
468.968
468.141
467.253
466.371
465.48
464.503
463.492
462.462
461.365
460.196
459.037
457.751
456.161
454.487
452.809
450.79
448.387
445.759
442.708
439.046
434.937
430.58
425.596
419.743
413.107
405.608
396.967
387.045
375.78
362.834
348.289
332.391
314.707
295.139
273.782
252.616
236.799
225.616
217.011
209.516
202.405
195.322
188.164
181
173.955
167.676
162.984
159.772
157.493
155.694
154.117
152.649
151.257
149.941
148.743
147.772
147.085
146.628
146.31
146.064
145.853
145.662
145.485
145.322
145.174
145.045
144.935
144.846
144.781
144.74
144.714
144.695
144.647
144.959
145.016
145.078
145.148
145.229
145.325
145.437
145.567
145.714
145.879
146.062
146.26
146.474
146.706
146.96
147.251
147.598
148.014
148.507
149.078
149.724
150.442
151.226
152.072
152.978
153.954
155.055
156.387
158.038
160.041
162.381
165.022
167.921
171.035
174.326
177.768
181.368
185.275
190.025
196.024
203.238
211.407
220.238
229.477
238.917
248.402
257.831
267.163
276.484
287.027
301.738
319.333
338.093
356.865
375.018
392.152
408.003
422.566
435.913
447.907
458.641
468.215
476.537
483.961
490.718
496.786
501.984
506.201
509.559
512.118
513.838
514.88
515.18
515.105
515.001
515.051
515.261
515.535
515.643
515.601
515.447
515.066
514.383
513.446
512.305
511.025
509.711
508.328
506.913
505.583
504.369
503.25
501.879
500.398
499.125
497.997
496.909
495.788
494.443
493.19
492.004
490.839
489.669
488.548
487.516
486.464
485.385
484.352
483.4
482.497
481.636
480.84
480.101
479.391
478.7
478.053
477.412
476.672
475.928
475.293
474.648
473.892
473.111
472.373
471.625
470.836
469.971
469.047
468.086
467.229
466.319
465.278
464.239
463.376
462.374
461.161
460.045
458.868
457.401
455.776
454.31
452.775
451.018
448.873
446.616
444.357
442.128
439.779
436.902
433.492
429.403
423.953
416.991
408.667
398.894
387.271
373.687
358.303
340.556
320.285
298.09
273.939
250.528
233.808
222.461
213.847
206.287
198.974
191.667
184.385
177.213
170.419
164.916
161.192
158.757
156.997
155.544
154.233
153.005
151.848
150.767
149.781
148.909
148.161
147.547
147.103
146.827
146.659
146.542
146.223
147.041
147.308
147.602
147.935
148.326
148.788
149.33
149.955
150.66
151.443
152.3
153.226
154.219
155.281
156.443
157.789
159.418
161.382
163.689
166.315
169.225
172.381
175.748
179.297
183.01
186.921
191.247
196.531
203.016
210.609
219.079
228.183
237.708
247.473
257.344
267.234
277.132
287.29
300.029
316.381
334.746
353.646
372.183
389.847
406.316
421.422
435.187
447.57
458.547
468.202
476.448
483.626
489.936
495.539
500.539
504.872
508.51
511.535
513.913
515.641
516.834
517.584
518.132
518.694
519.318
520.083
520.977
521.839
522.561
523.071
523.322
523.309
523.118
522.682
522.076
521.46
520.931
520.403
519.898
519.404
518.888
518.289
517.58
516.774
515.821
514.712
513.582
512.353
511.058
509.786
508.577
507.42
505.927
504.343
503.038
501.958
500.974
499.965
498.689
497.471
496.306
495.164
494.026
492.926
491.891
490.846
489.745
488.64
487.594
486.591
485.614
484.694
483.835
483.013
482.225
481.501
480.786
479.947
479.134
478.42
477.731
476.923
476.094
475.342
474.595
473.759
472.829
471.941
471.095
470.213
469.23
468.284
467.431
466.59
465.578
464.577
463.654
462.749
461.8
460.784
459.756
458.764
457.698
456.751
455.59
454.204
452.789
451.385
450.045
448.763
447.427
446.322
445.683
444.802
443.414
441.559
439.672
437.632
435.231
432.561
428.672
422.967
415.812
407.133
396.547
383.953
369.219
351.87
332.3
311.052
288.038
263.64
242.814
229.406
220.482
213.433
207.022
200.814
194.732
188.796
183.068
177.689
172.814
168.54
164.944
162.315
160.766
159.83
159.182
157.362
158.681
160.138
161.871
163.928
166.319
169.026
172.02
175.269
178.741
182.407
186.244
190.259
194.556
199.527
205.524
212.572
220.511
229.136
238.257
247.708
257.357
267.099
276.878
286.728
297.105
310.526
326.752
344.383
362.317
379.9
396.723
412.498
427.096
440.513
452.647
463.521
473.023
481.182
488.299
494.533
499.96
504.641
508.598
511.902
514.619
516.726
518.224
519.204
519.898
520.442
520.929
521.471
522.046
522.621
523.269
523.911
524.442
524.883
525.131
525.126
525.072
524.986
524.951
525.009
525.132
525.285
525.49
525.624
525.614
525.519
525.3
524.937
524.437
523.87
523.29
522.696
522.087
521.477
520.864
520.216
519.543
518.841
518.027
517.097
516.16
515.06
513.863
512.717
511.625
510.453
508.914
507.316
506.004
504.939
504.012
503.092
501.899
500.742
499.633
498.542
497.438
496.351
495.336
494.329
493.252
492.13
491.043
489.998
488.965
487.965
487.022
486.119
485.257
484.482
483.717
482.821
481.964
481.19
480.483
479.651
478.807
478.038
477.279
476.396
475.427
474.544
473.69
472.737
471.684
470.737
469.866
468.946
467.855
466.819
465.879
464.991
464.126
463.253
462.337
461.469
460.579
459.673
458.698
457.387
456.076
454.93
453.771
452.554
451.566
450.768
450.283
449.886
449.424
449.1
448.531
447.585
446.617
445.792
445.151
444.958
444.665
444.077
443.452
442.885
442.18
441.321
439.804
436.619
431.478
425.073
417.726
409.164
399.24
387.899
375.034
360.802
345.61
329.65
312.92
295.959
279.387
263.852
249.844
238.768
232.892
229.356
226.96
220.087
200.298
205.323
211.264
218.129
225.793
234.096
242.882
252.007
261.352
270.819
280.333
289.894
299.657
311.137
325.279
341.083
357.525
373.922
389.843
405.015
419.262
432.499
444.721
455.853
465.914
474.726
482.419
489.188
495.208
500.517
505.094
509.029
512.418
515.242
517.491
519.21
520.473
521.473
522.338
523.129
523.914
524.649
525.266
525.813
526.274
526.631
526.869
526.878
526.8
526.638
526.483
526.421
526.425
526.477
526.639
526.82
527.013
527.219
527.341
527.34
527.296
527.192
527.089
527.026
526.991
526.991
527.003
526.997
526.948
526.839
526.655
526.372
525.981
525.51
524.988
524.414
523.795
523.153
522.489
521.809
521.146
520.466
519.689
518.882
518.097
517.143
516.065
515.077
514.148
512.988
511.485
510.009
508.748
507.692
506.769
505.924
504.835
503.729
502.674
501.661
500.618
499.553
498.562
497.611
496.582
495.478
494.377
493.312
492.254
491.209
490.204
489.235
488.312
487.471
486.639
485.742
484.848
484.028
483.303
482.471
481.61
480.801
480.038
479.137
478.185
477.297
476.427
475.416
474.348
473.382
472.48
471.481
470.301
469.19
468.168
467.218
466.307
465.442
464.55
463.673
462.856
462.044