/*--------------------------------*- C++ -*----------------------------------*\
| =========                 |                                                 |
| \\      /  F ield         | OpenFOAM: The Open Source CFD Toolbox           |
|  \\    /   O peration     | Version:  v1706                                 |
|   \\  /    A nd           | Web:      www.OpenFOAM.com                      |
|    \\/     M anipulation  |                                                 |
\*---------------------------------------------------------------------------*/
FoamFile
{
    version     2.0;
    format      ascii;
    class       volScalarField;
    location    "3.9e-05";
    object      wallHeatFlux;
}
// * * * * * * * * * * * * * * * * * * * * * * * * * * * * * * * * * * * * * //

dimensions      [1 0 -3 0 0 0 0];


internalField   uniform 0;

boundaryField
{
    cone
    {
        type            calculated;
        value           nonuniform List<scalar> 
119
(
8555.54
7656.04
6862.59
6171.79
5577.92
5073.9
4653.89
4311.28
4039.79
3835.23
3692.28
3606.35
3573.77
3590.89
3655.37
3764.75
3915.08
4103.09
4325.1
4576.87
4853.66
5150.25
5461.1
5780.46
6102.6
6422.11
6734.08
7034.36
7319.68
7587.7
7837
8067.01
8277.94
8470.63
8646.44
8807.05
8954.31
9090.15
9216.38
9334.7
9446.58
9553.27
9655.75
9754.7
9850.54
9943.37
10033
10118.9
10200.4
10276.4
10345.5
10406.4
10457.2
10496.1
10521.5
10531.7
10525.1
10500.6
10457
10394
10311.9
10211.3
10093.5
9960.27
9813.71
9656.27
9490.43
9318.61
9143
8965.53
8787.83
8611.26
8436.82
8265.18
8096.64
7931.03
7767.77
7605.82
7443.76
7279.95
7112.61
6940.05
6760.81
6573.82
6378.55
6175.19
5964.75
5749.12
5531.03
5314.06
5102.5
4901.06
4714.44
4547.66
4403.21
4283.9
4193.07
4132.67
4104.37
4108.73
4146.26
4217.39
4321.01
4456.08
4621.1
4813.68
5030.18
5265.26
5511.55
5759.62
5998.39
6216.4
6403.21
6550.53
6657.39
6749.83
6889.56
7062.41
7439.19
)
;
    }
    inlet
    {
        type            calculated;
        value           uniform 0;
    }
    rWedge
    {
        type            wedge;
    }
    lWedge
    {
        type            wedge;
    }
    outlet
    {
        type            calculated;
        value           uniform 0;
    }
    procBoundary0to1
    {
        type            processor;
        value           uniform 0;
    }
    procBoundary0to2
    {
        type            processor;
        value           uniform 0;
    }
}


// ************************************************************************* //
