/*--------------------------------*- C++ -*----------------------------------*\
| =========                 |                                                 |
| \\      /  F ield         | OpenFOAM: The Open Source CFD Toolbox           |
|  \\    /   O peration     | Version:  v1706                                 |
|   \\  /    A nd           | Web:      www.OpenFOAM.com                      |
|    \\/     M anipulation  |                                                 |
\*---------------------------------------------------------------------------*/
FoamFile
{
    version     2.0;
    format      ascii;
    class       volVectorField;
    location    "2e-05";
    object      U;
}
// * * * * * * * * * * * * * * * * * * * * * * * * * * * * * * * * * * * * * //

dimensions      [0 1 -1 0 0 0 0];


internalField   nonuniform List<vector> 
29987
(
(2764.5 -2.08813e-08 4.07863e-11)
(2764.5 -6.55968e-09 1.20183e-11)
(2764.5 -3.16119e-09 5.81211e-12)
(2764.5 -1.95692e-09 3.50321e-12)
(2764.5 -1.33579e-09 2.32648e-12)
(2764.5 -9.67325e-10 1.67488e-12)
(2764.5 -7.29894e-10 1.29034e-12)
(2764.5 -5.69907e-10 1.00536e-12)
(2764.5 -4.62758e-10 8.08656e-13)
(2764.5 -3.81205e-10 6.89589e-13)
(2764.5 -3.20277e-10 5.23362e-13)
(2764.5 -2.74033e-10 4.62832e-13)
(2764.5 -2.35091e-10 4.19375e-13)
(2764.5 -2.04229e-10 3.49889e-13)
(2764.5 -1.85641e-10 3.11205e-13)
(2764.5 -1.66754e-10 2.61697e-13)
(2764.5 -1.46249e-10 2.24891e-13)
(2764.5 -1.3117e-10 1.93067e-13)
(2764.5 -1.2e-10 1.84423e-13)
(2764.5 -1.12317e-10 1.73394e-13)
(2764.5 -1.00875e-10 1.72012e-13)
(2764.5 -9.78663e-11 1.39519e-13)
(2764.5 -8.69294e-11 1.32176e-13)
(2764.5 -8.08572e-11 1.15006e-13)
(2764.5 -7.56541e-11 1.16996e-13)
(2764.5 -7.43885e-11 1.12939e-13)
(2764.5 -6.57218e-11 8.87283e-14)
(2764.5 -6.60954e-11 8.03045e-14)
(2764.5 -6.05538e-11 8.63877e-14)
(2764.5 -5.64885e-11 7.88502e-14)
(2764.5 -5.6247e-11 8.73156e-14)
(2764.5 -5.16906e-11 7.5109e-14)
(2764.5 -4.86332e-11 6.54801e-14)
(2764.5 -5.13432e-11 6.17515e-14)
(2764.5 -4.55043e-11 6.372e-14)
(2764.5 -4.70219e-11 5.58941e-14)
(2764.5 -4.20759e-11 5.47027e-14)
(2764.5 -3.94017e-11 4.22779e-14)
(2764.5 -3.96698e-11 3.91124e-14)
(2764.5 -4.17054e-11 4.82029e-14)
(2764.5 -3.87543e-11 3.59071e-14)
(2764.5 -3.56781e-11 3.82896e-14)
(2764.5 -3.64901e-11 4.54136e-14)
(2764.5 -3.57165e-11 3.97692e-14)
(2764.5 -3.44997e-11 3.75076e-14)
(2764.5 -3.28694e-11 3.17546e-14)
(2764.5 -3.37176e-11 4.36315e-14)
(2764.5 -3.41257e-11 3.01192e-14)
(2764.5 -3.07103e-11 2.87278e-14)
(2764.5 -3.19981e-11 3.22824e-14)
(2764.5 -2.94184e-11 3.14179e-14)
(2764.5 -3.01088e-11 2.82966e-14)
(2764.5 -2.95438e-11 2.77013e-14)
(2764.5 -3.06024e-11 2.68205e-14)
(2764.5 -2.90844e-11 2.74269e-14)
(2764.5 -2.82435e-11 2.21135e-14)
(2764.5 -2.97328e-11 2.20415e-14)
(2764.5 -2.82441e-11 2.1064e-14)
(2764.5 -2.96113e-11 2.15636e-14)
(2764.5 -3.09689e-11 2.54076e-14)
(2764.5 -2.87687e-11 2.52618e-14)
(2764.5 -2.60904e-11 1.42972e-14)
(2764.5 -2.68674e-11 1.85063e-14)
(2764.5 -2.56521e-11 2.12688e-14)
(2764.5 -2.63932e-11 1.63732e-14)
(2764.5 -2.51377e-11 1.46897e-14)
(2764.5 -2.41465e-11 1.51707e-14)
(2764.5 -2.51684e-11 1.91037e-14)
(2764.5 -2.597e-11 1.8217e-14)
(2764.5 -2.52255e-11 1.63944e-14)
(2764.5 -2.62517e-11 1.32956e-14)
(2764.5 -2.40489e-11 1.5333e-14)
(2764.5 -2.56108e-11 1.48976e-14)
(2764.5 -2.31758e-11 1.49232e-14)
(2764.5 -2.13724e-11 1.6732e-14)
(2764.5 -2.45283e-11 1.49179e-14)
(2764.5 -2.52278e-11 1.40361e-14)
(2764.5 -2.54638e-11 1.62169e-14)
(2764.5 -2.53469e-11 1.11421e-14)
(2764.5 -2.37949e-11 6.83264e-15)
(2764.5 -2.44905e-11 1.10376e-14)
(2764.5 -2.49493e-11 1.19104e-14)
(2764.5 -2.50113e-11 8.5595e-15)
(2764.5 -2.40346e-11 1.01209e-14)
(2764.5 -2.43335e-11 1.10748e-14)
(2764.5 -2.38628e-11 9.81346e-15)
(2764.5 -2.44946e-11 9.19085e-15)
(2764.5 -2.54664e-11 9.74852e-15)
(2764.5 -2.34853e-11 1.30386e-14)
(2764.5 -2.48851e-11 8.1524e-15)
(2764.5 -2.5641e-11 5.62825e-15)
(2764.5 -2.54557e-11 6.01899e-15)
(2764.5 -2.31198e-11 1.1009e-14)
(2764.5 -2.33024e-11 1.29819e-14)
(2764.5 -2.3931e-11 1.27895e-14)
(2764.5 -2.284e-11 1.17925e-14)
(2764.5 -2.24115e-11 8.63961e-15)
(2764.5 -2.1991e-11 1.16654e-14)
(2764.5 -2.32596e-11 1.19657e-14)
(2764.5 -2.33549e-11 8.30804e-15)
(2764.5 -2.5258e-11 6.76389e-15)
(2764.5 -2.61994e-11 1.42534e-14)
(2764.5 -2.5667e-11 1.41598e-14)
(2764.5 -2.51208e-11 9.41248e-15)
(2764.5 -2.38998e-11 1.03703e-14)
(2764.5 -2.50047e-11 8.91314e-15)
(2764.5 -2.61036e-11 5.89098e-15)
(2764.5 -2.85746e-11 6.01712e-15)
(2764.5 -2.71311e-11 8.36379e-15)
(2764.5 -2.5333e-11 6.56007e-15)
(2764.5 -2.61637e-11 8.07968e-15)
(2764.5 -2.62776e-11 7.14707e-15)
(2764.5 -2.58494e-11 9.55648e-15)
(2764.5 -2.49754e-11 8.28939e-15)
(2764.5 -2.59155e-11 9.90479e-15)
(2764.5 -2.62093e-11 7.30524e-15)
(2764.5 -2.63355e-11 8.06717e-15)
(2764.5 -2.63791e-11 1.1589e-14)
(2764.5 -2.55202e-11 1.06557e-14)
(2764.5 -2.59911e-11 5.90823e-15)
(2764.5 -2.98393e-11 7.29496e-15)
(2764.5 -2.98753e-11 8.8388e-15)
(2764.5 -3.07488e-11 8.11133e-15)
(2764.5 -3.13377e-11 8.53856e-15)
(2764.5 -3.11522e-11 8.59139e-15)
(2764.5 -2.97554e-11 8.02458e-15)
(2764.5 -2.94034e-11 8.91609e-15)
(2764.5 -3.08403e-11 8.13762e-15)
(2764.5 -3.20454e-11 9.01569e-15)
(2764.5 -3.29295e-11 7.62015e-15)
(2764.5 -3.22992e-11 9.58902e-15)
(2764.5 -3.11767e-11 1.31943e-14)
(2764.5 -3.16436e-11 5.31317e-15)
(2764.5 -3.10029e-11 5.45404e-15)
(2764.5 -3.11715e-11 7.83671e-15)
(2764.5 -2.95249e-11 3.21767e-15)
(2764.5 -2.72024e-11 7.41035e-15)
(2764.5 -2.60241e-11 7.19548e-15)
(2764.5 -2.51175e-11 1.11396e-14)
(2764.5 -2.67588e-11 6.65717e-15)
(2764.5 -2.72798e-11 7.5401e-16)
(2764.5 -3.31484e-11 5.32921e-15)
(2764.5 -3.47812e-11 8.14596e-15)
(2764.5 -3.52993e-11 2.6178e-15)
(2764.5 -3.48852e-11 7.64278e-15)
(2764.5 -3.45933e-11 8.30157e-15)
(2764.5 -3.12087e-11 8.39768e-15)
(2764.5 -3.07961e-11 1.06246e-14)
(2764.5 -3.58638e-11 6.50071e-15)
(2764.5 -3.71871e-11 5.0333e-15)
(2764.5 -3.92659e-11 3.84581e-15)
(2764.5 -3.62181e-11 4.77162e-15)
(2764.5 -3.87277e-11 3.44585e-15)
(2764.5 -3.95339e-11 8.1175e-15)
(2764.5 -3.80188e-11 6.35079e-15)
(2764.5 -3.86694e-11 6.25019e-15)
(2764.5 -6.69639e-08 1.17783e-10)
(2764.5 -2.47853e-08 4.15542e-11)
(2764.5 -1.1353e-08 1.88009e-11)
(2764.5 -6.60982e-09 1.11302e-11)
(2764.5 -4.38679e-09 7.38881e-12)
(2764.5 -3.14324e-09 5.3067e-12)
(2764.5 -2.37486e-09 4.00276e-12)
(2764.5 -1.85645e-09 3.09047e-12)
(2764.5 -1.49935e-09 2.4832e-12)
(2764.5 -1.23132e-09 2.02343e-12)
(2764.5 -1.02901e-09 1.60706e-12)
(2764.5 -8.74577e-10 1.42143e-12)
(2764.5 -7.55225e-10 1.19945e-12)
(2764.5 -6.60706e-10 1.04986e-12)
(2764.5 -5.9002e-10 8.88693e-13)
(2764.5 -5.27686e-10 8.24609e-13)
(2764.5 -4.7372e-10 7.06531e-13)
(2764.5 -4.23547e-10 6.34456e-13)
(2764.5 -3.84247e-10 5.87356e-13)
(2764.5 -3.56826e-10 5.25013e-13)
(2764.5 -3.2375e-10 4.88814e-13)
(2764.5 -3.03787e-10 4.11153e-13)
(2764.5 -2.80783e-10 3.92646e-13)
(2764.5 -2.61216e-10 3.51965e-13)
(2764.5 -2.39032e-10 3.46113e-13)
(2764.5 -2.29471e-10 3.31308e-13)
(2764.5 -2.12752e-10 2.95365e-13)
(2764.5 -2.0823e-10 2.67977e-13)
(2764.5 -1.92288e-10 2.64514e-13)
(2764.5 -1.8557e-10 2.48246e-13)
(2764.5 -1.75311e-10 2.13977e-13)
(2764.5 -1.65923e-10 2.14062e-13)
(2764.5 -1.5636e-10 1.74922e-13)
(2764.5 -1.55468e-10 1.6698e-13)
(2764.5 -1.46103e-10 1.72545e-13)
(2764.5 -1.46713e-10 1.71633e-13)
(2764.5 -1.37694e-10 1.53628e-13)
(2764.5 -1.2821e-10 1.49923e-13)
(2764.5 -1.2582e-10 1.36951e-13)
(2764.5 -1.28248e-10 1.29242e-13)
(2764.5 -1.22282e-10 1.11528e-13)
(2764.5 -1.11804e-10 1.19183e-13)
(2764.5 -1.14014e-10 1.26816e-13)
(2764.5 -1.09797e-10 1.11541e-13)
(2764.5 -1.06226e-10 9.04384e-14)
(2764.5 -9.77488e-11 1.0681e-13)
(2764.5 -1.01456e-10 1.0617e-13)
(2764.5 -1.04009e-10 8.44526e-14)
(2764.5 -9.66012e-11 8.80495e-14)
(2764.5 -1.01035e-10 9.40415e-14)
(2764.5 -9.37955e-11 9.6104e-14)
(2764.5 -9.40384e-11 8.06342e-14)
(2764.5 -8.72907e-11 7.99926e-14)
(2764.5 -8.86113e-11 6.50997e-14)
(2764.5 -8.93257e-11 7.00078e-14)
(2764.5 -8.46954e-11 6.58296e-14)
(2764.5 -8.34365e-11 6.76157e-14)
(2764.5 -8.23506e-11 6.6006e-14)
(2764.5 -8.35722e-11 7.20624e-14)
(2764.5 -8.40961e-11 7.05492e-14)
(2764.5 -8.8337e-11 6.17019e-14)
(2764.5 -8.244e-11 4.47087e-14)
(2764.5 -8.23048e-11 6.19905e-14)
(2764.5 -8.23251e-11 5.81705e-14)
(2764.5 -7.71565e-11 5.2287e-14)
(2764.5 -7.73132e-11 5.33256e-14)
(2764.5 -7.8563e-11 4.46054e-14)
(2764.5 -7.65242e-11 5.03464e-14)
(2764.5 -7.6888e-11 5.22824e-14)
(2764.5 -7.56241e-11 4.55181e-14)
(2764.5 -7.66062e-11 4.61661e-14)
(2764.5 -7.32607e-11 5.06023e-14)
(2764.5 -7.97298e-11 4.40477e-14)
(2764.5 -7.84317e-11 4.4388e-14)
(2764.5 -7.07711e-11 4.71746e-14)
(2764.5 -6.89937e-11 4.88595e-14)
(2764.5 -6.82607e-11 4.45326e-14)
(2764.5 -6.98311e-11 4.60896e-14)
(2764.5 -7.46912e-11 2.90921e-14)
(2764.5 -7.14294e-11 2.73426e-14)
(2764.5 -7.00414e-11 3.55385e-14)
(2764.5 -7.19169e-11 3.46432e-14)
(2764.5 -7.64226e-11 3.01951e-14)
(2764.5 -7.21561e-11 3.66496e-14)
(2764.5 -7.33691e-11 4.35994e-14)
(2764.5 -7.05515e-11 4.10708e-14)
(2764.5 -6.87781e-11 3.50914e-14)
(2764.5 -7.2889e-11 3.84096e-14)
(2764.5 -6.9135e-11 3.44065e-14)
(2764.5 -6.91228e-11 2.56172e-14)
(2764.5 -7.10246e-11 3.09932e-14)
(2764.5 -7.47864e-11 2.63813e-14)
(2764.5 -7.3137e-11 3.3728e-14)
(2764.5 -7.01859e-11 3.41992e-14)
(2764.5 -7.24177e-11 4.15647e-14)
(2764.5 -7.35286e-11 3.29434e-14)
(2764.5 -7.32652e-11 2.54336e-14)
(2764.5 -7.02635e-11 2.71727e-14)
(2764.5 -7.22752e-11 2.55787e-14)
(2764.5 -6.76508e-11 2.54363e-14)
(2764.5 -6.85403e-11 2.56326e-14)
(2764.5 -7.1545e-11 2.7421e-14)
(2764.5 -7.48046e-11 2.85857e-14)
(2764.5 -7.66197e-11 1.90465e-14)
(2764.5 -7.24347e-11 2.06342e-14)
(2764.5 -7.16522e-11 1.97619e-14)
(2764.5 -6.97124e-11 2.11525e-14)
(2764.5 -7.37421e-11 2.15776e-14)
(2764.5 -7.76708e-11 1.87213e-14)
(2764.5 -7.37966e-11 2.17263e-14)
(2764.5 -7.50019e-11 2.54061e-14)
(2764.5 -7.76086e-11 2.36343e-14)
(2764.5 -8.04057e-11 2.31938e-14)
(2764.5 -7.72049e-11 2.41367e-14)
(2764.5 -7.67759e-11 2.66545e-14)
(2764.5 -7.54945e-11 2.51916e-14)
(2764.5 -7.6881e-11 2.70335e-14)
(2764.5 -7.74837e-11 2.71134e-14)
(2764.5 -7.73832e-11 2.26118e-14)
(2764.5 -7.51987e-11 1.82765e-14)
(2764.5 -7.73187e-11 2.04493e-14)
(2764.5 -7.86809e-11 2.14214e-14)
(2764.5 -7.99661e-11 2.19587e-14)
(2764.5 -8.20102e-11 2.20041e-14)
(2764.5 -8.40582e-11 2.29013e-14)
(2764.5 -8.46845e-11 2.14439e-14)
(2764.5 -8.33799e-11 2.14051e-14)
(2764.5 -8.34435e-11 2.07921e-14)
(2764.5 -8.38951e-11 2.11501e-14)
(2764.5 -8.62813e-11 2.39879e-14)
(2764.5 -8.8184e-11 2.49373e-14)
(2764.5 -8.94714e-11 1.8696e-14)
(2764.5 -9.25739e-11 1.81738e-14)
(2764.5 -9.29911e-11 1.97803e-14)
(2764.5 -9.38669e-11 1.99711e-14)
(2764.5 -9.67066e-11 1.89756e-14)
(2764.5 -9.32835e-11 2.0378e-14)
(2764.5 -9.16405e-11 1.83852e-14)
(2764.5 -8.99703e-11 1.95898e-14)
(2764.5 -8.73761e-11 2.07458e-14)
(2764.5 -8.41238e-11 1.46963e-14)
(2764.5 -8.4869e-11 2.05591e-14)
(2764.5 -8.86164e-11 1.89199e-14)
(2764.5 -9.37843e-11 2.27427e-14)
(2764.5 -9.16123e-11 1.87449e-14)
(2764.5 -1.0133e-10 2.07136e-14)
(2764.5 -1.02441e-10 2.23177e-14)
(2764.5 -9.86232e-11 2.02496e-14)
(2764.5 -9.93466e-11 2.87029e-14)
(2764.5 -9.6428e-11 1.79954e-14)
(2764.5 -1.05372e-10 1.81599e-14)
(2764.5 -1.0835e-10 8.81295e-15)
(2764.5 -1.07946e-10 1.65772e-14)
(2764.5 -1.14222e-10 1.71519e-14)
(2764.5 -1.12388e-10 2.19115e-14)
(2764.5 -1.12794e-10 1.74328e-14)
(2764.5 -1.06286e-07 1.81996e-10)
(2764.5 -4.53389e-08 7.33236e-11)
(2764.5 -2.12493e-08 3.34593e-11)
(2764.5 -1.20345e-08 1.91793e-11)
(2764.5 -7.83639e-09 1.25324e-11)
(2764.5 -5.56396e-09 8.87071e-12)
(2764.5 -4.18517e-09 6.68946e-12)
(2764.5 -3.269e-09 5.14828e-12)
(2764.5 -2.62682e-09 4.14221e-12)
(2764.5 -2.15465e-09 3.34962e-12)
(2764.5 -1.79962e-09 2.77722e-12)
(2764.5 -1.53525e-09 2.39984e-12)
(2764.5 -1.32363e-09 2.02719e-12)
(2764.5 -1.15282e-09 1.74528e-12)
(2764.5 -1.02619e-09 1.54478e-12)
(2764.5 -9.17081e-10 1.36022e-12)
(2764.5 -8.19343e-10 1.17259e-12)
(2764.5 -7.41091e-10 1.06953e-12)
(2764.5 -6.74347e-10 9.58366e-13)
(2764.5 -6.20609e-10 8.97239e-13)
(2764.5 -5.67466e-10 7.97593e-13)
(2764.5 -5.254e-10 6.95422e-13)
(2764.5 -4.87612e-10 6.73611e-13)
(2764.5 -4.54559e-10 6.03859e-13)
(2764.5 -4.19301e-10 5.94548e-13)
(2764.5 -3.95717e-10 5.47117e-13)
(2764.5 -3.7408e-10 5.24144e-13)
(2764.5 -3.54996e-10 4.67824e-13)
(2764.5 -3.32382e-10 4.21348e-13)
(2764.5 -3.15408e-10 4.07569e-13)
(2764.5 -3.01281e-10 3.60919e-13)
(2764.5 -2.87279e-10 3.68511e-13)
(2764.5 -2.74579e-10 3.16113e-13)
(2764.5 -2.66771e-10 3.14742e-13)
(2764.5 -2.53864e-10 3.09781e-13)
(2764.5 -2.47047e-10 2.75607e-13)
(2764.5 -2.3578e-10 2.54841e-13)
(2764.5 -2.21893e-10 2.62166e-13)
(2764.5 -2.14505e-10 2.57016e-13)
(2764.5 -2.17001e-10 2.25561e-13)
(2764.5 -2.11487e-10 2.14903e-13)
(2764.5 -1.97517e-10 2.08817e-13)
(2764.5 -1.93323e-10 2.0966e-13)
(2764.5 -1.92868e-10 1.94189e-13)
(2764.5 -1.869e-10 1.67036e-13)
(2764.5 -1.69953e-10 1.76533e-13)
(2764.5 -1.71014e-10 1.73531e-13)
(2764.5 -1.74917e-10 1.69556e-13)
(2764.5 -1.66286e-10 1.60621e-13)
(2764.5 -1.69815e-10 1.74686e-13)
(2764.5 -1.61027e-10 1.54303e-13)
(2764.5 -1.59487e-10 1.40516e-13)
(2764.5 -1.51647e-10 1.33105e-13)
(2764.5 -1.51292e-10 1.294e-13)
(2764.5 -1.5071e-10 1.22038e-13)
(2764.5 -1.47748e-10 1.21513e-13)
(2764.5 -1.42836e-10 1.14604e-13)
(2764.5 -1.36146e-10 1.08461e-13)
(2764.5 -1.41929e-10 1.19035e-13)
(2764.5 -1.40705e-10 1.12886e-13)
(2764.5 -1.42105e-10 1.05979e-13)
(2764.5 -1.43593e-10 1.07719e-13)
(2764.5 -1.38716e-10 1.02893e-13)
(2764.5 -1.3622e-10 8.49208e-14)
(2764.5 -1.30045e-10 9.39574e-14)
(2764.5 -1.3045e-10 8.99439e-14)
(2764.5 -1.30191e-10 7.81513e-14)
(2764.5 -1.27788e-10 9.03763e-14)
(2764.5 -1.27834e-10 8.15917e-14)
(2764.5 -1.27286e-10 7.74555e-14)
(2764.5 -1.28378e-10 7.96703e-14)
(2764.5 -1.25294e-10 8.05537e-14)
(2764.5 -1.30596e-10 7.28529e-14)
(2764.5 -1.31311e-10 7.39847e-14)
(2764.5 -1.2635e-10 7.87205e-14)
(2764.5 -1.22689e-10 7.93537e-14)
(2764.5 -1.18242e-10 6.77765e-14)
(2764.5 -1.18459e-10 6.89557e-14)
(2764.5 -1.19258e-10 6.87113e-14)
(2764.5 -1.19034e-10 6.60671e-14)
(2764.5 -1.17482e-10 6.32874e-14)
(2764.5 -1.15175e-10 5.82176e-14)
(2764.5 -1.21766e-10 5.44763e-14)
(2764.5 -1.19917e-10 5.44398e-14)
(2764.5 -1.2179e-10 5.63351e-14)
(2764.5 -1.20022e-10 5.53557e-14)
(2764.5 -1.21604e-10 5.89623e-14)
(2764.5 -1.22618e-10 6.42368e-14)
(2764.5 -1.17779e-10 5.93197e-14)
(2764.5 -1.1406e-10 5.79193e-14)
(2764.5 -1.16137e-10 5.22637e-14)
(2764.5 -1.21685e-10 4.88508e-14)
(2764.5 -1.20206e-10 5.66982e-14)
(2764.5 -1.18337e-10 6.42427e-14)
(2764.5 -1.19789e-10 6.54088e-14)
(2764.5 -1.22048e-10 4.50832e-14)
(2764.5 -1.23063e-10 3.91701e-14)
(2764.5 -1.1956e-10 4.33329e-14)
(2764.5 -1.19168e-10 4.64332e-14)
(2764.5 -1.16424e-10 4.75135e-14)
(2764.5 -1.15394e-10 4.12844e-14)
(2764.5 -1.16521e-10 4.55015e-14)
(2764.5 -1.18421e-10 4.82625e-14)
(2764.5 -1.22723e-10 4.20875e-14)
(2764.5 -1.22532e-10 4.7536e-14)
(2764.5 -1.19993e-10 4.33711e-14)
(2764.5 -1.19766e-10 3.87897e-14)
(2764.5 -1.17924e-10 3.59888e-14)
(2764.5 -1.23356e-10 3.73143e-14)
(2764.5 -1.25898e-10 4.31146e-14)
(2764.5 -1.27049e-10 3.73735e-14)
(2764.5 -1.26419e-10 3.59726e-14)
(2764.5 -1.30144e-10 3.60005e-14)
(2764.5 -1.28686e-10 3.96081e-14)
(2764.5 -1.31261e-10 3.83902e-14)
(2764.5 -1.28822e-10 4.41958e-14)
(2764.5 -1.29916e-10 4.57848e-14)
(2764.5 -1.27646e-10 4.75309e-14)
(2764.5 -1.27819e-10 3.99475e-14)
(2764.5 -1.26453e-10 3.75766e-14)
(2764.5 -1.26943e-10 3.79749e-14)
(2764.5 -1.29787e-10 3.68983e-14)
(2764.5 -1.30832e-10 3.45008e-14)
(2764.5 -1.33093e-10 3.11016e-14)
(2764.5 -1.35864e-10 3.27395e-14)
(2764.5 -1.36744e-10 3.47837e-14)
(2764.5 -1.36917e-10 3.3967e-14)
(2764.5 -1.39198e-10 3.48919e-14)
(2764.5 -1.3937e-10 3.97145e-14)
(2764.5 -1.40069e-10 3.79588e-14)
(2764.5 -1.41595e-10 3.3979e-14)
(2764.5 -1.411e-10 3.71903e-14)
(2764.5 -1.47173e-10 3.92942e-14)
(2764.5 -1.48578e-10 3.368e-14)
(2764.5 -1.53067e-10 3.49426e-14)
(2764.5 -1.5661e-10 2.8879e-14)
(2764.5 -1.56331e-10 2.45325e-14)
(2764.5 -1.58813e-10 3.19639e-14)
(2764.5 -1.60202e-10 3.84709e-14)
(2764.5 -1.5767e-10 3.297e-14)
(2764.5 -1.49121e-10 3.04979e-14)
(2764.5 -1.47295e-10 2.66063e-14)
(2764.5 -1.4866e-10 2.93526e-14)
(2764.5 -1.5246e-10 2.94706e-14)
(2764.5 -1.51863e-10 3.39976e-14)
(2764.5 -1.57468e-10 2.74692e-14)
(2764.5 -1.59162e-10 3.25616e-14)
(2764.5 -1.6283e-10 3.12044e-14)
(2764.5 -1.63302e-10 3.60401e-14)
(2764.5 -1.62409e-10 3.23233e-14)
(2764.5 -1.60034e-10 3.29773e-14)
(2764.5 -1.657e-10 2.91428e-14)
(2764.5 -1.69539e-10 3.43527e-14)
(2764.5 -1.77555e-10 2.36976e-14)
(2764.5 -1.7948e-10 3.68017e-14)
(2764.5 -1.81795e-10 3.12181e-14)
(2764.5 -1.37747e-07 2.33363e-10)
(2764.5 -6.64044e-08 1.05187e-10)
(2764.5 -3.25605e-08 4.94751e-11)
(2764.5 -1.83114e-08 2.76795e-11)
(2764.5 -1.1743e-08 1.78112e-11)
(2764.5 -8.24912e-09 1.25279e-11)
(2764.5 -6.16843e-09 9.40945e-12)
(2764.5 -4.81675e-09 7.28575e-12)
(2764.5 -3.8593e-09 5.8289e-12)
(2764.5 -3.15767e-09 4.77739e-12)
(2764.5 -2.63602e-09 3.89253e-12)
(2764.5 -2.24404e-09 3.36684e-12)
(2764.5 -1.93402e-09 2.8743e-12)
(2764.5 -1.68693e-09 2.49972e-12)
(2764.5 -1.49037e-09 2.25921e-12)
(2764.5 -1.33082e-09 1.92457e-12)
(2764.5 -1.19619e-09 1.67826e-12)
(2764.5 -1.08304e-09 1.49111e-12)
(2764.5 -9.84358e-10 1.3293e-12)
(2764.5 -9.02564e-10 1.26222e-12)
(2764.5 -8.24087e-10 1.11353e-12)
(2764.5 -7.62086e-10 1.02793e-12)
(2764.5 -7.05857e-10 9.53653e-13)
(2764.5 -6.58906e-10 8.76887e-13)
(2764.5 -6.13838e-10 8.10759e-13)
(2764.5 -5.7281e-10 7.4994e-13)
(2764.5 -5.42059e-10 7.00194e-13)
(2764.5 -5.17402e-10 6.38864e-13)
(2764.5 -4.81775e-10 6.14724e-13)
(2764.5 -4.57001e-10 5.68282e-13)
(2764.5 -4.33865e-10 5.40904e-13)
(2764.5 -4.16228e-10 5.13967e-13)
(2764.5 -3.99683e-10 4.93914e-13)
(2764.5 -3.81393e-10 4.58517e-13)
(2764.5 -3.66396e-10 4.35598e-13)
(2764.5 -3.56162e-10 3.96089e-13)
(2764.5 -3.43214e-10 3.80321e-13)
(2764.5 -3.20382e-10 3.46819e-13)
(2764.5 -3.12131e-10 3.56506e-13)
(2764.5 -3.05586e-10 3.19537e-13)
(2764.5 -2.94953e-10 3.08351e-13)
(2764.5 -2.91299e-10 2.85994e-13)
(2764.5 -2.80065e-10 2.82927e-13)
(2764.5 -2.74069e-10 2.63684e-13)
(2764.5 -2.62521e-10 2.65684e-13)
(2764.5 -2.50596e-10 2.43556e-13)
(2764.5 -2.46424e-10 2.4761e-13)
(2764.5 -2.45249e-10 2.36122e-13)
(2764.5 -2.37124e-10 2.38289e-13)
(2764.5 -2.38521e-10 2.31637e-13)
(2764.5 -2.32806e-10 2.07642e-13)
(2764.5 -2.28279e-10 2.03981e-13)
(2764.5 -2.19635e-10 1.93053e-13)
(2764.5 -2.17347e-10 1.87638e-13)
(2764.5 -2.13728e-10 1.68361e-13)
(2764.5 -2.09672e-10 1.73126e-13)
(2764.5 -2.03512e-10 1.66604e-13)
(2764.5 -1.95401e-10 1.61327e-13)
(2764.5 -1.96053e-10 1.69451e-13)
(2764.5 -1.9642e-10 1.64819e-13)
(2764.5 -2.01251e-10 1.5294e-13)
(2764.5 -2.02809e-10 1.38895e-13)
(2764.5 -1.96675e-10 1.35032e-13)
(2764.5 -1.92387e-10 1.33106e-13)
(2764.5 -1.88127e-10 1.47185e-13)
(2764.5 -1.86211e-10 1.33973e-13)
(2764.5 -1.82357e-10 1.2323e-13)
(2764.5 -1.84093e-10 1.30008e-13)
(2764.5 -1.8138e-10 1.115e-13)
(2764.5 -1.787e-10 1.10701e-13)
(2764.5 -1.77134e-10 1.10898e-13)
(2764.5 -1.76492e-10 1.16006e-13)
(2764.5 -1.78068e-10 1.11503e-13)
(2764.5 -1.8345e-10 1.13496e-13)
(2764.5 -1.82098e-10 1.07473e-13)
(2764.5 -1.78626e-10 1.0439e-13)
(2764.5 -1.73161e-10 1.06825e-13)
(2764.5 -1.7247e-10 1.09781e-13)
(2764.5 -1.69784e-10 1.0222e-13)
(2764.5 -1.68669e-10 9.21546e-14)
(2764.5 -1.67677e-10 8.26162e-14)
(2764.5 -1.66336e-10 9.28295e-14)
(2764.5 -1.67218e-10 8.714e-14)
(2764.5 -1.66328e-10 8.64042e-14)
(2764.5 -1.66001e-10 8.35848e-14)
(2764.5 -1.64821e-10 8.8132e-14)
(2764.5 -1.65227e-10 8.50165e-14)
(2764.5 -1.68526e-10 8.15488e-14)
(2764.5 -1.7201e-10 7.74248e-14)
(2764.5 -1.67348e-10 8.08583e-14)
(2764.5 -1.65312e-10 7.85221e-14)
(2764.5 -1.6783e-10 7.82938e-14)
(2764.5 -1.70097e-10 8.11408e-14)
(2764.5 -1.65722e-10 8.77258e-14)
(2764.5 -1.65743e-10 7.49975e-14)
(2764.5 -1.68668e-10 7.13597e-14)
(2764.5 -1.70406e-10 7.43658e-14)
(2764.5 -1.67322e-10 6.66904e-14)
(2764.5 -1.65945e-10 6.63429e-14)
(2764.5 -1.62866e-10 6.44931e-14)
(2764.5 -1.61647e-10 5.90238e-14)
(2764.5 -1.62631e-10 6.38679e-14)
(2764.5 -1.64309e-10 6.70051e-14)
(2764.5 -1.64019e-10 6.58504e-14)
(2764.5 -1.69288e-10 6.54994e-14)
(2764.5 -1.70028e-10 6.30011e-14)
(2764.5 -1.68098e-10 6.02008e-14)
(2764.5 -1.66482e-10 5.87977e-14)
(2764.5 -1.66503e-10 5.59787e-14)
(2764.5 -1.69652e-10 5.08892e-14)
(2764.5 -1.76489e-10 5.14183e-14)
(2764.5 -1.78093e-10 5.01608e-14)
(2764.5 -1.79511e-10 5.60784e-14)
(2764.5 -1.77097e-10 5.72086e-14)
(2764.5 -1.79301e-10 6.10275e-14)
(2764.5 -1.77764e-10 5.97123e-14)
(2764.5 -1.78793e-10 6.03384e-14)
(2764.5 -1.7587e-10 5.71207e-14)
(2764.5 -1.73817e-10 5.14013e-14)
(2764.5 -1.74685e-10 5.37318e-14)
(2764.5 -1.72969e-10 5.38748e-14)
(2764.5 -1.7564e-10 5.24125e-14)
(2764.5 -1.78962e-10 4.80728e-14)
(2764.5 -1.81187e-10 5.07029e-14)
(2764.5 -1.85641e-10 5.50546e-14)
(2764.5 -1.88048e-10 5.26382e-14)
(2764.5 -1.87271e-10 5.58433e-14)
(2764.5 -1.9023e-10 5.67799e-14)
(2764.5 -1.92754e-10 5.06217e-14)
(2764.5 -1.93904e-10 4.90281e-14)
(2764.5 -1.94437e-10 4.99722e-14)
(2764.5 -1.95107e-10 5.16839e-14)
(2764.5 -1.98554e-10 4.8102e-14)
(2764.5 -2.02652e-10 4.76022e-14)
(2764.5 -2.06389e-10 4.9139e-14)
(2764.5 -2.11926e-10 4.92115e-14)
(2764.5 -2.13928e-10 5.16082e-14)
(2764.5 -2.16751e-10 5.01169e-14)
(2764.5 -2.19652e-10 5.05284e-14)
(2764.5 -2.24732e-10 4.31376e-14)
(2764.5 -2.20746e-10 4.94277e-14)
(2764.5 -2.16791e-10 4.90762e-14)
(2764.5 -2.08972e-10 4.2808e-14)
(2764.5 -2.09437e-10 4.11775e-14)
(2764.5 -2.07878e-10 4.50441e-14)
(2764.5 -2.16558e-10 4.73121e-14)
(2764.5 -2.16099e-10 4.95198e-14)
(2764.5 -2.18623e-10 4.69193e-14)
(2764.5 -2.23894e-10 4.65835e-14)
(2764.5 -2.28404e-10 4.46085e-14)
(2764.5 -2.27788e-10 4.63369e-14)
(2764.5 -2.29564e-10 4.64568e-14)
(2764.5 -2.32277e-10 5.07899e-14)
(2764.5 -2.3642e-10 4.15587e-14)
(2764.5 -2.39965e-10 4.5746e-14)
(2764.5 -2.44576e-10 3.95665e-14)
(2764.5 -1.62712e-07 2.73959e-10)
(2764.5 -8.68559e-08 1.36001e-10)
(2764.5 -4.48834e-08 6.63609e-11)
(2764.5 -2.54168e-08 3.6778e-11)
(2764.5 -1.6148e-08 2.34777e-11)
(2764.5 -1.12335e-08 1.64469e-11)
(2764.5 -8.33938e-09 1.21852e-11)
(2764.5 -6.48793e-09 9.47644e-12)
(2764.5 -5.1941e-09 7.60612e-12)
(2764.5 -4.24474e-09 6.2503e-12)
(2764.5 -3.53889e-09 5.14286e-12)
(2764.5 -3.00609e-09 4.35275e-12)
(2764.5 -2.59016e-09 3.70229e-12)
(2764.5 -2.25581e-09 3.23002e-12)
(2764.5 -1.98992e-09 2.86838e-12)
(2764.5 -1.77778e-09 2.50881e-12)
(2764.5 -1.59854e-09 2.1848e-12)
(2764.5 -1.44659e-09 1.98814e-12)
(2764.5 -1.31446e-09 1.80219e-12)
(2764.5 -1.20498e-09 1.62588e-12)
(2764.5 -1.09808e-09 1.48513e-12)
(2764.5 -1.01182e-09 1.3588e-12)
(2764.5 -9.40182e-10 1.22536e-12)
(2764.5 -8.76186e-10 1.1495e-12)
(2764.5 -8.18466e-10 1.0369e-12)
(2764.5 -7.64408e-10 9.96203e-13)
(2764.5 -7.16426e-10 9.11951e-13)
(2764.5 -6.85325e-10 8.6577e-13)
(2764.5 -6.43409e-10 8.27966e-13)
(2764.5 -6.06903e-10 7.62219e-13)
(2764.5 -5.7546e-10 6.96074e-13)
(2764.5 -5.49399e-10 6.72451e-13)
(2764.5 -5.2642e-10 6.14824e-13)
(2764.5 -5.04513e-10 5.70776e-13)
(2764.5 -4.82848e-10 5.55229e-13)
(2764.5 -4.71532e-10 5.32442e-13)
(2764.5 -4.56599e-10 4.95756e-13)
(2764.5 -4.32757e-10 4.69097e-13)
(2764.5 -4.13389e-10 4.34177e-13)
(2764.5 -4.02497e-10 4.0992e-13)
(2764.5 -3.89194e-10 4.12181e-13)
(2764.5 -3.7977e-10 3.93477e-13)
(2764.5 -3.71906e-10 3.75262e-13)
(2764.5 -3.61192e-10 3.65079e-13)
(2764.5 -3.42607e-10 3.48674e-13)
(2764.5 -3.29272e-10 3.31527e-13)
(2764.5 -3.23856e-10 3.12022e-13)
(2764.5 -3.20512e-10 3.05336e-13)
(2764.5 -3.13441e-10 2.94176e-13)
(2764.5 -3.12221e-10 2.6892e-13)
(2764.5 -3.07791e-10 2.77728e-13)
(2764.5 -2.98547e-10 2.657e-13)
(2764.5 -2.93825e-10 2.55262e-13)
(2764.5 -2.83608e-10 2.42657e-13)
(2764.5 -2.76642e-10 2.39555e-13)
(2764.5 -2.75868e-10 2.33761e-13)
(2764.5 -2.6624e-10 2.14614e-13)
(2764.5 -2.58591e-10 2.07262e-13)
(2764.5 -2.60321e-10 2.15407e-13)
(2764.5 -2.54736e-10 1.97698e-13)
(2764.5 -2.59022e-10 1.87266e-13)
(2764.5 -2.66946e-10 1.79757e-13)
(2764.5 -2.59026e-10 1.83504e-13)
(2764.5 -2.49986e-10 1.92784e-13)
(2764.5 -2.41492e-10 1.73565e-13)
(2764.5 -2.40197e-10 1.773e-13)
(2764.5 -2.36605e-10 1.70774e-13)
(2764.5 -2.38494e-10 1.57186e-13)
(2764.5 -2.36794e-10 1.64267e-13)
(2764.5 -2.32752e-10 1.61491e-13)
(2764.5 -2.29433e-10 1.50372e-13)
(2764.5 -2.28784e-10 1.51342e-13)
(2764.5 -2.25854e-10 1.42817e-13)
(2764.5 -2.32136e-10 1.41443e-13)
(2764.5 -2.33177e-10 1.43755e-13)
(2764.5 -2.29523e-10 1.40251e-13)
(2764.5 -2.22632e-10 1.39676e-13)
(2764.5 -2.22831e-10 1.313e-13)
(2764.5 -2.22575e-10 1.19445e-13)
(2764.5 -2.19581e-10 1.20039e-13)
(2764.5 -2.16107e-10 1.28451e-13)
(2764.5 -2.18056e-10 1.20528e-13)
(2764.5 -2.16964e-10 1.13286e-13)
(2764.5 -2.1776e-10 1.14257e-13)
(2764.5 -2.18009e-10 1.12459e-13)
(2764.5 -2.14633e-10 1.08392e-13)
(2764.5 -2.12427e-10 1.01426e-13)
(2764.5 -2.10962e-10 1.08898e-13)
(2764.5 -2.1477e-10 1.14233e-13)
(2764.5 -2.17228e-10 1.13409e-13)
(2764.5 -2.13967e-10 1.0386e-13)
(2764.5 -2.14903e-10 1.0151e-13)
(2764.5 -2.17566e-10 1.00258e-13)
(2764.5 -2.16445e-10 9.8074e-14)
(2764.5 -2.12843e-10 9.64887e-14)
(2764.5 -2.1611e-10 9.83533e-14)
(2764.5 -2.17739e-10 8.99671e-14)
(2764.5 -2.18524e-10 8.8072e-14)
(2764.5 -2.15701e-10 9.04065e-14)
(2764.5 -2.13155e-10 8.39754e-14)
(2764.5 -2.1089e-10 7.92199e-14)
(2764.5 -2.10544e-10 8.33987e-14)
(2764.5 -2.13276e-10 8.62141e-14)
(2764.5 -2.11699e-10 7.89394e-14)
(2764.5 -2.13059e-10 7.86023e-14)
(2764.5 -2.14465e-10 8.27532e-14)
(2764.5 -2.13681e-10 7.95365e-14)
(2764.5 -2.13752e-10 7.90811e-14)
(2764.5 -2.13619e-10 7.42755e-14)
(2764.5 -2.14744e-10 7.52726e-14)
(2764.5 -2.19331e-10 7.6296e-14)
(2764.5 -2.24082e-10 7.33843e-14)
(2764.5 -2.29925e-10 7.6828e-14)
(2764.5 -2.32536e-10 6.48986e-14)
(2764.5 -2.34286e-10 6.48431e-14)
(2764.5 -2.33181e-10 6.87439e-14)
(2764.5 -2.34822e-10 7.36365e-14)
(2764.5 -2.34404e-10 7.03521e-14)
(2764.5 -2.28962e-10 7.34533e-14)
(2764.5 -2.27621e-10 7.53576e-14)
(2764.5 -2.26115e-10 6.99186e-14)
(2764.5 -2.24134e-10 6.61569e-14)
(2764.5 -2.25168e-10 6.89459e-14)
(2764.5 -2.27178e-10 7.17285e-14)
(2764.5 -2.30799e-10 6.56667e-14)
(2764.5 -2.35664e-10 6.9736e-14)
(2764.5 -2.37795e-10 7.09229e-14)
(2764.5 -2.40182e-10 6.28722e-14)
(2764.5 -2.43544e-10 6.15292e-14)
(2764.5 -2.45392e-10 6.10963e-14)
(2764.5 -2.46143e-10 6.22204e-14)
(2764.5 -2.47287e-10 6.61066e-14)
(2764.5 -2.50149e-10 6.47202e-14)
(2764.5 -2.53494e-10 6.74253e-14)
(2764.5 -2.56512e-10 6.73494e-14)
(2764.5 -2.60764e-10 6.63719e-14)
(2764.5 -2.65315e-10 6.40555e-14)
(2764.5 -2.67591e-10 6.148e-14)
(2764.5 -2.69251e-10 6.37334e-14)
(2764.5 -2.77447e-10 5.52512e-14)
(2764.5 -2.81031e-10 6.3226e-14)
(2764.5 -2.80415e-10 6.10816e-14)
(2764.5 -2.7682e-10 6.07965e-14)
(2764.5 -2.73129e-10 5.66258e-14)
(2764.5 -2.73774e-10 6.32123e-14)
(2764.5 -2.80739e-10 6.29526e-14)
(2764.5 -2.83752e-10 5.86777e-14)
(2764.5 -2.84832e-10 5.45013e-14)
(2764.5 -2.83017e-10 5.52521e-14)
(2764.5 -2.83564e-10 5.73668e-14)
(2764.5 -2.85468e-10 5.28587e-14)
(2764.5 -2.92232e-10 6.40143e-14)
(2764.5 -2.93749e-10 5.70743e-14)
(2764.5 -2.991e-10 5.35025e-14)
(2764.5 -3.02923e-10 6.15384e-14)
(2764.5 -3.06061e-10 5.94621e-14)
(2764.5 -1.82797e-07 3.07177e-10)
(2764.5 -1.06085e-07 1.64667e-10)
(2764.5 -5.78164e-08 8.34878e-11)
(2764.5 -3.32735e-08 4.65162e-11)
(2764.5 -2.10608e-08 2.94592e-11)
(2764.5 -1.45281e-08 2.04559e-11)
(2764.5 -1.07102e-08 1.52534e-11)
(2764.5 -8.29472e-09 1.17249e-11)
(2764.5 -6.63068e-09 9.34118e-12)
(2764.5 -5.41415e-09 7.66096e-12)
(2764.5 -4.5088e-09 6.36106e-12)
(2764.5 -3.82426e-09 5.35486e-12)
(2764.5 -3.28948e-09 4.59282e-12)
(2764.5 -2.86285e-09 4.01791e-12)
(2764.5 -2.52226e-09 3.47706e-12)
(2764.5 -2.25602e-09 3.06038e-12)
(2764.5 -2.03042e-09 2.73695e-12)
(2764.5 -1.82837e-09 2.43215e-12)
(2764.5 -1.66298e-09 2.21016e-12)
(2764.5 -1.52292e-09 1.97612e-12)
(2764.5 -1.39479e-09 1.82134e-12)
(2764.5 -1.28256e-09 1.66235e-12)
(2764.5 -1.188e-09 1.51318e-12)
(2764.5 -1.10388e-09 1.36407e-12)
(2764.5 -1.0298e-09 1.29022e-12)
(2764.5 -9.6642e-10 1.21743e-12)
(2764.5 -9.04491e-10 1.12349e-12)
(2764.5 -8.5827e-10 1.06418e-12)
(2764.5 -8.13189e-10 9.76928e-13)
(2764.5 -7.69158e-10 8.92685e-13)
(2764.5 -7.26127e-10 8.59741e-13)
(2764.5 -6.90217e-10 8.05614e-13)
(2764.5 -6.59481e-10 7.51923e-13)
(2764.5 -6.29244e-10 7.21335e-13)
(2764.5 -6.04407e-10 6.77925e-13)
(2764.5 -5.90973e-10 6.15576e-13)
(2764.5 -5.7356e-10 6.22308e-13)
(2764.5 -5.46298e-10 5.79608e-13)
(2764.5 -5.21532e-10 5.49982e-13)
(2764.5 -5.04418e-10 5.29076e-13)
(2764.5 -4.89674e-10 4.90439e-13)
(2764.5 -4.75017e-10 4.70491e-13)
(2764.5 -4.6409e-10 4.53715e-13)
(2764.5 -4.48357e-10 4.43052e-13)
(2764.5 -4.33318e-10 4.19347e-13)
(2764.5 -4.13637e-10 4.2077e-13)
(2764.5 -4.02742e-10 3.82521e-13)
(2764.5 -3.96932e-10 3.73189e-13)
(2764.5 -3.87755e-10 3.6691e-13)
(2764.5 -3.87139e-10 3.42848e-13)
(2764.5 -3.8153e-10 3.32453e-13)
(2764.5 -3.72515e-10 3.20218e-13)
(2764.5 -3.64755e-10 3.07781e-13)
(2764.5 -3.56669e-10 3.02279e-13)
(2764.5 -3.47388e-10 2.85307e-13)
(2764.5 -3.40784e-10 2.74931e-13)
(2764.5 -3.31029e-10 2.65713e-13)
(2764.5 -3.22489e-10 2.66345e-13)
(2764.5 -3.25359e-10 2.53187e-13)
(2764.5 -3.21972e-10 2.41078e-13)
(2764.5 -3.20433e-10 2.41238e-13)
(2764.5 -3.23253e-10 2.30712e-13)
(2764.5 -3.20905e-10 2.26781e-13)
(2764.5 -3.14089e-10 2.17403e-13)
(2764.5 -3.03654e-10 2.1196e-13)
(2764.5 -2.95623e-10 2.16737e-13)
(2764.5 -2.90216e-10 2.01836e-13)
(2764.5 -2.9276e-10 1.88197e-13)
(2764.5 -2.94957e-10 1.98165e-13)
(2764.5 -2.88892e-10 1.90605e-13)
(2764.5 -2.83578e-10 1.77845e-13)
(2764.5 -2.85287e-10 1.75368e-13)
(2764.5 -2.82279e-10 1.75466e-13)
(2764.5 -2.85824e-10 1.66094e-13)
(2764.5 -2.84857e-10 1.73117e-13)
(2764.5 -2.79281e-10 1.6754e-13)
(2764.5 -2.75552e-10 1.62193e-13)
(2764.5 -2.73069e-10 1.55777e-13)
(2764.5 -2.69512e-10 1.66848e-13)
(2764.5 -2.72482e-10 1.60284e-13)
(2764.5 -2.68749e-10 1.56863e-13)
(2764.5 -2.68296e-10 1.41609e-13)