/*--------------------------------*- C++ -*----------------------------------*\
| =========                 |                                                 |
| \\      /  F ield         | OpenFOAM: The Open Source CFD Toolbox           |
|  \\    /   O peration     | Version:  v1706                                 |
|   \\  /    A nd           | Web:      www.OpenFOAM.com                      |
|    \\/     M anipulation  |                                                 |
\*---------------------------------------------------------------------------*/
FoamFile
{
    version     2.0;
    format      ascii;
    class       volScalarField;
    location    "1.5e-05";
    object      kappatr;
}
// * * * * * * * * * * * * * * * * * * * * * * * * * * * * * * * * * * * * * //

dimensions      [1 1 -3 -1 0 0 0];


internalField   nonuniform List<scalar> 
30038
(
0.014593
0.014593
0.014593
0.014593
0.014593
0.014593
0.014593
0.014593
0.014593
0.014593
0.014593
0.014593
0.014593
0.014593
0.014593
0.014593
0.014593
0.014593
0.014593
0.014593
0.014593
0.014593
0.014593
0.014593
0.014593
0.014593
0.014593
0.014593
0.014593
0.014593
0.014593
0.014593
0.014593
0.014593
0.014593
0.014593
0.014593
0.014593
0.014593
0.014593
0.014593
0.014593
0.014593
0.014593
0.014593
0.014593
0.014593
0.014593
0.014593
0.014593
0.014593
0.014593
0.014593
0.014593
0.014593
0.014593
0.014593
0.014593
0.014593
0.014593
0.014593
0.014593
0.014593
0.014593
0.014593
0.014593
0.014593
0.014593
0.014593
0.014593
0.014593
0.014593
0.014593
0.014593
0.014593
0.014593
0.014593
0.014593
0.014593
0.014593
0.014593
0.014593
0.014593
0.014593
0.014593
0.014593
0.014593
0.014593
0.014593
0.014593
0.014593
0.014593
0.014593
0.014593
0.014593
0.014593
0.014593
0.014593
0.014593
0.014593
0.014593
0.014593
0.014593
0.014593
0.014593
0.014593
0.014593
0.014593
0.014593
0.014593
0.014593
0.014593
0.014593
0.014593
0.014593
0.014593
0.014593
0.014593
0.014593
0.014593
0.014593
0.014593
0.014593
0.014593
0.014593
0.014593
0.014593
0.014593
0.014593
0.014593
0.014593
0.014593
0.014593
0.014593
0.014593
0.014593
0.014593
0.014593
0.014593
0.014593
0.014593
0.014593
0.014593
0.014593
0.014593
0.014593
0.014593
0.014593
0.014593
0.014593
0.014593
0.014593
0.014593
0.014593
0.014593
0.014593
0.014593
0.014593
0.014593
0.014593
0.014593
0.014593
0.014593
0.014593
0.014593
0.014593
0.014593
0.014593
0.014593
0.014593
0.014593
0.014593
0.014593
0.014593
0.014593
0.014593
0.014593
0.014593
0.014593
0.014593
0.014593
0.014593
0.014593
0.014593
0.014593
0.014593
0.014593
0.014593
0.014593
0.014593
0.014593
0.014593
0.014593
0.014593
0.014593
0.014593
0.014593
0.014593
0.014593
0.014593
0.014593
0.014593
0.014593
0.014593
0.014593
0.014593
0.014593
0.014593
0.014593
0.014593
0.014593
0.014593
0.014593
0.014593
0.014593
0.014593
0.014593
0.014593
0.014593
0.014593
0.014593
0.014593
0.014593
0.014593
0.014593
0.014593
0.014593
0.014593
0.014593
0.014593
0.014593
0.014593
0.014593
0.014593
0.014593
0.014593
0.014593
0.014593
0.014593
0.014593
0.014593
0.014593
0.014593
0.014593
0.014593
0.014593
0.014593
0.014593
0.014593
0.014593
0.014593
0.014593
0.014593
0.014593
0.014593
0.014593
0.014593
0.014593
0.014593
0.014593
0.014593
0.014593
0.014593
0.014593
0.014593
0.014593
0.014593
0.014593
0.014593
0.014593
0.014593
0.014593
0.014593
0.014593
0.014593
0.014593
0.014593
0.014593
0.014593
0.014593
0.014593
0.014593
0.014593
0.014593
0.014593
0.014593
0.014593
0.014593
0.014593
0.014593
0.014593
0.014593
0.014593
0.014593
0.014593
0.014593
0.014593
0.014593
0.014593
0.014593
0.014593
0.014593
0.014593
0.014593
0.014593
0.014593
0.014593
0.014593
0.014593
0.014593
0.014593
0.014593
0.014593
0.014593
0.014593
0.014593
0.014593
0.014593
0.014593
0.014593
0.014593
0.014593
0.014593
0.014593
0.014593
0.014593
0.014593
0.014593
0.014593
0.014593
0.014593
0.014593
0.014593
0.014593
0.014593
0.014593
0.014593
0.014593
0.014593
0.014593
0.014593
0.014593
0.014593
0.014593
0.014593
0.014593
0.014593
0.014593
0.014593
0.014593
0.014593
0.014593
0.014593
0.014593
0.014593
0.014593
0.014593
0.014593
0.014593
0.014593
0.014593
0.014593
0.014593
0.014593
0.014593
0.014593
0.014593
0.014593
0.014593
0.014593
0.014593
0.014593
0.014593
0.014593
0.014593
0.014593
0.014593
0.014593
0.014593
0.014593
0.014593
0.014593
0.014593
0.014593
0.014593
0.014593
0.014593
0.014593
0.014593
0.014593
0.014593
0.014593
0.014593
0.014593
0.014593
0.014593
0.014593
0.014593
0.014593
0.014593
0.014593
0.014593
0.014593
0.014593
0.014593
0.014593
0.014593
0.014593
0.014593
0.014593
0.014593
0.014593
0.014593
0.014593
0.014593
0.014593
0.014593
0.014593
0.014593
0.0145931
0.0145931
0.014593
0.014593
0.014593
0.014593
0.014593
0.014593
0.014593
0.014593
0.014593
0.014593
0.014593
0.014593
0.014593
0.014593
0.014593
0.014593
0.014593
0.014593
0.014593
0.014593
0.014593
0.014593
0.014593
0.014593
0.014593
0.014593
0.014593
0.014593
0.014593
0.014593
0.014593
0.014593
0.014593
0.014593
0.014593
0.014593
0.0145931
0.0145931
0.0145931
0.0145932
0.014593
0.014593
0.014593
0.014593
0.014593
0.014593
0.014593
0.014593
0.014593
0.014593
0.014593
0.014593
0.014593
0.014593
0.014593
0.014593
0.014593
0.014593
0.014593
0.014593
0.014593
0.014593
0.014593
0.014593
0.014593
0.014593
0.014593
0.014593
0.014593
0.014593
0.014593
0.014593
0.014593
0.0145931
0.0145931
0.0145931
0.0145931
0.0145932
0.0145933
0.0145934
0.014593
0.014593
0.014593
0.014593
0.014593
0.014593
0.014593
0.014593
0.014593
0.014593
0.014593
0.014593
0.014593
0.014593
0.014593
0.014593
0.014593
0.014593
0.014593
0.014593
0.014593
0.014593
0.014593
0.014593
0.014593
0.014593
0.014593
0.014593
0.014593
0.014593
0.014593
0.0145931
0.0145931
0.0145931
0.0145932
0.0145932
0.0145933
0.0145934
0.0145936
0.0145938
0.014593
0.014593
0.014593
0.014593
0.014593
0.014593
0.014593
0.014593
0.014593
0.014593
0.014593
0.014593
0.014593
0.014593
0.014593
0.014593
0.014593
0.014593
0.014593
0.014593
0.014593
0.014593
0.014593
0.014593
0.014593
0.014593
0.014593
0.014593
0.014593
0.0145931
0.0145931
0.0145931
0.0145932
0.0145932
0.0145933
0.0145934
0.0145936
0.0145938
0.0145942
0.0145947
0.014593
0.014593
0.014593
0.014593
0.014593
0.014593
0.014593
0.014593
0.014593
0.014593
0.014593
0.014593
0.014593
0.014593
0.014593
0.014593
0.014593
0.014593
0.014593
0.014593
0.014593
0.014593
0.014593
0.014593
0.014593
0.014593
0.0145931
0.0145931
0.0145931
0.0145931
0.0145932
0.0145932
0.0145933
0.0145935
0.0145937
0.0145939
0.0145943
0.0145948
0.0145955
0.0145965
0.014593
0.014593
0.014593
0.014593
0.014593
0.014593
0.014593
0.014593
0.014593
0.014593
0.014593
0.014593
0.014593
0.014593
0.014593
0.014593
0.014593
0.014593
0.014593
0.014593
0.014593
0.014593
0.014593
0.014593
0.0145931
0.0145931
0.0145931
0.0145931
0.0145932
0.0145933
0.0145934
0.0145935
0.0145937
0.014594
0.0145944
0.0145949
0.0145956
0.0145967
0.0145981
0.0146002
0.014593
0.014593
0.014593
0.014593
0.014593
0.014593
0.014593
0.014593
0.014593
0.014593
0.014593
0.014593
0.014593
0.014593
0.014593
0.014593
0.014593
0.014593
0.014593
0.014593
0.014593
0.014593
0.0145931
0.0145931
0.0145931
0.0145932
0.0145932
0.0145933
0.0145934
0.0145935
0.0145938
0.014594
0.0145944
0.014595
0.0145958
0.0145969
0.0145984
0.0146005
0.0146035
0.0146077
0.014593
0.014593
0.014593
0.014593
0.014593
0.014593
0.014593
0.014593
0.014593
0.014593
0.014593
0.014593
0.014593
0.014593
0.014593
0.014593
0.014593
0.014593
0.014593
0.014593
0.0145931
0.0145931
0.0145931
0.0145931
0.0145932
0.0145932
0.0145933
0.0145934
0.0145936
0.0145938
0.0145941
0.0145945
0.0145951
0.014596
0.0145971
0.0145987
0.0146009
0.014604
0.0146083
0.0146143
0.0146226
0.014593
0.014593
0.014593
0.014593
0.014593
0.014593
0.014593
0.014593
0.014593
0.014593
0.014593
0.014593
0.014593
0.014593
0.014593
0.014593
0.014593
0.014593
0.0145931
0.0145931
0.0145931
0.0145931
0.0145932
0.0145932
0.0145933
0.0145935
0.0145936
0.0145939
0.0145942
0.0145946
0.0145953
0.0145961
0.0145973
0.014599
0.0146013
0.0146045
0.0146089
0.0146151
0.0146236
0.0146356
0.0146522
0.014593
0.014593
0.014593
0.014593
0.014593
0.014593
0.014593
0.014593
0.014593
0.014593
0.014593
0.014593
0.014593
0.014593
0.014593
0.014593
0.014593
0.0145931
0.0145931
0.0145931
0.0145931
0.0145932
0.0145933
0.0145934
0.0145935
0.0145937
0.0145939
0.0145943
0.0145947
0.0145954
0.0145963
0.0145975
0.0145993
0.0146017
0.014605
0.0146096
0.0146159
0.0146247
0.0146369
0.0146538
0.0146772
0.0147096
0.014593
0.014593
0.014593
0.014593
0.014593
0.014593
0.014593
0.014593
0.014593
0.014593
0.014593
0.014593
0.014593
0.014593
0.014593
0.014593
0.0145931
0.0145931
0.0145931
0.0145932
0.0145932
0.0145933
0.0145934
0.0145935
0.0145937
0.014594
0.0145943
0.0145948
0.0145955
0.0145965
0.0145978
0.0145996
0.014602
0.0146055
0.0146102
0.0146167
0.0146257
0.0146382
0.0146554
0.0146792
0.0147119
0.0147571
0.0148193
0.014593
0.014593
0.014593
0.014593
0.014593
0.014593
0.014593
0.014593
0.014593
0.014593
0.014593
0.014593
0.014593
0.0145931
0.0145931
0.0145931
0.0145931
0.0145932
0.0145932
0.0145933
0.0145934
0.0145936
0.0145938
0.014594
0.0145944
0.0145949
0.0145957
0.0145966
0.014598
0.0145999
0.0146024
0.014606
0.0146108
0.0146175
0.0146268
0.0146395
0.014657
0.0146811
0.0147143
0.0147598
0.0148222
0.0149074
0.0150231
0.014593
0.014593
0.014593
0.014593
0.014593
0.014593
0.014593
0.014593
0.014593
0.014593
0.014593
0.014593
0.0145931
0.0145931
0.0145931
0.0145931
0.0145932
0.0145932
0.0145933
0.0145935
0.0145936
0.0145938
0.0145941
0.0145945
0.0145951
0.0145958
0.0145968
0.0145983
0.0146002
0.0146028
0.0146065
0.0146115
0.0146183
0.0146278
0.0146408
0.0146586
0.014683
0.0147166
0.0147625
0.0148252
0.0149104
0.0150259
0.0151812
0.0153881
0.014593
0.014593
0.014593
0.014593
0.014593
0.014593
0.014593
0.014593
0.014593
0.014593
0.0145931
0.0145931
0.0145931
0.0145931
0.0145932
0.0145932
0.0145933
0.0145934
0.0145935
0.0145937
0.0145939
0.0145942
0.0145946
0.0145952
0.014596
0.0145971
0.0145985
0.0146006
0.0146033
0.014607
0.0146122
0.0146192
0.0146289
0.0146421
0.0146602
0.0146849
0.0147188
0.0147651
0.014828
0.0149134
0.0150287
0.0151831
0.0153883
0.0156575
0.016005
0.014593
0.014593
0.014593
0.014593
0.014593
0.014593
0.014593
0.014593
0.0145931
0.0145931
0.0145931
0.0145931
0.0145932
0.0145932
0.0145933
0.0145933
0.0145934
0.0145936
0.0145938
0.014594
0.0145944
0.0145948
0.0145954
0.0145963
0.0145974
0.0145989
0.014601
0.0146039
0.0146078
0.014613
0.0146203
0.0146301
0.0146436
0.014662
0.0146871
0.0147213
0.0147678
0.014831
0.0149165
0.0150315
0.0151852
0.0153888
0.015655
0.015998
0.0164313
0.0169654
0.014593
0.014593
0.014593
0.014593
0.014593
0.014593
0.0145931
0.0145931
0.0145931
0.0145931
0.0145931
0.0145932
0.0145932
0.0145933
0.0145933
0.0145934
0.0145935
0.0145937
0.0145939
0.0145942
0.0145946
0.0145951
0.0145958
0.0145967
0.0145979
0.0145995
0.0146017
0.0146047
0.0146088
0.0146143
0.0146217
0.0146319
0.0146456
0.0146644
0.0146898
0.0147244
0.0147713
0.0148348
0.0149203
0.0150351
0.0151881
0.0153901
0.0156537
0.0159923
0.0164189
0.0169442
0.0175733
0.0183023
0.0145931
0.0145931
0.0145931
0.0145931
0.0145931
0.0145931
0.0145931
0.0145932
0.0145932
0.0145933
0.0145933
0.0145934
0.0145935
0.0145936
0.0145938
0.014594
0.0145942
0.0145946
0.014595
0.0145956
0.0145964
0.0145974
0.0145987
0.0146005
0.0146029
0.0146061
0.0146104
0.0146162
0.014624
0.0146346
0.0146488
0.0146681
0.0146941
0.0147293
0.0147767
0.0148407
0.0149265
0.0150413
0.0151938
0.0153944
0.0156556
0.0159902
0.0164111
0.0169282
0.0175464
0.0182626
0.0190632
0.0199228
0.0145931
0.0145931
0.0145931
0.0145932
0.0145932
0.0145932
0.0145933
0.0145933
0.0145934
0.0145935
0.0145936
0.0145937
0.0145938
0.014594
0.0145942
0.0145945
0.0145948
0.0145953
0.0145959
0.0145966
0.0145975
0.0145987
0.0146003
0.0146024
0.0146051
0.0146087
0.0146135
0.0146198
0.0146282
0.0146395
0.0146545
0.0146746
0.0147016
0.0147379
0.0147864
0.0148514
0.0149382
0.0150537
0.0152062
0.0154062
0.0156655
0.0159968
0.0164125
0.0169224
0.0175315
0.0182367
0.0190246
0.0198706
0.020739
0.0215878
0.0145933
0.0145933
0.0145934
0.0145935
0.0145935
0.0145936
0.0145938
0.0145939
0.0145941
0.0145943
0.0145945
0.0145948
0.0145952
0.0145956
0.0145961
0.0145968
0.0145976
0.0145986
0.0145999
0.0146015
0.0146035
0.0146062
0.0146095
0.0146138
0.0146194
0.0146267
0.0146363
0.0146488
0.0146654
0.0146872
0.0147161
0.0147544
0.0148052
0.0148726
0.0149617
0.0150793
0.0152336
0.0154345
0.0156935
0.016023
0.0164347
0.0169384
0.0175391
0.0182343
0.0190118
0.0198479
0.0207082
0.0215494
0.0223231
0.0229884
0.0145938
0.014594
0.0145941
0.0145943
0.0145946
0.0145948
0.0145951
0.0145955
0.014596
0.0145965
0.0145971
0.0145979
0.0145988
0.0145999
0.0146012
0.0146028
0.0146047
0.0146071
0.0146101
0.0146138
0.0146183
0.0146241
0.0146314
0.0146406
0.0146523
0.0146674
0.0146868
0.0147119
0.0147445
0.014787
0.0148424
0.0149147
0.015009
0.0151319
0.0152912
0.0154966
0.0157589
0.0160897
0.0165004
0.0170002
0.0175939
0.0182796
0.019046
0.0198715
0.0207238
0.0215618
0.0223386
0.0230088
0.0235412
0.0239342
0.0145954
0.0145958
0.0145962
0.0145968
0.0145974
0.0145981
0.014599
0.0146
0.0146012
0.0146026
0.0146043
0.0146063
0.0146086
0.0146114
0.0146147
0.0146187
0.0146235
0.0146293
0.0146363
0.0146449
0.0146554
0.0146684
0.0146844
0.0147045
0.0147295
0.0147611
0.014801
0.0148516
0.0149161
0.0149984
0.0151035
0.0152377
0.0154085
0.0156249
0.015897
0.0162356
0.0166511
0.0171516
0.0177415
0.0184189
0.0191736
0.0199856
0.0208252
0.0216545
0.0224294
0.0231053
0.0236492
0.0240514
0.0243256
0.0245025
0.0145997
0.0146008
0.0146021
0.0146036
0.0146053
0.0146073
0.0146097
0.0146124
0.0146157
0.0146194
0.0146238
0.014629
0.0146351
0.0146422
0.0146507
0.0146607
0.0146726
0.0146868
0.0147037
0.014724
0.0147486
0.0147782
0.0148143
0.0148583
0.0149123
0.0149787
0.0150607
0.0151623
0.0152883
0.0154446
0.0156384
0.0158777
0.0161714
0.0165291
0.0169592
0.0174687
0.0180605
0.0187323
0.0194745
0.0202688
0.0210882
0.0218983
0.0226589
0.0233281
0.0238726
0.0242797
0.0245599
0.0247388
0.0248452
0.0249068
0.0146118
0.0146148
0.0146183
0.0146223
0.014627
0.0146324
0.0146388
0.0146461
0.0146547
0.0146646
0.0146762
0.0146896
0.0147053
0.0147237
0.0147451
0.0147702
0.0147997
0.0148342
0.014875
0.0149231
0.01498
0.0150475
0.0151279
0.0152237
0.0153381
0.0154752
0.0156394
0.0158361
0.0160717
0.0163528
0.0166867
0.0170806
0.0175407
0.0180713
0.0186734
0.0193435
0.0200719
0.0208421
0.0216299
0.022405
0.0231322
0.0237732
0.0242971
0.0246906
0.0249622
0.0251352
0.0252372
0.0252927
0.0253202
0.025334
0.0146444
0.0146525
0.0146618
0.0146726
0.0146851
0.0146995
0.0147162
0.0147355
0.0147578
0.0147836
0.0148133
0.0148477
0.0148875
0.0149334
0.0149865
0.0150479
0.0151189
0.0152011
0.0152961
0.0154061
0.0155335
0.015681
0.0158518
0.0160495
0.016278
0.0165419
0.0168457
0.0171944
0.0175926
0.0180444
0.0185525
0.0191181
0.0197392
0.0204105
0.0211222
0.0218582
0.0225979
0.0233162
0.0239829
0.0245649
0.0250356
0.0253847
0.0256212
0.0257675
0.0258497
0.0258914
0.0259095
0.025915
0.0259147
0.0259164
0.0147307
0.0147519
0.0147764
0.0148045
0.0148368
0.014874
0.0149167
0.0149657
0.0150219
0.0150862
0.0151598
0.0152438
0.0153398
0.0154491
0.0155735
0.0157148
0.0158751
0.0160565
0.0162613
0.0164921
0.0167515
0.0170423
0.017367
0.0177283
0.0181286
0.01857
0.0190538
0.0195804
0.0201489
0.0207568
0.0213995
0.022069
0.0227543
0.0234411
0.0241123
0.0247464
0.0253185
0.0258015
0.0261762
0.0264381
0.0266021
0.0266908
0.0267291
0.0267378
0.0267318
0.0267224
0.026712
0.0267022
0.026694
0.026692
0.0149523
0.0150059
0.0150673
0.0151374
0.0152172
0.0153082
0.0154114
0.0155284
0.0156608
0.0158101
0.015978
0.0161663
0.0163769
0.0166115
0.0168719
0.0171599
0.0174771
0.0178249
0.0182044
0.0186167
0.0190621
0.0195409
0.0200523
0.0205952
0.0211678
0.0217672
0.0223893
0.0230281
0.0236763
0.0243249
0.0249636
0.0255789
0.026156
0.0266739
0.0271097
0.0274438
0.0276738
0.0278056
0.0278583
0.0278503
0.0278185
0.0277721
0.0277245
0.0276822
0.0276472
0.027619
0.0275955
0.0275742
0.0275543
0.0275402
0.0154925
0.0156195
0.0157627
0.0159239
0.0161046
0.0163066
0.0165316
0.0167811
0.0170567
0.0173599
0.0176918
0.0180534
0.0184453
0.0188677
0.0193206
0.0198035
0.0203153
0.0208545
0.021419
0.0220064
0.0226136
0.0232367
0.0238707
0.0245102
0.0251489
0.0257803
0.0263958
0.0269867
0.0275422
0.0280474
0.028483
0.0288306
0.029081
0.0292296
0.0292809
0.0292488
0.0291706
0.0290595
0.0289365
0.028817
0.0287112
0.0286224
0.0285499
0.0284911
0.0284422
0.0284
0.0283615
0.0283241
0.0282876
0.0282547
0.0166956
0.016962
0.0172556
0.0175776
0.0179291
0.0183109
0.0187233
0.0191664
0.0196397
0.0201424
0.0206733
0.0212306
0.0218119
0.0224146
0.0230356
0.0236714
0.024318
0.0249703
0.0256229
0.0262711
0.0269093
0.0275307
0.0281283
0.0286955
0.029222
0.029694
0.0300943
0.0304134
0.0306424
0.030777
0.0308148
0.0307664
0.0306541
0.0304901
0.0302942
0.0300844
0.0298809
0.0296944
0.0295315
0.029394
0.0292801
0.0291865
0.0291084
0.0290424
0.0289834
0.0289295
0.0288781
0.0288289
0.028778
0.028731
0.0189996
0.0194631
0.0199571
0.0204808
0.0210325
0.0216106
0.0222126
0.0228356
0.0234766
0.024132
0.0247982
0.0254707
0.0261443
0.026814
0.0274755
0.0281238
0.0287529
0.0293567
0.0299287
0.0304609
0.0309423
0.0313604
0.0317044
0.0319717
0.0321561
0.0322529
0.0322536
0.0321858
0.0320493
0.0318566
0.0316217
0.0313598
0.0310888
0.0308207
0.030567
0.0303366
0.0301337
0.0299582
0.0298103
0.0296867
0.0295838
0.0294957
0.0294188
0.0293515
0.029288
0.0292275
0.0291693
0.0291146
0.0290582
0.0290041
0.0225861
0.0232261
0.023884
0.0245564
0.0252394
0.0259292
0.0266209
0.0273095
0.0279906
0.02866
0.0293131
0.0299441
0.0305474
0.031116
0.0316433
0.0321199
0.0325359
0.0328835
0.0331607
0.0333647
0.0334907
0.0335373
0.0335062
0.0334171
0.033267
0.0330681
0.0328278
0.0325542
0.0322569
0.0319469
0.0316349
0.0313314
0.0310461
0.0307857
0.0305544
0.0303537
0.0301826
0.0300387
0.0299176
0.0298137
0.0297251
0.0296451
0.0295725
0.0295068
0.0294442
0.029383
0.0293239
0.0292682
0.0292112
0.0291553
0.0270392
0.0277405
0.0284352
0.0291189
0.0297878
0.0304373
0.0310618
0.0316553
0.0322112
0.0327232
0.0331839
0.0335852
0.0339226
0.0341936
0.0343997
0.0345377
0.034607
0.0346061
0.0345532
0.0344453
0.0342925
0.0340981
0.0338631
0.0335953
0.0332996
0.032985
0.0326605
0.0323322
0.0320069
0.031692
0.031394
0.0311184
0.0308695
0.0306505
0.0304614
0.0302998
0.0301635
0.0300482
0.0299508
0.0298658
0.0297876
0.0297162
0.0296504
0.0295889
0.0295287
0.0294696
0.0294125
0.0293581
0.029303
0.0292484
0.0314894
0.0320984
0.0326734
0.0332078
0.0336962
0.0341328
0.0345115
0.0348298
0.0350861
0.035284
0.035422
0.0354992
0.0355188
0.035487
0.0354113
0.0352955
0.035143
0.0349534
0.0347302
0.0344766
0.0341991
0.0339036
0.0335918
0.0332679
0.0329364
0.0326002
0.0322667
0.0319445
0.0316402
0.0313585
0.0311032
0.0308763
0.0306777
0.0305067
0.0303609
0.0302373
0.0301321
0.0300405
0.0299601
0.029889
0.0298216
0.0297574
0.0296969
0.0296394
0.0295817
0.0295251
0.0294706
0.029418
0.029365
0.0293125
0.0345753
0.0349815
0.0353322
0.0356261
0.0358628
0.0360465
0.036178
0.0362555
0.0362844
0.036266
0.0362121
0.0361223
0.0360018
0.0358497
0.0356667
0.0354562
0.035222
0.034969
0.0346969
0.0344071
0.0341014
0.0337799
0.0334479
0.0331124
0.0327786
0.0324513
0.0321346
0.0318327
0.0315505
0.0312919
0.0310595
0.030855
0.0306775
0.0305244
0.030394
0.0302838
0.0301902
0.0301076
0.0300327
0.0299651
0.0299029
0.0298414
0.0297817
0.029725
0.0296702
0.0296151
0.0295613
0.0295093
0.0294586
0.0294082
0.029358
0.0367175
0.0368373
0.0369101
0.036941
0.03693
0.0368895
0.0368172
0.0367199
0.036596
0.0364452
0.0362707
0.0360743
0.0358613
0.0356302
0.0353809
0.0351142
0.0348287
0.0345269
0.0342143
0.0338942
0.0335692
0.0332419
0.0329154
0.0325942
0.0322832
0.0319864
0.0317077
0.0314504
0.0312167
0.031008
0.0308258
0.0306679
0.0305315
0.030416
0.0303182
0.0302335
0.0301591
0.0300887
0.030024
0.0299646
0.029908
0.0298506
0.0297947
0.0297409
0.0296883
0.0296357
0.0295845
0.029535
0.0294862
0.0294384
0.0293908
0.0375139
0.0374807
0.0374197
0.0373377
0.0372335
0.0371065
0.0369592
0.0367926
0.0366124
0.0364165
0.0362042
0.0359756
0.0357292
0.0354649
0.0351874
0.0348989
0.0346005
0.0342929
0.0339777
0.0336587
0.0333392
0.0330219
0.03271
0.0324069
0.0321162
0.0318416
0.0315863
0.031353
0.0311428
0.0309575
0.0307966
0.0306564
0.030535
0.0304322
0.0303433
0.0302661
0.0301968
0.0301338
0.0300738
0.0300167
0.0299624
0.0299097
0.0298564
0.0298044
0.0297539
0.0297042
0.0296548
0.0296068
0.0295602
0.0295142
0.0294693
0.0294247
0.0376859
0.0375593
0.0374157
0.0372606
0.0370923
0.0369099
0.0367129
0.0365005
0.0362709
0.0360286
0.0357747
0.0355098
0.0352337
0.0349462
0.0346503
0.0343481
0.034041
0.0337313
0.033421
0.0331114
0.0328061
0.0325097
0.0322255
0.0319565
0.0317051
0.0314735
0.0312632
0.0310752
0.0309106
0.0307665
0.0306421
0.0305359
0.0304442
0.0303647
0.0302953
0.0302317
0.0301749
0.0301214
0.0300684
0.0300173
0.029968
0.029919
0.0298696
0.0298213
0.0297741
0.0297275
0.0296816
0.0296368
0.0295933
0.0295502
0.0295085
0.0294671
0.0375278
0.0373567
0.0371725
0.0369727
0.0367612
0.0365389
0.0363058
0.0360617
0.0358056
0.035539
0.0352632
0.0349796
0.0346894
0.0343935
0.0340924
0.0337885
0.0334845
0.0331836
0.0328884
0.0326013
0.032325
0.0320619
0.0318147
0.0315854
0.0313757
0.0311866
0.0310188
0.0308719
0.0307445
0.0306352
0.0305408
0.0304591
0.0303885
0.0303269
0.0302704
0.0302187
0.0301703
0.0301231
0.0300755
0.030029
0.0299836
0.0299379
0.0298921
0.0298471
0.029803
0.0297595
0.029717
0.0296753
0.0296348
0.0295948
0.0295562
0.029518
0.0372105
0.0370056
0.0367904
0.0365639
0.0363268
0.0360801
0.0358243
0.0355599
0.0352873
0.0350072
0.0347208
0.0344292
0.0341347
0.0338393
0.0335447
0.033253
0.0329662
0.0326868
0.0324171
0.0321599
0.0319174
0.0316912
0.0314829
0.0312938
0.0311243
0.0309747
0.0308443
0.0307316
0.0306348
0.0305512
0.030479
0.0304167
0.0303623
0.0303126
0.0302657
0.0302215
0.030179
0.0301363
0.0300932
0.0300505
0.0300081
0.0299654
0.0299228
0.0298809
0.0298398
0.0297994
0.02976
0.0297214
0.0296839
0.0296469
0.0296114
0.0295763
0.0368038
0.0365749
0.0363372
0.0360907
0.0358357
0.0355727
0.0353028
0.0350268
0.0347459
0.0344613
0.0341743
0.0338866
0.0336
0.0333163
0.0330377
0.0327661
0.0325037
0.0322525
0.0320145
0.0317916
0.0315854
0.0313968
0.0312266
0.031075
0.0309418
0.0308261
0.0307266
0.030641
0.0305673
0.0305037
0.0304496
0.0304008
0.0303565
0.0303153
0.0302754
0.0302366
0.0301984
0.0301594
0.0301197
0.03008
0.0300403
0.0300004
0.0299608
0.0299219
0.0298838
0.0298464
0.02981
0.0297743
0.0297398
0.0297058
0.0296732
0.0296412
0.0363394
0.0360932
0.0358398
0.0355799
0.0353139
0.0350428
0.0347675
0.0344893
0.0342095
0.0339295
0.0336509
0.0333753
0.0331044
0.0328403
0.0325847
0.0323394
0.0321065
0.0318875
0.0316837
0.0314964
0.0313261
0.0311733
0.0310379
0.0309194
0.0308169
0.0307289
0.0306534
0.0305886
0.0305332
0.0304857
0.030442
0.0304027
0.0303663
0.0303313
0.0302966
0.030262
0.0302269
0.0301906
0.0301537
0.0301167
0.0300795
0.0300424
0.0300057
0.0299696
0.0299344
0.0298999
0.0298663
0.0298335
0.0298018
0.0297706
0.029741
0.0297118
0.0358401
0.0355833
0.0353214
0.0350553
0.0347859
0.0345141
0.0342412
0.0339686
0.0336975
0.0334296
0.0331665
0.0329096
0.0326609
0.0324218
0.0321941
0.0319791
0.0317782
0.0315926
0.0314229
0.0312695
0.0311326
0.0310118
0.0309067
0.0308159
0.0307382
0.0306715
0.0306149
0.0305667
0.0305242
0.0304861
0.0304514
0.0304193
0.0303888
0.0303584
0.0303272
0.0302955
0.0302628
0.0302289
0.0301945
0.0301599
0.0301253
0.0300908
0.0300568
0.0300235
0.0299909
0.0299592
0.0299284
0.0298982
0.0298691
0.0298407
0.0298137
0.0297872
0.0350651
0.0348013
0.0345358
0.0342697
0.0340042
0.0337406
0.0334802
0.0332245
0.0329749
0.0327328
0.0324999
0.0322775
0.0320669
0.0318694
0.0316859
0.0315172
0.0313639
0.031226
0.0311035
0.0309959
0.0309026
0.0308223
0.0307536
0.0306951
0.0306457
0.030603
0.0305657
0.0305324
0.0305024
0.0304746
0.0304479
0.0304214
0.0303941
0.0303655
0.0303359
0.0303052
0.0302736
0.0302414
0.0302091
0.0301769
0.0301449
0.0301135
0.0300827
0.0300527
0.0300235
0.0299951
0.0299675
0.0299408
0.0299148
0.0298902
0.0298661
0.0345549
0.0342955
0.0340369
0.0337805
0.0335274
0.033279
0.0330364
0.0328011
0.0325742
0.0323572
0.0321512
0.0319573
0.0317764
0.0316093
0.0314565
0.0313182
0.0311944
0.0310849
0.0309892
0.0309064
0.0308354
0.0307746
0.0307236
0.0306798
0.0306426
0.0306099
0.0305811
0.0305556
0.0305319
0.0305088
0.0304857
0.0304619
0.0304367
0.03041
0.0303822
0.0303534
0.0303237
0.0302937
0.0302636
0.0302336
0.0302039
0.0301748
0.0301464
0.0301187
0.0300918
0.0300656
0.0300401
0.0300156
0.0299917
0.0299692
0.0299471
0.0340672
0.0338178
0.0335718
0.0333304
0.0330947
0.032866
0.0326453
0.0324337
0.0322325
0.0320424
0.0318645
0.0316993
0.0315475
0.0314092
0.0312847
0.0311737
0.031076
0.0309907
0.0309173
0.0308541
0.030801
0.0307559
0.0307174
0.030685
0.0306567
0.0306325
0.0306108
0.0305908
0.0305712
0.0305513
0.0305306
0.0305086
0.0304849
0.0304598
0.0304336
0.0304064
0.0303786
0.0303505
0.0303224
0.0302944
0.0302669
0.0302399
0.0302135
0.0301878
0.0301628
0.0301385
0.0301149
0.0300921
0.0300701
0.0300492
0.0300288
0.0333792
0.0331503
0.032928
0.0327133
0.0325073
0.0323109
0.0321249
0.0319502
0.0317873
0.0316369
0.0314991
0.0313743
0.0312623
0.0311629
0.0310755
0.0309997
0.0309343
0.0308787
0.0308319
0.0307918
0.0307584
0.0307301
0.0307063
0.0306859
0.0306678
0.030651
0.0306346
0.0306179
0.0306001
0.0305809
0.0305602
0.0305378
0.030514
0.0304892
0.0304635
0.0304373
0.0304109
0.0303846
0.0303584
0.0303327
0.0303074
0.0302828
0.0302588
0.0302353
0.0302126
0.0301904
0.0301691
0.0301484
0.0301288
0.0301095
0.0329875
0.0327788
0.0325783
0.0323868
0.032205
0.0320337
0.0318735
0.0317248
0.031588
0.0314632
0.0313506
0.0312499
0.0311608
0.0310828
0.0310151
0.030957
0.0309081
0.0308662
0.0308311
0.0308022
0.0307779
0.030758
0.0307412
0.0307263
0.0307125
0.030699
0.0306851
0.0306701
0.0306536
0.0306355
0.0306156
0.0305942
0.0305716
0.0305479
0.0305236
0.0304988
0.0304739
0.030449
0.0304244
0.0304001
0.0303763
0.030353
0.0303302
0.030308
0.0302863
0.0302652
0.0302448
0.0302251
0.0302063
0.0301877
0.0326471
0.0324604
0.032283
0.0321153
0.0319579
0.0318113
0.0316757
0.0315515
0.0314385
0.0313369
0.0312464
0.0311665
0.0310967
0.0310362
0.0309849
0.0309411
0.0309042
0.0308736
0.0308484
0.0308282
0.0308117
0.030798
0.0307861
0.030775
0.0307641
0.0307527
0.0307403
0.0307263
0.0307106
0.0306932
0.030674
0.0306534
0.0306316
0.0306089
0.0305856
0.030562
0.0305382
0.0305145
0.030491
0.0304678
0.030445
0.0304227
0.0304008
0.0303793
0.0303584
0.0303379
0.030318
0.0302987
0.0302803
0.0302619
0.032359
0.032195
0.0320406
0.0318963
0.0317623
0.0316389
0.0315261
0.031424
0.0313324
0.0312509
0.0311791
0.0311164
0.0310628
0.031017
0.0309779
0.0309454
0.0309187
0.0308974
0.0308805
0.0308671
0.0308561
0.0308467
0.0308381
0.0308296
0.0308205
0.0308104
0.0307988
0.0307853
0.03077
0.0307529
0.0307341
0.0307141
0.0306929
0.030671
0.0306485
0.0306256
0.0306027
0.0305798
0.030557
0.0305346
0.0305124
0.0304906
0.0304691
0.030448
0.0304273
0.030407
0.0303873
0.030368
0.0303494
0.0303308
0.0321219
0.0319801
0.0318479
0.0317256
0.0316133
0.0315109
0.0314185
0.0313358
0.0312623
0.0311977
0.0311417
0.0310938
0.0310525
0.0310179
0.0309894
0.0309664
0.0309484
0.0309345
0.0309237
0.0309151
0.030908
0.0309016
0.0308952
0.0308882
0.0308802
0.0308706
0.0308592
0.0308459
0.0308306
0.0308136
0.0307951
0.0307753
0.0307545
0.030733
0.0307109
0.0306886
0.0306661
0.0306436
0.0306212
0.0305991
0.0305771
0.0305554
0.0305339
0.0305128
0.0304919
0.0304714
0.0304513
0.0304316
0.0304125
0.0303932
0.0319324
0.0318115
0.0316999
0.0315977
0.0315048
0.0314211
0.0313462
0.0312799
0.0312217
0.0311716
0.0311283
0.0310916
0.0310608
0.0310358
0.0310163
0.0310012
0.0309898
0.0309813
0.0309748
0.0309697
0.0309652
0.0309607
0.0309556
0.0309494
0.0309416
0.0309321
0.0309205
0.0309069
0.0308914
0.0308743
0.0308557
0.0308359
0.0308152
0.0307938
0.0307719
0.0307496
0.0307272
0.0307048
0.0306824
0.0306601
0.0306379
0.0306159
0.030594
0.0305724
0.0305509
0.0305297
0.0305089
0.0304884
0.0304683
0.030448
0.031786
0.0316842
0.0315912
0.0315068
0.0314307
0.0313628
0.0313027
0.0312505
0.0312053
0.0311663
0.0311334
0.0311061
0.0310846
0.0310679
0.0310553
0.0310461
0.0310395
0.0310349
0.0310315
0.0310286
0.0310257
0.0310223
0.0310177
0.0310116
0.0310036
0.0309936
0.0309814
0.0309674
0.0309514
0.0309339
0.030915
0.0308949
0.0308739
0.0308523
0.0308301
0.0308077
0.030785
0.0307622
0.0307393
0.0307165
0.0306937
0.030671
0.0306484
0.0306258
0.0306034
0.0305812
0.0305592
0.0305375
0.0305162
0.0304944
0.0315926
0.0315157
0.0314465
0.0313849
0.0313306
0.0312835
0.0312422
0.0312072
0.0311776
0.0311538
0.0311351
0.0311208
0.0311103
0.031103
0.0310981
0.031095
0.0310931
0.0310916
0.0310901
0.0310881
0.0310849
0.0310801
0.0310735
0.0310649
0.031054
0.0310411
0.0310262
0.0310096
0.0309913
0.0309718
0.0309511
0.0309296
0.0309074
0.0308847
0.0308616
0.0308382
0.0308147
0.0307911
0.0307674
0.0307436
0.0307198
0.030696
0.0306723
0.0306486
0.030625
0.0306016
0.0305783
0.0305553
0.0305318
0.0315308
0.0314678
0.0314117
0.0313627
0.0313195
0.0312823
0.0312505
0.0312242
0.0312032
0.031187
0.0311748
0.0311661
0.0311603
0.0311568
0.031155
0.0311542
0.0311539
0.0311536
0.0311527
0.0311507
0.0311472
0.0311417
0.0311342
0.0311244
0.0311125
0.0310985
0.0310825
0.0310649
0.0310457
0.0310252
0.0310037
0.0309813
0.0309582
0.0309345
0.0309105
0.0308861
0.0308615
0.0308367
0.0308118
0.0307867
0.0307615
0.0307363
0.030711
0.0306857
0.0306605
0.0306353
0.0306103
0.0305854
0.0305599
0.0314938
0.031443
0.031398
0.0313586
0.0313247
0.0312959
0.0312726
0.0312541
0.0312398
0.0312294
0.0312222
0.0312177
0.0312153
0.0312146
0.0312148
0.0312155
0.031216
0.031216
0.031215
0.0312124
0.0312079
0.0312013
0.0311924
0.0311813
0.031168
0.0311526
0.0311353
0.0311164
0.031096
0.0310743
0.0310516
0.031028
0.0310037
0.0309788
0.0309535
0.0309278
0.0309018
0.0308756
0.0308491
0.0308224
0.0307956
0.0307686
0.0307415
0.0307144
0.0306873
0.0306602
0.0306331
0.0306061
0.0305785