/*--------------------------------*- C++ -*----------------------------------*\
| =========                 |                                                 |
| \\      /  F ield         | OpenFOAM: The Open Source CFD Toolbox           |
|  \\    /   O peration     | Version:  v1706                                 |
|   \\  /    A nd           | Web:      www.OpenFOAM.com                      |
|    \\/     M anipulation  |                                                 |
\*---------------------------------------------------------------------------*/
FoamFile
{
    version     2.0;
    format      ascii;
    class       volScalarField;
    location    "1.5e-05";
    object      Tov;
}
// * * * * * * * * * * * * * * * * * * * * * * * * * * * * * * * * * * * * * //

dimensions      [0 0 0 1 0 0 0];


internalField   nonuniform List<scalar> 
30038
(
144.4
144.4
144.4
144.4
144.4
144.4
144.4
144.4
144.4
144.4
144.4
144.4
144.4
144.4
144.4
144.4
144.4
144.4
144.4
144.4
144.4
144.4
144.4
144.4
144.4
144.4
144.4
144.4
144.4
144.4
144.4
144.4
144.4
144.4
144.4
144.4
144.4
144.4
144.4
144.4
144.4
144.4
144.4
144.4
144.4
144.4
144.4
144.4
144.4
144.4
144.4
144.4
144.4
144.4
144.4
144.4
144.4
144.4
144.4
144.4
144.4
144.4
144.4
144.4
144.4
144.4
144.4
144.4
144.4
144.4
144.4
144.4
144.4
144.4
144.4
144.4
144.4
144.4
144.4
144.4
144.4
144.4
144.4
144.4
144.4
144.4
144.4
144.4
144.4
144.4
144.4
144.4
144.4
144.4
144.4
144.4
144.4
144.4
144.4
144.4
144.4
144.4
144.4
144.4
144.4
144.4
144.4
144.4
144.4
144.4
144.4
144.4
144.4
144.4
144.4
144.4
144.4
144.4
144.4
144.4
144.4
144.4
144.4
144.4
144.4
144.4
144.4
144.4
144.4
144.4
144.4
144.4
144.4
144.4
144.4
144.4
144.4
144.4
144.4
144.4
144.4
144.4
144.4
144.4
144.4
144.4
144.4
144.4
144.4
144.4
144.4
144.4
144.4
144.4
144.4
144.4
144.4
144.4
144.4
144.4
144.4
144.4
144.4
144.4
144.4
144.4
144.4
144.4
144.4
144.4
144.4
144.4
144.4
144.4
144.4
144.4
144.4
144.4
144.4
144.4
144.4
144.4
144.4
144.4
144.4
144.4
144.4
144.4
144.4
144.4
144.4
144.4
144.4
144.4
144.4
144.4
144.4
144.4
144.4
144.4
144.4
144.4
144.4
144.4
144.4
144.4
144.4
144.4
144.4
144.4
144.4
144.4
144.4
144.4
144.4
144.4
144.4
144.4
144.4
144.4
144.4
144.4
144.4
144.4
144.4
144.4
144.4
144.4
144.4
144.4
144.4
144.4
144.4
144.4
144.4
144.4
144.4
144.4
144.4
144.4
144.4
144.4
144.4
144.4
144.4
144.4
144.4
144.4
144.4
144.4
144.4
144.4
144.4
144.4
144.4
144.4
144.4
144.4
144.4
144.4
144.4
144.4
144.4
144.4
144.4
144.4
144.4
144.4
144.4
144.4
144.4
144.4
144.4
144.4
144.4
144.4
144.4
144.4
144.4
144.4
144.4
144.4
144.4
144.4
144.4
144.4
144.4
144.4
144.4
144.4
144.4
144.4
144.4
144.4
144.4
144.4
144.4
144.4
144.4
144.4
144.4
144.4
144.4
144.4
144.4
144.4
144.4
144.4
144.4
144.4
144.4
144.4
144.4
144.4
144.4
144.4
144.4
144.4
144.4
144.4
144.4
144.4
144.4
144.4
144.4
144.4
144.4
144.4
144.4
144.4
144.4
144.4
144.4
144.4
144.4
144.4
144.4
144.4
144.4
144.4
144.4
144.4
144.4
144.4
144.4
144.4
144.4
144.4
144.4
144.4
144.4
144.4
144.4
144.4
144.4
144.4
144.4
144.4
144.4
144.4
144.4
144.4
144.4
144.4
144.4
144.4
144.4
144.4
144.4
144.4
144.4
144.4
144.4
144.4
144.4
144.4
144.4
144.4
144.4
144.4
144.4
144.4
144.4
144.4
144.4
144.4
144.4
144.4
144.4
144.4
144.4
144.4
144.4
144.4
144.4
144.4
144.4
144.4
144.4
144.4
144.4
144.4
144.4
144.4
144.4
144.4
144.4
144.4
144.4
144.4
144.4
144.4
144.4
144.4
144.4
144.4
144.4
144.4
144.401
144.401
144.401
144.4
144.4
144.4
144.4
144.4
144.4
144.4
144.4
144.4
144.4
144.4
144.4
144.4
144.4
144.4
144.4
144.4
144.4
144.4
144.4
144.4
144.4
144.4
144.4
144.4
144.4
144.4
144.4
144.4
144.4
144.4
144.4
144.4
144.4
144.4
144.401
144.401
144.401
144.402
144.402
144.4
144.4
144.4
144.4
144.4
144.4
144.4
144.4
144.4
144.4
144.4
144.4
144.4
144.4
144.4
144.4
144.4
144.4
144.4
144.4
144.4
144.4
144.4
144.4
144.4
144.4
144.4
144.4
144.4
144.4
144.4
144.4
144.4
144.401
144.401
144.401
144.402
144.402
144.403
144.405
144.4
144.4
144.4
144.4
144.4
144.4
144.4
144.4
144.4
144.4
144.4
144.4
144.4
144.4
144.4
144.4
144.4
144.4
144.4
144.4
144.4
144.4
144.4
144.4
144.4
144.4
144.4
144.4
144.4
144.4
144.401
144.401
144.401
144.401
144.402
144.403
144.404
144.405
144.407
144.41
144.4
144.4
144.4
144.4
144.4
144.4
144.4
144.4
144.4
144.4
144.4
144.4
144.4
144.4
144.4
144.4
144.4
144.4
144.4
144.4
144.4
144.4
144.4
144.4
144.4
144.4
144.4
144.4
144.401
144.401
144.401
144.402
144.402
144.403
144.404
144.406
144.408
144.411
144.416
144.422
144.4
144.4
144.4
144.4
144.4
144.4
144.4
144.4
144.4
144.4
144.4
144.4
144.4
144.4
144.4
144.4
144.4
144.4
144.4
144.4
144.4
144.4
144.4
144.4
144.4
144.4
144.401
144.401
144.401
144.402
144.402
144.403
144.404
144.406
144.409
144.412
144.417
144.424
144.433
144.446
144.4
144.4
144.4
144.4
144.4
144.4
144.4
144.4
144.4
144.4
144.4
144.4
144.4
144.4
144.4
144.4
144.4
144.4
144.4
144.4
144.4
144.4
144.4
144.4
144.401
144.401
144.401
144.402
144.402
144.403
144.405
144.407
144.409
144.413
144.418
144.425
144.435
144.449
144.468
144.495
144.4
144.4
144.4
144.4
144.4
144.4
144.4
144.4
144.4
144.4
144.4
144.4
144.4
144.4
144.4
144.4
144.4
144.4
144.4
144.4
144.4
144.401
144.401
144.401
144.401
144.402
144.403
144.404
144.405
144.407
144.41
144.414
144.419
144.427
144.437
144.452
144.472
144.5
144.54
144.595
144.4
144.4
144.4
144.4
144.4
144.4
144.4
144.4
144.4
144.4
144.4
144.4
144.4
144.4
144.4
144.4
144.4
144.4
144.4
144.4
144.401
144.401
144.401
144.402
144.402
144.403
144.404
144.406
144.408
144.411
144.415
144.42
144.428
144.439
144.454
144.476
144.505
144.546
144.603
144.683
144.794
144.4
144.4
144.4
144.4
144.4
144.4
144.4
144.4
144.4
144.4
144.4
144.4
144.4
144.4
144.4
144.4
144.4
144.4
144.401
144.401
144.401
144.402
144.402
144.403
144.404
144.406
144.408
144.411
144.416
144.422
144.43
144.441
144.457
144.479
144.51
144.553
144.612
144.694
144.808
144.966
145.188
144.4
144.4
144.4
144.4
144.4
144.4
144.4
144.4
144.4
144.4
144.4
144.4
144.4
144.4
144.4
144.4
144.401
144.401
144.401
144.401
144.402
144.402
144.403
144.405
144.406
144.409
144.412
144.417
144.423
144.432
144.444
144.46
144.483
144.515
144.559
144.62
144.705
144.822
144.984
145.209
145.521
145.954
144.4
144.4
144.4
144.4
144.4
144.4
144.4
144.4
144.4
144.4
144.4
144.4
144.4
144.4
144.4
144.401
144.401
144.401
144.401
144.402
144.403
144.404
144.405
144.407
144.409
144.413
144.418
144.424
144.433
144.446
144.463
144.487
144.52
144.566
144.629
144.715
144.835
145.001
145.231
145.547
145.984
146.587
147.418
144.4
144.4
144.4
144.4
144.4
144.4
144.4
144.4
144.4
144.4
144.4
144.4
144.4
144.401
144.401
144.401
144.402
144.402
144.403
144.404
144.405
144.407
144.41
144.414
144.419
144.426
144.435
144.448
144.466
144.491
144.525
144.572
144.637
144.726
144.849
145.018
145.252
145.573
146.016
146.624
147.458
148.598
150.152
144.4
144.4
144.4
144.4
144.4
144.4
144.4
144.4
144.4
144.4
144.4
144.401
144.401
144.401
144.401
144.402
144.402
144.403
144.404
144.406
144.408
144.411
144.415
144.42
144.427
144.437
144.451
144.47
144.496
144.531
144.579
144.646
144.737
144.863
145.035
145.273
145.599
146.046
146.659
147.497
148.639
150.189
152.282
155.08
144.4
144.4
144.4
144.4
144.4
144.4
144.4
144.4
144.4
144.401
144.401
144.401
144.401
144.402
144.402
144.403
144.404
144.405
144.407
144.409
144.412
144.416
144.422
144.429
144.44
144.454
144.474
144.5
144.537
144.587
144.655
144.749
144.877
145.053
145.294
145.624
146.076
146.693
147.535
148.679
150.226
152.307
155.083
158.747
163.51
144.4
144.4
144.4
144.4
144.4
144.4
144.4
144.401
144.401
144.401
144.401
144.401
144.402
144.403
144.403
144.404
144.406
144.408
144.41
144.413
144.418
144.424
144.432
144.443
144.458
144.479
144.507
144.545
144.596
144.667
144.763
144.894
145.073
145.318
145.652
146.109
146.73
147.575
148.72
150.264
152.335
155.089
158.712
163.412
169.403
176.867
144.4
144.4
144.4
144.4
144.4
144.401
144.401
144.401
144.401
144.401
144.402
144.402
144.403
144.403
144.404
144.406
144.407
144.409
144.412
144.416
144.421
144.428
144.437
144.449
144.465
144.487
144.516
144.556
144.61
144.683
144.782
144.917
145.101
145.35
145.689
146.151
146.777
147.625
148.772
150.313
152.374
155.108
158.694
163.333
169.23
176.569
185.468
195.927
144.401
144.401
144.401
144.401
144.401
144.402
144.402
144.402
144.403
144.403
144.404
144.405
144.406
144.408
144.41
144.413
144.416
144.421
144.427
144.434
144.445
144.458
144.476
144.5
144.532
144.575
144.632
144.709
144.813
144.954
145.143
145.4
145.747
146.216
146.85
147.705
148.855
150.397
152.451
155.167
158.72
163.305
169.122
176.344
185.084
195.353
207.005
219.72
144.401
144.402
144.402
144.402
144.403
144.403
144.404
144.404
144.405
144.406
144.407
144.409
144.411
144.413
144.416
144.42
144.425
144.431
144.438
144.448
144.46
144.477
144.498
144.525
144.562
144.61
144.673
144.757
144.87
145.02
145.22
145.489
145.849
146.332
146.981
147.851
149.015
150.565
152.622
155.33
158.859
163.399
169.144
176.266
184.875
194.98
206.441
218.944
231.983
244.928
144.404
144.405
144.405
144.406
144.407
144.409
144.41
144.412
144.414
144.417
144.42
144.424
144.429
144.435
144.442
144.451
144.462
144.475
144.492
144.514
144.541
144.576
144.621
144.679
144.753
144.851
144.979
145.146
145.367
145.658
146.044
146.556
147.235
148.138
149.334
150.915
152.997
155.72
159.248
163.766
169.461
176.499
184.992
194.954
206.26
218.611
231.521
244.341
256.302
266.719
144.411
144.413
144.415
144.418
144.421
144.425
144.429
144.434
144.44
144.447
144.455
144.465
144.478
144.492
144.51
144.531
144.558
144.59
144.63
144.679
144.74
144.817
144.914
145.038
145.195
145.397
145.656
145.992
146.429
146.997
147.74
148.71
149.978
151.634
153.788
156.576
160.155
164.701
170.391
177.384
185.789
195.624
206.779
218.978
231.771
244.542
256.551
267.044
275.468
281.739
144.432
144.437
144.444
144.451
144.459
144.469
144.481
144.495
144.511
144.53
144.552
144.579
144.61
144.647
144.692
144.746
144.81
144.888
144.982
145.098
145.239
145.413
145.629
145.897
146.234
146.658
147.193
147.874
148.741
149.849
151.267
153.081
155.399
158.348
162.076
166.746
172.523
179.551
187.929
197.675
208.686
220.711
233.336
245.992
257.985
268.578
277.195
283.621
288.028
290.884
144.491
144.506
144.523
144.543
144.566
144.593
144.625
144.662
144.705
144.756
144.815
144.885
144.967
145.063
145.177
145.312
145.472
145.663
145.892
146.166
146.496
146.895
147.381
147.975
148.703
149.6
150.71
152.085
153.795
155.923
158.569
161.852
165.905
170.873
176.898
184.103
192.566
202.293
213.186
225.01
237.387
249.799
261.612
272.131
280.78
287.301
291.817
294.712
296.441
297.442
144.653
144.693
144.74
144.795
144.858
144.931
145.017
145.116
145.231
145.365
145.521
145.703
145.915
146.163
146.453
146.792
147.19
147.658
148.209
148.86
149.632
150.548
151.64
152.943
154.504
156.376
158.626
161.333
164.585
168.488
173.152
178.694
185.221
192.822
201.541
211.36
222.173
233.757
245.766
257.741
269.114
279.255
287.623
293.958
298.355
301.167
302.831
303.737
304.185
304.411
145.092
145.201
145.327
145.473
145.642
145.837
146.062
146.323
146.625
146.973
147.376
147.842
148.381
149.005
149.726
150.561
151.528
152.648
153.947
155.454
157.202
159.232
161.59
164.328
167.508
171.196
175.467
180.398
186.07
192.556
199.917
208.189
217.37
227.406
238.168
249.434
260.893
272.149
282.71
292.021
299.614
305.282
309.14
311.532
312.878
313.56
313.855
313.944
313.94
313.967
146.258
146.544
146.875
147.256
147.694
148.198
148.777
149.443
150.207
151.083
152.087
153.235
154.549
156.049
157.761
159.71
161.928
164.447
167.303
170.535
174.185
178.298
182.918
188.093
193.868
200.284
207.373
215.158
223.641
232.802
242.584
252.882
263.531
274.316
284.961
295.113
304.35
312.208
318.339
322.642
325.342
326.799
327.424
327.558
327.452
327.29
327.113
326.947
326.808
326.774
149.258
149.988
150.823
151.779
152.869
154.113
155.529
157.138
158.962
161.026
163.356
165.978
168.923
172.219
175.896
179.984
184.514
189.512
195.004
201.013
207.556
214.646
222.283
230.463
239.168
248.365
258
267.988
278.216
288.547
298.808
308.779
318.202
326.718
333.92
339.465
343.288
345.476
346.336
346.179
345.627
344.829
344.015
343.292
342.693
342.213
341.811
341.449
341.111
340.872
156.639
158.387
160.365
162.598
165.111
167.931
171.087
174.604
178.51
182.831
187.59
192.811
198.509
204.697
211.384
218.573
226.257
234.424
243.051
252.109
261.558
271.344
281.393
291.617
301.921
312.191
322.283
332.045
341.286
349.737
357.058
362.92
367.147
369.648
370.488
369.914
368.547
366.624
364.504
362.445
360.628
359.102
357.858
356.848
356.01
355.288
354.631
353.994
353.373
352.813
173.385
177.153
181.327
185.934
190.997
196.533
202.559
209.083
216.11
223.637
231.656
240.149
249.09
258.445
268.174
278.228
288.548
299.05
309.653
320.273
330.815
341.16
351.182
360.757
369.697
377.748
384.598
390.075
394.002
396.3
396.916
396.045
394.061
391.19
387.775
384.129
380.6
377.372
374.557
372.181
370.218
368.604
367.261
366.125
365.114
364.191
363.311
362.472
361.605
360.805
206.598
213.457
220.83
228.713
237.094
245.956
255.271
265.003
275.11
285.543
296.247
307.152
318.171
329.224
340.232
351.109
361.742
372.019
381.819
390.989
399.32
406.582
412.572
417.231
420.44
422.105
422.071
420.849
418.411
414.994
410.846
406.244
401.493
396.806
392.381
388.371
384.85
381.811
379.25
377.114
375.336
373.819
372.495
371.338
370.25
369.213
368.217
367.282
366.32
365.398
261.06
271.113
281.547
292.312
303.353
314.607
325.993
337.43
348.837
360.141
371.256
382.074
392.484
402.358
411.561
419.916
427.236
433.366
438.264
441.866
444.074
444.866
444.284
442.659
439.954
436.393
432.1
427.233
421.962
416.483
410.987
405.66
400.667
396.119
392.089
388.598
385.629
383.133
381.038
379.244
377.715
376.337
375.089
373.96
372.886
371.838
370.827
369.873
368.901
367.948
332.89
344.599
356.297
367.907
379.355
390.552
401.394
411.764
421.531
430.572
438.739
445.878
451.894
456.735
460.416
462.868
464.088
464.035
463.058
461.084
458.31
454.791
450.555
445.74
440.445
434.832
429.062
423.242
417.496
411.949
406.716
401.887
397.539
393.721
390.431
387.624
385.26
383.262
381.577
380.111
378.764
377.536
376.403
375.349
374.317
373.304
372.326
371.395
370.454
369.523
408.833
419.526
429.681
439.17
447.881
455.698
462.498
468.227
472.847
476.413
478.895
480.271
480.599
479.998
478.594
476.469
473.68
470.221
466.163
461.567
456.557
451.235
445.641
439.846
433.935
427.958
422.051
416.364
411.007
406.065
401.596
397.632
394.17
391.194
388.661
386.516
384.693
383.111
381.72
380.495
379.336
378.232
377.192
376.204
375.216
374.245
373.311
372.41
371.505
370.608
463.667
471.003
477.351
482.683
486.982
490.322
492.705
494.102
494.607
494.25
493.239
491.576
489.352
486.553
483.195
479.342
475.071
470.466
465.53
460.286
454.773
448.988
443.04
437.049
431.109
425.302
419.702
414.378
409.417
404.88
400.815
397.244
394.149
391.486
389.22
387.306
385.685
384.257
382.963
381.796
380.725
379.667
378.64
377.665
376.726
375.781
374.857
373.967
373.098
372.236
371.379
502.647
504.837
506.157
506.705
506.485
505.718
504.371
502.56
500.263
497.474
494.254
490.643
486.733
482.503
477.948
473.089
467.9
462.434
456.791
451.031
445.202
439.348
433.529
427.824
422.315
417.075
412.169
407.648
403.553
399.904
396.722
393.972
391.598
389.59
387.893
386.424
385.137
383.921
382.804
381.781
380.806
379.82
378.858
377.934
377.03
376.128
375.25
374.402
373.567
372.749
371.934
517.312
516.679
515.533
514.001
512.056
509.691
506.957
503.872
500.539
496.926
493.016
488.816
484.298
479.468
474.411
469.169
463.761
458.202
452.524
446.797
441.079
435.419
429.872
424.497
419.357
414.515
410.026
405.932
402.251
399.011
396.205
393.761
391.649
389.862
388.319
386.98
385.781
384.693
383.658
382.674
381.74
380.832
379.917
379.023
378.156
377.301
376.455
375.631
374.833
374.044
373.277
372.514
520.464
518.098
515.423
512.539
509.415
506.032
502.388
498.464
494.237
489.784
485.131
480.286
475.251
470.022
464.659
459.195
453.661
448.097
442.538
437.009
431.573
426.311
421.282
416.534
412.108
408.039
404.352
401.062
398.186
395.672
393.505
391.658
390.064
388.683
387.482
386.381
385.399
384.477
383.564
382.683
381.834
380.991
380.143
379.313
378.502
377.701
376.914
376.145
375.4
374.662
373.949
373.24
517.504
514.319
510.896
507.191
503.278
499.173
494.879
490.392
485.697
480.82
475.79
470.631
465.367
460.015
454.583
449.119
443.671
438.295
433.035
427.934
423.039
418.39
414.032
409.999
406.32
403.007
400.073
397.506
395.285
393.379
391.738
390.318
389.091
388.025
387.047
386.154
385.318
384.505
383.685
382.885
382.103
381.318
380.53
379.757
378.999
378.252
377.521
376.806
376.112
375.426
374.765
374.111
511.603
507.801
503.819
499.635
495.266
490.73
486.039
481.203
476.229
471.132
465.934
460.659
455.346
450.031
444.748
439.531
434.418
429.448
424.666
420.117
415.837
411.855
408.197
404.879
401.913
399.298
397.019
395.055
393.368
391.913
390.66
389.576
388.634
387.774
386.964
386.2
385.467
384.733
383.99
383.255
382.525
381.79
381.057
380.337
379.631
378.937
378.26
377.597
376.954
376.319
375.71
375.11
504.068
499.84
495.46
490.927
486.249
481.437
476.511
471.489
466.391
461.239
456.059
450.881
445.737
440.661
435.689
430.856
426.198
421.751
417.547
413.62
409.992
406.682
403.699
401.047
398.718
396.698
394.962
393.472
392.188
391.084
390.143
389.297
388.53
387.818
387.129
386.46
385.802
385.13
384.446
383.763
383.079
382.393
381.712
381.042
380.386
379.744
379.118
378.506
377.913
377.329
376.771
376.222
495.501
490.973
486.326
481.569
476.715
471.779
466.782
461.744
456.692
451.651
446.648
441.713
436.877
432.172
427.631
423.286
419.168
415.305
411.718
408.426
405.439
402.762
400.394
398.323
396.534
394.999
393.684
392.554
391.592
390.767
390.009
389.328
388.699
388.094
387.494
386.897
386.293
385.669
385.033
384.395
383.756
383.116
382.484
381.863
381.256
380.664
380.087
379.523
378.978
378.443
377.934
377.434
486.332
481.633
476.853
472.007
467.115
462.193
457.264
452.353
447.484
442.684
437.982
433.404
428.982
424.742
420.713
416.917
413.378
410.113
407.133
404.444
402.047
399.934
398.097
396.512
395.156
393.993
393.009
392.169
391.431
390.769
390.169
389.613
389.086
388.561
388.025
387.477
386.913
386.331
385.738
385.141
384.544
383.95
383.364
382.79
382.23
381.684
381.154
380.636
380.135
379.647
379.183
378.729
472.186
467.395
462.585
457.778
452.994
448.256
443.588
439.016
434.564
430.258
426.124
422.185
418.464
414.98
411.75
408.786
406.095
403.679
401.534
399.653
398.022
396.62
395.42
394.4
393.54
392.797
392.148
391.571
391.05
390.569
390.108
389.65
389.178
388.686
388.176
387.647
387.101
386.547
385.99
385.434
384.883
384.341
383.811
383.295
382.792
382.303
381.827
381.368
380.921
380.498
380.085
462.932
458.242
453.582
448.972
444.433
439.988
435.659
431.469
427.44
423.595
419.951
416.529
413.341
410.402
407.717
405.291
403.122
401.205
399.532
398.084
396.843
395.783
394.892
394.129
393.481
392.913
392.413
391.97
391.559
391.161
390.762
390.351
389.916
389.457
388.978
388.48
387.969
387.45
386.931
386.413
385.902
385.4
384.91
384.432
383.968
383.517
383.079
382.656
382.245
381.857
381.478
454.125
449.64
445.226
440.905
436.697
432.622
428.699
424.947
421.385
418.028
414.889
411.981
409.312
406.884
404.701
402.756
401.045
399.554
398.27
397.167
396.239
395.452
394.78
394.216
393.723
393.301
392.926
392.578
392.24
391.896
391.539
391.16
390.752
390.32
389.867
389.398
388.918
388.433
387.947
387.464
386.989
386.522
386.067
385.624
385.193
384.774
384.367
383.975
383.595
383.236
382.884
441.777
437.687
433.724
429.906
426.25
422.77
419.482
416.398
413.528
410.881
408.46
406.269
404.304
402.563
401.034
399.707
398.563
397.591
396.773
396.073
395.49
394.997
394.581
394.227
393.913
393.622
393.339
393.049
392.743
392.413
392.054
391.668
391.258
390.829
390.386
389.934
389.478
389.022
388.57
388.125
387.689
387.264
386.849
386.445
386.052
385.67
385.301
384.944
384.607
384.274
434.783
431.069
427.507
424.112
420.895
417.869
415.043
412.425
410.018
407.827
405.85
404.084
402.523
401.157
399.973
398.957
398.1
397.368
396.756
396.249
395.825
395.479
395.185
394.928
394.689
394.455
394.214
393.956
393.672
393.359
393.017
392.648
392.256
391.847
391.427
390.998
390.567
390.137
389.711
389.291
388.879
388.476
388.083
387.699
387.325
386.961
386.609
386.268
385.944
385.623
428.726
425.415
422.272
419.307
416.529
413.945
411.558
409.374
407.39
405.607
404.02
402.62
401.397
400.338
399.44
398.673
398.028
397.492
397.052
396.698
396.411
396.172
395.964
395.772
395.584
395.387
395.173
394.933
394.662
394.361
394.03
393.673
393.297
392.905
392.502
392.093
391.681
391.271
390.864
390.463
390.069
389.682
389.303
388.933
388.57
388.217
387.874
387.541
387.222
386.905
423.615
420.714
417.987
415.441
413.08
410.908
408.926
407.132
405.524
404.095
402.837
401.738
400.798
399.996
399.312
398.742
398.276
397.902
397.607
397.372
397.18
397.017
396.868
396.721
396.565
396.39
396.19
395.958
395.694
395.398
395.075
394.728
394.362
393.981
393.592
393.196
392.799
392.402
392.008
391.619
391.235
390.858
390.486
390.121
389.763
389.412
389.071
388.738
388.417
388.095
419.419
416.915
414.585
412.431
410.454
408.656
407.033
405.581
404.292
403.159
402.177
401.338
400.614
400.008
399.508
399.104
398.789
398.545
398.356
398.206
398.083
397.971
397.861
397.741
397.603
397.438
397.242
397.012
396.748
396.454
396.134
395.791
395.431
395.058
394.676
394.289
393.899
393.509
393.121
392.737
392.356
391.98
391.609
391.242
390.881
390.526
390.178
389.837
389.507
389.173
416.072
413.941
411.976
410.178
408.545
407.075
405.76
404.595
403.575
402.697
401.937
401.293
400.754
400.314
399.972
399.707
399.507
399.358
399.245
399.155
399.077
398.999
398.912
398.806
398.673
398.508
398.309
398.074
397.807
397.51
397.188
396.846
396.487
396.115
395.735
395.349
394.96
394.571
394.182
393.795
393.411
393.029
392.651
392.275
391.904
391.537
391.176
390.821
390.473
390.121
413.489
411.696
410.06
408.576
407.24
406.048
404.993
404.076
403.283
402.598
402.021
401.542
401.164
400.87
400.649
400.487
400.371
400.29
400.231
400.181
400.132
400.073
399.994
399.89
399.752
399.58
399.371
399.127
398.852
398.548
398.22
397.872
397.508
397.132
396.747
396.357
395.963
395.567
395.171
394.775
394.379
393.985
393.593
393.202
392.814
392.428
392.048
391.672
391.302
390.924
410.083
408.73
407.514
406.431
405.478
404.651
403.927
403.311
402.792
402.373
402.043
401.792
401.608
401.479
401.392
401.338
401.303
401.279
401.254
401.219
401.165
401.084
400.971
400.821
400.635
400.411
400.154
399.865
399.549
399.209
398.851
398.477
398.091
397.696
397.294
396.889
396.48
396.069
395.658
395.245
394.832
394.42
394.007
393.596
393.187
392.781
392.379
391.98
391.573
408.992
407.885
406.899
406.037
405.279
404.625
404.066
403.604
403.235
402.948
402.733
402.58
402.477
402.416
402.383
402.37
402.365
402.36
402.346
402.312
402.252
402.159
402.029
401.861
401.655
401.412
401.136
400.829
400.496
400.14
399.766
399.376
398.974
398.563
398.145
397.721
397.294
396.863
396.43
395.994
395.557
395.119
394.679
394.24
393.803
393.367
392.933
392.501
392.059
408.338
407.444
406.654
405.961
405.365
404.859
404.449
404.122
403.87
403.686
403.558
403.478
403.437
403.423
403.426
403.438
403.448
403.449
403.433
403.39
403.313
403.2
403.047
402.855
402.624
402.357
402.057
401.728
401.373
400.996
400.601
400.19
399.767
399.335
398.894
398.447
397.995
397.539
397.078
396.615
396.148
395.68
395.209
394.738
394.267
393.797
393.328
392.86
392.38
407.322
406.688
406.142
405.688
405.318
405.027
404.805
404.645
404.539
404.477
404.451
404.451
404.468
404.492
404.515
404.527
404.523
404.494
404.431
404.33
404.19
404.008
403.787
403.527
403.232
402.904
402.548
402.166
401.763
401.342
400.906
400.457
399.998
399.53
399.055
398.574
398.087
397.595
397.099
396.6
396.097
395.592
395.085
394.577
394.07
393.563
393.055
392.536
407.451
406.953
406.541
406.207
405.944
405.747
405.607
405.517
405.469
405.455
405.465
405.491
405.525
405.557
405.578
405.581
405.562
405.51
405.419
405.287
405.114
404.899
404.644
404.351
404.023
403.663
403.276
402.864
402.43
401.979
401.513
401.033
400.543
400.044
399.536
399.021
398.501
397.974
397.442
396.906
396.366
395.823
395.278
394.731
394.187
393.645
393.103
392.548
407.413
407.108
406.869
406.691
406.566
406.489
406.451
406.445
406.461
406.494
406.533
406.57
406.597
406.606
406.591
406.547
406.463
406.337
406.169
405.959
405.706
405.414
405.083
404.719
404.324
403.901
403.454
402.987
402.502
402.001
401.488
400.963
400.428
399.885
399.333
398.776
398.211
397.64
397.065
396.487
395.909
395.33
394.749
394.168
393.587
393.005
392.412
408.016
407.796
407.632
407.519
407.45
407.419
407.417
407.437
407.472
407.514
407.553
407.583
407.594
407.582
407.54
407.461
407.339
407.174
406.965
406.713
406.419
406.085
405.714
405.31
404.876
404.415
403.931
403.426
402.904
402.366
401.815
401.252
400.68
400.098
399.507
398.909
398.308
397.703
397.093
396.478
395.862
395.245
394.626
394.006
393.385
392.761
392.127
408.568
408.462
408.398
408.37
408.37
408.39
408.424
408.465
408.504
408.533
408.544
408.532
408.491
408.412
408.292
408.127
407.918
407.665
407.367
407.028
406.65
406.236
405.789
405.313
404.811
404.287
403.742
403.18
402.603
402.012
401.409
400.796
400.178
399.552
398.919
398.28
397.636
396.987
396.335
395.678
395.02
394.362
393.702
393.042
392.379
391.705
409.392
409.33
409.301
409.3
409.317
409.349
409.386
409.421
409.447
409.455
409.441
409.397
409.317
409.195
409.029
408.818
408.561
408.259
407.914
407.527
407.102
406.643
406.151
405.631
405.086
404.519
403.932
403.328
402.71
402.082
401.443
400.794
400.137
399.472
398.8
398.121
397.436
396.747
396.054
395.359
394.663
393.965
393.268
392.57
391.869
391.158
410.243
410.211
410.205
410.218
410.243
410.274
410.303
410.323
410.326
410.307
410.259
410.174
410.049
409.88
409.665
409.403
409.095
408.742
408.347
407.911
407.437
406.93
406.392
405.826
405.236
404.625
404
403.358
402.702
402.034
401.356
400.668
399.969
399.263
398.55
397.831
397.107
396.379
395.648
394.915
394.182
393.448
392.714
391.98
391.244
390.501
411.097
411.085
411.089
411.106
411.129
411.15
411.161
411.157
411.131
411.076
410.985
410.854
410.68
410.46
410.192
409.877
409.516
409.11
408.662
408.175
407.652
407.095
406.509
405.901
405.271
404.62
403.953
403.271
402.574
401.865
401.144
400.415
399.676
398.93
398.177
397.419
396.657
395.892
395.125
394.357
393.588
392.82
392.052
391.285
390.518
389.746
411.936
411.932
411.938
411.95
411.96
411.961
411.948
411.912
411.848
411.75
411.612
411.431
411.203
410.929
410.606
410.236
409.819
409.359
408.858
408.319
407.746
407.146
406.517
405.865
405.192
404.499
403.788
403.063
402.324
401.573
400.812
400.042
399.265
398.48
397.69
396.895
396.097
395.297
394.495
393.694
392.892
392.092
391.294
390.499
389.704
388.904
412.742
412.737
412.736
412.733
412.723
412.698
412.652
412.578
412.47
412.323
412.133
411.898
411.615
411.283
410.903
410.476
410.004
409.489
408.937
408.351
407.732
407.085
406.412
405.714
404.996
404.259
403.505
402.738
401.958
401.168
400.368
399.559
398.744
397.922
397.097
396.267
395.435
394.602
393.769
392.936
392.105
391.277
390.453
389.631
388.811
387.986
413.503
413.488
413.471
413.447
413.409
413.35
413.264
413.145
412.988
412.789
412.544
412.252
411.911
411.521
411.083
410.598
410.073
409.508
408.907
408.273
407.606
406.91
406.19
405.447
404.685
403.906
403.111
402.303
401.484
400.655
399.818
398.973
398.122
397.266
396.407
395.545
394.682
393.818
392.956
392.095
391.239
390.386
389.538
388.693
387.849
387.003
414.173
414.133
414.08
414.008
413.909
413.777
413.609
413.399
413.145
412.842
412.491
412.09
411.641
411.148
410.612
410.035
409.419
408.766
408.08
407.365
406.623
405.857
405.071
404.267
403.446
402.612
401.766
400.909
400.044
399.171
398.291
397.407
396.519
395.629
394.737
393.846
392.955
392.067
391.183
390.303
389.429
388.559
387.693
386.83
385.966
414.782
414.714
414.626
414.512
414.368
414.187
413.966
413.7
413.387
413.026
412.614
412.157
411.654
411.107
410.517
409.886
409.216
408.513
407.778
407.016
406.228
405.42
404.592
403.747
402.887
402.015
401.133
400.241
399.341
398.435
397.523
396.608
395.691
394.772
393.854
392.936
392.022
391.112
390.207
389.308
388.413
387.525
386.642
385.763
384.885
415.309
415.205
415.077
414.918
414.724
414.491
414.213
413.889
413.516
413.097
412.631
412.118
411.56
410.956
410.31
409.625
408.905
408.152
407.371
406.564
405.733
404.883
404.015
403.132
402.236
401.328
400.411
399.486
398.554
397.618
396.677
395.734
394.789
393.845
392.903
391.964
391.03
390.1
389.177
388.26
387.349
386.445
385.548
384.657
383.769
415.603
415.429
415.221
414.974
414.685
414.349
413.967
413.539
413.064
412.541
411.97
411.354
410.695
409.996
409.26
408.491
407.691
406.865
406.015
405.144
404.255
403.349
402.43
401.499
400.558
399.609
398.653
397.692
396.727
395.76
394.791
393.823
392.857
391.895
390.937
389.985
389.039
388.1
387.168
386.244
385.329
384.421
383.521
382.626
415.903
415.68
415.42
415.117
414.771
414.38
413.943
413.458
412.924
412.342
411.714
411.042
410.329
409.579
408.795
407.979
407.135
406.267
405.377
404.467
403.541
402.6
401.647
400.684
399.712
398.733
397.749
396.761
395.771
394.779
393.789
392.8
391.816
390.836
389.862
388.895
387.935
386.983
386.04
385.107
384.183
383.268
382.362
381.464
416.102
415.827
415.512
415.157
414.756
414.31
413.814
413.269
412.676
412.037
411.354
410.629
409.865
409.067
408.236
407.376
406.491
405.582
404.654
403.708
402.748
401.774
400.79
399.797
398.797
397.791
396.781
395.769
394.756
393.744
392.735
391.729
390.729
389.734
388.746
387.767
386.796
385.835
384.884
383.943
383.014
382.095
381.187
380.287
416.198
415.874
415.507
415.097
414.639
414.133
413.578
412.975
412.326
411.632
410.896
410.12
409.309
408.464
407.59
406.688
405.764
404.818
403.854
402.875
401.882
400.878
399.865
398.845
397.819
396.789
395.756
394.723
393.691
392.662
391.636
390.616
389.601
388.594
387.596
386.607
385.628
384.66
383.704
382.76
381.828
380.908
380
379.103
415.824
415.403
414.934
414.418
413.853
413.241
412.582
411.878
411.132
410.345
409.522
408.665
407.777
406.861
405.921
404.96
403.979
402.983
401.972
400.95
399.918
398.879
397.834
396.785
395.733
394.682
393.631
392.582
391.537
390.498
389.465
388.439
387.423