/*--------------------------------*- C++ -*----------------------------------*\
| =========                 |                                                 |
| \\      /  F ield         | OpenFOAM: The Open Source CFD Toolbox           |
|  \\    /   O peration     | Version:  v1706                                 |
|   \\  /    A nd           | Web:      www.OpenFOAM.com                      |
|    \\/     M anipulation  |                                                 |
\*---------------------------------------------------------------------------*/
FoamFile
{
    version     2.0;
    format      ascii;
    class       volScalarField;
    location    "1.5e-05";
    object      Tv;
}
// * * * * * * * * * * * * * * * * * * * * * * * * * * * * * * * * * * * * * //

dimensions      [0 0 0 1 0 0 0];


internalField   nonuniform List<scalar> 
30038
(
144.4
144.4
144.4
144.4
144.4
144.4
144.4
144.4
144.4
144.4
144.4
144.4
144.4
144.4
144.4
144.4
144.4
144.4
144.4
144.4
144.4
144.4
144.4
144.4
144.4
144.4
144.4
144.4
144.4
144.4
144.4
144.4
144.4
144.4
144.4
144.4
144.4
144.4
144.4
144.4
144.4
144.4
144.4
144.4
144.4
144.4
144.4
144.4
144.4
144.4
144.4
144.4
144.4
144.4
144.4
144.4
144.4
144.4
144.4
144.4
144.4
144.4
144.4
144.4
144.4
144.4
144.4
144.4
144.4
144.4
144.4
144.4
144.4
144.4
144.4
144.4
144.4
144.4
144.4
144.4
144.4
144.4
144.4
144.4
144.4
144.4
144.4
144.4
144.4
144.4
144.4
144.4
144.4
144.4
144.4
144.4
144.4
144.4
144.4
144.4
144.4
144.4
144.4
144.4
144.4
144.4
144.4
144.4
144.4
144.4
144.4
144.4
144.4
144.4
144.4
144.4
144.4
144.4
144.4
144.4
144.4
144.4
144.4
144.4
144.4
144.4
144.4
144.4
144.4
144.4
144.4
144.4
144.4
144.4
144.4
144.4
144.4
144.4
144.4
144.4
144.4
144.4
144.4
144.4
144.4
144.4
144.4
144.4
144.4
144.4
144.4
144.4
144.4
144.4
144.4
144.4
144.4
144.4
144.4
144.4
144.4
144.4
144.4
144.4
144.4
144.4
144.4
144.4
144.4
144.4
144.4
144.4
144.4
144.4
144.4
144.4
144.4
144.4
144.4
144.4
144.4
144.4
144.4
144.4
144.4
144.4
144.4
144.4
144.4
144.4
144.4
144.4
144.4
144.4
144.4
144.4
144.4
144.4
144.4
144.4
144.4
144.4
144.4
144.4
144.4
144.4
144.4
144.4
144.4
144.4
144.4
144.4
144.4
144.4
144.4
144.4
144.4
144.4
144.4
144.4
144.4
144.4
144.4
144.4
144.4
144.4
144.4
144.4
144.4
144.4
144.4
144.4
144.4
144.4
144.4
144.4
144.4
144.4
144.4
144.4
144.4
144.4
144.4
144.4
144.4
144.4
144.4
144.4
144.4
144.4
144.4
144.4
144.4
144.4
144.4
144.4
144.4
144.4
144.4
144.4
144.4
144.4
144.4
144.4
144.4
144.4
144.4
144.4
144.4
144.4
144.4
144.4
144.4
144.4
144.4
144.4
144.4
144.4
144.4
144.4
144.4
144.4
144.4
144.4
144.4
144.4
144.4
144.4
144.4
144.4
144.4
144.4
144.4
144.4
144.4
144.4
144.4
144.4
144.4
144.4
144.4
144.4
144.4
144.4
144.4
144.4
144.4
144.4
144.4
144.4
144.4
144.4
144.4
144.4
144.4
144.4
144.4
144.4
144.4
144.4
144.4
144.4
144.4
144.4
144.4
144.4
144.4
144.4
144.4
144.4
144.4
144.4
144.4
144.4
144.4
144.4
144.4
144.4
144.4
144.4
144.4
144.4
144.4
144.4
144.4
144.4
144.4
144.4
144.4
144.4
144.4
144.4
144.4
144.4
144.4
144.4
144.4
144.4
144.4
144.4
144.4
144.4
144.4
144.4
144.4
144.4
144.4
144.4
144.4
144.4
144.4
144.4
144.4
144.4
144.4
144.4
144.4
144.4
144.4
144.4
144.4
144.4
144.4
144.4
144.4
144.4
144.4
144.4
144.4
144.4
144.4
144.4
144.4
144.4
144.4
144.4
144.4
144.4
144.4
144.4
144.4
144.4
144.4
144.4
144.4
144.4
144.4
144.4
144.4
144.4
144.4
144.4
144.4
144.4
144.4
144.4
144.4
144.4
144.4
144.4
144.4
144.4
144.4
144.4
144.4
144.4
144.4
144.4
144.4
144.4
144.4
144.4
144.4
144.4
144.4
144.4
144.4
144.4
144.4
144.4
144.4
144.4
144.4
144.4
144.4
144.4
144.4
144.4
144.4
144.4
144.4
144.4
144.4
144.4
144.4
144.4
144.4
144.4
144.4
144.4
144.4
144.4
144.4
144.4
144.4
144.4
144.4
144.4
144.4
144.4
144.4
144.4
144.4
144.4
144.4
144.4
144.4
144.4
144.4
144.4
144.4
144.4
144.4
144.4
144.4
144.4
144.4
144.4
144.4
144.4
144.4
144.4
144.4
144.4
144.4
144.4
144.4
144.4
144.4
144.4
144.4
144.4
144.4
144.4
144.4
144.4
144.4
144.4
144.4
144.4
144.4
144.4
144.4
144.4
144.4
144.4
144.4
144.4
144.4
144.4
144.4
144.4
144.4
144.4
144.4
144.4
144.4
144.4
144.4
144.4
144.4
144.4
144.4
144.4
144.4
144.4
144.4
144.4
144.4
144.4
144.4
144.4
144.4
144.4
144.4
144.4
144.4
144.4
144.4
144.4
144.4
144.4
144.4
144.4
144.4
144.4
144.4
144.4
144.4
144.4
144.4
144.4
144.4
144.4
144.4
144.4
144.4
144.4
144.4
144.4
144.4
144.4
144.4
144.4
144.4
144.4
144.4
144.4
144.4
144.4
144.4
144.4
144.4
144.4
144.4
144.4
144.4
144.4
144.4
144.4
144.4
144.4
144.4
144.4
144.4
144.4
144.4
144.4
144.4
144.4
144.4
144.4
144.4
144.4
144.4
144.4
144.4
144.4
144.4
144.4
144.4
144.4
144.4
144.4
144.4
144.4
144.4
144.4
144.4
144.4
144.4
144.4
144.4
144.4
144.4
144.4
144.4
144.4
144.4
144.4
144.4
144.4
144.4
144.4
144.4
144.4
144.4
144.4
144.4
144.4
144.4
144.4
144.4
144.4
144.4
144.4
144.4
144.4
144.4
144.4
144.4
144.4
144.4
144.4
144.4
144.4
144.4
144.4
144.4
144.4
144.4
144.4
144.4
144.4
144.4
144.4
144.4
144.4
144.4
144.4
144.4
144.4
144.4
144.4
144.4
144.4
144.4
144.4
144.4
144.4
144.4
144.4
144.4
144.4
144.4
144.4
144.4
144.4
144.4
144.4
144.4
144.4
144.4
144.4
144.4
144.4
144.4
144.4
144.4
144.4
144.4
144.4
144.4
144.4
144.4
144.4
144.4
144.4
144.4
144.4
144.4
144.4
144.4
144.4
144.4
144.4
144.4
144.4
144.4
144.4
144.4
144.4
144.4
144.4
144.4
144.4
144.4
144.4
144.4
144.4
144.4
144.4
144.4
144.4
144.4
144.4
144.4
144.4
144.4
144.4
144.4
144.4
144.4
144.4
144.4
144.4
144.4
144.4
144.4
144.4
144.4
144.4
144.4
144.4
144.4
144.4
144.4
144.4
144.4
144.4
144.4
144.4
144.4
144.4
144.4
144.4
144.4
144.4
144.4
144.4
144.4
144.4
144.4
144.4
144.4
144.4
144.4
144.4
144.4
144.4
144.4
144.4
144.4
144.4
144.4
144.4
144.4
144.4
144.4
144.4
144.4
144.4
144.4
144.4
144.4
144.4
144.4
144.4
144.4
144.4
144.4
144.4
144.4
144.4
144.4
144.4
144.4
144.4
144.4
144.4
144.4
144.4
144.4
144.4
144.4
144.4
144.4
144.4
144.4
144.4
144.4
144.4
144.4
144.4
144.4
144.4
144.4
144.4
144.4
144.4
144.4
144.4
144.4
144.4
144.4
144.4
144.4
144.4
144.4
144.4
144.4
144.4
144.4
144.4
144.4
144.4
144.4
144.4
144.4
144.4
144.4
144.4
144.4
144.4
144.4
144.4
144.4
144.4
144.4
144.4
144.4
144.4
144.4
144.4
144.4
144.4
144.4
144.4
144.4
144.4
144.4
144.4
144.4
144.4
144.4
144.4
144.4
144.4
144.4
144.4
144.4
144.4
144.4
144.4
144.4
144.4
144.4
144.4
144.4
144.4
144.4
144.4
144.4
144.4
144.4
144.4
144.4
144.4
144.4
144.4
144.4
144.4
144.4
144.4
144.4
144.4
144.4
144.4
144.4
144.4
144.4
144.4
144.4
144.4
144.4
144.4
144.4
144.4
144.4
144.4
144.4
144.4
144.4
144.4
144.4
144.4
144.4
144.4
144.4
144.4
144.4
144.4
144.4
144.4
144.4
144.4
144.4
144.4
144.4
144.4
144.4
144.4
144.4
144.4
144.4
144.4
144.4
144.4
144.4
144.4
144.4
144.4
144.4
144.4
144.4
144.4
144.4
144.4
144.4
144.4
144.4
144.4
144.4
144.4
144.4
144.4
144.4
144.4
144.4
144.4
144.4
144.4
144.4
144.4
144.4
144.4
144.4
144.4
144.4
144.4
144.4
144.4
144.4
144.4
144.4
144.4
144.4
144.4
144.4
144.4
144.4
144.4
144.4
144.4
144.4
144.4
144.4
144.4
144.4
144.4
144.4
144.4
144.4
144.4
144.4
144.4
144.4
144.4
144.4
144.4
144.4
144.4
144.4
144.4
144.4
144.4
144.4
144.4
144.4
144.4
144.4
144.4
144.4
144.4
144.4
144.4
144.4
144.4
144.4
144.4
144.4
144.4
144.4
144.4
144.4
144.4
144.4
144.4
144.4
144.4
144.4
144.4
144.4
144.4
144.4
144.4
144.4
144.4
144.4
144.4
144.4
144.4
144.4
144.4
144.4
144.4
144.4
144.4
144.4
144.4
144.4
144.4
144.4
144.4
144.4
144.4
144.4
144.4
144.4
144.4
144.4
144.4
144.4
144.4
144.4
144.4
144.4
144.4
144.4
144.4
144.4
144.4
144.4
144.4
144.4
144.4
144.4
144.4
144.4
144.4
144.4
144.4
144.4
144.4
144.4
144.4
144.4
144.4
144.4
144.4
144.4
144.4
144.4
144.4
144.4
144.4
144.4
144.4
144.4
144.4
144.4
144.4
144.4
144.4
144.4
144.4
144.4
144.4
144.4
144.4
144.4
144.4
144.4
144.4
144.4
144.4
144.4
144.4
144.4
144.4
144.4
144.4
144.4
144.4
144.4
144.4
144.4
144.4
144.4
144.4
144.4
144.4
144.4
144.4
144.4
144.4
144.4
144.4
144.4
144.4
144.4
144.4
144.4
144.4
144.4
144.4
144.4
144.4
144.4
144.4
144.4
144.4
144.4
144.4
144.4
144.4
144.4
144.4
144.4
144.4
144.4
144.4
144.4
144.4
144.4
144.4
144.4
144.4
144.4
144.4
144.4
144.4
144.4
144.4
144.4
144.4
144.4
144.4
144.4
144.4
144.4
144.4
144.4
144.4
144.4
144.4
144.4
144.4
144.4
144.4
144.4
144.4
144.4
144.4
144.4
144.4
144.4
144.4
144.4
144.4
144.4
144.4
144.4
144.4
144.4
144.4
144.4
144.4
144.4
144.4
144.4
144.4
144.4
144.4
144.4
144.4
144.4
144.4
144.4
144.4
144.4
144.4
144.4
144.4
144.4
144.4
144.4
144.4
144.4
144.4
144.4
144.4
144.4
144.4
144.4
144.4
144.4
144.4
144.4
144.4
144.4
144.4
144.4
144.4
144.4
144.4
144.4
144.4
144.4
144.4
144.4
144.4
144.4
144.4
144.4
144.4
144.4
144.4
144.4
144.4
144.4
144.4
144.4
144.4
144.4
144.4
144.4
144.4
144.4
144.4
144.4
144.4
144.4
144.4
144.4
144.4
144.4
144.4
144.4
144.4
144.4
144.4
144.4
144.4
144.4
144.4
144.4
144.4
144.4
144.4
144.4
144.4
144.4
144.4
144.4
144.4
144.4
144.4
144.4
144.4
144.4
144.4
144.4
144.4
144.4
144.4
144.4
144.4
144.4
144.4
144.4
144.4
144.4
144.4
144.4
144.4
144.4
144.4
144.4
144.4
144.4
144.4
144.4
144.4
144.4
144.4
144.4
144.4
144.4
144.4
144.4
144.4
144.4
144.4
144.4
144.4
144.4
144.4
144.4
144.4
144.4
144.4
144.4
144.4
144.4
144.4
144.4
144.4
144.4
144.4
144.4
144.4
144.4
144.4
144.4
144.4
144.4
144.4
144.4
144.4
144.4
144.4
144.4
144.4
144.4
144.4
144.4
144.4
144.4
144.4
144.4
144.4
144.4
144.4
144.4
144.4
144.4
144.4
144.4
144.4
144.4
144.4
144.4
144.4
144.4
144.4
144.4
144.4
144.4
144.4
144.4
144.4
144.4
144.4
144.4
144.4
144.4
144.4
144.4
144.4
144.4
144.4
144.4
144.4
144.4
144.4
144.4
144.4
144.4
144.4
144.4
144.4
144.4
144.4
144.4
144.4
144.4
144.4
144.4
144.4
144.4
144.4
144.4
144.4
144.4
144.4
144.4
144.4
144.4
144.4
144.4
144.4
144.4
144.4
144.4
144.4
144.4
144.4
144.4
144.4
144.4
144.4
144.4
144.4
144.4
144.4
144.4
144.4
144.4
144.4
144.4
144.4
144.4
144.4
144.4
144.4
144.4
144.4
144.4
144.4
144.4
144.4
144.4
144.4
144.4
144.4
144.4
144.4
144.4
144.4
144.4
144.4
144.4
144.4
144.4
144.4
144.4
144.4
144.4
144.4
144.4
144.4
144.4
144.4
144.4
144.4
144.4
144.4
144.4
144.4
144.4
144.4
144.4
144.4
144.4
144.4
144.4
144.4
144.4
144.4
144.4
144.4
144.4
144.4
144.4
144.4
144.4
144.4
144.4
144.4
144.4
144.4
144.4
144.4
144.4
144.4
144.4
144.4
144.4
144.4
144.4
144.4
144.4
144.4
144.4
144.4
144.4
144.4
144.4
144.4
144.4
144.4
144.4
144.4
144.4
144.4
144.4
144.4
144.4
144.4
144.4
144.4
144.4
144.4
144.4
144.4
144.4
144.4
144.4
144.4
144.4
144.4
144.4
144.4
144.4
144.4
144.4
144.4
144.4
144.4
144.4
144.4
144.4
144.4
144.4
144.4
144.4
144.4
144.4
144.4
144.4
144.4
144.4
144.4
144.4
144.4
144.401
144.401
144.401
144.401
144.401
144.401
144.4
144.4
144.4
144.4
144.4
144.4
144.4
144.4
144.4
144.4
144.4
144.4
144.4
144.4
144.4
144.4
144.4
144.4
144.4
144.4
144.4
144.4
144.401
144.401
144.401
144.401
144.401
144.401
144.401
144.401
144.401
144.401
144.401
144.401
144.401
144.401
144.401
144.401
144.401
144.401
144.401
144.401
144.401
144.401
144.402
144.402
144.402
144.402
144.402
144.403
144.4
144.4
144.4
144.4
144.4
144.4
144.4
144.4
144.401
144.401
144.401
144.401
144.401
144.401
144.401
144.401
144.401
144.401
144.401
144.401
144.401
144.401
144.401
144.401
144.401
144.401
144.401
144.401
144.401
144.401
144.401
144.401
144.402
144.402
144.402
144.402
144.402
144.402
144.402
144.403
144.403
144.403
144.404
144.404
144.405
144.405
144.406
144.406
144.407
144.408
144.401
144.401
144.401
144.401
144.401
144.401
144.401
144.401
144.402
144.402
144.402
144.402
144.402
144.402
144.402
144.402
144.402
144.403
144.403
144.403
144.403
144.403
144.403
144.403
144.403
144.403
144.403
144.403
144.403
144.403
144.403
144.403
144.404
144.404
144.404
144.405
144.405
144.406
144.406
144.407
144.408
144.409
144.41
144.411
144.412
144.414
144.415
144.417
144.419
144.421
144.402
144.402
144.402
144.403
144.403
144.403
144.403
144.404
144.404
144.404
144.404
144.404
144.405
144.405
144.405
144.405
144.405
144.405
144.405
144.406
144.406
144.406
144.406
144.406
144.406
144.406
144.406
144.407
144.407
144.407
144.408
144.408
144.409
144.409
144.41
144.411
144.413
144.414
144.416
144.418
144.42
144.422
144.424
144.427
144.43
144.434
144.437
144.441
144.445
144.45
144.405
144.405
144.406
144.406
144.407
144.407
144.407
144.408
144.408
144.408
144.409
144.409
144.409
144.41
144.41
144.41
144.41
144.411
144.411
144.411
144.411
144.412
144.412
144.412
144.413
144.413
144.414
144.414
144.415
144.416
144.417
144.419
144.42
144.422
144.425
144.427
144.43
144.434
144.438
144.442
144.447
144.452
144.458
144.464
144.471
144.478
144.486
144.495
144.504
144.515
144.411
144.412
144.412
144.413
144.414
144.414
144.415
144.415
144.416
144.416
144.417
144.417
144.418
144.418
144.419
144.419
144.42
144.42
144.421
144.421
144.422
144.423
144.424
144.425
144.426
144.427
144.429
144.43
144.433
144.435
144.438
144.442
144.446
144.451
144.456
144.462
144.469
144.477
144.485
144.495
144.505
144.517
144.529
144.542
144.556
144.572
144.588
144.605
144.623
144.644
144.421
144.422
144.423
144.424
144.425
144.426
144.427
144.428
144.429
144.429
144.43
144.431
144.432
144.433
144.434
144.435
144.436
144.437
144.438
144.439
144.441
144.443
144.444
144.447
144.449
144.452
144.455
144.459
144.464
144.469
144.475
144.482
144.49
144.5
144.51
144.522
144.535
144.549
144.565
144.583
144.602
144.623
144.646
144.67
144.696
144.724
144.753
144.784
144.817
144.851
144.89
144.438
144.44
144.442
144.443
144.445
144.446
144.448
144.45
144.451
144.453
144.454
144.456
144.458
144.46
144.461
144.464
144.466
144.468
144.471
144.474
144.478
144.482
144.486
144.491
144.497
144.504
144.512
144.521
144.531
144.543
144.556
144.571
144.588
144.607
144.628
144.652
144.678
144.707
144.738
144.772
144.809
144.849
144.891
144.936
144.984
145.034
145.086
145.141
145.198
145.256
145.323
144.465
144.468
144.47
144.473
144.476
144.478
144.481
144.484
144.486
144.489
144.492
144.495
144.499
144.502
144.506
144.51
144.515
144.52
144.526
144.532
144.539
144.547
144.555
144.565
144.577
144.589
144.604
144.62
144.639
144.66
144.684
144.71
144.74
144.773
144.81
144.851
144.896
144.945
144.998
145.055
145.116
145.182
145.251
145.325
145.402
145.482
145.566
145.653
145.742
145.833
145.927
146.031
144.512
144.516
144.52
144.524
144.529
144.533
144.538
144.543
144.548
144.554
144.56
144.566
144.573
144.58
144.588
144.597
144.607
144.617
144.629
144.642
144.656
144.672
144.69
144.711
144.733
144.759
144.788
144.82
144.856
144.897
144.942
144.992
145.048
145.108
145.175
145.247
145.326
145.411
145.501
145.598
145.7
145.807
145.92
146.037
146.159
146.284
146.412
146.543
146.676
146.81
146.945
147.094
144.587
144.593
144.601
144.608
144.616
144.625
144.633
144.643
144.653
144.663
144.675
144.687
144.7
144.714
144.73
144.747
144.766
144.787
144.81
144.835
144.863
144.894
144.929
144.968
145.011
145.059
145.113
145.172
145.238
145.31
145.39
145.477
145.572
145.675
145.786
145.905
146.033
146.168
146.31
146.459
146.615
146.776
146.943
147.114
147.288
147.465
147.644
147.824
148.004
148.183
148.361
148.555
144.707
144.719
144.732
144.745
144.759
144.774
144.79
144.807
144.825
144.845
144.866
144.889
144.913
144.94
144.969
145.001
145.036
145.075
145.117
145.163
145.215
145.271
145.334
145.403
145.479
145.563
145.655
145.756
145.866
145.986
146.115
146.255
146.405
146.565
146.735
146.915
147.103
147.3
147.504
147.715
147.931
148.152
148.376
148.603
148.831
149.059
149.287
149.512
149.735
149.954
150.168
150.398
144.899
144.919
144.941
144.965
144.989
145.016
145.044
145.074
145.106
145.14
145.177
145.218
145.261
145.308
145.36
145.416
145.477
145.544
145.617
145.697
145.784
145.88
145.984
146.098
146.222
146.357
146.503
146.66
146.83
147.011
147.204
147.409
147.625
147.852
148.089
148.335
148.59
148.851
149.118
149.39
149.664
149.94
150.217
150.493
150.767
151.038
151.304
151.565
151.82
152.066
152.306
152.56
145.198
145.233
145.269
145.308
145.35
145.394
145.441
145.492
145.546
145.604
145.666
145.733
145.806
145.885
145.97
146.062
146.162
146.27
146.388
146.515
146.653
146.802
146.962
147.135
147.32
147.519
147.73
147.955
148.192
148.443
148.705
148.98
149.264
149.559
149.861
150.171
150.486
150.805
151.127
151.449
151.771
152.09
152.407
152.719
153.026
153.326
153.618
153.901
154.174
154.437
154.689
154.953
145.652
145.708
145.767
145.829
145.896
145.966
146.042
146.122
146.208
146.301
146.399
146.505
146.619
146.741
146.873
147.014
147.166
147.328
147.502
147.689
147.888
148.101
148.327
148.567
148.82
149.087
149.368
149.661
149.967
150.285
150.613
150.951
151.296
151.649
152.006
152.367
152.73
153.093
153.454
153.813
154.167
154.516
154.858
155.193
155.518
155.834
156.138
156.431
156.711
156.977
157.231
157.496
146.402
146.491
146.586
146.687
146.794
146.908
147.029
147.158
147.295
147.441
147.597
147.762
147.939
148.127
148.326
148.538
148.763
149.001
149.253
149.518
149.797
150.09
150.396
150.715
151.046
151.39
151.745
152.11
152.485
152.866
153.255
153.647
154.043
154.441
154.838
155.233
155.624
156.011
156.391
156.764
157.128
157.482
157.826
158.158
158.478
158.784
159.076
159.353
159.615
159.863
160.119
147.367
147.497
147.633
147.777
147.93
148.091
148.261
148.441
148.631
148.832
149.045
149.269
149.505
149.753
150.015
150.289
150.577
150.877
151.191
151.518
151.858
152.21
152.573
152.948
153.334
153.729
154.132
154.543
154.959
155.38
155.803
156.228
156.652
157.074
157.493
157.906
158.313
158.711
159.101
159.48
159.849
160.205
160.548
160.878
161.194
161.494
161.778
162.046
162.298
162.533
162.776
148.643
148.819
149.003
149.197
149.4
149.614
149.838
150.073
150.319
150.577
150.847
151.129
151.423
151.73
152.049
152.38
152.724
153.079
153.446
153.825
154.214
154.613
155.022
155.44
155.865
156.297
156.735
157.177
157.621
158.067
158.512
158.955
159.395
159.83
160.258
160.678
161.089
161.49
161.88
162.258
162.622
162.973
163.309
163.63
163.936
164.224
164.496
164.75
164.987
165.207
165.432
150.464
150.699
150.944
151.199
151.465
151.742
152.03
152.33
152.641
152.963
153.297
153.642
153.999
154.366
154.745
155.133
155.532
155.941
156.359
156.785
157.219
157.66
158.108
158.561
159.017
159.477
159.937
160.398
160.857
161.313
161.764
162.21
162.648
163.077
163.496
163.904
164.301
164.684
165.054
165.409
165.749
166.073
166.382
166.673
166.946
167.202
167.44
167.659
167.861
168.067
152.408
152.691
152.984
153.288
153.602
153.926
154.261
154.607
154.963
155.329
155.706
156.092
156.488
156.893
157.308
157.73
158.161
158.6
159.045
159.497
159.955
160.418
160.884
161.354
161.825
162.296
162.766
163.234
163.698
164.156
164.608
165.052
165.487
165.911
166.323
166.723
167.11
167.482
167.84
168.182
168.508
168.818
169.11
169.384
169.641
169.879
170.098
170.299
170.482
170.667
154.604
154.93
155.265
155.61
155.965
156.329
156.702
157.085
157.477
157.878
158.287
158.704
159.129
159.562
160.002
160.448
160.902
161.36
161.825
162.293
162.766
163.241
163.718
164.196
164.673
165.149
165.621
166.09
166.552
167.008
167.455
167.892
168.319
168.733
169.135
169.523
169.897
170.255
170.598
170.925
171.235
171.527
171.802
172.058
172.296
172.515
172.715
172.896
173.059
173.224
156.997
157.358
157.728
158.106
158.493
158.889
159.292
159.703
160.122
160.547
160.98
161.42
161.865
162.317
162.774
163.237
163.704
164.176
164.651
165.13
165.61
166.091
166.572
167.053
167.531
168.005
168.475
168.939
169.396
169.844
170.282
170.709
171.124
171.527
171.915
172.289
172.647
172.99
173.316
173.626
173.918
174.192
174.449
174.686
174.905
175.105
175.285
175.446
175.589
175.733
159.533
159.922
160.319
160.723
161.135
161.553
161.978
162.41
162.847
163.291
163.74
164.194
164.654
165.118
165.586
166.059
166.534
167.013
167.494
167.976
168.459
168.941
169.422
169.9
170.375
170.845
171.308
171.765
172.212
172.65
173.076
173.491
173.892
174.28
174.653
175.011
175.353
175.679
175.987
176.279
176.553
176.808
177.046
177.264
177.463
177.644
177.805
177.946
178.07
178.193
162.165
162.576
162.993
163.416
163.846
164.281
164.721
165.167
165.617
166.072
166.532
166.996
167.463
167.935
168.409
168.887
169.366
169.847
170.329
170.811
171.293
171.772
172.25
172.723
173.191
173.653
174.108
174.553
174.989
175.414
175.827
176.227
176.614
176.986
177.342
177.683
178.008
178.316
178.607
178.88
179.135
179.372
179.59
179.79
179.97
180.131
180.273
180.395
180.499
180.601
164.858
165.284
165.715
166.152
166.593
167.039
167.49
167.944
168.403
168.865
169.331
169.8
170.272
170.747
171.224
171.702
172.182
172.662
173.142
173.621
174.099
174.573
175.044
175.509
175.969
176.42
176.864
177.297
177.72
178.131
178.529
178.914
179.284
179.64
179.98
180.303
180.61
180.9
181.173
181.427
181.664
181.882
182.082
182.262
182.424
182.566
182.689
182.793
182.879
182.96
168.018
168.46
168.905
169.354
169.807
170.263
170.723
171.186
171.652
172.12
172.591
173.064
173.539
174.015
174.492
174.97
175.447
175.922
176.396
176.867
177.334
177.796
178.252
178.701
179.141
179.572
179.992
180.4
180.796
181.179
181.548
181.901
182.24
182.562
182.868
183.158
183.43
183.684
183.92
184.139
184.339
184.52
184.682
184.826
184.95
185.056
185.142
185.211
185.273
170.759
171.206
171.656
172.109
172.566
173.025
173.487
173.951
174.418
174.887
175.357
175.829
176.301
176.775
177.248
177.721
178.193
178.662
179.129
179.592
180.05
180.502
180.947
181.383
181.811
182.228
182.634
183.027
183.408
183.774
184.126
184.463
184.785
185.09
185.378
185.65
185.904
186.141
186.36
186.56
186.743
186.906
187.051
187.178
187.285
187.373
187.443
187.495
187.541
173.49
173.94
174.392
174.847
175.305
175.764
176.226
176.689
177.155
177.621
178.089
178.558
179.027
179.495
179.963
180.43
180.895
181.357
181.815
182.268
182.716
183.157
183.59
184.014
184.427
184.83
185.221
185.599
185.964
186.314
186.65
186.97
187.274
187.562
187.834
188.088
188.325
188.545
188.746
188.93
189.095
189.242
189.37
189.48
189.571
189.644
189.698
189.735
189.766
176.652
177.104
177.558
178.014
178.472
178.932
179.393
179.855
180.318
180.782
181.245
181.709
182.172
182.633
183.093
183.55
184.003
184.451
184.894
185.331
185.759
186.179
186.59
186.989
187.377
187.753
188.115
188.464
188.798
189.118
189.421
189.709
189.981
190.235
190.473
190.694
190.897
191.082
191.249
191.398
191.529
191.642
191.736
191.811
191.869
191.908
191.931
191.948
179.333
179.783
180.235
180.689
181.143
181.599
182.056
182.514
182.972
183.431
183.889
184.346
184.802
185.255
185.707
186.154
186.598
187.036
187.467
187.892
188.308
188.714
189.111
189.496
189.869
190.23
190.577
190.91
191.228
191.531
191.819
192.091
192.346
192.584
192.806
193.011
193.198
193.367
193.519
193.653
193.769
193.867
193.946
194.007
194.051
194.076
194.087
194.091
182.425
182.873
183.323
183.773
184.225
184.676
185.129
185.581
186.033
186.484
186.934
187.382
187.827
188.269
188.707
189.14
189.567
189.987
190.399
190.802
191.195
191.577
191.948
192.307
192.652
192.984
193.301
193.604
193.892
194.164
194.42
194.659
194.883
195.089
195.278
195.45
195.605
195.742
195.862
195.963
196.047
196.113
196.161
196.191
196.204
196.203
196.197
185.025
185.469
185.914
186.359
186.804
187.25
187.696
188.142
188.587
189.031
189.472
189.912
190.348
190.781
191.208
191.63
192.045
192.453
192.852
193.242
193.621
193.99
194.346
194.69
195.02
195.337
195.64
195.927
196.2
196.457
196.698
196.923
197.131
197.323
197.498
197.656
197.797
197.92
198.026
198.115
198.186
198.239
198.274
198.292
198.293
198.283
198.267
188.02
188.459
188.898
189.337
189.777
190.216
190.654
191.091
191.527
191.96
192.39
192.817
193.239
193.656
194.067
194.47
194.866
195.252
195.628
195.994
196.348
196.691
197.02
197.336
197.639
197.927
198.2
198.458
198.7
198.927
199.138
199.333
199.511
199.672
199.817
199.945
200.055
200.149
200.225
200.284
200.325
200.349
200.355
200.347
200.328
200.301
190.524
190.956
191.389
191.821
192.254
192.685
193.116
193.545
193.972
194.397
194.817
195.234
195.646
196.052
196.451
196.842
197.225
197.598
197.962
198.314
198.655
198.983
199.299
199.601
199.889
200.163
200.423
200.667
200.896
201.109
201.307
201.488
201.653
201.802
201.934
202.05
202.149
202.23
202.295
202.343
202.373
202.386
202.383
202.368
202.339
202.3
192.98
193.406
193.831
194.257
194.682
195.106
195.528
195.949
196.367
196.782
197.193
197.6
198
198.395
198.783
199.162
199.532
199.893
200.243
200.583
200.91
201.225
201.527
201.816
202.091
202.352
202.598
202.829
203.045
203.245
203.43
203.6
203.753
203.89
204.01
204.114
204.202
204.273
204.327
204.364
204.385
204.388
204.378
204.355
204.316
204.267
195.388
195.807
196.225
196.643
197.06
197.476
197.89
198.302
198.711
199.116
199.518
199.914
200.304
200.687
201.063
201.43
201.789
202.137
202.475
202.801
203.115
203.418
203.707
203.983
204.245
204.493
204.726
204.945
205.149
205.337
205.511
205.668
205.81
205.936
206.046
206.139
206.217
206.278
206.322
206.35
206.361
206.357
206.34
206.309
206.261
206.202
197.748
198.159
198.569
198.98
199.389
199.796
200.202
200.605
201.005
201.4
201.791
202.177
202.556
202.929
203.293
203.649
203.995
204.331
204.656
204.97
205.272
205.562
205.839
206.103
206.353
206.588
206.81
207.017
207.21
207.387
207.549
207.696
207.827
207.943
208.043
208.127
208.195
208.246
208.282
208.301
208.303
208.293
208.27
208.23
208.174
208.108
200.059
200.462
200.865
201.267
201.668
202.067
202.464
202.858
203.249
203.635
204.016
204.391
204.76
205.121
205.474
205.818
206.152
206.477
206.79
207.092
207.382
207.66
207.925
208.177
208.416
208.64
208.851
209.047
209.229
209.395
209.547
209.684
209.806
209.912
210.003
210.078
210.137
210.18
210.207
210.218
210.215
210.199
210.168
210.121
210.057
209.985
202.321
202.717
203.112
203.507
203.899
204.29
204.678
205.063
205.444
205.82
206.191
206.556
206.914
207.264
207.606
207.939
208.262
208.575
208.877
209.168
209.447
209.713
209.967
210.208
210.436
210.65
210.85
211.035
211.207
211.364
211.507
211.634
211.747
211.844
211.926
211.993
212.044
212.08
212.1
212.103
212.095
212.073
212.036
211.981
211.911
211.833
204.925
205.312
205.698
206.083
206.465
206.844
207.22
207.591
207.958
208.319
208.674
209.021
209.361
209.692
210.014
210.326
210.628
210.919
211.199
211.467
211.723
211.966
212.196
212.414
212.618
212.808
212.984
213.146
213.294
213.428
213.547
213.651
213.74
213.815
213.874
213.918
213.947
213.959
213.958
213.944
213.917
213.873
213.811
213.737
213.654
207.085
207.464
207.842
208.219
208.592
208.963
209.329
209.692
210.049
210.4
210.745
211.082
211.411
211.732
212.044
212.345
212.637
212.917
213.187
213.444
213.69
213.923
214.144
214.351
214.546
214.727
214.894
215.048
215.187
215.313
215.424
215.52
215.602
215.669
215.722
215.759
215.781
215.788
215.782
215.763
215.731
215.68
215.614
215.535
215.447
209.199
209.57
209.94
210.308
210.673
211.035
211.393
211.746
212.094
212.435
212.77
213.098
213.417
213.728
214.029
214.321
214.602
214.872
215.132
215.38
215.616
215.84
216.051
216.25
216.435
216.608
216.767
216.912
217.044
217.162
217.265
217.355
217.43
217.491
217.537
217.568
217.584
217.586
217.575
217.553
217.514
217.458
217.388
217.305
217.213
211.631
211.993
212.352
212.709
213.062
213.411
213.755
214.094
214.426
214.751
215.069
215.379
215.68
215.971
216.253
216.525
216.786
217.036
217.275
217.502
217.717
217.919
218.11
218.287
218.452
218.603
218.741
218.865
218.976
219.073
219.156
219.225
219.28
219.32
219.346
219.356
219.354
219.34
219.313
219.269
219.208
219.134
219.048
218.953
213.647
214.001
214.352
214.701
215.045
215.386
215.721
216.05
216.373
216.69
216.998
217.298
217.59
217.872
218.145
218.407
218.66
218.901
219.131
219.349
219.556
219.75
219.932
220.102
220.259
220.403
220.534
220.652
220.756
220.847
220.924
220.987
221.037
221.072
221.092
221.098
221.092
221.075
221.043
220.995
220.93
220.853
220.764
220.666
215.619
215.965
216.309
216.649
216.985
217.317
217.644
217.964
218.278
218.586
218.885
219.176
219.459
219.732
219.996
220.25
220.494
220.726
220.948
221.158
221.357
221.544
221.719
221.882
222.032
222.169
222.294
222.405
222.504
222.589
222.66
222.718
222.762
222.793
222.809
222.811
222.802
222.781
222.745
222.692
222.625
222.545
222.453
222.353
217.548
217.887
218.222
218.555
218.883
219.206
219.524
219.836
220.142
220.44
220.731
221.014
221.288
221.553
221.809
222.054
222.289
222.514
222.728
222.931
223.122
223.302
223.47
223.626
223.77
223.901
224.02
224.125
224.218
224.298
224.365
224.418
224.457
224.483
224.495
224.494
224.482
224.458
224.418
224.362
224.292
224.209
224.116
224.013
219.766
220.094
220.419
220.739
221.054
221.364
221.668
221.965
222.255
222.538
222.812
223.078
223.335
223.583
223.82
224.048
224.265
224.472
224.668
224.852
225.025
225.187
225.337
225.474
225.6
225.713
225.813
225.901
225.976
226.038
226.087
226.122
226.144
226.152
226.148
226.134
226.106
226.063
226.004
225.932
225.847
225.752
225.647
221.605
221.926
222.242
222.555
222.862
223.164
223.46
223.749
224.031
224.306
224.572
224.83
225.08
225.319
225.55
225.77
225.98
226.18
226.369
226.547
226.714
226.87
227.013
227.146
227.266
227.374
227.469
227.552
227.623
227.681
227.725
227.757
227.775
227.78
227.774
227.757
227.726
227.68
227.618
227.544
227.458
227.361
227.255
223.404
223.717
224.027
224.331
224.631
224.925
225.213
225.495
225.769
226.036
226.295
226.546
226.787
227.02
227.243
227.457
227.66
227.854
228.036
228.208
228.369
228.519
228.658
228.784
228.9
229.003
229.094
229.173
229.239
229.293
229.334
229.362
229.377
229.379
229.371
229.351
229.318
229.269
229.205
229.13
229.042
228.944
228.837
225.47
225.772
226.069
226.361
226.648
226.929
227.203
227.47
227.729
227.981
228.224
228.459
228.685
228.902
229.109
229.306
229.493
229.67
229.836
229.992
230.136
230.269
230.391
230.502
230.601
230.688
230.762
230.825
230.875
230.913
230.938
230.95
230.95
230.94
230.918
230.882
230.83
230.765
230.688
230.6
230.501
230.392
227.185
227.479
227.77
228.055
228.334
228.607
228.874
229.134
229.387
229.631
229.868
230.096
230.315
230.526
230.726
230.918
231.099
231.27
231.431
231.581
231.721
231.85
231.967
232.073
232.168
232.251
232.322
232.381
232.428
232.462
232.485
232.494
232.492
232.48
232.456
232.418
232.364
232.298
232.22
232.131
232.031
231.922
228.862
229.15
229.433
229.711
229.984
230.25
230.51
230.763
231.009
231.247
231.477
231.699
231.912
232.116
232.311
232.496
232.672
232.838
232.994
233.139
233.274
233.398
233.512
233.614
233.705
233.784
233.852
233.908
233.951
233.983
234.003
234.01
234.006
233.992
233.967
233.926
233.871
233.804