/*--------------------------------*- C++ -*----------------------------------*\
| =========                 |                                                 |
| \\      /  F ield         | OpenFOAM: The Open Source CFD Toolbox           |
|  \\    /   O peration     | Version:  v1706                                 |
|   \\  /    A nd           | Web:      www.OpenFOAM.com                      |
|    \\/     M anipulation  |                                                 |
\*---------------------------------------------------------------------------*/
FoamFile
{
    version     2.0;
    format      ascii;
    class       volVectorField;
    location    "1.5e-05";
    object      U;
}
// * * * * * * * * * * * * * * * * * * * * * * * * * * * * * * * * * * * * * //

dimensions      [0 1 -1 0 0 0 0];


internalField   nonuniform List<vector> 
30038
(
(978.58 -1.1378e-10 5.44347e-15)
(978.58 -1.15693e-10 3.87107e-15)
(978.58 -1.17354e-10 7.15092e-15)
(978.58 -1.19399e-10 3.33526e-15)
(978.58 -1.21089e-10 5.72421e-15)
(978.58 -1.22556e-10 5.61488e-15)
(978.58 -1.24563e-10 9.08003e-15)
(978.58 -1.26506e-10 9.36804e-15)
(978.58 -1.27873e-10 4.40494e-15)
(978.58 -1.28427e-10 5.79178e-15)
(978.58 -1.28754e-10 1.03339e-14)
(978.58 -1.27742e-10 6.0616e-15)
(978.58 -1.26357e-10 4.76083e-15)
(978.58 -1.22988e-10 4.59438e-15)
(978.58 -1.16898e-10 6.79443e-15)
(978.58 -1.07204e-10 7.99027e-15)
(978.58 -9.40413e-11 5.56832e-15)
(978.58 -7.2775e-11 3.31473e-15)
(978.58 -4.91557e-11 4.81101e-15)
(978.58 -9.33821e-12 6.83542e-15)
(978.58 8.38572e-11 7.77282e-15)
(978.58 2.34154e-10 5.11965e-15)
(978.58 4.35392e-10 4.13894e-15)
(978.58 7.27612e-10 9.18667e-15)
(978.58 1.11049e-09 7.12602e-15)
(978.58 1.6018e-09 4.77137e-15)
(978.58 2.27727e-09 5.78709e-15)
(978.58 3.24105e-09 9.38977e-15)
(978.58 4.63389e-09 1.04794e-14)
(978.58 6.64742e-09 8.2183e-15)
(978.58 9.55271e-09 7.70982e-15)
(978.58 1.37406e-08 9.60231e-15)
(978.58 1.9775e-08 7.69041e-15)
(978.58 2.84861e-08 8.02433e-15)
(978.58 4.10482e-08 9.96582e-15)
(978.58 5.92588e-08 5.84896e-15)
(978.58 8.78668e-08 3.65956e-15)
(978.58 1.27105e-07 8.04049e-15)
(978.58 -3.26539e-10 1.7859e-14)
(978.58 -3.31465e-10 2.03051e-14)
(978.58 -3.36141e-10 1.91927e-14)
(978.58 -3.40534e-10 1.89947e-14)
(978.58 -3.44741e-10 2.27576e-14)
(978.58 -3.48408e-10 2.0638e-14)
(978.58 -3.51792e-10 2.23503e-14)
(978.58 -3.54805e-10 2.08292e-14)
(978.58 -3.57716e-10 1.65647e-14)
(978.58 -3.55852e-10 2.08189e-14)
(978.58 -3.50915e-10 1.85956e-14)
(978.58 -3.42591e-10 1.66967e-14)
(978.58 -3.27585e-10 1.88319e-14)
(978.58 -3.08434e-10 1.98537e-14)
(978.58 -2.72241e-10 2.01397e-14)
(978.58 -2.37777e-10 1.87924e-14)
(978.58 -1.88519e-10 1.84403e-14)
(978.58 -6.0302e-11 1.88528e-14)
(978.58 1.96121e-10 2.01604e-14)
(978.58 5.87372e-10 2.1944e-14)
(978.58 1.14799e-09 2.24354e-14)
(978.58 1.76979e-09 2.34343e-14)
(978.58 2.49142e-09 2.28804e-14)
(978.58 3.47789e-09 2.13042e-14)
(978.58 4.91355e-09 1.99493e-14)
(978.58 7.02797e-09 2.03878e-14)
(978.58 1.0091e-08 2.06476e-14)
(978.58 1.44929e-08 2.02864e-14)
(978.58 2.07956e-08 2.31455e-14)
(978.58 2.98151e-08 2.06169e-14)
(978.58 4.27262e-08 1.95236e-14)
(978.58 6.1225e-08 2.71138e-14)
(978.58 8.7756e-08 2.56169e-14)
(978.58 1.25853e-07 2.34616e-14)
(978.58 1.80726e-07 2.3459e-14)
(978.58 2.58657e-07 1.9357e-14)
(978.58 3.79636e-07 1.99413e-14)
(978.58 5.49282e-07 2.24111e-14)
(978.58 -5.28664e-10 3.20404e-14)
(978.58 -5.34951e-10 3.38545e-14)
(978.58 -5.41026e-10 3.1042e-14)
(978.58 -5.47098e-10 2.91654e-14)
(978.58 -5.51628e-10 3.17694e-14)
(978.58 -5.57004e-10 3.31797e-14)
(978.58 -5.58651e-10 3.21193e-14)
(978.58 -5.53432e-10 2.6263e-14)
(978.58 -5.47349e-10 2.80401e-14)
(978.58 -5.34675e-10 2.80407e-14)
(978.58 -5.16434e-10 2.64642e-14)
(978.58 -4.80859e-10 2.88297e-14)
(978.58 -4.45821e-10 2.99316e-14)
(978.58 -4.00397e-10 3.00347e-14)
(978.58 -2.88055e-10 3.07451e-14)
(978.58 -7.86868e-11 3.45052e-14)
(978.58 2.92738e-10 3.41374e-14)
(978.58 8.56665e-10 3.48587e-14)
(978.58 1.49221e-09 3.55236e-14)
(978.58 2.28862e-09 3.48267e-14)
(978.58 3.1645e-09 3.34656e-14)
(978.58 4.49847e-09 3.37857e-14)
(978.58 6.50096e-09 3.15358e-14)
(978.58 9.36327e-09 3.28722e-14)
(978.58 1.34285e-08 3.58168e-14)
(978.58 1.92185e-08 3.42735e-14)
(978.58 2.74661e-08 3.17195e-14)
(978.58 3.92207e-08 3.05348e-14)
(978.58 5.59802e-08 3.47256e-14)
(978.58 7.98849e-08 3.49561e-14)
(978.58 1.14002e-07 3.5328e-14)
(978.58 1.6274e-07 3.71671e-14)
(978.58 2.32424e-07 3.56208e-14)
(978.58 3.32127e-07 3.61332e-14)
(978.58 4.75316e-07 3.7172e-14)
(978.58 6.77807e-07 3.62122e-14)
(978.58 9.89505e-07 3.32993e-14)
(978.58 1.42158e-06 3.59294e-14)
(978.58 -7.18733e-10 4.58374e-14)
(978.58 -7.24281e-10 4.48148e-14)
(978.58 -7.29274e-10 4.28413e-14)
(978.58 -7.33113e-10 4.25784e-14)
(978.58 -7.31787e-10 4.54794e-14)
(978.58 -7.28294e-10 4.27346e-14)
(978.58 -7.19185e-10 4.1972e-14)
(978.58 -7.0396e-10 4.18291e-14)
(978.58 -6.72848e-10 4.21949e-14)
(978.58 -6.40376e-10 4.03983e-14)
(978.58 -6.02962e-10 4.2294e-14)
(978.58 -5.09114e-10 4.38099e-14)
(978.58 -3.27676e-10 4.514e-14)
(978.58 7.17519e-12 4.12387e-14)
(978.58 5.06197e-10 4.54784e-14)
(978.58 1.07465e-09 4.73167e-14)
(978.58 1.80269e-09 4.74659e-14)
(978.58 2.59224e-09 4.94157e-14)
(978.58 3.80693e-09 4.82961e-14)
(978.58 5.60254e-09 4.56458e-14)
(978.58 8.1143e-09 4.48041e-14)
(978.58 1.16451e-08 4.43368e-14)
(978.58 1.66505e-08 4.74142e-14)
(978.58 2.37399e-08 4.82875e-14)
(978.58 3.37968e-08 4.69765e-14)
(978.58 4.80811e-08 4.69943e-14)
(978.58 6.83721e-08 4.57541e-14)
(978.58 9.72029e-08 4.49127e-14)
(978.58 1.38197e-07 4.70762e-14)
(978.58 1.96539e-07 4.79384e-14)
(978.58 2.79642e-07 4.6813e-14)
(978.58 3.98129e-07 4.8446e-14)
(978.58 5.6723e-07 4.80828e-14)
(978.58 8.08699e-07 4.80206e-14)
(978.58 1.15483e-06 5.05451e-14)
(978.58 1.6436e-06 5.19193e-14)
(978.58 2.39277e-06 5.04197e-14)
(978.58 3.42857e-06 5.06474e-14)
(978.58 -8.93142e-10 5.39944e-14)
(978.58 -8.95702e-10 5.6705e-14)
(978.58 -8.91321e-10 5.71172e-14)
(978.58 -8.82228e-10 5.57339e-14)
(978.58 -8.69438e-10 5.40925e-14)
(978.58 -8.43327e-10 5.47396e-14)
(978.58 -8.13337e-10 5.54882e-14)
(978.58 -7.82243e-10 5.56869e-14)
(978.58 -7.05986e-10 5.70886e-14)
(978.58 -5.51232e-10 5.83284e-14)
(978.58 -2.59722e-10 5.84097e-14)
(978.58 1.71369e-10 5.866e-14)
(978.58 7.05662e-10 5.8012e-14)
(978.58 1.36626e-09 5.8956e-14)
(978.58 2.06373e-09 6.04361e-14)
(978.58 3.09574e-09 6.08323e-14)
(978.58 4.64446e-09 6.30207e-14)
(978.58 6.82409e-09 6.02411e-14)
(978.58 9.89131e-09 5.87068e-14)
(978.58 1.42153e-08 6.05688e-14)
(978.58 2.02832e-08 5.66413e-14)
(978.58 2.88387e-08 5.64948e-14)
(978.58 4.09199e-08 6.17649e-14)
(978.58 5.79856e-08 6.02915e-14)
(978.58 8.2127e-08 6.05309e-14)
(978.58 1.16322e-07 6.16128e-14)
(978.58 1.64802e-07 6.06682e-14)
(978.58 2.33582e-07 5.43974e-14)
(978.58 3.31242e-07 5.42111e-14)
(978.58 4.70029e-07 5.58494e-14)
(978.58 6.6745e-07 6.0913e-14)
(978.58 9.48543e-07 6.47329e-14)
(978.58 1.34916e-06 6.16037e-14)
(978.58 1.92046e-06 6.00763e-14)
(978.58 2.73816e-06 6.11065e-14)
(978.58 3.89191e-06 6.28839e-14)
(978.58 5.654e-06 6.43862e-14)
(978.58 8.08827e-06 6.45763e-14)
(978.58 -1.03143e-09 6.99521e-14)
(978.58 -1.02243e-09 6.94478e-14)
(978.58 -1.00162e-09 6.42196e-14)
(978.58 -9.69771e-10 6.08451e-14)
(978.58 -9.43989e-10 6.30787e-14)
(978.58 -8.82878e-10 6.45037e-14)
(978.58 -7.50205e-10 6.56186e-14)
(978.58 -5.00515e-10 7.54913e-14)
(978.58 -1.25966e-10 7.48167e-14)
(978.58 3.79085e-10 7.37318e-14)
(978.58 9.75988e-10 7.36937e-14)
(978.58 1.6164e-09 7.17298e-14)
(978.58 2.4889e-09 6.99593e-14)
(978.58 3.82513e-09 7.09512e-14)
(978.58 5.704e-09 7.04228e-14)
(978.58 8.33475e-09 7.15427e-14)
(978.58 1.20381e-08 7.38976e-14)
(978.58 1.72276e-08 7.03902e-14)
(978.58 2.45231e-08 6.9373e-14)
(978.58 3.47758e-08 7.26399e-14)
(978.58 4.91815e-08 7.26365e-14)
(978.58 6.94647e-08 7.39695e-14)
(978.58 9.8058e-08 7.20787e-14)
(978.58 1.38406e-07 7.00214e-14)
(978.58 1.95402e-07 7.0115e-14)
(978.58 2.7601e-07 7.56303e-14)
(978.58 3.90122e-07 7.61875e-14)
(978.58 5.51817e-07 6.95984e-14)
(978.58 7.81142e-07 7.2529e-14)
(978.58 1.10668e-06 7.26812e-14)
(978.58 1.56923e-06 7.09416e-14)
(978.58 2.22705e-06 7.22236e-14)
(978.58 3.16348e-06 7.3735e-14)
(978.58 4.49727e-06 7.7126e-14)
(978.58 6.40376e-06 7.53011e-14)
(978.58 9.09211e-06 7.17466e-14)
(978.58 1.31838e-05 7.36849e-14)
(978.58 1.88327e-05 7.4862e-14)
(978.58 -1.11225e-09 7.71534e-14)
(978.58 -1.09053e-09 7.70003e-14)
(978.58 -1.04216e-09 7.94897e-14)
(978.58 -9.27817e-10 8.31264e-14)
(978.58 -7.13412e-10 8.22164e-14)
(978.58 -3.87663e-10 8.1368e-14)
(978.58 8.91423e-11 8.55856e-14)
(978.58 6.23904e-10 8.77827e-14)
(978.58 1.21993e-09 8.36172e-14)
(978.58 1.96126e-09 8.64869e-14)
(978.58 3.11918e-09 8.4886e-14)
(978.58 4.75248e-09 8.26563e-14)
(978.58 7.01825e-09 8.17219e-14)
(978.58 1.02008e-08 8.09284e-14)
(978.58 1.46402e-08 8.1248e-14)
(978.58 2.08585e-08 8.4392e-14)
(978.58 2.95685e-08 8.48953e-14)
(978.58 4.17612e-08 8.59947e-14)
(978.58 5.88604e-08 8.39824e-14)
(978.58 8.28634e-08 8.59688e-14)
(978.58 1.16586e-07 8.45501e-14)
(978.58 1.64021e-07 8.36638e-14)
(978.58 2.30819e-07 8.31097e-14)
(978.58 3.2498e-07 8.46768e-14)
(978.58 4.57856e-07 8.32453e-14)
(978.58 6.45564e-07 8.69869e-14)
(978.58 9.10997e-07 8.55965e-14)
(978.58 1.2867e-06 7.94964e-14)
(978.58 1.81898e-06 8.10818e-14)
(978.58 2.57377e-06 8.4035e-14)
(978.58 3.64508e-06 8.47962e-14)
(978.58 5.16697e-06 8.52707e-14)
(978.58 7.33099e-06 8.83e-14)
(978.58 1.04097e-05 9.04957e-14)
(978.58 1.48045e-05 9.06236e-14)
(978.58 2.09979e-05 8.73765e-14)
(978.58 3.03927e-05 8.77683e-14)
(978.58 4.33534e-05 8.86647e-14)
(978.58 -1.08612e-09 9.31298e-14)
(978.58 -9.07048e-10 9.59295e-14)
(978.58 -6.21127e-10 9.8243e-14)
(978.58 -1.75992e-10 1.01132e-13)
(978.58 3.08076e-10 9.93521e-14)
(978.58 8.64948e-10 9.67366e-14)
(978.58 1.49995e-09 9.75674e-14)
(978.58 2.50972e-09 9.84018e-14)
(978.58 3.93819e-09 9.97451e-14)
(978.58 5.89998e-09 9.68917e-14)
(978.58 8.64503e-09 9.49737e-14)
(978.58 1.24604e-08 9.45997e-14)
(978.58 1.77811e-08 9.3929e-14)
(978.58 2.52087e-08 9.54997e-14)
(978.58 3.55636e-08 9.60011e-14)
(978.58 5.00236e-08 9.90841e-14)
(978.58 7.0238e-08 9.98396e-14)
(978.58 9.85235e-08 9.70971e-14)
(978.58 1.38149e-07 9.67517e-14)
(978.58 1.93721e-07 9.67907e-14)
(978.58 2.71736e-07 9.54017e-14)
(978.58 3.81376e-07 9.6938e-14)
(978.58 5.35627e-07 9.40889e-14)
(978.58 7.52865e-07 9.44295e-14)
(978.58 1.05913e-06 9.49127e-14)
(978.58 1.49135e-06 9.93417e-14)
(978.58 2.10192e-06 9.61727e-14)
(978.58 2.96524e-06 9.59364e-14)
(978.58 4.18707e-06 9.91038e-14)
(978.58 5.91785e-06 1.00506e-13)
(978.58 8.37174e-06 1.00987e-13)
(978.58 1.18538e-05 1.00151e-13)
(978.58 1.67995e-05 1.00411e-13)
(978.58 2.38274e-05 9.93004e-14)
(978.58 3.38465e-05 1.02027e-13)
(978.58 4.79559e-05 1.03544e-13)
(978.58 6.92888e-05 9.90004e-14)
(978.58 9.86948e-05 9.57544e-14)
(978.58 -8.19884e-10 1.09493e-13)
(978.58 -4.21438e-10 1.11481e-13)
(978.58 2.61227e-11 1.14215e-13)
(978.58 5.53488e-10 1.13601e-13)
(978.58 1.10768e-09 1.11949e-13)
(978.58 1.98317e-09 1.11908e-13)
(978.58 3.23629e-09 1.12945e-13)
(978.58 4.94398e-09 1.09881e-13)
(978.58 7.32581e-09 1.09845e-13)
(978.58 1.0622e-08 1.07534e-13)
(978.58 1.51943e-08 1.06131e-13)
(978.58 2.15537e-08 1.08933e-13)
(978.58 3.03833e-08 1.04639e-13)
(978.58 4.26628e-08 1.09904e-13)
(978.58 5.97585e-08 1.09886e-13)
(978.58 8.35784e-08 1.10752e-13)
(978.58 1.16806e-07 1.08902e-13)
(978.58 1.63212e-07 1.06744e-13)
(978.58 2.28095e-07 1.07207e-13)
(978.58 3.18912e-07 1.08754e-13)
(978.58 4.46163e-07 1.08275e-13)
(978.58 6.24653e-07 1.08335e-13)
(978.58 8.7528e-07 1.06259e-13)
(978.58 1.22757e-06 1.06205e-13)
(978.58 1.72327e-06 1.08656e-13)
(978.58 2.42145e-06 1.10836e-13)
(978.58 3.4058e-06 1.11091e-13)
(978.58 4.79491e-06 1.08692e-13)
(978.58 6.75706e-06 1.09255e-13)
(978.58 9.5311e-06 1.10182e-13)
(978.58 1.34564e-05 1.11847e-13)
(978.58 1.90156e-05 1.11922e-13)
(978.58 2.68951e-05 1.12209e-13)
(978.58 3.80735e-05 1.11911e-13)
(978.58 5.39394e-05 1.15522e-13)
(978.58 7.65278e-05 1.14296e-13)
(978.58 0.000108315 1.10995e-13)
(978.58 0.00015622 1.0976e-13)
(978.58 0.000222195 1.09439e-13)
(978.58 2.75582e-10 1.24767e-13)
(978.58 7.75897e-10 1.2246e-13)
(978.58 1.52625e-09 1.23505e-13)
(978.58 2.62853e-09 1.26227e-13)
(978.58 4.12297e-09 1.24254e-13)
(978.58 6.19823e-09 1.2469e-13)
(978.58 9.06236e-09 1.22721e-13)
(978.58 1.30122e-08 1.18905e-13)
(978.58 1.84824e-08 1.18194e-13)
(978.58 2.60455e-08 1.18581e-13)
(978.58 3.65176e-08 1.21105e-13)
(978.58 5.10373e-08 1.17577e-13)
(978.58 7.1183e-08 1.18123e-13)
(978.58 9.91682e-08 1.22721e-13)
(978.58 1.38085e-07 1.22085e-13)
(978.58 1.92267e-07 1.21235e-13)
(978.58 2.67788e-07 1.19458e-13)
(978.58 3.73174e-07 1.2258e-13)
(978.58 5.20396e-07 1.21594e-13)
(978.58 7.26287e-07 1.21257e-13)
(978.58 1.01453e-06 1.1948e-13)
(978.58 1.4185e-06 1.19497e-13)
(978.58 1.98523e-06 1.19514e-13)
(978.58 2.78114e-06 1.22121e-13)
(978.58 3.89999e-06 1.23721e-13)
(978.58 5.47437e-06 1.23531e-13)
(978.58 7.69183e-06 1.22464e-13)
(978.58 1.08179e-05 1.192e-13)
(978.58 1.5229e-05 1.207e-13)
(978.58 2.14585e-05 1.24777e-13)
(978.58 3.02638e-05 1.24639e-13)
(978.58 4.272e-05 1.24551e-13)
(978.58 6.03549e-05 1.24181e-13)
(978.58 8.5343e-05 1.24356e-13)
(978.58 0.000120766 1.25493e-13)
(978.58 0.000171131 1.23296e-13)
(978.58 0.000241948 1.21782e-13)
(978.579 0.000348334 1.25109e-13)
(978.579 0.000494716 1.25226e-13)
(978.58 2.10044e-09 1.39473e-13)
(978.58 3.41796e-09 1.37395e-13)
(978.58 5.23399e-09 1.35644e-13)
(978.58 7.73345e-09 1.35659e-13)
(978.58 1.1161e-08 1.33429e-13)
(978.58 1.58899e-08 1.35205e-13)
(978.58 2.24003e-08 1.36564e-13)
(978.58 3.1374e-08 1.34043e-13)
(978.58 4.37632e-08 1.31228e-13)
(978.58 6.08789e-08 1.33212e-13)
(978.58 8.45513e-08 1.32628e-13)
(978.58 1.17332e-07 1.32597e-13)
(978.58 1.62775e-07 1.30513e-13)
(978.58 2.25849e-07 1.30852e-13)
(978.58 3.13495e-07 1.37106e-13)
(978.58 4.35425e-07 1.38014e-13)
(978.58 6.05242e-07 1.37837e-13)
(978.58 8.42019e-07 1.3369e-13)
(978.58 1.17252e-06 1.30732e-13)
(978.58 1.63433e-06 1.31675e-13)
(978.58 2.28031e-06 1.33611e-13)
(978.58 3.18484e-06 1.32871e-13)
(978.58 4.45269e-06 1.31258e-13)
(978.58 6.23156e-06 1.32376e-13)
(978.58 8.72986e-06 1.34671e-13)
(978.58 1.22418e-05 1.35667e-13)
(978.58 1.71833e-05 1.31154e-13)
(978.58 2.41424e-05 1.32538e-13)
(978.58 3.39515e-05 1.36956e-13)
(978.58 4.77892e-05 1.38709e-13)
(978.58 6.73264e-05 1.37025e-13)
(978.58 9.49323e-05 1.34626e-13)
(978.58 0.000133969 1.34852e-13)
(978.58 0.000189216 1.35923e-13)
(978.58 0.000267437 1.36677e-13)
(978.579 0.000378499 1.36192e-13)
(978.579 0.000534527 1.38157e-13)
(978.579 0.000768187 1.38065e-13)
(978.578 0.00108938 1.35935e-13)
(978.58 4.40792e-09 1.52541e-13)
(978.58 6.60021e-09 1.49698e-13)
(978.58 9.59041e-09 1.48801e-13)
(978.58 1.36969e-08 1.50037e-13)
(978.58 1.93281e-08 1.49871e-13)
(978.58 2.70535e-08 1.50228e-13)
(978.58 3.76749e-08 1.50294e-13)
(978.58 5.2285e-08 1.49824e-13)
(978.58 7.24043e-08 1.47467e-13)
(978.58 1.00144e-07 1.48888e-13)
(978.58 1.38434e-07 1.46837e-13)
(978.58 1.9135e-07 1.46301e-13)
(978.58 2.64564e-07 1.43355e-13)
(978.58 3.65987e-07 1.42007e-13)
(978.58 5.06652e-07 1.4673e-13)
(978.58 7.01968e-07 1.47674e-13)
(978.58 9.73473e-07 1.45832e-13)
(978.58 1.35131e-06 1.45401e-13)
(978.58 1.87769e-06 1.44976e-13)
(978.58 2.61181e-06 1.42868e-13)
(978.58 3.63674e-06 1.40594e-13)
(978.58 5.06915e-06 1.42873e-13)
(978.58 7.07307e-06 1.43223e-13)
(978.58 9.8793e-06 1.42474e-13)
(978.58 1.38129e-05 1.4519e-13)
(978.58 1.93318e-05 1.48731e-13)
(978.58 2.70823e-05 1.44525e-13)
(978.58 3.79762e-05 1.4274e-13)
(978.58 5.33017e-05 1.46403e-13)
(978.58 7.48799e-05 1.47453e-13)
(978.58 0.000105286 1.48909e-13)
(978.58 0.000148167 1.46691e-13)
(978.58 0.000208686 1.47355e-13)
(978.58 0.000294161 1.49278e-13)
(978.579 0.000414979 1.51692e-13)
(978.579 0.000585822 1.50033e-13)
(978.579 0.000828056 1.48524e-13)
(978.578 0.00116806 1.48982e-13)
(978.577 0.00167564 1.4721e-13)
(978.576 0.00237271 1.47936e-13)
(978.58 1.18396e-08 1.66054e-13)
(978.58 1.67368e-08 1.65066e-13)
(978.58 2.34214e-08 1.63659e-13)
(978.58 3.2571e-08 1.61528e-13)
(978.58 4.51033e-08 1.62084e-13)
(978.58 6.22847e-08 1.63467e-13)
(978.58 8.58711e-08 1.64065e-13)
(978.58 1.18287e-07 1.62058e-13)
(978.58 1.6289e-07 1.61602e-13)
(978.58 2.24337e-07 1.62098e-13)
(978.58 3.09092e-07 1.56878e-13)
(978.58 4.26137e-07 1.57742e-13)
(978.58 5.87967e-07 1.57125e-13)
(978.58 8.11982e-07 1.57154e-13)
(978.58 1.12244e-06 1.58546e-13)
(978.58 1.55317e-06 1.5781e-13)
(978.58 2.15145e-06 1.54878e-13)
(978.58 2.98336e-06 1.53627e-13)
(978.58 4.14138e-06 1.55582e-13)
(978.58 5.75504e-06 1.54048e-13)
(978.58 8.00593e-06 1.5754e-13)
(978.58 1.11489e-05 1.59301e-13)
(978.58 1.55418e-05 1.60094e-13)
(978.58 2.16876e-05 1.57536e-13)
(978.58 3.02939e-05 1.56404e-13)
(978.58 4.23567e-05 1.57357e-13)
(978.58 5.92794e-05 1.56413e-13)
(978.58 8.30403e-05 1.5606e-13)
(978.58 0.000116431 1.57314e-13)
(978.58 0.000163392 1.59829e-13)
(978.58 0.00022949 1.60082e-13)
(978.579 0.000322596 1.59613e-13)
(978.579 0.000453841 1.5967e-13)
(978.579 0.00063898 1.61306e-13)
(978.579 0.000900339 1.61757e-13)
(978.578 0.00126944 1.57624e-13)
(978.577 0.00179204 1.59382e-13)
(978.576 0.00252487 1.60779e-13)
(978.575 0.00361554 1.60794e-13)
(978.572 0.00511188 1.6047e-13)
(978.58 2.82872e-08 1.77878e-13)
(978.58 3.90926e-08 1.75617e-13)
(978.58 5.38401e-08 1.76161e-13)
(978.58 7.39969e-08 1.76879e-13)
(978.58 1.01577e-07 1.77397e-13)
(978.58 1.3936e-07 1.78139e-13)
(978.58 1.91183e-07 1.73937e-13)
(978.58 2.62352e-07 1.7193e-13)
(978.58 3.60209e-07 1.75764e-13)
(978.58 4.94926e-07 1.74622e-13)
(978.58 6.80614e-07 1.71341e-13)
(978.58 9.36863e-07 1.7498e-13)
(978.58 1.2909e-06 1.7313e-13)
(978.58 1.78062e-06 1.70333e-13)
(978.58 2.45877e-06 1.6962e-13)
(978.58 3.39892e-06 1.65902e-13)
(978.58 4.70371e-06 1.65162e-13)
(978.58 6.51651e-06 1.67926e-13)
(978.58 9.03778e-06 1.68984e-13)
(978.58 1.2548e-05 1.71664e-13)
(978.58 1.744e-05 1.76472e-13)
(978.58 2.42644e-05 1.71846e-13)
(978.58 3.37937e-05 1.70684e-13)
(978.58 4.71125e-05 1.70351e-13)
(978.58 6.57448e-05 1.69701e-13)
(978.58 9.18335e-05 1.69654e-13)
(978.58 0.000128394 1.68329e-13)
(978.58 0.000179672 1.68072e-13)
(978.58 0.000251652 1.75334e-13)
(978.579 0.00035277 1.71924e-13)
(978.579 0.00049493 1.68296e-13)
(978.579 0.000694935 1.68239e-13)
(978.578 0.000976523 1.68763e-13)
(978.578 0.00137324 1.71838e-13)
(978.577 0.00193257 1.73858e-13)
(978.576 0.00272143 1.72756e-13)
(978.574 0.00383678 1.71437e-13)
(978.572 0.00539926 1.72662e-13)
(978.569 0.00771759 1.76403e-13)
(978.564 0.010895 1.74193e-13)
(978.58 6.41169e-08 1.90082e-13)
(978.58 8.77096e-08 1.90804e-13)
(978.58 1.19884e-07 1.90004e-13)
(978.58 1.63819e-07 1.87888e-13)
(978.58 2.23889e-07 1.88508e-13)
(978.58 3.06121e-07 1.89751e-13)
(978.58 4.18832e-07 1.87284e-13)
(978.58 5.73511e-07 1.83236e-13)
(978.58 7.86046e-07 1.87008e-13)
(978.58 1.07844e-06 1.87249e-13)
(978.58 1.48116e-06 1.84833e-13)
(978.58 2.03652e-06 1.87698e-13)
(978.58 2.80323e-06 1.82942e-13)
(978.58 3.86294e-06 1.79934e-13)
(978.58 5.32925e-06 1.81796e-13)
(978.58 7.3604e-06 1.80428e-13)
(978.58 1.0177e-05 1.78783e-13)
(978.58 1.40868e-05 1.81976e-13)
(978.58 1.95199e-05 1.83574e-13)
(978.58 2.70772e-05 1.86419e-13)
(978.58 3.75997e-05 1.85949e-13)
(978.58 5.22646e-05 1.82227e-13)
(978.58 7.27221e-05 1.84333e-13)
(978.58 0.000101286 1.82692e-13)
(978.58 0.000141205 1.80369e-13)
(978.58 0.000197039 1.82947e-13)
(978.58 0.000275199 1.7874e-13)
(978.579 0.000384704 1.81466e-13)
(978.579 0.000538241 1.82072e-13)
(978.579 0.00075368 1.79908e-13)
(978.578 0.0010562 1.82199e-13)
(978.578 0.0014813 1.83711e-13)
(978.577 0.00207906 1.81711e-13)
(978.575 0.00292014 1.81172e-13)
(978.574 0.0041044 1.84875e-13)
(978.571 0.00577243 1.8516e-13)
(978.568 0.00812743 1.85737e-13)
(978.563 0.0114231 1.86302e-13)
(978.556 0.0162982 1.85259e-13)
(978.546 0.0229728 1.84482e-13)
(978.58 1.41261e-07 2.03843e-13)
(978.58 1.92253e-07 2.03463e-13)
(978.58 2.61742e-07 2.01847e-13)
(978.58 3.56561e-07 2.00876e-13)
(978.58 4.86106e-07 1.99362e-13)
(978.58 6.6332e-07 1.9908e-13)
(978.58 9.06049e-07 2.0005e-13)
(978.58 1.23892e-06 1.99342e-13)
(978.58 1.69598e-06 2.00083e-13)
(978.58 2.3243e-06 1.98756e-13)
(978.58 3.18908e-06 1.98072e-13)
(978.58 4.38069e-06 1.98529e-13)
(978.58 6.0245e-06 1.94077e-13)
(978.58 8.29467e-06 1.93897e-13)
(978.58 1.14333e-05 1.96048e-13)
(978.58 1.57773e-05 1.94832e-13)
(978.58 2.17959e-05 1.94439e-13)
(978.58 3.01431e-05 1.94934e-13)
(978.58 4.17319e-05 1.94004e-13)
(978.58 5.78365e-05 1.95884e-13)
(978.58 8.02383e-05 1.9579e-13)
(978.58 0.000111429 1.94064e-13)
(978.58 0.000154896 1.9406e-13)
(978.58 0.000215524 1.9363e-13)
(978.579 0.000300163 1.93525e-13)
(978.579 0.000418421 1.93286e-13)
(978.579 0.000583783 1.94082e-13)
(978.579 0.000815196 1.94413e-13)
(978.578 0.00113929 1.91823e-13)
(978.577 0.0015935 1.948e-13)
(978.576 0.00223054 1.95453e-13)
(978.575 0.00312459 1.97286e-13)
(978.573 0.00438016 1.92967e-13)
(978.57 0.00614453 1.93613e-13)
(978.567 0.0086255 1.96715e-13)
(978.561 0.0121152 1.98793e-13)
(978.554 0.0170348 1.97686e-13)
(978.544 0.0239119 1.95918e-13)
(978.53 0.0340542 1.95753e-13)
(978.51 0.047925 1.9874e-13)
(978.58 3.05788e-07 2.17411e-13)
(978.58 4.14965e-07 2.16053e-13)
(978.58 5.63629e-07 2.15375e-13)
(978.58 7.66329e-07 2.12351e-13)
(978.58 1.04306e-06 2.13174e-13)
(978.58 1.42133e-06 2.16414e-13)
(978.58 1.93907e-06 2.14745e-13)
(978.58 2.64854e-06 2.11175e-13)
(978.58 3.62194e-06 2.12974e-13)
(978.58 4.95904e-06 2.13124e-13)
(978.58 6.79786e-06 2.11802e-13)
(978.58 9.32956e-06 2.11384e-13)
(978.58 1.28192e-05 2.07387e-13)
(978.58 1.76343e-05 2.08785e-13)
(978.58 2.42858e-05 2.10806e-13)
(978.58 3.34837e-05 2.07667e-13)
(978.58 4.62157e-05 2.09452e-13)
(978.58 6.38577e-05 2.11374e-13)
(978.58 8.83274e-05 2.09023e-13)
(978.58 0.0001223 2.07897e-13)
(978.58 0.000169509 2.06826e-13)
(978.58 0.000235173 2.05256e-13)
(978.579 0.000326587 2.09276e-13)
(978.579 0.000453959 2.0971e-13)
(978.579 0.000631582 2.10175e-13)
(978.579 0.00087948 2.07704e-13)
(978.578 0.00122573 2.05043e-13)
(978.577 0.00170972 2.04815e-13)
(978.576 0.00238675 2.04095e-13)
(978.575 0.00333445 2.06166e-13)
(978.573 0.00466197 2.05388e-13)
(978.57 0.0065227 2.05129e-13)
(978.566 0.00913246 2.06544e-13)
(978.56 0.0127949 2.06725e-13)
(978.552 0.0179378 2.04509e-13)
(978.542 0.0251615 2.06892e-13)
(978.527 0.0353299 2.07356e-13)
(978.506 0.0495276 2.05998e-13)
(978.476 0.0704026 2.07435e-13)
(978.435 0.0989175 2.09403e-13)
(978.58 6.54019e-07 2.33327e-13)
(978.58 8.85728e-07 2.31169e-13)
(978.58 1.20097e-06 2.28165e-13)
(978.58 1.63041e-06 2.27053e-13)
(978.58 2.2162e-06 2.2743e-13)
(978.58 3.01627e-06 2.26631e-13)
(978.58 4.11037e-06 2.26678e-13)
(978.58 5.60841e-06 2.25884e-13)
(978.58 7.66196e-06 2.27195e-13)
(978.58 1.04804e-05 2.23413e-13)
(978.58 1.4353e-05 2.21395e-13)
(978.58 1.96802e-05 2.22151e-13)
(978.58 2.70164e-05 2.2127e-13)
(978.58 3.71304e-05 2.23263e-13)
(978.58 5.10886e-05 2.22859e-13)
(978.58 7.03723e-05 2.25273e-13)
(978.58 9.70404e-05 2.25095e-13)
(978.58 0.000133957 2.22047e-13)
(978.58 0.000185111 2.2279e-13)
(978.58 0.000256058 2.23088e-13)
(978.579 0.000354548 2.18264e-13)
(978.579 0.000491397 2.19035e-13)
(978.579 0.000681708 2.19931e-13)
(978.578 0.000946588 2.18246e-13)
(978.578 0.00131556 2.19984e-13)
(978.577 0.00182993 2.17671e-13)
(978.576 0.00254754 2.18116e-13)
(978.574 0.00354943 2.17406e-13)
(978.572 0.00494921 2.15774e-13)
(978.569 0.00690621 2.18507e-13)
(978.565 0.00964403 2.19814e-13)
(978.559 0.0134765 2.20546e-13)
(978.55 0.0188447 2.20868e-13)
(978.539 0.0263677 2.1728e-13)
(978.523 0.0369168 2.18023e-13)
(978.501 0.0517122 2.21027e-13)
(978.47 0.0725065 2.21423e-13)
(978.428 0.101503 2.20301e-13)
(978.368 0.144004 2.21075e-13)
(978.285 0.201981 2.23198e-13)
(978.58 1.02762e-06 2.47552e-13)
(978.58 1.38713e-06 2.47949e-13)
(978.58 1.87502e-06 2.43697e-13)
(978.58 2.53808e-06 2.43113e-13)
(978.58 3.44039e-06 2.43561e-13)
(978.58 4.66991e-06 2.39636e-13)
(978.58 6.34749e-06 2.4217e-13)
(978.58 8.63931e-06 2.38558e-13)
(978.58 1.17741e-05 2.37036e-13)
(978.58 1.60673e-05 2.38854e-13)
(978.58 2.19537e-05 2.36151e-13)
(978.58 3.00341e-05 2.33676e-13)
(978.58 4.11387e-05 2.3416e-13)
(978.58 5.64164e-05 2.35728e-13)
(978.58 7.74579e-05 2.34848e-13)
(978.58 0.000106469 2.34796e-13)
(978.58 0.000146508 2.37333e-13)
(978.58 0.000201824 2.33185e-13)
(978.58 0.000278319 2.31537e-13)
(978.579 0.000384205 2.3257e-13)
(978.579 0.000530909 2.32197e-13)
(978.579 0.000734349 2.30667e-13)
(978.578 0.00101671 2.31662e-13)
(978.578 0.00140895 2.29049e-13)
(978.577 0.00195427 2.28739e-13)
(978.575 0.00271301 2.33321e-13)
(978.574 0.00376951 2.31437e-13)
(978.571 0.0052417 2.29724e-13)
(978.568 0.0072946 2.29654e-13)
(978.564 0.0101592 2.32147e-13)
(978.557 0.014159 2.31769e-13)
(978.549 0.0197474 2.27679e-13)
(978.537 0.0275598 2.32382e-13)
(978.52 0.0384871 2.34113e-13)
(978.497 0.0537789 2.30414e-13)
(978.465 0.0751897 2.32429e-13)
(978.42 0.105172 2.34966e-13)
(978.358 0.147239 2.33802e-13)
(978.272 0.205814 2.32535e-13)
(978.151 0.291387 2.3396e-13)
(977.984 0.407921 2.32651e-13)
(978.58 2.17416e-06 2.63881e-13)
(978.58 2.92738e-06 2.61021e-13)
(978.58 3.94799e-06 2.55152e-13)
(978.58 5.33296e-06 2.56673e-13)
(978.58 7.21504e-06 2.55672e-13)
(978.58 9.77621e-06 2.52925e-13)
(978.58 1.32662e-05 2.52573e-13)
(978.58 1.80281e-05 2.51185e-13)
(978.58 2.45338e-05 2.53406e-13)
(978.58 3.34329e-05 2.53648e-13)
(978.58 4.56206e-05 2.49051e-13)
(978.58 6.2332e-05 2.47947e-13)
(978.58 8.52725e-05 2.49609e-13)
(978.58 0.000116799 2.48806e-13)
(978.58 0.000160172 2.47031e-13)
(978.58 0.000219907 2.48445e-13)
(978.579 0.00030226 2.48431e-13)
(978.579 0.000415909 2.45646e-13)
(978.579 0.000572901 2.44835e-13)
(978.579 0.00078997 2.44741e-13)
(978.578 0.00109038 2.44333e-13)
(978.577 0.0015065 2.45654e-13)
(978.576 0.0020834 2.40541e-13)
(978.575 0.00288386 2.3755e-13)
(978.573 0.0039954 2.44232e-13)
(978.571 0.00554013 2.45956e-13)
(978.567 0.00768845 2.41791e-13)
(978.562 0.0106783 2.41669e-13)
(978.556 0.0148423 2.41862e-13)
(978.547 0.0206452 2.43033e-13)
(978.534 0.028737 2.41571e-13)
(978.516 0.040027 2.43472e-13)
(978.492 0.0557875 2.46349e-13)
(978.459 0.0777999 2.44868e-13)
(978.412 0.108557 2.46051e-13)
(978.348 0.151549 2.44626e-13)
(978.259 0.21165 2.43209e-13)
(978.135 0.295813 2.45685e-13)
(977.963 0.412797 2.48167e-13)
(977.722 0.583068 2.44319e-13)
(977.392 0.814423 2.44193e-13)
(978.58 3.43656e-06 2.76844e-13)
(978.58 4.60134e-06 2.74944e-13)
(978.58 6.17342e-06 2.67307e-13)
(978.58 8.2988e-06 2.68939e-13)
(978.58 1.11769e-05 2.70952e-13)
(978.58 1.50804e-05 2.67382e-13)
(978.58 2.03827e-05 2.67462e-13)
(978.58 2.75954e-05 2.68594e-13)
(978.58 3.74206e-05 2.66492e-13)
(978.58 5.0823e-05 2.68332e-13)
(978.58 6.91288e-05 2.67231e-13)
(978.58 9.41638e-05 2.61123e-13)
(978.58 0.000128444 2.61575e-13)
(978.58 0.000175439 2.61565e-13)
(978.58 0.000239939 2.60991e-13)
(978.579 0.000328563 2.62166e-13)
(978.579 0.000450466 2.62749e-13)
(978.579 0.000618321 2.57517e-13)
(978.578 0.000849682 2.54459e-13)
(978.578 0.00116889 2.54879e-13)
(978.577 0.00160972 2.56348e-13)
(978.576 0.00221906 2.57005e-13)
(978.575 0.00306208 2.54979e-13)
(978.573 0.00422939 2.54402e-13)
(978.57 0.00584707 2.57271e-13)
(978.566 0.00809065 2.58172e-13)
(978.561 0.0112047 2.56597e-13)
(978.554 0.0155299 2.55593e-13)
(978.545 0.0215417 2.54594e-13)
(978.531 0.0299031 2.54015e-13)
(978.513 0.0415395 2.56968e-13)
(978.488 0.0577427 2.59435e-13)
(978.453 0.0803173 2.53888e-13)
(978.404 0.111783 2.50768e-13)
(978.338 0.155657 2.53033e-13)
(978.245 0.216855 2.54364e-13)
(978.118 0.302241 2.54495e-13)
(977.941 0.421358 2.55096e-13)
(977.697 0.587771 2.58375e-13)
(977.359 0.818553 2.57586e-13)
(976.886 1.153 2.54606e-13)
(976.24 1.60593 2.54997e-13)
(978.58 5.54982e-06 2.87684e-13)
(978.58 7.36766e-06 2.86502e-13)
(978.58 9.80711e-06 2.83824e-13)
(978.58 1.30876e-05 2.84205e-13)
(978.58 1.75078e-05 2.84704e-13)
(978.58 2.3475e-05 2.82739e-13)
(978.58 3.15453e-05 2.8152e-13)
(978.58 4.24788e-05 2.8249e-13)
(978.58 5.73157e-05 2.81551e-13)
(978.58 7.74812e-05 2.81049e-13)
(978.58 0.000104931 2.80875e-13)
(978.58 0.000142349 2.765e-13)
(978.58 0.000193427 2.73767e-13)
(978.58 0.000263243 2.75078e-13)
(978.579 0.000358796 2.74872e-13)
(978.579 0.00048973 2.74039e-13)
(978.579 0.000669359 2.74067e-13)
(978.578 0.000916073 2.70381e-13)
(978.578 0.00125529 2.683e-13)
(978.577 0.0017222 2.67369e-13)
(978.576 0.00236549 2.70039e-13)
(978.574 0.00325266 2.71551e-13)
(978.572 0.00447733 2.68668e-13)
(978.569 0.00616938 2.66515e-13)
(978.565 0.00850921 2.69454e-13)
(978.56 0.0117474 2.68777e-13)
(978.553 0.0162326 2.67184e-13)
(978.543 0.0224493 2.65742e-13)
(978.529 0.0310723 2.65711e-13)
(978.509 0.0430409 2.64609e-13)
(978.483 0.0596632 2.66318e-13)
(978.447 0.0827621 2.68946e-13)
(978.397 0.114877 2.66199e-13)
(978.328 0.159546 2.63122e-13)
(978.232 0.2217 2.65439e-13)
(978.101 0.308205 2.66107e-13)
(977.92 0.428618 2.66311e-13)
(977.67 0.596229 2.68158e-13)
(977.324 0.82945 2.67658e-13)
(976.848 1.15429 2.68532e-13)
(976.192 1.60328 2.68294e-13)
(975.276 2.25024 2.66386e-13)
(974.032 3.12203 2.67854e-13)
(978.58 1.22437e-05 3.00825e-13)
(978.58 1.61008e-05 3.02369e-13)
(978.58 2.12457e-05 3.01565e-13)
(978.58 2.81262e-05 2.98454e-13)
(978.58 3.73507e-05 2.95807e-13)
(978.58 4.97467e-05 2.94722e-13)
(978.58 6.64413e-05 2.95126e-13)
(978.58 8.89721e-05 2.94308e-13)
(978.58 0.000119439 2.92178e-13)
(978.58 0.000160716 2.92167e-13)
(978.58 0.000216735 2.9073e-13)
(978.579 0.000292889 2.88159e-13)
(978.579 0.00039658 2.89414e-13)
(978.579 0.000537978 2.88043e-13)
(978.579 0.00073107 2.87129e-13)
(978.578 0.000995114 2.87022e-13)
(978.578 0.00135665 2.84684e-13)
(978.577 0.00185228 2.862e-13)
(978.575 0.00253253 2.8467e-13)
(978.574 0.00346725 2.83186e-13)