/*--------------------------------*- C++ -*----------------------------------*\
| =========                 |                                                 |
| \\      /  F ield         | OpenFOAM: The Open Source CFD Toolbox           |
|  \\    /   O peration     | Version:  v1706                                 |
|   \\  /    A nd           | Web:      www.OpenFOAM.com                      |
|    \\/     M anipulation  |                                                 |
\*---------------------------------------------------------------------------*/
FoamFile
{
    version     2.0;
    format      ascii;
    class       volScalarField;
    location    "1.5e-05";
    object      wallHeatFlux;
}
// * * * * * * * * * * * * * * * * * * * * * * * * * * * * * * * * * * * * * //

dimensions      [1 0 -3 0 0 0 0];


internalField   uniform 0;

boundaryField
{
    cone
    {
        type            calculated;
        value           nonuniform List<scalar> 
153
(
6136.75
5958.21
5778.44
5597.62
5415.96
5233.67
5051
4868.21
4685.58
4503.41
4322
4141.68
3962.78
3785.66
3610.64
3438.09
3268.34
3101.74
2938.61
2779.27
2624.04
2473.2
2327.04
2185.8
2049.72
1919
1793.84
1674.37
1560.74
1453.02
1351.3
1255.59
1165.92
1082.28
1004.7
933.224
868.033
809.266
756.867
709.741
667.535
631.002
599.866
573.698
552.203
535.193
522.588
513.512
509.803
514.501
528.119
552.11
586.176
629.707
682.127
743.428
813.829
893.196
981.291
1077.87
1182.7
1295.59
1416.33
1544.71
1680.51
1823.49
1973.41
2129.99
2292.92
2461.86
2636.47
2816.34
3001.05
3190.14
3383.13
3579.52
3778.78
3980.37
4183.74
4388.32
4593.55
4798.86
5003.63
5207.26
5409.12
5608.57
5805.09
5998.28
6187.97
6374.18
6557.1
6736.86
6913.33
7086
7254.12
7417.4
7575
7725.19
7866.81
7998.3
8117.69
8222.81
8311.38
8381.43
8430.48
8456.81
8459.25
8437.3
8391.16
8321.64
8230.13
8119.04
7991.18
7849.22
7695.84
7533.55
7364.64
7191.14
7014.84
6837.29
6659.83
6483.64
6309.73
6139
5972.21
5810.03
5653.01
5501.65
5356.33
5217.41
5085.15
4959.8
4841.55
4730.56
4626.95
4530.85
4442.33
4361.47
4288.35
4223.03
4165.61
4116.21
4074.95
4041.94
4017.36
4000.73
3990.86
3987.99
3993.13
4006.34
4027.18
4055.43
4091.06
)
;
    }
    inlet
    {
        type            calculated;
        value           uniform 0;
    }
    rWedge
    {
        type            wedge;
    }
    lWedge
    {
        type            wedge;
    }
    outlet
    {
        type            calculated;
        value           nonuniform 0();
    }
    procBoundary2to0
    {
        type            processor;
        value           uniform 0;
    }
    procBoundary2to1
    {
        type            processor;
        value           uniform 0;
    }
    procBoundary2to3
    {
        type            processor;
        value           uniform 0;
    }
}


// ************************************************************************* //
