/*--------------------------------*- C++ -*----------------------------------*\
| =========                 |                                                 |
| \\      /  F ield         | OpenFOAM: The Open Source CFD Toolbox           |
|  \\    /   O peration     | Version:  v1706                                 |
|   \\  /    A nd           | Web:      www.OpenFOAM.com                      |
|    \\/     M anipulation  |                                                 |
\*---------------------------------------------------------------------------*/
FoamFile
{
    version     2.0;
    format      ascii;
    class       volVectorField;
    location    "3.8e-05";
    object      U;
}
// * * * * * * * * * * * * * * * * * * * * * * * * * * * * * * * * * * * * * //

dimensions      [0 1 -1 0 0 0 0];


internalField   nonuniform List<vector> 
29987
(
(1760 -2.25031e-08 4.13913e-11)
(1760 -7.40977e-09 1.30715e-11)
(1760 -3.30902e-09 5.93544e-12)
(1760 -1.97153e-09 3.50248e-12)
(1760 -1.34086e-09 2.33355e-12)
(1760 -9.75142e-10 1.69622e-12)
(1760 -7.41879e-10 1.28738e-12)
(1760 -5.84211e-10 1.01165e-12)
(1760 -4.73184e-10 8.15134e-13)
(1760 -3.90571e-10 6.91153e-13)
(1760 -3.27135e-10 5.16225e-13)
(1760 -2.80781e-10 4.57891e-13)
(1760 -2.4708e-10 4.17914e-13)
(1760 -2.15569e-10 3.51428e-13)
(1760 -1.90273e-10 3.09678e-13)
(1760 -1.71269e-10 2.65448e-13)
(1760 -1.55445e-10 2.21259e-13)
(1760 -1.41429e-10 1.92691e-13)
(1760 -1.2878e-10 1.82752e-13)
(1760 -1.20139e-10 1.71976e-13)
(1760 -1.11473e-10 1.67096e-13)
(1760 -1.0189e-10 1.41454e-13)
(1760 -9.45756e-11 1.32705e-13)
(1760 -9.06673e-11 1.14286e-13)
(1760 -8.56377e-11 1.16642e-13)
(1760 -8.08155e-11 1.12338e-13)
(1760 -7.51324e-11 9.12025e-14)
(1760 -7.17209e-11 8.11837e-14)
(1760 -6.89974e-11 8.76633e-14)
(1760 -6.66915e-11 8.0662e-14)
(1760 -6.25537e-11 8.34027e-14)
(1760 -6.1398e-11 7.48543e-14)
(1760 -5.88177e-11 6.42866e-14)
(1760 -5.58214e-11 5.95913e-14)
(1760 -5.56878e-11 6.0887e-14)
(1760 -5.28343e-11 5.52444e-14)
(1760 -5.25144e-11 5.4087e-14)
(1760 -4.88486e-11 4.45797e-14)
(1760 -4.85407e-11 4.22849e-14)
(1760 -4.81867e-11 4.65467e-14)
(1760 -4.59081e-11 3.80628e-14)
(1760 -4.53506e-11 3.83103e-14)
(1760 -4.53578e-11 4.44822e-14)
(1760 -4.34211e-11 3.83873e-14)
(1760 -4.31444e-11 3.59295e-14)
(1760 -4.15667e-11 3.24339e-14)
(1760 -4.14565e-11 4.37742e-14)
(1760 -4.11101e-11 3.05694e-14)
(1760 -4.03528e-11 2.88994e-14)
(1760 -3.8863e-11 3.28532e-14)
(1760 -3.7464e-11 3.24179e-14)
(1760 -3.8558e-11 2.97777e-14)
(1760 -3.76701e-11 2.88611e-14)
(1760 -3.66811e-11 2.58283e-14)
(1760 -3.59552e-11 2.70588e-14)
(1760 -3.64636e-11 2.18398e-14)
(1760 -3.65742e-11 1.90017e-14)
(1760 -3.69248e-11 1.97064e-14)
(1760 -3.61719e-11 2.14265e-14)
(1760 -3.48653e-11 2.61519e-14)
(1760 -3.53797e-11 2.51388e-14)
(1760 -3.47951e-11 1.3777e-14)
(1760 -3.41613e-11 1.84809e-14)
(1760 -3.43048e-11 2.11933e-14)
(1760 -3.31119e-11 1.66605e-14)
(1760 -3.36416e-11 1.45489e-14)
(1760 -3.29754e-11 1.51806e-14)
(1760 -3.41696e-11 1.81376e-14)
(1760 -3.4322e-11 1.7741e-14)
(1760 -3.34642e-11 1.5854e-14)
(1760 -3.40177e-11 1.34795e-14)
(1760 -3.38449e-11 1.61515e-14)
(1760 -3.41562e-11 1.38536e-14)
(1760 -3.2457e-11 1.43128e-14)
(1760 -3.33614e-11 1.77646e-14)
(1760 -3.39062e-11 1.60901e-14)
(1760 -3.36451e-11 1.48796e-14)
(1760 -3.38589e-11 1.67187e-14)
(1760 -3.38142e-11 1.07348e-14)
(1760 -3.30805e-11 7.17276e-15)
(1760 -3.25909e-11 1.05208e-14)
(1760 -3.34335e-11 1.09913e-14)
(1760 -3.41417e-11 8.08483e-15)
(1760 -3.43815e-11 1.07572e-14)
(1760 -3.41997e-11 1.20678e-14)
(1760 -3.37965e-11 1.07448e-14)
(1760 -3.40917e-11 9.24966e-15)
(1760 -3.41414e-11 9.78462e-15)
(1760 -3.39627e-11 1.25632e-14)
(1760 -3.29557e-11 8.53258e-15)
(1760 -3.27442e-11 6.73437e-15)
(1760 -3.25139e-11 6.94837e-15)
(1760 -3.20369e-11 1.09028e-14)
(1760 -3.30171e-11 1.20216e-14)
(1760 -3.37069e-11 1.24998e-14)
(1760 -3.42506e-11 1.17445e-14)
(1760 -3.39096e-11 7.77702e-15)
(1760 -3.4219e-11 1.08208e-14)
(1760 -3.4393e-11 1.10368e-14)
(1760 -3.48757e-11 7.86756e-15)
(1760 -3.53121e-11 7.22168e-15)
(1760 -3.53722e-11 1.29808e-14)
(1760 -3.59048e-11 1.21782e-14)
(1760 -3.64047e-11 9.22459e-15)
(1760 -3.6724e-11 9.98517e-15)
(1760 -3.7111e-11 7.49588e-15)
(1760 -3.73026e-11 6.07948e-15)
(1760 -3.66178e-11 7.20099e-15)
(1760 -3.58389e-11 9.87826e-15)
(1760 -3.58825e-11 7.37849e-15)
(1760 -3.62831e-11 7.59334e-15)
(1760 -3.69998e-11 7.3202e-15)
(1760 -3.75233e-11 9.34e-15)
(1760 -3.82187e-11 7.62479e-15)
(1760 -3.86306e-11 9.68233e-15)
(1760 -3.88818e-11 7.47618e-15)
(1760 -3.94211e-11 7.56123e-15)
(1760 -3.77063e-11 1.24874e-14)
(1760 -3.79477e-11 1.12803e-14)
(1760 -3.8e-11 6.98058e-15)
(1760 -3.86533e-11 7.44182e-15)
(1760 -3.91234e-11 8.54745e-15)
(1760 -3.97324e-11 7.09082e-15)
(1760 -4.02564e-11 8.41654e-15)
(1760 -4.08522e-11 9.07774e-15)
(1760 -4.10498e-11 8.30849e-15)
(1760 -4.13373e-11 9.07326e-15)
(1760 -4.16053e-11 8.19141e-15)
(1760 -4.26037e-11 9.77854e-15)
(1760 -4.38084e-11 6.70475e-15)
(1760 -4.52405e-11 1.04139e-14)
(1760 -4.48552e-11 1.31669e-14)
(1760 -4.62101e-11 4.91435e-15)
(1760 -4.56582e-11 4.0902e-15)
(1760 -4.56095e-11 5.94099e-15)
(1760 -4.47112e-11 5.40196e-15)
(1760 -4.45773e-11 7.26947e-15)
(1760 -4.63997e-11 8.13816e-15)
(1760 -4.73115e-11 5.4032e-15)
(1760 -4.78665e-11 9.18056e-15)
(1760 -4.69118e-11 9.03222e-16)
(1760 -4.66271e-11 3.62904e-15)
(1760 -4.90539e-11 7.12682e-15)
(1760 -4.9913e-11 5.34791e-15)
(1760 -5.17482e-11 8.25643e-15)
(1760 -5.20432e-11 7.48223e-15)
(1760 -5.28162e-11 1.02818e-14)
(1760 -5.40041e-11 8.2756e-15)
(1760 -5.32908e-11 6.65327e-15)
(1760 -5.2147e-11 4.79984e-15)
(1760 -5.36522e-11 3.71181e-15)
(1760 -5.5521e-11 5.03448e-15)
(1760 -5.52141e-11 4.15503e-15)
(1760 -5.48418e-11 9.09677e-15)
(1760 -5.48869e-11 5.48819e-15)
(1760 -5.60957e-11 8.43323e-15)
(1760 -6.29904e-08 1.07786e-10)
(1760 -2.70655e-08 4.37339e-11)
(1760 -1.27646e-08 1.99826e-11)
(1760 -7.2061e-09 1.14344e-11)
(1760 -4.6831e-09 7.50346e-12)
(1760 -3.33032e-09 5.36276e-12)
(1760 -2.50526e-09 4.00006e-12)
(1760 -1.96218e-09 3.0952e-12)
(1760 -1.58422e-09 2.49526e-12)
(1760 -1.3068e-09 2.01998e-12)
(1760 -1.09457e-09 1.62816e-12)
(1760 -9.33089e-10 1.41725e-12)
(1760 -8.13753e-10 1.1905e-12)
(1760 -7.12716e-10 1.04383e-12)
(1760 -6.2975e-10 8.92223e-13)
(1760 -5.65124e-10 8.17309e-13)
(1760 -5.08241e-10 7.03802e-13)
(1760 -4.62312e-10 6.38125e-13)
(1760 -4.22956e-10 5.90642e-13)
(1760 -3.93402e-10 5.29728e-13)
(1760 -3.65887e-10 4.8349e-13)
(1760 -3.32653e-10 4.14903e-13)
(1760 -3.09822e-10 3.89661e-13)
(1760 -2.92275e-10 3.52675e-13)
(1760 -2.75269e-10 3.43488e-13)
(1760 -2.5943e-10 3.29947e-13)
(1760 -2.43483e-10 2.99686e-13)
(1760 -2.31486e-10 2.7662e-13)
(1760 -2.24025e-10 2.65921e-13)
(1760 -2.13485e-10 2.49921e-13)
(1760 -2.02427e-10 2.17428e-13)
(1760 -1.93991e-10 2.14832e-13)
(1760 -1.90636e-10 1.76969e-13)
(1760 -1.79807e-10 1.64325e-13)
(1760 -1.7458e-10 1.7114e-13)
(1760 -1.67376e-10 1.69414e-13)
(1760 -1.64926e-10 1.54244e-13)
(1760 -1.5879e-10 1.51026e-13)
(1760 -1.5486e-10 1.41708e-13)
(1760 -1.50796e-10 1.27877e-13)
(1760 -1.45334e-10 1.14361e-13)
(1760 -1.41371e-10 1.19216e-13)
(1760 -1.38864e-10 1.25961e-13)
(1760 -1.39556e-10 1.1224e-13)
(1760 -1.36651e-10 9.08378e-14)
(1760 -1.31074e-10 1.05209e-13)
(1760 -1.28008e-10 1.04046e-13)
(1760 -1.25991e-10 8.87236e-14)
(1760 -1.26572e-10 8.87026e-14)
(1760 -1.25328e-10 9.47069e-14)
(1760 -1.20796e-10 9.38779e-14)
(1760 -1.1998e-10 8.06454e-14)
(1760 -1.17281e-10 7.92366e-14)
(1760 -1.17102e-10 6.47366e-14)
(1760 -1.13375e-10 6.89567e-14)
(1760 -1.12867e-10 6.35392e-14)
(1760 -1.11353e-10 6.21001e-14)
(1760 -1.10884e-10 6.29684e-14)
(1760 -1.12305e-10 7.14925e-14)
(1760 -1.08771e-10 7.03493e-14)
(1760 -1.08141e-10 5.98936e-14)
(1760 -1.07531e-10 5.06267e-14)
(1760 -1.05327e-10 6.29057e-14)
(1760 -1.08999e-10 5.61684e-14)
(1760 -1.05659e-10 5.24608e-14)
(1760 -1.0369e-10 5.18104e-14)
(1760 -1.00985e-10 4.58035e-14)
(1760 -1.00982e-10 5.07423e-14)
(1760 -1.04032e-10 5.06885e-14)
(1760 -1.02035e-10 4.63414e-14)
(1760 -1.02568e-10 4.82576e-14)
(1760 -1.02374e-10 4.993e-14)
(1760 -1.0447e-10 4.43627e-14)
(1760 -1.01771e-10 4.49975e-14)
(1760 -9.95712e-11 4.91507e-14)
(1760 -1.00873e-10 5.1105e-14)
(1760 -9.94557e-11 4.56164e-14)
(1760 -1.01709e-10 4.38895e-14)
(1760 -1.01482e-10 3.24366e-14)
(1760 -1.02133e-10 3.11276e-14)
(1760 -9.96194e-11 3.57606e-14)
(1760 -9.98987e-11 3.33712e-14)
(1760 -1.00339e-10 3.17942e-14)
(1760 -1.00541e-10 3.78383e-14)
(1760 -1.02289e-10 4.24465e-14)
(1760 -1.01777e-10 3.88875e-14)
(1760 -1.01517e-10 3.42652e-14)
(1760 -1.02536e-10 3.97028e-14)
(1760 -1.04715e-10 3.53148e-14)
(1760 -1.04158e-10 2.86025e-14)
(1760 -1.03257e-10 3.17648e-14)
(1760 -1.05206e-10 2.6859e-14)
(1760 -1.02605e-10 3.39212e-14)
(1760 -9.9732e-11 3.5453e-14)
(1760 -1.00473e-10 4.00127e-14)
(1760 -1.02999e-10 3.20282e-14)
(1760 -1.03327e-10 2.41338e-14)
(1760 -1.029e-10 2.61569e-14)
(1760 -1.02877e-10 2.44038e-14)
(1760 -1.03759e-10 2.49649e-14)
(1760 -1.03741e-10 2.54256e-14)
(1760 -1.04234e-10 2.69464e-14)
(1760 -1.0486e-10 2.94756e-14)
(1760 -1.05369e-10 2.1514e-14)
(1760 -1.05332e-10 2.2624e-14)
(1760 -1.05926e-10 2.14033e-14)
(1760 -1.06887e-10 2.26402e-14)
(1760 -1.09637e-10 2.14248e-14)
(1760 -1.08737e-10 1.86429e-14)
(1760 -1.09023e-10 2.07946e-14)
(1760 -1.08291e-10 2.35358e-14)
(1760 -1.07946e-10 2.2821e-14)
(1760 -1.08414e-10 2.25127e-14)
(1760 -1.10173e-10 2.47987e-14)
(1760 -1.11233e-10 2.73226e-14)
(1760 -1.12205e-10 2.60765e-14)
(1760 -1.15074e-10 2.68655e-14)
(1760 -1.15085e-10 2.60368e-14)
(1760 -1.15407e-10 2.23736e-14)
(1760 -1.15441e-10 1.80524e-14)
(1760 -1.16159e-10 2.01906e-14)
(1760 -1.17781e-10 2.10984e-14)
(1760 -1.18564e-10 2.14709e-14)
(1760 -1.18935e-10 2.27356e-14)
(1760 -1.20629e-10 2.33851e-14)
(1760 -1.2245e-10 2.21421e-14)
(1760 -1.23574e-10 2.21259e-14)
(1760 -1.23452e-10 2.07894e-14)
(1760 -1.23636e-10 2.05908e-14)
(1760 -1.25511e-10 2.38372e-14)
(1760 -1.26925e-10 2.46673e-14)
(1760 -1.28122e-10 1.87917e-14)
(1760 -1.31258e-10 1.85779e-14)
(1760 -1.33767e-10 2.01116e-14)
(1760 -1.36946e-10 1.81278e-14)
(1760 -1.37983e-10 1.89815e-14)
(1760 -1.36349e-10 2.39973e-14)
(1760 -1.36042e-10 1.88291e-14)
(1760 -1.36876e-10 2.04336e-14)
(1760 -1.41185e-10 2.26115e-14)
(1760 -1.44977e-10 1.74106e-14)
(1760 -1.44455e-10 1.89716e-14)
(1760 -1.44828e-10 1.8297e-14)
(1760 -1.43914e-10 2.00837e-14)
(1760 -1.4676e-10 1.78404e-14)
(1760 -1.48101e-10 2.20854e-14)
(1760 -1.49496e-10 2.1132e-14)
(1760 -1.53164e-10 2.19273e-14)
(1760 -1.57913e-10 2.34751e-14)
(1760 -1.59082e-10 1.85734e-14)
(1760 -1.58019e-10 1.80959e-14)
(1760 -1.60758e-10 1.23203e-14)
(1760 -1.64361e-10 1.58908e-14)
(1760 -1.66194e-10 1.75721e-14)
(1760 -1.68649e-10 1.67347e-14)
(1760 -1.69065e-10 2.00661e-14)
(1760 -9.30507e-08 1.56651e-10)
(1760 -4.73939e-08 7.42228e-11)
(1760 -2.41418e-08 3.58152e-11)
(1760 -1.36823e-08 2.00886e-11)
(1760 -8.73011e-09 1.28215e-11)
(1760 -6.10268e-09 8.96266e-12)
(1760 -4.54274e-09 6.73237e-12)
(1760 -3.53384e-09 5.1871e-12)
(1760 -2.8407e-09 4.16192e-12)
(1760 -2.3433e-09 3.36488e-12)
(1760 -1.96296e-09 2.80198e-12)
(1760 -1.66919e-09 2.40514e-12)
(1760 -1.44749e-09 2.03976e-12)
(1760 -1.26538e-09 1.75873e-12)
(1760 -1.11849e-09 1.56003e-12)
(1760 -1.00138e-09 1.36526e-12)
(1760 -8.99836e-10 1.17685e-12)
(1760 -8.18076e-10 1.07161e-12)
(1760 -7.49502e-10 9.53593e-13)
(1760 -6.91625e-10 8.90986e-13)
(1760 -6.43928e-10 7.94479e-13)
(1760 -5.91648e-10 7.00156e-13)
(1760 -5.48232e-10 6.70773e-13)
(1760 -5.12513e-10 6.09848e-13)
(1760 -4.81353e-10 5.92351e-13)
(1760 -4.5291e-10 5.48909e-13)
(1760 -4.29114e-10 5.20582e-13)
(1760 -4.08475e-10 4.70867e-13)
(1760 -3.91592e-10 4.28987e-13)
(1760 -3.71849e-10 4.06208e-13)
(1760 -3.54537e-10 3.70961e-13)
(1760 -3.38672e-10 3.6489e-13)
(1760 -3.27265e-10 3.24059e-13)
(1760 -3.13169e-10 3.18419e-13)
(1760 -3.03024e-10 3.10447e-13)
(1760 -2.93157e-10 2.72545e-13)
(1760 -2.84587e-10 2.54897e-13)
(1760 -2.74697e-10 2.54448e-13)
(1760 -2.68078e-10 2.5465e-13)
(1760 -2.59572e-10 2.26007e-13)
(1760 -2.52099e-10 2.15439e-13)
(1760 -2.43516e-10 2.08884e-13)
(1760 -2.38129e-10 2.0739e-13)
(1760 -2.38094e-10 1.90022e-13)
(1760 -2.36032e-10 1.73279e-13)
(1760 -2.25498e-10 1.74503e-13)
(1760 -2.19215e-10 1.70974e-13)
(1760 -2.17406e-10 1.67036e-13)
(1760 -2.13168e-10 1.64804e-13)
(1760 -2.13526e-10 1.71929e-13)
(1760 -2.08353e-10 1.5405e-13)
(1760 -2.04925e-10 1.45864e-13)
(1760 -2.02893e-10 1.36122e-13)
(1760 -2.00138e-10 1.31529e-13)
(1760 -1.96353e-10 1.22469e-13)
(1760 -1.92296e-10 1.19776e-13)
(1760 -1.90927e-10 1.11934e-13)
(1760 -1.87962e-10 1.08286e-13)
(1760 -1.9057e-10 1.18957e-13)
(1760 -1.86314e-10 1.14675e-13)
(1760 -1.83522e-10 1.08406e-13)
(1760 -1.82133e-10 1.10313e-13)
(1760 -1.80032e-10 1.02605e-13)
(1760 -1.81236e-10 8.55034e-14)
(1760 -1.81179e-10 9.43822e-14)
(1760 -1.78663e-10 8.93992e-14)
(1760 -1.73405e-10 8.18255e-14)
(1760 -1.71001e-10 9.06882e-14)
(1760 -1.7155e-10 7.98701e-14)
(1760 -1.72076e-10 7.55595e-14)
(1760 -1.73012e-10 7.54303e-14)
(1760 -1.71881e-10 7.8569e-14)
(1760 -1.74116e-10 7.44214e-14)
(1760 -1.72791e-10 7.71262e-14)
(1760 -1.70497e-10 8.03333e-14)
(1760 -1.70164e-10 7.80105e-14)
(1760 -1.69041e-10 6.92156e-14)
(1760 -1.70029e-10 6.97705e-14)
(1760 -1.6952e-10 6.99311e-14)
(1760 -1.69096e-10 6.68966e-14)
(1760 -1.67796e-10 6.3158e-14)
(1760 -1.66982e-10 5.84379e-14)
(1760 -1.68701e-10 5.54823e-14)
(1760 -1.6795e-10 5.55129e-14)
(1760 -1.69028e-10 5.54345e-14)
(1760 -1.69719e-10 5.43667e-14)
(1760 -1.68983e-10 6.11883e-14)
(1760 -1.69989e-10 6.45256e-14)
(1760 -1.71052e-10 5.75744e-14)
(1760 -1.73403e-10 5.64426e-14)
(1760 -1.72582e-10 5.19961e-14)
(1760 -1.74578e-10 5.17065e-14)
(1760 -1.73361e-10 5.86116e-14)
(1760 -1.71499e-10 6.40864e-14)
(1760 -1.69226e-10 6.21656e-14)
(1760 -1.71038e-10 4.66029e-14)
(1760 -1.74195e-10 4.28396e-14)
(1760 -1.73632e-10 4.66308e-14)
(1760 -1.74314e-10 4.72754e-14)
(1760 -1.75606e-10 4.64762e-14)
(1760 -1.74821e-10 4.08384e-14)
(1760 -1.7409e-10 4.66561e-14)
(1760 -1.74937e-10 4.44383e-14)
(1760 -1.76358e-10 4.14723e-14)
(1760 -1.77935e-10 4.76742e-14)
(1760 -1.79065e-10 4.3982e-14)
(1760 -1.79219e-10 4.06306e-14)
(1760 -1.81881e-10 3.75418e-14)
(1760 -1.81881e-10 3.93498e-14)
(1760 -1.8269e-10 4.08182e-14)
(1760 -1.84054e-10 3.5909e-14)
(1760 -1.83814e-10 3.52147e-14)
(1760 -1.8299e-10 3.60062e-14)
(1760 -1.83559e-10 3.86031e-14)
(1760 -1.86086e-10 3.95837e-14)
(1760 -1.8877e-10 4.70737e-14)
(1760 -1.90461e-10 4.77012e-14)
(1760 -1.91572e-10 4.67902e-14)
(1760 -1.92356e-10 3.94277e-14)
(1760 -1.93981e-10 3.80551e-14)
(1760 -1.94409e-10 3.85465e-14)
(1760 -1.95755e-10 3.78707e-14)
(1760 -1.97383e-10 3.62885e-14)
(1760 -1.98461e-10 3.40793e-14)
(1760 -1.99864e-10 3.57489e-14)
(1760 -2.01535e-10 3.65819e-14)
(1760 -2.03471e-10 3.51419e-14)
(1760 -2.04876e-10 3.57499e-14)
(1760 -2.05611e-10 4.073e-14)
(1760 -2.07118e-10 3.88038e-14)
(1760 -2.08668e-10 3.48599e-14)
(1760 -2.10614e-10 3.75692e-14)
(1760 -2.13129e-10 3.84825e-14)
(1760 -2.16749e-10 3.4687e-14)
(1760 -2.19881e-10 3.66791e-14)
(1760 -2.25195e-10 2.97354e-14)
(1760 -2.25596e-10 2.80645e-14)
(1760 -2.27606e-10 3.38457e-14)
(1760 -2.25907e-10 3.83028e-14)
(1760 -2.28292e-10 3.27722e-14)
(1760 -2.32716e-10 2.75635e-14)
(1760 -2.37255e-10 2.69573e-14)
(1760 -2.3805e-10 3.17701e-14)
(1760 -2.40042e-10 2.98445e-14)
(1760 -2.4153e-10 3.30536e-14)
(1760 -2.41928e-10 2.9182e-14)
(1760 -2.44527e-10 3.13343e-14)
(1760 -2.47555e-10 3.37941e-14)
(1760 -2.52589e-10 3.63713e-14)
(1760 -2.58486e-10 3.28363e-14)
(1760 -2.61827e-10 3.2805e-14)
(1760 -2.63951e-10 3.12315e-14)
(1760 -2.66248e-10 3.107e-14)
(1760 -2.69243e-10 2.61299e-14)
(1760 -2.72097e-10 3.32959e-14)
(1760 -2.76736e-10 3.28198e-14)
(1760 -1.14836e-07 1.92233e-10)
(1760 -6.65023e-08 1.02172e-10)
(1760 -3.66227e-08 5.24175e-11)
(1760 -2.12829e-08 2.93821e-11)
(1760 -1.35279e-08 1.84856e-11)
(1760 -9.34355e-09 1.28044e-11)
(1760 -6.88601e-09 9.51188e-12)
(1760 -5.32102e-09 7.36199e-12)
(1760 -4.2553e-09 5.87666e-12)
(1760 -3.49814e-09 4.81434e-12)
(1760 -2.92961e-09 3.94374e-12)
(1760 -2.49169e-09 3.37335e-12)
(1760 -2.15273e-09 2.89253e-12)
(1760 -1.87655e-09 2.50949e-12)
(1760 -1.65757e-09 2.25024e-12)
(1760 -1.48155e-09 1.93869e-12)
(1760 -1.33035e-09 1.69588e-12)
(1760 -1.20954e-09 1.50633e-12)
(1760 -1.10604e-09 1.33804e-12)
(1760 -1.02092e-09 1.26167e-12)
(1760 -9.46624e-10 1.12039e-12)
(1760 -8.73345e-10 1.04065e-12)
(1760 -8.07174e-10 9.51489e-13)
(1760 -7.52227e-10 8.81584e-13)
(1760 -7.05144e-10 8.07485e-13)
(1760 -6.63591e-10 7.49554e-13)
(1760 -6.28107e-10 6.97391e-13)
(1760 -5.9957e-10 6.45906e-13)
(1760 -5.71649e-10 6.19916e-13)
(1760 -5.4384e-10 5.72031e-13)
(1760 -5.19318e-10 5.38523e-13)
(1760 -4.95842e-10 5.0818e-13)
(1760 -4.74225e-10 4.87913e-13)
(1760 -4.55556e-10 4.55976e-13)
(1760 -4.38576e-10 4.28682e-13)
(1760 -4.27764e-10 3.98987e-13)
(1760 -4.12518e-10 3.78514e-13)
(1760 -3.98571e-10 3.49455e-13)
(1760 -3.9e-10 3.50218e-13)
(1760 -3.75293e-10 3.17146e-13)
(1760 -3.64674e-10 3.09195e-13)
(1760 -3.53468e-10 2.90951e-13)
(1760 -3.44885e-10 2.85021e-13)
(1760 -3.41089e-10 2.66913e-13)
(1760 -3.36575e-10 2.6888e-13)
(1760 -3.2628e-10 2.45107e-13)
(1760 -3.16287e-10 2.42722e-13)
(1760 -3.10484e-10 2.34497e-13)
(1760 -3.06019e-10 2.36024e-13)
(1760 -3.04633e-10 2.23539e-13)
(1760 -2.99008e-10 2.06811e-13)
(1760 -2.93981e-10 2.05642e-13)
(1760 -2.88893e-10 1.9669e-13)
(1760 -2.86111e-10 1.88718e-13)
(1760 -2.80825e-10 1.72559e-13)
(1760 -2.75695e-10 1.75242e-13)
(1760 -2.75103e-10 1.66333e-13)
(1760 -2.69865e-10 1.62131e-13)
(1760 -2.69979e-10 1.6959e-13)
(1760 -2.67417e-10 1.62587e-13)
(1760 -2.6259e-10 1.50561e-13)
(1760 -2.59606e-10 1.39839e-13)
(1760 -2.57906e-10 1.3528e-13)
(1760 -2.56302e-10 1.38975e-13)
(1760 -2.55076e-10 1.46875e-13)
(1760 -2.5394e-10 1.34341e-13)
(1760 -2.48441e-10 1.2723e-13)
(1760 -2.4569e-10 1.28167e-13)
(1760 -2.43689e-10 1.12197e-13)
(1760 -2.43113e-10 1.0948e-13)
(1760 -2.43991e-10 1.10589e-13)
(1760 -2.41623e-10 1.15262e-13)
(1760 -2.43026e-10 1.12895e-13)
(1760 -2.43845e-10 1.12822e-13)
(1760 -2.41806e-10 1.07907e-13)
(1760 -2.39232e-10 1.04286e-13)
(1760 -2.39032e-10 1.07528e-13)
(1760 -2.39691e-10 1.09065e-13)
(1760 -2.4028e-10 1.01714e-13)
(1760 -2.39795e-10 9.29334e-14)
(1760 -2.37123e-10 8.70355e-14)
(1760 -2.35546e-10 9.45501e-14)
(1760 -2.35771e-10 8.86727e-14)
(1760 -2.3666e-10 8.9658e-14)
(1760 -2.3615e-10 8.61156e-14)
(1760 -2.37393e-10 8.79873e-14)
(1760 -2.37522e-10 8.61358e-14)
(1760 -2.40024e-10 8.11114e-14)
(1760 -2.39022e-10 7.76052e-14)
(1760 -2.40116e-10 8.02506e-14)
(1760 -2.41091e-10 7.92832e-14)
(1760 -2.42847e-10 7.87756e-14)
(1760 -2.42794e-10 8.22457e-14)
(1760 -2.43171e-10 8.64367e-14)
(1760 -2.41928e-10 7.4707e-14)
(1760 -2.39959e-10 7.2616e-14)
(1760 -2.41353e-10 7.55127e-14)
(1760 -2.40834e-10 6.85557e-14)
(1760 -2.42079e-10 6.70795e-14)
(1760 -2.43434e-10 6.42188e-14)
(1760 -2.45339e-10 5.93376e-14)
(1760 -2.45953e-10 5.96808e-14)
(1760 -2.46851e-10 6.1016e-14)
(1760 -2.4575e-10 6.48468e-14)
(1760 -2.47457e-10 6.44426e-14)
(1760 -2.50602e-10 6.26049e-14)
(1760 -2.5206e-10 6.05717e-14)
(1760 -2.55481e-10 5.98544e-14)
(1760 -2.58772e-10 5.59613e-14)
(1760 -2.57052e-10 5.08368e-14)
(1760 -2.55972e-10 5.25358e-14)
(1760 -2.56687e-10 5.22343e-14)
(1760 -2.56901e-10 5.78154e-14)
(1760 -2.5579e-10 5.80901e-14)
(1760 -2.57466e-10 6.18097e-14)
(1760 -2.60958e-10 6.03438e-14)
(1760 -2.65175e-10 5.85343e-14)
(1760 -2.66513e-10 5.4047e-14)
(1760 -2.67155e-10 5.06891e-14)
(1760 -2.68988e-10 5.35044e-14)
(1760 -2.70833e-10 5.3927e-14)
(1760 -2.73025e-10 5.04993e-14)
(1760 -2.75353e-10 4.78414e-14)
(1760 -2.77834e-10 5.07527e-14)
(1760 -2.80092e-10 5.22243e-14)
(1760 -2.80759e-10 5.12297e-14)
(1760 -2.82656e-10 5.48378e-14)
(1760 -2.83972e-10 5.59377e-14)
(1760 -2.86236e-10 5.09681e-14)
(1760 -2.88813e-10 4.90921e-14)
(1760 -2.90404e-10 4.9727e-14)
(1760 -2.92999e-10 5.09354e-14)
(1760 -2.95023e-10 4.84713e-14)
(1760 -2.97518e-10 4.831e-14)
(1760 -3.00998e-10 4.91288e-14)
(1760 -3.04451e-10 4.70745e-14)
(1760 -3.08905e-10 5.43307e-14)
(1760 -3.13329e-10 4.9187e-14)
(1760 -3.13275e-10 5.16945e-14)
(1760 -3.1701e-10 4.5189e-14)
(1760 -3.19177e-10 4.50098e-14)
(1760 -3.23717e-10 4.52821e-14)
(1760 -3.27282e-10 4.49475e-14)
(1760 -3.32428e-10 4.52646e-14)
(1760 -3.35911e-10 4.47119e-14)
(1760 -3.36464e-10 4.97795e-14)
(1760 -3.37815e-10 4.96302e-14)
(1760 -3.39572e-10 4.7383e-14)
(1760 -3.45056e-10 4.40119e-14)
(1760 -3.50972e-10 4.50548e-14)
(1760 -3.57697e-10 4.50328e-14)
(1760 -3.63574e-10 4.74422e-14)
(1760 -3.67503e-10 4.75667e-14)
(1760 -3.70226e-10 4.05082e-14)
(1760 -3.72885e-10 4.32705e-14)
(1760 -3.75548e-10 4.27995e-14)
(1760 -1.31026e-07 2.18772e-10)
(1760 -8.36464e-08 1.27261e-10)
(1760 -4.94917e-08 6.90838e-11)
(1760 -2.97635e-08 3.92743e-11)
(1760 -1.90545e-08 2.46933e-11)
(1760 -1.30907e-08 1.69776e-11)
(1760 -9.5632e-09 1.24418e-11)
(1760 -7.33736e-09 9.61406e-12)
(1760 -5.83983e-09 7.67698e-12)
(1760 -4.78057e-09 6.29312e-12)
(1760 -3.99967e-09 5.19582e-12)
(1760 -3.39889e-09 4.3821e-12)
(1760 -2.9272e-09 3.72893e-12)
(1760 -2.54855e-09 3.24794e-12)
(1760 -2.24826e-09 2.8657e-12)
(1760 -2.00795e-09 2.51694e-12)
(1760 -1.80344e-09 2.20884e-12)
(1760 -1.63449e-09 1.99068e-12)
(1760 -1.49259e-09 1.80906e-12)
(1760 -1.37703e-09 1.62473e-12)
(1760 -1.27489e-09 1.48813e-12)
(1760 -1.17778e-09 1.36237e-12)
(1760 -1.08865e-09 1.23034e-12)
(1760 -1.01197e-09 1.14601e-12)
(1760 -9.46765e-10 1.04394e-12)
(1760 -8.93035e-10 9.97928e-13)
(1760 -8.42783e-10 9.16666e-13)
(1760 -8.00966e-10 8.71625e-13)
(1760 -7.62618e-10 8.24565e-13)
(1760 -7.28693e-10 7.59359e-13)
(1760 -6.96579e-10 7.00878e-13)
(1760 -6.64536e-10 6.67357e-13)
(1760 -6.34555e-10 6.10511e-13)
(1760 -6.08096e-10 5.73098e-13)
(1760 -5.85634e-10 5.51235e-13)
(1760 -5.66895e-10 5.26192e-13)
(1760 -5.4704e-10 4.95099e-13)
(1760 -5.30306e-10 4.69752e-13)
(1760 -5.17327e-10 4.32951e-13)
(1760 -4.99254e-10 4.13664e-13)
(1760 -4.83535e-10 4.10097e-13)
(1760 -4.68618e-10 3.95971e-13)
(1760 -4.58585e-10 3.7635e-13)
(1760 -4.51345e-10 3.64231e-13)
(1760 -4.43811e-10 3.49875e-13)
(1760 -4.32183e-10 3.37061e-13)
(1760 -4.18523e-10 3.13131e-13)
(1760 -4.09012e-10 3.02006e-13)
(1760 -4.02393e-10 2.88087e-13)
(1760 -3.99958e-10 2.67593e-13)
(1760 -3.9487e-10 2.74116e-13)
(1760 -3.87013e-10 2.61715e-13)
(1760 -3.81573e-10 2.56017e-13)
(1760 -3.74072e-10 2.45247e-13)
(1760 -3.66708e-10 2.41811e-13)
(1760 -3.62525e-10 2.32684e-13)
(1760 -3.61226e-10 2.13501e-13)
(1760 -3.5626e-10 2.09836e-13)
(1760 -3.51779e-10 2.135e-13)
(1760 -3.49917e-10 1.941e-13)
(1760 -3.45143e-10 1.86289e-13)
(1760 -3.40399e-10 1.80966e-13)
(1760 -3.37337e-10 1.84351e-13)
(1760 -3.33774e-10 1.90393e-13)
(1760 -3.3307e-10 1.7458e-13)
(1760 -3.30833e-10 1.75481e-13)
(1760 -3.25474e-10 1.71281e-13)
(1760 -3.20528e-10 1.5685e-13)
(1760 -3.1916e-10 1.64673e-13)
(1760 -3.1855e-10 1.59878e-13)
(1760 -3.16949e-10 1.50744e-13)
(1760 -3.13681e-10 1.4977e-13)
(1760 -3.14044e-10 1.43909e-13)
(1760 -3.1562e-10 1.3972e-13)
(1760 -3.15207e-10 1.43561e-13)
(1760 -3.11957e-10 1.40159e-13)
(1760 -3.10227e-10 1.39728e-13)
(1760 -3.11027e-10 1.30589e-13)
(1760 -3.10418e-10 1.2175e-13)
(1760 -3.0949e-10 1.2193e-13)
(1760 -3.09533e-10 1.29163e-13)
(1760 -3.0675e-10 1.18856e-13)
(1760 -3.04845e-10 1.14366e-13)
(1760 -3.05837e-10 1.13515e-13)
(1760 -3.06563e-10 1.1257e-13)
(1760 -3.06497e-10 1.06977e-13)
(1760 -3.06041e-10 1.04002e-13)
(1760 -3.08292e-10 1.08782e-13)
(1760 -3.10294e-10 1.12871e-13)
(1760 -3.10103e-10 1.10387e-13)
(1760 -3.10848e-10 1.03096e-13)
(1760 -3.10784e-10 1.01998e-13)
(1760 -3.11587e-10 1.00554e-13)
(1760 -3.11318e-10 9.61085e-14)
(1760 -3.11956e-10 9.48282e-14)
(1760 -3.11353e-10 9.66254e-14)
(1760 -3.11562e-10 9.00405e-14)
(1760 -3.12033e-10 8.93515e-14)
(1760 -3.1148e-10 9.11472e-14)
(1760 -3.12906e-10 8.48285e-14)
(1760 -3.14863e-10 8.01115e-14)
(1760 -3.14573e-10 8.24611e-14)
(1760 -3.17824e-10 8.57487e-14)
(1760 -3.18774e-10 7.84578e-14)
(1760 -3.17171e-10 7.9266e-14)
(1760 -3.18759e-10 8.17637e-14)
(1760 -3.20371e-10 8.01426e-14)
(1760 -3.22333e-10 7.87632e-14)
(1760 -3.2622e-10 7.49666e-14)
(1760 -3.29242e-10 7.67863e-14)
(1760 -3.31888e-10 7.68344e-14)
(1760 -3.32213e-10 7.55975e-14)
(1760 -3.3202e-10 7.6417e-14)
(1760 -3.29558e-10 6.59802e-14)
(1760 -3.28992e-10 6.71285e-14)
(1760 -3.3163e-10 7.06712e-14)
(1760 -3.36802e-10 7.34547e-14)
(1760 -3.39577e-10 7.13935e-14)
(1760 -3.4199e-10 7.5138e-14)
(1760 -3.44536e-10 7.48226e-14)
(1760 -3.45735e-10 6.65396e-14)
(1760 -3.47034e-10 6.34927e-14)
(1760 -3.49346e-10 6.91587e-14)
(1760 -3.51955e-10 6.83769e-14)
(1760 -3.56823e-10 6.33746e-14)
(1760 -3.59715e-10 7.02324e-14)
(1760 -3.6135e-10 6.94726e-14)
(1760 -3.62854e-10 6.28323e-14)
(1760 -3.65075e-10 6.15072e-14)
(1760 -3.68022e-10 6.12025e-14)
(1760 -3.70159e-10 6.25027e-14)
(1760 -3.72772e-10 6.59477e-14)
(1760 -3.75215e-10 6.47626e-14)
(1760 -3.78196e-10 6.65988e-14)
(1760 -3.81792e-10 6.66364e-14)
(1760 -3.854e-10 6.55957e-14)
(1760 -3.88714e-10 6.58035e-14)
(1760 -3.94757e-10 5.89184e-14)
(1760 -3.97896e-10 6.27457e-14)
(1760 -4.02197e-10 5.66523e-14)
(1760 -4.03336e-10 6.07682e-14)
(1760 -4.09696e-10 5.83142e-14)
(1760 -4.14287e-10 6.04142e-14)
(1760 -4.19579e-10 6.15676e-14)
(1760 -4.24579e-10 5.90022e-14)
(1760 -4.28376e-10 5.95416e-14)
(1760 -4.31144e-10 5.80369e-14)
(1760 -4.34038e-10 5.28562e-14)
(1760 -4.37398e-10 5.46151e-14)
(1760 -4.4139e-10 5.73405e-14)
(1760 -4.47833e-10 5.51837e-14)
(1760 -4.56774e-10 6.18993e-14)
(1760 -4.63353e-10 5.48967e-14)
(1760 -4.67783e-10 5.47009e-14)
(1760 -4.73189e-10 5.98316e-14)
(1760 -4.73699e-10 5.9187e-14)
(1760 -1.43498e-07 2.39731e-10)
(1760 -9.87014e-08 1.49215e-10)
(1760 -6.22154e-08 8.5145e-11)
(1760 -3.88467e-08 4.96897e-11)
(1760 -2.52302e-08 3.12733e-11)
(1760 -1.73433e-08 2.1328e-11)
(1760 -1.26007e-08 1.5631e-11)
(1760 -9.60618e-09 1.19387e-11)
(1760 -7.60488e-09 9.45426e-12)
(1760 -6.19687e-09 7.70147e-12)
(1760 -5.17202e-09 6.41011e-12)
(1760 -4.39082e-09 5.40155e-12)
(1760 -3.77675e-09 4.63082e-12)
(1760 -3.2854e-09 4.03617e-12)
(1760 -2.89406e-09 3.48686e-12)
(1760 -2.57836e-09 3.06231e-12)
(1760 -2.31327e-09 2.74351e-12)
(1760 -2.09303e-09 2.43706e-12)
(1760 -1.91066e-09 2.21565e-12)
(1760 -1.75938e-09 1.98196e-12)
(1760 -1.62703e-09 1.82076e-12)
(1760 -1.50443e-09 1.65809e-12)
(1760 -1.39173e-09 1.51445e-12)
(1760 -1.29432e-09 1.37226e-12)
(1760 -1.21188e-09 1.29613e-12)
(1760 -1.13746e-09 1.21957e-12)
(1760 -1.0697e-09 1.13196e-12)
(1760 -1.01677e-09 1.06546e-12)
(1760 -9.67782e-10 9.76489e-13)
(1760 -9.23433e-10 8.97291e-13)
(1760 -8.83339e-10 8.62519e-13)
(1760 -8.42858e-10 8.04241e-13)
(1760 -8.05842e-10 7.56879e-13)
(1760 -7.70975e-10 7.22237e-13)
(1760 -7.42552e-10 6.77505e-13)
(1760 -7.16185e-10 6.1812e-13)
(1760 -6.87573e-10 6.1914e-13)
(1760 -6.68162e-10 5.81507e-13)
(1760 -6.50185e-10 5.5289e-13)
(1760 -6.30077e-10 5.32131e-13)
(1760 -6.11039e-10 4.92513e-13)
(1760 -5.89852e-10 4.73307e-13)
(1760 -5.74678e-10 4.56809e-13)
(1760 -5.66368e-10 4.42508e-13)
(1760 -5.56702e-10 4.25835e-13)
(1760 -5.42337e-10 4.16706e-13)
(1760 -5.2631e-10 3.83677e-13)
(1760 -5.12192e-10 3.72227e-13)
(1760 -5.02587e-10 3.6097e-13)
(1760 -4.98196e-10 3.37669e-13)
(1760 -4.91629e-10 3.28617e-13)
(1760 -4.84784e-10 3.17788e-13)
(1760 -4.76881e-10 3.06447e-13)
(1760 -4.67514e-10 3.00181e-13)
(1760 -4.57316e-10 2.84533e-13)
(1760 -4.50604e-10 2.72248e-13)
(1760 -4.47854e-10 2.66e-13)
(1760 -4.43489e-10 2.66779e-13)
(1760 -4.38039e-10 2.5224e-13)
(1760 -4.3398e-10 2.40357e-13)
(1760 -4.29239e-10 2.38413e-13)
(1760 -4.23434e-10 2.30517e-13)
(1760 -4.19116e-10 2.25438e-13)
(1760 -4.14909e-10 2.16076e-13)
(1760 -4.13034e-10 2.13844e-13)
(1760 -4.10695e-10 2.15339e-13)
(1760 -4.04862e-10 2.02164e-13)
(1760 -3.98746e-10 1.90631e-13)
(1760 -3.96971e-10 1.98851e-13)
(1760 -3.95493e-10 1.88239e-13)
(1760 -3.92776e-10 1.82056e-13)
(1760 -3.87993e-10 1.79285e-13)
(1760 -3.86438e-10 1.78502e-13)
(1760 -3.89521e-10 1.68009e-13)
(1760 -3.88627e-10 1.7234e-13)
(1760 -3.85953e-10 1.65536e-13)
(1760 -3.83711e-10 1.60218e-13)
(1760 -3.82271e-10 1.55649e-13)
(1760 -3.80994e-10 1.66625e-13)
(1760 -3.81209e-10 1.58832e-13)
(1760 -3.8221e-10 1.53606e-13)
(1760 -3.78327e-10 1.4478e-13)
(1760 -3.75045e-10 1.43728e-13)
(1760 -3.74833e-10 1.32837e-13)
(1760 -3.77045e-10 1.369e-13)
(1760 -3.75723e-10 1.28571e-13)
(1760 -3.76086e-10 1.34239e-13)
(1760 -3.75823e-10 1.29755e-13)
(1760 -3.79215e-10 1.30193e-13)
(1760 -3.79221e-10 1.22566e-13)
(1760 -3.80348e-10 1.21501e-13)
(1760 -3.81392e-10 1.2417e-13)
(1760 -3.82612e-10 1.18256e-13)
(1760 -3.81051e-10 1.14728e-13)
(1760 -3.80727e-10 1.16784e-13)
(1760 -3.8159e-10 1.16646e-13)
(1760 -3.82131e-10 1.09067e-13)
(1760 -3.83658e-10 1.11303e-13)
(1760 -3.83115e-10 1.1072e-13)
(1760 -3.83237e-10 1.09071e-13)
(1760 -3.84034e-10 1.06417e-13)
(1760 -3.83327e-10 1.07501e-13)
(1760 -3.86966e-10 9.82304e-14)
(1760 -3.89299e-10 9.71481e-14)
(1760 -3.90004e-10 1.01613e-13)
(1760 -3.9043e-10 9.99432e-14)
(1760 -3.91456e-10 9.9013e-14)
(1760 -3.93546e-10 9.60885e-14)
(1760 -3.94965e-10 9.82827e-14)
(1760 -3.98446e-10 9.94871e-14)
(1760 -4.0163e-10 9.29318e-14)
(1760 -4.04387e-10 9.07649e-14)
(1760 -4.06765e-10 8.74233e-14)
(1760 -4.07462e-10 8.75529e-14)
(1760 -4.05003e-10 9.07702e-14)
(1760 -4.04833e-10 9.15989e-14)
(1760 -4.07601e-10 9.43329e-14)
(1760 -4.10996e-10 9.4839e-14)
(1760 -4.14571e-10 9.31407e-14)
(1760 -4.18039e-10 8.7918e-14)
(1760 -4.21254e-10 7.899e-14)
(1760 -4.22983e-10 8.55206e-14)
(1760 -4.25891e-10 9.03149e-14)
(1760 -4.27786e-10 8.34866e-14)
(1760 -4.30202e-10 7.95621e-14)
(1760 -4.35651e-10 7.98726e-14)
(1760 -4.38343e-10 7.99083e-14)
(1760 -4.40699e-10 8.10694e-14)
(1760 -4.43508e-10 8.20814e-14)
(1760 -4.46859e-10 8.03684e-14)
(1760 -4.50471e-10 8.21482e-14)
(1760 -4.53346e-10 8.25995e-14)
(1760 -4.55866e-10 8.14071e-14)
(1760 -4.58559e-10 8.22025e-14)
(1760 -4.6249e-10 8.08592e-14)
(1760 -4.66057e-10 8.05635e-14)