/*--------------------------------*- C++ -*----------------------------------*\
| =========                 |                                                 |
| \\      /  F ield         | OpenFOAM: The Open Source CFD Toolbox           |
|  \\    /   O peration     | Version:  v1706                                 |
|   \\  /    A nd           | Web:      www.OpenFOAM.com                      |
|    \\/     M anipulation  |                                                 |
\*---------------------------------------------------------------------------*/
FoamFile
{
    version     2.0;
    format      ascii;
    class       volVectorField;
    location    "1.9e-05";
    object      U;
}
// * * * * * * * * * * * * * * * * * * * * * * * * * * * * * * * * * * * * * //

dimensions      [0 1 -1 0 0 0 0];


internalField   nonuniform List<vector> 
29987
(
(2764.5 -2.08802e-08 4.08532e-11)
(2764.5 -6.56239e-09 1.19733e-11)
(2764.5 -3.16027e-09 5.81017e-12)
(2764.5 -1.95514e-09 3.48364e-12)
(2764.5 -1.33551e-09 2.32461e-12)
(2764.5 -9.66224e-10 1.69232e-12)
(2764.5 -7.30328e-10 1.28295e-12)
(2764.5 -5.72302e-10 1.0108e-12)
(2764.5 -4.63241e-10 8.10578e-13)
(2764.5 -3.81888e-10 7.03163e-13)
(2764.5 -3.20041e-10 5.23363e-13)
(2764.5 -2.72964e-10 4.55866e-13)
(2764.5 -2.35001e-10 4.22602e-13)
(2764.5 -2.0563e-10 3.50131e-13)
(2764.5 -1.80938e-10 3.09402e-13)
(2764.5 -1.67814e-10 2.62516e-13)
(2764.5 -1.46911e-10 2.21129e-13)
(2764.5 -1.31816e-10 1.93857e-13)
(2764.5 -1.18936e-10 1.84327e-13)
(2764.5 -1.13429e-10 1.73542e-13)
(2764.5 -9.91167e-11 1.71477e-13)
(2764.5 -9.77337e-11 1.40555e-13)
(2764.5 -8.80332e-11 1.32878e-13)
(2764.5 -8.15406e-11 1.13418e-13)
(2764.5 -7.3992e-11 1.15384e-13)
(2764.5 -7.35685e-11 1.13245e-13)
(2764.5 -6.73697e-11 9.22829e-14)
(2764.5 -6.57592e-11 7.86464e-14)
(2764.5 -6.08576e-11 8.80075e-14)
(2764.5 -5.72904e-11 8.03184e-14)
(2764.5 -5.34329e-11 8.66567e-14)
(2764.5 -5.33472e-11 7.40102e-14)
(2764.5 -4.75789e-11 6.61303e-14)
(2764.5 -5.0783e-11 6.37737e-14)
(2764.5 -4.43966e-11 6.37257e-14)
(2764.5 -4.999e-11 5.93611e-14)
(2764.5 -4.41556e-11 5.57705e-14)
(2764.5 -3.83274e-11 4.42005e-14)
(2764.5 -3.95419e-11 4.2532e-14)
(2764.5 -4.18721e-11 4.83647e-14)
(2764.5 -3.88334e-11 3.55523e-14)
(2764.5 -3.6425e-11 3.86213e-14)
(2764.5 -3.70426e-11 4.46965e-14)
(2764.5 -3.33717e-11 3.85189e-14)
(2764.5 -3.33695e-11 3.67675e-14)
(2764.5 -3.37697e-11 3.15147e-14)
(2764.5 -3.48219e-11 4.37306e-14)
(2764.5 -3.39425e-11 3.15294e-14)
(2764.5 -3.1157e-11 3.06359e-14)
(2764.5 -3.28559e-11 3.17682e-14)
(2764.5 -2.8867e-11 3.09509e-14)
(2764.5 -2.90429e-11 2.83345e-14)
(2764.5 -2.77747e-11 2.74879e-14)
(2764.5 -2.86965e-11 2.74614e-14)
(2764.5 -2.91405e-11 2.78552e-14)
(2764.5 -2.62328e-11 2.26155e-14)
(2764.5 -2.88281e-11 2.03686e-14)
(2764.5 -2.95955e-11 1.95366e-14)
(2764.5 -2.99654e-11 2.13257e-14)
(2764.5 -3.03128e-11 2.48872e-14)
(2764.5 -2.67293e-11 2.50943e-14)
(2764.5 -2.49705e-11 1.42832e-14)
(2764.5 -2.69448e-11 1.9884e-14)
(2764.5 -2.5369e-11 2.24472e-14)
(2764.5 -2.40824e-11 1.73599e-14)
(2764.5 -2.62144e-11 1.37745e-14)
(2764.5 -2.51972e-11 1.52898e-14)
(2764.5 -2.42903e-11 1.77265e-14)
(2764.5 -2.49648e-11 1.82892e-14)
(2764.5 -2.6019e-11 1.64991e-14)
(2764.5 -2.6858e-11 1.38257e-14)
(2764.5 -2.61693e-11 1.54919e-14)
(2764.5 -2.69137e-11 1.47735e-14)
(2764.5 -2.40202e-11 1.51062e-14)
(2764.5 -2.10996e-11 1.72686e-14)
(2764.5 -2.43722e-11 1.54997e-14)
(2764.5 -2.41395e-11 1.46317e-14)
(2764.5 -2.50985e-11 1.67695e-14)
(2764.5 -2.48513e-11 1.0899e-14)
(2764.5 -2.26549e-11 6.38139e-15)
(2764.5 -2.38893e-11 1.09245e-14)
(2764.5 -2.43283e-11 1.09429e-14)
(2764.5 -2.37841e-11 8.85638e-15)
(2764.5 -2.38673e-11 1.18656e-14)
(2764.5 -2.37537e-11 1.20721e-14)
(2764.5 -2.40383e-11 1.02402e-14)
(2764.5 -2.36776e-11 1.00211e-14)
(2764.5 -2.52051e-11 9.66003e-15)
(2764.5 -2.52041e-11 1.27521e-14)
(2764.5 -2.60612e-11 9.67551e-15)
(2764.5 -2.64944e-11 7.09175e-15)
(2764.5 -2.55359e-11 7.09921e-15)
(2764.5 -2.37238e-11 1.06598e-14)
(2764.5 -2.37597e-11 1.26425e-14)
(2764.5 -2.46081e-11 1.34568e-14)
(2764.5 -2.43848e-11 1.20236e-14)
(2764.5 -2.31034e-11 6.98909e-15)
(2764.5 -2.27607e-11 1.08981e-14)
(2764.5 -2.37822e-11 1.16e-14)
(2764.5 -2.38826e-11 8.07989e-15)
(2764.5 -2.53687e-11 7.19447e-15)
(2764.5 -2.62287e-11 1.27113e-14)
(2764.5 -2.50913e-11 1.3293e-14)
(2764.5 -2.50533e-11 9.48341e-15)
(2764.5 -2.47987e-11 1.04994e-14)
(2764.5 -2.46383e-11 8.65896e-15)
(2764.5 -2.5508e-11 6.69293e-15)
(2764.5 -2.57252e-11 7.46403e-15)
(2764.5 -2.52811e-11 9.72769e-15)
(2764.5 -2.39809e-11 6.17695e-15)
(2764.5 -2.52097e-11 6.96628e-15)
(2764.5 -2.59476e-11 7.00513e-15)
(2764.5 -2.50487e-11 9.03644e-15)
(2764.5 -2.4881e-11 8.08288e-15)
(2764.5 -2.60035e-11 9.92419e-15)
(2764.5 -2.67396e-11 6.51009e-15)
(2764.5 -2.72415e-11 7.4108e-15)
(2764.5 -2.6125e-11 1.06456e-14)
(2764.5 -2.51471e-11 1.16332e-14)
(2764.5 -2.73081e-11 7.64584e-15)
(2764.5 -2.86393e-11 7.25451e-15)
(2764.5 -2.96259e-11 8.62998e-15)
(2764.5 -3.05133e-11 7.38445e-15)
(2764.5 -3.09976e-11 8.19848e-15)
(2764.5 -3.05558e-11 8.98072e-15)
(2764.5 -2.99817e-11 8.04079e-15)
(2764.5 -2.87239e-11 9.27673e-15)
(2764.5 -3.04717e-11 7.72391e-15)
(2764.5 -3.38926e-11 9.25025e-15)
(2764.5 -3.46258e-11 8.35467e-15)
(2764.5 -3.37617e-11 1.11429e-14)
(2764.5 -3.27747e-11 1.6431e-14)
(2764.5 -3.35651e-11 2.96526e-15)
(2764.5 -3.30796e-11 2.22427e-15)
(2764.5 -3.05965e-11 5.24408e-15)
(2764.5 -3.03292e-11 4.59597e-15)
(2764.5 -2.94076e-11 6.99832e-15)
(2764.5 -2.96054e-11 8.78347e-15)
(2764.5 -3.06643e-11 5.98644e-15)
(2764.5 -2.79629e-11 7.90749e-15)
(2764.5 -2.75767e-11 3.96042e-15)
(2764.5 -3.1954e-11 4.11006e-15)
(2764.5 -3.59003e-11 5.91504e-15)
(2764.5 -3.95665e-11 3.30075e-15)
(2764.5 -3.78202e-11 8.01903e-15)
(2764.5 -3.10442e-11 9.02034e-15)
(2764.5 -3.03477e-11 9.66287e-15)
(2764.5 -3.30586e-11 7.91105e-15)
(2764.5 -3.39246e-11 7.03534e-15)
(2764.5 -3.8184e-11 7.54018e-15)
(2764.5 -3.95893e-11 3.19674e-15)
(2764.5 -3.85832e-11 2.78114e-15)
(2764.5 -3.94996e-11 2.24938e-15)
(2764.5 -4.12147e-11 1.18011e-14)
(2764.5 -3.72503e-11 4.95013e-15)
(2764.5 -3.92174e-11 9.22617e-15)
(2764.5 -6.69617e-08 1.17867e-10)
(2764.5 -2.47852e-08 4.14592e-11)
(2764.5 -1.13524e-08 1.87734e-11)
(2764.5 -6.60974e-09 1.11039e-11)
(2764.5 -4.38885e-09 7.39537e-12)
(2764.5 -3.13949e-09 5.3036e-12)
(2764.5 -2.37255e-09 3.98426e-12)
(2764.5 -1.86031e-09 3.0876e-12)
(2764.5 -1.49748e-09 2.50767e-12)
(2764.5 -1.2285e-09 2.05061e-12)
(2764.5 -1.02817e-09 1.60287e-12)
(2764.5 -8.7965e-10 1.40755e-12)
(2764.5 -7.59217e-10 1.19559e-12)
(2764.5 -6.61703e-10 1.04911e-12)
(2764.5 -5.84762e-10 8.96081e-13)
(2764.5 -5.28691e-10 8.18833e-13)
(2764.5 -4.73446e-10 6.98353e-13)
(2764.5 -4.27645e-10 6.26173e-13)
(2764.5 -3.84723e-10 5.85403e-13)
(2764.5 -3.5811e-10 5.24167e-13)
(2764.5 -3.22782e-10 4.87976e-13)
(2764.5 -3.03845e-10 4.13798e-13)
(2764.5 -2.76591e-10 3.93423e-13)
(2764.5 -2.60004e-10 3.45565e-13)
(2764.5 -2.45811e-10 3.38367e-13)
(2764.5 -2.28712e-10 3.31441e-13)
(2764.5 -2.11676e-10 2.9606e-13)
(2764.5 -2.08447e-10 2.66124e-13)
(2764.5 -1.94035e-10 2.69489e-13)
(2764.5 -1.79387e-10 2.49251e-13)
(2764.5 -1.75602e-10 2.15109e-13)
(2764.5 -1.66437e-10 2.18904e-13)
(2764.5 -1.56219e-10 1.7918e-13)
(2764.5 -1.56157e-10 1.71736e-13)
(2764.5 -1.43186e-10 1.7379e-13)
(2764.5 -1.42454e-10 1.72515e-13)
(2764.5 -1.40555e-10 1.53303e-13)
(2764.5 -1.26442e-10 1.5111e-13)
(2764.5 -1.27017e-10 1.40485e-13)
(2764.5 -1.22742e-10 1.28456e-13)
(2764.5 -1.23769e-10 1.0953e-13)
(2764.5 -1.15828e-10 1.17969e-13)
(2764.5 -1.16316e-10 1.25686e-13)
(2764.5 -1.12448e-10 1.0813e-13)
(2764.5 -1.06386e-10 8.51951e-14)
(2764.5 -9.88602e-11 1.06983e-13)
(2764.5 -9.9517e-11 1.05621e-13)
(2764.5 -1.03972e-10 8.65426e-14)
(2764.5 -9.48705e-11 8.69278e-14)
(2764.5 -1.00307e-10 9.42514e-14)
(2764.5 -9.56163e-11 9.62506e-14)
(2764.5 -9.84055e-11 8.14444e-14)
(2764.5 -9.34349e-11 8.08795e-14)
(2764.5 -8.89409e-11 6.493e-14)
(2764.5 -9.01653e-11 7.08741e-14)
(2764.5 -8.18983e-11 6.58205e-14)
(2764.5 -8.1116e-11 6.30071e-14)
(2764.5 -8.41603e-11 6.22958e-14)
(2764.5 -8.29429e-11 7.26568e-14)
(2764.5 -8.8162e-11 7.17685e-14)
(2764.5 -8.99057e-11 6.30901e-14)
(2764.5 -8.25956e-11 4.59901e-14)
(2764.5 -8.20491e-11 6.35654e-14)
(2764.5 -8.31331e-11 5.72204e-14)
(2764.5 -7.75017e-11 5.16053e-14)
(2764.5 -7.67005e-11 5.28306e-14)
(2764.5 -7.80824e-11 4.73197e-14)
(2764.5 -7.43569e-11 5.02894e-14)
(2764.5 -7.45682e-11 5.35502e-14)
(2764.5 -7.35197e-11 4.64787e-14)
(2764.5 -7.62341e-11 4.68883e-14)
(2764.5 -7.55554e-11 4.97152e-14)
(2764.5 -7.69286e-11 4.43089e-14)
(2764.5 -8.1629e-11 4.43747e-14)
(2764.5 -7.22548e-11 4.73808e-14)
(2764.5 -7.04129e-11 4.90178e-14)
(2764.5 -6.75572e-11 4.35479e-14)
(2764.5 -7.20785e-11 4.60623e-14)
(2764.5 -7.8468e-11 2.88515e-14)
(2764.5 -7.46436e-11 2.63249e-14)
(2764.5 -7.09054e-11 3.34522e-14)
(2764.5 -7.52395e-11 3.29354e-14)
(2764.5 -7.28888e-11 3.14987e-14)
(2764.5 -7.04405e-11 3.92233e-14)
(2764.5 -7.30462e-11 4.53732e-14)
(2764.5 -7.31048e-11 4.17737e-14)
(2764.5 -6.90422e-11 3.32811e-14)
(2764.5 -6.86683e-11 3.87324e-14)
(2764.5 -6.65079e-11 3.73728e-14)
(2764.5 -6.62524e-11 2.5994e-14)
(2764.5 -7.09032e-11 2.97928e-14)
(2764.5 -7.35358e-11 2.66443e-14)
(2764.5 -7.27203e-11 3.26231e-14)
(2764.5 -7.07031e-11 3.41213e-14)
(2764.5 -7.34063e-11 4.00206e-14)
(2764.5 -7.27468e-11 3.1895e-14)
(2764.5 -7.28808e-11 2.42452e-14)
(2764.5 -6.94718e-11 2.84137e-14)
(2764.5 -7.09234e-11 2.68064e-14)
(2764.5 -6.85882e-11 2.61594e-14)
(2764.5 -6.79398e-11 2.55283e-14)
(2764.5 -7.091e-11 2.78497e-14)
(2764.5 -7.21959e-11 3.1101e-14)
(2764.5 -7.31568e-11 2.13909e-14)
(2764.5 -7.46159e-11 2.21561e-14)
(2764.5 -7.34363e-11 1.96204e-14)
(2764.5 -7.40252e-11 2.25688e-14)
(2764.5 -7.6201e-11 2.22541e-14)
(2764.5 -7.88115e-11 1.85712e-14)
(2764.5 -7.39881e-11 2.06877e-14)
(2764.5 -7.25001e-11 2.46582e-14)
(2764.5 -7.67195e-11 2.31443e-14)
(2764.5 -7.72911e-11 2.31152e-14)
(2764.5 -7.46028e-11 2.36982e-14)
(2764.5 -7.52751e-11 2.67066e-14)
(2764.5 -7.54661e-11 2.48992e-14)
(2764.5 -7.7865e-11 2.72508e-14)
(2764.5 -7.76091e-11 2.80154e-14)
(2764.5 -7.56129e-11 2.57023e-14)
(2764.5 -7.40211e-11 1.81333e-14)
(2764.5 -7.5795e-11 1.99584e-14)
(2764.5 -7.52326e-11 2.09505e-14)
(2764.5 -7.81286e-11 2.15937e-14)
(2764.5 -8.10267e-11 2.2934e-14)
(2764.5 -8.37158e-11 2.37283e-14)
(2764.5 -8.50156e-11 2.24e-14)
(2764.5 -8.36221e-11 2.26129e-14)
(2764.5 -8.05766e-11 2.07181e-14)
(2764.5 -8.10596e-11 2.14831e-14)
(2764.5 -8.41954e-11 2.39842e-14)
(2764.5 -8.80353e-11 2.47698e-14)
(2764.5 -8.9232e-11 2.05059e-14)
(2764.5 -9.12034e-11 1.86324e-14)
(2764.5 -9.57542e-11 2.09669e-14)
(2764.5 -9.3555e-11 1.88821e-14)
(2764.5 -9.34021e-11 1.65164e-14)
(2764.5 -9.48393e-11 2.67623e-14)
(2764.5 -9.09707e-11 1.28838e-14)
(2764.5 -9.38055e-11 2.10047e-14)
(2764.5 -9.36274e-11 2.56458e-14)
(2764.5 -9.17227e-11 1.3004e-14)
(2764.5 -8.35449e-11 1.96071e-14)
(2764.5 -8.37301e-11 1.82111e-14)
(2764.5 -9.13989e-11 2.27429e-14)
(2764.5 -1.0082e-10 1.76565e-14)
(2764.5 -1.08911e-10 2.24499e-14)
(2764.5 -9.74548e-11 1.96462e-14)
(2764.5 -1.01389e-10 2.16089e-14)
(2764.5 -9.5594e-11 2.2311e-14)
(2764.5 -9.44365e-11 2.12625e-14)
(2764.5 -9.98878e-11 1.86941e-14)
(2764.5 -1.01638e-10 1.0726e-14)
(2764.5 -1.03387e-10 1.61658e-14)
(2764.5 -1.09563e-10 1.92068e-14)
(2764.5 -1.09545e-10 1.65377e-14)
(2764.5 -1.13942e-10 1.9638e-14)
(2764.5 -1.06282e-07 1.81997e-10)
(2764.5 -4.53328e-08 7.34373e-11)
(2764.5 -2.12526e-08 3.34838e-11)
(2764.5 -1.20371e-08 1.91985e-11)
(2764.5 -7.83612e-09 1.2522e-11)
(2764.5 -5.5621e-09 8.84e-12)
(2764.5 -4.18409e-09 6.6834e-12)
(2764.5 -3.27127e-09 5.14253e-12)
(2764.5 -2.62524e-09 4.15974e-12)
(2764.5 -2.15411e-09 3.35305e-12)
(2764.5 -1.8015e-09 2.77826e-12)
(2764.5 -1.53482e-09 2.39765e-12)
(2764.5 -1.32439e-09 2.02621e-12)
(2764.5 -1.15384e-09 1.75143e-12)
(2764.5 -1.02071e-09 1.5427e-12)
(2764.5 -9.17935e-10 1.35892e-12)
(2764.5 -8.26121e-10 1.16819e-12)
(2764.5 -7.43593e-10 1.07601e-12)
(2764.5 -6.76197e-10 9.60433e-13)
(2764.5 -6.17955e-10 8.97895e-13)
(2764.5 -5.62675e-10 7.97917e-13)
(2764.5 -5.24773e-10 6.93797e-13)
(2764.5 -4.84939e-10 6.70634e-13)
(2764.5 -4.49896e-10 5.99715e-13)
(2764.5 -4.26044e-10 5.94097e-13)
(2764.5 -3.99845e-10 5.52027e-13)
(2764.5 -3.72434e-10 5.20624e-13)
(2764.5 -3.56844e-10 4.70211e-13)
(2764.5 -3.32893e-10 4.23743e-13)
(2764.5 -3.10194e-10 4.07218e-13)
(2764.5 -2.99677e-10 3.6331e-13)
(2764.5 -2.87089e-10 3.68946e-13)
(2764.5 -2.70975e-10 3.13303e-13)
(2764.5 -2.63974e-10 3.09259e-13)
(2764.5 -2.51859e-10 3.08288e-13)
(2764.5 -2.46587e-10 2.7002e-13)
(2764.5 -2.40599e-10 2.51402e-13)
(2764.5 -2.22401e-10 2.62325e-13)
(2764.5 -2.14182e-10 2.5506e-13)
(2764.5 -2.12553e-10 2.23745e-13)
(2764.5 -2.11912e-10 2.09643e-13)
(2764.5 -2.02493e-10 2.04658e-13)
(2764.5 -1.94816e-10 2.07997e-13)
(2764.5 -1.90817e-10 1.90823e-13)
(2764.5 -1.85181e-10 1.64401e-13)
(2764.5 -1.73793e-10 1.76208e-13)
(2764.5 -1.67857e-10 1.70585e-13)
(2764.5 -1.68754e-10 1.65683e-13)
(2764.5 -1.66701e-10 1.59291e-13)
(2764.5 -1.66286e-10 1.69284e-13)
(2764.5 -1.60008e-10 1.53083e-13)
(2764.5 -1.60153e-10 1.42022e-13)
(2764.5 -1.58445e-10 1.34256e-13)
(2764.5 -1.57653e-10 1.28119e-13)
(2764.5 -1.54681e-10 1.22188e-13)
(2764.5 -1.43017e-10 1.20268e-13)
(2764.5 -1.39525e-10 1.11169e-13)
(2764.5 -1.38838e-10 1.05618e-13)
(2764.5 -1.36568e-10 1.19511e-13)
(2764.5 -1.42953e-10 1.16453e-13)
(2764.5 -1.47966e-10 1.06794e-13)
(2764.5 -1.41523e-10 1.07876e-13)
(2764.5 -1.37012e-10 1.02871e-13)
(2764.5 -1.40577e-10 8.20087e-14)
(2764.5 -1.37846e-10 9.28274e-14)
(2764.5 -1.3274e-10 9.03837e-14)
(2764.5 -1.31791e-10 8.0875e-14)
(2764.5 -1.27332e-10 9.09557e-14)
(2764.5 -1.26346e-10 8.22348e-14)
(2764.5 -1.25935e-10 7.8972e-14)
(2764.5 -1.26311e-10 7.72373e-14)
(2764.5 -1.24927e-10 8.0612e-14)
(2764.5 -1.26619e-10 7.36369e-14)
(2764.5 -1.28567e-10 7.45033e-14)
(2764.5 -1.26799e-10 7.87849e-14)
(2764.5 -1.23806e-10 7.83654e-14)
(2764.5 -1.17453e-10 6.7494e-14)
(2764.5 -1.14817e-10 6.905e-14)
(2764.5 -1.22893e-10 6.78199e-14)
(2764.5 -1.22556e-10 6.39947e-14)
(2764.5 -1.18607e-10 6.17114e-14)
(2764.5 -1.20918e-10 5.75508e-14)
(2764.5 -1.23005e-10 5.49115e-14)
(2764.5 -1.21773e-10 5.54813e-14)
(2764.5 -1.21074e-10 5.70265e-14)
(2764.5 -1.23812e-10 5.38275e-14)
(2764.5 -1.21857e-10 5.84039e-14)
(2764.5 -1.16367e-10 6.61571e-14)
(2764.5 -1.11923e-10 5.8266e-14)
(2764.5 -1.10735e-10 5.50038e-14)
(2764.5 -1.14138e-10 5.2109e-14)
(2764.5 -1.19804e-10 5.00447e-14)
(2764.5 -1.18119e-10 5.71725e-14)
(2764.5 -1.15812e-10 6.33358e-14)
(2764.5 -1.19101e-10 6.51968e-14)
(2764.5 -1.19654e-10 4.64263e-14)
(2764.5 -1.19665e-10 4.0353e-14)
(2764.5 -1.1771e-10 4.57958e-14)
(2764.5 -1.19036e-10 4.83508e-14)
(2764.5 -1.18585e-10 4.81699e-14)
(2764.5 -1.15494e-10 4.27584e-14)
(2764.5 -1.15129e-10 4.76625e-14)
(2764.5 -1.19307e-10 5.01994e-14)
(2764.5 -1.20558e-10 4.25512e-14)
(2764.5 -1.2058e-10 4.73249e-14)
(2764.5 -1.19582e-10 4.31003e-14)
(2764.5 -1.18891e-10 4.00054e-14)
(2764.5 -1.24292e-10 3.56082e-14)
(2764.5 -1.30286e-10 3.80434e-14)
(2764.5 -1.28197e-10 4.27649e-14)
(2764.5 -1.23881e-10 3.62262e-14)
(2764.5 -1.23216e-10 3.65031e-14)
(2764.5 -1.26385e-10 3.59265e-14)
(2764.5 -1.2386e-10 3.82557e-14)
(2764.5 -1.25245e-10 3.79666e-14)
(2764.5 -1.25587e-10 4.34128e-14)
(2764.5 -1.28046e-10 4.62737e-14)
(2764.5 -1.29097e-10 4.66654e-14)
(2764.5 -1.27849e-10 4.13846e-14)
(2764.5 -1.26308e-10 3.85039e-14)
(2764.5 -1.28321e-10 3.84026e-14)
(2764.5 -1.27603e-10 3.77537e-14)
(2764.5 -1.28798e-10 3.55756e-14)
(2764.5 -1.31821e-10 3.26442e-14)
(2764.5 -1.3373e-10 3.36031e-14)
(2764.5 -1.35914e-10 3.52596e-14)
(2764.5 -1.36552e-10 3.38905e-14)
(2764.5 -1.35409e-10 3.53304e-14)
(2764.5 -1.34812e-10 4.10112e-14)
(2764.5 -1.34494e-10 3.87168e-14)
(2764.5 -1.35148e-10 3.52174e-14)
(2764.5 -1.38804e-10 3.82713e-14)
(2764.5 -1.44038e-10 3.91128e-14)
(2764.5 -1.48829e-10 3.48076e-14)
(2764.5 -1.52098e-10 3.63389e-14)
(2764.5 -1.52431e-10 3.22211e-14)
(2764.5 -1.56812e-10 2.66333e-14)
(2764.5 -1.52984e-10 3.15418e-14)
(2764.5 -1.53478e-10 3.7375e-14)
(2764.5 -1.51851e-10 3.54264e-14)
(2764.5 -1.54432e-10 2.64937e-14)
(2764.5 -1.52971e-10 2.31137e-14)
(2764.5 -1.4515e-10 3.09721e-14)
(2764.5 -1.47754e-10 3.06792e-14)
(2764.5 -1.50756e-10 3.25818e-14)
(2764.5 -1.61221e-10 3.02453e-14)
(2764.5 -1.61055e-10 3.05322e-14)
(2764.5 -1.65082e-10 2.65283e-14)
(2764.5 -1.65985e-10 4.16167e-14)
(2764.5 -1.63547e-10 3.09603e-14)
(2764.5 -1.62558e-10 3.24972e-14)
(2764.5 -1.6349e-10 3.03509e-14)
(2764.5 -1.62785e-10 3.37062e-14)
(2764.5 -1.68784e-10 2.44223e-14)
(2764.5 -1.74154e-10 3.25042e-14)
(2764.5 -1.78033e-10 3.36197e-14)
(2764.5 -1.37734e-07 2.33328e-10)
(2764.5 -6.63998e-08 1.05201e-10)
(2764.5 -3.25609e-08 4.94992e-11)
(2764.5 -1.83135e-08 2.77009e-11)
(2764.5 -1.17449e-08 1.78033e-11)
(2764.5 -8.254e-09 1.25373e-11)
(2764.5 -6.16738e-09 9.41014e-12)
(2764.5 -4.80977e-09 7.29316e-12)
(2764.5 -3.85805e-09 5.84077e-12)
(2764.5 -3.15999e-09 4.78694e-12)
(2764.5 -2.6397e-09 3.90059e-12)
(2764.5 -2.24093e-09 3.36731e-12)
(2764.5 -1.93074e-09 2.87851e-12)
(2764.5 -1.68558e-09 2.50053e-12)
(2764.5 -1.4908e-09 2.24294e-12)
(2764.5 -1.33738e-09 1.92948e-12)
(2764.5 -1.20097e-09 1.68806e-12)
(2764.5 -1.08196e-09 1.50509e-12)
(2764.5 -9.83456e-10 1.32742e-12)
(2764.5 -9.01017e-10 1.2695e-12)
(2764.5 -8.24649e-10 1.11517e-12)
(2764.5 -7.63354e-10 1.03596e-12)
(2764.5 -7.03443e-10 9.55588e-13)
(2764.5 -6.52791e-10 8.76466e-13)
(2764.5 -6.16275e-10 8.07717e-13)
(2764.5 -5.77825e-10 7.49804e-13)
(2764.5 -5.42051e-10 6.97754e-13)
(2764.5 -5.21068e-10 6.37867e-13)
(2764.5 -4.81447e-10 6.12961e-13)
(2764.5 -4.50651e-10 5.64091e-13)
(2764.5 -4.32102e-10 5.36891e-13)
(2764.5 -4.12807e-10 5.06184e-13)
(2764.5 -3.912e-10 4.94335e-13)
(2764.5 -3.85254e-10 4.61401e-13)
(2764.5 -3.64146e-10 4.34481e-13)
(2764.5 -3.52683e-10 3.94892e-13)
(2764.5 -3.39988e-10 3.81235e-13)
(2764.5 -3.24891e-10 3.48995e-13)
(2764.5 -3.0867e-10 3.54983e-13)
(2764.5 -3.07734e-10 3.15269e-13)
(2764.5 -3.01158e-10 3.0433e-13)
(2764.5 -2.92648e-10 2.84933e-13)
(2764.5 -2.8334e-10 2.82811e-13)
(2764.5 -2.72267e-10 2.62611e-13)
(2764.5 -2.6155e-10 2.67245e-13)
(2764.5 -2.53326e-10 2.40586e-13)
(2764.5 -2.44196e-10 2.46516e-13)
(2764.5 -2.39361e-10 2.34108e-13)
(2764.5 -2.38334e-10 2.34226e-13)
(2764.5 -2.3605e-10 2.25781e-13)
(2764.5 -2.26843e-10 2.07455e-13)
(2764.5 -2.25929e-10 2.03804e-13)
(2764.5 -2.23136e-10 1.92204e-13)
(2764.5 -2.23403e-10 1.85306e-13)
(2764.5 -2.21134e-10 1.65796e-13)
(2764.5 -2.10136e-10 1.72597e-13)
(2764.5 -1.99386e-10 1.65441e-13)
(2764.5 -1.94904e-10 1.59444e-13)
(2764.5 -1.94598e-10 1.69274e-13)
(2764.5 -2.004e-10 1.65513e-13)
(2764.5 -2.05701e-10 1.52619e-13)
(2764.5 -2.01385e-10 1.40905e-13)
(2764.5 -1.9473e-10 1.34375e-13)
(2764.5 -1.94001e-10 1.31258e-13)
(2764.5 -1.95599e-10 1.47278e-13)
(2764.5 -1.92112e-10 1.35417e-13)
(2764.5 -1.86193e-10 1.25293e-13)
(2764.5 -1.79766e-10 1.29866e-13)
(2764.5 -1.80259e-10 1.0908e-13)
(2764.5 -1.76876e-10 1.06501e-13)
(2764.5 -1.79399e-10 1.07798e-13)
(2764.5 -1.77371e-10 1.16569e-13)
(2764.5 -1.75137e-10 1.12179e-13)
(2764.5 -1.75965e-10 1.13874e-13)
(2764.5 -1.76056e-10 1.0653e-13)
(2764.5 -1.73937e-10 1.01949e-13)
(2764.5 -1.73338e-10 1.06339e-13)
(2764.5 -1.6894e-10 1.08417e-13)
(2764.5 -1.69776e-10 1.0215e-13)
(2764.5 -1.69589e-10 9.25783e-14)
(2764.5 -1.68438e-10 8.35574e-14)
(2764.5 -1.67801e-10 9.36907e-14)
(2764.5 -1.67017e-10 8.83856e-14)
(2764.5 -1.68875e-10 8.77397e-14)
(2764.5 -1.6758e-10 8.43295e-14)
(2764.5 -1.70128e-10 8.79341e-14)
(2764.5 -1.74142e-10 8.71009e-14)
(2764.5 -1.73418e-10 8.21408e-14)
(2764.5 -1.66029e-10 7.71414e-14)
(2764.5 -1.58698e-10 8.23513e-14)
(2764.5 -1.59457e-10 8.02563e-14)
(2764.5 -1.64015e-10 7.91889e-14)
(2764.5 -1.66886e-10 8.1481e-14)
(2764.5 -1.67319e-10 8.79158e-14)
(2764.5 -1.65561e-10 7.63803e-14)
(2764.5 -1.64549e-10 7.08756e-14)
(2764.5 -1.66025e-10 7.60308e-14)
(2764.5 -1.66925e-10 6.76684e-14)
(2764.5 -1.66168e-10 6.65335e-14)
(2764.5 -1.67126e-10 6.47314e-14)
(2764.5 -1.62889e-10 5.97561e-14)
(2764.5 -1.63172e-10 6.30807e-14)
(2764.5 -1.63784e-10 6.62206e-14)
(2764.5 -1.66015e-10 6.58066e-14)
(2764.5 -1.66569e-10 6.54201e-14)
(2764.5 -1.66799e-10 6.37994e-14)
(2764.5 -1.67044e-10 6.09522e-14)
(2764.5 -1.70734e-10 5.97015e-14)
(2764.5 -1.77408e-10 5.73859e-14)
(2764.5 -1.79991e-10 4.98932e-14)
(2764.5 -1.78476e-10 5.14395e-14)
(2764.5 -1.75037e-10 5.13051e-14)
(2764.5 -1.76033e-10 5.61065e-14)
(2764.5 -1.76152e-10 5.73657e-14)
(2764.5 -1.76779e-10 6.20727e-14)
(2764.5 -1.77724e-10 6.13207e-14)
(2764.5 -1.80121e-10 6.15845e-14)
(2764.5 -1.8273e-10 5.63245e-14)
(2764.5 -1.81036e-10 5.11336e-14)
(2764.5 -1.79548e-10 5.37428e-14)
(2764.5 -1.81768e-10 5.46807e-14)
(2764.5 -1.8188e-10 5.21962e-14)
(2764.5 -1.81393e-10 4.85555e-14)
(2764.5 -1.86197e-10 5.04133e-14)
(2764.5 -1.86928e-10 5.39884e-14)
(2764.5 -1.86981e-10 5.20691e-14)
(2764.5 -1.90177e-10 5.65157e-14)
(2764.5 -1.90176e-10 5.8045e-14)
(2764.5 -1.88706e-10 5.19147e-14)
(2764.5 -1.88139e-10 4.93656e-14)
(2764.5 -1.87143e-10 4.94285e-14)
(2764.5 -1.85884e-10 5.10375e-14)
(2764.5 -1.89734e-10 4.86872e-14)
(2764.5 -1.97007e-10 4.82284e-14)
(2764.5 -2.02693e-10 4.9301e-14)
(2764.5 -2.06483e-10 4.87245e-14)
(2764.5 -2.12343e-10 5.57907e-14)
(2764.5 -2.13566e-10 5.07078e-14)
(2764.5 -2.17982e-10 4.93932e-14)
(2764.5 -2.17108e-10 4.33326e-14)
(2764.5 -2.14588e-10 4.42322e-14)
(2764.5 -2.1336e-10 4.54375e-14)
(2764.5 -2.09397e-10 4.27007e-14)
(2764.5 -2.07606e-10 4.45131e-14)
(2764.5 -2.0805e-10 4.5963e-14)
(2764.5 -2.13579e-10 4.59189e-14)
(2764.5 -2.18658e-10 4.75548e-14)
(2764.5 -2.23957e-10 4.37757e-14)
(2764.5 -2.28007e-10 5.11536e-14)
(2764.5 -2.29492e-10 4.14191e-14)
(2764.5 -2.2948e-10 4.64861e-14)
(2764.5 -2.33385e-10 4.57098e-14)
(2764.5 -2.27765e-10 5.33429e-14)
(2764.5 -2.28047e-10 4.06911e-14)
(2764.5 -2.32067e-10 4.32332e-14)
(2764.5 -2.38215e-10 4.15581e-14)
(2764.5 -1.62707e-07 2.73883e-10)
(2764.5 -8.68578e-08 1.35849e-10)
(2764.5 -4.48845e-08 6.63451e-11)
(2764.5 -2.54146e-08 3.67824e-11)
(2764.5 -1.61453e-08 2.3495e-11)
(2764.5 -1.12371e-08 1.64601e-11)
(2764.5 -8.34001e-09 1.21891e-11)
(2764.5 -6.47909e-09 9.48343e-12)
(2764.5 -5.18981e-09 7.60976e-12)
(2764.5 -4.24615e-09 6.25901e-12)
(2764.5 -3.54283e-09 5.14437e-12)
(2764.5 -3.00718e-09 4.35568e-12)
(2764.5 -2.58482e-09 3.70099e-12)
(2764.5 -2.25352e-09 3.22279e-12)
(2764.5 -1.99508e-09 2.87084e-12)
(2764.5 -1.7815e-09 2.51237e-12)
(2764.5 -1.60141e-09 2.186e-12)
(2764.5 -1.44508e-09 1.98354e-12)
(2764.5 -1.31406e-09 1.80315e-12)
(2764.5 -1.20158e-09 1.62892e-12)
(2764.5 -1.10007e-09 1.48737e-12)
(2764.5 -1.01834e-09 1.36907e-12)
(2764.5 -9.413e-10 1.23142e-12)
(2764.5 -8.75049e-10 1.14899e-12)
(2764.5 -8.17258e-10 1.0316e-12)
(2764.5 -7.67159e-10 9.94534e-13)
(2764.5 -7.1697e-10 9.10921e-13)
(2764.5 -6.85685e-10 8.67146e-13)
(2764.5 -6.43288e-10 8.26924e-13)
(2764.5 -6.0288e-10 7.60519e-13)
(2764.5 -5.75703e-10 6.95568e-13)
(2764.5 -5.50357e-10 6.7182e-13)
(2764.5 -5.20865e-10 6.22208e-13)
(2764.5 -5.05065e-10 5.74492e-13)
(2764.5 -4.85658e-10 5.52564e-13)
(2764.5 -4.6571e-10 5.34305e-13)
(2764.5 -4.45284e-10 4.97256e-13)
(2764.5 -4.33817e-10 4.67765e-13)
(2764.5 -4.13512e-10 4.32315e-13)
(2764.5 -4.05046e-10 4.07825e-13)
(2764.5 -3.92396e-10 4.1316e-13)
(2764.5 -3.85561e-10 3.92723e-13)
(2764.5 -3.72247e-10 3.75917e-13)
(2764.5 -3.58095e-10 3.64889e-13)
(2764.5 -3.44376e-10 3.48756e-13)
(2764.5 -3.36247e-10 3.31184e-13)
(2764.5 -3.24781e-10 3.12915e-13)
(2764.5 -3.12877e-10 3.05636e-13)
(2764.5 -3.09963e-10 2.90313e-13)
(2764.5 -3.1021e-10 2.71092e-13)
(2764.5 -3.01823e-10 2.77653e-13)
(2764.5 -2.96889e-10 2.65226e-13)
(2764.5 -2.88002e-10 2.54504e-13)
(2764.5 -2.83889e-10 2.43836e-13)
(2764.5 -2.89075e-10 2.39437e-13)
(2764.5 -2.82257e-10 2.33208e-13)
(2764.5 -2.6587e-10 2.12681e-13)
(2764.5 -2.51782e-10 2.05199e-13)
(2764.5 -2.51062e-10 2.14059e-13)
(2764.5 -2.5715e-10 1.95616e-13)
(2764.5 -2.63252e-10 1.88661e-13)
(2764.5 -2.5887e-10 1.78444e-13)
(2764.5 -2.52988e-10 1.79509e-13)
(2764.5 -2.52172e-10 1.93845e-13)
(2764.5 -2.56503e-10 1.75012e-13)
(2764.5 -2.53376e-10 1.76409e-13)
(2764.5 -2.44586e-10 1.70626e-13)
(2764.5 -2.35285e-10 1.55815e-13)
(2764.5 -2.34399e-10 1.62957e-13)
(2764.5 -2.32816e-10 1.60038e-13)
(2764.5 -2.31123e-10 1.5143e-13)
(2764.5 -2.30504e-10 1.51384e-13)
(2764.5 -2.28384e-10 1.43475e-13)
(2764.5 -2.30055e-10 1.40423e-13)
(2764.5 -2.30651e-10 1.41144e-13)
(2764.5 -2.25003e-10 1.38584e-13)
(2764.5 -2.22123e-10 1.39846e-13)
(2764.5 -2.19891e-10 1.30188e-13)
(2764.5 -2.21171e-10 1.20589e-13)
(2764.5 -2.22715e-10 1.22535e-13)
(2764.5 -2.17391e-10 1.27479e-13)
(2764.5 -2.15382e-10 1.17953e-13)
(2764.5 -2.16382e-10 1.13191e-13)
(2764.5 -2.1905e-10 1.14554e-13)
(2764.5 -2.17245e-10 1.12324e-13)
(2764.5 -2.18329e-10 1.08697e-13)
(2764.5 -2.18754e-10 1.02518e-13)
(2764.5 -2.2078e-10 1.08897e-13)
(2764.5 -2.24543e-10 1.15327e-13)
(2764.5 -2.15683e-10 1.13265e-13)
(2764.5 -2.12181e-10 1.03145e-13)
(2764.5 -2.12321e-10 1.00658e-13)
(2764.5 -2.13386e-10 9.96524e-14)
(2764.5 -2.19593e-10 9.69887e-14)
(2764.5 -2.19442e-10 9.46642e-14)
(2764.5 -2.12994e-10 9.73248e-14)
(2764.5 -2.12078e-10 9.04302e-14)
(2764.5 -2.11353e-10 8.78491e-14)
(2764.5 -2.11708e-10 9.1086e-14)
(2764.5 -2.1734e-10 8.48286e-14)
(2764.5 -2.13878e-10 7.80069e-14)
(2764.5 -2.12878e-10 8.19715e-14)
(2764.5 -2.13408e-10 8.57771e-14)
(2764.5 -2.1113e-10 7.88564e-14)
(2764.5 -2.10013e-10 7.91854e-14)
(2764.5 -2.09388e-10 8.29712e-14)
(2764.5 -2.13028e-10 8.10355e-14)
(2764.5 -2.13876e-10 8.00362e-14)
(2764.5 -2.1938e-10 7.41975e-14)
(2764.5 -2.23772e-10 7.48976e-14)
(2764.5 -2.26926e-10 7.70235e-14)
(2764.5 -2.27013e-10 7.53494e-14)
(2764.5 -2.23719e-10 7.7783e-14)
(2764.5 -2.26528e-10 6.59852e-14)
(2764.5 -2.25242e-10 6.56875e-14)
(2764.5 -2.26709e-10 6.88819e-14)
(2764.5 -2.29048e-10 7.30375e-14)
(2764.5 -2.30865e-10 6.96768e-14)
(2764.5 -2.31777e-10 7.41135e-14)
(2764.5 -2.27692e-10 7.53626e-14)
(2764.5 -2.30107e-10 6.97231e-14)
(2764.5 -2.31211e-10 6.5714e-14)
(2764.5 -2.31e-10 7.00144e-14)
(2764.5 -2.34914e-10 7.19185e-14)
(2764.5 -2.40101e-10 6.54868e-14)
(2764.5 -2.41494e-10 6.92716e-14)
(2764.5 -2.42949e-10 7.19579e-14)
(2764.5 -2.45627e-10 6.32348e-14)
(2764.5 -2.47715e-10 6.15175e-14)
(2764.5 -2.46915e-10 6.05507e-14)
(2764.5 -2.46407e-10 6.19384e-14)
(2764.5 -2.44351e-10 6.60466e-14)
(2764.5 -2.42562e-10 6.4495e-14)
(2764.5 -2.45375e-10 6.677e-14)
(2764.5 -2.51212e-10 6.80013e-14)
(2764.5 -2.57466e-10 6.72801e-14)
(2764.5 -2.63414e-10 6.78849e-14)
(2764.5 -2.67814e-10 6.09819e-14)
(2764.5 -2.71259e-10 6.03719e-14)
(2764.5 -2.76446e-10 5.64719e-14)
(2764.5 -2.7627e-10 5.89016e-14)
(2764.5 -2.78869e-10 5.82621e-14)
(2764.5 -2.7915e-10 6.02175e-14)
(2764.5 -2.79752e-10 5.71094e-14)
(2764.5 -2.74268e-10 6.25813e-14)
(2764.5 -2.75286e-10 6.26535e-14)
(2764.5 -2.79598e-10 5.95308e-14)
(2764.5 -2.85669e-10 5.19208e-14)
(2764.5 -2.93361e-10 5.61372e-14)
(2764.5 -2.97745e-10 5.54243e-14)
(2764.5 -2.98407e-10 5.39174e-14)
(2764.5 -3.0263e-10 6.16797e-14)
(2764.5 -3.01555e-10 5.75895e-14)
(2764.5 -3.00207e-10 5.47065e-14)
(2764.5 -3.02987e-10 6.19702e-14)
(2764.5 -3.0694e-10 5.98256e-14)
(2764.5 -1.82795e-07 3.07089e-10)
(2764.5 -1.06088e-07 1.64665e-10)
(2764.5 -5.78158e-08 8.35095e-11)
(2764.5 -3.32692e-08 4.65327e-11)
(2764.5 -2.10583e-08 2.94652e-11)
(2764.5 -1.45334e-08 2.04582e-11)
(2764.5 -1.07146e-08 1.52492e-11)
(2764.5 -8.29283e-09 1.17248e-11)
(2764.5 -6.62723e-09 9.34072e-12)
(2764.5 -5.4091e-09 7.63955e-12)
(2764.5 -4.50875e-09 6.34662e-12)
(2764.5 -3.82367e-09 5.35467e-12)
(2764.5 -3.28658e-09 4.59111e-12)
(2764.5 -2.86665e-09 4.01869e-12)
(2764.5 -2.53179e-09 3.48495e-12)
(2764.5 -2.25572e-09 3.06542e-12)
(2764.5 -2.02768e-09 2.72847e-12)
(2764.5 -1.83185e-09 2.42116e-12)
(2764.5 -1.66047e-09 2.21082e-12)
(2764.5 -1.52081e-09 1.97187e-12)
(2764.5 -1.39405e-09 1.82298e-12)
(2764.5 -1.28602e-09 1.66464e-12)
(2764.5 -1.18901e-09 1.51791e-12)
(2764.5 -1.10461e-09 1.36453e-12)
(2764.5 -1.02984e-09 1.29517e-12)
(2764.5 -9.66484e-10 1.22025e-12)
(2764.5 -9.08226e-10 1.12615e-12)
(2764.5 -8.57929e-10 1.06688e-12)
(2764.5 -8.07086e-10 9.77132e-13)
(2764.5 -7.62659e-10 8.93102e-13)
(2764.5 -7.25316e-10 8.60606e-13)
(2764.5 -6.9706e-10 8.0801e-13)
(2764.5 -6.60472e-10 7.52186e-13)
(2764.5 -6.33709e-10 7.18367e-13)
(2764.5 -6.10129e-10 6.76723e-13)
(2764.5 -5.81705e-10 6.15891e-13)
(2764.5 -5.58675e-10 6.22203e-13)
(2764.5 -5.45498e-10 5.79776e-13)
(2764.5 -5.24844e-10 5.53256e-13)
(2764.5 -5.08638e-10 5.3275e-13)
(2764.5 -4.90454e-10 4.92984e-13)
(2764.5 -4.795e-10 4.67846e-13)
(2764.5 -4.65685e-10 4.51393e-13)
(2764.5 -4.46666e-10 4.41995e-13)
(2764.5 -4.35563e-10 4.21006e-13)
(2764.5 -4.19809e-10 4.21839e-13)
(2764.5 -4.04659e-10 3.85177e-13)
(2764.5 -3.88667e-10 3.74087e-13)
(2764.5 -3.84097e-10 3.66228e-13)
(2764.5 -3.83452e-10 3.43663e-13)
(2764.5 -3.75371e-10 3.35907e-13)
(2764.5 -3.66887e-10 3.22011e-13)
(2764.5 -3.58135e-10 3.07733e-13)
(2764.5 -3.52809e-10 3.04049e-13)
(2764.5 -3.56903e-10 2.86362e-13)
(2764.5 -3.53044e-10 2.73542e-13)
(2764.5 -3.36575e-10 2.63992e-13)
(2764.5 -3.20346e-10 2.63937e-13)
(2764.5 -3.10614e-10 2.52302e-13)
(2764.5 -3.12155e-10 2.41584e-13)
(2764.5 -3.19858e-10 2.40801e-13)
(2764.5 -3.15053e-10 2.26187e-13)
(2764.5 -3.11623e-10 2.23392e-13)
(2764.5 -3.08232e-10 2.17896e-13)
(2764.5 -3.12133e-10 2.10856e-13)
(2764.5 -3.11815e-10 2.16236e-13)
(2764.5 -3.05881e-10 2.03528e-13)
(2764.5 -2.95191e-10 1.89066e-13)
(2764.5 -2.9247e-10 2.00124e-13)
(2764.5 -2.9025e-10 1.90472e-13)
(2764.5 -2.8432e-10 1.80736e-13)
(2764.5 -2.82606e-10 1.77847e-13)
(2764.5 -2.79886e-10 1.77735e-13)
(2764.5 -2.83691e-10 1.65389e-13)
(2764.5 -2.87706e-10 1.73228e-13)
(2764.5 -2.8131e-10 1.69393e-13)
(2764.5 -2.7717e-10 1.62533e-13)
(2764.5 -2.71267e-10 1.56115e-13)
(2764.5 -2.71201e-10 1.69098e-13)
(2764.5 -2.73668e-10 1.58982e-13)
(2764.5 -2.66577e-10 1.52232e-13)