/*--------------------------------*- C++ -*----------------------------------*\
| =========                 |                                                 |
| \\      /  F ield         | OpenFOAM: The Open Source CFD Toolbox           |
|  \\    /   O peration     | Version:  v1706                                 |
|   \\  /    A nd           | Web:      www.OpenFOAM.com                      |
|    \\/     M anipulation  |                                                 |
\*---------------------------------------------------------------------------*/
FoamFile
{
    version     2.0;
    format      ascii;
    class       volScalarField;
    location    "1.9e-05";
    object      wallHeatFlux;
}
// * * * * * * * * * * * * * * * * * * * * * * * * * * * * * * * * * * * * * //

dimensions      [1 0 -3 0 0 0 0];


internalField   uniform 0;

boundaryField
{
    cone
    {
        type            calculated;
        value           nonuniform List<scalar> 
147
(
1.14227e+06
1.14197e+06
1.14163e+06
1.14126e+06
1.14084e+06
1.14036e+06
1.1398e+06
1.13919e+06
1.13849e+06
1.13773e+06
1.1369e+06
1.136e+06
1.13503e+06
1.13398e+06
1.13287e+06
1.13169e+06
1.13044e+06
1.12912e+06
1.12773e+06
1.12627e+06
1.12474e+06
1.12314e+06
1.12148e+06
1.11973e+06
1.11792e+06
1.11604e+06
1.11409e+06
1.11206e+06
1.10997e+06
1.1078e+06
1.10557e+06
1.10327e+06
1.10089e+06
1.09845e+06
1.09595e+06
1.09337e+06
1.09073e+06
1.08802e+06
1.08525e+06
1.08241e+06
1.0795e+06
1.07653e+06
1.0735e+06
1.0704e+06
1.06724e+06
1.06402e+06
1.06074e+06
1.05739e+06
1.05399e+06
1.05052e+06
1.04699e+06
1.04341e+06
1.03977e+06
1.03607e+06
1.03231e+06
1.0285e+06
1.02463e+06
1.0207e+06
1.01673e+06
1.0127e+06
1.00861e+06
1.00448e+06
1.00029e+06
996050
991762
987423
983037
978603
974122
969594
965021
960403
955741
951036
946289
941500
936670
931800
926891
921943
916959
911937
906879
901786
896659
891499
886305
881081
875825
870540
865224
859880
854509
849112
843687
838239
832767
827273
821755
816215
810655
805077
799481
793865
788232
782586
776925
771249
765559
759857
754145
748423
742689
736947
731199
725443
719681
713916
708148
702379
696609
690839
685069
679299
673531
667765
662002
656243
650488
644739
638996
633260
627532
621813
616103
610402
604713
599036
593371
587719
582084
576473
570898
565349
559813
554278
1.1435e+06
)
;
    }
    inlet
    {
        type            calculated;
        value           uniform 0;
    }
    rWedge
    {
        type            wedge;
    }
    lWedge
    {
        type            wedge;
    }
    outlet
    {
        type            calculated;
        value           nonuniform 0();
    }
    procBoundary3to2
    {
        type            processor;
        value           uniform 0;
    }
}


// ************************************************************************* //
