/*--------------------------------*- C++ -*----------------------------------*\
| =========                 |                                                 |
| \\      /  F ield         | OpenFOAM: The Open Source CFD Toolbox           |
|  \\    /   O peration     | Version:  v1706                                 |
|   \\  /    A nd           | Web:      www.OpenFOAM.com                      |
|    \\/     M anipulation  |                                                 |
\*---------------------------------------------------------------------------*/
FoamFile
{
    version     2.0;
    format      ascii;
    class       volScalarField;
    location    "2e-05";
    object      alpha;
}
// * * * * * * * * * * * * * * * * * * * * * * * * * * * * * * * * * * * * * //

dimensions      [1 -1 -1 0 0 0 0];


internalField   nonuniform List<scalar> 
30038
(
1.40478e-05
1.40478e-05
1.40478e-05
1.40478e-05
1.40478e-05
1.40478e-05
1.40478e-05
1.40478e-05
1.40478e-05
1.40478e-05
1.40478e-05
1.40478e-05
1.40478e-05
1.40478e-05
1.40478e-05
1.40478e-05
1.40478e-05
1.40478e-05
1.40478e-05
1.40478e-05
1.40478e-05
1.40478e-05
1.40478e-05
1.40478e-05
1.40478e-05
1.40478e-05
1.40478e-05
1.40478e-05
1.40478e-05
1.40478e-05
1.40478e-05
1.40478e-05
1.40478e-05
1.40478e-05
1.40478e-05
1.40478e-05
1.40478e-05
1.40478e-05
1.40478e-05
1.40478e-05
1.40478e-05
1.40478e-05
1.40478e-05
1.40478e-05
1.40478e-05
1.40478e-05
1.40478e-05
1.40478e-05
1.40478e-05
1.40478e-05
1.40478e-05
1.40478e-05
1.40478e-05
1.40478e-05
1.40478e-05
1.40478e-05
1.40478e-05
1.40478e-05
1.40478e-05
1.40478e-05
1.40478e-05
1.40478e-05
1.40478e-05
1.40478e-05
1.40478e-05
1.40478e-05
1.40478e-05
1.40478e-05
1.40478e-05
1.40478e-05
1.40478e-05
1.40478e-05
1.40478e-05
1.40478e-05
1.40478e-05
1.40478e-05
1.40478e-05
1.40478e-05
1.40478e-05
1.40478e-05
1.40478e-05
1.40478e-05
1.40478e-05
1.40478e-05
1.40478e-05
1.40478e-05
1.40478e-05
1.40478e-05
1.40478e-05
1.40478e-05
1.40478e-05
1.40478e-05
1.40478e-05
1.40478e-05
1.40478e-05
1.40478e-05
1.40478e-05
1.40478e-05
1.40478e-05
1.40478e-05
1.40478e-05
1.40478e-05
1.40478e-05
1.40478e-05
1.40478e-05
1.40478e-05
1.40478e-05
1.40478e-05
1.40478e-05
1.40478e-05
1.40478e-05
1.40478e-05
1.40478e-05
1.40478e-05
1.40478e-05
1.40478e-05
1.40478e-05
1.40478e-05
1.40478e-05
1.40478e-05
1.40478e-05
1.40478e-05
1.40478e-05
1.40478e-05
1.40478e-05
1.40478e-05
1.40478e-05
1.40478e-05
1.40478e-05
1.40478e-05
1.40478e-05
1.40478e-05
1.40478e-05
1.40478e-05
1.40478e-05
1.40478e-05
1.40478e-05
1.40478e-05
1.40478e-05
1.40478e-05
1.40478e-05
1.40478e-05
1.40478e-05
1.40478e-05
1.40478e-05
1.40478e-05
1.40478e-05
1.40478e-05
1.40478e-05
1.40478e-05
1.40478e-05
1.40478e-05
1.40478e-05
1.40478e-05
1.40478e-05
1.40478e-05
1.40478e-05
1.40478e-05
1.40478e-05
1.40478e-05
1.40478e-05
1.40478e-05
1.40478e-05
1.40478e-05
1.40478e-05
1.40478e-05
1.40478e-05
1.40478e-05
1.40478e-05
1.40478e-05
1.40478e-05
1.40478e-05
1.40478e-05
1.40478e-05
1.40478e-05
1.40478e-05
1.40478e-05
1.40478e-05
1.40478e-05
1.40478e-05
1.40478e-05
1.40478e-05
1.40478e-05
1.40478e-05
1.40478e-05
1.40478e-05
1.40478e-05
1.40478e-05
1.40478e-05
1.40478e-05
1.40478e-05
1.40478e-05
1.40478e-05
1.40478e-05
1.40478e-05
1.40478e-05
1.40478e-05
1.40478e-05
1.40478e-05
1.40478e-05
1.40478e-05
1.40478e-05
1.40478e-05
1.40478e-05
1.40478e-05
1.40478e-05
1.40478e-05
1.40478e-05
1.40478e-05
1.40478e-05
1.40478e-05
1.40478e-05
1.40478e-05
1.40478e-05
1.40478e-05
1.40478e-05
1.40478e-05
1.40478e-05
1.40478e-05
1.40478e-05
1.40478e-05
1.40478e-05
1.40478e-05
1.40478e-05
1.40478e-05
1.40478e-05
1.40478e-05
1.40478e-05
1.40478e-05
1.40478e-05
1.40478e-05
1.40478e-05
1.40478e-05
1.40478e-05
1.40478e-05
1.40478e-05
1.40478e-05
1.40478e-05
1.40478e-05
1.40478e-05
1.40478e-05
1.40478e-05
1.40478e-05
1.40478e-05
1.40478e-05
1.40478e-05
1.40478e-05
1.40478e-05
1.40478e-05
1.40478e-05
1.40478e-05
1.40478e-05
1.40478e-05
1.40478e-05
1.40478e-05
1.40478e-05
1.40478e-05
1.40478e-05
1.40478e-05
1.40478e-05
1.40478e-05
1.40478e-05
1.40478e-05
1.40478e-05
1.40478e-05
1.40478e-05
1.40478e-05
1.40478e-05
1.40478e-05
1.40478e-05
1.40478e-05
1.40478e-05
1.40478e-05
1.40478e-05
1.40478e-05
1.40478e-05
1.40478e-05
1.40478e-05
1.40478e-05
1.40478e-05
1.40478e-05
1.40478e-05
1.40478e-05
1.40478e-05
1.40478e-05
1.40478e-05
1.40478e-05
1.40478e-05
1.40478e-05
1.40478e-05
1.40478e-05
1.40478e-05
1.40478e-05
1.40478e-05
1.40478e-05
1.40478e-05
1.40478e-05
1.40478e-05
1.40478e-05
1.40478e-05
1.40478e-05
1.40478e-05
1.40478e-05
1.40478e-05
1.40478e-05
1.40478e-05
1.40478e-05
1.40478e-05
1.40478e-05
1.40478e-05
1.40478e-05
1.40478e-05
1.40478e-05
1.40478e-05
1.40478e-05
1.40478e-05
1.40478e-05
1.40478e-05
1.40478e-05
1.40478e-05
1.40478e-05
1.40478e-05
1.40478e-05
1.40478e-05
1.40478e-05
1.40478e-05
1.40478e-05
1.40478e-05
1.40478e-05
1.40478e-05
1.40478e-05
1.40478e-05
1.40478e-05
1.40478e-05
1.40478e-05
1.40478e-05
1.40478e-05
1.40478e-05
1.40478e-05
1.40479e-05
1.40479e-05
1.40479e-05
1.4048e-05
1.40478e-05
1.40478e-05
1.40478e-05
1.40478e-05
1.40478e-05
1.40478e-05
1.40478e-05
1.40478e-05
1.40478e-05
1.40478e-05
1.40478e-05
1.40478e-05
1.40478e-05
1.40478e-05
1.40478e-05
1.40478e-05
1.40478e-05
1.40478e-05
1.40478e-05
1.40478e-05
1.40478e-05
1.40478e-05
1.40478e-05
1.40478e-05
1.40478e-05
1.40478e-05
1.40478e-05
1.40478e-05
1.40478e-05
1.40478e-05
1.40478e-05
1.40479e-05
1.40479e-05
1.40479e-05
1.4048e-05
1.4048e-05
1.40481e-05
1.40482e-05
1.40484e-05
1.40478e-05
1.40478e-05
1.40478e-05
1.40478e-05
1.40478e-05
1.40478e-05
1.40478e-05
1.40478e-05
1.40478e-05
1.40478e-05
1.40478e-05
1.40478e-05
1.40478e-05
1.40478e-05
1.40478e-05
1.40478e-05
1.40478e-05
1.40478e-05
1.40478e-05
1.40478e-05
1.40478e-05
1.40478e-05
1.40478e-05
1.40478e-05
1.40478e-05
1.40478e-05
1.40478e-05
1.40479e-05
1.40479e-05
1.40479e-05
1.4048e-05
1.4048e-05
1.40481e-05
1.40482e-05
1.40484e-05
1.40486e-05
1.40489e-05
1.40493e-05
1.40499e-05
1.40478e-05
1.40478e-05
1.40478e-05
1.40478e-05
1.40478e-05
1.40478e-05
1.40478e-05
1.40478e-05
1.40478e-05
1.40478e-05
1.40478e-05
1.40478e-05
1.40478e-05
1.40478e-05
1.40478e-05
1.40478e-05
1.40478e-05
1.40478e-05
1.40478e-05
1.40478e-05
1.40478e-05
1.40478e-05
1.40478e-05
1.40478e-05
1.40479e-05
1.40479e-05
1.40479e-05
1.40479e-05
1.4048e-05
1.40481e-05
1.40482e-05
1.40483e-05
1.40485e-05
1.40488e-05
1.40492e-05
1.40497e-05
1.40504e-05
1.40514e-05
1.40528e-05
1.40548e-05
1.40478e-05
1.40478e-05
1.40478e-05
1.40478e-05
1.40478e-05
1.40478e-05
1.40478e-05
1.40478e-05
1.40478e-05
1.40478e-05
1.40478e-05
1.40478e-05
1.40478e-05
1.40478e-05
1.40478e-05
1.40478e-05
1.40478e-05
1.40478e-05
1.40478e-05
1.40478e-05
1.40479e-05
1.40479e-05
1.40479e-05
1.40479e-05
1.4048e-05
1.40481e-05
1.40482e-05
1.40483e-05
1.40485e-05
1.40488e-05
1.40491e-05
1.40496e-05
1.40503e-05
1.40512e-05
1.40524e-05
1.40541e-05
1.40564e-05
1.40596e-05
1.40641e-05
1.40705e-05
1.40478e-05
1.40478e-05
1.40478e-05
1.40478e-05
1.40478e-05
1.40478e-05
1.40478e-05
1.40478e-05
1.40478e-05
1.40478e-05
1.40478e-05
1.40478e-05
1.40478e-05
1.40478e-05
1.40478e-05
1.40478e-05
1.40479e-05
1.40479e-05
1.40479e-05
1.40479e-05
1.4048e-05
1.40481e-05
1.40482e-05
1.40483e-05
1.40485e-05
1.40487e-05
1.40491e-05
1.40495e-05
1.40502e-05
1.4051e-05
1.40521e-05
1.40537e-05
1.40558e-05
1.40587e-05
1.40626e-05
1.4068e-05
1.40753e-05
1.40854e-05
1.40994e-05
1.41192e-05
1.40478e-05
1.40478e-05
1.40478e-05
1.40478e-05
1.40478e-05
1.40478e-05
1.40478e-05
1.40478e-05
1.40478e-05
1.40478e-05
1.40478e-05
1.40478e-05
1.40479e-05
1.40479e-05
1.40479e-05
1.4048e-05
1.4048e-05
1.40481e-05
1.40482e-05
1.40483e-05
1.40485e-05
1.40487e-05
1.40491e-05
1.40495e-05
1.40501e-05
1.40509e-05
1.40519e-05
1.40534e-05
1.40554e-05
1.4058e-05
1.40616e-05
1.40665e-05
1.40731e-05
1.40821e-05
1.40943e-05
1.4111e-05
1.41336e-05
1.41646e-05
1.4207e-05
1.42662e-05
1.40478e-05
1.40478e-05
1.40478e-05
1.40478e-05
1.40478e-05
1.40478e-05
1.40478e-05
1.40478e-05
1.40479e-05
1.40479e-05
1.40479e-05
1.4048e-05
1.4048e-05
1.40481e-05
1.40482e-05
1.40483e-05
1.40485e-05
1.40487e-05
1.40491e-05
1.40495e-05
1.405e-05
1.40508e-05
1.40518e-05
1.40532e-05
1.40551e-05
1.40575e-05
1.40609e-05
1.40654e-05
1.40715e-05
1.40797e-05
1.40908e-05
1.41059e-05
1.41261e-05
1.41535e-05
1.41906e-05
1.42405e-05
1.4308e-05
1.43989e-05
1.45218e-05
1.46885e-05
1.40478e-05
1.40478e-05
1.40478e-05
1.40479e-05
1.40479e-05
1.40479e-05
1.40479e-05
1.4048e-05
1.4048e-05
1.40481e-05
1.40482e-05
1.40483e-05
1.40485e-05
1.40488e-05
1.40491e-05
1.40495e-05
1.40501e-05
1.40508e-05
1.40518e-05
1.40531e-05
1.40549e-05
1.40572e-05
1.40604e-05
1.40647e-05
1.40703e-05
1.4078e-05
1.40882e-05
1.4102e-05
1.41205e-05
1.41454e-05
1.41787e-05
1.42235e-05
1.42836e-05
1.43639e-05
1.4471e-05
1.46134e-05
1.48017e-05
1.50492e-05
1.53722e-05
1.57903e-05
1.40479e-05
1.40479e-05
1.40479e-05
1.4048e-05
1.40481e-05
1.40481e-05
1.40482e-05
1.40484e-05
1.40486e-05
1.40488e-05
1.40491e-05
1.40495e-05
1.40501e-05
1.40508e-05
1.40518e-05
1.40531e-05
1.40548e-05
1.40571e-05
1.40602e-05
1.40642e-05
1.40696e-05
1.40768e-05
1.40864e-05
1.40992e-05
1.41164e-05
1.41392e-05
1.41698e-05
1.42106e-05
1.42649e-05
1.43373e-05
1.44335e-05
1.45606e-05
1.47281e-05
1.49472e-05
1.52313e-05
1.55959e-05
1.60574e-05
1.6633e-05
1.73379e-05
1.81801e-05
1.4048e-05
1.40481e-05
1.40482e-05
1.40483e-05
1.40484e-05
1.40486e-05
1.40489e-05
1.40492e-05
1.40496e-05
1.40502e-05
1.4051e-05
1.40519e-05
1.40532e-05
1.40549e-05
1.40572e-05
1.40602e-05
1.40641e-05
1.40693e-05
1.40762e-05
1.40854e-05
1.40975e-05
1.41136e-05
1.4135e-05
1.41634e-05
1.42011e-05
1.4251e-05
1.43172e-05
1.44047e-05
1.45199e-05
1.46711e-05
1.48683e-05
1.51236e-05
1.54509e-05
1.58654e-05
1.63825e-05
1.70164e-05
1.77777e-05
1.86708e-05
1.96934e-05
2.08316e-05
2.20624e-05
1.40485e-05
1.40487e-05
1.4049e-05
1.40493e-05
1.40498e-05
1.40504e-05
1.40511e-05
1.40521e-05
1.40535e-05
1.40552e-05
1.40574e-05
1.40604e-05
1.40643e-05
1.40694e-05
1.40761e-05
1.4085e-05
1.40967e-05
1.41121e-05
1.41325e-05
1.41593e-05
1.41947e-05
1.42414e-05
1.43028e-05
1.43836e-05
1.44895e-05
1.46278e-05
1.48077e-05
1.50399e-05
1.53371e-05
1.57134e-05
1.61836e-05
1.67615e-05
1.74589e-05
1.82824e-05
1.92316e-05
2.02972e-05
2.14603e-05
2.26935e-05
2.39564e-05
2.51937e-05
2.63535e-05
1.40495e-05
1.405e-05
1.40506e-05
1.40514e-05
1.40524e-05
1.40538e-05
1.40556e-05
1.40579e-05
1.40609e-05
1.40648e-05
1.40699e-05
1.40766e-05
1.40854e-05
1.40969e-05
1.41119e-05
1.41316e-05
1.41574e-05
1.41912e-05
1.42355e-05
1.42935e-05
1.43694e-05
1.44682e-05
1.45967e-05
1.47631e-05
1.4977e-05
1.52502e-05
1.55956e-05
1.6027e-05
1.6558e-05
1.72007e-05
1.79635e-05
1.8849e-05
1.98519e-05
2.09583e-05
2.2146e-05
2.33838e-05
2.46263e-05
2.58158e-05
2.68927e-05
2.7815e-05
2.85618e-05
2.91575e-05
1.40517e-05
1.40529e-05
1.40543e-05
1.40562e-05
1.40586e-05
1.40617e-05
1.40657e-05
1.4071e-05
1.40777e-05
1.40866e-05
1.4098e-05
1.41129e-05
1.41324e-05
1.41576e-05
1.41905e-05
1.42334e-05
1.42891e-05
1.43615e-05
1.44553e-05
1.45767e-05
1.47329e-05
1.49329e-05
1.51874e-05
1.55083e-05
1.59085e-05
1.6401e-05
1.69977e-05
1.7708e-05
1.85367e-05
1.94815e-05
2.05328e-05
2.16725e-05
2.28761e-05
2.4109e-05
2.5323e-05
2.64609e-05
2.74694e-05
2.83149e-05
2.89893e-05
2.95051e-05
2.98893e-05
3.01644e-05
3.03688e-05
1.40595e-05
1.40628e-05
1.4067e-05
1.40725e-05
1.40795e-05
1.40885e-05
1.41002e-05
1.41153e-05
1.41348e-05
1.416e-05
1.41927e-05
1.42348e-05
1.42893e-05
1.43597e-05
1.44503e-05
1.45668e-05
1.47159e-05
1.49059e-05
1.51465e-05
1.54488e-05
1.58247e-05
1.62865e-05
1.68459e-05
1.75122e-05
1.82915e-05
1.91844e-05
2.01837e-05
2.1276e-05
2.24399e-05
2.36488e-05
2.48646e-05
2.60374e-05
2.71127e-05
2.80458e-05
2.88139e-05
2.94175e-05
2.98744e-05
3.02094e-05
3.04494e-05
3.06177e-05
3.07362e-05
3.08172e-05
3.08778e-05
1.40747e-05
1.4082e-05
1.40915e-05
1.41036e-05
1.41192e-05
1.41391e-05
1.41648e-05
1.41977e-05
1.424e-05
1.42943e-05
1.43639e-05
1.4453e-05
1.45668e-05
1.47116e-05
1.4895e-05
1.5126e-05
1.54149e-05
1.57727e-05
1.62112e-05
1.67412e-05
1.73721e-05
1.81104e-05
1.89583e-05
1.99115e-05
2.09585e-05
2.2082e-05
2.32594e-05
2.44613e-05
2.56463e-05
2.67643e-05
2.77662e-05
2.86174e-05
2.93057e-05
2.98393e-05
3.02387e-05
3.05292e-05
3.07355e-05
3.08798e-05
3.0979e-05
3.10475e-05
3.10947e-05
3.11259e-05
3.11466e-05
3.11631e-05
1.41084e-05
1.41247e-05
1.41456e-05
1.41721e-05
1.4206e-05
1.42492e-05
1.43043e-05
1.43745e-05
1.44636e-05
1.45767e-05
1.47197e-05
1.48997e-05
1.51251e-05
1.54055e-05
1.57511e-05
1.61727e-05
1.66809e-05
1.72844e-05
1.79898e-05
1.88003e-05
1.97135e-05
2.07202e-05
2.18053e-05
2.2949e-05
2.41274e-05
2.53082e-05
2.64475e-05
2.74972e-05
2.8416e-05
2.91802e-05
2.97878e-05
3.02527e-05
3.05971e-05
3.08454e-05
3.10206e-05
3.11419e-05
3.12249e-05
3.12814e-05
3.13194e-05
3.13436e-05
3.13582e-05
3.13693e-05
3.13726e-05
3.13743e-05
3.1371e-05
1.41825e-05
1.4218e-05
1.42629e-05
1.43198e-05
1.43918e-05
1.44826e-05
1.4597e-05
1.47407e-05
1.49203e-05
1.51438e-05
1.54201e-05
1.57587e-05
1.61698e-05
1.6663e-05
1.72469e-05
1.79277e-05
1.87084e-05
1.95882e-05
2.056e-05
2.16101e-05
2.27214e-05
2.38726e-05
2.50381e-05
2.61817e-05
2.72595e-05
2.82278e-05
2.90554e-05
2.973e-05
3.02577e-05
3.06564e-05
3.09487e-05
3.11575e-05
3.13038e-05
3.1404e-05
3.14719e-05
3.15177e-05
3.15468e-05
3.15644e-05
3.15747e-05
3.15804e-05
3.15815e-05
3.15783e-05
3.15706e-05
3.15591e-05
3.15453e-05
3.15292e-05
1.42818e-05
1.43417e-05
1.44167e-05
1.45109e-05
1.46286e-05
1.47753e-05
1.49576e-05
1.51828e-05
1.54592e-05
1.57958e-05
1.62021e-05
1.66869e-05
1.72582e-05
1.79218e-05
1.86804e-05
1.95338e-05
2.04765e-05
2.14968e-05
2.25779e-05
2.37014e-05
2.48456e-05
2.59818e-05
2.70709e-05
2.80711e-05
2.89468e-05
2.96778e-05
3.02623e-05
3.07126e-05
3.10486e-05
3.12924e-05
3.1465e-05
3.15846e-05
3.16657e-05
3.17199e-05
3.17556e-05
3.17766e-05
3.1788e-05
3.17943e-05
3.17952e-05
3.1793e-05
3.17864e-05
3.17754e-05
3.17616e-05
3.17447e-05
3.17253e-05
3.17045e-05
3.16841e-05
3.16644e-05
1.46729e-05
1.48252e-05
1.5013e-05
1.52433e-05
1.5524e-05
1.58635e-05
1.62703e-05
1.67528e-05
1.73181e-05
1.79715e-05
1.87153e-05
1.95492e-05
2.04687e-05
2.14636e-05
2.25181e-05
2.36154e-05
2.47361e-05
2.58567e-05
2.69449e-05
2.79615e-05
2.88698e-05
2.96445e-05
3.02768e-05
3.07731e-05
3.11501e-05
3.14279e-05
3.16273e-05
3.1767e-05
3.18626e-05
3.19265e-05
3.19684e-05
3.19941e-05
3.20083e-05
3.2014e-05
3.20163e-05
3.20135e-05
3.20077e-05
3.19972e-05
3.19832e-05
3.19668e-05
3.19476e-05
3.19265e-05
3.19041e-05
3.1882e-05
3.18603e-05
3.18385e-05
3.18166e-05
3.17943e-05
1.50889e-05
1.53279e-05
1.56168e-05
1.59636e-05
1.63763e-05
1.68621e-05
1.74275e-05
1.80771e-05
1.88128e-05
1.96336e-05
2.05357e-05
2.151e-05
2.2542e-05
2.36149e-05
2.47117e-05
2.58126e-05
2.68907e-05
2.79108e-05
2.88374e-05
2.96423e-05
3.03115e-05
3.08462e-05
3.1259e-05
3.15681e-05
3.1793e-05
3.19526e-05
3.20631e-05
3.21375e-05
3.21861e-05
3.22168e-05
3.22337e-05
3.2241e-05
3.22422e-05
3.22397e-05
3.22344e-05
3.22251e-05
3.22105e-05
3.21937e-05
3.21749e-05
3.21534e-05
3.21303e-05
3.21066e-05
3.20834e-05
3.20606e-05
3.20373e-05
3.20137e-05
3.19896e-05
3.19649e-05
3.19394e-05
3.19126e-05
1.65227e-05
1.70172e-05
1.75884e-05
1.82401e-05
1.89734e-05
1.9787e-05
2.0677e-05
2.16351e-05
2.2648e-05
2.36988e-05
2.47724e-05
2.58513e-05
2.6913e-05
2.79271e-05
2.88596e-05
2.96817e-05
3.03762e-05
3.09399e-05
3.13816e-05
3.17172e-05
3.1965e-05
3.2143e-05
3.22676e-05
3.23525e-05
3.24082e-05
3.24436e-05
3.24644e-05
3.24737e-05
3.24743e-05
3.2472e-05
3.2466e-05
3.24568e-05
3.24435e-05
3.24258e-05
3.24067e-05
3.23855e-05
3.23617e-05
3.23368e-05
3.23119e-05
3.22876e-05
3.22634e-05
3.22388e-05
3.2214e-05
3.21887e-05
3.21628e-05
3.21358e-05
3.21077e-05
3.20781e-05
3.20472e-05
3.20144e-05
1.91989e-05
2.00102e-05
2.08927e-05
2.18385e-05
2.2835e-05
2.38659e-05
2.4917e-05
2.59729e-05
2.70141e-05
2.80146e-05
2.89427e-05
2.97704e-05
3.04786e-05
3.10612e-05
3.15238e-05
3.188e-05
3.21464e-05
3.23401e-05
3.24774e-05
3.2572e-05
3.26348e-05
3.26748e-05
3.26988e-05
3.27102e-05
3.27119e-05
3.27085e-05
3.27028e-05
3.26936e-05
3.268e-05
3.2663e-05
3.26428e-05
3.26213e-05
3.25977e-05
3.25721e-05
3.25456e-05
3.25197e-05
3.24942e-05
3.24686e-05
3.24427e-05
3.24166e-05
3.23902e-05
3.2363e-05
3.23349e-05
3.23057e-05
3.22753e-05
3.22434e-05
3.22098e-05
3.21742e-05
3.21367e-05
3.20966e-05
2.31023e-05
2.41148e-05
2.51438e-05
2.61757e-05
2.71935e-05
2.81747e-05
2.909e-05
2.99129e-05
3.0624e-05
3.12153e-05
3.16903e-05
3.206e-05
3.23399e-05
3.25458e-05
3.26934e-05
3.27963e-05
3.28653e-05
3.29097e-05
3.29367e-05
3.29507e-05
3.29535e-05
3.29498e-05
3.29434e-05
3.29334e-05
3.29207e-05
3.29037e-05
3.28831e-05
3.28611e-05
3.28372e-05
3.28112e-05
3.27838e-05
3.27561e-05
3.27292e-05
3.27026e-05
3.26756e-05
3.26484e-05
3.26211e-05
3.25935e-05
3.25652e-05
3.2536e-05
3.25058e-05
3.24744e-05
3.24417e-05
3.24074e-05
3.23714e-05
3.23333e-05
3.22931e-05
3.22504e-05
3.22053e-05
3.21569e-05
2.74491e-05
2.84062e-05
2.93019e-05
3.01111e-05
3.08152e-05
3.14056e-05
3.1884e-05
3.22601e-05
3.25476e-05
3.27615e-05
3.29164e-05
3.30255e-05
3.30997e-05
3.31477e-05
3.31773e-05
3.31932e-05
3.31974e-05
3.31941e-05
3.31866e-05
3.31772e-05
3.31638e-05
3.31468e-05
3.31268e-05
3.31032e-05
3.30793e-05
3.30532e-05
3.30252e-05
3.29964e-05
3.2968e-05
3.294e-05
3.29121e-05
3.28838e-05
3.28555e-05
3.28271e-05
3.27983e-05
3.27688e-05
3.27385e-05
3.27073e-05
3.2675e-05
3.26415e-05
3.26065e-05
3.25699e-05
3.25314e-05
3.24909e-05
3.24482e-05
3.24031e-05
3.23552e-05
3.23044e-05
3.22508e-05
3.21931e-05
3.10526e-05
3.1633e-05
3.21065e-05
3.24816e-05
3.27709e-05
3.2988e-05
3.31468e-05
3.32598e-05
3.33374e-05
3.33882e-05
3.34199e-05
3.34373e-05
3.3443e-05
3.34399e-05
3.34322e-05
3.34219e-05
3.34085e-05
3.33921e-05
3.33715e-05
3.33485e-05
3.33234e-05
3.32971e-05
3.32689e-05
3.32392e-05
3.32093e-05
3.31803e-05
3.31514e-05
3.31222e-05
3.30927e-05
3.30634e-05
3.30339e-05
3.30039e-05
3.29732e-05
3.29419e-05
3.29098e-05
3.28766e-05
3.28423e-05
3.28066e-05
3.27693e-05
3.27304e-05
3.26896e-05
3.26468e-05
3.26017e-05
3.2554e-05
3.25037e-05
3.24505e-05
3.23942e-05
3.23345e-05
3.22716e-05
3.22055e-05
3.30097e-05
3.32255e-05
3.33845e-05
3.34987e-05
3.35779e-05
3.36303e-05
3.36633e-05
3.36819e-05
3.36887e-05
3.36859e-05
3.36783e-05
3.36672e-05
3.36543e-05
3.36375e-05
3.3617e-05
3.35937e-05
3.35684e-05
3.3542e-05
3.35135e-05
3.34835e-05
3.34527e-05
3.34223e-05
3.33924e-05
3.33624e-05
3.3332e-05
3.33017e-05
3.32714e-05
3.32409e-05
3.32098e-05
3.31781e-05
3.31458e-05
3.31127e-05
3.30787e-05
3.30435e-05
3.30071e-05
3.29693e-05
3.29299e-05
3.28887e-05
3.28457e-05
3.28005e-05
3.2753e-05
3.2703e-05
3.26503e-05
3.25947e-05
3.25359e-05
3.2474e-05
3.24094e-05
3.23417e-05
3.22705e-05
3.21948e-05
3.38206e-05
3.38732e-05
3.39067e-05
3.39259e-05
3.39333e-05
3.39308e-05
3.39235e-05
3.39122e-05
3.38988e-05
3.38823e-05
3.38621e-05
3.38386e-05
3.38135e-05
3.37865e-05
3.3758e-05
3.37275e-05
3.36963e-05
3.3665e-05
3.36343e-05
3.36035e-05
3.35724e-05
3.35411e-05
3.351e-05
3.34789e-05
3.34472e-05
3.34152e-05
3.33826e-05
3.33494e-05
3.33154e-05
3.32805e-05
3.32446e-05
3.32075e-05
3.31691e-05
3.31293e-05
3.30878e-05
3.30445e-05
3.29992e-05
3.29518e-05
3.2902e-05
3.28496e-05
3.27947e-05
3.27367e-05
3.26757e-05
3.2612e-05
3.25456e-05
3.24758e-05
3.24026e-05
3.23257e-05
3.22448e-05
3.21587e-05
3.4176e-05
3.41737e-05
3.41665e-05
3.41552e-05
3.41415e-05
3.41254e-05
3.41055e-05
3.40821e-05
3.40564e-05
3.40299e-05
3.40014e-05
3.39709e-05
3.39392e-05
3.39072e-05
3.38759e-05
3.38444e-05
3.38128e-05
3.37808e-05
3.37489e-05
3.37171e-05
3.36851e-05
3.36525e-05
3.36195e-05
3.35861e-05
3.35521e-05
3.35173e-05
3.34817e-05
3.34451e-05
3.34073e-05
3.33684e-05
3.3328e-05
3.32862e-05
3.32426e-05
3.31972e-05
3.31498e-05
3.31002e-05
3.30482e-05
3.29937e-05
3.29364e-05
3.28762e-05
3.28134e-05
3.27481e-05
3.26797e-05
3.26079e-05
3.25329e-05
3.24541e-05
3.23713e-05
3.22842e-05
3.21931e-05
3.20966e-05
3.43815e-05
3.43657e-05
3.43461e-05
3.43227e-05
3.42971e-05
3.42706e-05
3.42425e-05
3.42122e-05
3.41801e-05
3.41479e-05
3.4116e-05
3.40843e-05
3.40522e-05
3.40197e-05
3.39872e-05
3.39548e-05
3.39223e-05
3.38894e-05
3.3856e-05
3.38223e-05
3.37881e-05
3.37533e-05
3.37178e-05
3.36814e-05
3.36442e-05
3.36059e-05
3.35664e-05
3.35256e-05
3.34834e-05
3.34396e-05
3.33941e-05
3.33467e-05
3.32971e-05
3.32454e-05
3.31914e-05
3.31347e-05
3.30753e-05
3.30132e-05
3.29489e-05
3.28817e-05
3.28113e-05
3.27378e-05
3.26609e-05
3.25803e-05
3.24957e-05
3.24071e-05
3.23145e-05
3.22176e-05
3.21164e-05
3.20098e-05
3.45345e-05
3.45082e-05
3.44805e-05
3.44503e-05
3.44184e-05
3.43859e-05
3.43539e-05
3.43221e-05
3.42896e-05
3.42568e-05
3.42238e-05
3.41911e-05
3.41582e-05
3.41249e-05
3.40912e-05
3.40572e-05
3.40229e-05
3.3988e-05
3.39525e-05
3.39163e-05
3.38793e-05
3.38415e-05
3.38026e-05
3.37627e-05
3.37215e-05
3.36789e-05
3.36349e-05
3.35892e-05
3.35418e-05
3.34924e-05
3.34409e-05
3.33873e-05
3.33311e-05
3.32723e-05
3.3211e-05
3.31476e-05
3.30815e-05
3.30124e-05
3.29404e-05
3.28652e-05
3.27864e-05
3.2704e-05
3.26178e-05
3.25277e-05
3.24337e-05
3.23356e-05
3.22333e-05
3.21268e-05
3.2016e-05
3.19001e-05
3.46531e-05
3.46209e-05
3.45887e-05
3.45568e-05
3.45244e-05
3.44914e-05
3.44581e-05
3.44251e-05
3.4392e-05
3.43585e-05
3.43246e-05
3.42904e-05
3.42559e-05
3.42209e-05
3.41854e-05
3.41492e-05
3.41124e-05
3.40749e-05
3.40365e-05
3.39971e-05
3.39567e-05
3.39152e-05
3.38723e-05
3.3828e-05
3.37822e-05
3.37348e-05
3.36854e-05
3.36342e-05
3.35809e-05
3.35251e-05
3.3467e-05
3.34065e-05
3.3344e-05
3.32789e-05
3.32109e-05
3.31402e-05
3.30666e-05
3.29896e-05
3.2909e-05
3.2825e-05
3.27373e-05
3.26458e-05
3.25505e-05
3.24512e-05
3.23479e-05
3.22406e-05
3.21292e-05
3.20139e-05
3.18947e-05
3.17702e-05
3.47558e-05
3.47229e-05
3.46895e-05
3.46564e-05
3.46233e-05
3.45897e-05
3.45555e-05
3.45211e-05
3.44865e-05
3.44515e-05
3.4416e-05
3.43798e-05
3.43431e-05
3.43058e-05
3.42678e-05
3.42289e-05
3.4189e-05
3.41482e-05
3.41063e-05
3.40631e-05
3.40187e-05
3.39727e-05
3.39252e-05
3.38759e-05
3.38248e-05
3.37718e-05
3.37165e-05
3.3659e-05
3.35992e-05
3.35375e-05
3.34733e-05
3.34065e-05
3.3337e-05
3.32648e-05
3.31895e-05
3.31107e-05
3.30286e-05
3.29431e-05
3.28539e-05
3.27612e-05
3.26647e-05
3.25643e-05
3.24601e-05
3.2352e-05
3.224e-05
3.21242e-05
3.20048e-05
3.18813e-05
3.1754e-05
3.16216e-05
3.48514e-05
3.48178e-05
3.47837e-05
3.47492e-05
3.47145e-05
3.46795e-05
3.4644e-05
3.46079e-05
3.45713e-05
3.45341e-05
3.44963e-05
3.44577e-05
3.44183e-05
3.43781e-05
3.43369e-05
3.42946e-05
3.42512e-05
3.42065e-05
3.41604e-05
3.41128e-05
3.40636e-05
3.40126e-05
3.39598e-05
3.39049e-05
3.38479e-05
3.37888e-05
3.37279e-05
3.36646e-05
3.35987e-05
3.35305e-05
3.34596e-05
3.33857e-05
3.33086e-05
3.32284e-05
3.31449e-05
3.30579e-05
3.29675e-05
3.28735e-05
3.27759e-05
3.26746e-05
3.25696e-05
3.24607e-05
3.23481e-05
3.2232e-05
3.21123e-05
3.19887e-05
3.18616e-05
3.17306e-05
3.1596e-05
3.14565e-05
3.49397e-05
3.49047e-05
3.48692e-05
3.48332e-05
3.47966e-05
3.47596e-05
3.4722e-05
3.46837e-05
3.46446e-05
3.46048e-05
3.45641e-05
3.45226e-05
3.448e-05
3.44362e-05
3.43913e-05
3.43451e-05
3.42974e-05
3.42482e-05
3.41974e-05
3.41447e-05
3.40901e-05
3.40336e-05
3.39752e-05
3.39149e-05
3.38524e-05
3.37875e-05
3.37204e-05
3.36507e-05
3.35782e-05
3.35026e-05
3.34241e-05
3.33425e-05
3.32576e-05
3.31694e-05
3.30778e-05
3.29827e-05
3.28841e-05
3.27819e-05
3.26761e-05
3.25666e-05
3.24536e-05
3.23371e-05
3.22171e-05
3.20934e-05
3.19664e-05
3.18356e-05
3.17015e-05
3.15637e-05
3.14231e-05
3.12776e-05
3.50557e-05
3.50193e-05
3.49824e-05
3.49449e-05
3.49068e-05
3.4868e-05
3.48285e-05
3.47883e-05
3.47473e-05
3.47053e-05
3.46623e-05
3.46183e-05
3.45732e-05
3.45268e-05
3.4479e-05
3.44297e-05
3.4379e-05
3.43265e-05
3.42721e-05
3.4216e-05
3.41582e-05
3.40985e-05
3.40367e-05
3.39727e-05
3.39066e-05
3.3838e-05
3.37668e-05
3.36926e-05
3.36157e-05
3.35358e-05
3.34528e-05
3.33666e-05
3.32773e-05
3.31846e-05
3.30886e-05
3.2989e-05
3.2886e-05
3.27796e-05
3.26695e-05
3.25561e-05
3.24393e-05
3.23191e-05
3.21954e-05
3.20684e-05
3.19379e-05
3.18042e-05
3.1667e-05
3.15271e-05
3.13836e-05
3.12381e-05
3.10881e-05
3.51272e-05
3.50887e-05
3.50495e-05
3.50096e-05
3.4969e-05
3.49275e-05
3.48852e-05
3.48419e-05
3.47975e-05
3.47521e-05
3.47055e-05
3.46575e-05
3.46083e-05
3.45575e-05
3.45051e-05
3.44509e-05
3.43951e-05
3.43379e-05
3.42787e-05
3.42175e-05
3.41544e-05
3.40891e-05
3.40215e-05
3.39514e-05
3.38786e-05
3.38031e-05
3.37248e-05
3.36435e-05
3.35593e-05
3.3472e-05
3.33816e-05
3.32879e-05
3.31909e-05
3.30906e-05
3.29869e-05
3.28798e-05
3.27693e-05
3.26555e-05
3.25385e-05
3.24181e-05
3.22945e-05
3.21676e-05
3.20373e-05
3.1904e-05
3.17674e-05
3.1628e-05
3.14854e-05
3.13411e-05
3.11933e-05
3.1044e-05
3.08908e-05
3.52284e-05
3.51881e-05
3.5147e-05
3.51051e-05
3.50624e-05
3.50187e-05
3.49741e-05
3.49284e-05
3.48815e-05
3.48333e-05
3.4784e-05
3.47331e-05
3.46807e-05
3.46267e-05
3.45713e-05
3.45143e-05
3.44556e-05
3.43949e-05
3.43325e-05
3.4268e-05
3.42014e-05
3.41322e-05
3.40605e-05
3.39863e-05
3.39095e-05
3.38299e-05
3.37474e-05
3.3662e-05
3.35736e-05
3.34822e-05
3.33876e-05
3.32898e-05
3.31887e-05
3.30844e-05
3.29768e-05
3.28658e-05
3.27518e-05
3.26346e-05
3.25141e-05
3.23905e-05
3.22638e-05
3.21337e-05
3.20008e-05
3.18647e-05
3.1726e-05
3.15843e-05
3.14407e-05
3.12941e-05
3.11461e-05
3.09953e-05
3.08435e-05
3.06884e-05
3.52804e-05
3.52373e-05
3.51932e-05
3.51482e-05
3.51022e-05
3.5055e-05
3.50066e-05
3.49571e-05
3.49061e-05
3.48536e-05
3.47997e-05
3.47446e-05
3.46879e-05
3.46294e-05
3.45693e-05
3.45074e-05
3.44436e-05
3.43777e-05
3.43093e-05
3.42387e-05
3.41657e-05
3.40902e-05
3.4012e-05
3.39311e-05
3.38475e-05
3.3761e-05
3.36716e-05
3.35792e-05
3.34837e-05
3.33851e-05
3.32834e-05
3.31785e-05
3.30704e-05
3.29591e-05
3.28449e-05
3.27275e-05
3.2607e-05
3.24834e-05
3.23569e-05
3.22272e-05
3.20947e-05
3.19591e-05
3.18211e-05
3.16802e-05
3.15374e-05
3.13918e-05
3.12448e-05
3.10953e-05
3.09449e-05
3.07924e-05
3.06394e-05
3.04838e-05
3.53202e-05
3.52738e-05
3.52263e-05
3.51777e-05
3.51279e-05
3.50767e-05
3.50242e-05
3.49704e-05
3.49153e-05
3.48587e-05
3.48005e-05
3.47408e-05
3.46794e-05
3.46161e-05
3.45507e-05
3.44831e-05
3.44135e-05
3.43415e-05
3.42671e-05
3.41902e-05
3.41108e-05
3.40287e-05
3.3944e-05
3.38564e-05
3.3766e-05
3.36727e-05
3.35764e-05
3.34771e-05
3.33748e-05
3.32693e-05
3.31608e-05
3.30492e-05
3.29348e-05
3.28172e-05
3.26968e-05
3.25733e-05
3.2447e-05
3.23176e-05
3.21855e-05
3.20505e-05
3.19132e-05
3.17731e-05
3.1631e-05
3.14864e-05
3.13404e-05
3.11921e-05
3.10429e-05
3.08918e-05
3.07403e-05
3.05873e-05
3.04344e-05
3.02795e-05
3.53469e-05
3.52968e-05
3.52454e-05
3.51928e-05
3.5139e-05
3.50839e-05
3.50274e-05
3.49693e-05
3.49099e-05
3.48488e-05
3.47859e-05
3.4721e-05
3.46541e-05
3.45851e-05
3.4514e-05
3.44406e-05
3.43649e-05
3.42867e-05
3.42061e-05
3.41228e-05
3.4037e-05
3.39484e-05
3.38571e-05
3.37628e-05
3.36658e-05
3.35657e-05
3.34628e-05
3.33569e-05
3.3248e-05
3.31361e-05
3.30216e-05
3.29039e-05
3.27835e-05
3.26601e-05
3.25341e-05
3.24049e-05
3.22734e-05
3.21389e-05
3.20022e-05
3.18629e-05
3.17217e-05
3.1578e-05
3.1433e-05
3.12859e-05
3.11377e-05
3.09879e-05
3.08376e-05
3.0686e-05
3.05346e-05
3.03823e-05
3.02308e-05
3.00779e-05
3.53597e-05
3.53059e-05
3.52507e-05
3.51941e-05
3.51362e-05
3.50769e-05
3.50161e-05
3.49534e-05
3.48889e-05
3.48225e-05
3.47541e-05
3.46837e-05
3.46112e-05
3.45364e-05
3.44594e-05
3.43799e-05
3.42981e-05
3.42137e-05
3.41268e-05
3.40372e-05
3.39449e-05
3.38499e-05
3.37521e-05
3.36513e-05
3.35479e-05
3.34415e-05
3.33322e-05
3.32202e-05
3.31055e-05
3.29876e-05
3.28674e-05
3.27441e-05
3.26182e-05
3.24894e-05
3.23583e-05
3.22244e-05
3.20883e-05
3.19499e-05
3.18094e-05
3.16667e-05
3.15227e-05
3.13766e-05
3.12295e-05
3.10809e-05
3.09318e-05
3.07815e-05
3.06313e-05
3.04804e-05
3.03302e-05
3.01799e-05
3.00307e-05
2.9881e-05
3.53594e-05
3.53016e-05
3.52424e-05
3.51816e-05
3.5119e-05
3.50548e-05
3.49888e-05
3.49209e-05
3.48511e-05
3.47792e-05
3.47053e-05
3.46292e-05
3.45509e-05
3.44702e-05
3.43872e-05
3.43017e-05
3.42137e-05
3.41231e-05
3.40299e-05
3.39341e-05
3.38355e-05
3.37342e-05
3.36302e-05
3.35232e-05
3.34137e-05
3.33014e-05
3.31865e-05
3.30687e-05
3.29484e-05
3.28252e-05
3.26996e-05
3.25712e-05
3.24404e-05
3.23071e-05
3.21717e-05
3.20339e-05
3.18942e-05
3.17525e-05
3.16094e-05
3.14644e-05
3.13184e-05
3.11709e-05
3.10229e-05
3.08739e-05
3.07248e-05
3.05752e-05
3.04261e-05
3.02771e-05
3.01292e-05
2.99818e-05
2.98361e-05
2.96906e-05
3.53457e-05
3.52832e-05
3.52192e-05
3.51535e-05
3.5086e-05
3.50166e-05
3.49453e-05
3.48721e-05
3.47967e-05
3.47193e-05
3.46397e-05
3.45578e-05
3.44736e-05
3.4387e-05
3.4298e-05
3.42064e-05
3.41124e-05
3.40157e-05
3.39164e-05
3.38144e-05
3.37098e-05
3.36025e-05
3.34927e-05
3.33801e-05
3.3265e-05
3.31472e-05
3.30269e-05
3.29039e-05
3.27784e-05
3.26503e-05
3.252e-05
3.23872e-05
3.22523e-05
3.21153e-05
3.19764e-05
3.18355e-05
3.16933e-05
3.15494e-05
3.14043e-05
3.1258e-05
3.11111e-05
3.09633e-05
3.08153e-05
3.06669e-05
3.05189e-05
3.03711e-05
3.02242e-05
3.0078e-05
2.99333e-05
2.97899e-05
2.96485e-05
2.95079e-05
3.52496e-05
3.51806e-05
3.51098e-05
3.50371e-05
3.49625e-05
3.48858e-05
3.4807e-05
3.47261e-05
3.4643e-05
3.45577e-05
3.447e-05
3.43799e-05
3.42874e-05
3.41925e-05
3.4095e-05
3.39949e-05
3.38924e-05
3.37872e-05
3.36795e-05
3.35694e-05
3.34566e-05
3.33413e-05
3.32235e-05
3.31031e-05
3.29802e-05
3.28549e-05
3.27272e-05
3.25972e-05
3.24649e-05
3.23306e-05
3.21942e-05
3.2056e-05
3.1916e-05
3.17746e-05
3.16317e-05
3.14876e-05
3.13424e-05
3.11965e-05
3.10498e-05
3.09029e-05
3.07557e-05
3.06087e-05
3.0462e-05
3.03161e-05
3.01709e-05
3.00271e-05
2.98846e-05
2.97441e-05
2.96053e-05
2.9469e-05
2.93341e-05
3.52009e-05
3.51268e-05
3.50507e-05
3.49727e-05
3.48927e-05
3.48105e-05
3.47262e-05
3.46397e-05
3.45509e-05
3.44599e-05
3.43664e-05
3.42705e-05
3.41723e-05
3.40716e-05
3.39683e-05
3.38627e-05
3.37546e-05
3.36441e-05
3.35311e-05
3.34156e-05
3.32977e-05
3.31773e-05
3.30545e-05
3.29294e-05
3.28019e-05
3.26722e-05
3.25405e-05
3.24067e-05
3.22709e-05
3.21334e-05
3.19943e-05
3.18536e-05
3.17116e-05
3.15684e-05
3.14242e-05
3.12793e-05