/*--------------------------------*- C++ -*----------------------------------*\
| =========                 |                                                 |
| \\      /  F ield         | OpenFOAM: The Open Source CFD Toolbox           |
|  \\    /   O peration     | Version:  v1706                                 |
|   \\  /    A nd           | Web:      www.OpenFOAM.com                      |
|    \\/     M anipulation  |                                                 |
\*---------------------------------------------------------------------------*/
FoamFile
{
    version     2.0;
    format      ascii;
    class       volScalarField;
    location    "2e-05";
    object      kappatr;
}
// * * * * * * * * * * * * * * * * * * * * * * * * * * * * * * * * * * * * * //

dimensions      [1 1 -3 -1 0 0 0];


internalField   nonuniform List<scalar> 
30038
(
0.014593
0.014593
0.014593
0.014593
0.014593
0.014593
0.014593
0.014593
0.014593
0.014593
0.014593
0.014593
0.014593
0.014593
0.014593
0.014593
0.014593
0.014593
0.014593
0.014593
0.014593
0.014593
0.014593
0.014593
0.014593
0.014593
0.014593
0.014593
0.014593
0.014593
0.014593
0.014593
0.014593
0.014593
0.014593
0.014593
0.014593
0.014593
0.014593
0.014593
0.014593
0.014593
0.014593
0.014593
0.014593
0.014593
0.014593
0.014593
0.014593
0.014593
0.014593
0.014593
0.014593
0.014593
0.014593
0.014593
0.014593
0.014593
0.014593
0.014593
0.014593
0.014593
0.014593
0.014593
0.014593
0.014593
0.014593
0.014593
0.014593
0.014593
0.014593
0.014593
0.014593
0.014593
0.014593
0.014593
0.014593
0.014593
0.014593
0.014593
0.014593
0.014593
0.014593
0.014593
0.014593
0.014593
0.014593
0.014593
0.014593
0.014593
0.014593
0.014593
0.014593
0.014593
0.014593
0.014593
0.014593
0.014593
0.014593
0.014593
0.014593
0.014593
0.014593
0.014593
0.014593
0.014593
0.014593
0.014593
0.014593
0.014593
0.014593
0.014593
0.014593
0.014593
0.014593
0.014593
0.014593
0.014593
0.014593
0.014593
0.014593
0.014593
0.014593
0.014593
0.014593
0.014593
0.014593
0.014593
0.014593
0.014593
0.014593
0.014593
0.014593
0.014593
0.014593
0.014593
0.014593
0.014593
0.014593
0.014593
0.014593
0.014593
0.014593
0.014593
0.014593
0.014593
0.014593
0.014593
0.014593
0.014593
0.014593
0.014593
0.014593
0.014593
0.014593
0.014593
0.014593
0.014593
0.014593
0.014593
0.014593
0.014593
0.014593
0.014593
0.014593
0.014593
0.014593
0.014593
0.014593
0.014593
0.014593
0.014593
0.014593
0.014593
0.014593
0.014593
0.014593
0.014593
0.014593
0.014593
0.014593
0.014593
0.014593
0.014593
0.014593
0.014593
0.014593
0.014593
0.014593
0.014593
0.014593
0.014593
0.014593
0.014593
0.014593
0.014593
0.014593
0.014593
0.014593
0.014593
0.014593
0.014593
0.014593
0.014593
0.014593
0.014593
0.014593
0.014593
0.014593
0.014593
0.014593
0.014593
0.014593
0.014593
0.014593
0.014593
0.014593
0.014593
0.014593
0.014593
0.014593
0.014593
0.014593
0.014593
0.014593
0.014593
0.014593
0.014593
0.014593
0.014593
0.014593
0.014593
0.014593
0.014593
0.014593
0.014593
0.014593
0.014593
0.014593
0.014593
0.014593
0.014593
0.014593
0.014593
0.014593
0.014593
0.014593
0.014593
0.014593
0.014593
0.014593
0.014593
0.014593
0.014593
0.014593
0.014593
0.014593
0.014593
0.014593
0.014593
0.014593
0.014593
0.014593
0.014593
0.014593
0.014593
0.014593
0.014593
0.014593
0.014593
0.014593
0.014593
0.014593
0.014593
0.014593
0.014593
0.014593
0.014593
0.014593
0.014593
0.014593
0.014593
0.014593
0.014593
0.014593
0.014593
0.014593
0.014593
0.014593
0.014593
0.014593
0.014593
0.014593
0.014593
0.014593
0.014593
0.014593
0.014593
0.014593
0.014593
0.014593
0.014593
0.014593
0.0145931
0.014593
0.014593
0.014593
0.014593
0.014593
0.014593
0.014593
0.014593
0.014593
0.014593
0.014593
0.014593
0.014593
0.014593
0.014593
0.014593
0.014593
0.014593
0.014593
0.014593
0.014593
0.014593
0.014593
0.014593
0.014593
0.014593
0.014593
0.014593
0.014593
0.014593
0.014593
0.014593
0.014593
0.014593
0.0145931
0.0145931
0.0145931
0.0145931
0.0145932
0.014593
0.014593
0.014593
0.014593
0.014593
0.014593
0.014593
0.014593
0.014593
0.014593
0.014593
0.014593
0.014593
0.014593
0.014593
0.014593
0.014593
0.014593
0.014593
0.014593
0.014593
0.014593
0.014593
0.014593
0.014593
0.014593
0.014593
0.014593
0.014593
0.014593
0.0145931
0.0145931
0.0145931
0.0145931
0.0145932
0.0145932
0.0145933
0.0145935
0.0145937
0.014593
0.014593
0.014593
0.014593
0.014593
0.014593
0.014593
0.014593
0.014593
0.014593
0.014593
0.014593
0.014593
0.014593
0.014593
0.014593
0.014593
0.014593
0.014593
0.014593
0.014593
0.014593
0.014593
0.014593
0.014593
0.014593
0.0145931
0.0145931
0.0145931
0.0145931
0.0145932
0.0145932
0.0145933
0.0145934
0.0145936
0.0145938
0.0145941
0.0145946
0.0145952
0.014593
0.014593
0.014593
0.014593
0.014593
0.014593
0.014593
0.014593
0.014593
0.014593
0.014593
0.014593
0.014593
0.014593
0.014593
0.014593
0.014593
0.014593
0.014593
0.014593
0.014593
0.014593
0.014593
0.0145931
0.0145931
0.0145931
0.0145931
0.0145932
0.0145932
0.0145933
0.0145934
0.0145936
0.0145938
0.0145941
0.0145945
0.014595
0.0145958
0.0145968
0.0145982
0.0146003
0.014593
0.014593
0.014593
0.014593
0.014593
0.014593
0.014593
0.014593
0.014593
0.014593
0.014593
0.014593
0.014593
0.014593
0.014593
0.014593
0.014593
0.014593
0.014593
0.0145931
0.0145931
0.0145931
0.0145931
0.0145932
0.0145932
0.0145933
0.0145934
0.0145936
0.0145938
0.014594
0.0145944
0.0145949
0.0145956
0.0145965
0.0145978
0.0145996
0.014602
0.0146053
0.01461
0.0146166
0.014593
0.014593
0.014593
0.014593
0.014593
0.014593
0.014593
0.014593
0.014593
0.014593
0.014593
0.014593
0.014593
0.014593
0.014593
0.0145931
0.0145931
0.0145931
0.0145931
0.0145932
0.0145932
0.0145933
0.0145934
0.0145936
0.0145937
0.014594
0.0145943
0.0145948
0.0145955
0.0145963
0.0145975
0.0145991
0.0146013
0.0146043
0.0146084
0.014614
0.0146216
0.0146321
0.0146466
0.0146672
0.014593
0.014593
0.014593
0.014593
0.014593
0.014593
0.014593
0.014593
0.014593
0.014593
0.014593
0.0145931
0.0145931
0.0145931
0.0145931
0.0145932
0.0145932
0.0145933
0.0145934
0.0145936
0.0145937
0.014594
0.0145943
0.0145948
0.0145954
0.0145962
0.0145973
0.0145988
0.0146009
0.0146036
0.0146074
0.0146124
0.0146193
0.0146287
0.0146414
0.0146586
0.0146822
0.0147143
0.0147584
0.0148199
0.014593
0.014593
0.014593
0.014593
0.014593
0.014593
0.0145931
0.0145931
0.0145931
0.0145931
0.0145931
0.0145932
0.0145932
0.0145933
0.0145934
0.0145936
0.0145937
0.014594
0.0145943
0.0145948
0.0145954
0.0145961
0.0145972
0.0145986
0.0146005
0.0146031
0.0146066
0.0146113
0.0146176
0.0146262
0.0146377
0.0146533
0.0146744
0.0147029
0.0147413
0.0147932
0.0148633
0.0149578
0.0150854
0.0152586
0.014593
0.014593
0.0145931
0.0145931
0.0145931
0.0145931
0.0145932
0.0145932
0.0145933
0.0145933
0.0145934
0.0145936
0.0145938
0.014594
0.0145943
0.0145948
0.0145954
0.0145961
0.0145972
0.0145985
0.0146004
0.0146028
0.0146061
0.0146105
0.0146164
0.0146244
0.014635
0.0146493
0.0146685
0.0146944
0.014729
0.0147756
0.0148379
0.0149214
0.0150327
0.0151806
0.0153762
0.0156333
0.0159688
0.0164031
0.0145931
0.0145931
0.0145932
0.0145932
0.0145933
0.0145934
0.0145935
0.0145936
0.0145938
0.0145941
0.0145944
0.0145948
0.0145954
0.0145962
0.0145972
0.0145985
0.0146003
0.0146027
0.0146059
0.0146101
0.0146157
0.0146232
0.0146331
0.0146465
0.0146642
0.014688
0.0147197
0.0147621
0.0148186
0.0148938
0.0149936
0.0151258
0.0152997
0.0155273
0.0158225
0.0162012
0.0166807
0.0172786
0.0180108
0.0188857
0.0145932
0.0145933
0.0145934
0.0145935
0.0145937
0.0145939
0.0145941
0.0145945
0.0145949
0.0145955
0.0145963
0.0145973
0.0145987
0.0146004
0.0146028
0.0146059
0.0146099
0.0146154
0.0146225
0.014632
0.0146446
0.0146614
0.0146836
0.0147131
0.0147522
0.0148041
0.0148729
0.0149637
0.0150835
0.0152405
0.0154454
0.0157106
0.0160506
0.0164812
0.0170184
0.0176769
0.0184676
0.0193954
0.0204577
0.0216401
0.0229186
0.0145937
0.014594
0.0145942
0.0145946
0.0145951
0.0145957
0.0145965
0.0145975
0.0145989
0.0146007
0.014603
0.0146061
0.0146101
0.0146155
0.0146225
0.0146317
0.0146438
0.0146598
0.014681
0.0147088
0.0147456
0.0147941
0.0148579
0.0149418
0.0150519
0.0151956
0.0153824
0.0156236
0.0159323
0.0163233
0.0168117
0.017412
0.0181365
0.0189919
0.019978
0.021085
0.0222933
0.0235743
0.0248862
0.0261715
0.0273764
0.0145948
0.0145953
0.0145959
0.0145967
0.0145978
0.0145993
0.0146011
0.0146035
0.0146066
0.0146107
0.014616
0.014623
0.0146321
0.014644
0.0146596
0.0146801
0.0147069
0.014742
0.014788
0.0148483
0.0149271
0.0150298
0.0151633
0.015336
0.0155583
0.0158421
0.0162009
0.016649
0.0172007
0.0178683
0.0186607
0.0195805
0.0206224
0.0217717
0.0230056
0.0242914
0.0255821
0.0268178
0.0279365
0.0288945
0.0296703
0.0302892
0.0145971
0.0145983
0.0145998
0.0146017
0.0146042
0.0146074
0.0146116
0.0146171
0.0146241
0.0146333
0.0146452
0.0146607
0.0146809
0.0147071
0.0147413
0.0147858
0.0148437
0.0149189
0.0150164
0.0151424
0.0153047
0.0155125
0.0157769
0.0161102
0.0165259
0.0170376
0.0176574
0.0183953
0.0192562
0.0202376
0.0213297
0.0225137
0.023764
0.0250447
0.0263059
0.0274879
0.0285356
0.0294138
0.0301145
0.0306503
0.0310494
0.0313351
0.0315474
0.0146052
0.0146086
0.014613
0.0146187
0.0146259
0.0146353
0.0146475
0.0146632
0.0146834
0.0147096
0.0147435
0.0147873
0.0148439
0.014917
0.0150112
0.0151321
0.0152871
0.0154844
0.0157344
0.0160484
0.0164388
0.0169186
0.0174997
0.0181918
0.0190015
0.019929
0.0209671
0.0221017
0.0233108
0.0245666
0.0258296
0.027048
0.028165
0.0291343
0.0299322
0.0305592
0.0310339
0.0313818
0.0316312
0.0318061
0.0319291
0.0320133
0.0320762
0.0146209
0.0146286
0.0146384
0.014651
0.0146672
0.0146879
0.0147146
0.0147488
0.0147927
0.0148491
0.0149214
0.015014
0.0151322
0.0152826
0.0154731
0.0157131
0.0160132
0.0163849
0.0168404
0.0173909
0.0180463
0.0188133
0.0196941
0.0206843
0.0217719
0.022939
0.0241621
0.0254107
0.0266416
0.0278031
0.0288439
0.0297281
0.0304431
0.0309974
0.0314124
0.0317141
0.0319284
0.0320783
0.0321814
0.0322525
0.0323015
0.032334
0.0323555
0.0323726
0.014656
0.0146729
0.0146946
0.0147222
0.0147574
0.0148023
0.0148595
0.0149323
0.015025
0.0151425
0.015291
0.015478
0.0157122
0.0160034
0.0163624
0.0168004
0.0173283
0.0179553
0.0186881
0.01953
0.0204786
0.0215244
0.0226516
0.0238397
0.0250639
0.0262904
0.027474
0.0285644
0.0295188
0.0303128
0.0309439
0.0314269
0.0317847
0.0320425
0.0322245
0.0323506
0.0324368
0.0324955
0.0325349
0.0325601
0.0325753
0.0325868
0.0325903
0.032592
0.0325886
0.0147329
0.0147698
0.0148165
0.0148756
0.0149503
0.0150447
0.0151635
0.0153128
0.0154994
0.0157316
0.0160186
0.0163703
0.0167974
0.0173097
0.0179163
0.0186235
0.0194345
0.0203484
0.0213579
0.0224488
0.0236032
0.0247992
0.0260098
0.0271979
0.0283174
0.0293234
0.0301831
0.0308838
0.031432
0.0318462
0.0321499
0.0323668
0.0325187
0.0326229
0.0326934
0.032741
0.0327711
0.0327895
0.0328001
0.0328061
0.0328072
0.0328039
0.0327959
0.032784
0.0327696
0.0327529
0.0148361
0.0148983
0.0149763
0.0150741
0.0151963
0.0153488
0.0155381
0.015772
0.0160591
0.0164089
0.0168309
0.0173346
0.0179281
0.0186173
0.0194054
0.0202919
0.0212712
0.0223311
0.0234542
0.0246213
0.0258099
0.0269902
0.0281216
0.0291606
0.0300703
0.0308297
0.0314368
0.0319046
0.0322537
0.0325069
0.0326862
0.0328104
0.0328947
0.032951
0.0329881
0.0330099
0.0330217
0.0330283
0.0330292
0.0330269
0.0330201
0.0330087
0.0329943
0.0329768
0.0329566
0.032935
0.0329138
0.0328934
0.0152424
0.0154006
0.0155957
0.015835
0.0161265
0.0164791
0.0169018
0.017403
0.0179903
0.018669
0.0194417
0.020308
0.0212631
0.0222967
0.023392
0.0245319
0.0256962
0.0268603
0.0279907
0.0290467
0.0299903
0.0307951
0.0314518
0.0319675
0.0323591
0.0326477
0.0328548
0.033
0.0330993
0.0331656
0.0332091
0.0332359
0.0332506
0.0332565
0.0332589
0.0332559
0.03325
0.0332391
0.0332245
0.0332075
0.0331875
0.0331656
0.0331423
0.0331194
0.0330968
0.0330742
0.0330514
0.0330282
0.0156745
0.0159228
0.0162229
0.0165832
0.0170118
0.0175165
0.0181039
0.0187787
0.0195429
0.0203956
0.0213327
0.0223448
0.0234168
0.0245314
0.0256708
0.0268144
0.0279344
0.0289941
0.0299566
0.0307928
0.0314879
0.0320434
0.0324722
0.0327933
0.0330269
0.0331927
0.0333075
0.0333848
0.0334352
0.0334671
0.0334847
0.0334923
0.0334936
0.0334909
0.0334854
0.0334758
0.0334606
0.0334432
0.0334237
0.0334013
0.0333773
0.0333527
0.0333286
0.0333049
0.0332807
0.0332562
0.0332312
0.0332055
0.033179
0.0331511
0.017164
0.0176777
0.0182711
0.018948
0.0197098
0.0205549
0.0214795
0.0224748
0.023527
0.0246186
0.0257338
0.0268546
0.0279576
0.029011
0.0299797
0.0308337
0.0315552
0.0321407
0.0325996
0.0329482
0.0332056
0.0333905
0.03352
0.0336081
0.033666
0.0337028
0.0337244
0.0337341
0.0337347
0.0337323
0.033726
0.0337165
0.0337027
0.0336843
0.0336644
0.0336424
0.0336178
0.0335918
0.033566
0.0335407
0.0335156
0.0334901
0.0334642
0.033438
0.0334111
0.033383
0.0333538
0.0333231
0.033291
0.0332569
0.019944
0.0207868
0.0217036
0.0226861
0.0237213
0.0247922
0.0258841
0.0269809
0.0280626
0.0291019
0.030066
0.0309258
0.0316615
0.0322667
0.0327473
0.0331173
0.033394
0.0335953
0.0337379
0.0338362
0.0339014
0.033943
0.0339679
0.0339797
0.0339815
0.033978
0.0339721
0.0339625
0.0339484
0.0339307
0.0339097
0.0338874
0.0338628
0.0338363
0.0338088
0.0337818
0.0337553
0.0337287
0.0337018
0.0336747
0.0336473
0.0336191
0.0335899
0.0335596
0.033528
0.0334948
0.0334599
0.033423
0.033384
0.0333424
0.0239989
0.0250507
0.0261197
0.0271916
0.028249
0.0292682
0.030219
0.0310739
0.0318125
0.0324269
0.0329202
0.0333043
0.033595
0.033809
0.0339623
0.0340692
0.0341409
0.034187
0.034215
0.0342295
0.0342325
0.0342287
0.034222
0.0342116
0.0341984
0.0341807
0.0341594
0.0341365
0.0341116
0.0340846
0.0340562
0.0340274
0.0339995
0.0339718
0.0339438
0.0339155
0.0338872
0.0338585
0.0338291
0.0337987
0.0337674
0.0337348
0.0337008
0.0336652
0.0336277
0.0335882
0.0335465
0.0335021
0.0334552
0.033405
0.0285145
0.0295087
0.0304391
0.0312798
0.0320112
0.0326245
0.0331215
0.0335122
0.0338109
0.0340331
0.034194
0.0343073
0.0343843
0.0344343
0.034465
0.0344815
0.0344859
0.0344824
0.0344746
0.0344649
0.034451
0.0344333
0.0344125
0.034388
0.0343631
0.0343361
0.034307
0.0342771
0.0342475
0.0342185
0.0341895
0.0341601
0.0341306
0.0341012
0.0340712
0.0340406
0.0340091
0.0339767
0.0339432
0.0339084
0.033872
0.033834
0.033794
0.033752
0.0337076
0.0336607
0.033611
0.0335582
0.0335025
0.0334426
0.0322578
0.0328607
0.0333526
0.0337423
0.0340428
0.0342684
0.0344333
0.0345506
0.0346313
0.034684
0.0347169
0.034735
0.034741
0.0347377
0.0347298
0.034719
0.0347052
0.0346881
0.0346667
0.0346428
0.0346168
0.0345894
0.0345601
0.0345293
0.0344982
0.034468
0.034438
0.0344077
0.0343771
0.0343466
0.034316
0.0342848
0.034253
0.0342204
0.0341871
0.0341526
0.0341169
0.0340798
0.0340412
0.0340008
0.0339584
0.0339138
0.033867
0.0338175
0.0337652
0.03371
0.0336514
0.0335894
0.0335242
0.0334554
0.0342909
0.034515
0.0346803
0.0347988
0.0348811
0.0349355
0.0349698
0.0349891
0.0349962
0.0349933
0.0349854
0.0349739
0.0349605
0.034943
0.0349218
0.0348975
0.0348713
0.0348439
0.0348142
0.034783
0.034751
0.0347195
0.0346884
0.0346572
0.0346256
0.0345942
0.0345627
0.034531
0.0344987
0.0344658
0.0344322
0.0343979
0.0343625
0.034326
0.0342881
0.0342489
0.034208
0.0341652
0.0341205
0.0340735
0.0340242
0.0339722
0.0339175
0.0338597
0.0337987
0.0337343
0.0336673
0.033597
0.0335229
0.0334443
0.0351332
0.0351879
0.0352227
0.0352426
0.0352503
0.0352478
0.0352401
0.0352284
0.0352145
0.0351973
0.0351764
0.0351519
0.0351259
0.0350978
0.0350682
0.0350366
0.0350041
0.0349716
0.0349397
0.0349077
0.0348754
0.0348429
0.0348106
0.0347782
0.0347454
0.0347121
0.0346782
0.0346438
0.0346085
0.0345722
0.0345349
0.0344964
0.0344565
0.0344151
0.034372
0.034327
0.0342799
0.0342307
0.0341789
0.0341246
0.0340675
0.0340072
0.0339439
0.0338778
0.0338088
0.0337363
0.0336602
0.0335803
0.0334962
0.0334068
0.0355024
0.0355001
0.0354925
0.0354809
0.0354666
0.0354498
0.0354292
0.0354048
0.0353782
0.0353506
0.035321
0.0352894
0.0352564
0.0352232
0.0351906
0.035158
0.0351252
0.0350919
0.0350588
0.0350258
0.0349924
0.0349586
0.0349243
0.0348896
0.0348543
0.0348182
0.0347812
0.0347431
0.0347039
0.0346635
0.0346215
0.0345781
0.0345328
0.0344856
0.0344364
0.0343848
0.0343308
0.0342743
0.0342147
0.0341522
0.034087
0.0340191
0.033948
0.0338735
0.0337955
0.0337137
0.0336277
0.0335372
0.0334425
0.0333423
0.0357159
0.0356995
0.0356791
0.0356548
0.0356283
0.0356007
0.0355716
0.03554
0.0355067
0.0354732
0.0354401
0.0354072
0.0353738
0.03534
0.0353063
0.0352726
0.0352389
0.0352047
0.03517
0.035135
0.0350995
0.0350634
0.0350264
0.0349887
0.03495
0.0349102
0.0348692
0.0348268
0.034783
0.0347374
0.0346901
0.0346409
0.0345895
0.0345357
0.0344796
0.0344207
0.034359
0.0342945
0.0342277
0.0341579
0.0340848
0.0340084
0.0339286
0.0338447
0.0337569
0.0336649
0.0335687
0.033468
0.0333628
0.0332521
0.0358749
0.0358476
0.0358187
0.0357874
0.0357543
0.0357205
0.0356872
0.0356541
0.0356205
0.0355863
0.0355521
0.0355181
0.0354839
0.0354494
0.0354144
0.0353791
0.0353434
0.0353072
0.0352703
0.0352326
0.0351942
0.0351549
0.0351146
0.0350731
0.0350303
0.0349861
0.0349403
0.0348929
0.0348436
0.0347923
0.0347388
0.0346831
0.0346247
0.0345637
0.0345
0.0344341
0.0343655
0.0342937
0.0342189
0.0341407
0.0340589
0.0339733
0.0338837
0.0337902
0.0336925
0.0335906
0.0334844
0.0333737
0.0332586
0.0331382
0.035998
0.0359646
0.0359312
0.035898
0.0358644
0.03583
0.0357955
0.0357612
0.0357269
0.0356921
0.0356568
0.0356212
0.0355854
0.0355491
0.0355122
0.0354746
0.0354364
0.0353974
0.0353575
0.0353166
0.0352746
0.0352315
0.035187
0.035141
0.0350934
0.0350441
0.0349928
0.0349396
0.0348842
0.0348263
0.0347659
0.0347031
0.0346381
0.0345705
0.0344999
0.0344265
0.0343499
0.03427
0.0341863
0.034099
0.0340079
0.0339128
0.0338138
0.0337107
0.0336034
0.0334919
0.0333762
0.0332564
0.0331326
0.0330032
0.0361048
0.0360706
0.0360359
0.0360015
0.035967
0.0359321
0.0358967
0.035861
0.035825
0.0357886
0.0357517
0.0357142
0.0356761
0.0356373
0.0355978
0.0355573
0.035516
0.0354736
0.03543
0.0353852
0.035339
0.0352913
0.0352419
0.0351907
0.0351376
0.0350825
0.0350251
0.0349653
0.0349032
0.0348391
0.0347725
0.034703
0.0346309
0.0345558
0.0344776
0.0343958
0.0343105
0.0342216
0.0341291
0.0340327
0.0339324
0.0338282
0.0337199
0.0336076
0.0334912
0.033371
0.033247
0.0331187
0.0329864
0.0328489
0.0362041
0.0361692
0.0361337
0.0360979
0.0360619
0.0360255
0.0359886
0.035951
0.035913
0.0358744
0.0358351
0.0357951
0.0357542
0.0357123
0.0356695
0.0356256
0.0355805
0.0355341
0.0354862
0.0354368
0.0353856
0.0353327
0.0352779
0.0352208
0.0351616
0.0351002
0.0350369
0.0349712
0.0349028
0.0348319
0.0347582
0.0346815
0.0346014
0.034518
0.0344313
0.034341
0.034247
0.0341494
0.034048
0.0339428
0.0338336
0.0337206
0.0336036
0.033483
0.0333586
0.0332302
0.0330982
0.0329621
0.0328223
0.0326774
0.0362958
0.0362594
0.0362225
0.0361851
0.0361471
0.0361087
0.0360696
0.0360298
0.0359892
0.0359479
0.0359056
0.0358624
0.0358182
0.0357728
0.0357261
0.0356781
0.0356286
0.0355774
0.0355246
0.03547
0.0354132
0.0353545
0.0352938
0.0352312
0.0351663
0.0350989
0.0350291
0.0349567
0.0348814
0.0348029
0.0347213
0.0346365
0.0345484
0.0344567
0.0343616
0.0342628
0.0341604
0.0340542
0.0339443
0.0338306
0.0337132
0.0335922
0.0334675
0.033339
0.033207
0.0330712
0.0329319
0.0327888
0.0326426
0.0324915
0.0364162
0.0363784
0.0363401
0.0363012
0.0362616
0.0362213
0.0361803
0.0361385
0.0360959
0.0360523
0.0360076
0.0359619
0.035915
0.0358668
0.0358171
0.035766
0.0357133
0.0356587
0.0356023
0.035544
0.0354839
0.0354219
0.0353578
0.0352913
0.0352226
0.0351513
0.0350773
0.0350003
0.0349203
0.0348374
0.0347511
0.0346617
0.0345688
0.0344726
0.0343728
0.0342694
0.0341624
0.0340518
0.0339375
0.0338196
0.0336983
0.0335734
0.033445
0.033313
0.0331775
0.0330385
0.0328961
0.0327507
0.0326017
0.0324506
0.0322947
0.0364906
0.0364506
0.0364099
0.0363684
0.0363262
0.0362831
0.0362391
0.0361941
0.0361481
0.0361009
0.0360525
0.0360027
0.0359515
0.0358987
0.0358443
0.035788
0.0357301
0.0356706
0.0356091
0.0355456
0.0354799
0.0354122
0.035342
0.0352691
0.0351934
0.035115
0.0350337
0.0349493
0.0348618
0.0347711
0.0346772
0.0345798
0.0344791
0.0343749
0.0342672
0.034156
0.0340411
0.033923
0.0338014
0.0336763
0.0335479
0.0334161
0.0332807
0.0331422
0.0330003
0.0328555
0.0327075
0.0325575
0.032404
0.0322489
0.0320897
0.0365957
0.0365538
0.0365111
0.0364676
0.0364232
0.0363779
0.0363315
0.036284
0.0362353
0.0361853
0.036134
0.0360811
0.0360267
0.0359706
0.0359131
0.0358539
0.0357929
0.0357299
0.035665
0.035598
0.0355288
0.0354569
0.0353825
0.0353054
0.0352256
0.0351429
0.0350572
0.0349685
0.0348767
0.0347817
0.0346834
0.0345818
0.0344768
0.0343684
0.0342567
0.0341414
0.034023
0.0339012
0.0337761
0.0336476
0.033516
0.0333809
0.0332428
0.0331015
0.0329574
0.0328101
0.032661
0.0325087
0.0323549
0.0321983
0.0320406
0.0318795
0.0366497
0.0366049
0.0365591
0.0365124
0.0364645
0.0364155
0.0363653
0.0363138
0.0362608
0.0362063
0.0361504
0.0360931
0.0360342
0.0359735
0.035911
0.0358467
0.0357804
0.0357119
0.0356409
0.0355676
0.0354918
0.0354133
0.0353321
0.0352481
0.0351612
0.0350713
0.0349785
0.0348824
0.0347833
0.0346808
0.0345752
0.0344662
0.034354
0.0342383
0.0341197
0.0339977
0.0338726
0.0337442
0.0336127
0.033478
0.0333403
0.0331995
0.0330561
0.0329098
0.0327614
0.0326101
0.0324574
0.0323022
0.032146
0.0319875
0.0318286
0.0316669
0.036691
0.0366428
0.0365935
0.036543
0.0364913
0.0364381
0.0363835
0.0363276
0.0362705
0.0362117
0.0361512
0.0360891
0.0360253
0.0359596
0.0358917
0.0358215
0.0357491
0.0356743
0.035597
0.0355172
0.0354347
0.0353494
0.0352614
0.0351704
0.0350766
0.0349796
0.0348796
0.0347764
0.0346701
0.0345605
0.0344478
0.0343319
0.0342131
0.0340909
0.0339659
0.0338375
0.0337063
0.0335719
0.0334347
0.0332945
0.0331518
0.0330062
0.0328587
0.0327085
0.0325568
0.0324027
0.0322477
0.0320907
0.0319334
0.0317744
0.0316156
0.0314547
0.0367188
0.0366667
0.0366133
0.0365586
0.0365028
0.0364456
0.0363869
0.0363265
0.0362648
0.0362013
0.036136
0.0360685
0.0359991
0.0359274
0.0358535
0.0357773
0.0356986
0.0356174
0.0355337
0.0354472
0.035358
0.035266
0.0351711
0.0350732
0.0349725
0.0348685
0.0347616
0.0346515
0.0345384
0.0344222
0.0343032
0.034181
0.0340559
0.0339277
0.0337968
0.0336626
0.0335259
0.0333863
0.0332443
0.0330996
0.0329529
0.0328036
0.032653
0.0325001
0.0323463
0.0321906
0.0320345
0.031877
0.0317197
0.0315615
0.0314041
0.0312453
0.0367321
0.0366762
0.0366189
0.0365601
0.0364999
0.0364383
0.0363751
0.03631
0.0362429
0.036174
0.036103
0.0360298
0.0359545
0.0358768
0.0357968
0.0357143
0.0356293
0.0355416
0.0354513
0.0353582
0.0352624
0.0351637
0.0350621
0.0349574
0.03485
0.0347394
0.0346259
0.0345095
0.0343903
0.034268
0.034143
0.0340149
0.0338841
0.0337504
0.0336142
0.0334751
0.0333337
0.0331899
0.0330439
0.0328957
0.0327461
0.0325944
0.0324416
0.0322872
0.0321323
0.0319762
0.0318201
0.0316634
0.0315074
0.0313512
0.0311963
0.0310408
0.0367317
0.0366717
0.0366102
0.036547
0.0364821
0.0364153
0.0363468
0.0362763
0.0362037
0.0361291
0.0360523
0.0359732
0.0358918
0.035808
0.0357218
0.035633
0.0355416
0.0354475
0.0353507
0.0352511
0.0351487
0.0350434
0.0349354
0.0348243
0.0347105
0.0345939
0.0344745
0.0343522
0.0342272
0.0340992
0.0339687
0.0338353
0.0336995
0.033561
0.0334203
0.0332772
0.0331321
0.0329849
0.0328362
0.0326856
0.0325339
0.0323808
0.0322269
0.0320722
0.0319173
0.0317619
0.031607
0.0314522
0.0312986
0.0311455
0.0309941
0.0308429
0.0367175
0.0366526
0.0365861
0.0365179
0.0364477
0.0363756
0.0363016
0.0362255
0.0361473
0.0360668
0.0359841
0.035899
0.0358116
0.0357216
0.0356291
0.035534
0.0354363
0.0353359
0.0352327
0.0351268
0.0350181
0.0349067
0.0347926
0.0346757
0.0345561
0.0344337
0.0343087
0.0341809
0.0340506
0.0339175
0.0337821
0.0336442
0.0335041
0.0333617
0.0332174
0.0330711
0.0329233
0.0327739
0.0326232
0.0324712
0.0323185
0.032165
0.0320113
0.0318572
0.0317034
0.0315499
0.0313972
0.0312454
0.0310951
0.0309461
0.0307992
0.0306532
0.0366177
0.0365461
0.0364725
0.036397
0.0363194
0.0362398
0.036158
0.0360739
0.0359876
0.0358989
0.0358078
0.0357143
0.0356182
0.0355195
0.0354182
0.0353144
0.0352078
0.0350985
0.0349867
0.0348722
0.0347551
0.0346353
0.0345129
0.0343879
0.0342602
0.03413
0.0339974
0.0338623
0.0337249
0.0335854
0.0334437
0.0333002
0.0331548
0.0330078
0.0328593
0.0327097
0.0325589
0.0324073
0.0322549
0.0321023
0.0319494
0.0317967
0.0316443
0.0314927
0.0313419
0.0311925
0.0310445
0.0308985
0.0307543
0.0306128
0.0304726
0.0365671
0.0364901
0.0364111
0.0363301
0.0362469
0.0361616
0.036074
0.0359841
0.0358919
0.0357973
0.0357002
0.0356006
0.0354986
0.0353939
0.0352867
0.035177
0.0350647
0.0349499
0.0348325
0.0347125
0.03459
0.034465
0.0343374
0.0342074
0.034075
0.0339403
0.0338034
0.0336644
0.0335234
0.0333806
0.033236
0.0330899
0.0329424
0.0327937
0.0326439
0.0324933
0.0323421
0.0321905
0.0320388
0.0318871
0.0317358
0.0315852
0.0314354
0.0312868
0.0311397
0.0309943
0.0308509
0.0307099
0.0305713
0.0304357
0.030302
0.0365009
0.0364185
0.036334
0.0362474
0.0361586
0.0360675
0.0359742
0.0358785
0.0357805
0.03568
0.0355771
0.0354717
0.0353639
0.0352537
0.035141
0.0350258
0.0349081
0.034788
0.0346653
0.0345403
0.0344128
0.0342829
0.0341508
0.0340164
0.03388
0.0337415
0.0336011
0.0334589
0.0333151
0.0331698
0.0330231
0.0328753
0.0327265
0.0325769
0.0324267
0.0322762
0.0321255
0.0319749
0.0318246
0.0316749
0.031526
0.0313783
0.0312319
0.0310872
0.0309444
0.0308038
0.0306657
0.0305303
0.0303978
0.0302685
0.0301417
0.0363315
0.0362415
0.0361493
0.0360549
0.0359582
0.0358592
0.0357579
0.0356542
0.0355482
0.0354398
0.035329
0.0352158
0.0351003
0.0349823
0.034862
0.0347392
0.0346141
0.0344866
0.0343569
0.034225
0.034091
0.0339549
0.0338169
0.033677
0.0335355
0.0333924
0.0332478
0.0331019
0.032955
0.0328071
0.0326584
0.0325091
0.0323595
0.0322098
0.0320601
0.0319108
0.031762
0.031614
0.0314671
0.0313214
0.0311773
0.0310351
0.0308949
0.0307571
0.0306219
0.0304895
0.0303603
0.0302342
0.0301116
0.0299918
0.0362298
0.0361343
0.0360366
0.0359367
0.0358345
0.0357301
0.0356235
0.0355145
0.0354032
0.0352896
0.0351736
0.0350554
0.0349347
0.0348118
0.0346867
0.0345592
0.0344296
0.0342979
0.0341642
0.0340285
0.0338909
0.0337516
0.0336106
0.0334681
0.0333242
0.0331791
0.0330329
0.0328858
0.032738
0.0325896
0.0324409
0.032292
0.0321433
0.0319948
0.0318468
0.0316996
0.0315534
0.0314084
0.031265
0.0311232
0.0309835
0.030846
0.0307109
0.0305786
0.0304492
0.0303229
0.0302
0.0300806
0.0299649
0.0298522
0.036114
0.0360132
0.0359103
0.0358052
0.0356978
0.0355882
0.0354764
0.0353624
0.035246
0.0351274
0.0350066
0.0348835
0.0347583
0.0346309
0.0345014
0.0343698
0.0342364
0.034101
0.0339638
0.0338249
0.0336845
0.0335426
0.0333994
0.0332549
0.0331095
0.0329631
0.0328161
0.0326685
0.0325206
0.0323726
0.0322246
0.0320769
0.0319297
0.0317832
0.0316377
0.0314933
0.0313504
0.0312091
0.0310697
0.0309324
0.0307975
0.0306652
0.0305357
0.0304091
0.0302858
0.0301659
0.0300496
0.029937
0.0298281
0.0297225
0.0359853
0.0358795
0.0357715
0.0356614
0.035549
0.0354345
0.0353177
0.0351988
0.0350778
0.0349545
0.0348292
0.0347018
0.0345724
0.034441
0.0343078
0.0341727
0.0340359
0.0338975
0.0337575
0.0336162
0.0334735
0.0333297
0.0331849
0.0330393
0.032893
0.0327461
0.032599
0.0324516
0.0323044
0.0321574
0.0320109
0.031865
0.0317201
0.0315763
0.0314339
0.031293
0.0311539
0.0310168
0.030882
0.0307497
0.03062
0.0304932
0.0303695
0.030249
0.030132
0.0300186
0.0299089
0.029803
0.0297008
0.0296021
0.0358447
0.0357339
0.035621
0.0355061
0.035389
0.0352697
0.0351484
0.0350251
0.0348997
0.0347723
0.0346429
0.0345117
0.0343786
0.0342439
0.0341074
0.0339694
0.0338299
0.033689
0.0335469
0.0334037
0.0332596
0.0331145
0.0329689
0.0328227
0.0326762
0.0325296
0.032383
0.0322367
0.0320908
0.0319455
0.0318011
0.0316578
0.0315157
0.0313752
0.0312364
0.0310995
0.0309647
0.0308323
0.0307025
0.0305754
0.0304513
0.0303303
0.0302125
0.0300982
0.0299875
0.0298806
0.0297774
0.029678
0.0295826
0.0294904
0.0356927
0.0355773
0.0354598
0.0353403
0.0352188
0.0350953
0.0349698
0.0348424
0.0347131
0.034582
0.0344492
0.0343147
0.0341786
0.0340409
0.0339018
0.0337615
0.0336199
0.0334772
0.0333336
0.0331892
0.0330442
0.0328986
0.0327528
0.0326068
0.0324608
0.032315
0.0321696
0.0320249
0.031881
0.031738
0.0315963
0.0314561
0.0313174
0.0311806
0.0310459
0.0309134
0.0307834
0.030656
0.0305314
0.0304098
0.0302914
0.0301763
0.0300646
0.0299565
0.0298521
0.0297514
0.0296546
0.0295616
0.0294725
0.0293865
0.0355304
0.0354106
0.0352889
0.0351653
0.0350398
0.0349124
0.0347832
0.0346522
0.0345196
0.0343853
0.0342495
0.0341122
0.0339736
0.0338337
0.0336926
0.0335504
0.0334074
0.0332635
0.0331191
0.0329741
0.0328288
0.0326834
0.0325379
0.0323927
0.0322478
0.0321035
0.03196
0.0318174
0.031676
0.0315359
0.0313975
0.0312607
0.0311259
0.0309933
0.030863
0.0307353
0.0306103
0.0304881
0.0303689
0.030253
0.0301403
0.0300311
0.0299255
0.0298235
0.0297252
0.0296306
0.02954
0.029453
0.0293698
0.0292897
0.0352352
0.0351097
0.0349823
0.0348532
0.0347224
0.03459
0.034456
0.0343205
0.0341835
0.0340453
0.0339058
0.0337652
0.0336235
0.033481
0.0333377
0.0331937
0.0330493
0.0329046
0.0327597
0.0326147
0.03247
0.0323256
0.0321817
0.0320385
0.0318962
0.031755
0.0316152
0.0314767
0.03134
0.0312052
0.0310724
0.0309418
0.0308136
0.0306881
0.0305653
0.0304454
0.0303286
0.030215
0.0301047
0.0299978
0.0298944
0.0297947
0.0296986
0.0296062
0.0295175
0.0294326
0.0293514
0.0292737
0.0291991
0.0350523
0.0349233
0.0347927
0.0346604
0.0345267
0.0343915
0.0342549
0.0341171
0.033978
0.0338378
0.0336967
0.0335546
0.0334118
0.0332684
0.0331245
0.0329803
0.0328359
0.0326914
0.0325471
0.0324031
0.0322596
0.0321167
0.0319747
0.0318337
0.031694
0.0315556
0.0314189
0.0312839
0.0311508
0.0310199
0.0308914
0.0307653
0.0306418
0.0305212
0.0304035
0.0302888
0.0301774
0.0300693
0.0299646
0.0298634
0.0297658
0.0296717
0.0295813
0.0294945
0.0294114
0.0293319
0.029256
0.0291835
0.0291138
0.034863
0.034731
0.0345976
0.0344627
0.0343265
0.034189
0.0340504
0.0339107
0.03377
0.0336284
0.0334862
0.0333433
0.0331999
0.0330561
0.0329122
0.0327682
0.0326243
0.0324807
0.0323375
0.032195
0.0320532
0.0319124
0.0317727
0.0316343
0.0314975
0.0313623
0.0312291
0.0310978
0.0309688
0.0308421
0.030718
0.0305965