/*--------------------------------*- C++ -*----------------------------------*\
| =========                 |                                                 |
| \\      /  F ield         | OpenFOAM: The Open Source CFD Toolbox           |
|  \\    /   O peration     | Version:  v1706                                 |
|   \\  /    A nd           | Web:      www.OpenFOAM.com                      |
|    \\/     M anipulation  |                                                 |
\*---------------------------------------------------------------------------*/
FoamFile
{
    version     2.0;
    format      ascii;
    class       volScalarField;
    location    "2e-05";
    object      Mach;
}
// * * * * * * * * * * * * * * * * * * * * * * * * * * * * * * * * * * * * * //

dimensions      [0 0 0 0 0 0 0];


internalField   nonuniform List<scalar> 
30038
(
3.99498
3.99498
3.99498
3.99498
3.99498
3.99498
3.99498
3.99498
3.99498
3.99498
3.99498
3.99498
3.99498
3.99498
3.99498
3.99498
3.99498
3.99498
3.99498
3.99498
3.99498
3.99498
3.99498
3.99498
3.99498
3.99498
3.99498
3.99498
3.99498
3.99498
3.99498
3.99498
3.99498
3.99498
3.99498
3.99498
3.99498
3.99498
3.99498
3.99498
3.99498
3.99498
3.99498
3.99498
3.99498
3.99498
3.99498
3.99498
3.99498
3.99498
3.99498
3.99498
3.99498
3.99498
3.99498
3.99498
3.99498
3.99498
3.99498
3.99498
3.99498
3.99498
3.99498
3.99498
3.99498
3.99498
3.99498
3.99498
3.99498
3.99498
3.99498
3.99498
3.99498
3.99498
3.99498
3.99498
3.99498
3.99498
3.99498
3.99498
3.99498
3.99498
3.99498
3.99498
3.99498
3.99498
3.99498
3.99498
3.99498
3.99498
3.99498
3.99498
3.99498
3.99498
3.99498
3.99498
3.99498
3.99498
3.99498
3.99498
3.99498
3.99498
3.99498
3.99498
3.99498
3.99498
3.99498
3.99498
3.99498
3.99498
3.99498
3.99498
3.99498
3.99498
3.99498
3.99498
3.99498
3.99498
3.99498
3.99498
3.99498
3.99498
3.99498
3.99498
3.99498
3.99498
3.99498
3.99498
3.99498
3.99498
3.99498
3.99498
3.99498
3.99498
3.99498
3.99498
3.99498
3.99498
3.99498
3.99498
3.99498
3.99498
3.99498
3.99498
3.99498
3.99498
3.99498
3.99498
3.99498
3.99498
3.99498
3.99498
3.99498
3.99498
3.99498
3.99498
3.99498
3.99498
3.99498
3.99498
3.99498
3.99498
3.99498
3.99498
3.99498
3.99498
3.99498
3.99498
3.99498
3.99498
3.99498
3.99498
3.99498
3.99498
3.99498
3.99498
3.99498
3.99498
3.99498
3.99498
3.99498
3.99498
3.99498
3.99498
3.99498
3.99498
3.99498
3.99498
3.99498
3.99498
3.99498
3.99498
3.99498
3.99498
3.99498
3.99498
3.99498
3.99498
3.99498
3.99498
3.99498
3.99498
3.99498
3.99498
3.99498
3.99498
3.99498
3.99498
3.99498
3.99498
3.99498
3.99498
3.99498
3.99498
3.99498
3.99498
3.99498
3.99498
3.99498
3.99498
3.99498
3.99498
3.99498
3.99498
3.99498
3.99498
3.99498
3.99498
3.99498
3.99498
3.99498
3.99498
3.99498
3.99498
3.99498
3.99498
3.99498
3.99498
3.99498
3.99498
3.99498
3.99498
3.99498
3.99498
3.99498
3.99498
3.99498
3.99498
3.99498
3.99498
3.99498
3.99498
3.99498
3.99498
3.99498
3.99498
3.99498
3.99498
3.99498
3.99498
3.99498
3.99498
3.99498
3.99498
3.99497
3.99497
3.99498
3.99498
3.99498
3.99498
3.99498
3.99498
3.99498
3.99498
3.99498
3.99498
3.99498
3.99498
3.99498
3.99498
3.99498
3.99498
3.99498
3.99498
3.99498
3.99498
3.99498
3.99498
3.99498
3.99498
3.99498
3.99498
3.99498
3.99498
3.99498
3.99498
3.99498
3.99498
3.99498
3.99497
3.99497
3.99497
3.99497
3.99496
3.99498
3.99498
3.99498
3.99498
3.99498
3.99498
3.99498
3.99498
3.99498
3.99498
3.99498
3.99498
3.99498
3.99498
3.99498
3.99498
3.99498
3.99498
3.99498
3.99498
3.99498
3.99498
3.99498
3.99498
3.99498
3.99498
3.99498
3.99498
3.99498
3.99498
3.99497
3.99497
3.99497
3.99497
3.99497
3.99496
3.99495
3.99494
3.99493
3.99498
3.99498
3.99498
3.99498
3.99498
3.99498
3.99498
3.99498
3.99498
3.99498
3.99498
3.99498
3.99498
3.99498
3.99498
3.99498
3.99498
3.99498
3.99498
3.99498
3.99498
3.99498
3.99498
3.99498
3.99498
3.99498
3.99497
3.99497
3.99497
3.99497
3.99497
3.99496
3.99496
3.99495
3.99494
3.99492
3.9949
3.99486
3.99482
3.99498
3.99498
3.99498
3.99498
3.99498
3.99498
3.99498
3.99498
3.99498
3.99498
3.99498
3.99498
3.99498
3.99498
3.99498
3.99498
3.99498
3.99498
3.99498
3.99498
3.99498
3.99498
3.99497
3.99497
3.99497
3.99497
3.99497
3.99496
3.99496
3.99495
3.99494
3.99492
3.9949
3.99487
3.99483
3.99478
3.9947
3.9946
3.99444
3.99498
3.99498
3.99498
3.99498
3.99498
3.99498
3.99498
3.99498
3.99498
3.99498
3.99498
3.99498
3.99498
3.99498
3.99498
3.99498
3.99498
3.99498
3.99497
3.99497
3.99497
3.99497
3.99497
3.99497
3.99496
3.99496
3.99495
3.99494
3.99492
3.9949
3.99488
3.99484
3.99479
3.99472
3.99463
3.9945
3.99432
3.99407
3.99372
3.99323
3.99498
3.99498
3.99498
3.99498
3.99498
3.99498
3.99498
3.99498
3.99498
3.99498
3.99498
3.99498
3.99498
3.99498
3.99497
3.99497
3.99497
3.99497
3.99497
3.99497
3.99496
3.99496
3.99495
3.99494
3.99492
3.9949
3.99488
3.99484
3.9948
3.99473
3.99464
3.99452
3.99436
3.99413
3.99383
3.99341
3.99283
3.99203
3.99092
3.98935
3.99498
3.99498
3.99498
3.99498
3.99498
3.99498
3.99498
3.99498
3.99498
3.99498
3.99497
3.99497
3.99497
3.99497
3.99497
3.99496
3.99496
3.99495
3.99495
3.99494
3.99492
3.9949
3.99488
3.99485
3.9948
3.99474
3.99465
3.99454
3.99438
3.99418
3.99389
3.9935
3.99298
3.99226
3.99129
3.98996
3.98813
3.98564
3.98217
3.97735
3.99498
3.99498
3.99498
3.99498
3.99498
3.99498
3.99497
3.99497
3.99497
3.99497
3.99497
3.99496
3.99496
3.99495
3.99495
3.99494
3.99492
3.9949
3.99488
3.99484
3.9948
3.99474
3.99466
3.99455
3.9944
3.9942
3.99394
3.99357
3.99309
3.99242
3.99153
3.99031
3.98867
3.98644
3.98341
3.9793
3.97373
3.96616
3.95573
3.94152
3.99498
3.99497
3.99497
3.99497
3.99497
3.99497
3.99497
3.99496
3.99496
3.99495
3.99494
3.99493
3.99492
3.9949
3.99488
3.99484
3.9948
3.99474
3.99466
3.99455
3.99441
3.99422
3.99396
3.99362
3.99316
3.99254
3.9917
3.99058
3.98906
3.98702
3.98426
3.98054
3.97554
3.96879
3.95972
3.94755
3.93122
3.90944
3.88015
3.84159
3.99497
3.99497
3.99497
3.99496
3.99496
3.99495
3.99494
3.99493
3.99492
3.9949
3.99487
3.99484
3.99479
3.99473
3.99465
3.99455
3.99441
3.99422
3.99397
3.99364
3.9932
3.99261
3.99182
3.99076
3.98934
3.98744
3.98489
3.98148
3.9769
3.97077
3.96257
3.95161
3.93702
3.91765
3.89208
3.85857
3.81496
3.7591
3.68762
3.59979
3.99495
3.99495
3.99494
3.99493
3.99491
3.99489
3.99486
3.99483
3.99478
3.99472
3.99464
3.99453
3.99439
3.99421
3.99396
3.99364
3.99321
3.99263
3.99187
3.99086
3.98951
3.98772
3.98533
3.98214
3.9779
3.97224
3.96472
3.95472
3.94146
3.92394
3.90088
3.87074
3.83167
3.78157
3.71822
3.63949
3.54359
3.42983
3.29717
3.151
3.99492
3.9949
3.99488
3.99485
3.99482
3.99477
3.9947
3.99462
3.99451
3.99437
3.99418
3.99393
3.99361
3.99318
3.99262
3.99187
3.99089
3.98958
3.98786
3.98558
3.98256
3.97856
3.97327
3.96626
3.957
3.94478
3.92871
3.90765
3.8802
3.84469
3.79921
3.74166
3.66998
3.58237
3.47769
3.35582
3.21807
3.06679
2.90641
2.73858
2.5753
3.9948
3.99475
3.99468
3.99459
3.99448
3.99433
3.99414
3.99388
3.99355
3.99312
3.99255
3.99181
3.99083
3.98955
3.98787
3.98565
3.98274
3.97891
3.97387
3.96723
3.95852
3.94709
3.93212
3.91261
3.88728
3.85462
3.81287
3.76008
3.69427
3.6136
3.51673
3.40315
3.27352
3.12983
2.97529
2.81387
2.65046
2.49
2.33865
2.19909
2.08
3.99455
3.99443
3.99427
3.99407
3.9938
3.99346
3.99302
3.99244
3.99168
3.9907
3.98941
3.98774
3.98555
3.98269
3.97895
3.97406
3.96767
3.95933
3.94846
3.93431
3.91595
3.89223
3.86178
3.82296
3.77399
3.71298
3.63813
3.54799
3.44177
3.31968
3.18312
3.03471
2.878
2.7171
2.5567
2.40176
2.25735
2.12848
2.01894
1.93146
1.86356
1.81421
3.99398
3.9937
3.99333
3.99287
3.99226
3.99148
3.99047
3.98916
3.98746
3.98525
3.98239
3.97868
3.97385
3.96759
3.95947
3.94894
3.93533
3.91777
3.89521
3.86639
3.8298
3.78378
3.72657
3.65645
3.57193
3.47207
3.35674
3.22688
3.08459
2.93298
2.77566
2.61678
2.46076
2.31225
2.17594
2.05622
1.9564
1.87749
1.8183
1.77559
1.74636
1.72647
1.71335
3.99201
3.99119
3.99013
3.98876
3.98701
3.98475
3.98183
3.97807
3.97322
3.96697
3.95891
3.94854
3.93521
3.91813
3.89632
3.8686
3.83359
3.78975
3.73542
3.66898
3.58897
3.49439
3.38489
3.26109
3.12463
2.97813
2.82501
2.66877
2.51345
2.36317
2.22225
2.09495
1.98509
1.89505
1.82502
1.77309
1.73617
1.71088
1.69428
1.68366
1.67754
1.67449
1.67344
3.98822
3.98637
3.984
3.98097
3.97709
3.97213
3.96577
3.95763
3.94722
3.93395
3.91704
3.89559
3.86849
3.83447
3.79208
3.73978
3.67604
3.59949
3.5091
3.40442
3.28583
3.15465
3.01312
2.86421
2.71136
2.55795
2.40773
2.2645
2.13229
2.01489
1.91543
1.83537
1.77405
1.72915
1.69756
1.67617
1.66222
1.65357
1.64876
1.64665
1.64652
1.64781
1.65036
1.65379
3.97977
3.97569
3.97051
3.96392
3.95555
3.94493
3.93146
3.91443
3.89296
3.86603
3.83244
3.79082
3.73976
3.67781
3.60371
3.51646
3.41558
3.3013
3.1747
3.03772
2.893
2.7437
2.59296
2.44407
2.30041
2.16552
2.04305
1.93633
1.84768
1.7776
1.72475
1.68653
1.65994
1.64213
1.63069
1.62378
1.62022
1.61894
1.61942
1.6213
1.62404
1.62792
1.63095
1.63485
1.63838
3.96134
3.95257
3.94152
3.92762
3.91017
3.88833
3.86113
3.82742
3.78594
3.73537
3.67437
3.60176
3.51665
3.41856
3.30763
3.18482
3.05185
2.91109
2.76534
2.61771
2.47096
2.32817
2.19246
2.0671
1.95535
1.85994
1.78228
1.72201
1.67724
1.64527
1.62331
1.6088
1.59965
1.59438
1.59195
1.59148
1.59251
1.59484
1.59794
1.60166
1.60508
1.60889
1.61269
1.61677
1.62089
1.62489
3.93684
3.92225
3.90406
3.88148
3.85355
3.81921
3.77726
3.72646
3.6656
3.5936
3.50968
3.41342
3.30496
3.18515
3.05556
2.91836
2.7761
2.63162
2.48759
2.34662
2.21148
2.08501
1.97029
1.87009
1.7864
1.71968
1.66883
1.63163
1.60543
1.58768
1.57616
1.56911
1.56534
1.56394
1.56425
1.56586
1.56853
1.57196
1.57558
1.57912
1.58301
1.58704
1.59117
1.59531
1.59945
1.60381
1.60824
1.6125
3.843
3.80749
3.76445
3.71275
3.65127
3.57906
3.49545
3.40013
3.29329
3.17571
3.04887
2.91481
2.77587
2.63459
2.4936
2.35506
2.22149
2.09536
1.97939
1.87627
1.78823
1.71636
1.66026
1.61825
1.588
1.56702
1.55305
1.5442
1.53903
1.53664
1.53619
1.53718
1.53937
1.54231
1.54606
1.54953
1.55327
1.55723
1.56146
1.56561
1.56979
1.574
1.57847
1.58295
1.58737
1.59174
1.59611
1.60036
3.74708
3.69381
3.63098
3.5578
3.4737
3.37854
3.27254
3.15651
3.03186
2.90053
2.76468
2.62661
2.48875
2.35314
2.22187
2.09717
1.98135
1.87697
1.78625
1.71067
1.65039
1.60429
1.57039
1.54639
1.53005
1.51941
1.51291
1.50946
1.50828
1.50869
1.51029
1.51298
1.51629
1.52001
1.52362
1.52759
1.53155
1.53588
1.5401
1.54432
1.54864
1.55319
1.55772
1.56217
1.56664
1.57109
1.57552
1.57988
1.5842
1.58841
3.44406
3.34836
3.24257
3.12751
3.00458
2.87562
2.74266
2.60779
2.47319
2.34083
2.21243
2.08995
1.97544
1.87114
1.77924
1.70139
1.63814
1.58886
1.55194
1.52529
1.50679
1.49447
1.48671
1.48227
1.48036
1.48022
1.48143
1.48368
1.48672
1.49033
1.49403
1.49775
1.50191
1.50608
1.51036
1.51462
1.51891
1.52341
1.528
1.53255
1.53704
1.54158
1.54611
1.5506
1.55506
1.55948
1.56387
1.56821
1.5725
1.57667
2.96704
2.8402
2.71
2.57835
2.44716
2.3183
2.19318
2.07357
1.96124
1.85815
1.76638
1.6876
1.62262
1.57116
1.53197
1.50322
1.4829
1.46912
1.46022
1.45492
1.45231
1.45169
1.4525
1.45434
1.45719
1.4605
1.46436
1.46807
1.47199
1.47629
1.48063
1.4849
1.48922
1.49358
1.4982
1.50284
1.50742
1.51199
1.51659
1.52118
1.52573
1.53026
1.53477
1.53925
1.54369
1.54809
1.55245
1.55676
1.56101
1.56512
2.41102
2.28587
2.16441
2.04817
1.93871
1.83775
1.7472
1.66869
1.60315
1.55055
1.50992
1.47969
1.45801
1.44307
1.43324
1.42721
1.42401
1.42296
1.42343
1.42508
1.42761
1.4308
1.43447
1.43831
1.44218
1.44636
1.45073
1.45513
1.45946
1.46386
1.46834
1.47304
1.47772
1.48234
1.48699
1.49166
1.4963
1.50091
1.50551
1.51009
1.51465
1.51917
1.52367
1.52814
1.53256
1.53693
1.54126
1.54551
1.54971
1.55375
1.9081
1.81
1.72158
1.64437
1.57933
1.52659
1.48539
1.45436
1.43183
1.41609
1.40558
1.39901
1.39537
1.39396
1.39418
1.3956
1.39791
1.40101
1.40449
1.40844
1.41228
1.41636
1.42084
1.42524
1.42963
1.43405
1.43854
1.44321
1.44794
1.45263
1.45729
1.46202
1.46675
1.47145
1.47612
1.48079
1.48544
1.49007
1.49468
1.49926
1.50382
1.50834
1.51282
1.51726
1.52165
1.52599
1.53026
1.53446
1.53858
1.54253
1.55103
1.49906
1.4581
1.42696
1.40412
1.388
1.37711
1.3702
1.36627
1.3646
1.36466
1.36593
1.36813
1.3711
1.37454
1.37835
1.38235
1.38639
1.39069
1.39531
1.39974
1.40417
1.40868
1.41325
1.41807
1.42285
1.42757
1.43232
1.43711
1.44188
1.44662
1.45136
1.45609
1.46081
1.46551
1.47019
1.47486
1.4795
1.48411
1.48869
1.49324
1.49774
1.5022
1.50661
1.51096
1.51524
1.51944
1.52356
1.5276
1.53142
1.37478
1.35869
1.34773
1.3407
1.33666
1.33487
1.33483
1.33604
1.33817
1.34105
1.34447
1.34817
1.35226
1.3563
1.3606
1.36516
1.36983
1.37425
1.37876
1.38339
1.38815
1.39298
1.39777
1.40254
1.40738
1.41223
1.41704
1.42183
1.42663
1.43142
1.4362
1.44097
1.44572
1.45046
1.45518
1.45987
1.46454
1.46919
1.4738
1.47837
1.48289
1.48737
1.49179
1.49615
1.50044
1.50465
1.50876
1.51277
1.51667
1.52035
1.3065
1.30472
1.30469
1.3059
1.30803
1.31086
1.31426
1.31797
1.322
1.32613
1.33043
1.33498
1.33978
1.34424
1.34878
1.35341
1.35817
1.36306
1.36792
1.37274
1.3776
1.38249
1.38737
1.39223
1.39708
1.40194
1.40678
1.41162
1.41644
1.42126
1.42607
1.43086
1.43563
1.44038
1.44511
1.44981
1.45449
1.45912
1.46371
1.46826
1.47275
1.47719
1.48156
1.48585
1.49004
1.49415
1.49814
1.50201
1.50575
1.50928
1.2777
1.28053
1.28396
1.28768
1.29168
1.29589
1.3002
1.30477
1.30951
1.31424
1.31877
1.32343
1.32818
1.3331
1.33801
1.34289
1.34777
1.35271
1.35765
1.36256
1.36746
1.37237
1.37728
1.38217
1.38706
1.39194
1.39682
1.40169
1.40654
1.41139
1.41621
1.42102
1.42581
1.43057
1.4353
1.44
1.44466
1.44927
1.45384
1.45835
1.46279
1.46716
1.47144
1.47563
1.47971
1.48368
1.48754
1.49127
1.49489
1.49824
1.26131
1.26558
1.26992
1.27451
1.27928
1.28411
1.28871
1.29341
1.29818
1.30313
1.30808
1.31301
1.31792
1.3229
1.32789
1.33286
1.3378
1.34275
1.34771
1.35266
1.3576
1.36254
1.36748
1.37241
1.37733
1.38225
1.38715
1.39204
1.39692
1.40178
1.40662
1.41144
1.41623
1.42099
1.42571
1.4304
1.43503
1.43962
1.44413
1.44857
1.45294
1.45721
1.46138
1.46545
1.46942
1.47327
1.47701
1.48058
1.48405
1.48722
1.24905
1.25394
1.2586
1.26335
1.26818
1.27314
1.27814
1.28311
1.28807
1.29309
1.29812
1.30313
1.30812
1.31311
1.31812
1.32312
1.3281
1.33309
1.33807
1.34306
1.34804
1.35301
1.35797
1.36293
1.36789
1.37283
1.37775
1.38267
1.38756
1.39243
1.39728
1.40209
1.40688
1.41163
1.41633
1.42097
1.42556
1.43008
1.43452
1.43887
1.44313
1.44731
1.45138
1.45534
1.45919
1.4629
1.4665
1.46991
1.4732
1.4763
1.23817
1.24317
1.2482
1.25322
1.25823
1.26328
1.26835
1.2734
1.27844
1.28347
1.28852
1.29356
1.29859
1.30361
1.30864
1.31367
1.31869
1.32371
1.32873
1.33374
1.33875
1.34376
1.34875
1.35374
1.35871
1.36367
1.36861
1.37354
1.37843
1.38331
1.38816
1.39296
1.39772
1.40243
1.40708
1.41167
1.41618
1.42061
1.42497
1.42924
1.43341
1.43749
1.44144
1.44528
1.449
1.45255
1.45599
1.45935
1.4626
1.46561
1.22841
1.2335
1.23861
1.24371
1.24878
1.25385
1.25894
1.26401
1.26908
1.27414
1.27921
1.28427
1.28934
1.2944
1.29945
1.30451
1.30957
1.31462
1.31967
1.32471
1.32974
1.33477
1.33979
1.34479
1.34978
1.35475
1.3597
1.36463
1.36953
1.37439
1.3792
1.38397
1.38868
1.39333
1.39791
1.40243
1.40688
1.41124
1.41551
1.41969
1.42376
1.42771
1.43154
1.43524
1.43883
1.44233
1.44573
1.449
1.45215
1.45499
1.21917
1.22428
1.22939
1.23451
1.23961
1.24471
1.24981
1.25491
1.26
1.2651
1.27019
1.27528
1.28037
1.28546
1.29055
1.29564
1.30072
1.3058
1.31087
1.31594
1.32099
1.32604
1.33107
1.33609
1.34109
1.34606
1.351
1.3559
1.36078
1.36559
1.37036
1.37507
1.37973
1.38433
1.38885
1.3933
1.39767
1.40195
1.40612
1.41018
1.41413
1.41796
1.42169
1.42534
1.42888
1.4323
1.43561
1.4387
1.44167
1.44432
1.2102
1.21532
1.22045
1.22558
1.23071
1.23583
1.24096
1.24608
1.2512
1.25633
1.26145
1.26657
1.27169
1.27681
1.28192
1.28703
1.29214
1.29724
1.30233
1.30741
1.31248
1.31754
1.32257
1.32758
1.33257
1.33752
1.34243
1.3473
1.35212
1.3569
1.36162
1.36629
1.37089
1.37543
1.37988
1.38425
1.38852
1.3927
1.39676
1.4007
1.40457
1.40835
1.41204
1.41561
1.41905
1.42231
1.42544
1.42835
1.43118
1.43364
1.19633
1.20148
1.20663
1.21178
1.21694
1.22209
1.22724
1.23238
1.23753
1.24268
1.24783
1.25298
1.25812
1.26326
1.26841
1.27354
1.27867
1.2838
1.28891
1.29402
1.2991
1.30417
1.30922
1.31424
1.31923
1.32418
1.32909
1.33397
1.33881
1.34359
1.34833
1.353
1.35761
1.36214
1.3666
1.37096
1.37524
1.37941
1.38347
1.38747
1.39138
1.3952
1.39891
1.4025
1.40591
1.40919
1.41228
1.41525
1.41798
1.4207
1.423
1.18787
1.19304
1.19821
1.20339
1.20856
1.21373
1.21891
1.22408
1.22925
1.23442
1.23959
1.24476
1.24993
1.25509
1.26025
1.2654
1.27055
1.27568
1.28079
1.28589
1.29096
1.29601
1.30103
1.30602
1.31099
1.31591
1.3208
1.32564
1.33044
1.33517
1.33985
1.34446
1.349
1.35345
1.35782
1.36209
1.36626
1.37039
1.37441
1.37837
1.38221
1.38593
1.38948
1.39291
1.39617
1.3993
1.40221
1.40509
1.40766
1.41022
1.41237
1.17447
1.17967
1.18486
1.19006
1.19525
1.20045
1.20564
1.21084
1.21603
1.22122
1.22641
1.2316
1.23679
1.24198
1.24715
1.25231
1.25746
1.26261
1.26772
1.27282
1.27789
1.28295
1.28798
1.29298
1.29795
1.30289
1.30778
1.31262
1.31742
1.32216
1.32684
1.33144
1.33598
1.34043
1.3448
1.34907
1.35331
1.35745
1.36153
1.36549
1.36934
1.37303
1.37661
1.38001
1.3833
1.38639
1.38942
1.39218
1.39491
1.39733
1.39974
1.40172
1.16651
1.17172
1.17694
1.18215
1.18737
1.19258
1.1978
1.20301
1.20822
1.21343
1.21864
1.22384
1.22903
1.23422
1.23939
1.24454
1.24968
1.2548
1.25991
1.26499
1.27005
1.27509
1.2801
1.28507
1.29001
1.2949
1.29975
1.30454
1.30928
1.31395
1.31856
1.32309
1.32754
1.33191
1.33626
1.3405
1.34469
1.34877
1.35274
1.35655
1.36027
1.36382
1.36726
1.37051
1.3737
1.37664
1.37953
1.38215
1.38472
1.38698
1.38922
1.39104
1.15879
1.16403
1.16926
1.17449
1.17973
1.18496
1.19019
1.19542
1.20064
1.20585
1.21107
1.21626
1.22144
1.22661
1.23177
1.23692
1.24205
1.24716
1.25225
1.25731
1.26235
1.26735
1.27233
1.27726
1.28216
1.287
1.29179
1.29652
1.3012
1.30579
1.31032
1.31479
1.31922
1.32356
1.32786
1.33203
1.33612
1.34006
1.3439
1.34758
1.35117
1.35458
1.35791
1.36102
1.36408
1.36688
1.36962
1.37208
1.37449
1.37659
1.37865
1.38029
1.15131
1.15657
1.16182
1.16707
1.17231
1.17755
1.18279
1.18802
1.19323
1.19844
1.20364
1.20883
1.21401
1.21917
1.22432
1.22945
1.23457
1.23965
1.24472
1.24975
1.25476
1.25973
1.26466
1.26954
1.27439
1.27916
1.28389
1.28854
1.29315
1.2977
1.30222
1.30665
1.31104
1.3153
1.31949
1.32354
1.3275
1.33132
1.33504
1.3386
1.34206
1.34534
1.34855
1.35152
1.35443
1.35708
1.35966
1.36197
1.3642
1.36614
1.368
1.36946
1.14406
1.14932
1.15458
1.15984
1.16508
1.17032
1.17555
1.18077
1.18598
1.19119
1.19638
1.20156
1.20673
1.21188
1.21701
1.22212
1.22721
1.23227
1.23731
1.2423
1.24727
1.25218
1.25707
1.26188
1.26667
1.27137
1.27605
1.28067
1.28526
1.28976
1.29424
1.29859
1.30287
1.30701
1.31109
1.31502
1.31886
1.32256
1.32616
1.32959
1.33294
1.33609
1.33915
1.34199
1.34473
1.34724
1.34965
1.35179
1.35384
1.35559
1.35724
1.35849
1.137
1.14226
1.14752
1.15276
1.15801
1.16324
1.16847
1.17369
1.1789
1.1841
1.18928
1.19444
1.19959
1.20472
1.20983
1.21491
1.21997
1.22499
1.22998
1.23493
1.23984
1.2447
1.24952
1.25427
1.25902
1.26371
1.26835
1.27294
1.27748
1.2819
1.28626
1.2905
1.29466
1.2987
1.30266
1.30649
1.31021
1.31379
1.31727
1.32058
1.32378
1.3268
1.3297
1.3324
1.33498
1.33733
1.33955
1.34152
1.34335
1.34491
1.34632
1.34735
1.1301
1.13536
1.14062
1.14587
1.15111
1.15634
1.16156
1.16677
1.17196
1.17714
1.18231
1.18745
1.19257
1.19767
1.20275
1.20779
1.2128
1.21778
1.22272
1.22761
1.23247
1.23728
1.24207
1.24681
1.25152
1.25617
1.26075
1.26525
1.26968
1.274
1.27825
1.28239
1.28645
1.29038
1.29423
1.29793
1.30154
1.305
1.30834
1.31152
1.31458
1.31746
1.3202
1.32274
1.32514
1.32732
1.32933
1.33111
1.33272
1.33406
1.33522
1.336
1.12863
1.13388
1.13913
1.14436
1.14958
1.15479
1.15998
1.16516
1.17032
1.17545
1.18057
1.18566
1.19072
1.19575
1.20075
1.20571
1.21063
1.21552
1.22039
1.22521
1.23
1.23476
1.23946
1.24409
1.24865
1.25313
1.25754
1.26186
1.26609
1.27023
1.27427
1.27822
1.28204
1.28577
1.28936
1.29284
1.29617
1.29937
1.30241
1.30531
1.30804
1.3106
1.31298
1.31518
1.31717
1.31897
1.32054
1.3219
1.323
1.32389
1.3244
1.12206
1.1273
1.13253
1.13775
1.14296
1.14814
1.15331
1.15846
1.16359
1.16869
1.17377
1.17882
1.18383
1.18881
1.19376
1.1987
1.2036
1.20846
1.2133
1.21809
1.22283
1.2275
1.23211
1.23665
1.24112
1.24551
1.24981
1.25404
1.25817
1.2622
1.26614
1.26997
1.27368
1.27728
1.28075
1.28409
1.28728
1.29033
1.29322
1.29596
1.29851
1.3009
1.30309
1.30508
1.30686
1.30844
1.30977
1.31087
1.3117
1.31229
1.31251
1.11562
1.12084
1.12606
1.13126
1.13644
1.1416
1.14673
1.15185
1.15695
1.162
1.16703
1.17204
1.17703
1.18199
1.18692
1.19183
1.1967
1.20152
1.20629
1.211
1.21565
1.22024
1.22476
1.2292
1.23358
1.23787
1.24208
1.24621
1.25023
1.25416
1.25798
1.26169
1.26528
1.26875
1.27208
1.27527
1.27832
1.28121
1.28394
1.28649
1.28887
1.29105
1.29304
1.29481
1.29636
1.29769
1.29876
1.29959
1.30013
1.3004
1.3003
1.1145
1.11969
1.12486
1.13001
1.13514
1.14023
1.14531
1.15036
1.15541
1.16042
1.1654
1.17037
1.1753
1.1802
1.18504
1.18984
1.19459
1.19927
1.2039
1.20847
1.21297
1.2174
1.22176
1.22604
1.23024
1.23434
1.23836
1.24227
1.24609
1.24979
1.25337
1.25682
1.26015
1.26334
1.26638
1.26926
1.27198
1.27453
1.27689
1.27907
1.28104
1.2828
1.28434
1.28564
1.2867
1.2875
1.28802
1.28826
1.2882
1.28775
1.10825
1.1134
1.11854
1.12365
1.12876
1.13384
1.1389
1.14393
1.14896
1.15394
1.1589
1.16381
1.16867
1.1735
1.17827
1.18299
1.18765
1.19226
1.19681
1.20129
1.2057
1.21004
1.21431
1.21849
1.22258
1.22658
1.23048
1.23428
1.23797
1.24154
1.24498
1.2483
1.25147
1.2545
1.25737
1.26008
1.26262
1.26497
1.26713
1.26909
1.27083
1.27235
1.27364
1.27467
1.27544
1.27594
1.27616
1.27606
1.27565
1.27485
1.10207
1.10722
1.11234
1.11744
1.12253
1.1276
1.13263
1.13764
1.1426
1.14753
1.15241
1.15726
1.16205
1.1668
1.1715
1.17614
1.18073
1.18526
1.18972
1.19411
1.19843
1.20268
1.20684
1.21092
1.2149
1.21878
1.22257
1.22624
1.22979
1.23322
1.23652
1.23968
1.2427
1.24555
1.24825
1.25077
1.2531
1.25525
1.25719
1.25891
1.26041
1.26167
1.26268
1.26343
1.2639
1.26409
1.26397
1.26353
1.26276
1.26159
1.09605
1.10119
1.10629
1.11137
1.11642
1.12143
1.12642
1.13136
1.13626
1.14113
1.14595
1.15072
1.15545
1.16012
1.16475
1.16931
1.17382
1.17826
1.18263
1.18693
1.19115
1.1953
1.19935
1.20331
1.20718
1.21094
1.21459
1.21813
1.22154
1.22482
1.22796
1.23096
1.2338
1.23647
1.23897
1.24129
1.24341
1.24533
1.24703
1.24851
1.24974
1.25073
1.25145
1.2519
1.25206
1.25191
1.25145
1.25066
1.24951
1.24797
1.09017
1.09526
1.10032
1.10535
1.11034
1.1153
1.12022
1.1251
1.12995
1.13475
1.1395
1.14421
1.14886
1.15346
1.158
1.16249
1.1669
1.17125
1.17553
1.17973
1.18385
1.18788
1.19182
1.19567
1.19941
1.20304
1.20655
1.20994
1.2132
1.21632
1.21929
1.22211
1.22476
1.22724
1.22953
1.23163
1.23352
1.2352
1.23665
1.23786
1.23882
1.23952
1.23994
1.24007
1.2399
1.23942
1.2386
1.23745
1.23593
1.23399
1.08432
1.08936
1.09437
1.09935
1.10429
1.10919
1.11406
1.11888
1.12366
1.12839
1.13307
1.1377
1.14228
1.1468
1.15126
1.15566
1.15998
1.16423
1.16841
1.1725
1.17651
1.18043
1.18425
1.18796
1.19157
1.19506
1.19842
1.20165
1.20475
1.20769
1.21048
1.21311
1.21556
1.21783
1.2199
1.22176
1.22341
1.22484
1.22602
1.22695
1.22763
1.22802
1.22813
1.22794
1.22743
1.2266
1.22543
1.22391
1.22202
1.21968
1.0785
1.0835
1.08846
1.09339
1.09827
1.10312
1.10792
1.11268
1.11739
1.12205
1.12666
1.13121
1.13571
1.14014
1.14451
1.14881
1.15304
1.15719
1.16126
1.16524
1.16913
1.17292
1.17661
1.18018
1.18364
1.18698
1.19019
1.19325
1.19617
1.19893
1.20153
1.20395
1.20618
1.20823
1.21006
1.21168
1.21308
1.21423
1.21514
1.21578
1.21615
1.21624
1.21603
1.2155
1.21465
1.21347
1.21194
1.21004
1.20778
1.20506
1.07768
1.08258
1.08745
1.09228
1.09706
1.1018
1.10649
1.11113
1.11572
1.12025
1.12472
1.12913
1.13347
1.13774
1.14195
1.14607
1.15011
1.15406
1.15792
1.16168
1.16534
1.16889
1.17232
1.17562
1.1788
1.18183
1.18472
1.18745
1.19001
1.1924
1.19461
1.19662
1.19842
1.20001
1.20137
1.2025
1.20338
1.20399
1.20434
1.2044
1.20417
1.20363
1.20277
1.20158
1.20004
1.19815
1.19589
1.19325
1.19017
1.07188
1.07674
1.08155
1.08631
1.09103
1.0957
1.10031
1.10488
1.10938
1.11383
1.11821
1.12253
1.12678
1.13095
1.13504
1.13906
1.14298
1.14681
1.15054
1.15417
1.15768
1.16108
1.16435
1.16749
1.17049
1.17334
1.17604
1.17857
1.18092
1.18309
1.18507
1.18684
1.1884
1.18973
1.19083
1.19168
1.19227
1.19259
1.19263
1.19238
1.19182
1.19095
1.18975
1.18822
1.18633
1.18409
1.18147
1.17847
1.17503
1.06612
1.07091
1.07565
1.08035
1.085
1.0896
1.09414
1.09862
1.10304
1.1074
1.11169
1.11591
1.12005
1.12412
1.1281
1.13199
1.13579
1.13949
1.14308
1.14656
1.14993
1.15316
1.15627
1.15923
1.16205
1.16471
1.1672
1.16952
1.17166
1.1736
1.17533
1.17686
1.17816
1.17922
1.18004
1.18061
1.1809
1.18092
1.18065
1.18008
1.1792
1.178
1.17647
1.17459
1.17236
1.16978
1.16681
1.16347
1.15969
1.06509
1.06977
1.0744
1.07897
1.08349
1.08795
1.09235
1.09668
1.10094
1.10513
1.10925
1.11328
1.11723
1.12109
1.12486
1.12852
1.13208
1.13553
1.13886
1.14206
1.14513
1.14806
1.15083
1.15346
1.15591
1.15819
1.16029
1.1622
1.1639
1.16539
1.16665
1.16769
1.16848
1.16902
1.16929
1.16929
1.169
1.16842
1.16753
1.16633
1.1648
1.16294
1.16073
1.15817
1.15525
1.15196
1.14828
1.14417
1.05928
1.06389
1.06844
1.07294
1.07737
1.08175
1.08605
1.09029
1.09445
1.09854
1.10254
1.10646
1.11029
1.11402
1.11765
1.12118
1.12459
1.12788
1.13104
1.13407
1.13696
1.1397
1.14229
1.1447
1.14695
1.14901
1.15088
1.15254
1.154
1.15523
1.15623
1.15699
1.15751
1.15775
1.15773
1.15743
1.15684
1.15595
1.15475
1.15323
1.15138
1.1492
1.14667
1.14378
1.14054
1.13693
1.13295
1.12853
1.058
1.06247
1.06688
1.07123
1.07551
1.07972
1.08386
1.08791
1.09189
1.09578
1.09957
1.10327
1.10687
1.11035
1.11373
1.11698
1.12011
1.1231
1.12595
1.12865
1.1312
1.13358
1.13578
1.13781
1.13964
1.14127
1.14269
1.14389
1.14486
1.14559
1.14608
1.14631
1.14627
1.14595
1.14535
1.14446
1.14326
1.14175
1.13992
1.13776
1.13526
1.13242
1.12923
1.12568
1.12178
1.1175
1.1128
1.05209
1.05648
1.0608
1.06506
1.06924
1.07335
1.07738
1.08132
1.08518
1.08894
1.0926
1.09617
1.09962
1.10296
1.10617
1.10926
1.11222
1.11503
1.11769
1.1202
1.12254
1.1247
1.12669
1.12848
1.13008
1.13146
1.13263
1.13357
1.13428
1.13474
1.13495
1.13489
1.13456
1.13396
1.13306
1.13186
1.13037
1.12855
1.12642
1.12396
1.12116
1.11803
1.11455
1.11071
1.10652
1.10197
1.09701
1.05046
1.05469
1.05884
1.06292
1.06692
1.07084
1.07466
1.07839
1.08202
1.08555
1.08897
1.09227
1.09545
1.0985
1.10142
1.10419
1.10682
1.10928
1.11158
1.11371
1.11566
1.11742
1.11898
1.12033
1.12147
1.12238
1.12306
1.1235
1.12368
1.12361
1.12327
1.12266
1.12176
1.12058
1.11909
1.1173
1.11519
1.11277
1.11002
1.10694
1.10352
1.09976
1.09566
1.09121
1.08641
1.08121
1.04439
1.04852
1.05258
1.05655
1.06043
1.06423
1.06793
1.07152
1.07502
1.0784
1.08167
1.08481
1.08782
1.0907
1.09344
1.09603
1.09845
1.10072
1.10281
1.10472
1.10644
1.10797
1.10929
1.1104
1.11128
1.11194
1.11235
1.11252
1.11244
1.11209
1.11147
1.11057
1.10939
1.10792
1.10615
1.10407
1.10169
1.09898
1.09596
1.09261
1.08893
1.08491
1.08056
1.07587
1.07083
1.06541
1.03827
1.0423
1.04625
1.0501
1.05387
1.05754
1.0611
1.06456
1.06791
1.07114
1.07425
1.07723
1.08007
1.08277
1.08532
1.08772
1.08994
1.092
1.09388
1.09556
1.09706
1.09835
1.09943
1.10028
1.10092
1.10131
1.10146
1.10137
1.10101
1.10039
1.0995
1.09832
1.09687
1.09512
1.09307
1.09072
1.08807
1.0851
1.08181
1.07821
1.07428
1.07003
1.06545
1.06053
1.05528
1.04966
1.0321
1.03602
1.03985
1.04358
1.04722
1.05076
1.05419
1.0575
1.0607
1.06378
1.06672
1.06953
1.07219
1.07471
1.07706
1.07926
1.08128
1.08312
1.08478
1.08624
1.0875
1.08855
1.08939
1.09
1.09038
1.09051
1.09041
1.09004
1.08942
1.08853
1.08737
1.08593
1.0842
1.08219
1.07988
1.07727
1.07436
1.07114
1.06761
1.06377
1.05961
1.05513
1.05034
1.04522
1.03978
1.03399
1.02585
1.02966
1.03337
1.03698
1.04048
1.04388
1.04717
1.05034
1.05338
1.05629
1.05906
1.06169
1.06417
1.0665
1.06866
1.07065
1.07246
1.07409
1.07552
1.07676
1.07778
1.0786
1.07919
1.07955
1.07967
1.07956
1.07919
1.07857
1.07768
1.07653
1.07511
1.07341
1.07143
1.06916
1.0666
1.06374
1.06059
1.05713
1.05337
1.04931
1.04494
1.04026
1.03527
1.02997
1.02436
1.0184
1.01953
1.02322
1.0268
1.03028
1.03365
1.03691
1.04004
1.04305
1.04593
1.04868
1.05128
1.05373
1.05602
1.05815
1.06011
1.06189
1.06349
1.0649
1.06611
1.06711
1.06791
1.06848
1.06883
1.06894
1.06882
1.06845
1.06783
1.06696
1.06582
1.06442
1.06274
1.06079
1.05856
1.05605
1.05324
1.05015
1.04677
1.0431
1.03913
1.03486
1.03029
1.02542
1.02026
1.01479
1.00903
1.00293
1.01313
1.01669
1.02014
1.02348
1.02671
1.02982
1.0328
1.03565
1.03837
1.04094
1.04336
1.04562
1.04772
1.04966
1.05141
1.05299
1.05437
1.05556
1.05655
1.05732
1.05788
1.05822
1.05833
1.0582
1.05783
1.05722
1.05635
1.05523
1.05385
1.0522
1.05028
1.04809
1.04562
1.04288
1.03985
1.03654
1.03294
1.02906
1.02489
1.02043
1.01569
1.01065
1.00532
0.999709
0.993807
0.987583
1.01006
1.01338
1.01658
1.01967
1.02262
1.02545
1.02813
1.03068
1.03307
1.03531
1.03739
1.03929
1.04103
1.04258
1.04394
1.04511
1.04608
1.04684
1.04739
1.04772
1.04782
1.04769
1.04733
1.04672
1.04587
1.04476
1.0434
1.04178
1.03989
1.03774
1.03533
1.03263
1.02967
1.02643
1.02291
1.01912
1.01505
1.01069
1.00606
1.00115
0.995956
0.990487
0.984739
0.978716
0.972384
1.00333
1.00652
1.00957
1.01251
1.01531
1.01797
1.02049
1.02286
1.02507
1.02713
1.02901
1.03073
1.03226
1.03361
1.03476
1.03572
1.03647
1.03701
1.03733
1.03743
1.0373
1.03694
1.03634
1.0355
1.03442
1.03308
1.03149
1.02964
1.02753
1.02516
1.02252
1.01962
1.01645
1.01301
1.0093
1.00532
1.00107
0.996544
0.991752
0.98669
0.981359
0.975761
0.969895
0.963767
0.957341
0.996504
0.999542
1.00245
1.00523
1.00787
1.01037
1.01272
1.01491
1.01695
1.01882
1.02051
1.02203
1.02336
1.0245
1.02545
1.02619
1.02672
1.02705
1.02715
1.02702
1.02667
1.02608
1.02526
1.02419
1.02288
1.02132
1.01951
1.01744
1.01511
1.01253
1.00969
1.00659
1.00322
0.999597
0.995707
0.991555
0.98714
0.982464
0.977526
0.972328
0.966872
0.961159
0.955189
0.948969
0.942463
0.992457
0.995216
0.997839
1.00032
1.00265
1.00483
1.00685
1.0087
1.01038
1.01188
1.01321
1.01434
1.01528
1.01601
1.01654
1.01687
1.01697
1.01685
1.01651
1.01594
1.01513
1.01409
1.0128
1.01127
1.0095
1.00747
1.0052
1.00267
0.99989
0.996854