/*--------------------------------*- C++ -*----------------------------------*\
| =========                 |                                                 |
| \\      /  F ield         | OpenFOAM: The Open Source CFD Toolbox           |
|  \\    /   O peration     | Version:  v1706                                 |
|   \\  /    A nd           | Web:      www.OpenFOAM.com                      |
|    \\/     M anipulation  |                                                 |
\*---------------------------------------------------------------------------*/
FoamFile
{
    version     2.0;
    format      ascii;
    class       volScalarField;
    location    "2e-05";
    object      p;
}
// * * * * * * * * * * * * * * * * * * * * * * * * * * * * * * * * * * * * * //

dimensions      [1 -1 -2 0 0 0 0];


internalField   nonuniform List<scalar> 
30038
(
21.9139
21.9139
21.9139
21.9139
21.9139
21.9139
21.9139
21.9139
21.9139
21.9139
21.9139
21.9139
21.9139
21.9139
21.9139
21.9139
21.9139
21.9139
21.9139
21.9139
21.9139
21.9139
21.9139
21.9139
21.9139
21.9139
21.9139
21.9139
21.9139
21.9139
21.9139
21.9139
21.9139
21.9139
21.9139
21.9139
21.9139
21.9139
21.9139
21.9139
21.9139
21.9139
21.9139
21.9139
21.9139
21.9139
21.9139
21.9139
21.9139
21.9139
21.9139
21.9139
21.9139
21.9139
21.9139
21.9139
21.9139
21.9139
21.9139
21.9139
21.9139
21.9139
21.9139
21.9139
21.9139
21.9139
21.9139
21.9139
21.9139
21.9139
21.9139
21.9139
21.9139
21.9139
21.9139
21.9139
21.9139
21.9139
21.9139
21.9139
21.9139
21.9139
21.9139
21.9139
21.9139
21.9139
21.9139
21.9139
21.9139
21.9139
21.9139
21.9139
21.9139
21.9139
21.9139
21.9139
21.9139
21.9139
21.9139
21.9139
21.9139
21.9139
21.9139
21.9139
21.9139
21.9139
21.9139
21.9139
21.9139
21.9139
21.9139
21.9139
21.9139
21.9139
21.9139
21.9139
21.9139
21.9139
21.9139
21.9139
21.9139
21.9139
21.9139
21.9139
21.9139
21.9139
21.9139
21.9139
21.9139
21.9139
21.9139
21.9139
21.9139
21.9139
21.9139
21.9139
21.9139
21.9139
21.9139
21.9139
21.9139
21.9139
21.9139
21.9139
21.9139
21.9139
21.9139
21.9139
21.9139
21.9139
21.9139
21.9139
21.9139
21.9139
21.9139
21.9139
21.9139
21.9139
21.9139
21.9139
21.9139
21.9139
21.9139
21.9139
21.9139
21.9139
21.9139
21.9139
21.9139
21.9139
21.9139
21.9139
21.9139
21.9139
21.9139
21.9139
21.9139
21.9139
21.9139
21.9139
21.9139
21.9139
21.9139
21.9139
21.9139
21.9139
21.9139
21.9139
21.9139
21.9139
21.9139
21.9139
21.9139
21.9139
21.9139
21.9139
21.9139
21.9139
21.9139
21.9139
21.9139
21.9139
21.9139
21.9139
21.9139
21.9139
21.9139
21.9139
21.9139
21.9139
21.9139
21.9139
21.9139
21.9139
21.9139
21.9139
21.9139
21.9139
21.9139
21.9139
21.9139
21.9139
21.9139
21.9139
21.9139
21.9139
21.9139
21.9139
21.9139
21.9139
21.9139
21.9139
21.9139
21.9139
21.9139
21.9139
21.9139
21.9139
21.9139
21.9139
21.9139
21.9139
21.9139
21.9139
21.9139
21.9139
21.9139
21.9139
21.9139
21.9139
21.9139
21.9139
21.9139
21.9139
21.9139
21.9139
21.9139
21.9139
21.9139
21.9139
21.9139
21.9139
21.9139
21.9139
21.9139
21.9139
21.9139
21.9139
21.9139
21.9139
21.9139
21.9139
21.9139
21.9139
21.9139
21.9139
21.9139
21.9139
21.9139
21.9139
21.9139
21.9139
21.9139
21.9139
21.9139
21.9139
21.9139
21.9139
21.9139
21.9139
21.9139
21.9139
21.9139
21.9139
21.9139
21.9139
21.9139
21.9139
21.9139
21.9139
21.914
21.914
21.914
21.914
21.9139
21.9139
21.9139
21.9139
21.9139
21.9139
21.9139
21.9139
21.9139
21.9139
21.9139
21.9139
21.9139
21.9139
21.9139
21.9139
21.9139
21.9139
21.9139
21.9139
21.9139
21.9139
21.9139
21.9139
21.9139
21.9139
21.9139
21.9139
21.9139
21.9139
21.9139
21.9139
21.914
21.914
21.914
21.9141
21.9141
21.9142
21.9144
21.9139
21.9139
21.9139
21.9139
21.9139
21.9139
21.9139
21.9139
21.9139
21.9139
21.9139
21.9139
21.9139
21.9139
21.9139
21.9139
21.9139
21.9139
21.9139
21.9139
21.9139
21.9139
21.9139
21.9139
21.9139
21.9139
21.9139
21.9139
21.914
21.914
21.914
21.9141
21.9141
21.9142
21.9143
21.9145
21.9148
21.9151
21.9156
21.9139
21.9139
21.9139
21.9139
21.9139
21.9139
21.9139
21.9139
21.9139
21.9139
21.9139
21.9139
21.9139
21.9139
21.9139
21.9139
21.9139
21.9139
21.9139
21.9139
21.9139
21.9139
21.9139
21.9139
21.914
21.914
21.914
21.9141
21.9141
21.9142
21.9143
21.9145
21.9147
21.915
21.9154
21.916
21.9168
21.9179
21.9196
21.9139
21.9139
21.9139
21.9139
21.9139
21.9139
21.9139
21.9139
21.9139
21.9139
21.9139
21.9139
21.9139
21.9139
21.9139
21.9139
21.9139
21.9139
21.9139
21.9139
21.9139
21.914
21.914
21.914
21.9141
21.9141
21.9142
21.9143
21.9145
21.9147
21.915
21.9153
21.9159
21.9166
21.9176
21.919
21.9209
21.9235
21.9272
21.9325
21.9139
21.9139
21.9139
21.9139
21.9139
21.9139
21.9139
21.9139
21.9139
21.9139
21.9139
21.9139
21.9139
21.9139
21.9139
21.9139
21.914
21.914
21.914
21.914
21.9141
21.9141
21.9142
21.9143
21.9145
21.9147
21.9149
21.9153
21.9158
21.9165
21.9174
21.9187
21.9204
21.9228
21.926
21.9305
21.9366
21.945
21.9568
21.9739
21.9139
21.9139
21.9139
21.9139
21.9139
21.9139
21.9139
21.9139
21.9139
21.9139
21.9139
21.9139
21.914
21.914
21.914
21.914
21.9141
21.9141
21.9142
21.9143
21.9145
21.9147
21.9149
21.9153
21.9158
21.9164
21.9173
21.9185
21.9201
21.9223
21.9253
21.9294
21.9349
21.9425
21.9528
21.967
21.9863
22.013
22.0498
22.1027
21.9139
21.9139
21.9139
21.9139
21.9139
21.9139
21.9139
21.9139
21.914
21.914
21.914
21.914
21.9141
21.9141
21.9142
21.9143
21.9145
21.9147
21.9149
21.9153
21.9157
21.9164
21.9172
21.9183
21.9199
21.922
21.9248
21.9286
21.9337
21.9407
21.9501
21.963
21.9804
22.0041
22.0363
22.0803
22.1402
22.2222
22.3347
22.4946
21.9139
21.9139
21.9139
21.9139
21.914
21.914
21.914
21.914
21.9141
21.9142
21.9142
21.9144
21.9145
21.9147
21.915
21.9153
21.9158
21.9164
21.9172
21.9183
21.9198
21.9218
21.9244
21.928
21.9329
21.9394
21.9482
21.96
21.976
21.9976
22.0268
22.0664
22.1199
22.1924
22.2905
22.4236
22.6039
22.8488
23.1809
23.6456
21.914
21.914
21.914
21.9141
21.9141
21.9142
21.9143
21.9144
21.9145
21.9147
21.915
21.9153
21.9158
21.9164
21.9172
21.9183
21.9198
21.9217
21.9243
21.9278
21.9324
21.9385
21.9468
21.9579
21.9728
21.9928
22.0197
22.0559
22.1045
22.1701
22.2583
22.3771
22.5371
22.7523
23.0416
23.4301
23.9504
24.648
25.5744
26.8382
21.9141
21.9142
21.9143
21.9144
21.9146
21.9148
21.9151
21.9154
21.9159
21.9165
21.9174
21.9185
21.9199
21.9218
21.9244
21.9277
21.9322
21.9382
21.9461
21.9567
21.9708
21.9896
22.0147
22.0483
22.0932
22.1533
22.2338
22.3416
22.4859
22.679
22.9373
23.282
23.7415
24.3521
25.1608
26.2262
27.622
29.4436
31.7959
34.9002
21.9145
21.9147
21.9149
21.9152
21.9155
21.916
21.9167
21.9176
21.9187
21.9201
21.9221
21.9246
21.928
21.9324
21.9383
21.946
21.9562
21.9698
21.9878
22.0117
22.0434
22.0855
22.1416
22.2162
22.3155
22.4476
22.6235
22.8573
23.168
23.5799
24.125
24.8438
25.7876
27.0198
28.618
30.6787
33.318
36.6621
40.8814
46.0897
53.0411
21.9157
21.9162
21.9169
21.9178
21.919
21.9205
21.9225
21.9251
21.9285
21.933
21.9388
21.9465
21.9566
21.9699
21.9875
22.0105
22.041
22.0812
22.1344
22.2047
22.2976
22.4206
22.5833
22.7984
23.0826
23.4574
23.9508
24.5986
25.446
26.5487
27.9749
29.8078
32.1489
35.1163
38.8404
43.4641
49.1974
56.3733
65.5231
76.9214
92.1114
21.9182
21.9195
21.9211
21.9232
21.9259
21.9294
21.934
21.94
21.9477
21.9579
21.9712
21.9885
22.0113
22.0411
22.0802
22.1315
22.199
22.2875
22.404
22.557
22.7582
23.0224
23.3688
23.8224
24.4149
25.1864
26.1865
27.4757
29.1267
31.2283
33.8873
37.2242
41.3665
46.4651
52.7593
60.6385
70.5978
83.0683
98.1143
115.484
133.728
153.502
21.9241
21.9269
21.9307
21.9355
21.9417
21.9497
21.9601
21.9736
21.9912
22.014
22.0437
22.0825
22.1329
22.1988
22.2848
22.397
22.5436
22.735
22.9849
23.3106
23.7345
24.2851
24.9982
25.9185
27.1001
28.6079
30.519
32.9286
35.9472
39.6958
44.2988
49.9234
56.855
65.5318
76.4454
89.9236
105.895
123.757
142.492
160.733
177.577
191.58
203.675
21.9441
21.9525
21.9634
21.9774
21.9955
22.0189
22.0491
22.0882
22.1388
22.2043
22.2893
22.3996
22.5425
22.728
22.9686
23.2802
23.6832
24.2035
24.8737
25.7339
26.8332
28.2299
29.9934
32.2058
34.9679
38.3924
42.5975
47.7094
53.9253
61.5887
71.1752
83.1365
97.661
114.481
132.826
151.553
169.433
185.377
198.767
209.284
217.246
222.71
226.544
21.9828
22.0018
22.0262
22.0575
22.0977
22.1494
22.2159
22.3015
22.4118
22.5539
22.737
22.9728
23.2763
23.6664
24.1668
24.8073
25.6246
26.6636
27.9775
29.6287
31.6902
34.2512
37.4163
41.298
46.0078
51.6856
58.5795
67.0946
77.7159
90.8061
106.372
123.94
142.587
161.128
178.391
193.469
205.851
215.487
222.551
227.446
230.652
232.49
233.404
233.642
22.0694
22.1115
22.1653
22.2341
22.322
22.4345
22.5783
22.7624
22.9979
23.299
23.6834
24.1733
24.7961
25.586
26.5842
27.8397
29.4094
31.3597
33.7683
36.7312
40.355
44.7479
50.0166
56.3357
64.0227
73.5345
85.3183
99.589
116.14
134.297
153.027
171.15
187.609
201.664
213.004
221.666
227.921
232.19
234.887
236.395
237.02
237.131
236.912
236.613
236.017
22.26
22.3519
22.4687
22.6171
22.8056
23.0451
23.3493
23.7349
24.223
24.8394
25.616
26.591
27.8101
29.326
31.1989
33.4991
36.3117
39.737
43.8788
48.8361
54.731
61.7985
70.4302
81.0991
94.1521
109.601
127.011
145.538
164.088
181.548
197.008
209.922
220.151
227.83
233.268
236.931
239.159
240.303
240.743
240.661
240.421
240.018
239.334
238.415
237.321
235.919
22.5164
22.6722
22.8687
23.1167
23.4295
23.8232
24.3182
24.9388
25.7152
26.6836
27.8867
29.3734
31.1995
33.429
36.1374
39.4181
43.371
48.093
53.6747
60.288
68.2526
78.0169
89.9996
104.375
120.917
138.978
157.596
175.673
192.215
206.498
218.171
227.244
233.935
238.584
241.642
243.431
244.244
244.467
244.29
243.977
243.473
242.703
241.723
240.524
239.124
237.531
235.888
234.093
23.5434
23.9524
24.4628
25.0982
25.8873
26.8647
28.0708
29.5516
31.3588
33.5515
36.1976
39.3827
43.2027
47.7504
53.1084
59.3975
66.8711
75.9302
87.0251
100.436
116.102
133.552
151.97
170.341
187.634
203.014
215.968
226.334
234.236
239.94
243.844
246.306
247.672
248.207
248.216
247.99
247.602
246.972
246.102
245.056
243.786
242.348
240.715
239.016
237.319
235.62
233.975
232.214
24.6632
25.3241
26.139
27.1409
28.3685
29.8653
31.6798
33.8664
36.4879
39.6217
43.3597
47.7917
52.9984
59.0631
66.187
74.7232
85.1147
97.7082
112.565
129.363
147.425
165.833
183.584
199.783
213.787
225.3
234.324
241.062
245.818
249.005
250.927
251.858
252.167
251.999
251.716
251.272
250.498
249.543
248.428
247.093
245.604
243.947
242.243
240.548
238.849
237.156
235.485
233.819
232.214
230.503
28.7897
30.3242
32.171
34.3806
37.0116
40.1347
43.838
48.2085
53.323
59.2459
66.1354
74.3005
84.1601
96.1017
110.267
126.447
144.083
162.357
180.326
197.077
211.895
224.364
234.373
242.055
247.655
251.53
254.031
255.454
256.004
256.087
255.844
255.465
254.914
254.042
253.011
251.821
250.435
248.882
247.217
245.519
243.833
242.132
240.434
238.752
237.087
235.434
233.797
232.16
230.576
228.895
37.7794
40.9298
44.6424
49.0013
54.0782
59.9289
66.6768
74.5958
84.0813
95.5347
109.148
124.792
142
160.046
178.056
195.135
210.53
223.741
234.575
243.071
249.443
253.98
257.037
258.903
259.828
260.107
259.985
259.715
259.229
258.537
257.568
256.476
255.215
253.797
252.189
250.518
248.834
247.151
245.454
243.757
242.076
240.405
238.743
237.091
235.449
233.816
232.199
230.58
229.012
227.354
55.2717
61.1104
67.7925
75.5701
84.8201
95.94
109.149
124.367
141.192
158.974
176.904
194.131
209.889
223.636
235.103
244.27
251.294
256.424
259.987
262.291
263.577
264.083
264.145
263.881
263.532
262.967
262.116
261.097
259.936
258.606
257.137
255.506
253.839
252.175
250.491
248.8
247.11
245.434
243.763
242.097
240.438
238.787
237.144
235.508
233.881
232.262
230.66
229.057
227.505
225.87
86.3453
97.2752
110.228
125.142
141.656
159.173
176.952
194.185
210.124
224.205
236.114
245.783
253.322
258.951
262.957
265.645
267.257
268.025
268.221
268.093
267.799
267.308
266.632
265.625
264.564
263.356
261.98
260.44
258.814
257.163
255.52
253.84
252.155
250.478
248.809
247.143
245.478
243.818
242.163
240.513
238.869
237.23
235.598
233.974
232.361
230.756
229.17
227.585
226.052
224.445
143.38
160.657
178.241
195.374
211.336
225.566
237.731
247.729
255.635
261.644
266.004
269.007
270.907
271.906
272.267
272.241
271.983
271.619
271.004
270.175
269.131
267.989
266.711
265.296
263.712
262.098
260.476
258.839
257.175
255.505
253.844
252.184
250.525
248.867
247.212
245.559
243.908
242.26
240.615
238.975
237.34
235.712
234.093
232.482
230.884
229.296
227.73
226.169
224.66
223.086
213.586
227.798
240.039
250.194
258.312
264.57
269.18
272.425
274.549
275.752
276.256
276.328
276.149
275.838
275.322
274.562
273.589
272.537
271.339
270.005
268.515
266.941
265.348
263.757
262.121
260.474
258.827
257.188
255.543
253.894
252.246
250.599
248.954
247.307
245.661
244.017
242.374
240.734
239.099
237.469
235.846
234.231
232.625
231.032
229.454
227.89
226.349
224.811
223.319
221.766
261.41
267.78
272.532
275.932
278.212
279.565
280.186
280.349
280.237
279.979
279.54
278.856
277.978
276.948
275.834
274.568
273.192
271.666
270.113
268.551
266.97
265.354
263.727
262.108
260.486
258.86
257.229
255.597
253.964
252.328
250.691
249.052
247.413
245.774
244.136
242.499
240.865
239.235
237.611
235.994
234.386
232.788
231.204
229.634
228.077
226.53
225.005
223.483
222.009
220.484
281.915
283.364
284.065
284.294
284.245
284.028
283.654
283.047
282.202
281.25
280.194
279.008
277.694
276.235
274.738
273.214
271.687
270.106
268.512
266.917
265.328
263.728
262.12
260.51
258.898
257.283
255.664
254.04
252.414
250.785
249.155
247.523
245.891
244.26
242.63
241.003
239.381
237.764
236.155
234.557
232.969
231.392
229.824
228.268
226.726
225.195
223.69
222.194
220.749
219.262
288.165
287.989
287.665
287.107
286.32
285.39
284.407
283.296
282.035
280.649
279.194
277.727
276.235
274.708
273.156
271.594
270.035
268.467
266.891
265.309
263.725
262.135
260.54
258.94
257.335
255.726
254.113
252.496
250.876
249.254
247.631
246.007
244.384
242.763
241.146
239.532
237.927
236.329
234.739
233.156
231.582
230.018
228.464
226.924
225.405
223.902
222.426
220.961
219.546
218.093
290.3
289.399
288.47
287.417
286.223
284.892
283.483
282.065
280.623
279.147
277.63
276.108
274.583
273.057
271.518
269.968
268.413
266.855
265.291
263.72
262.143
260.56
258.971
257.377
255.778
254.175
252.568
250.958
249.346
247.733
246.119
244.507
242.897
241.291
239.69
238.095
236.504
234.919
233.341
231.77
230.21
228.664
227.137
225.624
224.132
222.659
221.211
219.777
218.399
216.958
290.238
288.976
287.604
286.228
284.835
283.413
281.935
280.45
278.966
277.481
275.977
274.464
272.944
271.423
269.894
268.356
266.81
265.258
263.701
262.136
260.564
258.987
257.404
255.816
254.224
252.629
251.03
249.429
247.828
246.226
244.627
243.031
241.437
239.845
238.255
236.672
235.092
233.519
231.957
230.409
228.875
227.354
225.852
224.369
222.903
221.462
220.048
218.62
217.264
215.852
288.876
287.506
286.066
284.62
283.176
281.733
280.268
278.791
277.31
275.825
274.332
272.83
271.32
269.804
268.28
266.748
265.209
263.663
262.11
260.551
258.985
257.414
255.839
254.259
252.675
251.09
249.503
247.916
246.329
244.743
243.156
241.57
239.987
238.405
236.828
235.258
233.698
232.148
230.611
229.084
227.577
226.083
224.607
223.156
221.719
220.285
218.895
217.487
216.15
214.786
287.221
285.815
284.39
282.952
281.507
280.06
278.605
277.14
275.667
274.185
272.697
271.202
269.697
268.185
266.666
265.139
263.605
262.065
260.518
258.965
257.408
255.845
254.279
252.71
251.14
249.569
247.995
246.419
244.842
243.265
241.689
240.113
238.542
236.979
235.422
233.875
232.336
230.808
229.297
227.796
226.314
224.853
223.4
221.958
220.545
219.129
217.762
216.396
215.106
213.78
285.546
284.133
282.716
281.288
279.851
278.406
276.954
275.495
274.026
272.549
271.065
269.573
268.073
266.566
265.051
263.53
262.002
260.469
258.929
257.386
255.839
254.289
252.736
251.179
249.618
248.055
246.49
244.923
243.355
241.79
240.23
238.675
237.123
235.58
234.044
232.517
231.005
229.499
228.015
226.547
225.082
223.632
222.203
220.775
219.391
218.016
216.696
215.361
214.104
212.809
285.286
283.885
282.475
281.058
279.634
278.201
276.759
275.31
273.853
272.388
270.914
269.433
267.945
266.45
264.948
263.44
261.926
260.406
258.882
257.355
255.823
254.285
252.743
251.197
249.648
248.095
246.54
244.986
243.435
241.886
240.339
238.796
237.26
235.728
234.205
232.694
231.187
229.704
228.23
226.758
225.302
223.861
222.423
221.026
219.638
218.298
216.953
215.667
214.359
213.131
211.868
283.635
282.235
280.828
279.412
277.988
276.557
275.117
273.67
272.215
270.753
269.283
267.807
266.323
264.834
263.34
261.84
260.336
258.826
257.309
255.788
254.262
252.732
251.196
249.657
248.119
246.581
245.042
243.505
241.969
240.437
238.908
237.382
235.867
234.359
232.854
231.374
229.895
228.421
226.961
225.51
224.064
222.66
221.26
219.906
218.546
217.24
215.919
214.665
213.386
212.188
210.954
283.389
281.998
280.598
279.19
277.775
276.352
274.921
273.483
272.038
270.586
269.128
267.663
266.193
264.718
263.238
261.749
260.254
258.754
257.249
255.739
254.222
252.702
251.182
249.66
248.135
246.611
245.087
243.562
242.043
240.522
239.006
237.498
235.995
234.496
233.021
231.538
230.066
228.602
227.147
225.695
224.286
222.876
221.51
220.138
218.817
217.481
216.204
214.913
213.69
212.438
211.272
210.067
281.768
280.375
278.975
277.567
276.151
274.729
273.3
271.864
270.423
268.975
267.524
266.064
264.597
263.124
261.647
260.162
258.672
257.175
255.676
254.174
252.671
251.161
249.654
248.143
246.633
245.12
243.613
242.1
240.598
239.096
237.6
236.111
234.64
233.154
231.69
230.22
228.764
227.311
225.898
224.48
223.108
221.724
220.39
219.042
217.75
216.442
215.195
213.932
212.74
211.517
210.381
209.205
280.165
278.771
277.37
275.962
274.547
273.127
271.702
270.27
268.831
267.383
265.933
264.474
263.01
261.538
260.064
258.582
257.103
255.614
254.126
252.631
251.14
249.64
248.146
246.643
245.15
243.646
242.157
240.662
239.178
237.694
236.23
234.745
233.286
231.813
230.362
228.905
227.492
226.071
224.692
223.299
221.956
220.597
219.289
217.97
216.705
215.426
214.211
212.976
211.813
210.621
209.514
208.366
278.587
277.192
275.792
274.385
272.972
271.551
270.124
268.69
267.252
265.804
264.352
262.896
261.437
259.971
258.504
257.028
255.557
254.074
252.597
251.109
249.627
248.138
246.657
245.16
243.689
242.199
240.724
239.253
237.793
236.306
234.858
233.384
231.933
230.481
229.069
227.641
226.257
224.863
223.508
222.14
220.822
219.492
218.21
216.92
215.684
214.436
213.248
212.045
210.909
209.748
208.667
207.547
277.042
275.645
274.241
272.831
271.415
269.992
268.562
267.127
265.689
264.246
262.798
261.345
259.89
258.429
256.967
255.499
254.033
252.556
251.088
249.61
248.134
246.658
245.193
243.706
242.251
240.786
239.32
237.851
236.404
234.926
233.484
232.038
230.618
229.196
227.809
226.407
225.044
223.676
222.344
221.003
219.709
218.41
217.153
215.895
214.685
213.469
212.307
211.135
210.026
208.896
207.841
206.748
275.521
274.12
272.711
271.297
269.878
268.455
267.027
265.594
264.157
262.716
261.271
259.821
258.369
256.914
255.454
253.992
252.533
251.062
249.599
248.137
246.671
245.203
243.756
242.292
240.833
239.374
237.919
236.455
235.014
233.569
232.153
230.735
229.336
227.938
226.569
225.193
223.85
222.509
221.199
219.89
218.618
217.35
216.119
214.891
213.707
212.523
211.386
210.247
209.161
208.062
207.032
205.967
274.026
272.621
271.211
269.796
268.376
266.952
265.524
264.092
262.654
261.215
259.772
258.323
256.873
255.423
253.967
252.508
251.057
249.601
248.139
246.691
245.244
243.784
242.33
240.877
239.422
237.966
236.525
235.09
233.671
232.252
230.853
229.456
228.075
226.7
225.35
224
222.676
221.365
220.077
218.797
217.549
216.311
215.105
213.909
212.749
211.597
210.485
209.377
208.315
207.247
206.241
205.201
271.16
269.747
268.33
266.908
265.482
264.053
262.62
261.182
259.742
258.301
256.855
255.405
253.96
252.513
251.059
249.613
248.173
246.723
245.267
243.82
242.368
240.914
239.465
238.029
236.597
235.176
233.761
232.358
230.959
229.574
228.198
226.835
225.483
224.151
222.829
221.526
220.24
218.976
217.725
216.502
215.293
214.112
212.946
211.811
210.689
209.602
208.524
207.486
206.448
205.464
204.45
269.736
268.319
266.898
265.473
264.043
262.612
261.179
259.74
258.299
256.861
255.42
253.973
252.531
251.095
249.653
248.2
246.754
245.309
243.854
242.403
240.963
239.527
238.098
236.677
235.263
233.855
232.456
231.066
229.685
228.317
226.961
225.616
224.287
222.976
221.678
220.399
219.137
217.897
216.674
215.475
214.294
213.139
212.002
210.892
209.799
208.737
207.688
206.674
205.663
204.703
203.713
268.347
266.925
265.5
264.072
262.638
261.205
259.772
258.336
256.895
255.458
254.025
252.587
251.137
249.692
248.25
246.797
245.345
243.901
242.463
241.028
239.601
238.18
236.764
235.354
233.952
232.557
231.172
229.797
228.434
227.082
225.745
224.421
223.113
221.823
220.548
219.292
218.056
216.84
215.643
214.469
213.315
212.185
211.075
209.991
208.926
207.888
206.867
205.876
204.893
203.955
202.989
265.567
264.139
262.71
261.275
259.84
258.407
256.976
255.538
254.09
252.647
251.206
249.754
248.301
246.854
245.414
243.975
242.542
241.114
239.69
238.272
236.859
235.453
234.054
232.663
231.282
229.911
228.552
227.205
225.872
224.553
223.249
221.961
220.692
219.44
218.207
216.994
215.803
214.631
213.482
212.354
211.25
210.166
209.107
208.069
207.056
206.06
205.093
204.136
203.221
202.277
264.253
262.823
261.393
259.962
258.518
257.073
255.632
254.188
252.735
251.282
249.833
248.391
246.947
245.509
244.076
242.645
241.218
239.796
238.379
236.968
235.563
234.166
232.778
231.4
230.032
228.675
227.331
226
224.684
223.383
222.099
220.832
219.583
218.353
217.143
215.954
214.786
213.639
212.514
211.412
210.332
209.274
208.24
207.227
206.238
205.268
204.324
203.392
202.499
201.577
262.99
261.545
260.102
258.66
257.21
255.754
254.3
252.85
251.404
249.957
248.513
247.074
245.636
244.201
242.771
241.343
239.921
238.504
237.093
235.689
234.293
232.905
231.528
230.161
228.805
227.463
226.134
224.819
223.52
222.237
220.972
219.725
218.497
217.288
216.1
214.934
213.789
212.666
211.565
210.487
209.432
208.399
207.389
206.401
205.436
204.49
203.569
202.66
201.789
200.888
261.739
260.283
258.825
257.369
255.918
254.466
253.014
251.565
250.12
248.675
247.232
245.793
244.356
242.922
241.493
240.069
238.65
237.238
235.833
234.436
233.048
231.67
230.303
228.948
227.605
226.276
224.961
223.662
222.379
221.114
219.867
218.64
217.432
216.244
215.078
213.934
212.811
211.711
210.634
209.58
208.549
207.54
206.554
205.589
204.647
203.725
202.826
201.941
201.091
200.211
260.505
259.048
257.59
256.132
254.679
253.225
251.772
250.321
248.873
247.426
245.982
244.541
243.104
241.671
240.243
238.822
237.407
236
234.601
233.211
231.831
230.461
229.104
227.76
226.429
225.113
223.813
222.529
221.262
220.014
218.785
217.577
216.388
215.221
214.076
212.953
211.853
210.776
209.722
208.69
207.682
206.696
205.733
204.792
203.873
202.973
202.096
201.233
200.404
199.546
259.324
257.863
256.401
254.94
253.48
252.021
250.564
249.109
247.656
246.206
244.76
243.318
241.88
240.448
239.022
237.604
236.192
234.789
233.396
232.012
230.64
229.279
227.931
226.598
225.279
223.975
222.689
221.42
220.169
218.938
217.726
216.536
215.367
214.22
213.095
211.993
210.914
209.859
208.827
207.818
206.832
205.869
204.928
204.009
203.112
202.234
201.379
200.537
199.729
198.892
258.188
256.718
255.249
253.781
252.314
250.849
249.386
247.926
246.47
245.017
243.568
242.125
240.687
239.255
237.83
236.414
235.006
233.607
232.218
230.841
229.475
228.123
226.785
225.461
224.153
222.862
221.589
220.334
219.099
217.884
216.69
215.517
214.366
213.239
212.134
211.052
209.994
208.96
207.949
206.962
205.998
205.056
204.137
203.24
202.364
201.508
200.674
199.854
199.065
198.248
255.606
254.129
252.653
251.179
249.708
248.24
246.775
245.314
243.858
242.407
240.961
239.523
238.091
236.667
235.253
233.847
232.452
231.068
229.697
228.338
226.994
225.664
224.35
223.054
221.775
220.514
219.273
218.053
216.853
215.675
214.52
213.388
212.278
211.193
210.131
209.093
208.079
207.089
206.123
205.179
204.259
203.361
202.485
201.631
200.795
199.981
199.181
198.412
197.614
254.526
253.041
251.557
250.076
248.598
247.124
245.654
244.189
242.729
241.275
239.828
238.388
236.956
235.533
234.12
232.717
231.325
229.946
228.58
227.227
225.89
224.569
223.265
221.979
220.711
219.464
218.236
217.03
215.846
214.684
213.545
212.43
211.339
210.272
209.229
208.21
207.216
206.246
205.3
204.377
203.477
202.6
201.744
200.909
200.095
199.3
198.52
197.771
196.992
253.478
251.984
250.492
249.004
247.52
246.039
244.564
243.094
241.631
240.174
238.724
237.283
235.85
234.427
233.015
231.614
230.226
228.851
227.49
226.143
224.814
223.501
222.206
220.93
219.673
218.437
217.223
216.03
214.861
213.714
212.592
211.494
210.42
209.371
208.346
207.346
206.371
205.421
204.494
203.59
202.71
201.853
201.017
200.202
199.406
198.631
197.871
197.141
196.38
250.959
249.459
247.963
246.472
244.985
243.504
242.03
240.562
239.101
237.649
236.206
234.773
233.35
231.939
230.54
229.154
227.783
226.426
225.086
223.763
222.458
221.172
219.905
218.66
217.435
216.233
215.054
213.899
212.767
211.66
210.578
209.521
208.489
207.482
206.5
205.544
204.612
203.704
202.819
201.958
201.12
200.303
199.507
198.731
197.975
197.233
196.521
195.779
249.965
248.456
246.953
245.454
243.961
242.474
240.994
239.522
238.058
236.603
235.158
233.723
232.3
230.89
229.492
228.109
226.742
225.39
224.055
222.738
221.441
220.163
218.906
217.671
216.458
215.268
214.101
212.959
211.842
210.75
209.683
208.642
207.627
206.637
205.673
204.734
203.819
202.93
202.064
201.221
200.401
199.602
198.825
198.067
197.329
196.606
195.913
195.189
247.484
245.972
244.466
242.966
241.473
239.988
238.511
237.043
235.585
234.138
232.702
231.279
229.869
228.473
227.092
225.727
224.38
223.05
221.74
220.449
219.18
217.932
216.706
215.504
214.325
213.171
212.042
210.939
209.861
208.81
207.784
206.784
205.811
204.863
203.941
203.044
202.171
201.323
200.498
199.696
198.915
198.155
197.416
196.696
195.991
195.315
194.608
246.54
245.02
243.507
242
240.501
239.01
237.529
236.057
234.596
233.146
231.709
230.284
228.875
227.48
226.101
224.74
223.396
222.072
220.767
219.483
218.221
216.982
215.766
214.574
213.406
212.264
211.148
210.058
208.994
207.956
206.945
205.961
205.003
204.071
203.165
202.285
201.429
200.597
199.789
199.004
198.241
197.499
196.776
196.074
195.386
194.728
194.039
244.097
242.576
241.062
239.557
238.061
236.574
235.098
233.634
232.181
230.742
229.317
227.908
226.514
225.137
223.779
222.439
221.119
219.82
218.543
217.288
216.057
214.85
213.668
212.511
211.38
210.275
209.198
208.147
207.123
206.126
205.156
204.213
203.297
202.407
201.542
200.702
199.887
199.095
198.327
197.58
196.854
196.149
195.463
194.793
194.151
193.479
243.201
241.672
240.152
238.64
237.138
235.647
234.167
232.699
231.244
229.803
228.377
226.968
225.575
224.2
222.843
221.507
220.192
218.898
217.627
216.379
215.156
213.957
212.785
211.638
210.518
209.425
208.359
207.321
206.31
205.327
204.371
203.442
202.54
201.665
200.815
199.991
199.191
198.415
197.662
196.932
196.222
195.533
194.864
194.21
193.585
192.93
242.332
240.796
239.268
237.75
236.243
234.746
233.262
231.791
230.333
228.891
227.464
226.054
224.661
223.288
221.934
220.601
219.29
218.001
216.736
215.495
214.279
213.089
211.925
210.788
209.678
208.596
207.541
206.515
205.517
204.546
203.603
202.688
201.8
200.939
200.104
199.294
198.509
197.749
197.011
196.296
195.603
194.929
194.276
193.638
193.029
192.39
241.49
239.946
238.412
236.887
235.374
233.873
232.384
230.909
229.449
228.004
226.576
225.166
223.774
222.402
221.051
219.721
218.413
217.129
215.869
214.635
213.426
212.243
211.088
209.96
208.86
207.788
206.744
205.729
204.743
203.785
202.854
201.952
201.077
200.23
199.408
198.613
197.842
197.096
196.373
195.673
194.995
194.336
193.699
193.076
192.482
191.86
240.673
239.122
237.581
236.05
234.531
233.025
231.532
230.053
228.59
227.144
225.714
224.304
222.912
221.541
220.192
218.865
217.561
216.282
215.027
213.798
212.596
211.421
210.274
209.154
208.063
207.001
205.968
204.964
203.988
203.041
202.123
201.233
200.371
199.536
198.728
197.946
197.189
196.457
195.748
195.062
194.398
193.755
193.132
192.525
191.946
191.339
239.882
238.323
236.775
235.238
233.713
232.202
230.705
229.223
227.757
226.308
224.878
223.467
222.076
220.706
219.358
218.034
216.734
215.458
214.208
212.985
211.789
210.621
209.481
208.37
207.288
206.235
205.211
204.217
203.252
202.317
201.41
200.531
199.681
198.858
198.063
197.293
196.549
195.83
195.135
194.463
193.813
193.184
192.576
191.983
191.419
190.828
239.115
237.549
235.994
234.451
232.921
231.404
229.903
228.418
226.949
225.498
224.066
222.655
221.264
219.895
218.549
217.227
215.93
214.658
213.413
212.195
211.005
209.844
208.711
207.607
206.533
205.489
204.475
203.49
202.535
201.61
200.713
199.846
199.007
198.196
197.412
196.655
195.923
195.217
194.535
193.876
193.24
192.624
192.03
191.452
190.902
190.327
236.798
235.237
233.688
232.152
230.631
229.126
227.637
226.165
224.713
223.279
221.867
220.476
219.108
217.764
216.444
215.15
213.882
212.641
211.428
210.244
209.088
207.962
206.866
205.799
204.763
203.757
202.782
201.836
200.92
200.034
199.177
198.349
197.548
196.776
196.03
195.311
194.616
193.947
193.301
192.677
192.075
191.494
190.93
190.394
189.834
236.071
234.503
232.948
231.408
229.882
228.372
226.88
225.406
223.951
222.516
221.103
219.712
218.345
217.002
215.684
214.393
213.128
211.892
210.683
209.504
208.354
207.234
206.144
205.085
204.057
203.059
202.092
201.155
200.248
199.371
198.524
197.706
196.916
196.154
195.419
194.711
194.028
193.37
192.737
192.126
191.537
190.969
190.418
189.896
189.35
235.367
233.793
232.232
230.686
229.156
227.643
226.147
224.67
223.213
221.777
220.363
218.972
217.605
216.264
214.948
213.659
212.397
211.164
209.96
208.785
207.641
206.527
205.443
204.391
203.369
202.379
201.419
200.491
199.593
198.725
197.886
197.078
196.297
195.546
194.821
194.124
193.452
192.806
192.184
191.585
191.008
190.453
189.916
189.406
188.875
233.105
231.539
229.988
228.453
226.936
225.437
223.957
222.498
221.061
219.646
218.255
216.889
215.548
214.234
212.947
211.688
210.458
209.258
208.088
206.948
205.84
204.762
203.716
202.701
201.717
200.765
199.844
198.954
198.094
197.264
196.464
195.693
194.951
194.236
193.549
192.888
192.252
191.642
191.054
190.49