/*--------------------------------*- C++ -*----------------------------------*\
| =========                 |                                                 |
| \\      /  F ield         | OpenFOAM: The Open Source CFD Toolbox           |
|  \\    /   O peration     | Version:  v1706                                 |
|   \\  /    A nd           | Web:      www.OpenFOAM.com                      |
|    \\/     M anipulation  |                                                 |
\*---------------------------------------------------------------------------*/
FoamFile
{
    version     2.0;
    format      ascii;
    class       volScalarField;
    location    "2e-05";
    object      rho;
}
// * * * * * * * * * * * * * * * * * * * * * * * * * * * * * * * * * * * * * //

dimensions      [1 -3 0 0 0 0 0];


internalField   nonuniform List<scalar> 
30038
(
0.000511309
0.000511309
0.000511309
0.000511309
0.000511309
0.000511309
0.000511309
0.000511309
0.000511309
0.000511309
0.000511309
0.000511309
0.000511309
0.000511309
0.000511309
0.000511309
0.000511309
0.000511309
0.000511309
0.000511309
0.000511309
0.000511309
0.000511309
0.000511309
0.000511309
0.000511309
0.000511309
0.000511309
0.000511309
0.000511309
0.000511309
0.000511309
0.000511309
0.000511309
0.000511309
0.000511309
0.000511309
0.000511309
0.000511309
0.000511309
0.000511309
0.000511309
0.000511309
0.000511309
0.000511309
0.000511309
0.000511309
0.000511309
0.000511309
0.000511309
0.000511309
0.000511309
0.000511309
0.000511309
0.000511309
0.000511309
0.000511309
0.000511309
0.000511309
0.000511309
0.000511309
0.000511309
0.000511309
0.000511309
0.000511309
0.000511309
0.000511309
0.000511309
0.000511309
0.000511309
0.000511309
0.000511309
0.000511309
0.000511309
0.000511309
0.000511309
0.000511309
0.000511309
0.000511309
0.000511309
0.000511309
0.000511309
0.000511309
0.000511309
0.000511309
0.000511309
0.000511309
0.000511309
0.000511309
0.000511309
0.000511309
0.000511309
0.000511309
0.000511309
0.000511309
0.000511309
0.000511309
0.000511309
0.000511309
0.000511309
0.000511309
0.000511309
0.000511309
0.000511309
0.000511309
0.000511309
0.000511309
0.000511309
0.000511309
0.000511309
0.000511309
0.000511309
0.000511309
0.000511309
0.000511309
0.000511309
0.000511309
0.000511309
0.000511309
0.000511309
0.000511309
0.000511309
0.000511309
0.000511309
0.000511309
0.000511309
0.000511309
0.000511309
0.000511309
0.000511309
0.000511309
0.000511309
0.000511309
0.000511309
0.000511309
0.000511309
0.000511309
0.000511309
0.000511309
0.000511309
0.000511309
0.000511309
0.000511309
0.000511309
0.000511309
0.000511309
0.000511309
0.000511309
0.000511309
0.000511309
0.000511309
0.000511309
0.000511309
0.000511309
0.000511309
0.000511309
0.000511309
0.000511309
0.000511309
0.000511309
0.000511309
0.000511309
0.000511309
0.000511309
0.000511309
0.000511309
0.000511309
0.000511309
0.000511309
0.000511309
0.000511309
0.000511309
0.000511309
0.000511309
0.000511309
0.000511309
0.000511309
0.000511309
0.000511309
0.000511309
0.000511309
0.000511309
0.000511309
0.000511309
0.000511309
0.000511309
0.000511309
0.000511309
0.000511309
0.000511309
0.000511309
0.000511309
0.000511309
0.000511309
0.000511309
0.000511309
0.000511309
0.000511309
0.000511309
0.000511309
0.000511309
0.000511309
0.000511309
0.000511309
0.000511309
0.000511309
0.000511309
0.000511309
0.000511309
0.000511309
0.000511309
0.000511309
0.000511309
0.000511309
0.000511309
0.000511309
0.000511309
0.000511309
0.000511309
0.000511309
0.000511309
0.000511309
0.000511309
0.000511309
0.000511309
0.000511309
0.000511309
0.000511309
0.000511309
0.000511309
0.000511309
0.000511309
0.000511309
0.000511309
0.000511309
0.000511309
0.000511309
0.000511309
0.000511309
0.000511309
0.000511309
0.000511309
0.000511309
0.000511309
0.000511309
0.000511309
0.000511309
0.000511309
0.000511309
0.000511309
0.000511309
0.000511309
0.000511309
0.000511309
0.000511309
0.000511309
0.000511309
0.000511309
0.000511309
0.000511309
0.000511309
0.000511309
0.000511309
0.000511309
0.000511309
0.00051131
0.000511309
0.000511309
0.000511309
0.000511309
0.000511309
0.000511309
0.000511309
0.000511309
0.000511309
0.000511309
0.000511309
0.000511309
0.000511309
0.000511309
0.000511309
0.000511309
0.000511309
0.000511309
0.000511309
0.000511309
0.000511309
0.000511309
0.000511309
0.000511309
0.000511309
0.000511309
0.000511309
0.000511309
0.000511309
0.000511309
0.000511309
0.000511309
0.000511309
0.00051131
0.00051131
0.00051131
0.00051131
0.00051131
0.000511309
0.000511309
0.000511309
0.000511309
0.000511309
0.000511309
0.000511309
0.000511309
0.000511309
0.000511309
0.000511309
0.000511309
0.000511309
0.000511309
0.000511309
0.000511309
0.000511309
0.000511309
0.000511309
0.000511309
0.000511309
0.000511309
0.000511309
0.000511309
0.000511309
0.000511309
0.000511309
0.000511309
0.000511309
0.000511309
0.00051131
0.00051131
0.00051131
0.00051131
0.00051131
0.00051131
0.00051131
0.000511311
0.000511312
0.000511309
0.000511309
0.000511309
0.000511309
0.000511309
0.000511309
0.000511309
0.000511309
0.000511309
0.000511309
0.000511309
0.000511309
0.000511309
0.000511309
0.000511309
0.000511309
0.000511309
0.000511309
0.000511309
0.000511309
0.000511309
0.000511309
0.000511309
0.000511309
0.000511309
0.000511309
0.00051131
0.00051131
0.00051131
0.00051131
0.00051131
0.00051131
0.00051131
0.000511311
0.000511311
0.000511312
0.000511313
0.000511315
0.000511317
0.000511309
0.000511309
0.000511309
0.000511309
0.000511309
0.000511309
0.000511309
0.000511309
0.000511309
0.000511309
0.000511309
0.000511309
0.000511309
0.000511309
0.000511309
0.000511309
0.000511309
0.000511309
0.000511309
0.000511309
0.000511309
0.000511309
0.00051131
0.00051131
0.00051131
0.00051131
0.00051131
0.00051131
0.00051131
0.000511311
0.000511311
0.000511312
0.000511313
0.000511314
0.000511316
0.000511319
0.000511323
0.000511328
0.000511336
0.000511309
0.000511309
0.000511309
0.000511309
0.000511309
0.000511309
0.000511309
0.000511309
0.000511309
0.000511309
0.000511309
0.000511309
0.000511309
0.000511309
0.000511309
0.000511309
0.000511309
0.000511309
0.000511309
0.00051131
0.00051131
0.00051131
0.00051131
0.00051131
0.00051131
0.00051131
0.000511311
0.000511311
0.000511312
0.000511313
0.000511314
0.000511316
0.000511318
0.000511322
0.000511326
0.000511333
0.000511341
0.000511353
0.00051137
0.000511396
0.000511309
0.000511309
0.000511309
0.000511309
0.000511309
0.000511309
0.000511309
0.000511309
0.000511309
0.000511309
0.000511309
0.000511309
0.000511309
0.000511309
0.000511309
0.00051131
0.00051131
0.00051131
0.00051131
0.00051131
0.00051131
0.00051131
0.000511311
0.000511311
0.000511312
0.000511313
0.000511314
0.000511316
0.000511318
0.000511321
0.000511325
0.000511331
0.000511339
0.00051135
0.000511365
0.000511385
0.000511413
0.000511452
0.000511505
0.000511587
0.000511309
0.000511309
0.000511309
0.000511309
0.000511309
0.000511309
0.000511309
0.000511309
0.000511309
0.000511309
0.000511309
0.00051131
0.00051131
0.00051131
0.00051131
0.00051131
0.00051131
0.00051131
0.000511311
0.000511311
0.000511312
0.000511313
0.000511314
0.000511315
0.000511318
0.000511321
0.000511324
0.00051133
0.000511337
0.000511347
0.000511361
0.000511379
0.000511405
0.000511439
0.000511487
0.000511552
0.00051164
0.000511763
0.000511929
0.000512185
0.000511309
0.000511309
0.000511309
0.000511309
0.000511309
0.000511309
0.000511309
0.00051131
0.00051131
0.00051131
0.00051131
0.00051131
0.00051131
0.00051131
0.000511311
0.000511311
0.000511312
0.000511313
0.000511314
0.000511315
0.000511317
0.00051132
0.000511324
0.000511329
0.000511336
0.000511345
0.000511358
0.000511375
0.000511398
0.00051143
0.000511473
0.000511531
0.000511611
0.000511719
0.000511867
0.000512068
0.000512342
0.00051272
0.000513229
0.000514003
0.000511309
0.000511309
0.00051131
0.00051131
0.00051131
0.00051131
0.00051131
0.00051131
0.00051131
0.00051131
0.000511311
0.000511311
0.000511312
0.000511313
0.000511314
0.000511315
0.000511317
0.00051132
0.000511324
0.000511329
0.000511335
0.000511344
0.000511356
0.000511372
0.000511394
0.000511423
0.000511462
0.000511516
0.000511588
0.000511686
0.000511818
0.000511998
0.000512242
0.000512572
0.000513021
0.000513631
0.000514457
0.000515587
0.000517098
0.000519366
0.00051131
0.00051131
0.00051131
0.00051131
0.00051131
0.000511311
0.000511311
0.000511311
0.000511312
0.000511313
0.000511314
0.000511316
0.000511318
0.00051132
0.000511324
0.000511329
0.000511335
0.000511344
0.000511355
0.00051137
0.000511391
0.000511418
0.000511455
0.000511504
0.000511571
0.000511661
0.000511781
0.000511944
0.000512163
0.000512459
0.000512859
0.000513398
0.000514126
0.000515109
0.000516434
0.000518222
0.000520624
0.000523889
0.000528174
0.0005345
0.00051131
0.000511311
0.000511311
0.000511312
0.000511312
0.000511313
0.000511314
0.000511316
0.000511318
0.000511321
0.000511324
0.000511329
0.000511335
0.000511344
0.000511355
0.000511369
0.000511389
0.000511415
0.00051145
0.000511497
0.000511559
0.000511643
0.000511754
0.000511904
0.000512104
0.000512373
0.000512734
0.000513218
0.000513868
0.000514741
0.000515911
0.000517481
0.000519583
0.000522398
0.000526157
0.000531154
0.000537765
0.000546551
0.000557982
0.000574397
0.000511312
0.000511313
0.000511313
0.000511315
0.000511316
0.000511318
0.000511321
0.000511325
0.00051133
0.000511336
0.000511344
0.000511355
0.00051137
0.000511389
0.000511415
0.000511448
0.000511493
0.000511553
0.000511631
0.000511736
0.000511876
0.000512062
0.00051231
0.000512641
0.000513082
0.000513671
0.000514457
0.000515506
0.000516905
0.000518768
0.000521249
0.000524548
0.000528919
0.000534684
0.000542257
0.000552195
0.000565227
0.000582062
0.0006039
0.000631043
0.00067201
0.000511317
0.000511319
0.000511322
0.000511326
0.000511331
0.000511337
0.000511346
0.000511357
0.000511372
0.000511391
0.000511416
0.000511449
0.000511493
0.00051155
0.000511626
0.000511727
0.00051186
0.000512035
0.000512268
0.000512576
0.000512985
0.000513527
0.000514246
0.000515201
0.000516466
0.000518142
0.000520361
0.000523296
0.000527169
0.000532259
0.000538917
0.0005476
0.000558919
0.000573612
0.000592472
0.000616385
0.000647073
0.000687537
0.000742756
0.000814644
0.000918017
0.000511327
0.000511333
0.000511339
0.000511348
0.00051136
0.000511375
0.000511394
0.000511419
0.000511453
0.000511496
0.000511553
0.000511628
0.000511725
0.000511854
0.000512023
0.000512245
0.000512538
0.000512923
0.00051343
0.0005141
0.000514982
0.000516145
0.000517677
0.000519692
0.000522342
0.000525823
0.00053038
0.000536316
0.000544011
0.000553978
0.000566879
0.000583471
0.000604508
0.000631018
0.000665061
0.000710232
0.000771037
0.000851255
0.000951487
0.00107013
0.0011957
0.00133484
0.000511351
0.000511363
0.000511379
0.000511399
0.000511425
0.000511459
0.000511503
0.000511561
0.000511635
0.000511732
0.000511859
0.000512024
0.000512241
0.000512523
0.000512893
0.000513377
0.00051401
0.000514841
0.000515928
0.000517352
0.000519213
0.000521646
0.000524821
0.000528959
0.000534329
0.00054126
0.000550167
0.000561625
0.000576338
0.000595066
0.000618525
0.000647978
0.000685974
0.000736536
0.000804043
0.000891318
0.000997957
0.00111956
0.00124878
0.00137554
0.00149342
0.00159142
0.00167657
0.000511434
0.000511469
0.000511515
0.000511574
0.00051165
0.000511748
0.000511875
0.00051204
0.000512255
0.000512533
0.000512894
0.000513364
0.000513975
0.000514771
0.000515806
0.000517153
0.000518902
0.000521173
0.000524119
0.000527936
0.000532868
0.000539202
0.000547301
0.000557634
0.000570832
0.000587618
0.000608726
0.000634902
0.000667785
0.000710487
0.000767319
0.000842191
0.000936737
0.00104906
0.00117362
0.00130217
0.00142586
0.00153677
0.00163029
0.00170385
0.00175949
0.00179736
0.00182347
0.000511593
0.000511672
0.000511773
0.000511904
0.000512072
0.000512288
0.000512567
0.000512927
0.000513392
0.000513993
0.000514769
0.000515772
0.000517069
0.000518744
0.000520902
0.000523683
0.000527263
0.000531865
0.000537749
0.000545231
0.000554706
0.000566718
0.000581945
0.0006011
0.000624836
0.000654117
0.000691115
0.000739489
0.00080354
0.000886324
0.00098802
0.00110524
0.00123142
0.00135809
0.00147689
0.00158121
0.00166721
0.00173427
0.0017834
0.00181721
0.00183906
0.00185121
0.00185683
0.0018574
0.000511946
0.00051212
0.000512343
0.000512628
0.000512994
0.000513463
0.000514064
0.000514835
0.000515826
0.000517098
0.00051873
0.000520819
0.000523491
0.000526908
0.000531274
0.000536828
0.000543852
0.000552695
0.000563804
0.0005778
0.000595374
0.000617202
0.000643886
0.000676825
0.000718862
0.000774061
0.000846259
0.000937247
0.00104559
0.00116654
0.00129279
0.00141603
0.00152869
0.00162543
0.00170377
0.00176375
0.00180703
0.0018364
0.0018547
0.00186467
0.00186843
0.00186841
0.00186642
0.00186394
0.0018595
0.000512719
0.000513097
0.000513579
0.000514192
0.000514973
0.000515969
0.000517241
0.00051886
0.000520919
0.000523533
0.000526853
0.000531064
0.000536395
0.000543101
0.000551487
0.000561942
0.000575006
0.000591343
0.000611607
0.000636385
0.000666474
0.000703922
0.000752215
0.000815459
0.000896526
0.0009956
0.00110963
0.00123274
0.00135727
0.00147542
0.00158072
0.00166913
0.00173946
0.00179239
0.00182984
0.00185494
0.00187006
0.0018776
0.00188021
0.00187911
0.00187716
0.00187427
0.00186955
0.00186329
0.00185584
0.00184615
0.000513747
0.000514384
0.000515189
0.00051621
0.000517503
0.000519139
0.000521205
0.000523808
0.00052709
0.000531224
0.000536426
0.000542932
0.000551016
0.000561025
0.000573416
0.000588815
0.000607872
0.000631181
0.00065924
0.000693437
0.000736604
0.000792637
0.000865056
0.00095528
0.00106174
0.00117994
0.00130328
0.00142413
0.00153553
0.00163234
0.00171188
0.00177398
0.00181991
0.00185181
0.00187271
0.00188489
0.00189028
0.0018915
0.00189006
0.00188782
0.00188445
0.00187937
0.00187288
0.00186493
0.00185561
0.00184489
0.00183372
0.0018213
0.000517897
0.000519579
0.000521688
0.000524326
0.000527626
0.000531755
0.000536914
0.000543329
0.000551249
0.000560983
0.000572931
0.000587668
0.000605835
0.000628003
0.000654637
0.000686571
0.000726023
0.000776486
0.000841756
0.000924094
0.00102312
0.00113558
0.00125593
0.00137721
0.00149233
0.00159544
0.00168284
0.00175317
0.00180704
0.00184606
0.00187279
0.00188965
0.00189901
0.00190265
0.00190253
0.00190103
0.00189852
0.00189454
0.00188898
0.00188226
0.00187403
0.00186464
0.00185383
0.00184247
0.00183107
0.00181965
0.00180862
0.00179671
0.000522391
0.000525108
0.000528481
0.000532672
0.000537872
0.000544298
0.000552178
0.000561789
0.000573494
0.000587813
0.00060537
0.000626726
0.000652358
0.000682736
0.000719565
0.00076592
0.000825525
0.000901201
0.000993457
0.00110007
0.00121647
0.00133647
0.00145324
0.00156062
0.00165411
0.00173147
0.00179246
0.00183825
0.00187071
0.00189254
0.0019058
0.00191229
0.00191453
0.00191347
0.00191175
0.00190913
0.00190441
0.00189849
0.0018915
0.00188304
0.00187351
0.00186273
0.00185152
0.00184033
0.00182913
0.00181798
0.00180699
0.00179609
0.00178568
0.00177454
0.000539332
0.000545867
0.000553824
0.000563451
0.000575088
0.000589205
0.000606413
0.000627268
0.000652217
0.000681586
0.000716638
0.000760057
0.00081536
0.000885694
0.000972167
0.00107335
0.00118546
0.00130309
0.00141991
0.0015297
0.00162756
0.00171048
0.00177749
0.00182927
0.00186726
0.00189369
0.00191087
0.00192083
0.00192492
0.00192574
0.00192439
0.00192228
0.0019192
0.00191405
0.0019078
0.00190051
0.00189193
0.00188215
0.0018715
0.00186054
0.00184964
0.00183862
0.00182764
0.00181677
0.00180607
0.00179551
0.00178514
0.00177484
0.00176503
0.00175459
0.000577734
0.000591848
0.000608952
0.000629586
0.000654157
0.000682944
0.000716858
0.00075827
0.000810495
0.000876765
0.000958575
0.00105504
0.00116303
0.00127777
0.00139349
0.00150419
0.00160475
0.00169169
0.0017635
0.00182023
0.00186311
0.00189387
0.00191477
0.00192778
0.00193453
0.00193688
0.00193643
0.00193516
0.00193262
0.00192882
0.00192321
0.00191676
0.00190921
0.00190061
0.00189064
0.00188014
0.00186948
0.00185882
0.00184805
0.00183727
0.0018266
0.00181605
0.00180562
0.00179531
0.00178514
0.00177513
0.00176534
0.00175565
0.00174646
0.00173674
0.00065818
0.000686732
0.000720001
0.00076016
0.000810352
0.000873746
0.000952044
0.00104469
0.00114901
0.00126075
0.00137466
0.0014851
0.00158694
0.00167647
0.00175171
0.00181233
0.00185917
0.00189368
0.00191787
0.00193376
0.00194303
0.00194705
0.00194802
0.00194688
0.00194532
0.0019425
0.00193786
0.00193208
0.00192537
0.00191758
0.00190884
0.0018989
0.0018886
0.00187828
0.00186783
0.0018573
0.00184678
0.00183635
0.00182599
0.00181571
0.00180553
0.00179547
0.00178554
0.00177576
0.00176615
0.00175671
0.00174752
0.00173848
0.00172997
0.00172103
0.00081458
0.000876181
0.000952091
0.00104188
0.00114314
0.00125202
0.00136376
0.00147309
0.00157504
0.0016658
0.00174317
0.00180647
0.00185626
0.00189381
0.0019208
0.00193918
0.00195062
0.0019565
0.00195852
0.00195834
0.00195726
0.00195503
0.00195168
0.00194618
0.0019403
0.0019335
0.0019256
0.00191654
0.0019068
0.00189681
0.00188684
0.00187663
0.00186634
0.00185609
0.00184591
0.00183579
0.0018257
0.00181569
0.00180577
0.00179595
0.00178626
0.0017767
0.0017673
0.00175807
0.00174905
0.00174024
0.00173173
0.00172341
0.00171564
0.00170757
0.00114513
0.00125144
0.00136085
0.00146847
0.00156957
0.00166039
0.00173864
0.00180347
0.00185519
0.00189491
0.00192403
0.00194439
0.00195767
0.00196514
0.00196836
0.001969
0.00196819
0.00196687
0.00196406
0.00195987
0.00195428
0.00194807
0.001941
0.00193304
0.00192383
0.00191432
0.00190472
0.001895
0.00188508
0.00187508
0.00186514
0.00185522
0.00184533
0.00183547
0.00182567
0.00181594
0.00180628
0.00179671
0.00178725
0.00177791
0.00176873
0.00175971
0.00175089
0.00174228
0.00173392
0.00172581
0.00171805
0.00171053
0.00170358
0.00169634
0.0015708
0.00166066
0.00173866
0.00180389
0.00185651
0.00189749
0.001928
0.0019498
0.00196447
0.0019733
0.00197751
0.0019789
0.00197865
0.00197776
0.00197568
0.00197208
0.00196709
0.00196161
0.00195524
0.00194798
0.00193964
0.00193064
0.00192144
0.00191224
0.00190273
0.00189309
0.00188344
0.00187383
0.0018642
0.00185456
0.00184495
0.00183538
0.00182586
0.0018164
0.00180699
0.00179768
0.00178846
0.00177936
0.00177041
0.00176161
0.00175299
0.00174459
0.00173641
0.00172849
0.00172087
0.00171355
0.00170653
0.00169973
0.00169349
0.00168705
0.00186059
0.00190194
0.0019331
0.00195574
0.00197131
0.0019811
0.00198609
0.00198813
0.0019884
0.00198788
0.00198636
0.00198337
0.0019791
0.0019739
0.0019682
0.00196156
0.00195417
0.0019457
0.00193696
0.00192814
0.00191919
0.00190998
0.00190065
0.00189136
0.00188205
0.00187273
0.00186339
0.00185406
0.00184475
0.00183546
0.00182621
0.00181701
0.00180788
0.00179882
0.00178986
0.00178101
0.00177228
0.00176371
0.00175532
0.00174712
0.00173915
0.00173143
0.00172398
0.00171679
0.00170985
0.00170319
0.00169688
0.00169082
0.00168536
0.00167984
0.00197842
0.00198877
0.00199426
0.00199676
0.0019975
0.00199725
0.00199619
0.00199376
0.00198984
0.00198522
0.00198
0.00197401
0.0019672
0.00195935
0.00195117
0.00194279
0.00193437
0.00192557
0.00191665
0.0019077
0.00189878
0.0018898
0.00188077
0.00187172
0.00186269
0.00185367
0.00184465
0.00183564
0.00182667
0.00181775
0.00180889
0.00180009
0.00179139
0.00178279
0.00177432
0.00176599
0.00175783
0.00174985
0.0017421
0.00173458
0.0017273
0.00172023
0.00171341
0.00170686
0.00170062
0.00169467
0.00168916
0.00168397
0.00167943
0.00167489
0.00200597
0.00200599
0.00200528
0.00200323
0.00199976
0.00199534
0.00199067
0.00198528
0.00197895
0.00197173
0.00196398
0.00195612
0.00194809
0.00193983
0.00193136
0.00192278
0.00191422
0.00190561
0.00189695
0.00188824
0.00187953
0.0018708
0.00186207
0.00185333
0.0018446
0.00183589
0.0018272
0.00181856
0.00180997
0.00180145
0.00179302
0.00178468
0.00177647
0.0017684
0.00176047
0.00175274
0.00174522
0.0017379
0.00173076
0.00172384
0.00171715
0.00171073
0.00170458
0.00169875
0.00169331
0.00168824
0.0016836
0.00167931
0.00167566
0.00167206
0.00200875
0.00200458
0.00200032
0.00199537
0.00198957
0.00198285
0.00197553
0.00196811
0.00196055
0.00195276
0.00194468
0.00193652
0.00192833
0.00192014
0.00191186
0.00190351
0.00189513
0.00188674
0.00187834
0.00186991
0.00186146
0.00185302
0.00184458
0.00183616
0.00182776
0.00181941
0.0018111
0.00180286
0.0017947
0.00178664
0.0017787
0.00177088
0.00176323
0.00175575
0.00174845
0.0017413
0.00173433
0.00172758
0.00172105
0.00171475
0.00170873
0.00170304
0.0016977
0.0016927
0.0016881
0.00168388
0.00168009
0.00167668
0.00167396
0.00167108
0.00199905
0.00199286
0.00198588
0.00197884
0.00197172
0.00196441
0.00195671
0.00194892
0.00194114
0.00193334
0.00192543
0.00191746
0.00190944
0.00190142
0.00189336
0.00188526
0.00187713
0.001869
0.00186085
0.0018527
0.00184456
0.00183643
0.00182832
0.00182026
0.00181224
0.00180429
0.00179642
0.00178864
0.00178097
0.00177343
0.00176605
0.00175882
0.00175171
0.00174476
0.00173799
0.00173141
0.00172503
0.00171889
0.00171304
0.00170749
0.00170226
0.00169735
0.00169281
0.00168864
0.00168485
0.00168148
0.00167857
0.0016758
0.00167382
0.00167175
0.00198172
0.00197485
0.00196751
0.00196009
0.00195267
0.00194527
0.00193774
0.00193012
0.00192247
0.0019148
0.0019071
0.00189935
0.00189156
0.00188376
0.00187592
0.00186808
0.00186022
0.00185236
0.00184451
0.00183668
0.00182887
0.0018211
0.00181337
0.00180572
0.00179814
0.00179064
0.00178326
0.00177601
0.00176889
0.00176187
0.00175498
0.00174824
0.00174167
0.00173527
0.00172908
0.00172313
0.00171745
0.00171205
0.00170695
0.00170214
0.00169769
0.00169357
0.00168981
0.00168647
0.00168348
0.00168074
0.00167855
0.00167649
0.00167521
0.00167406
0.00196307
0.001956
0.00194884
0.00194158
0.00193427
0.00192695
0.0019196
0.0019122
0.00190475
0.00189727
0.00188977
0.00188225
0.0018747
0.00186714
0.00185957
0.001852
0.00184445
0.00183691
0.00182939
0.00182191
0.00181449
0.00180712
0.00179984
0.00179265
0.00178556
0.00177858
0.00177168
0.00176489
0.00175824
0.00175172
0.00174535
0.00173915
0.00173318
0.00172744
0.00172193
0.00171669
0.00171172
0.00170703
0.00170268
0.00169862
0.00169492
0.00169161
0.00168858
0.00168585
0.00168357
0.00168148
0.00168
0.00167878
0.00167839
0.00167804
0.00194496
0.00193796
0.00193094
0.00192388
0.00191677
0.00190961
0.00190244
0.00189524
0.00188801
0.00188075
0.00187348
0.0018662
0.00185891
0.00185163
0.00184436
0.00183711
0.00182989
0.00182271
0.00181557
0.00180851
0.00180153
0.00179464
0.00178782
0.00178107
0.00177442
0.00176788
0.00176145
0.00175515
0.001749
0.00174305
0.0017373
0.00173176
0.00172644
0.00172137
0.00171654
0.00171198
0.00170774
0.00170376
0.00170014
0.00169687
0.00169383
0.00169112
0.00168877
0.00168665
0.00168508
0.00168381
0.00168319
0.00168269
0.00168299
0.00168333
0.00193451
0.00192771
0.00192087
0.00191401
0.00190712
0.00190019
0.00189324
0.00188627
0.00187928
0.00187228
0.00186527
0.00185826
0.00185126
0.00184427
0.00183731
0.00183038
0.00182349
0.00181666
0.00180989
0.00180321
0.00179657
0.00178999
0.0017835
0.0017771
0.0017708
0.0017646
0.00175854
0.00175265
0.00174694
0.00174141
0.00173607
0.00173095
0.00172605
0.00172137
0.00171696
0.00171284
0.00170895
0.00170544
0.00170221
0.00169919
0.0016965
0.00169412
0.00169197
0.00169035
0.00168901
0.00168824
0.00168766
0.00168773
0.00168786
0.00168875
0.0016897
0.00191802
0.00191139
0.00190473
0.00189804
0.00189134
0.00188462
0.00187788
0.00187114
0.00186439
0.00185765
0.00185092
0.00184422
0.00183753
0.00183088
0.00182429
0.00181775
0.00181127
0.00180483
0.00179843
0.00179211
0.00178588
0.00177972
0.00177365
0.0017677
0.00176192
0.00175628
0.00175079
0.00174548
0.00174036
0.00173543
0.00173071
0.0017262
0.00172194
0.00171795
0.00171417
0.00171077
0.00170758
0.00170462
0.00170195
0.00169956
0.0016974
0.00169576
0.00169436
0.0016935
0.00169281
0.00169272
0.00169272
0.00169336
0.00169405
0.0016955
0.00169694
0.00190893
0.00190249
0.00189604
0.00188957
0.00188308
0.00187659
0.0018701
0.00186361
0.00185713
0.00185066
0.00184422
0.00183781
0.00183145
0.00182514
0.00181886
0.0018126
0.0018064
0.00180027
0.0017942
0.0017882
0.00178228
0.00177647
0.00177081
0.00176526
0.00175986
0.00175461
0.00174952
0.0017446
0.00173988
0.00173533
0.00173099
0.0017269
0.00172303
0.00171939
0.0017161
0.00171296
0.00171008
0.00170745
0.00170507
0.00170291
0.00170127
0.00169981
0.00169888
0.00169811
0.00169789
0.00169776
0.00169821
0.00169876
0.00169994
0.0017011
0.00170302
0.00170488
0.00189423
0.00188798
0.00188173
0.00187547
0.00186921
0.00186297
0.00185673
0.00185051
0.00184434
0.00183819
0.0018321
0.00182602
0.00181996
0.00181395
0.00180801
0.0018021
0.00179627
0.0017905
0.00178485
0.00177931
0.00177389
0.00176858
0.00176342
0.00175839
0.00175352
0.00174881
0.00174428
0.0017399
0.00173577
0.00173181
0.00172809
0.0017246
0.00172142
0.00171832
0.00171556
0.00171294
0.0017106
0.00170848
0.00170684
0.00170534
0.00170438
0.00170352
0.00170319
0.00170296
0.00170327
0.00170366
0.00170462
0.00170562
0.00170726
0.00170882
0.00171112
0.00171329
0.00188058
0.00187455
0.00186852
0.0018625
0.00185651
0.00185055
0.00184462
0.00183871
0.00183282
0.00182695
0.00182115
0.00181537
0.00180964
0.00180395
0.00179837
0.00179286
0.00178748
0.00178216
0.00177698
0.0017719
0.00176698
0.00176215
0.00175751
0.00175297
0.00174866
0.00174445
0.0017405
0.00173669
0.00173313
0.00172976
0.00172671
0.00172369
0.00172101
0.00171842
0.00171617
0.00171405
0.00171243
0.00171095
0.00170994
0.00170901
0.00170862
0.00170828
0.00170846
0.00170872
0.00170951
0.00171034
0.00171175
0.00171314
0.00171514
0.00171702
0.00171959
0.00172199
0.00186807
0.00186229
0.00185653
0.00185079
0.00184507
0.00183935
0.00183368
0.00182804
0.00182244
0.00181686
0.00181135
0.00180592
0.00180058
0.00179531
0.00179015
0.00178506
0.00178012
0.00177525
0.00177055
0.00176592
0.00176148
0.00175715
0.00175302
0.00174896
0.00174523
0.00174155
0.00173813
0.00173493
0.00173197
0.001729
0.00172645
0.00172391
0.00172169
0.00171966
0.00171807
0.00171656
0.00171553
0.00171459
0.00171411
0.00171368
0.00171377
0.00171391
0.00171453
0.00171524
0.00171643
0.00171765
0.0017194
0.00172111
0.00172337
0.0017255
0.00172825
0.00173079
0.0018568
0.00185124
0.00184571
0.00184021
0.00183473
0.00182928
0.00182387
0.00181852
0.00181325
0.00180805
0.00180292
0.00179787
0.00179292
0.00178806
0.00178332
0.00177866
0.00177416
0.00176972
0.00176549
0.00176134
0.00175735
0.00175353
0.00174994
0.00174636
0.00174317
0.00174008
0.00173715
0.00173436
0.00173187
0.00172935
0.00172724
0.00172528
0.00172367
0.00172222
0.00172117
0.00172018
0.00171963
0.00171919
0.00171915
0.00171919
0.00171968
0.00172028
0.00172127
0.00172235
0.00172387
0.00172541
0.00172741
0.00172937
0.0017318
0.00173408
0.00173692
0.00173949
0.00184663
0.0018413
0.001836
0.00183074
0.00182555
0.00182042
0.00181535
0.00181035
0.00180543
0.00180059
0.00179584
0.00179118
0.00178663
0.00178218
0.00177784
0.00177362
0.00176955
0.00176556
0.00176176
0.00175813
0.00175462
0.00175127
0.00174821
0.0017452
0.00174237
0.00173971
0.00173723
0.00173485
0.00173279
0.00173087
0.00172931
0.0017279
0.00172678
0.00172583
0.00172523
0.00172472
0.00172458
0.00172459
0.00172494
0.00172541
0.00172624
0.0017272
0.0017285
0.0017299
0.00173165
0.00173345
0.0017356
0.00173773
0.00174024
0.0017426
0.00174543
0.00174796
0.00183756
0.00183251
0.00182752
0.00182257
0.00181769
0.00181289
0.00180816
0.00180351
0.00179894
0.00179448
0.00179011
0.00178582
0.00178166
0.00177763
0.0017737
0.00176989
0.00176627
0.00176277
0.00175939
0.00175624
0.00175326
0.00175035
0.00174762
0.00174506
0.00174263
0.00174035
0.00173833
0.00173651
0.00173496
0.00173357
0.00173246
0.00173152
0.00173083
0.00173032
0.00173011
0.00173004
0.00173025
0.00173066
0.00173134
0.00173216
0.00173328
0.00173454
0.00173607
0.00173771
0.00173962
0.00174159
0.00174382
0.00174604
0.00174854
0.00175091
0.00175364
0.00175604
0.00182503
0.00182034
0.00181571
0.00181115
0.00180667
0.00180228
0.00179798
0.00179376
0.00178966
0.00178567
0.00178178
0.00177799
0.00177438
0.0017709
0.0017675
0.0017643
0.0017613
0.00175838
0.00175555
0.00175294
0.00175044
0.00174807
0.00174588
0.00174394
0.00174218
0.00174064
0.0017393
0.00173818
0.00173723
0.00173651
0.00173598
0.00173567
0.00173556
0.00173569
0.00173599
0.00173652
0.00173725
0.0017382
0.00173931
0.00174065
0.00174213
0.00174383
0.00174563
0.00174763
0.00174968
0.00175193
0.00175416
0.00175658
0.00175887
0.00176144
0.00176365
0.00181884
0.00181444
0.00181013
0.00180589
0.00180173
0.00179768
0.00179374
0.00178987
0.00178612
0.00178252
0.00177904
0.00177565
0.00177243
0.00176939
0.00176645
0.00176357
0.00176089
0.00175835
0.00175588
0.00175359
0.00175151
0.00174961
0.00174791
0.0017464
0.00174509
0.00174395
0.00174301
0.00174226
0.00174169
0.00174133
0.00174116
0.00174119
0.00174141
0.00174184
0.00174244
0.00174324
0.00174422
0.00174539
0.00174671
0.00174821
0.00174984
0.00175163
0.00175351
0.00175554
0.0017576
0.00175979
0.00176195
0.00176424
0.00176637
0.00176873
0.00177068
0.0018139
0.00180981
0.00180581
0.00180189
0.00179806
0.00179435
0.00179076
0.00178728
0.00178389
0.00178066
0.00177759
0.00177463
0.00177171
0.00176896
0.00176637
0.00176384
0.00176145
0.00175925
0.00175724
0.00175539
0.00175374
0.00175226
0.00175095
0.00174982
0.00174887
0.00174809
0.00174749
0.00174708
0.00174685
0.0017468
0.00174694
0.00174725
0.00174774
0.00174842
0.00174926
0.00175027
0.00175144
0.00175277
0.00175422
0.00175582
0.00175753
0.00175935
0.00176124
0.00176322
0.00176523
0.0017673
0.00176933
0.00177142
0.00177335
0.00177543
0.00177708
0.00180642
0.00180274
0.00179916
0.00179567
0.00179229
0.00178906
0.00178597
0.00178296
0.00178
0.00177721
0.00177455
0.00177196
0.00176949
0.0017672
0.00176509
0.00176312
0.00176133
0.00175971
0.00175825
0.00175695
0.00175581
0.00175484
0.00175404
0.00175341
0.00175294
0.00175265
0.00175253
0.00175258
0.0017528
0.00175319
0.00175374
0.00175445
0.00175532
0.00175633
0.00175749
0.00175878
0.0017602
0.00176173
0.00176336
0.00176507
0.00176687
0.0017687
0.00177059
0.00177247
0.00177437
0.00177621
0.00177806
0.00177974
0.00178152
0.00178283
0.0018043
0.00180094
0.00179771
0.00179458
0.0017915
0.00178852
0.00178568
0.00178297
0.00178031
0.00177777
0.00177539
0.00177319
0.00177112
0.0017692
0.00176746
0.00176585