/*--------------------------------*- C++ -*----------------------------------*\
| =========                 |                                                 |
| \\      /  F ield         | OpenFOAM: The Open Source CFD Toolbox           |
|  \\    /   O peration     | Version:  v1706                                 |
|   \\  /    A nd           | Web:      www.OpenFOAM.com                      |
|    \\/     M anipulation  |                                                 |
\*---------------------------------------------------------------------------*/
FoamFile
{
    version     2.0;
    format      ascii;
    class       volScalarField;
    location    "2e-05";
    object      Tov;
}
// * * * * * * * * * * * * * * * * * * * * * * * * * * * * * * * * * * * * * //

dimensions      [0 0 0 1 0 0 0];


internalField   nonuniform List<scalar> 
30038
(
144.4
144.4
144.4
144.4
144.4
144.4
144.4
144.4
144.4
144.4
144.4
144.4
144.4
144.4
144.4
144.4
144.4
144.4
144.4
144.4
144.4
144.4
144.4
144.4
144.4
144.4
144.4
144.4
144.4
144.4
144.4
144.4
144.4
144.4
144.4
144.4
144.4
144.4
144.4
144.4
144.4
144.4
144.4
144.4
144.4
144.4
144.4
144.4
144.4
144.4
144.4
144.4
144.4
144.4
144.4
144.4
144.4
144.4
144.4
144.4
144.4
144.4
144.4
144.4
144.4
144.4
144.4
144.4
144.4
144.4
144.4
144.4
144.4
144.4
144.4
144.4
144.4
144.4
144.4
144.4
144.4
144.4
144.4
144.4
144.4
144.4
144.4
144.4
144.4
144.4
144.4
144.4
144.4
144.4
144.4
144.4
144.4
144.4
144.4
144.4
144.4
144.4
144.4
144.4
144.4
144.4
144.4
144.4
144.4
144.4
144.4
144.4
144.4
144.4
144.4
144.4
144.4
144.4
144.4
144.4
144.4
144.4
144.4
144.4
144.4
144.4
144.4
144.4
144.4
144.4
144.4
144.4
144.4
144.4
144.4
144.4
144.4
144.4
144.4
144.4
144.4
144.4
144.4
144.4
144.4
144.4
144.4
144.4
144.4
144.4
144.4
144.4
144.4
144.4
144.4
144.4
144.4
144.4
144.4
144.4
144.4
144.4
144.4
144.4
144.4
144.4
144.4
144.4
144.4
144.4
144.4
144.4
144.4
144.4
144.4
144.4
144.4
144.4
144.4
144.4
144.4
144.4
144.4
144.4
144.4
144.4
144.4
144.4
144.4
144.4
144.4
144.4
144.4
144.4
144.4
144.4
144.4
144.4
144.4
144.4
144.4
144.4
144.4
144.4
144.4
144.4
144.4
144.4
144.4
144.4
144.4
144.4
144.4
144.4
144.4
144.4
144.4
144.4
144.4
144.4
144.4
144.4
144.4
144.4
144.4
144.4
144.4
144.4
144.4
144.4
144.4
144.4
144.4
144.4
144.4
144.4
144.4
144.4
144.4
144.4
144.4
144.4
144.4
144.4
144.4
144.4
144.4
144.4
144.4
144.4
144.4
144.4
144.4
144.4
144.4
144.4
144.4
144.4
144.4
144.4
144.4
144.4
144.4
144.4
144.4
144.4
144.4
144.4
144.4
144.4
144.4
144.4
144.4
144.4
144.4
144.4
144.4
144.4
144.4
144.4
144.4
144.4
144.4
144.4
144.4
144.4
144.4
144.4
144.4
144.4
144.4
144.4
144.4
144.4
144.4
144.4
144.4
144.4
144.4
144.4
144.4
144.4
144.401
144.401
144.4
144.4
144.4
144.4
144.4
144.4
144.4
144.4
144.4
144.4
144.4
144.4
144.4
144.4
144.4
144.4
144.4
144.4
144.4
144.4
144.4
144.4
144.4
144.4
144.4
144.4
144.4
144.4
144.4
144.4
144.4
144.4
144.4
144.4
144.401
144.401
144.401
144.402
144.403
144.4
144.4
144.4
144.4
144.4
144.4
144.4
144.4
144.4
144.4
144.4
144.4
144.4
144.4
144.4
144.4
144.4
144.4
144.4
144.4
144.4
144.4
144.4
144.4
144.4
144.4
144.4
144.4
144.4
144.4
144.401
144.401
144.401
144.402
144.402
144.403
144.405
144.406
144.409
144.4
144.4
144.4
144.4
144.4
144.4
144.4
144.4
144.4
144.4
144.4
144.4
144.4
144.4
144.4
144.4
144.4
144.4
144.4
144.4
144.4
144.4
144.4
144.4
144.4
144.4
144.401
144.401
144.401
144.402
144.402
144.403
144.404
144.406
144.408
144.411
144.415
144.421
144.43
144.4
144.4
144.4
144.4
144.4
144.4
144.4
144.4
144.4
144.4
144.4
144.4
144.4
144.4
144.4
144.4
144.4
144.4
144.4
144.4
144.4
144.4
144.4
144.401
144.401
144.401
144.402
144.402
144.403
144.404
144.406
144.408
144.41
144.414
144.42
144.427
144.437
144.451
144.47
144.498
144.4
144.4
144.4
144.4
144.4
144.4
144.4
144.4
144.4
144.4
144.4
144.4
144.4
144.4
144.4
144.4
144.4
144.4
144.4
144.401
144.401
144.401
144.402
144.402
144.403
144.404
144.405
144.407
144.41
144.414
144.419
144.425
144.435
144.447
144.464
144.488
144.52
144.565
144.627
144.716
144.4
144.4
144.4
144.4
144.4
144.4
144.4
144.4
144.4
144.4
144.4
144.4
144.4
144.4
144.401
144.401
144.401
144.401
144.402
144.402
144.403
144.404
144.405
144.407
144.41
144.413
144.418
144.424
144.433
144.445
144.461
144.482
144.512
144.552
144.606
144.681
144.783
144.924
145.119
145.395
144.4
144.4
144.4
144.4
144.4
144.4
144.4
144.4
144.4
144.4
144.401
144.401
144.401
144.401
144.402
144.402
144.403
144.404
144.405
144.407
144.41
144.413
144.418
144.424
144.432
144.443
144.458
144.478
144.505
144.542
144.593
144.661
144.753
144.878
145.049
145.281
145.597
146.029
146.622
147.45
144.4
144.4
144.4
144.4
144.4
144.4
144.401
144.401
144.401
144.401
144.402
144.402
144.403
144.404
144.406
144.407
144.41
144.413
144.418
144.424
144.431
144.442
144.456
144.475
144.501
144.536
144.582
144.645
144.73
144.845
145
145.209
145.492
145.875
146.392
147.091
148.035
149.311
151.039
153.394
144.4
144.401
144.401
144.401
144.401
144.402
144.402
144.403
144.403
144.404
144.406
144.408
144.41
144.414
144.418
144.424
144.432
144.442
144.456
144.474
144.499
144.532
144.576
144.635
144.714
144.82
144.963
145.155
145.413
145.76
146.226
146.852
147.693
148.819
150.325
152.331
154.995
158.516
163.14
169.175
144.401
144.402
144.402
144.403
144.404
144.405
144.406
144.408
144.411
144.414
144.419
144.424
144.432
144.443
144.456
144.474
144.498
144.53
144.572
144.629
144.704
144.804
144.938
145.117
145.356
145.675
146.101
146.671
147.432
148.446
149.795
151.586
153.952
157.06
161.117
166.359
173.058
181.506
191.992
204.714
144.403
144.404
144.405
144.407
144.409
144.412
144.415
144.42
144.426
144.434
144.444
144.458
144.476
144.499
144.531
144.572
144.627
144.7
144.796
144.923
145.092
145.317
145.615
146.012
146.538
147.237
148.163
149.39
151.011
153.144
155.938
159.575
164.268
170.261
177.814
187.187
198.604
212.217
228.082
246.08
265.93
144.41
144.413
144.416
144.421
144.428
144.436
144.446
144.46
144.479
144.503
144.534
144.576
144.63
144.701
144.795
144.918
145.081
145.296
145.58
145.954
146.449
147.101
147.961
149.094
150.582
152.532
155.077
158.378
162.63
168.055
174.895
183.399
193.797
206.263
220.875
237.58
256.165
276.254
297.221
318.134
338.06
144.423
144.43
144.439
144.45
144.465
144.484
144.508
144.541
144.582
144.637
144.708
144.802
144.924
145.084
145.293
145.568
145.928
146.4
147.019
147.831
148.894
150.283
152.093
154.444
157.482
161.383
166.35
172.608
180.391
189.927
201.409
214.95
230.557
248.094
267.281
287.66
308.494
328.781
347.425
363.593
376.818
387.452
144.455
144.471
144.491
144.517
144.55
144.593
144.65
144.722
144.817
144.94
145.1
145.308
145.578
145.931
146.39
146.989
147.769
148.783
150.101
151.809
154.016
156.854
160.483
165.089
170.881
178.079
186.899
197.541
210.145
224.756
241.305
259.582
279.25
299.771
320.334
339.917
357.515
372.436
384.448
393.698
400.623
405.6
409.306
144.564
144.609
144.668
144.744
144.841
144.968
145.13
145.341
145.613
145.965
146.42
147.009
147.772
148.758
150.03
151.67
153.775
156.469
159.897
164.231
169.662
176.396
184.642
194.588
206.392
220.131
235.773
253.179
272.074
292.063
312.525
332.592
351.265
367.674
381.319
392.13
400.361
406.424
410.782
413.844
416.003
417.481
418.587
144.774
144.877
145.008
145.177
145.394
145.673
146.031
146.491
147.082
147.841
148.817
150.068
151.669
153.713
156.313
159.604
163.743
168.907
175.291
183.089
192.483
203.629
216.626
231.48
248.083
266.223
285.579
305.694
325.862
345.187
362.739
377.82
390.127
399.735
406.965
412.242
416.002
418.634
420.448
421.7
422.563
423.135
423.513
423.815
145.244
145.472
145.762
146.133
146.606
147.21
147.981
148.964
150.216
151.808
153.828
156.38
159.59
163.606
168.592
174.727
182.195
191.169
201.796
214.185
228.37
244.274
261.72
280.439
300.068
320.072
339.68
358.005
374.24
387.881
398.813
407.228
413.489
418.017
421.219
423.441
424.961
425.998
426.694
427.138
427.406
427.61
427.67
427.699
427.639
146.277
146.773
147.402
148.198
149.207
150.483
152.094
154.124
156.671
159.856
163.815
168.701
174.683
181.929
190.606
200.85
212.767
226.406
241.721
258.555
276.682
295.791
315.463
335.078
353.833
370.902
385.649
397.775
407.325
414.578
419.915
423.738
426.42
428.261
429.509
430.351
430.885
431.208
431.397
431.503
431.522
431.463
431.319
431.107
430.851
430.553
147.666
148.504
149.557
150.88
152.539
154.614
157.2
160.411
164.375
169.238
175.153
182.28
190.772
200.758
212.333
225.553
240.391
256.72
274.32
292.924
312.188
331.624
350.532
368.128
383.709
396.839
407.416
415.611
421.753
426.222
429.393
431.594
433.089
434.087
434.744
435.132
435.341
435.457
435.473
435.431
435.309
435.104
434.848
434.536
434.177
433.791
433.414
433.051
153.164
155.32
157.989
161.277
165.307
170.217
176.15
183.252
191.665
201.508
212.867
225.79
240.264
256.181
273.334
291.484
310.327
329.467
348.329
366.189
382.335
396.243
407.684
416.724
423.621
428.723
432.392
434.969
436.734
437.913
438.687
439.162
439.423
439.528
439.571
439.517
439.409
439.214
438.953
438.649
438.292
437.901
437.485
437.077
436.675
436.271
435.866
435.453
159.069
162.486
166.644
171.671
177.7
184.868
193.301
203.108
214.364
227.104
241.322
256.924
273.721
291.471
309.909
328.703
347.381
365.292
381.757
396.206
408.32
418.066
425.627
431.311
435.459
438.408
440.452
441.829
442.729
443.297
443.61
443.745
443.768
443.719
443.62
443.446
443.175
442.862
442.512
442.112
441.683
441.242
440.812
440.388
439.957
439.518
439.073
438.615
438.142
437.645
179.851
187.169
195.715
205.584
216.837
229.501
243.564
258.941
275.457
292.866
310.932
329.365
347.767
365.577
382.153
396.919
409.501
419.785
427.888
434.07
438.647
441.943
444.254
445.829
446.864
447.521
447.906
448.079
448.089
448.045
447.932
447.761
447.513
447.182
446.825
446.43
445.988
445.523
445.06
444.607
444.158
443.701
443.238
442.769
442.287
441.786
441.264
440.716
440.143
439.533
220.323
233.002
246.999
262.231
278.53
295.653
313.381
331.453
349.527
367.121
383.638
398.52
411.366
422.01
430.511
437.084
442.015
445.611
448.163
449.923
451.091
451.836
452.283
452.493
452.524
452.462
452.354
452.181
451.927
451.608
451.23
450.829
450.387
449.909
449.415
448.932
448.456
447.978
447.495
447.009
446.518
446.012
445.489
444.946
444.38
443.787
443.162
442.502
441.805
441.061
282.937
299.819
317.234
334.947
352.66
369.952
386.274
401.097
414.018
424.842
433.585
440.423
445.614
449.445
452.195
454.113
455.402
456.23
456.734
456.995
457.047
456.978
456.857
456.669
456.429
456.111
455.725
455.312
454.864
454.377
453.865
453.347
452.844
452.347
451.842
451.334
450.825
450.309
449.781
449.236
448.673
448.089
447.479
446.84
446.169
445.461
444.713
443.92
443.081
442.182
357.138
374.059
390.073
404.687
417.511
428.342
437.169
444.14
449.486
453.474
456.367
458.407
459.795
460.695
461.248
461.545
461.623
461.559
461.419
461.243
460.99
460.67
460.294
459.851
459.402
458.913
458.387
457.847
457.314
456.79
456.268
455.737
455.207
454.676
454.136
453.584
453.018
452.435
451.833
451.206
450.553
449.87
449.153
448.398
447.602
446.762
445.871
444.926
443.928
442.857
421.858
432.533
441.292
448.262
453.655
457.714
460.688
462.805
464.261
465.215
465.81
466.136
466.243
466.184
466.039
465.843
465.592
465.282
464.893
464.461
463.989
463.494
462.963
462.405
461.843
461.297
460.754
460.206
459.654
459.103
458.55
457.987
457.413
456.826
456.224
455.603
454.96
454.292
453.596
452.869
452.107
451.307
450.464
449.576
448.637
447.647
446.598
445.486
444.318
443.088
458.125
462.168
465.155
467.301
468.791
469.777
470.399
470.748
470.876
470.822
470.679
470.469
470.225
469.908
469.522
469.08
468.604
468.106
467.568
467.001
466.422
465.85
465.286
464.721
464.149
463.579
463.01
462.436
461.851
461.256
460.65
460.029
459.39
458.731
458.048
457.34
456.602
455.831
455.025
454.18
453.293
452.358
451.374
450.336
449.24
448.085
446.883
445.623
444.298
442.892
473.373
474.366
474.999
475.361
475.501
475.453
475.313
475.099
474.846
474.534
474.152
473.706
473.232
472.72
472.182
471.607
471.017
470.425
469.845
469.265
468.679
468.089
467.502
466.915
466.319
465.715
465.101
464.477
463.839
463.182
462.507
461.81
461.089
460.341
459.562
458.75
457.901
457.013
456.08
455.101
454.073
452.989
451.85
450.661
449.422
448.122
446.758
445.326
443.821
442.222
480.1
480.056
479.918
479.705
479.445
479.138
478.762
478.316
477.83
477.327
476.787
476.209
475.609
475.004
474.411
473.816
473.219
472.613
472.011
471.41
470.805
470.189
469.567
468.937
468.296
467.64
466.968
466.279
465.568
464.835
464.076
463.289
462.47
461.617
460.728
459.796
458.821
457.8
456.727
455.6
454.425
453.203
451.925
450.587
449.186
447.718
446.176
444.557
442.862
441.071
484.003
483.702
483.328
482.885
482.398
481.894
481.361
480.784
480.175
479.564
478.96
478.359
477.749
477.133
476.518
475.905
475.29
474.666
474.035
473.397
472.752
472.094
471.423
470.736
470.033
469.31
468.566
467.797
467.002
466.177
465.319
464.428
463.496
462.524
461.51
460.445
459.33
458.167
456.962
455.703
454.387
453.013
451.577
450.071
448.494
446.845
445.121
443.319
441.439
439.462
486.914
486.414
485.885
485.311
484.704
484.086
483.477
482.872
482.255
481.631
481.005
480.384
479.76
479.129
478.49
477.846
477.195
476.534
475.862
475.176
474.477
473.761
473.026
472.271
471.493
470.69
469.859
468.997
468.103
467.172
466.202
465.193
464.135
463.031
461.88
460.689
459.449
458.153
456.804
455.396
453.923
452.382
450.773
449.093
447.34
445.514
443.613
441.634
439.579
437.43
489.173
488.559
487.947
487.339
486.721
486.093
485.46
484.832
484.202
483.565
482.92
482.27
481.614
480.951
480.276
479.59
478.892
478.18
477.453
476.707
475.942
475.155
474.344
473.507
472.642
471.745
470.813
469.846
468.84
467.79
466.695
465.556
464.379
463.155
461.879
460.552
459.169
457.727
456.218
454.645
453.006
451.297
449.518
447.668
445.745
443.749
441.68
439.54
437.332
435.027
491.134
490.506
489.869
489.238
488.605
487.965
487.314
486.659
486
485.334
484.658
483.97
483.273
482.564
481.841
481.102
480.346
479.571
478.776
477.958
477.115
476.246
475.346
474.414
473.448
472.445
471.401
470.315
469.187
468.023
466.815
465.556
464.25
462.892
461.477
459.998
458.459
456.856
455.188
453.453
451.65
449.777
447.834
445.821
443.738
441.588
439.373
437.084
434.729
432.283
492.96
492.318
491.666
491.008
490.347
489.679
489
488.312
487.614
486.907
486.186
485.452
484.703
483.937
483.154
482.351
481.526
480.677
479.803
478.901
477.967
477.002
476.002
474.963
473.884
472.768
471.616
470.421
469.179
467.893
466.557
465.167
463.716
462.208
460.64
459.01
457.315
455.555
453.73
451.836
449.876
447.847
445.75
443.591
441.366
439.074
436.72
434.296
431.81
429.237
494.648
493.979
493.3
492.612
491.914
491.207
490.489
489.758
489.013
488.254
487.48
486.687
485.876
485.044
484.19
483.311
482.405
481.47
480.506
479.507
478.472
477.4
476.294
475.153
473.971
472.744
471.476
470.16
468.793
467.369
465.89
464.354
462.758
461.101
459.383
457.601
455.754
453.842
451.865
449.822
447.714
445.546
443.314
441.017
438.661
436.24
433.76
431.215
428.621
425.944
496.867
496.171
495.464
494.748
494.019
493.278
492.524
491.756
490.972
490.171
489.352
488.512
487.652
486.768
485.858
484.921
483.957
482.958
481.926
480.859
479.763
478.631
477.46
476.248
474.996
473.699
472.353
470.953
469.501
467.994
466.431
464.81
463.129
461.388
459.586
457.72
455.791
453.8
451.743
449.626
447.449
445.211
442.911
440.553
438.133
435.658
433.123
430.539
427.895
425.218
422.462
498.239
497.501
496.751
495.987
495.209
494.416
493.607
492.779
491.932
491.066
490.175
489.261
488.321
487.354
486.356
485.326
484.264
483.175
482.051
480.889
479.691
478.454
477.173
475.845
474.467
473.039
471.56
470.027
468.439
466.794
465.091
463.329
461.507
459.625
457.68
455.676
453.608
451.482
449.298
447.055
444.753
442.395
439.976
437.505
434.977
432.402
429.772
427.112
424.394
421.652
418.843
500.179
499.406
498.619
497.817
496.998
496.162
495.307
494.433
493.537
492.617
491.674
490.703
489.703
488.674
487.618
486.533
485.415
484.261
483.074
481.849
480.584
479.271
477.913
476.508
475.053
473.547
471.989
470.377
468.71
466.986
465.205
463.365
461.467
459.508
457.492
455.414
453.281
451.092
448.845
446.541
444.183
441.767
439.3
436.779
434.213
431.595
428.947
426.247
423.526
420.759
417.978
415.141
501.177
500.35
499.505
498.642
497.76
496.856
495.931
494.983
494.008
493.005
491.976
490.923
489.841
488.727
487.58
486.402
485.188
483.933
482.635
481.294
479.909
478.476
476.995
475.463
473.882
472.247
470.559
468.815
467.016
465.159
463.246
461.275
459.248
457.161
455.023
452.827
450.578
448.273
445.916
443.502
441.042
438.528
435.972
433.366
430.729
428.045
425.34
422.594
419.836
417.042
414.246
411.406
501.942
501.052
500.141
499.209
498.254
497.274
496.268
495.239
494.186
493.104
491.992
490.851
489.68
488.473
487.228
485.941
484.616
483.246
481.833
480.374
478.868
477.312
475.708
474.05
472.342
470.579
468.764
466.891
464.965
462.981
460.944
458.85
456.706
454.505
452.255
449.948
447.593
445.184
442.729
440.223
437.676
435.083
432.458
429.789
427.1
424.372
421.632
418.861
416.089
413.293
410.505
407.686
502.457
501.494
500.508
499.498
498.468
497.413
496.33
495.219
494.083
492.915
491.714
490.475
489.199
487.884
486.53
485.132
483.692
482.207
480.676
479.097
477.47
475.792
474.064
472.282
470.451
468.563
466.624
464.629
462.583
460.481
458.333
456.128
453.876
451.57
449.217
446.81
444.362
441.864
439.327
436.746
434.133
431.48
428.805
426.096
423.373
420.623
417.869
415.097
412.332
409.557
406.799
404.022
502.703
501.669
500.611
499.526
498.416
497.28
496.115
494.916
493.682
492.413
491.109
489.765
488.381
486.957
485.491
483.98
482.425
480.822
479.173
477.475
475.727
473.929
472.081
470.178
468.228
466.222
464.166
462.06
459.906
457.697
455.444
453.138
450.786
448.385
445.942
443.452
440.924
438.356
435.754
433.116
430.458
427.766
425.059
422.329
419.594
416.842
414.096
411.344
408.608
405.873
403.166
400.452
502.698
501.588
500.452
499.286
498.088
496.857
495.594
494.296
492.961
491.589
490.178
488.727
487.234
485.698
484.118
482.493
480.823
479.104
477.338
475.523
473.658
471.743
469.78
467.763
465.7
463.588
461.427
459.217
456.962
454.656
452.307
449.91
447.471
444.99
442.472
439.914
437.325
434.703
432.057
429.383
426.693
423.982
421.264
418.533
415.805
413.073
410.354
407.641
404.953
402.278
399.639
397.007
502.436
501.238
500.009
498.749
497.456
496.128
494.764
493.364
491.925
490.447
488.928
487.367
485.764
484.117
482.424
480.686
478.901
477.069
475.188
473.26
471.284
469.258
467.188
465.069
462.903
460.691
458.433
456.129
453.781
451.387
448.955
446.481
443.971
441.424
438.848
436.238
433.607
430.95
428.276
425.583
422.882
420.171
417.459
414.747
412.045
409.351
406.677
404.022
401.399
398.801
396.246
393.709
500.595
499.271
497.914
496.522
495.093
493.627
492.123
490.578
488.993
487.366
485.697
483.983
482.225
480.422
478.572
476.677
474.736
472.747
470.713
468.634
466.509
464.339
462.123
459.864
457.559
455.212
452.823
450.395
447.928
445.427
442.891
440.325
437.73
435.111
432.469
429.81
427.136
424.451
421.758
419.063
416.37
413.684
411.007
408.349
405.709
403.098
400.515
397.972
395.465
393.007
390.578
499.661
498.24
496.784
495.291
493.76
492.191
490.581
488.931
487.239
485.505
483.727
481.906
480.04
478.13
476.175
474.175
472.132
470.045
467.913
465.738
463.519
461.257
458.953
456.607
454.221
451.798
449.338
446.844
444.318
441.762
439.18
436.573
433.946
431.302
428.642
425.973
423.298
420.62
417.943
415.273
412.613
409.969
407.344
404.745
402.174
399.64
397.143
394.693
392.288
389.937
387.624
498.441
496.921
495.365
493.77
492.137
490.464
488.75
486.995
485.198
483.359
481.477
479.552
477.584
475.574
473.521
471.425
469.287
467.107
464.884
462.62
460.315
457.97
455.587
453.168
450.714
448.227
445.709
443.163
440.592
437.997
435.384
432.753
430.109
427.455
424.795
422.132
419.471
416.817
414.172
411.542
408.931
406.344
403.784
401.259
398.77
396.324
393.924
391.576
389.281
387.045
384.854
495.321
493.664
491.968
490.233
488.458
486.642
484.785
482.887
480.949
478.969
476.948
474.885
472.781
470.637
468.45
466.223
463.956
461.65
459.306
456.926
454.51
452.061
449.581
447.071
444.535
441.973
439.39
436.788
434.17
431.54
428.9
426.254
423.606
420.96
418.319
415.688
413.072
410.473
407.897
405.348
402.831
400.349
397.908
395.511
393.164
390.868
388.631
386.451
384.334
382.269
493.45
491.694
489.899
488.065
486.191
484.279
482.327
480.334
478.302
476.23
474.118
471.965
469.773
467.542
465.272
462.965
460.621
458.242
455.83
453.385
450.911
448.409
445.88
443.328
440.756
438.164
435.559
432.94
430.313
427.68
425.046
422.413
419.785
417.167
414.563
411.976
409.41
406.871
404.361
401.886
399.449
397.055
394.708
392.41
390.168
387.983
385.86
383.799
381.804
379.864
491.322
489.471
487.582
485.655
483.688
481.684
479.641
477.559
475.438
473.278
471.08
468.844
466.571
464.263
461.919
459.542
457.132
454.692
452.223
449.727
447.206
444.663
442.099
439.519
436.923
434.316
431.701
429.08
426.457
423.836
421.221
418.614
416.021
413.444
410.888
408.357
405.854
403.385
400.952
398.56
396.212
393.913
391.666
389.474
387.341
385.27
383.264
381.323
379.449
377.634
488.96
487.018
485.039
483.023
480.969
478.876
476.746
474.579
472.375
470.135
467.859
465.549
463.205
460.829
458.422
455.985
453.521
451.031
448.517
445.981
443.426
440.855
438.269
435.673
433.068
430.458
427.846
425.236
422.631
420.035
417.451
414.883
412.335
409.811
407.315
404.85
402.42
400.029
397.682
395.38
393.128
390.93
388.788
386.705
384.684
382.728
380.838
379.016
377.261
375.567
486.382
484.352
482.287
480.185
478.047
475.872
473.663
471.418
469.139
466.827
464.483
462.108
459.703
457.269
454.809
452.325
449.817
447.289
444.742
442.179
439.602
437.014
434.419
431.819
429.217
426.617
424.022
421.434
418.859
416.299
413.758
411.24
408.749
406.287
403.86
401.47
399.121
396.816
394.56
392.354
390.203
388.108
386.073
384.1
382.192
380.35
378.575
376.869
375.231
373.651
483.599
481.488
479.341
477.16
474.945
472.696
470.415
468.101
465.756
463.382
460.979
458.549
456.093
453.613
451.111
448.589
446.049
443.494
440.926
438.347
435.761
433.169
430.577
427.985
425.398
422.819
420.251
417.698
415.163
412.65
410.162
407.703
405.277
402.887
400.536
398.227
395.965
393.752
391.591
389.484
387.436
385.447
383.52
381.657
379.859
378.129
376.466
374.871
373.344
371.871
480.633
478.445
476.225
473.972
471.688
469.373
467.028
464.654
462.253
459.826
457.374
454.899
452.402
449.887
447.354
444.806
442.245
439.674
437.096
434.513
431.928
429.344
426.765
424.193
421.632
419.084
416.554
414.045
411.56
409.103
406.677
404.285
401.932
399.619
397.35
395.129
392.958
390.839
388.776
386.771
384.825
382.942
381.122
379.366
377.677
376.054
374.499
373.009
371.585
370.215
475.248
472.961
470.645
468.3
465.927
463.528
461.104
458.655
456.185
453.694
451.184
448.657
446.116
443.563
441
438.429
435.854
433.276
430.7
428.127
425.562
423.006
420.464
417.938
415.432
412.949
410.492
408.066
405.672
403.314
400.996
398.721
396.49
394.308
392.177
390.1
388.078
386.114
384.209
382.367
380.587
378.871
377.22
375.634
374.114
372.659
371.269
369.942
368.666
471.919
469.574
467.202
464.805
462.384
459.939
457.473
454.988
452.484
449.963
447.429
444.883
442.327
439.763
437.195
434.625
432.055
429.489
426.929
424.378
421.84
419.318
416.814
414.333
411.876
409.448
407.052
404.69
402.366
400.082
397.842
395.649
393.505
391.412
389.373
387.39
385.465
383.599
381.794
380.052
378.373
376.757
375.206
373.719
372.295
370.936
369.637
368.4
367.211
468.481
466.086
463.668
461.227
458.766
456.285
453.787
451.274
448.746
446.206
443.657
441.101
438.54
435.976
433.413
430.853
428.298
425.753
423.219
420.699
418.197
415.717
413.26
410.829
408.43
406.063
403.732
401.44
399.19
396.985
394.827
392.719
390.662
388.66
386.713
384.824
382.995
381.226
379.518
377.873
376.29
374.77
373.313
371.919
370.586
369.314
368.101
366.944
365.834
462.519
460.063
457.588
455.096
452.589
450.068
447.536
444.994
442.444
439.89
437.333
434.776
432.222
429.673
427.132
424.601
422.084
419.584
417.104
414.646
412.214
409.81
407.438
405.1
402.8
400.539
398.322
396.15
394.025
391.951
389.928
387.96
386.048
384.193
382.397
380.661
378.985
377.371
375.818
374.327
372.898
371.529
370.221
368.972
367.781
366.645
365.562
364.523
458.896
456.41
453.91
451.396
448.871
446.336
443.794
441.247
438.697
436.146
433.598
431.054
428.517
425.991
423.477
420.978
418.498
416.039
413.605
411.197
408.819
406.475
404.165
401.894
399.664
397.477
395.336
393.244
391.201
389.211
387.275
385.395
383.572
381.807
380.1
378.454
376.868
375.343
373.878
372.473
371.128
369.842
368.613
367.441
366.323
365.258
364.241
363.265
452.73
450.212
447.685
445.151
442.611
440.068
437.524
434.982
432.444
429.912
427.389
424.878
422.381
419.901
417.442
415.005
412.593
410.21
407.858
405.54
403.258
401.016
398.815
396.657
394.546
392.484
390.472
388.512
386.606
384.755
382.96
381.224
379.545
377.926
376.366
374.865
373.424
372.041
370.717
369.45
368.239
367.084
365.981
364.93
363.927
362.97
362.049
449.04
446.514
443.982
441.447
438.91
436.374
433.842
431.315
428.797
426.289
423.794
421.315
418.855
416.416
414.001
411.613
409.254
406.928
404.635
402.38
400.165
397.992
395.862
393.78
391.746
389.762
387.83
385.951
384.128
382.36
380.649
378.996
377.401
375.864
374.385
372.965
371.602
370.296
369.046
367.851
366.71
365.62
364.581
363.589
362.642
361.737
360.865
442.832
440.303
437.775
435.249
432.728
430.214
427.71
425.218
422.741
420.281
417.841
415.423
413.03
410.665
408.33
406.028
403.761
401.532
399.342
397.195
395.093
393.037
391.029
389.072
387.166
385.313
383.514
381.771
380.083
378.453
376.88
375.363
373.904
372.502
371.157
369.867
368.632
367.45
366.321
365.242
364.212
363.229
362.291
361.394
360.535
359.706
439.182
436.663
434.149
431.641
429.141
426.653
424.178
421.719
419.278
416.858
414.461
412.091
409.748
407.437
405.159
402.917
400.712
398.548
396.426
394.349
392.318
390.335
388.402
386.52
384.691
382.915
381.194
379.528
377.917
376.363
374.866
373.424
372.038
370.707
369.431
368.208
367.038
365.919
364.849
363.827
362.851
361.918
361.027
360.173
359.355
358.563
435.576
433.075
430.581
428.097
425.625
423.168
420.728
418.307
415.907
413.532
411.183
408.864
406.576
404.321
402.102
399.922
397.782
395.684
393.63
391.623
389.663
387.753
385.893
384.085
382.33
380.629
378.982
377.39
375.853
374.371
372.945
371.572
370.254
368.99
367.777
366.616
365.505
364.442
363.426
362.455
361.526
360.638
359.788
358.974
358.19
357.431
432.027
429.549
427.082
424.628
422.189
419.768
417.367
414.989
412.635
410.308
408.011
405.745
403.514
401.318
399.161
397.043
394.968
392.937
390.952
389.014
387.124
385.285
383.497
381.761
380.077
378.447
376.871
375.35
373.882
372.468
371.107
369.8
368.545
367.341
366.187
365.082
364.024
363.012
362.044
361.118
360.232
359.383
358.57
357.788
357.036
356.304
428.545
426.095
423.659
421.24
418.839
416.459
414.101
411.769
409.464
407.189
404.946
402.736
400.563
398.428
396.333
394.279
392.269
390.305
388.387
386.517
384.696
382.926
381.206
379.539
377.924
376.363
374.854
373.398
371.995
370.644
369.345
368.097
366.9
365.751
364.651
363.596
362.587
361.621
360.695
359.81
358.961
358.147
357.365
356.613
355.886
355.178
425.137
422.72
420.321
417.94
415.581
413.245
410.934
408.651
406.398
404.176
401.989
399.837
397.723
395.649
393.616
391.626
389.681
387.782
385.93
384.126
382.372
380.668
379.015
377.414
375.864
374.366
372.92
371.526
370.183
368.891
367.649
366.456
365.311
364.213
363.161
362.152
361.186
360.261
359.374
358.523
357.707
356.924
356.17
355.443
354.739
354.051
421.809
419.43
417.071
414.732
412.418
410.129
407.867
405.636
403.436
401.27
399.139
397.046
394.991
392.978
391.007
389.08
387.198
385.363
383.575
381.836
380.146
378.506
376.916
375.377
373.888
372.451
371.064
369.727
368.44
367.202
366.012
364.869
363.772
362.72
361.711
360.743
359.816
358.926
358.073
357.254
356.467
355.71
354.98
354.275
353.59
352.92
416.229
413.913
411.62
409.352
407.113
404.902
402.724
400.578
398.468
396.394
394.36
392.365
390.412
388.502
386.637
384.817
383.043
381.317
379.639
378.011
376.431
374.901
373.42
371.99
370.608
369.276
367.993
366.757
365.568
364.426
363.329
362.275
361.264
360.294
359.363
358.47
357.613
356.789
355.998
355.236
354.502
353.793
353.107
352.439
351.784
413.12
410.849
408.603
406.385
404.196
402.038
399.913
397.823
395.769
393.753
391.776
389.84
387.946
386.096
384.29
382.53
380.816
379.15
377.53
375.96
374.437
372.963
371.538
370.161
368.832
367.55
366.316
365.127
363.984
362.885
361.829
360.814
359.84
358.905
358.007
357.144
356.315
355.518
354.751
354.011
353.297
352.607
351.937
351.284
350.642
410.104
407.88
405.683
403.515
401.378
399.273
397.203
395.167
393.169
391.21
389.29
387.412
385.576
383.783
382.035
380.333
378.676
377.066
375.502
373.986
372.517
371.096
369.722
368.395
367.114
365.879
364.69
363.544
362.442
361.382
360.363
359.384
358.443
357.539
356.67
355.834
355.031
354.257
353.511
352.791
352.094
351.42
350.764
350.123
349.493
405.006
402.859
400.742
398.657
396.606
394.589
392.608
390.665
388.761
386.898
385.075
383.295
381.559
379.866
378.218
376.616
375.059
373.548
372.084
370.665
369.293
367.967
366.685
365.449
364.257
363.109
362.002
360.938
359.913
358.928
357.98
357.069
356.192
355.349
354.538
353.756
353.003
352.275
351.572
350.892
350.231
349.587
348.958
348.338
402.225
400.129
398.064
396.031
394.032
392.069
390.142
388.253
386.403
384.594
382.826
381.1
379.416
377.777
376.181
374.63
373.123
371.662
370.246
368.874
367.548
366.265
365.027
363.831
362.678
361.567
360.497
359.466
358.473
357.518
356.599
355.714
354.862
354.042
353.252
352.49
351.754
351.043
350.355
349.688
349.04
348.407
347.788
347.176
399.537
397.491
395.477
393.496
391.549
389.638
387.764
385.928
384.131
382.374
380.658
378.983
377.351
375.761
374.215
372.712
371.253
369.838
368.467
367.139
365.855
364.613
363.413
362.255
361.138
360.061
359.023
358.022
357.058
356.13
355.236
354.375
353.545
352.746
351.974
351.23
350.51
349.814
349.139
348.484
347.846
347.224
346.613
346.01
396.938
394.942
392.979
391.048
389.153
387.293
385.47
383.685
381.939
380.232
378.565
376.94
375.356
373.814
372.315
370.857
369.443
368.071
366.741