/*--------------------------------*- C++ -*----------------------------------*\
| =========                 |                                                 |
| \\      /  F ield         | OpenFOAM: The Open Source CFD Toolbox           |
|  \\    /   O peration     | Version:  v1706                                 |
|   \\  /    A nd           | Web:      www.OpenFOAM.com                      |
|    \\/     M anipulation  |                                                 |
\*---------------------------------------------------------------------------*/
FoamFile
{
    version     2.0;
    format      ascii;
    class       volVectorField;
    location    "2e-05";
    object      U;
}
// * * * * * * * * * * * * * * * * * * * * * * * * * * * * * * * * * * * * * //

dimensions      [0 1 -1 0 0 0 0];


internalField   nonuniform List<vector> 
30038
(
(978.58 -1.13777e-10 5.37681e-15)
(978.58 -1.1577e-10 4.01147e-15)
(978.58 -1.17346e-10 7.80688e-15)
(978.58 -1.2042e-10 3.35917e-15)
(978.58 -1.21959e-10 4.81589e-15)
(978.58 -1.23694e-10 5.34808e-15)
(978.58 -1.25705e-10 8.93732e-15)
(978.58 -1.27891e-10 8.97718e-15)
(978.58 -1.29863e-10 4.75925e-15)
(978.58 -1.31524e-10 5.57092e-15)
(978.58 -1.33335e-10 1.01509e-14)
(978.58 -1.35712e-10 6.58434e-15)
(978.58 -1.37398e-10 5.16902e-15)
(978.58 -1.37502e-10 3.56078e-15)
(978.58 -1.3675e-10 6.89525e-15)
(978.58 -1.32127e-10 8.15341e-15)
(978.58 -1.25025e-10 5.81262e-15)
(978.58 -1.16843e-10 3.37815e-15)
(978.58 -1.05692e-10 5.77523e-15)
(978.58 -9.25804e-11 7.40275e-15)
(978.58 -7.15309e-11 7.35164e-15)
(978.58 -3.57916e-11 4.25741e-15)
(978.58 1.90615e-11 3.06715e-15)
(978.58 1.10287e-10 8.19602e-15)
(978.58 2.60984e-10 6.00754e-15)
(978.58 4.8478e-10 4.39094e-15)
(978.58 7.99725e-10 5.67406e-15)
(978.58 1.23117e-09 9.30721e-15)
(978.58 1.81301e-09 1.05697e-14)
(978.58 2.60716e-09 8.59167e-15)
(978.58 3.71e-09 8.376e-15)
(978.58 5.25904e-09 1.00949e-14)
(978.58 7.44694e-09 8.24699e-15)
(978.58 1.05522e-08 8.48543e-15)
(978.58 1.49918e-08 1.05067e-14)
(978.58 2.13457e-08 6.41382e-15)
(978.58 3.12768e-08 4.1721e-15)
(978.58 4.63912e-08 8.316e-15)
(978.58 -3.281e-10 1.79061e-14)
(978.58 -3.32829e-10 2.01844e-14)
(978.58 -3.36975e-10 1.88993e-14)
(978.58 -3.42747e-10 1.86981e-14)
(978.58 -3.48737e-10 2.15954e-14)
(978.58 -3.54977e-10 2.00548e-14)
(978.58 -3.59952e-10 2.22197e-14)
(978.58 -3.64411e-10 2.14415e-14)
(978.58 -3.68692e-10 1.67898e-14)
(978.58 -3.72247e-10 2.11227e-14)
(978.58 -3.71783e-10 1.93114e-14)
(978.58 -3.65031e-10 1.56548e-14)
(978.58 -3.61494e-10 1.81141e-14)
(978.58 -3.52552e-10 1.94152e-14)
(978.58 -3.42491e-10 2.09271e-14)
(978.58 -3.27476e-10 2.01045e-14)
(978.58 -3.04197e-10 1.96007e-14)
(978.58 -2.63421e-10 1.83158e-14)
(978.58 -1.94076e-10 1.82874e-14)
(978.58 -7.46794e-11 1.94861e-14)
(978.58 1.18735e-10 1.98176e-14)
(978.58 4.14141e-10 2.12501e-14)
(978.58 8.57173e-10 2.15451e-14)
(978.58 1.50079e-09 2.08514e-14)
(978.58 2.40619e-09 1.99338e-14)
(978.58 3.64092e-09 2.09425e-14)
(978.58 5.30449e-09 2.10145e-14)
(978.58 7.59378e-09 2.04976e-14)
(978.58 1.08014e-08 2.32876e-14)
(978.58 1.53192e-08 2.07931e-14)
(978.58 2.16904e-08 2.01948e-14)
(978.58 3.06815e-08 2.75022e-14)
(978.58 4.3385e-08 2.62006e-14)
(978.58 6.13661e-08 2.42892e-14)
(978.58 8.69522e-08 2.43321e-14)
(978.58 1.23231e-07 2.07437e-14)
(978.58 1.77999e-07 2.11208e-14)
(978.58 2.63427e-07 2.36513e-14)
(978.58 -5.30949e-10 3.21271e-14)
(978.58 -5.38275e-10 3.39331e-14)
(978.58 -5.45109e-10 3.10603e-14)
(978.58 -5.50639e-10 2.88885e-14)
(978.58 -5.56846e-10 3.13089e-14)
(978.58 -5.60977e-10 3.26405e-14)
(978.58 -5.59513e-10 3.24155e-14)
(978.58 -5.57621e-10 2.67652e-14)
(978.58 -5.547e-10 2.78191e-14)
(978.58 -5.50433e-10 2.84001e-14)
(978.58 -5.41662e-10 2.70877e-14)
(978.58 -5.25149e-10 2.95857e-14)
(978.58 -4.95881e-10 3.10978e-14)
(978.58 -4.46966e-10 3.10967e-14)
(978.58 -3.62661e-10 3.12828e-14)
(978.58 -2.19445e-10 3.35384e-14)
(978.58 2.60015e-12 3.28311e-14)
(978.58 3.40229e-10 3.29718e-14)
(978.58 8.38177e-10 3.33244e-14)
(978.58 1.55671e-09 3.28253e-14)
(978.58 2.5386e-09 3.27789e-14)
(978.58 3.84837e-09 3.34796e-14)
(978.58 5.60766e-09 3.15126e-14)
(978.58 7.99359e-09 3.3144e-14)
(978.58 1.12989e-08 3.61254e-14)
(978.58 1.59417e-08 3.46161e-14)
(978.58 2.24782e-08 3.20599e-14)
(978.58 3.16669e-08 3.06502e-14)
(978.58 4.45786e-08 3.48748e-14)
(978.58 6.27241e-08 3.50631e-14)
(978.58 8.82371e-08 3.52284e-14)
(978.58 1.24136e-07 3.71383e-14)
(978.58 1.74753e-07 3.5835e-14)
(978.58 2.46074e-07 3.64114e-14)
(978.58 3.47514e-07 3.73967e-14)
(978.58 4.90026e-07 3.6252e-14)
(978.58 7.06677e-07 3.36831e-14)
(978.58 1.03463e-06 3.65456e-14)
(978.58 -7.1546e-10 4.57756e-14)
(978.58 -7.15689e-10 4.48146e-14)
(978.58 -7.16362e-10 4.29686e-14)
(978.58 -7.15977e-10 4.23898e-14)
(978.58 -7.14746e-10 4.53692e-14)
(978.58 -7.10143e-10 4.21334e-14)
(978.58 -7.02676e-10 4.12622e-14)
(978.58 -6.79454e-10 4.15485e-14)
(978.58 -6.41797e-10 4.27063e-14)
(978.58 -5.79302e-10 4.16839e-14)
(978.58 -4.72554e-10 4.46264e-14)
(978.58 -3.02792e-10 4.55375e-14)
(978.58 -4.30135e-11 4.57531e-14)
(978.58 3.42855e-10 4.11365e-14)
(978.58 9.07911e-10 4.41635e-14)
(978.58 1.69266e-09 4.51382e-14)
(978.58 2.74917e-09 4.50841e-14)
(978.58 4.13738e-09 4.80111e-14)
(978.58 5.98338e-09 4.77059e-14)
(978.58 8.50699e-09 4.50878e-14)
(978.58 1.20407e-08 4.42092e-14)
(978.58 1.69853e-08 4.40987e-14)
(978.58 2.38731e-08 4.76144e-14)
(978.58 3.34756e-08 4.86736e-14)
(978.58 4.68769e-08 4.73819e-14)
(978.58 6.55867e-08 4.76604e-14)
(978.58 9.17333e-08 4.65022e-14)
(978.58 1.2832e-07 4.52775e-14)
(978.58 1.79562e-07 4.74009e-14)
(978.58 2.5138e-07 4.818e-14)
(978.58 3.52131e-07 4.70315e-14)
(978.58 4.93592e-07 4.85565e-14)
(978.58 6.92605e-07 4.81852e-14)
(978.58 9.72282e-07 4.80982e-14)
(978.58 1.36905e-06 5.05284e-14)
(978.58 1.92506e-06 5.14551e-14)
(978.58 2.76662e-06 5.03801e-14)
(978.58 4.03173e-06 5.0785e-14)
(978.58 -8.49995e-10 5.42621e-14)
(978.58 -8.45948e-10 5.65287e-14)
(978.58 -8.24496e-10 5.62056e-14)
(978.58 -7.96324e-10 5.48479e-14)
(978.58 -7.49212e-10 5.40304e-14)
(978.58 -6.6728e-10 5.5365e-14)
(978.58 -5.32695e-10 5.72389e-14)
(978.58 -3.29358e-10 5.86541e-14)
(978.58 -2.06507e-11 5.94598e-14)
(978.58 4.34743e-10 5.95253e-14)
(978.58 1.07198e-09 5.89214e-14)
(978.58 1.93874e-09 5.83393e-14)
(978.58 3.0664e-09 5.66413e-14)
(978.58 4.54428e-09 5.69116e-14)
(978.58 6.54278e-09 5.90511e-14)
(978.58 9.30344e-09 6.05804e-14)
(978.58 1.31179e-08 6.20191e-14)
(978.58 1.83999e-08 5.90098e-14)
(978.58 2.57428e-08 5.77862e-14)
(978.58 3.59206e-08 5.96935e-14)
(978.58 4.99987e-08 5.62862e-14)
(978.58 6.95117e-08 5.65981e-14)
(978.58 9.66384e-08 6.18884e-14)
(978.58 1.34388e-07 6.05579e-14)
(978.58 1.86928e-07 6.10082e-14)
(978.58 2.60122e-07 6.23327e-14)
(978.58 3.62212e-07 6.13615e-14)
(978.58 5.04726e-07 5.52173e-14)
(978.58 7.03826e-07 5.49266e-14)
(978.58 9.82223e-07 5.6754e-14)
(978.58 1.37192e-06 6.17917e-14)
(978.58 1.91775e-06 6.51557e-14)
(978.58 2.68373e-06 6.17816e-14)
(978.58 3.75757e-06 6.04792e-14)
(978.58 5.27686e-06 6.15701e-14)
(978.58 7.4005e-06 6.29737e-14)
(978.58 1.0599e-05 6.41956e-14)
(978.58 1.53714e-05 6.43081e-14)
(978.58 -8.22703e-10 7.01391e-14)
(978.58 -7.12815e-10 6.98764e-14)
(978.58 -5.456e-10 6.64582e-14)
(978.58 -2.90937e-10 6.42376e-14)
(978.58 8.69983e-11 6.7501e-14)
(978.58 6.15974e-10 6.83827e-14)
(978.58 1.34608e-09 6.86893e-14)
(978.58 2.28838e-09 7.58739e-14)
(978.58 3.51466e-09 7.44455e-14)
(978.58 5.15364e-09 7.14909e-14)
(978.58 7.37064e-09 7.11278e-14)
(978.58 1.03967e-08 7.01201e-14)
(978.58 1.45764e-08 6.95285e-14)
(978.58 2.03525e-08 7.03812e-14)
(978.58 2.82833e-08 6.96268e-14)
(978.58 3.91542e-08 7.12384e-14)
(978.58 5.41072e-08 7.34304e-14)
(978.58 7.47592e-08 6.99386e-14)
(978.58 1.03292e-07 6.89517e-14)
(978.58 1.42691e-07 7.19166e-14)
(978.58 1.97173e-07 7.18375e-14)
(978.58 2.72642e-07 7.34707e-14)
(978.58 3.77272e-07 7.21319e-14)
(978.58 5.22421e-07 7.0282e-14)
(978.58 7.23981e-07 7.07699e-14)
(978.58 1.00418e-06 7.61272e-14)
(978.58 1.39405e-06 7.66893e-14)
(978.58 1.93698e-06 7.00899e-14)
(978.58 2.69375e-06 7.26228e-14)
(978.58 3.74952e-06 7.30338e-14)
(978.58 5.22384e-06 7.14017e-14)
(978.58 7.28393e-06 7.28498e-14)
(978.58 1.01678e-05 7.42681e-14)
(978.58 1.42013e-05 7.71953e-14)
(978.58 1.98915e-05 7.56668e-14)
(978.58 2.78247e-05 7.23082e-14)
(978.58 3.9714e-05 7.40809e-14)
(978.58 5.73274e-05 7.52341e-14)
(978.58 2.82485e-10 8.21352e-14)
(978.58 9.11194e-10 8.21326e-14)
(978.58 1.7269e-09 8.42572e-14)
(978.58 2.77647e-09 8.53982e-14)
(978.58 4.16005e-09 8.32725e-14)
(978.58 5.99945e-09 8.13273e-14)
(978.58 8.48444e-09 8.4015e-14)
(978.58 1.18974e-08 8.56808e-14)
(978.58 1.65792e-08 8.19883e-14)
(978.58 2.29453e-08 8.54046e-14)
(978.58 3.15914e-08 8.36886e-14)
(978.58 4.33968e-08 8.16059e-14)
(978.58 5.95815e-08 8.10821e-14)
(978.58 8.1752e-08 8.05057e-14)
(978.58 1.12117e-07 8.07932e-14)
(978.58 1.53796e-07 8.39238e-14)
(978.58 2.11103e-07 8.47187e-14)
(978.58 2.89953e-07 8.55454e-14)
(978.58 3.98512e-07 8.3387e-14)
(978.58 5.48157e-07 8.53956e-14)
(978.58 7.54705e-07 8.38537e-14)
(978.58 1.04006e-06 8.30542e-14)
(978.58 1.43463e-06 8.25939e-14)
(978.58 1.98078e-06 8.4356e-14)
(978.58 2.73752e-06 8.31021e-14)
(978.58 3.78702e-06 8.74692e-14)
(978.58 5.24382e-06 8.67092e-14)
(978.58 7.26784e-06 8.05707e-14)
(978.58 1.00825e-05 8.20788e-14)
(978.58 1.39998e-05 8.51647e-14)
(978.58 1.9457e-05 8.54846e-14)
(978.58 2.70641e-05 8.6044e-14)
(978.58 3.76868e-05 8.91028e-14)
(978.58 5.2508e-05 9.10796e-14)
(978.58 7.33562e-05 9.08512e-14)
(978.58 0.000102346 8.77184e-14)
(978.58 0.000145577 8.85099e-14)
(978.58 0.000209176 8.90215e-14)
(978.58 5.04578e-09 9.59998e-14)
(978.58 7.16169e-09 9.7216e-14)
(978.58 1.00381e-08 9.81528e-14)
(978.58 1.39486e-08 9.94071e-14)
(978.58 1.92261e-08 9.68213e-14)
(978.58 2.6334e-08 9.42187e-14)
(978.58 3.59505e-08 9.66463e-14)
(978.58 4.90258e-08 9.77941e-14)
(978.58 6.67851e-08 9.88297e-14)
(978.58 9.09076e-08 9.60115e-14)
(978.58 1.23761e-07 9.42298e-14)
(978.58 1.68579e-07 9.39382e-14)
(978.58 2.29742e-07 9.3514e-14)
(978.58 3.13275e-07 9.50266e-14)
(978.58 4.27537e-07 9.57323e-14)
(978.58 5.84048e-07 9.85737e-14)
(978.58 7.98621e-07 9.94019e-14)
(978.58 1.09308e-06 9.66566e-14)
(978.58 1.49764e-06 9.62921e-14)
(978.58 2.05412e-06 9.63553e-14)
(978.58 2.8203e-06 9.46619e-14)
(978.58 3.87625e-06 9.65403e-14)
(978.58 5.33301e-06 9.37796e-14)
(978.58 7.34478e-06 9.3875e-14)
(978.58 1.01257e-05 9.44187e-14)
(978.58 1.39731e-05 9.92647e-14)
(978.58 1.93011e-05 9.63026e-14)
(978.58 2.66861e-05 9.63701e-14)
(978.58 3.69312e-05 9.92716e-14)
(978.58 5.11554e-05 1.009e-13)
(978.58 7.09227e-05 1.01194e-13)
(978.58 9.84113e-05 1.00633e-13)
(978.58 0.0001367 1.01247e-13)
(978.58 0.000189986 9.99757e-14)
(978.58 0.000264721 1.02419e-13)
(978.58 0.000368364 1.03997e-13)
(978.579 0.000522154 9.94001e-14)
(978.579 0.000746862 9.64284e-14)
(978.58 1.66902e-08 1.1026e-13)
(978.58 2.27361e-08 1.10176e-13)
(978.58 3.08353e-08 1.12128e-13)
(978.58 4.17453e-08 1.11221e-13)
(978.58 5.64428e-08 1.10675e-13)
(978.58 7.62436e-08 1.11029e-13)
(978.58 1.02981e-07 1.12143e-13)
(978.58 1.39148e-07 1.09287e-13)
(978.58 1.88096e-07 1.09466e-13)
(978.58 2.54392e-07 1.0687e-13)
(978.58 3.44341e-07 1.05575e-13)
(978.58 4.6656e-07 1.08191e-13)
(978.58 6.32768e-07 1.03852e-13)
(978.58 8.59036e-07 1.09115e-13)
(978.58 1.16747e-06 1.0933e-13)
(978.58 1.58844e-06 1.10361e-13)
(978.58 2.16361e-06 1.08603e-13)
(978.58 2.95025e-06 1.06807e-13)
(978.58 4.02736e-06 1.06966e-13)
(978.58 5.50384e-06 1.08301e-13)
(978.58 7.52986e-06 1.07593e-13)
(978.58 1.03127e-05 1.07295e-13)
(978.58 1.4139e-05 1.05627e-13)
(978.58 1.94053e-05 1.05848e-13)
(978.58 2.66607e-05 1.0861e-13)
(978.58 3.66652e-05 1.10417e-13)
(978.58 5.04741e-05 1.10861e-13)
(978.58 6.9551e-05 1.08435e-13)
(978.58 9.59283e-05 1.09087e-13)
(978.58 0.00013243 1.10513e-13)
(978.58 0.000182986 1.124e-13)
(978.58 0.000253072 1.12554e-13)
(978.58 0.000350287 1.12823e-13)
(978.579 0.000485343 1.12523e-13)
(978.579 0.000672829 1.15895e-13)
(978.579 0.000934995 1.14499e-13)
(978.579 0.00129757 1.11429e-13)
(978.578 0.00183287 1.10256e-13)
(978.577 0.00260977 1.10111e-13)
(978.58 6.62663e-08 1.21777e-13)
(978.58 8.87702e-08 1.20872e-13)
(978.58 1.18941e-07 1.22751e-13)
(978.58 1.59431e-07 1.25382e-13)
(978.58 2.13812e-07 1.23502e-13)
(978.58 2.86961e-07 1.23995e-13)
(978.58 3.85514e-07 1.22239e-13)
(978.58 5.18424e-07 1.18331e-13)
(978.58 6.97864e-07 1.17977e-13)
(978.58 9.40454e-07 1.18426e-13)
(978.58 1.26886e-06 1.2046e-13)
(978.58 1.71394e-06 1.17126e-13)
(978.58 2.31778e-06 1.17554e-13)
(978.58 3.13805e-06 1.22486e-13)
(978.58 4.25367e-06 1.22e-13)
(978.58 5.77263e-06 1.21146e-13)
(978.58 7.84298e-06 1.19251e-13)
(978.58 1.06681e-05 1.22326e-13)
(978.58 1.45274e-05 1.21232e-13)
(978.58 1.98049e-05 1.20922e-13)
(978.58 2.70291e-05 1.1882e-13)
(978.58 3.69287e-05 1.18671e-13)
(978.58 5.05078e-05 1.19022e-13)
(978.58 6.91518e-05 1.2161e-13)
(978.58 9.4774e-05 1.23153e-13)
(978.58 0.000130021 1.2298e-13)
(978.58 0.000178552 1.22168e-13)
(978.58 0.000245428 1.1875e-13)
(978.58 0.000337667 1.20656e-13)
(978.579 0.000464999 1.25129e-13)
(978.579 0.000640914 1.2519e-13)
(978.579 0.000884144 1.25126e-13)
(978.579 0.00122068 1.24596e-13)
(978.578 0.00168698 1.24983e-13)
(978.578 0.00233261 1.25815e-13)
(978.577 0.00323261 1.23686e-13)
(978.575 0.00447383 1.22378e-13)
(978.574 0.00629708 1.2566e-13)
(978.571 0.00892548 1.25984e-13)
(978.58 2.47825e-07 1.3859e-13)
(978.58 3.30018e-07 1.36694e-13)
(978.58 4.39925e-07 1.35318e-13)
(978.58 5.87052e-07 1.3551e-13)
(978.58 7.84258e-07 1.33288e-13)
(978.58 1.04897e-06 1.35214e-13)
(978.58 1.40471e-06 1.36448e-13)
(978.58 1.88335e-06 1.33658e-13)
(978.58 2.52816e-06 1.30999e-13)
(978.58 3.39795e-06 1.3286e-13)
(978.58 4.5726e-06 1.32613e-13)
(978.58 6.16078e-06 1.32314e-13)
(978.58 8.31067e-06 1.30429e-13)
(978.58 1.12244e-05 1.30899e-13)
(978.58 1.51777e-05 1.3744e-13)
(978.58 2.05475e-05 1.37851e-13)
(978.58 2.78496e-05 1.37162e-13)
(978.58 3.77901e-05 1.3331e-13)
(978.58 5.13363e-05 1.30626e-13)
(978.58 6.98158e-05 1.31432e-13)
(978.58 9.5052e-05 1.32626e-13)
(978.58 0.000129549 1.32669e-13)
(978.58 0.00017675 1.31025e-13)
(978.58 0.000241398 1.32063e-13)
(978.58 0.000330029 1.34232e-13)
(978.579 0.000451642 1.35442e-13)
(978.579 0.000618661 1.31003e-13)
(978.579 0.000848251 1.32435e-13)
(978.579 0.00116412 1.37005e-13)
(978.578 0.00159901 1.38947e-13)
(978.578 0.00219825 1.37293e-13)
(978.577 0.00302474 1.35192e-13)
(978.576 0.00416521 1.35402e-13)
(978.574 0.0057411 1.36507e-13)
(978.572 0.00791701 1.37158e-13)
(978.569 0.010941 1.36887e-13)
(978.565 0.0150992 1.38792e-13)
(978.558 0.0211753 1.38866e-13)
(978.55 0.0298752 1.36736e-13)
(978.58 6.77913e-07 1.51755e-13)
(978.58 8.98682e-07 1.4928e-13)
(978.58 1.19283e-06 1.49053e-13)
(978.58 1.58522e-06 1.50096e-13)
(978.58 2.10934e-06 1.49577e-13)
(978.58 2.81032e-06 1.49771e-13)
(978.58 3.74905e-06 1.50033e-13)
(978.58 5.00768e-06 1.49497e-13)
(978.58 6.69732e-06 1.47187e-13)
(978.58 8.96845e-06 1.4857e-13)
(978.58 1.20248e-05 1.46372e-13)
(978.58 1.61426e-05 1.45723e-13)
(978.58 2.16974e-05 1.43008e-13)
(978.58 2.91992e-05 1.41638e-13)
(978.58 3.93417e-05 1.46887e-13)
(978.58 5.30704e-05 1.48058e-13)
(978.58 7.16741e-05 1.45791e-13)
(978.58 9.69108e-05 1.45375e-13)
(978.58 0.000131182 1.44877e-13)
(978.58 0.000177772 1.42649e-13)
(978.58 0.000241175 1.40739e-13)
(978.58 0.000327541 1.42506e-13)
(978.579 0.000445307 1.43101e-13)
(978.579 0.000606051 1.42527e-13)
(978.579 0.000825656 1.45348e-13)
(978.579 0.00112594 1.48607e-13)
(978.578 0.00153693 1.44429e-13)
(978.578 0.00209996 1.42782e-13)
(978.577 0.00287187 1.46749e-13)
(978.576 0.00393099 1.47721e-13)
(978.574 0.00538546 1.49217e-13)
(978.572 0.00738443 1.4712e-13)
(978.569 0.0101335 1.47867e-13)
(978.565 0.0139167 1.49446e-13)
(978.56 0.0191294 1.51876e-13)
(978.553 0.0263074 1.50475e-13)
(978.543 0.0362492 1.49354e-13)
(978.529 0.0498773 1.49711e-13)
(978.509 0.0696855 1.48155e-13)
(978.483 0.0978477 1.48719e-13)
(978.58 2.40928e-06 1.65332e-13)
(978.58 3.18559e-06 1.64337e-13)
(978.58 4.21754e-06 1.63085e-13)
(978.58 5.5911e-06 1.61126e-13)
(978.58 7.42168e-06 1.62167e-13)
(978.58 9.86444e-06 1.63423e-13)
(978.58 1.31281e-05 1.63528e-13)
(978.58 1.74941e-05 1.611e-13)
(978.58 2.33417e-05 1.61501e-13)
(978.58 3.11833e-05 1.61733e-13)
(978.58 4.17112e-05 1.56673e-13)
(978.58 5.58627e-05 1.57532e-13)
(978.58 7.49067e-05 1.56911e-13)
(978.58 0.000100564 1.56683e-13)
(978.58 0.000135171 1.58293e-13)
(978.58 0.000181901 1.57754e-13)
(978.58 0.000245068 1.54864e-13)
(978.58 0.000330549 1.5376e-13)
(978.579 0.000446348 1.55793e-13)
(978.579 0.000603376 1.54354e-13)
(978.579 0.000816527 1.57804e-13)
(978.579 0.00110616 1.59518e-13)
(978.578 0.00150011 1.5984e-13)
(978.578 0.00203639 1.57335e-13)
(978.577 0.00276716 1.56417e-13)
(978.576 0.0037639 1.57325e-13)
(978.574 0.00512449 1.56447e-13)
(978.572 0.00698327 1.55991e-13)
(978.57 0.00952486 1.57515e-13)
(978.566 0.013003 1.60238e-13)
(978.561 0.0177661 1.60531e-13)
(978.554 0.0242929 1.59995e-13)
(978.545 0.0332448 1.59875e-13)
(978.532 0.0455277 1.61608e-13)
(978.515 0.0624025 1.6234e-13)
(978.491 0.0855616 1.58489e-13)
(978.459 0.117533 1.60212e-13)
(978.415 0.161213 1.61313e-13)
(978.352 0.224333 1.61428e-13)
(978.268 0.31338 1.61015e-13)
(978.58 8.38787e-06 1.77031e-13)
(978.58 1.10647e-05 1.74731e-13)
(978.58 1.46151e-05 1.75491e-13)
(978.58 1.93302e-05 1.76499e-13)
(978.58 2.55998e-05 1.77118e-13)
(978.58 3.39469e-05 1.77844e-13)
(978.58 4.50737e-05 1.73968e-13)
(978.58 5.99236e-05 1.71764e-13)
(978.58 7.97665e-05 1.75812e-13)
(978.58 0.000106313 1.7424e-13)
(978.58 0.00014187 1.70664e-13)
(978.58 0.000189549 1.74248e-13)
(978.58 0.000253559 1.72274e-13)
(978.58 0.00033959 1.69926e-13)
(978.579 0.000455342 1.69622e-13)
(978.579 0.000611257 1.6606e-13)
(978.579 0.000821502 1.65114e-13)
(978.579 0.0011053 1.68026e-13)
(978.578 0.00148877 1.68883e-13)
(978.578 0.00200746 1.71494e-13)
(978.577 0.00270977 1.76105e-13)
(978.576 0.00366156 1.71688e-13)
(978.574 0.00495268 1.70209e-13)
(978.572 0.00670583 1.7018e-13)
(978.57 0.00908843 1.69597e-13)
(978.566 0.012329 1.6965e-13)
(978.561 0.0167405 1.6837e-13)
(978.555 0.0227512 1.68098e-13)
(978.546 0.0309465 1.75099e-13)
(978.534 0.0421281 1.72086e-13)
(978.518 0.0573952 1.68696e-13)
(978.496 0.0782571 1.68438e-13)
(978.467 0.106776 1.6933e-13)
(978.426 0.145786 1.72663e-13)
(978.372 0.199183 1.7456e-13)
(978.297 0.27225 1.73527e-13)
(978.196 0.372688 1.72089e-13)
(978.058 0.509379 1.73384e-13)
(977.861 0.705631 1.77309e-13)
(977.602 0.980006 1.74624e-13)
(978.58 2.86358e-05 1.89148e-13)
(978.58 3.76892e-05 1.90445e-13)
(978.58 4.96699e-05 1.89484e-13)
(978.58 6.55443e-05 1.87356e-13)
(978.58 8.66043e-05 1.87924e-13)
(978.58 0.000114578 1.89666e-13)
(978.58 0.000151779 1.87488e-13)
(978.58 0.000201312 1.8264e-13)
(978.58 0.000267343 1.86626e-13)
(978.58 0.000355469 1.86373e-13)
(978.579 0.000473221 1.8423e-13)
(978.579 0.00063074 1.86836e-13)
(978.579 0.000841688 1.82217e-13)
(978.579 0.0011245 1.80019e-13)
(978.578 0.00150408 1.81744e-13)
(978.578 0.00201409 1.80547e-13)
(978.577 0.00270003 1.78616e-13)
(978.576 0.00362358 1.81876e-13)
(978.574 0.00486832 1.83339e-13)
(978.572 0.00654755 1.86086e-13)
(978.57 0.00881508 1.8532e-13)
(978.566 0.01188 1.81574e-13)
(978.562 0.0160266 1.83906e-13)
(978.555 0.021641 1.82581e-13)
(978.547 0.0292496 1.80293e-13)
(978.536 0.0395696 1.82881e-13)
(978.52 0.0535778 1.78805e-13)
(978.5 0.0726048 1.81617e-13)
(978.472 0.0984675 1.8241e-13)
(978.435 0.133647 1.8026e-13)
(978.384 0.181527 1.82723e-13)
(978.316 0.246713 1.84289e-13)
(978.223 0.335524 1.82372e-13)
(978.098 0.456521 1.81888e-13)
(977.928 0.621566 1.85706e-13)
(977.699 0.846251 1.85984e-13)
(977.385 1.1538 1.86517e-13)
(976.965 1.57003 1.87129e-13)
(976.366 2.16299 1.85951e-13)
(975.589 2.98203 1.85281e-13)
(978.58 9.59037e-05 2.0283e-13)
(978.58 0.00012594 2.02807e-13)
(978.58 0.000165597 2.01071e-13)
(978.58 0.000218023 2.00667e-13)
(978.58 0.00028741 1.99238e-13)
(978.58 0.00037936 1.98741e-13)
(978.579 0.000501354 1.99777e-13)
(978.579 0.000663398 1.9864e-13)
(978.579 0.000878892 1.99566e-13)
(978.579 0.0011658 1.98362e-13)
(978.578 0.00154822 1.978e-13)
(978.577 0.0020585 1.98235e-13)
(978.577 0.00274017 1.93861e-13)
(978.575 0.00365178 1.94032e-13)
(978.574 0.00487214 1.96137e-13)
(978.572 0.00650756 1.9495e-13)
(978.57 0.0087015 1.94242e-13)
(978.566 0.0116475 1.94718e-13)
(978.562 0.0156073 1.93988e-13)
(978.555 0.0209348 1.95629e-13)
(978.547 0.0281092 1.95129e-13)
(978.536 0.0377787 1.93496e-13)
(978.522 0.0508223 1.93675e-13)
(978.502 0.0684325 1.93492e-13)
(978.476 0.0922264 1.93496e-13)
(978.44 0.124396 1.92974e-13)
(978.393 0.16792 1.9398e-13)
(978.329 0.226847 1.94132e-13)
(978.244 0.306668 1.92027e-13)
(978.128 0.414828 1.95298e-13)
(977.973 0.561446 1.95899e-13)
(977.764 0.760276 1.97838e-13)
(977.481 1.0299 1.93509e-13)
(977.101 1.39551 1.94081e-13)
(976.588 1.89105 1.97174e-13)
(975.896 2.5623 1.9938e-13)
(974.961 3.4733 1.98623e-13)
(973.714 4.69806 1.96886e-13)
(971.966 6.4203 1.96836e-13)
(969.736 8.75617 1.99908e-13)
(978.58 0.000315147 2.16653e-13)
(978.579 0.000412911 2.15748e-13)
(978.579 0.000541692 2.14666e-13)
(978.579 0.000711535 2.11996e-13)
(978.579 0.000935803 2.12464e-13)
(978.578 0.00123228 2.15499e-13)
(978.578 0.00162468 2.14259e-13)
(978.577 0.00214465 2.1095e-13)
(978.576 0.00283442 2.12529e-13)
(978.575 0.00375048 2.12582e-13)
(978.574 0.00496842 2.11153e-13)
(978.572 0.00658951 2.10791e-13)
(978.569 0.00874943 2.06983e-13)
(978.566 0.0116303 2.08642e-13)
(978.561 0.0154769 2.10522e-13)
(978.555 0.0206179 2.07509e-13)
(978.547 0.0274953 2.09068e-13)
(978.536 0.0367049 2.10757e-13)
(978.522 0.0490488 2.08613e-13)
(978.503 0.0656079 2.0747e-13)
(978.478 0.0878395 2.06124e-13)
(978.444 0.117713 2.04666e-13)
(978.399 0.157884 2.08832e-13)
(978.338 0.211937 2.09452e-13)
(978.258 0.284717 2.09655e-13)
(978.15 0.382771 2.07296e-13)
(978.006 0.514929 2.04959e-13)
(977.812 0.693109 2.04559e-13)
(977.553 0.933394 2.0424e-13)
(977.206 1.2575 2.06937e-13)
(976.74 1.69453 2.06101e-13)
(976.115 2.28355 2.05731e-13)
(975.278 3.07697 2.07379e-13)
(974.158 4.14442 2.07429e-13)
(972.66 5.5796 2.05335e-13)
(970.667 7.50011 2.07963e-13)
(968.006 10.0772 2.08677e-13)
(964.53 13.4796 2.0759e-13)
(959.773 18.1764 2.09375e-13)
(953.903 24.331 2.11535e-13)
(978.579 0.00101625 2.33081e-13)
(978.578 0.00132845 2.30732e-13)
(978.578 0.00173874 2.27774e-13)
(978.577 0.00227856 2.26524e-13)
(978.576 0.00298964 2.26714e-13)
(978.575 0.0039274 2.26048e-13)
(978.573 0.00516551 2.26257e-13)
(978.571 0.00680197 2.2566e-13)
(978.569 0.00896738 2.26727e-13)
(978.565 0.0118359 2.22971e-13)
(978.56 0.0156397 2.21079e-13)
(978.554 0.020689 2.21683e-13)
(978.546 0.0273988 2.20892e-13)
(978.535 0.0363239 2.22857e-13)
(978.521 0.0482068 2.22696e-13)
(978.502 0.0640431 2.24751e-13)
(978.478 0.0851676 2.24368e-13)
(978.445 0.113369 2.2143e-13)
(978.401 0.151048 2.21941e-13)
(978.343 0.201432 2.21948e-13)
(978.266 0.268854 2.1789e-13)
(978.164 0.359123 2.18545e-13)
(978.028 0.480053 2.19483e-13)
(977.847 0.642132 2.18051e-13)
(977.605 0.859445 2.19661e-13)
(977.283 1.15084 2.17669e-13)
(976.854 1.54161 2.18082e-13)
(976.282 2.06548 2.17607e-13)
(975.519 2.76748 2.16179e-13)
(974.504 3.70722 2.19077e-13)
(973.153 4.96393 2.20441e-13)
(971.361 6.64127 2.21007e-13)
(968.99 8.87391 2.21835e-13)
(965.87 11.8337 2.18414e-13)
(961.784 15.7409 2.19425e-13)
(956.474 20.8668 2.22804e-13)
(949.618 27.5499 2.23474e-13)
(940.951 36.1159 2.22897e-13)
(929.745 47.3688 2.24013e-13)
(916.58 61.3609 2.25677e-13)
(978.577 0.002469 2.47104e-13)
(978.576 0.00321604 2.47685e-13)
(978.574 0.00419428 2.43052e-13)
(978.573 0.00547672 2.42362e-13)
(978.57 0.00715994 2.42761e-13)
(978.568 0.00937171 2.38991e-13)
(978.564 0.0122812 2.41037e-13)
(978.559 0.0161127 2.37683e-13)
(978.553 0.021164 2.36594e-13)
(978.544 0.0278303 2.38232e-13)
(978.534 0.036637 2.35544e-13)
(978.519 0.0482835 2.33198e-13)
(978.5 0.0637006 2.33826e-13)
(978.476 0.0841279 2.35425e-13)
(978.443 0.111218 2.34429e-13)
(978.4 0.147178 2.34404e-13)
(978.344 0.194947 2.36716e-13)
(978.269 0.258455 2.32817e-13)
(978.171 0.34295 2.31032e-13)
(978.04 0.455436 2.31857e-13)
(977.868 0.605255 2.31518e-13)
(977.639 0.804882 2.30111e-13)
(977.337 1.07099 2.30986e-13)
(976.935 1.42576 2.28735e-13)
(976.403 1.89864 2.28551e-13)
(975.699 2.5287 2.33046e-13)
(974.765 3.36777 2.3116e-13)
(973.53 4.48396 2.29674e-13)
(971.899 5.96667 2.29922e-13)
(969.75 7.93155 2.32484e-13)
(966.931 10.5273 2.32526e-13)
(963.251 13.9411 2.28641e-13)
(958.48 18.4088 2.33896e-13)
(952.341 24.2147 2.36139e-13)
(944.525 31.6896 2.32812e-13)
(934.706 41.1947 2.34943e-13)
(922.591 53.0931 2.37523e-13)
(907.777 67.8501 2.3658e-13)
(890.212 85.7061 2.35205e-13)
(868.584 107.962 2.35406e-13)
(845.164 133.299 2.35105e-13)
(978.569 0.00768611 2.63145e-13)
(978.566 0.00998818 2.60147e-13)
(978.562 0.0129953 2.54297e-13)
(978.557 0.016928 2.56021e-13)
(978.551 0.0220765 2.55075e-13)
(978.542 0.028824 2.5214e-13)
(978.531 0.0376767 2.51538e-13)
(978.516 0.0493038 2.50546e-13)
(978.497 0.0645899 2.52731e-13)
(978.472 0.0847067 2.53018e-13)
(978.439 0.111206 2.48195e-13)
(978.396 0.146143 2.47844e-13)
(978.34 0.192246 2.49215e-13)
(978.266 0.253136 2.48497e-13)
(978.17 0.333618 2.46696e-13)
(978.043 0.44006 2.48124e-13)
(977.876 0.580928 2.48112e-13)
(977.656 0.767445 2.45258e-13)
(977.366 1.0145 2.44255e-13)
(976.985 1.34182 2.44006e-13)
(976.483 1.77556 2.43679e-13)
(975.822 2.35011 2.44919e-13)
(974.951 3.11074 2.40029e-13)
(973.805 4.11698 2.37377e-13)
(972.299 5.44669 2.43873e-13)
(970.325 7.20052 2.46152e-13)
(967.746 9.50691 2.4236e-13)
(964.391 12.5285 2.4238e-13)
(960.054 16.4684 2.42654e-13)
(954.484 21.5765 2.44336e-13)
(947.398 28.1456 2.43366e-13)
(938.483 36.5042 2.45408e-13)
(927.437 46.9947 2.48509e-13)
(913.964 59.9745 2.46992e-13)
(897.782 75.8072 2.48701e-13)
(878.585 94.8774 2.4668e-13)
(856.285 117.371 2.45506e-13)
(830.912 143.349 2.47897e-13)
(803.192 172.172 2.49167e-13)
(772.559 204.443 2.43961e-13)
(742.183 237.389 2.43362e-13)
(978.555 0.0181348 2.75784e-13)
(978.548 0.023482 2.74201e-13)
(978.539 0.0304414 2.666e-13)
(978.527 0.0395088 2.68176e-13)
(978.511 0.0513353 2.70319e-13)
(978.491 0.0667771 2.66756e-13)
(978.466 0.0869599 2.66769e-13)
(978.432 0.113364 2.67868e-13)
(978.388 0.147939 2.65859e-13)
(978.331 0.193258 2.67826e-13)
(978.257 0.252707 2.66645e-13)
(978.161 0.330757 2.60885e-13)
(978.035 0.433309 2.61126e-13)
(977.87 0.568134 2.61222e-13)
(977.655 0.745478 2.60729e-13)
(977.374 0.978864 2.61846e-13)
(977.005 1.28614 2.6224e-13)
(976.523 1.69073 2.57226e-13)
(975.892 2.2234 2.54249e-13)
(975.066 2.92437 2.54668e-13)
(973.986 3.84627 2.56048e-13)
(972.575 5.05738 2.56744e-13)
(970.735 6.64632 2.5452e-13)
(968.342 8.72595 2.5438e-13)
(965.241 11.4385 2.57309e-13)
(961.249 14.9599 2.58135e-13)
(956.138 19.5089 2.57204e-13)
(949.647 25.3464 2.56307e-13)
(941.482 32.7685 2.56087e-13)
(931.349 42.0899 2.56191e-13)
(918.963 53.633 2.59147e-13)
(904.058 67.7253 2.61396e-13)
(886.362 84.708 2.55938e-13)
(865.646 104.881 2.52753e-13)
(841.888 128.357 2.55313e-13)
(815.336 154.982 2.5652e-13)
(786.49 184.306 2.55994e-13)
(756.244 215.493 2.55176e-13)
(725.783 247.358 2.574e-13)
(697.17 277.793 2.56012e-13)
(670.498 306.411 2.52437e-13)
(648.324 330.656 2.52746e-13)
(978.521 0.0422393 2.86819e-13)
(978.505 0.0544961 2.85361e-13)
(978.484 0.0703898 2.83336e-13)
(978.456 0.0910202 2.83404e-13)
(978.421 0.117825 2.84071e-13)
(978.376 0.152686 2.8206e-13)
(978.317 0.198066 2.80853e-13)
(978.241 0.25719 2.81957e-13)
(978.143 0.334293 2.80872e-13)
(978.016 0.434921 2.8002e-13)
(977.851 0.566327 2.80395e-13)
(977.636 0.738035 2.76083e-13)
(977.358 0.962513 2.73574e-13)
(976.996 1.2561 2.74597e-13)
(976.525 1.64019 2.74559e-13)
(975.912 2.14271 2.73914e-13)
(975.115 2.7999 2.7371e-13)
(974.08 3.65877 2.70317e-13)
(972.736 4.78046 2.68498e-13)
(970.993 6.2435 2.67771e-13)
(968.738 8.14806 2.70552e-13)
(965.831 10.6196 2.72002e-13)
(962.103 13.8145 2.6914e-13)
(957.351 17.9223 2.67459e-13)
(951.335 23.1746 2.70354e-13)
(943.783 29.838 2.70045e-13)
(934.404 38.2044 2.68262e-13)
(922.929 48.5659 2.66676e-13)
(909.1 61.22 2.6746e-13)
(892.681 76.458 2.66959e-13)
(873.415 94.5979 2.67967e-13)
(851.159 115.841 2.70096e-13)
(826.005 140.193 2.66712e-13)
(798.306 167.383 2.63913e-13)
(768.673 196.861 2.66708e-13)
(738.107 227.713 2.66475e-13)
(708.031 258.547 2.65959e-13)
(679.978 287.731 2.65384e-13)
(655.334 313.729 2.62536e-13)
(634.644 335.818 2.61503e-13)
(618.676 353.236 2.63907e-13)
(606.088 367.279 2.58512e-13)
(597.16 377.593 2.60076e-13)
(978.407 0.124833 3.00013e-13)
(978.359 0.16064 3.01066e-13)
(978.297 0.206931 3.00722e-13)
(978.218 0.266833 2.97899e-13)
(978.116 0.344421 2.95332e-13)
(977.985 0.444995 2.94082e-13)
(977.816 0.575456 2.94643e-13)
(977.598 0.744781 2.93884e-13)
(977.317 0.964652 2.91739e-13)
(976.955 1.2503 2.91584e-13)
(976.486 1.62157 2.9014e-13)
(975.881 2.10413 2.87639e-13)
(975.099 2.7312 2.88918e-13)
(974.089 3.54555 2.87633e-13)
(972.786 4.60234 2.8716e-13)
(971.107 5.97219 2.87398e-13)
(968.948 7.74521 2.85105e-13)
(966.18 10.034 2.86581e-13)
(962.646 12.977 2.85538e-13)
(958.162 16.7431 2.84374e-13)
(952.511 21.536 2.87547e-13)
(945.438 27.5963 2.86361e-13)
(936.673 35.188 2.82605e-13)
(925.943 44.5867 2.81803e-13)
(913.009 56.0574 2.83704e-13)
(897.639 69.8703 2.84176e-13)
(879.634 86.2767 2.80514e-13)
(858.755 105.562 2.77793e-13)
(834.98 127.814 2.7897e-13)
(808.514 152.925 2.81361e-13)
(779.812 180.51 2.81274e-13)
(749.601 209.94 2.78652e-13)
(719.024 240.184 2.7444e-13)
(689.544 269.807 2.73367e-13)
(662.623 297.255 2.76303e-13)
(639.368 321.289 2.74391e-13)
(620.34 341.254 2.72081e-13)
(605.514 357.134 2.71138e-13)
(594.61 369.203 2.69728e-13)
(586.729 378.325 2.66152e-13)
(581.671 384.76 2.70163e-13)
(578.35 389.692 2.69637e-13)