/*--------------------------------*- C++ -*----------------------------------*\
| =========                 |                                                 |
| \\      /  F ield         | OpenFOAM: The Open Source CFD Toolbox           |
|  \\    /   O peration     | Version:  v1706                                 |
|   \\  /    A nd           | Web:      www.OpenFOAM.com                      |
|    \\/     M anipulation  |                                                 |
\*---------------------------------------------------------------------------*/
FoamFile
{
    version     2.0;
    format      ascii;
    class       volScalarField;
    location    "3.4e-05";
    object      alpha;
}
// * * * * * * * * * * * * * * * * * * * * * * * * * * * * * * * * * * * * * //

dimensions      [1 -1 -1 0 0 0 0];


internalField   nonuniform List<scalar> 
29871
(
1.43374e-05
1.43732e-05
1.44136e-05
1.44586e-05
1.45082e-05
1.45623e-05
1.46204e-05
1.46824e-05
1.47486e-05
1.48208e-05
1.49007e-05
1.49885e-05
1.50835e-05
1.51842e-05
1.52895e-05
1.53982e-05
1.55095e-05
1.56222e-05
1.57354e-05
1.58479e-05
1.59586e-05
1.60673e-05
1.61754e-05
1.62947e-05
1.6442e-05
1.66103e-05
1.67901e-05
1.69738e-05
1.71557e-05
1.73317e-05
1.74991e-05
1.7656e-05
1.78014e-05
1.7935e-05
1.80574e-05
1.8169e-05
1.82706e-05
1.83627e-05
1.84457e-05
1.85199e-05
1.85855e-05
1.86427e-05
1.86918e-05
1.87329e-05
1.87665e-05
1.87927e-05
1.88121e-05
1.88251e-05
1.88331e-05
1.88331e-05
1.88296e-05
1.88226e-05
1.88128e-05
1.87993e-05
1.87824e-05
1.8762e-05
1.87394e-05
1.8715e-05
1.86888e-05
1.86606e-05
1.8631e-05
1.85996e-05
1.85662e-05
1.85321e-05
1.84975e-05
1.84619e-05
1.84252e-05
1.83883e-05
1.83511e-05
1.83127e-05
1.82729e-05
1.82313e-05
1.81874e-05
1.81414e-05
1.80932e-05
1.80431e-05
1.79913e-05
1.79378e-05
1.78825e-05
1.78256e-05
1.77668e-05
1.77061e-05
1.76434e-05
1.75784e-05
1.75109e-05
1.74407e-05
1.73673e-05
1.72907e-05
1.72103e-05
1.71259e-05
1.70372e-05
1.69436e-05
1.68449e-05
1.67402e-05
1.66287e-05
1.65097e-05
1.63833e-05
1.62505e-05
1.61117e-05
1.59677e-05
1.5823e-05
1.56982e-05
1.56022e-05
1.55176e-05
1.54349e-05
1.57014e-05
1.58879e-05
1.60905e-05
1.63073e-05
1.65361e-05
1.67744e-05
1.70196e-05
1.727e-05
1.75259e-05
1.77961e-05
1.80982e-05
1.84291e-05
1.8781e-05
1.91444e-05
1.95101e-05
1.98699e-05
2.02167e-05
2.05454e-05
2.08523e-05
2.11351e-05
2.13926e-05
2.16248e-05
2.18323e-05
2.20144e-05
2.21691e-05
2.22984e-05
2.24044e-05
2.24896e-05
2.25563e-05
2.26068e-05
2.2643e-05
2.26671e-05
2.26819e-05
2.26906e-05
2.26955e-05
2.26985e-05
2.27003e-05
2.27018e-05
2.27024e-05
2.27021e-05
2.27009e-05
2.26986e-05
2.26951e-05
2.26903e-05
2.26834e-05
2.26741e-05
2.26624e-05
2.26481e-05
2.26313e-05
2.26118e-05
2.25899e-05
2.25658e-05
2.25398e-05
2.25117e-05
2.24829e-05
2.24537e-05
2.24221e-05
2.23903e-05
2.23582e-05
2.23253e-05
2.22923e-05
2.22596e-05
2.22264e-05
2.21938e-05
2.21614e-05
2.21292e-05
2.20978e-05
2.20676e-05
2.20371e-05
2.20067e-05
2.19768e-05
2.19469e-05
2.19164e-05
2.18855e-05
2.18542e-05
2.18226e-05
2.17909e-05
2.1759e-05
2.17269e-05
2.16947e-05
2.16623e-05
2.16297e-05
2.15969e-05
2.15636e-05
2.15299e-05
2.14956e-05
2.14605e-05
2.14246e-05
2.13876e-05
2.13496e-05
2.13103e-05
2.12698e-05
2.12282e-05
2.11858e-05
2.11431e-05
2.11009e-05
2.10593e-05
2.10172e-05
2.09716e-05
2.09182e-05
2.08498e-05
2.07547e-05
2.06274e-05
2.04712e-05
2.02897e-05
1.8298e-05
1.86811e-05
1.90948e-05
1.95296e-05
1.99742e-05
2.04171e-05
2.0848e-05
2.12586e-05
2.1643e-05
2.19972e-05
2.2317e-05
2.25985e-05
2.28437e-05
2.30558e-05
2.32383e-05
2.33952e-05
2.353e-05
2.36456e-05
2.37438e-05
2.38257e-05
2.38919e-05
2.39426e-05
2.39792e-05
2.40043e-05
2.40209e-05
2.4031e-05
2.40357e-05
2.40345e-05
2.40304e-05
2.40219e-05
2.40085e-05
2.39894e-05
2.39646e-05
2.39351e-05
2.39021e-05
2.38669e-05
2.38306e-05
2.37938e-05
2.37572e-05
2.37213e-05
2.36864e-05
2.36527e-05
2.36205e-05
2.35897e-05
2.35603e-05
2.35321e-05
2.35049e-05
2.34782e-05
2.34518e-05
2.34253e-05
2.33985e-05
2.33711e-05
2.33431e-05
2.33141e-05
2.32843e-05
2.32537e-05
2.32225e-05
2.31904e-05
2.31571e-05
2.31233e-05
2.30899e-05
2.30541e-05
2.30202e-05
2.29893e-05
2.29525e-05
2.29173e-05
2.28861e-05
2.28552e-05
2.28203e-05
2.27866e-05
2.27562e-05
2.27256e-05
2.26942e-05
2.26628e-05
2.26321e-05
2.26019e-05
2.25721e-05
2.25427e-05
2.25137e-05
2.24853e-05
2.24575e-05
2.24302e-05
2.24035e-05
2.23775e-05
2.23522e-05
2.23277e-05
2.2304e-05
2.22814e-05
2.22601e-05
2.22401e-05
2.22218e-05
2.22055e-05
2.21913e-05
2.21798e-05
2.21714e-05
2.21663e-05
2.21644e-05
2.2165e-05
2.21672e-05
2.21691e-05
2.21688e-05
2.21656e-05
2.21559e-05
2.21374e-05
2.21098e-05
2.20737e-05
2.25372e-05
2.28745e-05
2.31703e-05
2.3427e-05
2.36476e-05
2.38359e-05
2.39954e-05
2.41298e-05
2.42417e-05
2.43336e-05
2.44073e-05
2.44644e-05
2.45063e-05
2.45355e-05
2.45547e-05
2.45675e-05
2.45769e-05
2.45847e-05
2.45917e-05
2.45979e-05
2.46023e-05
2.46016e-05
2.45971e-05
2.45881e-05
2.45755e-05
2.45604e-05
2.45433e-05
2.45245e-05
2.4505e-05
2.44853e-05
2.44663e-05
2.44483e-05
2.44307e-05
2.44116e-05
2.43894e-05
2.43636e-05
2.43344e-05
2.43024e-05
2.42683e-05
2.42329e-05
2.41968e-05
2.41606e-05
2.41247e-05
2.40893e-05
2.40549e-05
2.40215e-05
2.39892e-05
2.3958e-05
2.39277e-05
2.38981e-05
2.3869e-05
2.38399e-05
2.38109e-05
2.37815e-05
2.37515e-05
2.37209e-05
2.36892e-05
2.36564e-05
2.3622e-05
2.35864e-05
2.35513e-05
2.35133e-05
2.34768e-05
2.34435e-05
2.34038e-05
2.33654e-05
2.33309e-05
2.32965e-05
2.32575e-05
2.32189e-05
2.3184e-05
2.31489e-05
2.31126e-05
2.30762e-05
2.30408e-05
2.30064e-05
2.29726e-05
2.29393e-05
2.29066e-05
2.28747e-05
2.28434e-05
2.28129e-05
2.27831e-05
2.27541e-05
2.2726e-05
2.2699e-05
2.26731e-05
2.26485e-05
2.26255e-05
2.26042e-05
2.25849e-05
2.25678e-05
2.25533e-05
2.25418e-05
2.25335e-05
2.25284e-05
2.25262e-05
2.25244e-05
2.25219e-05
2.25189e-05
2.25155e-05
2.25117e-05
2.25066e-05
2.24999e-05
2.24914e-05
2.24813e-05
2.45173e-05
2.46191e-05
2.47016e-05
2.47673e-05
2.48184e-05
2.48566e-05
2.48846e-05
2.49054e-05
2.49216e-05
2.49347e-05
2.49454e-05
2.49536e-05
2.49591e-05
2.49589e-05
2.49552e-05
2.49468e-05
2.49349e-05
2.49209e-05
2.49061e-05
2.48918e-05
2.48792e-05
2.48695e-05
2.48633e-05
2.48598e-05
2.48557e-05
2.48491e-05
2.48387e-05
2.48246e-05
2.48075e-05
2.47881e-05
2.47674e-05
2.47466e-05
2.4727e-05
2.47091e-05
2.46918e-05
2.46736e-05
2.46536e-05
2.46309e-05
2.46056e-05
2.45775e-05
2.45471e-05
2.45149e-05
2.44812e-05
2.44465e-05
2.44115e-05
2.43761e-05
2.4341e-05
2.43064e-05
2.42722e-05
2.42384e-05
2.42056e-05
2.41732e-05
2.41409e-05
2.41091e-05
2.40776e-05
2.40457e-05
2.40134e-05
2.39813e-05
2.39485e-05
2.39142e-05
2.38789e-05
2.3844e-05
2.38082e-05
2.37711e-05
2.37355e-05
2.36974e-05
2.36606e-05
2.36257e-05
2.35923e-05
2.35501e-05
2.35095e-05
2.34737e-05
2.34383e-05
2.33999e-05
2.33607e-05
2.3324e-05
2.32888e-05
2.3254e-05
2.32196e-05
2.3186e-05
2.31533e-05
2.31212e-05
2.30898e-05
2.30592e-05
2.30295e-05
2.30008e-05
2.29732e-05
2.29468e-05
2.29217e-05
2.28983e-05
2.28765e-05
2.28564e-05
2.28383e-05
2.28222e-05
2.28082e-05
2.27962e-05
2.27857e-05
2.27764e-05
2.27679e-05
2.27596e-05
2.27509e-05
2.27415e-05
2.27315e-05
2.27211e-05
2.27101e-05
2.26988e-05
2.26872e-05
2.51582e-05
2.51731e-05
2.51855e-05
2.5195e-05
2.52014e-05
2.52019e-05
2.51995e-05
2.51941e-05
2.51864e-05
2.51777e-05
2.51688e-05
2.51601e-05
2.51523e-05
2.51455e-05
2.514e-05
2.51343e-05
2.51263e-05
2.51149e-05
2.51007e-05
2.50849e-05
2.50684e-05
2.5053e-05
2.50403e-05
2.50311e-05
2.50244e-05
2.5018e-05
2.50103e-05
2.50002e-05
2.49875e-05
2.49721e-05
2.49545e-05
2.49351e-05
2.49153e-05
2.4896e-05
2.48779e-05
2.48616e-05
2.48458e-05
2.48295e-05
2.48121e-05
2.4793e-05
2.47718e-05
2.47487e-05
2.47237e-05
2.46969e-05
2.4669e-05
2.46399e-05
2.46097e-05
2.45792e-05
2.45486e-05
2.45171e-05
2.44859e-05
2.44554e-05
2.4424e-05
2.43924e-05
2.43619e-05
2.43309e-05
2.42987e-05
2.42674e-05
2.42364e-05
2.42038e-05
2.41698e-05
2.4136e-05
2.41029e-05
2.40679e-05
2.40305e-05
2.3994e-05
2.39588e-05
2.39246e-05
2.38931e-05
2.38491e-05
2.38081e-05
2.37712e-05
2.37362e-05
2.36949e-05
2.36516e-05
2.36133e-05
2.35771e-05
2.35399e-05
2.35032e-05
2.34677e-05
2.34329e-05
2.33982e-05
2.3364e-05
2.33305e-05
2.3298e-05
2.32664e-05
2.32357e-05
2.32061e-05
2.31777e-05
2.31506e-05
2.31249e-05
2.31006e-05
2.30778e-05
2.30565e-05
2.30365e-05
2.30176e-05
2.29996e-05
2.29822e-05
2.29654e-05
2.29497e-05
2.29347e-05
2.29204e-05
2.29063e-05
2.28924e-05
2.28787e-05
2.2865e-05
2.28514e-05
2.53984e-05
2.53963e-05
2.53917e-05
2.53855e-05
2.5379e-05
2.53729e-05
2.53666e-05
2.53614e-05
2.53573e-05
2.53539e-05
2.53491e-05
2.53415e-05
2.5332e-05
2.53204e-05
2.53075e-05
2.5295e-05
2.52832e-05
2.5274e-05
2.52661e-05
2.52581e-05
2.52489e-05
2.52377e-05
2.52246e-05
2.52098e-05
2.51943e-05
2.5179e-05
2.51652e-05
2.5155e-05
2.51467e-05
2.51401e-05
2.51337e-05
2.51265e-05
2.51178e-05
2.51068e-05
2.50938e-05
2.50796e-05
2.50643e-05
2.50481e-05
2.50331e-05
2.50192e-05
2.50056e-05
2.49923e-05
2.49787e-05
2.4964e-05
2.4948e-05
2.49304e-05
2.49109e-05
2.48901e-05
2.48684e-05
2.48438e-05
2.48183e-05
2.47932e-05
2.47658e-05
2.47376e-05
2.47103e-05
2.4682e-05
2.46521e-05
2.46231e-05
2.45951e-05
2.45636e-05
2.4533e-05
2.4504e-05
2.44745e-05
2.44408e-05
2.44087e-05
2.4378e-05
2.43472e-05
2.43098e-05
2.42747e-05
2.42411e-05
2.42095e-05
2.41794e-05
2.41352e-05
2.40958e-05
2.40598e-05
2.40258e-05
2.39838e-05
2.39379e-05
2.3898e-05
2.38614e-05
2.38224e-05
2.37837e-05
2.37476e-05
2.37112e-05
2.36742e-05
2.36372e-05
2.3601e-05
2.35659e-05
2.35316e-05
2.34979e-05
2.3465e-05
2.34331e-05
2.34023e-05
2.33725e-05
2.33437e-05
2.33159e-05
2.32891e-05
2.32632e-05
2.3238e-05
2.32135e-05
2.31894e-05
2.31659e-05
2.31432e-05
2.31216e-05
2.31007e-05
2.30803e-05
2.3061e-05
2.30426e-05
2.30247e-05
2.30073e-05
2.55473e-05
2.55439e-05
2.55382e-05
2.55302e-05
2.55205e-05
2.55097e-05
2.54979e-05
2.5487e-05
2.54778e-05
2.54709e-05
2.54643e-05
2.54569e-05
2.54484e-05
2.54382e-05
2.54263e-05
2.54137e-05
2.54007e-05
2.53886e-05
2.53779e-05
2.53688e-05
2.53607e-05
2.53525e-05
2.53434e-05
2.53331e-05
2.53219e-05
2.53097e-05
2.52972e-05
2.52859e-05
2.52766e-05
2.52692e-05
2.52633e-05
2.52582e-05
2.5253e-05
2.52471e-05
2.52396e-05
2.52308e-05
2.52212e-05
2.52086e-05
2.51958e-05
2.5184e-05
2.51718e-05
2.51596e-05
2.51484e-05
2.51367e-05
2.51244e-05
2.51118e-05
2.50974e-05
2.50817e-05
2.5066e-05
2.50472e-05
2.50264e-05
2.50063e-05
2.49847e-05
2.49593e-05
2.49352e-05
2.49119e-05
2.48838e-05
2.48568e-05
2.48318e-05
2.48026e-05
2.4773e-05
2.47454e-05
2.47188e-05
2.46851e-05
2.46548e-05
2.46257e-05
2.45987e-05
2.45614e-05
2.4528e-05
2.44963e-05
2.44674e-05
2.44367e-05
2.43941e-05
2.43577e-05
2.43231e-05
2.42903e-05
2.42497e-05
2.42031e-05
2.41628e-05
2.41261e-05
2.4086e-05
2.40459e-05
2.40085e-05
2.3972e-05
2.39332e-05
2.38935e-05
2.38552e-05
2.38186e-05
2.37821e-05
2.37459e-05
2.371e-05
2.36748e-05
2.36406e-05
2.36072e-05
2.35745e-05
2.35424e-05
2.3511e-05
2.34803e-05
2.34502e-05
2.34208e-05
2.3392e-05
2.33635e-05
2.33357e-05
2.33094e-05
2.32839e-05
2.3259e-05
2.32351e-05
2.32123e-05
2.31904e-05
2.31693e-05
2.56629e-05
2.56562e-05
2.56493e-05
2.56413e-05
2.5632e-05
2.56213e-05
2.56096e-05
2.55976e-05
2.5586e-05
2.55758e-05
2.55672e-05
2.55598e-05
2.55527e-05
2.55453e-05
2.55371e-05
2.55278e-05
2.55177e-05
2.55072e-05
2.5497e-05
2.54878e-05
2.54798e-05
2.54725e-05
2.54655e-05
2.54583e-05
2.54506e-05
2.5442e-05
2.54325e-05
2.54228e-05
2.54135e-05
2.54053e-05
2.53985e-05
2.53931e-05
2.53885e-05
2.53845e-05
2.53799e-05
2.53747e-05
2.53695e-05
2.53615e-05
2.53522e-05
2.53435e-05
2.53337e-05
2.53222e-05
2.53121e-05
2.53022e-05
2.52911e-05
2.52807e-05
2.52697e-05
2.52567e-05
2.52443e-05
2.52308e-05
2.52134e-05
2.51968e-05
2.51807e-05
2.51584e-05
2.51371e-05
2.51178e-05
2.50927e-05
2.50673e-05
2.50443e-05
2.50187e-05
2.49895e-05
2.49628e-05
2.49385e-05
2.49059e-05
2.48764e-05
2.48488e-05
2.48228e-05
2.47858e-05
2.47541e-05
2.47241e-05
2.46976e-05
2.46632e-05
2.46237e-05
2.45903e-05
2.45572e-05
2.45261e-05
2.44849e-05
2.444e-05
2.44008e-05
2.43646e-05
2.43237e-05
2.42824e-05
2.42443e-05
2.42078e-05
2.41684e-05
2.41265e-05
2.40869e-05
2.40493e-05
2.40123e-05
2.39742e-05
2.39355e-05
2.38973e-05
2.38609e-05
2.38251e-05
2.37895e-05
2.37545e-05
2.372e-05
2.36861e-05
2.36528e-05
2.362e-05
2.3588e-05
2.35565e-05
2.35255e-05
2.34954e-05
2.34663e-05
2.34382e-05
2.3411e-05
2.33848e-05
2.33595e-05
2.33348e-05
2.57666e-05
2.57574e-05
2.57496e-05
2.57425e-05
2.57354e-05
2.57276e-05
2.5719e-05
2.57098e-05
2.57001e-05
2.56906e-05
2.56818e-05
2.56742e-05
2.56676e-05
2.56615e-05
2.56555e-05
2.5649e-05
2.56419e-05
2.5634e-05
2.56258e-05
2.56177e-05
2.561e-05
2.5603e-05
2.55966e-05
2.55907e-05
2.55849e-05
2.55788e-05
2.55722e-05
2.5565e-05
2.55574e-05
2.55499e-05
2.55431e-05
2.55371e-05
2.55319e-05
2.5528e-05
2.55244e-05
2.55205e-05
2.55173e-05
2.5513e-05
2.55067e-05
2.55008e-05
2.54944e-05
2.54845e-05
2.54757e-05
2.54677e-05
2.5457e-05
2.5447e-05
2.5438e-05
2.54263e-05
2.54149e-05
2.54045e-05
2.53898e-05
2.53751e-05
2.53621e-05
2.53435e-05
2.53242e-05
2.53072e-05
2.5286e-05
2.52618e-05
2.524e-05
2.52179e-05
2.51895e-05
2.51634e-05
2.51401e-05
2.51097e-05
2.508e-05
2.5053e-05
2.50268e-05
2.49911e-05
2.49604e-05
2.49315e-05
2.49052e-05
2.48675e-05
2.48309e-05
2.47998e-05
2.47675e-05
2.47371e-05
2.46939e-05
2.46522e-05
2.46149e-05
2.45794e-05
2.45376e-05
2.44955e-05
2.44573e-05
2.44207e-05
2.43816e-05
2.43382e-05
2.42977e-05
2.42598e-05
2.42222e-05
2.41842e-05
2.41429e-05
2.41025e-05
2.40643e-05
2.40271e-05
2.39901e-05
2.39535e-05
2.39173e-05
2.38816e-05
2.38463e-05
2.38115e-05
2.37772e-05
2.37436e-05
2.37105e-05
2.36782e-05
2.36467e-05
2.36161e-05
2.35864e-05
2.35575e-05
2.35294e-05
2.35021e-05
2.58794e-05
2.58704e-05
2.58625e-05
2.58556e-05
2.58494e-05
2.58434e-05
2.58372e-05
2.58305e-05
2.58234e-05
2.58158e-05
2.58083e-05
2.58012e-05
2.57948e-05
2.57891e-05
2.57839e-05
2.5779e-05
2.5774e-05
2.57687e-05
2.57629e-05
2.57567e-05
2.57505e-05
2.57445e-05
2.57389e-05
2.57338e-05
2.57291e-05
2.57245e-05
2.57199e-05
2.57149e-05
2.57095e-05
2.57038e-05
2.5698e-05
2.56924e-05
2.56872e-05
2.5683e-05
2.56792e-05
2.56754e-05
2.56727e-05
2.56699e-05
2.56655e-05
2.56615e-05
2.56574e-05
2.565e-05
2.56427e-05
2.56363e-05
2.56268e-05
2.56169e-05
2.56088e-05
2.5598e-05
2.55864e-05
2.55768e-05
2.55641e-05
2.55499e-05
2.55378e-05
2.55224e-05
2.55042e-05
2.5488e-05
2.54702e-05
2.54472e-05
2.54261e-05
2.54062e-05
2.53795e-05
2.53537e-05
2.53308e-05
2.53025e-05
2.52725e-05
2.52454e-05
2.52191e-05
2.51848e-05
2.51541e-05
2.51252e-05
2.50977e-05
2.50594e-05
2.50248e-05
2.49944e-05
2.49631e-05
2.49302e-05
2.4886e-05
2.4848e-05
2.48121e-05
2.47771e-05
2.47337e-05
2.46914e-05
2.46537e-05
2.46171e-05
2.45784e-05
2.45339e-05
2.4493e-05
2.44551e-05
2.44172e-05
2.43798e-05
2.43363e-05
2.42943e-05
2.42553e-05
2.42175e-05
2.418e-05
2.41427e-05
2.41056e-05
2.40688e-05
2.40324e-05
2.39963e-05
2.39607e-05
2.39256e-05
2.3891e-05
2.38571e-05
2.3824e-05
2.37916e-05
2.376e-05
2.3729e-05
2.36989e-05
2.36696e-05
2.60086e-05
2.60014e-05
2.5994e-05
2.59869e-05
2.59804e-05
2.59746e-05
2.59694e-05
2.59645e-05
2.59596e-05
2.59546e-05
2.59493e-05
2.59438e-05
2.59383e-05
2.5933e-05
2.59282e-05
2.59239e-05
2.592e-05
2.59165e-05
2.5913e-05
2.59093e-05
2.59054e-05
2.59013e-05
2.58971e-05
2.58929e-05
2.5889e-05
2.58853e-05
2.58818e-05
2.58786e-05
2.58753e-05
2.58718e-05
2.58679e-05
2.58638e-05
2.58594e-05
2.5855e-05
2.58508e-05
2.5847e-05
2.58431e-05
2.58402e-05
2.58375e-05
2.58337e-05
2.58304e-05
2.58274e-05
2.58218e-05
2.58158e-05
2.58105e-05
2.58025e-05
2.5793e-05
2.57853e-05
2.57753e-05
2.57633e-05
2.57534e-05
2.57418e-05
2.57273e-05
2.57147e-05
2.57011e-05
2.56832e-05
2.56668e-05
2.56509e-05
2.56292e-05
2.5608e-05
2.5589e-05
2.55643e-05
2.55384e-05
2.55154e-05
2.54891e-05
2.54589e-05
2.54313e-05
2.54052e-05
2.53719e-05
2.53405e-05
2.53114e-05
2.52824e-05
2.52446e-05
2.5211e-05
2.51802e-05
2.51502e-05
2.51122e-05
2.50699e-05
2.50342e-05
2.49989e-05
2.49637e-05
2.49188e-05
2.48769e-05
2.48397e-05
2.48033e-05
2.47645e-05
2.47189e-05
2.4678e-05
2.46404e-05
2.46024e-05
2.45651e-05
2.45198e-05
2.44772e-05
2.44381e-05
2.44003e-05
2.43626e-05
2.43249e-05
2.42872e-05
2.42498e-05
2.42126e-05
2.41757e-05
2.41392e-05
2.41031e-05
2.40675e-05
2.40325e-05
2.39981e-05
2.39643e-05
2.39316e-05
2.38994e-05
2.38678e-05
2.38369e-05
2.61359e-05
2.61307e-05
2.61254e-05
2.612e-05
2.61148e-05
2.611e-05
2.61056e-05
2.61018e-05
2.60983e-05
2.6095e-05
2.60917e-05
2.60883e-05
2.60849e-05
2.60814e-05
2.60781e-05
2.60752e-05
2.60726e-05
2.60703e-05
2.60684e-05
2.60666e-05
2.60647e-05
2.60627e-05
2.60606e-05
2.60583e-05
2.6056e-05
2.60537e-05
2.60516e-05
2.60496e-05
2.60476e-05
2.60456e-05
2.60434e-05
2.60408e-05
2.60379e-05
2.60347e-05
2.60313e-05
2.60277e-05
2.60241e-05
2.60209e-05
2.60177e-05
2.60139e-05
2.60106e-05
2.60074e-05
2.60025e-05
2.59971e-05
2.59924e-05
2.59852e-05
2.59762e-05
2.59688e-05
2.59592e-05
2.5947e-05
2.59365e-05
2.5925e-05
2.591e-05
2.58963e-05
2.5883e-05
2.58652e-05
2.58477e-05
2.58319e-05
2.58114e-05
2.57894e-05
2.577e-05
2.57471e-05
2.57207e-05
2.56967e-05
2.56722e-05
2.56421e-05
2.56136e-05
2.55874e-05
2.55552e-05
2.55228e-05
2.5493e-05
2.54633e-05
2.54259e-05
2.53922e-05
2.53605e-05
2.53303e-05
2.52897e-05
2.52496e-05
2.52149e-05
2.51797e-05
2.51433e-05
2.5097e-05
2.50562e-05
2.50195e-05
2.49831e-05
2.4943e-05
2.48968e-05
2.48561e-05
2.48183e-05
2.47797e-05
2.4742e-05
2.46973e-05
2.46549e-05
2.46157e-05
2.45776e-05
2.45396e-05
2.45016e-05
2.44636e-05
2.44257e-05
2.43879e-05
2.43504e-05
2.43132e-05
2.42764e-05
2.424e-05
2.42042e-05
2.41691e-05
2.41347e-05
2.41009e-05
2.40678e-05
2.40353e-05
2.40034e-05
2.39719e-05
2.39408e-05
2.62714e-05
2.62678e-05
2.62644e-05
2.62609e-05
2.62576e-05
2.62544e-05
2.62515e-05
2.6249e-05
2.62469e-05
2.62451e-05
2.62436e-05
2.62422e-05
2.62409e-05
2.62396e-05
2.62383e-05
2.62372e-05
2.62363e-05
2.62356e-05
2.62353e-05
2.62352e-05
2.62352e-05
2.62352e-05
2.6235e-05
2.62348e-05
2.62344e-05
2.62339e-05
2.62333e-05
2.62327e-05
2.6232e-05
2.62312e-05
2.62303e-05
2.62291e-05
2.62275e-05
2.62255e-05
2.6223e-05
2.62202e-05
2.62169e-05
2.62136e-05
2.62101e-05
2.6206e-05
2.62022e-05
2.61983e-05
2.61931e-05
2.61876e-05
2.61825e-05
2.61754e-05
2.61666e-05
2.6159e-05
2.61494e-05
2.61368e-05
2.61257e-05
2.61138e-05
2.60983e-05
2.60831e-05
2.60691e-05
2.60513e-05
2.6032e-05
2.60151e-05
2.59951e-05
2.59719e-05
2.59509e-05
2.59291e-05
2.59023e-05
2.58766e-05
2.58526e-05
2.58233e-05
2.57932e-05
2.5766e-05
2.57354e-05
2.57019e-05
2.56706e-05
2.56407e-05
2.5604e-05
2.55693e-05
2.55365e-05
2.55052e-05
2.54641e-05
2.54251e-05
2.53906e-05
2.53557e-05
2.53169e-05
2.52701e-05
2.52304e-05
2.51935e-05
2.51575e-05
2.51149e-05
2.50691e-05
2.50285e-05
2.499e-05
2.49508e-05
2.49115e-05
2.48698e-05
2.48282e-05
2.47884e-05
2.47496e-05
2.47112e-05
2.46728e-05
2.46344e-05
2.4596e-05
2.45579e-05
2.452e-05
2.44822e-05
2.4445e-05
2.44083e-05
2.4372e-05
2.43364e-05
2.43014e-05
2.42671e-05
2.42334e-05
2.42002e-05
2.41675e-05
2.41351e-05
2.41031e-05
2.64203e-05
2.64175e-05
2.64151e-05
2.64131e-05
2.64114e-05
2.64099e-05
2.64084e-05
2.64072e-05
2.64062e-05
2.64054e-05
2.64051e-05
2.64051e-05
2.64053e-05
2.64059e-05
2.64066e-05
2.64075e-05
2.64084e-05
2.64094e-05
2.64105e-05
2.64117e-05
2.64132e-05
2.64148e-05
2.64166e-05
2.64184e-05
2.64202e-05
2.64219e-05
2.64234e-05
2.64246e-05
2.64257e-05
2.64266e-05
2.64272e-05
2.64277e-05
2.64278e-05
2.64277e-05
2.64271e-05
2.64261e-05
2.64245e-05
2.64223e-05
2.64195e-05
2.64162e-05
2.64124e-05
2.64081e-05
2.64035e-05
2.63985e-05
2.63926e-05
2.63865e-05
2.63802e-05
2.63723e-05
2.6363e-05
2.63546e-05
2.63443e-05
2.63312e-05
2.63191e-05
2.63064e-05
2.62902e-05
2.62733e-05
2.62582e-05
2.62397e-05
2.62186e-05
2.61998e-05
2.61796e-05
2.61551e-05
2.61318e-05
2.61097e-05
2.60828e-05
2.60549e-05
2.60297e-05
2.60014e-05
2.59697e-05
2.59402e-05
2.59111e-05
2.5877e-05
2.58437e-05
2.58129e-05
2.57773e-05
2.57411e-05
2.57068e-05
2.56744e-05
2.56335e-05
2.55947e-05
2.55594e-05
2.55247e-05
2.54837e-05
2.54376e-05
2.53982e-05
2.53603e-05
2.5324e-05
2.528e-05
2.52352e-05
2.51945e-05
2.51553e-05
2.51158e-05
2.50758e-05
2.5035e-05
2.49941e-05
2.49539e-05
2.49146e-05
2.48757e-05
2.48369e-05
2.47982e-05
2.47595e-05
2.4721e-05
2.46829e-05
2.46451e-05
2.46076e-05
2.45706e-05
2.4534e-05
2.44981e-05
2.44628e-05
2.4428e-05
2.43938e-05
2.436e-05
2.43265e-05
2.42933e-05
2.42602e-05
2.65687e-05
2.65676e-05
2.65668e-05
2.65665e-05
2.65665e-05
2.65668e-05
2.65674e-05
2.65683e-05
2.65693e-05
2.65706e-05
2.65723e-05
2.65742e-05
2.65764e-05
2.6579e-05
2.65818e-05
2.65847e-05
2.65878e-05
2.6591e-05
2.65943e-05
2.65976e-05
2.6601e-05
2.66045e-05
2.6608e-05
2.66116e-05
2.66151e-05
2.66185e-05
2.66217e-05
2.66246e-05
2.66272e-05
2.66295e-05
2.66314e-05
2.66329e-05
2.66341e-05
2.66347e-05
2.66348e-05
2.66343e-05
2.66333e-05
2.66315e-05
2.6629e-05
2.66257e-05
2.66217e-05
2.66169e-05
2.66115e-05
2.66054e-05
2.65984e-05
2.6591e-05
2.65831e-05
2.65738e-05
2.65635e-05
2.65534e-05
2.65417e-05
2.65276e-05
2.65141e-05
2.64999e-05
2.64826e-05
2.6464e-05
2.64472e-05
2.64276e-05
2.64047e-05
2.63836e-05
2.63623e-05
2.63368e-05
2.63106e-05
2.62869e-05
2.62598e-05
2.62297e-05
2.62018e-05
2.6174e-05
2.61414e-05
2.61092e-05
2.60793e-05
2.60458e-05
2.60102e-05
2.59768e-05
2.59431e-05
2.59054e-05
2.5869e-05
2.58349e-05
2.57952e-05
2.57556e-05
2.57189e-05
2.56836e-05
2.56416e-05
2.55969e-05
2.55567e-05
2.55176e-05
2.5479e-05
2.54368e-05
2.53934e-05
2.53521e-05
2.53119e-05
2.52719e-05
2.52315e-05
2.51908e-05
2.51501e-05
2.51098e-05
2.507e-05
2.50307e-05
2.49915e-05
2.49525e-05
2.49138e-05
2.48753e-05
2.48371e-05
2.47991e-05
2.47614e-05
2.47242e-05
2.46875e-05
2.46513e-05
2.46157e-05
2.45805e-05
2.45457e-05
2.45111e-05
2.44768e-05
2.44425e-05
2.44082e-05
2.43737e-05
2.67282e-05
2.67265e-05
2.67252e-05
2.67243e-05
2.67237e-05
2.67236e-05
2.67237e-05
2.67241e-05
2.67248e-05
2.67259e-05
2.67274e-05
2.67294e-05
2.67317e-05
2.67343e-05
2.67372e-05
2.67405e-05
2.6744e-05
2.67478e-05
2.67518e-05
2.67562e-05
2.67608e-05
2.67656e-05
2.67707e-05
2.67759e-05
2.67812e-05
2.67865e-05
2.67919e-05
2.67973e-05
2.68026e-05
2.68079e-05
2.68131e-05
2.68181e-05
2.6823e-05
2.68277e-05
2.6832e-05
2.68359e-05
2.68393e-05
2.68422e-05
2.68446e-05
2.68464e-05
2.68476e-05
2.68479e-05
2.68477e-05
2.68468e-05
2.6845e-05
2.68424e-05
2.68388e-05
2.68342e-05
2.68287e-05
2.68224e-05
2.6815e-05
2.68067e-05
2.67977e-05
2.67878e-05
2.67766e-05
2.67647e-05
2.67524e-05
2.67386e-05
2.67229e-05
2.67073e-05
2.6691e-05
2.66721e-05
2.66515e-05
2.66325e-05
2.66111e-05
2.65865e-05
2.65626e-05
2.65395e-05
2.65128e-05
2.64838e-05
2.64574e-05
2.64296e-05
2.63979e-05
2.63667e-05
2.63377e-05
2.63048e-05
2.62698e-05
2.62371e-05
2.62046e-05
2.61674e-05
2.6131e-05
2.60965e-05
2.60593e-05
2.60203e-05
2.59832e-05
2.59452e-05
2.5905e-05
2.58659e-05
2.58281e-05
2.57878e-05
2.57449e-05
2.57034e-05
2.56627e-05
2.56223e-05
2.55811e-05
2.55388e-05
2.54971e-05
2.54561e-05
2.54155e-05
2.53748e-05
2.53341e-05
2.52934e-05
2.52529e-05
2.52128e-05
2.51731e-05
2.51338e-05
2.50947e-05
2.50559e-05
2.50173e-05
2.49789e-05
2.49408e-05
2.49031e-05
2.48657e-05
2.48288e-05
2.47923e-05
2.47561e-05
2.47203e-05
2.46847e-05
2.46492e-05
2.46137e-05
2.45782e-05
2.45424e-05
2.45064e-05
2.68773e-05
2.68774e-05
2.68778e-05
2.68786e-05
2.68798e-05
2.68815e-05
2.68836e-05
2.6886e-05
2.68887e-05
2.68919e-05
2.68955e-05
2.68994e-05
2.69038e-05
2.69085e-05
2.69136e-05
2.6919e-05
2.69247e-05
2.69307e-05
2.69369e-05
2.69434e-05
2.69501e-05
2.6957e-05
2.69641e-05
2.69713e-05
2.69786e-05
2.69859e-05
2.69931e-05
2.70003e-05
2.70073e-05
2.70141e-05
2.70208e-05
2.70272e-05
2.70332e-05
2.7039e-05
2.70443e-05
2.7049e-05
2.70532e-05
2.70568e-05
2.70596e-05
2.70617e-05
2.7063e-05
2.70633e-05
2.70628e-05
2.70616e-05
2.70593e-05
2.7056e-05
2.70517e-05
2.70462e-05
2.70396e-05
2.70319e-05
2.7023e-05
2.7013e-05
2.7002e-05
2.699e-05
2.69767e-05
2.69624e-05
2.69474e-05
2.6931e-05
2.69132e-05
2.6895e-05
2.68759e-05
2.68547e-05
2.68318e-05
2.681e-05
2.67864e-05
2.67597e-05
2.67328e-05
2.67073e-05
2.66787e-05
2.66473e-05
2.66175e-05
2.65882e-05
2.65551e-05
2.65206e-05
2.64887e-05
2.64556e-05
2.64185e-05
2.63825e-05
2.63487e-05
2.63114e-05
2.6272e-05
2.62347e-05
2.61981e-05
2.61576e-05
2.61176e-05
2.60787e-05
2.60389e-05
2.59983e-05
2.59581e-05
2.59177e-05
2.5876e-05
2.5834e-05
2.57923e-05
2.57509e-05
2.57094e-05
2.56675e-05
2.56257e-05
2.55842e-05
2.55431e-05
2.55022e-05
2.54612e-05
2.54204e-05
2.53798e-05
2.53397e-05
2.52999e-05
2.52604e-05
2.52212e-05
2.51822e-05
2.51434e-05
2.51049e-05
2.50667e-05
2.50287e-05
2.49911e-05
2.49538e-05
2.49167e-05
2.48799e-05
2.48432e-05
2.48065e-05
2.47698e-05
2.47329e-05
2.46959e-05
2.46585e-05
2.46208e-05
2.70318e-05
2.70337e-05
2.7036e-05
2.70387e-05
2.70418e-05
2.70455e-05
2.70495e-05
2.7054e-05
2.70589e-05
2.70641e-05
2.70698e-05
2.70759e-05
2.70824e-05
2.70893e-05
2.70965e-05
2.71041e-05
2.71119e-05
2.712e-05
2.71284e-05
2.71369e-05
2.71456e-05
2.71545e-05
2.71634e-05
2.71725e-05
2.71815e-05
2.71904e-05
2.71993e-05
2.72079e-05
2.72163e-05
2.72244e-05
2.72322e-05
2.72396e-05
2.72465e-05
2.72529e-05
2.72587e-05
2.72639e-05
2.72683e-05
2.7272e-05
2.72748e-05
2.72767e-05
2.72775e-05
2.72773e-05
2.72762e-05
2.7274e-05
2.72707e-05
2.72663e-05
2.72606e-05
2.72536e-05
2.72454e-05
2.72359e-05
2.72251e-05
2.7213e-05
2.71997e-05
2.71851e-05
2.71693e-05
2.71523e-05
2.71343e-05
2.7115e-05
2.70943e-05
2.7073e-05
2.70507e-05
2.70265e-05
2.7001e-05
2.69758e-05
2.69492e-05
2.69201e-05
2.68899e-05
2.68613e-05
2.68304e-05
2.67967e-05
2.67632e-05
2.67315e-05
2.66967e-05
2.66594e-05
2.66239e-05
2.65895e-05
2.65511e-05
2.65117e-05
2.64748e-05
2.64376e-05
2.63963e-05
2.63559e-05
2.63174e-05
2.62771e-05
2.62348e-05
2.61939e-05
2.61533e-05
2.61121e-05
2.60705e-05
2.6029e-05
2.59872e-05
2.59449e-05
2.59027e-05
2.58606e-05
2.58187e-05
2.57767e-05
2.57348e-05
2.56931e-05
2.56516e-05
2.56103e-05
2.55691e-05
2.55282e-05
2.54878e-05
2.54476e-05
2.54077e-05
2.5368e-05
2.53285e-05
2.52893e-05
2.52504e-05
2.52116e-05
2.51731e-05
2.51348e-05
2.50967e-05
2.50587e-05
2.50209e-05
2.49831e-05
2.49453e-05
2.49074e-05
2.48693e-05
2.48309e-05
2.47922e-05
2.47531e-05
2.47137e-05
2.71912e-05
2.7195e-05
2.71993e-05
2.7204e-05
2.72092e-05
2.72148e-05
2.72209e-05
2.72275e-05
2.72345e-05
2.72419e-05
2.72497e-05
2.72579e-05
2.72665e-05
2.72754e-05
2.72847e-05
2.72943e-05
2.73042e-05
2.73143e-05
2.73246e-05
2.7335e-05
2.73456e-05
2.73561e-05
2.73667e-05
2.73773e-05
2.73877e-05
2.7398e-05
2.74081e-05
2.74178e-05
2.74272e-05
2.74361e-05
2.74446e-05
2.74525e-05
2.74597e-05
2.74663e-05
2.74722e-05
2.74772e-05
2.74813e-05
2.74845e-05
2.74867e-05
2.74877e-05
2.74875e-05
2.74864e-05
2.7484e-05
2.74803e-05
2.74754e-05
2.74691e-05
2.74615e-05
2.74525e-05
2.74421e-05
2.74303e-05
2.7417e-05
2.74024e-05
2.73863e-05
2.73689e-05
2.73501e-05
2.733e-05
2.73087e-05
2.7286e-05
2.7262e-05
2.72372e-05
2.72112e-05
2.71837e-05
2.71549e-05
2.7126e-05
2.7096e-05
2.70638e-05
2.70304e-05
2.69981e-05
2.69644e-05
2.6928e-05
2.68908e-05
2.68559e-05
2.68191e-05
2.67793e-05
2.67401e-05
2.67031e-05
2.66635e-05
2.66212e-05
2.65809e-05
2.65423e-05
2.65001e-05
2.64566e-05
2.64153e-05
2.63746e-05
2.63314e-05
2.62884e-05
2.62463e-05
2.62042e-05
2.61617e-05
2.61191e-05
2.60766e-05
2.60339e-05
2.59912e-05
2.59487e-05
2.59063e-05
2.58641e-05
2.5822e-05
2.57801e-05
2.57383e-05
2.56967e-05
2.56555e-05
2.56147e-05
2.55742e-05
2.55339e-05
2.54938e-05
2.5454e-05
2.54143e-05
2.53748e-05
2.53356e-05
2.52965e-05
2.52575e-05
2.52186e-05
2.51799e-05
2.51411e-05
2.51023e-05
2.50635e-05
2.50244e-05
2.49851e-05
2.49455e-05
2.49055e-05
2.48652e-05
2.48244e-05
2.47834e-05
2.47419e-05
2.47003e-05
2.73551e-05
2.73609e-05
2.73672e-05
2.73739e-05
2.73811e-05
2.73888e-05
2.73969e-05
2.74056e-05
2.74146e-05
2.74241e-05
2.74339e-05
2.74442e-05
2.74548e-05
2.74657e-05
2.74769e-05
2.74884e-05
2.75001e-05
2.75119e-05
2.75239e-05
2.75359e-05
2.75479e-05
2.75599e-05
2.75717e-05
2.75834e-05
2.75949e-05
2.76061e-05
2.76169e-05
2.76273e-05
2.76371e-05
2.76463e-05
2.76549e-05
2.76628e-05
2.76698e-05
2.7676e-05
2.76813e-05
2.76856e-05
2.76888e-05
2.76909e-05
2.76917e-05
2.76913e-05
2.76897e-05
2.76868e-05
2.76824e-05
2.76767e-05
2.76695e-05
2.76609e-05
2.76507e-05
2.7639e-05
2.76259e-05
2.76112e-05
2.75949e-05
2.75772e-05
2.75579e-05
2.75372e-05
2.75149e-05
2.74914e-05
2.74664e-05
2.744e-05
2.74124e-05
2.73837e-05
2.73538e-05
2.73225e-05
2.72901e-05
2.72572e-05
2.72233e-05
2.71877e-05
2.71508e-05
2.71144e-05
2.70774e-05
2.70381e-05
2.69974e-05
2.69587e-05
2.69195e-05
2.68772e-05
2.68343e-05
2.6794e-05
2.67529e-05
2.67083e-05
2.66645e-05
2.66232e-05
2.65805e-05
2.65348e-05
2.64906e-05
2.64481e-05
2.64046e-05
2.63601e-05
2.63163e-05
2.6273e-05
2.62296e-05
2.61862e-05
2.61428e-05
2.60996e-05
2.60565e-05
2.60136e-05
2.59709e-05
2.59285e-05
2.58862e-05
2.5844e-05
2.58019e-05
2.57603e-05
2.57192e-05
2.56784e-05
2.56378e-05
2.55974e-05
2.55572e-05
2.55171e-05
2.54772e-05
2.54375e-05
2.53978e-05
2.53583e-05
2.53188e-05
2.52793e-05
2.52397e-05
2.52001e-05
2.51603e-05
2.51203e-05
2.508e-05
2.50393e-05
2.49983e-05
2.49568e-05
2.4915e-05
2.48727e-05
2.483e-05
2.4787e-05
2.47438e-05
2.75228e-05
2.75306e-05
2.75388e-05
2.75475e-05
2.75567e-05
2.75664e-05
2.75765e-05
2.75871e-05
2.75981e-05
2.76095e-05
2.76213e-05
2.76334e-05
2.76458e-05
2.76584e-05
2.76713e-05
2.76844e-05
2.76975e-05
2.77108e-05
2.77241e-05
2.77373e-05
2.77504e-05
2.77633e-05
2.7776e-05
2.77884e-05
2.78004e-05
2.7812e-05
2.7823e-05
2.78334e-05
2.78431e-05
2.78521e-05
2.78602e-05
2.78674e-05
2.78736e-05
2.78788e-05
2.78828e-05
2.78857e-05
2.78873e-05
2.78874e-05
2.78865e-05
2.78841e-05
2.78803e-05
2.78749e-05
2.7868e-05
2.78596e-05
2.78495e-05
2.78379e-05
2.78246e-05
2.78097e-05
2.77932e-05
2.77751e-05
2.77553e-05
2.7734e-05
2.7711e-05
2.76865e-05
2.76605e-05
2.7633e-05
2.76041e-05
2.75738e-05
2.75421e-05
2.75093e-05
2.74753e-05
2.744e-05
2.74036e-05
2.73664e-05
2.73284e-05
2.72891e-05
2.72485e-05
2.7208e-05
2.71673e-05
2.71247e-05
2.70805e-05
2.70379e-05
2.69958e-05
2.69509e-05
2.69048e-05
2.6861e-05
2.68177e-05