/*--------------------------------*- C++ -*----------------------------------*\
| =========                 |                                                 |
| \\      /  F ield         | OpenFOAM: The Open Source CFD Toolbox           |
|  \\    /   O peration     | Version:  v1706                                 |
|   \\  /    A nd           | Web:      www.OpenFOAM.com                      |
|    \\/     M anipulation  |                                                 |
\*---------------------------------------------------------------------------*/
FoamFile
{
    version     2.0;
    format      ascii;
    class       volScalarField;
    location    "3.4e-05";
    object      Mach;
}
// * * * * * * * * * * * * * * * * * * * * * * * * * * * * * * * * * * * * * //

dimensions      [0 0 0 0 0 0 0];


internalField   nonuniform List<scalar> 
29871
(
3.92151
3.91231
3.9021
3.89095
3.87894
3.86623
3.85292
3.83899
3.82428
3.80832
3.79036
3.77004
3.74745
3.72296
3.69722
3.6709
3.64448
3.6183
3.59262
3.56766
3.54356
3.52051
3.4979
3.47343
3.44375
3.41049
3.3758
3.3413
3.30802
3.27662
3.24744
3.22067
3.19631
3.17424
3.15424
3.13608
3.11955
3.10449
3.09079
3.07838
3.06724
3.05732
3.04863
3.04114
3.03483
3.02969
3.02566
3.02268
3.02063
3.01973
3.01961
3.02008
3.02131
3.02301
3.02553
3.02875
3.03233
3.03629
3.0406
3.04533
3.05035
3.05571
3.06149
3.06742
3.07345
3.07977
3.08631
3.09281
3.09938
3.10622
3.11338
3.1209
3.12885
3.13725
3.14607
3.15527
3.16483
3.17475
3.18505
3.19573
3.20681
3.21833
3.23032
3.24283
3.25589
3.26957
3.28393
3.29902
3.31491
3.33165
3.34931
3.36795
3.38766
3.40853
3.4307
3.45426
3.47911
3.5051
3.53215
3.56018
3.58827
3.61231
3.63137
3.64918
3.66719
3.60061
3.55988
3.51557
3.46833
3.41901
3.36855
3.31766
3.26714
3.21665
3.16468
3.10857
3.04923
2.98846
2.928
2.8692
2.81313
2.76049
2.7118
2.66731
2.62717
2.59138
2.55978
2.5322
2.50873
2.48946
2.47378
2.46114
2.4511
2.44334
2.43763
2.43378
2.43165
2.43094
2.43128
2.43234
2.4339
2.4358
2.43796
2.44037
2.44302
2.44586
2.44889
2.45208
2.45542
2.45892
2.46256
2.46634
2.47023
2.47421
2.47826
2.48239
2.48649
2.49081
2.49452
2.49948
2.50395
2.50748
2.51153
2.51568
2.51985
2.52388
2.52776
2.53156
2.53526
2.53884
2.54221
2.5453
2.54836
2.5515
2.55458
2.55767
2.56094
2.56443
2.56805
2.57172
2.57543
2.57919
2.58301
2.5869
2.59087
2.59492
2.59906
2.60332
2.6077
2.61224
2.61693
2.6218
2.62685
2.63211
2.63756
2.64322
2.64909
2.65519
2.66157
2.66837
2.67611
2.68528
2.69589
2.70807
2.72219
2.73886
2.75926
2.78388
2.8121
2.84353
3.07396
3.00589
2.93486
2.86275
2.79147
2.72262
2.65746
2.59686
2.54139
2.49136
2.44725
2.40949
2.37754
2.35073
2.32841
2.30989
2.29458
2.28196
2.27166
2.26343
2.25712
2.25266
2.24998
2.24881
2.24883
2.24984
2.25169
2.25428
2.25735
2.26089
2.26485
2.26927
2.27442
2.28007
2.28595
2.29189
2.29779
2.30361
2.30931
2.31488
2.32033
2.32564
2.33084
2.33594
2.34097
2.34597
2.35098
2.35602
2.36111
2.36628
2.37154
2.37691
2.38234
2.38789
2.39344
2.39913
2.40491
2.41069
2.41642
2.42253
2.42859
2.43417
2.44036
2.44613
2.45065
2.45646
2.46183
2.4662
2.47102
2.47631
2.48119
2.48577
2.49057
2.49544
2.50021
2.50488
2.50951
2.51413
2.51871
2.52326
2.52776
2.53222
2.53664
2.54103
2.54537
2.54965
2.55388
2.55802
2.56207
2.56601
2.5698
2.57341
2.57683
2.58002
2.58306
2.58602
2.58916
2.59292
2.59712
2.60151
2.60598
2.6106
2.61563
2.62116
2.62717
2.63365
2.41271
2.36767
2.32919
2.29659
2.26921
2.24638
2.22746
2.21185
2.19904
2.18863
2.18039
2.17417
2.1698
2.16705
2.16564
2.16514
2.16518
2.16552
2.16604
2.16678
2.16781
2.16939
2.17174
2.17466
2.17787
2.18124
2.18478
2.18849
2.19233
2.19624
2.20016
2.20398
2.20778
2.21185
2.21637
2.22137
2.22681
2.23259
2.23864
2.24486
2.25122
2.25767
2.26418
2.27071
2.27725
2.28378
2.2903
2.29681
2.3033
2.30978
2.31627
2.32277
2.32927
2.33575
2.34221
2.34864
2.35503
2.36144
2.36787
2.37459
2.38142
2.38778
2.39492
2.40175
2.40677
2.41377
2.42029
2.4259
2.43142
2.43784
2.44405
2.44958
2.45528
2.46114
2.46688
2.47247
2.47799
2.48348
2.48892
2.4943
2.49963
2.50491
2.51016
2.51536
2.52052
2.52565
2.53073
2.53577
2.54078
2.54577
2.55078
2.55583
2.56097
2.56624
2.57167
2.57728
2.5825
2.58641
2.58958
2.59255
2.59559
2.59886
2.6024
2.6062
2.61019
2.61425
2.15869
2.14688
2.13748
2.13019
2.12468
2.12072
2.11804
2.1163
2.11517
2.11442
2.11398
2.11384
2.11409
2.11491
2.1163
2.11839
2.12084
2.12343
2.12607
2.12864
2.13105
2.13322
2.13502
2.13658
2.13838
2.1407
2.14361
2.14704
2.15091
2.15514
2.15963
2.16435
2.16897
2.17295
2.17657
2.18023
2.18419
2.18861
2.19348
2.19876
2.2044
2.21029
2.21638
2.2226
2.22889
2.23523
2.24159
2.24794
2.2543
2.26069
2.26711
2.27357
2.28014
2.28681
2.29356
2.30043
2.30742
2.31445
2.32156
2.32885
2.33625
2.34372
2.35111
2.35888
2.36648
2.37326
2.38087
2.3883
2.39529
2.4012
2.4087
2.41579
2.42242
2.42889
2.43592
2.44285
2.44938
2.45581
2.46221
2.46847
2.4746
2.48065
2.48662
2.49249
2.49825
2.50391
2.50946
2.5149
2.5202
2.52539
2.53048
2.53549
2.54047
2.54543
2.55042
2.55541
2.5602
2.56465
2.56909
2.57344
2.57772
2.58201
2.58638
2.59093
2.59572
2.60081
2.60629
2.08136
2.08008
2.07918
2.07867
2.07861
2.07912
2.08025
2.08175
2.08341
2.08515
2.08684
2.08851
2.09011
2.09169
2.09319
2.09472
2.09659
2.09887
2.10175
2.10489
2.10805
2.11128
2.1141
2.11618
2.11782
2.11936
2.12121
2.12356
2.1264
2.12967
2.13323
2.13711
2.14121
2.1454
2.14935
2.15325
2.15705
2.16092
2.165
2.16937
2.17408
2.17911
2.18444
2.19004
2.19582
2.20177
2.20783
2.214
2.22019
2.22645
2.23284
2.23923
2.24564
2.25223
2.25894
2.26564
2.27253
2.27963
2.28671
2.29402
2.30141
2.30896
2.31677
2.32442
2.33202
2.3399
2.34783
2.35603
2.36381
2.37011
2.37867
2.38636
2.3941
2.40078
2.40877
2.41699
2.42443
2.4316
2.43894
2.44606
2.45301
2.45994
2.46681
2.47355
2.48014
2.48662
2.49299
2.49924
2.50532
2.51125
2.51704
2.52271
2.52827
2.53372
2.53905
2.5442
2.5491
2.55388
2.55869
2.56353
2.56833
2.57306
2.57775
2.58247
2.58732
2.5924
2.59777
2.05125
2.05219
2.05334
2.0545
2.05569
2.05702
2.05794
2.05904
2.06015
2.06121
2.06242
2.06402
2.06626
2.06841
2.07072
2.07317
2.07553
2.07783
2.07942
2.08096
2.08278
2.08498
2.0875
2.09024
2.09314
2.09583
2.09857
2.10111
2.10292
2.1048
2.10673
2.10883
2.11125
2.11397
2.11714
2.12072
2.12439
2.12818
2.13207
2.13589
2.1396
2.1434
2.14728
2.15132
2.15565
2.16018
2.16505
2.17022
2.17566
2.18101
2.18687
2.19288
2.19866
2.20495
2.21129
2.21743
2.22395
2.23059
2.23726
2.24369
2.2508
2.25792
2.26484
2.27188
2.27944
2.28718
2.29464
2.30169
2.30993
2.3178
2.32636
2.3339
2.3406
2.34969
2.35784
2.36641
2.37306
2.38162
2.39047
2.39863
2.4061
2.41415
2.42214
2.42957
2.4371
2.44471
2.45218
2.45945
2.46661
2.4737
2.4807
2.48753
2.49418
2.50067
2.50703
2.51324
2.51928
2.52513
2.53077
2.53624
2.54161
2.54693
2.55224
2.55754
2.56279
2.56806
2.57342
2.57878
2.58416
2.58964
2.03317
2.03405
2.03528
2.03693
2.03881
2.04061
2.04253
2.04454
2.04635
2.04788
2.04905
2.05038
2.05208
2.05397
2.05602
2.05823
2.06048
2.06274
2.06485
2.06675
2.06866
2.07057
2.07266
2.07495
2.07751
2.08013
2.08284
2.08556
2.08807
2.09035
2.09247
2.0945
2.09659
2.09889
2.10141
2.10437
2.10762
2.11072
2.11443
2.11819
2.12175
2.12553
2.12931
2.13307
2.13707
2.14126
2.14544
2.15013
2.15516
2.1598
2.16524
2.171
2.17633
2.18212
2.18841
2.19455
2.20036
2.20717
2.21395
2.21976
2.22704
2.2341
2.24084
2.24726
2.25513
2.2626
2.26984
2.27617
2.28457
2.29224
2.30074
2.30748
2.31471
2.32372
2.33189
2.34087
2.34773
2.35638
2.36549
2.37403
2.38162
2.39007
2.39838
2.40644
2.41405
2.42202
2.43016
2.43791
2.4455
2.45308
2.46063
2.46804
2.47526
2.48229
2.48918
2.49593
2.50249
2.50887
2.51505
2.52108
2.52698
2.53275
2.53854
2.54441
2.55012
2.55582
2.56158
2.56735
2.5731
2.5788
2.02002
2.02116
2.02227
2.02363
2.02521
2.02691
2.02877
2.03067
2.03247
2.03426
2.03587
2.03736
2.03883
2.04044
2.04218
2.04408
2.04614
2.04832
2.05054
2.05267
2.05471
2.05666
2.05865
2.06076
2.06299
2.06539
2.0679
2.07054
2.0732
2.07577
2.07826
2.0806
2.08288
2.08518
2.08749
2.09011
2.09304
2.09569
2.09905
2.10273
2.10598
2.1096
2.11356
2.11723
2.12105
2.12524
2.12918
2.13345
2.13821
2.14264
2.14742
2.15289
2.1582
2.16311
2.16932
2.17553
2.18058
2.18733
2.1941
2.19977
2.20656
2.2137
2.22064
2.22652
2.23453
2.24185
2.24869
2.25491
2.26332
2.27074
2.27899
2.28482
2.29286
2.30143
2.30936
2.31829
2.32491
2.3339
2.34296
2.35163
2.35915
2.36781
2.37626
2.38462
2.39222
2.40028
2.40869
2.41676
2.42474
2.4324
2.44021
2.448
2.45571
2.46305
2.4703
2.47741
2.48434
2.49112
2.49773
2.5042
2.51055
2.51676
2.52287
2.52897
2.53504
2.54109
2.54714
2.55316
2.55914
2.565
2.00674
2.00821
2.00952
2.01078
2.0121
2.01352
2.01509
2.01677
2.01852
2.02032
2.02208
2.02373
2.02528
2.02681
2.02838
2.03005
2.03185
2.03381
2.03589
2.03803
2.04015
2.04224
2.04429
2.04637
2.04849
2.05073
2.05309
2.05559
2.0582
2.06087
2.06354
2.06613
2.06869
2.07129
2.07371
2.0763
2.07915
2.08174
2.08475
2.08823
2.09144
2.09471
2.09873
2.10255
2.10607
2.11037
2.1145
2.11835
2.12302
2.12762
2.13177
2.13704
2.14238
2.14674
2.15267
2.15876
2.16364
2.16989
2.17651
2.18242
2.18848
2.19564
2.20264
2.20832
2.21604
2.22336
2.23012
2.2365
2.24476
2.25205
2.25964
2.26548
2.27395
2.28205
2.28977
2.29802
2.30464
2.31397
2.3227
2.33134
2.33866
2.34746
2.35596
2.36433
2.37197
2.37993
2.38849
2.39658
2.40456
2.41254
2.42011
2.42818
2.43599
2.44355
2.45099
2.45832
2.4655
2.47253
2.47941
2.48616
2.49276
2.49923
2.50561
2.51192
2.51819
2.52443
2.53063
2.5368
2.54289
2.54885
1.99302
1.99454
1.99596
1.99727
1.99852
1.99979
2.00112
2.00255
2.00408
2.00571
2.0074
2.00909
2.01073
2.01231
2.01387
2.01546
2.01712
2.01889
2.02079
2.0228
2.02489
2.02702
2.02916
2.0313
2.03346
2.03567
2.03796
2.04037
2.0429
2.04554
2.04826
2.05101
2.05375
2.05656
2.05924
2.06192
2.06491
2.06766
2.07049
2.07387
2.0771
2.0802
2.08411
2.08798
2.09141
2.09568
2.10003
2.10375
2.10833
2.1131
2.11709
2.12208
2.12742
2.13179
2.1372
2.14313
2.14825
2.1538
2.16029
2.16643
2.17192
2.17895
2.18593
2.19159
2.19885
2.20617
2.213
2.21935
2.22738
2.2347
2.24179
2.24816
2.25658
2.26432
2.27205
2.2791
2.28645
2.29568
2.30401
2.31246
2.31961
2.32853
2.33697
2.34524
2.35285
2.36067
2.36932
2.37737
2.38523
2.39328
2.4004
2.4086
2.41642
2.42397
2.43146
2.43889
2.4462
2.45337
2.46039
2.46727
2.47402
2.48065
2.48718
2.49362
2.5
2.50634
2.5126
2.5188
2.525
2.53104
1.97731
1.97863
1.98
1.98137
1.9827
1.98397
1.98521
1.98644
1.98771
1.98906
1.99049
1.99202
1.99361
1.99523
1.99684
1.99845
2.00005
2.00167
2.00336
2.00513
2.00702
2.009
2.01108
2.01323
2.01541
2.01763
2.01989
2.0222
2.02458
2.02706
2.02966
2.03236
2.03516
2.03801
2.04092
2.04383
2.0467
2.04978
2.05273
2.05562
2.05902
2.06229
2.06539
2.06919
2.07305
2.07651
2.08065
2.08509
2.08891
2.09331
2.09823
2.1024
2.10705
2.11241
2.1171
2.12196
2.1278
2.13326
2.13825
2.14459
2.15088
2.1561
2.1628
2.16974
2.17554
2.18223
2.18955
2.19649
2.20265
2.21044
2.21784
2.22474
2.23137
2.23967
2.24714
2.25495
2.26108
2.26932
2.2781
2.28613
2.29419
2.30136
2.31034
2.31862
2.32677
2.3342
2.34193
2.35064
2.35867
2.36635
2.3742
2.38097
2.3892
2.39691
2.40436
2.41178
2.41918
2.42652
2.43373
2.44081
2.44775
2.45456
2.46126
2.46785
2.47436
2.48076
2.48716
2.49351
2.49976
2.50594
2.51201
1.96251
1.96362
1.96479
1.96601
1.96726
1.96849
1.96971
1.97092
1.97212
1.97336
1.97466
1.97603
1.97748
1.979
1.98057
1.98216
1.98377
1.9854
1.98707
1.98879
1.9906
1.99249
1.99449
1.99658
1.99875
2.00099
2.00328
2.00562
2.00803
2.01051
2.01309
2.01577
2.01856
2.02144
2.02442
2.02745
2.0305
2.03364
2.03678
2.03987
2.04328
2.04662
2.04985
2.05358
2.05743
2.06096
2.06498
2.06945
2.07338
2.07764
2.08263
2.08702
2.09145
2.09684
2.10181
2.10641
2.11214
2.11783
2.12267
2.1287
2.13507
2.1404
2.14656
2.15343
2.15961
2.16566
2.17292
2.18
2.18599
2.19347
2.20091
2.20782
2.21443
2.22256
2.22992
2.23752
2.24376
2.25228
2.26057
2.26844
2.27593
2.2833
2.29228
2.30036
2.30842
2.31541
2.32318
2.3318
2.33969
2.34725
2.35499
2.36177
2.36983
2.37738
2.38468
2.39195
2.39924
2.4065
2.41367
2.42073
2.42766
2.43448
2.44119
2.44776
2.45433
2.46081
2.46721
2.47355
2.4798
2.48598
2.49207
2.49806
2.50394
1.94702
1.94799
1.949
1.95006
1.95116
1.9523
1.95345
1.95461
1.95577
1.95695
1.95817
1.95943
1.96077
1.96217
1.96364
1.96517
1.96675
1.96836
1.97002
1.97172
1.97348
1.97532
1.97725
1.97928
1.9814
1.98361
1.98589
1.98825
1.99068
1.99318
1.99576
1.99843
2.00121
2.00409
2.00707
2.01015
2.0133
2.01652
2.0198
2.02309
2.02651
2.02997
2.03337
2.03709
2.04092
2.04457
2.04853
2.05298
2.05699
2.06118
2.06618
2.07069
2.07508
2.0804
2.0856
2.09021
2.0957
2.10158
2.10658
2.11218
2.11858
2.12429
2.12989
2.13666
2.14323
2.14889
2.15588
2.16307
2.16915
2.17608
2.18354
2.19067
2.19706
2.20498
2.21237
2.2198
2.22626
2.23473
2.24267
2.2505
2.25733
2.26502
2.27391
2.28168
2.28976
2.29617
2.30417
2.31245
2.32006
2.32749
2.33509
2.34261
2.3503
2.3577
2.36485
2.37194
2.37904
2.38614
2.39319
2.40016
2.40702
2.41377
2.4205
2.42712
2.43365
2.44011
2.4465
2.45281
2.45906
2.46523
2.47133
2.47733
2.48326
1.92909
1.92998
1.93085
1.93173
1.93263
1.93356
1.93453
1.93554
1.93659
1.93767
1.93877
1.93989
1.94104
1.94223
1.94347
1.94478
1.94615
1.94759
1.9491
1.95067
1.95229
1.95397
1.9557
1.95751
1.95939
1.96135
1.96342
1.96557
1.96783
1.97016
1.97259
1.97509
1.97768
1.98035
1.98312
1.98599
1.98896
1.99204
1.99522
1.99849
2.00184
2.00525
2.00875
2.01231
2.01589
2.01963
2.02347
2.02726
2.03124
2.03562
2.03972
2.0439
2.04884
2.05344
2.05788
2.06305
2.06841
2.07315
2.07838
2.08437
2.08965
2.09492
2.10125
2.10735
2.11273
2.1192
2.12598
2.13179
2.13817
2.14532
2.15197
2.15817
2.16556
2.17293
2.17921
2.18672
2.19422
2.2017
2.20815
2.21644
2.22412
2.23194
2.23831
2.24622
2.25484
2.26238
2.27041
2.27659
2.28471
2.29263
2.30004
2.30737
2.31487
2.32251
2.33009
2.33743
2.34452
2.35148
2.35841
2.36533
2.37219
2.37903
2.38584
2.39255
2.39919
2.40575
2.41224
2.41867
2.42503
2.43132
2.43754
2.44371
2.4498
2.45582
2.46177
1.91254
1.91332
1.91411
1.91491
1.91571
1.91654
1.9174
1.91829
1.91923
1.92021
1.92122
1.92227
1.92335
1.92448
1.92564
1.92687
1.92816
1.92951
1.93094
1.93244
1.934
1.93564
1.93733
1.9391
1.94094
1.94286
1.94487
1.94697
1.94917
1.95147
1.95386
1.95635
1.95892
1.96159
1.96435
1.9672
1.97016
1.97323
1.9764
1.97968
1.98306
1.98652
1.99008
1.99372
1.99742
2.00122
2.00511
2.00903
2.01308
2.01737
2.02158
2.02582
2.03067
2.03531
2.03984
2.04487
2.05031
2.05518
2.06024
2.06623
2.07177
2.07696
2.08304
2.08941
2.09493
2.10093
2.10773
2.11404
2.11989
2.12686
2.13389
2.13996
2.14683
2.1542
2.16101
2.16772
2.17528
2.18291
2.18938
2.19719
2.20485
2.21259
2.21882
2.22667
2.23484
2.24229
2.24984
2.25695
2.2647
2.27234
2.27962
2.28683
2.29416
2.30162
2.30906
2.31633
2.32338
2.33029
2.33708
2.34384
2.35061
2.35731
2.36398
2.37058
2.37713
2.38363
2.39006
2.39643
2.40275
2.409
2.41521
2.42135
2.42743
2.43346
2.43943
2.44536
1.89115
1.89178
1.89239
1.89301
1.89362
1.89425
1.89489
1.89555
1.89622
1.89691
1.89762
1.89833
1.89907
1.89983
1.90062
1.90146
1.90233
1.90325
1.90421
1.90522
1.90627
1.90736
1.90851
1.90972
1.911
1.91235
1.91377
1.91526
1.91683
1.91848
1.92019
1.92199
1.92386
1.92582
1.92787
1.93002
1.93226
1.93461
1.93706
1.9396
1.94224
1.94498
1.94782
1.95076
1.9538
1.95696
1.96022
1.96359
1.96707
1.97065
1.97433
1.9781
1.98195
1.98591
1.98993
1.99404
1.99832
2.00263
2.00695
2.0117
2.01639
2.02101
2.02594
2.03138
2.03636
2.04137
2.04723
2.05298
2.05824
2.064
2.07047
2.0763
2.08197
2.08861
2.09529
2.10111
2.10761
2.11467
2.1213
2.12747
2.1347
2.14191
2.14837
2.15548
2.16298
2.17003
2.17712
2.18457
2.192
2.19907
2.2065
2.21417
2.22153
2.22883
2.23625
2.24379
2.25124
2.25846
2.26558
2.27274
2.27997
2.2872
2.29433
2.30128
2.30813
2.31488
2.32155
2.32818
2.33475
2.34128
2.34778
2.35423
2.36063
2.36699
2.3733
2.37957
2.38578
2.39195
2.39807
2.40415
2.41018
2.41617
2.42213
1.87457
1.87508
1.87559
1.87611
1.87662
1.87714
1.87767
1.87821
1.87878
1.87936
1.87996
1.88059
1.88123
1.8819
1.8826
1.88334
1.88412
1.88494
1.88581
1.88673
1.8877
1.88872
1.8898
1.89093
1.89213
1.8934
1.89474
1.89616
1.89766
1.89924
1.9009
1.90264
1.90446
1.90637
1.90836
1.91045
1.91264
1.91494
1.91733
1.91983
1.92243
1.92514
1.92794
1.93085
1.93387
1.937
1.94023
1.94359
1.94705
1.95062
1.95431
1.95809
1.96198
1.96598
1.97005
1.97422
1.97853
1.98291
1.98732
1.99199
1.99673
2.00144
2.00632
2.01169
2.01677
2.02182
2.02747
2.03335
2.03873
2.04426
2.05065
2.05678
2.0624
2.06867
2.07545
2.08162
2.08765
2.0946
2.10157
2.10768
2.11442
2.12162
2.12858
2.13504
2.1423
2.14951
2.15651
2.16362
2.17084
2.17807
2.18538
2.19272
2.19998
2.20719
2.21447
2.22183
2.22912
2.23628
2.24333
2.25036
2.25738
2.26438
2.27132
2.2782
2.28497
2.29162
2.2982
2.30471
2.31117
2.31759
2.32397
2.33032
2.33663
2.34291
2.34916
2.35537
2.36154
2.36768
2.37378
2.37984
2.38588
2.39189
2.39788
1.85769
1.85809
1.8585
1.8589
1.85931
1.85973
1.86016
1.8606
1.86106
1.86154
1.86204
1.86257
1.86312
1.8637
1.86431
1.86496
1.86565
1.86638
1.86716
1.86799
1.86888
1.86982
1.87082
1.87187
1.873
1.87419
1.87545
1.8768
1.87822
1.87972
1.88131
1.88299
1.88475
1.8866
1.88853
1.89057
1.8927
1.89493
1.89727
1.89971
1.90226
1.90492
1.90768
1.91055
1.91353
1.91662
1.91982
1.92314
1.92657
1.93012
1.93378
1.93756
1.94145
1.94545
1.94955
1.95375
1.95807
1.96249
1.96697
1.97161
1.97638
1.98116
1.98603
1.9913
1.99646
2.00156
2.00701
2.01293
2.01841
2.02386
2.03001
2.03634
2.04205
2.04797
2.05468
2.06119
2.06707
2.07367
2.08063
2.08718
2.09338
2.10047
2.10756
2.11406
2.12085
2.12798
2.13498
2.1419
2.14893
2.15603
2.16317
2.17033
2.17745
2.18455
2.19166
2.1988
2.20591
2.21296
2.21991
2.2268
2.23363
2.24046
2.24727
2.25399
2.26062
2.26717
2.27364
2.28006
2.28641
2.29273
2.29901
2.30526
2.31149
2.31769
2.32387
2.33002
2.33614
2.34225
2.34833
2.35439
2.36043
2.36646
2.37249
1.84059
1.84088
1.84118
1.84148
1.8418
1.84211
1.84244
1.84279
1.84315
1.84353
1.84394
1.84437
1.84483
1.84532
1.84584
1.8464
1.847
1.84765
1.84834
1.84908
1.84988
1.85074
1.85165
1.85263
1.85368
1.85479
1.85598
1.85724
1.85858
1.86001
1.86153
1.86313
1.86482
1.8666
1.86847
1.87044
1.87251
1.87467
1.87695
1.87933
1.88182
1.88441
1.88711
1.88993
1.89286
1.8959
1.89906
1.90233
1.90572
1.90923
1.91285
1.9166
1.92046
1.92444
1.92852
1.93272
1.93703
1.94145
1.94596
1.95059
1.95536
1.96018
1.96507
1.97022
1.97542
1.98058
1.98588
1.99171
1.99728
2.00275
2.0086
2.01498
2.02081
2.02658
2.03303
2.03969
2.04567
2.05186
2.05874
2.06555
2.07161
2.07828
2.08531
2.09208
2.09855
2.10545
2.11234
2.11916
2.12601
2.13292
2.13987
2.14683
2.15379
2.16073
2.16766
2.17459
2.18151
2.18839
2.19519
2.2019
2.20863
2.2153
2.22192
2.22847
2.23496
2.24139
2.24775
2.25406
2.26032
2.26654
2.27272
2.27889
2.28503
2.29116
2.29727
2.30336
2.30945
2.31552
2.32159
2.32764
2.3337
2.33976
2.34583
2.35192
2.35804
1.82334
1.82353
1.82373
1.82393
1.82415
1.82437
1.8246
1.82485
1.82512
1.82541
1.82572
1.82606
1.82643
1.82683
1.82727
1.82774
1.82825
1.82881
1.82941
1.83007
1.83078
1.83156
1.83239
1.83328
1.83425
1.83528
1.83639
1.83757
1.83883
1.84018
1.84161
1.84313
1.84474
1.84645
1.84825
1.85015
1.85214
1.85424
1.85644
1.85875
1.86116
1.86368
1.86632
1.86907
1.87194
1.87492
1.87801
1.88122
1.88456
1.888
1.89157
1.89526
1.89907
1.903
1.90704
1.9112
1.91548
1.91987
1.92436
1.92896
1.9337
1.93851
1.94339
1.94846
1.95364
1.95883
1.96404
1.9697
1.97531
1.9808
1.9864
1.99269
1.99862
2.00433
2.01046
2.01708
2.02323
2.02918
2.03582
2.0426
2.04886
2.05507
2.06193
2.06869
2.07515
2.08175
2.08849
2.09517
2.10185
2.10857
2.11532
2.12207
2.12883
2.13558
2.14231
2.14904
2.15575
2.16242
2.16901
2.17562
2.18217
2.18866
2.1951
2.20149
2.20783
2.21412
2.22036
2.22656
2.23271
2.23884
2.24494
2.25102
2.25708
2.26314
2.26919
2.27524
2.28129
2.28734
2.2934
2.29946
2.30554
2.31163
2.31776
2.32391
2.33011
1.80601
1.80611
1.80621
1.80632
1.80644
1.80657
1.80671
1.80687
1.80705
1.80725
1.80747
1.80772
1.808
1.80831
1.80866
1.80904
1.80947
1.80994
1.81046
1.81103
1.81166
1.81234
1.81309
1.8139
1.81477
1.81572
1.81674
1.81784
1.81902
1.82028
1.82162
1.82306
1.82459
1.82621
1.82792
1.82974
1.83165
1.83367
1.83578
1.83801
1.84034
1.84278
1.84534
1.84801
1.85079
1.8537
1.85671
1.85985
1.8631
1.86647
1.86997
1.87358
1.87731
1.88117
1.88514
1.88923
1.89344
1.89776
1.90218
1.90673
1.91139
1.91615
1.921
1.92597
1.93108
1.93624
1.94139
1.94686
1.95243
1.9579
1.96334
1.96942
1.97537
1.98103
1.98688
1.99337
1.9996
2.00543
2.01172
2.01838
2.02479
2.03073
2.03727
2.0439
2.05033
2.05671
2.06324
2.06976
2.07626
2.08277
2.08931
2.09585
2.10238
2.10891
2.11543
2.12194
2.12843
2.13485
2.14129
2.14771
2.15406
2.16036
2.16662
2.17284
2.17903
2.18518
2.19129
2.19737
2.20342
2.20944
2.21545
2.22145
2.22745
2.23345
2.23945
2.24546
2.25149
2.25752
2.26358
2.26966
2.27577
2.28191
2.2881
2.29434
2.30063
1.78867
1.78867
1.78867
1.78869
1.78871
1.78873
1.78878
1.78883
1.7889
1.78899
1.7891
1.78924
1.7894
1.78959
1.78981
1.79007
1.79037
1.79071
1.7911
1.79153
1.79201
1.79255
1.79314
1.7938
1.79452
1.79531
1.79616
1.79709
1.7981
1.79919
1.80036
1.80161
1.80295
1.80438
1.80591
1.80753
1.80925
1.81107
1.81299
1.81501
1.81714
1.81938
1.82173
1.82419
1.82676
1.82945
1.83225
1.83517
1.8382
1.84136
1.84463
1.84802
1.85153
1.85517
1.85892
1.86279
1.86677
1.87088
1.8751
1.87942
1.88386
1.88842
1.89308
1.89783
1.9027
1.90769
1.91276
1.91783
1.92311
1.92857
1.93396
1.93929
1.94511
1.95097
1.95656
1.96219
1.96844
1.97463
1.98038
1.98633
1.9928
1.99918
2.005
2.01118
2.01762
2.02391
2.03011
2.0364
2.04272
2.04902
2.05532
2.06162
2.06793
2.07423
2.08052
2.0868
2.09306
2.0993
2.10551
2.11176
2.11796
2.12409
2.13019
2.13627
2.14232
2.14834
2.15434
2.16031
2.16627
2.17221
2.17813
2.18406
2.18998
2.19592
2.20186
2.20782
2.21381
2.21982
2.22586
2.23193
2.23804
2.2442
2.25041
2.25667
2.26299
2.26938
1.77146
1.77137
1.77129
1.77122
1.77115
1.7711
1.77105
1.77102
1.771
1.77101
1.77103
1.77108
1.77115
1.77126
1.7714
1.77157
1.77178
1.77203
1.77232
1.77266
1.77305
1.7735
1.774
1.77456
1.77519
1.77588
1.77664
1.77747
1.77838
1.77937
1.78043
1.78158
1.78282
1.78415
1.78557
1.78709
1.7887
1.79041
1.79222
1.79413
1.79615
1.79828
1.80051
1.80285
1.80531
1.80788
1.81056
1.81336
1.81627
1.8193
1.82245
1.82571
1.82909
1.83259
1.83621
1.83994
1.84379
1.84776
1.85184
1.85602
1.86031
1.86472
1.86924
1.87385
1.87856
1.8834
1.88832
1.89326
1.89836
1.90363
1.90889
1.9141
1.91964
1.92531
1.9308
1.93626
1.94216
1.94819
1.95383
1.95948
1.96563
1.97184
1.97756
1.98343
1.98957
1.99565
2.00164
2.00768
2.01376
2.01982
2.02588
2.03194
2.03799
2.04403
2.05007
2.05609
2.06209
2.06806
2.07406
2.08008
2.08605
2.09197
2.09787
2.10375
2.10962
2.11548
2.12132
2.12716
2.13298
2.13881
2.14464
2.15048
2.15633
2.1622
2.1681
2.17403
2.17999
2.186
2.19205
2.19815
2.2043
2.21051
2.21679
2.22313
2.22954
2.23604
2.24262
2.24929
1.75435
1.75418
1.75402
1.75386
1.75371
1.75356
1.75344
1.75332
1.75322
1.75314
1.75308
1.75304
1.75302
1.75304
1.75309
1.75317
1.75328
1.75344
1.75364
1.75389
1.75418
1.75453
1.75493
1.7554
1.75592
1.75651
1.75716
1.75789
1.75869
1.75956
1.76052
1.76156
1.76268
1.76389
1.76519
1.76658
1.76807
1.76966
1.77134
1.77313
1.77501
1.777
1.7791
1.78131
1.78363
1.78605
1.78859
1.79124
1.794
1.79688
1.79987
1.80298
1.80619
1.80952
1.81297
1.81653
1.82021
1.82401
1.82791
1.83191
1.83601
1.84023
1.84455
1.84897
1.85349
1.85813
1.86286
1.86762
1.87248
1.87749
1.88254
1.88757
1.89281
1.89819
1.90351
1.90877
1.91428
1.92002
1.92548
1.93089
1.93661
1.94255
1.9481
1.95368
1.95948
1.96528
1.97101
1.97677
1.98257
1.98836
1.99415
1.99993
2.00571
2.01148
2.01725
2.02299
2.02872
2.03442
2.04018
2.04597
2.0517
2.05739
2.06308
2.06876
2.07445
2.08013
2.08582
2.09151
2.09721
2.10292
2.10865
2.1144
2.12018
2.12599
2.13185
2.13775
2.1437
2.1497
2.15577
2.16191
2.16811
2.17439
2.18076
2.1872
2.19374
2.20037
2.2071
2.21394
1.73737
1.73712
1.73688
1.73664
1.7364
1.73618
1.73597
1.73577
1.73558
1.73541
1.73526
1.73513
1.73503
1.73496
1.73491
1.7349
1.73492
1.73498
1.73508
1.73522
1.73541
1.73566
1.73595
1.7363
1.73671
1.73719
1.73773
1.73834
1.73901
1.73977
1.7406
1.74151
1.7425
1.74358
1.74474
1.746
1.74734
1.74878
1.75032
1.75196
1.75369
1.75553
1.75747
1.75951
1.76166
1.76392
1.76628
1.76875
1.77133
1.77403
1.77683
1.77975
1.78277
1.78589
1.78913
1.79248
1.79595
1.79953
1.80322
1.80701
1.8109
1.81486
1.81893
1.82308
1.82734
1.8317
1.83615
1.84065
1.84523
1.84992
1.85468
1.85945
1.86435
1.86937
1.87441
1.87942
1.88457
1.88994
1.89518
1.90034
1.90567
1.91123
1.91654
1.92185
1.92729
1.93276
1.93819
1.94364
1.94913
1.95462
1.96011
1.9656
1.97108
1.97655
1.98202
1.98747
1.99291
1.99833
2.0038
2.00933
2.01481
2.02026
2.02572
2.03119
2.03667
2.04217
2.04769
2.05323
2.05878
2.06437
2.06999
2.07565
2.08135
2.08711
2.09292
2.09879
2.10473
2.11075
2.11684
2.12301
2.12928
2.13563
2.14209
2.14865
2.15531
2.16209
2.16898
2.17599
1.72057
1.72024
1.71991
1.71959
1.71927
1.71897
1.71867
1.71838
1.71811
1.71785
1.71761
1.71739
1.71719
1.71702
1.71687
1.71676
1.71668
1.71663
1.71663
1.71666
1.71674
1.71687
1.71705
1.71728
1.71756
1.71791
1.71832
1.7188
1.71934
1.71996
1.72065
1.72141
1.72226
1.72318
1.72419
1.72529
1.72647
1.72775
1.72912
1.73058
1.73214
1.73379
1.73554
1.73739
1.73935
1.74141
1.74356
1.74582
1.74819
1.75066
1.75324
1.75594
1.75874
1.76163
1.76462
1.76771
1.7709
1.7742
1.77761
1.78113
1.78472
1.78839
1.79213
1.79596
1.79987
1.80389
1.80799
1.81215
1.81641
1.82077
1.8252
1.82966
1.83421
1.83886
1.84357
1.84828
1.85306
1.85801
1.86294
1.86781
1.87276
1.87786
1.88286
1.88785
1.89291
1.898
1.90308
1.90818
1.91332
1.91846
1.92362
1.92878
1.93393
1.93908
1.94423
1.94936
1.95449
1.95961
1.96476
1.97
1.97522
1.98042
1.98562
1.99086
1.99613
2.00143
2.00676
2.01212
2.01753
2.02297
2.02847
2.03402
2.03964
2.04532
2.05108
2.05693
2.06285
2.06887
2.07499
2.08121
2.08753
2.09396
2.10051
2.10718
2.11397
2.12089
2.12794
2.13512
2.14244
1.70354
1.70313
1.70273
1.70233
1.70193
1.70155
1.70117
1.70081
1.70045
1.70012
1.6998
1.6995
1.69923
1.69897
1.69875
1.69856
1.6984
1.69827
1.69819
1.69814
1.69815
1.69819
1.69829
1.69844
1.69865
1.69892
1.69924
1.69964
1.7001
1.70063
1.70123
1.70191
1.70266
1.7035
1.70441
1.70541
1.70649
1.70767
1.70893
1.71029
1.71172
1.71326
1.71489
1.71662
1.71845
1.72037
1.72239
1.7245
1.72672
1.72904
1.73147
1.73398
1.73658
1.73927
1.74204
1.74489
1.74784
1.75088
1.75403
1.75729
1.76065
1.7641
1.76761
1.77121
1.77489
1.77864
1.78245
1.78635
1.79032
1.79437
1.79845
1.80259
1.80681
1.8111
1.81541
1.81975
1.82419
1.82868
1.83319
1.83774
1.84237
1.84698
1.85159
1.85623
1.86089
1.86557
1.87028
1.87501
1.87977
1.88454
1.88933
1.89412
1.89892
1.90371
1.90851
1.9133
1.9181
1.92292
1.92782
1.93276
1.93768
1.94262
1.94761
1.95264
1.95771
1.96283
1.96801
1.97324
1.97854
1.9839
1.98934
1.99486
2.00046
2.00616
2.01197
2.01787
2.02389
2.03002
2.03627
2.04264
2.04914
2.05577
2.06253
2.06944
2.07649
2.08369
2.09103
2.09852
1.68704
1.68655
1.68606
1.68557
1.68509
1.68461
1.68413
1.68367
1.68322
1.68278
1.68236
1.68195
1.68156
1.68119
1.68085
1.68054
1.68025
1.68
1.67978
1.6796
1.67946
1.67936
1.67931
1.67931
1.67936
1.67947
1.67963
1.67985
1.68014
1.68049
1.68091
1.6814
1.68196
1.68259
1.68331
1.68409
1.68496
1.68591
1.68694
1.68807
1.68927
1.69055
1.69193
1.6934
1.69498
1.69664
1.69836
1.70017
1.70207
1.70406
1.70614
1.70833
1.71063
1.71301
1.71549
1.71805
1.72069
1.7234
1.72621
1.72912
1.73213
1.73522
1.73837
1.74159
1.74488
1.74823
1.75164
1.75511
1.75864
1.76223
1.76585
1.76952
1.77325
1.77704
1.78086
1.78471
1.7886
1.79257
1.79658
1.80062
1.80471
1.80885
1.813
1.81717
1.82137
1.82559
1.82984
1.83412
1.83844
1.84279
1.84716
1.85156
1.85597
1.86039
1.86481
1.86925
1.8737
1.87819
1.88271
1.88733
1.89196
1.89661
1.90132
1.9061
1.91094
1.91584
1.92082
1.92587
1.931
1.93622
1.94153
1.94694
1.95245
1.95806
1.96379
1.96965
1.97563
1.98174
1.98799
1.99438
2.00091
2.00759
2.01443
2.02141
2.02856
2.03587
2.04333
2.05097
1.67016
1.66957
1.66899
1.66841
1.66783
1.66726
1.66669
1.66613
1.66558
1.66504
1.66451
1.664
1.66351
1.66303
1.66258
1.66216
1.66176
1.66139
1.66106
1.66077
1.66051
1.66029
1.66012
1.66
1.65992
1.6599
1.65994
1.66003
1.66018
1.66039
1.66067
1.661
1.66142
1.6619
1.66246
1.66307
1.66376
1.66454
1.66541
1.66636
1.66736
1.66843
1.66959
1.67084
1.67218
1.67364
1.67516
1.67677
1.67846
1.68024
1.68212
1.68411
1.68617
1.68832
1.69055
1.69285
1.69522
1.69766
1.70015
1.70271
1.70534
1.70803
1.71077
1.71358
1.71645
1.71936
1.72232
1.72534
1.72841
1.73151
1.73466
1.73786
1.7411
1.74438
1.74768
1.75105
1.75446
1.7579
1.76137
1.76487
1.76844
1.77206
1.77571
1.77938
1.7831
1.78685
1.79064
1.79447
1.79835
1.80227
1.80622
1.81021
1.81423
1.81827
1.82232
1.82641
1.83053
1.8347
1.83893
1.84327
1.84764
1.85206
1.85657
1.86117
1.86585
1.87061
1.87545
1.88039
1.88543
1.89058
1.89583
1.90121
1.90671
1.91234
1.91812
1.92403
1.93009
1.93631
1.94268
1.9492
1.95589
1.96275
1.96977
1.97697
1.98434
1.99188
1.9996
1.65326
1.65258
1.65189
1.6512
1.65052
1.64983
1.64915
1.64848
1.64781
1.64715
1.64651
1.64587
1.64525
1.64465
1.64408
1.64352
1.64299
1.64249
1.64202
1.64159
1.64119
1.64083
1.64051
1.64024
1.64001
1.63983
1.6397
1.63963
1.63962
1.63966
1.63974
1.6399
1.64013
1.64044
1.64079
1.6412
1.64167
1.64222
1.64287
1.64361
1.64442
1.6453
1.64625
1.64729
1.64845
1.64968
1.65099
1.65238
1.65384
1.65535
1.65693
1.65858
1.66029
1.66208
1.66393
1.66585
1.66781
1.66983
1.67191
1.67403
1.67621
1.67844
1.68072
1.68304
1.6854
1.68781
1.69026
1.69275
1.69527
1.69784
1.70044
1.70309
1.70577
1.70849
1.71126
1.71407
1.71692
1.7198
1.72273
1.72571
1.72875
1.73183
1.73494
1.73811
1.74132
1.74459
1.7479
1.75128
1.75471
1.75819
1.76173
1.76532
1.76895
1.77261
1.77632
1.78008
1.7839
1.78778
1.79177
1.79585
1.79999
1.80421
1.80853
1.81294
1.81745
1.82206
1.82678
1.83161
1.83657
1.84165
1.84686
1.85222
1.85772
1.86337
1.86918
1.87515
1.88129
1.88759
1.89407
1.90072
1.90754
1.91455
1.92174
1.9291
1.93666
1.94439
1.95231
1.96042
1.63709
1.63629
1.63549
1.63469
1.63388
1.63307
1.63226
1.63145
1.63064
1.62984
1.62904
1.62825
1.62747
1.62671
1.62596
1.62523
1.62452
1.62383
1.62317
1.62254
1.62194
1.62137
1.62083
1.62034
1.61989
1.61948
1.6191
1.61877
1.61851
1.6183
1.61813
1.618
1.61793
1.61793
1.61803
1.61819
1.6184
1.61867
1.61902
1.61948
1.62001
1.6206
1.62126