/*--------------------------------*- C++ -*----------------------------------*\
| =========                 |                                                 |
| \\      /  F ield         | OpenFOAM: The Open Source CFD Toolbox           |
|  \\    /   O peration     | Version:  v1706                                 |
|   \\  /    A nd           | Web:      www.OpenFOAM.com                      |
|    \\/     M anipulation  |                                                 |
\*---------------------------------------------------------------------------*/
FoamFile
{
    version     2.0;
    format      ascii;
    class       volScalarField;
    location    "3.4e-05";
    object      mu;
}
// * * * * * * * * * * * * * * * * * * * * * * * * * * * * * * * * * * * * * //

dimensions      [1 -1 -1 0 0 0 0];


internalField   nonuniform List<scalar> 
29871
(
1.05644e-05
1.05908e-05
1.06205e-05
1.06537e-05
1.06903e-05
1.07301e-05
1.07729e-05
1.08186e-05
1.08674e-05
1.09206e-05
1.09794e-05
1.10442e-05
1.11142e-05
1.11884e-05
1.12659e-05
1.1346e-05
1.1428e-05
1.15111e-05
1.15945e-05
1.16774e-05
1.1759e-05
1.1839e-05
1.19187e-05
1.20066e-05
1.21152e-05
1.22391e-05
1.23716e-05
1.2507e-05
1.2641e-05
1.27707e-05
1.28941e-05
1.30097e-05
1.31168e-05
1.32153e-05
1.33054e-05
1.33877e-05
1.34625e-05
1.35304e-05
1.35916e-05
1.36462e-05
1.36946e-05
1.37367e-05
1.37729e-05
1.38032e-05
1.38279e-05
1.38472e-05
1.38615e-05
1.38711e-05
1.3877e-05
1.3877e-05
1.38744e-05
1.38693e-05
1.38621e-05
1.38521e-05
1.38397e-05
1.38246e-05
1.3808e-05
1.379e-05
1.37707e-05
1.375e-05
1.37281e-05
1.3705e-05
1.36804e-05
1.36552e-05
1.36297e-05
1.36035e-05
1.35765e-05
1.35493e-05
1.35218e-05
1.34936e-05
1.34642e-05
1.34336e-05
1.34013e-05
1.33673e-05
1.33318e-05
1.32949e-05
1.32568e-05
1.32173e-05
1.31766e-05
1.31346e-05
1.30913e-05
1.30466e-05
1.30004e-05
1.29525e-05
1.29028e-05
1.2851e-05
1.2797e-05
1.27405e-05
1.26813e-05
1.26191e-05
1.25537e-05
1.24848e-05
1.2412e-05
1.23349e-05
1.22527e-05
1.2165e-05
1.20719e-05
1.1974e-05
1.18718e-05
1.17656e-05
1.1659e-05
1.15671e-05
1.14964e-05
1.1434e-05
1.13731e-05
1.15694e-05
1.17069e-05
1.18562e-05
1.20159e-05
1.21845e-05
1.23601e-05
1.25408e-05
1.27252e-05
1.29138e-05
1.31129e-05
1.33355e-05
1.35794e-05
1.38386e-05
1.41064e-05
1.43759e-05
1.46409e-05
1.48965e-05
1.51387e-05
1.53649e-05
1.55733e-05
1.5763e-05
1.59341e-05
1.6087e-05
1.62211e-05
1.63352e-05
1.64304e-05
1.65085e-05
1.65712e-05
1.66204e-05
1.66576e-05
1.66843e-05
1.67021e-05
1.6713e-05
1.67194e-05
1.6723e-05
1.67252e-05
1.67265e-05
1.67276e-05
1.67281e-05
1.67279e-05
1.6727e-05
1.67253e-05
1.67227e-05
1.67191e-05
1.67141e-05
1.67073e-05
1.66986e-05
1.6688e-05
1.66757e-05
1.66613e-05
1.66452e-05
1.66274e-05
1.66083e-05
1.65876e-05
1.65664e-05
1.65448e-05
1.65216e-05
1.64981e-05
1.64745e-05
1.64502e-05
1.64259e-05
1.64018e-05
1.63773e-05
1.63533e-05
1.63294e-05
1.63057e-05
1.62826e-05
1.62603e-05
1.62379e-05
1.62155e-05
1.61935e-05
1.61714e-05
1.61489e-05
1.61261e-05
1.61031e-05
1.60798e-05
1.60564e-05
1.60329e-05
1.60093e-05
1.59856e-05
1.59617e-05
1.59377e-05
1.59135e-05
1.5889e-05
1.58641e-05
1.58388e-05
1.5813e-05
1.57865e-05
1.57593e-05
1.57313e-05
1.57023e-05
1.56725e-05
1.56419e-05
1.56106e-05
1.55792e-05
1.5548e-05
1.55173e-05
1.54863e-05
1.54527e-05
1.54134e-05
1.5363e-05
1.52929e-05
1.51991e-05
1.5084e-05
1.49503e-05
1.34827e-05
1.3765e-05
1.40698e-05
1.43902e-05
1.47178e-05
1.50442e-05
1.53617e-05
1.56642e-05
1.59475e-05
1.62084e-05
1.64441e-05
1.66515e-05
1.68322e-05
1.69885e-05
1.7123e-05
1.72386e-05
1.73379e-05
1.74231e-05
1.74954e-05
1.75558e-05
1.76045e-05
1.76419e-05
1.76689e-05
1.76874e-05
1.76996e-05
1.77071e-05
1.77105e-05
1.77096e-05
1.77066e-05
1.77004e-05
1.76904e-05
1.76764e-05
1.76581e-05
1.76364e-05
1.76121e-05
1.75862e-05
1.75594e-05
1.75323e-05
1.75053e-05
1.74789e-05
1.74531e-05
1.74283e-05
1.74046e-05
1.73819e-05
1.73602e-05
1.73394e-05
1.73194e-05
1.72997e-05
1.72803e-05
1.72608e-05
1.7241e-05
1.72208e-05
1.72002e-05
1.71788e-05
1.71569e-05
1.71343e-05
1.71113e-05
1.70877e-05
1.70632e-05
1.70382e-05
1.70136e-05
1.69872e-05
1.69623e-05
1.69395e-05
1.69124e-05
1.68864e-05
1.68635e-05
1.68406e-05
1.6815e-05
1.67901e-05
1.67677e-05
1.67452e-05
1.6722e-05
1.66989e-05
1.66763e-05
1.6654e-05
1.66321e-05
1.66104e-05
1.65891e-05
1.65681e-05
1.65476e-05
1.65275e-05
1.65079e-05
1.64887e-05
1.647e-05
1.6452e-05
1.64345e-05
1.64179e-05
1.64022e-05
1.63875e-05
1.6374e-05
1.63619e-05
1.63515e-05
1.6343e-05
1.63368e-05
1.63331e-05
1.63317e-05
1.63321e-05
1.63338e-05
1.63351e-05
1.63349e-05
1.63326e-05
1.63254e-05
1.63117e-05
1.62915e-05
1.62648e-05
1.66064e-05
1.68549e-05
1.70729e-05
1.7262e-05
1.74245e-05
1.75633e-05
1.76809e-05
1.77798e-05
1.78623e-05
1.793e-05
1.79843e-05
1.80264e-05
1.80573e-05
1.80788e-05
1.80929e-05
1.81023e-05
1.81093e-05
1.8115e-05
1.81202e-05
1.81248e-05
1.8128e-05
1.81275e-05
1.81242e-05
1.81175e-05
1.81083e-05
1.80971e-05
1.80845e-05
1.80707e-05
1.80563e-05
1.80418e-05
1.80278e-05
1.80146e-05
1.80016e-05
1.79875e-05
1.79711e-05
1.79522e-05
1.79306e-05
1.7907e-05
1.78819e-05
1.78558e-05
1.78293e-05
1.78026e-05
1.77761e-05
1.775e-05
1.77246e-05
1.77001e-05
1.76763e-05
1.76532e-05
1.76309e-05
1.76092e-05
1.75877e-05
1.75663e-05
1.75449e-05
1.75232e-05
1.75011e-05
1.74785e-05
1.74552e-05
1.7431e-05
1.74057e-05
1.73795e-05
1.73536e-05
1.73256e-05
1.72987e-05
1.72742e-05
1.72449e-05
1.72166e-05
1.71912e-05
1.71658e-05
1.71371e-05
1.71087e-05
1.7083e-05
1.70571e-05
1.70304e-05
1.70035e-05
1.69775e-05
1.69521e-05
1.69272e-05
1.69026e-05
1.68786e-05
1.6855e-05
1.6832e-05
1.68095e-05
1.67875e-05
1.67662e-05
1.67455e-05
1.67256e-05
1.67065e-05
1.66884e-05
1.66714e-05
1.66557e-05
1.66415e-05
1.66289e-05
1.66182e-05
1.66098e-05
1.66037e-05
1.65999e-05
1.65982e-05
1.65969e-05
1.65951e-05
1.65929e-05
1.65904e-05
1.65875e-05
1.65838e-05
1.65788e-05
1.65726e-05
1.65652e-05
1.80654e-05
1.81404e-05
1.82012e-05
1.82496e-05
1.82872e-05
1.83154e-05
1.8336e-05
1.83514e-05
1.83633e-05
1.83729e-05
1.83808e-05
1.83869e-05
1.83909e-05
1.83908e-05
1.8388e-05
1.83819e-05
1.83731e-05
1.83628e-05
1.83518e-05
1.83413e-05
1.8332e-05
1.83249e-05
1.83203e-05
1.83177e-05
1.83148e-05
1.83098e-05
1.83022e-05
1.82918e-05
1.82792e-05
1.82649e-05
1.82497e-05
1.82343e-05
1.82199e-05
1.82067e-05
1.81939e-05
1.81806e-05
1.81658e-05
1.81491e-05
1.81304e-05
1.81097e-05
1.80873e-05
1.80636e-05
1.80387e-05
1.80132e-05
1.79874e-05
1.79614e-05
1.79355e-05
1.791e-05
1.78848e-05
1.78599e-05
1.78357e-05
1.78119e-05
1.7788e-05
1.77646e-05
1.77414e-05
1.77179e-05
1.76941e-05
1.76704e-05
1.76463e-05
1.7621e-05
1.7595e-05
1.75692e-05
1.75429e-05
1.75155e-05
1.74893e-05
1.74612e-05
1.74341e-05
1.74084e-05
1.73838e-05
1.73527e-05
1.73228e-05
1.72964e-05
1.72703e-05
1.7242e-05
1.72132e-05
1.71861e-05
1.71602e-05
1.71345e-05
1.71092e-05
1.70845e-05
1.70603e-05
1.70367e-05
1.70135e-05
1.6991e-05
1.69691e-05
1.69479e-05
1.69276e-05
1.69081e-05
1.68897e-05
1.68724e-05
1.68563e-05
1.68416e-05
1.68282e-05
1.68164e-05
1.68061e-05
1.67972e-05
1.67895e-05
1.67826e-05
1.67764e-05
1.67703e-05
1.67638e-05
1.67569e-05
1.67496e-05
1.67418e-05
1.67338e-05
1.67254e-05
1.67169e-05
1.85376e-05
1.85486e-05
1.85577e-05
1.85647e-05
1.85694e-05
1.85698e-05
1.8568e-05
1.85641e-05
1.85584e-05
1.8552e-05
1.85454e-05
1.8539e-05
1.85333e-05
1.85283e-05
1.85242e-05
1.852e-05
1.85141e-05
1.85057e-05
1.84952e-05
1.84836e-05
1.84715e-05
1.84601e-05
1.84508e-05
1.8444e-05
1.8439e-05
1.84343e-05
1.84286e-05
1.84212e-05
1.84118e-05
1.84005e-05
1.83875e-05
1.83732e-05
1.83586e-05
1.83444e-05
1.83311e-05
1.83191e-05
1.83075e-05
1.82955e-05
1.82826e-05
1.82685e-05
1.82529e-05
1.82359e-05
1.82175e-05
1.81977e-05
1.81772e-05
1.81557e-05
1.81334e-05
1.8111e-05
1.80884e-05
1.80652e-05
1.80423e-05
1.80198e-05
1.79967e-05
1.79734e-05
1.79509e-05
1.7928e-05
1.79043e-05
1.78812e-05
1.78584e-05
1.78344e-05
1.78093e-05
1.77844e-05
1.776e-05
1.77342e-05
1.77067e-05
1.76798e-05
1.76539e-05
1.76287e-05
1.76055e-05
1.7573e-05
1.75428e-05
1.75156e-05
1.74898e-05
1.74594e-05
1.74275e-05
1.73993e-05
1.73726e-05
1.73452e-05
1.73182e-05
1.7292e-05
1.72663e-05
1.72408e-05
1.72155e-05
1.71909e-05
1.71669e-05
1.71436e-05
1.7121e-05
1.70992e-05
1.70783e-05
1.70583e-05
1.70394e-05
1.70215e-05
1.70047e-05
1.6989e-05
1.69743e-05
1.69604e-05
1.69471e-05
1.69342e-05
1.69219e-05
1.69103e-05
1.68993e-05
1.68887e-05
1.68783e-05
1.68681e-05
1.6858e-05
1.68479e-05
1.68378e-05
1.87146e-05
1.87131e-05
1.87097e-05
1.87051e-05
1.87003e-05
1.86958e-05
1.86912e-05
1.86873e-05
1.86843e-05
1.86818e-05
1.86783e-05
1.86727e-05
1.86657e-05
1.86571e-05
1.86477e-05
1.86384e-05
1.86298e-05
1.8623e-05
1.86172e-05
1.86112e-05
1.86044e-05
1.85962e-05
1.85865e-05
1.85757e-05
1.85643e-05
1.85529e-05
1.85428e-05
1.85353e-05
1.85292e-05
1.85243e-05
1.85196e-05
1.85143e-05
1.85078e-05
1.84998e-05
1.84902e-05
1.84797e-05
1.84684e-05
1.84565e-05
1.84454e-05
1.84352e-05
1.84252e-05
1.84154e-05
1.84054e-05
1.83945e-05
1.83827e-05
1.83698e-05
1.83554e-05
1.834e-05
1.83241e-05
1.83059e-05
1.82872e-05
1.82687e-05
1.82485e-05
1.82277e-05
1.82076e-05
1.81868e-05
1.81647e-05
1.81434e-05
1.81227e-05
1.80995e-05
1.8077e-05
1.80556e-05
1.80338e-05
1.8009e-05
1.79854e-05
1.79627e-05
1.794e-05
1.79125e-05
1.78866e-05
1.78618e-05
1.78386e-05
1.78164e-05
1.77839e-05
1.77548e-05
1.77283e-05
1.77032e-05
1.76723e-05
1.76385e-05
1.76091e-05
1.75821e-05
1.75534e-05
1.75248e-05
1.74982e-05
1.74714e-05
1.74441e-05
1.74169e-05
1.73902e-05
1.73643e-05
1.7339e-05
1.73143e-05
1.729e-05
1.72665e-05
1.72438e-05
1.72219e-05
1.72006e-05
1.71802e-05
1.71604e-05
1.71413e-05
1.71227e-05
1.71047e-05
1.7087e-05
1.70696e-05
1.70529e-05
1.70369e-05
1.70216e-05
1.70066e-05
1.69923e-05
1.69787e-05
1.69656e-05
1.69527e-05
1.88244e-05
1.88218e-05
1.88176e-05
1.88117e-05
1.88046e-05
1.87966e-05
1.8788e-05
1.87799e-05
1.87731e-05
1.8768e-05
1.87631e-05
1.87577e-05
1.87514e-05
1.87439e-05
1.87352e-05
1.87259e-05
1.87163e-05
1.87074e-05
1.86995e-05
1.86928e-05
1.86869e-05
1.86808e-05
1.86741e-05
1.86665e-05
1.86582e-05
1.86492e-05
1.86401e-05
1.86317e-05
1.86249e-05
1.86194e-05
1.86151e-05
1.86113e-05
1.86075e-05
1.86031e-05
1.85976e-05
1.85911e-05
1.85841e-05
1.85748e-05
1.85653e-05
1.85566e-05
1.85476e-05
1.85387e-05
1.85304e-05
1.85218e-05
1.85127e-05
1.85035e-05
1.84928e-05
1.84813e-05
1.84697e-05
1.84559e-05
1.84405e-05
1.84257e-05
1.84098e-05
1.83911e-05
1.83733e-05
1.83562e-05
1.83355e-05
1.83155e-05
1.82971e-05
1.82756e-05
1.82538e-05
1.82334e-05
1.82139e-05
1.8189e-05
1.81667e-05
1.81453e-05
1.81254e-05
1.80979e-05
1.80733e-05
1.80499e-05
1.80286e-05
1.8006e-05
1.79746e-05
1.79477e-05
1.79223e-05
1.78981e-05
1.78682e-05
1.78339e-05
1.78041e-05
1.77771e-05
1.77476e-05
1.7718e-05
1.76905e-05
1.76636e-05
1.7635e-05
1.76057e-05
1.75775e-05
1.75505e-05
1.75237e-05
1.7497e-05
1.74705e-05
1.74446e-05
1.74194e-05
1.73948e-05
1.73707e-05
1.7347e-05
1.73239e-05
1.73013e-05
1.72791e-05
1.72575e-05
1.72362e-05
1.72152e-05
1.71947e-05
1.71754e-05
1.71565e-05
1.71382e-05
1.71206e-05
1.71038e-05
1.70877e-05
1.70721e-05
1.89095e-05
1.89046e-05
1.88995e-05
1.88936e-05
1.88867e-05
1.88788e-05
1.88702e-05
1.88614e-05
1.88529e-05
1.88453e-05
1.8839e-05
1.88335e-05
1.88283e-05
1.88229e-05
1.88168e-05
1.881e-05
1.88025e-05
1.87948e-05
1.87873e-05
1.87805e-05
1.87746e-05
1.87692e-05
1.87641e-05
1.87588e-05
1.8753e-05
1.87467e-05
1.87398e-05
1.87326e-05
1.87257e-05
1.87197e-05
1.87147e-05
1.87107e-05
1.87073e-05
1.87043e-05
1.8701e-05
1.86972e-05
1.86933e-05
1.86875e-05
1.86805e-05
1.86741e-05
1.86669e-05
1.86584e-05
1.8651e-05
1.86437e-05
1.86355e-05
1.86279e-05
1.86198e-05
1.86102e-05
1.8601e-05
1.85911e-05
1.85783e-05
1.85661e-05
1.85542e-05
1.85378e-05
1.85221e-05
1.85079e-05
1.84894e-05
1.84706e-05
1.84537e-05
1.84349e-05
1.84133e-05
1.83936e-05
1.83757e-05
1.83517e-05
1.833e-05
1.83097e-05
1.82905e-05
1.82632e-05
1.82399e-05
1.82178e-05
1.81982e-05
1.81728e-05
1.81437e-05
1.81192e-05
1.80948e-05
1.80718e-05
1.80415e-05
1.80084e-05
1.79796e-05
1.79529e-05
1.79227e-05
1.78923e-05
1.78642e-05
1.78373e-05
1.78083e-05
1.77774e-05
1.77482e-05
1.77205e-05
1.76933e-05
1.76652e-05
1.76367e-05
1.76086e-05
1.75817e-05
1.75553e-05
1.75291e-05
1.75033e-05
1.74779e-05
1.74529e-05
1.74284e-05
1.74042e-05
1.73806e-05
1.73574e-05
1.73346e-05
1.73124e-05
1.7291e-05
1.72703e-05
1.72502e-05
1.72309e-05
1.72122e-05
1.71941e-05
1.89859e-05
1.89792e-05
1.89734e-05
1.89682e-05
1.89629e-05
1.89572e-05
1.89509e-05
1.8944e-05
1.89369e-05
1.89299e-05
1.89235e-05
1.89179e-05
1.8913e-05
1.89085e-05
1.8904e-05
1.88993e-05
1.8894e-05
1.88882e-05
1.88822e-05
1.88762e-05
1.88705e-05
1.88653e-05
1.88607e-05
1.88563e-05
1.8852e-05
1.88475e-05
1.88427e-05
1.88373e-05
1.88318e-05
1.88263e-05
1.88212e-05
1.88168e-05
1.8813e-05
1.88101e-05
1.88074e-05
1.88046e-05
1.88022e-05
1.8799e-05
1.87944e-05
1.87901e-05
1.87853e-05
1.87781e-05
1.87716e-05
1.87657e-05
1.87578e-05
1.87504e-05
1.87438e-05
1.87352e-05
1.87268e-05
1.87191e-05
1.87082e-05
1.86974e-05
1.86879e-05
1.86742e-05
1.86599e-05
1.86474e-05
1.86318e-05
1.86139e-05
1.85979e-05
1.85816e-05
1.85607e-05
1.85415e-05
1.85243e-05
1.85019e-05
1.848e-05
1.84601e-05
1.84408e-05
1.84145e-05
1.83919e-05
1.83706e-05
1.83512e-05
1.83234e-05
1.82965e-05
1.82736e-05
1.82498e-05
1.82274e-05
1.81955e-05
1.81648e-05
1.81373e-05
1.81112e-05
1.80803e-05
1.80493e-05
1.80212e-05
1.79942e-05
1.79654e-05
1.79334e-05
1.79036e-05
1.78756e-05
1.78479e-05
1.78199e-05
1.77895e-05
1.77597e-05
1.77316e-05
1.77042e-05
1.76769e-05
1.76499e-05
1.76233e-05
1.75969e-05
1.75709e-05
1.75453e-05
1.75201e-05
1.74953e-05
1.74709e-05
1.74471e-05
1.74239e-05
1.74014e-05
1.73795e-05
1.73582e-05
1.73375e-05
1.73173e-05
1.9069e-05
1.90624e-05
1.90566e-05
1.90515e-05
1.90469e-05
1.90425e-05
1.90379e-05
1.9033e-05
1.90277e-05
1.90222e-05
1.90166e-05
1.90114e-05
1.90067e-05
1.90025e-05
1.89987e-05
1.89951e-05
1.89914e-05
1.89874e-05
1.89832e-05
1.89787e-05
1.89741e-05
1.89697e-05
1.89655e-05
1.89618e-05
1.89583e-05
1.89549e-05
1.89515e-05
1.89478e-05
1.89439e-05
1.89396e-05
1.89354e-05
1.89313e-05
1.89274e-05
1.89243e-05
1.89215e-05
1.89187e-05
1.89167e-05
1.89147e-05
1.89114e-05
1.89085e-05
1.89054e-05
1.89e-05
1.88946e-05
1.88899e-05
1.88829e-05
1.88756e-05
1.88696e-05
1.88617e-05
1.88532e-05
1.88461e-05
1.88367e-05
1.88263e-05
1.88174e-05
1.8806e-05
1.87925e-05
1.87806e-05
1.87675e-05
1.87506e-05
1.8735e-05
1.87203e-05
1.87007e-05
1.86817e-05
1.86648e-05
1.86439e-05
1.86219e-05
1.86019e-05
1.85825e-05
1.85572e-05
1.85346e-05
1.85133e-05
1.8493e-05
1.84648e-05
1.84394e-05
1.8417e-05
1.83939e-05
1.83696e-05
1.83371e-05
1.8309e-05
1.82826e-05
1.82568e-05
1.82249e-05
1.81937e-05
1.81659e-05
1.81389e-05
1.81104e-05
1.80776e-05
1.80475e-05
1.80196e-05
1.79917e-05
1.7964e-05
1.7932e-05
1.79011e-05
1.78723e-05
1.78445e-05
1.78169e-05
1.77893e-05
1.7762e-05
1.77349e-05
1.7708e-05
1.76815e-05
1.76552e-05
1.76294e-05
1.76039e-05
1.75789e-05
1.75545e-05
1.75307e-05
1.75074e-05
1.74845e-05
1.74624e-05
1.74407e-05
1.91643e-05
1.91589e-05
1.91535e-05
1.91483e-05
1.91435e-05
1.91392e-05
1.91353e-05
1.91317e-05
1.91281e-05
1.91244e-05
1.91206e-05
1.91165e-05
1.91124e-05
1.91085e-05
1.9105e-05
1.91018e-05
1.9099e-05
1.90963e-05
1.90938e-05
1.90911e-05
1.90882e-05
1.90852e-05
1.90821e-05
1.9079e-05
1.90761e-05
1.90734e-05
1.90708e-05
1.90684e-05
1.9066e-05
1.90634e-05
1.90606e-05
1.90575e-05
1.90543e-05
1.9051e-05
1.9048e-05
1.90452e-05
1.90423e-05
1.90401e-05
1.90382e-05
1.90354e-05
1.90329e-05
1.90307e-05
1.90266e-05
1.90221e-05
1.90183e-05
1.90124e-05
1.90054e-05
1.89997e-05
1.89923e-05
1.89835e-05
1.89762e-05
1.89676e-05
1.89569e-05
1.89477e-05
1.89377e-05
1.89245e-05
1.89124e-05
1.89006e-05
1.88847e-05
1.88691e-05
1.88551e-05
1.88369e-05
1.88177e-05
1.88008e-05
1.87814e-05
1.87592e-05
1.87388e-05
1.87196e-05
1.86951e-05
1.86719e-05
1.86505e-05
1.86292e-05
1.86013e-05
1.85765e-05
1.85538e-05
1.85317e-05
1.85037e-05
1.84726e-05
1.84463e-05
1.84202e-05
1.83943e-05
1.83612e-05
1.83304e-05
1.8303e-05
1.82761e-05
1.82475e-05
1.8214e-05
1.81838e-05
1.81561e-05
1.81281e-05
1.81006e-05
1.80672e-05
1.80358e-05
1.8007e-05
1.79791e-05
1.79514e-05
1.79236e-05
1.78959e-05
1.78683e-05
1.78409e-05
1.78137e-05
1.77868e-05
1.77602e-05
1.77339e-05
1.77082e-05
1.76828e-05
1.76579e-05
1.76338e-05
1.76101e-05
1.75868e-05
1.7564e-05
1.9258e-05
1.92542e-05
1.92503e-05
1.92463e-05
1.92425e-05
1.92389e-05
1.92357e-05
1.92329e-05
1.92303e-05
1.92279e-05
1.92254e-05
1.9223e-05
1.92204e-05
1.92179e-05
1.92155e-05
1.92133e-05
1.92114e-05
1.92097e-05
1.92083e-05
1.92069e-05
1.92056e-05
1.92041e-05
1.92025e-05
1.92009e-05
1.91992e-05
1.91975e-05
1.91959e-05
1.91944e-05
1.9193e-05
1.91915e-05
1.91899e-05
1.9188e-05
1.91858e-05
1.91834e-05
1.91809e-05
1.91783e-05
1.91756e-05
1.91733e-05
1.91709e-05
1.91681e-05
1.91657e-05
1.91634e-05
1.91598e-05
1.91557e-05
1.91523e-05
1.9147e-05
1.91404e-05
1.91349e-05
1.91279e-05
1.91188e-05
1.91111e-05
1.91027e-05
1.90916e-05
1.90815e-05
1.90717e-05
1.90586e-05
1.90457e-05
1.9034e-05
1.90189e-05
1.90027e-05
1.89884e-05
1.89716e-05
1.89521e-05
1.89344e-05
1.89164e-05
1.88942e-05
1.88731e-05
1.88539e-05
1.88302e-05
1.88063e-05
1.87843e-05
1.87624e-05
1.87349e-05
1.87101e-05
1.86867e-05
1.86645e-05
1.86345e-05
1.8605e-05
1.85794e-05
1.85535e-05
1.85266e-05
1.84925e-05
1.84624e-05
1.84354e-05
1.84086e-05
1.83791e-05
1.8345e-05
1.8315e-05
1.82872e-05
1.82587e-05
1.8231e-05
1.8198e-05
1.81668e-05
1.81379e-05
1.81098e-05
1.80818e-05
1.80538e-05
1.80258e-05
1.79979e-05
1.79701e-05
1.79424e-05
1.7915e-05
1.78879e-05
1.7861e-05
1.78346e-05
1.78088e-05
1.77834e-05
1.77586e-05
1.77342e-05
1.77102e-05
1.76867e-05
1.76635e-05
1.76406e-05
1.93579e-05
1.93553e-05
1.93527e-05
1.93502e-05
1.93477e-05
1.93453e-05
1.93432e-05
1.93413e-05
1.93398e-05
1.93385e-05
1.93374e-05
1.93364e-05
1.93354e-05
1.93344e-05
1.93335e-05
1.93327e-05
1.9332e-05
1.93315e-05
1.93313e-05
1.93312e-05
1.93312e-05
1.93312e-05
1.93311e-05
1.93309e-05
1.93306e-05
1.93302e-05
1.93298e-05
1.93293e-05
1.93288e-05
1.93283e-05
1.93276e-05
1.93267e-05
1.93255e-05
1.9324e-05
1.93222e-05
1.93201e-05
1.93177e-05
1.93153e-05
1.93127e-05
1.93097e-05
1.93069e-05
1.9304e-05
1.93002e-05
1.92961e-05
1.92924e-05
1.92872e-05
1.92806e-05
1.9275e-05
1.9268e-05
1.92587e-05
1.92505e-05
1.92418e-05
1.92303e-05
1.92191e-05
1.92088e-05
1.91957e-05
1.91814e-05
1.9169e-05
1.91543e-05
1.91372e-05
1.91217e-05
1.91057e-05
1.90859e-05
1.9067e-05
1.90493e-05
1.90277e-05
1.90055e-05
1.89855e-05
1.89629e-05
1.89382e-05
1.89152e-05
1.88932e-05
1.88661e-05
1.88405e-05
1.88163e-05
1.87933e-05
1.8763e-05
1.87343e-05
1.87088e-05
1.86831e-05
1.86545e-05
1.86201e-05
1.85908e-05
1.85637e-05
1.85371e-05
1.85057e-05
1.84719e-05
1.84421e-05
1.84137e-05
1.83848e-05
1.83559e-05
1.83252e-05
1.82944e-05
1.82651e-05
1.82366e-05
1.82082e-05
1.81799e-05
1.81516e-05
1.81234e-05
1.80953e-05
1.80674e-05
1.80395e-05
1.80121e-05
1.7985e-05
1.79583e-05
1.79321e-05
1.79063e-05
1.7881e-05
1.78562e-05
1.78317e-05
1.78076e-05
1.77838e-05
1.77602e-05
1.94676e-05
1.94655e-05
1.94638e-05
1.94623e-05
1.9461e-05
1.94599e-05
1.94589e-05
1.94579e-05
1.94572e-05
1.94566e-05
1.94564e-05
1.94564e-05
1.94566e-05
1.9457e-05
1.94575e-05
1.94581e-05
1.94588e-05
1.94595e-05
1.94604e-05
1.94613e-05
1.94624e-05
1.94636e-05
1.94649e-05
1.94662e-05
1.94675e-05
1.94687e-05
1.94698e-05
1.94708e-05
1.94716e-05
1.94722e-05
1.94727e-05
1.9473e-05
1.94731e-05
1.9473e-05
1.94726e-05
1.94718e-05
1.94706e-05
1.9469e-05
1.9467e-05
1.94646e-05
1.94618e-05
1.94586e-05
1.94552e-05
1.94516e-05
1.94472e-05
1.94427e-05
1.9438e-05
1.94322e-05
1.94254e-05
1.94192e-05
1.94116e-05
1.94019e-05
1.9393e-05
1.93836e-05
1.93717e-05
1.93593e-05
1.93481e-05
1.93345e-05
1.9319e-05
1.93051e-05
1.92902e-05
1.92722e-05
1.9255e-05
1.92387e-05
1.92189e-05
1.91984e-05
1.91798e-05
1.91589e-05
1.91356e-05
1.91139e-05
1.90924e-05
1.90672e-05
1.90427e-05
1.902e-05
1.89938e-05
1.89671e-05
1.89418e-05
1.8918e-05
1.88879e-05
1.88592e-05
1.88332e-05
1.88077e-05
1.87775e-05
1.87435e-05
1.87145e-05
1.86866e-05
1.86598e-05
1.86273e-05
1.85944e-05
1.85644e-05
1.85355e-05
1.85064e-05
1.84769e-05
1.84468e-05
1.84167e-05
1.83871e-05
1.83581e-05
1.83294e-05
1.83008e-05
1.82723e-05
1.82439e-05
1.82155e-05
1.81874e-05
1.81595e-05
1.81319e-05
1.81046e-05
1.80777e-05
1.80512e-05
1.80252e-05
1.79996e-05
1.79744e-05
1.79495e-05
1.79248e-05
1.79003e-05
1.7876e-05
1.95769e-05
1.95761e-05
1.95755e-05
1.95753e-05
1.95753e-05
1.95756e-05
1.9576e-05
1.95766e-05
1.95774e-05
1.95784e-05
1.95796e-05
1.9581e-05
1.95826e-05
1.95845e-05
1.95866e-05
1.95887e-05
1.9591e-05
1.95934e-05
1.95958e-05
1.95982e-05
1.96007e-05
1.96033e-05
1.96059e-05
1.96085e-05
1.96111e-05
1.96136e-05
1.9616e-05
1.96181e-05
1.96201e-05
1.96217e-05
1.96231e-05
1.96243e-05
1.96251e-05
1.96256e-05
1.96256e-05
1.96253e-05
1.96245e-05
1.96232e-05
1.96214e-05
1.9619e-05
1.9616e-05
1.96125e-05
1.96085e-05
1.9604e-05
1.95988e-05
1.95934e-05
1.95875e-05
1.95807e-05
1.95731e-05
1.95657e-05
1.9557e-05
1.95467e-05
1.95367e-05
1.95262e-05
1.95135e-05
1.94998e-05
1.94874e-05
1.9473e-05
1.94561e-05
1.94405e-05
1.94248e-05
1.9406e-05
1.93868e-05
1.93693e-05
1.93493e-05
1.93272e-05
1.93066e-05
1.92861e-05
1.92621e-05
1.92383e-05
1.92163e-05
1.91917e-05
1.91654e-05
1.91408e-05
1.9116e-05
1.90882e-05
1.90614e-05
1.90363e-05
1.9007e-05
1.89778e-05
1.89508e-05
1.89248e-05
1.88938e-05
1.88609e-05
1.88313e-05
1.88024e-05
1.8774e-05
1.87429e-05
1.8711e-05
1.86805e-05
1.86509e-05
1.86214e-05
1.85916e-05
1.85617e-05
1.85317e-05
1.8502e-05
1.84727e-05
1.84436e-05
1.84148e-05
1.8386e-05
1.83575e-05
1.83292e-05
1.8301e-05
1.8273e-05
1.82453e-05
1.82179e-05
1.81908e-05
1.81641e-05
1.81379e-05
1.81119e-05
1.80863e-05
1.80608e-05
1.80355e-05
1.80103e-05
1.7985e-05
1.79596e-05
1.96944e-05
1.96932e-05
1.96922e-05
1.96916e-05
1.96912e-05
1.96911e-05
1.96911e-05
1.96914e-05
1.9692e-05
1.96928e-05
1.96939e-05
1.96953e-05
1.9697e-05
1.9699e-05
1.97011e-05
1.97035e-05
1.97061e-05
1.97089e-05
1.97119e-05
1.97151e-05
1.97185e-05
1.9722e-05
1.97258e-05
1.97296e-05
1.97335e-05
1.97375e-05
1.97414e-05
1.97453e-05
1.97493e-05
1.97532e-05
1.9757e-05
1.97607e-05
1.97643e-05
1.97678e-05
1.97709e-05
1.97738e-05
1.97763e-05
1.97785e-05
1.97802e-05
1.97815e-05
1.97824e-05
1.97827e-05
1.97825e-05
1.97818e-05
1.97805e-05
1.97786e-05
1.97759e-05
1.97726e-05
1.97686e-05
1.97638e-05
1.97584e-05
1.97523e-05
1.97456e-05
1.97383e-05
1.97302e-05
1.97213e-05
1.97123e-05
1.97021e-05
1.96905e-05
1.96791e-05
1.96671e-05
1.96531e-05
1.9638e-05
1.96239e-05
1.96082e-05
1.95901e-05
1.95725e-05
1.95555e-05
1.95357e-05
1.95144e-05
1.94949e-05
1.94745e-05
1.94511e-05
1.94281e-05
1.94067e-05
1.93825e-05
1.93567e-05
1.93326e-05
1.93086e-05
1.92812e-05
1.92544e-05
1.9229e-05
1.92016e-05
1.91728e-05
1.91455e-05
1.91175e-05
1.90879e-05
1.90591e-05
1.90312e-05
1.90016e-05
1.89699e-05
1.89393e-05
1.89094e-05
1.88796e-05
1.88492e-05
1.88181e-05
1.87873e-05
1.87571e-05
1.87272e-05
1.86972e-05
1.86672e-05
1.86372e-05
1.86074e-05
1.85779e-05
1.85486e-05
1.85196e-05
1.84909e-05
1.84622e-05
1.84338e-05
1.84055e-05
1.83775e-05
1.83496e-05
1.83221e-05
1.82949e-05
1.8268e-05
1.82414e-05
1.8215e-05
1.81887e-05
1.81626e-05
1.81364e-05
1.81102e-05
1.80839e-05
1.80573e-05
1.98043e-05
1.98044e-05
1.98047e-05
1.98053e-05
1.98062e-05
1.98074e-05
1.98089e-05
1.98107e-05
1.98128e-05
1.98151e-05
1.98177e-05
1.98206e-05
1.98238e-05
1.98273e-05
1.98311e-05
1.98351e-05
1.98393e-05
1.98437e-05
1.98483e-05
1.9853e-05
1.9858e-05
1.98631e-05
1.98683e-05
1.98736e-05
1.9879e-05
1.98843e-05
1.98897e-05
1.98949e-05
1.99001e-05
1.99051e-05
1.991e-05
1.99147e-05
1.99192e-05
1.99235e-05
1.99274e-05
1.99309e-05
1.9934e-05
1.99366e-05
1.99387e-05
1.99402e-05
1.99412e-05
1.99413e-05
1.9941e-05
1.99401e-05
1.99384e-05
1.9936e-05
1.99328e-05
1.99288e-05
1.99239e-05
1.99182e-05
1.99117e-05
1.99043e-05
1.98962e-05
1.98873e-05
1.98775e-05
1.98671e-05
1.9856e-05
1.98439e-05
1.98307e-05
1.98174e-05
1.98033e-05
1.97877e-05
1.97708e-05
1.97548e-05
1.97373e-05
1.97177e-05
1.96978e-05
1.9679e-05
1.9658e-05
1.96348e-05
1.96129e-05
1.95913e-05
1.95669e-05
1.95415e-05
1.9518e-05
1.94936e-05
1.94663e-05
1.94398e-05
1.94148e-05
1.93873e-05
1.93583e-05
1.93309e-05
1.93039e-05
1.92741e-05
1.92445e-05
1.92159e-05
1.91865e-05
1.91566e-05
1.91271e-05
1.90973e-05
1.90666e-05
1.90356e-05
1.90049e-05
1.89743e-05
1.89437e-05
1.89129e-05
1.88821e-05
1.88516e-05
1.88213e-05
1.87911e-05
1.87609e-05
1.87308e-05
1.87009e-05
1.86713e-05
1.8642e-05
1.86129e-05
1.8584e-05
1.85553e-05
1.85267e-05
1.84984e-05
1.84702e-05
1.84422e-05
1.84145e-05
1.8387e-05
1.83597e-05
1.83325e-05
1.83055e-05
1.82785e-05
1.82514e-05
1.82243e-05
1.81969e-05
1.81694e-05
1.81416e-05
1.99182e-05
1.99195e-05
1.99212e-05
1.99232e-05
1.99256e-05
1.99282e-05
1.99312e-05
1.99345e-05
1.99381e-05
1.9942e-05
1.99462e-05
1.99507e-05
1.99555e-05
1.99605e-05
1.99658e-05
1.99714e-05
1.99772e-05
1.99832e-05
1.99893e-05
1.99956e-05
2.0002e-05
2.00086e-05
2.00152e-05
2.00218e-05
2.00285e-05
2.00351e-05
2.00416e-05
2.00479e-05
2.00541e-05
2.00601e-05
2.00658e-05
2.00713e-05
2.00764e-05
2.00811e-05
2.00854e-05
2.00892e-05
2.00925e-05
2.00952e-05
2.00972e-05
2.00986e-05
2.00992e-05
2.00991e-05
2.00983e-05
2.00967e-05
2.00942e-05
2.00909e-05
2.00867e-05
2.00816e-05
2.00756e-05
2.00686e-05
2.00606e-05
2.00517e-05
2.00419e-05
2.00312e-05
2.00195e-05
2.0007e-05
1.99937e-05
1.99794e-05
1.99642e-05
1.99485e-05
1.99321e-05
1.99143e-05
1.98954e-05
1.98769e-05
1.98573e-05
1.98359e-05
1.98136e-05
1.97926e-05
1.97698e-05
1.97449e-05
1.97202e-05
1.96969e-05
1.96713e-05
1.96437e-05
1.96176e-05
1.95923e-05
1.9564e-05
1.9535e-05
1.95077e-05
1.94803e-05
1.94499e-05
1.94201e-05
1.93917e-05
1.9362e-05
1.93309e-05
1.93007e-05
1.92709e-05
1.92405e-05
1.92099e-05
1.91793e-05
1.91484e-05
1.91173e-05
1.90862e-05
1.90552e-05
1.90243e-05
1.89933e-05
1.89625e-05
1.89317e-05
1.89012e-05
1.88707e-05
1.88404e-05
1.88103e-05
1.87805e-05
1.87508e-05
1.87214e-05
1.86922e-05
1.86631e-05
1.86342e-05
1.86055e-05
1.8577e-05
1.85486e-05
1.85204e-05
1.84923e-05
1.84643e-05
1.84364e-05
1.84086e-05
1.83808e-05
1.83528e-05
1.83247e-05
1.82964e-05
1.82679e-05
1.82391e-05
1.82101e-05
2.00357e-05
2.00385e-05
2.00416e-05
2.00451e-05
2.00489e-05
2.0053e-05
2.00575e-05
2.00623e-05
2.00675e-05
2.0073e-05
2.00787e-05
2.00848e-05
2.00911e-05
2.00977e-05
2.01045e-05
2.01116e-05
2.01189e-05
2.01263e-05
2.01339e-05
2.01416e-05
2.01494e-05
2.01572e-05
2.0165e-05
2.01727e-05
2.01804e-05
2.0188e-05
2.01954e-05
2.02026e-05
2.02095e-05
2.02161e-05
2.02223e-05
2.02281e-05
2.02335e-05
2.02383e-05
2.02426e-05
2.02463e-05
2.02494e-05
2.02518e-05
2.02534e-05
2.02541e-05
2.0254e-05
2.02531e-05
2.02514e-05
2.02487e-05
2.0245e-05
2.02404e-05
2.02348e-05
2.02282e-05
2.02205e-05
2.02118e-05
2.0202e-05
2.01912e-05
2.01794e-05
2.01665e-05
2.01527e-05
2.01379e-05
2.01222e-05
2.01055e-05
2.00878e-05
2.00695e-05
2.00504e-05
2.00301e-05
2.00089e-05
1.99876e-05
1.99654e-05
1.99418e-05
1.99171e-05
1.98933e-05
1.98685e-05
1.98417e-05
1.98143e-05
1.97885e-05
1.97615e-05
1.97321e-05
1.97032e-05
1.9676e-05
1.96468e-05
1.96156e-05
1.95859e-05
1.95575e-05
1.95264e-05
1.94944e-05
1.94639e-05
1.94339e-05
1.94021e-05
1.93704e-05
1.93394e-05
1.93084e-05
1.92771e-05
1.92457e-05
1.92143e-05
1.91829e-05
1.91514e-05
1.91201e-05
1.90889e-05
1.90578e-05
1.90268e-05
1.89959e-05
1.89651e-05
1.89344e-05
1.89041e-05
1.8874e-05
1.88441e-05
1.88145e-05
1.87849e-05
1.87556e-05
1.87263e-05
1.86973e-05
1.86683e-05
1.86395e-05
1.86108e-05
1.85822e-05
1.85536e-05
1.8525e-05
1.84965e-05
1.84678e-05
1.8439e-05
1.84101e-05
1.83809e-05
1.83514e-05
1.83217e-05
1.82917e-05
1.82614e-05
1.82309e-05
1.82002e-05
2.01564e-05
2.01607e-05
2.01653e-05
2.01702e-05
2.01755e-05
2.01812e-05
2.01872e-05
2.01936e-05
2.02002e-05
2.02072e-05
2.02145e-05
2.0222e-05
2.02298e-05
2.02379e-05
2.02461e-05
2.02546e-05
2.02632e-05
2.02719e-05
2.02807e-05
2.02896e-05
2.02985e-05
2.03073e-05
2.0316e-05
2.03246e-05
2.03331e-05
2.03413e-05
2.03493e-05
2.03569e-05
2.03642e-05
2.0371e-05
2.03773e-05
2.03831e-05
2.03883e-05
2.03929e-05
2.03967e-05
2.03999e-05
2.04023e-05
2.04038e-05
2.04044e-05
2.04041e-05
2.04029e-05
2.04008e-05
2.03976e-05
2.03934e-05
2.03881e-05
2.03817e-05
2.03742e-05
2.03656e-05
2.03559e-05
2.03451e-05
2.03331e-05
2.032e-05
2.03058e-05
2.02905e-05
2.02742e-05
2.02568e-05
2.02384e-05
2.0219e-05
2.01986e-05
2.01775e-05
2.01555e-05
2.01324e-05
2.01085e-05
2.00842e-05
2.00593e-05
2.00331e-05
2.00059e-05
1.99791e-05
1.99518e-05
1.99228e-05
1.98928e-05
1.98643e-05
1.98354e-05
1.98043e-05
1.97727e-05
1.9743e-05
1.97126e-05
1.96798e-05
1.96476e-05
1.96171e-05
1.95857e-05
1.9552e-05
1.95194e-05
1.94881e-05
1.9456e-05
1.94232e-05
1.9391e-05
1.9359e-05
1.93271e-05
1.92951e-05
1.92631e-05
1.92313e-05
1.91995e-05
1.91679e-05
1.91365e-05
1.91052e-05
1.9074e-05
1.9043e-05
1.90119e-05
1.89813e-05
1.8951e-05
1.89209e-05
1.8891e-05
1.88612e-05
1.88316e-05
1.88021e-05
1.87727e-05
1.87434e-05
1.87142e-05
1.8685e-05
1.86559e-05
1.86268e-05
1.85977e-05
1.85685e-05
1.85392e-05
1.85097e-05
1.848e-05
1.845e-05
1.84198e-05
1.83893e-05
1.83584e-05
1.83272e-05
1.82958e-05
1.82641e-05
1.82322e-05
2.028e-05
2.02857e-05
2.02917e-05
2.02982e-05
2.0305e-05
2.03121e-05
2.03196e-05
2.03274e-05
2.03355e-05
2.03439e-05
2.03525e-05
2.03614e-05
2.03706e-05
2.03799e-05
2.03894e-05
2.0399e-05
2.04087e-05
2.04185e-05
2.04283e-05
2.0438e-05
2.04477e-05
2.04572e-05
2.04665e-05
2.04757e-05
2.04845e-05
2.0493e-05
2.05011e-05
2.05088e-05
2.0516e-05
2.05226e-05
2.05286e-05
2.05339e-05
2.05384e-05
2.05422e-05
2.05452e-05
2.05473e-05
2.05485e-05
2.05486e-05
2.05479e-05
2.05462e-05
2.05434e-05
2.05394e-05
2.05343e-05
2.05281e-05
2.05207e-05
2.05121e-05
2.05024e-05
2.04914e-05
2.04792e-05
2.04658e-05
2.04513e-05
2.04356e-05
2.04186e-05
2.04006e-05
2.03814e-05
2.03612e-05
2.03399e-05
2.03175e-05
2.02942e-05
2.027e-05
2.02449e-05
2.02189e-05
2.01921e-05
2.01647e-05
2.01367e-05
2.01078e-05
2.00779e-05
2.0048e-05
2.0018e-05
1.99866e-05
1.99541e-05
1.99227e-05
1.98916e-05
1.98586e-05
1.98246e-05
1.97923e-05
1.97604e-05