/*--------------------------------*- C++ -*----------------------------------*\
| =========                 |                                                 |
| \\      /  F ield         | OpenFOAM: The Open Source CFD Toolbox           |
|  \\    /   O peration     | Version:  v1706                                 |
|   \\  /    A nd           | Web:      www.OpenFOAM.com                      |
|    \\/     M anipulation  |                                                 |
\*---------------------------------------------------------------------------*/
FoamFile
{
    version     2.0;
    format      ascii;
    class       volScalarField;
    location    "3.4e-05";
    object      p;
}
// * * * * * * * * * * * * * * * * * * * * * * * * * * * * * * * * * * * * * //

dimensions      [1 -1 -2 0 0 0 0];


internalField   nonuniform List<scalar> 
29871
(
22.8272
22.9384
23.0677
23.2177
23.3895
23.5831
23.7977
24.0314
24.285
24.5625
24.8647
25.1875
25.5241
25.8686
26.2197
26.5806
26.9557
27.3478
27.7573
28.1823
28.6198
29.0678
29.5247
30.0487
30.7598
31.6578
32.7116
33.8844
35.1419
36.4536
37.7934
39.1389
40.4712
41.775
43.0385
44.2525
45.4097
46.504
47.5293
48.4802
49.352
50.1408
50.844
51.4601
51.9889
52.4316
52.7923
53.0746
53.288
53.423
53.5079
53.5357
53.5275
53.4683
53.3726
53.2344
53.0686
52.8786
52.6657
52.4286
52.1748
51.9008
51.6
51.289
50.9751
50.6475
50.3051
49.9594
49.6116
49.2542
48.8832
48.4943
48.0845
47.6533
47.2025
46.7344
46.2506
45.7522
45.2398
44.7136
44.1738
43.6199
43.0513
42.4669
41.8653
41.2453
40.6052
39.9436
39.2591
38.5502
37.8156
37.0538
36.2624
35.4376
34.5736
33.6669
32.7238
31.7584
30.781
29.7958
28.8411
28.0904
27.5885
27.1952
26.8344
27.4849
28.1888
28.9567
29.7887
30.6876
31.6585
32.706
33.8384
35.0623
36.4367
38.1385
40.2254
42.7111
45.5806
48.7995
52.3214
56.0969
60.077
64.2157
68.4692
72.7954
77.1558
81.5212
85.8037
89.8206
93.5405
96.9757
100.149
103.079
105.776
108.245
110.493
112.548
114.452
116.244
117.953
119.597
121.184
122.71
124.172
125.563
126.874
128.096
129.221
130.234
131.126
131.891
132.525
133.026
133.393
133.635
133.757
133.755
133.661
133.441
133.15
132.777
132.349
131.878
131.348
130.783
130.192
129.556
128.915
128.255
127.564
126.87
126.199
125.507
124.798
124.087
123.364
122.611
121.826
121.015
120.179
119.32
118.437
117.53
116.599
115.641
114.654
113.635
112.579
111.482
110.34
109.146
107.894
106.579
105.193
103.733
102.19
100.56
98.8393
97.0295
95.1213
93.1234
91.0546
88.8947
86.6105
84.1549
81.3817
78.2558
74.9023
71.4052
38.3604
40.5349
43.1884
46.3495
50.0126
54.1492
58.7169
63.6642
68.937
74.4818
80.1937
85.8382
91.316
96.58
101.61
106.396
110.93
115.205
119.206
122.916
126.312
129.374
132.089
134.496
136.654
138.596
140.347
141.923
143.36
144.661
145.822
146.821
147.613
148.215
148.664
149.001
149.258
149.46
149.625
149.769
149.902
150.034
150.174
150.325
150.487
150.659
150.837
151.011
151.177
151.327
151.448
151.534
151.589
151.595
151.558
151.476
151.35
151.174
150.941
150.663
150.364
149.955
149.585
149.327
148.842
148.308
147.952
147.614
147.093
146.518
146.046
145.562
145.023
144.451
143.871
143.287
142.692
142.084
141.464
140.833
140.192
139.54
138.874
138.195
137.501
136.792
136.069
135.332
134.583
133.822
133.049
132.263
131.463
130.644
129.806
128.927
127.952
126.832
125.571
124.183
122.688
121.106
119.417
117.617
115.709
113.683
79.577
85.9028
92.1203
98.1423
103.907
109.368
114.493
119.259
123.651
127.667
131.301
134.528
137.331
139.714
141.716
143.422
144.921
146.288
147.566
148.776
149.909
150.912
151.72
152.33
152.787
153.134
153.403
153.612
153.788
153.96
154.164
154.434
154.778
155.145
155.483
155.754
155.946
156.064
156.122
156.134
156.114
156.073
156.023
155.971
155.923
155.886
155.862
155.849
155.848
155.858
155.867
155.867
155.861
155.837
155.78
155.702
155.59
155.43
155.203
154.925
154.619
154.189
153.781
153.505
152.978
152.376
151.964
151.576
150.992
150.324
149.773
149.22
148.607
147.953
147.295
146.639
145.974
145.298
144.612
143.918
143.215
142.503
141.779
141.043
140.296
139.538
138.768
137.99
137.204
136.411
135.611
134.807
133.999
133.193
132.382
131.56
130.784
130.089
129.426
128.778
128.155
127.564
127.012
126.498
126.016
125.547
126.308
130.659
134.545
137.957
140.897
143.386
145.461
147.191
148.663
149.943
151.079
152.092
152.987
153.737
154.322
154.704
154.918
155.016
155.035
155.026
155.032
155.104
155.293
155.616
156.001
156.364
156.649
156.834
156.926
156.941
156.899
156.821
156.769
156.815
156.939
157.099
157.25
157.36
157.414
157.406
157.342
157.232
157.082
156.91
156.726
156.531
156.338
156.162
155.991
155.825
155.686
155.559
155.421
155.295
155.184
155.041
154.879
154.733
154.562
154.324
154.048
153.777
153.445
153.057
152.721
152.266
151.776
151.415
151.129
150.514
149.82
149.307
148.832
148.238
147.562
146.923
146.31
145.681
145.033
144.38
143.726
143.064
142.393
141.714
141.026
140.329
139.625
138.915
138.2
137.483
136.763
136.038
135.311
134.583
133.856
133.127
132.415
131.746
131.111
130.502
129.901
129.306
128.729
128.182
127.672
127.191
126.729
152.061
153.276
154.34
155.263
156.042
156.644
157.053
157.295
157.401
157.426
157.391
157.334
157.289
157.279
157.33
157.431
157.516
157.539
157.456
157.309
157.129
156.928
156.792
156.776
156.872
157.041
157.214
157.344
157.407
157.401
157.329
157.19
157.018
156.827
156.678
156.59
156.556
156.548
156.546
156.526
156.472
156.386
156.258
156.091
155.908
155.699
155.461
155.234
155.011
154.758
154.521
154.324
154.096
153.858
153.675
153.479
153.227
153.009
152.832
152.587
152.287
152.005
151.755
151.439
151.029
150.6
150.196
149.904
149.702
149.042
148.326
147.832
147.471
146.898
146.146
145.517
144.949
144.321
143.672
143.041
142.411
141.764
141.102
140.432
139.758
139.079
138.394
137.704
137.014
136.325
135.638
134.951
134.266
133.585
132.911
132.248
131.61
130.997
130.413
129.869
129.368
128.901
128.461
128.048
127.654
127.269
126.888
159.049
159.379
159.538
159.574
159.566
159.53
159.446
159.385
159.372
159.419
159.482
159.483
159.401
159.259
159.053
158.831
158.594
158.407
158.315
158.254
158.184
158.076
157.918
157.709
157.466
157.207
156.946
156.757
156.681
156.659
156.68
156.713
156.729
156.705
156.612
156.487
156.325
156.116
155.928
155.777
155.653
155.557
155.483
155.397
155.308
155.2
155.039
154.864
154.691
154.443
154.17
153.945
153.656
153.325
153.073
152.801
152.446
152.169
151.946
151.598
151.258
151.037
150.8
150.407
150.059
149.823
149.593
149.133
148.669
148.295
148.08
147.9
147.199
146.518
146.062
145.793
145.283
144.491
143.841
143.314
142.679
142.018
141.45
140.866
140.237
139.582
138.922
138.27
137.621
136.968
136.311
135.655
135.004
134.358
133.716
133.079
132.449
131.832
131.232
130.653
130.094
129.556
129.053
128.596
128.174
127.776
127.413
127.076
126.745
126.416
161.496
161.545
161.548
161.464
161.338
161.166
160.921
160.657
160.404
160.255
160.156
160.056
159.933
159.764
159.539
159.283
159.005
158.718
158.452
158.224
158.045
157.887
157.724
157.537
157.33
157.092
156.823
156.558
156.343
156.182
156.073
156.008
155.971
155.937
155.864
155.771
155.68
155.489
155.269
155.09
154.89
154.688
154.536
154.377
154.219
154.094
153.919
153.713
153.566
153.339
153.024
152.804
152.555
152.153
151.84
151.598
151.173
150.782
150.547
150.165
149.695
149.406
149.187
148.686
148.237
147.985
147.814
147.274
146.753
146.388
146.226
145.983
145.265
144.656
144.236
144.012
143.559
142.761
142.109
141.619
140.994
140.324
139.769
139.262
138.665
137.99
137.346
136.747
136.144
135.529
134.906
134.284
133.673
133.074
132.481
131.894
131.316
130.754
130.21
129.687
129.182
128.692
128.235
127.834
127.457
127.096
126.761
126.451
126.16
125.877
162.389
162.245
162.113
161.96
161.782
161.563
161.302
161.01
160.706
160.411
160.153
159.945
159.764
159.586
159.395
159.181
158.943
158.681
158.406
158.141
157.901
157.688
157.492
157.303
157.11
156.899
156.658
156.397
156.135
155.888
155.675
155.498
155.355
155.248
155.13
155.009
154.93
154.767
154.539
154.378
154.18
153.892
153.674
153.473
153.219
153.03
152.835
152.568
152.383
152.19
151.844
151.585
151.4
150.979
150.599
150.386
149.969
149.486
149.207
148.859
148.307
147.924
147.696
147.157
146.621
146.337
146.138
145.519
144.961
144.61
144.479
144.077
143.366
142.824
142.446
142.263
141.769
140.985
140.375
139.936
139.335
138.655
138.099
137.651
137.108
136.427
135.789
135.232
134.712
134.157
133.557
132.949
132.392
131.85
131.307
130.768
130.242
129.735
129.245
128.773
128.324
127.895
127.488
127.111
126.763
126.44
126.138
125.857
125.596
125.347
162.514
162.221
161.969
161.752
161.555
161.353
161.133
160.892
160.633
160.359
160.088
159.841
159.621
159.419
159.229
159.037
158.831
158.604
158.356
158.096
157.834
157.583
157.345
157.12
156.901
156.681
156.449
156.199
155.932
155.656
155.387
155.13
154.889
154.696
154.508
154.313
154.178
154.015
153.773
153.599
153.426
153.104
152.836
152.63
152.308
152.025
151.815
151.491
151.215
151.026
150.671
150.344
150.163
149.778
149.348
149.115
148.75
148.223
147.886
147.58
147.007
146.548
146.285
145.762
145.177
144.835
144.567
143.922
143.348
143.012
142.849
142.286
141.593
141.109
140.784
140.604
139.986
139.245
138.706
138.328
137.738
137.049
136.5
136.089
135.613
134.94
134.311
133.78
133.316
132.869
132.294
131.699
131.167
130.671
130.184
129.701
129.231
128.775
128.335
127.912
127.508
127.124
126.761
126.421
126.106
125.814
125.543
125.292
125.061
124.85
162.364
162.085
161.819
161.579
161.363
161.162
160.963
160.757
160.537
160.302
160.055
159.807
159.567
159.339
159.125
158.92
158.715
158.501
158.273
158.028
157.77
157.507
157.243
156.985
156.733
156.484
156.234
155.977
155.705
155.419
155.126
154.827
154.527
154.258
154
153.723
153.509
153.306
153.029
152.809
152.623
152.299
151.999
151.782
151.438
151.08
150.837
150.49
150.119
149.885
149.539
149.137
148.901
148.562
148.094
147.803
147.492
146.958
146.56
146.275
145.729
145.216
144.915
144.429
143.818
143.421
143.106
142.47
141.888
141.546
141.298
140.65
139.994
139.554
139.294
139.016
138.28
137.617
137.154
136.827
136.223
135.531
135.001
134.622
134.204
133.539
132.92
132.417
132.004
131.658
131.109
130.521
130.011
129.553
129.117
128.689
128.269
127.861
127.466
127.085
126.722
126.376
126.051
125.746
125.463
125.203
124.965
124.742
124.541
124.367
162.444
162.213
161.972
161.727
161.487
161.26
161.047
160.843
160.644
160.442
160.23
160.008
159.776
159.539
159.302
159.071
158.846
158.626
158.405
158.177
157.939
157.688
157.423
157.15
156.872
156.593
156.315
156.036
155.756
155.468
155.17
154.86
154.538
154.208
153.886
153.567
153.232
152.944
152.674
152.347
152.068
151.836
151.5
151.168
150.925
150.573
150.169
149.89
149.536
149.095
148.797
148.456
147.992
147.676
147.361
146.868
146.497
146.208
145.696
145.233
144.941
144.449
143.891
143.548
143.114
142.494
142.046
141.714
141.108
140.514
140.152
139.832
139.16
138.538
138.134
137.922
137.466
136.709
136.129
135.732
135.427
134.788
134.108
133.606
133.265
132.883
132.221
131.613
131.139
130.788
130.512
129.969
129.394
128.914
128.497
128.103
127.719
127.343
126.976
126.62
126.278
125.95
125.64
125.348
125.078
124.828
124.595
124.39
124.208
124.046
123.906
162.282
162.075
161.863
161.644
161.421
161.199
160.983
160.773
160.57
160.369
160.165
159.955
159.736
159.509
159.274
159.037
158.799
158.562
158.326
158.088
157.844
157.59
157.324
157.046
156.758
156.462
156.161
155.857
155.549
155.237
154.918
154.589
154.248
153.898
153.543
153.179
152.808
152.459
152.118
151.742
151.407
151.109
150.737
150.369
150.088
149.717
149.281
148.97
148.604
148.121
147.767
147.417
146.917
146.519
146.196
145.7
145.242
144.935
144.461
143.931
143.599
143.168
142.581
142.172
141.795
141.193
140.685
140.344
139.791
139.18
138.786
138.435
137.778
137.174
136.79
136.562
135.99
135.271
134.754
134.417
134.101
133.414
132.764
132.302
132.007
131.632
130.969
130.388
129.94
129.61
129.351
128.856
128.326
127.88
127.494
127.132
126.783
126.441
126.109
125.788
125.48
125.186
124.912
124.653
124.411
124.196
124.004
123.836
123.691
123.567
123.462
123.376
123.307
162.167
161.969
161.77
161.568
161.362
161.152
160.942
160.732
160.525
160.32
160.115
159.907
159.693
159.471
159.24
159.003
158.759
158.512
158.262
158.009
157.752
157.488
157.215
156.93
156.634
156.327
156.01
155.685
155.354
155.017
154.673
154.322
153.961
153.59
153.21
152.818
152.418
152.024
151.625
151.211
150.824
150.455
150.037
149.634
149.298
148.891
148.429
148.085
147.695
147.185
146.786
146.418
145.901
145.432
145.083
144.596
144.06
143.707
143.267
142.69
142.283
141.899
141.314
140.819
140.466
139.922
139.346
138.972
138.496
137.878
137.426
137.075
136.465
135.862
135.475
135.207
134.594
133.916
133.448
133.169
132.81
132.09
131.48
131.064
130.82
130.403
129.763
129.229
128.805
128.452
128.142
127.754
127.311
126.901
126.535
126.195
125.87
125.557
125.255
124.967
124.694
124.432
124.188
123.966
123.764
123.586
123.432
123.301
123.193
123.104
123.033
122.978
122.937
162.489
162.286
162.087
161.892
161.699
161.506
161.31
161.111
160.908
160.702
160.495
160.287
160.078
159.867
159.652
159.43
159.201
158.963
158.717
158.463
158.203
157.938
157.667
157.389
157.104
156.808
156.502
156.184
155.854
155.514
155.163
154.805
154.438
154.063
153.68
153.287
152.884
152.47
152.046
151.618
151.18
150.735
150.302
149.87
149.411
148.974
148.573
148.119
147.636
147.249
146.824
146.291
145.855
145.461
144.933
144.407
144.026
143.546
142.957
142.54
142.12
141.528
141.03
140.656
140.112
139.53
139.145
138.678
138.063
137.604
137.209
136.623
136.088
135.725
135.197
134.593
134.168
133.868
133.267
132.622
132.182
131.941
131.53
130.821
130.249
129.86
129.637
129.182
128.594
128.109
127.709
127.351
127.013
126.664
126.294
125.933
125.596
125.279
124.979
124.693
124.422
124.162
123.92
123.696
123.49
123.305
123.141
123.001
122.883
122.787
122.712
122.654
122.611
122.582
122.563
162.418
162.223
162.029
161.838
161.648
161.459
161.268
161.075
160.877
160.676
160.471
160.262
160.05
159.835
159.615
159.39
159.158
158.918
158.668
158.41
158.142
157.867
157.584
157.292
156.993
156.684
156.365
156.035
155.693
155.339
154.973
154.596
154.209
153.813
153.407
152.993
152.568
152.132
151.687
151.232
150.767
150.295
149.823
149.345
148.854
148.378
147.916
147.418
146.914
146.476
146.006
145.452
144.983
144.555
144.013
143.445
143.028
142.547
141.929
141.444
141.024
140.448
139.862
139.458
138.964
138.335
137.864
137.456
136.866
136.301
135.915
135.417
134.819
134.374
133.954
133.38
132.882
132.54
132.004
131.397
130.947
130.696
130.255
129.613
129.082
128.682
128.379
127.981
127.491
127.043
126.654
126.298
125.959
125.627
125.297
124.977
124.673
124.386
124.115
123.855
123.612
123.388
123.18
122.992
122.822
122.673
122.546
122.44
122.355
122.289
122.241
122.208
122.187
122.177
122.175
122.179
163.702
163.501
163.304
163.111
162.922
162.734
162.547
162.36
162.173
161.986
161.798
161.612
161.424
161.236
161.045
160.85
160.651
160.448
160.239
160.025
159.806
159.582
159.351
159.114
158.869
158.614
158.35
158.076
157.792
157.499
157.195
156.883
156.561
156.228
155.884
155.528
155.161
154.78
154.388
153.984
153.569
153.143
152.708
152.262
151.806
151.339
150.862
150.375
149.879
149.378
148.867
148.348
147.837
147.325
146.792
146.263
145.771
145.254
144.684
144.179
143.707
143.147
142.55
142.093
141.6
140.972
140.421
139.986
139.433
138.787
138.32
137.862
137.24
136.668
136.262
135.738
135.109
134.643
134.233
133.649
133.097
132.699
132.218
131.664
131.221
130.779
130.244
129.762
129.401
128.993
128.476
127.985
127.56
127.189
126.818
126.411
126.008
125.635
125.29
124.961
124.646
124.343
124.054
123.781
123.521
123.278
123.052
122.842
122.65
122.476
122.32
122.185
122.069
121.973
121.897
121.839
121.798
121.771
121.756
121.751
121.754
121.763
121.779
163.602
163.411
163.223
163.038
162.855
162.674
162.494
162.313
162.133
161.951
161.768
161.584
161.398
161.211
161.02
160.826
160.628
160.424
160.214
159.999
159.776
159.548
159.312
159.069
158.817
158.556
158.286
158.005
157.713
157.41
157.096
156.771
156.436
156.09
155.732
155.363
154.981
154.587
154.18
153.761
153.33
152.886
152.432
151.967
151.491
151.005
150.508
150
149.484
148.958
148.423
147.881
147.339
146.79
146.229
145.673
145.133
144.575
143.988
143.447
142.927
142.344
141.729
141.228
140.713
140.083
139.476
139.012
138.473
137.804
137.259
136.811
136.227
135.578
135.115
134.653
134.029
133.461
133.061
132.555
131.945
131.468
131.07
130.536
130.008
129.564
129.112
128.635
128.197
127.788
127.357
126.914
126.492
126.1
125.728
125.36
124.997
124.65
124.323
124.013
123.718
123.439
123.174
122.926
122.697
122.485
122.289
122.109
121.947
121.803
121.678
121.571
121.483
121.413
121.361
121.324
121.3
121.289
121.287
121.294
121.307
121.327
121.353
163.519
163.337
163.157
162.979
162.802
162.627
162.452
162.276
162.1
161.922
161.743
161.561
161.376
161.189
160.999
160.804
160.605
160.4
160.188
159.97
159.744
159.511
159.27
159.021
158.762
158.495
158.217
157.928
157.628
157.316
156.993
156.657
156.31
155.952
155.581
155.198
154.803
154.395
153.974
153.541
153.094
152.635
152.164
151.682
151.188
150.684
150.168
149.642
149.107
148.562
148.007
147.444
146.876
146.301
145.717
145.134
144.556
143.965
143.361
142.784
142.219
141.612
140.985
140.438
139.893
139.26
138.615
138.109
137.571
136.907
136.285
135.819
135.27
134.596
134.048
133.611
133.035
132.396
131.929
131.499
130.906
130.342
129.925
129.463
128.917
128.43
127.995
127.55
127.103
126.681
126.272
125.865
125.465
125.08
124.715
124.365
124.027
123.705
123.4
123.111
122.838
122.578
122.338
122.117
121.914
121.729
121.559
121.407
121.271
121.154
121.053
120.971
120.905
120.855
120.821
120.8
120.79
120.79
120.799
120.816
120.839
120.87
120.908
163.451
163.277
163.104
162.932
162.76
162.589
162.418
162.246
162.073
161.898
161.72
161.54
161.357
161.169
160.978
160.782
160.581
160.373
160.159
159.938
159.709
159.471
159.225
158.969
158.704
158.429
158.144
157.847
157.539
157.219
156.886
156.541
156.183
155.813
155.43
155.034
154.626
154.205
153.771
153.324
152.863
152.39
151.905
151.407
150.897
150.376
149.844
149.301
148.749
148.186
147.613
147.032
146.444
145.848
145.244
144.639
144.032
143.415
142.793
142.184
141.581
140.952
140.313
139.723
139.143
138.505
137.838
137.283
136.735
136.084
135.405
134.897
134.371
133.708
133.078
132.621
132.097
131.44
130.886
130.474
129.944
129.333
128.844
128.418
127.909
127.399
126.944
126.513
126.081
125.66
125.255
124.864
124.483
124.115
123.763
123.428
123.109
122.807
122.522
122.252
121.996
121.76
121.544
121.346
121.166
121.002
120.856
120.726
120.613
120.517
120.438
120.374
120.326
120.293
120.272
120.264
120.265
120.277
120.296
120.324
120.359
120.403
120.456
120.52
120.595
163.395
163.227
163.059
162.892
162.725
162.558
162.389
162.22
162.049
161.876
161.7
161.52
161.337
161.149
160.957
160.759
160.555
160.345
160.128
159.903
159.669
159.427
159.175
158.914
158.643
158.361
158.068
157.763
157.447
157.118
156.776
156.422
156.054
155.673
155.279
154.872
154.452
154.019
153.572
153.112
152.639
152.153
151.654
151.142
150.618
150.082
149.535
148.977
148.409
147.83
147.242
146.645
146.04
145.426
144.805
144.181
143.551
142.915
142.274
141.64
141.006
140.358
139.706
139.08
138.467
137.819
137.14
136.538
135.97
135.326
134.618
134.057
133.535
132.894
132.21
131.703
131.211
130.574
129.95
129.498
129.029
128.423
127.867
127.42
126.955
126.453
125.98
125.542
125.12
124.706
124.307
123.923
123.554
123.201
122.864
122.544
122.241
121.956
121.685
121.428
121.193
120.979
120.783
120.604
120.443
120.298
120.171
120.06
119.966
119.887
119.825
119.777
119.744
119.724
119.716
119.719
119.733
119.756
119.788
119.829
119.879
119.939
120.01
120.093
120.188
163.347
163.184
163.021
162.858
162.695
162.53
162.364
162.197
162.027
161.855
161.679
161.5
161.316
161.127
160.933
160.733
160.527
160.314
160.093
159.864
159.626
159.379
159.122
158.855
158.578
158.289
157.988
157.676
157.352
157.015
156.665
156.301
155.924
155.534
155.13
154.712
154.282
153.836
153.378
152.906
152.421
151.923
151.412
150.887
150.351
149.802
149.241
148.669
148.087
147.494
146.892
146.28
145.66
145.032
144.396
143.755
143.109
142.456
141.799
141.144
140.487
139.822
139.155
138.502
137.859
137.2
136.512
135.871
135.278
134.634
133.914
133.304
132.772
132.145
131.435
130.873
130.388
129.779
129.114
128.605
128.16
127.586
126.995
126.505
126.053
125.572
125.096
124.649
124.225
123.816
123.422
123.045
122.684
122.34
122.015
121.709
121.421
121.147
120.885
120.645
120.427
120.23
120.051
119.889
119.743
119.615
119.503
119.408
119.329
119.266
119.218
119.184
119.164
119.156
119.161
119.177
119.203
119.24
119.287
119.344
119.412
119.491
119.582
119.686
119.802
163.465
163.306
163.147
162.988
162.828
162.667
162.505
162.341
162.175
162.006
161.834
161.658
161.478
161.293
161.103
160.908
160.705
160.496
160.28
160.055
159.822
159.58
159.328
159.066
158.793
158.509
158.214
157.907
157.587
157.255
156.91
156.552
156.18
155.795
155.396
154.983
154.555
154.113
153.659
153.19
152.707
152.211
151.702
151.179
150.644
150.095
149.535
148.962
148.378
147.783
147.178
146.563
145.939
145.305
144.664
144.015
143.36
142.699
142.032
141.362
140.69
140.015
139.336
138.655
137.98
137.314
136.642
135.945
135.277
134.659
134.007
133.283
132.637
132.083
131.459
130.744
130.134
129.635
129.047
128.372
127.809
127.356
126.813
126.216
125.694
125.23
124.762
124.29
123.838
123.409
123
122.609
122.236
121.879
121.543
121.227
120.932
120.654
120.387
120.136
119.909
119.706
119.522
119.356
119.207
119.075
118.96
118.862
118.78
118.715
118.665
118.63
118.609
118.601
118.606
118.624
118.653
118.693
118.745
118.807
118.881
118.966
119.064
119.173
119.295
119.429
163.425
163.269
163.114
162.957
162.8
162.641
162.48
162.318
162.152
161.984
161.812
161.636
161.455
161.269
161.077
160.879
160.674
160.462
160.242
160.014
159.777
159.53
159.273
159.006
158.728
158.438
158.137
157.823
157.497
157.158
156.806
156.44
156.06
155.667
155.259
154.837
154.401
153.951
153.487
153.008
152.516
152.01
151.49
150.957
150.412
149.853
149.282
148.698
148.104
147.498
146.881
146.255
145.619
144.974
144.321
143.661
142.994
142.32
141.641
140.959
140.273
139.585
138.894
138.2
137.508
136.825
136.138
135.433
134.748
134.108
133.443
132.719
132.055
131.474
130.844
130.133
129.488
128.961
128.379
127.709
127.104
126.622
126.095
125.507
124.965
124.482
124.012
123.543
123.089
122.656
122.244
121.853
121.481
121.128
120.796
120.486
120.2
119.93
119.669
119.426
119.21
119.018
118.846
118.691
118.553
118.432
118.329
118.243
118.174
118.121
118.083
118.06
118.052
118.057
118.076
118.107
118.15
118.205
118.272
118.351
118.441
118.543
118.657
118.783
118.92
119.069
119.229
119.399
163.388
163.235
163.082
162.928
162.773
162.615
162.456
162.294
162.129
161.961
161.788
161.611
161.429
161.242
161.048
160.848
160.641
160.426
160.202
159.97
159.729
159.478
159.217
158.945
158.661
158.366
158.059
157.739
157.406
157.061
156.701
156.329
155.942
155.54
155.125
154.696
154.252
153.793
153.32
152.833
152.332
151.818
151.289
150.747
150.191
149.623
149.043
148.45
147.845
147.229
146.603
145.967
145.321
144.666
144.003
143.332
142.655
141.971
141.281
140.588
139.891
139.193
138.492
137.789
137.086
136.391
135.692
134.979
134.283
133.618
132.933
132.211
131.536
130.922
130.276
129.574
128.911
128.35
127.764
127.105
126.475
125.962
125.434
124.857
124.307
123.806
123.326
122.856
122.4
121.965
121.55
121.157
120.786
120.435
120.105
119.799
119.518
119.254
118.999
118.763
118.555
118.371
118.208
118.062
117.934
117.824
117.731
117.656
117.598
117.556
117.53
117.52
117.524
117.542
117.574
117.619
117.676
117.747
117.829
117.923
118.03
118.148
118.277
118.418
118.569
118.731
118.902
119.082
163.353
163.203
163.052
162.9
162.746
162.59
162.431
162.269
162.104
161.936
161.763
161.585
161.401
161.212
161.017
160.814
160.604
160.386
160.16
159.924
159.679
159.424
159.158
158.881
158.593
158.293
157.98
157.655
157.316
156.964
156.599
156.219
155.826
155.418
154.996
154.559
154.108
153.642
153.161
152.667
152.158
151.635
151.098
150.548
149.984
149.407
148.818
148.217
147.604
146.979
146.344
145.698
145.044
144.381
143.71
143.031
142.345
141.653
140.955
140.255
139.55
138.842
138.13
137.415
136.701
135.993
135.281
134.56
133.855
133.169
132.467
131.748
131.065
130.419
129.755
129.062
128.395
127.802
127.204
126.556
125.923
125.38
124.841
124.273
123.723
123.211
122.721
122.245
121.786
121.348
120.93
120.535
120.162
119.811
119.482
119.177
118.9
118.642
118.392
118.161
117.958
117.782
117.626
117.488
117.368
117.266
117.183
117.117
117.069
117.038
117.023
117.023
117.039
117.07
117.114
117.171
117.242
117.325
117.42
117.528
117.647
117.777
117.918
118.07
118.231
118.401
118.58
118.767
163.32
163.172
163.022
162.871
162.718
162.563
162.405
162.243
162.078
161.909
161.735
161.556
161.371
161.18
160.983
160.778
160.566
160.345
160.115
159.876
159.628
159.369
159.099
158.817
158.524
158.219
157.902
157.571
157.227
156.869
156.498
156.113
155.713
155.299
154.87
154.427
153.97
153.497
153.01
152.508
151.992
151.462
150.919
150.361
149.789
149.205
148.609
148.001
147.381
146.749
146.105
145.452
144.792
144.125
143.449
142.763
142.068
141.366
140.658
139.945
139.231
138.515
137.794
137.071
136.348
135.627
134.904
134.179
133.467
132.765
132.053
131.339
130.649
129.978
129.301
128.614
127.945
127.323
126.708
126.067
125.438
124.869
124.313
123.749
123.201
122.681
122.181
121.699
121.237
120.795
120.374
119.975
119.6
119.248
118.919
118.615
118.338
118.084
117.842
117.615
117.416
117.244
117.094
116.963
116.85
116.756
116.681
116.624
116.584
116.562
116.556
116.566
116.591
116.631
116.686
116.755
116.837
116.931
117.039
117.157
117.287
117.428
117.579
117.739
117.907
118.085
118.27
118.462
118.661
163.14
162.992
162.842
162.69
162.535
162.377
162.216
162.05
161.88
161.705
161.525
161.339
161.147
160.947
160.74
160.525
160.302
160.069
159.827
159.575
159.312
159.039
158.754
158.456
158.147
157.824
157.489
157.14
156.778
156.401
156.01
155.605
155.185
154.751
154.302
153.838
153.36
152.867
152.359
151.836
151.3
150.751
150.187
149.61
149.018
148.416
147.804
147.181
146.545
145.897
145.235
144.564
143.889
143.205
142.512
141.811
141.103
140.388
139.667
138.941
138.214
137.486
136.757
136.029
135.301
134.571
133.842
133.122
132.407
131.688
130.974
130.276
129.589
128.903
128.217
127.548
126.909
126.277
125.635
125.007
124.416
123.844
123.279
122.731
122.205
121.699
121.212
120.745
120.299
119.875
119.472
119.094
118.741
118.411
118.106
117.829
117.577
117.344
117.122
116.924
116.755
116.61
116.485
116.378
116.29
116.22
116.17
116.137
116.123
116.125
116.145
116.18
116.23
116.294
116.372
116.464
116.568
116.684
116.812
116.951
117.099
117.258
117.425
117.6
117.783
117.973
118.171
118.374
163.109
162.962
162.812
162.661
162.506
162.348
162.186
162.02
161.85
161.674
161.493
161.305
161.111
160.91
160.701
160.484
160.258
160.023
159.778
159.522
159.256
158.979
158.691
158.388
158.075
157.749
157.409
157.056
156.689
156.308
155.912
155.502
155.077
154.638
154.183
153.714
153.231
152.733
152.22
151.691
151.151
150.598
150.032
149.452
148.856
148.247
147.628
146.998
146.356
145.703
145.037
144.357
143.666
142.97
142.269
141.563
140.851
140.134
139.409
138.677
137.943
137.207
136.471
135.736
135.001
134.264
133.531
132.804
132.08
131.356
130.639
129.934
129.237
128.545
127.857
127.185
126.535
125.892
125.248
124.621
124.019
123.432
122.86
122.309
121.778
121.266
120.775
120.304
119.855
119.427
119.022
118.641
118.285
117.954
117.648
117.37
117.118
116.89
116.676
116.479
116.311
116.168
116.047
115.944
115.862
115.799
115.755
115.729
115.722
115.733
115.76
115.803
115.862
115.934
116.02
116.118
116.229
116.352
116.486
116.63
116.784
116.947
117.119
117.298
117.485
117.678
117.878
118.084
162.93
162.781
162.63
162.476
162.318
162.156
161.989
161.818
161.641
161.459
161.27
161.075
160.872
160.661
160.441
160.213
159.976
159.728
159.47
159.201
158.92
158.628
158.324
158.007
157.676
157.333
156.976
156.605
156.219
155.819
155.404
154.976
154.532
154.073
153.599
153.113
152.613
152.098
151.568
151.022
150.464
149.894
149.309
148.709
148.093
147.46
146.817
146.165
145.506
144.837
144.155
143.46
142.759
142.051
141.337
140.618
139.893
139.163
138.43
137.693
136.953
136.212
135.471
134.73
133.989
133.251
132.517
131.785
131.057
130.336
129.623
128.918
128.219
127.529
126.851
126.19
125.537
124.894
124.268
123.662
123.067
122.488
121.93
121.393
120.877
120.382
119.908
119.454
119.024
118.617
118.233
117.874
117.541
117.234
116.955
116.702
116.474
116.268
116.075
115.905
115.765
115.648
115.551
115.473
115.416
115.378
115.358
115.356
115.371
115.403
115.452
115.516
115.594
115.685
115.789
115.905
116.033
116.171
116.32
116.478
116.644
116.819
117.001
117.19
117.385
117.587
117.794
162.749
162.598
162.444
162.286
162.124
161.957
161.785
161.607
161.424
161.234
161.037
160.832
160.62
160.399
160.168
159.929
159.678
159.418
159.147
158.863
158.568
158.261
157.941
157.607
157.26
156.899
156.525
156.136
155.732
155.314
154.884
154.439
153.978
153.502
153.013
152.51
151.992
151.458
150.905
150.334
149.751
149.157
148.551
147.932
147.296
146.648
145.992
145.326
144.65
143.966
143.272
142.57
141.858
141.141
140.417
139.687
138.954
138.216
137.475
136.73
135.984
135.237
134.49
133.745
133.001
132.261
131.524
130.791
130.064
129.345
128.633
127.929
127.234
126.551
125.882
125.222
124.576
123.946
123.332
122.734
122.151
121.588
121.046
120.525
120.026
119.548
119.092
118.659
118.251
117.865
117.504
117.167
116.858
116.576
116.322
116.094
115.892
115.708
115.541
115.4
115.286
115.192
115.118
115.063
115.028
115.012
115.013
115.032
115.068
115.121
115.188
115.27
115.366
115.474
115.594
115.725
115.866
116.017
116.177
116.346
116.522
116.706
116.896
117.092
117.295
117.502
117.715
117.932
162.717
162.566
162.411
162.253
162.09
161.923
161.751
161.573
161.388
161.197
160.999
160.793
160.579
160.357
160.124
159.883
159.631
159.368
159.094
158.809
158.511
158.2
157.878
157.542
157.192
156.829
156.453
156.064
155.659
155.239
154.807
154.361
153.899
153.419
152.918
152.403
151.875
151.333
150.777
150.202
149.614
149.015