/*--------------------------------*- C++ -*----------------------------------*\
| =========                 |                                                 |
| \\      /  F ield         | OpenFOAM: The Open Source CFD Toolbox           |
|  \\    /   O peration     | Version:  v1706                                 |
|   \\  /    A nd           | Web:      www.OpenFOAM.com                      |
|    \\/     M anipulation  |                                                 |
\*---------------------------------------------------------------------------*/
FoamFile
{
    version     2.0;
    format      ascii;
    class       volScalarField;
    location    "3.4e-05";
    object      rho;
}
// * * * * * * * * * * * * * * * * * * * * * * * * * * * * * * * * * * * * * //

dimensions      [1 -3 0 0 0 0 0];


internalField   nonuniform List<scalar> 
29871
(
0.000518139
0.000518911
0.000519866
0.000521046
0.000522478
0.000524164
0.000526095
0.000528234
0.000530571
0.000533106
0.000535763
0.000538424
0.000540983
0.000543377
0.000545636
0.000547874
0.000550226
0.000552792
0.000555621
0.000558725
0.000562082
0.000565671
0.000569376
0.000573759
0.000580244
0.000589024
0.000599838
0.000612275
0.000625914
0.000640379
0.000655344
0.000670536
0.000685718
0.000700685
0.000715273
0.000729347
0.0007428
0.000755546
0.000767509
0.000778628
0.00078885
0.000798136
0.000806457
0.000813804
0.000820181
0.000825605
0.000830126
0.000833783
0.000836655
0.000838775
0.00084032
0.000841179
0.000841639
0.000841527
0.000841039
0.000840096
0.000838845
0.000837313
0.00083552
0.000833456
0.000831205
0.000828723
0.000825925
0.000822993
0.00082002
0.000816877
0.000813536
0.000810136
0.000806704
0.000803161
0.000799457
0.000795545
0.000791389
0.000786984
0.000782344
0.00077749
0.000772437
0.000767195
0.000761768
0.00075616
0.00075037
0.000744392
0.000738219
0.000731835
0.000725227
0.000718374
0.000711259
0.000703861
0.000696163
0.000688144
0.000679782
0.000671054
0.000661925
0.000652334
0.000642194
0.000631442
0.000620153
0.000608507
0.000596648
0.000584596
0.000572871
0.000563986
0.000558531
0.000554632
0.000551243
0.000551803
0.000556975
0.000562439
0.00056823
0.00057446
0.000581288
0.00058886
0.000597344
0.000606767
0.000617655
0.000631966
0.000650427
0.000673193
0.000700053
0.000730562
0.000764182
0.00080038
0.000838679
0.000878663
0.000919955
0.000962198
0.00100505
0.0010483
0.00109104
0.00113135
0.00116897
0.00120416
0.0012372
0.0012683
0.00129755
0.00132497
0.00135054
0.00137444
0.00139696
0.00141841
0.00143902
0.00145891
0.00147814
0.0014967
0.00151456
0.00153163
0.00154784
0.00156308
0.00157726
0.00159028
0.00160205
0.00161252
0.00162166
0.00162942
0.00163582
0.00164093
0.0016448
0.00164734
0.00164897
0.00164909
0.0016484
0.0016469
0.00164475
0.00164208
0.00163874
0.00163496
0.0016308
0.00162611
0.00162128
0.00161617
0.00161062
0.00160493
0.0015994
0.00159361
0.00158756
0.00158143
0.0015751
0.00156843
0.00156138
0.00155398
0.00154626
0.00153823
0.00152987
0.00152119
0.00151216
0.00150277
0.00149297
0.00148274
0.00147202
0.00146077
0.00144892
0.0014364
0.00142315
0.00140908
0.00139411
0.00137817
0.00136117
0.001343
0.0013236
0.0013029
0.00128073
0.00125719
0.00123258
0.00120687
0.0011799
0.00115151
0.00112042
0.00108634
0.00105049
0.00101354
0.000626298
0.000643531
0.000665667
0.000692979
0.000725342
0.000762398
0.000803696
0.000848735
0.000897027
0.000948139
0.00100112
0.00105357
0.00110456
0.00115373
0.00120094
0.00124611
0.00128916
0.00133
0.0013685
0.00140453
0.00143793
0.00146857
0.00149629
0.0015214
0.00154437
0.00156542
0.00158478
0.00160267
0.00161928
0.00163474
0.00164912
0.0016622
0.00167349
0.00168312
0.00169137
0.00169858
0.00170502
0.00171089
0.00171635
0.00172151
0.00172647
0.00173133
0.00173614
0.00174095
0.00174576
0.0017506
0.00175541
0.00176014
0.00176475
0.00176919
0.00177335
0.00177717
0.00178071
0.00178376
0.00178641
0.00178862
0.00179038
0.00179164
0.00179237
0.00179259
0.00179254
0.00179142
0.00179056
0.00179072
0.00178877
0.00178605
0.00178506
0.00178424
0.0017816
0.00177819
0.00177566
0.001773
0.00176974
0.00176606
0.00176219
0.00175821
0.00175403
0.00174964
0.00174503
0.00174023
0.00173521
0.00172997
0.00172449
0.00171875
0.00171273
0.00170644
0.00169985
0.00169296
0.00168578
0.00167828
0.00167044
0.00166224
0.0016536
0.00164446
0.00163475
0.0016242
0.0016121
0.00159794
0.00158183
0.00156416
0.00154536
0.00152571
0.00150532
0.0014843
0.00146266
0.00144022
0.00098035
0.00103723
0.00109314
0.00114738
0.00119947
0.00124904
0.00129583
0.00133962
0.00138028
0.00141782
0.00145224
0.00148323
0.00151063
0.00153437
0.00155471
0.00157231
0.00158792
0.00160221
0.00161559
0.00162827
0.00164028
0.00165131
0.00166057
0.00166807
0.00167422
0.00167943
0.00168396
0.00168799
0.00169176
0.00169549
0.00169951
0.00170419
0.00170965
0.00171552
0.00172136
0.00172683
0.00173176
0.00173616
0.0017401
0.00174367
0.00174696
0.00175005
0.00175301
0.00175589
0.00175875
0.00176163
0.00176457
0.00176754
0.00177055
0.00177362
0.00177665
0.00177958
0.00178245
0.00178515
0.00178754
0.00178976
0.00179171
0.00179322
0.00179413
0.00179457
0.00179464
0.00179356
0.00179258
0.00179279
0.00179073
0.00178765
0.00178639
0.00178538
0.00178252
0.00177864
0.00177573
0.00177279
0.00176926
0.00176523
0.00176102
0.00175672
0.00175225
0.00174755
0.00174265
0.00173757
0.00173228
0.00172678
0.00172105
0.00171507
0.00170883
0.00170233
0.00169556
0.00168852
0.00168121
0.00167362
0.00166574
0.00165756
0.00164906
0.00164027
0.00163111
0.00162147
0.00161212
0.00160374
0.00159579
0.00158809
0.00158072
0.0015738
0.00156746
0.00156174
0.00155657
0.00155172
0.00138857
0.00142837
0.00146421
0.00149595
0.00152358
0.00154727
0.00156727
0.00158412
0.00159855
0.00161117
0.00162243
0.00163258
0.00164171
0.00164977
0.00165638
0.00166123
0.0016646
0.00166691
0.00166846
0.00166966
0.00167087
0.00167253
0.00167513
0.00167894
0.00168346
0.00168799
0.00169201
0.00169532
0.00169789
0.00169984
0.00170131
0.0017024
0.00170366
0.00170582
0.0017088
0.00171224
0.00171576
0.00171909
0.00172208
0.00172465
0.00172684
0.0017287
0.00173027
0.00173168
0.00173301
0.00173424
0.00173549
0.00173687
0.00173827
0.00173969
0.00174133
0.00174306
0.00174466
0.00174636
0.00174819
0.00174971
0.00175107
0.00175258
0.00175389
0.00175458
0.00175494
0.00175532
0.00175509
0.00175435
0.00175405
0.00175262
0.00175065
0.00174998
0.00175002
0.00174711
0.00174312
0.00174075
0.00173875
0.00173564
0.00173164
0.00172782
0.00172412
0.00172019
0.00171597
0.00171159
0.00170709
0.00170242
0.00169755
0.00169249
0.00168721
0.00168171
0.00167599
0.00167005
0.00166392
0.00165758
0.00165102
0.00164422
0.00163719
0.00162994
0.00162248
0.00161479
0.00160715
0.00159992
0.00159301
0.00158638
0.00157989
0.00157353
0.00156743
0.00156175
0.00155654
0.00155173
0.00154716
0.00161435
0.00162595
0.00163614
0.00164509
0.00165277
0.0016591
0.00166365
0.00166669
0.0016685
0.00166954
0.00166997
0.00167014
0.00167037
0.00167088
0.00167191
0.00167349
0.00167512
0.00167638
0.00167679
0.00167665
0.00167622
0.00167547
0.00167517
0.00167583
0.00167746
0.00167985
0.00168239
0.0016847
0.00168654
0.00168787
0.00168872
0.001689
0.00168896
0.00168868
0.00168873
0.00168928
0.00169036
0.00169177
0.00169336
0.0016949
0.00169627
0.00169748
0.00169841
0.00169908
0.00169969
0.00170012
0.00170034
0.0017007
0.00170112
0.00170129
0.00170161
0.00170231
0.00170275
0.00170309
0.00170394
0.0017047
0.00170495
0.0017055
0.00170648
0.00170683
0.00170673
0.00170679
0.00170714
0.00170694
0.00170589
0.00170455
0.00170335
0.00170334
0.00170406
0.00170077
0.00169656
0.00169445
0.00169369
0.00169108
0.00168658
0.00168301
0.00167993
0.00167622
0.00167221
0.00166826
0.00166425
0.00166002
0.00165553
0.00165087
0.00164605
0.00164106
0.00163589
0.00163055
0.00162506
0.00161945
0.00161371
0.00160781
0.00160179
0.00159567
0.00158947
0.0015833
0.00157733
0.00157159
0.00156612
0.00156104
0.00155638
0.00155207
0.00154807
0.00154434
0.00154084
0.00153744
0.00153407
0.00166699
0.00167063
0.00167271
0.00167363
0.00167413
0.0016743
0.00167398
0.00167381
0.00167403
0.00167483
0.00167592
0.0016766
0.00167659
0.00167613
0.00167511
0.0016739
0.00167246
0.00167131
0.00167103
0.00167111
0.0016712
0.00167105
0.00167056
0.00166967
0.00166848
0.00166711
0.00166557
0.00166448
0.00166441
0.00166477
0.00166557
0.00166656
0.00166752
0.00166824
0.00166842
0.00166836
0.00166802
0.00166724
0.00166659
0.00166622
0.00166611
0.00166629
0.00166672
0.00166712
0.00166761
0.00166804
0.00166807
0.00166808
0.00166818
0.00166773
0.0016671
0.00166694
0.0016663
0.00166527
0.00166502
0.00166463
0.00166349
0.00166311
0.00166324
0.00166229
0.00166136
0.00166159
0.00166169
0.00166045
0.00165954
0.00165976
0.00166004
0.00165837
0.00165645
0.00165538
0.00165591
0.00165667
0.00165289
0.00164889
0.00164707
0.0016472
0.00164531
0.00164058
0.00163689
0.00163428
0.00163064
0.00162666
0.00162348
0.00162013
0.00161631
0.00161216
0.00160786
0.00160355
0.00159917
0.00159466
0.00159002
0.00158527
0.00158048
0.00157563
0.00157072
0.00156575
0.00156077
0.00155583
0.00155102
0.00154638
0.00154192
0.00153765
0.00153371
0.00153022
0.00152706
0.00152412
0.00152152
0.00151914
0.00151678
0.00151438
0.00167931
0.00168012
0.00168066
0.0016805
0.00168005
0.00167922
0.00167771
0.00167593
0.0016741
0.00167317
0.00167272
0.00167233
0.00167181
0.00167094
0.00166964
0.00166808
0.00166632
0.00166439
0.00166253
0.00166095
0.00165978
0.00165886
0.00165794
0.00165689
0.00165571
0.00165428
0.00165254
0.00165074
0.0016493
0.00164825
0.00164763
0.00164739
0.00164746
0.00164762
0.00164751
0.0016473
0.00164719
0.00164627
0.00164507
0.00164422
0.00164317
0.00164211
0.00164149
0.00164083
0.00164023
0.00164001
0.00163942
0.00163861
0.00163843
0.00163766
0.00163614
0.00163556
0.0016348
0.00163273
0.0016315
0.00163096
0.00162887
0.00162704
0.00162672
0.00162517
0.0016227
0.00162202
0.00162198
0.00161953
0.00161732
0.00161715
0.00161767
0.00161506
0.00161232
0.00161113
0.00161193
0.00161195
0.00160782
0.00160432
0.00160274
0.00160317
0.00160173
0.00159698
0.00159328
0.00159105
0.00158759
0.00158362
0.00158067
0.00157818
0.00157484
0.00157071
0.00156677
0.00156318
0.00155951
0.00155567
0.00155169
0.00154764
0.00154361
0.00153963
0.00153565
0.00153165
0.0015277
0.00152385
0.00152014
0.0015166
0.00151322
0.00150996
0.00150701
0.0015046
0.00150238
0.0015003
0.00149842
0.00149675
0.0014952
0.00149369
0.00167833
0.00167743
0.00167668
0.0016758
0.00167478
0.00167346
0.00167178
0.00166981
0.00166768
0.00166552
0.0016636
0.00166209
0.00166083
0.00165963
0.00165836
0.00165695
0.00165536
0.00165355
0.00165157
0.00164961
0.00164781
0.00164623
0.00164479
0.00164345
0.0016421
0.00164064
0.00163895
0.00163707
0.00163513
0.00163326
0.00163162
0.00163023
0.00162913
0.00162836
0.00162752
0.0016267
0.00162632
0.00162529
0.00162371
0.00162278
0.00162153
0.0016195
0.00161808
0.00161681
0.00161511
0.001614
0.0016129
0.0016112
0.00161031
0.00160943
0.00160727
0.00160597
0.00160538
0.00160283
0.00160064
0.00160003
0.00159774
0.00159478
0.00159379
0.00159226
0.00158887
0.00158705
0.00158669
0.00158369
0.00158046
0.00157977
0.00157985
0.00157633
0.00157301
0.00157177
0.00157264
0.0015712
0.00156684
0.00156378
0.00156249
0.00156316
0.00156125
0.00155649
0.00155312
0.00155138
0.00154821
0.0015442
0.00154129
0.00153942
0.00153671
0.00153267
0.0015289
0.00152584
0.00152314
0.00152012
0.00151664
0.001513
0.00150976
0.00150664
0.00150347
0.00150028
0.00149719
0.00149424
0.00149143
0.00148876
0.0014863
0.00148401
0.00148191
0.0014801
0.00147852
0.00147714
0.00147593
0.00147488
0.00147397
0.00147315
0.00167049
0.00166829
0.00166637
0.00166476
0.00166336
0.00166195
0.00166044
0.00165876
0.00165693
0.00165493
0.0016529
0.00165101
0.00164931
0.00164776
0.00164632
0.00164489
0.00164338
0.00164171
0.00163985
0.00163786
0.00163582
0.00163382
0.00163189
0.00163007
0.0016283
0.00162654
0.00162469
0.00162272
0.00162059
0.00161836
0.00161616
0.001614
0.00161193
0.00161026
0.00160861
0.0016069
0.00160578
0.00160444
0.00160245
0.00160114
0.00159988
0.00159735
0.0015953
0.00159384
0.00159137
0.00158926
0.00158782
0.00158542
0.00158349
0.00158239
0.0015799
0.00157771
0.00157689
0.00157441
0.00157151
0.00157049
0.00156841
0.00156488
0.00156315
0.00156175
0.00155806
0.00155537
0.00155453
0.0015515
0.00154774
0.00154636
0.00154567
0.00154174
0.00153815
0.00153695
0.00153739
0.00153446
0.00153003
0.00152739
0.00152656
0.00152713
0.00152401
0.00151941
0.00151663
0.00151545
0.00151247
0.0015084
0.00150553
0.00150404
0.00150201
0.00149816
0.00149455
0.00149179
0.00148973
0.00148788
0.00148487
0.00148154
0.00147873
0.00147622
0.00147378
0.00147135
0.00146901
0.0014668
0.00146471
0.00146276
0.00146098
0.00145938
0.00145795
0.00145672
0.0014557
0.00145488
0.00145422
0.00145371
0.00145337
0.0014532
0.00165914
0.00165705
0.00165502
0.00165316
0.00165149
0.00164995
0.00164845
0.00164691
0.00164528
0.00164352
0.00164163
0.0016397
0.00163778
0.00163593
0.00163418
0.00163249
0.00163081
0.00162907
0.00162722
0.00162523
0.00162311
0.0016209
0.00161866
0.00161644
0.00161425
0.00161207
0.00160989
0.00160766
0.00160532
0.00160285
0.00160031
0.0015977
0.00159504
0.00159262
0.00159027
0.00158772
0.00158574
0.00158388
0.00158138
0.00157945
0.00157786
0.00157512
0.00157263
0.00157091
0.00156813
0.00156524
0.0015634
0.00156069
0.00155779
0.00155615
0.0015536
0.00155058
0.00154913
0.00154686
0.00154347
0.00154176
0.00153996
0.00153626
0.00153382
0.00153246
0.00152891
0.00152562
0.00152432
0.0015215
0.00151749
0.00151551
0.0015143
0.00151035
0.00150667
0.00150537
0.00150496
0.00150114
0.00149693
0.00149469
0.00149444
0.0014941
0.00148974
0.00148569
0.00148358
0.00148286
0.00147981
0.00147571
0.00147298
0.00147181
0.00147034
0.00146665
0.00146315
0.00146067
0.00145917
0.00145836
0.00145579
0.00145264
0.00145011
0.00144806
0.0014462
0.00144442
0.00144271
0.00144109
0.00143958
0.0014382
0.00143696
0.00143589
0.00143499
0.00143426
0.00143373
0.00143339
0.00143324
0.00143322
0.00143336
0.00143376
0.00164881
0.00164709
0.00164527
0.00164338
0.00164151
0.0016397
0.00163797
0.00163632
0.00163471
0.00163307
0.00163137
0.00162957
0.00162768
0.00162571
0.00162371
0.00162172
0.00161975
0.0016178
0.00161584
0.00161383
0.00161173
0.00160951
0.00160717
0.00160473
0.00160222
0.00159968
0.00159712
0.00159455
0.00159195
0.0015893
0.00158657
0.00158375
0.00158082
0.00157781
0.00157486
0.00157191
0.00156879
0.00156608
0.00156354
0.0015605
0.00155791
0.00155578
0.00155278
0.00154988
0.00154781
0.00154485
0.00154146
0.00153923
0.00153639
0.00153282
0.00153056
0.00152798
0.00152437
0.00152211
0.00151995
0.00151629
0.00151377
0.00151205
0.00150848
0.00150536
0.00150384
0.00150069
0.00149694
0.0014952
0.00149275
0.00148867
0.00148617
0.00148475
0.00148102
0.00147725
0.00147575
0.00147465
0.00147054
0.0014666
0.00146474
0.00146485
0.00146298
0.00145824
0.00145486
0.00145339
0.00145289
0.00144954
0.00144552
0.00144303
0.0014422
0.00144111
0.0014375
0.00143411
0.00143188
0.00143104
0.00143094
0.00142854
0.00142557
0.00142336
0.00142173
0.00142033
0.00141905
0.00141783
0.00141669
0.00141566
0.00141474
0.00141395
0.00141333
0.00141287
0.0014126
0.0014125
0.00141255
0.00141284
0.00141334
0.00141402
0.0014149
0.00163634
0.00163469
0.001633
0.00163124
0.00162944
0.00162761
0.00162579
0.001624
0.00162223
0.00162048
0.0016187
0.00161686
0.00161493
0.00161292
0.00161082
0.00160867
0.00160648
0.00160427
0.00160205
0.00159979
0.00159747
0.00159506
0.00159255
0.00158993
0.0015872
0.00158439
0.00158152
0.0015786
0.00157564
0.00157265
0.0015696
0.00156647
0.00156326
0.00155997
0.00155664
0.00155324
0.00154977
0.00154649
0.00154328
0.00153978
0.00153664
0.00153387
0.00153048
0.00152717
0.00152469
0.00152148
0.00151777
0.00151519
0.00151221
0.00150826
0.00150548
0.00150281
0.00149889
0.0014959
0.00149364
0.00148994
0.00148663
0.00148471
0.00148144
0.00147771
0.0014758
0.00147313
0.00146912
0.00146677
0.00146475
0.00146085
0.00145779
0.00145627
0.00145299
0.00144912
0.00144731
0.00144591
0.00144191
0.00143817
0.00143657
0.00143648
0.00143356
0.00142905
0.00142623
0.00142536
0.00142479
0.00142102
0.00141721
0.00141509
0.00141471
0.00141373
0.00141016
0.00140701
0.00140506
0.00140445
0.00140452
0.00140257
0.00140004
0.0013982
0.00139689
0.00139584
0.00139492
0.00139409
0.00139334
0.0013927
0.00139218
0.0013918
0.00139159
0.00139153
0.00139161
0.00139192
0.00139246
0.0013932
0.00139416
0.00139531
0.00139664
0.00139814
0.0013998
0.0016238
0.00162211
0.00162041
0.00161867
0.00161689
0.00161505
0.00161318
0.00161129
0.00160938
0.00160747
0.00160554
0.00160357
0.00160154
0.00159942
0.00159721
0.00159492
0.00159255
0.00159013
0.00158765
0.00158512
0.00158255
0.0015799
0.00157717
0.00157433
0.00157139
0.00156835
0.00156522
0.00156201
0.00155874
0.00155542
0.00155205
0.00154862
0.00154512
0.00154156
0.00153794
0.00153423
0.00153047
0.00152677
0.00152305
0.0015192
0.00151562
0.00151221
0.00150841
0.00150479
0.0015018
0.00149825
0.00149429
0.00149141
0.00148822
0.00148403
0.00148088
0.00147806
0.00147402
0.00147044
0.00146798
0.0014644
0.00146044
0.00145813
0.00145518
0.00145106
0.00144851
0.00144624
0.00144229
0.00143917
0.00143736
0.00143399
0.00143033
0.00142853
0.00142592
0.00142206
0.00141974
0.00141833
0.00141476
0.0014111
0.00140952
0.00140906
0.00140572
0.00140155
0.00139923
0.0013989
0.001398
0.00139391
0.00139043
0.00138877
0.00138887
0.0013876
0.0013842
0.00138153
0.00137987
0.00137901
0.00137861
0.00137756
0.00137589
0.00137444
0.00137338
0.00137257
0.00137191
0.00137138
0.00137097
0.00137068
0.00137055
0.00137052
0.00137065
0.00137098
0.00137151
0.00137224
0.0013732
0.00137437
0.00137574
0.00137729
0.00137902
0.0013809
0.00138292
0.00161464
0.00161285
0.00161107
0.0016093
0.00160753
0.00160573
0.0016039
0.00160202
0.00160009
0.0015981
0.00159607
0.00159401
0.00159191
0.00158977
0.00158757
0.00158529
0.00158294
0.00158049
0.00157796
0.00157533
0.00157263
0.00156986
0.00156703
0.00156413
0.00156115
0.00155808
0.00155491
0.00155165
0.00154829
0.00154484
0.00154131
0.00153772
0.00153406
0.00153035
0.00152658
0.00152276
0.00151888
0.00151494
0.00151095
0.00150694
0.00150288
0.00149878
0.00149482
0.00149091
0.00148679
0.00148291
0.00147939
0.00147547
0.00147135
0.00146813
0.00146467
0.00146032
0.00145688
0.0014539
0.00144982
0.00144581
0.00144313
0.00143968
0.00143533
0.00143253
0.0014298
0.00142564
0.00142234
0.00142018
0.00141666
0.00141282
0.00141077
0.0014081
0.00140417
0.00140164
0.00139974
0.00139624
0.0013932
0.00139172
0.00138889
0.00138532
0.00138344
0.0013827
0.00137945
0.0013756
0.0013736
0.00137361
0.00137229
0.00136825
0.00136512
0.00136379
0.00136408
0.00136249
0.00135955
0.00135738
0.00135599
0.00135506
0.00135439
0.00135364
0.00135267
0.00135174
0.00135099
0.00135044
0.00135005
0.00134981
0.00134971
0.00134973
0.0013499
0.00135026
0.00135079
0.00135151
0.00135244
0.00135357
0.00135492
0.00135647
0.0013582
0.00136011
0.00136216
0.00136435
0.00136666
0.00160177
0.00159993
0.00159809
0.00159623
0.00159436
0.00159246
0.00159054
0.00158856
0.00158653
0.00158444
0.00158228
0.00158007
0.0015778
0.00157548
0.00157309
0.00157064
0.0015681
0.00156548
0.00156276
0.00155995
0.00155705
0.00155407
0.001551
0.00154785
0.00154463
0.00154133
0.00153794
0.00153446
0.00153089
0.00152724
0.00152349
0.00151967
0.00151578
0.00151184
0.00150784
0.0015038
0.0014997
0.00149555
0.00149137
0.00148714
0.00148287
0.00147858
0.00147435
0.0014701
0.00146578
0.00146165
0.00145768
0.00145346
0.00144925
0.00144566
0.00144188
0.00143745
0.0014338
0.00143059
0.00142649
0.00142221
0.0014193
0.00141593
0.00141145
0.00140815
0.0014055
0.00140159
0.00139761
0.00139528
0.00139227
0.00138811
0.00138538
0.00138326
0.00137964
0.00137625
0.00137447
0.00137181
0.00136827
0.00136614
0.00136426
0.00136107
0.00135858
0.00135749
0.00135482
0.00135139
0.00134936
0.00134928
0.00134769
0.00134421
0.00134157
0.00134018
0.00133976
0.00133859
0.00133654
0.00133479
0.00133356
0.00133266
0.00133196
0.00133134
0.00133075
0.00133023
0.00132984
0.0013296
0.00132951
0.00132953
0.00132971
0.00133007
0.0013306
0.00133132
0.00133221
0.00133331
0.0013346
0.00133609
0.00133778
0.00133965
0.00134169
0.00134388
0.0013462
0.00134864
0.00135118
0.00135381
0.00160143
0.0015996
0.00159778
0.00159596
0.00159415
0.00159233
0.00159049
0.00158863
0.00158674
0.00158482
0.00158287
0.00158089
0.00157887
0.00157682
0.00157472
0.00157256
0.00157034
0.00156805
0.00156568
0.00156325
0.00156075
0.00155818
0.00155553
0.00155281
0.00155
0.0015471
0.00154411
0.00154102
0.00153784
0.00153457
0.00153121
0.00152778
0.00152426
0.00152067
0.00151699
0.00151324
0.0015094
0.00150548
0.00150148
0.00149741
0.00149329
0.00148912
0.0014849
0.00148064
0.00147633
0.00147199
0.00146761
0.0014632
0.00145878
0.00145437
0.00144994
0.00144549
0.00144116
0.00143688
0.00143248
0.00142819
0.00142427
0.0014202
0.00141575
0.00141192
0.00140846
0.00140431
0.00139991
0.00139677
0.00139343
0.00138899
0.00138524
0.00138258
0.00137899
0.00137463
0.00137185
0.00136925
0.00136528
0.00136176
0.00135974
0.0013568
0.00135294
0.00135054
0.0013487
0.0013454
0.00134237
0.00134075
0.00133846
0.00133555
0.00133364
0.00133177
0.0013291
0.00132688
0.00132581
0.00132442
0.00132209
0.00131991
0.00131834
0.00131731
0.00131633
0.00131504
0.00131375
0.00131271
0.00131193
0.00131132
0.00131086
0.00131052
0.00131031
0.00131023
0.00131027
0.00131046
0.00131081
0.00131131
0.00131199
0.00131285
0.00131389
0.00131512
0.00131654
0.00131816
0.00131996
0.00132193
0.00132407
0.00132636
0.00132878
0.00133131
0.00133395
0.00133668
0.00133951
0.00158846
0.0015866
0.00158475
0.00158288
0.00158101
0.00157912
0.00157721
0.00157527
0.00157329
0.00157128
0.00156923
0.00156713
0.00156499
0.0015628
0.00156055
0.00155825
0.00155588
0.00155344
0.00155093
0.00154834
0.00154567
0.00154292
0.00154009
0.00153719
0.0015342
0.00153112
0.00152795
0.00152469
0.00152134
0.0015179
0.00151437
0.00151076
0.00150707
0.0015033
0.00149946
0.00149555
0.00149156
0.00148751
0.00148338
0.00147919
0.00147494
0.00147066
0.00146632
0.00146194
0.00145752
0.00145308
0.00144861
0.00144412
0.00143962
0.00143512
0.0014306
0.00142608
0.00142163
0.00141719
0.00141271
0.00140835
0.00140418
0.00139992
0.0013955
0.00139152
0.00138781
0.00138362
0.00137922
0.00137586
0.00137248
0.00136816
0.0013641
0.00136131
0.00135799
0.00135359
0.00135027
0.00134786
0.00134437
0.00134032
0.00133792
0.0013356
0.00133192
0.00132873
0.00132705
0.00132453
0.0013211
0.00131885
0.00131734
0.00131472
0.00131212
0.00131028
0.0013084
0.00130632
0.00130459
0.00130317
0.0013016
0.00129993
0.00129843
0.00129722
0.00129622
0.00129528
0.00129437
0.00129361
0.00129302
0.0012926
0.00129233
0.00129221
0.00129222
0.00129238
0.00129271
0.00129321
0.00129385
0.00129466
0.00129564
0.00129679
0.00129813
0.00129965
0.00130135
0.00130323
0.00130529
0.0013075
0.00130986
0.00131235
0.00131496
0.00131768
0.0013205
0.00132342
0.00132644
0.00157541
0.00157351
0.0015716
0.00156967
0.00156772
0.00156575
0.00156374
0.00156171
0.00155963
0.00155751
0.00155534
0.00155312
0.00155085
0.00154852
0.00154613
0.00154368
0.00154116
0.00153857
0.00153591
0.00153316
0.00153034
0.00152743
0.00152444
0.00152137
0.00151822
0.00151499
0.00151167
0.00150826
0.00150477
0.00150119
0.00149752
0.00149378
0.00148996
0.00148606
0.0014821
0.00147808
0.00147399
0.00146983
0.00146562
0.00146136
0.00145705
0.0014527
0.0014483
0.00144386
0.00143939
0.00143491
0.0014304
0.00142588
0.00142135
0.00141682
0.00141229
0.00140776
0.00140327
0.00139878
0.00139429
0.00138989
0.0013856
0.00138125
0.00137688
0.00137279
0.00136889
0.00136469
0.00136038
0.00135681
0.00135334
0.00134919
0.00134497
0.001342
0.00133884
0.00133465
0.00133084
0.00132841
0.00132537
0.00132125
0.00131824
0.00131624
0.00131313
0.00130945
0.00130729
0.0013055
0.00130237
0.00129945
0.00129785
0.00129591
0.00129325
0.00129109
0.00128941
0.00128768
0.00128593
0.00128441
0.00128306
0.00128174
0.00128048
0.00127936
0.00127843
0.00127764
0.00127698
0.00127646
0.00127609
0.00127588
0.00127582
0.00127588
0.00127611
0.00127652
0.00127711
0.00127786
0.00127877
0.00127985
0.00128109
0.0012825
0.00128409
0.00128586
0.0012878
0.0012899
0.00129217
0.00129458
0.00129713
0.0012998
0.00130259
0.0013055
0.00130851
0.00131163
0.00131487
0.00156229
0.00156033
0.00155835
0.00155634
0.0015543
0.00155224
0.00155013
0.00154799
0.0015458
0.00154356
0.00154127
0.00153893
0.00153653
0.00153407
0.00153154
0.00152895
0.00152629
0.00152356
0.00152075
0.00151786
0.0015149
0.00151186
0.00150873
0.00150553
0.00150224
0.00149888
0.00149544
0.00149192
0.00148831
0.00148463
0.00148087
0.00147704
0.00147314
0.00146917
0.00146514
0.00146105
0.0014569
0.00145271
0.00144846
0.00144418
0.00143985
0.00143548
0.00143107
0.00142664
0.00142218
0.0014177
0.00141322
0.00140872
0.00140422
0.00139972
0.00139522
0.00139073
0.00138627
0.00138181
0.00137737
0.00137299
0.00136867
0.00136433
0.00136003
0.0013559
0.00135188
0.00134772
0.00134353
0.00133981
0.00133625
0.00133225
0.00132805
0.00132485
0.00132178
0.00131788
0.00131377
0.00131114
0.00130844
0.0013046
0.00130103
0.00129899
0.00129645
0.00129277
0.00128996
0.00128842
0.00128595
0.00128275
0.0012806
0.00127903
0.00127678
0.0012745
0.0012727
0.00127114
0.00126958
0.00126812
0.00126683
0.00126567
0.00126461
0.00126366
0.00126287
0.00126223
0.00126174
0.00126141
0.00126125
0.00126122
0.00126131
0.00126158
0.00126204
0.00126267
0.00126347
0.00126444
0.00126558
0.00126687
0.00126834
0.00126998
0.00127179
0.00127377
0.00127591
0.00127821
0.00128066
0.00128325
0.00128598
0.00128884
0.00129181
0.00129491
0.00129813
0.00130148
0.00130497
0.00130862
0.00131242
0.00154912
0.00154709
0.00154502
0.00154293
0.0015408
0.00153863
0.00153642
0.00153417
0.00153187
0.00152952
0.00152711
0.00152465
0.00152212
0.00151953
0.00151688
0.00151416
0.00151138
0.00150852
0.00150559
0.00150259
0.00149951
0.00149636
0.00149313
0.00148983
0.00148645
0.00148299
0.00147946
0.00147587
0.0014722
0.00146846
0.00146465
0.00146078
0.00145684
0.00145284
0.00144879
0.00144469
0.00144055
0.00143636
0.00143214
0.00142787
0.00142357
0.00141924
0.00141488
0.0014105
0.0014061
0.00140169
0.00139727
0.00139285
0.00138843
0.00138401
0.0013796
0.0013752
0.00137081
0.00136644
0.00136209
0.00135779
0.00135352
0.00134927
0.00134505
0.00134095
0.00133692
0.00133283
0.00132876
0.00132497
0.00132135
0.0013175
0.00131341
0.00131002
0.00130697
0.00130334
0.00129916
0.00129626
0.00129375
0.00129028
0.00128641
0.00128408
0.00128194
0.0012786
0.00127531
0.00127354
0.00127167
0.00126865
0.00126601
0.00126432
0.00126251
0.00126039
0.0012585
0.00125692
0.00125549
0.00125415
0.00125293
0.00125186
0.00125093
0.00125013
0.00124948
0.00124898
0.00124865
0.00124848
0.00124845
0.00124854
0.00124882
0.00124929
0.00124993
0.00125075
0.00125173
0.00125288
0.0012542
0.00125569
0.00125735
0.00125918
0.00126118
0.00126334
0.00126566
0.00126814
0.00127077
0.00127354
0.00127645
0.0012795
0.00128268
0.001286
0.00128946
0.00129307
0.00129684
0.00130077
0.00130489
0.00153594
0.00153382
0.00153167
0.00152948
0.00152726
0.00152499
0.00152268
0.00152032
0.00151792
0.00151546
0.00151294
0.00151037
0.00150774
0.00150504
0.00150228
0.00149946
0.00149658
0.00149362
0.0014906
0.00148751
0.00148435
0.00148112
0.00147782
0.00147445
0.00147101
0.00146751
0.00146394
0.00146031
0.00145662
0.00145286
0.00144905
0.00144519
0.00144127
0.0014373
0.00143328
0.00142922
0.00142513
0.001421
0.00141684
0.00141264
0.00140842
0.00140418
0.00139992
0.00139564
0.00139135
0.00138706
0.00138276
0.00137845
0.00137415
0.00136986
0.00136558
0.00136131
0.00135705
0.00135281
0.00134859
0.00134441
0.00134026
0.00133612
0.00133203
0.00132801
0.00132404
0.00132007
0.00131613
0.00131235
0.00130871
0.00130499
0.00130106
0.00129756
0.00129451
0.00129108
0.001287
0.00128387
0.00128144
0.00127826
0.00127434
0.00127169
0.00126974
0.00126678
0.00126328
0.00126113
0.00125956
0.00125692
0.00125407
0.00125209
0.00125044
0.00124857
0.00124671
0.0012451
0.0012437
0.00124242
0.00124129
0.00124029
0.00123943
0.00123873
0.00123819
0.00123782
0.00123761
0.00123756
0.0012376
0.00123782
0.00123825
0.00123888
0.00123968
0.00124064
0.00124177
0.00124308
0.00124455
0.0012462
0.00124803
0.00125002
0.00125218
0.00125451
0.001257
0.00125964
0.00126244
0.0012654
0.0012685
0.00127175
0.00127516
0.00127872
0.00128244
0.00128633
0.00129039
0.00129463
0.00129906
0.00152494
0.00152278
0.00152058
0.00151835
0.00151607
0.00151376
0.0015114
0.00150899
0.00150654
0.00150404
0.00150149
0.00149888
0.00149622
0.0014935
0.00149072
0.00148788
0.00148498
0.00148202
0.001479
0.00147592
0.00147277
0.00146957
0.0014663
0.00146297
0.00145958
0.00145613
0.00145262
0.00144906
0.00144544
0.00144177
0.00143805
0.00143428
0.00143047
0.00142662
0.00142272
0.00141879
0.00141483
0.00141083
0.0014068
0.00140275
0.00139867
0.00139458
0.00139048
0.00138636
0.00138223
0.00137809
0.00137395
0.00136981
0.00136567
0.00136153
0.0013574
0.00135328
0.00134918
0.00134509
0.00134102
0.00133696
0.00133294
0.00132894
0.00132496
0.00132102
0.00131712
0.00131327
0.00130944
0.00130564
0.00130193
0.00129835
0.00129474
0.00129097
0.00128746
0.00128442
0.00128112
0.00127722
0.00127397
0.00127153
0.00126854
0.00126474
0.00126183
0.00125989
0.00125723
0.00125377
0.00125126
0.00124971
0.00124741
0.00124462
0.00124242
0.00124073
0.00123901
0.00123724
0.00123563
0.0012342
0.00123294
0.00123184
0.00123088
0.00123006
0.00122941
0.00122894
0.00122866
0.00122855
0.00122855
0.00122866
0.00122898
0.00122952
0.00123026
0.00123117
0.00123224
0.00123349
0.00123492
0.00123652
0.00123831
0.00124026
0.0012424
0.0012447
0.00124718
0.00124982
0.00125263
0.0012556
0.00125873
0.00126203
0.00126549
0.00126911
0.0012729
0.00127686
0.001281
0.00128532
0.00128983
0.00129451
0.00151195
0.00150971
0.00150743
0.00150512
0.00150277
0.00150037
0.00149794
0.00149545
0.00149292
0.00149035
0.00148772
0.00148504
0.00148232
0.00147954
0.0014767
0.00147381
0.00147087
0.00146787
0.00146482
0.00146172
0.00145856
0.00145534
0.00145207
0.00144876
0.00144539
0.00144197
0.0014385
0.00143499
0.00143143
0.00142783
0.00142419
0.00142052
0.0014168
0.00141306
0.00140929
0.00140548
0.00140165