/*--------------------------------*- C++ -*----------------------------------*\
| =========                 |                                                 |
| \\      /  F ield         | OpenFOAM: The Open Source CFD Toolbox           |
|  \\    /   O peration     | Version:  v1706                                 |
|   \\  /    A nd           | Web:      www.OpenFOAM.com                      |
|    \\/     M anipulation  |                                                 |
\*---------------------------------------------------------------------------*/
FoamFile
{
    version     2.0;
    format      ascii;
    class       volScalarField;
    location    "3.4e-05";
    object      Tov;
}
// * * * * * * * * * * * * * * * * * * * * * * * * * * * * * * * * * * * * * //

dimensions      [0 0 0 1 0 0 0];


internalField   nonuniform List<scalar> 
29871
(
148.435
148.936
149.501
150.132
150.829
151.588
152.406
153.28
154.215
155.235
156.366
157.613
158.963
160.4
161.903
163.461
165.06
166.684
168.318
169.946
171.553
173.133
174.71
176.452
178.61
181.083
183.738
186.46
189.166
191.794
194.302
196.661
198.853
200.875
202.729
204.425
205.972
207.377
208.645
209.781
210.786
211.664
212.417
213.05
213.566
213.97
214.268
214.469
214.592
214.592
214.538
214.43
214.28
214.072
213.813
213.498
213.151
212.776
212.374
211.942
211.487
211.007
210.494
209.971
209.442
208.897
208.337
207.774
207.205
206.62
206.013
205.38
204.713
204.013
203.282
202.522
201.737
200.927
200.092
199.231
198.345
197.431
196.486
195.51
194.497
193.444
192.347
191.201
190.003
188.746
187.427
186.04
184.578
183.031
181.389
179.639
177.786
175.843
173.819
171.724
169.624
167.811
166.422
165.203
164.014
167.819
170.518
173.462
176.628
179.984
183.497
187.131
190.861
194.693
198.758
203.33
208.369
213.763
219.372
225.055
230.682
236.142
241.348
246.235
250.761
254.901
258.649
262.01
264.969
267.492
269.604
271.338
272.734
273.829
274.659
275.254
275.651
275.895
276.038
276.12
276.168
276.198
276.222
276.233
276.228
276.208
276.17
276.113
276.033
275.921
275.769
275.575
275.34
275.064
274.744
274.384
273.989
273.563
273.102
272.631
272.151
271.635
271.113
270.588
270.049
269.51
268.976
268.435
267.902
267.374
266.85
266.338
265.845
265.35
264.855
264.369
263.882
263.387
262.885
262.377
261.866
261.351
260.834
260.315
259.793
259.27
258.743
258.212
257.675
257.131
256.578
256.013
255.434
254.839
254.227
253.596
252.946
252.278
251.597
250.913
250.236
249.569
248.895
248.168
247.318
246.231
244.724
242.707
240.234
237.368
206.364
212.222
218.596
225.349
232.31
239.299
246.151
252.728
258.928
264.673
269.89
274.504
278.54
282.043
285.067
287.673
289.917
291.845
293.485
294.856
295.964
296.814
297.428
297.85
298.129
298.299
298.379
298.359
298.29
298.148
297.923
297.604
297.188
296.694
296.141
295.552
294.944
294.329
293.718
293.118
292.535
291.973
291.435
290.921
290.431
289.962
289.509
289.064
288.625
288.186
287.74
287.284
286.819
286.338
285.844
285.336
284.819
284.286
283.735
283.175
282.622
282.03
281.469
280.96
280.352
279.77
279.255
278.745
278.172
277.615
277.114
276.612
276.095
275.579
275.074
274.579
274.09
273.607
273.132
272.666
272.21
271.763
271.327
270.901
270.487
270.085
269.699
269.33
268.981
268.655
268.356
268.088
267.857
267.669
267.531
267.446
267.415
267.424
267.461
267.492
267.488
267.438
267.281
266.982
266.537
265.95
273.488
279.038
283.929
288.191
291.868
295.016
297.69
299.946
301.83
303.379
304.623
305.587
306.297
306.79
307.115
307.332
307.491
307.624
307.743
307.847
307.922
307.911
307.835
307.683
307.47
307.215
306.926
306.609
306.278
305.946
305.625
305.322
305.025
304.702
304.328
303.894
303.401
302.862
302.288
301.693
301.086
300.477
299.873
299.279
298.701
298.141
297.6
297.076
296.568
296.073
295.585
295.099
294.613
294.123
293.621
293.108
292.581
292.032
291.458
290.865
290.28
289.648
289.039
288.486
287.826
287.187
286.614
286.042
285.397
284.756
284.177
283.597
282.996
282.394
281.809
281.239
280.681
280.131
279.592
279.065
278.549
278.046
277.555
277.078
276.616
276.171
275.746
275.342
274.963
274.614
274.296
274.015
273.777
273.587
273.451
273.366
273.329
273.3
273.26
273.211
273.157
273.093
273.011
272.902
272.764
272.599
306.475
308.197
309.596
310.711
311.578
312.227
312.704
313.058
313.333
313.556
313.738
313.878
313.972
313.968
313.906
313.764
313.562
313.324
313.072
312.829
312.615
312.45
312.345
312.285
312.217
312.104
311.928
311.689
311.398
311.071
310.72
310.366
310.034
309.731
309.437
309.13
308.79
308.408
307.978
307.504
306.99
306.445
305.876
305.292
304.7
304.104
303.511
302.929
302.352
301.784
301.232
300.688
300.144
299.609
299.082
298.546
298.003
297.466
296.916
296.341
295.75
295.165
294.567
293.946
293.352
292.716
292.101
291.518
290.963
290.26
289.583
288.985
288.397
287.759
287.109
286.499
285.914
285.337
284.766
284.21
283.667
283.136
282.616
282.11
281.619
281.145
280.688
280.252
279.839
279.452
279.091
278.761
278.462
278.196
277.966
277.767
277.595
277.442
277.302
277.166
277.023
276.869
276.705
276.533
276.354
276.168
275.978
317.359
317.614
317.825
317.987
318.097
318.106
318.065
317.973
317.843
317.695
317.543
317.394
317.261
317.145
317.051
316.955
316.819
316.625
316.382
316.113
315.833
315.57
315.354
315.197
315.082
314.975
314.843
314.672
314.455
314.195
313.894
313.565
313.229
312.901
312.594
312.316
312.049
311.772
311.477
311.152
310.793
310.402
309.978
309.524
309.051
308.559
308.047
307.533
307.014
306.483
305.955
305.44
304.911
304.377
303.863
303.341
302.799
302.271
301.749
301.202
300.629
300.061
299.505
298.918
298.291
297.678
297.088
296.513
295.987
295.253
294.564
293.948
293.362
292.674
291.952
291.311
290.707
290.089
289.477
288.887
288.307
287.73
287.161
286.606
286.066
285.541
285.032
284.541
284.07
283.622
283.196
282.794
282.417
282.064
281.733
281.422
281.124
280.837
280.56
280.3
280.054
279.817
279.585
279.357
279.131
278.905
278.68
321.463
321.426
321.348
321.243
321.131
321.027
320.918
320.829
320.76
320.702
320.62
320.491
320.329
320.13
319.91
319.696
319.495
319.337
319.203
319.066
318.908
318.719
318.494
318.243
317.978
317.716
317.482
317.307
317.166
317.052
316.944
316.822
316.672
316.486
316.265
316.023
315.762
315.487
315.23
314.994
314.763
314.536
314.306
314.055
313.784
313.485
313.154
312.799
312.431
312.014
311.581
311.155
310.691
310.213
309.749
309.272
308.764
308.274
307.8
307.268
306.751
306.261
305.762
305.194
304.652
304.133
303.615
302.986
302.394
301.828
301.295
300.791
300.051
299.386
298.782
298.21
297.508
296.738
296.069
295.456
294.805
294.156
293.553
292.946
292.327
291.711
291.107
290.521
289.949
289.389
288.842
288.311
287.799
287.304
286.826
286.364
285.919
285.489
285.072
284.665
284.267
283.878
283.502
283.143
282.798
282.461
282.141
281.837
281.541
281.254
324.012
323.954
323.856
323.719
323.553
323.369
323.167
322.979
322.822
322.703
322.59
322.464
322.318
322.143
321.941
321.724
321.503
321.295
321.113
320.957
320.819
320.678
320.523
320.347
320.154
319.946
319.734
319.541
319.382
319.255
319.154
319.067
318.978
318.877
318.749
318.599
318.436
318.221
318.003
317.801
317.592
317.385
317.193
316.994
316.784
316.571
316.325
316.058
315.789
315.471
315.117
314.774
314.407
313.976
313.566
313.17
312.694
312.234
311.81
311.315
310.813
310.344
309.895
309.324
308.81
308.318
307.863
307.233
306.667
306.131
305.64
305.127
304.407
303.791
303.21
302.656
301.976
301.191
300.511
299.895
299.223
298.548
297.92
297.309
296.66
295.994
295.354
294.741
294.132
293.525
292.926
292.339
291.768
291.211
290.666
290.131
289.608
289.097
288.597
288.109
287.629
287.157
286.695
286.258
285.834
285.421
285.025
284.647
284.285
283.935
325.995
325.88
325.761
325.624
325.464
325.281
325.08
324.875
324.676
324.501
324.353
324.226
324.105
323.978
323.837
323.678
323.505
323.325
323.15
322.993
322.855
322.73
322.611
322.488
322.355
322.208
322.046
321.879
321.721
321.58
321.464
321.371
321.292
321.223
321.146
321.057
320.967
320.832
320.671
320.522
320.356
320.159
319.987
319.818
319.628
319.45
319.263
319.042
318.829
318.599
318.303
318.019
317.745
317.365
317.001
316.672
316.247
315.812
315.42
314.988
314.489
314.035
313.623
313.07
312.568
312.099
311.659
311.032
310.494
309.985
309.534
308.956
308.285
307.72
307.16
306.634
305.943
305.182
304.521
303.91
303.222
302.526
301.883
301.269
300.609
299.904
299.238
298.607
297.986
297.348
296.699
296.06
295.45
294.851
294.256
293.671
293.095
292.529
291.973
291.427
290.893
290.368
289.852
289.351
288.867
288.399
287.947
287.511
287.09
286.681
327.777
327.618
327.484
327.362
327.24
327.106
326.959
326.8
326.634
326.47
326.32
326.189
326.075
325.97
325.867
325.756
325.633
325.499
325.358
325.218
325.086
324.966
324.857
324.755
324.655
324.551
324.438
324.314
324.184
324.056
323.939
323.836
323.748
323.681
323.618
323.552
323.497
323.423
323.315
323.214
323.104
322.936
322.784
322.647
322.464
322.293
322.14
321.939
321.744
321.566
321.315
321.064
320.842
320.525
320.194
319.903
319.543
319.129
318.755
318.38
317.896
317.451
317.054
316.537
316.031
315.569
315.126
314.52
313.996
313.504
313.058
312.42
311.798
311.269
310.722
310.208
309.477
308.77
308.138
307.538
306.832
306.12
305.474
304.856
304.199
303.468
302.785
302.145
301.512
300.874
300.181
299.501
298.86
298.236
297.616
297.002
296.395
295.797
295.207
294.625
294.052
293.49
292.937
292.398
291.873
291.363
290.867
290.385
289.918
289.462
329.716
329.562
329.426
329.307
329.2
329.096
328.99
328.875
328.752
328.622
328.492
328.37
328.26
328.162
328.073
327.989
327.903
327.811
327.711
327.606
327.499
327.396
327.3
327.212
327.13
327.051
326.972
326.887
326.794
326.695
326.596
326.5
326.411
326.338
326.274
326.208
326.161
326.114
326.038
325.969
325.899
325.773
325.647
325.536
325.374
325.205
325.065
324.88
324.682
324.517
324.3
324.057
323.849
323.586
323.273
322.995
322.693
322.299
321.936
321.597
321.141
320.699
320.308
319.826
319.314
318.849
318.403
317.818
317.292
316.8
316.333
315.682
315.093
314.575
314.041
313.486
312.736
312.088
311.478
310.885
310.152
309.435
308.794
308.175
307.523
306.771
306.078
305.439
304.8
304.168
303.437
302.728
302.071
301.435
300.805
300.177
299.554
298.936
298.325
297.72
297.123
296.535
295.956
295.389
294.835
294.294
293.766
293.247
292.745
292.255
331.943
331.818
331.691
331.569
331.456
331.356
331.266
331.181
331.098
331.011
330.92
330.825
330.73
330.639
330.556
330.481
330.415
330.353
330.293
330.231
330.164
330.093
330.02
329.948
329.879
329.816
329.757
329.701
329.644
329.584
329.517
329.446
329.37
329.294
329.223
329.157
329.09
329.04
328.993
328.928
328.871
328.82
328.724
328.62
328.53
328.392
328.229
328.097
327.925
327.719
327.549
327.349
327.1
326.883
326.651
326.344
326.061
325.789
325.418
325.054
324.728
324.306
323.861
323.466
323.018
322.501
322.027
321.582
321.013
320.475
319.977
319.485
318.839
318.264
317.739
317.227
316.583
315.861
315.253
314.652
314.055
313.293
312.581
311.949
311.329
310.674
309.902
309.207
308.571
307.927
307.298
306.533
305.813
305.152
304.514
303.879
303.243
302.609
301.979
301.354
300.734
300.12
299.513
298.915
298.328
297.751
297.185
296.636
296.097
295.569
295.051
334.14
334.05
333.958
333.865
333.775
333.691
333.616
333.55
333.489
333.432
333.375
333.317
333.258
333.198
333.142
333.09
333.045
333.006
332.973
332.941
332.909
332.875
332.838
332.798
332.758
332.719
332.683
332.648
332.614
332.579
332.54
332.496
332.446
332.39
332.332
332.271
332.208
332.152
332.098
332.032
331.974
331.921
331.837
331.742
331.662
331.539
331.384
331.255
331.092
330.88
330.699
330.503
330.244
330.007
329.779
329.474
329.171
328.9
328.548
328.17
327.836
327.444
326.99
326.577
326.158
325.642
325.151
324.702
324.152
323.596
323.084
322.578
321.939
321.361
320.819
320.303
319.612
318.925
318.333
317.732
317.113
316.325
315.628
315.004
314.385
313.706
312.92
312.227
311.586
310.932
310.293
309.536
308.818
308.153
307.509
306.867
306.225
305.583
304.943
304.307
303.675
303.048
302.428
301.815
301.212
300.623
300.044
299.477
298.921
298.376
297.84
297.312
296.791
336.482
336.421
336.361
336.301
336.243
336.187
336.137
336.094
336.057
336.027
336.001
335.977
335.954
335.931
335.909
335.89
335.874
335.862
335.856
335.854
335.854
335.854
335.852
335.847
335.84
335.831
335.821
335.81
335.799
335.786
335.769
335.748
335.721
335.686
335.644
335.594
335.539
335.481
335.42
335.35
335.284
335.216
335.127
335.032
334.945
334.822
334.669
334.538
334.373
334.156
333.963
333.759
333.492
333.229
332.988
332.681
332.347
332.056
331.713
331.312
330.95
330.576
330.114
329.671
329.259
328.755
328.237
327.77
327.245
326.669
326.131
325.619
324.99
324.394
323.83
323.296
322.594
321.924
321.333
320.736
320.077
319.277
318.598
317.969
317.353
316.632
315.85
315.158
314.503
313.837
313.169
312.462
311.755
311.079
310.422
309.771
309.12
308.47
307.822
307.177
306.537
305.898
305.27
304.65
304.039
303.438
302.849
302.271
301.703
301.145
300.595
300.052
299.513
339.062
339.013
338.972
338.937
338.907
338.88
338.856
338.834
338.816
338.803
338.797
338.797
338.802
338.811
338.823
338.838
338.854
338.871
338.89
338.912
338.937
338.965
338.996
339.027
339.058
339.087
339.113
339.135
339.153
339.168
339.18
339.187
339.19
339.187
339.178
339.16
339.132
339.094
339.046
338.99
338.924
338.849
338.77
338.684
338.581
338.475
338.366
338.23
338.069
337.923
337.745
337.519
337.309
337.089
336.81
336.518
336.255
335.937
335.572
335.247
334.898
334.476
334.072
333.691
333.228
332.746
332.31
331.823
331.277
330.769
330.268
329.68
329.107
328.577
327.967
327.343
326.753
326.198
325.498
324.83
324.225
323.63
322.932
322.141
321.465
320.818
320.197
319.447
318.682
317.987
317.318
316.645
315.963
315.27
314.573
313.891
313.222
312.561
311.902
311.246
310.591
309.938
309.293
308.652
308.018
307.391
306.774
306.167
305.57
304.983
304.406
303.836
303.272
302.713
302.156
341.638
341.618
341.604
341.599
341.6
341.605
341.615
341.629
341.648
341.671
341.699
341.732
341.771
341.815
341.863
341.915
341.968
342.024
342.08
342.138
342.197
342.257
342.319
342.381
342.442
342.501
342.557
342.608
342.653
342.692
342.726
342.752
342.772
342.784
342.784
342.777
342.759
342.728
342.685
342.628
342.558
342.475
342.381
342.275
342.154
342.026
341.888
341.727
341.548
341.374
341.17
340.926
340.69
340.445
340.146
339.823
339.531
339.192
338.796
338.429
338.06
337.619
337.166
336.754
336.287
335.767
335.284
334.803
334.241
333.684
333.168
332.591
331.977
331.401
330.82
330.172
329.543
328.958
328.275
327.594
326.963
326.356
325.639
324.87
324.18
323.51
322.848
322.128
321.386
320.678
319.991
319.307
318.619
317.925
317.231
316.544
315.866
315.196
314.53
313.867
313.209
312.556
311.906
311.262
310.623
309.993
309.371
308.758
308.154
307.559
306.97
306.387
305.807
305.228
304.649
304.069
344.412
344.382
344.36
344.344
344.334
344.331
344.333
344.34
344.352
344.372
344.398
344.431
344.471
344.517
344.569
344.625
344.686
344.751
344.822
344.897
344.977
345.062
345.15
345.241
345.333
345.426
345.519
345.613
345.705
345.797
345.888
345.976
346.062
346.143
346.218
346.285
346.345
346.396
346.438
346.469
346.49
346.497
346.492
346.476
346.446
346.4
346.338
346.259
346.163
346.052
345.924
345.78
345.622
345.45
345.257
345.049
344.834
344.594
344.322
344.051
343.768
343.439
343.081
342.75
342.38
341.953
341.536
341.136
340.672
340.17
339.71
339.23
338.68
338.139
337.636
337.068
336.462
335.896
335.334
334.692
334.062
333.467
332.825
332.152
331.511
330.857
330.166
329.492
328.841
328.15
327.412
326.697
326
325.306
324.599
323.875
323.16
322.458
321.763
321.068
320.371
319.675
318.985
318.3
317.622
316.953
316.287
315.626
314.969
314.316
313.669
313.028
312.393
311.766
311.146
310.533
309.926
309.323
308.722
308.122
307.52
306.916
306.308
347.011
347.012
347.019
347.033
347.055
347.084
347.119
347.161
347.21
347.265
347.326
347.395
347.471
347.554
347.643
347.737
347.837
347.941
348.05
348.163
348.28
348.4
348.524
348.65
348.777
348.904
349.03
349.155
349.278
349.397
349.513
349.625
349.731
349.832
349.924
350.008
350.081
350.143
350.193
350.23
350.253
350.257
350.25
350.228
350.189
350.132
350.056
349.96
349.845
349.711
349.556
349.382
349.19
348.979
348.747
348.499
348.237
347.952
347.639
347.322
346.991
346.62
346.222
345.842
345.43
344.967
344.497
344.053
343.557
343.01
342.492
341.984
341.409
340.81
340.256
339.682
339.039
338.415
337.828
337.183
336.502
335.856
335.223
334.524
333.832
333.16
332.473
331.773
331.081
330.386
329.668
328.943
328.227
327.515
326.801
326.082
325.365
324.654
323.949
323.247
322.547
321.848
321.153
320.467
319.787
319.113
318.443
317.778
317.117
316.461
315.81
315.164
314.524
313.889
313.259
312.633
312.01
311.388
310.766
310.141
309.513
308.88
308.242
349.709
349.741
349.781
349.829
349.884
349.947
350.018
350.096
350.181
350.273
350.372
350.479
350.592
350.712
350.838
350.971
351.108
351.25
351.396
351.545
351.698
351.853
352.01
352.167
352.325
352.482
352.637
352.788
352.936
353.078
353.214
353.343
353.464
353.577
353.679
353.77
353.848
353.912
353.962
353.995
354.01
354.006
353.987
353.949
353.892
353.813
353.714
353.592
353.449
353.283
353.094
352.882
352.649
352.394
352.117
351.82
351.506
351.167
350.806
350.433
350.043
349.622
349.175
348.736
348.272
347.764
347.238
346.739
346.201
345.613
345.028
344.477
343.872
343.223
342.606
342.008
341.341
340.657
340.016
339.372
338.656
337.954
337.287
336.591
335.859
335.151
334.45
333.738
333.021
332.305
331.583
330.855
330.127
329.403
328.681
327.959
327.238
326.522
325.81
325.101
324.395
323.694
323.001
322.313
321.63
320.951
320.277
319.607
318.942
318.281
317.624
316.971
316.321
315.675
315.031
314.389
313.746
313.102
312.454
311.803
311.146
310.484
309.816
352.499
352.565
352.639
352.722
352.812
352.911
353.018
353.133
353.255
353.385
353.521
353.665
353.816
353.973
354.136
354.304
354.477
354.654
354.835
355.018
355.202
355.388
355.574
355.759
355.942
356.123
356.3
356.471
356.636
356.793
356.941
357.08
357.208
357.324
357.427
357.515
357.588
357.645
357.683
357.701
357.698
357.678
357.637
357.573
357.486
357.376
357.242
357.084
356.902
356.695
356.462
356.205
355.924
355.618
355.288
354.935
354.562
354.164
353.744
353.309
352.855
352.373
351.869
351.363
350.838
350.277
349.692
349.127
348.539
347.905
347.255
346.646
346.005
345.312
344.628
343.985
343.296
342.561
341.859
341.189
340.458
339.703
338.986
338.281
337.532
336.788
336.059
335.331
334.596
333.861
333.126
332.389
331.653
330.92
330.191
329.464
328.74
328.018
327.3
326.585
325.878
325.178
324.483
323.792
323.106
322.423
321.744
321.069
320.398
319.73
319.064
318.401
317.74
317.079
316.418
315.757
315.092
314.424
313.75
313.071
312.386
311.695
310.998
310.296
309.591
355.373
355.474
355.583
355.701
355.828
355.962
356.106
356.257
356.416
356.582
356.755
356.935
357.121
357.313
357.51
357.711
357.917
358.125
358.335
358.547
358.758
358.969
359.178
359.384
359.586
359.782
359.973
360.155
360.329
360.492
360.643
360.782
360.907
361.016
361.109
361.184
361.241
361.278
361.293
361.286
361.258
361.207
361.131
361.03
360.904
360.752
360.573
360.368
360.136
359.878
359.592
359.28
358.941
358.577
358.186
357.771
357.333
356.87
356.385
355.881
355.357
354.808
354.24
353.662
353.069
352.446
351.8
351.163
350.516
349.829
349.117
348.441
347.757
347.02
346.272
345.569
344.853
344.077
343.315
342.596
341.856
341.061
340.294
339.556
338.801
338.03
337.272
336.521
335.771
335.02
334.27
333.524
332.78
332.04
331.304
330.573
329.845
329.118
328.394
327.678
326.972
326.271
325.575
324.881
324.192
323.505
322.822
322.141
321.463
320.787
320.112
319.437
318.762
318.086
317.407
316.725
316.039
315.347
314.649
313.944
313.233
312.515
311.791
311.062
310.328
358.319
358.455
358.6
358.753
358.915
359.085
359.263
359.449
359.643
359.844
360.051
360.264
360.482
360.705
360.932
361.162
361.394
361.628
361.862
362.095
362.326
362.555
362.779
362.997
363.209
363.413
363.607
363.791
363.963
364.122
364.265
364.393
364.503
364.594
364.666
364.717
364.746
364.749
364.732
364.691
364.623
364.529
364.408
364.259
364.082
363.876
363.642
363.38
363.089
362.769
362.42
362.044
361.64
361.208
360.75
360.266
359.757
359.223
358.667
358.09
357.492
356.871
356.232
355.58
354.913
354.224
353.513
352.802
352.09
351.345
350.572
349.826
349.09
348.308
347.502
346.737
345.983
345.172
344.354
343.581
342.82
342
341.188
340.412
339.641
338.854
338.07
337.298
336.531
335.767
335.007
334.251
333.501
332.756
332.017
331.283
330.551
329.821
329.096
328.383
327.678
326.977
326.279
325.585
324.893
324.204
323.517
322.831
322.147
321.463
320.778
320.093
319.405
318.714
318.019
317.318
316.612
315.9
315.181
314.454
313.72
312.979
312.231
311.477
310.718
361.163
361.324
361.494
361.673
361.86
362.055
362.259
362.47
362.688
362.913
363.144
363.381
363.622
363.868
364.116
364.367
364.62
364.872
365.124
365.374
365.621
365.864
366.101
366.33
366.552
366.764
366.964
367.152
367.327
367.486
367.628
367.752
367.856
367.94
368.002
368.041
368.053
368.042
368.007
367.944
367.853
367.734
367.586
367.408
367.2
366.962
366.693
366.393
366.064
365.704
365.313
364.894
364.445
363.967
363.461
362.928
362.368
361.783
361.174
360.542
359.888
359.213
358.517
357.803
357.075
356.334
355.575
354.796
354.014
353.232
352.425
351.593
350.779
349.985
349.154
348.3
347.475
346.676
345.833
344.971
344.148
343.356
342.518
341.672
340.861
340.066
339.266
338.465
337.675
336.894
336.12
335.352
334.591
333.837
333.091
332.352
331.619
330.887
330.157
329.437
328.728
328.027
327.328
326.633
325.939
325.248
324.559
323.871
323.183
322.494
321.805
321.114
320.419
319.721
319.019
318.311
317.596
316.875
316.146
315.41
314.666
313.915
313.156
312.391
311.618
310.839
364.177
364.37
364.572
364.782
365
365.226
365.46
365.7
365.946
366.198
366.454
366.715
366.979
367.245
367.512
367.78
368.047
368.312
368.573
368.83
369.082
369.325
369.561
369.786
369.999
370.2
370.386
370.556
370.709
370.844
370.958
371.05
371.119
371.165
371.184
371.176
371.144
371.083
370.993
370.873
370.722
370.54
370.327
370.082
369.804
369.495
369.153
368.779
368.373
367.936
367.468
366.969
366.44
365.882
365.296
364.682
364.042
363.376
362.686
361.974
361.242
360.488
359.715
358.924
358.119
357.303
356.473
355.628
354.777
353.928
353.06
352.172
351.297
350.443
349.563
348.664
347.791
346.953
346.085
345.195
344.335
343.512
342.664
341.799
340.963
340.149
339.337
338.528
337.727
336.938
336.158
335.388
334.626
333.873
333.129
332.393
331.664
330.935
330.21
329.497
328.795
328.099
327.406
326.715
326.026
325.338
324.651
323.965
323.277
322.589
321.898
321.204
320.506
319.802
319.094
318.378
317.656
316.925
316.187
315.44
314.686
313.923
313.152
312.374
311.588
310.794
309.991
309.18
367.214
367.436
367.667
367.905
368.15
368.402
368.661
368.924
369.193
369.466
369.741
370.019
370.298
370.577
370.855
371.131
371.403
371.671
371.933
372.187
372.432
372.666
372.889
373.098
373.292
373.47
373.63
373.771
373.89
373.988
374.061
374.11
374.132
374.126
374.094
374.032
373.94
373.816
373.66
373.472
373.251
372.997
372.709
372.387
372.032
371.642
371.219
370.763
370.273
369.752
369.199
368.614
367.999
367.356
366.685
365.986
365.261
364.511
363.737
362.944
362.132
361.3
360.449
359.583
358.704
357.815
356.915
356.006
355.098
354.195
353.278
352.346
351.427
350.523
349.605
348.673
347.762
346.887
345.997
345.09
344.203
343.357
342.499
341.628
340.778
339.952
339.134
338.322
337.52
336.73
335.951
335.184
334.427
333.68
332.943
332.215
331.494
330.775
330.059
329.356
328.664
327.978
327.294
326.611
325.93
325.25
324.57
323.89
323.208
322.524
321.836
321.145
320.448
319.746
319.037
318.321
317.598
316.865
316.124
315.374
314.615
313.846
313.067
312.279
311.482
310.674
309.856
309.027
370.252
370.499
370.754
371.015
371.283
371.555
371.833
372.114
372.398
372.684
372.97
373.257
373.543
373.826
374.106
374.38
374.648
374.908
375.159
375.399
375.627
375.841
376.04
376.222
376.386
376.529
376.651
376.75
376.824
376.874
376.894
376.887
376.853
376.787
376.69
376.561
376.399
376.202
375.972
375.706
375.406
375.07
374.699
374.292
373.851
373.374
372.863
372.317
371.738
371.127
370.484
369.809
369.104
368.37
367.61
366.825
366.014
365.178
364.322
363.446
362.554
361.651
360.736
359.809
358.87
357.923
356.967
356.004
355.046
354.093
353.132
352.166
351.211
350.269
349.321
348.367
347.426
346.516
345.605
344.685
343.78
342.914
342.049
341.178
340.324
339.493
338.675
337.867
337.071
336.288
335.518
334.761
334.016
333.282
332.56
331.848
331.144
330.442
329.743
329.057
328.382
327.713
327.045
326.379
325.713
325.047
324.382
323.714
323.044
322.372
321.695
321.014
320.326
319.631
318.93
318.22
317.502
316.774
316.037
315.289
314.532
313.763
312.984
312.193
311.392
310.578
309.753
308.916
373.266
373.534
373.807
374.085
374.368
374.655
374.944
375.234
375.526
375.817
376.107
376.393
376.676
376.954
377.225
377.488
377.741
377.983
378.213
378.428
378.628
378.81
378.973
379.116
379.238
379.335
379.407
379.454
379.471
379.46
379.421
379.35
379.246
379.109
378.938
378.731
378.49
378.212
377.898
377.547
377.159
376.735
376.273
375.775
375.241
374.672
374.067
373.427
372.753
372.047
371.312
370.544
369.747
368.922
368.072
367.201
366.314
365.408
364.482
363.54
362.581
361.613
360.637
359.652
358.66
357.663
356.66
355.652
354.645
353.643
352.64
351.639
350.652
349.676
348.704
347.734
346.778
345.847
344.926
344.003
343.096
342.222
341.359
340.499
339.655
338.831
338.023
337.229
336.449
335.684
334.933
334.195
333.471
332.76
332.06
331.372
330.692
330.016
329.342
328.679
328.028
327.383
326.739
326.096
325.453
324.81
324.166
323.519
322.87
322.217
321.559
320.896
320.226
319.547
318.858
318.16
317.453
316.736
316.009
315.27
314.521
313.76
312.988
312.203
311.405
310.596
309.773
308.939
308.092
376.512
376.797
377.086
377.377
377.669
377.962
378.254
378.544
378.831
379.114
379.391
379.662
379.924
380.176
380.416
380.644
380.857
381.055
381.234
381.395
381.534
381.651
381.744
381.812
381.854
381.863
381.848
381.801
381.722
381.609
381.463
381.281
381.064
380.809
380.518
380.19
379.823
379.418
378.975
378.494
377.975
377.417
376.822
376.19
375.524
374.822
374.085
373.313
372.511
371.683
370.833
369.959
369.058
368.133
367.187
366.226
365.25
364.259
363.253
362.236
361.208
360.17
359.128
358.083
357.036
355.988
354.941
353.898
352.862
351.831
350.808
349.8
348.805
347.82
346.845
345.886
344.951
344.029
343.115
342.22
341.353
340.504
339.666
338.844
338.042
337.257
336.488
335.735
334.998
334.276
333.568
332.874
332.194
331.526
330.869
330.221
329.579
328.94
328.307
327.686
327.073
326.462
325.849
325.237
324.625
324.011
323.393
322.77
322.141
321.506
320.865
320.216
319.559
318.891
318.213
317.524
316.825
316.114
315.393
314.659
313.914
313.156
312.386
311.604
310.809
310.001
309.181
308.349
379.405
379.695
379.986
380.277
380.567
380.854
381.139
381.418
381.692
381.959
382.217
382.464
382.7
382.923
383.131
383.323
383.497
383.651
383.784
383.895
383.981
384.041
384.076
384.077
384.054
383.997
383.908
383.786
383.628
383.435
383.205
382.938
382.633
382.288
381.905
381.483
381.022
380.52
379.978
379.398
378.781
378.124
377.427
376.695
375.929
375.137
374.316
373.464
372.58
371.67
370.739
369.786
368.814
367.821
366.807
365.773
364.725
363.666
362.597
361.52
360.438
359.351
358.263
357.176
356.092
355.011
353.937
352.872
351.817
350.772
349.74
348.726
347.727
346.743
345.775
344.827
343.902
342.994
342.101
341.23
340.385
339.559
338.753
337.966
337.198
336.448
335.716
335.001
334.302
333.618
332.95
332.295
331.655
331.027
330.41
329.802
329.202
328.606
328.012
327.428
326.854
326.283
325.71
325.133
324.552
323.969
323.384
322.792
322.193
321.586
320.973
320.352
319.723
319.086
318.438
317.78
317.11
316.429
315.736
315.031
314.314
313.584
312.842
312.088
311.322
310.543
309.753
308.951
382.471
382.756
383.038
383.317
383.591
383.858
384.118
384.369
384.609
384.837
385.052
385.253
385.436
385.602
385.747
385.872
385.973
386.05
386.101
386.124
386.117
386.084
386.016
385.916
385.782
385.613
385.407
385.164
384.883
384.562
384.203
383.804
383.364
382.882
382.361
381.801
381.198
380.554
379.871
379.154
378.407
377.625
376.807
375.955
375.076
374.172
373.242
372.285
371.299
370.286
369.252
368.202
367.135
366.053
364.956
363.848
362.732
361.61
360.484
359.357
358.23
357.107
355.99
354.881
353.781
352.692
351.617
350.557
349.513
348.487
347.481
346.495
345.529
344.583
343.661
342.762
341.885
341.028
340.194
339.384
338.595
337.829
337.086
336.363
335.659
334.974
334.306
333.654
333.018
332.398
331.792
331.199
330.618
330.049
329.489
328.937
328.391
327.848
327.305
326.769
326.238
325.705
325.166
324.623
324.077
323.527
322.973
322.414
321.849
321.275
320.693
320.103
319.504
318.895
318.276
317.646
317.004
316.351
315.686
315.01
314.321
313.621
312.91
312.187
311.454
310.709
309.955
385.368
385.633
385.891
386.142
386.383
386.613
386.831
387.036
387.226
387.398
387.553
387.688
387.801
387.891
387.957
387.997
388.007
387.991
387.944
387.865
387.753
387.606
387.424
387.205
386.948
386.652
386.318
385.942
385.526
385.068
384.571
384.03
383.447
382.823
382.162
381.468
380.736
379.966
379.159
378.325
377.46
376.563
375.632
374.667
373.675
372.659
371.619
370.556
369.47
368.365
367.244
366.11
364.965
363.812
362.652
361.489
360.324
359.161
358.002
356.848
355.704
354.571
353.452
352.347
351.259
350.189
349.14
348.111
347.106
346.124
345.166
344.233
343.324
342.441
341.584
340.752
339.944
339.16
338.4
337.663
336.949
336.258
335.589
334.94
334.309
333.697
333.101
332.52
331.955
331.404
330.866
330.34
329.826
329.321
328.819
328.321
327.825
327.328
326.833
326.343
325.853
325.362
324.867
324.368
323.864
323.357
322.844
322.324
321.798
321.263
320.72
320.168
319.606
319.035
318.453
317.861
317.258
316.644
316.02
315.385
314.74
314.085
313.42
312.746
312.063
311.371
310.672
309.966
387.795
388.034
388.263
388.481
388.687
388.879
389.056
389.215
389.357
389.479
389.579
389.656
389.709
389.735
389.732
389.704
389.643
389.551
389.426
389.266
389.07
388.837
388.566
388.256
387.906
387.515
387.084
386.61
386.093
385.534
384.935
384.302
383.63
382.918
382.168
381.386
380.571
379.718
378.829
377.903
376.946
375.96
374.943
373.897
372.823