/*--------------------------------*- C++ -*----------------------------------*\
| =========                 |                                                 |
| \\      /  F ield         | OpenFOAM: The Open Source CFD Toolbox           |
|  \\    /   O peration     | Version:  v1706                                 |
|   \\  /    A nd           | Web:      www.OpenFOAM.com                      |
|    \\/     M anipulation  |                                                 |
\*---------------------------------------------------------------------------*/
FoamFile
{
    version     2.0;
    format      ascii;
    class       volVectorField;
    location    "3.4e-05";
    object      U;
}
// * * * * * * * * * * * * * * * * * * * * * * * * * * * * * * * * * * * * * //

dimensions      [0 1 -1 0 0 0 0];


internalField   nonuniform List<vector> 
29871
(
(973.906 5.78886 7.0094e-15)
(973.257 6.57294 4.71815e-15)
(972.553 7.40805 4.77607e-15)
(971.81 8.28397 3.86834e-15)
(971.05 9.19701 2.74739e-15)
(970.292 10.154 3.50389e-15)
(969.546 11.1609 4.36087e-15)
(968.794 12.2429 4.41113e-15)
(968.007 13.405 4.7433e-15)
(967.133 14.6766 4.70053e-15)
(966.051 16.166 4.94464e-15)
(964.667 17.9681 6.61331e-15)
(962.944 20.1413 5.48319e-15)
(960.907 22.6764 5.51242e-15)
(958.656 25.5031 4.08231e-15)
(956.311 28.5386 2.86617e-15)
(953.957 31.6997 3.36837e-15)
(951.639 34.9058 3.992e-15)
(949.378 38.0937 4.06034e-15)
(947.194 41.218 3.6883e-15)
(945.092 44.2597 3.63536e-15)
(943.113 47.1634 3.82076e-15)
(941.158 50.0785 2.63642e-15)
(939.05 53.1875 3.85575e-15)
(936.487 56.7876 5.3748e-15)
(933.578 60.8497 5.01579e-15)
(930.525 65.183 5.77617e-15)
(927.474 69.6361 3.29487e-15)
(924.511 74.1133 3.0996e-15)
(921.688 78.5525 4.67008e-15)
(919.033 82.9076 4.49703e-15)
(916.559 87.1415 2.74318e-15)
(914.264 91.229 4.09031e-15)
(912.132 95.1594 6.28346e-15)
(910.138 98.934 4.26372e-15)
(908.255 102.56 1.4483e-15)
(906.459 106.045 8.54219e-16)
(904.736 109.396 3.32489e-15)
(903.079 112.611 3.13917e-15)
(901.489 115.685 4.10053e-15)
(899.974 118.609 4.58599e-15)
(898.543 121.37 5.48438e-15)
(897.209 123.955 5.75048e-15)
(895.984 126.348 3.4018e-15)
(894.882 128.532 2.6333e-15)
(893.91 130.492 3.80527e-15)
(893.078 132.215 2.50267e-15)
(892.385 133.696 3.07897e-17)
(891.843 134.927 1.00234e-15)
(891.421 135.915 3.38669e-15)
(891.157 136.635 4.23946e-15)
(890.992 137.158 3.54457e-16)
(890.993 137.475 2.08097e-15)
(891.058 137.501 3.29279e-15)
(891.286 137.377 2.81701e-15)
(891.629 137.077 2.551e-15)
(892.04 136.592 3.51256e-15)
(892.522 135.969 4.34679e-15)
(893.069 135.228 3.39825e-15)
(893.685 134.374 3.34139e-15)
(894.352 133.426 1.55416e-15)
(895.072 132.374 1.24337e-15)
(895.856 131.232 2.09275e-15)
(896.663 130.044 -8.0953e-16)
(897.486 128.787 3.28402e-15)
(898.367 127.445 4.28317e-15)
(899.272 126.075 3.01152e-15)
(900.151 124.711 2.46238e-15)
(901.032 123.325 1.59991e-15)
(901.951 121.898 1.96764e-15)
(902.911 120.441 2.43964e-15)
(903.91 118.948 2.58257e-15)
(904.957 117.399 1.73817e-15)
(906.055 115.778 1.72673e-15)
(907.199 114.087 1.56113e-15)
(908.383 112.332 3.84951e-15)
(909.603 110.519 5.74662e-16)
(910.859 108.654 2.03799e-15)
(912.151 106.735 1.81502e-15)
(913.482 104.764 4.42478e-15)
(914.852 102.739 4.67534e-15)
(916.263 100.659 3.51547e-15)
(917.72 98.5196 4.3054e-15)
(919.223 96.3176 2.85746e-15)
(920.779 94.0479 4.22348e-15)
(922.388 91.7051 3.79772e-15)
(924.055 89.2835 3.05594e-15)
(925.781 86.7779 4.42937e-15)
(927.567 84.1839 5.20915e-15)
(929.413 81.4993 4.11949e-15)
(931.314 78.7234 4.42266e-15)
(933.269 75.8582 2.49731e-15)
(935.272 72.909 4.06774e-15)
(937.319 69.8881 4.18263e-15)
(939.398 66.8157 2.58286e-15)
(941.494 63.7161 3.15558e-15)
(943.57 60.628 3.30604e-15)
(945.599 57.5919 3.55699e-15)
(947.575 54.6513 3.49465e-15)
(949.479 51.8298 3.26559e-15)
(951.26 49.0108 4.47646e-15)
(952.66 46.5073 4.04595e-15)
(953.826 44.4878 1.97188e-15)
(955.075 42.5918 3.04492e-15)
(956.412 40.6645 1.54557e-15)
(950.341 31.6728 1.19567e-14)
(946.982 35.4971 1.2142e-14)
(943.056 39.9489 1.37241e-14)
(938.601 45.0414 1.3648e-14)
(933.704 50.7308 1.24328e-14)
(928.485 56.9207 1.39482e-14)
(923.021 63.5239 1.25429e-14)
(917.455 70.3607 1.24012e-14)
(911.695 77.4895 1.22336e-14)
(905.57 85.0291 1.18253e-14)
(898.836 93.1464 1.14301e-14)
(891.509 101.943 1.11487e-14)
(883.761 111.335 1.2068e-14)
(875.751 121.208 7.76896e-15)
(867.592 131.462 7.2241e-15)
(859.375 142.013 8.10576e-15)
(851.183 152.773 1.06469e-14)
(843.102 163.639 9.26157e-15)
(835.219 174.496 7.35747e-15)
(827.62 185.224 6.21113e-15)
(820.388 195.711 6.40953e-15)
(813.581 205.865 7.97038e-15)
(807.252 215.607 9.33405e-15)
(801.525 224.83 8.02676e-15)
(796.479 233.445 5.80966e-15)
(792.019 241.438 5.72615e-15)
(788.067 248.808 6.89396e-15)
(784.578 255.563 6.18788e-15)
(781.532 261.713 6.32087e-15)
(778.924 267.272 5.31819e-15)
(776.765 272.242 7.71275e-15)
(775.083 276.607 2.71187e-15)
(773.865 280.355 6.49598e-15)
(773.069 283.493 7.84613e-15)
(772.639 286.053 7.55086e-15)
(772.524 288.081 5.59986e-15)
(772.68 289.634 3.42787e-15)
(773.074 290.77 5.98091e-15)
(773.673 291.544 2.46982e-15)
(774.446 292.012 4.16271e-15)
(775.362 292.227 3.64799e-15)
(776.393 292.241 2.40684e-15)
(777.508 292.103 2.84248e-15)
(778.679 291.859 2.70784e-15)
(779.876 291.555 1.43118e-15)
(781.074 291.221 1.49499e-15)
(782.247 290.898 2.55671e-15)
(783.38 290.596 -5.28338e-16)
(784.457 290.361 1.95566e-15)
(785.476 290.149 -1.38768e-16)
(786.408 290.073 6.38354e-16)
(787.279 289.958 5.50942e-16)
(788.102 290.057 3.50895e-15)
(788.709 289.968 -3.51258e-16)
(789.596 290.295 2.43877e-15)
(790.377 290.391 -3.55108e-16)
(790.743 290.506 7.8531e-17)
(791.262 290.694 -1.14675e-15)
(791.801 290.889 -2.80242e-15)
(792.332 291.062 -1.01426e-15)
(792.831 291.167 -1.84008e-16)
(793.265 291.324 -2.94524e-16)
(793.659 291.466 9.65553e-16)
(794.082 291.453 6.17851e-16)
(794.456 291.475 1.93878e-15)
(794.711 291.632 2.32268e-15)
(794.929 291.673 1.58442e-15)
(795.231 291.523 3.79182e-15)
(795.55 291.381 4.6662e-15)
(795.835 291.278 3.06995e-15)
(796.15 291.125 5.24645e-15)
(796.554 290.897 2.08604e-15)
(797.037 290.624 3.03155e-15)
(797.557 290.327 4.83707e-15)
(798.091 290.005 2.79562e-15)
(798.638 289.653 4.02444e-15)
(799.205 289.27 2.49666e-15)
(799.796 288.86 3.02062e-15)
(800.413 288.424 3.31696e-15)
(801.057 287.962 3.90144e-15)
(801.732 287.475 2.21983e-15)
(802.44 286.959 1.69783e-15)
(803.185 286.414 1.98553e-15)
(803.971 285.837 2.73221e-15)
(804.803 285.225 2.96626e-15)
(805.682 284.572 3.59545e-15)
(806.613 283.874 3.0539e-15)
(807.597 283.121 2.99053e-15)
(808.638 282.301 3.6446e-15)
(809.74 281.393 3.63396e-15)
(810.911 280.372 2.82512e-15)
(812.162 279.204 3.32644e-15)
(813.512 277.846 6.34262e-15)
(815.013 276.221 5.85966e-15)
(816.777 274.192 5.32669e-15)
(819.044 271.59 5.2194e-15)
(822.006 268.318 6.25465e-15)
(825.629 264.38 6.18198e-15)
(829.854 259.77 6.41946e-15)
(834.681 254.38 2.14382e-15)
(840.103 248.135 5.38871e-15)
(846.137 240.961 6.23721e-15)
(852.767 232.683 4.36479e-15)
(859.75 223.497 4.88239e-15)
(866.921 213.656 3.12344e-15)
(895.667 90.7173 2.30632e-14)
(887.073 100.354 2.17442e-14)
(877.664 110.828 1.71698e-14)
(867.576 122.11 2.0259e-14)
(856.974 134.115 2.16619e-14)
(846.01 146.732 1.83421e-14)
(834.842 159.815 1.86119e-14)
(823.619 173.205 1.78178e-14)
(812.515 186.697 1.85481e-14)
(801.693 200.097 1.72758e-14)
(791.399 213.165 1.53311e-14)
(781.931 225.58 1.41678e-14)
(773.364 237.127 1.28185e-14)
(765.731 247.662 1.53755e-14)
(759.038 257.095 1.56261e-14)
(753.255 265.403 1.41653e-14)
(748.317 272.632 1.34177e-14)
(744.133 278.886 1.33586e-14)
(740.616 284.296 1.2522e-14)
(737.685 288.997 1.25021e-14)
(735.27 293.124 1.25313e-14)
(733.346 296.755 9.42477e-15)
(731.911 299.944 1.19285e-14)
(730.944 302.674 1.41117e-14)
(730.405 304.95 7.56155e-15)
(730.241 306.845 1.09975e-14)
(730.397 308.425 9.64585e-15)
(730.807 309.725 9.11598e-15)
(731.432 310.777 7.92212e-15)
(732.227 311.608 8.83684e-15)
(733.135 312.263 8.64642e-15)
(734.109 312.851 8.46406e-15)
(735.181 313.532 7.41883e-15)
(736.251 314.38 7.27339e-15)
(737.26 315.371 7.1287e-15)
(738.205 316.429 7.08884e-15)
(739.106 317.472 6.63356e-15)
(739.99 318.439 6.03227e-15)
(740.884 319.286 5.09185e-15)
(741.804 319.983 5.74503e-15)
(742.766 320.515 4.78984e-15)
(743.781 320.873 4.20879e-15)
(744.857 321.06 3.85431e-15)
(746 321.084 3.40886e-15)
(747.211 320.963 4.19736e-15)
(748.489 320.72 3.5656e-15)
(749.831 320.375 4.46427e-15)
(751.227 319.958 3.30785e-15)
(752.665 319.497 2.57236e-15)
(754.137 319.018 1.86318e-15)
(755.632 318.521 1.16232e-15)
(757.132 318.066 3.08551e-15)
(758.626 317.632 1.48748e-15)
(760.121 317.231 1.85159e-15)
(761.575 316.866 3.64537e-15)
(763.006 316.618 5.07434e-15)
(764.435 316.406 2.90894e-15)
(765.816 316.245 5.35933e-15)
(767.126 316.12 4.35369e-15)
(768.486 316.166 1.70439e-16)
(769.898 316.065 4.8069e-16)
(771.094 315.876 -1.92073e-15)
(772.422 316.032 1.49321e-15)
(773.805 315.879 -3.15495e-16)
(774.521 315.808 -9.26997e-16)
(775.736 315.768 -5.14173e-16)
(776.881 315.763 3.16429e-16)
(777.756 315.537 -1.66982e-16)
(778.546 315.645 2.00706e-16)
(779.604 315.57 7.30225e-16)
(780.647 315.394 1.2711e-15)
(781.512 315.353 1.53981e-15)
(782.424 315.333 5.21405e-16)
(783.385 315.246 1.5667e-15)
(784.35 315.095 2.48012e-15)
(785.299 314.92 9.88087e-16)
(786.24 314.745 3.85544e-15)
(787.182 314.568 5.0069e-15)
(788.127 314.385 2.27301e-15)
(789.071 314.191 4.43744e-15)
(790.015 313.989 4.65367e-15)
(790.96 313.78 4.06031e-15)
(791.908 313.562 3.87392e-15)
(792.86 313.334 3.14526e-15)
(793.819 313.091 4.93658e-15)
(794.785 312.83 3.61047e-15)
(795.761 312.542 1.84966e-15)
(796.749 312.219 1.07223e-15)
(797.751 311.851 2.40397e-15)
(798.771 311.426 -6.89446e-17)
(799.811 310.929 1.82698e-15)
(800.873 310.349 1.25797e-16)
(801.958 309.675 1.18647e-15)
(803.075 308.903 2.49689e-15)
(804.244 308.062 3.19771e-15)
(805.457 307.278 2.66537e-15)
(806.692 306.821 2.54684e-15)
(808.03 306.859 5.33861e-15)
(809.449 307.227 5.75728e-15)
(810.872 307.74 5.51281e-15)
(812.264 308.258 5.4564e-15)
(813.647 308.714 6.42322e-15)
(815.041 309.038 6.66938e-15)
(816.452 309.126 5.31066e-15)
(817.888 308.911 5.75299e-15)
(819.373 308.347 6.76782e-15)
(785.926 209.732 2.78639e-14)
(774.754 223.303 2.84233e-14)
(764.509 235.972 2.42411e-14)
(755.246 247.576 2.42904e-14)
(746.997 258.014 2.40881e-14)
(739.756 267.248 2.21567e-14)
(733.478 275.308 2.28467e-14)
(728.083 282.283 2.19195e-14)
(723.465 288.309 1.85485e-14)
(719.531 293.512 1.87031e-14)
(716.22 298.021 2.14712e-14)
(713.471 302.004 2.00572e-14)
(711.229 305.569 1.83514e-14)
(709.45 308.774 1.79342e-14)
(708.106 311.601 1.88937e-14)
(707.144 314.009 1.60073e-14)
(706.508 315.967 1.89194e-14)
(706.152 317.457 1.73885e-14)
(706.055 318.494 1.89354e-14)
(706.208 319.113 1.71981e-14)
(706.594 319.387 1.72603e-14)
(707.152 319.478 1.91348e-14)
(707.884 319.667 1.72625e-14)
(708.625 320.097 1.55614e-14)
(709.305 320.722 1.48859e-14)
(709.946 321.443 1.39294e-14)
(710.593 322.187 1.54595e-14)
(711.277 322.907 1.00316e-14)
(712.023 323.558 1.07302e-14)
(712.834 324.122 1.14664e-14)
(713.73 324.532 1.18433e-14)
(714.69 324.77 1.12395e-14)
(715.663 324.977 1.0538e-14)
(716.712 325.157 1.19217e-14)
(717.856 325.352 9.83203e-15)
(719.082 325.591 9.65356e-15)
(720.368 325.881 8.72564e-15)
(721.699 326.209 6.97991e-15)
(723.069 326.555 7.39885e-15)
(724.474 326.9 5.46528e-15)
(725.917 327.228 8.47345e-15)
(727.398 327.526 7.57761e-15)
(728.919 327.787 5.20315e-15)
(730.482 327.997 6.29096e-15)
(732.09 328.15 4.87435e-15)
(733.74 328.249 3.92342e-15)
(735.437 328.282 3.26717e-15)
(737.18 328.244 4.89895e-15)
(738.959 328.157 6.87744e-15)
(740.769 328.022 2.52811e-15)
(742.613 327.819 3.06756e-15)
(744.472 327.586 3.18632e-15)
(746.332 327.343 3.94468e-15)
(748.195 327.042 5.09858e-15)
(750.042 326.71 2.56814e-15)
(751.837 326.42 3.23466e-15)
(753.593 326.12 5.58216e-15)
(755.332 325.786 4.45741e-15)
(757.029 325.451 3.64229e-15)
(758.725 325.292 3.38879e-15)
(760.504 325.064 3.92239e-15)
(762.081 324.684 6.30365e-16)
(763.791 324.76 2.64255e-16)
(765.597 324.55 9.06927e-16)
(766.614 324.15 4.6784e-16)
(768.245 324.111 9.36676e-16)
(769.775 324.14 7.46818e-16)
(771.11 323.822 3.9587e-16)
(772.134 323.85 5.07896e-16)
(773.525 323.798 -5.33845e-16)
(774.946 323.731 1.6484e-15)
(776.089 323.699 8.3391e-16)
(777.231 323.72 1.03807e-15)
(778.446 323.691 6.21244e-16)
(779.66 323.613 -1.39412e-15)
(780.833 323.541 8.79623e-16)
(781.986 323.491 1.45576e-15)
(783.131 323.454 2.25679e-15)
(784.264 323.428 2.79582e-15)
(785.385 323.417 4.86801e-15)
(786.494 323.423 1.67581e-15)
(787.594 323.448 1.03404e-15)
(788.688 323.491 -1.95508e-16)
(789.779 323.553 2.16411e-15)
(790.871 323.629 2.90137e-15)
(791.966 323.718 2.94045e-16)
(793.069 323.819 3.26615e-15)
(794.188 323.929 4.69075e-15)
(795.331 324.048 3.71067e-15)
(796.513 324.171 1.9011e-15)
(797.748 324.299 2.67444e-15)
(799.056 324.433 2.48617e-15)
(800.458 324.584 1.83533e-15)
(801.974 324.778 3.18854e-15)
(803.584 325.101 3.73171e-16)
(805.248 325.671 8.82978e-16)
(806.833 326.305 6.07719e-15)
(808.085 326.612 3.84078e-15)
(809.149 326.666 3.69989e-15)
(810.187 326.552 4.8008e-15)
(811.28 326.346 5.1932e-15)
(812.459 326.081 4.11522e-15)
(813.736 325.741 6.12378e-15)
(815.105 325.291 5.8047e-15)
(816.54 324.711 4.76911e-15)
(818.016 323.981 5.76955e-15)
(713.919 289.471 3.14667e-14)
(709.472 294.854 3.06832e-14)
(705.752 299.495 2.91148e-14)
(702.66 303.551 2.82905e-14)
(700.106 307.122 2.92931e-14)
(698.026 310.261 2.58325e-14)
(696.382 312.992 2.69513e-14)
(695.114 315.321 2.73348e-14)
(694.163 317.233 2.86618e-14)
(693.47 318.746 2.58966e-14)
(693.012 319.889 2.26335e-14)
(692.761 320.722 2.23926e-14)
(692.715 321.304 2.22971e-14)
(692.841 321.715 1.97311e-14)
(693.121 322.122 2.15139e-14)
(693.487 322.711 2.23544e-14)
(693.826 323.5 2.15851e-14)
(694.116 324.396 2.2098e-14)
(694.406 325.295 2.08068e-14)
(694.719 326.113 1.80603e-14)
(695.063 326.802 1.77791e-14)
(695.479 327.28 1.74049e-14)
(695.955 327.491 1.79206e-14)
(696.461 327.562 1.89575e-14)
(697.088 327.552 1.37227e-14)
(697.849 327.566 1.4296e-14)
(698.716 327.665 1.34918e-14)
(699.66 327.864 1.01608e-14)
(700.667 328.15 1.14636e-14)
(701.725 328.51 1.29012e-14)
(702.838 328.908 1.3075e-14)
(704.018 329.345 1.33408e-14)
(705.225 329.696 1.22342e-14)
(706.369 329.722 1.24154e-14)
(707.485 329.526 1.32623e-14)
(708.654 329.2 1.12931e-14)
(709.921 328.825 1.24526e-14)
(711.291 328.47 1.18581e-14)
(712.748 328.167 7.69526e-15)
(714.275 327.922 9.07273e-15)
(715.849 327.738 1.14336e-14)
(717.459 327.594 9.53253e-15)
(719.096 327.472 7.68434e-15)
(720.745 327.371 5.8666e-15)
(722.408 327.266 8.59761e-15)
(724.091 327.128 6.66808e-15)
(725.785 326.981 5.94184e-15)
(727.495 326.81 4.56548e-15)
(729.242 326.567 2.86657e-15)
(731.02 326.294 4.14165e-15)
(732.825 326.026 2.39014e-15)
(734.679 325.691 2.73651e-15)
(736.59 325.307 4.12505e-15)
(738.525 324.973 6.20059e-15)
(740.502 324.623 4.87066e-15)
(742.541 324.186 4.48285e-15)
(744.589 323.803 3.17565e-15)
(746.616 323.504 4.64004e-15)
(748.665 323.156 4.74612e-15)
(750.75 322.787 3.13536e-15)
(752.789 322.55 3.28775e-15)
(754.809 322.417 5.13085e-15)
(756.794 322.236 4.63224e-15)
(758.81 322.209 3.15396e-15)
(760.853 322.067 3.84683e-15)
(762.582 321.747 2.57495e-15)
(764.452 321.889 5.11605e-16)
(766.288 322.057 2.42358e-16)
(768.175 321.827 1.90239e-15)
(769.301 321.82 3.37615e-15)
(771.054 321.849 2.53951e-15)
(772.689 322.072 2.88068e-15)
(774.238 322.117 4.35787e-15)
(775.56 322.34 1.93208e-15)
(777.078 322.532 2.66698e-15)
(778.648 322.658 2.13437e-15)
(780.09 322.813 2.12935e-15)
(781.488 322.999 2.52033e-15)
(782.876 323.187 2.85702e-15)
(784.228 323.38 3.31107e-15)
(785.54 323.594 4.65684e-15)
(786.825 323.832 2.73184e-15)
(788.084 324.091 1.46985e-15)
(789.316 324.373 9.6697e-16)
(790.52 324.676 3.40087e-15)
(791.701 325 3.76216e-15)
(792.86 325.341 3.42741e-15)
(793.997 325.701 3.218e-15)
(795.112 326.083 4.41746e-15)
(796.212 326.49 2.39915e-15)
(797.306 326.924 4.43332e-15)
(798.408 327.391 5.14948e-15)
(799.527 327.899 2.7703e-15)
(800.676 328.461 3.3694e-15)
(801.859 329.1 3.02642e-15)
(803.061 329.817 1.7938e-15)
(804.25 330.497 2.36677e-15)
(805.412 331.014 3.45867e-15)
(806.624 331.46 1.5807e-15)
(807.833 331.834 3.0496e-15)
(809.038 332.124 4.08092e-15)
(810.262 332.33 2.23785e-15)
(811.528 332.468 5.19089e-15)
(812.859 332.558 6.24149e-15)
(814.28 332.616 6.39794e-15)
(815.802 332.664 6.71264e-15)
(817.446 332.726 9.05495e-15)
(685.466 318.455 3.22895e-14)
(684.692 319.735 3.20213e-14)
(684.167 320.677 3.08658e-14)
(683.872 321.315 2.94899e-14)
(683.778 321.768 2.94369e-14)
(683.813 322.159 2.79358e-14)
(683.974 322.664 3.00998e-14)
(684.132 323.346 2.662e-14)
(684.25 324.145 2.73307e-14)
(684.368 324.955 2.64774e-14)
(684.474 325.738 2.30906e-14)
(684.627 326.423 2.68331e-14)
(684.812 327.01 2.41592e-14)
(685.084 327.452 2.34138e-14)
(685.421 327.746 2.39097e-14)
(685.788 327.993 1.97736e-14)
(686.233 328.254 1.9392e-14)
(686.737 328.576 1.86236e-14)
(687.359 329.018 1.99924e-14)
(688.019 329.529 1.99609e-14)
(688.661 330.052 1.88284e-14)
(689.342 330.6 2.08132e-14)
(689.99 331.014 2.02469e-14)
(690.586 331.066 1.81487e-14)
(691.183 330.869 1.41502e-14)
(691.823 330.52 1.61484e-14)
(692.578 330.121 1.60259e-14)
(693.454 329.77 1.62517e-14)
(694.426 329.496 1.78997e-14)
(695.459 329.329 1.66097e-14)
(696.521 329.231 1.64654e-14)
(697.632 329.21 1.49577e-14)
(698.793 329.24 1.50231e-14)
(700.017 329.238 1.33319e-14)
(701.221 329.136 1.5391e-14)
(702.475 328.964 1.27412e-14)
(703.75 328.678 1.11882e-14)
(705.065 328.336 1.01161e-14)
(706.436 327.993 1.1284e-14)
(707.874 327.66 1.20603e-14)
(709.373 327.378 1.09714e-14)
(710.922 327.162 1.09527e-14)
(712.525 326.973 1.0884e-14)
(714.164 326.835 9.20424e-15)
(715.818 326.756 1.14394e-14)
(717.513 326.657 8.49492e-15)
(719.229 326.545 6.97335e-15)
(720.948 326.493 7.07984e-15)
(722.696 326.379 5.64169e-15)
(724.486 326.171 7.64207e-15)
(726.292 326.041 3.75129e-15)
(728.121 325.884 3.87652e-15)
(730.011 325.557 4.89261e-15)
(731.933 325.281 7.22505e-15)
(733.88 325.099 8.61555e-15)
(735.89 324.734 5.12414e-15)
(737.966 324.296 3.04834e-15)
(740.043 324.068 -6.40715e-16)
(742.124 323.827 2.04518e-16)
(744.327 323.409 1.63798e-15)
(746.513 322.991 1.78205e-15)
(748.64 322.851 9.58513e-16)
(750.818 322.843 2.42103e-15)
(753.001 322.573 4.80463e-15)
(755.143 322.183 8.84936e-16)
(757.304 322.028 4.03042e-15)
(759.385 322.164 7.3893e-15)
(761.56 322.343 2.49484e-15)
(763.89 322.004 1.30739e-15)
(765.216 321.857 3.00946e-15)
(767.374 321.943 2.75756e-15)
(769.243 322.201 1.03428e-15)
(771.246 322.269 2.80333e-15)
(772.649 322.407 3.21495e-15)
(774.443 322.631 3.98565e-15)
(776.403 322.975 3.18101e-15)
(778.177 323.176 5.18207e-15)
(779.804 323.413 3.30158e-15)
(781.508 323.621 4.08971e-15)
(783.148 323.859 -2.65177e-16)
(784.709 324.152 9.28362e-16)
(786.249 324.475 3.46013e-15)
(787.769 324.81 2.9197e-15)
(789.248 325.159 2.10881e-15)
(790.683 325.532 6.41244e-16)
(792.083 325.932 1.1411e-15)
(793.457 326.351 1.39191e-15)
(794.801 326.784 2.64755e-15)
(796.107 327.236 2.10906e-15)
(797.377 327.714 1.80769e-15)
(798.616 328.221 2.95802e-15)
(799.833 328.76 2.40404e-15)
(801.03 329.337 2.63492e-15)
(802.206 329.96 5.29729e-15)
(803.357 330.62 4.52222e-15)
(804.476 331.268 2.05432e-15)
(805.561 331.828 3.58146e-15)
(806.646 332.304 5.00915e-15)
(807.776 332.748 4.75704e-15)
(808.939 333.191 4.42528e-15)
(810.108 333.64 6.55849e-15)
(811.269 334.083 5.77616e-15)
(812.427 334.513 5.40583e-15)
(813.602 334.938 5.42329e-15)
(814.823 335.371 2.61106e-15)
(816.114 335.836 4.92284e-15)
(817.482 336.375 8.33032e-15)
(676.976 322.094 3.84436e-14)
(677.023 322.694 3.80136e-14)
(677.017 323.463 3.82813e-14)
(676.968 324.264 3.46745e-14)
(676.944 325.017 3.76344e-14)
(677.003 325.737 3.63466e-14)
(676.966 326.298 3.8382e-14)
(677.072 326.763 3.78608e-14)
(677.279 327.074 3.6573e-14)
(677.512 327.327 3.38246e-14)
(677.783 327.56 3.14705e-14)
(678.122 327.844 3.16556e-14)
(678.625 328.241 3.45019e-14)
(679.032 328.668 3.02971e-14)
(679.46 329.12 3.06052e-14)
(679.938 329.599 3.02902e-14)
(680.399 330.076 2.97847e-14)
(680.95 330.437 2.86035e-14)
(681.355 330.56 2.72116e-14)
(681.795 330.562 2.72921e-14)
(682.332 330.544 2.51312e-14)
(682.954 330.582 2.47984e-14)
(683.623 330.69 2.6021e-14)
(684.312 330.861 2.28862e-14)
(685.021 331.093 2.37998e-14)
(685.671 331.268 2.55141e-14)
(686.393 331.413 2.41081e-14)
(687.152 331.491 2.32809e-14)
(687.763 331.338 2.21597e-14)
(688.483 331.101 2.12383e-14)
(689.261 330.802 1.97472e-14)
(690.093 330.485 2.00675e-14)
(690.99 330.221 2.0562e-14)
(691.942 329.994 2.0236e-14)
(692.984 329.853 1.85832e-14)
(694.084 329.874 1.51837e-14)
(695.2 329.881 1.3246e-14)
(696.354 329.873 1.31764e-14)
(697.547 329.909 1.36171e-14)
(698.774 329.867 1.43383e-14)
(700.023 329.699 1.38746e-14)
(701.323 329.505 1.27611e-14)
(702.676 329.255 1.15971e-14)
(704.086 328.956 1.3836e-14)
(705.55 328.716 1.38144e-14)
(707.065 328.455 1.43631e-14)
(708.674 328.183 1.35215e-14)
(710.303 328.047 1.33098e-14)
(712.004 327.941 1.34929e-14)
(713.683 327.646 1.21997e-14)
(715.437 327.571 9.45759e-15)
(717.223 327.567 9.42761e-15)
(718.998 327.265 9.26854e-15)
(720.875 327.119 9.91606e-15)
(722.719 327.126 8.97911e-15)
(724.601 326.826 6.00453e-15)
(726.585 326.509 5.16897e-15)
(728.516 326.463 7.71568e-15)
(730.546 326.268 7.3823e-15)
(732.546 325.712 3.75203e-15)
(734.677 325.512 4.81748e-15)
(736.755 325.501 6.43806e-15)
(738.936 325.061 1.70917e-15)
(741.111 324.458 3.92885e-15)
(743.32 324.327 3.67379e-15)
(745.515 324.439 3.60721e-15)
(747.817 324.08 7.61345e-15)
(749.899 323.419 4.29734e-15)
(752.249 323.325 5.06524e-15)
(754.398 323.449 5.29605e-15)
(756.817 323.625 2.53713e-15)
(759.202 323.137 3.49413e-15)
(760.777 322.833 2.26952e-15)
(763.196 322.997 3.63292e-15)
(765.315 323.22 3.91076e-15)
(767.695 323.294 5.22316e-15)
(769.187 323.261 4.24432e-15)
(771.163 323.5 4.47785e-15)
(773.313 323.97 2.95214e-15)
(775.38 324.203 4.76988e-15)
(777.114 324.427 4.34978e-15)
(779.05 324.679 5.54371e-15)
(780.987 325.041 4.6379e-15)
(782.712 325.369 4.67836e-15)
(784.424 325.752 7.11847e-15)
(786.168 326.123 4.52595e-15)
(787.864 326.517 5.66246e-15)
(789.484 326.969 3.94976e-15)
(791.058 327.463 2.64286e-15)
(792.612 327.977 3.16341e-15)
(794.141 328.499 3.05725e-15)
(795.625 329.035 3.48435e-15)
(797.053 329.596 3.85487e-15)
(798.432 330.188 2.59182e-16)
(799.773 330.805 3.41452e-15)
(801.072 331.447 5.14103e-15)
(802.323 332.111 4.07433e-15)
(803.522 332.776 5.98464e-15)
(804.677 333.402 4.83476e-15)
(805.804 333.971 3.89546e-15)
(806.923 334.493 4.2858e-15)
(808.054 334.975 3.7692e-15)
(809.215 335.421 7.71755e-15)
(810.408 335.839 3.13412e-15)
(811.614 336.235 8.91437e-15)
(812.841 336.621 5.04639e-15)
(814.096 337.078 7.90795e-15)
(815.347 337.604 5.47856e-15)
(816.606 338.164 5.55686e-15)
(817.878 338.802 6.42979e-15)
(670.748 326.572 4.47371e-14)
(670.931 326.781 4.53448e-14)
(671.186 327.029 4.39786e-14)
(671.524 327.353 4.35808e-14)
(671.881 327.755 4.5032e-14)
(672.179 328.167 4.4965e-14)
(672.52 328.539 4.48956e-14)
(672.886 328.973 4.20844e-14)
(673.235 329.355 4.34047e-14)
(673.618 329.532 4.1738e-14)
(673.926 329.579 4.08939e-14)
(674.303 329.581 4.1374e-14)
(674.78 329.632 4.0399e-14)
(675.296 329.691 3.6777e-14)
(675.794 329.835 3.65413e-14)
(676.311 330.042 3.74948e-14)
(676.814 330.296 3.85311e-14)
(677.331 330.56 3.77696e-14)
(677.845 330.779 3.52252e-14)
(678.367 330.877 3.21698e-14)
(678.925 330.954 3.31782e-14)
(679.488 331.01 3.21235e-14)
(680.095 331.084 3.45008e-14)
(680.738 331.194 3.29285e-14)
(681.429 331.386 2.91402e-14)
(682.121 331.587 2.94918e-14)
(682.809 331.857 3.01729e-14)
(683.54 332.096 2.85872e-14)
(684.262 332.27 2.51051e-14)
(684.98 332.341 2.29291e-14)
(685.721 332.307 2.35634e-14)
(686.49 332.177 2.5382e-14)
(687.302 332.004 2.39553e-14)
(688.191 331.81 2.05963e-14)
(689.145 331.584 2.21124e-14)
(690.168 331.525 2.32839e-14)
(691.274 331.501 2.2539e-14)
(692.326 331.315 2.0734e-14)
(693.5 331.366 1.94217e-14)
(694.707 331.445 2.16759e-14)
(695.92 331.323 1.91091e-14)
(697.204 331.227 1.63371e-14)
(698.512 331.131 1.75116e-14)
(699.867 330.89 1.57697e-14)
(701.287 330.678 1.60057e-14)
(702.764 330.497 1.43322e-14)
(704.275 330.131 1.64617e-14)
(705.887 329.921 1.41842e-14)
(707.56 329.858 1.21357e-14)
(709.175 329.443 1.32447e-14)
(710.953 329.228 1.22299e-14)
(712.743 329.312 1.32835e-14)
(714.504 329.006 1.02675e-14)
(716.358 328.673 1.39812e-14)
(718.244 328.777 1.18709e-14)
(720.19 328.657 1.12446e-14)
(722.044 328.172 1.24186e-14)
(724.096 328.175 1.0083e-14)
(726.167 328.216 1.1669e-14)
(728.021 327.646 1.24294e-14)
(730.271 327.434 9.57059e-15)
(732.34 327.548 1.08315e-14)
(734.505 327.233 8.75267e-15)
(736.501 326.548 8.81688e-15)
(738.877 326.5 5.34853e-15)
(741.032 326.63 1.03732e-14)
(743.388 326.262 7.55239e-15)
(745.267 325.502 4.87215e-15)
(747.731 325.482 7.46504e-15)
(749.902 325.567 7.89023e-15)
(752.448 325.636 5.51831e-15)
(754.589 325.069 3.99221e-15)
(756.458 324.705 3.86215e-15)
(758.951 324.914 4.62468e-15)
(761.188 325.057 1.1174e-15)
(763.814 325.077 2.9283e-15)
(765.54 324.876 4.12214e-15)
(767.601 325.046 3.08119e-15)
(769.863 325.56 3.60078e-15)
(772.093 325.833 3.19e-15)
(773.905 326 2.98146e-15)
(776.006 326.24 4.81533e-15)
(778.033 326.682 7.12043e-15)
(780.036 326.993 7.0516e-15)
(781.785 327.344 7.72014e-15)
(783.612 327.75 9.39191e-15)
(785.546 328.135 8.12686e-15)
(787.34 328.584 6.16053e-15)
(789.028 329.138 7.97297e-15)
(790.702 329.713 8.8547e-15)
(792.376 330.271 9.79129e-15)
(794.015 330.819 8.49701e-15)
(795.584 331.401 1.06883e-14)
(797.085 332.019 6.93659e-15)
(798.541 332.65 7.88862e-15)
(799.951 333.29 5.86861e-15)
(801.303 333.938 6.30895e-15)
(802.596 334.585 6.2183e-15)
(803.841 335.211 4.67671e-15)
(805.053 335.81 7.61498e-15)
(806.242 336.371 7.16029e-15)
(807.411 336.882 6.74023e-15)
(808.608 337.371 5.0145e-15)
(809.865 337.88 5.23384e-15)
(811.088 338.365 5.96505e-15)
(812.33 338.842 5.38035e-15)
(813.601 339.35 7.90949e-15)
(814.877 339.926 7.8083e-15)
(816.133 340.588 8.99308e-15)
(817.35 341.335 7.4702e-15)
(666.913 328.58 5.21877e-14)
(667.219 328.614 5.10125e-14)
(667.537 328.584 4.9587e-14)
(667.93 328.563 5.16789e-14)
(668.373 328.568 5.00903e-14)
(668.791 328.654 4.82022e-14)
(669.216 328.817 4.80077e-14)
(669.628 329.026 5.03945e-14)
(670.006 329.244 4.82202e-14)
(670.411 329.452 4.76794e-14)
(670.803 329.605 4.6224e-14)
(671.207 329.691 4.42594e-14)
(671.62 329.761 4.41531e-14)
(672.072 329.842 4.21247e-14)
(672.547 329.957 4.42864e-14)
(673.03 330.135 4.34714e-14)
(673.527 330.375 4.23696e-14)
(674.04 330.668 4.12655e-14)
(674.562 330.99 4.07247e-14)
(675.08 331.299 3.91965e-14)
(675.601 331.562 4.06677e-14)
(676.14 331.76 3.61873e-14)
(676.715 331.923 3.43736e-14)
(677.327 332.1 3.42938e-14)
(677.97 332.286 3.33164e-14)
(678.657 332.488 3.30865e-14)
(679.354 332.727 3.09515e-14)
(680.076 332.999 3.10066e-14)
(680.818 333.263 3.30663e-14)
(681.579 333.476 2.85508e-14)
(682.363 333.627 3.08488e-14)
(683.16 333.692 3.00672e-14)
(683.984 333.691 3.21796e-14)
(684.854 333.639 3.01399e-14)
(685.766 333.48 2.95971e-14)
(686.755 333.391 2.81038e-14)
(687.837 333.373 2.74781e-14)
(688.847 333.138 2.64796e-14)
(690.017 333.088 2.57548e-14)
(691.246 333.223 2.52517e-14)
(692.4 333.104 2.46821e-14)
(693.654 332.984 2.24132e-14)
(694.989 333.062 2.29996e-14)
(696.312 332.932 1.90494e-14)
(697.7 332.717 1.84082e-14)
(699.172 332.671 1.93671e-14)
(700.642 332.4 1.97715e-14)
(702.208 332.094 1.75378e-14)
(703.85 332.064 1.83647e-14)
(705.478 331.742 1.93361e-14)
(707.176 331.345 2.06968e-14)
(708.97 331.385 1.88558e-14)
(710.822 331.196 1.63958e-14)
(712.491 330.703 1.68026e-14)
(714.464 330.734 1.72094e-14)
(716.5 330.73 1.63208e-14)
(718.161 330.234 1.34412e-14)
(720.299 330.128 1.46289e-14)
(722.395 330.248 1.33538e-14)
(724.25 329.837 1.57121e-14)
(726.39 329.507 1.12074e-14)
(728.536 329.634 1.19832e-14)
(730.795 329.464 1.27537e-14)
(732.592 328.885 1.22457e-14)
(735.058 328.865 1.19111e-14)
(737.245 328.946 1.23721e-14)
(739.522 328.531 1.18249e-14)
(741.311 327.954 1.08606e-14)
(743.827 328.005 1.06468e-14)
(745.991 328.053 8.5698e-15)
(748.637 327.907 1.13944e-14)
(750.351 327.326 9.82594e-15)
(752.588 327.123 9.32987e-15)
(755.031 327.311 9.64765e-15)
(757.268 327.398 5.32987e-15)
(760.029 327.257 4.5101e-15)
(761.727 326.945 6.23516e-15)
(764.019 327.062 4.01431e-15)
(766.332 327.574 5.08523e-15)
(768.663 327.843 7.07559e-15)
(770.499 327.933 5.40957e-15)
(772.695 328.146 6.78582e-15)
(774.794 328.586 8.19459e-15)
(776.93 328.931 9.73174e-15)
(778.745 329.171 6.03944e-15)
(780.593 329.551 8.29638e-15)
(782.631 329.926 8.41392e-15)
(784.527 330.44 1.30523e-14)
(786.381 330.993 1.0403e-14)
(788.099 331.502 1.1849e-14)
(789.816 332.087 9.93258e-15)
(791.552 332.624 1.4231e-14)
(793.284 333.186 1.18592e-14)
(794.876 333.783 1.17329e-14)
(796.422 334.402 1.23359e-14)
(797.925 335.017 1.18763e-14)
(799.37 335.638 1.2981e-14)
(800.759 336.268 8.86599e-15)
(802.098 336.895 8.7794e-15)
(803.396 337.517 9.14068e-15)
(804.67 338.121 9.67172e-15)
(805.918 338.684 9.62163e-15)
(807.152 339.217 1.08559e-14)
(808.403 339.741 9.12122e-15)
(809.666 340.273 9.59855e-15)
(810.934 340.824 8.30713e-15)
(812.206 341.413 7.73644e-15)
(813.471 342.056 9.02514e-15)
(814.708 342.769 9.6951e-15)
(815.899 343.537 1.01107e-14)
(663.914 328.167 5.82123e-14)
(664.258 328.296 5.89878e-14)
(664.585 328.381 5.93127e-14)
(664.929 328.419 5.96721e-14)
(665.3 328.452 5.90987e-14)
(665.682 328.527 5.87247e-14)
(666.071 328.662 5.56216e-14)
(666.463 328.859 5.6631e-14)
(666.852 329.103 5.52897e-14)
(667.243 329.386 5.35766e-14)
(667.63 329.676 5.18695e-14)
(668.013 329.933 5.18116e-14)
(668.395 330.16 5.17223e-14)
(668.79 330.357 4.97667e-14)
(669.216 330.532 4.85768e-14)