/*--------------------------------*- C++ -*----------------------------------*\
| =========                 |                                                 |
| \\      /  F ield         | OpenFOAM: The Open Source CFD Toolbox           |
|  \\    /   O peration     | Version:  v1706                                 |
|   \\  /    A nd           | Web:      www.OpenFOAM.com                      |
|    \\/     M anipulation  |                                                 |
\*---------------------------------------------------------------------------*/
FoamFile
{
    version     2.0;
    format      ascii;
    class       volScalarField;
    location    "3.4e-05";
    object      wallHeatFlux;
}
// * * * * * * * * * * * * * * * * * * * * * * * * * * * * * * * * * * * * * //

dimensions      [1 0 -3 0 0 0 0];


internalField   uniform 0;

boundaryField
{
    cone
    {
        type            calculated;
        value           nonuniform List<scalar> 
181
(
1179.92
1241.89
1304.54
1367.02
1428.3
1487.67
1544.47
1597.72
1646.7
1691.08
1730.6
1765.11
1794.64
1819.4
1839.8
1856.47
1870.03
1881.39
1891.59
1901.69
1913.21
1928.38
1946.98
1970.62
2000.55
2038.02
2084.01
2139.17
2203.73
2277.42
2359.34
2447.77
2540.03
2632.3
2719.51
2795.36
2852.5
2882.95
2878.77
2835.95
2745.23
2601.07
2405.19
2162.39
1880.93
1571.9
1247.55
919.893
599.56
294.7
10.7625
-249.149
-483.839
-693.52
-879.324
-1042.93
-1186.27
-1311.34
-1420.09
-1514.36
-1595.88
-1666.07
-1726.14
-1777.89
-1822.1
-1859.14
-1890.06
-1915.68
-1936.64
-1953.45
-1966.55
-1976.47
-1983.56
-1987.91
-1989.77
-1989.43
-1987.03
-1982.7
-1976.53
-1968.58
-1958.93
-1947.6
-1934.63
-1920.05
-1903.91
-1886.23
-1867.09
-1846.52
-1824.62
-1801.46
-1777.16
-1751.82
-1725.58
-1698.59
-1670.99
-1642.94
-1614.61
-1586.17
-1557.79
-1529.65
-1501.91
-1474.74
-1448.29
-1422.7
-1398.11
-1374.62
-1352.33
-1331.31
-1311.63
-1293.32
-1276.41
-1260.87
-1246.72
-1233.95
-1222.54
-1212.49
-1203.78
-1196.42
-1190.41
-1185.77
-1182.54
-1180.76
-1180.48
-1181.76
-1184.73
-1189.45
-1195.94
-1204.24
-1214.34
-1226.21
-1239.78
-1254.93
-1271.52
-1289.31
-1308.05
-1327.4
-1347.01
-1366.48
-1385.38
-1403.27
-1419.69
-1434.2
-1446.35
-1455.78
-1462.3
-1465.43
-1464.74
-1460.18
-1451.58
-1438.86
-1421.96
-1400.92
-1375.84
-1346.9
-1314.34
-1278.47
-1239.67
-1198.39
-1155.15
-1110.53
-1065.19
-1019.84
-975.244
-932.228
-891.64
-854.34
-821.168
-792.927
-770.349
-754.088
-744.744
-742.015
-745.056
-754.126
-768.738
-788.143
-812.028
-839.412
-869.264
-900.655
-932.729
)
;
    }
    inlet
    {
        type            calculated;
        value           uniform 0;
    }
    rWedge
    {
        type            wedge;
    }
    lWedge
    {
        type            wedge;
    }
    outlet
    {
        type            calculated;
        value           nonuniform 0();
    }
    procBoundary1to0
    {
        type            processor;
        value           uniform 0;
    }
    procBoundary1to2
    {
        type            processor;
        value           uniform 0;
    }
}


// ************************************************************************* //
