# Force coefficients
# liftDir    : (0.000000e+00 1.000000e+00 0.000000e+00)
# dragDir    : (1.000000e+00 0.000000e+00 0.000000e+00)
# pitchAxis  : (0.000000e+00 0.000000e+00 1.000000e+00)
# magUInf    : 2.764500e+03
# lRef       : 5.000000e-02
# Aref       : 1.966460e-05
# CofR       : (0.000000e+00 0.000000e+00 0.000000e+00)
#            
# Time       	Cm           	Cd           	Cl           	Cl(f)        	Cl(r)        
2.000075131e-05	-6.900571e-01	4.480837e-01	-8.010198e-01	-1.090567e+00	2.895472e-01
2.000150263e-05	-6.900733e-01	4.480922e-01	-8.010348e-01	-1.090591e+00	2.895559e-01
2.000225394e-05	-6.900860e-01	4.480992e-01	-8.010465e-01	-1.090609e+00	2.895627e-01
2.000300526e-05	-6.900982e-01	4.481061e-01	-8.010577e-01	-1.090627e+00	2.895693e-01
2.000375657e-05	-6.901102e-01	4.481129e-01	-8.010688e-01	-1.090645e+00	2.895758e-01
2.000450789e-05	-6.901222e-01	4.481197e-01	-8.010799e-01	-1.090662e+00	2.895823e-01
2.00052592e-05	-6.901343e-01	4.481265e-01	-8.010909e-01	-1.090680e+00	2.895888e-01
2.000601052e-05	-6.901463e-01	4.481333e-01	-8.011020e-01	-1.090697e+00	2.895953e-01
2.000676183e-05	-6.901583e-01	4.481402e-01	-8.011130e-01	-1.090715e+00	2.896018e-01
2.000751315e-05	-6.901704e-01	4.481470e-01	-8.011241e-01	-1.090732e+00	2.896083e-01
2.000826446e-05	-6.901824e-01	4.481538e-01	-8.011352e-01	-1.090750e+00	2.896148e-01
2.000901578e-05	-6.901945e-01	4.481606e-01	-8.011463e-01	-1.090768e+00	2.896214e-01
2.000976709e-05	-6.902066e-01	4.481675e-01	-8.011573e-01	-1.090785e+00	2.896279e-01
2.001051841e-05	-6.902187e-01	4.481743e-01	-8.011684e-01	-1.090803e+00	2.896344e-01
2.001126972e-05	-6.902308e-01	4.481811e-01	-8.011795e-01	-1.090821e+00	2.896410e-01
2.001202104e-05	-6.902429e-01	4.481880e-01	-8.011907e-01	-1.090838e+00	2.896475e-01
2.001277235e-05	-6.902550e-01	4.481948e-01	-8.012018e-01	-1.090856e+00	2.896541e-01
2.001352367e-05	-6.902671e-01	4.482017e-01	-8.012129e-01	-1.090874e+00	2.896607e-01
2.001427498e-05	-6.902793e-01	4.482085e-01	-8.012240e-01	-1.090891e+00	2.896672e-01
2.00150263e-05	-6.902914e-01	4.482154e-01	-8.012352e-01	-1.090909e+00	2.896738e-01
2.001577761e-05	-6.903036e-01	4.482222e-01	-8.012464e-01	-1.090927e+00	2.896804e-01
2.001652893e-05	-6.903158e-01	4.482291e-01	-8.012575e-01	-1.090945e+00	2.896870e-01
2.001728024e-05	-6.903280e-01	4.482360e-01	-8.012687e-01	-1.090962e+00	2.896936e-01
2.001803156e-05	-6.903402e-01	4.482429e-01	-8.012799e-01	-1.090980e+00	2.897002e-01
2.001878287e-05	-6.903524e-01	4.482497e-01	-8.012911e-01	-1.090998e+00	2.897068e-01
2.001953418e-05	-6.903646e-01	4.482566e-01	-8.013023e-01	-1.091016e+00	2.897135e-01
2.00202855e-05	-6.903768e-01	4.482635e-01	-8.013135e-01	-1.091034e+00	2.897201e-01
2.002103681e-05	-6.903891e-01	4.482704e-01	-8.013247e-01	-1.091051e+00	2.897267e-01
2.002178813e-05	-6.904013e-01	4.482773e-01	-8.013359e-01	-1.091069e+00	2.897334e-01
2.002253944e-05	-6.904136e-01	4.482842e-01	-8.013471e-01	-1.091087e+00	2.897400e-01
2.002329076e-05	-6.904259e-01	4.482911e-01	-8.013584e-01	-1.091105e+00	2.897467e-01
2.002404207e-05	-6.904382e-01	4.482980e-01	-8.013696e-01	-1.091123e+00	2.897533e-01
2.002479339e-05	-6.904505e-01	4.483049e-01	-8.013809e-01	-1.091141e+00	2.897600e-01
2.00255447e-05	-6.904628e-01	4.483118e-01	-8.013921e-01	-1.091159e+00	2.897667e-01
2.002629602e-05	-6.904751e-01	4.483188e-01	-8.014034e-01	-1.091177e+00	2.897734e-01
2.002704733e-05	-6.904874e-01	4.483257e-01	-8.014147e-01	-1.091195e+00	2.897801e-01
2.002779865e-05	-6.904998e-01	4.483326e-01	-8.014260e-01	-1.091213e+00	2.897868e-01
2.002854996e-05	-6.905121e-01	4.483396e-01	-8.014373e-01	-1.091231e+00	2.897935e-01
2.002930128e-05	-6.905245e-01	4.483465e-01	-8.014486e-01	-1.091249e+00	2.898002e-01
2.003005259e-05	-6.905369e-01	4.483534e-01	-8.014599e-01	-1.091267e+00	2.898069e-01
2.003080391e-05	-6.905492e-01	4.483604e-01	-8.014712e-01	-1.091285e+00	2.898136e-01
2.003155522e-05	-6.905616e-01	4.483673e-01	-8.014826e-01	-1.091303e+00	2.898204e-01
2.003230654e-05	-6.905741e-01	4.483743e-01	-8.014939e-01	-1.091321e+00	2.898271e-01
2.003305785e-05	-6.905865e-01	4.483812e-01	-8.015052e-01	-1.091339e+00	2.898339e-01
2.003380917e-05	-6.905989e-01	4.483882e-01	-8.015166e-01	-1.091357e+00	2.898406e-01
2.003456048e-05	-6.906113e-01	4.483951e-01	-8.015280e-01	-1.091375e+00	2.898474e-01
2.00353118e-05	-6.906238e-01	4.484021e-01	-8.015393e-01	-1.091393e+00	2.898541e-01
2.003606311e-05	-6.906363e-01	4.484091e-01	-8.015507e-01	-1.091412e+00	2.898609e-01
2.003681443e-05	-6.906487e-01	4.484161e-01	-8.015621e-01	-1.091430e+00	2.898677e-01
2.003756574e-05	-6.906612e-01	4.484230e-01	-8.015735e-01	-1.091448e+00	2.898745e-01
2.003831705e-05	-6.906737e-01	4.484300e-01	-8.015849e-01	-1.091466e+00	2.898813e-01
2.003906837e-05	-6.906862e-01	4.484370e-01	-8.015963e-01	-1.091484e+00	2.898881e-01
2.003981968e-05	-6.906987e-01	4.484440e-01	-8.016077e-01	-1.091503e+00	2.898949e-01
2.0040571e-05	-6.907113e-01	4.484510e-01	-8.016192e-01	-1.091521e+00	2.899017e-01
2.004132231e-05	-6.907238e-01	4.484580e-01	-8.016306e-01	-1.091539e+00	2.899085e-01
2.004207363e-05	-6.907363e-01	4.484650e-01	-8.016420e-01	-1.091557e+00	2.899153e-01
2.004282494e-05	-6.907489e-01	4.484720e-01	-8.016535e-01	-1.091576e+00	2.899222e-01
2.004357626e-05	-6.907615e-01	4.484790e-01	-8.016650e-01	-1.091594e+00	2.899290e-01
2.004432757e-05	-6.907741e-01	4.484860e-01	-8.016764e-01	-1.091612e+00	2.899358e-01
2.004507889e-05	-6.907866e-01	4.484930e-01	-8.016879e-01	-1.091631e+00	2.899427e-01
2.00458302e-05	-6.907992e-01	4.485000e-01	-8.016994e-01	-1.091649e+00	2.899495e-01
2.004658152e-05	-6.908119e-01	4.485071e-01	-8.017109e-01	-1.091667e+00	2.899564e-01
2.004733283e-05	-6.908245e-01	4.485141e-01	-8.017224e-01	-1.091686e+00	2.899633e-01
2.004808415e-05	-6.908371e-01	4.485211e-01	-8.017339e-01	-1.091704e+00	2.899702e-01
2.004883546e-05	-6.908498e-01	4.485282e-01	-8.017454e-01	-1.091722e+00	2.899770e-01
2.004958678e-05	-6.908624e-01	4.485352e-01	-8.017569e-01	-1.091741e+00	2.899839e-01
2.005033809e-05	-6.908751e-01	4.485422e-01	-8.017685e-01	-1.091759e+00	2.899908e-01
2.005108941e-05	-6.908877e-01	4.485493e-01	-8.017800e-01	-1.091778e+00	2.899977e-01
2.005184072e-05	-6.909004e-01	4.485563e-01	-8.017916e-01	-1.091796e+00	2.900047e-01
2.005259204e-05	-6.909131e-01	4.485634e-01	-8.018031e-01	-1.091815e+00	2.900116e-01
2.005334335e-05	-6.909258e-01	4.485705e-01	-8.018147e-01	-1.091833e+00	2.900185e-01
2.005409467e-05	-6.909385e-01	4.485775e-01	-8.018262e-01	-1.091852e+00	2.900254e-01
2.005484598e-05	-6.909513e-01	4.485846e-01	-8.018378e-01	-1.091870e+00	2.900324e-01
2.00555973e-05	-6.909640e-01	4.485916e-01	-8.018494e-01	-1.091889e+00	2.900393e-01
2.005634861e-05	-6.909768e-01	4.485987e-01	-8.018610e-01	-1.091907e+00	2.900463e-01
2.005709992e-05	-6.909895e-01	4.486058e-01	-8.018726e-01	-1.091926e+00	2.900532e-01
2.005785124e-05	-6.910023e-01	4.486129e-01	-8.018842e-01	-1.091944e+00	2.900602e-01
2.005860255e-05	-6.910151e-01	4.486200e-01	-8.018958e-01	-1.091963e+00	2.900671e-01
2.005935387e-05	-6.910278e-01	4.486270e-01	-8.019075e-01	-1.091982e+00	2.900741e-01
2.006010518e-05	-6.910406e-01	4.486341e-01	-8.019191e-01	-1.092000e+00	2.900811e-01
2.00608565e-05	-6.910535e-01	4.486412e-01	-8.019307e-01	-1.092019e+00	2.900881e-01
2.006160781e-05	-6.910663e-01	4.486483e-01	-8.019424e-01	-1.092037e+00	2.900951e-01
2.006235913e-05	-6.910791e-01	4.486554e-01	-8.019540e-01	-1.092056e+00	2.901021e-01
2.006311044e-05	-6.910919e-01	4.486625e-01	-8.019657e-01	-1.092075e+00	2.901091e-01
2.006386176e-05	-6.911048e-01	4.486696e-01	-8.019774e-01	-1.092093e+00	2.901161e-01
2.006461307e-05	-6.911177e-01	4.486767e-01	-8.019891e-01	-1.092112e+00	2.901231e-01
2.006536439e-05	-6.911305e-01	4.486839e-01	-8.020008e-01	-1.092131e+00	2.901302e-01
2.00661157e-05	-6.911434e-01	4.486910e-01	-8.020125e-01	-1.092150e+00	2.901372e-01
2.006686702e-05	-6.911563e-01	4.486981e-01	-8.020242e-01	-1.092168e+00	2.901442e-01
2.006761833e-05	-6.911692e-01	4.487052e-01	-8.020359e-01	-1.092187e+00	2.901513e-01
2.006836965e-05	-6.911821e-01	4.487124e-01	-8.020476e-01	-1.092206e+00	2.901583e-01
2.006912096e-05	-6.911950e-01	4.487195e-01	-8.020593e-01	-1.092225e+00	2.901654e-01
2.006987228e-05	-6.912080e-01	4.487266e-01	-8.020710e-01	-1.092243e+00	2.901724e-01
2.007062359e-05	-6.912209e-01	4.487338e-01	-8.020828e-01	-1.092262e+00	2.901795e-01
2.007137491e-05	-6.912339e-01	4.487409e-01	-8.020945e-01	-1.092281e+00	2.901866e-01
2.007212622e-05	-6.912468e-01	4.487481e-01	-8.021063e-01	-1.092300e+00	2.901937e-01
2.007287754e-05	-6.912598e-01	4.487552e-01	-8.021181e-01	-1.092319e+00	2.902008e-01
2.007362885e-05	-6.912728e-01	4.487624e-01	-8.021298e-01	-1.092338e+00	2.902079e-01
2.007438017e-05	-6.912858e-01	4.487695e-01	-8.021416e-01	-1.092357e+00	2.902150e-01
2.007513148e-05	-6.912988e-01	4.487767e-01	-8.021534e-01	-1.092375e+00	2.902221e-01
2.007588279e-05	-6.913118e-01	4.487839e-01	-8.021652e-01	-1.092394e+00	2.902292e-01
2.007663411e-05	-6.913248e-01	4.487910e-01	-8.021770e-01	-1.092413e+00	2.902363e-01
2.007738542e-05	-6.913378e-01	4.487982e-01	-8.021888e-01	-1.092432e+00	2.902434e-01
2.007813674e-05	-6.913509e-01	4.488054e-01	-8.022006e-01	-1.092451e+00	2.902506e-01
2.007888805e-05	-6.913639e-01	4.488126e-01	-8.022124e-01	-1.092470e+00	2.902577e-01
2.007963937e-05	-6.913770e-01	4.488197e-01	-8.022243e-01	-1.092489e+00	2.902648e-01
2.008039068e-05	-6.913901e-01	4.488269e-01	-8.022361e-01	-1.092508e+00	2.902720e-01
2.0081142e-05	-6.914031e-01	4.488341e-01	-8.022480e-01	-1.092527e+00	2.902792e-01
2.008189331e-05	-6.914162e-01	4.488413e-01	-8.022598e-01	-1.092546e+00	2.902863e-01
2.008264463e-05	-6.914293e-01	4.488485e-01	-8.022717e-01	-1.092565e+00	2.902935e-01
2.008339594e-05	-6.914424e-01	4.488557e-01	-8.022835e-01	-1.092584e+00	2.903007e-01
2.008414726e-05	-6.914556e-01	4.488629e-01	-8.022954e-01	-1.092603e+00	2.903078e-01
2.008489857e-05	-6.914687e-01	4.488701e-01	-8.023073e-01	-1.092622e+00	2.903150e-01
2.008564989e-05	-6.914818e-01	4.488773e-01	-8.023192e-01	-1.092641e+00	2.903222e-01
2.00864012e-05	-6.914950e-01	4.488845e-01	-8.023311e-01	-1.092661e+00	2.903294e-01
2.008715252e-05	-6.915081e-01	4.488918e-01	-8.023430e-01	-1.092680e+00	2.903366e-01
2.008790383e-05	-6.915213e-01	4.488990e-01	-8.023549e-01	-1.092699e+00	2.903438e-01
2.008865515e-05	-6.915345e-01	4.489062e-01	-8.023668e-01	-1.092718e+00	2.903511e-01
2.008940646e-05	-6.915477e-01	4.489134e-01	-8.023788e-01	-1.092737e+00	2.903583e-01
2.009015778e-05	-6.915609e-01	4.489207e-01	-8.023907e-01	-1.092756e+00	2.903655e-01
2.009090909e-05	-6.915741e-01	4.489279e-01	-8.024026e-01	-1.092775e+00	2.903728e-01
2.009166041e-05	-6.915873e-01	4.489351e-01	-8.024146e-01	-1.092795e+00	2.903800e-01
2.009241172e-05	-6.916005e-01	4.489424e-01	-8.024265e-01	-1.092814e+00	2.903872e-01
2.009316304e-05	-6.916138e-01	4.489496e-01	-8.024385e-01	-1.092833e+00	2.903945e-01
2.009391435e-05	-6.916270e-01	4.489569e-01	-8.024505e-01	-1.092852e+00	2.904018e-01
2.009466566e-05	-6.916403e-01	4.489641e-01	-8.024625e-01	-1.092871e+00	2.904090e-01
2.009541698e-05	-6.916535e-01	4.489714e-01	-8.024744e-01	-1.092891e+00	2.904163e-01
2.009616829e-05	-6.916668e-01	4.489786e-01	-8.024864e-01	-1.092910e+00	2.904236e-01
2.009691961e-05	-6.916801e-01	4.489859e-01	-8.024984e-01	-1.092929e+00	2.904309e-01
2.009767092e-05	-6.916934e-01	4.489932e-01	-8.025104e-01	-1.092949e+00	2.904382e-01
2.009842224e-05	-6.917067e-01	4.490004e-01	-8.025225e-01	-1.092968e+00	2.904455e-01
2.009917355e-05	-6.917200e-01	4.490077e-01	-8.025345e-01	-1.092987e+00	2.904528e-01
2.009992487e-05	-6.917333e-01	4.490150e-01	-8.025465e-01	-1.093007e+00	2.904601e-01
2.010067618e-05	-6.917467e-01	4.490223e-01	-8.025585e-01	-1.093026e+00	2.904674e-01
2.01014275e-05	-6.917600e-01	4.490295e-01	-8.025706e-01	-1.093045e+00	2.904747e-01
2.010217881e-05	-6.917734e-01	4.490368e-01	-8.025826e-01	-1.093065e+00	2.904820e-01
2.010293013e-05	-6.917867e-01	4.490441e-01	-8.025947e-01	-1.093084e+00	2.904894e-01
2.010368144e-05	-6.918001e-01	4.490514e-01	-8.026068e-01	-1.093103e+00	2.904967e-01
2.010443276e-05	-6.918135e-01	4.490587e-01	-8.026188e-01	-1.093123e+00	2.905040e-01
2.010518407e-05	-6.918269e-01	4.490660e-01	-8.026309e-01	-1.093142e+00	2.905114e-01
2.010593539e-05	-6.918403e-01	4.490733e-01	-8.026430e-01	-1.093162e+00	2.905188e-01
2.01066867e-05	-6.918537e-01	4.490806e-01	-8.026551e-01	-1.093181e+00	2.905261e-01
2.010743802e-05	-6.918671e-01	4.490879e-01	-8.026672e-01	-1.093201e+00	2.905335e-01
2.010818933e-05	-6.918805e-01	4.490952e-01	-8.026793e-01	-1.093220e+00	2.905409e-01
2.010894065e-05	-6.918939e-01	4.491025e-01	-8.026914e-01	-1.093240e+00	2.905482e-01
2.010969196e-05	-6.919074e-01	4.491099e-01	-8.027035e-01	-1.093259e+00	2.905556e-01
2.011044328e-05	-6.919208e-01	4.491172e-01	-8.027157e-01	-1.093279e+00	2.905630e-01
2.011119459e-05	-6.919343e-01	4.491245e-01	-8.027278e-01	-1.093298e+00	2.905704e-01
2.011194591e-05	-6.919478e-01	4.491318e-01	-8.027399e-01	-1.093318e+00	2.905778e-01
2.011269722e-05	-6.919613e-01	4.491392e-01	-8.027521e-01	-1.093337e+00	2.905852e-01
2.011344853e-05	-6.919748e-01	4.491465e-01	-8.027642e-01	-1.093357e+00	2.905926e-01
2.011419985e-05	-6.919883e-01	4.491538e-01	-8.027764e-01	-1.093376e+00	2.906001e-01
2.011495116e-05	-6.920018e-01	4.491612e-01	-8.027886e-01	-1.093396e+00	2.906075e-01
2.011570248e-05	-6.920153e-01	4.491685e-01	-8.028007e-01	-1.093416e+00	2.906149e-01
2.011645379e-05	-6.920288e-01	4.491759e-01	-8.028129e-01	-1.093435e+00	2.906224e-01
2.011720511e-05	-6.920424e-01	4.491832e-01	-8.028251e-01	-1.093455e+00	2.906298e-01
2.011795642e-05	-6.920559e-01	4.491906e-01	-8.028373e-01	-1.093475e+00	2.906372e-01
2.011870774e-05	-6.920695e-01	4.491979e-01	-8.028495e-01	-1.093494e+00	2.906447e-01
2.011945905e-05	-6.920830e-01	4.492053e-01	-8.028617e-01	-1.093514e+00	2.906522e-01
2.012021037e-05	-6.920966e-01	4.492127e-01	-8.028739e-01	-1.093534e+00	2.906596e-01
2.012096168e-05	-6.921102e-01	4.492200e-01	-8.028862e-01	-1.093553e+00	2.906671e-01
2.0121713e-05	-6.921238e-01	4.492274e-01	-8.028984e-01	-1.093573e+00	2.906746e-01
2.012246431e-05	-6.921374e-01	4.492348e-01	-8.029106e-01	-1.093593e+00	2.906821e-01
2.012321563e-05	-6.921510e-01	4.492422e-01	-8.029229e-01	-1.093612e+00	2.906896e-01
2.012396694e-05	-6.921646e-01	4.492495e-01	-8.029351e-01	-1.093632e+00	2.906970e-01
2.012471826e-05	-6.921782e-01	4.492569e-01	-8.029474e-01	-1.093652e+00	2.907045e-01
2.012546957e-05	-6.921919e-01	4.492643e-01	-8.029597e-01	-1.093672e+00	2.907121e-01
2.012622089e-05	-6.922055e-01	4.492717e-01	-8.029719e-01	-1.093691e+00	2.907196e-01
2.01269722e-05	-6.922192e-01	4.492791e-01	-8.029842e-01	-1.093711e+00	2.907271e-01
2.012772352e-05	-6.922328e-01	4.492865e-01	-8.029965e-01	-1.093731e+00	2.907346e-01
2.012847483e-05	-6.922465e-01	4.492939e-01	-8.030088e-01	-1.093751e+00	2.907421e-01
2.012922615e-05	-6.922602e-01	4.493013e-01	-8.030211e-01	-1.093771e+00	2.907497e-01
2.012997746e-05	-6.922739e-01	4.493087e-01	-8.030334e-01	-1.093791e+00	2.907572e-01
2.013072878e-05	-6.922876e-01	4.493161e-01	-8.030457e-01	-1.093810e+00	2.907648e-01
2.013148009e-05	-6.923013e-01	4.493235e-01	-8.030580e-01	-1.093830e+00	2.907723e-01
2.01322314e-05	-6.923150e-01	4.493309e-01	-8.030703e-01	-1.093850e+00	2.907799e-01
2.013298272e-05	-6.923288e-01	4.493383e-01	-8.030827e-01	-1.093870e+00	2.907874e-01
2.013373403e-05	-6.923425e-01	4.493458e-01	-8.030950e-01	-1.093890e+00	2.907950e-01
2.013448535e-05	-6.923562e-01	4.493532e-01	-8.031074e-01	-1.093910e+00	2.908026e-01
2.013523666e-05	-6.923700e-01	4.493606e-01	-8.031197e-01	-1.093930e+00	2.908101e-01
2.013598798e-05	-6.923838e-01	4.493680e-01	-8.031321e-01	-1.093950e+00	2.908177e-01
2.013673929e-05	-6.923975e-01	4.493755e-01	-8.031444e-01	-1.093970e+00	2.908253e-01
2.013749061e-05	-6.924113e-01	4.493829e-01	-8.031568e-01	-1.093990e+00	2.908329e-01
2.013824192e-05	-6.924251e-01	4.493903e-01	-8.031692e-01	-1.094010e+00	2.908405e-01
2.013899324e-05	-6.924389e-01	4.493978e-01	-8.031816e-01	-1.094030e+00	2.908481e-01
2.013974455e-05	-6.924527e-01	4.494052e-01	-8.031940e-01	-1.094050e+00	2.908557e-01
2.014049587e-05	-6.924665e-01	4.494127e-01	-8.032063e-01	-1.094070e+00	2.908634e-01
2.014124718e-05	-6.924804e-01	4.494201e-01	-8.032188e-01	-1.094090e+00	2.908710e-01
2.01419985e-05	-6.924942e-01	4.494276e-01	-8.032312e-01	-1.094110e+00	2.908786e-01
2.014274981e-05	-6.925080e-01	4.494350e-01	-8.032436e-01	-1.094130e+00	2.908862e-01
2.014350113e-05	-6.925219e-01	4.494425e-01	-8.032560e-01	-1.094150e+00	2.908939e-01
2.014425244e-05	-6.925358e-01	4.494500e-01	-8.032684e-01	-1.094170e+00	2.909015e-01
2.014500376e-05	-6.925496e-01	4.494574e-01	-8.032809e-01	-1.094190e+00	2.909092e-01
2.014575507e-05	-6.925635e-01	4.494649e-01	-8.032933e-01	-1.094210e+00	2.909168e-01
2.014650639e-05	-6.925774e-01	4.494724e-01	-8.033058e-01	-1.094230e+00	2.909245e-01
2.01472577e-05	-6.925913e-01	4.494799e-01	-8.033182e-01	-1.094250e+00	2.909322e-01
2.014800902e-05	-6.926052e-01	4.494873e-01	-8.033307e-01	-1.094271e+00	2.909398e-01
2.014876033e-05	-6.926191e-01	4.494948e-01	-8.033432e-01	-1.094291e+00	2.909475e-01
2.014951165e-05	-6.926330e-01	4.495023e-01	-8.033556e-01	-1.094311e+00	2.909552e-01
2.015026296e-05	-6.926470e-01	4.495098e-01	-8.033681e-01	-1.094331e+00	2.909629e-01
2.015101427e-05	-6.926609e-01	4.495173e-01	-8.033806e-01	-1.094351e+00	2.909706e-01
2.015176559e-05	-6.926748e-01	4.495248e-01	-8.033931e-01	-1.094371e+00	2.909783e-01
2.01525169e-05	-6.926888e-01	4.495323e-01	-8.034056e-01	-1.094392e+00	2.909860e-01
2.015326822e-05	-6.927028e-01	4.495398e-01	-8.034181e-01	-1.094412e+00	2.909937e-01
2.015401953e-05	-6.927167e-01	4.495473e-01	-8.034306e-01	-1.094432e+00	2.910014e-01
2.015477085e-05	-6.927307e-01	4.495548e-01	-8.034431e-01	-1.094452e+00	2.910091e-01
2.015552216e-05	-6.927447e-01	4.495623e-01	-8.034557e-01	-1.094473e+00	2.910169e-01
2.015627348e-05	-6.927587e-01	4.495698e-01	-8.034682e-01	-1.094493e+00	2.910246e-01
2.015702479e-05	-6.927727e-01	4.495773e-01	-8.034807e-01	-1.094513e+00	2.910323e-01
2.015777611e-05	-6.927867e-01	4.495848e-01	-8.034933e-01	-1.094533e+00	2.910401e-01
2.015852742e-05	-6.928008e-01	4.495923e-01	-8.035058e-01	-1.094554e+00	2.910478e-01
2.015927874e-05	-6.928148e-01	4.495999e-01	-8.035184e-01	-1.094574e+00	2.910556e-01
2.016003005e-05	-6.928288e-01	4.496074e-01	-8.035309e-01	-1.094594e+00	2.910633e-01
2.016078137e-05	-6.928429e-01	4.496149e-01	-8.035435e-01	-1.094615e+00	2.910711e-01
2.016153268e-05	-6.928569e-01	4.496225e-01	-8.035561e-01	-1.094635e+00	2.910789e-01
2.0162284e-05	-6.928710e-01	4.496300e-01	-8.035687e-01	-1.094655e+00	2.910867e-01
2.016303531e-05	-6.928851e-01	4.496375e-01	-8.035813e-01	-1.094676e+00	2.910944e-01
2.016378663e-05	-6.928992e-01	4.496451e-01	-8.035939e-01	-1.094696e+00	2.911022e-01
2.016453794e-05	-6.929132e-01	4.496526e-01	-8.036065e-01	-1.094716e+00	2.911100e-01
2.016528926e-05	-6.929273e-01	4.496602e-01	-8.036191e-01	-1.094737e+00	2.911178e-01
2.016604057e-05	-6.929415e-01	4.496677e-01	-8.036317e-01	-1.094757e+00	2.911256e-01
2.016679189e-05	-6.929556e-01	4.496753e-01	-8.036443e-01	-1.094778e+00	2.911334e-01
2.01675432e-05	-6.929697e-01	4.496828e-01	-8.036569e-01	-1.094798e+00	2.911412e-01
2.016829452e-05	-6.929838e-01	4.496904e-01	-8.036696e-01	-1.094819e+00	2.911490e-01
2.016904583e-05	-6.929980e-01	4.496979e-01	-8.036822e-01	-1.094839e+00	2.911569e-01
2.016979715e-05	-6.930121e-01	4.497055e-01	-8.036948e-01	-1.094860e+00	2.911647e-01
2.017054846e-05	-6.930263e-01	4.497131e-01	-8.037075e-01	-1.094880e+00	2.911725e-01
2.017129977e-05	-6.930404e-01	4.497206e-01	-8.037202e-01	-1.094901e+00	2.911804e-01
2.017205109e-05	-6.930546e-01	4.497282e-01	-8.037328e-01	-1.094921e+00	2.911882e-01
2.01728024e-05	-6.930688e-01	4.497358e-01	-8.037455e-01	-1.094942e+00	2.911961e-01
2.017355372e-05	-6.930830e-01	4.497434e-01	-8.037582e-01	-1.094962e+00	2.912039e-01
2.017430503e-05	-6.930972e-01	4.497509e-01	-8.037708e-01	-1.094983e+00	2.912118e-01
2.017505635e-05	-6.931114e-01	4.497585e-01	-8.037835e-01	-1.095003e+00	2.912196e-01
2.017580766e-05	-6.931256e-01	4.497661e-01	-8.037962e-01	-1.095024e+00	2.912275e-01
2.017655898e-05	-6.931398e-01	4.497737e-01	-8.038089e-01	-1.095044e+00	2.912354e-01
2.017731029e-05	-6.931541e-01	4.497813e-01	-8.038216e-01	-1.095065e+00	2.912433e-01
2.017806161e-05	-6.931683e-01	4.497889e-01	-8.038343e-01	-1.095085e+00	2.912511e-01
2.017881292e-05	-6.931826e-01	4.497965e-01	-8.038471e-01	-1.095106e+00	2.912590e-01
2.017956424e-05	-6.931968e-01	4.498041e-01	-8.038598e-01	-1.095127e+00	2.912669e-01
2.018031555e-05	-6.932111e-01	4.498117e-01	-8.038725e-01	-1.095147e+00	2.912748e-01
2.018106687e-05	-6.932254e-01	4.498193e-01	-8.038852e-01	-1.095168e+00	2.912827e-01
2.018181818e-05	-6.932396e-01	4.498269e-01	-8.038980e-01	-1.095189e+00	2.912906e-01
2.01825695e-05	-6.932539e-01	4.498345e-01	-8.039107e-01	-1.095209e+00	2.912986e-01
2.018332081e-05	-6.932682e-01	4.498421e-01	-8.039235e-01	-1.095230e+00	2.913065e-01
2.018407213e-05	-6.932825e-01	4.498498e-01	-8.039362e-01	-1.095251e+00	2.913144e-01
2.018482344e-05	-6.932968e-01	4.498574e-01	-8.039490e-01	-1.095271e+00	2.913223e-01
2.018557476e-05	-6.933112e-01	4.498650e-01	-8.039618e-01	-1.095292e+00	2.913303e-01
2.018632607e-05	-6.933255e-01	4.498726e-01	-8.039746e-01	-1.095313e+00	2.913382e-01
2.018707739e-05	-6.933398e-01	4.498803e-01	-8.039873e-01	-1.095333e+00	2.913462e-01
2.01878287e-05	-6.933542e-01	4.498879e-01	-8.040001e-01	-1.095354e+00	2.913541e-01
2.018858002e-05	-6.933685e-01	4.498955e-01	-8.040129e-01	-1.095375e+00	2.913621e-01
2.018933133e-05	-6.933829e-01	4.499032e-01	-8.040257e-01	-1.095396e+00	2.913700e-01
2.019008264e-05	-6.933973e-01	4.499108e-01	-8.040385e-01	-1.095417e+00	2.913780e-01
2.019083396e-05	-6.934116e-01	4.499184e-01	-8.040513e-01	-1.095437e+00	2.913860e-01
2.019158527e-05	-6.934260e-01	4.499261e-01	-8.040642e-01	-1.095458e+00	2.913939e-01
2.019233659e-05	-6.934404e-01	4.499337e-01	-8.040770e-01	-1.095479e+00	2.914019e-01
2.01930879e-05	-6.934548e-01	4.499414e-01	-8.040898e-01	-1.095500e+00	2.914099e-01
2.019383922e-05	-6.934692e-01	4.499490e-01	-8.041026e-01	-1.095521e+00	2.914179e-01
2.019459053e-05	-6.934836e-01	4.499567e-01	-8.041155e-01	-1.095541e+00	2.914259e-01
2.019534185e-05	-6.934981e-01	4.499644e-01	-8.041283e-01	-1.095562e+00	2.914339e-01
2.019609316e-05	-6.935125e-01	4.499720e-01	-8.041412e-01	-1.095583e+00	2.914419e-01
2.019684448e-05	-6.935269e-01	4.499797e-01	-8.041540e-01	-1.095604e+00	2.914499e-01
2.019759579e-05	-6.935414e-01	4.499873e-01	-8.041669e-01	-1.095625e+00	2.914579e-01
2.019834711e-05	-6.935558e-01	4.499950e-01	-8.041798e-01	-1.095646e+00	2.914660e-01
2.019909842e-05	-6.935703e-01	4.500027e-01	-8.041927e-01	-1.095667e+00	2.914740e-01
2.019984974e-05	-6.935848e-01	4.500104e-01	-8.042055e-01	-1.095688e+00	2.914820e-01
2.020060105e-05	-6.935993e-01	4.500180e-01	-8.042184e-01	-1.095708e+00	2.914900e-01
2.020135237e-05	-6.936137e-01	4.500257e-01	-8.042313e-01	-1.095729e+00	2.914981e-01
2.020210368e-05	-6.936282e-01	4.500334e-01	-8.042442e-01	-1.095750e+00	2.915061e-01
2.0202855e-05	-6.936427e-01	4.500411e-01	-8.042571e-01	-1.095771e+00	2.915142e-01
2.020360631e-05	-6.936572e-01	4.500488e-01	-8.042700e-01	-1.095792e+00	2.915222e-01
2.020435763e-05	-6.936718e-01	4.500565e-01	-8.042829e-01	-1.095813e+00	2.915303e-01
2.020510894e-05	-6.936863e-01	4.500642e-01	-8.042959e-01	-1.095834e+00	2.915384e-01
2.020586026e-05	-6.937008e-01	4.500719e-01	-8.043088e-01	-1.095855e+00	2.915464e-01
2.020661157e-05	-6.937154e-01	4.500796e-01	-8.043217e-01	-1.095876e+00	2.915545e-01
2.020736289e-05	-6.937299e-01	4.500873e-01	-8.043347e-01	-1.095897e+00	2.915626e-01
2.02081142e-05	-6.937445e-01	4.500950e-01	-8.043476e-01	-1.095918e+00	2.915707e-01
2.020886551e-05	-6.937590e-01	4.501027e-01	-8.043606e-01	-1.095939e+00	2.915788e-01
2.020961683e-05	-6.937736e-01	4.501104e-01	-8.043735e-01	-1.095960e+00	2.915869e-01
2.021036814e-05	-6.937882e-01	4.501181e-01	-8.043865e-01	-1.095981e+00	2.915950e-01
2.021111946e-05	-6.938028e-01	4.501258e-01	-8.043994e-01	-1.096002e+00	2.916031e-01
2.021187077e-05	-6.938174e-01	4.501335e-01	-8.044124e-01	-1.096024e+00	2.916112e-01
2.021262209e-05	-6.938320e-01	4.501412e-01	-8.044254e-01	-1.096045e+00	2.916193e-01
2.02133734e-05	-6.938466e-01	4.501490e-01	-8.044384e-01	-1.096066e+00	2.916274e-01
2.021412472e-05	-6.938612e-01	4.501567e-01	-8.044514e-01	-1.096087e+00	2.916355e-01
2.021487603e-05	-6.938758e-01	4.501644e-01	-8.044644e-01	-1.096108e+00	2.916436e-01
2.021562735e-05	-6.938905e-01	4.501721e-01	-8.044774e-01	-1.096129e+00	2.916518e-01
2.021637866e-05	-6.939051e-01	4.501799e-01	-8.044904e-01	-1.096150e+00	2.916599e-01
2.021712998e-05	-6.939197e-01	4.501876e-01	-8.045034e-01	-1.096171e+00	2.916681e-01
2.021788129e-05	-6.939344e-01	4.501953e-01	-8.045164e-01	-1.096193e+00	2.916762e-01
2.021863261e-05	-6.939491e-01	4.502031e-01	-8.045294e-01	-1.096214e+00	2.916844e-01
2.021938392e-05	-6.939637e-01	4.502108e-01	-8.045424e-01	-1.096235e+00	2.916925e-01
2.022013524e-05	-6.939784e-01	4.502186e-01	-8.045555e-01	-1.096256e+00	2.917007e-01
2.022088655e-05	-6.939931e-01	4.502263e-01	-8.045685e-01	-1.096277e+00	2.917088e-01
2.022163787e-05	-6.940078e-01	4.502341e-01	-8.045815e-01	-1.096299e+00	2.917170e-01
2.022238918e-05	-6.940225e-01	4.502418e-01	-8.045946e-01	-1.096320e+00	2.917252e-01
2.02231405e-05	-6.940372e-01	4.502496e-01	-8.046076e-01	-1.096341e+00	2.917334e-01
2.022389181e-05	-6.940519e-01	4.502573e-01	-8.046207e-01	-1.096362e+00	2.917416e-01
2.022464313e-05	-6.940666e-01	4.502651e-01	-8.046338e-01	-1.096384e+00	2.917497e-01
2.022539444e-05	-6.940814e-01	4.502729e-01	-8.046468e-01	-1.096405e+00	2.917579e-01
2.022614576e-05	-6.940961e-01	4.502806e-01	-8.046599e-01	-1.096426e+00	2.917661e-01
2.022689707e-05	-6.941108e-01	4.502884e-01	-8.046730e-01	-1.096447e+00	2.917743e-01
2.022764838e-05	-6.941256e-01	4.502962e-01	-8.046861e-01	-1.096469e+00	2.917825e-01
2.02283997e-05	-6.941403e-01	4.503039e-01	-8.046992e-01	-1.096490e+00	2.917908e-01
2.022915101e-05	-6.941551e-01	4.503117e-01	-8.047123e-01	-1.096511e+00	2.917990e-01
2.022990233e-05	-6.941699e-01	4.503195e-01	-8.047254e-01	-1.096533e+00	2.918072e-01
2.023065364e-05	-6.941847e-01	4.503273e-01	-8.047385e-01	-1.096554e+00	2.918154e-01
2.023140496e-05	-6.941995e-01	4.503351e-01	-8.047516e-01	-1.096575e+00	2.918237e-01
2.023215627e-05	-6.942143e-01	4.503428e-01	-8.047647e-01	-1.096597e+00	2.918319e-01
2.023290759e-05	-6.942291e-01	4.503506e-01	-8.047778e-01	-1.096618e+00	2.918401e-01
2.02336589e-05	-6.942439e-01	4.503584e-01	-8.047910e-01	-1.096639e+00	2.918484e-01
2.023441022e-05	-6.942587e-01	4.503662e-01	-8.048041e-01	-1.096661e+00	2.918566e-01
2.023516153e-05	-6.942735e-01	4.503740e-01	-8.048172e-01	-1.096682e+00	2.918649e-01
2.023591285e-05	-6.942883e-01	4.503818e-01	-8.048304e-01	-1.096704e+00	2.918731e-01
2.023666416e-05	-6.943032e-01	4.503896e-01	-8.048435e-01	-1.096725e+00	2.918814e-01
2.023741548e-05	-6.943180e-01	4.503974e-01	-8.048567e-01	-1.096746e+00	2.918897e-01
2.023816679e-05	-6.943329e-01	4.504052e-01	-8.048699e-01	-1.096768e+00	2.918979e-01
2.023891811e-05	-6.943477e-01	4.504130e-01	-8.048830e-01	-1.096789e+00	2.919062e-01
2.023966942e-05	-6.943626e-01	4.504208e-01	-8.048962e-01	-1.096811e+00	2.919145e-01
2.024042074e-05	-6.943775e-01	4.504287e-01	-8.049094e-01	-1.096832e+00	2.919228e-01
2.024117205e-05	-6.943924e-01	4.504365e-01	-8.049225e-01	-1.096854e+00	2.919311e-01
2.024192337e-05	-6.944073e-01	4.504443e-01	-8.049357e-01	-1.096875e+00	2.919394e-01
2.024267468e-05	-6.944221e-01	4.504521e-01	-8.049489e-01	-1.096897e+00	2.919477e-01
2.0243426e-05	-6.944371e-01	4.504599e-01	-8.049621e-01	-1.096918e+00	2.919560e-01
2.024417731e-05	-6.944520e-01	4.504678e-01	-8.049753e-01	-1.096940e+00	2.919643e-01
2.024492863e-05	-6.944669e-01	4.504756e-01	-8.049885e-01	-1.096961e+00	2.919726e-01
2.024567994e-05	-6.944818e-01	4.504834e-01	-8.050017e-01	-1.096983e+00	2.919809e-01
2.024643125e-05	-6.944967e-01	4.504912e-01	-8.050150e-01	-1.097004e+00	2.919893e-01
2.024718257e-05	-6.945117e-01	4.504991e-01	-8.050282e-01	-1.097026e+00	2.919976e-01
2.024793388e-05	-6.945266e-01	4.505069e-01	-8.050414e-01	-1.097047e+00	2.920059e-01
2.02486852e-05	-6.945416e-01	4.505147e-01	-8.050546e-01	-1.097069e+00	2.920142e-01
2.024943651e-05	-6.945565e-01	4.505226e-01	-8.050679e-01	-1.097090e+00	2.920226e-01
2.025018783e-05	-6.945715e-01	4.505304e-01	-8.050811e-01	-1.097112e+00	2.920309e-01
2.025093914e-05	-6.945865e-01	4.505383e-01	-8.050944e-01	-1.097134e+00	2.920393e-01
2.025169046e-05	-6.946015e-01	4.505461e-01	-8.051076e-01	-1.097155e+00	2.920476e-01
2.025244177e-05	-6.946164e-01	4.505540e-01	-8.051209e-01	-1.097177e+00	2.920560e-01
2.025319309e-05	-6.946314e-01	4.505618e-01	-8.051342e-01	-1.097199e+00	2.920644e-01
2.02539444e-05	-6.946464e-01	4.505697e-01	-8.051474e-01	-1.097220e+00	2.920727e-01
2.025469572e-05	-6.946615e-01	4.505775e-01	-8.051607e-01	-1.097242e+00	2.920811e-01
2.025544703e-05	-6.946765e-01	4.505854e-01	-8.051740e-01	-1.097263e+00	2.920895e-01
2.025619835e-05	-6.946915e-01	4.505933e-01	-8.051873e-01	-1.097285e+00	2.920979e-01
2.025694966e-05	-6.947065e-01	4.506011e-01	-8.052005e-01	-1.097307e+00	2.921062e-01
2.025770098e-05	-6.947216e-01	4.506090e-01	-8.052138e-01	-1.097328e+00	2.921146e-01
2.025845229e-05	-6.947366e-01	4.506169e-01	-8.052271e-01	-1.097350e+00	2.921230e-01
2.025920361e-05	-6.947516e-01	4.506247e-01	-8.052404e-01	-1.097372e+00	2.921314e-01
2.025995492e-05	-6.947667e-01	4.506326e-01	-8.052538e-01	-1.097394e+00	2.921398e-01
2.026070624e-05	-6.947818e-01	4.506405e-01	-8.052671e-01	-1.097415e+00	2.921482e-01
2.026145755e-05	-6.947968e-01	4.506484e-01	-8.052804e-01	-1.097437e+00	2.921567e-01
2.026220887e-05	-6.948119e-01	4.506563e-01	-8.052937e-01	-1.097459e+00	2.921651e-01
2.026296018e-05	-6.948270e-01	4.506641e-01	-8.053070e-01	-1.097481e+00	2.921735e-01
2.02637115e-05	-6.948421e-01	4.506720e-01	-8.053204e-01	-1.097502e+00	2.921819e-01
2.026446281e-05	-6.948572e-01	4.506799e-01	-8.053337e-01	-1.097524e+00	2.921903e-01