/*--------------------------------*- C++ -*----------------------------------*\
| =========                 |                                                 |
| \\      /  F ield         | OpenFOAM: The Open Source CFD Toolbox           |
|  \\    /   O peration     | Version:  v1706                                 |
|   \\  /    A nd           | Web:      www.OpenFOAM.com                      |
|    \\/     M anipulation  |                                                 |
\*---------------------------------------------------------------------------*/
FoamFile
{
    version     2.0;
    format      ascii;
    class       volScalarField;
    location    "3.8e-05";
    object      alpha;
}
// * * * * * * * * * * * * * * * * * * * * * * * * * * * * * * * * * * * * * //

dimensions      [1 -1 -1 0 0 0 0];


internalField   nonuniform List<scalar> 
30038
(
1.40478e-05
1.40478e-05
1.40478e-05
1.40478e-05
1.40478e-05
1.40478e-05
1.40478e-05
1.40478e-05
1.40478e-05
1.40478e-05
1.40478e-05
1.40478e-05
1.40478e-05
1.40478e-05
1.40478e-05
1.40478e-05
1.40478e-05
1.40478e-05
1.40478e-05
1.40478e-05
1.40478e-05
1.40478e-05
1.40478e-05
1.40478e-05
1.40478e-05
1.40478e-05
1.40478e-05
1.40478e-05
1.40478e-05
1.40478e-05
1.40478e-05
1.40478e-05
1.40478e-05
1.40478e-05
1.40478e-05
1.40478e-05
1.40478e-05
1.40478e-05
1.40478e-05
1.40478e-05
1.40478e-05
1.40478e-05
1.40478e-05
1.40478e-05
1.40478e-05
1.40478e-05
1.40478e-05
1.40478e-05
1.40478e-05
1.40478e-05
1.40478e-05
1.40478e-05
1.40478e-05
1.40478e-05
1.40478e-05
1.40478e-05
1.40478e-05
1.40478e-05
1.40478e-05
1.40478e-05
1.40478e-05
1.40478e-05
1.40478e-05
1.40478e-05
1.40478e-05
1.40478e-05
1.40478e-05
1.40478e-05
1.40478e-05
1.40478e-05
1.40478e-05
1.40478e-05
1.40478e-05
1.40478e-05
1.40478e-05
1.40478e-05
1.40478e-05
1.40478e-05
1.40478e-05
1.40478e-05
1.40478e-05
1.40478e-05
1.40478e-05
1.40478e-05
1.40478e-05
1.40478e-05
1.40478e-05
1.40478e-05
1.40478e-05
1.40478e-05
1.40478e-05
1.40478e-05
1.40478e-05
1.40478e-05
1.40478e-05
1.40478e-05
1.40478e-05
1.40478e-05
1.40478e-05
1.40478e-05
1.40478e-05
1.40478e-05
1.40478e-05
1.40478e-05
1.40478e-05
1.40478e-05
1.40478e-05
1.40478e-05
1.40478e-05
1.40478e-05
1.40478e-05
1.40478e-05
1.40478e-05
1.40478e-05
1.40478e-05
1.40478e-05
1.40478e-05
1.40478e-05
1.40478e-05
1.40478e-05
1.40478e-05
1.40478e-05
1.40478e-05
1.40478e-05
1.40478e-05
1.40478e-05
1.40478e-05
1.40478e-05
1.40478e-05
1.40478e-05
1.40478e-05
1.40478e-05
1.40478e-05
1.40478e-05
1.40478e-05
1.40478e-05
1.40478e-05
1.40478e-05
1.40478e-05
1.40478e-05
1.40478e-05
1.40478e-05
1.40478e-05
1.40478e-05
1.40478e-05
1.40478e-05
1.40478e-05
1.40478e-05
1.40478e-05
1.40478e-05
1.40478e-05
1.40478e-05
1.40478e-05
1.40478e-05
1.40478e-05
1.40478e-05
1.40478e-05
1.40478e-05
1.40478e-05
1.40478e-05
1.40478e-05
1.40478e-05
1.40478e-05
1.40478e-05
1.40478e-05
1.40478e-05
1.40478e-05
1.40478e-05
1.40478e-05
1.40478e-05
1.40478e-05
1.40478e-05
1.40478e-05
1.40478e-05
1.40478e-05
1.40478e-05
1.40478e-05
1.40478e-05
1.40478e-05
1.40478e-05
1.40478e-05
1.40478e-05
1.40478e-05
1.40478e-05
1.40478e-05
1.40478e-05
1.40478e-05
1.40478e-05
1.40478e-05
1.40478e-05
1.40478e-05
1.40478e-05
1.40478e-05
1.40478e-05
1.40478e-05
1.40478e-05
1.40478e-05
1.40478e-05
1.40478e-05
1.40478e-05
1.40478e-05
1.40478e-05
1.40478e-05
1.40478e-05
1.40478e-05
1.40478e-05
1.40478e-05
1.40478e-05
1.40478e-05
1.40478e-05
1.40478e-05
1.40478e-05
1.40478e-05
1.40478e-05
1.40478e-05
1.40478e-05
1.40478e-05
1.40478e-05
1.40478e-05
1.40478e-05
1.40478e-05
1.40478e-05
1.40478e-05
1.40478e-05
1.40478e-05
1.40478e-05
1.40478e-05
1.40478e-05
1.40478e-05
1.40478e-05
1.40478e-05
1.40478e-05
1.40478e-05
1.40478e-05
1.40478e-05
1.40478e-05
1.40478e-05
1.40478e-05
1.40478e-05
1.40478e-05
1.40478e-05
1.40478e-05
1.40478e-05
1.40478e-05
1.40478e-05
1.40478e-05
1.40478e-05
1.40478e-05
1.40478e-05
1.40478e-05
1.40478e-05
1.40478e-05
1.40478e-05
1.40478e-05
1.40478e-05
1.40478e-05
1.40478e-05
1.40478e-05
1.40478e-05
1.40478e-05
1.40478e-05
1.40478e-05
1.40478e-05
1.40478e-05
1.40478e-05
1.40478e-05
1.40478e-05
1.40478e-05
1.40478e-05
1.40478e-05
1.40478e-05
1.40478e-05
1.40478e-05
1.40478e-05
1.40478e-05
1.40478e-05
1.40478e-05
1.40478e-05
1.40478e-05
1.40478e-05
1.40478e-05
1.40478e-05
1.40478e-05
1.40478e-05
1.40478e-05
1.40478e-05
1.40478e-05
1.40478e-05
1.40478e-05
1.40478e-05
1.40478e-05
1.40478e-05
1.40478e-05
1.40478e-05
1.40478e-05
1.40478e-05
1.40478e-05
1.40478e-05
1.40478e-05
1.40478e-05
1.40478e-05
1.40478e-05
1.40478e-05
1.40478e-05
1.40478e-05
1.40478e-05
1.40478e-05
1.40478e-05
1.40478e-05
1.40478e-05
1.40478e-05
1.40478e-05
1.40478e-05
1.40478e-05
1.40478e-05
1.40478e-05
1.40478e-05
1.40478e-05
1.40478e-05
1.40478e-05
1.40478e-05
1.40478e-05
1.40478e-05
1.40478e-05
1.40478e-05
1.40478e-05
1.40478e-05
1.40478e-05
1.40478e-05
1.40478e-05
1.40478e-05
1.40478e-05
1.40478e-05
1.40478e-05
1.40478e-05
1.40478e-05
1.40478e-05
1.40478e-05
1.40478e-05
1.40478e-05
1.40478e-05
1.40478e-05
1.40478e-05
1.40478e-05
1.40478e-05
1.40478e-05
1.40478e-05
1.40478e-05
1.40478e-05
1.40478e-05
1.40478e-05
1.40478e-05
1.40478e-05
1.40478e-05
1.40478e-05
1.40478e-05
1.40478e-05
1.40478e-05
1.40478e-05
1.40478e-05
1.40478e-05
1.40478e-05
1.40478e-05
1.40478e-05
1.40478e-05
1.40478e-05
1.40478e-05
1.40478e-05
1.40478e-05
1.40478e-05
1.40478e-05
1.40478e-05
1.40478e-05
1.40478e-05
1.40478e-05
1.40478e-05
1.40478e-05
1.40478e-05
1.40478e-05
1.40478e-05
1.40478e-05
1.40478e-05
1.40478e-05
1.40478e-05
1.40478e-05
1.40478e-05
1.40478e-05
1.40478e-05
1.40478e-05
1.40478e-05
1.40478e-05
1.40478e-05
1.40478e-05
1.40478e-05
1.40478e-05
1.40478e-05
1.40478e-05
1.40478e-05
1.40478e-05
1.40478e-05
1.40478e-05
1.40478e-05
1.40478e-05
1.40478e-05
1.40478e-05
1.40478e-05
1.40478e-05
1.40478e-05
1.40478e-05
1.40478e-05
1.40478e-05
1.40478e-05
1.40478e-05
1.40478e-05
1.40478e-05
1.40478e-05
1.40478e-05
1.40478e-05
1.40478e-05
1.40478e-05
1.40478e-05
1.40478e-05
1.40478e-05
1.40478e-05
1.40478e-05
1.40478e-05
1.40478e-05
1.40478e-05
1.40478e-05
1.40478e-05
1.40478e-05
1.40478e-05
1.40478e-05
1.40478e-05
1.40478e-05
1.40478e-05
1.40478e-05
1.40478e-05
1.40478e-05
1.40478e-05
1.40478e-05
1.40478e-05
1.40478e-05
1.40478e-05
1.40478e-05
1.40478e-05
1.40478e-05
1.40478e-05
1.40478e-05
1.40478e-05
1.40478e-05
1.40478e-05
1.40478e-05
1.40478e-05
1.40478e-05
1.40478e-05
1.40478e-05
1.40478e-05
1.40478e-05
1.40478e-05
1.40478e-05
1.40478e-05
1.40478e-05
1.40478e-05
1.40478e-05
1.40478e-05
1.40478e-05
1.40478e-05
1.40478e-05
1.40478e-05
1.40478e-05
1.40478e-05
1.40478e-05
1.40478e-05
1.40478e-05
1.40478e-05
1.40478e-05
1.40478e-05
1.40478e-05
1.40478e-05
1.40478e-05
1.40478e-05
1.40478e-05
1.40478e-05
1.40478e-05
1.40478e-05
1.40478e-05
1.40478e-05
1.40478e-05
1.40478e-05
1.40478e-05
1.40478e-05
1.40478e-05
1.40478e-05
1.40478e-05
1.40478e-05
1.40478e-05
1.40478e-05
1.40478e-05
1.40478e-05
1.40478e-05
1.40478e-05
1.40478e-05
1.40478e-05
1.40478e-05
1.40478e-05
1.40478e-05
1.40478e-05
1.40478e-05
1.40478e-05
1.40478e-05
1.40478e-05
1.40478e-05
1.40478e-05
1.40478e-05
1.40478e-05
1.40478e-05
1.40478e-05
1.40478e-05
1.40478e-05
1.40478e-05
1.40478e-05
1.40478e-05
1.40478e-05
1.40478e-05
1.40478e-05
1.40478e-05
1.40478e-05
1.40478e-05
1.40478e-05
1.40478e-05
1.40478e-05
1.40478e-05
1.40478e-05
1.40478e-05
1.40478e-05
1.40478e-05
1.40478e-05
1.40478e-05
1.40478e-05
1.40478e-05
1.40478e-05
1.40478e-05
1.40478e-05
1.40478e-05
1.40478e-05
1.40478e-05
1.40478e-05
1.40478e-05
1.40478e-05
1.40478e-05
1.40478e-05
1.40478e-05
1.40478e-05
1.40478e-05
1.40478e-05
1.40478e-05
1.40478e-05
1.40478e-05
1.40478e-05
1.40478e-05
1.40478e-05
1.40478e-05
1.40478e-05
1.40478e-05
1.40478e-05
1.40478e-05
1.40478e-05
1.40478e-05
1.40478e-05
1.40478e-05
1.40478e-05
1.40478e-05
1.40478e-05
1.40478e-05
1.40478e-05
1.40478e-05
1.40478e-05
1.40478e-05
1.40478e-05
1.40478e-05
1.40478e-05
1.40478e-05
1.40478e-05
1.40478e-05
1.40478e-05
1.40478e-05
1.40478e-05
1.40478e-05
1.40478e-05
1.40478e-05
1.40478e-05
1.40478e-05
1.40478e-05
1.40478e-05
1.40478e-05
1.40478e-05
1.40478e-05
1.40478e-05
1.40478e-05
1.40478e-05
1.40478e-05
1.40478e-05
1.40478e-05
1.40478e-05
1.40478e-05
1.40478e-05
1.40478e-05
1.40478e-05
1.40478e-05
1.40478e-05
1.40478e-05
1.40478e-05
1.40478e-05
1.40478e-05
1.40478e-05
1.40478e-05
1.40478e-05
1.40478e-05
1.40478e-05
1.40478e-05
1.40478e-05
1.40478e-05
1.40478e-05
1.40478e-05
1.40478e-05
1.40478e-05
1.40478e-05
1.40478e-05
1.40478e-05
1.40478e-05
1.40478e-05
1.40478e-05
1.40478e-05
1.40478e-05
1.40478e-05
1.40478e-05
1.40478e-05
1.40478e-05
1.40478e-05
1.40478e-05
1.40478e-05
1.40478e-05
1.40478e-05
1.40478e-05
1.40478e-05
1.40478e-05
1.40478e-05
1.40478e-05
1.40478e-05
1.40478e-05
1.40478e-05
1.40478e-05
1.40478e-05
1.40478e-05
1.40478e-05
1.40478e-05
1.40478e-05
1.40478e-05
1.40478e-05
1.40478e-05
1.40478e-05
1.40478e-05
1.40478e-05
1.40478e-05
1.40478e-05
1.40478e-05
1.40478e-05
1.40478e-05
1.40478e-05
1.40478e-05
1.40478e-05
1.40478e-05
1.40478e-05
1.40478e-05
1.40478e-05
1.40478e-05
1.40478e-05
1.40478e-05
1.40478e-05
1.40478e-05
1.40478e-05
1.40478e-05
1.40478e-05
1.40478e-05
1.40478e-05
1.40478e-05
1.40478e-05
1.40478e-05
1.40478e-05
1.40478e-05
1.40478e-05
1.40478e-05
1.40478e-05
1.40478e-05
1.40478e-05
1.40478e-05
1.40478e-05
1.40478e-05
1.40478e-05
1.40478e-05
1.40478e-05
1.40478e-05
1.40478e-05
1.40478e-05
1.40478e-05
1.40478e-05
1.40478e-05
1.40478e-05
1.40478e-05
1.40478e-05
1.40478e-05
1.40478e-05
1.40478e-05
1.40478e-05
1.40478e-05
1.40478e-05
1.40478e-05
1.40478e-05
1.40478e-05
1.40478e-05
1.40478e-05
1.40478e-05
1.40478e-05
1.40478e-05
1.40478e-05
1.40478e-05
1.40478e-05
1.40478e-05
1.40478e-05
1.40478e-05
1.40478e-05
1.40478e-05
1.40478e-05
1.40478e-05
1.40478e-05
1.40478e-05
1.40478e-05
1.40478e-05
1.40478e-05
1.40478e-05
1.40478e-05
1.40478e-05
1.40478e-05
1.40478e-05
1.40478e-05
1.40478e-05
1.40478e-05
1.40478e-05
1.40478e-05
1.40478e-05
1.40478e-05
1.40478e-05
1.40478e-05
1.40478e-05
1.40478e-05
1.40478e-05
1.40478e-05
1.40478e-05
1.40478e-05
1.40478e-05
1.40478e-05
1.40478e-05
1.40478e-05
1.40478e-05
1.40478e-05
1.40478e-05
1.40478e-05
1.40478e-05
1.40478e-05
1.40478e-05
1.40478e-05
1.40478e-05
1.40478e-05
1.40478e-05
1.40478e-05
1.40478e-05
1.40478e-05
1.40478e-05
1.40478e-05
1.40478e-05
1.40478e-05
1.40478e-05
1.40478e-05
1.40478e-05
1.40478e-05
1.40478e-05
1.40478e-05
1.40478e-05
1.40478e-05
1.40478e-05
1.40478e-05
1.40478e-05
1.40478e-05
1.40478e-05
1.40478e-05
1.40478e-05
1.40478e-05
1.40478e-05
1.40478e-05
1.40478e-05
1.40478e-05
1.40478e-05
1.40478e-05
1.40478e-05
1.40478e-05
1.40478e-05
1.40478e-05
1.40478e-05
1.40478e-05
1.40478e-05
1.40478e-05
1.40478e-05
1.40478e-05
1.40478e-05
1.40478e-05
1.40478e-05
1.40478e-05
1.40478e-05
1.40478e-05
1.40478e-05
1.40478e-05
1.40478e-05
1.40478e-05
1.40478e-05
1.40478e-05
1.40478e-05
1.40478e-05
1.40478e-05
1.40478e-05
1.40478e-05
1.40478e-05
1.40478e-05
1.40478e-05
1.40478e-05
1.40478e-05
1.40478e-05
1.40478e-05
1.40478e-05
1.40478e-05
1.40478e-05
1.40478e-05
1.40478e-05
1.40478e-05
1.40478e-05
1.40478e-05
1.40478e-05
1.40478e-05
1.40478e-05
1.40478e-05
1.40478e-05
1.40478e-05
1.40478e-05
1.40478e-05
1.40478e-05
1.40478e-05
1.40478e-05
1.40478e-05
1.40478e-05
1.40478e-05
1.40478e-05
1.40478e-05
1.40478e-05
1.40478e-05
1.40478e-05
1.40478e-05
1.40478e-05
1.40478e-05
1.40478e-05
1.40478e-05
1.40478e-05
1.40478e-05
1.40478e-05
1.40478e-05
1.40478e-05
1.40478e-05
1.40478e-05
1.40478e-05
1.40478e-05
1.40478e-05
1.40478e-05
1.40478e-05
1.40478e-05
1.40478e-05
1.40478e-05
1.40478e-05
1.40478e-05
1.40478e-05
1.40478e-05
1.40478e-05
1.40478e-05
1.40478e-05
1.40478e-05
1.40478e-05
1.40478e-05
1.40478e-05
1.40478e-05
1.40478e-05
1.40478e-05
1.40478e-05
1.40478e-05
1.40478e-05
1.40478e-05
1.40478e-05
1.40478e-05
1.40478e-05
1.40478e-05
1.40478e-05
1.40478e-05
1.40478e-05
1.40478e-05
1.40478e-05
1.40478e-05
1.40478e-05
1.40478e-05
1.40478e-05
1.40478e-05
1.40478e-05
1.40478e-05
1.40478e-05
1.40478e-05
1.40478e-05
1.40478e-05
1.40478e-05
1.40478e-05
1.40478e-05
1.40478e-05
1.40478e-05
1.40478e-05
1.40478e-05
1.40478e-05
1.40478e-05
1.40478e-05
1.40478e-05
1.40478e-05
1.40478e-05
1.40478e-05
1.40478e-05
1.40478e-05
1.40478e-05
1.40478e-05
1.40478e-05
1.40478e-05
1.40478e-05
1.40478e-05
1.40478e-05
1.40478e-05
1.40478e-05
1.40478e-05
1.40478e-05
1.40478e-05
1.40478e-05
1.40478e-05
1.40478e-05
1.40478e-05
1.40478e-05
1.40478e-05
1.40478e-05
1.40478e-05
1.40478e-05
1.40478e-05
1.40478e-05
1.40478e-05
1.40478e-05
1.40478e-05
1.40478e-05
1.40478e-05
1.40478e-05
1.40478e-05
1.40478e-05
1.40478e-05
1.40478e-05
1.40478e-05
1.40478e-05
1.40478e-05
1.40478e-05
1.40478e-05
1.40478e-05
1.40478e-05
1.40478e-05
1.40478e-05
1.40478e-05
1.40478e-05
1.40478e-05
1.40478e-05
1.40478e-05
1.40478e-05
1.40478e-05
1.40478e-05
1.40478e-05
1.40478e-05
1.40478e-05
1.40478e-05
1.40478e-05
1.40478e-05
1.40478e-05
1.40478e-05
1.40478e-05
1.40478e-05
1.40478e-05
1.40478e-05
1.40478e-05
1.40478e-05
1.40478e-05
1.40478e-05
1.40478e-05
1.40478e-05
1.40478e-05
1.40478e-05
1.40478e-05
1.40478e-05
1.40478e-05
1.40478e-05
1.40478e-05
1.40478e-05
1.40478e-05
1.40478e-05
1.40478e-05
1.40478e-05
1.40478e-05
1.40478e-05
1.40478e-05
1.40478e-05
1.40478e-05
1.40478e-05
1.40478e-05
1.40478e-05
1.40478e-05
1.40478e-05
1.40478e-05
1.40478e-05
1.40478e-05
1.40478e-05
1.40478e-05
1.40478e-05
1.40478e-05
1.40478e-05
1.40478e-05
1.40478e-05
1.40478e-05
1.40478e-05
1.40478e-05
1.40478e-05
1.40478e-05
1.40478e-05
1.40478e-05
1.40478e-05
1.40478e-05
1.40478e-05
1.40478e-05
1.40478e-05
1.40478e-05
1.40478e-05
1.40478e-05
1.40478e-05
1.40478e-05
1.40478e-05
1.40478e-05
1.40478e-05
1.40478e-05
1.40478e-05
1.40478e-05
1.40478e-05
1.40478e-05
1.40478e-05
1.40478e-05
1.40478e-05
1.40478e-05
1.40478e-05
1.40478e-05
1.40478e-05
1.40478e-05
1.40478e-05
1.40478e-05
1.40478e-05
1.40478e-05
1.40478e-05
1.40478e-05
1.40478e-05
1.40478e-05
1.40478e-05
1.40478e-05
1.40478e-05
1.40478e-05
1.40478e-05
1.40478e-05
1.40478e-05
1.40478e-05
1.40478e-05
1.40478e-05
1.40478e-05
1.40478e-05
1.40478e-05
1.40478e-05
1.40478e-05
1.40478e-05
1.40478e-05
1.40478e-05
1.40478e-05
1.40478e-05
1.40478e-05
1.40478e-05
1.40478e-05
1.40478e-05
1.40478e-05
1.40478e-05
1.40478e-05
1.40478e-05
1.40478e-05
1.40478e-05
1.40478e-05
1.40478e-05
1.40478e-05
1.40478e-05
1.40478e-05
1.40478e-05
1.40478e-05
1.40478e-05
1.40478e-05
1.40478e-05
1.40478e-05
1.40478e-05
1.40478e-05
1.40478e-05
1.40478e-05
1.40478e-05
1.40478e-05
1.40478e-05
1.40478e-05
1.40478e-05
1.40478e-05
1.40478e-05
1.40478e-05
1.40478e-05
1.40478e-05
1.40478e-05
1.40478e-05
1.40478e-05
1.40478e-05
1.40478e-05
1.40478e-05
1.40478e-05
1.40478e-05
1.40478e-05
1.40478e-05
1.40478e-05
1.40478e-05
1.40478e-05
1.40478e-05
1.40478e-05
1.40478e-05
1.40478e-05
1.40478e-05
1.40478e-05
1.40478e-05
1.40478e-05
1.40478e-05
1.40478e-05
1.40478e-05
1.40478e-05
1.40478e-05
1.40478e-05
1.40478e-05
1.40478e-05
1.40478e-05
1.40478e-05
1.40478e-05
1.40478e-05
1.40478e-05
1.40478e-05
1.40478e-05
1.40478e-05
1.40478e-05
1.40478e-05
1.40478e-05
1.40478e-05
1.40478e-05
1.40478e-05
1.40478e-05
1.40478e-05
1.40478e-05
1.40478e-05
1.40478e-05
1.40478e-05
1.40478e-05
1.40478e-05
1.40478e-05
1.40478e-05
1.40478e-05
1.40478e-05
1.40478e-05
1.40478e-05
1.40478e-05
1.40478e-05
1.40478e-05
1.40478e-05
1.40478e-05
1.40478e-05
1.40478e-05
1.40478e-05
1.40478e-05
1.40478e-05
1.40478e-05
1.40478e-05
1.40478e-05
1.40478e-05
1.40478e-05
1.40478e-05
1.40478e-05
1.40478e-05
1.40478e-05
1.40478e-05
1.40478e-05
1.40478e-05
1.40478e-05
1.40478e-05
1.40478e-05
1.40478e-05
1.40478e-05
1.40478e-05
1.40478e-05
1.40478e-05
1.40478e-05
1.40478e-05
1.40478e-05
1.40478e-05
1.40478e-05
1.40478e-05
1.40478e-05
1.40478e-05
1.40478e-05
1.40478e-05
1.40478e-05
1.40478e-05
1.40478e-05
1.40478e-05
1.40478e-05
1.40478e-05
1.40478e-05
1.40478e-05
1.40479e-05
1.40479e-05
1.40478e-05
1.40478e-05
1.40478e-05
1.40478e-05
1.40478e-05
1.40478e-05
1.40478e-05
1.40478e-05
1.40478e-05
1.40478e-05
1.40478e-05
1.40478e-05
1.40478e-05
1.40478e-05
1.40478e-05
1.40478e-05
1.40478e-05
1.40478e-05
1.40478e-05
1.40478e-05
1.40478e-05
1.40478e-05
1.40478e-05
1.40478e-05
1.40478e-05
1.40478e-05
1.40478e-05
1.40478e-05
1.40478e-05
1.40478e-05
1.40478e-05
1.40478e-05
1.40478e-05
1.40478e-05
1.40478e-05
1.40478e-05
1.40478e-05
1.40478e-05
1.40478e-05
1.40478e-05
1.40478e-05
1.40478e-05
1.40478e-05
1.40478e-05
1.40478e-05
1.40479e-05
1.40479e-05
1.4048e-05
1.40481e-05
1.40482e-05
1.40478e-05
1.40478e-05
1.40478e-05
1.40478e-05
1.40478e-05
1.40478e-05
1.40478e-05
1.40478e-05
1.40478e-05
1.40478e-05
1.40478e-05
1.40478e-05
1.40478e-05
1.40478e-05
1.40478e-05
1.40478e-05
1.40478e-05
1.40478e-05
1.40478e-05
1.40478e-05
1.40478e-05
1.40478e-05
1.40478e-05
1.40478e-05
1.40478e-05
1.40478e-05
1.40478e-05
1.40478e-05
1.40478e-05
1.40478e-05
1.40478e-05
1.40478e-05
1.40478e-05
1.40478e-05
1.40478e-05
1.40478e-05
1.40478e-05
1.40478e-05
1.40478e-05
1.40478e-05
1.40478e-05
1.40478e-05
1.40479e-05
1.40479e-05
1.4048e-05
1.40481e-05
1.40482e-05
1.40484e-05
1.40488e-05
1.40493e-05
1.40478e-05
1.40478e-05
1.40478e-05
1.40478e-05
1.40478e-05
1.40478e-05
1.40478e-05
1.40478e-05
1.40478e-05
1.40478e-05
1.40478e-05
1.40478e-05
1.40478e-05
1.40478e-05
1.40478e-05
1.40478e-05
1.40478e-05
1.40478e-05
1.40478e-05
1.40478e-05
1.40478e-05
1.40478e-05
1.40478e-05
1.40478e-05
1.40478e-05
1.40478e-05
1.40478e-05
1.40478e-05
1.40478e-05
1.40478e-05
1.40478e-05
1.40478e-05
1.40478e-05
1.40478e-05
1.40478e-05
1.40478e-05
1.40478e-05
1.40478e-05
1.40478e-05
1.40479e-05
1.40479e-05
1.4048e-05
1.40481e-05
1.40482e-05
1.40485e-05
1.40488e-05
1.40493e-05
1.40501e-05
1.40513e-05
1.40532e-05
1.40478e-05
1.40478e-05
1.40478e-05
1.40478e-05
1.40478e-05
1.40478e-05
1.40478e-05
1.40478e-05
1.40478e-05
1.40478e-05
1.40478e-05
1.40478e-05
1.40478e-05
1.40478e-05
1.40478e-05
1.40478e-05
1.40478e-05
1.40478e-05
1.40478e-05
1.40478e-05
1.40478e-05
1.40478e-05
1.40478e-05
1.40478e-05
1.40478e-05
1.40478e-05
1.40478e-05
1.40478e-05
1.40478e-05
1.40478e-05
1.40478e-05
1.40478e-05
1.40478e-05
1.40478e-05
1.40478e-05
1.40479e-05
1.40479e-05
1.40479e-05
1.4048e-05
1.40481e-05
1.40483e-05
1.40485e-05
1.40488e-05
1.40494e-05
1.40501e-05
1.40513e-05
1.40531e-05
1.40558e-05
1.406e-05
1.40666e-05
1.40478e-05
1.40478e-05
1.40478e-05
1.40478e-05
1.40478e-05
1.40478e-05
1.40478e-05
1.40478e-05
1.40478e-05
1.40478e-05
1.40478e-05
1.40478e-05
1.40478e-05
1.40478e-05
1.40478e-05
1.40478e-05
1.40478e-05
1.40478e-05
1.40478e-05
1.40478e-05
1.40478e-05
1.40478e-05
1.40478e-05
1.40478e-05
1.40478e-05
1.40478e-05
1.40478e-05
1.40478e-05
1.40478e-05
1.40478e-05
1.40478e-05
1.40478e-05
1.40479e-05
1.40479e-05
1.4048e-05
1.4048e-05
1.40481e-05
1.40483e-05
1.40485e-05
1.40489e-05
1.40495e-05
1.40503e-05
1.40515e-05
1.40533e-05
1.4056e-05
1.40601e-05
1.40662e-05
1.40756e-05
1.40898e-05
1.4112e-05
1.40478e-05
1.40478e-05
1.40478e-05
1.40478e-05
1.40478e-05
1.40478e-05
1.40478e-05
1.40478e-05
1.40478e-05
1.40478e-05
1.40478e-05
1.40478e-05
1.40478e-05
1.40478e-05
1.40478e-05
1.40478e-05
1.40478e-05
1.40478e-05
1.40478e-05
1.40478e-05
1.40478e-05
1.40478e-05
1.40478e-05
1.40478e-05
1.40478e-05
1.40478e-05
1.40478e-05
1.40478e-05
1.40478e-05
1.40479e-05
1.40479e-05
1.4048e-05
1.40481e-05
1.40482e-05
1.40484e-05
1.40486e-05
1.4049e-05
1.40496e-05
1.40505e-05
1.40517e-05
1.40536e-05
1.40564e-05
1.40605e-05
1.40667e-05
1.40759e-05
1.40897e-05
1.41104e-05
1.41414e-05
1.41884e-05
1.42609e-05
1.40478e-05
1.40478e-05
1.40478e-05
1.40478e-05
1.40478e-05
1.40478e-05
1.40478e-05
1.40478e-05
1.40478e-05
1.40478e-05
1.40478e-05
1.40478e-05
1.40478e-05
1.40478e-05
1.40478e-05
1.40478e-05
1.40478e-05
1.40478e-05
1.40478e-05
1.40478e-05
1.40478e-05
1.40478e-05
1.40478e-05
1.40478e-05
1.40478e-05
1.40479e-05
1.40479e-05
1.40479e-05
1.4048e-05
1.40481e-05
1.40482e-05
1.40484e-05
1.40487e-05
1.40492e-05
1.40498e-05
1.40507e-05
1.4052e-05
1.4054e-05
1.40569e-05
1.40612e-05
1.40675e-05
1.40769e-05
1.40908e-05
1.41113e-05
1.41419e-05
1.41872e-05
1.42545e-05
1.43544e-05
1.4503e-05
1.47261e-05
1.40478e-05
1.40478e-05
1.40478e-05
1.40478e-05
1.40478e-05
1.40478e-05
1.40478e-05
1.40478e-05
1.40478e-05
1.40478e-05
1.40478e-05
1.40478e-05
1.40478e-05
1.40478e-05
1.40478e-05
1.40478e-05
1.40478e-05
1.40478e-05
1.40478e-05
1.40478e-05
1.40478e-05
1.40479e-05
1.40479e-05
1.40479e-05
1.4048e-05
1.4048e-05
1.40482e-05
1.40483e-05
1.40485e-05
1.40489e-05
1.40493e-05
1.405e-05
1.4051e-05
1.40525e-05
1.40546e-05
1.40577e-05
1.40622e-05
1.40688e-05
1.40785e-05
1.40927e-05
1.41136e-05
1.41443e-05
1.41895e-05
1.4256e-05
1.43535e-05
1.44961e-05
1.47036e-05
1.50034e-05
1.54327e-05
1.60424e-05
1.40478e-05
1.40478e-05
1.40478e-05
1.40478e-05
1.40478e-05
1.40478e-05
1.40478e-05
1.40478e-05
1.40478e-05
1.40478e-05
1.40478e-05
1.40478e-05
1.40478e-05
1.40478e-05
1.40478e-05
1.40478e-05
1.40478e-05
1.40478e-05
1.40479e-05
1.40479e-05
1.40479e-05
1.4048e-05
1.40481e-05
1.40482e-05
1.40484e-05
1.40487e-05
1.4049e-05
1.40496e-05
1.40503e-05
1.40515e-05
1.4053e-05
1.40554e-05
1.40587e-05
1.40635e-05
1.40705e-05
1.40807e-05
1.40956e-05
1.41172e-05
1.41487e-05
1.41946e-05
1.42615e-05
1.43589e-05
1.44999e-05
1.47033e-05
1.49939e-05
1.54042e-05
1.59742e-05
1.67493e-05
1.77783e-05
1.9106e-05
1.40478e-05
1.40478e-05
1.40478e-05
1.40478e-05
1.40478e-05
1.40478e-05
1.40478e-05
1.40478e-05
1.40478e-05
1.40478e-05
1.40478e-05
1.40478e-05
1.40478e-05
1.40478e-05
1.40479e-05
1.40479e-05
1.40479e-05
1.4048e-05
1.40481e-05
1.40482e-05
1.40483e-05
1.40485e-05
1.40488e-05
1.40493e-05
1.40499e-05
1.40508e-05
1.4052e-05
1.40538e-05
1.40564e-05
1.406e-05
1.40653e-05
1.40729e-05
1.40838e-05
1.40996e-05
1.41223e-05
1.41552e-05
1.42027e-05
1.42713e-05
1.43702e-05
1.45122e-05
1.47151e-05
1.50027e-05
1.54053e-05
1.59601e-05
1.67084e-05
1.76916e-05
1.89446e-05
2.04895e-05
2.23316e-05
2.44529e-05
1.40478e-05
1.40478e-05
1.40478e-05
1.40478e-05
1.40478e-05
1.40478e-05
1.40478e-05
1.40478e-05
1.40478e-05
1.40478e-05
1.40479e-05
1.40479e-05
1.40479e-05
1.4048e-05
1.4048e-05
1.40481e-05
1.40483e-05
1.40484e-05
1.40487e-05
1.40491e-05
1.40496e-05
1.40503e-05
1.40513e-05
1.40528e-05
1.40548e-05
1.40577e-05
1.40618e-05
1.40676e-05
1.4076e-05
1.40879e-05
1.41049e-05
1.41293e-05
1.41642e-05
1.42142e-05
1.42857e-05
1.43879e-05
1.45333e-05
1.47392e-05
1.50284e-05
1.54298e-05
1.59785e-05
1.6713e-05
1.76721e-05
1.8888e-05
2.03797e-05
2.21484e-05
2.41749e-05
2.64231e-05
2.8848e-05
3.13917e-05
1.40478e-05
1.40478e-05
1.40478e-05
1.40478e-05
1.40478e-05
1.40478e-05
1.40479e-05
1.40479e-05
1.40479e-05
1.4048e-05
1.4048e-05
1.40481e-05
1.40482e-05
1.40484e-05
1.40486e-05
1.40489e-05
1.40494e-05
1.405e-05
1.40508e-05
1.4052e-05
1.40537e-05
1.40561e-05
1.40594e-05
1.40641e-05
1.40707e-05
1.408e-05
1.40932e-05
1.41119e-05
1.41385e-05
1.41762e-05
1.42297e-05
1.43056e-05
1.44129e-05
1.45643e-05
1.47766e-05
1.50721e-05
1.54784e-05
1.60287e-05
1.67594e-05
1.77064e-05
1.88997e-05
2.0357e-05
2.20795e-05
2.40494e-05
2.6232e-05
2.858e-05
3.10395e-05
3.35538e-05
3.60653e-05
3.85251e-05
1.40478e-05
1.40478e-05
1.40479e-05
1.40479e-05
1.40479e-05
1.4048e-05
1.4048e-05
1.40481e-05
1.40482e-05
1.40484e-05
1.40486e-05
1.40488e-05
1.40492e-05
1.40498e-05
1.40505e-05
1.40516e-05
1.4053e-05
1.4055e-05
1.40578e-05
1.40616e-05
1.40671e-05
1.40746e-05
1.40853e-05
1.41002e-05
1.41211e-05
1.41505e-05
1.41919e-05
1.42502e-05
1.4332e-05
1.44466e-05
1.46068e-05
1.48292e-05
1.51356e-05
1.55529e-05
1.61124e-05
1.68485e-05
1.77944e-05
1.89773e-05
2.04132e-05
2.21026e-05
2.40294e-05
2.61614e-05
2.84551e-05
3.08598e-05
3.33221e-05
3.57841e-05
3.81919e-05
4.04978e-05
4.26525e-05
4.46102e-05
1.40479e-05
1.40479e-05
1.4048e-05
1.4048e-05
1.40481e-05
1.40482e-05
1.40483e-05
1.40485e-05
1.40488e-05
1.40492e-05
1.40497e-05
1.40503e-05
1.40513e-05
1.40525e-05
1.40543e-05
1.40567e-05
1.406e-05
1.40646e-05
1.4071e-05
1.40798e-05
1.40921e-05
1.41092e-05
1.4133e-05
1.41662e-05
1.42124e-05
1.42769e-05
1.43665e-05
1.4491e-05
1.4663e-05
1.48996e-05
1.52221e-05
1.56565e-05
1.6233e-05
1.69835e-05
1.79385e-05
1.91223e-05
2.05485e-05
2.22166e-05
2.41108e-05
2.62013e-05
2.84477e-05
3.08031e-05
3.32187e-05
3.56424e-05
3.80216e-05
4.031e-05
4.24621e-05
4.44248e-05
4.61416e-05
4.75676e-05
4.87088e-05
1.40481e-05
1.40482e-05
1.40484e-05
1.40485e-05
1.40488e-05
1.40491e-05
1.40496e-05
1.40502e-05
1.40511e-05
1.40523e-05
1.40539e-05
1.4056e-05
1.4059e-05
1.4063e-05
1.40686e-05
1.40762e-05
1.40867e-05
1.41012e-05
1.41211e-05
1.41486e-05
1.41866e-05
1.4239e-05
1.43115e-05
1.44112e-05
1.45484e-05
1.47361e-05
1.49914e-05
1.53355e-05
1.57939e-05
1.63951e-05
1.71689e-05
1.81429e-05
1.93382e-05
2.07655e-05
2.24228e-05
2.4294e-05
2.6351e-05
2.85561e-05
3.0866e-05
3.32356e-05
3.56182e-05
3.79648e-05
4.02314e-05
4.2377e-05
4.4356e-05
4.61151e-05
4.76071e-05
4.88079e-05
4.97277e-05
5.03975e-05
5.08785e-05
1.40486e-05
1.40488e-05
1.40492e-05
1.40496e-05
1.40502e-05
1.40511e-05
1.40522e-05
1.40537e-05
1.40557e-05
1.40584e-05
1.40621e-05
1.40671e-05
1.40739e-05
1.40832e-05
1.40958e-05
1.41131e-05
1.41367e-05
1.4169e-05
1.42132e-05
1.42737e-05
1.43563e-05
1.44691e-05
1.46225e-05
1.48302e-05
1.51095e-05
1.54815e-05
1.5971e-05
1.66051e-05
1.74111e-05
1.84136e-05
1.96301e-05
2.10683e-05
2.27241e-05
2.45809e-05
2.66116e-05
2.87808e-05
3.10485e-05
3.33732e-05
3.57125e-05
3.8022e-05
4.02597e-05
4.23881e-05
4.43681e-05
4.61526e-05
4.76939e-05
4.89611e-05
4.99509e-05
5.06884e-05
5.12135e-05
5.15747e-05
5.18129e-05
5.19712e-05
1.40503e-05
1.40511e-05
1.40522e-05
1.40537e-05
1.40556e-05
1.40582e-05
1.40617e-05
1.40664e-05
1.40727e-05
1.40811e-05
1.40926e-05
1.41081e-05
1.41291e-05
1.41575e-05
1.4196e-05
1.42482e-05
1.43189e-05
1.44147e-05
1.4544e-05
1.4718e-05
1.49509e-05
1.52603e-05
1.56672e-05
1.61957e-05
1.68712e-05
1.77184e-05
1.87583e-05
2.0005e-05
2.14627e-05
2.3125e-05
2.49745e-05
2.69849e-05
2.91228e-05
3.13514e-05
3.36321e-05
3.59268e-05
3.81954e-05
4.03982e-05
4.25006e-05
4.44683e-05
4.62604e-05
4.7832e-05
4.91486e-05
5.01981e-05
5.09952e-05
5.15738e-05
5.19763e-05
5.2247e-05
5.24206e-05
5.25281e-05
5.25914e-05
5.26231e-05
1.40558e-05
1.40584e-05
1.40618e-05
1.40663e-05
1.40723e-05
1.40803e-05
1.40911e-05
1.41054e-05
1.41247e-05
1.41505e-05
1.41852e-05
1.42318e-05
1.42944e-05
1.43784e-05
1.44909e-05
1.46412e-05
1.48411e-05
1.51054e-05
1.54521e-05
1.5902e-05
1.6478e-05
1.72038e-05
1.81009e-05
1.91868e-05
2.04715e-05
2.19559e-05
2.36311e-05
2.54789e-05
2.74735e-05
2.95838e-05
3.17754e-05
3.40129e-05
3.62618e-05
3.8486e-05
4.06489e-05
4.27181e-05
4.46627e-05
4.64479e-05
4.80326e-05
4.93811e-05
5.04754e-05
5.13219e-05
5.19481e-05
5.23911e-05
5.26919e-05
5.28883e-05
5.30093e-05
5.3081e-05
5.31164e-05
5.31223e-05
5.31196e-05
5.31138e-05
1.40728e-05
1.40807e-05
1.40911e-05
1.41048e-05
1.41231e-05
1.41474e-05
1.41798e-05
1.42228e-05
1.428e-05
1.4356e-05
1.44571e-05
1.45909e-05
1.47678e-05
1.50001e-05
1.53034e-05
1.56957e-05
1.61975e-05
1.68303e-05
1.76153e-05
1.85708e-05
1.97102e-05
2.10395e-05
2.25562e-05
2.4249e-05
2.60989e-05
2.8081e-05
3.01658e-05
3.23215e-05
3.45161e-05
3.67179e-05
3.88947e-05
4.1013e-05
4.30425e-05
4.49554e-05
4.67216e-05
4.83043e-05
4.96683e-05
5.07925e-05
5.16767e-05
5.23416e-05
5.28198e-05
5.31492e-05
5.33676e-05
5.35032e-05
5.35823e-05
5.36243e-05
5.36335e-05
5.36261e-05
5.36148e-05
5.35932e-05
5.35548e-05
5.35074e-05
1.41242e-05
1.41478e-05
1.41789e-05
1.42199e-05
1.42739e-05
1.43451e-05
1.44388e-05
1.45618e-05
1.47231e-05
1.49334e-05
1.52062e-05
1.55573e-05
1.60048e-05
1.65683e-05
1.72674e-05
1.81204e-05
1.9142e-05
2.03413e-05
2.17201e-05
2.32728e-05
2.49859e-05
2.684e-05
2.88109e-05
3.0871e-05
3.2991e-05
3.51419e-05
3.7295e-05
3.94215e-05
4.14908e-05
4.34749e-05
4.53487e-05
4.70855e-05
4.8653e-05
5.00179e-05
5.11575e-05
5.20669e-05
5.27608e-05
5.32677e-05
5.3622e-05
5.38592e-05
5.40088e-05
5.40965e-05
5.4144e-05
5.41564e-05
5.41466e-05
5.41316e-05
5.41097e-05
5.40718e-05
5.40216e-05
5.39644e-05
5.39002e-05
5.38352e-05
1.42756e-05
1.43443e-05
1.44339e-05
1.45506e-05
1.47022e-05
1.48983e-05
1.51508e-05
1.54737e-05
1.5883e-05
1.63963e-05
1.70318e-05
1.78067e-05
1.87359e-05
1.983e-05
2.10937e-05
2.2525e-05
2.41151e-05
2.58492e-05
2.77075e-05
2.96668e-05
3.17015e-05
3.37849e-05
3.58906e-05
3.79928e-05
4.00659e-05
4.2082e-05
4.40154e-05
4.58433e-05
4.75419e-05
4.90829e-05
5.04356e-05
5.15768e-05
5.24986e-05
5.32114e-05
5.37394e-05
5.41131e-05
5.4366e-05
5.45282e-05
5.46236e-05
5.46745e-05
5.46909e-05
5.46815e-05
5.46613e-05
5.46362e-05
5.46003e-05
5.45499e-05
5.4491e-05
5.44248e-05
5.43542e-05
5.42832e-05
5.42137e-05
5.41461e-05
1.47029e-05
1.48913e-05
1.51317e-05
1.54369e-05
1.58211e-05
1.63002e-05
1.68906e-05
1.76085e-05
1.84681e-05
1.94803e-05
2.06512e-05
2.19815e-05
2.34656e-05
2.50923e-05
2.68456e-05
2.87062e-05
3.06518e-05
3.26591e-05
3.47037e-05
3.67619e-05
3.88105e-05
4.08267e-05
4.27854e-05
4.4663e-05
4.64386e-05
4.80914e-05
4.95962e-05
5.09249e-05
5.20551e-05
5.29773e-05
5.36986e-05
5.42389e-05
5.46259e-05
5.48908e-05
5.50625e-05
5.51641e-05
5.52179e-05
5.52374e-05
5.5228e-05
5.52038e-05
5.51742e-05
5.51382e-05
5.50869e-05
5.50259e-05
5.49598e-05
5.48864e-05
5.48114e-05
5.47366e-05
5.46629e-05
5.45894e-05
5.45171e-05
5.44463e-05
1.62717e-05
1.6833e-05
1.75119e-05
1.83218e-05
1.92731e-05
2.03726e-05
2.16221e-05
2.30183e-05
2.45528e-05
2.62127e-05
2.79814e-05
2.98401e-05
3.17684e-05
3.37448e-05
3.57472e-05
3.77547e-05
3.97465e-05
4.17022e-05
4.35991e-05
4.54158e-05
4.71335e-05
4.87335e-05
5.01933e-05
5.14877e-05
5.25953e-05
5.35065e-05
5.42257e-05
5.47697e-05
5.51635e-05
5.54359e-05
5.56134e-05
5.57193e-05
5.57755e-05
5.57955e-05
5.57859e-05
5.57598e-05
5.57252e-05
5.56859e-05
5.56347e-05
5.55722e-05
5.55037e-05
5.54284e-05
5.53493e-05
5.52702e-05
5.5192e-05
5.51144e-05
5.50371e-05
5.49605e-05
5.48842e-05
5.48087e-05
5.47341e-05
1.91964e-05
2.02438e-05
2.14318e-05
2.27581e-05
2.42164e-05
2.57959e-05
2.74828e-05
2.92607e-05
3.11119e-05
3.30175e-05
3.49582e-05
3.69143e-05
3.8867e-05
4.07982e-05
4.26893e-05
4.452e-05
4.62709e-05
4.79252e-05
4.9466e-05
5.08732e-05
5.2124e-05
5.31988e-05
5.40882e-05
5.47952e-05
5.53345e-05
5.57284e-05
5.60027e-05
5.61822e-05