/*--------------------------------*- C++ -*----------------------------------*\
| =========                 |                                                 |
| \\      /  F ield         | OpenFOAM: The Open Source CFD Toolbox           |
|  \\    /   O peration     | Version:  v1706                                 |
|   \\  /    A nd           | Web:      www.OpenFOAM.com                      |
|    \\/     M anipulation  |                                                 |
\*---------------------------------------------------------------------------*/
FoamFile
{
    version     2.0;
    format      ascii;
    class       volScalarField;
    location    "3.8e-05";
    object      kappave;
}
// * * * * * * * * * * * * * * * * * * * * * * * * * * * * * * * * * * * * * //

dimensions      [1 1 -3 -1 0 0 0];


internalField   nonuniform List<scalar> 
30038
(
1.46038e-10
1.46038e-10
1.46038e-10
1.46038e-10
1.46038e-10
1.46038e-10
1.46038e-10
1.46038e-10
1.46038e-10
1.46038e-10
1.46038e-10
1.46038e-10
1.46038e-10
1.46038e-10
1.46038e-10
1.46038e-10
1.46038e-10
1.46038e-10
1.46038e-10
1.46038e-10
1.46038e-10
1.46038e-10
1.46038e-10
1.46038e-10
1.46038e-10
1.46038e-10
1.46038e-10
1.46038e-10
1.46038e-10
1.46038e-10
1.46038e-10
1.46038e-10
1.46038e-10
1.46038e-10
1.46038e-10
1.46038e-10
1.46038e-10
1.46038e-10
1.46038e-10
1.46038e-10
1.46038e-10
1.46038e-10
1.46038e-10
1.46038e-10
1.46038e-10
1.46038e-10
1.46038e-10
1.46038e-10
1.46038e-10
1.46038e-10
1.46038e-10
1.46038e-10
1.46038e-10
1.46038e-10
1.46038e-10
1.46038e-10
1.46038e-10
1.46038e-10
1.46038e-10
1.46038e-10
1.46038e-10
1.46038e-10
1.46038e-10
1.46038e-10
1.46038e-10
1.46038e-10
1.46038e-10
1.46038e-10
1.46038e-10
1.46038e-10
1.46038e-10
1.46038e-10
1.46038e-10
1.46038e-10
1.46038e-10
1.46038e-10
1.46038e-10
1.46038e-10
1.46038e-10
1.46038e-10
1.46038e-10
1.46038e-10
1.46038e-10
1.46038e-10
1.46038e-10
1.46038e-10
1.46038e-10
1.46038e-10
1.46038e-10
1.46038e-10
1.46038e-10
1.46038e-10
1.46038e-10
1.46038e-10
1.46038e-10
1.46038e-10
1.46038e-10
1.46038e-10
1.46038e-10
1.46038e-10
1.46038e-10
1.46038e-10
1.46038e-10
1.46038e-10
1.46038e-10
1.46038e-10
1.46038e-10
1.46038e-10
1.46038e-10
1.46038e-10
1.46038e-10
1.46038e-10
1.46038e-10
1.46038e-10
1.46038e-10
1.46038e-10
1.46038e-10
1.46038e-10
1.46038e-10
1.46038e-10
1.46038e-10
1.46038e-10
1.46038e-10
1.46038e-10
1.46038e-10
1.46038e-10
1.46038e-10
1.46038e-10
1.46038e-10
1.46038e-10
1.46038e-10
1.46038e-10
1.46038e-10
1.46038e-10
1.46038e-10
1.46038e-10
1.46038e-10
1.46038e-10
1.46038e-10
1.46038e-10
1.46038e-10
1.46038e-10
1.46038e-10
1.46038e-10
1.46038e-10
1.46038e-10
1.46038e-10
1.46038e-10
1.46038e-10
1.46038e-10
1.46038e-10
1.46038e-10
1.46038e-10
1.46038e-10
1.46038e-10
1.46038e-10
1.46038e-10
1.46038e-10
1.46038e-10
1.46038e-10
1.46038e-10
1.46038e-10
1.46038e-10
1.46038e-10
1.46038e-10
1.46038e-10
1.46038e-10
1.46038e-10
1.46038e-10
1.46038e-10
1.46038e-10
1.46038e-10
1.46038e-10
1.46038e-10
1.46038e-10
1.46038e-10
1.46038e-10
1.46038e-10
1.46038e-10
1.46038e-10
1.46038e-10
1.46038e-10
1.46038e-10
1.46038e-10
1.46038e-10
1.46038e-10
1.46038e-10
1.46038e-10
1.46038e-10
1.46038e-10
1.46038e-10
1.46038e-10
1.46038e-10
1.46038e-10
1.46038e-10
1.46038e-10
1.46038e-10
1.46038e-10
1.46038e-10
1.46038e-10
1.46038e-10
1.46038e-10
1.46038e-10
1.46038e-10
1.46038e-10
1.46038e-10
1.46038e-10
1.46038e-10
1.46038e-10
1.46038e-10
1.46038e-10
1.46038e-10
1.46038e-10
1.46038e-10
1.46038e-10
1.46038e-10
1.46038e-10
1.46038e-10
1.46038e-10
1.46038e-10
1.46038e-10
1.46038e-10
1.46038e-10
1.46038e-10
1.46038e-10
1.46038e-10
1.46038e-10
1.46038e-10
1.46038e-10
1.46038e-10
1.46038e-10
1.46038e-10
1.46038e-10
1.46038e-10
1.46038e-10
1.46038e-10
1.46038e-10
1.46038e-10
1.46038e-10
1.46038e-10
1.46038e-10
1.46038e-10
1.46038e-10
1.46038e-10
1.46038e-10
1.46038e-10
1.46038e-10
1.46038e-10
1.46038e-10
1.46038e-10
1.46038e-10
1.46038e-10
1.46038e-10
1.46038e-10
1.46038e-10
1.46038e-10
1.46038e-10
1.46038e-10
1.46038e-10
1.46038e-10
1.46038e-10
1.46038e-10
1.46038e-10
1.46038e-10
1.46038e-10
1.46038e-10
1.46038e-10
1.46038e-10
1.46038e-10
1.46038e-10
1.46038e-10
1.46038e-10
1.46038e-10
1.46038e-10
1.46038e-10
1.46038e-10
1.46038e-10
1.46038e-10
1.46038e-10
1.46038e-10
1.46038e-10
1.46038e-10
1.46038e-10
1.46038e-10
1.46038e-10
1.46038e-10
1.46038e-10
1.46038e-10
1.46038e-10
1.46038e-10
1.46038e-10
1.46038e-10
1.46038e-10
1.46038e-10
1.46038e-10
1.46038e-10
1.46038e-10
1.46038e-10
1.46038e-10
1.46038e-10
1.46038e-10
1.46038e-10
1.46038e-10
1.46038e-10
1.46038e-10
1.46038e-10
1.46038e-10
1.46038e-10
1.46038e-10
1.46038e-10
1.46038e-10
1.46038e-10
1.46038e-10
1.46038e-10
1.46038e-10
1.46038e-10
1.46038e-10
1.46038e-10
1.46038e-10
1.46038e-10
1.46038e-10
1.46038e-10
1.46038e-10
1.46038e-10
1.46038e-10
1.46038e-10
1.46038e-10
1.46038e-10
1.46038e-10
1.46038e-10
1.46038e-10
1.46038e-10
1.46038e-10
1.46038e-10
1.46038e-10
1.46038e-10
1.46038e-10
1.46038e-10
1.46038e-10
1.46038e-10
1.46038e-10
1.46038e-10
1.46038e-10
1.46038e-10
1.46038e-10
1.46038e-10
1.46038e-10
1.46038e-10
1.46038e-10
1.46038e-10
1.46038e-10
1.46038e-10
1.46038e-10
1.46038e-10
1.46038e-10
1.46038e-10
1.46038e-10
1.46038e-10
1.46038e-10
1.46038e-10
1.46038e-10
1.46038e-10
1.46038e-10
1.46038e-10
1.46038e-10
1.46038e-10
1.46038e-10
1.46038e-10
1.46038e-10
1.46038e-10
1.46038e-10
1.46038e-10
1.46038e-10
1.46038e-10
1.46038e-10
1.46038e-10
1.46038e-10
1.46038e-10
1.46038e-10
1.46038e-10
1.46038e-10
1.46038e-10
1.46038e-10
1.46038e-10
1.46038e-10
1.46038e-10
1.46038e-10
1.46038e-10
1.46038e-10
1.46038e-10
1.46038e-10
1.46038e-10
1.46038e-10
1.46038e-10
1.46038e-10
1.46038e-10
1.46038e-10
1.46038e-10
1.46038e-10
1.46038e-10
1.46038e-10
1.46038e-10
1.46038e-10
1.46038e-10
1.46038e-10
1.46038e-10
1.46038e-10
1.46038e-10
1.46038e-10
1.46038e-10
1.46038e-10
1.46038e-10
1.46038e-10
1.46038e-10
1.46038e-10
1.46038e-10
1.46038e-10
1.46038e-10
1.46038e-10
1.46038e-10
1.46038e-10
1.46038e-10
1.46038e-10
1.46038e-10
1.46038e-10
1.46038e-10
1.46038e-10
1.46038e-10
1.46038e-10
1.46038e-10
1.46038e-10
1.46038e-10
1.46038e-10
1.46038e-10
1.46038e-10
1.46038e-10
1.46038e-10
1.46038e-10
1.46038e-10
1.46038e-10
1.46038e-10
1.46038e-10
1.46038e-10
1.46038e-10
1.46038e-10
1.46038e-10
1.46038e-10
1.46038e-10
1.46038e-10
1.46038e-10
1.46038e-10
1.46038e-10
1.46038e-10
1.46038e-10
1.46038e-10
1.46038e-10
1.46038e-10
1.46038e-10
1.46038e-10
1.46038e-10
1.46038e-10
1.46038e-10
1.46038e-10
1.46038e-10
1.46038e-10
1.46038e-10
1.46038e-10
1.46038e-10
1.46038e-10
1.46038e-10
1.46038e-10
1.46038e-10
1.46038e-10
1.46038e-10
1.46038e-10
1.46038e-10
1.46038e-10
1.46038e-10
1.46038e-10
1.46038e-10
1.46038e-10
1.46038e-10
1.46038e-10
1.46038e-10
1.46038e-10
1.46038e-10
1.46038e-10
1.46038e-10
1.46038e-10
1.46038e-10
1.46038e-10
1.46038e-10
1.46038e-10
1.46038e-10
1.46038e-10
1.46038e-10
1.46038e-10
1.46038e-10
1.46038e-10
1.46038e-10
1.46038e-10
1.46038e-10
1.46038e-10
1.46038e-10
1.46038e-10
1.46038e-10
1.46038e-10
1.46038e-10
1.46038e-10
1.46038e-10
1.46038e-10
1.46038e-10
1.46038e-10
1.46038e-10
1.46038e-10
1.46038e-10
1.46038e-10
1.46038e-10
1.46038e-10
1.46038e-10
1.46038e-10
1.46038e-10
1.46038e-10
1.46038e-10
1.46038e-10
1.46038e-10
1.46038e-10
1.46038e-10
1.46038e-10
1.46038e-10
1.46038e-10
1.46038e-10
1.46038e-10
1.46038e-10
1.46038e-10
1.46038e-10
1.46038e-10
1.46038e-10
1.46038e-10
1.46038e-10
1.46038e-10
1.46038e-10
1.46038e-10
1.46038e-10
1.46038e-10
1.46038e-10
1.46038e-10
1.46038e-10
1.46038e-10
1.46038e-10
1.46038e-10
1.46038e-10
1.46038e-10
1.46038e-10
1.46038e-10
1.46038e-10
1.46038e-10
1.46038e-10
1.46038e-10
1.46038e-10
1.46038e-10
1.46038e-10
1.46038e-10
1.46038e-10
1.46038e-10
1.46038e-10
1.46038e-10
1.46038e-10
1.46038e-10
1.46038e-10
1.46038e-10
1.46038e-10
1.46038e-10
1.46038e-10
1.46038e-10
1.46038e-10
1.46038e-10
1.46038e-10
1.46038e-10
1.46038e-10
1.46038e-10
1.46038e-10
1.46038e-10
1.46038e-10
1.46038e-10
1.46038e-10
1.46038e-10
1.46038e-10
1.46038e-10
1.46038e-10
1.46038e-10
1.46038e-10
1.46038e-10
1.46038e-10
1.46038e-10
1.46038e-10
1.46038e-10
1.46038e-10
1.46038e-10
1.46038e-10
1.46038e-10
1.46038e-10
1.46038e-10
1.46038e-10
1.46038e-10
1.46038e-10
1.46038e-10
1.46038e-10
1.46038e-10
1.46038e-10
1.46038e-10
1.46038e-10
1.46038e-10
1.46038e-10
1.46038e-10
1.46038e-10
1.46038e-10
1.46038e-10
1.46038e-10
1.46038e-10
1.46038e-10
1.46038e-10
1.46038e-10
1.46038e-10
1.46038e-10
1.46038e-10
1.46038e-10
1.46038e-10
1.46038e-10
1.46038e-10
1.46038e-10
1.46038e-10
1.46038e-10
1.46038e-10
1.46038e-10
1.46038e-10
1.46038e-10
1.46038e-10
1.46038e-10
1.46038e-10
1.46038e-10
1.46038e-10
1.46038e-10
1.46038e-10
1.46038e-10
1.46038e-10
1.46038e-10
1.46038e-10
1.46038e-10
1.46038e-10
1.46038e-10
1.46038e-10
1.46038e-10
1.46038e-10
1.46038e-10
1.46038e-10
1.46038e-10
1.46038e-10
1.46038e-10
1.46038e-10
1.46038e-10
1.46038e-10
1.46038e-10
1.46038e-10
1.46038e-10
1.46038e-10
1.46038e-10
1.46038e-10
1.46038e-10
1.46038e-10
1.46038e-10
1.46038e-10
1.46038e-10
1.46038e-10
1.46038e-10
1.46038e-10
1.46038e-10
1.46038e-10
1.46038e-10
1.46038e-10
1.46038e-10
1.46038e-10
1.46038e-10
1.46038e-10
1.46038e-10
1.46038e-10
1.46038e-10
1.46038e-10
1.46038e-10
1.46038e-10
1.46038e-10
1.46038e-10
1.46038e-10
1.46038e-10
1.46038e-10
1.46038e-10
1.46038e-10
1.46038e-10
1.46038e-10
1.46038e-10
1.46038e-10
1.46038e-10
1.46038e-10
1.46038e-10
1.46038e-10
1.46038e-10
1.46038e-10
1.46038e-10
1.46038e-10
1.46038e-10
1.46038e-10
1.46038e-10
1.46038e-10
1.46038e-10
1.46038e-10
1.46038e-10
1.46038e-10
1.46038e-10
1.46038e-10
1.46038e-10
1.46038e-10
1.46038e-10
1.46038e-10
1.46038e-10
1.46038e-10
1.46038e-10
1.46038e-10
1.46038e-10
1.46038e-10
1.46038e-10
1.46038e-10
1.46038e-10
1.46038e-10
1.46038e-10
1.46038e-10
1.46038e-10
1.46038e-10
1.46038e-10
1.46038e-10
1.46038e-10
1.46038e-10
1.46038e-10
1.46038e-10
1.46038e-10
1.46038e-10
1.46038e-10
1.46038e-10
1.46038e-10
1.46038e-10
1.46038e-10
1.46038e-10
1.46038e-10
1.46038e-10
1.46038e-10
1.46038e-10
1.46038e-10
1.46038e-10
1.46038e-10
1.46038e-10
1.46038e-10
1.46038e-10
1.46038e-10
1.46038e-10
1.46038e-10
1.46038e-10
1.46038e-10
1.46038e-10
1.46038e-10
1.46038e-10
1.46038e-10
1.46038e-10
1.46038e-10
1.46038e-10
1.46038e-10
1.46038e-10
1.46038e-10
1.46038e-10
1.46038e-10
1.46038e-10
1.46038e-10
1.46038e-10
1.46038e-10
1.46038e-10
1.46038e-10
1.46038e-10
1.46038e-10
1.46038e-10
1.46038e-10
1.46038e-10
1.46038e-10
1.46038e-10
1.46038e-10
1.46038e-10
1.46038e-10
1.46038e-10
1.46038e-10
1.46038e-10
1.46038e-10
1.46038e-10
1.46038e-10
1.46038e-10
1.46038e-10
1.46038e-10
1.46038e-10
1.46038e-10
1.46038e-10
1.46038e-10
1.46038e-10
1.46038e-10
1.46038e-10
1.46038e-10
1.46038e-10
1.46038e-10
1.46038e-10
1.46038e-10
1.46038e-10
1.46038e-10
1.46038e-10
1.46038e-10
1.46038e-10
1.46038e-10
1.46038e-10
1.46038e-10
1.46038e-10
1.46038e-10
1.46038e-10
1.46038e-10
1.46038e-10
1.46038e-10
1.46038e-10
1.46038e-10
1.46038e-10
1.46038e-10
1.46038e-10
1.46038e-10
1.46038e-10
1.46038e-10
1.46038e-10
1.46038e-10
1.46038e-10
1.46038e-10
1.46038e-10
1.46038e-10
1.46038e-10
1.46038e-10
1.46038e-10
1.46038e-10
1.46038e-10
1.46038e-10
1.46038e-10
1.46038e-10
1.46038e-10
1.46038e-10
1.46038e-10
1.46038e-10
1.46038e-10
1.46038e-10
1.46038e-10
1.46038e-10
1.46038e-10
1.46038e-10
1.46038e-10
1.46038e-10
1.46038e-10
1.46038e-10
1.46038e-10
1.46038e-10
1.46038e-10
1.46038e-10
1.46038e-10
1.46038e-10
1.46038e-10
1.46038e-10
1.46038e-10
1.46038e-10
1.46038e-10
1.46038e-10
1.46038e-10
1.46038e-10
1.46038e-10
1.46038e-10
1.46038e-10
1.46038e-10
1.46038e-10
1.46038e-10
1.46038e-10
1.46038e-10
1.46038e-10
1.46038e-10
1.46038e-10
1.46038e-10
1.46038e-10
1.46038e-10
1.46038e-10
1.46038e-10
1.46038e-10
1.46038e-10
1.46038e-10
1.46038e-10
1.46038e-10
1.46038e-10
1.46038e-10
1.46038e-10
1.46038e-10
1.46038e-10
1.46038e-10
1.46038e-10
1.46038e-10
1.46038e-10
1.46038e-10
1.46038e-10
1.46038e-10
1.46038e-10
1.46038e-10
1.46038e-10
1.46038e-10
1.46038e-10
1.46038e-10
1.46038e-10
1.46038e-10
1.46038e-10
1.46038e-10
1.46038e-10
1.46038e-10
1.46038e-10
1.46038e-10
1.46038e-10
1.46038e-10
1.46038e-10
1.46038e-10
1.46038e-10
1.46038e-10
1.46038e-10
1.46038e-10
1.46038e-10
1.46038e-10
1.46038e-10
1.46038e-10
1.46038e-10
1.46038e-10
1.46038e-10
1.46038e-10
1.46038e-10
1.46038e-10
1.46038e-10
1.46038e-10
1.46038e-10
1.46038e-10
1.46038e-10
1.46038e-10
1.46038e-10
1.46038e-10
1.46038e-10
1.46038e-10
1.46038e-10
1.46038e-10
1.46038e-10
1.46038e-10
1.46038e-10
1.46038e-10
1.46038e-10
1.46038e-10
1.46038e-10
1.46038e-10
1.46038e-10
1.46038e-10
1.46038e-10
1.46038e-10
1.46038e-10
1.46038e-10
1.46038e-10
1.46038e-10
1.46038e-10
1.46038e-10
1.46038e-10
1.46038e-10
1.46038e-10
1.46038e-10
1.46038e-10
1.46038e-10
1.46038e-10
1.46038e-10
1.46038e-10
1.46038e-10
1.46038e-10
1.46038e-10
1.46038e-10
1.46038e-10
1.46038e-10
1.46038e-10
1.46038e-10
1.46038e-10
1.46038e-10
1.46038e-10
1.46038e-10
1.46038e-10
1.46038e-10
1.46038e-10
1.46038e-10
1.46038e-10
1.46038e-10
1.46038e-10
1.46038e-10
1.46038e-10
1.46038e-10
1.46038e-10
1.46038e-10
1.46038e-10
1.46038e-10
1.46038e-10
1.46038e-10
1.46038e-10
1.46038e-10
1.46038e-10
1.46038e-10
1.46038e-10
1.46038e-10
1.46038e-10
1.46038e-10
1.46038e-10
1.46038e-10
1.46038e-10
1.46038e-10
1.46038e-10
1.46038e-10
1.46038e-10
1.46038e-10
1.46038e-10
1.46038e-10
1.46038e-10
1.46038e-10
1.46038e-10
1.46038e-10
1.46038e-10
1.46038e-10
1.46038e-10
1.46038e-10
1.46038e-10
1.46038e-10
1.46038e-10
1.46038e-10
1.46038e-10
1.46038e-10
1.46038e-10
1.46038e-10
1.46038e-10
1.46038e-10
1.46038e-10
1.46038e-10
1.46038e-10
1.46038e-10
1.46038e-10
1.46038e-10
1.46038e-10
1.46038e-10
1.46038e-10
1.46038e-10
1.46038e-10
1.46038e-10
1.46038e-10
1.46038e-10
1.46038e-10
1.46038e-10
1.46038e-10
1.46038e-10
1.46038e-10
1.46038e-10
1.46038e-10
1.46038e-10
1.46038e-10
1.46038e-10
1.46038e-10
1.46038e-10
1.46038e-10
1.46038e-10
1.46038e-10
1.46038e-10
1.46038e-10
1.46038e-10
1.46038e-10
1.46038e-10
1.46038e-10
1.46038e-10
1.46038e-10
1.46038e-10
1.46038e-10
1.46038e-10
1.46038e-10
1.46038e-10
1.46038e-10
1.46038e-10
1.46038e-10
1.46038e-10
1.46038e-10
1.46038e-10
1.46038e-10
1.46038e-10
1.46038e-10
1.46038e-10
1.46038e-10
1.46038e-10
1.46038e-10
1.46038e-10
1.46038e-10
1.46038e-10
1.46038e-10
1.46038e-10
1.46038e-10
1.46038e-10
1.46038e-10
1.46038e-10
1.46038e-10
1.46038e-10
1.46038e-10
1.46038e-10
1.46038e-10
1.46038e-10
1.46038e-10
1.46038e-10
1.46038e-10
1.46038e-10
1.46038e-10
1.46038e-10
1.46038e-10
1.46038e-10
1.46038e-10
1.46038e-10
1.46038e-10
1.46038e-10
1.46038e-10
1.46038e-10
1.46038e-10
1.46038e-10
1.46038e-10
1.46038e-10
1.46038e-10
1.46038e-10
1.46038e-10
1.46038e-10
1.46038e-10
1.46038e-10
1.46038e-10
1.46038e-10
1.46038e-10
1.46038e-10
1.46038e-10
1.46038e-10
1.46038e-10
1.46038e-10
1.46038e-10
1.46038e-10
1.46038e-10
1.46038e-10
1.46038e-10
1.46038e-10
1.46038e-10
1.46038e-10
1.46038e-10
1.46038e-10
1.46038e-10
1.46038e-10
1.46038e-10
1.46038e-10
1.46038e-10
1.46038e-10
1.46038e-10
1.46038e-10
1.46038e-10
1.46038e-10
1.46038e-10
1.46038e-10
1.46038e-10
1.46038e-10
1.46038e-10
1.46038e-10
1.46038e-10
1.46038e-10
1.46038e-10
1.46038e-10
1.46038e-10
1.46038e-10
1.46038e-10
1.46038e-10
1.46038e-10
1.46038e-10
1.46038e-10
1.46038e-10
1.46038e-10
1.46038e-10
1.46038e-10
1.46038e-10
1.46038e-10
1.46038e-10
1.46038e-10
1.46038e-10
1.46038e-10
1.46038e-10
1.46038e-10
1.46038e-10
1.46038e-10
1.46038e-10
1.46038e-10
1.46038e-10
1.46038e-10
1.46038e-10
1.46038e-10
1.46038e-10
1.46038e-10
1.46038e-10
1.46038e-10
1.46038e-10
1.46038e-10
1.46038e-10
1.46038e-10
1.46038e-10
1.46038e-10
1.46038e-10
1.46038e-10
1.46038e-10
1.46038e-10
1.46038e-10
1.46038e-10
1.46038e-10
1.46038e-10
1.46038e-10
1.46038e-10
1.46038e-10
1.46038e-10
1.46038e-10
1.46038e-10
1.46038e-10
1.46038e-10
1.46038e-10
1.46038e-10
1.46038e-10
1.46038e-10
1.46038e-10
1.46038e-10
1.46038e-10
1.46038e-10
1.46038e-10
1.46039e-10
1.46038e-10
1.46038e-10
1.46038e-10
1.46038e-10
1.46038e-10
1.46038e-10
1.46038e-10
1.46038e-10
1.46038e-10
1.46038e-10
1.46038e-10
1.46038e-10
1.46038e-10
1.46038e-10
1.46038e-10
1.46038e-10
1.46038e-10
1.46038e-10
1.46038e-10
1.46038e-10
1.46038e-10
1.46038e-10
1.46038e-10
1.46038e-10
1.46038e-10
1.46038e-10
1.46038e-10
1.46038e-10
1.46038e-10
1.46038e-10
1.46038e-10
1.46038e-10
1.46038e-10
1.46038e-10
1.46038e-10
1.46038e-10
1.46038e-10
1.46038e-10
1.46038e-10
1.46038e-10
1.46038e-10
1.46038e-10
1.46038e-10
1.46038e-10
1.46038e-10
1.46038e-10
1.46039e-10
1.4604e-10
1.46041e-10
1.46042e-10
1.46038e-10
1.46038e-10
1.46038e-10
1.46038e-10
1.46038e-10
1.46038e-10
1.46038e-10
1.46038e-10
1.46038e-10
1.46038e-10
1.46038e-10
1.46038e-10
1.46038e-10
1.46038e-10
1.46038e-10
1.46038e-10
1.46038e-10
1.46038e-10
1.46038e-10
1.46038e-10
1.46038e-10
1.46038e-10
1.46038e-10
1.46038e-10
1.46038e-10
1.46038e-10
1.46038e-10
1.46038e-10
1.46038e-10
1.46038e-10
1.46038e-10
1.46038e-10
1.46038e-10
1.46038e-10
1.46038e-10
1.46038e-10
1.46038e-10
1.46038e-10
1.46038e-10
1.46038e-10
1.46038e-10
1.46038e-10
1.46039e-10
1.46039e-10
1.4604e-10
1.46041e-10
1.46042e-10
1.46044e-10
1.46048e-10
1.46054e-10
1.46038e-10
1.46038e-10
1.46038e-10
1.46038e-10
1.46038e-10
1.46038e-10
1.46038e-10
1.46038e-10
1.46038e-10
1.46038e-10
1.46038e-10
1.46038e-10
1.46038e-10
1.46038e-10
1.46038e-10
1.46038e-10
1.46038e-10
1.46038e-10
1.46038e-10
1.46038e-10
1.46038e-10
1.46038e-10
1.46038e-10
1.46038e-10
1.46038e-10
1.46038e-10
1.46038e-10
1.46038e-10
1.46038e-10
1.46038e-10
1.46038e-10
1.46038e-10
1.46038e-10
1.46038e-10
1.46038e-10
1.46038e-10
1.46038e-10
1.46038e-10
1.46038e-10
1.46039e-10
1.46039e-10
1.4604e-10
1.46041e-10
1.46042e-10
1.46045e-10
1.46048e-10
1.46054e-10
1.46062e-10
1.46075e-10
1.46096e-10
1.46038e-10
1.46038e-10
1.46038e-10
1.46038e-10
1.46038e-10
1.46038e-10
1.46038e-10
1.46038e-10
1.46038e-10
1.46038e-10
1.46038e-10
1.46038e-10
1.46038e-10
1.46038e-10
1.46038e-10
1.46038e-10
1.46038e-10
1.46038e-10
1.46038e-10
1.46038e-10
1.46038e-10
1.46038e-10
1.46038e-10
1.46038e-10
1.46038e-10
1.46038e-10
1.46038e-10
1.46038e-10
1.46038e-10
1.46038e-10
1.46038e-10
1.46038e-10
1.46038e-10
1.46038e-10
1.46038e-10
1.46038e-10
1.46039e-10
1.46039e-10
1.4604e-10
1.46041e-10
1.46043e-10
1.46045e-10
1.46049e-10
1.46054e-10
1.46063e-10
1.46076e-10
1.46095e-10
1.46125e-10
1.46171e-10
1.46245e-10
1.46038e-10
1.46038e-10
1.46038e-10
1.46038e-10
1.46038e-10
1.46038e-10
1.46038e-10
1.46038e-10
1.46038e-10
1.46038e-10
1.46038e-10
1.46038e-10
1.46038e-10
1.46038e-10
1.46038e-10
1.46038e-10
1.46038e-10
1.46038e-10
1.46038e-10
1.46038e-10
1.46038e-10
1.46038e-10
1.46038e-10
1.46038e-10
1.46038e-10
1.46038e-10
1.46038e-10
1.46038e-10
1.46038e-10
1.46038e-10
1.46038e-10
1.46038e-10
1.46038e-10
1.46039e-10
1.46039e-10
1.4604e-10
1.46041e-10
1.46043e-10
1.46046e-10
1.4605e-10
1.46056e-10
1.46064e-10
1.46078e-10
1.46097e-10
1.46127e-10
1.46173e-10
1.46242e-10
1.46347e-10
1.4651e-10
1.4677e-10
1.46038e-10
1.46038e-10
1.46038e-10
1.46038e-10
1.46038e-10
1.46038e-10
1.46038e-10
1.46038e-10
1.46038e-10
1.46038e-10
1.46038e-10
1.46038e-10
1.46038e-10
1.46038e-10
1.46038e-10
1.46038e-10
1.46038e-10
1.46038e-10
1.46038e-10
1.46038e-10
1.46038e-10
1.46038e-10
1.46038e-10
1.46038e-10
1.46038e-10
1.46038e-10
1.46038e-10
1.46038e-10
1.46038e-10
1.46039e-10
1.46039e-10
1.4604e-10
1.46041e-10
1.46042e-10
1.46044e-10
1.46047e-10
1.46051e-10
1.46057e-10
1.46066e-10
1.4608e-10
1.46101e-10
1.46132e-10
1.46178e-10
1.46248e-10
1.46353e-10
1.46512e-10
1.46754e-10
1.47124e-10
1.47693e-10
1.48597e-10
1.46038e-10
1.46038e-10
1.46038e-10
1.46038e-10
1.46038e-10
1.46038e-10
1.46038e-10
1.46038e-10
1.46038e-10
1.46038e-10
1.46038e-10
1.46038e-10
1.46038e-10
1.46038e-10
1.46038e-10
1.46038e-10
1.46038e-10
1.46038e-10
1.46038e-10
1.46038e-10
1.46038e-10
1.46038e-10
1.46038e-10
1.46038e-10
1.46038e-10
1.46038e-10
1.46039e-10
1.46039e-10
1.4604e-10
1.46041e-10
1.46042e-10
1.46045e-10
1.46048e-10
1.46052e-10
1.46059e-10
1.46069e-10
1.46084e-10
1.46106e-10
1.46138e-10
1.46187e-10
1.46259e-10
1.46366e-10
1.46528e-10
1.46772e-10
1.47139e-10
1.47695e-10
1.48539e-10
1.49824e-10
1.51796e-10
1.54895e-10
1.46038e-10
1.46038e-10
1.46038e-10
1.46038e-10
1.46038e-10
1.46038e-10
1.46038e-10
1.46038e-10
1.46038e-10
1.46038e-10
1.46038e-10
1.46038e-10
1.46038e-10
1.46038e-10
1.46038e-10
1.46038e-10
1.46038e-10
1.46038e-10
1.46038e-10
1.46038e-10
1.46038e-10
1.46038e-10
1.46039e-10
1.46039e-10
1.4604e-10
1.4604e-10
1.46042e-10
1.46043e-10
1.46046e-10
1.46049e-10
1.46054e-10
1.46062e-10
1.46073e-10
1.46089e-10
1.46113e-10
1.46147e-10
1.46199e-10
1.46275e-10
1.46387e-10
1.46555e-10
1.46806e-10
1.47181e-10
1.47743e-10
1.4859e-10
1.49865e-10
1.5179e-10
1.54696e-10
1.59088e-10
1.65747e-10
1.75996e-10
1.46038e-10
1.46038e-10
1.46038e-10
1.46038e-10
1.46038e-10
1.46038e-10
1.46038e-10
1.46038e-10
1.46038e-10
1.46038e-10
1.46038e-10
1.46038e-10
1.46038e-10
1.46038e-10
1.46038e-10
1.46038e-10
1.46038e-10
1.46038e-10
1.46039e-10
1.46039e-10
1.46039e-10
1.4604e-10
1.46041e-10
1.46042e-10
1.46044e-10
1.46047e-10
1.46051e-10
1.46057e-10
1.46066e-10
1.46078e-10
1.46096e-10
1.46122e-10
1.4616e-10
1.46215e-10
1.46297e-10
1.46417e-10
1.46595e-10
1.46857e-10
1.47248e-10
1.4783e-10
1.48698e-10
1.49996e-10
1.51941e-10
1.54854e-10
1.59216e-10
1.65733e-10
1.75442e-10
1.89851e-10
2.11204e-10
2.43031e-10
1.46038e-10
1.46038e-10
1.46038e-10
1.46038e-10
1.46038e-10
1.46038e-10
1.46038e-10
1.46038e-10
1.46038e-10
1.46038e-10
1.46038e-10
1.46038e-10
1.46038e-10
1.46038e-10
1.46038e-10
1.46039e-10
1.46039e-10
1.4604e-10
1.46041e-10
1.46042e-10
1.46043e-10
1.46046e-10
1.46049e-10
1.46054e-10
1.46061e-10
1.4607e-10
1.46084e-10
1.46105e-10
1.46134e-10
1.46176e-10
1.46237e-10
1.46327e-10
1.46458e-10
1.46649e-10
1.46931e-10
1.47346e-10
1.47959e-10
1.48868e-10
1.50218e-10
1.52225e-10
1.55211e-10
1.59651e-10
1.66244e-10
1.76003e-10
1.90381e-10
2.11437e-10
2.42035e-10
2.86101e-10
3.49026e-10
4.38338e-10
1.46038e-10
1.46038e-10
1.46038e-10
1.46038e-10
1.46038e-10
1.46038e-10
1.46038e-10
1.46038e-10
1.46038e-10
1.46038e-10
1.46038e-10
1.46039e-10
1.46039e-10
1.4604e-10
1.4604e-10
1.46041e-10
1.46043e-10
1.46045e-10
1.46048e-10
1.46052e-10
1.46057e-10
1.46065e-10
1.46077e-10
1.46093e-10
1.46116e-10
1.4615e-10
1.46198e-10
1.46267e-10
1.46367e-10
1.46512e-10
1.46723e-10
1.4703e-10
1.47481e-10
1.48141e-10
1.49113e-10
1.50545e-10
1.5266e-10
1.55785e-10
1.60402e-10
1.67214e-10
1.77239e-10
1.91934e-10
2.13352e-10
2.44328e-10
2.88679e-10
3.51352e-10
4.38511e-10
5.57576e-10
7.17599e-10
9.2975e-10
1.46038e-10
1.46038e-10
1.46038e-10
1.46038e-10
1.46038e-10
1.46038e-10
1.46038e-10
1.46039e-10
1.46039e-10
1.46039e-10
1.4604e-10
1.46041e-10
1.46042e-10
1.46044e-10
1.46047e-10
1.4605e-10
1.46055e-10
1.46062e-10
1.46072e-10
1.46085e-10
1.46105e-10
1.46132e-10
1.46171e-10
1.46226e-10
1.46306e-10
1.4642e-10
1.46584e-10
1.46821e-10
1.47164e-10
1.47663e-10
1.48389e-10
1.4945e-10
1.51002e-10
1.53279e-10
1.56619e-10
1.61521e-10
1.68709e-10
1.79224e-10
1.94554e-10
2.16785e-10
2.48791e-10
2.94419e-10
3.58635e-10
4.47562e-10
5.6839e-10
7.29155e-10
9.38481e-10
1.20552e-09
1.5405e-09
1.9564e-09
1.46038e-10
1.46038e-10
1.46038e-10
1.46039e-10
1.46039e-10
1.46039e-10
1.4604e-10
1.46041e-10
1.46042e-10
1.46044e-10
1.46046e-10
1.46049e-10
1.46054e-10
1.4606e-10
1.46068e-10
1.4608e-10
1.46097e-10
1.4612e-10
1.46153e-10
1.46199e-10
1.46265e-10
1.46358e-10
1.4649e-10
1.4668e-10
1.46952e-10
1.47343e-10
1.47907e-10
1.48722e-10
1.49905e-10
1.51624e-10
1.54127e-10
1.57775e-10
1.63093e-10
1.7084e-10
1.82105e-10
1.98431e-10
2.21978e-10
2.55699e-10
3.03528e-10
3.70511e-10
4.62836e-10
5.87729e-10
7.53259e-10
9.67964e-10
1.24059e-09
1.57949e-09
1.99253e-09
2.48711e-09
3.07219e-09
3.76214e-09
1.46039e-10
1.46039e-10
1.4604e-10
1.4604e-10
1.46041e-10
1.46042e-10
1.46044e-10
1.46046e-10
1.46049e-10
1.46053e-10
1.46059e-10
1.46066e-10
1.46077e-10
1.46092e-10
1.46112e-10
1.46141e-10
1.46181e-10
1.46237e-10
1.46316e-10
1.46427e-10
1.46585e-10
1.46809e-10
1.47127e-10
1.47582e-10
1.48233e-10
1.49169e-10
1.50516e-10
1.52462e-10
1.55274e-10
1.59346e-10
1.65242e-10
1.73775e-10
1.86103e-10
2.03861e-10
2.29316e-10
2.65552e-10
3.1664e-10
3.87755e-10
4.85203e-10
6.163e-10
7.89165e-10
1.01239e-09
1.29469e-09
1.64469e-09
2.07003e-09
2.57776e-09
3.17363e-09
3.86139e-09
4.64207e-09
5.51895e-09
6.51424e-09
1.46041e-10
1.46042e-10
1.46044e-10
1.46046e-10
1.46049e-10
1.46053e-10
1.46058e-10
1.46065e-10
1.46075e-10
1.46089e-10
1.46108e-10
1.46134e-10
1.4617e-10
1.4622e-10
1.46289e-10
1.46386e-10
1.46522e-10
1.46714e-10
1.46983e-10
1.47364e-10
1.47904e-10
1.48673e-10
1.49771e-10
1.5134e-10
1.5359e-10
1.56821e-10
1.61467e-10
1.6815e-10
1.77756e-10
1.91544e-10
2.11273e-10
2.39366e-10
2.79086e-10
3.34693e-10
4.11547e-10
5.16112e-10
6.55826e-10
8.38878e-10
1.07392e-09
1.36971e-09
1.73489e-09
2.17727e-09
2.704e-09
3.32097e-09
4.0324e-09
4.8395e-09
5.74088e-09
6.73461e-09
7.82057e-09
9.00586e-09
1.03335e-08
1.46046e-10
1.46049e-10
1.46053e-10
1.46059e-10
1.46066e-10
1.46075e-10
1.46088e-10
1.46106e-10
1.46131e-10
1.46164e-10
1.4621e-10
1.46274e-10
1.46362e-10
1.46484e-10
1.46653e-10
1.4689e-10
1.47222e-10
1.47688e-10
1.48345e-10
1.49273e-10
1.50588e-10
1.52457e-10
1.55119e-10
1.58916e-10
1.64337e-10
1.72082e-10
1.8314e-10
1.989e-10
2.21292e-10
2.52944e-10
2.97351e-10
3.59021e-10
4.43547e-10
5.57592e-10
7.08744e-10
9.05272e-10
1.15589e-09
1.46937e-09
1.85432e-09
2.31872e-09
2.86963e-09
3.51319e-09
4.25402e-09
5.09404e-09
6.03214e-09
7.06578e-09
8.19303e-09
9.4146e-09
1.07332e-08
1.21545e-08
1.369e-08
1.54007e-08
1.46067e-10
1.46077e-10
1.4609e-10
1.46107e-10
1.46131e-10
1.46164e-10
1.46208e-10
1.46268e-10
1.46351e-10
1.46464e-10
1.46621e-10
1.46837e-10
1.47137e-10
1.47555e-10
1.48137e-10
1.48953e-10
1.50099e-10
1.51713e-10
1.5399e-10
1.57212e-10
1.61775e-10
1.68248e-10
1.77429e-10
1.90444e-10
2.08858e-10
2.34819e-10
2.71216e-10
3.21838e-10
3.91493e-10
4.86056e-10
6.12425e-10
7.78356e-10
9.92222e-10
1.26276e-09
1.59873e-09
2.00869e-09
2.50072e-09
3.08177e-09
3.7581e-09
4.53445e-09
5.41333e-09
6.39412e-09
7.47419e-09
8.65072e-09
9.92279e-09
1.1292e-08
1.27617e-08
1.43382e-08
1.60271e-08
1.78362e-08
1.97811e-08
2.19353e-08
1.46135e-10
1.46168e-10
1.46212e-10
1.46271e-10
1.46352e-10
1.46462e-10
1.46611e-10
1.46817e-10
1.47099e-10
1.47488e-10
1.48025e-10
1.48771e-10
1.49809e-10
1.51257e-10
1.53282e-10
1.56122e-10
1.60113e-10
1.65727e-10
1.73634e-10
1.84769e-10
2.00434e-10
2.22422e-10
2.53157e-10
2.95855e-10
3.54657e-10
4.34725e-10
5.42257e-10
6.8441e-10
8.69121e-10
1.10486e-09
1.40036e-09
1.76438e-09
2.2054e-09
2.7314e-09
3.34933e-09
4.06538e-09
4.88429e-09
5.80902e-09
6.83941e-09
7.97276e-09
9.20561e-09
1.05358e-08
1.19639e-08
1.34922e-08
1.51251e-08
1.68684e-08
1.87281e-08
2.07133e-08
2.28305e-08
2.50858e-08
2.75046e-08
3.01764e-08
1.46365e-10
1.46475e-10
1.46625e-10
1.46827e-10
1.47103e-10
1.47479e-10
1.47995e-10
1.48704e-10
1.49681e-10
1.51032e-10
1.52906e-10
1.55509e-10
1.59136e-10
1.64197e-10
1.71268e-10
1.81152e-10
1.94966e-10
2.14243e-10
2.41063e-10
2.78199e-10
3.29256e-10
3.9879e-10
4.92364e-10
6.16527e-10
7.78708e-10
9.87019e-10
1.25001e-09
1.5764e-09
1.97488e-09
2.45381e-09
3.02106e-09
3.68347e-09
4.44704e-09
5.31658e-09
6.29516e-09
7.383e-09
8.57737e-09
9.87442e-09
1.1271e-08
1.27665e-08
1.4362e-08
1.60606e-08
1.78683e-08
1.97896e-08
2.18318e-08
2.4004e-08
2.63094e-08
2.87621e-08
3.13746e-08
3.41503e-08
3.71056e-08
4.03488e-08
1.47149e-10
1.47528e-10
1.48043e-10
1.48744e-10
1.49701e-10
1.51013e-10
1.52816e-10
1.55299e-10
1.58727e-10
1.63471e-10
1.70043e-10
1.79159e-10
1.91803e-10
2.09328e-10
2.33565e-10
2.66958e-10
3.12699e-10
3.74855e-10
4.5845e-10
5.69482e-10
7.14866e-10
9.02294e-10
1.14004e-09
1.43668e-09
1.80091e-09
2.24129e-09
2.76603e-09
3.38279e-09
4.0983e-09
4.91827e-09
5.84748e-09
6.88894e-09
8.04305e-09
9.3072e-09
1.06772e-08
1.21491e-08
1.37209e-08
1.53929e-08
1.71673e-08
1.90486e-08
2.10412e-08
2.31514e-08
2.53887e-08
2.7756e-08
3.02621e-08
3.2925e-08
3.57478e-08
3.87346e-08
4.18954e-08
4.52447e-08
4.88036e-08
5.26991e-08
1.49873e-10
1.51199e-10
1.53004e-10
1.55468e-10
1.58841e-10
1.63467e-10
1.69822e-10
1.78562e-10
1.90589e-10
2.07133e-10
2.29852e-10
2.60957e-10
3.03337e-10
3.60685e-10
4.3759e-10
5.39585e-10
6.73122e-10
8.45471e-10
1.06456e-09
1.33878e-09
1.67672e-09
2.08694e-09
2.57787e-09
3.15749e-09
3.8332e-09
4.61153e-09
5.4979e-09
6.4969e-09
7.61134e-09
8.84171e-09
1.01855e-08
1.16381e-08
1.31949e-08
1.48527e-08
1.66112e-08
1.84712e-08
2.04361e-08
2.25106e-08
2.46995e-08
2.7011e-08
2.94504e-08
3.20234e-08
3.4746e-08
3.76266e-08
4.06671e-08
4.3876e-08
4.72648e-08
5.08442e-08
5.46262e-08
5.86292e-08
6.28811e-08
6.7522e-08
1.59497e-10
1.64193e-10
1.70588e-10
1.79308e-10
1.91205e-10
2.07435e-10
2.2955e-10
2.59606e-10
3.00283e-10
3.55004e-10
4.28035e-10
5.24537e-10
6.50572e-10
8.13031e-10
1.01951e-09
1.27812e-09
1.59731e-09
1.9856e-09
2.45139e-09
3.00289e-09
3.64781e-09
4.39323e-09
5.24538e-09
6.20934e-09
7.2894e-09
8.48812e-09
9.80594e-09
1.12402e-08
1.27861e-08
1.44381e-08
1.61927e-08
1.8048e-08
2.00041e-08
2.20633e-08
2.42302e-08
2.65082e-08
2.89046e-08
3.14266e-08
3.40778e-08
3.68702e-08
3.98174e-08
4.29228e-08
4.61903e-08
4.96309e-08
5.32574e-08
5.70776e-08
6.11077e-08
6.53626e-08
6.98554e-08
7.46018e-08
7.96333e-08
8.51074e-08
2.10309e-10
2.3268e-10
2.62832e-10
3.03321e-10
3.57396e-10
4.29097e-10
5.23316e-10
6.4581e-10
8.03153e-10
1.00264e-09
1.25211e-09
1.5598e-09
1.93413e-09
2.38349e-09
2.91604e-09
3.5397e-09
4.26183e-09
5.08915e-09
6.02752e-09
7.08158e-09
8.25529e-09
9.55083e-09
1.09684e-08
1.25052e-08
1.41558e-08
1.59147e-08
1.7777e-08
1.97401e-08
2.18033e-08
2.39684e-08
2.62382e-08
2.86161e-08
3.11088e-08
3.37234e-08
3.64627e-08
3.93376e-08
4.23616e-08
4.55413e-08
4.88778e-08
5.23815e-08
5.60642e-08
5.99346e-08
6.40053e-08
6.82928e-08
7.28103e-08
7.75701e-08
8.25862e-08
8.78736e-08
9.34494e-08
9.9349e-08
1.05747e-07
3.68294e-10
4.41144e-10
5.36179e-10
6.58942e-10
8.15766e-10
1.01369e-09
1.26031e-09
1.56365e-09
1.93197e-09
2.37355e-09
2.89655e-09
3.50883e-09
4.21795e-09
5.03088e-09
5.95389e-09
6.99235e-09
8.15047e-09
9.43176e-09
1.08379e-08
1.23688e-08
1.40212e-08
1.57894e-08
1.76672e-08
1.96491e-08
2.17317e-08
2.39138e-08