/*--------------------------------*- C++ -*----------------------------------*\
| =========                 |                                                 |
| \\      /  F ield         | OpenFOAM: The Open Source CFD Toolbox           |
|  \\    /   O peration     | Version:  v1706                                 |
|   \\  /    A nd           | Web:      www.OpenFOAM.com                      |
|    \\/     M anipulation  |                                                 |
\*---------------------------------------------------------------------------*/
FoamFile
{
    version     2.0;
    format      ascii;
    class       volScalarField;
    location    "3.8e-05";
    object      Mach;
}
// * * * * * * * * * * * * * * * * * * * * * * * * * * * * * * * * * * * * * //

dimensions      [0 0 0 0 0 0 0];


internalField   nonuniform List<scalar> 
30038
(
7.18506
7.18506
7.18506
7.18506
7.18506
7.18506
7.18506
7.18506
7.18506
7.18506
7.18506
7.18506
7.18506
7.18506
7.18506
7.18506
7.18506
7.18506
7.18506
7.18506
7.18506
7.18506
7.18506
7.18506
7.18506
7.18506
7.18506
7.18506
7.18506
7.18506
7.18506
7.18506
7.18506
7.18506
7.18506
7.18506
7.18506
7.18506
7.18506
7.18506
7.18506
7.18506
7.18506
7.18506
7.18506
7.18506
7.18506
7.18506
7.18506
7.18506
7.18506
7.18506
7.18506
7.18506
7.18506
7.18506
7.18506
7.18506
7.18506
7.18506
7.18506
7.18506
7.18506
7.18506
7.18506
7.18506
7.18506
7.18506
7.18506
7.18506
7.18506
7.18506
7.18506
7.18506
7.18506
7.18506
7.18506
7.18506
7.18506
7.18506
7.18506
7.18506
7.18506
7.18506
7.18506
7.18506
7.18506
7.18506
7.18506
7.18506
7.18506
7.18506
7.18506
7.18506
7.18506
7.18506
7.18506
7.18506
7.18506
7.18506
7.18506
7.18506
7.18506
7.18506
7.18506
7.18506
7.18506
7.18506
7.18506
7.18506
7.18506
7.18506
7.18506
7.18506
7.18506
7.18506
7.18506
7.18506
7.18506
7.18506
7.18506
7.18506
7.18506
7.18506
7.18506
7.18506
7.18506
7.18506
7.18506
7.18506
7.18506
7.18506
7.18506
7.18506
7.18506
7.18506
7.18506
7.18506
7.18506
7.18506
7.18506
7.18506
7.18506
7.18506
7.18506
7.18506
7.18506
7.18506
7.18506
7.18506
7.18506
7.18506
7.18506
7.18506
7.18506
7.18506
7.18506
7.18506
7.18506
7.18506
7.18506
7.18506
7.18506
7.18506
7.18506
7.18506
7.18506
7.18506
7.18506
7.18506
7.18506
7.18506
7.18506
7.18506
7.18506
7.18506
7.18506
7.18506
7.18506
7.18506
7.18506
7.18506
7.18506
7.18506
7.18506
7.18506
7.18506
7.18506
7.18506
7.18506
7.18506
7.18506
7.18506
7.18506
7.18506
7.18506
7.18506
7.18506
7.18506
7.18506
7.18506
7.18506
7.18506
7.18506
7.18506
7.18506
7.18506
7.18506
7.18506
7.18506
7.18506
7.18506
7.18506
7.18506
7.18506
7.18506
7.18506
7.18506
7.18506
7.18506
7.18506
7.18506
7.18506
7.18506
7.18506
7.18506
7.18506
7.18506
7.18506
7.18506
7.18506
7.18506
7.18506
7.18506
7.18506
7.18506
7.18506
7.18506
7.18506
7.18506
7.18506
7.18506
7.18506
7.18506
7.18506
7.18506
7.18506
7.18506
7.18506
7.18506
7.18506
7.18506
7.18506
7.18506
7.18506
7.18506
7.18506
7.18506
7.18506
7.18506
7.18506
7.18506
7.18506
7.18506
7.18506
7.18506
7.18506
7.18506
7.18506
7.18506
7.18506
7.18506
7.18506
7.18506
7.18506
7.18506
7.18506
7.18506
7.18506
7.18506
7.18506
7.18506
7.18506
7.18506
7.18506
7.18506
7.18506
7.18506
7.18506
7.18506
7.18506
7.18506
7.18506
7.18506
7.18506
7.18506
7.18506
7.18506
7.18506
7.18506
7.18506
7.18506
7.18506
7.18506
7.18506
7.18506
7.18506
7.18506
7.18506
7.18506
7.18506
7.18506
7.18506
7.18506
7.18506
7.18506
7.18506
7.18506
7.18506
7.18506
7.18506
7.18506
7.18506
7.18506
7.18506
7.18506
7.18506
7.18506
7.18506
7.18506
7.18506
7.18506
7.18506
7.18506
7.18506
7.18506
7.18506
7.18506
7.18506
7.18506
7.18506
7.18506
7.18506
7.18506
7.18506
7.18506
7.18506
7.18506
7.18506
7.18506
7.18506
7.18506
7.18506
7.18506
7.18506
7.18506
7.18506
7.18506
7.18506
7.18506
7.18506
7.18506
7.18506
7.18506
7.18506
7.18506
7.18506
7.18506
7.18506
7.18506
7.18506
7.18506
7.18506
7.18506
7.18506
7.18506
7.18506
7.18506
7.18506
7.18506
7.18506
7.18506
7.18506
7.18506
7.18506
7.18506
7.18506
7.18506
7.18506
7.18506
7.18506
7.18506
7.18506
7.18506
7.18506
7.18506
7.18506
7.18506
7.18506
7.18506
7.18506
7.18506
7.18506
7.18506
7.18506
7.18506
7.18506
7.18506
7.18506
7.18506
7.18506
7.18506
7.18506
7.18506
7.18506
7.18506
7.18506
7.18506
7.18506
7.18506
7.18506
7.18506
7.18506
7.18506
7.18506
7.18506
7.18506
7.18506
7.18506
7.18506
7.18506
7.18506
7.18506
7.18506
7.18506
7.18506
7.18506
7.18506
7.18506
7.18506
7.18506
7.18506
7.18506
7.18506
7.18506
7.18506
7.18506
7.18506
7.18506
7.18506
7.18506
7.18506
7.18506
7.18506
7.18506
7.18506
7.18506
7.18506
7.18506
7.18506
7.18506
7.18506
7.18506
7.18506
7.18506
7.18506
7.18506
7.18506
7.18506
7.18506
7.18506
7.18506
7.18506
7.18506
7.18506
7.18506
7.18506
7.18506
7.18506
7.18506
7.18506
7.18506
7.18506
7.18506
7.18506
7.18506
7.18506
7.18506
7.18506
7.18506
7.18506
7.18506
7.18506
7.18506
7.18506
7.18506
7.18506
7.18506
7.18506
7.18506
7.18506
7.18506
7.18506
7.18506
7.18506
7.18506
7.18506
7.18506
7.18506
7.18506
7.18506
7.18506
7.18506
7.18506
7.18506
7.18506
7.18506
7.18506
7.18506
7.18506
7.18506
7.18506
7.18506
7.18506
7.18506
7.18506
7.18506
7.18506
7.18506
7.18506
7.18506
7.18506
7.18506
7.18506
7.18506
7.18506
7.18506
7.18506
7.18506
7.18506
7.18506
7.18506
7.18506
7.18506
7.18506
7.18506
7.18506
7.18506
7.18506
7.18506
7.18506
7.18506
7.18506
7.18506
7.18506
7.18506
7.18506
7.18506
7.18506
7.18506
7.18506
7.18506
7.18506
7.18506
7.18506
7.18506
7.18506
7.18506
7.18506
7.18506
7.18506
7.18506
7.18506
7.18506
7.18506
7.18506
7.18506
7.18506
7.18506
7.18506
7.18506
7.18506
7.18506
7.18506
7.18506
7.18506
7.18506
7.18506
7.18506
7.18506
7.18506
7.18506
7.18506
7.18506
7.18506
7.18506
7.18506
7.18506
7.18506
7.18506
7.18506
7.18506
7.18506
7.18506
7.18506
7.18506
7.18506
7.18506
7.18506
7.18506
7.18506
7.18506
7.18506
7.18506
7.18506
7.18506
7.18506
7.18506
7.18506
7.18506
7.18506
7.18506
7.18506
7.18506
7.18506
7.18506
7.18506
7.18506
7.18506
7.18506
7.18506
7.18506
7.18506
7.18506
7.18506
7.18506
7.18506
7.18506
7.18506
7.18506
7.18506
7.18506
7.18506
7.18506
7.18506
7.18506
7.18506
7.18506
7.18506
7.18506
7.18506
7.18506
7.18506
7.18506
7.18506
7.18506
7.18506
7.18506
7.18506
7.18506
7.18506
7.18506
7.18506
7.18506
7.18506
7.18506
7.18506
7.18506
7.18506
7.18506
7.18506
7.18506
7.18506
7.18506
7.18506
7.18506
7.18506
7.18506
7.18506
7.18506
7.18506
7.18506
7.18506
7.18506
7.18506
7.18506
7.18506
7.18506
7.18506
7.18506
7.18506
7.18506
7.18506
7.18506
7.18506
7.18506
7.18506
7.18506
7.18506
7.18506
7.18506
7.18506
7.18506
7.18506
7.18506
7.18506
7.18506
7.18506
7.18506
7.18506
7.18506
7.18506
7.18506
7.18506
7.18506
7.18506
7.18506
7.18506
7.18506
7.18506
7.18506
7.18506
7.18506
7.18506
7.18506
7.18506
7.18506
7.18506
7.18506
7.18506
7.18506
7.18506
7.18506
7.18506
7.18506
7.18506
7.18506
7.18506
7.18506
7.18506
7.18506
7.18506
7.18506
7.18506
7.18506
7.18506
7.18506
7.18506
7.18506
7.18506
7.18506
7.18506
7.18506
7.18506
7.18506
7.18506
7.18506
7.18506
7.18506
7.18506
7.18506
7.18506
7.18506
7.18506
7.18506
7.18506
7.18506
7.18506
7.18506
7.18506
7.18506
7.18506
7.18506
7.18506
7.18506
7.18506
7.18506
7.18506
7.18506
7.18506
7.18506
7.18506
7.18506
7.18506
7.18506
7.18506
7.18506
7.18506
7.18506
7.18506
7.18506
7.18506
7.18506
7.18506
7.18506
7.18506
7.18506
7.18506
7.18506
7.18506
7.18506
7.18506
7.18506
7.18506
7.18506
7.18506
7.18506
7.18506
7.18506
7.18506
7.18506
7.18506
7.18506
7.18506
7.18506
7.18506
7.18506
7.18506
7.18506
7.18506
7.18506
7.18506
7.18506
7.18506
7.18506
7.18506
7.18506
7.18506
7.18506
7.18506
7.18506
7.18506
7.18506
7.18506
7.18506
7.18506
7.18506
7.18506
7.18506
7.18506
7.18506
7.18506
7.18506
7.18506
7.18506
7.18506
7.18506
7.18506
7.18506
7.18506
7.18506
7.18506
7.18506
7.18506
7.18506
7.18506
7.18506
7.18506
7.18506
7.18506
7.18506
7.18506
7.18506
7.18506
7.18506
7.18506
7.18506
7.18506
7.18506
7.18506
7.18506
7.18506
7.18506
7.18506
7.18506
7.18506
7.18506
7.18506
7.18506
7.18506
7.18506
7.18506
7.18506
7.18506
7.18506
7.18506
7.18506
7.18506
7.18506
7.18506
7.18506
7.18506
7.18506
7.18506
7.18506
7.18506
7.18506
7.18506
7.18506
7.18506
7.18506
7.18506
7.18506
7.18506
7.18506
7.18506
7.18506
7.18506
7.18506
7.18506
7.18506
7.18506
7.18506
7.18506
7.18506
7.18506
7.18506
7.18506
7.18506
7.18506
7.18506
7.18506
7.18506
7.18506
7.18506
7.18506
7.18506
7.18506
7.18506
7.18506
7.18506
7.18506
7.18506
7.18506
7.18506
7.18506
7.18506
7.18506
7.18506
7.18506
7.18506
7.18506
7.18506
7.18506
7.18506
7.18506
7.18506
7.18506
7.18506
7.18506
7.18506
7.18506
7.18506
7.18506
7.18506
7.18506
7.18506
7.18506
7.18506
7.18506
7.18506
7.18506
7.18506
7.18506
7.18506
7.18506
7.18506
7.18506
7.18506
7.18506
7.18506
7.18506
7.18506
7.18506
7.18506
7.18506
7.18506
7.18506
7.18506
7.18506
7.18506
7.18506
7.18506
7.18506
7.18506
7.18506
7.18506
7.18506
7.18506
7.18506
7.18506
7.18506
7.18506
7.18506
7.18506
7.18506
7.18506
7.18506
7.18506
7.18506
7.18506
7.18506
7.18506
7.18506
7.18506
7.18506
7.18506
7.18506
7.18506
7.18506
7.18506
7.18506
7.18506
7.18506
7.18506
7.18506
7.18506
7.18506
7.18506
7.18506
7.18506
7.18506
7.18506
7.18506
7.18506
7.18506
7.18506
7.18506
7.18506
7.18506
7.18506
7.18506
7.18506
7.18506
7.18506
7.18506
7.18506
7.18506
7.18506
7.18506
7.18506
7.18506
7.18506
7.18506
7.18506
7.18506
7.18506
7.18506
7.18506
7.18506
7.18506
7.18506
7.18506
7.18506
7.18506
7.18506
7.18506
7.18506
7.18506
7.18506
7.18506
7.18506
7.18506
7.18506
7.18506
7.18506
7.18506
7.18506
7.18506
7.18506
7.18506
7.18506
7.18506
7.18506
7.18506
7.18506
7.18506
7.18506
7.18506
7.18506
7.18506
7.18506
7.18506
7.18506
7.18506
7.18506
7.18506
7.18506
7.18506
7.18506
7.18506
7.18506
7.18506
7.18506
7.18506
7.18506
7.18506
7.18506
7.18506
7.18506
7.18506
7.18506
7.18506
7.18506
7.18506
7.18506
7.18506
7.18506
7.18506
7.18506
7.18506
7.18506
7.18506
7.18506
7.18506
7.18506
7.18506
7.18506
7.18506
7.18506
7.18506
7.18506
7.18506
7.18506
7.18506
7.18506
7.18506
7.18506
7.18506
7.18506
7.18506
7.18506
7.18506
7.18506
7.18506
7.18506
7.18506
7.18506
7.18506
7.18506
7.18506
7.18506
7.18506
7.18506
7.18506
7.18506
7.18506
7.18506
7.18506
7.18506
7.18506
7.18506
7.18506
7.18506
7.18506
7.18506
7.18506
7.18506
7.18506
7.18506
7.18506
7.18506
7.18506
7.18506
7.18506
7.18506
7.18506
7.18506
7.18506
7.18506
7.18506
7.18506
7.18506
7.18506
7.18506
7.18506
7.18506
7.18506
7.18506
7.18506
7.18506
7.18506
7.18506
7.18506
7.18506
7.18506
7.18506
7.18506
7.18506
7.18506
7.18506
7.18505
7.18506
7.18506
7.18506
7.18506
7.18506
7.18506
7.18506
7.18506
7.18506
7.18506
7.18506
7.18506
7.18506
7.18506
7.18506
7.18506
7.18506
7.18506
7.18506
7.18506
7.18506
7.18506
7.18506
7.18506
7.18506
7.18506
7.18506
7.18506
7.18506
7.18506
7.18506
7.18506
7.18506
7.18506
7.18506
7.18506
7.18506
7.18506
7.18506
7.18506
7.18506
7.18506
7.18506
7.18506
7.18506
7.18506
7.18505
7.18505
7.18504
7.18502
7.18506
7.18506
7.18506
7.18506
7.18506
7.18506
7.18506
7.18506
7.18506
7.18506
7.18506
7.18506
7.18506
7.18506
7.18506
7.18506
7.18506
7.18506
7.18506
7.18506
7.18506
7.18506
7.18506
7.18506
7.18506
7.18506
7.18506
7.18506
7.18506
7.18506
7.18506
7.18506
7.18506
7.18506
7.18506
7.18506
7.18506
7.18506
7.18506
7.18506
7.18506
7.18506
7.18506
7.18505
7.18505
7.18504
7.18502
7.185
7.18496
7.1849
7.18506
7.18506
7.18506
7.18506
7.18506
7.18506
7.18506
7.18506
7.18506
7.18506
7.18506
7.18506
7.18506
7.18506
7.18506
7.18506
7.18506
7.18506
7.18506
7.18506
7.18506
7.18506
7.18506
7.18506
7.18506
7.18506
7.18506
7.18506
7.18506
7.18506
7.18506
7.18506
7.18506
7.18506
7.18506
7.18506
7.18506
7.18506
7.18506
7.18506
7.18505
7.18504
7.18503
7.18502
7.18499
7.18496
7.1849
7.18482
7.18469
7.18448
7.18506
7.18506
7.18506
7.18506
7.18506
7.18506
7.18506
7.18506
7.18506
7.18506
7.18506
7.18506
7.18506
7.18506
7.18506
7.18506
7.18506
7.18506
7.18506
7.18506
7.18506
7.18506
7.18506
7.18506
7.18506
7.18506
7.18506
7.18506
7.18506
7.18506
7.18506
7.18506
7.18506
7.18506
7.18506
7.18506
7.18505
7.18505
7.18504
7.18503
7.18501
7.18499
7.18495
7.1849
7.18481
7.18468
7.18449
7.18419
7.18373
7.18299
7.18506
7.18506
7.18506
7.18506
7.18506
7.18506
7.18506
7.18506
7.18506
7.18506
7.18506
7.18506
7.18506
7.18506
7.18506
7.18506
7.18506
7.18506
7.18506
7.18506
7.18506
7.18506
7.18506
7.18506
7.18506
7.18506
7.18506
7.18506
7.18506
7.18506
7.18506
7.18506
7.18506
7.18505
7.18505
7.18504
7.18503
7.18501
7.18498
7.18494
7.18488
7.18479
7.18466
7.18446
7.18416
7.18371
7.18302
7.18198
7.18038
7.17787
7.18506
7.18506
7.18506
7.18506
7.18506
7.18506
7.18506
7.18506
7.18506
7.18506
7.18506
7.18506
7.18506
7.18506
7.18506
7.18506
7.18506
7.18506
7.18506
7.18506
7.18506
7.18506
7.18506
7.18506
7.18506
7.18506
7.18506
7.18506
7.18506
7.18506
7.18505
7.18504
7.18504
7.18502
7.185
7.18497
7.18493
7.18487
7.18477
7.18463
7.18442
7.18411
7.18365
7.18296
7.18192
7.18036
7.17802
7.17447
7.16906
7.16066
7.18506
7.18506
7.18506
7.18506
7.18506
7.18506
7.18506
7.18506
7.18506
7.18506
7.18506
7.18506
7.18506
7.18506
7.18506
7.18506
7.18506
7.18506
7.18506
7.18506
7.18506
7.18506
7.18506
7.18506
7.18506
7.18506
7.18505
7.18505
7.18504
7.18503
7.18502
7.18499
7.18496
7.18491
7.18484
7.18474
7.18459
7.18437
7.18405
7.18356
7.18285
7.18178
7.1802
7.17785
7.17434
7.1691
7.16127
7.14955
7.13185
7.10487
7.18506
7.18506
7.18506
7.18506
7.18506
7.18506
7.18506
7.18506
7.18506
7.18506
7.18506
7.18506
7.18506
7.18506
7.18506
7.18506
7.18506
7.18506
7.18506
7.18506
7.18506
7.18506
7.18506
7.18505
7.18505
7.18504
7.18502
7.18501
7.18498
7.18495
7.18489
7.18482
7.1847
7.18454
7.1843
7.18395
7.18344
7.18268
7.18158
7.17994
7.17753
7.17397
7.1687
7.1609
7.14937
7.13233
7.1072
7.07029
7.01603
6.93655
7.18506
7.18506
7.18506
7.18506
7.18506
7.18506
7.18506
7.18506
7.18506
7.18506
7.18506
7.18506
7.18506
7.18506
7.18506
7.18506
7.18506
7.18506
7.18506
7.18505
7.18505
7.18504
7.18503
7.18502
7.185
7.18497
7.18492
7.18486
7.18478
7.18465
7.18447
7.18421
7.18383
7.18327
7.18246
7.18129
7.17957
7.17705
7.17337
7.16797
7.16005
7.14844
7.13145
7.10665
7.0706
7.0186
6.94441
6.84027
6.69652
6.50381
7.18506
7.18506
7.18506
7.18506
7.18506
7.18506
7.18506
7.18506
7.18506
7.18506
7.18506
7.18506
7.18506
7.18506
7.18506
7.18505
7.18505
7.18504
7.18503
7.18502
7.18501
7.18498
7.18495
7.1849
7.18483
7.18473
7.18458
7.18438
7.18408
7.18366
7.18305
7.18217
7.1809
7.17906
7.17638
7.17251
7.16687
7.15869
7.1468
7.12955
7.10458
7.06863
7.01722
6.94456
6.84349
6.70605
6.52464
6.29407
6.01242
5.68641
7.18506
7.18506
7.18506
7.18506
7.18506
7.18506
7.18506
7.18506
7.18506
7.18506
7.18506
7.18505
7.18505
7.18504
7.18504
7.18503
7.18501
7.18499
7.18496
7.18492
7.18486
7.18478
7.18466
7.1845
7.18426
7.18392
7.18345
7.18276
7.18179
7.18039
7.17838
7.17549
7.17134
7.16536
7.15675
7.14435
7.12653
7.10097
7.06449
7.01281
6.94039
6.84051
6.70573
6.52907
6.3058
6.03562
5.72391
5.38197
5.02241
4.66318
7.18506
7.18506
7.18506
7.18506
7.18506
7.18506
7.18506
7.18505
7.18505
7.18505
7.18504
7.18503
7.18502
7.185
7.18497
7.18493
7.18488
7.18481
7.18471
7.18457
7.18438
7.1841
7.18372
7.18317
7.18239
7.18129
7.17972
7.17749
7.17432
7.16979
7.16333
7.15411
7.14097
7.12224
7.09563
7.05801
7.00521
6.93192
6.83175
6.69774
6.52344
6.30454
6.04082
5.73745
5.40484
5.05676
4.70728
4.36874
4.04793
3.75369
7.18506
7.18506
7.18506
7.18505
7.18505
7.18505
7.18504
7.18503
7.18502
7.185
7.18498
7.18494
7.1849
7.18483
7.18475
7.18463
7.18446
7.18422
7.1839
7.18344
7.1828
7.1819
7.18063
7.17885
7.17633
7.17278
7.16777
7.16067
7.15064
7.13646
7.11644
7.08828
7.04886
6.99407
6.91879
6.81692
6.68197
6.50803
6.29133
6.03192
5.73481
5.40977
5.06965
4.72779
4.39575
4.08212
3.7921
3.52866
3.29033
3.08004
7.18505
7.18505
7.18504
7.18503
7.18502
7.185
7.18498
7.18495
7.1849
7.18485
7.18477
7.18466
7.18451
7.1843
7.18402
7.18362
7.18307
7.18231
7.18125
7.17977
7.17771
7.17482
7.17079
7.16513
7.15721
7.1461
7.13056
7.10882
7.07854
7.03658
6.97888
6.90043
6.79545
6.65789
6.48245
6.26599
6.00904
5.71665
5.39813
5.0655
4.7312
4.406
4.09795
3.81223
3.55148
3.31662
3.10717
2.9229
2.76172
2.6254
7.18503
7.18502
7.185
7.18498
7.18495
7.18491
7.18485
7.18478
7.18468
7.18454
7.18435
7.18409
7.18374
7.18325
7.18258
7.18166
7.18039
7.17864
7.17621
7.17284
7.16818
7.1617
7.1527
7.14022
7.12289
7.09892
7.06586
7.02052
6.95887
6.87603
6.76648
6.62468
6.44599
6.22802
5.97191
5.68292
5.37007
5.04464
4.71813
4.40047
4.09906
3.81869
3.56194
3.32962
3.12162
2.93723
2.77599
2.63773
2.52314
2.43116
2.36063
7.18494
7.1849
7.18485
7.18478
7.18468
7.18455
7.18437
7.18412
7.1838
7.18335
7.18274
7.18192
7.18079
7.17924
7.17713
7.17422
7.17024
7.16476
7.15721
7.14684
7.13257
7.11297
7.08612
7.04949
6.99982
6.93307
6.84449
6.72887
6.58121
6.39763
6.17662
5.91999
5.63338
5.32559
5.0072
4.68879
4.37936
4.08558
3.81179
3.56029
3.33191
3.12653
2.94347
2.78219
2.64245
2.52455
2.42875
2.35419
2.29891
2.25925
2.23139
7.18476
7.18467
7.18453
7.18436
7.18413
7.18381
7.18339
7.18282
7.18205
7.18101
7.1796
7.17769
7.1751
7.17157
7.16677
7.16023
7.15131
7.13916
7.12261
7.10011
7.0696
7.02845
6.97331
6.90015
6.80437
6.68113
6.52605
6.33612
6.11076
5.85263
5.56773
5.26467
4.95337
4.64343
4.34292
4.0577
3.79158
3.54656
3.32336
3.12186
2.94144
2.78148
2.64162
2.52205
2.42314
2.34463
2.28506
2.24176
2.21143
2.1909
2.1773
2.16812
7.18409
7.18378
7.18337
7.18281
7.18207
7.18108
7.17976
7.17797
7.17558
7.17235
7.168
7.16213
7.15421
7.1435
7.12906
7.10958
7.08338
7.04826
7.00143
6.9395
6.85844
6.75387
6.62142
6.45744
6.2599
6.02928
5.76905
5.48559
5.18731
4.88339
4.58245
4.29156
4.01579
3.75833
3.52086
3.30398
3.1075
2.93088
2.77343
2.63478
2.51496
2.41436
2.33301
2.27005
2.22339
2.19019
2.16742
2.15219
2.14229
2.13614
2.13255
2.13061
7.18199
7.18102
7.17972
7.178
7.17571
7.17266
7.16858
7.16313
7.15585
7.14611
7.13308
7.11566
7.09243
7.06152
7.02059
6.96671
6.89642
6.8058
6.69077
6.54755
6.37337
6.16731
5.93092
5.66849
5.38667
5.09359
4.79763
4.50637
4.22587
3.96038
3.71249
3.48356
3.27397
3.08353
2.91172
2.75786
2.62156
2.50273
2.40171
2.31874
2.25336
2.20402
2.16828
2.14337
2.12659
2.11565
2.10888
2.10469
2.10267
2.10224
2.10287
2.10415
7.17552
7.17254
7.16859
7.16336
7.15644
7.14728
7.13513
7.11905
7.09779
7.06973
7.03285
6.98462
6.92203
6.84161
6.73962
6.61243
6.45702
6.27166
6.05661
5.8145
5.55032
5.27087
4.9838
4.69663
4.41587
4.14657
3.89216
3.65468
3.43512
3.23371
3.0502
2.88408
2.73474
2.60176
2.485
2.38472
2.30126
2.23445
2.18317
2.14541
2.11872
2.10054
2.08853
2.08093
2.07644
2.07417
2.07366
2.07382
2.07572
2.07716
2.07925
2.08186
7.15606
7.14715
7.13546
7.12012
7.10003
7.07376
7.03951
6.99506
6.93776
6.86452
6.77198
6.65675
6.51582
6.34711
6.15009
5.9262
5.67908
5.41422
5.13835
4.85849
4.58117
4.31184
4.05456
3.812
3.58565
3.3762
3.18371
3.00788
2.84824
2.70421
2.57538
2.4616
2.36308
2.28017
2.21289
2.16046
2.12129
2.09317
2.07377
2.06085
2.05267
2.04786
2.04519
2.04433
2.04469
2.04629
2.04825
2.0502
2.05303
2.05611
2.05933
2.06239
7.09943
7.07406
7.04127
6.99909
6.94513
6.87664
6.79059
6.68386
6.55361
6.39768
6.21513
6.00666
5.77487
5.52418
5.26034
4.98972
4.71854
4.4523
4.19538
3.95092
3.72089
3.5063
3.30757
3.1246
2.9571
2.80457
2.66653
2.54257
2.43255
2.33664
2.25519
2.18833
2.13557
2.09559
2.0665
2.04618
2.03256
2.02384
2.01861
2.01578
2.01487
2.01534
2.0164
2.01892
2.02096
2.02368
2.02694
2.03032
2.0336
2.03722
2.04094
2.04444
6.94489
6.8791
6.79703
6.69587
6.573
6.42633
6.25479
6.05867
5.83989
5.60202
5.34997
5.08939
4.82604
4.56523
4.31136
4.06782
3.83691
3.61998
3.41766
3.23011
3.05716
2.89846
2.75359
2.62208
2.50358
2.39798
2.30541
2.22621
2.1606
2.10824
2.06808
2.03851
2.01764
2.00351
1.99436
1.98888
1.986
1.98495
1.9853
1.9864
1.98883
1.9914
1.99394
1.99737
2.0009
2.00449
2.00814
2.01204
2.01587
2.0197
2.02358
2.02727
6.43492
6.2712
6.08441
5.87609
5.64923
5.40801
5.15746
4.90279
4.64896
4.40022
4.15998
3.93069
3.71393
3.51054
3.32084
3.14481
2.98221
2.8327
2.69587
2.57133
2.45878
2.35813
2.2695
2.19325
2.12959
2.07832
2.03859
2.00905
1.98797
1.97355
1.96421
1.95862
1.95567
1.95454
1.9549
1.95626
1.95845
1.9614
1.964
1.96738
1.97117
1.97495
1.97862
1.98271
1.98682
1.99086
1.99492
1.99896
2.00295
2.00696
2.01082
5.66698
5.43532
5.19427
4.94854
4.70264
4.46055
4.22551
3.99999
3.78564
3.58347
3.39391
3.21703
3.05272
2.90069
2.7606
2.63209
2.51484
2.40861
2.31333
2.22915
2.1564
2.09531
2.04575
2.00705
1.978
1.95709
1.94269
1.93333
1.9277
1.92471
1.92371
1.92417
1.92564
1.92768
1.93081
1.93392
1.93717
1.94114
1.94508
1.949
1.95313
1.95743
1.96163
1.96588
1.97014
1.97437
1.97857
1.98276
1.9869
1.99106
1.99508
4.72603
4.49166
4.26334
4.04337
3.8334
3.63448
3.44712
3.27148
3.10748
2.95493
2.81353
2.68298
2.56297
2.45323
2.35358
2.26401
2.18467
2.11588
2.05788
2.01058
1.97341
1.94531
1.92494
1.91086
1.90166
1.89613
1.89327
1.89242
1.89296
1.89447
1.89674
1.89988
1.90337
1.90659
1.91065
1.91489
1.91905
1.92321
1.92769
1.93214
1.93657
1.94102
1.94543
1.94982
1.9542
1.95857
1.96291
1.96725
1.97155
1.97587
1.98005
3.66226
3.47895
3.30642
3.14462
2.99339
2.85252
2.72172
2.60072
2.48926
2.38715
2.29427
2.21064
2.13645
2.07199
2.01751
1.97292
1.93771
1.91097
1.8915
1.878
1.86916
1.86389
1.8613
1.86062
1.86131
1.863
1.86551
1.86863
1.87234
1.87588
1.87992
1.88439
1.88873
1.89301
1.89764
1.90232
1.90692
1.91156
1.91618
1.92077
1.92534
1.92989
1.93442
1.93894
1.94345
1.94794
1.95243
1.95688
1.96135
1.9657
3.01469
2.87599
2.74658
2.62621
2.51466
2.41174
2.31729
2.23128
2.15375
2.08492
2.0251
1.97447
1.93295
1.9001
1.87507
1.8568
1.84413
1.83586
1.83101
1.82874
1.8283
1.82923
1.83119
1.83388
1.83708
1.84096
1.84491
1.84893
1.85357
1.85813
1.86263
1.86733
1.87219
1.87697
1.88179
1.88662
1.8914
1.89616
1.9009
1.90562
1.91033
1.91501
1.91969
1.92435
1.929
1.93363
1.93827
1.94287
1.94749
1.95199
2.52795
2.42568
2.33117
2.24435
2.16523
2.09389
2.03059
1.9756
1.92908
1.89094
1.86074
1.83772
1.82091
1.80929
1.80178
1.79746
1.79561
1.79552
1.79673
1.79895
1.80182
1.80523
1.8092
1.81358
1.81764
1.8224
1.82725
1.83196
1.83672
1.84177
1.84677
1.85175
1.85676
1.86173
1.86668
1.87161
1.87652
1.88141
1.88628
1.89113
1.89596
1.90079
1.9056
1.9104
1.91519
1.91997
1.92474
1.92949
1.93425
1.93891
2.16903
2.09676
2.03165
1.97396
1.92396
1.88173
1.84717
1.81986
1.79906
1.78394
1.77357
1.76695
1.7633
1.76197
1.76228
1.76382
1.76634
1.76944
1.7731
1.77719
1.78175
1.78615
1.79095
1.79608
1.80097
1.80582
1.81105
1.81628
1.82143
1.82662
1.83179
1.83692
1.84203
1.84712
1.85219
1.85724
1.86227
1.86728
1.87228
1.87726
1.88223
1.88719
1.89213
1.89707
1.902
1.90691
1.91183
1.91671
1.92161
1.92641
1.91559
1.87064
1.83282
1.80199
1.77771
1.75931
1.74603
1.73705
1.73146
1.72859
1.72786
1.72861
1.73054
1.7334
1.73675
1.74066
1.74494
1.74964
1.75443
1.7593
1.76459
1.76973
1.77478
1.78013
1.78553
1.79083
1.79619
1.80157
1.80689
1.81218
1.81746
1.8227
1.82793
1.83313
1.83831
1.84348
1.84863
1.85377
1.8589
1.86401
1.8691
1.87419
1.87927
1.88433
1.88939
1.89444
1.89949
1.90451
1.90954
1.91447
1.75574
1.73459
1.71869
1.70736
1.69986
1.69539
1.69337
1.69331
1.69456
1.69691
1.70013
1.70376
1.70793
1.71245
1.71734
1.72244
1.72743
1.73286
1.73827
1.7435
1.74895
1.75454
1.76004
1.76557
1.7711
1.77659
1.78206
1.78752
1.79294
1.79835
1.80372
1.80908
1.81442
1.81973
1.82503
1.83032
1.83559
1.84085
1.8461
1.85133
1.85656
1.86177
1.86697
1.87216
1.87735
1.88253
1.8877
1.89284
1.898
1.90307
1.66811
1.66213
1.65884
1.65775
1.65837
1.66017
1.66298
1.66658
1.67052
1.67494
1.67969
1.68482
1.69013
1.69536
1.70095
1.70657
1.71198
1.71753
1.72331
1.72901
1.73469
1.7404
1.74607
1.75172
1.75734
1.76294
1.7685
1.77405
1.77958
1.78509
1.79057
1.79604
1.80148
1.80692
1.81233
1.81773
1.82312
1.8285
1.83386
1.83922
1.84456
1.84989
1.85522
1.86053
1.86584
1.87114
1.87643
1.8817
1.88698
1.89217
1.62311
1.6255
1.62878
1.63275
1.63702
1.64171
1.64671
1.65208
1.65755
1.66308
1.66884
1.67463
1.68024
1.68591
1.69187
1.69775
1.70359
1.70947
1.71532
1.72114
1.72693
1.7327
1.73844
1.74415
1.74984
1.75551
1.76115
1.76678
1.77239
1.77798
1.78355
1.78911
1.79465
1.80018
1.80569
1.81119
1.81668
1.82216
1.82763
1.83309
1.83854
1.84398
1.84941
1.85484
1.86025
1.86566
1.87104
1.87643
1.88174
1.59871
1.6033
1.60827
1.61352
1.61913
1.62479
1.63058
1.63652
1.64246
1.64829
1.65411
1.66024
1.66629
1.67228
1.67833
1.68435
1.69033
1.69629
1.70223
1.70814
1.71401
1.71987
1.7257
1.7315
1.73729
1.74305
1.74879
1.75452
1.76023
1.76593
1.77161
1.77727
1.78292
1.78855
1.79417
1.79978
1.80538
1.81097
1.81655
1.82212
1.82768
1.83323
1.83878
1.84431
1.84983
1.85535
1.86084
1.86634
1.87175
1.58017
1.58601
1.59188
1.59789
1.60402
1.61012
1.61615
1.62213
1.62841
1.63463
1.64078
1.64699
1.65318
1.65932
1.66545
1.67155
1.67761
1.68365
1.68967
1.69566
1.70162
1.70756
1.71348
1.71938
1.72526
1.73112
1.73696
1.74279
1.74859
1.75439
1.76017
1.76593
1.77168
1.77742
1.78315
1.78886
1.79457
1.80026
1.80595
1.81162
1.81729
1.82295
1.8286
1.83423
1.83986
1.84548
1.85107
1.85667
1.86219
1.57138
1.57763
1.58383
1.59
1.59642
1.6028
1.60911
1.61548
1.62183
1.62813
1.63441
1.64067
1.64689
1.65309
1.65926
1.6654
1.67152
1.67762
1.68369
1.68974
1.69577
1.70178
1.70777
1.71374
1.71969
1.72562
1.73155
1.73745
1.74334
1.74922
1.75508
1.76093
1.76677
1.7726
1.77841
1.78422
1.79001
1.7958
1.80157
1.80734
1.8131
1.81885
1.82458
1.83031
1.83602
1.84171
1.8474
1.85301
1.55773
1.5643
1.57083
1.57729
1.58381
1.59031
1.59676
1.6032
1.60961
1.61599
1.62234
1.62866
1.63496
1.64123
1.64747
1.65369
1.65989
1.66606
1.67222
1.67835
1.68447
1.69056
1.69664
1.7027
1.70874
1.71477
1.72078
1.72678
1.73276
1.73873
1.74469
1.75063
1.75657
1.76249
1.7684
1.7743
1.78019
1.78607
1.79195
1.79781
1.80366
1.8095
1.81533
1.82114
1.82695
1.83272
1.8385
1.8442
1.552
1.55865
1.56525
1.57183
1.57839
1.58491
1.59141
1.59788
1.60432
1.61074
1.61713
1.6235
1.62984
1.63616
1.64246
1.64873
1.65499
1.66122
1.66744
1.67363
1.67981
1.68597
1.69212
1.69825
1.70436
1.71046
1.71655
1.72262
1.72868
1.73473
1.74077
1.74679
1.7528
1.75881
1.7648
1.77078
1.77675
1.78271
1.78866
1.7946
1.80053
1.80644
1.81234
1.81823
1.82409
1.82995
1.83572
1.54032
1.54702
1.55369
1.56033
1.56694
1.57352
1.58008
1.58662
1.59312
1.59961
1.60607
1.6125
1.61892
1.62531
1.63168
1.63803
1.64436
1.65067
1.65697
1.66325
1.66951
1.67575
1.68198
1.68819
1.69439
1.70057
1.70674
1.7129
1.71905
1.72518
1.7313
1.73742
1.74352
1.7496
1.75568
1.76175
1.7678
1.77385
1.77988
1.7859
1.79191
1.7979
1.80388
1.80984
1.81577
1.8217
1.82754
1.53585
1.54257
1.54927
1.55594
1.56258
1.5692
1.5758
1.58237
1.58892
1.59545
1.60195
1.60843
1.6149
1.62134
1.62777
1.63417
1.64056
1.64693
1.65328
1.65962
1.66594
1.67225
1.67854
1.68482
1.69109
1.69734
1.70358
1.70981
1.71602
1.72223
1.72842
1.7346
1.74077
1.74693
1.75307
1.75921
1.76533
1.77144
1.77754
1.78362
1.78968
1.79573
1.80176
1.80776
1.81375
1.81965
1.52512
1.53189
1.53864
1.54537
1.55207
1.55875
1.56541
1.57204
1.57866
1.58525
1.59182
1.59837
1.60491
1.61142
1.61791
1.62439
1.63085
1.6373
1.64372
1.65014
1.65653
1.66292
1.66929
1.67564
1.68198
1.68831
1.69463
1.70093
1.70722
1.7135
1.71977
1.72603
1.73227
1.73851
1.74473
1.75093
1.75713
1.76331
1.76947
1.77562
1.78176
1.78787
1.79396
1.80001
1.80606
1.81201
1.5148
1.52163
1.52843
1.53522
1.54198
1.54872
1.55543
1.56213
1.56881
1.57546
1.5821
1.58871
1.59531
1.60189
1.60846
1.615
1.62153
1.62805
1.63455
1.64103
1.6475
1.65395
1.66039
1.66682
1.67324
1.67964
1.68603
1.6924
1.69877
1.70512
1.71146
1.71778
1.7241
1.7304
1.73669
1.74296
1.74922
1.75547
1.7617
1.76791
1.7741
1.78026
1.78641
1.79251
1.79861
1.80461
1.50488
1.51176
1.51862
1.52546
1.53228
1.53907
1.54585
1.5526
1.55934
1.56606
1.57276
1.57944
1.5861
1.59274
1.59937
1.60599
1.61258
1.61916
1.62573
1.63228
1.63882
1.64534
1.65185
1.65834
1.66482
1.67129
1.67775
1.68419
1.69062
1.69704
1.70345
1.70984
1.71622
1.72258
1.72894
1.73527
1.74159
1.74789
1.75418
1.76044
1.76668
1.7729
1.77909
1.78524
1.79137
1.79741
1.49534
1.50228
1.50919
1.51608
1.52295
1.52981
1.53664
1.54345
1.55025
1.55702
1.56378
1.57052
1.57724
1.58395
1.59064
1.59732
1.60397
1.61062
1.61725
1.62386
1.63046
1.63705
1.64362
1.65018
1.65673
1.66326
1.66978
1.67628
1.68278
1.68926
1.69572
1.70217
1.70861
1.71503
1.72144
1.72783
1.7342
1.74056
1.74689
1.7532
1.75949
1.76575
1.77197
1.77816
1.78432
1.79038
1.48617
1.49316
1.50012
1.50706
1.51399
1.52089
1.52778
1.53465
1.5415
1.54833
1.55515
1.56194
1.56873
1.57549
1.58224
1.58897
1.59569
1.6024
1.60908
1.61576
1.62242
1.62907
1.6357
1.64232
1.64892
1.65551
1.66209
1.66865
1.6752
1.68174
1.68826
1.69476
1.70125
1.70773
1.71418
1.72062
1.72704
1.73344
1.73982
1.74617
1.75249
1.75877
1.76503
1.77124
1.77742
1.78349
1.47735
1.48438
1.4914
1.49839
1.50536
1.51232
1.51926
1.52618
1.53308
1.53997
1.54684
1.55369
1.56053
1.56735
1.57415
1.58094
1.58771
1.59447
1.60122
1.60795
1.61466
1.62136
1.62805
1.63472
1.64138
1.64803
1.65466
1.66127
1.66787
1.67446
1.68103
1.68758
1.69412
1.70064
1.70714
1.71362
1.72008
1.72651
1.73292
1.7393
1.74565
1.75196
1.75824
1.76446
1.77066
1.77674
1.47594
1.483
1.49004
1.49706
1.50407
1.51105
1.51802
1.52498
1.53191
1.53883
1.54574
1.55262
1.5595
1.56635
1.57319
1.58002
1.58683
1.59363
1.60041
1.60718
1.61393
1.62066
1.62739
1.6341
1.64079
1.64747
1.65413
1.66077
1.66741
1.67402
1.68062
1.6872
1.69375
1.70029
1.7068
1.71329
1.71975
1.72618
1.73259
1.73896
1.74529
1.75158
1.75782
1.76401
1.7701
1.4678
1.47491
1.48199
1.48906
1.49611
1.50315
1.51016
1.51716
1.52415
1.53111
1.53807
1.545
1.55192
1.55883
1.56572
1.57259
1.57945
1.58629
1.59312
1.59993
1.60673
1.61351
1.62028
1.62704
1.63377
1.64049
1.6472
1.65389
1.66055
1.6672
1.67383
1.68044
1.68703
1.69359
1.70013
1.70665
1.71313
1.71959
1.72601
1.73239
1.73873
1.74503
1.75127
1.75747
1.76355
1.45996
1.4671
1.47423
1.48135
1.48844
1.49552
1.50258
1.50962
1.51665
1.52366
1.53066
1.53764
1.5446
1.55155
1.55849
1.5654
1.57231
1.57919
1.58606
1.59292
1.59976
1.60658
1.61339
1.62018
1.62696
1.63371
1.64045
1.64717
1.65387
1.66055
1.66721
1.67384
1.68045
1.68704
1.6936
1.70014
1.70664
1.71311
1.71954
1.72594
1.73228
1.73858
1.74481
1.751
1.75706
1.45958
1.46675
1.4739
1.48103
1.48815
1.49525
1.50234
1.50941
1.51646
1.5235
1.53052
1.53752
1.54451
1.55148
1.55844
1.56538