/*--------------------------------*- C++ -*----------------------------------*\
| =========                 |                                                 |
| \\      /  F ield         | OpenFOAM: The Open Source CFD Toolbox           |
|  \\    /   O peration     | Version:  v1706                                 |
|   \\  /    A nd           | Web:      www.OpenFOAM.com                      |
|    \\/     M anipulation  |                                                 |
\*---------------------------------------------------------------------------*/
FoamFile
{
    version     2.0;
    format      ascii;
    class       volScalarField;
    location    "3.8e-05";
    object      mu;
}
// * * * * * * * * * * * * * * * * * * * * * * * * * * * * * * * * * * * * * //

dimensions      [1 -1 -1 0 0 0 0];


internalField   nonuniform List<scalar> 
30038
(
1.0351e-05
1.0351e-05
1.0351e-05
1.0351e-05
1.0351e-05
1.0351e-05
1.0351e-05
1.0351e-05
1.0351e-05
1.0351e-05
1.0351e-05
1.0351e-05
1.0351e-05
1.0351e-05
1.0351e-05
1.0351e-05
1.0351e-05
1.0351e-05
1.0351e-05
1.0351e-05
1.0351e-05
1.0351e-05
1.0351e-05
1.0351e-05
1.0351e-05
1.0351e-05
1.0351e-05
1.0351e-05
1.0351e-05
1.0351e-05
1.0351e-05
1.0351e-05
1.0351e-05
1.0351e-05
1.0351e-05
1.0351e-05
1.0351e-05
1.0351e-05
1.0351e-05
1.0351e-05
1.0351e-05
1.0351e-05
1.0351e-05
1.0351e-05
1.0351e-05
1.0351e-05
1.0351e-05
1.0351e-05
1.0351e-05
1.0351e-05
1.0351e-05
1.0351e-05
1.0351e-05
1.0351e-05
1.0351e-05
1.0351e-05
1.0351e-05
1.0351e-05
1.0351e-05
1.0351e-05
1.0351e-05
1.0351e-05
1.0351e-05
1.0351e-05
1.0351e-05
1.0351e-05
1.0351e-05
1.0351e-05
1.0351e-05
1.0351e-05
1.0351e-05
1.0351e-05
1.0351e-05
1.0351e-05
1.0351e-05
1.0351e-05
1.0351e-05
1.0351e-05
1.0351e-05
1.0351e-05
1.0351e-05
1.0351e-05
1.0351e-05
1.0351e-05
1.0351e-05
1.0351e-05
1.0351e-05
1.0351e-05
1.0351e-05
1.0351e-05
1.0351e-05
1.0351e-05
1.0351e-05
1.0351e-05
1.0351e-05
1.0351e-05
1.0351e-05
1.0351e-05
1.0351e-05
1.0351e-05
1.0351e-05
1.0351e-05
1.0351e-05
1.0351e-05
1.0351e-05
1.0351e-05
1.0351e-05
1.0351e-05
1.0351e-05
1.0351e-05
1.0351e-05
1.0351e-05
1.0351e-05
1.0351e-05
1.0351e-05
1.0351e-05
1.0351e-05
1.0351e-05
1.0351e-05
1.0351e-05
1.0351e-05
1.0351e-05
1.0351e-05
1.0351e-05
1.0351e-05
1.0351e-05
1.0351e-05
1.0351e-05
1.0351e-05
1.0351e-05
1.0351e-05
1.0351e-05
1.0351e-05
1.0351e-05
1.0351e-05
1.0351e-05
1.0351e-05
1.0351e-05
1.0351e-05
1.0351e-05
1.0351e-05
1.0351e-05
1.0351e-05
1.0351e-05
1.0351e-05
1.0351e-05
1.0351e-05
1.0351e-05
1.0351e-05
1.0351e-05
1.0351e-05
1.0351e-05
1.0351e-05
1.0351e-05
1.0351e-05
1.0351e-05
1.0351e-05
1.0351e-05
1.0351e-05
1.0351e-05
1.0351e-05
1.0351e-05
1.0351e-05
1.0351e-05
1.0351e-05
1.0351e-05
1.0351e-05
1.0351e-05
1.0351e-05
1.0351e-05
1.0351e-05
1.0351e-05
1.0351e-05
1.0351e-05
1.0351e-05
1.0351e-05
1.0351e-05
1.0351e-05
1.0351e-05
1.0351e-05
1.0351e-05
1.0351e-05
1.0351e-05
1.0351e-05
1.0351e-05
1.0351e-05
1.0351e-05
1.0351e-05
1.0351e-05
1.0351e-05
1.0351e-05
1.0351e-05
1.0351e-05
1.0351e-05
1.0351e-05
1.0351e-05
1.0351e-05
1.0351e-05
1.0351e-05
1.0351e-05
1.0351e-05
1.0351e-05
1.0351e-05
1.0351e-05
1.0351e-05
1.0351e-05
1.0351e-05
1.0351e-05
1.0351e-05
1.0351e-05
1.0351e-05
1.0351e-05
1.0351e-05
1.0351e-05
1.0351e-05
1.0351e-05
1.0351e-05
1.0351e-05
1.0351e-05
1.0351e-05
1.0351e-05
1.0351e-05
1.0351e-05
1.0351e-05
1.0351e-05
1.0351e-05
1.0351e-05
1.0351e-05
1.0351e-05
1.0351e-05
1.0351e-05
1.0351e-05
1.0351e-05
1.0351e-05
1.0351e-05
1.0351e-05
1.0351e-05
1.0351e-05
1.0351e-05
1.0351e-05
1.0351e-05
1.0351e-05
1.0351e-05
1.0351e-05
1.0351e-05
1.0351e-05
1.0351e-05
1.0351e-05
1.0351e-05
1.0351e-05
1.0351e-05
1.0351e-05
1.0351e-05
1.0351e-05
1.0351e-05
1.0351e-05
1.0351e-05
1.0351e-05
1.0351e-05
1.0351e-05
1.0351e-05
1.0351e-05
1.0351e-05
1.0351e-05
1.0351e-05
1.0351e-05
1.0351e-05
1.0351e-05
1.0351e-05
1.0351e-05
1.0351e-05
1.0351e-05
1.0351e-05
1.0351e-05
1.0351e-05
1.0351e-05
1.0351e-05
1.0351e-05
1.0351e-05
1.0351e-05
1.0351e-05
1.0351e-05
1.0351e-05
1.0351e-05
1.0351e-05
1.0351e-05
1.0351e-05
1.0351e-05
1.0351e-05
1.0351e-05
1.0351e-05
1.0351e-05
1.0351e-05
1.0351e-05
1.0351e-05
1.0351e-05
1.0351e-05
1.0351e-05
1.0351e-05
1.0351e-05
1.0351e-05
1.0351e-05
1.0351e-05
1.0351e-05
1.0351e-05
1.0351e-05
1.0351e-05
1.0351e-05
1.0351e-05
1.0351e-05
1.0351e-05
1.0351e-05
1.0351e-05
1.0351e-05
1.0351e-05
1.0351e-05
1.0351e-05
1.0351e-05
1.0351e-05
1.0351e-05
1.0351e-05
1.0351e-05
1.0351e-05
1.0351e-05
1.0351e-05
1.0351e-05
1.0351e-05
1.0351e-05
1.0351e-05
1.0351e-05
1.0351e-05
1.0351e-05
1.0351e-05
1.0351e-05
1.0351e-05
1.0351e-05
1.0351e-05
1.0351e-05
1.0351e-05
1.0351e-05
1.0351e-05
1.0351e-05
1.0351e-05
1.0351e-05
1.0351e-05
1.0351e-05
1.0351e-05
1.0351e-05
1.0351e-05
1.0351e-05
1.0351e-05
1.0351e-05
1.0351e-05
1.0351e-05
1.0351e-05
1.0351e-05
1.0351e-05
1.0351e-05
1.0351e-05
1.0351e-05
1.0351e-05
1.0351e-05
1.0351e-05
1.0351e-05
1.0351e-05
1.0351e-05
1.0351e-05
1.0351e-05
1.0351e-05
1.0351e-05
1.0351e-05
1.0351e-05
1.0351e-05
1.0351e-05
1.0351e-05
1.0351e-05
1.0351e-05
1.0351e-05
1.0351e-05
1.0351e-05
1.0351e-05
1.0351e-05
1.0351e-05
1.0351e-05
1.0351e-05
1.0351e-05
1.0351e-05
1.0351e-05
1.0351e-05
1.0351e-05
1.0351e-05
1.0351e-05
1.0351e-05
1.0351e-05
1.0351e-05
1.0351e-05
1.0351e-05
1.0351e-05
1.0351e-05
1.0351e-05
1.0351e-05
1.0351e-05
1.0351e-05
1.0351e-05
1.0351e-05
1.0351e-05
1.0351e-05
1.0351e-05
1.0351e-05
1.0351e-05
1.0351e-05
1.0351e-05
1.0351e-05
1.0351e-05
1.0351e-05
1.0351e-05
1.0351e-05
1.0351e-05
1.0351e-05
1.0351e-05
1.0351e-05
1.0351e-05
1.0351e-05
1.0351e-05
1.0351e-05
1.0351e-05
1.0351e-05
1.0351e-05
1.0351e-05
1.0351e-05
1.0351e-05
1.0351e-05
1.0351e-05
1.0351e-05
1.0351e-05
1.0351e-05
1.0351e-05
1.0351e-05
1.0351e-05
1.0351e-05
1.0351e-05
1.0351e-05
1.0351e-05
1.0351e-05
1.0351e-05
1.0351e-05
1.0351e-05
1.0351e-05
1.0351e-05
1.0351e-05
1.0351e-05
1.0351e-05
1.0351e-05
1.0351e-05
1.0351e-05
1.0351e-05
1.0351e-05
1.0351e-05
1.0351e-05
1.0351e-05
1.0351e-05
1.0351e-05
1.0351e-05
1.0351e-05
1.0351e-05
1.0351e-05
1.0351e-05
1.0351e-05
1.0351e-05
1.0351e-05
1.0351e-05
1.0351e-05
1.0351e-05
1.0351e-05
1.0351e-05
1.0351e-05
1.0351e-05
1.0351e-05
1.0351e-05
1.0351e-05
1.0351e-05
1.0351e-05
1.0351e-05
1.0351e-05
1.0351e-05
1.0351e-05
1.0351e-05
1.0351e-05
1.0351e-05
1.0351e-05
1.0351e-05
1.0351e-05
1.0351e-05
1.0351e-05
1.0351e-05
1.0351e-05
1.0351e-05
1.0351e-05
1.0351e-05
1.0351e-05
1.0351e-05
1.0351e-05
1.0351e-05
1.0351e-05
1.0351e-05
1.0351e-05
1.0351e-05
1.0351e-05
1.0351e-05
1.0351e-05
1.0351e-05
1.0351e-05
1.0351e-05
1.0351e-05
1.0351e-05
1.0351e-05
1.0351e-05
1.0351e-05
1.0351e-05
1.0351e-05
1.0351e-05
1.0351e-05
1.0351e-05
1.0351e-05
1.0351e-05
1.0351e-05
1.0351e-05
1.0351e-05
1.0351e-05
1.0351e-05
1.0351e-05
1.0351e-05
1.0351e-05
1.0351e-05
1.0351e-05
1.0351e-05
1.0351e-05
1.0351e-05
1.0351e-05
1.0351e-05
1.0351e-05
1.0351e-05
1.0351e-05
1.0351e-05
1.0351e-05
1.0351e-05
1.0351e-05
1.0351e-05
1.0351e-05
1.0351e-05
1.0351e-05
1.0351e-05
1.0351e-05
1.0351e-05
1.0351e-05
1.0351e-05
1.0351e-05
1.0351e-05
1.0351e-05
1.0351e-05
1.0351e-05
1.0351e-05
1.0351e-05
1.0351e-05
1.0351e-05
1.0351e-05
1.0351e-05
1.0351e-05
1.0351e-05
1.0351e-05
1.0351e-05
1.0351e-05
1.0351e-05
1.0351e-05
1.0351e-05
1.0351e-05
1.0351e-05
1.0351e-05
1.0351e-05
1.0351e-05
1.0351e-05
1.0351e-05
1.0351e-05
1.0351e-05
1.0351e-05
1.0351e-05
1.0351e-05
1.0351e-05
1.0351e-05
1.0351e-05
1.0351e-05
1.0351e-05
1.0351e-05
1.0351e-05
1.0351e-05
1.0351e-05
1.0351e-05
1.0351e-05
1.0351e-05
1.0351e-05
1.0351e-05
1.0351e-05
1.0351e-05
1.0351e-05
1.0351e-05
1.0351e-05
1.0351e-05
1.0351e-05
1.0351e-05
1.0351e-05
1.0351e-05
1.0351e-05
1.0351e-05
1.0351e-05
1.0351e-05
1.0351e-05
1.0351e-05
1.0351e-05
1.0351e-05
1.0351e-05
1.0351e-05
1.0351e-05
1.0351e-05
1.0351e-05
1.0351e-05
1.0351e-05
1.0351e-05
1.0351e-05
1.0351e-05
1.0351e-05
1.0351e-05
1.0351e-05
1.0351e-05
1.0351e-05
1.0351e-05
1.0351e-05
1.0351e-05
1.0351e-05
1.0351e-05
1.0351e-05
1.0351e-05
1.0351e-05
1.0351e-05
1.0351e-05
1.0351e-05
1.0351e-05
1.0351e-05
1.0351e-05
1.0351e-05
1.0351e-05
1.0351e-05
1.0351e-05
1.0351e-05
1.0351e-05
1.0351e-05
1.0351e-05
1.0351e-05
1.0351e-05
1.0351e-05
1.0351e-05
1.0351e-05
1.0351e-05
1.0351e-05
1.0351e-05
1.0351e-05
1.0351e-05
1.0351e-05
1.0351e-05
1.0351e-05
1.0351e-05
1.0351e-05
1.0351e-05
1.0351e-05
1.0351e-05
1.0351e-05
1.0351e-05
1.0351e-05
1.0351e-05
1.0351e-05
1.0351e-05
1.0351e-05
1.0351e-05
1.0351e-05
1.0351e-05
1.0351e-05
1.0351e-05
1.0351e-05
1.0351e-05
1.0351e-05
1.0351e-05
1.0351e-05
1.0351e-05
1.0351e-05
1.0351e-05
1.0351e-05
1.0351e-05
1.0351e-05
1.0351e-05
1.0351e-05
1.0351e-05
1.0351e-05
1.0351e-05
1.0351e-05
1.0351e-05
1.0351e-05
1.0351e-05
1.0351e-05
1.0351e-05
1.0351e-05
1.0351e-05
1.0351e-05
1.0351e-05
1.0351e-05
1.0351e-05
1.0351e-05
1.0351e-05
1.0351e-05
1.0351e-05
1.0351e-05
1.0351e-05
1.0351e-05
1.0351e-05
1.0351e-05
1.0351e-05
1.0351e-05
1.0351e-05
1.0351e-05
1.0351e-05
1.0351e-05
1.0351e-05
1.0351e-05
1.0351e-05
1.0351e-05
1.0351e-05
1.0351e-05
1.0351e-05
1.0351e-05
1.0351e-05
1.0351e-05
1.0351e-05
1.0351e-05
1.0351e-05
1.0351e-05
1.0351e-05
1.0351e-05
1.0351e-05
1.0351e-05
1.0351e-05
1.0351e-05
1.0351e-05
1.0351e-05
1.0351e-05
1.0351e-05
1.0351e-05
1.0351e-05
1.0351e-05
1.0351e-05
1.0351e-05
1.0351e-05
1.0351e-05
1.0351e-05
1.0351e-05
1.0351e-05
1.0351e-05
1.0351e-05
1.0351e-05
1.0351e-05
1.0351e-05
1.0351e-05
1.0351e-05
1.0351e-05
1.0351e-05
1.0351e-05
1.0351e-05
1.0351e-05
1.0351e-05
1.0351e-05
1.0351e-05
1.0351e-05
1.0351e-05
1.0351e-05
1.0351e-05
1.0351e-05
1.0351e-05
1.0351e-05
1.0351e-05
1.0351e-05
1.0351e-05
1.0351e-05
1.0351e-05
1.0351e-05
1.0351e-05
1.0351e-05
1.0351e-05
1.0351e-05
1.0351e-05
1.0351e-05
1.0351e-05
1.0351e-05
1.0351e-05
1.0351e-05
1.0351e-05
1.0351e-05
1.0351e-05
1.0351e-05
1.0351e-05
1.0351e-05
1.0351e-05
1.0351e-05
1.0351e-05
1.0351e-05
1.0351e-05
1.0351e-05
1.0351e-05
1.0351e-05
1.0351e-05
1.0351e-05
1.0351e-05
1.0351e-05
1.0351e-05
1.0351e-05
1.0351e-05
1.0351e-05
1.0351e-05
1.0351e-05
1.0351e-05
1.0351e-05
1.0351e-05
1.0351e-05
1.0351e-05
1.0351e-05
1.0351e-05
1.0351e-05
1.0351e-05
1.0351e-05
1.0351e-05
1.0351e-05
1.0351e-05
1.0351e-05
1.0351e-05
1.0351e-05
1.0351e-05
1.0351e-05
1.0351e-05
1.0351e-05
1.0351e-05
1.0351e-05
1.0351e-05
1.0351e-05
1.0351e-05
1.0351e-05
1.0351e-05
1.0351e-05
1.0351e-05
1.0351e-05
1.0351e-05
1.0351e-05
1.0351e-05
1.0351e-05
1.0351e-05
1.0351e-05
1.0351e-05
1.0351e-05
1.0351e-05
1.0351e-05
1.0351e-05
1.0351e-05
1.0351e-05
1.0351e-05
1.0351e-05
1.0351e-05
1.0351e-05
1.0351e-05
1.0351e-05
1.0351e-05
1.0351e-05
1.0351e-05
1.0351e-05
1.0351e-05
1.0351e-05
1.0351e-05
1.0351e-05
1.0351e-05
1.0351e-05
1.0351e-05
1.0351e-05
1.0351e-05
1.0351e-05
1.0351e-05
1.0351e-05
1.0351e-05
1.0351e-05
1.0351e-05
1.0351e-05
1.0351e-05
1.0351e-05
1.0351e-05
1.0351e-05
1.0351e-05
1.0351e-05
1.0351e-05
1.0351e-05
1.0351e-05
1.0351e-05
1.0351e-05
1.0351e-05
1.0351e-05
1.0351e-05
1.0351e-05
1.0351e-05
1.0351e-05
1.0351e-05
1.0351e-05
1.0351e-05
1.0351e-05
1.0351e-05
1.0351e-05
1.0351e-05
1.0351e-05
1.0351e-05
1.0351e-05
1.0351e-05
1.0351e-05
1.0351e-05
1.0351e-05
1.0351e-05
1.0351e-05
1.0351e-05
1.0351e-05
1.0351e-05
1.0351e-05
1.0351e-05
1.0351e-05
1.0351e-05
1.0351e-05
1.0351e-05
1.0351e-05
1.0351e-05
1.0351e-05
1.0351e-05
1.0351e-05
1.0351e-05
1.0351e-05
1.0351e-05
1.0351e-05
1.0351e-05
1.0351e-05
1.0351e-05
1.0351e-05
1.0351e-05
1.0351e-05
1.0351e-05
1.0351e-05
1.0351e-05
1.0351e-05
1.0351e-05
1.0351e-05
1.0351e-05
1.0351e-05
1.0351e-05
1.0351e-05
1.0351e-05
1.0351e-05
1.0351e-05
1.0351e-05
1.0351e-05
1.0351e-05
1.0351e-05
1.0351e-05
1.0351e-05
1.0351e-05
1.0351e-05
1.0351e-05
1.0351e-05
1.0351e-05
1.0351e-05
1.0351e-05
1.0351e-05
1.0351e-05
1.0351e-05
1.0351e-05
1.0351e-05
1.0351e-05
1.0351e-05
1.0351e-05
1.0351e-05
1.0351e-05
1.0351e-05
1.0351e-05
1.0351e-05
1.0351e-05
1.0351e-05
1.0351e-05
1.0351e-05
1.0351e-05
1.0351e-05
1.0351e-05
1.0351e-05
1.0351e-05
1.0351e-05
1.0351e-05
1.0351e-05
1.0351e-05
1.0351e-05
1.0351e-05
1.0351e-05
1.0351e-05
1.0351e-05
1.0351e-05
1.0351e-05
1.0351e-05
1.0351e-05
1.0351e-05
1.0351e-05
1.0351e-05
1.0351e-05
1.0351e-05
1.0351e-05
1.0351e-05
1.0351e-05
1.0351e-05
1.0351e-05
1.0351e-05
1.0351e-05
1.0351e-05
1.0351e-05
1.0351e-05
1.0351e-05
1.0351e-05
1.0351e-05
1.0351e-05
1.0351e-05
1.0351e-05
1.0351e-05
1.0351e-05
1.0351e-05
1.0351e-05
1.0351e-05
1.0351e-05
1.0351e-05
1.0351e-05
1.0351e-05
1.0351e-05
1.0351e-05
1.0351e-05
1.0351e-05
1.0351e-05
1.0351e-05
1.0351e-05
1.0351e-05
1.0351e-05
1.0351e-05
1.0351e-05
1.0351e-05
1.0351e-05
1.0351e-05
1.0351e-05
1.0351e-05
1.0351e-05
1.0351e-05
1.0351e-05
1.0351e-05
1.0351e-05
1.0351e-05
1.0351e-05
1.0351e-05
1.0351e-05
1.0351e-05
1.0351e-05
1.0351e-05
1.0351e-05
1.0351e-05
1.0351e-05
1.0351e-05
1.0351e-05
1.0351e-05
1.0351e-05
1.0351e-05
1.0351e-05
1.0351e-05
1.0351e-05
1.0351e-05
1.0351e-05
1.0351e-05
1.0351e-05
1.0351e-05
1.0351e-05
1.0351e-05
1.0351e-05
1.0351e-05
1.0351e-05
1.0351e-05
1.0351e-05
1.0351e-05
1.0351e-05
1.0351e-05
1.0351e-05
1.0351e-05
1.0351e-05
1.0351e-05
1.0351e-05
1.0351e-05
1.0351e-05
1.0351e-05
1.0351e-05
1.0351e-05
1.0351e-05
1.0351e-05
1.0351e-05
1.0351e-05
1.0351e-05
1.0351e-05
1.0351e-05
1.0351e-05
1.0351e-05
1.0351e-05
1.0351e-05
1.0351e-05
1.0351e-05
1.0351e-05
1.0351e-05
1.0351e-05
1.0351e-05
1.0351e-05
1.0351e-05
1.0351e-05
1.0351e-05
1.0351e-05
1.0351e-05
1.0351e-05
1.0351e-05
1.0351e-05
1.0351e-05
1.0351e-05
1.0351e-05
1.0351e-05
1.0351e-05
1.0351e-05
1.0351e-05
1.0351e-05
1.0351e-05
1.0351e-05
1.0351e-05
1.0351e-05
1.0351e-05
1.0351e-05
1.0351e-05
1.0351e-05
1.0351e-05
1.0351e-05
1.0351e-05
1.0351e-05
1.0351e-05
1.0351e-05
1.0351e-05
1.0351e-05
1.0351e-05
1.0351e-05
1.0351e-05
1.0351e-05
1.0351e-05
1.0351e-05
1.0351e-05
1.0351e-05
1.0351e-05
1.0351e-05
1.0351e-05
1.0351e-05
1.0351e-05
1.0351e-05
1.0351e-05
1.0351e-05
1.0351e-05
1.0351e-05
1.0351e-05
1.0351e-05
1.0351e-05
1.0351e-05
1.0351e-05
1.0351e-05
1.0351e-05
1.0351e-05
1.0351e-05
1.0351e-05
1.0351e-05
1.0351e-05
1.0351e-05
1.0351e-05
1.0351e-05
1.0351e-05
1.0351e-05
1.0351e-05
1.0351e-05
1.0351e-05
1.0351e-05
1.0351e-05
1.0351e-05
1.0351e-05
1.0351e-05
1.0351e-05
1.0351e-05
1.0351e-05
1.0351e-05
1.0351e-05
1.0351e-05
1.0351e-05
1.0351e-05
1.0351e-05
1.0351e-05
1.0351e-05
1.0351e-05
1.0351e-05
1.0351e-05
1.0351e-05
1.0351e-05
1.0351e-05
1.0351e-05
1.0351e-05
1.0351e-05
1.0351e-05
1.0351e-05
1.0351e-05
1.0351e-05
1.0351e-05
1.0351e-05
1.0351e-05
1.0351e-05
1.0351e-05
1.0351e-05
1.0351e-05
1.0351e-05
1.0351e-05
1.0351e-05
1.0351e-05
1.0351e-05
1.0351e-05
1.0351e-05
1.0351e-05
1.0351e-05
1.0351e-05
1.03511e-05
1.03511e-05
1.0351e-05
1.0351e-05
1.0351e-05
1.0351e-05
1.0351e-05
1.0351e-05
1.0351e-05
1.0351e-05
1.0351e-05
1.0351e-05
1.0351e-05
1.0351e-05
1.0351e-05
1.0351e-05
1.0351e-05
1.0351e-05
1.0351e-05
1.0351e-05
1.0351e-05
1.0351e-05
1.0351e-05
1.0351e-05
1.0351e-05
1.0351e-05
1.0351e-05
1.0351e-05
1.0351e-05
1.0351e-05
1.0351e-05
1.0351e-05
1.0351e-05
1.0351e-05
1.0351e-05
1.0351e-05
1.0351e-05
1.0351e-05
1.0351e-05
1.0351e-05
1.0351e-05
1.0351e-05
1.0351e-05
1.0351e-05
1.0351e-05
1.0351e-05
1.0351e-05
1.03511e-05
1.03511e-05
1.03511e-05
1.03512e-05
1.03513e-05
1.0351e-05
1.0351e-05
1.0351e-05
1.0351e-05
1.0351e-05
1.0351e-05
1.0351e-05
1.0351e-05
1.0351e-05
1.0351e-05
1.0351e-05
1.0351e-05
1.0351e-05
1.0351e-05
1.0351e-05
1.0351e-05
1.0351e-05
1.0351e-05
1.0351e-05
1.0351e-05
1.0351e-05
1.0351e-05
1.0351e-05
1.0351e-05
1.0351e-05
1.0351e-05
1.0351e-05
1.0351e-05
1.0351e-05
1.0351e-05
1.0351e-05
1.0351e-05
1.0351e-05
1.0351e-05
1.0351e-05
1.0351e-05
1.0351e-05
1.0351e-05
1.0351e-05
1.0351e-05
1.0351e-05
1.0351e-05
1.03511e-05
1.03511e-05
1.03511e-05
1.03512e-05
1.03513e-05
1.03515e-05
1.03517e-05
1.03521e-05
1.0351e-05
1.0351e-05
1.0351e-05
1.0351e-05
1.0351e-05
1.0351e-05
1.0351e-05
1.0351e-05
1.0351e-05
1.0351e-05
1.0351e-05
1.0351e-05
1.0351e-05
1.0351e-05
1.0351e-05
1.0351e-05
1.0351e-05
1.0351e-05
1.0351e-05
1.0351e-05
1.0351e-05
1.0351e-05
1.0351e-05
1.0351e-05
1.0351e-05
1.0351e-05
1.0351e-05
1.0351e-05
1.0351e-05
1.0351e-05
1.0351e-05
1.0351e-05
1.0351e-05
1.0351e-05
1.0351e-05
1.0351e-05
1.0351e-05
1.0351e-05
1.0351e-05
1.03511e-05
1.03511e-05
1.03511e-05
1.03512e-05
1.03513e-05
1.03515e-05
1.03517e-05
1.03521e-05
1.03527e-05
1.03536e-05
1.0355e-05
1.0351e-05
1.0351e-05
1.0351e-05
1.0351e-05
1.0351e-05
1.0351e-05
1.0351e-05
1.0351e-05
1.0351e-05
1.0351e-05
1.0351e-05
1.0351e-05
1.0351e-05
1.0351e-05
1.0351e-05
1.0351e-05
1.0351e-05
1.0351e-05
1.0351e-05
1.0351e-05
1.0351e-05
1.0351e-05
1.0351e-05
1.0351e-05
1.0351e-05
1.0351e-05
1.0351e-05
1.0351e-05
1.0351e-05
1.0351e-05
1.0351e-05
1.0351e-05
1.0351e-05
1.0351e-05
1.0351e-05
1.03511e-05
1.03511e-05
1.03511e-05
1.03512e-05
1.03512e-05
1.03513e-05
1.03515e-05
1.03518e-05
1.03522e-05
1.03527e-05
1.03536e-05
1.03549e-05
1.03569e-05
1.036e-05
1.03649e-05
1.0351e-05
1.0351e-05
1.0351e-05
1.0351e-05
1.0351e-05
1.0351e-05
1.0351e-05
1.0351e-05
1.0351e-05
1.0351e-05
1.0351e-05
1.0351e-05
1.0351e-05
1.0351e-05
1.0351e-05
1.0351e-05
1.0351e-05
1.0351e-05
1.0351e-05
1.0351e-05
1.0351e-05
1.0351e-05
1.0351e-05
1.0351e-05
1.0351e-05
1.0351e-05
1.0351e-05
1.0351e-05
1.0351e-05
1.0351e-05
1.0351e-05
1.0351e-05
1.03511e-05
1.03511e-05
1.03511e-05
1.03512e-05
1.03513e-05
1.03514e-05
1.03516e-05
1.03518e-05
1.03522e-05
1.03528e-05
1.03537e-05
1.03551e-05
1.03571e-05
1.03601e-05
1.03646e-05
1.03715e-05
1.03819e-05
1.03983e-05
1.0351e-05
1.0351e-05
1.0351e-05
1.0351e-05
1.0351e-05
1.0351e-05
1.0351e-05
1.0351e-05
1.0351e-05
1.0351e-05
1.0351e-05
1.0351e-05
1.0351e-05
1.0351e-05
1.0351e-05
1.0351e-05
1.0351e-05
1.0351e-05
1.0351e-05
1.0351e-05
1.0351e-05
1.0351e-05
1.0351e-05
1.0351e-05
1.0351e-05
1.0351e-05
1.0351e-05
1.0351e-05
1.0351e-05
1.03511e-05
1.03511e-05
1.03511e-05
1.03512e-05
1.03513e-05
1.03514e-05
1.03516e-05
1.03519e-05
1.03523e-05
1.0353e-05
1.03539e-05
1.03553e-05
1.03573e-05
1.03604e-05
1.03649e-05
1.03717e-05
1.03819e-05
1.03971e-05
1.042e-05
1.04546e-05
1.0508e-05
1.0351e-05
1.0351e-05
1.0351e-05
1.0351e-05
1.0351e-05
1.0351e-05
1.0351e-05
1.0351e-05
1.0351e-05
1.0351e-05
1.0351e-05
1.0351e-05
1.0351e-05
1.0351e-05
1.0351e-05
1.0351e-05
1.0351e-05
1.0351e-05
1.0351e-05
1.0351e-05
1.0351e-05
1.0351e-05
1.0351e-05
1.0351e-05
1.0351e-05
1.03511e-05
1.03511e-05
1.03511e-05
1.03512e-05
1.03512e-05
1.03513e-05
1.03515e-05
1.03517e-05
1.0352e-05
1.03525e-05
1.03531e-05
1.03541e-05
1.03556e-05
1.03577e-05
1.03609e-05
1.03655e-05
1.03724e-05
1.03827e-05
1.03978e-05
1.04203e-05
1.04537e-05
1.05033e-05
1.05769e-05
1.06864e-05
1.08508e-05
1.0351e-05
1.0351e-05
1.0351e-05
1.0351e-05
1.0351e-05
1.0351e-05
1.0351e-05
1.0351e-05
1.0351e-05
1.0351e-05
1.0351e-05
1.0351e-05
1.0351e-05
1.0351e-05
1.0351e-05
1.0351e-05
1.0351e-05
1.0351e-05
1.0351e-05
1.0351e-05
1.0351e-05
1.0351e-05
1.03511e-05
1.03511e-05
1.03511e-05
1.03512e-05
1.03513e-05
1.03514e-05
1.03516e-05
1.03518e-05
1.03521e-05
1.03527e-05
1.03534e-05
1.03545e-05
1.0356e-05
1.03583e-05
1.03616e-05
1.03665e-05
1.03736e-05
1.03841e-05
1.03995e-05
1.04221e-05
1.04554e-05
1.05044e-05
1.05762e-05
1.06813e-05
1.08342e-05
1.10551e-05
1.13714e-05
1.18207e-05
1.0351e-05
1.0351e-05
1.0351e-05
1.0351e-05
1.0351e-05
1.0351e-05
1.0351e-05
1.0351e-05
1.0351e-05
1.0351e-05
1.0351e-05
1.0351e-05
1.0351e-05
1.0351e-05
1.0351e-05
1.0351e-05
1.0351e-05
1.0351e-05
1.03511e-05
1.03511e-05
1.03511e-05
1.03512e-05
1.03512e-05
1.03513e-05
1.03515e-05
1.03517e-05
1.03519e-05
1.03523e-05
1.03529e-05
1.03537e-05
1.03549e-05
1.03566e-05
1.0359e-05
1.03626e-05
1.03678e-05
1.03753e-05
1.03862e-05
1.04021e-05
1.04253e-05
1.04592e-05
1.05085e-05
1.05802e-05
1.06842e-05
1.0834e-05
1.10481e-05
1.13505e-05
1.17704e-05
1.23416e-05
1.30998e-05
1.40781e-05
1.0351e-05
1.0351e-05
1.0351e-05
1.0351e-05
1.0351e-05
1.0351e-05
1.0351e-05
1.0351e-05
1.0351e-05
1.0351e-05
1.0351e-05
1.0351e-05
1.0351e-05
1.0351e-05
1.03511e-05
1.03511e-05
1.03511e-05
1.03511e-05
1.03512e-05
1.03513e-05
1.03514e-05
1.03516e-05
1.03518e-05
1.03521e-05
1.03525e-05
1.03532e-05
1.03541e-05
1.03554e-05
1.03573e-05
1.036e-05
1.03639e-05
1.03695e-05
1.03775e-05
1.03892e-05
1.04059e-05
1.04301e-05
1.04651e-05
1.05157e-05
1.05885e-05
1.06932e-05
1.08427e-05
1.10546e-05
1.13513e-05
1.17601e-05
1.23114e-05
1.30359e-05
1.39592e-05
1.50975e-05
1.64549e-05
1.8018e-05
1.0351e-05
1.0351e-05
1.0351e-05
1.0351e-05
1.0351e-05
1.0351e-05
1.0351e-05
1.0351e-05
1.0351e-05
1.0351e-05
1.03511e-05
1.03511e-05
1.03511e-05
1.03511e-05
1.03512e-05
1.03513e-05
1.03513e-05
1.03515e-05
1.03517e-05
1.03519e-05
1.03523e-05
1.03529e-05
1.03536e-05
1.03547e-05
1.03562e-05
1.03583e-05
1.03613e-05
1.03656e-05
1.03718e-05
1.03805e-05
1.03931e-05
1.04111e-05
1.04368e-05
1.04736e-05
1.05263e-05
1.06016e-05
1.07087e-05
1.08605e-05
1.10735e-05
1.13694e-05
1.17736e-05
1.23149e-05
1.30216e-05
1.39174e-05
1.50166e-05
1.63199e-05
1.78131e-05
1.94696e-05
2.12564e-05
2.31308e-05
1.0351e-05
1.0351e-05
1.0351e-05
1.0351e-05
1.0351e-05
1.0351e-05
1.03511e-05
1.03511e-05
1.03511e-05
1.03511e-05
1.03512e-05
1.03512e-05
1.03513e-05
1.03514e-05
1.03516e-05
1.03518e-05
1.03522e-05
1.03526e-05
1.03532e-05
1.03541e-05
1.03554e-05
1.03571e-05
1.03596e-05
1.0363e-05
1.03679e-05
1.03747e-05
1.03845e-05
1.03983e-05
1.04178e-05
1.04456e-05
1.0485e-05
1.05409e-05
1.062e-05
1.07316e-05
1.08881e-05
1.11057e-05
1.14051e-05
1.18106e-05
1.2349e-05
1.30468e-05
1.39261e-05
1.49999e-05
1.62691e-05
1.77206e-05
1.93289e-05
2.1059e-05
2.28712e-05
2.47239e-05
2.65744e-05
2.83869e-05
1.0351e-05
1.0351e-05
1.03511e-05
1.03511e-05
1.03511e-05
1.03511e-05
1.03512e-05
1.03512e-05
1.03513e-05
1.03514e-05
1.03516e-05
1.03518e-05
1.03521e-05
1.03525e-05
1.0353e-05
1.03538e-05
1.03548e-05
1.03563e-05
1.03584e-05
1.03612e-05
1.03652e-05
1.03708e-05
1.03786e-05
1.03896e-05
1.0405e-05
1.04267e-05
1.04572e-05
1.05001e-05
1.05604e-05
1.06449e-05
1.07629e-05
1.09268e-05
1.11526e-05
1.146e-05
1.18723e-05
1.24147e-05
1.31117e-05
1.39833e-05
1.50413e-05
1.62862e-05
1.77059e-05
1.92768e-05
2.09669e-05
2.27388e-05
2.45531e-05
2.63673e-05
2.81414e-05
2.98405e-05
3.14281e-05
3.28707e-05
1.03511e-05
1.03511e-05
1.03511e-05
1.03512e-05
1.03512e-05
1.03513e-05
1.03514e-05
1.03516e-05
1.03518e-05
1.0352e-05
1.03524e-05
1.03529e-05
1.03536e-05
1.03545e-05
1.03558e-05
1.03576e-05
1.036e-05
1.03634e-05
1.03681e-05
1.03746e-05
1.03837e-05
1.03963e-05
1.04138e-05
1.04383e-05
1.04723e-05
1.05198e-05
1.05858e-05
1.06775e-05
1.08044e-05
1.09787e-05
1.12163e-05
1.15364e-05
1.19612e-05
1.25142e-05
1.32179e-05
1.40901e-05
1.5141e-05
1.63701e-05
1.77659e-05
1.93062e-05
2.09614e-05
2.26971e-05
2.44769e-05
2.62628e-05
2.80159e-05
2.97021e-05
3.12879e-05
3.27341e-05
3.39991e-05
3.50498e-05
3.58907e-05
1.03512e-05
1.03513e-05
1.03514e-05
1.03516e-05
1.03517e-05
1.0352e-05
1.03523e-05
1.03528e-05
1.03534e-05
1.03543e-05
1.03555e-05
1.03571e-05
1.03592e-05
1.03622e-05
1.03663e-05
1.03719e-05
1.03797e-05
1.03903e-05
1.0405e-05
1.04253e-05
1.04533e-05
1.04919e-05
1.05453e-05
1.06188e-05
1.07199e-05
1.08582e-05
1.10463e-05
1.12999e-05
1.16376e-05
1.20806e-05
1.26508e-05
1.33685e-05
1.42492e-05
1.53009e-05
1.6522e-05
1.79009e-05
1.94166e-05
2.10413e-05
2.27434e-05
2.44894e-05
2.6245e-05
2.7974e-05
2.96442e-05
3.12251e-05
3.26834e-05
3.39796e-05
3.50789e-05
3.59637e-05
3.66414e-05
3.7135e-05
3.74894e-05
1.03516e-05
1.03518e-05
1.0352e-05
1.03524e-05
1.03528e-05
1.03534e-05
1.03542e-05
1.03553e-05
1.03568e-05
1.03588e-05
1.03615e-05
1.03652e-05
1.03703e-05
1.03771e-05
1.03864e-05
1.03991e-05
1.04165e-05
1.04403e-05
1.04729e-05
1.05174e-05
1.05783e-05
1.06614e-05
1.07745e-05
1.09275e-05
1.11333e-05
1.14074e-05
1.17681e-05
1.22353e-05
1.28293e-05
1.35679e-05
1.44643e-05
1.5524e-05
1.67441e-05
1.81123e-05
1.96086e-05
2.12069e-05
2.28779e-05
2.45907e-05
2.63145e-05
2.80162e-05
2.9665e-05
3.12333e-05
3.26923e-05
3.40071e-05
3.51429e-05
3.60766e-05
3.68059e-05
3.73494e-05
3.77362e-05
3.80024e-05
3.81779e-05
3.82946e-05
1.03529e-05
1.03535e-05
1.03543e-05
1.03553e-05
1.03568e-05
1.03587e-05
1.03612e-05
1.03647e-05
1.03693e-05
1.03756e-05
1.0384e-05
1.03954e-05
1.04109e-05
1.04318e-05
1.04602e-05
1.04987e-05
1.05508e-05
1.06213e-05
1.07166e-05
1.08448e-05
1.10164e-05
1.12444e-05
1.15443e-05
1.19337e-05
1.24314e-05
1.30557e-05
1.38219e-05
1.47405e-05
1.58146e-05
1.70395e-05
1.84023e-05
1.98836e-05
2.14589e-05
2.3101e-05
2.47815e-05
2.64724e-05
2.81439e-05
2.97671e-05
3.13162e-05
3.27661e-05
3.40866e-05
3.52446e-05
3.62148e-05
3.69881e-05
3.75754e-05
3.80018e-05
3.82984e-05
3.84978e-05
3.86257e-05
3.87049e-05
3.87516e-05
3.87749e-05
1.03569e-05
1.03588e-05
1.03613e-05
1.03646e-05
1.03691e-05
1.0375e-05
1.03829e-05
1.03935e-05
1.04077e-05
1.04267e-05
1.04523e-05
1.04866e-05
1.05327e-05
1.05946e-05
1.06775e-05
1.07882e-05
1.09355e-05
1.11303e-05
1.13858e-05
1.17173e-05
1.21417e-05
1.26765e-05
1.33375e-05
1.41376e-05
1.50842e-05
1.6178e-05
1.74124e-05
1.87739e-05
2.02437e-05
2.17986e-05
2.34134e-05
2.50622e-05
2.67193e-05
2.83581e-05
2.99518e-05
3.14765e-05
3.29094e-05
3.42247e-05
3.53925e-05
3.63861e-05
3.71924e-05
3.78161e-05
3.82775e-05
3.8604e-05
3.88256e-05
3.89703e-05
3.90595e-05
3.91123e-05
3.91384e-05
3.91428e-05
3.91408e-05
3.91365e-05
1.03694e-05
1.03752e-05
1.03829e-05
1.0393e-05
1.04065e-05
1.04244e-05
1.04482e-05
1.04799e-05
1.05221e-05
1.05781e-05
1.06526e-05
1.07512e-05
1.08815e-05
1.10527e-05
1.12762e-05
1.15653e-05
1.1935e-05
1.24013e-05
1.29797e-05
1.36837e-05
1.45233e-05
1.55028e-05
1.66204e-05
1.78677e-05
1.92308e-05
2.06913e-05
2.22274e-05
2.38159e-05
2.54329e-05
2.70553e-05
2.86593e-05
3.02201e-05
3.17155e-05
3.31251e-05
3.44264e-05
3.55926e-05
3.65977e-05
3.7426e-05
3.80776e-05
3.85675e-05
3.89198e-05
3.91625e-05
3.93235e-05
3.94234e-05
3.94817e-05
3.95126e-05
3.95195e-05
3.9514e-05
3.95056e-05
3.94897e-05
3.94614e-05
3.94265e-05
1.04073e-05
1.04247e-05
1.04476e-05
1.04778e-05
1.05176e-05
1.05701e-05
1.06391e-05
1.07298e-05
1.08486e-05
1.10035e-05
1.12046e-05
1.14633e-05
1.1793e-05
1.22082e-05
1.27233e-05
1.33519e-05
1.41046e-05
1.49883e-05
1.60043e-05
1.71484e-05
1.84107e-05
1.97769e-05
2.12291e-05
2.2747e-05
2.43092e-05
2.5894e-05
2.74805e-05
2.90474e-05
3.05722e-05
3.20341e-05
3.34148e-05
3.46946e-05
3.58496e-05
3.68553e-05
3.7695e-05
3.8365e-05
3.88764e-05
3.92499e-05
3.95109e-05
3.96857e-05
3.9796e-05
3.98606e-05
3.98956e-05
3.99047e-05
3.98975e-05
3.98865e-05
3.98703e-05
3.98424e-05
3.98054e-05
3.97633e-05
3.97159e-05
3.9668e-05
1.05188e-05
1.05695e-05
1.06355e-05
1.07215e-05
1.08332e-05
1.09777e-05
1.11638e-05
1.14017e-05
1.17033e-05
1.20815e-05
1.25497e-05
1.31207e-05
1.38054e-05
1.46116e-05
1.55427e-05
1.65973e-05
1.7769e-05
1.90468e-05
2.0416e-05
2.18597e-05
2.3359e-05
2.48942e-05
2.64457e-05
2.79947e-05
2.95222e-05
3.10078e-05
3.24324e-05
3.37792e-05
3.50309e-05
3.61663e-05
3.71631e-05
3.8004e-05
3.86832e-05
3.92084e-05
3.95974e-05
3.98728e-05
4.00591e-05
4.01786e-05
4.0249e-05
4.02864e-05
4.02986e-05
4.02916e-05
4.02768e-05
4.02583e-05
4.02318e-05
4.01947e-05
4.01513e-05
4.01025e-05
4.00505e-05
3.99981e-05
3.9947e-05
3.98972e-05
1.08337e-05
1.09725e-05
1.11497e-05
1.13746e-05
1.16577e-05
1.20107e-05
1.24457e-05
1.29747e-05
1.36081e-05
1.43539e-05
1.52167e-05
1.61969e-05
1.72904e-05
1.84891e-05
1.9781e-05
2.11519e-05
2.25856e-05
2.40646e-05
2.55712e-05
2.70877e-05
2.85972e-05
3.00828e-05
3.15261e-05
3.29095e-05
3.42179e-05
3.54358e-05
3.65445e-05
3.75236e-05
3.83564e-05
3.90359e-05
3.95674e-05
3.99655e-05
4.02507e-05
4.04459e-05
4.05724e-05
4.06472e-05
4.06869e-05
4.07013e-05
4.06943e-05
4.06765e-05
4.06547e-05
4.06281e-05
4.05903e-05
4.05454e-05
4.04967e-05
4.04426e-05
4.03873e-05
4.03323e-05
4.0278e-05
4.02238e-05
4.01705e-05
4.01184e-05
1.19897e-05
1.24032e-05
1.29035e-05
1.35003e-05
1.42013e-05
1.50114e-05
1.59321e-05
1.69609e-05
1.80916e-05
1.93146e-05
2.06179e-05
2.19875e-05
2.34083e-05
2.48646e-05
2.63401e-05
2.78192e-05
2.92869e-05
3.07279e-05
3.21256e-05
3.34642e-05
3.47299e-05
3.59089e-05
3.69845e-05
3.79383e-05
3.87545e-05
3.94258e-05
3.99558e-05
4.03566e-05
4.06468e-05
4.08475e-05
4.09783e-05
4.10563e-05
4.10977e-05
4.11125e-05
4.11054e-05
4.10862e-05
4.10607e-05
4.10317e-05
4.0994e-05
4.09479e-05
4.08975e-05
4.0842e-05
4.07837e-05
4.07254e-05
4.06678e-05
4.06106e-05
4.05537e-05
4.04972e-05
4.0441e-05
4.03854e-05
4.03304e-05
1.41447e-05
1.49165e-05
1.57918e-05
1.67691e-05
1.78436e-05
1.90075e-05
2.02505e-05
2.15605e-05
2.29245e-05
2.43287e-05
2.57587e-05
2.72e-05
2.86389e-05
3.00618e-05
3.14553e-05
3.28042e-05
3.40944e-05
3.53133e-05
3.64486e-05
3.74855e-05
3.84071e-05
3.91992e-05
3.98545e-05
4.03754e-05
4.07728e-05
4.1063e-05
4.12651e-05
4.13974e-05
4.14771e-05
4.15192e-05
4.15329e-05
4.15257e-05
4.15051e-05
4.14752e-05
4.14429e-05
4.14053e-05
4.13576e-05
4.13049e-05
4.12487e-05
4.1188e-05
4.11267e-05
4.10657e-05
4.10052e-05
4.09448e-05
4.0885e-05
4.08256e-05
4.07664e-05
4.07075e-05
4.06487e-05
4.05903e-05
4.05324e-05
1.77376e-05
1.88524e-05
2.00433e-05
2.12999e-05
2.26108e-05
2.39639e-05
2.53465e-05
2.67459e-05
2.81493e-05
2.95445e-05
3.09196e-05
3.22623e-05
3.3559e-05
3.4797e-05
3.59653e-05
3.70526e-05
3.80456e-05
3.89291e-05
3.96902e-05
4.03223e-05
4.08275e-05
4.12151e-05
4.15002e-05
4.16997e-05
4.18309e-05
4.19102e-05
4.19511e-05
4.19631e-05
4.19551e-05
4.19325e-05
4.1899e-05
4.18629e-05
4.18236e-05
4.17742e-05
4.17194e-05
4.16618e-05
4.15992e-05
4.15348e-05
4.14707e-05
4.14071e-05
4.13437e-05
4.12806e-05
4.1218e-05
4.11556e-05
4.10934e-05
4.10315e-05
4.09696e-05
4.0908e-05
4.08462e-05
4.07849e-05
4.07239e-05
2.37687e-05
2.51044e-05
2.64599e-05
2.78239e-05
2.91851e-05
3.05328e-05
3.18565e-05
3.31451e-05
3.43861e-05
3.55686e-05
3.66825e-05
3.77177e-05
3.86621e-05
3.9502e-05
4.0226e-05
4.08287e-05
4.13119e-05
4.16841e-05
4.19589e-05
4.2152e-05
4.2279e-05
4.23555e-05
4.23941e-05
4.24036e-05
4.23937e-05
4.23683e-05
4.23318e-05
4.22915e-05
4.22491e-05
4.21987e-05
4.21416e-05
4.20818e-05
4.20174e-05
4.19501e-05
4.18828e-05
4.1816e-05
4.17495e-05
4.16831e-05
4.16174e-05
4.1552e-05
4.14867e-05
4.14218e-05
4.13569e-05
4.12922e-05
4.12275e-05
4.11628e-05
4.10982e-05
4.10336e-05
4.09692e-05
4.09051e-05
2.89893e-05
3.03037e-05
3.15998e-05