/*--------------------------------*- C++ -*----------------------------------*\
| =========                 |                                                 |
| \\      /  F ield         | OpenFOAM: The Open Source CFD Toolbox           |
|  \\    /   O peration     | Version:  v1706                                 |
|   \\  /    A nd           | Web:      www.OpenFOAM.com                      |
|    \\/     M anipulation  |                                                 |
\*---------------------------------------------------------------------------*/
FoamFile
{
    version     2.0;
    format      ascii;
    class       volScalarField;
    location    "3.8e-05";
    object      p;
}
// * * * * * * * * * * * * * * * * * * * * * * * * * * * * * * * * * * * * * //

dimensions      [1 -1 -2 0 0 0 0];


internalField   nonuniform List<scalar> 
30038
(
21.9139
21.9139
21.9139
21.9139
21.9139
21.9139
21.9139
21.9139
21.9139
21.9139
21.9139
21.9139
21.9139
21.9139
21.9139
21.9139
21.9139
21.9139
21.9139
21.9139
21.9139
21.9139
21.9139
21.9139
21.9139
21.9139
21.9139
21.9139
21.9139
21.9139
21.9139
21.9139
21.9139
21.9139
21.9139
21.9139
21.9139
21.9139
21.9139
21.9139
21.9139
21.9139
21.9139
21.9139
21.9139
21.9139
21.9139
21.9139
21.9139
21.9139
21.9139
21.9139
21.9139
21.9139
21.9139
21.9139
21.9139
21.9139
21.9139
21.9139
21.9139
21.9139
21.9139
21.9139
21.9139
21.9139
21.9139
21.9139
21.9139
21.9139
21.9139
21.9139
21.9139
21.9139
21.9139
21.9139
21.9139
21.9139
21.9139
21.9139
21.9139
21.9139
21.9139
21.9139
21.9139
21.9139
21.9139
21.9139
21.9139
21.9139
21.9139
21.9139
21.9139
21.9139
21.9139
21.9139
21.9139
21.9139
21.9139
21.9139
21.9139
21.9139
21.9139
21.9139
21.9139
21.9139
21.9139
21.9139
21.9139
21.9139
21.9139
21.9139
21.9139
21.9139
21.9139
21.9139
21.9139
21.9139
21.9139
21.9139
21.9139
21.9139
21.9139
21.9139
21.9139
21.9139
21.9139
21.9139
21.9139
21.9139
21.9139
21.9139
21.9139
21.9139
21.9139
21.9139
21.9139
21.9139
21.9139
21.9139
21.9139
21.9139
21.9139
21.9139
21.9139
21.9139
21.9139
21.9139
21.9139
21.9139
21.9139
21.9139
21.9139
21.9139
21.9139
21.9139
21.9139
21.9139
21.9139
21.9139
21.9139
21.9139
21.9139
21.9139
21.9139
21.9139
21.9139
21.9139
21.9139
21.9139
21.9139
21.9139
21.9139
21.9139
21.9139
21.9139
21.9139
21.9139
21.9139
21.9139
21.9139
21.9139
21.9139
21.9139
21.9139
21.9139
21.9139
21.9139
21.9139
21.9139
21.9139
21.9139
21.9139
21.9139
21.9139
21.9139
21.9139
21.9139
21.9139
21.9139
21.9139
21.9139
21.9139
21.9139
21.9139
21.9139
21.9139
21.9139
21.9139
21.9139
21.9139
21.9139
21.9139
21.9139
21.9139
21.9139
21.9139
21.9139
21.9139
21.9139
21.9139
21.9139
21.9139
21.9139
21.9139
21.9139
21.9139
21.9139
21.9139
21.9139
21.9139
21.9139
21.9139
21.9139
21.9139
21.9139
21.9139
21.9139
21.9139
21.9139
21.9139
21.9139
21.9139
21.9139
21.9139
21.9139
21.9139
21.9139
21.9139
21.9139
21.9139
21.9139
21.9139
21.9139
21.9139
21.9139
21.9139
21.9139
21.9139
21.9139
21.9139
21.9139
21.9139
21.9139
21.9139
21.9139
21.9139
21.9139
21.9139
21.9139
21.9139
21.9139
21.9139
21.9139
21.9139
21.9139
21.9139
21.9139
21.9139
21.9139
21.9139
21.9139
21.9139
21.9139
21.9139
21.9139
21.9139
21.9139
21.9139
21.9139
21.9139
21.9139
21.9139
21.9139
21.9139
21.9139
21.9139
21.9139
21.9139
21.9139
21.9139
21.9139
21.9139
21.9139
21.9139
21.9139
21.9139
21.9139
21.9139
21.9139
21.9139
21.9139
21.9139
21.9139
21.9139
21.9139
21.9139
21.9139
21.9139
21.9139
21.9139
21.9139
21.9139
21.9139
21.9139
21.9139
21.9139
21.9139
21.9139
21.9139
21.9139
21.9139
21.9139
21.9139
21.9139
21.9139
21.9139
21.9139
21.9139
21.9139
21.9139
21.9139
21.9139
21.9139
21.9139
21.9139
21.9139
21.9139
21.9139
21.9139
21.9139
21.9139
21.9139
21.9139
21.9139
21.9139
21.9139
21.9139
21.9139
21.9139
21.9139
21.9139
21.9139
21.9139
21.9139
21.9139
21.9139
21.9139
21.9139
21.9139
21.9139
21.9139
21.9139
21.9139
21.9139
21.9139
21.9139
21.9139
21.9139
21.9139
21.9139
21.9139
21.9139
21.9139
21.9139
21.9139
21.9139
21.9139
21.9139
21.9139
21.9139
21.9139
21.9139
21.9139
21.9139
21.9139
21.9139
21.9139
21.9139
21.9139
21.9139
21.9139
21.9139
21.9139
21.9139
21.9139
21.9139
21.9139
21.9139
21.9139
21.9139
21.9139
21.9139
21.9139
21.9139
21.9139
21.9139
21.9139
21.9139
21.9139
21.9139
21.9139
21.9139
21.9139
21.9139
21.9139
21.9139
21.9139
21.9139
21.9139
21.9139
21.9139
21.9139
21.9139
21.9139
21.9139
21.9139
21.9139
21.9139
21.9139
21.9139
21.9139
21.9139
21.9139
21.9139
21.9139
21.9139
21.9139
21.9139
21.9139
21.9139
21.9139
21.9139
21.9139
21.9139
21.9139
21.9139
21.9139
21.9139
21.9139
21.9139
21.9139
21.9139
21.9139
21.9139
21.9139
21.9139
21.9139
21.9139
21.9139
21.9139
21.9139
21.9139
21.9139
21.9139
21.9139
21.9139
21.9139
21.9139
21.9139
21.9139
21.9139
21.9139
21.9139
21.9139
21.9139
21.9139
21.9139
21.9139
21.9139
21.9139
21.9139
21.9139
21.9139
21.9139
21.9139
21.9139
21.9139
21.9139
21.9139
21.9139
21.9139
21.9139
21.9139
21.9139
21.9139
21.9139
21.9139
21.9139
21.9139
21.9139
21.9139
21.9139
21.9139
21.9139
21.9139
21.9139
21.9139
21.9139
21.9139
21.9139
21.9139
21.9139
21.9139
21.9139
21.9139
21.9139
21.9139
21.9139
21.9139
21.9139
21.9139
21.9139
21.9139
21.9139
21.9139
21.9139
21.9139
21.9139
21.9139
21.9139
21.9139
21.9139
21.9139
21.9139
21.9139
21.9139
21.9139
21.9139
21.9139
21.9139
21.9139
21.9139
21.9139
21.9139
21.9139
21.9139
21.9139
21.9139
21.9139
21.9139
21.9139
21.9139
21.9139
21.9139
21.9139
21.9139
21.9139
21.9139
21.9139
21.9139
21.9139
21.9139
21.9139
21.9139
21.9139
21.9139
21.9139
21.9139
21.9139
21.9139
21.9139
21.9139
21.9139
21.9139
21.9139
21.9139
21.9139
21.9139
21.9139
21.9139
21.9139
21.9139
21.9139
21.9139
21.9139
21.9139
21.9139
21.9139
21.9139
21.9139
21.9139
21.9139
21.9139
21.9139
21.9139
21.9139
21.9139
21.9139
21.9139
21.9139
21.9139
21.9139
21.9139
21.9139
21.9139
21.9139
21.9139
21.9139
21.9139
21.9139
21.9139
21.9139
21.9139
21.9139
21.9139
21.9139
21.9139
21.9139
21.9139
21.9139
21.9139
21.9139
21.9139
21.9139
21.9139
21.9139
21.9139
21.9139
21.9139
21.9139
21.9139
21.9139
21.9139
21.9139
21.9139
21.9139
21.9139
21.9139
21.9139
21.9139
21.9139
21.9139
21.9139
21.9139
21.9139
21.9139
21.9139
21.9139
21.9139
21.9139
21.9139
21.9139
21.9139
21.9139
21.9139
21.9139
21.9139
21.9139
21.9139
21.9139
21.9139
21.9139
21.9139
21.9139
21.9139
21.9139
21.9139
21.9139
21.9139
21.9139
21.9139
21.9139
21.9139
21.9139
21.9139
21.9139
21.9139
21.9139
21.9139
21.9139
21.9139
21.9139
21.9139
21.9139
21.9139
21.9139
21.9139
21.9139
21.9139
21.9139
21.9139
21.9139
21.9139
21.9139
21.9139
21.9139
21.9139
21.9139
21.9139
21.9139
21.9139
21.9139
21.9139
21.9139
21.9139
21.9139
21.9139
21.9139
21.9139
21.9139
21.9139
21.9139
21.9139
21.9139
21.9139
21.9139
21.9139
21.9139
21.9139
21.9139
21.9139
21.9139
21.9139
21.9139
21.9139
21.9139
21.9139
21.9139
21.9139
21.9139
21.9139
21.9139
21.9139
21.9139
21.9139
21.9139
21.9139
21.9139
21.9139
21.9139
21.9139
21.9139
21.9139
21.9139
21.9139
21.9139
21.9139
21.9139
21.9139
21.9139
21.9139
21.9139
21.9139
21.9139
21.9139
21.9139
21.9139
21.9139
21.9139
21.9139
21.9139
21.9139
21.9139
21.9139
21.9139
21.9139
21.9139
21.9139
21.9139
21.9139
21.9139
21.9139
21.9139
21.9139
21.9139
21.9139
21.9139
21.9139
21.9139
21.9139
21.9139
21.9139
21.9139
21.9139
21.9139
21.9139
21.9139
21.9139
21.9139
21.9139
21.9139
21.9139
21.9139
21.9139
21.9139
21.9139
21.9139
21.9139
21.9139
21.9139
21.9139
21.9139
21.9139
21.9139
21.9139
21.9139
21.9139
21.9139
21.9139
21.9139
21.9139
21.9139
21.9139
21.9139
21.9139
21.9139
21.9139
21.9139
21.9139
21.9139
21.9139
21.9139
21.9139
21.9139
21.9139
21.9139
21.9139
21.9139
21.9139
21.9139
21.9139
21.9139
21.9139
21.9139
21.9139
21.9139
21.9139
21.9139
21.9139
21.9139
21.9139
21.9139
21.9139
21.9139
21.9139
21.9139
21.9139
21.9139
21.9139
21.9139
21.9139
21.9139
21.9139
21.9139
21.9139
21.9139
21.9139
21.9139
21.9139
21.9139
21.9139
21.9139
21.9139
21.9139
21.9139
21.9139
21.9139
21.9139
21.9139
21.9139
21.9139
21.9139
21.9139
21.9139
21.9139
21.9139
21.9139
21.9139
21.9139
21.9139
21.9139
21.9139
21.9139
21.9139
21.9139
21.9139
21.9139
21.9139
21.9139
21.9139
21.9139
21.9139
21.9139
21.9139
21.9139
21.9139
21.9139
21.9139
21.9139
21.9139
21.9139
21.9139
21.9139
21.9139
21.9139
21.9139
21.9139
21.9139
21.9139
21.9139
21.9139
21.9139
21.9139
21.9139
21.9139
21.9139
21.9139
21.9139
21.9139
21.9139
21.9139
21.9139
21.9139
21.9139
21.9139
21.9139
21.9139
21.9139
21.9139
21.9139
21.9139
21.9139
21.9139
21.9139
21.9139
21.9139
21.9139
21.9139
21.9139
21.9139
21.9139
21.9139
21.9139
21.9139
21.9139
21.9139
21.9139
21.9139
21.9139
21.9139
21.9139
21.9139
21.9139
21.9139
21.9139
21.9139
21.9139
21.9139
21.9139
21.9139
21.9139
21.9139
21.9139
21.9139
21.9139
21.9139
21.9139
21.9139
21.9139
21.9139
21.9139
21.9139
21.9139
21.9139
21.9139
21.9139
21.9139
21.9139
21.9139
21.9139
21.9139
21.9139
21.9139
21.9139
21.9139
21.9139
21.9139
21.9139
21.9139
21.9139
21.9139
21.9139
21.9139
21.9139
21.9139
21.9139
21.9139
21.9139
21.9139
21.9139
21.9139
21.9139
21.9139
21.9139
21.9139
21.9139
21.9139
21.9139
21.9139
21.9139
21.9139
21.9139
21.9139
21.9139
21.9139
21.9139
21.9139
21.9139
21.9139
21.9139
21.9139
21.9139
21.9139
21.9139
21.9139
21.9139
21.9139
21.9139
21.9139
21.9139
21.9139
21.9139
21.9139
21.9139
21.9139
21.9139
21.9139
21.9139
21.9139
21.9139
21.9139
21.9139
21.9139
21.9139
21.9139
21.9139
21.9139
21.9139
21.9139
21.9139
21.9139
21.9139
21.9139
21.9139
21.9139
21.9139
21.9139
21.9139
21.9139
21.9139
21.9139
21.9139
21.9139
21.9139
21.9139
21.9139
21.9139
21.9139
21.9139
21.9139
21.9139
21.9139
21.9139
21.9139
21.9139
21.9139
21.9139
21.9139
21.9139
21.9139
21.9139
21.9139
21.9139
21.9139
21.9139
21.9139
21.9139
21.9139
21.9139
21.9139
21.9139
21.9139
21.9139
21.9139
21.9139
21.9139
21.9139
21.9139
21.9139
21.9139
21.9139
21.9139
21.9139
21.9139
21.9139
21.9139
21.9139
21.9139
21.9139
21.9139
21.9139
21.9139
21.9139
21.9139
21.9139
21.9139
21.9139
21.9139
21.9139
21.9139
21.9139
21.9139
21.9139
21.9139
21.9139
21.9139
21.9139
21.9139
21.9139
21.9139
21.9139
21.9139
21.9139
21.9139
21.9139
21.9139
21.9139
21.9139
21.9139
21.9139
21.9139
21.9139
21.9139
21.9139
21.9139
21.9139
21.9139
21.9139
21.9139
21.9139
21.9139
21.9139
21.9139
21.9139
21.9139
21.9139
21.9139
21.9139
21.9139
21.9139
21.9139
21.9139
21.9139
21.9139
21.9139
21.9139
21.9139
21.9139
21.9139
21.9139
21.9139
21.9139
21.9139
21.9139
21.9139
21.9139
21.9139
21.9139
21.9139
21.9139
21.914
21.9139
21.9139
21.9139
21.9139
21.9139
21.9139
21.9139
21.9139
21.9139
21.9139
21.9139
21.9139
21.9139
21.9139
21.9139
21.9139
21.9139
21.9139
21.9139
21.9139
21.9139
21.9139
21.9139
21.9139
21.9139
21.9139
21.9139
21.9139
21.9139
21.9139
21.9139
21.9139
21.9139
21.9139
21.9139
21.9139
21.9139
21.9139
21.9139
21.9139
21.9139
21.9139
21.9139
21.9139
21.9139
21.9139
21.914
21.914
21.9141
21.9142
21.9139
21.9139
21.9139
21.9139
21.9139
21.9139
21.9139
21.9139
21.9139
21.9139
21.9139
21.9139
21.9139
21.9139
21.9139
21.9139
21.9139
21.9139
21.9139
21.9139
21.9139
21.9139
21.9139
21.9139
21.9139
21.9139
21.9139
21.9139
21.9139
21.9139
21.9139
21.9139
21.9139
21.9139
21.9139
21.9139
21.9139
21.9139
21.9139
21.9139
21.9139
21.9139
21.914
21.914
21.914
21.9141
21.9142
21.9143
21.9145
21.9149
21.9139
21.9139
21.9139
21.9139
21.9139
21.9139
21.9139
21.9139
21.9139
21.9139
21.9139
21.9139
21.9139
21.9139
21.9139
21.9139
21.9139
21.9139
21.9139
21.9139
21.9139
21.9139
21.9139
21.9139
21.9139
21.9139
21.9139
21.9139
21.9139
21.9139
21.9139
21.9139
21.9139
21.9139
21.9139
21.9139
21.9139
21.9139
21.9139
21.914
21.914
21.914
21.9141
21.9142
21.9143
21.9145
21.9149
21.9154
21.9162
21.9175
21.9139
21.9139
21.9139
21.9139
21.9139
21.9139
21.9139
21.9139
21.9139
21.9139
21.9139
21.9139
21.9139
21.9139
21.9139
21.9139
21.9139
21.9139
21.9139
21.9139
21.9139
21.9139
21.9139
21.9139
21.9139
21.9139
21.9139
21.9139
21.9139
21.9139
21.9139
21.9139
21.9139
21.9139
21.9139
21.9139
21.914
21.914
21.914
21.9141
21.9142
21.9144
21.9146
21.9149
21.9154
21.9162
21.9174
21.9192
21.9221
21.9265
21.9139
21.9139
21.9139
21.9139
21.9139
21.9139
21.9139
21.9139
21.9139
21.9139
21.9139
21.9139
21.9139
21.9139
21.9139
21.9139
21.9139
21.9139
21.9139
21.9139
21.9139
21.9139
21.9139
21.9139
21.9139
21.9139
21.9139
21.9139
21.9139
21.9139
21.9139
21.9139
21.9139
21.914
21.914
21.9141
21.9141
21.9142
21.9144
21.9146
21.915
21.9155
21.9163
21.9176
21.9194
21.9222
21.9263
21.9327
21.9424
21.9579
21.9139
21.9139
21.9139
21.9139
21.9139
21.9139
21.9139
21.9139
21.9139
21.9139
21.9139
21.9139
21.9139
21.9139
21.9139
21.9139
21.9139
21.9139
21.9139
21.9139
21.9139
21.9139
21.9139
21.9139
21.9139
21.9139
21.9139
21.9139
21.9139
21.914
21.914
21.914
21.9141
21.9142
21.9143
21.9145
21.9147
21.9151
21.9157
21.9165
21.9178
21.9197
21.9225
21.9267
21.933
21.9425
21.9569
21.9786
22.0117
22.0637
21.9139
21.9139
21.9139
21.9139
21.9139
21.9139
21.9139
21.9139
21.9139
21.9139
21.9139
21.9139
21.9139
21.9139
21.9139
21.9139
21.9139
21.9139
21.9139
21.9139
21.9139
21.9139
21.9139
21.9139
21.9139
21.9139
21.914
21.914
21.914
21.9141
21.9142
21.9143
21.9145
21.9148
21.9152
21.9158
21.9168
21.9181
21.9201
21.923
21.9274
21.9338
21.9435
21.9578
21.9793
22.0114
22.0595
22.132
22.2416
22.412
21.9139
21.9139
21.9139
21.9139
21.9139
21.9139
21.9139
21.9139
21.9139
21.9139
21.9139
21.9139
21.9139
21.9139
21.9139
21.9139
21.9139
21.9139
21.9139
21.9139
21.9139
21.9139
21.914
21.914
21.914
21.9141
21.9141
21.9142
21.9144
21.9146
21.9149
21.9154
21.9161
21.9171
21.9185
21.9206
21.9238
21.9283
21.9351
21.945
21.9597
21.9815
22.0137
22.0616
22.1327
22.2385
22.3959
22.6304
22.9811
23.5145
21.9139
21.9139
21.9139
21.9139
21.9139
21.9139
21.9139
21.9139
21.9139
21.9139
21.9139
21.9139
21.9139
21.9139
21.9139
21.9139
21.9139
21.9139
21.914
21.914
21.914
21.914
21.9141
21.9142
21.9143
21.9145
21.9147
21.9151
21.9156
21.9164
21.9175
21.9191
21.9214
21.9247
21.9296
21.9368
21.9472
21.9626
21.985
22.018
22.0666
22.1381
22.2434
22.3987
22.6273
22.9636
23.4567
24.1772
25.2254
26.7577
21.9139
21.9139
21.9139
21.9139
21.9139
21.9139
21.9139
21.9139
21.9139
21.9139
21.9139
21.9139
21.9139
21.9139
21.9139
21.914
21.914
21.914
21.9141
21.9142
21.9143
21.9144
21.9146
21.9149
21.9153
21.9159
21.9168
21.918
21.9198
21.9224
21.9261
21.9314
21.9391
21.9503
21.9665
21.9902
22.0245
22.0747
22.1479
22.2548
22.4109
22.6388
22.971
23.4534
24.1506
25.1508
26.5711
28.5618
31.3102
35.077
21.9139
21.9139
21.9139
21.9139
21.9139
21.9139
21.9139
21.9139
21.9139
21.9139
21.9139
21.914
21.914
21.914
21.9141
21.9141
21.9142
21.9143
21.9145
21.9148
21.9151
21.9156
21.9163
21.9173
21.9187
21.9208
21.9237
21.9278
21.9337
21.9422
21.9543
21.9719
21.9972
22.0336
22.0864
22.1626
22.273
22.4329
22.6641
22.9982
23.4791
24.1681
25.148
26.5272
28.4424
31.0578
34.5614
39.1635
45.082
52.6543
21.9139
21.9139
21.9139
21.9139
21.9139
21.9139
21.9139
21.914
21.914
21.914
21.9141
21.9141
21.9142
21.9143
21.9145
21.9147
21.915
21.9154
21.916
21.9168
21.918
21.9197
21.922
21.9253
21.93
21.9367
21.9462
21.9597
21.9789
22.0064
22.0458
22.1022
22.1831
22.2991
22.4657
22.7044
23.0462
23.5338
24.2263
25.2024
26.5648
28.4415
30.985
34.3681
38.7775
44.4071
51.4525
60.1256
70.6525
83.6078
21.9139
21.9139
21.9139
21.914
21.914
21.914
21.9141
21.9141
21.9142
21.9143
21.9144
21.9146
21.9149
21.9153
21.9158
21.9165
21.9175
21.9189
21.9209
21.9237
21.9275
21.933
21.9406
21.9514
21.9666
21.9881
22.0186
22.0618
22.1232
22.2105
22.3346
22.511
22.7618
23.1174
23.6202
24.3276
25.3156
26.6822
28.5485
31.0578
34.3708
38.6602
44.1049
50.8838
59.1764
69.1835
81.1569
95.4163
112.139
132.765
21.914
21.914
21.9141
21.9141
21.9142
21.9143
21.9144
21.9146
21.9149
21.9152
21.9157
21.9163
21.9172
21.9185
21.9202
21.9226
21.9259
21.9304
21.9368
21.9457
21.9582
21.9756
22.0001
22.0344
22.0827
22.1507
22.2465
22.3814
22.5716
22.8393
23.2155
23.7424
24.4766
25.4923
26.8837
28.7664
31.2753
34.5606
38.7827
44.1062
50.6973
58.7191
68.3498
79.8094
93.3711
109.299
127.965
150.262
177.204
212.152
21.9141
21.9142
21.9143
21.9144
21.9146
21.9148
21.9152
21.9156
21.9162
21.9171
21.9182
21.9197
21.9219
21.9248
21.9288
21.9343
21.942
21.9525
21.9672
21.9875
22.0158
22.0551
22.11
22.1865
22.2933
22.4425
22.6509
22.9415
23.3459
23.9069
24.6808
25.7407
27.178
29.1034
31.6445
34.9422
39.1447
44.404
50.873
58.7033
68.0544
79.1189
92.1561
107.419
125.207
146.116
171.273
202.014
239.395
282.509
332.146
21.9146
21.9149
21.9152
21.9156
21.9162
21.917
21.9181
21.9195
21.9215
21.9241
21.9278
21.9327
21.9395
21.9488
21.9616
21.9791
22.0032
22.0364
22.0822
22.1455
22.233
22.3542
22.5219
22.7538
23.0743
23.5159
24.1224
24.9503
26.0723
27.5776
29.5725
32.1782
35.5266
39.7546
45.0021
51.4096
59.1176
68.27
79.039
91.656
106.381
123.47
143.365
166.983
195.615
230.37
271.463
317.519
365.845
411.912
454.274
21.9157
21.9163
21.9171
21.9181
21.9195
21.9214
21.9239
21.9273
21.9319
21.9382
21.9466
21.9581
21.9737
21.9949
22.024
22.0636
22.1178
22.1921
22.2939
22.4335
22.6249
22.8872
23.2461
23.7356
24.4008
25.2993
26.5032
28.1001
30.1927
32.8957
36.3322
40.6291
45.914
52.3157
59.9642
68.9902
79.5493
91.848
106.148
122.683
141.799
164.221
191.124
223.702
262.5
306.804
354.302
401.602
444.902
481.566
509.764
530.27
21.9197
21.9215
21.924
21.9273
21.9318
21.9377
21.9456
21.9563
21.9707
21.9901
22.0164
22.0519
22.0999
22.1651
22.2536
22.3739
22.5372
22.7591
23.0602
23.468
24.0185
24.7583
25.7462
27.0545
28.7692
30.989
33.8227
37.3849
41.792
47.1607
53.6083
61.2545
70.2209
80.648
92.7218
106.697
122.801
141.318
162.819
188.342
219.084
255.812
298.258
344.711
392.171
437.086
476.247
507.857
531.225
547.038
556.471
561.136
21.9322
21.938
21.9458
21.9561
21.9698
21.9882
22.0127
22.0456
22.0897
22.1489
22.2284
22.3355
22.4797
22.6737
22.9347
23.2853
23.7552
24.3826
25.216
26.3157
27.754
29.6151
31.9939
34.9929
38.7182
43.2762
48.7725
55.3145
63.0122
71.9794
82.3438
94.2767
108.014
123.793
141.856
162.66
187.104
216.345
251.274
291.941
337.126
384.276
430.098
471.319
505.652
532.037
550.684
562.544
569.089
571.579
571.69
571.554
21.9709
21.9888
22.0125
22.044
22.0858
22.1414
22.2154
22.314
22.4455
22.6209
22.8546
23.1659
23.5797
24.1282
24.852
25.802
27.0396
28.6369
30.6763
33.2481
36.4483
40.3742
45.1224
50.7884
57.4701
65.269
74.292
84.6567
96.5225
110.11
125.661
143.392
163.684
187.306
215.35
248.764
287.819
331.671
378.202
424.405
467.064
503.589
532.668
554.013
568.305
576.643
580.736
581.483
581.244
580.837
579.337
576.255
22.0879
22.1418
22.213
22.3068
22.4308
22.5945
22.8107
23.0961
23.4722
23.9666
24.6143
25.4587
26.5526
27.9585
29.7479
32.0004
34.8013
38.2395
42.4035
47.3804
53.2559
60.1198
68.0664
77.1964
87.6196
99.486
113.004
128.417
145.925
165.855
188.871
215.991
248.176
285.834
328.403
374.14
420.328
463.898
502.145
533.453
557.162
573.718
584.096
589.663
591.452
591.274
591.017
589.938
587.514
583.85
579.087
573.366
22.4337
22.5916
22.7981
23.0682
23.421
23.8807
24.4779
25.2506
26.2449
27.5152
29.1244
31.1427
33.646
36.7139
40.4275
44.8666
50.1089
56.2318
63.3179
71.4556
80.7406
91.2761
103.206
116.73
132.088
149.472
169.168
191.763
218.2
249.426
285.927
327.336
372.207
418.111
462.168
501.665
534.718
560.497
579.14
591.409
598.347
601.424
601.682
601.257
600.569
598.738
595.576
591.245
586.1
580.224
574.107
567.635
23.4201
23.8608
24.4283
25.1563
26.0858
27.265
28.7495
30.6018
32.8892
35.683
39.0565
43.0826
47.8324
53.3751
59.7809
67.1267
75.4963
84.9812
95.68
107.732
121.332
136.717
154.068
173.645
195.977
221.947
252.467
288.053
328.464
372.479
417.94
462.151
502.45
536.824
564.318
584.738
598.669
607.089
611.373
612.302
611.853
611.363
609.907
607.104
603.33
598.523
593.019
586.986
580.808
574.489
568.219
561.708
27.1841
28.5895
30.3314
32.4701
35.0693
38.1946
41.912
46.2865
51.3809
57.2567
63.9785
71.6194
80.2597
89.9873
100.898
113.129
126.873
142.363
159.766
179.33
201.544
227.24
257.286
292.191
331.787
375.017
419.94
464.044
504.768
540.099
568.883
590.755
606.153
615.991
621.242
623.033
622.783
622.259
621.128
618.822
615.398
610.964
605.823
599.98
593.851
587.623
581.305
574.994
568.668
562.455
556.025
34.8237
37.7779
41.2745
45.3724
50.1287
55.5984
61.8374
68.9062
76.8757
85.8239
95.8353
107.004
119.471
133.426
149.095
166.636
186.285
208.515
234.116
263.904
298.355
337.325
379.867
424.207
468.012
508.862
544.756
574.43
597.437
614.115
625.07
631.274
633.947
634.031
633.343
632.487
630.549
627.387
623.395
618.526
612.977
606.977
600.849
594.578
588.25
581.935
575.633
569.369
563.101
556.945
550.579
49.5432
54.7116
60.585
67.2146
74.6599
82.9908
92.2831
102.619
114.093
126.851
141.084
157.008
174.768
194.6
216.973
242.647
272.378
306.586
345.114
387.075
430.824
474.194
514.903
550.992
581.197
605.034
622.632
634.493
641.602
645.038
645.472
644.816
644.065
642.361
639.483
635.797
631.222
625.975
620.146
614.086
607.894
601.603
595.302
589.005
582.714
576.447
570.197
563.982
557.759
551.64
545.319
81.3376
90.0618
99.7343
110.434
122.262
135.37
149.952
166.205
184.266
204.379
227.025
252.938
282.802
316.96
355.213
396.699
439.866
482.682
523.016
558.989
589.393
613.692
631.868
644.459
652.335
656.293
657.178
656.63
655.793
654.32
651.754
648.275
643.996
639.01
633.364
627.389
621.283
615.04
608.751
602.46
596.171
589.897
583.641
577.399
571.176
564.964
558.783
552.591
546.498
540.213
119.407
131.639
145.16
160.164
176.82
195.263
215.759
238.812
265.128
295.303
329.582
367.706
408.805
451.389
493.55
533.301
568.878
599.142
623.55
642.035
655.095
663.48
667.846
669.225
668.771
667.776
666.489
664.145
660.755
656.784
652.024
646.624
640.78
634.765
628.58
622.307
616.024
609.738
603.457
597.192
590.941
584.704
578.482
572.272
566.077
559.892
553.736
547.569
541.498
535.246
171.858
188.993
207.905
228.898
252.506
279.389
310.041
344.591
382.699
423.47
465.451
506.848
545.815
580.725
610.541
634.737
653.244
666.48
675.142
679.863
681.526
681.173
680.153
678.936
676.722
673.425
669.642
665.101
659.911
654.202
648.266
642.173
635.952
629.697
623.424
617.143
610.87
604.609
598.359
592.123
585.898
579.685
573.485
567.296
561.122
554.959
548.823
542.68
536.63
530.409
244.003
268.323
295.934
327.205
362.141
400.311
440.772
482.097
522.603
560.586
594.57
623.64
647.321
665.539
678.713
687.444
692.354
694.138
693.887
692.881
691.582
689.491
686.373
682.623
678.282
673.315
667.725
661.864
655.847
649.673
643.44
637.189
630.924
624.659
618.399
612.145
605.898
599.661
593.432
587.214
581.006
574.809
568.624
562.452
556.296
550.152
544.037
537.916
531.887
525.698
347.015
382.411
420.664
460.778
501.355
540.815
577.599
610.399
638.445
661.325
678.97
691.841
700.428
705.322
707.13
706.949
705.926
704.496
702.491
699.485
695.743
691.561
686.745
681.293
675.532
669.627
663.512
657.303
651.068
644.812
638.549
632.291
626.039
619.792
613.55
607.314
601.083
594.86
588.644
582.438
576.242
570.058
563.888
557.731
551.592
545.467
539.372
533.273
527.265
521.106
483.539
523.22
561.436
596.791
628.168
654.923
676.732
693.535
705.872
714.113
718.805
720.542
720.336
719.268
717.714
715.74
712.79
709.044
704.961
700.28
694.959
689.289
683.454
677.406
671.241
665.05
658.82
652.568
646.312
640.057
633.805
627.559
621.317
615.08
608.847
602.62
596.398
590.183
583.977
577.781
571.596
565.424
559.267
553.126
547.004
540.897
534.822
528.745
522.758
516.629
618.061
647.766
672.977
693.451
709.227
720.794
728.497
732.819
734.37
734.053
732.925
731.257
729.226
726.309
722.536
718.505
713.94
708.755
703.149
697.378
691.398
685.277
679.117
672.913
666.679
660.44
654.198
647.951
641.702
635.455
629.21
622.968
616.729
610.495
604.267
598.044
591.828
585.62
579.422
573.235
567.061
560.902
554.759
548.633
542.528
536.439
530.383
524.329
518.362
512.263
725.947
736.549
743.539
747.361
748.608
748.121
746.905
745.13
742.969
740.052
736.235
732.215
727.731
722.667
717.103
711.396
705.5
699.421
693.29
687.113
680.897
674.673
668.442
662.202
655.961
649.719
643.474
637.228
630.982
624.737
618.494
612.256
606.023
599.796
593.576
587.365
581.163
574.973
568.796
562.633
556.487
550.358
544.247
538.159
532.089
526.053
520.02
514.073
508.004
762.384
763.234
762.531
761.204
759.307
756.986
754.019
750.161
746.116
741.666
736.696
731.165
725.51
719.701
713.66
707.558
701.42
695.23
689.022
682.803
676.572
670.337
664.099
657.857
651.612
645.365
639.117
632.867
626.618
620.37
614.125
607.886
601.652
595.427
589.211
583.004
576.81
570.628
564.461
558.309
552.175
546.06
539.965
533.894
527.842
521.825
515.814
509.888
503.848
775.809
773.754
771.261
768.198
764.302
760.212
755.759
750.84
745.352
739.735
734.004
727.997
721.923
715.829
709.666
703.476
697.276
691.06
684.836
678.605
672.366
666.123
659.876
653.625
647.372
641.117
634.861
628.605
622.351
616.1
609.853
603.613
597.38
591.157
584.944
578.743
572.555
566.382
560.224
554.084
547.963
541.863
535.783
529.728
523.695
517.698
511.708
505.803
499.791
778.625
774.49
770.01
765.111
759.667
754.079
748.405
742.44
736.394
730.344
724.209
718.037
711.86
705.662
699.45
693.23
687
680.763
674.519
668.268
662.012
655.753
649.491
643.227
636.962
630.698
624.436
618.177
611.923
605.674
599.433
593.202
586.981
580.773
574.577
568.397
562.232
556.085
549.956
543.848
537.762
531.698
525.66
519.645
513.667
507.699
501.814
495.831
779.52
774.104
768.54
762.907
756.989
750.973
744.964
738.861
732.709
726.558
720.379
714.18
707.974
701.756
695.526
689.289
683.042
676.788
670.528
664.262
657.992
651.718
645.444
639.169
632.895
626.623
620.355
614.092
607.835
601.585
595.345
589.115
582.898
576.693
570.504
564.331
558.175
552.038
545.922
539.826
533.754
527.706
521.685
515.688
509.729
503.783
497.918
491.963
771.643
765.658
759.684
753.618
747.491
741.366
735.212
729.028
722.839
716.635
710.414
704.185
697.946
691.696
685.437
679.171
672.899
666.621
660.338
654.053
647.766
641.48
635.194
628.912
622.633
616.36
610.093
603.833
597.583
591.344
585.117
578.903
572.704
566.521
560.355
554.209
548.082
541.977
535.895
529.837
523.804
517.8
511.821
505.882
499.956
494.112
488.185
768.482
762.38
756.283
750.156
743.992
737.821
731.635
725.427
719.209
712.979
706.734
700.48
694.217
687.944
681.664
675.378
669.086
662.79
656.492
650.192
643.893
637.595
631.301
625.01
618.725
612.447
606.177
599.917
593.667
587.429
581.204
574.994
568.8
562.624
556.467
550.329
544.213
538.12
532.05
526.007
519.989
514.002
508.042
502.121
496.217
490.393
484.494
759.069
752.919
746.752
740.56
734.356
728.139
721.904
715.656
709.398
703.128
696.848
690.56
684.264
677.962
671.656
665.346
659.033
652.72
646.408
640.097
633.789
627.486
621.188
614.898
608.616
602.343
596.082
589.832
583.596
577.375
571.169
564.981
558.812
552.662
546.534
540.429
534.347
528.291
522.261
516.26
510.289
504.347
498.446
492.562
486.759
480.887
755.814
749.625
743.422
737.199
730.962
724.712
718.448
712.171
705.884
699.587
693.281
686.969
680.651
674.329
668.004
661.677
655.349
649.022
642.697
636.375
630.058
623.747
617.443
611.148
604.863
598.589
592.327
586.078
579.844
573.626
567.425
561.243
555.081
548.94
542.821
536.727
530.657
524.614
518.598
512.612
506.658
500.734
494.851
488.989
483.207
477.362
752.62
746.395
740.155
733.899
727.629
721.346
715.051
708.745
702.431
696.108
689.778
683.443
677.104
670.763
664.42
658.076
651.734
645.394
639.058
632.726
626.401
620.083
613.774
607.475
601.187
594.911
588.649
582.402
576.17
569.956
563.76
557.585
551.43
545.297
539.188
533.104
527.046
521.016
515.014
509.044
503.106
497.2
491.337
485.496
479.735
473.919
749.481
743.219
736.943
730.653
724.35
718.036
711.711
705.378
699.037
692.689
686.337
679.98
673.622
667.262
660.902
654.544
648.188
641.836
635.49
629.149
622.816
616.492
610.178
603.876
597.585
591.309
585.047
578.801
572.573
566.363
560.172
554.002
547.855
541.731
535.631
529.558
523.512
517.495
511.508
505.553
499.632
493.745
487.902
482.083
476.344
470.557
746.39
740.092
733.781
727.458
721.123
714.779
708.427
702.067
695.7
689.33
682.956
676.579
670.202
663.825
657.45
651.078
644.71
638.347
631.991
625.642
619.302
612.973
606.654
600.349
594.057
587.78
581.518
575.275
569.049
562.843
556.658
550.495
544.355
538.239
532.15
526.087
520.053
514.049
508.078
502.139
496.237
490.369
484.546
478.75
473.032
467.271
743.344
737.012
730.667
724.312
717.948
711.576
705.196
698.811
692.421
686.029
679.634
673.239
666.845
660.452
654.062
647.677
641.297
634.924
628.559
622.203
615.857
609.522
603.2
596.892
590.599
584.321
578.061
571.82
565.597
559.396
553.216
547.06
540.927
534.821
528.742
522.691
516.67
510.681
504.725
498.804
492.919
487.068
481.264
475.487
469.789
464.053
740.343
733.977
727.601
721.216
714.824
708.424
702.019
695.611
689.199
682.786
676.372
669.959
663.548
657.14
650.737
644.34
637.949
631.567
625.193
618.83
612.478
606.139
599.814
593.504
587.209
580.932
574.673
568.434
562.216
556.019
549.845
543.696
537.573
531.477
525.408
519.37
513.364
507.388
501.445
495.538
489.668
483.834
478.047
472.291
466.614
460.906
730.989
724.583
718.169
711.749
705.325
698.896
692.465
686.032
679.599
673.167
666.738
660.311
653.89
647.474
641.065
634.664
628.273
621.892
615.522
609.165
602.822
596.494
590.182
583.887
577.611
571.354
565.118
558.904
552.713
546.547
540.406
534.292
528.206
522.148
516.12
510.124
504.16
498.23
492.336
486.482
480.668
474.901
469.167
463.512
457.832
728.046
721.611
715.171
708.725
702.276
695.825
689.372
682.92
676.468
670.02
663.574
657.133
650.699
644.271
637.851
631.441
625.042
618.653
612.278
605.916
599.57
593.239
586.926
580.632
574.358
568.104
561.872
555.664
549.48
543.32
537.185
531.078
525
518.95
512.932
506.945
500.995
495.081
489.203
483.367
477.571
471.824
466.112
460.48
454.827
725.149
718.687
712.221
705.751
699.279
692.806
686.333
679.862
673.393
666.928
660.467
654.013
647.566
641.127
634.697
628.278
621.871
615.477
609.096
602.731
596.382
590.051
583.739
577.446
571.174
564.924
558.695
552.489
546.309
540.154
534.025
527.925
521.854
515.815
509.809
503.836
497.899
491.999
486.139
480.32
474.542
468.816
463.126
457.516
451.89
715.809
709.318
702.825
696.332
689.838
683.346
676.857
670.372
663.891
657.416
650.949
644.49
638.041
631.602
625.176
618.762
612.363
605.979
599.612
593.262