/*--------------------------------*- C++ -*----------------------------------*\
| =========                 |                                                 |
| \\      /  F ield         | OpenFOAM: The Open Source CFD Toolbox           |
|  \\    /   O peration     | Version:  v1706                                 |
|   \\  /    A nd           | Web:      www.OpenFOAM.com                      |
|    \\/     M anipulation  |                                                 |
\*---------------------------------------------------------------------------*/
FoamFile
{
    version     2.0;
    format      ascii;
    class       volScalarField;
    location    "3.8e-05";
    object      rho;
}
// * * * * * * * * * * * * * * * * * * * * * * * * * * * * * * * * * * * * * //

dimensions      [1 -3 0 0 0 0 0];


internalField   nonuniform List<scalar> 
30038
(
0.000511309
0.000511309
0.000511309
0.000511309
0.000511309
0.000511309
0.000511309
0.000511309
0.000511309
0.000511309
0.000511309
0.000511309
0.000511309
0.000511309
0.000511309
0.000511309
0.000511309
0.000511309
0.000511309
0.000511309
0.000511309
0.000511309
0.000511309
0.000511309
0.000511309
0.000511309
0.000511309
0.000511309
0.000511309
0.000511309
0.000511309
0.000511309
0.000511309
0.000511309
0.000511309
0.000511309
0.000511309
0.000511309
0.000511309
0.000511309
0.000511309
0.000511309
0.000511309
0.000511309
0.000511309
0.000511309
0.000511309
0.000511309
0.000511309
0.000511309
0.000511309
0.000511309
0.000511309
0.000511309
0.000511309
0.000511309
0.000511309
0.000511309
0.000511309
0.000511309
0.000511309
0.000511309
0.000511309
0.000511309
0.000511309
0.000511309
0.000511309
0.000511309
0.000511309
0.000511309
0.000511309
0.000511309
0.000511309
0.000511309
0.000511309
0.000511309
0.000511309
0.000511309
0.000511309
0.000511309
0.000511309
0.000511309
0.000511309
0.000511309
0.000511309
0.000511309
0.000511309
0.000511309
0.000511309
0.000511309
0.000511309
0.000511309
0.000511309
0.000511309
0.000511309
0.000511309
0.000511309
0.000511309
0.000511309
0.000511309
0.000511309
0.000511309
0.000511309
0.000511309
0.000511309
0.000511309
0.000511309
0.000511309
0.000511309
0.000511309
0.000511309
0.000511309
0.000511309
0.000511309
0.000511309
0.000511309
0.000511309
0.000511309
0.000511309
0.000511309
0.000511309
0.000511309
0.000511309
0.000511309
0.000511309
0.000511309
0.000511309
0.000511309
0.000511309
0.000511309
0.000511309
0.000511309
0.000511309
0.000511309
0.000511309
0.000511309
0.000511309
0.000511309
0.000511309
0.000511309
0.000511309
0.000511309
0.000511309
0.000511309
0.000511309
0.000511309
0.000511309
0.000511309
0.000511309
0.000511309
0.000511309
0.000511309
0.000511309
0.000511309
0.000511309
0.000511309
0.000511309
0.000511309
0.000511309
0.000511309
0.000511309
0.000511309
0.000511309
0.000511309
0.000511309
0.000511309
0.000511309
0.000511309
0.000511309
0.000511309
0.000511309
0.000511309
0.000511309
0.000511309
0.000511309
0.000511309
0.000511309
0.000511309
0.000511309
0.000511309
0.000511309
0.000511309
0.000511309
0.000511309
0.000511309
0.000511309
0.000511309
0.000511309
0.000511309
0.000511309
0.000511309
0.000511309
0.000511309
0.000511309
0.000511309
0.000511309
0.000511309
0.000511309
0.000511309
0.000511309
0.000511309
0.000511309
0.000511309
0.000511309
0.000511309
0.000511309
0.000511309
0.000511309
0.000511309
0.000511309
0.000511309
0.000511309
0.000511309
0.000511309
0.000511309
0.000511309
0.000511309
0.000511309
0.000511309
0.000511309
0.000511309
0.000511309
0.000511309
0.000511309
0.000511309
0.000511309
0.000511309
0.000511309
0.000511309
0.000511309
0.000511309
0.000511309
0.000511309
0.000511309
0.000511309
0.000511309
0.000511309
0.000511309
0.000511309
0.000511309
0.000511309
0.000511309
0.000511309
0.000511309
0.000511309
0.000511309
0.000511309
0.000511309
0.000511309
0.000511309
0.000511309
0.000511309
0.000511309
0.000511309
0.000511309
0.000511309
0.000511309
0.000511309
0.000511309
0.000511309
0.000511309
0.000511309
0.000511309
0.000511309
0.000511309
0.000511309
0.000511309
0.000511309
0.000511309
0.000511309
0.000511309
0.000511309
0.000511309
0.000511309
0.000511309
0.000511309
0.000511309
0.000511309
0.000511309
0.000511309
0.000511309
0.000511309
0.000511309
0.000511309
0.000511309
0.000511309
0.000511309
0.000511309
0.000511309
0.000511309
0.000511309
0.000511309
0.000511309
0.000511309
0.000511309
0.000511309
0.000511309
0.000511309
0.000511309
0.000511309
0.000511309
0.000511309
0.000511309
0.000511309
0.000511309
0.000511309
0.000511309
0.000511309
0.000511309
0.000511309
0.000511309
0.000511309
0.000511309
0.000511309
0.000511309
0.000511309
0.000511309
0.000511309
0.000511309
0.000511309
0.000511309
0.000511309
0.000511309
0.000511309
0.000511309
0.000511309
0.000511309
0.000511309
0.000511309
0.000511309
0.000511309
0.000511309
0.000511309
0.000511309
0.000511309
0.000511309
0.000511309
0.000511309
0.000511309
0.000511309
0.000511309
0.000511309
0.000511309
0.000511309
0.000511309
0.000511309
0.000511309
0.000511309
0.000511309
0.000511309
0.000511309
0.000511309
0.000511309
0.000511309
0.000511309
0.000511309
0.000511309
0.000511309
0.000511309
0.000511309
0.000511309
0.000511309
0.000511309
0.000511309
0.000511309
0.000511309
0.000511309
0.000511309
0.000511309
0.000511309
0.000511309
0.000511309
0.000511309
0.000511309
0.000511309
0.000511309
0.000511309
0.000511309
0.000511309
0.000511309
0.000511309
0.000511309
0.000511309
0.000511309
0.000511309
0.000511309
0.000511309
0.000511309
0.000511309
0.000511309
0.000511309
0.000511309
0.000511309
0.000511309
0.000511309
0.000511309
0.000511309
0.000511309
0.000511309
0.000511309
0.000511309
0.000511309
0.000511309
0.000511309
0.000511309
0.000511309
0.000511309
0.000511309
0.000511309
0.000511309
0.000511309
0.000511309
0.000511309
0.000511309
0.000511309
0.000511309
0.000511309
0.000511309
0.000511309
0.000511309
0.000511309
0.000511309
0.000511309
0.000511309
0.000511309
0.000511309
0.000511309
0.000511309
0.000511309
0.000511309
0.000511309
0.000511309
0.000511309
0.000511309
0.000511309
0.000511309
0.000511309
0.000511309
0.000511309
0.000511309
0.000511309
0.000511309
0.000511309
0.000511309
0.000511309
0.000511309
0.000511309
0.000511309
0.000511309
0.000511309
0.000511309
0.000511309
0.000511309
0.000511309
0.000511309
0.000511309
0.000511309
0.000511309
0.000511309
0.000511309
0.000511309
0.000511309
0.000511309
0.000511309
0.000511309
0.000511309
0.000511309
0.000511309
0.000511309
0.000511309
0.000511309
0.000511309
0.000511309
0.000511309
0.000511309
0.000511309
0.000511309
0.000511309
0.000511309
0.000511309
0.000511309
0.000511309
0.000511309
0.000511309
0.000511309
0.000511309
0.000511309
0.000511309
0.000511309
0.000511309
0.000511309
0.000511309
0.000511309
0.000511309
0.000511309
0.000511309
0.000511309
0.000511309
0.000511309
0.000511309
0.000511309
0.000511309
0.000511309
0.000511309
0.000511309
0.000511309
0.000511309
0.000511309
0.000511309
0.000511309
0.000511309
0.000511309
0.000511309
0.000511309
0.000511309
0.000511309
0.000511309
0.000511309
0.000511309
0.000511309
0.000511309
0.000511309
0.000511309
0.000511309
0.000511309
0.000511309
0.000511309
0.000511309
0.000511309
0.000511309
0.000511309
0.000511309
0.000511309
0.000511309
0.000511309
0.000511309
0.000511309
0.000511309
0.000511309
0.000511309
0.000511309
0.000511309
0.000511309
0.000511309
0.000511309
0.000511309
0.000511309
0.000511309
0.000511309
0.000511309
0.000511309
0.000511309
0.000511309
0.000511309
0.000511309
0.000511309
0.000511309
0.000511309
0.000511309
0.000511309
0.000511309
0.000511309
0.000511309
0.000511309
0.000511309
0.000511309
0.000511309
0.000511309
0.000511309
0.000511309
0.000511309
0.000511309
0.000511309
0.000511309
0.000511309
0.000511309
0.000511309
0.000511309
0.000511309
0.000511309
0.000511309
0.000511309
0.000511309
0.000511309
0.000511309
0.000511309
0.000511309
0.000511309
0.000511309
0.000511309
0.000511309
0.000511309
0.000511309
0.000511309
0.000511309
0.000511309
0.000511309
0.000511309
0.000511309
0.000511309
0.000511309
0.000511309
0.000511309
0.000511309
0.000511309
0.000511309
0.000511309
0.000511309
0.000511309
0.000511309
0.000511309
0.000511309
0.000511309
0.000511309
0.000511309
0.000511309
0.000511309
0.000511309
0.000511309
0.000511309
0.000511309
0.000511309
0.000511309
0.000511309
0.000511309
0.000511309
0.000511309
0.000511309
0.000511309
0.000511309
0.000511309
0.000511309
0.000511309
0.000511309
0.000511309
0.000511309
0.000511309
0.000511309
0.000511309
0.000511309
0.000511309
0.000511309
0.000511309
0.000511309
0.000511309
0.000511309
0.000511309
0.000511309
0.000511309
0.000511309
0.000511309
0.000511309
0.000511309
0.000511309
0.000511309
0.000511309
0.000511309
0.000511309
0.000511309
0.000511309
0.000511309
0.000511309
0.000511309
0.000511309
0.000511309
0.000511309
0.000511309
0.000511309
0.000511309
0.000511309
0.000511309
0.000511309
0.000511309
0.000511309
0.000511309
0.000511309
0.000511309
0.000511309
0.000511309
0.000511309
0.000511309
0.000511309
0.000511309
0.000511309
0.000511309
0.000511309
0.000511309
0.000511309
0.000511309
0.000511309
0.000511309
0.000511309
0.000511309
0.000511309
0.000511309
0.000511309
0.000511309
0.000511309
0.000511309
0.000511309
0.000511309
0.000511309
0.000511309
0.000511309
0.000511309
0.000511309
0.000511309
0.000511309
0.000511309
0.000511309
0.000511309
0.000511309
0.000511309
0.000511309
0.000511309
0.000511309
0.000511309
0.000511309
0.000511309
0.000511309
0.000511309
0.000511309
0.000511309
0.000511309
0.000511309
0.000511309
0.000511309
0.000511309
0.000511309
0.000511309
0.000511309
0.000511309
0.000511309
0.000511309
0.000511309
0.000511309
0.000511309
0.000511309
0.000511309
0.000511309
0.000511309
0.000511309
0.000511309
0.000511309
0.000511309
0.000511309
0.000511309
0.000511309
0.000511309
0.000511309
0.000511309
0.000511309
0.000511309
0.000511309
0.000511309
0.000511309
0.000511309
0.000511309
0.000511309
0.000511309
0.000511309
0.000511309
0.000511309
0.000511309
0.000511309
0.000511309
0.000511309
0.000511309
0.000511309
0.000511309
0.000511309
0.000511309
0.000511309
0.000511309
0.000511309
0.000511309
0.000511309
0.000511309
0.000511309
0.000511309
0.000511309
0.000511309
0.000511309
0.000511309
0.000511309
0.000511309
0.000511309
0.000511309
0.000511309
0.000511309
0.000511309
0.000511309
0.000511309
0.000511309
0.000511309
0.000511309
0.000511309
0.000511309
0.000511309
0.000511309
0.000511309
0.000511309
0.000511309
0.000511309
0.000511309
0.000511309
0.000511309
0.000511309
0.000511309
0.000511309
0.000511309
0.000511309
0.000511309
0.000511309
0.000511309
0.000511309
0.000511309
0.000511309
0.000511309
0.000511309
0.000511309
0.000511309
0.000511309
0.000511309
0.000511309
0.000511309
0.000511309
0.000511309
0.000511309
0.000511309
0.000511309
0.000511309
0.000511309
0.000511309
0.000511309
0.000511309
0.000511309
0.000511309
0.000511309
0.000511309
0.000511309
0.000511309
0.000511309
0.000511309
0.000511309
0.000511309
0.000511309
0.000511309
0.000511309
0.000511309
0.000511309
0.000511309
0.000511309
0.000511309
0.000511309
0.000511309
0.000511309
0.000511309
0.000511309
0.000511309
0.000511309
0.000511309
0.000511309
0.000511309
0.000511309
0.000511309
0.000511309
0.000511309
0.000511309
0.000511309
0.000511309
0.000511309
0.000511309
0.000511309
0.000511309
0.000511309
0.000511309
0.000511309
0.000511309
0.000511309
0.000511309
0.000511309
0.000511309
0.000511309
0.000511309
0.000511309
0.000511309
0.000511309
0.000511309
0.000511309
0.000511309
0.000511309
0.000511309
0.000511309
0.000511309
0.000511309
0.000511309
0.000511309
0.000511309
0.000511309
0.000511309
0.000511309
0.000511309
0.000511309
0.000511309
0.000511309
0.000511309
0.000511309
0.000511309
0.000511309
0.000511309
0.000511309
0.000511309
0.000511309
0.000511309
0.000511309
0.000511309
0.000511309
0.000511309
0.000511309
0.000511309
0.000511309
0.000511309
0.000511309
0.000511309
0.000511309
0.000511309
0.000511309
0.000511309
0.000511309
0.000511309
0.000511309
0.000511309
0.000511309
0.000511309
0.000511309
0.000511309
0.000511309
0.000511309
0.000511309
0.000511309
0.000511309
0.000511309
0.000511309
0.000511309
0.000511309
0.000511309
0.000511309
0.000511309
0.000511309
0.000511309
0.000511309
0.000511309
0.000511309
0.000511309
0.000511309
0.000511309
0.000511309
0.000511309
0.000511309
0.000511309
0.000511309
0.000511309
0.000511309
0.000511309
0.000511309
0.000511309
0.000511309
0.000511309
0.000511309
0.000511309
0.000511309
0.000511309
0.000511309
0.000511309
0.000511309
0.000511309
0.000511309
0.000511309
0.000511309
0.000511309
0.000511309
0.000511309
0.000511309
0.000511309
0.000511309
0.000511309
0.000511309
0.000511309
0.000511309
0.000511309
0.000511309
0.000511309
0.000511309
0.000511309
0.000511309
0.000511309
0.000511309
0.000511309
0.000511309
0.000511309
0.000511309
0.000511309
0.000511309
0.000511309
0.000511309
0.000511309
0.000511309
0.000511309
0.000511309
0.000511309
0.000511309
0.000511309
0.000511309
0.000511309
0.000511309
0.000511309
0.000511309
0.000511309
0.000511309
0.000511309
0.000511309
0.000511309
0.000511309
0.000511309
0.000511309
0.000511309
0.000511309
0.000511309
0.000511309
0.000511309
0.000511309
0.000511309
0.000511309
0.000511309
0.000511309
0.000511309
0.000511309
0.000511309
0.000511309
0.000511309
0.000511309
0.000511309
0.000511309
0.000511309
0.000511309
0.000511309
0.000511309
0.000511309
0.000511309
0.000511309
0.000511309
0.000511309
0.000511309
0.000511309
0.000511309
0.000511309
0.000511309
0.000511309
0.000511309
0.000511309
0.000511309
0.000511309
0.000511309
0.000511309
0.000511309
0.000511309
0.000511309
0.000511309
0.000511309
0.000511309
0.000511309
0.000511309
0.000511309
0.000511309
0.000511309
0.000511309
0.000511309
0.000511309
0.000511309
0.000511309
0.000511309
0.000511309
0.000511309
0.000511309
0.000511309
0.000511309
0.000511309
0.000511309
0.000511309
0.000511309
0.000511309
0.000511309
0.000511309
0.000511309
0.000511309
0.000511309
0.000511309
0.000511309
0.000511309
0.000511309
0.000511309
0.000511309
0.000511309
0.000511309
0.000511309
0.000511309
0.000511309
0.000511309
0.000511309
0.000511309
0.000511309
0.000511309
0.000511309
0.000511309
0.000511309
0.000511309
0.000511309
0.000511309
0.000511309
0.000511309
0.000511309
0.000511309
0.000511309
0.000511309
0.000511309
0.000511309
0.000511309
0.000511309
0.000511309
0.000511309
0.000511309
0.000511309
0.000511309
0.000511309
0.000511309
0.000511309
0.000511309
0.000511309
0.000511309
0.000511309
0.000511309
0.000511309
0.000511309
0.000511309
0.000511309
0.000511309
0.000511309
0.000511309
0.000511309
0.000511309
0.000511309
0.000511309
0.000511309
0.000511309
0.000511309
0.000511309
0.000511309
0.000511309
0.000511309
0.000511309
0.000511309
0.000511309
0.000511309
0.000511309
0.000511309
0.000511309
0.000511309
0.000511309
0.000511309
0.000511309
0.000511309
0.000511309
0.000511309
0.000511309
0.000511309
0.000511309
0.000511309
0.000511309
0.000511309
0.000511309
0.000511309
0.000511309
0.000511309
0.000511309
0.000511309
0.000511309
0.000511309
0.000511309
0.000511309
0.000511309
0.00051131
0.000511309
0.000511309
0.000511309
0.000511309
0.000511309
0.000511309
0.000511309
0.000511309
0.000511309
0.000511309
0.000511309
0.000511309
0.000511309
0.000511309
0.000511309
0.000511309
0.000511309
0.000511309
0.000511309
0.000511309
0.000511309
0.000511309
0.000511309
0.000511309
0.000511309
0.000511309
0.000511309
0.000511309
0.000511309
0.000511309
0.000511309
0.000511309
0.000511309
0.000511309
0.000511309
0.000511309
0.000511309
0.000511309
0.000511309
0.000511309
0.000511309
0.000511309
0.000511309
0.000511309
0.000511309
0.000511309
0.00051131
0.00051131
0.00051131
0.00051131
0.000511309
0.000511309
0.000511309
0.000511309
0.000511309
0.000511309
0.000511309
0.000511309
0.000511309
0.000511309
0.000511309
0.000511309
0.000511309
0.000511309
0.000511309
0.000511309
0.000511309
0.000511309
0.000511309
0.000511309
0.000511309
0.000511309
0.000511309
0.000511309
0.000511309
0.000511309
0.000511309
0.000511309
0.000511309
0.000511309
0.000511309
0.000511309
0.000511309
0.000511309
0.000511309
0.000511309
0.000511309
0.000511309
0.000511309
0.000511309
0.000511309
0.000511309
0.000511309
0.00051131
0.00051131
0.00051131
0.00051131
0.00051131
0.000511311
0.000511312
0.000511309
0.000511309
0.000511309
0.000511309
0.000511309
0.000511309
0.000511309
0.000511309
0.000511309
0.000511309
0.000511309
0.000511309
0.000511309
0.000511309
0.000511309
0.000511309
0.000511309
0.000511309
0.000511309
0.000511309
0.000511309
0.000511309
0.000511309
0.000511309
0.000511309
0.000511309
0.000511309
0.000511309
0.000511309
0.000511309
0.000511309
0.000511309
0.000511309
0.000511309
0.000511309
0.000511309
0.000511309
0.000511309
0.000511309
0.000511309
0.00051131
0.00051131
0.00051131
0.00051131
0.00051131
0.000511311
0.000511312
0.000511313
0.000511314
0.000511317
0.000511309
0.000511309
0.000511309
0.000511309
0.000511309
0.000511309
0.000511309
0.000511309
0.000511309
0.000511309
0.000511309
0.000511309
0.000511309
0.000511309
0.000511309
0.000511309
0.000511309
0.000511309
0.000511309
0.000511309
0.000511309
0.000511309
0.000511309
0.000511309
0.000511309
0.000511309
0.000511309
0.000511309
0.000511309
0.000511309
0.000511309
0.000511309
0.000511309
0.000511309
0.000511309
0.000511309
0.000511309
0.00051131
0.00051131
0.00051131
0.00051131
0.00051131
0.000511311
0.000511312
0.000511313
0.000511315
0.000511317
0.000511321
0.000511328
0.000511338
0.000511309
0.000511309
0.000511309
0.000511309
0.000511309
0.000511309
0.000511309
0.000511309
0.000511309
0.000511309
0.000511309
0.000511309
0.000511309
0.000511309
0.000511309
0.000511309
0.000511309
0.000511309
0.000511309
0.000511309
0.000511309
0.000511309
0.000511309
0.000511309
0.000511309
0.000511309
0.000511309
0.000511309
0.000511309
0.000511309
0.000511309
0.000511309
0.000511309
0.000511309
0.00051131
0.00051131
0.00051131
0.00051131
0.00051131
0.000511311
0.000511312
0.000511313
0.000511315
0.000511317
0.000511321
0.000511328
0.000511337
0.000511351
0.000511373
0.000511408
0.000511309
0.000511309
0.000511309
0.000511309
0.000511309
0.000511309
0.000511309
0.000511309
0.000511309
0.000511309
0.000511309
0.000511309
0.000511309
0.000511309
0.000511309
0.000511309
0.000511309
0.000511309
0.000511309
0.000511309
0.000511309
0.000511309
0.000511309
0.000511309
0.000511309
0.000511309
0.000511309
0.000511309
0.000511309
0.000511309
0.00051131
0.00051131
0.00051131
0.00051131
0.00051131
0.000511311
0.000511311
0.000511312
0.000511313
0.000511315
0.000511318
0.000511322
0.000511328
0.000511337
0.000511351
0.000511372
0.000511404
0.000511452
0.000511524
0.000511642
0.000511309
0.000511309
0.000511309
0.000511309
0.000511309
0.000511309
0.000511309
0.000511309
0.000511309
0.000511309
0.000511309
0.000511309
0.000511309
0.000511309
0.000511309
0.000511309
0.000511309
0.000511309
0.000511309
0.000511309
0.000511309
0.000511309
0.000511309
0.000511309
0.000511309
0.000511309
0.000511309
0.00051131
0.00051131
0.00051131
0.00051131
0.00051131
0.000511311
0.000511311
0.000511312
0.000511313
0.000511315
0.000511318
0.000511323
0.000511329
0.000511338
0.000511352
0.000511373
0.000511405
0.000511451
0.000511521
0.000511626
0.000511783
0.00051202
0.000512402
0.000511309
0.000511309
0.000511309
0.000511309
0.000511309
0.000511309
0.000511309
0.000511309
0.000511309
0.000511309
0.000511309
0.000511309
0.000511309
0.000511309
0.000511309
0.000511309
0.000511309
0.000511309
0.000511309
0.000511309
0.000511309
0.000511309
0.000511309
0.00051131
0.00051131
0.00051131
0.00051131
0.00051131
0.00051131
0.000511311
0.000511312
0.000511312
0.000511314
0.000511316
0.000511319
0.000511324
0.00051133
0.00051134
0.000511354
0.000511376
0.000511407
0.000511454
0.000511523
0.000511626
0.000511778
0.000512005
0.000512344
0.000512847
0.000513594
0.000514783
0.000511309
0.000511309
0.000511309
0.000511309
0.000511309
0.000511309
0.000511309
0.000511309
0.000511309
0.000511309
0.000511309
0.000511309
0.000511309
0.000511309
0.000511309
0.000511309
0.000511309
0.000511309
0.000511309
0.000511309
0.00051131
0.00051131
0.00051131
0.00051131
0.00051131
0.000511311
0.000511311
0.000511312
0.000511313
0.000511314
0.000511317
0.00051132
0.000511325
0.000511332
0.000511342
0.000511357
0.000511379
0.000511412
0.000511459
0.000511529
0.000511631
0.000511783
0.000512005
0.000512334
0.000512819
0.000513533
0.000514582
0.000516119
0.000518352
0.000521789
0.000511309
0.000511309
0.000511309
0.000511309
0.000511309
0.000511309
0.000511309
0.000511309
0.000511309
0.000511309
0.000511309
0.000511309
0.000511309
0.000511309
0.000511309
0.000511309
0.00051131
0.00051131
0.00051131
0.00051131
0.00051131
0.00051131
0.000511311
0.000511311
0.000511312
0.000511313
0.000511315
0.000511318
0.000511321
0.000511327
0.000511334
0.000511345
0.000511361
0.000511384
0.000511418
0.000511467
0.000511539
0.000511643
0.000511795
0.000512018
0.000512344
0.00051282
0.000513514
0.000514526
0.000515994
0.000518112
0.000521145
0.000525444
0.000531419
0.000540138
0.000511309
0.000511309
0.000511309
0.000511309
0.000511309
0.000511309
0.000511309
0.000511309
0.000511309
0.000511309
0.000511309
0.000511309
0.00051131
0.00051131
0.00051131
0.00051131
0.00051131
0.00051131
0.000511311
0.000511311
0.000511312
0.000511313
0.000511314
0.000511316
0.000511319
0.000511323
0.000511329
0.000511337
0.000511349
0.000511367
0.000511391
0.000511427
0.000511479
0.000511554
0.000511662
0.000511818
0.000512045
0.000512373
0.000512848
0.000513536
0.000514529
0.000515958
0.000518002
0.000520905
0.000524982
0.000530631
0.000538333
0.0005487
0.000562253
0.000580905
0.000511309
0.000511309
0.000511309
0.000511309
0.000511309
0.000511309
0.000511309
0.000511309
0.00051131
0.00051131
0.00051131
0.00051131
0.00051131
0.00051131
0.00051131
0.000511311
0.000511311
0.000511312
0.000511313
0.000511315
0.000511317
0.000511321
0.000511325
0.000511332
0.000511341
0.000511355
0.000511374
0.000511401
0.000511439
0.000511495
0.000511574
0.000511688
0.000511851
0.000512085
0.000512422
0.000512905
0.000513598
0.00051459
0.000516004
0.000518009
0.000520832
0.000524766
0.000530174
0.000537495
0.00054725
0.000560037
0.000576488
0.000597385
0.000623437
0.000658138
0.000511309
0.000511309
0.000511309
0.000511309
0.000511309
0.00051131
0.00051131
0.00051131
0.00051131
0.00051131
0.00051131
0.000511311
0.000511311
0.000511312
0.000511313
0.000511314
0.000511316
0.000511319
0.000511323
0.000511328
0.000511336
0.000511347
0.000511362
0.000511383
0.000511413
0.000511455
0.000511516
0.000511601
0.000511723
0.000511897
0.000512143
0.000512494
0.000512993
0.000513703
0.00051471
0.000516133
0.000518132
0.000520921
0.000524774
0.000530028
0.000537085
0.000546419
0.000558573
0.000574139
0.000593748
0.000618223
0.000648663
0.000686441
0.000731772
0.000792465
0.00051131
0.00051131
0.00051131
0.00051131
0.00051131
0.00051131
0.00051131
0.000511311
0.000511311
0.000511312
0.000511313
0.000511314
0.000511316
0.000511318
0.000511321
0.000511326
0.000511332
0.000511341
0.000511353
0.000511371
0.000511395
0.000511429
0.000511476
0.000511543
0.000511637
0.00051177
0.000511957
0.000512221
0.000512593
0.000513118
0.000513857
0.000514896
0.00051635
0.000518374
0.000521171
0.000525
0.000530176
0.00053707
0.000546113
0.000557799
0.000572677
0.000591311
0.000614399
0.000642915
0.000678048
0.000720818
0.000772831
0.000838368
0.000921802
0.00103866
0.00051131
0.00051131
0.00051131
0.00051131
0.000511311
0.000511311
0.000511312
0.000511313
0.000511314
0.000511315
0.000511317
0.00051132
0.000511324
0.00051133
0.000511337
0.000511348
0.000511362
0.000511383
0.00051141
0.000511449
0.000511503
0.000511579
0.000511684
0.000511831
0.000512036
0.000512323
0.000512724
0.000513284
0.000514067
0.000515155
0.000516665
0.000518746
0.000521594
0.000525453
0.000530621
0.000537442
0.000546309
0.000557675
0.000572041
0.000589935
0.000611959
0.000638938
0.00067204
0.000712234
0.000760756
0.000820375
0.000896348
0.000994603
0.00111977
0.00126819
0.001444
0.000511311
0.000511311
0.000511312
0.000511312
0.000511314
0.000511315
0.000511317
0.00051132
0.000511323
0.000511328
0.000511335
0.000511344
0.000511357
0.000511374
0.000511398
0.000511431
0.000511476
0.000511539
0.000511625
0.000511744
0.000511909
0.000512138
0.000512455
0.000512895
0.000513503
0.000514343
0.000515502
0.000517093
0.000519264
0.000522204
0.000526146
0.000531372
0.000538204
0.000547
0.000558176
0.000572191
0.000589541
0.000610749
0.000636537
0.000667933
0.000706001
0.00075172
0.000807057
0.000876271
0.000965121
0.0010784
0.00121724
0.00137662
0.00154662
0.00171017
0.00186199
0.000511313
0.000511314
0.000511315
0.000511317
0.000511319
0.000511323
0.000511327
0.000511334
0.000511342
0.000511353
0.000511369
0.00051139
0.000511419
0.000511458
0.000511512
0.000511585
0.000511685
0.000511823
0.000512012
0.000512271
0.000512627
0.000513116
0.000513786
0.000514703
0.000515955
0.000517656
0.000519952
0.000523027
0.000527107
0.000532457
0.000539378
0.000548201
0.000559305
0.000573111
0.000590084
0.00061069
0.000635563
0.000665607
0.000701934
0.000745406
0.000797484
0.000861473
0.000942616
0.00104603
0.00117415
0.00132454
0.00148879
0.00165445
0.00180748
0.00193793
0.00203867
0.00211195
0.00051132
0.000511323
0.000511327
0.000511333
0.000511341
0.000511352
0.000511366
0.000511385
0.000511411
0.000511447
0.000511494
0.000511558
0.000511646
0.000511764
0.000511926
0.000512145
0.000512443
0.000512849
0.000513401
0.00051415
0.000515165
0.000516536
0.00051838
0.000520841
0.000524099
0.00052837
0.000533909
0.000540996
0.000549936
0.000561074
0.0005748
0.000591542
0.000611738
0.000635944
0.000664957
0.000699883
0.000741552
0.000791099
0.000851064
0.000926066
0.00102122
0.00113978
0.00128102
0.00143886
0.00160248
0.00175898
0.00189654
0.00200828
0.00209129
0.00214759
0.00218106
0.00219756
0.000511341
0.000511352
0.000511365
0.000511384
0.000511408
0.00051144
0.000511484
0.000511543
0.000511621
0.000511727
0.000511869
0.000512061
0.000512319
0.000512667
0.000513137
0.000513769
0.000514618
0.000515757
0.00051728
0.000519303
0.000521972
0.000525464
0.000529985
0.000535779
0.000543106
0.000552249
0.000563521
0.000577284
0.000593935
0.000613889
0.000637634
0.000665898
0.000699696
0.000739924
0.000787498
0.000844388
0.000914572
0.00100295
0.00111324
0.00124591
0.00139676
0.00155672
0.00171403
0.00185687
0.00197678
0.00206949
0.00213542
0.00217743
0.00220078
0.00221007
0.00221065
0.00221046
0.000511408
0.000511439
0.00051148
0.000511535
0.000511609
0.000511706
0.000511836
0.000512009
0.00051224
0.000512549
0.000512961
0.000513512
0.000514246
0.000515222
0.000516517
0.000518228
0.000520474
0.000523401
0.000527181
0.000532014
0.000538129
0.00054577
0.000555198
0.000566697
0.000580604
0.000597291
0.00061715
0.000640619
0.000668365
0.000701326
0.000740441
0.00078649
0.000841062
0.000907512
0.000990445
0.00109376
0.00121873
0.00136258
0.00151792
0.00167418
0.00181995
0.00194585
0.00204684
0.00212158
0.00217196
0.0022015
0.00221661
0.00221987
0.00221959
0.00221925
0.00221566
0.00220652
0.000511606
0.000511699
0.000511821
0.000511983
0.000512197
0.000512479
0.000512854
0.000513349
0.000514003
0.000514866
0.000516001
0.00051749
0.000519433
0.000521953
0.000525193
0.000529321
0.000534531
0.000541036
0.000549065
0.000558855
0.000570669
0.000584821
0.000601662
0.000621562
0.000644922
0.000672359
0.00070475
0.00074305
0.000787953
0.000840782
0.000904388
0.000983031
0.00108062
0.00119891
0.00133616
0.00148643
0.00164032
0.00178711
0.0019172
0.00202462
0.00210669
0.00216453
0.00220107
0.00222136
0.00222865
0.00222881
0.00222906
0.0022271
0.00222073
0.00221005
0.00219555
0.0021774
0.000512184
0.000512452
0.000512802
0.000513262
0.000513864
0.000514651
0.000515677
0.000517012
0.000518742
0.000520971
0.000523821
0.000527436
0.000531978
0.00053763
0.000544596
0.000553084
0.000563313
0.000575525
0.000590017
0.00060712
0.000627188
0.00065059
0.000677909
0.000709971
0.000747729
0.000791819
0.000843378
0.000904871
0.000980222
0.00107323
0.0011859
0.00131721
0.00146234
0.00161302
0.00175936
0.00189191
0.0020039
0.00209206
0.00215654
0.00219946
0.00222436
0.00223632
0.0022384
0.0022382
0.00223763
0.00223359
0.00222504
0.00221249
0.00219709
0.00217891
0.00215967
0.00213893
0.000513812
0.000514552
0.000515508
0.000516741
0.000518325
0.00052035
0.000522925
0.000526171
0.000530227
0.000535251
0.000541417
0.000548914
0.000557931
0.000568671
0.000581359
0.000596281
0.000613753
0.000634108
0.000657694
0.000685071
0.000717031
0.000754506
0.000798085
0.000848778
0.000908774
0.00098169
0.00107114
0.00117923
0.00130536
0.00144557
0.00159263
0.00173743
0.00187087
0.00198583
0.00207875
0.00214861
0.0021969
0.00222674
0.00224296
0.00224771
0.00224769
0.00224787
0.00224534
0.00223836
0.00222807
0.00221431
0.00219801
0.00217966
0.00216065
0.00214103
0.00212146
0.00210084
0.000520036
0.000522424
0.000525415
0.000529128
0.000533699
0.000539276
0.000546027
0.000554123
0.000563739
0.000575058
0.000588299
0.000603739
0.00062168
0.000642436
0.000666341
0.000693945
0.000726016
0.000763454
0.000806801
0.000856986
0.000916014
0.000987247
0.00107408
0.00117854
0.0013003
0.001436
0.00157926
0.00172174
0.00185479
0.00197145
0.00206756
0.00214154
0.00219437
0.0022289
0.00224843
0.00225634
0.00225732
0.00225758
0.00225627
0.00225131
0.00224259
0.00223052
0.00221602
0.0021989
0.0021806
0.00216184
0.00214266
0.00212338
0.00210397
0.00208486
0.00206482
0.000532826
0.000537983
0.000544186
0.00055159
0.000560352
0.00057063
0.000582596
0.000596465
0.000612511
0.00063102
0.00065229
0.000676647
0.000704646
0.000737038
0.000774676
0.000818056
0.000868065
0.000926603
0.000996819
0.00108185
0.00118359
0.00130178
0.00143347
0.00157294
0.00171256
0.00184427
0.0019613
0.00205921
0.00213612
0.00219275
0.00223087
0.00225354
0.0022646
0.0022671
0.00226703
0.00226675
0.00226333
0.00225586
0.00224563
0.00223253
0.00221696
0.00219967
0.0021818
0.00216333
0.00214455
0.00212569
0.0021068
0.00208795