/*--------------------------------*- C++ -*----------------------------------*\
| =========                 |                                                 |
| \\      /  F ield         | OpenFOAM: The Open Source CFD Toolbox           |
|  \\    /   O peration     | Version:  v1706                                 |
|   \\  /    A nd           | Web:      www.OpenFOAM.com                      |
|    \\/     M anipulation  |                                                 |
\*---------------------------------------------------------------------------*/
FoamFile
{
    version     2.0;
    format      ascii;
    class       volVectorField;
    location    "3.8e-05";
    object      U;
}
// * * * * * * * * * * * * * * * * * * * * * * * * * * * * * * * * * * * * * //

dimensions      [0 1 -1 0 0 0 0];


internalField   nonuniform List<vector> 
30038
(
(1760 -5.86735e-11 7.70674e-15)
(1760 -6.08051e-11 1.63886e-15)
(1760 -6.14984e-11 8.79728e-15)
(1760 -6.22772e-11 2.90518e-15)
(1760 -6.30812e-11 4.30562e-15)
(1760 -6.44905e-11 3.46202e-15)
(1760 -6.42528e-11 7.59358e-15)
(1760 -6.67357e-11 1.00243e-14)
(1760 -6.77845e-11 5.69529e-15)
(1760 -6.82525e-11 3.69547e-15)
(1760 -6.9192e-11 1.06705e-14)
(1760 -7.14e-11 8.19458e-15)
(1760 -7.4823e-11 5.62296e-15)
(1760 -7.59905e-11 2.5114e-15)
(1760 -7.71355e-11 6.55364e-15)
(1760 -7.70462e-11 9.52245e-15)
(1760 -7.73713e-11 6.59088e-15)
(1760 -7.89093e-11 2.93213e-15)
(1760 -7.90752e-11 3.17313e-15)
(1760 -8.08173e-11 7.67654e-15)
(1760 -8.19887e-11 8.57905e-15)
(1760 -8.27509e-11 7.30822e-15)
(1760 -8.48376e-11 1.79456e-16)
(1760 -8.51366e-11 8.30989e-15)
(1760 -8.67411e-11 6.51559e-15)
(1760 -8.75954e-11 2.30401e-15)
(1760 -8.93726e-11 1.81783e-15)
(1760 -8.96211e-11 6.76335e-15)
(1760 -9.42834e-11 1.00582e-14)
(1760 -9.73223e-11 8.6273e-15)
(1760 -9.88287e-11 5.59204e-15)
(1760 -9.98437e-11 9.78739e-15)
(1760 -1.03915e-10 7.21079e-15)
(1760 -1.08432e-10 5.56752e-15)
(1760 -1.10806e-10 1.07553e-14)
(1760 -1.12309e-10 7.99827e-15)
(1760 -1.1562e-10 1.57501e-15)
(1760 -1.21438e-10 5.42704e-15)
(1760 -1.69831e-10 1.87872e-14)
(1760 -1.72969e-10 2.01088e-14)
(1760 -1.75558e-10 2.09935e-14)
(1760 -1.79806e-10 1.78035e-14)
(1760 -1.80929e-10 2.39319e-14)
(1760 -1.85144e-10 2.13118e-14)
(1760 -1.87845e-10 2.26976e-14)
(1760 -1.899e-10 2.31986e-14)
(1760 -1.94149e-10 1.68554e-14)
(1760 -1.98032e-10 2.08852e-14)
(1760 -2.00025e-10 2.28266e-14)
(1760 -1.99385e-10 1.42976e-14)
(1760 -2.02583e-10 1.78912e-14)
(1760 -2.0769e-10 1.97031e-14)
(1760 -2.12759e-10 2.09196e-14)
(1760 -2.18475e-10 1.99873e-14)
(1760 -2.20183e-10 1.94427e-14)
(1760 -2.23829e-10 1.86617e-14)
(1760 -2.27372e-10 1.65658e-14)
(1760 -2.30155e-10 1.86846e-14)
(1760 -2.36948e-10 1.80805e-14)
(1760 -2.40563e-10 2.03192e-14)
(1760 -2.44607e-10 2.10206e-14)
(1760 -2.48716e-10 2.00815e-14)
(1760 -2.53159e-10 1.75573e-14)
(1760 -2.56301e-10 1.81028e-14)
(1760 -2.6182e-10 1.91222e-14)
(1760 -2.64755e-10 1.68328e-14)
(1760 -2.67435e-10 2.05306e-14)
(1760 -2.72888e-10 2.15659e-14)
(1760 -2.80511e-10 1.26523e-14)
(1760 -2.86902e-10 2.49929e-14)
(1760 -2.89984e-10 2.79389e-14)
(1760 -2.93867e-10 2.15435e-14)
(1760 -3.05027e-10 2.38854e-14)
(1760 -3.07268e-10 1.75359e-14)
(1760 -3.1829e-10 1.8484e-14)
(1760 -3.28174e-10 2.06168e-14)
(1760 -2.78316e-10 3.21716e-14)
(1760 -2.82108e-10 3.44974e-14)
(1760 -2.85513e-10 3.28646e-14)
(1760 -2.89824e-10 2.98118e-14)
(1760 -2.93866e-10 3.26251e-14)
(1760 -2.98006e-10 3.4929e-14)
(1760 -3.02188e-10 3.52382e-14)
(1760 -3.06842e-10 2.76354e-14)
(1760 -3.11554e-10 2.76951e-14)
(1760 -3.18139e-10 2.92577e-14)
(1760 -3.22895e-10 2.77175e-14)
(1760 -3.27106e-10 2.98133e-14)
(1760 -3.30513e-10 3.16545e-14)
(1760 -3.34919e-10 3.24121e-14)
(1760 -3.3971e-10 3.12313e-14)
(1760 -3.46534e-10 3.44224e-14)
(1760 -3.52353e-10 3.36174e-14)
(1760 -3.57943e-10 3.25685e-14)
(1760 -3.63353e-10 3.17421e-14)
(1760 -3.68242e-10 3.15985e-14)
(1760 -3.76304e-10 2.9369e-14)
(1760 -3.8362e-10 3.24848e-14)
(1760 -3.91155e-10 2.86285e-14)
(1760 -3.98618e-10 2.81975e-14)
(1760 -4.06417e-10 3.34941e-14)
(1760 -4.12824e-10 3.38748e-14)
(1760 -4.19563e-10 3.00274e-14)
(1760 -4.25642e-10 2.61622e-14)
(1760 -4.3082e-10 3.03969e-14)
(1760 -4.37452e-10 3.27399e-14)
(1760 -4.46222e-10 3.16265e-14)
(1760 -4.55159e-10 3.48924e-14)
(1760 -4.63237e-10 3.28683e-14)
(1760 -4.67909e-10 3.28237e-14)
(1760 -4.79711e-10 3.46269e-14)
(1760 -4.85462e-10 3.62784e-14)
(1760 -5.00523e-10 3.02183e-14)
(1760 -5.14048e-10 3.25892e-14)
(1760 -3.8227e-10 4.55332e-14)
(1760 -3.86792e-10 4.48926e-14)
(1760 -3.92273e-10 4.46853e-14)
(1760 -3.98192e-10 4.15753e-14)
(1760 -4.03392e-10 4.69294e-14)
(1760 -4.08634e-10 4.33044e-14)
(1760 -4.12727e-10 4.12454e-14)
(1760 -4.17693e-10 4.13293e-14)
(1760 -4.21827e-10 4.39223e-14)
(1760 -4.30196e-10 4.13363e-14)
(1760 -4.38276e-10 4.55401e-14)
(1760 -4.44142e-10 4.46251e-14)
(1760 -4.49298e-10 4.67214e-14)
(1760 -4.55558e-10 4.06928e-14)
(1760 -4.62773e-10 4.00152e-14)
(1760 -4.71368e-10 4.10981e-14)
(1760 -4.79091e-10 3.81079e-14)
(1760 -4.87025e-10 4.34058e-14)
(1760 -4.93798e-10 4.56465e-14)
(1760 -4.99652e-10 4.24925e-14)
(1760 -5.08275e-10 4.20178e-14)
(1760 -5.18587e-10 4.07068e-14)
(1760 -5.2767e-10 4.41416e-14)
(1760 -5.36185e-10 4.71578e-14)
(1760 -5.45865e-10 4.43388e-14)
(1760 -5.55357e-10 4.52097e-14)
(1760 -5.6633e-10 4.47546e-14)
(1760 -5.76381e-10 4.24016e-14)
(1760 -5.85515e-10 4.43898e-14)
(1760 -5.93648e-10 4.75522e-14)
(1760 -6.02125e-10 4.51643e-14)
(1760 -6.12611e-10 4.70728e-14)
(1760 -6.24559e-10 4.59214e-14)
(1760 -6.33702e-10 4.38967e-14)
(1760 -6.46482e-10 4.73498e-14)
(1760 -6.54292e-10 5.06107e-14)
(1760 -6.70012e-10 4.87448e-14)
(1760 -6.85658e-10 4.96419e-14)
(1760 -4.77766e-10 5.48215e-14)
(1760 -4.83341e-10 5.62812e-14)
(1760 -4.90715e-10 5.81751e-14)
(1760 -4.98307e-10 5.67795e-14)
(1760 -5.06126e-10 5.47213e-14)
(1760 -5.14538e-10 5.45857e-14)
(1760 -5.21892e-10 5.72428e-14)
(1760 -5.28691e-10 5.78926e-14)
(1760 -5.3312e-10 5.88762e-14)
(1760 -5.39285e-10 5.82331e-14)
(1760 -5.47116e-10 5.71191e-14)
(1760 -5.54877e-10 5.58244e-14)
(1760 -5.6322e-10 5.46341e-14)
(1760 -5.70488e-10 5.08348e-14)
(1760 -5.78522e-10 5.33558e-14)
(1760 -5.87901e-10 5.69124e-14)
(1760 -5.98947e-10 6.10098e-14)
(1760 -6.09474e-10 5.88672e-14)
(1760 -6.18429e-10 5.4283e-14)
(1760 -6.25866e-10 5.93401e-14)
(1760 -6.33896e-10 5.52273e-14)
(1760 -6.44729e-10 5.0263e-14)
(1760 -6.55213e-10 5.91987e-14)
(1760 -6.6623e-10 5.78121e-14)
(1760 -6.78079e-10 5.94109e-14)
(1760 -6.88661e-10 6.10237e-14)
(1760 -7.00022e-10 6.20408e-14)
(1760 -7.12739e-10 5.34046e-14)
(1760 -7.24921e-10 5.00781e-14)
(1760 -7.36718e-10 5.01622e-14)
(1760 -7.48148e-10 5.56591e-14)
(1760 -7.5904e-10 6.36483e-14)
(1760 -7.71952e-10 6.07752e-14)
(1760 -7.83177e-10 5.80289e-14)
(1760 -7.96744e-10 5.82922e-14)
(1760 -8.0796e-10 5.94113e-14)
(1760 -8.2384e-10 6.22663e-14)
(1760 -8.42691e-10 6.29156e-14)
(1760 -5.75242e-10 7.08934e-14)
(1760 -5.79401e-10 7.128e-14)
(1760 -5.86222e-10 6.71936e-14)
(1760 -5.93635e-10 6.12971e-14)
(1760 -6.01804e-10 6.32867e-14)
(1760 -6.10763e-10 6.69741e-14)
(1760 -6.19803e-10 6.23027e-14)
(1760 -6.28472e-10 7.27389e-14)
(1760 -6.35104e-10 7.5928e-14)
(1760 -6.41781e-10 7.06027e-14)
(1760 -6.51017e-10 7.01284e-14)
(1760 -6.59475e-10 6.89803e-14)
(1760 -6.68478e-10 6.78419e-14)
(1760 -6.76628e-10 6.85557e-14)
(1760 -6.86681e-10 6.84537e-14)
(1760 -6.95988e-10 6.85702e-14)
(1760 -7.07803e-10 7.36037e-14)
(1760 -7.20531e-10 7.09147e-14)
(1760 -7.32604e-10 6.59444e-14)
(1760 -7.44529e-10 7.03364e-14)
(1760 -7.55083e-10 7.05981e-14)
(1760 -7.66344e-10 7.37508e-14)
(1760 -7.77503e-10 7.28637e-14)
(1760 -7.89655e-10 6.86224e-14)
(1760 -8.03102e-10 6.625e-14)
(1760 -8.16205e-10 7.04502e-14)
(1760 -8.27446e-10 7.66573e-14)
(1760 -8.40859e-10 6.7737e-14)
(1760 -8.54165e-10 7.24923e-14)
(1760 -8.67149e-10 7.25684e-14)
(1760 -8.81221e-10 6.80839e-14)
(1760 -8.94495e-10 6.99286e-14)
(1760 -9.08793e-10 7.03921e-14)
(1760 -9.2181e-10 7.51797e-14)
(1760 -9.36748e-10 7.50067e-14)
(1760 -9.48395e-10 6.7801e-14)
(1760 -9.64913e-10 6.90309e-14)
(1760 -9.86173e-10 7.3116e-14)
(1760 -6.70376e-10 7.94612e-14)
(1760 -6.7416e-10 7.6173e-14)
(1760 -6.80859e-10 8.05283e-14)
(1760 -6.8923e-10 8.31901e-14)
(1760 -6.97733e-10 8.11356e-14)
(1760 -7.05785e-10 7.8854e-14)
(1760 -7.13369e-10 8.06378e-14)
(1760 -7.2446e-10 8.55752e-14)
(1760 -7.34153e-10 7.71752e-14)
(1760 -7.43138e-10 8.23243e-14)
(1760 -7.52234e-10 8.36678e-14)
(1760 -7.62643e-10 8.10453e-14)
(1760 -7.7288e-10 8.05254e-14)
(1760 -7.81163e-10 7.82979e-14)
(1760 -7.90682e-10 7.72552e-14)
(1760 -7.99836e-10 8.15467e-14)
(1760 -8.09127e-10 8.13997e-14)
(1760 -8.22954e-10 8.63119e-14)
(1760 -8.36766e-10 8.22284e-14)
(1760 -8.51626e-10 8.48097e-14)
(1760 -8.66086e-10 8.33842e-14)
(1760 -8.79506e-10 8.18554e-14)
(1760 -8.91442e-10 8.14057e-14)
(1760 -9.03997e-10 8.44204e-14)
(1760 -9.17685e-10 8.14641e-14)
(1760 -9.32415e-10 8.39242e-14)
(1760 -9.45393e-10 8.69906e-14)
(1760 -9.58023e-10 7.73202e-14)
(1760 -9.723e-10 7.7307e-14)
(1760 -9.87273e-10 8.12805e-14)
(1760 -1.0033e-09 8.17526e-14)
(1760 -1.01829e-09 8.11305e-14)
(1760 -1.03555e-09 8.4028e-14)
(1760 -1.05066e-09 8.67861e-14)
(1760 -1.06944e-09 8.97251e-14)
(1760 -1.08424e-09 8.54386e-14)
(1760 -1.10274e-09 8.52999e-14)
(1760 -1.12445e-09 8.78403e-14)
(1760 -7.61752e-10 9.37864e-14)
(1760 -7.63922e-10 9.34156e-14)
(1760 -7.70799e-10 9.45358e-14)
(1760 -7.80516e-10 9.79215e-14)
(1760 -7.9018e-10 9.5988e-14)
(1760 -7.99657e-10 9.04779e-14)
(1760 -8.06832e-10 9.18966e-14)
(1760 -8.16895e-10 9.41906e-14)
(1760 -8.27479e-10 9.7104e-14)
(1760 -8.39111e-10 9.592e-14)
(1760 -8.49532e-10 9.23433e-14)
(1760 -8.60095e-10 9.36465e-14)
(1760 -8.7258e-10 9.11581e-14)
(1760 -8.8348e-10 9.34125e-14)
(1760 -8.9397e-10 9.22178e-14)
(1760 -9.04104e-10 9.64735e-14)
(1760 -9.13913e-10 9.91018e-14)
(1760 -9.2467e-10 9.72699e-14)
(1760 -9.36631e-10 9.55948e-14)
(1760 -9.5093e-10 9.71482e-14)
(1760 -9.67138e-10 9.21256e-14)
(1760 -9.82736e-10 9.73537e-14)
(1760 -9.97369e-10 9.30245e-14)
(1760 -1.01207e-09 9.26051e-14)
(1760 -1.0251e-09 8.99285e-14)
(1760 -1.04067e-09 9.69303e-14)
(1760 -1.05697e-09 9.43417e-14)
(1760 -1.07118e-09 9.24747e-14)
(1760 -1.0858e-09 9.74344e-14)
(1760 -1.1011e-09 9.8858e-14)
(1760 -1.11804e-09 1.00458e-13)
(1760 -1.13348e-09 9.91496e-14)
(1760 -1.15216e-09 1.00688e-13)
(1760 -1.17137e-09 9.65585e-14)
(1760 -1.19243e-09 9.7912e-14)
(1760 -1.20982e-09 1.04555e-13)
(1760 -1.23339e-09 9.94641e-14)
(1760 -1.25832e-09 9.51141e-14)
(1760 -8.45867e-10 1.08568e-13)
(1760 -8.54961e-10 1.07896e-13)
(1760 -8.59009e-10 1.12278e-13)
(1760 -8.6397e-10 1.09997e-13)
(1760 -8.71347e-10 1.08433e-13)
(1760 -8.80257e-10 1.08803e-13)
(1760 -8.90357e-10 1.12589e-13)
(1760 -8.99319e-10 1.08497e-13)
(1760 -9.09603e-10 1.0905e-13)
(1760 -9.20081e-10 1.06919e-13)
(1760 -9.31337e-10 1.01425e-13)
(1760 -9.43393e-10 1.09159e-13)
(1760 -9.53317e-10 1.00708e-13)
(1760 -9.65777e-10 1.08259e-13)
(1760 -9.79169e-10 1.09275e-13)
(1760 -9.92088e-10 1.10808e-13)
(1760 -1.00329e-09 1.09939e-13)
(1760 -1.01411e-09 1.05104e-13)
(1760 -1.02605e-09 1.04382e-13)
(1760 -1.03698e-09 1.06408e-13)
(1760 -1.04872e-09 1.06501e-13)
(1760 -1.06229e-09 1.06623e-13)
(1760 -1.07789e-09 1.04587e-13)
(1760 -1.09352e-09 1.02853e-13)
(1760 -1.11081e-09 1.06609e-13)
(1760 -1.12766e-09 1.08207e-13)
(1760 -1.14367e-09 1.10785e-13)
(1760 -1.16141e-09 1.06804e-13)
(1760 -1.17862e-09 1.08403e-13)
(1760 -1.19519e-09 1.08069e-13)
(1760 -1.21116e-09 1.10142e-13)
(1760 -1.22883e-09 1.10288e-13)
(1760 -1.2462e-09 1.11757e-13)
(1760 -1.26328e-09 1.10018e-13)
(1760 -1.28096e-09 1.15346e-13)
(1760 -1.30315e-09 1.15178e-13)
(1760 -1.32181e-09 1.11407e-13)
(1760 -1.34804e-09 1.09135e-13)
(1760 -1.37735e-09 1.07877e-13)
(1760 -9.30382e-10 1.21625e-13)
(1760 -9.39234e-10 1.1761e-13)
(1760 -9.47123e-10 1.18739e-13)
(1760 -9.54495e-10 1.23369e-13)
(1760 -9.62203e-10 1.22679e-13)
(1760 -9.71283e-10 1.24166e-13)
(1760 -9.7916e-10 1.23923e-13)
(1760 -9.87482e-10 1.1742e-13)
(1760 -9.97424e-10 1.16523e-13)
(1760 -1.00815e-09 1.14074e-13)
(1760 -1.01841e-09 1.19448e-13)
(1760 -1.03039e-09 1.15946e-13)
(1760 -1.04185e-09 1.133e-13)
(1760 -1.05408e-09 1.22256e-13)
(1760 -1.06748e-09 1.20264e-13)
(1760 -1.08189e-09 1.20275e-13)
(1760 -1.09604e-09 1.15088e-13)
(1760 -1.10685e-09 1.2096e-13)
(1760 -1.11906e-09 1.19533e-13)
(1760 -1.13191e-09 1.20654e-13)
(1760 -1.14526e-09 1.17271e-13)
(1760 -1.15935e-09 1.17092e-13)
(1760 -1.17415e-09 1.16292e-13)
(1760 -1.1886e-09 1.19194e-13)
(1760 -1.2044e-09 1.22542e-13)
(1760 -1.22263e-09 1.2141e-13)
(1760 -1.24069e-09 1.22434e-13)
(1760 -1.2599e-09 1.18071e-13)
(1760 -1.27908e-09 1.1722e-13)
(1760 -1.29726e-09 1.21845e-13)
(1760 -1.31457e-09 1.23852e-13)
(1760 -1.33316e-09 1.24223e-13)
(1760 -1.3526e-09 1.24772e-13)
(1760 -1.37111e-09 1.23492e-13)
(1760 -1.38828e-09 1.25647e-13)
(1760 -1.40991e-09 1.23602e-13)
(1760 -1.42786e-09 1.19961e-13)
(1760 -1.45727e-09 1.22918e-13)
(1760 -1.48388e-09 1.24964e-13)
(1760 -1.01447e-09 1.36074e-13)
(1760 -1.02404e-09 1.37991e-13)
(1760 -1.03384e-09 1.32647e-13)
(1760 -1.0433e-09 1.33649e-13)
(1760 -1.0511e-09 1.28821e-13)
(1760 -1.06071e-09 1.29882e-13)
(1760 -1.06945e-09 1.35288e-13)
(1760 -1.07893e-09 1.34636e-13)
(1760 -1.08717e-09 1.28105e-13)
(1760 -1.09737e-09 1.304e-13)
(1760 -1.1087e-09 1.30168e-13)
(1760 -1.12044e-09 1.31752e-13)
(1760 -1.13127e-09 1.28942e-13)
(1760 -1.14301e-09 1.25558e-13)
(1760 -1.15532e-09 1.35154e-13)
(1760 -1.16845e-09 1.36969e-13)
(1760 -1.18292e-09 1.38216e-13)
(1760 -1.1975e-09 1.3538e-13)
(1760 -1.21167e-09 1.2985e-13)
(1760 -1.22678e-09 1.30544e-13)
(1760 -1.24118e-09 1.32434e-13)
(1760 -1.25572e-09 1.33174e-13)
(1760 -1.27134e-09 1.31177e-13)
(1760 -1.28466e-09 1.31622e-13)
(1760 -1.30097e-09 1.32061e-13)
(1760 -1.31888e-09 1.3587e-13)
(1760 -1.33678e-09 1.29617e-13)
(1760 -1.35469e-09 1.2931e-13)
(1760 -1.37379e-09 1.34676e-13)
(1760 -1.3936e-09 1.37918e-13)
(1760 -1.41228e-09 1.37684e-13)
(1760 -1.43089e-09 1.33636e-13)
(1760 -1.45032e-09 1.33985e-13)
(1760 -1.47059e-09 1.34055e-13)
(1760 -1.48954e-09 1.35447e-13)
(1760 -1.51186e-09 1.34616e-13)
(1760 -1.52914e-09 1.37751e-13)
(1760 -1.56015e-09 1.38471e-13)
(1760 -1.57261e-09 1.37341e-13)
(1760 -1.07985e-09 1.50118e-13)
(1760 -1.09136e-09 1.45872e-13)
(1760 -1.10331e-09 1.44511e-13)
(1760 -1.11374e-09 1.47714e-13)
(1760 -1.12569e-09 1.47323e-13)
(1760 -1.13508e-09 1.47698e-13)
(1760 -1.14553e-09 1.46452e-13)
(1760 -1.1553e-09 1.4739e-13)
(1760 -1.16665e-09 1.44624e-13)
(1760 -1.17569e-09 1.47919e-13)
(1760 -1.18507e-09 1.46435e-13)
(1760 -1.19687e-09 1.45511e-13)
(1760 -1.20902e-09 1.42978e-13)
(1760 -1.21981e-09 1.38086e-13)
(1760 -1.23152e-09 1.44697e-13)
(1760 -1.24402e-09 1.47268e-13)
(1760 -1.25845e-09 1.43194e-13)
(1760 -1.27213e-09 1.4385e-13)
(1760 -1.28518e-09 1.44828e-13)
(1760 -1.2995e-09 1.43548e-13)
(1760 -1.31597e-09 1.39007e-13)
(1760 -1.33278e-09 1.40173e-13)
(1760 -1.34867e-09 1.41132e-13)
(1760 -1.36622e-09 1.39447e-13)
(1760 -1.38165e-09 1.41534e-13)
(1760 -1.39591e-09 1.49309e-13)
(1760 -1.41287e-09 1.45037e-13)
(1760 -1.43072e-09 1.39689e-13)
(1760 -1.44917e-09 1.45983e-13)
(1760 -1.46762e-09 1.45859e-13)
(1760 -1.48752e-09 1.48284e-13)
(1760 -1.50769e-09 1.44825e-13)
(1760 -1.52697e-09 1.45356e-13)
(1760 -1.54614e-09 1.47946e-13)
(1760 -1.56644e-09 1.51705e-13)
(1760 -1.58579e-09 1.51567e-13)
(1760 -1.6085e-09 1.48228e-13)
(1760 -1.62566e-09 1.50302e-13)
(1760 -1.65584e-09 1.45971e-13)
(1760 -1.66686e-09 1.52145e-13)
(1760 -1.15521e-09 1.62589e-13)
(1760 -1.16606e-09 1.62747e-13)
(1760 -1.17839e-09 1.62979e-13)
(1760 -1.18986e-09 1.57942e-13)
(1760 -1.20345e-09 1.5912e-13)
(1760 -1.21614e-09 1.59697e-13)
(1760 -1.22749e-09 1.6136e-13)
(1760 -1.23889e-09 1.5977e-13)
(1760 -1.24998e-09 1.59702e-13)
(1760 -1.26131e-09 1.62516e-13)
(1760 -1.27006e-09 1.548e-13)
(1760 -1.28126e-09 1.55368e-13)
(1760 -1.29494e-09 1.544e-13)
(1760 -1.30702e-09 1.53351e-13)
(1760 -1.31905e-09 1.55642e-13)
(1760 -1.3315e-09 1.56686e-13)
(1760 -1.34474e-09 1.53722e-13)
(1760 -1.3593e-09 1.49626e-13)
(1760 -1.37279e-09 1.52801e-13)
(1760 -1.38608e-09 1.51286e-13)
(1760 -1.4021e-09 1.54974e-13)
(1760 -1.41942e-09 1.57092e-13)
(1760 -1.43575e-09 1.59068e-13)
(1760 -1.45241e-09 1.56719e-13)
(1760 -1.4699e-09 1.54035e-13)
(1760 -1.48655e-09 1.55818e-13)
(1760 -1.50407e-09 1.55569e-13)
(1760 -1.52228e-09 1.54954e-13)
(1760 -1.54001e-09 1.54617e-13)
(1760 -1.55868e-09 1.57498e-13)
(1760 -1.57762e-09 1.58821e-13)
(1760 -1.59784e-09 1.58988e-13)
(1760 -1.61829e-09 1.58755e-13)
(1760 -1.63817e-09 1.60777e-13)
(1760 -1.65955e-09 1.63855e-13)
(1760 -1.67958e-09 1.56749e-13)
(1760 -1.70224e-09 1.57281e-13)
(1760 -1.7203e-09 1.60777e-13)
(1760 -1.74931e-09 1.60537e-13)
(1760 -1.76099e-09 1.60309e-13)
(1760 -1.23227e-09 1.75882e-13)
(1760 -1.24265e-09 1.71529e-13)
(1760 -1.25451e-09 1.7266e-13)
(1760 -1.26675e-09 1.73912e-13)
(1760 -1.27891e-09 1.74591e-13)
(1760 -1.29227e-09 1.7674e-13)
(1760 -1.30473e-09 1.71718e-13)
(1760 -1.31858e-09 1.66857e-13)
(1760 -1.33122e-09 1.73306e-13)
(1760 -1.34314e-09 1.7519e-13)
(1760 -1.35436e-09 1.68363e-13)
(1760 -1.36444e-09 1.73885e-13)
(1760 -1.37779e-09 1.73633e-13)
(1760 -1.39119e-09 1.69927e-13)
(1760 -1.40317e-09 1.7088e-13)
(1760 -1.4169e-09 1.64154e-13)
(1760 -1.42854e-09 1.61935e-13)
(1760 -1.44256e-09 1.64448e-13)
(1760 -1.45752e-09 1.65333e-13)
(1760 -1.47045e-09 1.67226e-13)
(1760 -1.48467e-09 1.76622e-13)
(1760 -1.50198e-09 1.7177e-13)
(1760 -1.51954e-09 1.6843e-13)
(1760 -1.53762e-09 1.6869e-13)
(1760 -1.55481e-09 1.68321e-13)
(1760 -1.57227e-09 1.68228e-13)
(1760 -1.59027e-09 1.68461e-13)
(1760 -1.60971e-09 1.63792e-13)
(1760 -1.62943e-09 1.75463e-13)
(1760 -1.64811e-09 1.73749e-13)
(1760 -1.66684e-09 1.68069e-13)
(1760 -1.6863e-09 1.66444e-13)
(1760 -1.70709e-09 1.65667e-13)
(1760 -1.72689e-09 1.69415e-13)
(1760 -1.74784e-09 1.73951e-13)
(1760 -1.76821e-09 1.73158e-13)
(1760 -1.79075e-09 1.70993e-13)
(1760 -1.80974e-09 1.70111e-13)
(1760 -1.83985e-09 1.76526e-13)
(1760 -1.85427e-09 1.79773e-13)
(1760 -1.30895e-09 1.87422e-13)
(1760 -1.32017e-09 1.89588e-13)
(1760 -1.33162e-09 1.89828e-13)
(1760 -1.34328e-09 1.84685e-13)
(1760 -1.3549e-09 1.84527e-13)
(1760 -1.36767e-09 1.88092e-13)
(1760 -1.38078e-09 1.88132e-13)
(1760 -1.39302e-09 1.79024e-13)
(1760 -1.40673e-09 1.82376e-13)
(1760 -1.419e-09 1.86789e-13)
(1760 -1.4317e-09 1.81914e-13)
(1760 -1.44373e-09 1.87767e-13)
(1760 -1.45655e-09 1.84279e-13)
(1760 -1.4715e-09 1.78187e-13)
(1760 -1.48487e-09 1.80851e-13)
(1760 -1.4994e-09 1.80306e-13)
(1760 -1.51046e-09 1.7541e-13)
(1760 -1.52377e-09 1.78446e-13)
(1760 -1.54001e-09 1.80342e-13)
(1760 -1.55575e-09 1.84146e-13)
(1760 -1.5698e-09 1.86328e-13)
(1760 -1.58533e-09 1.80083e-13)
(1760 -1.60195e-09 1.83229e-13)
(1760 -1.61971e-09 1.83761e-13)
(1760 -1.63906e-09 1.78546e-13)
(1760 -1.65768e-09 1.84851e-13)
(1760 -1.67455e-09 1.78436e-13)
(1760 -1.69291e-09 1.79642e-13)
(1760 -1.71271e-09 1.81755e-13)
(1760 -1.73156e-09 1.77044e-13)
(1760 -1.7505e-09 1.8114e-13)
(1760 -1.77021e-09 1.83368e-13)
(1760 -1.79119e-09 1.81714e-13)
(1760 -1.81168e-09 1.77709e-13)
(1760 -1.83298e-09 1.83531e-13)
(1760 -1.85385e-09 1.83964e-13)
(1760 -1.87813e-09 1.8474e-13)
(1760 -1.89704e-09 1.85919e-13)
(1760 -1.92764e-09 1.84358e-13)
(1760 -1.94525e-09 1.81078e-13)
(1760 -1.38105e-09 1.99768e-13)
(1760 -1.39359e-09 2.00996e-13)
(1760 -1.40571e-09 1.99222e-13)
(1760 -1.4171e-09 1.9861e-13)
(1760 -1.42915e-09 1.97383e-13)
(1760 -1.44191e-09 1.93776e-13)
(1760 -1.45516e-09 1.96274e-13)
(1760 -1.46765e-09 1.95873e-13)
(1760 -1.48113e-09 1.96962e-13)
(1760 -1.49354e-09 1.96469e-13)
(1760 -1.50711e-09 1.94619e-13)
(1760 -1.52129e-09 1.97396e-13)
(1760 -1.53454e-09 1.92327e-13)
(1760 -1.549e-09 1.9069e-13)
(1760 -1.56336e-09 1.94426e-13)
(1760 -1.57986e-09 1.94138e-13)
(1760 -1.59362e-09 1.92832e-13)
(1760 -1.60705e-09 1.93385e-13)
(1760 -1.62183e-09 1.90977e-13)
(1760 -1.63723e-09 1.92693e-13)
(1760 -1.6522e-09 1.93767e-13)
(1760 -1.66748e-09 1.9173e-13)
(1760 -1.6832e-09 1.91559e-13)
(1760 -1.6997e-09 1.92006e-13)
(1760 -1.71628e-09 1.9154e-13)
(1760 -1.7366e-09 1.90941e-13)
(1760 -1.75609e-09 1.92515e-13)
(1760 -1.77455e-09 1.94414e-13)
(1760 -1.79355e-09 1.89188e-13)
(1760 -1.81316e-09 1.93569e-13)
(1760 -1.83219e-09 1.93638e-13)
(1760 -1.85179e-09 1.99466e-13)
(1760 -1.87276e-09 1.93468e-13)
(1760 -1.89399e-09 1.91074e-13)
(1760 -1.91539e-09 1.9495e-13)
(1760 -1.93516e-09 1.99026e-13)
(1760 -1.96023e-09 1.99165e-13)
(1760 -1.98063e-09 1.97042e-13)
(1760 -2.01068e-09 1.95803e-13)
(1760 -2.02996e-09 1.99559e-13)
(1760 -1.45229e-09 2.13313e-13)
(1760 -1.46438e-09 2.11912e-13)
(1760 -1.47709e-09 2.12372e-13)
(1760 -1.48994e-09 2.08678e-13)
(1760 -1.50182e-09 2.07755e-13)
(1760 -1.51419e-09 2.12757e-13)
(1760 -1.52896e-09 2.14565e-13)
(1760 -1.54255e-09 2.08732e-13)
(1760 -1.55642e-09 2.0993e-13)
(1760 -1.56889e-09 2.11836e-13)
(1760 -1.58294e-09 2.10046e-13)
(1760 -1.59691e-09 2.11277e-13)
(1760 -1.61149e-09 2.05776e-13)
(1760 -1.62684e-09 2.05274e-13)
(1760 -1.63983e-09 2.09827e-13)
(1760 -1.65576e-09 2.04564e-13)
(1760 -1.67035e-09 2.04625e-13)
(1760 -1.68483e-09 2.10367e-13)
(1760 -1.6993e-09 2.07782e-13)
(1760 -1.71478e-09 2.04559e-13)
(1760 -1.73003e-09 2.04255e-13)
(1760 -1.74782e-09 2.00165e-13)
(1760 -1.76555e-09 2.06065e-13)
(1760 -1.78282e-09 2.08396e-13)
(1760 -1.79726e-09 2.10973e-13)
(1760 -1.81442e-09 2.09104e-13)
(1760 -1.83511e-09 2.04497e-13)
(1760 -1.85616e-09 2.04271e-13)
(1760 -1.87539e-09 2.02748e-13)
(1760 -1.89587e-09 2.06179e-13)
(1760 -1.91633e-09 2.04485e-13)
(1760 -1.93587e-09 2.02463e-13)
(1760 -1.95571e-09 2.0583e-13)
(1760 -1.97555e-09 2.07439e-13)
(1760 -1.99683e-09 2.02167e-13)
(1760 -2.01783e-09 2.04972e-13)
(1760 -2.04248e-09 2.06863e-13)
(1760 -2.06384e-09 2.048e-13)
(1760 -2.09258e-09 2.05902e-13)
(1760 -2.11067e-09 2.08504e-13)
(1760 -1.52408e-09 2.30586e-13)
(1760 -1.53742e-09 2.28491e-13)
(1760 -1.55018e-09 2.25528e-13)
(1760 -1.56259e-09 2.22355e-13)
(1760 -1.57475e-09 2.23591e-13)
(1760 -1.58729e-09 2.21249e-13)
(1760 -1.60176e-09 2.22884e-13)
(1760 -1.61575e-09 2.23377e-13)
(1760 -1.62945e-09 2.26603e-13)
(1760 -1.64236e-09 2.2195e-13)
(1760 -1.65674e-09 2.18347e-13)
(1760 -1.67098e-09 2.21034e-13)
(1760 -1.68521e-09 2.1873e-13)
(1760 -1.70125e-09 2.2166e-13)
(1760 -1.71575e-09 2.21214e-13)
(1760 -1.7302e-09 2.23291e-13)
(1760 -1.74522e-09 2.25189e-13)
(1760 -1.76071e-09 2.21519e-13)
(1760 -1.77596e-09 2.21815e-13)
(1760 -1.791e-09 2.24094e-13)
(1760 -1.80622e-09 2.17965e-13)
(1760 -1.82263e-09 2.1697e-13)
(1760 -1.8418e-09 2.19169e-13)
(1760 -1.86161e-09 2.16687e-13)
(1760 -1.87912e-09 2.18778e-13)
(1760 -1.89452e-09 2.16395e-13)
(1760 -1.9121e-09 2.16967e-13)
(1760 -1.93278e-09 2.18193e-13)
(1760 -1.95381e-09 2.13099e-13)
(1760 -1.97392e-09 2.15152e-13)
(1760 -1.99486e-09 2.18213e-13)
(1760 -2.01588e-09 2.20517e-13)
(1760 -2.03737e-09 2.22756e-13)
(1760 -2.05732e-09 2.15357e-13)
(1760 -2.07923e-09 2.14887e-13)
(1760 -2.0997e-09 2.18671e-13)
(1760 -2.12206e-09 2.20986e-13)
(1760 -2.13925e-09 2.20144e-13)
(1760 -2.15996e-09 2.20321e-13)
(1760 -2.17315e-09 2.22013e-13)
(1760 -1.58817e-09 2.42712e-13)
(1760 -1.597e-09 2.45711e-13)
(1760 -1.60785e-09 2.41636e-13)
(1760 -1.62087e-09 2.39773e-13)
(1760 -1.63347e-09 2.41171e-13)
(1760 -1.64562e-09 2.35309e-13)
(1760 -1.65789e-09 2.39601e-13)
(1760 -1.67251e-09 2.35846e-13)
(1760 -1.68654e-09 2.3185e-13)
(1760 -1.70034e-09 2.35193e-13)
(1760 -1.71372e-09 2.33918e-13)
(1760 -1.72847e-09 2.29932e-13)
(1760 -1.74422e-09 2.30084e-13)
(1760 -1.7584e-09 2.335e-13)
(1760 -1.77393e-09 2.3347e-13)
(1760 -1.78912e-09 2.31185e-13)
(1760 -1.80505e-09 2.36754e-13)
(1760 -1.82081e-09 2.3295e-13)
(1760 -1.83614e-09 2.29396e-13)
(1760 -1.85205e-09 2.30287e-13)
(1760 -1.86741e-09 2.31694e-13)
(1760 -1.88203e-09 2.28994e-13)
(1760 -1.89695e-09 2.31117e-13)
(1760 -1.91527e-09 2.29549e-13)
(1760 -1.9335e-09 2.26023e-13)
(1760 -1.9525e-09 2.32783e-13)
(1760 -1.97166e-09 2.31464e-13)
(1760 -1.98983e-09 2.28389e-13)
(1760 -2.00757e-09 2.2849e-13)
(1760 -2.02786e-09 2.30438e-13)
(1760 -2.04952e-09 2.33482e-13)
(1760 -2.07025e-09 2.25257e-13)
(1760 -2.09186e-09 2.29329e-13)
(1760 -2.11334e-09 2.35557e-13)
(1760 -2.13178e-09 2.29397e-13)
(1760 -2.14762e-09 2.30413e-13)
(1760 -2.16298e-09 2.33956e-13)
(1760 -2.17675e-09 2.34882e-13)
(1760 -2.18536e-09 2.3105e-13)
(1760 -2.18914e-09 2.33284e-13)
(1760 -2.16767e-09 2.30889e-13)
(1760 -1.66153e-09 2.61125e-13)
(1760 -1.67044e-09 2.62801e-13)
(1760 -1.6808e-09 2.52009e-13)
(1760 -1.69256e-09 2.52607e-13)
(1760 -1.70442e-09 2.54042e-13)
(1760 -1.71676e-09 2.50811e-13)
(1760 -1.72993e-09 2.48768e-13)
(1760 -1.74414e-09 2.45433e-13)
(1760 -1.75768e-09 2.47918e-13)
(1760 -1.77193e-09 2.50525e-13)
(1760 -1.78556e-09 2.45143e-13)
(1760 -1.79956e-09 2.44112e-13)
(1760 -1.81465e-09 2.47168e-13)
(1760 -1.82978e-09 2.4706e-13)
(1760 -1.84557e-09 2.44088e-13)
(1760 -1.8611e-09 2.44366e-13)
(1760 -1.87647e-09 2.46108e-13)
(1760 -1.89279e-09 2.43918e-13)
(1760 -1.90975e-09 2.4269e-13)
(1760 -1.92592e-09 2.4296e-13)
(1760 -1.94215e-09 2.42068e-13)
(1760 -1.95763e-09 2.47246e-13)
(1760 -1.97276e-09 2.42063e-13)
(1760 -1.98914e-09 2.33606e-13)
(1760 -2.00735e-09 2.39625e-13)
(1760 -2.02636e-09 2.44138e-13)
(1760 -2.04518e-09 2.39262e-13)
(1760 -2.06373e-09 2.40168e-13)
(1760 -2.08192e-09 2.39942e-13)
(1760 -2.10126e-09 2.41671e-13)
(1760 -2.12149e-09 2.39264e-13)
(1760 -2.14094e-09 2.41194e-13)
(1760 -2.15616e-09 2.46774e-13)
(1760 -2.17153e-09 2.45314e-13)
(1760 -2.18134e-09 2.48438e-13)
(1760 -2.18827e-09 2.47106e-13)
(1760 -2.18027e-09 2.42415e-13)
(1760 -2.1791e-09 2.44204e-13)
(1760 -2.12772e-09 2.48945e-13)
(1760 -1.99778e-09 2.45551e-13)
(1760 -1.67643e-09 2.45706e-13)
(1760 -1.72176e-09 2.75959e-13)
(1760 -1.73244e-09 2.78539e-13)
(1760 -1.74182e-09 2.64819e-13)
(1760 -1.75227e-09 2.64503e-13)
(1760 -1.76374e-09 2.68738e-13)
(1760 -1.77533e-09 2.65591e-13)
(1760 -1.78736e-09 2.64585e-13)
(1760 -1.80049e-09 2.65101e-13)
(1760 -1.81539e-09 2.60972e-13)
(1760 -1.82917e-09 2.64057e-13)
(1760 -1.8433e-09 2.67369e-13)
(1760 -1.85702e-09 2.58244e-13)
(1760 -1.87082e-09 2.58118e-13)
(1760 -1.88493e-09 2.58241e-13)
(1760 -1.89997e-09 2.58179e-13)
(1760 -1.91549e-09 2.58817e-13)
(1760 -1.93085e-09 2.60415e-13)
(1760 -1.94685e-09 2.56669e-13)
(1760 -1.96319e-09 2.53363e-13)
(1760 -1.98075e-09 2.52501e-13)
(1760 -1.998e-09 2.54013e-13)
(1760 -2.01417e-09 2.55516e-13)
(1760 -2.02972e-09 2.53514e-13)
(1760 -2.04588e-09 2.51616e-13)
(1760 -2.06215e-09 2.56356e-13)
(1760 -2.07884e-09 2.5689e-13)
(1760 -2.0975e-09 2.56176e-13)
(1760 -2.11645e-09 2.55553e-13)
(1760 -2.1352e-09 2.55501e-13)
(1760 -2.15043e-09 2.53143e-13)
(1760 -2.16421e-09 2.53877e-13)
(1760 -2.17775e-09 2.62843e-13)
(1760 -2.18589e-09 2.58837e-13)
(1760 -2.19433e-09 2.48668e-13)
(1760 -2.18398e-09 2.50492e-13)
(1760 -2.17825e-09 2.52907e-13)
(1760 -2.11678e-09 2.53546e-13)
(1760 -1.95419e-09 2.543e-13)
(1760 -1.62875e-09 2.58979e-13)
(1760 -1.01605e-09 2.59714e-13)
(1760 7.57601e-11 2.57306e-13)
(1760 1.78303e-09 2.57871e-13)
(1760 -1.77625e-09 2.85624e-13)
(1760 -1.78774e-09 2.832e-13)
(1760 -1.79971e-09 2.80776e-13)
(1760 -1.81178e-09 2.81673e-13)
(1760 -1.82335e-09 2.84214e-13)
(1760 -1.83459e-09 2.80691e-13)
(1760 -1.84607e-09 2.78584e-13)
(1760 -1.85845e-09 2.80075e-13)
(1760 -1.87168e-09 2.79174e-13)
(1760 -1.88548e-09 2.77978e-13)
(1760 -1.89915e-09 2.79981e-13)
(1760 -1.91314e-09 2.75306e-13)
(1760 -1.92732e-09 2.69551e-13)
(1760 -1.94131e-09 2.71624e-13)
(1760 -1.95488e-09 2.71957e-13)
(1760 -1.96952e-09 2.70699e-13)
(1760 -1.98407e-09 2.71744e-13)
(1760 -2.00005e-09 2.66852e-13)
(1760 -2.01608e-09 2.64468e-13)
(1760 -2.03211e-09 2.63499e-13)
(1760 -2.0493e-09 2.67453e-13)
(1760 -2.06684e-09 2.70771e-13)
(1760 -2.08384e-09 2.68117e-13)
(1760 -2.10041e-09 2.63884e-13)
(1760 -2.1168e-09 2.67855e-13)
(1760 -2.1324e-09 2.67109e-13)
(1760 -2.14726e-09 2.65468e-13)
(1760 -2.159e-09 2.64588e-13)
(1760 -2.1731e-09 2.65447e-13)
(1760 -2.18363e-09 2.63696e-13)
(1760 -2.1908e-09 2.63346e-13)
(1760 -2.19175e-09 2.66796e-13)
(1760 -2.18001e-09 2.67876e-13)
(1760 -2.15977e-09 2.613e-13)
(1760 -2.07615e-09 2.62976e-13)
(1760 -1.88082e-09 2.65017e-13)
(1760 -1.48334e-09 2.65784e-13)
(1760 -7.89045e-10 2.6954e-13)
(1760 4.01615e-10 2.69441e-13)
(1760 2.02615e-09 2.70408e-13)
(1760 4.2686e-09 2.70599e-13)
(1760 7.85262e-09 2.68498e-13)
(1760 1.41354e-08 2.68977e-13)
(1760 -1.84033e-09 2.94776e-13)
(1760 -1.85186e-09 2.97332e-13)
(1760 -1.86348e-09 2.99177e-13)
(1760 -1.87627e-09 2.97004e-13)
(1760 -1.88896e-09 2.93451e-13)
(1760 -1.90197e-09 2.91187e-13)
(1760 -1.91549e-09 2.92837e-13)
(1760 -1.92782e-09 2.92864e-13)
(1760 -1.94098e-09 2.89686e-13)
(1760 -1.95535e-09 2.89868e-13)
(1760 -1.96966e-09 2.88739e-13)
(1760 -1.98339e-09 2.84948e-13)
(1760 -1.99797e-09 2.87014e-13)
(1760 -2.01216e-09 2.86068e-13)
(1760 -2.02531e-09 2.83122e-13)
(1760 -2.03904e-09 2.84668e-13)
(1760 -2.05392e-09 2.78906e-13)
(1760 -2.06919e-09 2.80404e-13)
(1760 -2.08494e-09 2.81947e-13)
(1760 -2.10112e-09 2.78594e-13)
(1760 -2.11765e-09 2.83043e-13)
(1760 -2.13364e-09 2.83858e-13)
(1760 -2.14957e-09 2.79269e-13)
(1760 -2.1607e-09 2.76106e-13)
(1760 -2.17487e-09 2.78207e-13)
(1760 -2.18486e-09 2.81338e-13)
(1760 -2.19178e-09 2.78702e-13)
(1760 -2.19723e-09 2.73888e-13)
(1760 -2.18374e-09 2.74501e-13)
(1760 -2.18816e-09 2.76793e-13)
(1760 -2.12863e-09 2.79699e-13)
(1760 -2.0111e-09 2.79094e-13)
(1760 -1.76167e-09 2.77564e-13)
(1760 -1.27016e-09 2.76988e-13)
(1760 -4.42559e-10 2.8197e-13)
(1760 8.42392e-10 2.81385e-13)
(1760 2.57544e-09 2.81441e-13)
(1760 4.97413e-09 2.82005e-13)
(1760 8.71928e-09 2.79481e-13)
(1760 1.48705e-08 2.778e-13)
(1760 2.45729e-08 2.80176e-13)
(1760 4.08027e-08 2.81283e-13)
(1760 6.80914e-08 2.82289e-13)
(1760 -1.89468e-09 3.13546e-13)
(1760 -1.90529e-09 3.13515e-13)
(1760 -1.91597e-09 3.1206e-13)
(1760 -1.92718e-09 3.12215e-13)
(1760 -1.93916e-09 3.10074e-13)
(1760 -1.9517e-09 3.08076e-13)