/*--------------------------------*- C++ -*----------------------------------*\
| =========                 |                                                 |
| \\      /  F ield         | OpenFOAM: The Open Source CFD Toolbox           |
|  \\    /   O peration     | Version:  v1706                                 |
|   \\  /    A nd           | Web:      www.OpenFOAM.com                      |
|    \\/     M anipulation  |                                                 |
\*---------------------------------------------------------------------------*/
FoamFile
{
    version     2.0;
    format      ascii;
    class       volScalarField;
    location    "3.8e-05";
    object      wallHeatFlux;
}
// * * * * * * * * * * * * * * * * * * * * * * * * * * * * * * * * * * * * * //

dimensions      [1 0 -3 0 0 0 0];


internalField   uniform 0;

boundaryField
{
    cone
    {
        type            calculated;
        value           nonuniform List<scalar> 
153
(
118805
117630
116461
115298
114140
112987
111839
110695
109557
108424
107295
106173
105055
103943
102837
101736
100641
99552.2
98469.4
97392.7
96322.4
95258.6
94201.3
93150.7
92107.1
91070.5
90041.1
89019.2
88004.9
86998.5
86000.4
85010.8
84030.1
83058.9
82097.5
81146.7
80207.1
79279.5
78365.1
77464.8
76580.1
75712.4
74863
74033.7
73225.6
72436.9
71666.8
70882.5
70137.9
69493
68894.7
68336.7
67811.2
67312.8
66837.5
66382.2
65944.4
65522.1
65113.7
64718
64333.6
63959.6
63595.1
63239.3
62891.6
62551.3
62217.8
61890.6
61569.3
61253.4
60942.5
60636.3
60334.3
60036.3
59742
59451
59163.2
58878.2
58595.8
58315.7
58037.8
57761.6
57487.3
57214.6
56943.4
56673.3
56404.3
56136.2
55868.9
55602
55335.5
55069.3
54803.3
54537.3
54271.2
54004.8
53738.2
53471.1
53203.4
52935.2
52666.2
52396.4
52125.7
51854
51581.3
51307.5
51032.5
50756.3
50478.8
50199.9
49919.7
49638
49354.9
49070.2
48784.1
48496.4
48207.2
47916.4
47624
47330.1
47034.6
46737.5
46438.8
46138.7
45836.9
45533.7
45229
44922.9
44615.3
44306.4
43996.1
43684.6
43371.8
43057.8
42742.6
42426.4
42109.2
41790.9
41471.8
41151.8
40831
40509.5
40187.3
39864.5
39541.1
39217.3
38893.1
38568.4
38243.6
37918.6
37593.9
37269.7
36944.5
)
;
    }
    inlet
    {
        type            calculated;
        value           uniform 0;
    }
    rWedge
    {
        type            wedge;
    }
    lWedge
    {
        type            wedge;
    }
    outlet
    {
        type            calculated;
        value           nonuniform 0();
    }
    procBoundary2to0
    {
        type            processor;
        value           uniform 0;
    }
    procBoundary2to1
    {
        type            processor;
        value           uniform 0;
    }
    procBoundary2to3
    {
        type            processor;
        value           uniform 0;
    }
}


// ************************************************************************* //
