/*--------------------------------*- C++ -*----------------------------------*\
| =========                 |                                                 |
| \\      /  F ield         | OpenFOAM: The Open Source CFD Toolbox           |
|  \\    /   O peration     | Version:  v1706                                 |
|   \\  /    A nd           | Web:      www.OpenFOAM.com                      |
|    \\/     M anipulation  |                                                 |
\*---------------------------------------------------------------------------*/
FoamFile
{
    version     2.0;
    format      ascii;
    class       volScalarField;
    location    "3.9e-05";
    object      kappatr;
}
// * * * * * * * * * * * * * * * * * * * * * * * * * * * * * * * * * * * * * //

dimensions      [1 1 -3 -1 0 0 0];


internalField   nonuniform List<scalar> 
30038
(
0.014593
0.014593
0.014593
0.014593
0.014593
0.014593
0.014593
0.014593
0.014593
0.014593
0.014593
0.014593
0.014593
0.014593
0.014593
0.014593
0.014593
0.014593
0.014593
0.014593
0.014593
0.014593
0.014593
0.014593
0.014593
0.014593
0.014593
0.014593
0.014593
0.014593
0.014593
0.014593
0.014593
0.014593
0.014593
0.014593
0.014593
0.014593
0.014593
0.014593
0.014593
0.014593
0.014593
0.014593
0.014593
0.014593
0.014593
0.014593
0.014593
0.014593
0.014593
0.014593
0.014593
0.014593
0.014593
0.014593
0.014593
0.014593
0.014593
0.014593
0.014593
0.014593
0.014593
0.014593
0.014593
0.014593
0.014593
0.014593
0.014593
0.014593
0.014593
0.014593
0.014593
0.014593
0.014593
0.014593
0.014593
0.014593
0.014593
0.014593
0.014593
0.014593
0.014593
0.014593
0.014593
0.014593
0.014593
0.014593
0.014593
0.014593
0.014593
0.014593
0.014593
0.014593
0.014593
0.014593
0.014593
0.014593
0.014593
0.014593
0.014593
0.014593
0.014593
0.014593
0.014593
0.014593
0.014593
0.014593
0.014593
0.014593
0.014593
0.014593
0.014593
0.014593
0.014593
0.014593
0.014593
0.014593
0.014593
0.014593
0.014593
0.014593
0.014593
0.014593
0.014593
0.014593
0.014593
0.014593
0.014593
0.014593
0.014593
0.014593
0.014593
0.014593
0.014593
0.014593
0.014593
0.014593
0.014593
0.014593
0.014593
0.014593
0.014593
0.014593
0.014593
0.014593
0.014593
0.014593
0.014593
0.014593
0.014593
0.014593
0.014593
0.014593
0.014593
0.014593
0.014593
0.014593
0.014593
0.014593
0.014593
0.014593
0.014593
0.014593
0.014593
0.014593
0.014593
0.014593
0.014593
0.014593
0.014593
0.014593
0.014593
0.014593
0.014593
0.014593
0.014593
0.014593
0.014593
0.014593
0.014593
0.014593
0.014593
0.014593
0.014593
0.014593
0.014593
0.014593
0.014593
0.014593
0.014593
0.014593
0.014593
0.014593
0.014593
0.014593
0.014593
0.014593
0.014593
0.014593
0.014593
0.014593
0.014593
0.014593
0.014593
0.014593
0.014593
0.014593
0.014593
0.014593
0.014593
0.014593
0.014593
0.014593
0.014593
0.014593
0.014593
0.014593
0.014593
0.014593
0.014593
0.014593
0.014593
0.014593
0.014593
0.014593
0.014593
0.014593
0.014593
0.014593
0.014593
0.014593
0.014593
0.014593
0.014593
0.014593
0.014593
0.014593
0.014593
0.014593
0.014593
0.014593
0.014593
0.014593
0.014593
0.014593
0.014593
0.014593
0.014593
0.014593
0.014593
0.014593
0.014593
0.014593
0.014593
0.014593
0.014593
0.014593
0.014593
0.014593
0.014593
0.014593
0.014593
0.014593
0.014593
0.014593
0.014593
0.014593
0.014593
0.014593
0.014593
0.014593
0.014593
0.014593
0.014593
0.014593
0.014593
0.014593
0.014593
0.014593
0.014593
0.014593
0.014593
0.014593
0.014593
0.014593
0.014593
0.014593
0.014593
0.014593
0.014593
0.014593
0.014593
0.014593
0.014593
0.014593
0.014593
0.014593
0.014593
0.014593
0.014593
0.014593
0.014593
0.014593
0.014593
0.014593
0.014593
0.014593
0.014593
0.014593
0.014593
0.014593
0.014593
0.014593
0.014593
0.014593
0.014593
0.014593
0.014593
0.014593
0.014593
0.014593
0.014593
0.014593
0.014593
0.014593
0.014593
0.014593
0.014593
0.014593
0.014593
0.014593
0.014593
0.014593
0.014593
0.014593
0.014593
0.014593
0.014593
0.014593
0.014593
0.014593
0.014593
0.014593
0.014593
0.014593
0.014593
0.014593
0.014593
0.014593
0.014593
0.014593
0.014593
0.014593
0.014593
0.014593
0.014593
0.014593
0.014593
0.014593
0.014593
0.014593
0.014593
0.014593
0.014593
0.014593
0.014593
0.014593
0.014593
0.014593
0.014593
0.014593
0.014593
0.014593
0.014593
0.014593
0.014593
0.014593
0.014593
0.014593
0.014593
0.014593
0.014593
0.014593
0.014593
0.014593
0.014593
0.014593
0.014593
0.014593
0.014593
0.014593
0.014593
0.014593
0.014593
0.014593
0.014593
0.014593
0.014593
0.014593
0.014593
0.014593
0.014593
0.014593
0.014593
0.014593
0.014593
0.014593
0.014593
0.014593
0.014593
0.014593
0.014593
0.014593
0.014593
0.014593
0.014593
0.014593
0.014593
0.014593
0.014593
0.014593
0.014593
0.014593
0.014593
0.014593
0.014593
0.014593
0.014593
0.014593
0.014593
0.014593
0.014593
0.014593
0.014593
0.014593
0.014593
0.014593
0.014593
0.014593
0.014593
0.014593
0.014593
0.014593
0.014593
0.014593
0.014593
0.014593
0.014593
0.014593
0.014593
0.014593
0.014593
0.014593
0.014593
0.014593
0.014593
0.014593
0.014593
0.014593
0.014593
0.014593
0.014593
0.014593
0.014593
0.014593
0.014593
0.014593
0.014593
0.014593
0.014593
0.014593
0.014593
0.014593
0.014593
0.014593
0.014593
0.014593
0.014593
0.014593
0.014593
0.014593
0.014593
0.014593
0.014593
0.014593
0.014593
0.014593
0.014593
0.014593
0.014593
0.014593
0.014593
0.014593
0.014593
0.014593
0.014593
0.014593
0.014593
0.014593
0.014593
0.014593
0.014593
0.014593
0.014593
0.014593
0.014593
0.014593
0.014593
0.014593
0.014593
0.014593
0.014593
0.014593
0.014593
0.014593
0.014593
0.014593
0.014593
0.014593
0.014593
0.014593
0.014593
0.014593
0.014593
0.014593
0.014593
0.014593
0.014593
0.014593
0.014593
0.014593
0.014593
0.014593
0.014593
0.014593
0.014593
0.014593
0.014593
0.014593
0.014593
0.014593
0.014593
0.014593
0.014593
0.014593
0.014593
0.014593
0.014593
0.014593
0.014593
0.014593
0.014593
0.014593
0.014593
0.014593
0.014593
0.014593
0.014593
0.014593
0.014593
0.014593
0.014593
0.014593
0.014593
0.014593
0.014593
0.014593
0.014593
0.014593
0.014593
0.014593
0.014593
0.014593
0.014593
0.014593
0.014593
0.014593
0.014593
0.014593
0.014593
0.014593
0.014593
0.014593
0.014593
0.014593
0.014593
0.014593
0.014593
0.014593
0.014593
0.014593
0.014593
0.014593
0.014593
0.014593
0.014593
0.014593
0.014593
0.014593
0.014593
0.014593
0.014593
0.014593
0.014593
0.014593
0.014593
0.014593
0.014593
0.014593
0.014593
0.014593
0.014593
0.014593
0.014593
0.014593
0.014593
0.014593
0.014593
0.014593
0.014593
0.014593
0.014593
0.014593
0.014593
0.014593
0.014593
0.014593
0.014593
0.014593
0.014593
0.014593
0.014593
0.014593
0.014593
0.014593
0.014593
0.014593
0.014593
0.014593
0.014593
0.014593
0.014593
0.014593
0.014593
0.014593
0.014593
0.014593
0.014593
0.014593
0.014593
0.014593
0.014593
0.014593
0.014593
0.014593
0.014593
0.014593
0.014593
0.014593
0.014593
0.014593
0.014593
0.014593
0.014593
0.014593
0.014593
0.014593
0.014593
0.014593
0.014593
0.014593
0.014593
0.014593
0.014593
0.014593
0.014593
0.014593
0.014593
0.014593
0.014593
0.014593
0.014593
0.014593
0.014593
0.014593
0.014593
0.014593
0.014593
0.014593
0.014593
0.014593
0.014593
0.014593
0.014593
0.014593
0.014593
0.014593
0.014593
0.014593
0.014593
0.014593
0.014593
0.014593
0.014593
0.014593
0.014593
0.014593
0.014593
0.014593
0.014593
0.014593
0.014593
0.014593
0.014593
0.014593
0.014593
0.014593
0.014593
0.014593
0.014593
0.014593
0.014593
0.014593
0.014593
0.014593
0.014593
0.014593
0.014593
0.014593
0.014593
0.014593
0.014593
0.014593
0.014593
0.014593
0.014593
0.014593
0.014593
0.014593
0.014593
0.014593
0.014593
0.014593
0.014593
0.014593
0.014593
0.014593
0.014593
0.014593
0.014593
0.014593
0.014593
0.014593
0.014593
0.014593
0.014593
0.014593
0.014593
0.014593
0.014593
0.014593
0.014593
0.014593
0.014593
0.014593
0.014593
0.014593
0.014593
0.014593
0.014593
0.014593
0.014593
0.014593
0.014593
0.014593
0.014593
0.014593
0.014593
0.014593
0.014593
0.014593
0.014593
0.014593
0.014593
0.014593
0.014593
0.014593
0.014593
0.014593
0.014593
0.014593
0.014593
0.014593
0.014593
0.014593
0.014593
0.014593
0.014593
0.014593
0.014593
0.014593
0.014593
0.014593
0.014593
0.014593
0.014593
0.014593
0.014593
0.014593
0.014593
0.014593
0.014593
0.014593
0.014593
0.014593
0.014593
0.014593
0.014593
0.014593
0.014593
0.014593
0.014593
0.014593
0.014593
0.014593
0.014593
0.014593
0.014593
0.014593
0.014593
0.014593
0.014593
0.014593
0.014593
0.014593
0.014593
0.014593
0.014593
0.014593
0.014593
0.014593
0.014593
0.014593
0.014593
0.014593
0.014593
0.014593
0.014593
0.014593
0.014593
0.014593
0.014593
0.014593
0.014593
0.014593
0.014593
0.014593
0.014593
0.014593
0.014593
0.014593
0.014593
0.014593
0.014593
0.014593
0.014593
0.014593
0.014593
0.014593
0.014593
0.014593
0.014593
0.014593
0.014593
0.014593
0.014593
0.014593
0.014593
0.014593
0.014593
0.014593
0.014593
0.014593
0.014593
0.014593
0.014593
0.014593
0.014593
0.014593
0.014593
0.014593
0.014593
0.014593
0.014593
0.014593
0.014593
0.014593
0.014593
0.014593
0.014593
0.014593
0.014593
0.014593
0.014593
0.014593
0.014593
0.014593
0.014593
0.014593
0.014593
0.014593
0.014593
0.014593
0.014593
0.014593
0.014593
0.014593
0.014593
0.014593
0.014593
0.014593
0.014593
0.014593
0.014593
0.014593
0.014593
0.014593
0.014593
0.014593
0.014593
0.014593
0.014593
0.014593
0.014593
0.014593
0.014593
0.014593
0.014593
0.014593
0.014593
0.014593
0.014593
0.014593
0.014593
0.014593
0.014593
0.014593
0.014593
0.014593
0.014593
0.014593
0.014593
0.014593
0.014593
0.014593
0.014593
0.014593
0.014593
0.014593
0.014593
0.014593
0.014593
0.014593
0.014593
0.014593
0.014593
0.014593
0.014593
0.014593
0.014593
0.014593
0.014593
0.014593
0.014593
0.014593
0.014593
0.014593
0.014593
0.014593
0.014593
0.014593
0.014593
0.014593
0.014593
0.014593
0.014593
0.014593
0.014593
0.014593
0.014593
0.014593
0.014593
0.014593
0.014593
0.014593
0.014593
0.014593
0.014593
0.014593
0.014593
0.014593
0.014593
0.014593
0.014593
0.014593
0.014593
0.014593
0.014593
0.014593
0.014593
0.014593
0.014593
0.014593
0.014593
0.014593
0.014593
0.014593
0.014593
0.014593
0.014593
0.014593
0.014593
0.014593
0.014593
0.014593
0.014593
0.014593
0.014593
0.014593
0.014593
0.014593
0.014593
0.014593
0.014593
0.014593
0.014593
0.014593
0.014593
0.014593
0.014593
0.014593
0.014593
0.014593
0.014593
0.014593
0.014593
0.014593
0.014593
0.014593
0.014593
0.014593
0.014593
0.014593
0.014593
0.014593
0.014593
0.014593
0.014593
0.014593
0.014593
0.014593
0.014593
0.014593
0.014593
0.014593
0.014593
0.014593
0.014593
0.014593
0.014593
0.014593
0.014593
0.014593
0.014593
0.014593
0.014593
0.014593
0.014593
0.014593
0.014593
0.014593
0.014593
0.014593
0.014593
0.014593
0.014593
0.014593
0.014593
0.014593
0.014593
0.014593
0.014593
0.014593
0.014593
0.014593
0.014593
0.014593
0.014593
0.014593
0.014593
0.014593
0.014593
0.014593
0.014593
0.014593
0.014593
0.014593
0.014593
0.014593
0.014593
0.014593
0.014593
0.014593
0.014593
0.014593
0.014593
0.014593
0.014593
0.014593
0.014593
0.014593
0.014593
0.014593
0.014593
0.014593
0.014593
0.014593
0.014593
0.014593
0.014593
0.014593
0.014593
0.014593
0.014593
0.014593
0.014593
0.014593
0.014593
0.014593
0.014593
0.014593
0.014593
0.014593
0.014593
0.014593
0.014593
0.014593
0.014593
0.014593
0.014593
0.014593
0.014593
0.014593
0.014593
0.014593
0.014593
0.014593
0.014593
0.014593
0.014593
0.014593
0.014593
0.014593
0.014593
0.014593
0.014593
0.014593
0.014593
0.014593
0.014593
0.014593
0.014593
0.014593
0.014593
0.014593
0.014593
0.014593
0.014593
0.014593
0.014593
0.014593
0.014593
0.014593
0.014593
0.014593
0.014593
0.014593
0.014593
0.014593
0.014593
0.014593
0.014593
0.014593
0.014593
0.014593
0.014593
0.014593
0.014593
0.014593
0.014593
0.014593
0.014593
0.014593
0.014593
0.014593
0.014593
0.014593
0.014593
0.014593
0.014593
0.014593
0.014593
0.014593
0.014593
0.014593
0.014593
0.014593
0.014593
0.014593
0.014593
0.014593
0.014593
0.014593
0.014593
0.014593
0.014593
0.014593
0.014593
0.014593
0.014593
0.014593
0.014593
0.014593
0.014593
0.014593
0.014593
0.014593
0.014593
0.0145931
0.0145931
0.0145931
0.014593
0.014593
0.014593
0.014593
0.014593
0.014593
0.014593
0.014593
0.014593
0.014593
0.014593
0.014593
0.014593
0.014593
0.014593
0.014593
0.014593
0.014593
0.014593
0.014593
0.014593
0.014593
0.014593
0.014593
0.014593
0.014593
0.014593
0.014593
0.014593
0.014593
0.014593
0.014593
0.014593
0.014593
0.014593
0.014593
0.014593
0.014593
0.014593
0.014593
0.014593
0.014593
0.014593
0.014593
0.0145931
0.0145931
0.0145931
0.0145932
0.0145933
0.0145934
0.014593
0.014593
0.014593
0.014593
0.014593
0.014593
0.014593
0.014593
0.014593
0.014593
0.014593
0.014593
0.014593
0.014593
0.014593
0.014593
0.014593
0.014593
0.014593
0.014593
0.014593
0.014593
0.014593
0.014593
0.014593
0.014593
0.014593
0.014593
0.014593
0.014593
0.014593
0.014593
0.014593
0.014593
0.014593
0.014593
0.014593
0.014593
0.014593
0.014593
0.014593
0.0145931
0.0145931
0.0145931
0.0145932
0.0145933
0.0145934
0.0145936
0.014594
0.0145945
0.014593
0.014593
0.014593
0.014593
0.014593
0.014593
0.014593
0.014593
0.014593
0.014593
0.014593
0.014593
0.014593
0.014593
0.014593
0.014593
0.014593
0.014593
0.014593
0.014593
0.014593
0.014593
0.014593
0.014593
0.014593
0.014593
0.014593
0.014593
0.014593
0.014593
0.014593
0.014593
0.014593
0.014593
0.014593
0.014593
0.014593
0.014593
0.0145931
0.0145931
0.0145931
0.0145932
0.0145933
0.0145934
0.0145937
0.014594
0.0145945
0.0145953
0.0145964
0.0145983
0.014593
0.014593
0.014593
0.014593
0.014593
0.014593
0.014593
0.014593
0.014593
0.014593
0.014593
0.014593
0.014593
0.014593
0.014593
0.014593
0.014593
0.014593
0.014593
0.014593
0.014593
0.014593
0.014593
0.014593
0.014593
0.014593
0.014593
0.014593
0.014593
0.014593
0.014593
0.014593
0.014593
0.014593
0.014593
0.0145931
0.0145931
0.0145931
0.0145932
0.0145933
0.0145935
0.0145937
0.014594
0.0145946
0.0145953
0.0145965
0.0145983
0.0146009
0.014605
0.0146115
0.014593
0.014593
0.014593
0.014593
0.014593
0.014593
0.014593
0.014593
0.014593
0.014593
0.014593
0.014593
0.014593
0.014593
0.014593
0.014593
0.014593
0.014593
0.014593
0.014593
0.014593
0.014593
0.014593
0.014593
0.014593
0.014593
0.014593
0.014593
0.014593
0.014593
0.014593
0.0145931
0.0145931
0.0145931
0.0145932
0.0145932
0.0145934
0.0145935
0.0145938
0.0145941
0.0145947
0.0145955
0.0145966
0.0145984
0.0146011
0.0146051
0.0146112
0.0146203
0.0146343
0.0146561
0.014593
0.014593
0.014593
0.014593
0.014593
0.014593
0.014593
0.014593
0.014593
0.014593
0.014593
0.014593
0.014593
0.014593
0.014593
0.014593
0.014593
0.014593
0.014593
0.014593
0.014593
0.014593
0.014593
0.014593
0.014593
0.014593
0.014593
0.014593
0.0145931
0.0145931
0.0145931
0.0145932
0.0145933
0.0145934
0.0145936
0.0145938
0.0145942
0.0145948
0.0145956
0.0145969
0.0145987
0.0146015
0.0146055
0.0146116
0.0146207
0.0146343
0.0146546
0.0146851
0.0147313
0.0148026
0.014593
0.014593
0.014593
0.014593
0.014593
0.014593
0.014593
0.014593
0.014593
0.014593
0.014593
0.014593
0.014593
0.014593
0.014593
0.014593
0.014593
0.014593
0.014593
0.014593
0.014593
0.014593
0.014593
0.014593
0.0145931
0.0145931
0.0145931
0.0145932
0.0145932
0.0145933
0.0145934
0.0145936
0.0145939
0.0145944
0.014595
0.0145959
0.0145972
0.0145991
0.014602
0.0146062
0.0146125
0.0146217
0.0146354
0.0146556
0.0146857
0.0147303
0.0147966
0.0148949
0.0150414
0.0152616
0.014593
0.014593
0.014593
0.014593
0.014593
0.014593
0.014593
0.014593
0.014593
0.014593
0.014593
0.014593
0.014593
0.014593
0.014593
0.014593
0.014593
0.014593
0.014593
0.014593
0.014593
0.0145931
0.0145931
0.0145931
0.0145932
0.0145933
0.0145934
0.0145935
0.0145937
0.0145941
0.0145945
0.0145952
0.0145962
0.0145976
0.0145997
0.0146028
0.0146072
0.0146137
0.0146233
0.0146373
0.0146579
0.0146882
0.0147328
0.0147983
0.0148944
0.0150351
0.01524
0.0155363
0.0159615
0.0165673
0.014593
0.014593
0.014593
0.014593
0.014593
0.014593
0.014593
0.014593
0.014593
0.014593
0.014593
0.014593
0.014593
0.014593
0.014593
0.014593
0.014593
0.0145931
0.0145931
0.0145931
0.0145932
0.0145932
0.0145933
0.0145934
0.0145936
0.0145939
0.0145942
0.0145948
0.0145955
0.0145966
0.0145982
0.0146005
0.0146038
0.0146086
0.0146155
0.0146256
0.0146402
0.0146615
0.0146926
0.014738
0.014804
0.0149001
0.0150394
0.0152404
0.0155279
0.0159347
0.0165012
0.0172741
0.0183043
0.0196401
0.014593
0.014593
0.014593
0.014593
0.014593
0.014593
0.014593
0.014593
0.014593
0.014593
0.014593
0.014593
0.014593
0.0145931
0.0145931
0.0145931
0.0145931
0.0145932
0.0145933
0.0145934
0.0145935
0.0145937
0.014594
0.0145945
0.0145951
0.014596
0.0145972
0.014599
0.0146015
0.0146051
0.0146103
0.0146178
0.0146286
0.0146442
0.0146667
0.0146992
0.0147461
0.0148139
0.0149116
0.015052
0.0152528
0.0155377
0.0159373
0.0164891
0.0172358
0.0182206
0.0194813
0.021043
0.0229146
0.0250806
0.014593
0.014593
0.014593
0.014593
0.014593
0.014593
0.014593
0.014593
0.014593
0.0145931
0.0145931
0.0145931
0.0145931
0.0145932
0.0145932
0.0145933
0.0145935
0.0145937
0.0145939
0.0145943
0.0145948
0.0145955
0.0145965
0.0145979
0.0145999
0.0146028
0.0146069
0.0146127
0.0146209
0.0146327
0.0146496
0.0146737
0.0147082
0.0147577
0.0148284
0.0149295
0.0150735
0.0152774
0.0155643
0.0159631
0.0165094
0.0172431
0.0182045
0.0194284
0.0209369
0.0227339
0.0248025
0.0271077
0.0296043
0.0322331
0.014593
0.014593
0.014593
0.014593
0.014593
0.0145931
0.0145931
0.0145931
0.0145931
0.0145932
0.0145932
0.0145933
0.0145934
0.0145936
0.0145938
0.0145941
0.0145946
0.0145952
0.014596
0.0145972
0.0145989
0.0146012
0.0146045
0.0146092
0.0146157
0.014625
0.014638
0.0146566
0.0146829
0.0147202
0.0147732
0.0148483
0.0149547
0.0151047
0.0153153
0.0156087
0.0160129
0.0165615
0.0172921
0.0182423
0.0194444
0.0209188
0.0226694
0.0246804
0.026918
0.0293345
0.0318748
0.0344809
0.0370929
0.0396589
0.014593
0.0145931
0.0145931
0.0145931
0.0145931
0.0145932
0.0145932
0.0145933
0.0145934
0.0145936
0.0145938
0.0145941
0.0145944
0.014595
0.0145957
0.0145968
0.0145982
0.0146002
0.0146029
0.0146068
0.0146121
0.0146197
0.0146302
0.014645
0.0146657
0.0146949
0.014736
0.0147937
0.0148748
0.0149885
0.0151475
0.0153684
0.015673
0.0160886
0.0166472
0.0173841
0.0183341
0.0195269
0.0209808
0.0226987
0.0246663
0.0268523
0.0292127
0.0316959
0.0342467
0.0368055
0.0393154
0.0417266
0.043989
0.0460561
0.0145931
0.0145931
0.0145932
0.0145932
0.0145933
0.0145934
0.0145936
0.0145938
0.014594
0.0145944
0.0145949
0.0145955
0.0145965
0.0145977
0.0145995
0.0146019
0.0146052
0.0146097
0.0146161
0.0146249
0.0146371
0.014654
0.0146777
0.0147106
0.0147565
0.0148204
0.0149094
0.015033
0.0152039
0.0154392
0.0157602
0.0161935
0.0167698
0.0175221
0.0184826
0.0196775
0.021123
0.0228205
0.0247558
0.0268998
0.0292118
0.031644
0.0341455
0.0366631
0.0391417
0.0415324
0.0437884
0.045856
0.0476762
0.0491994
0.050427
0.0145933
0.0145934
0.0145936
0.0145938
0.014594
0.0145944
0.0145948
0.0145955
0.0145963
0.0145975
0.014599
0.0146012
0.0146041
0.0146082
0.0146137
0.0146213
0.0146317
0.0146461
0.0146659
0.0146932
0.014731
0.0147831
0.014855
0.0149542
0.0150905
0.0152773
0.0155315
0.0158746
0.0163324
0.0169343
0.0177111
0.018692
0.0199001
0.0213483
0.0230363
0.0249495
0.0270602
0.0293303
0.0317157
0.0341695
0.0366435
0.039087
0.0414535
0.0437001
0.0457809
0.0476411
0.0492295
0.0505171
0.0515102
0.0522381
0.0527635
0.0145938
0.014594
0.0145944
0.0145948
0.0145955
0.0145963
0.0145974
0.0145989
0.0146009
0.0146036
0.0146073
0.0146122
0.014619
0.0146283
0.0146408
0.014658
0.0146815
0.0147136
0.0147576
0.0148177
0.0148999
0.0150121
0.0151648
0.0153717
0.0156502
0.0160217
0.0165113
0.0171472
0.0179576
0.0189688
0.0202001
0.0216612
0.0233495
0.0252495
0.0273344
0.0295685
0.0319109
0.0343183
0.0367471
0.0391512
0.0414864
0.0437133
0.0457922
0.047675
0.0493116
0.0506665
0.0517322
0.0525312
0.0531034
0.0534991
0.0537616
0.0539367
0.0145955
0.0145964
0.0145974
0.0145989
0.0146008
0.0146034
0.0146069
0.0146115
0.0146178
0.0146263
0.0146377
0.0146531
0.014674
0.0147023
0.0147406
0.0147926
0.014863
0.0149583
0.0150872
0.0152606
0.0154929
0.0158019
0.0162089
0.0167385
0.017417
0.0182703
0.019321
0.0205849
0.0220678
0.0237647
0.0256591
0.0277247
0.0299279
0.0322306
0.0345929
0.0369753
0.0393363
0.0416345
0.0438332
0.0458971
0.0477849
0.0494499
0.0508538
0.0519805
0.0528418
0.053471
0.0539111
0.0542083
0.0544003
0.0545202
0.0545915
0.054629
0.014601
0.0146036
0.014607
0.0146115
0.0146175
0.0146255
0.0146362
0.0146505
0.0146697
0.0146955
0.0147301
0.0147765
0.0148389
0.0149225
0.0150347
0.0151846
0.0153841
0.0156482
0.015995
0.0164457
0.017024
0.0177544
0.0186597
0.0197588
0.0210634
0.0225758
0.0242882
0.0261828
0.0282341
0.0304101
0.0326756
0.0349939
0.0373289
0.0396436
0.0418996
0.0440628
0.0461011
0.0479794
0.0496554
0.0510902
0.0522621
0.0531744
0.0538535
0.0543367
0.0546667
0.0548838
0.0550185
0.0550987
0.05514
0.0551502
0.0551476
0.0551427
0.014618
0.0146258
0.0146362
0.01465
0.0146682
0.0146925
0.0147247
0.0147676
0.0148247
0.0149006
0.0150014
0.015135
0.0153116
0.0155439
0.0158474
0.0162405
0.0167442
0.0173807
0.0181722
0.0191385
0.020294
0.0216464
0.0231942
0.0249269
0.0268261
0.0288663
0.0310176
0.0332472
0.0355218
0.0378084
0.0400738
0.0422832
0.0444044
0.0464086
0.0482651
0.0499364
0.0513851
0.0525867
0.0535379
0.0542572
0.0547777
0.0551383
0.0553788
0.0555298
0.0556187
0.0556673
0.0556811
0.0556742
0.0556631
0.055643
0.0556051
0.0555569
0.0146693
0.0146929
0.014724
0.0147649
0.0148189
0.0148899
0.0149835
0.0151065
0.0152676
0.015478
0.0157512
0.0161032
0.0165524
0.0171191
0.0178239
0.0186859
0.0197211
0.0209399
0.0223454
0.0239325
0.0256887
0.0275945
0.0296252
0.0317527
0.0339468
0.036177
0.0384136
0.0406269
0.0427852
0.0448588
0.0468215
0.048646
0.0502994
0.0517469
0.0529628
0.053939
0.0546884
0.0552394
0.0556266
0.0558872
0.0560536
0.0561519
0.0562061
0.0562241
0.0562159
0.0562008
0.0561793
0.0561426
0.0560919
0.0560333
0.0559672
0.0558998
0.0148207
0.0148894
0.0149791
0.0150958
0.0152474
0.0154437
0.0156967
0.0160206
0.0164317
0.0169481
0.0175887
0.0183717
0.0193129
0.020424
0.021711
0.0231727
0.0248011
0.0265815
0.028494
0.0305149
0.032618
0.0347756
0.03696
0.0391446
0.0413027
0.0434057
0.0454263
0.0473405
0.0491241
0.0507484
0.0521813
0.0533971
0.0543851
0.0551537
0.0557264
0.0561341
0.0564119
0.056592
0.0566988
0.0567566
0.0567791
0.0567715
0.0567517
0.0567264
0.0566915
0.0566405
0.0565802
0.0565128
0.0564398
0.056366
0.0562937
0.0562234
0.0152487
0.0154375
0.0156786
0.0159849
0.0163711
0.0168533
0.0174487
0.0181741
0.0190447
0.0200724
0.0212644
0.0226222
0.0241409
0.0258096
0.0276125
0.0295298
0.0315388
0.0336153
0.0357341
0.0378704
0.0400002
0.0420997
0.0441431
0.0461055
0.047965
0.0497001
0.0512853
0.0526917
0.0538944
0.0548815
0.0556581
0.0562433
0.056665
0.0569557
0.0571459
0.0572596
0.0573215
0.0573467
0.0573392
0.0573159
0.0572863
0.0572501
0.0571989
0.0571368
0.0570687
0.0569931
0.0569152
0.0568375
0.0567609
0.0566846
0.0566094
0.0565358
0.0168265
0.0173928
0.0180792
0.0188997
0.0198657
0.0209849
0.0222599
0.0236881
0.0252614
0.0269672
0.0287886
0.0307064
0.0326996
0.0347459
0.0368226
0.0389074
0.0409791
0.0430163
0.0449957
0.0468948
0.0486937
0.0503732
0.0519106
0.0532798
0.0544576
0.0554318
0.0562052
0.0567937
0.0572225
0.057521
0.0577172
0.0578359
0.0579007
0.0579263
0.0579191
0.0578947
0.0578591
0.0578191
0.0577684
0.0577049
0.0576344
0.057557
0.0574751
0.0573928
0.0573114
0.0572307
0.0571503
0.0570706
0.0569913
0.0569128
0.0568354
0.0197914
0.0208579
0.0220701
0.0234268
0.0249217
0.0265444
0.0282808
0.0301144
0.0320268
0.0339986
0.0360097
0.0380397
0.040069
0.0420785
0.0440492
0.0459601
0.0477909
0.0495237
0.0511411
0.0526229
0.0539456
0.0550879
0.0560382
0.0567977
0.0573806
0.057809
0.0581092
0.058308
0.0584292
0.0584946
0.0585191
0.0585119
0.0584859
0.0584446
0.0583993
0.0583483
0.0582823
0.0582087
0.0581307
0.0580457
0.0579593
0.0578732
0.0577878
0.0577027
0.0576182
0.0575344
0.0574509
0.0573677
0.0572847
0.0572024
0.0571207
0.0247794
0.0263337
0.0279972
0.0297556
0.0315929
0.0334922
0.0354357
0.0374056
0.0393835
0.0413523
0.0432951
0.0451949
0.0470326
0.04879
0.0504512
0.0520005
0.0534197
0.0546875
0.0557848
0.0567011
0.0574372
0.0580055
0.0584258
0.0587221
0.0589193
0.0590398
0.0591039
0.0591264
0.0591178
0.0590885
0.059043
0.0589925
0.0589383
0.0588705
0.0587941
0.0587135
0.058626
0.0585351
0.0584447
0.058355
0.0582656
0.0581766
0.0580883
0.0580003
0.0579126
0.0578252
0.057738
0.057651
0.057564
0.0574775
0.0573915
0.0332242
0.0351013
0.0370086
0.0389301
0.0408499
0.0427528
0.0446241
0.0464482
0.0482078
0.0498868
0.0514711
0.0529467
0.0542968
0.0555023
0.0565461
0.0574195
0.0581234
0.0586688
0.059074
0.0593608
0.0595516
0.059668
0.0597289
0.0597478
0.0597365
0.0597039
0.0596544
0.0595974
0.0595385
0.0594696
0.05939
0.0593059
0.0592163
0.0591217
0.0590268
0.0589325
0.0588386
0.0587448
0.058652
0.0585597
0.0584678
0.0583761
0.0582847
0.0581934
0.0581022
0.058011
0.0579199
0.0578287
0.057738
0.0576476
0.0405787
0.0424338
0.0442651
0.0460595
0.0478028
0.0494792
0.051075
0.0525775
0.0539739
0.0552489
0.0563852
0.0573682
0.0581908
0.0588546
0.0593698
0.0597535
0.0600255
0.0602053
0.0603145
0.0603699
0.0603828
0.0603679
0.0603316
0.0602775
0.0602142
0.0601499
0.0600788
0.0599952
0.0599071
0.0598158
0.0597178
0.0596185
0.05952
0.0594216
0.0593234
0.059226
0.0591292
0.0590328
0.0589367
0.058841
0.0587456
0.0586503
0.0585551
0.0584599
0.0583647
0.0582695
0.0581743
0.0580789
0.0579839
0.0578891
0.0475935
0.0492507
0.0508392
0.0523468
0.0537627
0.055075
0.0562694
0.0573304
0.0582461
0.0590112
0.0596279
0.0601067
0.0604632
0.060715
0.06088
0.0609792
0.0610269
0.0610315
0.0610122
0.060971
0.0609111
0.0608427
0.0607726
0.0606977
0.0606105
0.0605185
0.0604239
0.060323
0.0602192
0.0601163
0.0600138
0.0599113
0.0598095
0.0597083
0.0596076
0.0595072
0.0594072
0.0593075
0.059208
0.0591087
0.0590095
0.0589103
0.0588112
0.0587121
0.0586129
0.0585135
0.0584141
0.0583145
0.0582152
0.058116
0.0536936
0.0550183
0.0562416
0.0573502
0.0583306
0.0591734
0.0598753
0.0604394
0.0608765
0.0612008
0.0614279
0.0615755
0.0616614
0.0616983
0.0616941
0.0616693
0.061622
0.0615556
0.0614822
0.0614062
0.0613258
0.0612358
0.0611397
0.0610409
0.0609372
0.0608296
0.0607222
0.0606154
0.0605085
0.060402
0.0602964
0.0601914
0.0600867
0.0599826
0.0598788
0.0597751
0.0596717
0.0595685
0.0594653
0.0593622
0.0592592
0.0591561
0.0590531
0.0589499
0.0588466
0.0587431
0.0586395
0.0585356
0.058432
0.0583283
0.0584822
0.0593775
0.0601429
0.060777
0.0612842
0.0616754
0.0619637
0.0621623
0.0622896
0.0623598
0.062383
0.0623712
0.062338
0.0622834
0.0622106
0.062132
0.06205
0.0619638
0.0618705
0.06177
0.0616667
0.0615599
0.0614485
0.0613367
0.0612259
0.0611148
0.0610039
0.0608938
0.0607845
0.0606754
0.0605668
0.0604588
0.060351
0.0602436
0.0601364
0.0600293
0.0599223
0.0598154
0.0597085
0.0596016
0.0594947
0.0593877
0.0592806
0.0591733
0.0590659
0.0589582
0.0588503
0.0587422
0.0586342
0.058526
0.0617091
0.0621566
0.0624988
0.0627476
0.0629158
0.0630205
0.0630731
0.0630805
0.0630602
0.0630176
0.0629547
0.062876
0.0627913
0.0627031
0.0626112
0.0625138
0.0624089
0.0623011
0.0621909
0.0620759
0.0619596
0.0618445
0.0617293
0.061614
0.0614998
0.0613862
0.0612729
0.0611601
0.0610479
0.060936
0.0608243
0.060713
0.0606019
0.060491
0.0603802
0.0602696
0.0601589
0.0600483
0.0599376
0.0598268
0.059716
0.0596049
0.0594938
0.0593824
0.0592708
0.0591589
0.0590467
0.0589342
0.0588218
0.0587091
0.0635487
0.0636858
0.0637656
0.063798
0.0637903
0.0637599
0.0637072
0.0636353
0.0635502
0.0634593
0.063365
0.0632674
0.0631647
0.0630557
0.0629435
0.0628294
0.0627109
0.0625905
0.062471
0.0623519
0.0622324
0.0621138
0.061996
0.0618785
0.0617616
0.0616453
0.0615293
0.0614136
0.0612983
0.0611832
0.0610683
0.0609536
0.060839
0.0607246
0.0606102
0.0604959
0.0603815
0.0602671
0.0601525
0.0600378
0.059923
0.0598079
0.0596927
0.0595771
0.0594613
0.0593451
0.0592287
0.0591118
0.058995
0.0588777
0.0645122
0.0644685
0.0644048
0.0643241
0.0642325
0.0641353
0.0640349
0.0639316
0.0638233
0.0637101
0.0635934
0.0634749
0.0633528
0.0632284
0.0631047
0.0629818
0.0628584
0.0627354
0.0626135
0.062492
0.0623709
0.0622504
0.0621304
0.0620107
0.0618915
0.0617725
0.0616538
0.0615352
0.0614168
0.0612986
0.0611804
0.0610624
0.0609443
0.0608263
0.0607082
0.06059
0.0604718
0.0603533
0.0602347
0.0601158
0.0599967
0.0598772
0.0597575
0.0596374
0.0595169
0.0593962
0.0592749
0.0591536
0.0590318
0.0650206
0.0649218
0.0648182
0.0647118
0.0646028
0.0644891
0.0643714
0.0642503
0.0641273
0.0640014
0.0638733
0.0637454
0.0636186
0.0634913
0.063364
0.0632382
0.0631128
0.0629876
0.0628631
0.0627391
0.0626155
0.0624923
0.0623694
0.0622468
0.0621244
0.0620023
0.0618804
0.0617586
0.0616368
0.0615152
0.0613935
0.0612718
0.0611501
0.0610284
0.0609065
0.0607845
0.0606624
0.06054
0.0604173
0.0602944
0.0601711
0.0600475
0.0599235
0.0597991
0.0596744
0.0595492
0.0594235
0.0592977
0.0591714
0.065395
0.0652802
0.0651611
0.0650387
0.0649133
0.064786
0.0646561
0.0645243
0.0643925
0.0642618
0.0641307
0.0639994
0.0638697
0.0637404
0.0636111
0.0634827
0.0633549
0.0632274
0.0631003
0.0629736
0.0628472
0.0627211
0.0625952
0.0624695
0.062344
0.0622187
0.0620935
0.0619683
0.0618431
0.061718
0.0615927
0.0614675
0.0613421
0.0612166
0.0610909
0.060965
0.0608388
0.0607124
0.0605857
0.0604587
0.0603312
0.0602034
0.0600752
0.0599465
0.0598173
0.0596878
0.0595577
0.0594274
0.0592965
0.0655818
0.0654501
0.0653162
0.0651808
0.0650453
0.0649107
0.0647759
0.0646409
0.0645073
0.0643742
0.0642411
0.0641089
0.0639773
0.0638459
0.063715
0.0635846
0.0634545
0.0633246
0.0631951
0.0630657
0.0629366
0.0628077
0.0626789
0.0625502
0.0624215
0.0622929
0.0621643
0.0620357
0.061907
0.0617781
0.0616492
0.0615201
0.0613907
0.0612612
0.0611313
0.0610012
0.0608708
0.06074
0.0606087
0.0604771
0.060345
0.0602125
0.0600795
0.059946
0.059812
0.0596774
0.0595426
0.0594072
0.0658421
0.065703
0.0655646
0.0654263
0.0652877
0.0651504
0.0650137
0.0648769
0.0647409
0.0646057
0.0644706
0.064336
0.0642019
0.0640681
0.0639346
0.0638015
0.0636686
0.0635359
0.0634034
0.0632711
0.0631389
0.0630068
0.0628747
0.0627427
0.0626108
0.0624788
0.0623467