/*--------------------------------*- C++ -*----------------------------------*\
| =========                 |                                                 |
| \\      /  F ield         | OpenFOAM: The Open Source CFD Toolbox           |
|  \\    /   O peration     | Version:  v1706                                 |
|   \\  /    A nd           | Web:      www.OpenFOAM.com                      |
|    \\/     M anipulation  |                                                 |
\*---------------------------------------------------------------------------*/
FoamFile
{
    version     2.0;
    format      ascii;
    class       volScalarField;
    location    "3.9e-05";
    object      kappave;
}
// * * * * * * * * * * * * * * * * * * * * * * * * * * * * * * * * * * * * * //

dimensions      [1 1 -3 -1 0 0 0];


internalField   nonuniform List<scalar> 
30038
(
1.46038e-10
1.46038e-10
1.46038e-10
1.46038e-10
1.46038e-10
1.46038e-10
1.46038e-10
1.46038e-10
1.46038e-10
1.46038e-10
1.46038e-10
1.46038e-10
1.46038e-10
1.46038e-10
1.46038e-10
1.46038e-10
1.46038e-10
1.46038e-10
1.46038e-10
1.46038e-10
1.46038e-10
1.46038e-10
1.46038e-10
1.46038e-10
1.46038e-10
1.46038e-10
1.46038e-10
1.46038e-10
1.46038e-10
1.46038e-10
1.46038e-10
1.46038e-10
1.46038e-10
1.46038e-10
1.46038e-10
1.46038e-10
1.46038e-10
1.46038e-10
1.46038e-10
1.46038e-10
1.46038e-10
1.46038e-10
1.46038e-10
1.46038e-10
1.46038e-10
1.46038e-10
1.46038e-10
1.46038e-10
1.46038e-10
1.46038e-10
1.46038e-10
1.46038e-10
1.46038e-10
1.46038e-10
1.46038e-10
1.46038e-10
1.46038e-10
1.46038e-10
1.46038e-10
1.46038e-10
1.46038e-10
1.46038e-10
1.46038e-10
1.46038e-10
1.46038e-10
1.46038e-10
1.46038e-10
1.46038e-10
1.46038e-10
1.46038e-10
1.46038e-10
1.46038e-10
1.46038e-10
1.46038e-10
1.46038e-10
1.46038e-10
1.46038e-10
1.46038e-10
1.46038e-10
1.46038e-10
1.46038e-10
1.46038e-10
1.46038e-10
1.46038e-10
1.46038e-10
1.46038e-10
1.46038e-10
1.46038e-10
1.46038e-10
1.46038e-10
1.46038e-10
1.46038e-10
1.46038e-10
1.46038e-10
1.46038e-10
1.46038e-10
1.46038e-10
1.46038e-10
1.46038e-10
1.46038e-10
1.46038e-10
1.46038e-10
1.46038e-10
1.46038e-10
1.46038e-10
1.46038e-10
1.46038e-10
1.46038e-10
1.46038e-10
1.46038e-10
1.46038e-10
1.46038e-10
1.46038e-10
1.46038e-10
1.46038e-10
1.46038e-10
1.46038e-10
1.46038e-10
1.46038e-10
1.46038e-10
1.46038e-10
1.46038e-10
1.46038e-10
1.46038e-10
1.46038e-10
1.46038e-10
1.46038e-10
1.46038e-10
1.46038e-10
1.46038e-10
1.46038e-10
1.46038e-10
1.46038e-10
1.46038e-10
1.46038e-10
1.46038e-10
1.46038e-10
1.46038e-10
1.46038e-10
1.46038e-10
1.46038e-10
1.46038e-10
1.46038e-10
1.46038e-10
1.46038e-10
1.46038e-10
1.46038e-10
1.46038e-10
1.46038e-10
1.46038e-10
1.46038e-10
1.46038e-10
1.46038e-10
1.46038e-10
1.46038e-10
1.46038e-10
1.46038e-10
1.46038e-10
1.46038e-10
1.46038e-10
1.46038e-10
1.46038e-10
1.46038e-10
1.46038e-10
1.46038e-10
1.46038e-10
1.46038e-10
1.46038e-10
1.46038e-10
1.46038e-10
1.46038e-10
1.46038e-10
1.46038e-10
1.46038e-10
1.46038e-10
1.46038e-10
1.46038e-10
1.46038e-10
1.46038e-10
1.46038e-10
1.46038e-10
1.46038e-10
1.46038e-10
1.46038e-10
1.46038e-10
1.46038e-10
1.46038e-10
1.46038e-10
1.46038e-10
1.46038e-10
1.46038e-10
1.46038e-10
1.46038e-10
1.46038e-10
1.46038e-10
1.46038e-10
1.46038e-10
1.46038e-10
1.46038e-10
1.46038e-10
1.46038e-10
1.46038e-10
1.46038e-10
1.46038e-10
1.46038e-10
1.46038e-10
1.46038e-10
1.46038e-10
1.46038e-10
1.46038e-10
1.46038e-10
1.46038e-10
1.46038e-10
1.46038e-10
1.46038e-10
1.46038e-10
1.46038e-10
1.46038e-10
1.46038e-10
1.46038e-10
1.46038e-10
1.46038e-10
1.46038e-10
1.46038e-10
1.46038e-10
1.46038e-10
1.46038e-10
1.46038e-10
1.46038e-10
1.46038e-10
1.46038e-10
1.46038e-10
1.46038e-10
1.46038e-10
1.46038e-10
1.46038e-10
1.46038e-10
1.46038e-10
1.46038e-10
1.46038e-10
1.46038e-10
1.46038e-10
1.46038e-10
1.46038e-10
1.46038e-10
1.46038e-10
1.46038e-10
1.46038e-10
1.46038e-10
1.46038e-10
1.46038e-10
1.46038e-10
1.46038e-10
1.46038e-10
1.46038e-10
1.46038e-10
1.46038e-10
1.46038e-10
1.46038e-10
1.46038e-10
1.46038e-10
1.46038e-10
1.46038e-10
1.46038e-10
1.46038e-10
1.46038e-10
1.46038e-10
1.46038e-10
1.46038e-10
1.46038e-10
1.46038e-10
1.46038e-10
1.46038e-10
1.46038e-10
1.46038e-10
1.46038e-10
1.46038e-10
1.46038e-10
1.46038e-10
1.46038e-10
1.46038e-10
1.46038e-10
1.46038e-10
1.46038e-10
1.46038e-10
1.46038e-10
1.46038e-10
1.46038e-10
1.46038e-10
1.46038e-10
1.46038e-10
1.46038e-10
1.46038e-10
1.46038e-10
1.46038e-10
1.46038e-10
1.46038e-10
1.46038e-10
1.46038e-10
1.46038e-10
1.46038e-10
1.46038e-10
1.46038e-10
1.46038e-10
1.46038e-10
1.46038e-10
1.46038e-10
1.46038e-10
1.46038e-10
1.46038e-10
1.46038e-10
1.46038e-10
1.46038e-10
1.46038e-10
1.46038e-10
1.46038e-10
1.46038e-10
1.46038e-10
1.46038e-10
1.46038e-10
1.46038e-10
1.46038e-10
1.46038e-10
1.46038e-10
1.46038e-10
1.46038e-10
1.46038e-10
1.46038e-10
1.46038e-10
1.46038e-10
1.46038e-10
1.46038e-10
1.46038e-10
1.46038e-10
1.46038e-10
1.46038e-10
1.46038e-10
1.46038e-10
1.46038e-10
1.46038e-10
1.46038e-10
1.46038e-10
1.46038e-10
1.46038e-10
1.46038e-10
1.46038e-10
1.46038e-10
1.46038e-10
1.46038e-10
1.46038e-10
1.46038e-10
1.46038e-10
1.46038e-10
1.46038e-10
1.46038e-10
1.46038e-10
1.46038e-10
1.46038e-10
1.46038e-10
1.46038e-10
1.46038e-10
1.46038e-10
1.46038e-10
1.46038e-10
1.46038e-10
1.46038e-10
1.46038e-10
1.46038e-10
1.46038e-10
1.46038e-10
1.46038e-10
1.46038e-10
1.46038e-10
1.46038e-10
1.46038e-10
1.46038e-10
1.46038e-10
1.46038e-10
1.46038e-10
1.46038e-10
1.46038e-10
1.46038e-10
1.46038e-10
1.46038e-10
1.46038e-10
1.46038e-10
1.46038e-10
1.46038e-10
1.46038e-10
1.46038e-10
1.46038e-10
1.46038e-10
1.46038e-10
1.46038e-10
1.46038e-10
1.46038e-10
1.46038e-10
1.46038e-10
1.46038e-10
1.46038e-10
1.46038e-10
1.46038e-10
1.46038e-10
1.46038e-10
1.46038e-10
1.46038e-10
1.46038e-10
1.46038e-10
1.46038e-10
1.46038e-10
1.46038e-10
1.46038e-10
1.46038e-10
1.46038e-10
1.46038e-10
1.46038e-10
1.46038e-10
1.46038e-10
1.46038e-10
1.46038e-10
1.46038e-10
1.46038e-10
1.46038e-10
1.46038e-10
1.46038e-10
1.46038e-10
1.46038e-10
1.46038e-10
1.46038e-10
1.46038e-10
1.46038e-10
1.46038e-10
1.46038e-10
1.46038e-10
1.46038e-10
1.46038e-10
1.46038e-10
1.46038e-10
1.46038e-10
1.46038e-10
1.46038e-10
1.46038e-10
1.46038e-10
1.46038e-10
1.46038e-10
1.46038e-10
1.46038e-10
1.46038e-10
1.46038e-10
1.46038e-10
1.46038e-10
1.46038e-10
1.46038e-10
1.46038e-10
1.46038e-10
1.46038e-10
1.46038e-10
1.46038e-10
1.46038e-10
1.46038e-10
1.46038e-10
1.46038e-10
1.46038e-10
1.46038e-10
1.46038e-10
1.46038e-10
1.46038e-10
1.46038e-10
1.46038e-10
1.46038e-10
1.46038e-10
1.46038e-10
1.46038e-10
1.46038e-10
1.46038e-10
1.46038e-10
1.46038e-10
1.46038e-10
1.46038e-10
1.46038e-10
1.46038e-10
1.46038e-10
1.46038e-10
1.46038e-10
1.46038e-10
1.46038e-10
1.46038e-10
1.46038e-10
1.46038e-10
1.46038e-10
1.46038e-10
1.46038e-10
1.46038e-10
1.46038e-10
1.46038e-10
1.46038e-10
1.46038e-10
1.46038e-10
1.46038e-10
1.46038e-10
1.46038e-10
1.46038e-10
1.46038e-10
1.46038e-10
1.46038e-10
1.46038e-10
1.46038e-10
1.46038e-10
1.46038e-10
1.46038e-10
1.46038e-10
1.46038e-10
1.46038e-10
1.46038e-10
1.46038e-10
1.46038e-10
1.46038e-10
1.46038e-10
1.46038e-10
1.46038e-10
1.46038e-10
1.46038e-10
1.46038e-10
1.46038e-10
1.46038e-10
1.46038e-10
1.46038e-10
1.46038e-10
1.46038e-10
1.46038e-10
1.46038e-10
1.46038e-10
1.46038e-10
1.46038e-10
1.46038e-10
1.46038e-10
1.46038e-10
1.46038e-10
1.46038e-10
1.46038e-10
1.46038e-10
1.46038e-10
1.46038e-10
1.46038e-10
1.46038e-10
1.46038e-10
1.46038e-10
1.46038e-10
1.46038e-10
1.46038e-10
1.46038e-10
1.46038e-10
1.46038e-10
1.46038e-10
1.46038e-10
1.46038e-10
1.46038e-10
1.46038e-10
1.46038e-10
1.46038e-10
1.46038e-10
1.46038e-10
1.46038e-10
1.46038e-10
1.46038e-10
1.46038e-10
1.46038e-10
1.46038e-10
1.46038e-10
1.46038e-10
1.46038e-10
1.46038e-10
1.46038e-10
1.46038e-10
1.46038e-10
1.46038e-10
1.46038e-10
1.46038e-10
1.46038e-10
1.46038e-10
1.46038e-10
1.46038e-10
1.46038e-10
1.46038e-10
1.46038e-10
1.46038e-10
1.46038e-10
1.46038e-10
1.46038e-10
1.46038e-10
1.46038e-10
1.46038e-10
1.46038e-10
1.46038e-10
1.46038e-10
1.46038e-10
1.46038e-10
1.46038e-10
1.46038e-10
1.46038e-10
1.46038e-10
1.46038e-10
1.46038e-10
1.46038e-10
1.46038e-10
1.46038e-10
1.46038e-10
1.46038e-10
1.46038e-10
1.46038e-10
1.46038e-10
1.46038e-10
1.46038e-10
1.46038e-10
1.46038e-10
1.46038e-10
1.46038e-10
1.46038e-10
1.46038e-10
1.46038e-10
1.46038e-10
1.46038e-10
1.46038e-10
1.46038e-10
1.46038e-10
1.46038e-10
1.46038e-10
1.46038e-10
1.46038e-10
1.46038e-10
1.46038e-10
1.46038e-10
1.46038e-10
1.46038e-10
1.46038e-10
1.46038e-10
1.46038e-10
1.46038e-10
1.46038e-10
1.46038e-10
1.46038e-10
1.46038e-10
1.46038e-10
1.46038e-10
1.46038e-10
1.46038e-10
1.46038e-10
1.46038e-10
1.46038e-10
1.46038e-10
1.46038e-10
1.46038e-10
1.46038e-10
1.46038e-10
1.46038e-10
1.46038e-10
1.46038e-10
1.46038e-10
1.46038e-10
1.46038e-10
1.46038e-10
1.46038e-10
1.46038e-10
1.46038e-10
1.46038e-10
1.46038e-10
1.46038e-10
1.46038e-10
1.46038e-10
1.46038e-10
1.46038e-10
1.46038e-10
1.46038e-10
1.46038e-10
1.46038e-10
1.46038e-10
1.46038e-10
1.46038e-10
1.46038e-10
1.46038e-10
1.46038e-10
1.46038e-10
1.46038e-10
1.46038e-10
1.46038e-10
1.46038e-10
1.46038e-10
1.46038e-10
1.46038e-10
1.46038e-10
1.46038e-10
1.46038e-10
1.46038e-10
1.46038e-10
1.46038e-10
1.46038e-10
1.46038e-10
1.46038e-10
1.46038e-10
1.46038e-10
1.46038e-10
1.46038e-10
1.46038e-10
1.46038e-10
1.46038e-10
1.46038e-10
1.46038e-10
1.46038e-10
1.46038e-10
1.46038e-10
1.46038e-10
1.46038e-10
1.46038e-10
1.46038e-10
1.46038e-10
1.46038e-10
1.46038e-10
1.46038e-10
1.46038e-10
1.46038e-10
1.46038e-10
1.46038e-10
1.46038e-10
1.46038e-10
1.46038e-10
1.46038e-10
1.46038e-10
1.46038e-10
1.46038e-10
1.46038e-10
1.46038e-10
1.46038e-10
1.46038e-10
1.46038e-10
1.46038e-10
1.46038e-10
1.46038e-10
1.46038e-10
1.46038e-10
1.46038e-10
1.46038e-10
1.46038e-10
1.46038e-10
1.46038e-10
1.46038e-10
1.46038e-10
1.46038e-10
1.46038e-10
1.46038e-10
1.46038e-10
1.46038e-10
1.46038e-10
1.46038e-10
1.46038e-10
1.46038e-10
1.46038e-10
1.46038e-10
1.46038e-10
1.46038e-10
1.46038e-10
1.46038e-10
1.46038e-10
1.46038e-10
1.46038e-10
1.46038e-10
1.46038e-10
1.46038e-10
1.46038e-10
1.46038e-10
1.46038e-10
1.46038e-10
1.46038e-10
1.46038e-10
1.46038e-10
1.46038e-10
1.46038e-10
1.46038e-10
1.46038e-10
1.46038e-10
1.46038e-10
1.46038e-10
1.46038e-10
1.46038e-10
1.46038e-10
1.46038e-10
1.46038e-10
1.46038e-10
1.46038e-10
1.46038e-10
1.46038e-10
1.46038e-10
1.46038e-10
1.46038e-10
1.46038e-10
1.46038e-10
1.46038e-10
1.46038e-10
1.46038e-10
1.46038e-10
1.46038e-10
1.46038e-10
1.46038e-10
1.46038e-10
1.46038e-10
1.46038e-10
1.46038e-10
1.46038e-10
1.46038e-10
1.46038e-10
1.46038e-10
1.46038e-10
1.46038e-10
1.46038e-10
1.46038e-10
1.46038e-10
1.46038e-10
1.46038e-10
1.46038e-10
1.46038e-10
1.46038e-10
1.46038e-10
1.46038e-10
1.46038e-10
1.46038e-10
1.46038e-10
1.46038e-10
1.46038e-10
1.46038e-10
1.46038e-10
1.46038e-10
1.46038e-10
1.46038e-10
1.46038e-10
1.46038e-10
1.46038e-10
1.46038e-10
1.46038e-10
1.46038e-10
1.46038e-10
1.46038e-10
1.46038e-10
1.46038e-10
1.46038e-10
1.46038e-10
1.46038e-10
1.46038e-10
1.46038e-10
1.46038e-10
1.46038e-10
1.46038e-10
1.46038e-10
1.46038e-10
1.46038e-10
1.46038e-10
1.46038e-10
1.46038e-10
1.46038e-10
1.46038e-10
1.46038e-10
1.46038e-10
1.46038e-10
1.46038e-10
1.46038e-10
1.46038e-10
1.46038e-10
1.46038e-10
1.46038e-10
1.46038e-10
1.46038e-10
1.46038e-10
1.46038e-10
1.46038e-10
1.46038e-10
1.46038e-10
1.46038e-10
1.46038e-10
1.46038e-10
1.46038e-10
1.46038e-10
1.46038e-10
1.46038e-10
1.46038e-10
1.46038e-10
1.46038e-10
1.46038e-10
1.46038e-10
1.46038e-10
1.46038e-10
1.46038e-10
1.46038e-10
1.46038e-10
1.46038e-10
1.46038e-10
1.46038e-10
1.46038e-10
1.46038e-10
1.46038e-10
1.46038e-10
1.46038e-10
1.46038e-10
1.46038e-10
1.46038e-10
1.46038e-10
1.46038e-10
1.46038e-10
1.46038e-10
1.46038e-10
1.46038e-10
1.46038e-10
1.46038e-10
1.46038e-10
1.46038e-10
1.46038e-10
1.46038e-10
1.46038e-10
1.46038e-10
1.46038e-10
1.46038e-10
1.46038e-10
1.46038e-10
1.46038e-10
1.46038e-10
1.46038e-10
1.46038e-10
1.46038e-10
1.46038e-10
1.46038e-10
1.46038e-10
1.46038e-10
1.46038e-10
1.46038e-10
1.46038e-10
1.46038e-10
1.46038e-10
1.46038e-10
1.46038e-10
1.46038e-10
1.46038e-10
1.46038e-10
1.46038e-10
1.46038e-10
1.46038e-10
1.46038e-10
1.46038e-10
1.46038e-10
1.46038e-10
1.46038e-10
1.46038e-10
1.46038e-10
1.46038e-10
1.46038e-10
1.46038e-10
1.46038e-10
1.46038e-10
1.46038e-10
1.46038e-10
1.46038e-10
1.46038e-10
1.46038e-10
1.46038e-10
1.46038e-10
1.46038e-10
1.46038e-10
1.46038e-10
1.46038e-10
1.46038e-10
1.46038e-10
1.46038e-10
1.46038e-10
1.46038e-10
1.46038e-10
1.46038e-10
1.46038e-10
1.46038e-10
1.46038e-10
1.46038e-10
1.46038e-10
1.46038e-10
1.46038e-10
1.46038e-10
1.46038e-10
1.46038e-10
1.46038e-10
1.46038e-10
1.46038e-10
1.46038e-10
1.46038e-10
1.46038e-10
1.46038e-10
1.46038e-10
1.46038e-10
1.46038e-10
1.46038e-10
1.46038e-10
1.46038e-10
1.46038e-10
1.46038e-10
1.46038e-10
1.46038e-10
1.46038e-10
1.46038e-10
1.46038e-10
1.46038e-10
1.46038e-10
1.46038e-10
1.46038e-10
1.46038e-10
1.46038e-10
1.46038e-10
1.46038e-10
1.46038e-10
1.46038e-10
1.46038e-10
1.46038e-10
1.46038e-10
1.46038e-10
1.46038e-10
1.46038e-10
1.46038e-10
1.46038e-10
1.46038e-10
1.46038e-10
1.46038e-10
1.46038e-10
1.46038e-10
1.46038e-10
1.46038e-10
1.46038e-10
1.46038e-10
1.46038e-10
1.46038e-10
1.46038e-10
1.46038e-10
1.46038e-10
1.46038e-10
1.46038e-10
1.46038e-10
1.46038e-10
1.46038e-10
1.46038e-10
1.46038e-10
1.46038e-10
1.46038e-10
1.46038e-10
1.46038e-10
1.46038e-10
1.46038e-10
1.46038e-10
1.46038e-10
1.46038e-10
1.46038e-10
1.46038e-10
1.46038e-10
1.46038e-10
1.46038e-10
1.46038e-10
1.46038e-10
1.46038e-10
1.46038e-10
1.46038e-10
1.46038e-10
1.46038e-10
1.46038e-10
1.46038e-10
1.46038e-10
1.46038e-10
1.46038e-10
1.46038e-10
1.46038e-10
1.46038e-10
1.46038e-10
1.46038e-10
1.46038e-10
1.46038e-10
1.46038e-10
1.46038e-10
1.46038e-10
1.46038e-10
1.46038e-10
1.46038e-10
1.46038e-10
1.46038e-10
1.46038e-10
1.46038e-10
1.46038e-10
1.46038e-10
1.46038e-10
1.46038e-10
1.46038e-10
1.46038e-10
1.46038e-10
1.46038e-10
1.46038e-10
1.46038e-10
1.46038e-10
1.46038e-10
1.46038e-10
1.46038e-10
1.46038e-10
1.46038e-10
1.46038e-10
1.46038e-10
1.46038e-10
1.46038e-10
1.46038e-10
1.46038e-10
1.46038e-10
1.46038e-10
1.46038e-10
1.46038e-10
1.46038e-10
1.46038e-10
1.46038e-10
1.46038e-10
1.46038e-10
1.46038e-10
1.46038e-10
1.46038e-10
1.46038e-10
1.46038e-10
1.46038e-10
1.46038e-10
1.46038e-10
1.46038e-10
1.46038e-10
1.46038e-10
1.46038e-10
1.46038e-10
1.46038e-10
1.46038e-10
1.46038e-10
1.46038e-10
1.46038e-10
1.46038e-10
1.46038e-10
1.46038e-10
1.46038e-10
1.46038e-10
1.46038e-10
1.46038e-10
1.46038e-10
1.46038e-10
1.46038e-10
1.46038e-10
1.46038e-10
1.46038e-10
1.46038e-10
1.46038e-10
1.46038e-10
1.46038e-10
1.46038e-10
1.46038e-10
1.46038e-10
1.46038e-10
1.46038e-10
1.46038e-10
1.46038e-10
1.46038e-10
1.46038e-10
1.46038e-10
1.46038e-10
1.46038e-10
1.46038e-10
1.46038e-10
1.46038e-10
1.46038e-10
1.46038e-10
1.46038e-10
1.46038e-10
1.46038e-10
1.46038e-10
1.46038e-10
1.46038e-10
1.46038e-10
1.46038e-10
1.46038e-10
1.46038e-10
1.46038e-10
1.46038e-10
1.46038e-10
1.46038e-10
1.46038e-10
1.46038e-10
1.46038e-10
1.46038e-10
1.46038e-10
1.46038e-10
1.46038e-10
1.46038e-10
1.46038e-10
1.46038e-10
1.46038e-10
1.46038e-10
1.46038e-10
1.46038e-10
1.46038e-10
1.46038e-10
1.46038e-10
1.46038e-10
1.46038e-10
1.46038e-10
1.46038e-10
1.46038e-10
1.46038e-10
1.46038e-10
1.46038e-10
1.46038e-10
1.46038e-10
1.46038e-10
1.46038e-10
1.46038e-10
1.46038e-10
1.46038e-10
1.46038e-10
1.46038e-10
1.46038e-10
1.46038e-10
1.46038e-10
1.46038e-10
1.46038e-10
1.46038e-10
1.46038e-10
1.46038e-10
1.46038e-10
1.46038e-10
1.46038e-10
1.46038e-10
1.46038e-10
1.46038e-10
1.46038e-10
1.46038e-10
1.46038e-10
1.46038e-10
1.46038e-10
1.46038e-10
1.46038e-10
1.46038e-10
1.46038e-10
1.46038e-10
1.46038e-10
1.46038e-10
1.46039e-10
1.46038e-10
1.46038e-10
1.46038e-10
1.46038e-10
1.46038e-10
1.46038e-10
1.46038e-10
1.46038e-10
1.46038e-10
1.46038e-10
1.46038e-10
1.46038e-10
1.46038e-10
1.46038e-10
1.46038e-10
1.46038e-10
1.46038e-10
1.46038e-10
1.46038e-10
1.46038e-10
1.46038e-10
1.46038e-10
1.46038e-10
1.46038e-10
1.46038e-10
1.46038e-10
1.46038e-10
1.46038e-10
1.46038e-10
1.46038e-10
1.46038e-10
1.46038e-10
1.46038e-10
1.46038e-10
1.46038e-10
1.46038e-10
1.46038e-10
1.46038e-10
1.46038e-10
1.46038e-10
1.46038e-10
1.46038e-10
1.46038e-10
1.46038e-10
1.46038e-10
1.46038e-10
1.46039e-10
1.46039e-10
1.4604e-10
1.46042e-10
1.46038e-10
1.46038e-10
1.46038e-10
1.46038e-10
1.46038e-10
1.46038e-10
1.46038e-10
1.46038e-10
1.46038e-10
1.46038e-10
1.46038e-10
1.46038e-10
1.46038e-10
1.46038e-10
1.46038e-10
1.46038e-10
1.46038e-10
1.46038e-10
1.46038e-10
1.46038e-10
1.46038e-10
1.46038e-10
1.46038e-10
1.46038e-10
1.46038e-10
1.46038e-10
1.46038e-10
1.46038e-10
1.46038e-10
1.46038e-10
1.46038e-10
1.46038e-10
1.46038e-10
1.46038e-10
1.46038e-10
1.46038e-10
1.46038e-10
1.46038e-10
1.46038e-10
1.46038e-10
1.46038e-10
1.46038e-10
1.46038e-10
1.46039e-10
1.4604e-10
1.4604e-10
1.46042e-10
1.46044e-10
1.46048e-10
1.46053e-10
1.46038e-10
1.46038e-10
1.46038e-10
1.46038e-10
1.46038e-10
1.46038e-10
1.46038e-10
1.46038e-10
1.46038e-10
1.46038e-10
1.46038e-10
1.46038e-10
1.46038e-10
1.46038e-10
1.46038e-10
1.46038e-10
1.46038e-10
1.46038e-10
1.46038e-10
1.46038e-10
1.46038e-10
1.46038e-10
1.46038e-10
1.46038e-10
1.46038e-10
1.46038e-10
1.46038e-10
1.46038e-10
1.46038e-10
1.46038e-10
1.46038e-10
1.46038e-10
1.46038e-10
1.46038e-10
1.46038e-10
1.46038e-10
1.46038e-10
1.46038e-10
1.46038e-10
1.46039e-10
1.46039e-10
1.4604e-10
1.46041e-10
1.46042e-10
1.46044e-10
1.46048e-10
1.46053e-10
1.46061e-10
1.46073e-10
1.46093e-10
1.46038e-10
1.46038e-10
1.46038e-10
1.46038e-10
1.46038e-10
1.46038e-10
1.46038e-10
1.46038e-10
1.46038e-10
1.46038e-10
1.46038e-10
1.46038e-10
1.46038e-10
1.46038e-10
1.46038e-10
1.46038e-10
1.46038e-10
1.46038e-10
1.46038e-10
1.46038e-10
1.46038e-10
1.46038e-10
1.46038e-10
1.46038e-10
1.46038e-10
1.46038e-10
1.46038e-10
1.46038e-10
1.46038e-10
1.46038e-10
1.46038e-10
1.46038e-10
1.46038e-10
1.46038e-10
1.46038e-10
1.46038e-10
1.46039e-10
1.46039e-10
1.4604e-10
1.46041e-10
1.46042e-10
1.46045e-10
1.46048e-10
1.46054e-10
1.46062e-10
1.46074e-10
1.46092e-10
1.4612e-10
1.46164e-10
1.46234e-10
1.46038e-10
1.46038e-10
1.46038e-10
1.46038e-10
1.46038e-10
1.46038e-10
1.46038e-10
1.46038e-10
1.46038e-10
1.46038e-10
1.46038e-10
1.46038e-10
1.46038e-10
1.46038e-10
1.46038e-10
1.46038e-10
1.46038e-10
1.46038e-10
1.46038e-10
1.46038e-10
1.46038e-10
1.46038e-10
1.46038e-10
1.46038e-10
1.46038e-10
1.46038e-10
1.46038e-10
1.46038e-10
1.46038e-10
1.46038e-10
1.46038e-10
1.46038e-10
1.46038e-10
1.46039e-10
1.46039e-10
1.4604e-10
1.46041e-10
1.46043e-10
1.46045e-10
1.46049e-10
1.46055e-10
1.46063e-10
1.46075e-10
1.46094e-10
1.46123e-10
1.46166e-10
1.46231e-10
1.4633e-10
1.46484e-10
1.46729e-10
1.46038e-10
1.46038e-10
1.46038e-10
1.46038e-10
1.46038e-10
1.46038e-10
1.46038e-10
1.46038e-10
1.46038e-10
1.46038e-10
1.46038e-10
1.46038e-10
1.46038e-10
1.46038e-10
1.46038e-10
1.46038e-10
1.46038e-10
1.46038e-10
1.46038e-10
1.46038e-10
1.46038e-10
1.46038e-10
1.46038e-10
1.46038e-10
1.46038e-10
1.46038e-10
1.46038e-10
1.46038e-10
1.46038e-10
1.46039e-10
1.46039e-10
1.4604e-10
1.4604e-10
1.46042e-10
1.46043e-10
1.46046e-10
1.4605e-10
1.46056e-10
1.46065e-10
1.46078e-10
1.46098e-10
1.46127e-10
1.46171e-10
1.46237e-10
1.46336e-10
1.46487e-10
1.46716e-10
1.47064e-10
1.47602e-10
1.48456e-10
1.46038e-10
1.46038e-10
1.46038e-10
1.46038e-10
1.46038e-10
1.46038e-10
1.46038e-10
1.46038e-10
1.46038e-10
1.46038e-10
1.46038e-10
1.46038e-10
1.46038e-10
1.46038e-10
1.46038e-10
1.46038e-10
1.46038e-10
1.46038e-10
1.46038e-10
1.46038e-10
1.46038e-10
1.46038e-10
1.46038e-10
1.46038e-10
1.46038e-10
1.46038e-10
1.46039e-10
1.46039e-10
1.4604e-10
1.46041e-10
1.46042e-10
1.46044e-10
1.46047e-10
1.46052e-10
1.46058e-10
1.46068e-10
1.46082e-10
1.46102e-10
1.46133e-10
1.46179e-10
1.46247e-10
1.46349e-10
1.46503e-10
1.46733e-10
1.4708e-10
1.47606e-10
1.48403e-10
1.49616e-10
1.51479e-10
1.54406e-10
1.46038e-10
1.46038e-10
1.46038e-10
1.46038e-10
1.46038e-10
1.46038e-10
1.46038e-10
1.46038e-10
1.46038e-10
1.46038e-10
1.46038e-10
1.46038e-10
1.46038e-10
1.46038e-10
1.46038e-10
1.46038e-10
1.46038e-10
1.46038e-10
1.46038e-10
1.46038e-10
1.46038e-10
1.46038e-10
1.46039e-10
1.46039e-10
1.4604e-10
1.4604e-10
1.46041e-10
1.46043e-10
1.46045e-10
1.46049e-10
1.46054e-10
1.46061e-10
1.46071e-10
1.46087e-10
1.46109e-10
1.46142e-10
1.46191e-10
1.46263e-10
1.4637e-10
1.46529e-10
1.46766e-10
1.47121e-10
1.47653e-10
1.48453e-10
1.49659e-10
1.51478e-10
1.54225e-10
1.58376e-10
1.64671e-10
1.74369e-10
1.46038e-10
1.46038e-10
1.46038e-10
1.46038e-10
1.46038e-10
1.46038e-10
1.46038e-10
1.46038e-10
1.46038e-10
1.46038e-10
1.46038e-10
1.46038e-10
1.46038e-10
1.46038e-10
1.46038e-10
1.46038e-10
1.46038e-10
1.46038e-10
1.46038e-10
1.46039e-10
1.46039e-10
1.4604e-10
1.46041e-10
1.46042e-10
1.46044e-10
1.46047e-10
1.46051e-10
1.46056e-10
1.46064e-10
1.46076e-10
1.46093e-10
1.46118e-10
1.46154e-10
1.46207e-10
1.46284e-10
1.46398e-10
1.46566e-10
1.46816e-10
1.47186e-10
1.47736e-10
1.48558e-10
1.49787e-10
1.51626e-10
1.54382e-10
1.58507e-10
1.64673e-10
1.73863e-10
1.87511e-10
2.07756e-10
2.37975e-10
1.46038e-10
1.46038e-10
1.46038e-10
1.46038e-10
1.46038e-10
1.46038e-10
1.46038e-10
1.46038e-10
1.46038e-10
1.46038e-10
1.46038e-10
1.46038e-10
1.46038e-10
1.46038e-10
1.46038e-10
1.46039e-10
1.46039e-10
1.4604e-10
1.4604e-10
1.46042e-10
1.46043e-10
1.46045e-10
1.46049e-10
1.46053e-10
1.4606e-10
1.46069e-10
1.46082e-10
1.46101e-10
1.46129e-10
1.46169e-10
1.46228e-10
1.46313e-10
1.46437e-10
1.46619e-10
1.46886e-10
1.47279e-10
1.47861e-10
1.48722e-10
1.5e-10
1.51901e-10
1.54727e-10
1.58931e-10
1.65173e-10
1.74415e-10
1.88042e-10
2.08012e-10
2.37066e-10
2.78972e-10
3.38932e-10
4.24256e-10
1.46038e-10
1.46038e-10
1.46038e-10
1.46038e-10
1.46038e-10
1.46038e-10
1.46038e-10
1.46038e-10
1.46038e-10
1.46038e-10
1.46038e-10
1.46039e-10
1.46039e-10
1.4604e-10
1.4604e-10
1.46041e-10
1.46043e-10
1.46044e-10
1.46047e-10
1.46051e-10
1.46056e-10
1.46064e-10
1.46075e-10
1.4609e-10
1.46113e-10
1.46144e-10
1.4619e-10
1.46256e-10
1.46351e-10
1.46489e-10
1.46689e-10
1.46981e-10
1.47409e-10
1.48035e-10
1.48957e-10
1.50315e-10
1.52319e-10
1.55279e-10
1.59653e-10
1.66107e-10
1.75609e-10
1.89543e-10
2.09867e-10
2.39293e-10
2.81483e-10
3.41219e-10
4.24491e-10
5.38561e-10
6.92335e-10
8.96832e-10
1.46038e-10
1.46038e-10
1.46038e-10
1.46038e-10
1.46038e-10
1.46038e-10
1.46038e-10
1.46039e-10
1.46039e-10
1.46039e-10
1.4604e-10
1.46041e-10
1.46042e-10
1.46044e-10
1.46046e-10
1.4605e-10
1.46054e-10
1.46061e-10
1.4607e-10
1.46083e-10
1.46101e-10
1.46128e-10
1.46165e-10
1.46218e-10
1.46293e-10
1.46402e-10
1.46558e-10
1.46783e-10
1.47109e-10
1.47583e-10
1.48273e-10
1.49279e-10
1.50752e-10
1.52911e-10
1.56078e-10
1.60725e-10
1.6754e-10
1.77513e-10
1.92058e-10
2.13166e-10
2.43585e-10
2.87011e-10
3.48242e-10
4.33231e-10
5.49018e-10
7.03531e-10
9.05332e-10
1.16355e-09
1.48844e-09
1.89289e-09
1.46038e-10
1.46038e-10
1.46038e-10
1.46039e-10
1.46039e-10
1.46039e-10
1.4604e-10
1.46041e-10
1.46042e-10
1.46044e-10
1.46046e-10
1.46049e-10
1.46053e-10
1.46059e-10
1.46067e-10
1.46078e-10
1.46094e-10
1.46116e-10
1.46148e-10
1.46192e-10
1.46254e-10
1.46343e-10
1.46469e-10
1.4665e-10
1.46908e-10
1.4728e-10
1.47816e-10
1.48591e-10
1.49714e-10
1.51346e-10
1.53722e-10
1.57183e-10
1.62229e-10
1.69579e-10
1.80269e-10
1.9577e-10
2.18139e-10
2.50207e-10
2.95754e-10
3.59658e-10
4.47941e-10
5.67683e-10
7.26838e-10
9.33882e-10
1.19753e-09
1.52625e-09
1.92794e-09
2.41018e-09
2.98211e-09
3.6581e-09
1.46039e-10
1.46039e-10
1.46039e-10
1.4604e-10
1.46041e-10
1.46042e-10
1.46044e-10
1.46046e-10
1.46048e-10
1.46052e-10
1.46058e-10
1.46065e-10
1.46075e-10
1.46089e-10
1.46109e-10
1.46136e-10
1.46175e-10
1.46228e-10
1.46304e-10
1.4641e-10
1.4656e-10
1.46773e-10
1.47076e-10
1.47509e-10
1.48128e-10
1.49018e-10
1.50299e-10
1.52147e-10
1.54818e-10
1.58684e-10
1.64281e-10
1.72383e-10
1.8409e-10
2.0096e-10
2.25158e-10
2.5964e-10
3.08323e-10
3.76215e-10
4.69458e-10
5.95225e-10
7.61523e-10
9.7688e-10
1.25001e-09
1.58956e-09
2.00329e-09
2.49837e-09
3.08073e-09
3.75452e-09
4.5212e-09
5.38419e-09
6.3649e-09
1.46041e-10
1.46042e-10
1.46044e-10
1.46046e-10
1.46048e-10
1.46052e-10
1.46057e-10
1.46064e-10
1.46074e-10
1.46087e-10
1.46105e-10
1.4613e-10
1.46164e-10
1.46212e-10
1.46278e-10
1.46371e-10
1.46501e-10
1.46683e-10
1.4694e-10
1.47303e-10
1.47817e-10
1.48549e-10
1.49593e-10
1.51086e-10
1.53224e-10
1.56295e-10
1.60709e-10
1.67058e-10
1.76185e-10
1.89286e-10
2.08041e-10
2.34766e-10
2.72591e-10
3.25622e-10
3.99052e-10
4.99185e-10
6.33322e-10
8.09544e-10
1.03645e-09
1.32278e-09
1.6772e-09
2.10764e-09
2.62132e-09
3.22436e-09
3.92129e-09
4.71374e-09
5.6006e-09
6.57994e-09
7.65137e-09
8.82175e-09
1.01331e-08
1.46046e-10
1.46049e-10
1.46053e-10
1.46058e-10
1.46065e-10
1.46074e-10
1.46086e-10
1.46103e-10
1.46127e-10
1.46159e-10
1.46203e-10
1.46264e-10
1.46348e-10
1.46464e-10
1.46626e-10
1.46852e-10
1.47169e-10
1.47613e-10
1.48238e-10
1.49122e-10
1.50374e-10
1.52153e-10
1.54685e-10
1.58295e-10
1.63449e-10
1.70812e-10
1.81324e-10
1.96311e-10
2.17612e-10
2.47746e-10
2.9007e-10
3.48935e-10
4.29772e-10
5.39088e-10
6.84338e-10
8.73699e-10
1.11582e-09
1.41948e-09
1.79329e-09
2.24537e-09
2.78284e-09
3.41203e-09
4.13778e-09
4.96246e-09
5.88532e-09
6.90398e-09
8.01632e-09
9.22263e-09
1.05255e-08
1.19302e-08
1.34486e-08
1.51405e-08
1.46066e-10
1.46075e-10
1.46088e-10
1.46105e-10
1.46127e-10
1.46158e-10
1.46201e-10
1.46258e-10
1.46337e-10
1.46446e-10
1.46595e-10
1.46802e-10
1.47089e-10
1.47487e-10
1.48043e-10
1.48821e-10
1.49912e-10
1.51449e-10
1.53617e-10
1.56683e-10
1.61026e-10
1.67183e-10
1.75917e-10
1.88298e-10
2.05821e-10
2.30537e-10
2.65218e-10
3.13512e-10
3.80069e-10
4.70604e-10
5.91866e-10
7.51489e-10
9.5776e-10
1.21936e-09
1.54506e-09
1.94344e-09
2.42267e-09
2.98983e-09
3.6513e-09
4.41203e-09
5.27493e-09
6.2398e-09
7.30419e-09
8.46522e-09
9.72165e-09
1.10749e-08
1.25282e-08
1.40872e-08
1.5758e-08
1.75482e-08
1.94731e-08
2.16062e-08
1.46131e-10
1.46163e-10
1.46205e-10
1.46262e-10
1.46339e-10
1.46444e-10
1.46587e-10
1.46783e-10
1.47053e-10
1.47424e-10
1.47937e-10
1.48649e-10
1.49639e-10
1.51019e-10
1.52949e-10
1.55654e-10
1.59454e-10
1.648e-10
1.72326e-10
1.82925e-10
1.97838e-10
2.18778e-10
2.48066e-10
2.88792e-10
3.44952e-10
4.21551e-10
5.24632e-10
6.61212e-10
8.39116e-10
1.06674e-09
1.35278e-09
1.70599e-09
2.13488e-09
2.64754e-09
3.25102e-09
3.95162e-09
4.75435e-09
5.66247e-09
6.67627e-09
7.79328e-09
9.01005e-09
1.03242e-08
1.1736e-08
1.32476e-08
1.4863e-08
1.65884e-08
1.84292e-08
2.03943e-08
2.2491e-08
2.47252e-08
2.71203e-08
2.97677e-08
1.46352e-10
1.46457e-10
1.466e-10
1.46794e-10
1.47057e-10
1.47417e-10
1.4791e-10
1.48587e-10
1.4952e-10
1.50809e-10
1.52596e-10
1.55078e-10
1.58534e-10
1.63356e-10
1.70091e-10
1.79506e-10
1.92664e-10
2.1103e-10
2.36595e-10
2.72018e-10
3.20775e-10
3.8727e-10
4.76914e-10
5.96108e-10
7.5215e-10
9.53056e-10
1.20731e-09
1.52361e-09
1.91065e-09
2.37683e-09
2.9301e-09
3.57746e-09
4.32497e-09
5.17769e-09
6.13897e-09
7.20944e-09
8.38674e-09
9.66714e-09
1.10473e-08
1.25261e-08
1.41046e-08
1.57857e-08
1.75752e-08
1.94777e-08
2.15002e-08
2.36521e-08
2.59368e-08
2.83659e-08
3.09546e-08
3.37068e-08
3.66372e-08
3.98535e-08
1.47103e-10
1.47465e-10
1.47958e-10
1.48627e-10
1.49542e-10
1.50795e-10
1.52515e-10
1.54884e-10
1.58154e-10
1.62677e-10
1.68942e-10
1.7763e-10
1.89682e-10
2.06388e-10
2.29501e-10
2.61363e-10
3.05047e-10
3.64482e-10
4.44542e-10
5.51077e-10
6.90863e-10
8.71479e-10
1.10111e-09
1.3883e-09
1.7417e-09
2.16991e-09
2.68119e-09
3.28326e-09
3.98301e-09
4.78627e-09
5.69798e-09
6.72142e-09
7.85739e-09
9.10374e-09
1.04564e-08
1.19113e-08
1.3466e-08
1.51209e-08
1.68778e-08
1.87406e-08
2.07146e-08
2.2805e-08
2.50217e-08
2.73685e-08
2.98523e-08
3.24915e-08
3.52907e-08
3.82531e-08
4.13885e-08
4.4711e-08
4.8242e-08
5.2107e-08
1.49709e-10
1.50976e-10
1.527e-10
1.55053e-10
1.58272e-10
1.62686e-10
1.68748e-10
1.77085e-10
1.88556e-10
2.04336e-10
2.26013e-10
2.55705e-10
2.96192e-10
3.51037e-10
4.24689e-10
5.22535e-10
6.50885e-10
8.16887e-10
1.02837e-09
1.29366e-09
1.62131e-09
2.01988e-09
2.49782e-09
3.06316e-09
3.72338e-09
4.4852e-09
5.3541e-09
6.33486e-09
7.43053e-09
8.64203e-09
9.96726e-09
1.14018e-08
1.29409e-08
1.45813e-08
1.63223e-08
1.81645e-08
2.01111e-08
2.2167e-08
2.43364e-08
2.66271e-08
2.90462e-08
3.15971e-08
3.42962e-08
3.71528e-08
4.01698e-08
4.33538e-08
4.67163e-08
5.02688e-08
5.40223e-08
5.7995e-08
6.22152e-08
6.68224e-08
1.58909e-10
1.63393e-10
1.69498e-10
1.7782e-10
1.89175e-10
2.04667e-10
2.2578e-10
2.54487e-10
2.93365e-10
3.45718e-10
4.15675e-10
5.08258e-10
6.29389e-10
7.85834e-10
9.85077e-10
1.23516e-09
1.54447e-09
1.92153e-09
2.37474e-09
2.91232e-09
3.54206e-09
4.27112e-09
5.10591e-09
6.05158e-09
7.11262e-09
8.29179e-09
9.58995e-09
1.10049e-08
1.25319e-08
1.41658e-08
1.59024e-08
1.77398e-08
1.96778e-08
2.17188e-08
2.3867e-08
2.61254e-08
2.85016e-08
3.10033e-08
3.36326e-08
3.64021e-08
3.93257e-08
4.24072e-08
4.56502e-08
4.90654e-08
5.2665e-08
5.64576e-08
6.04582e-08
6.46824e-08
6.91434e-08
7.38565e-08
7.88532e-08
8.42902e-08
2.07456e-10
2.28829e-10
2.57647e-10
2.9637e-10
3.48133e-10
4.16847e-10
5.07269e-10
6.25021e-10
7.7655e-10
9.69037e-10
1.21025e-09
1.50835e-09
1.87174e-09
2.30879e-09
2.82771e-09
3.43643e-09
4.14239e-09
4.95242e-09
5.8725e-09
6.9074e-09
8.06123e-09
9.33642e-09
1.07335e-08
1.22502e-08
1.38814e-08
1.56214e-08
1.74653e-08
1.94101e-08
2.14551e-08
2.36017e-08
2.58525e-08
2.82109e-08
3.0684e-08
3.3278e-08
3.59958e-08
3.88489e-08
4.18489e-08
4.50047e-08
4.83174e-08
5.17961e-08
5.54525e-08
5.9296e-08
6.33382e-08
6.75957e-08
7.20819e-08
7.68093e-08
8.17916e-08
8.70438e-08
9.25832e-08
9.84449e-08
1.04803e-07
3.58706e-10
4.28567e-10
5.19825e-10
6.37889e-10
7.88971e-10
9.79996e-10
1.21848e-09
1.51238e-09
1.8699e-09
2.29933e-09
2.80884e-09
3.40633e-09
4.0994e-09
4.89508e-09
5.79976e-09
6.81896e-09
7.95698e-09
9.2175e-09
1.06025e-08
1.21121e-08
1.37437e-08
1.54917e-08
1.735e-08
1.9313e-08
2.1377e-08
2.35406e-08
2.58038e-08