/*--------------------------------*- C++ -*----------------------------------*\
| =========                 |                                                 |
| \\      /  F ield         | OpenFOAM: The Open Source CFD Toolbox           |
|  \\    /   O peration     | Version:  v1706                                 |
|   \\  /    A nd           | Web:      www.OpenFOAM.com                      |
|    \\/     M anipulation  |                                                 |
\*---------------------------------------------------------------------------*/
FoamFile
{
    version     2.0;
    format      ascii;
    class       volScalarField;
    location    "3.9e-05";
    object      p;
}
// * * * * * * * * * * * * * * * * * * * * * * * * * * * * * * * * * * * * * //

dimensions      [1 -1 -2 0 0 0 0];


internalField   nonuniform List<scalar> 
30038
(
21.9139
21.9139
21.9139
21.9139
21.9139
21.9139
21.9139
21.9139
21.9139
21.9139
21.9139
21.9139
21.9139
21.9139
21.9139
21.9139
21.9139
21.9139
21.9139
21.9139
21.9139
21.9139
21.9139
21.9139
21.9139
21.9139
21.9139
21.9139
21.9139
21.9139
21.9139
21.9139
21.9139
21.9139
21.9139
21.9139
21.9139
21.9139
21.9139
21.9139
21.9139
21.9139
21.9139
21.9139
21.9139
21.9139
21.9139
21.9139
21.9139
21.9139
21.9139
21.9139
21.9139
21.9139
21.9139
21.9139
21.9139
21.9139
21.9139
21.9139
21.9139
21.9139
21.9139
21.9139
21.9139
21.9139
21.9139
21.9139
21.9139
21.9139
21.9139
21.9139
21.9139
21.9139
21.9139
21.9139
21.9139
21.9139
21.9139
21.9139
21.9139
21.9139
21.9139
21.9139
21.9139
21.9139
21.9139
21.9139
21.9139
21.9139
21.9139
21.9139
21.9139
21.9139
21.9139
21.9139
21.9139
21.9139
21.9139
21.9139
21.9139
21.9139
21.9139
21.9139
21.9139
21.9139
21.9139
21.9139
21.9139
21.9139
21.9139
21.9139
21.9139
21.9139
21.9139
21.9139
21.9139
21.9139
21.9139
21.9139
21.9139
21.9139
21.9139
21.9139
21.9139
21.9139
21.9139
21.9139
21.9139
21.9139
21.9139
21.9139
21.9139
21.9139
21.9139
21.9139
21.9139
21.9139
21.9139
21.9139
21.9139
21.9139
21.9139
21.9139
21.9139
21.9139
21.9139
21.9139
21.9139
21.9139
21.9139
21.9139
21.9139
21.9139
21.9139
21.9139
21.9139
21.9139
21.9139
21.9139
21.9139
21.9139
21.9139
21.9139
21.9139
21.9139
21.9139
21.9139
21.9139
21.9139
21.9139
21.9139
21.9139
21.9139
21.9139
21.9139
21.9139
21.9139
21.9139
21.9139
21.9139
21.9139
21.9139
21.9139
21.9139
21.9139
21.9139
21.9139
21.9139
21.9139
21.9139
21.9139
21.9139
21.9139
21.9139
21.9139
21.9139
21.9139
21.9139
21.9139
21.9139
21.9139
21.9139
21.9139
21.9139
21.9139
21.9139
21.9139
21.9139
21.9139
21.9139
21.9139
21.9139
21.9139
21.9139
21.9139
21.9139
21.9139
21.9139
21.9139
21.9139
21.9139
21.9139
21.9139
21.9139
21.9139
21.9139
21.9139
21.9139
21.9139
21.9139
21.9139
21.9139
21.9139
21.9139
21.9139
21.9139
21.9139
21.9139
21.9139
21.9139
21.9139
21.9139
21.9139
21.9139
21.9139
21.9139
21.9139
21.9139
21.9139
21.9139
21.9139
21.9139
21.9139
21.9139
21.9139
21.9139
21.9139
21.9139
21.9139
21.9139
21.9139
21.9139
21.9139
21.9139
21.9139
21.9139
21.9139
21.9139
21.9139
21.9139
21.9139
21.9139
21.9139
21.9139
21.9139
21.9139
21.9139
21.9139
21.9139
21.9139
21.9139
21.9139
21.9139
21.9139
21.9139
21.9139
21.9139
21.9139
21.9139
21.9139
21.9139
21.9139
21.9139
21.9139
21.9139
21.9139
21.9139
21.9139
21.9139
21.9139
21.9139
21.9139
21.9139
21.9139
21.9139
21.9139
21.9139
21.9139
21.9139
21.9139
21.9139
21.9139
21.9139
21.9139
21.9139
21.9139
21.9139
21.9139
21.9139
21.9139
21.9139
21.9139
21.9139
21.9139
21.9139
21.9139
21.9139
21.9139
21.9139
21.9139
21.9139
21.9139
21.9139
21.9139
21.9139
21.9139
21.9139
21.9139
21.9139
21.9139
21.9139
21.9139
21.9139
21.9139
21.9139
21.9139
21.9139
21.9139
21.9139
21.9139
21.9139
21.9139
21.9139
21.9139
21.9139
21.9139
21.9139
21.9139
21.9139
21.9139
21.9139
21.9139
21.9139
21.9139
21.9139
21.9139
21.9139
21.9139
21.9139
21.9139
21.9139
21.9139
21.9139
21.9139
21.9139
21.9139
21.9139
21.9139
21.9139
21.9139
21.9139
21.9139
21.9139
21.9139
21.9139
21.9139
21.9139
21.9139
21.9139
21.9139
21.9139
21.9139
21.9139
21.9139
21.9139
21.9139
21.9139
21.9139
21.9139
21.9139
21.9139
21.9139
21.9139
21.9139
21.9139
21.9139
21.9139
21.9139
21.9139
21.9139
21.9139
21.9139
21.9139
21.9139
21.9139
21.9139
21.9139
21.9139
21.9139
21.9139
21.9139
21.9139
21.9139
21.9139
21.9139
21.9139
21.9139
21.9139
21.9139
21.9139
21.9139
21.9139
21.9139
21.9139
21.9139
21.9139
21.9139
21.9139
21.9139
21.9139
21.9139
21.9139
21.9139
21.9139
21.9139
21.9139
21.9139
21.9139
21.9139
21.9139
21.9139
21.9139
21.9139
21.9139
21.9139
21.9139
21.9139
21.9139
21.9139
21.9139
21.9139
21.9139
21.9139
21.9139
21.9139
21.9139
21.9139
21.9139
21.9139
21.9139
21.9139
21.9139
21.9139
21.9139
21.9139
21.9139
21.9139
21.9139
21.9139
21.9139
21.9139
21.9139
21.9139
21.9139
21.9139
21.9139
21.9139
21.9139
21.9139
21.9139
21.9139
21.9139
21.9139
21.9139
21.9139
21.9139
21.9139
21.9139
21.9139
21.9139
21.9139
21.9139
21.9139
21.9139
21.9139
21.9139
21.9139
21.9139
21.9139
21.9139
21.9139
21.9139
21.9139
21.9139
21.9139
21.9139
21.9139
21.9139
21.9139
21.9139
21.9139
21.9139
21.9139
21.9139
21.9139
21.9139
21.9139
21.9139
21.9139
21.9139
21.9139
21.9139
21.9139
21.9139
21.9139
21.9139
21.9139
21.9139
21.9139
21.9139
21.9139
21.9139
21.9139
21.9139
21.9139
21.9139
21.9139
21.9139
21.9139
21.9139
21.9139
21.9139
21.9139
21.9139
21.9139
21.9139
21.9139
21.9139
21.9139
21.9139
21.9139
21.9139
21.9139
21.9139
21.9139
21.9139
21.9139
21.9139
21.9139
21.9139
21.9139
21.9139
21.9139
21.9139
21.9139
21.9139
21.9139
21.9139
21.9139
21.9139
21.9139
21.9139
21.9139
21.9139
21.9139
21.9139
21.9139
21.9139
21.9139
21.9139
21.9139
21.9139
21.9139
21.9139
21.9139
21.9139
21.9139
21.9139
21.9139
21.9139
21.9139
21.9139
21.9139
21.9139
21.9139
21.9139
21.9139
21.9139
21.9139
21.9139
21.9139
21.9139
21.9139
21.9139
21.9139
21.9139
21.9139
21.9139
21.9139
21.9139
21.9139
21.9139
21.9139
21.9139
21.9139
21.9139
21.9139
21.9139
21.9139
21.9139
21.9139
21.9139
21.9139
21.9139
21.9139
21.9139
21.9139
21.9139
21.9139
21.9139
21.9139
21.9139
21.9139
21.9139
21.9139
21.9139
21.9139
21.9139
21.9139
21.9139
21.9139
21.9139
21.9139
21.9139
21.9139
21.9139
21.9139
21.9139
21.9139
21.9139
21.9139
21.9139
21.9139
21.9139
21.9139
21.9139
21.9139
21.9139
21.9139
21.9139
21.9139
21.9139
21.9139
21.9139
21.9139
21.9139
21.9139
21.9139
21.9139
21.9139
21.9139
21.9139
21.9139
21.9139
21.9139
21.9139
21.9139
21.9139
21.9139
21.9139
21.9139
21.9139
21.9139
21.9139
21.9139
21.9139
21.9139
21.9139
21.9139
21.9139
21.9139
21.9139
21.9139
21.9139
21.9139
21.9139
21.9139
21.9139
21.9139
21.9139
21.9139
21.9139
21.9139
21.9139
21.9139
21.9139
21.9139
21.9139
21.9139
21.9139
21.9139
21.9139
21.9139
21.9139
21.9139
21.9139
21.9139
21.9139
21.9139
21.9139
21.9139
21.9139
21.9139
21.9139
21.9139
21.9139
21.9139
21.9139
21.9139
21.9139
21.9139
21.9139
21.9139
21.9139
21.9139
21.9139
21.9139
21.9139
21.9139
21.9139
21.9139
21.9139
21.9139
21.9139
21.9139
21.9139
21.9139
21.9139
21.9139
21.9139
21.9139
21.9139
21.9139
21.9139
21.9139
21.9139
21.9139
21.9139
21.9139
21.9139
21.9139
21.9139
21.9139
21.9139
21.9139
21.9139
21.9139
21.9139
21.9139
21.9139
21.9139
21.9139
21.9139
21.9139
21.9139
21.9139
21.9139
21.9139
21.9139
21.9139
21.9139
21.9139
21.9139
21.9139
21.9139
21.9139
21.9139
21.9139
21.9139
21.9139
21.9139
21.9139
21.9139
21.9139
21.9139
21.9139
21.9139
21.9139
21.9139
21.9139
21.9139
21.9139
21.9139
21.9139
21.9139
21.9139
21.9139
21.9139
21.9139
21.9139
21.9139
21.9139
21.9139
21.9139
21.9139
21.9139
21.9139
21.9139
21.9139
21.9139
21.9139
21.9139
21.9139
21.9139
21.9139
21.9139
21.9139
21.9139
21.9139
21.9139
21.9139
21.9139
21.9139
21.9139
21.9139
21.9139
21.9139
21.9139
21.9139
21.9139
21.9139
21.9139
21.9139
21.9139
21.9139
21.9139
21.9139
21.9139
21.9139
21.9139
21.9139
21.9139
21.9139
21.9139
21.9139
21.9139
21.9139
21.9139
21.9139
21.9139
21.9139
21.9139
21.9139
21.9139
21.9139
21.9139
21.9139
21.9139
21.9139
21.9139
21.9139
21.9139
21.9139
21.9139
21.9139
21.9139
21.9139
21.9139
21.9139
21.9139
21.9139
21.9139
21.9139
21.9139
21.9139
21.9139
21.9139
21.9139
21.9139
21.9139
21.9139
21.9139
21.9139
21.9139
21.9139
21.9139
21.9139
21.9139
21.9139
21.9139
21.9139
21.9139
21.9139
21.9139
21.9139
21.9139
21.9139
21.9139
21.9139
21.9139
21.9139
21.9139
21.9139
21.9139
21.9139
21.9139
21.9139
21.9139
21.9139
21.9139
21.9139
21.9139
21.9139
21.9139
21.9139
21.9139
21.9139
21.9139
21.9139
21.9139
21.9139
21.9139
21.9139
21.9139
21.9139
21.9139
21.9139
21.9139
21.9139
21.9139
21.9139
21.9139
21.9139
21.9139
21.9139
21.9139
21.9139
21.9139
21.9139
21.9139
21.9139
21.9139
21.9139
21.9139
21.9139
21.9139
21.9139
21.9139
21.9139
21.9139
21.9139
21.9139
21.9139
21.9139
21.9139
21.9139
21.9139
21.9139
21.9139
21.9139
21.9139
21.9139
21.9139
21.9139
21.9139
21.9139
21.9139
21.9139
21.9139
21.9139
21.9139
21.9139
21.9139
21.9139
21.9139
21.9139
21.9139
21.9139
21.9139
21.9139
21.9139
21.9139
21.9139
21.9139
21.9139
21.9139
21.9139
21.9139
21.9139
21.9139
21.9139
21.9139
21.9139
21.9139
21.9139
21.9139
21.9139
21.9139
21.9139
21.9139
21.9139
21.9139
21.9139
21.9139
21.9139
21.9139
21.9139
21.9139
21.9139
21.9139
21.9139
21.9139
21.9139
21.9139
21.9139
21.9139
21.9139
21.9139
21.9139
21.9139
21.9139
21.9139
21.9139
21.9139
21.9139
21.9139
21.9139
21.9139
21.9139
21.9139
21.9139
21.9139
21.9139
21.9139
21.9139
21.9139
21.9139
21.9139
21.9139
21.9139
21.9139
21.9139
21.9139
21.9139
21.9139
21.9139
21.9139
21.9139
21.9139
21.9139
21.9139
21.9139
21.9139
21.9139
21.9139
21.9139
21.9139
21.9139
21.9139
21.9139
21.9139
21.9139
21.9139
21.9139
21.9139
21.9139
21.9139
21.9139
21.9139
21.9139
21.9139
21.9139
21.9139
21.9139
21.9139
21.9139
21.9139
21.9139
21.9139
21.9139
21.9139
21.9139
21.9139
21.9139
21.9139
21.9139
21.9139
21.9139
21.9139
21.9139
21.9139
21.9139
21.9139
21.9139
21.9139
21.9139
21.9139
21.9139
21.9139
21.9139
21.9139
21.9139
21.9139
21.9139
21.9139
21.9139
21.9139
21.9139
21.9139
21.9139
21.9139
21.9139
21.9139
21.9139
21.9139
21.9139
21.9139
21.9139
21.9139
21.9139
21.9139
21.9139
21.9139
21.9139
21.9139
21.9139
21.9139
21.9139
21.9139
21.9139
21.9139
21.9139
21.9139
21.9139
21.9139
21.9139
21.9139
21.9139
21.9139
21.9139
21.9139
21.9139
21.9139
21.9139
21.9139
21.9139
21.9139
21.9139
21.9139
21.9139
21.9139
21.9139
21.9139
21.9139
21.9139
21.9139
21.9139
21.9139
21.9139
21.9139
21.9139
21.9139
21.9139
21.9139
21.9139
21.9139
21.9139
21.9139
21.9139
21.9139
21.914
21.9139
21.9139
21.9139
21.9139
21.9139
21.9139
21.9139
21.9139
21.9139
21.9139
21.9139
21.9139
21.9139
21.9139
21.9139
21.9139
21.9139
21.9139
21.9139
21.9139
21.9139
21.9139
21.9139
21.9139
21.9139
21.9139
21.9139
21.9139
21.9139
21.9139
21.9139
21.9139
21.9139
21.9139
21.9139
21.9139
21.9139
21.9139
21.9139
21.9139
21.9139
21.9139
21.9139
21.9139
21.9139
21.9139
21.914
21.914
21.9141
21.9142
21.9139
21.9139
21.9139
21.9139
21.9139
21.9139
21.9139
21.9139
21.9139
21.9139
21.9139
21.9139
21.9139
21.9139
21.9139
21.9139
21.9139
21.9139
21.9139
21.9139
21.9139
21.9139
21.9139
21.9139
21.9139
21.9139
21.9139
21.9139
21.9139
21.9139
21.9139
21.9139
21.9139
21.9139
21.9139
21.9139
21.9139
21.9139
21.9139
21.9139
21.9139
21.9139
21.9139
21.914
21.914
21.9141
21.9142
21.9143
21.9145
21.9148
21.9139
21.9139
21.9139
21.9139
21.9139
21.9139
21.9139
21.9139
21.9139
21.9139
21.9139
21.9139
21.9139
21.9139
21.9139
21.9139
21.9139
21.9139
21.9139
21.9139
21.9139
21.9139
21.9139
21.9139
21.9139
21.9139
21.9139
21.9139
21.9139
21.9139
21.9139
21.9139
21.9139
21.9139
21.9139
21.9139
21.9139
21.9139
21.9139
21.914
21.914
21.914
21.9141
21.9142
21.9143
21.9145
21.9148
21.9153
21.9161
21.9173
21.9139
21.9139
21.9139
21.9139
21.9139
21.9139
21.9139
21.9139
21.9139
21.9139
21.9139
21.9139
21.9139
21.9139
21.9139
21.9139
21.9139
21.9139
21.9139
21.9139
21.9139
21.9139
21.9139
21.9139
21.9139
21.9139
21.9139
21.9139
21.9139
21.9139
21.9139
21.9139
21.9139
21.9139
21.9139
21.9139
21.914
21.914
21.914
21.9141
21.9142
21.9143
21.9145
21.9149
21.9154
21.9161
21.9172
21.919
21.9216
21.9259
21.9139
21.9139
21.9139
21.9139
21.9139
21.9139
21.9139
21.9139
21.9139
21.9139
21.9139
21.9139
21.9139
21.9139
21.9139
21.9139
21.9139
21.9139
21.9139
21.9139
21.9139
21.9139
21.9139
21.9139
21.9139
21.9139
21.9139
21.9139
21.9139
21.9139
21.9139
21.9139
21.9139
21.914
21.914
21.914
21.9141
21.9142
21.9144
21.9146
21.9149
21.9155
21.9162
21.9174
21.9191
21.9217
21.9257
21.9317
21.9409
21.9555
21.9139
21.9139
21.9139
21.9139
21.9139
21.9139
21.9139
21.9139
21.9139
21.9139
21.9139
21.9139
21.9139
21.9139
21.9139
21.9139
21.9139
21.9139
21.9139
21.9139
21.9139
21.9139
21.9139
21.9139
21.9139
21.9139
21.9139
21.9139
21.9139
21.914
21.914
21.914
21.9141
21.9141
21.9143
21.9144
21.9147
21.915
21.9156
21.9164
21.9176
21.9194
21.922
21.926
21.932
21.9411
21.9546
21.9751
22.0065
22.0557
21.9139
21.9139
21.9139
21.9139
21.9139
21.9139
21.9139
21.9139
21.9139
21.9139
21.9139
21.9139
21.9139
21.9139
21.9139
21.9139
21.9139
21.9139
21.9139
21.9139
21.9139
21.9139
21.9139
21.9139
21.9139
21.9139
21.914
21.914
21.914
21.9141
21.9142
21.9143
21.9145
21.9148
21.9152
21.9158
21.9166
21.9179
21.9198
21.9226
21.9267
21.9328
21.942
21.9556
21.9759
22.0063
22.0519
22.1205
22.2243
22.3856
21.9139
21.9139
21.9139
21.9139
21.9139
21.9139
21.9139
21.9139
21.9139
21.9139
21.9139
21.9139
21.9139
21.9139
21.9139
21.9139
21.9139
21.9139
21.9139
21.9139
21.9139
21.9139
21.914
21.914
21.914
21.9141
21.9141
21.9142
21.9144
21.9146
21.9149
21.9153
21.916
21.9169
21.9183
21.9203
21.9233
21.9276
21.934
21.9435
21.9574
21.978
22.0086
22.054
22.1214
22.2216
22.3708
22.5931
22.9254
23.4314
21.9139
21.9139
21.9139
21.9139
21.9139
21.9139
21.9139
21.9139
21.9139
21.9139
21.9139
21.9139
21.9139
21.9139
21.9139
21.9139
21.9139
21.9139
21.9139
21.914
21.914
21.914
21.9141
21.9142
21.9143
21.9145
21.9147
21.9151
21.9156
21.9163
21.9173
21.9188
21.921
21.9242
21.9289
21.9357
21.9456
21.9602
21.9815
22.0128
22.0589
22.1268
22.2267
22.374
22.5909
22.9099
23.378
24.0624
25.0593
26.5194
21.9139
21.9139
21.9139
21.9139
21.9139
21.9139
21.9139
21.9139
21.9139
21.9139
21.9139
21.9139
21.9139
21.9139
21.9139
21.914
21.914
21.914
21.9141
21.9141
21.9142
21.9144
21.9146
21.9149
21.9153
21.9158
21.9167
21.9178
21.9195
21.922
21.9255
21.9306
21.9379
21.9486
21.964
21.9865
22.0191
22.0668
22.1363
22.2379
22.3862
22.6026
22.9181
23.3766
24.0397
24.992
26.3462
28.2483
30.8813
34.5006
21.9139
21.9139
21.9139
21.9139
21.9139
21.9139
21.9139
21.9139
21.9139
21.9139
21.9139
21.914
21.914
21.914
21.9141
21.9141
21.9142
21.9143
21.9145
21.9147
21.9151
21.9155
21.9162
21.9172
21.9185
21.9205
21.9232
21.9271
21.9328
21.9408
21.9524
21.9691
21.9932
22.0279
22.0781
22.1506
22.2556
22.4076
22.6275
22.9452
23.4027
24.0588
24.9926
26.3091
28.1407
30.6478
34.0155
38.4518
44.1742
51.514
21.9139
21.9139
21.9139
21.9139
21.9139
21.9139
21.9139
21.914
21.914
21.914
21.914
21.9141
21.9142
21.9143
21.9144
21.9146
21.9149
21.9153
21.9159
21.9167
21.9178
21.9194
21.9217
21.9248
21.9293
21.9357
21.9447
21.9576
21.9759
22.0021
22.0396
22.0934
22.1704
22.2808
22.4394
22.6666
22.9921
23.4566
24.1167
25.0481
26.35
28.1466
30.5874
33.8422
38.0962
43.5427
50.3775
58.8101
69.0618
81.6881
21.9139
21.9139
21.9139
21.914
21.914
21.914
21.914
21.9141
21.9142
21.9143
21.9144
21.9146
21.9149
21.9152
21.9157
21.9164
21.9174
21.9187
21.9206
21.9232
21.9269
21.9321
21.9394
21.9497
21.9642
21.9848
22.0138
22.055
22.1136
22.1968
22.315
22.4832
22.7221
23.0611
23.5407
24.2158
25.1597
26.4671
28.2558
30.6661
33.8564
37.9981
43.269
49.8483
57.9141
67.663
79.3377
93.2577
109.599
129.701
21.914
21.914
21.914
21.9141
21.9142
21.9143
21.9144
21.9146
21.9148
21.9151
21.9156
21.9162
21.9171
21.9183
21.9199
21.9222
21.9253
21.9297
21.9358
21.9444
21.9563
21.9729
21.9963
22.0291
22.0752
22.14
22.2314
22.3601
22.5416
22.797
23.1561
23.6592
24.3607
25.3323
26.6651
28.4717
30.8844
34.0516
38.1323
43.2907
49.6926
57.5015
66.892
78.0756
91.3228
106.895
125.134
146.853
173.027
206.988
21.9141
21.9142
21.9143
21.9144
21.9146
21.9148
21.9151
21.9155
21.9161
21.9169
21.918
21.9195
21.9215
21.9243
21.9282
21.9335
21.9408
21.9509
21.9649
21.9843
22.0113
22.0489
22.1013
22.1744
22.2765
22.419
22.618
22.8956
23.282
23.8183
24.5587
25.5738
26.9523
28.8022
31.249
34.4317
38.4978
43.5987
49.8872
57.5151
66.6388
77.4448
90.1823
105.11
122.509
142.916
167.389
197.265
233.697
276.002
325.2
21.9146
21.9148
21.9151
21.9156
21.9161
21.9169
21.9179
21.9193
21.9212
21.9237
21.9272
21.932
21.9385
21.9474
21.9596
21.9763
21.9994
22.0311
22.075
22.1355
22.2192
22.3351
22.4954
22.7172
23.0236
23.4461
24.0266
24.8197
25.8957
27.3414
29.2608
31.7731
35.0088
39.1044
44.1993
50.4338
57.9486
66.8854
77.4115
89.7479
104.158
120.888
140.34
163.355
191.198
225.041
265.259
310.714
358.9
405.362
448.629
21.9156
21.9162
21.9169
21.9179
21.9193
21.9211
21.9235
21.9268
21.9312
21.9372
21.9453
21.9563
21.9712
21.9916
22.0194
22.0573
22.1093
22.1804
22.2778
22.4114
22.5946
22.8457
23.1893
23.6582
24.2957
25.1575
26.3137
27.8497
29.8658
32.4755
35.8009
39.9683
45.1053
51.3403
58.8031
67.6238
77.9529
89.9874
103.987
120.185
138.9
160.787
186.977
218.693
256.608
300.206
347.391
394.875
438.843
476.492
505.781
527.398
21.9195
21.9212
21.9236
21.9268
21.9311
21.9367
21.9444
21.9546
21.9685
21.9871
22.0122
22.0462
22.0923
22.1548
22.2396
22.3548
22.5113
22.7239
23.0124
23.4033
23.9313
24.6413
25.5903
26.8486
28.5003
30.6424
33.3824
36.8344
41.1145
46.3393
52.6259
60.0935
68.8633
79.0711
90.8954
104.581
120.365
138.511
159.533
184.411
214.35
250.21
291.893
337.895
385.353
430.76
470.789
503.449
527.864
544.643
554.817
560.083
21.9315
21.9371
21.9446
21.9545
21.9676
21.9853
22.0088
22.0403
22.0826
22.1394
22.2158
22.3185
22.4567
22.6428
22.8932
23.2296
23.6805
24.283
25.084
26.1419
27.5274
29.323
31.6223
34.5267
38.1421
42.5748
47.9305
54.3161
61.8411
70.6188
80.773
92.4678
105.93
121.402
139.116
159.485
183.343
211.838
245.928
285.808
330.446
377.451
423.593
465.545
500.836
528.3
547.915
560.625
567.738
570.747
571.024
570.875
21.9687
21.9859
22.0087
22.039
22.0791
22.1325
22.2036
22.2982
22.4245
22.5928
22.8172
23.1162
23.5137
24.0407
24.7368
25.6512
26.8437
28.385
30.356
32.8462
35.9506
39.7667
44.3914
49.9197
56.4493
64.0811
72.9213
83.084
94.7216
108.045
123.301
140.701
160.589
183.673
211.022
243.633
281.896
325.141
371.418
417.8
461.058
498.464
528.562
550.884
566.045
575.121
579.711
580.805
580.569
580.253
578.926
576.01
22.0813
22.1331
22.2015
22.2917
22.4108
22.5682
22.776
23.0503
23.4119
23.8874
24.5107
25.3239
26.3785
27.7355
29.4652
31.6461
34.3629
37.704
41.7581
46.6125
52.3529
59.0683
66.8522
75.8048
86.0323
97.6784
110.942
126.07
143.26
162.81
185.328
211.798
243.218
280.097
322.025
367.42
413.668
457.716
496.776
529.037
553.734
571.178
582.33
588.412
590.675
590.634
590.355
589.443
587.24
583.724
579.074
573.453
22.4141
22.566
22.7647
23.0246
23.364
23.8065
24.3818
25.1265
26.0856
27.3124
28.8686
30.8232
33.2516
36.2328
39.848
44.1772
49.2984
55.2887
62.2298
70.2092
79.3215
89.6675
101.384
114.662
129.744
146.82
166.155
188.28
214.105
244.602
280.343
321.096
365.567
411.443
455.875
496.079
530.031
556.793
576.365
589.389
596.948
600.505
601.026
600.604
600.032
598.368
595.342
591.172
586.106
580.313
574.224
567.767
23.3646
23.7892
24.3363
25.0386
25.9359
27.0754
28.5118
30.3064
32.5261
35.2417
38.5261
42.4526
47.0925
52.5153
58.7905
65.9939
74.2085
83.5244
94.0383
105.883
119.243
134.357
151.408
170.638
192.524
217.914
247.737
282.586
322.341
365.924
411.291
455.788
496.708
531.936
560.376
581.694
596.431
605.552
610.308
611.563
611.204
610.759
609.453
606.866
603.206
598.495
593.088
587.096
580.919
574.609
568.341
561.827
27.0019
28.3627
30.0514
32.1279
34.6554
37.6992
41.3255
45.5996
50.5843
56.3415
62.9346
70.4356
78.9239
88.4863
99.216
111.244
124.754
139.976
157.088
176.313
198.098
223.237
252.614
286.807
325.759
368.541
413.324
457.646
498.926
535.056
564.736
587.495
603.747
614.276
620.023
622.254
622.168
621.573
620.603
618.499
615.214
610.914
605.837
600.067
593.958
587.746
581.432
575.114
568.781
562.563
556.127
34.4269
37.3057
40.7183
44.7234
49.3787
54.7394
60.8608
67.8025
75.6341
84.4325
94.2817
105.272
117.537
131.26
146.666
163.92
183.239
205.051
230.112
259.255
293.02
331.365
373.459
417.635
461.615
502.965
539.592
570.121
594.028
611.534
623.18
629.927
633.105
633.384
632.718
631.954
630.17
627.105
623.261
618.486
613.034
607.076
600.952
594.693
588.367
582.05
575.745
569.475
563.2
557.039
550.668
48.8246
53.8919
59.6568
66.1701
73.4895
81.6839
90.8283
101.004
112.301
124.858
138.86
154.525
172.004
191.509
213.47
238.615
267.72
301.268
339.195
380.722
424.301
467.818
508.984
545.761
576.794
601.499
619.886
632.468
640.189
644.06
644.779
644.192
643.498
641.937
639.23
635.636
631.165
626.023
620.231
614.176
607.998
601.715
595.411
589.111
582.817
576.547
570.293
564.074
557.845
551.722
545.396
80.0953
88.6838
98.2094
108.75
120.401
133.307
147.657
163.655
181.436
201.223
223.455
248.844
278.101
311.627
349.309
390.385
433.392
476.346
517.107
553.737
584.933
610.061
629.025
642.35
650.813
655.209
656.481
656.04
655.156
653.844
651.45
648.045
643.902
638.996
633.431
627.481
621.402
615.164
608.865
602.567
596.274
589.995
583.734
577.489
571.262
565.047
558.862
552.666
546.57
540.28
117.643
129.697
143.013
157.783
174.187
192.351
212.517
235.151
260.945
290.528
324.205
361.793
402.516
444.963
487.266
527.432
563.642
594.667
619.872
639.137
652.911
661.862
666.723
668.486
668.155
667.194
666.023
663.813
660.49
656.638
651.968
646.642
640.84
634.843
628.683
622.419
616.139
609.851
603.563
597.291
591.033
584.791
578.565
572.351
566.153
559.965
553.805
547.635
541.56
535.304
169.38
186.263
204.894
225.548
248.727
275.089
305.165
339.144
376.759
417.196
459.076
500.632
540.014
575.542
606.086
631.058
650.324
664.252
673.475
678.709
680.729
680.54
679.588
678.43
676.36
673.22
669.487
665.032
659.946
654.268
648.34
642.258
636.045
629.79
623.521
617.241
610.968
604.706
598.452
592.211
585.981
579.764
573.559
567.366
561.189
555.022
548.884
542.737
536.683
530.458
240.519
264.397
291.488
322.204
356.605
394.329
434.51
475.779
516.474
554.88
589.472
619.242
643.677
662.635
676.462
685.762
691.169
693.315
693.258
692.324
691.046
689.104
686.136
682.429
678.188
673.293
667.77
661.932
655.951
649.785
643.545
637.286
631.016
624.746
618.485
612.23
605.983
599.744
593.514
587.292
581.08
574.879
568.691
562.515
556.355
550.208
544.089
537.964
531.932
525.738
341.866
376.772
414.637
454.532
495.107
534.793
572.017
605.422
634.148
657.752
676.112
689.595
698.747
704.125
706.298
706.316
705.363
703.954
702.093
699.223
695.534
691.44
686.7
681.314
675.586
669.695
663.603
657.402
651.174
644.918
638.65
632.384
626.125
619.872
613.628
607.389
601.158
594.933
588.715
582.507
576.308
570.12
563.946
557.786
551.643
545.514
539.415
533.313
527.301
521.137
477.322
517.063
555.551
591.368
623.342
650.761
673.265
690.759
703.673
712.458
717.619
719.702
719.7
718.708
717.175
715.326
712.516
708.819
704.818
700.219
694.984
689.339
683.516
677.487
671.33
665.139
658.913
652.662
646.407
640.151
633.896
627.644
621.396
615.154
608.918
602.688
596.464
590.248
584.04
577.841
571.653
565.478
559.318
553.173
547.048
540.937
534.858
528.777
522.786
516.653
612.83
643.131
668.988
690.134
706.547
718.674
726.892
731.669
733.543
733.426
732.375
730.77
728.817
726.033
722.299
718.339
713.86
708.775
703.188
697.43
691.481
685.369
679.206
673.001
666.766
660.525
654.282
648.034
641.786
635.538
629.291
623.045
616.803
610.564
604.332
598.106
591.887
585.677
579.477
573.287
567.111
560.948
554.802
548.673
542.564
536.472
530.412
524.353
518.382
512.279
723.407
734.531
742.01
746.259
747.806
747.507
746.368
744.669
742.577
739.774
736.056
732.059
727.638
722.677
717.126
711.431
705.577
699.508
693.374
687.201
680.987
674.76
668.524
662.282
656.038
649.794
643.549
637.302
631.056
624.809
618.564
612.323
606.086
599.855
593.632
587.418
581.214
575.021
568.841
562.676
556.526
550.394
544.28
538.188
532.114
526.074
520.037
514.086
508.012
761.352
762.467
761.936
760.678
758.858
756.611
753.74
750.005
745.969
741.567
736.672
731.184
725.538
719.775
713.739
707.632
701.502
695.315
689.105
682.884
676.652
670.415
664.174
657.929
651.682
645.433
639.184
632.933
626.683
620.434
614.188
607.946
601.709
595.481
589.261
583.051
576.854
570.669
564.499
558.344
552.207
546.089
539.99
533.915
527.86
521.839
515.824
509.894
503.849
775.299
773.326
770.908
767.923
764.146
760.068
755.656
750.8
745.37
739.762
734.055
728.069
721.993
715.91
709.749
703.553
697.353
691.137
684.91
678.678
672.438
666.193
659.944
653.691
647.435
641.179
634.921
628.665
622.409
616.157
609.909
603.666
597.431
591.204
584.988
578.784
572.593
566.417
560.256
554.113
547.989
541.885
535.802
529.743
523.706
517.705
511.711
505.801
499.785
778.478
774.354
769.908
765.066
759.68
754.103
748.441
742.506
736.464
730.417
724.288
718.113
711.937
705.738
699.522
693.3
687.069
680.83
674.585
668.333
662.076
655.815
649.55
643.284
637.018
630.753
624.489
618.229
611.973
605.723
599.48
593.246
587.023
580.811
574.612
568.429
562.261
556.11
549.979
543.867
537.777
531.71
525.668
519.65
513.667
507.695
501.805
495.818
779.477
774.117
768.562
762.938
757.049
751.04
745.029
738.934
732.783
726.631
720.454
714.252
708.045
701.826
695.593
689.353
683.106
676.85
670.588
664.321
658.049
651.775
645.498
639.221
632.945
626.672
620.402
614.137
607.879
601.627
595.385
589.153
582.933
576.726
570.534
564.357
558.198
552.058
545.938
539.839
533.763
527.711
521.687
515.686
509.723
503.772
497.903
491.943
771.701
765.722
759.745
753.687
747.563
741.435
735.283
729.099
722.908
716.704
710.481
704.251
698.01
691.758
685.497
679.23
672.955
666.676
660.392
654.105
647.817
641.529
635.241
628.957
622.676
616.401
610.132
603.871
597.62
591.378
585.149
578.932
572.73
566.544
560.376
554.226
548.096
541.987
535.901
529.84
523.803
517.795
511.813
505.869
499.939
494.091
488.159
768.548
762.45
756.349
750.223
744.06
737.887
731.701
725.492
719.273
713.042
706.796
700.541
694.276
688.001
681.719
675.431
669.138
662.84
656.541
650.24
643.939
637.639
631.343
625.05
618.763
612.483
606.211
599.949
593.697
587.457
581.23
575.018
568.821
562.642
556.482
550.341
544.221
538.124
532.052
526.004
519.983
513.992
508.028
502.103
496.194
490.366
484.462
759.135
752.982
746.815
740.623
734.418
728.2
721.964
715.716
709.457
703.185
696.904
690.614
684.317
678.013
671.705
665.393
659.079
652.764
646.45
640.137
633.828
627.522
621.223
614.931
608.647
602.372
596.108
589.857
583.619
577.395
571.187
564.996
558.824
552.672
546.54
540.431
534.346
528.286
522.253
516.248
510.273
504.327
498.421
492.533
486.725
480.848
755.874
749.684
743.481
737.258
731.019
724.769
718.503
712.225
705.938
699.64
693.333
687.019
680.7
674.376
668.048
661.719
655.39
649.061
642.734
636.411
630.092
623.779
617.473
611.176
604.889
598.612
592.348
586.097
579.861
573.641
567.438
561.253
555.088
548.944
542.822
536.724
530.651
524.604
518.585
512.594
506.636
500.708
494.821
488.954
483.167
477.317
752.676
746.45
740.21
733.953
727.682
721.398
715.103
708.796
702.48
696.156
689.825
683.489
677.149
670.805
664.46
658.115
651.771
645.429
639.091
632.758
626.43
620.11
613.799
607.498
601.208
594.93
588.666
582.416
576.182
569.966
563.768
557.589
551.431
545.296
539.183
533.096
527.034
521
514.995
509.02
503.079
497.168
491.301
485.455
479.689
473.868
749.533
743.27
736.994
730.703
724.399
718.084
711.759
705.424
699.082
692.733
686.38
680.022
673.662
667.3
660.939
654.578
648.221
641.867
635.518
629.176
622.841
616.515
610.199
603.894
597.601
591.323
585.059
578.811
572.58
566.367
560.174
554.002
547.851
541.724
535.621
529.545
523.495
517.474
511.483
505.524
499.599
493.708
487.86
482.037
476.292
470.499
746.438
740.14
733.828
727.504
721.169
714.824
708.47
702.109
695.742
689.37
682.995
676.617
670.238
663.859
657.482
651.108
644.738
638.373
632.015
625.664
619.322
612.991
606.67
600.362
594.068
587.789
581.525
575.279
569.051
562.843
556.655
550.489
544.346
538.228
532.135
526.069
520.031
514.024
508.048
502.105
496.199
490.326
484.499
478.698
472.975
467.208
743.389
737.056
730.711
724.355
717.99
711.616
705.236
698.85
692.459
686.065
679.669
673.273
666.876
660.482
654.09
647.703
641.321
634.946
628.579
622.221
615.872
609.536
603.212
596.901
590.606
584.326
578.064
571.819
565.595
559.391
553.208
547.049
540.914
534.804
528.722
522.668
516.643
510.65
504.69
498.765
492.876
487.021
481.211
475.43
469.726
463.984
740.385
734.018
727.642
721.256
714.862
708.461
702.056
695.646
689.233
682.818
676.403
669.988
663.576
657.166
650.761
644.362
637.969
631.585
625.209
618.844
612.49
606.149
599.821
593.509
587.212
580.933
574.671
568.43
562.208
556.009
549.833
543.681
537.555
531.455
525.384
519.342
513.332
507.352
501.406
495.494
489.62
483.782
477.99
472.228
466.546
460.832
731.027
724.62
718.205
711.784
705.358
698.928
692.496
686.062
679.628
673.194
666.763
660.335
653.912
647.494
641.083
634.681
628.287
621.904
615.532
609.173
602.828
596.497
590.183
583.886
577.607
571.347
565.109
558.892
552.699
546.53
540.386
534.269
528.18
522.119
516.087
510.087
504.119
498.186
492.288
486.429
480.61
474.838
469.099
463.439
457.752
728.081
721.645
715.203
708.757
702.307
695.854
689.4
682.946
676.494
670.043
663.596
657.154
650.717
644.287
637.866
631.454
625.052
618.662
612.284
605.92
599.571
593.239
586.923
580.627
574.349
568.093
561.859
555.648
549.461
543.298
537.161
531.051
524.969
518.917
512.894
506.905
500.95
495.031
489.15
483.309
477.508
471.757
466.039
460.401
454.742
725.18
718.717
712.25
705.779
699.306
692.832
686.358
679.885
673.415
666.948
660.486
654.03
647.581
641.14
634.708
628.287
621.878
615.481
609.098
602.731
596.38
590.046
583.731
577.436
571.162
564.909
558.678
552.469
546.286
540.128
533.997
527.893
521.819
515.777
509.767
503.79
497.849
491.946
486.08
480.257
474.475
468.743
463.047
457.432
451.8
715.837
709.344
702.85
696.355
689.861
683.367
676.877
670.39
663.907
657.431
650.962
644.502
638.05
631.61
625.181
618.765
612.364
605.977
599.607