/*--------------------------------*- C++ -*----------------------------------*\
| =========                 |                                                 |
| \\      /  F ield         | OpenFOAM: The Open Source CFD Toolbox           |
|  \\    /   O peration     | Version:  v1706                                 |
|   \\  /    A nd           | Web:      www.OpenFOAM.com                      |
|    \\/     M anipulation  |                                                 |
\*---------------------------------------------------------------------------*/
FoamFile
{
    version     2.0;
    format      ascii;
    class       volScalarField;
    location    "3.9e-05";
    object      Tt;
}
// * * * * * * * * * * * * * * * * * * * * * * * * * * * * * * * * * * * * * //

dimensions      [0 0 0 1 0 0 0];


internalField   nonuniform List<scalar> 
30038
(
144.4
144.4
144.4
144.4
144.4
144.4
144.4
144.4
144.4
144.4
144.4
144.4
144.4
144.4
144.4
144.4
144.4
144.4
144.4
144.4
144.4
144.4
144.4
144.4
144.4
144.4
144.4
144.4
144.4
144.4
144.4
144.4
144.4
144.4
144.4
144.4
144.4
144.4
144.4
144.4
144.4
144.4
144.4
144.4
144.4
144.4
144.4
144.4
144.4
144.4
144.4
144.4
144.4
144.4
144.4
144.4
144.4
144.4
144.4
144.4
144.4
144.4
144.4
144.4
144.4
144.4
144.4
144.4
144.4
144.4
144.4
144.4
144.4
144.4
144.4
144.4
144.4
144.4
144.4
144.4
144.4
144.4
144.4
144.4
144.4
144.4
144.4
144.4
144.4
144.4
144.4
144.4
144.4
144.4
144.4
144.4
144.4
144.4
144.4
144.4
144.4
144.4
144.4
144.4
144.4
144.4
144.4
144.4
144.4
144.4
144.4
144.4
144.4
144.4
144.4
144.4
144.4
144.4
144.4
144.4
144.4
144.4
144.4
144.4
144.4
144.4
144.4
144.4
144.4
144.4
144.4
144.4
144.4
144.4
144.4
144.4
144.4
144.4
144.4
144.4
144.4
144.4
144.4
144.4
144.4
144.4
144.4
144.4
144.4
144.4
144.4
144.4
144.4
144.4
144.4
144.4
144.4
144.4
144.4
144.4
144.4
144.4
144.4
144.4
144.4
144.4
144.4
144.4
144.4
144.4
144.4
144.4
144.4
144.4
144.4
144.4
144.4
144.4
144.4
144.4
144.4
144.4
144.4
144.4
144.4
144.4
144.4
144.4
144.4
144.4
144.4
144.4
144.4
144.4
144.4
144.4
144.4
144.4
144.4
144.4
144.4
144.4
144.4
144.4
144.4
144.4
144.4
144.4
144.4
144.4
144.4
144.4
144.4
144.4
144.4
144.4
144.4
144.4
144.4
144.4
144.4
144.4
144.4
144.4
144.4
144.4
144.4
144.4
144.4
144.4
144.4
144.4
144.4
144.4
144.4
144.4
144.4
144.4
144.4
144.4
144.4
144.4
144.4
144.4
144.4
144.4
144.4
144.4
144.4
144.4
144.4
144.4
144.4
144.4
144.4
144.4
144.4
144.4
144.4
144.4
144.4
144.4
144.4
144.4
144.4
144.4
144.4
144.4
144.4
144.4
144.4
144.4
144.4
144.4
144.4
144.4
144.4
144.4
144.4
144.4
144.4
144.4
144.4
144.4
144.4
144.4
144.4
144.4
144.4
144.4
144.4
144.4
144.4
144.4
144.4
144.4
144.4
144.4
144.4
144.4
144.4
144.4
144.4
144.4
144.4
144.4
144.4
144.4
144.4
144.4
144.4
144.4
144.4
144.4
144.4
144.4
144.4
144.4
144.4
144.4
144.4
144.4
144.4
144.4
144.4
144.4
144.4
144.4
144.4
144.4
144.4
144.4
144.4
144.4
144.4
144.4
144.4
144.4
144.4
144.4
144.4
144.4
144.4
144.4
144.4
144.4
144.4
144.4
144.4
144.4
144.4
144.4
144.4
144.4
144.4
144.4
144.4
144.4
144.4
144.4
144.4
144.4
144.4
144.4
144.4
144.4
144.4
144.4
144.4
144.4
144.4
144.4
144.4
144.4
144.4
144.4
144.4
144.4
144.4
144.4
144.4
144.4
144.4
144.4
144.4
144.4
144.4
144.4
144.4
144.4
144.4
144.4
144.4
144.4
144.4
144.4
144.4
144.4
144.4
144.4
144.4
144.4
144.4
144.4
144.4
144.4
144.4
144.4
144.4
144.4
144.4
144.4
144.4
144.4
144.4
144.4
144.4
144.4
144.4
144.4
144.4
144.4
144.4
144.4
144.4
144.4
144.4
144.4
144.4
144.4
144.4
144.4
144.4
144.4
144.4
144.4
144.4
144.4
144.4
144.4
144.4
144.4
144.4
144.4
144.4
144.4
144.4
144.4
144.4
144.4
144.4
144.4
144.4
144.4
144.4
144.4
144.4
144.4
144.4
144.4
144.4
144.4
144.4
144.4
144.4
144.4
144.4
144.4
144.4
144.4
144.4
144.4
144.4
144.4
144.4
144.4
144.4
144.4
144.4
144.4
144.4
144.4
144.4
144.4
144.4
144.4
144.4
144.4
144.4
144.4
144.4
144.4
144.4
144.4
144.4
144.4
144.4
144.4
144.4
144.4
144.4
144.4
144.4
144.4
144.4
144.4
144.4
144.4
144.4
144.4
144.4
144.4
144.4
144.4
144.4
144.4
144.4
144.4
144.4
144.4
144.4
144.4
144.4
144.4
144.4
144.4
144.4
144.4
144.4
144.4
144.4
144.4
144.4
144.4
144.4
144.4
144.4
144.4
144.4
144.4
144.4
144.4
144.4
144.4
144.4
144.4
144.4
144.4
144.4
144.4
144.4
144.4
144.4
144.4
144.4
144.4
144.4
144.4
144.4
144.4
144.4
144.4
144.4
144.4
144.4
144.4
144.4
144.4
144.4
144.4
144.4
144.4
144.4
144.4
144.4
144.4
144.4
144.4
144.4
144.4
144.4
144.4
144.4
144.4
144.4
144.4
144.4
144.4
144.4
144.4
144.4
144.4
144.4
144.4
144.4
144.4
144.4
144.4
144.4
144.4
144.4
144.4
144.4
144.4
144.4
144.4
144.4
144.4
144.4
144.4
144.4
144.4
144.4
144.4
144.4
144.4
144.4
144.4
144.4
144.4
144.4
144.4
144.4
144.4
144.4
144.4
144.4
144.4
144.4
144.4
144.4
144.4
144.4
144.4
144.4
144.4
144.4
144.4
144.4
144.4
144.4
144.4
144.4
144.4
144.4
144.4
144.4
144.4
144.4
144.4
144.4
144.4
144.4
144.4
144.4
144.4
144.4
144.4
144.4
144.4
144.4
144.4
144.4
144.4
144.4
144.4
144.4
144.4
144.4
144.4
144.4
144.4
144.4
144.4
144.4
144.4
144.4
144.4
144.4
144.4
144.4
144.4
144.4
144.4
144.4
144.4
144.4
144.4
144.4
144.4
144.4
144.4
144.4
144.4
144.4
144.4
144.4
144.4
144.4
144.4
144.4
144.4
144.4
144.4
144.4
144.4
144.4
144.4
144.4
144.4
144.4
144.4
144.4
144.4
144.4
144.4
144.4
144.4
144.4
144.4
144.4
144.4
144.4
144.4
144.4
144.4
144.4
144.4
144.4
144.4
144.4
144.4
144.4
144.4
144.4
144.4
144.4
144.4
144.4
144.4
144.4
144.4
144.4
144.4
144.4
144.4
144.4
144.4
144.4
144.4
144.4
144.4
144.4
144.4
144.4
144.4
144.4
144.4
144.4
144.4
144.4
144.4
144.4
144.4
144.4
144.4
144.4
144.4
144.4
144.4
144.4
144.4
144.4
144.4
144.4
144.4
144.4
144.4
144.4
144.4
144.4
144.4
144.4
144.4
144.4
144.4
144.4
144.4
144.4
144.4
144.4
144.4
144.4
144.4
144.4
144.4
144.4
144.4
144.4
144.4
144.4
144.4
144.4
144.4
144.4
144.4
144.4
144.4
144.4
144.4
144.4
144.4
144.4
144.4
144.4
144.4
144.4
144.4
144.4
144.4
144.4
144.4
144.4
144.4
144.4
144.4
144.4
144.4
144.4
144.4
144.4
144.4
144.4
144.4
144.4
144.4
144.4
144.4
144.4
144.4
144.4
144.4
144.4
144.4
144.4
144.4
144.4
144.4
144.4
144.4
144.4
144.4
144.4
144.4
144.4
144.4
144.4
144.4
144.4
144.4
144.4
144.4
144.4
144.4
144.4
144.4
144.4
144.4
144.4
144.4
144.4
144.4
144.4
144.4
144.4
144.4
144.4
144.4
144.4
144.4
144.4
144.4
144.4
144.4
144.4
144.4
144.4
144.4
144.4
144.4
144.4
144.4
144.4
144.4
144.4
144.4
144.4
144.4
144.4
144.4
144.4
144.4
144.4
144.4
144.4
144.4
144.4
144.4
144.4
144.4
144.4
144.4
144.4
144.4
144.4
144.4
144.4
144.4
144.4
144.4
144.4
144.4
144.4
144.4
144.4
144.4
144.4
144.4
144.4
144.4
144.4
144.4
144.4
144.4
144.4
144.4
144.4
144.4
144.4
144.4
144.4
144.4
144.4
144.4
144.4
144.4
144.4
144.4
144.4
144.4
144.4
144.4
144.4
144.4
144.4
144.4
144.4
144.4
144.4
144.4
144.4
144.4
144.4
144.4
144.4
144.4
144.4
144.4
144.4
144.4
144.4
144.4
144.4
144.4
144.4
144.4
144.4
144.4
144.4
144.4
144.4
144.4
144.4
144.4
144.4
144.4
144.4
144.4
144.4
144.4
144.4
144.4
144.4
144.4
144.4
144.4
144.4
144.4
144.4
144.4
144.4
144.4
144.4
144.4
144.4
144.4
144.4
144.4
144.4
144.4
144.4
144.4
144.4
144.4
144.4
144.4
144.4
144.4
144.4
144.4
144.4
144.4
144.4
144.4
144.4
144.4
144.4
144.4
144.4
144.4
144.4
144.4
144.4
144.4
144.4
144.4
144.4
144.4
144.4
144.4
144.4
144.4
144.4
144.4
144.4
144.4
144.4
144.4
144.4
144.4
144.4
144.4
144.4
144.4
144.4
144.4
144.4
144.4
144.4
144.4
144.4
144.4
144.4
144.4
144.4
144.4
144.4
144.4
144.4
144.4
144.4
144.4
144.4
144.4
144.4
144.4
144.4
144.4
144.4
144.4
144.4
144.4
144.4
144.4
144.4
144.4
144.4
144.4
144.4
144.4
144.4
144.4
144.4
144.4
144.4
144.4
144.4
144.4
144.4
144.4
144.4
144.4
144.4
144.4
144.4
144.4
144.4
144.4
144.4
144.4
144.4
144.4
144.4
144.4
144.4
144.4
144.4
144.4
144.4
144.4
144.4
144.4
144.4
144.4
144.4
144.4
144.4
144.4
144.4
144.4
144.4
144.4
144.4
144.4
144.4
144.4
144.4
144.4
144.4
144.4
144.4
144.4
144.4
144.4
144.4
144.4
144.4
144.4
144.4
144.4
144.4
144.4
144.4
144.4
144.4
144.4
144.4
144.4
144.4
144.4
144.4
144.4
144.4
144.4
144.4
144.4
144.4
144.4
144.4
144.4
144.4
144.4
144.4
144.4
144.4
144.4
144.4
144.4
144.4
144.4
144.4
144.4
144.4
144.4
144.4
144.4
144.4
144.4
144.4
144.4
144.4
144.4
144.4
144.4
144.4
144.4
144.4
144.4
144.4
144.4
144.4
144.4
144.4
144.4
144.4
144.4
144.4
144.4
144.4
144.4
144.4
144.4
144.4
144.4
144.4
144.4
144.4
144.4
144.4
144.4
144.4
144.4
144.4
144.4
144.4
144.4
144.4
144.4
144.4
144.4
144.4
144.4
144.4
144.4
144.4
144.4
144.4
144.4
144.4
144.401
144.401
144.401
144.4
144.4
144.4
144.4
144.4
144.4
144.4
144.4
144.4
144.4
144.4
144.4
144.4
144.4
144.4
144.4
144.4
144.4
144.4
144.4
144.4
144.4
144.4
144.4
144.4
144.4
144.4
144.4
144.4
144.4
144.4
144.4
144.4
144.4
144.4
144.4
144.4
144.4
144.4
144.4
144.4
144.4
144.4
144.4
144.401
144.401
144.402
144.402
144.404
144.406
144.4
144.4
144.4
144.4
144.4
144.4
144.4
144.4
144.4
144.4
144.4
144.4
144.4
144.4
144.4
144.4
144.4
144.4
144.4
144.4
144.4
144.4
144.4
144.4
144.4
144.4
144.4
144.4
144.4
144.4
144.4
144.4
144.4
144.4
144.4
144.4
144.4
144.4
144.4
144.4
144.4
144.401
144.401
144.402
144.402
144.404
144.406
144.408
144.413
144.42
144.4
144.4
144.4
144.4
144.4
144.4
144.4
144.4
144.4
144.4
144.4
144.4
144.4
144.4
144.4
144.4
144.4
144.4
144.4
144.4
144.4
144.4
144.4
144.4
144.4
144.4
144.4
144.4
144.4
144.4
144.4
144.4
144.4
144.4
144.4
144.4
144.4
144.401
144.401
144.401
144.402
144.403
144.404
144.406
144.409
144.413
144.42
144.43
144.446
144.471
144.4
144.4
144.4
144.4
144.4
144.4
144.4
144.4
144.4
144.4
144.4
144.4
144.4
144.4
144.4
144.4
144.4
144.4
144.4
144.4
144.4
144.4
144.4
144.4
144.4
144.4
144.4
144.4
144.4
144.4
144.4
144.4
144.4
144.4
144.401
144.401
144.401
144.402
144.403
144.404
144.406
144.409
144.414
144.421
144.431
144.447
144.47
144.506
144.561
144.648
144.4
144.4
144.4
144.4
144.4
144.4
144.4
144.4
144.4
144.4
144.4
144.4
144.4
144.4
144.4
144.4
144.4
144.4
144.4
144.4
144.4
144.4
144.4
144.4
144.4
144.4
144.4
144.4
144.4
144.4
144.4
144.401
144.401
144.401
144.402
144.403
144.405
144.407
144.41
144.415
144.422
144.433
144.449
144.473
144.508
144.562
144.643
144.765
144.952
145.245
144.4
144.4
144.4
144.4
144.4
144.4
144.4
144.4
144.4
144.4
144.4
144.4
144.4
144.4
144.4
144.4
144.4
144.4
144.4
144.4
144.4
144.4
144.4
144.4
144.4
144.4
144.4
144.401
144.401
144.401
144.402
144.402
144.404
144.405
144.408
144.411
144.416
144.424
144.435
144.452
144.476
144.513
144.568
144.649
144.771
144.952
145.224
145.633
146.253
147.21
144.4
144.4
144.4
144.4
144.4
144.4
144.4
144.4
144.4
144.4
144.4
144.4
144.4
144.4
144.4
144.4
144.4
144.4
144.4
144.4
144.4
144.4
144.4
144.4
144.401
144.401
144.401
144.402
144.403
144.404
144.406
144.409
144.412
144.418
144.426
144.438
144.456
144.482
144.52
144.577
144.66
144.784
144.967
145.238
145.641
146.239
147.128
148.452
150.428
153.411
144.4
144.4
144.4
144.4
144.4
144.4
144.4
144.4
144.4
144.4
144.4
144.4
144.4
144.4
144.4
144.4
144.4
144.4
144.4
144.4
144.401
144.401
144.401
144.402
144.402
144.403
144.405
144.407
144.41
144.414
144.421
144.43
144.443
144.462
144.49
144.531
144.59
144.677
144.805
144.993
145.269
145.675
146.272
147.152
148.445
150.343
153.117
157.154
162.994
171.408
144.4
144.4
144.4
144.4
144.4
144.4
144.4
144.4
144.4
144.4
144.4
144.4
144.4
144.4
144.4
144.4
144.401
144.401
144.401
144.401
144.402
144.403
144.404
144.406
144.408
144.412
144.417
144.424
144.434
144.449
144.47
144.5
144.544
144.608
144.701
144.836
145.032
145.317
145.734
146.342
147.229
148.521
150.401
153.123
157.04
162.624
170.485
181.363
196.131
215.717
144.4
144.4
144.4
144.4
144.4
144.4
144.4
144.4
144.4
144.4
144.4
144.4
144.4
144.401
144.401
144.401
144.402
144.403
144.404
144.405
144.407
144.41
144.414
144.42
144.428
144.439
144.456
144.48
144.514
144.562
144.632
144.732
144.877
145.085
145.386
145.822
146.451
147.361
148.676
150.571
153.292
157.173
162.66
170.317
180.821
194.92
213.363
236.797
265.693
300.185
144.4
144.4
144.4
144.4
144.4
144.4
144.4
144.4
144.4
144.401
144.401
144.401
144.402
144.402
144.403
144.405
144.406
144.409
144.412
144.417
144.424
144.433
144.447
144.466
144.493
144.531
144.586
144.663
144.773
144.931
145.157
145.48
145.943
146.606
147.557
148.917
150.861
153.626
157.537
163.016
170.6
180.924
194.688
212.581
235.185
262.866
295.695
333.429
375.585
421.345
144.4
144.4
144.4
144.4
144.4
144.401
144.401
144.401
144.402
144.402
144.403
144.404
144.406
144.408
144.411
144.415
144.421
144.429
144.441
144.456
144.479
144.51
144.554
144.616
144.704
144.827
145.003
145.251
145.603
146.104
146.815
147.825
149.257
151.284
154.142
158.145
163.703
171.327
181.619
195.234
212.817
234.911
261.859
293.73
330.279
370.967
415.028
461.531
509.396
557.587
144.401
144.401
144.401
144.401
144.402
144.402
144.403
144.404
144.406
144.408
144.41
144.414
144.419
144.426
144.436
144.45
144.469
144.496
144.533
144.584
144.656
144.757
144.898
145.095
145.373
145.765
146.315
147.09
148.181
149.714
151.863
154.863
159.026
164.75
172.526
182.926
196.563
214.038
235.851
262.317
293.504
329.19
368.888
411.884
457.299
504.07
551.071
597.229
641.401
682.465
144.401
144.402
144.402
144.403
144.404
144.406
144.407
144.41
144.414
144.418
144.425
144.434
144.446
144.463
144.486
144.518
144.563
144.624
144.709
144.826
144.989
145.217
145.533
145.974
146.59
147.449
148.646
150.314
152.628
155.828
160.223
166.204
174.246
184.891
198.717
216.273
238.014
264.22
294.943
329.978
368.872
410.972
455.475
501.436
547.783
593.475
637.451
678.46
715.105
746.153
771.423
144.404
144.406
144.408
144.41
144.413
144.418
144.424
144.433
144.444
144.46
144.481
144.51
144.549
144.603
144.677
144.778
144.918
145.11
145.375
145.742
146.248
146.947
147.914
149.25
151.092
153.624
157.088
161.796
168.133
176.559
187.591
201.766
219.585
241.451
267.602
298.066
332.639
370.896
412.231
455.907
501.075
546.75
591.952
635.714
676.959
714.394
746.769
773.287
793.9
809.1
820.116
144.41
144.414
144.418
144.425
144.433
144.444
144.458
144.478
144.505
144.541
144.591
144.657
144.748
144.872
145.04
145.27
145.585
146.015
146.605
147.413
148.519
150.032
152.098
154.909
158.713
163.825
170.627
179.565
191.129
205.813
224.07
246.246
272.53
302.919
337.203
374.973
415.664
458.592
502.989
547.964
592.588
635.975
677.185
715.082
748.453
776.378
798.528
815.239
827.264
835.605
841.15
844.856
144.434
144.445
144.459
144.479
144.504
144.539
144.585
144.648
144.732
144.845
144.998
145.204
145.484
145.863
146.377
147.075
148.022
149.306
151.046
153.397
156.561
160.795
166.417
173.806
183.394
195.639
210.995
229.857
252.513
279.101
309.58
343.726
381.145
421.301
463.559
507.215
551.467
595.448
638.333
679.282
717.309
751.29
780.258
803.712
821.759
835.012
844.314
850.609
854.683
857.229
858.745
859.544
144.507
144.541
144.587
144.647
144.727
144.835
144.978
145.17
145.427
145.772
146.236
146.859
147.697
148.824
150.337
152.366
155.078
158.686
163.456
169.711
177.825
188.211
201.295
217.481
237.108
260.4
287.44
318.149
352.287
389.467
429.181
470.834
513.781
557.297
600.578
642.855
683.366
721.258
755.513
785.163
809.601
828.759
843.092
853.333
860.345
864.965
867.835
869.544
870.426
870.643
870.587
870.483
144.734
144.839
144.978
145.162
145.407
145.732
146.164
146.74
147.506
148.528
149.887
151.695
154.091
157.258
161.421
166.856
173.887
182.878
194.222
208.305
225.479
246.018
270.084
297.703
328.756
362.989
400.018
439.358
480.458
522.719
565.486
608.02
649.599
689.532
727.067
761.297
791.295
816.403
836.422
851.645
862.704
870.388
875.523
878.751
880.654
881.693
881.988
881.84
881.603
881.174
880.363
879.33
145.422
145.738
146.154
146.704
147.428
148.385
149.646
151.308
153.493
156.358
160.098
164.952
171.201
179.169
189.207
201.677
216.921
235.231
256.814
281.767
310.063
341.546
375.944
412.882
451.897
492.473
534.059
576.059
617.796
658.599
697.836
734.832
768.784
798.834
824.303
844.902
860.805
872.545
880.822
886.402
889.97
892.08
893.245
893.631
893.456
893.131
892.67
891.881
890.793
889.535
888.119
886.672
147.453
148.378
149.586
151.163
153.218
155.891
159.351
163.81
169.515
176.754
185.842
197.108
210.875
227.434
247.011
269.747
295.674
324.712
356.677
391.282
428.16
466.87
506.933
547.839
589.045
629.934
669.883
708.309
744.61
778.073
807.91
833.451
854.358
870.715
882.957
891.699
897.667
901.542
903.841
905.088
905.572
905.41
904.983
904.437
903.685
902.588
901.289
899.837
898.267
896.681
895.127
893.616
153.237
155.805
159.103
163.317
168.671
175.419
183.846
194.249
206.928
222.159
240.171
261.123
285.087
312.037
341.848
374.309
409.127
445.944
484.344
523.88
564.083
604.457
644.439
683.454
720.966
756.432
789.218
818.606
843.956
864.913
881.493
894.042
903.112
909.381
913.487
915.943
917.281
917.827
917.664
917.162
916.522
915.738
914.632
913.292
911.821
910.189
908.508
906.832
905.18
903.536
901.918
900.334
175.043
183.051
192.879
204.801
219.073
235.914
255.487
277.885
303.114
331.096
361.669
394.604
429.607
466.332
504.387
543.359
582.817
622.309
661.317
699.312
735.807
770.309
802.249
830.976
855.896
876.654
893.223
905.886
915.142
921.598
925.849
928.423
929.829
930.386
930.229
929.699
928.926
928.06
926.96
925.583
924.056
922.38
920.605
918.825
917.065
915.321
913.582
911.861
910.15
908.457
906.785
217.967
233.987
252.549
273.751
297.618
324.101
353.076
384.358
417.706
452.83
489.399
527.047
565.394
604.046
642.588
680.544
717.431
752.806
786.221
817.162
845.04
869.311
889.637
905.972
918.559
927.838
934.357
938.678
941.318
942.742
943.275
943.118
942.551
941.652
940.667
939.557
938.121
936.52
934.825
932.978
931.101
929.233
927.381
925.535
923.704
921.89
920.082
918.283
916.488
914.708
912.944
295.325
320.629
348.3
378.183
410.077
443.739
478.887
515.208
552.362
590.001
627.767
665.277
702.092
737.774
771.921
804.128
833.927
860.784
884.206
903.888
919.783
932.102
941.241
947.699
952.002
954.635
956.035
956.527
956.339
955.7
954.704
953.601
952.417
950.938
949.27
947.512
945.604
943.625
941.654
939.702
937.758
935.823
933.904
931.993
930.088
928.193
926.302
924.415
922.53
920.658
918.797
438.949
472.789
507.833
543.787
580.336
617.165
653.948
690.328
725.901
760.275
793.085
823.964
852.483
878.159
900.552
919.399
934.665
946.535
955.38
961.655
965.835
968.388
969.722
970.138
969.889
969.175
968.089
966.838
965.549
964.039
962.295
960.454
958.495
956.425
954.351
952.292
950.241
948.196
946.17
944.16
942.157
940.163
938.173
936.187
934.205
932.224
930.246
928.268
926.301
924.342
575.135
610.949
646.847
682.533
717.672
751.893
784.847
816.208
845.639
872.746
897.09
918.29
936.129
950.589
961.85
970.261
976.235
980.188
982.593
983.813
984.098
983.768
982.969
981.778
980.386
978.971
977.407
975.57
973.635
971.63
969.48
967.302
965.142
962.987
960.838
958.705
956.59
954.482
952.383
950.294
948.212
946.134
944.06
941.986
939.914
937.842
935.772
933.699
931.636
929.579
713.429
747.203
779.954
811.373
841.17
869.035
894.6
917.472
937.33
954.007
967.506
978.019
985.866
991.42
995.063
997.255
998.31
998.412
997.984
997.074
995.75
994.239
992.691
991.038
989.116
987.088
985.003
982.78
980.496
978.233
975.979
973.728
971.491
969.272
967.062
964.862
962.672
960.49
958.312
956.14
953.973
951.808
949.644
947.481
945.318
943.154
940.989
938.822
936.662
934.505
839.709
867.826
894.004
917.899
939.168
957.554
972.935
985.343
994.984
1002.15
1007.18
1010.45
1012.36
1013.18
1013.09
1012.54
1011.49
1010.02
1008.39
1006.7
1004.92
1002.93
1000.8
998.618
996.327
993.949
991.58
989.224
986.867
984.519
982.194
979.883
977.582
975.293
973.012
970.737
968.469
966.205
963.945
961.687
959.432
957.178
954.925
952.671
950.415
948.157
945.898
943.635
941.378
939.121
942.469
962.018
978.815
992.786
1004
1012.67
1019.07
1023.49
1026.32
1027.89
1028.4
1028.14
1027.4
1026.19
1024.56
1022.82
1020.99
1019.08
1017
1014.77
1012.48
1010.11
1007.64
1005.16
1002.71
1000.25
997.8
995.369
992.954
990.546
988.152
985.771
983.398
981.033
978.674
976.32
973.969
971.622
969.276
966.932
964.588
962.244
959.9
957.553
955.205
952.852
950.498
948.138
945.783
943.425
1013.42
1023.36
1030.98
1036.53
1040.29
1042.63
1043.81
1043.97
1043.52
1042.57
1041.16
1039.4
1037.51
1035.54
1033.49
1031.32
1028.98
1026.58
1024.13
1021.57
1018.98
1016.43
1013.87
1011.31
1008.78
1006.26
1003.75
1001.26
998.773
996.299
993.833
991.376
988.925
986.481
984.041
981.604
979.17
976.737
974.305
971.872
969.439
967.005
964.568
962.128
959.685
957.238
954.787
952.33
949.876
947.417
1054.46
1057.53
1059.32
1060.05
1059.88
1059.2
1058.01
1056.4
1054.49
1052.45
1050.34
1048.16
1045.86
1043.42
1040.91
1038.36
1035.72
1033.03
1030.37
1027.71
1025.05
1022.41
1019.79
1017.18
1014.58
1012
1009.43
1006.87
1004.31
1001.77
999.224
996.689
994.158
991.632
989.109
986.588
984.068
981.549
979.029
976.507
973.984
971.458
968.928
966.394
963.856
961.313
958.765
956.209
953.656
951.095
1076.12
1075.13
1073.7
1071.88
1069.82
1067.63
1065.37
1063.05
1060.62
1058.08
1055.46
1052.8
1050.07
1047.28
1044.51
1041.77
1039.01
1036.26
1033.54
1030.83
1028.13
1025.45
1022.78
1020.12
1017.47
1014.83
1012.19
1009.56
1006.94
1004.32
1001.7
999.093
996.484
993.877
991.27
988.664
986.057
983.448
980.836
978.221
975.602
972.979
970.35
967.716
965.076
962.43
959.776
957.122
954.46
1087.6
1085.36
1083.02
1080.62
1078.16
1075.6
1072.95
1070.22
1067.45
1064.62
1061.74
1058.87
1056.03
1053.17
1050.32
1047.5
1044.7
1041.9
1039.11
1036.35
1033.59
1030.84
1028.1
1025.37
1022.65
1019.93
1017.22
1014.52
1011.82
1009.12
1006.42
1003.73
1001.03
998.342
995.649
992.955
990.259
987.56
984.857
982.15
979.437
976.72
973.995
971.265
968.527
965.782
963.029
960.275
957.511
1096.07
1093.47
1090.77
1088
1085.17
1082.3
1079.36
1076.39
1073.42
1070.48
1067.53
1064.58
1061.66
1058.76
1055.86
1052.98
1050.11
1047.26
1044.42
1041.58
1038.76
1035.94
1033.13
1030.33
1027.54
1024.75
1021.96
1019.18
1016.4
1013.62
1010.84
1008.06
1005.28
1002.5
999.724
996.941
994.154
991.364
988.569
985.769
982.962
980.149
977.328
974.5
971.664
968.821
965.968
963.114
960.248
1100.3
1097.32
1094.28
1091.22
1088.15
1085.11
1082.07
1079.02
1076.01
1073.01
1070.01
1067.04
1064.08
1061.13
1058.19
1055.26
1052.34
1049.44
1046.54
1043.64
1040.76
1037.88
1035
1032.13
1029.26
1026.4
1023.54
1020.67
1017.81
1014.95
1012.09
1009.23
1006.36
1003.49
1000.62
997.742
994.859
991.971
989.077
986.175
983.266
980.348
977.423
974.489
971.546
968.594
965.639
962.672
1106.21
1103.05
1099.91
1096.78
1093.64
1090.53
1087.44
1084.35
1081.28
1078.23
1075.18
1072.15
1069.13
1066.12
1063.12
1060.13
1057.15
1054.17
1051.2
1048.24
1045.28
1042.32
1039.37
1036.43
1033.48
1030.54
1027.59
1024.65
1021.71
1018.76
1015.81
1012.86
1009.91
1006.95
1003.99
1001.02
998.044
995.062
992.073
989.076
986.07
983.056
980.032
976.999
973.958
970.907
967.852
964.783
1108.41
1105.21
1102.03
1098.85
1095.69
1092.55
1089.41
1086.29
1083.18
1080.08
1076.99
1073.9
1070.83
1067.77
1064.71
1061.66
1058.61
1055.57
1052.54
1049.51
1046.48
1043.45
1040.42
1037.4
1034.38
1031.35
1028.33
1025.3
1022.27
1019.23
1016.19
1013.15
1010.1
1007.05
1003.99
1000.92
997.842
994.757
991.664
988.562
985.45
982.329
979.198
976.058
972.907
969.752
966.583
1113.5
1110.25
1107.02
1103.8
1100.58
1097.39
1094.2
1091.02
1087.85
1084.69
1081.54
1078.39
1075.26
1072.13
1069
1065.88
1062.76
1059.65
1056.54
1053.44
1050.33
1047.23
1044.12
1041.02
1037.91
1034.81
1031.7
1028.58
1025.46
1022.34
1019.22
1016.08
1012.94
1009.8
1006.64
1003.48
1000.31
997.129
993.94
990.741
987.532
984.313
981.084
977.846
974.596
971.343
968.075
1115.03
1111.75
1108.47
1105.21
1101.95
1098.71
1095.47
1092.24
1089.02
1085.81
1082.6
1079.39
1076.19
1073
1069.81
1066.62
1063.44
1060.25
1057.07
1053.89
1050.7
1047.52
1044.33
1041.14
1037.95
1034.76
1031.56
1028.35
1025.14
1021.93
1018.7
1015.47
1012.23
1008.99
1005.73
1002.46
999.188
995.903
992.608
989.302
985.986
982.659
979.324
975.977
972.626
969.26
1119.54
1116.2
1112.87
1109.55
1106.24
1102.94
1099.64
1096.35
1093.06
1089.78
1086.51
1083.24
1079.97
1076.7
1073.44
1070.18
1066.92
1063.66
1060.4
1057.14
1053.87
1050.61
1047.34
1044.07
1040.79
1037.51
1034.23
1030.93
1027.63
1024.33
1021.01
1017.69
1014.36
1011.02
1007.67
1004.31
1000.94
997.556
994.164
990.762
987.349
983.926
980.494
977.051
973.604
970.141
1123.77
1120.38
1116.99
1113.62
1110.25
1106.88
1103.52
1100.17
1096.82
1093.47
1090.13
1086.79
1083.45
1080.11
1076.78
1073.44
1070.1
1066.77
1063.43
1060.09
1056.74
1053.39
1050.04
1046.69
1043.32
1039.96
1036.58
1033.2
1029.81
1026.42
1023.01
1019.6
1016.17
1012.74
1009.29
1005.84
1002.37
998.898
995.411
991.914
988.406
984.887
981.36
977.821
974.278
970.721
1127.72
1124.27
1120.83
1117.39
1113.96
1110.54
1107.11
1103.69
1100.28
1096.86
1093.45
1090.04
1086.63
1083.22
1079.81
1076.4
1072.98
1069.57
1066.15
1062.73
1059.3
1055.87
1052.44
1048.99
1045.55
1042.09
1038.63
1035.16
1031.68
1028.19
1024.7
1021.19
1017.68
1014.15
1010.61
1007.06
1003.5
999.933
996.351
992.759
989.156
985.543
981.922
978.289
974.652
971
1131.39
1127.88
1124.38
1120.88
1117.39
1113.9
1110.41
1106.93
1103.44
1099.96
1096.48
1092.99
1089.51
1086.02
1082.54
1079.05
1075.56
1072.06
1068.56
1065.06
1061.55
1058.04
1054.52
1050.99
1047.46
1043.92
1040.37
1036.81
1033.24
1029.66
1026.07
1022.48
1018.87
1015.25
1011.62
1007.98
1004.32
1000.66
996.986
993.3
989.604
985.897
982.183
978.464
974.742
971.004
1134.77
1131.2
1127.64
1124.08
1120.52
1116.97
1113.41
1109.86
1106.31
1102.75
1099.2
1095.64
1092.09
1088.53
1084.96
1081.4
1077.83
1074.25
1070.67
1067.09
1063.5
1059.9
1056.29
1052.68
1049.06
1045.43
1041.79
1038.14
1034.49
1030.82
1027.14
1023.45
1019.75
1016.04
1012.32
1008.59
1004.84
1001.08
997.316
993.54
989.757
985.965
982.166
978.361
974.554
970.733
1137.86
1134.23
1130.61
1126.98
1123.36
1119.74
1116.12
1112.49
1108.87
1105.25
1101.62
1097.99
1094.36
1090.72
1087.08
1083.44
1079.79
1076.13
1072.47
1068.8
1065.13
1061.44
1057.75
1054.06
1050.35
1046.63
1042.91
1039.17
1035.43
1031.67
1027.9
1024.12
1020.33
1016.53
1012.71
1008.89
1005.06
1001.21
997.361
993.499
989.631
985.754
981.871
977.978
974.085
970.178
1136.96
1133.27
1129.59
1125.9
1122.21
1118.52
1114.82
1111.13
1107.43
1103.73
1100.03
1096.32
1092.61
1088.89
1085.16
1081.44
1077.7
1073.96
1070.21
1066.45
1062.68
1058.91
1055.12
1051.33
1047.53
1043.71
1039.89
1036.05
1032.21
1028.35
1024.48
1020.6
1016.71
1012.82
1008.91
1004.99
1001.06
997.125
993.177
989.221
985.258
981.29
977.314
973.339
969.351
1139.4
1135.64
1131.89
1128.13
1124.37
1120.61
1116.85
1113.08
1109.31
1105.54
1101.76
1097.97
1094.18
1090.39
1086.58
1082.77
1078.96
1075.13
1071.3
1067.46
1063.61
1059.75
1055.88
1052
1048.11
1044.21
1040.3
1036.37
1032.44
1028.5
1024.55
1020.59
1016.62
1012.63
1008.64
1004.64
1000.62
996.6
992.568
988.529
984.483
980.433
976.378
972.324
968.259
1141.53
1137.71
1133.89
1130.06
1126.23
1122.4
1118.57
1114.73
1110.88
1107.03
1103.18
1099.32
1095.45
1091.57
1087.69
1083.8
1079.91
1076
1072.08
1068.16
1064.23
1060.28
1056.33
1052.36
1048.39
1044.4
1040.41
1036.41
1032.39
1028.37
1024.34
1020.29
1016.23
1012.16
1008.09
1004
999.9
995.794
991.681
987.561
983.436
979.308
975.177
971.048
966.91
1139.47
1135.58
1131.68
1127.79
1123.88
1119.98
1116.06
1112.14
1108.22
1104.29
1100.35
1096.4
1092.45
1088.49
1084.52
1080.54
1076.55
1072.56
1068.55
1064.53
1060.51
1056.47
1052.43
1048.37
1044.31
1040.24
1036.15
1032.05
1027.95
1023.83
1019.7
1015.56
1011.41
1007.25
1003.08
998.899
994.714
990.522
986.326
982.125
977.922
973.718
969.518
965.31
1140.92
1136.96
1133
1129.03
1125.05
1121.07
1117.09
1113.09
1109.09
1105.09
1101.07
1097.05
1093.02
1088.98
1084.92
1080.86
1076.8
1072.72
1068.64
1064.54
1060.44
1056.33
1052.2
1048.07
1043.92
1039.77
1035.6
1031.42
1027.23
1023.03
1018.82
1014.6
1010.37
1006.13
1001.88
997.628
993.367
989.1
984.83
980.557
976.284
972.011
967.743
963.47
1142.06
1138.03
1134
1129.96
1125.91
1121.86
1117.8
1113.73
1109.66
1105.57
1101.48
1097.38
1093.27
1089.15
1085.03
1080.89
1076.75
1072.6
1068.44
1064.27
1060.08
1055.89
1051.68
1047.47
1043.24
1039.01
1034.76
1030.5
1026.23
1021.95
1017.66
1013.37
1009.06
1004.75
1000.42
996.094
991.76
987.422
983.081
978.739
974.399
970.061
965.73
961.396
1142.89
1138.79
1134.69
1130.58
1126.46
1122.33
1118.2
1114.05
1109.91
1105.75
1101.58
1097.41
1093.23
1089.04
1084.84
1080.63
1076.41
1072.18
1067.94
1063.69
1059.43
1055.15
1050.87
1046.58
1042.27
1037.96
1033.64
1029.3
1024.96
1020.6
1016.24
1011.87
1007.49
1003.1
998.704
994.305
989.901
985.495
981.088
976.681
972.278
967.879
963.489
959.098
1139.23
1135.06
1130.88
1126.69
1122.49
1118.29
1114.08
1109.86
1105.63
1101.4
1097.15
1092.89
1088.63
1084.35
1080.06
1075.77
1071.46
1067.14
1062.82
1058.48
1054.13
1049.77
1045.4
1041.02
1036.63
1032.24
1027.83
1023.41
1018.98
1014.55
1010.1
1005.65
1001.2
996.734
992.267
987.798
983.328
978.858
974.39
969.928
965.472
961.027
956.584
1139.37
1135.13
1130.88
1126.62
1122.36
1118.09
1113.81
1109.52
1105.21
1100.9
1096.58
1092.25
1087.91
1083.56
1079.2
1074.83
1070.45
1066.06
1061.66
1057.25
1052.82
1048.39
1043.95
1039.5
1035.04
1030.57
1026.09
1021.6
1017.1
1012.6
1008.09
1003.57
999.046
994.519
989.99
985.459
980.928
976.399
971.875
967.358
962.849
958.354
953.862
1139.21
1134.9
1130.59
1126.26
1121.92
1117.58
1113.23
1108.86
1104.49
1100.11
1095.72
1091.31
1086.9
1082.48
1078.05
1073.6
1069.15
1064.69
1060.22
1055.73
1051.24
1046.74
1042.22
1037.7
1033.17
1028.63
1024.09
1019.53
1014.97
1010.4
1005.82
1001.24
996.657
992.07
987.48
982.891
978.304
973.721
969.144
964.576
960.019
955.478
950.943
1134.37
1129.98
1125.59
1121.18
1116.77
1112.35
1107.91
1103.47
1099.02
1094.56
1090.08
1085.6
1081.11
1076.6
1072.09
1067.57
1063.04
1058.5
1053.94
1049.38
1044.81
1040.23
1035.65
1031.05
1026.45
1021.83
1017.21
1012.59
1007.96
1003.32
998.68
994.037
989.393
984.748
980.104
975.465
970.831
966.206
961.592
956.991
952.408
947.834
1133.52
1129.07
1124.61
1120.14
1115.66
1111.17
1106.67
1102.15
1097.63
1093.1
1088.56
1084.01
1079.45
1074.88
1070.3
1065.71
1061.11
1056.51
1051.89
1047.26
1042.63
1037.99
1033.33
1028.67
1024.01
1019.34
1014.66
1009.97
1005.28
1000.59
995.892
991.194
986.497
981.8
977.107
972.419
967.739
963.069
958.414
953.773
949.153
944.544
1132.38
1127.86
1123.33
1118.8
1114.25
1109.69
1105.13
1100.55
1095.96
1091.37
1086.76
1082.14
1077.52
1072.89
1068.24
1063.59
1058.93
1054.25
1049.57