/*--------------------------------*- C++ -*----------------------------------*\
| =========                 |                                                 |
| \\      /  F ield         | OpenFOAM: The Open Source CFD Toolbox           |
|  \\    /   O peration     | Version:  v1706                                 |
|   \\  /    A nd           | Web:      www.OpenFOAM.com                      |
|    \\/     M anipulation  |                                                 |
\*---------------------------------------------------------------------------*/
FoamFile
{
    version     2.0;
    format      ascii;
    class       volScalarField;
    location    "1.1e-05";
    object      wallHeatFlux;
}
// * * * * * * * * * * * * * * * * * * * * * * * * * * * * * * * * * * * * * //

dimensions      [1 0 -3 0 0 0 0];


internalField   uniform 0;

boundaryField
{
    cone
    {
        type            calculated;
        value           nonuniform List<scalar> 
119
(
67816.7
68049.7
68341.9
68687.4
69080.5
69515.9
69989
70496.2
71034.6
71602.3
72198.1
72821.6
73473
74152.9
74862.1
75601.7
76372.7
77175.9
78012.2
78882.1
79785.9
80724
81696.2
82702.6
83743.1
84817.6
85926.1
87068.8
88245.8
89457.7
90705.1
91988.6
93309.2
94667.7
96065.3
97503.1
98982.2
100504
102069
103679
105334
107037
108787
110587
112437
114338
116292
118298
120359
122476
124649
126879
129168
131515
133924
136393
138924
141518
144175
146897
149683
152535
155453
158437
161488
164606
167792
171045
174367
177755
181211
184735
188325
191981
195703
199489
203341
207256
211233
215273
219375
223536
227758
232039
236379
240777
245233
249748
254321
258953
263644
268397
273213
278094
283043
288064
293159
298333
303591
308938
314379
319923
325578
331360
337288
343390
349711
356307
363245
370588
378377
386510
394834
402606
409339
414657
419247
427810
439828
)
;
    }
    inlet
    {
        type            calculated;
        value           uniform 0;
    }
    rWedge
    {
        type            wedge;
    }
    lWedge
    {
        type            wedge;
    }
    outlet
    {
        type            calculated;
        value           uniform 0;
    }
    procBoundary0to1
    {
        type            processor;
        value           uniform 0;
    }
    procBoundary0to2
    {
        type            processor;
        value           uniform 0;
    }
}


// ************************************************************************* //
