/*--------------------------------*- C++ -*----------------------------------*\
| =========                 |                                                 |
| \\      /  F ield         | OpenFOAM: The Open Source CFD Toolbox           |
|  \\    /   O peration     | Version:  v1706                                 |
|   \\  /    A nd           | Web:      www.OpenFOAM.com                      |
|    \\/     M anipulation  |                                                 |
\*---------------------------------------------------------------------------*/
FoamFile
{
    version     2.0;
    format      ascii;
    class       volScalarField;
    location    "1.8e-05";
    object      alpha;
}
// * * * * * * * * * * * * * * * * * * * * * * * * * * * * * * * * * * * * * //

dimensions      [1 -1 -1 0 0 0 0];


internalField   nonuniform List<scalar> 
29871
(
1.40479e-05
1.40479e-05
1.4048e-05
1.4048e-05
1.4048e-05
1.4048e-05
1.4048e-05
1.4048e-05
1.4048e-05
1.4048e-05
1.40481e-05
1.40481e-05
1.40481e-05
1.40481e-05
1.40481e-05
1.40481e-05
1.40481e-05
1.40482e-05
1.40482e-05
1.40482e-05
1.40482e-05
1.40482e-05
1.40482e-05
1.40482e-05
1.40482e-05
1.40483e-05
1.40483e-05
1.40483e-05
1.40483e-05
1.40483e-05
1.40483e-05
1.40483e-05
1.40483e-05
1.40483e-05
1.40483e-05
1.40483e-05
1.40483e-05
1.40483e-05
1.40483e-05
1.40483e-05
1.40483e-05
1.40483e-05
1.40483e-05
1.40483e-05
1.40482e-05
1.40482e-05
1.40482e-05
1.40482e-05
1.40482e-05
1.40482e-05
1.40482e-05
1.40482e-05
1.40481e-05
1.40481e-05
1.40481e-05
1.40481e-05
1.40481e-05
1.40481e-05
1.40481e-05
1.40481e-05
1.4048e-05
1.4048e-05
1.4048e-05
1.4048e-05
1.4048e-05
1.4048e-05
1.4048e-05
1.4048e-05
1.4048e-05
1.4048e-05
1.4048e-05
1.4048e-05
1.40479e-05
1.40479e-05
1.40479e-05
1.40479e-05
1.40479e-05
1.40479e-05
1.40479e-05
1.40479e-05
1.40479e-05
1.40479e-05
1.40479e-05
1.40479e-05
1.40479e-05
1.40479e-05
1.40479e-05
1.40479e-05
1.40479e-05
1.40479e-05
1.40479e-05
1.40479e-05
1.40479e-05
1.40479e-05
1.40479e-05
1.40479e-05
1.40479e-05
1.40479e-05
1.40479e-05
1.40479e-05
1.40479e-05
1.40479e-05
1.4048e-05
1.4048e-05
1.4048e-05
1.40486e-05
1.40487e-05
1.40487e-05
1.40488e-05
1.40489e-05
1.40489e-05
1.4049e-05
1.40491e-05
1.40492e-05
1.40493e-05
1.40494e-05
1.40495e-05
1.40495e-05
1.40496e-05
1.40497e-05
1.40498e-05
1.40499e-05
1.405e-05
1.40501e-05
1.40502e-05
1.40502e-05
1.40503e-05
1.40504e-05
1.40505e-05
1.40505e-05
1.40506e-05
1.40506e-05
1.40507e-05
1.40507e-05
1.40508e-05
1.40508e-05
1.40508e-05
1.40508e-05
1.40509e-05
1.40509e-05
1.40509e-05
1.40509e-05
1.40508e-05
1.40508e-05
1.40508e-05
1.40508e-05
1.40507e-05
1.40507e-05
1.40506e-05
1.40506e-05
1.40505e-05
1.40504e-05
1.40504e-05
1.40503e-05
1.40502e-05
1.40502e-05
1.40501e-05
1.405e-05
1.40499e-05
1.40498e-05
1.40498e-05
1.40497e-05
1.40496e-05
1.40495e-05
1.40495e-05
1.40494e-05
1.40493e-05
1.40493e-05
1.40492e-05
1.40491e-05
1.40491e-05
1.4049e-05
1.4049e-05
1.40489e-05
1.40489e-05
1.40489e-05
1.40488e-05
1.40488e-05
1.40488e-05
1.40487e-05
1.40487e-05
1.40487e-05
1.40487e-05
1.40487e-05
1.40487e-05
1.40487e-05
1.40487e-05
1.40487e-05
1.40487e-05
1.40487e-05
1.40487e-05
1.40487e-05
1.40487e-05
1.40487e-05
1.40487e-05
1.40487e-05
1.40487e-05
1.40487e-05
1.40487e-05
1.40487e-05
1.40488e-05
1.40488e-05
1.40488e-05
1.40488e-05
1.40488e-05
1.40488e-05
1.40488e-05
1.40488e-05
1.40489e-05
1.40489e-05
1.40501e-05
1.40503e-05
1.40505e-05
1.40507e-05
1.40509e-05
1.40512e-05
1.40514e-05
1.40517e-05
1.40519e-05
1.40522e-05
1.40524e-05
1.40527e-05
1.4053e-05
1.40533e-05
1.40536e-05
1.40538e-05
1.40541e-05
1.40544e-05
1.40547e-05
1.40549e-05
1.40552e-05
1.40555e-05
1.40557e-05
1.40559e-05
1.40562e-05
1.40564e-05
1.40566e-05
1.40567e-05
1.40569e-05
1.4057e-05
1.40572e-05
1.40573e-05
1.40573e-05
1.40574e-05
1.40574e-05
1.40575e-05
1.40575e-05
1.40574e-05
1.40574e-05
1.40573e-05
1.40572e-05
1.40571e-05
1.4057e-05
1.40569e-05
1.40567e-05
1.40566e-05
1.40564e-05
1.40562e-05
1.4056e-05
1.40558e-05
1.40555e-05
1.40553e-05
1.40551e-05
1.40548e-05
1.40546e-05
1.40544e-05
1.40541e-05
1.40539e-05
1.40536e-05
1.40534e-05
1.40532e-05
1.4053e-05
1.40528e-05
1.40526e-05
1.40524e-05
1.40522e-05
1.4052e-05
1.40518e-05
1.40517e-05
1.40515e-05
1.40514e-05
1.40513e-05
1.40512e-05
1.40511e-05
1.4051e-05
1.40509e-05
1.40509e-05
1.40508e-05
1.40508e-05
1.40507e-05
1.40507e-05
1.40507e-05
1.40507e-05
1.40507e-05
1.40507e-05
1.40507e-05
1.40507e-05
1.40507e-05
1.40507e-05
1.40508e-05
1.40508e-05
1.40508e-05
1.40509e-05
1.40509e-05
1.4051e-05
1.4051e-05
1.4051e-05
1.40511e-05
1.40511e-05
1.40512e-05
1.40512e-05
1.40513e-05
1.40513e-05
1.40514e-05
1.40514e-05
1.40515e-05
1.40541e-05
1.40547e-05
1.40552e-05
1.40558e-05
1.40564e-05
1.4057e-05
1.40576e-05
1.40583e-05
1.4059e-05
1.40597e-05
1.40604e-05
1.40612e-05
1.40619e-05
1.40627e-05
1.40634e-05
1.40642e-05
1.40649e-05
1.40657e-05
1.40664e-05
1.40671e-05
1.40678e-05
1.40685e-05
1.40691e-05
1.40698e-05
1.40704e-05
1.40709e-05
1.40714e-05
1.40719e-05
1.40723e-05
1.40727e-05
1.4073e-05
1.40733e-05
1.40735e-05
1.40737e-05
1.40738e-05
1.40738e-05
1.40738e-05
1.40738e-05
1.40736e-05
1.40735e-05
1.40732e-05
1.4073e-05
1.40726e-05
1.40723e-05
1.40719e-05
1.40714e-05
1.40709e-05
1.40704e-05
1.40699e-05
1.40693e-05
1.40687e-05
1.40681e-05
1.40675e-05
1.40668e-05
1.40662e-05
1.40656e-05
1.40649e-05
1.40643e-05
1.40637e-05
1.40631e-05
1.40625e-05
1.40619e-05
1.40613e-05
1.40608e-05
1.40603e-05
1.40598e-05
1.40593e-05
1.40589e-05
1.40585e-05
1.40581e-05
1.40578e-05
1.40575e-05
1.40572e-05
1.40569e-05
1.40567e-05
1.40565e-05
1.40564e-05
1.40562e-05
1.40561e-05
1.40561e-05
1.4056e-05
1.4056e-05
1.4056e-05
1.4056e-05
1.4056e-05
1.4056e-05
1.40561e-05
1.40562e-05
1.40562e-05
1.40563e-05
1.40564e-05
1.40565e-05
1.40567e-05
1.40568e-05
1.40569e-05
1.4057e-05
1.40572e-05
1.40573e-05
1.40575e-05
1.40576e-05
1.40578e-05
1.40579e-05
1.40581e-05
1.40583e-05
1.40584e-05
1.40586e-05
1.40629e-05
1.40641e-05
1.40655e-05
1.40669e-05
1.40683e-05
1.40698e-05
1.40714e-05
1.40731e-05
1.40747e-05
1.40765e-05
1.40782e-05
1.40801e-05
1.40819e-05
1.40838e-05
1.40857e-05
1.40875e-05
1.40894e-05
1.40913e-05
1.40932e-05
1.4095e-05
1.40968e-05
1.40985e-05
1.41002e-05
1.41018e-05
1.41034e-05
1.41048e-05
1.41062e-05
1.41074e-05
1.41086e-05
1.41096e-05
1.41105e-05
1.41113e-05
1.41119e-05
1.41124e-05
1.41128e-05
1.4113e-05
1.41131e-05
1.41131e-05
1.41129e-05
1.41126e-05
1.41121e-05
1.41115e-05
1.41108e-05
1.411e-05
1.41091e-05
1.4108e-05
1.41069e-05
1.41057e-05
1.41044e-05
1.4103e-05
1.41016e-05
1.41001e-05
1.40986e-05
1.40971e-05
1.40955e-05
1.40939e-05
1.40923e-05
1.40908e-05
1.40892e-05
1.40877e-05
1.40862e-05
1.40847e-05
1.40833e-05
1.40819e-05
1.40806e-05
1.40794e-05
1.40782e-05
1.40771e-05
1.4076e-05
1.40751e-05
1.40742e-05
1.40734e-05
1.40726e-05
1.4072e-05
1.40714e-05
1.40709e-05
1.40705e-05
1.40701e-05
1.40698e-05
1.40696e-05
1.40695e-05
1.40694e-05
1.40693e-05
1.40694e-05
1.40694e-05
1.40695e-05
1.40697e-05
1.40699e-05
1.40701e-05
1.40704e-05
1.40706e-05
1.4071e-05
1.40713e-05
1.40716e-05
1.4072e-05
1.40724e-05
1.40728e-05
1.40732e-05
1.40736e-05
1.40741e-05
1.40745e-05
1.4075e-05
1.40754e-05
1.40759e-05
1.40764e-05
1.40769e-05
1.40774e-05
1.40854e-05
1.40885e-05
1.40918e-05
1.40952e-05
1.40988e-05
1.41025e-05
1.41064e-05
1.41104e-05
1.41145e-05
1.41187e-05
1.4123e-05
1.41273e-05
1.41318e-05
1.41362e-05
1.41407e-05
1.41452e-05
1.41497e-05
1.41542e-05
1.41586e-05
1.41629e-05
1.41671e-05
1.41712e-05
1.41751e-05
1.41788e-05
1.41824e-05
1.41857e-05
1.41888e-05
1.41916e-05
1.41942e-05
1.41965e-05
1.41985e-05
1.42002e-05
1.42016e-05
1.42027e-05
1.42035e-05
1.42039e-05
1.42039e-05
1.42037e-05
1.42032e-05
1.42024e-05
1.42012e-05
1.41997e-05
1.4198e-05
1.4196e-05
1.41937e-05
1.41912e-05
1.41885e-05
1.41856e-05
1.41825e-05
1.41793e-05
1.41759e-05
1.41724e-05
1.41688e-05
1.41652e-05
1.41615e-05
1.41578e-05
1.41541e-05
1.41505e-05
1.41468e-05
1.41433e-05
1.41398e-05
1.41364e-05
1.41331e-05
1.41299e-05
1.41269e-05
1.4124e-05
1.41212e-05
1.41187e-05
1.41163e-05
1.41141e-05
1.41121e-05
1.41103e-05
1.41086e-05
1.41072e-05
1.41059e-05
1.41049e-05
1.4104e-05
1.41033e-05
1.41027e-05
1.41024e-05
1.41021e-05
1.41021e-05
1.41022e-05
1.41023e-05
1.41026e-05
1.4103e-05
1.41035e-05
1.41041e-05
1.41048e-05
1.41056e-05
1.41064e-05
1.41073e-05
1.41083e-05
1.41093e-05
1.41104e-05
1.41114e-05
1.41126e-05
1.41137e-05
1.41149e-05
1.41161e-05
1.41174e-05
1.41186e-05
1.41199e-05
1.41213e-05
1.41226e-05
1.4124e-05
1.41254e-05
1.41193e-05
1.41257e-05
1.41324e-05
1.41395e-05
1.41469e-05
1.41547e-05
1.41628e-05
1.41712e-05
1.418e-05
1.4189e-05
1.41983e-05
1.42078e-05
1.42176e-05
1.42275e-05
1.42376e-05
1.42478e-05
1.4258e-05
1.42683e-05
1.42786e-05
1.42889e-05
1.4299e-05
1.43089e-05
1.43186e-05
1.4328e-05
1.43371e-05
1.43457e-05
1.4354e-05
1.43617e-05
1.43689e-05
1.43756e-05
1.43817e-05
1.43871e-05
1.4392e-05
1.43961e-05
1.43996e-05
1.44023e-05
1.44044e-05
1.44057e-05
1.44062e-05
1.44061e-05
1.44053e-05
1.44038e-05
1.44016e-05
1.43987e-05
1.43951e-05
1.4391e-05
1.43863e-05
1.4381e-05
1.43752e-05
1.43689e-05
1.43623e-05
1.43552e-05
1.43479e-05
1.43402e-05
1.43323e-05
1.43243e-05
1.43161e-05
1.43079e-05
1.42996e-05
1.42913e-05
1.42831e-05
1.4275e-05
1.42671e-05
1.42593e-05
1.42518e-05
1.42445e-05
1.42376e-05
1.42309e-05
1.42246e-05
1.42187e-05
1.42131e-05
1.42079e-05
1.42032e-05
1.41989e-05
1.4195e-05
1.41916e-05
1.41886e-05
1.41861e-05
1.4184e-05
1.41823e-05
1.4181e-05
1.41802e-05
1.41797e-05
1.41797e-05
1.41798e-05
1.41803e-05
1.41811e-05
1.41822e-05
1.41835e-05
1.41851e-05
1.41869e-05
1.41889e-05
1.41911e-05
1.41934e-05
1.41959e-05
1.41986e-05
1.42013e-05
1.42042e-05
1.42072e-05
1.42102e-05
1.42133e-05
1.42165e-05
1.42198e-05
1.42232e-05
1.42266e-05
1.42301e-05
1.42336e-05
1.42373e-05
1.4241e-05
1.42448e-05
1.42185e-05
1.42332e-05
1.42487e-05
1.4265e-05
1.4282e-05
1.42999e-05
1.43184e-05
1.43377e-05
1.43575e-05
1.43779e-05
1.43988e-05
1.442e-05
1.44416e-05
1.44634e-05
1.44853e-05
1.45074e-05
1.45295e-05
1.45516e-05
1.45734e-05
1.4595e-05
1.46163e-05
1.4637e-05
1.46571e-05
1.46764e-05
1.4695e-05
1.47125e-05
1.47291e-05
1.47445e-05
1.47587e-05
1.47717e-05
1.47834e-05
1.47937e-05
1.48027e-05
1.48102e-05
1.48163e-05
1.4821e-05
1.48241e-05
1.48258e-05
1.48258e-05
1.48247e-05
1.48221e-05
1.48183e-05
1.48129e-05
1.48062e-05
1.47982e-05
1.4789e-05
1.47787e-05
1.47674e-05
1.4755e-05
1.47417e-05
1.47276e-05
1.47128e-05
1.46974e-05
1.46814e-05
1.4665e-05
1.46483e-05
1.46313e-05
1.46142e-05
1.4597e-05
1.45798e-05
1.45628e-05
1.4546e-05
1.45296e-05
1.45135e-05
1.44978e-05
1.44828e-05
1.44683e-05
1.44546e-05
1.44416e-05
1.44294e-05
1.44181e-05
1.44076e-05
1.43981e-05
1.43896e-05
1.4382e-05
1.43754e-05
1.43698e-05
1.43651e-05
1.43614e-05
1.43587e-05
1.43569e-05
1.4356e-05
1.4356e-05
1.43565e-05
1.43578e-05
1.43598e-05
1.43625e-05
1.43659e-05
1.43698e-05
1.43742e-05
1.43792e-05
1.43845e-05
1.43903e-05
1.43964e-05
1.44029e-05
1.44097e-05
1.44167e-05
1.44239e-05
1.44314e-05
1.44391e-05
1.44469e-05
1.4455e-05
1.44632e-05
1.44715e-05
1.44801e-05
1.44888e-05
1.44977e-05
1.45068e-05
1.45162e-05
1.45257e-05
1.44432e-05
1.44758e-05
1.451e-05
1.45456e-05
1.45827e-05
1.4621e-05
1.46606e-05
1.47012e-05
1.47428e-05
1.47851e-05
1.4828e-05
1.48714e-05
1.49149e-05
1.49586e-05
1.50022e-05
1.50456e-05
1.50886e-05
1.5131e-05
1.51728e-05
1.52137e-05
1.52536e-05
1.52922e-05
1.53293e-05
1.53646e-05
1.5398e-05
1.54293e-05
1.54584e-05
1.54851e-05
1.55093e-05
1.5531e-05
1.55501e-05
1.55665e-05
1.55804e-05
1.55917e-05
1.56003e-05
1.56062e-05
1.56095e-05
1.56099e-05
1.56081e-05
1.56039e-05
1.55973e-05
1.55882e-05
1.55766e-05
1.55628e-05
1.55467e-05
1.55285e-05
1.55084e-05
1.54864e-05
1.54627e-05
1.54375e-05
1.54108e-05
1.53829e-05
1.53539e-05
1.5324e-05
1.52933e-05
1.5262e-05
1.52303e-05
1.51983e-05
1.51663e-05
1.51343e-05
1.51026e-05
1.50714e-05
1.50407e-05
1.50108e-05
1.49818e-05
1.49539e-05
1.49271e-05
1.49017e-05
1.48776e-05
1.48551e-05
1.48343e-05
1.48152e-05
1.4798e-05
1.47826e-05
1.47692e-05
1.47578e-05
1.47484e-05
1.4741e-05
1.47357e-05
1.47322e-05
1.47309e-05
1.47314e-05
1.47329e-05
1.47362e-05
1.47411e-05
1.47474e-05
1.47551e-05
1.47641e-05
1.47742e-05
1.47854e-05
1.47975e-05
1.48106e-05
1.48244e-05
1.4839e-05
1.48542e-05
1.487e-05
1.48863e-05
1.49032e-05
1.49205e-05
1.49382e-05
1.49563e-05
1.49748e-05
1.49936e-05
1.50127e-05
1.50322e-05
1.5052e-05
1.50722e-05
1.50927e-05
1.51136e-05
1.51349e-05
1.49205e-05
1.49867e-05
1.50551e-05
1.51257e-05
1.51983e-05
1.52728e-05
1.5349e-05
1.54264e-05
1.55044e-05
1.55827e-05
1.56607e-05
1.57381e-05
1.58144e-05
1.58894e-05
1.59629e-05
1.60346e-05
1.61044e-05
1.6172e-05
1.62372e-05
1.62999e-05
1.63597e-05
1.64167e-05
1.64704e-05
1.65208e-05
1.65675e-05
1.66105e-05
1.66495e-05
1.66844e-05
1.67152e-05
1.67417e-05
1.67642e-05
1.67824e-05
1.67967e-05
1.68072e-05
1.68141e-05
1.68166e-05
1.68156e-05
1.68111e-05
1.68031e-05
1.6792e-05
1.67781e-05
1.67606e-05
1.67399e-05
1.67161e-05
1.66893e-05
1.66598e-05
1.66278e-05
1.65933e-05
1.65566e-05
1.65178e-05
1.64772e-05
1.64348e-05
1.63908e-05
1.63454e-05
1.62988e-05
1.62513e-05
1.62029e-05
1.61541e-05
1.61048e-05
1.60556e-05
1.60064e-05
1.59578e-05
1.59099e-05
1.58629e-05
1.58173e-05
1.57733e-05
1.57311e-05
1.56911e-05
1.56535e-05
1.56185e-05
1.55863e-05
1.55572e-05
1.55313e-05
1.55088e-05
1.54896e-05
1.5474e-05
1.54619e-05
1.54534e-05
1.54484e-05
1.54477e-05
1.54494e-05
1.54538e-05
1.54616e-05
1.54721e-05
1.54853e-05
1.55011e-05
1.55191e-05
1.55393e-05
1.55614e-05
1.55852e-05
1.56105e-05
1.56372e-05
1.56652e-05
1.56942e-05
1.57242e-05
1.57551e-05
1.57867e-05
1.58189e-05
1.58518e-05
1.58851e-05
1.5919e-05
1.59533e-05
1.5988e-05
1.60232e-05
1.60588e-05
1.60948e-05
1.61313e-05
1.61683e-05
1.62058e-05
1.62439e-05
1.58345e-05
1.59517e-05
1.607e-05
1.6189e-05
1.63084e-05
1.64278e-05
1.65467e-05
1.66645e-05
1.67805e-05
1.68939e-05
1.70042e-05
1.71107e-05
1.72131e-05
1.73109e-05
1.7404e-05
1.74921e-05
1.75751e-05
1.76529e-05
1.77253e-05
1.77926e-05
1.78548e-05
1.79121e-05
1.79645e-05
1.8012e-05
1.80542e-05
1.80912e-05
1.8123e-05
1.81498e-05
1.81715e-05
1.81882e-05
1.81998e-05
1.82068e-05
1.82088e-05
1.82076e-05
1.82035e-05
1.81953e-05
1.81834e-05
1.81681e-05
1.81504e-05
1.813e-05
1.81062e-05
1.80793e-05
1.80494e-05
1.80168e-05
1.79816e-05
1.7944e-05
1.79041e-05
1.78622e-05
1.78184e-05
1.77728e-05
1.77253e-05
1.76762e-05
1.76259e-05
1.75744e-05
1.75218e-05
1.7468e-05
1.74133e-05
1.7358e-05
1.73024e-05
1.72465e-05
1.71908e-05
1.71355e-05
1.70808e-05
1.7027e-05
1.69745e-05
1.69236e-05
1.68746e-05
1.6828e-05
1.67842e-05
1.67435e-05
1.67065e-05
1.66734e-05
1.66447e-05
1.66207e-05
1.66015e-05
1.65872e-05
1.65779e-05
1.65751e-05
1.65768e-05
1.65824e-05
1.65928e-05
1.66078e-05
1.66268e-05
1.66496e-05
1.6676e-05
1.67056e-05
1.6738e-05
1.67729e-05
1.68101e-05
1.68491e-05
1.68897e-05
1.69317e-05
1.69748e-05
1.70189e-05
1.70637e-05
1.7109e-05
1.71548e-05
1.7201e-05
1.72476e-05
1.72945e-05
1.73416e-05
1.73888e-05
1.74361e-05
1.74833e-05
1.75306e-05
1.75779e-05
1.76253e-05
1.76726e-05
1.77198e-05
1.77669e-05
1.71203e-05
1.72822e-05
1.74411e-05
1.75962e-05
1.77469e-05
1.78928e-05
1.80341e-05
1.81715e-05
1.83035e-05
1.8428e-05
1.85438e-05
1.86503e-05
1.87472e-05
1.88346e-05
1.89127e-05
1.89816e-05
1.90422e-05
1.90947e-05
1.91396e-05
1.9177e-05
1.9207e-05
1.92303e-05
1.92473e-05
1.92589e-05
1.92657e-05
1.92673e-05
1.92661e-05
1.92623e-05
1.92555e-05
1.92457e-05
1.92332e-05
1.92178e-05
1.91999e-05
1.91798e-05
1.91584e-05
1.91361e-05
1.9114e-05
1.90882e-05
1.90601e-05
1.90327e-05
1.90053e-05
1.89764e-05
1.89463e-05
1.89153e-05
1.88837e-05
1.88511e-05
1.88179e-05
1.87843e-05
1.87501e-05
1.8715e-05
1.86793e-05
1.86436e-05
1.86074e-05
1.85701e-05
1.85317e-05
1.84929e-05
1.84537e-05
1.8414e-05
1.83738e-05
1.83331e-05
1.82921e-05
1.8251e-05
1.82103e-05
1.81701e-05
1.81311e-05
1.80933e-05
1.80572e-05
1.80232e-05
1.79917e-05
1.79632e-05
1.7938e-05
1.79163e-05
1.78986e-05
1.78852e-05
1.78761e-05
1.78722e-05
1.78727e-05
1.78773e-05
1.78868e-05
1.79011e-05
1.79203e-05
1.79432e-05
1.79701e-05
1.80008e-05
1.80344e-05
1.80705e-05
1.81086e-05
1.81482e-05
1.81887e-05
1.82299e-05
1.82714e-05
1.83132e-05
1.83547e-05
1.83954e-05
1.84353e-05
1.84746e-05
1.85131e-05
1.85505e-05
1.85865e-05
1.86208e-05
1.86536e-05
1.8685e-05
1.87153e-05
1.87444e-05
1.87724e-05
1.87992e-05
1.88249e-05
1.88495e-05
1.88731e-05
1.8896e-05
1.89181e-05
1.88629e-05
1.90224e-05
1.91681e-05
1.92995e-05
1.94162e-05
1.95184e-05
1.96059e-05
1.96793e-05
1.97401e-05
1.97902e-05
1.98309e-05
1.9863e-05
1.98868e-05
1.99033e-05
1.99134e-05
1.99169e-05
1.99159e-05
1.99118e-05
1.99038e-05
1.9892e-05
1.98769e-05
1.98588e-05
1.98383e-05
1.98158e-05
1.97916e-05
1.97659e-05
1.97394e-05
1.97125e-05
1.96846e-05
1.96574e-05
1.96288e-05
1.95975e-05
1.95674e-05
1.95365e-05
1.95055e-05
1.94763e-05
1.94466e-05
1.94149e-05
1.93825e-05
1.93515e-05
1.93215e-05
1.92912e-05
1.92607e-05
1.923e-05
1.91991e-05
1.91692e-05
1.91402e-05
1.9111e-05
1.9082e-05
1.90543e-05
1.90276e-05
1.90008e-05
1.89745e-05
1.89496e-05
1.89264e-05
1.89038e-05
1.88812e-05
1.88591e-05
1.8838e-05
1.8818e-05
1.87991e-05
1.87813e-05
1.87648e-05
1.87496e-05
1.87357e-05
1.87235e-05
1.87129e-05
1.87042e-05
1.86978e-05
1.86939e-05
1.86932e-05
1.86945e-05
1.86989e-05
1.87067e-05
1.87178e-05
1.87313e-05
1.87463e-05
1.87664e-05
1.8788e-05
1.88111e-05
1.88358e-05
1.88618e-05
1.88885e-05
1.89153e-05
1.89423e-05
1.89691e-05
1.8995e-05
1.90201e-05
1.90447e-05
1.90684e-05
1.90905e-05
1.91111e-05
1.91308e-05
1.91497e-05
1.91674e-05
1.91836e-05
1.91983e-05
1.9212e-05
1.92252e-05
1.92381e-05
1.92504e-05
1.92619e-05
1.92728e-05
1.92828e-05
1.92923e-05
1.93011e-05
1.93096e-05
1.93177e-05
1.93254e-05
1.93326e-05
1.93392e-05
1.93453e-05
1.93509e-05
2.02054e-05
2.02634e-05
2.03092e-05
2.03442e-05
2.03692e-05
2.03852e-05
2.03929e-05
2.0393e-05
2.03895e-05
2.03811e-05
2.03682e-05
2.03514e-05
2.03317e-05
2.03093e-05
2.02846e-05
2.0258e-05
2.02303e-05
2.0202e-05
2.01727e-05
2.01429e-05
2.01132e-05
2.0083e-05
2.0049e-05
2.00155e-05
1.99832e-05
1.99507e-05
1.9916e-05
1.98816e-05
1.98492e-05
1.98172e-05
1.97829e-05
1.97485e-05
1.97146e-05
1.96799e-05
1.96463e-05
1.96149e-05
1.95823e-05
1.95486e-05
1.95148e-05
1.94823e-05
1.94521e-05
1.9422e-05
1.93909e-05
1.93595e-05
1.93301e-05
1.93022e-05
1.92738e-05
1.9246e-05
1.92204e-05
1.9195e-05
1.91701e-05
1.91465e-05
1.91246e-05
1.91032e-05
1.9083e-05
1.90637e-05
1.90458e-05
1.90288e-05
1.9013e-05
1.89986e-05
1.89861e-05
1.89757e-05
1.89675e-05
1.89614e-05
1.89576e-05
1.89567e-05
1.89575e-05
1.89599e-05
1.89652e-05
1.8974e-05
1.89852e-05
1.89982e-05
1.90129e-05
1.90299e-05
1.90496e-05
1.90692e-05
1.90889e-05
1.91115e-05
1.91355e-05
1.91591e-05
1.91827e-05
1.92062e-05
1.92286e-05
1.92498e-05
1.92697e-05
1.92887e-05
1.93067e-05
1.93233e-05
1.93383e-05
1.93521e-05
1.93651e-05
1.93771e-05
1.93877e-05
1.93968e-05
1.94053e-05
1.94131e-05
1.94203e-05
1.94269e-05
1.94328e-05
1.94378e-05
1.94417e-05
1.94449e-05
1.94477e-05
1.94502e-05
1.94524e-05
1.94543e-05
1.94557e-05
1.94568e-05
1.94576e-05
1.94584e-05
1.94592e-05
1.946e-05
1.94608e-05
2.07722e-05
2.07777e-05
2.07762e-05
2.07699e-05
2.07582e-05
2.07419e-05
2.07221e-05
2.06996e-05
2.06745e-05
2.06475e-05
2.06197e-05
2.0591e-05
2.05609e-05
2.05306e-05
2.05004e-05
2.04639e-05
2.04287e-05
2.03945e-05
2.0359e-05
2.03228e-05
2.02867e-05
2.0251e-05
2.0215e-05
2.01787e-05
2.0142e-05
2.01051e-05
2.00688e-05
2.00326e-05
1.99958e-05
1.99593e-05
1.99238e-05
1.98886e-05
1.98531e-05
1.98178e-05
1.97825e-05
1.9747e-05
1.97132e-05
1.96806e-05
1.96472e-05
1.9613e-05
1.95786e-05
1.95466e-05
1.95165e-05
1.94856e-05
1.94536e-05
1.94231e-05
1.9395e-05
1.93666e-05
1.93385e-05
1.9313e-05
1.92878e-05
1.92625e-05
1.92404e-05
1.92198e-05
1.91983e-05
1.91785e-05
1.91614e-05
1.9146e-05
1.91298e-05
1.91144e-05
1.91016e-05
1.90907e-05
1.90815e-05
1.9074e-05
1.90684e-05
1.90655e-05
1.90655e-05
1.90668e-05
1.907e-05
1.90753e-05
1.90829e-05
1.90933e-05
1.91061e-05
1.91207e-05
1.91369e-05
1.91551e-05
1.91748e-05
1.91943e-05
1.92147e-05
1.92365e-05
1.92578e-05
1.92796e-05
1.93018e-05
1.93223e-05
1.93416e-05
1.93594e-05
1.9376e-05
1.9392e-05
1.94064e-05
1.9419e-05
1.94312e-05
1.94427e-05
1.94526e-05
1.94613e-05
1.94698e-05
1.94778e-05
1.94848e-05
1.94899e-05
1.9494e-05
1.94982e-05
1.95019e-05
1.95048e-05
1.95072e-05
1.95092e-05
1.95109e-05
1.95123e-05
1.95133e-05
1.95139e-05
1.95142e-05
1.95143e-05
1.95143e-05
1.95142e-05
1.9514e-05
1.95136e-05
1.9513e-05
2.10312e-05
2.10066e-05
2.09799e-05
2.09521e-05
2.0923e-05
2.08924e-05
2.08625e-05
2.0827e-05
2.07904e-05
2.07548e-05
2.07193e-05
2.06833e-05
2.0647e-05
2.06108e-05
2.05741e-05
2.05363e-05
2.04985e-05
2.04613e-05
2.04239e-05
2.03863e-05
2.03491e-05
2.03122e-05
2.02752e-05
2.02381e-05
2.0201e-05
2.0164e-05
2.01274e-05
2.00908e-05
2.00539e-05
2.00173e-05
1.99814e-05
1.99456e-05
1.99099e-05
1.98745e-05
1.9839e-05
1.98034e-05
1.97697e-05
1.97369e-05
1.97035e-05
1.96694e-05
1.96349e-05
1.96035e-05
1.95735e-05
1.95422e-05
1.95098e-05
1.94808e-05
1.94529e-05
1.94238e-05
1.93967e-05
1.93719e-05
1.93462e-05
1.9322e-05
1.93008e-05
1.92798e-05
1.92578e-05
1.92389e-05
1.92215e-05
1.92063e-05
1.91896e-05
1.91739e-05
1.9161e-05
1.91498e-05
1.91408e-05
1.91345e-05
1.91302e-05
1.9129e-05
1.91297e-05
1.9132e-05
1.91362e-05
1.91424e-05
1.91506e-05
1.9161e-05
1.91733e-05
1.91872e-05
1.92026e-05
1.92193e-05
1.92367e-05
1.92545e-05
1.92735e-05
1.92925e-05
1.93112e-05
1.93311e-05
1.93503e-05
1.93683e-05
1.9386e-05
1.94016e-05
1.94159e-05
1.94305e-05
1.9445e-05
1.94572e-05
1.94677e-05
1.94786e-05
1.94891e-05
1.94982e-05
1.95063e-05
1.95136e-05
1.95193e-05
1.95253e-05
1.95306e-05
1.95349e-05
1.95386e-05
1.95417e-05
1.9544e-05
1.95458e-05
1.95465e-05
1.95471e-05
1.95476e-05
1.95476e-05
1.95473e-05
1.95467e-05
1.95457e-05
1.95444e-05
1.95429e-05
1.95413e-05
1.954e-05
1.95387e-05
2.13338e-05
2.13123e-05
2.12875e-05
2.12609e-05
2.12329e-05
2.12032e-05
2.11739e-05
2.11392e-05
2.11032e-05
2.10679e-05
2.10327e-05
2.09973e-05
2.09619e-05
2.09263e-05
2.08891e-05
2.08514e-05
2.08141e-05
2.07771e-05
2.07399e-05
2.07028e-05
2.06658e-05
2.06283e-05
2.05903e-05
2.05525e-05
2.0515e-05
2.04773e-05
2.04396e-05
2.04023e-05
2.03652e-05
2.0328e-05
2.0291e-05
2.02539e-05
2.02171e-05
2.01806e-05
2.01439e-05
2.01072e-05
2.0071e-05
2.00351e-05
1.99992e-05
1.99637e-05
1.99285e-05
1.98931e-05
1.98579e-05
1.98247e-05
1.97923e-05
1.97592e-05
1.97253e-05
1.96913e-05
1.9661e-05
1.96311e-05
1.95996e-05
1.95679e-05
1.95402e-05
1.95124e-05
1.94832e-05
1.94576e-05
1.94329e-05
1.94073e-05
1.93845e-05
1.93638e-05
1.93423e-05
1.93206e-05
1.93018e-05
1.9284e-05
1.92679e-05
1.92516e-05
1.92367e-05
1.92236e-05
1.92129e-05
1.92045e-05
1.9198e-05
1.91934e-05
1.91911e-05
1.91911e-05
1.91924e-05
1.91956e-05
1.92008e-05
1.92081e-05
1.92173e-05
1.92281e-05
1.92404e-05
1.92538e-05
1.92682e-05
1.92831e-05
1.92987e-05
1.93151e-05
1.93311e-05
1.93475e-05
1.93651e-05
1.93819e-05
1.9397e-05
1.94125e-05
1.94269e-05
1.94401e-05
1.94538e-05
1.94684e-05
1.94808e-05
1.9492e-05
1.95018e-05
1.9511e-05
1.95219e-05
1.9531e-05
1.9539e-05
1.9546e-05
1.9552e-05
1.95567e-05
1.95612e-05
1.95656e-05
1.9569e-05
1.9571e-05
1.95727e-05
1.95742e-05
1.95756e-05
1.95764e-05
1.95764e-05
1.95761e-05
1.95756e-05
1.95751e-05
1.95745e-05
1.95737e-05
1.95728e-05
1.95714e-05
1.957e-05
2.14378e-05
2.14032e-05
2.13681e-05
2.13337e-05
2.12993e-05
2.12651e-05
2.1231e-05
2.1195e-05
2.1158e-05
2.11212e-05
2.10847e-05
2.10482e-05
2.10119e-05
2.09752e-05
2.09377e-05
2.09e-05
2.08625e-05
2.08252e-05
2.07879e-05
2.07506e-05
2.07131e-05
2.06752e-05
2.06372e-05
2.05996e-05
2.0562e-05
2.05244e-05
2.04869e-05
2.04498e-05
2.04127e-05
2.03757e-05
2.03388e-05
2.03021e-05
2.02659e-05
2.02299e-05
2.01937e-05
2.01577e-05
2.01223e-05
2.00869e-05
2.00515e-05
2.00167e-05
1.99822e-05
1.99473e-05
1.99128e-05
1.98805e-05
1.98487e-05
1.98161e-05
1.97826e-05
1.97497e-05
1.9721e-05
1.96915e-05
1.96598e-05
1.96298e-05
1.96033e-05
1.95755e-05
1.95475e-05
1.9523e-05
1.94982e-05
1.94739e-05
1.94521e-05
1.94319e-05
1.94098e-05
1.93883e-05
1.93693e-05
1.93513e-05
1.93341e-05
1.93184e-05
1.93039e-05
1.9291e-05
1.92802e-05
1.92715e-05
1.92649e-05
1.92601e-05
1.92571e-05
1.92564e-05
1.9257e-05
1.9259e-05
1.92625e-05
1.92677e-05
1.92745e-05
1.92828e-05
1.92924e-05
1.93033e-05
1.9315e-05
1.93274e-05
1.93404e-05
1.93538e-05
1.93674e-05
1.93814e-05
1.93961e-05
1.94114e-05
1.94252e-05
1.94382e-05
1.94512e-05
1.94638e-05
1.94768e-05
1.94907e-05
1.95032e-05
1.95148e-05
1.95252e-05
1.95337e-05
1.9545e-05
1.95555e-05
1.95644e-05
1.95724e-05
1.95792e-05
1.9584e-05
1.95887e-05
1.95945e-05
1.95992e-05
1.9602e-05
1.9604e-05
1.96061e-05
1.96077e-05
1.96083e-05
1.96085e-05
1.96085e-05
1.96082e-05
1.96076e-05
1.96067e-05
1.96056e-05
1.96041e-05
1.96024e-05
1.96007e-05
2.14897e-05
2.14542e-05
2.14179e-05
2.13818e-05
2.13459e-05
2.13105e-05
2.12749e-05
2.12384e-05
2.12014e-05
2.11644e-05
2.11274e-05
2.10904e-05
2.10535e-05
2.1016e-05
2.09782e-05
2.09405e-05
2.09029e-05
2.08654e-05
2.08281e-05
2.07909e-05
2.07536e-05
2.07161e-05
2.06787e-05
2.06416e-05
2.06045e-05
2.05676e-05
2.05309e-05
2.04944e-05
2.04579e-05
2.04216e-05
2.03855e-05
2.03497e-05
2.03143e-05
2.02791e-05
2.02438e-05
2.02088e-05
2.01744e-05
2.01397e-05
2.01052e-05
2.00716e-05
2.00379e-05
2.00039e-05
1.99705e-05
1.99392e-05
1.99083e-05
1.98766e-05
1.98434e-05
1.98126e-05
1.9785e-05
1.97558e-05
1.97244e-05
1.96967e-05
1.96709e-05
1.96432e-05
1.96175e-05
1.95938e-05
1.95687e-05
1.95462e-05
1.9525e-05
1.95055e-05
1.94834e-05
1.94616e-05
1.94425e-05
1.94244e-05
1.9407e-05
1.93913e-05
1.93773e-05
1.93649e-05
1.93542e-05
1.93454e-05
1.93384e-05
1.9333e-05
1.9329e-05
1.93266e-05
1.93261e-05
1.93267e-05
1.93286e-05
1.93321e-05
1.9337e-05
1.93432e-05
1.93505e-05
1.93587e-05
1.93676e-05
1.93771e-05
1.93872e-05
1.93977e-05
1.94086e-05
1.94201e-05
1.94321e-05
1.94446e-05
1.94575e-05
1.94691e-05
1.94804e-05
1.94918e-05
1.95041e-05
1.95172e-05
1.95295e-05
1.95411e-05
1.95525e-05
1.95613e-05
1.95715e-05
1.95829e-05
1.95928e-05
1.96019e-05
1.96097e-05
1.9615e-05
1.96202e-05
1.96268e-05
1.96323e-05
1.96359e-05
1.96382e-05
1.96406e-05
1.96427e-05
1.96439e-05
1.96445e-05
1.96446e-05
1.96444e-05
1.96439e-05
1.96431e-05
1.9642e-05
1.96407e-05
1.96393e-05
1.96377e-05
2.15302e-05
2.1494e-05
2.14573e-05
2.14205e-05
2.13837e-05
2.13472e-05
2.13104e-05
2.12732e-05
2.12358e-05
2.11985e-05
2.11613e-05
2.11243e-05
2.10873e-05
2.105e-05
2.10127e-05
2.09754e-05
2.09383e-05
2.09013e-05
2.08645e-05
2.08279e-05
2.07911e-05
2.07545e-05
2.0718e-05
2.06818e-05
2.06456e-05
2.06096e-05
2.05738e-05
2.05382e-05
2.05028e-05
2.04675e-05
2.04324e-05
2.03978e-05
2.03635e-05
2.03292e-05
2.0295e-05
2.02613e-05
2.02279e-05
2.01942e-05
2.0161e-05
2.01287e-05
2.00961e-05
2.00631e-05
2.00309e-05
2.00011e-05
1.99713e-05
1.99402e-05
1.99079e-05
1.98794e-05
1.98526e-05
1.98236e-05
1.97939e-05
1.97679e-05
1.97422e-05
1.9716e-05
1.96923e-05
1.96688e-05
1.96448e-05
1.96232e-05
1.9602e-05
1.95833e-05
1.95615e-05
1.954e-05
1.95208e-05
1.95026e-05
1.94856e-05
1.94705e-05
1.94568e-05
1.94444e-05
1.94334e-05
1.9424e-05
1.94164e-05
1.94103e-05
1.94055e-05
1.94021e-05
1.94002e-05
1.93997e-05
1.94001e-05
1.94015e-05
1.94041e-05
1.94078e-05
1.94125e-05
1.94181e-05
1.94245e-05
1.94315e-05
1.9439e-05
1.9447e-05
1.94554e-05
1.94645e-05
1.94743e-05
1.94845e-05
1.94955e-05
1.95062e-05
1.95161e-05
1.95258e-05
1.9537e-05
1.95497e-05
1.95617e-05
1.95731e-05
1.95844e-05
1.95947e-05
1.96034e-05
1.96143e-05
1.96255e-05
1.96356e-05
1.96447e-05
1.96508e-05
1.96563e-05
1.96635e-05
1.96698e-05
1.96744e-05
1.96774e-05
1.96803e-05
1.96829e-05
1.96847e-05
1.96858e-05
1.96863e-05
1.96863e-05
1.9686e-05
1.96854e-05
1.96845e-05
1.96832e-05
1.96817e-05
1.96799e-05
1.9678e-05
1.96762e-05
2.15634e-05
2.15257e-05
2.14879e-05
2.14504e-05
2.14132e-05
2.13762e-05
2.13392e-05
2.1302e-05
2.12648e-05
2.12277e-05
2.11908e-05
2.11542e-05
2.11176e-05
2.1081e-05
2.10443e-05
2.10078e-05
2.09714e-05
2.09352e-05
2.08992e-05
2.08633e-05
2.08275e-05
2.07919e-05
2.07564e-05
2.07211e-05
2.0686e-05
2.06511e-05
2.06165e-05
2.0582e-05
2.05477e-05
2.05136e-05
2.04798e-05
2.04464e-05
2.04133e-05
2.03801e-05
2.03472e-05
2.03149e-05
2.02827e-05
2.025e-05
2.02185e-05
2.01876e-05
2.01561e-05
2.01242e-05
2.00937e-05
2.00656e-05
2.00367e-05
2.00064e-05
1.9976e-05
1.99492e-05
1.99229e-05
1.98942e-05
1.9867e-05
1.98422e-05
1.98166e-05
1.97928e-05
1.97708e-05
1.97473e-05
1.97243e-05
1.97033e-05
1.96823e-05
1.96633e-05
1.96427e-05
1.96221e-05
1.9603e-05
1.95851e-05
1.95687e-05
1.95539e-05
1.95404e-05
1.95281e-05
1.95169e-05
1.95072e-05
1.9499e-05
1.94922e-05
1.94865e-05
1.9482e-05
1.94786e-05
1.94764e-05
1.94752e-05
1.94752e-05
1.94759e-05
1.94776e-05
1.94801e-05
1.94834e-05
1.94873e-05
1.94919e-05
1.9497e-05
1.95025e-05
1.95086e-05
1.95155e-05
1.95231e-05
1.95313e-05
1.95401e-05
1.95497e-05
1.95584e-05
1.95671e-05
1.95765e-05
1.95887e-05
1.96005e-05
1.96114e-05
1.96224e-05
1.96334e-05
1.96425e-05
1.96513e-05
1.96632e-05
1.96745e-05
1.96848e-05
1.96922e-05
1.96984e-05
1.97056e-05
1.97127e-05
1.97182e-05
1.97221e-05
1.97258e-05
1.9729e-05
1.97315e-05
1.97332e-05
1.97343e-05
1.97347e-05
1.97347e-05
1.97343e-05
1.97336e-05
1.97326e-05
1.97313e-05
1.97299e-05
1.97283e-05
1.97266e-05
2.15923e-05
2.15533e-05
2.15147e-05
2.14766e-05
2.14391e-05
2.1402e-05
2.1365e-05
2.13281e-05
2.12913e-05
2.12547e-05
2.12184e-05
2.11823e-05
2.11463e-05
2.11104e-05
2.10746e-05
2.10389e-05
2.10034e-05
2.09681e-05
2.0933e-05
2.08981e-05
2.08633e-05
2.08287e-05
2.07944e-05
2.07602e-05
2.07262e-05
2.06925e-05
2.06591e-05
2.06258e-05
2.05928e-05
2.05601e-05
2.05276e-05
2.04955e-05
2.04637e-05
2.04318e-05
2.04003e-05
2.03696e-05
2.03386e-05
2.03071e-05
2.02775e-05
2.0248e-05
2.02177e-05
2.01869e-05
2.01588e-05
2.0132e-05
2.01039e-05
2.00744e-05
2.00465e-05
2.00213e-05
1.99954e-05
1.99679e-05
1.9943e-05
1.99185e-05
1.98946e-05
1.98724e-05
1.98517e-05
1.98284e-05
1.98059e-05
1.97854e-05
1.97649e-05
1.97454e-05
1.97259e-05
1.97065e-05
1.96881e-05
1.9671e-05
1.96552e-05
1.96407e-05
1.96275e-05
1.96152e-05
1.96039e-05
1.95938e-05
1.95849e-05
1.95773e-05
1.95709e-05
1.95654e-05
1.95609e-05
1.95574e-05
1.95548e-05
1.95531e-05