/*--------------------------------*- C++ -*----------------------------------*\
| =========                 |                                                 |
| \\      /  F ield         | OpenFOAM: The Open Source CFD Toolbox           |
|  \\    /   O peration     | Version:  v1706                                 |
|   \\  /    A nd           | Web:      www.OpenFOAM.com                      |
|    \\/     M anipulation  |                                                 |
\*---------------------------------------------------------------------------*/
FoamFile
{
    version     2.0;
    format      ascii;
    class       volScalarField;
    location    "1.8e-05";
    object      kappave;
}
// * * * * * * * * * * * * * * * * * * * * * * * * * * * * * * * * * * * * * //

dimensions      [1 1 -3 -1 0 0 0];


internalField   nonuniform List<scalar> 
29871
(
1.46039e-10
1.46039e-10
1.46039e-10
1.4604e-10
1.4604e-10
1.4604e-10
1.4604e-10
1.4604e-10
1.4604e-10
1.4604e-10
1.4604e-10
1.46041e-10
1.46041e-10
1.46041e-10
1.46041e-10
1.46041e-10
1.46041e-10
1.46042e-10
1.46042e-10
1.46042e-10
1.46042e-10
1.46042e-10
1.46042e-10
1.46042e-10
1.46042e-10
1.46043e-10
1.46043e-10
1.46043e-10
1.46043e-10
1.46043e-10
1.46043e-10
1.46043e-10
1.46043e-10
1.46043e-10
1.46043e-10
1.46043e-10
1.46043e-10
1.46043e-10
1.46043e-10
1.46043e-10
1.46043e-10
1.46043e-10
1.46043e-10
1.46043e-10
1.46042e-10
1.46042e-10
1.46042e-10
1.46042e-10
1.46042e-10
1.46042e-10
1.46042e-10
1.46042e-10
1.46041e-10
1.46041e-10
1.46041e-10
1.46041e-10
1.46041e-10
1.46041e-10
1.46041e-10
1.46041e-10
1.4604e-10
1.4604e-10
1.4604e-10
1.4604e-10
1.4604e-10
1.4604e-10
1.4604e-10
1.4604e-10
1.4604e-10
1.4604e-10
1.46039e-10
1.46039e-10
1.46039e-10
1.46039e-10
1.46039e-10
1.46039e-10
1.46039e-10
1.46039e-10
1.46039e-10
1.46039e-10
1.46039e-10
1.46039e-10
1.46039e-10
1.46039e-10
1.46039e-10
1.46039e-10
1.46039e-10
1.46039e-10
1.46039e-10
1.46039e-10
1.46039e-10
1.46039e-10
1.46039e-10
1.46039e-10
1.46039e-10
1.46039e-10
1.46039e-10
1.46039e-10
1.46039e-10
1.46039e-10
1.46039e-10
1.46039e-10
1.46039e-10
1.46039e-10
1.46039e-10
1.46046e-10
1.46047e-10
1.46047e-10
1.46048e-10
1.46049e-10
1.4605e-10
1.46051e-10
1.46051e-10
1.46052e-10
1.46053e-10
1.46054e-10
1.46055e-10
1.46056e-10
1.46057e-10
1.46058e-10
1.46059e-10
1.4606e-10
1.46061e-10
1.46061e-10
1.46062e-10
1.46063e-10
1.46064e-10
1.46065e-10
1.46065e-10
1.46066e-10
1.46067e-10
1.46067e-10
1.46068e-10
1.46068e-10
1.46069e-10
1.46069e-10
1.46069e-10
1.46069e-10
1.4607e-10
1.4607e-10
1.4607e-10
1.4607e-10
1.46069e-10
1.46069e-10
1.46069e-10
1.46068e-10
1.46068e-10
1.46068e-10
1.46067e-10
1.46067e-10
1.46066e-10
1.46065e-10
1.46065e-10
1.46064e-10
1.46063e-10
1.46062e-10
1.46062e-10
1.46061e-10
1.4606e-10
1.46059e-10
1.46058e-10
1.46058e-10
1.46057e-10
1.46056e-10
1.46055e-10
1.46054e-10
1.46054e-10
1.46053e-10
1.46052e-10
1.46052e-10
1.46051e-10
1.46051e-10
1.4605e-10
1.4605e-10
1.46049e-10
1.46049e-10
1.46049e-10
1.46048e-10
1.46048e-10
1.46048e-10
1.46047e-10
1.46047e-10
1.46047e-10
1.46047e-10
1.46047e-10
1.46047e-10
1.46047e-10
1.46047e-10
1.46047e-10
1.46047e-10
1.46047e-10
1.46047e-10
1.46047e-10
1.46047e-10
1.46047e-10
1.46047e-10
1.46047e-10
1.46047e-10
1.46047e-10
1.46048e-10
1.46048e-10
1.46048e-10
1.46048e-10
1.46048e-10
1.46048e-10
1.46048e-10
1.46049e-10
1.46049e-10
1.46049e-10
1.46049e-10
1.46062e-10
1.46064e-10
1.46066e-10
1.46068e-10
1.46071e-10
1.46073e-10
1.46075e-10
1.46078e-10
1.46081e-10
1.46083e-10
1.46086e-10
1.46089e-10
1.46092e-10
1.46095e-10
1.46098e-10
1.46101e-10
1.46103e-10
1.46106e-10
1.46109e-10
1.46112e-10
1.46115e-10
1.46117e-10
1.4612e-10
1.46122e-10
1.46125e-10
1.46127e-10
1.46129e-10
1.46131e-10
1.46132e-10
1.46134e-10
1.46135e-10
1.46136e-10
1.46137e-10
1.46138e-10
1.46138e-10
1.46138e-10
1.46138e-10
1.46138e-10
1.46138e-10
1.46137e-10
1.46136e-10
1.46135e-10
1.46134e-10
1.46132e-10
1.46131e-10
1.46129e-10
1.46127e-10
1.46125e-10
1.46123e-10
1.46121e-10
1.46118e-10
1.46116e-10
1.46113e-10
1.46111e-10
1.46108e-10
1.46106e-10
1.46103e-10
1.46101e-10
1.46099e-10
1.46096e-10
1.46094e-10
1.46092e-10
1.46089e-10
1.46087e-10
1.46085e-10
1.46083e-10
1.46081e-10
1.4608e-10
1.46078e-10
1.46077e-10
1.46075e-10
1.46074e-10
1.46073e-10
1.46072e-10
1.46071e-10
1.4607e-10
1.4607e-10
1.46069e-10
1.46069e-10
1.46068e-10
1.46068e-10
1.46068e-10
1.46068e-10
1.46068e-10
1.46068e-10
1.46068e-10
1.46068e-10
1.46068e-10
1.46068e-10
1.46069e-10
1.46069e-10
1.46069e-10
1.4607e-10
1.4607e-10
1.46071e-10
1.46071e-10
1.46071e-10
1.46072e-10
1.46072e-10
1.46073e-10
1.46073e-10
1.46074e-10
1.46074e-10
1.46075e-10
1.46076e-10
1.46076e-10
1.46104e-10
1.46109e-10
1.46115e-10
1.46121e-10
1.46127e-10
1.46133e-10
1.4614e-10
1.46147e-10
1.46154e-10
1.46162e-10
1.46169e-10
1.46177e-10
1.46184e-10
1.46192e-10
1.462e-10
1.46208e-10
1.46216e-10
1.46224e-10
1.46231e-10
1.46239e-10
1.46246e-10
1.46253e-10
1.4626e-10
1.46266e-10
1.46272e-10
1.46278e-10
1.46283e-10
1.46288e-10
1.46293e-10
1.46297e-10
1.463e-10
1.46303e-10
1.46305e-10
1.46307e-10
1.46308e-10
1.46308e-10
1.46308e-10
1.46308e-10
1.46306e-10
1.46305e-10
1.46302e-10
1.46299e-10
1.46296e-10
1.46292e-10
1.46288e-10
1.46283e-10
1.46278e-10
1.46273e-10
1.46267e-10
1.46261e-10
1.46255e-10
1.46249e-10
1.46242e-10
1.46236e-10
1.46229e-10
1.46222e-10
1.46216e-10
1.46209e-10
1.46203e-10
1.46196e-10
1.4619e-10
1.46184e-10
1.46178e-10
1.46173e-10
1.46167e-10
1.46162e-10
1.46158e-10
1.46153e-10
1.46149e-10
1.46145e-10
1.46142e-10
1.46138e-10
1.46135e-10
1.46133e-10
1.46131e-10
1.46129e-10
1.46127e-10
1.46126e-10
1.46125e-10
1.46124e-10
1.46123e-10
1.46123e-10
1.46123e-10
1.46123e-10
1.46123e-10
1.46123e-10
1.46124e-10
1.46125e-10
1.46126e-10
1.46126e-10
1.46128e-10
1.46129e-10
1.4613e-10
1.46131e-10
1.46132e-10
1.46134e-10
1.46135e-10
1.46137e-10
1.46138e-10
1.4614e-10
1.46141e-10
1.46143e-10
1.46145e-10
1.46147e-10
1.46148e-10
1.4615e-10
1.46195e-10
1.46208e-10
1.46222e-10
1.46236e-10
1.46251e-10
1.46267e-10
1.46283e-10
1.463e-10
1.46318e-10
1.46336e-10
1.46354e-10
1.46373e-10
1.46392e-10
1.46412e-10
1.46431e-10
1.46451e-10
1.46471e-10
1.4649e-10
1.4651e-10
1.46529e-10
1.46547e-10
1.46565e-10
1.46583e-10
1.466e-10
1.46615e-10
1.46631e-10
1.46645e-10
1.46658e-10
1.4667e-10
1.4668e-10
1.4669e-10
1.46698e-10
1.46704e-10
1.4671e-10
1.46714e-10
1.46716e-10
1.46717e-10
1.46716e-10
1.46715e-10
1.46711e-10
1.46706e-10
1.467e-10
1.46693e-10
1.46685e-10
1.46675e-10
1.46664e-10
1.46652e-10
1.4664e-10
1.46626e-10
1.46612e-10
1.46597e-10
1.46582e-10
1.46566e-10
1.4655e-10
1.46534e-10
1.46517e-10
1.46501e-10
1.46485e-10
1.46468e-10
1.46452e-10
1.46437e-10
1.46422e-10
1.46407e-10
1.46393e-10
1.46379e-10
1.46366e-10
1.46354e-10
1.46342e-10
1.46331e-10
1.46321e-10
1.46312e-10
1.46303e-10
1.46296e-10
1.46289e-10
1.46283e-10
1.46278e-10
1.46273e-10
1.4627e-10
1.46267e-10
1.46265e-10
1.46263e-10
1.46262e-10
1.46262e-10
1.46262e-10
1.46263e-10
1.46264e-10
1.46265e-10
1.46267e-10
1.4627e-10
1.46272e-10
1.46275e-10
1.46278e-10
1.46282e-10
1.46286e-10
1.46289e-10
1.46293e-10
1.46298e-10
1.46302e-10
1.46306e-10
1.46311e-10
1.46315e-10
1.4632e-10
1.46325e-10
1.4633e-10
1.46335e-10
1.4634e-10
1.46345e-10
1.46429e-10
1.46461e-10
1.46495e-10
1.46531e-10
1.46568e-10
1.46607e-10
1.46647e-10
1.46688e-10
1.46731e-10
1.46775e-10
1.46819e-10
1.46865e-10
1.46911e-10
1.46957e-10
1.47004e-10
1.47051e-10
1.47098e-10
1.47144e-10
1.47189e-10
1.47234e-10
1.47278e-10
1.4732e-10
1.47361e-10
1.474e-10
1.47437e-10
1.47471e-10
1.47503e-10
1.47533e-10
1.4756e-10
1.47584e-10
1.47605e-10
1.47623e-10
1.47637e-10
1.47648e-10
1.47656e-10
1.4766e-10
1.47661e-10
1.47659e-10
1.47653e-10
1.47645e-10
1.47632e-10
1.47617e-10
1.47599e-10
1.47578e-10
1.47555e-10
1.47529e-10
1.475e-10
1.4747e-10
1.47438e-10
1.47404e-10
1.47369e-10
1.47333e-10
1.47296e-10
1.47258e-10
1.4722e-10
1.47182e-10
1.47143e-10
1.47105e-10
1.47067e-10
1.4703e-10
1.46994e-10
1.46959e-10
1.46924e-10
1.46891e-10
1.4686e-10
1.4683e-10
1.46801e-10
1.46775e-10
1.4675e-10
1.46727e-10
1.46706e-10
1.46687e-10
1.4667e-10
1.46655e-10
1.46642e-10
1.46631e-10
1.46622e-10
1.46614e-10
1.46609e-10
1.46605e-10
1.46603e-10
1.46602e-10
1.46603e-10
1.46605e-10
1.46608e-10
1.46612e-10
1.46617e-10
1.46624e-10
1.46631e-10
1.46639e-10
1.46647e-10
1.46657e-10
1.46667e-10
1.46677e-10
1.46688e-10
1.46699e-10
1.46711e-10
1.46723e-10
1.46735e-10
1.46748e-10
1.46761e-10
1.46774e-10
1.46788e-10
1.46801e-10
1.46816e-10
1.4683e-10
1.46845e-10
1.46781e-10
1.46847e-10
1.46917e-10
1.46991e-10
1.47068e-10
1.47149e-10
1.47233e-10
1.47321e-10
1.47412e-10
1.47506e-10
1.47602e-10
1.47701e-10
1.47803e-10
1.47906e-10
1.48011e-10
1.48117e-10
1.48223e-10
1.48331e-10
1.48438e-10
1.48544e-10
1.48649e-10
1.48752e-10
1.48853e-10
1.48951e-10
1.49045e-10
1.49135e-10
1.49221e-10
1.49301e-10
1.49376e-10
1.49446e-10
1.49509e-10
1.49565e-10
1.49616e-10
1.49659e-10
1.49695e-10
1.49724e-10
1.49745e-10
1.49758e-10
1.49764e-10
1.49762e-10
1.49754e-10
1.49739e-10
1.49715e-10
1.49685e-10
1.49649e-10
1.49605e-10
1.49556e-10
1.49501e-10
1.49441e-10
1.49376e-10
1.49307e-10
1.49234e-10
1.49157e-10
1.49078e-10
1.48996e-10
1.48912e-10
1.48827e-10
1.48741e-10
1.48655e-10
1.48569e-10
1.48484e-10
1.484e-10
1.48318e-10
1.48237e-10
1.48159e-10
1.48083e-10
1.48011e-10
1.47941e-10
1.47876e-10
1.47814e-10
1.47756e-10
1.47703e-10
1.47653e-10
1.47609e-10
1.47568e-10
1.47533e-10
1.47502e-10
1.47475e-10
1.47453e-10
1.47436e-10
1.47423e-10
1.47414e-10
1.47409e-10
1.47409e-10
1.4741e-10
1.47415e-10
1.47423e-10
1.47435e-10
1.47448e-10
1.47465e-10
1.47484e-10
1.47505e-10
1.47527e-10
1.47552e-10
1.47578e-10
1.47605e-10
1.47634e-10
1.47664e-10
1.47694e-10
1.47726e-10
1.47759e-10
1.47792e-10
1.47826e-10
1.47861e-10
1.47896e-10
1.47933e-10
1.4797e-10
1.48008e-10
1.48046e-10
1.48086e-10
1.47813e-10
1.47965e-10
1.48126e-10
1.48295e-10
1.48473e-10
1.48658e-10
1.48851e-10
1.49051e-10
1.49258e-10
1.4947e-10
1.49686e-10
1.49907e-10
1.50131e-10
1.50358e-10
1.50586e-10
1.50816e-10
1.51046e-10
1.51275e-10
1.51502e-10
1.51727e-10
1.51947e-10
1.52163e-10
1.52372e-10
1.52573e-10
1.52766e-10
1.52948e-10
1.5312e-10
1.53281e-10
1.53428e-10
1.53563e-10
1.53685e-10
1.53792e-10
1.53885e-10
1.53964e-10
1.54027e-10
1.54076e-10
1.54108e-10
1.54125e-10
1.54126e-10
1.54114e-10
1.54088e-10
1.54047e-10
1.53992e-10
1.53922e-10
1.53839e-10
1.53744e-10
1.53636e-10
1.53518e-10
1.5339e-10
1.53252e-10
1.53105e-10
1.52951e-10
1.52791e-10
1.52625e-10
1.52454e-10
1.5228e-10
1.52104e-10
1.51926e-10
1.51747e-10
1.51569e-10
1.51392e-10
1.51217e-10
1.51046e-10
1.50879e-10
1.50716e-10
1.5056e-10
1.5041e-10
1.50267e-10
1.50132e-10
1.50005e-10
1.49887e-10
1.49779e-10
1.4968e-10
1.49591e-10
1.49512e-10
1.49443e-10
1.49385e-10
1.49337e-10
1.49298e-10
1.4927e-10
1.49251e-10
1.49242e-10
1.49242e-10
1.49248e-10
1.49261e-10
1.49282e-10
1.4931e-10
1.49344e-10
1.49385e-10
1.49431e-10
1.49483e-10
1.49538e-10
1.49598e-10
1.49662e-10
1.49729e-10
1.498e-10
1.49873e-10
1.49948e-10
1.50026e-10
1.50105e-10
1.50187e-10
1.50271e-10
1.50356e-10
1.50443e-10
1.50532e-10
1.50623e-10
1.50715e-10
1.5081e-10
1.50907e-10
1.51006e-10
1.50148e-10
1.50488e-10
1.50843e-10
1.51213e-10
1.51598e-10
1.51997e-10
1.52408e-10
1.52831e-10
1.53263e-10
1.53703e-10
1.54149e-10
1.54599e-10
1.55052e-10
1.55506e-10
1.5596e-10
1.5641e-10
1.56857e-10
1.57299e-10
1.57733e-10
1.58158e-10
1.58573e-10
1.58974e-10
1.5936e-10
1.59727e-10
1.60075e-10
1.604e-10
1.60702e-10
1.60979e-10
1.61231e-10
1.61457e-10
1.61655e-10
1.61826e-10
1.6197e-10
1.62087e-10
1.62177e-10
1.62239e-10
1.62273e-10
1.62277e-10
1.62258e-10
1.62214e-10
1.62146e-10
1.62051e-10
1.61931e-10
1.61787e-10
1.6162e-10
1.61431e-10
1.61222e-10
1.60993e-10
1.60747e-10
1.60485e-10
1.60207e-10
1.59917e-10
1.59616e-10
1.59304e-10
1.58985e-10
1.5866e-10
1.5833e-10
1.57998e-10
1.57665e-10
1.57333e-10
1.57004e-10
1.56679e-10
1.5636e-10
1.56049e-10
1.55748e-10
1.55457e-10
1.55179e-10
1.54914e-10
1.54664e-10
1.54431e-10
1.54214e-10
1.54016e-10
1.53836e-10
1.53677e-10
1.53537e-10
1.53419e-10
1.53321e-10
1.53244e-10
1.53189e-10
1.53153e-10
1.53139e-10
1.53144e-10
1.5316e-10
1.53195e-10
1.53245e-10
1.53311e-10
1.53391e-10
1.53484e-10
1.53589e-10
1.53706e-10
1.53832e-10
1.53967e-10
1.54111e-10
1.54263e-10
1.54421e-10
1.54585e-10
1.54755e-10
1.5493e-10
1.5511e-10
1.55294e-10
1.55482e-10
1.55674e-10
1.5587e-10
1.56069e-10
1.56271e-10
1.56477e-10
1.56687e-10
1.569e-10
1.57118e-10
1.57339e-10
1.5511e-10
1.55798e-10
1.56509e-10
1.57243e-10
1.57998e-10
1.58773e-10
1.59565e-10
1.60369e-10
1.61181e-10
1.61994e-10
1.62805e-10
1.63609e-10
1.64403e-10
1.65183e-10
1.65947e-10
1.66692e-10
1.67417e-10
1.6812e-10
1.68798e-10
1.6945e-10
1.70072e-10
1.70664e-10
1.71223e-10
1.71746e-10
1.72233e-10
1.72679e-10
1.73084e-10
1.73447e-10
1.73767e-10
1.74044e-10
1.74277e-10
1.74467e-10
1.74615e-10
1.74724e-10
1.74795e-10
1.74822e-10
1.74811e-10
1.74765e-10
1.74681e-10
1.74566e-10
1.74421e-10
1.7424e-10
1.74024e-10
1.73777e-10
1.73498e-10
1.73192e-10
1.72859e-10
1.725e-10
1.72119e-10
1.71716e-10
1.71293e-10
1.70852e-10
1.70395e-10
1.69923e-10
1.69439e-10
1.68945e-10
1.68442e-10
1.67934e-10
1.67422e-10
1.6691e-10
1.66399e-10
1.65894e-10
1.65395e-10
1.64908e-10
1.64433e-10
1.63976e-10
1.63537e-10
1.63121e-10
1.6273e-10
1.62366e-10
1.62032e-10
1.61729e-10
1.6146e-10
1.61226e-10
1.61027e-10
1.60864e-10
1.60739e-10
1.60651e-10
1.60598e-10
1.60591e-10
1.60609e-10
1.60655e-10
1.60735e-10
1.60844e-10
1.60982e-10
1.61146e-10
1.61334e-10
1.61543e-10
1.61773e-10
1.6202e-10
1.62283e-10
1.62561e-10
1.62852e-10
1.63153e-10
1.63465e-10
1.63786e-10
1.64115e-10
1.6445e-10
1.64792e-10
1.65138e-10
1.6549e-10
1.65847e-10
1.66208e-10
1.66573e-10
1.66943e-10
1.67318e-10
1.67697e-10
1.68082e-10
1.68472e-10
1.68868e-10
1.64612e-10
1.6583e-10
1.6706e-10
1.68297e-10
1.69539e-10
1.7078e-10
1.72016e-10
1.7324e-10
1.74446e-10
1.75625e-10
1.76771e-10
1.77879e-10
1.78943e-10
1.7996e-10
1.80928e-10
1.81844e-10
1.82707e-10
1.83515e-10
1.84269e-10
1.84968e-10
1.85615e-10
1.86211e-10
1.86755e-10
1.87248e-10
1.87687e-10
1.88072e-10
1.88403e-10
1.88681e-10
1.88907e-10
1.8908e-10
1.89201e-10
1.89274e-10
1.89295e-10
1.89283e-10
1.89239e-10
1.89154e-10
1.89031e-10
1.88872e-10
1.88687e-10
1.88475e-10
1.88228e-10
1.87948e-10
1.87638e-10
1.87299e-10
1.86933e-10
1.86542e-10
1.86127e-10
1.85692e-10
1.85236e-10
1.84762e-10
1.84268e-10
1.83758e-10
1.83235e-10
1.827e-10
1.82152e-10
1.81594e-10
1.81025e-10
1.8045e-10
1.79871e-10
1.79291e-10
1.78712e-10
1.78137e-10
1.77568e-10
1.77009e-10
1.76463e-10
1.75934e-10
1.75425e-10
1.7494e-10
1.74485e-10
1.74062e-10
1.73677e-10
1.73333e-10
1.73034e-10
1.72785e-10
1.72586e-10
1.72437e-10
1.72341e-10
1.72311e-10
1.72329e-10
1.72387e-10
1.72495e-10
1.72651e-10
1.72848e-10
1.73086e-10
1.7336e-10
1.73667e-10
1.74004e-10
1.74368e-10
1.74754e-10
1.7516e-10
1.75582e-10
1.76018e-10
1.76467e-10
1.76925e-10
1.77391e-10
1.77862e-10
1.78337e-10
1.78818e-10
1.79302e-10
1.7979e-10
1.8028e-10
1.80771e-10
1.81261e-10
1.81753e-10
1.82244e-10
1.82736e-10
1.83228e-10
1.8372e-10
1.84211e-10
1.84701e-10
1.77979e-10
1.79662e-10
1.81314e-10
1.82927e-10
1.84493e-10
1.8601e-10
1.87479e-10
1.88907e-10
1.90279e-10
1.91573e-10
1.92777e-10
1.93884e-10
1.94892e-10
1.95801e-10
1.96612e-10
1.97329e-10
1.97958e-10
1.98504e-10
1.98971e-10
1.99359e-10
1.99672e-10
1.99914e-10
2.0009e-10
2.00211e-10
2.00282e-10
2.00299e-10
2.00286e-10
2.00247e-10
2.00176e-10
2.00074e-10
1.99944e-10
1.99784e-10
1.99598e-10
1.99389e-10
1.99166e-10
1.98935e-10
1.98704e-10
1.98436e-10
1.98144e-10
1.9786e-10
1.97575e-10
1.97275e-10
1.96961e-10
1.96639e-10
1.9631e-10
1.95972e-10
1.95627e-10
1.95278e-10
1.94922e-10
1.94556e-10
1.94186e-10
1.93814e-10
1.93438e-10
1.9305e-10
1.92652e-10
1.92248e-10
1.9184e-10
1.91428e-10
1.9101e-10
1.90586e-10
1.9016e-10
1.89734e-10
1.8931e-10
1.88893e-10
1.88486e-10
1.88094e-10
1.87719e-10
1.87365e-10
1.87038e-10
1.86742e-10
1.86479e-10
1.86254e-10
1.8607e-10
1.85931e-10
1.85836e-10
1.85795e-10
1.85801e-10
1.85849e-10
1.85947e-10
1.86095e-10
1.86295e-10
1.86533e-10
1.86813e-10
1.87132e-10
1.87482e-10
1.87857e-10
1.88253e-10
1.88665e-10
1.89086e-10
1.89513e-10
1.89946e-10
1.9038e-10
1.90811e-10
1.91234e-10
1.91649e-10
1.92058e-10
1.92458e-10
1.92847e-10
1.93221e-10
1.93578e-10
1.93919e-10
1.94245e-10
1.9456e-10
1.94863e-10
1.95154e-10
1.95432e-10
1.95699e-10
1.95955e-10
1.96201e-10
1.96439e-10
1.96669e-10
1.96095e-10
1.97752e-10
1.99267e-10
2.00633e-10
2.01847e-10
2.02908e-10
2.03819e-10
2.04581e-10
2.05214e-10
2.05735e-10
2.06158e-10
2.06491e-10
2.06739e-10
2.0691e-10
2.07015e-10
2.07052e-10
2.07042e-10
2.06999e-10
2.06915e-10
2.06792e-10
2.06636e-10
2.06448e-10
2.06235e-10
2.06e-10
2.05749e-10
2.05481e-10
2.05207e-10
2.04927e-10
2.04637e-10
2.04354e-10
2.04057e-10
2.03732e-10
2.03419e-10
2.03097e-10
2.02775e-10
2.02471e-10
2.02162e-10
2.01833e-10
2.01496e-10
2.01174e-10
2.00862e-10
2.00547e-10
2.0023e-10
1.99911e-10
1.9959e-10
1.99279e-10
1.98978e-10
1.98674e-10
1.98372e-10
1.98084e-10
1.97806e-10
1.97528e-10
1.97255e-10
1.96996e-10
1.96755e-10
1.9652e-10
1.96285e-10
1.96055e-10
1.95836e-10
1.95628e-10
1.95432e-10
1.95246e-10
1.95075e-10
1.94917e-10
1.94773e-10
1.94645e-10
1.94535e-10
1.94445e-10
1.94378e-10
1.94338e-10
1.9433e-10
1.94344e-10
1.9439e-10
1.9447e-10
1.94586e-10
1.94726e-10
1.94882e-10
1.95092e-10
1.95316e-10
1.95556e-10
1.95813e-10
1.96083e-10
1.9636e-10
1.9664e-10
1.9692e-10
1.97198e-10
1.97468e-10
1.97729e-10
1.97985e-10
1.98231e-10
1.98461e-10
1.98675e-10
1.9888e-10
1.99076e-10
1.9926e-10
1.99428e-10
1.99581e-10
1.99724e-10
1.99861e-10
1.99995e-10
2.00123e-10
2.00243e-10
2.00355e-10
2.0046e-10
2.00558e-10
2.0065e-10
2.00738e-10
2.00823e-10
2.00903e-10
2.00977e-10
2.01047e-10
2.0111e-10
2.01167e-10
2.10051e-10
2.10653e-10
2.1113e-10
2.11494e-10
2.11754e-10
2.1192e-10
2.12e-10
2.12001e-10
2.11965e-10
2.11878e-10
2.11743e-10
2.11569e-10
2.11363e-10
2.11131e-10
2.10874e-10
2.10598e-10
2.1031e-10
2.10015e-10
2.09711e-10
2.09401e-10
2.09092e-10
2.08778e-10
2.08425e-10
2.08077e-10
2.07741e-10
2.07403e-10
2.07042e-10
2.06684e-10
2.06347e-10
2.06015e-10
2.05659e-10
2.05301e-10
2.04948e-10
2.04588e-10
2.04239e-10
2.03913e-10
2.03574e-10
2.03223e-10
2.02871e-10
2.02534e-10
2.0222e-10
2.01907e-10
2.01583e-10
2.01257e-10
2.00951e-10
2.00662e-10
2.00367e-10
2.00078e-10
1.99811e-10
1.99547e-10
1.99288e-10
1.99043e-10
1.98815e-10
1.98593e-10
1.98382e-10
1.98182e-10
1.97996e-10
1.97819e-10
1.97655e-10
1.97506e-10
1.97376e-10
1.97267e-10
1.97181e-10
1.97119e-10
1.97079e-10
1.9707e-10
1.97078e-10
1.97103e-10
1.97158e-10
1.9725e-10
1.97366e-10
1.97501e-10
1.97654e-10
1.97831e-10
1.98035e-10
1.98239e-10
1.98444e-10
1.98679e-10
1.98929e-10
1.99173e-10
1.99419e-10
1.99664e-10
1.99896e-10
2.00116e-10
2.00324e-10
2.00521e-10
2.00708e-10
2.00881e-10
2.01036e-10
2.0118e-10
2.01315e-10
2.0144e-10
2.0155e-10
2.01645e-10
2.01733e-10
2.01814e-10
2.01889e-10
2.01958e-10
2.02019e-10
2.02071e-10
2.02112e-10
2.02145e-10
2.02174e-10
2.022e-10
2.02223e-10
2.02242e-10
2.02257e-10
2.02269e-10
2.02277e-10
2.02285e-10
2.02293e-10
2.02302e-10
2.0231e-10
2.15943e-10
2.16e-10
2.15985e-10
2.15919e-10
2.15797e-10
2.15628e-10
2.15422e-10
2.15189e-10
2.14927e-10
2.14647e-10
2.14358e-10
2.14059e-10
2.13746e-10
2.13432e-10
2.13117e-10
2.12739e-10
2.12372e-10
2.12017e-10
2.11647e-10
2.11271e-10
2.10896e-10
2.10524e-10
2.1015e-10
2.09774e-10
2.09392e-10
2.09008e-10
2.08631e-10
2.08254e-10
2.07872e-10
2.07493e-10
2.07124e-10
2.06758e-10
2.06388e-10
2.06021e-10
2.05655e-10
2.05285e-10
2.04934e-10
2.04595e-10
2.04248e-10
2.03893e-10
2.03535e-10
2.03202e-10
2.02889e-10
2.02568e-10
2.02235e-10
2.01919e-10
2.01627e-10
2.01331e-10
2.01039e-10
2.00774e-10
2.00511e-10
2.00248e-10
2.00019e-10
1.99804e-10
1.99582e-10
1.99376e-10
1.99198e-10
1.99037e-10
1.9887e-10
1.98709e-10
1.98575e-10
1.98463e-10
1.98367e-10
1.98289e-10
1.98231e-10
1.98201e-10
1.98201e-10
1.98214e-10
1.98248e-10
1.98302e-10
1.98382e-10
1.9849e-10
1.98623e-10
1.98775e-10
1.98943e-10
1.99132e-10
1.99337e-10
1.9954e-10
1.99752e-10
1.99978e-10
2.002e-10
2.00426e-10
2.00657e-10
2.00871e-10
2.01071e-10
2.01256e-10
2.01429e-10
2.01595e-10
2.01745e-10
2.01876e-10
2.02003e-10
2.02122e-10
2.02225e-10
2.02315e-10
2.02403e-10
2.02487e-10
2.02559e-10
2.02612e-10
2.02656e-10
2.02699e-10
2.02737e-10
2.02768e-10
2.02793e-10
2.02813e-10
2.02831e-10
2.02845e-10
2.02856e-10
2.02863e-10
2.02866e-10
2.02866e-10
2.02866e-10
2.02865e-10
2.02863e-10
2.02859e-10
2.02853e-10
2.18636e-10
2.1838e-10
2.18103e-10
2.17813e-10
2.1751e-10
2.17193e-10
2.16882e-10
2.16513e-10
2.16132e-10
2.15762e-10
2.15393e-10
2.15019e-10
2.14641e-10
2.14265e-10
2.13884e-10
2.13491e-10
2.13098e-10
2.12712e-10
2.12323e-10
2.11932e-10
2.11545e-10
2.11161e-10
2.10776e-10
2.10391e-10
2.10005e-10
2.0962e-10
2.0924e-10
2.08859e-10
2.08476e-10
2.08095e-10
2.07723e-10
2.0735e-10
2.06979e-10
2.06611e-10
2.06242e-10
2.05871e-10
2.05521e-10
2.05181e-10
2.04833e-10
2.04478e-10
2.0412e-10
2.03794e-10
2.03481e-10
2.03156e-10
2.0282e-10
2.02518e-10
2.02228e-10
2.01925e-10
2.01644e-10
2.01386e-10
2.01119e-10
2.00867e-10
2.00647e-10
2.00428e-10
2.002e-10
2.00003e-10
1.99823e-10
1.99664e-10
1.9949e-10
1.99327e-10
1.99193e-10
1.99077e-10
1.98984e-10
1.98918e-10
1.98873e-10
1.9886e-10
1.98868e-10
1.98892e-10
1.98936e-10
1.99e-10
1.99086e-10
1.99193e-10
1.99321e-10
1.99466e-10
1.99626e-10
1.998e-10
1.99981e-10
2.00166e-10
2.00363e-10
2.0056e-10
2.00755e-10
2.00962e-10
2.01161e-10
2.01348e-10
2.01532e-10
2.01695e-10
2.01843e-10
2.01996e-10
2.02146e-10
2.02273e-10
2.02382e-10
2.02495e-10
2.02604e-10
2.02698e-10
2.02783e-10
2.02859e-10
2.02918e-10
2.02981e-10
2.03036e-10
2.03081e-10
2.03119e-10
2.03151e-10
2.03176e-10
2.03193e-10
2.03201e-10
2.03207e-10
2.03212e-10
2.03212e-10
2.0321e-10
2.03203e-10
2.03193e-10
2.03179e-10
2.03163e-10
2.03147e-10
2.03133e-10
2.0312e-10
2.21781e-10
2.21558e-10
2.21301e-10
2.21023e-10
2.20732e-10
2.20424e-10
2.20119e-10
2.19758e-10
2.19384e-10
2.19017e-10
2.18651e-10
2.18283e-10
2.17915e-10
2.17545e-10
2.17159e-10
2.16766e-10
2.16379e-10
2.15994e-10
2.15607e-10
2.15222e-10
2.14837e-10
2.14447e-10
2.14052e-10
2.13659e-10
2.13269e-10
2.12877e-10
2.12486e-10
2.12098e-10
2.11712e-10
2.11326e-10
2.1094e-10
2.10555e-10
2.10173e-10
2.09793e-10
2.09412e-10
2.0903e-10
2.08653e-10
2.08281e-10
2.07907e-10
2.07539e-10
2.07173e-10
2.06805e-10
2.06438e-10
2.06093e-10
2.05756e-10
2.05412e-10
2.0506e-10
2.04706e-10
2.04391e-10
2.04081e-10
2.03753e-10
2.03423e-10
2.03136e-10
2.02847e-10
2.02543e-10
2.02277e-10
2.0202e-10
2.01754e-10
2.01517e-10
2.01302e-10
2.01078e-10
2.00853e-10
2.00657e-10
2.00472e-10
2.00305e-10
2.00135e-10
1.9998e-10
1.99844e-10
1.99734e-10
1.99646e-10
1.99578e-10
1.9953e-10
1.99506e-10
1.99507e-10
1.9952e-10
1.99553e-10
1.99608e-10
1.99683e-10
1.99779e-10
1.99891e-10
2.00018e-10
2.00158e-10
2.00308e-10
2.00463e-10
2.00626e-10
2.00795e-10
2.00962e-10
2.01132e-10
2.01316e-10
2.0149e-10
2.01647e-10
2.01808e-10
2.01957e-10
2.02095e-10
2.02237e-10
2.0239e-10
2.02518e-10
2.02635e-10
2.02736e-10
2.02832e-10
2.02946e-10
2.0304e-10
2.03123e-10
2.03196e-10
2.03258e-10
2.03308e-10
2.03354e-10
2.034e-10
2.03435e-10
2.03456e-10
2.03474e-10
2.03489e-10
2.03504e-10
2.03512e-10
2.03512e-10
2.03509e-10
2.03504e-10
2.03498e-10
2.03492e-10
2.03484e-10
2.03474e-10
2.0346e-10
2.03445e-10
2.22862e-10
2.22503e-10
2.22138e-10
2.2178e-10
2.21423e-10
2.21068e-10
2.20713e-10
2.20338e-10
2.19953e-10
2.19571e-10
2.19192e-10
2.18812e-10
2.18435e-10
2.18053e-10
2.17664e-10
2.17272e-10
2.16882e-10
2.16494e-10
2.16106e-10
2.15719e-10
2.15329e-10
2.14935e-10
2.1454e-10
2.14148e-10
2.13758e-10
2.13367e-10
2.12978e-10
2.12592e-10
2.12206e-10
2.11821e-10
2.11437e-10
2.11057e-10
2.1068e-10
2.10306e-10
2.0993e-10
2.09555e-10
2.09187e-10
2.08819e-10
2.08451e-10
2.08089e-10
2.0773e-10
2.07368e-10
2.07009e-10
2.06673e-10
2.06342e-10
2.06004e-10
2.05656e-10
2.05314e-10
2.05015e-10
2.04709e-10
2.04379e-10
2.04067e-10
2.03791e-10
2.03502e-10
2.03211e-10
2.02957e-10
2.02699e-10
2.02446e-10
2.0222e-10
2.0201e-10
2.0178e-10
2.01556e-10
2.01359e-10
2.01171e-10
2.00993e-10
2.0083e-10
2.00679e-10
2.00545e-10
2.00432e-10
2.00343e-10
2.00273e-10
2.00223e-10
2.00192e-10
2.00185e-10
2.00192e-10
2.00212e-10
2.00249e-10
2.00303e-10
2.00373e-10
2.00459e-10
2.0056e-10
2.00672e-10
2.00794e-10
2.00923e-10
2.01059e-10
2.01198e-10
2.01339e-10
2.01485e-10
2.01637e-10
2.01797e-10
2.0194e-10
2.02075e-10
2.0221e-10
2.02341e-10
2.02476e-10
2.02621e-10
2.02751e-10
2.02871e-10
2.02979e-10
2.03068e-10
2.03186e-10
2.03295e-10
2.03387e-10
2.03471e-10
2.03541e-10
2.0359e-10
2.0364e-10
2.037e-10
2.03749e-10
2.03778e-10
2.03798e-10
2.03821e-10
2.03837e-10
2.03844e-10
2.03846e-10
2.03845e-10
2.03842e-10
2.03836e-10
2.03827e-10
2.03815e-10
2.038e-10
2.03782e-10
2.03764e-10
2.23402e-10
2.23033e-10
2.22656e-10
2.22281e-10
2.21908e-10
2.2154e-10
2.21169e-10
2.2079e-10
2.20405e-10
2.20021e-10
2.19636e-10
2.19252e-10
2.18867e-10
2.18478e-10
2.18085e-10
2.17693e-10
2.17302e-10
2.16912e-10
2.16524e-10
2.16138e-10
2.15749e-10
2.1536e-10
2.14971e-10
2.14586e-10
2.142e-10
2.13816e-10
2.13435e-10
2.13055e-10
2.12676e-10
2.12298e-10
2.11923e-10
2.11551e-10
2.11183e-10
2.10817e-10
2.1045e-10
2.10087e-10
2.09728e-10
2.09368e-10
2.0901e-10
2.0866e-10
2.0831e-10
2.07956e-10
2.07609e-10
2.07283e-10
2.06963e-10
2.06632e-10
2.06287e-10
2.05967e-10
2.05681e-10
2.05377e-10
2.05051e-10
2.04763e-10
2.04495e-10
2.04206e-10
2.03939e-10
2.03693e-10
2.03432e-10
2.03198e-10
2.02977e-10
2.02775e-10
2.02545e-10
2.02319e-10
2.02119e-10
2.01932e-10
2.01751e-10
2.01588e-10
2.01442e-10
2.01313e-10
2.01202e-10
2.01111e-10
2.01038e-10
2.00981e-10
2.0094e-10
2.00916e-10
2.0091e-10
2.00916e-10
2.00936e-10
2.00972e-10
2.01023e-10
2.01088e-10
2.01163e-10
2.01249e-10
2.01341e-10
2.0144e-10
2.01545e-10
2.01654e-10
2.01768e-10
2.01887e-10
2.02012e-10
2.02142e-10
2.02276e-10
2.02397e-10
2.02514e-10
2.02633e-10
2.02761e-10
2.02896e-10
2.03024e-10
2.03145e-10
2.03264e-10
2.03355e-10
2.03461e-10
2.03579e-10
2.03682e-10
2.03777e-10
2.03858e-10
2.03913e-10
2.03968e-10
2.04036e-10
2.04093e-10
2.04131e-10
2.04154e-10
2.04179e-10
2.04201e-10
2.04214e-10
2.0422e-10
2.04221e-10
2.04219e-10
2.04214e-10
2.04205e-10
2.04193e-10
2.0418e-10
2.04165e-10
2.04149e-10
2.23823e-10
2.23447e-10
2.23066e-10
2.22683e-10
2.22301e-10
2.21921e-10
2.21539e-10
2.21152e-10
2.20763e-10
2.20375e-10
2.19988e-10
2.19604e-10
2.19219e-10
2.18832e-10
2.18443e-10
2.18056e-10
2.1767e-10
2.17285e-10
2.16903e-10
2.16522e-10
2.1614e-10
2.15759e-10
2.1538e-10
2.15003e-10
2.14627e-10
2.14253e-10
2.13881e-10
2.13511e-10
2.13142e-10
2.12776e-10
2.12411e-10
2.12051e-10
2.11694e-10
2.11338e-10
2.10982e-10
2.10632e-10
2.10285e-10
2.09934e-10
2.09589e-10
2.09253e-10
2.08914e-10
2.08571e-10
2.08237e-10
2.07927e-10
2.07617e-10
2.07294e-10
2.06958e-10
2.06662e-10
2.06383e-10
2.06082e-10
2.05773e-10
2.05503e-10
2.05235e-10
2.04963e-10
2.04716e-10
2.04472e-10
2.04223e-10
2.03999e-10
2.03778e-10
2.03583e-10
2.03357e-10
2.03134e-10
2.02934e-10
2.02745e-10
2.02568e-10
2.02411e-10
2.02269e-10
2.02139e-10
2.02025e-10
2.01928e-10
2.01848e-10
2.01785e-10
2.01735e-10
2.017e-10
2.0168e-10
2.01675e-10
2.01679e-10
2.01694e-10
2.01721e-10
2.01759e-10
2.01808e-10
2.01867e-10
2.01933e-10
2.02006e-10
2.02084e-10
2.02166e-10
2.02254e-10
2.02349e-10
2.02451e-10
2.02556e-10
2.02671e-10
2.02782e-10
2.02885e-10
2.02986e-10
2.03103e-10
2.03235e-10
2.03359e-10
2.03478e-10
2.03595e-10
2.03703e-10
2.03792e-10
2.03906e-10
2.04022e-10
2.04127e-10
2.04222e-10
2.04285e-10
2.04343e-10
2.04417e-10
2.04483e-10
2.04531e-10
2.04562e-10
2.04592e-10
2.04619e-10
2.04638e-10
2.04649e-10
2.04654e-10
2.04654e-10
2.04652e-10
2.04645e-10
2.04636e-10
2.04622e-10
2.04606e-10
2.04588e-10
2.04568e-10
2.04549e-10
2.24169e-10
2.23776e-10
2.23384e-10
2.22993e-10
2.22607e-10
2.22223e-10
2.21837e-10
2.21451e-10
2.21064e-10
2.20678e-10
2.20295e-10
2.19915e-10
2.19535e-10
2.19153e-10
2.18772e-10
2.18393e-10
2.18014e-10
2.17638e-10
2.17264e-10
2.16891e-10
2.16519e-10
2.16148e-10
2.1578e-10
2.15413e-10
2.15047e-10
2.14685e-10
2.14325e-10
2.13966e-10
2.1361e-10
2.13256e-10
2.12904e-10
2.12556e-10
2.12212e-10
2.11868e-10
2.11525e-10
2.1119e-10
2.10855e-10
2.10515e-10
2.10187e-10
2.09866e-10
2.09539e-10
2.09207e-10
2.0889e-10
2.08598e-10
2.08297e-10
2.07982e-10
2.07666e-10
2.07387e-10
2.07114e-10
2.06816e-10
2.06533e-10
2.06276e-10
2.06009e-10
2.05762e-10
2.05533e-10
2.05288e-10
2.05049e-10
2.04831e-10
2.04613e-10
2.04415e-10
2.04201e-10
2.03987e-10
2.03788e-10
2.03603e-10
2.03432e-10
2.03278e-10
2.03138e-10
2.0301e-10
2.02894e-10
2.02793e-10
2.02707e-10
2.02636e-10
2.02577e-10
2.02531e-10
2.02495e-10
2.02472e-10
2.0246e-10
2.0246e-10
2.02467e-10
2.02484e-10
2.02511e-10
2.02545e-10
2.02586e-10
2.02634e-10
2.02686e-10
2.02744e-10
2.02807e-10
2.02879e-10
2.02958e-10
2.03043e-10
2.03135e-10
2.03234e-10
2.03325e-10
2.03415e-10
2.03513e-10
2.0364e-10
2.03762e-10
2.03876e-10
2.0399e-10
2.04105e-10
2.04199e-10
2.0429e-10
2.04415e-10
2.04532e-10
2.04639e-10
2.04715e-10
2.0478e-10
2.04855e-10
2.04929e-10
2.04986e-10
2.05027e-10
2.05065e-10
2.05098e-10
2.05124e-10
2.05142e-10
2.05153e-10
2.05158e-10
2.05157e-10
2.05154e-10
2.05147e-10
2.05136e-10
2.05123e-10
2.05107e-10
2.05091e-10
2.05074e-10
2.2447e-10
2.24064e-10
2.23663e-10
2.23267e-10
2.22877e-10
2.22491e-10
2.22107e-10
2.21723e-10
2.21341e-10
2.2096e-10
2.20582e-10
2.20207e-10
2.19833e-10
2.1946e-10
2.19087e-10
2.18716e-10
2.18347e-10
2.17981e-10
2.17616e-10
2.17253e-10
2.16891e-10
2.16532e-10
2.16175e-10
2.15819e-10
2.15466e-10
2.15116e-10
2.14768e-10
2.14422e-10
2.14079e-10
2.13739e-10
2.13401e-10
2.13068e-10
2.12737e-10
2.12406e-10
2.12078e-10
2.11759e-10
2.11436e-10
2.11109e-10
2.10801e-10
2.10495e-10
2.10179e-10
2.0986e-10
2.09567e-10
2.09289e-10
2.08996e-10
2.08689e-10
2.084e-10
2.08138e-10
2.07868e-10
2.07582e-10
2.07323e-10
2.07069e-10
2.0682e-10
2.06589e-10
2.06374e-10
2.06132e-10
2.05898e-10
2.05685e-10
2.05472e-10
2.05269e-10
2.05066e-10
2.04865e-10
2.04673e-10
2.04495e-10
2.04331e-10
2.04181e-10
2.04043e-10
2.03915e-10
2.03798e-10
2.03693e-10
2.03601e-10
2.03522e-10
2.03454e-10
2.03398e-10
2.03351e-10
2.03314e-10
2.03287e-10