/*--------------------------------*- C++ -*----------------------------------*\
| =========                 |                                                 |
| \\      /  F ield         | OpenFOAM: The Open Source CFD Toolbox           |
|  \\    /   O peration     | Version:  v1706                                 |
|   \\  /    A nd           | Web:      www.OpenFOAM.com                      |
|    \\/     M anipulation  |                                                 |
\*---------------------------------------------------------------------------*/
FoamFile
{
    version     2.0;
    format      ascii;
    class       volScalarField;
    location    "1.8e-05";
    object      kappatr;
}
// * * * * * * * * * * * * * * * * * * * * * * * * * * * * * * * * * * * * * //

dimensions      [1 1 -3 -1 0 0 0];


internalField   nonuniform List<scalar> 
29871
(
0.0145932
0.0145932
0.0145932
0.0145932
0.0145932
0.0145932
0.0145932
0.0145932
0.0145933
0.0145933
0.0145933
0.0145933
0.0145933
0.0145933
0.0145933
0.0145934
0.0145934
0.0145934
0.0145934
0.0145934
0.0145934
0.0145934
0.0145935
0.0145935
0.0145935
0.0145935
0.0145935
0.0145935
0.0145935
0.0145935
0.0145935
0.0145935
0.0145935
0.0145935
0.0145935
0.0145935
0.0145935
0.0145935
0.0145935
0.0145935
0.0145935
0.0145935
0.0145935
0.0145935
0.0145935
0.0145935
0.0145935
0.0145934
0.0145934
0.0145934
0.0145934
0.0145934
0.0145934
0.0145934
0.0145934
0.0145933
0.0145933
0.0145933
0.0145933
0.0145933
0.0145933
0.0145933
0.0145933
0.0145932
0.0145932
0.0145932
0.0145932
0.0145932
0.0145932
0.0145932
0.0145932
0.0145932
0.0145932
0.0145932
0.0145932
0.0145932
0.0145932
0.0145932
0.0145932
0.0145932
0.0145932
0.0145931
0.0145931
0.0145931
0.0145931
0.0145931
0.0145932
0.0145932
0.0145932
0.0145932
0.0145932
0.0145932
0.0145932
0.0145932
0.0145932
0.0145932
0.0145932
0.0145932
0.0145932
0.0145932
0.0145932
0.0145932
0.0145932
0.0145932
0.0145932
0.0145938
0.0145939
0.014594
0.0145941
0.0145941
0.0145942
0.0145943
0.0145944
0.0145945
0.0145946
0.0145946
0.0145947
0.0145948
0.0145949
0.014595
0.0145951
0.0145952
0.0145953
0.0145954
0.0145955
0.0145955
0.0145956
0.0145957
0.0145958
0.0145958
0.0145959
0.014596
0.014596
0.0145961
0.0145961
0.0145961
0.0145962
0.0145962
0.0145962
0.0145962
0.0145962
0.0145962
0.0145962
0.0145961
0.0145961
0.0145961
0.014596
0.014596
0.0145959
0.0145959
0.0145958
0.0145958
0.0145957
0.0145956
0.0145955
0.0145955
0.0145954
0.0145953
0.0145952
0.0145951
0.0145951
0.014595
0.0145949
0.0145948
0.0145948
0.0145947
0.0145946
0.0145945
0.0145945
0.0145944
0.0145944
0.0145943
0.0145943
0.0145942
0.0145942
0.0145941
0.0145941
0.0145941
0.014594
0.014594
0.014594
0.014594
0.0145939
0.0145939
0.0145939
0.0145939
0.0145939
0.0145939
0.0145939
0.0145939
0.0145939
0.0145939
0.0145939
0.0145939
0.0145939
0.014594
0.014594
0.014594
0.014594
0.014594
0.014594
0.014594
0.014594
0.014594
0.0145941
0.0145941
0.0145941
0.0145941
0.0145941
0.0145941
0.0145954
0.0145956
0.0145958
0.0145961
0.0145963
0.0145965
0.0145968
0.014597
0.0145973
0.0145976
0.0145978
0.0145981
0.0145984
0.0145987
0.014599
0.0145993
0.0145996
0.0145999
0.0146002
0.0146004
0.0146007
0.014601
0.0146012
0.0146015
0.0146017
0.0146019
0.0146021
0.0146023
0.0146025
0.0146026
0.0146027
0.0146029
0.0146029
0.014603
0.014603
0.0146031
0.0146031
0.014603
0.014603
0.0146029
0.0146028
0.0146027
0.0146026
0.0146025
0.0146023
0.0146021
0.0146019
0.0146017
0.0146015
0.0146013
0.0146011
0.0146008
0.0146006
0.0146003
0.0146001
0.0145998
0.0145996
0.0145993
0.0145991
0.0145988
0.0145986
0.0145984
0.0145982
0.014598
0.0145978
0.0145976
0.0145974
0.0145972
0.0145971
0.0145969
0.0145968
0.0145966
0.0145965
0.0145964
0.0145963
0.0145963
0.0145962
0.0145961
0.0145961
0.0145961
0.014596
0.014596
0.014596
0.014596
0.014596
0.014596
0.014596
0.0145961
0.0145961
0.0145961
0.0145961
0.0145962
0.0145962
0.0145963
0.0145963
0.0145963
0.0145964
0.0145964
0.0145965
0.0145965
0.0145966
0.0145966
0.0145967
0.0145967
0.0145968
0.0145968
0.0145996
0.0146001
0.0146007
0.0146013
0.0146019
0.0146026
0.0146032
0.0146039
0.0146047
0.0146054
0.0146061
0.0146069
0.0146077
0.0146085
0.0146092
0.01461
0.0146108
0.0146116
0.0146123
0.0146131
0.0146138
0.0146145
0.0146152
0.0146158
0.0146165
0.014617
0.0146176
0.0146181
0.0146185
0.0146189
0.0146192
0.0146195
0.0146197
0.0146199
0.01462
0.0146201
0.01462
0.01462
0.0146199
0.0146197
0.0146194
0.0146192
0.0146188
0.0146184
0.014618
0.0146175
0.014617
0.0146165
0.0146159
0.0146153
0.0146147
0.0146141
0.0146134
0.0146128
0.0146121
0.0146115
0.0146108
0.0146101
0.0146095
0.0146089
0.0146082
0.0146076
0.0146071
0.0146065
0.014606
0.0146055
0.014605
0.0146045
0.0146041
0.0146037
0.0146034
0.0146031
0.0146028
0.0146025
0.0146023
0.0146021
0.0146019
0.0146018
0.0146017
0.0146016
0.0146015
0.0146015
0.0146015
0.0146015
0.0146015
0.0146016
0.0146016
0.0146017
0.0146018
0.0146019
0.014602
0.0146021
0.0146022
0.0146023
0.0146025
0.0146026
0.0146028
0.0146029
0.0146031
0.0146032
0.0146034
0.0146035
0.0146037
0.0146039
0.0146041
0.0146042
0.0146087
0.01461
0.0146114
0.0146128
0.0146143
0.0146159
0.0146176
0.0146192
0.014621
0.0146228
0.0146246
0.0146265
0.0146284
0.0146304
0.0146323
0.0146343
0.0146363
0.0146382
0.0146402
0.0146421
0.0146439
0.0146457
0.0146475
0.0146491
0.0146507
0.0146522
0.0146537
0.014655
0.0146561
0.0146572
0.0146582
0.014659
0.0146596
0.0146602
0.0146605
0.0146608
0.0146609
0.0146608
0.0146606
0.0146603
0.0146598
0.0146592
0.0146585
0.0146576
0.0146567
0.0146556
0.0146544
0.0146532
0.0146518
0.0146504
0.0146489
0.0146474
0.0146458
0.0146442
0.0146426
0.0146409
0.0146393
0.0146377
0.014636
0.0146344
0.0146329
0.0146314
0.0146299
0.0146285
0.0146271
0.0146258
0.0146246
0.0146234
0.0146223
0.0146213
0.0146204
0.0146196
0.0146188
0.0146181
0.0146175
0.014617
0.0146166
0.0146162
0.0146159
0.0146157
0.0146155
0.0146154
0.0146154
0.0146154
0.0146155
0.0146156
0.0146157
0.0146159
0.0146162
0.0146164
0.0146167
0.0146171
0.0146174
0.0146178
0.0146182
0.0146186
0.014619
0.0146194
0.0146198
0.0146203
0.0146208
0.0146212
0.0146217
0.0146222
0.0146227
0.0146232
0.0146238
0.0146321
0.0146353
0.0146387
0.0146423
0.014646
0.0146499
0.0146539
0.014658
0.0146623
0.0146666
0.0146711
0.0146756
0.0146802
0.0146849
0.0146896
0.0146942
0.0146989
0.0147035
0.0147081
0.0147126
0.0147169
0.0147212
0.0147252
0.0147291
0.0147328
0.0147363
0.0147395
0.0147424
0.0147451
0.0147475
0.0147496
0.0147514
0.0147528
0.014754
0.0147547
0.0147552
0.0147552
0.014755
0.0147545
0.0147536
0.0147524
0.0147508
0.014749
0.0147469
0.0147446
0.014742
0.0147392
0.0147362
0.0147329
0.0147296
0.0147261
0.0147225
0.0147188
0.014715
0.0147112
0.0147073
0.0147035
0.0146997
0.0146959
0.0146922
0.0146886
0.014685
0.0146816
0.0146783
0.0146751
0.0146721
0.0146693
0.0146666
0.0146642
0.0146619
0.0146598
0.0146579
0.0146562
0.0146547
0.0146534
0.0146523
0.0146514
0.0146506
0.0146501
0.0146497
0.0146495
0.0146494
0.0146495
0.0146497
0.01465
0.0146504
0.0146509
0.0146515
0.0146523
0.0146531
0.0146539
0.0146549
0.0146559
0.0146569
0.014658
0.0146591
0.0146603
0.0146615
0.0146627
0.014664
0.0146653
0.0146666
0.0146679
0.0146693
0.0146707
0.0146722
0.0146737
0.0146673
0.0146739
0.0146809
0.0146882
0.014696
0.014704
0.0147125
0.0147212
0.0147303
0.0147397
0.0147494
0.0147593
0.0147694
0.0147797
0.0147902
0.0148008
0.0148114
0.0148221
0.0148328
0.0148434
0.0148539
0.0148643
0.0148743
0.0148841
0.0148935
0.0149025
0.0149111
0.0149191
0.0149266
0.0149335
0.0149399
0.0149455
0.0149505
0.0149548
0.0149584
0.0149613
0.0149634
0.0149648
0.0149653
0.0149652
0.0149644
0.0149628
0.0149605
0.0149575
0.0149538
0.0149495
0.0149446
0.0149391
0.0149331
0.0149266
0.0149197
0.0149124
0.0149047
0.0148968
0.0148886
0.0148802
0.0148718
0.0148632
0.0148546
0.014846
0.0148375
0.0148291
0.0148208
0.0148128
0.0148049
0.0147974
0.0147902
0.0147832
0.0147767
0.0147705
0.0147647
0.0147594
0.0147545
0.01475
0.014746
0.0147424
0.0147393
0.0147367
0.0147345
0.0147327
0.0147314
0.0147305
0.01473
0.01473
0.0147302
0.0147307
0.0147315
0.0147326
0.014734
0.0147356
0.0147375
0.0147396
0.0147419
0.0147443
0.0147469
0.0147497
0.0147525
0.0147555
0.0147586
0.0147617
0.014765
0.0147683
0.0147717
0.0147752
0.0147787
0.0147824
0.0147861
0.0147898
0.0147937
0.0147977
0.0147704
0.0147856
0.0148017
0.0148186
0.0148363
0.0148549
0.0148742
0.0148941
0.0149148
0.0149359
0.0149576
0.0149797
0.0150021
0.0150247
0.0150475
0.0150705
0.0150934
0.0151163
0.0151391
0.0151615
0.0151835
0.0152051
0.0152259
0.015246
0.0152653
0.0152836
0.0153007
0.0153168
0.0153315
0.015345
0.0153571
0.0153679
0.0153772
0.015385
0.0153914
0.0153962
0.0153995
0.0154012
0.0154012
0.0154
0.0153974
0.0153934
0.0153878
0.0153808
0.0153726
0.015363
0.0153523
0.0153405
0.0153277
0.0153139
0.0152992
0.0152839
0.0152678
0.0152512
0.0152342
0.0152168
0.0151992
0.0151814
0.0151635
0.0151457
0.015128
0.0151106
0.0150935
0.0150768
0.0150605
0.0150449
0.0150299
0.0150156
0.0150021
0.0149894
0.0149777
0.0149668
0.0149569
0.0149481
0.0149402
0.0149333
0.0149275
0.0149226
0.0149188
0.014916
0.0149141
0.0149132
0.0149132
0.0149138
0.0149151
0.0149172
0.01492
0.0149234
0.0149275
0.0149321
0.0149372
0.0149428
0.0149488
0.0149552
0.0149619
0.0149689
0.0149762
0.0149837
0.0149915
0.0149995
0.0150076
0.015016
0.0150245
0.0150332
0.0150421
0.0150512
0.0150604
0.0150699
0.0150796
0.0150895
0.0150037
0.0150377
0.0150732
0.0151102
0.0151487
0.0151885
0.0152296
0.0152718
0.015315
0.015359
0.0154035
0.0154485
0.0154938
0.0155392
0.0155845
0.0156295
0.0156742
0.0157183
0.0157616
0.0158042
0.0158456
0.0158857
0.0159242
0.015961
0.0159957
0.0160282
0.0160583
0.0160861
0.0161112
0.0161338
0.0161536
0.0161707
0.0161851
0.0161968
0.0162058
0.0162119
0.0162154
0.0162157
0.0162139
0.0162095
0.0162027
0.0161932
0.0161812
0.0161668
0.0161501
0.0161312
0.0161103
0.0160875
0.0160629
0.0160366
0.0160089
0.0159799
0.0159498
0.0159187
0.0158868
0.0158543
0.0158214
0.0157882
0.0157549
0.0157217
0.0156888
0.0156563
0.0156245
0.0155934
0.0155633
0.0155343
0.0155065
0.01548
0.015455
0.0154317
0.01541
0.0153902
0.0153723
0.0153564
0.0153424
0.0153306
0.0153208
0.0153131
0.0153076
0.015304
0.0153026
0.0153031
0.0153047
0.0153082
0.0153132
0.0153198
0.0153278
0.0153371
0.0153476
0.0153592
0.0153719
0.0153854
0.0153998
0.0154149
0.0154307
0.0154471
0.0154641
0.0154816
0.0154996
0.015518
0.0155368
0.015556
0.0155755
0.0155954
0.0156156
0.0156362
0.0156571
0.0156785
0.0157002
0.0157223
0.0154996
0.0155683
0.0156394
0.0157127
0.0157882
0.0158656
0.0159447
0.0160251
0.0161062
0.0161875
0.0162685
0.0163489
0.0164282
0.0165061
0.0165824
0.0166569
0.0167294
0.0167996
0.0168674
0.0169325
0.0169947
0.0170538
0.0171096
0.017162
0.0172106
0.0172552
0.0172957
0.017332
0.0173639
0.0173915
0.0174148
0.0174338
0.0174486
0.0174595
0.0174666
0.0174693
0.0174682
0.0174636
0.0174552
0.0174437
0.0174293
0.0174111
0.0173896
0.0173648
0.0173371
0.0173064
0.0172731
0.0172373
0.0171992
0.0171589
0.0171167
0.0170726
0.017027
0.0169798
0.0169314
0.016882
0.0168318
0.016781
0.0167299
0.0166787
0.0166277
0.0165771
0.0165273
0.0164786
0.0164312
0.0163855
0.0163417
0.0163001
0.016261
0.0162246
0.0161912
0.016161
0.0161341
0.0161107
0.0160908
0.0160746
0.016062
0.0160532
0.016048
0.0160473
0.0160491
0.0160536
0.0160616
0.0160726
0.0160863
0.0161027
0.0161215
0.0161424
0.0161653
0.0161901
0.0162164
0.0162441
0.0162732
0.0163033
0.0163345
0.0163665
0.0163994
0.0164329
0.016467
0.0165017
0.0165368
0.0165724
0.0166085
0.0166451
0.016682
0.0167195
0.0167574
0.0167958
0.0168348
0.0168743
0.0164491
0.0165708
0.0166937
0.0168173
0.0169414
0.0170654
0.0171889
0.0173113
0.0174317
0.0175496
0.0176641
0.0177748
0.0178811
0.0179828
0.0180795
0.018171
0.0182573
0.018338
0.0184133
0.0184832
0.0185478
0.0186073
0.0186618
0.018711
0.0187549
0.0187933
0.0188264
0.0188542
0.0188768
0.0188941
0.0189062
0.0189134
0.0189155
0.0189143
0.01891
0.0189015
0.0188892
0.0188732
0.0188548
0.0188336
0.0188089
0.0187809
0.0187499
0.0187161
0.0186795
0.0186404
0.018599
0.0185555
0.01851
0.0184626
0.0184132
0.0183622
0.01831
0.0182565
0.0182018
0.018146
0.0180892
0.0180317
0.0179739
0.0179159
0.017858
0.0178006
0.0177437
0.0176879
0.0176333
0.0175804
0.0175295
0.0174811
0.0174356
0.0173934
0.0173549
0.0173205
0.0172907
0.0172658
0.0172459
0.017231
0.0172214
0.0172184
0.0172202
0.017226
0.0172368
0.0172523
0.0172721
0.0172958
0.0173232
0.0173539
0.0173876
0.0174239
0.0174625
0.0175031
0.0175452
0.0175888
0.0176337
0.0176795
0.017726
0.0177731
0.0178206
0.0178686
0.017917
0.0179658
0.0180147
0.0180637
0.0181128
0.0181619
0.018211
0.0182602
0.0183093
0.0183585
0.0184075
0.0184565
0.0177848
0.017953
0.018118
0.0182792
0.0184357
0.0185873
0.0187341
0.0188768
0.0190139
0.0191432
0.0192635
0.0193741
0.0194748
0.0195656
0.0196467
0.0197184
0.0197812
0.0198358
0.0198824
0.0199212
0.0199525
0.0199766
0.0199943
0.0200064
0.0200134
0.0200151
0.0200138
0.0200099
0.0200028
0.0199927
0.0199796
0.0199637
0.0199451
0.0199242
0.0199019
0.0198788
0.0198558
0.019829
0.0197998
0.0197714
0.0197429
0.0197129
0.0196816
0.0196495
0.0196166
0.0195828
0.0195483
0.0195134
0.0194778
0.0194413
0.0194043
0.0193672
0.0193295
0.0192908
0.019251
0.0192106
0.0191699
0.0191287
0.0190869
0.0190446
0.019002
0.0189594
0.018917
0.0188754
0.0188347
0.0187955
0.018758
0.0187227
0.01869
0.0186604
0.0186342
0.0186117
0.0185933
0.0185794
0.0185699
0.0185658
0.0185664
0.0185712
0.018581
0.0185958
0.0186158
0.0186396
0.0186676
0.0186994
0.0187344
0.0187718
0.0188114
0.0188526
0.0188947
0.0189374
0.0189806
0.019024
0.019067
0.0191093
0.0191508
0.0191916
0.0192316
0.0192705
0.0193079
0.0193435
0.0193776
0.0194102
0.0194416
0.0194719
0.019501
0.0195288
0.0195555
0.019581
0.0196056
0.0196294
0.0196524
0.019595
0.0197606
0.019912
0.0200485
0.0201698
0.0202759
0.0203669
0.0204431
0.0205063
0.0205583
0.0206006
0.0206339
0.0206586
0.0206758
0.0206863
0.0206899
0.0206889
0.0206846
0.0206763
0.020664
0.0206483
0.0206296
0.0206083
0.0205849
0.0205597
0.020533
0.0205056
0.0204776
0.0204486
0.0204204
0.0203906
0.0203581
0.0203269
0.0202947
0.0202625
0.0202322
0.0202013
0.0201684
0.0201348
0.0201026
0.0200714
0.02004
0.0200083
0.0199763
0.0199443
0.0199132
0.0198831
0.0198528
0.0198226
0.0197938
0.0197661
0.0197383
0.0197109
0.0196851
0.019661
0.0196375
0.019614
0.019591
0.0195691
0.0195484
0.0195287
0.0195103
0.0194931
0.0194773
0.0194629
0.0194501
0.0194392
0.0194302
0.0194235
0.0194195
0.0194187
0.0194201
0.0194247
0.0194327
0.0194442
0.0194583
0.0194739
0.0194948
0.0195172
0.0195412
0.0195669
0.0195938
0.0196216
0.0196495
0.0196775
0.0197053
0.0197322
0.0197583
0.0197839
0.0198085
0.0198315
0.0198528
0.0198733
0.019893
0.0199114
0.0199281
0.0199434
0.0199577
0.0199714
0.0199847
0.0199975
0.0200095
0.0200208
0.0200312
0.020041
0.0200502
0.020059
0.0200675
0.0200755
0.0200829
0.0200898
0.0200961
0.0201019
0.0209896
0.0210498
0.0210974
0.0211338
0.0211597
0.0211764
0.0211843
0.0211845
0.0211809
0.0211722
0.0211587
0.0211413
0.0211208
0.0210975
0.0210719
0.0210443
0.0210155
0.020986
0.0209556
0.0209246
0.0208938
0.0208625
0.0208272
0.0207924
0.0207588
0.020725
0.0206889
0.0206532
0.0206195
0.0205863
0.0205507
0.020515
0.0204797
0.0204437
0.0204088
0.0203762
0.0203424
0.0203073
0.0202722
0.0202384
0.0202071
0.0201758
0.0201435
0.0201109
0.0200803
0.0200514
0.0200219
0.019993
0.0199664
0.01994
0.0199141
0.0198897
0.0198669
0.0198447
0.0198236
0.0198036
0.019785
0.0197673
0.0197509
0.019736
0.019723
0.0197122
0.0197036
0.0196973
0.0196934
0.0196925
0.0196933
0.0196958
0.0197012
0.0197104
0.019722
0.0197356
0.0197508
0.0197685
0.0197889
0.0198093
0.0198298
0.0198532
0.0198782
0.0199027
0.0199272
0.0199516
0.0199749
0.0199969
0.0200176
0.0200373
0.020056
0.0200733
0.0200888
0.0201032
0.0201166
0.0201292
0.0201402
0.0201496
0.0201584
0.0201665
0.0201741
0.0201809
0.020187
0.0201922
0.0201963
0.0201996
0.0202025
0.0202051
0.0202074
0.0202093
0.0202108
0.0202119
0.0202128
0.0202136
0.0202144
0.0202153
0.0202161
0.0215784
0.0215841
0.0215825
0.021576
0.0215638
0.0215469
0.0215264
0.021503
0.0214769
0.0214489
0.02142
0.0213901
0.0213589
0.0213275
0.021296
0.0212582
0.0212216
0.021186
0.0211491
0.0211115
0.0210741
0.0210369
0.0209995
0.0209619
0.0209237
0.0208854
0.0208477
0.02081
0.0207719
0.020734
0.0206971
0.0206605
0.0206236
0.0205869
0.0205503
0.0205134
0.0204783
0.0204444
0.0204097
0.0203742
0.0203385
0.0203052
0.0202739
0.0202418
0.0202086
0.020177
0.0201478
0.0201182
0.0200891
0.0200626
0.0200364
0.0200101
0.0199871
0.0199657
0.0199434
0.0199229
0.0199051
0.0198891
0.0198723
0.0198563
0.0198429
0.0198317
0.0198221
0.0198143
0.0198085
0.0198055
0.0198055
0.0198068
0.0198101
0.0198156
0.0198236
0.0198343
0.0198476
0.0198628
0.0198797
0.0198985
0.019919
0.0199393
0.0199604
0.0199831
0.0200052
0.0200279
0.020051
0.0200723
0.0200923
0.0201107
0.020128
0.0201446
0.0201596
0.0201727
0.0201854
0.0201973
0.0202076
0.0202166
0.0202254
0.0202338
0.020241
0.0202463
0.0202506
0.020255
0.0202588
0.0202618
0.0202643
0.0202664
0.0202681
0.0202696
0.0202706
0.0202713
0.0202716
0.0202717
0.0202716
0.0202716
0.0202714
0.0202709
0.0202703
0.0218475
0.0218219
0.0217942
0.0217653
0.021735
0.0217033
0.0216722
0.0216354
0.0215973
0.0215603
0.0215234
0.021486
0.0214483
0.0214107
0.0213727
0.0213333
0.0212941
0.0212555
0.0212166
0.0211776
0.0211389
0.0211005
0.0210621
0.0210236
0.020985
0.0209466
0.0209086
0.0208705
0.0208322
0.0207942
0.0207569
0.0207197
0.0206826
0.0206459
0.020609
0.020572
0.020537
0.020503
0.0204682
0.0204328
0.020397
0.0203644
0.0203331
0.0203006
0.020267
0.0202369
0.0202079
0.0201777
0.0201496
0.0201237
0.0200971
0.0200719
0.0200499
0.020028
0.0200052
0.0199856
0.0199675
0.0199517
0.0199343
0.019918
0.0199046
0.0198931
0.0198837
0.0198771
0.0198727
0.0198714
0.0198721
0.0198745
0.0198789
0.0198853
0.0198939
0.0199046
0.0199174
0.0199319
0.0199478
0.0199653
0.0199833
0.0200018
0.0200215
0.0200413
0.0200607
0.0200814
0.0201013
0.02012
0.0201384
0.0201547
0.0201694
0.0201847
0.0201997
0.0202124
0.0202233
0.0202346
0.0202455
0.0202549
0.0202634
0.020271
0.0202768
0.0202831
0.0202886
0.0202931
0.0202969
0.0203001
0.0203026
0.0203044
0.0203052
0.0203057
0.0203063
0.0203063
0.020306
0.0203053
0.0203043
0.0203029
0.0203013
0.0202998
0.0202984
0.0202971
0.0221618
0.0221395
0.0221137
0.022086
0.0220569
0.0220262
0.0219957
0.0219596
0.0219222
0.0218855
0.021849
0.0218123
0.0217754
0.0217385
0.0216999
0.0216607
0.0216219
0.0215834
0.0215448
0.0215063
0.0214679
0.0214289
0.0213894
0.0213502
0.0213112
0.021272
0.0212329
0.0211942
0.0211556
0.021117
0.0210785
0.02104
0.0210018
0.0209639
0.0209258
0.0208876
0.02085
0.0208127
0.0207754
0.0207386
0.020702
0.0206652
0.0206286
0.0205941
0.0205605
0.0205261
0.0204909
0.0204556
0.0204241
0.020393
0.0203603
0.0203273
0.0202986
0.0202697
0.0202394
0.0202127
0.0201871
0.0201605
0.0201368
0.0201154
0.020093
0.0200705
0.020051
0.0200324
0.0200157
0.0199987
0.0199833
0.0199697
0.0199586
0.0199498
0.0199431
0.0199383
0.0199359
0.019936
0.0199373
0.0199406
0.0199461
0.0199536
0.0199631
0.0199744
0.0199871
0.0200011
0.020016
0.0200315
0.0200478
0.0200647
0.0200814
0.0200984
0.0201167
0.0201341
0.0201499
0.020166
0.0201809
0.0201946
0.0202088
0.020224
0.0202369
0.0202485
0.0202586
0.0202682
0.0202796
0.020289
0.0202973
0.0203046
0.0203109
0.0203158
0.0203204
0.020325
0.0203285
0.0203306
0.0203324
0.0203339
0.0203354
0.0203362
0.0203362
0.0203359
0.0203354
0.0203348
0.0203342
0.0203334
0.0203324
0.020331
0.0203295
0.0222698
0.0222339
0.0221975
0.0221617
0.022126
0.0220905
0.022055
0.0220176
0.0219791
0.0219409
0.021903
0.0218651
0.0218274
0.0217892
0.0217503
0.0217112
0.0216722
0.0216334
0.0215947
0.021556
0.021517
0.0214776
0.0214382
0.0213991
0.02136
0.0213209
0.0212821
0.0212435
0.021205
0.0211665
0.0211282
0.0210901
0.0210525
0.0210151
0.0209775
0.0209401
0.0209033
0.0208665
0.0208297
0.0207936
0.0207577
0.0207215
0.0206857
0.020652
0.020619
0.0205852
0.0205504
0.0205163
0.0204864
0.0204558
0.0204228
0.0203916
0.0203641
0.0203352
0.0203062
0.0202808
0.020255
0.0202297
0.0202071
0.0201861
0.0201632
0.0201408
0.0201211
0.0201023
0.0200845
0.0200682
0.0200531
0.0200397
0.0200285
0.0200195
0.0200126
0.0200076
0.0200045
0.0200038
0.0200044
0.0200064
0.0200101
0.0200155
0.0200226
0.0200312
0.0200412
0.0200525
0.0200646
0.0200775
0.020091
0.0201049
0.020119
0.0201336
0.0201489
0.0201648
0.0201791
0.0201926
0.0202061
0.0202192
0.0202327
0.0202472
0.0202601
0.0202722
0.020283
0.0202918
0.0203036
0.0203145
0.0203237
0.0203321
0.0203391
0.020344
0.020349
0.020355
0.0203598
0.0203628
0.0203648
0.020367
0.0203687
0.0203694
0.0203696
0.0203695
0.0203692
0.0203686
0.0203677
0.0203665
0.020365
0.0203632
0.0203614
0.0223237
0.0222869
0.0222492
0.0222117
0.0221744
0.0221376
0.0221006
0.0220627
0.0220243
0.0219859
0.0219474
0.021909
0.0218706
0.0218316
0.0217924
0.0217532
0.0217142
0.0216752
0.0216365
0.0215979
0.021559
0.0215201
0.0214813
0.0214427
0.0214042
0.0213658
0.0213277
0.0212898
0.0212519
0.0212142
0.0211767
0.0211395
0.0211028
0.0210662
0.0210295
0.0209932
0.0209574
0.0209213
0.0208855
0.0208506
0.0208156
0.0207803
0.0207456
0.020713
0.020681
0.020648
0.0206135
0.0205815
0.0205529
0.0205225
0.02049
0.0204612
0.0204344
0.0204056
0.0203788
0.0203543
0.0203282
0.0203048
0.0202828
0.0202625
0.0202396
0.020217
0.020197
0.0201783
0.0201602
0.0201439
0.0201294
0.0201164
0.0201053
0.0200962
0.020089
0.0200833
0.0200792
0.0200767
0.0200762
0.0200768
0.0200788
0.0200824
0.0200875
0.020094
0.0201015
0.02011
0.0201193
0.0201292
0.0201397
0.0201506
0.0201619
0.0201739
0.0201863
0.0201993
0.0202127
0.0202248
0.0202365
0.0202483
0.0202611
0.0202747
0.0202875
0.0202996
0.0203114
0.0203205
0.0203311
0.0203429
0.0203532
0.0203627
0.0203708
0.0203763
0.0203817
0.0203886
0.0203943
0.020398
0.0204004
0.0204028
0.020405
0.0204064
0.020407
0.020407
0.0204068
0.0204063
0.0204054
0.0204043
0.020403
0.0204015
0.0203998
0.0223658
0.0223282
0.0222901
0.0222519
0.0222137
0.0221758
0.0221375
0.0220989
0.02206
0.0220212
0.0219826
0.0219442
0.0219058
0.021867
0.0218282
0.0217895
0.0217509
0.0217125
0.0216743
0.0216362
0.0215981
0.02156
0.0215221
0.0214844
0.0214468
0.0214094
0.0213723
0.0213353
0.0212985
0.0212619
0.0212255
0.0211894
0.0211538
0.0211182
0.0210826
0.0210477
0.021013
0.0209779
0.0209435
0.0209099
0.020876
0.0208417
0.0208083
0.0207773
0.0207464
0.0207141
0.0206806
0.020651
0.0206231
0.020593
0.0205621
0.0205351
0.0205084
0.0204812
0.0204565
0.0204322
0.0204073
0.0203848
0.0203628
0.0203433
0.0203207
0.0202984
0.0202784
0.0202596
0.0202419
0.0202261
0.0202119
0.020199
0.0201876
0.0201779
0.02017
0.0201636
0.0201587
0.0201552
0.0201531
0.0201526
0.020153
0.0201545
0.0201572
0.0201611
0.0201659
0.0201718
0.0201784
0.0201857
0.0201935
0.0202017
0.0202105
0.02022
0.0202301
0.0202407
0.0202522
0.0202632
0.0202735
0.0202837
0.0202953
0.0203085
0.0203209
0.0203328
0.0203445
0.0203552
0.0203642
0.0203756
0.0203872
0.0203977
0.0204072
0.0204134
0.0204192
0.0204267
0.0204333
0.020438
0.0204412
0.0204441
0.0204468
0.0204487
0.0204498
0.0204503
0.0204503
0.0204501
0.0204495
0.0204485
0.0204472
0.0204455
0.0204437
0.0204418
0.0204398
0.0224003
0.0223611
0.0223219
0.0222829
0.0222442
0.0222059
0.0221674
0.0221287
0.0220901
0.0220516
0.0220133
0.0219753
0.0219372
0.0218991
0.0218611
0.0218231
0.0217853
0.0217477
0.0217104
0.0216731
0.0216359
0.0215988
0.021562
0.0215254
0.0214888
0.0214526
0.0214166
0.0213808
0.0213452
0.0213098
0.0212747
0.0212399
0.0212055
0.0211711
0.0211369
0.0211034
0.0210699
0.021036
0.0210032
0.0209711
0.0209384
0.0209052
0.0208736
0.0208444
0.0208143
0.0207828
0.0207513
0.0207234
0.0206961
0.0206664
0.0206381
0.0206123
0.0205857
0.020561
0.0205381
0.0205137
0.0204898
0.020468
0.0204462
0.0204264
0.020405
0.0203836
0.0203638
0.0203453
0.0203282
0.0203128
0.0202988
0.020286
0.0202744
0.0202643
0.0202558
0.0202487
0.0202428
0.0202381
0.0202346
0.0202323
0.0202311
0.0202311
0.0202318
0.0202335
0.0202361
0.0202396
0.0202437
0.0202484
0.0202537
0.0202594
0.0202658
0.0202729
0.0202808
0.0202893
0.0202985
0.0203085
0.0203175
0.0203265
0.0203363
0.020349
0.0203612
0.0203726
0.0203839
0.0203954
0.0204049
0.020414
0.0204264
0.0204381
0.0204488
0.0204564
0.0204629
0.0204704
0.0204778
0.0204835
0.0204876
0.0204913
0.0204947
0.0204973
0.0204991
0.0205002
0.0205006
0.0205006
0.0205003
0.0204995
0.0204985
0.0204971
0.0204956
0.020494
0.0204922
0.0224304
0.0223899
0.0223498
0.0223102
0.0222712
0.0222327
0.0221942
0.0221559
0.0221177
0.0220797
0.0220419
0.0220044
0.021967
0.0219297
0.0218925
0.0218554
0.0218185
0.0217819
0.0217455
0.0217092
0.021673
0.0216371
0.0216014
0.0215659
0.0215306
0.0214957
0.0214609
0.0214264
0.0213921
0.0213581
0.0213243
0.021291
0.0212579
0.0212248
0.0211921
0.0211602
0.021128
0.0210953
0.0210645
0.0210339
0.0210024
0.0209704
0.0209412
0.0209134
0.0208842
0.0208535
0.0208245
0.0207984
0.0207715
0.0207429
0.020717
0.0206916
0.0206667
0.0206436
0.0206222
0.020598
0.0205746
0.0205533
0.0205321
0.0205117
0.0204915
0.0204714
0.0204522
0.0204344
0.020418
0.020403
0.0203892
0.0203765
0.0203648
0.0203542
0.0203451
0.0203372
0.0203304
0.0203248
0.0203201
0.0203164
0.0203138
0.020312
0.020311
0.020311
0.0203114
0.0203126
0.0203145
0.020317
0.0203201
0.0203236
0.0203278
0.0203328
0.0203386
0.0203451
0.0203523
0.0203605
0.0203687
0.0203767
0.0203851
0.0203964
0.0204084
0.0204194
0.0204303
0.0204416
0.020452
0.0204604
0.0204718
0.0204847
0.0204964
0.0205058
0.020513
0.0205207
0.0205285
0.0205352
0.0205405
0.0205452
0.0205494
0.0205528
0.0205554
0.0205574
0.0205586
0.0205594
0.0205597
0.0205596
0.0205591
0.0205584
0.0205573
0.0205561
0.0205547
0.0225051
0.0224614
0.022419
0.0223776
0.0223371
0.0222975
0.0222586
0.0222202
0.0221821
0.0221443
0.0221068
0.0220696
0.0220327
0.021996
0.0219596
0.0219232
0.0218871
0.0218512
0.0218156
0.0217802
0.021745
0.02171
0.0216753
0.0216408
0.0216065
0.0215725
0.0215389
0.0215054
0.0214723
0.0214394
0.0214069
0.0213745
0.0213427
0.0213111
0.0212794
0.0212484
0.0212181
0.0211869
0.0211559
0.0211273
0.021098
0.0210676
0.0210377
0.0210106
0.0209839
0.0209556
0.0209263
0.0208999
0.0208751
0.0208482
0.0208223
0.0207985
0.0207736
0.0207504
0.0207282
0.0207078
0.020685
0.0206619
0.0206408
0.0206202
0.0206001
0.0205807
0.0205616
0.0205433
0.0205262
0.0205103
0.0204957
0.0204822
0.0204695
0.0204577
0.0204469
0.0204372
0.0204286
0.0204211
0.0204146
0.0204089
0.020404
0.0204
0.0203968
0.0203943
0.0203925
0.0203913
0.0203908
0.0203909
0.0203915
0.0203926
0.0203943
0.0203966
0.0203997
0.0204037
0.0204084
0.0204139
0.0204201
0.0204274
0.0204345
0.0204417
0.0204513
0.0204626
0.0204732
0.0204835
0.0204943
0.0205055
0.020514
0.0205242
0.0205379
0.0205503
0.0205611
0.0205693
0.0205775
0.020586
0.0205939
0.0206006
0.0206066
0.020612
0.0206168
0.0206207
0.0206239
0.0206264
0.0206283
0.0206296
0.0206304
0.0206307
0.0206306
0.0206302
0.0206296
0.0206289
0.0225457
0.0224977
0.022452
0.0224081
0.0223659
0.0223251
0.0222854
0.0222466
0.0222085
0.0221709
0.0221338
0.0220972
0.0220609
0.022025
0.0219893
0.0219539
0.0219188
0.021884
0.0218494
0.0218151
0.0217811
0.0217473
0.0217138
0.0216806
0.0216477
0.0216151
0.0215828
0.0215507
0.021519
0.0214877
0.0214566
0.0214258
0.0213956
0.0213655
0.0213351
0.021306
0.0212772
0.0212471
0.0212185
0.0211917
0.0211636
0.0211344
0.0211071
0.0210817
0.0210559
0.0210287
0.0210019
0.0209773
0.0209532
0.0209277
0.0209042
0.0208819
0.0208581
0.0208364
0.0208153
0.0207955
0.0207747
0.0207522
0.0207314
0.0207113
0.0206918
0.0206732
0.0206552
0.0206378
0.0206213
0.0206058
0.0205914
0.020578
0.0205654
0.0205536
0.0205427
0.0205326
0.0205235
0.0205154
0.020508
0.0205015
0.0204956
0.0204904
0.0204859
0.0204821
0.0204788
0.0204762
0.020474
0.0204725
0.0204714
0.0204709
0.0204711
0.0204718
0.0204733
0.0204757
0.0204789
0.020483
0.0204877
0.0204935
0.0205005
0.0205068
0.0205147
0.0205249
0.020535
0.0205446
0.0205549
0.0205661
0.0205751
0.020585
0.0205991
0.0206121
0.020624
0.0206336
0.0206428
0.0206525
0.0206618
0.0206702
0.0206779
0.0206849
0.0206911
0.0206965
0.0207012
0.0207051
0.0207083
0.0207108
0.0207127
0.0207141
0.0207151
0.0207158
0.0207162
0.0207164
0.0207166
0.0207167
0.0225994
0.0225438
0.0224925
0.0224445
0.0223991
0.022356
0.0223147
0.0222749
0.0222363
0.0221986
0.0221617
0.0221255
0.0220898
0.0220546
0.0220198
0.0219854
0.0219513
0.0219175
0.0218841
0.021851
0.0218181
0.0217857
0.0217535
0.0217216
0.02169
0.0216589
0.021628
0.0215974
0.0215672
0.0215375
0.0215078
0.0214786
0.0214501
0.0214214
0.0213926
0.0213656
0.0213382
0.0213095
0.0212834
0.0212579
0.021231
0.0212039
0.0211787
0.0211547
0.0211301
0.0211041
0.0210799
0.0210572
0.0210333
0.0210103
0.0209887
0.0209678
0.0209452
0.0209247
0.0209046
0.0208852
0.0208658
0.0208453
0.0208256
0.0208063
0.0207877
0.0207701
0.020753
0.0207363
0.0207204
0.0207053
0.0206912
0.0206779
0.0206655
0.0206538
0.0206428
0.0206326
0.0206231
0.0206145
0.0206065
0.0205991
0.0205924
0.0205862
0.0205806
0.0205756
0.020571
0.020567
0.0205634
0.0205604
0.0205579
0.0205559
0.0205546
0.0205539
0.020554
0.0205548
0.0205565
0.0205592
0.0205627
0.0205673
0.0205734
0.0205791
0.0205861
0.0205954
0.0206053
0.0206144
0.0206242
0.0206354
0.0206456
0.0206559
0.0206699
0.0206836
0.0206964
0.0207072
0.0207178
0.0207288
0.0207397
0.0207499
0.0207594
0.0207682
0.0207763
0.0207836
0.0207902
0.020796
0.0208011
0.0208054
0.020809
0.0208121
0.0208146
0.0208168
0.0208187
0.0208204
0.020822
0.0208236
0.0226758
0.0226068
0.0225458
0.0224906
0.02244
0.0223929
0.0223488
0.022307
0.0222671
0.0222288
0.0221918
0.0221557
0.0221205
0.0220859
0.0220519
0.0220184
0.0219853
0.0219527
0.0219204
0.0218885
0.021857
0.0218258
0.021795
0.0217645
0.0217344
0.0217047
0.0216753
0.0216463
0.0216177
0.0215895
0.0215614
0.0215339
0.0215071
0.0214797
0.021453
0.0214278
0.0214017
0.0213749
0.0213509
0.0213267
0.021301
0.0212766
0.021253
0.0212302
0.0212071
0.0211831
0.0211607
0.0211396
0.0211169
0.021096
0.0210762
0.0210569
0.0210357
0.0210162
0.0209973
0.0209785
0.0209601
0.0209414
0.0209228
0.0209046
0.0208871
0.0208703
0.0208541
0.0208385
0.0208235
0.0208092
0.0207957