/*--------------------------------*- C++ -*----------------------------------*\
| =========                 |                                                 |
| \\      /  F ield         | OpenFOAM: The Open Source CFD Toolbox           |
|  \\    /   O peration     | Version:  v1706                                 |
|   \\  /    A nd           | Web:      www.OpenFOAM.com                      |
|    \\/     M anipulation  |                                                 |
\*---------------------------------------------------------------------------*/
FoamFile
{
    version     2.0;
    format      ascii;
    class       volScalarField;
    location    "1.8e-05";
    object      mu;
}
// * * * * * * * * * * * * * * * * * * * * * * * * * * * * * * * * * * * * * //

dimensions      [1 -1 -1 0 0 0 0];


internalField   nonuniform List<scalar> 
29871
(
1.03511e-05
1.03511e-05
1.03511e-05
1.03511e-05
1.03511e-05
1.03511e-05
1.03512e-05
1.03512e-05
1.03512e-05
1.03512e-05
1.03512e-05
1.03512e-05
1.03512e-05
1.03512e-05
1.03512e-05
1.03513e-05
1.03513e-05
1.03513e-05
1.03513e-05
1.03513e-05
1.03513e-05
1.03513e-05
1.03513e-05
1.03513e-05
1.03513e-05
1.03513e-05
1.03514e-05
1.03514e-05
1.03514e-05
1.03514e-05
1.03514e-05
1.03514e-05
1.03514e-05
1.03514e-05
1.03514e-05
1.03514e-05
1.03514e-05
1.03514e-05
1.03514e-05
1.03514e-05
1.03514e-05
1.03514e-05
1.03514e-05
1.03513e-05
1.03513e-05
1.03513e-05
1.03513e-05
1.03513e-05
1.03513e-05
1.03513e-05
1.03513e-05
1.03513e-05
1.03513e-05
1.03513e-05
1.03512e-05
1.03512e-05
1.03512e-05
1.03512e-05
1.03512e-05
1.03512e-05
1.03512e-05
1.03512e-05
1.03512e-05
1.03512e-05
1.03512e-05
1.03512e-05
1.03511e-05
1.03511e-05
1.03511e-05
1.03511e-05
1.03511e-05
1.03511e-05
1.03511e-05
1.03511e-05
1.03511e-05
1.03511e-05
1.03511e-05
1.03511e-05
1.03511e-05
1.03511e-05
1.03511e-05
1.03511e-05
1.03511e-05
1.03511e-05
1.03511e-05
1.03511e-05
1.03511e-05
1.03511e-05
1.03511e-05
1.03511e-05
1.03511e-05
1.03511e-05
1.03511e-05
1.03511e-05
1.03511e-05
1.03511e-05
1.03511e-05
1.03511e-05
1.03511e-05
1.03511e-05
1.03511e-05
1.03511e-05
1.03511e-05
1.03511e-05
1.03511e-05
1.03516e-05
1.03516e-05
1.03517e-05
1.03517e-05
1.03518e-05
1.03519e-05
1.03519e-05
1.0352e-05
1.0352e-05
1.03521e-05
1.03522e-05
1.03522e-05
1.03523e-05
1.03524e-05
1.03524e-05
1.03525e-05
1.03526e-05
1.03526e-05
1.03527e-05
1.03527e-05
1.03528e-05
1.03529e-05
1.03529e-05
1.0353e-05
1.0353e-05
1.03531e-05
1.03531e-05
1.03531e-05
1.03532e-05
1.03532e-05
1.03532e-05
1.03532e-05
1.03533e-05
1.03533e-05
1.03533e-05
1.03533e-05
1.03533e-05
1.03532e-05
1.03532e-05
1.03532e-05
1.03532e-05
1.03532e-05
1.03531e-05
1.03531e-05
1.0353e-05
1.0353e-05
1.0353e-05
1.03529e-05
1.03529e-05
1.03528e-05
1.03527e-05
1.03527e-05
1.03526e-05
1.03526e-05
1.03525e-05
1.03525e-05
1.03524e-05
1.03524e-05
1.03523e-05
1.03522e-05
1.03522e-05
1.03521e-05
1.03521e-05
1.0352e-05
1.0352e-05
1.0352e-05
1.03519e-05
1.03519e-05
1.03519e-05
1.03518e-05
1.03518e-05
1.03518e-05
1.03517e-05
1.03517e-05
1.03517e-05
1.03517e-05
1.03517e-05
1.03517e-05
1.03517e-05
1.03517e-05
1.03517e-05
1.03516e-05
1.03516e-05
1.03516e-05
1.03516e-05
1.03516e-05
1.03517e-05
1.03517e-05
1.03517e-05
1.03517e-05
1.03517e-05
1.03517e-05
1.03517e-05
1.03517e-05
1.03517e-05
1.03517e-05
1.03517e-05
1.03517e-05
1.03517e-05
1.03518e-05
1.03518e-05
1.03518e-05
1.03518e-05
1.03518e-05
1.03518e-05
1.03527e-05
1.03529e-05
1.0353e-05
1.03532e-05
1.03533e-05
1.03535e-05
1.03537e-05
1.03539e-05
1.0354e-05
1.03542e-05
1.03544e-05
1.03546e-05
1.03548e-05
1.0355e-05
1.03552e-05
1.03555e-05
1.03557e-05
1.03559e-05
1.03561e-05
1.03563e-05
1.03565e-05
1.03567e-05
1.03568e-05
1.0357e-05
1.03572e-05
1.03573e-05
1.03575e-05
1.03576e-05
1.03577e-05
1.03578e-05
1.03579e-05
1.0358e-05
1.0358e-05
1.03581e-05
1.03581e-05
1.03581e-05
1.03581e-05
1.03581e-05
1.03581e-05
1.0358e-05
1.0358e-05
1.03579e-05
1.03578e-05
1.03577e-05
1.03576e-05
1.03575e-05
1.03573e-05
1.03572e-05
1.0357e-05
1.03569e-05
1.03567e-05
1.03565e-05
1.03564e-05
1.03562e-05
1.0356e-05
1.03558e-05
1.03557e-05
1.03555e-05
1.03553e-05
1.03551e-05
1.0355e-05
1.03548e-05
1.03547e-05
1.03545e-05
1.03544e-05
1.03542e-05
1.03541e-05
1.0354e-05
1.03539e-05
1.03538e-05
1.03537e-05
1.03536e-05
1.03535e-05
1.03534e-05
1.03534e-05
1.03533e-05
1.03533e-05
1.03532e-05
1.03532e-05
1.03532e-05
1.03532e-05
1.03531e-05
1.03531e-05
1.03531e-05
1.03531e-05
1.03531e-05
1.03532e-05
1.03532e-05
1.03532e-05
1.03532e-05
1.03532e-05
1.03532e-05
1.03533e-05
1.03533e-05
1.03533e-05
1.03534e-05
1.03534e-05
1.03534e-05
1.03535e-05
1.03535e-05
1.03535e-05
1.03536e-05
1.03536e-05
1.03536e-05
1.03537e-05
1.03537e-05
1.03557e-05
1.03561e-05
1.03565e-05
1.03569e-05
1.03573e-05
1.03578e-05
1.03583e-05
1.03588e-05
1.03593e-05
1.03598e-05
1.03603e-05
1.03609e-05
1.03614e-05
1.0362e-05
1.03625e-05
1.03631e-05
1.03636e-05
1.03642e-05
1.03647e-05
1.03652e-05
1.03658e-05
1.03663e-05
1.03667e-05
1.03672e-05
1.03676e-05
1.0368e-05
1.03684e-05
1.03688e-05
1.03691e-05
1.03694e-05
1.03696e-05
1.03698e-05
1.037e-05
1.03701e-05
1.03702e-05
1.03702e-05
1.03702e-05
1.03701e-05
1.03701e-05
1.03699e-05
1.03698e-05
1.03696e-05
1.03693e-05
1.0369e-05
1.03687e-05
1.03684e-05
1.03681e-05
1.03677e-05
1.03673e-05
1.03668e-05
1.03664e-05
1.0366e-05
1.03655e-05
1.0365e-05
1.03646e-05
1.03641e-05
1.03636e-05
1.03632e-05
1.03627e-05
1.03623e-05
1.03618e-05
1.03614e-05
1.0361e-05
1.03606e-05
1.03602e-05
1.03598e-05
1.03595e-05
1.03592e-05
1.03589e-05
1.03586e-05
1.03584e-05
1.03581e-05
1.03579e-05
1.03577e-05
1.03576e-05
1.03574e-05
1.03573e-05
1.03572e-05
1.03572e-05
1.03571e-05
1.03571e-05
1.0357e-05
1.0357e-05
1.0357e-05
1.03571e-05
1.03571e-05
1.03571e-05
1.03572e-05
1.03572e-05
1.03573e-05
1.03574e-05
1.03574e-05
1.03575e-05
1.03576e-05
1.03577e-05
1.03578e-05
1.03579e-05
1.0358e-05
1.03581e-05
1.03582e-05
1.03584e-05
1.03585e-05
1.03586e-05
1.03587e-05
1.03588e-05
1.0359e-05
1.03621e-05
1.03631e-05
1.0364e-05
1.03651e-05
1.03661e-05
1.03673e-05
1.03684e-05
1.03696e-05
1.03709e-05
1.03721e-05
1.03734e-05
1.03748e-05
1.03761e-05
1.03775e-05
1.03789e-05
1.03803e-05
1.03817e-05
1.03831e-05
1.03845e-05
1.03858e-05
1.03871e-05
1.03884e-05
1.03896e-05
1.03908e-05
1.0392e-05
1.0393e-05
1.0394e-05
1.03949e-05
1.03958e-05
1.03965e-05
1.03972e-05
1.03978e-05
1.03983e-05
1.03986e-05
1.03989e-05
1.03991e-05
1.03991e-05
1.03991e-05
1.0399e-05
1.03987e-05
1.03984e-05
1.0398e-05
1.03975e-05
1.03969e-05
1.03962e-05
1.03954e-05
1.03946e-05
1.03937e-05
1.03927e-05
1.03917e-05
1.03907e-05
1.03896e-05
1.03885e-05
1.03873e-05
1.03862e-05
1.0385e-05
1.03838e-05
1.03827e-05
1.03815e-05
1.03804e-05
1.03793e-05
1.03782e-05
1.03772e-05
1.03762e-05
1.03752e-05
1.03743e-05
1.03734e-05
1.03726e-05
1.03718e-05
1.03711e-05
1.03704e-05
1.03698e-05
1.03693e-05
1.03688e-05
1.03684e-05
1.0368e-05
1.03677e-05
1.03674e-05
1.03672e-05
1.03671e-05
1.0367e-05
1.03669e-05
1.03669e-05
1.03669e-05
1.03669e-05
1.0367e-05
1.03671e-05
1.03673e-05
1.03674e-05
1.03676e-05
1.03678e-05
1.03681e-05
1.03683e-05
1.03686e-05
1.03688e-05
1.03691e-05
1.03694e-05
1.03697e-05
1.037e-05
1.03704e-05
1.03707e-05
1.0371e-05
1.03714e-05
1.03717e-05
1.03721e-05
1.03724e-05
1.03728e-05
1.03787e-05
1.0381e-05
1.03834e-05
1.0386e-05
1.03886e-05
1.03913e-05
1.03942e-05
1.03971e-05
1.04001e-05
1.04032e-05
1.04064e-05
1.04096e-05
1.04129e-05
1.04162e-05
1.04195e-05
1.04228e-05
1.04261e-05
1.04294e-05
1.04326e-05
1.04358e-05
1.04389e-05
1.04419e-05
1.04448e-05
1.04475e-05
1.04502e-05
1.04526e-05
1.04549e-05
1.0457e-05
1.04589e-05
1.04606e-05
1.04621e-05
1.04633e-05
1.04644e-05
1.04652e-05
1.04657e-05
1.0466e-05
1.04661e-05
1.04659e-05
1.04655e-05
1.04649e-05
1.0464e-05
1.0463e-05
1.04617e-05
1.04602e-05
1.04585e-05
1.04567e-05
1.04547e-05
1.04525e-05
1.04503e-05
1.04479e-05
1.04454e-05
1.04428e-05
1.04402e-05
1.04375e-05
1.04348e-05
1.04321e-05
1.04294e-05
1.04267e-05
1.0424e-05
1.04214e-05
1.04188e-05
1.04163e-05
1.04138e-05
1.04115e-05
1.04093e-05
1.04071e-05
1.04051e-05
1.04032e-05
1.04015e-05
1.03999e-05
1.03984e-05
1.0397e-05
1.03958e-05
1.03948e-05
1.03938e-05
1.03931e-05
1.03924e-05
1.03919e-05
1.03915e-05
1.03912e-05
1.03911e-05
1.0391e-05
1.03911e-05
1.03912e-05
1.03914e-05
1.03917e-05
1.03921e-05
1.03925e-05
1.0393e-05
1.03936e-05
1.03942e-05
1.03949e-05
1.03956e-05
1.03963e-05
1.03971e-05
1.03979e-05
1.03987e-05
1.03996e-05
1.04005e-05
1.04013e-05
1.04023e-05
1.04032e-05
1.04042e-05
1.04051e-05
1.04061e-05
1.04072e-05
1.04082e-05
1.04037e-05
1.04084e-05
1.04133e-05
1.04185e-05
1.0424e-05
1.04298e-05
1.04357e-05
1.0442e-05
1.04484e-05
1.04551e-05
1.04619e-05
1.04689e-05
1.04761e-05
1.04834e-05
1.04909e-05
1.04984e-05
1.05059e-05
1.05135e-05
1.05211e-05
1.05286e-05
1.05361e-05
1.05434e-05
1.05506e-05
1.05575e-05
1.05642e-05
1.05705e-05
1.05766e-05
1.05823e-05
1.05876e-05
1.05925e-05
1.0597e-05
1.0601e-05
1.06046e-05
1.06077e-05
1.06102e-05
1.06122e-05
1.06138e-05
1.06147e-05
1.06151e-05
1.0615e-05
1.06144e-05
1.06133e-05
1.06117e-05
1.06095e-05
1.06069e-05
1.06039e-05
1.06004e-05
1.05965e-05
1.05922e-05
1.05876e-05
1.05827e-05
1.05775e-05
1.05721e-05
1.05665e-05
1.05607e-05
1.05547e-05
1.05487e-05
1.05426e-05
1.05365e-05
1.05305e-05
1.05244e-05
1.05184e-05
1.05126e-05
1.05069e-05
1.05013e-05
1.0496e-05
1.04908e-05
1.04859e-05
1.04813e-05
1.04769e-05
1.04728e-05
1.0469e-05
1.04655e-05
1.04623e-05
1.04595e-05
1.0457e-05
1.04548e-05
1.04529e-05
1.04513e-05
1.04501e-05
1.04492e-05
1.04486e-05
1.04482e-05
1.04482e-05
1.04483e-05
1.04486e-05
1.04492e-05
1.045e-05
1.0451e-05
1.04522e-05
1.04535e-05
1.0455e-05
1.04566e-05
1.04583e-05
1.04602e-05
1.04621e-05
1.04641e-05
1.04663e-05
1.04684e-05
1.04707e-05
1.0473e-05
1.04753e-05
1.04778e-05
1.04802e-05
1.04827e-05
1.04853e-05
1.04879e-05
1.04906e-05
1.04934e-05
1.04962e-05
1.04768e-05
1.04876e-05
1.0499e-05
1.0511e-05
1.05236e-05
1.05367e-05
1.05504e-05
1.05646e-05
1.05792e-05
1.05943e-05
1.06096e-05
1.06253e-05
1.06411e-05
1.06572e-05
1.06734e-05
1.06897e-05
1.0706e-05
1.07222e-05
1.07383e-05
1.07542e-05
1.07699e-05
1.07851e-05
1.07999e-05
1.08142e-05
1.08279e-05
1.08408e-05
1.0853e-05
1.08644e-05
1.08749e-05
1.08844e-05
1.0893e-05
1.09006e-05
1.09072e-05
1.09128e-05
1.09173e-05
1.09207e-05
1.0923e-05
1.09243e-05
1.09243e-05
1.09234e-05
1.09216e-05
1.09187e-05
1.09148e-05
1.09098e-05
1.0904e-05
1.08972e-05
1.08896e-05
1.08812e-05
1.08721e-05
1.08623e-05
1.08519e-05
1.0841e-05
1.08297e-05
1.08179e-05
1.08058e-05
1.07935e-05
1.0781e-05
1.07683e-05
1.07557e-05
1.0743e-05
1.07305e-05
1.07181e-05
1.0706e-05
1.06941e-05
1.06826e-05
1.06715e-05
1.06609e-05
1.06507e-05
1.06412e-05
1.06322e-05
1.06238e-05
1.06162e-05
1.06092e-05
1.06028e-05
1.05973e-05
1.05924e-05
1.05882e-05
1.05848e-05
1.05821e-05
1.05801e-05
1.05788e-05
1.05781e-05
1.05781e-05
1.05785e-05
1.05794e-05
1.05809e-05
1.05829e-05
1.05854e-05
1.05883e-05
1.05915e-05
1.05952e-05
1.05991e-05
1.06034e-05
1.06079e-05
1.06127e-05
1.06176e-05
1.06228e-05
1.06282e-05
1.06337e-05
1.06393e-05
1.06451e-05
1.0651e-05
1.06571e-05
1.06632e-05
1.06695e-05
1.0676e-05
1.06825e-05
1.06893e-05
1.06961e-05
1.07032e-05
1.06423e-05
1.06664e-05
1.06916e-05
1.07178e-05
1.07451e-05
1.07734e-05
1.08026e-05
1.08325e-05
1.08631e-05
1.08943e-05
1.09259e-05
1.09578e-05
1.099e-05
1.10221e-05
1.10543e-05
1.10862e-05
1.11179e-05
1.11492e-05
1.11799e-05
1.12101e-05
1.12395e-05
1.12679e-05
1.12953e-05
1.13213e-05
1.13459e-05
1.1369e-05
1.13904e-05
1.14101e-05
1.14279e-05
1.14439e-05
1.1458e-05
1.14701e-05
1.14803e-05
1.14886e-05
1.1495e-05
1.14993e-05
1.15018e-05
1.1502e-05
1.15007e-05
1.14976e-05
1.14928e-05
1.1486e-05
1.14775e-05
1.14673e-05
1.14555e-05
1.14421e-05
1.14272e-05
1.1411e-05
1.13936e-05
1.1375e-05
1.13553e-05
1.13348e-05
1.13134e-05
1.12913e-05
1.12687e-05
1.12457e-05
1.12223e-05
1.11987e-05
1.11751e-05
1.11516e-05
1.11283e-05
1.11052e-05
1.10827e-05
1.10606e-05
1.10393e-05
1.10187e-05
1.09989e-05
1.09802e-05
1.09625e-05
1.09459e-05
1.09305e-05
1.09165e-05
1.09038e-05
1.08925e-05
1.08826e-05
1.08742e-05
1.08672e-05
1.08618e-05
1.08578e-05
1.08553e-05
1.08543e-05
1.08547e-05
1.08558e-05
1.08583e-05
1.08619e-05
1.08665e-05
1.08722e-05
1.08788e-05
1.08863e-05
1.08945e-05
1.09034e-05
1.09131e-05
1.09232e-05
1.0934e-05
1.09452e-05
1.09568e-05
1.09689e-05
1.09813e-05
1.0994e-05
1.10071e-05
1.10204e-05
1.1034e-05
1.10479e-05
1.1062e-05
1.10763e-05
1.10909e-05
1.11058e-05
1.11209e-05
1.11363e-05
1.1152e-05
1.0994e-05
1.10428e-05
1.10932e-05
1.11452e-05
1.11988e-05
1.12537e-05
1.13098e-05
1.13668e-05
1.14243e-05
1.1482e-05
1.15395e-05
1.15965e-05
1.16527e-05
1.1708e-05
1.17621e-05
1.1815e-05
1.18664e-05
1.19162e-05
1.19643e-05
1.20104e-05
1.20546e-05
1.20965e-05
1.21361e-05
1.21732e-05
1.22077e-05
1.22393e-05
1.2268e-05
1.22938e-05
1.23164e-05
1.2336e-05
1.23525e-05
1.2366e-05
1.23765e-05
1.23842e-05
1.23893e-05
1.23912e-05
1.23904e-05
1.23871e-05
1.23812e-05
1.2373e-05
1.23628e-05
1.23499e-05
1.23347e-05
1.23171e-05
1.22974e-05
1.22757e-05
1.2252e-05
1.22266e-05
1.21996e-05
1.2171e-05
1.21411e-05
1.21098e-05
1.20774e-05
1.2044e-05
1.20097e-05
1.19746e-05
1.1939e-05
1.1903e-05
1.18667e-05
1.18304e-05
1.17942e-05
1.17584e-05
1.17231e-05
1.16885e-05
1.16549e-05
1.16224e-05
1.15914e-05
1.15619e-05
1.15341e-05
1.15083e-05
1.14847e-05
1.14632e-05
1.14441e-05
1.14275e-05
1.14134e-05
1.14019e-05
1.1393e-05
1.13867e-05
1.1383e-05
1.13825e-05
1.13838e-05
1.1387e-05
1.13927e-05
1.14005e-05
1.14102e-05
1.14218e-05
1.14352e-05
1.145e-05
1.14663e-05
1.14838e-05
1.15025e-05
1.15222e-05
1.15428e-05
1.15642e-05
1.15863e-05
1.1609e-05
1.16323e-05
1.16561e-05
1.16803e-05
1.17048e-05
1.17298e-05
1.1755e-05
1.17806e-05
1.18065e-05
1.18328e-05
1.18593e-05
1.18862e-05
1.19135e-05
1.19411e-05
1.19692e-05
1.16676e-05
1.17539e-05
1.1841e-05
1.19287e-05
1.20167e-05
1.21047e-05
1.21923e-05
1.22791e-05
1.23645e-05
1.24481e-05
1.25294e-05
1.26079e-05
1.26833e-05
1.27554e-05
1.2824e-05
1.28889e-05
1.29501e-05
1.30074e-05
1.30608e-05
1.31103e-05
1.31562e-05
1.31984e-05
1.3237e-05
1.3272e-05
1.33031e-05
1.33303e-05
1.33538e-05
1.33735e-05
1.33896e-05
1.34018e-05
1.34104e-05
1.34155e-05
1.3417e-05
1.34162e-05
1.34131e-05
1.34071e-05
1.33983e-05
1.3387e-05
1.3374e-05
1.33589e-05
1.33414e-05
1.33216e-05
1.32996e-05
1.32755e-05
1.32496e-05
1.32219e-05
1.31925e-05
1.31616e-05
1.31294e-05
1.30957e-05
1.30607e-05
1.30246e-05
1.29875e-05
1.29496e-05
1.29108e-05
1.28712e-05
1.28309e-05
1.27901e-05
1.27491e-05
1.2708e-05
1.26669e-05
1.26262e-05
1.25858e-05
1.25462e-05
1.25075e-05
1.247e-05
1.24339e-05
1.23996e-05
1.23673e-05
1.23373e-05
1.231e-05
1.22856e-05
1.22645e-05
1.22468e-05
1.22327e-05
1.22221e-05
1.22153e-05
1.22133e-05
1.22145e-05
1.22186e-05
1.22263e-05
1.22373e-05
1.22513e-05
1.22681e-05
1.22876e-05
1.23094e-05
1.23332e-05
1.2359e-05
1.23864e-05
1.24151e-05
1.24451e-05
1.2476e-05
1.25078e-05
1.25403e-05
1.25733e-05
1.26067e-05
1.26404e-05
1.26744e-05
1.27088e-05
1.27433e-05
1.27781e-05
1.28128e-05
1.28476e-05
1.28824e-05
1.29173e-05
1.29522e-05
1.2987e-05
1.30219e-05
1.30567e-05
1.30914e-05
1.2615e-05
1.27343e-05
1.28514e-05
1.29657e-05
1.30767e-05
1.31842e-05
1.32883e-05
1.33896e-05
1.34868e-05
1.35785e-05
1.36639e-05
1.37423e-05
1.38137e-05
1.38781e-05
1.39357e-05
1.39865e-05
1.40311e-05
1.40698e-05
1.41028e-05
1.41304e-05
1.41526e-05
1.41697e-05
1.41822e-05
1.41908e-05
1.41958e-05
1.4197e-05
1.41961e-05
1.41933e-05
1.41883e-05
1.4181e-05
1.41718e-05
1.41605e-05
1.41473e-05
1.41325e-05
1.41167e-05
1.41003e-05
1.4084e-05
1.4065e-05
1.40443e-05
1.40241e-05
1.40039e-05
1.39826e-05
1.39604e-05
1.39376e-05
1.39143e-05
1.38903e-05
1.38658e-05
1.38411e-05
1.38158e-05
1.379e-05
1.37637e-05
1.37374e-05
1.37107e-05
1.36832e-05
1.3655e-05
1.36263e-05
1.35974e-05
1.35682e-05
1.35386e-05
1.35086e-05
1.34784e-05
1.34481e-05
1.34181e-05
1.33885e-05
1.33597e-05
1.33319e-05
1.33053e-05
1.32802e-05
1.32571e-05
1.32361e-05
1.32175e-05
1.32015e-05
1.31885e-05
1.31786e-05
1.31719e-05
1.3169e-05
1.31694e-05
1.31728e-05
1.31797e-05
1.31903e-05
1.32044e-05
1.32213e-05
1.32411e-05
1.32637e-05
1.32885e-05
1.33151e-05
1.33432e-05
1.33724e-05
1.34022e-05
1.34325e-05
1.34632e-05
1.3494e-05
1.35245e-05
1.35545e-05
1.35839e-05
1.36128e-05
1.36412e-05
1.36688e-05
1.36953e-05
1.37206e-05
1.37448e-05
1.37679e-05
1.37902e-05
1.38117e-05
1.38323e-05
1.3852e-05
1.38709e-05
1.38891e-05
1.39065e-05
1.39234e-05
1.39397e-05
1.3899e-05
1.40165e-05
1.41239e-05
1.42207e-05
1.43067e-05
1.43819e-05
1.44465e-05
1.45005e-05
1.45454e-05
1.45823e-05
1.46123e-05
1.46359e-05
1.46534e-05
1.46656e-05
1.4673e-05
1.46756e-05
1.46749e-05
1.46719e-05
1.46659e-05
1.46572e-05
1.46461e-05
1.46328e-05
1.46177e-05
1.46011e-05
1.45833e-05
1.45643e-05
1.45448e-05
1.4525e-05
1.45045e-05
1.44844e-05
1.44633e-05
1.44403e-05
1.44181e-05
1.43953e-05
1.43725e-05
1.43509e-05
1.4329e-05
1.43057e-05
1.42818e-05
1.4259e-05
1.42369e-05
1.42146e-05
1.41921e-05
1.41695e-05
1.41467e-05
1.41247e-05
1.41033e-05
1.40818e-05
1.40604e-05
1.404e-05
1.40203e-05
1.40006e-05
1.39812e-05
1.39629e-05
1.39458e-05
1.39291e-05
1.39124e-05
1.38962e-05
1.38806e-05
1.38659e-05
1.3852e-05
1.38389e-05
1.38267e-05
1.38155e-05
1.38053e-05
1.37962e-05
1.37885e-05
1.37821e-05
1.37773e-05
1.37745e-05
1.37739e-05
1.37749e-05
1.37782e-05
1.37839e-05
1.3792e-05
1.3802e-05
1.38131e-05
1.38279e-05
1.38438e-05
1.38608e-05
1.3879e-05
1.38982e-05
1.39178e-05
1.39376e-05
1.39575e-05
1.39772e-05
1.39963e-05
1.40148e-05
1.40329e-05
1.40504e-05
1.40667e-05
1.40819e-05
1.40964e-05
1.41103e-05
1.41234e-05
1.41353e-05
1.41461e-05
1.41562e-05
1.4166e-05
1.41754e-05
1.41845e-05
1.4193e-05
1.4201e-05
1.42084e-05
1.42153e-05
1.42219e-05
1.42281e-05
1.42341e-05
1.42398e-05
1.42451e-05
1.425e-05
1.42544e-05
1.42585e-05
1.48882e-05
1.49309e-05
1.49647e-05
1.49905e-05
1.50089e-05
1.50207e-05
1.50263e-05
1.50264e-05
1.50238e-05
1.50177e-05
1.50081e-05
1.49958e-05
1.49812e-05
1.49647e-05
1.49465e-05
1.4927e-05
1.49066e-05
1.48857e-05
1.48641e-05
1.48421e-05
1.48202e-05
1.4798e-05
1.4773e-05
1.47483e-05
1.47245e-05
1.47005e-05
1.46749e-05
1.46496e-05
1.46257e-05
1.46021e-05
1.45769e-05
1.45515e-05
1.45265e-05
1.4501e-05
1.44762e-05
1.44531e-05
1.44291e-05
1.44042e-05
1.43793e-05
1.43554e-05
1.43331e-05
1.43109e-05
1.4288e-05
1.42649e-05
1.42432e-05
1.42227e-05
1.42018e-05
1.41813e-05
1.41624e-05
1.41437e-05
1.41253e-05
1.4108e-05
1.40918e-05
1.40761e-05
1.40611e-05
1.4047e-05
1.40337e-05
1.40212e-05
1.40096e-05
1.3999e-05
1.39898e-05
1.39821e-05
1.3976e-05
1.39716e-05
1.39688e-05
1.39681e-05
1.39687e-05
1.39705e-05
1.39743e-05
1.39809e-05
1.39891e-05
1.39987e-05
1.40095e-05
1.40221e-05
1.40365e-05
1.4051e-05
1.40655e-05
1.40821e-05
1.40999e-05
1.41172e-05
1.41346e-05
1.4152e-05
1.41684e-05
1.4184e-05
1.41988e-05
1.42127e-05
1.4226e-05
1.42383e-05
1.42492e-05
1.42594e-05
1.4269e-05
1.42779e-05
1.42857e-05
1.42924e-05
1.42986e-05
1.43044e-05
1.43097e-05
1.43146e-05
1.43189e-05
1.43226e-05
1.43255e-05
1.43278e-05
1.43299e-05
1.43317e-05
1.43333e-05
1.43347e-05
1.43358e-05
1.43366e-05
1.43372e-05
1.43378e-05
1.43384e-05
1.4339e-05
1.43395e-05
1.53058e-05
1.53099e-05
1.53088e-05
1.53041e-05
1.52955e-05
1.52835e-05
1.52689e-05
1.52524e-05
1.52338e-05
1.5214e-05
1.51934e-05
1.51723e-05
1.51501e-05
1.51278e-05
1.51055e-05
1.50787e-05
1.50527e-05
1.50275e-05
1.50013e-05
1.49747e-05
1.49481e-05
1.49218e-05
1.48952e-05
1.48685e-05
1.48415e-05
1.48143e-05
1.47875e-05
1.47608e-05
1.47338e-05
1.47069e-05
1.46807e-05
1.46548e-05
1.46286e-05
1.46026e-05
1.45766e-05
1.45504e-05
1.45255e-05
1.45015e-05
1.44769e-05
1.44517e-05
1.44264e-05
1.44027e-05
1.43806e-05
1.43578e-05
1.43342e-05
1.43118e-05
1.42911e-05
1.42701e-05
1.42494e-05
1.42306e-05
1.4212e-05
1.41934e-05
1.41771e-05
1.41619e-05
1.41461e-05
1.41315e-05
1.4119e-05
1.41076e-05
1.40957e-05
1.40843e-05
1.40748e-05
1.40668e-05
1.406e-05
1.40545e-05
1.40504e-05
1.40483e-05
1.40483e-05
1.40492e-05
1.40516e-05
1.40555e-05
1.40611e-05
1.40688e-05
1.40782e-05
1.40889e-05
1.41009e-05
1.41143e-05
1.41288e-05
1.41432e-05
1.41582e-05
1.41742e-05
1.419e-05
1.4206e-05
1.42224e-05
1.42375e-05
1.42517e-05
1.42648e-05
1.42771e-05
1.42888e-05
1.42995e-05
1.43087e-05
1.43177e-05
1.43262e-05
1.43335e-05
1.43399e-05
1.43462e-05
1.43521e-05
1.43572e-05
1.43609e-05
1.4364e-05
1.43671e-05
1.43698e-05
1.4372e-05
1.43737e-05
1.43752e-05
1.43764e-05
1.43774e-05
1.43782e-05
1.43787e-05
1.43789e-05
1.43789e-05
1.43789e-05
1.43789e-05
1.43787e-05
1.43784e-05
1.4378e-05
1.54967e-05
1.54785e-05
1.54589e-05
1.54384e-05
1.54169e-05
1.53944e-05
1.53724e-05
1.53462e-05
1.53192e-05
1.5293e-05
1.52668e-05
1.52403e-05
1.52136e-05
1.51869e-05
1.51599e-05
1.5132e-05
1.51042e-05
1.50768e-05
1.50492e-05
1.50215e-05
1.49941e-05
1.49669e-05
1.49396e-05
1.49123e-05
1.48849e-05
1.48577e-05
1.48307e-05
1.48037e-05
1.47765e-05
1.47496e-05
1.47232e-05
1.46968e-05
1.46705e-05
1.46444e-05
1.46182e-05
1.4592e-05
1.45671e-05
1.4543e-05
1.45183e-05
1.44932e-05
1.44678e-05
1.44447e-05
1.44226e-05
1.43995e-05
1.43757e-05
1.43543e-05
1.43337e-05
1.43123e-05
1.42923e-05
1.4274e-05
1.42551e-05
1.42373e-05
1.42216e-05
1.42061e-05
1.41899e-05
1.4176e-05
1.41632e-05
1.4152e-05
1.41397e-05
1.41281e-05
1.41186e-05
1.41104e-05
1.41038e-05
1.40991e-05
1.40959e-05
1.4095e-05
1.40956e-05
1.40972e-05
1.41004e-05
1.41049e-05
1.4111e-05
1.41186e-05
1.41277e-05
1.41379e-05
1.41493e-05
1.41616e-05
1.41744e-05
1.41876e-05
1.42015e-05
1.42155e-05
1.42293e-05
1.4244e-05
1.42581e-05
1.42713e-05
1.42844e-05
1.4296e-05
1.43064e-05
1.43172e-05
1.43279e-05
1.43369e-05
1.43446e-05
1.43527e-05
1.43604e-05
1.43671e-05
1.43731e-05
1.43785e-05
1.43826e-05
1.43871e-05
1.4391e-05
1.43942e-05
1.43969e-05
1.43991e-05
1.44009e-05
1.44021e-05
1.44027e-05
1.44031e-05
1.44035e-05
1.44035e-05
1.44033e-05
1.44028e-05
1.44021e-05
1.44011e-05
1.44e-05
1.43989e-05
1.43979e-05
1.4397e-05
1.57196e-05
1.57038e-05
1.56856e-05
1.56659e-05
1.56453e-05
1.56234e-05
1.56018e-05
1.55762e-05
1.55497e-05
1.55237e-05
1.54978e-05
1.54717e-05
1.54456e-05
1.54194e-05
1.5392e-05
1.53642e-05
1.53367e-05
1.53094e-05
1.5282e-05
1.52547e-05
1.52274e-05
1.51998e-05
1.51718e-05
1.5144e-05
1.51163e-05
1.50885e-05
1.50608e-05
1.50333e-05
1.50059e-05
1.49786e-05
1.49512e-05
1.49239e-05
1.48968e-05
1.48699e-05
1.48429e-05
1.48158e-05
1.47891e-05
1.47627e-05
1.47363e-05
1.47101e-05
1.46842e-05
1.46581e-05
1.46321e-05
1.46077e-05
1.45838e-05
1.45594e-05
1.45345e-05
1.45094e-05
1.4487e-05
1.4465e-05
1.44418e-05
1.44184e-05
1.43981e-05
1.43776e-05
1.43561e-05
1.43372e-05
1.4319e-05
1.43001e-05
1.42833e-05
1.42681e-05
1.42522e-05
1.42362e-05
1.42224e-05
1.42092e-05
1.41974e-05
1.41854e-05
1.41744e-05
1.41647e-05
1.41569e-05
1.41507e-05
1.41459e-05
1.41425e-05
1.41408e-05
1.41408e-05
1.41418e-05
1.41441e-05
1.4148e-05
1.41533e-05
1.41601e-05
1.41681e-05
1.41771e-05
1.4187e-05
1.41976e-05
1.42086e-05
1.42201e-05
1.42322e-05
1.4244e-05
1.4256e-05
1.4269e-05
1.42814e-05
1.42926e-05
1.4304e-05
1.43145e-05
1.43243e-05
1.43344e-05
1.43452e-05
1.43543e-05
1.43625e-05
1.43697e-05
1.43765e-05
1.43846e-05
1.43913e-05
1.43971e-05
1.44023e-05
1.44067e-05
1.44102e-05
1.44135e-05
1.44168e-05
1.44193e-05
1.44207e-05
1.4422e-05
1.44231e-05
1.44241e-05
1.44247e-05
1.44247e-05
1.44245e-05
1.44241e-05
1.44238e-05
1.44233e-05
1.44228e-05
1.4422e-05
1.4421e-05
1.442e-05
1.57963e-05
1.57708e-05
1.57449e-05
1.57195e-05
1.56943e-05
1.5669e-05
1.56439e-05
1.56173e-05
1.55901e-05
1.5563e-05
1.55361e-05
1.55092e-05
1.54825e-05
1.54554e-05
1.54278e-05
1.54e-05
1.53724e-05
1.53449e-05
1.53174e-05
1.52899e-05
1.52623e-05
1.52343e-05
1.52064e-05
1.51786e-05
1.51509e-05
1.51232e-05
1.50956e-05
1.50683e-05
1.50409e-05
1.50136e-05
1.49865e-05
1.49595e-05
1.49328e-05
1.49062e-05
1.48796e-05
1.48531e-05
1.48269e-05
1.48008e-05
1.47748e-05
1.47492e-05
1.47237e-05
1.4698e-05
1.46726e-05
1.46488e-05
1.46253e-05
1.46014e-05
1.45767e-05
1.45524e-05
1.45313e-05
1.45095e-05
1.44862e-05
1.4464e-05
1.44445e-05
1.4424e-05
1.44034e-05
1.43854e-05
1.43671e-05
1.43492e-05
1.43331e-05
1.43183e-05
1.4302e-05
1.42861e-05
1.42721e-05
1.42588e-05
1.42462e-05
1.42346e-05
1.42239e-05
1.42144e-05
1.42064e-05
1.42001e-05
1.41952e-05
1.41916e-05
1.41894e-05
1.41889e-05
1.41894e-05
1.41908e-05
1.41934e-05
1.41973e-05
1.42023e-05
1.42084e-05
1.42155e-05
1.42235e-05
1.42321e-05
1.42412e-05
1.42508e-05
1.42607e-05
1.42707e-05
1.4281e-05
1.42918e-05
1.43032e-05
1.43133e-05
1.43229e-05
1.43325e-05
1.43417e-05
1.43513e-05
1.43616e-05
1.43708e-05
1.43793e-05
1.4387e-05
1.43932e-05
1.44016e-05
1.44093e-05
1.44158e-05
1.44218e-05
1.44267e-05
1.44303e-05
1.44338e-05
1.4438e-05
1.44415e-05
1.44436e-05
1.4445e-05
1.44466e-05
1.44478e-05
1.44483e-05
1.44484e-05
1.44483e-05
1.44481e-05
1.44477e-05
1.44471e-05
1.44462e-05
1.44451e-05
1.44439e-05
1.44426e-05
1.58345e-05
1.58084e-05
1.57816e-05
1.5755e-05
1.57286e-05
1.57025e-05
1.56763e-05
1.56494e-05
1.56221e-05
1.55949e-05
1.55676e-05
1.55403e-05
1.55131e-05
1.54855e-05
1.54576e-05
1.54298e-05
1.54021e-05
1.53745e-05
1.5347e-05
1.53196e-05
1.52921e-05
1.52645e-05
1.5237e-05
1.52096e-05
1.51823e-05
1.51551e-05
1.5128e-05
1.51011e-05
1.50742e-05
1.50475e-05
1.50209e-05
1.49945e-05
1.49685e-05
1.49425e-05
1.49165e-05
1.48907e-05
1.48653e-05
1.48398e-05
1.48144e-05
1.47896e-05
1.47648e-05
1.47397e-05
1.47151e-05
1.4692e-05
1.46693e-05
1.46459e-05
1.46214e-05
1.45987e-05
1.45784e-05
1.45569e-05
1.45338e-05
1.45134e-05
1.44944e-05
1.44739e-05
1.4455e-05
1.44375e-05
1.44191e-05
1.44025e-05
1.43868e-05
1.43725e-05
1.43562e-05
1.43402e-05
1.4326e-05
1.43127e-05
1.42999e-05
1.42883e-05
1.4278e-05
1.42688e-05
1.4261e-05
1.42545e-05
1.42494e-05
1.42454e-05
1.42424e-05
1.42407e-05
1.42403e-05
1.42407e-05
1.42421e-05
1.42447e-05
1.42483e-05
1.42529e-05
1.42583e-05
1.42643e-05
1.42709e-05
1.42779e-05
1.42853e-05
1.42931e-05
1.43011e-05
1.43096e-05
1.43184e-05
1.43276e-05
1.43371e-05
1.43457e-05
1.4354e-05
1.43624e-05
1.43715e-05
1.43811e-05
1.43902e-05
1.43987e-05
1.44071e-05
1.44136e-05
1.44211e-05
1.44295e-05
1.44368e-05
1.44435e-05
1.44493e-05
1.44532e-05
1.4457e-05
1.44619e-05
1.44659e-05
1.44686e-05
1.44702e-05
1.4472e-05
1.44735e-05
1.44745e-05
1.44749e-05
1.4475e-05
1.44748e-05
1.44745e-05
1.44738e-05
1.4473e-05
1.44721e-05
1.4471e-05
1.44699e-05
1.58643e-05
1.58377e-05
1.58107e-05
1.57835e-05
1.57564e-05
1.57295e-05
1.57024e-05
1.5675e-05
1.56474e-05
1.56199e-05
1.55925e-05
1.55653e-05
1.5538e-05
1.55106e-05
1.5483e-05
1.54556e-05
1.54282e-05
1.54009e-05
1.53739e-05
1.53468e-05
1.53198e-05
1.52928e-05
1.52659e-05
1.52392e-05
1.52125e-05
1.5186e-05
1.51597e-05
1.51334e-05
1.51073e-05
1.50813e-05
1.50555e-05
1.50299e-05
1.50046e-05
1.49794e-05
1.49542e-05
1.49294e-05
1.49048e-05
1.48799e-05
1.48555e-05
1.48317e-05
1.48076e-05
1.47833e-05
1.47596e-05
1.47376e-05
1.47157e-05
1.46928e-05
1.4669e-05
1.4648e-05
1.46282e-05
1.46068e-05
1.45849e-05
1.45658e-05
1.45469e-05
1.45276e-05
1.45101e-05
1.44928e-05
1.44751e-05
1.44592e-05
1.44436e-05
1.44298e-05
1.44138e-05
1.43979e-05
1.43837e-05
1.43704e-05
1.43578e-05
1.43466e-05
1.43366e-05
1.43274e-05
1.43193e-05
1.43124e-05
1.43068e-05
1.43023e-05
1.42988e-05
1.42963e-05
1.42949e-05
1.42945e-05
1.42948e-05
1.42959e-05
1.42978e-05
1.43005e-05
1.4304e-05
1.43081e-05
1.43128e-05
1.4318e-05
1.43235e-05
1.43293e-05
1.43356e-05
1.43423e-05
1.43495e-05
1.4357e-05
1.43651e-05
1.4373e-05
1.43803e-05
1.43874e-05
1.43957e-05
1.44051e-05
1.44139e-05
1.44223e-05
1.44306e-05
1.44382e-05
1.44446e-05
1.44527e-05
1.44609e-05
1.44683e-05
1.44751e-05
1.44795e-05
1.44836e-05
1.44889e-05
1.44936e-05
1.44969e-05
1.44992e-05
1.45013e-05
1.45032e-05
1.45045e-05
1.45053e-05
1.45057e-05
1.45057e-05
1.45055e-05
1.45051e-05
1.45044e-05
1.45034e-05
1.45023e-05
1.4501e-05
1.44996e-05
1.44982e-05
1.58888e-05
1.5861e-05
1.58332e-05
1.58055e-05
1.57781e-05
1.57509e-05
1.57236e-05
1.56962e-05
1.56688e-05
1.56414e-05
1.56143e-05
1.55873e-05
1.55604e-05
1.55333e-05
1.55063e-05
1.54794e-05
1.54526e-05
1.54259e-05
1.53994e-05
1.5373e-05
1.53466e-05
1.53203e-05
1.52942e-05
1.52682e-05
1.52423e-05
1.52166e-05
1.51911e-05
1.51657e-05
1.51404e-05
1.51153e-05
1.50904e-05
1.50657e-05
1.50414e-05
1.50169e-05
1.49927e-05
1.49689e-05
1.49452e-05
1.49211e-05
1.48978e-05
1.48751e-05
1.48519e-05
1.48284e-05
1.48059e-05
1.47852e-05
1.47639e-05
1.47415e-05
1.47191e-05
1.46994e-05
1.468e-05
1.46589e-05
1.46389e-05
1.46206e-05
1.46017e-05
1.45842e-05
1.45679e-05
1.45506e-05
1.45337e-05
1.45182e-05
1.45027e-05
1.44887e-05
1.44735e-05
1.44584e-05
1.44443e-05
1.44311e-05
1.44191e-05
1.44081e-05
1.43982e-05
1.43891e-05
1.43809e-05
1.43737e-05
1.43677e-05
1.43626e-05
1.43585e-05
1.43552e-05
1.43527e-05
1.4351e-05
1.43502e-05
1.43502e-05
1.43507e-05
1.43519e-05
1.43537e-05
1.43562e-05
1.43591e-05
1.43625e-05
1.43662e-05
1.43703e-05
1.43748e-05
1.43798e-05
1.43854e-05
1.43915e-05
1.4398e-05
1.4405e-05
1.44114e-05
1.44179e-05
1.44248e-05
1.44338e-05
1.44425e-05
1.44505e-05
1.44586e-05
1.44667e-05
1.44734e-05
1.44799e-05
1.44887e-05
1.4497e-05
1.45046e-05
1.451e-05
1.45146e-05
1.45199e-05
1.45252e-05
1.45292e-05
1.45321e-05
1.45348e-05
1.45372e-05
1.4539e-05
1.45403e-05
1.4541e-05
1.45414e-05
1.45413e-05
1.45411e-05
1.45406e-05
1.45398e-05
1.45389e-05
1.45378e-05
1.45366e-05
1.45354e-05
1.59102e-05
1.58814e-05
1.5853e-05
1.58249e-05
1.57973e-05
1.57699e-05
1.57427e-05
1.57155e-05
1.56884e-05
1.56614e-05
1.56346e-05
1.5608e-05
1.55815e-05
1.5555e-05
1.55286e-05
1.55023e-05
1.54762e-05
1.54502e-05
1.54243e-05
1.53986e-05
1.5373e-05
1.53475e-05
1.53222e-05
1.5297e-05
1.52719e-05
1.52471e-05
1.52225e-05
1.5198e-05
1.51737e-05
1.51495e-05
1.51256e-05
1.5102e-05
1.50785e-05
1.5055e-05
1.50318e-05
1.50092e-05
1.49863e-05
1.49631e-05
1.49413e-05
1.49196e-05
1.48973e-05
1.48746e-05
1.48538e-05
1.48341e-05
1.48134e-05
1.47917e-05
1.47711e-05
1.47525e-05
1.47335e-05
1.47132e-05
1.46948e-05
1.46768e-05
1.46592e-05
1.46428e-05
1.46276e-05
1.46104e-05
1.45938e-05
1.45787e-05
1.45636e-05
1.45492e-05
1.45349e-05
1.45206e-05
1.4507e-05
1.44944e-05
1.44828e-05
1.44721e-05
1.44623e-05
1.44533e-05
1.4445e-05
1.44375e-05
1.4431e-05
1.44254e-05
1.44206e-05
1.44166e-05
1.44133e-05
1.44107e-05
1.44088e-05
1.44076e-05