/*--------------------------------*- C++ -*----------------------------------*\
| =========                 |                                                 |
| \\      /  F ield         | OpenFOAM: The Open Source CFD Toolbox           |
|  \\    /   O peration     | Version:  v1706                                 |
|   \\  /    A nd           | Web:      www.OpenFOAM.com                      |
|    \\/     M anipulation  |                                                 |
\*---------------------------------------------------------------------------*/
FoamFile
{
    version     2.0;
    format      ascii;
    class       volScalarField;
    location    "1.8e-05";
    object      p;
}
// * * * * * * * * * * * * * * * * * * * * * * * * * * * * * * * * * * * * * //

dimensions      [1 -1 -2 0 0 0 0];


internalField   nonuniform List<scalar> 
29871
(
21.9144
21.9144
21.9144
21.9145
21.9145
21.9146
21.9146
21.9147
21.9147
21.9148
21.9148
21.9149
21.9149
21.915
21.915
21.9151
21.9151
21.9152
21.9152
21.9153
21.9153
21.9154
21.9154
21.9155
21.9155
21.9155
21.9156
21.9156
21.9156
21.9156
21.9157
21.9157
21.9157
21.9157
21.9157
21.9157
21.9157
21.9157
21.9157
21.9156
21.9156
21.9156
21.9156
21.9155
21.9155
21.9155
21.9154
21.9154
21.9154
21.9153
21.9153
21.9152
21.9152
21.9151
21.9151
21.915
21.915
21.9149
21.9149
21.9149
21.9148
21.9148
21.9147
21.9147
21.9147
21.9146
21.9146
21.9146
21.9146
21.9145
21.9145
21.9145
21.9145
21.9145
21.9144
21.9144
21.9144
21.9144
21.9144
21.9144
21.9144
21.9144
21.9144
21.9144
21.9144
21.9144
21.9144
21.9144
21.9144
21.9144
21.9144
21.9144
21.9144
21.9144
21.9144
21.9144
21.9144
21.9144
21.9145
21.9145
21.9145
21.9145
21.9145
21.9145
21.9145
21.9166
21.9168
21.9171
21.9173
21.9176
21.9179
21.9181
21.9184
21.9187
21.919
21.9193
21.9196
21.9199
21.9203
21.9206
21.9209
21.9212
21.9215
21.9218
21.9221
21.9224
21.9227
21.923
21.9232
21.9235
21.9237
21.9239
21.9241
21.9242
21.9244
21.9245
21.9246
21.9247
21.9248
21.9248
21.9248
21.9248
21.9247
21.9247
21.9246
21.9245
21.9243
21.9242
21.924
21.9238
21.9236
21.9234
21.9232
21.9229
21.9227
21.9224
21.9221
21.9219
21.9216
21.9213
21.9211
21.9208
21.9205
21.9203
21.92
21.9197
21.9195
21.9193
21.919
21.9188
21.9186
21.9184
21.9183
21.9181
21.9179
21.9178
21.9177
21.9176
21.9175
21.9174
21.9173
21.9172
21.9172
21.9171
21.9171
21.9171
21.9171
21.917
21.917
21.917
21.9171
21.9171
21.9171
21.9171
21.9171
21.9172
21.9172
21.9172
21.9173
21.9173
21.9174
21.9174
21.9175
21.9175
21.9176
21.9176
21.9177
21.9177
21.9178
21.9178
21.9218
21.9225
21.9232
21.9239
21.9247
21.9255
21.9263
21.9272
21.9281
21.929
21.9299
21.9309
21.9319
21.9329
21.9339
21.9349
21.936
21.937
21.938
21.939
21.9399
21.9409
21.9418
21.9427
21.9435
21.9443
21.945
21.9457
21.9463
21.9469
21.9474
21.9478
21.9482
21.9484
21.9486
21.9487
21.9488
21.9487
21.9486
21.9484
21.9482
21.9479
21.9475
21.947
21.9465
21.9459
21.9453
21.9446
21.9439
21.9431
21.9423
21.9415
21.9407
21.9398
21.9389
21.9381
21.9372
21.9363
21.9355
21.9346
21.9338
21.933
21.9322
21.9315
21.9308
21.9301
21.9294
21.9288
21.9283
21.9277
21.9273
21.9268
21.9264
21.926
21.9257
21.9254
21.9252
21.925
21.9248
21.9247
21.9246
21.9245
21.9245
21.9245
21.9245
21.9245
21.9245
21.9246
21.9247
21.9248
21.9249
21.925
21.9252
21.9253
21.9255
21.9256
21.9258
21.9259
21.9261
21.9263
21.9265
21.9267
21.9268
21.927
21.9272
21.9274
21.9354
21.9373
21.9392
21.9412
21.9433
21.9455
21.9479
21.9502
21.9527
21.9552
21.9578
21.9604
21.9631
21.9658
21.9685
21.9713
21.974
21.9767
21.9794
21.9821
21.9847
21.9872
21.9897
21.992
21.9943
21.9964
21.9984
22.0002
22.0019
22.0034
22.0047
22.0058
22.0068
22.0075
22.0081
22.0084
22.0085
22.0084
22.0082
22.0077
22.007
22.0061
22.0051
22.0039
22.0025
22.0009
21.9992
21.9974
21.9955
21.9935
21.9914
21.9892
21.987
21.9847
21.9824
21.9801
21.9778
21.9755
21.9732
21.971
21.9688
21.9666
21.9646
21.9626
21.9606
21.9588
21.9571
21.9554
21.9539
21.9525
21.9512
21.95
21.9489
21.948
21.9472
21.9464
21.9458
21.9453
21.9449
21.9446
21.9443
21.9442
21.9441
21.9441
21.9442
21.9443
21.9445
21.9447
21.945
21.9453
21.9457
21.9461
21.9465
21.947
21.9475
21.948
21.9485
21.949
21.9495
21.9501
21.9507
21.9513
21.9519
21.9525
21.9532
21.9538
21.9653
21.9697
21.9744
21.9793
21.9844
21.9897
21.9953
22.0011
22.0071
22.0133
22.0196
22.0262
22.0329
22.0397
22.0466
22.0536
22.0606
22.0676
22.0746
22.0815
22.0882
22.0948
22.1012
22.1074
22.1134
22.119
22.1244
22.1293
22.1339
22.1381
22.1419
22.1452
22.148
22.1504
22.1522
22.1535
22.1542
22.1545
22.1543
22.1535
22.1522
22.1504
22.1482
22.1455
22.1424
22.1388
22.1349
22.1307
22.1261
22.1212
22.1161
22.1107
22.1052
22.0995
22.0938
22.0879
22.0821
22.0762
22.0704
22.0647
22.0591
22.0536
22.0482
22.0431
22.0381
22.0334
22.0289
22.0247
22.0207
22.017
22.0135
22.0104
22.0075
22.0049
22.0027
22.0007
21.9989
21.9975
21.9963
21.9955
21.9948
21.9944
21.9942
21.9942
21.9944
21.9948
21.9953
21.996
21.9968
21.9977
21.9987
21.9999
22.0011
22.0025
22.0039
22.0053
22.0068
22.0084
22.01
22.0116
22.0133
22.0151
22.0168
22.0186
22.0205
22.0223
22.0243
22.0421
22.0531
22.0646
22.0768
22.0896
22.103
22.117
22.1314
22.1463
22.1616
22.1772
22.1932
22.2095
22.226
22.2427
22.2594
22.2762
22.2928
22.3094
22.3257
22.3417
22.3574
22.3726
22.3872
22.4012
22.4145
22.4269
22.4385
22.4492
22.4589
22.4675
22.475
22.4814
22.4866
22.4905
22.4932
22.4946
22.4948
22.494
22.4919
22.4886
22.484
22.4784
22.4718
22.4641
22.4555
22.446
22.4357
22.4247
22.413
22.4008
22.3882
22.3751
22.3617
22.3482
22.3344
22.3206
22.3069
22.2932
22.2796
22.2663
22.2533
22.2407
22.2285
22.2167
22.2055
22.1949
22.1849
22.1756
22.1669
22.159
22.1518
22.1453
22.1396
22.1345
22.1302
22.1266
22.1236
22.1213
22.1196
22.1185
22.1181
22.1181
22.1186
22.1195
22.1209
22.1226
22.1248
22.1273
22.1301
22.1332
22.1365
22.14
22.1438
22.1477
22.1517
22.1559
22.1603
22.1648
22.1694
22.1741
22.1789
22.1839
22.189
22.1942
22.1996
22.2051
22.1576
22.1801
22.204
22.2292
22.2557
22.2835
22.3125
22.3427
22.3741
22.4067
22.4405
22.4755
22.5115
22.5484
22.5862
22.6247
22.6637
22.7032
22.7429
22.7827
22.8224
22.8617
22.9003
22.938
22.9746
23.01
23.0439
23.0761
23.1066
23.1351
23.1615
23.1857
23.2074
23.2267
23.2433
23.2573
23.2684
23.2767
23.282
23.2844
23.2839
23.281
23.275
23.2662
23.2547
23.2406
23.2242
23.2054
23.1844
23.1615
23.1367
23.1102
23.0823
23.0532
23.0229
22.9919
22.9602
22.9282
22.8959
22.8637
22.8316
22.7999
22.7687
22.7383
22.7087
22.6801
22.6526
22.6263
22.6013
22.5776
22.5554
22.5347
22.5155
22.498
22.4821
22.4679
22.4555
22.4448
22.4357
22.4284
22.4228
22.4186
22.4161
22.4152
22.4154
22.4167
22.4192
22.4229
22.4276
22.4334
22.44
22.4475
22.4557
22.4646
22.4742
22.4843
22.495
22.5061
22.5177
22.5296
22.5419
22.5545
22.5674
22.5806
22.5941
22.6079
22.6219
22.6363
22.651
22.6661
22.5001
22.5523
22.6077
22.6666
22.7288
22.7945
22.8636
22.936
23.0112
23.089
23.1692
23.2513
23.3351
23.4206
23.5074
23.5953
23.6841
23.7734
23.8627
23.9515
24.0394
24.126
24.2111
24.2941
24.3746
24.4521
24.5261
24.5961
24.6617
24.7227
24.7788
24.8297
24.8752
24.9149
24.9486
24.9762
24.9974
25.0121
25.0202
25.022
25.0179
25.009
24.9932
24.9709
24.9429
24.9095
24.871
24.8277
24.7799
24.7279
24.6721
24.613
24.5509
24.4863
24.4196
24.3512
24.2815
24.2109
24.1399
24.0687
23.9979
23.9277
23.8587
23.7911
23.7254
23.6618
23.6007
23.5425
23.4874
23.4357
23.3877
23.3433
23.3028
23.2662
23.2336
23.2051
23.1804
23.1596
23.1427
23.1298
23.1203
23.1147
23.1129
23.1137
23.1175
23.1241
23.1335
23.1455
23.16
23.1768
23.1957
23.2165
23.2391
23.2632
23.2887
23.3155
23.3434
23.3724
23.4024
23.4332
23.4648
23.4973
23.5306
23.5648
23.5998
23.6357
23.6725
23.7103
23.7491
23.7891
23.3012
23.4247
23.5548
23.6915
23.8346
23.9838
24.1385
24.2988
24.4645
24.6357
24.8121
24.9933
25.1786
25.3675
25.5593
25.7532
25.9486
26.1448
26.3412
26.5374
26.7323
26.9246
27.1127
27.2949
27.4702
27.6375
27.7962
27.9457
28.085
28.2132
28.3297
28.4341
28.5262
28.6057
28.6723
28.7253
28.7645
28.7895
28.8018
28.7993
28.7849
28.7571
28.7151
28.66
28.5927
28.5137
28.4235
28.3229
28.2126
28.0935
27.9664
27.8323
27.6925
27.5479
27.3994
27.2479
27.0944
26.9401
26.7859
26.6327
26.4813
26.3325
26.187
26.0455
25.9088
25.7771
25.6512
25.5313
25.4179
25.3114
25.2123
25.121
25.038
24.9635
24.8978
24.8408
24.7929
24.7547
24.7254
24.7044
24.6931
24.6901
24.6933
24.7037
24.7208
24.7445
24.7745
24.8106
24.8523
24.8992
24.9508
25.0069
25.0672
25.1313
25.1989
25.2697
25.3434
25.4201
25.4994
25.5813
25.6656
25.7521
25.8406
25.9312
26.0239
26.1186
26.2154
26.3143
26.4154
26.5188
25.1018
25.3712
25.6558
25.9559
26.2718
26.6043
26.9531
27.3164
27.6918
28.0764
28.4682
28.8654
29.2668
29.6712
30.0775
30.4847
30.8922
31.2985
31.7017
32.0991
32.4881
32.8674
33.236
33.5926
33.9352
34.2614
34.5686
34.8545
35.1176
35.3573
35.5731
35.7636
35.9276
36.0654
36.1775
36.2607
36.3161
36.3434
36.3379
36.3105
36.2685
36.1984
36.1
35.9763
35.8293
35.6612
35.4738
35.268
35.0449
34.8063
34.5542
34.2896
34.0131
33.7261
33.431
33.1302
32.8253
32.5172
32.2076
31.8983
31.5913
31.2886
30.9919
30.7031
30.4239
30.1561
29.9014
29.6613
29.4371
29.2297
29.0398
28.8681
28.7147
28.5797
28.4637
28.3669
28.2889
28.2284
28.1863
28.1676
28.1638
28.1759
28.2042
28.2476
28.3058
28.3786
28.4649
28.5637
28.6741
28.7953
28.9266
29.0671
29.2159
29.3723
29.5359
29.7063
29.883
30.0649
30.2516
30.4428
30.6386
30.8392
31.0447
31.2551
31.4705
31.6912
31.9174
32.1499
32.3891
32.6357
29.0822
29.6779
30.2976
30.9411
31.6074
32.2934
32.9961
33.7151
34.4517
35.2062
35.9764
36.7587
37.5491
38.344
39.1403
39.9347
40.7227
41.5005
42.2667
43.0221
43.7671
44.4992
45.2124
45.899
46.5484
47.154
47.7132
48.226
48.6888
49.0951
49.4426
49.7336
49.9714
50.1636
50.3061
50.3961
50.4382
50.4164
50.3574
50.2696
50.1309
49.94
49.6996
49.4159
49.0941
48.7363
48.3441
47.9225
47.4761
47.0047
46.5083
45.9931
45.4682
44.937
44.3975
43.8489
43.295
42.7412
42.1919
41.6493
41.1152
40.5913
40.0792
39.5808
39.0983
38.6336
38.1887
37.7657
37.367
36.9955
36.654
36.3453
36.073
35.839
35.6426
35.4842
35.3663
35.296
35.2643
35.2659
35.3058
35.3769
35.4788
35.612
35.7758
35.9686
36.1886
36.4347
36.7053
36.9978
37.3101
37.6417
37.9928
38.3619
38.7462
39.1438
39.5554
39.9829
40.4275
40.8881
41.3627
41.8497
42.3483
42.8592
43.383
43.9199
44.4694
45.0306
45.6029
46.1859
36.0723
37.1756
38.3297
39.5344
40.7878
42.0914
43.4597
44.914
46.4347
47.9849
49.5351
51.0675
52.5702
54.0325
55.4437
56.794
58.0774
59.2912
60.4327
61.4934
62.4625
63.3333
64.1058
64.7876
65.3842
65.893
66.3244
66.6915
66.9925
67.2204
67.3921
67.506
67.559
67.5496
67.4836
67.3957
67.3145
67.1508
66.9078
66.6624
66.4214
66.1465
65.8348
65.4995
65.1407
64.7491
64.3311
63.9009
63.4518
62.9702
62.4655
61.9552
61.431
60.8683
60.2633
59.6358
59.0007
58.3568
57.6964
57.0176
56.3254
55.6272
54.9305
54.244
53.5757
52.9306
52.3133
51.7301
51.1872
50.6897
50.2398
49.8392
49.4925
49.2004
48.9598
48.7814
48.6638
48.6032
48.5945
48.6588
48.7912
48.9798
49.2299
49.5416
49.9075
50.3207
50.7785
51.2763
51.8049
52.3592
52.9421
53.5517
54.1772
54.8089
55.4462
56.0944
56.7537
57.4146
58.0641
58.6946
59.3072
59.9076
60.5003
61.0859
61.6616
62.2242
62.7723
63.3075
63.833
64.3517
64.8651
51.2654
53.5302
55.7995
58.042
60.2318
62.3455
64.35
66.2049
67.9106
69.4849
70.9381
72.2598
73.4378
74.4777
75.3886
76.1707
76.8356
77.398
77.8533
78.1961
78.4416
78.6095
78.7104
78.7402
78.7017
78.6199
78.5086
78.3598
78.1781
78.0317
77.8541
77.5884
77.3278
77.0239
76.708
76.4658
76.2162
75.8919
75.5017
75.1328
74.7999
74.4701
74.1295
73.7579
73.3464
72.9419
72.5647
72.1705
71.7589
71.3762
71.0119
70.6243
70.2194
69.8411
69.5091
69.1845
68.8381
68.4768
68.1194
67.7755
67.4421
67.1141
66.7908
66.4697
66.1461
65.8238
65.511
65.2105
64.9271
64.6674
64.44
64.2514
64.1067
64.0183
64.0082
64.0404
64.1051
64.2679
64.476
64.7205
65.007
65.3375
65.7065
66.0992
66.5145
66.9493
67.3899
67.8369
68.2995
68.7711
69.2281
69.6621
70.0946
70.5336
70.9648
71.3703
71.7443
72.1002
72.4577
72.8259
73.1982
73.5624
73.9093
74.237
74.549
74.8515
75.1486
75.4401
75.7212
75.9867
76.2338
76.4629
76.6764
74.0125
76.0295
77.8679
79.5241
80.9834
82.243
83.3031
84.1676
84.8702
85.4185
85.8183
86.0888
86.2852
86.4172
86.4732
86.4673
86.4116
86.3061
86.1725
86.0308
85.8782
85.6962
85.3939
85.0699
84.8026
84.5311
84.1629
83.7657
83.4629
83.1868
82.8329
82.4444
82.0399
81.5715
81.1444
80.8215
80.4747
80.0677
79.6097
79.1759
78.8339
78.5145
78.1528
77.733
77.3519
77.0231
76.658
76.2816
75.9699
75.6525
75.2966
74.9616
74.6808
74.4014
74.1029
73.7893
73.5021
73.2409
72.9961
72.7615
72.5442
72.3543
72.195
72.0653
71.9716
71.9228
71.9014
71.8935
71.927
72.0185
72.1442
72.2876
72.4393
72.6275
72.8838
73.109
73.3051
73.5654
73.8855
74.2017
74.5271
74.8676
75.1968
75.5158
75.8235
76.1244
76.4248
76.7164
76.9753
77.217
77.4581
77.7073
77.935
78.1263
78.3098
78.4966
78.6908
78.8824
79.0597
79.2048
79.3145
79.4049
79.4922
79.5822
79.6719
79.7556
79.828
79.8886
79.9429
79.9989
80.0605
80.1268
80.1944
88.464
89.6013
90.507
91.2151
91.7401
92.1032
92.3536
92.5337
92.626
92.641
92.59
92.4728
92.3157
92.1965
92.0366
91.6791
91.3062
90.9634
90.5684
90.1259
89.6835
89.2583
88.8183
88.3529
87.8608
87.3575
86.8746
86.3964
85.8937
85.3908
84.9268
84.4803
84.0293
83.5839
83.118
82.6172
82.1795
81.8027
81.4086
80.97
80.4889
80.0839
79.7604
79.414
79.0007
78.6148
78.3049
77.9673
77.6194
77.3466
77.0589
76.7314
76.5123
76.3366
76.1044
75.8748
75.7335
75.6309
75.4916
75.3318
75.2197
75.144
75.0757
75.0109
74.9652
74.952
74.9753
75.0231
75.0914
75.1784
75.2941
75.4528
75.6538
75.8824
76.1322
76.42
76.7365
77.0227
77.3154
77.6473
77.9556
78.2684
78.6062
78.9036
79.1724
79.4157
79.6478
79.877
80.0603
80.199
80.3538
80.5189
80.6487
80.7397
80.8414
80.9681
81.0926
81.1496
81.1856
81.2368
81.2935
81.3456
81.3981
81.4542
81.5138
81.5672
81.6106
81.6473
81.681
81.7169
81.759
81.8042
81.843
81.8695
81.8864
97.6302
97.7523
97.7808
97.7195
97.5793
97.4227
97.2862
96.9609
96.5227
96.0757
95.6184
95.1375
94.6504
94.1776
93.6881
93.1552
92.6165
92.0931
91.5623
91.0259
90.5133
90.018
89.515
88.9996
88.4743
87.9536
87.451
86.9449
86.4227
85.9133
85.4345
84.9596
84.4945
84.0394
83.5615
83.0599
82.6285
82.2442
81.8428
81.3982
80.9157
80.5377
80.2213
79.8559
79.4232
79.0929
78.8002
78.4395
78.1298
77.884
77.5828
77.303
77.1277
76.948
76.6999
76.5091
76.3952
76.3273
76.2037
76.0568
75.9614
75.8946
75.8528
75.8529
75.8941
75.974
76.0849
76.221
76.3794
76.5571
76.7562
76.9822
77.2357
77.5102
77.8049
78.1184
78.4226
78.7191
79.0432
79.3548
79.6394
79.9507
80.2347
80.4873
80.7481
80.9496
81.0974
81.2639
81.4481
81.5813
81.6562
81.7603
81.8805
81.9655
82.0334
82.0835
82.109
82.1635
82.231
82.2814
82.3213
82.3597
82.3929
82.4083
82.4055
82.4047
82.4131
82.4194
82.4187
82.4119
82.3963
82.3701
82.3413
82.3227
82.3132
82.3059
101.787
102.031
102.15
102.152
102.042
101.882
101.732
101.406
100.961
100.485
99.9941
99.4908
99.008
98.5359
98.0178
97.4697
96.9249
96.3809
95.8329
95.2987
94.7739
94.2283
93.663
93.101
92.5443
91.9822
91.4259
90.8929
90.37
89.8447
89.3166
88.7861
88.2659
87.7584
87.243
86.718
86.2164
85.7338
85.2515
84.7874
84.3327
83.8509
83.3548
82.9339
82.5535
82.1563
81.7077
81.2277
80.8868
80.5765
80.1872
79.7687
79.4889
79.1965
78.8315
78.5721
78.3343
78.0336
77.806
77.6603
77.4816
77.2519
77.0834
76.9743
76.9017
76.8025
76.705
76.6321
76.589
76.58
76.6055
76.6643
76.7556
76.8786
77.0275
77.2052
77.4114
77.6454
77.9049
78.1838
78.4757
78.779
79.0848
79.3814
79.6845
79.9918
80.2606
80.5214
80.8291
81.0915
81.29
81.5021
81.6813
81.7981
81.9275
82.1085
82.2496
82.3354
82.3774
82.4284
82.541
82.6284
82.6842
82.7248
82.7587
82.7789
82.8067
82.8439
82.8638
82.8612
82.8592
82.8685
82.8853
82.896
82.8927
82.8809
82.8691
82.863
82.8588
82.8578
82.8539
82.8442
82.8319
105.519
105.163
104.705
104.219
103.715
103.236
102.786
102.291
101.754
101.203
100.645
100.089
99.5533
99.0098
98.4413
97.8612
97.2827
96.7045
96.1358
95.589
95.0417
94.4762
93.9028
93.3352
92.7686
92.1993
91.6431
91.106
90.5735
90.0404
89.5065
88.9755
88.4592
87.951
87.4334
86.9195
86.4321
85.9493
85.4684
85.0154
84.5676
84.0889
83.6084
83.2035
82.8342
82.4458
81.9848
81.5261
81.2302
80.9249
80.5101
80.1341
79.8876
79.5871
79.2528
79.0307
78.7819
78.5078
78.3274
78.2067
78.0275
77.8185
77.6683
77.5526
77.4608
77.3886
77.3239
77.273
77.2463
77.2534
77.2982
77.3797
77.4931
77.6365
77.8023
77.9885
78.1942
78.4185
78.6613
78.9217
79.1983
79.4882
79.7813
80.0711
80.3599
80.6379
80.8938
81.1392
81.3991
81.6826
81.8874
82.0478
82.2005
82.3205
82.4447
82.6038
82.739
82.835
82.8843
82.9009
83.0077
83.1159
83.1865
83.2408
83.2735
83.2676
83.2867
83.3444
83.3823
83.3859
83.3777
83.3927
83.4024
83.3988
83.3886
83.3771
83.3663
83.3546
83.3403
83.3223
83.2994
83.2731
83.2481
106.431
105.938
105.404
104.847
104.28
103.74
103.205
102.647
102.07
101.486
100.902
100.331
99.772
99.2
98.6127
98.0211
97.4292
96.8385
96.2624
95.699
95.1308
94.5548
93.9815
93.4137
92.8453
92.2806
91.7326
91.1963
90.6623
90.1305
89.6008
89.0797
88.5747
88.0733
87.5648
87.0723
86.6019
86.1246
85.6562
85.2231
84.7874
84.3184
83.8577
83.4753
83.1267
82.7445
82.265
81.8676
81.6073
81.2977
80.8734
80.5634
80.3281
80.0128
79.7451
79.5377
79.2656
79.0399
78.895
78.802
78.6385
78.4369
78.294
78.1843
78.0875
78.0176
77.9811
77.9663
77.9722
78.0046
78.0669
78.1579
78.2744
78.4137
78.5767
78.7609
78.9675
79.1963
79.4432
79.7028
79.9707
80.2428
80.5138
80.7812
81.0437
81.2947
81.5314
81.7582
81.9796
82.2163
82.4527
82.6135
82.7369
82.846
82.9714
83.1162
83.2466
83.3538
83.4282
83.4433
83.5115
83.6247
83.7125
83.7809
83.8224
83.8094
83.8268
83.8883
83.932
83.9418
83.9239
83.927
83.9354
83.934
83.9236
83.9081
83.8911
83.8718
83.85
83.8277
83.8069
83.7867
83.7648
106.805
106.245
105.667
105.079
104.491
103.921
103.349
102.762
102.163
101.556
100.952
100.364
99.7805
99.1888
98.5919
97.9948
97.3974
96.8063
96.2295
95.6587
95.0852
94.5127
93.9471
93.3856
92.8253
92.2751
91.7397
91.2106
90.6848
90.1639
89.6475
89.1433
88.6541
88.1646
87.6732
87.207
86.7548
86.2864
85.8398
85.4319
85.0105
84.5531
84.1147
83.7683
83.4419
83.0569
82.582
82.2554
82.012
81.6889
81.2983
81.0435
80.791
80.5005
80.2936
80.0855
79.8321
79.6388
79.5095
79.4411
79.2887
79.1037
78.9725
78.8688
78.7803
78.725
78.7072
78.7129
78.7362
78.7813
78.8527
78.9518
79.0768
79.2252
79.3941
79.5824
79.7862
80.0041
80.2344
80.4751
80.7242
80.9785
81.2341
81.4876
81.7341
81.968
82.1898
82.4032
82.6069
82.8093
83.0362
83.2271
83.3501
83.4329
83.5444
83.6967
83.8303
83.9423
84.0348
84.0866
84.1013
84.1907
84.2996
84.3849
84.4399
84.4306
84.4338
84.4959
84.5467
84.5662
84.5539
84.5443
84.5435
84.5383
84.5253
84.507
84.485
84.4609
84.4355
84.409
84.3803
84.3486
84.3149
84.2809
84.2478
106.937
106.333
105.716
105.092
104.479
103.877
103.275
102.667
102.053
101.435
100.825
100.228
99.6325
99.0356
98.4392
97.8439
97.251
96.6679
96.0957
95.5271
94.9595
94.3977
93.8434
93.2925
92.747
92.2148
91.6934
91.1767
90.6658
90.1615
89.6634
89.1794
88.7086
88.2346
87.7652
87.328
86.8935
86.4349
86.0198
85.6391
85.2305
84.7806
84.3801
84.0772
83.7643
83.3699
82.9361
82.662
82.4233
82.0858
81.7724
81.5391
81.2605
81.0348
80.8757
80.6694
80.4418
80.2703
80.1441
80.0723
79.947
79.7974
79.6809
79.5849
79.5101
79.4692
79.4642
79.4859
79.5275
79.5894
79.6741
79.7821
79.9119
80.061
80.2273
80.4097
80.6071
80.8196
81.043
81.2762
81.5151
81.756
81.9965
82.234
82.4645
82.6839
82.8932
83.0962
83.2904
83.4747
83.672
83.8856
84.029
84.1134
84.1966
84.3503
84.499
84.616
84.7179
84.7957
84.8161
84.8411
84.9554
85.0657
85.137
85.1482
85.1394
85.1885
85.2403
85.2636
85.2527
85.2369
85.2277
85.2163
85.198
85.1733
85.1442
85.1127
85.0806
85.0472
85.0128
84.9777
84.9426
84.9072
84.8712
106.884
106.234
105.583
104.935
104.301
103.677
103.058
102.439
101.818
101.199
100.589
99.9882
99.391
98.7964
98.2046
97.6154
97.0321
96.4593
95.8948
95.3342
94.7782
94.23
93.6885
93.1516
92.6244
92.1102
91.6041
91.1034
90.6112
90.1265
89.6488
89.1867
88.7363
88.2793
87.8361
87.4296
87.008
86.562
86.1896
85.8333
85.4302
84.9907
84.653
84.3822
84.0716
83.669
83.3026
83.0693
82.8195
82.4956
82.2507
82.0055
81.7497
81.5711
81.4561
81.2666
81.0535
80.8975
80.7736
80.6782
80.584
80.4771
80.3803
80.3041
80.2519
80.2291
80.2373
80.2712
80.3254
80.3987
80.4922
80.6067
80.7412
80.894
81.0631
81.2468
81.4434
81.6512
81.8678
82.0924
82.3201
82.5499
82.7799
83.0074
83.2282
83.439
83.6404
83.8355
84.0235
84.1996
84.3752
84.5809
84.7568
84.8574
84.9339
85.0742
85.2386
85.3661
85.4753
85.5668
85.6138
85.605
85.6897
85.8194
85.9112
85.95
85.9394
85.9592
85.998
86.0179
86.0094
85.9906
85.9727
85.953
85.9287
85.9003
85.8693
85.8373
85.804
85.7693
85.7328
85.6944
85.6544
85.6132
85.5711
107.47
106.753
106.053
105.366
104.693
104.037
103.395
102.762
102.134
101.51
100.892
100.283
99.6825
99.0876
98.4978
97.9123
97.3318
96.7596
96.1974
95.6425
95.0932
94.5512
94.0173
93.4899
92.9698
92.4615
91.9649
91.4752
90.9929
90.5214
90.0574
89.6003
89.1619
88.7332
88.2921
87.881
87.503
87.0851
86.6656
86.3401
85.9991
85.5927
85.1962
84.9145
84.6588
84.3432
83.9528
83.6633
83.4533
83.1756
82.9039
82.7014
82.4564
82.2322
82.0787
81.9904
81.8352
81.6385
81.4913
81.3734
81.272
81.1907
81.1156
81.0466
80.9929
80.9613
80.9557
80.977
81.0221
81.0871
81.1703
81.2722
81.3933
81.533
81.6897
81.8616
82.0466
82.2431
82.4496
82.6644
82.8856
83.1105
83.3373
83.5642
83.7881
84.0066
84.2169
84.4189
84.6145
84.8035
84.9827
85.1513
85.3295
85.5263
85.6562
85.7379
85.8644
86.0316
86.1674
86.2805
86.3796
86.445
86.4353
86.4852
86.6189
86.7236
86.7826
86.7842
86.7805
86.801
86.8175
86.8152
86.8014
86.7844
86.765
86.7417
86.7142
86.6825
86.647
86.6075
86.5647
86.5186
86.4703
86.4206
86.3699
86.3184
107.445
106.642
105.875
105.137
104.426
103.74
103.074
102.424
101.785
101.156
100.537
99.9285
99.3294
98.7381
98.1538
97.5756
97.0049
96.4437
95.892
95.3482
94.8119
94.2843
93.7649
93.2531
92.7509
92.2611
91.7817
91.3094
90.8468
90.3971
89.953
89.5161
89.1043
88.6947
88.2691
87.8968
87.5391
87.1183
86.7493
86.4586
86.1217
85.7221
85.3923
85.1413
84.8886
84.5648
84.2278
83.9955
83.7795
83.504
83.2916
83.1162
82.8814
82.6803
82.5398
82.4596
82.3476
82.1762
82.0386
81.9276
81.8298
81.7577
81.7049
81.6626
81.6329
81.6212
81.6315
81.6651
81.7207
81.7952
81.8868
81.996
82.1232
82.2679
82.4287
82.6037
82.7912
82.9895
83.1969
83.412
83.6329
83.8576
84.0838
84.3098
84.534
84.7546
84.9695
85.1777
85.381
85.5799
85.7721
85.9528
86.1223
86.3184
86.5107
86.6154
86.7312
86.8949
87.0391
87.1507
87.2521
87.3271
87.3237
87.3557
87.4897
87.6011
87.6729
87.6929
87.6864
87.6947
87.7067
87.7069
87.694
87.6724
87.6443
87.6098
87.5692
87.5236
87.4739
87.4212
87.3663
87.3097
87.2521
87.194
87.1357
87.0775
87.0194
86.9617
107.566
106.637
105.77
104.953
104.181
103.448
102.747
102.071
101.415
100.775
100.151
99.5409
98.9425
98.3545
97.7754
97.2048
96.6438
96.0931
95.5522
95.0202
94.4974
93.984
93.4794
92.9839
92.4995
92.0273
91.565
91.1103
90.6681
90.2401
89.8131
89.3982
89.0143
88.6168
88.213
87.8792
87.531
87.1187
86.8062
86.5324
86.1928
85.8342
85.5524
85.315
85.062
84.743
84.4742
84.2794
84.0414
83.8017
83.6357
83.484
83.2698
83.0916
82.962
82.8721
82.78
82.649
82.5288
82.4264
82.3391
82.2783
82.2418
82.2207
82.2119
82.2181
82.2427
82.2878
82.3531
82.4369
82.5383
82.6568
82.7921
82.9435
83.1098
83.2896
83.481
83.6826
83.8928
84.1101
84.3329
84.5594
84.7866
85.0139
85.2405
85.465
85.6853
85.901
86.1127
86.32
86.522
86.7115
86.8919
87.0919
87.3071
87.4503
87.5835
87.7623
87.9396
88.0573
88.1603
88.2477
88.2755
88.3032
88.4214
88.5299
88.6034
88.6262
88.6151
88.6067
88.6007
88.5861
88.56
88.5251
88.4838
88.4374
88.3868
88.3328
88.2762
88.2178
88.1582
88.098
88.0377
87.9776
87.918
87.8586
87.7996
87.7411
107.952
106.829
105.812
104.879
104.012
103.204
102.447
101.73
101.045
100.387
99.7517
99.1352
98.5348
97.9482
97.3734
96.8098
96.2576
95.7167
95.1865
94.6666
94.1569
93.6573
93.1675
92.6882
92.2206
91.7653
91.3198
90.8823
90.4611
90.0528
89.6395
89.2518
88.8914
88.4984
88.1295
87.8245
87.4781
87.0957
86.8252
86.5557
86.2182
85.9236
85.6588
85.4278
85.1805
84.8948
84.6706
84.4943
84.2575
84.0466
83.9122
83.7928
83.6052
83.443
83.3227
83.225
83.1448
83.0533
82.9596
82.8734
82.8018
82.7513
82.7234
82.7145
82.7212
82.7432
82.7819
82.8387
82.9142
83.0085
83.1215
83.2508
83.3953
83.5544
83.7273
83.9128
84.1095
84.3159
84.5306
84.7522
84.9792
85.2097
85.4422
85.6761
85.9102
86.1427
86.3718
86.5966
86.8164
87.0323
87.2416
87.4397
87.6318
87.844
88.0597
88.2133
88.3626
88.5543
88.7533
88.8793
88.9778
89.0684
89.1287
89.1756
89.2683
89.3659
89.435
89.4548
89.4452
89.4341
89.4225
89.4034
89.3742
89.3367
89.2931
89.2447
89.1928
89.138
89.0809
89.0221
88.9623
88.902
88.8418
88.782
88.723
88.6652
88.6084
88.5522
108.993
107.388
106.099
104.985
103.982
103.064
102.219
101.436
100.704
100.014
99.357
98.7274
98.1201
97.5315
96.9587
96.4002
95.8554
95.3233
94.8033
94.2948
93.7976
93.3112
92.8359
92.3719
91.9202
91.4811
91.051
90.6306
90.2307
89.8371
89.4381
89.081
88.735
88.3466
88.0206
87.7323
87.3852
87.0454
86.803
86.5288
86.2155
85.9682
85.7081
85.4836
85.2563
85.0058
84.8056
84.6425
84.426
84.2336
84.1119
84.025
83.8767
83.7263
83.6143
83.5183
83.4395
83.3717
83.3046
83.2415
83.1887
83.151
83.1329
83.1361
83.1586
83.198
83.2531
83.3245
83.4129
83.5182
83.6398
83.7771
83.9294
84.0958
84.2756
84.4675
84.6703
84.8827
85.1033
85.3307
85.5636
85.8006
86.0432
86.2888
86.5342
86.7775
87.0174
87.253
87.4838
87.7098
87.9323
88.146
88.355
88.58
88.7945
88.9585
89.1211
89.3239
89.5325
89.6626
89.7605
89.8523
89.9286
89.9923
90.0761
90.168
90.2332
90.2548
90.2523
90.2443
90.2325
90.2127
90.1832
90.1451
90.1003
90.0516
90.0003
89.9466
89.891
89.8343
89.777
89.7199
89.6634
89.6079
89.5533
89.4995
89.4458
89.3927
89.3401
108.744
106.885
105.388
104.164
103.087
102.116
101.234
100.427
99.6833
98.9895
98.3356
97.7136
97.1174
96.5425
95.9862
95.4464
94.9215
94.4104
93.9123
93.4265
92.9527
92.4909
92.0411
91.6041
91.18
90.7641
90.3614
89.98
89.5963
89.2178
88.887
88.5462
88.173
87.8848
87.6042
87.2601
86.9664
86.7387
86.4578
86.1841
85.9615
85.707
85.4915
85.294
85.0664
84.8762
84.7306
84.5418
84.3636
84.245
84.1696
84.07
83.9402
83.8354
83.7461
83.669
83.6091
83.5602
83.5199
83.488
83.4662
83.4598
83.4739
83.5093
83.563
83.6325
83.7172
83.8176
83.9338
84.0655
84.2123
84.3739
84.5496
84.7385
84.9396
85.1516
85.3734
85.6037
85.8413
86.085
86.3337
86.5859
86.8403
87.0955
87.3499
87.6018
87.85
88.0942
88.3373
88.5786
88.813
89.0424
89.2781
89.496
89.6756
89.8536
90.07
90.2909
90.4261
90.5248
90.6205
90.7128
90.7978
90.8785
90.9563
91.0147
91.0426
91.0487
91.0444
91.0327
91.0126
90.9838
90.9477
90.9065
90.8608
90.8098
90.7554
90.6996
90.6435
90.5875
90.5321
90.4773
90.4231
90.3696
90.3167
90.2648
90.2138
90.1631
111.005
108.517
106.423
104.71
103.354
102.199
101.176
100.258
99.43
98.6766
97.9818
97.333
96.7205
96.1373
95.5784
95.0402
94.52
94.0159
93.5264
93.0506
92.5881
92.1385
91.7015
91.2782
90.8673
90.4646
90.0799
89.7121
89.3369
88.9846
88.6702
88.3294
87.9852
87.7228
87.4431
87.1109
86.8589
86.6342
86.3533
86.1169
85.9087
85.663
85.4607
85.289
85.0782
84.8929
84.7629
84.6025
84.4364
84.3208
84.2459
84.1787
84.08
83.9858
83.9056
83.8343
83.7766
83.7354
83.7114
83.6994
83.6952
83.7021
83.7271
83.7732
83.8384
83.9195
84.0155
84.1266
84.253
84.3944
84.5506
84.7211
84.9057
85.1036
85.3137
85.5351
85.7667
86.0072
86.2558
86.5111
86.7721
87.0368
87.3043
87.5736
87.8435
88.1124
88.3791
88.6429
88.9035
89.1583
89.4091
89.6583
89.9067
90.1338
90.3311
90.5281
90.7648
91.0046
91.1459
91.2471
91.3496
91.4605
91.5669
91.6529
91.719
91.7713
91.803
91.816
91.8155
91.8042
91.7826
91.7518
91.7132
91.6677
91.6159
91.5602
91.503
91.4453
91.3879
91.3312
91.2755
91.221
91.168
91.1167
91.067
91.0185
90.9706
90.923
111.084
108.288
105.966
104.055
102.559
101.323
100.249
99.2985
98.4531
97.693
96.9996
96.3581
95.7572
95.1889
94.6473
94.1279
93.6278
93.1447
92.6771
92.2241
91.785
91.3593
90.9481
90.5484
90.159
89.7898
89.4309
89.0681
88.7403
88.4328
88.094
87.7869
87.5363
87.2516
86.944
86.7235
86.4941
86.2225
86.0167
85.8183
85.5817
85.3943
85.2421
85.0468
84.8656
84.7455
84.6109
84.4555
84.3436
84.2702
84.2181
84.1477
84.0676
83.9972
83.9363
83.8826
83.8432
83.8275
83.8313
83.8439
83.8647
83.9007
83.9566
84.0315
84.1224
84.2279
84.3481
84.4835
84.6338
84.7987
84.9777
85.1705
85.3766
85.5952
85.8255
86.0663
86.3168
86.5759
86.8426
87.1156
87.3934
87.6747
87.9586
88.2439
88.5294
88.8138
89.0962
89.3748
89.6475
89.9175
90.1869
90.4496
90.6922
90.9106
91.1302
91.3908
91.6433
91.7866
91.8951
92.0072
92.13
92.2524
92.3494
92.4094
92.4505
92.4803
92.4959
92.4965
92.4834
92.4584
92.4232
92.3795
92.3289
92.2742
92.2175
92.1599
92.1021
92.045
91.9892
91.9353
91.8837
91.8343
91.7871
91.7416
91.6972
91.6535
91.6101
111.14
108.042
105.494
103.408
101.777
100.463
99.3418
98.3637
97.5046
96.7412
96.0519
95.4199
94.8323
94.2799
93.7561
93.2559
92.7758
92.3136
91.8678
91.437
91.0209
90.6195
90.2294
89.8528
89.4952
89.143
88.797
88.4857
88.1792
87.8525
87.5767
87.3267
87.0366
86.7675
86.5619
86.3239
86.0701
85.8895
85.6978
85.4685
85.295
85.1584
84.9792
84.8005
84.6855
84.5733
84.428
84.3187
84.2494
84.2064
84.1566
84.0879
84.0255
83.977
83.9323
83.8944
83.8817
83.8961
83.923
83.9566
84.0032
84.0685
84.1522
84.2515
84.365
84.493
84.636
84.794
84.9665
85.1531
85.3535
85.5672
85.7936
86.032
86.2816
86.5414
86.8105
87.0879
87.3723
87.6626
87.9574
88.2554
88.5556
88.8566
89.1572
89.4562
89.752
90.0427
90.331
90.6169
90.8934
91.1515
91.3879
91.629
91.9158
92.1685
92.3107
92.4314
92.5571
92.6904
92.8227
92.9244
92.9835
93.0225
93.0521
93.0691
93.0707
93.0575
93.0312
92.994
92.9484
92.897
92.8423
92.7859
92.7288
92.672
92.6166
92.5633
92.5128
92.465
92.4199
92.377
92.336
92.2963
92.2575
92.2191
92.1807
92.1419
115.243
111.144
107.759
104.998
102.758
101.01
99.6252
98.4619
97.4615
96.5935
95.8305
95.148
94.5272
93.9538
93.4177
92.9116
92.43
91.9696
91.5278
91.1026
90.6935
90.2994
89.9177
89.5517
89.2016
88.8567
88.5274
88.2241
87.918
87.6126
87.3535
87.098
86.815
86.5813
86.3751
86.1305
85.9046
85.7388
85.5511
85.329
85.1681
85.0436
84.8812