/*--------------------------------*- C++ -*----------------------------------*\
| =========                 |                                                 |
| \\      /  F ield         | OpenFOAM: The Open Source CFD Toolbox           |
|  \\    /   O peration     | Version:  v1706                                 |
|   \\  /    A nd           | Web:      www.OpenFOAM.com                      |
|    \\/     M anipulation  |                                                 |
\*---------------------------------------------------------------------------*/
FoamFile
{
    version     2.0;
    format      ascii;
    class       volScalarField;
    location    "1.8e-05";
    object      rho;
}
// * * * * * * * * * * * * * * * * * * * * * * * * * * * * * * * * * * * * * //

dimensions      [1 -3 0 0 0 0 0];


internalField   nonuniform List<scalar> 
29871
(
0.000511314
0.000511314
0.000511314
0.000511315
0.000511315
0.000511315
0.000511316
0.000511316
0.000511317
0.000511317
0.000511317
0.000511318
0.000511318
0.000511319
0.000511319
0.00051132
0.00051132
0.000511321
0.000511321
0.000511322
0.000511322
0.000511323
0.000511323
0.000511324
0.000511324
0.000511324
0.000511325
0.000511325
0.000511325
0.000511325
0.000511326
0.000511326
0.000511326
0.000511326
0.000511326
0.000511326
0.000511326
0.000511326
0.000511326
0.000511325
0.000511325
0.000511325
0.000511325
0.000511325
0.000511324
0.000511324
0.000511324
0.000511323
0.000511323
0.000511323
0.000511322
0.000511322
0.000511321
0.000511321
0.00051132
0.00051132
0.00051132
0.000511319
0.000511319
0.000511318
0.000511318
0.000511318
0.000511317
0.000511317
0.000511317
0.000511316
0.000511316
0.000511316
0.000511315
0.000511315
0.000511315
0.000511315
0.000511315
0.000511315
0.000511314
0.000511314
0.000511314
0.000511314
0.000511314
0.000511314
0.000511314
0.000511314
0.000511314
0.000511314
0.000511314
0.000511314
0.000511314
0.000511314
0.000511314
0.000511314
0.000511314
0.000511314
0.000511314
0.000511314
0.000511314
0.000511314
0.000511314
0.000511314
0.000511315
0.000511315
0.000511315
0.000511315
0.000511315
0.000511315
0.000511315
0.000511333
0.000511335
0.000511338
0.00051134
0.000511342
0.000511345
0.000511347
0.00051135
0.000511353
0.000511355
0.000511358
0.000511361
0.000511364
0.000511367
0.00051137
0.000511373
0.000511376
0.000511379
0.000511382
0.000511385
0.000511388
0.000511391
0.000511393
0.000511396
0.000511398
0.0005114
0.000511402
0.000511404
0.000511406
0.000511408
0.000511409
0.00051141
0.000511411
0.000511412
0.000511412
0.000511412
0.000511412
0.000511412
0.000511412
0.000511411
0.00051141
0.000511409
0.000511408
0.000511406
0.000511404
0.000511403
0.000511401
0.000511398
0.000511396
0.000511394
0.000511392
0.000511389
0.000511387
0.000511384
0.000511381
0.000511379
0.000511376
0.000511374
0.000511371
0.000511369
0.000511366
0.000511364
0.000511362
0.00051136
0.000511358
0.000511356
0.000511354
0.000511352
0.00051135
0.000511349
0.000511347
0.000511346
0.000511345
0.000511344
0.000511343
0.000511342
0.000511342
0.000511341
0.000511341
0.00051134
0.00051134
0.00051134
0.00051134
0.00051134
0.00051134
0.00051134
0.00051134
0.00051134
0.00051134
0.000511341
0.000511341
0.000511341
0.000511342
0.000511342
0.000511342
0.000511343
0.000511343
0.000511344
0.000511344
0.000511345
0.000511345
0.000511346
0.000511346
0.000511347
0.000511347
0.00051138
0.000511386
0.000511392
0.000511399
0.000511406
0.000511413
0.000511421
0.000511429
0.000511437
0.000511446
0.000511455
0.000511464
0.000511474
0.000511483
0.000511493
0.000511503
0.000511513
0.000511523
0.000511533
0.000511543
0.000511553
0.000511562
0.000511571
0.00051158
0.000511589
0.000511597
0.000511605
0.000511612
0.000511619
0.000511625
0.00051163
0.000511635
0.000511639
0.000511642
0.000511644
0.000511646
0.000511647
0.000511647
0.000511647
0.000511646
0.000511644
0.000511641
0.000511638
0.000511634
0.000511629
0.000511624
0.000511618
0.000511612
0.000511606
0.000511598
0.000511591
0.000511583
0.000511575
0.000511567
0.000511559
0.00051155
0.000511542
0.000511533
0.000511525
0.000511516
0.000511508
0.0005115
0.000511492
0.000511485
0.000511478
0.000511471
0.000511465
0.000511459
0.000511453
0.000511448
0.000511443
0.000511438
0.000511434
0.00051143
0.000511427
0.000511424
0.000511422
0.000511419
0.000511418
0.000511416
0.000511415
0.000511414
0.000511414
0.000511414
0.000511414
0.000511414
0.000511414
0.000511415
0.000511416
0.000511417
0.000511418
0.000511419
0.00051142
0.000511422
0.000511423
0.000511425
0.000511427
0.000511428
0.00051143
0.000511432
0.000511434
0.000511436
0.000511437
0.000511439
0.000511441
0.000511443
0.000511501
0.000511517
0.000511535
0.000511554
0.000511574
0.000511595
0.000511617
0.00051164
0.000511663
0.000511688
0.000511712
0.000511738
0.000511764
0.00051179
0.000511816
0.000511843
0.000511869
0.000511896
0.000511923
0.000511949
0.000511975
0.000512001
0.000512026
0.00051205
0.000512074
0.000512096
0.000512117
0.000512136
0.000512154
0.000512171
0.000512186
0.000512199
0.00051221
0.000512219
0.000512227
0.000512232
0.000512235
0.000512236
0.000512236
0.000512233
0.000512228
0.000512221
0.000512213
0.000512202
0.00051219
0.000512176
0.000512161
0.000512145
0.000512127
0.000512108
0.000512088
0.000512067
0.000512046
0.000512024
0.000512002
0.000511979
0.000511957
0.000511934
0.000511912
0.000511889
0.000511868
0.000511846
0.000511825
0.000511805
0.000511785
0.000511767
0.000511749
0.000511732
0.000511716
0.000511701
0.000511688
0.000511676
0.000511664
0.000511654
0.000511646
0.000511638
0.000511631
0.000511626
0.000511621
0.000511618
0.000511615
0.000511613
0.000511612
0.000511612
0.000511613
0.000511614
0.000511615
0.000511617
0.00051162
0.000511623
0.000511627
0.000511631
0.000511635
0.000511639
0.000511644
0.000511649
0.000511654
0.00051166
0.000511665
0.000511671
0.000511677
0.000511683
0.000511689
0.000511696
0.000511702
0.000511709
0.000511768
0.000511809
0.000511852
0.000511898
0.000511945
0.000511995
0.000512047
0.000512101
0.000512158
0.000512217
0.000512278
0.000512341
0.000512406
0.000512473
0.000512541
0.00051261
0.00051268
0.000512751
0.000512821
0.000512891
0.00051296
0.000513028
0.000513094
0.000513159
0.000513221
0.000513281
0.000513339
0.000513393
0.000513443
0.00051349
0.000513533
0.000513571
0.000513605
0.000513634
0.000513657
0.000513676
0.00051369
0.000513697
0.0005137
0.000513698
0.000513691
0.000513678
0.000513661
0.000513638
0.000513612
0.00051358
0.000513545
0.000513506
0.000513463
0.000513417
0.000513368
0.000513317
0.000513263
0.000513207
0.00051315
0.000513093
0.000513034
0.000512976
0.000512917
0.000512859
0.000512802
0.000512746
0.000512692
0.00051264
0.000512589
0.000512541
0.000512494
0.00051245
0.000512409
0.00051237
0.000512334
0.000512301
0.00051227
0.000512243
0.000512218
0.000512196
0.000512177
0.000512161
0.000512148
0.000512138
0.00051213
0.000512125
0.000512122
0.000512122
0.000512123
0.000512126
0.00051213
0.000512137
0.000512144
0.000512154
0.000512164
0.000512176
0.000512188
0.000512202
0.000512216
0.000512231
0.000512247
0.000512263
0.000512279
0.000512296
0.000512314
0.000512332
0.00051235
0.000512368
0.000512387
0.000512407
0.000512427
0.00051245
0.000512551
0.000512659
0.000512774
0.000512896
0.000513025
0.000513159
0.000513298
0.000513442
0.00051359
0.000513742
0.000513899
0.000514058
0.00051422
0.000514385
0.00051455
0.000514716
0.000514883
0.000515048
0.000515214
0.000515377
0.000515538
0.000515696
0.000515849
0.000515997
0.000516139
0.000516273
0.0005164
0.000516519
0.000516628
0.000516727
0.000516816
0.000516894
0.00051696
0.000517013
0.000517055
0.000517084
0.000517099
0.000517105
0.000517099
0.000517079
0.000517046
0.000517003
0.000516948
0.000516883
0.000516807
0.000516722
0.000516628
0.000516526
0.000516417
0.000516302
0.000516181
0.000516055
0.000515925
0.000515792
0.000515657
0.00051552
0.000515382
0.000515245
0.000515108
0.000514972
0.000514839
0.000514709
0.000514582
0.000514459
0.000514342
0.00051423
0.000514125
0.000514026
0.000513934
0.000513849
0.000513772
0.000513702
0.00051364
0.000513584
0.000513537
0.000513496
0.000513462
0.000513435
0.000513414
0.0005134
0.000513393
0.00051339
0.000513393
0.0005134
0.000513412
0.000513428
0.000513448
0.000513472
0.000513499
0.000513529
0.000513562
0.000513597
0.000513634
0.000513674
0.000513715
0.000513757
0.000513801
0.000513847
0.000513894
0.000513942
0.000513992
0.000514043
0.000514096
0.00051415
0.000514206
0.000514264
0.000513468
0.000513677
0.000513901
0.000514137
0.000514385
0.000514645
0.000514917
0.0005152
0.000515494
0.000515803
0.000516124
0.00051646
0.000516809
0.00051717
0.000517542
0.000517923
0.000518312
0.000518708
0.00051911
0.000519516
0.000519924
0.00052033
0.000520732
0.000521128
0.000521514
0.00052189
0.000522254
0.000522604
0.000522939
0.000523256
0.000523554
0.000523831
0.000524085
0.000524315
0.000524519
0.000524697
0.000524848
0.000524969
0.000525062
0.000525123
0.000525152
0.000525157
0.000525132
0.000525075
0.000524988
0.000524875
0.000524735
0.00052457
0.000524381
0.000524169
0.000523936
0.000523683
0.000523413
0.000523128
0.00052283
0.000522521
0.000522204
0.000521881
0.000521554
0.000521226
0.000520898
0.000520573
0.000520253
0.000519939
0.000519633
0.000519336
0.00051905
0.000518775
0.000518512
0.000518262
0.000518026
0.000517804
0.000517597
0.000517406
0.000517232
0.000517074
0.000516934
0.000516813
0.000516709
0.000516623
0.000516555
0.000516503
0.000516468
0.00051645
0.000516446
0.000516454
0.000516474
0.000516505
0.000516548
0.000516602
0.000516667
0.00051674
0.000516822
0.000516912
0.000517009
0.000517113
0.000517223
0.000517338
0.000517458
0.000517582
0.000517711
0.000517842
0.000517978
0.000518116
0.000518257
0.000518401
0.000518549
0.000518699
0.000518853
0.00051901
0.000516505
0.000516983
0.000517494
0.000518042
0.000518627
0.000519251
0.000519915
0.000520615
0.000521349
0.000522111
0.000522899
0.000523709
0.000524539
0.000525389
0.000526256
0.000527139
0.000528036
0.000528943
0.000529854
0.000530763
0.000531666
0.000532563
0.00053345
0.000534325
0.000535183
0.000536018
0.000536823
0.000537593
0.000538325
0.000539016
0.000539662
0.000540259
0.000540805
0.000541294
0.000541724
0.000542092
0.000542395
0.000542633
0.000542804
0.000542898
0.000542934
0.000542932
0.000542853
0.0005427
0.000542485
0.000542211
0.000541882
0.0005415
0.000541068
0.000540588
0.000540065
0.000539503
0.000538905
0.000538276
0.000537619
0.000536941
0.000536244
0.000535532
0.000534809
0.000534079
0.000533348
0.000532619
0.000531897
0.000531185
0.000530487
0.000529809
0.000529155
0.000528528
0.000527933
0.000527373
0.00052685
0.000526367
0.000525922
0.000525519
0.000525157
0.000524837
0.000524558
0.000524316
0.000524116
0.000523959
0.000523835
0.000523752
0.000523712
0.000523704
0.000523727
0.000523778
0.000523858
0.000523966
0.000524102
0.000524264
0.000524449
0.000524655
0.00052488
0.000525122
0.00052538
0.000525652
0.000525937
0.000526232
0.000526538
0.000526853
0.000527178
0.000527512
0.000527855
0.000528208
0.000528571
0.000528944
0.000529328
0.000529724
0.000530132
0.000530553
0.000523706
0.000524878
0.000526117
0.000527422
0.00052879
0.000530215
0.000531693
0.000533227
0.000534822
0.000536484
0.000538215
0.000540013
0.000541872
0.000543786
0.000545748
0.000547749
0.000549782
0.00055184
0.00055392
0.000556019
0.000558125
0.000560223
0.000562291
0.00056431
0.000566268
0.000568156
0.000569967
0.000571695
0.00057333
0.00057486
0.000576275
0.000577569
0.000578742
0.000579788
0.000580701
0.000581473
0.000582097
0.000582584
0.000582921
0.00058308
0.000583118
0.000583014
0.000582744
0.000582325
0.000581766
0.000581073
0.00058025
0.000579303
0.00057824
0.000577071
0.000575801
0.000574445
0.000573017
0.000571529
0.000569988
0.000568406
0.000566795
0.000565167
0.000563536
0.000561911
0.0005603
0.000558712
0.000557156
0.000555638
0.000554166
0.000552745
0.000551377
0.000550068
0.000548821
0.000547641
0.000546533
0.000545503
0.000544558
0.000543701
0.000542935
0.00054226
0.000541683
0.000541215
0.000540842
0.000540553
0.000540374
0.000540287
0.000540279
0.000540344
0.000540478
0.000540684
0.00054096
0.000541304
0.000541713
0.000542182
0.000542706
0.000543281
0.000543904
0.000544573
0.000545283
0.000546029
0.000546812
0.000547628
0.000548478
0.00054936
0.000550269
0.000551204
0.000552163
0.000553145
0.00055415
0.000555178
0.000556229
0.000557303
0.000558399
0.00055952
0.000539963
0.000542509
0.000545231
0.000548135
0.000551231
0.000554533
0.000558042
0.000561738
0.000565587
0.000569555
0.000573619
0.000577764
0.000581981
0.000586261
0.000590595
0.000594977
0.000599401
0.000603857
0.000608316
0.000612742
0.000617102
0.000621381
0.000625578
0.000629683
0.000633678
0.000637531
0.000641209
0.00064468
0.000647928
0.000650949
0.000653734
0.000656264
0.000658515
0.000660479
0.000662163
0.000663545
0.000664612
0.000665347
0.000665672
0.000665763
0.000665734
0.000665378
0.000664678
0.000663672
0.00066239
0.000660858
0.000659096
0.000657109
0.000654906
0.000652509
0.000649942
0.000647212
0.00064432
0.00064128
0.000638125
0.000634884
0.000631575
0.000628207
0.000624796
0.000621364
0.000617936
0.000614536
0.000611189
0.000607914
0.000604736
0.000601676
0.000598757
0.000595998
0.000593417
0.000591022
0.000588822
0.000586822
0.00058502
0.000583418
0.000582022
0.000580838
0.000579855
0.000579046
0.00057844
0.000578095
0.000577931
0.000577959
0.000578152
0.000578511
0.000579038
0.000579732
0.000580583
0.000581578
0.000582709
0.000583966
0.000585344
0.000586832
0.000588416
0.000590088
0.000591847
0.000593689
0.000595604
0.000597581
0.000599609
0.000601688
0.00060382
0.00060601
0.000608259
0.000610567
0.000612934
0.000615365
0.000617865
0.000620443
0.000623107
0.000625863
0.000577348
0.000583336
0.000589603
0.000596153
0.000602975
0.00061002
0.000617248
0.000624681
0.000632375
0.000640366
0.000648644
0.000657175
0.000665911
0.000674815
0.000683852
0.000692978
0.000702141
0.000711291
0.00072042
0.000729545
0.00073868
0.000747786
0.000756775
0.000765529
0.000773901
0.000781797
0.000789186
0.00079607
0.000802404
0.000808094
0.000813104
0.00081746
0.00082124
0.000824468
0.000827059
0.000829039
0.000830459
0.000831042
0.000831166
0.000830973
0.000830149
0.000828649
0.000826501
0.000823791
0.00082059
0.000816914
0.000812778
0.000808243
0.000803372
0.000798157
0.000792586
0.000786747
0.000780771
0.000774704
0.00076851
0.000762172
0.000755738
0.000749285
0.000742872
0.000736528
0.000730269
0.000724112
0.000718074
0.000712175
0.000706437
0.000700883
0.000695532
0.000690405
0.00068553
0.000680945
0.000676688
0.000672792
0.00066931
0.00066627
0.000663658
0.000661483
0.000659788
0.000658634
0.000657953
0.000657687
0.000657878
0.000658406
0.000659288
0.000660539
0.000662162
0.000664142
0.000666458
0.000669103
0.000672062
0.000675299
0.000678788
0.00068253
0.000686533
0.000690776
0.000695222
0.000699844
0.000704655
0.000709688
0.00071496
0.000720456
0.000726144
0.000731999
0.000738011
0.000744187
0.000750536
0.000757061
0.000763752
0.000770595
0.000777577
0.000784695
0.00064446
0.000655774
0.000667819
0.00068061
0.000694138
0.000708437
0.000723726
0.000740307
0.000757918
0.000776067
0.000794374
0.000812623
0.000830683
0.000848426
0.000865719
0.000882439
0.000898494
0.000913851
0.000928483
0.000942279
0.000955091
0.000966815
0.00097743
0.000987011
0.000995617
0.00100324
0.00100989
0.00101575
0.00102081
0.00102498
0.0010285
0.00103135
0.00103345
0.00103477
0.00103532
0.0010356
0.00103597
0.00103533
0.00103364
0.00103185
0.00103012
0.00102797
0.00102532
0.00102236
0.00101906
0.0010153
0.00101115
0.00100681
0.00100221
0.000997122
0.000991683
0.000986132
0.000980362
0.000974019
0.000967034
0.000959686
0.000952194
0.000944545
0.000936622
0.000928383
0.000919893
0.000911253
0.000902566
0.000893949
0.000885511
0.000877319
0.000869435
0.000861939
0.000854915
0.000848426
0.000842498
0.000837152
0.000832444
0.000828376
0.0008249
0.000822146
0.000820132
0.000818832
0.000818106
0.000818312
0.000819352
0.000821107
0.000823632
0.000826944
0.000830953
0.000835574
0.000840782
0.00084652
0.000852671
0.000859169
0.000866061
0.000873332
0.000880837
0.000888441
0.000896139
0.000904009
0.000912059
0.000920161
0.000928133
0.00093587
0.00094339
0.000950772
0.00095808
0.000965318
0.00097245
0.000979429
0.000986233
0.000992884
0.000999426
0.0010059
0.00101232
0.000803431
0.000829419
0.000855688
0.000881879
0.000907701
0.000932893
0.000957056
0.000979666
0.0010007
0.00102038
0.00103882
0.00105585
0.00107132
0.00108526
0.00109777
0.00110888
0.00111863
0.00112712
0.00113436
0.00114027
0.00114501
0.00114887
0.00115195
0.00115415
0.00115549
0.00115632
0.00115677
0.0011567
0.00115623
0.00115622
0.00115586
0.0011544
0.00115292
0.00115084
0.00114859
0.00114728
0.0011459
0.00114353
0.00114023
0.00113711
0.00113445
0.00113184
0.00112908
0.00112584
0.001122
0.00111817
0.00111466
0.00111089
0.00110683
0.0011031
0.00109955
0.00109563
0.00109139
0.00108744
0.00108407
0.00108075
0.00107708
0.00107312
0.00106914
0.00106527
0.00106148
0.00105767
0.00105383
0.00104992
0.00104585
0.00104168
0.00103752
0.00103342
0.00102941
0.00102558
0.00102204
0.00101895
0.00101634
0.00101437
0.0010134
0.00101293
0.00101286
0.00101396
0.00101567
0.00101783
0.00102053
0.00102381
0.00102763
0.00103178
0.00103627
0.00104105
0.00104597
0.00105103
0.00105634
0.00106185
0.00106723
0.00107236
0.00107751
0.00108281
0.00108807
0.00109304
0.00109763
0.001102
0.00110643
0.00111105
0.00111577
0.00112041
0.00112483
0.00112902
0.00113302
0.00113691
0.00114074
0.00114451
0.00114816
0.00115161
0.00115481
0.00115779
0.00116057
0.00105681
0.0010814
0.00110415
0.001125
0.00114373
0.00116027
0.00117461
0.00118678
0.00119696
0.00120535
0.00121202
0.00121719
0.00122157
0.00122525
0.00122806
0.00123015
0.00123163
0.00123246
0.00123296
0.0012334
0.00123367
0.00123355
0.00123201
0.00123011
0.00122893
0.00122769
0.00122522
0.0012223
0.00122057
0.00121918
0.00121683
0.00121398
0.00121083
0.00120679
0.00120325
0.00120105
0.00119858
0.0011953
0.00119125
0.00118743
0.00118479
0.00118246
0.00117956
0.0011758
0.00117244
0.00116974
0.00116651
0.00116305
0.00116039
0.00115761
0.00115419
0.00115097
0.00114843
0.00114587
0.00114291
0.00113963
0.00113664
0.00113397
0.00113145
0.00112897
0.0011266
0.00112449
0.00112268
0.00112115
0.00111999
0.00111931
0.00111892
0.0011186
0.00111871
0.00111943
0.0011205
0.00112169
0.00112287
0.00112443
0.00112683
0.00112874
0.00113019
0.0011324
0.00113539
0.00113836
0.00114145
0.00114476
0.00114799
0.00115114
0.00115421
0.00115725
0.00116036
0.00116342
0.00116613
0.00116866
0.00117125
0.00117403
0.0011766
0.00117874
0.00118081
0.00118298
0.00118531
0.00118765
0.00118983
0.0011916
0.00119292
0.00119401
0.00119509
0.00119624
0.0011974
0.0011985
0.00119947
0.00120029
0.00120104
0.00120181
0.00120267
0.0012036
0.00120455
0.00121671
0.00123189
0.00124445
0.00125469
0.00126287
0.0012692
0.00127429
0.00127865
0.00128202
0.00128449
0.00128613
0.00128692
0.00128727
0.00128817
0.00128849
0.00128657
0.00128433
0.00128241
0.00127985
0.00127666
0.00127345
0.00127043
0.00126721
0.00126363
0.00125969
0.00125558
0.0012517
0.00124785
0.00124367
0.00123945
0.00123568
0.00123212
0.00122851
0.00122494
0.00122105
0.00121665
0.00121301
0.00121015
0.00120709
0.00120341
0.0011991
0.00119572
0.00119337
0.00119073
0.00118716
0.00118387
0.00118152
0.00117876
0.00117581
0.00117376
0.00117147
0.00116856
0.00116704
0.00116604
0.00116425
0.00116236
0.0011616
0.00116129
0.00116047
0.00115928
0.00115862
0.00115834
0.00115805
0.00115767
0.00115742
0.00115746
0.00115782
0.00115845
0.00115925
0.00116016
0.00116132
0.00116292
0.00116496
0.00116728
0.00116978
0.0011727
0.00117593
0.00117869
0.00118148
0.00118473
0.00118765
0.0011906
0.00119388
0.00119667
0.00119913
0.00120132
0.00120343
0.00120555
0.0012071
0.00120813
0.00120944
0.00121096
0.00121207
0.00121271
0.00121352
0.00121474
0.00121602
0.00121644
0.00121663
0.00121704
0.00121758
0.00121812
0.0012187
0.00121937
0.00122012
0.0012208
0.00122136
0.00122186
0.00122234
0.00122287
0.0012235
0.00122418
0.00122478
0.00122521
0.00122551
0.00132041
0.00132415
0.00132681
0.00132835
0.00132894
0.00132943
0.00133014
0.00132873
0.00132588
0.0013228
0.00131956
0.00131601
0.00131238
0.00130892
0.00130525
0.00130106
0.00129676
0.0012926
0.00128833
0.00128398
0.0012799
0.00127603
0.00127203
0.00126784
0.00126348
0.00125916
0.00125504
0.00125085
0.00124644
0.00124215
0.00123822
0.00123433
0.00123055
0.00122687
0.00122284
0.00121846
0.00121493
0.00121199
0.00120884
0.00120509
0.00120079
0.00119777
0.00119554
0.00119267
0.00118887
0.00118631
0.00118421
0.00118118
0.00117874
0.00117707
0.00117462
0.00117237
0.00117145
0.00117044
0.00116847
0.00116711
0.0011668
0.00116702
0.0011665
0.00116554
0.00116514
0.00116503
0.00116513
0.00116566
0.00116665
0.00116798
0.00116963
0.00117153
0.00117362
0.00117584
0.00117822
0.00118083
0.00118369
0.00118674
0.00118996
0.00119335
0.00119653
0.00119956
0.0012029
0.00120603
0.00120877
0.00121181
0.00121448
0.00121678
0.00121921
0.00122092
0.00122194
0.00122319
0.00122473
0.00122569
0.00122592
0.00122656
0.00122747
0.00122797
0.00122829
0.00122842
0.00122832
0.00122862
0.00122917
0.00122956
0.00122985
0.00123016
0.00123045
0.00123053
0.00123042
0.00123037
0.00123045
0.00123054
0.00123055
0.00123051
0.00123035
0.00123007
0.00122977
0.00122963
0.0012296
0.0012296
0.00135032
0.00135539
0.0013591
0.00136142
0.00136239
0.00136281
0.00136336
0.00136199
0.00135914
0.00135581
0.00135223
0.00134848
0.00134501
0.00134167
0.00133782
0.0013336
0.00132935
0.00132508
0.00132074
0.00131656
0.00131247
0.00130813
0.00130352
0.00129892
0.00129435
0.00128969
0.00128508
0.00128074
0.00127651
0.00127223
0.00126788
0.00126346
0.00125915
0.00125497
0.00125067
0.00124622
0.00124203
0.00123806
0.00123409
0.00123032
0.00122664
0.00122257
0.00121826
0.00121485
0.00121195
0.00120885
0.00120504
0.00120076
0.00119822
0.00119607
0.00119288
0.00118926
0.00118736
0.00118527
0.00118219
0.00118041
0.00117885
0.00117642
0.00117486
0.00117435
0.00117341
0.00117171
0.0011707
0.0011705
0.00117072
0.00117055
0.00117029
0.00117025
0.00117048
0.00117104
0.00117196
0.00117325
0.00117484
0.00117672
0.00117889
0.00118135
0.00118407
0.00118705
0.00119025
0.0011936
0.00119703
0.00120052
0.00120397
0.00120722
0.0012105
0.00121379
0.0012165
0.00121906
0.00122221
0.00122474
0.00122644
0.00122832
0.00122979
0.00123042
0.00123119
0.00123266
0.00123371
0.00123404
0.00123383
0.00123381
0.00123456
0.00123509
0.00123524
0.00123524
0.00123523
0.00123513
0.00123516
0.00123534
0.00123535
0.00123514
0.00123496
0.00123497
0.0012351
0.0012352
0.00123515
0.001235
0.00123486
0.00123481
0.00123481
0.00123485
0.00123488
0.00123485
0.00123479
0.00139064
0.00138896
0.00138599
0.00138256
0.00137887
0.00137548
0.00137247
0.00136899
0.00136502
0.00136083
0.0013565
0.00135216
0.00134807
0.00134388
0.00133939
0.00133475
0.00133008
0.00132538
0.00132078
0.00131645
0.00131212
0.00130755
0.00130284
0.00129817
0.00129348
0.00128873
0.00128411
0.00127972
0.00127537
0.00127098
0.00126654
0.0012621
0.0012578
0.00125359
0.00124923
0.00124488
0.00124085
0.00123686
0.00123288
0.00122922
0.0012256
0.00122154
0.00121741
0.00121418
0.00121141
0.0012084
0.00120439
0.00120036
0.00119836
0.00119627
0.00119273
0.00118962
0.00118813
0.00118593
0.00118324
0.00118192
0.00118022
0.00117811
0.00117718
0.00117702
0.00117613
0.00117474
0.00117403
0.00117376
0.00117378
0.00117397
0.00117419
0.00117448
0.00117496
0.00117578
0.00117702
0.00117866
0.00118064
0.00118288
0.00118536
0.00118803
0.00119087
0.00119385
0.00119698
0.00120025
0.00120365
0.00120713
0.00121059
0.00121394
0.00121721
0.00122028
0.00122299
0.0012255
0.00122817
0.00123113
0.00123303
0.00123433
0.00123551
0.00123624
0.00123699
0.00123818
0.00123913
0.00123957
0.00123941
0.00123893
0.00123956
0.00124027
0.00124056
0.00124068
0.00124059
0.00124009
0.00123997
0.00124033
0.0012405
0.0012403
0.00124001
0.00124006
0.00124006
0.00123995
0.00123979
0.00123962
0.00123948
0.00123935
0.00123922
0.00123905
0.00123883
0.00123858
0.00123836
0.00139806
0.00139471
0.00139085
0.00138666
0.0013823
0.00137823
0.00137422
0.00136997
0.00136547
0.00136087
0.00135625
0.00135177
0.00134743
0.00134293
0.00133823
0.00133344
0.00132861
0.00132376
0.00131907
0.00131452
0.0013099
0.00130515
0.0013004
0.00129569
0.00129094
0.0012862
0.00128165
0.00127723
0.00127281
0.00126839
0.00126395
0.00125959
0.00125539
0.00125122
0.00124693
0.00124281
0.00123895
0.00123499
0.00123112
0.00122767
0.00122417
0.0012202
0.00121628
0.0012133
0.00121077
0.0012078
0.00120352
0.00120023
0.00119866
0.0011965
0.00119281
0.00119051
0.00118913
0.00118672
0.00118485
0.0011837
0.00118169
0.00118017
0.00117974
0.00117994
0.00117929
0.00117805
0.00117747
0.0011773
0.00117727
0.0011775
0.0011781
0.00117891
0.00117988
0.00118109
0.00118262
0.00118445
0.00118654
0.00118885
0.00119137
0.00119412
0.00119709
0.00120027
0.0012036
0.00120701
0.00121045
0.00121388
0.00121722
0.00122045
0.00122356
0.00122645
0.00122909
0.00123152
0.00123382
0.00123631
0.00123876
0.00124017
0.00124105
0.00124171
0.00124253
0.00124357
0.00124446
0.00124506
0.00124519
0.00124466
0.0012448
0.00124551
0.00124596
0.0012462
0.00124614
0.00124549
0.0012453
0.00124565
0.00124583
0.00124566
0.0012452
0.00124504
0.00124498
0.00124485
0.00124465
0.00124441
0.00124418
0.00124393
0.00124368
0.00124344
0.00124324
0.00124307
0.00124288
0.00139942
0.00139524
0.00139087
0.00138633
0.00138179
0.00137743
0.00137304
0.00136846
0.00136373
0.00135886
0.00135399
0.00134928
0.00134462
0.00133984
0.00133498
0.00133008
0.00132515
0.00132026
0.00131551
0.00131082
0.00130607
0.00130131
0.0012966
0.00129191
0.0012872
0.00128259
0.00127814
0.00127375
0.00126937
0.00126501
0.00126069
0.00125648
0.00125243
0.00124835
0.00124422
0.00124039
0.00123671
0.00123281
0.00122916
0.00122597
0.0012226
0.00121872
0.00121504
0.00121248
0.00121019
0.00120713
0.00120287
0.00120044
0.00119907
0.00119671
0.0011934
0.00119178
0.00119015
0.00118801
0.00118689
0.00118572
0.00118392
0.00118281
0.00118261
0.00118313
0.00118263
0.00118163
0.00118124
0.00118117
0.00118124
0.00118166
0.00118252
0.00118362
0.00118488
0.00118633
0.00118804
0.00119004
0.00119232
0.00119484
0.00119756
0.00120044
0.00120348
0.00120665
0.0012099
0.00121322
0.00121658
0.00121994
0.00122325
0.00122647
0.00122953
0.00123237
0.00123499
0.00123741
0.00123963
0.00124179
0.00124424
0.00124618
0.00124716
0.00124756
0.00124826
0.00124944
0.0012504
0.00125108
0.00125148
0.00125136
0.00125083
0.00125122
0.00125188
0.00125227
0.0012523
0.00125164
0.00125121
0.00125151
0.00125172
0.00125161
0.00125116
0.00125078
0.00125054
0.00125031
0.00125002
0.00124971
0.00124938
0.00124905
0.00124872
0.00124841
0.0012481
0.00124776
0.00124741
0.00124707
0.00124674
0.00139823
0.00139362
0.00138883
0.0013839
0.00137906
0.00137432
0.00136956
0.00136471
0.00135976
0.00135472
0.00134974
0.00134488
0.00134002
0.00133513
0.00133021
0.00132527
0.00132033
0.00131548
0.00131074
0.00130601
0.00130127
0.00129657
0.00129193
0.00128731
0.00128272
0.00127827
0.00127393
0.00126962
0.00126535
0.00126114
0.00125697
0.00125295
0.00124907
0.00124512
0.00124121
0.00123768
0.00123416
0.00123033
0.00122701
0.0012241
0.00122083
0.00121699
0.00121373
0.00121167
0.00120951
0.00120628
0.00120247
0.00120068
0.00119934
0.00119675
0.0011944
0.001193
0.00119101
0.00118962
0.00118908
0.00118795
0.00118647
0.00118565
0.00118549
0.00118598
0.0011858
0.00118526
0.00118509
0.00118512
0.00118535
0.00118596
0.00118699
0.00118833
0.00118987
0.0011916
0.00119355
0.00119574
0.00119815
0.00120076
0.00120354
0.00120646
0.00120953
0.00121272
0.00121601
0.00121937
0.00122274
0.00122608
0.00122935
0.00123252
0.00123554
0.00123835
0.00124096
0.00124341
0.00124566
0.00124771
0.0012499
0.00125226
0.00125364
0.00125415
0.00125458
0.00125581
0.001257
0.00125779
0.00125836
0.00125855
0.00125807
0.00125768
0.00125835
0.001259
0.00125917
0.00125869
0.00125803
0.00125813
0.00125828
0.00125815
0.00125764
0.0012571
0.00125668
0.0012563
0.00125588
0.00125543
0.00125496
0.0012545
0.00125405
0.00125362
0.0012532
0.00125279
0.0012524
0.00125201
0.00125163
0.00139501
0.00138992
0.00138474
0.00137955
0.00137445
0.00136944
0.00136444
0.00135942
0.00135434
0.00134924
0.00134422
0.00133926
0.00133433
0.0013294
0.00132447
0.00131954
0.00131466
0.00130987
0.00130515
0.00130045
0.00129578
0.00129118
0.00128662
0.0012821
0.00127767
0.00127337
0.00126915
0.00126496
0.00126085
0.00125681
0.00125282
0.001249
0.0012453
0.0012415
0.00123785
0.00123463
0.00123121
0.00122747
0.0012246
0.00122193
0.00121866
0.00121489
0.00121235
0.00121064
0.00120847
0.00120507
0.00120205
0.00120073
0.00119921
0.00119674
0.00119521
0.00119362
0.00119184
0.00119103
0.00119102
0.00119014
0.00118884
0.00118822
0.00118806
0.00118824
0.00118844
0.00118844
0.00118852
0.00118879
0.00118931
0.00119015
0.00119136
0.00119288
0.00119461
0.00119654
0.00119866
0.001201
0.00120354
0.00120627
0.00120917
0.00121221
0.00121536
0.0012186
0.00122192
0.00122527
0.00122864
0.00123197
0.00123524
0.00123843
0.00124148
0.00124433
0.00124699
0.00124948
0.0012518
0.00125388
0.0012559
0.00125828
0.00126021
0.00126103
0.00126147
0.00126261
0.00126404
0.00126501
0.00126572
0.00126613
0.00126594
0.00126512
0.00126542
0.00126626
0.00126663
0.00126642
0.00126566
0.00126531
0.00126522
0.00126496
0.00126439
0.00126373
0.00126311
0.00126254
0.00126196
0.00126139
0.00126083
0.00126029
0.00125978
0.00125928
0.00125878
0.00125828
0.00125778
0.00125727
0.00125677
0.00139635
0.00139068
0.0013851
0.00137957
0.00137412
0.00136879
0.00136356
0.00135838
0.00135322
0.00134805
0.00134292
0.00133786
0.00133285
0.00132789
0.00132295
0.00131803
0.00131314
0.00130832
0.00130359
0.00129892
0.00129428
0.00128971
0.0012852
0.00128075
0.00127635
0.00127208
0.00126792
0.00126382
0.00125978
0.00125585
0.00125198
0.00124817
0.00124457
0.00124106
0.00123739
0.00123406
0.00123112
0.00122767
0.00122418
0.00122182
0.00121927
0.00121588
0.00121258
0.00121068
0.0012091
0.00120679
0.00120348
0.00120138
0.00120029
0.00119837
0.00119648
0.0011954
0.00119379
0.00119234
0.00119184
0.00119214
0.00119166
0.00119059