/*--------------------------------*- C++ -*----------------------------------*\
| =========                 |                                                 |
| \\      /  F ield         | OpenFOAM: The Open Source CFD Toolbox           |
|  \\    /   O peration     | Version:  v1706                                 |
|   \\  /    A nd           | Web:      www.OpenFOAM.com                      |
|    \\/     M anipulation  |                                                 |
\*---------------------------------------------------------------------------*/
FoamFile
{
    version     2.0;
    format      ascii;
    class       volScalarField;
    location    "1.8e-05";
    object      Tt;
}
// * * * * * * * * * * * * * * * * * * * * * * * * * * * * * * * * * * * * * //

dimensions      [0 0 0 1 0 0 0];


internalField   nonuniform List<scalar> 
29871
(
144.402
144.402
144.402
144.402
144.403
144.403
144.403
144.403
144.403
144.404
144.404
144.404
144.404
144.404
144.405
144.405
144.405
144.405
144.405
144.406
144.406
144.406
144.406
144.406
144.406
144.407
144.407
144.407
144.407
144.407
144.407
144.407
144.407
144.407
144.407
144.407
144.407
144.407
144.407
144.407
144.407
144.407
144.407
144.406
144.406
144.406
144.406
144.406
144.406
144.406
144.405
144.405
144.405
144.405
144.405
144.404
144.404
144.404
144.404
144.404
144.404
144.403
144.403
144.403
144.403
144.403
144.403
144.403
144.403
144.402
144.402
144.402
144.402
144.402
144.402
144.402
144.402
144.402
144.402
144.402
144.402
144.402
144.402
144.402
144.402
144.402
144.402
144.402
144.402
144.402
144.402
144.402
144.402
144.402
144.402
144.402
144.402
144.402
144.402
144.402
144.402
144.402
144.402
144.402
144.402
144.411
144.412
144.413
144.414
144.415
144.416
144.417
144.418
144.419
144.421
144.422
144.423
144.424
144.426
144.427
144.428
144.429
144.43
144.432
144.433
144.434
144.435
144.436
144.437
144.438
144.439
144.44
144.44
144.441
144.441
144.442
144.442
144.442
144.443
144.443
144.443
144.443
144.442
144.442
144.442
144.441
144.441
144.44
144.439
144.438
144.438
144.437
144.436
144.435
144.434
144.433
144.432
144.431
144.43
144.429
144.428
144.426
144.425
144.424
144.423
144.422
144.421
144.421
144.42
144.419
144.418
144.417
144.417
144.416
144.416
144.415
144.414
144.414
144.414
144.413
144.413
144.413
144.413
144.412
144.412
144.412
144.412
144.412
144.412
144.412
144.412
144.412
144.412
144.412
144.413
144.413
144.413
144.413
144.413
144.413
144.413
144.414
144.414
144.414
144.414
144.414
144.414
144.415
144.415
144.415
144.432
144.435
144.438
144.441
144.444
144.447
144.45
144.454
144.457
144.461
144.465
144.468
144.472
144.476
144.48
144.484
144.488
144.492
144.495
144.499
144.503
144.506
144.51
144.513
144.516
144.519
144.522
144.524
144.526
144.528
144.53
144.532
144.533
144.534
144.534
144.534
144.534
144.534
144.533
144.532
144.531
144.53
144.528
144.526
144.524
144.522
144.519
144.517
144.514
144.511
144.508
144.504
144.501
144.498
144.495
144.491
144.488
144.485
144.481
144.478
144.475
144.472
144.469
144.466
144.463
144.461
144.458
144.456
144.454
144.452
144.45
144.449
144.447
144.446
144.445
144.444
144.443
144.442
144.441
144.441
144.441
144.44
144.44
144.44
144.44
144.44
144.44
144.441
144.441
144.441
144.442
144.442
144.443
144.443
144.444
144.444
144.445
144.446
144.446
144.447
144.448
144.448
144.449
144.45
144.451
144.451
144.488
144.495
144.503
144.511
144.519
144.528
144.537
144.546
144.556
144.565
144.575
144.585
144.596
144.606
144.617
144.627
144.638
144.648
144.658
144.668
144.678
144.687
144.696
144.705
144.713
144.721
144.728
144.735
144.741
144.746
144.75
144.754
144.757
144.759
144.761
144.761
144.761
144.761
144.759
144.757
144.753
144.75
144.745
144.74
144.734
144.728
144.721
144.714
144.707
144.699
144.69
144.682
144.673
144.664
144.656
144.647
144.638
144.629
144.621
144.612
144.604
144.596
144.588
144.58
144.573
144.567
144.56
144.554
144.549
144.543
144.539
144.534
144.531
144.527
144.524
144.521
144.519
144.517
144.516
144.515
144.514
144.514
144.514
144.514
144.514
144.514
144.515
144.516
144.517
144.519
144.52
144.521
144.523
144.525
144.527
144.528
144.53
144.532
144.534
144.536
144.539
144.541
144.543
144.545
144.548
144.55
144.609
144.627
144.645
144.664
144.685
144.706
144.728
144.75
144.774
144.798
144.822
144.848
144.873
144.899
144.925
144.952
144.978
145.004
145.03
145.055
145.08
145.104
145.128
145.15
145.171
145.192
145.21
145.228
145.244
145.258
145.271
145.282
145.291
145.298
145.303
145.306
145.307
145.307
145.304
145.3
145.294
145.286
145.276
145.264
145.251
145.237
145.221
145.204
145.186
145.167
145.148
145.127
145.106
145.085
145.063
145.041
145.019
144.997
144.975
144.954
144.933
144.913
144.893
144.874
144.856
144.839
144.822
144.807
144.792
144.779
144.766
144.755
144.745
144.736
144.728
144.721
144.715
144.71
144.706
144.703
144.701
144.7
144.699
144.7
144.7
144.702
144.704
144.707
144.71
144.713
144.717
144.721
144.726
144.731
144.736
144.741
144.747
144.753
144.759
144.765
144.771
144.777
144.784
144.79
144.797
144.804
144.811
144.922
144.965
145.01
145.058
145.108
145.159
145.213
145.268
145.325
145.384
145.443
145.504
145.565
145.628
145.69
145.753
145.816
145.878
145.939
145.999
146.057
146.114
146.168
146.221
146.27
146.316
146.36
146.399
146.435
146.467
146.496
146.52
146.539
146.554
146.565
146.57
146.571
146.568
146.561
146.549
146.533
146.513
146.489
146.461
146.429
146.395
146.357
146.316
146.273
146.228
146.181
146.133
146.083
146.033
145.982
145.93
145.879
145.828
145.777
145.727
145.679
145.631
145.585
145.541
145.499
145.459
145.421
145.385
145.352
145.321
145.293
145.268
145.245
145.225
145.208
145.193
145.18
145.171
145.163
145.158
145.155
145.154
145.155
145.157
145.161
145.167
145.174
145.182
145.192
145.203
145.214
145.227
145.24
145.254
145.269
145.284
145.299
145.315
145.332
145.349
145.366
145.384
145.402
145.42
145.439
145.459
145.478
145.392
145.48
145.574
145.672
145.775
145.884
145.996
146.114
146.236
146.361
146.491
146.623
146.759
146.898
147.038
147.18
147.323
147.467
147.611
147.753
147.895
148.034
148.169
148.301
148.427
148.549
148.664
148.772
148.873
148.967
149.052
149.128
149.196
149.254
149.303
149.342
149.371
149.389
149.397
149.395
149.384
149.363
149.332
149.292
149.242
149.184
149.118
149.045
148.964
148.876
148.783
148.685
148.582
148.475
148.365
148.253
148.138
148.023
147.907
147.792
147.678
147.565
147.454
147.345
147.24
147.139
147.042
146.949
146.861
146.778
146.7
146.628
146.562
146.502
146.448
146.4
146.359
146.323
146.294
146.27
146.253
146.241
146.234
146.233
146.236
146.242
146.253
146.268
146.286
146.308
146.333
146.361
146.392
146.425
146.459
146.496
146.534
146.574
146.616
146.658
146.702
146.746
146.792
146.839
146.886
146.935
146.984
147.035
147.087
147.141
146.771
146.976
147.192
147.419
147.657
147.905
148.165
148.433
148.711
148.996
149.288
149.585
149.887
150.192
150.501
150.811
151.121
151.431
151.738
152.042
152.341
152.632
152.916
153.189
153.45
153.698
153.932
154.15
154.351
154.535
154.7
154.846
154.973
155.08
155.167
155.233
155.278
155.302
155.303
155.287
155.251
155.197
155.121
155.027
154.914
154.785
154.639
154.479
154.304
154.117
153.919
153.71
153.492
153.267
153.036
152.8
152.561
152.32
152.078
151.837
151.598
151.362
151.13
150.904
150.685
150.473
150.27
150.077
149.895
149.724
149.565
149.419
149.286
149.166
149.059
148.967
148.888
148.822
148.771
148.732
148.707
148.694
148.694
148.702
148.719
148.747
148.785
148.831
148.886
148.948
149.017
149.092
149.173
149.259
149.349
149.444
149.542
149.643
149.748
149.855
149.966
150.078
150.193
150.311
150.431
150.553
150.678
150.806
150.937
151.071
149.907
150.365
150.844
151.344
151.865
152.404
152.961
153.534
154.12
154.717
155.324
155.937
156.555
157.174
157.793
158.409
159.021
159.626
160.221
160.805
161.375
161.927
162.459
162.965
163.445
163.894
164.311
164.695
165.044
165.357
165.632
165.869
166.069
166.232
166.357
166.443
166.492
166.497
166.472
166.412
166.318
166.187
166.021
165.822
165.591
165.331
165.042
164.726
164.386
164.024
163.642
163.242
162.827
162.398
161.959
161.512
161.059
160.603
160.146
159.69
159.239
158.794
158.358
157.933
157.521
157.124
156.744
156.382
156.041
155.723
155.427
155.157
154.913
154.695
154.505
154.344
154.21
154.106
154.03
153.981
153.962
153.968
153.99
154.036
154.104
154.194
154.302
154.428
154.571
154.729
154.9
155.084
155.28
155.486
155.701
155.925
156.156
156.395
156.64
156.891
157.148
157.41
157.677
157.948
158.225
158.507
158.794
159.086
159.383
159.687
156.629
157.567
158.539
159.544
160.579
161.643
162.732
163.841
164.962
166.088
167.212
168.329
169.433
170.52
171.586
172.629
173.645
174.631
175.584
176.501
177.378
178.213
179.002
179.743
180.432
181.065
181.641
182.157
182.612
183.005
183.338
183.609
183.82
183.977
184.079
184.118
184.104
184.039
183.921
183.757
183.552
183.296
182.99
182.639
182.245
181.811
181.339
180.832
180.292
179.722
179.125
178.504
177.859
177.194
176.512
175.817
175.111
174.398
173.681
172.963
172.249
171.542
170.846
170.165
169.504
168.867
168.257
167.678
167.135
166.629
166.166
165.746
165.373
165.048
164.772
164.546
164.372
164.25
164.176
164.166
164.19
164.252
164.362
164.513
164.703
164.928
165.188
165.477
165.794
166.136
166.501
166.886
167.289
167.707
168.14
168.586
169.043
169.51
169.985
170.469
170.959
171.457
171.961
172.472
172.99
173.515
174.046
174.586
175.133
175.689
169.715
171.414
173.133
174.868
176.612
178.361
180.108
181.843
183.556
185.235
186.871
188.456
189.983
191.445
192.839
194.161
195.409
196.579
197.672
198.687
199.629
200.496
201.29
202.01
202.652
203.215
203.7
204.108
204.441
204.695
204.874
204.981
205.014
204.996
204.934
204.811
204.632
204.4
204.13
203.821
203.461
203.053
202.601
202.107
201.574
201.005
200.402
199.769
199.108
198.42
197.704
196.965
196.208
195.434
194.644
193.837
193.018
192.19
191.358
190.524
189.693
188.868
188.053
187.253
186.473
185.717
184.991
184.3
183.651
183.049
182.501
182.012
181.587
181.233
180.949
180.737
180.599
180.556
180.58
180.662
180.814
181.033
181.312
181.647
182.036
182.471
182.949
183.465
184.014
184.591
185.192
185.814
186.454
187.109
187.775
188.449
189.13
189.818
190.514
191.215
191.919
192.625
193.332
194.041
194.751
195.461
196.173
196.885
197.597
198.308
188.586
191
193.379
195.708
197.977
200.181
202.322
204.41
206.42
208.323
210.097
211.732
213.224
214.572
215.778
216.845
217.783
218.598
219.295
219.877
220.346
220.709
220.975
221.157
221.264
221.292
221.273
221.216
221.112
220.961
220.767
220.531
220.254
219.943
219.611
219.266
218.924
218.526
218.092
217.669
217.246
216.8
216.335
215.858
215.37
214.868
214.357
213.84
213.313
212.774
212.226
211.677
211.122
210.55
209.963
209.368
208.768
208.161
207.547
206.925
206.3
205.674
205.053
204.442
203.847
203.273
202.725
202.208
201.73
201.297
200.914
200.585
200.316
200.112
199.972
199.911
199.919
199.987
200.128
200.343
200.633
200.978
201.385
201.848
202.358
202.905
203.483
204.085
204.701
205.327
205.96
206.598
207.23
207.852
208.463
209.064
209.654
210.228
210.78
211.307
211.811
212.294
212.759
213.207
213.638
214.051
214.447
214.826
215.192
215.545
215.886
214.984
217.449
219.708
221.751
223.571
225.167
226.539
227.69
228.646
229.434
230.076
230.581
230.958
231.22
231.381
231.438
231.424
231.361
231.236
231.052
230.817
230.535
230.214
229.861
229.482
229.08
228.667
228.246
227.81
227.384
226.938
226.45
225.979
225.497
225.013
224.558
224.096
223.603
223.099
222.617
222.15
221.68
221.207
220.73
220.251
219.787
219.338
218.886
218.436
218.007
217.594
217.181
216.775
216.39
216.032
215.682
215.334
214.993
214.668
214.36
214.068
213.794
213.539
213.305
213.091
212.902
212.739
212.605
212.505
212.445
212.432
212.452
212.519
212.637
212.806
213.013
213.243
213.552
213.883
214.238
214.618
215.018
215.43
215.844
216.26
216.673
217.074
217.462
217.843
218.209
218.552
218.871
219.177
219.47
219.745
219.996
220.224
220.438
220.643
220.843
221.033
221.213
221.382
221.539
221.685
221.823
221.955
222.081
222.201
222.313
222.417
222.512
222.598
235.96
236.879
237.608
238.165
238.564
238.821
238.945
238.949
238.895
238.764
238.561
238.297
237.985
237.633
237.243
236.824
236.387
235.939
235.478
235.007
234.539
234.065
233.531
233.003
232.495
231.984
231.439
230.898
230.39
229.889
229.353
228.813
228.282
227.74
227.214
226.724
226.215
225.689
225.161
224.654
224.184
223.715
223.231
222.743
222.285
221.852
221.412
220.98
220.582
220.188
219.801
219.436
219.096
218.765
218.451
218.153
217.875
217.612
217.367
217.146
216.952
216.79
216.663
216.569
216.51
216.495
216.507
216.544
216.623
216.759
216.931
217.131
217.358
217.62
217.924
218.227
218.532
218.88
219.252
219.617
219.983
220.348
220.695
221.024
221.335
221.629
221.909
222.168
222.4
222.616
222.817
223.005
223.17
223.312
223.444
223.566
223.679
223.781
223.873
223.951
224.013
224.063
224.107
224.146
224.18
224.209
224.232
224.249
224.262
224.274
224.286
224.299
224.311
244.969
245.061
245.039
244.94
244.755
244.497
244.183
243.826
243.427
242.998
242.556
242.1
241.622
241.142
240.663
240.087
239.528
238.986
238.424
237.851
237.281
236.716
236.148
235.576
234.997
234.416
233.843
233.273
232.695
232.121
231.563
231.011
230.453
229.899
229.347
228.79
228.26
227.751
227.229
226.695
226.158
225.657
225.187
224.706
224.208
223.733
223.295
222.853
222.416
222.02
221.628
221.234
220.891
220.571
220.239
219.931
219.666
219.426
219.177
218.938
218.738
218.569
218.426
218.309
218.223
218.177
218.177
218.196
218.245
218.326
218.444
218.604
218.801
219.027
219.278
219.559
219.863
220.167
220.482
220.819
221.151
221.488
221.834
222.153
222.453
222.729
222.988
223.237
223.462
223.658
223.848
224.027
224.183
224.317
224.45
224.575
224.684
224.764
224.829
224.894
224.951
224.997
225.035
225.066
225.092
225.114
225.13
225.14
225.145
225.146
225.145
225.144
225.141
225.135
225.126
249.119
248.726
248.3
247.855
247.39
246.902
246.426
245.861
245.277
244.709
244.143
243.571
242.993
242.418
241.836
241.235
240.636
240.046
239.453
238.858
238.268
237.684
237.099
236.513
235.928
235.344
234.767
234.19
233.609
233.033
232.469
231.906
231.345
230.789
230.233
229.674
229.145
228.632
228.109
227.576
227.037
226.545
226.077
225.589
225.084
224.631
224.197
223.743
223.321
222.934
222.536
222.159
221.828
221.503
221.161
220.867
220.597
220.361
220.102
219.858
219.658
219.485
219.345
219.245
219.179
219.159
219.17
219.205
219.27
219.365
219.492
219.652
219.842
220.057
220.295
220.555
220.825
221.101
221.395
221.69
221.981
222.29
222.588
222.868
223.144
223.388
223.609
223.838
224.063
224.254
224.418
224.587
224.751
224.892
225.02
225.134
225.222
225.316
225.4
225.467
225.524
225.572
225.61
225.637
225.649
225.657
225.665
225.665
225.661
225.651
225.636
225.616
225.592
225.568
225.547
225.528
253.973
253.63
253.232
252.804
252.355
251.879
251.409
250.853
250.277
249.71
249.148
248.581
248.014
247.446
246.853
246.25
245.655
245.064
244.472
243.881
243.293
242.696
242.093
241.492
240.896
240.299
239.701
239.111
238.523
237.935
237.348
236.763
236.182
235.606
235.028
234.448
233.878
233.314
232.748
232.19
231.638
231.082
230.528
230.007
229.499
228.981
228.451
227.918
227.443
226.977
226.485
225.989
225.557
225.124
224.669
224.268
223.884
223.485
223.13
222.808
222.474
222.136
221.844
221.567
221.317
221.063
220.832
220.628
220.463
220.331
220.231
220.158
220.122
220.122
220.142
220.191
220.271
220.383
220.525
220.693
220.883
221.091
221.314
221.546
221.788
222.042
222.291
222.545
222.82
223.08
223.316
223.558
223.781
223.987
224.2
224.428
224.622
224.796
224.949
225.092
225.263
225.405
225.529
225.639
225.733
225.807
225.877
225.946
225.999
226.031
226.057
226.081
226.102
226.115
226.114
226.11
226.103
226.095
226.085
226.074
226.058
226.038
226.015
255.652
255.096
254.531
253.977
253.425
252.875
252.327
251.749
251.155
250.565
249.98
249.395
248.815
248.227
247.628
247.026
246.428
245.832
245.236
244.643
244.046
243.442
242.839
242.24
241.643
241.045
240.452
239.863
239.275
238.688
238.105
237.525
236.952
236.384
235.813
235.245
234.686
234.128
233.57
233.024
232.48
231.932
231.39
230.882
230.383
229.873
229.348
228.832
228.382
227.921
227.426
226.955
226.541
226.108
225.67
225.288
224.902
224.522
224.183
223.868
223.525
223.188
222.893
222.612
222.346
222.101
221.875
221.674
221.506
221.371
221.268
221.192
221.145
221.135
221.144
221.174
221.229
221.309
221.414
221.542
221.691
221.86
222.042
222.234
222.436
222.644
222.855
223.074
223.301
223.541
223.755
223.958
224.16
224.356
224.558
224.776
224.97
225.151
225.314
225.446
225.623
225.787
225.925
226.051
226.157
226.232
226.306
226.396
226.47
226.514
226.545
226.578
226.604
226.614
226.617
226.616
226.612
226.603
226.589
226.571
226.548
226.522
226.494
256.49
255.918
255.333
254.752
254.174
253.605
253.032
252.446
251.852
251.259
250.665
250.072
249.48
248.88
248.276
247.672
247.072
246.473
245.878
245.285
244.69
244.092
243.498
242.907
242.318
241.731
241.149
240.569
239.991
239.415
238.843
238.277
237.717
237.161
236.603
236.051
235.507
234.96
234.417
233.887
233.357
232.821
232.296
231.803
231.319
230.821
230.3
229.816
229.384
228.927
228.436
228.001
227.598
227.165
226.762
226.393
226.002
225.649
225.318
225.014
224.67
224.331
224.031
223.75
223.479
223.234
223.017
222.822
222.656
222.519
222.41
222.325
222.263
222.226
222.217
222.226
222.256
222.309
222.386
222.481
222.594
222.722
222.86
223.008
223.165
223.328
223.498
223.677
223.864
224.058
224.259
224.44
224.616
224.793
224.985
225.188
225.381
225.563
225.74
225.877
226.036
226.214
226.369
226.511
226.634
226.717
226.799
226.901
226.987
227.044
227.079
227.117
227.15
227.17
227.179
227.18
227.177
227.17
227.156
227.139
227.12
227.097
227.072
257.143
256.56
255.969
255.375
254.783
254.195
253.603
253.005
252.404
251.805
251.208
250.615
250.022
249.425
248.827
248.231
247.637
247.045
246.459
245.874
245.288
244.704
244.123
243.546
242.97
242.398
241.83
241.264
240.701
240.142
239.587
239.037
238.494
237.952
237.411
236.878
236.351
235.819
235.295
234.786
234.272
233.752
233.245
232.775
232.307
231.82
231.312
230.864
230.443
229.989
229.523
229.115
228.713
228.302
227.931
227.564
227.189
226.851
226.52
226.227
225.889
225.552
225.252
224.969
224.703
224.466
224.253
224.06
223.888
223.742
223.623
223.527
223.453
223.4
223.369
223.361
223.368
223.39
223.43
223.487
223.56
223.647
223.746
223.855
223.972
224.096
224.227
224.369
224.521
224.68
224.851
225.017
225.172
225.324
225.498
225.696
225.883
226.061
226.238
226.4
226.534
226.705
226.88
227.038
227.181
227.276
227.363
227.474
227.574
227.646
227.693
227.738
227.779
227.807
227.824
227.832
227.832
227.828
227.819
227.804
227.784
227.76
227.732
227.703
227.674
257.681
257.071
256.462
255.856
255.257
254.661
254.065
253.467
252.869
252.273
251.681
251.094
250.507
249.92
249.333
248.748
248.166
247.587
247.012
246.439
245.868
245.299
244.734
244.172
243.612
243.058
242.507
241.959
241.414
240.874
240.337
239.807
239.282
238.758
238.236
237.726
237.217
236.7
236.202
235.715
235.218
234.715
234.233
233.79
233.336
232.859
232.38
231.958
231.547
231.097
230.669
230.28
229.878
229.506
229.159
228.792
228.431
228.102
227.774
227.476
227.155
226.833
226.535
226.255
225.999
225.767
225.557
225.364
225.19
225.038
224.91
224.803
224.714
224.644
224.591
224.556
224.538
224.538
224.548
224.573
224.613
224.664
224.725
224.796
224.875
224.961
225.056
225.163
225.282
225.41
225.547
225.697
225.832
225.968
226.115
226.305
226.489
226.66
226.831
227.004
227.146
227.283
227.469
227.645
227.807
227.923
228.02
228.133
228.244
228.33
228.392
228.449
228.5
228.539
228.566
228.583
228.59
228.589
228.584
228.573
228.557
228.537
228.514
228.49
228.463
258.149
257.518
256.895
256.28
255.675
255.077
254.481
253.887
253.296
252.707
252.124
251.544
250.967
250.391
249.817
249.245
248.677
248.112
247.552
246.993
246.438
245.886
245.338
244.793
244.252
243.716
243.184
242.655
242.131
241.61
241.094
240.585
240.081
239.576
239.076
238.59
238.099
237.601
237.133
236.668
236.189
235.703
235.258
234.837
234.394
233.929
233.489
233.092
232.686
232.253
231.861
231.477
231.101
230.752
230.427
230.063
229.71
229.388
229.068
228.761
228.456
228.153
227.864
227.596
227.349
227.123
226.915
226.723
226.547
226.389
226.25
226.131
226.03
225.944
225.874
225.819
225.779
225.752
225.737
225.736
225.743
225.761
225.789
225.827
225.872
225.926
225.988
226.063
226.15
226.248
226.356
226.479
226.602
226.723
226.848
227.018
227.199
227.365
227.528
227.698
227.856
227.982
228.153
228.347
228.524
228.665
228.774
228.89
229.009
229.109
229.189
229.26
229.324
229.376
229.415
229.444
229.464
229.476
229.48
229.478
229.472
229.46
229.444
229.425
229.405
259.313
258.633
257.972
257.328
256.698
256.084
255.48
254.883
254.293
253.707
253.126
252.551
251.981
251.414
250.85
250.29
249.733
249.179
248.631
248.085
247.543
247.005
246.472
245.942
245.415
244.894
244.378
243.865
243.357
242.854
242.356
241.861
241.375
240.893
240.407
239.934
239.472
238.997
238.524
238.088
237.643
237.18
236.724
236.312
235.906
235.477
235.033
234.631
234.254
233.848
233.454
233.093
232.717
232.366
232.03
231.721
231.377
231.027
230.709
230.397
230.093
229.8
229.513
229.237
228.978
228.739
228.518
228.313
228.123
227.945
227.782
227.636
227.507
227.393
227.294
227.209
227.136
227.075
227.026
226.989
226.962
226.944
226.936
226.938
226.946
226.963
226.988
227.023
227.07
227.129
227.2
227.283
227.376
227.485
227.592
227.7
227.845
228.015
228.174
228.329
228.492
228.66
228.789
228.943
229.149
229.335
229.499
229.624
229.747
229.875
229.994
230.096
230.187
230.269
230.34
230.4
230.448
230.487
230.515
230.535
230.546
230.551
230.549
230.544
230.535
230.524
259.95
259.2
258.487
257.804
257.147
256.512
255.895
255.293
254.701
254.118
253.544
252.977
252.416
251.861
251.31
250.763
250.221
249.684
249.151
248.623
248.098
247.579
247.064
246.553
246.047
245.546
245.05
244.559
244.073
243.592
243.116
242.644
242.182
241.722
241.257
240.813
240.374
239.915
239.477
239.069
238.641
238.197
237.78
237.392
237.001
236.587
236.179
235.805
235.439
235.053
234.695
234.357
233.996
233.667
233.347
233.047
232.732
232.391
232.078
231.773
231.478
231.197
230.925
230.662
230.412
230.178
229.961
229.758
229.568
229.39
229.224
229.073
228.936
228.812
228.702
228.603
228.514
228.436
228.368
228.31
228.261
228.221
228.189
228.165
228.149
228.142
228.144
228.154
228.177
228.212
228.261
228.322
228.393
228.48
228.586
228.681
228.8
228.953
229.105
229.25
229.404
229.575
229.711
229.859
230.071
230.268
230.448
230.593
230.732
230.878
231.019
231.147
231.263
231.368
231.462
231.545
231.615
231.674
231.722
231.76
231.79
231.811
231.826
231.836
231.843
231.846
231.849
231.851
260.792
259.923
259.121
258.371
257.664
256.993
256.351
255.733
255.133
254.548
253.976
253.415
252.863
252.318
251.78
251.248
250.721
250.2
249.685
249.174
248.668
248.168
247.673
247.182
246.697
246.218
245.744
245.274
244.811
244.354
243.9
243.452
243.016
242.577
242.136
241.723
241.304
240.865
240.466
240.078
239.668
239.253
238.87
238.503
238.129
237.733
237.364
237.018
236.656
236.305
235.978
235.66
235.317
235.005
234.701
234.405
234.111
233.801
233.502
233.21
232.929
232.661
232.402
232.151
231.909
231.681
231.467
231.267
231.079
230.901
230.735
230.581
230.438
230.307
230.186
230.075
229.974
229.88
229.796
229.719
229.651
229.589
229.536
229.49
229.452
229.423
229.402
229.391
229.393
229.406
229.431
229.471
229.523
229.593
229.685
229.771
229.876
230.016
230.166
230.303
230.451
230.62
230.774
230.929
231.139
231.347
231.541
231.705
231.865
232.031
232.196
232.351
232.494
232.627
232.75
232.862
232.962
233.05
233.126
233.191
233.246
233.292
233.331
233.364
233.393
233.419
233.443
233.467
261.995
260.912
259.956
259.094
258.303
257.569
256.881
256.231
255.612
255.017
254.441
253.882
253.336
252.801
252.275
251.757
251.246
250.742
250.244
249.752
249.266
248.786
248.311
247.842
247.379
246.922
246.47
246.024
245.585
245.152
244.72
244.299
243.889
243.469
243.059
242.673
242.274
241.864
241.497
241.128
240.735
240.362
240.001
239.654
239.301
238.935
238.594
238.273
237.927
237.608
237.306
237.014
236.691
236.394
236.107
235.821
235.541
235.257
234.975
234.7
234.434
234.178
233.933
233.697
233.47
233.253
233.048
232.855
232.673
232.501
232.337
232.181
232.034
231.896
231.767
231.646
231.533
231.427
231.328
231.236
231.15
231.071
230.999
230.935
230.879
230.83
230.788
230.757
230.735
230.728
230.734
230.754
230.788
230.841
230.915
230.988
231.08
231.206
231.349
231.482
231.623
231.789
231.963
232.139
232.347
232.566
232.774
232.963
233.153
233.351
233.549
233.74
233.921
234.092
234.253
234.404
234.542
234.668
234.781
234.882
234.971
235.049
235.119
235.181
235.238
235.292
235.345
235.397
263.853
262.36
261.121
260.064
259.132
258.295
257.531
256.826
256.169
255.55
254.961
254.398
253.853
253.325
252.809
252.304
251.809
251.322
250.842
250.37
249.904
249.445
248.992
248.545
248.105
247.671
247.243
246.82
246.407
245.998
245.59
245.199
244.812
244.412
244.038
243.677
243.297
242.922
242.583
242.231
241.866
241.53
241.188
240.863
240.536
240.201
239.885
239.587
239.267
238.974
238.695
238.43
238.134
237.851
237.582
237.311
237.047
236.784
236.521
236.263
236.013
235.772
235.541
235.319
235.106
234.902
234.706
234.52
234.343
234.174
234.014
233.86
233.714
233.575
233.443
233.317
233.198
233.084
232.976
232.873
232.776
232.686
232.601
232.522
232.448
232.38
232.32
232.269
232.228
232.201
232.193
232.198
232.216
232.254
232.309
232.37
232.453
232.567
232.703
232.832
232.974
233.142
233.333
233.531
233.75
233.986
234.215
234.438
234.668
234.905
235.145
235.379
235.606
235.823
236.029
236.225
236.408
236.578
236.734
236.876
237.005
237.122
237.23
237.329
237.422
237.51
237.595
237.68
237.766
264.555
262.847
261.429
260.256
259.248
258.361
257.566
256.843
256.18
255.563
254.984
254.434
253.907
253.399
252.905
252.424
251.954
251.493
251.04
250.596
250.158
249.728
249.305
248.889
248.479
248.076
247.679
247.292
246.907
246.526
246.164
245.8
245.426
245.087
244.748
244.391
244.054
243.741
243.406
243.077
242.771
242.451
242.148
241.852
241.545
241.254
240.982
240.692
240.421
240.165
239.92
239.664
239.399
239.148
238.896
238.649
238.405
238.162
237.923
237.691
237.466
237.25
237.044
236.846
236.654
236.468
236.29
236.119
235.956
235.799
235.648
235.503
235.364
235.23
235.1
234.976
234.855
234.74
234.628
234.522
234.42
234.324
234.234
234.149
234.071
234
233.938
233.888
233.85
233.827
233.821
233.827
233.85
233.891
233.944
234.02
234.13
234.265
234.398
234.546
234.725
234.933
235.161
235.401
235.655
235.915
236.18
236.454
236.738
237.025
237.31
237.589
237.859
238.118
238.363
238.592
238.807
239.006
239.191
239.362
239.52
239.668
239.807
239.94
240.069
240.196
240.323
240.452
267.6
265.362
263.446
261.843
260.542
259.452
258.513
257.686
256.949
256.282
255.67
255.103
254.569
254.062
253.577
253.109
252.654
252.212
251.779
251.356
250.942
250.535
250.136
249.745
249.362
248.984
248.614
248.254
247.894
247.544
247.209
246.869
246.528
246.219
245.905
245.574
245.275
244.985
244.673
244.382
244.103
243.808
243.532
243.268
242.988
242.722
242.477
242.219
241.971
241.741
241.516
241.293
241.057
240.826
240.596
240.37
240.144
239.922
239.704
239.491
239.284
239.085
238.895
238.714
238.537
238.363
238.195
238.032
237.875
237.723
237.577
237.434
237.295
237.16
237.029
236.9
236.775
236.653
236.535
236.42
236.309
236.203
236.102
236.007
235.918
235.837
235.765
235.704
235.655
235.622
235.611
235.615
235.634
235.67
235.725
235.806
235.921
236.063
236.204
236.367
236.565
236.798
237.058
237.326
237.608
237.905
238.216
238.538
238.87
239.206
239.542
239.873
240.196
240.508
240.807
241.092
241.361
241.613
241.85
242.072
242.28
242.477
242.665
242.847
243.024
243.2
243.377
243.555
268.761
266.262
264.139
262.359
260.927
259.755
258.765
257.909
257.159
256.492
255.889
255.337
254.823
254.34
253.88
253.44
253.014
252.602
252.201
251.81
251.428
251.054
250.689
250.332
249.982
249.641
249.307
248.976
248.658
248.35
248.035
247.732
247.451
247.161
246.864
246.6
246.333
246.051
245.797
245.545
245.279
245.034
244.801
244.55
244.311
244.093
243.869
243.646
243.444
243.241
243.047
242.845
242.638
242.432
242.229
242.026
241.824
241.629
241.438
241.251
241.07
240.899
240.735
240.575
240.416
240.26
240.108
239.959
239.814
239.673
239.534
239.397
239.263
239.131
239
238.872
238.745
238.621
238.5
238.382
238.267
238.158
238.053
237.955
237.866
237.785
237.715
237.657
237.615
237.598
237.6
237.616
237.652
237.71
237.796
237.919
238.074
238.23
238.416
238.641
238.906
239.205
239.511
239.828
240.171
240.536
240.917
241.308
241.705
242.103
242.497
242.883
243.258
243.62
243.967
244.296
244.607
244.901
245.179
245.442
245.693
245.935
246.17
246.4
246.63
246.859
247.091
270.003
267.25
264.921
262.977
261.42
260.169
259.132
258.252
257.494
256.831
256.241
255.707
255.217
254.76
254.329
253.919
253.525
253.146
252.778
252.421
252.074
251.736
251.406
251.085
250.774
250.468
250.167
249.882
249.601
249.316
249.051
248.797
248.533
248.277
248.045
247.803
247.556
247.338
247.115
246.88
246.667
246.467
246.249
246.038
245.848
245.661
245.465
245.291
245.117
244.951
244.782
244.602
244.421
244.246
244.068
243.889
243.718
243.552
243.387
243.227
243.075
242.93
242.789
242.648
242.506
242.366
242.227
242.091
241.957
241.824
241.691
241.559
241.428
241.297
241.166
241.037
240.909
240.783
240.66
240.539
240.423
240.311
240.207
240.11
240.023
239.947
239.885
239.839
239.819
239.821
239.839
239.879
239.946
240.043
240.182
240.352
240.532
240.749
241.013
241.318
241.66
242.01
242.38
242.781
243.21
243.656
244.115
244.58
245.046
245.509
245.964
246.407
246.834
247.244
247.635
248.006
248.359
248.693
249.013
249.319
249.616
249.905
250.191
250.475
250.76
251.048
251.34
251.638
274.774
271.315
268.319
265.794
263.7
262.031
260.71
259.633
258.736
257.975
257.321
256.748
256.238
255.774
255.346
254.947
254.569
254.209
253.864
253.532
253.211
252.901
252.6
252.308
252.027
251.751
251.483
251.229
250.977
250.727
250.497
250.272
250.039
249.825
249.622
249.409
249.202
249.018
248.827
248.626
248.448
248.281
248.099
247.918