/*--------------------------------*- C++ -*----------------------------------*\
| =========                 |                                                 |
| \\      /  F ield         | OpenFOAM: The Open Source CFD Toolbox           |
|  \\    /   O peration     | Version:  v1706                                 |
|   \\  /    A nd           | Web:      www.OpenFOAM.com                      |
|    \\/     M anipulation  |                                                 |
\*---------------------------------------------------------------------------*/
FoamFile
{
    version     2.0;
    format      ascii;
    class       volVectorField;
    location    "1.8e-05";
    object      U;
}
// * * * * * * * * * * * * * * * * * * * * * * * * * * * * * * * * * * * * * //

dimensions      [0 1 -1 0 0 0 0];


internalField   nonuniform List<vector> 
29871
(
(978.577 0.0034058 7.29362e-15)
(978.577 0.00369282 4.58856e-15)
(978.577 0.00400007 4.56613e-15)
(978.577 0.00432664 3.81695e-15)
(978.577 0.00467042 2.65152e-15)
(978.576 0.00502874 3.30706e-15)
(978.576 0.00539901 4.21422e-15)
(978.576 0.00577907 4.45366e-15)
(978.576 0.00616708 4.97932e-15)
(978.575 0.00656123 4.88206e-15)
(978.575 0.00695963 5.04484e-15)
(978.575 0.00736054 6.31298e-15)
(978.574 0.00776267 5.21966e-15)
(978.574 0.00816546 5.57899e-15)
(978.574 0.00856889 4.04358e-15)
(978.574 0.00897297 2.71198e-15)
(978.573 0.00937726 3.30863e-15)
(978.573 0.00978049 4.21493e-15)
(978.573 0.0101806 4.48748e-15)
(978.573 0.0105748 4.34626e-15)
(978.573 0.0109601 3.91162e-15)
(978.572 0.0113332 4.11391e-15)
(978.572 0.0116916 2.77018e-15)
(978.572 0.0120329 4.60334e-15)
(978.572 0.0123557 6.09162e-15)
(978.572 0.0126591 5.24151e-15)
(978.571 0.0129418 6.40724e-15)
(978.571 0.0132026 3.47594e-15)
(978.571 0.0134397 3.23397e-15)
(978.571 0.0136514 5.02536e-15)
(978.571 0.0138358 4.9594e-15)
(978.571 0.0139905 3.62553e-15)
(978.571 0.0141145 5.13575e-15)
(978.571 0.0142064 6.7497e-15)
(978.571 0.0142617 4.02219e-15)
(978.571 0.0142825 2.51059e-15)
(978.571 0.0142771 1.88648e-15)
(978.571 0.0142376 5.10857e-15)
(978.571 0.0141658 5.26708e-15)
(978.571 0.0140623 5.51553e-15)
(978.571 0.0139278 6.57033e-15)
(978.571 0.0137636 6.86217e-15)
(978.572 0.0135711 6.62804e-15)
(978.572 0.013352 3.53616e-15)
(978.572 0.013108 3.76577e-15)
(978.572 0.012841 4.50268e-15)
(978.572 0.0125531 3.18817e-15)
(978.573 0.0122467 1.19694e-15)
(978.573 0.0119242 2.6933e-15)
(978.573 0.0115886 6.47789e-15)
(978.573 0.0112423 4.6347e-15)
(978.574 0.0108881 1.91963e-15)
(978.574 0.0105281 3.71677e-15)
(978.574 0.0101649 5.36989e-15)
(978.574 0.00980087 4.54533e-15)
(978.574 0.00943822 4.74712e-15)
(978.575 0.00907913 5.55323e-15)
(978.575 0.00872548 6.10641e-15)
(978.575 0.0083788 4.58003e-15)
(978.575 0.00804028 3.6689e-15)
(978.575 0.00771086 1.86411e-15)
(978.576 0.0073913 1.74692e-15)
(978.576 0.00708234 3.0318e-15)
(978.576 0.00678469 6.42876e-16)
(978.576 0.00649911 5.17468e-15)
(978.576 0.00622635 5.53743e-15)
(978.576 0.00596708 3.63881e-15)
(978.577 0.00572209 2.64708e-15)
(978.577 0.00549237 2.46794e-15)
(978.577 0.00527872 2.82947e-15)
(978.577 0.00508184 4.29907e-15)
(978.577 0.00490226 4.08064e-15)
(978.577 0.00474016 1.83023e-15)
(978.577 0.00459579 3.36435e-15)
(978.577 0.00446898 3.07382e-15)
(978.577 0.00435895 5.12368e-15)
(978.577 0.00426479 1.75821e-15)
(978.577 0.00418579 3.50024e-15)
(978.577 0.00412058 2.73845e-15)
(978.577 0.00406636 6.12586e-15)
(978.577 0.00402678 5.88687e-15)
(978.577 0.0039971 4.84756e-15)
(978.577 0.00397171 4.2593e-15)
(978.577 0.00396532 4.17554e-15)
(978.577 0.00396537 5.2123e-15)
(978.577 0.00397011 4.77046e-15)
(978.577 0.00397977 4.66031e-15)
(978.577 0.00399399 5.50236e-15)
(978.577 0.00401376 5.38883e-15)
(978.577 0.00403981 4.7219e-15)
(978.577 0.00407152 4.5351e-15)
(978.577 0.00410796 2.90904e-15)
(978.577 0.00414845 4.19748e-15)
(978.577 0.00419252 4.43376e-15)
(978.577 0.00423982 3.56202e-15)
(978.577 0.00428993 3.78446e-15)
(978.577 0.00434245 3.89891e-15)
(978.577 0.00439699 3.92856e-15)
(978.577 0.00445328 3.91261e-15)
(978.577 0.00451116 3.84149e-15)
(978.577 0.00457058 4.66756e-15)
(978.577 0.00463159 3.62036e-15)
(978.577 0.00469428 2.28416e-15)
(978.577 0.00475876 3.0908e-15)
(978.577 0.00482512 1.62223e-15)
(978.565 0.0190466 1.19742e-14)
(978.563 0.020663 1.22198e-14)
(978.562 0.0223468 1.36682e-14)
(978.561 0.0240987 1.32531e-14)
(978.56 0.0259232 1.2202e-14)
(978.558 0.0278263 1.39122e-14)
(978.557 0.029813 1.26752e-14)
(978.555 0.0318854 1.25526e-14)
(978.554 0.0340425 1.25663e-14)
(978.552 0.0362811 1.24924e-14)
(978.551 0.0385967 1.2032e-14)
(978.549 0.0409831 1.17894e-14)
(978.548 0.0434309 1.27973e-14)
(978.546 0.0459267 9.05186e-15)
(978.544 0.0484535 7.76739e-15)
(978.543 0.0509932 9.88232e-15)
(978.541 0.0535284 1.21811e-14)
(978.54 0.0560436 1.14756e-14)
(978.538 0.0585253 1.00042e-14)
(978.537 0.060962 8.8895e-15)
(978.535 0.0633436 9.81226e-15)
(978.534 0.0656604 1.11408e-14)
(978.533 0.067902 1.28997e-14)
(978.532 0.0700562 1.29792e-14)
(978.531 0.0721086 1.06868e-14)
(978.53 0.0740436 1.17564e-14)
(978.529 0.0758454 1.25495e-14)
(978.528 0.0774998 1.12627e-14)
(978.527 0.0789947 1.1597e-14)
(978.527 0.0803209 1.16735e-14)
(978.527 0.0814709 1.24498e-14)
(978.526 0.08244 8.30341e-15)
(978.526 0.083228 1.19651e-14)
(978.526 0.083832 1.475e-14)
(978.526 0.0842481 1.35288e-14)
(978.526 0.0844741 1.22984e-14)
(978.527 0.084492 9.71584e-15)
(978.527 0.0843501 1.23649e-14)
(978.528 0.0840249 1.16291e-14)
(978.528 0.08352 1.27258e-14)
(978.529 0.0828394 1.26663e-14)
(978.53 0.0819888 1.16969e-14)
(978.531 0.0809757 1.21068e-14)
(978.532 0.0798088 1.09582e-14)
(978.533 0.0784974 1.05238e-14)
(978.534 0.0770515 1.17291e-14)
(978.535 0.0754818 1.12197e-14)
(978.536 0.0737991 8.39042e-15)
(978.538 0.0720145 1.0483e-14)
(978.539 0.070139 9.41238e-15)
(978.54 0.0681846 8.40146e-15)
(978.542 0.0661641 1.05391e-14)
(978.543 0.064091 1.18701e-14)
(978.544 0.0619783 9.73525e-15)
(978.546 0.0598388 1.01175e-14)
(978.547 0.0576848 9.74076e-15)
(978.548 0.0555283 1.15418e-14)
(978.55 0.0533818 1.21974e-14)
(978.551 0.0512578 8.01383e-15)
(978.552 0.0491692 8.14724e-15)
(978.553 0.0471284 9.69306e-15)
(978.555 0.0451471 7.13196e-15)
(978.556 0.0432358 9.46578e-15)
(978.557 0.0414033 8.17837e-15)
(978.558 0.0396571 1.04765e-14)
(978.559 0.0380029 1.04367e-14)
(978.559 0.0364453 9.04789e-15)
(978.56 0.0349869 1.11141e-14)
(978.561 0.0336283 1.1483e-14)
(978.561 0.0323695 9.03468e-15)
(978.562 0.0312101 1.15303e-14)
(978.563 0.0301489 8.06309e-15)
(978.563 0.0291849 7.8521e-15)
(978.563 0.0283163 1.05476e-14)
(978.564 0.0275404 8.45274e-15)
(978.564 0.0268573 9.45834e-15)
(978.564 0.0262653 8.45047e-15)
(978.564 0.0257623 9.73588e-15)
(978.564 0.0253465 9.11836e-15)
(978.565 0.0250138 1.15456e-14)
(978.565 0.0247594 1.02384e-14)
(978.565 0.0245779 9.59603e-15)
(978.565 0.0244818 9.46253e-15)
(978.564 0.0244663 1.14288e-14)
(978.564 0.024487 1.16928e-14)
(978.564 0.0245369 1.17525e-14)
(978.564 0.0246206 1.12018e-14)
(978.564 0.0247521 1.10099e-14)
(978.564 0.0249278 1.14168e-14)
(978.564 0.0251409 1.11524e-14)
(978.564 0.0253854 9.90544e-15)
(978.563 0.0256556 9.35994e-15)
(978.563 0.0259467 1.26741e-14)
(978.563 0.0262544 1.13095e-14)
(978.563 0.0265755 9.84586e-15)
(978.562 0.0269075 9.34126e-15)
(978.562 0.0272491 9.66798e-15)
(978.562 0.0275995 1.04729e-14)
(978.562 0.0279586 9.18321e-15)
(978.561 0.0283262 6.39999e-15)
(978.561 0.028702 9.56694e-15)
(978.561 0.0290857 1.0287e-14)
(978.561 0.0294774 7.79866e-15)
(978.56 0.0298771 8.2438e-15)
(978.56 0.0302855 6.39255e-15)
(978.535 0.0534909 2.32223e-14)
(978.532 0.0582315 2.27515e-14)
(978.528 0.0632917 1.83853e-14)
(978.524 0.0686712 2.19319e-14)
(978.52 0.0743578 2.32319e-14)
(978.515 0.0803304 2.02533e-14)
(978.511 0.0865643 2.06366e-14)
(978.506 0.0930366 2.02485e-14)
(978.502 0.0997281 2.22798e-14)
(978.497 0.106622 2.00456e-14)
(978.492 0.113699 1.84992e-14)
(978.487 0.120935 1.67822e-14)
(978.482 0.128304 1.58902e-14)
(978.477 0.135777 1.90424e-14)
(978.472 0.14333 1.9423e-14)
(978.467 0.150943 1.89106e-14)
(978.463 0.158598 1.76366e-14)
(978.458 0.166272 1.85112e-14)
(978.453 0.173936 1.72728e-14)
(978.449 0.181555 1.74171e-14)
(978.444 0.189085 1.64889e-14)
(978.44 0.196482 1.522e-14)
(978.436 0.203699 1.84356e-14)
(978.432 0.210688 2.07842e-14)
(978.429 0.217406 1.60832e-14)
(978.425 0.223815 1.87555e-14)
(978.422 0.229877 2.01859e-14)
(978.42 0.235561 1.88757e-14)
(978.417 0.240835 1.82073e-14)
(978.416 0.24567 1.82193e-14)
(978.414 0.250035 1.83061e-14)
(978.413 0.253902 1.91805e-14)
(978.412 0.257245 1.76513e-14)
(978.411 0.260032 1.89311e-14)
(978.411 0.262245 1.96783e-14)
(978.411 0.26388 2.00304e-14)
(978.412 0.264882 1.99821e-14)
(978.413 0.265198 1.86979e-14)
(978.414 0.265036 1.8677e-14)
(978.416 0.264337 1.96211e-14)
(978.418 0.263025 1.87638e-14)
(978.42 0.261139 1.74587e-14)
(978.423 0.258703 1.78135e-14)
(978.426 0.255736 1.79395e-14)
(978.429 0.252262 1.85103e-14)
(978.432 0.248311 1.78095e-14)
(978.436 0.243917 1.97161e-14)
(978.44 0.239115 1.81226e-14)
(978.444 0.233948 1.61701e-14)
(978.448 0.228457 1.56048e-14)
(978.452 0.222687 1.48072e-14)
(978.456 0.216682 1.69188e-14)
(978.46 0.210483 1.50926e-14)
(978.464 0.204128 1.52724e-14)
(978.469 0.197659 1.65479e-14)
(978.473 0.191115 1.74932e-14)
(978.477 0.184537 1.59704e-14)
(978.481 0.177963 1.93051e-14)
(978.485 0.171427 1.9635e-14)
(978.489 0.164961 1.5151e-14)
(978.493 0.158592 1.46045e-14)
(978.496 0.152348 1.38103e-14)
(978.5 0.146252 1.61819e-14)
(978.503 0.14033 1.74994e-14)
(978.506 0.134607 1.381e-14)
(978.509 0.129105 1.51011e-14)
(978.512 0.123849 1.54931e-14)
(978.514 0.118858 1.53788e-14)
(978.516 0.114152 1.65421e-14)
(978.519 0.109751 1.67753e-14)
(978.521 0.10567 1.57219e-14)
(978.522 0.101917 1.73907e-14)
(978.524 0.0984983 1.43056e-14)
(978.525 0.0954157 1.56923e-14)
(978.526 0.0926638 1.63358e-14)
(978.527 0.0902426 1.34597e-14)
(978.528 0.0881356 1.67392e-14)
(978.529 0.0863248 1.75691e-14)
(978.529 0.0848068 1.49123e-14)
(978.529 0.0835565 1.45624e-14)
(978.529 0.0825595 1.75205e-14)
(978.529 0.0817916 1.69656e-14)
(978.529 0.0812669 1.61499e-14)
(978.529 0.0810097 1.59644e-14)
(978.529 0.0809943 1.77026e-14)
(978.529 0.0810756 1.69535e-14)
(978.528 0.0812608 1.48276e-14)
(978.528 0.0815924 1.54102e-14)
(978.527 0.0820727 1.65568e-14)
(978.526 0.0826899 1.51507e-14)
(978.526 0.0834279 1.59905e-14)
(978.525 0.0842711 1.46005e-14)
(978.524 0.0852064 1.4417e-14)
(978.524 0.0862234 1.6519e-14)
(978.523 0.087314 1.67054e-14)
(978.522 0.0884709 1.48714e-14)
(978.521 0.0896873 1.39067e-14)
(978.52 0.0909566 1.71149e-14)
(978.519 0.092273 1.62855e-14)
(978.519 0.0936317 1.49801e-14)
(978.518 0.0950299 1.4576e-14)
(978.517 0.0964664 1.5434e-14)
(978.516 0.0979411 1.51907e-14)
(978.515 0.099455 1.41279e-14)
(978.514 0.101009 1.40122e-14)
(978.513 0.102606 1.4207e-14)
(978.456 0.146299 3.11237e-14)
(978.446 0.159228 3.22993e-14)
(978.436 0.172785 2.78634e-14)
(978.425 0.186968 2.88345e-14)
(978.414 0.201797 2.88251e-14)
(978.403 0.217308 2.76948e-14)
(978.391 0.233536 3.01705e-14)
(978.379 0.250501 2.91146e-14)
(978.367 0.268196 2.63717e-14)
(978.354 0.286591 2.63114e-14)
(978.341 0.30564 2.84077e-14)
(978.327 0.325295 2.72489e-14)
(978.314 0.345504 2.64493e-14)
(978.3 0.3662 2.62604e-14)
(978.287 0.387289 2.6899e-14)
(978.273 0.40865 2.481e-14)
(978.26 0.430146 2.56072e-14)
(978.247 0.451644 2.63586e-14)
(978.234 0.473019 2.63458e-14)
(978.221 0.494163 2.59944e-14)
(978.209 0.514976 2.57341e-14)
(978.198 0.535364 2.80826e-14)
(978.187 0.555239 2.82862e-14)
(978.177 0.574508 2.65506e-14)
(978.167 0.59307 2.55116e-14)
(978.158 0.610816 2.65344e-14)
(978.15 0.627632 2.82376e-14)
(978.143 0.643406 2.50015e-14)
(978.137 0.658029 2.35931e-14)
(978.131 0.671402 2.57734e-14)
(978.127 0.683434 2.58741e-14)
(978.124 0.694044 2.5928e-14)
(978.122 0.703174 2.52897e-14)
(978.121 0.710787 2.72815e-14)
(978.12 0.716859 2.62568e-14)
(978.121 0.721395 2.65767e-14)
(978.123 0.724302 2.71984e-14)
(978.127 0.725255 2.48807e-14)
(978.13 0.724519 2.44545e-14)
(978.134 0.722806 2.36973e-14)
(978.14 0.719434 2.60267e-14)
(978.146 0.71448 2.6664e-14)
(978.154 0.70803 2.44567e-14)
(978.162 0.70016 2.5892e-14)
(978.17 0.690934 2.60144e-14)
(978.179 0.680426 2.41775e-14)
(978.189 0.668715 2.3754e-14)
(978.199 0.655891 2.50533e-14)
(978.21 0.642047 2.75567e-14)
(978.221 0.627275 2.28359e-14)
(978.232 0.611675 2.13114e-14)
(978.243 0.595357 2.13847e-14)
(978.255 0.578441 2.28274e-14)
(978.266 0.561052 2.50091e-14)
(978.278 0.54331 2.18029e-14)
(978.289 0.525328 2.25307e-14)
(978.301 0.50722 2.52487e-14)
(978.312 0.489094 2.51368e-14)
(978.323 0.471064 2.34134e-14)
(978.333 0.453241 2.31547e-14)
(978.343 0.435735 2.38188e-14)
(978.353 0.418644 2.09015e-14)
(978.362 0.402058 2.06453e-14)
(978.371 0.386053 2.07123e-14)
(978.379 0.370693 2.07628e-14)
(978.386 0.356028 2.09465e-14)
(978.394 0.342101 2.09557e-14)
(978.4 0.328946 2.05834e-14)
(978.406 0.316592 2.07518e-14)
(978.412 0.30505 2.10762e-14)
(978.416 0.294322 2.2066e-14)
(978.421 0.284433 2.18453e-14)
(978.425 0.275398 2.17647e-14)
(978.428 0.267207 2.18587e-14)
(978.431 0.259885 1.98713e-14)
(978.433 0.253412 1.99199e-14)
(978.435 0.247778 2.26559e-14)
(978.436 0.24303 2.2396e-14)
(978.437 0.239077 2.26551e-14)
(978.437 0.235934 2.42853e-14)
(978.437 0.23359 2.2669e-14)
(978.437 0.23182 2.09073e-14)
(978.436 0.230915 1.90369e-14)
(978.435 0.230871 2.14223e-14)
(978.434 0.231121 2.13418e-14)
(978.433 0.231668 1.94122e-14)
(978.432 0.232695 2.16826e-14)
(978.43 0.234235 2.37567e-14)
(978.428 0.236225 2.22192e-14)
(978.426 0.238601 1.9901e-14)
(978.424 0.241314 2.07007e-14)
(978.421 0.244324 2.00978e-14)
(978.419 0.24759 2.11058e-14)
(978.416 0.251077 2.18519e-14)
(978.414 0.254748 1.94802e-14)
(978.411 0.258573 1.97535e-14)
(978.408 0.262529 2.41008e-14)
(978.405 0.266598 2.26155e-14)
(978.403 0.270769 1.98427e-14)
(978.4 0.275037 2.17673e-14)
(978.397 0.279398 2.12738e-14)
(978.394 0.283848 2.01593e-14)
(978.391 0.288386 2.16993e-14)
(978.388 0.293015 2.04228e-14)
(978.385 0.29774 1.89747e-14)
(978.381 0.302567 1.98438e-14)
(978.287 0.342557 3.84699e-14)
(978.263 0.373394 3.9339e-14)
(978.238 0.406398 3.84755e-14)
(978.211 0.441614 3.7671e-14)
(978.183 0.478996 3.88381e-14)
(978.154 0.518415 3.61902e-14)
(978.124 0.559697 3.66848e-14)
(978.094 0.602669 3.94931e-14)
(978.062 0.647183 4.02479e-14)
(978.03 0.693126 3.86935e-14)
(977.997 0.740407 3.57896e-14)
(977.964 0.788924 3.57556e-14)
(977.93 0.838535 3.65559e-14)
(977.896 0.889046 3.40274e-14)
(977.863 0.940238 3.49705e-14)
(977.829 0.991911 3.75427e-14)
(977.796 1.04391 3.5548e-14)
(977.764 1.09609 3.7329e-14)
(977.732 1.14832 3.59832e-14)
(977.701 1.20041 3.41699e-14)
(977.671 1.2521 3.38874e-14)
(977.642 1.30312 3.38399e-14)
(977.614 1.35315 3.62784e-14)
(977.588 1.40189 3.78171e-14)
(977.563 1.44902 3.4245e-14)
(977.54 1.49428 3.31789e-14)
(977.519 1.53742 3.33932e-14)
(977.5 1.57822 2.96383e-14)
(977.483 1.61645 3.01475e-14)
(977.469 1.65189 3.25838e-14)
(977.457 1.68431 3.25907e-14)
(977.447 1.71352 3.25426e-14)
(977.44 1.73934 3.27435e-14)
(977.435 1.7616 3.26907e-14)
(977.433 1.78011 3.35192e-14)
(977.433 1.79471 3.30607e-14)
(977.436 1.80555 3.4809e-14)
(977.442 1.81248 3.43656e-14)
(977.452 1.81452 2.9153e-14)
(977.46 1.81253 3.03617e-14)
(977.471 1.80824 3.3139e-14)
(977.485 1.79978 3.3176e-14)
(977.502 1.78736 3.14172e-14)
(977.52 1.77123 3.11347e-14)
(977.541 1.75158 3.31007e-14)
(977.562 1.7286 3.26029e-14)
(977.585 1.70247 3.18647e-14)
(977.61 1.67343 3.09518e-14)
(977.635 1.64172 2.99111e-14)
(977.662 1.60761 3.10679e-14)
(977.689 1.57137 2.94817e-14)
(977.716 1.5333 2.80808e-14)
(977.744 1.49367 2.86765e-14)
(977.772 1.45272 3.23254e-14)
(977.8 1.41069 3.1817e-14)
(977.828 1.36784 3.03418e-14)
(977.855 1.32444 3.07092e-14)
(977.882 1.28074 3.15799e-14)
(977.909 1.237 3.07485e-14)
(977.935 1.19343 2.90447e-14)
(977.96 1.15025 2.9348e-14)
(977.984 1.10765 3.09354e-14)
(978.008 1.06583 2.90851e-14)
(978.03 1.02499 2.84866e-14)
(978.051 0.985354 2.95506e-14)
(978.071 0.947113 2.8061e-14)
(978.09 0.910467 2.52794e-14)
(978.107 0.875592 2.62601e-14)
(978.123 0.842645 2.60829e-14)
(978.138 0.811751 2.79448e-14)
(978.151 0.783033 2.81036e-14)
(978.162 0.756625 2.82149e-14)
(978.172 0.732533 3.02467e-14)
(978.181 0.710725 2.79193e-14)
(978.188 0.691284 2.64146e-14)
(978.194 0.674134 2.77017e-14)
(978.199 0.659183 2.71792e-14)
(978.202 0.646529 2.77229e-14)
(978.204 0.635829 2.83635e-14)
(978.205 0.627103 2.88228e-14)
(978.205 0.620584 2.96846e-14)
(978.204 0.615428 2.93432e-14)
(978.203 0.612309 2.58422e-14)
(978.199 0.611673 2.58328e-14)
(978.197 0.612121 2.78965e-14)
(978.194 0.613358 2.82428e-14)
(978.19 0.615787 2.75171e-14)
(978.185 0.619543 2.81038e-14)
(978.179 0.624528 2.88474e-14)
(978.174 0.630603 2.71331e-14)
(978.168 0.637631 2.77431e-14)
(978.161 0.64549 2.93422e-14)
(978.154 0.654078 2.64876e-14)
(978.147 0.663312 2.61081e-14)
(978.14 0.673131 2.66859e-14)
(978.133 0.683487 2.47266e-14)
(978.125 0.694342 2.60796e-14)
(978.118 0.705663 2.71383e-14)
(978.11 0.717414 2.48917e-14)
(978.101 0.729565 2.63423e-14)
(978.093 0.742094 2.69544e-14)
(978.085 0.754989 2.49325e-14)
(978.076 0.768252 2.64452e-14)
(978.067 0.781888 2.80381e-14)
(978.057 0.795912 2.64344e-14)
(978.048 0.810336 2.57764e-14)
(978.038 0.825177 2.74411e-14)
(977.844 0.8647 4.66281e-14)
(977.785 0.942172 4.53659e-14)
(977.723 1.02348 4.56574e-14)
(977.658 1.10851 4.45105e-14)
(977.592 1.1973 4.55338e-14)
(977.523 1.29003 4.63631e-14)
(977.453 1.38694 4.87255e-14)
(977.38 1.48819 4.65228e-14)
(977.305 1.59384 4.66213e-14)
(977.228 1.70374 4.599e-14)
(977.15 1.81763 4.32687e-14)
(977.07 1.93516 4.49834e-14)
(976.989 2.05597 4.43507e-14)
(976.907 2.17975 4.33225e-14)
(976.826 2.30617 4.50925e-14)
(976.744 2.43474 4.28932e-14)
(976.663 2.56476 4.0957e-14)
(976.583 2.69535 4.18176e-14)
(976.505 2.82559 4.1684e-14)
(976.429 2.95465 4.1525e-14)
(976.356 3.08181 4.13318e-14)
(976.286 3.20644 4.18517e-14)
(976.22 3.32799 4.40487e-14)
(976.157 3.44597 4.2252e-14)
(976.099 3.55984 3.74798e-14)
(976.045 3.66901 3.89753e-14)
(975.996 3.77285 3.91033e-14)
(975.951 3.87074 3.87152e-14)
(975.913 3.96213 4.07993e-14)
(975.879 4.04652 4.0268e-14)
(975.852 4.12342 4.06695e-14)
(975.83 4.19234 4.07464e-14)
(975.815 4.25281 4.11578e-14)
(975.806 4.30448 4.03567e-14)
(975.803 4.34713 4.21592e-14)
(975.806 4.38045 4.11227e-14)
(975.815 4.40482 3.99969e-14)
(975.831 4.41929 3.83045e-14)
(975.856 4.42112 3.78312e-14)
(975.876 4.4135 3.97537e-14)
(975.905 4.40084 3.92308e-14)
(975.941 4.37825 3.89873e-14)
(975.983 4.34609 3.89238e-14)
(976.029 4.30504 3.84068e-14)
(976.079 4.25562 4.05456e-14)
(976.132 4.19823 3.92875e-14)
(976.189 4.13333 3.80602e-14)
(976.249 4.06139 3.74924e-14)
(976.311 3.983 3.69698e-14)
(976.375 3.89871 3.88603e-14)
(976.44 3.80913 3.65309e-14)
(976.507 3.71485 3.43937e-14)
(976.575 3.6166 3.68489e-14)
(976.643 3.51513 3.9429e-14)
(976.711 3.41125 4.10901e-14)
(976.779 3.30566 3.95539e-14)
(976.846 3.19906 3.73588e-14)
(976.911 3.09211 3.37265e-14)
(976.975 2.98548 3.42007e-14)
(977.037 2.87984 3.57826e-14)
(977.097 2.77586 3.60359e-14)
(977.154 2.67413 3.47852e-14)
(977.209 2.57517 3.61985e-14)
(977.26 2.4794 3.75863e-14)
(977.309 2.38719 3.3159e-14)
(977.354 2.29883 3.42932e-14)
(977.396 2.21457 4.00398e-14)
(977.434 2.13464 3.46328e-14)
(977.47 2.05928 3.11094e-14)
(977.502 1.98869 3.53614e-14)
(977.53 1.92303 3.47438e-14)
(977.555 1.86229 3.2419e-14)
(977.577 1.80669 3.38209e-14)
(977.596 1.75666 3.45859e-14)
(977.611 1.71199 3.4587e-14)
(977.623 1.67265 3.41086e-14)
(977.632 1.63922 3.42141e-14)
(977.638 1.61093 3.47123e-14)
(977.64 1.58793 3.44001e-14)
(977.64 1.57119 3.16382e-14)
(977.638 1.5581 3.0701e-14)
(977.633 1.54987 3.47427e-14)
(977.623 1.54892 3.45301e-14)
(977.617 1.55044 3.35604e-14)
(977.609 1.55415 3.29436e-14)
(977.597 1.56124 3.21354e-14)
(977.583 1.57214 3.26034e-14)
(977.568 1.58648 3.37688e-14)
(977.551 1.60388 3.38435e-14)
(977.534 1.62403 3.245e-14)
(977.516 1.64665 3.36955e-14)
(977.497 1.6715 3.18534e-14)
(977.477 1.69833 3.21566e-14)
(977.456 1.72695 3.40251e-14)
(977.435 1.75713 3.30323e-14)
(977.413 1.78866 3.06588e-14)
(977.391 1.82136 3.11708e-14)
(977.368 1.85504 3.26539e-14)
(977.345 1.88961 3.06823e-14)
(977.322 1.92496 3.16215e-14)
(977.298 1.96106 3.3577e-14)
(977.274 1.99785 3.28141e-14)
(977.249 2.03533 3.34966e-14)
(977.224 2.0735 3.23342e-14)
(977.198 2.11237 3.0328e-14)
(977.172 2.152 3.0966e-14)
(977.145 2.19246 3.36596e-14)
(977.181 1.60996 5.37199e-14)
(977.062 1.76046 5.40548e-14)
(976.936 1.92147 5.43124e-14)
(976.802 2.09376 5.09868e-14)
(976.661 2.27809 5.17683e-14)
(976.513 2.47501 5.1775e-14)
(976.357 2.68454 5.31002e-14)
(976.195 2.90596 5.52958e-14)
(976.027 3.13811 5.39181e-14)
(975.855 3.3797 5.36416e-14)
(975.678 3.62964 5.05246e-14)
(975.498 3.88709 5.27909e-14)
(975.316 4.15144 5.5071e-14)
(975.131 4.42219 5.16657e-14)
(974.944 4.69888 5.06524e-14)
(974.757 4.98091 5.10004e-14)
(974.569 5.26727 5.08994e-14)
(974.383 5.55662 5.13357e-14)
(974.199 5.84752 5.03165e-14)
(974.018 6.1388 4.99706e-14)
(973.842 6.42963 4.91504e-14)
(973.67 6.71917 4.9106e-14)
(973.504 7.00635 4.85698e-14)
(973.345 7.28976 4.72802e-14)
(973.193 7.56776 4.80934e-14)
(973.049 7.83854 5.05387e-14)
(972.914 8.10032 4.97897e-14)
(972.789 8.35149 4.90163e-14)
(972.675 8.5908 4.93707e-14)
(972.572 8.81723 4.81846e-14)
(972.48 9.02978 4.76313e-14)
(972.401 9.22728 4.7493e-14)
(972.334 9.40857 4.95927e-14)
(972.281 9.57256 5.04557e-14)
(972.241 9.71827 4.84328e-14)
(972.215 9.84487 4.6084e-14)
(972.202 9.95169 4.45871e-14)
(972.204 10.0375 4.59311e-14)
(972.22 10.1017 4.63742e-14)
(972.249 10.1472 4.6337e-14)
(972.295 10.1705 4.66751e-14)
(972.355 10.1642 4.64569e-14)
(972.404 10.1462 4.5046e-14)
(972.476 10.1108 4.56544e-14)
(972.563 10.0533 4.69942e-14)
(972.661 9.97543 4.67846e-14)
(972.769 9.87838 4.61807e-14)
(972.884 9.76318 4.68155e-14)
(973.007 9.63088 4.7423e-14)
(973.137 9.48267 4.65961e-14)
(973.272 9.31977 4.40891e-14)
(973.412 9.1434 4.37803e-14)
(973.556 8.95488 4.4106e-14)
(973.703 8.75569 4.39399e-14)
(973.852 8.54735 4.56637e-14)
(974.001 8.33118 4.1392e-14)
(974.152 8.10835 4.09238e-14)
(974.301 7.88005 4.57938e-14)
(974.45 7.6476 4.44329e-14)
(974.596 7.41244 4.12288e-14)
(974.74 7.17595 4.20417e-14)
(974.88 6.93942 4.33608e-14)
(975.017 6.70406 4.05172e-14)
(975.149 6.47102 4.17553e-14)
(975.276 6.24152 4.16116e-14)
(975.397 6.01687 4.1257e-14)
(975.512 5.7984 4.61625e-14)
(975.62 5.58746 4.2845e-14)
(975.721 5.38533 4.27138e-14)
(975.815 5.19314 4.39944e-14)
(975.9 5.01187 4.15132e-14)
(975.977 4.84226 4.04554e-14)
(976.045 4.68486 3.95441e-14)
(976.105 4.54014 4.03684e-14)
(976.157 4.40881 4.15677e-14)
(976.2 4.291 4.08564e-14)
(976.235 4.18562 4.08617e-14)
(976.262 4.0931 4.11835e-14)
(976.281 4.01464 3.88645e-14)
(976.293 3.94785 4.0527e-14)
(976.298 3.89317 3.91861e-14)
(976.297 3.85274 3.98828e-14)
(976.289 3.82079 3.8127e-14)
(976.277 3.80094 3.77053e-14)
(976.252 3.79786 4.09391e-14)
(976.237 3.80146 4.01807e-14)
(976.213 3.81073 3.99182e-14)
(976.182 3.8285 3.83646e-14)
(976.147 3.85541 3.70679e-14)
(976.108 3.89082 3.68063e-14)
(976.067 3.93394 3.72023e-14)
(976.022 3.98395 3.86332e-14)
(975.976 4.04003 3.81926e-14)
(975.927 4.10148 3.57147e-14)
(975.876 4.1677 3.777e-14)
(975.824 4.23815 4.02577e-14)
(975.771 4.31236 3.87187e-14)
(975.716 4.38994 4.0272e-14)
(975.661 4.47062 3.83077e-14)
(975.604 4.55421 3.69664e-14)
(975.545 4.6406 3.69531e-14)
(975.486 4.72969 3.7101e-14)
(975.425 4.82139 3.91635e-14)
(975.363 4.91567 3.76235e-14)
(975.299 5.01255 4.01238e-14)
(975.234 5.11211 3.84637e-14)
(975.166 5.21447 3.83736e-14)
(975.097 5.3198 3.67974e-14)
(975.025 5.42822 3.51376e-14)
(974.951 5.53989 3.7539e-14)
(975.237 3.88241 6.00964e-14)
(974.948 4.25266 6.17833e-14)
(974.646 4.6448 6.15382e-14)
(974.329 5.05822 5.96966e-14)
(973.999 5.49185 6.18307e-14)
(973.658 5.94449 6.21396e-14)
(973.307 6.41552 6.19367e-14)
(972.947 6.9053 6.04382e-14)
(972.578 7.41486 6.24528e-14)
(972.201 7.94506 6.16919e-14)
(971.814 8.49604 6.01626e-14)
(971.419 9.067 6.25695e-14)
(971.017 9.65648 6.23692e-14)
(970.609 10.2626 5.91177e-14)
(970.196 10.8832 5.69301e-14)
(969.782 11.516 5.91017e-14)
(969.367 12.1593 6.18698e-14)
(968.953 12.8118 6.08124e-14)
(968.544 13.472 5.90953e-14)
(968.14 14.1368 5.61761e-14)
(967.745 14.8017 5.74867e-14)
(967.364 15.4611 5.72615e-14)
(966.998 16.1101 5.94866e-14)
(966.65 16.7442 5.94339e-14)
(966.322 17.3601 5.68677e-14)
(966.016 17.955 5.675e-14)
(965.731 18.5266 5.84124e-14)
(965.471 19.0726 5.87911e-14)
(965.235 19.59 5.60339e-14)
(965.025 20.0756 5.17848e-14)
(964.841 20.527 5.1792e-14)
(964.686 20.9426 5.63914e-14)
(964.558 21.3214 5.57242e-14)
(964.459 21.6619 5.17899e-14)
(964.39 21.9621 5.25991e-14)
(964.35 22.2201 5.43051e-14)
(964.341 22.4347 5.34245e-14)
(964.361 22.604 5.29776e-14)
(964.409 22.7302 5.24954e-14)
(964.49 22.8146 5.45181e-14)
(964.608 22.8416 5.37316e-14)
(964.736 22.8043 5.22074e-14)
(964.861 22.75 5.19553e-14)
(965.034 22.653 5.28404e-14)
(965.238 22.5095 5.25193e-14)
(965.463 22.3215 5.25513e-14)
(965.707 22.0916 5.41005e-14)
(965.969 21.8222 5.33679e-14)
(966.247 21.5156 5.13354e-14)
(966.538 21.1739 5.16757e-14)
(966.842 20.7995 5.11546e-14)
(967.155 20.3956 5.1816e-14)
(967.477 19.9655 4.93396e-14)
(967.804 19.5121 5.16281e-14)
(968.136 19.0382 5.10014e-14)
(968.469 18.5473 4.86334e-14)
(968.802 18.0434 5.05582e-14)
(969.133 17.5304 4.91687e-14)
(969.459 17.0117 5.12375e-14)
(969.78 16.4905 5.12337e-14)
(970.092 15.9698 4.95487e-14)
(970.395 15.453 5.0054e-14)
(970.687 14.9431 4.87427e-14)
(970.967 14.4431 4.82021e-14)
(971.233 13.9556 4.57553e-14)
(971.485 13.4824 5.00772e-14)
(971.721 13.0254 5.07139e-14)
(971.941 12.5859 4.67777e-14)
(972.146 12.1654 5.01192e-14)
(972.333 11.7651 5.11766e-14)
(972.504 11.3867 4.80548e-14)
(972.658 11.0316 4.64066e-14)
(972.793 10.7017 4.70133e-14)
(972.911 10.3981 4.95267e-14)
(973.012 10.1209 4.61475e-14)
(973.094 9.87079 4.62042e-14)
(973.159 9.65195 4.75343e-14)
(973.204 9.46498 4.65702e-14)
(973.233 9.30418 4.53016e-14)
(973.244 9.17483 4.55134e-14)
(973.237 9.08065 4.40326e-14)
(973.218 9.00639 4.51891e-14)
(973.183 8.96357 4.70693e-14)
(973.121 8.96137 4.62512e-14)
(973.082 8.97224 4.69477e-14)
(973.02 8.9974 4.74032e-14)
(972.941 9.04503 4.54147e-14)
(972.852 9.11561 4.2745e-14)
(972.754 9.20729 4.3404e-14)
(972.647 9.31816 4.36051e-14)
(972.534 9.44647 4.42783e-14)
(972.415 9.59088 4.32427e-14)
(972.29 9.75021 4.53659e-14)
(972.159 9.92324 4.26199e-14)
(972.024 10.1086 4.36797e-14)
(971.884 10.3052 4.32762e-14)
(971.74 10.5121 4.39888e-14)
(971.593 10.7286 4.37295e-14)
(971.442 10.9536 4.18631e-14)
(971.287 11.1862 4.41889e-14)
(971.13 11.4254 4.42931e-14)
(970.97 11.6705 4.32789e-14)
(970.807 11.9209 4.2262e-14)
(970.641 12.1762 4.15735e-14)
(970.472 12.4363 4.35023e-14)
(970.3 12.7009 4.22214e-14)
(970.125 12.97 4.33386e-14)
(969.945 13.2436 4.29296e-14)
(969.762 13.5221 4.26727e-14)
(969.574 13.8058 4.09456e-14)
(970.816 9.05243 7.08213e-14)
(970.189 9.85811 6.98209e-14)
(969.53 10.7149 6.92122e-14)
(968.838 11.6255 7.05078e-14)
(968.112 12.5934 7.15314e-14)
(967.351 13.6215 6.91902e-14)
(966.56 14.7079 6.82761e-14)
(965.744 15.8456 7.08206e-14)
(964.911 17.0254 7.20984e-14)
(964.066 18.2386 7.09879e-14)
(963.214 19.479 6.97937e-14)
(962.357 20.7418 6.86195e-14)
(961.499 22.0232 6.89214e-14)
(960.642 23.3199 6.72137e-14)
(959.787 24.6294 6.78585e-14)
(958.938 25.9495 6.85159e-14)
(958.097 27.2773 6.84428e-14)
(957.268 28.6074 6.78619e-14)
(956.458 29.9329 6.6447e-14)
(955.672 31.2472 6.6647e-14)
(954.915 32.5461 6.86643e-14)
(954.191 33.8263 6.57231e-14)
(953.505 35.0835 6.61166e-14)
(952.858 36.3107 6.55524e-14)
(952.254 37.5 6.50568e-14)
(951.695 38.6432 6.46211e-14)
(951.184 39.7324 6.26557e-14)
(950.725 40.7615 6.3056e-14)
(950.32 41.7267 6.5065e-14)
(949.967 42.6258 6.01485e-14)
(949.669 43.4556 6.07378e-14)
(949.424 44.2117 6.12373e-14)
(949.236 44.8906 6.20098e-14)
(949.103 45.4918 6.22848e-14)
(949.027 46.0131 6.12507e-14)
(949.009 46.4523 6.10053e-14)
(949.051 46.8048 6.05981e-14)
(949.15 47.0631 6.03137e-14)
(949.305 47.2439 5.98595e-14)
(949.524 47.3443 6.06062e-14)
(949.818 47.3244 6.12263e-14)
(950.043 47.2342 5.96207e-14)
(950.351 47.0988 5.88757e-14)
(950.731 46.874 5.70141e-14)
(951.159 46.5632 5.58363e-14)
(951.625 46.1733 5.81413e-14)
(952.123 45.7092 5.86678e-14)
(952.651 45.1742 5.61009e-14)
(953.206 44.5726 5.57395e-14)
(953.783 43.91 5.82047e-14)
(954.379 43.1911 5.97602e-14)
(954.99 42.4193 5.90482e-14)
(955.615 41.5979 5.58011e-14)
(956.249 40.7328 5.71166e-14)
(956.889 39.8307 5.77448e-14)
(957.53 38.8968 5.6823e-14)
(958.171 37.9351 5.53369e-14)
(958.808 36.95 5.48475e-14)
(959.439 35.9468 5.51551e-14)
(960.06 34.9319 5.84861e-14)
(960.668 33.9113 5.55679e-14)
(961.259 32.8907 5.45238e-14)
(961.832 31.8757 5.51801e-14)
(962.384 30.872 5.479e-14)
(962.91 29.886 5.3399e-14)
(963.41 28.9245 5.52318e-14)
(963.879 27.9942 5.48601e-14)
(964.315 27.1019 5.456e-14)
(964.715 26.2534 5.52084e-14)
(965.077 25.4535 5.30908e-14)
(965.4 24.7063 5.48146e-14)
(965.682 24.0149 5.47728e-14)
(965.924 23.3808 5.32602e-14)
(966.126 22.806 5.58835e-14)
(966.288 22.294 5.01002e-14)
(966.409 21.8464 4.98385e-14)
(966.492 21.4563 5.29804e-14)
(966.541 21.1198 5.15345e-14)
(966.55 20.8553 5.12641e-14)
(966.52 20.658 5.34935e-14)
(966.465 20.5009 5.02756e-14)
(966.371 20.4195 5.1738e-14)
(966.225 20.4233 5.39932e-14)
(966.13 20.4521 5.40071e-14)
(965.977 20.5158 5.19718e-14)
(965.789 20.6308 5.1473e-14)
(965.577 20.796 5.14035e-14)
(965.346 21.0078 5.4135e-14)
(965.098 21.2621 5.25809e-14)
(964.834 21.5555 5.1584e-14)
(964.556 21.8847 5.06374e-14)
(964.265 22.2459 5.18069e-14)
(963.963 22.6356 5.11368e-14)
(963.652 23.051 4.86411e-14)
(963.332 23.4902 4.9611e-14)
(963.004 23.951 4.99306e-14)
(962.669 24.4306 5.05709e-14)
(962.328 24.9264 4.67954e-14)
(961.981 25.4365 4.62162e-14)