/*--------------------------------*- C++ -*----------------------------------*\
| =========                 |                                                 |
| \\      /  F ield         | OpenFOAM: The Open Source CFD Toolbox           |
|  \\    /   O peration     | Version:  v1706                                 |
|   \\  /    A nd           | Web:      www.OpenFOAM.com                      |
|    \\/     M anipulation  |                                                 |
\*---------------------------------------------------------------------------*/
FoamFile
{
    version     2.0;
    format      ascii;
    class       volScalarField;
    location    "1.8e-05";
    object      wallHeatFlux;
}
// * * * * * * * * * * * * * * * * * * * * * * * * * * * * * * * * * * * * * //

dimensions      [1 0 -3 0 0 0 0];


internalField   uniform 0;

boundaryField
{
    cone
    {
        type            calculated;
        value           nonuniform List<scalar> 
181
(
953.855
887.556
824.171
763.536
705.527
650.055
597.066
546.541
498.492
452.957
409.992
369.668
332.042
297.15
265.16
236.002
209.29
185.553
165.407
148.746
135.522
125.81
119.726
117.263
118.557
123.871
133.236
146.688
164.329
186.249
212.533
243.182
278.298
317.94
362.138
410.907
464.247
522.144
584.568
651.467
722.771
798.381
878.177
962.005
1049.68
1140.99
1235.68
1333.45
1433.96
1536.86
1641.72
1748.1
1855.49
1963.4
2071.26
2178.51
2284.57
2388.87
2490.82
2589.89
2685.56
2777.37
2864.9
2947.83
3025.91
3098.99
3167.01
3230.01
3288.16
3341.68
3390.92
3436.27
3478.21
3517.24
3553.91
3588.74
3622.28
3655.06
3687.56
3720.28
3753.64
3788.01
3823.7
3860.97
3900.02
3941.01
3984.06
4029.23
4076.56
4126.04
4177.64
4231.3
4286.96
4344.51
4403.85
4464.88
4527.47
4591.51
4656.87
4723.44
4791.12
4859.79
4929.38
4999.8
5070.98
5142.87
5215.43
5288.62
5362.42
5436.84
5511.86
5587.51
5663.8
5740.76
5818.41
5896.79
5975.94
6055.89
6136.67
6218.33
6300.9
6384.42
6468.92
6554.43
6640.99
6728.63
6817.38
6907.27
6998.34
7090.6
7184.11
7278.88
7374.95
7472.35
7571.11
7671.28
7772.89
7875.97
7980.57
8086.73
8194.49
8303.89
8414.99
8527.83
8642.46
8758.94
8877.32
8997.67
9120.03
9244.49
9371.1
9499.94
9631.09
9764.61
9900.61
10039.2
10180.4
10324.3
10471.1
10620.9
10773.7
10929.8
11089.2
11252.1
11418.7
11589
11763.3
11941.7
12124.5
12311.8
12503.8
12700.9
12903.2
13111
13324.6
13544.3
13770.5
14003.4
14243.5
14491.3
14747
)
;
    }
    inlet
    {
        type            calculated;
        value           uniform 0;
    }
    rWedge
    {
        type            wedge;
    }
    lWedge
    {
        type            wedge;
    }
    outlet
    {
        type            calculated;
        value           nonuniform 0();
    }
    procBoundary1to0
    {
        type            processor;
        value           uniform 0;
    }
    procBoundary1to2
    {
        type            processor;
        value           uniform 0;
    }
}


// ************************************************************************* //
