/*--------------------------------*- C++ -*----------------------------------*\
| =========                 |                                                 |
| \\      /  F ield         | OpenFOAM: The Open Source CFD Toolbox           |
|  \\    /   O peration     | Version:  v1706                                 |
|   \\  /    A nd           | Web:      www.OpenFOAM.com                      |
|    \\/     M anipulation  |                                                 |
\*---------------------------------------------------------------------------*/
FoamFile
{
    version     2.0;
    format      ascii;
    class       volScalarField;
    location    "1.5e-05";
    object      kappave;
}
// * * * * * * * * * * * * * * * * * * * * * * * * * * * * * * * * * * * * * //

dimensions      [1 1 -3 -1 0 0 0];


internalField   nonuniform List<scalar> 
30104
(
1.46051e-10
1.46051e-10
1.46052e-10
1.46053e-10
1.46053e-10
1.46054e-10
1.46055e-10
1.46056e-10
1.46056e-10
1.46057e-10
1.46058e-10
1.46058e-10
1.46059e-10
1.46059e-10
1.4606e-10
1.4606e-10
1.46061e-10
1.46049e-10
1.46049e-10
1.46049e-10
1.46049e-10
1.46049e-10
1.46049e-10
1.4605e-10
1.4605e-10
1.4605e-10
1.4605e-10
1.4605e-10
1.4605e-10
1.4605e-10
1.4605e-10
1.46051e-10
1.46051e-10
1.46051e-10
1.46051e-10
1.46051e-10
1.46051e-10
1.46051e-10
1.46052e-10
1.46052e-10
1.46052e-10
1.46052e-10
1.46052e-10
1.46052e-10
1.46052e-10
1.46053e-10
1.46053e-10
1.46053e-10
1.46053e-10
1.46053e-10
1.46053e-10
1.46053e-10
1.46054e-10
1.46054e-10
1.46054e-10
1.46054e-10
1.46054e-10
1.46055e-10
1.46055e-10
1.46055e-10
1.46055e-10
1.46055e-10
1.46055e-10
1.46056e-10
1.46056e-10
1.46056e-10
1.46056e-10
1.46056e-10
1.46057e-10
1.46057e-10
1.46057e-10
1.46057e-10
1.46057e-10
1.46058e-10
1.46058e-10
1.46058e-10
1.46058e-10
1.46059e-10
1.46059e-10
1.46059e-10
1.46059e-10
1.46059e-10
1.4606e-10
1.4606e-10
1.4606e-10
1.4606e-10
1.46061e-10
1.46061e-10
1.46061e-10
1.46061e-10
1.46062e-10
1.46062e-10
1.46062e-10
1.46062e-10
1.46063e-10
1.46063e-10
1.46063e-10
1.46064e-10
1.46064e-10
1.46064e-10
1.46064e-10
1.46065e-10
1.46065e-10
1.46065e-10
1.46066e-10
1.46066e-10
1.46066e-10
1.46066e-10
1.46067e-10
1.46067e-10
1.46067e-10
1.46068e-10
1.46068e-10
1.46068e-10
1.46069e-10
1.46069e-10
1.46069e-10
1.4607e-10
1.4607e-10
1.46071e-10
1.46071e-10
1.46071e-10
1.46072e-10
1.46072e-10
1.46072e-10
1.46073e-10
1.46073e-10
1.46074e-10
1.46074e-10
1.46074e-10
1.46075e-10
1.46075e-10
1.46076e-10
1.46076e-10
1.46077e-10
1.46077e-10
1.46077e-10
1.46078e-10
1.46078e-10
1.46079e-10
1.46079e-10
1.4608e-10
1.4608e-10
1.46081e-10
1.46081e-10
1.46082e-10
1.46083e-10
1.46083e-10
1.46084e-10
1.46084e-10
1.46085e-10
1.46086e-10
1.46086e-10
1.46087e-10
1.46087e-10
1.46088e-10
1.46089e-10
1.46089e-10
1.4609e-10
1.46091e-10
1.46092e-10
1.46092e-10
1.46093e-10
1.46094e-10
1.46094e-10
1.46095e-10
1.46096e-10
1.46097e-10
1.46097e-10
1.46098e-10
1.46099e-10
1.461e-10
1.46101e-10
1.46101e-10
1.46102e-10
1.46103e-10
1.46104e-10
1.46104e-10
1.46105e-10
1.46106e-10
1.46107e-10
1.46107e-10
1.46108e-10
1.46109e-10
1.4611e-10
1.4611e-10
1.46111e-10
1.46112e-10
1.46113e-10
1.46114e-10
1.46114e-10
1.46115e-10
1.46116e-10
1.46117e-10
1.46118e-10
1.46119e-10
1.4612e-10
1.4612e-10
1.46121e-10
1.46122e-10
1.46123e-10
1.46124e-10
1.46125e-10
1.46126e-10
1.46128e-10
1.46129e-10
1.4613e-10
1.46131e-10
1.4613e-10
1.46117e-10
1.46112e-10
1.46116e-10
1.4612e-10
1.46124e-10
1.46128e-10
1.46132e-10
1.46136e-10
1.46141e-10
1.46145e-10
1.46149e-10
1.46152e-10
1.46156e-10
1.4616e-10
1.46163e-10
1.46166e-10
1.46169e-10
1.46172e-10
1.4611e-10
1.46111e-10
1.46112e-10
1.46113e-10
1.46114e-10
1.46115e-10
1.46116e-10
1.46117e-10
1.46118e-10
1.46119e-10
1.4612e-10
1.46121e-10
1.46121e-10
1.46122e-10
1.46123e-10
1.46124e-10
1.46125e-10
1.46126e-10
1.46127e-10
1.46128e-10
1.4613e-10
1.46131e-10
1.46132e-10
1.46133e-10
1.46134e-10
1.46135e-10
1.46136e-10
1.46137e-10
1.46138e-10
1.4614e-10
1.46141e-10
1.46142e-10
1.46143e-10
1.46144e-10
1.46146e-10
1.46147e-10
1.46148e-10
1.4615e-10
1.46151e-10
1.46152e-10
1.46154e-10
1.46155e-10
1.46156e-10
1.46158e-10
1.46159e-10
1.46161e-10
1.46162e-10
1.46164e-10
1.46165e-10
1.46167e-10
1.46168e-10
1.4617e-10
1.46172e-10
1.46173e-10
1.46175e-10
1.46177e-10
1.46178e-10
1.4618e-10
1.46182e-10
1.46183e-10
1.46185e-10
1.46187e-10
1.46189e-10
1.46191e-10
1.46193e-10
1.46194e-10
1.46196e-10
1.46198e-10
1.462e-10
1.46202e-10
1.46204e-10
1.46206e-10
1.46208e-10
1.4621e-10
1.46213e-10
1.46215e-10
1.46217e-10
1.46219e-10
1.46221e-10
1.46224e-10
1.46226e-10
1.46229e-10
1.46231e-10
1.46233e-10
1.46236e-10
1.46239e-10
1.46241e-10
1.46244e-10
1.46247e-10
1.46249e-10
1.46252e-10
1.46255e-10
1.46258e-10
1.46261e-10
1.46264e-10
1.46267e-10
1.4627e-10
1.46274e-10
1.46277e-10
1.4628e-10
1.46283e-10
1.46287e-10
1.4629e-10
1.46293e-10
1.46297e-10
1.463e-10
1.46304e-10
1.46307e-10
1.46311e-10
1.46315e-10
1.46318e-10
1.46322e-10
1.46326e-10
1.46329e-10
1.46333e-10
1.46337e-10
1.46341e-10
1.46345e-10
1.46349e-10
1.46353e-10
1.46357e-10
1.46361e-10
1.46365e-10
1.46369e-10
1.46374e-10
1.46378e-10
1.46382e-10
1.46387e-10
1.46392e-10
1.46396e-10
1.46401e-10
1.46406e-10
1.46411e-10
1.46416e-10
1.46421e-10
1.46426e-10
1.46432e-10
1.46437e-10
1.46443e-10
1.46449e-10
1.46455e-10
1.46461e-10
1.46467e-10
1.46473e-10
1.46479e-10
1.46486e-10
1.46492e-10
1.46499e-10
1.46505e-10
1.46512e-10
1.46519e-10
1.46526e-10
1.46533e-10
1.46541e-10
1.46548e-10
1.46555e-10
1.46563e-10
1.4657e-10
1.46578e-10
1.46585e-10
1.46593e-10
1.46601e-10
1.46609e-10
1.46616e-10
1.46624e-10
1.46632e-10
1.4664e-10
1.46648e-10
1.46657e-10
1.46665e-10
1.46673e-10
1.46681e-10
1.4669e-10
1.46699e-10
1.46707e-10
1.46716e-10
1.46725e-10
1.46734e-10
1.46744e-10
1.46753e-10
1.46763e-10
1.46773e-10
1.46783e-10
1.46793e-10
1.46804e-10
1.46814e-10
1.46826e-10
1.46837e-10
1.46849e-10
1.46861e-10
1.46874e-10
1.46874e-10
1.46809e-10
1.46263e-10
1.46275e-10
1.46288e-10
1.46301e-10
1.46313e-10
1.46326e-10
1.46339e-10
1.46351e-10
1.46363e-10
1.46376e-10
1.46387e-10
1.46399e-10
1.4641e-10
1.4642e-10
1.4643e-10
1.46439e-10
1.46284e-10
1.46288e-10
1.46291e-10
1.46295e-10
1.46299e-10
1.46302e-10
1.46306e-10
1.46309e-10
1.46313e-10
1.46317e-10
1.4632e-10
1.46324e-10
1.46328e-10
1.46332e-10
1.46336e-10
1.46339e-10
1.46343e-10
1.46347e-10
1.46351e-10
1.46355e-10
1.4636e-10
1.46364e-10
1.46368e-10
1.46372e-10
1.46377e-10
1.46381e-10
1.46386e-10
1.4639e-10
1.46395e-10
1.46399e-10
1.46404e-10
1.46409e-10
1.46414e-10
1.46419e-10
1.46424e-10
1.46429e-10
1.46434e-10
1.4644e-10
1.46445e-10
1.46451e-10
1.46456e-10
1.46462e-10
1.46468e-10
1.46473e-10
1.46479e-10
1.46485e-10
1.46492e-10
1.46498e-10
1.46504e-10
1.46511e-10
1.46517e-10
1.46524e-10
1.46531e-10
1.46538e-10
1.46545e-10
1.46552e-10
1.46559e-10
1.46566e-10
1.46574e-10
1.46581e-10
1.46589e-10
1.46596e-10
1.46604e-10
1.46612e-10
1.4662e-10
1.46628e-10
1.46637e-10
1.46645e-10
1.46653e-10
1.46662e-10
1.46671e-10
1.46679e-10
1.46688e-10
1.46697e-10
1.46707e-10
1.46716e-10
1.46726e-10
1.46735e-10
1.46745e-10
1.46755e-10
1.46765e-10
1.46776e-10
1.46786e-10
1.46797e-10
1.46808e-10
1.46819e-10
1.4683e-10
1.46842e-10
1.46854e-10
1.46866e-10
1.46878e-10
1.4689e-10
1.46903e-10
1.46916e-10
1.46929e-10
1.46943e-10
1.46956e-10
1.4697e-10
1.46984e-10
1.46999e-10
1.47013e-10
1.47028e-10
1.47043e-10
1.47058e-10
1.47074e-10
1.47089e-10
1.47105e-10
1.47121e-10
1.47137e-10
1.47154e-10
1.4717e-10
1.47187e-10
1.47204e-10
1.47221e-10
1.47239e-10
1.47256e-10
1.47274e-10
1.47292e-10
1.4731e-10
1.47329e-10
1.47348e-10
1.47367e-10
1.47386e-10
1.47406e-10
1.47426e-10
1.47446e-10
1.47467e-10
1.47488e-10
1.4751e-10
1.47532e-10
1.47554e-10
1.47577e-10
1.47601e-10
1.47625e-10
1.4765e-10
1.47675e-10
1.47701e-10
1.47728e-10
1.47755e-10
1.47783e-10
1.47811e-10
1.4784e-10
1.4787e-10
1.47901e-10
1.47932e-10
1.47965e-10
1.47997e-10
1.48031e-10
1.48065e-10
1.481e-10
1.48136e-10
1.48172e-10
1.48209e-10
1.48246e-10
1.48284e-10
1.48323e-10
1.48362e-10
1.48402e-10
1.48442e-10
1.48482e-10
1.48523e-10
1.48564e-10
1.48606e-10
1.48648e-10
1.4869e-10
1.48732e-10
1.48775e-10
1.48817e-10
1.4886e-10
1.48903e-10
1.48947e-10
1.4899e-10
1.49034e-10
1.49078e-10
1.49123e-10
1.49168e-10
1.49213e-10
1.49259e-10
1.49305e-10
1.49352e-10
1.494e-10
1.49448e-10
1.49498e-10
1.49548e-10
1.49599e-10
1.49651e-10
1.49704e-10
1.49758e-10
1.49813e-10
1.4987e-10
1.49929e-10
1.49956e-10
1.49732e-10
1.46631e-10
1.46664e-10
1.46697e-10
1.4673e-10
1.46763e-10
1.46796e-10
1.46829e-10
1.46861e-10
1.46893e-10
1.46924e-10
1.46955e-10
1.46984e-10
1.47012e-10
1.47039e-10
1.47064e-10
1.47087e-10
1.46758e-10
1.4677e-10
1.46781e-10
1.46793e-10
1.46805e-10
1.46817e-10
1.46829e-10
1.46841e-10
1.46853e-10
1.46865e-10
1.46877e-10
1.4689e-10
1.46902e-10
1.46915e-10
1.46928e-10
1.46941e-10
1.46954e-10
1.46968e-10
1.46981e-10
1.46995e-10
1.47009e-10
1.47023e-10
1.47038e-10
1.47053e-10
1.47067e-10
1.47082e-10
1.47098e-10
1.47113e-10
1.47129e-10
1.47145e-10
1.47161e-10
1.47178e-10
1.47195e-10
1.47212e-10
1.47229e-10
1.47246e-10
1.47264e-10
1.47282e-10
1.47301e-10
1.4732e-10
1.47339e-10
1.47359e-10
1.47378e-10
1.47399e-10
1.47419e-10
1.4744e-10
1.47462e-10
1.47484e-10
1.47506e-10
1.47528e-10
1.47551e-10
1.47575e-10
1.47599e-10
1.47623e-10
1.47648e-10
1.47673e-10
1.47698e-10
1.47724e-10
1.47751e-10
1.47777e-10
1.47805e-10
1.47832e-10
1.4786e-10
1.47889e-10
1.47918e-10
1.47947e-10
1.47977e-10
1.48007e-10
1.48038e-10
1.48069e-10
1.481e-10
1.48132e-10
1.48164e-10
1.48197e-10
1.4823e-10
1.48264e-10
1.48299e-10
1.48334e-10
1.48369e-10
1.48406e-10
1.48443e-10
1.4848e-10
1.48519e-10
1.48558e-10
1.48598e-10
1.48639e-10
1.48681e-10
1.48723e-10
1.48767e-10
1.48812e-10
1.48857e-10
1.48904e-10
1.48952e-10
1.49001e-10
1.49051e-10
1.49102e-10
1.49154e-10
1.49208e-10
1.49263e-10
1.49318e-10
1.49376e-10
1.49434e-10
1.49493e-10
1.49553e-10
1.49615e-10
1.49677e-10
1.49741e-10
1.49806e-10
1.49871e-10
1.49937e-10
1.50004e-10
1.50072e-10
1.50141e-10
1.5021e-10
1.5028e-10
1.50351e-10
1.50422e-10
1.50494e-10
1.50567e-10
1.5064e-10
1.50714e-10
1.50788e-10
1.50863e-10
1.5094e-10
1.51017e-10
1.51095e-10
1.51174e-10
1.51254e-10
1.51335e-10
1.51418e-10
1.51502e-10
1.51587e-10
1.51674e-10
1.51763e-10
1.51853e-10
1.51946e-10
1.5204e-10
1.52137e-10
1.52235e-10
1.52337e-10
1.5244e-10
1.52547e-10
1.52656e-10
1.52767e-10
1.52882e-10
1.53e-10
1.53121e-10
1.53245e-10
1.53372e-10
1.53503e-10
1.53637e-10
1.53774e-10
1.53915e-10
1.54059e-10
1.54207e-10
1.54358e-10
1.54512e-10
1.5467e-10
1.5483e-10
1.54994e-10
1.55161e-10
1.5533e-10
1.55502e-10
1.55677e-10
1.55854e-10
1.56033e-10
1.56214e-10
1.56396e-10
1.5658e-10
1.56765e-10
1.5695e-10
1.57136e-10
1.57323e-10
1.5751e-10
1.57698e-10
1.57887e-10
1.58078e-10
1.58268e-10
1.5846e-10
1.58653e-10
1.58848e-10
1.59043e-10
1.5924e-10
1.59439e-10
1.5964e-10
1.59842e-10
1.60047e-10
1.60255e-10
1.60464e-10
1.6068e-10
1.60892e-10
1.61088e-10
1.60538e-10
1.475e-10
1.47578e-10
1.47657e-10
1.47736e-10
1.47815e-10
1.47894e-10
1.47972e-10
1.48049e-10
1.48124e-10
1.48198e-10
1.4827e-10
1.48339e-10
1.48405e-10
1.48468e-10
1.48527e-10
1.47992e-10
1.48026e-10
1.48061e-10
1.48096e-10
1.48131e-10
1.48166e-10
1.48202e-10
1.48238e-10
1.48274e-10
1.48311e-10
1.48348e-10
1.48386e-10
1.48424e-10
1.48462e-10
1.48501e-10
1.48541e-10
1.48581e-10
1.48622e-10
1.48664e-10
1.48706e-10
1.48749e-10
1.48793e-10
1.48837e-10
1.48882e-10
1.48928e-10
1.48975e-10
1.49022e-10
1.4907e-10
1.49119e-10
1.49168e-10
1.49219e-10
1.4927e-10
1.49322e-10
1.49375e-10
1.49428e-10
1.49483e-10
1.49538e-10
1.49595e-10
1.49652e-10
1.4971e-10
1.4977e-10
1.49831e-10
1.49892e-10
1.49955e-10
1.50019e-10
1.50085e-10
1.50152e-10
1.5022e-10
1.5029e-10
1.50361e-10
1.50433e-10
1.50507e-10
1.50583e-10
1.5066e-10
1.50739e-10
1.50819e-10
1.50901e-10
1.50985e-10
1.5107e-10
1.51157e-10
1.51246e-10
1.51336e-10
1.51428e-10
1.51522e-10
1.51617e-10
1.51714e-10
1.51812e-10
1.51912e-10
1.52013e-10
1.52115e-10
1.52218e-10
1.52323e-10
1.52429e-10
1.52537e-10
1.52645e-10
1.52755e-10
1.52867e-10
1.5298e-10
1.53094e-10
1.5321e-10
1.53328e-10
1.53447e-10
1.53569e-10
1.53692e-10
1.53818e-10
1.53946e-10
1.54076e-10
1.54209e-10
1.54344e-10
1.54482e-10
1.54623e-10
1.54767e-10
1.54914e-10
1.55064e-10
1.55217e-10
1.55374e-10
1.55535e-10
1.55699e-10
1.55867e-10
1.56038e-10
1.56214e-10
1.56393e-10
1.56577e-10
1.56764e-10
1.56955e-10
1.5715e-10
1.57349e-10
1.57552e-10
1.57758e-10
1.57968e-10
1.58182e-10
1.58399e-10
1.58619e-10
1.58843e-10
1.59069e-10
1.59298e-10
1.59529e-10
1.59762e-10
1.59997e-10
1.60234e-10
1.60471e-10
1.60711e-10
1.60952e-10
1.61194e-10
1.61439e-10
1.61685e-10
1.61934e-10
1.62184e-10
1.62437e-10
1.62693e-10
1.62951e-10
1.63213e-10
1.63478e-10
1.63746e-10
1.64019e-10
1.64296e-10
1.64577e-10
1.64863e-10
1.65155e-10
1.65452e-10
1.65756e-10
1.66066e-10
1.66383e-10
1.66708e-10
1.6704e-10
1.67381e-10
1.67731e-10
1.6809e-10
1.68458e-10
1.68836e-10
1.69225e-10
1.69624e-10
1.70034e-10
1.70454e-10
1.70885e-10
1.71327e-10
1.7178e-10
1.72244e-10
1.72718e-10
1.73202e-10
1.73695e-10
1.74198e-10
1.7471e-10
1.75231e-10
1.75759e-10
1.76294e-10
1.76836e-10
1.77384e-10
1.77938e-10
1.78495e-10
1.79049e-10
1.79598e-10
1.80142e-10
1.80682e-10
1.81216e-10
1.81744e-10
1.82267e-10
1.82785e-10
1.83295e-10
1.83802e-10
1.843e-10
1.84795e-10
1.8528e-10
1.85765e-10
1.86236e-10
1.86711e-10
1.87166e-10
1.87635e-10
1.8807e-10
1.88536e-10
1.88949e-10
1.89455e-10
1.89035e-10
1.49302e-10
1.49479e-10
1.49656e-10
1.49834e-10
1.50011e-10
1.50187e-10
1.50362e-10
1.50534e-10
1.50704e-10
1.50869e-10
1.51029e-10
1.51184e-10
1.51333e-10
1.51474e-10
1.51607e-10
1.51731e-10
1.51028e-10
1.51121e-10
1.51215e-10
1.5131e-10
1.51406e-10
1.51502e-10
1.516e-10
1.51698e-10
1.51798e-10
1.51898e-10
1.52e-10
1.52103e-10
1.52207e-10
1.52313e-10
1.52421e-10
1.5253e-10
1.52641e-10
1.52754e-10
1.52869e-10
1.52986e-10
1.53105e-10
1.53226e-10
1.53349e-10
1.53475e-10
1.53602e-10
1.53732e-10
1.53863e-10
1.53997e-10
1.54133e-10
1.5427e-10
1.5441e-10
1.54552e-10
1.54695e-10
1.54841e-10
1.54988e-10
1.55137e-10
1.55289e-10
1.55443e-10
1.55599e-10
1.55757e-10
1.55918e-10
1.56082e-10
1.56248e-10
1.56417e-10
1.56589e-10
1.56764e-10
1.56942e-10
1.57123e-10
1.57308e-10
1.57497e-10
1.57689e-10
1.57885e-10
1.58084e-10
1.58288e-10
1.58496e-10
1.58708e-10
1.58924e-10
1.59144e-10
1.59369e-10
1.59598e-10
1.59832e-10
1.60069e-10
1.60312e-10
1.60558e-10
1.60809e-10
1.61064e-10
1.61323e-10
1.61586e-10
1.61853e-10
1.62124e-10
1.62398e-10
1.62676e-10
1.62956e-10
1.63238e-10
1.63522e-10
1.63809e-10
1.64097e-10
1.64388e-10
1.64682e-10
1.64977e-10
1.65276e-10
1.65577e-10
1.65881e-10
1.66188e-10
1.66498e-10
1.66812e-10
1.6713e-10
1.67452e-10
1.67778e-10
1.68108e-10
1.68444e-10
1.68785e-10
1.69132e-10
1.69485e-10
1.69845e-10
1.70212e-10
1.70585e-10
1.70967e-10
1.71357e-10
1.71755e-10
1.72162e-10
1.72578e-10
1.73003e-10
1.73438e-10
1.73883e-10
1.74337e-10
1.74801e-10
1.75275e-10
1.75759e-10
1.76252e-10
1.76755e-10
1.77267e-10
1.77787e-10
1.78315e-10
1.7885e-10
1.79393e-10
1.79942e-10
1.80496e-10
1.81054e-10
1.8161e-10
1.82161e-10
1.82708e-10
1.8325e-10
1.83786e-10
1.84317e-10
1.84842e-10
1.8536e-10
1.85872e-10
1.86376e-10
1.86873e-10
1.87362e-10
1.87843e-10
1.88316e-10
1.88781e-10
1.89237e-10
1.89685e-10
1.90124e-10
1.90554e-10
1.90975e-10
1.91388e-10
1.91791e-10
1.92185e-10
1.9257e-10
1.92945e-10
1.93311e-10
1.93668e-10
1.94015e-10
1.94353e-10
1.94682e-10
1.95001e-10
1.95311e-10
1.95611e-10
1.95903e-10
1.96186e-10
1.9646e-10
1.96726e-10
1.96983e-10
1.97233e-10
1.97475e-10
1.97709e-10
1.97937e-10
1.98158e-10
1.98373e-10
1.98581e-10
1.98784e-10
1.98982e-10
1.99173e-10
1.99361e-10
1.99542e-10
1.9972e-10
1.99893e-10
2.00066e-10
2.00235e-10
2.00403e-10
2.00567e-10
2.00731e-10
2.0089e-10
2.01049e-10
2.01203e-10
2.01355e-10
2.01503e-10
2.01648e-10
2.01789e-10
2.01925e-10
2.02058e-10
2.02182e-10
2.02309e-10
2.02419e-10
2.02542e-10
2.02632e-10
2.02758e-10
2.02839e-10
2.02624e-10
1.5335e-10
1.53716e-10
1.54083e-10
1.54447e-10
1.54808e-10
1.55163e-10
1.55512e-10
1.55852e-10
1.56184e-10
1.56505e-10
1.56814e-10
1.57111e-10
1.57393e-10
1.57828e-10
1.58046e-10
1.58267e-10
1.58489e-10
1.58713e-10
1.58939e-10
1.59166e-10
1.59395e-10
1.59626e-10
1.59859e-10
1.60094e-10
1.60332e-10
1.60572e-10
1.60815e-10
1.61062e-10
1.61311e-10
1.61565e-10
1.61822e-10
1.62083e-10
1.62348e-10
1.62617e-10
1.62891e-10
1.6317e-10
1.63452e-10
1.63739e-10
1.64031e-10
1.64327e-10
1.64628e-10
1.64932e-10
1.65241e-10
1.65554e-10
1.65871e-10
1.66191e-10
1.66514e-10
1.6684e-10
1.67168e-10
1.675e-10
1.67834e-10
1.68171e-10
1.68511e-10
1.68854e-10
1.692e-10
1.6955e-10
1.69902e-10
1.70258e-10
1.70617e-10
1.70981e-10
1.71348e-10
1.71719e-10
1.72094e-10
1.72474e-10
1.72859e-10
1.73249e-10
1.73644e-10
1.74044e-10
1.74451e-10
1.74863e-10
1.75282e-10
1.75708e-10
1.7614e-10
1.7658e-10
1.77027e-10
1.77481e-10
1.77942e-10
1.78411e-10
1.78887e-10
1.7937e-10
1.7986e-10
1.80357e-10
1.80861e-10
1.8137e-10
1.81886e-10
1.82407e-10
1.82932e-10
1.83455e-10
1.83975e-10
1.84491e-10
1.85005e-10
1.85514e-10
1.86019e-10
1.86519e-10
1.87015e-10
1.87505e-10
1.87989e-10
1.88468e-10
1.8894e-10
1.89406e-10
1.89865e-10
1.90317e-10
1.90762e-10
1.91199e-10
1.91628e-10
1.9205e-10
1.92463e-10
1.92867e-10
1.93263e-10
1.93649e-10
1.94026e-10
1.94393e-10
1.94751e-10
1.95098e-10
1.95434e-10
1.95761e-10
1.96076e-10
1.96381e-10
1.96675e-10
1.96958e-10
1.9723e-10
1.97491e-10
1.97742e-10
1.97983e-10
1.98213e-10
1.98433e-10
1.98643e-10
1.98843e-10
1.99034e-10
1.99216e-10
1.99388e-10
1.99552e-10
1.9971e-10
1.99862e-10
2.00009e-10
2.0015e-10
2.00287e-10
2.00419e-10
2.00547e-10
2.00671e-10
2.00792e-10
2.00909e-10
2.01023e-10
2.01135e-10
2.01244e-10
2.0135e-10
2.01453e-10
2.01555e-10
2.01653e-10
2.0175e-10
2.01844e-10
2.01935e-10
2.02024e-10
2.02111e-10
2.02195e-10
2.02277e-10
2.02357e-10
2.02434e-10
2.02509e-10
2.02582e-10
2.02653e-10
2.02721e-10
2.02788e-10
2.02854e-10
2.02917e-10
2.0298e-10
2.03041e-10
2.031e-10
2.03159e-10
2.03217e-10
2.03273e-10
2.03329e-10
2.03384e-10
2.03437e-10
2.0349e-10
2.03541e-10
2.03592e-10
2.0364e-10
2.03687e-10
2.03732e-10
2.03776e-10
2.03817e-10
2.03855e-10
2.03892e-10
2.03925e-10
2.03957e-10
2.03984e-10
2.0401e-10
2.04032e-10
2.04052e-10
2.04067e-10
2.04083e-10
2.04093e-10
2.04104e-10
2.04109e-10
2.04117e-10
2.04118e-10
2.04123e-10
2.04123e-10
2.04127e-10
2.04126e-10
2.0413e-10
2.04128e-10
2.04132e-10
2.04128e-10
2.04062e-10
1.61265e-10
1.6194e-10
1.62606e-10
1.63258e-10
1.63894e-10
1.64511e-10
1.65108e-10
1.65681e-10
1.6623e-10
1.66753e-10
1.67248e-10
1.67714e-10
1.6815e-10
1.70467e-10
1.70876e-10
1.71285e-10
1.71696e-10
1.72107e-10
1.72518e-10
1.7293e-10
1.73342e-10
1.73753e-10
1.74165e-10
1.74578e-10
1.74992e-10
1.75406e-10
1.75822e-10
1.76239e-10
1.76659e-10
1.77081e-10
1.77505e-10
1.77933e-10
1.78364e-10
1.78798e-10
1.79236e-10
1.79678e-10
1.80124e-10
1.80574e-10
1.81028e-10
1.81486e-10
1.81949e-10
1.82414e-10
1.82884e-10
1.83357e-10
1.83833e-10
1.84313e-10
1.84793e-10
1.85271e-10
1.85744e-10
1.86215e-10
1.86681e-10
1.87143e-10
1.876e-10
1.88053e-10
1.885e-10
1.88943e-10
1.8938e-10
1.89811e-10
1.90237e-10
1.90657e-10
1.91072e-10
1.9148e-10
1.91882e-10
1.92278e-10
1.92667e-10
1.9305e-10
1.93426e-10
1.93795e-10
1.94157e-10
1.94511e-10
1.94858e-10
1.95196e-10
1.95526e-10
1.95847e-10
1.9616e-10
1.96463e-10
1.96756e-10
1.9704e-10
1.97314e-10
1.97578e-10
1.97832e-10
1.98076e-10
1.9831e-10
1.98533e-10
1.98747e-10
1.98951e-10
1.99145e-10
1.99331e-10
1.99511e-10
1.99683e-10
1.99848e-10
2.00007e-10
2.0016e-10
2.00307e-10
2.00448e-10
2.00583e-10
2.00714e-10
2.00839e-10
2.0096e-10
2.01076e-10
2.01188e-10
2.01296e-10
2.014e-10
2.01499e-10
2.01595e-10
2.01688e-10
2.01776e-10
2.01861e-10
2.01943e-10
2.02022e-10
2.02097e-10
2.0217e-10
2.02239e-10
2.02306e-10
2.02371e-10
2.02433e-10
2.02494e-10
2.02553e-10
2.0261e-10
2.02665e-10
2.02719e-10
2.02773e-10
2.02825e-10
2.02876e-10
2.02926e-10
2.02976e-10
2.03025e-10
2.03073e-10
2.03121e-10
2.03167e-10
2.03213e-10
2.03259e-10
2.03303e-10
2.03348e-10
2.03391e-10
2.03433e-10
2.03475e-10
2.03516e-10
2.03555e-10
2.03594e-10
2.03631e-10
2.03667e-10
2.03701e-10
2.03734e-10
2.03764e-10
2.03794e-10
2.03821e-10
2.03846e-10
2.0387e-10
2.03892e-10
2.03912e-10
2.03931e-10
2.03948e-10
2.03964e-10
2.03979e-10
2.03994e-10
2.04007e-10
2.0402e-10
2.04032e-10
2.04045e-10
2.04057e-10
2.04069e-10
2.04081e-10
2.04093e-10
2.04106e-10
2.04119e-10
2.04132e-10
2.04145e-10
2.04159e-10
2.04173e-10
2.04188e-10
2.04202e-10
2.04217e-10
2.04232e-10
2.04247e-10
2.04262e-10
2.04277e-10
2.04293e-10
2.04307e-10
2.04322e-10
2.04337e-10
2.04351e-10
2.04366e-10
2.0438e-10
2.04394e-10
2.04408e-10
2.04421e-10
2.04434e-10
2.04446e-10
2.04459e-10
2.0447e-10
2.04482e-10
2.04493e-10
2.04505e-10
2.04515e-10
2.04527e-10
2.04537e-10
2.04549e-10
2.04558e-10
2.04569e-10
2.04577e-10
2.04587e-10
2.04595e-10
2.04605e-10
2.04612e-10
2.04591e-10
1.73363e-10
1.74367e-10
1.75341e-10
1.76279e-10
1.77177e-10
1.78031e-10
1.78839e-10
1.79598e-10
1.80308e-10
1.80967e-10
1.81574e-10
1.82132e-10
1.82641e-10
1.83103e-10
1.87389e-10
1.87869e-10
1.88341e-10
1.88804e-10
1.89259e-10
1.89705e-10
1.90142e-10
1.90569e-10
1.90986e-10
1.91393e-10
1.91791e-10
1.92179e-10
1.92558e-10
1.92927e-10
1.93287e-10
1.93638e-10
1.93981e-10
1.94316e-10
1.94642e-10
1.94961e-10
1.95272e-10
1.95575e-10
1.95871e-10
1.96159e-10
1.96439e-10
1.96711e-10
1.96975e-10
1.97231e-10
1.97479e-10
1.97718e-10
1.97949e-10
1.98171e-10
1.98384e-10
1.9859e-10
1.98789e-10
1.98982e-10
1.99168e-10
1.99348e-10
1.99523e-10
1.99691e-10
1.99855e-10
2.00013e-10
2.00165e-10
2.00313e-10
2.00456e-10
2.00594e-10
2.00727e-10
2.00855e-10
2.00979e-10
2.01098e-10
2.01212e-10
2.01322e-10
2.01426e-10
2.01526e-10
2.01622e-10
2.01713e-10
2.01799e-10
2.01881e-10
2.0196e-10
2.02034e-10
2.02105e-10
2.02173e-10
2.02238e-10
2.02301e-10
2.02361e-10
2.02419e-10
2.02476e-10
2.0253e-10
2.02584e-10
2.02636e-10
2.02687e-10
2.02737e-10
2.02786e-10
2.02834e-10
2.02881e-10
2.02927e-10
2.02973e-10
2.03018e-10
2.03062e-10
2.03106e-10
2.03148e-10
2.0319e-10
2.03231e-10
2.03271e-10
2.0331e-10
2.03348e-10
2.03385e-10
2.0342e-10
2.03454e-10
2.03487e-10
2.03519e-10
2.03549e-10
2.03578e-10
2.03606e-10
2.03632e-10
2.03658e-10
2.03681e-10
2.03704e-10
2.03726e-10
2.03747e-10
2.03767e-10
2.03786e-10
2.03805e-10
2.03823e-10
2.03841e-10
2.03858e-10
2.03875e-10
2.03891e-10
2.03907e-10
2.03923e-10
2.03939e-10
2.03954e-10
2.0397e-10
2.03985e-10
2.03999e-10
2.04014e-10
2.04029e-10
2.04043e-10
2.04057e-10
2.04071e-10
2.04085e-10
2.04099e-10
2.04113e-10
2.04127e-10
2.0414e-10
2.04154e-10
2.04168e-10
2.04181e-10
2.04194e-10
2.04208e-10
2.04221e-10
2.04234e-10
2.04247e-10
2.0426e-10
2.04273e-10
2.04286e-10
2.04298e-10
2.04311e-10
2.04324e-10
2.04337e-10
2.04349e-10
2.04362e-10
2.04375e-10
2.04389e-10
2.04402e-10
2.04416e-10
2.04429e-10
2.04444e-10
2.04458e-10
2.04474e-10
2.04489e-10
2.04505e-10
2.04522e-10
2.04539e-10
2.04556e-10
2.04573e-10
2.0459e-10
2.04608e-10
2.04626e-10
2.04644e-10
2.04662e-10
2.0468e-10
2.04699e-10
2.04717e-10
2.04735e-10
2.04753e-10
2.04772e-10
2.0479e-10
2.04808e-10
2.04827e-10
2.04845e-10
2.04863e-10
2.04882e-10
2.049e-10
2.04918e-10
2.04936e-10
2.04955e-10
2.04974e-10
2.04993e-10
2.05012e-10
2.05032e-10
2.0505e-10
2.05068e-10
2.05086e-10
2.05105e-10
2.05123e-10
2.05142e-10
2.05161e-10
2.0518e-10
2.052e-10
2.0522e-10
2.05247e-10
2.05228e-10
1.89926e-10
1.90977e-10
1.91955e-10
1.92858e-10
1.93683e-10
1.94431e-10
1.95103e-10
1.957e-10
1.96227e-10
1.96684e-10
1.97073e-10
1.97395e-10
1.97655e-10
1.97856e-10
1.98457e-10
1.98667e-10
1.98871e-10
1.99068e-10
1.99259e-10
1.99444e-10
1.99621e-10
1.99793e-10
1.99957e-10
2.00115e-10
2.00267e-10
2.00412e-10
2.00551e-10
2.00684e-10
2.00811e-10
2.00932e-10
2.01048e-10
2.01158e-10
2.01263e-10
2.01363e-10
2.01459e-10
2.01549e-10
2.01635e-10
2.01717e-10
2.01795e-10
2.0187e-10
2.01941e-10
2.0201e-10
2.02076e-10
2.02139e-10
2.022e-10
2.02259e-10
2.02317e-10
2.02373e-10
2.02427e-10
2.02481e-10
2.02533e-10
2.02584e-10
2.02635e-10
2.02684e-10
2.02732e-10
2.0278e-10
2.02826e-10
2.02871e-10
2.02915e-10
2.02957e-10
2.02998e-10
2.03038e-10
2.03076e-10
2.03113e-10
2.03148e-10
2.03182e-10
2.03215e-10
2.03246e-10
2.03277e-10
2.03306e-10
2.03335e-10
2.03362e-10
2.0339e-10
2.03416e-10
2.03442e-10
2.03468e-10
2.03494e-10
2.03519e-10
2.03544e-10
2.03569e-10
2.03594e-10
2.03618e-10
2.03642e-10
2.03666e-10
2.03689e-10
2.03711e-10
2.03733e-10
2.03755e-10
2.03776e-10
2.03796e-10
2.03815e-10
2.03834e-10
2.03852e-10
2.03869e-10
2.03885e-10
2.03901e-10
2.03916e-10
2.03931e-10
2.03945e-10
2.03959e-10
2.03971e-10
2.03984e-10
2.03996e-10
2.04008e-10
2.0402e-10
2.04031e-10
2.04043e-10
2.04053e-10
2.04064e-10
2.04075e-10
2.04086e-10
2.04097e-10
2.04108e-10
2.04119e-10
2.04131e-10
2.04142e-10
2.04154e-10
2.04167e-10
2.04179e-10
2.04192e-10
2.04206e-10
2.04219e-10
2.04234e-10
2.04248e-10
2.04263e-10
2.04278e-10
2.04294e-10
2.0431e-10
2.04326e-10
2.04342e-10
2.04359e-10
2.04376e-10
2.04393e-10
2.04411e-10
2.04428e-10
2.04445e-10
2.04462e-10
2.04479e-10
2.04495e-10
2.04512e-10
2.04528e-10
2.04545e-10
2.04561e-10
2.04577e-10
2.04593e-10
2.04609e-10
2.04625e-10
2.04641e-10
2.04657e-10
2.04674e-10
2.04691e-10
2.04708e-10
2.04725e-10
2.04743e-10
2.04761e-10
2.0478e-10
2.04799e-10
2.04819e-10
2.04839e-10
2.0486e-10
2.04881e-10
2.04903e-10
2.04926e-10
2.04948e-10
2.04971e-10
2.04994e-10
2.05018e-10
2.05042e-10
2.05066e-10
2.05091e-10
2.05116e-10
2.05141e-10
2.05167e-10
2.05193e-10
2.05219e-10
2.05246e-10
2.05273e-10
2.053e-10
2.05327e-10
2.05355e-10
2.05383e-10
2.05412e-10
2.05441e-10
2.05471e-10
2.05501e-10
2.05531e-10
2.05562e-10
2.05594e-10
2.05626e-10
2.0566e-10
2.05694e-10
2.05729e-10
2.05765e-10
2.05801e-10
2.05838e-10
2.05877e-10
2.05916e-10
2.05957e-10
2.05998e-10
2.06041e-10
2.06085e-10
2.0613e-10
2.06177e-10
2.06226e-10
2.06275e-10
2.0634e-10
2.06315e-10
2.04209e-10
2.04618e-10
2.04941e-10
2.05189e-10
2.0537e-10
2.05491e-10
2.05558e-10
2.05568e-10
2.05549e-10
2.05494e-10
2.05399e-10
2.05268e-10
2.05111e-10
2.04929e-10
2.01859e-10
2.01926e-10
2.01993e-10
2.02059e-10
2.02125e-10
2.0219e-10
2.02255e-10
2.02318e-10
2.0238e-10
2.02441e-10
2.02499e-10
2.02556e-10
2.0261e-10
2.02662e-10
2.02711e-10
2.02758e-10
2.02802e-10
2.02844e-10
2.02884e-10
2.02921e-10
2.02957e-10
2.02991e-10
2.03024e-10
2.03056e-10
2.03088e-10
2.03118e-10
2.03149e-10
2.03179e-10
2.03208e-10
2.03238e-10
2.03267e-10
2.03297e-10
2.03326e-10
2.03354e-10
2.03383e-10
2.03411e-10
2.03438e-10
2.03465e-10
2.03491e-10
2.03516e-10
2.0354e-10
2.03563e-10
2.03585e-10
2.03606e-10
2.03627e-10
2.03646e-10
2.03664e-10
2.03681e-10
2.03698e-10
2.03714e-10
2.03729e-10
2.03744e-10
2.03758e-10
2.03772e-10
2.03786e-10
2.038e-10
2.03813e-10
2.03827e-10
2.03841e-10
2.03854e-10
2.03868e-10
2.03882e-10
2.03896e-10
2.03911e-10
2.03926e-10
2.0394e-10
2.03955e-10
2.0397e-10
2.03985e-10
2.04e-10
2.04015e-10
2.0403e-10
2.04045e-10
2.04061e-10
2.04076e-10
2.04091e-10
2.04107e-10
2.04122e-10
2.04137e-10
2.04152e-10
2.04167e-10
2.04182e-10
2.04196e-10
2.04211e-10
2.04225e-10
2.04239e-10
2.04253e-10
2.04266e-10
2.0428e-10
2.04293e-10
2.04306e-10
2.04319e-10
2.04332e-10
2.04345e-10
2.04358e-10
2.04372e-10
2.04385e-10
2.04399e-10
2.04414e-10
2.04428e-10
2.04444e-10
2.04459e-10
2.04475e-10
2.04492e-10
2.0451e-10
2.04527e-10
2.04546e-10
2.04565e-10
2.04584e-10
2.04604e-10
2.04625e-10
2.04646e-10
2.04667e-10
2.04689e-10
2.04711e-10
2.04733e-10
2.04756e-10
2.04778e-10
2.048e-10
2.04822e-10
2.04844e-10
2.04866e-10
2.04889e-10
2.04911e-10
2.04933e-10
2.04955e-10
2.04978e-10
2.05e-10
2.05023e-10
2.05045e-10
2.05069e-10
2.05092e-10
2.05116e-10
2.0514e-10
2.05165e-10
2.05191e-10
2.05217e-10
2.05244e-10
2.05272e-10
2.053e-10
2.0533e-10
2.0536e-10
2.05392e-10
2.05424e-10
2.05457e-10
2.05491e-10
2.05526e-10
2.05562e-10
2.05598e-10
2.05636e-10
2.05674e-10
2.05714e-10
2.05754e-10
2.05795e-10
2.05837e-10
2.05879e-10
2.05923e-10
2.05967e-10
2.06012e-10
2.06058e-10
2.06105e-10
2.06152e-10
2.06201e-10
2.0625e-10
2.06301e-10
2.06353e-10
2.06406e-10
2.06459e-10
2.06515e-10
2.06571e-10
2.06629e-10
2.06688e-10
2.06749e-10
2.06811e-10
2.06875e-10
2.0694e-10
2.07007e-10
2.07077e-10
2.07148e-10
2.07221e-10
2.07296e-10
2.07373e-10
2.07452e-10
2.07534e-10
2.07618e-10
2.07705e-10
2.07794e-10
2.07886e-10
2.07981e-10
2.08078e-10
2.08176e-10
2.083e-10
2.08257e-10
2.10393e-10
2.10283e-10
2.10141e-10
2.09974e-10
2.09782e-10
2.09573e-10
2.09349e-10
2.0911e-10
2.08861e-10
2.08601e-10
2.08327e-10
2.08046e-10
2.07759e-10
2.0282e-10
2.02856e-10
2.02893e-10
2.02931e-10
2.02971e-10
2.0301e-10
2.0305e-10
2.03089e-10
2.03127e-10
2.03165e-10
2.03201e-10
2.03236e-10
2.03269e-10
2.03301e-10
2.0333e-10
2.03359e-10
2.03385e-10
2.0341e-10
2.03434e-10
2.03456e-10
2.03478e-10
2.03498e-10
2.03518e-10
2.03537e-10
2.03557e-10
2.03575e-10
2.03594e-10
2.03612e-10
2.0363e-10
2.03649e-10
2.03667e-10
2.03685e-10
2.03702e-10
2.03721e-10
2.03738e-10
2.03755e-10
2.03772e-10
2.03789e-10
2.03805e-10
2.03821e-10
2.03837e-10
2.03852e-10
2.03867e-10
2.03882e-10
2.03897e-10
2.03911e-10
2.03925e-10
2.03939e-10
2.03953e-10
2.03967e-10
2.03981e-10
2.03995e-10
2.04009e-10
2.04023e-10
2.04038e-10
2.04052e-10
2.04067e-10
2.04082e-10
2.04098e-10
2.04113e-10
2.0413e-10
2.04146e-10
2.04162e-10
2.04179e-10
2.04196e-10
2.04213e-10
2.0423e-10
2.04248e-10
2.04265e-10
2.04282e-10
2.043e-10
2.04317e-10
2.04335e-10
2.04353e-10
2.04371e-10
2.04388e-10
2.04405e-10
2.04424e-10
2.04441e-10
2.04458e-10
2.04476e-10
2.04494e-10
2.04512e-10
2.04529e-10
2.04546e-10
2.04563e-10
2.0458e-10
2.04597e-10
2.04615e-10
2.04633e-10
2.0465e-10
2.04669e-10
2.04687e-10
2.04706e-10
2.04726e-10
2.04746e-10
2.04766e-10
2.04787e-10
2.04809e-10
2.04831e-10
2.04854e-10
2.04878e-10
2.04902e-10
2.04927e-10
2.04953e-10
2.04979e-10
2.05006e-10
2.05034e-10
2.05062e-10
2.0509e-10
2.0512e-10
2.05149e-10
2.05179e-10
2.0521e-10
2.05241e-10
2.05272e-10
2.05304e-10
2.05336e-10
2.05368e-10
2.05401e-10
2.05434e-10
2.05468e-10
2.05502e-10
2.05536e-10
2.05571e-10
2.05607e-10
2.05643e-10
2.0568e-10
2.05717e-10
2.05755e-10
2.05795e-10
2.05835e-10
2.05877e-10
2.05919e-10
2.05963e-10
2.06008e-10
2.06054e-10
2.06102e-10
2.06151e-10
2.06201e-10
2.06253e-10
2.06306e-10
2.06361e-10
2.06418e-10
2.06475e-10
2.06534e-10
2.06595e-10
2.06657e-10
2.06721e-10