/*--------------------------------*- C++ -*----------------------------------*\
| =========                 |                                                 |
| \\      /  F ield         | OpenFOAM: The Open Source CFD Toolbox           |
|  \\    /   O peration     | Version:  v1706                                 |
|   \\  /    A nd           | Web:      www.OpenFOAM.com                      |
|    \\/     M anipulation  |                                                 |
\*---------------------------------------------------------------------------*/
FoamFile
{
    version     2.0;
    format      ascii;
    class       volScalarField;
    location    "1.5e-05";
    object      Mach;
}
// * * * * * * * * * * * * * * * * * * * * * * * * * * * * * * * * * * * * * //

dimensions      [0 0 0 0 0 0 0];


internalField   nonuniform List<scalar> 
30104
(
3.99464
3.99463
3.99461
3.99459
3.99457
3.99455
3.99454
3.99452
3.9945
3.99448
3.99447
3.99445
3.99444
3.99442
3.99441
3.9944
3.99439
3.99469
3.99469
3.99468
3.99468
3.99468
3.99467
3.99467
3.99467
3.99466
3.99466
3.99466
3.99465
3.99465
3.99465
3.99464
3.99464
3.99464
3.99463
3.99463
3.99463
3.99462
3.99462
3.99461
3.99461
3.99461
3.9946
3.9946
3.9946
3.99459
3.99459
3.99458
3.99458
3.99458
3.99457
3.99457
3.99456
3.99456
3.99455
3.99455
3.99455
3.99454
3.99454
3.99453
3.99453
3.99452
3.99452
3.99451
3.99451
3.9945
3.9945
3.99449
3.99449
3.99448
3.99448
3.99447
3.99447
3.99446
3.99446
3.99445
3.99445
3.99444
3.99443
3.99443
3.99442
3.99442
3.99441
3.9944
3.9944
3.99439
3.99439
3.99438
3.99437
3.99437
3.99436
3.99435
3.99435
3.99434
3.99433
3.99432
3.99432
3.99431
3.9943
3.99429
3.99428
3.99428
3.99427
3.99426
3.99425
3.99424
3.99423
3.99422
3.99421
3.9942
3.99419
3.99419
3.99418
3.99417
3.99416
3.99415
3.99414
3.99413
3.99412
3.99411
3.9941
3.99409
3.99408
3.99406
3.99405
3.99404
3.99403
3.99402
3.99401
3.994
3.99399
3.99398
3.99397
3.99396
3.99394
3.99393
3.99392
3.99391
3.9939
3.99389
3.99387
3.99386
3.99385
3.99384
3.99382
3.99381
3.9938
3.99379
3.99377
3.99376
3.99375
3.99373
3.99372
3.9937
3.99369
3.99368
3.99366
3.99365
3.99363
3.99361
3.9936
3.99358
3.99357
3.99355
3.99353
3.99351
3.9935
3.99348
3.99346
3.99344
3.99342
3.9934
3.99338
3.99336
3.99334
3.99332
3.9933
3.99327
3.99325
3.99323
3.99321
3.99319
3.99316
3.99314
3.99312
3.99309
3.99307
3.99304
3.99302
3.99299
3.99297
3.99294
3.99292
3.99289
3.99286
3.99284
3.99281
3.99278
3.99275
3.99272
3.99269
3.99266
3.99263
3.9926
3.99256
3.99253
3.9925
3.99247
3.99248
3.9928
3.99307
3.99297
3.99287
3.99276
3.99266
3.99255
3.99245
3.99235
3.99224
3.99215
3.99205
3.99196
3.99187
3.99178
3.9917
3.99163
3.99156
3.99312
3.9931
3.99307
3.99305
3.99303
3.993
3.99298
3.99295
3.99293
3.99291
3.99288
3.99286
3.99283
3.99281
3.99278
3.99276
3.99273
3.99271
3.99268
3.99265
3.99263
3.9926
3.99257
3.99254
3.99252
3.99249
3.99246
3.99243
3.9924
3.99237
3.99234
3.99231
3.99227
3.99224
3.99221
3.99218
3.99214
3.99211
3.99207
3.99204
3.992
3.99196
3.99193
3.99189
3.99185
3.99181
3.99177
3.99173
3.99169
3.99165
3.99161
3.99157
3.99153
3.99148
3.99144
3.9914
3.99135
3.99131
3.99126
3.99121
3.99117
3.99112
3.99107
3.99102
3.99098
3.99093
3.99088
3.99083
3.99077
3.99072
3.99067
3.99062
3.99056
3.99051
3.99045
3.9904
3.99034
3.99028
3.99022
3.99016
3.9901
3.99004
3.98998
3.98992
3.98985
3.98979
3.98972
3.98966
3.98959
3.98952
3.98945
3.98938
3.98931
3.98923
3.98916
3.98909
3.98901
3.98893
3.98885
3.98878
3.9887
3.98861
3.98853
3.98845
3.98836
3.98828
3.98819
3.9881
3.98801
3.98792
3.98782
3.98773
3.98763
3.98753
3.98743
3.98733
3.98723
3.98712
3.98702
3.98691
3.9868
3.98669
3.98657
3.98645
3.98633
3.98621
3.98609
3.98596
3.98583
3.9857
3.98557
3.98543
3.98529
3.98515
3.98501
3.98486
3.98471
3.98456
3.9844
3.98425
3.98408
3.98392
3.98376
3.98359
3.98342
3.98324
3.98307
3.98289
3.98271
3.98253
3.98234
3.98215
3.98196
3.98177
3.98158
3.98139
3.98119
3.98099
3.98079
3.9806
3.98039
3.98019
3.97999
3.97979
3.97958
3.97938
3.97917
3.97896
3.97875
3.97854
3.97833
3.97812
3.9779
3.97769
3.97747
3.97724
3.97702
3.97679
3.97656
3.97632
3.97608
3.97583
3.97559
3.97533
3.97507
3.97481
3.97453
3.97426
3.97397
3.97368
3.97337
3.97338
3.97502
3.98915
3.98884
3.98852
3.9882
3.98787
3.98755
3.98723
3.98692
3.98661
3.98631
3.98602
3.98574
3.98547
3.98521
3.98498
3.98476
3.98866
3.98857
3.98848
3.98839
3.98829
3.9882
3.98811
3.98802
3.98792
3.98783
3.98773
3.98764
3.98754
3.98744
3.98734
3.98724
3.98714
3.98704
3.98693
3.98683
3.98672
3.98661
3.9865
3.98639
3.98628
3.98617
3.98605
3.98593
3.98581
3.98569
3.98557
3.98545
3.98532
3.98519
3.98506
3.98493
3.98479
3.98466
3.98452
3.98438
3.98423
3.98409
3.98394
3.98379
3.98364
3.98348
3.98333
3.98317
3.983
3.98284
3.98267
3.98251
3.98233
3.98216
3.98198
3.98181
3.98162
3.98144
3.98126
3.98107
3.98088
3.98068
3.98048
3.98028
3.98008
3.97988
3.97967
3.97946
3.97924
3.97902
3.9788
3.97858
3.97835
3.97811
3.97787
3.97763
3.97739
3.97713
3.97688
3.97662
3.97635
3.97608
3.9758
3.97552
3.97523
3.97494
3.97464
3.97433
3.97402
3.9737
3.97337
3.97304
3.97271
3.97236
3.97201
3.97166
3.9713
3.97093
3.97055
3.97018
3.96979
3.9694
3.969
3.9686
3.9682
3.96779
3.96737
3.96695
3.96653
3.9661
3.96566
3.96522
3.96478
3.96433
3.96388
3.96343
3.96297
3.9625
3.96203
3.96155
3.96107
3.96058
3.96009
3.95959
3.95908
3.95856
3.95804
3.95751
3.95697
3.95642
3.95586
3.95529
3.95471
3.95411
3.95351
3.9529
3.95227
3.95163
3.95097
3.9503
3.94962
3.94892
3.9482
3.94747
3.94672
3.94595
3.94517
3.94437
3.94355
3.94271
3.94185
3.94098
3.94008
3.93917
3.93824
3.93729
3.93633
3.93535
3.93435
3.93333
3.9323
3.93126
3.9302
3.92913
3.92804
3.92695
3.92584
3.92473
3.9236
3.92247
3.92132
3.92017
3.919
3.91783
3.91664
3.91544
3.91422
3.913
3.91175
3.91049
3.90921
3.90791
3.90659
3.90525
3.90388
3.90249
3.90107
3.89961
3.89813
3.89664
3.89503
3.89424
3.89953
3.97964
3.97882
3.97799
3.97716
3.97633
3.9755
3.97468
3.97387
3.97307
3.97229
3.97154
3.97081
3.97012
3.96946
3.96884
3.96827
3.97654
3.97625
3.97595
3.97566
3.97536
3.97506
3.97476
3.97445
3.97415
3.97384
3.97352
3.97321
3.97289
3.97257
3.97224
3.97191
3.97157
3.97123
3.97089
3.97054
3.97018
3.96982
3.96945
3.96908
3.9687
3.96832
3.96793
3.96753
3.96713
3.96672
3.96631
3.96589
3.96546
3.96502
3.96458
3.96413
3.96367
3.9632
3.96273
3.96225
3.96175
3.96125
3.96074
3.96022
3.95969
3.95915
3.9586
3.95804
3.95747
3.95689
3.95629
3.95569
3.95508
3.95445
3.95381
3.95317
3.95251
3.95184
3.95116
3.95047
3.94976
3.94905
3.94833
3.94759
3.94685
3.9461
3.94533
3.94456
3.94378
3.94298
3.94218
3.94136
3.94053
3.93969
3.93884
3.93798
3.9371
3.93621
3.9353
3.93438
3.93344
3.93249
3.93152
3.93053
3.92953
3.9285
3.92746
3.9264
3.92531
3.92421
3.92308
3.92193
3.92076
3.91956
3.91834
3.9171
3.91583
3.91454
3.91322
3.91188
3.91052
3.90912
3.90771
3.90627
3.9048
3.90331
3.90179
3.90025
3.89868
3.89709
3.89548
3.89384
3.89218
3.89049
3.88878
3.88705
3.88529
3.88351
3.88171
3.87988
3.87802
3.87614
3.87424
3.8723
3.87033
3.86833
3.8663
3.86423
3.86213
3.85998
3.8578
3.85558
3.85332
3.85101
3.84865
3.84624
3.84379
3.84128
3.83872
3.8361
3.83342
3.83068
3.82788
3.82501
3.82208
3.81909
3.81602
3.81289
3.80968
3.8064
3.80305
3.79963
3.79614
3.79258
3.78895
3.78525
3.78148
3.77764
3.77375
3.7698
3.76579
3.76173
3.75762
3.75346
3.74927
3.74505
3.74079
3.73652
3.73224
3.72795
3.72366
3.71936
3.71507
3.71077
3.70647
3.70216
3.69784
3.69352
3.68919
3.68484
3.68047
3.67609
3.67169
3.66725
3.66279
3.65828
3.65373
3.64913
3.64449
3.63974
3.63516
3.63076
3.64307
3.95726
3.95529
3.9533
3.95132
3.94934
3.94738
3.94543
3.94352
3.94166
3.93984
3.93809
3.93642
3.93483
3.93333
3.93193
3.94523
3.94436
3.94349
3.94262
3.94173
3.94084
3.93994
3.93904
3.93812
3.93719
3.93626
3.93531
3.93435
3.93337
3.93239
3.93138
3.93037
3.92933
3.92828
3.92721
3.92613
3.92503
3.92391
3.92278
3.92162
3.92045
3.91926
3.91806
3.91683
3.91559
3.91433
3.91305
3.91175
3.91042
3.90908
3.90772
3.90633
3.90493
3.90349
3.90203
3.90055
3.89904
3.8975
3.89593
3.89434
3.89271
3.89106
3.88937
3.88765
3.8859
3.88411
3.88229
3.88043
3.87855
3.87662
3.87466
3.87267
3.87063
3.86857
3.86646
3.86432
3.86215
3.85994
3.85769
3.85541
3.8531
3.85075
3.84836
3.84595
3.84349
3.84101
3.83849
3.83595
3.83336
3.83074
3.82809
3.8254
3.82266
3.81989
3.81707
3.8142
3.81128
3.80832
3.8053
3.80222
3.79908
3.79589
3.79263
3.7893
3.7859
3.78243
3.77889
3.77527
3.77158
3.7678
3.76394
3.76
3.75598
3.75187
3.74768
3.74341
3.73905
3.73461
3.73008
3.72548
3.72081
3.71605
3.71123
3.70633
3.70137
3.69634
3.69126
3.68612
3.68092
3.67568
3.6704
3.66509
3.65975
3.65438
3.649
3.6436
3.63818
3.63274
3.62728
3.62179
3.61628
3.61073
3.60515
3.59954
3.59388
3.58818
3.58243
3.57663
3.57077
3.56484
3.55884
3.55276
3.54659
3.54032
3.53396
3.52748
3.52088
3.51415
3.50728
3.50027
3.4931
3.48576
3.47826
3.47057
3.46269
3.45462
3.44636
3.43789
3.42922
3.42033
3.41125
3.40195
3.39246
3.38276
3.37287
3.3628
3.35254
3.34212
3.33154
3.32081
3.30995
3.29896
3.28787
3.27668
3.26545
3.25429
3.24325
3.23228
3.22148
3.21073
3.20019
3.18969
3.17944
3.16921
3.15928
3.14933
3.13973
3.13009
3.12083
3.11153
3.10257
3.09369
3.0849
3.07669
3.06773
3.06084
3.05146
3.05694
3.91143
3.9071
3.90275
3.8984
3.89407
3.88978
3.88555
3.88139
3.87732
3.87336
3.86953
3.86584
3.86231
3.85898
3.85585
3.85295
3.86957
3.8673
3.86502
3.86272
3.8604
3.85806
3.8557
3.85332
3.85091
3.84847
3.84601
3.84352
3.841
3.83844
3.83584
3.8332
3.83053
3.82781
3.82505
3.82224
3.81939
3.81648
3.81354
3.81054
3.8075
3.8044
3.80127
3.79808
3.79485
3.79157
3.78825
3.78488
3.78147
3.77801
3.77451
3.77095
3.76735
3.7637
3.75999
3.75623
3.75242
3.74854
3.7446
3.7406
3.73653
3.7324
3.72819
3.72391
3.71955
3.71512
3.7106
3.706
3.70131
3.69654
3.69168
3.68673
3.68168
3.67655
3.67132
3.666
3.66059
3.65509
3.6495
3.64383
3.63808
3.63225
3.62634
3.62036
3.61431
3.6082
3.60204
3.59583
3.58958
3.5833
3.57698
3.57064
3.56427
3.55786
3.55141
3.54493
3.53841
3.53184
3.52522
3.51856
3.51184
3.50505
3.49821
3.49129
3.48429
3.47721
3.47005
3.46278
3.45542
3.44794
3.44035
3.43263
3.42479
3.41681
3.4087
3.40044
3.39203
3.38347
3.37475
3.36589
3.35687
3.34769
3.33837
3.3289
3.31929
3.30954
3.29966
3.28967
3.27956
3.26935
3.25905
3.24867
3.23822
3.22772
3.2172
3.20677
3.19644
3.18622
3.1761
3.1661
3.15622
3.14645
3.13681
3.1273
3.11792
3.10868
3.09958
3.09063
3.08182
3.07317
3.06468
3.05635
3.04818
3.04018
3.03236
3.0247
3.01722
3.00992
3.0028
2.99586
2.9891
2.98252
2.97612
2.96991
2.96387
2.95802
2.95235
2.94685
2.94153
2.93639
2.93142
2.92662
2.92199
2.91753
2.91324
2.90911
2.90514
2.90134
2.89769
2.8942
2.89087
2.88769
2.88468
2.88181
2.87911
2.87654
2.87411
2.87177
2.86959
2.86749
2.86554
2.86368
2.86198
2.86035
2.85889
2.85749
2.85629
2.85511
2.85415
2.85319
2.85247
2.85171
2.85123
2.85065
2.85042
2.85001
2.84998
2.84968
2.85393
3.81116
3.80238
3.79366
3.78505
3.77658
3.76827
3.76017
3.75229
3.74467
3.73734
3.73032
3.72365
3.71737
3.70769
3.70264
3.69755
3.69243
3.68729
3.68211
3.67691
3.67167
3.6664
3.66108
3.65572
3.65032
3.64486
3.63934
3.63375
3.6281
3.62238
3.61658
3.6107
3.60475
3.59871
3.59258
3.58638
3.58009
3.57372
3.56726
3.56073
3.55412
3.54744
3.54069
3.53388
3.52701
3.52009
3.51313
3.50613
3.49909
3.492
3.48488
3.47771
3.47049
3.46323
3.45592
3.44855
3.44114
3.43366
3.42613
3.41853
3.41087
3.40313
3.39533
3.38744
3.37947
3.37141
3.36326
3.35502
3.34667
3.33822
3.32966
3.321
3.31222
3.30333
3.29433
3.28521
3.27599
3.26666
3.25724
3.24771
3.2381
3.22842
3.21866
3.20884
3.19896
3.18905
3.17914
3.16932
3.15961
3.15001
3.14052
3.13115
3.12191
3.1128
3.10382
3.09498
3.08628
3.07772
3.06931
3.06104
3.05293
3.04498
3.03718
3.02954
3.02206
3.01475
3.0076
3.00062
2.99381
2.98716
2.98069
2.97439
2.96827
2.96232
2.95654
2.95093
2.94549
2.94022
2.93512
2.93019
2.92542
2.92082
2.91637
2.91209
2.90796
2.90398
2.90016
2.89649
2.89297
2.8896
2.88638
2.8833
2.88033
2.87746
2.87471
2.87207
2.86952
2.86708
2.86474
2.8625
2.86035
2.8583
2.85634
2.85446
2.85268
2.85098
2.84936
2.84783
2.84638
2.84502
2.84373
2.84252
2.84138
2.84032
2.83934
2.83843
2.83758
2.83681
2.83609
2.83545
2.83486
2.83433
2.83385
2.83343
2.83306
2.83274
2.83246
2.83223
2.83204
2.83188
2.83177
2.83168
2.83163
2.83161
2.83161
2.83164
2.83169
2.83176
2.83184
2.83193
2.83203
2.83214
2.83224
2.83235
2.83243
2.83253
2.83256
2.83263
2.83259
2.83262
2.83249
2.83246
2.83223
2.83212
2.83178
2.83157
2.83113
2.8308
2.83029
2.82981
2.82924
2.82862
2.82803
2.82728
2.82668
2.82701
3.62498
3.61012
3.5956
3.58149
3.56785
3.55472
3.54213
3.53012
3.51872
3.50794
3.4978
3.48833
3.47955
3.4288
3.42039
3.41198
3.40359
3.39523
3.38688
3.37855
3.37024
3.36194
3.35364
3.34535
3.33706
3.32876
3.32043
3.31209
3.30371
3.29529
3.28683
3.27832
3.26976
3.26115
3.25248
3.24375
3.23497
3.22613
3.21724
3.20829
3.1993
3.19027
3.18121
3.17211
3.16299
3.15385
3.14474
3.13572
3.12679
3.11797
3.10925
3.10064
3.09215
3.08377
3.07553
3.06741
3.05942
3.05157
3.04386
3.0363
3.02888
3.02162
3.01451
3.00756
3.00077
2.99415
2.98769
2.9814
2.97528
2.96933
2.96355
2.95794
2.9525
2.94723
2.94212
2.93718
2.9324
2.92778
2.92332
2.91901
2.91485
2.91085
2.90699
2.90327
2.89969
2.89625
2.89294
2.88974
2.88664
2.88363
2.88073
2.87793
2.87522
2.8726
2.87008
2.86765
2.86531
2.86305
2.86088
2.85879
2.85677
2.85484
2.85298
2.85119
2.84947
2.84782
2.84623
2.84471
2.84324
2.84184
2.8405
2.83921
2.83798
2.8368
2.83567
2.83458
2.83355
2.83256
2.83161
2.83071
2.82985
2.82903
2.82825
2.82751
2.82681
2.82615
2.82553
2.82496
2.82443
2.82394
2.8235
2.82311
2.82277
2.82248
2.82223
2.82202
2.82186
2.82175
2.82167
2.82163
2.82163
2.82165
2.82171
2.82179
2.82189
2.82201
2.82213
2.82227
2.8224
2.82254
2.82267
2.82279
2.82289
2.82298
2.82304
2.82309
2.8231
2.82309
2.82305
2.82297
2.82287
2.82273
2.82256
2.82236
2.82212
2.82185
2.82155
2.82122
2.82085
2.82047
2.82004
2.81961
2.81913
2.81865
2.81813
2.81762
2.81707
2.81652
2.81595
2.81539
2.81481
2.81424
2.81366
2.8131
2.81251
2.81197
2.81139
2.81087
2.81029
2.80979
2.80922
2.80873
2.80819
2.80771
2.8072
2.80673
2.80624
2.80576
2.80529
2.8048
2.80434
2.80386
2.8034
2.80294
2.8025
2.80263
3.36152
3.34114
3.32166
3.30314
3.28566
3.26924
3.25391
3.23968
3.22654
3.21448
3.2035
3.19355
3.1846
3.17665
3.09494
3.08611
3.07746
3.069
3.06074
3.05268
3.04481
3.03715
3.02969
3.02243
3.01536
3.00849
3.0018
2.9953
2.98897
2.98282
2.97685
2.97104
2.96539
2.95991
2.9546
2.94945
2.94446
2.93963
2.93496
2.93045
2.92609
2.92189
2.91783
2.91393
2.91016
2.90654
2.90306
2.8997
2.89644
2.89328
2.89023
2.88727
2.8844
2.88163
2.87896
2.87637
2.87387
2.87146
2.86912
2.86687
2.8647
2.86261
2.86058
2.85863
2.85675
2.85493
2.85317
2.85148
2.84984
2.84825
2.84672
2.84524
2.8438
2.84242
2.84108
2.83978
2.83853
2.83732
2.83615
2.83502
2.83393
2.83288
2.83187
2.83089
2.82996
2.82906
2.82819
2.82736
2.82657
2.82582
2.82509
2.8244
2.82375
2.82312
2.82253
2.82197
2.82144
2.82095
2.82048
2.82004
2.81963
2.81925
2.81889
2.81856
2.81825
2.81797
2.81771
2.81748
2.81727
2.81708
2.81691
2.81676
2.81663
2.81653
2.81644
2.81637
2.81631
2.81628
2.81625
2.81625
2.81625
2.81626
2.81628
2.8163
2.81633
2.81635
2.81638
2.8164
2.81641
2.81641
2.8164
2.81637
2.81633
2.81627
2.81618
2.81608
2.81596
2.81581
2.81565
2.81547
2.81526
2.81504
2.81481
2.81456
2.8143
2.81402
2.81374
2.81345
2.81314
2.81284
2.81252
2.8122
2.81188
2.81155
2.81121
2.81087
2.81053
2.81018
2.80983
2.80948
2.80913
2.80877
2.80841
2.80804
2.80768
2.80731
2.80694
2.80656
2.80618
2.8058
2.80542
2.80504
2.80466
2.80428
2.80391
2.80353
2.80317
2.80279
2.80244
2.80207
2.80171
2.80134
2.80098
2.8006
2.80023
2.79984
2.79945
2.79904
2.79862
2.79817
2.79771
2.79723
2.79674
2.79622
2.79568
2.7951
2.79449
2.79389
2.79327
2.79266
2.79204
2.79142
2.79078
2.79015
2.78949
2.78883
2.78877
3.03383
3.01504
2.99787
2.98234
2.96844
2.95612
2.94533
2.93602
2.92811
2.92157
2.91637
2.91242
2.90963
2.90789
2.89644
2.89315
2.89
2.88698
2.88408
2.88131
2.87865
2.87611
2.87366
2.87132
2.86907
2.86691
2.86484
2.86284
2.86092
2.85907
2.85729
2.85557
2.85391
2.85231
2.85075
2.84925
2.84779
2.84638
2.84501
2.84368
2.84239
2.84114
2.83993
2.83876
2.83763
2.83653
2.83548
2.83446
2.83348
2.83254
2.83163
2.83075
2.82991
2.82909
2.82831
2.82756
2.82683
2.82613
2.82546
2.82481
2.82418
2.82357
2.82299
2.82243
2.82188
2.82136
2.82085
2.82037
2.8199
2.81944
2.81901
2.81859
2.81819
2.8178
2.81744
2.81709
2.81677
2.81646
2.81617
2.81591
2.81567
2.81545
2.81525
2.81507
2.81492
2.81478
2.81466
2.81456
2.81447
2.8144
2.81434
2.81428
2.81422
2.81417
2.81412
2.81406
2.81401
2.81395
2.81388
2.81381
2.81372
2.81364
2.81355
2.81344
2.81332
2.81321
2.81308
2.81295
2.81282
2.81268
2.81253
2.81239
2.81223
2.81208
2.81192
2.81176
2.81159
2.81143
2.81126
2.81108
2.81091
2.81073
2.81054
2.81036
2.81017
2.80998
2.80979
2.8096
2.8094
2.8092
2.809
2.8088
2.80859
2.80837
2.80814
2.80791
2.80767
2.80743
2.80718
2.80693
2.80667
2.80641
2.80614
2.80587
2.80559
2.8053
2.805
2.80469
2.80438
2.80405
2.80372
2.80337
2.80302
2.80265
2.80227
2.80188
2.80148
2.80107
2.80065
2.80022
2.79978
2.79933
2.79887
2.79839
2.79789
2.79739
2.79689
2.79638
2.79587
2.79534
2.79482
2.79428
2.79373
2.79318
2.79261
2.79202
2.79142
2.79081
2.79017
2.78952
2.78884
2.78815
2.78743
2.78668
2.78591
2.78513
2.78431
2.78348
2.78262
2.78175
2.78085
2.77994
2.77901
2.77807
2.77711
2.77615
2.77518
2.77419
2.77318
2.77213
2.77106
2.76996
2.76882
2.76766
2.76646
2.76518
2.76505
2.77681
2.77147
2.76759
2.76497
2.76345
2.7629
2.76324
2.76444
2.76628
2.76879
2.77198
2.77576
2.78
2.78463
2.83804
2.83703
2.83606
2.83512
2.83422
2.83335
2.83251
2.8317
2.83093
2.83017
2.82944
2.82874
2.82806
2.82739
2.82675
2.82612
2.82551
2.82492
2.82435
2.82379
2.82325
2.82273
2.82221
2.82172
2.82124
2.82078
2.82033
2.8199
2.81949
2.8191
2.81872
2.81836
2.81802
2.8177
2.81739
2.81711
2.81683
2.81657
2.81632
2.81609
2.81586
2.81565
2.81544
2.81524
2.81505
2.81486
2.81468
2.81451
2.81434
2.81417
2.81401
2.81385
2.8137
2.81355
2.8134
2.81326
2.81312
2.81298
2.81284
2.81271
2.81258
2.81244
2.81231
2.81218
2.81204
2.8119
2.81177
2.81162
2.81147
2.81133
2.81118
2.81101
2.81086
2.81072
2.81055
2.81039
2.81024
2.81009
2.80992
2.80977
2.80964
2.80948
2.80933
2.80919
2.80905
2.8089
2.80873
2.80858
2.80843
2.80824
2.80807
2.80791
2.80772
2.80753
2.80735
2.80715
2.80695
2.80676
2.80656
2.80635
2.80613
2.80592
2.8057
2.80547
2.80524
2.805
2.80475
2.8045
2.80424
2.80397
2.80369
2.8034
2.8031
2.80279
2.80246
2.80212
2.80176
2.80138
2.80099
2.8006
2.80021
2.7998
2.7994
2.79898
2.79856
2.79812
2.79768
2.79723
2.79676
2.79628
2.79578
2.79528
2.79475
2.79421
2.79366
2.79309
2.79251
2.79191
2.7913
2.79067
2.79003
2.78937
2.7887
2.78801
2.78731
2.78659
2.78586
2.78511
2.78435
2.78358
2.78279
2.78198
2.78116
2.78031
2.77943
2.77854
2.77761
2.77667
2.77569
2.77468
2.77364
2.77257
2.77147
2.77034
2.76918
2.76798
2.76675
2.76549
2.76419
2.76287
2.76151
2.76012
2.7587
2.75725
2.75577
2.75426
2.75272
2.75114
2.74953
2.74788
2.7462
2.74448
2.7427
2.74089
2.73901
2.7371
2.73512
2.73309
2.731
2.72887
2.72669
2.72444
2.72429
2.66939
2.67252
2.67618
2.6804
2.68526
2.69049
2.69603
2.70187
2.70796
2.71428
2.72083
2.72781
2.73504
2.82065
2.82034
2.82004
2.81976
2.81949
2.81923
2.81898
2.81873
2.81848
2.81824
2.81799
2.81774
2.81749
2.81725
2.817
2.81675
2.81651
2.81628
2.81605
2.81582
2.81561
2.8154
2.8152
2.815
2.81481
2.81462
2.81443
2.81424
2.81406
2.81388
2.81369
2.81351
2.81333
2.81313
2.81293
2.81275
2.81255
2.81234
2.81215
2.81196
2.81175
2.81156
2.81137
2.81117
2.81098
2.8108
2.81061
2.81043
2.81025
2.81008
2.80992
2.80975
2.80959
2.80943
2.80928
2.80912
2.80897
2.80883
2.80868
2.80853
2.80841
2.80826
2.80812
2.808
2.80783
2.80768
2.80755
2.80738
2.80721
2.80707
2.80691
2.80671
2.80654
2.80638
2.80618
2.80596
2.80578
2.80557
2.80531
2.80509
2.80486
2.80458
2.8043
2.80401
2.80372
2.80341
2.8031
2.8028
2.80249
2.80217
2.80185
2.80154
2.8012
2.80087
2.80054
2.80019
2.79984
2.79948
2.79912
2.79874
2.79836
2.79797
2.79756
2.79715
2.79673
2.79629
2.79584
2.79537
2.7949
2.79441
2.7939
2.79338
2.79284
2.79229
2.79173
2.79115
2.79056
2.78997
2.78936
2.78873
2.78809
2.78742
2.78674
2.78604
2.78532
2.78458
2.78382
2.78303
2.78223
2.7814
2.78055
2.77968
2.77879
2.77787
2.77693
2.77597
2.77498
2.77397
2.77293
2.77187
2.77079
2.76968
2.76854
2.76738
2.76618
2.76496
2.76371
2.76243
2.76111
2.75976
2.75837
2.75694
2.75548
2.75397
2.75242
2.75083
2.74919
2.74752
2.74579
2.74403
2.74221
2.74035
2.73845
2.7365
2.7345
2.73245
2.73036
2.72821
2.72602
2.72378
2.72149
2.71914
2.71674
2.71428
2.71177
2.7092
2.70657
2.70387
2.70111
2.69828
2.69538
2.69241
2.68937
2.68625
2.68306
2.67979
2.67643
2.67301
2.66949
2.66599
2.6624
2.65899
2.65908
2.63075
2.63762
2.64502
2.65082
2.6585
2.66622
2.67375
2.68136
2.68899
2.6966
2.70425
2.71194
2.71971
2.8147
2.81456
2.81441
2.81425
2.81408
2.8139
2.81372
2.81353
2.81333
2.81314
2.81294
2.81274
2.81255
2.81236
2.81216
2.81197
2.81178
2.81158
2.81139
2.8112
2.811
2.8108
2.81059
2.8104
2.81022
2.81
2.80981
2.80965
2.80943
2.80924
2.80911
2.80889
2.8087
2.80859
2.8084
2.8082
2.80809
2.80794
2.80772
2.80757
2.80744
2.80723
2.80706
2.8069
2.80673
2.80654
2.80635
2.80617
2.80599
2.80579
2.80558
2.80538
2.80518
2.80495
2.80472
2.80451
2.80424
2.80398
2.80374
2.80343
2.80313
2.80289
2.80256
2.80225
2.802
2.80167
2.80133
2.80105
2.80072
2.80037
2.80004
2.79969
2.79933
2.79896
2.79859
2.7982
2.79779
2.79739
2.79698
2.79655
2.79612
2.79569
2.79525
2.7948
2.79434
2.79387
2.79338
2.79289
2.79238
2.79186
2.79133
2.79079
2.79023
2.78966
2.78907
2.78847
2.78785
2.78722
2.78657
2.7859
2.78521
2.7845
2.78378
2.78303
2.78227
2.78148
2.78067
2.77985
2.779
2.77813
2.77723
2.77632
2.77538
2.77443
2.77344
2.77243
2.77139
2.77032
2.76922
2.76809
2.76693
2.76574
2.76451
2.76326
2.76197
2.76065
2.75929
2.7579
2.75648
2.75502
2.75353
2.752
2.75043
2.74882
2.74717
2.74549
2.74376
2.74198
2.74017
2.7383
2.73639
2.73444
2.73243
2.73037
2.72826
2.72609
2.72387
2.72159
2.71926
2.71687
2.71441
2.7119
2.70933
2.70669
2.704
2.70123
2.69841
2.69552
2.69256
2.68954
2.68645
2.68329
2.68006
2.67676
2.67338
2.66993
2.66641
2.6628
2.65912
2.65536
2.65151
2.64758
2.64356
2.63945
2.63526
2.63097
2.6266
2.62213
2.61756
2.6129
2.60814
2.60329
2.59832
2.59326
2.58808
2.58286
2.57751
2.57232
2.56704
2.56264
2.56355
2.62313
2.63048
2.63791
2.64555
2.65338
2.66133
2.6694
2.67754
2.68573
2.69395
2.70217
2.71042
2.81015
2.81
2.80985
2.8097
2.80955
2.8094
2.80925
2.8091
2.80896
2.80881
2.80865
2.80851
2.80837
2.80821
2.80805
2.80791
2.80776
2.80758
2.80743
2.80725
2.80708
2.8069
2.80667
2.8065
2.80634
2.80608
2.80589
2.80574
2.80545
2.80524
2.80508
2.80478
2.80452
2.80436
2.80404
2.80371
2.80352
2.80323
2.80289
2.80263
2.8024
2.80205
2.80174
2.80148
2.80116
2.80084
2.8005
2.80019
2.79986
2.79951
2.79916
2.79881
2.79845
2.79806
2.79768
2.7973
2.7969
2.79649
2.79609
2.79567
2.79525
2.79482
2.79437
2.79392
2.79346
2.79298
2.79249
2.792
2.79149
2.79096
2.79042
2.78987
2.78931
2.78873
2.78813
2.78753
2.78691
2.78627
2.78563
2.78496
2.78429
2.78359
2.78288
2.78214
2.78139
2.78062
2.77982
2.77901
2.77817
2.77731
2.77643
2.77552
2.77459
2.77364
2.77266
2.77166
2.77063
2.76957
2.76848
2.76737
2.76623
2.76506
2.76385
2.76262
2.76136
2.76006
2.75873
2.75737
2.75597
2.75454
2.75307
2.75156
2.75002
2.74843
2.7468
2.74513
2.74342
2.74167
2.73986
2.73802
2.73613
2.73419
2.7322
2.73016
2.72808
2.72594
2.72376
2.72152
2.71923
2.71688
2.71448
2.71202
2.7095
2.70691
2.70427
2.70156
2.69879
2.69596
2.69305
2.69008
2.68703
2.68392
2.68073
2.67746
2.67413
2.67071
2.66722
2.66365
2.66001
2.65628
2.65247
2.64858
2.6446
2.64054
2.6364
2.63217
2.62785
2.62344
2.61894
2.61435
2.60966
2.60488
2.60001
2.59504
2.58997
2.5848
2.57953
2.57415
2.56868
2.56309
2.55741
2.55161
2.54571
2.5397
2.53358
2.52735
2.52101
2.51456
2.50799
2.5013
2.4945
2.48757
2.48051
2.47336
2.46607
2.45881
2.45148
2.44457
2.43763
2.43294
2.43551
2.61333
2.62146
2.62954
2.63753
2.64545
2.65336
2.66135
2.66944
2.67761
2.68582
2.80591
2.80578
2.80565
2.80551
2.80536
2.80522
2.80507
2.80491
2.80476
2.80459
2.8044
2.80423
2.80405
2.80383
2.80359
2.80339
2.80314
2.80283
2.80257
2.80227
2.80199
2.8017
2.80132
2.80104
2.80073
2.80035
2.80004
2.79972
2.79933
2.79898
2.79866
2.79826
2.79787
2.79754
2.79714
2.79673
2.79637
2.79597
2.79554
2.79515
2.79473
2.79428
2.79384
2.7934
2.79293
2.79246
2.79197
2.79148
2.79097
2.79045
2.78992
2.78938
2.78882
2.78826
2.78768
2.78709
2.78649
2.78587
2.78524
2.7846
2.78393
2.78325
2.78256
2.78184
2.7811
2.78035
2.77958
2.77879
2.77798
2.77714
2.77629
2.77542
2.77452
2.7736
2.77266
2.7717
2.77071
2.76969
2.76865
2.76758
2.76648
2.76535
2.76419
2.763
2.76178
2.76053
2.75924
2.75792
2.75657
2.75518
2.75376
2.7523
2.7508
2.74927
2.7477
2.74609
2.74444
2.74274
2.74101
2.73923
2.73741
2.73555
2.73363
2.73167
2.72967
2.72761
2.7255
2.72335
2.72114
2.71887
2.71656
2.71418
2.71175
2.70926
2.70672
2.70411
2.70144
2.69871
2.69591
2.69306
2.69013
2.68714
2.68408
2.68095
2.67775
2.67447
2.67112
2.6677
2.6642
2.66062
2.65697
2.65323
2.64941
2.6455
2.64151
2.63744
2.63327
2.62902
2.62468
2.62025
2.61572
2.6111
2.60639
2.60158
2.59668
2.59168
2.58658
2.58138
2.57609
2.57069
2.56519
2.55958
2.55387
2.54806
2.54214
2.53611
2.52998
2.52373
2.51738
2.51092
2.50434
2.49765
2.49085
2.48393
2.4769
2.46976
2.46249
2.45512
2.44762
2.44001
2.43228
2.42443
2.41646
2.40837
2.40017
2.39184
2.38339
2.37482
2.36612
2.3573
2.34834
2.33926
2.33003
2.32075
2.31139
2.3022
2.29311
2.28484
2.27668
2.2727
2.27785
2.61293
2.62105
2.62917
2.63733
2.64552
2.65375
2.66203
2.67035
2.67868
2.80056
2.80031
2.80005
2.79977
2.79951
2.79923
2.79893
2.79867
2.79838
2.79806
2.79775
2.79748
2.79713
2.79675
2.79644
2.79608
2.79565
2.79531
2.7949
2.79449
2.79406
2.79362
2.79318
2.79273
2.79225
2.79178
2.7913
2.79079
2.79029
2.78978
2.78925
2.78871
2.78817
2.78761
2.78704
2.78646
2.78586
2.78525
2.78463
2.78398
2.78333
2.78265
2.78196
2.78126
2.78053
2.77979
2.77904
2.77826
2.77746
2.77665
2.77582
2.77496
2.77409
2.77319
2.77227
2.77133
2.77037
2.76938
2.76836
2.76732
2.76625
2.76516
2.76404
2.76289
2.76171
2.7605
2.75926
2.75799
2.75668
2.75535
2.75398
2.75257
2.75113
2.74966
2.74814
2.74659
2.745
2.74336
2.74168
2.73996
2.7382
2.73639
2.73454
2.73264
2.7307
2.72871
2.72667
2.72457
2.72243
2.72024
2.718
2.7157
2.71335
2.71094
2.70848
2.70595
2.70337
2.70073
2.69803
2.69527
2.69244
2.68955
2.68659
2.68356
2.68047
2.6773
2.67407
2.67076
2.66738
2.66392
2.66039
2.65679
2.65311
2.64934
2.6455
2.64158
2.63757
2.63348
2.6293
2.62504
2.62068
2.61624
2.6117
2.60708
2.60236
2.59754
2.59263
2.58762
2.58251
2.5773
2.57199
2.56657
2.56106
2.55544
2.54972
2.54389
2.53795
2.53191
2.52576
2.5195
2.51313
2.50665
2.50006
2.49336
2.48654
2.47962
2.47258
2.46542
2.45816
2.45077
2.44328
2.43566
2.42793
2.42009
2.41212
2.40404
2.39584
2.38753
2.3791
2.37055
2.36188
2.35309
2.34419
2.33516
2.32602
2.31677
2.30739
2.2979
2.28829
2.27856
2.26871
2.25875
2.24868
2.23849
2.22818
2.21776
2.20721
2.19655
2.18576
2.17484
2.16383
2.15271
2.14162
2.13061
2.12002
2.10979
2.10085
2.09254
2.08949
2.09836
2.60544
2.61371
2.79301
2.79267
2.79227
2.79184
2.79152
2.79112
2.79067
2.79029
2.78989
2.7894
2.78897
2.78855
2.78805
2.78754
2.78708
2.78653
2.78599
2.78544
2.78486
2.78426
2.78365
2.78302
2.78238
2.78171
2.78103
2.78033
2.77962
2.77889
2.77814
2.77737
2.77659
2.77579
2.77496
2.77412
2.77326
2.77237
2.77147
2.77054
2.76958
2.76861
2.76761
2.76659
2.76554
2.76446
2.76336
2.76223
2.76108
2.75989
2.75868
2.75744
2.75616
2.75485
2.75352
2.75214
2.75074
2.7493
2.74782
2.74631
2.74476
2.74317
2.74154
2.73988
2.73817
2.73642
2.73463
2.73279
2.73091
2.72898
2.72701
2.72499
2.72292
2.7208
2.71863
2.7164
2.71412
2.71179
2.7094
2.70695
2.70445
2.70188
2.69926
2.69658
2.69383
2.69102
2.68815
2.68521
2.6822
2.67913
2.67599
2.67278
2.6695
2.66614
2.66272
2.65922
2.65564
2.65199
2.64826
2.64445
2.64056
2.63659
2.63253
2.6284
2.62417
2.61986
2.61547
2.61098
2.60641
2.60174
2.59699
2.59214
2.5872
2.58216
2.57703
2.5718
2.56647
2.56104
2.55551
2.54988
2.54414
2.5383
2.53236
2.5263
2.52014
2.51388
2.5075
2.50101
2.49441
2.4877
2.48088
2.47395
2.4669
2.45974
2.45247
2.44508
2.43757
2.42996
2.42222
2.41437
2.40641
2.39833
2.39014
2.38182
2.3734
2.36485
2.3562
2.34742
2.33853
2.32953
2.32041
2.31117
2.30182
2.29235
2.28277
2.27308
2.26328
2.25336
2.24333
2.23318
2.22293
2.21257
2.2021
2.19152
2.18083
2.17003
2.15913
2.14813
2.13702
2.12581
2.1145
2.10309
2.09158
2.07997
2.06827
2.05647
2.04458
2.03259
2.02049
2.00829
1.99599
1.98358
1.97112
1.95865
1.94637
1.93437
1.92308
1.91244
1.90355
1.89585
1.89408
1.90679
2.78295
2.78241
2.78185
2.78128
2.78072
2.78014
2.77954
2.77893
2.77832
2.77766
2.777
2.77633
2.77563
2.7749
2.77416
2.77338
2.77258
2.77175
2.7709
2.77002
2.76912
2.76819
2.76724
2.76626
2.76525
2.76422
2.76315
2.76207
2.76095
2.75981
2.75864
2.75744
2.75621
2.75495
2.75367
2.75235
2.75099
2.74961
2.74819
2.74673
2.74525
2.74372
2.74216
2.74056
2.73892
2.73724
2.73553
2.73377
2.73197
2.73012
2.72823
2.7263
2.72432
2.72229
2.72022
2.71809
2.71592
2.71369
2.71142
2.70909
2.7067
2.70427
2.70177
2.69922
2.69661
2.69394
2.69121
2.68841
2.68556
2.68263
2.67964
2.67659
2.67347
2.67027
2.66701
2.66367
2.66026
2.65678
2.65322
2.64959
2.64588
2.64209
2.63822
2.63427
2.63024
2.62612
2.62192
2.61764
2.61327
2.60881
2.60427
2.59963
2.59491
2.59009
2.58518
2.58018
2.57508
2.56989
2.5646
2.55922
2.55373
2.54815
2.54246
2.53668
2.53079
2.5248
2.51871
2.51251
2.5062
2.49979
2.49328
2.48665
2.47992
2.47308
2.46613
2.45907
2.45189
2.44461
2.43721
2.4297
2.42208
2.41434
2.40649
2.39852
2.39044
2.38224
2.37393
2.36551
2.35697
2.34831
2.33954
2.33066
2.32167
2.31256
2.30333
2.294
2.28455
2.27499
2.26532
2.25554
2.24565
2.23565
2.22554
2.21532
2.20499
2.19456
2.18403
2.17339
2.16265
2.1518
2.14086
2.12981
2.11867
2.10743
2.09609
2.08466
2.07314
2.06152
2.04982
2.03803
2.02614
2.01418
2.00213
1.98999
1.97777
1.96547
1.95309
1.94064
1.9281
1.91549
1.9028
1.89004
1.8772
1.86429
1.8513
1.83823
1.82508
1.81183
1.7985
1.78511
1.77176
1.75853
1.74568
1.73335
1.72205
1.71163
1.70345
1.69655
1.69643
1.71231
2.76931
2.7685
2.76768
2.76685
2.76599
2.76513
2.76425
2.76334