/*--------------------------------*- C++ -*----------------------------------*\
| =========                 |                                                 |
| \\      /  F ield         | OpenFOAM: The Open Source CFD Toolbox           |
|  \\    /   O peration     | Version:  v1706                                 |
|   \\  /    A nd           | Web:      www.OpenFOAM.com                      |
|    \\/     M anipulation  |                                                 |
\*---------------------------------------------------------------------------*/
FoamFile
{
    version     2.0;
    format      ascii;
    class       volScalarField;
    location    "1.5e-05";
    object      mu;
}
// * * * * * * * * * * * * * * * * * * * * * * * * * * * * * * * * * * * * * //

dimensions      [1 -1 -1 0 0 0 0];


internalField   nonuniform List<scalar> 
30104
(
1.03519e-05
1.0352e-05
1.0352e-05
1.03521e-05
1.03521e-05
1.03522e-05
1.03522e-05
1.03523e-05
1.03523e-05
1.03524e-05
1.03524e-05
1.03525e-05
1.03525e-05
1.03525e-05
1.03526e-05
1.03526e-05
1.03526e-05
1.03518e-05
1.03518e-05
1.03518e-05
1.03518e-05
1.03518e-05
1.03518e-05
1.03518e-05
1.03519e-05
1.03519e-05
1.03519e-05
1.03519e-05
1.03519e-05
1.03519e-05
1.03519e-05
1.03519e-05
1.03519e-05
1.03519e-05
1.03519e-05
1.0352e-05
1.0352e-05
1.0352e-05
1.0352e-05
1.0352e-05
1.0352e-05
1.0352e-05
1.0352e-05
1.0352e-05
1.0352e-05
1.03521e-05
1.03521e-05
1.03521e-05
1.03521e-05
1.03521e-05
1.03521e-05
1.03521e-05
1.03521e-05
1.03521e-05
1.03522e-05
1.03522e-05
1.03522e-05
1.03522e-05
1.03522e-05
1.03522e-05
1.03522e-05
1.03522e-05
1.03523e-05
1.03523e-05
1.03523e-05
1.03523e-05
1.03523e-05
1.03523e-05
1.03523e-05
1.03524e-05
1.03524e-05
1.03524e-05
1.03524e-05
1.03524e-05
1.03524e-05
1.03524e-05
1.03525e-05
1.03525e-05
1.03525e-05
1.03525e-05
1.03525e-05
1.03525e-05
1.03526e-05
1.03526e-05
1.03526e-05
1.03526e-05
1.03526e-05
1.03526e-05
1.03527e-05
1.03527e-05
1.03527e-05
1.03527e-05
1.03527e-05
1.03528e-05
1.03528e-05
1.03528e-05
1.03528e-05
1.03528e-05
1.03529e-05
1.03529e-05
1.03529e-05
1.03529e-05
1.03529e-05
1.0353e-05
1.0353e-05
1.0353e-05
1.0353e-05
1.0353e-05
1.03531e-05
1.03531e-05
1.03531e-05
1.03531e-05
1.03532e-05
1.03532e-05
1.03532e-05
1.03532e-05
1.03533e-05
1.03533e-05
1.03533e-05
1.03533e-05
1.03534e-05
1.03534e-05
1.03534e-05
1.03534e-05
1.03535e-05
1.03535e-05
1.03535e-05
1.03536e-05
1.03536e-05
1.03536e-05
1.03536e-05
1.03537e-05
1.03537e-05
1.03537e-05
1.03538e-05
1.03538e-05
1.03538e-05
1.03539e-05
1.03539e-05
1.03539e-05
1.0354e-05
1.0354e-05
1.0354e-05
1.03541e-05
1.03541e-05
1.03541e-05
1.03542e-05
1.03542e-05
1.03543e-05
1.03543e-05
1.03543e-05
1.03544e-05
1.03544e-05
1.03545e-05
1.03545e-05
1.03546e-05
1.03546e-05
1.03547e-05
1.03547e-05
1.03548e-05
1.03548e-05
1.03549e-05
1.03549e-05
1.0355e-05
1.0355e-05
1.03551e-05
1.03551e-05
1.03552e-05
1.03552e-05
1.03553e-05
1.03553e-05
1.03554e-05
1.03555e-05
1.03555e-05
1.03556e-05
1.03556e-05
1.03557e-05
1.03557e-05
1.03558e-05
1.03558e-05
1.03559e-05
1.03559e-05
1.0356e-05
1.0356e-05
1.03561e-05
1.03562e-05
1.03562e-05
1.03563e-05
1.03563e-05
1.03564e-05
1.03564e-05
1.03565e-05
1.03566e-05
1.03566e-05
1.03567e-05
1.03567e-05
1.03568e-05
1.03569e-05
1.03569e-05
1.0357e-05
1.03571e-05
1.03571e-05
1.03572e-05
1.03573e-05
1.03574e-05
1.03574e-05
1.03575e-05
1.03576e-05
1.03575e-05
1.03566e-05
1.03562e-05
1.03565e-05
1.03568e-05
1.03571e-05
1.03574e-05
1.03577e-05
1.0358e-05
1.03583e-05
1.03586e-05
1.03589e-05
1.03591e-05
1.03594e-05
1.03596e-05
1.03599e-05
1.03601e-05
1.03603e-05
1.03605e-05
1.03561e-05
1.03562e-05
1.03563e-05
1.03563e-05
1.03564e-05
1.03565e-05
1.03565e-05
1.03566e-05
1.03567e-05
1.03567e-05
1.03568e-05
1.03569e-05
1.03569e-05
1.0357e-05
1.03571e-05
1.03571e-05
1.03572e-05
1.03573e-05
1.03574e-05
1.03574e-05
1.03575e-05
1.03576e-05
1.03577e-05
1.03577e-05
1.03578e-05
1.03579e-05
1.0358e-05
1.03581e-05
1.03581e-05
1.03582e-05
1.03583e-05
1.03584e-05
1.03585e-05
1.03586e-05
1.03587e-05
1.03587e-05
1.03588e-05
1.03589e-05
1.0359e-05
1.03591e-05
1.03592e-05
1.03593e-05
1.03594e-05
1.03595e-05
1.03596e-05
1.03597e-05
1.03598e-05
1.03599e-05
1.03601e-05
1.03602e-05
1.03603e-05
1.03604e-05
1.03605e-05
1.03606e-05
1.03607e-05
1.03608e-05
1.0361e-05
1.03611e-05
1.03612e-05
1.03613e-05
1.03615e-05
1.03616e-05
1.03617e-05
1.03618e-05
1.0362e-05
1.03621e-05
1.03622e-05
1.03624e-05
1.03625e-05
1.03627e-05
1.03628e-05
1.03629e-05
1.03631e-05
1.03632e-05
1.03634e-05
1.03635e-05
1.03637e-05
1.03639e-05
1.0364e-05
1.03642e-05
1.03644e-05
1.03645e-05
1.03647e-05
1.03649e-05
1.03651e-05
1.03652e-05
1.03654e-05
1.03656e-05
1.03658e-05
1.0366e-05
1.03662e-05
1.03664e-05
1.03666e-05
1.03668e-05
1.03671e-05
1.03673e-05
1.03675e-05
1.03677e-05
1.03679e-05
1.03682e-05
1.03684e-05
1.03687e-05
1.03689e-05
1.03691e-05
1.03694e-05
1.03696e-05
1.03699e-05
1.03701e-05
1.03704e-05
1.03706e-05
1.03709e-05
1.03712e-05
1.03714e-05
1.03717e-05
1.03719e-05
1.03722e-05
1.03725e-05
1.03728e-05
1.0373e-05
1.03733e-05
1.03736e-05
1.03739e-05
1.03742e-05
1.03745e-05
1.03748e-05
1.03751e-05
1.03754e-05
1.03758e-05
1.03761e-05
1.03764e-05
1.03768e-05
1.03771e-05
1.03775e-05
1.03778e-05
1.03782e-05
1.03786e-05
1.03789e-05
1.03793e-05
1.03797e-05
1.03801e-05
1.03805e-05
1.0381e-05
1.03814e-05
1.03818e-05
1.03823e-05
1.03827e-05
1.03832e-05
1.03837e-05
1.03842e-05
1.03846e-05
1.03851e-05
1.03856e-05
1.03861e-05
1.03866e-05
1.03872e-05
1.03877e-05
1.03882e-05
1.03887e-05
1.03893e-05
1.03898e-05
1.03904e-05
1.03909e-05
1.03915e-05
1.0392e-05
1.03926e-05
1.03931e-05
1.03937e-05
1.03943e-05
1.03949e-05
1.03954e-05
1.0396e-05
1.03966e-05
1.03972e-05
1.03978e-05
1.03985e-05
1.03991e-05
1.03997e-05
1.04004e-05
1.0401e-05
1.04017e-05
1.04024e-05
1.04031e-05
1.04038e-05
1.04045e-05
1.04053e-05
1.04061e-05
1.04068e-05
1.04077e-05
1.04085e-05
1.04093e-05
1.04103e-05
1.04103e-05
1.04056e-05
1.0367e-05
1.03679e-05
1.03687e-05
1.03696e-05
1.03705e-05
1.03714e-05
1.03723e-05
1.03732e-05
1.03741e-05
1.03749e-05
1.03758e-05
1.03766e-05
1.03774e-05
1.03781e-05
1.03788e-05
1.03794e-05
1.03685e-05
1.03687e-05
1.0369e-05
1.03692e-05
1.03695e-05
1.03697e-05
1.037e-05
1.03703e-05
1.03705e-05
1.03708e-05
1.0371e-05
1.03713e-05
1.03716e-05
1.03718e-05
1.03721e-05
1.03724e-05
1.03727e-05
1.0373e-05
1.03732e-05
1.03735e-05
1.03738e-05
1.03741e-05
1.03744e-05
1.03747e-05
1.0375e-05
1.03753e-05
1.03757e-05
1.0376e-05
1.03763e-05
1.03766e-05
1.0377e-05
1.03773e-05
1.03777e-05
1.0378e-05
1.03784e-05
1.03787e-05
1.03791e-05
1.03795e-05
1.03799e-05
1.03803e-05
1.03807e-05
1.03811e-05
1.03815e-05
1.03819e-05
1.03823e-05
1.03827e-05
1.03832e-05
1.03836e-05
1.03841e-05
1.03845e-05
1.0385e-05
1.03855e-05
1.03859e-05
1.03864e-05
1.03869e-05
1.03874e-05
1.03879e-05
1.03885e-05
1.0389e-05
1.03895e-05
1.03901e-05
1.03906e-05
1.03912e-05
1.03917e-05
1.03923e-05
1.03929e-05
1.03935e-05
1.0394e-05
1.03946e-05
1.03953e-05
1.03959e-05
1.03965e-05
1.03971e-05
1.03978e-05
1.03984e-05
1.03991e-05
1.03998e-05
1.04004e-05
1.04011e-05
1.04018e-05
1.04026e-05
1.04033e-05
1.0404e-05
1.04048e-05
1.04056e-05
1.04064e-05
1.04072e-05
1.0408e-05
1.04088e-05
1.04097e-05
1.04106e-05
1.04114e-05
1.04123e-05
1.04133e-05
1.04142e-05
1.04151e-05
1.04161e-05
1.04171e-05
1.04181e-05
1.04191e-05
1.04201e-05
1.04212e-05
1.04223e-05
1.04233e-05
1.04244e-05
1.04255e-05
1.04267e-05
1.04278e-05
1.04289e-05
1.04301e-05
1.04313e-05
1.04325e-05
1.04337e-05
1.04349e-05
1.04361e-05
1.04374e-05
1.04386e-05
1.04399e-05
1.04412e-05
1.04425e-05
1.04438e-05
1.04452e-05
1.04466e-05
1.0448e-05
1.04494e-05
1.04508e-05
1.04523e-05
1.04538e-05
1.04553e-05
1.04569e-05
1.04585e-05
1.04601e-05
1.04618e-05
1.04635e-05
1.04653e-05
1.04671e-05
1.04689e-05
1.04708e-05
1.04727e-05
1.04747e-05
1.04767e-05
1.04788e-05
1.04809e-05
1.04831e-05
1.04853e-05
1.04876e-05
1.04899e-05
1.04923e-05
1.04947e-05
1.04972e-05
1.04997e-05
1.05023e-05
1.05049e-05
1.05075e-05
1.05102e-05
1.0513e-05
1.05158e-05
1.05186e-05
1.05214e-05
1.05243e-05
1.05272e-05
1.05301e-05
1.0533e-05
1.0536e-05
1.0539e-05
1.0542e-05
1.0545e-05
1.0548e-05
1.05511e-05
1.05541e-05
1.05572e-05
1.05603e-05
1.05634e-05
1.05665e-05
1.05697e-05
1.05728e-05
1.05761e-05
1.05793e-05
1.05826e-05
1.05859e-05
1.05893e-05
1.05928e-05
1.05962e-05
1.05998e-05
1.06034e-05
1.06071e-05
1.06108e-05
1.06147e-05
1.06186e-05
1.06226e-05
1.06268e-05
1.06287e-05
1.06128e-05
1.03931e-05
1.03954e-05
1.03977e-05
1.04e-05
1.04024e-05
1.04047e-05
1.04071e-05
1.04094e-05
1.04116e-05
1.04138e-05
1.0416e-05
1.04181e-05
1.042e-05
1.04219e-05
1.04237e-05
1.04254e-05
1.04021e-05
1.04029e-05
1.04037e-05
1.04045e-05
1.04054e-05
1.04062e-05
1.04071e-05
1.04079e-05
1.04088e-05
1.04096e-05
1.04105e-05
1.04114e-05
1.04123e-05
1.04132e-05
1.04141e-05
1.0415e-05
1.0416e-05
1.04169e-05
1.04179e-05
1.04189e-05
1.04199e-05
1.04209e-05
1.04219e-05
1.04229e-05
1.0424e-05
1.04251e-05
1.04261e-05
1.04272e-05
1.04284e-05
1.04295e-05
1.04306e-05
1.04318e-05
1.0433e-05
1.04342e-05
1.04354e-05
1.04367e-05
1.04379e-05
1.04392e-05
1.04405e-05
1.04419e-05
1.04432e-05
1.04446e-05
1.0446e-05
1.04475e-05
1.04489e-05
1.04504e-05
1.04519e-05
1.04535e-05
1.04551e-05
1.04567e-05
1.04583e-05
1.04599e-05
1.04616e-05
1.04634e-05
1.04651e-05
1.04669e-05
1.04687e-05
1.04705e-05
1.04724e-05
1.04743e-05
1.04762e-05
1.04782e-05
1.04802e-05
1.04822e-05
1.04843e-05
1.04863e-05
1.04884e-05
1.04906e-05
1.04927e-05
1.04949e-05
1.04972e-05
1.04994e-05
1.05017e-05
1.05041e-05
1.05064e-05
1.05088e-05
1.05113e-05
1.05137e-05
1.05163e-05
1.05188e-05
1.05215e-05
1.05241e-05
1.05269e-05
1.05296e-05
1.05325e-05
1.05354e-05
1.05383e-05
1.05414e-05
1.05445e-05
1.05476e-05
1.05509e-05
1.05542e-05
1.05576e-05
1.0561e-05
1.05646e-05
1.05682e-05
1.05719e-05
1.05757e-05
1.05796e-05
1.05835e-05
1.05876e-05
1.05917e-05
1.05959e-05
1.06002e-05
1.06046e-05
1.0609e-05
1.06135e-05
1.06181e-05
1.06227e-05
1.06274e-05
1.06322e-05
1.0637e-05
1.06418e-05
1.06468e-05
1.06517e-05
1.06567e-05
1.06618e-05
1.06669e-05
1.0672e-05
1.06772e-05
1.06824e-05
1.06877e-05
1.0693e-05
1.06984e-05
1.07039e-05
1.07094e-05
1.0715e-05
1.07207e-05
1.07265e-05
1.07323e-05
1.07383e-05
1.07443e-05
1.07505e-05
1.07568e-05
1.07632e-05
1.07698e-05
1.07764e-05
1.07833e-05
1.07903e-05
1.07975e-05
1.08048e-05
1.08123e-05
1.08201e-05
1.0828e-05
1.08361e-05
1.08445e-05
1.0853e-05
1.08618e-05
1.08709e-05
1.08801e-05
1.08896e-05
1.08994e-05
1.09093e-05
1.09196e-05
1.093e-05
1.09407e-05
1.09517e-05
1.09628e-05
1.09742e-05
1.09858e-05
1.09976e-05
1.10096e-05
1.10218e-05
1.10342e-05
1.10468e-05
1.10595e-05
1.10723e-05
1.10852e-05
1.10982e-05
1.11113e-05
1.11245e-05
1.11376e-05
1.11509e-05
1.11642e-05
1.11775e-05
1.11909e-05
1.12044e-05
1.12179e-05
1.12315e-05
1.12452e-05
1.1259e-05
1.12728e-05
1.12868e-05
1.13009e-05
1.13151e-05
1.13294e-05
1.1344e-05
1.13587e-05
1.13735e-05
1.13889e-05
1.14038e-05
1.14177e-05
1.13787e-05
1.04547e-05
1.04602e-05
1.04658e-05
1.04714e-05
1.0477e-05
1.04826e-05
1.04881e-05
1.04935e-05
1.04989e-05
1.05041e-05
1.05092e-05
1.05141e-05
1.05188e-05
1.05232e-05
1.05274e-05
1.04895e-05
1.0492e-05
1.04944e-05
1.04969e-05
1.04994e-05
1.05019e-05
1.05044e-05
1.05069e-05
1.05095e-05
1.05121e-05
1.05148e-05
1.05174e-05
1.05201e-05
1.05229e-05
1.05256e-05
1.05284e-05
1.05313e-05
1.05342e-05
1.05371e-05
1.05401e-05
1.05432e-05
1.05463e-05
1.05494e-05
1.05526e-05
1.05559e-05
1.05592e-05
1.05625e-05
1.05659e-05
1.05694e-05
1.05729e-05
1.05765e-05
1.05801e-05
1.05838e-05
1.05875e-05
1.05913e-05
1.05952e-05
1.05991e-05
1.06031e-05
1.06072e-05
1.06113e-05
1.06155e-05
1.06198e-05
1.06242e-05
1.06287e-05
1.06332e-05
1.06379e-05
1.06426e-05
1.06474e-05
1.06524e-05
1.06574e-05
1.06625e-05
1.06678e-05
1.06731e-05
1.06786e-05
1.06842e-05
1.06899e-05
1.06957e-05
1.07017e-05
1.07077e-05
1.07139e-05
1.07202e-05
1.07266e-05
1.07331e-05
1.07397e-05
1.07465e-05
1.07533e-05
1.07603e-05
1.07673e-05
1.07745e-05
1.07817e-05
1.07891e-05
1.07965e-05
1.0804e-05
1.08116e-05
1.08193e-05
1.08271e-05
1.0835e-05
1.0843e-05
1.08511e-05
1.08594e-05
1.08677e-05
1.08762e-05
1.08848e-05
1.08936e-05
1.09025e-05
1.09115e-05
1.09208e-05
1.09302e-05
1.09397e-05
1.09495e-05
1.09595e-05
1.09697e-05
1.09801e-05
1.09908e-05
1.10016e-05
1.10128e-05
1.10241e-05
1.10358e-05
1.10477e-05
1.10598e-05
1.10723e-05
1.1085e-05
1.1098e-05
1.11113e-05
1.11248e-05
1.11387e-05
1.11528e-05
1.11671e-05
1.11818e-05
1.11966e-05
1.12118e-05
1.12272e-05
1.12428e-05
1.12586e-05
1.12746e-05
1.12909e-05
1.13073e-05
1.13238e-05
1.13404e-05
1.13572e-05
1.13741e-05
1.1391e-05
1.14081e-05
1.14253e-05
1.14426e-05
1.14601e-05
1.14777e-05
1.14955e-05
1.15134e-05
1.15315e-05
1.15498e-05
1.15684e-05
1.15871e-05
1.16062e-05
1.16255e-05
1.16451e-05
1.1665e-05
1.16853e-05
1.1706e-05
1.17271e-05
1.17486e-05
1.17706e-05
1.17931e-05
1.18161e-05
1.18396e-05
1.18638e-05
1.18886e-05
1.1914e-05
1.19401e-05
1.1967e-05
1.19945e-05
1.20228e-05
1.20518e-05
1.20816e-05
1.21122e-05
1.21435e-05
1.21756e-05
1.22085e-05
1.2242e-05
1.22764e-05
1.23114e-05
1.2347e-05
1.23833e-05
1.24202e-05
1.24576e-05
1.24955e-05
1.25339e-05
1.25728e-05
1.26121e-05
1.26516e-05
1.26908e-05
1.27297e-05
1.27683e-05
1.28065e-05
1.28444e-05
1.28819e-05
1.29189e-05
1.29556e-05
1.29918e-05
1.30277e-05
1.3063e-05
1.30981e-05
1.31325e-05
1.31668e-05
1.32002e-05
1.32339e-05
1.32661e-05
1.32994e-05
1.33302e-05
1.33632e-05
1.33925e-05
1.34284e-05
1.33986e-05
1.05824e-05
1.05949e-05
1.06075e-05
1.06201e-05
1.06326e-05
1.06451e-05
1.06575e-05
1.06697e-05
1.06817e-05
1.06934e-05
1.07048e-05
1.07158e-05
1.07263e-05
1.07363e-05
1.07457e-05
1.07545e-05
1.07047e-05
1.07113e-05
1.0718e-05
1.07247e-05
1.07315e-05
1.07383e-05
1.07452e-05
1.07522e-05
1.07593e-05
1.07664e-05
1.07736e-05
1.07809e-05
1.07883e-05
1.07958e-05
1.08034e-05
1.08112e-05
1.08191e-05
1.08271e-05
1.08352e-05
1.08435e-05
1.08519e-05
1.08605e-05
1.08692e-05
1.08781e-05
1.08872e-05
1.08963e-05
1.09057e-05
1.09151e-05
1.09248e-05
1.09345e-05
1.09444e-05
1.09545e-05
1.09646e-05
1.09749e-05
1.09854e-05
1.0996e-05
1.10067e-05
1.10176e-05
1.10287e-05
1.10399e-05
1.10513e-05
1.10629e-05
1.10747e-05
1.10867e-05
1.10989e-05
1.11113e-05
1.11239e-05
1.11367e-05
1.11499e-05
1.11632e-05
1.11768e-05
1.11907e-05
1.12049e-05
1.12193e-05
1.1234e-05
1.1249e-05
1.12644e-05
1.128e-05
1.12959e-05
1.13121e-05
1.13287e-05
1.13456e-05
1.13627e-05
1.13802e-05
1.1398e-05
1.14161e-05
1.14344e-05
1.14531e-05
1.1472e-05
1.14912e-05
1.15106e-05
1.15303e-05
1.15501e-05
1.15701e-05
1.15903e-05
1.16106e-05
1.16311e-05
1.16517e-05
1.16725e-05
1.16934e-05
1.17146e-05
1.17359e-05
1.17575e-05
1.17792e-05
1.18012e-05
1.18235e-05
1.1846e-05
1.18688e-05
1.18919e-05
1.19154e-05
1.19392e-05
1.19633e-05
1.19879e-05
1.2013e-05
1.20384e-05
1.20644e-05
1.20909e-05
1.2118e-05
1.21456e-05
1.21738e-05
1.22027e-05
1.22321e-05
1.22623e-05
1.22931e-05
1.23246e-05
1.23568e-05
1.23897e-05
1.24233e-05
1.24576e-05
1.24926e-05
1.25282e-05
1.25645e-05
1.26013e-05
1.26388e-05
1.26767e-05
1.27152e-05
1.27541e-05
1.27934e-05
1.2833e-05
1.28723e-05
1.29114e-05
1.29501e-05
1.29885e-05
1.30266e-05
1.30642e-05
1.31014e-05
1.31381e-05
1.31744e-05
1.32101e-05
1.32453e-05
1.328e-05
1.33141e-05
1.33476e-05
1.33806e-05
1.34129e-05
1.34447e-05
1.34758e-05
1.35063e-05
1.35361e-05
1.35654e-05
1.35939e-05
1.36219e-05
1.36491e-05
1.36757e-05
1.37017e-05
1.3727e-05
1.37516e-05
1.37755e-05
1.37988e-05
1.38214e-05
1.38434e-05
1.38647e-05
1.38854e-05
1.39054e-05
1.39249e-05
1.39437e-05
1.3962e-05
1.39797e-05
1.39968e-05
1.40134e-05
1.40296e-05
1.40452e-05
1.40604e-05
1.40752e-05
1.40896e-05
1.41036e-05
1.41172e-05
1.41305e-05
1.41433e-05
1.41559e-05
1.41682e-05
1.41805e-05
1.41925e-05
1.42044e-05
1.4216e-05
1.42276e-05
1.42389e-05
1.42501e-05
1.4261e-05
1.42719e-05
1.42823e-05
1.42926e-05
1.43026e-05
1.43122e-05
1.43216e-05
1.43305e-05
1.43394e-05
1.43473e-05
1.4356e-05
1.43624e-05
1.43713e-05
1.4377e-05
1.43618e-05
1.08693e-05
1.08953e-05
1.09212e-05
1.0947e-05
1.09726e-05
1.09978e-05
1.10225e-05
1.10467e-05
1.10701e-05
1.10929e-05
1.11148e-05
1.11358e-05
1.11559e-05
1.11867e-05
1.12022e-05
1.12178e-05
1.12336e-05
1.12494e-05
1.12654e-05
1.12815e-05
1.12977e-05
1.13141e-05
1.13306e-05
1.13473e-05
1.13641e-05
1.13812e-05
1.13984e-05
1.14159e-05
1.14336e-05
1.14515e-05
1.14698e-05
1.14883e-05
1.15071e-05
1.15262e-05
1.15456e-05
1.15653e-05
1.15853e-05
1.16057e-05
1.16264e-05
1.16473e-05
1.16686e-05
1.16902e-05
1.17121e-05
1.17343e-05
1.17568e-05
1.17795e-05
1.18024e-05
1.18254e-05
1.18487e-05
1.18722e-05
1.18959e-05
1.19198e-05
1.19439e-05
1.19682e-05
1.19927e-05
1.20175e-05
1.20425e-05
1.20677e-05
1.20932e-05
1.21189e-05
1.2145e-05
1.21713e-05
1.21979e-05
1.22248e-05
1.22521e-05
1.22797e-05
1.23077e-05
1.23361e-05
1.23649e-05
1.23941e-05
1.24238e-05
1.2454e-05
1.24846e-05
1.25158e-05
1.25475e-05
1.25796e-05
1.26123e-05
1.26456e-05
1.26793e-05
1.27136e-05
1.27483e-05
1.27835e-05
1.28192e-05
1.28553e-05
1.28919e-05
1.29288e-05
1.2966e-05
1.30031e-05
1.30399e-05
1.30766e-05
1.31129e-05
1.3149e-05
1.31848e-05
1.32203e-05
1.32554e-05
1.32901e-05
1.33245e-05
1.33584e-05
1.33919e-05
1.34249e-05
1.34574e-05
1.34895e-05
1.3521e-05
1.3552e-05
1.35824e-05
1.36123e-05
1.36416e-05
1.36702e-05
1.36983e-05
1.37256e-05
1.37524e-05
1.37784e-05
1.38037e-05
1.38283e-05
1.38522e-05
1.38753e-05
1.38977e-05
1.39193e-05
1.39401e-05
1.39602e-05
1.39795e-05
1.3998e-05
1.40158e-05
1.40328e-05
1.40491e-05
1.40647e-05
1.40796e-05
1.40938e-05
1.41073e-05
1.41202e-05
1.41324e-05
1.41441e-05
1.41553e-05
1.4166e-05
1.41764e-05
1.41864e-05
1.41961e-05
1.42055e-05
1.42145e-05
1.42233e-05
1.42319e-05
1.42402e-05
1.42483e-05
1.42562e-05
1.42639e-05
1.42715e-05
1.42788e-05
1.4286e-05
1.4293e-05
1.42998e-05
1.43065e-05
1.4313e-05
1.43193e-05
1.43254e-05
1.43314e-05
1.43372e-05
1.43429e-05
1.43483e-05
1.43536e-05
1.43588e-05
1.43638e-05
1.43687e-05
1.43734e-05
1.43781e-05
1.43826e-05
1.4387e-05
1.43913e-05
1.43955e-05
1.43997e-05
1.44038e-05
1.44078e-05
1.44118e-05
1.44156e-05
1.44194e-05
1.44232e-05
1.44268e-05
1.44304e-05
1.44338e-05
1.44371e-05
1.44403e-05
1.44434e-05
1.44463e-05
1.44491e-05
1.44516e-05
1.4454e-05
1.44562e-05
1.44582e-05
1.446e-05
1.44615e-05
1.4463e-05
1.44641e-05
1.44652e-05
1.44659e-05
1.44667e-05
1.4467e-05
1.44676e-05
1.44677e-05
1.44681e-05
1.4468e-05
1.44683e-05
1.44682e-05
1.44685e-05
1.44684e-05
1.44687e-05
1.44684e-05
1.44637e-05
1.14303e-05
1.14782e-05
1.15253e-05
1.15716e-05
1.16166e-05
1.16604e-05
1.17027e-05
1.17433e-05
1.17822e-05
1.18193e-05
1.18544e-05
1.18874e-05
1.19183e-05
1.20825e-05
1.21115e-05
1.21405e-05
1.21696e-05
1.21988e-05
1.22279e-05
1.22571e-05
1.22863e-05
1.23155e-05
1.23447e-05
1.23739e-05
1.24032e-05
1.24326e-05
1.24621e-05
1.24917e-05
1.25214e-05
1.25513e-05
1.25814e-05
1.26117e-05
1.26422e-05
1.2673e-05
1.27041e-05
1.27354e-05
1.2767e-05
1.27989e-05
1.28311e-05
1.28636e-05
1.28963e-05
1.29293e-05
1.29626e-05
1.29961e-05
1.30299e-05
1.30639e-05
1.30979e-05
1.31318e-05
1.31654e-05
1.31987e-05
1.32317e-05
1.32645e-05
1.32969e-05
1.3329e-05
1.33607e-05
1.33921e-05
1.3423e-05
1.34536e-05
1.34838e-05
1.35136e-05
1.3543e-05
1.35719e-05
1.36004e-05
1.36285e-05
1.36561e-05
1.36832e-05
1.37098e-05
1.3736e-05
1.37616e-05
1.37868e-05
1.38113e-05
1.38353e-05
1.38587e-05
1.38815e-05
1.39036e-05
1.39251e-05
1.39459e-05
1.3966e-05
1.39854e-05
1.40041e-05
1.40221e-05
1.40394e-05
1.4056e-05
1.40718e-05
1.4087e-05
1.41014e-05
1.41152e-05
1.41284e-05
1.41411e-05
1.41533e-05
1.41651e-05
1.41763e-05
1.41871e-05
1.41975e-05
1.42075e-05
1.42171e-05
1.42264e-05
1.42353e-05
1.42439e-05
1.42521e-05
1.426e-05
1.42677e-05
1.4275e-05
1.42821e-05
1.42889e-05
1.42954e-05
1.43017e-05
1.43077e-05
1.43135e-05
1.43191e-05
1.43244e-05
1.43296e-05
1.43345e-05
1.43393e-05
1.43439e-05
1.43483e-05
1.43526e-05
1.43567e-05
1.43608e-05
1.43647e-05
1.43685e-05
1.43723e-05
1.4376e-05
1.43796e-05
1.43832e-05
1.43867e-05
1.43902e-05
1.43936e-05
1.4397e-05
1.44003e-05
1.44036e-05
1.44068e-05
1.44099e-05
1.44131e-05
1.44161e-05
1.44192e-05
1.44221e-05
1.4425e-05
1.44278e-05
1.44305e-05
1.44332e-05
1.44357e-05
1.44381e-05
1.44404e-05
1.44426e-05
1.44447e-05
1.44466e-05
1.44484e-05
1.44501e-05
1.44516e-05
1.44531e-05
1.44544e-05
1.44556e-05
1.44568e-05
1.44579e-05
1.44589e-05
1.44598e-05
1.44607e-05
1.44616e-05
1.44625e-05
1.44633e-05
1.44642e-05
1.4465e-05
1.44659e-05
1.44668e-05
1.44677e-05
1.44686e-05
1.44696e-05
1.44706e-05
1.44716e-05
1.44726e-05
1.44736e-05
1.44747e-05
1.44758e-05
1.44768e-05
1.44779e-05
1.4479e-05
1.448e-05
1.44811e-05
1.44822e-05
1.44832e-05
1.44842e-05
1.44852e-05
1.44862e-05
1.44872e-05
1.44882e-05
1.44891e-05
1.44901e-05
1.44909e-05
1.44918e-05
1.44926e-05
1.44935e-05
1.44942e-05
1.44951e-05
1.44958e-05
1.44967e-05
1.44974e-05
1.44982e-05
1.44988e-05
1.44996e-05
1.45002e-05
1.4501e-05
1.45015e-05
1.45022e-05
1.45027e-05
1.45012e-05
1.22878e-05
1.2359e-05
1.2428e-05
1.24945e-05
1.25581e-05
1.26186e-05
1.26759e-05
1.27297e-05
1.278e-05
1.28267e-05
1.28698e-05
1.29093e-05
1.29454e-05
1.29781e-05
1.3282e-05
1.3316e-05
1.33494e-05
1.33823e-05
1.34145e-05
1.34461e-05
1.3477e-05
1.35073e-05
1.35369e-05
1.35658e-05
1.3594e-05
1.36215e-05
1.36483e-05
1.36745e-05
1.37e-05
1.37249e-05
1.37492e-05
1.37729e-05
1.3796e-05
1.38186e-05
1.38407e-05
1.38622e-05
1.38831e-05
1.39035e-05
1.39234e-05
1.39427e-05
1.39614e-05
1.39795e-05
1.39971e-05
1.4014e-05
1.40304e-05
1.40462e-05
1.40613e-05
1.40759e-05
1.409e-05
1.41036e-05
1.41168e-05
1.41296e-05
1.4142e-05
1.41539e-05
1.41655e-05
1.41767e-05
1.41875e-05
1.4198e-05
1.42081e-05
1.42179e-05
1.42273e-05
1.42364e-05
1.42452e-05
1.42536e-05
1.42617e-05
1.42695e-05
1.42769e-05
1.4284e-05
1.42907e-05
1.42972e-05
1.43033e-05
1.43092e-05
1.43147e-05
1.432e-05
1.4325e-05
1.43298e-05
1.43344e-05
1.43389e-05
1.43431e-05
1.43473e-05
1.43513e-05
1.43552e-05
1.43589e-05
1.43626e-05
1.43663e-05
1.43698e-05
1.43732e-05
1.43767e-05
1.438e-05
1.43833e-05
1.43865e-05
1.43897e-05
1.43928e-05
1.43959e-05
1.43989e-05
1.44019e-05
1.44048e-05
1.44077e-05
1.44104e-05
1.44131e-05
1.44157e-05
1.44182e-05
1.44206e-05
1.4423e-05
1.44252e-05
1.44274e-05
1.44294e-05
1.44314e-05
1.44333e-05
1.4435e-05
1.44367e-05
1.44384e-05
1.44399e-05
1.44414e-05
1.44428e-05
1.44442e-05
1.44455e-05
1.44468e-05
1.4448e-05
1.44492e-05
1.44504e-05
1.44516e-05
1.44528e-05
1.44539e-05
1.4455e-05
1.44561e-05
1.44572e-05
1.44582e-05
1.44593e-05
1.44603e-05
1.44613e-05
1.44623e-05
1.44634e-05
1.44644e-05
1.44653e-05
1.44663e-05
1.44673e-05
1.44683e-05
1.44693e-05
1.44702e-05
1.44712e-05
1.44721e-05
1.44731e-05
1.4474e-05
1.4475e-05
1.44759e-05
1.44768e-05
1.44777e-05
1.44786e-05
1.44796e-05
1.44805e-05
1.44814e-05
1.44823e-05
1.44832e-05
1.44841e-05
1.4485e-05
1.44859e-05
1.44868e-05
1.44878e-05
1.44888e-05
1.44898e-05
1.44908e-05
1.44918e-05
1.44929e-05
1.4494e-05
1.44951e-05
1.44963e-05
1.44975e-05
1.44987e-05
1.44999e-05
1.45012e-05
1.45024e-05
1.45037e-05
1.4505e-05
1.45063e-05
1.45075e-05
1.45088e-05
1.45101e-05
1.45114e-05
1.45127e-05
1.4514e-05
1.45153e-05
1.45166e-05
1.45179e-05
1.45192e-05
1.45205e-05
1.45218e-05
1.45231e-05
1.45244e-05
1.45257e-05
1.4527e-05
1.45283e-05
1.45297e-05
1.45311e-05
1.45324e-05
1.45338e-05
1.4535e-05
1.45363e-05
1.45376e-05
1.45389e-05
1.45402e-05
1.45416e-05
1.4543e-05
1.45444e-05
1.45458e-05
1.45477e-05
1.45464e-05
1.34618e-05
1.35362e-05
1.36056e-05
1.36696e-05
1.37281e-05
1.37811e-05
1.38287e-05
1.3871e-05
1.39083e-05
1.39408e-05
1.39683e-05
1.39912e-05
1.40096e-05
1.40238e-05
1.40664e-05
1.40813e-05
1.40957e-05
1.41097e-05
1.41233e-05
1.41364e-05
1.4149e-05
1.41611e-05
1.41728e-05
1.4184e-05
1.41947e-05
1.4205e-05
1.42149e-05
1.42243e-05
1.42333e-05
1.42419e-05
1.42501e-05
1.42579e-05
1.42653e-05
1.42724e-05
1.42792e-05
1.42856e-05
1.42917e-05
1.42975e-05
1.4303e-05
1.43083e-05
1.43134e-05
1.43182e-05
1.43229e-05
1.43274e-05
1.43317e-05
1.43359e-05
1.434e-05
1.4344e-05
1.43478e-05
1.43516e-05
1.43553e-05
1.4359e-05
1.43625e-05
1.4366e-05
1.43695e-05
1.43728e-05
1.43761e-05
1.43793e-05
1.43824e-05
1.43854e-05
1.43883e-05
1.43911e-05
1.43938e-05
1.43964e-05
1.43989e-05
1.44013e-05
1.44036e-05
1.44059e-05
1.4408e-05
1.44101e-05
1.44122e-05
1.44141e-05
1.4416e-05
1.44179e-05
1.44198e-05
1.44216e-05
1.44234e-05
1.44252e-05
1.4427e-05
1.44288e-05
1.44305e-05
1.44322e-05
1.44339e-05
1.44356e-05
1.44372e-05
1.44389e-05
1.44404e-05
1.44419e-05
1.44434e-05
1.44448e-05
1.44462e-05
1.44475e-05
1.44488e-05
1.445e-05
1.44512e-05
1.44523e-05
1.44534e-05
1.44544e-05
1.44554e-05
1.44564e-05
1.44573e-05
1.44582e-05
1.44591e-05
1.44599e-05
1.44607e-05
1.44615e-05
1.44623e-05
1.44631e-05
1.44639e-05
1.44647e-05
1.44654e-05
1.44662e-05
1.4467e-05
1.44678e-05
1.44686e-05
1.44694e-05
1.44703e-05
1.44711e-05
1.4472e-05
1.44729e-05
1.44739e-05
1.44749e-05
1.44759e-05
1.44769e-05
1.4478e-05
1.4479e-05
1.44802e-05
1.44813e-05
1.44824e-05
1.44836e-05
1.44848e-05
1.4486e-05
1.44872e-05
1.44884e-05
1.44896e-05
1.44908e-05
1.4492e-05
1.44932e-05
1.44944e-05
1.44956e-05
1.44968e-05
1.44979e-05
1.4499e-05
1.45002e-05
1.45013e-05
1.45025e-05
1.45036e-05
1.45047e-05
1.45059e-05
1.45071e-05
1.45083e-05
1.45095e-05
1.45107e-05
1.4512e-05
1.45133e-05
1.45146e-05
1.45159e-05
1.45173e-05
1.45188e-05
1.45203e-05
1.45218e-05
1.45233e-05
1.45249e-05
1.45265e-05
1.45281e-05
1.45298e-05
1.45314e-05
1.45331e-05
1.45349e-05
1.45366e-05
1.45384e-05
1.45402e-05
1.4542e-05
1.45439e-05
1.45457e-05
1.45476e-05
1.45495e-05
1.45514e-05
1.45534e-05
1.45554e-05
1.45574e-05
1.45594e-05
1.45615e-05
1.45635e-05
1.45657e-05
1.45678e-05
1.457e-05
1.45723e-05
1.45746e-05
1.4577e-05
1.45794e-05
1.45819e-05
1.45844e-05
1.4587e-05
1.45896e-05
1.45923e-05
1.45951e-05
1.4598e-05
1.4601e-05
1.4604e-05
1.46071e-05
1.46103e-05
1.46136e-05
1.46171e-05
1.46206e-05
1.46252e-05
1.46234e-05
1.44741e-05
1.45031e-05
1.4526e-05
1.45436e-05
1.45564e-05
1.4565e-05
1.45697e-05
1.45705e-05
1.45691e-05
1.45652e-05
1.45584e-05
1.45492e-05
1.4538e-05
1.45252e-05
1.43075e-05
1.43123e-05
1.43171e-05
1.43218e-05
1.43264e-05
1.43311e-05
1.43356e-05
1.43401e-05
1.43445e-05
1.43488e-05
1.43529e-05
1.43569e-05
1.43608e-05
1.43644e-05
1.4368e-05
1.43713e-05
1.43744e-05
1.43774e-05
1.43802e-05
1.43828e-05
1.43854e-05
1.43878e-05
1.43902e-05
1.43924e-05
1.43946e-05
1.43968e-05
1.4399e-05
1.44011e-05
1.44032e-05
1.44053e-05
1.44074e-05
1.44095e-05
1.44115e-05
1.44136e-05
1.44156e-05
1.44175e-05
1.44195e-05
1.44214e-05
1.44232e-05
1.4425e-05
1.44267e-05
1.44284e-05
1.44299e-05
1.44314e-05
1.44329e-05
1.44342e-05
1.44355e-05
1.44367e-05
1.44379e-05
1.4439e-05
1.44401e-05
1.44411e-05
1.44422e-05
1.44432e-05
1.44441e-05
1.44451e-05
1.44461e-05
1.4447e-05
1.4448e-05
1.4449e-05
1.445e-05
1.4451e-05
1.4452e-05
1.4453e-05
1.4454e-05
1.44551e-05
1.44561e-05
1.44572e-05
1.44582e-05
1.44593e-05
1.44604e-05
1.44615e-05
1.44625e-05
1.44636e-05
1.44647e-05
1.44658e-05
1.44669e-05
1.4468e-05
1.44691e-05
1.44701e-05
1.44712e-05
1.44722e-05
1.44732e-05
1.44742e-05
1.44753e-05
1.44763e-05
1.44772e-05
1.44782e-05
1.44791e-05
1.44801e-05
1.4481e-05
1.44819e-05
1.44828e-05
1.44838e-05
1.44847e-05
1.44857e-05
1.44866e-05
1.44876e-05
1.44886e-05
1.44897e-05
1.44907e-05
1.44919e-05
1.4493e-05
1.44942e-05
1.44954e-05
1.44967e-05
1.4498e-05
1.44993e-05
1.45007e-05
1.45022e-05
1.45036e-05
1.45051e-05
1.45066e-05
1.45081e-05
1.45097e-05
1.45113e-05
1.45129e-05
1.45144e-05
1.4516e-05
1.45176e-05
1.45191e-05
1.45207e-05
1.45223e-05
1.45239e-05
1.45255e-05
1.4527e-05
1.45286e-05
1.45302e-05
1.45318e-05
1.45334e-05
1.4535e-05
1.45367e-05
1.45384e-05
1.45401e-05
1.45419e-05
1.45437e-05
1.45456e-05
1.45475e-05
1.45494e-05
1.45515e-05
1.45536e-05
1.45557e-05
1.45579e-05
1.45602e-05
1.45626e-05
1.4565e-05
1.45675e-05
1.457e-05
1.45726e-05
1.45753e-05
1.4578e-05
1.45808e-05
1.45836e-05
1.45865e-05
1.45895e-05
1.45925e-05
1.45956e-05
1.45987e-05
1.46019e-05
1.46052e-05
1.46085e-05
1.46119e-05
1.46153e-05
1.46188e-05
1.46224e-05
1.46261e-05
1.46298e-05
1.46336e-05
1.46375e-05
1.46415e-05
1.46456e-05
1.46498e-05
1.46541e-05
1.46585e-05
1.46631e-05
1.46677e-05
1.46725e-05
1.46774e-05
1.46824e-05
1.46876e-05
1.46929e-05
1.46984e-05
1.4704e-05
1.47098e-05
1.47158e-05
1.47219e-05
1.47282e-05
1.47348e-05
1.47415e-05
1.47484e-05
1.47553e-05
1.47641e-05
1.47611e-05
1.49125e-05
1.49046e-05
1.48946e-05
1.48827e-05
1.48691e-05
1.48543e-05
1.48384e-05
1.48215e-05
1.48039e-05
1.47854e-05
1.4766e-05
1.47461e-05
1.47258e-05
1.43757e-05
1.43782e-05
1.43808e-05
1.43836e-05
1.43863e-05
1.43892e-05
1.4392e-05
1.43947e-05
1.43975e-05
1.44001e-05
1.44027e-05
1.44052e-05
1.44075e-05
1.44098e-05
1.44119e-05
1.44139e-05
1.44157e-05
1.44175e-05
1.44192e-05
1.44208e-05
1.44223e-05
1.44237e-05
1.44251e-05
1.44265e-05
1.44279e-05
1.44292e-05
1.44305e-05
1.44318e-05
1.44331e-05
1.44344e-05
1.44357e-05
1.4437e-05
1.44382e-05
1.44395e-05
1.44407e-05
1.44419e-05
1.44432e-05
1.44443e-05
1.44455e-05
1.44467e-05
1.44478e-05
1.44488e-05
1.44499e-05
1.4451e-05
1.4452e-05
1.4453e-05
1.4454e-05
1.4455e-05
1.4456e-05
1.4457e-05
1.4458e-05
1.4459e-05
1.44599e-05
1.4461e-05
1.4462e-05
1.4463e-05
1.44641e-05
1.44651e-05
1.44662e-05
1.44673e-05
1.44685e-05
1.44697e-05
1.44708e-05
1.4472e-05
1.44732e-05
1.44744e-05
1.44756e-05
1.44769e-05
1.44781e-05
1.44793e-05
1.44806e-05
1.44818e-05
1.4483e-05
1.44843e-05
1.44856e-05
1.44868e-05
1.4488e-05
1.44893e-05
1.44906e-05
1.44918e-05
1.44931e-05
1.44943e-05
1.44956e-05
1.44968e-05
1.4498e-05
1.44992e-05
1.45004e-05
1.45016e-05
1.45029e-05
1.45041e-05
1.45054e-05
1.45067e-05
1.4508e-05
1.45094e-05
1.45107e-05
1.45122e-05
1.45136e-05
1.45151e-05
1.45166e-05
1.45182e-05
1.45198e-05
1.45215e-05
1.45233e-05
1.4525e-05
1.45268e-05
1.45287e-05
1.45306e-05
1.45326e-05
1.45346e-05
1.45366e-05
1.45387e-05
1.45408e-05
1.45429e-05
1.45451e-05
1.45473e-05
1.45495e-05
1.45517e-05
1.4554e-05
1.45563e-05
1.45586e-05
1.4561e-05
1.45633e-05
1.45658e-05
1.45682e-05
1.45707e-05
1.45732e-05
1.45757e-05
1.45784e-05
1.4581e-05
1.45837e-05
1.45865e-05
1.45894e-05
1.45923e-05
1.45953e-05
1.45984e-05
1.46016e-05
1.46049e-05
1.46083e-05
1.46118e-05
1.46153e-05
1.4619e-05
1.46228e-05
1.46267e-05
1.46307e-05
1.46348e-05
1.4639e-05
1.46433e-05
1.46477e-05
1.46522e-05
1.46568e-05