/*--------------------------------*- C++ -*----------------------------------*\
| =========                 |                                                 |
| \\      /  F ield         | OpenFOAM: The Open Source CFD Toolbox           |
|  \\    /   O peration     | Version:  v1706                                 |
|   \\  /    A nd           | Web:      www.OpenFOAM.com                      |
|    \\/     M anipulation  |                                                 |
\*---------------------------------------------------------------------------*/
FoamFile
{
    version     2.0;
    format      ascii;
    class       volScalarField;
    location    "1.5e-05";
    object      p;
}
// * * * * * * * * * * * * * * * * * * * * * * * * * * * * * * * * * * * * * //

dimensions      [1 -1 -2 0 0 0 0];


internalField   nonuniform List<scalar> 
30104
(
21.9181
21.9183
21.9186
21.9188
21.919
21.9193
21.9195
21.9197
21.92
21.9202
21.9204
21.9207
21.9209
21.9211
21.9213
21.9214
21.9216
21.9177
21.9177
21.9178
21.9178
21.9178
21.9179
21.9179
21.918
21.918
21.9181
21.9181
21.9181
21.9182
21.9182
21.9183
21.9183
21.9184
21.9184
21.9185
21.9185
21.9185
21.9186
21.9186
21.9187
21.9187
21.9188
21.9188
21.9189
21.9189
21.919
21.9191
21.9191
21.9192
21.9192
21.9193
21.9193
21.9194
21.9195
21.9195
21.9196
21.9196
21.9197
21.9198
21.9198
21.9199
21.92
21.92
21.9201
21.9202
21.9203
21.9203
21.9204
21.9205
21.9206
21.9206
21.9207
21.9208
21.9209
21.921
21.921
21.9211
21.9212
21.9213
21.9214
21.9215
21.9215
21.9216
21.9217
21.9218
21.9219
21.922
21.9221
21.9221
21.9222
21.9223
21.9224
21.9225
21.9226
21.9227
21.9228
21.9229
21.923
21.923
21.9231
21.9232
21.9233
21.9234
21.9235
21.9236
21.9237
21.9238
21.9239
21.924
21.9241
21.9242
21.9243
21.9244
21.9245
21.9246
21.9247
21.9249
21.925
21.9251
21.9252
21.9253
21.9255
21.9256
21.9257
21.9258
21.926
21.9261
21.9263
21.9264
21.9266
21.9267
21.9269
21.927
21.9272
21.9274
21.9275
21.9277
21.9279
21.9281
21.9283
21.9285
21.9287
21.9289
21.9291
21.9293
21.9295
21.9298
21.93
21.9302
21.9305
21.9307
21.931
21.9312
21.9315
21.9318
21.932
21.9323
21.9326
21.9329
21.9331
21.9334
21.9337
21.934
21.9343
21.9346
21.9349
21.9352
21.9354
21.9357
21.936
21.9363
21.9366
21.9368
21.9371
21.9374
21.9377
21.9379
21.9382
21.9384
21.9387
21.939
21.9392
21.9395
21.9397
21.94
21.9403
21.9405
21.9408
21.9411
21.9413
21.9416
21.9419
21.9422
21.9425
21.9428
21.943
21.9434
21.9437
21.944
21.9443
21.9446
21.945
21.9453
21.9457
21.946
21.9464
21.9467
21.9466
21.9432
21.9382
21.9396
21.941
21.9424
21.9438
21.9452
21.9466
21.948
21.9494
21.9508
21.9521
21.9534
21.9546
21.9557
21.9568
21.9579
21.9588
21.939
21.9393
21.9397
21.94
21.9403
21.9407
21.941
21.9413
21.9417
21.942
21.9423
21.9427
21.943
21.9434
21.9437
21.9441
21.9444
21.9448
21.9452
21.9455
21.9459
21.9463
21.9467
21.947
21.9474
21.9478
21.9482
21.9486
21.9491
21.9495
21.9499
21.9503
21.9508
21.9512
21.9517
21.9521
21.9526
21.9531
21.9535
21.954
21.9545
21.955
21.9555
21.956
21.9565
21.9571
21.9576
21.9581
21.9587
21.9592
21.9598
21.9603
21.9609
21.9614
21.962
21.9626
21.9632
21.9638
21.9644
21.965
21.9656
21.9662
21.9669
21.9675
21.9682
21.9688
21.9695
21.9702
21.9709
21.9716
21.9723
21.973
21.9737
21.9745
21.9753
21.976
21.9768
21.9776
21.9785
21.9793
21.9802
21.981
21.9819
21.9828
21.9838
21.9847
21.9857
21.9867
21.9877
21.9887
21.9897
21.9908
21.9919
21.993
21.9941
21.9953
21.9965
21.9976
21.9988
22.0001
22.0013
22.0026
22.0038
22.0051
22.0064
22.0077
22.0091
22.0104
22.0117
22.0131
22.0144
22.0158
22.0172
22.0186
22.02
22.0214
22.0229
22.0243
22.0258
22.0273
22.0287
22.0303
22.0318
22.0333
22.0349
22.0365
22.0381
22.0397
22.0414
22.0431
22.0448
22.0465
22.0483
22.0501
22.0519
22.0538
22.0557
22.0576
22.0596
22.0616
22.0636
22.0657
22.0678
22.0699
22.0721
22.0743
22.0766
22.0789
22.0812
22.0836
22.086
22.0884
22.0909
22.0934
22.096
22.0986
22.1012
22.1039
22.1066
22.1093
22.1121
22.1149
22.1177
22.1206
22.1235
22.1264
22.1294
22.1324
22.1355
22.1386
22.1418
22.145
22.1482
22.1515
22.1549
22.1583
22.1618
22.1653
22.169
22.1727
22.1765
22.1803
22.1843
22.1884
22.1926
22.1969
22.2013
22.2059
22.2106
22.2153
22.2205
22.2232
22.2077
21.9883
21.9925
21.9968
22.0011
22.0055
22.0098
22.0142
22.0186
22.0229
22.0271
22.0313
22.0353
22.0393
22.043
22.0466
22.05
22.0008
22.002
22.0033
22.0046
22.0058
22.0071
22.0084
22.0097
22.011
22.0123
22.0136
22.015
22.0163
22.0177
22.019
22.0204
22.0218
22.0232
22.0246
22.0261
22.0276
22.0291
22.0306
22.0321
22.0337
22.0353
22.0369
22.0386
22.0402
22.0419
22.0437
22.0454
22.0472
22.049
22.0508
22.0527
22.0546
22.0565
22.0585
22.0605
22.0625
22.0646
22.0667
22.0688
22.071
22.0732
22.0755
22.0777
22.0801
22.0824
22.0848
22.0873
22.0898
22.0923
22.0949
22.0975
22.1002
22.1029
22.1056
22.1084
22.1112
22.1141
22.117
22.1199
22.1229
22.1259
22.1289
22.132
22.1352
22.1383
22.1415
22.1448
22.1481
22.1515
22.1549
22.1583
22.1618
22.1654
22.169
22.1727
22.1764
22.1802
22.1841
22.188
22.192
22.196
22.2001
22.2043
22.2086
22.2129
22.2173
22.2218
22.2263
22.2309
22.2356
22.2404
22.2452
22.2501
22.2551
22.2602
22.2653
22.2706
22.2759
22.2813
22.2868
22.2924
22.298
22.3038
22.3096
22.3156
22.3216
22.3277
22.3339
22.3402
22.3466
22.3531
22.3598
22.3665
22.3734
22.3804
22.3875
22.3948
22.4022
22.4097
22.4175
22.4254
22.4335
22.4418
22.4502
22.4589
22.4678
22.4769
22.4862
22.4958
22.5057
22.5157
22.5261
22.5367
22.5476
22.5587
22.5701
22.5818
22.5938
22.606
22.6186
22.6314
22.6444
22.6577
22.6713
22.6851
22.6992
22.7135
22.728
22.7427
22.7576
22.7726
22.7879
22.8033
22.8188
22.8344
22.8502
22.8661
22.8821
22.8981
22.9143
22.9305
22.9468
22.9631
22.9796
22.9961
23.0128
23.0295
23.0465
23.0636
23.0808
23.0983
23.116
23.134
23.1522
23.1707
23.1896
23.2087
23.2283
23.2482
23.2686
23.2894
23.3106
23.3323
23.3546
23.3773
23.4005
23.4213
23.3666
22.1117
22.123
22.1345
22.1461
22.1577
22.1694
22.181
22.1926
22.204
22.2152
22.2261
22.2367
22.2468
22.2565
22.2656
22.2742
22.1712
22.1754
22.1797
22.184
22.1883
22.1926
22.1969
22.2013
22.2057
22.2102
22.2147
22.2193
22.2239
22.2285
22.2333
22.2381
22.2429
22.2479
22.2529
22.258
22.2631
22.2684
22.2737
22.2791
22.2846
22.2902
22.2958
22.3015
22.3073
22.3133
22.3193
22.3254
22.3315
22.3378
22.3442
22.3508
22.3574
22.3641
22.371
22.378
22.3851
22.3923
22.3997
22.4072
22.4149
22.4226
22.4306
22.4386
22.4468
22.4551
22.4636
22.4722
22.481
22.4899
22.499
22.5082
22.5175
22.527
22.5366
22.5464
22.5564
22.5665
22.5767
22.5872
22.5978
22.6086
22.6195
22.6306
22.642
22.6535
22.6652
22.6771
22.6893
22.7016
22.7142
22.727
22.7401
22.7535
22.7671
22.781
22.7953
22.8098
22.8247
22.8399
22.8554
22.8714
22.8877
22.9044
22.9216
22.9391
22.9572
22.9756
22.9946
23.014
23.0339
23.0543
23.0752
23.0966
23.1185
23.141
23.1639
23.1873
23.2112
23.2355
23.2603
23.2856
23.3113
23.3373
23.3638
23.3906
23.4177
23.4452
23.473
23.501
23.5294
23.558
23.5869
23.616
23.6454
23.675
23.705
23.7353
23.7659
23.7969
23.8282
23.86
23.8922
23.9249
23.958
23.9917
24.026
24.0609
24.0964
24.1326
24.1695
24.2073
24.2458
24.2852
24.3254
24.3667
24.4089
24.4522
24.4965
24.542
24.5887
24.6366
24.6858
24.7363
24.7882
24.8414
24.8961
24.9522
25.0098
25.0689
25.1296
25.1918
25.2555
25.3207
25.3875
25.4559
25.5257
25.5971
25.67
25.7444
25.8202
25.8974
25.976
26.056
26.1372
26.2196
26.3032
26.3879
26.474
26.5613
26.65
26.7399
26.8315
26.9243
27.0189
27.1148
27.2129
27.3124
27.4143
27.5177
27.6241
27.7322
27.8435
27.9574
28.0739
28.1963
28.314
28.451
28.3572
22.4058
22.4332
22.4611
22.4892
22.5175
22.5458
22.574
22.6021
22.6298
22.6571
22.6839
22.71
22.7352
22.7595
22.7825
22.6252
22.6379
22.6507
22.6637
22.6767
22.6899
22.7032
22.7167
22.7302
22.744
22.7579
22.772
22.7863
22.8007
22.8154
22.8303
22.8455
22.8609
22.8765
22.8924
22.9086
22.9251
22.9418
22.9589
22.9763
22.9939
23.0119
23.0303
23.0489
23.0679
23.0872
23.1069
23.127
23.1474
23.1682
23.1894
23.211
23.2331
23.2555
23.2784
23.3018
23.3257
23.35
23.3749
23.4002
23.4262
23.4527
23.4798
23.5075
23.5358
23.5647
23.5944
23.6247
23.6557
23.6874
23.7199
23.7531
23.787
23.8217
23.8572
23.8934
23.9304
23.9681
24.0065
24.0457
24.0856
24.1262
24.1675
24.2094
24.252
24.2953
24.3392
24.3837
24.4288
24.4746
24.5212
24.5684
24.6164
24.6652
24.7148
24.7652
24.8166
24.8688
24.9221
24.9763
25.0317
25.0881
25.1456
25.2044
25.2644
25.3257
25.3883
25.4523
25.5178
25.5847
25.6531
25.7231
25.7947
25.8679
25.9428
26.0194
26.0977
26.1777
26.2596
26.3433
26.4288
26.5162
26.6054
26.6965
26.7896
26.8846
26.9816
27.0806
27.1816
27.2846
27.3896
27.4966
27.6056
27.7165
27.8295
27.9445
28.0618
28.1813
28.3033
28.4279
28.5553
28.6855
28.8188
28.9553
29.0953
29.2391
29.3868
29.5388
29.6952
29.8565
30.023
30.1949
30.3728
30.5569
30.7477
30.9457
31.1513
31.3649
31.5871
31.8182
32.0589
32.3096
32.5708
32.843
33.1265
33.4218
33.7293
34.0492
34.382
34.7278
35.0867
35.4589
35.8444
36.2431
36.6549
37.0797
37.5172
37.9671
38.4291
38.9027
39.3876
39.8835
40.3897
40.9061
41.4306
41.9582
42.4882
43.0204
43.555
44.0914
44.6305
45.171
45.7151
46.2597
46.8096
47.3587
47.9156
48.4693
49.0349
49.5926
50.1693
50.729
51.3206
51.8781
52.4878
53.0466
53.6565
54.0692
23.0308
23.0958
23.1616
23.2281
23.2949
23.3619
23.4288
23.4954
23.5613
23.6263
23.6898
23.7514
23.8109
23.8677
23.9218
23.9727
23.7922
23.8296
23.8674
23.9057
23.9444
23.9835
24.023
24.0631
24.1037
24.1448
24.1865
24.2288
24.2718
24.3155
24.36
24.4054
24.4515
24.4986
24.5466
24.5956
24.6455
24.6965
24.7485
24.8015
24.8555
24.9106
24.9667
25.0239
25.082
25.1412
25.2013
25.2625
25.3247
25.388
25.4523
25.5178
25.5845
25.6525
25.7217
25.7923
25.8643
25.9378
26.0128
26.0894
26.1677
26.2477
26.3295
26.4132
26.4988
26.5863
26.6758
26.7674
26.8611
26.957
27.0551
27.1554
27.2579
27.3628
27.47
27.5795
27.6915
27.8059
27.9227
28.042
28.1637
28.2881
28.4149
28.5444
28.6765
28.8113
28.9487
29.0888
29.2316
29.3771
29.5252
29.6761
29.83
29.987
30.1473
30.3109
30.4782
30.6494
30.8246
31.0041
31.1883
31.3773
31.5716
31.7714
31.9773
32.1894
32.4084
32.6347
32.8688
33.1111
33.3622
33.6228
33.8933
34.1744
34.4666
34.7706
35.0869
35.4161
35.7587
36.1153
36.4864
36.8723
37.2734
37.6901
38.1225
38.5708
39.035
39.5151
40.0109
40.5221
41.0484
41.5893
42.1442
42.7125
43.2918
43.8772
44.4673
45.0618
45.6602
46.2619
46.8664
47.4732
48.0818
48.6919
49.303
49.9147
50.5269
51.1392
51.7513
52.3631
52.9741
53.5842
54.1931
54.8004
55.4059
56.0091
56.6097
57.207
57.8008
58.3903
58.9751
59.5545
60.1279
60.6946
61.254
61.8055
62.3486
62.8826
63.4071
63.9218
64.4262
64.9202
65.4037
65.8767
66.3391
66.7914
67.2337
67.6665
68.09
68.5053
68.9122
69.3121
69.7046
70.0918
70.4721
70.8501
71.227
71.6075
71.9871
72.3712
72.7538
73.1411
73.526
73.9149
74.3003
74.6878
75.0712
75.4534
75.8318
76.2037
76.5745
76.9302
77.2928
77.6233
77.9836
78.2723
78.6521
78.8718
79.1596
24.511
24.6553
24.8014
24.9487
25.0965
25.2441
25.391
25.5366
25.6802
25.8214
25.9598
26.0949
26.2261
26.7208
26.822
26.9244
27.0282
27.1334
27.2399
27.348
27.4575
27.5687
27.6816
27.7963
27.913
28.0316
28.1525
28.2757
28.4014
28.5297
28.6606
28.7944
28.9312
29.0709
29.2138
29.3598
29.5092
29.6618
29.8178
29.9773
30.1404
30.307
30.4773
30.6513
30.8291
31.0107
31.1961
31.3853
31.5785
31.7758
31.9772
32.1831
32.3934
32.6084
32.8283
33.0532
33.2833
33.519
33.7604
34.0078
34.2616
34.5221
34.7896
35.0646
35.3476
35.639
35.9393
36.2491
36.5689
36.8993
37.2409
37.5944
37.9603
38.3391
38.7316
39.138
39.5591
39.9952
40.4465
40.9136
41.3965
41.8954
42.4103
42.9411
43.4879
44.0503
44.6259
45.2101
45.8019
46.401
47.0074
47.6205
48.2398
48.865
49.4958
50.1315
50.7718
51.4162
52.0641
52.7151
53.3686
54.024
54.6806
55.3378
55.9947
56.6506
57.3045
57.9554
58.6023
59.244
59.8794
60.5072
61.1262
61.7351
62.3328
62.9182
63.49
64.0474
64.5896
65.1157
65.6254
66.1181
66.5937
67.0521
67.4935
67.9181
68.3262
68.7186
69.0959
69.4587
69.808
70.1462
70.4781
70.8048
71.1269
71.4452
71.7604
72.073
72.3835
72.6924
73.0001
73.3068
73.6125
73.9175
74.2215
74.5244
74.826
75.1259
75.4238
75.7193
76.0117
76.3008
76.5859
76.8665
77.1422
77.4126
77.6773
77.936
78.1885
78.4346
78.6743
78.9074
79.1342
79.3547
79.5691
79.7775
79.9803
80.1774
80.3694
80.5561
80.7379
80.9148
81.0871
81.2544
81.4171
81.5748
81.7278
81.8754
82.0178
82.1545
82.2853
82.4101
82.528
82.64
82.7437
82.8418
82.9299
83.0135
83.0853
83.1544
83.2102
83.2657
83.307
83.3508
83.3798
83.4142
83.4339
83.4617
83.4753
83.4994
83.5085
83.532
83.5372
83.5619
83.5618
83.5354
27.7687
28.0913
28.4159
28.7409
29.065
29.3869
29.7056
30.0201
30.329
30.6308
30.9238
31.2059
31.4755
33.6308
33.9016
34.1771
34.4573
34.742
35.0313
35.3252
35.6238
35.9273
36.236
36.5502
36.8702
37.1965
37.5294
37.8695
38.2171
38.5727
38.9369
39.3102
39.6931
40.086
40.4896
40.9045
41.3309
41.7694
42.2205
42.6844
43.1613
43.6515
44.1551
44.6721
45.2026
45.7464
46.3004
46.8614
47.4288
48.0025
48.5823
49.168
49.7594
50.3561
50.958
51.565
52.1768
52.7933
53.4143
54.0395
54.6687
55.3015
55.9374
56.576
57.2167
57.8587
58.501
59.1427
59.7828
60.4197
61.0524
61.6793
62.2988
62.9095
63.5101
64.0989
64.6745
65.2358
65.7818
66.3113
66.8237
67.3186
67.7954
68.254
68.6945
69.1171
69.5241
69.9198
70.3051
70.6805
71.0461
71.4024
71.75
72.0895
72.4209
72.7447
73.0611
73.3707
73.6732
73.9687
74.2577
74.54
74.8154
75.084
75.346
75.6009
75.849
76.0904
76.325
76.553
76.7746
76.9901
77.1998
77.404
77.6034
77.7982
77.9891
78.1766
78.3611
78.5432
78.7234
78.902
79.0794
79.2559
79.4318
79.6071
79.782
79.9565
80.1304
80.3036
80.4759
80.6471
80.8167
80.9845
81.1497
81.312
81.4707
81.6252
81.775
81.9195
82.0582
82.1904
82.3159
82.4342
82.545
82.6483
82.7439
82.8318
82.9123
82.9855
83.0518
83.1116
83.1654
83.2137
83.257
83.2959
83.3309
83.3627
83.3916
83.4183
83.4432
83.4667
83.4892
83.511
83.5323
83.5536
83.5749
83.5965
83.6183
83.6407
83.6634
83.6868
83.7104
83.7348
83.7593
83.7846
83.8098
83.8359
83.8616
83.8883
83.9143
83.9413
83.9677
83.9949
84.0211
84.0483
84.0738
84.1003
84.1239
84.1491
84.17
84.1933
84.2116
84.2335
84.2495
84.2705
84.2846
84.3038
84.3148
84.3312
84.3389
84.3522
84.3573
84.3673
84.3696
84.3502
33.9304
34.5614
35.1967
35.8334
36.4679
37.0968
37.7169
38.3248
38.9173
39.492
40.0477
40.5843
41.1015
41.598
49.339
49.9591
50.5812
51.2047
51.8288
52.453
53.0769
53.6999
54.3216
54.9418
55.56
56.1761
56.7901
57.4016
58.0105
58.6172
59.2213
59.8225
60.4207
61.0157
61.6068
62.1931
62.7736
63.3477
63.9142
64.4715
65.0189
65.5555
66.0797
66.5912
67.0893
67.5729
68.042
68.4996
68.9477
69.3866
69.8169
70.2382
70.6505
71.0542
71.4494
71.8357
72.2132
72.5817
72.9411
73.2909
73.6308
73.9605
74.2794
74.5874
74.8839
75.1688
75.4418
75.7029
75.9523
76.19
76.4167
76.6328
76.8387
77.0357
77.2246
77.4058
77.581
77.7512
77.9166
78.0786
78.2386
78.3963
78.5526
78.7086
78.8643
79.0197
79.1753
79.3312
79.4874
79.6435
79.7993
79.9545
80.1092
80.2624
80.4137
80.5632
80.7103
80.8543
80.9948
81.1317
81.265
81.3937
81.5176
81.6373
81.7521
81.8618
81.9669
82.0673
82.1627
82.2538
82.3407
82.4233
82.5019
82.577
82.6488
82.7173
82.7829
82.8458
82.906
82.9638
83.0191
83.0721
83.1228
83.1712
83.2172
83.2609
83.3021
83.341
83.3774
83.4115
83.4433
83.4729
83.5004
83.5261
83.55
83.5725
83.5937
83.6137
83.6328
83.6511
83.6687
83.6858
83.7025
83.7189
83.7351
83.7512
83.7672
83.7832
83.7992
83.8151
83.8311
83.8471
83.863
83.879
83.8949
83.9108
83.9268
83.9428
83.959
83.9753
83.9918
84.0087
84.0259
84.0435
84.0617
84.0802
84.0992
84.1183
84.1378
84.1572
84.177
84.1965
84.2162
84.2354
84.2549
84.2735
84.2924
84.3102
84.3283
84.3452
84.3624
84.3782
84.3943
84.4089
84.4238
84.4371
84.4506
84.4627
84.4751
84.4866
84.4985
84.5101
84.5221
84.5337
84.5452
84.5555
84.5647
84.5721
84.5791
84.5844
84.5893
84.5926
84.5958
84.5978
84.5997
84.6051
84.5628
46.5496
47.8342
49.1137
50.3754
51.6089
52.8052
53.9566
55.0577
56.1046
57.0925
58.0146
58.8634
59.6347
60.3249
68.5404
69.0332
69.5161
69.9882
70.449
70.8977
71.3338
71.757
72.1673
72.5642
72.9477
73.3181
73.6753
74.019
74.3494
74.6668
74.9707
75.2612
75.5386
75.8029
76.0541
76.2929
76.5205
76.7369
76.9428
77.1402
77.3297
77.5115
77.6878
77.8592
78.0255
78.1891
78.3502
78.508
78.6641
78.8192
78.9716
79.1217
79.2708
79.4173
79.5606
79.7017
79.8398
79.9743
80.1052
80.2326
80.3562
80.4758
80.5916
80.7037
80.8123
80.9176
81.0199
81.1195
81.2166
81.3117
81.4051
81.4969
81.5878
81.6777
81.7664
81.855
81.9428
82.0292
82.1157
82.2012
82.2846
82.367
82.4482
82.5261
82.6015
82.6749
82.7445
82.81
82.8722
82.931
82.9849
83.035
83.0817
83.124
83.1628
83.1984
83.2304
83.2593
83.2858
83.3102
83.3317
83.3514
83.3704
83.3875
83.4029
83.4183
83.4329
83.4463
83.4598
83.4733
83.4863
83.4994
83.5129
83.5266
83.5406
83.5551
83.5702
83.5858
83.602
83.6189
83.6363
83.6544
83.673
83.6921
83.7116
83.7314
83.7513
83.7714
83.7915
83.8116
83.8315
83.8515
83.8711
83.8902
83.9088
83.9266
83.9437
83.96
83.9755
83.9902
84.0041
84.0174
84.0301
84.0422
84.0538
84.0652
84.0763
84.0872
84.0981
84.1089
84.12
84.1312
84.1428
84.1549
84.1674
84.1806
84.1944
84.2089
84.2241
84.2399
84.2564
84.2734
84.2908
84.3085
84.3262
84.3439
84.3617
84.3793
84.397
84.4143
84.4314
84.4481
84.4645
84.4804
84.4959
84.5107
84.5251
84.5388
84.5521
84.5647
84.5767
84.5881
84.5989
84.6091
84.6188
84.6278
84.6366
84.6448
84.6529
84.6605
84.6677
84.6744
84.6804
84.6856
84.6898
84.6934
84.6963
84.6993
84.7016
84.7041
84.7064
84.7091
84.7121
84.7156
84.7193
84.7333
84.6479
67.5488
68.8527
70.0202
71.0562
71.9683
72.7643
73.4507
74.0291
74.5143
74.9066
75.2053
75.4221
75.5754
75.6692
77.9014
78.0803
78.2555
78.4278
78.5972
78.7637
78.9274
79.0882
79.245
79.3975
79.546
79.6894
79.8265
79.9586
80.0856
80.2061
80.321
80.4315
80.5374
80.6391
80.7377
80.8339
80.9283
81.0212
81.1134
81.2052
81.2961
81.3872
81.4779
81.5674
81.6572
81.746
81.8318
81.9171
82.0009
82.08
82.1566
82.2316
82.3014
82.3667
82.4301
82.4892
82.5433
82.5945
82.6428
82.6874
82.7288
82.7678
82.8048
82.8394
82.8722
82.9036
82.9338
82.9626
82.9905
83.0178
83.0442
83.07
83.0954
83.1198
83.144
83.1678
83.1904
83.2131
83.2356
83.2565
83.2778
83.2992
83.3189
83.3387
83.3594
83.3787
83.3972
83.4168
83.4363
83.4539
83.4718
83.4908
83.5078
83.5236
83.5405
83.5566
83.5713
83.5854
83.5998
83.6139
83.6261
83.6379
83.6504
83.6616
83.6718
83.6828
83.6935
83.7034
83.7138
83.7247
83.7352
83.746
83.7576
83.7695
83.7818
83.7947
83.8084
83.8226
83.8373
83.8528
83.8689
83.8856
83.9028
83.9205
83.9387
83.9574
83.9764
83.9956
84.015
84.0343
84.0532
84.0715
84.0892
84.1062
84.1225
84.138
84.1527
84.1666
84.1797
84.1921
84.2038
84.2149
84.2256
84.2359
84.2459
84.2558
84.2657
84.2756
84.2858
84.2963
84.3072
84.3187
84.3307
84.3434
84.3567
84.3706
84.3851
84.4001
84.4155
84.4312
84.4471
84.4631
84.4791
84.4951
84.5111
84.527
84.5427
84.5581
84.5733
84.588
84.6023
84.6162
84.6295
84.6423
84.6545
84.666
84.6769
84.6872
84.6968
84.7058
84.7141
84.7218
84.7289
84.7354
84.7414
84.7469
84.752
84.7566
84.7609
84.7648
84.7682
84.7715
84.7745
84.7776
84.7806
84.7842
84.7879
84.7922
84.797
84.8025
84.8089
84.816
84.8249
84.833
84.8408
84.8633
84.6932
82.9311
83.264
83.5377
83.767
83.936
84.0551
84.1326
84.1677
84.1628
84.1249
84.0567
83.9423
83.8031
81.0408
81.1332
81.2269
81.3211
81.4146
81.5068
81.5971
81.6843
81.7677
81.848
81.9243
81.9957
82.0636
82.1282
82.188
82.2443
82.2987
82.3494
82.3969
82.443
82.4872
82.5293
82.5693
82.6079
82.6461
82.6818
82.716
82.7502
82.7819
82.8122
82.8423
82.8693
82.8958
82.9225
82.9455
82.968
82.9921
83.0123
83.0313
83.0527
83.0719
83.0889
83.1074
83.126
83.1428
83.1595
83.1767
83.1938
83.2103
83.2265
83.2432
83.2599
83.2764
83.2929
83.3098
83.3269
83.3434
83.3607
83.378
83.3945
83.4123
83.4299
83.4461
83.464
83.4815
83.4969
83.514
83.5312
83.546
83.5616
83.5785
83.5932
83.6072
83.6231
83.6387
83.6516
83.6658
83.6818
83.6949
83.7076
83.7225
83.7364
83.749
83.7614
83.7741
83.7864
83.7973
83.8083
83.8201
83.8309
83.8414
83.8529
83.8643
83.8753
83.8872
83.8995
83.9117
83.9246
83.9382
83.9521
83.9664
83.9813
83.9968
84.0127
84.0289
84.0457
84.0627
84.0801
84.0976
84.1152
84.1328
84.1503
84.1676
84.1844
84.2006
84.2161
84.2311
84.2454
84.2593
84.2725
84.2852
84.2972
84.3087
84.3197
84.3302
84.3404
84.3504
84.3602
84.3699
84.3797
84.3897
84.3998
84.4103
84.4212
84.4326
84.4444
84.4567
84.4695
84.4828
84.4965
84.5106
84.5249
84.5396
84.5544
84.5694
84.5844
84.5994
84.6144
84.6293
84.6441
84.6586
84.6727
84.6865
84.6997
84.7125
84.7247
84.7363
84.7474
84.7577
84.7675
84.7765
84.7849
84.7927
84.7998
84.8064
84.8124
84.8179
84.823
84.8277
84.8321
84.8362
84.8402
84.844
84.8479
84.8517
84.8558
84.8601
84.8648
84.8699
84.8756
84.8819
84.8888
84.8966
84.905
84.9147
84.9248
84.937
84.9484
84.9627
84.9711
84.9759
84.99
84.6629
90.2374
90.212
90.1412
89.8487
89.4945
89.1547
88.791
88.4021
87.9948
87.5768
87.1546
86.726
86.2902
82.2632
82.2956
82.3289
82.3635
82.399
82.4351
82.4724
82.5105
82.5484
82.5865
82.6253
82.6627
82.6986
82.735
82.7701
82.8021
82.8337
82.8646
82.8928
82.9195
82.9452
82.9712
82.9959
83.0181
83.0425
83.0659
83.0852
83.1072
83.1284
83.1449
83.1649
83.1848
83.1984
83.2151
83.2347
83.247
83.2603
83.2789
83.2918
83.3029
83.3188
83.3332
83.345
83.3584
83.3728
83.3868
83.4
83.4137
83.4285
83.4432
83.4577
83.4725
83.4885
83.5045
83.5197
83.5368
83.5538
83.5693
83.5874
83.6044
83.6192
83.6372
83.654
83.668
83.6854
83.7021
83.7156
83.7315
83.748
83.7618
83.7757
83.7913
83.8055
83.8181
83.8318
83.8458
83.8582
83.8698
83.8821
83.8937
83.9043
83.9147
83.9254
83.9361
83.9465
83.9571
83.9682
83.9795
83.991
84.0029
84.0153
84.0281
84.0413
84.055
84.0691
84.0837
84.0987
84.1141
84.1298
84.1458
84.1621
84.1785
84.195
84.2116
84.228
84.2443
84.2603
84.276
84.2912
84.306
84.3202
84.3339
84.3471
84.3599
84.3723
84.3842
84.3957
84.4068
84.4175
84.4279
84.438
84.448
84.458
84.468
84.4781
84.4883
84.4989
84.5097
84.5209
84.5325
84.5445
84.557
84.5698
84.5829
84.5964
84.6101
84.6241
84.6383
84.6525
84.6669
84.6813
84.6956
84.7099
84.724
84.7379
84.7515
84.7647
84.7775
84.7898
84.8015
84.8127
84.8233
84.8333
84.8427
84.8514
84.8595
84.8671
84.8741
84.8805
84.8865
84.8921
84.8973
84.9022
84.9069
84.9115
84.9161
84.9206
84.9253
84.9302
84.9353
84.9407
84.9466
84.953
84.9599
84.9674
84.9756
84.9844
84.9939
85.0041
85.0149
85.0267
85.0389
85.0527
85.0663
85.0822
85.0941
85.1076
85.1039
85.0882
85.0514
84.4714
91.9758
91.5325
91.0524
90.5585
90.0733
89.5928
89.1128
88.6337
88.1589
87.6893
87.2186
86.7482
82.5791
82.6
82.6227
82.6477
82.6743
82.7023
82.7326
82.7641
82.7958
82.829
82.8633
82.8959
82.9281
82.962
82.9932
83.0214
83.0515
83.0794
83.1037
83.1275
83.1507
83.1751
83.1952
83.2134
83.2368
83.2548
83.2695
83.2907
83.3071
83.3195
83.3395
83.3559
83.3659
83.383
83.401
83.4104
83.4232
83.4419
83.4529
83.4628
83.4803
83.4943
83.5053
83.5196
83.535
83.5495
83.5629
83.5775
83.5935
83.609
83.6241
83.6397
83.6566
83.6725
83.6879
83.705
83.7207
83.7357
83.7523
83.7676
83.782
83.798
83.8133
83.8272
83.8424
83.8573
83.8708
83.8849
83.8989
83.912
83.9248
83.9375
83.9498
83.9616
83.9729
83.984
83.9948
84.0051
84.0153
84.0256
84.0359
84.0465
84.0573
84.0684
84.0799
84.0917
84.104
84.1167
84.1299
84.1435
84.1576
84.1721
84.187
84.2022
84.2177
84.2334
84.2494
84.2654
84.2815
84.2975
84.3135
84.3292
84.3447
84.3599
84.3747
84.3892
84.4031
84.4166
84.4297
84.4423
84.4544
84.4662
84.4777
84.4888
84.4996
84.5102
84.5205
84.5308
84.5409
84.5511
84.5613
84.5717
84.5823
84.5931
84.6043
84.6157
84.6276
84.6397
84.6523
84.6651
84.6782
84.6916
84.7052
84.7189
84.7327
84.7466
84.7604
84.7742
84.7879
84.8014
84.8147
84.8276
84.8403
84.8525
84.8643
84.8756
84.8864
84.8966
84.9063
84.9154
84.9239
84.9319
84.9393
84.9463
84.9528
84.959
84.9648
84.9703
84.9757
84.9809
84.9861
84.9914
84.9968
85.0023
85.0081
85.0143
85.0208
85.0277
85.0352
85.0432
85.0517
85.0607
85.0703
85.0804
85.091
85.102
85.1134
85.1251
85.1373
85.1496
85.1627
85.1758
85.1902
85.2033
85.2165
85.2205
85.2168
85.1792
85.1105
84.953
84.0283
92.4594
91.9442
91.4194
90.8966
90.3815
89.8687
89.3554
88.845
88.3434
87.8484
82.7936
82.8079
82.8251
82.8453
82.8669
82.8905
82.9173
82.9454
82.9741
83.0057
83.0385
83.0693
83.1015
83.1358
83.1656
83.1939
83.2256
83.2524
83.276
83.2996
83.3229
83.3481
83.3654
83.3829
83.4064
83.4217
83.4355
83.4561
83.4708
83.4829
83.5012
83.5156
83.5256
83.5416
83.5565
83.5661
83.5798
83.5953
83.6071
83.6188
83.6344
83.6487
83.6612
83.6755
83.6905
83.7052
83.7194
83.7342
83.7497
83.765
83.7801
83.7953
83.8107
83.8258
83.8407
83.8556
83.8705
83.885
83.8997
83.9143
83.9285
83.9426
83.9566
83.9702
83.9835
83.9967
84.0094
84.0218
84.0338
84.0455
84.0569
84.0678
84.0785
84.0891
84.0994
84.1096
84.1199
84.1304
84.1411
84.1521
84.1634
84.1752
84.1873
84.1999
84.2129
84.2264
84.2403
84.2546
84.2693
84.2844
84.2998
84.3154
84.3311
84.347
84.3629
84.3788
84.3946
84.4102
84.4255
84.4406
84.4553
84.4696
84.4835
84.497
84.5101
84.5226
84.5348
84.5465
84.5579
84.569
84.5798
84.5903
84.6006
84.6109
84.621
84.6312
84.6414
84.6518
84.6623
84.6731
84.6841
84.6955
84.7071
84.719
84.7312
84.7437
84.7565
84.7695
84.7827
84.796
84.8094
84.8228
84.8362
84.8495
84.8627
84.8757
84.8884
84.9008
84.9128
84.9245
84.9358
84.9466
84.957
84.9668
84.9762
84.9851
84.9935
85.0015
85.009
85.0161
85.0229
85.0293
85.0356
85.0416
85.0475
85.0534
85.0593
85.0653
85.0714
85.0777
85.0842
85.0911
85.0982
85.1057
85.1136
85.1219
85.1305
85.1395
85.1488
85.1584
85.1682
85.1781
85.1882
85.1984
85.2085
85.2185
85.2284
85.2383
85.2482
85.2583
85.269
85.2802
85.2916
85.3001
85.3026
85.2871
85.2456
85.1498
84.996
84.65
83.3384
92.086
91.5318
90.9811
90.4338
89.8889
89.3466
88.8125
88.2892
87.7704
82.9932
83.0076
83.0259
83.045
83.0666
83.0924
83.119
83.1466
83.1784
83.2104
83.2401
83.2736
83.3084
83.3354
83.3641
83.3972
83.4201
83.4434
83.4673
83.4908
83.5123
83.5293
83.5469
83.5652
83.5808
83.5949
83.6102
83.6245
83.6371
83.6504
83.6639
83.6758
83.6885
83.7022
83.7147
83.7275
83.7413
83.7548
83.768
83.7819
83.7963
83.8102
83.8243
83.8387
83.8532
83.8677
83.8821
83.8966
83.9112
83.9257
83.9402
83.9545
83.9688
83.983
83.9971
84.0111
84.025
84.0386
84.0521
84.0654
84.0783
84.0909
84.1033
84.1153
84.127
84.1384
84.1495
84.1603
84.1709
84.1814
84.1917
84.202
84.2125
84.2231
84.2339
84.245
84.2565
84.2684
84.2806
84.2933
84.3064
84.32
84.334
84.3483
84.3631
84.3782
84.3935
84.4091
84.4247
84.4405
84.4562
84.4719
84.4875
84.5028
84.5179
84.5327
84.5471
84.5611
84.5747
84.5878
84.6005
84.6128
84.6246
84.636
84.6471
84.6578
84.6683
84.6785
84.6886
84.6986
84.7086
84.7186
84.7288
84.7391
84.7496
84.7603
84.7714
84.7827
84.7943
84.8061
84.8182
84.8306
84.8431
84.8558
84.8686
84.8815
84.8945
84.9074
84.9202
84.9329
84.9454
84.9577
84.9697
84.9813
84.9926
85.0035
85.014
85.024
85.0337
85.0429
85.0517
85.0601
85.0682
85.0758
85.0832
85.0903
85.0971
85.1037
85.1101
85.1164
85.1226
85.1287
85.1349
85.1411
85.1475
85.1539
85.1605
85.1673
85.1743
85.1814
85.1888
85.1964
85.2042
85.2122
85.2203
85.2287
85.2372
85.2458
85.2545
85.2633
85.2722
85.2812
85.2902
85.2992
85.3084
85.3177
85.3276
85.3381
85.3499
85.3629
85.3766
85.3882
85.3925
85.3793
85.3332
85.2369
85.0581
84.7721
84.2514
82.5265
92.0442
91.4686
83.1792
83.1934
83.2104
83.2254
83.2453
83.2709
83.2941
83.3202
83.3528
83.3808
83.4081
83.4432
83.4743
83.4986
83.5289
83.5582
83.5819
83.6056
83.6283
83.6495
83.6688
83.6864
83.7026
83.7177
83.7324
83.746
83.759
83.772
83.7846
83.7968
83.8094
83.8221
83.8346
83.8476
83.8608
83.8738
83.887
83.9006
83.9142
83.9277
83.9415
83.9554
83.9692
83.9831
83.997
84.0109
84.0248
84.0386
84.0524
84.0662
84.0799
84.0935
84.107
84.1203
84.1335
84.1465
84.1593
84.1718
84.1841
84.196
84.2077
84.2191
84.2302
84.2411
84.2517
84.2623
84.2726
84.283
84.2934
84.3038
84.3144
84.3252
84.3364
84.3478
84.3596
84.3718
84.3845
84.3975
84.4109
84.4248
84.439
84.4536
84.4684
84.4836
84.4989
84.5143
84.5299
84.5454
84.5608
84.5761
84.5912
84.606
84.6205
84.6346
84.6483
84.6617
84.6746
84.687
84.699
84.7106
84.7218
84.7326
84.7431
84.7534
84.7634
84.7733
84.7831
84.7928
84.8026
84.8125
84.8225
84.8328
84.8433
84.8541
84.8651
84.8765
84.888
84.8998
84.9118
84.924
84.9362
84.9486
84.961
84.9734
84.9857
84.998
85.0101
85.022
85.0337
85.0451
85.0562
85.067
85.0773
85.0873
85.0969
85.106
85.1148
85.1231
85.1311
85.1387
85.1459
85.1528
85.1595
85.1658
85.172
85.1779
85.1836
85.1893
85.1948
85.2003
85.2059
85.2115
85.2172
85.2231
85.2293
85.2357
85.2424
85.2495
85.2569
85.2648
85.273
85.2818
85.291
85.3006
85.3106
85.3209
85.3316
85.3426
85.3537
85.365
85.3762
85.3873
85.3983
85.4091
85.4196
85.4301
85.4408
85.4519
85.464
85.4759
85.4857
85.4866
85.4689
85.4162
85.3092
85.1263
84.8405
84.385
83.6904
81.6018
83.3732
83.3835
83.397
83.41
83.429
83.4513
83.4722
83.4978
83.5267
83.5529
83.5798
83.6104
83.6394
83.6658
83.6929
83.7189
83.7434
83.766
83.787
83.8064
83.8244
83.8411
83.8562
83.8702
83.8838
83.8967
83.909
83.9213
83.9335
83.9456
83.9578
83.9703
83.9827
83.9952
84.008
84.0207
84.0335
84.0466
84.0596
84.0727
84.0858
84.099
84.1121
84.1253
84.1384
84.1516
84.1646
84.1777
84.1906
84.2035
84.2162
84.2288
84.2412
84.2534
84.2654
84.2772
84.2887
84.2999
84.311
84.3218
84.3324
84.3428
84.3531
84.3633
84.3735
84.3837
84.3941
84.4045
84.4152
84.4262
84.4374
84.449
84.461
84.4734
84.4861
84.4993
84.5128
84.5267
84.5409
84.5554
84.5701
84.5851
84.6001
84.6152
84.6304
84.6454
84.6603
84.675
84.6895
84.7037
84.7175
84.731
84.744
84.7566
84.7689
84.7807
84.792
84.8031
84.8137
84.824
84.8341
84.8439
84.8536
84.8632
84.8727
84.8822
84.8918
84.9015
84.9114
84.9215
84.9318
84.9424
84.9532
84.9643
84.9756
84.9872
84.9988
85.0107
85.0225
85.0345
85.0464
85.0582
85.0699
85.0815
85.0929
85.1041
85.1149
85.1255
85.1356
85.1454
85.1547
85.1636
85.172
85.1799
85.1873
85.1944
85.201
85.2072
85.2131
85.2186
85.224
85.2292
85.2344
85.2395
85.2447
85.25
85.2555
85.2613
85.2675
85.2741
85.2812
85.2889
85.2972
85.306
85.3154
85.3254
85.3359
85.3468
85.3581
85.3697
85.3813
85.393
85.4045
85.4156
85.4262
85.4361
85.4452
85.4533
85.4602
85.4658
85.4701
85.473
85.4745
85.4748
85.4743
85.4736
85.4734
85.4744
85.4766
85.478
85.4736
85.4533
85.403
85.3036
85.1358
84.8769
84.4974
83.931
83.1008
80.7947
83.578
83.5844
83.5941
83.6061
83.6214
83.6397
83.6597
83.6821
83.7067
83.7318