/*--------------------------------*- C++ -*----------------------------------*\
| =========                 |                                                 |
| \\      /  F ield         | OpenFOAM: The Open Source CFD Toolbox           |
|  \\    /   O peration     | Version:  v1706                                 |
|   \\  /    A nd           | Web:      www.OpenFOAM.com                      |
|    \\/     M anipulation  |                                                 |
\*---------------------------------------------------------------------------*/
FoamFile
{
    version     2.0;
    format      ascii;
    class       volScalarField;
    location    "1.5e-05";
    object      Tov;
}
// * * * * * * * * * * * * * * * * * * * * * * * * * * * * * * * * * * * * * //

dimensions      [0 0 0 1 0 0 0];


internalField   nonuniform List<scalar> 
30104
(
144.417
144.418
144.419
144.42
144.421
144.422
144.423
144.424
144.425
144.426
144.427
144.427
144.428
144.429
144.43
144.43
144.431
144.415
144.415
144.415
144.415
144.416
144.416
144.416
144.416
144.416
144.416
144.417
144.417
144.417
144.417
144.417
144.417
144.418
144.418
144.418
144.418
144.418
144.418
144.419
144.419
144.419
144.419
144.419
144.42
144.42
144.42
144.42
144.42
144.421
144.421
144.421
144.421
144.422
144.422
144.422
144.422
144.422
144.423
144.423
144.423
144.423
144.424
144.424
144.424
144.424
144.425
144.425
144.425
144.426
144.426
144.426
144.426
144.427
144.427
144.427
144.428
144.428
144.428
144.428
144.429
144.429
144.429
144.43
144.43
144.43
144.431
144.431
144.431
144.432
144.432
144.432
144.433
144.433
144.433
144.434
144.434
144.434
144.435
144.435
144.436
144.436
144.436
144.437
144.437
144.438
144.438
144.438
144.439
144.439
144.44
144.44
144.441
144.441
144.442
144.442
144.442
144.443
144.443
144.444
144.444
144.445
144.445
144.446
144.446
144.447
144.447
144.448
144.449
144.449
144.45
144.45
144.451
144.451
144.452
144.453
144.453
144.454
144.454
144.455
144.456
144.456
144.457
144.458
144.458
144.459
144.46
144.461
144.461
144.462
144.463
144.464
144.465
144.466
144.466
144.467
144.468
144.469
144.47
144.471
144.472
144.473
144.474
144.475
144.476
144.477
144.478
144.479
144.48
144.481
144.482
144.483
144.484
144.485
144.486
144.487
144.488
144.489
144.49
144.491
144.492
144.493
144.494
144.495
144.496
144.497
144.498
144.499
144.5
144.501
144.502
144.504
144.505
144.506
144.507
144.508
144.509
144.511
144.512
144.513
144.514
144.516
144.517
144.518
144.52
144.521
144.523
144.524
144.523
144.506
144.499
144.504
144.51
144.515
144.521
144.526
144.532
144.537
144.543
144.548
144.553
144.558
144.563
144.567
144.571
144.575
144.579
144.497
144.498
144.499
144.5
144.502
144.503
144.504
144.505
144.507
144.508
144.509
144.511
144.512
144.513
144.514
144.516
144.517
144.518
144.52
144.521
144.523
144.524
144.525
144.527
144.528
144.53
144.531
144.533
144.534
144.536
144.538
144.539
144.541
144.543
144.544
144.546
144.548
144.549
144.551
144.553
144.555
144.557
144.559
144.56
144.562
144.564
144.566
144.568
144.57
144.573
144.575
144.577
144.579
144.581
144.583
144.585
144.588
144.59
144.592
144.595
144.597
144.599
144.602
144.604
144.607
144.609
144.612
144.614
144.617
144.62
144.622
144.625
144.628
144.631
144.633
144.636
144.639
144.642
144.645
144.648
144.652
144.655
144.658
144.661
144.665
144.668
144.672
144.675
144.679
144.683
144.687
144.69
144.694
144.698
144.702
144.707
144.711
144.715
144.719
144.724
144.728
144.732
144.737
144.742
144.746
144.751
144.756
144.76
144.765
144.77
144.775
144.78
144.785
144.79
144.795
144.8
144.805
144.81
144.815
144.821
144.826
144.832
144.837
144.843
144.849
144.854
144.86
144.866
144.873
144.879
144.885
144.892
144.898
144.905
144.912
144.919
144.926
144.934
144.941
144.949
144.957
144.965
144.973
144.981
144.99
144.998
145.007
145.016
145.025
145.034
145.043
145.053
145.062
145.072
145.081
145.091
145.101
145.111
145.121
145.132
145.142
145.152
145.163
145.173
145.184
145.194
145.205
145.216
145.227
145.238
145.249
145.26
145.272
145.283
145.295
145.306
145.319
145.331
145.343
145.356
145.369
145.382
145.396
145.409
145.424
145.438
145.453
145.468
145.484
145.5
145.518
145.518
145.43
144.701
144.717
144.734
144.751
144.768
144.785
144.802
144.818
144.835
144.851
144.867
144.882
144.896
144.91
144.923
144.936
144.729
144.734
144.739
144.743
144.748
144.753
144.758
144.763
144.768
144.773
144.778
144.783
144.788
144.793
144.798
144.803
144.808
144.814
144.819
144.824
144.83
144.835
144.841
144.847
144.853
144.859
144.865
144.871
144.877
144.883
144.889
144.896
144.902
144.909
144.916
144.923
144.93
144.937
144.944
144.951
144.959
144.966
144.974
144.982
144.99
144.998
145.006
145.015
145.023
145.032
145.04
145.049
145.058
145.068
145.077
145.087
145.096
145.106
145.116
145.126
145.136
145.146
145.157
145.167
145.178
145.189
145.2
145.211
145.223
145.234
145.246
145.257
145.269
145.281
145.294
145.306
145.319
145.332
145.345
145.358
145.372
145.386
145.4
145.414
145.429
145.444
145.459
145.474
145.49
145.506
145.523
145.539
145.556
145.574
145.591
145.609
145.627
145.646
145.665
145.684
145.704
145.723
145.744
145.764
145.785
145.806
145.827
145.848
145.87
145.892
145.914
145.937
145.959
145.982
146.006
146.029
146.053
146.077
146.102
146.126
146.151
146.177
146.203
146.229
146.256
146.283
146.311
146.339
146.368
146.398
146.428
146.459
146.491
146.523
146.556
146.59
146.625
146.66
146.697
146.734
146.773
146.812
146.852
146.893
146.935
146.978
147.022
147.067
147.113
147.16
147.208
147.256
147.306
147.356
147.407
147.459
147.512
147.565
147.619
147.673
147.728
147.783
147.839
147.895
147.952
148.009
148.066
148.123
148.181
148.239
148.297
148.356
148.415
148.474
148.534
148.595
148.656
148.717
148.78
148.843
148.907
148.972
149.039
149.106
149.175
149.245
149.316
149.389
149.463
149.54
149.619
149.655
149.354
145.192
145.236
145.279
145.324
145.368
145.412
145.456
145.499
145.542
145.584
145.625
145.664
145.701
145.737
145.771
145.802
145.362
145.378
145.393
145.409
145.425
145.441
145.457
145.473
145.489
145.505
145.522
145.538
145.555
145.572
145.59
145.607
145.625
145.643
145.661
145.679
145.698
145.717
145.737
145.756
145.776
145.796
145.817
145.838
145.859
145.88
145.902
145.924
145.946
145.969
145.992
146.016
146.04
146.064
146.089
146.114
146.14
146.166
146.192
146.22
146.247
146.275
146.304
146.333
146.363
146.393
146.424
146.455
146.487
146.52
146.553
146.587
146.621
146.656
146.691
146.727
146.764
146.801
146.838
146.876
146.915
146.955
146.994
147.035
147.076
147.117
147.16
147.202
147.246
147.29
147.335
147.38
147.426
147.473
147.521
147.57
147.62
147.67
147.722
147.775
147.828
147.883
147.939
147.997
148.055
148.115
148.177
148.239
148.304
148.369
148.437
148.505
148.576
148.648
148.721
148.797
148.873
148.952
149.031
149.113
149.196
149.28
149.365
149.452
149.54
149.63
149.72
149.812
149.905
149.998
150.093
150.188
150.284
150.381
150.479
150.578
150.677
150.778
150.88
150.982
151.086
151.192
151.299
151.407
151.517
151.628
151.742
151.858
151.975
152.095
152.218
152.343
152.471
152.602
152.735
152.872
153.013
153.157
153.305
153.456
153.612
153.772
153.936
154.104
154.277
154.454
154.636
154.823
155.014
155.211
155.411
155.617
155.827
156.042
156.261
156.484
156.711
156.942
157.177
157.416
157.658
157.902
158.15
158.399
158.651
158.904
159.158
159.412
159.668
159.925
160.184
160.443
160.704
160.966
161.23
161.495
161.763
162.032
162.303
162.577
162.854
163.132
163.415
163.702
163.991
164.289
164.581
164.852
164.092
146.354
146.459
146.564
146.67
146.776
146.881
146.986
147.089
147.191
147.29
147.386
147.479
147.568
147.652
147.732
147.015
147.061
147.107
147.153
147.201
147.248
147.296
147.344
147.393
147.442
147.492
147.543
147.594
147.646
147.698
147.751
147.806
147.861
147.916
147.973
148.031
148.09
148.149
148.21
148.271
148.334
148.398
148.462
148.528
148.594
148.662
148.731
148.801
148.872
148.944
149.017
149.092
149.168
149.245
149.324
149.404
149.486
149.569
149.654
149.74
149.828
149.919
150.01
150.104
150.2
150.298
150.398
150.5
150.604
150.71
150.819
150.929
151.043
151.158
151.276
151.395
151.518
151.642
151.768
151.897
152.028
152.161
152.296
152.432
152.571
152.711
152.853
152.997
153.143
153.29
153.439
153.59
153.744
153.899
154.057
154.216
154.379
154.544
154.712
154.883
155.056
155.234
155.414
155.598
155.786
155.978
156.174
156.374
156.579
156.788
157.002
157.221
157.445
157.674
157.909
158.149
158.394
158.645
158.901
159.163
159.43
159.703
159.981
160.264
160.552
160.845
161.143
161.446
161.753
162.064
162.38
162.698
163.02
163.344
163.67
163.998
164.329
164.662
164.997
165.335
165.676
166.02
166.367
166.718
167.073
167.431
167.795
168.163
168.536
168.915
169.3
169.691
170.09
170.496
170.911
171.335
171.768
172.211
172.665
173.13
173.607
174.097
174.6
175.117
175.648
176.194
176.755
177.332
177.924
178.532
179.156
179.796
180.452
181.123
181.808
182.509
183.223
183.951
184.691
185.444
186.207
186.981
187.764
188.557
189.356
190.151
190.94
191.722
192.499
193.269
194.032
194.786
195.535
196.274
197.008
197.73
198.449
199.153
199.858
200.544
201.237
201.9
202.584
203.219
203.9
204.505
205.246
204.631
148.771
149.008
149.247
149.486
149.725
149.963
150.199
150.431
150.66
150.883
151.1
151.309
151.51
151.701
151.881
152.049
151.1
151.226
151.353
151.481
151.61
151.741
151.873
152.006
152.141
152.277
152.415
152.554
152.696
152.839
152.985
153.133
153.284
153.437
153.593
153.751
153.913
154.077
154.245
154.415
154.588
154.764
154.943
155.125
155.309
155.497
155.687
155.88
156.075
156.273
156.474
156.678
156.885
157.095
157.308
157.524
157.744
157.967
158.194
158.426
158.661
158.9
159.144
159.393
159.646
159.904
160.168
160.436
160.711
160.99
161.276
161.567
161.864
162.167
162.476
162.792
163.114
163.442
163.776
164.116
164.462
164.815
165.173
165.537
165.906
166.281
166.661
167.046
167.434
167.826
168.222
168.62
169.022
169.427
169.835
170.247
170.663
171.084
171.508
171.937
172.371
172.81
173.255
173.706
174.163
174.627
175.098
175.577
176.065
176.561
177.067
177.584
178.111
178.649
179.199
179.762
180.337
180.926
181.528
182.144
182.775
183.42
184.08
184.755
185.444
186.147
186.865
187.596
188.339
189.096
189.863
190.642
191.431
192.228
193.032
193.833
194.629
195.419
196.203
196.981
197.751
198.513
199.266
200.01
200.744
201.468
202.182
202.884
203.576
204.255
204.924
205.58
206.224
206.855
207.474
208.08
208.674
209.254
209.821
210.374
210.915
211.441
211.955
212.454
212.94
213.413
213.872
214.318
214.75
215.17
215.577
215.971
216.354
216.725
217.085
217.434
217.773
218.102
218.421
218.732
219.035
219.329
219.615
219.894
220.165
220.43
220.69
220.948
221.2
221.451
221.697
221.941
222.179
222.417
222.647
222.875
223.096
223.314
223.524
223.728
223.928
224.115
224.304
224.47
224.654
224.791
224.979
225.101
224.778
154.238
154.736
155.234
155.73
156.222
156.706
157.182
157.648
158.101
158.54
158.964
159.37
159.758
160.357
160.657
160.96
161.265
161.573
161.883
162.196
162.511
162.829
163.15
163.475
163.802
164.134
164.47
164.81
165.156
165.506
165.862
166.223
166.591
166.964
167.344
167.73
168.123
168.522
168.927
169.339
169.758
170.182
170.613
171.05
171.492
171.939
172.391
172.847
173.307
173.771
174.24
174.713
175.19
175.672
176.159
176.65
177.147
177.648
178.155
178.668
179.186
179.71
180.241
180.779
181.324
181.876
182.437
183.006
183.583
184.17
184.766
185.372
185.989
186.616
187.254
187.903
188.563
189.235
189.917
190.611
191.315
192.029
192.754
193.488
194.231
194.984
195.743
196.499
197.253
198.002
198.747
199.487
200.222
200.951
201.673
202.388
203.095
203.795
204.486
205.168
205.841
206.504
207.157
207.8
208.431
209.052
209.66
210.256
210.84
211.411
211.968
212.511
213.039
213.553
214.052
214.536
215.004
215.457
215.893
216.314
216.719
217.108
217.481
217.839
218.182
218.51
218.823
219.122
219.407
219.678
219.936
220.181
220.417
220.644
220.863
221.074
221.279
221.476
221.667
221.853
222.034
222.209
222.381
222.547
222.71
222.869
223.024
223.176
223.324
223.468
223.609
223.746
223.88
224.01
224.136
224.259
224.379
224.494
224.607
224.716
224.822
224.925
225.026
225.124
225.219
225.313
225.404
225.494
225.582
225.669
225.754
225.838
225.92
226.001
226.08
226.157
226.232
226.305
226.376
226.444
226.509
226.571
226.629
226.684
226.734
226.782
226.823
226.863
226.895
226.926
226.949
226.973
226.987
227.004
227.012
227.024
227.026
227.034
227.033
227.04
227.038
227.043
227.041
227.047
227.041
226.941
165.078
166.013
166.936
167.841
168.725
169.585
170.416
171.217
171.985
172.717
173.411
174.065
174.677
177.939
178.516
179.095
179.675
180.257
180.839
181.422
182.006
182.591
183.176
183.763
184.351
184.942
185.534
186.13
186.729
187.332
187.939
188.551
189.168
189.791
190.419
191.054
191.695
192.342
192.996
193.657
194.323
194.996
195.674
196.358
197.048
197.743
198.44
199.134
199.823
200.507
201.186
201.86
202.527
203.188
203.843
204.49
205.13
205.763
206.387
207.004
207.613
208.213
208.804
209.387
209.961
210.526
211.081
211.626
212.16
212.684
213.197
213.698
214.187
214.664
215.127
215.577
216.013
216.435
216.843
217.235
217.613
217.977
218.325
218.659
218.977
219.281
219.571
219.85
220.118
220.375
220.622
220.86
221.088
221.308
221.519
221.722
221.917
222.105
222.286
222.46
222.627
222.789
222.944
223.093
223.237
223.375
223.508
223.636
223.759
223.876
223.989
224.098
224.203
224.303
224.4
224.494
224.585
224.673
224.758
224.842
224.923
225.003
225.081
225.158
225.234
225.308
225.382
225.454
225.525
225.595
225.665
225.733
225.8
225.866
225.931
225.995
226.058
226.119
226.179
226.236
226.292
226.346
226.398
226.447
226.493
226.537
226.578
226.616
226.652
226.685
226.715
226.744
226.77
226.794
226.817
226.838
226.858
226.878
226.897
226.915
226.933
226.951
226.969
226.988
227.007
227.026
227.046
227.066
227.087
227.108
227.129
227.152
227.174
227.196
227.219
227.242
227.265
227.287
227.31
227.332
227.354
227.376
227.397
227.419
227.439
227.46
227.48
227.5
227.519
227.538
227.555
227.573
227.588
227.606
227.621
227.64
227.655
227.673
227.686
227.703
227.715
227.731
227.743
227.757
227.768
227.737
182.017
183.443
184.83
186.168
187.452
188.675
189.835
190.927
191.949
192.898
193.776
194.582
195.318
195.987
202.218
202.919
203.608
204.287
204.953
205.606
206.246
206.873
207.486
208.085
208.67
209.242
209.8
210.344
210.875
211.394
211.901
212.395
212.878
213.35
213.811
214.26
214.699
215.126
215.542
215.946
216.339
216.719
217.088
217.444
217.788
218.119
218.437
218.744
219.04
219.328
219.606
219.875
220.135
220.387
220.631
220.867
221.095
221.316
221.53
221.736
221.936
222.128
222.313
222.491
222.662
222.826
222.983
223.133
223.276
223.413
223.542
223.666
223.783
223.895
224.002
224.104
224.201
224.295
224.386
224.473
224.558
224.64
224.72
224.798
224.875
224.95
225.023
225.095
225.166
225.235
225.304
225.371
225.438
225.503
225.567
225.63
225.692
225.752
225.81
225.867
225.922
225.976
226.027
226.077
226.124
226.17
226.213
226.255
226.295
226.333
226.369
226.403
226.436
226.467
226.497
226.526
226.554
226.582
226.608
226.634
226.659
226.684
226.708
226.732
226.756
226.779
226.802
226.825
226.847
226.869
226.891
226.912
226.933
226.954
226.976
226.996
227.017
227.038
227.059
227.079
227.1
227.12
227.14
227.16
227.18
227.199
227.219
227.238
227.258
227.277
227.296
227.315
227.334
227.354
227.373
227.392
227.412
227.432
227.452
227.472
227.493
227.515
227.537
227.559
227.583
227.607
227.632
227.657
227.683
227.709
227.735
227.762
227.789
227.816
227.843
227.87
227.898
227.925
227.953
227.98
228.008
228.035
228.063
228.09
228.118
228.145
228.173
228.2
228.228
228.255
228.283
228.312
228.341
228.369
228.398
228.427
228.454
228.481
228.509
228.536
228.565
228.593
228.622
228.652
228.682
228.722
228.695
205.903
207.446
208.886
210.218
211.437
212.544
213.54
214.426
215.209
215.89
216.47
216.951
217.34
217.641
218.545
218.858
219.162
219.456
219.742
220.017
220.282
220.538
220.784
221.021
221.247
221.464
221.672
221.871
222.061
222.243
222.416
222.582
222.739
222.889
223.032
223.167
223.297
223.42
223.537
223.649
223.756
223.858
223.957
224.052
224.144
224.233
224.319
224.403
224.485
224.565
224.644
224.72
224.796
224.87
224.943
225.014
225.083
225.151
225.216
225.28
225.342
225.401
225.458
225.514
225.567
225.618
225.667
225.715
225.76
225.805
225.847
225.889
225.93
225.97
226.009
226.048
226.087
226.124
226.162
226.2
226.236
226.273
226.309
226.345
226.379
226.414
226.447
226.479
226.51
226.54
226.569
226.597
226.624
226.65
226.675
226.699
226.722
226.744
226.765
226.785
226.805
226.824
226.842
226.86
226.877
226.895
226.912
226.928
226.944
226.961
226.977
226.994
227.01
227.027
227.044
227.062
227.08
227.098
227.117
227.137
227.157
227.177
227.199
227.221
227.243
227.266
227.289
227.313
227.337
227.362
227.387
227.413
227.439
227.464
227.49
227.516
227.542
227.567
227.592
227.617
227.642
227.666
227.69
227.714
227.738
227.762
227.787
227.811
227.836
227.86
227.886
227.911
227.937
227.964
227.991
228.02
228.049
228.078
228.109
228.14
228.172
228.205
228.239
228.273
228.307
228.342
228.377
228.413
228.45
228.487
228.525
228.563
228.602
228.641
228.68
228.72
228.761
228.802
228.843
228.885
228.928
228.971
229.014
229.059
229.104
229.15
229.197
229.244
229.293
229.344
229.395
229.448
229.501
229.556
229.612
229.67
229.729
229.791
229.853
229.918
229.984
230.052
230.123
230.196
230.27
230.368
230.331
227.133
227.751
228.241
228.617
228.892
229.077
229.18
229.198
229.17
229.089
228.947
228.752
228.515
228.243
223.632
223.733
223.834
223.933
224.032
224.13
224.226
224.321
224.414
224.505
224.593
224.678
224.759
224.837
224.911
224.981
225.047
225.111
225.17
225.227
225.28
225.332
225.381
225.43
225.477
225.523
225.568
225.613
225.658
225.702
225.746
225.79
225.834
225.877
225.92
225.962
226.003
226.043
226.082
226.12
226.156
226.191
226.224
226.256
226.286
226.315
226.342
226.368
226.393
226.417
226.44
226.462
226.484
226.505
226.526
226.547
226.567
226.587
226.608
226.629
226.65
226.671
226.692
226.714
226.736
226.757
226.779
226.802
226.824
226.847
226.87
226.893
226.915
226.939
226.962
226.985
227.008
227.031
227.054
227.076
227.099
227.121
227.142
227.164
227.185
227.207
227.227
227.247
227.268
227.288
227.307
227.327
227.346
227.366
227.386
227.406
227.427
227.447
227.469
227.491
227.514
227.538
227.562
227.587
227.613
227.64
227.668
227.696
227.726
227.756
227.786
227.818
227.85
227.883
227.916
227.949
227.983
228.016
228.049
228.083
228.116
228.15
228.183
228.217
228.25
228.284
228.317
228.351
228.385
228.419
228.454
228.489
228.525
228.561
228.599
228.637
228.677
228.717
228.759
228.802
228.847
228.893
228.94
228.988
229.038
229.089
229.142
229.196
229.251
229.307
229.365
229.424
229.485
229.547
229.609
229.674
229.739
229.806
229.873
229.943
230.013
230.085
230.158
230.233
230.309
230.387
230.467
230.548
230.631
230.716
230.803
230.892
230.984
231.078
231.174
231.273
231.374
231.479
231.586
231.696
231.809
231.926
232.046
232.169
232.296
232.427
232.562
232.701
232.845
232.991
233.139
233.326
233.262
236.504
236.337
236.123
235.87
235.58
235.264
234.924
234.563
234.186
233.792
233.379
232.953
232.519
225.075
225.128
225.184
225.242
225.301
225.36
225.42
225.478
225.536
225.593
225.647
225.699
225.749
225.797
225.841
225.884
225.924
225.961
225.997
226.031
226.063
226.093
226.123
226.152
226.181
226.209
226.237
226.265
226.292
226.319
226.347
226.373
226.4
226.427
226.453
226.479
226.505
226.53
226.554
226.579
226.603
226.625
226.648
226.671
226.692
226.714
226.735
226.756
226.777
226.798
226.819
226.84
226.861
226.882
226.904
226.926
226.948
226.971
226.994
227.018
227.042
227.067
227.091
227.117
227.142
227.167
227.193
227.22
227.245
227.271
227.298
227.324
227.35
227.377
227.404
227.43
227.456
227.484
227.51
227.536
227.563
227.59
227.616
227.642
227.668
227.694
227.719
227.745
227.772
227.798
227.825
227.852
227.88
227.909
227.938
227.968
227.999
228.03
228.063
228.097
228.131
228.167
228.203
228.241
228.279
228.319
228.359
228.401
228.443
228.486
228.53
228.575
228.62
228.666
228.712
228.759
228.807
228.855
228.904
228.954
229.004
229.054
229.105
229.157
229.21
229.263
229.318
229.373
229.43
229.487
229.547
229.607
229.67
229.734
229.799
229.867
229.937
230.009
230.083
230.159
230.237
230.317
230.4
230.484
230.571
230.661
230.752
230.846
230.942
231.041
231.142
231.245
231.35
231.458
231.568
231.68
231.795
231.912
232.032
232.155
232.28
232.408
232.539
232.673
232.81
232.951
233.094
233.241
233.392
233.546
233.704
233.866
234.032
234.203
234.377
234.556
234.74
234.928
235.122
235.32
235.524
235.732
235.947
236.167
236.393
236.625
236.865
237.109
237.36
237.611
237.861
238.149
238.022
239.924
239.515
239.123
238.632
238.133
237.645
237.143
236.629
236.11
235.585
235.058
234.532
234.008
225.764
225.801
225.84
225.88
225.92
225.961
226.002
226.044
226.084
226.125
226.165
226.203
226.241
226.278
226.313
226.347
226.38
226.412
226.442
226.472
226.501
226.531
226.559
226.587
226.616
226.644
226.671
226.699
226.727
226.753
226.78
226.808
226.832
226.858
226.886
226.909
226.934
226.961
226.985
227.008
227.033
227.058
227.081
227.105
227.13
227.155
227.18
227.205
227.231
227.257
227.283
227.31
227.338
227.366
227.394
227.424
227.454
227.483
227.514
227.544
227.574
227.606
227.637
227.667
227.7
227.733
227.764
227.797
227.831
227.863
227.896
227.93
227.964
227.997
228.032
228.067
228.101
228.135
228.171
228.206
228.242
228.278
228.315
228.352
228.39
228.429
228.469
228.51
228.551
228.594
228.638
228.683
228.729
228.777
228.826
228.877
228.928
228.982
229.036
229.092
229.15
229.209
229.269
229.33
229.393
229.457
229.523
229.59
229.657
229.726
229.797
229.868
229.941
230.015
230.09
230.167
230.245
230.324
230.405
230.487
230.571
230.657
230.745
230.835
230.927
231.022
231.118
231.218
231.32
231.425
231.532
231.643
231.756
231.873
231.993
232.116
232.242
232.372
232.505
232.641
232.78
232.923
233.07
233.22
233.373
233.53
233.691
233.855
234.023
234.195
234.37
234.549
234.732
234.919
235.11
235.306
235.505
235.709
235.918
236.131
236.348
236.571
236.798
237.031
237.269
237.512
237.761
238.016
238.276
238.542
238.815
239.093
239.379
239.67
239.968
240.274
240.586
240.905
241.231
241.565
241.907
242.256
242.614
242.979
243.353
243.731
244.115
244.489
244.853
245.207
244.953
240.833
240.319
239.789
239.252
238.719
238.183
237.642
237.099
236.554
236.011
235.469
234.931
226.15
226.184
226.219
226.256
226.293
226.331
226.371
226.41
226.45
226.49
226.53
226.57
226.609
226.648
226.686
226.723
226.76
226.796
226.831
226.865
226.899
226.933
226.965
226.997
227.03
227.061
227.091
227.124
227.155
227.183
227.215
227.245
227.273
227.304
227.334
227.361
227.389
227.42
227.448
227.475
227.508
227.538
227.566
227.598
227.63
227.661
227.693
227.726
227.761
227.795
227.83
227.866
227.902
227.939
227.977
228.015
228.054
228.093
228.133
228.174
228.214
228.256
228.299
228.341
228.384
228.428
228.472
228.518
228.563
228.609
228.656
228.703
228.751
228.8
228.849
228.9
228.95
229.002
229.055
229.109
229.164
229.22
229.277
229.336
229.397
229.459
229.522
229.587
229.654
229.723
229.794
229.866
229.941
230.017
230.096
230.176
230.259
230.343
230.43
230.518
230.609
230.702
230.796
230.893
230.991
231.092
231.195
231.299
231.406
231.515
231.625
231.738
231.854
231.971
232.091
232.213
232.338
232.466
232.597
232.73
232.867
233.007
233.151
233.298
233.449
233.604
233.762
233.925
234.091
234.262
234.438
234.617
234.801
234.989
235.182
235.379
235.581
235.788
235.999
236.215
236.436
236.662
236.892
237.128
237.369
237.614
237.865
238.121
238.382
238.648
238.92
239.197
239.48
239.769
240.063
240.364
240.67
240.982
241.301
241.626
241.958
242.297
242.642
242.994
243.353
243.719
244.093
244.474
244.863
245.259
245.663
246.075
246.495
246.923
247.36
247.804
248.256
248.717
249.187
249.665
250.151
250.647
251.151
251.663
252.181
252.697
253.209
253.688
254.148
254.453
253.985
241.779
241.234
240.683
240.128
239.569
239.006
238.44
237.873
237.308
236.745
226.567
226.601
226.637
226.674
226.713
226.752
226.794
226.835
226.878
226.922
226.966
227.01
227.054
227.099
227.143
227.185
227.229
227.271
227.311
227.351
227.39
227.43
227.467
227.503
227.542
227.578
227.613
227.651
227.687
227.721
227.759
227.796
227.83
227.868
227.905
227.941
227.979
228.018
228.056
228.095
228.136
228.178
228.219
228.261
228.305
228.35
228.395
228.441
228.488
228.536
228.585
228.635
228.686
228.738
228.791
228.845
228.9
228.955
229.012
229.07
229.129
229.189
229.249
229.311
229.374
229.438
229.503
229.569
229.636
229.705
229.774
229.845
229.918
229.991
230.066
230.143
230.221
230.302
230.384
230.468
230.554
230.642
230.732
230.825
230.92
231.018
231.118
231.221
231.326
231.435
231.545
231.659
231.775
231.894
232.016
232.141
232.269
232.399
232.533
232.669
232.808
232.95
233.095
233.243
233.394
233.548
233.705
233.866
234.029
234.196
234.367
234.54
234.718
234.899
235.084
235.273
235.466
235.664
235.866
236.073
236.284
236.501
236.722
236.949
237.181
237.418
237.661
237.909
238.163
238.422
238.688
238.958
239.235
239.517
239.806
240.1
240.4
240.706
241.018
241.336
241.661
241.991
242.328
242.671
243.02
243.376
243.739
244.107
244.483
244.865
245.254
245.65
246.053
246.463
246.88
247.304
247.736
248.175
248.621
249.075
249.537
250.007
250.484
250.969
251.462
251.964
252.473
252.99
253.515
254.049
254.59
255.14
255.697
256.262
256.836
257.416
258.005
258.601
259.205
259.817
260.438
261.066
261.7
262.338
262.973
263.591
264.181
264.705
265.21
265.283
264.521
241.985
241.411
240.837
240.261
239.684
239.106
238.529
237.955
237.383
227.113
227.151
227.192
227.233
227.276
227.322
227.368
227.415
227.465
227.516
227.566
227.618
227.671
227.721
227.772
227.826
227.875
227.924
227.974
228.023
228.071
228.117
228.164
228.211
228.257
228.304
228.351
228.398
228.445
228.493
228.542
228.591
228.641
228.692
228.744
228.797
228.851
228.906
228.962
229.02
229.079
229.138
229.2
229.262
229.326
229.391
229.458
229.526
229.595
229.666
229.738
229.812
229.887
229.964
230.042
230.122
230.203
230.286
230.37
230.456
230.544
230.634
230.725
230.817
230.912
231.009
231.107
231.207
231.31
231.414
231.521
231.63
231.741
231.855
231.972
232.091
232.214
232.339
232.467
232.598
232.733
232.871
233.012
233.157
233.305
233.457
233.613
233.772
233.934
234.101
234.271
234.445
234.623
234.805
234.99
235.179
235.373
235.57
235.771
235.976
236.186
236.399
236.617
236.839
237.065
237.296
237.531
237.771
238.016
238.266
238.52
238.78
239.045
239.316
239.592
239.874
240.162
240.456
240.756
241.062
241.375
241.694
242.019
242.351
242.69
243.035
243.387
243.746
244.111
244.484
244.862
245.248
245.641
246.04
246.446
246.859
247.279
247.706
248.14
248.581
249.028
249.483
249.945
250.414
250.89
251.373
251.863
252.361
252.865
253.377
253.896
254.423
254.957
255.498
256.046
256.602
257.165
257.736
258.314
258.899
259.491
260.091
260.698
261.311
261.932
262.56
263.194
263.835
264.482
265.135
265.795
266.46
267.131
267.808
268.49
269.178
269.871
270.569
271.273
271.983
272.697
273.41
274.115
274.799
275.441
276.021
276.495
276.859
276.717
275.521
242.693
242.11
227.763
227.808
227.856
227.904
227.955
228.011
228.065
228.123
228.184
228.244
228.304
228.369
228.433
228.495
228.561
228.626
228.69
228.753
228.817
228.88
228.942
229.005
229.067
229.13
229.193
229.256
229.32
229.385
229.451
229.518
229.587
229.657
229.728
229.801
229.875
229.951
230.029
230.108
230.189
230.272
230.356
230.443
230.531
230.621
230.714
230.808
230.904
231.002
231.102
231.204
231.309
231.415
231.524
231.635
231.748
231.864
231.981
232.102
232.224
232.349
232.477
232.607
232.74
232.875
233.013
233.154
233.298
233.445
233.595
233.748
233.905
234.065
234.229
234.396
234.568
234.743
234.922
235.106
235.294
235.486
235.682
235.883
236.088
236.298
236.513
236.732
236.956
237.184
237.418
237.656
237.899
238.146
238.399
238.656
238.919
239.186
239.458
239.736
240.018
240.306
240.599
240.898
241.202
241.512
241.827
242.148
242.475
242.808
243.147
243.492
243.844
244.202
244.566
244.937
245.315
245.7
246.091
246.49
246.896
247.309
247.729
248.156
248.59
249.032
249.481
249.937
250.4
250.87
251.347
251.832
252.323
252.821
253.327
253.839
254.358
254.884
255.416
255.956
256.502
257.055
257.615
258.181
258.753
259.333
259.918
260.51
261.109
261.714
262.325
262.942
263.565
264.194
264.829
265.47
266.117
266.769
267.426
268.089
268.758
269.431
270.109
270.792
271.479
272.17
272.866
273.565
274.267
274.973
275.681
276.392
277.105
277.82
278.536
279.254
279.972
280.691
281.411
282.132
282.854
283.575
284.291
284.992
285.665
286.288
286.837
287.285
287.603
287.638
287.267
285.638
228.627
228.684
228.743
228.805
228.87
228.939
229.008
229.081
229.157
229.233
229.311
229.392
229.474
229.556
229.639
229.723
229.807
229.891
229.975
230.059
230.144
230.229
230.314
230.4
230.488
230.576
230.666
230.758
230.851
230.946
231.043
231.142
231.243
231.347
231.453
231.561
231.671
231.784
231.899
232.017
232.137
232.26
232.385
232.513
232.644
232.778
232.914
233.053
233.195
233.34
233.488
233.639
233.793
233.95
234.111
234.274
234.441
234.611
234.784
234.961
235.142
235.326
235.513
235.705
235.9
236.099
236.303
236.51
236.722
236.939
237.16
237.386
237.616
237.852
238.092
238.338
238.589
238.845
239.107
239.374
239.646
239.924
240.207
240.496
240.791
241.091
241.397
241.708
242.025
242.348
242.676
243.01
243.35
243.696
244.047
244.405
244.768
245.138
245.513
245.895
246.283
246.677
247.078
247.486
247.899
248.32
248.747
249.181
249.621
250.069
250.523
250.984
251.452
251.928
252.41
252.899
253.395
253.899
254.41
254.927
255.452
255.984
256.522
257.067
257.619
258.178
258.743
259.314
259.892
260.476
261.065
261.661
262.263
262.87
263.482
264.1
264.724
265.352
265.985
266.624
267.267
267.915
268.567
269.224
269.885
270.55
271.219
271.892
272.569
273.249
273.932
274.618
275.308
276
276.694
277.391
278.089
278.789
279.49
280.192
280.895
281.597
282.3
283.001
283.701
284.4
285.096
285.789
286.479
287.165
287.847
288.523
289.194
289.86
290.519
291.173
291.821
292.464
293.099
293.724
294.33
294.903
295.423
295.865
296.206
296.421
296.431
296.21
295.51
293.572
229.788
229.863
229.941
230.022
230.107
230.195
230.286
230.38
230.477
230.577
230.678
230.783