/*--------------------------------*- C++ -*----------------------------------*\
| =========                 |                                                 |
| \\      /  F ield         | OpenFOAM: The Open Source CFD Toolbox           |
|  \\    /   O peration     | Version:  v1706                                 |
|   \\  /    A nd           | Web:      www.OpenFOAM.com                      |
|    \\/     M anipulation  |                                                 |
\*---------------------------------------------------------------------------*/
FoamFile
{
    version     2.0;
    format      ascii;
    class       volScalarField;
    location    "1.5e-05";
    object      wallHeatFlux;
}
// * * * * * * * * * * * * * * * * * * * * * * * * * * * * * * * * * * * * * //

dimensions      [1 0 -3 0 0 0 0];


internalField   uniform 0;

boundaryField
{
    cone
    {
        type            calculated;
        value           nonuniform List<scalar> 
119
(
-1666.24
-1701.87
-1733.16
-1760.58
-1784.56
-1805.5
-1823.75
-1839.62
-1853.39
-1865.32
-1875.63
-1884.52
-1892.16
-1898.72
-1904.33
-1909.12
-1913.2
-1916.66
-1919.58
-1922.04
-1924.1
-1925.82
-1927.25
-1928.43
-1929.4
-1930.18
-1930.81
-1931.31
-1931.7
-1932
-1932.21
-1932.36
-1932.45
-1932.5
-1932.51
-1932.48
-1932.43
-1932.35
-1932.26
-1932.14
-1932.02
-1931.89
-1931.75
-1931.6
-1931.44
-1931.28
-1931.12
-1930.95
-1930.78
-1930.61
-1930.43
-1930.26
-1930.09
-1929.91
-1929.74
-1929.56
-1929.38
-1929.21
-1929.03
-1928.86
-1928.68
-1928.51
-1928.33
-1928.16
-1927.99
-1927.81
-1927.64
-1927.47
-1927.3
-1927.13
-1926.96
-1926.79
-1926.62
-1926.45
-1926.28
-1926.11
-1925.94
-1925.78
-1925.61
-1925.45
-1925.28
-1925.12
-1924.95
-1924.79
-1924.63
-1924.47
-1924.32
-1924.17
-1924.03
-1923.91
-1923.8
-1923.71
-1923.66
-1923.64
-1923.67
-1923.76
-1923.9
-1924.09
-1924.33
-1924.59
-1924.86
-1925.12
-1925.36
-1925.56
-1925.73
-1925.91
-1926.17
-1926.61
-1927.43
-1928.88
-1931.36
-1935.43
-1941.91
-1952.03
-1967.51
-1991.45
-2029.59
-2091.37
-2183.19
)
;
    }
    inlet
    {
        type            calculated;
        value           uniform 0;
    }
    rWedge
    {
        type            wedge;
    }
    lWedge
    {
        type            wedge;
    }
    outlet
    {
        type            calculated;
        value           uniform 0;
    }
    procBoundary0to1
    {
        type            processor;
        value           uniform 0;
    }
    procBoundary0to2
    {
        type            processor;
        value           uniform 0;
    }
}


// ************************************************************************* //
