/*--------------------------------*- C++ -*----------------------------------*\
| =========                 |                                                 |
| \\      /  F ield         | OpenFOAM: The Open Source CFD Toolbox           |
|  \\    /   O peration     | Version:  v1706                                 |
|   \\  /    A nd           | Web:      www.OpenFOAM.com                      |
|    \\/     M anipulation  |                                                 |
\*---------------------------------------------------------------------------*/
FoamFile
{
    version     2.0;
    format      ascii;
    class       volScalarField;
    location    "1.1e-05";
    object      kappatr;
}
// * * * * * * * * * * * * * * * * * * * * * * * * * * * * * * * * * * * * * //

dimensions      [1 1 -3 -1 0 0 0];


internalField   nonuniform List<scalar> 
29871
(
0.0146012
0.0146008
0.0146005
0.0146003
0.0146
0.0145997
0.0145995
0.0145993
0.0145991
0.0145989
0.0145988
0.0145987
0.0145985
0.0145984
0.0145984
0.0145983
0.0145982
0.0145982
0.0145982
0.0145982
0.0145982
0.0145982
0.0145982
0.0145982
0.0145982
0.0145983
0.0145983
0.0145983
0.0145984
0.0145984
0.0145985
0.0145986
0.0145986
0.0145987
0.0145987
0.0145988
0.0145989
0.0145989
0.014599
0.0145991
0.0145991
0.0145992
0.0145993
0.0145993
0.0145994
0.0145995
0.0145996
0.0145996
0.0145997
0.0145998
0.0145999
0.0145999
0.0146
0.0146001
0.0146002
0.0146002
0.0146003
0.0146004
0.0146005
0.0146005
0.0146006
0.0146007
0.0146007
0.0146008
0.0146009
0.0146009
0.014601
0.0146011
0.0146011
0.0146012
0.0146012
0.0146013
0.0146014
0.0146014
0.0146015
0.0146015
0.0146016
0.0146016
0.0146017
0.0146018
0.0146018
0.0146019
0.0146019
0.014602
0.014602
0.0146021
0.0146022
0.0146022
0.0146023
0.0146024
0.0146024
0.0146025
0.0146025
0.0146026
0.0146027
0.0146027
0.0146028
0.0146029
0.014603
0.014603
0.0146031
0.0146032
0.0146032
0.0146033
0.0146034
0.0146402
0.0146384
0.0146367
0.0146351
0.0146337
0.0146323
0.014631
0.0146298
0.0146287
0.0146278
0.0146269
0.0146261
0.0146255
0.0146249
0.0146245
0.0146241
0.0146238
0.0146236
0.0146234
0.0146234
0.0146234
0.0146234
0.0146235
0.0146237
0.0146239
0.0146241
0.0146244
0.0146246
0.014625
0.0146253
0.0146257
0.014626
0.0146264
0.0146268
0.0146272
0.0146276
0.0146281
0.0146285
0.0146289
0.0146294
0.0146298
0.0146303
0.0146307
0.0146312
0.0146316
0.0146321
0.0146326
0.0146331
0.0146335
0.014634
0.0146345
0.014635
0.0146355
0.014636
0.0146365
0.014637
0.0146375
0.014638
0.0146385
0.014639
0.0146394
0.0146399
0.0146404
0.0146408
0.0146413
0.0146418
0.0146422
0.0146427
0.0146431
0.0146435
0.014644
0.0146444
0.0146448
0.0146453
0.0146457
0.0146461
0.0146466
0.014647
0.0146474
0.0146479
0.0146483
0.0146488
0.0146493
0.0146497
0.0146502
0.0146507
0.0146511
0.0146516
0.0146521
0.0146526
0.0146531
0.0146536
0.0146541
0.0146547
0.0146552
0.0146557
0.0146563
0.0146568
0.0146574
0.0146579
0.0146585
0.014659
0.0146596
0.0146602
0.0146608
0.0147392
0.0147338
0.0147286
0.0147237
0.0147191
0.0147148
0.0147109
0.0147072
0.0147038
0.0147007
0.014698
0.0146955
0.0146934
0.0146915
0.01469
0.0146887
0.0146877
0.0146869
0.0146864
0.0146861
0.0146861
0.0146862
0.0146864
0.0146868
0.0146874
0.0146881
0.0146889
0.0146898
0.0146908
0.0146919
0.0146931
0.0146943
0.0146955
0.0146968
0.0146981
0.0146994
0.0147008
0.0147022
0.0147036
0.0147051
0.0147066
0.014708
0.0147096
0.0147111
0.0147126
0.0147142
0.0147158
0.0147174
0.0147191
0.0147208
0.0147224
0.0147242
0.0147259
0.0147276
0.0147294
0.0147311
0.0147329
0.0147347
0.0147364
0.0147382
0.0147399
0.0147417
0.0147434
0.0147452
0.0147469
0.0147486
0.0147502
0.0147519
0.0147535
0.0147552
0.0147568
0.0147584
0.01476
0.0147616
0.0147632
0.0147648
0.0147665
0.0147681
0.0147697
0.0147713
0.014773
0.0147747
0.0147764
0.0147781
0.0147798
0.0147815
0.0147833
0.014785
0.0147869
0.0147887
0.0147905
0.0147924
0.0147943
0.0147962
0.0147981
0.0148001
0.0148021
0.0148041
0.0148061
0.0148082
0.0148102
0.0148124
0.0148145
0.0148166
0.0148188
0.014821
0.0149565
0.0149437
0.0149316
0.01492
0.0149092
0.014899
0.0148896
0.0148809
0.0148729
0.0148657
0.0148593
0.0148536
0.0148487
0.0148445
0.0148411
0.0148383
0.0148363
0.0148348
0.014834
0.0148338
0.014834
0.0148346
0.0148357
0.0148372
0.014839
0.0148412
0.0148437
0.0148464
0.0148493
0.0148524
0.0148556
0.014859
0.0148626
0.0148662
0.0148699
0.0148737
0.0148775
0.0148814
0.0148854
0.0148894
0.0148935
0.0148976
0.0149018
0.0149061
0.0149105
0.0149149
0.0149193
0.0149239
0.0149285
0.0149332
0.014938
0.0149428
0.0149477
0.0149526
0.0149576
0.0149626
0.0149676
0.0149727
0.0149778
0.0149829
0.014988
0.0149931
0.0149982
0.0150033
0.0150083
0.0150133
0.0150183
0.0150233
0.0150282
0.0150332
0.0150381
0.0150429
0.0150478
0.0150527
0.0150576
0.0150625
0.0150674
0.0150723
0.0150773
0.0150823
0.0150874
0.0150925
0.0150977
0.0151029
0.0151082
0.0151136
0.015119
0.0151246
0.0151302
0.0151358
0.0151416
0.0151474
0.0151533
0.0151593
0.0151654
0.0151716
0.0151778
0.0151841
0.0151906
0.0151971
0.0152037
0.0152104
0.0152172
0.015224
0.015231
0.015238
0.0154284
0.015401
0.0153748
0.0153499
0.0153263
0.0153041
0.0152834
0.0152643
0.0152467
0.0152307
0.0152164
0.0152037
0.0151926
0.0151831
0.0151752
0.0151689
0.0151642
0.0151609
0.015159
0.0151586
0.0151591
0.0151606
0.0151632
0.0151668
0.0151713
0.0151765
0.0151824
0.015189
0.015196
0.0152035
0.0152114
0.0152195
0.015228
0.0152367
0.0152455
0.0152546
0.0152638
0.0152731
0.0152826
0.0152922
0.015302
0.0153119
0.0153219
0.0153321
0.0153425
0.0153531
0.0153638
0.0153748
0.015386
0.0153973
0.0154089
0.0154206
0.0154326
0.0154447
0.0154571
0.0154695
0.0154822
0.0154949
0.0155078
0.0155208
0.0155338
0.0155469
0.01556
0.0155731
0.0155862
0.0155993
0.0156123
0.0156253
0.0156382
0.0156511
0.0156639
0.0156766
0.0156894
0.015702
0.0157146
0.0157273
0.0157399
0.0157525
0.0157652
0.0157779
0.0157907
0.0158036
0.0158166
0.0158296
0.0158428
0.0158562
0.0158696
0.0158832
0.015897
0.0159109
0.0159249
0.0159392
0.0159536
0.0159681
0.0159829
0.0159978
0.0160129
0.0160282
0.0160437
0.0160594
0.0160753
0.0160914
0.0161077
0.0161242
0.0161409
0.0161578
0.016175
0.0162544
0.0162075
0.0161625
0.0161194
0.0160786
0.0160401
0.0160042
0.015971
0.0159407
0.0159133
0.0158889
0.0158676
0.0158495
0.0158345
0.0158225
0.0158136
0.0158076
0.0158044
0.0158043
0.0158058
0.0158095
0.0158156
0.0158237
0.0158335
0.0158449
0.0158578
0.0158718
0.0158869
0.015903
0.0159197
0.0159371
0.015955
0.0159733
0.015992
0.0160109
0.0160301
0.0160495
0.0160691
0.0160889
0.0161089
0.0161291
0.0161495
0.0161701
0.0161911
0.0162123
0.0162338
0.0162556
0.0162778
0.0163003
0.0163232
0.0163464
0.01637
0.016394
0.0164183
0.0164429
0.0164678
0.016493
0.0165184
0.016544
0.0165698
0.0165957
0.0166217
0.0166478
0.0166739
0.0166999
0.0167259
0.0167519
0.0167777
0.0168035
0.0168291
0.0168546
0.01688
0.0169052
0.0169304
0.0169554
0.0169804
0.0170053
0.0170301
0.0170549
0.0170797
0.0171046
0.0171296
0.0171546
0.0171798
0.0172051
0.0172306
0.0172563
0.0172822
0.0173082
0.0173345
0.0173611
0.0173878
0.0174148
0.0174421
0.0174697
0.0174975
0.0175255
0.0175539
0.0175826
0.0176115
0.0176408
0.0176704
0.0177002
0.0177304
0.0177609
0.0177917
0.0178228
0.0176477
0.0175817
0.017517
0.017454
0.0173931
0.0173344
0.0172783
0.0172251
0.0171751
0.0171286
0.0170857
0.0170467
0.0170119
0.0169815
0.0169555
0.0169341
0.0169174
0.0169052
0.0168975
0.0168952
0.0168966
0.0169012
0.0169093
0.0169213
0.0169365
0.0169544
0.0169749
0.0169975
0.0170221
0.0170484
0.0170759
0.0171046
0.0171341
0.0171643
0.0171949
0.0172258
0.0172568
0.017288
0.0173191
0.0173503
0.0173815
0.0174127
0.0174439
0.0174752
0.0175066
0.0175382
0.0175699
0.017602
0.0176344
0.0176671
0.0177001
0.0177336
0.0177674
0.0178017
0.0178364
0.0178715
0.017907
0.0179429
0.0179791
0.0180157
0.0180526
0.0180898
0.0181272
0.0181647
0.0182024
0.0182401
0.0182778
0.0183155
0.0183531
0.0183905
0.0184277
0.0184646
0.0185013
0.0185376
0.0185737
0.0186094
0.0186448
0.0186799
0.0187145
0.0187487
0.0187823
0.0188155
0.0188483
0.0188806
0.0189126
0.0189442
0.0189755
0.0190064
0.019037
0.0190673
0.0190972
0.0191268
0.0191561
0.0191849
0.0192134
0.0192416
0.0192693
0.0192967
0.0193236
0.0193501
0.0193763
0.0194019
0.0194272
0.019452
0.0194764
0.0195003
0.0195238
0.0195469
0.0195695
0.0195916
0.0189107
0.0188547
0.0187989
0.0187437
0.0186896
0.018637
0.0185867
0.0185391
0.0184948
0.0184542
0.0184176
0.0183855
0.0183582
0.0183359
0.0183187
0.0183067
0.0183001
0.0182995
0.0183025
0.0183101
0.0183214
0.0183379
0.0183578
0.0183809
0.018407
0.0184355
0.0184661
0.0184984
0.0185319
0.0185664
0.0186015
0.0186371
0.0186729
0.0187088
0.0187447
0.0187803
0.0188155
0.0188503
0.0188845
0.0189183
0.0189515
0.0189843
0.0190167
0.0190486
0.0190802
0.0191115
0.0191424
0.0191731
0.0192035
0.0192337
0.0192636
0.0192933
0.0193227
0.0193519
0.0193807
0.0194093
0.0194376
0.0194656
0.0194931
0.0195203
0.019547
0.0195733
0.019599
0.0196242
0.0196488
0.0196728
0.0196962
0.0197189
0.0197409
0.0197622
0.0197829
0.0198028
0.0198221
0.0198406
0.0198584
0.0198755
0.0198919
0.0199077
0.0199228
0.0199374
0.0199514
0.0199649
0.0199779
0.0199905
0.0200026
0.0200144
0.0200257
0.0200367
0.0200474
0.0200578
0.020068
0.0200778
0.0200875
0.0200969
0.0201061
0.0201151
0.0201239
0.0201326
0.0201411
0.0201494
0.0201576
0.0201656
0.0201735
0.0201812
0.0201888
0.0201963
0.0202037
0.0202109
0.020218
0.020225
0.0196018
0.0195785
0.0195567
0.0195364
0.0195177
0.0195007
0.0194854
0.0194719
0.0194606
0.0194516
0.0194449
0.0194406
0.0194398
0.0194416
0.019447
0.0194559
0.0194685
0.019483
0.0195003
0.0195222
0.0195449
0.0195692
0.0195948
0.0196213
0.0196484
0.0196756
0.0197026
0.0197289
0.0197545
0.019779
0.0198026
0.019825
0.0198462
0.0198663
0.019885
0.0199026
0.019919
0.0199344
0.0199488
0.0199621
0.0199746
0.0199864
0.0199974
0.0200078
0.0200177
0.0200272
0.0200363
0.0200451
0.0200536
0.020062
0.0200702
0.0200783
0.0200862
0.0200941
0.0201019
0.0201097
0.0201175
0.0201252
0.020133
0.0201407
0.0201484
0.0201562
0.0201641
0.0201721
0.02018
0.020188
0.020196
0.020204
0.0202119
0.0202199
0.0202277
0.0202355
0.0202431
0.0202506
0.020258
0.0202651
0.020272
0.0202786
0.020285
0.0202912
0.0202971
0.0203028
0.0203082
0.0203135
0.0203185
0.0203233
0.0203279
0.0203324
0.0203368
0.020341
0.0203451
0.0203491
0.020353
0.0203569
0.0203606
0.0203643
0.0203679
0.0203714
0.0203748
0.0203782
0.0203814
0.0203845
0.0203876
0.0203906
0.0203934
0.0203962
0.0203989
0.0204014
0.0204039
0.0204063
0.0198611
0.0198496
0.0198404
0.0198335
0.0198294
0.0198287
0.0198304
0.0198351
0.0198429
0.0198529
0.0198649
0.0198799
0.019898
0.0199175
0.0199384
0.0199614
0.0199852
0.0200082
0.0200323
0.0200576
0.0200821
0.0201057
0.0201288
0.0201507
0.0201706
0.020189
0.020206
0.0202215
0.0202356
0.0202482
0.0202592
0.0202686
0.0202766
0.0202833
0.0202889
0.0202934
0.0202972
0.0203002
0.0203026
0.0203046
0.0203062
0.0203075
0.0203086
0.0203096
0.0203105
0.0203113
0.0203121
0.020313
0.020314
0.020315
0.0203161
0.0203174
0.0203189
0.0203205
0.0203222
0.0203242
0.0203264
0.0203287
0.0203313
0.020334
0.0203369
0.0203401
0.0203434
0.0203468
0.0203505
0.0203542
0.020358
0.0203619
0.0203659
0.0203699
0.0203739
0.0203779
0.0203818
0.0203857
0.0203895
0.0203932
0.0203967
0.0204002
0.0204035
0.0204066
0.0204096
0.0204125
0.0204152
0.0204177
0.0204202
0.0204225
0.0204247
0.0204269
0.0204289
0.0204309
0.0204329
0.0204349
0.0204368
0.0204387
0.0204406
0.0204425
0.0204444
0.0204464
0.0204483
0.0204503
0.0204522
0.0204542
0.0204562
0.0204581
0.0204601
0.0204621
0.0204642
0.0204662
0.0204682
0.0204702
0.0199619
0.0199578
0.019957
0.0199578
0.0199607
0.0199662
0.0199737
0.0199829
0.0199947
0.0200091
0.0200247
0.0200418
0.0200609
0.0200829
0.0201064
0.0201308
0.0201536
0.0201769
0.0202015
0.0202253
0.0202472
0.020269
0.0202891
0.0203068
0.0203234
0.0203386
0.0203521
0.0203643
0.0203749
0.0203843
0.0203925
0.0203995
0.0204054
0.0204102
0.0204141
0.0204172
0.0204196
0.0204213
0.0204225
0.0204231
0.0204231
0.0204229
0.0204223
0.0204214
0.0204202
0.0204188
0.0204173
0.0204158
0.0204143
0.0204128
0.0204115
0.0204103
0.0204093
0.0204084
0.0204078
0.0204074
0.0204073
0.0204074
0.0204078
0.0204084
0.0204092
0.0204103
0.0204118
0.0204136
0.0204156
0.0204177
0.0204201
0.0204228
0.0204257
0.0204286
0.0204318
0.020435
0.0204384
0.0204418
0.0204452
0.0204487
0.0204521
0.0204555
0.0204588
0.0204621
0.0204653
0.0204683
0.0204713
0.0204742
0.020477
0.0204797
0.0204824
0.0204849
0.0204875
0.0204899
0.0204923
0.0204947
0.0204971
0.0204995
0.0205019
0.0205042
0.0205066
0.020509
0.0205114
0.0205138
0.0205163
0.0205188
0.0205213
0.0205238
0.0205264
0.020529
0.0205316
0.0205342
0.0205369
0.0205396
0.0200332
0.0200268
0.0200233
0.0200232
0.0200245
0.0200282
0.0200345
0.0200435
0.020055
0.0200688
0.0200846
0.0201021
0.0201208
0.0201408
0.0201622
0.0201846
0.0202071
0.0202283
0.02025
0.0202732
0.0202934
0.0203127
0.0203327
0.0203504
0.0203661
0.020381
0.0203949
0.0204077
0.0204193
0.0204299
0.0204393
0.0204477
0.0204544
0.0204599
0.0204646
0.0204685
0.0204716
0.0204738
0.0204754
0.0204764
0.0204768
0.0204767
0.0204764
0.0204758
0.0204749
0.0204737
0.0204724
0.020471
0.0204696
0.0204683
0.020467
0.0204659
0.0204649
0.0204641
0.0204635
0.0204631
0.020463
0.0204631
0.0204635
0.0204641
0.0204651
0.0204662
0.0204676
0.0204693
0.0204714
0.0204736
0.020476
0.0204787
0.0204816
0.0204848
0.020488
0.0204915
0.0204951
0.0204988
0.0205026
0.0205065
0.0205104
0.0205144
0.0205183
0.0205223
0.0205262
0.02053
0.0205338
0.0205375
0.0205411
0.0205446
0.020548
0.0205513
0.0205545
0.0205577
0.0205608
0.0205639
0.020567
0.0205701
0.0205731
0.0205762
0.0205793
0.0205824
0.0205856
0.0205887
0.0205919
0.0205952
0.0205985
0.0206018
0.0206052
0.0206087
0.0206122
0.0206158
0.0206194
0.0206231
0.0206269
0.0201008
0.0200954
0.0200923
0.020092
0.0200931
0.0200963
0.0201019
0.0201099
0.02012
0.0201321
0.0201458
0.020161
0.0201771
0.0201944
0.0202127
0.020232
0.0202513
0.0202704
0.0202902
0.0203105
0.0203289
0.020347
0.0203654
0.0203817
0.0203965
0.0204108
0.0204245
0.0204375
0.0204499
0.0204616
0.0204723
0.0204816
0.0204896
0.0204969
0.0205035
0.0205094
0.0205145
0.0205187
0.0205223
0.0205251
0.0205273
0.0205289
0.02053
0.0205307
0.0205311
0.020531
0.0205309
0.0205305
0.02053
0.0205295
0.0205291
0.0205287
0.0205284
0.0205283
0.0205284
0.0205287
0.0205292
0.02053
0.0205309
0.0205321
0.0205335
0.0205352
0.0205371
0.0205393
0.0205418
0.0205445
0.0205474
0.0205506
0.020554
0.0205576
0.0205614
0.0205653
0.0205695
0.0205738
0.0205782
0.0205827
0.0205873
0.020592
0.0205967
0.0206014
0.0206062
0.0206109
0.0206156
0.0206203
0.0206249
0.0206295
0.020634
0.0206385
0.020643
0.0206474
0.0206518
0.0206562
0.0206606
0.020665
0.0206695
0.020674
0.0206785
0.0206831
0.0206877
0.0206925
0.0206973
0.0207021
0.0207071
0.0207121
0.0207173
0.0207225
0.0207278
0.0207333
0.0207388
0.0207444
0.0207502
0.020756
0.020762
0.020177
0.0201723
0.0201701
0.0201703
0.0201718
0.0201751
0.02018
0.0201867
0.020195
0.020205
0.0202163
0.0202289
0.0202424
0.0202568
0.0202721
0.0202882
0.0203045
0.0203212
0.0203385
0.0203562
0.0203725
0.020389
0.0204059
0.020421
0.020435
0.0204489
0.0204627
0.0204764
0.0204898
0.0205028
0.0205149
0.0205257
0.0205355
0.0205449
0.0205538
0.020562
0.0205694
0.0205761
0.0205819
0.0205869
0.0205911
0.0205945
0.0205973
0.0205996
0.0206014
0.0206028
0.0206039
0.0206047
0.0206053
0.0206058
0.0206063
0.0206068
0.0206074
0.0206081
0.0206091
0.0206102
0.0206116
0.0206132
0.0206151
0.0206172
0.0206197
0.0206224
0.0206254
0.0206287
0.0206322
0.020636
0.02064
0.0206443
0.0206488
0.0206536
0.0206586
0.0206637
0.0206691
0.0206746
0.0206803
0.0206862
0.0206922
0.0206983
0.0207045
0.0207107
0.020717
0.0207234
0.0207298
0.0207362
0.0207426
0.020749
0.0207554
0.0207618
0.0207682
0.0207746
0.020781
0.0207874
0.0207938
0.0208004
0.0208069
0.0208136
0.0208203
0.0208272
0.0208342
0.0208412
0.0208484
0.0208557
0.0208632
0.0208707
0.0208785
0.0208863
0.0208943
0.0209024
0.0209107
0.0209191
0.0209277
0.0209364
0.0209452
0.020285
0.020277
0.0202707
0.0202661
0.0202636
0.0202635
0.0202645
0.0202671
0.0202712
0.0202768
0.0202837
0.0202919
0.0203012
0.0203114
0.0203225
0.0203344
0.0203469
0.02036
0.0203735
0.0203876
0.0204025
0.0204174
0.0204318
0.0204468
0.0204626
0.0204768
0.0204902
0.0205039
0.020518
0.0205323
0.0205469
0.0205613
0.0205749
0.0205872
0.020599
0.0206105
0.0206216
0.0206321
0.0206419
0.020651
0.0206592
0.0206666
0.0206732
0.020679
0.0206841
0.0206886
0.0206925
0.0206959
0.0206988
0.0207014
0.0207038
0.020706
0.020708
0.0207101
0.0207123
0.0207145
0.020717
0.0207197
0.0207226
0.0207258
0.0207293
0.0207332
0.0207373
0.0207417
0.0207464
0.0207514
0.0207566
0.0207621
0.0207679
0.020774
0.0207803
0.0207869
0.0207936
0.0208007
0.0208079
0.0208154
0.0208231
0.020831
0.020839
0.0208472
0.0208555
0.020864
0.0208726
0.0208813
0.02089
0.0208988
0.0209077
0.0209166
0.0209255
0.0209345
0.0209435
0.0209526
0.0209617
0.0209709
0.0209801
0.0209895
0.0209989
0.0210085
0.0210183
0.0210281
0.0210382
0.0210483
0.0210587
0.0210692
0.0210799
0.0210908
0.0211018
0.021113
0.0211244
0.021136
0.0211477
0.0211597
0.0211718
0.0211841
0.0211966
0.0204024
0.0203944
0.020388
0.0203831
0.0203799
0.0203786
0.0203789
0.0203801
0.0203827
0.0203866
0.0203916
0.0203976
0.0204046
0.0204124
0.0204209
0.0204301
0.0204399
0.0204504
0.0204614
0.0204732
0.0204857
0.0204985
0.0205115
0.0205252
0.0205401
0.0205538
0.0205671
0.020581
0.0205957
0.0206112
0.0206271
0.0206432
0.0206585
0.0206729
0.0206871
0.0207013
0.0207152
0.0207287
0.0207415
0.0207537
0.020765
0.0207755
0.0207852
0.020794
0.020802
0.0208093
0.020816
0.020822
0.0208275
0.0208325
0.0208373
0.0208417
0.020846
0.0208503
0.0208546
0.0208591
0.0208637
0.0208685
0.0208736
0.020879
0.0208848
0.0208908
0.0208972
0.0209039
0.0209109
0.0209181
0.0209257
0.0209336
0.0209418
0.0209502
0.0209589
0.0209679
0.0209772
0.0209867
0.0209964
0.0210065
0.0210167
0.0210272
0.021038
0.0210489
0.02106
0.0210714
0.0210828
0.0210944
0.0211062
0.021118
0.02113
0.021142
0.0211542
0.0211664
0.0211787
0.0211911
0.0212035
0.0212161
0.0212289
0.0212417
0.0212547
0.0212679
0.0212813
0.0212948
0.0213085
0.0213225
0.0213366
0.0213509
0.0213655
0.0213802
0.0213952
0.0214103
0.0214257
0.0214413
0.0214571
0.0214731
0.0214894
0.0215058
0.0215225
0.0215394
0.0206409
0.0206239
0.0206081
0.0205936
0.0205804
0.0205684
0.0205578
0.0205484
0.0205404
0.0205337
0.0205283
0.0205243
0.0205217
0.0205205
0.0205206
0.0205215
0.0205234
0.0205264
0.0205302
0.0205349
0.0205404
0.0205466
0.0205534
0.020561
0.0205692
0.0205782
0.0205881
0.0205987
0.02061
0.020622
0.0206349
0.0206492
0.0206628
0.0206763
0.0206908
0.0207066
0.0207234
0.0207411
0.0207591
0.0207765
0.0207935
0.0208106
0.0208279
0.0208452
0.0208621
0.0208785
0.0208942
0.0209092
0.0209234
0.0209367
0.020949
0.0209606
0.0209712
0.0209811
0.0209903
0.0209989
0.0210069
0.0210145
0.0210218
0.0210289
0.0210359
0.0210429
0.02105
0.0210574
0.0210649
0.0210728
0.0210809
0.0210894
0.0210982
0.0211074
0.0211169
0.0211267
0.0211368
0.0211473
0.021158
0.021169
0.0211804
0.021192
0.021204
0.0212162
0.0212288
0.0212416
0.0212547
0.0212681
0.0212818
0.0212957
0.0213099
0.0213244
0.021339
0.0213539
0.021369
0.0213842
0.0213997
0.0214152
0.0214309
0.0214467
0.0214627
0.0214787
0.0214949
0.0215112
0.0215277
0.0215443
0.0215611
0.0215781
0.0215953
0.0216126
0.0216302
0.021648
0.021666
0.0216843
0.0217027
0.0217214
0.0217403
0.0217595
0.0217789
0.0217985
0.0218184
0.0218384
0.0218588
0.0218793
0.0219001
0.0219211
0.0219423
0.0208138
0.0207981
0.0207834
0.0207699
0.0207574
0.020746
0.0207358
0.0207266
0.0207186
0.0207116
0.0207057
0.020701
0.0206973
0.0206947
0.0206932
0.0206928
0.0206931
0.0206942
0.0206961
0.0206988
0.0207023
0.0207065
0.0207114
0.0207171
0.0207237
0.0207311
0.0207396
0.020749
0.0207593
0.0207707
0.0207832
0.0207975
0.0208113
0.0208254
0.0208411
0.0208584
0.0208771
0.020897
0.0209172
0.0209371
0.0209571
0.0209776
0.0209985
0.0210195
0.0210403
0.0210607
0.0210804
0.0210995
0.0211177
0.0211349
0.0211512
0.0211666
0.021181
0.0211945
0.0212072
0.0212192
0.0212306
0.0212415
0.021252
0.0212623
0.0212725
0.0212826
0.0212929
0.0213034
0.0213141
0.0213251
0.0213364
0.0213481
0.0213601
0.0213724
0.0213851
0.0213981
0.0214115
0.0214252
0.0214392
0.0214535
0.0214681
0.021483
0.0214983
0.0215139
0.0215297
0.021546
0.0215625
0.0215794
0.0215966
0.021614
0.0216318
0.0216499
0.0216682
0.0216868
0.0217056
0.0217246
0.0217438
0.0217632
0.0217828
0.0218025
0.0218223
0.0218423
0.0218624
0.0218827
0.0219031
0.0219237
0.0219445
0.0219655
0.0219867
0.022008
0.0220296
0.0220515
0.0220735
0.0220958
0.0221182
0.022141
0.0221639
0.0221871
0.0222105
0.0222341
0.0222579
0.022282
0.0223063
0.0223308
0.0223556
0.0223805
0.0224057
0.0210206
0.0210064
0.0209931
0.0209806
0.0209689
0.0209583
0.0209485
0.0209396
0.0209316
0.0209246
0.0209183
0.020913
0.0209085
0.0209049
0.0209022
0.0209004
0.0208993
0.0208992
0.0208996
0.0209007
0.0209026
0.0209053
0.0209088
0.0209132
0.0209186
0.0209251
0.0209326
0.0209414
0.0209514
0.0209627
0.0209754
0.0209901
0.0210046
0.0210201
0.0210375
0.0210569
0.021078
0.0211005
0.0211232
0.0211461
0.0211696
0.0211939
0.0212187
0.0212437
0.0212687
0.0212932
0.0213172
0.0213404
0.0213628
0.0213842
0.0214046
0.0214239
0.0214422
0.0214595
0.0214759
0.0214915
0.0215064
0.0215208
0.0215348
0.0215484
0.021562
0.0215756
0.0215892
0.0216031
0.0216171
0.0216315
0.0216462
0.0216612
0.0216766
0.0216923
0.0217084
0.0217248
0.0217415
0.0217585
0.0217759
0.0217935
0.0218115
0.0218299
0.0218485
0.0218675
0.0218868
0.0219065
0.0219265
0.0219469
0.0219676
0.0219886
0.02201
0.0220316
0.0220536
0.0220758
0.0220982
0.0221209
0.0221437
0.0221668
0.02219
0.0222133
0.0222368
0.0222604
0.0222842
0.0223081
0.0223321
0.0223563
0.0223807
0.0224052
0.02243
0.0224549
0.02248
0.0225052
0.0225307
0.0225564
0.0225823
0.0226084
0.0226347
0.0226612
0.0226878
0.0227147
0.0227418
0.022769
0.0227964
0.022824
0.0228518
0.0228798
0.0229079
0.0212617
0.0212493
0.0212375
0.0212262
0.0212157
0.0212059
0.0211968
0.0211884
0.0211807
0.0211737
0.0211674
0.0211618
0.0211569
0.0211526
0.0211491
0.0211464
0.0211443
0.0211431
0.0211426
0.0211428
0.0211437
0.0211453
0.021148
0.0211517
0.0211565
0.0211625
0.0211698
0.0211785
0.0211888
0.0212006
0.0212142
0.0212299
0.0212455
0.021263
0.0212829
0.0213048
0.0213288
0.0213542
0.0213799
0.0214062
0.0214335
0.0214618
0.0214907
0.0215198
0.0215489
0.0215777
0.0216058
0.0216332
0.0216596
0.021685
0.0217092
0.0217323
0.0217543
0.0217753
0.0217952
0.0218143
0.0218327
0.0218504
0.0218678
0.0218848
0.0219017
0.0219186
0.0219356
0.0219527
0.0219701
0.0219878
0.0220057
0.022024
0.0220426
0.0220616
0.0220808
0.0221004
0.0221203
0.0221405
0.022161
0.0221819
0.022203
0.0222245
0.0222463
0.0222684
0.0222909
0.0223137
0.0223369
0.0223604
0.0223842
0.0224084
0.0224329
0.0224577
0.0224828
0.0225081
0.0225337
0.0225594
0.0225853
0.0226114
0.0226376
0.0226639
0.0226904
0.0227169
0.0227435
0.0227703
0.0227971
0.0228241
0.0228512
0.0228784
0.0229057
0.0229332
0.0229608
0.0229886
0.0230165
0.0230445
0.0230727
0.023101
0.0231295
0.0231581
0.0231869
0.0232157
0.0232447
0.0232738
0.023303
0.0233324
0.0233618
0.0233913
0.023421
0.0234507
0.0234805
0.0215358
0.0215253
0.0215152
0.0215055
0.0214963
0.0214876
0.0214795
0.0214718
0.0214647
0.0214581
0.021452
0.0214465
0.0214415
0.021437
0.0214331
0.0214299
0.0214274
0.0214255
0.0214245
0.0214243
0.0214247
0.0214259
0.0214283
0.0214318
0.0214366
0.0214428
0.0214505
0.0214599
0.021471
0.0214839
0.021499
0.021516
0.0215337
0.0215539
0.0215766
0.0216016
0.0216287
0.0216571
0.0216861
0.0217161
0.0217473
0.0217796
0.0218124
0.0218455
0.0218785
0.021911
0.0219429
0.021974
0.022004
0.0220328
0.0220605
0.0220869
0.0221121
0.0221362
0.0221592
0.0221813
0.0222027
0.0222235
0.0222438
0.0222638
0.0222837
0.0223035
0.0223234
0.0223435
0.0223638
0.0223843
0.0224051
0.0224262
0.0224476
0.0224693
0.0224913
0.0225135
0.0225361
0.0225589
0.022582
0.0226054
0.0226291
0.0226531
0.0226774
0.0227021
0.022727
0.0227523
0.0227779
0.0228039
0.0228301
0.0228567
0.0228836
0.0229107
0.022938
0.0229656
0.0229933
0.0230212
0.0230492
0.0230774
0.0231055
0.0231338
0.0231621
0.0231904
0.0232188
0.0232472
0.0232756
0.0233041
0.0233326
0.0233612
0.0233899
0.0234186
0.0234474
0.0234763
0.0235052
0.0235342
0.0235632
0.0235924
0.0236215
0.0236507
0.02368
0.0237093
0.0237386
0.023768
0.0237973
0.0238267
0.0238561
0.0238855
0.0239149
0.0239443
0.0239737
0.0218395
0.0218312
0.021823
0.021815
0.0218073
0.0218
0.021793
0.0217863
0.02178
0.0217741
0.0217685
0.0217633
0.0217585
0.0217542
0.0217504
0.0217472
0.0217445
0.0217426
0.0217415
0.0217413
0.0217418
0.0217432
0.0217458
0.0217497
0.0217551
0.0217621
0.0217708
0.0217814
0.021794
0.0218086
0.0218259
0.0218445
0.021865
0.0218882
0.0219141
0.0219423
0.0219727
0.0220041
0.0220364
0.02207
0.022105
0.0221408
0.0221772
0.0222137
0.0222499
0.0222856
0.0223205
0.0223544
0.0223872
0.0224187
0.0224489
0.0224778
0.0225054
0.0225319
0.0225572
0.0225817
0.0226053
0.0226284
0.022651
0.0226733
0.0226954
0.0227175
0.0227397
0.0227619
0.0227844
0.0228071
0.02283
0.0228531
0.0228765
0.0229001
0.022924
0.0229481
0.0229725
0.0229971
0.0230219
0.023047
0.0230724
0.023098
0.0231239
0.0231501
0.0231766
0.0232034
0.0232304
0.0232578
0.0232854
0.0233133
0.0233414
0.0233697
0.0233982
0.0234268
0.0234555
0.0234843
0.0235132
0.023542
0.0235709
0.0235997
0.0236285
0.0236573
0.023686
0.0237146
0.0237432
0.0237718
0.0238004
0.0238289
0.0238573
0.0238858
0.0239142
0.0239426
0.023971
0.0239993
0.0240276
0.0240559
0.0240841
0.0241123
0.0241404
0.0241684
0.0241964
0.0242243
0.0242521
0.0242798
0.0243074
0.0243349
0.0243623
0.0243896
0.0244167
0.022174
0.0221678
0.0221615
0.0221552
0.0221491
0.0221431
0.0221372
0.0221314
0.0221259
0.0221205
0.0221154
0.0221105
0.022106
0.0221017
0.0220978
0.0220944
0.0220914
0.0220891
0.0220875
0.0220868
0.022087
0.0220879
0.02209
0.0220934
0.0220983
0.0221049
0.0221132
0.0221235
0.0221359
0.0221504
0.0221672
0.0221869
0.0222078
0.0222314
0.0222579
0.0222869
0.0223183
0.0223517
0.0223859
0.0224213
0.0224582
0.0224963
0.0225351
0.0225741
0.0226131
0.0226516
0.0226895
0.0227264
0.0227621
0.0227966
0.0228296
0.0228613
0.0228916
0.0229206
0.0229484
0.0229751
0.0230008
0.0230258
0.0230502
0.0230742
0.0230978
0.0231213
0.0231447
0.0231681
0.0231917
0.0232153
0.0232391
0.0232631
0.0232873
0.0233117
0.0233362
0.0233609
0.0233859
0.023411
0.0234363
0.0234618
0.0234875
0.0235134
0.0235395
0.0235659
0.0235925
0.0236193
0.0236464
0.0236738
0.0237013
0.0237291
0.023757
0.0237851
0.0238133
0.0238416
0.02387
0.0238983
0.0239267
0.023955
0.0239832
0.0240113
0.0240393
0.0240671
0.0240948
0.0241224
0.0241498
0.0241771
0.0242043
0.0242313
0.0242582
0.0242849
0.0243116
0.0243381
0.0243645
0.0243907
0.0244168
0.0244428
0.0244687
0.0244943
0.0245199
0.0245452
0.0245704
0.0245954
0.0246202
0.0246448
0.0246691
0.0246933
0.0247172
0.0247408
0.0247643
0.0247874
0.0225177
0.0225135
0.0225091
0.0225049
0.0225005
0.022496
0.0224914
0.0224869
0.0224825
0.0224781
0.0224739
0.0224698
0.0224659
0.0224623
0.022459
0.0224562
0.0224538
0.0224521
0.0224512
0.0224513
0.0224521
0.022454
0.0224572
0.0224619
0.0224682
0.0224763
0.0224865
0.0224987
0.0225133
0.0225301
0.0225497
0.0225715
0.0225953
0.0226221
0.0226515
0.0226834
0.0227177
0.0227535
0.0227902
0.0228282
0.0228676
0.0229078
0.0229485
0.0229892
0.0230295
0.0230692
0.0231079
0.0231456
0.0231819
0.0232168
0.0232502
0.0232821
0.0233127
0.0233418
0.0233698
0.0233967
0.0234227
0.0234479
0.0234725
0.0234967
0.0235207
0.0235444
0.023568
0.0235916
0.0236153
0.023639
0.0236628
0.0236868
0.0237108
0.023735
0.0237593
0.0237838
0.0238083
0.023833
0.0238579
0.0238828
0.023908
0.0239332
0.0239587
0.0239843
0.0240101
0.0240361
0.0240623
0.0240886
0.0241151
0.0241417
0.0241685
0.0241952
0.024222
0.0242488
0.0242756
0.0243022
0.0243288
0.0243551
0.0243813
0.0244072
0.024433
0.0244585
0.0244837
0.0245088
0.0245335
0.0245581
0.0245824
0.0246065
0.0246303
0.024654
0.0246774
0.0247005
0.0247235
0.0247461
0.0247686
0.0247908
0.0248127
0.0248344
0.0248558
0.0248769
0.0248977
0.0249182
0.0249385
0.0249583
0.0249779
0.0249971
0.0250159
0.0250344
0.0250524
0.0250701
0.0250874
0.0251044
0.0228711
0.022868
0.0228656
0.0228634
0.0228605
0.0228571
0.0228537
0.0228502
0.0228468
0.0228433
0.0228399
0.0228365
0.0228334
0.0228305
0.0228279
0.0228258
0.0228242
0.0228233
0.0228233
0.0228241
0.0228261
0.0228293
0.0228339
0.0228402
0.0228483
0.0228583
0.0228706
0.022885
0.0229019
0.0229214
0.0229436
0.0229677
0.0229946
0.0230241
0.023056
0.0230903
0.0231267
0.0231643
0.0232028
0.0232425
0.0232833
0.0233245
0.0233659
0.0234069
0.0234474
0.0234869
0.0235252
0.0235623
0.0235978
0.0236319
0.0236644
0.0236953
0.0237249
0.0237531
0.02378
0.023806
0.023831
0.0238554
0.0238791
0.0239024
0.0239255
0.0239483
0.023971
0.0239936
0.0240163
0.0240389
0.0240616
0.0240843
0.0241071
0.02413
0.0241529
0.0241759
0.0241989
0.024222
0.0242452
0.0242685
0.0242919
0.0243154
0.024339
0.0243627
0.0243866
0.0244105
0.0244346
0.0244588
0.024483
0.0245073
0.0245316
0.0245558
0.02458
0.0246041
0.0246279
0.0246516
0.0246751
0.0246982
0.0247211
0.0247437
0.0247659
0.0247878
0.0248093
0.0248305
0.0248514
0.0248719
0.0248921
0.0249119
0.0249315
0.0249507
0.0249696
0.0249882
0.0250064
0.0250243
0.0250418
0.025059
0.0250758
0.0250922
0.0251083
0.0251239
0.0251392
0.0251541
0.0251685
0.0251826
0.0251962
0.0252094
0.0252221
0.0252344
0.0252461
0.0252573
0.025268
0.0252781
0.023225
0.0232225
0.0232224
0.0232217
0.0232196
0.023217
0.0232144
0.0232117
0.023209
0.0232062
0.0232034
0.0232007
0.0231981
0.0231959
0.023194
0.0231926
0.0231919
0.023192
0.0231929
0.0231949
0.0231981
0.0232028
0.0232091
0.0232172
0.0232272
0.0232394
0.0232538
0.0232705
0.0232898
0.023312
0.0233363
0.0233629
0.0233921
0.0234237
0.0234576
0.0234934
0.0235312
0.0235697
0.0236091
0.0236494
0.0236903
0.0237313
0.0237721
0.0238122
0.0238514
0.0238894
0.0239261
0.0239613
0.0239949
0.0240268
0.0240572
0.024086
0.0241134
0.0241395
0.0241644
0.0241883
0.0242113
0.0242337
0.0242555
0.0242768
0.0242979
0.0243187
0.0243394
0.0243599
0.0243804
0.0244009