/*--------------------------------*- C++ -*----------------------------------*\
| =========                 |                                                 |
| \\      /  F ield         | OpenFOAM: The Open Source CFD Toolbox           |
|  \\    /   O peration     | Version:  v1706                                 |
|   \\  /    A nd           | Web:      www.OpenFOAM.com                      |
|    \\/     M anipulation  |                                                 |
\*---------------------------------------------------------------------------*/
FoamFile
{
    version     2.0;
    format      ascii;
    class       volScalarField;
    location    "1.1e-05";
    object      kappave;
}
// * * * * * * * * * * * * * * * * * * * * * * * * * * * * * * * * * * * * * //

dimensions      [1 1 -3 -1 0 0 0];


internalField   nonuniform List<scalar> 
29871
(
1.46119e-10
1.46116e-10
1.46113e-10
1.4611e-10
1.46108e-10
1.46105e-10
1.46103e-10
1.46101e-10
1.46099e-10
1.46097e-10
1.46096e-10
1.46094e-10
1.46093e-10
1.46092e-10
1.46091e-10
1.46091e-10
1.4609e-10
1.4609e-10
1.46089e-10
1.46089e-10
1.46089e-10
1.46089e-10
1.46089e-10
1.4609e-10
1.4609e-10
1.4609e-10
1.46091e-10
1.46091e-10
1.46092e-10
1.46092e-10
1.46093e-10
1.46093e-10
1.46094e-10
1.46094e-10
1.46095e-10
1.46096e-10
1.46096e-10
1.46097e-10
1.46098e-10
1.46098e-10
1.46099e-10
1.461e-10
1.461e-10
1.46101e-10
1.46102e-10
1.46103e-10
1.46103e-10
1.46104e-10
1.46105e-10
1.46106e-10
1.46106e-10
1.46107e-10
1.46108e-10
1.46109e-10
1.46109e-10
1.4611e-10
1.46111e-10
1.46112e-10
1.46112e-10
1.46113e-10
1.46114e-10
1.46114e-10
1.46115e-10
1.46116e-10
1.46116e-10
1.46117e-10
1.46118e-10
1.46118e-10
1.46119e-10
1.46119e-10
1.4612e-10
1.46121e-10
1.46121e-10
1.46122e-10
1.46122e-10
1.46123e-10
1.46124e-10
1.46124e-10
1.46125e-10
1.46125e-10
1.46126e-10
1.46126e-10
1.46127e-10
1.46128e-10
1.46128e-10
1.46129e-10
1.46129e-10
1.4613e-10
1.46131e-10
1.46131e-10
1.46132e-10
1.46133e-10
1.46133e-10
1.46134e-10
1.46135e-10
1.46135e-10
1.46136e-10
1.46137e-10
1.46137e-10
1.46138e-10
1.46139e-10
1.46139e-10
1.4614e-10
1.46141e-10
1.46142e-10
1.4651e-10
1.46492e-10
1.46475e-10
1.46459e-10
1.46445e-10
1.46431e-10
1.46418e-10
1.46406e-10
1.46395e-10
1.46386e-10
1.46377e-10
1.46369e-10
1.46363e-10
1.46357e-10
1.46352e-10
1.46349e-10
1.46346e-10
1.46344e-10
1.46342e-10
1.46342e-10
1.46342e-10
1.46342e-10
1.46343e-10
1.46345e-10
1.46346e-10
1.46349e-10
1.46351e-10
1.46354e-10
1.46358e-10
1.46361e-10
1.46365e-10
1.46368e-10
1.46372e-10
1.46376e-10
1.4638e-10
1.46384e-10
1.46389e-10
1.46393e-10
1.46397e-10
1.46402e-10
1.46406e-10
1.4641e-10
1.46415e-10
1.4642e-10
1.46424e-10
1.46429e-10
1.46434e-10
1.46438e-10
1.46443e-10
1.46448e-10
1.46453e-10
1.46458e-10
1.46463e-10
1.46468e-10
1.46473e-10
1.46478e-10
1.46483e-10
1.46488e-10
1.46493e-10
1.46497e-10
1.46502e-10
1.46507e-10
1.46512e-10
1.46516e-10
1.46521e-10
1.46526e-10
1.4653e-10
1.46535e-10
1.46539e-10
1.46543e-10
1.46548e-10
1.46552e-10
1.46556e-10
1.46561e-10
1.46565e-10
1.46569e-10
1.46574e-10
1.46578e-10
1.46582e-10
1.46587e-10
1.46591e-10
1.46596e-10
1.46601e-10
1.46605e-10
1.4661e-10
1.46615e-10
1.46619e-10
1.46624e-10
1.46629e-10
1.46634e-10
1.46639e-10
1.46644e-10
1.4665e-10
1.46655e-10
1.4666e-10
1.46665e-10
1.46671e-10
1.46676e-10
1.46682e-10
1.46687e-10
1.46693e-10
1.46698e-10
1.46704e-10
1.4671e-10
1.46716e-10
1.47501e-10
1.47446e-10
1.47395e-10
1.47346e-10
1.473e-10
1.47257e-10
1.47217e-10
1.4718e-10
1.47146e-10
1.47116e-10
1.47088e-10
1.47064e-10
1.47042e-10
1.47024e-10
1.47008e-10
1.46995e-10
1.46985e-10
1.46978e-10
1.46973e-10
1.4697e-10
1.46969e-10
1.4697e-10
1.46973e-10
1.46977e-10
1.46982e-10
1.46989e-10
1.46998e-10
1.47007e-10
1.47017e-10
1.47027e-10
1.47039e-10
1.47051e-10
1.47063e-10
1.47076e-10
1.47089e-10
1.47103e-10
1.47117e-10
1.47131e-10
1.47145e-10
1.47159e-10
1.47174e-10
1.47189e-10
1.47204e-10
1.47219e-10
1.47235e-10
1.47251e-10
1.47267e-10
1.47283e-10
1.47299e-10
1.47316e-10
1.47333e-10
1.4735e-10
1.47367e-10
1.47385e-10
1.47402e-10
1.4742e-10
1.47438e-10
1.47455e-10
1.47473e-10
1.47491e-10
1.47508e-10
1.47526e-10
1.47543e-10
1.4756e-10
1.47577e-10
1.47594e-10
1.47611e-10
1.47628e-10
1.47644e-10
1.47661e-10
1.47677e-10
1.47693e-10
1.47709e-10
1.47725e-10
1.47741e-10
1.47757e-10
1.47774e-10
1.4779e-10
1.47806e-10
1.47822e-10
1.47839e-10
1.47856e-10
1.47873e-10
1.4789e-10
1.47907e-10
1.47924e-10
1.47942e-10
1.4796e-10
1.47978e-10
1.47996e-10
1.48014e-10
1.48033e-10
1.48052e-10
1.48071e-10
1.4809e-10
1.4811e-10
1.4813e-10
1.4815e-10
1.4817e-10
1.48191e-10
1.48212e-10
1.48233e-10
1.48254e-10
1.48276e-10
1.48297e-10
1.4832e-10
1.49675e-10
1.49547e-10
1.49426e-10
1.4931e-10
1.49202e-10
1.491e-10
1.49006e-10
1.48918e-10
1.48839e-10
1.48767e-10
1.48703e-10
1.48646e-10
1.48597e-10
1.48555e-10
1.4852e-10
1.48493e-10
1.48472e-10
1.48458e-10
1.48449e-10
1.48448e-10
1.4845e-10
1.48456e-10
1.48466e-10
1.48481e-10
1.485e-10
1.48521e-10
1.48546e-10
1.48573e-10
1.48602e-10
1.48633e-10
1.48666e-10
1.487e-10
1.48735e-10
1.48771e-10
1.48808e-10
1.48846e-10
1.48885e-10
1.48924e-10
1.48964e-10
1.49004e-10
1.49045e-10
1.49086e-10
1.49128e-10
1.49171e-10
1.49214e-10
1.49259e-10
1.49303e-10
1.49349e-10
1.49395e-10
1.49442e-10
1.4949e-10
1.49538e-10
1.49587e-10
1.49636e-10
1.49686e-10
1.49736e-10
1.49787e-10
1.49838e-10
1.49889e-10
1.4994e-10
1.49991e-10
1.50042e-10
1.50093e-10
1.50143e-10
1.50194e-10
1.50244e-10
1.50294e-10
1.50344e-10
1.50393e-10
1.50443e-10
1.50492e-10
1.5054e-10
1.50589e-10
1.50638e-10
1.50687e-10
1.50736e-10
1.50785e-10
1.50834e-10
1.50884e-10
1.50935e-10
1.50985e-10
1.51036e-10
1.51088e-10
1.51141e-10
1.51194e-10
1.51247e-10
1.51302e-10
1.51357e-10
1.51413e-10
1.5147e-10
1.51527e-10
1.51586e-10
1.51645e-10
1.51705e-10
1.51766e-10
1.51827e-10
1.5189e-10
1.51953e-10
1.52018e-10
1.52083e-10
1.52149e-10
1.52216e-10
1.52284e-10
1.52353e-10
1.52422e-10
1.52493e-10
1.54398e-10
1.54124e-10
1.53862e-10
1.53612e-10
1.53376e-10
1.53154e-10
1.52947e-10
1.52755e-10
1.5258e-10
1.5242e-10
1.52276e-10
1.52149e-10
1.52038e-10
1.51943e-10
1.51864e-10
1.51801e-10
1.51754e-10
1.51721e-10
1.51702e-10
1.51697e-10
1.51703e-10
1.51717e-10
1.51744e-10
1.5178e-10
1.51824e-10
1.51877e-10
1.51936e-10
1.52002e-10
1.52072e-10
1.52147e-10
1.52226e-10
1.52308e-10
1.52392e-10
1.52479e-10
1.52568e-10
1.52658e-10
1.5275e-10
1.52844e-10
1.52939e-10
1.53035e-10
1.53132e-10
1.53231e-10
1.53332e-10
1.53434e-10
1.53538e-10
1.53644e-10
1.53752e-10
1.53861e-10
1.53973e-10
1.54087e-10
1.54202e-10
1.5432e-10
1.5444e-10
1.54561e-10
1.54685e-10
1.5481e-10
1.54936e-10
1.55064e-10
1.55192e-10
1.55322e-10
1.55453e-10
1.55583e-10
1.55715e-10
1.55846e-10
1.55977e-10
1.56108e-10
1.56238e-10
1.56368e-10
1.56497e-10
1.56626e-10
1.56754e-10
1.56882e-10
1.57009e-10
1.57136e-10
1.57262e-10
1.57389e-10
1.57515e-10
1.57641e-10
1.57768e-10
1.57896e-10
1.58024e-10
1.58152e-10
1.58282e-10
1.58413e-10
1.58545e-10
1.58679e-10
1.58813e-10
1.58949e-10
1.59087e-10
1.59226e-10
1.59367e-10
1.59509e-10
1.59653e-10
1.59799e-10
1.59947e-10
1.60096e-10
1.60247e-10
1.60401e-10
1.60556e-10
1.60713e-10
1.60872e-10
1.61033e-10
1.61196e-10
1.61361e-10
1.61528e-10
1.61698e-10
1.61869e-10
1.62663e-10
1.62195e-10
1.61744e-10
1.61313e-10
1.60904e-10
1.60519e-10
1.6016e-10
1.59828e-10
1.59524e-10
1.5925e-10
1.59006e-10
1.58793e-10
1.58612e-10
1.58462e-10
1.58342e-10
1.58253e-10
1.58192e-10
1.5816e-10
1.58159e-10
1.58175e-10
1.58212e-10
1.58273e-10
1.58353e-10
1.58452e-10
1.58566e-10
1.58695e-10
1.58835e-10
1.58987e-10
1.59147e-10
1.59315e-10
1.59489e-10
1.59668e-10
1.59851e-10
1.60038e-10
1.60227e-10
1.60419e-10
1.60613e-10
1.60809e-10
1.61007e-10
1.61207e-10
1.6141e-10
1.61614e-10
1.61821e-10
1.6203e-10
1.62242e-10
1.62458e-10
1.62676e-10
1.62898e-10
1.63123e-10
1.63352e-10
1.63585e-10
1.63821e-10
1.64061e-10
1.64304e-10
1.6455e-10
1.64799e-10
1.65051e-10
1.65306e-10
1.65562e-10
1.6582e-10
1.6608e-10
1.6634e-10
1.66601e-10
1.66861e-10
1.67122e-10
1.67383e-10
1.67642e-10
1.67901e-10
1.68159e-10
1.68415e-10
1.6867e-10
1.68924e-10
1.69177e-10
1.69429e-10
1.69679e-10
1.69929e-10
1.70178e-10
1.70426e-10
1.70675e-10
1.70923e-10
1.71172e-10
1.71422e-10
1.71673e-10
1.71925e-10
1.72178e-10
1.72433e-10
1.7269e-10
1.72949e-10
1.7321e-10
1.73473e-10
1.73739e-10
1.74007e-10
1.74277e-10
1.7455e-10
1.74825e-10
1.75104e-10
1.75385e-10
1.75669e-10
1.75955e-10
1.76245e-10
1.76538e-10
1.76834e-10
1.77133e-10
1.77435e-10
1.7774e-10
1.78048e-10
1.7836e-10
1.76607e-10
1.75946e-10
1.75299e-10
1.74669e-10
1.74059e-10
1.73472e-10
1.72911e-10
1.72378e-10
1.71878e-10
1.71412e-10
1.70983e-10
1.70593e-10
1.70245e-10
1.6994e-10
1.6968e-10
1.69466e-10
1.69298e-10
1.69177e-10
1.691e-10
1.69077e-10
1.69091e-10
1.69136e-10
1.69218e-10
1.69338e-10
1.6949e-10
1.69669e-10
1.69874e-10
1.70101e-10
1.70347e-10
1.70609e-10
1.70885e-10
1.71172e-10
1.71468e-10
1.71769e-10
1.72076e-10
1.72385e-10
1.72696e-10
1.73007e-10
1.73319e-10
1.73631e-10
1.73943e-10
1.74255e-10
1.74567e-10
1.7488e-10
1.75195e-10
1.75511e-10
1.75829e-10
1.7615e-10
1.76474e-10
1.76801e-10
1.77132e-10
1.77466e-10
1.77805e-10
1.78148e-10
1.78495e-10
1.78846e-10
1.79202e-10
1.79561e-10
1.79924e-10
1.8029e-10
1.80659e-10
1.81031e-10
1.81405e-10
1.81781e-10
1.82158e-10
1.82536e-10
1.82913e-10
1.8329e-10
1.83666e-10
1.8404e-10
1.84412e-10
1.84782e-10
1.85149e-10
1.85513e-10
1.85874e-10
1.86231e-10
1.86586e-10
1.86937e-10
1.87283e-10
1.87625e-10
1.87962e-10
1.88294e-10
1.88622e-10
1.88945e-10
1.89266e-10
1.89582e-10
1.89895e-10
1.90205e-10
1.90511e-10
1.90814e-10
1.91113e-10
1.91409e-10
1.91702e-10
1.91991e-10
1.92276e-10
1.92558e-10
1.92835e-10
1.93109e-10
1.93379e-10
1.93644e-10
1.93905e-10
1.94163e-10
1.94415e-10
1.94664e-10
1.94908e-10
1.95147e-10
1.95382e-10
1.95613e-10
1.95839e-10
1.96061e-10
1.89246e-10
1.88686e-10
1.88128e-10
1.87575e-10
1.87033e-10
1.86508e-10
1.86004e-10
1.85528e-10
1.85084e-10
1.84678e-10
1.84312e-10
1.83991e-10
1.83717e-10
1.83494e-10
1.83322e-10
1.83202e-10
1.83136e-10
1.8313e-10
1.8316e-10
1.83237e-10
1.83349e-10
1.83515e-10
1.83713e-10
1.83944e-10
1.84205e-10
1.84491e-10
1.84798e-10
1.8512e-10
1.85456e-10
1.85801e-10
1.86152e-10
1.86508e-10
1.86867e-10
1.87226e-10
1.87585e-10
1.87942e-10
1.88294e-10
1.88642e-10
1.88985e-10
1.89322e-10
1.89655e-10
1.89983e-10
1.90307e-10
1.90627e-10
1.90943e-10
1.91256e-10
1.91566e-10
1.91873e-10
1.92177e-10
1.92479e-10
1.92778e-10
1.93075e-10
1.93369e-10
1.93661e-10
1.9395e-10
1.94237e-10
1.9452e-10
1.94799e-10
1.95075e-10
1.95347e-10
1.95615e-10
1.95877e-10
1.96135e-10
1.96387e-10
1.96633e-10
1.96873e-10
1.97107e-10
1.97334e-10
1.97555e-10
1.97768e-10
1.97975e-10
1.98174e-10
1.98367e-10
1.98552e-10
1.98731e-10
1.98902e-10
1.99066e-10
1.99223e-10
1.99375e-10
1.99521e-10
1.99661e-10
1.99796e-10
1.99927e-10
2.00053e-10
2.00174e-10
2.00291e-10
2.00405e-10
2.00515e-10
2.00622e-10
2.00726e-10
2.00828e-10
2.00926e-10
2.01023e-10
2.01117e-10
2.01209e-10
2.01299e-10
2.01388e-10
2.01474e-10
2.01559e-10
2.01643e-10
2.01725e-10
2.01805e-10
2.01884e-10
2.01961e-10
2.02037e-10
2.02112e-10
2.02186e-10
2.02258e-10
2.02329e-10
2.02399e-10
1.96162e-10
1.9593e-10
1.95711e-10
1.95508e-10
1.95321e-10
1.95151e-10
1.94997e-10
1.94863e-10
1.9475e-10
1.9466e-10
1.94593e-10
1.9455e-10
1.94541e-10
1.94559e-10
1.94613e-10
1.94703e-10
1.94828e-10
1.94974e-10
1.95147e-10
1.95366e-10
1.95593e-10
1.95837e-10
1.96092e-10
1.96358e-10
1.96629e-10
1.96902e-10
1.97171e-10
1.97435e-10
1.9769e-10
1.97936e-10
1.98172e-10
1.98396e-10
1.98609e-10
1.98809e-10
1.98997e-10
1.99173e-10
1.99337e-10
1.99491e-10
1.99635e-10
1.99769e-10
1.99894e-10
2.00011e-10
2.00121e-10
2.00225e-10
2.00325e-10
2.00419e-10
2.0051e-10
2.00599e-10
2.00684e-10
2.00768e-10
2.0085e-10
2.00931e-10
2.01011e-10
2.01089e-10
2.01168e-10
2.01245e-10
2.01323e-10
2.014e-10
2.01478e-10
2.01555e-10
2.01633e-10
2.01711e-10
2.0179e-10
2.01869e-10
2.01949e-10
2.02029e-10
2.02109e-10
2.02189e-10
2.02268e-10
2.02348e-10
2.02426e-10
2.02504e-10
2.02581e-10
2.02656e-10
2.02729e-10
2.028e-10
2.02869e-10
2.02936e-10
2.03e-10
2.03062e-10
2.03121e-10
2.03178e-10
2.03232e-10
2.03284e-10
2.03335e-10
2.03383e-10
2.03429e-10
2.03474e-10
2.03518e-10
2.0356e-10
2.03601e-10
2.03641e-10
2.03681e-10
2.03719e-10
2.03757e-10
2.03793e-10
2.03829e-10
2.03864e-10
2.03899e-10
2.03932e-10
2.03964e-10
2.03996e-10
2.04026e-10
2.04056e-10
2.04085e-10
2.04112e-10
2.04139e-10
2.04165e-10
2.0419e-10
2.04214e-10
1.98757e-10
1.98642e-10
1.9855e-10
1.98482e-10
1.9844e-10
1.98434e-10
1.9845e-10
1.98497e-10
1.98575e-10
1.98676e-10
1.98796e-10
1.98946e-10
1.99127e-10
1.99322e-10
1.99531e-10
1.99761e-10
2e-10
2.0023e-10
2.00471e-10
2.00724e-10
2.0097e-10
2.01205e-10
2.01437e-10
2.01655e-10
2.01855e-10
2.02039e-10
2.02209e-10
2.02364e-10
2.02505e-10
2.02631e-10
2.02741e-10
2.02836e-10
2.02916e-10
2.02983e-10
2.03038e-10
2.03084e-10
2.03121e-10
2.03152e-10
2.03176e-10
2.03195e-10
2.03211e-10
2.03225e-10
2.03236e-10
2.03246e-10
2.03254e-10
2.03263e-10
2.03271e-10
2.0328e-10
2.03289e-10
2.033e-10
2.03311e-10
2.03324e-10
2.03338e-10
2.03354e-10
2.03372e-10
2.03392e-10
2.03413e-10
2.03437e-10
2.03463e-10
2.0349e-10
2.03519e-10
2.03551e-10
2.03584e-10
2.03619e-10
2.03655e-10
2.03692e-10
2.03731e-10
2.0377e-10
2.03809e-10
2.03849e-10
2.03889e-10
2.03929e-10
2.03968e-10
2.04007e-10
2.04045e-10
2.04082e-10
2.04118e-10
2.04152e-10
2.04185e-10
2.04217e-10
2.04247e-10
2.04275e-10
2.04302e-10
2.04328e-10
2.04353e-10
2.04376e-10
2.04398e-10
2.04419e-10
2.0444e-10
2.0446e-10
2.0448e-10
2.04499e-10
2.04518e-10
2.04538e-10
2.04557e-10
2.04576e-10
2.04595e-10
2.04615e-10
2.04634e-10
2.04653e-10
2.04673e-10
2.04693e-10
2.04712e-10
2.04732e-10
2.04752e-10
2.04772e-10
2.04792e-10
2.04813e-10
2.04833e-10
2.04853e-10
1.99766e-10
1.99726e-10
1.99717e-10
1.99726e-10
1.99754e-10
1.99809e-10
1.99884e-10
1.99976e-10
2.00094e-10
2.00239e-10
2.00395e-10
2.00565e-10
2.00757e-10
2.00977e-10
2.01213e-10
2.01456e-10
2.01684e-10
2.01918e-10
2.02164e-10
2.02403e-10
2.02621e-10
2.02839e-10
2.0304e-10
2.03218e-10
2.03384e-10
2.03536e-10
2.03671e-10
2.03793e-10
2.03899e-10
2.03993e-10
2.04075e-10
2.04145e-10
2.04204e-10
2.04252e-10
2.04291e-10
2.04322e-10
2.04346e-10
2.04364e-10
2.04375e-10
2.04381e-10
2.04382e-10
2.04379e-10
2.04374e-10
2.04365e-10
2.04353e-10
2.04339e-10
2.04324e-10
2.04308e-10
2.04293e-10
2.04279e-10
2.04265e-10
2.04253e-10
2.04243e-10
2.04235e-10
2.04228e-10
2.04225e-10
2.04224e-10
2.04225e-10
2.04228e-10
2.04235e-10
2.04243e-10
2.04254e-10
2.04268e-10
2.04287e-10
2.04306e-10
2.04328e-10
2.04352e-10
2.04379e-10
2.04407e-10
2.04437e-10
2.04468e-10
2.04501e-10
2.04534e-10
2.04569e-10
2.04603e-10
2.04637e-10
2.04672e-10
2.04706e-10
2.04739e-10
2.04772e-10
2.04804e-10
2.04834e-10
2.04864e-10
2.04893e-10
2.04921e-10
2.04948e-10
2.04975e-10
2.05001e-10
2.05026e-10
2.0505e-10
2.05075e-10
2.05099e-10
2.05122e-10
2.05146e-10
2.0517e-10
2.05193e-10
2.05217e-10
2.05241e-10
2.05265e-10
2.0529e-10
2.05314e-10
2.05339e-10
2.05364e-10
2.05389e-10
2.05415e-10
2.05441e-10
2.05467e-10
2.05494e-10
2.05521e-10
2.05548e-10
2.0048e-10
2.00416e-10
2.00381e-10
2.00379e-10
2.00393e-10
2.0043e-10
2.00493e-10
2.00582e-10
2.00697e-10
2.00836e-10
2.00994e-10
2.01169e-10
2.01356e-10
2.01556e-10
2.0177e-10
2.01995e-10
2.0222e-10
2.02432e-10
2.0265e-10
2.02882e-10
2.03084e-10
2.03277e-10
2.03477e-10
2.03654e-10
2.03811e-10
2.0396e-10
2.041e-10
2.04227e-10
2.04344e-10
2.0445e-10
2.04544e-10
2.04628e-10
2.04694e-10
2.0475e-10
2.04797e-10
2.04836e-10
2.04867e-10
2.04889e-10
2.04905e-10
2.04915e-10
2.04919e-10
2.04918e-10
2.04915e-10
2.04909e-10
2.049e-10
2.04888e-10
2.04875e-10
2.04861e-10
2.04847e-10
2.04834e-10
2.04821e-10
2.0481e-10
2.048e-10
2.04792e-10
2.04786e-10
2.04782e-10
2.04781e-10
2.04782e-10
2.04786e-10
2.04792e-10
2.04802e-10
2.04813e-10
2.04827e-10
2.04844e-10
2.04865e-10
2.04887e-10
2.04911e-10
2.04938e-10
2.04967e-10
2.04999e-10
2.05032e-10
2.05066e-10
2.05102e-10
2.05139e-10
2.05177e-10
2.05216e-10
2.05255e-10
2.05295e-10
2.05335e-10
2.05374e-10
2.05413e-10
2.05451e-10
2.05489e-10
2.05526e-10
2.05563e-10
2.05598e-10
2.05632e-10
2.05665e-10
2.05697e-10
2.05729e-10
2.0576e-10
2.05791e-10
2.05822e-10
2.05853e-10
2.05883e-10
2.05914e-10
2.05945e-10
2.05976e-10
2.06007e-10
2.06039e-10
2.06071e-10
2.06104e-10
2.06137e-10
2.0617e-10
2.06204e-10
2.06239e-10
2.06274e-10
2.0631e-10
2.06346e-10
2.06383e-10
2.06421e-10
2.01157e-10
2.01103e-10
2.01071e-10
2.01069e-10
2.0108e-10
2.01112e-10
2.01168e-10
2.01247e-10
2.01349e-10
2.0147e-10
2.01607e-10
2.01758e-10
2.0192e-10
2.02093e-10
2.02277e-10
2.02469e-10
2.02662e-10
2.02854e-10
2.03052e-10
2.03255e-10
2.03439e-10
2.0362e-10
2.03805e-10
2.03967e-10
2.04116e-10
2.04258e-10
2.04395e-10
2.04526e-10
2.0465e-10
2.04767e-10
2.04874e-10
2.04967e-10
2.05047e-10
2.0512e-10
2.05186e-10
2.05245e-10
2.05296e-10
2.05339e-10
2.05374e-10
2.05402e-10
2.05424e-10
2.0544e-10
2.05451e-10
2.05458e-10
2.05462e-10
2.05462e-10
2.0546e-10
2.05457e-10
2.05452e-10
2.05447e-10
2.05442e-10
2.05438e-10
2.05436e-10
2.05435e-10
2.05435e-10
2.05438e-10
2.05444e-10
2.05451e-10
2.0546e-10
2.05472e-10
2.05486e-10
2.05503e-10
2.05523e-10
2.05545e-10
2.05569e-10
2.05596e-10
2.05626e-10
2.05657e-10
2.05692e-10
2.05728e-10
2.05766e-10
2.05805e-10
2.05847e-10
2.0589e-10
2.05934e-10
2.05979e-10
2.06025e-10
2.06071e-10
2.06119e-10
2.06166e-10
2.06214e-10
2.06261e-10
2.06308e-10
2.06355e-10
2.06401e-10
2.06447e-10
2.06493e-10
2.06537e-10
2.06582e-10
2.06627e-10
2.06671e-10
2.06715e-10
2.06759e-10
2.06803e-10
2.06847e-10
2.06892e-10
2.06938e-10
2.06983e-10
2.0703e-10
2.07077e-10
2.07125e-10
2.07174e-10
2.07224e-10
2.07274e-10
2.07326e-10
2.07378e-10
2.07431e-10
2.07486e-10
2.07541e-10
2.07597e-10
2.07655e-10
2.07714e-10
2.07773e-10
2.01919e-10
2.01872e-10
2.0185e-10
2.01851e-10
2.01867e-10
2.01899e-10
2.01949e-10
2.02016e-10
2.02099e-10
2.02199e-10
2.02312e-10
2.02438e-10
2.02573e-10
2.02718e-10
2.02871e-10
2.03032e-10
2.03195e-10
2.03361e-10
2.03535e-10
2.03712e-10
2.03875e-10
2.0404e-10
2.0421e-10
2.0436e-10
2.04501e-10
2.0464e-10
2.04778e-10
2.04915e-10
2.05049e-10
2.05179e-10
2.053e-10
2.05408e-10
2.05507e-10
2.05601e-10
2.05689e-10
2.05771e-10
2.05846e-10
2.05913e-10
2.05971e-10
2.06021e-10
2.06063e-10
2.06097e-10
2.06125e-10
2.06148e-10
2.06166e-10
2.0618e-10
2.06191e-10
2.06199e-10
2.06205e-10
2.0621e-10
2.06215e-10
2.0622e-10
2.06226e-10
2.06233e-10
2.06243e-10
2.06254e-10
2.06268e-10
2.06284e-10
2.06303e-10
2.06324e-10
2.06349e-10
2.06376e-10
2.06406e-10
2.06439e-10
2.06474e-10
2.06512e-10
2.06553e-10
2.06595e-10
2.06641e-10
2.06688e-10
2.06738e-10
2.06789e-10
2.06843e-10
2.06899e-10
2.06956e-10
2.07014e-10
2.07074e-10
2.07135e-10
2.07197e-10
2.0726e-10
2.07323e-10
2.07387e-10
2.07451e-10
2.07515e-10
2.07579e-10
2.07643e-10
2.07707e-10
2.07771e-10
2.07835e-10
2.07899e-10
2.07963e-10
2.08027e-10
2.08092e-10
2.08157e-10
2.08223e-10
2.08289e-10
2.08357e-10
2.08426e-10
2.08495e-10
2.08566e-10
2.08638e-10
2.08711e-10
2.08786e-10
2.08861e-10
2.08939e-10
2.09017e-10
2.09097e-10
2.09178e-10
2.09261e-10
2.09345e-10
2.09431e-10
2.09518e-10
2.09607e-10
2.03e-10
2.02919e-10
2.02856e-10
2.0281e-10
2.02785e-10
2.02785e-10
2.02795e-10
2.0282e-10
2.02861e-10
2.02917e-10
2.02987e-10
2.03069e-10
2.03162e-10
2.03264e-10
2.03375e-10
2.03494e-10
2.03619e-10
2.03751e-10
2.03886e-10
2.04027e-10
2.04176e-10
2.04325e-10
2.04469e-10
2.04619e-10
2.04777e-10
2.04919e-10
2.05053e-10
2.05191e-10
2.05331e-10
2.05475e-10
2.0562e-10
2.05765e-10
2.059e-10
2.06024e-10
2.06142e-10
2.06257e-10
2.06368e-10
2.06473e-10
2.06572e-10
2.06662e-10
2.06745e-10
2.06819e-10
2.06885e-10
2.06943e-10
2.06994e-10
2.07038e-10
2.07077e-10
2.07111e-10
2.07141e-10
2.07167e-10
2.07191e-10
2.07212e-10
2.07233e-10
2.07254e-10
2.07276e-10
2.07298e-10
2.07323e-10
2.0735e-10
2.07379e-10
2.07411e-10
2.07446e-10
2.07485e-10
2.07526e-10
2.0757e-10
2.07617e-10
2.07667e-10
2.07719e-10
2.07774e-10
2.07832e-10
2.07893e-10
2.07956e-10
2.08022e-10
2.0809e-10
2.0816e-10
2.08233e-10
2.08308e-10
2.08384e-10
2.08463e-10
2.08544e-10
2.08626e-10
2.08709e-10
2.08794e-10
2.0888e-10
2.08967e-10
2.09054e-10
2.09142e-10
2.09231e-10
2.0932e-10
2.0941e-10
2.09499e-10
2.0959e-10
2.0968e-10
2.09771e-10
2.09863e-10
2.09956e-10
2.1005e-10
2.10144e-10
2.1024e-10
2.10338e-10
2.10436e-10
2.10537e-10
2.10639e-10
2.10742e-10
2.10847e-10
2.10954e-10
2.11063e-10
2.11174e-10
2.11286e-10
2.114e-10
2.11516e-10
2.11633e-10
2.11753e-10
2.11874e-10
2.11997e-10
2.12122e-10
2.04174e-10
2.04095e-10
2.0403e-10
2.03982e-10
2.03949e-10
2.03937e-10
2.03939e-10
2.03952e-10
2.03978e-10
2.04016e-10
2.04066e-10
2.04127e-10
2.04196e-10
2.04274e-10
2.04359e-10
2.04451e-10
2.0455e-10
2.04655e-10
2.04765e-10
2.04883e-10
2.05008e-10
2.05136e-10
2.05266e-10
2.05404e-10
2.05553e-10
2.0569e-10
2.05823e-10
2.05962e-10
2.06109e-10
2.06264e-10
2.06423e-10
2.06584e-10
2.06737e-10
2.06882e-10
2.07024e-10
2.07166e-10
2.07305e-10
2.0744e-10
2.07568e-10
2.0769e-10
2.07803e-10
2.07908e-10
2.08005e-10
2.08093e-10
2.08174e-10
2.08247e-10
2.08313e-10
2.08374e-10
2.08429e-10
2.08479e-10
2.08526e-10
2.08571e-10
2.08614e-10
2.08657e-10
2.087e-10
2.08744e-10
2.08791e-10
2.08839e-10
2.0889e-10
2.08944e-10
2.09002e-10
2.09062e-10
2.09126e-10
2.09193e-10
2.09263e-10
2.09336e-10
2.09412e-10
2.0949e-10
2.09572e-10
2.09656e-10
2.09744e-10
2.09834e-10
2.09926e-10
2.10021e-10
2.10119e-10
2.1022e-10
2.10322e-10
2.10428e-10
2.10535e-10
2.10644e-10
2.10756e-10
2.10869e-10
2.10984e-10
2.111e-10
2.11218e-10
2.11336e-10
2.11456e-10
2.11576e-10
2.11698e-10
2.1182e-10
2.11943e-10
2.12067e-10
2.12192e-10
2.12318e-10
2.12445e-10
2.12574e-10
2.12704e-10
2.12836e-10
2.1297e-10
2.13105e-10
2.13242e-10
2.13382e-10
2.13523e-10
2.13667e-10
2.13812e-10
2.1396e-10
2.14109e-10
2.14261e-10
2.14415e-10
2.14571e-10
2.14729e-10
2.1489e-10
2.15052e-10
2.15217e-10
2.15384e-10
2.15553e-10
2.06561e-10
2.06391e-10
2.06233e-10
2.06088e-10
2.05956e-10
2.05836e-10
2.05729e-10
2.05636e-10
2.05555e-10
2.05489e-10
2.05435e-10
2.05394e-10
2.05368e-10
2.05357e-10
2.05357e-10
2.05366e-10
2.05386e-10
2.05415e-10
2.05454e-10
2.05501e-10
2.05555e-10
2.05617e-10
2.05686e-10
2.05761e-10
2.05844e-10
2.05934e-10
2.06032e-10
2.06139e-10
2.06252e-10
2.06372e-10
2.06501e-10
2.06644e-10
2.06781e-10
2.06915e-10
2.07061e-10
2.07219e-10
2.07387e-10
2.07564e-10
2.07744e-10
2.07918e-10
2.08088e-10
2.0826e-10
2.08433e-10
2.08606e-10
2.08775e-10
2.08939e-10
2.09097e-10
2.09247e-10
2.09388e-10
2.09521e-10
2.09645e-10
2.0976e-10
2.09867e-10
2.09966e-10
2.10058e-10
2.10144e-10
2.10224e-10
2.103e-10
2.10373e-10
2.10444e-10
2.10514e-10
2.10584e-10
2.10656e-10
2.10729e-10
2.10805e-10
2.10883e-10
2.10965e-10
2.1105e-10
2.11138e-10
2.1123e-10
2.11325e-10
2.11423e-10
2.11524e-10
2.11629e-10
2.11736e-10
2.11847e-10
2.1196e-10
2.12077e-10
2.12196e-10
2.12319e-10
2.12444e-10
2.12572e-10
2.12704e-10
2.12838e-10
2.12975e-10
2.13114e-10
2.13256e-10
2.13401e-10
2.13548e-10
2.13697e-10
2.13848e-10
2.14e-10
2.14154e-10
2.1431e-10
2.14467e-10
2.14625e-10
2.14785e-10
2.14946e-10
2.15108e-10
2.15271e-10
2.15436e-10
2.15602e-10
2.1577e-10
2.1594e-10
2.16112e-10
2.16286e-10
2.16462e-10
2.1664e-10
2.1682e-10
2.17003e-10
2.17187e-10
2.17374e-10
2.17564e-10
2.17756e-10
2.1795e-10
2.18146e-10
2.18345e-10
2.18545e-10
2.18749e-10
2.18954e-10
2.19162e-10
2.19372e-10
2.19585e-10
2.08291e-10
2.08134e-10
2.07988e-10
2.07852e-10
2.07727e-10
2.07613e-10
2.07511e-10
2.07419e-10
2.07338e-10
2.07269e-10
2.0721e-10
2.07162e-10
2.07125e-10
2.071e-10
2.07085e-10
2.0708e-10
2.07084e-10
2.07094e-10
2.07114e-10
2.07141e-10
2.07175e-10
2.07217e-10
2.07267e-10
2.07324e-10
2.0739e-10
2.07464e-10
2.07549e-10
2.07643e-10
2.07746e-10
2.0786e-10
2.07986e-10
2.08128e-10
2.08267e-10
2.08408e-10
2.08565e-10
2.08738e-10
2.08925e-10
2.09124e-10
2.09327e-10
2.09526e-10
2.09726e-10
2.09931e-10
2.1014e-10
2.1035e-10
2.10558e-10
2.10762e-10
2.1096e-10
2.1115e-10
2.11332e-10
2.11505e-10
2.11668e-10
2.11822e-10
2.11966e-10
2.12101e-10
2.12229e-10
2.12349e-10
2.12463e-10
2.12572e-10
2.12677e-10
2.1278e-10
2.12882e-10
2.12983e-10
2.13086e-10
2.13191e-10
2.13298e-10
2.13408e-10
2.13521e-10
2.13638e-10
2.13758e-10
2.13882e-10
2.14009e-10
2.14139e-10
2.14273e-10
2.1441e-10
2.1455e-10
2.14693e-10
2.14839e-10
2.14989e-10
2.15141e-10
2.15297e-10
2.15456e-10
2.15619e-10
2.15784e-10
2.15953e-10
2.16125e-10
2.163e-10
2.16478e-10
2.16659e-10
2.16842e-10
2.17028e-10
2.17216e-10
2.17407e-10
2.17599e-10
2.17793e-10
2.17988e-10
2.18185e-10
2.18384e-10
2.18584e-10
2.18785e-10
2.18988e-10
2.19193e-10
2.19399e-10
2.19607e-10
2.19817e-10
2.20029e-10
2.20243e-10
2.20459e-10
2.20677e-10
2.20898e-10
2.2112e-10
2.21346e-10
2.21573e-10
2.21802e-10
2.22034e-10
2.22269e-10
2.22505e-10
2.22744e-10
2.22985e-10
2.23228e-10
2.23473e-10
2.23721e-10
2.2397e-10
2.24223e-10
2.10361e-10
2.10219e-10
2.10086e-10
2.0996e-10
2.09844e-10
2.09737e-10
2.09639e-10
2.09551e-10
2.09471e-10
2.094e-10
2.09338e-10
2.09284e-10
2.09239e-10
2.09203e-10
2.09176e-10
2.09158e-10
2.09147e-10
2.09146e-10
2.0915e-10
2.09161e-10
2.0918e-10
2.09207e-10
2.09242e-10
2.09287e-10
2.09341e-10
2.09405e-10
2.09481e-10
2.09568e-10
2.09668e-10
2.09781e-10
2.09909e-10
2.10056e-10
2.10201e-10
2.10356e-10
2.1053e-10
2.10724e-10
2.10935e-10
2.1116e-10
2.11388e-10
2.11617e-10
2.11852e-10
2.12095e-10
2.12344e-10
2.12594e-10
2.12844e-10
2.13089e-10
2.13329e-10
2.13562e-10
2.13786e-10
2.14e-10
2.14204e-10
2.14397e-10
2.1458e-10
2.14753e-10
2.14917e-10
2.15074e-10
2.15223e-10
2.15367e-10
2.15506e-10
2.15643e-10
2.15779e-10
2.15915e-10
2.16051e-10
2.1619e-10
2.16331e-10
2.16475e-10
2.16622e-10
2.16772e-10
2.16926e-10
2.17083e-10
2.17244e-10
2.17408e-10
2.17575e-10
2.17745e-10
2.17919e-10
2.18096e-10
2.18276e-10
2.1846e-10
2.18646e-10
2.18836e-10
2.1903e-10
2.19227e-10
2.19427e-10
2.19631e-10
2.19838e-10
2.20048e-10
2.20262e-10
2.20479e-10
2.20698e-10
2.20921e-10
2.21145e-10
2.21372e-10
2.21601e-10
2.21831e-10
2.22063e-10
2.22297e-10
2.22532e-10
2.22768e-10
2.23006e-10
2.23245e-10
2.23486e-10
2.23728e-10
2.23972e-10
2.24218e-10
2.24465e-10
2.24714e-10
2.24965e-10
2.25219e-10
2.25474e-10
2.25731e-10
2.2599e-10
2.26251e-10
2.26514e-10
2.26779e-10
2.27046e-10
2.27315e-10
2.27585e-10
2.27858e-10
2.28132e-10
2.28409e-10
2.28687e-10
2.28967e-10
2.29248e-10
2.12774e-10
2.1265e-10
2.12531e-10
2.12419e-10
2.12313e-10
2.12215e-10
2.12124e-10
2.1204e-10
2.11964e-10
2.11894e-10
2.11831e-10
2.11774e-10
2.11725e-10
2.11682e-10
2.11647e-10
2.1162e-10
2.11599e-10
2.11587e-10
2.11582e-10
2.11584e-10
2.11593e-10
2.11609e-10
2.11636e-10
2.11673e-10
2.11721e-10
2.11781e-10
2.11854e-10
2.11942e-10
2.12044e-10
2.12162e-10
2.12299e-10
2.12455e-10
2.12612e-10
2.12787e-10
2.12986e-10
2.13206e-10
2.13445e-10
2.13699e-10
2.13957e-10
2.1422e-10
2.14493e-10
2.14776e-10
2.15065e-10
2.15357e-10
2.15648e-10
2.15936e-10
2.16217e-10
2.16491e-10
2.16756e-10
2.1701e-10
2.17252e-10
2.17484e-10
2.17704e-10
2.17913e-10
2.18113e-10
2.18304e-10
2.18488e-10
2.18666e-10
2.18839e-10
2.1901e-10
2.19179e-10
2.19348e-10
2.19518e-10
2.19689e-10
2.19863e-10
2.2004e-10
2.2022e-10
2.20403e-10
2.20589e-10
2.20779e-10
2.20971e-10
2.21167e-10
2.21366e-10
2.21569e-10
2.21774e-10
2.21982e-10
2.22194e-10
2.22409e-10
2.22627e-10
2.22848e-10
2.23073e-10
2.23302e-10
2.23533e-10
2.23769e-10
2.24007e-10
2.2425e-10
2.24495e-10
2.24743e-10
2.24994e-10
2.25247e-10
2.25503e-10
2.25761e-10
2.2602e-10
2.26281e-10
2.26543e-10
2.26807e-10
2.27071e-10
2.27337e-10
2.27603e-10
2.27871e-10
2.28139e-10
2.28409e-10
2.2868e-10
2.28952e-10
2.29226e-10
2.29501e-10
2.29777e-10
2.30055e-10
2.30334e-10
2.30615e-10
2.30897e-10
2.31181e-10
2.31466e-10
2.31752e-10
2.3204e-10
2.32328e-10
2.32618e-10
2.3291e-10
2.33202e-10
2.33496e-10
2.3379e-10
2.34086e-10
2.34382e-10
2.3468e-10
2.34978e-10
2.15517e-10
2.15412e-10
2.15311e-10
2.15214e-10
2.15122e-10
2.15035e-10
2.14953e-10
2.14877e-10
2.14806e-10
2.1474e-10
2.14679e-10
2.14623e-10
2.14573e-10
2.14528e-10
2.1449e-10
2.14457e-10
2.14432e-10
2.14413e-10
2.14403e-10
2.14401e-10
2.14405e-10
2.14418e-10
2.14441e-10
2.14476e-10
2.14524e-10
2.14586e-10
2.14663e-10
2.14757e-10
2.14868e-10
2.14998e-10
2.15149e-10
2.15319e-10
2.15496e-10
2.15698e-10
2.15925e-10
2.16175e-10
2.16447e-10
2.16731e-10
2.17021e-10
2.17321e-10
2.17634e-10
2.17956e-10
2.18285e-10
2.18616e-10
2.18946e-10
2.19272e-10
2.19591e-10
2.19902e-10
2.20202e-10
2.20491e-10
2.20768e-10
2.21032e-10
2.21284e-10
2.21525e-10
2.21756e-10
2.21977e-10
2.22191e-10
2.22399e-10
2.22602e-10
2.22802e-10
2.23001e-10
2.232e-10
2.23399e-10
2.236e-10
2.23803e-10
2.24008e-10
2.24216e-10
2.24428e-10
2.24642e-10
2.24859e-10
2.25079e-10
2.25301e-10
2.25527e-10
2.25755e-10
2.25987e-10
2.26221e-10
2.26458e-10
2.26698e-10
2.26942e-10
2.27188e-10
2.27438e-10
2.27691e-10
2.27947e-10
2.28207e-10
2.2847e-10
2.28736e-10
2.29005e-10
2.29276e-10
2.2955e-10
2.29825e-10
2.30103e-10
2.30382e-10
2.30662e-10
2.30944e-10
2.31226e-10
2.31508e-10
2.31792e-10
2.32075e-10
2.32359e-10
2.32643e-10
2.32928e-10
2.33213e-10
2.33499e-10
2.33785e-10
2.34072e-10
2.34359e-10
2.34647e-10
2.34936e-10
2.35225e-10
2.35516e-10
2.35806e-10
2.36098e-10
2.36389e-10
2.36682e-10
2.36975e-10
2.37268e-10
2.37561e-10
2.37855e-10
2.38149e-10
2.38443e-10
2.38737e-10
2.39031e-10
2.39326e-10
2.3962e-10
2.39914e-10
2.18557e-10
2.18473e-10
2.18391e-10
2.18311e-10
2.18234e-10
2.18161e-10
2.18091e-10
2.18024e-10
2.17961e-10
2.17902e-10
2.17846e-10
2.17794e-10
2.17746e-10
2.17703e-10
2.17665e-10
2.17632e-10
2.17606e-10
2.17586e-10
2.17575e-10
2.17574e-10
2.17578e-10
2.17592e-10
2.17618e-10
2.17657e-10
2.17711e-10
2.17781e-10
2.17869e-10
2.17975e-10
2.18101e-10
2.18247e-10
2.1842e-10
2.18606e-10
2.18811e-10
2.19044e-10
2.19302e-10
2.19585e-10
2.19889e-10
2.20203e-10
2.20526e-10
2.20863e-10
2.21213e-10
2.21572e-10
2.21936e-10
2.22301e-10
2.22663e-10
2.2302e-10
2.2337e-10
2.23709e-10
2.24037e-10
2.24353e-10
2.24655e-10
2.24944e-10
2.2522e-10
2.25485e-10
2.25739e-10
2.25983e-10
2.2622e-10
2.26451e-10
2.26677e-10
2.269e-10
2.27122e-10
2.27343e-10
2.27564e-10
2.27787e-10
2.28012e-10
2.28239e-10
2.28468e-10
2.287e-10
2.28934e-10
2.2917e-10
2.29409e-10
2.2965e-10
2.29894e-10
2.3014e-10
2.30389e-10
2.3064e-10
2.30894e-10
2.3115e-10
2.3141e-10