/*--------------------------------*- C++ -*----------------------------------*\
| =========                 |                                                 |
| \\      /  F ield         | OpenFOAM: The Open Source CFD Toolbox           |
|  \\    /   O peration     | Version:  v1706                                 |
|   \\  /    A nd           | Web:      www.OpenFOAM.com                      |
|    \\/     M anipulation  |                                                 |
\*---------------------------------------------------------------------------*/
FoamFile
{
    version     2.0;
    format      ascii;
    class       volScalarField;
    location    "1.1e-05";
    object      p;
}
// * * * * * * * * * * * * * * * * * * * * * * * * * * * * * * * * * * * * * //

dimensions      [1 -1 -2 0 0 0 0];


internalField   nonuniform List<scalar> 
29871
(
21.9414
21.9403
21.9392
21.9382
21.9373
21.9365
21.9357
21.935
21.9343
21.9337
21.9332
21.9328
21.9324
21.9321
21.9318
21.9316
21.9314
21.9312
21.9312
21.9311
21.9311
21.9311
21.9312
21.9312
21.9313
21.9314
21.9315
21.9317
21.9318
21.932
21.9322
21.9324
21.9326
21.9328
21.933
21.9332
21.9334
21.9337
21.9339
21.9341
21.9344
21.9346
21.9349
21.9351
21.9354
21.9357
21.9359
21.9362
21.9365
21.9368
21.937
21.9373
21.9376
21.9379
21.9381
21.9384
21.9387
21.9389
21.9392
21.9394
21.9397
21.9399
21.9402
21.9404
21.9406
21.9408
21.941
21.9413
21.9415
21.9416
21.9418
21.942
21.9422
21.9424
21.9426
21.9428
21.9429
21.9431
21.9433
21.9435
21.9437
21.9438
21.944
21.9442
21.9444
21.9446
21.9447
21.9449
21.9451
21.9453
21.9455
21.9457
21.9459
21.9461
21.9463
21.9465
21.9467
21.9469
21.9472
21.9474
21.9476
21.9478
21.9481
21.9483
21.9485
22.077
22.071
22.0652
22.0597
22.0545
22.0497
22.0452
22.041
22.0372
22.0337
22.0307
22.0279
22.0255
22.0235
22.0218
22.0204
22.0193
22.0185
22.018
22.0178
22.0177
22.0179
22.0182
22.0187
22.0193
22.0201
22.021
22.022
22.0232
22.0244
22.0256
22.027
22.0283
22.0297
22.0312
22.0327
22.0342
22.0357
22.0372
22.0388
22.0403
22.0419
22.0435
22.0451
22.0467
22.0483
22.0499
22.0516
22.0533
22.0549
22.0566
22.0583
22.06
22.0617
22.0634
22.0651
22.0667
22.0684
22.0701
22.0717
22.0734
22.075
22.0766
22.0782
22.0798
22.0813
22.0829
22.0844
22.086
22.0875
22.089
22.0905
22.092
22.0936
22.0951
22.0966
22.0982
22.0998
22.1013
22.1029
22.1046
22.1062
22.1079
22.1096
22.1113
22.113
22.1147
22.1165
22.1183
22.1202
22.122
22.1239
22.1258
22.1277
22.1296
22.1316
22.1336
22.1356
22.1377
22.1397
22.1418
22.1439
22.146
22.1481
22.1503
22.4324
22.4128
22.3942
22.3766
22.36
22.3445
22.3301
22.3168
22.3046
22.2936
22.2836
22.2746
22.2668
22.2599
22.2541
22.2493
22.2455
22.2425
22.2404
22.2392
22.2387
22.2389
22.2397
22.241
22.2429
22.2452
22.2479
22.251
22.2545
22.2583
22.2623
22.2665
22.2709
22.2755
22.2802
22.2851
22.29
22.2951
22.3002
22.3054
22.3107
22.3161
22.3216
22.3272
22.3329
22.3386
22.3445
22.3504
22.3565
22.3626
22.3688
22.375
22.3814
22.3878
22.3942
22.4007
22.4071
22.4136
22.4201
22.4266
22.4331
22.4395
22.4458
22.4522
22.4584
22.4646
22.4708
22.4768
22.4829
22.4888
22.4948
22.5007
22.5065
22.5124
22.5182
22.5241
22.53
22.5358
22.5418
22.5477
22.5537
22.5597
22.5658
22.5719
22.5781
22.5844
22.5907
22.5971
22.6036
22.6101
22.6168
22.6235
22.6302
22.6371
22.644
22.651
22.6581
22.6653
22.6726
22.68
22.6874
22.695
22.7027
22.7104
22.7183
22.7262
23.252
23.2039
23.1579
23.1142
23.0728
23.0339
22.9977
22.9641
22.9333
22.9053
22.8801
22.8579
22.8385
22.8219
22.8081
22.7968
22.7881
22.7818
22.778
22.7765
22.7765
22.7783
22.7817
22.7868
22.7932
22.8008
22.8096
22.8194
22.8301
22.8416
22.8537
22.8664
22.8797
22.8934
22.9074
22.9218
22.9364
22.9513
22.9664
22.9818
22.9974
23.0131
23.0291
23.0453
23.0618
23.0785
23.0954
23.1125
23.1299
23.1475
23.1653
23.1834
23.2016
23.22
23.2386
23.2573
23.2761
23.295
23.3139
23.3329
23.3519
23.3709
23.3898
23.4088
23.4276
23.4464
23.4652
23.4839
23.5026
23.5213
23.54
23.5587
23.5774
23.5962
23.6151
23.6342
23.6534
23.6727
23.6923
23.7121
23.7322
23.7525
23.7732
23.7942
23.8155
23.8371
23.8591
23.8814
23.9042
23.9273
23.9508
23.9747
23.999
24.0236
24.0487
24.0742
24.1002
24.1265
24.1532
24.1804
24.208
24.236
24.2644
24.2932
24.3224
24.3521
25.1721
25.0558
24.9452
24.8404
24.7417
24.6493
24.5632
24.4836
24.4105
24.3439
24.2839
24.2303
24.1831
24.1422
24.1076
24.0794
24.0576
24.0414
24.0307
24.0262
24.0256
24.0293
24.0376
24.0499
24.0656
24.0846
24.1066
24.1313
24.1583
24.1873
24.2181
24.2504
24.284
24.3186
24.3543
24.3908
24.4281
24.4661
24.5049
24.5444
24.5846
24.6255
24.6673
24.7099
24.7533
24.7977
24.843
24.8893
24.9366
24.9849
25.0342
25.0845
25.1358
25.1881
25.2413
25.2953
25.3502
25.4058
25.462
25.5189
25.5761
25.6338
25.6917
25.7499
25.8081
25.8664
25.9246
25.9828
26.0408
26.0988
26.1566
26.2142
26.2718
26.3293
26.3869
26.4445
26.5023
26.5603
26.6187
26.6773
26.7365
26.7961
26.8563
26.9171
26.9785
27.0406
27.1035
27.167
27.2314
27.2966
27.3626
27.4295
27.4972
27.5659
27.6356
27.7062
27.7778
27.8504
27.9241
27.9989
28.0747
28.1518
28.23
28.3094
28.3901
28.472
28.5552
29.1687
28.9243
28.6895
28.4655
28.2532
28.0536
27.8675
27.6957
27.5385
27.3965
27.27
27.1591
27.0638
26.984
26.9193
26.8687
26.8307
26.8068
26.7991
26.7993
26.8102
26.8317
26.8628
26.9029
26.9512
27.0067
27.0686
27.1363
27.2091
27.2863
27.3675
27.4521
27.5397
27.63
27.7226
27.8173
27.9139
28.0123
28.1124
28.2142
28.3176
28.4227
28.5296
28.6382
28.7486
28.861
28.9754
29.0919
29.2106
29.3316
29.4547
29.5801
29.7077
29.8375
29.9692
30.103
30.2385
30.3757
30.5144
30.6544
30.7956
30.9378
31.0808
31.2245
31.3688
31.5136
31.6588
31.8045
31.9505
32.097
32.244
32.3916
32.5399
32.6889
32.8389
32.99
33.1423
33.2961
33.4516
33.6091
33.7687
33.9308
34.0954
34.263
34.4335
34.6074
34.7846
34.9656
35.1503
35.3391
35.532
35.7292
35.931
36.1374
36.3486
36.5648
36.7862
37.0128
37.2449
37.4827
37.7261
37.9756
38.231
38.4927
38.7607
39.0352
39.3163
38.3486
37.8215
37.3161
36.8337
36.3754
35.942
35.5337
35.151
34.7938
34.4626
34.1579
33.8803
33.6303
33.4085
33.2153
33.0504
32.9137
32.8058
32.7275
32.6837
32.6672
32.6698
32.6958
32.7459
32.817
32.9074
33.0158
33.1408
33.2808
33.4342
33.5993
33.7746
33.9587
34.1501
34.3476
34.5503
34.7571
34.9675
35.1811
35.3977
35.6173
35.8399
36.0658
36.2954
36.5289
36.767
37.0101
37.2586
37.513
37.7737
38.0411
38.3156
38.5975
38.887
39.1845
39.4902
39.804
40.1263
40.457
40.7961
41.1436
41.4992
41.8628
42.2341
42.6127
42.9983
43.3904
43.7884
44.192
44.6005
45.0135
45.4305
45.8509
46.2746
46.7011
47.1303
47.562
47.996
48.4304
48.8648
49.2994
49.7343
50.1699
50.6063
51.0436
51.4818
51.921
52.3609
52.8016
53.2428
53.6844
54.126
54.5675
55.0086
55.449
55.8884
56.3266
56.7632
57.198
57.6307
58.0612
58.489
58.9141
59.3362
59.7551
60.1707
60.5827
60.9909
61.3952
61.7956
53.0535
52.2502
51.4486
50.6555
49.8788
49.1274
48.4101
47.7349
47.1086
46.5351
46.0172
45.5577
45.1584
44.8186
44.5378
44.3157
44.1532
44.0519
43.9972
43.9847
44.0182
44.1098
44.2426
44.4142
44.6251
44.8717
45.1501
45.4573
45.7905
46.1471
46.5242
46.9192
47.3301
47.7554
48.1938
48.6424
49.0985
49.5612
50.0299
50.5039
50.9827
51.4661
51.9537
52.4453
52.9407
53.4396
53.9419
54.4473
54.9558
55.4671
55.9808
56.4968
57.0147
57.5339
58.0538
58.5738
59.0931
59.6107
60.1257
60.637
61.1436
61.6439
62.1368
62.6215
63.0972
63.563
64.0182
64.4623
64.8948
65.3155
65.7241
66.1208
66.5055
66.8784
67.2397
67.5898
67.9288
68.2576
68.578
68.8911
69.1973
69.4967
69.7898
70.0769
70.3583
70.6346
70.9063
71.1738
71.4377
71.6982
71.9559
72.211
72.4637
72.7144
72.9632
73.2102
73.4557
73.6998
73.9424
74.1838
74.4239
74.6627
74.9003
75.1367
75.3718
75.6055
75.8379
76.0688
76.2982
76.5259
66.071
65.6207
65.1893
64.7761
64.38
63.998
63.6251
63.2623
62.9127
62.5811
62.2688
61.9766
61.7219
61.5148
61.3655
61.2775
61.2473
61.2485
61.3313
61.5086
61.7198
61.9688
62.258
62.5893
62.9603
63.362
63.7856
64.2231
64.6683
65.1177
65.569
66.0197
66.4662
66.9046
67.3313
67.745
68.1451
68.5302
68.8995
69.2529
69.591
69.9148
70.2254
70.5245
70.8135
71.094
71.3671
71.6341
71.8958
72.1528
72.406
72.6555
72.9018
73.1454
73.3865
73.6253
73.862
74.0971
74.3305
74.5621
74.7922
75.0225
75.2534
75.4842
75.7145
75.9445
76.1743
76.4036
76.6321
76.8596
77.0857
77.3099
77.5317
77.7506
77.9662
78.178
78.3857
78.589
78.7878
78.9818
79.1711
79.3557
79.5357
79.7113
79.8829
80.0505
80.2144
80.3747
80.5314
80.6846
80.8342
80.9802
81.1225
81.261
81.3955
81.5258
81.6519
81.7735
81.8905
82.0028
82.1102
82.2127
82.3103
82.4028
82.4903
82.5729
82.6507
82.7237
82.7921
82.8561
73.6906
73.3647
73.0616
72.7896
72.5555
72.3679
72.236
72.1641
72.1576
72.2034
72.2679
72.3815
72.5646
72.7722
72.9966
73.2665
73.5451
73.785
74.0574
74.3909
74.7255
75.0391
75.3655
75.6926
75.9958
76.2791
76.5479
76.8049
77.0504
77.2792
77.4856
77.6688
77.8311
77.976
78.1072
78.2286
78.3431
78.4531
78.561
78.6684
78.7768
78.8869
78.999
79.1129
79.2287
79.3463
79.4654
79.586
79.7078
79.8305
79.9538
80.0775
80.2017
80.3264
80.4511
80.5756
80.7002
80.8251
80.9495
81.0728
81.1963
81.3192
81.4388
81.5557
81.6708
81.7836
81.893
81.9989
82.1016
82.2009
82.2965
82.3882
82.476
82.5598
82.6394
82.715
82.7864
82.8537
82.9169
82.9759
83.0308
83.0818
83.1291
83.1727
83.2128
83.2497
83.2837
83.315
83.3441
83.3714
83.3972
83.4219
83.4458
83.4691
83.4919
83.5146
83.5371
83.5596
83.5822
83.6049
83.6278
83.6508
83.6742
83.6977
83.7215
83.7455
83.7697
83.794
83.8185
83.8429
76.3143
76.3496
76.4153
76.5008
76.5939
76.7107
76.8243
76.9228
77.0524
77.2401
77.4289
77.5919
77.7713
78.0186
78.3349
78.6871
78.9733
79.2623
79.6151
79.9658
80.2587
80.5679
80.8477
81.076
81.298
81.507
81.6951
81.8631
82.0031
82.1246
82.2377
82.3448
82.4447
82.5372
82.6228
82.7027
82.777
82.8455
82.9074
82.9615
83.0064
83.0434
83.0722
83.0933
83.1078
83.1168
83.1212
83.122
83.12
83.116
83.1104
83.1039
83.0973
83.0897
83.0817
83.0746
83.0684
83.0632
83.0613
83.0613
83.0598
83.0594
83.0677
83.0822
83.0974
83.1147
83.1364
83.1631
83.1935
83.2269
83.2635
83.3029
83.3446
83.388
83.4326
83.4778
83.523
83.5677
83.6113
83.6535
83.6939
83.7325
83.7689
83.8031
83.8351
83.865
83.893
83.9193
83.9439
83.967
83.9889
84.0098
84.0298
84.0492
84.0681
84.0865
84.1047
84.1226
84.1403
84.1579
84.1755
84.193
84.2105
84.228
84.2455
84.263
84.2806
84.2983
84.3161
84.334
76.899
76.9537
77.0388
77.162
77.3161
77.5044
77.7298
77.9902
78.2858
78.6159
78.9769
79.3588
79.74
80.1123
80.4949
80.9053
81.3036
81.6342
81.9739
82.3735
82.6641
82.917
83.2092
83.4419
83.6126
83.767
83.9087
84.0302
84.1293
84.2065
84.2676
84.3157
84.3399
84.3404
84.3304
84.313
84.2875
84.2549
84.2173
84.1767
84.1344
84.0917
84.0502
84.0097
83.9705
83.9328
83.8967
83.8623
83.8297
83.799
83.7702
83.7435
83.7187
83.6955
83.6738
83.6539
83.6363
83.6202
83.6063
83.596
83.5883
83.5799
83.5728
83.5749
83.5815
83.589
83.5988
83.6125
83.6311
83.654
83.6795
83.7079
83.7394
83.7735
83.8096
83.8474
83.8863
83.9259
83.9656
84.005
84.0435
84.081
84.1171
84.1517
84.1845
84.2151
84.2431
84.2684
84.2919
84.3139
84.3345
84.3537
84.3717
84.3886
84.4046
84.42
84.435
84.4496
84.4638
84.4778
84.4917
84.5054
84.5191
84.5327
84.5464
84.5602
84.5741
84.5882
84.6025
84.6171
84.632
77.243
77.3482
77.4838
77.6532
77.8497
78.0757
78.3329
78.621
78.9374
79.2796
79.6437
80.0213
80.3982
80.773
81.1557
81.5487
81.9187
82.2554
82.6079
82.9683
83.2434
83.5055
83.79
84.0035
84.1581
84.288
84.4009
84.4971
84.5791
84.6494
84.7086
84.747
84.7593
84.7562
84.7468
84.7321
84.7105
84.6818
84.6471
84.6084
84.5673
84.5247
84.4817
84.4388
84.3965
84.3547
84.3145
84.2756
84.2383
84.2028
84.1693
84.138
84.1087
84.0816
84.0564
84.0335
84.0131
83.9948
83.9784
83.9643
83.9523
83.9411
83.9319
83.9281
83.9288
83.9321
83.9373
83.9456
83.9595
83.9774
83.9967
84.0188
84.0452
84.0741
84.1049
84.1375
84.1716
84.2067
84.2422
84.2776
84.3121
84.3452
84.3768
84.407
84.4355
84.4619
84.4855
84.5069
84.5272
84.5458
84.5629
84.5784
84.5928
84.6062
84.619
84.6315
84.6436
84.6555
84.6672
84.6788
84.6905
84.7023
84.7142
84.7263
84.7385
84.751
84.7637
84.7766
84.7897
84.8031
84.8165
84.8301
84.8437
77.5108
77.6533
77.8241
78.0247
78.2509
78.5098
78.7981
79.1106
79.4441
79.7958
80.1626
80.5378
80.9131
81.286
81.66
82.0325
82.3842
82.716
83.0581
83.3894
83.6476
83.9011
84.1729
84.3718
84.5138
84.6324
84.7351
84.8231
84.9009
84.974
85.0355
85.0698
85.0792
85.0766
85.0687
85.0563
85.038
85.0138
84.9842
84.9497
84.9107
84.8687
84.8254
84.7815
84.7375
84.6938
84.6507
84.6086
84.5678
84.5286
84.4911
84.4554
84.4216
84.3897
84.3597
84.3315
84.3052
84.2805
84.2579
84.2377
84.2198
84.204
84.1908
84.1808
84.1746
84.1719
84.1722
84.1758
84.1836
84.1953
84.2096
84.2269
84.2481
84.2721
84.2984
84.3266
84.3564
84.3872
84.4186
84.4499
84.4807
84.5108
84.5399
84.5678
84.5941
84.6185
84.641
84.6617
84.681
84.6985
84.7143
84.7288
84.7423
84.755
84.7673
84.7792
84.7908
84.8023
84.8138
84.8253
84.837
84.8487
84.8607
84.8728
84.885
84.8974
84.9099
84.9225
84.9351
84.9478
84.9604
84.973
84.9856
77.4757
77.5911
77.7396
77.9162
78.1195
78.3516
78.6066
78.8855
79.1871
79.5099
79.8508
80.2063
80.5722
80.9424
81.3121
81.6798
82.0454
82.4013
82.7363
83.0589
83.3893
83.6923
83.9389
84.1866
84.4565
84.6524
84.79
84.9059
85.0072
85.096
85.1793
85.2611
85.3271
85.361
85.3708
85.3704
85.3648
85.3534
85.3349
85.3091
85.2759
85.2363
85.1924
85.1458
85.0976
85.0488
84.9999
84.9514
84.9036
84.8568
84.8113
84.7672
84.7248
84.6842
84.6455
84.6088
84.5741
84.5415
84.5111
84.4831
84.4576
84.4346
84.4139
84.3957
84.38
84.3673
84.3577
84.3515
84.3487
84.3494
84.3537
84.3615
84.3726
84.3869
84.4044
84.4248
84.4478
84.4728
84.4997
84.5278
84.5568
84.5862
84.6157
84.6448
84.6732
84.7004
84.7263
84.7506
84.7731
84.794
84.8132
84.8306
84.8465
84.8612
84.8749
84.888
84.9006
84.9128
84.9247
84.9365
84.9483
84.9601
84.972
84.9839
84.996
85.0081
85.0202
85.0324
85.0445
85.0567
85.0687
85.0807
85.0927
85.1045
85.1162
77.6507
77.7939
77.9663
78.1661
78.3912
78.6412
78.9143
79.2061
79.5165
79.8439
80.1859
80.5391
80.8991
81.2612
81.6219
81.98
82.3329
82.6731
82.9958
83.3103
83.623
83.9049
84.1463
84.3915
84.6634
84.8632
84.9994
85.1162
85.221
85.3159
85.4078
85.4986
85.5695
85.6047
85.6159
85.6173
85.6125
85.6002
85.5791
85.5492
85.5116
85.468
85.4203
85.3697
85.3173
85.2642
85.2111
85.1585
85.1066
85.0558
85.0063
84.9584
84.9123
84.8683
84.8266
84.7872
84.7503
84.7159
84.6841
84.6547
84.6278
84.6033
84.5812
84.5615
84.5444
84.5301
84.5187
84.5103
84.5053
84.5037
84.5055
84.5107
84.5192
84.531
84.5459
84.5638
84.5844
84.6074
84.6324
84.659
84.6868
84.7153
84.7441
84.7727
84.8008
84.8278
84.8536
84.8779
84.9007
84.9217
84.941
84.9586
84.9749
84.99
85.0042
85.0176
85.0305
85.0429
85.055
85.0669
85.0787
85.0905
85.1023
85.114
85.1257
85.1374
85.1491
85.1607
85.1721
85.1835
85.1948
85.2059
85.2168
85.2276
85.2382
85.2486
77.3761
77.3663
77.3804
77.42
77.4866
77.5795
77.6971
77.8387
78.0046
78.195
78.4096
78.647
78.906
79.185
79.4822
79.7939
80.1192
80.4559
80.801
81.151
81.5023
81.8524
82.1992
82.5396
82.8683
83.1843
83.4926
83.7921
84.0639
84.3059
84.553
84.8295
85.0344
85.1717
85.2924
85.404
85.5076
85.6096
85.7088
85.7833
85.8211
85.8355
85.8393
85.8353
85.8223
85.7994
85.7671
85.7269
85.6803
85.6291
85.5746
85.5181
85.4608
85.4035
85.3467
85.2908
85.2363
85.1833
85.1322
85.0834
85.037
84.9933
84.9523
84.914
84.8784
84.8453
84.8148
84.7867
84.7609
84.7375
84.7165
84.6981
84.6823
84.6692
84.6592
84.6522
84.6486
84.6483
84.6514
84.6578
84.6677
84.6807
84.6968
84.7158
84.7373
84.7611
84.7866
84.8135
84.8414
84.8696
84.8978
84.9255
84.9523
84.9781
85.0024
85.0252
85.0463
85.0657
85.0836
85.1001
85.1154
85.1297
85.1431
85.1559
85.1682
85.1801
85.1918
85.2032
85.2145
85.2257
85.2368
85.2478
85.2587
85.2695
85.2801
85.2906
85.3009
85.311
85.321
85.3307
85.3402
85.3495
85.3587
77.4262
77.4406
77.48
77.5427
77.6292
77.7403
77.8755
78.0339
78.2146
78.4168
78.6399
78.883
79.1449
79.4241
79.7187
80.0275
80.3473
80.6762
81.0119
81.3516
81.6927
82.0329
82.3699
82.7008
83.0225
83.3347
83.6392
83.932
84.201
84.4469
84.7009
84.984
85.1893
85.3293
85.4569
85.5772
85.6912
85.8043
85.9104
85.986
86.0266
86.0457
86.0529
86.0502
86.0369
86.0128
85.9785
85.9356
85.8859
85.8308
85.7721
85.7113
85.6496
85.5878
85.5267
85.4668
85.4086
85.3523
85.2984
85.2471
85.1985
85.1528
85.1101
85.0702
85.033
84.9985
84.9665
84.937
84.9098
84.885
84.8626
84.8426
84.8252
84.8106
84.7989
84.7902
84.7848
84.7828
84.7842
84.789
84.7973
84.8089
84.8237
84.8415
84.862
84.8849
84.9097
84.9359
84.9632
84.991
85.0188
85.0463
85.073
85.0986
85.1228
85.1455
85.1664
85.1858
85.2035
85.2199
85.2349
85.2489
85.262
85.2743
85.2861
85.2974
85.3084
85.3191
85.3295
85.3399
85.35
85.36
85.3698
85.3795
85.3889
85.3982
85.4074
85.4163
85.4251
85.4337
85.4421
85.4504
85.4586
77.5213
77.5533
77.6103
77.6899
77.7915
77.9152
78.061
78.2286
78.4168
78.6245
78.8509
79.095
79.3557
79.6317
79.9215
80.2235
80.5357
80.8572
81.1842
81.515
81.8476
82.18
82.5098
82.8346
83.1525
83.4631
83.7659
84.0567
84.3267
84.579
84.8449
85.1342
85.332
85.4773
85.6147
85.7456
85.8711
85.996
86.1065
86.1819
86.2256
86.2498
86.2609
86.2598
86.2463
86.2207
86.1842
86.1384
86.0852
86.0262
85.9634
85.8983
85.8321
85.766
85.7007
85.6369
85.575
85.5154
85.4585
85.4044
85.3534
85.3055
85.2607
85.2189
85.1799
85.1437
85.11
85.0787
85.0499
85.0234
84.9993
84.9777
84.9587
84.9425
84.9292
84.9191
84.9122
84.9088
84.9088
84.9124
84.9196
84.9302
84.9441
84.9611
84.9809
85.0032
85.0274
85.0533
85.0802
85.1077
85.1353
85.1625
85.1889
85.2142
85.238
85.2602
85.2808
85.2996
85.3169
85.3326
85.3471
85.3604
85.3727
85.3843
85.3952
85.4056
85.4156
85.4254
85.4348
85.4441
85.4532
85.4622
85.4709
85.4795
85.488
85.4964
85.5045
85.5126
85.5206
85.5285
85.5363
85.544
85.5517
77.6454
77.6912
77.7603
77.8508
77.9619
78.0934
78.2452
78.4167
78.6072
78.8159
79.0416
79.2834
79.5404
79.8113
80.0951
80.3901
80.6949
81.0078
81.3275
81.6516
81.9777
82.3043
82.6294
82.9509
83.2674
83.5779
83.8811
84.1725
84.4455
84.7066
84.9889
85.276
85.4621
85.6169
85.767
85.9097
86.0477
86.1832
86.2952
86.3704
86.4174
86.4464
86.4609
86.4612
86.4474
86.4203
86.3816
86.333
86.2765
86.214
86.1474
86.0783
86.0082
85.938
85.8687
85.8011
85.7356
85.6727
85.6127
85.5558
85.5021
85.4517
85.4046
85.3605
85.3194
85.2811
85.2454
85.2122
85.1814
85.153
85.1271
85.1038
85.0832
85.0655
85.0508
85.0394
85.0313
85.0268
85.0258
85.0286
85.035
85.045
85.0584
85.075
85.0944
85.1164
85.1405
85.1661
85.1928
85.2201
85.2473
85.2741
85.3
85.3247
85.3479
85.3694
85.3892
85.4073
85.4237
85.4386
85.4522
85.4645
85.476
85.4866
85.4965
85.506
85.5151
85.5239
85.5325
85.5409
85.5491
85.5573
85.5653
85.5732
85.581
85.5887
85.5964
85.604
85.6116
85.6192
85.6268
85.6344
85.6421
85.6498
85.6575
77.7885
77.8451
77.9224
78.0193
78.1354
78.2707
78.4246
78.5968
78.7866
78.9932
79.2158
79.4535
79.7053
79.9704
80.2477
80.536
80.8339
81.1399
81.4526
81.7714
82.0928
82.4154
82.7377
83.0578
83.3742
83.6859
83.9907
84.2841
84.5612
84.834
85.1332
85.4007
85.5826
85.7517
85.9154
86.07
86.2208
86.3636
86.4743
86.5494
86.5999
86.633
86.6501
86.6514
86.6372
86.609
86.5685
86.5177
86.4586
86.3933
86.3237
86.2513
86.1777
86.104
86.0312
85.96
85.8911
85.825
85.7618
85.702
85.6455
85.5925
85.5427
85.4961
85.4526
85.4119
85.3738
85.3384
85.3055
85.2752
85.2475
85.2225
85.2004
85.1813
85.1654
85.1529
85.1439
85.1387
85.1371
85.1394
85.1455
85.1552
85.1685
85.1851
85.2045
85.2265
85.2506
85.2761
85.3027
85.3296
85.3565
85.3828
85.408
85.4319
85.4543
85.4749
85.4937
85.5108
85.5262
85.5401
85.5526
85.5641
85.5746
85.5843
85.5934
85.6021
85.6105
85.6186
85.6266
85.6344
85.6421
85.6498
85.6575
85.6651
85.6727
85.6804
85.688
85.6957
85.7035
85.7114
85.7193
85.7274
85.7356
85.7439
85.7524
77.9478
78.0125
78.0946
78.1943
78.3123
78.4482
78.6017
78.7723
78.9594
79.1624
79.3805
79.6131
79.8594
80.1185
80.3895
80.6715
80.9633
81.2635
81.5708
81.885
82.2027
82.5226
82.8434
83.163
83.48
83.7931
84.1
84.3958
84.6782
84.9653
85.2729
85.5091
85.6995
85.8847
86.0613
86.227
86.3893
86.5344
86.6421
86.7179
86.7718
86.8081
86.8272
86.8293
86.8151
86.7863
86.7447
86.6926
86.6319
86.5646
86.4928
86.4179
86.3416
86.265
86.1892
86.1149
86.0429
85.9736
85.9075
85.8447
85.7853
85.7294
85.6769
85.6276
85.5813
85.538
85.4976
85.4598
85.4248
85.3926
85.3631
85.3366
85.3131
85.2929
85.2761
85.2628
85.2533
85.2476
85.2459
85.2481
85.2543
85.2643
85.2778
85.2947
85.3145
85.3367
85.3609
85.3865
85.4129
85.4396
85.466
85.4916
85.5161
85.5391
85.5604
85.58
85.5978
85.6138
85.6282
85.6412
85.6529
85.6635
85.6733
85.6825
85.6911
85.6995
85.7076
85.7156
85.7235
85.7314
85.7393
85.7473
85.7553
85.7635
85.7717
85.78
85.7885
85.7971
85.8058
85.8147
85.8238
85.8329
85.8422
85.8517
85.8612
78.0734
78.1258
78.1943
78.278
78.3786
78.4963
78.6309
78.7822
78.9497
79.133
79.3315
79.5447
79.7719
80.0125
80.2658
80.5311
80.8074
81.0938
81.3889
81.6922
82.0024
82.3169
82.6348
82.9544
83.2737
83.5912
83.9055
84.2139
84.5119
84.8017
85.1043
85.3986
85.6148
85.8201
86.0196
86.206
86.3815
86.5515
86.6944
86.7994
86.8766
86.9337
86.9728
86.9936
86.9964
86.9826
86.9539
86.9122
86.8596
86.7982
86.73
86.6568
86.5804
86.5021
86.4232
86.3449
86.2681
86.1933
86.1212
86.0522
85.9865
85.9242
85.8654
85.81
85.7578
85.7088
85.6629
85.62
85.58
85.543
85.5089
85.4779
85.45
85.4255
85.4044
85.387
85.3733
85.3636
85.358
85.3565
85.3592
85.3659
85.3765
85.3908
85.4083
85.4287
85.4514
85.476
85.5017
85.5281
85.5545
85.5804
85.6054
85.6291
85.6513
85.6717
85.6904
85.7073
85.7226
85.7364
85.7488
85.7601
85.7706
85.7803
85.7895
85.7984
85.807
85.8156
85.8241
85.8326
85.8412
85.8498
85.8585
85.8674
85.8762
85.8852
85.8941
85.9032
85.9122
85.9212
85.9301
85.9391
85.948
85.9569
85.9657
85.9745
78.2747
78.3271
78.3908
78.4753
78.5773
78.6939
78.8257
78.9734
79.1369
79.3159
79.5096
79.7177
79.9397
80.1749
80.4228
80.6827
80.9539
81.2354
81.5263
81.8262
82.1324
82.4443
82.7602
83.0785
83.3972
83.7147
84.0289
84.3372
84.6377
84.9394
85.2524
85.5115
85.7328
85.9511
86.1592
86.3513
86.5343
86.7072
86.8457
86.9494
87.029
87.0893
87.1306
87.153
87.157
87.1441
87.1162
87.0751
87.023
86.9617
86.8933
86.8196
86.7423
86.6627
86.5823
86.502
86.423
86.3458
86.2712
86.1995
86.131
86.0658
86.0041
85.9458
85.8908
85.8392
85.7908
85.7455
85.7035
85.6646
85.6289
85.5966
85.5677
85.5424
85.5208
85.5031
85.4896
85.4802
85.4752
85.4746
85.4782
85.486
85.4978
85.5133
85.5319
85.5533
85.5769
85.6021
85.6283
85.6548
85.6811
85.7068
85.7314
85.7545
85.776
85.7958
85.8138
85.8302
85.8449
85.8583
85.8704
85.8815
85.8918
85.9015
85.9107
85.9196
85.9282
85.9366
85.945
85.9532
85.9615
85.9697
85.978
85.9862
85.9946
86.0031
86.0116
86.0203
86.0291
86.0381
86.0473
86.0567
86.0663
86.0762
86.0863
86.0969
86.1081
86.12
78.5182
78.5436
78.6012
78.6953
78.8004
78.9131
79.0398
79.1831
79.3423
79.5167
79.7057
79.9088
80.1257
80.3559
80.5988
80.8538
81.1202
81.3974
81.6849
81.9805
82.2836
82.5928
82.9064
83.2229
83.5404
83.8568
84.1691
84.4756
84.7818
85.1005
85.3987
85.6386
85.8696
86.0942
86.305
86.5004
86.6887
86.8603
86.9951
87.0991
87.1814
87.2444
87.2878
87.3118
87.3173
87.3059
87.2793
87.2395
87.1884
87.128
87.06
86.9864
86.9086
86.8283
86.7467
86.6649
86.5841
86.5048
86.4278
86.3535
86.2824
86.2145
86.15
86.089
86.0314
85.9773
85.9266
85.8794
85.8355
85.7951
85.7582
85.725
85.6955
85.6699
85.6484
85.6312
85.6184
85.6101
85.6064
85.6072
85.6125
85.6221
85.6356
85.6526
85.6728
85.6954
85.7199
85.7457
85.7722
85.7987
85.8247
85.8497
85.8734
85.8954
85.9157
85.9341
85.9507
85.9656
85.979
85.991
86.0019
86.012
86.0214
86.0303
86.039
86.0477
86.0563
86.065
86.0738
86.0829
86.0922
86.1017
86.1117
86.1222
86.1332
86.145
86.1576
86.1712
86.1856
86.2012
86.2178
86.2357
86.2544
86.2736
86.2932
86.3128
86.3324
86.3519
78.784
78.7753
78.8415
78.953
79.0544
79.1584
79.2795
79.4186
79.5737
79.7435
79.9279
80.1263
80.3384
80.5639
80.8021
81.0526
81.3149
81.5884
81.8715
82.1636
82.4633
82.7694
83.0803
83.3945
83.7099
84.0236
84.3323
84.6389
84.9562
85.2804
85.5511
85.7912
86.0265
86.2529
86.4643
86.6615
86.8514
87.0194
87.1517
87.257
87.3419
87.4071
87.4524
87.4781
87.4853
87.4757
87.4508
87.4127
87.363
87.3036
87.2364
87.1631
87.0853
87.0045
86.922
86.839
86.7565
86.6754
86.5962
86.5197
86.446
86.3757
86.3087
86.2453
86.1854
86.1292
86.0766
86.0276
85.9823
85.9408
85.903
85.8693
85.8396
85.8142
85.7933
85.7769
85.7653
85.7584
85.7562
85.7588
85.7658
85.777
85.792
85.8103
85.8314
85.8546
85.8794
85.905
85.9308
85.9565
85.9813
86.0051
86.0275
86.0484
86.0676
86.0851
86.1012
86.1158
86.1293
86.142
86.154
86.1656
86.1772
86.189
86.2013
86.2142
86.2281
86.2431
86.2592
86.276
86.2935
86.3116
86.33
86.3486
86.3671
86.3855
86.4039
86.4222
86.4402
86.4576
86.4742
86.4894
86.5038
86.5175
86.5302
86.5415
86.551
86.5593
79.075
79.0467
79.1292
79.2458
79.3375
79.434
79.5514
79.687
79.8379
80.0034
80.1833
80.3773
80.5851
80.8061
81.0401
81.2866
81.5451
81.8142
82.0935
82.3819
82.678
82.9806
83.2883
83.5996
83.9118
84.221
84.5267
84.8387
85.1653
85.4693
85.7273
85.972
86.2098
86.4358
86.6463
86.8431
87.0311
87.1951
87.3261
87.4328
87.5197
87.5867
87.6335
87.6609
87.67
87.6622
87.6392
87.6026
87.5544
87.4963
87.4299
87.357
87.2792
87.1979
87.1146
87.0303
86.9463
86.8633
86.7821
86.7032
86.6273
86.5545
86.4851
86.4193
86.3572
86.2988
86.2442
86.1935
86.1466
86.1039
86.0653
86.031
86.0012
85.9761
85.9558
85.9404
85.9302
85.925
85.9248
85.9295
85.9388
85.9522
85.9693
85.9897
86.0126
86.0375
86.0637
86.0907
86.1178
86.1447
86.171
86.1964
86.2209
86.2445
86.2675
86.2894
86.3104
86.3307
86.3503
86.3694
86.3881
86.4063
86.424
86.4411
86.4578
86.4741
86.4898
86.5047
86.5186
86.5323
86.5456
86.5584
86.5704
86.5812
86.5904
86.5983
86.6052
86.6111
86.6161
86.6201
86.6235
86.6268
86.6298
86.6327
86.636
86.6405
86.6475
86.6551
86.6627
79.3717
79.4661
79.5709
79.6539
79.7468
79.8616
79.9938
80.1407
80.3022
80.4781
80.668
80.8717
81.0887
81.3189
81.5618
81.816
82.0813
82.3567
82.6411
82.9333
83.2322
83.5365
83.8442
84.1516
84.4561
84.7631
85.0822
85.4002
85.6822
85.9396
86.1875
86.4255
86.6499
86.859
87.0539
87.2375
87.3983
87.5288
87.6366
87.7247
87.7928
87.8409
87.8697
87.8802
87.874
87.8524
87.8172
87.77
87.7126
87.6465
87.5735
87.4951
87.4129
87.3281
87.2421
87.1559
87.0706
86.9869
86.9054
86.8267
86.7512
86.6792
86.6109
86.5466
86.4863
86.4301
86.3782
86.3307
86.2878
86.2496
86.2163
86.1881
86.1653
86.148
86.1363
86.1302
86.1298
86.1348
86.1452
86.1608
86.1804
86.2038
86.2302
86.2591
86.2897
86.3215
86.3537
86.3858
86.4172
86.4474
86.4757
86.5017
86.5253
86.5463
86.5657
86.5836
86.6
86.615
86.6286
86.6409
86.6517
86.6609
86.6683
86.6744
86.6797
86.6841
86.6881
86.6919
86.6952
86.698
86.7007
86.7036
86.7077
86.7139
86.7215
86.7292
86.7372
86.7456
86.7548
86.7647
86.7753
86.7864
86.7983
86.8108
86.8236
86.8359
86.8483
86.8613
79.7555
79.8445
79.9322
80.01
80.1022
80.2145
80.3431
80.4864
80.6444
80.8166
81.0028
81.2029
81.4165
81.6436
81.8824
82.1328
82.3942
82.6657
82.9461
83.2344
83.5295
83.83
84.133
84.4352
84.7381
85.0489
85.3653
85.6644
85.9373
86.1957
86.4439
86.6803
86.9027
87.1099
87.302
87.4798
87.6378
87.7684
87.8764
87.9646
88.033
88.0814
88.1106
88.1217
88.1159
88.0947
88.0596
88.0123
87.9545
87.8878
87.814
87.7345
87.6509
87.5646
87.4768
87.3888
87.3015
87.2158
87.1325
87.0523
86.9755
86.9026
86.834
86.7698
86.7104
86.6559
86.6068
86.5629
86.5242
86.4908
86.463
86.441
86.4247
86.4144
86.4098
86.4108
86.4171
86.4281
86.4431
86.4612
86.4826
86.5067
86.5329
86.5606
86.589
86.6172
86.6447
86.6708
86.695
86.7168
86.7359
86.7519
86.7655
86.7771
86.7867
86.7943
86.8003
86.805
86.8086
86.8116
86.8149
86.8193
86.8259
86.8332
86.8407
86.8488
86.8573
86.8663
86.8758
86.8858
86.8967
86.9083
86.9204
86.9323
86.9441
86.9565
86.9693
86.9826
86.9962
87.01
87.024
87.0382
87.0524
87.0666
87.0805
87.0945
87.1086
87.123
80.262
80.3344
80.4096
80.5015
80.6112
80.7365
80.8767
81.0314
81.2004
81.3834
81.5804
81.7914
82.0151
82.2504
82.4972
82.755
83.0227
83.2993
83.5838
83.8751
84.1712
84.4692
84.7682
85.0718
85.3813
85.6856
85.9717
86.2411
86.4987
86.745
86.9787
87.1983
87.4029
87.5918
87.7641
87.9181
88.0485
88.1562
88.2439
88.3118
88.3601
88.3894
88.4007
88.3951
88.374
88.339
88.2917
88.2337
88.1669
88.0929
88.0135
87.9304
87.845
87.7585
87.6717
87.5857
87.5014
87.4196
87.341
87.266
87.1951
87.1287
87.0668
87.0096
86.957
86.9086
86.8651
86.8269
86.794
86.7665
86.7445
86.7281
86.7172
86.7114
86.7107
86.7147
86.7228
86.7349
86.7507
86.7685
86.7876
86.8078
86.8283
86.8486
86.8681
86.8865
86.9036
86.9192
86.9337
86.9478
86.9626
86.9769
86.9898
87.0014
87.0121
87.0224
87.0324
87.0426
87.0532
87.0642
87.0754
87.0861
87.097
87.1083
87.1199
87.1318
87.1441
87.1567
87.1696
87.1827
87.1957
87.2087
87.2215
87.2345
87.2477
87.2611
87.2747
87.2882
87.3018
87.3154
87.329
87.3425
87.356
87.3695
87.3831
87.3969
87.4107
80.7833
80.8575
80.9485
81.0558
81.1783
81.3157
81.4676
81.6336
81.8137
82.008
82.2165
82.4369
82.6689
82.9124
83.1666
83.4307
83.7038
83.9846
84.2719
84.5634
84.8575
85.155
85.4572
85.7596
86.0528
86.332
86.5988
86.8544
87.0983
87.3294
87.5465
87.7486
87.9349
88.104
88.2539
88.3841
88.4926
88.5805
88.6491
88.699
88.7302
88.7435
88.74
88.7209
88.6877
88.6419
88.585
88.5188
88.4449
88.365
88.2805
88.1924
88.1028
88.0133
87.9249
87.8382
87.7538
87.6721
87.5935
87.5187
87.4478
87.3813
87.3192
87.262
87.2102
87.164
87.123
87.087
87.0564
87.0315
87.0123
86.9988
86.9909
86.9885
86.9909
86.9979
87.0092
87.0244
87.0434
87.0653
87.0882
87.1116
87.135
87.158
87.1805
87.2023
87.2231
87.243
87.2617
87.2784
87.2935
87.3077
87.3212
87.3341
87.3467
87.359
87.3711
87.383
87.3946
87.4059
87.4171
87.4285
87.44
87.4517
87.4636
87.4756
87.4877
87.4998
87.5119
87.5239
87.536
87.5482
87.5605
87.5729
87.5853
87.5978
87.6103
87.6228
87.6353
87.6478
87.6604
87.673
87.6857
87.6985
87.7113
87.7241
87.737
87.7499
81.2977
81.3716
81.4615
81.5669
81.6874
81.8226
81.9722
82.1357
82.3133
82.5052
82.7112
82.9284
83.1571
83.3972
83.648
83.9087
84.1781
84.4553
84.7386
85.0264
85.3179
85.6135
85.9114
86.2064
86.4927
86.7684
87.0336
87.2879
87.5305
87.7603
87.9763
88.1773
88.3623
88.5298
88.6784
88.8071
88.9151
89.0026
89.0682
89.1134
89.1396
89.1483
89.1405
89.1175
89.0804
89.0308
88.97
88.8992