/*--------------------------------*- C++ -*----------------------------------*\
| =========                 |                                                 |
| \\      /  F ield         | OpenFOAM: The Open Source CFD Toolbox           |
|  \\    /   O peration     | Version:  v1706                                 |
|   \\  /    A nd           | Web:      www.OpenFOAM.com                      |
|    \\/     M anipulation  |                                                 |
\*---------------------------------------------------------------------------*/
FoamFile
{
    version     2.0;
    format      ascii;
    class       volScalarField;
    location    "1.1e-05";
    object      Tov;
}
// * * * * * * * * * * * * * * * * * * * * * * * * * * * * * * * * * * * * * //

dimensions      [0 0 0 1 0 0 0];


internalField   nonuniform List<scalar> 
29871
(
144.509
144.505
144.501
144.497
144.493
144.49
144.487
144.484
144.482
144.479
144.477
144.476
144.474
144.473
144.472
144.471
144.47
144.469
144.469
144.469
144.469
144.469
144.469
144.469
144.47
144.47
144.471
144.471
144.472
144.473
144.473
144.474
144.475
144.476
144.477
144.477
144.478
144.479
144.48
144.481
144.482
144.483
144.484
144.485
144.486
144.487
144.488
144.489
144.49
144.491
144.492
144.493
144.494
144.495
144.496
144.497
144.498
144.499
144.5
144.501
144.501
144.502
144.503
144.504
144.505
144.506
144.507
144.508
144.508
144.509
144.51
144.511
144.511
144.512
144.513
144.514
144.515
144.515
144.516
144.517
144.518
144.518
144.519
144.52
144.521
144.522
144.522
144.523
144.524
144.525
144.526
144.527
144.528
144.528
144.529
144.53
144.531
144.532
144.533
144.534
144.535
144.536
144.537
144.538
144.539
145.031
145.007
144.985
144.964
144.944
144.925
144.908
144.892
144.878
144.865
144.853
144.843
144.834
144.827
144.82
144.815
144.811
144.809
144.807
144.806
144.806
144.807
144.808
144.81
144.812
144.815
144.819
144.823
144.827
144.832
144.836
144.841
144.847
144.852
144.857
144.863
144.868
144.874
144.88
144.886
144.892
144.898
144.904
144.91
144.916
144.922
144.929
144.935
144.942
144.948
144.955
144.961
144.968
144.974
144.981
144.988
144.994
145.001
145.008
145.014
145.02
145.027
145.033
145.039
145.045
145.052
145.058
145.064
145.069
145.075
145.081
145.087
145.093
145.098
145.104
145.11
145.116
145.122
145.128
145.134
145.14
145.146
145.152
145.158
145.164
145.171
145.177
145.184
145.19
145.197
145.204
145.21
145.217
145.224
145.231
145.238
145.246
145.253
145.26
145.268
145.275
145.283
145.29
145.298
145.306
146.358
146.285
146.216
146.15
146.089
146.031
145.978
145.928
145.883
145.842
145.805
145.772
145.743
145.718
145.697
145.68
145.667
145.656
145.65
145.646
145.645
145.646
145.649
145.655
145.662
145.672
145.683
145.695
145.708
145.723
145.738
145.754
145.771
145.788
145.805
145.823
145.842
145.861
145.88
145.899
145.919
145.939
145.959
145.979
146
146.021
146.043
146.064
146.086
146.109
146.131
146.154
146.177
146.201
146.224
146.248
146.271
146.295
146.319
146.343
146.366
146.39
146.413
146.436
146.459
146.482
146.504
146.526
146.548
146.57
146.592
146.614
146.635
146.657
146.679
146.7
146.722
146.743
146.765
146.787
146.809
146.832
146.854
146.877
146.9
146.924
146.947
146.971
146.995
147.02
147.045
147.07
147.095
147.121
147.147
147.173
147.2
147.227
147.254
147.281
147.309
147.338
147.366
147.395
147.425
147.454
149.281
149.109
148.945
148.789
148.643
148.506
148.379
148.261
148.154
148.057
147.971
147.894
147.828
147.772
147.725
147.688
147.66
147.64
147.629
147.626
147.629
147.637
147.651
147.671
147.696
147.725
147.758
147.794
147.833
147.875
147.919
147.965
148.012
148.06
148.11
148.161
148.213
148.265
148.319
148.373
148.428
148.483
148.54
148.598
148.656
148.715
148.776
148.837
148.899
148.962
149.026
149.091
149.157
149.223
149.29
149.358
149.426
149.495
149.563
149.632
149.701
149.77
149.838
149.907
149.975
150.043
150.11
150.177
150.244
150.31
150.376
150.442
150.508
150.574
150.64
150.706
150.773
150.839
150.907
150.975
151.043
151.112
151.182
151.253
151.325
151.397
151.471
151.546
151.621
151.698
151.776
151.855
151.935
152.016
152.098
152.182
152.266
152.352
152.439
152.527
152.617
152.708
152.8
152.893
152.987
153.083
155.681
155.307
154.95
154.61
154.289
153.987
153.706
153.446
153.207
152.989
152.794
152.621
152.471
152.342
152.235
152.149
152.084
152.039
152.013
152.007
152.014
152.034
152.069
152.117
152.178
152.248
152.329
152.417
152.512
152.614
152.72
152.831
152.946
153.063
153.184
153.306
153.431
153.558
153.686
153.817
153.949
154.084
154.22
154.359
154.5
154.644
154.79
154.939
155.091
155.246
155.403
155.563
155.726
155.892
156.06
156.23
156.402
156.576
156.752
156.929
157.107
157.285
157.464
157.644
157.823
158.002
158.18
158.358
158.535
158.711
158.887
159.061
159.236
159.409
159.583
159.756
159.929
160.102
160.276
160.451
160.627
160.804
160.982
161.162
161.343
161.527
161.712
161.899
162.089
162.28
162.474
162.67
162.868
163.069
163.273
163.479
163.687
163.899
164.113
164.329
164.549
164.772
164.997
165.225
165.457
165.691
165.928
167.047
166.396
165.771
165.175
164.609
164.076
163.58
163.121
162.702
162.323
161.987
161.693
161.443
161.235
161.07
160.946
160.863
160.818
160.816
160.837
160.887
160.97
161.08
161.215
161.372
161.548
161.741
161.949
162.169
162.4
162.639
162.886
163.139
163.396
163.657
163.922
164.19
164.461
164.734
165.011
165.29
165.573
165.859
166.149
166.443
166.741
167.044
167.352
167.665
167.983
168.306
168.634
168.967
169.305
169.648
169.995
170.347
170.701
171.059
171.419
171.781
172.145
172.51
172.875
173.24
173.605
173.969
174.332
174.693
175.053
175.412
175.769
176.125
176.479
176.832
177.184
177.534
177.885
178.235
178.586
178.937
179.29
179.645
180.001
180.36
180.721
181.085
181.451
181.821
182.195
182.572
182.952
183.336
183.724
184.116
184.512
184.912
185.317
185.726
186.139
186.557
186.979
187.406
187.838
188.275
188.716
189.162
186.683
185.74
184.817
183.92
183.051
182.217
181.42
180.665
179.956
179.296
178.689
178.137
177.645
177.214
176.847
176.544
176.307
176.134
176.025
175.99
176.01
176.073
176.186
176.355
176.567
176.819
177.106
177.425
177.772
178.141
178.53
178.935
179.352
179.779
180.212
180.649
181.09
181.531
181.974
182.416
182.859
183.303
183.747
184.192
184.64
185.09
185.544
186.001
186.463
186.931
187.403
187.882
188.366
188.857
189.355
189.858
190.368
190.884
191.405
191.932
192.463
192.999
193.538
194.08
194.624
195.169
195.715
196.26
196.804
197.346
197.886
198.423
198.956
199.484
200.009
200.529
201.045
201.557
202.063
202.561
203.053
203.538
204.018
204.492
204.961
205.424
205.883
206.338
206.787
207.232
207.672
208.107
208.538
208.963
209.383
209.798
210.208
210.612
211.01
211.402
211.788
212.168
212.542
212.909
213.271
213.625
213.974
214.316
214.651
214.98
204.963
204.143
203.327
202.519
201.728
200.962
200.227
199.534
198.888
198.297
197.765
197.298
196.9
196.575
196.324
196.149
196.052
196.042
196.083
196.193
196.354
196.593
196.879
197.213
197.591
198.004
198.448
198.916
199.403
199.904
200.416
200.934
201.456
201.979
202.503
203.024
203.539
204.047
204.549
205.043
205.53
206.012
206.487
206.956
207.421
207.88
208.336
208.788
209.236
209.68
210.122
210.56
210.994
211.425
211.852
212.275
212.694
213.108
213.516
213.919
214.316
214.706
215.088
215.462
215.828
216.184
216.532
216.87
217.198
217.516
217.824
218.122
218.409
218.685
218.951
219.206
219.452
219.687
219.913
220.131
220.34
220.543
220.738
220.926
221.107
221.283
221.453
221.618
221.778
221.933
222.085
222.233
222.377
222.519
222.657
222.792
222.924
223.054
223.181
223.306
223.429
223.549
223.667
223.783
223.897
224.01
224.12
224.228
224.335
224.44
215.15
214.805
214.481
214.179
213.902
213.649
213.421
213.221
213.052
212.918
212.818
212.753
212.739
212.764
212.842
212.974
213.158
213.374
213.628
213.95
214.287
214.647
215.026
215.419
215.821
216.226
216.626
217.018
217.398
217.764
218.115
218.45
218.767
219.066
219.346
219.609
219.855
220.085
220.299
220.5
220.687
220.863
221.028
221.184
221.332
221.474
221.61
221.742
221.871
221.996
222.119
222.24
222.359
222.477
222.595
222.711
222.827
222.944
223.06
223.176
223.292
223.409
223.527
223.646
223.765
223.885
224.005
224.124
224.244
224.363
224.481
224.598
224.712
224.825
224.935
225.042
225.145
225.246
225.342
225.435
225.524
225.609
225.691
225.769
225.845
225.917
225.987
226.054
226.12
226.183
226.245
226.306
226.365
226.423
226.479
226.534
226.588
226.641
226.693
226.743
226.792
226.839
226.885
226.93
226.973
227.015
227.055
227.094
227.131
227.168
219.006
218.834
218.696
218.594
218.531
218.52
218.544
218.613
218.728
218.877
219.056
219.277
219.546
219.837
220.149
220.49
220.847
221.19
221.549
221.927
222.295
222.647
222.994
223.321
223.621
223.897
224.152
224.385
224.597
224.787
224.952
225.094
225.215
225.316
225.4
225.469
225.525
225.57
225.607
225.636
225.661
225.681
225.698
225.712
225.726
225.738
225.751
225.764
225.778
225.794
225.811
225.83
225.852
225.876
225.902
225.932
225.964
226
226.038
226.079
226.123
226.17
226.22
226.272
226.327
226.383
226.44
226.499
226.559
226.619
226.679
226.739
226.798
226.856
226.913
226.969
227.023
227.075
227.124
227.172
227.217
227.26
227.301
227.339
227.376
227.411
227.445
227.477
227.508
227.538
227.568
227.597
227.626
227.655
227.683
227.712
227.741
227.77
227.799
227.829
227.858
227.888
227.917
227.947
227.977
228.007
228.038
228.068
228.099
228.129
220.51
220.448
220.434
220.447
220.489
220.57
220.681
220.818
220.993
221.208
221.441
221.695
221.981
222.309
222.661
223.026
223.367
223.716
224.085
224.443
224.77
225.098
225.4
225.667
225.917
226.145
226.349
226.532
226.693
226.833
226.957
227.063
227.152
227.225
227.283
227.33
227.366
227.393
227.41
227.419
227.42
227.417
227.409
227.395
227.377
227.356
227.334
227.311
227.288
227.266
227.246
227.228
227.213
227.2
227.191
227.185
227.183
227.184
227.19
227.199
227.212
227.228
227.25
227.277
227.307
227.339
227.375
227.415
227.458
227.503
227.55
227.599
227.649
227.7
227.752
227.804
227.856
227.907
227.957
228.006
228.054
228.1
228.145
228.189
228.231
228.272
228.311
228.35
228.388
228.425
228.462
228.498
228.534
228.569
228.605
228.641
228.677
228.713
228.749
228.786
228.823
228.86
228.898
228.936
228.974
229.013
229.053
229.093
229.133
229.174
221.575
221.479
221.425
221.423
221.443
221.497
221.591
221.724
221.895
222.101
222.337
222.598
222.878
223.177
223.497
223.833
224.17
224.488
224.814
225.162
225.466
225.755
226.055
226.322
226.559
226.783
226.993
227.185
227.361
227.52
227.663
227.789
227.89
227.973
228.045
228.104
228.149
228.184
228.208
228.223
228.229
228.228
228.223
228.214
228.2
228.183
228.163
228.142
228.121
228.101
228.082
228.064
228.049
228.037
228.028
228.022
228.021
228.022
228.027
228.037
228.051
228.069
228.089
228.115
228.146
228.179
228.216
228.255
228.3
228.347
228.396
228.448
228.502
228.558
228.615
228.674
228.733
228.793
228.852
228.911
228.97
229.028
229.085
229.141
229.196
229.249
229.3
229.35
229.398
229.446
229.493
229.54
229.587
229.633
229.679
229.725
229.772
229.819
229.866
229.914
229.962
230.011
230.061
230.111
230.162
230.215
230.267
230.321
230.376
230.432
230.489
222.586
222.505
222.457
222.452
222.468
222.516
222.599
222.717
222.868
223.048
223.254
223.48
223.722
223.98
224.255
224.544
224.833
225.12
225.417
225.723
225.999
226.27
226.548
226.793
227.017
227.231
227.437
227.634
227.82
227.996
228.158
228.298
228.419
228.529
228.629
228.718
228.795
228.859
228.912
228.955
228.988
229.013
229.03
229.04
229.046
229.046
229.043
229.037
229.03
229.023
229.015
229.01
229.005
229.004
229.005
229.009
229.017
229.028
229.043
229.06
229.081
229.107
229.136
229.169
229.206
229.247
229.291
229.338
229.39
229.444
229.501
229.56
229.623
229.688
229.754
229.822
229.891
229.962
230.033
230.104
230.176
230.247
230.318
230.389
230.459
230.528
230.596
230.664
230.732
230.799
230.865
230.932
230.998
231.065
231.132
231.199
231.268
231.337
231.407
231.478
231.551
231.625
231.699
231.776
231.853
231.932
232.013
232.095
232.178
232.264
232.35
232.439
232.529
223.726
223.655
223.62
223.623
223.645
223.693
223.767
223.867
223.991
224.14
224.31
224.498
224.7
224.917
225.146
225.387
225.632
225.882
226.142
226.408
226.654
226.901
227.156
227.384
227.595
227.804
228.012
228.218
228.42
228.616
228.798
228.961
229.11
229.252
229.385
229.509
229.622
229.722
229.811
229.886
229.949
230.001
230.043
230.078
230.105
230.126
230.143
230.155
230.164
230.172
230.179
230.186
230.196
230.207
230.221
230.238
230.258
230.282
230.311
230.343
230.38
230.422
230.467
230.516
230.569
230.626
230.687
230.751
230.82
230.891
230.966
231.044
231.125
231.208
231.294
231.383
231.473
231.565
231.659
231.753
231.849
231.945
232.041
232.138
232.235
232.332
232.429
232.525
232.622
232.719
232.815
232.913
233.01
233.109
233.208
233.309
233.411
233.515
233.62
233.727
233.836
233.947
234.059
234.174
234.291
234.41
234.531
234.654
234.779
234.907
235.037
235.168
235.303
225.345
225.224
225.129
225.06
225.021
225.02
225.035
225.073
225.134
225.218
225.322
225.444
225.583
225.737
225.903
226.081
226.27
226.466
226.669
226.881
227.105
227.329
227.546
227.771
228.008
228.223
228.425
228.632
228.844
229.06
229.279
229.497
229.701
229.888
230.066
230.239
230.407
230.566
230.714
230.851
230.976
231.088
231.187
231.275
231.353
231.42
231.479
231.53
231.575
231.615
231.65
231.683
231.714
231.746
231.778
231.812
231.849
231.89
231.934
231.982
232.035
232.093
232.155
232.222
232.292
232.368
232.447
232.53
232.618
232.709
232.805
232.904
233.007
233.113
233.223
233.336
233.452
233.571
233.693
233.817
233.943
234.072
234.201
234.333
234.465
234.599
234.733
234.868
235.004
235.14
235.277
235.414
235.552
235.691
235.832
235.974
236.118
236.263
236.411
236.561
236.713
236.868
237.025
237.185
237.347
237.512
237.68
237.851
238.024
238.2
238.379
238.561
238.745
238.933
239.123
227.108
226.987
226.89
226.817
226.768
226.748
226.751
226.77
226.809
226.866
226.941
227.032
227.137
227.253
227.381
227.519
227.668
227.825
227.991
228.168
228.356
228.549
228.744
228.951
229.175
229.383
229.583
229.793
230.014
230.247
230.487
230.731
230.962
231.18
231.395
231.609
231.819
232.023
232.217
232.401
232.572
232.732
232.878
233.012
233.134
233.245
233.345
233.436
233.52
233.596
233.668
233.735
233.801
233.865
233.931
233.998
234.067
234.141
234.218
234.3
234.387
234.478
234.575
234.676
234.782
234.892
235.007
235.126
235.25
235.377
235.51
235.646
235.786
235.931
236.079
236.231
236.387
236.546
236.709
236.876
237.045
237.217
237.391
237.568
237.746
237.927
238.108
238.292
238.476
238.662
238.849
239.038
239.228
239.42
239.614
239.81
240.008
240.209
240.413
240.619
240.829
241.041
241.257
241.476
241.698
241.923
242.152
242.384
242.619
242.857
243.099
243.344
243.593
243.845
244.1
244.358
230.704
230.446
230.208
229.989
229.789
229.608
229.447
229.305
229.184
229.083
229.001
228.94
228.901
228.882
228.884
228.897
228.926
228.97
229.028
229.098
229.18
229.273
229.377
229.49
229.615
229.75
229.898
230.059
230.229
230.409
230.604
230.82
231.026
231.229
231.448
231.686
231.941
232.208
232.481
232.744
233.001
233.26
233.522
233.784
234.04
234.289
234.527
234.755
234.97
235.171
235.36
235.534
235.697
235.847
235.987
236.117
236.239
236.354
236.465
236.573
236.679
236.786
236.894
237.005
237.12
237.239
237.363
237.492
237.626
237.765
237.909
238.058
238.212
238.371
238.535
238.703
238.875
239.053
239.235
239.421
239.612
239.807
240.007
240.211
240.42
240.632
240.849
241.07
241.294
241.521
241.751
241.984
242.22
242.458
242.697
242.939
243.183
243.429
243.677
243.927
244.179
244.434
244.691
244.951
245.214
245.481
245.75
246.023
246.3
246.58
246.864
247.151
247.442
247.736
248.034
248.336
248.641
248.951
249.263
249.58
249.9
250.224
250.551
233.316
233.079
232.856
232.65
232.461
232.289
232.133
231.995
231.872
231.767
231.678
231.605
231.549
231.51
231.487
231.481
231.485
231.501
231.53
231.571
231.623
231.686
231.761
231.847
231.946
232.058
232.185
232.327
232.484
232.655
232.845
233.06
233.27
233.483
233.721
233.982
234.265
234.566
234.873
235.175
235.479
235.79
236.107
236.426
236.742
237.051
237.352
237.642
237.919
238.182
238.43
238.664
238.884
239.09
239.284
239.467
239.641
239.807
239.967
240.124
240.279
240.435
240.591
240.751
240.914
241.082
241.255
241.433
241.616
241.804
241.998
242.197
242.401
242.61
242.824
243.043
243.266
243.495
243.728
243.967
244.21
244.459
244.712
244.97
245.234
245.502
245.775
246.052
246.333
246.619
246.908
247.2
247.495
247.793
248.093
248.396
248.702
249.009
249.319
249.632
249.947
250.264
250.585
250.908
251.235
251.565
251.898
252.235
252.576
252.92
253.268
253.619
253.974
254.333
254.695
255.061
255.431
255.804
256.181
256.561
256.945
257.333
257.724
236.452
236.237
236.033
235.843
235.666
235.503
235.355
235.22
235.099
234.991
234.896
234.814
234.746
234.691
234.65
234.622
234.606
234.603
234.61
234.626
234.655
234.695
234.749
234.816
234.897
234.994
235.109
235.241
235.393
235.564
235.757
235.98
236.2
236.434
236.698
236.992
237.312
237.654
238.001
238.349
238.707
239.076
239.454
239.836
240.216
240.591
240.957
241.312
241.655
241.982
242.293
242.589
242.869
243.134
243.386
243.625
243.853
244.074
244.288
244.497
244.705
244.913
245.122
245.334
245.55
245.771
245.996
246.227
246.462
246.704
246.95
247.202
247.459
247.721
247.987
248.259
248.536
248.818
249.105
249.398
249.696
249.999
250.307
250.621
250.94
251.265
251.594
251.929
252.268
252.611
252.958
253.308
253.662
254.018
254.377
254.739
255.103
255.469
255.837
256.208
256.581
256.957
257.335
257.717
258.101
258.488
258.878
259.272
259.669
260.069
260.472
260.879
261.288
261.702
262.118
262.537
262.96
263.385
263.814
264.246
264.681
265.118
265.559
240.122
239.932
239.751
239.58
239.418
239.268
239.13
239.002
238.884
238.778
238.681
238.595
238.52
238.455
238.402
238.359
238.328
238.309
238.301
238.304
238.317
238.342
238.382
238.438
238.51
238.601
238.713
238.845
239.001
239.181
239.387
239.626
239.865
240.13
240.432
240.767
241.132
241.52
241.913
242.315
242.732
243.165
243.607
244.054
244.499
244.94
245.372
245.792
246.198
246.588
246.961
247.317
247.655
247.978
248.285
248.579
248.862
249.135
249.402
249.665
249.926
250.186
250.448
250.712
250.98
251.253
251.53
251.812
252.1
252.392
252.69
252.992
253.3
253.613
253.93
254.252
254.58
254.912
255.25
255.593
255.941
256.295
256.655
257.02
257.39
257.766
258.147
258.532
258.922
259.316
259.714
260.115
260.519
260.925
261.334
261.744
262.157
262.571
262.987
263.405
263.825
264.246
264.67
265.096
265.524
265.955
266.387
266.823
267.26
267.701
268.143
268.588
269.036
269.485
269.937
270.391
270.848
271.306
271.767
272.229
272.693
273.159
273.627
274.097
274.568
244.31
244.15
243.995
243.847
243.705
243.572
243.447
243.33
243.22
243.119
243.026
242.941
242.863
242.795
242.736
242.686
242.647
242.618
242.602
242.599
242.605
242.624
242.659
242.712
242.785
242.879
242.997
243.14
243.31
243.507
243.738
243.998
244.268
244.576
244.923
245.306
245.722
246.157
246.602
247.063
247.543
248.038
248.544
249.053
249.561
250.063
250.556
251.035
251.499
251.945
252.372
252.781
253.171
253.544
253.901
254.244
254.575
254.897
255.212
255.522
255.831
256.138
256.447
256.759
257.073
257.392
257.715
258.043
258.376
258.713
259.055
259.401
259.752
260.108
260.468
260.832
261.202
261.576
261.955
262.34
262.73
263.125
263.525
263.93
264.341
264.757
265.177
265.602
266.03
266.462
266.897
267.335
267.774
268.216
268.659
269.102
269.547
269.993
270.439
270.886
271.335
271.783
272.233
272.684
273.137
273.59
274.045
274.501
274.958
275.416
275.876
276.337
276.799
277.261
277.725
278.189
278.655
279.12
279.587
280.054
280.521
280.988
281.456
281.924
282.391
248.976
248.847
248.721
248.598
248.48
248.366
248.258
248.156
248.058
247.967
247.881
247.801
247.727
247.66
247.601
247.551
247.51
247.481
247.463
247.46
247.467
247.488
247.527
247.587
247.67
247.777
247.91
248.073
248.266
248.49
248.755
249.041
249.356
249.713
250.111
250.545
251.014
251.498
251.997
252.516
253.056
253.611
254.174
254.739
255.3
255.854
256.396
256.924
257.433
257.923
258.393
258.843
259.273
259.685
260.081
260.462
260.831
261.19
261.543
261.891
262.237
262.582
262.928
263.276
263.627
263.981
264.339
264.701
265.067
265.437
265.811
266.189
266.571
266.957
267.346
267.74
268.138
268.541
268.948
269.359
269.776
270.197
270.623
271.054
271.489
271.928
272.371
272.818
273.267
273.719
274.173
274.628
275.084
275.54
275.997
276.453
276.909
277.365
277.82
278.274
278.728
279.182
279.635
280.088
280.54
280.993
281.445
281.897
282.349
282.8
283.251
283.702
284.152
284.601
285.05
285.497
285.944
286.39
286.835
287.278
287.72
288.16
288.598
289.035
289.47
254.14
254.045
253.947
253.85
253.755
253.661
253.569
253.48
253.394
253.311
253.232
253.156
253.085
253.019
252.959
252.905
252.86
252.824
252.799
252.787
252.79
252.804
252.836
252.888
252.963
253.064
253.192
253.35
253.541
253.765
254.025
254.329
254.651
255.017
255.426
255.875
256.362
256.879
257.411
257.961
258.534
259.126
259.73
260.338
260.946
261.547
262.138
262.714
263.273
263.813
264.331
264.827
265.302
265.756
266.192
266.611
267.015
267.407
267.791
268.167
268.538
268.907
269.275
269.644
270.014
270.386
270.761
271.139
271.52
271.903
272.29
272.681
273.074
273.47
273.87
274.272
274.678
275.088
275.501
275.918
276.339
276.764
277.194
277.627
278.063
278.503
278.947
279.393
279.841
280.29
280.741
281.192
281.643
282.093
282.543
282.99
283.436
283.88
284.322
284.762
285.2
285.636
286.07
286.502
286.932
287.36
287.786
288.21
288.633
289.054
289.472
289.889
290.304
290.716
291.126
291.533
291.937
292.339
292.737
293.133
293.525
293.914
294.299
294.68
295.057
295.43
259.476
259.411
259.342
259.276
259.208
259.138
259.066
258.996
258.927
258.859
258.793
258.729
258.669
258.612
258.561
258.517
258.48
258.453
258.439
258.439
258.451
258.48
258.529
258.602
258.699
258.825
258.982
259.172
259.398
259.659
259.963
260.302
260.673
261.09
261.548
262.044
262.579
263.138
263.711
264.305
264.921
265.551
266.188
266.826
267.459
268.083
268.692
269.284
269.855
270.405
270.932
271.435
271.917
272.377
272.819
273.244
273.654
274.053
274.442
274.825
275.203
275.579
275.953
276.326
276.701
277.077
277.454
277.834
278.215
278.599
278.985
279.373
279.763
280.155
280.55
280.947
281.346
281.748
282.153
282.561
282.972
283.387
283.804
284.224
284.646
285.071
285.498
285.926
286.354
286.782
287.21
287.637
288.061
288.483
288.903
289.319
289.731
290.14
290.546
290.947
291.345
291.74
292.13
292.517
292.901
293.281
293.658
294.031
294.4
294.766
295.127
295.485
295.839
296.189
296.534
296.875
297.211
297.543
297.869
298.191
298.507
298.817
299.122
299.421
299.714
300
300.281
300.555
264.994
264.944
264.907
264.873
264.827
264.774
264.72
264.666
264.612
264.557
264.504
264.451
264.402
264.356
264.315
264.282
264.257
264.243
264.243
264.255
264.285
264.334
264.407
264.504
264.63
264.787
264.977
265.203
265.466
265.77
266.118
266.494
266.915
267.377
267.877
268.414
268.987
269.577
270.183
270.808
271.449
272.1
272.752
273.4
274.038
274.663
275.27
275.857
276.42
276.96
277.475
277.967
278.436
278.883
279.312
279.724
280.123
280.51
280.888
281.259
281.625
281.988
282.35
282.711
283.071
283.432
283.794
284.156
284.52
284.885
285.251
285.618
285.986
286.355
286.726
287.098
287.472
287.848
288.226
288.606
288.988
289.372
289.758
290.145
290.534
290.924
291.314
291.703
292.092
292.478
292.863
293.244
293.621
293.994
294.362
294.726
295.084
295.437
295.784
296.126
296.463
296.794
297.12
297.441
297.757
298.068
298.373
298.674
298.969
299.258
299.542
299.82
300.092
300.359
300.619
300.872
301.12
301.362
301.596
301.824
302.046
302.26
302.466
302.666
302.857
303.039
303.212
303.378
270.55
270.509
270.508
270.498
270.464
270.423
270.381
270.34
270.296
270.252
270.208
270.165
270.125
270.09
270.06
270.038
270.026
270.027
270.041
270.072
270.123
270.196
270.294
270.42
270.577
270.768
270.994
271.257
271.559
271.908
272.29
272.709
273.169
273.668
274.201
274.767
275.365
275.974
276.596
277.235
277.883
278.534
279.18
279.818
280.441
281.046
281.63
282.191
282.726
283.236
283.721
284.181
284.619
285.035
285.433
285.815
286.184
286.541
286.89
287.231
287.568
287.902
288.233
288.562
288.891
289.219
289.546
289.874
290.202
290.53
290.858
291.186
291.515
291.844
292.174
292.504
292.835
293.167
293.501
293.835
294.171
294.508
294.845
295.183
295.52
295.857
296.192
296.524
296.854
297.18
297.502
297.819
298.13
298.436
298.735
299.027
299.313
299.591
299.863
300.127
300.385
300.636
300.879
301.117
301.347
301.572
301.789
302.001
302.206
302.404
302.595
302.779
302.956
303.124
303.284
303.436
303.581
303.718
303.849
303.971
304.086
304.191
304.288
304.376
304.455
304.524
304.581
304.628
276.012
275.978
275.998
275.996
275.968
275.934
275.901
275.865
275.828
275.79
275.752
275.716
275.684
275.657
275.637
275.627
275.629
275.644
275.675
275.727
275.8
275.899
276.025
276.181
276.37
276.594
276.855
277.153
277.495
277.878
278.293
278.746
279.236
279.759
280.312
280.893
281.499
282.111
282.734
283.365
284
284.631
285.252
285.858
286.446
287.012
287.553
288.069
288.558
289.02
289.457
289.869
290.259
290.628
290.979
291.315
291.637
291.949
292.252
292.548
292.839
293.126
293.41
293.692
293.972
294.251
294.529
294.806
295.083
295.358
295.633
295.907
296.18
296.454
296.727
297
297.273
297.547
297.821
298.095
298.369
298.643
298.917
299.189
299.46
299.729
299.994
300.255
300.511
300.761
301.005
301.242
301.472
301.694
301.909
302.116
302.315
302.507
302.69
302.865
303.033
303.192
303.342
303.483
303.617
303.744
303.863
303.975
304.078
304.173
304.261
304.342
304.414
304.477
304.53
304.572
304.605
304.631
304.648
304.657
304.659
304.656
304.646
304.629
304.605
304.579
304.552
304.519
304.477
281.212
281.238
281.231
281.203
281.171
281.139
281.105
281.068
281.032
280.997
280.964
280.937
280.917
280.907
280.908
280.921
280.952
281.002
281.073
281.17
281.294
281.447
281.633
281.852
282.107
282.398
282.729
283.102
283.51
283.951
284.427
284.933
285.466
286.024
286.602
287.2
287.8
288.403
289.008
289.61
290.202
290.778
291.335
291.869
292.378
292.861
293.315
293.742
294.142
294.516
294.866
295.194
295.502
295.792
296.067
296.33
296.582
296.826
297.062
297.293
297.52
297.743
297.964
298.182
298.398
298.612
298.825
299.036
299.246
299.454
299.661
299.868
300.073
300.278
300.482
300.686
300.889
301.091
301.293
301.493
301.692
301.89
302.085
302.278
302.467
302.651
302.83
303.003
303.169
303.327
303.475
303.614
303.743
303.862
303.973
304.075
304.169
304.255
304.333
304.402
304.463
304.514
304.554
304.585
304.609
304.625
304.635
304.639
304.635
304.623
304.604
304.58
304.551
304.521
304.488
304.446
304.396
304.337
304.27
304.195
304.111
304.018
303.917
303.807
303.688
303.557
303.417
303.268
286.092
286.103
286.085
286.051
286.015
285.977
285.938
285.898
285.859
285.823
285.792
285.768
285.754
285.752
285.761
285.787
285.832
285.9
285.991
286.109
286.257
286.435
286.646
286.891
287.171
287.488
287.844
288.237
288.662
289.117
289.599
290.107
290.635
291.181
291.741
292.313
292.884
293.45
294.011
294.562
295.098
295.613
296.105
296.571
297.01
297.419
297.8
298.153
298.478
298.778
299.054
299.308
299.543
299.762
299.965
300.157
300.338
300.51
300.676
300.836
300.992
301.143
301.291
301.436
301.579
301.719
301.856
301.992
302.126
302.258
302.389
302.519
302.649
302.778
302.906
303.034
303.16
303.286
303.409
303.528
303.643
303.755
303.863
303.968
304.068
304.163
304.251
304.333
304.407
304.473
304.529
304.574
304.609
304.638
304.657
304.666
304.666
304.658
304.641
304.617
304.587
304.554
304.52
304.481
304.432
304.376
304.311
304.237
304.156
304.067
303.97
303.865
303.751
303.627
303.493
303.35
303.199
303.039
302.871
302.693
302.506
302.309
302.104
301.888
301.663
301.427
301.183
300.93
290.496
290.46
290.415
290.368
290.32
290.272
290.224
290.18
290.141
290.108
290.086
290.076
290.079
290.097
290.134
290.193
290.276
290.385
290.522
290.69
290.889
291.12
291.385
291.683
292.018
292.388
292.789
293.218
293.673
294.148
294.642
295.15
295.669
296.195
296.724
297.25
297.763
298.264
298.75
299.215
299.656
300.071
300.457
300.814
301.141
301.439
301.708
301.95
302.166
302.36
302.532
302.686
302.823
302.947
303.058
303.16
303.253
303.339
303.42
303.496
303.569
303.638
303.705
303.769
303.83
303.888
303.943
303.995
304.045
304.093
304.139
304.186
304.232
304.277
304.323
304.367
304.412
304.456
304.5
304.54
304.573
304.601
304.623
304.639
304.647
304.648
304.642
304.627
304.606
304.58
304.552
304.516
304.471
304.415
304.35
304.277
304.194
304.104
304.005
303.899
303.783
303.657
303.521
303.378
303.226
303.065
302.896
302.719
302.533
302.339
302.135
301.922
301.699
301.467
301.227
300.979
300.721
300.455
300.18
299.896
299.603
299.302
298.991
298.671
298.343
298.007
297.662
294.283
294.221
294.158
294.096
294.035
293.977
293.925
293.881
293.846
293.823
293.816
293.824
293.849
293.895
293.966
294.062
294.185
294.338
294.52
294.733
294.978
295.255
295.564
295.905
296.277
296.675
297.096
297.535
297.989
298.455
298.928
299.405
299.883
300.356
300.82
301.27
301.699
302.107
302.491
302.848
303.176
303.474
303.742
303.979
304.187
304.367
304.52
304.648
304.754
304.84
304.909
304.961
304.999
305.026
305.043
305.052
305.054
305.05
305.04
305.028
305.012
304.995
304.975
304.956
304.937
304.918
304.898
304.874
304.848
304.82
304.792
304.763
304.733
304.702
304.671
304.638
304.603
304.568
304.535
304.501
304.461
304.416
304.363
304.302
304.234
304.157
304.071
303.977
303.872
303.755
303.627
303.49
303.344
303.19
303.026
302.853
302.672
302.481
302.281
302.072
301.853
301.627
301.392
301.149
300.897
300.638
300.37
300.093
299.808
299.515
299.213
298.902
298.584
298.257
297.923
297.58
297.229
296.87
296.503
296.127
295.744
295.353
294.955
294.549
294.135
293.714
293.285
292.85
297.501
297.418
297.336
297.257
297.181
297.112
297.05
296.999
296.961
296.937
296.932
296.943
296.973
297.027
297.107
297.212
297.346
297.508
297.699
297.92
298.171
298.451
298.76
299.098
299.46
299.842
300.241
300.652
301.071
301.495
301.921
302.344
302.761
303.169
303.561
303.935
304.287
304.612
304.908
305.174
305.409
305.613
305.786
305.93
306.044
306.131
306.192
306.229
306.242
306.238