/*--------------------------------*- C++ -*----------------------------------*\
| =========                 |                                                 |
| \\      /  F ield         | OpenFOAM: The Open Source CFD Toolbox           |
|  \\    /   O peration     | Version:  v1706                                 |
|   \\  /    A nd           | Web:      www.OpenFOAM.com                      |
|    \\/     M anipulation  |                                                 |
\*---------------------------------------------------------------------------*/
FoamFile
{
    version     2.0;
    format      ascii;
    class       volVectorField;
    location    "1.1e-05";
    object      U;
}
// * * * * * * * * * * * * * * * * * * * * * * * * * * * * * * * * * * * * * //

dimensions      [0 1 -1 0 0 0 0];


internalField   nonuniform List<vector> 
29871
(
(978.449 0.225539 7.34345e-15)
(978.454 0.217293 4.77248e-15)
(978.458 0.20943 5.00749e-15)
(978.462 0.201951 4.05756e-15)
(978.466 0.194857 2.59711e-15)
(978.47 0.188151 3.37975e-15)
(978.473 0.181839 4.40875e-15)
(978.476 0.175933 4.52124e-15)
(978.479 0.170448 5.0881e-15)
(978.481 0.165398 5.02079e-15)
(978.483 0.160802 5.10543e-15)
(978.485 0.156678 6.68131e-15)
(978.487 0.153014 5.33668e-15)
(978.488 0.149799 5.76969e-15)
(978.49 0.147043 3.98488e-15)
(978.49 0.144729 2.48744e-15)
(978.491 0.142833 3.25666e-15)
(978.492 0.141389 4.22204e-15)
(978.492 0.140364 4.51259e-15)
(978.492 0.139621 4.33877e-15)
(978.491 0.139335 4.03476e-15)
(978.491 0.139383 4.00701e-15)
(978.491 0.139607 3.59444e-15)
(978.49 0.140017 4.98831e-15)
(978.49 0.140606 5.79743e-15)
(978.489 0.141405 5.44718e-15)
(978.488 0.142433 6.05027e-15)
(978.487 0.143658 3.78481e-15)
(978.486 0.145041 3.68241e-15)
(978.485 0.146546 5.2091e-15)
(978.484 0.148141 4.83694e-15)
(978.483 0.149803 3.42384e-15)
(978.482 0.151512 5.01454e-15)
(978.481 0.153251 6.86696e-15)
(978.479 0.15501 4.03881e-15)
(978.478 0.156777 2.19087e-15)
(978.477 0.158545 2.44137e-15)
(978.476 0.160309 5.0695e-15)
(978.475 0.162066 5.22097e-15)
(978.473 0.163814 5.5294e-15)
(978.472 0.165555 6.53901e-15)
(978.471 0.16729 6.69761e-15)
(978.47 0.169019 6.33819e-15)
(978.469 0.170747 3.6234e-15)
(978.468 0.172474 3.67335e-15)
(978.467 0.174202 4.30828e-15)
(978.465 0.175935 2.9436e-15)
(978.464 0.177673 1.28253e-15)
(978.463 0.179417 2.93997e-15)
(978.462 0.181169 5.73153e-15)
(978.461 0.182928 4.44041e-15)
(978.46 0.184694 2.47364e-15)
(978.459 0.186469 3.90805e-15)
(978.458 0.188252 5.16178e-15)
(978.456 0.190043 4.40101e-15)
(978.455 0.191842 4.69661e-15)
(978.454 0.193648 5.62915e-15)
(978.453 0.195462 6.04985e-15)
(978.452 0.197283 4.37825e-15)
(978.451 0.199109 3.22401e-15)
(978.45 0.200941 1.82575e-15)
(978.449 0.202779 1.54065e-15)
(978.447 0.204621 2.35371e-15)
(978.446 0.206468 1.2684e-15)
(978.445 0.208321 4.95889e-15)
(978.444 0.210179 5.02256e-15)
(978.443 0.212043 3.3997e-15)
(978.442 0.213915 2.49223e-15)
(978.441 0.215795 2.387e-15)
(978.439 0.217686 3.09209e-15)
(978.438 0.21959 4.18388e-15)
(978.437 0.22151 3.65809e-15)
(978.436 0.223447 2.50158e-15)
(978.435 0.225405 3.17838e-15)
(978.433 0.227387 3.55076e-15)
(978.432 0.229395 4.4293e-15)
(978.431 0.231432 2.20368e-15)
(978.43 0.233499 3.04482e-15)
(978.428 0.235599 3.44451e-15)
(978.427 0.237731 5.70636e-15)
(978.426 0.239898 5.57995e-15)
(978.424 0.242098 4.98137e-15)
(978.423 0.244331 4.53071e-15)
(978.422 0.246598 4.05134e-15)
(978.42 0.248896 5.43832e-15)
(978.419 0.251224 4.83782e-15)
(978.417 0.253581 4.42011e-15)
(978.416 0.255965 5.41959e-15)
(978.414 0.258374 5.28996e-15)
(978.413 0.260805 4.60776e-15)
(978.412 0.263257 4.34744e-15)
(978.41 0.265727 2.9634e-15)
(978.409 0.268212 4.17699e-15)
(978.407 0.27071 4.3501e-15)
(978.406 0.273218 3.54813e-15)
(978.404 0.275734 3.76675e-15)
(978.403 0.278254 3.87539e-15)
(978.401 0.280776 3.93963e-15)
(978.4 0.283297 3.92478e-15)
(978.398 0.285815 3.8649e-15)
(978.397 0.288325 4.63648e-15)
(978.395 0.290827 3.60164e-15)
(978.394 0.293316 2.51657e-15)
(978.392 0.29579 2.82669e-15)
(978.39 0.298246 1.99624e-15)
(977.855 1.30529 1.16141e-14)
(977.882 1.25333 1.2063e-14)
(977.908 1.20389 1.36649e-14)
(977.932 1.15716 1.31155e-14)
(977.955 1.11328 1.19741e-14)
(977.975 1.07239 1.38102e-14)
(977.993 1.03455 1.26213e-14)
(978.009 0.99977 1.24213e-14)
(978.024 0.968024 1.25249e-14)
(978.036 0.939262 1.26976e-14)
(978.047 0.913387 1.19123e-14)
(978.056 0.890294 1.19065e-14)
(978.064 0.869964 1.29677e-14)
(978.07 0.852364 9.01504e-15)
(978.074 0.837362 7.60705e-15)
(978.077 0.82481 9.59773e-15)
(978.079 0.814589 1.18495e-14)
(978.08 0.80652 1.15568e-14)
(978.079 0.800574 1.01688e-14)
(978.077 0.796817 8.46397e-15)
(978.075 0.795299 1.03843e-14)
(978.073 0.795532 1.13707e-14)
(978.07 0.796595 1.2808e-14)
(978.066 0.798779 1.26358e-14)
(978.061 0.80226 1.08451e-14)
(978.056 0.806958 1.16821e-14)
(978.051 0.812739 1.23615e-14)
(978.045 0.819465 1.12717e-14)
(978.039 0.827012 1.1594e-14)
(978.032 0.835273 1.1721e-14)
(978.026 0.844156 1.22824e-14)
(978.019 0.853586 8.35137e-15)
(978.012 0.863501 1.18837e-14)
(978.005 0.873851 1.45735e-14)
(977.998 0.884596 1.31305e-14)
(977.99 0.895706 1.18267e-14)
(977.983 0.907155 9.83442e-15)
(977.975 0.918924 1.23905e-14)
(977.967 0.930994 1.14509e-14)
(977.959 0.943351 1.25961e-14)
(977.951 0.955982 1.24789e-14)
(977.943 0.968875 1.14752e-14)
(977.934 0.982021 1.17185e-14)
(977.926 0.995411 1.07752e-14)
(977.917 1.00904 1.04282e-14)
(977.908 1.02289 1.17196e-14)
(977.899 1.03695 1.09813e-14)
(977.89 1.05121 8.39545e-15)
(977.881 1.06565 1.0601e-14)
(977.872 1.08025 9.10591e-15)
(977.863 1.09499 8.26429e-15)
(977.854 1.10983 1.05218e-14)
(977.844 1.12474 1.17375e-14)
(977.835 1.13968 9.60043e-15)
(977.826 1.15462 9.81306e-15)
(977.817 1.16952 9.53761e-15)
(977.808 1.18433 1.14279e-14)
(977.799 1.19902 1.18417e-14)
(977.79 1.21354 7.97758e-15)
(977.782 1.22787 8.30782e-15)
(977.773 1.24198 9.54322e-15)
(977.765 1.25585 7.01009e-15)
(977.757 1.26945 9.12504e-15)
(977.749 1.28277 8.12717e-15)
(977.741 1.29581 1.01008e-14)
(977.733 1.30858 9.67714e-15)
(977.725 1.32107 8.79599e-15)
(977.718 1.33329 1.09987e-14)
(977.71 1.34528 1.10078e-14)
(977.703 1.35704 9.01108e-15)
(977.695 1.3686 1.07362e-14)
(977.688 1.37999 7.80179e-15)
(977.681 1.39123 7.90249e-15)
(977.674 1.40234 1.03159e-14)
(977.667 1.41335 8.84348e-15)
(977.66 1.42428 9.00758e-15)
(977.652 1.43515 8.51073e-15)
(977.645 1.44598 9.1872e-15)
(977.638 1.45678 9.38601e-15)
(977.631 1.46758 1.14833e-14)
(977.624 1.47839 1.01214e-14)
(977.617 1.48922 9.80218e-15)
(977.609 1.50009 9.54643e-15)
(977.602 1.511 1.09848e-14)
(977.595 1.52196 1.17358e-14)
(977.588 1.53299 1.17052e-14)
(977.58 1.5441 1.10663e-14)
(977.573 1.55529 1.08986e-14)
(977.565 1.56658 1.13836e-14)
(977.558 1.57798 1.11372e-14)
(977.55 1.58949 9.74116e-15)
(977.542 1.60112 9.04349e-15)
(977.535 1.6129 1.25884e-14)
(977.527 1.62483 1.10583e-14)
(977.519 1.63691 9.73445e-15)
(977.511 1.64917 9.28222e-15)
(977.503 1.66161 9.59254e-15)
(977.495 1.67426 1.04536e-14)
(977.486 1.68711 9.3728e-15)
(977.478 1.70018 6.54372e-15)
(977.469 1.7135 9.70722e-15)
(977.46 1.72706 1.00997e-14)
(977.451 1.74089 7.82519e-15)
(977.442 1.755 8.02442e-15)
(977.433 1.7694 6.3194e-15)
(976.358 4.10327 2.26652e-14)
(976.437 3.95387 2.22278e-14)
(976.511 3.80988 1.74309e-14)
(976.581 3.67167 2.10167e-14)
(976.646 3.53961 2.28923e-14)
(976.706 3.41406 1.9932e-14)
(976.762 3.29537 2.03259e-14)
(976.812 3.18387 1.98605e-14)
(976.857 3.07993 2.21178e-14)
(976.898 2.98393 1.99589e-14)
(976.933 2.89614 1.85153e-14)
(976.963 2.8168 1.67662e-14)
(976.988 2.74614 1.55608e-14)
(977.009 2.68389 1.87916e-14)
(977.024 2.6297 1.94659e-14)
(977.035 2.5837 1.89088e-14)
(977.042 2.54569 1.75016e-14)
(977.045 2.51542 1.83977e-14)
(977.044 2.49237 1.72539e-14)
(977.039 2.47617 1.75068e-14)
(977.03 2.46794 1.62041e-14)
(977.02 2.4669 1.62382e-14)
(977.012 2.46906 1.87242e-14)
(976.999 2.4743 1.98216e-14)
(976.983 2.48422 1.65947e-14)
(976.965 2.49875 1.87694e-14)
(976.945 2.51736 1.99351e-14)
(976.925 2.53957 1.87401e-14)
(976.904 2.56492 1.81083e-14)
(976.881 2.593 1.83379e-14)
(976.858 2.62342 1.82338e-14)
(976.835 2.65581 1.86879e-14)
(976.81 2.68983 1.7694e-14)
(976.786 2.72521 1.86257e-14)
(976.761 2.76171 1.93305e-14)
(976.736 2.7991 1.98136e-14)
(976.71 2.83724 1.96266e-14)
(976.685 2.87596 1.88205e-14)
(976.659 2.91517 1.86294e-14)
(976.633 2.95479 1.93488e-14)
(976.607 2.99475 1.85186e-14)
(976.58 3.03504 1.72787e-14)
(976.554 3.07565 1.76994e-14)
(976.527 3.11658 1.77035e-14)
(976.5 3.15784 1.84752e-14)
(976.472 3.19946 1.76346e-14)
(976.445 3.24143 1.94683e-14)
(976.417 3.28379 1.78239e-14)
(976.389 3.32652 1.60707e-14)
(976.361 3.36963 1.55441e-14)
(976.333 3.4131 1.47316e-14)
(976.304 3.45691 1.68704e-14)
(976.276 3.50102 1.50561e-14)
(976.247 3.54541 1.52782e-14)
(976.219 3.59004 1.67533e-14)
(976.19 3.63486 1.72843e-14)
(976.162 3.67983 1.58857e-14)
(976.134 3.72491 1.93242e-14)
(976.106 3.77004 1.91691e-14)
(976.078 3.81519 1.49898e-14)
(976.05 3.8603 1.45738e-14)
(976.023 3.90536 1.38126e-14)
(975.995 3.95032 1.62646e-14)
(975.968 3.99518 1.71257e-14)
(975.94 4.03992 1.39012e-14)
(975.913 4.08455 1.50496e-14)
(975.886 4.12907 1.50864e-14)
(975.859 4.17351 1.49873e-14)
(975.831 4.21789 1.62308e-14)
(975.804 4.26227 1.62161e-14)
(975.777 4.30668 1.52444e-14)
(975.749 4.35118 1.68124e-14)
(975.721 4.39585 1.435e-14)
(975.693 4.44075 1.54401e-14)
(975.664 4.48595 1.55194e-14)
(975.635 4.53153 1.36662e-14)
(975.606 4.57756 1.65477e-14)
(975.576 4.62412 1.70179e-14)
(975.546 4.67126 1.42651e-14)
(975.516 4.71906 1.47159e-14)
(975.485 4.76757 1.72407e-14)
(975.453 4.81682 1.62737e-14)
(975.421 4.86687 1.6253e-14)
(975.389 4.91774 1.50912e-14)
(975.356 4.96945 1.76869e-14)
(975.322 5.02203 1.74685e-14)
(975.288 5.07549 1.44976e-14)
(975.254 5.12983 1.4808e-14)
(975.219 5.18506 1.64983e-14)
(975.183 5.24117 1.49731e-14)
(975.147 5.29816 1.60263e-14)
(975.111 5.35602 1.45849e-14)
(975.074 5.41475 1.44156e-14)
(975.036 5.47432 1.64248e-14)
(974.998 5.53473 1.66696e-14)
(974.96 5.59596 1.46764e-14)
(974.921 5.65799 1.38522e-14)
(974.882 5.7208 1.71164e-14)
(974.842 5.78436 1.61446e-14)
(974.802 5.84866 1.49743e-14)
(974.761 5.91366 1.46634e-14)
(974.72 5.97935 1.54048e-14)
(974.679 6.04568 1.52615e-14)
(974.637 6.11262 1.38872e-14)
(974.595 6.18015 1.37319e-14)
(974.552 6.24823 1.39795e-14)
(973.041 10.404 3.03649e-14)
(973.24 10.0187 3.16146e-14)
(973.425 9.65077 2.70215e-14)
(973.596 9.30133 2.80975e-14)
(973.753 8.97135 2.84762e-14)
(973.897 8.66159 2.70228e-14)
(974.025 8.37262 2.94887e-14)
(974.14 8.10477 2.8783e-14)
(974.241 7.85808 2.58254e-14)
(974.328 7.63227 2.58702e-14)
(974.402 7.42712 2.8406e-14)
(974.464 7.24236 2.7183e-14)
(974.514 7.07733 2.6407e-14)
(974.552 6.93251 2.6247e-14)
(974.578 6.80907 2.66494e-14)
(974.594 6.70517 2.44877e-14)
(974.599 6.61976 2.51893e-14)
(974.595 6.55338 2.56815e-14)
(974.583 6.50214 2.63127e-14)
(974.561 6.46996 2.55223e-14)
(974.526 6.45974 2.60716e-14)
(974.505 6.46189 2.78802e-14)
(974.472 6.47168 2.77553e-14)
(974.427 6.49275 2.62689e-14)
(974.378 6.52624 2.53073e-14)
(974.326 6.57093 2.62031e-14)
(974.27 6.62542 2.77128e-14)
(974.212 6.68845 2.46113e-14)
(974.152 6.75889 2.35251e-14)
(974.09 6.83576 2.53888e-14)
(974.026 6.91822 2.55583e-14)
(973.962 7.00551 2.54956e-14)
(973.896 7.097 2.48832e-14)
(973.829 7.19217 2.6746e-14)
(973.761 7.29057 2.58715e-14)
(973.692 7.39187 2.60275e-14)
(973.623 7.49584 2.65279e-14)
(973.552 7.60232 2.47504e-14)
(973.48 7.71123 2.46909e-14)
(973.407 7.82255 2.33347e-14)
(973.332 7.93627 2.56899e-14)
(973.256 8.05243 2.63604e-14)
(973.179 8.17107 2.41123e-14)
(973.1 8.29223 2.56909e-14)
(973.019 8.41597 2.57778e-14)
(972.937 8.54232 2.37229e-14)
(972.853 8.67133 2.32596e-14)
(972.768 8.803 2.45775e-14)
(972.681 8.93733 2.71171e-14)
(972.593 9.07429 2.23767e-14)
(972.503 9.21382 2.10717e-14)
(972.413 9.35581 2.11541e-14)
(972.321 9.50013 2.24751e-14)
(972.229 9.64658 2.47465e-14)
(972.136 9.79494 2.18055e-14)
(972.042 9.94496 2.21609e-14)
(971.948 10.0963 2.50177e-14)
(971.854 10.2487 2.50312e-14)
(971.76 10.4018 2.30077e-14)
(971.667 10.5553 2.27179e-14)
(971.573 10.7088 2.33063e-14)
(971.48 10.862 2.06604e-14)
(971.388 11.0146 2.06421e-14)
(971.297 11.1664 2.06275e-14)
(971.206 11.3171 2.08391e-14)
(971.115 11.4665 2.09643e-14)
(971.026 11.6146 2.08141e-14)
(970.937 11.7613 2.05099e-14)
(970.848 11.9065 2.05169e-14)
(970.76 12.0503 2.07274e-14)
(970.672 12.1929 2.17614e-14)
(970.585 12.3342 2.1369e-14)
(970.497 12.4746 2.15575e-14)
(970.409 12.6141 2.13975e-14)
(970.322 12.7531 1.95002e-14)
(970.233 12.8916 2.00959e-14)
(970.145 13.03 2.25431e-14)
(970.056 13.1684 2.21504e-14)
(969.966 13.307 2.22588e-14)
(969.876 13.446 2.38927e-14)
(969.784 13.5856 2.23014e-14)
(969.692 13.7258 2.06245e-14)
(969.6 13.8668 1.96161e-14)
(969.506 14.0088 2.07378e-14)
(969.412 14.1518 2.19649e-14)
(969.317 14.2958 1.85351e-14)
(969.221 14.4411 2.09744e-14)
(969.123 14.5877 2.37659e-14)
(969.026 14.7356 2.16156e-14)
(968.927 14.8849 1.9368e-14)
(968.827 15.0357 2.0301e-14)
(968.726 15.188 1.97822e-14)
(968.624 15.342 2.07277e-14)
(968.521 15.4976 2.14742e-14)
(968.418 15.6551 1.87355e-14)
(968.313 15.8144 1.90948e-14)
(968.206 15.9757 2.33845e-14)
(968.099 16.139 2.21626e-14)
(967.991 16.3044 1.94654e-14)
(967.881 16.4721 2.13326e-14)
(967.77 16.642 2.06715e-14)
(967.657 16.8144 1.99246e-14)
(967.543 16.9893 2.10945e-14)
(967.427 17.1668 1.98432e-14)
(967.31 17.347 1.8566e-14)
(967.191 17.5301 1.96527e-14)
(965.538 24.8493 3.69949e-14)
(965.967 24.0157 3.82034e-14)
(966.372 23.2058 3.71492e-14)
(966.753 22.4226 3.64933e-14)
(967.108 21.6695 3.75382e-14)
(967.437 20.9499 3.49195e-14)
(967.737 20.2669 3.51869e-14)
(968.009 19.6233 3.82304e-14)
(968.252 19.0216 3.93712e-14)
(968.466 18.4645 3.80648e-14)
(968.649 17.9547 3.50156e-14)
(968.801 17.494 3.50541e-14)
(968.924 17.0834 3.59726e-14)
(969.016 16.7242 3.32623e-14)
(969.079 16.4156 3.39096e-14)
(969.116 16.1507 3.69316e-14)
(969.129 15.9314 3.47921e-14)
(969.114 15.766 3.67042e-14)
(969.076 15.6414 3.56115e-14)
(969.02 15.5556 3.32938e-14)
(968.93 15.5289 3.31506e-14)
(968.848 15.543 3.40017e-14)
(968.773 15.5669 3.57915e-14)
(968.659 15.6184 3.65275e-14)
(968.529 15.7032 3.34899e-14)
(968.39 15.8181 3.25459e-14)
(968.244 15.9586 3.23902e-14)
(968.091 16.1216 2.90574e-14)
(967.932 16.3044 2.96477e-14)
(967.769 16.5045 3.18689e-14)
(967.602 16.7199 3.19017e-14)
(967.432 16.9486 3.20371e-14)
(967.259 17.1887 3.23069e-14)
(967.083 17.4386 3.18744e-14)
(966.906 17.6968 3.27719e-14)
(966.726 17.962 3.23037e-14)
(966.545 18.2333 3.39182e-14)
(966.362 18.5098 3.33814e-14)
(966.177 18.7907 2.89592e-14)
(965.99 19.0756 2.99313e-14)
(965.801 19.3643 3.30327e-14)
(965.609 19.6563 3.30527e-14)
(965.415 19.9518 3.10814e-14)
(965.219 20.2507 3.06584e-14)
(965.019 20.5532 3.27103e-14)
(964.817 20.8594 3.20721e-14)
(964.612 21.1696 3.1587e-14)
(964.403 21.484 3.01355e-14)
(964.192 21.8027 2.94952e-14)
(963.978 22.1259 3.03813e-14)
(963.762 22.4535 2.87716e-14)
(963.543 22.7857 2.74524e-14)
(963.321 23.1221 2.80206e-14)
(963.098 23.4629 3.13477e-14)
(962.873 23.8076 3.10758e-14)
(962.647 24.156 2.93281e-14)
(962.42 24.5077 2.95822e-14)
(962.193 24.8624 3.08662e-14)
(961.965 25.2198 3.00469e-14)
(961.738 25.5793 2.81817e-14)
(961.51 25.9407 2.83747e-14)
(961.284 26.3035 2.96582e-14)
(961.057 26.6673 2.81986e-14)
(960.832 27.0318 2.78768e-14)
(960.607 27.3968 2.86422e-14)
(960.382 27.7621 2.71457e-14)
(960.158 28.1276 2.48687e-14)
(959.934 28.4931 2.55129e-14)
(959.71 28.8588 2.55358e-14)
(959.486 29.2246 2.73449e-14)
(959.261 29.5908 2.74957e-14)
(959.034 29.9576 2.73305e-14)
(958.807 30.3252 2.91325e-14)
(958.577 30.6941 2.69286e-14)
(958.345 31.0646 2.59223e-14)
(958.111 31.4372 2.65688e-14)
(957.874 31.8125 2.61315e-14)
(957.634 32.191 2.6935e-14)
(957.391 32.5734 2.72732e-14)
(957.144 32.9602 2.77654e-14)
(956.892 33.3519 2.89501e-14)
(956.637 33.7492 2.77302e-14)
(956.378 34.1524 2.55124e-14)
(956.114 34.5621 2.47215e-14)
(955.845 34.9786 2.71059e-14)
(955.572 35.4024 2.78337e-14)
(955.293 35.8336 2.6671e-14)
(955.01 36.2726 2.72457e-14)
(954.722 36.7196 2.79161e-14)
(954.429 37.1748 2.59171e-14)
(954.131 37.6383 2.67777e-14)
(953.828 38.1102 2.79998e-14)
(953.52 38.5907 2.5271e-14)
(953.207 39.0798 2.5287e-14)
(952.888 39.5776 2.53658e-14)
(952.565 40.0841 2.3775e-14)
(952.236 40.5994 2.49237e-14)
(951.903 41.1234 2.62584e-14)
(951.565 41.6561 2.381e-14)
(951.221 42.1976 2.51966e-14)
(950.873 42.7477 2.5686e-14)
(950.519 43.3065 2.32473e-14)
(950.161 43.8738 2.50169e-14)
(949.798 44.4495 2.65471e-14)
(949.43 45.0335 2.5214e-14)
(949.057 45.6257 2.48566e-14)
(948.68 46.226 2.67825e-14)
(951.746 51.5504 4.41232e-14)
(952.562 49.9399 4.30329e-14)
(953.322 48.3912 4.32329e-14)
(954.023 46.9101 4.19317e-14)
(954.664 45.5007 4.26759e-14)
(955.245 44.1663 4.34737e-14)
(955.765 42.9104 4.60754e-14)
(956.223 41.7366 4.40038e-14)
(956.621 40.647 4.42054e-14)
(956.958 39.6437 4.42411e-14)
(957.236 38.7279 4.15278e-14)
(957.456 37.9 4.31359e-14)
(957.619 37.1609 4.26568e-14)
(957.728 36.511 4.15341e-14)
(957.784 35.9506 4.37415e-14)
(957.784 35.4939 4.12815e-14)
(957.728 35.1451 3.91909e-14)
(957.628 34.8638 4.04254e-14)
(957.483 34.6626 4.05502e-14)
(957.262 34.59 4.03753e-14)
(957.09 34.6042 4.02024e-14)
(956.897 34.6499 4.12761e-14)
(956.631 34.7539 4.23911e-14)
(956.334 34.9269 4.02572e-14)
(956.018 35.1651 3.61248e-14)
(955.685 35.4613 3.75841e-14)
(955.338 35.8083 3.75246e-14)
(954.98 36.1996 3.73234e-14)
(954.613 36.6289 3.93835e-14)
(954.239 37.0907 3.88792e-14)
(953.86 37.5799 3.92453e-14)
(953.478 38.0922 3.938e-14)
(953.093 38.6237 3.99003e-14)
(952.706 39.1713 3.86291e-14)
(952.318 39.7326 4.06075e-14)
(951.927 40.3058 3.96418e-14)
(951.534 40.8894 3.82002e-14)
(951.139 41.4828 3.6442e-14)
(950.739 42.0856 3.62771e-14)
(950.334 42.6981 3.79242e-14)
(949.924 43.3205 3.75076e-14)
(949.507 43.9537 3.7897e-14)
(949.082 44.5983 3.79881e-14)
(948.65 45.2553 3.70832e-14)
(948.208 45.9254 3.92823e-14)
(947.756 46.6095 3.79295e-14)
(947.295 47.3083 3.69175e-14)
(946.824 48.0226 3.60707e-14)
(946.343 48.7529 3.54166e-14)
(945.851 49.4997 3.7265e-14)
(945.35 50.2634 3.46705e-14)
(944.84 51.0442 3.22902e-14)
(944.321 51.842 3.50436e-14)
(943.793 52.6567 3.73758e-14)
(943.258 53.4878 3.93414e-14)
(942.716 54.3346 3.7604e-14)
(942.168 55.1965 3.5298e-14)
(941.615 56.0721 3.18666e-14)
(941.059 56.9602 3.23263e-14)
(940.499 57.8592 3.38667e-14)
(939.937 58.7677 3.40613e-14)
(939.373 59.6839 3.2687e-14)
(938.809 60.6061 3.40314e-14)
(938.246 61.5324 3.51755e-14)
(937.683 62.4611 3.1259e-14)
(937.122 63.3905 3.25639e-14)
(936.562 64.3191 3.73673e-14)
(936.005 65.2455 3.23314e-14)
(935.449 66.1686 2.93451e-14)
(934.895 67.0875 3.3143e-14)
(934.343 68.0015 3.26283e-14)
(933.793 68.9103 3.0397e-14)
(933.243 69.8137 3.13309e-14)
(932.694 70.7118 3.26806e-14)
(932.145 71.6049 3.23691e-14)
(931.596 72.4936 3.18308e-14)
(931.045 73.379 3.23717e-14)
(930.493 74.2621 3.2228e-14)
(929.937 75.1442 3.19944e-14)
(929.379 76.0263 2.91971e-14)
(928.817 76.9095 2.91615e-14)
(928.25 77.7948 3.2112e-14)
(927.679 78.683 3.24634e-14)
(927.103 79.575 3.11921e-14)
(926.522 80.4715 3.01357e-14)
(925.936 81.373 2.97877e-14)
(925.344 82.2802 2.95044e-14)
(924.747 83.1936 3.12112e-14)
(924.144 84.1135 3.08809e-14)
(923.534 85.0405 2.98399e-14)
(922.918 85.9749 3.0799e-14)
(922.296 86.9171 2.92587e-14)
(921.668 87.8675 2.89716e-14)
(921.033 88.8264 3.15708e-14)
(920.391 89.7943 3.06045e-14)
(919.742 90.7715 2.77165e-14)
(919.086 91.7583 2.86697e-14)
(918.423 92.7553 2.98103e-14)
(917.752 93.7627 2.81887e-14)
(917.074 94.7811 2.79428e-14)
(916.388 95.8108 3.05924e-14)
(915.695 96.8522 2.97866e-14)
(914.993 97.9058 3.07099e-14)
(914.283 98.9719 2.9092e-14)
(913.565 100.051 2.70828e-14)
(912.839 101.143 2.74647e-14)
(912.105 102.249 3.0087e-14)
(924.447 104.474 4.82097e-14)
(925.858 101.895 4.92186e-14)
(927.213 99.327 4.92906e-14)
(928.506 96.7815 4.5706e-14)
(929.732 94.2729 4.67879e-14)
(930.884 91.8163 4.69343e-14)
(931.956 89.4276 4.79745e-14)
(932.941 87.1244 5.01528e-14)
(933.833 84.9242 4.96426e-14)
(934.626 82.8395 4.92755e-14)
(935.316 80.8823 4.60412e-14)
(935.9 79.0662 4.79011e-14)
(936.372 77.4027 5.10209e-14)
(936.733 75.9 4.72195e-14)
(936.981 74.5656 4.69843e-14)
(937.119 73.4057 4.74708e-14)
(937.149 72.4227 4.71229e-14)
(937.072 71.6166 4.7638e-14)
(936.896 70.9691 4.65082e-14)
(936.641 70.4495 4.68952e-14)
(936.312 70.1095 4.54271e-14)
(935.798 70.0185 4.58021e-14)
(935.356 70.1156 4.526e-14)
(934.949 70.2179 4.44726e-14)
(934.381 70.4397 4.57181e-14)
(933.748 70.8023 4.71675e-14)
(933.077 71.2908 4.64105e-14)
(932.378 71.8882 4.61852e-14)
(931.657 72.5817 4.62522e-14)
(930.919 73.3595 4.53961e-14)
(930.168 74.2101 4.45664e-14)
(929.41 75.1231 4.44325e-14)
(928.647 76.0895 4.65059e-14)
(927.881 77.1008 4.69949e-14)
(927.116 78.1497 4.52459e-14)
(926.353 79.2291 4.29473e-14)
(925.59 80.3335 4.10983e-14)
(924.829 81.4583 4.24788e-14)
(924.069 82.5996 4.22947e-14)
(923.309 83.7545 4.26066e-14)
(922.547 84.9208 4.2574e-14)
(921.782 86.0971 4.24018e-14)
(921.013 87.2825 4.09301e-14)
(920.238 88.4767 4.14814e-14)
(919.456 89.6798 4.30443e-14)
(918.666 90.8924 4.31482e-14)
(917.867 92.1153 4.24859e-14)
(917.057 93.3495 4.27692e-14)
(916.236 94.5963 4.36364e-14)
(915.403 95.8569 4.31148e-14)
(914.559 97.1324 4.0472e-14)
(913.702 98.4242 4.015e-14)
(912.832 99.7331 4.06558e-14)
(911.951 101.06 4.05966e-14)
(911.059 102.404 4.13674e-14)
(910.156 103.767 3.78076e-14)
(909.243 105.149 3.67637e-14)
(908.322 106.548 4.10208e-14)
(907.393 107.964 4.01288e-14)
(906.458 109.396 3.68047e-14)
(905.519 110.842 3.72759e-14)
(904.577 112.301 3.91087e-14)
(903.634 113.77 3.55949e-14)
(902.691 115.248 3.6789e-14)
(901.75 116.733 3.66751e-14)
(900.811 118.222 3.64019e-14)
(899.876 119.713 4.03718e-14)
(898.946 121.204 3.77756e-14)
(898.022 122.693 3.75322e-14)
(897.105 124.179 3.82908e-14)
(896.193 125.659 3.50641e-14)
(895.288 127.134 3.54436e-14)
(894.388 128.602 3.3757e-14)
(893.495 130.062 3.49562e-14)
(892.605 131.515 3.55889e-14)
(891.72 132.96 3.56659e-14)
(890.837 134.399 3.49746e-14)
(889.957 135.831 3.57367e-14)
(889.083 137.25 3.37473e-14)
(888.213 138.654 3.53937e-14)
(887.348 140.044 3.42608e-14)
(886.487 141.423 3.42517e-14)
(885.63 142.79 3.33569e-14)
(884.775 144.147 3.23295e-14)
(883.924 145.497 3.49299e-14)
(883.074 146.839 3.34736e-14)
(882.227 148.175 3.37445e-14)
(881.382 149.506 3.18573e-14)
(880.539 150.833 3.02751e-14)
(879.697 152.156 3.08214e-14)
(878.858 153.476 3.04988e-14)
(878.019 154.794 3.11429e-14)
(877.183 156.109 3.11692e-14)
(876.349 157.421 2.80065e-14)
(875.516 158.732 2.98835e-14)
(874.685 160.039 3.20582e-14)
(873.856 161.345 3.08438e-14)
(873.03 162.647 3.24663e-14)
(872.206 163.947 3.12136e-14)
(871.384 165.243 3.03285e-14)
(870.566 166.535 2.95493e-14)
(869.75 167.823 2.95116e-14)
(868.939 169.107 3.17948e-14)
(868.131 170.386 2.95407e-14)
(867.328 171.659 3.26653e-14)
(866.53 172.926 3.10456e-14)
(865.737 174.187 3.21195e-14)
(864.949 175.44 3.03193e-14)
(864.169 176.686 2.84616e-14)
(863.395 177.923 3.02235e-14)
(895.599 160.427 4.88384e-14)
(897.057 157.877 5.08738e-14)
(898.439 155.32 5.18795e-14)
(899.737 152.764 5.02012e-14)
(900.943 150.221 5.197e-14)
(902.05 147.699 5.25794e-14)
(903.05 145.212 5.32199e-14)
(903.936 142.776 5.1373e-14)
(904.703 140.409 5.41811e-14)
(905.346 138.138 5.3288e-14)
(905.86 135.979 5.20195e-14)
(906.241 133.948 5.39192e-14)
(906.482 132.068 5.4923e-14)
(906.575 130.367 5.19017e-14)
(906.521 128.861 4.96116e-14)
(906.321 127.555 5.12196e-14)
(905.985 126.446 5.41945e-14)
(905.536 125.542 5.38053e-14)
(904.965 124.893 5.20468e-14)
(904.147 124.529 4.96292e-14)
(903.225 124.46 5.05452e-14)
(902.589 124.504 5.05755e-14)
(901.629 124.695 5.23209e-14)
(900.592 125.061 5.29819e-14)
(899.506 125.61 5.05901e-14)
(898.374 126.334 5.02589e-14)
(897.208 127.214 5.1902e-14)
(896.022 128.23 5.22586e-14)
(894.827 129.364 4.97598e-14)
(893.629 130.599 4.59956e-14)
(892.434 131.922 4.55646e-14)
(891.248 133.32 4.98137e-14)
(890.073 134.78 4.94634e-14)
(888.911 136.289 4.56564e-14)
(887.767 137.836 4.62953e-14)
(886.643 139.404 4.75043e-14)
(885.545 140.976 4.70515e-14)
(884.472 142.543 4.62882e-14)
(883.423 144.1 4.529e-14)
(882.397 145.641 4.71419e-14)
(881.392 147.164 4.61665e-14)
(880.405 148.668 4.40856e-14)
(879.433 150.152 4.40139e-14)
(878.476 151.618 4.438e-14)
(877.53 153.065 4.43939e-14)
(876.593 154.497 4.40234e-14)
(875.663 155.915 4.59299e-14)
(874.74 157.32 4.46649e-14)
(873.822 158.715 4.32755e-14)
(872.909 160.1 4.42081e-14)
(872 161.477 4.24801e-14)
(871.096 162.847 4.41641e-14)
(870.199 164.211 4.04629e-14)
(869.307 165.57 4.34423e-14)
(868.423 166.924 4.22098e-14)
(867.549 168.273 4.05187e-14)
(866.685 169.616 4.2414e-14)
(865.833 170.954 4.01879e-14)
(864.993 172.287 4.16287e-14)
(864.169 173.614 4.25413e-14)
(863.36 174.933 4.04164e-14)
(862.567 176.245 4.14194e-14)
(861.789 177.55 3.9863e-14)
(861.028 178.845 3.98397e-14)
(860.284 180.129 3.61805e-14)
(859.558 181.399 3.99931e-14)
(858.849 182.656 3.96764e-14)
(858.157 183.895 3.6196e-14)
(857.482 185.116 3.89385e-14)
(856.824 186.316 3.96413e-14)
(856.182 187.493 3.64731e-14)
(855.557 188.646 3.52559e-14)
(854.948 189.772 3.50824e-14)
(854.353 190.871 3.78617e-14)
(853.774 191.94 3.37406e-14)
(853.209 192.978 3.48094e-14)
(852.657 193.985 3.61198e-14)
(852.119 194.962 3.53e-14)
(851.59 195.912 3.48811e-14)
(851.07 196.838 3.45682e-14)
(850.56 197.741 3.41032e-14)
(850.057 198.622 3.4694e-14)
(849.563 199.482 3.72897e-14)
(849.076 200.323 3.61709e-14)
(848.597 201.145 3.6949e-14)
(848.126 201.949 3.79586e-14)
(847.663 202.736 3.73004e-14)
(847.207 203.507 3.32215e-14)
(846.76 204.261 3.42219e-14)
(846.322 205 3.40749e-14)
(845.893 205.722 3.50895e-14)
(845.474 206.428 3.28374e-14)
(845.065 207.118 3.44583e-14)
(844.666 207.791 3.11252e-14)
(844.278 208.447 3.23581e-14)
(843.901 209.086 3.07062e-14)
(843.535 209.707 3.04884e-14)
(843.181 210.311 2.98111e-14)
(842.838 210.896 2.82044e-14)
(842.506 211.464 3.02177e-14)
(842.186 212.013 3.03365e-14)
(841.878 212.544 2.97762e-14)
(841.582 213.057 2.93353e-14)
(841.298 213.552 2.78488e-14)
(841.025 214.029 3.04043e-14)
(840.764 214.489 2.71865e-14)
(840.515 214.933 2.95673e-14)
(840.277 215.359 2.93202e-14)
(840.051 215.77 3.00849e-14)
(839.836 216.165 2.84312e-14)
(874.624 200.953 5.33128e-14)
(875.505 199.305 5.29286e-14)
(876.309 197.626 5.23254e-14)
(877.025 195.94 5.43336e-14)
(877.644 194.269 5.5694e-14)
(878.149 192.643 5.39596e-14)
(878.524 191.09 5.24863e-14)
(878.753 189.624 5.57587e-14)
(878.822 188.264 5.61798e-14)
(878.744 186.996 5.61638e-14)
(878.528 185.824 5.54207e-14)
(878.153 184.781 5.46002e-14)
(877.604 183.865 5.51223e-14)
(876.888 183.055 5.39921e-14)
(876.021 182.368 5.54756e-14)
(875.011 181.823 5.53842e-14)
(873.877 181.404 5.5118e-14)
(872.483 181.113 5.50929e-14)
(871.334 181.083 5.46002e-14)
(870.157 181.142 5.51604e-14)
(868.709 181.364 5.6467e-14)
(867.313 181.677 5.40461e-14)
(865.878 182.127 5.40811e-14)
(864.43 182.679 5.39467e-14)
(863.006 183.315 5.3372e-14)
(861.63 184.034 5.35481e-14)
(860.315 184.821 5.12774e-14)
(859.069 185.663 5.13267e-14)
(857.895 186.546 5.41117e-14)
(856.798 187.448 4.92675e-14)
(855.783 188.349 5.08678e-14)
(854.852 189.238 4.99439e-14)
(854.006 190.11 5.17496e-14)
(853.24 190.962 5.16458e-14)
(852.547 191.793 5.10823e-14)
(851.916 192.607 5.04794e-14)
(851.336 193.409 4.97816e-14)
(850.796 194.2 4.9854e-14)
(850.288 194.979 4.84381e-14)
(849.804 195.748 4.84878e-14)
(849.336 196.508 4.97379e-14)
(848.879 197.259 4.73056e-14)
(848.429 198.001 4.70733e-14)
(847.984 198.733 4.39844e-14)
(847.54 199.458 4.2307e-14)
(847.097 200.174 4.36914e-14)
(846.654 200.883 4.42812e-14)
(846.21 201.585 4.29938e-14)
(845.767 202.281 4.27178e-14)
(845.325 202.971 4.41725e-14)
(844.886 203.655 4.58624e-14)
(844.448 204.334 4.54909e-14)
(844.015 205.01 4.20906e-14)
(843.588 205.681 4.25279e-14)
(843.169 206.348 4.29897e-14)
(842.757 207.013 4.30026e-14)
(842.355 207.675 4.01898e-14)
(841.965 208.332 4.12015e-14)
(841.587 208.986 3.93045e-14)
(841.222 209.637 4.27284e-14)
(840.87 210.283 3.96256e-14)
(840.534 210.92 3.96972e-14)
(840.215 211.544 4.04144e-14)
(839.914 212.158 4.08964e-14)
(839.63 212.762 3.97787e-14)
(839.363 213.353 4.00365e-14)
(839.113 213.928 3.99258e-14)
(838.879 214.487 3.85809e-14)
(838.661 215.029 3.94473e-14)
(838.458 215.553 3.67958e-14)
(838.269 216.056 3.86642e-14)
(838.093 216.539 3.86903e-14)
(837.93 217.001 3.66056e-14)
(837.777 217.442 3.85285e-14)
(837.635 217.861 3.44957e-14)
(837.501 218.258 3.27555e-14)
(837.375 218.634 3.46335e-14)
(837.257 218.989 3.31227e-14)
(837.144 219.324 3.28056e-14)
(837.037 219.639 3.60874e-14)
(836.936 219.937 3.39511e-14)
(836.839 220.216 3.46746e-14)
(836.748 220.48 3.49887e-14)
(836.661 220.727 3.76612e-14)
(836.579 220.96 3.34701e-14)
(836.503 221.181 3.51968e-14)
(836.433 221.39 3.49532e-14)
(836.368 221.589 3.95104e-14)
(836.309 221.78 3.69604e-14)
(836.257 221.964 3.8978e-14)
(836.209 222.142 3.56582e-14)
(836.167 222.316 3.95306e-14)
(836.131 222.485 3.81276e-14)
(836.099 222.652 3.59735e-14)
(836.071 222.817 3.69249e-14)
(836.047 222.98 3.6092e-14)
(836.026 223.143 3.64776e-14)
(836.008 223.305 3.13987e-14)
(835.992 223.467 3.0785e-14)
(835.977 223.629 3.09156e-14)
(835.963 223.791 3.00276e-14)
(835.949 223.955 2.7749e-14)
(835.935 224.119 2.95874e-14)
(835.919 224.283 2.74116e-14)
(835.902 224.449 2.81818e-14)
(835.883 224.615 2.69275e-14)
(835.861 224.782 2.50853e-14)
(835.836 224.95 2.58145e-14)
(835.807 225.117 2.77491e-14)
(835.775 225.285 2.70761e-14)
(866.869 217.354 5.00027e-14)
(867.132 216.914 5.14355e-14)
(867.276 216.454 5.17354e-14)
(867.305 215.966 5.36852e-14)
(867.219 215.449 5.47067e-14)
(867.015 214.915 5.53525e-14)
(866.694 214.315 5.29517e-14)
(866.27 213.69 5.51676e-14)
(865.676 213.084 5.50515e-14)
(864.856 212.535 5.46454e-14)
(863.913 211.987 5.55684e-14)