/*--------------------------------*- C++ -*----------------------------------*\
| =========                 |                                                 |
| \\      /  F ield         | OpenFOAM: The Open Source CFD Toolbox           |
|  \\    /   O peration     | Version:  v1706                                 |
|   \\  /    A nd           | Web:      www.OpenFOAM.com                      |
|    \\/     M anipulation  |                                                 |
\*---------------------------------------------------------------------------*/
FoamFile
{
    version     2.0;
    format      ascii;
    class       volScalarField;
    location    "1.2e-05";
    object      alpha;
}
// * * * * * * * * * * * * * * * * * * * * * * * * * * * * * * * * * * * * * //

dimensions      [1 -1 -1 0 0 0 0];


internalField   nonuniform List<scalar> 
30038
(
1.40478e-05
1.40478e-05
1.40478e-05
1.40478e-05
1.40478e-05
1.40478e-05
1.40478e-05
1.40478e-05
1.40478e-05
1.40478e-05
1.40478e-05
1.40478e-05
1.40478e-05
1.40478e-05
1.40478e-05
1.40478e-05
1.40478e-05
1.40478e-05
1.40478e-05
1.40478e-05
1.40478e-05
1.40478e-05
1.40478e-05
1.40478e-05
1.40478e-05
1.40478e-05
1.40478e-05
1.40478e-05
1.40478e-05
1.40478e-05
1.40478e-05
1.40478e-05
1.40478e-05
1.40478e-05
1.40478e-05
1.40478e-05
1.40478e-05
1.40478e-05
1.40478e-05
1.40478e-05
1.40478e-05
1.40478e-05
1.40478e-05
1.40478e-05
1.40478e-05
1.40478e-05
1.40478e-05
1.40478e-05
1.40478e-05
1.40478e-05
1.40478e-05
1.40478e-05
1.40478e-05
1.40478e-05
1.40478e-05
1.40478e-05
1.40478e-05
1.40478e-05
1.40478e-05
1.40478e-05
1.40478e-05
1.40478e-05
1.40478e-05
1.40478e-05
1.40478e-05
1.40478e-05
1.40478e-05
1.40478e-05
1.40478e-05
1.40478e-05
1.40478e-05
1.40478e-05
1.40478e-05
1.40478e-05
1.40478e-05
1.40478e-05
1.40478e-05
1.40478e-05
1.40478e-05
1.40478e-05
1.40478e-05
1.40478e-05
1.40478e-05
1.40478e-05
1.40478e-05
1.40478e-05
1.40478e-05
1.40478e-05
1.40478e-05
1.40478e-05
1.40478e-05
1.40478e-05
1.40478e-05
1.40478e-05
1.40478e-05
1.40478e-05
1.40478e-05
1.40478e-05
1.40478e-05
1.40478e-05
1.40478e-05
1.40478e-05
1.40478e-05
1.40478e-05
1.40478e-05
1.40478e-05
1.40478e-05
1.40478e-05
1.40478e-05
1.40478e-05
1.40479e-05
1.40479e-05
1.40479e-05
1.40479e-05
1.40478e-05
1.40478e-05
1.40478e-05
1.40478e-05
1.40478e-05
1.40478e-05
1.40478e-05
1.40478e-05
1.40478e-05
1.40478e-05
1.40478e-05
1.40478e-05
1.40478e-05
1.40478e-05
1.40478e-05
1.40478e-05
1.40478e-05
1.40478e-05
1.40478e-05
1.40478e-05
1.40478e-05
1.40478e-05
1.40478e-05
1.40478e-05
1.40478e-05
1.40478e-05
1.40478e-05
1.40478e-05
1.40478e-05
1.40478e-05
1.40478e-05
1.40479e-05
1.40479e-05
1.40479e-05
1.4048e-05
1.4048e-05
1.40481e-05
1.40482e-05
1.40478e-05
1.40478e-05
1.40478e-05
1.40478e-05
1.40478e-05
1.40478e-05
1.40478e-05
1.40478e-05
1.40478e-05
1.40478e-05
1.40478e-05
1.40478e-05
1.40478e-05
1.40478e-05
1.40478e-05
1.40478e-05
1.40478e-05
1.40478e-05
1.40478e-05
1.40478e-05
1.40478e-05
1.40478e-05
1.40478e-05
1.40478e-05
1.40478e-05
1.40478e-05
1.40478e-05
1.40478e-05
1.40479e-05
1.40479e-05
1.40479e-05
1.4048e-05
1.4048e-05
1.40481e-05
1.40482e-05
1.40483e-05
1.40485e-05
1.40487e-05
1.40478e-05
1.40478e-05
1.40478e-05
1.40478e-05
1.40478e-05
1.40478e-05
1.40478e-05
1.40478e-05
1.40478e-05
1.40478e-05
1.40478e-05
1.40478e-05
1.40478e-05
1.40478e-05
1.40478e-05
1.40478e-05
1.40478e-05
1.40478e-05
1.40478e-05
1.40478e-05
1.40478e-05
1.40478e-05
1.40478e-05
1.40478e-05
1.40478e-05
1.40479e-05
1.40479e-05
1.40479e-05
1.4048e-05
1.4048e-05
1.40481e-05
1.40482e-05
1.40483e-05
1.40485e-05
1.40487e-05
1.4049e-05
1.40495e-05
1.405e-05
1.40478e-05
1.40478e-05
1.40478e-05
1.40478e-05
1.40478e-05
1.40478e-05
1.40478e-05
1.40478e-05
1.40478e-05
1.40478e-05
1.40478e-05
1.40478e-05
1.40478e-05
1.40478e-05
1.40478e-05
1.40478e-05
1.40478e-05
1.40478e-05
1.40478e-05
1.40478e-05
1.40478e-05
1.40478e-05
1.40479e-05
1.40479e-05
1.40479e-05
1.4048e-05
1.4048e-05
1.40481e-05
1.40482e-05
1.40483e-05
1.40485e-05
1.40487e-05
1.4049e-05
1.40494e-05
1.405e-05
1.40507e-05
1.40517e-05
1.4053e-05
1.40478e-05
1.40478e-05
1.40478e-05
1.40478e-05
1.40478e-05
1.40478e-05
1.40478e-05
1.40478e-05
1.40478e-05
1.40478e-05
1.40478e-05
1.40478e-05
1.40478e-05
1.40478e-05
1.40478e-05
1.40478e-05
1.40478e-05
1.40478e-05
1.40478e-05
1.40479e-05
1.40479e-05
1.40479e-05
1.4048e-05
1.4048e-05
1.40481e-05
1.40482e-05
1.40483e-05
1.40485e-05
1.40487e-05
1.4049e-05
1.40494e-05
1.405e-05
1.40507e-05
1.40516e-05
1.40528e-05
1.40544e-05
1.40566e-05
1.40596e-05
1.40478e-05
1.40478e-05
1.40478e-05
1.40478e-05
1.40478e-05
1.40478e-05
1.40478e-05
1.40478e-05
1.40478e-05
1.40478e-05
1.40478e-05
1.40478e-05
1.40478e-05
1.40478e-05
1.40478e-05
1.40478e-05
1.40479e-05
1.40479e-05
1.40479e-05
1.40479e-05
1.4048e-05
1.4048e-05
1.40481e-05
1.40482e-05
1.40483e-05
1.40485e-05
1.40487e-05
1.4049e-05
1.40494e-05
1.405e-05
1.40506e-05
1.40516e-05
1.40528e-05
1.40543e-05
1.40564e-05
1.40592e-05
1.40629e-05
1.40678e-05
1.40744e-05
1.40478e-05
1.40478e-05
1.40478e-05
1.40478e-05
1.40478e-05
1.40478e-05
1.40478e-05
1.40478e-05
1.40478e-05
1.40478e-05
1.40478e-05
1.40478e-05
1.40478e-05
1.40479e-05
1.40479e-05
1.40479e-05
1.40479e-05
1.4048e-05
1.4048e-05
1.40481e-05
1.40482e-05
1.40483e-05
1.40485e-05
1.40487e-05
1.4049e-05
1.40494e-05
1.405e-05
1.40506e-05
1.40515e-05
1.40527e-05
1.40542e-05
1.40563e-05
1.4059e-05
1.40625e-05
1.40672e-05
1.40733e-05
1.40814e-05
1.40922e-05
1.41068e-05
1.40478e-05
1.40478e-05
1.40478e-05
1.40478e-05
1.40478e-05
1.40478e-05
1.40478e-05
1.40478e-05
1.40478e-05
1.40478e-05
1.40479e-05
1.40479e-05
1.40479e-05
1.40479e-05
1.4048e-05
1.4048e-05
1.40481e-05
1.40482e-05
1.40484e-05
1.40485e-05
1.40488e-05
1.40491e-05
1.40494e-05
1.405e-05
1.40506e-05
1.40515e-05
1.40527e-05
1.40542e-05
1.40561e-05
1.40588e-05
1.40622e-05
1.40667e-05
1.40726e-05
1.40804e-05
1.40906e-05
1.41041e-05
1.41218e-05
1.41452e-05
1.41764e-05
1.40478e-05
1.40478e-05
1.40478e-05
1.40478e-05
1.40478e-05
1.40478e-05
1.40478e-05
1.40478e-05
1.40479e-05
1.40479e-05
1.40479e-05
1.40479e-05
1.4048e-05
1.40481e-05
1.40481e-05
1.40482e-05
1.40484e-05
1.40485e-05
1.40488e-05
1.40491e-05
1.40494e-05
1.405e-05
1.40506e-05
1.40515e-05
1.40526e-05
1.40541e-05
1.4056e-05
1.40586e-05
1.40619e-05
1.40663e-05
1.4072e-05
1.40795e-05
1.40893e-05
1.41022e-05
1.4119e-05
1.41411e-05
1.417e-05
1.42078e-05
1.42573e-05
1.43226e-05
1.40478e-05
1.40478e-05
1.40478e-05
1.40478e-05
1.40478e-05
1.40479e-05
1.40479e-05
1.40479e-05
1.40479e-05
1.4048e-05
1.40481e-05
1.40481e-05
1.40482e-05
1.40484e-05
1.40485e-05
1.40488e-05
1.40491e-05
1.40495e-05
1.405e-05
1.40506e-05
1.40515e-05
1.40526e-05
1.4054e-05
1.40559e-05
1.40584e-05
1.40616e-05
1.40659e-05
1.40714e-05
1.40786e-05
1.40881e-05
1.41004e-05
1.41166e-05
1.41376e-05
1.41651e-05
1.42008e-05
1.42473e-05
1.43077e-05
1.43858e-05
1.44869e-05
1.46176e-05
1.40478e-05
1.40478e-05
1.40479e-05
1.40479e-05
1.40479e-05
1.4048e-05
1.4048e-05
1.40481e-05
1.40481e-05
1.40483e-05
1.40484e-05
1.40486e-05
1.40488e-05
1.40491e-05
1.40495e-05
1.405e-05
1.40506e-05
1.40514e-05
1.40525e-05
1.4054e-05
1.40558e-05
1.40582e-05
1.40614e-05
1.40655e-05
1.40708e-05
1.40778e-05
1.40869e-05
1.40988e-05
1.41142e-05
1.41344e-05
1.41606e-05
1.41946e-05
1.42387e-05
1.42958e-05
1.43695e-05
1.44641e-05
1.45851e-05
1.47389e-05
1.49335e-05
1.51777e-05
1.40479e-05
1.40479e-05
1.4048e-05
1.4048e-05
1.40481e-05
1.40482e-05
1.40483e-05
1.40484e-05
1.40486e-05
1.40488e-05
1.40491e-05
1.40495e-05
1.405e-05
1.40506e-05
1.40514e-05
1.40525e-05
1.40539e-05
1.40557e-05
1.40581e-05
1.40612e-05
1.40651e-05
1.40703e-05
1.40771e-05
1.40858e-05
1.40972e-05
1.4112e-05
1.41313e-05
1.41563e-05
1.41887e-05
1.42306e-05
1.42848e-05
1.43545e-05
1.4444e-05
1.45582e-05
1.4703e-05
1.48852e-05
1.51123e-05
1.53921e-05
1.57327e-05
1.61407e-05
1.4048e-05
1.40481e-05
1.40482e-05
1.40483e-05
1.40484e-05
1.40486e-05
1.40488e-05
1.40491e-05
1.40495e-05
1.405e-05
1.40506e-05
1.40514e-05
1.40525e-05
1.40539e-05
1.40557e-05
1.4058e-05
1.4061e-05
1.40648e-05
1.40699e-05
1.40764e-05
1.40848e-05
1.40958e-05
1.411e-05
1.41284e-05
1.41523e-05
1.41831e-05
1.4223e-05
1.42744e-05
1.43405e-05
1.44251e-05
1.4533e-05
1.46699e-05
1.4842e-05
1.50564e-05
1.53206e-05
1.56414e-05
1.60246e-05
1.64742e-05
1.69907e-05
1.75693e-05
1.40483e-05
1.40484e-05
1.40486e-05
1.40488e-05
1.40491e-05
1.40495e-05
1.405e-05
1.40506e-05
1.40515e-05
1.40525e-05
1.40539e-05
1.40556e-05
1.40579e-05
1.40608e-05
1.40646e-05
1.40694e-05
1.40757e-05
1.40839e-05
1.40944e-05
1.41081e-05
1.41257e-05
1.41485e-05
1.41779e-05
1.42158e-05
1.42646e-05
1.43272e-05
1.44073e-05
1.45094e-05
1.46386e-05
1.48012e-05
1.50039e-05
1.52539e-05
1.55582e-05
1.59227e-05
1.63512e-05
1.68445e-05
1.73978e-05
1.80015e-05
1.86417e-05
1.92996e-05
1.40489e-05
1.40492e-05
1.40495e-05
1.405e-05
1.40507e-05
1.40515e-05
1.40525e-05
1.40539e-05
1.40556e-05
1.40578e-05
1.40606e-05
1.40643e-05
1.40691e-05
1.40752e-05
1.4083e-05
1.40932e-05
1.41063e-05
1.41232e-05
1.4145e-05
1.41731e-05
1.42091e-05
1.42555e-05
1.43148e-05
1.43907e-05
1.44871e-05
1.46092e-05
1.47627e-05
1.49543e-05
1.51908e-05
1.54792e-05
1.58256e-05
1.62347e-05
1.6708e-05
1.72428e-05
1.78303e-05
1.84568e-05
1.91028e-05
1.97418e-05
2.03418e-05
2.08784e-05
1.40496e-05
1.40501e-05
1.40507e-05
1.40515e-05
1.40525e-05
1.40539e-05
1.40556e-05
1.40577e-05
1.40605e-05
1.40641e-05
1.40687e-05
1.40747e-05
1.40823e-05
1.40921e-05
1.41047e-05
1.41209e-05
1.41418e-05
1.41686e-05
1.4203e-05
1.4247e-05
1.43033e-05
1.43751e-05
1.44663e-05
1.45817e-05
1.47267e-05
1.49075e-05
1.51311e-05
1.54041e-05
1.57331e-05
1.61229e-05
1.65761e-05
1.70918e-05
1.76632e-05
1.82779e-05
1.89196e-05
1.95648e-05
2.0183e-05
2.07412e-05
2.12137e-05
2.15883e-05
2.1874e-05
1.40515e-05
1.40526e-05
1.40539e-05
1.40556e-05
1.40577e-05
1.40604e-05
1.4064e-05
1.40685e-05
1.40742e-05
1.40816e-05
1.40911e-05
1.41033e-05
1.41189e-05
1.41388e-05
1.41645e-05
1.41972e-05
1.42391e-05
1.42926e-05
1.43607e-05
1.4447e-05
1.4556e-05
1.4693e-05
1.48637e-05
1.50749e-05
1.53333e-05
1.56452e-05
1.60161e-05
1.64492e-05
1.69449e-05
1.74987e-05
1.81001e-05
1.87341e-05
1.93811e-05
2.00145e-05
2.06018e-05
2.11132e-05
2.15299e-05
2.18483e-05
2.20785e-05
2.2236e-05
2.23417e-05
1.40539e-05
1.40556e-05
1.40577e-05
1.40604e-05
1.40638e-05
1.40682e-05
1.40739e-05
1.4081e-05
1.40902e-05
1.4102e-05
1.4117e-05
1.41362e-05
1.41607e-05
1.4192e-05
1.42319e-05
1.42828e-05
1.43473e-05
1.44291e-05
1.45322e-05
1.46616e-05
1.48229e-05
1.50224e-05
1.52667e-05
1.55623e-05
1.59147e-05
1.63278e-05
1.68032e-05
1.73379e-05
1.79241e-05
1.8548e-05
1.91922e-05
1.98344e-05
2.04448e-05
2.09918e-05
2.14511e-05
2.18125e-05
2.20802e-05
2.22681e-05
2.2393e-05
2.24721e-05
2.25187e-05
2.25458e-05
1.40577e-05
1.40604e-05
1.40638e-05
1.40681e-05
1.40736e-05
1.40806e-05
1.40895e-05
1.41008e-05
1.41153e-05
1.41338e-05
1.41573e-05
1.41873e-05
1.42254e-05
1.42737e-05
1.43351e-05
1.44126e-05
1.45102e-05
1.46325e-05
1.47849e-05
1.49734e-05
1.52044e-05
1.54843e-05
1.58188e-05
1.62124e-05
1.66672e-05
1.71821e-05
1.77512e-05
1.8363e-05
1.90008e-05
1.96461e-05
2.0273e-05
2.08504e-05
2.135e-05
2.17551e-05
2.20635e-05
2.22854e-05
2.2437e-05
2.25355e-05
2.25958e-05
2.26297e-05
2.26475e-05
2.26535e-05
2.26521e-05
1.4068e-05
1.40734e-05
1.40802e-05
1.40888e-05
1.40999e-05
1.41139e-05
1.41317e-05
1.41543e-05
1.4183e-05
1.42194e-05
1.42655e-05
1.43239e-05
1.43974e-05
1.44899e-05
1.46057e-05
1.47498e-05
1.4928e-05
1.51464e-05
1.54113e-05
1.57286e-05
1.61032e-05
1.65377e-05
1.70322e-05
1.75828e-05
1.81802e-05
1.88096e-05
1.94532e-05
2.00898e-05
2.06912e-05
2.1227e-05
2.1675e-05
2.20262e-05
2.22858e-05
2.24678e-05
2.25891e-05
2.26656e-05
2.27111e-05
2.27361e-05
2.27472e-05
2.27479e-05
2.27448e-05
2.27382e-05
2.27283e-05
1.40799e-05
1.40883e-05
1.40991e-05
1.41126e-05
1.41298e-05
1.41516e-05
1.41791e-05
1.4214e-05
1.42581e-05
1.43137e-05
1.43836e-05
1.44714e-05
1.45811e-05
1.47175e-05
1.4886e-05
1.50926e-05
1.53433e-05
1.56442e-05
1.60003e-05
1.64149e-05
1.68889e-05
1.74201e-05
1.80011e-05
1.86196e-05
1.92585e-05
1.98991e-05
2.05174e-05
2.10842e-05
2.15725e-05
2.19672e-05
2.22672e-05
2.2483e-05
2.26306e-05
2.27267e-05
2.27859e-05
2.28195e-05
2.28372e-05
2.28435e-05
2.2842e-05
2.28366e-05
2.2829e-05
2.28199e-05
2.28074e-05
2.2796e-05
1.40984e-05
1.41116e-05
1.41282e-05
1.41493e-05
1.41758e-05
1.42093e-05
1.42514e-05
1.43045e-05
1.43711e-05
1.44546e-05
1.45587e-05
1.46879e-05
1.48474e-05
1.50429e-05
1.52803e-05
1.55656e-05
1.59039e-05
1.62991e-05
1.67528e-05
1.72639e-05
1.78271e-05
1.84323e-05
1.90642e-05
1.97043e-05
2.0333e-05
2.0924e-05
2.14487e-05
2.18859e-05
2.22283e-05
2.24813e-05
2.26589e-05
2.27776e-05
2.28529e-05
2.28979e-05
2.29231e-05
2.29347e-05
2.29363e-05
2.29338e-05
2.29279e-05
2.29182e-05
2.29088e-05
2.29e-05
2.28875e-05
2.28744e-05
2.28629e-05
1.41269e-05
1.41473e-05
1.41729e-05
1.42051e-05
1.42455e-05
1.42963e-05
1.43599e-05
1.44394e-05
1.45383e-05
1.46609e-05
1.48121e-05
1.49973e-05
1.52223e-05
1.54927e-05
1.58141e-05
1.61904e-05
1.66242e-05
1.71151e-05
1.76595e-05
1.82492e-05
1.88713e-05
1.95086e-05
2.0142e-05
2.075e-05
2.13055e-05
2.17827e-05
2.21679e-05
2.24608e-05
2.26718e-05
2.28164e-05
2.2911e-05
2.29697e-05
2.30036e-05
2.30216e-05
2.30288e-05
2.30281e-05
2.30236e-05
2.30166e-05
2.30093e-05
2.29974e-05
2.29862e-05
2.2977e-05
2.29671e-05
2.29548e-05
2.29426e-05
2.29319e-05
1.41457e-05
1.41704e-05
1.42015e-05
1.42404e-05
1.42891e-05
1.43499e-05
1.44257e-05
1.45199e-05
1.46365e-05
1.478e-05
1.49557e-05
1.51689e-05
1.54255e-05
1.57307e-05
1.6089e-05
1.65033e-05
1.69741e-05
1.74991e-05
1.8072e-05
1.86817e-05
1.93132e-05
1.99478e-05
2.05665e-05
2.11457e-05
2.16589e-05
2.2086e-05
2.24204e-05
2.26679e-05
2.28421e-05
2.29591e-05
2.30339e-05
2.3079e-05
2.31046e-05
2.31171e-05
2.31197e-05
2.3118e-05
2.31128e-05
2.31044e-05
2.30956e-05
2.30879e-05
2.30773e-05
2.30645e-05
2.30536e-05
2.3045e-05
2.30351e-05
2.3024e-05
2.30132e-05
2.30036e-05
1.4236e-05
1.42828e-05
1.43411e-05
1.44136e-05
1.45035e-05
1.46145e-05
1.4751e-05
1.49178e-05
1.51203e-05
1.53639e-05
1.56539e-05
1.59949e-05
1.63904e-05
1.68414e-05
1.73468e-05
1.79016e-05
1.84971e-05
1.91199e-05
1.97529e-05
2.03772e-05
2.09734e-05
2.15166e-05
2.19829e-05
2.23592e-05
2.26457e-05
2.28527e-05
2.29953e-05
2.3089e-05
2.31477e-05
2.31822e-05
2.32008e-05
2.32091e-05
2.32093e-05
2.32059e-05
2.31996e-05
2.31934e-05
2.31832e-05
2.31725e-05
2.31638e-05
2.3156e-05
2.3145e-05
2.3133e-05
2.31231e-05
2.31148e-05
2.31057e-05
2.3096e-05
2.30869e-05
2.30787e-05
1.42775e-05
1.43335e-05
1.4403e-05
1.4489e-05
1.45949e-05
1.4725e-05
1.48837e-05
1.50762e-05
1.53076e-05
1.55834e-05
1.59081e-05
1.62854e-05
1.67172e-05
1.7203e-05
1.77393e-05
1.83189e-05
1.89304e-05
1.95588e-05
2.01858e-05
2.07927e-05
2.13588e-05
2.186e-05
2.22771e-05
2.26041e-05
2.28468e-05
2.30184e-05
2.31342e-05
2.32089e-05
2.32544e-05
2.32806e-05
2.32943e-05
2.32982e-05
2.3297e-05
2.32929e-05
2.3286e-05
2.32778e-05
2.32704e-05
2.32627e-05
2.32507e-05
2.32401e-05
2.32323e-05
2.32245e-05
2.32145e-05
2.32041e-05
2.31952e-05
2.31874e-05
2.31795e-05
2.31715e-05
2.31641e-05
2.31576e-05
1.44763e-05
1.45777e-05
1.47018e-05
1.48531e-05
1.50364e-05
1.52567e-05
1.55191e-05
1.58284e-05
1.61885e-05
1.66017e-05
1.70682e-05
1.75856e-05
1.81482e-05
1.87466e-05
1.93673e-05
1.99938e-05
2.06075e-05
2.119e-05
2.17197e-05
2.21748e-05
2.25425e-05
2.28231e-05
2.30267e-05
2.31677e-05
2.3261e-05
2.33201e-05
2.33554e-05
2.33749e-05
2.3384e-05
2.33857e-05
2.33833e-05
2.33778e-05
2.33719e-05
2.33647e-05
2.33542e-05
2.33461e-05
2.33394e-05
2.33305e-05
2.33191e-05
2.33094e-05
2.33027e-05
2.32952e-05
2.32865e-05
2.32778e-05
2.32701e-05
2.32633e-05
2.32568e-05
2.32506e-05
2.32449e-05
2.32403e-05
1.4826e-05
1.50009e-05
1.52108e-05
1.54609e-05
1.57558e-05
1.60995e-05
1.64948e-05
1.69425e-05
1.74411e-05
1.79862e-05
1.85698e-05
1.91805e-05
1.98032e-05
2.04205e-05
2.10141e-05
2.15658e-05
2.2054e-05
2.2461e-05
2.27807e-05
2.3019e-05
2.31883e-05
2.33034e-05
2.33782e-05
2.34246e-05
2.34516e-05
2.34662e-05
2.34717e-05
2.34711e-05
2.34681e-05
2.34626e-05
2.34553e-05
2.34479e-05
2.34423e-05
2.34326e-05
2.34218e-05
2.34145e-05
2.34085e-05
2.34e-05
2.33897e-05
2.33815e-05
2.33755e-05
2.33687e-05
2.33614e-05
2.33544e-05
2.33481e-05
2.33425e-05
2.33376e-05
2.33332e-05
2.33295e-05
2.33269e-05
1.54086e-05
1.56901e-05
1.60184e-05
1.63967e-05
1.68262e-05
1.73063e-05
1.78334e-05
1.84012e-05
1.89999e-05
1.9616e-05
2.02335e-05
2.0835e-05
2.14024e-05
2.19175e-05
2.23606e-05
2.27194e-05
2.29943e-05
2.31947e-05
2.33344e-05
2.34276e-05
2.34872e-05
2.35234e-05
2.35439e-05
2.35541e-05
2.3557e-05
2.35556e-05
2.35512e-05
2.35455e-05
2.35403e-05
2.35315e-05
2.35235e-05
2.35167e-05
2.35111e-05
2.35006e-05
2.34909e-05
2.34846e-05
2.34793e-05
2.34717e-05
2.3463e-05
2.34561e-05
2.34507e-05
2.3445e-05
2.34392e-05
2.34338e-05
2.34291e-05
2.34251e-05
2.34219e-05
2.34194e-05
2.34179e-05
2.34177e-05
1.63072e-05
1.67193e-05
1.71812e-05
1.76905e-05
1.82419e-05
1.88269e-05
1.94341e-05
2.00487e-05
2.06544e-05
2.12335e-05
2.17692e-05
2.22432e-05
2.26395e-05
2.29518e-05
2.31856e-05
2.33527e-05
2.34671e-05
2.35423e-05
2.35895e-05
2.36175e-05
2.3633e-05
2.36401e-05
2.36404e-05
2.36383e-05
2.36337e-05
2.36279e-05
2.36209e-05
2.36153e-05
2.36095e-05
2.3599e-05
2.3592e-05
2.35863e-05
2.35804e-05
2.35706e-05
2.35621e-05
2.3557e-05
2.35523e-05
2.35457e-05
2.35387e-05
2.3533e-05
2.35284e-05
2.35241e-05
2.35199e-05
2.35162e-05
2.35132e-05
2.3511e-05
2.35097e-05
2.35095e-05
2.35103e-05
2.35125e-05
1.75579e-05
1.80925e-05
1.86629e-05
1.92592e-05
1.98682e-05
2.04747e-05
2.1062e-05
2.16131e-05
2.21122e-05
2.25421e-05
2.28916e-05
2.31604e-05
2.33574e-05
2.34958e-05
2.3589e-05
2.36492e-05
2.36863e-05
2.37079e-05
2.37192e-05
2.37232e-05
2.37228e-05
2.37197e-05
2.37145e-05
2.37095e-05
2.37039e-05
2.36957e-05
2.36893e-05
2.36848e-05
2.36775e-05
2.36676e-05
2.36617e-05
2.36572e-05
2.36513e-05
2.36426e-05
2.36357e-05
2.36317e-05
2.36273e-05
2.36219e-05
2.36166e-05
2.36122e-05
2.36087e-05
2.36057e-05
2.36033e-05
2.36014e-05
2.36003e-05
2.36002e-05
2.36012e-05
2.36033e-05
2.36066e-05
2.36115e-05
1.90926e-05
1.96937e-05
2.0298e-05
2.08899e-05
2.1453e-05
2.19713e-05
2.24298e-05
2.28143e-05
2.31186e-05
2.33476e-05
2.35123e-05
2.36261e-05
2.37015e-05
2.37495e-05
2.37785e-05
2.37949e-05
2.38031e-05
2.38049e-05
2.38034e-05
2.37999e-05
2.3795e-05
2.37892e-05
2.37832e-05
2.37793e-05
2.37716e-05
2.37639e-05
2.37584e-05
2.37546e-05
2.37466e-05
2.37378e-05
2.3733e-05
2.37295e-05
2.37241e-05
2.37167e-05
2.37113e-05
2.3708e-05
2.37043e-05
2.37002e-05
2.36965e-05
2.36935e-05
2.36914e-05
2.369e-05
2.36894e-05
2.36895e-05
2.36906e-05
2.36928e-05
2.36962e-05
2.37008e-05
2.37067e-05
2.37144e-05
2.07197e-05
2.1291e-05
2.18247e-05
2.23061e-05
2.27214e-05
2.30606e-05
2.33227e-05
2.35159e-05
2.36526e-05
2.37456e-05
2.38064e-05
2.38444e-05
2.3867e-05
2.38793e-05
2.38846e-05
2.38849e-05
2.38829e-05
2.38787e-05
2.38738e-05
2.38695e-05
2.38635e-05
2.3857e-05
2.38515e-05
2.38482e-05
2.38396e-05
2.38332e-05
2.38286e-05
2.38253e-05
2.38172e-05
2.38097e-05
2.38059e-05
2.38032e-05
2.37984e-05
2.37926e-05
2.37885e-05
2.37857e-05
2.37831e-05
2.37805e-05
2.37783e-05
2.3777e-05
2.37765e-05
2.37769e-05
2.37783e-05
2.37806e-05
2.37841e-05
2.37887e-05
2.37945e-05
2.38017e-05
2.38104e-05
2.3821e-05
2.21747e-05
2.2616e-05
2.29872e-05
2.32826e-05
2.3506e-05
2.36679e-05
2.37806e-05
2.38561e-05
2.39048e-05
2.39347e-05
2.39521e-05
2.39612e-05
2.39644e-05
2.39636e-05
2.39608e-05
2.39568e-05
2.39523e-05
2.39467e-05
2.3942e-05
2.39385e-05
2.39308e-05
2.39251e-05
2.39209e-05
2.39173e-05
2.39086e-05
2.39035e-05
2.38999e-05
2.38967e-05
2.38894e-05
2.38831e-05
2.38804e-05
2.38781e-05
2.38742e-05
2.387e-05
2.3867e-05
2.38651e-05
2.38636e-05
2.38626e-05
2.38622e-05
2.38626e-05
2.3864e-05
2.38664e-05
2.387e-05
2.38747e-05
2.38805e-05
2.38876e-05
2.3896e-05
2.3906e-05
2.39178e-05
2.39315e-05
2.3228e-05
2.34824e-05
2.36711e-05
2.38057e-05
2.3898e-05
2.3959e-05
2.39978e-05
2.40213e-05
2.40346e-05
2.4041e-05
2.40422e-05
2.40409e-05
2.40378e-05
2.40335e-05
2.40291e-05
2.40252e-05
2.40196e-05
2.4014e-05
2.40103e-05
2.40065e-05
2.39988e-05
2.39942e-05
2.39911e-05
2.39868e-05
2.39787e-05
2.39746e-05
2.39721e-05
2.3969e-05
2.39627e-05
2.39578e-05
2.3956e-05
2.39539e-05
2.39511e-05
2.39485e-05
2.39468e-05
2.3946e-05
2.39459e-05
2.39466e-05
2.3948e-05
2.39504e-05
2.39539e-05
2.39586e-05
2.39644e-05
2.39713e-05
2.39796e-05
2.39894e-05
2.40007e-05
2.40137e-05
2.40286e-05
2.40455e-05
2.38202e-05
2.39313e-05
2.40066e-05
2.40556e-05
2.40863e-05
2.41046e-05
2.41146e-05
2.41188e-05
2.41188e-05
2.41169e-05
2.41133e-05
2.41095e-05
2.41053e-05
2.41003e-05
2.40965e-05
2.40933e-05
2.40866e-05
2.40816e-05
2.40793e-05
2.40744e-05
2.40676e-05
2.40639e-05
2.40618e-05
2.40568e-05
2.40496e-05
2.40464e-05
2.40448e-05
2.40419e-05
2.40369e-05
2.40334e-05
2.40321e-05
2.40307e-05
2.40292e-05
2.40281e-05
2.40278e-05
2.40284e-05
2.403e-05
2.40325e-05
2.40359e-05
2.40405e-05
2.40462e-05
2.4053e-05
2.40611e-05
2.40706e-05
2.40816e-05
2.40942e-05
2.41085e-05
2.41246e-05
2.41427e-05
2.41627e-05
2.41076e-05
2.41469e-05
2.41711e-05
2.41851e-05
2.41925e-05
2.41948e-05
2.4194e-05
2.41915e-05
2.41881e-05
2.41841e-05
2.41801e-05
2.41767e-05
2.41718e-05
2.41668e-05
2.41643e-05
2.41602e-05
2.41541e-05
2.41499e-05
2.41484e-05
2.41426e-05
2.41369e-05
2.4134e-05
2.41325e-05
2.41272e-05
2.41211e-05
2.41188e-05
2.41179e-05
2.41154e-05
2.41119e-05
2.41097e-05
2.41088e-05
2.41084e-05
2.41083e-05
2.41088e-05
2.41101e-05
2.41124e-05
2.41159e-05
2.41203e-05
2.41259e-05
2.41325e-05
2.41403e-05
2.41495e-05
2.41602e-05
2.41724e-05
2.41863e-05
2.42019e-05
2.42192e-05
2.42384e-05
2.42594e-05
2.42825e-05
2.42525e-05
2.42632e-05
2.42684e-05
2.42691e-05
2.42678e-05
2.4265e-05
2.42615e-05
2.4258e-05
2.42542e-05
2.42498e-05
2.42466e-05
2.42437e-05
2.4238e-05
2.42335e-05
2.42322e-05
2.42269e-05
2.4222e-05
2.42186e-05
2.42172e-05
2.42109e-05
2.42062e-05
2.42041e-05
2.42029e-05
2.41981e-05
2.41931e-05
2.41918e-05
2.41911e-05
2.41893e-05
2.41873e-05
2.41863e-05
2.41863e-05
2.41871e-05
2.41885e-05
2.41907e-05
2.41939e-05
2.41981e-05
2.42035e-05
2.42098e-05
2.42174e-05
2.42263e-05
2.42366e-05
2.42483e-05
2.42617e-05
2.42768e-05
2.42935e-05
2.4312e-05
2.43323e-05
2.43544e-05
2.43784e-05
2.44043e-05
2.43424e-05
2.43422e-05
2.43403e-05
2.43373e-05
2.4334e-05
2.43304e-05
2.43268e-05
2.43237e-05
2.43196e-05
2.43152e-05
2.43131e-05
2.43095e-05
2.43043e-05
2.43007e-05
2.42996e-05
2.42935e-05
2.42898e-05
2.42872e-05
2.42855e-05
2.42792e-05
2.42755e-05
2.42742e-05
2.4273e-05
2.42692e-05
2.42655e-05
2.42648e-05
2.42644e-05
2.42636e-05
2.42631e-05
2.42634e-05
2.42646e-05
2.42669e-05
2.427e-05
2.42741e-05
2.42791e-05
2.42851e-05
2.42924e-05
2.43009e-05
2.43107e-05
2.4322e-05
2.43349e-05
2.43494e-05
2.43655e-05
2.43834e-05
2.4403e-05
2.44243e-05
2.44474e-05
2.44723e-05
2.44989e-05
2.45273e-05
2.44116e-05
2.44085e-05
2.44053e-05
2.4402e-05
2.43986e-05
2.43948e-05
2.43918e-05
2.43893e-05
2.43845e-05
2.43805e-05
2.43795e-05
2.43746e-05
2.43704e-05
2.43679e-05
2.43662e-05
2.43599e-05
2.43572e-05
2.43555e-05
2.43531e-05
2.43474e-05
2.43445e-05
2.43441e-05
2.43429e-05
2.43401e-05
2.43379e-05
2.43377e-05
2.43379e-05
2.43384e-05
2.43394e-05
2.43412e-05
2.4344e-05
2.43478e-05
2.43527e-05
2.43584e-05
2.43653e-05
2.43733e-05
2.43827e-05
2.43936e-05
2.44059e-05
2.44198e-05
2.44353e-05
2.44524e-05
2.44713e-05
2.44918e-05
2.45141e-05
2.45381e-05
2.45638e-05
2.45912e-05
2.46202e-05
2.46507e-05
2.44786e-05
2.44755e-05
2.44723e-05
2.4469e-05
2.4466e-05
2.44627e-05
2.44586e-05
2.44566e-05
2.44538e-05
2.44491e-05
2.4446e-05
2.44449e-05
2.44393e-05
2.4436e-05
2.44346e-05
2.44317e-05
2.44258e-05
2.44238e-05
2.44229e-05
2.44202e-05
2.44154e-05
2.44134e-05
2.44135e-05
2.44126e-05
2.4411e-05
2.44103e-05
2.44106e-05
2.44119e-05
2.44138e-05
2.44164e-05
2.44198e-05
2.44242e-05
2.44296e-05
2.44361e-05
2.44438e-05
2.44527e-05
2.4463e-05
2.44747e-05
2.44879e-05
2.45028e-05
2.45192e-05
2.45373e-05
2.45571e-05
2.45785e-05
2.46016e-05
2.46264e-05
2.46528e-05
2.46808e-05
2.47103e-05
2.47413e-05
2.47736e-05
2.45415e-05
2.45384e-05
2.4535e-05
2.45321e-05
2.45298e-05
2.45259e-05
2.45222e-05
2.45211e-05
2.4517e-05
2.4513e-05
2.45111e-05
2.45088e-05
2.45034e-05
2.45009e-05
2.45001e-05
2.44963e-05
2.44911e-05
2.44897e-05
2.44893e-05
2.44869e-05
2.44833e-05
2.44822e-05
2.44824e-05
2.44821e-05
2.44819e-05
2.44825e-05
2.4484e-05
2.44865e-05
2.44899e-05
2.4494e-05
2.4499e-05
2.4505e-05
2.45122e-05
2.45206e-05
2.45303e-05
2.45415e-05
2.45541e-05
2.45682e-05
2.45839e-05
2.46012e-05
2.46201e-05
2.46407e-05
2.46629e-05
2.46868e-05
2.47122e-05
2.47392e-05
2.47677e-05
2.47977e-05
2.48289e-05
2.48614e-05
2.48948e-05
2.46063e-05
2.46035e-05
2.46007e-05
2.4597e-05
2.45948e-05
2.45927e-05
2.45883e-05
2.45853e-05
2.45843e-05
2.45792e-05
2.4576e-05
2.45752e-05
2.45714e-05
2.45668e-05
2.45649e-05
2.45643e-05
2.45601e-05
2.45558e-05
2.45551e-05
2.45548e-05
2.4553e-05
2.45508e-05
2.45504e-05
2.45509e-05
2.45518e-05
2.4553e-05
2.4555e-05
2.45579e-05
2.45617e-05
2.45663e-05
2.4572e-05
2.45787e-05
2.45866e-05
2.45957e-05
2.46062e-05
2.46181e-05
2.46315e-05
2.46465e-05
2.46629e-05
2.4681e-05
2.47007e-05
2.4722e-05
2.47449e-05
2.47694e-05
2.47954e-05
2.48229e-05
2.48518e-05
2.4882e-05
2.49134e-05
2.49459e-05
2.49794e-05
2.50135e-05
2.46673e-05
2.46651e-05
2.46619e-05
2.46583e-05
2.46569e-05
2.46537e-05
2.46497e-05
2.46479e-05
2.46455e-05
2.46408e-05
2.46382e-05
2.46376e-05
2.46328e-05
2.4629e-05
2.46277e-05
2.46271e-05
2.46234e-05
2.46199e-05
2.46199e-05
2.46196e-05
2.46186e-05
2.46179e-05
2.46182e-05
2.46196e-05
2.46217e-05
2.46243e-05
2.46276e-05
2.46318e-05
2.4637e-05
2.46433e-05
2.46506e-05
2.46592e-05
2.46691e-05
2.46803e-05
2.4693e-05
2.47071e-05
2.47228e-05
2.474e-05
2.47587e-05
2.47791e-05
2.4801e-05
2.48245e-05
2.48495e-05
2.4876e-05
2.49038e-05
2.4933e-05
2.49634e-05
2.49948e-05
2.50272e-05
2.50605e-05
2.50943e-05
2.51284e-05
2.47276e-05
2.47257e-05
2.47218e-05
2.47187e-05
2.47177e-05
2.47132e-05
2.471e-05
2.47091e-05
2.4705e-05
2.47012e-05
2.46992e-05
2.46983e-05
2.46932e-05
2.46902e-05
2.46896e-05
2.46888e-05
2.46858e-05
2.46836e-05
2.46838e-05
2.4684e-05
2.4684e-05
2.46847e-05
2.46862e-05
2.46886e-05
2.46918e-05
2.46956e-05
2.47003e-05
2.4706e-05
2.47129e-05
2.47209e-05
2.47301e-05
2.47407e-05
2.47526e-05
2.47659e-05
2.47807e-05
2.4797e-05
2.48149e-05
2.48343e-05
2.48552e-05
2.48776e-05
2.49016e-05
2.4927e-05
2.49538e-05
2.49819e-05
2.50112e-05
2.50416e-05
2.5073e-05
2.51052e-05
2.51381e-05
2.51715e-05
2.52052e-05
2.52387e-05
2.47869e-05
2.47845e-05
2.47805e-05
2.47783e-05
2.47763e-05
2.47717e-05
2.47691e-05
2.47684e-05
2.47632e-05
2.47603e-05
2.47589e-05
2.47575e-05
2.47529e-05
2.47505e-05
2.47505e-05
2.47496e-05
2.47477e-05
2.47467e-05
2.47472e-05
2.47482e-05
2.47495e-05
2.47514e-05
2.4754e-05
2.47575e-05
2.47618e-05
2.47671e-05
2.47734e-05
2.47808e-05
2.47894e-05
2.47992e-05
2.48104e-05
2.48229e-05
2.48369e-05
2.48523e-05
2.48692e-05
2.48876e-05
2.49075e-05
2.49289e-05
2.49518e-05
2.49761e-05
2.50018e-05
2.50288e-05
2.50571e-05
2.50864e-05
2.51168e-05
2.5148e-05
2.51799e-05
2.52124e-05
2.52452e-05
2.52782e-05
2.53111e-05
2.53435e-05
2.48451e-05
2.48413e-05
2.48379e-05
2.48366e-05
2.48327e-05
2.48291e-05
2.4827e-05
2.48256e-05
2.48202e-05
2.4818e-05
2.48173e-05
2.48155e-05
2.48117e-05
2.48102e-05
2.48104e-05
2.48098e-05
2.48092e-05
2.48093e-05
2.48105e-05
2.48124e-05
2.48148e-05
2.48178e-05
2.48216e-05
2.48264e-05
2.48322e-05
2.4839e-05
2.4847e-05
2.48561e-05
2.48666e-05
2.48783e-05
2.48914e-05
2.49059e-05
2.49219e-05
2.49393e-05
2.49582e-05
2.49785e-05
2.50003e-05
2.50235e-05
2.50481e-05
2.5074e-05
2.51011e-05
2.51294e-05
2.51587e-05
2.51889e-05
2.52198e-05
2.52513e-05
2.52832e-05
2.53154e-05
2.53476e-05
2.53796e-05
2.54112e-05
2.54418e-05
2.49013e-05
2.48967e-05
2.48939e-05
2.48929e-05
2.48877e-05
2.4885e-05
2.48836e-05
2.48812e-05
2.48764e-05
2.48747e-05
2.48745e-05
2.48727e-05
2.487e-05
2.48692e-05
2.48696e-05
2.48699e-05
2.48704e-05
2.48716e-05
2.48736e-05
2.48764e-05
2.48799e-05
2.48842e-05
2.48894e-05
2.48956e-05
2.4903e-05
2.49115e-05
2.49212e-05
2.49321e-05
2.49444e-05
2.4958e-05
2.4973e-05
2.49894e-05
2.50073e-05
2.50266e-05
2.50473e-05
2.50694e-05
2.50928e-05
2.51176e-05
2.51436e-05
2.51707e-05
2.51989e-05
2.5228e-05
2.52579e-05
2.52884e-05
2.53194e-05
2.53507e-05
2.53821e-05
2.54135e-05
2.54445e-05
2.5475e-05
2.55047e-05
2.55331e-05
2.49552e-05
2.49512e-05
2.49489e-05
2.49471e-05
2.49418e-05
2.49396e-05
2.49388e-05
2.4936e-05
2.49319e-05
2.49308e-05
2.49306e-05
2.49293e-05
2.49279e-05
2.49278e-05
2.49286e-05
2.49298e-05
2.49313e-05
2.49335e-05
2.49365e-05
2.49404e-05
2.49451e-05
2.49508e-05
2.49575e-05
2.49653e-05
2.49743e-05
2.49845e-05
2.49959e-05
2.50086e-05
2.50227e-05
2.50381e-05
2.5055e-05
2.50732e-05
2.50928e-05
2.51138e-05
2.51361e-05
2.51597e-05
2.51845e-05
2.52105e-05
2.52375e-05
2.52655e-05
2.52943e-05
2.53239e-05
2.53539e-05
2.53843e-05
2.54149e-05
2.54455e-05
2.54759e-05
2.55059e-05
2.55352e-05
2.55637e-05
2.55911e-05
2.56167e-05
2.50046e-05
2.5003e-05
2.49999e-05
2.49951e-05
2.49935e-05
2.49929e-05
2.49902e-05
2.4987e-05
2.49865e-05
2.49863e-05
2.49858e-05
2.49856e-05
2.49862e-05
2.49876e-05
2.49895e-05
2.49921e-05
2.49954e-05
2.49996e-05
2.50047e-05
2.50108e-05
2.5018e-05
2.50262e-05
2.50356e-05
2.50462e-05
2.5058e-05
2.50712e-05
2.50856e-05
2.51014e-05
2.51185e-05
2.5137e-05
2.51569e-05
2.5178e-05
2.52004e-05
2.52241e-05
2.52489e-05
2.52748e-05
2.53016e-05
2.53294e-05
2.53578e-05
2.53869e-05
2.54164e-05
2.54461e-05
2.5476e-05
2.55057e-05
2.55351e-05
2.5564e-05
2.55921e-05
2.56193e-05
2.56452e-05
2.56697e-05
2.56921e-05
2.50573e-05
2.50562e-05
2.50526e-05
2.50484e-05
2.50472e-05
2.50465e-05
2.50443e-05
2.50422e-05
2.5042e-05
2.50423e-05
2.50425e-05
2.50431e-05
2.50445e-05
2.50466e-05
2.50495e-05
2.50532e-05
2.50577e-05
2.50632e-05
2.50696e-05
2.50771e-05
2.50857e-05
2.50955e-05
2.51064e-05
2.51186e-05
2.51321e-05
2.51468e-05
2.51629e-05
2.51802e-05
2.51989e-05
2.52189e-05
2.52401e-05
2.52626e-05
2.52862e-05
2.53109e-05
2.53366e-05
2.53632e-05
2.53905e-05
2.54186e-05
2.54471e-05
2.54759e-05
2.55049e-05
2.55339e-05