/*--------------------------------*- C++ -*----------------------------------*\
| =========                 |                                                 |
| \\      /  F ield         | OpenFOAM: The Open Source CFD Toolbox           |
|  \\    /   O peration     | Version:  v1706                                 |
|   \\  /    A nd           | Web:      www.OpenFOAM.com                      |
|    \\/     M anipulation  |                                                 |
\*---------------------------------------------------------------------------*/
FoamFile
{
    version     2.0;
    format      ascii;
    class       volScalarField;
    location    "1.2e-05";
    object      kappatr;
}
// * * * * * * * * * * * * * * * * * * * * * * * * * * * * * * * * * * * * * //

dimensions      [1 1 -3 -1 0 0 0];


internalField   nonuniform List<scalar> 
30038
(
0.014593
0.014593
0.014593
0.014593
0.014593
0.014593
0.014593
0.014593
0.014593
0.014593
0.014593
0.014593
0.014593
0.014593
0.014593
0.014593
0.014593
0.014593
0.014593
0.014593
0.014593
0.014593
0.014593
0.014593
0.014593
0.014593
0.014593
0.014593
0.014593
0.014593
0.014593
0.014593
0.014593
0.014593
0.014593
0.014593
0.014593
0.014593
0.014593
0.014593
0.014593
0.014593
0.014593
0.014593
0.014593
0.014593
0.014593
0.014593
0.014593
0.014593
0.014593
0.014593
0.014593
0.014593
0.014593
0.014593
0.014593
0.014593
0.014593
0.014593
0.014593
0.014593
0.014593
0.014593
0.014593
0.014593
0.014593
0.014593
0.014593
0.014593
0.014593
0.014593
0.014593
0.014593
0.014593
0.0145931
0.014593
0.014593
0.014593
0.014593
0.014593
0.014593
0.014593
0.014593
0.014593
0.014593
0.014593
0.014593
0.014593
0.014593
0.014593
0.014593
0.014593
0.014593
0.014593
0.014593
0.014593
0.014593
0.014593
0.014593
0.014593
0.014593
0.014593
0.014593
0.014593
0.014593
0.014593
0.014593
0.014593
0.0145931
0.0145931
0.0145931
0.0145931
0.0145932
0.014593
0.014593
0.014593
0.014593
0.014593
0.014593
0.014593
0.014593
0.014593
0.014593
0.014593
0.014593
0.014593
0.014593
0.014593
0.014593
0.014593
0.014593
0.014593
0.014593
0.014593
0.014593
0.014593
0.014593
0.014593
0.014593
0.014593
0.014593
0.014593
0.014593
0.0145931
0.0145931
0.0145931
0.0145931
0.0145932
0.0145932
0.0145933
0.0145934
0.014593
0.014593
0.014593
0.014593
0.014593
0.014593
0.014593
0.014593
0.014593
0.014593
0.014593
0.014593
0.014593
0.014593
0.014593
0.014593
0.014593
0.014593
0.014593
0.014593
0.014593
0.014593
0.014593
0.014593
0.014593
0.014593
0.014593
0.0145931
0.0145931
0.0145931
0.0145931
0.0145932
0.0145932
0.0145933
0.0145934
0.0145936
0.0145937
0.014594
0.014593
0.014593
0.014593
0.014593
0.014593
0.014593
0.014593
0.014593
0.014593
0.014593
0.014593
0.014593
0.014593
0.014593
0.014593
0.014593
0.014593
0.014593
0.014593
0.014593
0.014593
0.014593
0.014593
0.0145931
0.0145931
0.0145931
0.0145931
0.0145931
0.0145932
0.0145932
0.0145933
0.0145934
0.0145936
0.0145937
0.014594
0.0145943
0.0145947
0.0145953
0.014593
0.014593
0.014593
0.014593
0.014593
0.014593
0.014593
0.014593
0.014593
0.014593
0.014593
0.014593
0.014593
0.014593
0.014593
0.014593
0.014593
0.014593
0.014593
0.014593
0.0145931
0.0145931
0.0145931
0.0145931
0.0145931
0.0145932
0.0145932
0.0145933
0.0145934
0.0145936
0.0145937
0.014594
0.0145943
0.0145947
0.0145953
0.014596
0.014597
0.0145984
0.014593
0.014593
0.014593
0.014593
0.014593
0.014593
0.014593
0.014593
0.014593
0.014593
0.014593
0.014593
0.014593
0.014593
0.014593
0.014593
0.014593
0.0145931
0.0145931
0.0145931
0.0145931
0.0145931
0.0145932
0.0145933
0.0145933
0.0145934
0.0145936
0.0145938
0.014594
0.0145943
0.0145947
0.0145953
0.014596
0.014597
0.0145982
0.0145999
0.0146022
0.0146053
0.014593
0.014593
0.014593
0.014593
0.014593
0.014593
0.014593
0.014593
0.014593
0.014593
0.014593
0.014593
0.014593
0.014593
0.014593
0.0145931
0.0145931
0.0145931
0.0145931
0.0145932
0.0145932
0.0145933
0.0145933
0.0145934
0.0145936
0.0145938
0.014594
0.0145943
0.0145947
0.0145953
0.014596
0.0145969
0.0145982
0.0145998
0.014602
0.0146048
0.0146087
0.0146138
0.0146206
0.014593
0.014593
0.014593
0.014593
0.014593
0.014593
0.014593
0.014593
0.014593
0.014593
0.014593
0.014593
0.0145931
0.0145931
0.0145931
0.0145931
0.0145932
0.0145932
0.0145933
0.0145933
0.0145934
0.0145936
0.0145938
0.014594
0.0145943
0.0145947
0.0145953
0.014596
0.0145969
0.0145981
0.0145997
0.0146018
0.0146046
0.0146083
0.0146131
0.0146195
0.014628
0.0146392
0.0146543
0.014593
0.014593
0.014593
0.014593
0.014593
0.014593
0.014593
0.014593
0.014593
0.0145931
0.0145931
0.0145931
0.0145931
0.0145932
0.0145932
0.0145933
0.0145934
0.0145935
0.0145936
0.0145938
0.014594
0.0145943
0.0145947
0.0145953
0.0145959
0.0145969
0.0145981
0.0145996
0.0146017
0.0146044
0.014608
0.0146126
0.0146188
0.0146269
0.0146375
0.0146515
0.0146699
0.0146942
0.0147266
0.014593
0.014593
0.014593
0.014593
0.014593
0.014593
0.0145931
0.0145931
0.0145931
0.0145931
0.0145931
0.0145932
0.0145932
0.0145933
0.0145934
0.0145935
0.0145936
0.0145938
0.014594
0.0145943
0.0145947
0.0145953
0.0145959
0.0145968
0.014598
0.0145996
0.0146016
0.0146042
0.0146077
0.0146122
0.0146181
0.0146259
0.0146361
0.0146495
0.014667
0.0146899
0.0147199
0.0147592
0.0148107
0.0148784
0.014593
0.014593
0.014593
0.0145931
0.0145931
0.0145931
0.0145931
0.0145931
0.0145932
0.0145932
0.0145933
0.0145934
0.0145935
0.0145936
0.0145938
0.014594
0.0145943
0.0145947
0.0145953
0.0145959
0.0145968
0.014598
0.0145995
0.0146015
0.014604
0.0146074
0.0146118
0.0146175
0.014625
0.0146349
0.0146477
0.0146645
0.0146863
0.0147149
0.014752
0.0148003
0.014863
0.0149441
0.0150491
0.0151849
0.0145931
0.0145931
0.0145931
0.0145931
0.0145931
0.0145932
0.0145932
0.0145933
0.0145934
0.0145935
0.0145936
0.0145938
0.014594
0.0145944
0.0145947
0.0145953
0.0145959
0.0145968
0.0145979
0.0145994
0.0146013
0.0146039
0.0146071
0.0146114
0.014617
0.0146242
0.0146337
0.014646
0.014662
0.0146829
0.0147101
0.0147455
0.0147913
0.0148507
0.0149272
0.0150255
0.0151511
0.015311
0.0155131
0.0157667
0.0145931
0.0145931
0.0145932
0.0145932
0.0145933
0.0145934
0.0145935
0.0145936
0.0145938
0.0145941
0.0145944
0.0145948
0.0145953
0.0145959
0.0145968
0.0145979
0.0145994
0.0146013
0.0146037
0.0146069
0.014611
0.0146164
0.0146234
0.0146325
0.0146444
0.0146597
0.0146797
0.0147057
0.0147394
0.0147829
0.0148392
0.0149117
0.0150046
0.0151232
0.0152736
0.0154629
0.0156988
0.0159895
0.0163433
0.0167671
0.0145932
0.0145933
0.0145934
0.0145935
0.0145937
0.0145938
0.0145941
0.0145944
0.0145948
0.0145953
0.014596
0.0145968
0.0145979
0.0145993
0.0146012
0.0146036
0.0146067
0.0146107
0.0146159
0.0146227
0.0146315
0.0146429
0.0146576
0.0146767
0.0147015
0.0147336
0.014775
0.0148284
0.014897
0.014985
0.0150971
0.0152392
0.015418
0.0156408
0.0159152
0.0162484
0.0166466
0.0171136
0.0176502
0.0182512
0.0145935
0.0145937
0.0145939
0.0145941
0.0145944
0.0145948
0.0145953
0.014596
0.0145968
0.0145979
0.0145993
0.0146011
0.0146035
0.0146065
0.0146104
0.0146155
0.014622
0.0146305
0.0146415
0.0146556
0.014674
0.0146976
0.0147282
0.0147676
0.0148182
0.0148833
0.0149665
0.0150725
0.0152068
0.0153756
0.0155862
0.015846
0.0161621
0.0165406
0.0169859
0.0174983
0.0180731
0.0187002
0.0193652
0.0200486
0.0145941
0.0145944
0.0145948
0.0145953
0.014596
0.0145968
0.0145979
0.0145993
0.0146011
0.0146034
0.0146064
0.0146102
0.0146151
0.0146214
0.0146296
0.0146402
0.0146538
0.0146714
0.014694
0.0147231
0.0147606
0.0148088
0.0148704
0.0149492
0.0150494
0.0151762
0.0153357
0.0155347
0.0157803
0.0160799
0.0164398
0.0168648
0.0173565
0.0179121
0.0185223
0.0191731
0.0198443
0.020508
0.0211313
0.0216887
0.0145949
0.0145954
0.014596
0.0145969
0.0145979
0.0145993
0.0146011
0.0146033
0.0146062
0.01461
0.0146148
0.0146209
0.0146288
0.014639
0.0146521
0.014669
0.0146907
0.0147185
0.0147542
0.0147999
0.0148584
0.014933
0.0150278
0.0151476
0.0152982
0.0154861
0.0157183
0.016002
0.0163437
0.0167486
0.0172195
0.0177551
0.0183487
0.0189873
0.0196539
0.0203242
0.0209663
0.0215462
0.022037
0.0224262
0.0227229
0.0145969
0.014598
0.0145993
0.0146011
0.0146033
0.0146062
0.0146098
0.0146145
0.0146205
0.0146281
0.014638
0.0146506
0.0146668
0.0146876
0.0147142
0.0147483
0.0147918
0.0148473
0.014918
0.0150077
0.015121
0.0152632
0.0154406
0.01566
0.0159284
0.0162525
0.0166377
0.0170876
0.0176026
0.0181778
0.0188026
0.0194612
0.0201333
0.0207913
0.0214014
0.0219326
0.0223655
0.0226963
0.0229354
0.023099
0.0232088
0.0145994
0.0146011
0.0146033
0.0146061
0.0146097
0.0146142
0.0146201
0.0146275
0.0146371
0.0146493
0.0146649
0.0146848
0.0147103
0.0147428
0.0147843
0.0148371
0.0149042
0.0149891
0.0150962
0.0152306
0.0153982
0.0156054
0.0158592
0.0161663
0.0165323
0.0169616
0.0174553
0.0180108
0.0186198
0.0192678
0.0199371
0.0206042
0.0212383
0.0218065
0.0222837
0.0226591
0.0229372
0.0231323
0.0232621
0.0233443
0.0233926
0.0234208
0.0146033
0.0146061
0.0146096
0.0146141
0.0146198
0.014627
0.0146363
0.0146481
0.0146632
0.0146823
0.0147068
0.0147379
0.0147775
0.0148277
0.0148914
0.014972
0.0150734
0.0152004
0.0153588
0.0155546
0.0157945
0.0160852
0.0164328
0.0168416
0.0173141
0.017849
0.0184402
0.0190757
0.0197383
0.0204086
0.0210598
0.0216596
0.0221786
0.0225994
0.0229198
0.0231503
0.0233078
0.0234102
0.0234728
0.023508
0.0235265
0.0235327
0.0235313
0.014614
0.0146196
0.0146266
0.0146357
0.0146471
0.0146616
0.0146801
0.0147036
0.0147334
0.0147713
0.0148192
0.0148798
0.0149562
0.0150523
0.0151726
0.0153223
0.0155074
0.0157342
0.0160094
0.0163391
0.0167281
0.0171795
0.0176933
0.0182652
0.0188858
0.0195397
0.0202082
0.0208695
0.0214943
0.0220509
0.0225162
0.022881
0.0231508
0.0233399
0.0234658
0.0235453
0.0235925
0.0236186
0.02363
0.0236308
0.0236275
0.0236208
0.0236104
0.0146264
0.0146351
0.0146463
0.0146604
0.0146782
0.0147008
0.0147295
0.0147657
0.0148115
0.0148692
0.0149419
0.0150331
0.015147
0.0152887
0.0154638
0.0156783
0.0159388
0.0162514
0.0166213
0.0170519
0.0175444
0.0180962
0.0186997
0.0193422
0.020006
0.0206714
0.0213137
0.0219025
0.0224097
0.0228197
0.0231314
0.0233556
0.0235089
0.0236088
0.0236702
0.0237052
0.0237235
0.0237301
0.0237285
0.0237229
0.023715
0.0237056
0.0236926
0.0236807
0.0146456
0.0146593
0.0146766
0.0146984
0.014726
0.0147607
0.0148045
0.0148597
0.0149289
0.0150156
0.0151237
0.015258
0.0154237
0.0156268
0.0158734
0.0161697
0.0165212
0.0169317
0.017403
0.0179339
0.018519
0.0191476
0.0198041
0.020469
0.0211222
0.0217361
0.0222811
0.0227353
0.023091
0.0233538
0.0235384
0.0236617
0.0237398
0.0237866
0.0238127
0.0238249
0.0238264
0.0238239
0.0238177
0.0238077
0.0237979
0.0237887
0.0237758
0.0237622
0.0237502
0.0146752
0.0146964
0.014723
0.0147564
0.0147984
0.0148512
0.0149172
0.0149998
0.0151025
0.0152299
0.015387
0.0155794
0.0158131
0.016094
0.0164278
0.0168188
0.0172694
0.0177793
0.0183449
0.0189575
0.0196038
0.0202658
0.0209238
0.0215554
0.0221324
0.0226282
0.0230283
0.0233326
0.0235517
0.023702
0.0238002
0.0238612
0.0238964
0.0239151
0.0239226
0.0239219
0.0239172
0.0239099
0.0239023
0.0238899
0.0238784
0.0238687
0.0238585
0.0238458
0.023833
0.0238219
0.0146947
0.0147204
0.0147527
0.0147931
0.0148437
0.0149069
0.0149856
0.0150835
0.0152046
0.0153537
0.0155361
0.0157577
0.0160242
0.0163413
0.0167135
0.0171438
0.0176329
0.0181783
0.0187734
0.0194068
0.0200628
0.020722
0.0213647
0.0219664
0.0224995
0.0229432
0.0232906
0.0235477
0.0237287
0.0238502
0.0239278
0.0239747
0.0240013
0.0240143
0.024017
0.0240152
0.0240098
0.0240011
0.023992
0.023984
0.023973
0.0239597
0.0239484
0.0239394
0.0239291
0.0239176
0.0239064
0.0238964
0.0147885
0.0148371
0.0148977
0.014973
0.0150664
0.0151817
0.0153235
0.0154968
0.0157071
0.0159602
0.0162614
0.0166157
0.0170265
0.0174951
0.01802
0.0185964
0.019215
0.019862
0.0205196
0.0211681
0.0217874
0.0223517
0.0228361
0.023227
0.0235246
0.0237397
0.0238877
0.0239851
0.0240461
0.0240819
0.0241012
0.0241098
0.0241101
0.0241066
0.0241001
0.0240936
0.024083
0.0240719
0.0240628
0.0240547
0.0240433
0.0240308
0.0240205
0.0240119
0.0240024
0.0239924
0.0239829
0.0239745
0.0148316
0.0148898
0.014962
0.0150513
0.0151614
0.0152965
0.0154614
0.0156613
0.0159017
0.0161882
0.0165255
0.0169175
0.0173661
0.0178707
0.0184278
0.0190299
0.0196652
0.0203179
0.0209693
0.0215997
0.0221878
0.0227085
0.0231417
0.0234814
0.0237336
0.0239117
0.0240321
0.0241097
0.024157
0.0241842
0.0241984
0.0242024
0.0242012
0.0241969
0.0241898
0.0241812
0.0241736
0.0241656
0.0241531
0.0241421
0.024134
0.0241259
0.0241155
0.0241047
0.0240954
0.0240873
0.0240791
0.0240708
0.0240631
0.0240564
0.0150382
0.0151435
0.0152724
0.0154296
0.01562
0.0158488
0.0161214
0.0164428
0.0168168
0.017246
0.0177306
0.0182681
0.0188526
0.0194742
0.020119
0.0207698
0.0214073
0.0220124
0.0225627
0.0230355
0.0234174
0.0237089
0.0239204
0.0240669
0.0241638
0.0242252
0.0242619
0.0242821
0.0242916
0.0242933
0.0242908
0.0242852
0.024279
0.0242716
0.0242606
0.0242522
0.0242452
0.024236
0.0242241
0.0242141
0.0242071
0.0241994
0.0241903
0.0241813
0.0241733
0.0241662
0.0241594
0.0241529
0.0241471
0.0241423
0.0154015
0.0155831
0.0158012
0.016061
0.0163673
0.0167244
0.017135
0.0176001
0.0181181
0.0186842
0.0192905
0.0199249
0.0205718
0.0212131
0.0218297
0.0224028
0.02291
0.0233327
0.0236649
0.0239124
0.0240883
0.0242078
0.0242856
0.0243337
0.0243618
0.024377
0.0243827
0.0243821
0.024379
0.0243732
0.0243656
0.0243579
0.0243522
0.024342
0.0243309
0.0243232
0.024317
0.0243082
0.0242975
0.0242889
0.0242827
0.0242757
0.0242681
0.0242608
0.0242543
0.0242485
0.0242434
0.0242388
0.0242349
0.0242323
0.0160067
0.0162991
0.0166401
0.0170331
0.0174793
0.0179779
0.0185256
0.0191154
0.0197373
0.0203773
0.0210188
0.0216436
0.0222331
0.0227681
0.0232285
0.0236012
0.0238867
0.0240949
0.02424
0.0243369
0.0243987
0.0244364
0.0244577
0.0244682
0.0244712
0.0244698
0.0244653
0.0244593
0.024454
0.0244448
0.0244365
0.0244295
0.0244236
0.0244127
0.0244026
0.0243961
0.0243906
0.0243827
0.0243736
0.0243665
0.0243608
0.024355
0.024349
0.0243433
0.0243384
0.0243343
0.0243309
0.0243284
0.0243268
0.0243266
0.0169401
0.0173682
0.0178481
0.0183771
0.0189499
0.0195576
0.0201884
0.0208269
0.021456
0.0220576
0.0226141
0.0231065
0.0235181
0.0238426
0.0240855
0.0242591
0.0243779
0.024456
0.0245051
0.0245341
0.0245502
0.0245576
0.024558
0.0245557
0.024551
0.0245449
0.0245377
0.0245319
0.0245258
0.0245149
0.0245076
0.0245017
0.0244955
0.0244854
0.0244766
0.0244713
0.0244664
0.0244595
0.0244523
0.0244464
0.0244416
0.0244371
0.0244327
0.0244289
0.0244258
0.0244235
0.0244222
0.0244219
0.0244228
0.0244251
0.0182393
0.0187946
0.0193872
0.0200067
0.0206393
0.0212693
0.0218794
0.022452
0.0229704
0.023417
0.02378
0.0240593
0.024264
0.0244077
0.0245045
0.024567
0.0246056
0.024628
0.0246397
0.024644
0.0246435
0.0246403
0.0246349
0.0246297
0.0246239
0.0246154
0.0246087
0.024604
0.0245965
0.0245862
0.02458
0.0245754
0.0245693
0.0245602
0.024553
0.0245488
0.0245443
0.0245387
0.0245332
0.0245286
0.024525
0.0245219
0.0245193
0.0245174
0.0245163
0.0245162
0.0245172
0.0245193
0.0245228
0.0245279
0.0198336
0.0204581
0.0210858
0.0217007
0.0222857
0.0228241
0.0233004
0.0236998
0.0240159
0.0242537
0.0244249
0.024543
0.0246214
0.0246712
0.0247014
0.0247184
0.024727
0.0247288
0.0247272
0.0247236
0.0247186
0.0247125
0.0247063
0.0247022
0.0246942
0.0246862
0.0246805
0.0246766
0.0246683
0.0246591
0.0246541
0.0246505
0.0246449
0.0246372
0.0246315
0.0246281
0.0246243
0.0246201
0.0246162
0.0246131
0.0246109
0.0246095
0.0246088
0.0246089
0.0246101
0.0246124
0.0246159
0.0246206
0.0246268
0.0246347
0.0215238
0.0221173
0.0226717
0.0231719
0.0236033
0.0239557
0.0242279
0.0244286
0.0245706
0.0246672
0.0247303
0.0247698
0.0247933
0.0248061
0.0248116
0.0248119
0.0248099
0.0248055
0.0248004
0.024796
0.0247897
0.0247829
0.0247773
0.0247738
0.0247649
0.0247582
0.0247534
0.02475
0.0247416
0.0247338
0.0247299
0.0247271
0.0247221
0.0247161
0.0247118
0.0247089
0.0247061
0.0247034
0.0247012
0.0246998
0.0246993
0.0246997
0.0247011
0.0247036
0.0247072
0.024712
0.024718
0.0247255
0.0247345
0.0247456
0.0230353
0.0234938
0.0238794
0.0241863
0.0244184
0.0245865
0.0247036
0.024782
0.0248325
0.0248637
0.0248817
0.0248912
0.0248944
0.0248937
0.0248908
0.0248866
0.0248819
0.0248761
0.0248712
0.0248676
0.0248596
0.0248537
0.0248493
0.0248455
0.0248365
0.0248313
0.0248275
0.0248242
0.0248165
0.0248101
0.0248072
0.0248049
0.0248008
0.0247964
0.0247933
0.0247913
0.0247898
0.0247888
0.0247883
0.0247887
0.0247902
0.0247927
0.0247964
0.0248013
0.0248073
0.0248147
0.0248234
0.0248338
0.0248461
0.0248603
0.0241295
0.0243938
0.0245898
0.0247296
0.0248255
0.0248889
0.0249292
0.0249536
0.0249674
0.0249741
0.0249753
0.024974
0.0249707
0.0249663
0.0249617
0.0249577
0.0249519
0.024946
0.0249422
0.0249383
0.0249302
0.0249254
0.0249222
0.0249177
0.0249093
0.0249051
0.0249025
0.0248993
0.0248927
0.0248876
0.0248857
0.0248836
0.0248807
0.024878
0.0248762
0.0248754
0.0248753
0.024876
0.0248775
0.02488
0.0248836
0.0248884
0.0248945
0.0249017
0.0249103
0.0249204
0.0249322
0.0249458
0.0249612
0.0249788
0.0247447
0.0248601
0.0249383
0.0249893
0.0250212
0.0250401
0.0250505
0.0250549
0.0250549
0.0250529
0.0250492
0.0250452
0.0250409
0.0250357
0.0250318
0.0250284
0.0250214
0.0250162
0.0250138
0.0250087
0.0250017
0.0249979
0.0249957
0.0249905
0.024983
0.0249797
0.0249781
0.024975
0.0249699
0.0249662
0.0249648
0.0249634
0.0249618
0.0249606
0.0249603
0.024961
0.0249626
0.0249652
0.0249688
0.0249735
0.0249794
0.0249865
0.0249949
0.0250048
0.0250162
0.0250293
0.0250442
0.025061
0.0250797
0.0251005
0.0250433
0.025084
0.0251092
0.0251238
0.0251314
0.0251338
0.025133
0.0251304
0.0251268
0.0251227
0.0251186
0.025115
0.02511
0.0251048
0.0251022
0.0250979
0.0250916
0.0250872
0.0250856
0.0250796
0.0250737
0.0250707
0.0250691
0.0250636
0.0250573
0.0250549
0.025054
0.0250514
0.0250477
0.0250454
0.0250445
0.0250441
0.025044
0.0250445
0.0250459
0.0250483
0.0250518
0.0250565
0.0250622
0.0250691
0.0250772
0.0250868
0.0250979
0.0251106
0.025125
0.0251412
0.0251592
0.0251791
0.025201
0.0252249
0.0251938
0.0252049
0.0252102
0.0252111
0.0252097
0.0252068
0.0252031
0.0251994
0.0251955
0.0251909
0.0251876
0.0251846
0.0251787
0.0251741
0.0251726
0.0251672
0.0251621
0.0251585
0.0251571
0.0251506
0.0251457
0.0251435
0.0251423
0.0251373
0.0251321
0.0251307
0.02513
0.0251282
0.0251261
0.025125
0.025125
0.0251258
0.0251273
0.0251296
0.0251329
0.0251373
0.0251428
0.0251495
0.0251573
0.0251665
0.0251772
0.0251895
0.0252034
0.025219
0.0252364
0.0252556
0.0252767
0.0252997
0.0253246
0.0253514
0.0252871
0.0252869
0.025285
0.0252819
0.0252785
0.0252747
0.025271
0.0252677
0.0252635
0.0252589
0.0252568
0.025253
0.0252476
0.0252438
0.0252427
0.0252364
0.0252325
0.0252298
0.0252281
0.0252215
0.0252176
0.0252163
0.0252151
0.0252111
0.0252073
0.0252065
0.0252061
0.0252054
0.0252048
0.0252051
0.0252064
0.0252087
0.025212
0.0252162
0.0252214
0.0252277
0.0252352
0.025244
0.0252543
0.025266
0.0252794
0.0252944
0.0253112
0.0253297
0.0253501
0.0253722
0.0253962
0.0254221
0.0254498
0.0254793
0.025359
0.0253558
0.0253525
0.0253491
0.0253455
0.0253416
0.0253385
0.0253359
0.0253309
0.0253268
0.0253257
0.0253206
0.0253163
0.0253137
0.0253119
0.0253053
0.0253025
0.0253007
0.0252983
0.0252923
0.0252893
0.0252889
0.0252877
0.0252848
0.0252825
0.0252823
0.0252825
0.025283
0.025284
0.0252859
0.0252888
0.0252928
0.0252978
0.0253038
0.0253109
0.0253193
0.0253291
0.0253403
0.0253531
0.0253675
0.0253836
0.0254015
0.025421
0.0254424
0.0254655
0.0254905
0.0255172
0.0255456
0.0255757
0.0256075
0.0254286
0.0254255
0.0254221
0.0254186
0.0254156
0.0254121
0.0254079
0.0254058
0.0254029
0.025398
0.0253948
0.0253936
0.0253878
0.0253844
0.0253829
0.0253799
0.0253738
0.0253717
0.0253708
0.025368
0.025363
0.0253609
0.025361
0.02536
0.0253585
0.0253577
0.0253581
0.0253593
0.0253613
0.025364
0.0253676
0.0253722
0.0253778
0.0253845
0.0253925
0.0254017
0.0254124
0.0254246
0.0254384
0.0254538
0.0254708
0.0254896
0.0255102
0.0255324
0.0255565
0.0255822
0.0256096
0.0256387
0.0256694
0.0257016
0.0257351
0.025494
0.0254908
0.0254873
0.0254842
0.0254819
0.0254778
0.0254739
0.0254728
0.0254685
0.0254643
0.0254625
0.02546
0.0254545
0.0254519
0.025451
0.025447
0.0254416
0.0254402
0.0254398
0.0254373
0.0254335
0.0254324
0.0254326
0.0254323
0.0254321
0.0254327
0.0254343
0.0254369
0.0254404
0.0254446
0.0254498
0.0254561
0.0254635
0.0254723
0.0254824
0.025494
0.025507
0.0255217
0.025538
0.025556
0.0255756
0.025597
0.0256201
0.0256449
0.0256714
0.0256994
0.025729
0.0257601
0.0257926
0.0258263
0.025861
0.0255613
0.0255584
0.0255554
0.0255516
0.0255493
0.0255472
0.0255426
0.0255395
0.0255384
0.0255332
0.0255299
0.025529
0.0255251
0.0255202
0.0255183
0.0255177
0.0255133
0.0255088
0.0255081
0.0255079
0.0255059
0.0255036
0.0255032
0.0255038
0.0255046
0.0255059
0.025508
0.025511
0.025515
0.0255198
0.0255257
0.0255326
0.0255408
0.0255503
0.0255612
0.0255736
0.0255875
0.025603
0.0256202
0.0256389
0.0256594
0.0256815
0.0257053
0.0257308
0.0257578
0.0257864
0.0258164
0.0258477
0.0258804
0.0259141
0.0259489
0.0259843
0.0256247
0.0256224
0.025619
0.0256153
0.0256139
0.0256105
0.0256064
0.0256045
0.0256021
0.0255971
0.0255945
0.0255939
0.0255888
0.0255849
0.0255836
0.0255829
0.025579
0.0255755
0.0255754
0.0255751
0.0255741
0.0255733
0.0255737
0.0255751
0.0255773
0.02558
0.0255835
0.0255878
0.0255932
0.0255997
0.0256074
0.0256163
0.0256265
0.0256382
0.0256513
0.025666
0.0256823
0.0257002
0.0257197
0.0257408
0.0257636
0.025788
0.025814
0.0258414
0.0258704
0.0259007
0.0259322
0.0259649
0.0259986
0.0260331
0.0260683
0.0261037
0.0256873
0.0256853
0.0256813
0.0256781
0.025677
0.0256724
0.025669
0.0256681
0.0256639
0.0256599
0.0256578
0.0256569
0.0256516
0.0256484
0.0256478
0.025647
0.0256439
0.0256416
0.0256418
0.025642
0.0256421
0.0256427
0.0256443
0.0256468
0.0256501
0.0256541
0.025659
0.0256649
0.025672
0.0256803
0.0256899
0.0257009
0.0257133
0.0257271
0.0257425
0.0257594
0.025778
0.0257981
0.0258198
0.0258432
0.0258681
0.0258944
0.0259223
0.0259515
0.0259819
0.0260135
0.0260461
0.0260796
0.0261138
0.0261484
0.0261835
0.0262183
0.0257489
0.0257465
0.0257423
0.02574
0.0257379
0.0257332
0.0257304
0.0257297
0.0257243
0.0257212
0.0257198
0.0257184
0.0257136
0.0257111
0.0257111
0.0257101
0.0257082
0.0257072
0.0257076
0.0257087
0.0257101
0.025712
0.0257147
0.0257183
0.0257229
0.0257284
0.0257349
0.0257426
0.0257515
0.0257617
0.0257733
0.0257864
0.0258009
0.0258169
0.0258344
0.0258535
0.0258742
0.0258965
0.0259202
0.0259455
0.0259722
0.0260003
0.0260296
0.0260601
0.0260916
0.026124
0.0261572
0.0261909
0.026225
0.0262592
0.0262935
0.0263271
0.0258094
0.0258054
0.0258018
0.0258005
0.0257965
0.0257927
0.0257906
0.0257891
0.0257836
0.0257812
0.0257805
0.0257786
0.0257747
0.0257731
0.0257733
0.0257727
0.025772
0.0257722
0.0257734
0.0257754
0.0257779
0.025781
0.025785
0.0257899
0.0257959
0.0258031
0.0258113
0.0258208
0.0258317
0.0258439
0.0258575
0.0258726
0.0258891
0.0259072
0.0259269
0.025948
0.0259706
0.0259947
0.0260203
0.0260472
0.0260754
0.0261047
0.0261351
0.0261665
0.0261986
0.0262313
0.0262645
0.0262979
0.0263313
0.0263646
0.0263975
0.0264293
0.0258678
0.0258629
0.0258601
0.0258591
0.0258537
0.0258508
0.0258494
0.0258469
0.0258419
0.0258401
0.0258399
0.025838
0.0258353
0.0258344
0.0258348
0.0258351
0.0258357
0.0258369
0.025839
0.0258419
0.0258455
0.0258499
0.0258554
0.0258619
0.0258695
0.0258783
0.0258884
0.0258998
0.0259125
0.0259267
0.0259422
0.0259593
0.0259779
0.0259979
0.0260194
0.0260424
0.0260667
0.0260924
0.0261194
0.0261476
0.0261769
0.0262071
0.0262382
0.0262699
0.0263021
0.0263346
0.0263672
0.0263998
0.026432
0.0264637
0.0264946
0.0265241
0.0259237
0.0259195
0.0259172
0.0259154
0.0259098
0.0259076
0.0259067
0.0259038
0.0258995
0.0258984
0.0258982
0.0258969
0.0258954
0.0258953
0.0258962
0.0258974
0.0258989
0.0259012
0.0259043
0.0259084
0.0259133
0.0259192
0.0259262
0.0259343
0.0259436
0.0259542
0.025966
0.0259793
0.0259939
0.0260099
0.0260274
0.0260463
0.0260667
0.0260885
0.0261116
0.0261361
0.0261619
0.0261889
0.026217
0.0262461
0.026276
0.0263067
0.0263379
0.0263695
0.0264013
0.0264331
0.0264647
0.0264958
0.0265263
0.0265559
0.0265843
0.0266109
0.025975
0.0259734
0.0259702
0.0259652
0.0259635
0.0259629
0.0259601
0.0259568
0.0259563
0.0259561
0.0259556
0.0259553
0.025956
0.0259574
0.0259594
0.0259621
0.0259655
0.0259698
0.0259752
0.0259816
0.025989
0.0259975
0.0260073
0.0260183
0.0260306
0.0260442
0.0260592
0.0260756
0.0260934
0.0261126
0.0261332
0.0261552
0.0261785
0.0262031
0.0262289
0.0262557
0.0262836
0.0263124
0.026342
0.0263722
0.0264028
0.0264337
0.0264647
0.0264956
0.0265261
0.0265561
0.0265854
0.0266136
0.0266405
0.026666
0.0266893
0.0260298
0.0260287
0.0260249
0.0260206
0.0260194
0.0260186
0.0260164
0.0260142
0.0260139
0.0260142
0.0260144
0.0260151
0.0260165
0.0260187
0.0260218
0.0260256
0.0260302
0.0260359
0.0260426
0.0260504
0.0260594
0.0260695
0.0260809
0.0260935
0.0261075
0.0261228
0.0261395
0.0261575
0.0261769
0.0261977
0.0262197
0.0262431
0.0262676
0.0262933
0.0263199
0.0263476
0.026376
0.0264051
0.0264347
0.0264647
0.0264948
0.0265249
0.0265548
0.0265843
0.0266131
0.026641
0.0266679
0.0266934
0.0267173
0.0267393
0.0267588
0.026085
0.026084
0.0260803
0.0260766
0.0260758
0.0260749
0.0260733
0.0260721
0.0260722
0.0260728
0.0260738
0.0260753
0.0260776
0.0260808
0.0260849
0.0260899
0.0260959
0.0261028
0.0261109
0.0261201
0.0261305
0.0261422
0.0261551
0.0261693
0.0261848
0.0262017
0.0262199
0.0262394
0.0262602
0.0262822
0.0263054
0.0263298
0.0263553
0.0263817
0.0264089
0.0264369
0.0264654
0.0264944
0.0265236
0.0265529
0.0265821
0.0266109
0.0266393
0.0266669
0.0266935
0.0267189
0.0267429
0.0267653
0.0267857
0.026804
0.0268194
0.0261409
0.0261375
0.0261346
0.0261337
0.0261329
0.026132
0.0261316
0.0261319
0.026133
0.0261347
0.0261371
0.0261403
0.0261445
0.0261496
0.0261557
0.0261628
0.026171
0.0261804
0.0261909
0.0262027
0.0262157
0.0262301
0.0262457
0.0262625
0.0262807
0.0263002
0.0263209
0.0263428
0.0263659
0.02639
0.0264151
0.0264411
0.0264678
0.0264952
0.0265231
0.0265513
0.0265797
0.0266081
0.0266363
0.0266641
0.0266912
0.0267176
0.0267429
0.0267669
0.0267894
0.0268102
0.0268291
0.0268457
0.0268599
0.026871
0.0262017
0.0261987
0.0261963
0.0261952
0.0261945
0.0261939
0.0261939
0.0261946
0.0261962
0.0261985
0.0262016
0.0262056
0.0262106
0.0262166
0.0262236
0.0262318
0.0262411
0.0262516
0.0262633
0.0262762
0.0262904
0.0263059
0.0263226
0.0263407
0.0263599
0.0263804
0.026402
0.0264247
0.0264484
0.026473
0.0264984
0.0265246
0.0265513
0.0265784
0.0266058
0.0266333
0.0266607
0.0266878
0.0267145
0.0267404
0.0267655
0.0267894
0.026812
0.0268331
0.0268523
0.0268696
0.0268846
0.0268971
0.0269071
0.0269135
0.0262699
0.0262669
0.0262645
0.0262631
0.0262621
0.0262617
0.0262618
0.0262626
0.0262644
0.026267
0.0262706
0.026275
0.0262806
0.0262872
0.0262949
0.0263038
0.0263139
0.0263252
0.0263377
0.0263515
0.0263666
0.0263829
0.0264005
0.0264193
0.0264392
0.0264603
0.0264824
0.0265055
0.0265295
0.0265542
0.0265796
0.0266055
0.0266318
0.0266582
0.0266847
0.026711
0.026737
0.0267624
0.0267871
0.0268108
0.0268334
0.0268545
0.0268741
0.0268918
0.0269075
0.0269209
0.0269319
0.0269401
0.0269455
0.0269472
0.0263504
0.0263468
0.0263437
0.0263415
0.0263398
0.0263388
0.0263386
0.0263392
0.0263407
0.0263431
0.0263465
0.026351
0.0263565
0.0263632
0.0263711
0.0263803
0.0263907
0.0264023
0.0264153
0.0264295
0.026445
0.0264617
0.0264796
0.0264987
0.0265189
0.0265402
0.0265624
0.0265854
0.0266092
0.0266336
0.0266585
0.0266836
0.026709
0.0267343
0.0267594
0.0267841
0.0268083
0.0268316
0.0268539
0.0268751
0.0268948
0.0269128
0.026929
0.0269431
0.0269549
0.0269643
0.026971
0.0269748
0.0269754
0.0269726
0.0264508
0.0264454
0.0264406
0.0264366
0.0264334
0.026431
0.0264293
0.0264286
0.0264291
0.0264306
0.0264331
0.0264367
0.0264415
0.0264475
0.0264548
0.0264635
0.0264734
0.0264848
0.0264974
0.0265113
0.0265266
0.0265431
0.0265608
0.0265796
0.0265995
0.0266204
0.0266421
0.0266645
0.0266876
0.0267111
0.0267349
0.0267589
0.0267828
0.0268065
0.0268298
0.0268525
0.0268744
0.0268952
0.0269148
0.026933
0.0269495
0.0269641
0.0269767
0.026987
0.0269947
0.0269998
0.0270021
0.0270012
0.0269974
0.0269898
0.0265824
0.0265733
0.026565
0.0265576
0.0265512
0.0265457
0.0265413
0.0265379
0.0265357
0.0265347
0.0265349
0.0265366
0.0265396
0.0265438
0.0265495
0.0265565
0.026565
0.0265749
0.0265863
0.026599
0.0266132
0.0266286
0.0266452
0.0266629
0.0266817
0.0267015
0.026722
0.0267432
0.0267649
0.0267869
0.0268091
0.0268313
0.0268533
0.0268749
0.026896
0.0269162
0.0269354
0.0269533
0.0269699
0.0269847
0.0269977
0.0270087
0.0270173
0.0270235
0.0270271
0.0270277
0.0270256
0.0270203
0.0270116
0.0269988
0.0267618
0.0267461
0.0267313
0.0267177
0.0267053
0.0266942
0.0266845
0.0266761
0.0266692
0.0266637
0.0266598
0.0266573
0.0266564
0.0266571
0.0266596
0.0266636
0.0266692
0.0266764
0.0266851
0.0266954
0.0267071
0.0267202
0.0267347
0.0267503
0.026767
0.0267847
0.0268032
0.0268223
0.0268418
0.0268616
0.0268816
0.0269014
0.0269209
0.0269398
0.026958
0.0269753
0.0269914
0.0270061
0.0270191
0.0270304
0.0270396
0.0270466
0.0270511
0.0270531
0.0270523
0.0270487
0.0270419
0.0270318
0.0270182
0.0270006
0.0269842
0.026959
0.0269352
0.0269128
0.0268922
0.0268733
0.0268562
0.0268412
0.0268281
0.026817
0.0268079
0.0268007
0.0267954
0.0267921
0.0267906
0.0267911
0.0267936
0.0267979
0.026804
0.0268118
0.0268211
0.0268319
0.026844
0.0268574
0.0268718
0.0268871
0.026903
0.0269195
0.0269362
0.026953
0.0269697
0.026986
0.0270017
0.0270165
0.0270303
0.0270428
0.0270537
0.027063
0.0270703
0.0270754
0.0270782
0.0270784
0.0270761
0.027071
0.0270628
0.0270512
0.0270363
0.027018
0.0269959
0.0273118
0.0272711
0.0272321
0.0271949
0.0271597
0.0271268
0.0270962
0.0270681
0.0270426
0.0270198
0.0269998
0.0269825
0.0269679
0.0269557
0.026946
0.0269386
0.0269336
0.0269307
0.02693
0.0269315
0.026935
0.0269403
0.0269472
0.0269556
0.0269652
0.0269759
0.0269874
0.0269996
0.0270121
0.0270248
0.0270374
0.0270496
0.0270613
0.027072
0.0270817
0.0270901
0.0270969
0.0271019
0.0271049
0.0271056
0.0271041
0.0271
0.0270932
0.0270834
0.0270704
0.0270541
0.0270346
0.0270118
0.0269849
0.0277535
0.0276913
0.0276313
0.0275735
0.0275182
0.0274656
0.0274159
0.0273693
0.0273259