/*--------------------------------*- C++ -*----------------------------------*\
| =========                 |                                                 |
| \\      /  F ield         | OpenFOAM: The Open Source CFD Toolbox           |
|  \\    /   O peration     | Version:  v1706                                 |
|   \\  /    A nd           | Web:      www.OpenFOAM.com                      |
|    \\/     M anipulation  |                                                 |
\*---------------------------------------------------------------------------*/
FoamFile
{
    version     2.0;
    format      ascii;
    class       volScalarField;
    location    "1.2e-05";
    object      kappave;
}
// * * * * * * * * * * * * * * * * * * * * * * * * * * * * * * * * * * * * * //

dimensions      [1 1 -3 -1 0 0 0];


internalField   nonuniform List<scalar> 
30038
(
1.46038e-10
1.46038e-10
1.46038e-10
1.46038e-10
1.46038e-10
1.46038e-10
1.46038e-10
1.46038e-10
1.46038e-10
1.46038e-10
1.46038e-10
1.46038e-10
1.46038e-10
1.46038e-10
1.46038e-10
1.46038e-10
1.46038e-10
1.46038e-10
1.46038e-10
1.46038e-10
1.46038e-10
1.46038e-10
1.46038e-10
1.46038e-10
1.46038e-10
1.46038e-10
1.46038e-10
1.46038e-10
1.46038e-10
1.46038e-10
1.46038e-10
1.46038e-10
1.46038e-10
1.46038e-10
1.46038e-10
1.46038e-10
1.46038e-10
1.46038e-10
1.46038e-10
1.46038e-10
1.46038e-10
1.46038e-10
1.46038e-10
1.46038e-10
1.46038e-10
1.46038e-10
1.46038e-10
1.46038e-10
1.46038e-10
1.46038e-10
1.46038e-10
1.46038e-10
1.46038e-10
1.46038e-10
1.46038e-10
1.46038e-10
1.46038e-10
1.46038e-10
1.46038e-10
1.46038e-10
1.46038e-10
1.46038e-10
1.46038e-10
1.46038e-10
1.46038e-10
1.46038e-10
1.46038e-10
1.46038e-10
1.46038e-10
1.46038e-10
1.46038e-10
1.46038e-10
1.46038e-10
1.46038e-10
1.46038e-10
1.46038e-10
1.46038e-10
1.46038e-10
1.46038e-10
1.46038e-10
1.46038e-10
1.46038e-10
1.46038e-10
1.46038e-10
1.46038e-10
1.46038e-10
1.46038e-10
1.46038e-10
1.46038e-10
1.46038e-10
1.46038e-10
1.46038e-10
1.46038e-10
1.46038e-10
1.46038e-10
1.46038e-10
1.46038e-10
1.46038e-10
1.46038e-10
1.46038e-10
1.46038e-10
1.46038e-10
1.46038e-10
1.46038e-10
1.46038e-10
1.46038e-10
1.46038e-10
1.46038e-10
1.46038e-10
1.46038e-10
1.46038e-10
1.46039e-10
1.46039e-10
1.46039e-10
1.46038e-10
1.46038e-10
1.46038e-10
1.46038e-10
1.46038e-10
1.46038e-10
1.46038e-10
1.46038e-10
1.46038e-10
1.46038e-10
1.46038e-10
1.46038e-10
1.46038e-10
1.46038e-10
1.46038e-10
1.46038e-10
1.46038e-10
1.46038e-10
1.46038e-10
1.46038e-10
1.46038e-10
1.46038e-10
1.46038e-10
1.46038e-10
1.46038e-10
1.46038e-10
1.46038e-10
1.46038e-10
1.46038e-10
1.46038e-10
1.46038e-10
1.46038e-10
1.46039e-10
1.46039e-10
1.46039e-10
1.4604e-10
1.46041e-10
1.46042e-10
1.46038e-10
1.46038e-10
1.46038e-10
1.46038e-10
1.46038e-10
1.46038e-10
1.46038e-10
1.46038e-10
1.46038e-10
1.46038e-10
1.46038e-10
1.46038e-10
1.46038e-10
1.46038e-10
1.46038e-10
1.46038e-10
1.46038e-10
1.46038e-10
1.46038e-10
1.46038e-10
1.46038e-10
1.46038e-10
1.46038e-10
1.46038e-10
1.46038e-10
1.46038e-10
1.46038e-10
1.46038e-10
1.46038e-10
1.46039e-10
1.46039e-10
1.46039e-10
1.4604e-10
1.46041e-10
1.46042e-10
1.46043e-10
1.46045e-10
1.46048e-10
1.46038e-10
1.46038e-10
1.46038e-10
1.46038e-10
1.46038e-10
1.46038e-10
1.46038e-10
1.46038e-10
1.46038e-10
1.46038e-10
1.46038e-10
1.46038e-10
1.46038e-10
1.46038e-10
1.46038e-10
1.46038e-10
1.46038e-10
1.46038e-10
1.46038e-10
1.46038e-10
1.46038e-10
1.46038e-10
1.46038e-10
1.46038e-10
1.46038e-10
1.46038e-10
1.46039e-10
1.46039e-10
1.46039e-10
1.4604e-10
1.46041e-10
1.46042e-10
1.46043e-10
1.46045e-10
1.46047e-10
1.46051e-10
1.46055e-10
1.46061e-10
1.46038e-10
1.46038e-10
1.46038e-10
1.46038e-10
1.46038e-10
1.46038e-10
1.46038e-10
1.46038e-10
1.46038e-10
1.46038e-10
1.46038e-10
1.46038e-10
1.46038e-10
1.46038e-10
1.46038e-10
1.46038e-10
1.46038e-10
1.46038e-10
1.46038e-10
1.46038e-10
1.46038e-10
1.46038e-10
1.46038e-10
1.46039e-10
1.46039e-10
1.4604e-10
1.4604e-10
1.46041e-10
1.46042e-10
1.46043e-10
1.46045e-10
1.46047e-10
1.46051e-10
1.46055e-10
1.4606e-10
1.46068e-10
1.46078e-10
1.46091e-10
1.46038e-10
1.46038e-10
1.46038e-10
1.46038e-10
1.46038e-10
1.46038e-10
1.46038e-10
1.46038e-10
1.46038e-10
1.46038e-10
1.46038e-10
1.46038e-10
1.46038e-10
1.46038e-10
1.46038e-10
1.46038e-10
1.46038e-10
1.46038e-10
1.46038e-10
1.46039e-10
1.46039e-10
1.46039e-10
1.4604e-10
1.4604e-10
1.46041e-10
1.46042e-10
1.46043e-10
1.46045e-10
1.46048e-10
1.46051e-10
1.46055e-10
1.4606e-10
1.46068e-10
1.46077e-10
1.4609e-10
1.46107e-10
1.4613e-10
1.4616e-10
1.46038e-10
1.46038e-10
1.46038e-10
1.46038e-10
1.46038e-10
1.46038e-10
1.46038e-10
1.46038e-10
1.46038e-10
1.46038e-10
1.46038e-10
1.46038e-10
1.46038e-10
1.46038e-10
1.46038e-10
1.46038e-10
1.46038e-10
1.46039e-10
1.46039e-10
1.46039e-10
1.4604e-10
1.4604e-10
1.46041e-10
1.46042e-10
1.46043e-10
1.46045e-10
1.46048e-10
1.46051e-10
1.46055e-10
1.4606e-10
1.46067e-10
1.46077e-10
1.46089e-10
1.46106e-10
1.46127e-10
1.46156e-10
1.46194e-10
1.46245e-10
1.46314e-10
1.46038e-10
1.46038e-10
1.46038e-10
1.46038e-10
1.46038e-10
1.46038e-10
1.46038e-10
1.46038e-10
1.46038e-10
1.46038e-10
1.46038e-10
1.46038e-10
1.46038e-10
1.46038e-10
1.46039e-10
1.46039e-10
1.46039e-10
1.4604e-10
1.4604e-10
1.46041e-10
1.46042e-10
1.46044e-10
1.46045e-10
1.46048e-10
1.46051e-10
1.46055e-10
1.4606e-10
1.46067e-10
1.46077e-10
1.46089e-10
1.46105e-10
1.46126e-10
1.46154e-10
1.46191e-10
1.46239e-10
1.46303e-10
1.46387e-10
1.465e-10
1.46651e-10
1.46038e-10
1.46038e-10
1.46038e-10
1.46038e-10
1.46038e-10
1.46038e-10
1.46038e-10
1.46038e-10
1.46038e-10
1.46038e-10
1.46038e-10
1.46039e-10
1.46039e-10
1.46039e-10
1.4604e-10
1.4604e-10
1.46041e-10
1.46042e-10
1.46044e-10
1.46045e-10
1.46048e-10
1.46051e-10
1.46055e-10
1.4606e-10
1.46067e-10
1.46076e-10
1.46088e-10
1.46104e-10
1.46125e-10
1.46152e-10
1.46187e-10
1.46234e-10
1.46296e-10
1.46377e-10
1.46483e-10
1.46623e-10
1.46807e-10
1.47051e-10
1.47375e-10
1.46038e-10
1.46038e-10
1.46038e-10
1.46038e-10
1.46038e-10
1.46038e-10
1.46038e-10
1.46038e-10
1.46038e-10
1.46039e-10
1.46039e-10
1.46039e-10
1.4604e-10
1.4604e-10
1.46041e-10
1.46042e-10
1.46044e-10
1.46045e-10
1.46048e-10
1.46051e-10
1.46055e-10
1.4606e-10
1.46067e-10
1.46076e-10
1.46088e-10
1.46103e-10
1.46123e-10
1.4615e-10
1.46184e-10
1.4623e-10
1.46289e-10
1.46367e-10
1.46469e-10
1.46603e-10
1.46778e-10
1.47008e-10
1.47308e-10
1.47701e-10
1.48216e-10
1.48894e-10
1.46038e-10
1.46038e-10
1.46038e-10
1.46038e-10
1.46038e-10
1.46038e-10
1.46039e-10
1.46039e-10
1.46039e-10
1.4604e-10
1.4604e-10
1.46041e-10
1.46042e-10
1.46044e-10
1.46046e-10
1.46048e-10
1.46051e-10
1.46055e-10
1.4606e-10
1.46067e-10
1.46076e-10
1.46087e-10
1.46102e-10
1.46122e-10
1.46148e-10
1.46182e-10
1.46226e-10
1.46283e-10
1.46358e-10
1.46457e-10
1.46585e-10
1.46753e-10
1.46972e-10
1.47257e-10
1.47629e-10
1.48112e-10
1.48739e-10
1.49551e-10
1.50602e-10
1.51961e-10
1.46038e-10
1.46038e-10
1.46039e-10
1.46039e-10
1.46039e-10
1.46039e-10
1.4604e-10
1.46041e-10
1.46041e-10
1.46043e-10
1.46044e-10
1.46046e-10
1.46048e-10
1.46051e-10
1.46055e-10
1.4606e-10
1.46067e-10
1.46076e-10
1.46087e-10
1.46102e-10
1.46121e-10
1.46146e-10
1.46179e-10
1.46222e-10
1.46277e-10
1.4635e-10
1.46444e-10
1.46568e-10
1.46728e-10
1.46938e-10
1.4721e-10
1.47564e-10
1.48022e-10
1.48616e-10
1.49382e-10
1.50365e-10
1.51623e-10
1.53223e-10
1.55245e-10
1.57784e-10
1.46039e-10
1.46039e-10
1.4604e-10
1.4604e-10
1.46041e-10
1.46042e-10
1.46043e-10
1.46044e-10
1.46046e-10
1.46048e-10
1.46051e-10
1.46055e-10
1.4606e-10
1.46067e-10
1.46076e-10
1.46087e-10
1.46101e-10
1.4612e-10
1.46145e-10
1.46177e-10
1.46218e-10
1.46272e-10
1.46342e-10
1.46433e-10
1.46552e-10
1.46706e-10
1.46906e-10
1.47165e-10
1.47502e-10
1.47938e-10
1.48501e-10
1.49227e-10
1.50157e-10
1.51344e-10
1.52849e-10
1.54743e-10
1.57104e-10
1.60013e-10
1.63553e-10
1.67795e-10
1.4604e-10
1.46041e-10
1.46042e-10
1.46043e-10
1.46044e-10
1.46046e-10
1.46048e-10
1.46052e-10
1.46055e-10
1.46061e-10
1.46067e-10
1.46076e-10
1.46087e-10
1.46101e-10
1.4612e-10
1.46144e-10
1.46175e-10
1.46215e-10
1.46267e-10
1.46335e-10
1.46423e-10
1.46537e-10
1.46684e-10
1.46876e-10
1.47124e-10
1.47445e-10
1.47859e-10
1.48393e-10
1.4908e-10
1.4996e-10
1.51082e-10
1.52505e-10
1.54294e-10
1.56523e-10
1.5927e-10
1.62604e-10
1.66589e-10
1.71262e-10
1.76632e-10
1.82647e-10
1.46043e-10
1.46044e-10
1.46046e-10
1.46049e-10
1.46052e-10
1.46056e-10
1.46061e-10
1.46067e-10
1.46076e-10
1.46087e-10
1.46101e-10
1.46119e-10
1.46142e-10
1.46173e-10
1.46212e-10
1.46263e-10
1.46328e-10
1.46413e-10
1.46523e-10
1.46664e-10
1.46848e-10
1.47085e-10
1.4739e-10
1.47785e-10
1.48292e-10
1.48943e-10
1.49775e-10
1.50836e-10
1.5218e-10
1.5387e-10
1.55977e-10
1.58577e-10
1.6174e-10
1.65528e-10
1.69984e-10
1.75112e-10
1.80864e-10
1.8714e-10
1.93795e-10
2.00634e-10
1.46049e-10
1.46052e-10
1.46056e-10
1.46061e-10
1.46068e-10
1.46076e-10
1.46087e-10
1.46101e-10
1.46119e-10
1.46142e-10
1.46171e-10
1.46209e-10
1.46259e-10
1.46322e-10
1.46404e-10
1.4651e-10
1.46646e-10
1.46822e-10
1.47048e-10
1.4734e-10
1.47715e-10
1.48197e-10
1.48814e-10
1.49602e-10
1.50605e-10
1.51874e-10
1.5347e-10
1.55461e-10
1.5792e-10
1.60918e-10
1.6452e-10
1.68772e-10
1.73693e-10
1.79253e-10
1.8536e-10
1.91872e-10
1.98589e-10
2.05231e-10
2.11469e-10
2.17047e-10
1.46056e-10
1.46061e-10
1.46068e-10
1.46076e-10
1.46087e-10
1.46101e-10
1.46118e-10
1.46141e-10
1.4617e-10
1.46207e-10
1.46255e-10
1.46317e-10
1.46396e-10
1.46498e-10
1.46629e-10
1.46798e-10
1.47015e-10
1.47293e-10
1.47651e-10
1.48109e-10
1.48694e-10
1.49441e-10
1.50389e-10
1.51588e-10
1.53095e-10
1.54975e-10
1.57299e-10
1.60138e-10
1.63558e-10
1.6761e-10
1.72322e-10
1.77682e-10
1.83623e-10
1.90013e-10
1.96684e-10
2.03392e-10
2.09818e-10
2.15621e-10
2.20533e-10
2.24427e-10
2.27397e-10
1.46077e-10
1.46087e-10
1.46101e-10
1.46118e-10
1.46141e-10
1.46169e-10
1.46206e-10
1.46253e-10
1.46312e-10
1.46389e-10
1.46488e-10
1.46614e-10
1.46776e-10
1.46984e-10
1.47251e-10
1.47591e-10
1.48027e-10
1.48583e-10
1.4929e-10
1.50188e-10
1.51321e-10
1.52745e-10
1.5452e-10
1.56716e-10
1.59402e-10
1.62644e-10
1.665e-10
1.71003e-10
1.76155e-10
1.81912e-10
1.88165e-10
1.94755e-10
2.01482e-10
2.08066e-10
2.14171e-10
2.19488e-10
2.2382e-10
2.2713e-10
2.29524e-10
2.3116e-10
2.3226e-10
1.46101e-10
1.46119e-10
1.46141e-10
1.46169e-10
1.46205e-10
1.4625e-10
1.46309e-10
1.46383e-10
1.46479e-10
1.46601e-10
1.46757e-10
1.46957e-10
1.47211e-10
1.47537e-10
1.47952e-10
1.4848e-10
1.49152e-10
1.50002e-10
1.51074e-10
1.52419e-10
1.54095e-10
1.56169e-10
1.58709e-10
1.61782e-10
1.65445e-10
1.69741e-10
1.74682e-10
1.80241e-10
1.86335e-10
1.9282e-10
1.99518e-10
2.06194e-10
2.1254e-10
2.18226e-10
2.23001e-10
2.26758e-10
2.29541e-10
2.31494e-10
2.32792e-10
2.33615e-10
2.34099e-10
2.34381e-10
1.46141e-10
1.46169e-10
1.46204e-10
1.46249e-10
1.46306e-10
1.46378e-10
1.46471e-10
1.46589e-10
1.4674e-10
1.46932e-10
1.47176e-10
1.47488e-10
1.47884e-10
1.48387e-10
1.49024e-10
1.4983e-10
1.50845e-10
1.52117e-10
1.53701e-10
1.5566e-10
1.58061e-10
1.60971e-10
1.64449e-10
1.6854e-10
1.73269e-10
1.78622e-10
1.84538e-10
1.90897e-10
1.97529e-10
2.04237e-10
2.10754e-10
2.16756e-10
2.2195e-10
2.26161e-10
2.29368e-10
2.31674e-10
2.3325e-10
2.34275e-10
2.34901e-10
2.35253e-10
2.35438e-10
2.35501e-10
2.35487e-10
1.46248e-10
1.46303e-10
1.46374e-10
1.46464e-10
1.46579e-10
1.46725e-10
1.4691e-10
1.47145e-10
1.47443e-10
1.47822e-10
1.48301e-10
1.48908e-10
1.49673e-10
1.50634e-10
1.51838e-10
1.53336e-10
1.55188e-10
1.57458e-10
1.60212e-10
1.63511e-10
1.67405e-10
1.71922e-10
1.77063e-10
1.82787e-10
1.88997e-10
1.95541e-10
2.02231e-10
2.08849e-10
2.15101e-10
2.20672e-10
2.25328e-10
2.28979e-10
2.31678e-10
2.33571e-10
2.34831e-10
2.35627e-10
2.36099e-10
2.3636e-10
2.36475e-10
2.36483e-10
2.3645e-10
2.36382e-10
2.36279e-10
1.46371e-10
1.46459e-10
1.46571e-10
1.46712e-10
1.4689e-10
1.47117e-10
1.47403e-10
1.47766e-10
1.48224e-10
1.48802e-10
1.49529e-10
1.50442e-10
1.51582e-10
1.53e-10
1.54752e-10
1.56899e-10
1.59506e-10
1.62634e-10
1.66335e-10
1.70645e-10
1.75574e-10
1.81095e-10
1.87135e-10
1.93565e-10
2.00207e-10
2.06866e-10
2.13294e-10
2.19186e-10
2.24263e-10
2.28366e-10
2.31485e-10
2.33729e-10
2.35263e-10
2.36262e-10
2.36877e-10
2.37227e-10
2.3741e-10
2.37476e-10
2.3746e-10
2.37404e-10
2.37325e-10
2.37231e-10
2.37101e-10
2.36982e-10
1.46564e-10
1.46701e-10
1.46874e-10
1.47092e-10
1.47368e-10
1.47716e-10
1.48155e-10
1.48706e-10
1.49399e-10
1.50266e-10
1.51349e-10
1.52692e-10
1.54351e-10
1.56383e-10
1.58851e-10
1.61817e-10
1.65333e-10
1.69441e-10
1.74158e-10
1.79472e-10
1.85327e-10
1.91618e-10
1.98187e-10
2.04841e-10
2.11377e-10
2.17521e-10
2.22976e-10
2.27521e-10
2.3108e-10
2.33711e-10
2.35557e-10
2.36791e-10
2.37574e-10
2.38042e-10
2.38303e-10
2.38424e-10
2.3844e-10
2.38415e-10
2.38353e-10
2.38253e-10
2.38155e-10
2.38063e-10
2.37933e-10
2.37797e-10
2.37678e-10
1.46861e-10
1.47072e-10
1.47338e-10
1.47673e-10
1.48093e-10
1.48621e-10
1.49282e-10
1.50108e-10
1.51137e-10
1.52412e-10
1.53984e-10
1.55909e-10
1.58247e-10
1.61059e-10
1.64399e-10
1.68312e-10
1.72821e-10
1.77924e-10
1.83584e-10
1.89715e-10
1.96182e-10
2.02807e-10
2.09392e-10
2.15713e-10
2.21487e-10
2.26449e-10
2.30453e-10
2.33498e-10
2.35691e-10
2.37195e-10
2.38178e-10
2.38788e-10
2.3914e-10
2.39328e-10
2.39403e-10
2.39395e-10
2.39349e-10
2.39275e-10
2.39199e-10
2.39076e-10
2.3896e-10
2.38863e-10
2.38761e-10
2.38634e-10
2.38506e-10
2.38395e-10
1.47055e-10
1.47313e-10
1.47636e-10
1.4804e-10
1.48546e-10
1.49178e-10
1.49967e-10
1.50946e-10
1.52158e-10
1.5365e-10
1.55476e-10
1.57693e-10
1.6036e-10
1.63533e-10
1.67258e-10
1.71565e-10
1.76459e-10
1.81917e-10
1.87872e-10
1.94211e-10
2.00776e-10
2.07373e-10
2.13805e-10
2.19826e-10
2.25161e-10
2.29601e-10
2.33078e-10
2.35651e-10
2.37462e-10
2.38678e-10
2.39455e-10
2.39924e-10
2.4019e-10
2.40321e-10
2.40347e-10
2.40329e-10
2.40276e-10
2.40188e-10
2.40097e-10
2.40017e-10
2.39907e-10
2.39774e-10
2.3966e-10
2.39571e-10
2.39467e-10
2.39352e-10
2.3924e-10
2.39141e-10
1.47994e-10
1.48481e-10
1.49087e-10
1.49841e-10
1.50775e-10
1.51929e-10
1.53348e-10
1.55083e-10
1.57187e-10
1.59719e-10
1.62734e-10
1.6628e-10
1.70391e-10
1.7508e-10
1.80333e-10
1.86101e-10
1.92292e-10
1.98766e-10
2.05347e-10
2.11837e-10
2.18035e-10
2.23681e-10
2.28529e-10
2.32441e-10
2.3542e-10
2.37572e-10
2.39054e-10
2.40028e-10
2.40638e-10
2.40997e-10
2.4119e-10
2.41276e-10
2.41279e-10
2.41244e-10
2.41178e-10
2.41113e-10
2.41007e-10
2.40897e-10
2.40806e-10
2.40725e-10
2.40611e-10
2.40486e-10
2.40382e-10
2.40296e-10
2.40201e-10
2.40101e-10
2.40006e-10
2.39922e-10
1.48425e-10
1.49008e-10
1.49731e-10
1.50624e-10
1.51726e-10
1.53078e-10
1.54728e-10
1.56728e-10
1.59135e-10
1.62001e-10
1.65377e-10
1.693e-10
1.73789e-10
1.78839e-10
1.84413e-10
1.90439e-10
1.96797e-10
2.03329e-10
2.09847e-10
2.16156e-10
2.22042e-10
2.27252e-10
2.31588e-10
2.34987e-10
2.37511e-10
2.39294e-10
2.40498e-10
2.41274e-10
2.41748e-10
2.4202e-10
2.42162e-10
2.42203e-10
2.42191e-10
2.42148e-10
2.42076e-10
2.4199e-10
2.41914e-10
2.41834e-10
2.41709e-10
2.41599e-10
2.41518e-10
2.41437e-10
2.41333e-10
2.41224e-10
2.41132e-10
2.41051e-10
2.40969e-10
2.40886e-10
2.40809e-10
2.40742e-10
1.50493e-10
1.51546e-10
1.52837e-10
1.5441e-10
1.56315e-10
1.58605e-10
1.61333e-10
1.64549e-10
1.68292e-10
1.72587e-10
1.77437e-10
1.82816e-10
1.88665e-10
1.94886e-10
2.01338e-10
2.07851e-10
2.14231e-10
2.20287e-10
2.25793e-10
2.30525e-10
2.34346e-10
2.37264e-10
2.39381e-10
2.40846e-10
2.41817e-10
2.4243e-10
2.42798e-10
2.43e-10
2.43095e-10
2.43112e-10
2.43087e-10
2.43031e-10
2.42969e-10
2.42895e-10
2.42785e-10
2.42701e-10
2.42631e-10
2.42539e-10
2.4242e-10
2.4232e-10
2.4225e-10
2.42172e-10
2.42081e-10
2.41991e-10
2.41911e-10
2.4184e-10
2.41773e-10
2.41708e-10
2.4165e-10
2.41602e-10
1.54128e-10
1.55946e-10
1.58128e-10
1.60728e-10
1.63794e-10
1.67367e-10
1.71476e-10
1.76131e-10
1.81314e-10
1.8698e-10
1.93048e-10
1.99396e-10
2.05869e-10
2.12287e-10
2.18458e-10
2.24193e-10
2.29269e-10
2.33499e-10
2.36824e-10
2.39301e-10
2.41061e-10
2.42257e-10
2.43035e-10
2.43517e-10
2.43797e-10
2.43949e-10
2.44006e-10
2.44001e-10
2.4397e-10
2.43912e-10
2.43836e-10
2.43759e-10
2.43701e-10
2.436e-10
2.43488e-10
2.43412e-10
2.4335e-10
2.43261e-10
2.43154e-10
2.43069e-10
2.43006e-10
2.42936e-10
2.42861e-10
2.42788e-10
2.42722e-10
2.42665e-10
2.42614e-10
2.42568e-10
2.4253e-10
2.42504e-10
1.60185e-10
1.63111e-10
1.66524e-10
1.70456e-10
1.74922e-10
1.79912e-10
1.85392e-10
1.91295e-10
1.97518e-10
2.03923e-10
2.10343e-10
2.16596e-10
2.22495e-10
2.27849e-10
2.32456e-10
2.36186e-10
2.39043e-10
2.41127e-10
2.42579e-10
2.43548e-10
2.44167e-10
2.44544e-10
2.44757e-10
2.44863e-10
2.44893e-10
2.44879e-10
2.44833e-10
2.44774e-10
2.4472e-10
2.44628e-10
2.44546e-10
2.44475e-10
2.44416e-10
2.44308e-10
2.44206e-10
2.44141e-10
2.44086e-10
2.44007e-10
2.43916e-10
2.43845e-10
2.43788e-10
2.4373e-10
2.4367e-10
2.43614e-10
2.43565e-10
2.43524e-10
2.43491e-10
2.43466e-10
2.43451e-10
2.4345e-10
1.69526e-10
1.7381e-10
1.78612e-10
1.83907e-10
1.89639e-10
1.95721e-10
2.02033e-10
2.08422e-10
2.14718e-10
2.20739e-10
2.26308e-10
2.31235e-10
2.35355e-10
2.38602e-10
2.41032e-10
2.4277e-10
2.43959e-10
2.44741e-10
2.45231e-10
2.45522e-10
2.45683e-10
2.45757e-10
2.45761e-10
2.45738e-10
2.45691e-10
2.4563e-10
2.45558e-10
2.455e-10
2.45439e-10
2.4533e-10
2.45257e-10
2.45198e-10
2.45136e-10
2.45035e-10
2.44947e-10
2.44894e-10
2.44845e-10
2.44776e-10
2.44704e-10
2.44645e-10
2.44597e-10
2.44552e-10
2.44509e-10
2.44471e-10
2.44441e-10
2.44419e-10
2.44407e-10
2.44405e-10
2.44415e-10
2.44441e-10
1.82528e-10
1.88085e-10
1.94015e-10
2.00214e-10
2.06545e-10
2.1285e-10
2.18956e-10
2.24685e-10
2.29873e-10
2.34343e-10
2.37976e-10
2.4077e-10
2.42819e-10
2.44257e-10
2.45226e-10
2.45852e-10
2.46238e-10
2.46462e-10
2.46579e-10
2.46622e-10
2.46617e-10
2.46584e-10
2.46531e-10
2.46479e-10
2.46421e-10
2.46336e-10
2.46269e-10
2.46222e-10
2.46146e-10
2.46044e-10
2.45982e-10
2.45935e-10
2.45874e-10
2.45784e-10
2.45712e-10
2.4567e-10
2.45625e-10
2.45569e-10
2.45514e-10
2.45469e-10
2.45433e-10
2.45403e-10
2.45378e-10
2.45359e-10
2.45349e-10
2.4535e-10
2.45362e-10
2.45386e-10
2.45424e-10
2.45479e-10
1.98483e-10
2.04732e-10
2.11014e-10
2.17167e-10
2.23021e-10
2.28409e-10
2.33175e-10
2.37173e-10
2.40336e-10
2.42716e-10
2.44429e-10
2.45611e-10
2.46395e-10
2.46894e-10
2.47196e-10
2.47366e-10
2.47452e-10
2.47471e-10
2.47455e-10
2.47418e-10
2.47368e-10
2.47307e-10
2.47245e-10
2.47205e-10
2.47124e-10
2.47045e-10
2.46987e-10
2.46948e-10
2.46865e-10
2.46774e-10
2.46723e-10
2.46687e-10
2.46631e-10
2.46555e-10
2.46498e-10
2.46464e-10
2.46426e-10
2.46384e-10
2.46346e-10
2.46316e-10
2.46295e-10
2.46282e-10
2.46276e-10
2.4628e-10
2.46293e-10
2.46319e-10
2.46357e-10
2.4641e-10
2.46477e-10
2.46563e-10
2.15397e-10
2.21337e-10
2.26885e-10
2.31889e-10
2.36207e-10
2.39733e-10
2.42457e-10
2.44467e-10
2.45888e-10
2.46854e-10
2.47486e-10
2.47881e-10
2.48116e-10
2.48244e-10
2.48299e-10
2.48302e-10
2.48282e-10
2.48238e-10
2.48187e-10
2.48142e-10
2.4808e-10
2.48012e-10
2.47955e-10
2.47921e-10
2.47831e-10
2.47765e-10
2.47717e-10
2.47683e-10
2.47599e-10
2.47521e-10
2.47482e-10
2.47454e-10
2.47405e-10
2.47344e-10
2.47302e-10
2.47274e-10
2.47247e-10
2.47221e-10
2.472e-10
2.47187e-10
2.47183e-10
2.4719e-10
2.47206e-10
2.47234e-10
2.47274e-10
2.47327e-10
2.47394e-10
2.47476e-10
2.47576e-10
2.47699e-10
2.30523e-10
2.35111e-10
2.3897e-10
2.42041e-10
2.44364e-10
2.46046e-10
2.47218e-10
2.48003e-10
2.48509e-10
2.4882e-10
2.49001e-10
2.49095e-10
2.49128e-10
2.4912e-10
2.49091e-10
2.49049e-10
2.49002e-10
2.48945e-10
2.48896e-10
2.48859e-10
2.4878e-10
2.48721e-10
2.48676e-10
2.48639e-10
2.48549e-10
2.48496e-10
2.48459e-10
2.48426e-10
2.48349e-10
2.48285e-10
2.48257e-10
2.48233e-10
2.48193e-10
2.4815e-10
2.4812e-10
2.48101e-10
2.48087e-10
2.48078e-10
2.48076e-10
2.48082e-10
2.481e-10
2.48129e-10
2.48171e-10
2.48225e-10
2.48293e-10
2.48375e-10
2.48474e-10
2.48591e-10
2.48729e-10
2.48892e-10
2.41473e-10
2.44117e-10
2.4608e-10
2.47478e-10
2.48438e-10
2.49073e-10
2.49476e-10
2.4972e-10
2.49858e-10
2.49925e-10
2.49938e-10
2.49924e-10
2.49891e-10
2.49847e-10
2.49801e-10
2.49761e-10
2.49703e-10
2.49644e-10
2.49606e-10
2.49567e-10
2.49486e-10
2.49438e-10
2.49407e-10
2.49362e-10
2.49278e-10
2.49236e-10
2.4921e-10
2.49178e-10
2.49113e-10
2.49062e-10
2.49044e-10
2.49023e-10
2.48995e-10
2.48969e-10
2.48952e-10
2.48946e-10
2.48948e-10
2.48957e-10
2.48976e-10
2.49005e-10
2.49047e-10
2.49102e-10
2.49171e-10
2.49253e-10
2.49352e-10
2.49468e-10
2.49604e-10
2.49762e-10
2.49943e-10
2.50153e-10
2.4763e-10
2.48785e-10
2.49567e-10
2.50077e-10
2.50396e-10
2.50586e-10
2.5069e-10
2.50733e-10
2.50734e-10
2.50714e-10
2.50677e-10
2.50637e-10
2.50594e-10
2.50542e-10
2.50503e-10
2.50469e-10
2.50399e-10
2.50347e-10
2.50323e-10
2.50272e-10
2.50202e-10
2.50164e-10
2.50142e-10
2.5009e-10
2.50015e-10
2.49983e-10
2.49967e-10
2.49937e-10
2.49886e-10
2.4985e-10
2.49838e-10
2.49825e-10
2.4981e-10
2.49801e-10
2.49801e-10
2.4981e-10
2.49831e-10
2.49862e-10
2.49904e-10
2.49959e-10
2.50027e-10
2.50109e-10
2.50207e-10
2.50323e-10
2.50458e-10
2.50615e-10
2.50794e-10
2.50998e-10
2.51229e-10
2.51491e-10
2.50618e-10
2.51025e-10
2.51277e-10
2.51423e-10
2.51499e-10
2.51523e-10
2.51515e-10
2.5149e-10
2.51454e-10
2.51413e-10
2.51371e-10
2.51336e-10
2.51285e-10
2.51233e-10
2.51207e-10
2.51165e-10
2.51101e-10
2.51057e-10
2.51042e-10
2.50982e-10
2.50923e-10
2.50893e-10
2.50878e-10
2.50823e-10
2.5076e-10
2.50737e-10
2.50728e-10
2.50703e-10
2.50668e-10
2.50646e-10
2.5064e-10
2.50638e-10
2.5064e-10
2.50648e-10
2.50667e-10
2.50697e-10
2.50739e-10
2.50795e-10
2.50863e-10
2.50944e-10
2.51041e-10
2.51156e-10
2.5129e-10
2.51445e-10
2.51623e-10
2.51826e-10
2.52055e-10
2.52313e-10
2.52602e-10
2.52928e-10
2.52124e-10
2.52235e-10
2.52288e-10
2.52297e-10
2.52283e-10
2.52254e-10
2.52217e-10
2.5218e-10
2.52141e-10
2.52095e-10
2.52062e-10
2.52032e-10
2.51973e-10
2.51927e-10
2.51913e-10
2.51858e-10
2.51807e-10
2.51772e-10
2.51758e-10
2.51693e-10
2.51644e-10
2.51623e-10
2.51611e-10
2.51562e-10
2.51511e-10
2.51498e-10
2.51492e-10
2.51476e-10
2.51457e-10
2.51449e-10
2.51453e-10
2.51465e-10
2.51485e-10
2.51515e-10
2.51556e-10
2.51609e-10
2.51677e-10
2.51757e-10
2.51854e-10
2.51967e-10
2.521e-10
2.52254e-10
2.52431e-10
2.52632e-10
2.52861e-10
2.53118e-10
2.53406e-10
2.53728e-10
2.54088e-10
2.54489e-10
2.53058e-10
2.53056e-10
2.53037e-10
2.53005e-10
2.52971e-10
2.52934e-10
2.52896e-10
2.52864e-10
2.52822e-10
2.52775e-10
2.52754e-10
2.52716e-10
2.52663e-10
2.52625e-10
2.52614e-10
2.52551e-10
2.52513e-10
2.52486e-10
2.52469e-10
2.52404e-10
2.52366e-10
2.52353e-10
2.52342e-10
2.52303e-10
2.52267e-10
2.52262e-10
2.5226e-10
2.52255e-10
2.52254e-10
2.52261e-10
2.5228e-10
2.52311e-10
2.52352e-10
2.52405e-10
2.52471e-10
2.5255e-10
2.52644e-10
2.52756e-10
2.52888e-10
2.5304e-10
2.53216e-10
2.53416e-10
2.53644e-10
2.53901e-10
2.5419e-10
2.54513e-10
2.54873e-10
2.55274e-10
2.55719e-10
2.56216e-10
2.53777e-10
2.53746e-10
2.53712e-10
2.53678e-10
2.53643e-10
2.53603e-10
2.53572e-10
2.53546e-10
2.53496e-10
2.53455e-10
2.53444e-10
2.53394e-10
2.5335e-10
2.53325e-10
2.53307e-10
2.53242e-10
2.53214e-10
2.53197e-10
2.53174e-10
2.53115e-10
2.53086e-10
2.53083e-10
2.53073e-10
2.53046e-10
2.53026e-10
2.53027e-10
2.53034e-10
2.53044e-10
2.53061e-10
2.53088e-10
2.53127e-10
2.53179e-10
2.53244e-10
2.53322e-10
2.53415e-10
2.53525e-10
2.53654e-10
2.53805e-10
2.53979e-10
2.54178e-10
2.54405e-10
2.54662e-10
2.54951e-10
2.55276e-10
2.55639e-10
2.56043e-10
2.56493e-10
2.56992e-10
2.57546e-10
2.58164e-10
2.54474e-10
2.54442e-10
2.54408e-10
2.54374e-10
2.54344e-10
2.54309e-10
2.54267e-10
2.54246e-10
2.54217e-10
2.54168e-10
2.54136e-10
2.54125e-10
2.54067e-10
2.54033e-10
2.54018e-10
2.53989e-10
2.53929e-10
2.53909e-10
2.539e-10
2.53874e-10
2.53826e-10
2.53807e-10
2.53811e-10
2.53804e-10
2.53792e-10
2.53789e-10
2.53799e-10
2.53819e-10
2.53848e-10
2.53886e-10
2.53935e-10
2.53997e-10
2.54073e-10
2.54164e-10
2.54272e-10
2.544e-10
2.54549e-10
2.54721e-10
2.54919e-10
2.55144e-10
2.55401e-10
2.55691e-10
2.56017e-10
2.56382e-10
2.56791e-10
2.57246e-10
2.57753e-10
2.58316e-10
2.58941e-10
2.59635e-10
2.6041e-10
2.55128e-10
2.55096e-10
2.55061e-10
2.55031e-10
2.55007e-10
2.54966e-10
2.54928e-10
2.54917e-10
2.54874e-10
2.54833e-10
2.54814e-10
2.5479e-10
2.54735e-10
2.5471e-10
2.54702e-10
2.54663e-10
2.5461e-10
2.54597e-10
2.54595e-10
2.54572e-10
2.54538e-10
2.5453e-10
2.54536e-10
2.54539e-10
2.54544e-10
2.54557e-10
2.54583e-10
2.54621e-10
2.54671e-10
2.54731e-10
2.54805e-10
2.54894e-10
2.55e-10
2.55125e-10
2.55272e-10
2.55442e-10
2.55638e-10
2.55863e-10
2.56119e-10
2.56409e-10
2.56736e-10
2.57104e-10
2.57517e-10
2.57978e-10
2.58493e-10
2.59067e-10
2.59705e-10
2.60414e-10
2.61201e-10
2.62077e-10
2.63057e-10
2.55802e-10
2.55773e-10
2.55743e-10
2.55705e-10
2.55683e-10
2.55661e-10
2.55615e-10
2.55585e-10
2.55574e-10
2.55522e-10
2.55489e-10
2.55481e-10
2.55443e-10
2.55395e-10
2.55377e-10
2.55372e-10
2.5533e-10
2.55287e-10
2.55283e-10
2.55283e-10
2.55268e-10
2.5525e-10
2.55252e-10
2.55265e-10
2.55282e-10
2.55306e-10
2.5534e-10
2.55386e-10
2.55445e-10
2.55517e-10
2.55604e-10
2.55708e-10
2.55831e-10
2.55975e-10
2.56144e-10
2.56338e-10
2.56561e-10
2.56816e-10
2.57106e-10
2.57434e-10
2.57805e-10
2.58221e-10
2.58688e-10
2.59211e-10
2.59796e-10
2.60447e-10
2.61173e-10
2.61981e-10
2.6288e-10
2.63879e-10
2.64992e-10
2.66239e-10
2.56436e-10
2.56413e-10
2.5638e-10
2.56343e-10
2.56329e-10
2.56295e-10
2.56254e-10
2.56236e-10
2.56212e-10
2.56163e-10
2.56138e-10
2.56133e-10
2.56084e-10
2.56046e-10
2.56034e-10
2.5603e-10
2.55994e-10
2.55962e-10
2.55966e-10
2.55968e-10
2.55965e-10
2.55965e-10
2.55979e-10
2.56005e-10
2.56041e-10
2.56085e-10
2.56141e-10
2.5621e-10
2.56295e-10
2.56397e-10
2.56518e-10
2.5666e-10
2.56826e-10
2.57019e-10
2.5724e-10
2.57494e-10
2.57784e-10
2.58113e-10
2.58485e-10
2.58905e-10
2.59377e-10
2.59907e-10
2.60502e-10
2.61166e-10
2.61909e-10
2.62738e-10
2.63662e-10
2.64691e-10
2.65836e-10
2.67111e-10
2.68533e-10
2.70131e-10
2.57063e-10
2.57044e-10
2.57004e-10
2.56972e-10
2.56962e-10
2.56916e-10
2.56882e-10
2.56874e-10
2.56833e-10
2.56794e-10
2.56775e-10
2.56768e-10
2.56717e-10
2.56687e-10
2.56685e-10
2.5668e-10
2.56654e-10
2.56637e-10
2.56646e-10
2.56656e-10
2.56668e-10
2.56687e-10
2.56718e-10
2.56763e-10
2.56818e-10
2.56886e-10
2.56968e-10
2.57067e-10
2.57185e-10
2.57326e-10
2.5749e-10
2.5768e-10
2.579e-10
2.58153e-10
2.58442e-10
2.58772e-10
2.59145e-10
2.59568e-10
2.60045e-10
2.60582e-10
2.61185e-10
2.61862e-10
2.62621e-10
2.63469e-10
2.64418e-10
2.65476e-10
2.66657e-10
2.67974e-10
2.69441e-10
2.71075e-10
2.72899e-10
2.7495e-10
2.57681e-10
2.57656e-10
2.57615e-10
2.57592e-10
2.57572e-10
2.57526e-10
2.575e-10
2.57493e-10
2.5744e-10
2.57412e-10
2.57401e-10
2.57389e-10
2.57344e-10
2.57324e-10
2.57329e-10
2.57326e-10
2.57314e-10
2.57313e-10
2.57329e-10
2.57354e-10
2.57385e-10
2.57424e-10
2.57476e-10
2.57541e-10
2.57622e-10
2.5772e-10
2.57836e-10
2.57973e-10
2.58135e-10
2.58324e-10
2.58542e-10
2.58794e-10
2.59082e-10
2.59411e-10
2.59786e-10
2.60211e-10
2.60692e-10
2.61235e-10
2.61847e-10
2.62535e-10
2.63308e-10
2.64175e-10
2.65146e-10
2.66232e-10
2.67447e-10
2.68804e-10
2.70318e-10
2.72007e-10
2.7389e-10
2.75989e-10
2.78332e-10
2.80968e-10
2.58287e-10
2.58248e-10
2.58213e-10
2.58201e-10
2.58162e-10
2.58125e-10
2.58105e-10
2.58093e-10
2.58039e-10
2.58019e-10
2.58016e-10
2.58002e-10
2.57968e-10
2.57959e-10
2.5797e-10
2.57974e-10
2.57979e-10
2.57996e-10
2.58026e-10
2.58068e-10
2.58119e-10
2.58181e-10
2.58259e-10
2.58354e-10
2.58468e-10
2.58604e-10
2.58763e-10
2.5895e-10
2.59166e-10
2.59416e-10
2.59704e-10
2.60033e-10
2.60408e-10
2.60835e-10
2.6132e-10
2.61868e-10
2.62487e-10
2.63185e-10
2.63971e-10
2.64854e-10
2.65846e-10
2.66958e-10
2.68204e-10
2.69598e-10
2.71157e-10
2.72899e-10
2.74843e-10
2.77012e-10
2.79429e-10
2.82124e-10
2.85132e-10
2.88514e-10
2.58873e-10
2.58826e-10
2.58798e-10
2.58789e-10
2.58737e-10
2.58711e-10
2.587e-10
2.58678e-10
2.58632e-10
2.5862e-10
2.58623e-10
2.58612e-10
2.58593e-10
2.58596e-10
2.58613e-10
2.58633e-10
2.58658e-10
2.58693e-10
2.58742e-10
2.58804e-10
2.5888e-10
2.58973e-10
2.59084e-10
2.59217e-10
2.59375e-10
2.59559e-10
2.59774e-10
2.60022e-10
2.60308e-10
2.60637e-10
2.61013e-10
2.61441e-10
2.61928e-10
2.6248e-10
2.63106e-10
2.63812e-10
2.64609e-10
2.65507e-10
2.66517e-10
2.67652e-10
2.68926e-10
2.70354e-10
2.71954e-10
2.73744e-10
2.75746e-10
2.77981e-10
2.80475e-10
2.83257e-10
2.86356e-10
2.89808e-10
2.9366e-10
2.97986e-10
2.59436e-10
2.59396e-10
2.59374e-10
2.59359e-10
2.59306e-10
2.59287e-10
2.59283e-10
2.59259e-10
2.59223e-10
2.5922e-10
2.59228e-10
2.59226e-10
2.59225e-10
2.59241e-10
2.59271e-10
2.59307e-10
2.59352e-10
2.59411e-10
2.59484e-10
2.59575e-10
2.59685e-10
2.59816e-10
2.59971e-10
2.60153e-10
2.60365e-10
2.60612e-10
2.60897e-10
2.61224e-10
2.616e-10
2.62029e-10
2.62518e-10
2.63073e-10
2.63704e-10
2.64417e-10
2.65224e-10
2.66134e-10
2.6716e-10
2.68315e-10
2.69614e-10
2.71072e-10
2.72708e-10
2.74542e-10
2.76594e-10
2.7889e-10
2.81455e-10
2.84318e-10
2.8751e-10
2.91067e-10
2.95027e-10
2.99433e-10
3.04344e-10
3.0985e-10
2.59957e-10
2.59944e-10
2.59916e-10
2.59871e-10
2.59859e-10
2.59861e-10
2.59841e-10
2.59818e-10
2.59825e-10
2.59839e-10
2.59852e-10
2.59871e-10
2.59903e-10
2.59949e-10
2.60006e-10
2.60077e-10
2.60165e-10
2.60272e-10
2.604e-10
2.60553e-10
2.60733e-10
2.60943e-10
2.61187e-10
2.6147e-10
2.61796e-10
2.62171e-10
2.626e-10
2.6309e-10
2.63648e-10
2.64282e-10
2.65001e-10
2.65815e-10
2.66736e-10
2.67775e-10
2.68947e-10
2.70267e-10
2.71751e-10
2.73418e-10
2.7529e-10
2.77387e-10
2.79736e-10
2.82364e-10
2.85299e-10
2.88576e-10
2.9223e-10
2.96299e-10
3.00827e-10
3.05862e-10
3.11457e-10
3.17683e-10
3.24651e-10
2.60514e-10
2.60508e-10
2.60476e-10
2.60441e-10
2.60438e-10
2.60441e-10
2.60432e-10
2.60426e-10
2.60443e-10
2.60468e-10
2.60498e-10
2.60537e-10
2.60591e-10
2.6066e-10
2.60746e-10
2.6085e-10
2.60975e-10
2.61125e-10
2.61301e-10
2.61509e-10
2.61751e-10
2.62031e-10
2.62356e-10
2.62729e-10
2.63157e-10
2.63646e-10
2.64205e-10
2.64841e-10
2.65564e-10
2.66384e-10
2.67313e-10
2.68363e-10
2.69548e-10
2.70885e-10
2.72391e-10
2.74084e-10
2.75987e-10