/*--------------------------------*- C++ -*----------------------------------*\
| =========                 |                                                 |
| \\      /  F ield         | OpenFOAM: The Open Source CFD Toolbox           |
|  \\    /   O peration     | Version:  v1706                                 |
|   \\  /    A nd           | Web:      www.OpenFOAM.com                      |
|    \\/     M anipulation  |                                                 |
\*---------------------------------------------------------------------------*/
FoamFile
{
    version     2.0;
    format      ascii;
    class       volScalarField;
    location    "1.2e-05";
    object      Mach;
}
// * * * * * * * * * * * * * * * * * * * * * * * * * * * * * * * * * * * * * //

dimensions      [0 0 0 0 0 0 0];


internalField   nonuniform List<scalar> 
30038
(
3.99498
3.99498
3.99498
3.99498
3.99498
3.99498
3.99498
3.99498
3.99498
3.99498
3.99498
3.99498
3.99498
3.99498
3.99498
3.99498
3.99498
3.99498
3.99498
3.99498
3.99498
3.99498
3.99498
3.99498
3.99498
3.99498
3.99498
3.99498
3.99498
3.99498
3.99498
3.99498
3.99498
3.99498
3.99498
3.99498
3.99498
3.99497
3.99498
3.99498
3.99498
3.99498
3.99498
3.99498
3.99498
3.99498
3.99498
3.99498
3.99498
3.99498
3.99498
3.99498
3.99498
3.99498
3.99498
3.99498
3.99498
3.99498
3.99498
3.99498
3.99498
3.99498
3.99498
3.99498
3.99498
3.99498
3.99498
3.99498
3.99498
3.99498
3.99497
3.99497
3.99497
3.99497
3.99497
3.99496
3.99498
3.99498
3.99498
3.99498
3.99498
3.99498
3.99498
3.99498
3.99498
3.99498
3.99498
3.99498
3.99498
3.99498
3.99498
3.99498
3.99498
3.99498
3.99498
3.99498
3.99498
3.99498
3.99498
3.99498
3.99498
3.99498
3.99498
3.99498
3.99497
3.99497
3.99497
3.99497
3.99497
3.99496
3.99496
3.99495
3.99495
3.99493
3.99498
3.99498
3.99498
3.99498
3.99498
3.99498
3.99498
3.99498
3.99498
3.99498
3.99498
3.99498
3.99498
3.99498
3.99498
3.99498
3.99498
3.99498
3.99498
3.99498
3.99498
3.99498
3.99498
3.99498
3.99497
3.99497
3.99497
3.99497
3.99497
3.99497
3.99496
3.99496
3.99495
3.99494
3.99493
3.99492
3.9949
3.99487
3.99498
3.99498
3.99498
3.99498
3.99498
3.99498
3.99498
3.99498
3.99498
3.99498
3.99498
3.99498
3.99498
3.99498
3.99498
3.99498
3.99498
3.99498
3.99498
3.99498
3.99498
3.99497
3.99497
3.99497
3.99497
3.99497
3.99497
3.99496
3.99496
3.99495
3.99494
3.99493
3.99492
3.99489
3.99487
3.99483
3.99478
3.99471
3.99498
3.99498
3.99498
3.99498
3.99498
3.99498
3.99498
3.99498
3.99498
3.99498
3.99498
3.99498
3.99498
3.99498
3.99498
3.99498
3.99498
3.99498
3.99497
3.99497
3.99497
3.99497
3.99497
3.99497
3.99496
3.99496
3.99495
3.99494
3.99493
3.99491
3.99489
3.99487
3.99483
3.99478
3.99472
3.99463
3.99451
3.99436
3.99498
3.99498
3.99498
3.99498
3.99498
3.99498
3.99498
3.99498
3.99498
3.99498
3.99498
3.99498
3.99498
3.99498
3.99498
3.99497
3.99497
3.99497
3.99497
3.99497
3.99496
3.99496
3.99496
3.99495
3.99494
3.99493
3.99491
3.99489
3.99486
3.99483
3.99478
3.99471
3.99463
3.99452
3.99437
3.99417
3.9939
3.99354
3.99498
3.99498
3.99498
3.99498
3.99498
3.99498
3.99498
3.99498
3.99498
3.99498
3.99498
3.99497
3.99497
3.99497
3.99497
3.99497
3.99497
3.99496
3.99496
3.99495
3.99495
3.99494
3.99493
3.99491
3.99489
3.99486
3.99482
3.99478
3.99471
3.99463
3.99452
3.99437
3.99418
3.99392
3.99358
3.99313
3.99252
3.9917
3.99498
3.99498
3.99498
3.99498
3.99498
3.99498
3.99498
3.99498
3.99498
3.99497
3.99497
3.99497
3.99497
3.99497
3.99497
3.99496
3.99496
3.99495
3.99495
3.99494
3.99493
3.99491
3.99489
3.99486
3.99482
3.99477
3.99471
3.99463
3.99452
3.99437
3.99418
3.99393
3.99359
3.99315
3.99257
3.9918
3.99079
3.98943
3.98761
3.99498
3.99498
3.99498
3.99498
3.99498
3.99498
3.99497
3.99497
3.99497
3.99497
3.99497
3.99497
3.99496
3.99496
3.99495
3.99495
3.99494
3.99492
3.99491
3.99489
3.99486
3.99482
3.99477
3.99471
3.99462
3.99452
3.99437
3.99418
3.99393
3.99361
3.99318
3.99261
3.99186
3.99088
3.98959
3.98789
3.98564
3.98264
3.97867
3.99498
3.99498
3.99498
3.99497
3.99497
3.99497
3.99497
3.99497
3.99497
3.99496
3.99496
3.99495
3.99494
3.99493
3.99492
3.99491
3.99488
3.99486
3.99482
3.99477
3.99471
3.99462
3.99451
3.99437
3.99418
3.99394
3.99362
3.9932
3.99264
3.99192
3.99096
3.98971
3.98807
3.98591
3.98308
3.97937
3.9745
3.96803
3.95952
3.99497
3.99497
3.99497
3.99497
3.99497
3.99497
3.99497
3.99496
3.99496
3.99495
3.99494
3.99493
3.99492
3.9949
3.99488
3.99485
3.99482
3.99477
3.9947
3.99462
3.99451
3.99437
3.99419
3.99394
3.99363
3.99321
3.99267
3.99196
3.99104
3.98982
3.98823
3.98615
3.98343
3.97987
3.97522
3.96914
3.96122
3.9509
3.93736
3.91976
3.99497
3.99497
3.99497
3.99496
3.99496
3.99496
3.99495
3.99494
3.99493
3.99492
3.9949
3.99488
3.99485
3.99481
3.99476
3.9947
3.99462
3.99451
3.99437
3.99419
3.99395
3.99364
3.99323
3.9927
3.99201
3.99111
3.98993
3.98839
3.98638
3.98376
3.98034
3.97587
3.97007
3.96251
3.95271
3.94002
3.92365
3.90264
3.87551
3.84107
3.99496
3.99496
3.99496
3.99495
3.99494
3.99493
3.99492
3.9949
3.99488
3.99485
3.99481
3.99476
3.9947
3.99461
3.99451
3.99437
3.99418
3.99395
3.99364
3.99324
3.99273
3.99205
3.99117
3.99003
3.98854
3.9866
3.98407
3.98078
3.9765
3.97094
3.96372
3.95437
3.94231
3.92677
3.90687
3.8815
3.84938
3.80914
3.75874
3.69712
3.99495
3.99494
3.99493
3.99491
3.9949
3.99487
3.99484
3.9948
3.99476
3.99469
3.99461
3.9945
3.99436
3.99418
3.99395
3.99365
3.99326
3.99275
3.99209
3.99123
3.99012
3.98867
3.9868
3.98436
3.98119
3.97708
3.97176
3.96486
3.95595
3.94446
3.92969
3.91079
3.88673
3.85632
3.8182
3.77096
3.71313
3.6435
3.56034
3.46429
3.99491
3.99489
3.99487
3.99484
3.9948
3.99475
3.99469
3.9946
3.9945
3.99436
3.99418
3.99395
3.99365
3.99326
3.99277
3.99212
3.99128
3.9902
3.9888
3.98698
3.98463
3.98158
3.97763
3.97253
3.96594
3.95744
3.94649
3.93245
3.9145
3.89168
3.86283
3.82668
3.78184
3.72692
3.66063
3.58202
3.49068
3.38719
3.27143
3.14713
3.99483
3.9948
3.99474
3.99468
3.9946
3.99449
3.99435
3.99417
3.99394
3.99365
3.99327
3.99278
3.99215
3.99133
3.99027
3.98891
3.98715
3.98488
3.98194
3.97815
3.97326
3.96695
3.95883
3.94841
3.93505
3.918
3.89635
3.869
3.83472
3.79217
3.73998
3.67686
3.60175
3.51413
3.41423
3.30309
3.18259
3.05586
2.92485
2.7951
3.99467
3.99459
3.99448
3.99434
3.99416
3.99394
3.99364
3.99327
3.99279
3.99217
3.99137
3.99034
3.98901
3.9873
3.9851
3.98227
3.97862
3.97393
3.96789
3.96013
3.9502
3.93749
3.92129
3.90075
3.87482
3.84233
3.80197
3.75242
3.69236
3.62068
3.53671
3.44042
3.33263
3.21498
3.09001
2.96108
2.83211
2.70824
2.59344
2.49254
3.99447
3.99433
3.99415
3.99393
3.99364
3.99327
3.99279
3.99218
3.9914
3.99039
3.9891
3.98744
3.98531
3.98257
3.97905
3.97454
3.96875
3.96134
3.95186
3.93976
3.92436
3.90486
3.88028
3.84948
3.81122
3.7642
3.7071
3.6388
3.55847
3.46587
3.36156
3.24692
3.12413
2.99627
2.86692
2.74041
2.62183
2.51622
2.42789
2.35758
2.30416
3.99392
3.99363
3.99326
3.99279
3.99219
3.99142
3.99043
3.98917
3.98755
3.98549
3.98284
3.97945
3.9751
3.96955
3.96245
3.9534
3.94186
3.92722
3.9087
3.88537
3.85618
3.81992
3.7753
3.72107
3.65604
3.57931
3.49045
3.38976
3.27836
3.15813
3.03176
2.90267
2.77466
2.65225
2.54062
2.44435
2.36625
2.30645
2.26333
2.23352
2.21351
3.99325
3.99278
3.99218
3.99143
3.99046
3.98923
3.98765
3.98564
3.98307
3.97979
3.97561
3.97027
3.96347
3.95481
3.9438
3.92986
3.91225
3.89011
3.86242
3.82804
3.78573
3.73423
3.67237
3.59917
3.51405
3.41708
3.3091
3.19175
3.06735
2.93904
2.81037
2.68531
2.56861
2.46525
2.3789
2.31095
2.26043
2.22491
2.20116
2.18619
2.17746
2.17273
3.99217
3.99143
3.99048
3.98927
3.98773
3.98577
3.98327
3.9801
3.97606
3.97092
3.96439
3.95609
3.94558
3.93228
3.91552
3.89448
3.86821
3.8356
3.79547
3.74658
3.68775
3.61798
3.53658
3.44338
3.33898
3.22473
3.10272
2.97567
2.84704
2.72033
2.59975
2.49018
2.39601
2.31973
2.26147
2.21932
2.19036
2.17148
2.15993
2.15355
2.15093
2.15089
2.15183
3.98929
3.98778
3.98587
3.98344
3.98036
3.97645
3.97149
3.96521
3.95725
3.94719
3.93449
3.91852
3.89851
3.87354
3.8426
3.80451
3.7581
3.70218
3.63572
3.55795
3.46853
3.36782
3.25688
3.13757
3.0123
2.88416
2.75668
2.63341
2.51874
2.41746
2.33298
2.26654
2.21713
2.1823
2.15898
2.14416
2.13548
2.13106
2.12949
2.13012
2.13204
2.1344
2.13639
3.98594
3.98357
3.98058
3.97679
3.97199
3.96593
3.95828
3.94864
3.93649
3.92125
3.90219
3.87844
3.84904
3.81288
3.7688
3.71565
3.65236
3.57811
3.49245
3.39548
3.28802
3.17166
3.04857
2.92151
2.79382
2.66885
2.55036
2.44288
2.35064
2.27594
2.21882
2.17742
2.14887
2.13018
2.11867
2.11219
2.10941
2.10919
2.11022
2.11197
2.11477
2.1174
2.11987
2.12315
3.98075
3.97706
3.97242
3.96656
3.95919
3.94992
3.93829
3.92371
3.90552
3.88291
3.85494
3.82057
3.77869
3.72815
3.66789
3.59704
3.51505
3.42184
3.31799
3.20479
3.0842
2.95871
2.83132
2.70545
2.58427
2.47179
2.37252
2.28973
2.22455
2.17597
2.14158
2.11844
2.10363
2.09482
2.09026
2.08854
2.08888
2.0906
2.09282
2.09476
2.09781
2.10127
2.10398
2.10742
2.11102
3.97276
3.96709
3.95998
3.95105
3.93988
3.92592
3.90853
3.88695
3.86031
3.82761
3.78777
3.73969
3.68231
3.61472
3.53629
3.44681
3.34662
3.23677
3.11895
2.99544
2.86893
2.74262
2.61975
2.50356
2.39823
2.30783
2.23452
2.17831
2.13743
2.10911
2.09043
2.07881
2.07215
2.06906
2.06859
2.06946
2.071
2.07342
2.07623
2.07824
2.08139
2.08508
2.08852
2.09185
2.09558
2.09921
3.96753
3.96063
3.95202
3.94126
3.92786
3.9112
3.89058
3.86516
3.834
3.79606
3.75029
3.69562
3.63114
3.55615
3.47032
3.37381
3.26742
3.15261
3.03139
2.90627
2.78011
2.65616
2.53738
2.42727
2.32998
2.24878
2.18467
2.13671
2.10258
2.07945
2.06453
2.0555
2.0507
2.04878
2.04882
2.05017
2.05224
2.05407
2.05671
2.06011
2.06258
2.06547
2.06906
2.07285
2.0763
2.07988
2.08365
2.08723
3.94245
3.92955
3.91356
3.89381
3.8695
3.83976
3.80359
3.75996
3.70784
3.6463
3.5746
3.49232
3.39946
3.29661
3.18497
3.06634
2.94299
2.81756
2.69302
2.57254
2.45886
2.3558
2.26718
2.19515
2.1397
2.09917
2.07092
2.05212
2.04029
2.0334
2.02997
2.02913
2.02983
2.03113
2.03317
2.03597
2.03781
2.04053
2.04387
2.04731
2.05015
2.05338
2.05706
2.06067
2.06415
2.06775
2.07143
2.07491
3.93099
3.9156
3.89664
3.87335
3.8449
3.81035
3.76871
3.71898
3.66021
3.59164
3.51278
3.42351
3.32421
3.21588
3.10005
2.9788
2.85457
2.73008
2.60835
2.49223
2.38466
2.28944
2.20976
2.14662
2.09914
2.06514
2.04192
2.02679
2.01747
2.01235
2.01017
2.00992
2.01092
2.01272
2.01456
2.01668
2.01976
2.02249
2.02486
2.02801
2.03157
2.03492
2.03804
2.04144
2.04497
2.04842
2.05185
2.05533
2.05885
2.06218
3.87671
3.84945
3.81638
3.77658
3.72905
3.67289
3.60728
3.53169
3.4459
3.35013
3.24517
3.13234
3.01347
2.89082
2.76693
2.64455
2.52663
2.41575
2.31512
2.22831
2.15751
2.10274
2.06245
2.03416
2.01517
2.00304
1.99586
1.99209
1.99083
1.9913
1.99239
1.99403
1.99653
1.99872
2.00076
2.00381
2.00712
2.0097
2.01248
2.0158
2.01939
2.02262
2.02588
2.02929
2.03268
2.03599
2.03929
2.04258
2.04587
2.04896
3.78357
3.73809
3.68434
3.62153
3.54905
3.4666
3.37431
3.27274
3.16302
3.04676
2.92602
2.80317
2.68076
2.56155
2.4483
2.34348
2.25047
2.17232
2.11012
2.06307
2.02913
2.00573
1.99032
1.98068
1.97518
1.97267
1.97214
1.9728
1.97425
1.97614
1.97786
1.98032
1.98348
1.98551
1.98816
1.99139
1.99472
1.9974
2.00031
2.00369
2.00711
2.01027
2.01353
2.01684
2.0201
2.02326
2.02636
2.02941
2.03241
2.0352
3.63439
3.56485
3.48562
3.39668
3.29849
3.19195
3.07849
2.95994
2.83849
2.71657
2.5967
2.48158
2.37371
2.2757
2.19081
2.12129
2.06719
2.0271
1.99873
1.97949
1.96703
1.95948
1.95539
1.95372
1.95383
1.95476
1.95608
1.95806
1.96062
1.96226
1.96487
1.96773
1.97072
1.97294
1.97583
1.97912
1.9824
1.98516
1.98817
1.99145
1.99466
1.99776
2.00091
2.00406
2.00714
2.0101
2.01297
2.01573
2.01839
2.02081
3.41724
3.32235
3.21902
3.10847
2.99234
2.87263
2.75159
2.63164
2.51527
2.40503
2.30321
2.21263
2.13611
2.0749
2.02827
1.99438
1.97079
1.95507
1.94508
1.9392
1.93627
1.93544
1.93584
1.93693
1.93855
1.94027
1.94218
1.94509
1.94754
1.94949
1.95248
1.95548
1.95819
1.96063
1.96358
1.96688
1.97001
1.97286
1.9759
1.97901
1.98204
1.98501
1.98798
1.99091
1.99375
1.99646
1.99903
2.00144
2.00371
2.00567
3.13656
3.02301
2.90532
2.78555
2.66598
2.54895
2.4369
2.33221
2.23707
2.15433
2.08615
2.03279
1.99294
1.96448
1.94499
1.93219
1.92424
1.9198
1.91778
1.91747
1.9182
1.91929
1.92084
1.92306
1.92513
1.92697
1.92951
1.93262
1.93477
1.93714
1.94017
1.94326
1.94583
1.94836
1.95136
1.95459
1.95752
1.9604
1.96339
1.96633
1.96918
1.97195
1.97468
1.97733
1.97987
1.98224
1.98446
1.98647
1.98823
1.98961
2.81815
2.69937
2.58222
2.46898
2.36196
2.26337
2.17545
2.10076
2.04065
1.99454
1.96074
1.93699
1.92096
1.91061
1.90436
1.90102
1.89981
1.89995
1.90077
1.90205
1.90369
1.90532
1.9076
1.91047
1.91216
1.91458
1.91723
1.92028
1.9223
1.92488
1.92788
1.93099
1.9335
1.9361
1.93911
1.94213
1.94492
1.94775
1.95059
1.95334
1.95598
1.9585
1.96093
1.96325
1.96542
1.96741
1.96915
1.97062
1.97177
1.9725
2.50082
2.3921
2.29074
2.19875
2.11842
2.05177
1.99928
1.95976
1.93128
1.91156
1.89845
1.89012
1.88528
1.88293
1.88227
1.8827
1.88363
1.88484
1.88654
1.88877
1.89047
1.89254
1.89513
1.89796
1.89968
1.9024
1.90509
1.90796
1.91
1.91263
1.91562
1.91864
1.92115
1.92384
1.92671
1.9295
1.93217
1.93484
1.93747
1.93998
1.94236
1.94459
1.94667
1.9486
1.95032
1.95178
1.95292
1.95375
1.95424
1.95427
2.22346
2.1385
2.06593
2.00709
1.96165
1.92804
1.90418
1.8879
1.87721
1.87059
1.86689
1.86529
1.86512
1.86572
1.86672
1.86808
1.86971
1.87137
1.87382
1.87631
1.87783
1.88026
1.88299
1.88553
1.88743
1.89023
1.89298
1.89564
1.89778
1.9004
1.90339
1.9062
1.90875
1.91144
1.91412
1.9167
1.91919
1.92162
1.92398
1.9262
1.92826
1.93014
1.93181
1.93323
1.93436
1.93518
1.93568
1.93584
1.93559
1.93481
2.01784
1.9664
1.92737
1.89898
1.87911
1.86571
1.85706
1.85184
1.84911
1.84816
1.84829
1.84901
1.85004
1.85134
1.85309
1.8552
1.85681
1.85887
1.86163
1.86381
1.86563
1.86815
1.87099
1.87319
1.87528
1.87804
1.88087
1.88337
1.8856
1.88824
1.89111
1.8937
1.89624
1.89881
1.9013
1.90365
1.9059
1.90805
1.91008
1.91195
1.91361
1.91502
1.91614
1.91694
1.91744
1.91761
1.9174
1.91677
1.91568
1.91398
1.89608
1.87225
1.85577
1.8448
1.83784
1.8338
1.83186
1.83136
1.83174
1.83251
1.8336
1.83502
1.83663
1.83831
1.84071
1.84289
1.84442
1.84674
1.84963
1.85146
1.85362
1.85614
1.859
1.86098
1.86319
1.8659
1.86875
1.87114
1.87347
1.87608
1.87869
1.88112
1.88354
1.88592
1.88817
1.89028
1.89223
1.89405
1.89568
1.8971
1.89823
1.89904
1.89955
1.89973
1.89954
1.89896
1.89794
1.89643
1.8944
1.8917
1.83391
1.82497
1.81942
1.81635
1.81506
1.81495
1.81543
1.81627
1.8174
1.81876
1.82048
1.82246
1.82404
1.82604
1.82874
1.83053
1.83244
1.83479
1.83766
1.83933
1.84168
1.84422
1.84702
1.84889
1.85116
1.85385
1.8566
1.85893
1.86133
1.86378
1.86614
1.8684
1.87061
1.87273
1.87471
1.87652
1.87812
1.8795
1.88062
1.88145
1.88198
1.88219
1.88204
1.88151
1.88054
1.87911
1.87719
1.87472
1.87169
1.86792
1.8017
1.79945
1.79867
1.7988
1.79938
1.80025
1.80142
1.80287
1.80445
1.80609
1.80834
1.81036
1.81188
1.81411
1.81687
1.81841
1.82062
1.823
1.82572
1.82738
1.8298
1.83236
1.83504
1.83698
1.83925
1.8419
1.8444
1.84669
1.84903
1.8513
1.85344
1.85546
1.85739
1.85921
1.86084
1.86224
1.86337
1.8642
1.86475
1.86499
1.86489
1.86441
1.86351
1.86217
1.86033
1.85798
1.85509
1.8516
1.8475
1.84262
1.78263
1.78293
1.78355
1.78449
1.78569
1.78707
1.78873
1.79058
1.79216
1.79403
1.79657
1.79823
1.80009
1.80242
1.80503
1.80654
1.80892
1.81138
1.81383
1.8156
1.818
1.8206
1.8231
1.82516
1.82745
1.8299
1.83216
1.83437
1.83654
1.83859
1.84049
1.84224
1.84383
1.84524
1.8464
1.84727
1.84786
1.84814
1.84809
1.84767
1.84684
1.84558
1.84385
1.84162
1.83885
1.83552
1.8316
1.82704
1.82185
1.81583
1.76798
1.76894
1.77017
1.77161
1.77314
1.77472
1.77678
1.77874
1.78021
1.78233
1.78492
1.78635
1.78846
1.79096
1.79324
1.79491
1.79735
1.7999
1.80205
1.80396
1.80631
1.80891
1.81121
1.81337
1.81561
1.81779
1.81987
1.82188
1.82383
1.82563
1.82722
1.82861
1.82975
1.83064
1.83127
1.83161
1.83162
1.83127
1.83053
1.82936
1.82774
1.82563
1.823
1.81982
1.81607
1.81171
1.80672
1.80108
1.79476
1.7876
1.75364
1.7549
1.75628
1.75784
1.75957
1.76117
1.76287
1.76521
1.76692
1.76861
1.77094
1.7733
1.77478
1.77702
1.77964
1.78158
1.78346
1.78587
1.78847
1.79048
1.79247
1.79479
1.79723
1.79938
1.80153
1.80362
1.80559
1.80744
1.8092
1.81083
1.81228
1.81346
1.81437
1.81502
1.8154
1.81547
1.8152
1.81455
1.81349
1.81198
1.81
1.80752
1.8045
1.80092
1.79675
1.79197
1.78656
1.7805
1.77375
1.76633
1.75804
1.74124
1.74272
1.74424
1.74609
1.74801
1.74945
1.75141
1.75386
1.7553
1.75727
1.75979
1.76175
1.76351
1.76579
1.76842
1.77016
1.77215
1.77453
1.77708
1.77907
1.78111
1.78333
1.7855
1.78755
1.78956
1.79147
1.79321
1.79478
1.7962
1.7974
1.79837
1.79909
1.79953
1.79966
1.79947
1.79891
1.79795
1.79657
1.79472
1.79239
1.78954
1.78614
1.78217
1.77761
1.77243
1.76661
1.76014
1.753
1.74517
1.73666
1.72728
1.72783
1.72946
1.73107
1.73262
1.73475
1.73658
1.73809
1.74029
1.74258
1.74402
1.74617
1.74878
1.75044
1.75243
1.75473
1.75728
1.75899
1.761
1.76337
1.76573
1.76775
1.7698
1.77183
1.77377
1.77564
1.77744
1.77909
1.78053
1.78172
1.78268
1.78344
1.78394
1.78416
1.78405
1.78359
1.78274
1.78148
1.77978
1.7776
1.77492
1.77171
1.76795
1.76361
1.75867
1.7531
1.7469
1.74005
1.73253
1.72433
1.71545
1.70589
1.69549
1.71632
1.71817
1.71966
1.72141
1.72373
1.72525
1.72707
1.7295
1.73136
1.73311
1.73531
1.73785
1.73942
1.74151
1.74384
1.74624
1.74804
1.75002
1.75231
1.75443
1.75643
1.7584
1.76025
1.76196
1.76357
1.76505
1.76631
1.76734
1.76814
1.76868
1.76896
1.76893
1.76857
1.76784
1.76672
1.76516
1.76314
1.76064
1.75762
1.75407
1.74995
1.74526
1.73995
1.73403
1.72746
1.72025
1.71238
1.70384
1.69463
1.68474
1.6742
1.66283
1.70524
1.70714
1.70857
1.71057
1.71287
1.71427
1.71633
1.71886
1.72041
1.72244
1.72468
1.72704
1.72868
1.73075
1.73311
1.73532
1.73721
1.73918
1.74125
1.74319
1.74509
1.74688
1.7485
1.74993
1.75116
1.75223
1.75311
1.75373
1.75408
1.75414
1.75387
1.75325
1.75225
1.75084
1.74899
1.74667
1.74385
1.74051
1.73663
1.73218
1.72714
1.72149
1.71523
1.70832
1.70078
1.69258
1.68372
1.67421
1.66404
1.65321
1.64176
1.6295
1.69452
1.69623
1.69785
1.70012
1.70206
1.70371
1.70587
1.7083
1.7098
1.71193
1.71427
1.7164
1.71815
1.72017
1.72248
1.72452
1.72645
1.72834
1.73018
1.73193
1.73361
1.73513
1.73642
1.73749
1.73838
1.73905
1.73948
1.73963
1.73947
1.73896
1.73809
1.73683
1.73514
1.733
1.73038
1.72726
1.72361
1.71941
1.71464
1.70928
1.70331
1.69673
1.68951
1.68166
1.67316
1.66402
1.65423
1.64381
1.63275
1.62105
1.60876
1.5957
1.6841
1.68556
1.68748
1.68991
1.69148
1.69345
1.69569
1.69786
1.69949
1.7016
1.70397
1.70596
1.70778
1.70977
1.71187
1.71381
1.71568
1.71744
1.71904
1.7205
1.72183
1.723
1.72397
1.7247
1.72518
1.72541
1.72534
1.72495
1.72422
1.7231
1.72157
1.71961
1.71719
1.71429
1.71088
1.70693
1.70243
1.69736
1.6917
1.68544
1.67856
1.67106
1.66292
1.65415
1.64475
1.63472
1.62406
1.61279
1.60091
1.58843
1.5754
1.56164
1.67379
1.6753
1.67742
1.67978
1.68126
1.68337
1.68572
1.68763
1.68938
1.69146
1.69376
1.69569
1.69754
1.69942
1.7013
1.7031
1.70481
1.70633
1.70764
1.70878
1.70978
1.71059
1.71117
1.71148
1.71151
1.71123
1.71062
1.70964
1.70828
1.7065
1.70428
1.7016
1.69842
1.69473
1.6905
1.68572
1.68037
1.67443
1.66789
1.66074
1.65297
1.64459
1.63558
1.62594
1.6157
1.60484
1.59338
1.58134
1.56873
1.55555
1.54187
1.5275
1.66359
1.66542
1.66764
1.66974
1.67136
1.67347
1.67585
1.67767
1.67944
1.68149
1.68361
1.68551
1.68733
1.68906
1.69071
1.69223
1.69364
1.6949
1.69594
1.69677
1.6974
1.6978
1.69793
1.69777
1.69729
1.69646
1.69525
1.69365
1.69163
1.68916
1.68622
1.68278
1.67883
1.67433
1.66929
1.66368
1.65748
1.65068
1.64329
1.63528
1.62667
1.61744
1.60761
1.59718
1.58615
1.57454
1.56236
1.54964
1.53638
1.5226
1.50835
1.49348
1.65574
1.65807
1.6599
1.66164
1.66374
1.66604
1.66786
1.66965
1.67159
1.67351
1.67532
1.67703
1.67856
1.67991
1.68115
1.68227
1.68321
1.68392
1.6844
1.68461
1.68456
1.6842
1.68351
1.68247
1.68105
1.67922
1.67696
1.67425
1.67107
1.66738
1.66318
1.65844
1.65316
1.6473
1.64086
1.63384
1.62622
1.61801
1.60919
1.59978
1.58977
1.57918
1.56801
1.55627
1.54399
1.53118
1.51785
1.50403
1.48974
1.47503
1.45975
1.64619
1.64855
1.6503
1.65207
1.65417
1.65628
1.65812
1.65989
1.66167
1.66338
1.66498
1.66646
1.66776
1.66888
1.66984
1.67063
1.6712
1.67153
1.67159
1.67135
1.6708
1.66991
1.66867
1.66703
1.66499
1.66251
1.65957
1.65615
1.65224
1.64781
1.64284
1.63733
1.63125
1.6246
1.61737
1.60956
1.60116
1.59216
1.58259
1.57243
1.56171
1.55042
1.53859
1.52622
1.51335
1.49998
1.48615
1.47186
1.45715
1.44207
1.42646
1.63674
1.63904
1.6408
1.64256
1.64459
1.64653
1.64833
1.65003
1.65161
1.65306
1.65443
1.65566
1.65671
1.65756
1.6582
1.65861
1.65879
1.65869
1.65828
1.65755
1.65648
1.65503
1.6532
1.65095
1.64826
1.64511
1.64148
1.63736
1.63271
1.62754
1.62182
1.61555
1.6087
1.60129
1.5933
1.58474
1.5756
1.56588
1.55561
1.54477
1.5334
1.52149
1.50907
1.49616
1.48278
1.46894
1.45468
1.44002
1.42497
1.40961
1.39377
1.62943
1.63124
1.633
1.63487
1.63666
1.63835
1.6399
1.64126
1.6425
1.64362
1.64457
1.64533
1.64585
1.64613
1.64615
1.64589
1.64533
1.64444
1.64319
1.64156
1.63954
1.6371
1.63422
1.63088
1.62705
1.62273
1.6179
1.61254
1.60663
1.60018
1.59317
1.5856
1.57746
1.56876
1.55949
1.54967
1.53929
1.52838
1.51694
1.50499
1.49254
1.47961
1.46624
1.45243
1.43821
1.42361
1.40865
1.39335
1.37779
1.3618
1.61959
1.62142
1.62316
1.62485
1.62647
1.62799
1.62937
1.63056
1.63157
1.63241
1.63307
1.63349
1.63366
1.63356
1.63316
1.63245
1.6314
1.63
1.62821
1.62602
1.62341
1.62036
1.61684
1.61285
1.60836
1.60335
1.59783
1.59177
1.58516
1.57801
1.5703
1.56204
1.55322
1.54386
1.53395
1.5235
1.51253
1.50105
1.48907
1.47661
1.4637
1.45035
1.43658
1.42243
1.40791
1.39305
1.37788
1.36241
1.34673
1.33067
1.60926
1.61108
1.61276
1.61432
1.61577
1.61713
1.61833
1.61932
1.6201
1.62067
1.621
1.62108
1.62088
1.62038
1.61955
1.61838
1.61684
1.61492
1.61259
1.60984
1.60664
1.60298
1.59883
1.5942
1.58905
1.58339
1.5772
1.57047
1.5632
1.55538
1.54702
1.53812
1.52868
1.51871
1.50821
1.49721
1.48571
1.47373
1.46129
1.44841
1.43511
1.42141
1.40733
1.39291
1.37816
1.36312
1.34782
1.33227
1.31654
1.30051
1.59808
1.59986
1.6015
1.60296
1.60429
1.60547
1.60649
1.60729
1.60786
1.60817
1.6082
1.60794
1.60738
1.60647
1.60522
1.60359
1.60158
1.59914
1.59628
1.59298
1.5892
1.58495
1.5802
1.57495
1.56918
1.56289
1.55607
1.54871
1.54082
1.53239
1.52343
1.51394
1.50393
1.49342
1.48241
1.47092
1.45896
1.44656
1.43373
1.42049
1.40688
1.3929
1.37859
1.36398
1.34909
1.33394
1.31857
1.30301
1.28733
1.27139
1.58553
1.58731
1.58894
1.59037
1.59162
1.59268
1.59352
1.59414
1.59451
1.59459
1.59438
1.59384
1.59295
1.59169
1.59004
1.58799
1.58551
1.5826
1.57924
1.5754
1.57109
1.56628
1.56096
1.55513
1.54878
1.5419
1.5345
1.52656
1.5181
1.50911
1.49961
1.4896
1.47909
1.4681
1.45664
1.44473
1.43239
1.41964
1.40649
1.39298
1.37912
1.36494
1.35047
1.33574
1.32077
1.30559
1.29024
1.27474
1.25916
1.24334
1.57092
1.5728
1.5745
1.57599
1.57725
1.57828
1.57906
1.57956
1.57975
1.57963
1.57921
1.57844
1.57728
1.57574
1.57378
1.57138
1.56852
1.56518
1.56136
1.55706
1.55225
1.54693
1.5411
1.53474
1.52787
1.52046
1.51253
1.50408
1.49511
1.48563
1.47565
1.46519
1.45425
1.44285
1.43102
1.41876
1.4061
1.39307
1.37968
1.36596
1.35193
1.33762
1.32306
1.30827
1.2933
1.27816
1.2629
1.24751
1.23206
1.21644
1.55336
1.55549
1.5574
1.55908
1.5605
1.56164
1.56248
1.563
1.56319
1.56302
1.56245
1.56149
1.56012
1.55834
1.55614
1.55346
1.5503
1.54665
1.54249
1.53782
1.53261
1.52686
1.52059
1.51379
1.50645
1.49859
1.49021
1.48131
1.4719
1.46201
1.45163
1.44078
1.42948
1.41775
1.40561
1.39308
1.38018
1.36694
1.35337
1.33951
1.32538
1.31101
1.29642
1.28167
1.26676
1.25172
1.23658
1.22135
1.2061
1.19069
1.53431
1.53668
1.53877
1.54054
1.54198
1.54307
1.5438
1.54414
1.54406
1.54357
1.54263
1.54123
1.53934
1.53695
1.53406
1.53068
1.52681
1.5224
1.51744
1.51195
1.50591
1.49932
1.49218
1.4845
1.47627
1.46753
1.45828
1.44852
1.43829
1.42758
1.41643
1.40486
1.39287
1.3805
1.36777
1.3547
1.34131
1.32764
1.31371
1.29954
1.28518
1.27065
1.25598
1.24118
1.22628
1.21132
1.19629
1.18128
1.16615
1.50809
1.51122
1.514
1.51642
1.51844
1.52004
1.52121
1.52192
1.52217
1.52194
1.52121
1.51996
1.51818
1.51587
1.513
1.50957
1.50556
1.50098
1.49585
1.49017
1.48394
1.47713
1.46976
1.46185
1.4534
1.44442
1.43493
1.42493
1.41446
1.40353
1.39217
1.3804
1.36824
1.35572
1.34286
1.32969
1.31623
1.30252
1.2886
1.27449
1.26021
1.24578
1.23124
1.21659
1.20189
1.18714
1.17236
1.15764
1.14284
1.47594
1.4801
1.48387
1.48721
1.4901
1.49252
1.49443
1.49582
1.49667
1.49695
1.49667
1.49581
1.49436
1.49232
1.48968
1.48641
1.48254
1.47805
1.47295
1.46724
1.46091
1.454
1.44652
1.43849
1.42992
1.42081
1.41118
1.40106
1.39046
1.37941
1.36795
1.35608
1.34384
1.33126
1.31836
1.30519
1.29176
1.27811
1.26427
1.25026
1.2361
1.22182
1.20745
1.19302
1.17855
1.16407
1.14959
1.1352
1.12077
1.44319
1.4481
1.45255
1.45652
1.45996
1.46286
1.46518
1.46691
1.46801
1.46846
1.46826
1.4674
1.46586
1.46367
1.46081
1.45729
1.4531
1.44825
1.44273
1.43657
1.42979
1.4224
1.41442
1.40585
1.39673
1.38709
1.37695
1.36634
1.35529
1.34382
1.33196
1.31975
1.3072
1.29437
1.28128
1.26795
1.25442
1.24071
1.22684
1.21286
1.19878
1.18465
1.17047
1.15628
1.14211
1.12798
1.11395
1.09992
1.40165
1.40761
1.41312
1.41814
1.42264
1.42659
1.42995
1.43268
1.43477
1.43617
1.43688
1.43687
1.43612
1.43463
1.4324
1.42945
1.42578
1.4214
1.41632
1.41055
1.40411
1.397
1.38926
1.38092
1.372
1.36254
1.35256
1.34209
1.33116
1.3198
1.30807
1.29598
1.28357
1.27087
1.25792
1.24475
1.23139
1.21787
1.20422
1.19048
1.17667
1.16281
1.14894
1.13508
1.12127
1.10752
1.0939
1.08029
1.36479
1.37094
1.37669
1.38197
1.38674
1.39098
1.39462
1.39765
1.40001
1.40168
1.40262
1.40282
1.40226
1.4009
1.39876
1.39584
1.39214
1.3877
1.38254
1.37665
1.37006
1.36279
1.35487
1.34634
1.33723
1.32758
1.31741
1.30676
1.29567
1.28419
1.27235
1.26018
1.24773
1.23502
1.2221
1.209
1.19575
1.18239
1.16894
1.15545
1.14193
1.12841
1.11493
1.10152
1.08818
1.075
1.06185
1.32317
1.32926
1.33505
1.3405
1.34556
1.35019
1.35435
1.35797
1.36103
1.36347
1.36524
1.36632
1.36667
1.36627
1.36508
1.36309
1.3603
1.35669
1.35231
1.34716
1.34129
1.33471
1.32744
1.31951
1.31094
1.3018
1.29211
1.28192
1.27127
1.26019
1.24874
1.23694
1.22485
1.21249
1.19992
1.18717
1.17428
1.16128
1.1482
1.13509
1.12196
1.10886
1.0958
1.08282
1.06993
1.05722
1.04456
1.29132
1.29642
1.3013
1.30593
1.31027
1.31427
1.31791
1.32112
1.32385
1.32607
1.32771
1.32873
1.32908
1.32874
1.32766
1.32581
1.32319
1.31977
1.31555
1.31055
1.30481
1.29836
1.29122
1.28342
1.275
1.26598
1.25642
1.24637
1.23587
1.22496
1.21368
1.20208
1.19021
1.1781
1.16581
1.15337
1.14081
1.12818
1.11552
1.10284
1.0902
1.07761
1.06512
1.05272
1.04051
1.02835
1.25879
1.26278
1.2666
1.27024
1.27367
1.27689
1.27987
1.28258
1.28498
1.28703
1.28869
1.2899
1.2906
1.29076
1.29031
1.28922
1.28745
1.28496
1.28174
1.27775
1.27301
1.26751
1.2613
1.25442
1.24689
1.23875
1.23002
1.22075
1.21099
1.20078
1.19019
1.17924
1.16799
1.15648
1.14476
1.13288
1.12087
1.10877
1.09663
1.08448
1.07236
1.0603
1.04833
1.03646
1.02479
1.01317
1.23092
1.23389
1.23664
1.23918
1.2415
1.24363
1.24556
1.2473
1.24883
1.25015
1.25122
1.25202
1.25251
1.25264
1.25236
1.25162
1.25036
1.24853
1.2461
1.24303
1.23928
1.23484
1.22969
1.22384
1.21732
1.21017
1.20243
1.19413
1.18529
1.17597
1.16621
1.15607
1.1456
1.13484
1.12383
1.11263
1.10127
1.08982
1.07829
1.06675
1.05522
1.04375
1.03236
1.02107
1.00997
0.998933
1.20554
1.20783
1.20985
1.21158
1.21303
1.21422
1.21517
1.21588
1.21638
1.21668
1.2168
1.21674
1.2165
1.21605
1.21538
1.21445
1.2132
1.21159
1.20957
1.20709
1.20409
1.20053
1.19638
1.19162
1.18621
1.18016
1.1735
1.16627
1.15851
1.15024
1.14149
1.13232
1.12277
1.11291
1.10276
1.09238
1.08182
1.07112
1.06032
1.04948
1.03863
1.02781
1.01707
1.00642
0.995942
0.985521
1.18066
1.18257
1.18419
1.18549
1.18647
1.18712
1.18744
1.18745
1.18717
1.18661
1.18581
1.1848
1.18361
1.18227
1.1808
1.17919
1.17743
1.17552
1.17339
1.17102
1.16834
1.16531
1.16187
1.15797
1.15357
1.14863
1.14314
1.13708
1.13046
1.12333
1.11574
1.1077
1.09924
1.0904
1.08126
1.07185
1.06223
1.05242
1.04248
1.03245
1.02238
1.01232
1.00229
0.99234
0.982553
0.972802
1.15523
1.15694
1.15835
1.15945
1.16023
1.16066
1.16074
1.16045
1.1598
1.15879
1.15744
1.15577
1.15382
1.15165
1.14929
1.14681
1.14423
1.14158
1.13888
1.13611
1.13324
1.13025
1.12706
1.12364
1.11992
1.11584
1.11136
1.10644
1.10104
1.09515
1.08877
1.08193
1.07468
1.06706
1.05906
1.05075
1.04219
1.03342
1.02448
1.0154
1.00624
0.997028
0.987828
0.978649
0.969617
0.960605
1.12894
1.1305
1.1318
1.13281
1.13352
1.1339
1.13393
1.1336
1.1329
1.1318
1.13031
1.12841
1.12614
1.12351
1.12057
1.11738
1.11402
1.11054
1.10702
1.10349
1.1
1.09654
1.0931
1.08965
1.08614
1.08251
1.07869
1.07462
1.07025
1.06553
1.06042
1.05489
1.04892
1.04255
1.03583
1.02879
1.02142
1.0138
1.00598
0.998001
0.989883
0.981668
0.973405
0.965125
0.956928
0.948714
1.10332
1.10451
1.10545
1.10612
1.10651
1.10659
1.10633
1.10572
1.10473
1.10335
1.10154
1.09931
1.09666
1.09358
1.09012
1.08632
1.08227
1.07805
1.07374
1.06943
1.0652
1.0611
1.05714
1.05332
1.04962
1.04598
1.04234
1.03863
1.03477
1.0307
1.02637
1.02173
1.01674
1.01137
1.00564
0.99961
0.993307
0.986709
0.979917
0.972978
0.965899
0.958715
0.951449
0.944219
0.936916
1.07547
1.07658
1.07748
1.07814
1.07855
1.07869
1.07853
1.07805
1.07724
1.07606
1.07449
1.07251
1.07009
1.06722
1.06389
1.06012
1.05595
1.05142
1.04664
1.0417
1.03672
1.0318
1.02705
1.02253
1.01827
1.01428
1.01054
1.00698
1.00355
1.00015
0.9967
0.993132
0.989377
0.98538
0.981098
0.976501
0.971565
0.966354
0.960918
0.955234
0.949361
0.943394
0.937288
0.931149
0.924879
1.04724
1.04824
1.04906
1.0497
1.05013
1.05033
1.05029
1.04997
1.04934
1.04838
1.04708
1.0454
1.04332
1.04081
1.03784
1.03441
1.0305
1.02613
1.02134
1.01619
1.0108
1.00529
0.999798
0.994452
0.989369
0.984634
0.980294
0.976356
0.972791
0.969538
0.966518
0.963635
0.960797
0.957911
0.954904
0.951712
0.948281
0.944591
0.940578
0.936295
0.931826
0.927148
0.922265
0.917355
0.912258
1.01976
1.0205
1.02109
1.0215
1.02174
1.02177
1.02158
1.02114
1.02042
1.01938
1.01801
1.01628
1.01416
1.01163
1.00865
1.0052
1.00127
0.996849
0.991952
0.986629
0.980969
0.975094
0.969153
0.963307