/*--------------------------------*- C++ -*----------------------------------*\
| =========                 |                                                 |
| \\      /  F ield         | OpenFOAM: The Open Source CFD Toolbox           |
|  \\    /   O peration     | Version:  v1706                                 |
|   \\  /    A nd           | Web:      www.OpenFOAM.com                      |
|    \\/     M anipulation  |                                                 |
\*---------------------------------------------------------------------------*/
FoamFile
{
    version     2.0;
    format      ascii;
    class       volScalarField;
    location    "1.2e-05";
    object      mu;
}
// * * * * * * * * * * * * * * * * * * * * * * * * * * * * * * * * * * * * * //

dimensions      [1 -1 -1 0 0 0 0];


internalField   nonuniform List<scalar> 
30038
(
1.0351e-05
1.0351e-05
1.0351e-05
1.0351e-05
1.0351e-05
1.0351e-05
1.0351e-05
1.0351e-05
1.0351e-05
1.0351e-05
1.0351e-05
1.0351e-05
1.0351e-05
1.0351e-05
1.0351e-05
1.0351e-05
1.0351e-05
1.0351e-05
1.0351e-05
1.0351e-05
1.0351e-05
1.0351e-05
1.0351e-05
1.0351e-05
1.0351e-05
1.0351e-05
1.0351e-05
1.0351e-05
1.0351e-05
1.0351e-05
1.0351e-05
1.0351e-05
1.0351e-05
1.0351e-05
1.0351e-05
1.0351e-05
1.0351e-05
1.0351e-05
1.0351e-05
1.0351e-05
1.0351e-05
1.0351e-05
1.0351e-05
1.0351e-05
1.0351e-05
1.0351e-05
1.0351e-05
1.0351e-05
1.0351e-05
1.0351e-05
1.0351e-05
1.0351e-05
1.0351e-05
1.0351e-05
1.0351e-05
1.0351e-05
1.0351e-05
1.0351e-05
1.0351e-05
1.0351e-05
1.0351e-05
1.0351e-05
1.0351e-05
1.0351e-05
1.0351e-05
1.0351e-05
1.0351e-05
1.0351e-05
1.0351e-05
1.0351e-05
1.0351e-05
1.0351e-05
1.0351e-05
1.0351e-05
1.0351e-05
1.0351e-05
1.0351e-05
1.0351e-05
1.0351e-05
1.0351e-05
1.0351e-05
1.0351e-05
1.0351e-05
1.0351e-05
1.0351e-05
1.0351e-05
1.0351e-05
1.0351e-05
1.0351e-05
1.0351e-05
1.0351e-05
1.0351e-05
1.0351e-05
1.0351e-05
1.0351e-05
1.0351e-05
1.0351e-05
1.0351e-05
1.0351e-05
1.0351e-05
1.0351e-05
1.0351e-05
1.0351e-05
1.0351e-05
1.0351e-05
1.0351e-05
1.0351e-05
1.0351e-05
1.0351e-05
1.0351e-05
1.0351e-05
1.03511e-05
1.03511e-05
1.03511e-05
1.0351e-05
1.0351e-05
1.0351e-05
1.0351e-05
1.0351e-05
1.0351e-05
1.0351e-05
1.0351e-05
1.0351e-05
1.0351e-05
1.0351e-05
1.0351e-05
1.0351e-05
1.0351e-05
1.0351e-05
1.0351e-05
1.0351e-05
1.0351e-05
1.0351e-05
1.0351e-05
1.0351e-05
1.0351e-05
1.0351e-05
1.0351e-05
1.0351e-05
1.0351e-05
1.0351e-05
1.0351e-05
1.0351e-05
1.0351e-05
1.0351e-05
1.03511e-05
1.03511e-05
1.03511e-05
1.03511e-05
1.03512e-05
1.03512e-05
1.03513e-05
1.0351e-05
1.0351e-05
1.0351e-05
1.0351e-05
1.0351e-05
1.0351e-05
1.0351e-05
1.0351e-05
1.0351e-05
1.0351e-05
1.0351e-05
1.0351e-05
1.0351e-05
1.0351e-05
1.0351e-05
1.0351e-05
1.0351e-05
1.0351e-05
1.0351e-05
1.0351e-05
1.0351e-05
1.0351e-05
1.0351e-05
1.0351e-05
1.0351e-05
1.0351e-05
1.0351e-05
1.0351e-05
1.03511e-05
1.03511e-05
1.03511e-05
1.03511e-05
1.03512e-05
1.03512e-05
1.03513e-05
1.03514e-05
1.03515e-05
1.03517e-05
1.0351e-05
1.0351e-05
1.0351e-05
1.0351e-05
1.0351e-05
1.0351e-05
1.0351e-05
1.0351e-05
1.0351e-05
1.0351e-05
1.0351e-05
1.0351e-05
1.0351e-05
1.0351e-05
1.0351e-05
1.0351e-05
1.0351e-05
1.0351e-05
1.0351e-05
1.0351e-05
1.0351e-05
1.0351e-05
1.0351e-05
1.0351e-05
1.0351e-05
1.03511e-05
1.03511e-05
1.03511e-05
1.03511e-05
1.03512e-05
1.03512e-05
1.03513e-05
1.03514e-05
1.03515e-05
1.03517e-05
1.03519e-05
1.03522e-05
1.03526e-05
1.0351e-05
1.0351e-05
1.0351e-05
1.0351e-05
1.0351e-05
1.0351e-05
1.0351e-05
1.0351e-05
1.0351e-05
1.0351e-05
1.0351e-05
1.0351e-05
1.0351e-05
1.0351e-05
1.0351e-05
1.0351e-05
1.0351e-05
1.0351e-05
1.0351e-05
1.0351e-05
1.0351e-05
1.0351e-05
1.03511e-05
1.03511e-05
1.03511e-05
1.03511e-05
1.03512e-05
1.03512e-05
1.03513e-05
1.03514e-05
1.03515e-05
1.03517e-05
1.03519e-05
1.03522e-05
1.03526e-05
1.03531e-05
1.03538e-05
1.03548e-05
1.0351e-05
1.0351e-05
1.0351e-05
1.0351e-05
1.0351e-05
1.0351e-05
1.0351e-05
1.0351e-05
1.0351e-05
1.0351e-05
1.0351e-05
1.0351e-05
1.0351e-05
1.0351e-05
1.0351e-05
1.0351e-05
1.0351e-05
1.0351e-05
1.0351e-05
1.03511e-05
1.03511e-05
1.03511e-05
1.03511e-05
1.03512e-05
1.03512e-05
1.03513e-05
1.03514e-05
1.03515e-05
1.03517e-05
1.03519e-05
1.03522e-05
1.03526e-05
1.03531e-05
1.03538e-05
1.03547e-05
1.03559e-05
1.03575e-05
1.03597e-05
1.0351e-05
1.0351e-05
1.0351e-05
1.0351e-05
1.0351e-05
1.0351e-05
1.0351e-05
1.0351e-05
1.0351e-05
1.0351e-05
1.0351e-05
1.0351e-05
1.0351e-05
1.0351e-05
1.0351e-05
1.0351e-05
1.0351e-05
1.03511e-05
1.03511e-05
1.03511e-05
1.03511e-05
1.03512e-05
1.03512e-05
1.03513e-05
1.03514e-05
1.03515e-05
1.03517e-05
1.03519e-05
1.03522e-05
1.03526e-05
1.03531e-05
1.03538e-05
1.03547e-05
1.03558e-05
1.03574e-05
1.03594e-05
1.03621e-05
1.03657e-05
1.03706e-05
1.0351e-05
1.0351e-05
1.0351e-05
1.0351e-05
1.0351e-05
1.0351e-05
1.0351e-05
1.0351e-05
1.0351e-05
1.0351e-05
1.0351e-05
1.0351e-05
1.0351e-05
1.03511e-05
1.03511e-05
1.03511e-05
1.03511e-05
1.03511e-05
1.03512e-05
1.03512e-05
1.03513e-05
1.03514e-05
1.03515e-05
1.03517e-05
1.03519e-05
1.03522e-05
1.03526e-05
1.03531e-05
1.03538e-05
1.03546e-05
1.03558e-05
1.03573e-05
1.03592e-05
1.03618e-05
1.03653e-05
1.03698e-05
1.03758e-05
1.03838e-05
1.03944e-05
1.0351e-05
1.0351e-05
1.0351e-05
1.0351e-05
1.0351e-05
1.0351e-05
1.0351e-05
1.0351e-05
1.0351e-05
1.0351e-05
1.03511e-05
1.03511e-05
1.03511e-05
1.03511e-05
1.03511e-05
1.03512e-05
1.03512e-05
1.03513e-05
1.03514e-05
1.03515e-05
1.03517e-05
1.03519e-05
1.03522e-05
1.03526e-05
1.03531e-05
1.03537e-05
1.03546e-05
1.03557e-05
1.03572e-05
1.03591e-05
1.03616e-05
1.03649e-05
1.03693e-05
1.0375e-05
1.03826e-05
1.03925e-05
1.04055e-05
1.04228e-05
1.04458e-05
1.0351e-05
1.0351e-05
1.0351e-05
1.0351e-05
1.0351e-05
1.0351e-05
1.0351e-05
1.0351e-05
1.03511e-05
1.03511e-05
1.03511e-05
1.03511e-05
1.03512e-05
1.03512e-05
1.03513e-05
1.03513e-05
1.03514e-05
1.03516e-05
1.03517e-05
1.03519e-05
1.03522e-05
1.03526e-05
1.03531e-05
1.03537e-05
1.03546e-05
1.03556e-05
1.03571e-05
1.03589e-05
1.03614e-05
1.03646e-05
1.03688e-05
1.03744e-05
1.03816e-05
1.03911e-05
1.04035e-05
1.04198e-05
1.0441e-05
1.04689e-05
1.05054e-05
1.05535e-05
1.0351e-05
1.0351e-05
1.0351e-05
1.0351e-05
1.0351e-05
1.03511e-05
1.03511e-05
1.03511e-05
1.03511e-05
1.03512e-05
1.03512e-05
1.03513e-05
1.03513e-05
1.03514e-05
1.03516e-05
1.03517e-05
1.03519e-05
1.03522e-05
1.03526e-05
1.03531e-05
1.03537e-05
1.03545e-05
1.03556e-05
1.0357e-05
1.03588e-05
1.03612e-05
1.03643e-05
1.03684e-05
1.03737e-05
1.03807e-05
1.03898e-05
1.04017e-05
1.04172e-05
1.04374e-05
1.04638e-05
1.0498e-05
1.05425e-05
1.06001e-05
1.06745e-05
1.07709e-05
1.0351e-05
1.0351e-05
1.03511e-05
1.03511e-05
1.03511e-05
1.03511e-05
1.03512e-05
1.03512e-05
1.03513e-05
1.03513e-05
1.03514e-05
1.03516e-05
1.03517e-05
1.0352e-05
1.03522e-05
1.03526e-05
1.03531e-05
1.03537e-05
1.03545e-05
1.03556e-05
1.03569e-05
1.03587e-05
1.0361e-05
1.0364e-05
1.0368e-05
1.03731e-05
1.03798e-05
1.03886e-05
1.04e-05
1.04148e-05
1.04341e-05
1.04592e-05
1.04917e-05
1.05338e-05
1.0588e-05
1.06577e-05
1.07469e-05
1.08603e-05
1.10036e-05
1.11836e-05
1.03511e-05
1.03511e-05
1.03511e-05
1.03512e-05
1.03512e-05
1.03513e-05
1.03514e-05
1.03515e-05
1.03516e-05
1.03518e-05
1.0352e-05
1.03522e-05
1.03526e-05
1.03531e-05
1.03537e-05
1.03545e-05
1.03555e-05
1.03569e-05
1.03586e-05
1.03609e-05
1.03638e-05
1.03676e-05
1.03726e-05
1.0379e-05
1.03874e-05
1.03983e-05
1.04125e-05
1.04309e-05
1.04548e-05
1.04857e-05
1.05256e-05
1.0577e-05
1.06429e-05
1.07271e-05
1.08338e-05
1.0968e-05
1.11354e-05
1.13415e-05
1.15925e-05
1.18931e-05
1.03512e-05
1.03512e-05
1.03513e-05
1.03514e-05
1.03515e-05
1.03516e-05
1.03518e-05
1.0352e-05
1.03523e-05
1.03526e-05
1.03531e-05
1.03537e-05
1.03545e-05
1.03555e-05
1.03568e-05
1.03585e-05
1.03607e-05
1.03636e-05
1.03673e-05
1.03721e-05
1.03783e-05
1.03864e-05
1.03968e-05
1.04104e-05
1.0428e-05
1.04507e-05
1.04801e-05
1.0518e-05
1.05667e-05
1.0629e-05
1.07086e-05
1.08094e-05
1.09362e-05
1.10942e-05
1.12889e-05
1.15252e-05
1.18076e-05
1.21389e-05
1.25195e-05
1.29458e-05
1.03514e-05
1.03515e-05
1.03516e-05
1.03518e-05
1.0352e-05
1.03523e-05
1.03526e-05
1.03531e-05
1.03537e-05
1.03545e-05
1.03555e-05
1.03568e-05
1.03584e-05
1.03606e-05
1.03634e-05
1.03669e-05
1.03716e-05
1.03776e-05
1.03854e-05
1.03954e-05
1.04084e-05
1.04252e-05
1.04469e-05
1.04748e-05
1.05108e-05
1.05569e-05
1.06159e-05
1.06911e-05
1.07863e-05
1.09061e-05
1.10555e-05
1.12398e-05
1.14639e-05
1.17325e-05
1.20483e-05
1.24117e-05
1.28195e-05
1.32643e-05
1.3736e-05
1.42208e-05
1.03518e-05
1.0352e-05
1.03523e-05
1.03527e-05
1.03531e-05
1.03537e-05
1.03545e-05
1.03555e-05
1.03567e-05
1.03584e-05
1.03605e-05
1.03632e-05
1.03667e-05
1.03712e-05
1.0377e-05
1.03845e-05
1.03941e-05
1.04066e-05
1.04226e-05
1.04433e-05
1.04699e-05
1.0504e-05
1.05478e-05
1.06037e-05
1.06747e-05
1.07647e-05
1.08778e-05
1.10189e-05
1.11932e-05
1.14057e-05
1.1661e-05
1.19624e-05
1.23112e-05
1.27052e-05
1.31381e-05
1.35997e-05
1.40758e-05
1.45466e-05
1.49887e-05
1.53841e-05
1.03523e-05
1.03527e-05
1.03531e-05
1.03537e-05
1.03545e-05
1.03555e-05
1.03567e-05
1.03583e-05
1.03604e-05
1.0363e-05
1.03664e-05
1.03708e-05
1.03764e-05
1.03836e-05
1.03929e-05
1.04049e-05
1.04203e-05
1.044e-05
1.04653e-05
1.04978e-05
1.05393e-05
1.05922e-05
1.06594e-05
1.07444e-05
1.08512e-05
1.09845e-05
1.11492e-05
1.13504e-05
1.15928e-05
1.188e-05
1.2214e-05
1.25939e-05
1.3015e-05
1.34679e-05
1.39408e-05
1.44162e-05
1.48717e-05
1.5283e-05
1.56311e-05
1.59072e-05
1.61177e-05
1.03538e-05
1.03545e-05
1.03555e-05
1.03567e-05
1.03583e-05
1.03603e-05
1.03629e-05
1.03662e-05
1.03705e-05
1.03759e-05
1.03829e-05
1.03919e-05
1.04034e-05
1.04181e-05
1.0437e-05
1.04611e-05
1.0492e-05
1.05314e-05
1.05816e-05
1.06452e-05
1.07255e-05
1.08264e-05
1.09522e-05
1.11078e-05
1.12982e-05
1.15281e-05
1.18013e-05
1.21205e-05
1.24857e-05
1.28937e-05
1.33369e-05
1.3804e-05
1.42808e-05
1.47475e-05
1.51802e-05
1.55571e-05
1.58641e-05
1.60988e-05
1.62684e-05
1.63844e-05
1.64623e-05
1.03555e-05
1.03567e-05
1.03583e-05
1.03603e-05
1.03628e-05
1.03661e-05
1.03702e-05
1.03755e-05
1.03823e-05
1.03909e-05
1.0402e-05
1.04161e-05
1.04342e-05
1.04573e-05
1.04867e-05
1.05241e-05
1.05717e-05
1.0632e-05
1.07079e-05
1.08033e-05
1.09221e-05
1.10691e-05
1.12491e-05
1.14669e-05
1.17266e-05
1.2031e-05
1.23813e-05
1.27753e-05
1.32073e-05
1.36669e-05
1.41416e-05
1.46148e-05
1.50646e-05
1.54677e-05
1.58061e-05
1.60724e-05
1.62696e-05
1.6408e-05
1.65001e-05
1.65584e-05
1.65927e-05
1.66127e-05
1.03583e-05
1.03603e-05
1.03628e-05
1.0366e-05
1.037e-05
1.03751e-05
1.03817e-05
1.03901e-05
1.04008e-05
1.04144e-05
1.04317e-05
1.04538e-05
1.04818e-05
1.05175e-05
1.05627e-05
1.06198e-05
1.06917e-05
1.07819e-05
1.08942e-05
1.1033e-05
1.12032e-05
1.14095e-05
1.1656e-05
1.1946e-05
1.22811e-05
1.26605e-05
1.30799e-05
1.35306e-05
1.40006e-05
1.44761e-05
1.4938e-05
1.53634e-05
1.57316e-05
1.60301e-05
1.62573e-05
1.64208e-05
1.65325e-05
1.66051e-05
1.66495e-05
1.66745e-05
1.66876e-05
1.66921e-05
1.6691e-05
1.03659e-05
1.03698e-05
1.03749e-05
1.03813e-05
1.03894e-05
1.03997e-05
1.04128e-05
1.04295e-05
1.04506e-05
1.04774e-05
1.05114e-05
1.05544e-05
1.06086e-05
1.06768e-05
1.07621e-05
1.08683e-05
1.09996e-05
1.11605e-05
1.13557e-05
1.15895e-05
1.18655e-05
1.21856e-05
1.25501e-05
1.29557e-05
1.33959e-05
1.38597e-05
1.4334e-05
1.4803e-05
1.52462e-05
1.5641e-05
1.5971e-05
1.62298e-05
1.64211e-05
1.65553e-05
1.66446e-05
1.6701e-05
1.67345e-05
1.67529e-05
1.67611e-05
1.67616e-05
1.67593e-05
1.67545e-05
1.67472e-05
1.03747e-05
1.03809e-05
1.03888e-05
1.03988e-05
1.04114e-05
1.04275e-05
1.04478e-05
1.04735e-05
1.0506e-05
1.05469e-05
1.05985e-05
1.06631e-05
1.0744e-05
1.08445e-05
1.09686e-05
1.11208e-05
1.13056e-05
1.15273e-05
1.17897e-05
1.20952e-05
1.24445e-05
1.28358e-05
1.32639e-05
1.37197e-05
1.41905e-05
1.46625e-05
1.5118e-05
1.55357e-05
1.58955e-05
1.61863e-05
1.64074e-05
1.65664e-05
1.66752e-05
1.6746e-05
1.67896e-05
1.68144e-05
1.68274e-05
1.6832e-05
1.6831e-05
1.6827e-05
1.68214e-05
1.68147e-05
1.68055e-05
1.6797e-05
1.03883e-05
1.0398e-05
1.04103e-05
1.04258e-05
1.04453e-05
1.047e-05
1.05011e-05
1.05402e-05
1.05893e-05
1.06507e-05
1.07274e-05
1.08227e-05
1.09402e-05
1.10843e-05
1.12592e-05
1.14694e-05
1.17187e-05
1.20098e-05
1.23442e-05
1.27208e-05
1.31358e-05
1.35817e-05
1.40473e-05
1.45189e-05
1.49822e-05
1.54177e-05
1.58043e-05
1.61265e-05
1.63787e-05
1.65652e-05
1.66961e-05
1.67835e-05
1.6839e-05
1.68721e-05
1.68907e-05
1.68993e-05
1.69004e-05
1.68986e-05
1.68942e-05
1.68871e-05
1.68802e-05
1.68737e-05
1.68645e-05
1.68548e-05
1.68463e-05
1.04093e-05
1.04243e-05
1.04432e-05
1.04669e-05
1.04967e-05
1.05341e-05
1.0581e-05
1.06395e-05
1.07124e-05
1.08028e-05
1.09142e-05
1.10507e-05
1.12164e-05
1.14157e-05
1.16525e-05
1.19298e-05
1.22494e-05
1.26111e-05
1.30122e-05
1.34468e-05
1.39052e-05
1.43748e-05
1.48415e-05
1.52895e-05
1.56988e-05
1.60504e-05
1.63343e-05
1.65501e-05
1.67055e-05
1.68121e-05
1.68818e-05
1.69251e-05
1.695e-05
1.69633e-05
1.69686e-05
1.69681e-05
1.69648e-05
1.69596e-05
1.69542e-05
1.69454e-05
1.69372e-05
1.69304e-05
1.69231e-05
1.69141e-05
1.69051e-05
1.68972e-05
1.04231e-05
1.04414e-05
1.04643e-05
1.04929e-05
1.05288e-05
1.05736e-05
1.06295e-05
1.06989e-05
1.07848e-05
1.08906e-05
1.102e-05
1.11771e-05
1.13662e-05
1.15911e-05
1.18551e-05
1.21603e-05
1.25073e-05
1.28941e-05
1.33162e-05
1.37655e-05
1.42308e-05
1.46984e-05
1.51543e-05
1.5581e-05
1.59592e-05
1.62739e-05
1.65203e-05
1.67027e-05
1.68311e-05
1.69173e-05
1.69723e-05
1.70056e-05
1.70244e-05
1.70337e-05
1.70356e-05
1.70343e-05
1.70305e-05
1.70243e-05
1.70178e-05
1.70122e-05
1.70044e-05
1.69949e-05
1.69869e-05
1.69805e-05
1.69732e-05
1.6965e-05
1.69571e-05
1.695e-05
1.04897e-05
1.05242e-05
1.05671e-05
1.06206e-05
1.06868e-05
1.07686e-05
1.08692e-05
1.09921e-05
1.11413e-05
1.13207e-05
1.15344e-05
1.17857e-05
1.20771e-05
1.24095e-05
1.27818e-05
1.31907e-05
1.36295e-05
1.40883e-05
1.45548e-05
1.50148e-05
1.54541e-05
1.58543e-05
1.61979e-05
1.64752e-05
1.66863e-05
1.68388e-05
1.69439e-05
1.70129e-05
1.70562e-05
1.70816e-05
1.70953e-05
1.71014e-05
1.71016e-05
1.70991e-05
1.70945e-05
1.70899e-05
1.70824e-05
1.70745e-05
1.70681e-05
1.70623e-05
1.70542e-05
1.70454e-05
1.70381e-05
1.70319e-05
1.70252e-05
1.70181e-05
1.70114e-05
1.70054e-05
1.05202e-05
1.05615e-05
1.06128e-05
1.06761e-05
1.07542e-05
1.085e-05
1.09669e-05
1.11087e-05
1.12793e-05
1.14825e-05
1.17218e-05
1.19998e-05
1.2318e-05
1.26759e-05
1.3071e-05
1.34981e-05
1.39488e-05
1.44117e-05
1.48738e-05
1.53209e-05
1.57381e-05
1.61074e-05
1.64147e-05
1.66556e-05
1.68345e-05
1.69609e-05
1.70463e-05
1.71013e-05
1.71348e-05
1.71541e-05
1.71642e-05
1.71671e-05
1.71662e-05
1.71632e-05
1.71581e-05
1.7152e-05
1.71466e-05
1.71409e-05
1.71321e-05
1.71243e-05
1.71185e-05
1.71128e-05
1.71054e-05
1.70977e-05
1.70912e-05
1.70854e-05
1.70796e-05
1.70738e-05
1.70683e-05
1.70635e-05
1.06668e-05
1.07415e-05
1.08329e-05
1.09444e-05
1.10794e-05
1.12418e-05
1.14351e-05
1.1663e-05
1.19284e-05
1.22328e-05
1.25766e-05
1.29578e-05
1.33724e-05
1.38133e-05
1.42707e-05
1.47323e-05
1.51845e-05
1.56137e-05
1.6004e-05
1.63393e-05
1.66102e-05
1.6817e-05
1.69671e-05
1.7071e-05
1.71397e-05
1.71832e-05
1.72093e-05
1.72236e-05
1.72303e-05
1.72315e-05
1.72298e-05
1.72258e-05
1.72214e-05
1.72161e-05
1.72083e-05
1.72024e-05
1.71974e-05
1.71909e-05
1.71825e-05
1.71754e-05
1.71704e-05
1.71649e-05
1.71585e-05
1.71521e-05
1.71464e-05
1.71414e-05
1.71366e-05
1.7132e-05
1.71278e-05
1.71244e-05
1.09244e-05
1.10533e-05
1.1208e-05
1.13923e-05
1.16095e-05
1.18628e-05
1.21541e-05
1.2484e-05
1.28514e-05
1.3253e-05
1.3683e-05
1.4133e-05
1.45918e-05
1.50467e-05
1.54841e-05
1.58906e-05
1.62503e-05
1.65502e-05
1.67858e-05
1.69614e-05
1.70861e-05
1.71709e-05
1.72261e-05
1.72602e-05
1.72801e-05
1.72909e-05
1.72949e-05
1.72945e-05
1.72923e-05
1.72882e-05
1.72828e-05
1.72774e-05
1.72733e-05
1.72661e-05
1.72582e-05
1.72528e-05
1.72484e-05
1.72421e-05
1.72345e-05
1.72284e-05
1.7224e-05
1.72191e-05
1.72137e-05
1.72085e-05
1.72038e-05
1.71998e-05
1.71961e-05
1.71929e-05
1.71901e-05
1.71883e-05
1.13537e-05
1.15611e-05
1.18031e-05
1.20818e-05
1.23983e-05
1.2752e-05
1.31404e-05
1.35588e-05
1.39999e-05
1.44539e-05
1.49089e-05
1.53521e-05
1.57702e-05
1.61497e-05
1.64763e-05
1.67406e-05
1.69432e-05
1.70908e-05
1.71937e-05
1.72624e-05
1.73063e-05
1.7333e-05
1.73481e-05
1.73556e-05
1.73578e-05
1.73567e-05
1.73535e-05
1.73493e-05
1.73455e-05
1.7339e-05
1.73331e-05
1.73281e-05
1.73239e-05
1.73163e-05
1.73091e-05
1.73044e-05
1.73006e-05
1.72949e-05
1.72885e-05
1.72834e-05
1.72794e-05
1.72753e-05
1.7271e-05
1.7267e-05
1.72635e-05
1.72606e-05
1.72582e-05
1.72564e-05
1.72553e-05
1.72551e-05
1.20158e-05
1.23195e-05
1.26599e-05
1.30351e-05
1.34414e-05
1.38725e-05
1.43199e-05
1.47727e-05
1.5219e-05
1.56457e-05
1.60405e-05
1.63897e-05
1.66817e-05
1.69118e-05
1.70841e-05
1.72073e-05
1.72916e-05
1.7347e-05
1.73817e-05
1.74024e-05
1.74138e-05
1.7419e-05
1.74193e-05
1.74177e-05
1.74143e-05
1.741e-05
1.74049e-05
1.74008e-05
1.73964e-05
1.73888e-05
1.73836e-05
1.73794e-05
1.7375e-05
1.73678e-05
1.73616e-05
1.73578e-05
1.73543e-05
1.73494e-05
1.73443e-05
1.73401e-05
1.73367e-05
1.73335e-05
1.73304e-05
1.73277e-05
1.73255e-05
1.73239e-05
1.7323e-05
1.73228e-05
1.73234e-05
1.7325e-05
1.29374e-05
1.33313e-05
1.37516e-05
1.4191e-05
1.46397e-05
1.50866e-05
1.55194e-05
1.59255e-05
1.62932e-05
1.661e-05
1.68675e-05
1.70655e-05
1.72107e-05
1.73127e-05
1.73813e-05
1.74257e-05
1.74531e-05
1.7469e-05
1.74773e-05
1.74803e-05
1.74799e-05
1.74777e-05
1.74738e-05
1.74702e-05
1.7466e-05
1.746e-05
1.74553e-05
1.74519e-05
1.74466e-05
1.74393e-05
1.74349e-05
1.74316e-05
1.74273e-05
1.74209e-05
1.74157e-05
1.74128e-05
1.74096e-05
1.74056e-05
1.74017e-05
1.73984e-05
1.73959e-05
1.73937e-05
1.73919e-05
1.73905e-05
1.73897e-05
1.73897e-05
1.73903e-05
1.73919e-05
1.73944e-05
1.7398e-05
1.40682e-05
1.45112e-05
1.49564e-05
1.53926e-05
1.58075e-05
1.61894e-05
1.65272e-05
1.68106e-05
1.70348e-05
1.72035e-05
1.73249e-05
1.74087e-05
1.74642e-05
1.74996e-05
1.7521e-05
1.75331e-05
1.75391e-05
1.75405e-05
1.75393e-05
1.75367e-05
1.75332e-05
1.75289e-05
1.75245e-05
1.75216e-05
1.75159e-05
1.75103e-05
1.75062e-05
1.75034e-05
1.74975e-05
1.7491e-05
1.74875e-05
1.74849e-05
1.74809e-05
1.74755e-05
1.74715e-05
1.7469e-05
1.74663e-05
1.74633e-05
1.74606e-05
1.74584e-05
1.74568e-05
1.74558e-05
1.74553e-05
1.74554e-05
1.74562e-05
1.74579e-05
1.74603e-05
1.74637e-05
1.74681e-05
1.74737e-05
1.52671e-05
1.56881e-05
1.60813e-05
1.64361e-05
1.67421e-05
1.6992e-05
1.71851e-05
1.73275e-05
1.74283e-05
1.74968e-05
1.75415e-05
1.75695e-05
1.75862e-05
1.75953e-05
1.75992e-05
1.75994e-05
1.75979e-05
1.75948e-05
1.75912e-05
1.75881e-05
1.75836e-05
1.75788e-05
1.75748e-05
1.75724e-05
1.7566e-05
1.75613e-05
1.75579e-05
1.75555e-05
1.75495e-05
1.7544e-05
1.75412e-05
1.75392e-05
1.75357e-05
1.75314e-05
1.75284e-05
1.75263e-05
1.75244e-05
1.75225e-05
1.75209e-05
1.75199e-05
1.75195e-05
1.75198e-05
1.75208e-05
1.75226e-05
1.75251e-05
1.75285e-05
1.75328e-05
1.75381e-05
1.75445e-05
1.75523e-05
1.63392e-05
1.66644e-05
1.69379e-05
1.71556e-05
1.73202e-05
1.74395e-05
1.75225e-05
1.75782e-05
1.7614e-05
1.76361e-05
1.76489e-05
1.76556e-05
1.76579e-05
1.76574e-05
1.76553e-05
1.76524e-05
1.7649e-05
1.76449e-05
1.76415e-05
1.76389e-05
1.76332e-05
1.7629e-05
1.76259e-05
1.76232e-05
1.76169e-05
1.76131e-05
1.76105e-05
1.76081e-05
1.76027e-05
1.75981e-05
1.75961e-05
1.75944e-05
1.75915e-05
1.75884e-05
1.75862e-05
1.75848e-05
1.75837e-05
1.7583e-05
1.75827e-05
1.7583e-05
1.7584e-05
1.75858e-05
1.75884e-05
1.75919e-05
1.75962e-05
1.76014e-05
1.76076e-05
1.7615e-05
1.76236e-05
1.76338e-05
1.71153e-05
1.73028e-05
1.74419e-05
1.7541e-05
1.76091e-05
1.7654e-05
1.76826e-05
1.76999e-05
1.77097e-05
1.77145e-05
1.77153e-05
1.77144e-05
1.7712e-05
1.77089e-05
1.77056e-05
1.77028e-05
1.76987e-05
1.76945e-05
1.76918e-05
1.7689e-05
1.76833e-05
1.76799e-05
1.76777e-05
1.76745e-05
1.76685e-05
1.76655e-05
1.76637e-05
1.76614e-05
1.76567e-05
1.76531e-05
1.76518e-05
1.76503e-05
1.76482e-05
1.76462e-05
1.7645e-05
1.76444e-05
1.76444e-05
1.76448e-05
1.76459e-05
1.76477e-05
1.76503e-05
1.76537e-05
1.7658e-05
1.76631e-05
1.76692e-05
1.76764e-05
1.76847e-05
1.76943e-05
1.77053e-05
1.77178e-05
1.75517e-05
1.76336e-05
1.7689e-05
1.77252e-05
1.77478e-05
1.77613e-05
1.77686e-05
1.77717e-05
1.77718e-05
1.77703e-05
1.77677e-05
1.77649e-05
1.77618e-05
1.77581e-05
1.77554e-05
1.7753e-05
1.7748e-05
1.77443e-05
1.77426e-05
1.7739e-05
1.7734e-05
1.77313e-05
1.77297e-05
1.77261e-05
1.77207e-05
1.77184e-05
1.77173e-05
1.77151e-05
1.77114e-05
1.77088e-05
1.77079e-05
1.77068e-05
1.77057e-05
1.77049e-05
1.77047e-05
1.77051e-05
1.77063e-05
1.77081e-05
1.77107e-05
1.7714e-05
1.77182e-05
1.77232e-05
1.77292e-05
1.77362e-05
1.77443e-05
1.77536e-05
1.77642e-05
1.77761e-05
1.77893e-05
1.78041e-05
1.77635e-05
1.77924e-05
1.78103e-05
1.78206e-05
1.7826e-05
1.78277e-05
1.78271e-05
1.78253e-05
1.78228e-05
1.78199e-05
1.78169e-05
1.78144e-05
1.78108e-05
1.78071e-05
1.78053e-05
1.78023e-05
1.77978e-05
1.77947e-05
1.77935e-05
1.77893e-05
1.77851e-05
1.7783e-05
1.77818e-05
1.7778e-05
1.77734e-05
1.77718e-05
1.77711e-05
1.77692e-05
1.77667e-05
1.7765e-05
1.77644e-05
1.77641e-05
1.7764e-05
1.77644e-05
1.77653e-05
1.77671e-05
1.77696e-05
1.77729e-05
1.7777e-05
1.77818e-05
1.77876e-05
1.77944e-05
1.78022e-05
1.78112e-05
1.78215e-05
1.7833e-05
1.78457e-05
1.78598e-05
1.78754e-05
1.78924e-05
1.78703e-05
1.78782e-05
1.78819e-05
1.78825e-05
1.78816e-05
1.78795e-05
1.78769e-05
1.78743e-05
1.78715e-05
1.78683e-05
1.78659e-05
1.78638e-05
1.78596e-05
1.78563e-05
1.78553e-05
1.78514e-05
1.78478e-05
1.78453e-05
1.78443e-05
1.78396e-05
1.78362e-05
1.78346e-05
1.78337e-05
1.78302e-05
1.78265e-05
1.78255e-05
1.7825e-05
1.78237e-05
1.78222e-05
1.78215e-05
1.78215e-05
1.78221e-05
1.78231e-05
1.78248e-05
1.78271e-05
1.78302e-05
1.78341e-05
1.78388e-05
1.78444e-05
1.78509e-05
1.78585e-05
1.78672e-05
1.78771e-05
1.78882e-05
1.79005e-05
1.79141e-05
1.79291e-05
1.79454e-05
1.7963e-05
1.79821e-05
1.79365e-05
1.79363e-05
1.7935e-05
1.79327e-05
1.79303e-05
1.79277e-05
1.7925e-05
1.79227e-05
1.79197e-05
1.79164e-05
1.79149e-05
1.79123e-05
1.79084e-05
1.79058e-05
1.7905e-05
1.79005e-05
1.78977e-05
1.78958e-05
1.78946e-05
1.78899e-05
1.78872e-05
1.78862e-05
1.78854e-05
1.78825e-05
1.78798e-05
1.78793e-05
1.7879e-05
1.78785e-05
1.78781e-05
1.78783e-05
1.78792e-05
1.78809e-05
1.78832e-05
1.78861e-05
1.78899e-05
1.78943e-05
1.78996e-05
1.79059e-05
1.79132e-05
1.79215e-05
1.7931e-05
1.79417e-05
1.79536e-05
1.79667e-05
1.79811e-05
1.79968e-05
1.80139e-05
1.80322e-05
1.80518e-05
1.80728e-05
1.79875e-05
1.79852e-05
1.79828e-05
1.79804e-05
1.79779e-05
1.79751e-05
1.79729e-05
1.79711e-05
1.79675e-05
1.79646e-05
1.79638e-05
1.79602e-05
1.79571e-05
1.79553e-05
1.7954e-05
1.79494e-05
1.79474e-05
1.79461e-05
1.79444e-05
1.79402e-05
1.7938e-05
1.79377e-05
1.79369e-05
1.79348e-05
1.79332e-05
1.7933e-05
1.79332e-05
1.79336e-05
1.79343e-05
1.79356e-05
1.79377e-05
1.79405e-05
1.79441e-05
1.79483e-05
1.79534e-05
1.79593e-05
1.79662e-05
1.79742e-05
1.79833e-05
1.79935e-05
1.80049e-05
1.80176e-05
1.80315e-05
1.80466e-05
1.8063e-05
1.80807e-05
1.80996e-05
1.81198e-05
1.81412e-05
1.81637e-05
1.80368e-05
1.80346e-05
1.80322e-05
1.80298e-05
1.80276e-05
1.80252e-05
1.80221e-05
1.80207e-05
1.80186e-05
1.80151e-05
1.80129e-05
1.8012e-05
1.80079e-05
1.80055e-05
1.80044e-05
1.80023e-05
1.7998e-05
1.79965e-05
1.79958e-05
1.79939e-05
1.79903e-05
1.79888e-05
1.79889e-05
1.79882e-05
1.79871e-05
1.79865e-05
1.79868e-05
1.79877e-05
1.79891e-05
1.7991e-05
1.79935e-05
1.79968e-05
1.80008e-05
1.80056e-05
1.80112e-05
1.80178e-05
1.80253e-05
1.8034e-05
1.80437e-05
1.80547e-05
1.80668e-05
1.80801e-05
1.80947e-05
1.81105e-05
1.81275e-05
1.81458e-05
1.81652e-05
1.81859e-05
1.82076e-05
1.82305e-05
1.82542e-05
1.80832e-05
1.80809e-05
1.80784e-05
1.80763e-05
1.80746e-05
1.80717e-05
1.8069e-05
1.80682e-05
1.80651e-05
1.80622e-05
1.80608e-05
1.80591e-05
1.80552e-05
1.80533e-05
1.80527e-05
1.80499e-05
1.80461e-05
1.8045e-05
1.80447e-05
1.8043e-05
1.80403e-05
1.80395e-05
1.80397e-05
1.80394e-05
1.80393e-05
1.80397e-05
1.80408e-05
1.80427e-05
1.80452e-05
1.80482e-05
1.80519e-05
1.80563e-05
1.80616e-05
1.80678e-05
1.8075e-05
1.80832e-05
1.80925e-05
1.81029e-05
1.81144e-05
1.81272e-05
1.81411e-05
1.81563e-05
1.81727e-05
1.81903e-05
1.8209e-05
1.82289e-05
1.82499e-05
1.8272e-05
1.8295e-05
1.83189e-05
1.83436e-05
1.8131e-05
1.81289e-05
1.81268e-05
1.81241e-05
1.81225e-05
1.81209e-05
1.81177e-05
1.81155e-05
1.81147e-05
1.8111e-05
1.81087e-05
1.8108e-05
1.81052e-05
1.81018e-05
1.81005e-05
1.81e-05
1.80969e-05
1.80937e-05
1.80932e-05
1.8093e-05
1.80917e-05
1.809e-05
1.80898e-05
1.80902e-05
1.80908e-05
1.80917e-05
1.80931e-05
1.80953e-05
1.80981e-05
1.81015e-05
1.81057e-05
1.81106e-05
1.81164e-05
1.81232e-05
1.81309e-05
1.81397e-05
1.81496e-05
1.81606e-05
1.81727e-05
1.8186e-05
1.82005e-05
1.82162e-05
1.82331e-05
1.82511e-05
1.82703e-05
1.82906e-05
1.83119e-05
1.83341e-05
1.83573e-05
1.83812e-05
1.84059e-05
1.8431e-05
1.81759e-05
1.81743e-05
1.81719e-05
1.81692e-05
1.81682e-05
1.81659e-05
1.81629e-05
1.81616e-05
1.81599e-05
1.81564e-05
1.81545e-05
1.8154e-05
1.81505e-05
1.81477e-05
1.81467e-05
1.81463e-05
1.81435e-05
1.8141e-05
1.8141e-05
1.81408e-05
1.814e-05
1.81395e-05
1.81398e-05
1.81408e-05
1.81423e-05
1.81442e-05
1.81467e-05
1.81498e-05
1.81536e-05
1.81582e-05
1.81636e-05
1.817e-05
1.81772e-05
1.81855e-05
1.81948e-05
1.82052e-05
1.82168e-05
1.82294e-05
1.82433e-05
1.82583e-05
1.82744e-05
1.82917e-05
1.83102e-05
1.83297e-05
1.83502e-05
1.83717e-05
1.83941e-05
1.84172e-05
1.84411e-05
1.84656e-05
1.84906e-05
1.85157e-05
1.82203e-05
1.82189e-05
1.82161e-05
1.82138e-05
1.8213e-05
1.82097e-05
1.82073e-05
1.82067e-05
1.82037e-05
1.82009e-05
1.81994e-05
1.81988e-05
1.8195e-05
1.81928e-05
1.81923e-05
1.81917e-05
1.81896e-05
1.81879e-05
1.81881e-05
1.81882e-05
1.81882e-05
1.81887e-05
1.81898e-05
1.81916e-05
1.81939e-05
1.81968e-05
1.82002e-05
1.82044e-05
1.82095e-05
1.82154e-05
1.82222e-05
1.823e-05
1.82387e-05
1.82486e-05
1.82595e-05
1.82715e-05
1.82846e-05
1.82989e-05
1.83143e-05
1.83309e-05
1.83485e-05
1.83673e-05
1.8387e-05
1.84077e-05
1.84293e-05
1.84517e-05
1.84749e-05
1.84986e-05
1.85228e-05
1.85474e-05
1.85723e-05
1.8597e-05
1.8264e-05
1.82623e-05
1.82593e-05
1.82577e-05
1.82562e-05
1.82529e-05
1.82509e-05
1.82504e-05
1.82465e-05
1.82444e-05
1.82434e-05
1.82424e-05
1.8239e-05
1.82372e-05
1.82372e-05
1.82365e-05
1.82351e-05
1.82344e-05
1.82348e-05
1.82355e-05
1.82365e-05
1.82379e-05
1.82398e-05
1.82423e-05
1.82455e-05
1.82494e-05
1.82541e-05
1.82595e-05
1.82658e-05
1.82731e-05
1.82813e-05
1.82906e-05
1.83009e-05
1.83122e-05
1.83247e-05
1.83382e-05
1.83529e-05
1.83687e-05
1.83855e-05
1.84035e-05
1.84224e-05
1.84423e-05
1.84631e-05
1.84847e-05
1.85071e-05
1.85301e-05
1.85536e-05
1.85775e-05
1.86017e-05
1.8626e-05
1.86503e-05
1.86741e-05
1.83069e-05
1.83041e-05
1.83016e-05
1.83007e-05
1.82978e-05
1.82951e-05
1.82936e-05
1.82925e-05
1.82886e-05
1.82869e-05
1.82864e-05
1.82851e-05
1.82823e-05
1.82812e-05
1.82814e-05
1.82809e-05
1.82804e-05
1.82805e-05
1.82814e-05
1.82828e-05
1.82846e-05
1.82868e-05
1.82896e-05
1.82931e-05
1.82974e-05
1.83024e-05
1.83083e-05
1.8315e-05
1.83227e-05
1.83314e-05
1.8341e-05
1.83517e-05
1.83635e-05
1.83763e-05
1.83902e-05
1.84052e-05
1.84213e-05
1.84384e-05
1.84565e-05
1.84756e-05
1.84956e-05
1.85164e-05
1.8538e-05
1.85602e-05
1.8583e-05
1.86062e-05
1.86297e-05
1.86534e-05
1.86772e-05
1.87007e-05
1.87241e-05
1.87466e-05
1.83483e-05
1.83449e-05
1.83429e-05
1.83421e-05
1.83383e-05
1.83363e-05
1.83353e-05
1.83335e-05
1.833e-05
1.83287e-05
1.83285e-05
1.83272e-05
1.83253e-05
1.83247e-05
1.8325e-05
1.83252e-05
1.83256e-05
1.83265e-05
1.83279e-05
1.833e-05
1.83325e-05
1.83357e-05
1.83395e-05
1.83441e-05
1.83496e-05
1.83558e-05
1.8363e-05
1.8371e-05
1.83801e-05
1.83901e-05
1.84012e-05
1.84133e-05
1.84264e-05
1.84406e-05
1.84559e-05
1.84722e-05
1.84894e-05
1.85077e-05
1.85268e-05
1.85468e-05
1.85676e-05
1.8589e-05
1.86111e-05
1.86336e-05
1.86564e-05
1.86795e-05
1.87026e-05
1.87257e-05
1.87486e-05
1.8771e-05
1.8793e-05
1.88139e-05
1.8388e-05
1.83851e-05
1.83834e-05
1.83821e-05
1.83781e-05
1.83766e-05
1.8376e-05
1.83739e-05
1.83709e-05
1.83701e-05
1.83699e-05
1.8369e-05
1.83679e-05
1.83678e-05
1.83685e-05
1.83693e-05
1.83704e-05
1.8372e-05
1.83743e-05
1.83771e-05
1.83806e-05
1.83848e-05
1.83898e-05
1.83955e-05
1.84021e-05
1.84096e-05
1.8418e-05
1.84274e-05
1.84378e-05
1.84492e-05
1.84616e-05
1.8475e-05
1.84894e-05
1.85049e-05
1.85213e-05
1.85387e-05
1.8557e-05
1.85761e-05
1.85961e-05
1.86167e-05
1.86379e-05
1.86597e-05
1.86818e-05
1.87042e-05
1.87268e-05
1.87493e-05
1.87717e-05
1.87938e-05
1.88154e-05
1.88364e-05
1.88566e-05
1.88754e-05
1.84244e-05
1.84233e-05
1.8421e-05
1.84175e-05
1.84162e-05
1.84158e-05
1.84138e-05
1.84115e-05
1.84111e-05
1.8411e-05
1.84106e-05
1.84104e-05
1.84109e-05
1.84119e-05
1.84133e-05
1.84152e-05
1.84176e-05
1.84207e-05
1.84245e-05
1.8429e-05
1.84343e-05
1.84404e-05
1.84473e-05
1.84551e-05
1.84638e-05
1.84735e-05
1.84841e-05
1.84958e-05
1.85084e-05
1.8522e-05
1.85366e-05
1.85522e-05
1.85687e-05
1.85862e-05
1.86045e-05
1.86235e-05
1.86433e-05
1.86637e-05
1.86847e-05
1.87061e-05
1.87279e-05
1.87498e-05
1.87718e-05
1.87937e-05
1.88153e-05
1.88366e-05
1.88573e-05
1.88774e-05
1.88965e-05
1.89145e-05
1.8931e-05
1.84633e-05
1.84625e-05
1.84598e-05
1.84567e-05
1.84559e-05
1.84553e-05
1.84537e-05
1.84522e-05
1.8452e-05
1.84522e-05
1.84524e-05
1.84528e-05
1.84538e-05
1.84554e-05
1.84576e-05
1.84603e-05
1.84636e-05
1.84676e-05
1.84724e-05
1.84779e-05
1.84842e-05
1.84914e-05
1.84995e-05
1.85085e-05
1.85184e-05
1.85292e-05
1.85411e-05
1.85539e-05
1.85676e-05
1.85823e-05
1.8598e-05
1.86145e-05
1.86319e-05
1.86501e-05
1.86691e-05
1.86887e-05
1.87088e-05
1.87295e-05
1.87505e-05
1.87717e-05
1.87931e-05
1.88145e-05
1.88357e-05
1.88566e-05
1.8877e-05
1.88968e-05
1.89159e-05
1.89339e-05
1.89509e-05
1.89666e-05
1.89804e-05
1.85024e-05
1.85017e-05
1.84991e-05
1.84965e-05
1.84959e-05
1.84952e-05
1.84941e-05
1.84933e-05
1.84934e-05
1.84938e-05