/*--------------------------------*- C++ -*----------------------------------*\
| =========                 |                                                 |
| \\      /  F ield         | OpenFOAM: The Open Source CFD Toolbox           |
|  \\    /   O peration     | Version:  v1706                                 |
|   \\  /    A nd           | Web:      www.OpenFOAM.com                      |
|    \\/     M anipulation  |                                                 |
\*---------------------------------------------------------------------------*/
FoamFile
{
    version     2.0;
    format      ascii;
    class       volScalarField;
    location    "1.2e-05";
    object      Tt;
}
// * * * * * * * * * * * * * * * * * * * * * * * * * * * * * * * * * * * * * //

dimensions      [0 0 0 1 0 0 0];


internalField   nonuniform List<scalar> 
30038
(
144.4
144.4
144.4
144.4
144.4
144.4
144.4
144.4
144.4
144.4
144.4
144.4
144.4
144.4
144.4
144.4
144.4
144.4
144.4
144.4
144.4
144.4
144.4
144.4
144.4
144.4
144.4
144.4
144.4
144.4
144.4
144.4
144.4
144.4
144.4
144.4
144.4
144.4
144.4
144.4
144.4
144.4
144.4
144.4
144.4
144.4
144.4
144.4
144.4
144.4
144.4
144.4
144.4
144.4
144.4
144.4
144.4
144.4
144.4
144.4
144.4
144.4
144.4
144.4
144.4
144.4
144.4
144.4
144.4
144.4
144.4
144.4
144.4
144.4
144.401
144.401
144.4
144.4
144.4
144.4
144.4
144.4
144.4
144.4
144.4
144.4
144.4
144.4
144.4
144.4
144.4
144.4
144.4
144.4
144.4
144.4
144.4
144.4
144.4
144.4
144.4
144.4
144.4
144.4
144.4
144.4
144.4
144.4
144.4
144.401
144.401
144.401
144.402
144.402
144.4
144.4
144.4
144.4
144.4
144.4
144.4
144.4
144.4
144.4
144.4
144.4
144.4
144.4
144.4
144.4
144.4
144.4
144.4
144.4
144.4
144.4
144.4
144.4
144.4
144.4
144.4
144.4
144.4
144.401
144.401
144.401
144.401
144.402
144.402
144.403
144.404
144.405
144.4
144.4
144.4
144.4
144.4
144.4
144.4
144.4
144.4
144.4
144.4
144.4
144.4
144.4
144.4
144.4
144.4
144.4
144.4
144.4
144.4
144.4
144.4
144.4
144.4
144.4
144.401
144.401
144.401
144.401
144.402
144.402
144.403
144.404
144.405
144.407
144.41
144.413
144.4
144.4
144.4
144.4
144.4
144.4
144.4
144.4
144.4
144.4
144.4
144.4
144.4
144.4
144.4
144.4
144.4
144.4
144.4
144.4
144.4
144.4
144.4
144.401
144.401
144.401
144.401
144.402
144.402
144.403
144.404
144.406
144.407
144.41
144.413
144.417
144.423
144.431
144.4
144.4
144.4
144.4
144.4
144.4
144.4
144.4
144.4
144.4
144.4
144.4
144.4
144.4
144.4
144.4
144.4
144.4
144.4
144.4
144.401
144.401
144.401
144.401
144.402
144.402
144.403
144.404
144.406
144.407
144.41
144.413
144.417
144.423
144.43
144.44
144.453
144.472
144.4
144.4
144.4
144.4
144.4
144.4
144.4
144.4
144.4
144.4
144.4
144.4
144.4
144.4
144.4
144.4
144.4
144.401
144.401
144.401
144.401
144.402
144.403
144.403
144.404
144.406
144.408
144.41
144.413
144.417
144.423
144.43
144.44
144.453
144.47
144.492
144.522
144.563
144.4
144.4
144.4
144.4
144.4
144.4
144.4
144.4
144.4
144.4
144.4
144.4
144.4
144.4
144.401
144.401
144.401
144.401
144.402
144.402
144.403
144.403
144.404
144.406
144.408
144.41
144.413
144.417
144.423
144.43
144.44
144.452
144.469
144.491
144.519
144.558
144.608
144.676
144.768
144.4
144.4
144.4
144.4
144.4
144.4
144.4
144.4
144.4
144.4
144.4
144.401
144.401
144.401
144.401
144.402
144.402
144.403
144.403
144.405
144.406
144.408
144.41
144.413
144.417
144.423
144.43
144.439
144.452
144.468
144.489
144.517
144.555
144.603
144.668
144.753
144.865
145.015
145.216
144.4
144.4
144.4
144.4
144.4
144.4
144.4
144.4
144.401
144.401
144.401
144.401
144.402
144.402
144.403
144.404
144.405
144.406
144.408
144.41
144.413
144.417
144.423
144.43
144.439
144.451
144.467
144.488
144.516
144.552
144.599
144.661
144.743
144.851
144.993
145.179
145.424
145.749
146.182
144.4
144.4
144.4
144.4
144.4
144.4
144.401
144.401
144.401
144.401
144.402
144.402
144.403
144.404
144.405
144.406
144.408
144.41
144.413
144.418
144.423
144.43
144.439
144.451
144.467
144.487
144.514
144.549
144.595
144.655
144.735
144.838
144.974
145.153
145.386
145.692
146.092
146.617
147.305
148.214
144.4
144.4
144.4
144.401
144.401
144.401
144.401
144.402
144.402
144.403
144.404
144.405
144.406
144.408
144.411
144.414
144.418
144.423
144.43
144.439
144.451
144.466
144.486
144.512
144.547
144.591
144.65
144.726
144.826
144.957
145.128
145.352
145.643
146.024
146.52
147.166
148.005
149.094
150.506
152.338
144.401
144.401
144.401
144.401
144.402
144.402
144.403
144.404
144.405
144.406
144.408
144.411
144.414
144.418
144.423
144.43
144.439
144.451
144.466
144.485
144.511
144.544
144.588
144.645
144.719
144.815
144.941
145.105
145.319
145.598
145.961
146.433
147.046
147.84
148.866
150.187
151.881
154.042
156.787
160.251
144.401
144.402
144.402
144.403
144.404
144.405
144.407
144.408
144.411
144.414
144.418
144.423
144.43
144.439
144.451
144.465
144.485
144.51
144.542
144.585
144.64
144.711
144.805
144.926
145.084
145.289
145.555
145.902
146.351
146.933
147.686
148.657
149.906
151.503
153.535
156.103
159.319
163.307
168.196
174.105
144.403
144.404
144.405
144.407
144.409
144.411
144.414
144.418
144.424
144.43
144.439
144.451
144.465
144.484
144.509
144.541
144.582
144.636
144.705
144.795
144.912
145.063
145.26
145.515
145.846
146.274
146.827
147.541
148.461
149.641
151.15
153.068
155.491
158.525
162.283
166.879
172.416
178.972
186.586
195.216
144.407
144.409
144.411
144.415
144.419
144.424
144.431
144.439
144.451
144.465
144.484
144.508
144.539
144.58
144.632
144.699
144.786
144.899
145.045
145.234
145.478
145.793
146.201
146.727
147.405
148.276
149.392
150.818
152.629
154.915
157.779
161.331
165.682
170.935
177.169
184.418
192.642
201.726
211.481
221.638
144.415
144.419
144.424
144.431
144.44
144.451
144.465
144.484
144.508
144.538
144.578
144.628
144.694
144.778
144.887
145.028
145.209
145.443
145.745
146.134
146.634
147.278
148.103
149.159
150.506
152.216
154.372
157.075
160.429
164.546
169.529
175.464
182.4
190.324
199.133
208.645
218.581
228.532
237.99
246.542
144.425
144.432
144.44
144.451
144.466
144.484
144.507
144.537
144.576
144.626
144.689
144.771
144.877
145.012
145.187
145.411
145.7
146.071
146.548
147.159
147.942
148.942
150.215
151.829
153.864
156.413
159.579
163.471
168.192
173.833
180.456
188.072
196.611
205.911
215.743
225.756
235.467
244.337
251.921
257.982
262.633
144.452
144.466
144.484
144.507
144.537
144.575
144.623
144.685
144.765
144.867
144.998
145.167
145.382
145.659
146.014
146.469
147.05
147.793
148.74
149.944
151.469
153.389
155.793
158.781
162.456
166.925
172.28
178.592
185.89
194.137
203.204
212.882
222.885
232.801
242.104
250.291
257.022
262.203
265.968
268.554
270.295
144.485
144.508
144.537
144.574
144.622
144.682
144.76
144.859
144.986
145.149
145.356
145.622
145.962
146.396
146.95
147.656
148.554
149.694
151.134
152.947
155.216
158.034
161.505
165.731
170.808
176.813
183.791
191.729
200.534
210.022
219.946
229.962
239.599
248.331
255.735
261.607
265.983
269.067
271.126
272.433
273.204
273.654
144.537
144.574
144.621
144.68
144.756
144.853
144.976
145.133
145.333
145.589
145.915
146.33
146.858
147.53
148.383
149.463
150.826
152.539
154.68
157.34
160.616
164.611
169.42
175.127
181.785
189.403
197.921
207.191
216.979
227.005
236.866
246.055
254.089
260.659
265.697
269.34
271.838
273.467
274.465
275.028
275.325
275.427
275.406
144.679
144.753
144.847
144.967
145.119
145.313
145.559
145.872
146.27
146.775
147.415
148.226
149.251
150.542
152.162
154.185
156.696
159.79
163.564
168.118
173.535
179.878
187.172
195.385
204.403
214.026
223.988
233.964
243.503
252.094
259.344
265.073
269.333
272.333
274.339
275.607
276.362
276.78
276.966
276.98
276.929
276.823
276.661
144.843
144.96
145.108
145.296
145.534
145.835
146.217
146.7
147.312
148.084
149.058
150.282
151.817
153.73
156.103
159.025
162.592
166.901
172.039
178.075
185.047
192.943
201.683
211.102
220.955
230.956
240.726
249.785
257.669
264.096
269.015
272.571
275.011
276.605
277.589
278.15
278.445
278.553
278.53
278.442
278.317
278.169
277.963
277.774
145.099
145.281
145.512
145.803
146.17
146.634
147.219
147.956
148.883
150.047
151.501
153.313
155.557
158.319
161.692
165.77
170.642
176.381
183.034
190.608
199.05
208.231
217.939
227.895
237.794
247.207
255.653
262.757
268.362
272.529
275.466
277.436
278.688
279.438
279.859
280.055
280.083
280.043
279.947
279.788
279.633
279.487
279.283
279.067
278.877
145.494
145.775
146.13
146.576
147.137
147.842
148.727
149.834
151.215
152.933
155.059
157.673
160.863
164.723
169.341
174.795
181.138
188.39
196.522
205.437
214.958
224.833
234.767
244.417
253.33
261.065
267.36
272.178
275.666
278.066
279.64
280.619
281.186
281.488
281.61
281.6
281.527
281.411
281.291
281.096
280.911
280.758
280.596
280.394
280.192
280.015
145.753
146.096
146.526
147.065
147.741
148.587
149.643
150.958
152.59
154.606
157.082
160.104
163.76
168.138
173.318
179.361
186.296
194.113
202.741
212.039
221.786
231.702
241.485
250.747
259.041
266.005
271.498
275.588
278.479
280.426
281.673
282.428
282.856
283.068
283.114
283.086
283.002
282.863
282.718
282.591
282.418
282.206
282.024
281.882
281.719
281.535
281.357
281.199
147.004
147.654
148.464
149.474
150.728
152.281
154.197
156.547
159.412
162.877
167.03
171.951
177.705
184.331
191.831
200.161
209.207
218.783
228.638
238.473
247.973
256.722
264.307
270.478
275.207
278.64
281.013
282.577
283.56
284.139
284.451
284.592
284.598
284.543
284.44
284.336
284.169
283.992
283.847
283.718
283.538
283.339
283.173
283.036
282.886
282.727
282.575
282.44
147.579
148.358
149.326
150.525
152.006
153.83
156.064
158.784
162.074
166.016
170.692
176.17
182.496
189.685
197.709
206.482
215.852
225.597
235.439
245.075
254.164
262.292
269.116
274.505
278.528
281.383
283.318
284.568
285.332
285.772
286.003
286.071
286.053
285.985
285.873
285.735
285.613
285.487
285.289
285.111
284.981
284.853
284.688
284.515
284.367
284.238
284.108
283.976
283.852
283.744
150.347
151.764
153.504
155.632
158.22
161.346
165.093
169.539
174.756
180.794
187.679
195.396
203.884
213.019
222.609
232.406
242.116
251.436
259.999
267.427
273.475
278.121
281.509
283.863
285.425
286.416
287.01
287.338
287.494
287.524
287.485
287.395
287.297
287.18
287.004
286.87
286.757
286.612
286.422
286.261
286.149
286.026
285.881
285.737
285.609
285.496
285.388
285.285
285.191
285.114
155.249
157.716
160.693
164.258
168.49
173.46
179.224
185.814
193.229
201.424
210.303
219.704
229.406
239.139
248.603
257.493
265.438
272.118
277.405
281.366
284.192
286.119
287.376
288.156
288.611
288.858
288.953
288.945
288.896
288.804
288.684
288.56
288.468
288.307
288.128
288.005
287.906
287.766
287.595
287.457
287.357
287.246
287.125
287.008
286.903
286.81
286.728
286.655
286.593
286.551
163.509
167.543
172.282
177.785
184.092
191.212
199.114
207.723
216.906
226.471
236.173
245.729
254.843
263.199
270.455
276.376
280.94
284.284
286.623
288.189
289.191
289.802
290.149
290.322
290.373
290.351
290.279
290.184
290.099
289.952
289.819
289.706
289.613
289.44
289.277
289.171
289.084
288.958
288.813
288.697
288.607
288.513
288.417
288.327
288.248
288.182
288.128
288.087
288.061
288.057
176.476
182.514
189.347
196.959
205.292
214.237
223.63
233.251
242.842
252.113
260.777
268.516
275.041
280.22
284.118
286.916
288.838
290.103
290.899
291.372
291.635
291.756
291.764
291.729
291.654
291.558
291.441
291.347
291.252
291.078
290.96
290.864
290.767
290.604
290.462
290.377
290.298
290.189
290.072
289.977
289.9
289.828
289.758
289.696
289.646
289.61
289.588
289.584
289.597
289.634
194.964
203.02
211.714
220.907
230.408
239.978
249.349
258.236
266.36
273.422
279.207
283.683
286.98
289.303
290.873
291.889
292.517
292.883
293.074
293.145
293.139
293.088
293.002
292.919
292.827
292.69
292.582
292.506
292.387
292.222
292.121
292.046
291.95
291.805
291.687
291.62
291.548
291.458
291.369
291.295
291.237
291.188
291.146
291.115
291.097
291.095
291.11
291.145
291.2
291.282
218.323
227.669
237.173
246.587
255.638
264.051
271.562
277.913
282.973
286.801
289.567
291.482
292.755
293.567
294.059
294.337
294.478
294.511
294.486
294.428
294.348
294.251
294.15
294.085
293.958
293.828
293.735
293.672
293.541
293.393
293.311
293.253
293.164
293.041
292.948
292.893
292.832
292.764
292.701
292.651
292.616
292.593
292.582
292.584
292.602
292.638
292.694
292.77
292.869
292.996
243.862
253.016
261.655
269.52
276.363
281.994
286.37
289.613
291.914
293.484
294.512
295.157
295.54
295.751
295.843
295.848
295.817
295.747
295.665
295.593
295.493
295.384
295.292
295.237
295.095
294.986
294.909
294.854
294.72
294.594
294.53
294.485
294.405
294.308
294.238
294.192
294.147
294.104
294.068
294.044
294.036
294.043
294.065
294.104
294.161
294.238
294.335
294.454
294.6
294.777
267.357
274.611
280.76
285.687
289.432
292.156
294.059
295.337
296.162
296.672
296.967
297.123
297.179
297.167
297.121
297.054
296.978
296.886
296.807
296.748
296.621
296.525
296.452
296.394
296.249
296.162
296.102
296.049
295.927
295.821
295.775
295.737
295.671
295.601
295.55
295.518
295.494
295.476
295.469
295.475
295.498
295.539
295.598
295.676
295.773
295.89
296.031
296.198
296.394
296.624
284.76
289.021
292.196
294.467
296.03
297.066
297.725
298.124
298.351
298.463
298.485
298.463
298.412
298.34
298.266
298.201
298.109
298.013
297.951
297.89
297.759
297.681
297.629
297.558
297.423
297.353
297.31
297.259
297.154
297.07
297.039
297.006
296.959
296.914
296.885
296.872
296.871
296.881
296.905
296.945
297.003
297.08
297.177
297.293
297.432
297.594
297.784
298.002
298.25
298.534
294.698
296.579
297.856
298.69
299.213
299.525
299.695
299.768
299.77
299.739
299.68
299.616
299.546
299.462
299.398
299.344
299.232
299.147
299.107
299.028
298.913
298.85
298.814
298.732
298.611
298.556
298.529
298.482
298.398
298.338
298.315
298.292
298.267
298.247
298.242
298.252
298.278
298.32
298.378
298.454
298.548
298.662
298.797
298.956
299.14
299.351
299.591
299.861
300.163
300.499
299.557
300.225
300.638
300.879
301.005
301.046
301.034
300.994
300.935
300.869
300.802
300.744
300.664
300.579
300.535
300.469
300.365
300.294
300.268
300.173
300.075
300.027
300.001
299.914
299.81
299.771
299.756
299.714
299.656
299.617
299.603
299.596
299.593
299.601
299.623
299.662
299.719
299.793
299.886
299.996
300.127
300.281
300.46
300.665
300.897
301.159
301.449
301.771
302.125
302.512
302.01
302.194
302.283
302.298
302.277
302.229
302.171
302.111
302.047
301.974
301.919
301.871
301.775
301.7
301.676
301.59
301.506
301.448
301.426
301.321
301.24
301.205
301.185
301.105
301.02
300.996
300.985
300.956
300.922
300.903
300.904
300.916
300.94
300.977
301.03
301.101
301.189
301.296
301.423
301.572
301.744
301.942
302.166
302.419
302.7
303.011
303.352
303.724
304.127
304.562
303.53
303.528
303.497
303.447
303.392
303.331
303.27
303.218
303.15
303.074
303.039
302.979
302.892
302.829
302.812
302.711
302.646
302.602
302.576
302.469
302.404
302.382
302.364
302.299
302.236
302.224
302.217
302.205
302.195
302.199
302.22
302.257
302.31
302.377
302.462
302.563
302.684
302.826
302.992
303.182
303.398
303.641
303.913
304.213
304.542
304.901
305.29
305.709
306.159
306.638
304.698
304.647
304.592
304.537
304.48
304.416
304.366
304.323
304.243
304.175
304.157
304.077
304.005
303.961
303.934
303.828
303.781
303.751
303.714
303.617
303.566
303.559
303.54
303.494
303.456
303.451
303.455
303.462
303.478
303.508
303.555
303.62
303.7
303.797
303.912
304.047
304.205
304.387
304.594
304.827
305.088
305.377
305.695
306.041
306.417
306.821
307.255
307.717
308.207
308.723
305.829
305.778
305.723
305.667
305.617
305.562
305.492
305.458
305.412
305.331
305.278
305.26
305.166
305.11
305.085
305.039
304.939
304.904
304.887
304.845
304.763
304.728
304.729
304.713
304.688
304.674
304.68
304.7
304.732
304.775
304.833
304.907
304.998
305.106
305.235
305.385
305.558
305.755
305.978
306.228
306.505
306.81
307.143
307.505
307.895
308.314
308.76
309.233
309.732
310.257
310.803
306.891
306.839
306.783
306.733
306.695
306.628
306.565
306.546
306.478
306.41
306.378
306.34
306.249
306.206
306.191
306.129
306.04
306.015
306.008
305.969
305.907
305.887
305.891
305.886
305.883
305.891
305.917
305.959
306.015
306.084
306.167
306.269
306.389
306.531
306.695
306.882
307.095
307.332
307.597
307.889
308.208
308.556
308.932
309.335
309.765
310.223
310.705
311.212
311.741
312.292
312.86
307.988
307.94
307.892
307.83
307.792
307.757
307.682
307.631
307.614
307.53
307.475
307.46
307.398
307.318
307.286
307.276
307.206
307.131
307.119
307.115
307.084
307.046
307.039
307.048
307.061
307.082
307.115
307.163
307.227
307.306
307.4
307.513
307.646
307.8
307.977
308.178
308.404
308.656
308.934
309.239
309.572
309.932
310.32
310.734
311.175
311.641
312.131
312.643
313.176
313.728
314.296
314.875
309.019
308.981
308.927
308.866
308.842
308.789
308.721
308.689
308.651
308.57
308.526
308.516
308.436
308.369
308.347
308.337
308.275
308.215
308.214
308.21
308.193
308.179
308.185
308.208
308.243
308.287
308.342
308.413
308.5
308.605
308.73
308.874
309.041
309.23
309.444
309.682
309.947
310.238
310.555
310.9
311.271
311.669
312.092
312.541
313.013
313.508
314.024
314.559
315.11
315.675
316.252
316.832
310.039
310.008
309.942
309.888
309.871
309.797
309.741
309.725
309.658
309.592
309.557
309.544
309.458
309.404
309.394
309.381
309.331
309.292
309.295
309.298
309.299
309.309
309.334
309.375
309.428
309.492
309.572
309.668
309.783
309.918
310.074
310.252
310.453
310.679
310.929
311.205
311.507
311.835
312.19
312.57
312.976
313.407
313.862
314.339
314.838
315.355
315.889
316.437
316.997
317.566
318.141
318.713
311.044
311.005
310.936
310.898
310.866
310.787
310.742
310.73
310.642
310.592
310.568
310.545
310.467
310.425
310.426
310.41
310.378
310.36
310.368
310.385
310.407
310.438
310.482
310.54
310.613
310.702
310.809
310.933
311.078
311.245
311.433
311.646
311.882
312.143
312.429
312.741
313.078
313.441
313.83
314.242
314.679
315.138
315.618
316.117
316.634
317.166
317.709
318.263
318.823
319.386
319.949
320.502
312.031
311.968
311.909
311.886
311.823
311.759
311.723
311.701
311.61
311.57
311.558
311.528
311.465
311.436
311.44
311.43
311.419
311.421
311.44
311.472
311.512
311.562
311.627
311.707
311.805
311.921
312.056
312.21
312.386
312.585
312.807
313.053
313.324
313.619
313.939
314.284
314.654
315.049
315.467
315.907
316.368
316.849
317.348
317.862
318.389
318.927
319.472
320.021
320.571
321.119
321.66
322.185
312.986
312.907
312.86
312.843
312.755
312.708
312.684
312.644
312.562
312.532
312.528
312.498
312.452
312.438
312.444
312.449
312.458
312.478
312.511
312.557
312.616
312.688
312.776
312.882
313.006
313.15
313.314
313.499
313.707
313.938
314.192
314.471
314.774
315.101
315.453
315.829
316.227
316.649
317.091
317.553
318.033
318.529
319.039
319.56
320.09
320.625
321.162
321.698
322.229
322.752
323.262
323.748
313.901
313.832
313.792
313.765
313.673
313.635
313.621
313.574
313.503
313.484
313.481
313.459
313.434
313.432
313.446
313.465
313.49
313.527
313.578
313.643
313.724
313.82
313.933
314.065
314.217
314.389
314.583
314.799
315.038
315.3
315.585
315.895
316.228
316.585
316.964
317.366
317.789
318.231
318.692
319.17
319.662
320.166
320.679
321.2
321.723
322.247
322.767
323.281
323.784
324.273
324.743
325.182
314.74
314.712
314.662
314.579
314.55
314.54
314.495
314.44
314.43
314.427
314.419
314.414
314.424
314.447
314.48
314.523
314.578
314.649
314.736
314.84
314.961
315.1
315.259
315.439
315.64
315.862
316.108
316.376
316.667
316.982
317.319
317.679
318.061
318.464
318.887
319.329
319.787
320.26
320.747
321.243
321.748
322.257
322.768
323.277
323.781
324.276
324.759
325.226
325.672
326.094
326.478
315.637
315.619
315.557
315.485
315.464
315.452
315.415
315.379
315.374
315.379
315.382
315.392
315.414
315.451
315.5
315.562
315.638
315.73
315.839
315.967
316.113
316.278
316.464
316.671
316.899
317.15
317.423
317.719
318.037
318.377
318.739
319.121
319.524
319.945
320.384
320.838
321.306
321.785
322.273
322.767
323.263
323.76
324.254
324.741
325.217
325.679
326.123
326.545
326.941
327.307
327.631
316.542
316.526
316.464
316.403
316.389
316.374
316.348
316.329
316.33
316.339
316.355
316.379
316.416
316.468
316.535
316.616
316.713
316.827
316.958
317.109
317.279
317.47
317.681
317.913
318.168
318.444
318.742
319.062
319.403
319.765
320.147
320.547
320.965
321.4
321.848
322.308
322.778
323.256
323.738
324.221
324.703
325.18
325.649
326.105
326.546
326.967
327.365
327.736
328.075
328.38
328.636
317.46
317.404
317.355
317.341
317.327
317.312
317.304
317.309
317.326
317.354
317.392
317.444
317.512
317.595
317.695
317.811
317.945
318.098
318.271
318.463
318.677
318.911
319.167
319.444
319.742
320.062
320.402
320.762
321.14
321.537
321.95
322.378
322.819
323.27
323.73
324.196
324.665
325.133
325.599
326.059
326.508
326.944
327.363
327.761
328.135
328.48
328.794
329.07
329.307
329.491
318.46
318.41
318.37
318.351
318.339
318.329
318.328
318.339
318.364
318.401
318.452
318.517
318.598
318.695
318.811
318.944
319.096
319.267
319.459
319.671
319.904
320.158
320.432
320.728
321.044
321.38
321.736
322.109
322.499
322.905
323.324
323.755
324.195
324.643
325.096
325.55
326.003
326.451
326.892
327.322
327.737
328.134
328.509
328.858
329.178
329.465
329.716
329.925
330.091
330.199
319.584
319.534
319.494
319.469
319.453
319.444
319.445
319.459
319.487
319.529
319.586
319.659
319.749
319.857
319.983
320.128
320.293
320.478
320.683
320.91
321.157
321.425
321.714
322.023
322.351
322.697
323.062
323.442
323.837
324.245
324.664
325.091
325.524
325.961
326.399
326.835
327.265
327.686
328.095
328.488
328.863
329.214
329.539
329.834
330.095
330.318
330.501
330.639
330.731
330.76
320.914
320.853
320.802
320.763
320.736
320.718
320.713
320.722
320.745
320.784
320.839
320.911
321.001
321.11
321.239
321.389
321.559
321.749
321.961
322.195
322.449
322.723
323.018
323.333
323.665
324.015
324.381
324.761
325.153
325.556
325.966
326.382
326.801
327.22
327.636
328.045
328.445
328.832
329.203
329.554
329.881
330.181
330.45
330.686
330.883
331.04
331.152
331.216
331.228
331.183
322.577
322.487
322.406
322.339
322.284
322.242
322.214
322.201
322.206
322.229
322.269
322.327
322.404
322.502
322.622
322.762
322.925
323.11
323.317
323.546
323.797
324.068
324.359
324.669
324.996
325.34
325.698
326.068
326.449
326.837
327.231
327.627
328.024
328.416
328.802
329.179
329.542
329.888
330.214
330.516
330.791
331.034
331.244
331.415
331.546
331.632
331.67
331.658
331.597
331.47
324.764
324.612
324.472
324.347
324.239
324.146
324.071
324.013
323.974
323.954
323.957
323.982
324.029
324.097
324.188
324.303
324.441
324.603
324.788
324.997
325.229
325.482
325.755
326.047
326.357
326.682
327.021
327.371
327.729
328.093
328.461
328.829
329.193
329.551
329.9
330.236
330.555
330.853
331.128
331.376
331.593
331.776
331.921
332.025
332.085
332.097
332.063
331.976
331.834
331.624
327.754
327.49
327.242
327.013
326.805
326.617
326.452
326.311
326.193
326.1
326.031
325.987
325.969
325.978
326.016
326.08
326.17
326.286
326.427
326.595
326.787
327.002
327.239
327.496
327.771
328.063
328.367
328.683
329.006
329.334
329.664
329.992
330.315
330.629
330.932
331.218
331.486
331.73
331.948
332.136
332.29
332.407
332.484
332.518
332.506
332.447
332.337
332.17
331.946
331.655
331.473
331.049
330.648
330.272
329.923
329.604
329.317
329.061
328.84
328.651
328.495
328.372
328.281
328.221
328.193
328.197
328.235
328.304
328.401
328.527
328.678
328.855
329.054
329.273
329.51
329.762
330.026
330.297
330.574
330.852
331.128
331.398
331.658
331.905
332.134
332.342
332.525
332.679
332.801
332.887
332.936
332.94
332.903
332.819
332.684
332.494
332.248
331.945
331.58
336.972
336.285
335.627
335
334.407
333.851
333.334
332.859
332.428
332.043
331.704
331.41
331.161
330.953
330.786
330.659
330.57
330.518
330.503
330.522
330.577
330.661
330.773
330.91
331.067
331.242
331.431
331.631
331.838
332.048
332.256
332.459
332.652
332.831
332.992
333.132
333.245
333.328
333.379
333.392
333.368
333.301
333.189
333.028
332.813
332.545
332.222
331.845
331.399
344.417
343.366
342.349
341.372
340.437
339.548
338.708
337.92
337.185
336.508
335.889
335.332
334.836
334.401
334.024
333.702
333.429
333.205
333.027
332.893
332.8
332.746
332.727
332.741
332.785
332.854
332.942
333.045
333.159
333.279
333.401
333.519
333.63
333.728
333.808
333.869
333.904
333.907
333.882
333.82
333.719
333.574
333.383
333.141
332.847
332.503
332.104
331.648
331.123
352.623
351.154
349.728
348.351
347.028
345.763
344.561
343.425
342.357
341.362
340.44
339.594
338.825
338.136
337.525
336.987
336.518
336.112
335.762
335.467
335.222
335.025
334.871
334.755
334.674
334.621
334.593
334.583
334.586
334.596
334.609
334.618
334.618
334.605
334.575
334.522
334.44
334.329
334.183
333.997
333.769
333.495
333.171
332.801
332.379
331.899
331.364
330.762
364.126
362.158
360.227
358.341
356.509
354.737
353.033
351.402
349.85
348.382
347.001
345.709
344.51
343.403
342.392
341.478
340.66
339.933
339.289
338.721
338.22
337.783
337.402
337.075
336.795
336.557
336.355
336.184
336.035
335.903
335.782
335.666
335.547
335.421
335.282
335.126
334.946
334.738
334.498
334.221
333.904
333.543
333.138
332.685
332.18
331.621
331.007
330.328
375.051
372.652
370.276
367.934
365.638
363.398
361.226
359.129
357.118
355.199
353.379
351.662
350.053
348.553
347.164
345.888
344.725
343.676
342.735
341.894
341.142
340.468
339.865
339.328
338.849
338.422
338.041
337.697
337.384
337.095
336.821
336.556
336.293
336.026
335.747
335.451
335.134
334.788
334.411
333.998
333.545
333.052
332.511
331.923
331.282
330.59
329.836
388.976
386.275
383.55
380.817
378.09
375.384
372.713
370.094
367.539
365.062
362.675
360.389
358.213
356.154
354.217
352.406
350.722
349.167
347.741
346.444
345.273
344.218
343.264
342.4
341.616
340.903
340.256
339.665
339.123
338.621
338.152
337.705
337.274
336.85
336.426
335.995
335.55
335.085
334.596
334.077
333.524
332.933
332.301
331.625
330.901
330.129
329.298
399.911
397.099
394.216
391.277
388.297
385.295
382.288
379.297
376.34
373.438
370.607
367.865
365.226
362.703
360.306
358.042
355.918
353.936
352.097
350.4
348.848
347.437
346.157
344.991
343.925
342.948
342.049
341.222
340.455
339.741
339.07
338.431
337.817
337.217
336.624
336.029
335.426
334.808
334.17
333.505
332.808
332.077
331.308
330.496
329.641
328.733
412.276
409.668
406.931
404.073
401.105
398.04
394.895
391.692
388.451
385.197
381.953
378.744
375.593
372.523
369.552
366.698
363.976
361.395
358.964
356.687
354.565
352.6
350.791
349.136
347.627
346.245
344.972
343.796
342.705
341.69
340.742
339.849
339.001
338.188
337.399
336.626
335.859
335.091
334.315
333.523
332.707
331.866
330.995
330.09
329.147
328.157
422.487
420.283
417.923
415.404
412.723
409.886
406.899
403.775
400.53
397.185
393.766
390.299
386.812
383.336
379.899
376.529
373.251
370.087
367.056
364.171
361.445
358.882
356.486
354.258
352.197
350.302
348.566
346.969
345.489
344.113
342.828
341.626
340.493
339.42
338.395
337.406
336.444
335.498
334.559
333.619
332.67
331.704
330.719
329.709
328.671
327.594
430.328
428.579
426.684
424.628
422.4
419.992
417.397
414.613
411.645
408.501
405.197
401.752
398.193
394.55
390.856
387.145
383.451
379.807
376.245
372.792
369.47
366.299
363.292
360.457
357.8
355.32
353.017
350.89
348.934
347.127
345.446
343.874
342.4
341.013
339.701
338.452
337.253
336.092
334.96
333.845
332.741
331.632
330.515
329.387
328.242
327.068
436.112
434.756
433.283
431.676
429.92
427.998
425.894
423.594
421.086
418.364
415.427
412.28
408.935
405.411
401.736
397.941
394.062
390.138
386.209
382.314
378.489
374.766
371.174
367.734
364.464
361.375
358.471
355.755
353.223
350.877
348.713
346.707
344.833
343.075
341.42
339.857
338.373
336.955
335.589
334.265
332.972
331.7
330.433
329.166
327.897
326.614
440.355
439.286
438.132
436.881
435.516
434.021
432.377
430.563
428.561
426.351
423.917
421.247
418.336
415.184
411.801
408.204
404.421
400.484
396.434
392.312
388.164
384.034
379.964
375.991
372.147
368.459
364.945
361.62
358.489
355.554
352.812
350.263
347.905
345.715
343.662
341.729
339.905
338.178
336.533
334.957
333.438
331.963
330.522
329.096
327.682
326.269
443.503
442.633
441.701
440.7
439.617
438.441
437.155
435.742
434.18
432.447
430.519
428.375
425.992
423.355
420.454
417.284
413.854
410.179
406.285
402.209
397.991
393.68
389.324
384.973
380.674
376.468
372.392
368.475
364.739
361.199
357.862
354.73
351.798
349.065
346.53
344.173
341.956
339.865
337.887
336.01
334.219
332.501
330.842
329.231
327.65
326.086
445.087
444.321
443.502
442.621
441.67
440.638
439.514
438.281
436.923
435.415
433.735
431.855
429.749
427.392
424.764
421.85
418.643
415.149
411.382
407.37
403.148
398.763
394.266
389.71
385.15
380.637
376.216
371.928
367.805
363.87
360.138
356.618
353.311
350.212
347.315
344.623
342.119
339.757
337.525
335.412
333.402
331.482
329.638
327.855
326.12
446.823
446.178
445.496
444.77
443.99
443.147
442.233
441.237
440.146
438.946
437.62
436.143
434.49
432.631
430.536
428.178
425.532
422.58
419.314
415.736
411.86
407.716
403.342
398.787
394.105
389.356
384.598
379.886
375.27
370.791
366.484
362.373
358.475
354.796
351.339
348.097
345.06
342.232
339.603
337.117
334.763
332.533
330.409
328.378
326.423
448.025
447.449
446.853
446.23
445.574
444.874
444.122
443.306
442.416
441.442
440.37
439.186
437.872
436.405
434.756
432.893
430.785
428.399
425.709
422.693
419.342
415.657
411.656
407.366
402.83
398.101
393.238
388.303
383.359
378.465
373.672
369.026
364.56
360.299
356.26
352.45
348.868
345.511
342.358
339.421
336.682
334.095
331.639
329.312
327.093
448.31
447.754
447.185
446.598
445.986
445.343
444.659
443.922
443.122
442.245
441.279
440.212
439.029
437.711
436.234
434.568
432.679
430.532
428.093
425.331
422.226
418.766
414.954
410.808
406.36
401.655
396.749
391.708
386.597
381.482
376.425
371.478
366.689
362.09
357.707
353.555
349.642
345.96
342.51
339.274
336.251
333.425
330.755
328.22
448.874
448.331
447.782
447.226
446.657
446.072
445.464
444.825
444.146
443.414
442.617
441.74
440.772
439.697
438.5
437.162
435.658
433.956
432.019
429.809
427.291
424.433
421.214
417.622
413.663
409.357
404.739
399.859
394.78
389.567
384.293
379.024
373.825
368.75
363.844
359.141
354.664
350.427
346.436
342.685
339.168
335.871
332.787
329.9
449.207
448.661
448.114
447.565
447.011
446.45
445.877
445.289
444.677
444.035
443.352