/*--------------------------------*- C++ -*----------------------------------*\
| =========                 |                                                 |
| \\      /  F ield         | OpenFOAM: The Open Source CFD Toolbox           |
|  \\    /   O peration     | Version:  v1706                                 |
|   \\  /    A nd           | Web:      www.OpenFOAM.com                      |
|    \\/     M anipulation  |                                                 |
\*---------------------------------------------------------------------------*/
FoamFile
{
    version     2.0;
    format      ascii;
    class       volScalarField;
    location    "1.2e-05";
    object      wallHeatFlux;
}
// * * * * * * * * * * * * * * * * * * * * * * * * * * * * * * * * * * * * * //

dimensions      [1 0 -3 0 0 0 0];


internalField   uniform 0;

boundaryField
{
    cone
    {
        type            calculated;
        value           nonuniform List<scalar> 
153
(
12124.6
12185.3
12250.7
12320.6
12394.8
12473.4
12556.4
12643.5
12734.9
12830.4
12929.9
13033.4
13140.8
13252
13367
13485.6
13607.8
13733.4
13862.4
13994.6
14130
14268.4
14409.7
14553.9
14700.9
14850.6
15003
15158.1
15315.9
15476.6
15640.3
15807.2
15977.5
16151.4
16329.4
16511.6
16698.4
16889.9
17086.4
17287.9
17494.3
17705.5
17921.2
18140.6
18362.7
18585.1
18804.2
19008.9
19223.1
19477.9
19738.8
20011.8
20289.7
20569.3
20847.8
21123.2
21393.9
21658.5
21915.6
22164.4
22403.9
22633.4
22852.3
23060
23255.5
23438.1
23606.5
23759.4
23895.4
24012.6
24109
24182.9
24232.2
24255.3
24251
24218.6
24158.3
24070.6
23957
23819.1
23659.3
23479.9
23283.2
23071.1
22845.5
22607.7
22359.1
22100.6
21833.2
21557.7
21275.3
20987
20694.2
20398.6
20101.7
19805.7
19512.6
19224.5
18943.8
18672.5
18412.7
18166.5
17935.6
17721.4
17525.4
17348.7
17192
17056
16941.2
16847.6
16775.5
16724.5
16694.6
16685.7
16697.6
16730.1
16782.6
16854.5
16945.5
17054.9
17181.9
17325.2
17485.3
17661.5
17853.4
18060.4
18281.9
18517.4
18766.4
19028.1
19301.9
19587.1
19882.9
20188.7
20503.6
20826.7
21157.2
21494
21836.1
22182.6
22532.2
22883.8
23236.2
23588
23938
24284.7
24626.7
24962.4
25290.4
25608.9
25916.3
26210.5
26488.8
)
;
    }
    inlet
    {
        type            calculated;
        value           uniform 0;
    }
    rWedge
    {
        type            wedge;
    }
    lWedge
    {
        type            wedge;
    }
    outlet
    {
        type            calculated;
        value           nonuniform 0();
    }
    procBoundary2to0
    {
        type            processor;
        value           uniform 0;
    }
    procBoundary2to1
    {
        type            processor;
        value           uniform 0;
    }
    procBoundary2to3
    {
        type            processor;
        value           uniform 0;
    }
}


// ************************************************************************* //
