/*--------------------------------*- C++ -*----------------------------------*\
| =========                 |                                                 |
| \\      /  F ield         | OpenFOAM: The Open Source CFD Toolbox           |
|  \\    /   O peration     | Version:  v1706                                 |
|   \\  /    A nd           | Web:      www.OpenFOAM.com                      |
|    \\/     M anipulation  |                                                 |
\*---------------------------------------------------------------------------*/
FoamFile
{
    version     2.0;
    format      ascii;
    class       volScalarField;
    location    "1.6e-05";
    object      alpha;
}
// * * * * * * * * * * * * * * * * * * * * * * * * * * * * * * * * * * * * * //

dimensions      [1 -1 -1 0 0 0 0];


internalField   nonuniform List<scalar> 
30104
(
1.40482e-05
1.40482e-05
1.40483e-05
1.40483e-05
1.40483e-05
1.40484e-05
1.40484e-05
1.40484e-05
1.40485e-05
1.40485e-05
1.40486e-05
1.40486e-05
1.40486e-05
1.40487e-05
1.40487e-05
1.40488e-05
1.40488e-05
1.40484e-05
1.40484e-05
1.40484e-05
1.40484e-05
1.40484e-05
1.40484e-05
1.40484e-05
1.40484e-05
1.40484e-05
1.40484e-05
1.40485e-05
1.40485e-05
1.40485e-05
1.40485e-05
1.40485e-05
1.40485e-05
1.40485e-05
1.40485e-05
1.40485e-05
1.40485e-05
1.40485e-05
1.40485e-05
1.40486e-05
1.40486e-05
1.40486e-05
1.40486e-05
1.40486e-05
1.40486e-05
1.40486e-05
1.40486e-05
1.40486e-05
1.40486e-05
1.40486e-05
1.40486e-05
1.40487e-05
1.40487e-05
1.40487e-05
1.40487e-05
1.40487e-05
1.40487e-05
1.40487e-05
1.40487e-05
1.40487e-05
1.40487e-05
1.40488e-05
1.40488e-05
1.40488e-05
1.40488e-05
1.40488e-05
1.40488e-05
1.40488e-05
1.40488e-05
1.40489e-05
1.40489e-05
1.40489e-05
1.40489e-05
1.40489e-05
1.40489e-05
1.40489e-05
1.40489e-05
1.4049e-05
1.4049e-05
1.4049e-05
1.4049e-05
1.4049e-05
1.4049e-05
1.4049e-05
1.40491e-05
1.40491e-05
1.40491e-05
1.40491e-05
1.40491e-05
1.40491e-05
1.40491e-05
1.40492e-05
1.40492e-05
1.40492e-05
1.40492e-05
1.40492e-05
1.40492e-05
1.40493e-05
1.40493e-05
1.40493e-05
1.40493e-05
1.40493e-05
1.40494e-05
1.40494e-05
1.40494e-05
1.40494e-05
1.40494e-05
1.40494e-05
1.40495e-05
1.40495e-05
1.40495e-05
1.40495e-05
1.40495e-05
1.40496e-05
1.40496e-05
1.40496e-05
1.40496e-05
1.40497e-05
1.40497e-05
1.40497e-05
1.40497e-05
1.40497e-05
1.40498e-05
1.40498e-05
1.40498e-05
1.40498e-05
1.40499e-05
1.40499e-05
1.40499e-05
1.40499e-05
1.405e-05
1.405e-05
1.405e-05
1.40501e-05
1.40501e-05
1.40501e-05
1.40501e-05
1.40502e-05
1.40502e-05
1.40502e-05
1.40503e-05
1.40503e-05
1.40503e-05
1.40503e-05
1.40504e-05
1.40504e-05
1.40504e-05
1.40505e-05
1.40505e-05
1.40505e-05
1.40506e-05
1.40506e-05
1.40506e-05
1.40507e-05
1.40507e-05
1.40507e-05
1.40508e-05
1.40508e-05
1.40509e-05
1.40509e-05
1.40509e-05
1.4051e-05
1.4051e-05
1.40511e-05
1.40511e-05
1.40512e-05
1.40512e-05
1.40513e-05
1.40513e-05
1.40513e-05
1.40514e-05
1.40515e-05
1.40515e-05
1.40516e-05
1.40516e-05
1.40517e-05
1.40517e-05
1.40518e-05
1.40518e-05
1.40519e-05
1.4052e-05
1.4052e-05
1.40521e-05
1.40521e-05
1.40522e-05
1.40523e-05
1.40523e-05
1.40524e-05
1.40525e-05
1.40525e-05
1.40526e-05
1.40527e-05
1.40527e-05
1.40528e-05
1.40529e-05
1.40529e-05
1.4053e-05
1.4053e-05
1.40531e-05
1.40532e-05
1.40532e-05
1.40533e-05
1.40534e-05
1.40534e-05
1.40535e-05
1.40536e-05
1.40536e-05
1.40537e-05
1.40536e-05
1.40528e-05
1.40501e-05
1.40503e-05
1.40505e-05
1.40507e-05
1.40509e-05
1.40511e-05
1.40513e-05
1.40516e-05
1.40518e-05
1.4052e-05
1.40523e-05
1.40525e-05
1.40527e-05
1.4053e-05
1.40532e-05
1.40535e-05
1.40537e-05
1.40516e-05
1.40516e-05
1.40517e-05
1.40518e-05
1.40518e-05
1.40519e-05
1.40519e-05
1.4052e-05
1.40521e-05
1.40521e-05
1.40522e-05
1.40522e-05
1.40523e-05
1.40524e-05
1.40524e-05
1.40525e-05
1.40525e-05
1.40526e-05
1.40527e-05
1.40527e-05
1.40528e-05
1.40528e-05
1.40529e-05
1.4053e-05
1.4053e-05
1.40531e-05
1.40532e-05
1.40532e-05
1.40533e-05
1.40534e-05
1.40534e-05
1.40535e-05
1.40536e-05
1.40537e-05
1.40537e-05
1.40538e-05
1.40539e-05
1.4054e-05
1.4054e-05
1.40541e-05
1.40542e-05
1.40543e-05
1.40544e-05
1.40545e-05
1.40545e-05
1.40546e-05
1.40547e-05
1.40548e-05
1.40549e-05
1.4055e-05
1.40551e-05
1.40552e-05
1.40553e-05
1.40554e-05
1.40555e-05
1.40556e-05
1.40557e-05
1.40558e-05
1.40559e-05
1.4056e-05
1.40561e-05
1.40562e-05
1.40563e-05
1.40564e-05
1.40565e-05
1.40566e-05
1.40568e-05
1.40569e-05
1.4057e-05
1.40571e-05
1.40572e-05
1.40574e-05
1.40575e-05
1.40576e-05
1.40578e-05
1.40579e-05
1.4058e-05
1.40582e-05
1.40583e-05
1.40584e-05
1.40586e-05
1.40587e-05
1.40589e-05
1.4059e-05
1.40592e-05
1.40593e-05
1.40595e-05
1.40596e-05
1.40598e-05
1.40599e-05
1.40601e-05
1.40603e-05
1.40604e-05
1.40606e-05
1.40608e-05
1.40609e-05
1.40611e-05
1.40613e-05
1.40615e-05
1.40617e-05
1.40619e-05
1.40621e-05
1.40623e-05
1.40625e-05
1.40627e-05
1.40629e-05
1.40631e-05
1.40633e-05
1.40636e-05
1.40638e-05
1.4064e-05
1.40643e-05
1.40645e-05
1.40648e-05
1.4065e-05
1.40653e-05
1.40655e-05
1.40658e-05
1.40661e-05
1.40663e-05
1.40666e-05
1.40669e-05
1.40672e-05
1.40674e-05
1.40677e-05
1.4068e-05
1.40683e-05
1.40686e-05
1.40689e-05
1.40692e-05
1.40695e-05
1.40698e-05
1.40701e-05
1.40704e-05
1.40708e-05
1.40711e-05
1.40714e-05
1.40717e-05
1.40721e-05
1.40724e-05
1.40727e-05
1.40731e-05
1.40734e-05
1.40738e-05
1.40742e-05
1.40745e-05
1.40749e-05
1.40753e-05
1.40757e-05
1.40761e-05
1.40765e-05
1.4077e-05
1.40774e-05
1.40778e-05
1.40783e-05
1.40787e-05
1.40792e-05
1.40797e-05
1.40802e-05
1.40807e-05
1.40812e-05
1.40817e-05
1.40822e-05
1.40828e-05
1.40833e-05
1.40839e-05
1.40845e-05
1.40851e-05
1.40857e-05
1.40863e-05
1.40869e-05
1.40875e-05
1.40881e-05
1.40887e-05
1.40894e-05
1.409e-05
1.40907e-05
1.40913e-05
1.4092e-05
1.40927e-05
1.40933e-05
1.4094e-05
1.40947e-05
1.40954e-05
1.40961e-05
1.40968e-05
1.40975e-05
1.40982e-05
1.40989e-05
1.40996e-05
1.41004e-05
1.41003e-05
1.40959e-05
1.4055e-05
1.40555e-05
1.40561e-05
1.40567e-05
1.40573e-05
1.4058e-05
1.40587e-05
1.40594e-05
1.40601e-05
1.40608e-05
1.40615e-05
1.40623e-05
1.4063e-05
1.40638e-05
1.40645e-05
1.40653e-05
1.40607e-05
1.40609e-05
1.40611e-05
1.40613e-05
1.40616e-05
1.40618e-05
1.4062e-05
1.40622e-05
1.40625e-05
1.40627e-05
1.40629e-05
1.40632e-05
1.40634e-05
1.40636e-05
1.40639e-05
1.40641e-05
1.40643e-05
1.40646e-05
1.40648e-05
1.4065e-05
1.40653e-05
1.40655e-05
1.40658e-05
1.4066e-05
1.40663e-05
1.40666e-05
1.40668e-05
1.40671e-05
1.40674e-05
1.40676e-05
1.40679e-05
1.40682e-05
1.40685e-05
1.40688e-05
1.40691e-05
1.40694e-05
1.40697e-05
1.407e-05
1.40703e-05
1.40706e-05
1.40709e-05
1.40713e-05
1.40716e-05
1.4072e-05
1.40723e-05
1.40726e-05
1.4073e-05
1.40734e-05
1.40737e-05
1.40741e-05
1.40745e-05
1.40749e-05
1.40753e-05
1.40757e-05
1.40761e-05
1.40765e-05
1.40769e-05
1.40773e-05
1.40777e-05
1.40782e-05
1.40786e-05
1.40791e-05
1.40795e-05
1.408e-05
1.40805e-05
1.4081e-05
1.40815e-05
1.4082e-05
1.40825e-05
1.4083e-05
1.40836e-05
1.40841e-05
1.40847e-05
1.40852e-05
1.40858e-05
1.40864e-05
1.4087e-05
1.40876e-05
1.40882e-05
1.40888e-05
1.40894e-05
1.40901e-05
1.40907e-05
1.40914e-05
1.4092e-05
1.40927e-05
1.40934e-05
1.40941e-05
1.40948e-05
1.40955e-05
1.40962e-05
1.40969e-05
1.40977e-05
1.40984e-05
1.40992e-05
1.41e-05
1.41008e-05
1.41016e-05
1.41024e-05
1.41033e-05
1.41041e-05
1.4105e-05
1.41059e-05
1.41068e-05
1.41077e-05
1.41087e-05
1.41096e-05
1.41106e-05
1.41116e-05
1.41126e-05
1.41137e-05
1.41147e-05
1.41158e-05
1.41169e-05
1.4118e-05
1.41192e-05
1.41204e-05
1.41215e-05
1.41228e-05
1.4124e-05
1.41252e-05
1.41265e-05
1.41278e-05
1.41291e-05
1.41304e-05
1.41318e-05
1.41332e-05
1.41346e-05
1.4136e-05
1.41374e-05
1.41388e-05
1.41403e-05
1.41418e-05
1.41432e-05
1.41448e-05
1.41463e-05
1.41478e-05
1.41494e-05
1.4151e-05
1.41526e-05
1.41542e-05
1.41559e-05
1.41576e-05
1.41593e-05
1.41611e-05
1.41629e-05
1.41647e-05
1.41666e-05
1.41685e-05
1.41704e-05
1.41724e-05
1.41745e-05
1.41766e-05
1.41787e-05
1.41809e-05
1.41832e-05
1.41855e-05
1.41879e-05
1.41904e-05
1.41929e-05
1.41955e-05
1.41982e-05
1.42009e-05
1.42037e-05
1.42066e-05
1.42095e-05
1.42126e-05
1.42156e-05
1.42188e-05
1.4222e-05
1.42253e-05
1.42286e-05
1.4232e-05
1.42355e-05
1.4239e-05
1.42426e-05
1.42462e-05
1.42498e-05
1.42535e-05
1.42572e-05
1.42609e-05
1.42647e-05
1.42685e-05
1.42723e-05
1.42761e-05
1.428e-05
1.42839e-05
1.42877e-05
1.42916e-05
1.42955e-05
1.42996e-05
1.4301e-05
1.42855e-05
1.40669e-05
1.40684e-05
1.407e-05
1.40716e-05
1.40732e-05
1.40749e-05
1.40767e-05
1.40785e-05
1.40804e-05
1.40823e-05
1.40843e-05
1.40862e-05
1.40882e-05
1.40902e-05
1.40922e-05
1.40942e-05
1.40855e-05
1.40861e-05
1.40868e-05
1.40875e-05
1.40882e-05
1.4089e-05
1.40897e-05
1.40904e-05
1.40912e-05
1.40919e-05
1.40927e-05
1.40935e-05
1.40942e-05
1.4095e-05
1.40958e-05
1.40966e-05
1.40974e-05
1.40981e-05
1.4099e-05
1.40998e-05
1.41006e-05
1.41014e-05
1.41023e-05
1.41031e-05
1.4104e-05
1.41049e-05
1.41058e-05
1.41067e-05
1.41076e-05
1.41085e-05
1.41095e-05
1.41105e-05
1.41115e-05
1.41125e-05
1.41135e-05
1.41145e-05
1.41156e-05
1.41167e-05
1.41178e-05
1.41189e-05
1.41201e-05
1.41212e-05
1.41224e-05
1.41236e-05
1.41248e-05
1.4126e-05
1.41273e-05
1.41286e-05
1.41299e-05
1.41312e-05
1.41325e-05
1.41339e-05
1.41352e-05
1.41366e-05
1.4138e-05
1.41395e-05
1.4141e-05
1.41425e-05
1.4144e-05
1.41455e-05
1.41471e-05
1.41488e-05
1.41504e-05
1.41521e-05
1.41538e-05
1.41555e-05
1.41573e-05
1.41592e-05
1.4161e-05
1.41629e-05
1.41648e-05
1.41668e-05
1.41688e-05
1.41709e-05
1.4173e-05
1.41751e-05
1.41773e-05
1.41795e-05
1.41817e-05
1.4184e-05
1.41864e-05
1.41887e-05
1.41911e-05
1.41936e-05
1.41961e-05
1.41986e-05
1.42012e-05
1.42038e-05
1.42064e-05
1.42091e-05
1.42118e-05
1.42145e-05
1.42173e-05
1.42202e-05
1.42231e-05
1.4226e-05
1.4229e-05
1.4232e-05
1.42351e-05
1.42383e-05
1.42415e-05
1.42448e-05
1.42482e-05
1.42516e-05
1.42551e-05
1.42587e-05
1.42623e-05
1.42661e-05
1.42699e-05
1.42739e-05
1.42779e-05
1.4282e-05
1.42862e-05
1.42906e-05
1.4295e-05
1.42996e-05
1.43042e-05
1.4309e-05
1.43139e-05
1.43189e-05
1.4324e-05
1.43292e-05
1.43346e-05
1.434e-05
1.43456e-05
1.43512e-05
1.4357e-05
1.43629e-05
1.43688e-05
1.43748e-05
1.4381e-05
1.43872e-05
1.43934e-05
1.43997e-05
1.44061e-05
1.44126e-05
1.44191e-05
1.44256e-05
1.44322e-05
1.44389e-05
1.44456e-05
1.44524e-05
1.44593e-05
1.44663e-05
1.44733e-05
1.44805e-05
1.44877e-05
1.44951e-05
1.45025e-05
1.45102e-05
1.45179e-05
1.45258e-05
1.45338e-05
1.45421e-05
1.45505e-05
1.45591e-05
1.45679e-05
1.45769e-05
1.45862e-05
1.45957e-05
1.46055e-05
1.46156e-05
1.46259e-05
1.46365e-05
1.46475e-05
1.46588e-05
1.46704e-05
1.46823e-05
1.46946e-05
1.47073e-05
1.47202e-05
1.47336e-05
1.47473e-05
1.47614e-05
1.47758e-05
1.47905e-05
1.48056e-05
1.4821e-05
1.48367e-05
1.48527e-05
1.4869e-05
1.48856e-05
1.49024e-05
1.49194e-05
1.49366e-05
1.4954e-05
1.49715e-05
1.49891e-05
1.50067e-05
1.50245e-05
1.50421e-05
1.50572e-05
1.50152e-05
1.40959e-05
1.40996e-05
1.41034e-05
1.41074e-05
1.41115e-05
1.41158e-05
1.41202e-05
1.41247e-05
1.41293e-05
1.4134e-05
1.41388e-05
1.41436e-05
1.41484e-05
1.41533e-05
1.41581e-05
1.41504e-05
1.41524e-05
1.41545e-05
1.41566e-05
1.41587e-05
1.41609e-05
1.41631e-05
1.41653e-05
1.41676e-05
1.41698e-05
1.41721e-05
1.41745e-05
1.41768e-05
1.41792e-05
1.41815e-05
1.41839e-05
1.41864e-05
1.41888e-05
1.41913e-05
1.41938e-05
1.41963e-05
1.41988e-05
1.42014e-05
1.4204e-05
1.42067e-05
1.42094e-05
1.42122e-05
1.4215e-05
1.42179e-05
1.42208e-05
1.42238e-05
1.42268e-05
1.42299e-05
1.4233e-05
1.42363e-05
1.42395e-05
1.42429e-05
1.42463e-05
1.42498e-05
1.42533e-05
1.4257e-05
1.42606e-05
1.42644e-05
1.42682e-05
1.42721e-05
1.42761e-05
1.42801e-05
1.42842e-05
1.42884e-05
1.42926e-05
1.42969e-05
1.43013e-05
1.43057e-05
1.43103e-05
1.43149e-05
1.43196e-05
1.43243e-05
1.43292e-05
1.43341e-05
1.43392e-05
1.43443e-05
1.43495e-05
1.43549e-05
1.43603e-05
1.43659e-05
1.43716e-05
1.43774e-05
1.43833e-05
1.43893e-05
1.43955e-05
1.44019e-05
1.44084e-05
1.4415e-05
1.44218e-05
1.44287e-05
1.44358e-05
1.44431e-05
1.44505e-05
1.44581e-05
1.44659e-05
1.44738e-05
1.44819e-05
1.44901e-05
1.44986e-05
1.45071e-05
1.45159e-05
1.45247e-05
1.45337e-05
1.45429e-05
1.45522e-05
1.45616e-05
1.45711e-05
1.45808e-05
1.45906e-05
1.46005e-05
1.46105e-05
1.46206e-05
1.46309e-05
1.46414e-05
1.4652e-05
1.46628e-05
1.46737e-05
1.46848e-05
1.46962e-05
1.47077e-05
1.47194e-05
1.47314e-05
1.47436e-05
1.47561e-05
1.47688e-05
1.47819e-05
1.47952e-05
1.48088e-05
1.48227e-05
1.4837e-05
1.48516e-05
1.48666e-05
1.4882e-05
1.48977e-05
1.49138e-05
1.49304e-05
1.49473e-05
1.49647e-05
1.49825e-05
1.50007e-05
1.50193e-05
1.50384e-05
1.50578e-05
1.50777e-05
1.50979e-05
1.51186e-05
1.51396e-05
1.51609e-05
1.51826e-05
1.52045e-05
1.52268e-05
1.52492e-05
1.52718e-05
1.52945e-05
1.53174e-05
1.53404e-05
1.53636e-05
1.53869e-05
1.54104e-05
1.5434e-05
1.54579e-05
1.54819e-05
1.55062e-05
1.55306e-05
1.55554e-05
1.55804e-05
1.56057e-05
1.56314e-05
1.56575e-05
1.5684e-05
1.57109e-05
1.57383e-05
1.57663e-05
1.57949e-05
1.58241e-05
1.5854e-05
1.58847e-05
1.59161e-05
1.59485e-05
1.59817e-05
1.6016e-05
1.60512e-05
1.60876e-05
1.61251e-05
1.61637e-05
1.62035e-05
1.62445e-05
1.62868e-05
1.63304e-05
1.63752e-05
1.64212e-05
1.64685e-05
1.6517e-05
1.65667e-05
1.66174e-05
1.66692e-05
1.6722e-05
1.67759e-05
1.68305e-05
1.68859e-05
1.69422e-05
1.69989e-05
1.70568e-05
1.71131e-05
1.71714e-05
1.72249e-05
1.729e-05
1.72541e-05
1.4156e-05
1.41644e-05
1.41732e-05
1.41823e-05
1.41917e-05
1.42014e-05
1.42115e-05
1.42217e-05
1.42323e-05
1.4243e-05
1.42539e-05
1.42649e-05
1.42761e-05
1.42872e-05
1.42984e-05
1.43095e-05
1.43133e-05
1.43188e-05
1.43244e-05
1.43302e-05
1.43361e-05
1.43421e-05
1.43482e-05
1.43544e-05
1.43607e-05
1.43671e-05
1.43735e-05
1.43801e-05
1.43867e-05
1.43934e-05
1.44002e-05
1.4407e-05
1.44139e-05
1.44209e-05
1.44279e-05
1.4435e-05
1.44422e-05
1.44495e-05
1.44569e-05
1.44645e-05
1.44721e-05
1.44799e-05
1.44878e-05
1.44958e-05
1.4504e-05
1.45124e-05
1.45209e-05
1.45296e-05
1.45384e-05
1.45475e-05
1.45567e-05
1.45662e-05
1.45758e-05
1.45857e-05
1.45957e-05
1.4606e-05
1.46165e-05
1.46272e-05
1.46381e-05
1.46492e-05
1.46606e-05
1.46722e-05
1.4684e-05
1.4696e-05
1.47082e-05
1.47206e-05
1.47332e-05
1.4746e-05
1.4759e-05
1.47722e-05
1.47856e-05
1.47992e-05
1.48129e-05
1.48269e-05
1.48411e-05
1.48555e-05
1.48701e-05
1.4885e-05
1.49001e-05
1.49155e-05
1.49312e-05
1.49472e-05
1.49634e-05
1.49801e-05
1.4997e-05
1.50143e-05
1.5032e-05
1.505e-05
1.50685e-05
1.50874e-05
1.51066e-05
1.51264e-05
1.51465e-05
1.51671e-05
1.51882e-05
1.52098e-05
1.52318e-05
1.52543e-05
1.52773e-05
1.53007e-05
1.53247e-05
1.53491e-05
1.53739e-05
1.53992e-05
1.54249e-05
1.54511e-05
1.54776e-05
1.55045e-05
1.55318e-05
1.55593e-05
1.5587e-05
1.5615e-05
1.56431e-05
1.56716e-05
1.57002e-05
1.57291e-05
1.57582e-05
1.57877e-05
1.58174e-05
1.58474e-05
1.58777e-05
1.59083e-05
1.59394e-05
1.59708e-05
1.60026e-05
1.60349e-05
1.60677e-05
1.6101e-05
1.6135e-05
1.61695e-05
1.62047e-05
1.62407e-05
1.62774e-05
1.6315e-05
1.63535e-05
1.63929e-05
1.64334e-05
1.64748e-05
1.65174e-05
1.6561e-05
1.66059e-05
1.66519e-05
1.6699e-05
1.67474e-05
1.67969e-05
1.68476e-05
1.68995e-05
1.69524e-05
1.70064e-05
1.70613e-05
1.71172e-05
1.71739e-05
1.72313e-05
1.72895e-05
1.73475e-05
1.74052e-05
1.74625e-05
1.75192e-05
1.75755e-05
1.76312e-05
1.76862e-05
1.77406e-05
1.77942e-05
1.78472e-05
1.78993e-05
1.79506e-05
1.80011e-05
1.80507e-05
1.80994e-05
1.81472e-05
1.81941e-05
1.82401e-05
1.8285e-05
1.8329e-05
1.83721e-05
1.84141e-05
1.84551e-05
1.8495e-05
1.8534e-05
1.85718e-05
1.86087e-05
1.86444e-05
1.86791e-05
1.87127e-05
1.87452e-05
1.87768e-05
1.88072e-05
1.88367e-05
1.88651e-05
1.88927e-05
1.89192e-05
1.8945e-05
1.89697e-05
1.89939e-05
1.90169e-05
1.90397e-05
1.90612e-05
1.90828e-05
1.91029e-05
1.91235e-05
1.91424e-05
1.9162e-05
1.91798e-05
1.91984e-05
1.92157e-05
1.92332e-05
1.9251e-05
1.92712e-05
1.9242e-05
1.4302e-05
1.43211e-05
1.43411e-05
1.43617e-05
1.4383e-05
1.44049e-05
1.44274e-05
1.44502e-05
1.44735e-05
1.4497e-05
1.45208e-05
1.45447e-05
1.45687e-05
1.46974e-05
1.47113e-05
1.47255e-05
1.474e-05
1.47549e-05
1.47701e-05
1.47855e-05
1.48013e-05
1.48172e-05
1.48335e-05
1.48499e-05
1.48666e-05
1.48835e-05
1.49006e-05
1.49178e-05
1.49352e-05
1.49528e-05
1.49705e-05
1.49883e-05
1.50063e-05
1.50245e-05
1.50428e-05
1.50613e-05
1.50801e-05
1.5099e-05
1.51182e-05
1.51377e-05
1.51575e-05
1.51776e-05
1.5198e-05
1.52188e-05
1.52399e-05
1.52615e-05
1.52834e-05
1.53058e-05
1.53285e-05
1.53518e-05
1.53755e-05
1.53997e-05
1.54243e-05
1.54495e-05
1.54751e-05
1.55012e-05
1.55279e-05
1.5555e-05
1.55827e-05
1.56108e-05
1.56395e-05
1.56686e-05
1.56982e-05
1.57284e-05
1.57589e-05
1.57899e-05
1.58213e-05
1.58531e-05
1.58852e-05
1.59176e-05
1.59503e-05
1.59833e-05
1.60166e-05
1.60502e-05
1.60842e-05
1.61185e-05
1.61531e-05
1.61881e-05
1.62235e-05
1.62592e-05
1.62954e-05
1.6332e-05
1.63691e-05
1.64066e-05
1.64446e-05
1.64832e-05
1.65223e-05
1.65621e-05
1.66025e-05
1.66435e-05
1.66853e-05
1.67278e-05
1.67711e-05
1.68152e-05
1.68602e-05
1.6906e-05
1.69527e-05
1.70003e-05
1.70488e-05
1.70982e-05
1.71485e-05
1.71996e-05
1.72516e-05
1.73043e-05
1.73578e-05
1.7412e-05
1.7467e-05
1.75221e-05
1.75769e-05
1.76314e-05
1.76856e-05
1.77393e-05
1.77925e-05
1.78453e-05
1.78975e-05
1.79492e-05
1.80002e-05
1.80506e-05
1.81003e-05
1.81493e-05
1.81976e-05
1.82451e-05
1.82918e-05
1.83378e-05
1.83829e-05
1.84271e-05
1.84705e-05
1.85129e-05
1.85544e-05
1.8595e-05
1.86345e-05
1.86729e-05
1.87103e-05
1.87466e-05
1.87817e-05
1.88157e-05
1.88485e-05
1.88801e-05
1.89104e-05
1.89396e-05
1.89676e-05
1.89943e-05
1.90199e-05
1.90443e-05
1.90676e-05
1.90897e-05
1.91107e-05
1.91307e-05
1.91497e-05
1.91676e-05
1.91845e-05
1.92007e-05
1.92163e-05
1.92312e-05
1.92456e-05
1.92595e-05
1.92728e-05
1.92858e-05
1.92983e-05
1.93104e-05
1.93222e-05
1.93336e-05
1.93447e-05
1.93555e-05
1.9366e-05
1.93762e-05
1.93861e-05
1.93957e-05
1.9405e-05
1.9414e-05
1.94228e-05
1.94312e-05
1.94394e-05
1.94472e-05
1.94549e-05
1.94622e-05
1.94694e-05
1.94762e-05
1.9483e-05
1.94894e-05
1.94958e-05
1.95019e-05
1.95081e-05
1.9514e-05
1.95199e-05
1.95256e-05
1.95314e-05
1.95371e-05
1.95428e-05
1.95484e-05
1.95539e-05
1.95594e-05
1.95649e-05
1.95703e-05
1.95755e-05
1.95808e-05
1.95856e-05
1.95908e-05
1.95951e-05
1.96002e-05
1.96037e-05
1.96087e-05
1.96112e-05
1.96157e-05
1.96182e-05
1.96108e-05
1.46222e-05
1.4663e-05
1.47052e-05
1.47485e-05
1.47928e-05
1.48379e-05
1.48838e-05
1.49301e-05
1.49767e-05
1.50235e-05
1.50703e-05
1.51169e-05
1.51632e-05
1.55033e-05
1.55324e-05
1.55622e-05
1.55926e-05
1.56236e-05
1.56552e-05
1.56874e-05
1.57201e-05
1.57534e-05
1.57871e-05
1.58212e-05
1.58557e-05
1.58907e-05
1.59259e-05
1.59615e-05
1.59974e-05
1.60335e-05
1.60699e-05
1.61064e-05
1.61432e-05
1.61801e-05
1.62171e-05
1.62543e-05
1.62916e-05
1.63292e-05
1.6367e-05
1.64051e-05
1.64434e-05
1.64821e-05
1.65212e-05
1.65606e-05
1.66004e-05
1.66405e-05
1.66811e-05
1.67222e-05
1.67636e-05
1.68055e-05
1.68479e-05
1.68907e-05
1.6934e-05
1.69779e-05
1.70222e-05
1.70671e-05
1.71125e-05
1.71585e-05
1.7205e-05
1.72521e-05
1.72997e-05
1.73479e-05
1.73966e-05
1.74458e-05
1.74955e-05
1.75456e-05
1.75961e-05
1.76471e-05
1.76981e-05
1.77487e-05
1.7799e-05
1.78487e-05
1.78979e-05
1.79467e-05
1.79948e-05
1.80424e-05
1.80893e-05
1.81356e-05
1.81813e-05
1.82263e-05
1.82706e-05
1.83143e-05
1.83573e-05
1.83996e-05
1.84413e-05
1.84823e-05
1.85225e-05
1.85621e-05
1.86009e-05
1.8639e-05
1.86763e-05
1.87127e-05
1.87484e-05
1.8783e-05
1.88168e-05
1.88495e-05
1.88813e-05
1.8912e-05
1.89415e-05
1.897e-05
1.89974e-05
1.90236e-05
1.90487e-05
1.90727e-05
1.90956e-05
1.91174e-05
1.9138e-05
1.91577e-05
1.91766e-05
1.91948e-05
1.92122e-05
1.92289e-05
1.92449e-05
1.92603e-05
1.92751e-05
1.92893e-05
1.9303e-05
1.9316e-05
1.93286e-05
1.93407e-05
1.93522e-05
1.93632e-05
1.93738e-05
1.93839e-05
1.93935e-05
1.94026e-05
1.94113e-05
1.94195e-05
1.94273e-05
1.94347e-05
1.94417e-05
1.94484e-05
1.94547e-05
1.94608e-05
1.94666e-05
1.94722e-05
1.94775e-05
1.94828e-05
1.94878e-05
1.94928e-05
1.94977e-05
1.95025e-05
1.95073e-05
1.9512e-05
1.95167e-05
1.95214e-05
1.9526e-05
1.95306e-05
1.95351e-05
1.95396e-05
1.95441e-05
1.95485e-05
1.95529e-05
1.95572e-05
1.95614e-05
1.95656e-05
1.95696e-05
1.95736e-05
1.95774e-05
1.9581e-05
1.95845e-05
1.95879e-05
1.9591e-05
1.9594e-05
1.95968e-05
1.95993e-05
1.96017e-05
1.96039e-05
1.96059e-05
1.96078e-05
1.96095e-05
1.9611e-05
1.96125e-05
1.96138e-05
1.96151e-05
1.96163e-05
1.96175e-05
1.96186e-05
1.96197e-05
1.96209e-05
1.9622e-05
1.96232e-05
1.96244e-05
1.96256e-05
1.96269e-05
1.96282e-05
1.96295e-05
1.96309e-05
1.96323e-05
1.96337e-05
1.96351e-05
1.96366e-05
1.9638e-05
1.96395e-05
1.96409e-05
1.96424e-05
1.96437e-05
1.96452e-05
1.96464e-05
1.96479e-05
1.9649e-05
1.96505e-05
1.96514e-05
1.96528e-05
1.96538e-05
1.96519e-05
1.51906e-05
1.52671e-05
1.53455e-05
1.54256e-05
1.55069e-05
1.55889e-05
1.56712e-05
1.57532e-05
1.58347e-05
1.59152e-05
1.59945e-05
1.60723e-05
1.61484e-05
1.62227e-05
1.68644e-05
1.69111e-05
1.69584e-05
1.70064e-05
1.7055e-05
1.7104e-05
1.71535e-05
1.72034e-05
1.72535e-05
1.73039e-05
1.73545e-05
1.74051e-05
1.74558e-05
1.75066e-05
1.75573e-05
1.76079e-05
1.76584e-05
1.77089e-05
1.77592e-05
1.78093e-05
1.78589e-05
1.79078e-05
1.79559e-05
1.80032e-05
1.80498e-05
1.80955e-05
1.81404e-05
1.81846e-05
1.82279e-05
1.82704e-05
1.83121e-05
1.83531e-05
1.83932e-05
1.84326e-05
1.84713e-05
1.85092e-05
1.85464e-05
1.85828e-05
1.86185e-05
1.86535e-05
1.86877e-05
1.87212e-05
1.87539e-05
1.87858e-05
1.88168e-05
1.88471e-05
1.88764e-05
1.89049e-05
1.89324e-05
1.8959e-05
1.89846e-05
1.90093e-05
1.90329e-05
1.90556e-05
1.90772e-05
1.9098e-05
1.91181e-05
1.91374e-05
1.91561e-05
1.91741e-05
1.91916e-05
1.92084e-05
1.92248e-05
1.92406e-05
1.9256e-05
1.92708e-05
1.92852e-05
1.92992e-05
1.93126e-05
1.93256e-05
1.93381e-05
1.93501e-05
1.93615e-05
1.93725e-05
1.93829e-05
1.93927e-05
1.9402e-05
1.94108e-05
1.9419e-05
1.94267e-05
1.9434e-05
1.94409e-05
1.94474e-05
1.94535e-05
1.94594e-05
1.94651e-05
1.94705e-05
1.94757e-05
1.94809e-05
1.94859e-05
1.94908e-05
1.94957e-05
1.95005e-05
1.95052e-05
1.95098e-05
1.95145e-05
1.9519e-05
1.95235e-05
1.9528e-05
1.95323e-05
1.95366e-05
1.95408e-05
1.95448e-05
1.95488e-05
1.95526e-05
1.95562e-05
1.95596e-05
1.95629e-05
1.9566e-05
1.95689e-05
1.95717e-05
1.95743e-05
1.95767e-05
1.9579e-05
1.95811e-05
1.95831e-05
1.95851e-05
1.95869e-05
1.95887e-05
1.95904e-05
1.95921e-05
1.95938e-05
1.95955e-05
1.95971e-05
1.95988e-05
1.96004e-05
1.96021e-05
1.96038e-05
1.96054e-05
1.96071e-05
1.96087e-05
1.96104e-05
1.9612e-05
1.96135e-05
1.96151e-05
1.96166e-05
1.96181e-05
1.96195e-05
1.96209e-05
1.96223e-05
1.96236e-05
1.96249e-05
1.96261e-05
1.96273e-05
1.96286e-05
1.96297e-05
1.96309e-05
1.9632e-05
1.96331e-05
1.96342e-05
1.96353e-05
1.96363e-05
1.96374e-05
1.96384e-05
1.96395e-05
1.96405e-05
1.96416e-05
1.96426e-05
1.96437e-05
1.96447e-05
1.96459e-05
1.9647e-05
1.96481e-05
1.96493e-05
1.96505e-05
1.96517e-05
1.9653e-05
1.96543e-05
1.96557e-05
1.96571e-05
1.96586e-05
1.966e-05
1.96616e-05
1.96631e-05
1.96648e-05
1.96663e-05
1.9668e-05
1.96696e-05
1.96713e-05
1.96728e-05
1.96745e-05
1.96761e-05
1.96777e-05
1.96792e-05
1.96808e-05
1.96823e-05
1.96839e-05
1.96853e-05
1.96868e-05
1.96882e-05
1.96896e-05
1.96915e-05
1.96905e-05
1.62808e-05
1.64042e-05
1.65276e-05
1.66505e-05
1.67722e-05
1.6892e-05
1.70093e-05
1.71232e-05
1.72334e-05
1.73393e-05
1.74404e-05
1.75367e-05
1.76278e-05
1.77136e-05
1.84174e-05
1.84569e-05
1.84958e-05
1.85339e-05
1.85714e-05
1.86081e-05
1.8644e-05
1.86792e-05
1.87135e-05
1.87471e-05
1.87798e-05
1.88116e-05
1.88424e-05
1.88724e-05
1.89013e-05
1.89292e-05
1.8956e-05
1.89817e-05
1.90063e-05
1.90297e-05
1.9052e-05
1.90735e-05
1.90939e-05
1.91135e-05
1.91323e-05
1.91502e-05
1.91675e-05
1.9184e-05
1.92e-05
1.92154e-05
1.92303e-05
1.92448e-05
1.92587e-05
1.92723e-05
1.92854e-05
1.92981e-05
1.93103e-05
1.93221e-05
1.93335e-05
1.93444e-05
1.93548e-05
1.93647e-05
1.93741e-05
1.9383e-05
1.93915e-05
1.93995e-05
1.94071e-05
1.94144e-05
1.94213e-05
1.94279e-05
1.94342e-05
1.94403e-05
1.94462e-05
1.94519e-05
1.94575e-05
1.9463e-05
1.94684e-05
1.94737e-05
1.9479e-05
1.94841e-05
1.94892e-05
1.94943e-05
1.94992e-05
1.9504e-05
1.95086e-05
1.95132e-05
1.95175e-05
1.95217e-05
1.95257e-05
1.95294e-05
1.9533e-05
1.95364e-05
1.95396e-05
1.95426e-05
1.95455e-05
1.95482e-05
1.95508e-05
1.95533e-05
1.95557e-05
1.95581e-05
1.95604e-05
1.95627e-05
1.9565e-05
1.95673e-05
1.95696e-05
1.95719e-05
1.95743e-05
1.95767e-05
1.95791e-05
1.95814e-05
1.95839e-05
1.95862e-05
1.95885e-05
1.95908e-05
1.95931e-05
1.95952e-05
1.95973e-05
1.95992e-05
1.96011e-05
1.96029e-05
1.96045e-05
1.96061e-05
1.96075e-05
1.96089e-05
1.96101e-05
1.96113e-05
1.96123e-05
1.96133e-05
1.96143e-05
1.96152e-05
1.9616e-05
1.96168e-05
1.96176e-05
1.96184e-05
1.96192e-05
1.962e-05
1.96208e-05
1.96216e-05
1.96225e-05
1.96234e-05
1.96244e-05
1.96254e-05
1.96265e-05
1.96276e-05
1.96288e-05
1.963e-05
1.96313e-05
1.96326e-05
1.96339e-05
1.96354e-05
1.96368e-05
1.96383e-05
1.96398e-05
1.96413e-05
1.96428e-05
1.96443e-05
1.96458e-05
1.96474e-05
1.96489e-05
1.96504e-05
1.96519e-05
1.96534e-05
1.96549e-05
1.96563e-05
1.96577e-05
1.9659e-05
1.96603e-05
1.96616e-05
1.96629e-05
1.96642e-05
1.96655e-05
1.96668e-05
1.96681e-05
1.96694e-05
1.96708e-05
1.96721e-05
1.96735e-05
1.9675e-05
1.96765e-05
1.9678e-05
1.96796e-05
1.96812e-05
1.9683e-05
1.96847e-05
1.96866e-05
1.96884e-05
1.96904e-05
1.96924e-05
1.96944e-05
1.96965e-05
1.96987e-05
1.97008e-05
1.9703e-05
1.97051e-05
1.97074e-05
1.97096e-05
1.97118e-05
1.9714e-05
1.97163e-05
1.97186e-05
1.97209e-05
1.97231e-05
1.97254e-05
1.97277e-05
1.973e-05
1.97324e-05
1.97347e-05
1.97371e-05
1.97395e-05
1.97419e-05
1.97444e-05
1.97477e-05
1.97464e-05
1.78387e-05
1.79867e-05
1.81302e-05
1.82693e-05
1.84024e-05
1.85275e-05
1.86439e-05
1.8751e-05
1.88488e-05
1.89372e-05
1.90165e-05
1.90867e-05
1.91484e-05
1.92021e-05
1.91929e-05
1.92064e-05
1.92197e-05
1.92328e-05
1.92457e-05
1.92584e-05
1.92709e-05
1.92831e-05
1.9295e-05
1.93066e-05
1.93178e-05
1.93287e-05
1.93392e-05
1.93493e-05
1.9359e-05
1.93682e-05
1.93771e-05
1.93855e-05
1.93936e-05
1.94014e-05
1.94088e-05
1.94159e-05
1.94228e-05
1.94293e-05
1.94357e-05
1.94419e-05
1.94478e-05
1.94535e-05
1.94591e-05
1.94644e-05
1.94696e-05
1.94745e-05
1.94792e-05
1.94838e-05
1.94881e-05
1.94923e-05
1.94962e-05
1.95e-05
1.95036e-05
1.9507e-05
1.95103e-05
1.95135e-05
1.95165e-05
1.95195e-05
1.95224e-05
1.95253e-05
1.95281e-05
1.9531e-05
1.95338e-05
1.95367e-05
1.95396e-05
1.95425e-05
1.95454e-05
1.95484e-05
1.95513e-05
1.95543e-05
1.95571e-05
1.956e-05
1.95628e-05
1.95655e-05
1.95681e-05
1.95706e-05
1.95729e-05
1.95752e-05
1.95773e-05
1.95792e-05
1.95811e-05
1.95828e-05
1.95844e-05
1.95859e-05
1.95873e-05
1.95886e-05
1.95899e-05
1.95911e-05
1.95922e-05
1.95934e-05
1.95946e-05
1.95958e-05
1.9597e-05
1.95982e-05
1.95995e-05
1.96007e-05
1.96021e-05
1.96035e-05
1.96048e-05
1.96063e-05
1.96078e-05
1.96092e-05
1.96107e-05
1.96123e-05
1.96138e-05
1.96152e-05
1.96168e-05
1.96183e-05
1.96197e-05
1.96212e-05
1.96227e-05
1.96241e-05
1.96255e-05
1.96269e-05
1.96281e-05
1.96294e-05
1.96306e-05
1.96318e-05
1.96329e-05
1.9634e-05
1.9635e-05
1.96361e-05
1.9637e-05
1.9638e-05
1.9639e-05
1.964e-05
1.96409e-05
1.96419e-05
1.9643e-05
1.9644e-05
1.96452e-05
1.96463e-05
1.96475e-05
1.96488e-05
1.96502e-05
1.96516e-05
1.9653e-05
1.96545e-05
1.96561e-05
1.96578e-05
1.96595e-05
1.96612e-05
1.9663e-05
1.96648e-05
1.96667e-05
1.96686e-05
1.96705e-05
1.96724e-05
1.96744e-05
1.96764e-05
1.96783e-05
1.96803e-05
1.96822e-05
1.96841e-05
1.96859e-05
1.96878e-05
1.96897e-05
1.96915e-05
1.96934e-05
1.96952e-05
1.96971e-05
1.96989e-05
1.97008e-05
1.97027e-05
1.97046e-05
1.97066e-05
1.97086e-05
1.97107e-05
1.97129e-05
1.97151e-05
1.97174e-05
1.97198e-05
1.97222e-05
1.97248e-05
1.97274e-05
1.97301e-05
1.97329e-05
1.97358e-05
1.97388e-05
1.97419e-05
1.9745e-05
1.97483e-05
1.97516e-05
1.97549e-05
1.97584e-05
1.97618e-05
1.97654e-05
1.9769e-05
1.97728e-05
1.97765e-05
1.97804e-05
1.97842e-05
1.97882e-05
1.97922e-05
1.97963e-05
1.98004e-05
1.98047e-05
1.9809e-05
1.98134e-05
1.98179e-05
1.98225e-05
1.98272e-05
1.98321e-05
1.98371e-05
1.98421e-05
1.98488e-05
1.98468e-05
1.94587e-05
1.95599e-05
1.9647e-05
1.97203e-05
1.97818e-05
1.98329e-05
1.98745e-05
1.99072e-05
1.99316e-05
1.99488e-05
1.99595e-05
1.9964e-05
1.99635e-05
1.94254e-05
1.94289e-05
1.94324e-05
1.9436e-05
1.94396e-05
1.94432e-05
1.94469e-05
1.94507e-05
1.94545e-05
1.94584e-05
1.94623e-05
1.94663e-05
1.94704e-05
1.94745e-05
1.94786e-05
1.94828e-05
1.9487e-05
1.94912e-05
1.94955e-05
1.94997e-05
1.95039e-05
1.9508e-05
1.95121e-05
1.95161e-05
1.95199e-05
1.95236e-05
1.95271e-05
1.95304e-05
1.95336e-05
1.95365e-05
1.95393e-05
1.9542e-05
1.95444e-05
1.95468e-05
1.95489e-05
1.9551e-05
1.9553e-05
1.95549e-05
1.95567e-05
1.95585e-05
1.95603e-05
1.9562e-05
1.95637e-05
1.95654e-05
1.95672e-05
1.95689e-05
1.95707e-05
1.95725e-05
1.95743e-05
1.95762e-05
1.95781e-05
1.95799e-05
1.95818e-05
1.95836e-05
1.95855e-05
1.95872e-05
1.9589e-05
1.95908e-05
1.95924e-05
1.95941e-05
1.95956e-05
1.95971e-05
1.95986e-05
1.95999e-05
1.96012e-05
1.96026e-05
1.96038e-05
1.9605e-05
1.96062e-05
1.96074e-05
1.96084e-05
1.96096e-05
1.96108e-05
1.96119e-05
1.96131e-05
1.96144e-05
1.96157e-05
1.9617e-05
1.96184e-05
1.96198e-05
1.96212e-05
1.96227e-05
1.96243e-05
1.96258e-05
1.96274e-05
1.9629e-05
1.96308e-05
1.96324e-05
1.9634e-05
1.96358e-05
1.96374e-05
1.9639e-05
1.96407e-05
1.96423e-05
1.96438e-05
1.96455e-05
1.96471e-05
1.96485e-05
1.965e-05
1.96516e-05
1.9653e-05
1.96544e-05
1.96558e-05
1.96572e-05
1.96586e-05
1.96599e-05
1.96612e-05
1.96626e-05
1.96639e-05
1.96653e-05
1.96667e-05
1.96682e-05
1.96697e-05
1.96712e-05
1.96728e-05
1.96745e-05
1.96763e-05
1.96781e-05
1.968e-05
1.9682e-05
1.9684e-05
1.96861e-05
1.96883e-05
1.96905e-05
1.96928e-05
1.96952e-05
1.96976e-05
1.97e-05
1.97025e-05
1.97051e-05
1.97077e-05
1.97103e-05
1.97129e-05
1.97155e-05
1.97182e-05
1.97209e-05
1.97236e-05
1.97263e-05
1.97291e-05
1.97319e-05
1.97347e-05
1.97375e-05
1.97404e-05
1.97433e-05
1.97462e-05
1.97492e-05
1.97523e-05
1.97555e-05
1.97587e-05
1.9762e-05