/*--------------------------------*- C++ -*----------------------------------*\
| =========                 |                                                 |
| \\      /  F ield         | OpenFOAM: The Open Source CFD Toolbox           |
|  \\    /   O peration     | Version:  v1706                                 |
|   \\  /    A nd           | Web:      www.OpenFOAM.com                      |
|    \\/     M anipulation  |                                                 |
\*---------------------------------------------------------------------------*/
FoamFile
{
    version     2.0;
    format      ascii;
    class       volScalarField;
    location    "1.6e-05";
    object      kappave;
}
// * * * * * * * * * * * * * * * * * * * * * * * * * * * * * * * * * * * * * //

dimensions      [1 1 -3 -1 0 0 0];


internalField   nonuniform List<scalar> 
30104
(
1.46042e-10
1.46042e-10
1.46043e-10
1.46043e-10
1.46043e-10
1.46044e-10
1.46044e-10
1.46045e-10
1.46045e-10
1.46045e-10
1.46046e-10
1.46046e-10
1.46047e-10
1.46047e-10
1.46047e-10
1.46048e-10
1.46048e-10
1.46044e-10
1.46044e-10
1.46044e-10
1.46044e-10
1.46044e-10
1.46044e-10
1.46044e-10
1.46044e-10
1.46044e-10
1.46045e-10
1.46045e-10
1.46045e-10
1.46045e-10
1.46045e-10
1.46045e-10
1.46045e-10
1.46045e-10
1.46045e-10
1.46045e-10
1.46045e-10
1.46045e-10
1.46046e-10
1.46046e-10
1.46046e-10
1.46046e-10
1.46046e-10
1.46046e-10
1.46046e-10
1.46046e-10
1.46046e-10
1.46046e-10
1.46046e-10
1.46047e-10
1.46047e-10
1.46047e-10
1.46047e-10
1.46047e-10
1.46047e-10
1.46047e-10
1.46047e-10
1.46047e-10
1.46047e-10
1.46048e-10
1.46048e-10
1.46048e-10
1.46048e-10
1.46048e-10
1.46048e-10
1.46048e-10
1.46048e-10
1.46049e-10
1.46049e-10
1.46049e-10
1.46049e-10
1.46049e-10
1.46049e-10
1.46049e-10
1.46049e-10
1.4605e-10
1.4605e-10
1.4605e-10
1.4605e-10
1.4605e-10
1.4605e-10
1.4605e-10
1.46051e-10
1.46051e-10
1.46051e-10
1.46051e-10
1.46051e-10
1.46051e-10
1.46051e-10
1.46052e-10
1.46052e-10
1.46052e-10
1.46052e-10
1.46052e-10
1.46053e-10
1.46053e-10
1.46053e-10
1.46053e-10
1.46053e-10
1.46053e-10
1.46054e-10
1.46054e-10
1.46054e-10
1.46054e-10
1.46054e-10
1.46055e-10
1.46055e-10
1.46055e-10
1.46055e-10
1.46055e-10
1.46056e-10
1.46056e-10
1.46056e-10
1.46056e-10
1.46056e-10
1.46057e-10
1.46057e-10
1.46057e-10
1.46057e-10
1.46058e-10
1.46058e-10
1.46058e-10
1.46058e-10
1.46059e-10
1.46059e-10
1.46059e-10
1.46059e-10
1.4606e-10
1.4606e-10
1.4606e-10
1.4606e-10
1.46061e-10
1.46061e-10
1.46061e-10
1.46062e-10
1.46062e-10
1.46062e-10
1.46062e-10
1.46063e-10
1.46063e-10
1.46063e-10
1.46064e-10
1.46064e-10
1.46064e-10
1.46065e-10
1.46065e-10
1.46065e-10
1.46066e-10
1.46066e-10
1.46066e-10
1.46067e-10
1.46067e-10
1.46067e-10
1.46068e-10
1.46068e-10
1.46068e-10
1.46069e-10
1.46069e-10
1.4607e-10
1.4607e-10
1.4607e-10
1.46071e-10
1.46071e-10
1.46072e-10
1.46072e-10
1.46073e-10
1.46073e-10
1.46074e-10
1.46074e-10
1.46075e-10
1.46075e-10
1.46076e-10
1.46076e-10
1.46077e-10
1.46077e-10
1.46078e-10
1.46079e-10
1.46079e-10
1.4608e-10
1.4608e-10
1.46081e-10
1.46082e-10
1.46082e-10
1.46083e-10
1.46084e-10
1.46084e-10
1.46085e-10
1.46086e-10
1.46086e-10
1.46087e-10
1.46088e-10
1.46088e-10
1.46089e-10
1.4609e-10
1.4609e-10
1.46091e-10
1.46092e-10
1.46092e-10
1.46093e-10
1.46094e-10
1.46094e-10
1.46095e-10
1.46096e-10
1.46096e-10
1.46097e-10
1.46098e-10
1.46098e-10
1.46099e-10
1.46098e-10
1.4609e-10
1.46062e-10
1.46064e-10
1.46066e-10
1.46068e-10
1.4607e-10
1.46072e-10
1.46074e-10
1.46077e-10
1.46079e-10
1.46082e-10
1.46084e-10
1.46087e-10
1.46089e-10
1.46092e-10
1.46094e-10
1.46097e-10
1.46099e-10
1.46077e-10
1.46078e-10
1.46078e-10
1.46079e-10
1.4608e-10
1.4608e-10
1.46081e-10
1.46081e-10
1.46082e-10
1.46083e-10
1.46083e-10
1.46084e-10
1.46085e-10
1.46085e-10
1.46086e-10
1.46086e-10
1.46087e-10
1.46088e-10
1.46088e-10
1.46089e-10
1.4609e-10
1.4609e-10
1.46091e-10
1.46092e-10
1.46092e-10
1.46093e-10
1.46094e-10
1.46094e-10
1.46095e-10
1.46096e-10
1.46097e-10
1.46097e-10
1.46098e-10
1.46099e-10
1.461e-10
1.461e-10
1.46101e-10
1.46102e-10
1.46103e-10
1.46104e-10
1.46104e-10
1.46105e-10
1.46106e-10
1.46107e-10
1.46108e-10
1.46109e-10
1.4611e-10
1.46111e-10
1.46111e-10
1.46112e-10
1.46113e-10
1.46114e-10
1.46115e-10
1.46116e-10
1.46117e-10
1.46118e-10
1.46119e-10
1.4612e-10
1.46122e-10
1.46123e-10
1.46124e-10
1.46125e-10
1.46126e-10
1.46127e-10
1.46128e-10
1.4613e-10
1.46131e-10
1.46132e-10
1.46133e-10
1.46135e-10
1.46136e-10
1.46137e-10
1.46139e-10
1.4614e-10
1.46141e-10
1.46143e-10
1.46144e-10
1.46145e-10
1.46147e-10
1.46148e-10
1.4615e-10
1.46151e-10
1.46153e-10
1.46154e-10
1.46156e-10
1.46157e-10
1.46159e-10
1.46161e-10
1.46162e-10
1.46164e-10
1.46166e-10
1.46167e-10
1.46169e-10
1.46171e-10
1.46173e-10
1.46174e-10
1.46176e-10
1.46178e-10
1.4618e-10
1.46182e-10
1.46184e-10
1.46186e-10
1.46188e-10
1.4619e-10
1.46193e-10
1.46195e-10
1.46197e-10
1.46199e-10
1.46202e-10
1.46204e-10
1.46207e-10
1.46209e-10
1.46212e-10
1.46214e-10
1.46217e-10
1.46219e-10
1.46222e-10
1.46225e-10
1.46228e-10
1.4623e-10
1.46233e-10
1.46236e-10
1.46239e-10
1.46242e-10
1.46245e-10
1.46248e-10
1.46251e-10
1.46254e-10
1.46257e-10
1.4626e-10
1.46263e-10
1.46267e-10
1.4627e-10
1.46273e-10
1.46276e-10
1.4628e-10
1.46283e-10
1.46287e-10
1.4629e-10
1.46294e-10
1.46297e-10
1.46301e-10
1.46304e-10
1.46308e-10
1.46312e-10
1.46316e-10
1.4632e-10
1.46324e-10
1.46328e-10
1.46332e-10
1.46336e-10
1.46341e-10
1.46345e-10
1.4635e-10
1.46355e-10
1.46359e-10
1.46364e-10
1.46369e-10
1.46374e-10
1.4638e-10
1.46385e-10
1.4639e-10
1.46396e-10
1.46401e-10
1.46407e-10
1.46413e-10
1.46419e-10
1.46425e-10
1.46431e-10
1.46438e-10
1.46444e-10
1.4645e-10
1.46457e-10
1.46463e-10
1.4647e-10
1.46477e-10
1.46484e-10
1.4649e-10
1.46497e-10
1.46504e-10
1.46511e-10
1.46518e-10
1.46525e-10
1.46532e-10
1.4654e-10
1.46547e-10
1.46554e-10
1.46561e-10
1.46569e-10
1.46576e-10
1.46584e-10
1.46583e-10
1.46538e-10
1.46112e-10
1.46118e-10
1.46124e-10
1.4613e-10
1.46137e-10
1.46144e-10
1.46151e-10
1.46158e-10
1.46165e-10
1.46173e-10
1.4618e-10
1.46188e-10
1.46196e-10
1.46204e-10
1.46212e-10
1.46219e-10
1.46172e-10
1.46174e-10
1.46176e-10
1.46179e-10
1.46181e-10
1.46183e-10
1.46186e-10
1.46188e-10
1.4619e-10
1.46193e-10
1.46195e-10
1.46198e-10
1.462e-10
1.46202e-10
1.46205e-10
1.46207e-10
1.4621e-10
1.46212e-10
1.46215e-10
1.46217e-10
1.4622e-10
1.46222e-10
1.46225e-10
1.46227e-10
1.4623e-10
1.46233e-10
1.46236e-10
1.46238e-10
1.46241e-10
1.46244e-10
1.46247e-10
1.4625e-10
1.46253e-10
1.46256e-10
1.46259e-10
1.46262e-10
1.46265e-10
1.46268e-10
1.46272e-10
1.46275e-10
1.46278e-10
1.46282e-10
1.46285e-10
1.46289e-10
1.46292e-10
1.46296e-10
1.463e-10
1.46304e-10
1.46307e-10
1.46311e-10
1.46315e-10
1.46319e-10
1.46323e-10
1.46327e-10
1.46332e-10
1.46336e-10
1.4634e-10
1.46345e-10
1.46349e-10
1.46354e-10
1.46358e-10
1.46363e-10
1.46368e-10
1.46373e-10
1.46378e-10
1.46383e-10
1.46388e-10
1.46393e-10
1.46399e-10
1.46404e-10
1.4641e-10
1.46415e-10
1.46421e-10
1.46427e-10
1.46433e-10
1.46439e-10
1.46445e-10
1.46451e-10
1.46458e-10
1.46464e-10
1.46471e-10
1.46477e-10
1.46484e-10
1.46491e-10
1.46498e-10
1.46505e-10
1.46512e-10
1.46519e-10
1.46526e-10
1.46534e-10
1.46541e-10
1.46549e-10
1.46556e-10
1.46564e-10
1.46572e-10
1.4658e-10
1.46589e-10
1.46597e-10
1.46606e-10
1.46614e-10
1.46623e-10
1.46632e-10
1.46642e-10
1.46651e-10
1.46661e-10
1.4667e-10
1.4668e-10
1.46691e-10
1.46701e-10
1.46712e-10
1.46723e-10
1.46734e-10
1.46745e-10
1.46756e-10
1.46768e-10
1.4678e-10
1.46792e-10
1.46804e-10
1.46817e-10
1.4683e-10
1.46843e-10
1.46856e-10
1.4687e-10
1.46883e-10
1.46897e-10
1.46911e-10
1.46925e-10
1.4694e-10
1.46954e-10
1.46969e-10
1.46984e-10
1.46999e-10
1.47015e-10
1.4703e-10
1.47046e-10
1.47062e-10
1.47078e-10
1.47094e-10
1.4711e-10
1.47127e-10
1.47144e-10
1.47162e-10
1.47179e-10
1.47197e-10
1.47215e-10
1.47234e-10
1.47253e-10
1.47272e-10
1.47292e-10
1.47312e-10
1.47333e-10
1.47355e-10
1.47376e-10
1.47399e-10
1.47422e-10
1.47445e-10
1.4747e-10
1.47495e-10
1.4752e-10
1.47546e-10
1.47573e-10
1.47601e-10
1.4763e-10
1.47659e-10
1.47689e-10
1.47719e-10
1.47751e-10
1.47783e-10
1.47815e-10
1.47849e-10
1.47883e-10
1.47918e-10
1.47953e-10
1.47989e-10
1.48025e-10
1.48062e-10
1.481e-10
1.48138e-10
1.48176e-10
1.48215e-10
1.48254e-10
1.48293e-10
1.48332e-10
1.48372e-10
1.48412e-10
1.48452e-10
1.48492e-10
1.48532e-10
1.48573e-10
1.48613e-10
1.48656e-10
1.4867e-10
1.48509e-10
1.46237e-10
1.46252e-10
1.46268e-10
1.46285e-10
1.46302e-10
1.4632e-10
1.46338e-10
1.46357e-10
1.46377e-10
1.46397e-10
1.46417e-10
1.46437e-10
1.46458e-10
1.46479e-10
1.46499e-10
1.4652e-10
1.46429e-10
1.46436e-10
1.46444e-10
1.46451e-10
1.46458e-10
1.46466e-10
1.46473e-10
1.46481e-10
1.46489e-10
1.46497e-10
1.46505e-10
1.46512e-10
1.4652e-10
1.46529e-10
1.46537e-10
1.46545e-10
1.46553e-10
1.46561e-10
1.4657e-10
1.46578e-10
1.46587e-10
1.46595e-10
1.46604e-10
1.46613e-10
1.46622e-10
1.46631e-10
1.4664e-10
1.4665e-10
1.46659e-10
1.46669e-10
1.46679e-10
1.46689e-10
1.467e-10
1.4671e-10
1.46721e-10
1.46732e-10
1.46743e-10
1.46754e-10
1.46765e-10
1.46777e-10
1.46789e-10
1.46801e-10
1.46813e-10
1.46826e-10
1.46838e-10
1.46851e-10
1.46864e-10
1.46877e-10
1.46891e-10
1.46904e-10
1.46918e-10
1.46932e-10
1.46947e-10
1.46961e-10
1.46976e-10
1.46991e-10
1.47006e-10
1.47022e-10
1.47038e-10
1.47054e-10
1.4707e-10
1.47087e-10
1.47104e-10
1.47122e-10
1.4714e-10
1.47158e-10
1.47177e-10
1.47195e-10
1.47215e-10
1.47235e-10
1.47255e-10
1.47275e-10
1.47296e-10
1.47317e-10
1.47339e-10
1.47361e-10
1.47384e-10
1.47407e-10
1.4743e-10
1.47454e-10
1.47478e-10
1.47503e-10
1.47528e-10
1.47553e-10
1.47579e-10
1.47605e-10
1.47632e-10
1.47659e-10
1.47687e-10
1.47714e-10
1.47743e-10
1.47771e-10
1.478e-10
1.4783e-10
1.4786e-10
1.4789e-10
1.47921e-10
1.47953e-10
1.47985e-10
1.48018e-10
1.48052e-10
1.48086e-10
1.48121e-10
1.48156e-10
1.48193e-10
1.4823e-10
1.48268e-10
1.48307e-10
1.48347e-10
1.48388e-10
1.4843e-10
1.48473e-10
1.48517e-10
1.48562e-10
1.48608e-10
1.48655e-10
1.48704e-10
1.48753e-10
1.48804e-10
1.48856e-10
1.48909e-10
1.48964e-10
1.49019e-10
1.49076e-10
1.49134e-10
1.49192e-10
1.49252e-10
1.49313e-10
1.49375e-10
1.49438e-10
1.49501e-10
1.49566e-10
1.49631e-10
1.49697e-10
1.49763e-10
1.4983e-10
1.49897e-10
1.49966e-10
1.50034e-10
1.50104e-10
1.50174e-10
1.50244e-10
1.50316e-10
1.50388e-10
1.50462e-10
1.50536e-10
1.50611e-10
1.50688e-10
1.50765e-10
1.50844e-10
1.50925e-10
1.51007e-10
1.51091e-10
1.51176e-10
1.51264e-10
1.51353e-10
1.51445e-10
1.51539e-10
1.51635e-10
1.51734e-10
1.51836e-10
1.5194e-10
1.52048e-10
1.52158e-10
1.52272e-10
1.52389e-10
1.5251e-10
1.52634e-10
1.52762e-10
1.52893e-10
1.53028e-10
1.53167e-10
1.5331e-10
1.53456e-10
1.53606e-10
1.53759e-10
1.53916e-10
1.54076e-10
1.54239e-10
1.54406e-10
1.54575e-10
1.54747e-10
1.54922e-10
1.55099e-10
1.55278e-10
1.55458e-10
1.5564e-10
1.55823e-10
1.56006e-10
1.56191e-10
1.56374e-10
1.56532e-10
1.56095e-10
1.46538e-10
1.46576e-10
1.46616e-10
1.46658e-10
1.46701e-10
1.46745e-10
1.46791e-10
1.46838e-10
1.46885e-10
1.46934e-10
1.46984e-10
1.47034e-10
1.47084e-10
1.47134e-10
1.47185e-10
1.47104e-10
1.47125e-10
1.47147e-10
1.47169e-10
1.47191e-10
1.47213e-10
1.47236e-10
1.47259e-10
1.47283e-10
1.47307e-10
1.4733e-10
1.47355e-10
1.47379e-10
1.47403e-10
1.47428e-10
1.47453e-10
1.47478e-10
1.47504e-10
1.47529e-10
1.47555e-10
1.47581e-10
1.47608e-10
1.47635e-10
1.47662e-10
1.4769e-10
1.47718e-10
1.47747e-10
1.47776e-10
1.47806e-10
1.47836e-10
1.47867e-10
1.47899e-10
1.47931e-10
1.47964e-10
1.47997e-10
1.48031e-10
1.48066e-10
1.48102e-10
1.48138e-10
1.48175e-10
1.48212e-10
1.4825e-10
1.48289e-10
1.48329e-10
1.4837e-10
1.48411e-10
1.48453e-10
1.48495e-10
1.48539e-10
1.48583e-10
1.48627e-10
1.48673e-10
1.48719e-10
1.48766e-10
1.48814e-10
1.48863e-10
1.48912e-10
1.48963e-10
1.49014e-10
1.49067e-10
1.4912e-10
1.49174e-10
1.4923e-10
1.49287e-10
1.49344e-10
1.49403e-10
1.49464e-10
1.49525e-10
1.49588e-10
1.49653e-10
1.49719e-10
1.49786e-10
1.49855e-10
1.49926e-10
1.49998e-10
1.50072e-10
1.50147e-10
1.50225e-10
1.50303e-10
1.50384e-10
1.50467e-10
1.50551e-10
1.50636e-10
1.50724e-10
1.50813e-10
1.50904e-10
1.50996e-10
1.5109e-10
1.51185e-10
1.51281e-10
1.51379e-10
1.51478e-10
1.51579e-10
1.5168e-10
1.51783e-10
1.51887e-10
1.51993e-10
1.521e-10
1.52209e-10
1.52319e-10
1.52431e-10
1.52545e-10
1.5266e-10
1.52778e-10
1.52898e-10
1.5302e-10
1.53145e-10
1.53272e-10
1.53401e-10
1.53534e-10
1.53669e-10
1.53807e-10
1.53949e-10
1.54094e-10
1.54242e-10
1.54394e-10
1.5455e-10
1.54709e-10
1.54873e-10
1.55041e-10
1.55213e-10
1.55389e-10
1.55569e-10
1.55754e-10
1.55944e-10
1.56137e-10
1.56335e-10
1.56538e-10
1.56744e-10
1.56955e-10
1.57169e-10
1.57388e-10
1.5761e-10
1.57835e-10
1.58063e-10
1.58294e-10
1.58527e-10
1.58762e-10
1.58999e-10
1.59236e-10
1.59476e-10
1.59717e-10
1.59959e-10
1.60203e-10
1.60449e-10
1.60697e-10
1.60947e-10
1.61199e-10
1.61453e-10
1.6171e-10
1.6197e-10
1.62234e-10
1.62501e-10
1.62772e-10
1.63047e-10
1.63327e-10
1.63612e-10
1.63903e-10
1.642e-10
1.64504e-10
1.64815e-10
1.65133e-10
1.65461e-10
1.65797e-10
1.66143e-10
1.66499e-10
1.66865e-10
1.67243e-10
1.67632e-10
1.68034e-10
1.68448e-10
1.68875e-10
1.69314e-10
1.69767e-10
1.70233e-10
1.70711e-10
1.71203e-10
1.71707e-10
1.72223e-10
1.7275e-10
1.7329e-10
1.73838e-10
1.74398e-10
1.74966e-10
1.75542e-10
1.76127e-10
1.76717e-10
1.77319e-10
1.77904e-10
1.7851e-10
1.79066e-10
1.79743e-10
1.7937e-10
1.47163e-10
1.4725e-10
1.47341e-10
1.47436e-10
1.47534e-10
1.47635e-10
1.47739e-10
1.47846e-10
1.47956e-10
1.48067e-10
1.4818e-10
1.48295e-10
1.48411e-10
1.48527e-10
1.48643e-10
1.48759e-10
1.48798e-10
1.48855e-10
1.48914e-10
1.48974e-10
1.49035e-10
1.49097e-10
1.49161e-10
1.49225e-10
1.49291e-10
1.49357e-10
1.49424e-10
1.49492e-10
1.49561e-10
1.49631e-10
1.49701e-10
1.49772e-10
1.49844e-10
1.49916e-10
1.49989e-10
1.50063e-10
1.50138e-10
1.50214e-10
1.50291e-10
1.50369e-10
1.50449e-10
1.50529e-10
1.50612e-10
1.50695e-10
1.5078e-10
1.50867e-10
1.50956e-10
1.51046e-10
1.51138e-10
1.51233e-10
1.51329e-10
1.51427e-10
1.51527e-10
1.5163e-10
1.51734e-10
1.51841e-10
1.5195e-10
1.52061e-10
1.52175e-10
1.5229e-10
1.52408e-10
1.52529e-10
1.52651e-10
1.52776e-10
1.52903e-10
1.53032e-10
1.53163e-10
1.53297e-10
1.53432e-10
1.53569e-10
1.53708e-10
1.53849e-10
1.53992e-10
1.54137e-10
1.54285e-10
1.54434e-10
1.54586e-10
1.54741e-10
1.54898e-10
1.55058e-10
1.55221e-10
1.55387e-10
1.55557e-10
1.55729e-10
1.55906e-10
1.56085e-10
1.56269e-10
1.56457e-10
1.56649e-10
1.56845e-10
1.57045e-10
1.5725e-10
1.5746e-10
1.57674e-10
1.57893e-10
1.58117e-10
1.58346e-10
1.5858e-10
1.58819e-10
1.59063e-10
1.59312e-10
1.59565e-10
1.59824e-10
1.60087e-10
1.60354e-10
1.60626e-10
1.60902e-10
1.61182e-10
1.61465e-10
1.61751e-10
1.62039e-10
1.6233e-10
1.62623e-10
1.62918e-10
1.63216e-10
1.63516e-10
1.63819e-10
1.64125e-10
1.64434e-10
1.64746e-10
1.65061e-10
1.6538e-10
1.65702e-10
1.66029e-10
1.6636e-10
1.66695e-10
1.67036e-10
1.67383e-10
1.67735e-10
1.68095e-10
1.68461e-10
1.68835e-10
1.69217e-10
1.69607e-10
1.70007e-10
1.70417e-10
1.70838e-10
1.71269e-10
1.71711e-10
1.72165e-10
1.72631e-10
1.73109e-10
1.73599e-10
1.74102e-10
1.74617e-10
1.75144e-10
1.75683e-10
1.76233e-10
1.76794e-10
1.77365e-10
1.77946e-10
1.78536e-10
1.79133e-10
1.79738e-10
1.80341e-10
1.80941e-10
1.81536e-10
1.82126e-10
1.82711e-10
1.8329e-10
1.83862e-10
1.84427e-10
1.84985e-10
1.85535e-10
1.86077e-10
1.8661e-10
1.87135e-10
1.87651e-10
1.88157e-10
1.88654e-10
1.89142e-10
1.8962e-10
1.90087e-10
1.90545e-10
1.90992e-10
1.91429e-10
1.91855e-10
1.9227e-10
1.92675e-10
1.93069e-10
1.93451e-10
1.93823e-10
1.94184e-10
1.94533e-10
1.94871e-10
1.95199e-10
1.95516e-10
1.95822e-10
1.96118e-10
1.96404e-10
1.9668e-10
1.96948e-10
1.97205e-10
1.97456e-10
1.97696e-10
1.97933e-10
1.98156e-10
1.98381e-10
1.9859e-10
1.98804e-10
1.99e-10
1.99204e-10
1.99389e-10
1.99582e-10
1.99762e-10
1.99944e-10
2.00129e-10
2.00339e-10
2.00036e-10
1.4868e-10
1.48879e-10
1.49086e-10
1.49301e-10
1.49523e-10
1.49751e-10
1.49984e-10
1.50221e-10
1.50463e-10
1.50708e-10
1.50955e-10
1.51204e-10
1.51453e-10
1.52791e-10
1.52935e-10
1.53083e-10
1.53234e-10
1.53389e-10
1.53546e-10
1.53707e-10
1.53871e-10
1.54037e-10
1.54206e-10
1.54377e-10
1.5455e-10
1.54725e-10
1.54903e-10
1.55082e-10
1.55263e-10
1.55446e-10
1.5563e-10
1.55815e-10
1.56002e-10
1.56191e-10
1.56382e-10
1.56574e-10
1.56769e-10
1.56966e-10
1.57166e-10
1.57368e-10
1.57574e-10
1.57783e-10
1.57995e-10
1.58211e-10
1.58431e-10
1.58655e-10
1.58883e-10
1.59115e-10
1.59352e-10
1.59594e-10
1.5984e-10
1.60092e-10
1.60348e-10
1.60609e-10
1.60876e-10
1.61147e-10
1.61424e-10
1.61707e-10
1.61994e-10
1.62287e-10
1.62585e-10
1.62887e-10
1.63196e-10
1.63508e-10
1.63826e-10
1.64148e-10
1.64475e-10
1.64805e-10
1.65139e-10
1.65476e-10
1.65815e-10
1.66158e-10
1.66505e-10
1.66854e-10
1.67207e-10
1.67564e-10
1.67924e-10
1.68288e-10
1.68656e-10
1.69027e-10
1.69404e-10
1.69784e-10
1.70169e-10
1.70559e-10
1.70955e-10
1.71356e-10
1.71763e-10
1.72176e-10
1.72596e-10
1.73022e-10
1.73457e-10
1.73899e-10
1.74349e-10
1.74807e-10
1.75275e-10
1.75751e-10
1.76237e-10
1.76732e-10
1.77236e-10
1.77749e-10
1.78272e-10
1.78803e-10
1.79343e-10
1.79892e-10
1.80448e-10
1.81012e-10
1.81583e-10
1.82156e-10
1.82726e-10
1.83292e-10
1.83855e-10
1.84414e-10
1.84967e-10
1.85516e-10
1.86059e-10
1.86595e-10
1.87126e-10
1.8765e-10
1.88167e-10
1.88676e-10
1.89178e-10
1.89672e-10
1.90158e-10
1.90635e-10
1.91104e-10
1.91564e-10
1.92015e-10
1.92456e-10
1.92888e-10
1.93309e-10
1.9372e-10
1.9412e-10
1.94508e-10
1.94885e-10
1.95251e-10
1.95604e-10
1.95945e-10
1.96273e-10
1.96589e-10
1.96892e-10
1.97183e-10
1.97461e-10
1.97727e-10
1.9798e-10
1.98222e-10
1.98452e-10
1.98671e-10
1.98879e-10
1.99076e-10
1.99262e-10
1.99438e-10
1.99607e-10
1.99768e-10
1.99923e-10
2.00073e-10
2.00217e-10
2.00356e-10
2.0049e-10
2.00621e-10
2.00747e-10
2.00869e-10
2.00988e-10
2.01103e-10
2.01216e-10
2.01325e-10
2.01431e-10
2.01534e-10
2.01633e-10
2.0173e-10
2.01824e-10
2.01915e-10
2.02003e-10
2.02087e-10
2.02169e-10
2.02249e-10
2.02325e-10
2.02399e-10
2.02471e-10
2.02541e-10
2.02608e-10
2.02674e-10
2.02738e-10
2.02801e-10
2.02863e-10
2.02925e-10
2.02984e-10
2.03044e-10
2.03103e-10
2.03162e-10
2.0322e-10
2.03278e-10
2.03336e-10
2.03392e-10
2.03449e-10
2.03502e-10
2.03558e-10
2.03608e-10
2.03662e-10
2.03706e-10
2.03759e-10
2.03796e-10
2.03848e-10
2.03874e-10
2.03921e-10
2.03946e-10
2.0387e-10
1.52009e-10
1.52434e-10
1.52872e-10
1.53322e-10
1.53783e-10
1.54252e-10
1.54728e-10
1.5521e-10
1.55695e-10
1.56181e-10
1.56667e-10
1.57152e-10
1.57633e-10
1.61169e-10
1.61471e-10
1.61781e-10
1.62097e-10
1.62419e-10
1.62748e-10
1.63083e-10
1.63423e-10
1.63768e-10
1.64119e-10
1.64474e-10
1.64833e-10
1.65196e-10
1.65562e-10
1.65932e-10
1.66305e-10
1.66681e-10
1.67059e-10
1.67439e-10
1.67821e-10
1.68204e-10
1.68589e-10
1.68976e-10
1.69364e-10
1.69754e-10
1.70147e-10
1.70543e-10
1.70942e-10
1.71344e-10
1.7175e-10
1.7216e-10
1.72574e-10
1.72991e-10
1.73413e-10
1.7384e-10
1.74271e-10
1.74706e-10
1.75147e-10
1.75592e-10
1.76043e-10
1.76498e-10
1.76959e-10
1.77426e-10
1.77898e-10
1.78376e-10
1.7886e-10
1.79349e-10
1.79844e-10
1.80345e-10
1.80851e-10
1.81363e-10
1.81879e-10
1.824e-10
1.82926e-10
1.83455e-10
1.83985e-10
1.84512e-10
1.85034e-10
1.85551e-10
1.86063e-10
1.86569e-10
1.8707e-10
1.87564e-10
1.88052e-10
1.88534e-10
1.89008e-10
1.89476e-10
1.89937e-10
1.90391e-10
1.90838e-10
1.91278e-10
1.91711e-10
1.92138e-10
1.92556e-10
1.92967e-10
1.93371e-10
1.93767e-10
1.94154e-10
1.94533e-10
1.94904e-10
1.95264e-10
1.95615e-10
1.95955e-10
1.96286e-10
1.96604e-10
1.96912e-10
1.97208e-10
1.97493e-10
1.97765e-10
1.98026e-10
1.98276e-10
1.98514e-10
1.9874e-10
1.98955e-10
1.99159e-10
1.99356e-10
1.99545e-10
1.99726e-10
1.99899e-10
2.00066e-10
2.00226e-10
2.0038e-10
2.00528e-10
2.00669e-10
2.00805e-10
2.00936e-10
2.01061e-10
2.01181e-10
2.01296e-10
2.01406e-10
2.0151e-10
2.0161e-10
2.01705e-10
2.01795e-10
2.01881e-10
2.01962e-10
2.02039e-10
2.02112e-10
2.02181e-10
2.02247e-10
2.0231e-10
2.0237e-10
2.02428e-10
2.02484e-10
2.02538e-10
2.02591e-10
2.02643e-10
2.02694e-10
2.02744e-10
2.02794e-10
2.02843e-10
2.02891e-10
2.0294e-10
2.02988e-10
2.03036e-10
2.03083e-10
2.0313e-10
2.03176e-10
2.03222e-10
2.03267e-10
2.03312e-10
2.03356e-10
2.03399e-10
2.03441e-10
2.03482e-10
2.03522e-10
2.0356e-10
2.03597e-10
2.03631e-10
2.03664e-10
2.03695e-10
2.03724e-10
2.0375e-10
2.03775e-10
2.03798e-10
2.03819e-10
2.03838e-10
2.03856e-10
2.03872e-10
2.03887e-10
2.03901e-10
2.03914e-10
2.03926e-10
2.03939e-10
2.03951e-10
2.03962e-10
2.03974e-10
2.03986e-10
2.03998e-10
2.04011e-10
2.04024e-10
2.04037e-10
2.04051e-10
2.04064e-10
2.04079e-10
2.04093e-10
2.04108e-10
2.04122e-10
2.04138e-10
2.04152e-10
2.04168e-10
2.04182e-10
2.04198e-10
2.04211e-10
2.04227e-10
2.0424e-10
2.04255e-10
2.04266e-10
2.04282e-10
2.04291e-10
2.04306e-10
2.04316e-10
2.04297e-10
1.57919e-10
1.58713e-10
1.59528e-10
1.60361e-10
1.61206e-10
1.62059e-10
1.62914e-10
1.63767e-10
1.64614e-10
1.65451e-10
1.66275e-10
1.67084e-10
1.67876e-10
1.68647e-10
1.75318e-10
1.75804e-10
1.76296e-10
1.76795e-10
1.773e-10
1.7781e-10
1.78324e-10
1.78843e-10
1.79364e-10
1.79888e-10
1.80413e-10
1.8094e-10
1.81467e-10
1.81994e-10
1.82521e-10
1.83048e-10
1.83573e-10
1.84097e-10
1.8462e-10
1.85141e-10
1.85657e-10
1.86166e-10
1.86666e-10
1.87158e-10
1.87641e-10
1.88117e-10
1.88584e-10
1.89043e-10
1.89493e-10
1.89935e-10
1.90369e-10
1.90794e-10
1.91212e-10
1.91622e-10
1.92024e-10
1.92418e-10
1.92804e-10
1.93183e-10
1.93554e-10
1.93918e-10
1.94273e-10
1.94621e-10
1.94961e-10
1.95293e-10
1.95616e-10
1.9593e-10
1.96235e-10
1.96531e-10
1.96817e-10
1.97094e-10
1.9736e-10
1.97616e-10
1.97862e-10
1.98098e-10
1.98323e-10
1.98539e-10
1.98747e-10
1.98948e-10
1.99142e-10
1.9933e-10
1.99511e-10
1.99687e-10
1.99857e-10
2.00021e-10
2.00181e-10
2.00335e-10
2.00485e-10
2.0063e-10
2.0077e-10
2.00905e-10
2.01035e-10
2.01159e-10
2.01278e-10
2.01392e-10
2.015e-10
2.01602e-10
2.01699e-10
2.0179e-10
2.01876e-10
2.01956e-10
2.02032e-10
2.02103e-10
2.02171e-10
2.02235e-10
2.02296e-10
2.02355e-10
2.02411e-10
2.02465e-10
2.02519e-10
2.02571e-10
2.02622e-10
2.02673e-10
2.02723e-10
2.02772e-10
2.0282e-10
2.02868e-10
2.02915e-10
2.02962e-10
2.03009e-10
2.03054e-10
2.03098e-10
2.03142e-10
2.03184e-10
2.03225e-10
2.03264e-10
2.03302e-10
2.03337e-10
2.03372e-10
2.03404e-10
2.03434e-10
2.03463e-10
2.0349e-10
2.03515e-10
2.03539e-10
2.03561e-10
2.03582e-10
2.03602e-10
2.03621e-10
2.0364e-10
2.03658e-10
2.03675e-10
2.03693e-10
2.0371e-10
2.03727e-10
2.03744e-10
2.03762e-10
2.03779e-10
2.03796e-10
2.03814e-10
2.03831e-10
2.03848e-10
2.03865e-10
2.03882e-10
2.03898e-10
2.03914e-10
2.0393e-10
2.03945e-10
2.0396e-10
2.03975e-10
2.03989e-10
2.04002e-10
2.04016e-10
2.04029e-10
2.04042e-10
2.04054e-10
2.04066e-10
2.04078e-10
2.0409e-10
2.04102e-10
2.04113e-10
2.04124e-10
2.04135e-10
2.04146e-10
2.04157e-10
2.04168e-10
2.04179e-10
2.0419e-10
2.042e-10
2.04211e-10
2.04222e-10
2.04234e-10
2.04245e-10
2.04258e-10
2.04269e-10
2.04282e-10
2.04295e-10
2.04308e-10
2.04322e-10
2.04336e-10
2.04351e-10
2.04366e-10
2.04381e-10
2.04397e-10
2.04413e-10
2.0443e-10
2.04447e-10
2.04464e-10
2.04481e-10
2.04498e-10
2.04515e-10
2.04532e-10
2.04548e-10
2.04565e-10
2.04581e-10
2.04598e-10
2.04613e-10
2.04629e-10
2.04644e-10
2.04659e-10
2.04675e-10
2.04689e-10
2.04708e-10
2.04698e-10
1.69251e-10
1.70534e-10
1.71817e-10
1.73095e-10
1.7436e-10
1.75606e-10
1.76824e-10
1.78009e-10
1.79155e-10
1.80255e-10
1.81307e-10
1.82308e-10
1.83255e-10
1.84147e-10
1.91463e-10
1.91874e-10
1.92278e-10
1.92675e-10
1.93064e-10
1.93445e-10
1.93819e-10
1.94185e-10
1.94542e-10
1.9489e-10
1.9523e-10
1.95561e-10
1.95882e-10
1.96193e-10
1.96494e-10
1.96784e-10
1.97062e-10
1.9733e-10
1.97585e-10
1.97828e-10
1.98061e-10
1.98283e-10
1.98496e-10
1.987e-10
1.98895e-10
1.99082e-10
1.99261e-10
1.99433e-10
1.99599e-10
1.99759e-10
1.99914e-10
2.00064e-10
2.0021e-10
2.0035e-10
2.00487e-10
2.00619e-10
2.00746e-10
2.00869e-10
2.00987e-10
2.011e-10
2.01208e-10
2.01311e-10
2.01409e-10
2.01502e-10
2.0159e-10
2.01673e-10
2.01752e-10
2.01828e-10
2.01899e-10
2.01968e-10
2.02033e-10
2.02097e-10
2.02158e-10
2.02218e-10
2.02276e-10
2.02333e-10
2.02389e-10
2.02444e-10
2.02499e-10
2.02553e-10
2.02606e-10
2.02658e-10
2.02709e-10
2.02759e-10
2.02808e-10
2.02854e-10
2.029e-10
2.02943e-10
2.02984e-10
2.03024e-10
2.03061e-10
2.03096e-10
2.03129e-10
2.03161e-10
2.03191e-10
2.03219e-10
2.03246e-10
2.03272e-10
2.03297e-10
2.03322e-10
2.03346e-10
2.0337e-10
2.03393e-10
2.03418e-10
2.03442e-10
2.03465e-10
2.0349e-10
2.03515e-10
2.0354e-10
2.03564e-10
2.03589e-10
2.03614e-10
2.03638e-10
2.03662e-10
2.03685e-10
2.03707e-10
2.03729e-10
2.03749e-10
2.03769e-10
2.03787e-10
2.03804e-10
2.0382e-10
2.03835e-10
2.0385e-10
2.03862e-10
2.03874e-10
2.03886e-10
2.03896e-10
2.03906e-10
2.03915e-10
2.03924e-10
2.03932e-10
2.0394e-10
2.03948e-10
2.03957e-10
2.03965e-10
2.03973e-10
2.03982e-10
2.03991e-10
2.04001e-10
2.04011e-10
2.04021e-10
2.04032e-10
2.04044e-10
2.04056e-10
2.04069e-10
2.04082e-10
2.04096e-10
2.0411e-10
2.04125e-10
2.0414e-10
2.04155e-10
2.04171e-10
2.04186e-10
2.04202e-10
2.04218e-10
2.04234e-10
2.0425e-10
2.04266e-10
2.04282e-10
2.04297e-10
2.04313e-10
2.04328e-10
2.04342e-10
2.04357e-10
2.04371e-10
2.04385e-10
2.04398e-10
2.04412e-10
2.04425e-10
2.04438e-10
2.04452e-10
2.04465e-10
2.04479e-10
2.04493e-10
2.04507e-10
2.04522e-10
2.04537e-10
2.04552e-10
2.04568e-10
2.04585e-10
2.04602e-10
2.0462e-10
2.04638e-10
2.04657e-10
2.04676e-10
2.04697e-10
2.04717e-10
2.04739e-10
2.04761e-10
2.04783e-10
2.04805e-10
2.04828e-10
2.0485e-10
2.04873e-10
2.04896e-10
2.0492e-10
2.04943e-10
2.04967e-10
2.0499e-10
2.05014e-10
2.05037e-10
2.05061e-10
2.05085e-10
2.05109e-10
2.05133e-10
2.05158e-10
2.05182e-10
2.05207e-10
2.05233e-10
2.05258e-10
2.05293e-10
2.05279e-10
1.85448e-10
1.86986e-10
1.88477e-10
1.89924e-10
1.91307e-10
1.92608e-10
1.93818e-10
1.94931e-10
1.95948e-10
1.96867e-10
1.97691e-10
1.98421e-10
1.99063e-10
1.99621e-10
1.99525e-10
1.99665e-10
1.99804e-10
1.9994e-10
2.00074e-10
2.00206e-10
2.00336e-10
2.00462e-10
2.00586e-10
2.00707e-10
2.00824e-10
2.00937e-10
2.01046e-10
2.01151e-10
2.01252e-10
2.01348e-10
2.0144e-10
2.01528e-10
2.01612e-10
2.01692e-10
2.01769e-10
2.01843e-10
2.01915e-10
2.01983e-10
2.02049e-10
2.02113e-10
2.02175e-10
2.02235e-10
2.02292e-10
2.02348e-10
2.02401e-10
2.02453e-10
2.02502e-10
2.02549e-10
2.02594e-10
2.02637e-10
2.02678e-10
2.02718e-10
2.02755e-10
2.0279e-10
2.02825e-10
2.02858e-10
2.02889e-10
2.0292e-10
2.02951e-10
2.02981e-10
2.0301e-10
2.0304e-10
2.03069e-10
2.03099e-10
2.03129e-10
2.0316e-10
2.0319e-10
2.0322e-10
2.03251e-10
2.03282e-10
2.03312e-10
2.03342e-10
2.03371e-10
2.03399e-10
2.03426e-10
2.03452e-10
2.03476e-10
2.035e-10
2.03521e-10
2.03541e-10
2.03561e-10
2.03578e-10
2.03595e-10
2.0361e-10
2.03625e-10
2.03638e-10
2.03652e-10
2.03665e-10
2.03677e-10
2.03689e-10
2.03701e-10
2.03713e-10
2.03726e-10
2.03739e-10
2.03752e-10
2.03765e-10
2.03779e-10
2.03793e-10
2.03807e-10
2.03822e-10
2.03838e-10
2.03853e-10
2.03868e-10
2.03885e-10
2.039e-10
2.03915e-10
2.03932e-10
2.03948e-10
2.03962e-10
2.03978e-10
2.03994e-10
2.04008e-10
2.04022e-10
2.04037e-10
2.0405e-10
2.04063e-10
2.04075e-10
2.04088e-10
2.04099e-10
2.0411e-10
2.04121e-10
2.04132e-10
2.04142e-10
2.04152e-10
2.04163e-10
2.04173e-10
2.04183e-10
2.04193e-10
2.04204e-10
2.04215e-10
2.04227e-10
2.04239e-10
2.04251e-10
2.04265e-10
2.04279e-10
2.04293e-10
2.04308e-10
2.04324e-10
2.04341e-10
2.04358e-10
2.04375e-10
2.04393e-10
2.04412e-10
2.04431e-10
2.0445e-10
2.0447e-10
2.0449e-10
2.0451e-10
2.04531e-10
2.04551e-10
2.04572e-10
2.04592e-10
2.04612e-10
2.04631e-10
2.04651e-10
2.0467e-10
2.0469e-10
2.04709e-10
2.04728e-10
2.04747e-10
2.04766e-10
2.04785e-10
2.04805e-10
2.04825e-10
2.04845e-10
2.04866e-10
2.04887e-10
2.04908e-10
2.04931e-10
2.04954e-10
2.04978e-10
2.05002e-10
2.05028e-10
2.05054e-10
2.05082e-10
2.0511e-10
2.05139e-10
2.05169e-10
2.052e-10
2.05232e-10
2.05265e-10
2.05299e-10
2.05333e-10
2.05368e-10
2.05403e-10
2.0544e-10
2.05477e-10
2.05515e-10
2.05553e-10
2.05592e-10
2.05632e-10
2.05673e-10
2.05714e-10
2.05755e-10
2.05798e-10
2.05841e-10
2.05885e-10
2.0593e-10
2.05976e-10
2.06022e-10
2.0607e-10
2.06119e-10
2.0617e-10
2.06222e-10
2.06274e-10
2.06343e-10
2.06323e-10
2.02288e-10
2.0334e-10
2.04246e-10
2.05008e-10
2.05647e-10
2.06179e-10
2.06611e-10
2.06951e-10
2.07205e-10
2.07383e-10
2.07495e-10
2.07541e-10
2.07536e-10
2.01943e-10
2.01978e-10
2.02015e-10
2.02052e-10
2.0209e-10
2.02127e-10
2.02166e-10
2.02205e-10
2.02245e-10
2.02285e-10
2.02326e-10
2.02368e-10
2.0241e-10
2.02452e-10
2.02495e-10
2.02539e-10
2.02582e-10
2.02627e-10
2.02671e-10
2.02715e-10
2.02758e-10
2.02801e-10
2.02843e-10
2.02885e-10
2.02924e-10
2.02963e-10
2.02999e-10
2.03034e-10
2.03067e-10
2.03097e-10
2.03127e-10
2.03154e-10
2.0318e-10
2.03204e-10
2.03226e-10
2.03248e-10
2.03269e-10
2.03288e-10
2.03307e-10
2.03326e-10
2.03344e-10
2.03362e-10
2.0338e-10
2.03398e-10
2.03416e-10
2.03434e-10
2.03453e-10
2.03472e-10
2.0349e-10
2.0351e-10
2.03529e-10
2.03548e-10
2.03568e-10
2.03587e-10
2.03606e-10
2.03625e-10
2.03643e-10
2.03661e-10
2.03678e-10
2.03695e-10
2.03712e-10
2.03727e-10
2.03742e-10
2.03757e-10
2.0377e-10
2.03784e-10
2.03797e-10
2.03809e-10
2.03821e-10
2.03834e-10
2.03845e-10
2.03857e-10
2.0387e-10
2.03881e-10
2.03894e-10
2.03907e-10
2.0392e-10
2.03934e-10
2.03948e-10
2.03963e-10
2.03977e-10
2.03993e-10
2.0401e-10
2.04026e-10
2.04042e-10
2.04059e-10
2.04077e-10
2.04094e-10
2.04111e-10
2.04129e-10
2.04146e-10
2.04162e-10
2.0418e-10
2.04197e-10
2.04213e-10
2.0423e-10
2.04247e-10
2.04262e-10
2.04277e-10
2.04294e-10
2.04308e-10
2.04323e-10
2.04338e-10
2.04352e-10
2.04366e-10
2.0438e-10
2.04394e-10
2.04408e-10
2.04422e-10
2.04436e-10
2.04451e-10
2.04466e-10
2.04481e-10
2.04498e-10
2.04515e-10
2.04532e-10
2.0455e-10
2.04569e-10
2.04589e-10
2.04609e-10
2.04631e-10
2.04652e-10
2.04675e-10
2.04698e-10
2.04722e-10
2.04747e-10
2.04772e-10
2.04797e-10
2.04823e-10
2.0485e-10
2.04876e-10
2.04903e-10
2.04931e-10
2.04958e-10
2.04986e-10
2.05014e-10
2.05042e-10
2.0507e-10
2.05099e-10
2.05128e-10
2.05157e-10
2.05187e-10
2.05216e-10
2.05247e-10
2.05277e-10
2.05309e-10
2.05341e-10
2.05373e-10
2.05407e-10