/*--------------------------------*- C++ -*----------------------------------*\
| =========                 |                                                 |
| \\      /  F ield         | OpenFOAM: The Open Source CFD Toolbox           |
|  \\    /   O peration     | Version:  v1706                                 |
|   \\  /    A nd           | Web:      www.OpenFOAM.com                      |
|    \\/     M anipulation  |                                                 |
\*---------------------------------------------------------------------------*/
FoamFile
{
    version     2.0;
    format      ascii;
    class       volScalarField;
    location    "1.6e-05";
    object      kappatr;
}
// * * * * * * * * * * * * * * * * * * * * * * * * * * * * * * * * * * * * * //

dimensions      [1 1 -3 -1 0 0 0];


internalField   nonuniform List<scalar> 
30104
(
0.0145934
0.0145935
0.0145935
0.0145935
0.0145936
0.0145936
0.0145936
0.0145937
0.0145937
0.0145938
0.0145938
0.0145939
0.0145939
0.0145939
0.014594
0.014594
0.0145941
0.0145936
0.0145936
0.0145936
0.0145936
0.0145936
0.0145937
0.0145937
0.0145937
0.0145937
0.0145937
0.0145937
0.0145937
0.0145937
0.0145937
0.0145937
0.0145937
0.0145937
0.0145938
0.0145938
0.0145938
0.0145938
0.0145938
0.0145938
0.0145938
0.0145938
0.0145938
0.0145938
0.0145938
0.0145939
0.0145939
0.0145939
0.0145939
0.0145939
0.0145939
0.0145939
0.0145939
0.0145939
0.0145939
0.014594
0.014594
0.014594
0.014594
0.014594
0.014594
0.014594
0.014594
0.014594
0.0145941
0.0145941
0.0145941
0.0145941
0.0145941
0.0145941
0.0145941
0.0145941
0.0145941
0.0145942
0.0145942
0.0145942
0.0145942
0.0145942
0.0145942
0.0145942
0.0145943
0.0145943
0.0145943
0.0145943
0.0145943
0.0145943
0.0145944
0.0145944
0.0145944
0.0145944
0.0145944
0.0145944
0.0145945
0.0145945
0.0145945
0.0145945
0.0145945
0.0145945
0.0145946
0.0145946
0.0145946
0.0145946
0.0145946
0.0145947
0.0145947
0.0145947
0.0145947
0.0145947
0.0145948
0.0145948
0.0145948
0.0145948
0.0145948
0.0145949
0.0145949
0.0145949
0.0145949
0.0145949
0.014595
0.014595
0.014595
0.014595
0.0145951
0.0145951
0.0145951
0.0145951
0.0145952
0.0145952
0.0145952
0.0145952
0.0145953
0.0145953
0.0145953
0.0145954
0.0145954
0.0145954
0.0145954
0.0145955
0.0145955
0.0145955
0.0145956
0.0145956
0.0145956
0.0145957
0.0145957
0.0145957
0.0145958
0.0145958
0.0145958
0.0145959
0.0145959
0.0145959
0.014596
0.014596
0.014596
0.0145961
0.0145961
0.0145962
0.0145962
0.0145962
0.0145963
0.0145963
0.0145964
0.0145964
0.0145965
0.0145965
0.0145966
0.0145966
0.0145967
0.0145967
0.0145968
0.0145968
0.0145969
0.0145969
0.014597
0.014597
0.0145971
0.0145972
0.0145972
0.0145973
0.0145973
0.0145974
0.0145975
0.0145975
0.0145976
0.0145977
0.0145977
0.0145978
0.0145979
0.0145979
0.014598
0.0145981
0.0145981
0.0145982
0.0145983
0.0145983
0.0145984
0.0145985
0.0145985
0.0145986
0.0145987
0.0145987
0.0145988
0.0145989
0.0145989
0.014599
0.0145991
0.0145991
0.0145991
0.0145982
0.0145954
0.0145956
0.0145958
0.014596
0.0145962
0.0145965
0.0145967
0.0145969
0.0145972
0.0145974
0.0145976
0.0145979
0.0145981
0.0145984
0.0145987
0.0145989
0.0145992
0.0145969
0.014597
0.0145971
0.0145971
0.0145972
0.0145972
0.0145973
0.0145974
0.0145974
0.0145975
0.0145976
0.0145976
0.0145977
0.0145977
0.0145978
0.0145979
0.0145979
0.014598
0.0145981
0.0145981
0.0145982
0.0145983
0.0145983
0.0145984
0.0145985
0.0145985
0.0145986
0.0145987
0.0145987
0.0145988
0.0145989
0.014599
0.014599
0.0145991
0.0145992
0.0145993
0.0145993
0.0145994
0.0145995
0.0145996
0.0145997
0.0145998
0.0145998
0.0145999
0.0146
0.0146001
0.0146002
0.0146003
0.0146004
0.0146005
0.0146006
0.0146007
0.0146008
0.0146009
0.014601
0.0146011
0.0146012
0.0146013
0.0146014
0.0146015
0.0146016
0.0146017
0.0146018
0.014602
0.0146021
0.0146022
0.0146023
0.0146024
0.0146026
0.0146027
0.0146028
0.014603
0.0146031
0.0146032
0.0146034
0.0146035
0.0146036
0.0146038
0.0146039
0.0146041
0.0146042
0.0146044
0.0146045
0.0146047
0.0146048
0.014605
0.0146051
0.0146053
0.0146055
0.0146056
0.0146058
0.014606
0.0146061
0.0146063
0.0146065
0.0146067
0.0146069
0.014607
0.0146072
0.0146074
0.0146076
0.0146078
0.0146081
0.0146083
0.0146085
0.0146087
0.0146089
0.0146092
0.0146094
0.0146096
0.0146099
0.0146101
0.0146104
0.0146106
0.0146109
0.0146112
0.0146114
0.0146117
0.014612
0.0146123
0.0146125
0.0146128
0.0146131
0.0146134
0.0146137
0.014614
0.0146143
0.0146146
0.0146149
0.0146153
0.0146156
0.0146159
0.0146162
0.0146165
0.0146169
0.0146172
0.0146175
0.0146179
0.0146182
0.0146186
0.0146189
0.0146193
0.0146197
0.01462
0.0146204
0.0146208
0.0146212
0.0146216
0.014622
0.0146224
0.0146229
0.0146233
0.0146237
0.0146242
0.0146247
0.0146251
0.0146256
0.0146261
0.0146266
0.0146272
0.0146277
0.0146282
0.0146288
0.0146294
0.0146299
0.0146305
0.0146311
0.0146317
0.0146323
0.014633
0.0146336
0.0146342
0.0146349
0.0146356
0.0146362
0.0146369
0.0146376
0.0146382
0.0146389
0.0146396
0.0146403
0.014641
0.0146417
0.0146424
0.0146432
0.0146439
0.0146446
0.0146453
0.0146461
0.0146468
0.0146476
0.0146475
0.014643
0.0146005
0.014601
0.0146016
0.0146023
0.0146029
0.0146036
0.0146043
0.014605
0.0146058
0.0146065
0.0146073
0.014608
0.0146088
0.0146096
0.0146104
0.0146112
0.0146064
0.0146066
0.0146069
0.0146071
0.0146073
0.0146075
0.0146078
0.014608
0.0146083
0.0146085
0.0146087
0.014609
0.0146092
0.0146095
0.0146097
0.0146099
0.0146102
0.0146104
0.0146107
0.0146109
0.0146112
0.0146114
0.0146117
0.014612
0.0146122
0.0146125
0.0146128
0.0146131
0.0146133
0.0146136
0.0146139
0.0146142
0.0146145
0.0146148
0.0146151
0.0146154
0.0146157
0.0146161
0.0146164
0.0146167
0.0146171
0.0146174
0.0146178
0.0146181
0.0146185
0.0146188
0.0146192
0.0146196
0.01462
0.0146203
0.0146207
0.0146211
0.0146215
0.0146219
0.0146224
0.0146228
0.0146232
0.0146237
0.0146241
0.0146246
0.014625
0.0146255
0.014626
0.0146265
0.014627
0.0146275
0.014628
0.0146285
0.0146291
0.0146296
0.0146302
0.0146307
0.0146313
0.0146319
0.0146325
0.0146331
0.0146337
0.0146343
0.014635
0.0146356
0.0146363
0.0146369
0.0146376
0.0146383
0.014639
0.0146397
0.0146404
0.0146411
0.0146418
0.0146426
0.0146433
0.0146441
0.0146448
0.0146456
0.0146464
0.0146472
0.0146481
0.0146489
0.0146498
0.0146506
0.0146515
0.0146524
0.0146533
0.0146543
0.0146552
0.0146562
0.0146572
0.0146583
0.0146593
0.0146604
0.0146614
0.0146625
0.0146637
0.0146648
0.014666
0.0146672
0.0146684
0.0146696
0.0146709
0.0146722
0.0146735
0.0146748
0.0146761
0.0146775
0.0146789
0.0146803
0.0146817
0.0146831
0.0146846
0.0146861
0.0146876
0.0146891
0.0146906
0.0146922
0.0146937
0.0146953
0.0146969
0.0146986
0.0147002
0.0147019
0.0147036
0.0147053
0.0147071
0.0147089
0.0147107
0.0147125
0.0147144
0.0147164
0.0147184
0.0147204
0.0147225
0.0147246
0.0147268
0.014729
0.0147313
0.0147337
0.0147361
0.0147386
0.0147411
0.0147438
0.0147465
0.0147492
0.0147521
0.014755
0.014758
0.014761
0.0147642
0.0147674
0.0147707
0.014774
0.0147774
0.0147809
0.0147844
0.014788
0.0147916
0.0147953
0.0147991
0.0148029
0.0148067
0.0148105
0.0148144
0.0148183
0.0148223
0.0148262
0.0148302
0.0148342
0.0148382
0.0148423
0.0148463
0.0148504
0.0148546
0.014856
0.0148399
0.0146129
0.0146144
0.014616
0.0146177
0.0146194
0.0146212
0.0146231
0.014625
0.0146269
0.0146289
0.0146309
0.0146329
0.014635
0.0146371
0.0146391
0.0146412
0.0146321
0.0146328
0.0146336
0.0146343
0.014635
0.0146358
0.0146365
0.0146373
0.0146381
0.0146389
0.0146397
0.0146405
0.0146412
0.0146421
0.0146429
0.0146437
0.0146445
0.0146453
0.0146462
0.014647
0.0146479
0.0146487
0.0146496
0.0146505
0.0146514
0.0146523
0.0146532
0.0146542
0.0146551
0.0146561
0.0146571
0.0146581
0.0146591
0.0146602
0.0146613
0.0146624
0.0146635
0.0146646
0.0146657
0.0146669
0.0146681
0.0146693
0.0146705
0.0146717
0.014673
0.0146743
0.0146756
0.0146769
0.0146783
0.0146796
0.014681
0.0146824
0.0146838
0.0146853
0.0146868
0.0146883
0.0146898
0.0146914
0.0146929
0.0146946
0.0146962
0.0146979
0.0146996
0.0147013
0.0147031
0.0147049
0.0147068
0.0147087
0.0147106
0.0147126
0.0147146
0.0147167
0.0147188
0.0147209
0.0147231
0.0147253
0.0147275
0.0147298
0.0147322
0.0147345
0.014737
0.0147394
0.0147419
0.0147445
0.014747
0.0147497
0.0147523
0.014755
0.0147578
0.0147605
0.0147634
0.0147662
0.0147691
0.0147721
0.0147751
0.0147781
0.0147812
0.0147844
0.0147876
0.0147909
0.0147943
0.0147977
0.0148012
0.0148047
0.0148084
0.0148121
0.0148159
0.0148198
0.0148238
0.0148279
0.014832
0.0148363
0.0148407
0.0148452
0.0148498
0.0148546
0.0148594
0.0148644
0.0148694
0.0148746
0.0148799
0.0148854
0.0148909
0.0148966
0.0149024
0.0149082
0.0149142
0.0149203
0.0149265
0.0149328
0.0149391
0.0149455
0.014952
0.0149586
0.0149653
0.0149719
0.0149787
0.0149855
0.0149924
0.0149993
0.0150063
0.0150134
0.0150205
0.0150277
0.0150351
0.0150425
0.01505
0.0150577
0.0150654
0.0150733
0.0150814
0.0150896
0.0150979
0.0151065
0.0151152
0.0151241
0.0151333
0.0151427
0.0151523
0.0151622
0.0151724
0.0151828
0.0151936
0.0152046
0.015216
0.0152277
0.0152398
0.0152522
0.0152649
0.0152781
0.0152916
0.0153054
0.0153197
0.0153343
0.0153492
0.0153646
0.0153802
0.0153962
0.0154126
0.0154292
0.0154461
0.0154633
0.0154808
0.0154984
0.0155163
0.0155344
0.0155526
0.0155708
0.0155891
0.0156076
0.0156259
0.0156416
0.015598
0.014643
0.0146468
0.0146508
0.0146549
0.0146592
0.0146637
0.0146682
0.0146729
0.0146777
0.0146826
0.0146875
0.0146925
0.0146976
0.0147026
0.0147076
0.0146996
0.0147017
0.0147038
0.014706
0.0147082
0.0147105
0.0147128
0.0147151
0.0147174
0.0147198
0.0147222
0.0147246
0.014727
0.0147295
0.014732
0.0147344
0.014737
0.0147395
0.0147421
0.0147446
0.0147473
0.0147499
0.0147526
0.0147553
0.0147581
0.0147609
0.0147638
0.0147667
0.0147697
0.0147727
0.0147758
0.014779
0.0147822
0.0147855
0.0147888
0.0147922
0.0147957
0.0147992
0.0148029
0.0148065
0.0148103
0.0148141
0.014818
0.014822
0.014826
0.0148301
0.0148343
0.0148386
0.0148429
0.0148473
0.0148518
0.0148563
0.014861
0.0148657
0.0148704
0.0148753
0.0148803
0.0148853
0.0148904
0.0148957
0.014901
0.0149064
0.014912
0.0149177
0.0149234
0.0149293
0.0149354
0.0149415
0.0149478
0.0149543
0.0149608
0.0149676
0.0149745
0.0149815
0.0149887
0.0149961
0.0150037
0.0150114
0.0150193
0.0150273
0.0150356
0.015044
0.0150525
0.0150613
0.0150702
0.0150792
0.0150885
0.0150978
0.0151073
0.015117
0.0151268
0.0151367
0.0151467
0.0151568
0.0151671
0.0151775
0.0151881
0.0151988
0.0152096
0.0152207
0.0152319
0.0152432
0.0152548
0.0152665
0.0152785
0.0152907
0.0153032
0.0153159
0.0153288
0.0153421
0.0153556
0.0153694
0.0153835
0.015398
0.0154128
0.015428
0.0154436
0.0154595
0.0154759
0.0154927
0.0155098
0.0155274
0.0155455
0.015564
0.0155829
0.0156022
0.015622
0.0156422
0.0156629
0.0156839
0.0157054
0.0157272
0.0157493
0.0157718
0.0157947
0.0158177
0.015841
0.0158645
0.0158881
0.0159119
0.0159358
0.0159599
0.0159841
0.0160085
0.0160331
0.0160578
0.0160828
0.016108
0.0161334
0.0161591
0.0161851
0.0162114
0.0162381
0.0162652
0.0162927
0.0163207
0.0163491
0.0163782
0.0164079
0.0164382
0.0164693
0.0165012
0.0165339
0.0165675
0.016602
0.0166376
0.0166742
0.016712
0.0167509
0.016791
0.0168324
0.016875
0.016919
0.0169642
0.0170107
0.0170585
0.0171077
0.017158
0.0172096
0.0172623
0.0173162
0.017371
0.017427
0.0174837
0.0175413
0.0175998
0.0176586
0.0177188
0.0177773
0.0178379
0.0178934
0.0179611
0.0179237
0.0147055
0.0147142
0.0147233
0.0147327
0.0147425
0.0147526
0.014763
0.0147737
0.0147846
0.0147958
0.0148071
0.0148186
0.0148301
0.0148417
0.0148533
0.0148649
0.0148688
0.0148745
0.0148804
0.0148864
0.0148925
0.0148987
0.0149051
0.0149115
0.014918
0.0149247
0.0149314
0.0149382
0.0149451
0.014952
0.0149591
0.0149662
0.0149733
0.0149806
0.0149879
0.0149953
0.0150028
0.0150104
0.015018
0.0150259
0.0150338
0.0150418
0.01505
0.0150584
0.0150669
0.0150756
0.0150845
0.0150935
0.0151027
0.0151121
0.0151217
0.0151315
0.0151415
0.0151518
0.0151622
0.0151729
0.0151838
0.0151949
0.0152062
0.0152178
0.0152296
0.0152416
0.0152539
0.0152663
0.015279
0.0152919
0.015305
0.0153184
0.0153319
0.0153456
0.0153595
0.0153736
0.0153879
0.0154024
0.0154171
0.015432
0.0154472
0.0154627
0.0154784
0.0154944
0.0155107
0.0155273
0.0155442
0.0155615
0.0155791
0.015597
0.0156154
0.0156342
0.0156533
0.0156729
0.015693
0.0157134
0.0157344
0.0157558
0.0157777
0.0158001
0.015823
0.0158463
0.0158702
0.0158946
0.0159194
0.0159448
0.0159706
0.0159969
0.0160236
0.0160508
0.0160783
0.0161063
0.0161346
0.0161632
0.016192
0.016221
0.0162503
0.0162798
0.0163095
0.0163396
0.0163698
0.0164004
0.0164313
0.0164624
0.0164939
0.0165258
0.016558
0.0165906
0.0166237
0.0166573
0.0166913
0.0167259
0.0167612
0.0167971
0.0168337
0.016871
0.0169092
0.0169482
0.0169882
0.0170292
0.0170712
0.0171142
0.0171584
0.0172038
0.0172504
0.0172981
0.0173471
0.0173974
0.0174489
0.0175015
0.0175554
0.0176103
0.0176664
0.0177235
0.0177815
0.0178404
0.0179001
0.0179605
0.0180208
0.0180807
0.0181402
0.0181992
0.0182576
0.0183155
0.0183726
0.0184291
0.0184849
0.0185398
0.018594
0.0186473
0.0186997
0.0187513
0.0188019
0.0188515
0.0189002
0.018948
0.0189947
0.0190404
0.0190851
0.0191288
0.0191714
0.0192129
0.0192533
0.0192926
0.0193309
0.019368
0.019404
0.019439
0.0194728
0.0195055
0.0195372
0.0195678
0.0195973
0.0196259
0.0196535
0.0196803
0.0197059
0.0197311
0.019755
0.0197787
0.019801
0.0198234
0.0198444
0.0198657
0.0198853
0.0199057
0.0199242
0.0199435
0.0199615
0.0199797
0.0199982
0.0200191
0.0199888
0.014857
0.0148769
0.0148977
0.0149191
0.0149413
0.014964
0.0149873
0.0150111
0.0150352
0.0150597
0.0150844
0.0151092
0.0151341
0.0152679
0.0152823
0.015297
0.0153121
0.0153276
0.0153433
0.0153594
0.0153757
0.0153923
0.0154092
0.0154263
0.0154436
0.0154611
0.0154789
0.0154968
0.0155149
0.0155331
0.0155515
0.01557
0.0155887
0.0156076
0.0156266
0.0156459
0.0156653
0.015685
0.015705
0.0157252
0.0157458
0.0157666
0.0157879
0.0158094
0.0158314
0.0158538
0.0158766
0.0158998
0.0159235
0.0159476
0.0159722
0.0159974
0.016023
0.0160491
0.0160757
0.0161029
0.0161305
0.0161587
0.0161875
0.0162167
0.0162465
0.0162767
0.0163075
0.0163388
0.0163705
0.0164027
0.0164354
0.0164684
0.0165017
0.0165354
0.0165693
0.0166036
0.0166382
0.0166731
0.0167084
0.016744
0.01678
0.0168164
0.0168531
0.0168903
0.0169279
0.0169659
0.0170044
0.0170434
0.0170829
0.0171229
0.0171636
0.0172049
0.0172468
0.0172895
0.0173329
0.017377
0.017422
0.0174679
0.0175146
0.0175622
0.0176107
0.0176601
0.0177105
0.0177618
0.0178141
0.0178672
0.0179211
0.0179759
0.0180315
0.0180878
0.0181449
0.0182022
0.0182591
0.0183157
0.018372
0.0184278
0.0184831
0.0185379
0.0185921
0.0186458
0.0186988
0.0187512
0.0188028
0.0188537
0.0189039
0.0189532
0.0190018
0.0190495
0.0190963
0.0191423
0.0191874
0.0192314
0.0192746
0.0193167
0.0193577
0.0193977
0.0194365
0.0194742
0.0195107
0.019546
0.01958
0.0196128
0.0196444
0.0196747
0.0197037
0.0197315
0.0197581
0.0197835
0.0198076
0.0198306
0.0198525
0.0198732
0.0198929
0.0199115
0.0199291
0.0199459
0.0199621
0.0199776
0.0199925
0.0200069
0.0200208
0.0200343
0.0200473
0.0200599
0.0200721
0.020084
0.0200955
0.0201067
0.0201176
0.0201282
0.0201385
0.0201485
0.0201582
0.0201675
0.0201766
0.0201854
0.0201939
0.020202
0.02021
0.0202176
0.020225
0.0202321
0.0202391
0.0202458
0.0202525
0.0202588
0.0202652
0.0202713
0.0202775
0.0202835
0.0202895
0.0202954
0.0203013
0.0203071
0.0203128
0.0203186
0.0203242
0.0203299
0.0203352
0.0203408
0.0203458
0.0203512
0.0203556
0.0203609
0.0203645
0.0203698
0.0203724
0.020377
0.0203796
0.0203719
0.0151897
0.0152321
0.0152759
0.0153209
0.0153669
0.0154138
0.0154614
0.0155096
0.015558
0.0156066
0.0156552
0.0157036
0.0157517
0.016105
0.0161352
0.0161662
0.0161977
0.01623
0.0162628
0.0162963
0.0163303
0.0163648
0.0163998
0.0164352
0.0164711
0.0165074
0.016544
0.016581
0.0166183
0.0166558
0.0166936
0.0167316
0.0167697
0.016808
0.0168465
0.0168851
0.0169239
0.0169629
0.0170022
0.0170418
0.0170816
0.0171218
0.0171624
0.0172033
0.0172446
0.0172864
0.0173286
0.0173712
0.0174142
0.0174578
0.0175018
0.0175463
0.0175913
0.0176368
0.0176829
0.0177295
0.0177767
0.0178244
0.0178728
0.0179217
0.0179712
0.0180212
0.0180718
0.0181229
0.0181745
0.0182266
0.0182791
0.018332
0.018385
0.0184376
0.0184898
0.0185414
0.0185926
0.0186432
0.0186932
0.0187426
0.0187914
0.0188395
0.0188869
0.0189336
0.0189797
0.0190251
0.0190698
0.0191137
0.019157
0.0191996
0.0192414
0.0192825
0.0193229
0.0193624
0.0194011
0.019439
0.019476
0.019512
0.0195471
0.0195811
0.0196141
0.019646
0.0196767
0.0197063
0.0197347
0.019762
0.0197881
0.019813
0.0198367
0.0198593
0.0198808
0.0199013
0.0199209
0.0199398
0.0199578
0.0199752
0.0199919
0.0200079
0.0200232
0.020038
0.0200521
0.0200657
0.0200788
0.0200913
0.0201033
0.0201148
0.0201257
0.0201362
0.0201462
0.0201556
0.0201646
0.0201732
0.0201813
0.020189
0.0201963
0.0202032
0.0202098
0.0202161
0.0202221
0.0202279
0.0202335
0.0202389
0.0202442
0.0202494
0.0202545
0.0202595
0.0202644
0.0202693
0.0202742
0.020279
0.0202838
0.0202886
0.0202933
0.020298
0.0203026
0.0203072
0.0203118
0.0203162
0.0203206
0.0203249
0.0203291
0.0203332
0.0203372
0.020341
0.0203447
0.0203481
0.0203514
0.0203545
0.0203574
0.02036
0.0203625
0.0203648
0.0203669
0.0203688
0.0203705
0.0203721
0.0203736
0.020375
0.0203764
0.0203776
0.0203788
0.02038
0.0203812
0.0203824
0.0203836
0.0203848
0.0203861
0.0203873
0.0203887
0.02039
0.0203914
0.0203928
0.0203942
0.0203957
0.0203972
0.0203988
0.0204002
0.0204018
0.0204032
0.0204048
0.0204061
0.0204077
0.0204089
0.0204105
0.0204116
0.0204131
0.0204141
0.0204156
0.0204166
0.0204147
0.0157802
0.0158596
0.0159411
0.0160243
0.0161087
0.0161939
0.0162794
0.0163646
0.0164493
0.0165329
0.0166153
0.0166961
0.0167752
0.0168523
0.0175189
0.0175674
0.0176166
0.0176665
0.0177169
0.0177679
0.0178193
0.0178711
0.0179232
0.0179755
0.018028
0.0180806
0.0181333
0.018186
0.0182387
0.0182913
0.0183438
0.0183962
0.0184484
0.0185005
0.0185521
0.0186028
0.0186528
0.018702
0.0187503
0.0187978
0.0188445
0.0188903
0.0189353
0.0189795
0.0190228
0.0190654
0.0191071
0.019148
0.0191882
0.0192276
0.0192662
0.019304
0.0193411
0.0193775
0.019413
0.0194478
0.0194817
0.0195149
0.0195471
0.0195786
0.0196091
0.0196386
0.0196672
0.0196948
0.0197215
0.019747
0.0197716
0.0197952
0.0198177
0.0198392
0.0198601
0.0198801
0.0198995
0.0199183
0.0199364
0.0199539
0.0199709
0.0199874
0.0200033
0.0200188
0.0200337
0.0200482
0.0200622
0.0200757
0.0200887
0.0201011
0.020113
0.0201244
0.0201352
0.0201454
0.020155
0.0201641
0.0201727
0.0201807
0.0201883
0.0201954
0.0202022
0.0202086
0.0202147
0.0202206
0.0202262
0.0202316
0.020237
0.0202422
0.0202473
0.0202523
0.0202573
0.0202622
0.020267
0.0202718
0.0202766
0.0202813
0.0202859
0.0202904
0.0202949
0.0202992
0.0203034
0.0203075
0.0203114
0.0203152
0.0203188
0.0203222
0.0203254
0.0203284
0.0203313
0.020334
0.0203365
0.0203389
0.0203411
0.0203432
0.0203452
0.0203471
0.020349
0.0203508
0.0203525
0.0203543
0.020356
0.0203577
0.0203594
0.0203612
0.0203629
0.0203646
0.0203663
0.0203681
0.0203698
0.0203715
0.0203731
0.0203748
0.0203764
0.020378
0.0203795
0.020381
0.0203824
0.0203838
0.0203852
0.0203865
0.0203878
0.0203891
0.0203904
0.0203916
0.0203928
0.020394
0.0203951
0.0203962
0.0203974
0.0203985
0.0203996
0.0204006
0.0204017
0.0204028
0.0204039
0.020405
0.0204061
0.0204072
0.0204084
0.0204095
0.0204107
0.0204119
0.0204132
0.0204144
0.0204158
0.0204171
0.0204186
0.02042
0.0204215
0.020423
0.0204247
0.0204263
0.020428
0.0204296
0.0204314
0.020433
0.0204348
0.0204364
0.0204381
0.0204397
0.0204414
0.020443
0.0204447
0.0204462
0.0204478
0.0204493
0.0204508
0.0204524
0.0204538
0.0204557
0.0204548
0.0169127
0.0170408
0.017169
0.0172967
0.0174232
0.0175476
0.0176694
0.0177878
0.0179022
0.0180122
0.0181173
0.0182173
0.0183119
0.0184011
0.0191322
0.0191733
0.0192136
0.0192533
0.0192922
0.0193303
0.0193676
0.0194041
0.0194398
0.0194747
0.0195086
0.0195417
0.0195737
0.0196048
0.0196349
0.0196639
0.0196917
0.0197184
0.0197439
0.0197683
0.0197915
0.0198137
0.019835
0.0198554
0.0198748
0.0198935
0.0199114
0.0199286
0.0199452
0.0199612
0.0199767
0.0199917
0.0200062
0.0200203
0.0200339
0.0200471
0.0200598
0.0200721
0.0200839
0.0200951
0.0201059
0.0201162
0.020126
0.0201353
0.0201441
0.0201525
0.0201604
0.0201679
0.020175
0.0201819
0.0201884
0.0201948
0.0202009
0.0202069
0.0202127
0.0202184
0.020224
0.0202295
0.020235
0.0202403
0.0202456
0.0202509
0.020256
0.0202609
0.0202658
0.0202705
0.020275
0.0202793
0.0202835
0.0202874
0.0202911
0.0202947
0.020298
0.0203011
0.0203041
0.0203069
0.0203096
0.0203122
0.0203147
0.0203172
0.0203196
0.020322
0.0203244
0.0203268
0.0203292
0.0203316
0.020334
0.0203365
0.020339
0.0203414
0.0203439
0.0203464
0.0203488
0.0203512
0.0203535
0.0203557
0.0203579
0.0203599
0.0203619
0.0203637
0.0203654
0.020367
0.0203685
0.0203699
0.0203712
0.0203724
0.0203735
0.0203746
0.0203755
0.0203765
0.0203773
0.0203782
0.020379
0.0203798
0.0203806
0.0203815
0.0203823
0.0203832
0.0203841
0.020385
0.020386
0.0203871
0.0203882
0.0203894
0.0203906
0.0203918
0.0203932
0.0203945
0.020396
0.0203974
0.0203989
0.0204005
0.020402
0.0204036
0.0204052
0.0204067
0.0204083
0.0204099
0.0204115
0.0204131
0.0204147
0.0204162
0.0204177
0.0204192
0.0204206
0.020422
0.0204234
0.0204247
0.0204261
0.0204274
0.0204288
0.0204301
0.0204314
0.0204328
0.0204342
0.0204356
0.0204371
0.0204386
0.0204402
0.0204417
0.0204434
0.0204451
0.0204469
0.0204487
0.0204506
0.0204526
0.0204546
0.0204567
0.0204588
0.020461
0.0204632
0.0204654
0.0204677
0.0204699
0.0204722
0.0204745
0.0204769
0.0204792
0.0204815
0.0204839
0.0204863
0.0204886
0.020491
0.0204934
0.0204958
0.0204982
0.0205006
0.0205031
0.0205056
0.0205082
0.0205107
0.0205141
0.0205128
0.0185311
0.0186848
0.0188338
0.0189784
0.0191166
0.0192466
0.0193675
0.0194788
0.0195803
0.0196722
0.0197545
0.0198275
0.0198916
0.0199474
0.0199378
0.0199518
0.0199656
0.0199793
0.0199927
0.0200058
0.0200188
0.0200315
0.0200438
0.0200559
0.0200676
0.0200789
0.0200898
0.0201003
0.0201103
0.0201199
0.0201291
0.0201379
0.0201463
0.0201544
0.0201621
0.0201695
0.0201766
0.0201834
0.02019
0.0201964
0.0202026
0.0202086
0.0202143
0.0202199
0.0202252
0.0202303
0.0202353
0.02024
0.0202445
0.0202488
0.0202529
0.0202568
0.0202606
0.0202641
0.0202675
0.0202708
0.020274
0.0202771
0.0202801
0.0202831
0.020286
0.020289
0.020292
0.0202949
0.0202979
0.020301
0.020304
0.0203071
0.0203101
0.0203132
0.0203162
0.0203192
0.0203221
0.0203249
0.0203276
0.0203302
0.0203326
0.020335
0.0203371
0.0203391
0.0203411
0.0203428
0.0203445
0.020346
0.0203475
0.0203488
0.0203502
0.0203515
0.0203527
0.0203539
0.0203551
0.0203563
0.0203576
0.0203589
0.0203601
0.0203615
0.0203629
0.0203643
0.0203657
0.0203672
0.0203688
0.0203703
0.0203718
0.0203734
0.020375
0.0203765
0.0203781
0.0203797
0.0203812
0.0203828
0.0203843
0.0203857
0.0203872
0.0203886
0.0203899
0.0203912
0.0203925
0.0203937
0.0203949
0.020396
0.0203971
0.0203982
0.0203992
0.0204002
0.0204012
0.0204022
0.0204032
0.0204043
0.0204054
0.0204065
0.0204076
0.0204088
0.0204101
0.0204114
0.0204128
0.0204143
0.0204158
0.0204174
0.020419
0.0204207
0.0204225
0.0204243
0.0204261
0.020428
0.02043
0.0204319
0.0204339
0.020436
0.020438
0.02044
0.0204421
0.0204441
0.0204461
0.020448
0.02045
0.0204519
0.0204539
0.0204558
0.0204577
0.0204596
0.0204615
0.0204635
0.0204654
0.0204674
0.0204694
0.0204715
0.0204736
0.0204757
0.020478
0.0204803
0.0204827
0.0204851
0.0204877
0.0204903
0.0204931
0.0204959
0.0204988
0.0205018
0.0205049
0.0205081
0.0205114
0.0205147
0.0205181
0.0205216
0.0205252
0.0205288
0.0205325
0.0205363
0.0205402
0.0205441
0.0205481
0.0205521
0.0205562
0.0205604
0.0205646
0.0205689
0.0205733
0.0205778
0.0205824
0.0205871
0.0205918
0.0205967
0.0206018
0.020607
0.0206122
0.0206191
0.0206171
0.0202139
0.0203191
0.0204095
0.0204857
0.0205496
0.0206027
0.0206459
0.0206798
0.0207052
0.020723
0.0207342
0.0207388
0.0207383
0.0201794
0.0201829
0.0201866
0.0201903
0.0201941
0.0201978
0.0202017
0.0202056
0.0202096
0.0202136
0.0202177
0.0202218
0.020226
0.0202303
0.0202346
0.0202389
0.0202433
0.0202477
0.0202521
0.0202565
0.0202609
0.0202652
0.0202694
0.0202735
0.0202775
0.0202813
0.0202849
0.0202884
0.0202917
0.0202948
0.0202977
0.0203004
0.020303
0.0203054
0.0203077
0.0203098
0.0203119
0.0203138
0.0203157
0.0203176
0.0203194
0.0203212
0.020323
0.0203248
0.0203266
0.0203284
0.0203303
0.0203322
0.020334
0.020336
0.0203379
0.0203398
0.0203418
0.0203437
0.0203456
0.0203474
0.0203493
0.0203511
0.0203528
0.0203545
0.0203561
0.0203577
0.0203592
0.0203607
0.020362
0.0203634
0.0203647
0.0203659
0.0203671
0.0203683
0.0203695
0.0203707
0.0203719
0.0203731
0.0203743
0.0203757
0.020377
0.0203783
0.0203798
0.0203813
0.0203827
0.0203843
0.0203859
0.0203875
0.0203891
0.0203909
0.0203927
0.0203943
0.020396
0.0203979
0.0203996
0.0204012
0.020403
0.0204047
0.0204062
0.0204079
0.0204096
0.0204111
0.0204127
0.0204143
0.0204158
0.0204172
0.0204187
0.0204202
0.0204215
0.0204229
0.0204243
0.0204257
0.0204271
0.0204285
0.02043
0.0204315
0.0204331
0.0204347
0.0204364
0.0204381
0.02044
0.0204418
0.0204438
0.0204459
0.020448
0.0204502
0.0204524
0.0204547
0.0204571
0.0204596
0.0204621
0.0204646
0.0204672
0.0204699
0.0204725
0.0204752
0.020478
0.0204807
0.0204835
0.0204863
0.0204891
0.0204919
0.0204948
0.0204977
0.0205006
0.0205035
0.0205065
0.0205095
0.0205126
0.0205157
0.0205189
0.0205222
0.0205255
0.020529
0.0205325
0.0205362
0.0205399
0.0205438
0.0205478
0.020552
0.0205562
0.0205606
0.0205652
0.0205699
0.0205747
0.0205797
0.0205848
0.0205901
0.0205955
0.020601
0.0206067
0.0206125
0.0206184
0.0206245
0.0206307
0.0206371
0.0206436
0.0206503
0.020657
0.020664
0.0206711
0.0206783
0.0206857
0.0206933
0.020701
0.0207089
0.020717
0.0207253
0.0207338
0.0207426
0.0207516
0.0207608
0.0207703
0.02078
0.0207897
0.0208021
0.0207986
0.0211559
0.0211739
0.021184
0.0211861
0.0211839
0.0211773
0.0211659
0.0211507
0.0211328
0.0211123
0.0210896
0.0210652
0.0210396
0.0202569
0.0202582
0.0202597
0.0202612
0.020263
0.0202648
0.0202669
0.020269
0.0202714
0.0202738
0.0202764
0.0202792
0.020282
0.0202849
0.020288
0.0202911
0.0202942
0.0202974
0.0203005
0.0203037
0.0203067
0.0203097
0.0203125
0.0203153
0.0203179
0.0203203
0.0203226
0.0203248
0.0203268
0.0203287
0.0203305
0.0203322
0.0203338
0.0203354
0.020337
0.0203385
0.0203401
0.0203416
0.0203432
0.0203448
0.0203465
0.0203482
0.0203499
0.0203517
0.0203535
0.0203553
0.0203572
0.0203591
0.020361
0.0203628
0.0203647
0.0203666
0.0203683
0.02037
0.0203718
0.0203734
0.0203749
0.0203766
0.020378
0.0203794
0.020381
0.0203824
0.0203837
0.0203852
0.0203866
0.0203879
0.0203894
0.0203909
0.0203922
0.0203938
0.0203954
0.0203969
0.0203985
0.0204003
0.020402
0.0204037
0.0204057
0.0204075
0.0204093
0.0204113
0.0204134
0.0204154
0.0204173
0.0204194
0.0204215
0.0204234
0.0204254
0.0204275
0.0204295
0.0204314
0.0204336
0.0204356
0.0204375
0.0204396
0.0204416
0.0204435
0.0204455
0.0204475
0.0204495
0.0204514
0.0204534
0.0204555
0.0204575
0.0204596
0.0204617
0.0204639
0.0204661
0.0204684
0.0204708
0.0204733
0.0204759
0.0204785
0.0204813
0.0204841
0.020487
0.02049
0.0204932
0.0204964
0.0204997
0.0205031
0.0205065
0.0205101
0.0205137
0.0205175
0.0205212
0.0205251
0.020529
0.020533
0.0205371
0.0205412
0.0205454
0.0205496
0.0205539
0.0205583
0.0205628
0.0205673
0.0205719
0.0205767
0.0205815
0.0205864
0.0205914
0.0205965
0.0206018
0.0206072
0.0206128
0.0206185
0.0206243
0.0206304
0.0206366
0.0206431
0.0206497
0.0206565
0.0206635
0.0206708
0.0206782
0.0206859
0.0206937
0.0207018
0.0207101
0.0207186
0.0207274
0.0207363
0.0207455
0.0207548
0.0207645
0.0207743
0.0207843
0.0207946
0.0208052
0.0208159
0.0208269
0.0208382
0.0208497
0.0208614
0.0208735
0.0208858
0.0208983
0.0209112
0.0209244
0.0209379
0.0209518
0.0209659
0.0209805
0.0209954
0.0210107
0.0210263
0.0210424
0.0210585
0.0210744
0.0210934
0.0210865
0.0214872
0.0214646
0.0214402
0.0214146
0.0213878
0.0213595
0.0213321
0.0213005
0.0212657
0.021232
0.0211978
0.021163
0.0202906
0.020291
0.0202915
0.0202921
0.0202929
0.020294
0.0202954
0.0202968
0.0202985
0.0203004
0.0203024
0.0203047
0.0203071
0.0203096
0.0203123
0.0203151
0.0203179
0.0203208
0.0203237
0.0203266
0.0203294
0.0203322
0.0203348
0.0203373
0.0203398
0.0203421
0.0203442
0.0203464
0.0203483
0.0203501
0.020352
0.0203537
0.0203554
0.0203572
0.0203588
0.0203605
0.0203623
0.0203641
0.0203658
0.0203677
0.0203696
0.0203714
0.0203734
0.0203755
0.0203774
0.0203794
0.0203815
0.0203836
0.0203855
0.0203874
0.0203895
0.0203915
0.0203932
0.0203951
0.020397
0.0203987
0.0204004
0.0204023
0.0204039
0.0204056
0.0204074
0.0204089
0.0204106
0.0204125
0.0204142
0.0204159
0.020418
0.0204198
0.0204216
0.0204238
0.0204259
0.0204279
0.0204302
0.0204325
0.0204346
0.020437
0.0204395
0.0204419
0.0204442
0.0204468
0.0204494
0.0204519
0.0204544
0.0204571
0.0204597
0.0204623
0.0204649
0.0204677
0.0204703
0.020473
0.0204758
0.0204786
0.0204814
0.0204842
0.020487
0.0204899
0.0204928
0.0204958
0.0204988
0.0205018
0.0205049
0.0205081
0.0205114
0.0205148
0.0205183
0.0205219
0.0205255
0.0205294
0.0205333
0.0205373
0.0205415
0.0205458
0.0205503
0.0205548
0.0205595
0.0205644
0.0205693
0.0205744
0.0205796
0.0205849
0.0205904
0.0205959
0.0206016
0.0206074
0.0206133
0.0206194
0.0206255
0.0206318
0.0206382
0.0206448
0.0206514
0.0206582
0.0206652
0.0206722
0.0206795
0.0206869
0.0206945
0.0207022
0.0207102
0.0207183
0.0207267
0.0207353
0.0207441
0.0207532
0.0207625
0.0207721
0.0207819
0.020792
0.0208024
0.0208131
0.0208241
0.0208353
0.0208469
0.0208587
0.0208709
0.0208833
0.0208961
0.0209091
0.0209225
0.0209362
0.0209502
0.0209645
0.0209791
0.0209941
0.0210094
0.021025
0.0210409
0.0210572
0.0210738
0.0210908
0.0211082
0.0211259
0.021144
0.0211625
0.0211814
0.0212007
0.0212204
0.0212405
0.0212611
0.0212821
0.0213036
0.0213256
0.0213482
0.0213712
0.0213947
0.0214185
0.0214427
0.0214664
0.0214894
0.0215134
0.0214999
0.0216198
0.0215858
0.0215521
0.0215178
0.021483
0.0214479
0.0214129
0.021377
0.0213403
0.0213038
0.020315
0.0203153
0.0203157
0.0203163
0.0203171
0.0203182
0.0203195
0.020321
0.0203226
0.0203245
0.0203266
0.0203288
0.0203312
0.0203337
0.0203363
0.020339
0.0203417
0.0203445
0.0203473
0.0203501
0.0203528
0.0203555
0.0203581
0.0203607
0.0203632
0.0203655
0.0203679
0.0203702
0.0203723
0.0203744
0.0203765
0.0203785
0.0203806