/*--------------------------------*- C++ -*----------------------------------*\
| =========                 |                                                 |
| \\      /  F ield         | OpenFOAM: The Open Source CFD Toolbox           |
|  \\    /   O peration     | Version:  v1706                                 |
|   \\  /    A nd           | Web:      www.OpenFOAM.com                      |
|    \\/     M anipulation  |                                                 |
\*---------------------------------------------------------------------------*/
FoamFile
{
    version     2.0;
    format      ascii;
    class       volScalarField;
    location    "1.6e-05";
    object      Mach;
}
// * * * * * * * * * * * * * * * * * * * * * * * * * * * * * * * * * * * * * //

dimensions      [0 0 0 0 0 0 0];


internalField   nonuniform List<scalar> 
30104
(
3.99487
3.99486
3.99485
3.99484
3.99483
3.99482
3.99481
3.9948
3.99479
3.99478
3.99477
3.99476
3.99475
3.99474
3.99473
3.99472
3.9947
3.99482
3.99482
3.99482
3.99481
3.99481
3.99481
3.99481
3.99481
3.9948
3.9948
3.9948
3.9948
3.99479
3.99479
3.99479
3.99479
3.99479
3.99478
3.99478
3.99478
3.99478
3.99477
3.99477
3.99477
3.99477
3.99476
3.99476
3.99476
3.99476
3.99476
3.99475
3.99475
3.99475
3.99474
3.99474
3.99474
3.99474
3.99473
3.99473
3.99473
3.99473
3.99472
3.99472
3.99472
3.99471
3.99471
3.99471
3.99471
3.9947
3.9947
3.9947
3.99469
3.99469
3.99469
3.99468
3.99468
3.99468
3.99467
3.99467
3.99467
3.99466
3.99466
3.99465
3.99465
3.99465
3.99464
3.99464
3.99464
3.99463
3.99463
3.99462
3.99462
3.99461
3.99461
3.99461
3.9946
3.9946
3.99459
3.99459
3.99458
3.99458
3.99458
3.99457
3.99457
3.99456
3.99456
3.99455
3.99455
3.99454
3.99454
3.99453
3.99453
3.99452
3.99452
3.99451
3.9945
3.9945
3.99449
3.99449
3.99448
3.99447
3.99447
3.99446
3.99445
3.99445
3.99444
3.99443
3.99442
3.99442
3.99441
3.9944
3.99439
3.99439
3.99438
3.99437
3.99436
3.99435
3.99435
3.99434
3.99433
3.99432
3.99431
3.9943
3.99429
3.99429
3.99428
3.99427
3.99426
3.99425
3.99424
3.99423
3.99422
3.99421
3.9942
3.99419
3.99419
3.99418
3.99417
3.99416
3.99415
3.99414
3.99413
3.99412
3.99411
3.99409
3.99408
3.99407
3.99406
3.99405
3.99404
3.99403
3.99402
3.99401
3.99399
3.99398
3.99397
3.99396
3.99395
3.99393
3.99392
3.99391
3.99389
3.99388
3.99387
3.99385
3.99384
3.99382
3.99381
3.99379
3.99378
3.99376
3.99374
3.99373
3.99371
3.99369
3.99367
3.99366
3.99364
3.99362
3.9936
3.99358
3.99356
3.99354
3.99352
3.9935
3.99348
3.99346
3.99344
3.99342
3.9934
3.99338
3.99339
3.9936
3.99435
3.9943
3.99425
3.9942
3.99414
3.99408
3.99403
3.99397
3.99391
3.99384
3.99378
3.99372
3.99365
3.99359
3.99353
3.99346
3.9934
3.99397
3.99395
3.99393
3.99392
3.9939
3.99389
3.99387
3.99386
3.99384
3.99382
3.99381
3.99379
3.99378
3.99376
3.99374
3.99373
3.99371
3.99369
3.99368
3.99366
3.99365
3.99363
3.99361
3.99359
3.99358
3.99356
3.99354
3.99352
3.99351
3.99349
3.99347
3.99345
3.99343
3.99341
3.99339
3.99337
3.99335
3.99333
3.99331
3.99329
3.99327
3.99324
3.99322
3.9932
3.99318
3.99315
3.99313
3.99311
3.99308
3.99306
3.99303
3.99301
3.99298
3.99296
3.99293
3.9929
3.99288
3.99285
3.99282
3.99279
3.99276
3.99273
3.9927
3.99267
3.99264
3.99261
3.99258
3.99254
3.99251
3.99248
3.99244
3.99241
3.99237
3.99234
3.9923
3.99226
3.99223
3.99219
3.99215
3.99211
3.99207
3.99203
3.99199
3.99195
3.99191
3.99187
3.99183
3.99179
3.99174
3.9917
3.99166
3.99161
3.99157
3.99152
3.99147
3.99142
3.99138
3.99133
3.99128
3.99123
3.99118
3.99112
3.99107
3.99102
3.99096
3.99091
3.99085
3.99079
3.99073
3.99067
3.99061
3.99055
3.99049
3.99043
3.99037
3.9903
3.99024
3.99017
3.9901
3.99004
3.98997
3.9899
3.98983
3.98975
3.98968
3.98961
3.98953
3.98945
3.98937
3.98929
3.98921
3.98913
3.98905
3.98896
3.98887
3.98878
3.98869
3.9886
3.98851
3.98841
3.98831
3.98821
3.98811
3.98801
3.9879
3.98779
3.98768
3.98757
3.98745
3.98733
3.98721
3.98709
3.98696
3.98684
3.98671
3.98657
3.98644
3.9863
3.98616
3.98601
3.98587
3.98572
3.98557
3.98541
3.98525
3.9851
3.98493
3.98477
3.98461
3.98444
3.98427
3.9841
3.98392
3.98375
3.98357
3.98339
3.98321
3.98303
3.98285
3.98267
3.98249
3.9823
3.98212
3.98193
3.98175
3.98156
3.98137
3.98118
3.98099
3.9808
3.9806
3.98063
3.98176
3.99303
3.99288
3.99273
3.99257
3.9924
3.99223
3.99205
3.99186
3.99168
3.99149
3.99129
3.99109
3.99089
3.9907
3.9905
3.9903
3.99154
3.99148
3.99142
3.99137
3.99131
3.99125
3.99119
3.99113
3.99107
3.991
3.99094
3.99088
3.99082
3.99076
3.99069
3.99063
3.99057
3.9905
3.99044
3.99038
3.99031
3.99024
3.99018
3.99011
3.99004
3.98997
3.9899
3.98983
3.98975
3.98968
3.9896
3.98953
3.98945
3.98937
3.98929
3.98921
3.98913
3.98904
3.98896
3.98887
3.98878
3.98869
3.9886
3.98851
3.98842
3.98833
3.98823
3.98813
3.98804
3.98794
3.98783
3.98773
3.98763
3.98752
3.98741
3.9873
3.98719
3.98708
3.98696
3.98684
3.98672
3.9866
3.98648
3.98635
3.98622
3.98609
3.98596
3.98582
3.98569
3.98555
3.98541
3.98526
3.98512
3.98497
3.98482
3.98467
3.98451
3.98435
3.98419
3.98403
3.98387
3.9837
3.98353
3.98336
3.98319
3.98301
3.98283
3.98265
3.98246
3.98227
3.98208
3.98188
3.98168
3.98148
3.98128
3.98106
3.98085
3.98063
3.98041
3.98018
3.97994
3.97971
3.97946
3.97921
3.97896
3.9787
3.97843
3.97816
3.97788
3.9776
3.97731
3.97702
3.97672
3.97641
3.9761
3.97578
3.97546
3.97513
3.97479
3.97445
3.97411
3.97376
3.9734
3.97304
3.97267
3.9723
3.97193
3.97155
3.97116
3.97078
3.97038
3.96999
3.96958
3.96918
3.96877
3.96835
3.96794
3.96751
3.96708
3.96665
3.96621
3.96576
3.96531
3.96485
3.96438
3.96391
3.96343
3.96294
3.96244
3.96193
3.96141
3.96089
3.96035
3.9598
3.95924
3.95867
3.95808
3.95748
3.95687
3.95624
3.95559
3.95493
3.95426
3.95356
3.95285
3.95213
3.95138
3.95062
3.94983
3.94903
3.94821
3.94737
3.94651
3.94563
3.94474
3.94383
3.9429
3.94195
3.94099
3.94001
3.93902
3.93802
3.937
3.93598
3.93493
3.93389
3.93283
3.93177
3.93069
3.92961
3.92847
3.92801
3.93188
3.98979
3.98939
3.98898
3.98854
3.9881
3.98764
3.98716
3.98667
3.98617
3.98567
3.98515
3.98464
3.98411
3.98359
3.98307
3.98256
3.98492
3.98474
3.98455
3.98436
3.98417
3.98398
3.98378
3.98359
3.98339
3.98319
3.98299
3.98279
3.98258
3.98238
3.98217
3.98197
3.98176
3.98155
3.98133
3.98112
3.9809
3.98068
3.98046
3.98023
3.98
3.97977
3.97953
3.97929
3.97905
3.9788
3.97855
3.97829
3.97802
3.97776
3.97749
3.97721
3.97693
3.97664
3.97635
3.97605
3.97575
3.97544
3.97513
3.97482
3.97449
3.97417
3.97383
3.9735
3.97315
3.9728
3.97245
3.97208
3.97172
3.97134
3.97096
3.97057
3.97018
3.96977
3.96936
3.96895
3.96852
3.96809
3.96764
3.96719
3.96673
3.96626
3.96578
3.96529
3.96479
3.96428
3.96376
3.96323
3.96268
3.96213
3.96157
3.96099
3.96041
3.95981
3.95921
3.95859
3.95796
3.95732
3.95668
3.95602
3.95535
3.95467
3.95399
3.95329
3.95258
3.95187
3.95114
3.9504
3.94965
3.94889
3.94812
3.94734
3.94654
3.94573
3.94491
3.94407
3.94322
3.94235
3.94146
3.94056
3.93963
3.93869
3.93773
3.93676
3.93576
3.93474
3.9337
3.93263
3.93155
3.93044
3.92931
3.92816
3.92698
3.92578
3.92455
3.9233
3.92202
3.92072
3.91939
3.91804
3.91666
3.91525
3.91382
3.91236
3.91088
3.90937
3.90784
3.90628
3.9047
3.90309
3.90147
3.89981
3.89814
3.89644
3.89472
3.89298
3.8912
3.8894
3.88757
3.88572
3.88383
3.8819
3.87995
3.87795
3.87592
3.87385
3.87174
3.86958
3.86738
3.86512
3.86282
3.86046
3.85805
3.85558
3.85305
3.85046
3.84781
3.84508
3.84229
3.83943
3.8365
3.83349
3.8304
3.82724
3.824
3.82068
3.81728
3.81381
3.81026
3.80663
3.80292
3.79915
3.7953
3.79139
3.78741
3.78338
3.77929
3.77515
3.77096
3.76674
3.76249
3.75821
3.75393
3.74963
3.74534
3.74105
3.7368
3.73256
3.74353
3.98193
3.98094
3.97992
3.97886
3.97776
3.97663
3.97546
3.97427
3.97306
3.97182
3.97056
3.9693
3.96802
3.96675
3.96549
3.96769
3.96716
3.96662
3.96606
3.9655
3.96493
3.96436
3.96377
3.96318
3.96258
3.96198
3.96137
3.96075
3.96013
3.9595
3.95887
3.95823
3.95759
3.95693
3.95627
3.9556
3.95493
3.95424
3.95354
3.95283
3.95211
3.95137
3.95063
3.94987
3.94909
3.9483
3.94749
3.94667
3.94583
3.94498
3.94411
3.94322
3.94232
3.94139
3.94046
3.9395
3.93853
3.93754
3.93653
3.9355
3.93446
3.9334
3.93232
3.93122
3.93011
3.92898
3.92783
3.92667
3.92548
3.92428
3.92305
3.92181
3.92054
3.91925
3.91793
3.9166
3.91523
3.91384
3.91242
3.91098
3.9095
3.90799
3.90645
3.90488
3.90328
3.90164
3.89997
3.89826
3.89652
3.89474
3.89292
3.89107
3.88918
3.88725
3.88528
3.88328
3.88123
3.87915
3.87704
3.87488
3.87269
3.87047
3.86821
3.86591
3.86358
3.86121
3.85882
3.85638
3.85392
3.85141
3.84888
3.8463
3.84368
3.84102
3.83832
3.83556
3.83276
3.82991
3.827
3.82404
3.82101
3.81792
3.81477
3.81155
3.80825
3.80489
3.80144
3.79792
3.79431
3.79062
3.78684
3.78297
3.77901
3.77496
3.77081
3.76658
3.76224
3.75782
3.7533
3.74869
3.74399
3.73921
3.73434
3.72939
3.72436
3.71927
3.7141
3.70888
3.70359
3.69826
3.69289
3.68749
3.68206
3.67661
3.67115
3.66567
3.66017
3.65464
3.6491
3.64353
3.63793
3.6323
3.62664
3.62094
3.6152
3.60941
3.60357
3.59767
3.5917
3.58565
3.57952
3.5733
3.56697
3.56054
3.55397
3.54728
3.54043
3.53343
3.52626
3.5189
3.51135
3.5036
3.49563
3.48745
3.47903
3.47037
3.46146
3.45231
3.44291
3.43326
3.42335
3.4132
3.40281
3.39218
3.38134
3.37025
3.35901
3.34751
3.33594
3.32408
3.31225
3.3001
3.28801
3.27601
3.26363
3.25297
3.23893
3.24437
3.96572
3.96348
3.96115
3.95872
3.95621
3.95363
3.95098
3.94826
3.94549
3.94268
3.93983
3.93696
3.93407
3.93118
3.92831
3.92548
3.92479
3.92334
3.92186
3.92035
3.91881
3.91724
3.91565
3.91403
3.9124
3.91074
3.90907
3.90738
3.90567
3.90395
3.90221
3.90046
3.89869
3.8969
3.89509
3.89327
3.89143
3.88956
3.88767
3.88575
3.8838
3.88181
3.8798
3.87775
3.87566
3.87353
3.87136
3.86914
3.86689
3.86458
3.86224
3.85984
3.85739
3.8549
3.85236
3.84976
3.84712
3.84442
3.84168
3.83888
3.83603
3.83312
3.83017
3.82716
3.82411
3.821
3.81785
3.81464
3.81139
3.80809
3.80474
3.80134
3.7979
3.7944
3.79085
3.78724
3.78358
3.77985
3.77607
3.77222
3.7683
3.76431
3.76025
3.75611
3.75189
3.74759
3.7432
3.73873
3.73416
3.72949
3.72473
3.71986
3.7149
3.70983
3.70465
3.69937
3.69399
3.6885
3.68291
3.67722
3.67143
3.66555
3.65957
3.65351
3.64737
3.64115
3.63486
3.62851
3.62211
3.61566
3.60918
3.60267
3.59613
3.58955
3.58293
3.57627
3.56957
3.56282
3.55602
3.54918
3.54227
3.5353
3.52827
3.52116
3.51398
3.50671
3.49934
3.49187
3.48429
3.47658
3.46875
3.46078
3.45266
3.44438
3.43593
3.42731
3.4185
3.40951
3.40032
3.39094
3.38136
3.37158
3.3616
3.35144
3.34108
3.33055
3.31985
3.30899
3.29798
3.28685
3.27559
3.26423
3.25277
3.24126
3.22981
3.21848
3.20726
3.19616
3.18519
3.17435
3.16365
3.15309
3.14268
3.13242
3.12232
3.11238
3.10261
3.09301
3.08359
3.07435
3.0653
3.05644
3.04777
3.0393
3.03102
3.02295
3.01508
3.00742
2.99996
2.99271
2.98566
2.97882
2.97218
2.96575
2.95951
2.9535
2.94765
2.94204
2.93658
2.93137
2.92629
2.92145
2.91674
2.91228
2.90794
2.90382
2.89985
2.89606
2.89248
2.88897
2.88581
2.88256
2.87986
2.87683
2.8746
2.87179
2.86996
2.86721
2.87164
3.92664
3.92162
3.91642
3.91106
3.90555
3.89991
3.89415
3.88828
3.88234
3.87634
3.87029
3.86423
3.85817
3.82647
3.82299
3.81944
3.81582
3.81212
3.80836
3.80453
3.80064
3.79669
3.79269
3.78865
3.78455
3.78041
3.77623
3.77202
3.76776
3.76347
3.75915
3.75478
3.75039
3.74595
3.74147
3.73695
3.73237
3.72774
3.72304
3.71829
3.71346
3.70856
3.70359
3.69854
3.6934
3.68818
3.68288
3.67748
3.67199
3.6664
3.66072
3.65494
3.64906
3.64307
3.63699
3.6308
3.62451
3.61812
3.61163
3.60504
3.59836
3.59158
3.58472
3.57777
3.57074
3.56364
3.55647
3.54925
3.54199
3.53467
3.52732
3.51991
3.51246
3.50495
3.49739
3.48977
3.4821
3.47436
3.46655
3.45868
3.45073
3.4427
3.43458
3.42638
3.41808
3.40967
3.40116
3.39253
3.38379
3.37491
3.36591
3.35677
3.34748
3.33806
3.32848
3.31876
3.3089
3.29889
3.28874
3.27845
3.26804
3.25751
3.24687
3.23614
3.22532
3.21442
3.20347
3.19255
3.18176
3.17108
3.16053
3.15012
3.13985
3.12973
3.11976
3.10996
3.10032
3.09085
3.08156
3.07245
3.06352
3.05478
3.04624
3.03788
3.02973
3.02177
3.014
3.00644
2.99908
2.99191
2.98494
2.97817
2.9716
2.96522
2.95903
2.95304
2.94723
2.94161
2.93618
2.93093
2.92587
2.92098
2.91627
2.91174
2.90739
2.90321
2.89919
2.89535
2.89168
2.88818
2.88484
2.88163
2.87855
2.87559
2.87275
2.87002
2.86741
2.86492
2.86253
2.86025
2.85807
2.856
2.85403
2.85216
2.85038
2.8487
2.84711
2.84561
2.84421
2.84288
2.84165
2.84049
2.83942
2.83843
2.83751
2.83666
2.83588
2.83517
2.83452
2.83393
2.8334
2.83293
2.8325
2.83214
2.8318
2.83153
2.83129
2.8311
2.83093
2.83083
2.83073
2.83071
2.83067
2.83071
2.83073
2.83084
2.8309
2.83106
2.83115
2.83137
2.83146
2.83171
2.8318
2.83203
2.83202
2.83376
3.84321
3.83278
3.82206
3.81109
3.79994
3.78865
3.77728
3.76586
3.75443
3.74304
3.73172
3.7205
3.70943
3.63065
3.62372
3.61667
3.6095
3.60221
3.59482
3.58733
3.57975
3.57209
3.56436
3.55656
3.54871
3.5408
3.53286
3.52487
3.51686
3.50881
3.50075
3.49267
3.48458
3.47649
3.46839
3.46028
3.45215
3.44399
3.4358
3.42757
3.4193
3.41098
3.4026
3.39417
3.38568
3.37712
3.36849
3.35979
3.35101
3.34216
3.33323
3.32421
3.31511
3.30593
3.29665
3.28729
3.27784
3.2683
3.25867
3.24896
3.23917
3.22931
3.21938
3.20939
3.19935
3.18926
3.17914
3.16899
3.15888
3.14888
3.13899
3.12923
3.1196
3.1101
3.10074
3.09153
3.08247
3.07357
3.06482
3.05625
3.04783
3.0396
3.03154
3.02366
3.01596
3.00846
3.00115
2.99403
2.98711
2.98039
2.97387
2.96755
2.96144
2.95552
2.9498
2.94428
2.93895
2.93381
2.92886
2.92408
2.91949
2.91507
2.91081
2.90673
2.9028
2.89904
2.89543
2.89196
2.8886
2.88536
2.88223
2.87921
2.8763
2.8735
2.87081
2.86823
2.86575
2.86337
2.86109
2.8589
2.85681
2.85481
2.85289
2.85105
2.8493
2.84761
2.846
2.84446
2.84298
2.84156
2.8402
2.83889
2.83764
2.83644
2.83529
2.83418
2.83312
2.8321
2.83113
2.8302
2.82931
2.82845
2.82764
2.82687
2.82614
2.82546
2.82482
2.82422
2.82367
2.82317
2.82272
2.82232
2.82198
2.82168
2.82144
2.82125
2.8211
2.82101
2.82096
2.82095
2.82098
2.82105
2.82115
2.82127
2.82142
2.82158
2.82175
2.82193
2.82212
2.8223
2.82247
2.82264
2.82278
2.82292
2.82302
2.82313
2.82317
2.82322
2.82319
2.8232
2.8231
2.82306
2.82288
2.82278
2.82252
2.82237
2.82204
2.82183
2.82144
2.82117
2.82072
2.82039
2.8199
2.81952
2.819
2.81856
2.81802
2.81755
2.817
2.81649
2.81596
2.81542
2.81492
2.81436
2.81387
2.81386
3.69995
3.68148
3.66272
3.64378
3.62475
3.60575
3.58686
3.56818
3.54977
3.53172
3.51408
3.4969
3.48022
3.46409
3.32836
3.31853
3.30861
3.29862
3.28855
3.27844
3.26828
3.25809
3.24789
3.23769
3.22749
3.21732
3.20717
3.19706
3.18699
3.17698
3.16703
3.15714
3.14732
3.13757
3.12796
3.11851
3.10924
3.10014
3.0912
3.08243
3.07383
3.06538
3.0571
3.04898
3.04102
3.03323
3.0256
3.01813
3.01084
3.00371
2.99677
2.99
2.98341
2.977
2.97078
2.96474
2.9589
2.95325
2.94778
2.94251
2.93742
2.93253
2.92781
2.92327
2.91892
2.91473
2.91071
2.90685
2.90316
2.8996
2.89617
2.89285
2.88964
2.88655
2.88356
2.88069
2.87791
2.87524
2.87267
2.8702
2.86782
2.86553
2.86333
2.86122
2.85918
2.85722
2.85533
2.85352
2.85177
2.85007
2.84844
2.84687
2.84534
2.84386
2.84244
2.84106
2.83972
2.83843
2.83718
2.83597
2.83481
2.83368
2.8326
2.83155
2.83055
2.82958
2.82865
2.82776
2.8269
2.82609
2.82531
2.82457
2.82386
2.82319
2.82256
2.82197
2.82141
2.82088
2.82039
2.81993
2.81951
2.81912
2.81875
2.81842
2.81811
2.81783
2.81756
2.81733
2.81711
2.81691
2.81674
2.81658
2.81644
2.81632
2.81622
2.81614
2.81607
2.81603
2.816
2.816
2.816
2.81603
2.81607
2.81612
2.81618
2.81625
2.81633
2.8164
2.81648
2.81655
2.81661
2.81666
2.8167
2.81672
2.81672
2.81669
2.81666
2.81659
2.81651
2.8164
2.81628
2.81613
2.81598
2.81579
2.81561
2.81539
2.81519
2.81494
2.81472
2.81445
2.81422
2.81392
2.81368
2.81337
2.81311
2.81278
2.81252
2.81217
2.8119
2.81154
2.81125
2.81089
2.81059
2.81023
2.80992
2.80955
2.80924
2.80887
2.80855
2.80818
2.80786
2.80749
2.80717
2.8068
2.80649
2.80612
2.80582
2.80546
2.80516
2.8048
2.8045
2.80414
2.80383
2.80345
2.80313
2.80273
2.80282
3.44574
3.4185
3.39143
3.36469
3.33854
3.31316
3.2887
3.26526
3.24292
3.22172
3.2017
3.18287
3.16523
3.14875
3.01935
3.01168
3.00418
2.99685
2.98971
2.98275
2.976
2.96946
2.96314
2.95705
2.95118
2.94555
2.94015
2.93499
2.93007
2.92536
2.92088
2.91661
2.91255
2.90867
2.90496
2.9014
2.89797
2.89468
2.89151
2.88845
2.88551
2.88268
2.87996
2.87734
2.87483
2.8724
2.87008
2.86784
2.86569
2.86362
2.86163
2.85972
2.85788
2.8561
2.85439
2.85273
2.85113
2.84958
2.84807
2.84662
2.84521
2.84384
2.84251
2.84123
2.83999
2.83879
2.83763
2.83652
2.83544
2.83441
2.83342
2.83247
2.83155
2.83067
2.82982
2.82901
2.82822
2.82747
2.82675
2.82605
2.82538
2.82473
2.8241
2.8235
2.82291
2.82235
2.82181
2.82128
2.82077
2.82029
2.81981
2.81936
2.81892
2.81849
2.81809
2.8177
2.81732
2.81697
2.81664
2.81633
2.81603
2.81576
2.81552
2.81529
2.81509
2.81492
2.81476
2.81463
2.81452
2.81443
2.81434
2.81428
2.81422
2.81417
2.81413
2.8141
2.81407
2.81403
2.814
2.81398
2.81395
2.81391
2.81388
2.81384
2.8138
2.81376
2.81371
2.81367
2.81361
2.81356
2.81349
2.81343
2.81336
2.81328
2.8132
2.81311
2.81301
2.81291
2.8128
2.81269
2.81257
2.81244
2.81231
2.81217
2.81203
2.81189
2.81174
2.81159
2.81143
2.81128
2.81112
2.81096
2.8108
2.81062
2.81045
2.81026
2.81007
2.80986
2.80966
2.80944
2.80923
2.80899
2.80877
2.80852
2.80827
2.808
2.80775
2.80745
2.80718
2.80686
2.80657
2.80623
2.80591
2.80555
2.80522
2.80484
2.80449
2.8041
2.80373
2.80332
2.80293
2.80252
2.8021
2.80167
2.80123
2.80078
2.80032
2.79985
2.79936
2.79888
2.79838
2.79788
2.79737
2.79685
2.79631
2.79577
2.79521
2.79463
2.79403
2.79342
2.79277
2.79212
2.79142
2.79072
2.78998
2.78921
2.78899
3.11377
3.0847
3.05676
3.02992
3.00462
2.98117
2.9597
2.94024
2.92277
2.90726
2.89363
2.88182
2.87171
2.86326
2.87636
2.87383
2.87139
2.86906
2.86682
2.86469
2.86264
2.86069
2.85883
2.85704
2.85533
2.85368
2.8521
2.85057
2.8491
2.84768
2.84631
2.84499
2.84372
2.84249
2.84131
2.84018
2.83909
2.83805
2.83705
2.83609
2.83517
2.83428
2.83343
2.8326
2.83181
2.83104
2.83029
2.82957
2.82887
2.82819
2.82753
2.82688
2.82626
2.82565
2.82505
2.82448
2.82392
2.82338
2.82286
2.82235
2.82186
2.82138
2.82093
2.82049
2.82006
2.81966
2.81928
2.81891
2.81857
2.81824
2.81793
2.81763
2.81735
2.81708
2.81682
2.81657
2.81634
2.8161
2.81588
2.81566
2.81545
2.81524
2.81504
2.81485
2.81466
2.81447
2.8143
2.81414
2.81398
2.81383
2.81369
2.81356
2.81343
2.8133
2.81319
2.81308
2.81297
2.81286
2.81277
2.81267
2.81256
2.81245
2.81236
2.81225
2.81212
2.81202
2.81192
2.81177
2.81165
2.81155
2.81141
2.81128
2.81119
2.81108
2.81095
2.81085
2.81077
2.81067
2.81058
2.81049
2.81041
2.81031
2.81021
2.81012
2.81002
2.80991
2.8098
2.80968
2.80956
2.80944
2.80931
2.80917
2.80903
2.80888
2.80872
2.80855
2.80838
2.8082
2.80801
2.80781
2.80761
2.8074
2.80718
2.80695
2.80671
2.80646
2.80619
2.80592
2.80564
2.80533
2.80502
2.80468
2.80433
2.80398
2.80362
2.80326
2.80289
2.80251
2.80213
2.80174
2.80133
2.80092
2.8005
2.80006
2.79961
2.79915
2.79867
2.79818
2.79768
2.79716
2.79663
2.79608
2.79552
2.79495
2.79436
2.79376
2.79314
2.79251
2.79187
2.79121
2.79053
2.78983
2.78912
2.78839
2.78764
2.78688
2.7861
2.78531
2.78449
2.78365
2.78278
2.78189
2.78097
2.78002
2.77904
2.77803
2.77699
2.77592
2.77481
2.77367
2.7725
2.7713
2.77006
2.7688
2.76751
2.76613
2.76584
2.80098
2.78335
2.76852
2.75633
2.74641
2.73855
2.73259
2.72833
2.72552
2.72396
2.72348
2.72401
2.7254
2.83491
2.83414
2.83338
2.83265
2.83195
2.83126
2.8306
2.82996
2.82933
2.82873
2.82814
2.82758
2.82703
2.82649
2.82598
2.82548
2.825
2.82454
2.8241
2.82367
2.82326
2.82286
2.82247
2.8221
2.82173
2.82138
2.82103
2.82069
2.82036
2.82003
2.81971
2.81939
2.81908
2.81878
2.81848
2.8182
2.81792
2.81764
2.81738
2.81713
2.81689
2.81665
2.81643
2.81621
2.81601
2.8158
2.81561
2.81543
2.81524
2.81505
2.81487
2.81469
2.8145
2.81432
2.81412
2.81393
2.81375
2.81354
2.81335
2.81317
2.81296
2.81278
2.81261
2.8124
2.81223
2.81208
2.8119
2.81174
2.8116
2.81144
2.8113
2.81117
2.81103
2.81089
2.81078
2.81065
2.81051
2.81041
2.8103
2.81016
2.81006
2.80996
2.80984
2.80972
2.80962
2.80953
2.8094
2.80926
2.80919
2.80908
2.8089
2.80879
2.8087
2.8085
2.80835
2.80826
2.80807
2.80788
2.80776
2.80758
2.80736
2.80718
2.80699
2.80675
2.80652
2.80628
2.80605
2.8058
2.80556
2.80532
2.80507
2.80482
2.80456
2.8043
2.80403
2.80375
2.80346
2.80317
2.80287
2.80255
2.80223
2.80189
2.80154
2.80118
2.8008
2.80042
2.80002
2.7996
2.79918
2.79873
2.79828
2.79781
2.79732
2.79682
2.79631
2.79578
2.79524
2.79469
2.79414
2.79357
2.79298
2.79238
2.79176
2.79113
2.79047
2.7898
2.7891
2.78839
2.78766
2.7869
2.78613
2.78533
2.78451
2.78367
2.78281
2.78192
2.78101
2.78008
2.77912
2.77814
2.77713
2.7761
2.77504
2.77395
2.77283
2.77169
2.77051
2.7693
2.76806
2.76678
2.76547
2.76412
2.76274
2.76131
2.75984
2.75834
2.75678
2.75519
2.75355
2.75187
2.75014
2.74836
2.74654
2.74467
2.74276
2.74079
2.73877
2.73671
2.73459
2.73244
2.73023
2.72794
2.72761
2.63706
2.63535
2.63496
2.63575
2.63734
2.63966
2.64266
2.64625
2.65038
2.65523
2.66061
2.66635
2.6724
2.82116
2.82088
2.82062
2.82038
2.82015
2.81993
2.81972
2.81951
2.81933
2.81915
2.81898
2.81882
2.81866
2.8185
2.81833
2.81816
2.81798
2.81779
2.8176
2.81739
2.81717
2.81695
2.81672
2.81648
2.81625
2.816
2.81576
2.81552
2.81526
2.81503
2.8148
2.81456
2.81433
2.81412
2.81389
2.81368
2.81348
2.81327
2.81307
2.81287
2.81267
2.81248
2.81229
2.81209
2.8119
2.81172
2.81154
2.81135
2.81116
2.81099
2.81082
2.81064
2.81044
2.81032
2.81017
2.80995
2.80985
2.80972
2.80952
2.80943
2.80931
2.80912
2.80904
2.80891
2.80872
2.80863
2.80852
2.80832
2.8082
2.8081
2.80791
2.80775
2.80765
2.80747
2.80727
2.80714
2.80698
2.80674
2.80656
2.80639
2.80618
2.8059
2.80567
2.80547
2.80517
2.80486
2.80465
2.80437
2.80403
2.80378
2.80352
2.80317
2.80287
2.80259
2.80225
2.80191
2.80159
2.80124
2.80088
2.80053
2.80018
2.79981
2.79944
2.79908
2.7987
2.79831
2.79791
2.7975
2.79708
2.79664
2.7962
2.79574
2.79527
2.79478
2.79428
2.79376
2.79322
2.79267
2.7921
2.79151
2.7909
2.79027
2.78962
2.78895
2.78826
2.78756
2.78682
2.78607
2.7853
2.78451
2.78369
2.78286
2.782
2.78113
2.78023
2.7793
2.77835
2.77738
2.77637
2.77534
2.77428
2.77318
2.77206
2.77091
2.76972
2.7685
2.76725
2.76597
2.76465
2.7633
2.76191
2.76048
2.75902
2.75752
2.75598
2.7544
2.75277
2.7511
2.74939
2.74763
2.74582
2.74397
2.74207
2.74011
2.7381
2.73604
2.73392
2.73175
2.72952
2.72723
2.72488
2.72247
2.72
2.71747
2.71487
2.71221
2.70948
2.70669
2.70383
2.7009
2.6979
2.69483
2.69168
2.68845
2.68514
2.68177
2.6783
2.67484
2.67129
2.66784
2.6676
2.57993
2.5852
2.59092
2.59696
2.60324
2.60984
2.61736
2.62334
2.63048
2.63833
2.646
2.65371
2.81616
2.816
2.81579
2.81561
2.81549
2.81533
2.81516
2.815
2.81484
2.81468
2.81451
2.81434
2.81418
2.81401
2.81385
2.81368
2.81351
2.81334
2.81317
2.813
2.81283
2.81265
2.81247
2.8123
2.81212
2.81194
2.81177
2.81158
2.81139
2.81123
2.81104
2.81085
2.81069
2.8105
2.81031
2.81016
2.80997
2.80977
2.80962
2.80945
2.80924
2.80908
2.80894
2.80875
2.80856
2.80844
2.80829
2.80808
2.8079
2.80777
2.80762
2.80739
2.80718
2.80709
2.80687
2.80661
2.80649
2.80627
2.80598
2.80585
2.80558
2.80527
2.80512
2.80485
2.80454
2.80436
2.8041
2.80377
2.80353
2.80331
2.80296
2.80265
2.80242
2.80208
2.80172
2.80145
2.80111
2.80073
2.80038
2.80006
2.79966
2.79927
2.79889
2.79852
2.7981
2.79769
2.79727
2.79684
2.79639
2.79594
2.79548
2.795
2.79451
2.79402
2.79351
2.79298
2.79245
2.79191
2.79135
2.79079
2.79021
2.78962
2.78901
2.78839
2.78775
2.78709
2.7864
2.7857
2.78498
2.78424
2.78347
2.78268
2.78187
2.78103
2.78017
2.77928
2.77837
2.77743
2.77646
2.77546
2.77443
2.77338
2.77229
2.77117
2.77002
2.76884
2.76763
2.76638
2.7651
2.76378
2.76244
2.76105
2.75963
2.75816
2.75666
2.75512
2.75354
2.75191
2.75024
2.74853
2.74677
2.74496
2.74311
2.74121
2.73926
2.73726
2.73521
2.7331
2.73094
2.72873
2.72645
2.72412
2.72173
2.71928
2.71677
2.71419
2.71154
2.70883
2.70605
2.7032
2.70027
2.69728
2.69421
2.69106
2.68784
2.68454
2.68116
2.6777
2.67416
2.67053
2.66682
2.66303
2.65915
2.65518
2.65112
2.64698
2.64274
2.6384
2.63397
2.62945
2.62482
2.6201
2.61525
2.61032
2.60525
2.60014
2.59491
2.5898
2.58461
2.58008
2.58038
2.55849
2.56598
2.57341
2.58078
2.58815
2.59563
2.60312
2.61056
2.61817
2.62591
2.81201
2.81188
2.81172
2.81158
2.81146
2.81134
2.81123
2.81107
2.81093
2.81081
2.81067
2.81052
2.81037
2.81021
2.81005
2.8099
2.80974
2.80959
2.80943
2.80928
2.80913
2.80897
2.80883
2.80868
2.80851
2.80836
2.80821
2.80801
2.80785
2.80771
2.80749
2.80731
2.80717
2.80693
2.80672
2.80658
2.80634
2.8061
2.80593
2.80572
2.80542
2.80521
2.80501
2.80469
2.80439
2.80417
2.80391
2.80355
2.80322
2.803
2.8027
2.80235
2.80199
2.80177
2.80142
2.80104
2.80078
2.80042
2.80004
2.79975
2.79939
2.79899
2.79868
2.7983
2.79788
2.79753
2.79712
2.79669
2.79627
2.79585
2.7954
2.79494
2.79448
2.79399
2.79349
2.79299
2.79247
2.79194
2.7914
2.79084
2.79027
2.78968
2.78908
2.78847
2.78783
2.78718
2.78651
2.78583
2.78512
2.7844
2.78366
2.78289
2.78211
2.78131
2.78049
2.77965
2.77879
2.77791
2.777
2.77607
2.77511
2.77413
2.77312
2.77208
2.77101
2.76991
2.76877
2.76761
2.76641
2.76518
2.76391
2.76261
2.76127
2.75989
2.75848
2.75702
2.75553
2.75399
2.75242
2.7508
2.74913
2.74742
2.74567
2.74386
2.74201
2.74011
2.73817
2.73617
2.73411
2.73201
2.72985
2.72763
2.72536
2.72303
2.72064
2.71819
2.71568
2.71311
2.71047
2.70777
2.705
2.70217
2.69926
2.69628
2.69323
2.69011
2.68691
2.68363
2.68027
2.67684
2.67332
2.66972
2.66603
2.66226
2.65839
2.65444
2.6504
2.64626
2.64204
2.63771
2.63329
2.62878
2.62416
2.61945
2.61463
2.60971
2.60469
2.59956
2.59433
2.58899
2.58355
2.57799
2.57232
2.56654
2.56065
2.55465
2.54853
2.54229
2.53593
2.52945
2.52284
2.51611
2.50924
2.50227
2.49516
2.48806
2.48089
2.47408
2.46722
2.46216
2.4637
2.55354
2.56117
2.56888
2.57674
2.58478
2.59293
2.60113
2.60933
2.61753
2.80813
2.80795
2.80778
2.80763
2.80747
2.80729
2.80712
2.80697
2.80682
2.80663
2.80648
2.80635
2.80618
2.80603
2.80589
2.80574
2.80559
2.80544
2.80529
2.80512
2.80494
2.80477
2.80457
2.80433
2.80413
2.80392
2.80359
2.80335
2.80312
2.80276
2.80248
2.80223
2.80185
2.80153
2.80127
2.80088
2.80051
2.80023
2.79984
2.79944
2.7991
2.79874
2.79833
2.79792
2.79757
2.79716
2.79675
2.79632
2.79592
2.79549
2.79503
2.79458
2.79413
2.79367
2.79318
2.7927
2.79221
2.79169
2.79118
2.79065
2.7901
2.78954
2.78896
2.78837
2.78776
2.78714
2.7865
2.78584
2.78517
2.78448
2.78377
2.78304
2.78229
2.78152
2.78073
2.77993
2.77909
2.77824
2.77736
2.77646
2.77554
2.77458
2.7736
2.7726
2.77157
2.7705
2.76941
2.76829
2.76715
2.76597
2.76476
2.76352
2.76224
2.76093
2.75959
2.75821
2.7568
2.75535
2.75385
2.75232
2.75075
2.74913
2.74747
2.74577
2.74402
2.74222
2.74037
2.73848
2.73653
2.73454
2.73249
2.73039
2.72823
2.72602
2.72375
2.72142
2.71903
2.71658
2.71407
2.7115
2.70886
2.70616
2.70339
2.70055
2.69764
2.69466
2.69161
2.68849
2.68529
2.68201
2.67866
2.67523
2.67172
2.66812
2.66445
2.66069
2.65684
2.65291
2.64889
2.64477
2.64057
2.63627
2.63188
2.62738
2.62279
2.6181
2.61331
2.60842
2.60342
2.59832
2.59311
2.58779
2.58237
2.57683
2.57119
2.56543
2.55955
2.55356
2.54746
2.54124
2.5349
2.52845
2.52188
2.51518
2.50837
2.50144
2.49438
2.4872
2.4799
2.47247
2.46492
2.45724
2.44944
2.44151
2.43346
2.42527
2.41696
2.40851
2.39992
2.39119
2.38234
2.37333
2.36427
2.3551
2.3461
2.33714
2.3289
2.32072
2.31599
2.3196
2.54437
2.55241
2.80368
2.80347
2.80326
2.80306
2.80287
2.80265
2.80243
2.80229
2.80209
2.80185
2.80166
2.80147
2.8012
2.80097
2.80073
2.80042
2.80014
2.79987
2.79959
2.79928
2.79897
2.79871
2.79839
2.798
2.79771
2.79738
2.79695
2.79663
2.79624
2.79581
2.79543
2.795
2.79456
2.7941
2.79365
2.79317
2.79268
2.7922
2.7917
2.79118
2.79066
2.79013
2.78959
2.78903
2.78847
2.78789
2.7873
2.78669
2.78607
2.78543
2.78478
2.78411
2.78342
2.78272
2.782
2.78126
2.7805
2.77972
2.77892
2.7781
2.77726
2.77639
2.7755
2.77459
2.77365
2.77269
2.7717
2.77069
2.76964
2.76857
2.76748
2.76635
2.76519
2.764
2.76277
2.76152
2.76023
2.7589
2.75754
2.75614
2.7547
2.75322
2.75171
2.75015
2.74855
2.74691
2.74523
2.74351
2.74174
2.73992
2.73806
2.73614
2.73418
2.73217
2.73011
2.728
2.72583
2.72361
2.72133
2.71899
2.71659
2.71414
2.71162
2.70904
2.70639
2.70368
2.7009
2.69805
2.69514
2.69215
2.68909
2.68596
2.68275
2.67947
2.6761
2.67266
2.66914
2.66554
2.66186
2.65809
2.65424
2.6503
2.64627
2.64215
2.63794
2.63364
2.62924
2.62475
2.62016
2.61548
2.61069
2.60581
2.60082
2.59573
2.59054
2.58524
2.57983
2.57432
2.56869
2.56295
2.5571
2.55114
2.54506
2.53887
2.53255
2.52613
2.51958
2.51291
2.50612
2.49921
2.49218
2.48502
2.47774
2.47034
2.46281
2.45516
2.44738
2.43948
2.43145
2.4233
2.41502
2.40661
2.39808
2.38942
2.38063
2.37172
2.36268
2.35351
2.34422
2.3348
2.32525
2.31558
2.30578
2.29585
2.2858
2.27562
2.26531
2.25487
2.24429
2.23357
2.22274
2.2118
2.20088
2.18999
2.17948
2.16924
2.16014
2.15141
2.14759
2.15413
2.7981
2.79783
2.79754
2.79724
2.79693
2.7966
2.79625
2.7959
2.79551
2.79512
2.79477
2.79439
2.79397
2.79361
2.79327
2.79286
2.79245
2.79212
2.79173
2.79126
2.79085
2.79047
2.78998
2.78949
2.78908
2.78855
2.78803
2.78751
2.78695
2.78637
2.78579
2.78518
2.78456
2.78392
2.78326
2.78258
2.78189
2.78118
2.78046
2.77972
2.77895
2.77817
2.77737
2.77655
2.77571
2.77484
2.77395
2.77305
2.77211
2.77115
2.77017
2.76916
2.76813
2.76706
2.76597
2.76485
2.7637
2.76252
2.7613
2.76006
2.75878
2.75747
2.75612
2.75474
2.75332
2.75186
2.75037
2.74883
2.74726
2.74564
2.74398
2.74228
2.74053
2.73873
2.73689
2.735
2.73306
2.73107
2.72903
2.72693
2.72478
2.72258
2.72032
2.71801
2.71564
2.7132
2.71071
2.70816
2.70554
2.70286
2.70012
2.69731
2.69443
2.69148
2.68847
2.68538
2.68222
2.67898
2.67567
2.67228
2.66882
2.66527
2.66165
2.65794
2.65414
2.65026
2.6463
2.64224
2.6381
2.63386
2.62954
2.62511
2.6206
2.61599
2.61128
2.60647
2.60156
2.59656
2.59145
2.58624
2.58092
2.5755
2.56997
2.56433
2.55859
2.55273
2.54676
2.54068
2.53449
2.52818
2.52176
2.51521
2.50855
2.50178
2.49488
2.48786
2.48072
2.47346
2.46608
2.45857
2.45094
2.44319
2.43531
2.4273
2.41917
2.41091
2.40253
2.39402
2.38539
2.37663
2.36774
2.35873
2.3496
2.34033
2.33095
2.32144
2.3118
2.30204
2.29216
2.28215
2.27203
2.26178
2.25141
2.24092
2.23031
2.21959
2.20874
2.19778
2.18671
2.17552
2.16422
2.1528
2.14128
2.12965
2.1179
2.10604
2.09407
2.08197
2.06976
2.05744
2.04506
2.03266
2.02043
2.00843
1.99708
1.98625
1.97699
1.96859
1.96582
1.97591
2.79038
2.78991
2.78943
2.78894
2.78844
2.78794
2.78743
2.78693
2.78642