/*--------------------------------*- C++ -*----------------------------------*\
| =========                 |                                                 |
| \\      /  F ield         | OpenFOAM: The Open Source CFD Toolbox           |
|  \\    /   O peration     | Version:  v1706                                 |
|   \\  /    A nd           | Web:      www.OpenFOAM.com                      |
|    \\/     M anipulation  |                                                 |
\*---------------------------------------------------------------------------*/
FoamFile
{
    version     2.0;
    format      ascii;
    class       volScalarField;
    location    "1.6e-05";
    object      mu;
}
// * * * * * * * * * * * * * * * * * * * * * * * * * * * * * * * * * * * * * //

dimensions      [1 -1 -1 0 0 0 0];


internalField   nonuniform List<scalar> 
30104
(
1.03513e-05
1.03513e-05
1.03514e-05
1.03514e-05
1.03514e-05
1.03514e-05
1.03515e-05
1.03515e-05
1.03515e-05
1.03515e-05
1.03516e-05
1.03516e-05
1.03516e-05
1.03517e-05
1.03517e-05
1.03517e-05
1.03518e-05
1.03514e-05
1.03514e-05
1.03514e-05
1.03515e-05
1.03515e-05
1.03515e-05
1.03515e-05
1.03515e-05
1.03515e-05
1.03515e-05
1.03515e-05
1.03515e-05
1.03515e-05
1.03515e-05
1.03515e-05
1.03515e-05
1.03515e-05
1.03515e-05
1.03515e-05
1.03515e-05
1.03516e-05
1.03516e-05
1.03516e-05
1.03516e-05
1.03516e-05
1.03516e-05
1.03516e-05
1.03516e-05
1.03516e-05
1.03516e-05
1.03516e-05
1.03516e-05
1.03516e-05
1.03516e-05
1.03516e-05
1.03517e-05
1.03517e-05
1.03517e-05
1.03517e-05
1.03517e-05
1.03517e-05
1.03517e-05
1.03517e-05
1.03517e-05
1.03517e-05
1.03517e-05
1.03517e-05
1.03517e-05
1.03518e-05
1.03518e-05
1.03518e-05
1.03518e-05
1.03518e-05
1.03518e-05
1.03518e-05
1.03518e-05
1.03518e-05
1.03518e-05
1.03518e-05
1.03519e-05
1.03519e-05
1.03519e-05
1.03519e-05
1.03519e-05
1.03519e-05
1.03519e-05
1.03519e-05
1.03519e-05
1.03519e-05
1.0352e-05
1.0352e-05
1.0352e-05
1.0352e-05
1.0352e-05
1.0352e-05
1.0352e-05
1.0352e-05
1.03521e-05
1.03521e-05
1.03521e-05
1.03521e-05
1.03521e-05
1.03521e-05
1.03521e-05
1.03521e-05
1.03522e-05
1.03522e-05
1.03522e-05
1.03522e-05
1.03522e-05
1.03522e-05
1.03522e-05
1.03523e-05
1.03523e-05
1.03523e-05
1.03523e-05
1.03523e-05
1.03523e-05
1.03523e-05
1.03524e-05
1.03524e-05
1.03524e-05
1.03524e-05
1.03524e-05
1.03524e-05
1.03525e-05
1.03525e-05
1.03525e-05
1.03525e-05
1.03525e-05
1.03526e-05
1.03526e-05
1.03526e-05
1.03526e-05
1.03526e-05
1.03527e-05
1.03527e-05
1.03527e-05
1.03527e-05
1.03527e-05
1.03528e-05
1.03528e-05
1.03528e-05
1.03528e-05
1.03528e-05
1.03529e-05
1.03529e-05
1.03529e-05
1.03529e-05
1.0353e-05
1.0353e-05
1.0353e-05
1.0353e-05
1.03531e-05
1.03531e-05
1.03531e-05
1.03531e-05
1.03532e-05
1.03532e-05
1.03532e-05
1.03532e-05
1.03533e-05
1.03533e-05
1.03533e-05
1.03534e-05
1.03534e-05
1.03534e-05
1.03535e-05
1.03535e-05
1.03535e-05
1.03536e-05
1.03536e-05
1.03536e-05
1.03537e-05
1.03537e-05
1.03537e-05
1.03538e-05
1.03538e-05
1.03539e-05
1.03539e-05
1.03539e-05
1.0354e-05
1.0354e-05
1.03541e-05
1.03541e-05
1.03542e-05
1.03542e-05
1.03543e-05
1.03543e-05
1.03544e-05
1.03544e-05
1.03544e-05
1.03545e-05
1.03545e-05
1.03546e-05
1.03546e-05
1.03547e-05
1.03547e-05
1.03548e-05
1.03548e-05
1.03549e-05
1.03549e-05
1.0355e-05
1.0355e-05
1.03551e-05
1.03551e-05
1.03552e-05
1.03552e-05
1.03553e-05
1.03553e-05
1.03553e-05
1.03553e-05
1.03547e-05
1.03527e-05
1.03529e-05
1.0353e-05
1.03531e-05
1.03533e-05
1.03534e-05
1.03536e-05
1.03538e-05
1.03539e-05
1.03541e-05
1.03543e-05
1.03545e-05
1.03546e-05
1.03548e-05
1.0355e-05
1.03552e-05
1.03554e-05
1.03538e-05
1.03538e-05
1.03539e-05
1.03539e-05
1.0354e-05
1.0354e-05
1.03541e-05
1.03541e-05
1.03541e-05
1.03542e-05
1.03542e-05
1.03543e-05
1.03543e-05
1.03544e-05
1.03544e-05
1.03545e-05
1.03545e-05
1.03545e-05
1.03546e-05
1.03546e-05
1.03547e-05
1.03547e-05
1.03548e-05
1.03548e-05
1.03549e-05
1.03549e-05
1.0355e-05
1.0355e-05
1.03551e-05
1.03551e-05
1.03552e-05
1.03552e-05
1.03553e-05
1.03553e-05
1.03554e-05
1.03554e-05
1.03555e-05
1.03556e-05
1.03556e-05
1.03557e-05
1.03557e-05
1.03558e-05
1.03559e-05
1.03559e-05
1.0356e-05
1.0356e-05
1.03561e-05
1.03562e-05
1.03562e-05
1.03563e-05
1.03564e-05
1.03564e-05
1.03565e-05
1.03566e-05
1.03566e-05
1.03567e-05
1.03568e-05
1.03569e-05
1.03569e-05
1.0357e-05
1.03571e-05
1.03572e-05
1.03573e-05
1.03573e-05
1.03574e-05
1.03575e-05
1.03576e-05
1.03577e-05
1.03578e-05
1.03579e-05
1.0358e-05
1.03581e-05
1.03582e-05
1.03582e-05
1.03583e-05
1.03584e-05
1.03585e-05
1.03586e-05
1.03587e-05
1.03588e-05
1.03589e-05
1.03591e-05
1.03592e-05
1.03593e-05
1.03594e-05
1.03595e-05
1.03596e-05
1.03597e-05
1.03598e-05
1.036e-05
1.03601e-05
1.03602e-05
1.03603e-05
1.03604e-05
1.03606e-05
1.03607e-05
1.03608e-05
1.0361e-05
1.03611e-05
1.03612e-05
1.03614e-05
1.03615e-05
1.03617e-05
1.03618e-05
1.0362e-05
1.03621e-05
1.03623e-05
1.03625e-05
1.03626e-05
1.03628e-05
1.0363e-05
1.03631e-05
1.03633e-05
1.03635e-05
1.03637e-05
1.03639e-05
1.03641e-05
1.03643e-05
1.03645e-05
1.03647e-05
1.03649e-05
1.03651e-05
1.03653e-05
1.03655e-05
1.03657e-05
1.03659e-05
1.03661e-05
1.03663e-05
1.03666e-05
1.03668e-05
1.0367e-05
1.03672e-05
1.03675e-05
1.03677e-05
1.03679e-05
1.03682e-05
1.03684e-05
1.03686e-05
1.03689e-05
1.03691e-05
1.03694e-05
1.03696e-05
1.03699e-05
1.03702e-05
1.03704e-05
1.03707e-05
1.0371e-05
1.03713e-05
1.03716e-05
1.03719e-05
1.03722e-05
1.03725e-05
1.03728e-05
1.03731e-05
1.03735e-05
1.03738e-05
1.03741e-05
1.03745e-05
1.03749e-05
1.03752e-05
1.03756e-05
1.0376e-05
1.03764e-05
1.03768e-05
1.03772e-05
1.03776e-05
1.0378e-05
1.03785e-05
1.03789e-05
1.03793e-05
1.03798e-05
1.03803e-05
1.03807e-05
1.03812e-05
1.03817e-05
1.03821e-05
1.03826e-05
1.03831e-05
1.03836e-05
1.03841e-05
1.03846e-05
1.03851e-05
1.03856e-05
1.03861e-05
1.03866e-05
1.03871e-05
1.03876e-05
1.03881e-05
1.03886e-05
1.03892e-05
1.03897e-05
1.03897e-05
1.03864e-05
1.03563e-05
1.03567e-05
1.03571e-05
1.03576e-05
1.0358e-05
1.03585e-05
1.0359e-05
1.03595e-05
1.036e-05
1.03606e-05
1.03611e-05
1.03617e-05
1.03622e-05
1.03628e-05
1.03633e-05
1.03639e-05
1.03605e-05
1.03607e-05
1.03608e-05
1.0361e-05
1.03612e-05
1.03613e-05
1.03615e-05
1.03617e-05
1.03618e-05
1.0362e-05
1.03622e-05
1.03623e-05
1.03625e-05
1.03627e-05
1.03628e-05
1.0363e-05
1.03632e-05
1.03634e-05
1.03635e-05
1.03637e-05
1.03639e-05
1.03641e-05
1.03643e-05
1.03645e-05
1.03646e-05
1.03648e-05
1.0365e-05
1.03652e-05
1.03654e-05
1.03656e-05
1.03658e-05
1.0366e-05
1.03662e-05
1.03665e-05
1.03667e-05
1.03669e-05
1.03671e-05
1.03674e-05
1.03676e-05
1.03678e-05
1.03681e-05
1.03683e-05
1.03686e-05
1.03688e-05
1.03691e-05
1.03693e-05
1.03696e-05
1.03698e-05
1.03701e-05
1.03704e-05
1.03707e-05
1.0371e-05
1.03712e-05
1.03715e-05
1.03718e-05
1.03721e-05
1.03724e-05
1.03728e-05
1.03731e-05
1.03734e-05
1.03737e-05
1.03741e-05
1.03744e-05
1.03747e-05
1.03751e-05
1.03755e-05
1.03758e-05
1.03762e-05
1.03766e-05
1.0377e-05
1.03774e-05
1.03778e-05
1.03782e-05
1.03786e-05
1.0379e-05
1.03794e-05
1.03799e-05
1.03803e-05
1.03808e-05
1.03812e-05
1.03817e-05
1.03822e-05
1.03826e-05
1.03831e-05
1.03836e-05
1.03841e-05
1.03846e-05
1.03851e-05
1.03856e-05
1.03862e-05
1.03867e-05
1.03872e-05
1.03878e-05
1.03883e-05
1.03889e-05
1.03895e-05
1.03901e-05
1.03906e-05
1.03913e-05
1.03919e-05
1.03925e-05
1.03931e-05
1.03938e-05
1.03945e-05
1.03952e-05
1.03958e-05
1.03966e-05
1.03973e-05
1.0398e-05
1.03988e-05
1.03995e-05
1.04003e-05
1.04011e-05
1.04019e-05
1.04028e-05
1.04036e-05
1.04045e-05
1.04053e-05
1.04062e-05
1.04071e-05
1.04081e-05
1.0409e-05
1.041e-05
1.04109e-05
1.04119e-05
1.04129e-05
1.04139e-05
1.04149e-05
1.0416e-05
1.0417e-05
1.04181e-05
1.04192e-05
1.04202e-05
1.04213e-05
1.04225e-05
1.04236e-05
1.04247e-05
1.04259e-05
1.0427e-05
1.04282e-05
1.04294e-05
1.04307e-05
1.04319e-05
1.04332e-05
1.04345e-05
1.04358e-05
1.04371e-05
1.04385e-05
1.04399e-05
1.04414e-05
1.04428e-05
1.04443e-05
1.04459e-05
1.04475e-05
1.04491e-05
1.04508e-05
1.04525e-05
1.04543e-05
1.04561e-05
1.04579e-05
1.04599e-05
1.04618e-05
1.04638e-05
1.04659e-05
1.0468e-05
1.04702e-05
1.04724e-05
1.04747e-05
1.0477e-05
1.04794e-05
1.04818e-05
1.04843e-05
1.04868e-05
1.04893e-05
1.04919e-05
1.04945e-05
1.04972e-05
1.04999e-05
1.05026e-05
1.05053e-05
1.05081e-05
1.05108e-05
1.05136e-05
1.05164e-05
1.05193e-05
1.05221e-05
1.05249e-05
1.05278e-05
1.05307e-05
1.05335e-05
1.05366e-05
1.05375e-05
1.05262e-05
1.03651e-05
1.03662e-05
1.03673e-05
1.03685e-05
1.03697e-05
1.0371e-05
1.03723e-05
1.03737e-05
1.0375e-05
1.03765e-05
1.03779e-05
1.03793e-05
1.03808e-05
1.03823e-05
1.03837e-05
1.03852e-05
1.03788e-05
1.03793e-05
1.03798e-05
1.03803e-05
1.03808e-05
1.03813e-05
1.03819e-05
1.03824e-05
1.0383e-05
1.03835e-05
1.03841e-05
1.03847e-05
1.03852e-05
1.03858e-05
1.03864e-05
1.03869e-05
1.03875e-05
1.03881e-05
1.03887e-05
1.03893e-05
1.03899e-05
1.03905e-05
1.03911e-05
1.03918e-05
1.03924e-05
1.03931e-05
1.03937e-05
1.03944e-05
1.03951e-05
1.03958e-05
1.03965e-05
1.03972e-05
1.03979e-05
1.03987e-05
1.03994e-05
1.04002e-05
1.0401e-05
1.04018e-05
1.04026e-05
1.04034e-05
1.04042e-05
1.04051e-05
1.0406e-05
1.04069e-05
1.04077e-05
1.04087e-05
1.04096e-05
1.04105e-05
1.04115e-05
1.04124e-05
1.04134e-05
1.04144e-05
1.04154e-05
1.04165e-05
1.04175e-05
1.04186e-05
1.04197e-05
1.04208e-05
1.04219e-05
1.0423e-05
1.04242e-05
1.04254e-05
1.04266e-05
1.04279e-05
1.04291e-05
1.04304e-05
1.04317e-05
1.04331e-05
1.04344e-05
1.04358e-05
1.04373e-05
1.04387e-05
1.04402e-05
1.04417e-05
1.04432e-05
1.04448e-05
1.04464e-05
1.0448e-05
1.04497e-05
1.04514e-05
1.04531e-05
1.04549e-05
1.04566e-05
1.04584e-05
1.04603e-05
1.04621e-05
1.0464e-05
1.04659e-05
1.04679e-05
1.04698e-05
1.04718e-05
1.04739e-05
1.04759e-05
1.0478e-05
1.04802e-05
1.04823e-05
1.04845e-05
1.04868e-05
1.0489e-05
1.04914e-05
1.04937e-05
1.04962e-05
1.04986e-05
1.05012e-05
1.05038e-05
1.05064e-05
1.05091e-05
1.05119e-05
1.05147e-05
1.05176e-05
1.05206e-05
1.05236e-05
1.05267e-05
1.05299e-05
1.05332e-05
1.05365e-05
1.054e-05
1.05435e-05
1.05471e-05
1.05508e-05
1.05545e-05
1.05584e-05
1.05623e-05
1.05663e-05
1.05704e-05
1.05746e-05
1.05788e-05
1.05832e-05
1.05875e-05
1.0592e-05
1.05965e-05
1.06011e-05
1.06057e-05
1.06103e-05
1.0615e-05
1.06198e-05
1.06246e-05
1.06294e-05
1.06343e-05
1.06392e-05
1.06442e-05
1.06492e-05
1.06542e-05
1.06594e-05
1.06646e-05
1.06698e-05
1.06752e-05
1.06806e-05
1.06861e-05
1.06917e-05
1.06974e-05
1.07032e-05
1.07091e-05
1.07152e-05
1.07214e-05
1.07277e-05
1.07342e-05
1.07409e-05
1.07477e-05
1.07547e-05
1.0762e-05
1.07694e-05
1.0777e-05
1.07848e-05
1.07929e-05
1.08012e-05
1.08098e-05
1.08186e-05
1.08276e-05
1.08369e-05
1.08465e-05
1.08563e-05
1.08664e-05
1.08768e-05
1.08874e-05
1.08983e-05
1.09094e-05
1.09207e-05
1.09323e-05
1.09441e-05
1.09561e-05
1.09683e-05
1.09807e-05
1.09932e-05
1.10059e-05
1.10187e-05
1.10316e-05
1.10446e-05
1.10576e-05
1.10707e-05
1.10837e-05
1.10948e-05
1.10639e-05
1.03864e-05
1.03892e-05
1.0392e-05
1.03949e-05
1.0398e-05
1.04011e-05
1.04044e-05
1.04077e-05
1.04111e-05
1.04145e-05
1.04181e-05
1.04216e-05
1.04252e-05
1.04287e-05
1.04323e-05
1.04266e-05
1.04281e-05
1.04296e-05
1.04312e-05
1.04327e-05
1.04343e-05
1.0436e-05
1.04376e-05
1.04393e-05
1.04409e-05
1.04426e-05
1.04443e-05
1.04461e-05
1.04478e-05
1.04496e-05
1.04513e-05
1.04531e-05
1.04549e-05
1.04567e-05
1.04586e-05
1.04604e-05
1.04623e-05
1.04642e-05
1.04661e-05
1.04681e-05
1.04701e-05
1.04721e-05
1.04742e-05
1.04763e-05
1.04785e-05
1.04807e-05
1.04829e-05
1.04852e-05
1.04875e-05
1.04899e-05
1.04923e-05
1.04948e-05
1.04973e-05
1.04998e-05
1.05025e-05
1.05051e-05
1.05078e-05
1.05106e-05
1.05134e-05
1.05163e-05
1.05192e-05
1.05222e-05
1.05252e-05
1.05283e-05
1.05314e-05
1.05346e-05
1.05378e-05
1.05411e-05
1.05444e-05
1.05478e-05
1.05512e-05
1.05548e-05
1.05583e-05
1.0562e-05
1.05657e-05
1.05695e-05
1.05733e-05
1.05773e-05
1.05813e-05
1.05854e-05
1.05896e-05
1.05938e-05
1.05982e-05
1.06027e-05
1.06072e-05
1.06119e-05
1.06167e-05
1.06216e-05
1.06266e-05
1.06317e-05
1.06369e-05
1.06423e-05
1.06478e-05
1.06534e-05
1.06591e-05
1.06649e-05
1.06709e-05
1.0677e-05
1.06831e-05
1.06895e-05
1.06959e-05
1.07024e-05
1.07091e-05
1.07158e-05
1.07227e-05
1.07296e-05
1.07366e-05
1.07437e-05
1.07509e-05
1.07582e-05
1.07656e-05
1.07731e-05
1.07807e-05
1.07884e-05
1.07962e-05
1.08041e-05
1.08122e-05
1.08204e-05
1.08288e-05
1.08373e-05
1.08459e-05
1.08547e-05
1.08637e-05
1.08729e-05
1.08823e-05
1.08919e-05
1.09017e-05
1.09117e-05
1.0922e-05
1.09325e-05
1.09433e-05
1.09543e-05
1.09657e-05
1.09772e-05
1.09891e-05
1.10013e-05
1.10138e-05
1.10266e-05
1.10397e-05
1.10531e-05
1.10669e-05
1.10809e-05
1.10952e-05
1.11099e-05
1.11248e-05
1.114e-05
1.11555e-05
1.11712e-05
1.11872e-05
1.12033e-05
1.12197e-05
1.12362e-05
1.12529e-05
1.12697e-05
1.12865e-05
1.13035e-05
1.13205e-05
1.13377e-05
1.1355e-05
1.13725e-05
1.139e-05
1.14077e-05
1.14256e-05
1.14436e-05
1.14619e-05
1.14803e-05
1.1499e-05
1.15179e-05
1.15371e-05
1.15566e-05
1.15764e-05
1.15967e-05
1.16173e-05
1.16383e-05
1.16598e-05
1.16819e-05
1.17045e-05
1.17277e-05
1.17515e-05
1.1776e-05
1.18012e-05
1.18272e-05
1.1854e-05
1.18816e-05
1.19101e-05
1.19394e-05
1.19697e-05
1.20008e-05
1.20329e-05
1.20659e-05
1.20998e-05
1.21347e-05
1.21704e-05
1.2207e-05
1.22444e-05
1.22826e-05
1.23215e-05
1.23612e-05
1.24014e-05
1.24423e-05
1.24837e-05
1.25255e-05
1.25682e-05
1.26096e-05
1.26526e-05
1.2692e-05
1.274e-05
1.27135e-05
1.04308e-05
1.04369e-05
1.04434e-05
1.04501e-05
1.0457e-05
1.04642e-05
1.04716e-05
1.04792e-05
1.04869e-05
1.04948e-05
1.05029e-05
1.0511e-05
1.05192e-05
1.05274e-05
1.05357e-05
1.05439e-05
1.05466e-05
1.05507e-05
1.05549e-05
1.05591e-05
1.05634e-05
1.05679e-05
1.05723e-05
1.05769e-05
1.05816e-05
1.05863e-05
1.0591e-05
1.05959e-05
1.06007e-05
1.06057e-05
1.06107e-05
1.06157e-05
1.06208e-05
1.06259e-05
1.06311e-05
1.06363e-05
1.06417e-05
1.0647e-05
1.06525e-05
1.0658e-05
1.06636e-05
1.06694e-05
1.06752e-05
1.06811e-05
1.06872e-05
1.06933e-05
1.06996e-05
1.0706e-05
1.07125e-05
1.07192e-05
1.0726e-05
1.0733e-05
1.07401e-05
1.07473e-05
1.07548e-05
1.07623e-05
1.077e-05
1.07779e-05
1.0786e-05
1.07942e-05
1.08025e-05
1.08111e-05
1.08198e-05
1.08286e-05
1.08376e-05
1.08468e-05
1.08561e-05
1.08655e-05
1.08751e-05
1.08848e-05
1.08947e-05
1.09047e-05
1.09148e-05
1.09251e-05
1.09355e-05
1.09461e-05
1.09569e-05
1.09679e-05
1.0979e-05
1.09904e-05
1.10019e-05
1.10137e-05
1.10257e-05
1.10379e-05
1.10504e-05
1.10632e-05
1.10762e-05
1.10895e-05
1.11031e-05
1.1117e-05
1.11312e-05
1.11457e-05
1.11606e-05
1.11758e-05
1.11913e-05
1.12072e-05
1.12234e-05
1.124e-05
1.12569e-05
1.12742e-05
1.12919e-05
1.13098e-05
1.13281e-05
1.13468e-05
1.13657e-05
1.1385e-05
1.14046e-05
1.14244e-05
1.14445e-05
1.14647e-05
1.14852e-05
1.15058e-05
1.15265e-05
1.15475e-05
1.15686e-05
1.15899e-05
1.16113e-05
1.1633e-05
1.16549e-05
1.1677e-05
1.16993e-05
1.17219e-05
1.17448e-05
1.17679e-05
1.17914e-05
1.18152e-05
1.18394e-05
1.18639e-05
1.18889e-05
1.19144e-05
1.19403e-05
1.19668e-05
1.19939e-05
1.20216e-05
1.205e-05
1.2079e-05
1.21088e-05
1.21393e-05
1.21707e-05
1.22029e-05
1.22359e-05
1.22698e-05
1.23045e-05
1.23402e-05
1.23767e-05
1.24141e-05
1.24522e-05
1.24912e-05
1.2531e-05
1.25715e-05
1.26126e-05
1.26544e-05
1.26968e-05
1.27396e-05
1.27824e-05
1.28249e-05
1.28671e-05
1.29089e-05
1.29504e-05
1.29914e-05
1.30319e-05
1.3072e-05
1.31116e-05
1.31505e-05
1.31889e-05
1.32268e-05
1.32639e-05
1.33005e-05
1.33364e-05
1.33716e-05
1.34062e-05
1.344e-05
1.34732e-05
1.35056e-05
1.35373e-05
1.35683e-05
1.35985e-05
1.36279e-05
1.36566e-05
1.36845e-05
1.37116e-05
1.3738e-05
1.37635e-05
1.37883e-05
1.38123e-05
1.38355e-05
1.38579e-05
1.38797e-05
1.39006e-05
1.39209e-05
1.39405e-05
1.39595e-05
1.39777e-05
1.39955e-05
1.40125e-05
1.40293e-05
1.40451e-05
1.4061e-05
1.40759e-05
1.4091e-05
1.41049e-05
1.41194e-05
1.41325e-05
1.41462e-05
1.4159e-05
1.41719e-05
1.4185e-05
1.41998e-05
1.41783e-05
1.05383e-05
1.05524e-05
1.05671e-05
1.05823e-05
1.0598e-05
1.06142e-05
1.06307e-05
1.06475e-05
1.06647e-05
1.0682e-05
1.06995e-05
1.07172e-05
1.07348e-05
1.08297e-05
1.08399e-05
1.08504e-05
1.08611e-05
1.0872e-05
1.08832e-05
1.08946e-05
1.09062e-05
1.0918e-05
1.09299e-05
1.09421e-05
1.09543e-05
1.09668e-05
1.09794e-05
1.09921e-05
1.10049e-05
1.10178e-05
1.10309e-05
1.1044e-05
1.10573e-05
1.10707e-05
1.10842e-05
1.10978e-05
1.11116e-05
1.11256e-05
1.11397e-05
1.11541e-05
1.11687e-05
1.11835e-05
1.11985e-05
1.12138e-05
1.12294e-05
1.12453e-05
1.12614e-05
1.12779e-05
1.12947e-05
1.13118e-05
1.13293e-05
1.13471e-05
1.13653e-05
1.13838e-05
1.14027e-05
1.1422e-05
1.14416e-05
1.14616e-05
1.1482e-05
1.15027e-05
1.15238e-05
1.15453e-05
1.15671e-05
1.15893e-05
1.16118e-05
1.16347e-05
1.16578e-05
1.16812e-05
1.17049e-05
1.17287e-05
1.17528e-05
1.17771e-05
1.18017e-05
1.18265e-05
1.18515e-05
1.18768e-05
1.19023e-05
1.19281e-05
1.19541e-05
1.19805e-05
1.20071e-05
1.20341e-05
1.20614e-05
1.20891e-05
1.21171e-05
1.21455e-05
1.21744e-05
1.22036e-05
1.22334e-05
1.22636e-05
1.22944e-05
1.23258e-05
1.23577e-05
1.23902e-05
1.24233e-05
1.24571e-05
1.24915e-05
1.25266e-05
1.25623e-05
1.25987e-05
1.26357e-05
1.26734e-05
1.27117e-05
1.27505e-05
1.279e-05
1.28299e-05
1.28704e-05
1.2911e-05
1.29514e-05
1.29916e-05
1.30315e-05
1.3071e-05
1.31103e-05
1.31492e-05
1.31876e-05
1.32257e-05
1.32633e-05
1.33004e-05
1.33371e-05
1.33732e-05
1.34087e-05
1.34438e-05
1.34782e-05
1.3512e-05
1.35453e-05
1.35779e-05
1.36098e-05
1.36411e-05
1.36717e-05
1.37015e-05
1.37307e-05
1.3759e-05
1.37865e-05
1.38133e-05
1.38392e-05
1.38642e-05
1.38884e-05
1.39116e-05
1.3934e-05
1.39555e-05
1.39761e-05
1.39958e-05
1.40147e-05
1.40327e-05
1.40498e-05
1.40661e-05
1.40816e-05
1.40963e-05
1.41103e-05
1.41235e-05
1.4136e-05
1.41479e-05
1.41594e-05
1.41704e-05
1.4181e-05
1.41912e-05
1.4201e-05
1.42106e-05
1.42198e-05
1.42287e-05
1.42374e-05
1.42458e-05
1.4254e-05
1.4262e-05
1.42697e-05
1.42772e-05
1.42845e-05
1.42916e-05
1.42984e-05
1.43051e-05
1.43115e-05
1.43177e-05
1.43238e-05
1.43296e-05
1.43352e-05
1.43406e-05
1.43459e-05
1.43509e-05
1.43559e-05
1.43606e-05
1.43653e-05
1.43699e-05
1.43744e-05
1.43787e-05
1.43831e-05
1.43873e-05
1.43916e-05
1.43957e-05
1.43999e-05
1.4404e-05
1.44082e-05
1.44122e-05
1.44162e-05
1.44202e-05
1.4424e-05
1.4428e-05
1.44315e-05
1.44354e-05
1.44385e-05
1.44422e-05
1.44448e-05
1.44485e-05
1.44504e-05
1.44537e-05
1.44555e-05
1.44501e-05
1.07742e-05
1.08043e-05
1.08354e-05
1.08673e-05
1.09e-05
1.09332e-05
1.0967e-05
1.10011e-05
1.10355e-05
1.107e-05
1.11044e-05
1.11388e-05
1.11729e-05
1.14235e-05
1.14449e-05
1.14669e-05
1.14893e-05
1.15121e-05
1.15354e-05
1.15591e-05
1.15833e-05
1.16077e-05
1.16326e-05
1.16577e-05
1.16832e-05
1.17089e-05
1.17349e-05
1.17611e-05
1.17875e-05
1.18142e-05
1.1841e-05
1.18679e-05
1.1895e-05
1.19222e-05
1.19494e-05
1.19768e-05
1.20043e-05
1.2032e-05
1.20599e-05
1.20879e-05
1.21162e-05
1.21447e-05
1.21735e-05
1.22025e-05
1.22318e-05
1.22615e-05
1.22914e-05
1.23216e-05
1.23521e-05
1.2383e-05
1.24142e-05
1.24458e-05
1.24777e-05
1.251e-05
1.25427e-05
1.25758e-05
1.26092e-05
1.26431e-05
1.26774e-05
1.27121e-05
1.27472e-05
1.27827e-05
1.28186e-05
1.28548e-05
1.28914e-05
1.29283e-05
1.29656e-05
1.30031e-05
1.30407e-05
1.3078e-05
1.3115e-05
1.31517e-05
1.3188e-05
1.32239e-05
1.32593e-05
1.32944e-05
1.33289e-05
1.33631e-05
1.33967e-05
1.34299e-05
1.34625e-05
1.34947e-05
1.35264e-05
1.35576e-05
1.35883e-05
1.36185e-05
1.36482e-05
1.36773e-05
1.3706e-05
1.3734e-05
1.37615e-05
1.37883e-05
1.38146e-05
1.38401e-05
1.3865e-05
1.38891e-05
1.39125e-05
1.39351e-05
1.39569e-05
1.39779e-05
1.39981e-05
1.40174e-05
1.40359e-05
1.40536e-05
1.40704e-05
1.40865e-05
1.41017e-05
1.41162e-05
1.41302e-05
1.41435e-05
1.41563e-05
1.41687e-05
1.41805e-05
1.41918e-05
1.42027e-05
1.42132e-05
1.42232e-05
1.42329e-05
1.42421e-05
1.4251e-05
1.42595e-05
1.42677e-05
1.42754e-05
1.42829e-05
1.42899e-05
1.42966e-05
1.4303e-05
1.43091e-05
1.43149e-05
1.43203e-05
1.43255e-05
1.43304e-05
1.43351e-05
1.43395e-05
1.43438e-05
1.43479e-05
1.43519e-05
1.43557e-05
1.43595e-05
1.43631e-05
1.43667e-05
1.43703e-05
1.43738e-05
1.43773e-05
1.43807e-05
1.43842e-05
1.43876e-05
1.4391e-05
1.43943e-05
1.43976e-05
1.44009e-05
1.44042e-05
1.44074e-05
1.44106e-05
1.44137e-05
1.44167e-05
1.44197e-05
1.44226e-05
1.44254e-05
1.44281e-05
1.44307e-05
1.44332e-05
1.44355e-05
1.44377e-05
1.44397e-05
1.44416e-05
1.44434e-05
1.4445e-05
1.44465e-05
1.44478e-05
1.44491e-05
1.44502e-05
1.44513e-05
1.44523e-05
1.44532e-05
1.44541e-05
1.4455e-05
1.44558e-05
1.44567e-05
1.44575e-05
1.44583e-05
1.44592e-05
1.44601e-05
1.4461e-05
1.44619e-05
1.44629e-05
1.44639e-05
1.44649e-05
1.44659e-05
1.4467e-05
1.4468e-05
1.44691e-05
1.44701e-05
1.44712e-05
1.44722e-05
1.44734e-05
1.44743e-05
1.44754e-05
1.44763e-05
1.44774e-05
1.44782e-05
1.44793e-05
1.448e-05
1.4481e-05
1.44817e-05
1.44804e-05
1.11931e-05
1.12494e-05
1.13072e-05
1.13662e-05
1.14261e-05
1.14866e-05
1.15472e-05
1.16077e-05
1.16677e-05
1.1727e-05
1.17854e-05
1.18428e-05
1.18989e-05
1.19535e-05
1.24264e-05
1.24608e-05
1.24957e-05
1.2531e-05
1.25668e-05
1.2603e-05
1.26394e-05
1.26762e-05
1.27131e-05
1.27503e-05
1.27875e-05
1.28248e-05
1.28622e-05
1.28996e-05
1.29369e-05
1.29742e-05
1.30115e-05
1.30486e-05
1.30857e-05
1.31226e-05
1.31592e-05
1.31952e-05
1.32307e-05
1.32655e-05
1.32998e-05
1.33335e-05
1.33666e-05
1.33991e-05
1.34311e-05
1.34624e-05
1.34931e-05
1.35233e-05
1.35529e-05
1.3582e-05
1.36104e-05
1.36384e-05
1.36658e-05
1.36926e-05
1.37189e-05
1.37447e-05
1.37699e-05
1.37945e-05
1.38186e-05
1.38421e-05
1.3865e-05
1.38873e-05
1.3909e-05
1.39299e-05
1.39502e-05
1.39698e-05
1.39887e-05
1.40068e-05
1.40243e-05
1.4041e-05
1.40569e-05
1.40722e-05
1.4087e-05
1.41012e-05
1.4115e-05
1.41283e-05
1.41411e-05
1.41536e-05
1.41656e-05
1.41773e-05
1.41886e-05
1.41996e-05
1.42102e-05
1.42204e-05
1.42304e-05
1.42399e-05
1.42491e-05
1.4258e-05
1.42664e-05
1.42745e-05
1.42821e-05
1.42894e-05
1.42962e-05
1.43027e-05
1.43087e-05
1.43144e-05
1.43198e-05
1.43249e-05
1.43297e-05
1.43342e-05
1.43385e-05
1.43427e-05
1.43467e-05
1.43505e-05
1.43543e-05
1.4358e-05
1.43617e-05
1.43652e-05
1.43688e-05
1.43722e-05
1.43757e-05
1.43791e-05
1.43824e-05
1.43858e-05
1.4389e-05
1.43923e-05
1.43954e-05
1.43985e-05
1.44015e-05
1.44044e-05
1.44071e-05
1.44098e-05
1.44124e-05
1.44148e-05
1.44171e-05
1.44192e-05
1.44212e-05
1.44231e-05
1.44249e-05
1.44266e-05
1.44282e-05
1.44297e-05
1.44311e-05
1.44325e-05
1.44338e-05
1.44351e-05
1.44363e-05
1.44375e-05
1.44388e-05
1.444e-05
1.44412e-05
1.44424e-05
1.44436e-05
1.44449e-05
1.44461e-05
1.44473e-05
1.44485e-05
1.44497e-05
1.44509e-05
1.44521e-05
1.44532e-05
1.44543e-05
1.44554e-05
1.44565e-05
1.44575e-05
1.44585e-05
1.44595e-05
1.44604e-05
1.44614e-05
1.44623e-05
1.44631e-05
1.4464e-05
1.44649e-05
1.44657e-05
1.44665e-05
1.44673e-05
1.44681e-05
1.44689e-05
1.44697e-05
1.44704e-05
1.44712e-05
1.4472e-05
1.44727e-05
1.44735e-05
1.44743e-05
1.44751e-05
1.44759e-05
1.44767e-05
1.44776e-05
1.44784e-05
1.44793e-05
1.44802e-05
1.44812e-05
1.44821e-05
1.44831e-05
1.44842e-05
1.44852e-05
1.44863e-05
1.44875e-05
1.44886e-05
1.44898e-05
1.4491e-05
1.44922e-05
1.44934e-05
1.44946e-05
1.44958e-05
1.4497e-05
1.44982e-05
1.44994e-05
1.45005e-05
1.45017e-05
1.45028e-05
1.45039e-05
1.4505e-05
1.4506e-05
1.45071e-05
1.45081e-05
1.45095e-05
1.45088e-05
1.19964e-05
1.20873e-05
1.21782e-05
1.22688e-05
1.23585e-05
1.24468e-05
1.25331e-05
1.26171e-05
1.26983e-05
1.27763e-05
1.28509e-05
1.29218e-05
1.29889e-05
1.30521e-05
1.35707e-05
1.35998e-05
1.36285e-05
1.36566e-05
1.36842e-05
1.37112e-05
1.37377e-05
1.37636e-05
1.37889e-05
1.38136e-05
1.38377e-05
1.38611e-05
1.38839e-05
1.3906e-05
1.39273e-05
1.39478e-05
1.39676e-05
1.39865e-05
1.40046e-05
1.40219e-05
1.40384e-05
1.40541e-05
1.40692e-05
1.40837e-05
1.40975e-05
1.41107e-05
1.41234e-05
1.41356e-05
1.41474e-05
1.41587e-05
1.41697e-05
1.41804e-05
1.41907e-05
1.42006e-05
1.42103e-05
1.42196e-05
1.42287e-05
1.42374e-05
1.42457e-05
1.42537e-05
1.42614e-05
1.42687e-05
1.42756e-05
1.42822e-05
1.42885e-05
1.42944e-05
1.43e-05
1.43053e-05
1.43104e-05
1.43153e-05
1.43199e-05
1.43244e-05
1.43288e-05
1.4333e-05
1.43371e-05
1.43412e-05
1.43451e-05
1.4349e-05
1.43529e-05
1.43567e-05
1.43605e-05
1.43642e-05
1.43678e-05
1.43713e-05
1.43748e-05
1.43781e-05
1.43813e-05
1.43844e-05
1.43873e-05
1.43901e-05
1.43928e-05
1.43953e-05
1.43976e-05
1.43998e-05
1.4402e-05
1.4404e-05
1.44059e-05
1.44077e-05
1.44095e-05
1.44112e-05
1.4413e-05
1.44146e-05
1.44163e-05
1.4418e-05
1.44197e-05
1.44214e-05
1.44232e-05
1.44249e-05
1.44267e-05
1.44284e-05
1.44302e-05
1.44319e-05
1.44336e-05
1.44353e-05
1.4437e-05
1.44386e-05
1.44401e-05
1.44416e-05
1.44429e-05
1.44442e-05
1.44455e-05
1.44466e-05
1.44477e-05
1.44486e-05
1.44496e-05
1.44504e-05
1.44512e-05
1.44519e-05
1.44526e-05
1.44533e-05
1.44539e-05
1.44545e-05
1.44551e-05
1.44557e-05
1.44562e-05
1.44568e-05
1.44574e-05
1.4458e-05
1.44587e-05
1.44594e-05
1.44601e-05
1.44608e-05
1.44616e-05
1.44624e-05
1.44633e-05
1.44642e-05
1.44651e-05
1.44661e-05
1.44671e-05
1.44682e-05
1.44692e-05
1.44703e-05
1.44714e-05
1.44725e-05
1.44736e-05
1.44748e-05
1.44759e-05
1.4477e-05
1.44782e-05
1.44793e-05
1.44804e-05
1.44815e-05
1.44825e-05
1.44836e-05
1.44846e-05
1.44856e-05
1.44866e-05
1.44875e-05
1.44885e-05
1.44894e-05
1.44904e-05
1.44913e-05
1.44923e-05
1.44932e-05
1.44942e-05
1.44952e-05
1.44963e-05
1.44973e-05
1.44985e-05
1.44996e-05
1.45008e-05
1.4502e-05
1.45032e-05
1.45045e-05
1.45059e-05
1.45073e-05
1.45087e-05
1.45102e-05
1.45117e-05
1.45132e-05
1.45148e-05
1.45164e-05
1.4518e-05
1.45196e-05
1.45212e-05
1.45228e-05
1.45245e-05
1.45261e-05
1.45278e-05
1.45295e-05
1.45312e-05
1.45328e-05
1.45345e-05
1.45362e-05
1.45379e-05
1.45396e-05
1.45414e-05
1.45431e-05
1.45449e-05
1.45467e-05
1.45485e-05
1.45509e-05
1.455e-05
1.31443e-05
1.32533e-05
1.33591e-05
1.34616e-05
1.35596e-05
1.36519e-05
1.37376e-05
1.38165e-05
1.38886e-05
1.39537e-05
1.40121e-05
1.40639e-05
1.41094e-05
1.41489e-05
1.41421e-05
1.41521e-05
1.41619e-05
1.41715e-05
1.4181e-05
1.41904e-05
1.41996e-05
1.42086e-05
1.42174e-05
1.42259e-05
1.42342e-05
1.42422e-05
1.42499e-05
1.42574e-05
1.42645e-05
1.42713e-05
1.42778e-05
1.42841e-05
1.429e-05
1.42957e-05
1.43012e-05
1.43065e-05
1.43115e-05
1.43164e-05
1.43211e-05
1.43256e-05
1.433e-05
1.43342e-05
1.43383e-05
1.43422e-05
1.4346e-05
1.43496e-05
1.43531e-05
1.43565e-05
1.43597e-05
1.43627e-05
1.43656e-05
1.43684e-05
1.43711e-05
1.43736e-05
1.4376e-05
1.43783e-05
1.43806e-05
1.43828e-05
1.43849e-05
1.43871e-05
1.43891e-05
1.43912e-05
1.43933e-05
1.43955e-05
1.43976e-05
1.43997e-05
1.44019e-05
1.44041e-05
1.44062e-05
1.44084e-05
1.44105e-05
1.44126e-05
1.44147e-05
1.44167e-05
1.44186e-05
1.44204e-05
1.44222e-05
1.44238e-05
1.44254e-05
1.44268e-05
1.44282e-05
1.44294e-05
1.44306e-05
1.44317e-05
1.44327e-05
1.44337e-05
1.44346e-05
1.44355e-05
1.44364e-05
1.44373e-05
1.44381e-05
1.4439e-05
1.44399e-05
1.44408e-05
1.44417e-05
1.44426e-05
1.44436e-05
1.44447e-05
1.44457e-05
1.44467e-05
1.44478e-05
1.44489e-05
1.445e-05
1.44511e-05
1.44522e-05
1.44533e-05
1.44545e-05
1.44556e-05
1.44566e-05
1.44578e-05
1.44589e-05
1.44599e-05
1.44609e-05
1.44619e-05
1.44628e-05
1.44637e-05
1.44646e-05
1.44655e-05
1.44663e-05
1.44671e-05
1.44679e-05
1.44687e-05
1.44694e-05
1.44701e-05
1.44708e-05
1.44715e-05
1.44723e-05
1.4473e-05
1.44738e-05
1.44746e-05
1.44754e-05
1.44762e-05
1.44771e-05
1.44781e-05
1.44791e-05
1.44801e-05
1.44812e-05
1.44823e-05
1.44835e-05
1.44847e-05
1.44859e-05
1.44872e-05
1.44885e-05
1.44899e-05
1.44912e-05
1.44926e-05
1.44941e-05
1.44955e-05
1.44969e-05
1.44984e-05
1.44998e-05
1.45013e-05
1.45027e-05
1.4504e-05
1.45054e-05
1.45068e-05
1.45082e-05
1.45095e-05
1.45109e-05
1.45123e-05
1.45136e-05
1.4515e-05
1.45164e-05
1.45178e-05
1.45192e-05
1.45207e-05
1.45222e-05
1.45237e-05
1.45253e-05
1.45269e-05
1.45286e-05
1.45304e-05
1.45322e-05
1.4534e-05
1.4536e-05
1.4538e-05
1.45401e-05
1.45422e-05
1.45444e-05
1.45467e-05
1.4549e-05
1.45513e-05
1.45538e-05
1.45563e-05
1.45588e-05
1.45614e-05
1.4564e-05
1.45667e-05
1.45694e-05
1.45722e-05
1.4575e-05
1.45779e-05
1.45808e-05
1.45837e-05
1.45867e-05
1.45898e-05
1.45929e-05
1.45961e-05
1.45993e-05
1.46027e-05
1.46061e-05
1.46095e-05
1.46131e-05
1.46168e-05
1.46205e-05
1.46254e-05
1.46239e-05
1.4338e-05
1.44126e-05
1.44767e-05
1.45308e-05
1.45761e-05
1.46137e-05
1.46444e-05
1.46684e-05
1.46865e-05
1.46991e-05
1.4707e-05
1.47103e-05
1.471e-05
1.43135e-05
1.4316e-05
1.43186e-05
1.43212e-05
1.43239e-05
1.43266e-05
1.43293e-05
1.43321e-05
1.43349e-05
1.43378e-05
1.43407e-05
1.43436e-05
1.43466e-05
1.43496e-05
1.43526e-05
1.43557e-05
1.43588e-05
1.4362e-05
1.43651e-05
1.43682e-05
1.43713e-05
1.43743e-05
1.43773e-05
1.43802e-05
1.43831e-05
1.43858e-05
1.43884e-05
1.43908e-05
1.43931e-05
1.43953e-05
1.43974e-05
1.43993e-05
1.44012e-05
1.44029e-05
1.44045e-05
1.4406e-05
1.44075e-05
1.44089e-05
1.44102e-05
1.44115e-05
1.44128e-05
1.44141e-05
1.44154e-05
1.44166e-05
1.44179e-05
1.44192e-05
1.44205e-05
1.44219e-05
1.44232e-05
1.44246e-05
1.44259e-05
1.44273e-05
1.44287e-05
1.44301e-05
1.44314e-05
1.44327e-05
1.4434e-05
1.44353e-05
1.44365e-05
1.44377e-05
1.44389e-05
1.44399e-05
1.44411e-05
1.44421e-05
1.4443e-05
1.4444e-05
1.44449e-05
1.44458e-05
1.44467e-05
1.44475e-05
1.44483e-05
1.44492e-05
1.44501e-05
1.44509e-05
1.44518e-05
1.44527e-05
1.44537e-05
1.44546e-05
1.44556e-05
1.44567e-05
1.44577e-05
1.44588e-05
1.446e-05
1.44611e-05
1.44623e-05
1.44635e-05
1.44648e-05
1.4466e-05
1.44672e-05
1.44685e-05
1.44697e-05
1.44708e-05
1.44721e-05
1.44733e-05
1.44744e-05
1.44756e-05
1.44768e-05
1.44779e-05
1.4479e-05
1.44801e-05
1.44812e-05
1.44822e-05
1.44833e-05
1.44843e-05
1.44853e-05
1.44862e-05
1.44872e-05
1.44882e-05
1.44892e-05
1.44902e-05
1.44913e-05
1.44923e-05
1.44934e-05
1.44946e-05
1.44958e-05
1.4497e-05
1.44983e-05
1.44997e-05
1.45011e-05
1.45025e-05
1.4504e-05
1.45056e-05
1.45072e-05
1.45088e-05
1.45105e-05
1.45122e-05
1.4514e-05
1.45158e-05
1.45177e-05
1.45195e-05
1.45214e-05
1.45233e-05
1.45253e-05
1.45272e-05
1.45292e-05
1.45312e-05
1.45332e-05
1.45352e-05
1.45372e-05
1.45393e-05
1.45413e-05
1.45434e-05
1.45455e-05
1.45477e-05
1.45499e-05
1.45521e-05
1.45543e-05