/*--------------------------------*- C++ -*----------------------------------*\
| =========                 |                                                 |
| \\      /  F ield         | OpenFOAM: The Open Source CFD Toolbox           |
|  \\    /   O peration     | Version:  v1706                                 |
|   \\  /    A nd           | Web:      www.OpenFOAM.com                      |
|    \\/     M anipulation  |                                                 |
\*---------------------------------------------------------------------------*/
FoamFile
{
    version     2.0;
    format      ascii;
    class       volScalarField;
    location    "1.6e-05";
    object      p;
}
// * * * * * * * * * * * * * * * * * * * * * * * * * * * * * * * * * * * * * //

dimensions      [1 -1 -2 0 0 0 0];


internalField   nonuniform List<scalar> 
30104
(
21.9153
21.9154
21.9155
21.9156
21.9157
21.9159
21.916
21.9161
21.9163
21.9164
21.9166
21.9167
21.9168
21.917
21.9171
21.9173
21.9174
21.916
21.916
21.916
21.9161
21.9161
21.9161
21.9161
21.9162
21.9162
21.9162
21.9163
21.9163
21.9163
21.9163
21.9164
21.9164
21.9164
21.9165
21.9165
21.9165
21.9165
21.9166
21.9166
21.9166
21.9167
21.9167
21.9167
21.9168
21.9168
21.9168
21.9168
21.9169
21.9169
21.9169
21.917
21.917
21.917
21.9171
21.9171
21.9172
21.9172
21.9172
21.9173
21.9173
21.9173
21.9174
21.9174
21.9175
21.9175
21.9175
21.9176
21.9176
21.9177
21.9177
21.9178
21.9178
21.9179
21.9179
21.918
21.918
21.9181
21.9181
21.9182
21.9182
21.9183
21.9183
21.9184
21.9184
21.9185
21.9185
21.9186
21.9187
21.9187
21.9188
21.9189
21.9189
21.919
21.919
21.9191
21.9192
21.9192
21.9193
21.9194
21.9194
21.9195
21.9196
21.9197
21.9197
21.9198
21.9199
21.9199
21.92
21.9201
21.9202
21.9202
21.9203
21.9204
21.9205
21.9205
21.9206
21.9207
21.9208
21.9208
21.9209
21.921
21.9211
21.9212
21.9212
21.9213
21.9214
21.9215
21.9216
21.9216
21.9217
21.9218
21.9219
21.922
21.9221
21.9222
21.9223
21.9224
21.9225
21.9226
21.9227
21.9228
21.9229
21.923
21.9231
21.9232
21.9233
21.9234
21.9235
21.9237
21.9238
21.9239
21.9241
21.9242
21.9243
21.9245
21.9246
21.9248
21.9249
21.9251
21.9252
21.9254
21.9256
21.9258
21.9259
21.9261
21.9263
21.9265
21.9267
21.9269
21.9272
21.9274
21.9276
21.9278
21.9281
21.9283
21.9285
21.9288
21.929
21.9293
21.9295
21.9298
21.93
21.9303
21.9305
21.9308
21.9311
21.9313
21.9316
21.9318
21.9321
21.9323
21.9326
21.9328
21.933
21.9333
21.9335
21.9337
21.934
21.9342
21.9344
21.9347
21.9349
21.9351
21.9354
21.9356
21.9358
21.936
21.9359
21.9336
21.9218
21.9224
21.9231
21.9237
21.9244
21.9252
21.9259
21.9267
21.9275
21.9283
21.9292
21.93
21.9309
21.9317
21.9326
21.9335
21.9343
21.9276
21.9278
21.928
21.9282
21.9284
21.9286
21.9288
21.929
21.9293
21.9295
21.9297
21.9299
21.9302
21.9304
21.9306
21.9308
21.9311
21.9313
21.9315
21.9317
21.932
21.9322
21.9324
21.9327
21.9329
21.9332
21.9334
21.9337
21.9339
21.9342
21.9344
21.9347
21.935
21.9352
21.9355
21.9358
21.9361
21.9364
21.9367
21.937
21.9373
21.9376
21.9379
21.9382
21.9385
21.9388
21.9391
21.9395
21.9398
21.9401
21.9405
21.9408
21.9412
21.9415
21.9419
21.9423
21.9426
21.943
21.9434
21.9438
21.9442
21.9446
21.945
21.9454
21.9459
21.9463
21.9467
21.9472
21.9476
21.9481
21.9485
21.949
21.9494
21.9499
21.9504
21.9509
21.9514
21.9519
21.9524
21.9529
21.9534
21.9539
21.9544
21.955
21.9555
21.9561
21.9566
21.9572
21.9578
21.9584
21.959
21.9596
21.9602
21.9609
21.9615
21.9622
21.9628
21.9635
21.9642
21.9649
21.9657
21.9664
21.9672
21.9679
21.9687
21.9695
21.9704
21.9712
21.9721
21.973
21.9739
21.9748
21.9757
21.9767
21.9776
21.9786
21.9796
21.9807
21.9817
21.9828
21.9838
21.9849
21.986
21.9871
21.9883
21.9894
21.9906
21.9917
21.9929
21.9941
21.9953
21.9965
21.9977
21.9989
22.0001
22.0014
22.0027
22.0039
22.0052
22.0066
22.0079
22.0092
22.0106
22.012
22.0134
22.0148
22.0162
22.0177
22.0192
22.0207
22.0223
22.0238
22.0254
22.027
22.0287
22.0304
22.0321
22.0338
22.0356
22.0374
22.0393
22.0412
22.0431
22.045
22.047
22.0491
22.0511
22.0532
22.0554
22.0575
22.0598
22.062
22.0643
22.0666
22.0689
22.0713
22.0737
22.0762
22.0786
22.0811
22.0837
22.0862
22.0888
22.0915
22.0941
22.0968
22.0995
22.1023
22.1051
22.1079
22.1109
22.1121
22.1012
21.9382
21.9401
21.9422
21.9443
21.9465
21.9488
21.9512
21.9536
21.9561
21.9587
21.9613
21.9639
21.9666
21.9693
21.972
21.9747
21.9612
21.962
21.9628
21.9636
21.9645
21.9653
21.9661
21.967
21.9678
21.9687
21.9695
21.9704
21.9712
21.9721
21.973
21.9738
21.9747
21.9756
21.9765
21.9774
21.9783
21.9792
21.9801
21.981
21.982
21.9829
21.9839
21.9849
21.9859
21.9869
21.988
21.989
21.9901
21.9912
21.9923
21.9934
21.9945
21.9957
21.9968
21.998
21.9992
22.0005
22.0017
22.003
22.0043
22.0056
22.0069
22.0083
22.0097
22.0111
22.0125
22.014
22.0154
22.0169
22.0185
22.02
22.0216
22.0232
22.0249
22.0266
22.0283
22.03
22.0317
22.0335
22.0354
22.0372
22.0391
22.0411
22.043
22.045
22.0471
22.0491
22.0513
22.0534
22.0556
22.0578
22.0601
22.0624
22.0647
22.0671
22.0695
22.072
22.0745
22.077
22.0796
22.0822
22.0848
22.0875
22.0902
22.0929
22.0957
22.0985
22.1014
22.1043
22.1073
22.1103
22.1133
22.1165
22.1196
22.1229
22.1261
22.1295
22.1329
22.1363
22.1399
22.1435
22.1471
22.1508
22.1546
22.1584
22.1624
22.1663
22.1704
22.1745
22.1786
22.1829
22.1872
22.1916
22.196
22.2006
22.2052
22.2098
22.2146
22.2194
22.2244
22.2294
22.2344
22.2396
22.2448
22.2502
22.2556
22.2611
22.2667
22.2724
22.2782
22.2841
22.2901
22.2962
22.3024
22.3088
22.3153
22.3219
22.3286
22.3355
22.3426
22.3498
22.3572
22.3648
22.3726
22.3806
22.3888
22.3972
22.4059
22.4148
22.424
22.4334
22.4431
22.4531
22.4633
22.4738
22.4846
22.4957
22.5071
22.5188
22.5307
22.5429
22.5554
22.5681
22.5811
22.5943
22.6078
22.6215
22.6353
22.6494
22.6636
22.678
22.6925
22.7071
22.7219
22.7368
22.7517
22.7668
22.7819
22.7971
22.8123
22.8276
22.8429
22.8584
22.874
22.8895
22.9055
22.9175
22.8782
21.9791
21.9843
21.9897
21.9952
22.0011
22.0071
22.0134
22.0199
22.0265
22.0334
22.0404
22.0475
22.0546
22.0619
22.0692
22.0765
22.0534
22.0559
22.0585
22.0611
22.0638
22.0665
22.0692
22.072
22.0748
22.0776
22.0804
22.0833
22.0862
22.0891
22.0921
22.095
22.098
22.101
22.1041
22.1072
22.1103
22.1135
22.1167
22.12
22.1233
22.1266
22.1301
22.1335
22.1371
22.1407
22.1443
22.148
22.1518
22.1557
22.1596
22.1636
22.1677
22.1718
22.1761
22.1803
22.1847
22.1891
22.1937
22.1982
22.2029
22.2076
22.2124
22.2173
22.2223
22.2273
22.2324
22.2376
22.2429
22.2483
22.2537
22.2593
22.2649
22.2707
22.2766
22.2826
22.2887
22.2949
22.3012
22.3077
22.3143
22.321
22.3279
22.3349
22.342
22.3493
22.3567
22.3643
22.372
22.3798
22.3878
22.3959
22.4042
22.4126
22.4211
22.4298
22.4386
22.4476
22.4567
22.466
22.4755
22.4851
22.4948
22.5048
22.5149
22.5252
22.5357
22.5464
22.5573
22.5683
22.5797
22.5912
22.603
22.615
22.6273
22.6398
22.6526
22.6658
22.6792
22.693
22.7071
22.7216
22.7364
22.7516
22.7672
22.7833
22.7997
22.8166
22.8339
22.8517
22.87
22.8888
22.908
22.9278
22.948
22.9688
22.9901
23.0118
23.034
23.0567
23.0799
23.1035
23.1276
23.152
23.1768
23.202
23.2275
23.2533
23.2795
23.3059
23.3326
23.3595
23.3867
23.4141
23.4418
23.4698
23.4981
23.5267
23.5557
23.5851
23.6148
23.645
23.6756
23.7067
23.7383
23.7705
23.8033
23.8367
23.8708
23.9056
23.9411
23.9775
24.0147
24.0528
24.0918
24.1319
24.173
24.2152
24.2585
24.3031
24.3489
24.3961
24.4446
24.4945
24.5458
24.5987
24.653
24.7089
24.7664
24.8254
24.8861
24.9483
25.0121
25.0775
25.1445
25.213
25.2831
25.3546
25.4277
25.502
25.5779
25.6548
25.7334
25.8127
25.8933
25.9756
26.0558
26.1491
26.049
22.0782
22.0913
22.1049
22.1192
22.1341
22.1494
22.1653
22.1816
22.1983
22.2154
22.2328
22.2504
22.2681
22.2859
22.3038
22.2994
22.3072
22.3151
22.3232
22.3315
22.3398
22.3483
22.3568
22.3655
22.3743
22.3831
22.392
22.401
22.41
22.4192
22.4284
22.4376
22.447
22.4565
22.466
22.4757
22.4855
22.4955
22.5056
22.5159
22.5263
22.537
22.5478
22.5589
22.5702
22.5817
22.5934
22.6054
22.6177
22.6301
22.6429
22.6559
22.6691
22.6827
22.6964
22.7105
22.7248
22.7394
22.7543
22.7695
22.7849
22.8007
22.8168
22.8331
22.8498
22.8669
22.8842
22.902
22.92
22.9384
22.9572
22.9764
22.996
23.016
23.0364
23.0572
23.0785
23.1003
23.1225
23.1452
23.1684
23.1922
23.2165
23.2414
23.2669
23.293
23.3197
23.3471
23.3752
23.4039
23.4334
23.4636
23.4945
23.5262
23.5586
23.5918
23.6258
23.6605
23.6959
23.7321
23.769
23.8065
23.8448
23.8837
23.9233
23.9635
24.0043
24.0457
24.0877
24.1304
24.1738
24.2178
24.2626
24.3082
24.3546
24.4018
24.45
24.4991
24.5492
24.6003
24.6525
24.7058
24.7602
24.8159
24.8728
24.9311
24.9906
25.0516
25.114
25.1779
25.2433
25.3102
25.3789
25.4491
25.5211
25.5949
25.6705
25.7479
25.8272
25.9084
25.9916
26.0767
26.1638
26.253
26.3442
26.4374
26.5327
26.6301
26.7294
26.8309
26.9343
27.0397
27.147
27.2562
27.3674
27.4807
27.5961
27.7138
27.834
27.9567
28.0821
28.2104
28.3418
28.4765
28.6147
28.7568
28.903
29.0536
29.2089
29.3694
29.5355
29.7075
29.8861
30.0716
30.2646
30.4657
30.6754
30.8944
31.1232
31.3624
31.6127
31.8747
32.1489
32.436
32.7362
33.0505
33.3787
33.7218
34.0794
34.4524
34.84
35.2435
35.6611
36.0947
36.5418
37.0044
37.4795
37.9695
38.4712
38.9858
39.5132
40.0482
40.6023
41.1431
41.7163
42.2439
42.8419
43.165
22.2866
22.3164
22.3475
22.3799
22.4137
22.4488
22.4852
22.5228
22.5615
22.6012
22.6419
22.6832
22.7253
22.7678
22.8107
22.8537
22.9309
22.9526
22.9748
22.9975
23.0207
23.0444
23.0685
23.0931
23.118
23.1434
23.1691
23.1953
23.2217
23.2485
23.2757
23.3032
23.3311
23.3594
23.3881
23.4172
23.4468
23.4768
23.5074
23.5385
23.5702
23.6025
23.6355
23.6692
23.7036
23.7387
23.7746
23.8113
23.8488
23.8871
23.9263
23.9664
24.0074
24.0494
24.0923
24.1362
24.1811
24.2271
24.2741
24.3221
24.3712
24.4213
24.4725
24.5247
24.578
24.6322
24.6875
24.7437
24.8009
24.8591
24.9183
24.9785
25.0397
25.1021
25.1656
25.2304
25.2965
25.364
25.4329
25.5034
25.5754
25.6492
25.7247
25.802
25.8813
25.9625
26.0458
26.1313
26.2189
26.3088
26.4009
26.4954
26.5923
26.6916
26.7934
26.8977
27.0045
27.1138
27.2257
27.3403
27.4575
27.5774
27.6999
27.8252
27.9533
28.0841
28.2178
28.3543
28.4936
28.6357
28.7805
28.9282
29.0788
29.2325
29.3894
29.5497
29.7137
29.8814
30.0531
30.2291
30.4096
30.5948
30.7852
30.9811
31.1829
31.391
31.6058
31.828
32.0581
32.2967
32.5444
32.8019
33.07
33.3494
33.6408
33.945
34.2628
34.595
34.9422
35.3052
35.6846
36.0811
36.495
36.9269
37.377
37.8456
38.3326
38.8381
39.3618
39.9033
40.4623
41.038
41.63
42.2367
42.8522
43.4737
44.1006
44.7326
45.3689
46.009
46.6523
47.2983
47.9466
48.5967
49.2483
49.9009
50.5543
51.2082
51.8623
52.5161
53.1695
53.8219
54.4731
55.1223
55.7694
56.4134
57.054
57.6899
58.3211
58.946
59.5644
60.1748
60.7771
61.3697
61.9523
62.524
63.0838
63.6322
64.1668
64.6905
65.1985
65.697
66.1779
66.6521
67.1066
67.5585
67.9881
68.4207
68.8279
69.2446
69.6325
70.0362
70.41
70.8008
71.1779
71.5566
71.9744
72.3123
72.6673
22.7984
22.869
22.9432
23.0207
23.1014
23.1848
23.2707
23.3589
23.4492
23.5414
23.6353
23.7306
23.8269
24.5186
24.5796
24.6422
24.7064
24.7722
24.8394
24.9081
24.9781
25.0495
25.1221
25.1959
25.2709
25.347
25.4241
25.5023
25.5814
25.6616
25.7427
25.8247
25.9078
25.992
26.0773
26.1639
26.2519
26.3414
26.4324
26.5252
26.6199
26.7165
26.8153
26.9163
27.0197
27.1257
27.2342
27.3455
27.4596
27.5767
27.6968
27.82
27.9463
28.0759
28.2087
28.3449
28.4845
28.6276
28.7741
28.9243
29.078
29.2355
29.3967
29.5618
29.7308
29.9039
30.081
30.2622
30.4475
30.6369
30.8307
31.0289
31.2318
31.4395
31.6522
31.8701
32.0933
32.3221
32.5567
32.7975
33.0446
33.2985
33.5594
33.8279
34.1043
34.3891
34.683
34.9866
35.3004
35.6252
35.9617
36.3107
36.6727
37.0488
37.4396
37.8457
38.2678
38.7065
39.1625
39.6361
40.1276
40.6373
41.1654
41.7118
42.2765
42.8594
43.46
44.0735
44.6957
45.3262
45.9649
46.6112
47.2648
47.9254
48.5925
49.2656
49.9444
50.6285
51.3174
52.0105
52.7075
53.4077
54.1104
54.8151
55.5207
56.2265
56.9312
57.6337
58.3327
59.0268
59.7144
60.3939
61.0637
61.7221
62.3676
62.9986
63.6135
64.2113
64.7906
65.3506
65.8906
66.4101
66.9089
67.3869
67.8444
68.2818
68.6999
69.0994
69.4813
69.8468
70.1975
70.5393
70.8749
71.2051
71.5307
71.8526
72.1715
72.488
72.8026
73.1155
73.4271
73.7375
74.0464
74.3539
74.6596
74.9632
75.2643
75.5622
75.8567
76.1469
76.4327
76.713
76.9882
77.2569
77.52
77.7757
78.026
78.2682
78.5054
78.7344
78.9591
79.1756
79.3887
79.594
79.7967
79.9923
80.1857
80.3728
80.5579
80.7377
80.9146
81.088
81.2564
81.4237
81.5821
81.7437
81.8899
82.0461
82.1767
82.3287
82.4391
82.5888
82.673
82.8203
82.8789
82.9551
23.9804
24.1395
24.3048
24.4764
24.6541
24.838
25.0275
25.2223
25.4215
25.6247
25.8312
26.0402
26.2512
28.353
28.5059
28.6633
28.8252
28.9916
29.1627
29.3382
29.5182
29.7025
29.8912
30.084
30.2809
30.4818
30.6866
30.8952
31.1078
31.3242
31.5445
31.7688
31.9972
32.2298
32.4667
32.7084
32.955
33.207
33.4648
33.7287
33.9991
34.2763
34.5606
34.8523
35.1517
35.4591
35.7748
36.099
36.4322
36.7747
37.1269
37.4891
37.862
38.246
38.6416
39.0494
39.4701
39.9041
40.352
40.8143
41.2915
41.7839
42.2917
42.815
43.3541
43.9088
44.4789
45.0641
45.661
46.265
46.8756
47.4925
48.1153
48.7438
49.3778
50.0169
50.661
51.3101
51.9641
52.6228
53.2862
53.9544
54.6271
55.3039
55.9847
56.6693
57.3562
58.0448
58.7348
59.4242
60.1108
60.794
61.4721
62.1423
62.8026
63.4517
64.0879
64.7084
65.3116
65.897
66.4633
67.009
67.5338
68.0379
68.521
68.9831
69.4249
69.8514
70.2663
70.6701
71.0634
71.4472
71.8215
72.1867
72.5435
72.8922
73.2325
73.5646
73.8885
74.2041
74.511
74.809
75.0977
75.377
75.6466
75.9064
76.1562
76.3963
76.6267
76.8479
77.0603
77.2644
77.4611
77.6511
77.8352
78.0144
78.1895
78.3614
78.5309
78.6987
78.8657
79.0322
79.1989
79.3661
79.534
79.7028
79.8724
80.0428
80.2137
80.385
80.5562
80.7268
80.8963
81.064
81.2293
81.3912
81.5493
81.7026
81.8506
81.9923
82.1277
82.2555
82.3761
82.4885
82.5931
82.6894
82.7779
82.8583
82.9317
82.9975
83.0572
83.1104
83.1587
83.2017
83.241
83.2761
83.3086
83.3382
83.3661
83.3921
83.417
83.4411
83.4644
83.4877
83.5104
83.5337
83.5563
83.5803
83.6031
83.6281
83.6512
83.6773
83.7005
83.7278
83.7507
83.7792
83.8015
83.8312
83.8526
83.8834
83.9033
83.9351
83.9528
83.9864
84.0035
84.0107
26.2254
26.5615
26.9152
27.2857
27.6712
28.0692
28.4773
28.8939
29.3175
29.747
30.1814
30.6195
31.0606
31.5035
37.1661
37.5613
37.97
38.3918
38.8267
39.2742
39.7343
40.2065
40.6905
41.1862
41.6934
42.2119
42.7417
43.2829
43.8355
44.3994
44.9747
45.5612
46.1588
46.7668
47.381
47.9985
48.6189
49.242
49.8676
50.495
51.124
51.7545
52.3862
53.0191
53.6532
54.2887
54.9254
55.5635
56.203
56.8437
57.4854
58.128
58.7711
59.4139
60.0554
60.6951
61.3318
61.9636
62.5891
63.2073
63.8163
64.4141
64.9994
65.5711
66.128
66.6687
67.1927
67.7
68.1901
68.6661
69.1323
69.5889
70.0363
70.4753
70.9057
71.3279
71.7426
72.1492
72.5475
72.9376
73.3187
73.69
74.0509
74.4003
74.7376
75.0619
75.3716
75.667
75.9481
76.2129
76.4621
76.698
76.9194
77.1262
77.3214
77.507
77.6826
77.8491
78.01
78.1675
78.3202
78.4698
78.6197
78.7693
78.9179
79.0679
79.2194
79.3716
79.5248
79.6791
79.8339
79.9885
80.1424
80.295
80.446
80.5943
80.739
80.8801
81.017
81.1491
81.2758
81.3972
81.5132
81.6236
81.7285
81.8281
81.9228
82.0128
82.0985
82.1803
82.2587
82.3341
82.4068
82.4773
82.5458
82.6126
82.6779
82.7419
82.8045
82.8657
82.9254
82.9836
83.0399
83.0943
83.1464
83.1961
83.2432
83.2874
83.3287
83.3669
83.4021
83.4343
83.4636
83.4903
83.5145
83.5364
83.5566
83.5749
83.592
83.6077
83.6228
83.6368
83.6506
83.6636
83.6769
83.6895
83.7026
83.7152
83.7286
83.7413
83.7551
83.7682
83.7824
83.796
83.8108
83.8249
83.8404
83.8553
83.8716
83.8874
83.9048
83.9216
83.9402
83.9579
83.9778
83.9964
84.0175
84.0368
84.0589
84.0784
84.1009
84.1201
84.1425
84.1608
84.1825
84.1998
84.2201
84.2363
84.2548
84.2701
84.2861
84.301
84.3134
84.3282
84.3374
84.3532
84.3391
31.4211
32.1208
32.8419
33.5825
34.3431
35.1246
35.926
36.7441
37.5745
38.4132
39.2564
40.1007
40.942
41.7771
55.3182
55.9806
56.6442
57.3085
57.973
58.6371
59.3001
59.9614
60.6203
61.2756
61.9259
62.5698
63.2053
63.8306
64.4436
65.0426
65.6254
66.1904
66.7365
67.2631
67.7734
68.2697
68.7525
69.2221
69.6789
70.1246
70.56
70.9859
71.4032
71.8127
72.2137
72.6068
72.9914
73.3666
73.7322
74.0875
74.4311
74.7623
75.0803
75.3843
75.6738
75.9489
76.209
76.4548
76.6875
76.9076
77.1155
77.3134
77.5031
77.6852
77.8609
78.0322
78.2005
78.3657
78.5288
78.6911
78.852
79.0114
79.1699
79.3261
79.48
79.6318
79.7793
79.9227
80.0625
80.1963
80.3245
80.448
80.5651
80.6761
80.7824
80.8835
80.9793
81.0716
81.1604
81.246
81.3299
81.4119
81.4927
81.5737
81.6546
81.7351
81.8163
81.8993
81.9825
82.0648
82.1485
82.2339
82.3166
82.3979
82.4804
82.5597
82.6346
82.7085
82.7787
82.8429
82.9039
82.9609
83.012
83.0587
83.1013
83.139
83.1725
83.2026
83.2288
83.2518
83.2723
83.2906
83.3067
83.3212
83.3346
83.3471
83.3589
83.3704
83.3817
83.393
83.4046
83.4166
83.429
83.442
83.4557
83.4701
83.4852
83.501
83.5176
83.5349
83.5529
83.5715
83.5906
83.6103
83.6303
83.6505
83.6708
83.6912
83.7113
83.7312
83.7507
83.7698
83.7884
83.8063
83.8234
83.8394
83.8546
83.8686
83.8818
83.8938
83.9053
83.9158
83.9261
83.9354
83.9451
83.9539
83.9634
83.9722
83.9821
83.9913
84.002
84.0121
84.0239
84.0352
84.0485
84.0612
84.0761
84.0904
84.107
84.123
84.1412
84.1587
84.1781
84.1968
84.2171
84.2363
84.2569
84.2758
84.2959
84.3141
84.3334
84.3505
84.3684
84.3843
84.4005
84.4149
84.4292
84.442
84.4542
84.4655
84.4756
84.4855
84.4936
84.5026
84.5089
84.5219
84.4847
41.5552
42.9162
44.3492
45.8676
47.4432
49.0421
50.641
52.2263
53.7872
55.3121
56.789
58.2075
59.5616
60.8478
71.6225
72.0262
72.4253
72.8186
73.2052
73.5839
73.953
74.3109
74.656
74.9872
75.3039
75.6055
75.8919
76.1638
76.4217
76.6663
76.8995
77.1229
77.3375
77.5447
77.7459
77.9421
78.1334
78.3196
78.5017
78.6796
78.8517
79.0183
79.1793
79.3333
79.4809
79.622
79.7556
79.883
80.0044
80.1182
80.2263
80.3303
80.4286
80.5226
80.6147
80.704
80.791
80.8778
80.9645
81.0506
81.1373
81.2254
81.3138
81.4027
81.4926
81.5831
81.6726
81.7611
81.8494
81.935
82.0171
82.0974
82.1732
82.244
82.3121
82.3742
82.4312
82.4857
82.5342
82.5783
82.6209
82.6588
82.6933
82.7274
82.7589
82.7876
82.817
82.8456
82.8719
82.8992
82.9271
82.9532
82.9799
83.0076
83.0343
83.0604
83.0874
83.1142
83.1393
83.1644
83.1907
83.2143
83.2366
83.2613
83.2835
83.3031
83.3254
83.3465
83.3642
83.3838
83.4036
83.4196
83.4358
83.4533
83.4677
83.4804
83.4939
83.5065
83.517
83.527
83.537
83.5461
83.5543
83.5623
83.5702
83.5781
83.586
83.5942
83.6028
83.6119
83.6217
83.6321
83.6433
83.6552
83.6679
83.6814
83.6956
83.7106
83.7262
83.7425
83.7594
83.7767
83.7945
83.8127
83.8312
83.8498
83.8686
83.8874
83.9062
83.9248
83.943
83.9604
83.9769
83.9924
84.0072
84.0209
84.0338
84.0458
84.0571
84.0675
84.0775
84.087
84.0962
84.1052
84.1142
84.1234
84.1327
84.1425
84.1527
84.1635
84.1751
84.1873
84.2004
84.2142
84.2289
84.2444
84.2607
84.2774
84.295
84.3128
84.3312
84.3494
84.3679
84.3859
84.404
84.4214
84.4388
84.4553
84.4716
84.4869
84.5017
84.5155
84.5287
84.5409
84.5522
84.5627
84.5722
84.5809
84.5887
84.5958
84.6023
84.6081
84.6137
84.6189
84.6225
84.6376
84.5494
60.9961
63.1245
65.142
67.015
68.7519
70.3628
71.8419
73.1724
74.3491
75.3784
76.2701
77.0295
77.6639
78.834
78.9613
79.0841
79.2027
79.3164
79.4258
79.532
79.6356
79.7376
79.8388
79.9395
80.0405
80.1427
80.2466
80.3521
80.4596
80.5689
80.6792
80.7898
80.9001
81.0094
81.1161
81.2191
81.3187
81.4141
81.5029
81.5861
81.6651
81.7374
81.8042
81.8675
81.9253
81.9792
82.0307
82.0779
82.1227
82.1673
82.209
82.2494
82.291
82.331
82.3697
82.4099
82.45
82.4882
82.5267
82.566
82.6034
82.6391
82.6751
82.7103
82.7429
82.7734
82.8042
82.8332
82.8584
82.8842
82.9084
82.9292
82.9514
82.9714
82.9889
83.0085
83.0256
83.0406
83.0581
83.0741
83.0877
83.1038
83.1198
83.1333
83.1488
83.1657
83.1803
83.1958
83.2141
83.2308
83.2468
83.266
83.2849
83.3016
83.32
83.3406
83.3593
83.3763
83.3962
83.4174
83.4335
83.45
83.4712
83.487
83.5006
83.5195
83.5352
83.5468
83.5626
83.5781
83.5882
83.6005
83.6148
83.625
83.6345
83.6461
83.6564
83.6649
83.6733
83.6821
83.6904
83.6982
83.7064
83.715
83.7239
83.7333
83.7433
83.754
83.7655
83.7777
83.7907
83.8046
83.8192
83.8346
83.8506
83.8673
83.8845
83.9021
83.92
83.9382
83.9566
83.975
83.9933
84.0114
84.0291
84.0465
84.0632
84.0792
84.0943
84.1085
84.1218
84.1345
84.1465
84.1578
84.1685
84.1786
84.1883
84.1977
84.2069
84.216
84.2252
84.2346
84.2443
84.2545
84.2651
84.2763
84.2883
84.3008
84.3142
84.3282
84.3429
84.3582
84.3741
84.3905
84.4072
84.4242
84.4413
84.4585
84.4756
84.4926
84.5091
84.5254
84.5411
84.5564
84.571
84.5851
84.5984
84.6109
84.6225
84.6334
84.6433
84.6524
84.6606
84.6681
84.6748
84.6808
84.6862
84.6912
84.6956
84.7004
84.7042
84.7094
84.7124
84.7136
84.7317
84.5576
81.1465
82.3812
83.4181
84.2611
84.9364
85.4539
85.83
86.1107
86.3418
86.5075
86.6114
86.6652
86.6697
81.2839
81.3219
81.3604
81.4004
81.4412
81.4833
81.5269
81.5726
81.6205
81.6704
81.7223
81.7755
81.8298
81.885
81.9405
81.9955
82.05
82.1037
82.1557
82.2055
82.2533
82.2992
82.3416
82.3807
82.4187
82.4531
82.4839
82.5144
82.542
82.5666
82.592
82.615
82.6361
82.6594
82.6815
82.7018
82.7248
82.748
82.769
82.7922
82.8172
82.8398
82.8627
82.8884
82.9126
82.9345
82.9585
82.9837
83.0059
83.0261
83.0485
83.0718
83.0889
83.1052
83.1264
83.1409
83.154
83.1721
83.1839
83.1956
83.2122
83.2226
83.2332
83.2491
83.2595
83.2696
83.2853
83.2974
83.3076
83.3233
83.3383
83.3497
83.365
83.3832
83.3968
83.4116
83.4316
83.4483
83.4631
83.4814
83.5025
83.5191
83.5342
83.5543
83.5748
83.5876
83.6032
83.6244
83.6375
83.65
83.6691
83.6828
83.6936
83.7093
83.7227
83.7326
83.7443
83.7563
83.7659
83.7746
83.7839
83.7927
83.8006
83.8085
83.8169
83.8257
83.8346
83.8441
83.8542
83.8651
83.8767
83.889
83.9021
83.916
83.9307
83.946
83.962
83.9786
83.9956
84.0129
84.0305
84.0483
84.066
84.0837
84.1012
84.1183
84.135
84.1511
84.1666
84.1815
84.1956
84.209
84.2216
84.2336
84.2451
84.2561
84.2667
84.2769
84.2868
84.2964
84.3059
84.3155
84.3251
84.335
84.3452
84.3559
84.3671
84.3788
84.3912
84.4041
84.4177
84.4319
84.4466
84.4618
84.4775
84.4934
84.5096
84.5259
84.5423
84.5585
84.5747
84.5905
84.6061
84.6211
84.6358
84.6498
84.6632
84.6759
84.6879
84.6991
84.7095
84.7191
84.7279
84.7359
84.7432
84.7498
84.7558
84.7612
84.7661
84.7706
84.775
84.7791
84.7837
84.7879
84.7937
84.7977
84.8046
84.805
84.8017
84.8124
84.4962
92.1581
92.2844
92.3394
92.328
92.2597
92.1785
92.1209
91.8874
91.514
91.136
90.7465
90.3308
82.0853
82.0885
82.0895
82.0884
82.0933
82.1022
82.114
82.1292
82.1465
82.1667
82.1909
82.2184
82.2487
82.2819
82.3173
82.3543
82.3929
82.4323
82.4715
82.5101
82.5484
82.5855
82.6196
82.6527
82.6855
82.7136
82.7403
82.7676
82.7903
82.8121
82.8351
82.8537
82.8728
82.8945
82.912
82.93
82.9521
82.9706
82.9879
83.0105
83.0309
83.0476
83.0688
83.0919
83.1088
83.1257
83.149
83.1697
83.184
83.1994
83.2216
83.2395
83.249
83.2634
83.283
83.2921
83.304
83.3212
83.3297
83.3415
83.3577
83.3657
83.377
83.3937
83.4028
83.4139
83.432
83.4436
83.4546
83.4736
83.489
83.5006
83.5187
83.5383
83.5515
83.5679
83.5897
83.6055
83.6199
83.6398
83.659
83.6736
83.6878
83.7066
83.7233
83.736
83.751
83.7672
83.7804
83.793
83.8072
83.8201
83.8312
83.8427
83.8539
83.8639
83.8732
83.8825
83.8915
83.9
83.9085
83.9174
83.9266
83.9361
83.946
83.9566
83.9678
83.9797
83.9922
84.0055
84.0195
84.0341
84.0494
84.0652
84.0814
84.0981
84.115
84.1321
84.1492
84.1664
84.1833
84.2
84.2164
84.2323
84.2477
84.2625
84.2767
84.2903
84.3033
84.3157
84.3276
84.339
84.35
84.3607
84.3711
84.3812
84.3913
84.4012
84.4112
84.4214
84.4318
84.4425
84.4537
84.4652
84.4773
84.4899
84.5031
84.5167
84.5309
84.5455
84.5604
84.5757
84.5912
84.6068
84.6225
84.6381
84.6535
84.6687
84.6836
84.6981
84.7121
84.7256
84.7385
84.7507
84.7622
84.7731
84.7831
84.7925
84.8011
84.809
84.8162
84.8228
84.8289
84.8345
84.8396
84.8445
84.8491
84.8536
84.8582
84.8628
84.868
84.8733
84.8801
84.8866
84.8957
84.9008
84.9082
84.8996
84.8805
84.8529
84.3164
96.3503
95.9259
95.4945
95.0455
94.5792
94.1134
93.6512
93.1588
92.6394
92.1225
82.4202
82.4141
82.4099
82.403
82.4006
82.4048
82.4127
82.421
82.4302
82.4446
82.4638
82.4844
82.5076
82.5339
82.5616
82.5912
82.6226
82.6545
82.6865
82.7189
82.7518
82.7832
82.8124
82.8432
82.8724
82.8967
82.9234
82.9488
82.9686
82.9912
83.0124
83.0285
83.0491
83.0693
83.084
83.1034
83.1252
83.1398
83.1573
83.1816
83.1976
83.2126
83.2359
83.2571
83.2697
83.2855
83.3096
83.3266
83.3373
83.3517
83.3732
83.3878
83.3957
83.4105
83.4268
83.4357
83.4486
83.4631
83.4717
83.4849
83.499
83.508
83.5218
83.5371
83.5479
83.5621
83.5789
83.5922
83.6062
83.6242
83.6404
83.6543
83.6721
83.6899
83.7049
83.7213
83.7391
83.7552
83.77
83.7864
83.8024
83.8171
83.8311
83.8459
83.8605
83.874
83.8869
83.8998
83.9123
83.9241
83.9353
83.9464
83.9569
83.9666
83.9763
83.9858
83.995
84.0042
84.0138
84.0236
84.0336
84.0442
84.0554
84.067
84.0792
84.092
84.1054
84.1194
84.134
84.1491
84.1646
84.1805
84.1967
84.2131
84.2295
84.2461
84.2625
84.2788
84.2948
84.3105
84.3257
84.3406
84.3549
84.3687
84.382
84.3948
84.4071
84.4189
84.4303
84.4414
84.4521
84.4627
84.4731
84.4835
84.4938
84.5042
84.5148
84.5256
84.5367
84.5482
84.5601
84.5724
84.5851
84.5983
84.6118
84.6258
84.6401
84.6547
84.6694
84.6843
84.6993
84.7142
84.729
84.7436
84.7578
84.7717
84.7852
84.7981
84.8105
84.8223
84.8335
84.844
84.8538
84.863
84.8715
84.8794
84.8867
84.8934
84.8997
84.9056
84.9112
84.9166
84.9218
84.9269
84.9321
84.9374
84.9429
84.9487
84.955
84.9619
84.97
84.9787
84.9894
84.9993
85.0105
85.013
85.0105
84.9765
84.9161
84.7942
83.9545
96.864
96.3288
95.7918
95.255
94.7252
94.1883
93.6342
93.0722
92.5146
82.6854
82.676
82.6658
82.6583
82.6576
82.6576
82.6572
82.6637
82.6757
82.6875
82.6999
82.7174
82.738
82.7593
82.7834
82.8097
82.8363
82.8637
82.8925
82.9224
82.9502
82.9776
83.0088
83.0356
83.0591
83.0881
83.1117
83.1308
83.1564
83.1761
83.1925
83.2163
83.2352
83.2496
83.2719
83.2927
83.3064
83.3255
83.3484
83.3633
83.3782
83.4003
83.4175
83.4289
83.4449
83.4636
83.4786
83.4888
83.5024
83.5177
83.5313
83.5407
83.5525
83.5658
83.5771
83.5886
83.6013
83.6131
83.6255
83.6392
83.6521
83.6657
83.6804
83.6947
83.7094
83.7249
83.7404
83.7557
83.7716
83.7877
83.8033
83.8189
83.8349
83.8503
83.8655
83.8806
83.8956
83.9101
83.9243
83.9383
83.9521
83.9654
83.9782
83.9908
84.0031
84.0147
84.0259
84.037
84.0477
84.0578
84.068
84.078
84.0878
84.0977
84.1079
84.1183
84.1289
84.14
84.1516
84.1636
84.1761
84.1891
84.2027
84.2166
84.2311
84.246
84.2612
84.2767
84.2924
84.3082
84.3241
84.34
84.3558
84.3714
84.3867
84.4018
84.4164
84.4307
84.4446
84.458
84.471
84.4835
84.4956
84.5073
84.5187
84.5298
84.5407
84.5514
84.5619
84.5725
84.5831
84.5937
84.6046
84.6157
84.627
84.6387
84.6508
84.6631
84.6759
84.689
84.7023
84.716
84.7299
84.7439
84.7581
84.7723
84.7864
84.8005
84.8144
84.828
84.8413
84.8542
84.8667
84.8787
84.8901
84.901
84.9112
84.921
84.9301
84.9387
84.9467
84.9542
84.9613
84.9681
84.9744
84.9805
84.9864
84.9922
84.9979
85.0036
85.0094
85.0153
85.0214
85.0277
85.0342
85.0412
85.0486
85.0567
85.0658
85.0761
85.0873
85.0994
85.1089
85.1135
85.1009
85.0663
84.982
84.8444
84.5641
83.3691
97.3152
96.7343
82.9286
82.9152
82.9027
82.8916
82.8854
82.8811
82.8755
82.8783
82.8865
82.8922
82.9013
82.9169
82.9327
82.9498
82.972
82.9949
83.0173
83.0416
83.069
83.0969
83.1217
83.1495
83.1815
83.2048
83.2291
83.2603
83.2806
83.3013
83.3281
83.3467
83.3655
83.389
83.4072
83.4237
83.4439
83.4626
83.4777
83.495
83.5126
83.5278
83.5422
83.5578
83.5728
83.5856
83.5987
83.6124
83.6259
83.6375
83.6488
83.6606
83.6728
83.6841
83.6949
83.7067
83.719
83.731
83.7436
83.7568
83.77
83.7837
83.7978
83.8119
83.8264
83.8413
83.8561
83.871
83.8862
83.9012
83.9161
83.9311
83.9459
83.9604
83.9748
83.9892
84.0031
84.0168
84.0303
84.0436
84.0564
84.069
84.0813
84.0933
84.1047
84.1159
84.1269
84.1376
84.148
84.1584
84.1687
84.1789
84.1893
84.1999
84.2106
84.2217
84.2332
84.245
84.2573
84.27
84.2831
84.2966
84.3106
84.3249
84.3396
84.3545
84.3697
84.385
84.4003
84.4157
84.431
84.4462
84.4612
84.4759
84.4903
84.5044
84.5181
84.5314
84.5443
84.5569
84.5691
84.5809
84.5924
84.6037
84.6147
84.6256
84.6363
84.6469
84.6576
84.6683
84.6791
84.69
84.7012
84.7126
84.7243
84.7363
84.7486
84.7612
84.774
84.7871
84.8003
84.8137
84.8272
84.8406
84.8541
84.8675
84.8807
84.8937
84.9064
84.9188
84.9309
84.9425
84.9537
84.9645
84.9747
84.9845
84.9937
85.0024
85.0107
85.0184
85.0258
85.0327
85.0393
85.0455
85.0515
85.0573
85.0629
85.0683
85.0737
85.0791
85.0845
85.09
85.0955
85.1013
85.1073
85.1136
85.1203
85.1275
85.1357
85.145
85.156
85.1684
85.1818
85.1933
85.1977
85.1864
85.1452
85.0604
84.9042
84.6596
84.2003
82.6371
83.1705
83.1546
83.1405
83.128
83.1188
83.1124
83.1066
83.1059
83.1092
83.1115
83.1181
83.1302
83.1403
83.1534
83.1735
83.1922
83.2092
83.2309
83.2585
83.2817
83.3033
83.3335
83.3623
83.383
83.41
83.4382
83.4603
83.4833
83.5066
83.5273
83.5472
83.5668
83.5852
83.6022
83.6185
83.6346
83.6497
83.6639
83.6779
83.6915
83.7044
83.7166
83.729
83.7412
83.7525
83.7637
83.7752
83.7865
83.7972
83.808
83.8193
83.8308
83.8421
83.8539
83.8662
83.8787
83.8915
83.9047
83.918
83.9315
83.9454
83.9592
83.9732
83.9874
84.0014
84.0155
84.0295
84.0435
84.0573
84.0709
84.0844
84.0977
84.1107
84.1236
84.1362
84.1485
84.1606
84.1724
84.1838
84.1951
84.2061
84.2169
84.2274
84.2379
84.2482
84.2586
84.2689
84.2795
84.2901
84.3011
84.3123
84.3238
84.3358
84.3481
84.3608
84.3739
84.3874
84.4012
84.4153
84.4297
84.4444
84.4592
84.4741
84.489
84.5039
84.5188
84.5334
84.5478
84.562
84.5758
84.5893
84.6025
84.6153
84.6277
84.6397
84.6515
84.6629
84.6741
84.685
84.6958
84.7064
84.717
84.7275
84.7381
84.7487
84.7595
84.7704
84.7814
84.7927
84.8043
84.816
84.828
84.8403
84.8527
84.8654
84.8782
84.891
84.904
84.9169
84.9297
84.9424
84.955
84.9673
84.9793
84.991
85.0024
85.0133
85.0239
85.0339
85.0435
85.0526
85.0611
85.0691
85.0766
85.0836
85.0901
85.0962
85.1019
85.1072
85.1123
85.1171
85.1218
85.1264
85.131
85.1358
85.1408
85.146
85.1517
85.1578
85.1644
85.1717
85.1796
85.1883
85.1978
85.2083
85.22
85.2334
85.2486
85.2658
85.2838
85.3004
85.309
85.3011
85.2617
85.1739
85.019
84.7693
84.3834
83.7658
81.8398
83.4389
83.4215
83.4057
83.3915
83.3797
83.37
83.3616
83.3557
83.3532
83.352
83.3535