# Cp ()      
# Time       	patch        	min          	max          	average      
2e-05        	cone	2.517188e-01	1.858943e+00	6.601297e-01
