/*--------------------------------*- C++ -*----------------------------------*\
| =========                 |                                                 |
| \\      /  F ield         | OpenFOAM: The Open Source CFD Toolbox           |
|  \\    /   O peration     | Version:  v1706                                 |
|   \\  /    A nd           | Web:      www.OpenFOAM.com                      |
|    \\/     M anipulation  |                                                 |
\*---------------------------------------------------------------------------*/
FoamFile
{
    version     2.0;
    format      ascii;
    class       volVectorField;
    location    "1.7e-05";
    object      U;
}
// * * * * * * * * * * * * * * * * * * * * * * * * * * * * * * * * * * * * * //

dimensions      [0 1 -1 0 0 0 0];


internalField   nonuniform List<vector> 
29987
(
(978.58 -2.17577e-08 3.79667e-11)
(978.58 -8.57152e-09 1.42642e-11)
(978.58 -3.87819e-09 6.45757e-12)
(978.58 -2.16655e-09 3.64377e-12)
(978.58 -1.41572e-09 2.38974e-12)
(978.58 -1.01822e-09 1.71989e-12)
(978.58 -7.75626e-10 1.30634e-12)
(978.58 -6.14695e-10 1.02176e-12)
(978.58 -5.01558e-10 8.26363e-13)
(978.58 -4.1766e-10 6.92871e-13)
(978.58 -3.54686e-10 5.20767e-13)
(978.58 -3.06669e-10 4.60497e-13)
(978.58 -2.68722e-10 4.11299e-13)
(978.58 -2.38481e-10 3.50155e-13)
(978.58 -2.13247e-10 3.02155e-13)
(978.58 -1.92693e-10 2.63952e-13)
(978.58 -1.76213e-10 2.21418e-13)
(978.58 -1.62029e-10 1.96929e-13)
(978.58 -1.49882e-10 1.85124e-13)
(978.58 -1.38972e-10 1.72576e-13)
(978.58 -1.30119e-10 1.6189e-13)
(978.58 -1.22871e-10 1.38621e-13)
(978.58 -1.15913e-10 1.30533e-13)
(978.58 -1.09657e-10 1.13154e-13)
(978.58 -1.04515e-10 1.17091e-13)
(978.58 -9.94806e-11 1.11975e-13)
(978.58 -9.55254e-11 9.13518e-14)
(978.58 -9.18241e-11 8.30512e-14)
(978.58 -8.89512e-11 8.92429e-14)
(978.58 -8.539e-11 8.19602e-14)
(978.58 -8.25953e-11 8.18167e-14)
(978.58 -8.08005e-11 7.42595e-14)
(978.58 -7.81686e-11 6.43011e-14)
(978.58 -7.62461e-11 5.93937e-14)
(978.58 -7.4336e-11 5.94722e-14)
(978.58 -7.23271e-11 5.54261e-14)
(978.58 -6.99659e-11 5.31998e-14)
(978.58 -6.94164e-11 4.53311e-14)
(978.58 -6.76472e-11 4.25993e-14)
(978.58 -6.74491e-11 4.32315e-14)
(978.58 -6.59129e-11 3.56763e-14)
(978.58 -6.44232e-11 3.97729e-14)
(978.58 -6.35195e-11 4.49881e-14)
(978.58 -6.27173e-11 3.7432e-14)
(978.58 -6.19521e-11 3.38076e-14)
(978.58 -6.1954e-11 3.28659e-14)
(978.58 -6.06985e-11 4.15505e-14)
(978.58 -6.01435e-11 2.94907e-14)
(978.58 -5.94431e-11 2.93136e-14)
(978.58 -5.88568e-11 3.32867e-14)
(978.58 -5.874e-11 3.23128e-14)
(978.58 -5.84944e-11 2.84566e-14)
(978.58 -5.7831e-11 2.69312e-14)
(978.58 -5.78036e-11 2.28119e-14)
(978.58 -5.7253e-11 2.41906e-14)
(978.58 -5.67275e-11 2.07632e-14)
(978.58 -5.62972e-11 1.81169e-14)
(978.58 -5.63291e-11 1.9842e-14)
(978.58 -5.64822e-11 2.15444e-14)
(978.58 -5.59799e-11 2.45984e-14)
(978.58 -5.61851e-11 2.23983e-14)
(978.58 -5.57611e-11 1.38587e-14)
(978.58 -5.52702e-11 1.91924e-14)
(978.58 -5.51406e-11 2.03579e-14)
(978.58 -5.54092e-11 1.67215e-14)
(978.58 -5.49133e-11 1.48499e-14)
(978.58 -5.50111e-11 1.58015e-14)
(978.58 -5.48879e-11 1.85658e-14)
(978.58 -5.52996e-11 1.83855e-14)
(978.58 -5.50612e-11 1.60639e-14)
(978.58 -5.52569e-11 1.47673e-14)
(978.58 -5.54201e-11 1.55555e-14)
(978.58 -5.60046e-11 1.3852e-14)
(978.58 -5.57306e-11 1.45592e-14)
(978.58 -5.56737e-11 1.80606e-14)
(978.58 -5.63391e-11 1.68672e-14)
(978.58 -5.59695e-11 1.57325e-14)
(978.58 -5.61847e-11 1.61541e-14)
(978.58 -5.6073e-11 1.01648e-14)
(978.58 -5.65203e-11 7.20403e-15)
(978.58 -5.68966e-11 1.065e-14)
(978.58 -5.68637e-11 1.05456e-14)
(978.58 -5.72917e-11 8.20812e-15)
(978.58 -5.7041e-11 1.08468e-14)
(978.58 -5.72816e-11 1.24618e-14)
(978.58 -5.75797e-11 1.14733e-14)
(978.58 -5.78852e-11 1.00548e-14)
(978.58 -5.77248e-11 1.06972e-14)
(978.58 -5.77462e-11 1.09674e-14)
(978.58 -5.79087e-11 8.06654e-15)
(978.58 -5.84903e-11 7.52166e-15)
(978.58 -5.89309e-11 8.11205e-15)
(978.58 -5.96336e-11 1.11262e-14)
(978.58 -5.93775e-11 1.22538e-14)
(978.58 -5.926e-11 1.28675e-14)
(978.58 -5.9493e-11 1.12122e-14)
(978.58 -5.99007e-11 8.07093e-15)
(978.58 -6.02334e-11 1.06497e-14)
(978.58 -6.05632e-11 9.9346e-15)
(978.58 -6.09814e-11 7.15145e-15)
(978.58 -6.12773e-11 7.30275e-15)
(978.58 -6.2016e-11 1.29192e-14)
(978.58 -6.2244e-11 1.1835e-14)
(978.58 -6.26418e-11 8.4294e-15)
(978.58 -6.31042e-11 8.43862e-15)
(978.58 -6.34455e-11 6.63964e-15)
(978.58 -6.39771e-11 5.4769e-15)
(978.58 -6.45559e-11 6.05165e-15)
(978.58 -6.50138e-11 8.58595e-15)
(978.58 -6.56572e-11 6.46409e-15)
(978.58 -6.63297e-11 7.07386e-15)
(978.58 -6.69784e-11 7.7099e-15)
(978.58 -6.74393e-11 9.39942e-15)
(978.58 -6.83983e-11 8.40237e-15)
(978.58 -6.9149e-11 1.00058e-14)
(978.58 -6.98503e-11 7.78317e-15)
(978.58 -7.02705e-11 9.57038e-15)
(978.58 -7.08991e-11 1.13382e-14)
(978.58 -7.14545e-11 9.85831e-15)
(978.58 -7.19586e-11 5.78412e-15)
(978.58 -7.26659e-11 7.14846e-15)
(978.58 -7.33576e-11 8.06845e-15)
(978.58 -7.38349e-11 7.40129e-15)
(978.58 -7.44504e-11 8.69627e-15)
(978.58 -7.50407e-11 9.28505e-15)
(978.58 -7.62477e-11 8.14446e-15)
(978.58 -7.67284e-11 9.58327e-15)
(978.58 -7.77743e-11 7.90663e-15)
(978.58 -7.8505e-11 8.66286e-15)
(978.58 -7.94194e-11 8.27186e-15)
(978.58 -7.9686e-11 1.02127e-14)
(978.58 -8.09067e-11 9.84546e-15)
(978.58 -8.16315e-11 4.92195e-15)
(978.58 -8.26276e-11 4.45138e-15)
(978.58 -8.4084e-11 6.03528e-15)
(978.58 -8.51147e-11 4.48696e-15)
(978.58 -8.64715e-11 8.75257e-15)
(978.58 -8.69916e-11 8.76031e-15)
(978.58 -8.83469e-11 6.35344e-15)
(978.58 -8.96805e-11 6.78046e-15)
(978.58 -9.02264e-11 3.04412e-15)
(978.58 -9.08041e-11 4.7299e-15)
(978.58 -9.26208e-11 6.87953e-15)
(978.58 -9.34734e-11 6.12722e-15)
(978.58 -9.5233e-11 7.43408e-15)
(978.58 -9.68427e-11 8.10688e-15)
(978.58 -9.81836e-11 8.51132e-15)
(978.58 -9.88863e-11 8.08991e-15)
(978.58 -1.00154e-10 6.39962e-15)
(978.58 -1.02331e-10 4.49328e-15)
(978.58 -1.04138e-10 4.19286e-15)
(978.58 -1.05635e-10 4.19946e-15)
(978.58 -1.06405e-10 5.22776e-15)
(978.58 -1.07463e-10 7.78731e-15)
(978.58 -1.0976e-10 6.05971e-15)
(978.58 -1.12038e-10 7.82422e-15)
(978.58 -5.20919e-08 8.68509e-11)
(978.58 -2.79334e-08 4.30665e-11)
(978.58 -1.50583e-08 2.16715e-11)
(978.58 -8.79952e-09 1.23284e-11)
(978.58 -5.64926e-09 7.86115e-12)
(978.58 -3.93351e-09 5.49587e-12)
(978.58 -2.91722e-09 4.07888e-12)
(978.58 -2.26824e-09 3.12765e-12)
(978.58 -1.82627e-09 2.50308e-12)
(978.58 -1.51002e-09 2.0256e-12)
(978.58 -1.27421e-09 1.65804e-12)
(978.58 -1.09314e-09 1.42346e-12)
(978.58 -9.52217e-10 1.20372e-12)
(978.58 -8.40434e-10 1.04561e-12)
(978.58 -7.49038e-10 9.05482e-13)
(978.58 -6.74713e-10 8.16744e-13)
(978.58 -6.12857e-10 7.06629e-13)
(978.58 -5.60719e-10 6.44019e-13)
(978.58 -5.16874e-10 5.85577e-13)
(978.58 -4.78406e-10 5.3411e-13)
(978.58 -4.45006e-10 4.79444e-13)
(978.58 -4.16873e-10 4.16162e-13)
(978.58 -3.93414e-10 3.93565e-13)
(978.58 -3.71927e-10 3.60851e-13)
(978.58 -3.51653e-10 3.49072e-13)
(978.58 -3.33624e-10 3.30447e-13)
(978.58 -3.18771e-10 3.07029e-13)
(978.58 -3.05765e-10 2.84396e-13)
(978.58 -2.94392e-10 2.65324e-13)
(978.58 -2.82954e-10 2.42885e-13)
(978.58 -2.73074e-10 2.16322e-13)
(978.58 -2.64553e-10 2.1097e-13)
(978.58 -2.5581e-10 1.81116e-13)
(978.58 -2.48567e-10 1.72002e-13)
(978.58 -2.44265e-10 1.72119e-13)
(978.58 -2.37385e-10 1.64999e-13)
(978.58 -2.30406e-10 1.52294e-13)
(978.58 -2.24835e-10 1.5317e-13)
(978.58 -2.18275e-10 1.45285e-13)
(978.58 -2.15598e-10 1.29765e-13)
(978.58 -2.13497e-10 1.19669e-13)
(978.58 -2.09475e-10 1.22644e-13)
(978.58 -2.03737e-10 1.24932e-13)
(978.58 -1.99603e-10 1.09788e-13)
(978.58 -1.97563e-10 9.35605e-14)
(978.58 -1.97066e-10 1.04822e-13)
(978.58 -1.94461e-10 1.00089e-13)
(978.58 -1.9127e-10 9.09647e-14)
(978.58 -1.87933e-10 9.19933e-14)
(978.58 -1.86104e-10 9.93292e-14)
(978.58 -1.83556e-10 9.45256e-14)
(978.58 -1.83464e-10 8.1803e-14)
(978.58 -1.81735e-10 7.77108e-14)
(978.58 -1.80672e-10 6.64783e-14)
(978.58 -1.79156e-10 6.81252e-14)
(978.58 -1.78084e-10 6.51175e-14)
(978.58 -1.77015e-10 6.51207e-14)
(978.58 -1.75076e-10 6.43246e-14)
(978.58 -1.75218e-10 7.10173e-14)
(978.58 -1.7456e-10 6.79795e-14)
(978.58 -1.7386e-10 5.92768e-14)
(978.58 -1.73353e-10 5.65309e-14)
(978.58 -1.7223e-10 6.30051e-14)
(978.58 -1.71162e-10 5.5159e-14)
(978.58 -1.71536e-10 5.40667e-14)
(978.58 -1.70819e-10 5.35103e-14)
(978.58 -1.70335e-10 4.76961e-14)
(978.58 -1.69803e-10 5.18493e-14)
(978.58 -1.69851e-10 4.92944e-14)
(978.58 -1.67929e-10 4.66697e-14)
(978.58 -1.67169e-10 4.9667e-14)
(978.58 -1.67889e-10 4.94129e-14)
(978.58 -1.70034e-10 4.4991e-14)
(978.58 -1.69681e-10 4.54621e-14)
(978.58 -1.68591e-10 4.86239e-14)
(978.58 -1.69887e-10 4.91641e-14)
(978.58 -1.70611e-10 4.48984e-14)
(978.58 -1.71511e-10 4.17065e-14)
(978.58 -1.69993e-10 3.42641e-14)
(978.58 -1.69921e-10 3.4443e-14)
(978.58 -1.71415e-10 3.70406e-14)
(978.58 -1.72261e-10 3.44221e-14)
(978.58 -1.72987e-10 3.24527e-14)
(978.58 -1.73085e-10 3.63568e-14)
(978.58 -1.73797e-10 3.88524e-14)
(978.58 -1.74081e-10 3.68593e-14)
(978.58 -1.74934e-10 3.29285e-14)
(978.58 -1.75424e-10 3.61571e-14)
(978.58 -1.76156e-10 3.38281e-14)
(978.58 -1.76344e-10 3.15843e-14)
(978.58 -1.7607e-10 3.2946e-14)
(978.58 -1.76832e-10 2.99799e-14)
(978.58 -1.78822e-10 3.61902e-14)
(978.58 -1.79083e-10 3.7244e-14)
(978.58 -1.79826e-10 3.84671e-14)
(978.58 -1.80252e-10 2.95648e-14)
(978.58 -1.8111e-10 2.3757e-14)
(978.58 -1.82011e-10 2.516e-14)
(978.58 -1.83233e-10 2.52314e-14)
(978.58 -1.84118e-10 2.51014e-14)
(978.58 -1.84746e-10 2.50845e-14)
(978.58 -1.86258e-10 2.68417e-14)
(978.58 -1.87167e-10 2.83059e-14)
(978.58 -1.88696e-10 2.17751e-14)
(978.58 -1.89883e-10 2.35002e-14)
(978.58 -1.91416e-10 2.2236e-14)
(978.58 -1.92858e-10 2.19893e-14)
(978.58 -1.93882e-10 2.03864e-14)
(978.58 -1.9489e-10 1.83473e-14)
(978.58 -1.95969e-10 2.07629e-14)
(978.58 -1.97831e-10 2.26248e-14)
(978.58 -2.0013e-10 2.2503e-14)
(978.58 -2.00947e-10 2.29599e-14)
(978.58 -2.02435e-10 2.37382e-14)
(978.58 -2.04406e-10 2.57866e-14)
(978.58 -2.06636e-10 2.50045e-14)
(978.58 -2.08144e-10 2.62448e-14)
(978.58 -2.10135e-10 2.55423e-14)
(978.58 -2.1244e-10 2.16502e-14)
(978.58 -2.14233e-10 1.81646e-14)
(978.58 -2.16211e-10 2.02992e-14)
(978.58 -2.18151e-10 2.11226e-14)
(978.58 -2.19891e-10 2.16067e-14)
(978.58 -2.21515e-10 2.19925e-14)
(978.58 -2.2305e-10 2.20387e-14)
(978.58 -2.25034e-10 2.0494e-14)
(978.58 -2.26334e-10 2.01301e-14)
(978.58 -2.29801e-10 1.94531e-14)
(978.58 -2.31722e-10 2.01438e-14)
(978.58 -2.35566e-10 2.36974e-14)
(978.58 -2.36799e-10 2.36267e-14)
(978.58 -2.39391e-10 1.74784e-14)
(978.58 -2.41638e-10 1.81203e-14)
(978.58 -2.444e-10 2.04093e-14)
(978.58 -2.47437e-10 2.00098e-14)
(978.58 -2.50479e-10 2.04839e-14)
(978.58 -2.53332e-10 2.0619e-14)
(978.58 -2.55335e-10 1.74085e-14)
(978.58 -2.5899e-10 2.14389e-14)
(978.58 -2.62665e-10 2.12597e-14)
(978.58 -2.66163e-10 1.82751e-14)
(978.58 -2.69299e-10 1.97543e-14)
(978.58 -2.7256e-10 1.85271e-14)
(978.58 -2.74785e-10 1.82893e-14)
(978.58 -2.78109e-10 1.66155e-14)
(978.58 -2.81354e-10 2.04037e-14)
(978.58 -2.85909e-10 1.943e-14)
(978.58 -2.90796e-10 2.09294e-14)
(978.58 -2.94287e-10 2.01534e-14)
(978.58 -2.96697e-10 1.67861e-14)
(978.58 -3.01099e-10 1.56137e-14)
(978.58 -3.07987e-10 1.36353e-14)
(978.58 -3.12275e-10 1.75788e-14)
(978.58 -3.1471e-10 1.71139e-14)
(978.58 -3.18792e-10 1.71372e-14)
(978.58 -3.23152e-10 1.93189e-14)
(978.58 -7.11543e-08 1.17581e-10)
(978.58 -4.52393e-08 6.78209e-11)
(978.58 -2.73589e-08 3.74312e-11)
(978.58 -1.69416e-08 2.17637e-11)
(978.58 -1.10821e-08 1.37164e-11)
(978.58 -7.69642e-09 9.38076e-12)
(978.58 -5.64668e-09 6.93051e-12)
(978.58 -4.33876e-09 5.3052e-12)
(978.58 -3.45848e-09 4.22061e-12)
(978.58 -2.83823e-09 3.41475e-12)
(978.58 -2.38194e-09 2.83829e-12)
(978.58 -2.03556e-09 2.41929e-12)
(978.58 -1.76623e-09 2.06018e-12)
(978.58 -1.55199e-09 1.77668e-12)
(978.58 -1.37966e-09 1.57237e-12)
(978.58 -1.2394e-09 1.36616e-12)
(978.58 -1.1226e-09 1.19026e-12)
(978.58 -1.02369e-09 1.07499e-12)
(978.58 -9.39803e-10 9.54048e-13)
(978.58 -8.68751e-10 8.86888e-13)
(978.58 -8.0772e-10 7.92968e-13)
(978.58 -7.55095e-10 7.13003e-13)
(978.58 -7.09163e-10 6.74194e-13)
(978.58 -6.67451e-10 6.16752e-13)
(978.58 -6.31746e-10 5.89244e-13)
(978.58 -5.98782e-10 5.42637e-13)
(978.58 -5.70164e-10 5.11662e-13)
(978.58 -5.45643e-10 4.69219e-13)
(978.58 -5.2348e-10 4.29038e-13)
(978.58 -5.02474e-10 4.01496e-13)
(978.58 -4.83544e-10 3.73452e-13)
(978.58 -4.66843e-10 3.58201e-13)
(978.58 -4.51915e-10 3.33045e-13)
(978.58 -4.38599e-10 3.23194e-13)
(978.58 -4.27782e-10 3.05753e-13)
(978.58 -4.17632e-10 2.71303e-13)
(978.58 -4.05738e-10 2.58685e-13)
(978.58 -3.9438e-10 2.52785e-13)
(978.58 -3.83504e-10 2.48696e-13)
(978.58 -3.75804e-10 2.28872e-13)
(978.58 -3.69482e-10 2.21625e-13)
(978.58 -3.62789e-10 2.12791e-13)
(978.58 -3.55407e-10 2.0633e-13)
(978.58 -3.49299e-10 1.90261e-13)
(978.58 -3.43674e-10 1.80689e-13)
(978.58 -3.39799e-10 1.77933e-13)
(978.58 -3.35395e-10 1.71681e-13)
(978.58 -3.29351e-10 1.70585e-13)
(978.58 -3.2471e-10 1.69227e-13)
(978.58 -3.21177e-10 1.69503e-13)
(978.58 -3.17506e-10 1.53575e-13)
(978.58 -3.15724e-10 1.45302e-13)
(978.58 -3.11589e-10 1.35065e-13)
(978.58 -3.08462e-10 1.3087e-13)
(978.58 -3.07414e-10 1.22963e-13)
(978.58 -3.04961e-10 1.20878e-13)
(978.58 -3.03044e-10 1.14346e-13)
(978.58 -2.9975e-10 1.12767e-13)
(978.58 -2.97939e-10 1.1966e-13)
(978.58 -2.9672e-10 1.14975e-13)
(978.58 -2.94573e-10 1.0887e-13)
(978.58 -2.93931e-10 1.10223e-13)
(978.58 -2.92832e-10 9.93091e-14)
(978.58 -2.91571e-10 8.84668e-14)
(978.58 -2.90814e-10 9.72463e-14)
(978.58 -2.90097e-10 9.25947e-14)
(978.58 -2.89533e-10 8.66836e-14)
(978.58 -2.88801e-10 8.96564e-14)
(978.58 -2.87506e-10 7.94156e-14)
(978.58 -2.84645e-10 7.5977e-14)
(978.58 -2.83937e-10 7.57583e-14)
(978.58 -2.84086e-10 7.67914e-14)
(978.58 -2.85479e-10 7.44373e-14)
(978.58 -2.84914e-10 7.68186e-14)
(978.58 -2.83752e-10 7.87959e-14)
(978.58 -2.85144e-10 7.50049e-14)
(978.58 -2.86535e-10 6.94894e-14)
(978.58 -2.88081e-10 7.03699e-14)
(978.58 -2.86473e-10 7.09382e-14)
(978.58 -2.85794e-10 6.8008e-14)
(978.58 -2.87418e-10 6.34037e-14)
(978.58 -2.89019e-10 6.13377e-14)
(978.58 -2.89751e-10 5.93484e-14)
(978.58 -2.89673e-10 5.84716e-14)
(978.58 -2.91578e-10 5.56695e-14)
(978.58 -2.91522e-10 5.66496e-14)
(978.58 -2.92385e-10 6.1922e-14)
(978.58 -2.93682e-10 6.16559e-14)
(978.58 -2.94286e-10 5.75538e-14)
(978.58 -2.94894e-10 5.59745e-14)
(978.58 -2.94845e-10 5.28849e-14)
(978.58 -2.96871e-10 5.48195e-14)
(978.58 -2.98547e-10 6.25266e-14)
(978.58 -3.00109e-10 6.55412e-14)
(978.58 -3.01114e-10 5.96525e-14)
(978.58 -3.01984e-10 4.78461e-14)
(978.58 -3.04062e-10 4.54343e-14)
(978.58 -3.04333e-10 4.79515e-14)
(978.58 -3.0495e-10 4.82855e-14)
(978.58 -3.06444e-10 4.70341e-14)
(978.58 -3.07437e-10 4.27287e-14)
(978.58 -3.0987e-10 4.64571e-14)
(978.58 -3.1185e-10 4.3007e-14)
(978.58 -3.13452e-10 4.31466e-14)
(978.58 -3.15219e-10 4.6706e-14)
(978.58 -3.17352e-10 4.36545e-14)
(978.58 -3.19686e-10 4.0226e-14)
(978.58 -3.2155e-10 3.8756e-14)
(978.58 -3.22836e-10 3.99206e-14)
(978.58 -3.24868e-10 3.95825e-14)
(978.58 -3.27491e-10 3.54041e-14)
(978.58 -3.30041e-10 3.49399e-14)
(978.58 -3.3221e-10 3.74077e-14)
(978.58 -3.34774e-10 3.94748e-14)
(978.58 -3.37908e-10 4.15544e-14)
(978.58 -3.41333e-10 4.58596e-14)
(978.58 -3.4389e-10 4.65507e-14)
(978.58 -3.46809e-10 4.34337e-14)
(978.58 -3.50046e-10 3.74431e-14)
(978.58 -3.52725e-10 3.68998e-14)
(978.58 -3.56426e-10 3.79319e-14)
(978.58 -3.60093e-10 3.75952e-14)
(978.58 -3.63492e-10 3.56844e-14)
(978.58 -3.66457e-10 3.45853e-14)
(978.58 -3.69293e-10 3.58794e-14)
(978.58 -3.72023e-10 3.62065e-14)
(978.58 -3.74398e-10 3.52822e-14)
(978.58 -3.79417e-10 3.73747e-14)
(978.58 -3.82244e-10 4.03884e-14)
(978.58 -3.86742e-10 3.67068e-14)
(978.58 -3.89246e-10 3.36817e-14)
(978.58 -3.92909e-10 3.71379e-14)
(978.58 -3.9695e-10 3.84678e-14)
(978.58 -4.01149e-10 3.31478e-14)
(978.58 -4.0496e-10 3.54061e-14)
(978.58 -4.09918e-10 2.82044e-14)
(978.58 -4.13973e-10 3.07785e-14)
(978.58 -4.17176e-10 3.62866e-14)
(978.58 -4.22556e-10 3.9221e-14)
(978.58 -4.28435e-10 3.29208e-14)
(978.58 -4.34647e-10 2.85599e-14)
(978.58 -4.39668e-10 2.9823e-14)
(978.58 -4.44643e-10 3.20267e-14)
(978.58 -4.49741e-10 3.04812e-14)
(978.58 -4.54908e-10 3.23091e-14)
(978.58 -4.60032e-10 2.92884e-14)
(978.58 -4.66485e-10 3.11818e-14)
(978.58 -4.73429e-10 3.35851e-14)
(978.58 -4.79235e-10 3.36768e-14)
(978.58 -4.83717e-10 3.08891e-14)
(978.58 -4.89368e-10 2.98553e-14)
(978.58 -4.98309e-10 3.00154e-14)
(978.58 -5.05999e-10 2.97172e-14)
(978.58 -5.11927e-10 2.80084e-14)
(978.58 -5.18433e-10 3.33675e-14)
(978.58 -5.25206e-10 3.24215e-14)
(978.58 -8.35638e-08 1.37725e-10)
(978.58 -5.95593e-08 8.79263e-11)
(978.58 -3.94983e-08 5.23932e-11)
(978.58 -2.59393e-08 3.15279e-11)
(978.58 -1.7492e-08 2.00719e-11)
(978.58 -1.22797e-08 1.36788e-11)
(978.58 -9.00001e-09 9.93593e-12)
(978.58 -6.86959e-09 7.58607e-12)
(978.58 -5.43257e-09 6.00814e-12)
(978.58 -4.42723e-09 4.89976e-12)
(978.58 -3.69466e-09 4.032e-12)
(978.58 -3.14221e-09 3.41233e-12)
(978.58 -2.71587e-09 2.91111e-12)
(978.58 -2.37909e-09 2.53227e-12)
(978.58 -2.10841e-09 2.24388e-12)
(978.58 -1.88843e-09 1.94214e-12)
(978.58 -1.70691e-09 1.71049e-12)
(978.58 -1.55445e-09 1.52361e-12)
(978.58 -1.42407e-09 1.36481e-12)
(978.58 -1.31185e-09 1.25652e-12)
(978.58 -1.2164e-09 1.12841e-12)
(978.58 -1.13473e-09 1.05146e-12)
(978.58 -1.06279e-09 9.56704e-13)
(978.58 -9.99564e-10 8.8883e-13)
(978.58 -9.44963e-10 8.13988e-13)
(978.58 -8.9533e-10 7.58594e-13)
(978.58 -8.50456e-10 7.02689e-13)
(978.58 -8.11142e-10 6.58704e-13)
(978.58 -7.76126e-10 6.29796e-13)
(978.58 -7.4431e-10 5.79823e-13)
(978.58 -7.14908e-10 5.44776e-13)
(978.58 -6.88447e-10 5.08546e-13)
(978.58 -6.65629e-10 4.86722e-13)
(978.58 -6.45417e-10 4.54705e-13)
(978.58 -6.27925e-10 4.26998e-13)
(978.58 -6.11535e-10 4.01436e-13)
(978.58 -5.94157e-10 3.80055e-13)
(978.58 -5.77855e-10 3.54213e-13)
(978.58 -5.62582e-10 3.42043e-13)
(978.58 -5.49567e-10 3.19624e-13)
(978.58 -5.37754e-10 3.12275e-13)
(978.58 -5.27205e-10 2.95511e-13)
(978.58 -5.1688e-10 2.84694e-13)
(978.58 -5.08045e-10 2.69174e-13)
(978.58 -4.99133e-10 2.70582e-13)
(978.58 -4.91109e-10 2.51533e-13)
(978.58 -4.84879e-10 2.44251e-13)
(978.58 -4.7629e-10 2.3777e-13)
(978.58 -4.69286e-10 2.32097e-13)
(978.58 -4.62717e-10 2.17932e-13)
(978.58 -4.57458e-10 2.06178e-13)
(978.58 -4.54197e-10 2.03876e-13)
(978.58 -4.48778e-10 1.91863e-13)
(978.58 -4.43936e-10 1.84244e-13)
(978.58 -4.40639e-10 1.75387e-13)
(978.58 -4.37398e-10 1.7566e-13)
(978.58 -4.34876e-10 1.67976e-13)
(978.58 -4.30996e-10 1.6617e-13)
(978.58 -4.27126e-10 1.67046e-13)
(978.58 -4.23752e-10 1.59948e-13)
(978.58 -4.20724e-10 1.50352e-13)
(978.58 -4.18584e-10 1.39532e-13)
(978.58 -4.17146e-10 1.35838e-13)
(978.58 -4.15787e-10 1.42321e-13)
(978.58 -4.14344e-10 1.44567e-13)
(978.58 -4.12914e-10 1.3546e-13)
(978.58 -4.11234e-10 1.29932e-13)
(978.58 -4.10882e-10 1.24943e-13)
(978.58 -4.0922e-10 1.14148e-13)
(978.58 -4.05216e-10 1.12984e-13)
(978.58 -4.02603e-10 1.14429e-13)
(978.58 -4.02995e-10 1.15346e-13)
(978.58 -4.0339e-10 1.11874e-13)
(978.58 -4.03547e-10 1.11628e-13)
(978.58 -4.02685e-10 1.07373e-13)
(978.58 -4.0207e-10 1.04179e-13)
(978.58 -4.03051e-10 1.07037e-13)
(978.58 -4.03911e-10 1.06622e-13)
(978.58 -4.03379e-10 9.82516e-14)
(978.58 -4.0318e-10 9.19056e-14)
(978.58 -4.04101e-10 9.02668e-14)
(978.58 -4.06737e-10 9.54819e-14)
(978.58 -4.0794e-10 9.14388e-14)
(978.58 -4.07703e-10 9.10254e-14)
(978.58 -4.0868e-10 8.88003e-14)
(978.58 -4.08517e-10 8.85234e-14)
(978.58 -4.09731e-10 8.49088e-14)
(978.58 -4.12304e-10 7.90443e-14)
(978.58 -4.13556e-10 7.98038e-14)
(978.58 -4.13949e-10 8.22039e-14)
(978.58 -4.1423e-10 8.06573e-14)
(978.58 -4.15703e-10 8.1193e-14)
(978.58 -4.17967e-10 8.44334e-14)
(978.58 -4.19138e-10 8.43389e-14)
(978.58 -4.20321e-10 7.4087e-14)
(978.58 -4.2196e-10 7.37871e-14)
(978.58 -4.25313e-10 7.30777e-14)
(978.58 -4.27053e-10 6.80004e-14)
(978.58 -4.28818e-10 6.75342e-14)
(978.58 -4.30233e-10 6.41525e-14)
(978.58 -4.31355e-10 6.13261e-14)
(978.58 -4.32636e-10 6.12297e-14)
(978.58 -4.35536e-10 6.21707e-14)
(978.58 -4.37773e-10 6.4558e-14)
(978.58 -4.41119e-10 6.35681e-14)
(978.58 -4.43138e-10 6.20038e-14)
(978.58 -4.45563e-10 5.98507e-14)
(978.58 -4.48326e-10 5.9128e-14)
(978.58 -4.50994e-10 5.51413e-14)
(978.58 -4.52907e-10 5.18547e-14)
(978.58 -4.56003e-10 5.40081e-14)
(978.58 -4.59201e-10 5.45637e-14)
(978.58 -4.61786e-10 5.8749e-14)
(978.58 -4.65072e-10 5.82182e-14)
(978.58 -4.68395e-10 6.00575e-14)
(978.58 -4.73265e-10 5.88508e-14)
(978.58 -4.77012e-10 5.67742e-14)
(978.58 -4.80861e-10 5.17675e-14)
(978.58 -4.85723e-10 5.05465e-14)
(978.58 -4.89239e-10 5.3585e-14)
(978.58 -4.93396e-10 5.34614e-14)
(978.58 -4.98004e-10 5.02525e-14)
(978.58 -5.02597e-10 4.89054e-14)
(978.58 -5.07585e-10 5.22404e-14)
(978.58 -5.10758e-10 5.29069e-14)
(978.58 -5.15213e-10 5.2238e-14)
(978.58 -5.19041e-10 5.49197e-14)
(978.58 -5.23591e-10 5.4509e-14)
(978.58 -5.28382e-10 4.94911e-14)
(978.58 -5.34466e-10 4.84056e-14)
(978.58 -5.38723e-10 4.84142e-14)
(978.58 -5.43748e-10 5.0776e-14)
(978.58 -5.48885e-10 4.817e-14)
(978.58 -5.54265e-10 4.71676e-14)
(978.58 -5.59236e-10 4.80875e-14)
(978.58 -5.65461e-10 4.81411e-14)
(978.58 -5.71986e-10 5.44665e-14)
(978.58 -5.76823e-10 5.20444e-14)
(978.58 -5.82041e-10 5.05612e-14)
(978.58 -5.89105e-10 4.5978e-14)
(978.58 -5.96659e-10 4.64101e-14)
(978.58 -6.03852e-10 4.65148e-14)
(978.58 -6.10044e-10 4.51381e-14)
(978.58 -6.16977e-10 4.67577e-14)
(978.58 -6.24011e-10 4.77829e-14)
(978.58 -6.31349e-10 4.83036e-14)
(978.58 -6.39329e-10 4.72784e-14)
(978.58 -6.47696e-10 4.50871e-14)
(978.58 -6.55627e-10 4.27855e-14)
(978.58 -6.62888e-10 4.29473e-14)
(978.58 -6.70386e-10 4.27283e-14)
(978.58 -6.8004e-10 4.57222e-14)
(978.58 -6.9019e-10 4.3547e-14)
(978.58 -6.99003e-10 3.99298e-14)
(978.58 -7.07956e-10 4.37924e-14)
(978.58 -7.16616e-10 4.43044e-14)
(978.58 -9.21838e-08 1.51878e-10)
(978.58 -7.10973e-08 1.04314e-10)
(978.58 -5.07601e-08 6.59995e-11)
(978.58 -3.52046e-08 4.13105e-11)
(978.58 -2.4572e-08 2.67977e-11)
(978.58 -1.7568e-08 1.83108e-11)
(978.58 -1.29576e-08 1.32062e-11)
(978.58 -9.87963e-09 1.00172e-11)
(978.58 -7.77734e-09 7.90015e-12)
(978.58 -6.29937e-09 6.41827e-12)
(978.58 -5.22728e-09 5.31482e-12)
(978.58 -4.42618e-09 4.45556e-12)
(978.58 -3.81045e-09 3.78619e-12)
(978.58 -3.32666e-09 3.28473e-12)
(978.58 -2.93979e-09 2.86583e-12)
(978.58 -2.62588e-09 2.51569e-12)
(978.58 -2.36761e-09 2.23225e-12)
(978.58 -2.15237e-09 2.00528e-12)
(978.58 -1.96814e-09 1.81918e-12)
(978.58 -1.80836e-09 1.6275e-12)
(978.58 -1.67357e-09 1.48652e-12)
(978.58 -1.55783e-09 1.36712e-12)
(978.58 -1.45606e-09 1.23975e-12)
(978.58 -1.36817e-09 1.14194e-12)
(978.58 -1.29074e-09 1.05168e-12)
(978.58 -1.22067e-09 9.97779e-13)
(978.58 -1.15834e-09 9.23712e-13)
(978.58 -1.10386e-09 8.75751e-13)
(978.58 -1.0535e-09 8.2216e-13)
(978.58 -1.00805e-09 7.58856e-13)
(978.58 -9.66913e-10 7.09788e-13)
(978.58 -9.30739e-10 6.64861e-13)
(978.58 -8.98585e-10 6.1638e-13)
(978.58 -8.6971e-10 5.80526e-13)
(978.58 -8.43817e-10 5.51012e-13)
(978.58 -8.19877e-10 5.19201e-13)
(978.58 -7.95623e-10 4.94789e-13)
(978.58 -7.73426e-10 4.69832e-13)
(978.58 -7.5366e-10 4.37506e-13)
(978.58 -7.36741e-10 4.23525e-13)
(978.58 -7.18484e-10 4.11797e-13)
(978.58 -7.01837e-10 3.94017e-13)
(978.58 -6.88968e-10 3.75061e-13)
(978.58 -6.75813e-10 3.6474e-13)
(978.58 -6.64314e-10 3.48364e-13)
(978.58 -6.51816e-10 3.40958e-13)
(978.58 -6.42229e-10 3.19096e-13)
(978.58 -6.31007e-10 3.07537e-13)
(978.58 -6.2143e-10 2.92457e-13)
(978.58 -6.12745e-10 2.72081e-13)
(978.58 -6.0556e-10 2.71853e-13)
(978.58 -5.98133e-10 2.60838e-13)
(978.58 -5.91504e-10 2.52359e-13)
(978.58 -5.85647e-10 2.44682e-13)
(978.58 -5.80163e-10 2.39382e-13)
(978.58 -5.75025e-10 2.28644e-13)
(978.58 -5.70856e-10 2.1458e-13)
(978.58 -5.65951e-10 2.1239e-13)
(978.58 -5.61907e-10 2.07353e-13)
(978.58 -5.56057e-10 1.92816e-13)
(978.58 -5.51311e-10 1.8851e-13)
(978.58 -5.48179e-10 1.83462e-13)
(978.58 -5.45647e-10 1.83857e-13)
(978.58 -5.43833e-10 1.86253e-13)
(978.58 -5.4171e-10 1.74973e-13)
(978.58 -5.39727e-10 1.76518e-13)
(978.58 -5.37363e-10 1.69643e-13)
(978.58 -5.36001e-10 1.56718e-13)
(978.58 -5.33694e-10 1.62244e-13)
(978.58 -5.29656e-10 1.58906e-13)
(978.58 -5.26042e-10 1.52325e-13)
(978.58 -5.25412e-10 1.49663e-13)
(978.58 -5.24451e-10 1.4425e-13)
(978.58 -5.24174e-10 1.3891e-13)
(978.58 -5.24597e-10 1.40074e-13)
(978.58 -5.24123e-10 1.37503e-13)
(978.58 -5.23799e-10 1.35964e-13)
(978.58 -5.22841e-10 1.28457e-13)
(978.58 -5.21771e-10 1.22908e-13)
(978.58 -5.22198e-10 1.23941e-13)
(978.58 -5.22776e-10 1.28823e-13)
(978.58 -5.25101e-10 1.18107e-13)
(978.58 -5.26413e-10 1.15608e-13)
(978.58 -5.26534e-10 1.1496e-13)
(978.58 -5.2773e-10 1.13672e-13)
(978.58 -5.2802e-10 1.08444e-13)
(978.58 -5.28675e-10 1.0749e-13)
(978.58 -5.30661e-10 1.09862e-13)
(978.58 -5.34016e-10 1.11901e-13)
(978.58 -5.34476e-10 1.07758e-13)
(978.58 -5.34852e-10 1.02503e-13)
(978.58 -5.36133e-10 1.02537e-13)
(978.58 -5.38893e-10 1.00712e-13)
(978.58 -5.41199e-10 9.67112e-14)
(978.58 -5.42035e-10 9.49076e-14)
(978.58 -5.43055e-10 9.51473e-14)
(978.58 -5.45419e-10 8.78197e-14)
(978.58 -5.48172e-10 8.89521e-14)
(978.58 -5.49957e-10 9.05816e-14)
(978.58 -5.51849e-10 8.66514e-14)
(978.58 -5.53589e-10 8.38022e-14)
(978.58 -5.55429e-10 8.60327e-14)
(978.58 -5.5823e-10 8.54328e-14)
(978.58 -5.60701e-10 7.70918e-14)
(978.58 -5.64035e-10 7.8483e-14)
(978.58 -5.67829e-10 8.00631e-14)
(978.58 -5.70525e-10 7.91869e-14)
(978.58 -5.73752e-10 7.75532e-14)
(978.58 -5.77291e-10 7.63929e-14)
(978.58 -5.80759e-10 7.84541e-14)
(978.58 -5.83855e-10 7.77814e-14)
(978.58 -5.88226e-10 7.70043e-14)
(978.58 -5.90804e-10 7.47686e-14)
(978.58 -5.94373e-10 6.76913e-14)
(978.58 -5.97865e-10 7.0072e-14)
(978.58 -6.03314e-10 7.3164e-14)
(978.58 -6.08304e-10 7.43475e-14)
(978.58 -6.12905e-10 7.2351e-14)
(978.58 -6.17755e-10 7.41018e-14)
(978.58 -6.23272e-10 7.28356e-14)
(978.58 -6.28111e-10 6.60054e-14)
(978.58 -6.33519e-10 6.60264e-14)
(978.58 -6.39129e-10 7.1251e-14)
(978.58 -6.45025e-10 6.9109e-14)
(978.58 -6.50557e-10 6.66913e-14)
(978.58 -6.55491e-10 7.08181e-14)
(978.58 -6.60397e-10 6.91952e-14)
(978.58 -6.6534e-10 6.37438e-14)
(978.58 -6.70357e-10 6.28425e-14)
(978.58 -6.76064e-10 6.17643e-14)
(978.58 -6.82919e-10 6.3515e-14)
(978.58 -6.89692e-10 6.7387e-14)
(978.58 -6.96508e-10 6.38074e-14)
(978.58 -7.02706e-10 6.56906e-14)
(978.58 -7.09473e-10 6.51588e-14)
(978.58 -7.17308e-10 6.43219e-14)
(978.58 -7.24912e-10 6.41207e-14)
(978.58 -7.31782e-10 6.08976e-14)
(978.58 -7.38555e-10 6.03071e-14)
(978.58 -7.46268e-10 5.84109e-14)
(978.58 -7.54982e-10 6.17349e-14)
(978.58 -7.63765e-10 6.07175e-14)
(978.58 -7.71238e-10 6.18505e-14)
(978.58 -7.79257e-10 6.23987e-14)
(978.58 -7.88403e-10 6.08641e-14)
(978.58 -7.97869e-10 6.04423e-14)
(978.58 -8.07115e-10 5.75716e-14)
(978.58 -8.16575e-10 5.3829e-14)
(978.58 -8.25533e-10 5.62342e-14)
(978.58 -8.34934e-10 5.60045e-14)
(978.58 -8.45223e-10 5.58575e-14)
(978.58 -8.55731e-10 5.89834e-14)
(978.58 -8.67224e-10 5.13616e-14)
(978.58 -8.7736e-10 5.39667e-14)
(978.58 -8.88573e-10 5.85045e-14)
(978.58 -8.99861e-10 5.70983e-14)
(978.58 -9.85213e-08 1.62702e-10)
(978.58 -8.03693e-08 1.17659e-10)
(978.58 -6.08445e-08 7.81514e-11)
(978.58 -4.42972e-08 5.09e-11)
(978.58 -3.20109e-08 3.36784e-11)
(978.58 -2.33953e-08 2.31539e-11)
(978.58 -1.74553e-08 1.67366e-11)
(978.58 -1.33571e-08 1.25842e-11)
(978.58 -1.05002e-08 9.82602e-12)
(978.58 -8.47231e-09 7.91377e-12)
(978.58 -6.99911e-09 6.55567e-12)
(978.58 -5.8998e-09 5.50654e-12)
(978.58 -5.05821e-09 4.7101e-12)
(978.58 -4.40195e-09 4.07889e-12)
(978.58 -3.87947e-09 3.51408e-12)
(978.58 -3.45534e-09 3.09493e-12)
(978.58 -3.10735e-09 2.76924e-12)
(978.58 -2.81788e-09 2.46349e-12)
(978.58 -2.57233e-09 2.23105e-12)
(978.58 -2.36063e-09 1.99893e-12)
(978.58 -2.18008e-09 1.82253e-12)
(978.58 -2.02526e-09 1.66432e-12)
(978.58 -1.89057e-09 1.52662e-12)
(978.58 -1.77172e-09 1.38853e-12)
(978.58 -1.6679e-09 1.30189e-12)
(978.58 -1.57702e-09 1.21543e-12)
(978.58 -1.49455e-09 1.13794e-12)
(978.58 -1.42153e-09 1.06424e-12)
(978.58 -1.35528e-09 9.78814e-13)
(978.58 -1.29506e-09 9.05408e-13)
(978.58 -1.24061e-09 8.62751e-13)
(978.58 -1.19215e-09 8.04501e-13)
(978.58 -1.14965e-09 7.57162e-13)
(978.58 -1.11145e-09 7.22123e-13)
(978.58 -1.07596e-09 6.75549e-13)
(978.58 -1.04345e-09 6.25858e-13)
(978.58 -1.01244e-09 6.14982e-13)
(978.58 -9.83028e-10 5.7961e-13)
(978.58 -9.57108e-10 5.5198e-13)
(978.58 -9.33723e-10 5.31245e-13)
(978.58 -9.1123e-10 4.93179e-13)
(978.58 -8.8951e-10 4.72017e-13)
(978.58 -8.70694e-10 4.55828e-13)
(978.58 -8.53192e-10 4.41666e-13)
(978.58 -8.37725e-10 4.24367e-13)
(978.58 -8.22619e-10 4.10418e-13)
(978.58 -8.08453e-10 3.87308e-13)
(978.58 -7.92913e-10 3.76368e-13)
(978.58 -7.8149e-10 3.61575e-13)
(978.58 -7.70326e-10 3.40718e-13)
(978.58 -7.61229e-10 3.30585e-13)
(978.58 -7.50096e-10 3.18709e-13)
(978.58 -7.40122e-10 3.04946e-13)
(978.58 -7.32955e-10 2.95768e-13)
(978.58 -7.26201e-10 2.83287e-13)
(978.58 -7.19511e-10 2.72555e-13)
(978.58 -7.12536e-10 2.68222e-13)
(978.58 -7.06143e-10 2.65742e-13)
(978.58 -7.00082e-10 2.50261e-13)
(978.58 -6.93355e-10 2.41373e-13)
(978.58 -6.87027e-10 2.3783e-13)
(978.58 -6.826e-10 2.31392e-13)
(978.58 -6.78212e-10 2.28597e-13)
(978.58 -6.74535e-10 2.19545e-13)
(978.58 -6.72216e-10 2.19158e-13)
(978.58 -6.69745e-10 2.16662e-13)
(978.58 -6.66964e-10 2.03769e-13)
(978.58 -6.64162e-10 1.97404e-13)
(978.58 -6.61022e-10 1.99499e-13)
(978.58 -6.5713e-10 1.90692e-13)
(978.58 -6.52606e-10 1.84441e-13)
(978.58 -6.50879e-10 1.80989e-13)
(978.58 -6.4917e-10 1.77203e-13)
(978.58 -6.47853e-10 1.69505e-13)
(978.58 -6.47333e-10 1.69925e-13)
(978.58 -6.47047e-10 1.62202e-13)
(978.58 -6.46901e-10 1.59187e-13)
(978.58 -6.45881e-10 1.57948e-13)
(978.58 -6.44822e-10 1.65641e-13)
(978.58 -6.44373e-10 1.5658e-13)
(978.58 -6.43796e-10 1.51918e-13)
(978.58 -6.45604e-10 1.46358e-13)