/*--------------------------------*- C++ -*----------------------------------*\
| =========                 |                                                 |
| \\      /  F ield         | OpenFOAM: The Open Source CFD Toolbox           |
|  \\    /   O peration     | Version:  v1706                                 |
|   \\  /    A nd           | Web:      www.OpenFOAM.com                      |
|    \\/     M anipulation  |                                                 |
\*---------------------------------------------------------------------------*/
FoamFile
{
    version     2.0;
    format      ascii;
    class       volScalarField;
    location    "4e-05";
    object      kappatr;
}
// * * * * * * * * * * * * * * * * * * * * * * * * * * * * * * * * * * * * * //

dimensions      [1 1 -3 -1 0 0 0];


internalField   nonuniform List<scalar> 
30104
(
0.0145953
0.0145956
0.014596
0.0145965
0.014597
0.0145976
0.0145983
0.0145991
0.0146
0.014601
0.0146022
0.0146036
0.0146052
0.014607
0.014609
0.0146114
0.0146141
0.0178707
0.0178122
0.0177532
0.0176937
0.0176337
0.0175732
0.0175121
0.0174506
0.0173887
0.0173264
0.0172637
0.0172008
0.0171378
0.0170747
0.0170115
0.0169485
0.0168856
0.016823
0.0167607
0.0166988
0.0166373
0.0165763
0.0165157
0.0164557
0.0163961
0.0163371
0.0162785
0.0162205
0.0161675
0.0161273
0.016095
0.016066
0.0160377
0.0160087
0.0159784
0.0159465
0.015913
0.0158778
0.0158409
0.0158022
0.0157618
0.0157198
0.0156763
0.0156314
0.0155852
0.0155381
0.01549
0.015441
0.0153912
0.0153407
0.0152893
0.0152372
0.0151849
0.0151326
0.0150811
0.0150338
0.0149932
0.0149587
0.0149276
0.0148978
0.0148685
0.0148393
0.0148105
0.0147825
0.0147557
0.014731
0.0147091
0.0146909
0.0146762
0.0146641
0.0146537
0.0146444
0.014636
0.0146286
0.0146224
0.0146173
0.0146133
0.01461
0.0146072
0.0146048
0.0146027
0.0146009
0.0145994
0.0145981
0.0145971
0.0145964
0.0145957
0.0145952
0.0145948
0.0145945
0.0145942
0.014594
0.0145938
0.0145937
0.0145935
0.0145934
0.0145934
0.0145933
0.0145932
0.0145932
0.0145932
0.0145931
0.0145931
0.0145931
0.0145931
0.0145931
0.014593
0.014593
0.014593
0.014593
0.014593
0.014593
0.014593
0.014593
0.014593
0.014593
0.014593
0.014593
0.014593
0.014593
0.014593
0.014593
0.014593
0.014593
0.014593
0.014593
0.014593
0.014593
0.014593
0.014593
0.014593
0.014593
0.014593
0.014593
0.014593
0.014593
0.014593
0.014593
0.014593
0.014593
0.014593
0.014593
0.014593
0.014593
0.014593
0.014593
0.014593
0.014593
0.014593
0.014593
0.014593
0.014593
0.014593
0.014593
0.014593
0.014593
0.014593
0.014593
0.014593
0.014593
0.014593
0.014593
0.014593
0.014593
0.014593
0.014593
0.014593
0.014593
0.014593
0.014593
0.014593
0.014593
0.014593
0.014593
0.014593
0.014593
0.014593
0.014593
0.014593
0.014593
0.014593
0.014593
0.014593
0.014593
0.014593
0.014593
0.014593
0.014593
0.014593
0.014593
0.014593
0.014593
0.014593
0.0146071
0.0146092
0.0146117
0.0146145
0.0146178
0.0146216
0.0146259
0.0146309
0.0146365
0.014643
0.0146505
0.014659
0.0146688
0.01468
0.0146928
0.0147074
0.014724
0.0221011
0.0220709
0.0220414
0.0220125
0.0219844
0.0219572
0.0219308
0.0219055
0.0218811
0.0218577
0.021835
0.0218131
0.0217916
0.0217704
0.0217492
0.0217278
0.0217058
0.0216831
0.0216595
0.0216348
0.0216089
0.0215818
0.0215533
0.0215236
0.0214926
0.0214604
0.0214272
0.021393
0.0213565
0.0213152
0.0212679
0.0212144
0.0211544
0.0210877
0.0210139
0.0209324
0.0208429
0.0207452
0.020639
0.0205241
0.0204001
0.020267
0.0201253
0.0199752
0.0198173
0.0196517
0.0194784
0.0192965
0.019105
0.0189025
0.0186878
0.0184605
0.0182205
0.017968
0.0177047
0.0174382
0.0171968
0.0169975
0.0168209
0.0166519
0.0164831
0.016312
0.0161389
0.0159656
0.0157948
0.015632
0.0154848
0.01536
0.0152578
0.0151712
0.015094
0.0150231
0.0149577
0.0148981
0.0148455
0.0148012
0.0147655
0.014737
0.0147135
0.0146934
0.0146759
0.0146607
0.0146481
0.0146379
0.0146298
0.0146233
0.014618
0.0146136
0.0146098
0.0146066
0.014604
0.0146019
0.0146002
0.0145989
0.0145978
0.014597
0.0145962
0.0145956
0.0145951
0.0145947
0.0145944
0.0145942
0.014594
0.0145938
0.0145936
0.0145935
0.0145934
0.0145933
0.0145933
0.0145932
0.0145932
0.0145931
0.0145931
0.0145931
0.0145931
0.0145931
0.014593
0.014593
0.014593
0.014593
0.014593
0.014593
0.014593
0.014593
0.014593
0.014593
0.014593
0.014593
0.014593
0.014593
0.014593
0.014593
0.014593
0.014593
0.014593
0.014593
0.014593
0.014593
0.014593
0.014593
0.014593
0.014593
0.014593
0.014593
0.014593
0.014593
0.014593
0.014593
0.014593
0.014593
0.014593
0.014593
0.014593
0.014593
0.014593
0.014593
0.014593
0.014593
0.014593
0.014593
0.014593
0.014593
0.014593
0.014593
0.014593
0.014593
0.014593
0.014593
0.014593
0.014593
0.014593
0.014593
0.014593
0.014593
0.014593
0.014593
0.014593
0.014593
0.014593
0.014593
0.014593
0.014593
0.014593
0.014593
0.014593
0.014593
0.014593
0.014593
0.014593
0.014593
0.014593
0.014593
0.014593
0.0146445
0.0146524
0.0146614
0.0146719
0.0146838
0.0146975
0.0147132
0.0147312
0.0147518
0.0147754
0.0148024
0.0148333
0.0148688
0.0149092
0.0149552
0.0150072
0.0227398
0.0227139
0.022688
0.0226624
0.0226369
0.0226118
0.0225871
0.0225631
0.0225399
0.0225179
0.0224972
0.0224782
0.0224608
0.0224453
0.0224316
0.0224198
0.0224097
0.0224011
0.0223939
0.0223878
0.0223827
0.0223783
0.0223745
0.0223712
0.022368
0.0223649
0.022362
0.0223593
0.0223566
0.0223534
0.0223497
0.0223457
0.0223418
0.0223383
0.022335
0.0223316
0.0223276
0.0223222
0.022315
0.0223053
0.0222929
0.0222772
0.0222579
0.0222347
0.0222074
0.022176
0.0221407
0.0221015
0.0220577
0.0220084
0.0219519
0.021886
0.0218075
0.0217138
0.0216024
0.0214694
0.0213061
0.0211074
0.0208752
0.0206114
0.0203171
0.0199921
0.0196351
0.019245
0.0188239
0.0183796
0.0179296
0.0175129
0.017178
0.0168965
0.0166399
0.0163947
0.0161576
0.015931
0.0157219
0.0155397
0.0153905
0.0152711
0.015171
0.0150828
0.0150033
0.0149323
0.0148705
0.0148191
0.0147783
0.0147464
0.0147207
0.0146989
0.0146801
0.014664
0.0146507
0.0146401
0.0146318
0.0146252
0.0146198
0.0146152
0.0146113
0.014608
0.0146052
0.0146029
0.0146011
0.0145997
0.0145986
0.0145976
0.0145967
0.014596
0.0145955
0.014595
0.0145946
0.0145943
0.014594
0.0145938
0.0145937
0.0145935
0.0145934
0.0145933
0.0145932
0.0145932
0.0145931
0.0145931
0.0145931
0.0145931
0.0145931
0.014593
0.014593
0.014593
0.014593
0.014593
0.014593
0.014593
0.014593
0.014593
0.014593
0.014593
0.014593
0.014593
0.014593
0.014593
0.014593
0.014593
0.014593
0.014593
0.014593
0.014593
0.014593
0.014593
0.014593
0.014593
0.014593
0.014593
0.014593
0.014593
0.014593
0.014593
0.014593
0.014593
0.014593
0.014593
0.014593
0.014593
0.014593
0.014593
0.014593
0.014593
0.014593
0.014593
0.014593
0.014593
0.014593
0.014593
0.014593
0.014593
0.014593
0.014593
0.014593
0.014593
0.014593
0.014593
0.014593
0.014593
0.014593
0.014593
0.014593
0.014593
0.014593
0.014593
0.014593
0.014593
0.014593
0.014593
0.014593
0.014593
0.014593
0.0147649
0.0147909
0.0148208
0.0148551
0.0148945
0.0149396
0.0149909
0.0150492
0.0151151
0.0151899
0.0152747
0.0153714
0.0154812
0.0156054
0.0157449
0.0159002
0.0228659
0.0228367
0.0228081
0.02278
0.0227525
0.0227254
0.022699
0.0226731
0.0226479
0.0226234
0.0225998
0.0225771
0.0225556
0.0225353
0.0225164
0.0224989
0.0224829
0.0224684
0.0224555
0.0224442
0.0224345
0.0224264
0.0224201
0.0224154
0.0224118
0.0224091
0.0224075
0.0224068
0.022407
0.0224077
0.0224089
0.0224103
0.0224121
0.0224145
0.0224174
0.0224214
0.022427
0.0224343
0.022443
0.0224526
0.0224626
0.022473
0.0224834
0.0224934
0.0225024
0.02251
0.022516
0.0225203
0.0225232
0.0225252
0.0225275
0.0225305
0.0225344
0.0225384
0.0225391
0.0225374
0.0225325
0.0225229
0.0225079
0.0224861
0.0224537
0.0224063
0.0223394
0.0222493
0.0221318
0.0219825
0.0217939
0.0215543
0.0212547
0.020902
0.0205034
0.0200619
0.019579
0.0190597
0.0185172
0.017979
0.0174999
0.0171277
0.0168175
0.0165352
0.0162672
0.0160134
0.015781
0.0155798
0.0154164
0.0152884
0.0151838
0.0150928
0.0150114
0.0149391
0.0148766
0.0148247
0.0147836
0.0147518
0.0147266
0.0147052
0.0146866
0.0146704
0.0146568
0.0146456
0.0146366
0.0146294
0.0146235
0.0146186
0.0146143
0.0146105
0.0146073
0.0146045
0.0146023
0.0146004
0.014599
0.0145978
0.0145968
0.014596
0.0145954
0.0145949
0.0145945
0.0145941
0.0145939
0.0145937
0.0145935
0.0145934
0.0145933
0.0145933
0.0145932
0.0145932
0.0145931
0.0145931
0.0145931
0.0145931
0.0145931
0.014593
0.014593
0.014593
0.014593
0.014593
0.014593
0.014593
0.014593
0.014593
0.014593
0.014593
0.014593
0.014593
0.014593
0.014593
0.014593
0.014593
0.014593
0.014593
0.014593
0.014593
0.014593
0.014593
0.014593
0.014593
0.014593
0.014593
0.014593
0.014593
0.014593
0.014593
0.014593
0.014593
0.014593
0.014593
0.014593
0.014593
0.014593
0.014593
0.014593
0.014593
0.014593
0.014593
0.014593
0.014593
0.014593
0.014593
0.014593
0.014593
0.014593
0.014593
0.014593
0.014593
0.014593
0.014593
0.014593
0.014593
0.014593
0.014593
0.014593
0.014593
0.014593
0.015138
0.0152176
0.015308
0.0154109
0.0155279
0.0156603
0.0158091
0.0159753
0.0161598
0.0163649
0.0165938
0.0168488
0.0171304
0.0174373
0.0177674
0.0229662
0.0229333
0.0229012
0.0228697
0.0228389
0.0228088
0.0227792
0.0227503
0.0227218
0.0226939
0.0226665
0.0226398
0.0226137
0.0225886
0.0225644
0.0225415
0.0225198
0.0224996
0.0224809
0.0224638
0.0224485
0.0224352
0.0224237
0.0224143
0.0224068
0.0224011
0.022397
0.0223946
0.0223946
0.0223956
0.0223978
0.0224013
0.022406
0.0224122
0.0224205
0.0224311
0.0224438
0.0224583
0.0224743
0.0224911
0.0225082
0.0225255
0.022543
0.0225605
0.0225775
0.0225934
0.0226082
0.0226223
0.0226353
0.022647
0.0226581
0.0226697
0.0226827
0.0226968
0.0227113
0.0227259
0.022741
0.022757
0.0227738
0.0227911
0.0228087
0.0228253
0.0228399
0.0228524
0.0228621
0.0228657
0.0228645
0.0228592
0.0228457
0.0228189
0.0227715
0.0226958
0.0225853
0.0224351
0.0222409
0.0219964
0.021692
0.0213238
0.0209015
0.0204299
0.0199102
0.0193478
0.0187582
0.0181712
0.0176375
0.0172238
0.0168972
0.0166065
0.0163322
0.0160732
0.0158368
0.0156319
0.0154637
0.0153316
0.0152269
0.0151374
0.015057
0.0149844
0.0149201
0.0148645
0.0148181
0.0147807
0.014751
0.0147269
0.0147062
0.0146876
0.0146712
0.014657
0.014645
0.0146352
0.0146273
0.0146209
0.0146156
0.0146111
0.0146073
0.0146042
0.0146017
0.0145998
0.0145983
0.0145972
0.0145963
0.0145955
0.014595
0.0145945
0.0145942
0.014594
0.0145938
0.0145936
0.0145935
0.0145934
0.0145933
0.0145932
0.0145932
0.0145931
0.0145931
0.0145931
0.0145931
0.0145931
0.014593
0.014593
0.014593
0.014593
0.014593
0.014593
0.014593
0.014593
0.014593
0.014593
0.014593
0.014593
0.014593
0.014593
0.014593
0.014593
0.014593
0.014593
0.014593
0.014593
0.014593
0.014593
0.014593
0.014593
0.014593
0.014593
0.014593
0.014593
0.014593
0.014593
0.014593
0.014593
0.014593
0.014593
0.014593
0.014593
0.014593
0.014593
0.014593
0.014593
0.014593
0.014593
0.014593
0.014593
0.014593
0.014593
0.014593
0.014593
0.014593
0.014593
0.014593
0.014593
0.014593
0.014593
0.014593
0.0159953
0.0161861
0.0163982
0.0166344
0.0168975
0.0171882
0.0175055
0.0178473
0.0182108
0.018594
0.0189973
0.0194347
0.01991
0.020416
0.0209409
0.0214707
0.0230673
0.0230292
0.0229919
0.0229556
0.0229204
0.0228862
0.0228531
0.0228209
0.0227897
0.0227595
0.0227301
0.0227016
0.0226739
0.022647
0.022621
0.022596
0.0225721
0.0225495
0.0225282
0.0225082
0.0224896
0.0224725
0.0224569
0.022443
0.0224314
0.0224221
0.0224149
0.0224097
0.0224065
0.0224061
0.0224071
0.02241
0.0224149
0.0224222
0.0224325
0.022446
0.0224621
0.0224807
0.0225013
0.0225236
0.0225468
0.02257
0.0225928
0.0226152
0.0226366
0.0226568
0.0226751
0.0226926
0.0227104
0.0227263
0.0227401
0.0227544
0.0227705
0.0227861
0.0228004
0.0228167
0.0228351
0.0228536
0.0228739
0.0228964
0.0229216
0.0229438
0.0229658
0.0229893
0.023014
0.0230363
0.0230579
0.0230815
0.0231062
0.0231297
0.0231495
0.0231639
0.0231738
0.0231787
0.0231783
0.0231742
0.0231629
0.0231397
0.0230966
0.0230237
0.0229128
0.022759
0.0225592
0.0223101
0.022006
0.0216413
0.0212216
0.0207503
0.0202284
0.0196634
0.0190727
0.0184825
0.0179296
0.0174644
0.0171211
0.0168361
0.01657
0.0163149
0.0160748
0.0158564
0.0156651
0.0155033
0.0153704
0.0152629
0.0151722
0.0150895
0.0150126
0.0149422
0.0148796
0.0148258
0.0147814
0.0147461
0.0147179
0.0146945
0.0146744
0.0146574
0.0146435
0.0146326
0.0146242
0.0146178
0.0146126
0.0146084
0.0146049
0.0146022
0.0146002
0.0145987
0.0145975
0.0145965
0.0145958
0.0145952
0.0145947
0.0145944
0.0145941
0.0145938
0.0145937
0.0145935
0.0145934
0.0145933
0.0145932
0.0145932
0.0145931
0.0145931
0.0145931
0.0145931
0.0145931
0.0145931
0.014593
0.014593
0.014593
0.014593
0.014593
0.014593
0.014593
0.014593
0.014593
0.014593
0.014593
0.014593
0.014593
0.014593
0.014593
0.014593
0.014593
0.014593
0.014593
0.014593
0.014593
0.014593
0.014593
0.014593
0.014593
0.014593
0.014593
0.014593
0.014593
0.0145931
0.0145931
0.0145931
0.0145931
0.0145931
0.0145931
0.0145931
0.0145931
0.0145931
0.0145931
0.0145931
0.0145931
0.0145931
0.0145931
0.0145931
0.0145931
0.0145931
0.0145931
0.018193
0.0185843
0.018996
0.0194364
0.0199131
0.0204208
0.0209493
0.0214854
0.0220151
0.0225258
0.0230062
0.0234446
0.0238357
0.0232194
0.0231761
0.0231332
0.0230912
0.0230509
0.0230119
0.0229741
0.0229377
0.0229026
0.0228688
0.0228362
0.0228048
0.0227744
0.022745
0.0227165
0.022689
0.0226627
0.0226375
0.0226136
0.022591
0.0225697
0.0225498
0.0225313
0.0225145
0.0224995
0.0224866
0.0224759
0.0224675
0.0224612
0.0224574
0.022457
0.0224583
0.022462
0.0224686
0.0224788
0.0224928
0.0225103
0.0225307
0.0225537
0.0225791
0.0226058
0.0226326
0.0226586
0.0226838
0.0227076
0.0227299
0.0227499
0.0227682
0.0227878
0.0228054
0.0228201
0.0228355
0.0228526
0.0228681
0.0228825
0.0228988
0.0229165
0.022935
0.0229545
0.0229754
0.0229973
0.0230194
0.0230417
0.0230645
0.0230881
0.0231123
0.0231373
0.0231639
0.0231921
0.0232208
0.0232489
0.0232757
0.0233016
0.0233273
0.0233531
0.0233778
0.0234034
0.0234289
0.0234519
0.0234713
0.0234884
0.023504
0.0235158
0.0235204
0.0235193
0.0235105
0.0234797
0.0234151
0.0233138
0.0231758
0.0230002
0.0227853
0.022528
0.0222206
0.0218577
0.0214443
0.0209842
0.0204819
0.0199452
0.0193866
0.0188236
0.0182803
0.0177883
0.0173835
0.0170746
0.016796
0.0165215
0.016253
0.0159988
0.015767
0.0155639
0.0153935
0.0152558
0.0151436
0.0150455
0.0149575
0.014881
0.0148178
0.0147686
0.0147316
0.0147034
0.0146806
0.0146619
0.0146467
0.014635
0.0146262
0.0146194
0.0146141
0.0146097
0.0146061
0.0146032
0.014601
0.0145993
0.0145979
0.0145969
0.014596
0.0145954
0.0145948
0.0145944
0.0145941
0.0145939
0.0145937
0.0145935
0.0145934
0.0145933
0.0145933
0.0145932
0.0145932
0.0145931
0.0145931
0.0145931
0.0145931
0.0145931
0.0145931
0.0145931
0.0145931
0.0145931
0.0145931
0.0145931
0.0145931
0.0145931
0.0145931
0.0145931
0.0145931
0.0145931
0.0145931
0.0145931
0.0145931
0.0145931
0.0145931
0.0145931
0.0145931
0.0145932
0.0145932
0.0145932
0.0145932
0.0145932
0.0145932
0.0145932
0.0145932
0.0145932
0.0145932
0.0145932
0.0145932
0.0145933
0.0145933
0.0145933
0.0145933
0.0145933
0.0145933
0.0145933
0.0145934
0.0145933
0.0218948
0.0224217
0.0229225
0.0233849
0.0238008
0.024168
0.0244873
0.0247615
0.0249944
0.0251905
0.0253544
0.0254903
0.025602
0.0234205
0.0233721
0.0233223
0.0232751
0.0232302
0.0231859
0.0231428
0.023102
0.023063
0.023025
0.0229883
0.0229535
0.0229202
0.0228879
0.0228565
0.0228262
0.0227973
0.0227698
0.0227436
0.0227187
0.0226952
0.0226732
0.0226527
0.0226337
0.0226165
0.0226011
0.0225877
0.0225767
0.022568
0.0225616
0.0225583
0.0225585
0.0225605
0.0225653
0.0225734
0.0225856
0.0226021
0.0226219
0.0226443
0.0226698
0.0226977
0.0227258
0.0227531
0.0227791
0.0228037
0.0228263
0.0228461
0.0228653
0.0228853
0.0229017
0.0229149
0.0229297
0.0229458
0.0229597
0.0229731
0.0229875
0.0230026
0.0230183
0.023035
0.0230527
0.0230713
0.0230911
0.0231113
0.023132
0.0231535
0.0231761
0.0231999
0.0232251
0.0232511
0.0232777
0.0233045
0.0233314
0.0233585
0.0233865
0.023416
0.0234469
0.0234793
0.0235128
0.0235468
0.0235814
0.0236169
0.0236529
0.0236901
0.0237293
0.023766
0.0238006
0.0238357
0.0238738
0.0239118
0.0239482
0.0239817
0.0240139
0.0240398
0.0240492
0.0240458
0.0240243
0.0239722
0.0238889
0.0237754
0.0236292
0.023446
0.0232214
0.0229497
0.022624
0.0222389
0.0217928
0.0212821
0.0207075
0.0200769
0.0194067
0.0187247
0.0180737
0.0175107
0.0170815
0.0167178
0.0163735
0.0160514
0.0157656
0.0155266
0.0153381
0.0151948
0.0150808
0.0149832
0.0148997
0.0148315
0.0147789
0.0147399
0.0147106
0.0146872
0.0146678
0.0146519
0.0146393
0.0146296
0.0146221
0.0146162
0.0146113
0.0146073
0.014604
0.0146015
0.0145996
0.0145981
0.014597
0.0145961
0.0145954
0.0145949
0.0145945
0.0145942
0.0145939
0.0145937
0.0145936
0.0145935
0.0145934
0.0145934
0.0145934
0.0145933
0.0145933
0.0145933
0.0145933
0.0145933
0.0145933
0.0145933
0.0145933
0.0145934
0.0145934
0.0145934
0.0145934
0.0145934
0.0145934
0.0145935
0.0145935
0.0145935
0.0145935
0.0145935
0.0145936
0.0145936
0.0145936
0.0145937
0.0145937
0.0145937
0.0145937
0.0145938
0.0145938
0.0145938
0.0145939
0.0145939
0.014594
0.014594
0.0145941
0.0145941
0.0145942
0.0145942
0.0145943
0.0145942
0.0247211
0.0249831
0.0252043
0.0253892
0.0255424
0.0256686
0.0257716
0.0258547
0.0259209
0.0259725
0.0260127
0.0260455
0.0260732
0.0260971
0.0236644
0.0236114
0.0235555
0.0235042
0.0234553
0.0234052
0.0233577
0.0233142
0.0232718
0.0232284
0.023187
0.0231495
0.0231134
0.0230778
0.0230428
0.0230094
0.022978
0.0229482
0.0229196
0.0228924
0.0228668
0.022843
0.0228207
0.0228001
0.0227811
0.0227639
0.0227487
0.0227354
0.0227247
0.0227165
0.0227105
0.0227085
0.0227094
0.0227125
0.022718
0.022727
0.0227411
0.0227587
0.0227785
0.0228008
0.0228269
0.0228543
0.0228804
0.0229049
0.022928
0.022949
0.0229676
0.022987
0.0230059
0.0230189
0.0230294
0.0230419
0.0230551
0.0230667
0.0230779
0.0230893
0.0231009
0.0231128
0.0231254
0.023139
0.0231539
0.0231697
0.0231862
0.0232034
0.0232214
0.0232404
0.0232607
0.0232822
0.0233049
0.0233285
0.023353
0.0233784
0.0234049
0.023433
0.0234629
0.0234944
0.0235273
0.0235616
0.0235971
0.023634
0.023672
0.0237116
0.0237542
0.0237982
0.0238419
0.0238884
0.0239382
0.0239857
0.0240393
0.0240989
0.0241554
0.0242126
0.0242731
0.0243334
0.0243902
0.0244482
0.0245053
0.0245615
0.0246189
0.0246744
0.0247254
0.0247688
0.0247984
0.0248076
0.0247989
0.0247595
0.0246789
0.0245571
0.0243918
0.0241769
0.023903
0.0235566
0.0231203
0.0225808
0.0219399
0.021205
0.0203919
0.0195331
0.0186832
0.0179164
0.0173126
0.0168721
0.0164894
0.0161395
0.0158319
0.0155773
0.015378
0.015228
0.0151114
0.0150126
0.014927
0.0148554
0.0147985
0.014755
0.014722
0.0146961
0.0146746
0.0146568
0.0146426
0.0146315
0.0146232
0.0146167
0.0146115
0.0146073
0.0146039
0.0146014
0.0145995
0.0145981
0.014597
0.0145962
0.0145956
0.0145951
0.0145948
0.0145946
0.0145944
0.0145943
0.0145942
0.0145942
0.0145942
0.0145942
0.0145942
0.0145942
0.0145943
0.0145943
0.0145944
0.0145944
0.0145945
0.0145945
0.0145946
0.0145947
0.0145948
0.0145949
0.0145949
0.014595
0.0145951
0.0145952
0.0145953
0.0145954
0.0145956
0.0145957
0.0145958
0.0145959
0.0145961
0.0145962
0.0145964
0.0145965
0.0145967
0.0145969
0.0145971
0.0145973
0.0145975
0.0145977
0.0145975
0.026008
0.0260707
0.0261192
0.0261572
0.0261884
0.0262147
0.026237
0.0262557
0.0262706
0.0262808
0.0262868
0.0262894
0.0262905
0.026291
0.0239415
0.0238854
0.0238247
0.0237691
0.0237163
0.0236631
0.0236142
0.0235682
0.0235227
0.0234737
0.0234286
0.023388
0.0233501
0.0233118
0.0232723
0.0232353
0.0232017
0.0231699
0.0231386
0.0231088
0.0230815
0.0230561
0.0230323
0.0230102
0.0229898
0.0229711
0.0229545
0.0229395
0.0229265
0.0229169
0.0229095
0.0229035
0.0229027
0.0229046
0.022908
0.0229133
0.0229235
0.0229382
0.0229543
0.0229716
0.0229929
0.0230174
0.0230404
0.023061
0.0230803
0.0230975
0.0231145
0.023132
0.0231483
0.0231565
0.0231636
0.0231728
0.0231821
0.0231904
0.0231982
0.0232057
0.023213
0.0232206
0.0232288
0.0232378
0.0232478
0.0232588
0.0232706
0.0232832
0.0232968
0.0233115
0.0233274
0.0233446
0.0233632
0.0233833
0.0234047
0.0234275
0.0234521
0.0234785
0.0235068
0.0235369
0.0235689
0.0236028
0.0236385
0.0236758
0.0237147
0.0237564
0.0238007
0.0238448
0.0238905
0.0239405
0.0239906
0.0240418
0.0241
0.0241583
0.024217
0.0242828
0.0243493
0.0244087
0.0244775
0.0245558
0.0246274
0.0247018
0.0247844
0.0248657
0.024946
0.0250236
0.0250922
0.0251559
0.0252163
0.0252737
0.0253316
0.0253896
0.0254411
0.02548
0.0254967
0.0254914
0.0254561
0.025375
0.0252432
0.0250556
0.0248073
0.0244907
0.0240947
0.0236053
0.0230113
0.0223117
0.0215204
0.0206565
0.0197551
0.018871
0.018074
0.0174356
0.0169792
0.0165993
0.0162512
0.0159386
0.0156717
0.0154552
0.0152871
0.0151575
0.0150498
0.0149558
0.0148758
0.0148113
0.014762
0.0147253
0.0146972
0.0146745
0.014656
0.0146414
0.0146304
0.0146221
0.0146158
0.0146108
0.0146069
0.0146039
0.0146018
0.0146003
0.0145992
0.0145984
0.0145979
0.0145975
0.0145974
0.0145973
0.0145973
0.0145973
0.0145974
0.0145976
0.0145977
0.0145979
0.0145981
0.0145984
0.0145986
0.0145989
0.0145992
0.0145995
0.0145998
0.0146001
0.0146005
0.0146008
0.0146012
0.0146016
0.014602
0.0146025
0.0146029
0.0146034
0.0146039
0.0146044
0.0146049
0.0146055
0.0146061
0.0146068
0.0146075
0.0146082
0.014609
0.0146099
0.0146094
0.0264007
0.0264136
0.0264217
0.0264255
0.0264268
0.0264268
0.0264265
0.0264266
0.0264273
0.0264295
0.0264325
0.0264327
0.026431
0.0264275
0.0242389
0.0241831
0.0241184
0.0240591
0.0240039
0.0239513
0.0239017
0.0238544
0.0238061
0.0237524
0.0237049
0.023662
0.0236213
0.0235826
0.0235389
0.0234984
0.0234619
0.0234277
0.0233945
0.0233629
0.0233337
0.0233067
0.0232815
0.0232581
0.0232364
0.023216
0.0231983
0.0231824
0.0231672
0.0231552
0.0231472
0.0231391
0.0231329
0.0231335
0.0231353
0.0231371
0.0231423
0.0231532
0.0231652
0.0231769
0.0231914
0.0232109
0.0232298
0.0232446
0.0232579
0.0232701
0.0232843
0.0232981
0.0233101
0.0233127
0.0233163
0.0233214
0.0233262
0.0233302
0.0233336
0.0233363
0.0233392
0.0233421
0.0233453
0.0233491
0.0233537
0.0233593
0.0233658
0.0233733
0.0233819
0.0233916
0.0234028
0.0234153
0.0234295
0.0234454
0.023463
0.0234825
0.0235041
0.0235279
0.0235538
0.0235819
0.0236123
0.023645
0.0236799
0.0237168
0.0237558
0.0237978
0.0238414
0.0238856
0.023933
0.0239832
0.0240331
0.0240871
0.0241466
0.0242024
0.0242618
0.0243298
0.024393
0.0244575
0.0245333
0.024608
0.0246824
0.0247655
0.0248482
0.0249254
0.0250052
0.0250828
0.0251574
0.0252354
0.0253169
0.0253992
0.0254796
0.0255557
0.0256214
0.0256737
0.0257188
0.0257578
0.0257911
0.0258186
0.0258387
0.025848
0.0258472
0.0258356
0.0258009
0.0257321
0.0256199
0.025459
0.0252435
0.0249671
0.024625
0.0242123
0.023722
0.0231464
0.0224822
0.0217382
0.0209266
0.0200694
0.0192051
0.0183889
0.0176877
0.0171602
0.0167517
0.0163806
0.01604
0.0157428
0.0154988
0.0153095
0.0151662
0.0150505
0.0149514
0.0148684
0.014803
0.0147541
0.0147182
0.0146909
0.0146692
0.0146522
0.0146394
0.0146301
0.0146233
0.0146183
0.0146146
0.0146119
0.0146101
0.014609
0.0146086
0.0146085
0.0146085
0.0146088
0.0146093
0.0146098
0.0146105
0.0146113
0.0146121
0.014613
0.014614
0.0146151
0.0146162
0.0146174
0.0146187
0.0146201
0.0146215
0.014623
0.0146245
0.0146261
0.0146278
0.0146296
0.0146314
0.0146332
0.0146352
0.0146372
0.0146394
0.0146417
0.0146441
0.0146467
0.0146494
0.0146527
0.0146509
0.0265726
0.0265727
0.0265741
0.026575
0.0265735
0.02657
0.0265646
0.0265583
0.0265522
0.026548
0.0265456
0.0265433
0.0265403
0.0245466
0.0244917
0.0244256
0.024365
0.0243097
0.0242576
0.0242071
0.0241596
0.0241102
0.0240543
0.0240052
0.0239606
0.0239168
0.0238775
0.0238339
0.0237897
0.0237503
0.0237139
0.0236792
0.0236462
0.0236152
0.0235865
0.0235599
0.0235352
0.0235122
0.0234905
0.0234714
0.0234551
0.0234377
0.0234234
0.0234138
0.0234046
0.0233938
0.0233903
0.0233901
0.0233882
0.0233893
0.0233955
0.0234026
0.0234079
0.0234162
0.0234284
0.0234426
0.023451
0.0234567
0.0234639
0.0234727
0.0234816
0.023487
0.0234856
0.0234858
0.0234859
0.0234856
0.0234844
0.0234827
0.0234807
0.0234785
0.0234761
0.023474
0.0234722
0.0234712
0.0234714
0.0234722
0.0234742
0.0234773
0.0234819
0.0234879
0.0234955
0.0235049
0.0235162
0.0235296
0.0235451
0.0235631
0.0235835
0.0236064
0.023632
0.0236601
0.0236908
0.0237242
0.0237599
0.0237983
0.0238396
0.023882
0.0239265
0.0239748
0.0240238
0.0240738
0.02413
0.0241878
0.0242418
0.0243029
0.0243682
0.0244296
0.0244981
0.0245748
0.0246441
0.0247183
0.0248018
0.0248771
0.0249497
0.0250279
0.0251051
0.0251837
0.025266
0.0253471
0.0254258
0.0255007
0.0255682
0.0256287
0.0256852
0.02574
0.0257939
0.0258466
0.0258968
0.0259429
0.0259823
0.026009
0.0260246
0.0260292
0.0260248
0.02601
0.0259864
0.0259565
0.0259199
0.0258739
0.0258139
0.0257336
0.0256257
0.0254817
0.0252918
0.0250479
0.0247463
0.0243816
0.023944
0.0234213
0.0228021
0.0220851
0.0212786
0.0203991
0.0194833
0.0185929
0.0178096
0.0172112
0.0167651
0.0163694
0.0160112
0.0157039
0.0154569
0.0152694
0.0151284
0.0150141
0.0149186
0.0148423
0.0147853
0.0147447
0.0147156
0.0146937
0.0146772
0.0146652
0.0146573
0.0146524
0.0146498
0.0146487
0.0146486
0.0146492
0.0146505
0.0146525
0.0146548
0.0146576
0.0146606
0.0146639
0.0146674
0.0146712
0.0146753
0.0146797
0.0146844
0.0146894
0.0146946
0.0147001
0.0147059
0.0147118
0.0147179
0.0147242
0.0147308
0.0147376
0.0147447
0.0147522
0.01476
0.0147683
0.0147772
0.0147866
0.0147982
0.0147929
0.0267053
0.0266981
0.0266929
0.0266888
0.0266846
0.0266794
0.0266731
0.0266659
0.0266584
0.0266516
0.0266465
0.0266432
0.0266408
0.0247368
0.024678
0.0246234
0.0245714
0.0245206
0.0244726
0.0244228
0.0243683
0.0243189
0.0242731
0.0242279
0.0241851
0.0241439
0.0240988
0.0240574
0.0240195
0.0239834
0.023949
0.0239164
0.0238861
0.023858
0.023832
0.0238076
0.0237849
0.0237645
0.0237471
0.0237275
0.0237114
0.023699
0.0236893
0.0236752
0.023667
0.0236637
0.023657
0.0236542
0.0236558
0.0236579
0.0236566
0.0236584
0.0236629
0.0236704
0.0236739
0.0236726
0.0236741
0.0236761
0.0236783
0.0236771
0.0236731
0.0236684
0.0236631
0.0236574
0.0236509
0.0236439
0.0236366
0.023629
0.0236212
0.0236135
0.0236062
0.0235996
0.0235939
0.0235891
0.0235855
0.0235829
0.0235824
0.0235832
0.0235854
0.0235898
0.0235962
0.0236049
0.0236161
0.0236298
0.0236463
0.0236656
0.0236878
0.023713
0.0237411
0.0237722
0.023806
0.0238429
0.0238825
0.0239236
0.0239682
0.0240159
0.0240632
0.0241139
0.0241704
0.0242248
0.0242791
0.0243413
0.0244019
0.0244625
0.0245335
0.0246034
0.0246689
0.0247442
0.0248184
0.0248869
0.0249622
0.0250382
0.0251123
0.0251912
0.0252714
0.0253449
0.0254139
0.0254821
0.025548
0.0256101
0.025669
0.0257258
0.0257805
0.0258331
0.0258825
0.0259266
0.0259624
0.0259866
0.0260013
0.0260108
0.026019
0.0260284
0.0260361
0.0260395
0.026039
0.0260361
0.0260285
0.026014
0.0259919
0.0259631
0.0259289
0.0258907
0.0258479
0.025798
0.025736
0.0256547
0.0255449
0.025395
0.0251921
0.0249241
0.0245787
0.0241394
0.0235934
0.0229336
0.0221601
0.0212867
0.0203377
0.0193609
0.018431
0.0176403
0.0170605
0.0166095
0.01621
0.0158622
0.0155793
0.0153646
0.0152088
0.015091
0.0149959
0.0149212
0.0148667
0.0148303
0.014808
0.0147951
0.0147884
0.0147864
0.0147874
0.0147909
0.0147968
0.0148046
0.0148138
0.0148241
0.0148354
0.0148477
0.0148611
0.0148755
0.0148911
0.0149078
0.0149259
0.0149451
0.0149653
0.0149862
0.0150077
0.0150297
0.0150523
0.0150755
0.0150993
0.0151238
0.0151491
0.0151752
0.0152027
0.0152314
0.0152679
0.0152552
0.0268026
0.0267946
0.0267886
0.0267842
0.0267806
0.0267768
0.0267727
0.0267681
0.0267632
0.0267588
0.0267554
0.0267531
0.0250472
0.0249908
0.0249368
0.0248848
0.0248341
0.0247849
0.0247358
0.0246851
0.0246363
0.0245901
0.0245447
0.0244999
0.0244576
0.0244146
0.0243727
0.0243339
0.0242971
0.0242616
0.0242278
0.0241959
0.0241663
0.0241388
0.0241132
0.0240894
0.0240677
0.0240482
0.0240276
0.0240094
0.0239944
0.0239824
0.0239662
0.0239544
0.0239478
0.0239363
0.0239282
0.0239244
0.0239226
0.0239151
0.0239107
0.0239074
0.0239074
0.0239066
0.0239001
0.0238949
0.0238901
0.0238853
0.0238783
0.0238697
0.0238601
0.0238497
0.0238384
0.0238265
0.0238142
0.0238014
0.0237884
0.0237752
0.0237621
0.0237493
0.0237371
0.0237257
0.0237154
0.0237062
0.0236982
0.0236919
0.0236872
0.0236842
0.0236839
0.0236852
0.0236889
0.0236952
0.0237042
0.0237162
0.0237313
0.0237495
0.0237709
0.0237957
0.0238236
0.0238547
0.0238892
0.0239261
0.0239655
0.024009
0.0240544
0.0241002
0.024151
0.0242046
0.0242557
0.0243117
0.0243717
0.0244264
0.0244866
0.0245554
0.0246197
0.0246853
0.0247541
0.0248193
0.0248894
0.0249648
0.0250346
0.0251052
0.0251809
0.025253
0.0253199
0.0253855
0.0254501
0.0255125
0.0255728
0.0256308
0.0256858
0.025737
0.0257839
0.0258269
0.0258639
0.0258935
0.0259177
0.0259378
0.0259554
0.0259713
0.025984
0.0259925
0.0259955
0.0259946
0.0259904
0.0259806
0.0259657
0.0259483
0.025932
0.0259216
0.0259198
0.025921
0.0259246
0.0259296
0.0259341
0.0259357
0.0259331
0.0259226
0.0259002
0.0258623
0.0258033
0.0257173
0.0255965
0.0254301
0.0252055
0.0249105
0.0245318
0.024052
0.0234495
0.0227034
0.0218275
0.0208553
0.0198326
0.0188327
0.0179508
0.0172751
0.0167985
0.0164018
0.0160618
0.0157877
0.0155834
0.0154432
0.0153536
0.0152967
0.0152614
0.0152446
0.0152428
0.0152494
0.0152653
0.0152884
0.0153165
0.0153483
0.0153832
0.0154209
0.0154617
0.0155058
0.0155535
0.0156051
0.0156606
0.0157197
0.0157815
0.0158446
0.0159086
0.0159736
0.0160397
0.0161067
0.0161749
0.0162446
0.0163153
0.0163892
0.0164626
0.0165592
0.0165466
0.026912
0.0269059
0.0269005
0.0268963
0.0268932
0.0268907
0.0268883
0.0268858
0.0268831
0.0268801
0.0253501
0.0252966
0.0252433
0.0251918
0.0251418
0.0250928
0.0250445
0.0249963
0.0249491
0.0249033
0.0248584
0.0248139
0.0247707
0.0247284
0.0246872
0.0246483
0.024611
0.024575
0.0245404
0.0245073
0.0244764
0.0244476
0.0244206
0.0243955
0.0243723
0.0243505
0.0243291
0.024309
0.0242919
0.024276
0.0242585
0.0242436
0.024233
0.0242179
0.0242051
0.0241961
0.0241889
0.0241766
0.0241665
0.0241571
0.0241502
0.0241424
0.0241315
0.0241203
0.0241098
0.0240986
0.0240858
0.024072
0.0240573
0.0240417
0.0240251
0.024008
0.0239903
0.0239723
0.0239539
0.0239354
0.023917
0.023899
0.0238814
0.0238647
0.0238489
0.0238343
0.023821
0.0238092
0.0237991
0.0237909