/*--------------------------------*- C++ -*----------------------------------*\
| =========                 |                                                 |
| \\      /  F ield         | OpenFOAM: The Open Source CFD Toolbox           |
|  \\    /   O peration     | Version:  v1706                                 |
|   \\  /    A nd           | Web:      www.OpenFOAM.com                      |
|    \\/     M anipulation  |                                                 |
\*---------------------------------------------------------------------------*/
FoamFile
{
    version     2.0;
    format      ascii;
    class       volScalarField;
    location    "4e-05";
    object      Mach;
}
// * * * * * * * * * * * * * * * * * * * * * * * * * * * * * * * * * * * * * //

dimensions      [0 0 0 0 0 0 0];


internalField   nonuniform List<scalar> 
30104
(
3.99442
3.99433
3.99423
3.99412
3.99399
3.99384
3.99367
3.99348
3.99325
3.99299
3.99269
3.99236
3.99197
3.99153
3.99102
3.99045
3.9898
3.31768
3.32829
3.33898
3.34974
3.36056
3.37144
3.38237
3.39335
3.40438
3.41545
3.42656
3.43773
3.44894
3.4602
3.47151
3.48289
3.49431
3.50578
3.5173
3.52885
3.54042
3.55201
3.5636
3.5752
3.58677
3.59832
3.60984
3.62138
3.63184
3.6395
3.64566
3.6514
3.65723
3.66337
3.66988
3.67678
3.6841
3.69183
3.69998
3.70856
3.71756
3.72699
3.73682
3.74702
3.75756
3.7684
3.77951
3.79088
3.80252
3.81443
3.82658
3.83906
3.8517
3.86418
3.87684
3.88928
3.89994
3.90878
3.91675
3.92433
3.9317
3.93888
3.94583
3.95247
3.9586
3.96393
3.96834
3.97191
3.97494
3.97766
3.98014
3.9824
3.98443
3.98621
3.98777
3.98909
3.99017
3.99103
3.99175
3.99235
3.99285
3.99325
3.99356
3.9938
3.99399
3.99416
3.99431
3.99443
3.99453
3.99462
3.99469
3.99475
3.9948
3.99483
3.99486
3.99489
3.9949
3.99492
3.99493
3.99493
3.99494
3.99495
3.99495
3.99496
3.99496
3.99497
3.99497
3.99497
3.99497
3.99497
3.99497
3.99498
3.99498
3.99498
3.99498
3.99498
3.99498
3.99498
3.99498
3.99498
3.99498
3.99498
3.99498
3.99498
3.99498
3.99498
3.99498
3.99498
3.99498
3.99498
3.99498
3.99498
3.99498
3.99498
3.99498
3.99498
3.99498
3.99498
3.99498
3.99498
3.99498
3.99498
3.99498
3.99498
3.99498
3.99498
3.99498
3.99498
3.99498
3.99498
3.99498
3.99498
3.99498
3.99498
3.99498
3.99498
3.99498
3.99498
3.99498
3.99498
3.99498
3.99498
3.99498
3.99498
3.99498
3.99498
3.99498
3.99498
3.99498
3.99498
3.99498
3.99498
3.99498
3.99498
3.99498
3.99498
3.99498
3.99498
3.99498
3.99498
3.99498
3.99498
3.99498
3.99498
3.99498
3.99498
3.99498
3.99498
3.99498
3.99498
3.99498
3.99498
3.99498
3.99144
3.99089
3.99027
3.98955
3.98873
3.98779
3.98671
3.98547
3.98405
3.98243
3.98057
3.97843
3.97597
3.97315
3.96993
3.96626
3.96211
2.62757
2.63045
2.6334
2.63643
2.63955
2.64275
2.64604
2.6494
2.65285
2.65637
2.65996
2.66363
2.66738
2.67122
2.67514
2.67917
2.68329
2.68754
2.69191
2.69641
2.70105
2.70584
2.7108
2.71593
2.72125
2.72675
2.73241
2.73837
2.74481
2.75207
2.7602
2.76919
2.77907
2.7899
2.80172
2.81459
2.82857
2.84374
2.86019
2.87799
2.89721
2.9179
2.94006
2.96374
2.98898
3.01582
3.04438
3.07485
3.10743
3.14235
3.17982
3.22
3.26292
3.30844
3.35615
3.40422
3.44685
3.48229
3.51535
3.5486
3.58291
3.61842
3.65489
3.69175
3.72836
3.76401
3.79684
3.82441
3.8469
3.86624
3.8837
3.89981
3.91456
3.92766
3.9388
3.94792
3.95531
3.96147
3.9668
3.97148
3.97557
3.97911
3.98212
3.98458
3.98653
3.98808
3.98934
3.99039
3.99126
3.99195
3.9925
3.99293
3.99329
3.99358
3.99383
3.99404
3.99421
3.99436
3.99448
3.99457
3.99465
3.99471
3.99476
3.99481
3.99484
3.99486
3.99489
3.9949
3.99492
3.99493
3.99494
3.99495
3.99495
3.99496
3.99496
3.99497
3.99497
3.99497
3.99497
3.99497
3.99497
3.99498
3.99498
3.99498
3.99498
3.99498
3.99498
3.99498
3.99498
3.99498
3.99498
3.99498
3.99498
3.99498
3.99498
3.99498
3.99498
3.99498
3.99498
3.99498
3.99498
3.99498
3.99498
3.99498
3.99498
3.99498
3.99498
3.99498
3.99498
3.99498
3.99498
3.99498
3.99498
3.99498
3.99498
3.99498
3.99498
3.99498
3.99498
3.99498
3.99498
3.99498
3.99498
3.99498
3.99498
3.99498
3.99498
3.99498
3.99498
3.99498
3.99498
3.99498
3.99498
3.99498
3.99498
3.99498
3.99498
3.99498
3.99498
3.99498
3.99498
3.99498
3.99498
3.99498
3.99498
3.99498
3.99498
3.99498
3.99498
3.99498
3.99498
3.99498
3.99498
3.98205
3.98008
3.97782
3.97522
3.97223
3.96879
3.96486
3.96036
3.95524
3.94942
3.94278
3.93521
3.92657
3.91674
3.90558
3.89296
2.57304
2.57507
2.57709
2.57911
2.58113
2.58316
2.58517
2.58716
2.58908
2.59093
2.59266
2.59427
2.59574
2.59706
2.59823
2.59927
2.60018
2.601
2.60173
2.60241
2.60305
2.60367
2.60427
2.60487
2.60548
2.60611
2.60673
2.60734
2.60805
2.60905
2.61038
2.61199
2.61379
2.61573
2.61789
2.62036
2.62323
2.62659
2.63048
2.63493
2.63993
2.6454
2.65128
2.65752
2.66408
2.67093
2.6781
2.68572
2.69402
2.70323
2.71361
2.7254
2.73886
2.7542
2.77173
2.7921
2.81669
2.84631
2.88076
2.92012
2.96473
3.01499
3.07124
3.1336
3.20166
3.27392
3.34706
3.41445
3.46955
3.51898
3.56695
3.61472
3.662
3.70797
3.75142
3.78992
3.82139
3.84686
3.8687
3.88822
3.90578
3.92115
3.93406
3.94453
3.95292
3.95978
3.96557
3.97056
3.97487
3.97855
3.98164
3.98416
3.98615
3.98772
3.98899
3.99005
3.99093
3.99166
3.99224
3.9927
3.99309
3.99341
3.99368
3.9939
3.9941
3.99426
3.9944
3.99452
3.99461
3.99469
3.99475
3.9948
3.99484
3.99487
3.99489
3.99491
3.99492
3.99493
3.99494
3.99495
3.99496
3.99496
3.99497
3.99497
3.99497
3.99497
3.99497
3.99497
3.99497
3.99498
3.99498
3.99498
3.99498
3.99498
3.99498
3.99498
3.99498
3.99498
3.99498
3.99498
3.99498
3.99498
3.99498
3.99498
3.99498
3.99498
3.99498
3.99498
3.99498
3.99498
3.99498
3.99498
3.99498
3.99498
3.99498
3.99498
3.99498
3.99498
3.99498
3.99498
3.99498
3.99498
3.99498
3.99498
3.99498
3.99498
3.99498
3.99498
3.99498
3.99498
3.99498
3.99498
3.99498
3.99498
3.99498
3.99498
3.99498
3.99498
3.99498
3.99498
3.99498
3.99498
3.99498
3.99498
3.99498
3.99498
3.99498
3.99498
3.99498
3.99498
3.99498
3.99498
3.99498
3.9521
3.94566
3.93832
3.92993
3.92035
3.90944
3.89704
3.883
3.86717
3.84928
3.82904
3.80615
3.78038
3.75165
3.71995
3.68535
2.56629
2.5696
2.57275
2.57576
2.57863
2.58139
2.58402
2.58655
2.58898
2.5913
2.59352
2.59563
2.59763
2.59951
2.60125
2.60285
2.60431
2.60563
2.60681
2.60784
2.60874
2.60948
2.61005
2.61045
2.61074
2.61091
2.611
2.61098
2.61094
2.611
2.61128
2.61184
2.61266
2.61368
2.61482
2.61598
2.6171
2.61824
2.61945
2.62079
2.62224
2.62379
2.62544
2.62722
2.62918
2.63136
2.63371
2.63629
2.63914
2.64219
2.64539
2.64885
2.65278
2.65733
2.66255
2.66836
2.67483
2.68185
2.68925
2.69724
2.70628
2.71685
2.72924
2.74373
2.7607
2.78089
2.8054
2.83612
2.8748
2.92112
2.97508
3.03709
3.10719
3.18454
3.26685
3.3495
3.42409
3.48465
3.53928
3.59214
3.64401
3.69423
3.74149
3.7834
3.81759
3.84455
3.8671
3.887
3.90473
3.9201
3.93294
3.94335
3.95174
3.95855
3.96422
3.96909
3.97335
3.97705
3.98021
3.98286
3.98502
3.98675
3.98815
3.9893
3.99028
3.99112
3.99181
3.99239
3.99286
3.99326
3.99359
3.99386
3.99408
3.99427
3.99443
3.99455
3.99465
3.99473
3.99478
3.99482
3.99486
3.99488
3.9949
3.99492
3.99493
3.99494
3.99495
3.99496
3.99496
3.99496
3.99497
3.99497
3.99497
3.99497
3.99497
3.99497
3.99498
3.99498
3.99498
3.99498
3.99498
3.99498
3.99498
3.99498
3.99498
3.99498
3.99498
3.99498
3.99498
3.99498
3.99498
3.99498
3.99498
3.99498
3.99498
3.99498
3.99498
3.99498
3.99498
3.99498
3.99498
3.99498
3.99498
3.99498
3.99498
3.99498
3.99498
3.99498
3.99498
3.99498
3.99498
3.99498
3.99498
3.99498
3.99498
3.99498
3.99498
3.99498
3.99498
3.99498
3.99498
3.99498
3.99498
3.99498
3.99498
3.99498
3.99498
3.99498
3.99498
3.99498
3.99498
3.99498
3.99498
3.86195
3.84302
3.82161
3.7974
3.77013
3.73967
3.706
3.66915
3.62905
3.58549
3.53778
3.48533
3.42809
3.36658
3.30171
2.5577
2.56167
2.56549
2.56916
2.57268
2.57606
2.57929
2.5824
2.58539
2.58827
2.59105
2.59373
2.59631
2.59879
2.60116
2.60341
2.60554
2.60756
2.60946
2.61125
2.61296
2.61456
2.61605
2.61745
2.61875
2.62003
2.62131
2.62266
2.62407
2.6254
2.62659
2.62767
2.62866
2.62953
2.63022
2.63072
2.63109
2.63138
2.6317
2.63213
2.63273
2.63348
2.63431
2.6352
2.6362
2.63735
2.63862
2.64001
2.64163
2.64352
2.64564
2.64789
2.65008
2.65228
2.65475
2.65754
2.66046
2.6635
2.6667
2.6698
2.67255
2.67538
2.67853
2.68176
2.68503
2.68861
2.69256
2.69694
2.70195
2.70788
2.71545
2.72547
2.73862
2.75551
2.77697
2.80422
2.83926
2.88369
2.93707
2.99944
3.07088
3.15058
3.23619
3.32323
3.40439
3.47026
3.52668
3.58018
3.63239
3.68277
3.73012
3.77259
3.80798
3.83579
3.85811
3.87752
3.89496
3.91045
3.92379
3.93502
3.94437
3.95218
3.95867
3.96411
3.96886
3.97312
3.97691
3.98023
3.98306
3.98542
3.98732
3.98883
3.99004
3.99103
3.99183
3.99248
3.993
3.99342
3.99375
3.99401
3.99422
3.99439
3.99452
3.99463
3.99471
3.99477
3.99481
3.99485
3.99487
3.99489
3.99491
3.99493
3.99494
3.99495
3.99495
3.99496
3.99496
3.99497
3.99497
3.99497
3.99497
3.99497
3.99497
3.99497
3.99498
3.99498
3.99498
3.99498
3.99498
3.99498
3.99498
3.99498
3.99498
3.99498
3.99498
3.99498
3.99498
3.99498
3.99498
3.99498
3.99498
3.99498
3.99498
3.99498
3.99498
3.99498
3.99498
3.99498
3.99498
3.99498
3.99497
3.99497
3.99497
3.99497
3.99497
3.99497
3.99497
3.99497
3.99497
3.99497
3.99497
3.99497
3.99497
3.99497
3.99497
3.99497
3.99497
3.99497
3.99497
3.99497
3.99497
3.99497
3.99497
3.66525
3.62377
3.57871
3.52959
3.47585
3.41733
3.35442
3.28794
3.21893
3.14838
3.07585
3.00004
2.9205
2.83877
2.75692
2.67703
2.54885
2.55387
2.55872
2.56338
2.56784
2.57209
2.57614
2.58001
2.5837
2.5872
2.59054
2.59373
2.59678
2.5997
2.60249
2.60515
2.60765
2.61001
2.61221
2.61425
2.61612
2.61787
2.61952
2.62108
2.62252
2.62384
2.62508
2.62625
2.62739
2.62855
2.62982
2.63114
2.63248
2.63377
2.63492
2.63596
2.6369
2.63778
2.63865
2.6396
2.64071
2.64198
2.64323
2.64446
2.64572
2.64702
2.64835
2.65008
2.65183
2.65346
2.65525
2.65748
2.65943
2.66072
2.66233
2.6646
2.66659
2.66818
2.67027
2.67205
2.67371
2.67379
2.67502
2.67609
2.67718
2.67756
2.67844
2.67941
2.68011
2.68049
2.68062
2.68068
2.68105
2.68203
2.68363
2.68591
2.68921
2.69364
2.69948
2.70741
2.71825
2.73281
2.75204
2.77709
2.8096
2.85149
2.90263
2.96259
3.03112
3.10733
3.18931
3.27377
3.35579
3.42832
3.48556
3.53641
3.58579
3.63427
3.68109
3.72517
3.76514
3.79961
3.82799
3.85101
3.87067
3.8886
3.90501
3.91964
3.93236
3.94325
3.95249
3.96016
3.96646
3.97177
3.97636
3.9803
3.98355
3.98613
3.98809
3.98957
3.99071
3.99161
3.99231
3.99288
3.99332
3.99366
3.99393
3.99415
3.99433
3.99448
3.99459
3.99468
3.99474
3.99479
3.99483
3.99486
3.99489
3.99491
3.99492
3.99493
3.99494
3.99495
3.99496
3.99496
3.99497
3.99497
3.99497
3.99497
3.99497
3.99497
3.99497
3.99497
3.99497
3.99497
3.99497
3.99497
3.99497
3.99497
3.99497
3.99497
3.99497
3.99497
3.99497
3.99497
3.99497
3.99497
3.99497
3.99497
3.99497
3.99497
3.99497
3.99497
3.99497
3.99497
3.99497
3.99497
3.99496
3.99496
3.99496
3.99496
3.99496
3.99496
3.99496
3.99496
3.99496
3.99496
3.99496
3.99496
3.99496
3.99496
3.99495
3.99495
3.99495
3.22409
3.15214
3.07828
3.00183
2.92205
2.84001
2.75757
2.67676
2.5994
2.52693
2.4605
2.40144
2.35
2.53287
2.53901
2.54504
2.5509
2.55645
2.56171
2.56674
2.57153
2.57608
2.58039
2.58448
2.58837
2.59209
2.59565
2.59907
2.60234
2.60544
2.60838
2.61117
2.61379
2.61623
2.61849
2.62058
2.62251
2.62429
2.62591
2.62737
2.62869
2.62993
2.6311
2.63222
2.63342
2.63466
2.63587
2.63698
2.63797
2.63883
2.63959
2.64024
2.64084
2.64151
2.64234
2.64336
2.64449
2.64573
2.64706
2.64835
2.65033
2.65263
2.65436
2.65646
2.65917
2.6616
2.66339
2.66593
2.66859
2.67099
2.67319
2.67502
2.67655
2.67784
2.67882
2.67942
2.6798
2.68006
2.6802
2.68024
2.68011
2.67971
2.67898
2.67796
2.67681
2.67572
2.67472
2.67332
2.67188
2.6707
2.66927
2.66746
2.66546
2.66377
2.66266
2.66214
2.66241
2.66348
2.66531
2.66824
2.67276
2.67962
2.68985
2.70436
2.724
2.74996
2.78358
2.82536
2.8742
2.92989
2.99265
3.06232
3.13788
3.21723
3.29714
3.37326
3.43975
3.49357
3.54445
3.59607
3.64794
3.69865
3.74648
3.78941
3.82571
3.85495
3.87874
3.89937
3.91742
3.93274
3.94539
3.95558
3.96357
3.96985
3.97499
3.9793
3.98281
3.98557
3.98764
3.98919
3.99038
3.99131
3.99206
3.99266
3.99314
3.99352
3.99383
3.99407
3.99427
3.99443
3.99456
3.99466
3.99473
3.99479
3.99483
3.99486
3.99488
3.9949
3.99492
3.99493
3.99494
3.99494
3.99495
3.99495
3.99495
3.99496
3.99496
3.99496
3.99496
3.99496
3.99496
3.99495
3.99495
3.99495
3.99495
3.99495
3.99495
3.99495
3.99495
3.99495
3.99495
3.99494
3.99494
3.99494
3.99494
3.99494
3.99494
3.99493
3.99493
3.99493
3.99493
3.99493
3.99493
3.99492
3.99492
3.99492
3.99491
3.99491
3.99491
3.99491
3.9949
3.9949
3.99489
3.99489
3.99489
3.99489
2.6189
2.5437
2.47415
2.41157
2.35664
2.30914
2.26856
2.23425
2.20549
2.18152
2.16164
2.1453
2.13197
2.51006
2.51702
2.52423
2.5316
2.53831
2.54461
2.55078
2.55664
2.56213
2.56737
2.5724
2.57713
2.58159
2.58591
2.59009
2.59407
2.59782
2.60138
2.60479
2.60805
2.61113
2.61402
2.61672
2.61924
2.62158
2.62375
2.62574
2.62755
2.62919
2.63073
2.63212
2.63339
2.63469
2.63594
2.63707
2.63804
2.63882
2.63945
2.63995
2.64037
2.64072
2.64121
2.642
2.64307
2.64431
2.64557
2.64708
2.64958
2.65171
2.65327
2.65558
2.65831
2.66062
2.66265
2.66522
2.66766
2.66992
2.67202
2.67388
2.67547
2.67693
2.67817
2.67913
2.67991
2.68058
2.68114
2.68158
2.68176
2.68157
2.68101
2.68013
2.67901
2.67768
2.67616
2.67438
2.67236
2.67
2.66727
2.66428
2.66126
2.65839
2.65541
2.65229
2.64879
2.64486
2.641
2.63621
2.63171
2.62735
2.62315
2.61962
2.61652
2.61373
2.61151
2.60966
2.60895
2.61069
2.61553
2.62397
2.63648
2.65354
2.67582
2.7043
2.74007
2.78388
2.83607
2.89775
2.96968
3.05179
3.14279
3.23969
3.33725
3.42716
3.50026
3.56568
3.63023
3.69293
3.75057
3.79991
3.83905
3.86876
3.89234
3.91223
3.92889
3.94247
3.95327
3.96165
3.96816
3.97345
3.97789
3.98159
3.98456
3.98685
3.98859
3.98993
3.99097
3.99182
3.99249
3.99303
3.99346
3.99379
3.99405
3.99426
3.99443
3.99456
3.99465
3.99472
3.99477
3.99481
3.99484
3.99486
3.99487
3.99488
3.99489
3.99489
3.9949
3.9949
3.9949
3.9949
3.99489
3.99489
3.99489
3.99489
3.99488
3.99488
3.99487
3.99487
3.99486
3.99486
3.99485
3.99485
3.99484
3.99484
3.99483
3.99482
3.99482
3.99481
3.9948
3.99479
3.99478
3.99478
3.99477
3.99476
3.99475
3.99474
3.99472
3.99471
3.9947
3.99469
3.99467
3.99466
3.99464
3.99465
2.24141
2.2089
2.18178
2.1593
2.14081
2.12571
2.11345
2.10355
2.0956
2.08929
2.08431
2.08026
2.07683
2.07388
2.48138
2.48891
2.49729
2.50608
2.51385
2.52096
2.52841
2.53555
2.54183
2.54786
2.55407
2.55993
2.56513
2.5702
2.57525
2.58012
2.58462
2.58884
2.59289
2.59682
2.60055
2.60406
2.60737
2.6105
2.61346
2.61625
2.61887
2.62133
2.62358
2.62565
2.62759
2.62934
2.63097
2.63249
2.63387
2.63514
2.63614
2.6368
2.63732
2.6378
2.63817
2.63841
2.63899
2.64003
2.64125
2.64254
2.64462
2.6469
2.64883
2.65032
2.65291
2.65559
2.65788
2.66018
2.66267
2.66503
2.66721
2.6692
2.67102
2.67275
2.67426
2.67551
2.67655
2.67745
2.67821
2.67884
2.67926
2.67947
2.67945
2.67917
2.67861
2.6778
2.67679
2.67561
2.67421
2.67256
2.67065
2.66832
2.66561
2.66265
2.65949
2.65619
2.65264
2.64833
2.64364
2.63907
2.63408
2.62817
2.62302
2.6173
2.61113
2.60518
2.59803
2.59046
2.58364
2.57668
2.56956
2.56312
2.55703
2.55148
2.54674
2.54297
2.54062
2.54013
2.54142
2.54544
2.55307
2.56471
2.58097
2.60263
2.63084
2.66719
2.71371
2.77228
2.84357
2.92861
3.02761
3.13829
3.25495
3.36813
3.4646
3.54028
3.60989
3.6765
3.7374
3.78935
3.83048
3.86149
3.88559
3.90586
3.92309
3.93742
3.94907
3.95834
3.96562
3.97147
3.97638
3.98051
3.98385
3.98644
3.98838
3.98982
3.99093
3.99181
3.99251
3.99305
3.99347
3.99379
3.99404
3.99424
3.99438
3.99449
3.99457
3.99461
3.99464
3.99466
3.99468
3.99468
3.99468
3.99468
3.99467
3.99466
3.99465
3.99464
3.99462
3.99461
3.99459
3.99458
3.99456
3.99454
3.99452
3.9945
3.99447
3.99445
3.99443
3.9944
3.99437
3.99435
3.99432
3.99429
3.99426
3.99422
3.99419
3.99415
3.99411
3.99407
3.99402
3.99397
3.99392
3.99387
3.99381
3.99375
3.99378
2.08733
2.07975
2.07378
2.06908
2.06523
2.06197
2.05924
2.05698
2.05517
2.05393
2.05337
2.05301
2.05273
2.05235
2.44908
2.45688
2.46614
2.47596
2.48448
2.4927
2.50111
2.50905
2.51605
2.52288
2.5303
2.53698
2.54338
2.54892
2.55461
2.56056
2.56615
2.57112
2.57575
2.58039
2.58485
2.58896
2.59285
2.59657
2.60011
2.6035
2.60671
2.60975
2.61269
2.61545
2.6179
2.62026
2.62259
2.62459
2.62633
2.62798
2.62978
2.63074
2.63143
2.63203
2.63297
2.63338
2.63378
2.63479
2.63604
2.63753
2.64005
2.64189
2.64375
2.64522
2.6481
2.65079
2.65321
2.65569
2.65816
2.66051
2.66266
2.66475
2.66673
2.66851
2.67005
2.6714
2.67262
2.67373
2.67471
2.67553
2.67617
2.67662
2.67684
2.67678
2.67644
2.67582
2.67495
2.67382
2.67246
2.67082
2.66883
2.66651
2.66396
2.66119
2.65828
2.65527
2.65197
2.64831
2.64443
2.64001
2.63546
2.63092
2.62558
2.61899
2.61294
2.60709
2.59902
2.59095
2.58438
2.57747
2.56913
2.56234
2.55509
2.5472
2.54018
2.53336
2.52675
2.52128
2.5164
2.51235
2.50965
2.5082
2.50778
2.50878
2.51149
2.51538
2.52072
2.52856
2.53969
2.55506
2.57563
2.60255
2.63747
2.68259
2.74018
2.81172
2.89748
2.99755
3.10955
3.22763
3.34264
3.44267
3.51983
3.58816
3.65383
3.71529
3.76959
3.8145
3.84944
3.87631
3.89847
3.91748
3.93348
3.94656
3.95694
3.96498
3.97128
3.97647
3.98075
3.98415
3.98672
3.98861
3.98998
3.99102
3.99182
3.99244
3.9929
3.99324
3.99348
3.99366
3.99378
3.99385
3.99389
3.9939
3.99389
3.99388
3.99385
3.99381
3.99376
3.99371
3.99366
3.9936
3.99353
3.99346
3.99339
3.99331
3.99322
3.99313
3.99304
3.99294
3.99284
3.99274
3.99263
3.99251
3.99239
3.99227
3.99214
3.992
3.99186
3.99171
3.99155
3.99138
3.9912
3.991
3.9908
3.99057
3.9907
2.0421
2.04047
2.03954
2.03911
2.03881
2.03849
2.03813
2.03783
2.03733
2.03706
2.03667
2.03653
2.03676
2.03719
2.41513
2.42365
2.43273
2.44312
2.45246
2.46167
2.47058
2.47923
2.48643
2.494
2.50241
2.50985
2.51694
2.52354
2.52938
2.53631
2.54264
2.54856
2.55406
2.55938
2.56445
2.56921
2.57374
2.57816
2.58223
2.58619
2.59001
2.59348
2.59689
2.60047
2.60348
2.60618
2.60917
2.61211
2.61421
2.61624
2.61886
2.62063
2.62157
2.6226
2.62411
2.62531
2.62568
2.62664
2.62808
2.63014
2.63262
2.63438
2.6362
2.63782
2.64095
2.64372
2.64635
2.64896
2.65146
2.65386
2.65623
2.65845
2.6605
2.66237
2.66408
2.66567
2.66716
2.66857
2.66986
2.67101
2.672
2.67279
2.67334
2.67361
2.67358
2.67325
2.67263
2.67174
2.67056
2.66904
2.66714
2.66491
2.66241
2.65971
2.65683
2.65367
2.65023
2.64675
2.64292
2.6385
2.63415
2.62998
2.62514
2.61942
2.61428
2.60834
2.60175
2.596
2.58907
2.58145
2.57491
2.56838
2.56021
2.55243
2.54577
2.53856
2.53218
2.52652
2.52127
2.51682
2.51319
2.51
2.5066
2.50383
2.50212
2.50099
2.50075
2.50155
2.5029
2.50455
2.50646
2.50897
2.51268
2.518
2.52547
2.5358
2.55011
2.56955
2.5951
2.62803
2.67011
2.72334
2.78938
2.86852
2.96115
3.06617
3.17974
3.29501
3.40207
3.48916
3.56131
3.6303
3.69641
3.75619
3.80636
3.84545
3.87492
3.89852
3.91843
3.93497
3.9483
3.95866
3.96654
3.97267
3.97762
3.98157
3.98454
3.98666
3.98813
3.98916
3.9899
3.99042
3.99076
3.99095
3.99103
3.99104
3.99099
3.9909
3.99078
3.99062
3.99044
3.99023
3.99001
3.98977
3.98952
3.98925
3.98896
3.98865
3.98832
3.98798
3.98762
3.98725
3.98686
3.98646
3.98605
3.98561
3.98516
3.98468
3.98417
3.98363
3.98306
3.98245
3.9818
3.98111
3.98038
3.97951
3.97988
2.02277
2.02245
2.02227
2.02206
2.02211
2.02259
2.02305
2.02365
2.02427
2.02471
2.02469
2.02462
2.02475
2.38145
2.39034
2.39926
2.40981
2.41959
2.42915
2.43815
2.44755
2.45515
2.46317
2.47198
2.47985
2.48734
2.49551
2.50159
2.50873
2.51569
2.52219
2.52848
2.53451
2.54022
2.54562
2.55076
2.55575
2.5605
2.56511
2.56957
2.57361
2.57723
2.58146
2.58517
2.58803
2.5914
2.59517
2.59787
2.60033
2.60358
2.60614
2.6075
2.60918
2.61163
2.61322
2.61429
2.61509
2.61693
2.61968
2.62184
2.62401
2.6259
2.62822
2.63135
2.63422
2.63701
2.63974
2.64246
2.64505
2.64753
2.64988
2.6521
2.6542
2.65619
2.65808
2.65993
2.6617
2.66338
2.66494
2.66634
2.66755
2.66851
2.6692
2.66959
2.66967
2.66946
2.66894
2.66807
2.66681
2.66517
2.66319
2.66088
2.65833
2.65556
2.65244
2.64909
2.64562
2.64177
2.63755
2.63342
2.62913
2.6243
2.61965
2.61478
2.60877
2.60334
2.59821
2.5916
2.5839
2.57791
2.57158
2.56353
2.55755
2.55181
2.54568
2.54
2.53448
2.5293
2.52455
2.51975
2.51525
2.51169
2.50886
2.50635
2.50423
2.50283
2.50222
2.50211
2.50225
2.50193
2.50223
2.50279
2.50284
2.50296
2.50345
2.50425
2.50536
2.50701
2.50953
2.51345
2.51942
2.52825
2.54102
2.55877
2.58221
2.61234
2.65068
2.69929
2.76038
2.83529
2.92495
3.02957
3.14644
3.26885
3.38567
3.48278
3.56073
3.63386
3.70317
3.76482
3.81535
3.85377
3.88248
3.90549
3.92446
3.93968
3.95141
3.9601
3.9665
3.97138
3.9751
3.97776
3.97949
3.98049
3.98097
3.98112
3.98102
3.98077
3.98036
3.97983
3.9792
3.97848
3.97768
3.97682
3.97588
3.97488
3.9738
3.97265
3.97142
3.97012
3.96874
3.96731
3.96583
3.96429
3.96271
3.96107
3.95938
3.95762
3.95578
3.95387
3.95186
3.94974
3.94747
3.94513
3.94222
3.9433
2.00872
2.00948
2.00988
2.00996
2.01013
2.01046
2.01093
2.01149
2.01206
2.01254
2.01289
2.01304
2.01307
2.36701
2.37741
2.38714
2.39667
2.40576
2.4152
2.42323
2.43175
2.44066
2.44884
2.4567
2.46495
2.47263
2.47942
2.48678
2.49365
2.50035
2.50689
2.51317
2.51914
2.52485
2.53036
2.53566
2.54083
2.54584
2.55051
2.5545
2.55936
2.56363
2.5671
2.5704
2.57468
2.57809
2.58083
2.58471
2.58777
2.58968
2.59184
2.59508
2.5973
2.59952
2.60063
2.60266
2.60571
2.60798
2.61063
2.61299
2.61599
2.61905
2.62208
2.62513
2.62808
2.63096
2.63374
2.6364
2.63898
2.64147
2.64388
2.64623
2.64852
2.65076
2.65296
2.65509
2.65708
2.65895
2.66065
2.6621
2.66328
2.66418
2.66478
2.66506
2.66501
2.66457
2.66372
2.66248
2.66087
2.6589
2.65665
2.65413
2.65124
2.64811
2.64475
2.64105
2.63722
2.6333
2.62898
2.62449
2.62039
2.61576
2.61018
2.60502
2.59957
2.59269
2.58734
2.58212
2.57474
2.56877
2.5633
2.55719
2.55144
2.54603
2.53995
2.5332
2.52792
2.52359
2.51965
2.51613
2.51301
2.51028
2.50788
2.50572
2.50405
2.50288
2.50214
2.50157
2.50114
2.501
2.50092
2.50073
2.50045
2.50023
2.49991
2.49991
2.50012
2.50039
2.50071
2.50119
2.50197
2.50316
2.50496
2.50762
2.51156
2.51729
2.52544
2.53691
2.55285
2.57451
2.60335
2.64151
2.69122
2.75475
2.83385
2.92929
3.04095
3.16523
3.2938
3.41342
3.50909
3.58905
3.66383
3.73183
3.78877
3.83232
3.86376
3.88727
3.9059
3.92035
3.93092
3.9381
3.94254
3.94501
3.94625
3.94639
3.94581
3.94466
3.94298
3.9409
3.9385
3.93585
3.93296
3.92984
3.92649
3.92287
3.91899
3.91484
3.91044
3.90582
3.901
3.89604
3.89095
3.88569
3.88027
3.87464
3.8688
3.8627
3.85633
3.84969
3.84264
3.83547
3.82647
3.82837
1.99738
1.99797
1.99838
1.99861
1.99877
1.99897
1.99923
1.99954
1.9999
2.00023
2.00044
2.0005
2.33679
2.3466
2.35607
2.36531
2.37431
2.38321
2.39198
2.40078
2.40955
2.41789
2.42599
2.434
2.44214
2.44958
2.45702
2.46416
2.47106
2.47785
2.48447
2.49086
2.49701
2.50296
2.50867
2.51418
2.51958
2.52476
2.52946
2.53452
2.53932
2.54343
2.54723
2.55181
2.5557
2.55846
2.56288
2.56646
2.56907
2.57145
2.57521
2.57813
2.58127
2.58325
2.58561
2.58878
2.59157
2.59453
2.59758
2.60082
2.60412
2.60739
2.61063
2.61382
2.61694
2.61995
2.62289
2.62577
2.6286
2.63139
2.63414
2.63687
2.63956
2.64223
2.64483
2.64734
2.64973
2.65195
2.65391
2.65566
2.65714
2.65832
2.65917
2.65967
2.65977
2.65946
2.65874
2.65764
2.65615
2.65434
2.65219
2.64969
2.64692
2.64382
2.64041
2.637
2.63334
2.62914
2.62505
2.62103
2.61636
2.61143
2.60672
2.60139
2.59604
2.59115
2.58506
2.57914
2.574
2.56825
2.56132
2.55565
2.54986
2.54362
2.53824
2.53335
2.52871
2.52432
2.52007
2.51612
2.51267
2.50982
2.50754
2.50545
2.50361
2.50205
2.50082
2.50006
2.49946
2.49894
2.4986
2.49827
2.49785
2.49747
2.49746
2.49742
2.49748
2.49777
2.49829
2.49885
2.49925
2.49973
2.50032
2.5011
2.50217
2.50354
2.50517
2.50707
2.50931
2.51207
2.51583
2.52133
2.52948
2.54124
2.55783
2.58058
2.61116
2.65205
2.70664
2.7787
2.86906
2.97722
3.10079
3.23247
3.35969
3.46654
3.54795
3.61966
3.68374
3.73678
3.77646
3.80313
3.81969
3.82982
3.83556
3.83783
3.83685
3.83404
3.82943
3.8234
3.8163
3.80834
3.79963
3.79024
3.78015
3.76932
3.75766
3.74513
3.73173
3.71766
3.70319
3.68856
3.67383
3.65897
3.64399
3.62885
3.61357
3.59805
3.58241
3.5661
3.55051
3.5302
3.53087
1.985
1.98546
1.98585
1.9861
1.98622
1.98627
1.98631
1.98637
1.98649
1.98663
2.3081
2.31735
2.32654
2.33557
2.34434
2.35298
2.36171
2.37046
2.37907
2.38741
2.39552
2.40354
2.41162
2.41948
2.42708
2.4344
2.44145
2.44836
2.45512
2.46172
2.46817
2.4744
2.48039
2.48617
2.49181
2.49736
2.50259
2.50767
2.51283
2.51746
2.52202
2.52672
2.53104
2.53438
2.5388
2.54295
2.54617
2.5492
2.5531
2.55649
2.56008
2.56314
2.56624
2.56952
2.57289
2.57617
2.57958
2.58308
2.58662
2.59015
2.59367
2.59714
2.60053
2.60385
2.60713
2.61037
2.61359
2.61679
2.61998
2.62317
2.62635
2.6295
2.63262
2.63565
2.63858
2.64135
2.64392
2.64627
2.64831
2.65012
2.6516
2.65273
2.65346
2.65379
2.6537
2.65321
2.65233
2.65107
2.64943
2.64744
2.64514
2.64244
2.6395
2.63646
2.633
2.62916
2.62545
2.62144
2.61703
2.61306
2.60883
2.60374
2.59889
2.59398
2.58843
2.5833
2.57797
2.57135
2.56561
2.56034
2.55453
2.5486
2.54349
2.53839
2.53322
2.52834
2.52383
2.51969
2.516
2.51278
2.50997
2.50752
2.50538
2.50341
2.50174
2.50032
2.49902
2.49785
2.49688
2.49621
2.49585
2.49577
2.49586
2.49601
2.49623
2.49632
2.4963
2.49625
2.49634
2.49656
2.49687
2.49721
2.49769
2.49844
2.49947
2.50081
2.50242
2.5042
2.50564
2.50665
2.50784
2.50942
2.51132
2.51373
2.51692
2.52139
2.52796
2.53762
2.55167
2.57157
2.59877
2.6353
2.68398
2.74803
2.8301
2.92927
3.04138
3.15942
3.27288
3.3694
3.43872
3.48356
3.51552
3.53632
3.54768
3.54926
3.54464
3.53591
3.52347
3.50857
3.49187
3.47385
3.45472
3.43448
3.41302
3.39012
3.36552
3.33906
3.31106
3.28328
3.2561
3.22976
3.20399
3.17912
3.15495
3.13145
3.10936
3.08653
3.0676
3.04332
3.03628
1.97216
1.97237
1.97253
1.97261
1.97261
1.97254
1.97246
1.97239
1.97234
2.28951
2.29835
2.30722
2.31579
2.32422
2.33267
2.34113
2.34951
2.35771
2.36575
2.37373
2.38173
2.38965
2.39733
2.40473
2.41188
2.41885
2.42565
2.43238
2.43896
2.44534
2.45151
2.45749
2.46333
2.46904
2.47452
2.47982
2.485
2.49012
2.49502
2.49999
2.50459
2.50884
2.5132
2.51765
2.52157
2.52536
2.52927
2.5332
2.53705
2.5408
2.54451
2.54822
2.55189
2.55555
2.55929
2.56307
2.56688
2.5707
2.57451
2.57827
2.58199
2.58566
2.58931
2.59294
2.59657
2.60021
2.60386
2.60752
2.61119
2.61484
2.61847
2.62204
2.62551
2.62885
2.63201
2.63497
2.63768
2.64012
2.6422
2.64401
2.64544
2.64647
2.64709
2.64731
2.64712
2.64651
2.64549
2.64412
2.64236
2.64019
2.63776
2.63505
2.63198
2.62881
2.62551
2.62166
2.6179
2.61435
2.61006
2.6052
2.60095
2.59633
2.59114
2.5859
2.58033
2.57488
2.56967
2.56416
2.55831
2.55284
2.54758
2.54222
2.53698
2.53206
2.52751
2.52327
2.51938
2.51587
2.51278
2.51005
2.50758
2.50536
2.50341
2.50171
2.50026
2.49908
2.4982
2.49758
2.49724
2.4971
2.49704
2.49701
2.49694
2.49679
2.49661
2.49643
2.4963
2.49631
2.49651
2.49685
2.49729
2.49784
2.49843
2.49899
2.49945
2.49969
2.49996
2.50043
2.50106
2.50183
2.50275
2.5043
2.50636
2.5088
2.51133
2.51303
2.51437
2.51617
2.51882
2.52262
2.52827
2.53676
2.54931
2.56728
2.59192
2.62451
2.66647
2.71904
2.78066
2.84719
2.91247
2.97013
3.01421
3.0419
3.0563
3.05763
3.05058
3.03995
3.02557
3.00951
2.99307
2.97707
2.96187
2.94808
2.93559
2.92469
2.91461
2.90547
2.89671
2.88871
2.88141
2.87444
2.86859
2.86258
2.85782
2.85289
2.84893
2.84427
2.84637
1.95819
1.9582
2.26273
2.27116
2.27985
2.28824
2.29645
2.30461
2.31278
2.32087
2.32887
2.33677
2.34465
2.35251
2.36031
2.36793
2.37532
2.3825
2.38947
2.39633
2.40308
2.40969
2.41613
2.42239
2.42849
2.43446
2.44027
2.44589
2.45134
2.45669
2.46196
2.46711
2.47215
2.47709
2.48184
2.48653
2.49109
2.49555
2.49985
2.50412
2.50833
2.51251
2.51669
2.52083
2.52491
2.52894
2.53296
2.53702
2.5411
2.54521
2.54932
2.55343
2.55751
2.56156
2.5656
2.56963
2.57367
2.57772
2.5818
2.5859
2.59003
2.59418
2.59833
2.60246
2.60654
2.61055
2.61444
2.61819
2.62175
2.62509
2.62818
2.63097
2.63344
2.63553
2.63731
2.63868
2.63965
2.6402
2.64031
2.64
2.63927
2.6381
2.63655
2.63469
2.63246
2.63
2.62753
2.62451
2.62108
2.61783
2.61414
2.60985
2.60603
2.60191
2.59716
2.5924
2.58758
2.58247
2.57738
2.57218
2.56671
2.56124
2.55592
2.55056
2.54529
2.5402
2.53534
2.53078
2.52649
2.52248
2.51886
2.51564
2.51274
2.51012
2.50779
2.50577
2.50404
2.5026
2.50145
2.50054
2.49991
2.49954
2.49933
2.49923
2.49919
2.49914
2.4991
2.49906
2.49906
2.49913
2.4993
2.49953
2.49976
2.50003
2.50037
2.50076
2.50114
2.50152
2.50189
2.50231
2.50281
2.50338
2.504
2.5047
2.50539
2.50593
2.50619
2.5063
2.50673
2.50762
2.50883
2.51072
2.51327
2.51606
2.51912
2.5216
2.52342
2.52618
2.5306
2.5373
2.54709
2.56086
2.57949
2.60313
2.63139
2.66318
2.69668
2.729
2.75713
2.78019
2.79756
2.8094
2.81693
2.82158
2.82336
2.82404
2.82401
2.82317
2.82161
2.81979
2.81781
2.81603
2.81431
2.81285
2.81146
2.81032
2.80934
2.80863
2.80798
2.80786
2.80713
2.80835
2.23646
2.2446
2.25303
2.26125
2.26923
2.27715
2.28505
2.29289
2.30066
2.30839
2.31609
2.32378
2.33138
2.33887
2.34614
2.35327
2.36025
2.36709
2.3738
2.38039
2.38683
2.39312
2.39927
2.40529
2.41116
2.41686
2.42242
2.4279
2.43327
2.43854
2.44373
2.44885
2.45386
2.45877
2.4636
2.46836
2.473
2.47756
2.48207
2.48657
2.49107
2.49553
2.49994
2.5043
2.50866
2.51303
2.51741
2.52181
2.52622
2.53063
2.53503
2.53943
2.54383
2.54824
2.55268
2.55715
2.56166
2.56621
2.57079
2.5754
2.58002
2.58463
2.58921
2.59373
2.59815
2.60245
2.60659
2.61054
2.61426
2.61771
2.62086
2.62369
2.62615
2.62824
2.62998
2.63128
2.63214
2.63254
2.63246
2.63197
2.63112
2.62999
2.62846
2.62663
2.62444
2.6218
2.61912
2.61612
2.61257
2.60909
2.60549
2.60128
2.59689
2.59251
2.58791
2.58315
2.57829
2.57328
2.56817
2.56309
2.5579
2.55272
2.54772
2.54281
2.53803
2.53355
2.52931
2.52531
2.5217
2.5185
2.51563
2.51305
2.51078
2.50882
2.50716
2.50574
2.50455
2.50368
2.50311
2.5028
2.50269
2.50272
2.50281
2.50291
2.50299
2.50307
2.5032
2.50337
2.50352
2.50366
2.50384
2.50411
2.50451
2.50503
2.50563
2.50629
2.50699
2.50771
2.50844
2.50914
2.50978
2.51034
2.51079
2.51118
2.5116
2.51217
2.51301
2.51407
2.51528
2.51654
2.51771
2.51868
2.51944
2.52036
2.52189
2.52406
2.52671
2.52933
2.53185
2.53476
2.5392
2.54564
2.55451
2.56625
2.58141
2.60029
2.62298
2.64875
2.67617
2.7032
2.72782
2.74839
2.76436
2.77615
2.78426
2.78958
2.79284
2.79491
2.79618
2.7968
2.79705
2.79712
2.79705
2.79695
2.79684
2.79682
2.79673
2.79694
2.79675
2.79712
2.21017
2.21817