/*--------------------------------*- C++ -*----------------------------------*\
| =========                 |                                                 |
| \\      /  F ield         | OpenFOAM: The Open Source CFD Toolbox           |
|  \\    /   O peration     | Version:  v1706                                 |
|   \\  /    A nd           | Web:      www.OpenFOAM.com                      |
|    \\/     M anipulation  |                                                 |
\*---------------------------------------------------------------------------*/
FoamFile
{
    version     2.0;
    format      ascii;
    class       volScalarField;
    location    "4e-05";
    object      Tv;
}
// * * * * * * * * * * * * * * * * * * * * * * * * * * * * * * * * * * * * * //

dimensions      [0 0 0 1 0 0 0];


internalField   nonuniform List<scalar> 
30104
(
144.4
144.4
144.4
144.4
144.4
144.4
144.4
144.4
144.4
144.4
144.4
144.4
144.4
144.4
144.4
144.4
144.4
144.4
144.4
144.4
144.4
144.4
144.4
144.4
144.4
144.4
144.4
144.4
144.4
144.4
144.4
144.4
144.4
144.4
144.4
144.4
144.4
144.4
144.4
144.4
144.4
144.4
144.4
144.4
144.4
144.4
144.4
144.4
144.4
144.4
144.4
144.4
144.4
144.4
144.4
144.4
144.4
144.4
144.4
144.4
144.4
144.4
144.4
144.4
144.4
144.4
144.4
144.4
144.4
144.4
144.4
144.4
144.4
144.4
144.4
144.4
144.4
144.4
144.4
144.4
144.4
144.4
144.4
144.4
144.4
144.4
144.4
144.4
144.4
144.4
144.4
144.4
144.4
144.4
144.4
144.4
144.4
144.4
144.4
144.4
144.4
144.4
144.4
144.4
144.4
144.4
144.4
144.4
144.4
144.4
144.4
144.4
144.4
144.4
144.4
144.4
144.4
144.4
144.4
144.4
144.4
144.4
144.4
144.4
144.4
144.4
144.4
144.4
144.4
144.4
144.4
144.4
144.4
144.4
144.4
144.4
144.4
144.4
144.4
144.4
144.4
144.4
144.4
144.4
144.4
144.4
144.4
144.4
144.4
144.4
144.4
144.4
144.4
144.4
144.4
144.4
144.4
144.4
144.4
144.4
144.4
144.4
144.4
144.4
144.4
144.4
144.4
144.4
144.4
144.4
144.4
144.4
144.4
144.4
144.4
144.4
144.4
144.4
144.4
144.4
144.4
144.4
144.4
144.4
144.4
144.4
144.4
144.4
144.4
144.4
144.4
144.4
144.4
144.4
144.4
144.4
144.4
144.4
144.4
144.4
144.4
144.4
144.4
144.4
144.4
144.4
144.4
144.4
144.4
144.4
144.4
144.4
144.4
144.4
144.4
144.4
144.4
144.4
144.4
144.4
144.4
144.4
144.4
144.4
144.4
144.4
144.4
144.4
144.4
144.4
144.4
144.4
144.4
144.4
144.4
144.4
144.4
144.4
144.4
144.4
144.4
144.4
144.4
144.4
144.4
144.4
144.4
144.4
144.4
144.4
144.4
144.4
144.4
144.4
144.4
144.4
144.4
144.4
144.4
144.4
144.4
144.4
144.4
144.4
144.4
144.4
144.4
144.4
144.4
144.4
144.4
144.4
144.4
144.4
144.4
144.4
144.4
144.4
144.4
144.4
144.4
144.4
144.4
144.4
144.4
144.4
144.4
144.4
144.4
144.4
144.4
144.4
144.4
144.4
144.4
144.4
144.4
144.4
144.4
144.4
144.4
144.4
144.4
144.4
144.4
144.4
144.4
144.4
144.4
144.4
144.4
144.4
144.4
144.4
144.4
144.4
144.4
144.4
144.4
144.4
144.4
144.4
144.4
144.4
144.4
144.4
144.4
144.4
144.4
144.4
144.4
144.4
144.4
144.4
144.4
144.4
144.4
144.4
144.4
144.4
144.4
144.4
144.4
144.4
144.4
144.4
144.4
144.4
144.4
144.4
144.4
144.4
144.4
144.4
144.4
144.4
144.4
144.4
144.4
144.4
144.4
144.4
144.4
144.4
144.4
144.4
144.4
144.4
144.4
144.4
144.4
144.4
144.4
144.4
144.4
144.4
144.4
144.4
144.4
144.4
144.4
144.4
144.4
144.4
144.4
144.4
144.4
144.4
144.4
144.4
144.4
144.4
144.4
144.4
144.4
144.4
144.4
144.4
144.4
144.4
144.4
144.4
144.4
144.4
144.4
144.4
144.4
144.4
144.4
144.4
144.4
144.4
144.4
144.4
144.4
144.4
144.4
144.4
144.4
144.4
144.4
144.4
144.4
144.4
144.4
144.4
144.4
144.4
144.4
144.4
144.4
144.4
144.4
144.4
144.4
144.4
144.401
144.401
144.401
144.401
144.401
144.401
144.401
144.401
144.401
144.401
144.401
144.4
144.4
144.4
144.4
144.4
144.4
144.4
144.4
144.4
144.4
144.4
144.4
144.4
144.4
144.4
144.4
144.4
144.4
144.4
144.4
144.4
144.4
144.4
144.4
144.4
144.4
144.4
144.4
144.4
144.4
144.4
144.4
144.4
144.4
144.4
144.4
144.4
144.4
144.4
144.4
144.4
144.4
144.4
144.4
144.4
144.4
144.4
144.4
144.4
144.4
144.4
144.4
144.4
144.4
144.4
144.4
144.4
144.4
144.4
144.4
144.4
144.4
144.4
144.4
144.4
144.4
144.4
144.4
144.4
144.4
144.4
144.4
144.4
144.4
144.4
144.4
144.4
144.4
144.4
144.4
144.4
144.4
144.4
144.4
144.4
144.4
144.4
144.4
144.4
144.4
144.4
144.4
144.4
144.4
144.4
144.4
144.4
144.4
144.4
144.4
144.4
144.4
144.4
144.4
144.4
144.4
144.4
144.4
144.4
144.4
144.4
144.4
144.4
144.4
144.4
144.4
144.4
144.4
144.4
144.4
144.4
144.4
144.4
144.4
144.4
144.4
144.4
144.4
144.4
144.4
144.4
144.4
144.4
144.4
144.4
144.4
144.4
144.4
144.4
144.4
144.4
144.4
144.4
144.4
144.4
144.4
144.4
144.4
144.4
144.4
144.4
144.4
144.4
144.4
144.4
144.4
144.4
144.4
144.4
144.4
144.4
144.4
144.4
144.4
144.4
144.4
144.4
144.4
144.4
144.4
144.4
144.4
144.4
144.4
144.4
144.4
144.4
144.4
144.4
144.4
144.4
144.4
144.4
144.4
144.4
144.4
144.4
144.4
144.4
144.4
144.4
144.4
144.4
144.4
144.4
144.4
144.4
144.4
144.404
144.403
144.403
144.403
144.403
144.403
144.402
144.402
144.402
144.402
144.402
144.402
144.402
144.401
144.401
144.401
144.401
144.401
144.401
144.401
144.401
144.401
144.401
144.401
144.401
144.4
144.4
144.4
144.4
144.4
144.4
144.4
144.4
144.4
144.4
144.4
144.4
144.4
144.4
144.4
144.4
144.4
144.4
144.4
144.4
144.4
144.4
144.4
144.4
144.4
144.4
144.4
144.4
144.4
144.4
144.4
144.4
144.4
144.4
144.4
144.4
144.4
144.4
144.4
144.4
144.4
144.4
144.4
144.4
144.4
144.4
144.4
144.4
144.4
144.4
144.4
144.4
144.4
144.4
144.4
144.4
144.4
144.4
144.4
144.4
144.4
144.4
144.4
144.4
144.4
144.4
144.4
144.4
144.4
144.4
144.4
144.4
144.4
144.4
144.4
144.4
144.4
144.4
144.4
144.4
144.4
144.4
144.4
144.4
144.4
144.4
144.4
144.4
144.4
144.4
144.4
144.4
144.4
144.4
144.4
144.4
144.4
144.4
144.4
144.4
144.4
144.4
144.4
144.4
144.4
144.4
144.4
144.4
144.4
144.4
144.4
144.4
144.4
144.4
144.4
144.4
144.4
144.4
144.4
144.4
144.4
144.4
144.4
144.4
144.4
144.4
144.4
144.4
144.4
144.4
144.4
144.4
144.4
144.4
144.4
144.4
144.4
144.4
144.4
144.4
144.4
144.4
144.4
144.4
144.4
144.4
144.4
144.4
144.4
144.4
144.4
144.4
144.4
144.4
144.4
144.4
144.4
144.4
144.4
144.4
144.4
144.4
144.4
144.4
144.4
144.4
144.4
144.4
144.4
144.4
144.4
144.4
144.4
144.4
144.4
144.4
144.4
144.4
144.4
144.4
144.4
144.4
144.4
144.412
144.411
144.41
144.41
144.409
144.409
144.408
144.407
144.407
144.406
144.406
144.405
144.405
144.405
144.404
144.404
144.404
144.403
144.403
144.403
144.402
144.402
144.402
144.402
144.402
144.402
144.401
144.401
144.401
144.401
144.401
144.401
144.401
144.401
144.401
144.401
144.4
144.4
144.4
144.4
144.4
144.4
144.4
144.4
144.4
144.4
144.4
144.4
144.4
144.4
144.4
144.4
144.4
144.4
144.4
144.4
144.4
144.4
144.4
144.4
144.4
144.4
144.4
144.4
144.4
144.4
144.4
144.4
144.4
144.4
144.4
144.4
144.4
144.4
144.4
144.4
144.4
144.4
144.4
144.4
144.4
144.4
144.4
144.4
144.4
144.4
144.4
144.4
144.4
144.4
144.4
144.4
144.4
144.4
144.4
144.4
144.4
144.4
144.4
144.4
144.4
144.4
144.4
144.4
144.4
144.4
144.4
144.4
144.4
144.4
144.4
144.4
144.4
144.4
144.4
144.4
144.4
144.4
144.4
144.4
144.4
144.4
144.4
144.4
144.4
144.4
144.4
144.4
144.4
144.4
144.4
144.4
144.4
144.4
144.4
144.4
144.4
144.4
144.4
144.4
144.4
144.4
144.4
144.4
144.4
144.4
144.4
144.4
144.4
144.4
144.4
144.4
144.4
144.4
144.4
144.4
144.4
144.4
144.4
144.4
144.4
144.4
144.4
144.4
144.4
144.4
144.4
144.4
144.4
144.4
144.4
144.4
144.4
144.4
144.4
144.4
144.4
144.4
144.4
144.4
144.4
144.4
144.4
144.4
144.4
144.4
144.4
144.4
144.4
144.4
144.4
144.4
144.4
144.4
144.4
144.4
144.4
144.4
144.4
144.4
144.4
144.4
144.4
144.4
144.4
144.4
144.4
144.4
144.4
144.436
144.434
144.432
144.43
144.428
144.426
144.424
144.423
144.421
144.419
144.418
144.417
144.415
144.414
144.413
144.412
144.411
144.41
144.409
144.408
144.408
144.407
144.406
144.406
144.405
144.405
144.404
144.404
144.404
144.403
144.403
144.403
144.402
144.402
144.402
144.402
144.402
144.401
144.401
144.401
144.401
144.401
144.401
144.401
144.401
144.4
144.4
144.4
144.4
144.4
144.4
144.4
144.4
144.4
144.4
144.4
144.4
144.4
144.4
144.4
144.4
144.4
144.4
144.4
144.4
144.4
144.4
144.4
144.4
144.4
144.4
144.4
144.4
144.4
144.4
144.4
144.4
144.4
144.4
144.4
144.4
144.4
144.4
144.4
144.4
144.4
144.4
144.4
144.4
144.4
144.4
144.4
144.4
144.4
144.4
144.4
144.4
144.4
144.4
144.4
144.4
144.4
144.4
144.4
144.4
144.4
144.4
144.4
144.4
144.4
144.4
144.4
144.4
144.4
144.4
144.4
144.4
144.4
144.4
144.4
144.4
144.4
144.4
144.4
144.4
144.4
144.4
144.4
144.4
144.4
144.4
144.4
144.4
144.4
144.4
144.4
144.4
144.4
144.4
144.4
144.4
144.4
144.4
144.4
144.4
144.4
144.4
144.4
144.4
144.4
144.4
144.4
144.4
144.4
144.4
144.4
144.4
144.4
144.4
144.4
144.4
144.4
144.4
144.4
144.4
144.4
144.4
144.4
144.4
144.4
144.4
144.4
144.4
144.4
144.4
144.4
144.4
144.4
144.4
144.4
144.4
144.4
144.4
144.4
144.4
144.4
144.4
144.4
144.4
144.4
144.4
144.4
144.4
144.4
144.4
144.4
144.4
144.4
144.4
144.4
144.4
144.4
144.4
144.4
144.4
144.4
144.503
144.497
144.491
144.486
144.48
144.475
144.47
144.465
144.46
144.456
144.452
144.448
144.445
144.441
144.438
144.435
144.432
144.429
144.427
144.425
144.423
144.421
144.419
144.417
144.416
144.414
144.413
144.412
144.411
144.41
144.409
144.408
144.407
144.406
144.406
144.405
144.405
144.404
144.404
144.403
144.403
144.403
144.402
144.402
144.402
144.401
144.401
144.401
144.401
144.401
144.401
144.401
144.4
144.4
144.4
144.4
144.4
144.4
144.4
144.4
144.4
144.4
144.4
144.4
144.4
144.4
144.4
144.4
144.4
144.4
144.4
144.4
144.4
144.4
144.4
144.4
144.4
144.4
144.4
144.4
144.4
144.4
144.4
144.4
144.4
144.4
144.4
144.4
144.4
144.4
144.4
144.4
144.4
144.4
144.4
144.4
144.4
144.4
144.4
144.4
144.4
144.4
144.4
144.4
144.4
144.4
144.4
144.4
144.4
144.4
144.4
144.4
144.4
144.4
144.4
144.4
144.4
144.4
144.4
144.4
144.4
144.4
144.4
144.4
144.4
144.4
144.4
144.4
144.4
144.4
144.4
144.4
144.4
144.4
144.4
144.4
144.4
144.4
144.4
144.4
144.4
144.4
144.4
144.4
144.4
144.4
144.4
144.4
144.4
144.4
144.4
144.4
144.4
144.4
144.4
144.4
144.4
144.4
144.4
144.4
144.4
144.4
144.4
144.4
144.4
144.4
144.4
144.4
144.4
144.4
144.4
144.4
144.4
144.4
144.4
144.4
144.4
144.4
144.4
144.4
144.4
144.4
144.4
144.4
144.4
144.4
144.4
144.4
144.4
144.4
144.4
144.4
144.4
144.4
144.4
144.4
144.4
144.401
144.401
144.401
144.401
144.401
144.401
144.401
144.401
144.401
144.677
144.661
144.646
144.631
144.617
144.603
144.59
144.577
144.565
144.553
144.542
144.532
144.522
144.513
144.504
144.496
144.488
144.481
144.475
144.469
144.463
144.458
144.453
144.448
144.444
144.44
144.436
144.433
144.43
144.427
144.425
144.423
144.421
144.419
144.417
144.415
144.414
144.412
144.411
144.41
144.409
144.408
144.407
144.406
144.405
144.404
144.404
144.403
144.403
144.402
144.402
144.402
144.401
144.401
144.401
144.401
144.401
144.4
144.4
144.4
144.4
144.4
144.4
144.4
144.4
144.4
144.4
144.4
144.4
144.4
144.4
144.4
144.4
144.4
144.4
144.4
144.4
144.4
144.4
144.4
144.4
144.4
144.4
144.4
144.4
144.4
144.4
144.4
144.4
144.4
144.4
144.4
144.4
144.4
144.4
144.4
144.4
144.4
144.4
144.4
144.4
144.4
144.4
144.4
144.4
144.4
144.4
144.4
144.4
144.4
144.4
144.4
144.4
144.4
144.4
144.4
144.4
144.4
144.4
144.4
144.4
144.4
144.4
144.4
144.4
144.4
144.4
144.4
144.4
144.4
144.4
144.4
144.4
144.4
144.4
144.4
144.4
144.4
144.4
144.4
144.4
144.4
144.4
144.4
144.4
144.4
144.4
144.4
144.4
144.4
144.4
144.4
144.4
144.4
144.4
144.4
144.4
144.4
144.4
144.4
144.4
144.4
144.4
144.4
144.4
144.4
144.4
144.4
144.4
144.4
144.4
144.4
144.4
144.4
144.4
144.4
144.4
144.4
144.4
144.4
144.4
144.4
144.4
144.4
144.4
144.4
144.4
144.4
144.4
144.4
144.4
144.4
144.4
144.401
144.401
144.401
144.401
144.401
144.402
144.402
144.402
144.402
144.402
144.403
144.403
144.403
144.403
145.092
145.055
145.018
144.982
144.947
144.914
144.881
144.85
144.82
144.792
144.764
144.739
144.714
144.691
144.67
144.649
144.63
144.612
144.596
144.58
144.565
144.552
144.539
144.527
144.517
144.507
144.497
144.489
144.481
144.474
144.467
144.461
144.456
144.451
144.446
144.441
144.437
144.434
144.43
144.427
144.424
144.421
144.419
144.417
144.414
144.413
144.411
144.409
144.408
144.407
144.406
144.405
144.404
144.403
144.403
144.402
144.402
144.401
144.401
144.401
144.401
144.401
144.4
144.4
144.4
144.4
144.4
144.4
144.4
144.4
144.4
144.4
144.4
144.4
144.4
144.4
144.4
144.4
144.4
144.4
144.4
144.4
144.4
144.4
144.4
144.4
144.4
144.4
144.4
144.4
144.4
144.4
144.4
144.4
144.4
144.4
144.4
144.4
144.4
144.4
144.4
144.4
144.4
144.4
144.4
144.4
144.4
144.4
144.4
144.4
144.4
144.4
144.4
144.4
144.4
144.4
144.4
144.4
144.4
144.4
144.4
144.4
144.4
144.4
144.4
144.4
144.4
144.4
144.4
144.4
144.4
144.4
144.4
144.4
144.4
144.4
144.4
144.4
144.4
144.4
144.4
144.4
144.4
144.4
144.4
144.4
144.4
144.4
144.4
144.4
144.4
144.4
144.4
144.4
144.4
144.4
144.4
144.4
144.4
144.4
144.4
144.4
144.4
144.4
144.4
144.4
144.4
144.4
144.4
144.4
144.4
144.4
144.4
144.4
144.4
144.4
144.4
144.4
144.4
144.4
144.4
144.4
144.4
144.4
144.4
144.4
144.4
144.4
144.4
144.4
144.4
144.4
144.4
144.403
144.403
144.403
144.404
144.404
144.404
144.405
144.405
144.406
144.406
144.407
144.408
144.408
144.409
145.975
145.896
145.819
145.742
145.668
145.595
145.524
145.456
145.39
145.327
145.266
145.208
145.153
145.101
145.051
145.004
144.96
144.918
144.879
144.842
144.808
144.775
144.745
144.717
144.691
144.667
144.645
144.624
144.605
144.588
144.572
144.557
144.543
144.53
144.518
144.507
144.497
144.487
144.479
144.47
144.463
144.456
144.45
144.444
144.438
144.433
144.429
144.425
144.422
144.418
144.416
144.413
144.411
144.409
144.408
144.406
144.405
144.404
144.403
144.403
144.402
144.402
144.401
144.401
144.401
144.401
144.4
144.4
144.4
144.4
144.4
144.4
144.4
144.4
144.4
144.4
144.4
144.4
144.4
144.4
144.4
144.4
144.4
144.4
144.4
144.4
144.4
144.4
144.4
144.4
144.4
144.4
144.4
144.4
144.4
144.4
144.4
144.4
144.4
144.4
144.4
144.4
144.4
144.4
144.4
144.4
144.4
144.4
144.4
144.4
144.4
144.4
144.4
144.4
144.4
144.4
144.4
144.4
144.4
144.4
144.4
144.4
144.4
144.4
144.4
144.4
144.4
144.4
144.4
144.4
144.4
144.4
144.4
144.4
144.4
144.4
144.4
144.4
144.4
144.4
144.4
144.4
144.4
144.4
144.4
144.4
144.4
144.4
144.4
144.4
144.4
144.4
144.4
144.4
144.4
144.4
144.4
144.4
144.4
144.4
144.4
144.4
144.4
144.4
144.4
144.4
144.4
144.4
144.4
144.4
144.4
144.4
144.4
144.4
144.4
144.4
144.4
144.4
144.4
144.4
144.4
144.4
144.4
144.4
144.4
144.4
144.4
144.4
144.4
144.4
144.4
144.4
144.4
144.407
144.408
144.409
144.41
144.41
144.411
144.412
144.414
144.415
144.416
144.418
144.419
144.421
144.423
147.592
147.452
147.313
147.174
147.037
146.902
146.77
146.64
146.514
146.391
146.272
146.158
146.048
145.943
145.842
145.746
145.654
145.567
145.484
145.406
145.332
145.262
145.197
145.136
145.079
145.025
144.975
144.929
144.886
144.846
144.809
144.774
144.742
144.713
144.685
144.659
144.635
144.613
144.592
144.573
144.555
144.538
144.522
144.508
144.495
144.483
144.473
144.463
144.454
144.447
144.44
144.434
144.429
144.424
144.42
144.417
144.414
144.411
144.409
144.407
144.406
144.405
144.404
144.403
144.402
144.402
144.401
144.401
144.401
144.401
144.4
144.4
144.4
144.4
144.4
144.4
144.4
144.4
144.4
144.4
144.4
144.4
144.4
144.4
144.4
144.4
144.4
144.4
144.4
144.4
144.4
144.4
144.4
144.4
144.4
144.4
144.4
144.4
144.4
144.4
144.4
144.4
144.4
144.4
144.4
144.4
144.4
144.4
144.4
144.4
144.4
144.4
144.4
144.4
144.4
144.4
144.4
144.4
144.4
144.4
144.4
144.4
144.4
144.4
144.4
144.4
144.4
144.4
144.4
144.4
144.4
144.4
144.4
144.4
144.4
144.4
144.4
144.4
144.4
144.4
144.4
144.4
144.4
144.4
144.4
144.4
144.4
144.4
144.4
144.4
144.4
144.4
144.4
144.4
144.4
144.4
144.4
144.4
144.4
144.4
144.4
144.4
144.4
144.4
144.4
144.4
144.4
144.4
144.4
144.4
144.4
144.4
144.4
144.4
144.4
144.4
144.4
144.4
144.4
144.4
144.4
144.4
144.4
144.4
144.4
144.4
144.4
144.4
144.4
144.4
144.4
144.4
144.4
144.418
144.42
144.421
144.423
144.425
144.428
144.43
144.433
144.436
144.439
144.442
144.446
144.45
150.088
149.878
149.668
149.458
149.247
149.036
148.827
148.619
148.413
148.212
148.015
147.822
147.634
147.451
147.274
147.103
146.939
146.781
146.628
146.483
146.344
146.211
146.085
145.966
145.853
145.747
145.647
145.553
145.465
145.382
145.304
145.232
145.164
145.1
145.04
144.985
144.932
144.884
144.838
144.795
144.755
144.718
144.683
144.652
144.622
144.596
144.571
144.549
144.529
144.512
144.496
144.482
144.47
144.459
144.449
144.441
144.434
144.428
144.423
144.419
144.415
144.412
144.41
144.408
144.406
144.405
144.404
144.403
144.402
144.402
144.401
144.401
144.401
144.401
144.401
144.4
144.4
144.4
144.4
144.4
144.4
144.4
144.4
144.4
144.4
144.4
144.4
144.4
144.4
144.4
144.4
144.4
144.4
144.4
144.4
144.4
144.4
144.4
144.4
144.4
144.4
144.4
144.4
144.4
144.4
144.4
144.4
144.4
144.4
144.4
144.4
144.4
144.4
144.4
144.4
144.4
144.4
144.4
144.4
144.4
144.4
144.4
144.4
144.4
144.4
144.4
144.4
144.4
144.4
144.4
144.4
144.4
144.4
144.4
144.4
144.4
144.4
144.4
144.4
144.4
144.4
144.4
144.4
144.4
144.4
144.4
144.4
144.4
144.4
144.4
144.4
144.4
144.4
144.4
144.4
144.4
144.4
144.4
144.4
144.4
144.4
144.4
144.4
144.4
144.4
144.4
144.4
144.4
144.4
144.4
144.4
144.4
144.4
144.4
144.4
144.4
144.4
144.4
144.4
144.4
144.4
144.4
144.4
144.4
144.4
144.4
144.4
144.4
144.4
144.4
144.4
144.4
144.4
144.442
144.446
144.45
144.454
144.459
144.464
144.469
144.475
144.482
144.489
144.496
144.505
144.514
152.819
152.544
152.266
151.985
151.703
151.418
151.134
150.852
150.573
150.297
150.024
149.754
149.489
149.231
148.98
148.734
148.495
148.262
148.036
147.818
147.609
147.407
147.214
147.029
146.853
146.685
146.525
146.374
146.23
146.093
145.965
145.843
145.727
145.618
145.515
145.418
145.326
145.24
145.159
145.082
145.011
144.945
144.885
144.829
144.778
144.731
144.689
144.651
144.616
144.586
144.559
144.535
144.514
144.496
144.48
144.466
144.455
144.445
144.436
144.429
144.424
144.419
144.415
144.412
144.41
144.408
144.406
144.405
144.404
144.403
144.402
144.402
144.402
144.401
144.401
144.401
144.401
144.401
144.4
144.4
144.4
144.4
144.4
144.4
144.4
144.4
144.4
144.4
144.4
144.4
144.4
144.4
144.4
144.4
144.4
144.4
144.4
144.4
144.4
144.4
144.4
144.4
144.4
144.4
144.4
144.4
144.4
144.4
144.4
144.4
144.4
144.4
144.4
144.4
144.4
144.4
144.4
144.4
144.4
144.4
144.4
144.4
144.4
144.4
144.4
144.4
144.4
144.4
144.4
144.4
144.4
144.4
144.4
144.4
144.4
144.4
144.4
144.4
144.4
144.4
144.4
144.4
144.4
144.4
144.4
144.4
144.4
144.4
144.4
144.4
144.4
144.4
144.4
144.4
144.4
144.4
144.4
144.4
144.4
144.4
144.4
144.4
144.4
144.4
144.4
144.4
144.4
144.4
144.4
144.4
144.4
144.4
144.4
144.4
144.4
144.4
144.4
144.4
144.4
144.4
144.4
144.4
144.4
144.4
144.4
144.4
144.4
144.4
144.4
144.4
144.4
144.502
144.511
144.52
144.531
144.542
144.553
144.566
144.58
144.595
144.612
144.629
144.648
156.524
156.2
155.871
155.537
155.197
154.854
154.507
154.159
153.812
153.465
153.118
152.771
152.427
152.089
151.755
151.426
151.101
150.78
150.465
150.156
149.854
149.561
149.275
148.998
148.729
148.47
148.22
147.978
147.745
147.521
147.307
147.101
146.904
146.716
146.536
146.363
146.199
146.043
145.894
145.754
145.621
145.497
145.382
145.275
145.176
145.085
145.002
144.926
144.857
144.796
144.741
144.692
144.649
144.61
144.577
144.548
144.523
144.502
144.484
144.469
144.456
144.446
144.437
144.43
144.424
144.419
144.415
144.412
144.41
144.408
144.406
144.405
144.404
144.403
144.403
144.402
144.402
144.402
144.401
144.401
144.401
144.401
144.401
144.401
144.4
144.4
144.4
144.4
144.4
144.4
144.4
144.4
144.4
144.4
144.4
144.4
144.4
144.4
144.4
144.4
144.4
144.4
144.4
144.4
144.4
144.4
144.4
144.4
144.4
144.4
144.4
144.4
144.4
144.4
144.4
144.4
144.4
144.4
144.4
144.4
144.4
144.4
144.4
144.4
144.4
144.4
144.4
144.4
144.4
144.4
144.4
144.4
144.4
144.4
144.4
144.4
144.4
144.4
144.4
144.4
144.4
144.4
144.4
144.4
144.4
144.4
144.4
144.4
144.4
144.4
144.4
144.4
144.4
144.4
144.4
144.4
144.4
144.4
144.4
144.4
144.4
144.4
144.4
144.4
144.4
144.4
144.4
144.4
144.4
144.4
144.4
144.4
144.4
144.4
144.4
144.4
144.4
144.4
144.4
144.4
144.4
144.4
144.4
144.4
144.4
144.4
144.4
144.4
144.4
144.4
144.4
144.62
144.638
144.657
144.678
144.701
144.725
144.752
144.78
144.811
144.844
160.524
160.166
159.801
159.428
159.05
158.664
158.274
157.88
157.483
157.084
156.682
156.278
155.874
155.473
155.074
154.677
154.282
153.888
153.497
153.11
152.728
152.351
151.98
151.615
151.257
150.907
150.563
150.227
149.899
149.579
149.268
148.965
148.671
148.385
148.108
147.84
147.581
147.332
147.091
146.86
146.64
146.432
146.235
146.05
145.877
145.715
145.566
145.429
145.303
145.189
145.085
144.992
144.909
144.835
144.77
144.713
144.663
144.62
144.584
144.552
144.526
144.504
144.485
144.47
144.457
144.446
144.438
144.431
144.425
144.42
144.417
144.414
144.411
144.409
144.408
144.406
144.405
144.404
144.404
144.403
144.403
144.402
144.402
144.402
144.401
144.401
144.401
144.401
144.401
144.401
144.401
144.4
144.4
144.4
144.4
144.4
144.4
144.4
144.4
144.4
144.4
144.4
144.4
144.4
144.4
144.4
144.4
144.4
144.4
144.4
144.4
144.4
144.4
144.4
144.4
144.4
144.4
144.4
144.4
144.4
144.4
144.4
144.4
144.4
144.4
144.4
144.4
144.4
144.4
144.4
144.4
144.4
144.4
144.4
144.4
144.4
144.4
144.4
144.4
144.4
144.4
144.4
144.4
144.4
144.4
144.4
144.4
144.4
144.4
144.4
144.4
144.4
144.4
144.4
144.4
144.4
144.4
144.4
144.4
144.4
144.4
144.4
144.4
144.4
144.4
144.4
144.4
144.4
144.4
144.4
144.4
144.4
144.4
144.4
144.4
144.4
144.4
144.4
144.4
144.4
144.4
144.4
144.4
144.4
144.4
144.4
144.4
144.4
144.4
144.4
144.4
144.887
144.925
144.967
145.011
145.058
145.11
145.164
145.223
145.286
164.246
163.855
163.456
163.049
162.636
162.216
161.79
161.358
160.922
160.482
160.038
159.593
159.146
158.7
158.254
157.807
157.359
156.911
156.465
156.02
155.578
155.139
154.703
154.272
153.845
153.422
153.003
152.59
152.182
151.781
151.385
150.996
150.614
150.238
149.87
149.509
149.157
148.813
148.478
148.154
147.842
147.543
147.258
146.987
146.731
146.49
146.265
146.056
145.863
145.686
145.524
145.378
145.246
145.128
145.024
144.932
144.851
144.781
144.72
144.668
144.624
144.587
144.555
144.529
144.506
144.488
144.473
144.46
144.45
144.441
144.434
144.428
144.424
144.42
144.416
144.414
144.412
144.41
144.408
144.407
144.406
144.405
144.405
144.404
144.403
144.403
144.403
144.402
144.402
144.402
144.401
144.401
144.401
144.401
144.401
144.401
144.4
144.4
144.4
144.4
144.4
144.4
144.4
144.4
144.4
144.4
144.4
144.4
144.4
144.4
144.4
144.4
144.4
144.4
144.4
144.4
144.4
144.4
144.4
144.4
144.4
144.4
144.4
144.4
144.4
144.4
144.4
144.4
144.4
144.4
144.4
144.4
144.4
144.4
144.4
144.4
144.4
144.4
144.4
144.4
144.4
144.4
144.4
144.4
144.4
144.4
144.4
144.4
144.4
144.4
144.4
144.4
144.4
144.4
144.4
144.4
144.4
144.4
144.4
144.4
144.4
144.4
144.4
144.4
144.4
144.4
144.4
144.4
144.4
144.4
144.4
144.4
144.4
144.4
144.4
144.4
144.4
144.4
144.4
144.4
144.4
144.4
144.4
144.4
144.4
144.4
144.4
144.4
144.4
144.4
145.35
145.421
168.314
167.904
167.486
167.059
166.625
166.184
165.735
165.279
164.818
164.35
163.878
163.403
162.925
162.445
161.962
161.478
160.99
160.501
160.011
159.521
159.031
158.541
158.053
157.566
157.08
156.596
156.114
155.633
155.156
154.681
154.209
153.74
153.276
152.814
152.357
151.905
151.458
151.016
150.581
150.155
149.738
149.334
148.942
148.563
148.2
147.853
147.522
147.21
146.917
146.643
146.389
146.155
145.94
145.745
145.569
145.411
145.271
145.146
145.038
144.943
144.86
144.789
144.728
144.677
144.633
144.595
144.564
144.537
144.515
144.497
144.481
144.468
144.457
144.448
144.441
144.435
144.43
144.425
144.422
144.419
144.416
144.414
144.412
144.41
144.409
144.408
144.407
144.406
144.405
144.404
144.404
144.403
144.403
144.402
144.402
144.401
144.401
144.401
144.401
144.401
144.401
144.4
144.4
144.4
144.4
144.4
144.4
144.4
144.4
144.4
144.4
144.4
144.4
144.4
144.4
144.4
144.4
144.4
144.4
144.4
144.4
144.4
144.4
144.4
144.4
144.4
144.4
144.4
144.4
144.4
144.4
144.4
144.4
144.4
144.4
144.4
144.4
144.4
144.4
144.4
144.4
144.4
144.4
144.4
144.4
144.4
144.4
144.4
144.4
144.4
144.4
144.4
144.4
144.4
144.4
144.4
144.4
144.4
144.4
144.4
144.4
144.4
144.4
144.4
144.4
144.4
144.4
144.4
144.4
144.4
144.4
144.4
144.4
144.4
144.4
144.4
144.4
144.4
144.4
144.4
144.4
144.4
144.4
144.4
144.4
144.4
144.4
144.4
144.4
144.4
172.295
171.87
171.436
170.994
170.544
170.086
169.62
169.146
168.665
168.177
167.684
167.187
166.685
166.179
165.67
165.157
164.641
164.121
163.599
163.075
162.549
162.023
161.495
160.967
160.438
159.908
159.378
158.848
158.318
157.787
157.258
156.729
156.2
155.672
155.146
154.621
154.098
153.577
153.059
152.547
152.041
151.544
151.056
150.579
150.114
149.662
149.227
148.808
148.408
148.027
147.667
147.329
147.013
146.721
146.451
146.204
145.981
145.779
145.598
145.437
145.295
145.17
145.06
144.965
144.883
144.812
144.751
144.698
144.654
144.616
144.583
144.556
144.533
144.513
144.497
144.483
144.471
144.461
144.453
144.445
144.439
144.434
144.43
144.426
144.422
144.419
144.417
144.415
144.413
144.411
144.409
144.408
144.406
144.405
144.404
144.404
144.403
144.402
144.402
144.402
144.401
144.401
144.401
144.401
144.401
144.4
144.4
144.4
144.4
144.4
144.4
144.4
144.4
144.4
144.4
144.4
144.4
144.4
144.4
144.4
144.4
144.4
144.4
144.4
144.4
144.4
144.4
144.4
144.4
144.4
144.4
144.4
144.4
144.4
144.4
144.4
144.4
144.4
144.4
144.4
144.4
144.4
144.4
144.4
144.4
144.4
144.4
144.4
144.4
144.4
144.4
144.4
144.4
144.4
144.4
144.4
144.4
144.4
144.4
144.4
144.4
144.4
144.4
144.4
144.4
144.4
144.4
144.4
144.4
144.4
144.4
144.4
144.4
144.4
144.4
144.4
144.4
144.4
144.4
144.4
144.4
144.4
144.4
144.4
144.4
144.4
144.4
144.4
144.4
144.4
176.141
175.704
175.257
174.802
174.339
173.867
173.387
172.898
172.401
171.897
171.387
170.872
170.351
169.825
169.295
168.76
168.221
167.677
167.13
166.58
166.028
165.473
164.915
164.356
163.795
163.231
162.666
162.099
161.53
160.96
160.388
159.815
159.241
158.664
158.087
157.509
156.931
156.352
155.774
155.198
154.625
154.057
153.495
152.94
152.393
151.857
151.332
150.821
150.325
149.846
149.385
148.944
148.525
148.128
147.755
147.406
147.083
146.784
146.511
146.262
146.036
145.834
145.652
145.491
145.347
145.221
145.111
145.014
144.93
144.857
144.793
144.739
144.692
144.652
144.617
144.587
144.562
144.54
144.522
144.506
144.492
144.48
144.47
144.461
144.453
144.446
144.44
144.435
144.43
144.426
144.422
144.419
144.416
144.413
144.411
144.409
144.407
144.406
144.405
144.404
144.403
144.403
144.402
144.402
144.401
144.401
144.401
144.401
144.401
144.401
144.401
144.4
144.4
144.4
144.4
144.4
144.4
144.4
144.4
144.4
144.4
144.4
144.4
144.4
144.4
144.4
144.4
144.4
144.4
144.4
144.4
144.4
144.4
144.4
144.4
144.4
144.4
144.4
144.4
144.4
144.4
144.4
144.4
144.4
144.4
144.4
144.4
144.4
144.4
144.4
144.4
144.4
144.4
144.4
144.4
144.4
144.4
144.4
144.4
144.4
144.4
144.4
144.4
144.4
144.4
144.4
144.4
144.4
144.4
144.4
144.4
144.4
144.4
144.4
144.4
144.4
144.4
144.4
144.4
144.4
144.4
144.4
144.4
144.4
144.4
144.4
144.4
144.4
144.4
144.4
178.918
178.451
177.976
177.492
176.999
176.497
175.987
175.469
174.944
174.414
173.877
173.335
172.787
172.234
171.676
171.113
170.546
169.976
169.401
168.824
168.244
167.661
167.075
166.486
165.895
165.301
164.704
164.105
163.503
162.899
162.292
161.683
161.071
160.457
159.841
159.223
158.605
157.986
157.369
156.754
156.142
155.534
154.931
154.335
153.747
153.168
152.6
152.045
151.504
150.979
150.471
149.982
149.514
149.067
148.644
148.245
147.87
147.52
147.196
146.897
146.623
146.372
146.145
145.94
145.755
145.59
145.443
145.312
145.197
145.096
145.007
144.929
144.861
144.802
144.751
144.707
144.668
144.634
144.605
144.58
144.558
144.538
144.521
144.505
144.492
144.48
144.469
144.459
144.45
144.443
144.436
144.43
144.425
144.421
144.417
144.414
144.412
144.41
144.408
144.406
144.405
144.404
144.404
144.403
144.402
144.402
144.402
144.402
144.401
144.401
144.401
144.401
144.401
144.401
144.401
144.401
144.401
144.401
144.401
144.401
144.401
144.4
144.4
144.4
144.4
144.4
144.4
144.4
144.4
144.4
144.4
144.4
144.4
144.4
144.4
144.4
144.4
144.4
144.4
144.4
144.4
144.4
144.4
144.4
144.4
144.4
144.4
144.4
144.4
144.4
144.4
144.4
144.4
144.4
144.4
144.4
144.4
144.4
144.4
144.4
144.4
144.4
144.4
144.4
144.4
144.4
144.4
144.4
144.4
144.4
144.4
144.4
144.4
144.4
144.4
144.4
144.4
144.4
144.4
144.4
144.4
144.4
144.4
144.4
144.4
144.4
144.4
144.4
182.398
181.921
181.434
180.939
180.434
179.92
179.398
178.867
178.33
177.786
177.235
176.678
176.116
175.547
174.973
174.395
173.811
173.224
172.633
172.038
171.44
170.838
170.234
169.626
169.015
168.402
167.785
167.166
166.544
165.919
165.291
164.66
164.026
163.39
162.752
162.111
161.469
160.826
160.184
159.542
158.901
158.263
157.629
156.998
156.372
155.753
155.141
154.537
153.943
153.361
152.79
152.234
151.693
151.169
150.663
150.176
149.71
149.266
148.844
148.445
148.07
147.719
147.392
147.088
146.809
146.552
146.318
146.105
145.913
145.74
145.584
145.446
145.323
145.214
145.118
145.033
144.958
144.892
144.834
144.782
144.737
144.696
144.66
144.628
144.599
144.573
144.55
144.53
144.511
144.495
144.48
144.468
144.457
144.448
144.439
144.433
144.427
144.422
144.418
144.415
144.412
144.41
144.408
144.407
144.406
144.405
144.405
144.404
144.404
144.403
144.403
144.403
144.403
144.402
144.402
144.402
144.402
144.402
144.402
144.402
144.402
144.401
144.401
144.401
144.401
144.401
144.401
144.401
144.4
144.4
144.4
144.4
144.4
144.4
144.4
144.4
144.4
144.4
144.4
144.4
144.4
144.4
144.4
144.4
144.4
144.4
144.4
144.4
144.4
144.4
144.4
144.4
144.4
144.4
144.4
144.4
144.4
144.4
144.4
144.4
144.4
144.4
144.4
144.4
144.4
144.4
144.4
144.4
144.4
144.4
144.4
144.4
144.4
144.4
144.4
144.4
144.4
144.4
144.4
144.4
144.4
144.4
144.4
144.4
144.4
144.4
144.4
144.4
185.685
185.198
184.701
184.194
183.679
183.154
182.62
182.078
181.529
180.972
180.409
179.84
179.264
178.683
178.096
177.504
176.907
176.306
175.702
175.093
174.481
173.866
173.247
172.626
172.002
171.375
170.746
170.114
169.479
168.842
168.202
167.56
166.915
166.268
165.619
164.968
164.317
163.664
163.012
162.36
161.709
161.06
160.413
159.768
159.127
158.491
157.859
157.232
156.612
155.999
155.394
154.799
154.213
153.639
153.076
152.527
151.993
151.474
150.972
150.488
150.022
149.576
149.151
148.747
148.366
148.007
147.671
147.358
147.068
146.8
146.554
146.33
146.126
145.942
145.776
145.626
145.492
145.372
145.264
145.167
145.081
145.003
144.933
144.869
144.812
144.76
144.714
144.672
144.634
144.601
144.571
144.545
144.523