/*--------------------------------*- C++ -*----------------------------------*\
| =========                 |                                                 |
| \\      /  F ield         | OpenFOAM: The Open Source CFD Toolbox           |
|  \\    /   O peration     | Version:  v1706                                 |
|   \\  /    A nd           | Web:      www.OpenFOAM.com                      |
|    \\/     M anipulation  |                                                 |
\*---------------------------------------------------------------------------*/
FoamFile
{
    version     2.0;
    format      ascii;
    class       volVectorField;
    location    "4e-05";
    object      U;
}
// * * * * * * * * * * * * * * * * * * * * * * * * * * * * * * * * * * * * * //

dimensions      [0 1 -1 0 0 0 0];


internalField   nonuniform List<vector> 
30104
(
(978.546 0.0411943 3.97494e-15)
(978.541 0.0474662 6.34843e-15)
(978.535 0.0546505 5.32426e-15)
(978.528 0.0629201 4.02453e-15)
(978.52 0.072489 5.28087e-15)
(978.511 0.083612 4.44381e-15)
(978.5 0.0965581 1.66966e-15)
(978.488 0.111584 2.50398e-15)
(978.474 0.128932 5.45638e-15)
(978.457 0.148812 7.01376e-15)
(978.439 0.171403 5.15878e-15)
(978.418 0.196884 4.30136e-15)
(978.394 0.225552 2.51952e-15)
(978.367 0.257836 4.80289e-15)
(978.337 0.29443 6.62166e-15)
(978.304 0.336322 6.33638e-15)
(978.265 0.384667 5.50525e-15)
(928.248 82.4716 2.25095e-15)
(929.317 80.7336 4.2201e-15)
(930.369 79.0145 4.06544e-15)
(931.4 77.3161 3.94421e-15)
(932.41 75.6406 3.87004e-15)
(933.395 73.99 3.69852e-15)
(934.356 72.3665 2.89973e-15)
(935.291 70.7718 4.46071e-15)
(936.2 69.2073 3.58946e-15)
(937.085 67.6737 2.0332e-15)
(937.947 66.1709 2.72396e-15)
(938.791 64.6979 1.81686e-15)
(939.62 63.2532 4.07558e-15)
(940.438 61.8344 3.28019e-15)
(941.249 60.4393 3.553e-16)
(942.057 59.0654 1.78792e-15)
(942.864 57.7105 2.60755e-15)
(943.672 56.3731 2.97124e-15)
(944.482 55.0521 4.74333e-15)
(945.295 53.7472 2.20516e-15)
(946.109 52.4588 3.87227e-15)
(946.923 51.1875 4.18203e-15)
(947.737 49.9353 2.02814e-15)
(948.548 48.7029 2.77336e-15)
(949.354 47.4932 2.55265e-15)
(950.151 46.3133 2.88951e-15)
(950.944 45.1433 2.90911e-15)
(951.738 44.0034 2.9907e-15)
(952.426 43.0114 3.06786e-15)
(952.862 42.3573 3.49934e-15)
(953.208 41.8325 1.41416e-15)
(953.568 41.3055 3.64837e-15)
(953.979 40.7298 4.59828e-15)
(954.439 40.1002 3.11771e-15)
(954.94 39.4189 1.83637e-15)
(955.479 38.6867 2.25575e-15)
(956.052 37.903 4.77239e-15)
(956.658 37.0664 2.08125e-15)
(957.298 36.1745 2.91127e-15)
(957.97 35.2234 4.06555e-15)
(958.674 34.2087 2.1853e-15)
(959.411 33.1277 3.66388e-15)
(960.18 31.9816 3.58081e-15)
(960.976 30.7746 4.48048e-15)
(961.796 29.5129 4.58084e-15)
(962.636 28.2031 3.11494e-15)
(963.493 26.8516 3.53642e-15)
(964.365 25.4589 2.76113e-15)
(965.257 24.0158 3.62126e-15)
(966.165 22.5222 1.69112e-15)
(967.084 20.9778 5.34051e-15)
(968.037 19.3508 3.05529e-15)
(969.004 17.6708 1.62566e-15)
(969.908 15.984 3.06272e-15)
(970.874 14.1465 3.45836e-15)
(971.948 12.2483 1.18958e-15)
(972.857 10.5753 3.60673e-15)
(973.561 9.28073 3.29315e-15)
(974.184 8.2653 2.25748e-15)
(974.761 7.39256 2.15829e-15)
(975.296 6.58845 1.66505e-15)
(975.787 5.82779 3.88568e-15)
(976.232 5.10257 3.40669e-15)
(976.628 4.41244 2.60297e-15)
(976.95 3.79527 5.06546e-15)
(977.161 3.30624 3.88573e-15)
(977.266 2.94474 3.30408e-15)
(977.328 2.65173 4.11514e-15)
(977.416 2.37065 3.4632e-15)
(977.542 2.08899 3.8634e-15)
(977.682 1.81869 2.78273e-15)
(977.817 1.5666 2.87344e-15)
(977.936 1.33229 3.3523e-15)
(978.041 1.10824 1.59021e-15)
(978.14 0.890297 4.09553e-15)
(978.235 0.693739 4.12777e-15)
(978.317 0.536444 3.50992e-15)
(978.382 0.421956 2.85447e-16)
(978.432 0.338208 -1.56176e-16)
(978.47 0.272295 3.03724e-15)
(978.498 0.21926 5.30621e-16)
(978.514 0.179535 2.47064e-15)
(978.521 0.152595 1.5127e-15)
(978.523 0.134042 8.23617e-16)
(978.526 0.117692 4.88169e-15)
(978.532 0.100899 4.44259e-15)
(978.539 0.0849859 3.01499e-15)
(978.546 0.0709423 1.86511e-15)
(978.552 0.058344 2.55472e-15)
(978.557 0.0464605 3.74177e-15)
(978.562 0.0355067 3.08327e-15)
(978.567 0.0263599 3.60096e-15)
(978.571 0.0196466 4.64897e-15)
(978.574 0.0150514 2.72001e-15)
(978.576 0.0117122 6.74188e-16)
(978.577 0.0091848 3.14001e-15)
(978.578 0.0073815 6.27689e-16)
(978.578 0.00622544 4.64521e-16)
(978.578 0.00552186 2.73082e-15)
(978.578 0.00495876 2.66703e-15)
(978.578 0.00432876 3.10124e-15)
(978.578 0.00368746 2.92337e-15)
(978.579 0.00310196 2.16534e-15)
(978.579 0.00256439 2.82611e-15)
(978.579 0.00205821 2.56908e-15)
(978.579 0.00158412 2.98094e-15)
(978.579 0.00116511 1.54699e-15)
(978.58 0.000827393 9.99595e-16)
(978.58 0.000585548 4.09211e-15)
(978.58 0.000428416 3.91947e-15)
(978.58 0.000327462 3.23689e-15)
(978.58 0.000261047 3.25455e-15)
(978.58 0.000217177 2.80493e-15)
(978.58 0.000187713 2.87666e-15)
(978.58 0.000162932 1.38327e-15)
(978.58 0.000137181 2.42296e-15)
(978.58 0.000112267 3.33329e-15)
(978.58 8.92337e-05 3.08362e-15)
(978.58 6.76335e-05 3.04801e-15)
(978.58 4.83256e-05 2.48066e-15)
(978.58 3.27473e-05 2.97895e-15)
(978.58 2.18343e-05 1.25519e-15)
(978.58 1.56263e-05 3.39122e-15)
(978.58 1.21568e-05 3.22687e-15)
(978.58 9.92374e-06 3.74544e-16)
(978.58 8.40128e-06 7.50913e-17)
(978.58 7.25474e-06 1.24369e-15)
(978.58 6.20155e-06 1.44806e-15)
(978.58 5.16638e-06 2.28834e-15)
(978.58 4.18709e-06 1.42805e-15)
(978.58 3.26471e-06 2.3382e-15)
(978.58 2.41343e-06 2.38398e-15)
(978.58 1.68873e-06 1.74457e-15)
(978.58 1.13393e-06 2.40212e-15)
(978.58 7.89653e-07 1.51074e-15)
(978.58 6.17886e-07 2.55982e-15)
(978.58 5.25473e-07 1.19699e-15)
(978.58 4.79326e-07 2.77123e-15)
(978.58 4.55959e-07 2.33461e-15)
(978.58 4.31519e-07 1.69989e-15)
(978.58 3.98697e-07 3.96436e-15)
(978.58 3.63592e-07 3.94111e-15)
(978.58 3.2887e-07 2.94813e-15)
(978.58 2.94621e-07 3.08502e-15)
(978.58 2.62609e-07 1.25614e-15)
(978.58 2.42472e-07 2.86563e-15)
(978.58 2.37758e-07 3.77239e-15)
(978.58 2.4079e-07 2.94723e-15)
(978.58 2.50991e-07 1.42524e-15)
(978.58 2.66202e-07 1.47188e-15)
(978.58 2.82286e-07 3.05498e-15)
(978.58 2.95517e-07 1.50701e-15)
(978.58 3.04849e-07 2.33696e-15)
(978.58 3.13381e-07 2.76885e-15)
(978.58 3.21536e-07 3.4333e-15)
(978.58 3.29742e-07 2.97445e-15)
(978.58 3.38578e-07 2.53352e-15)
(978.58 3.48217e-07 2.96823e-15)
(978.58 3.58585e-07 2.02458e-15)
(978.58 3.69527e-07 1.34495e-15)
(978.58 3.80885e-07 1.16425e-15)
(978.58 3.92576e-07 2.22642e-15)
(978.58 4.04644e-07 8.8885e-16)
(978.58 4.17205e-07 2.29567e-15)
(978.58 4.3033e-07 2.16529e-15)
(978.58 4.43928e-07 2.01975e-15)
(978.58 4.57785e-07 3.17761e-15)
(978.58 4.71677e-07 1.98336e-15)
(978.58 4.85507e-07 1.41245e-15)
(978.58 4.99395e-07 6.89575e-16)
(978.58 5.13635e-07 2.69912e-15)
(978.58 5.2857e-07 2.58273e-15)
(978.58 5.44421e-07 2.36152e-15)
(978.58 5.61221e-07 1.1534e-15)
(978.58 5.78871e-07 1.17697e-15)
(978.58 5.97294e-07 1.33132e-15)
(978.58 6.16545e-07 2.80128e-15)
(978.58 6.36857e-07 1.91912e-15)
(978.58 6.58562e-07 1.49256e-15)
(978.58 6.8196e-07 1.57273e-15)
(978.58 7.07184e-07 1.45413e-15)
(978.58 7.3416e-07 2.04334e-15)
(978.58 7.62708e-07 2.57873e-15)
(978.58 7.92715e-07 2.03681e-15)
(978.58 8.2431e-07 2.72045e-15)
(978.58 8.57885e-07 2.70111e-15)
(978.58 8.94007e-07 1.53669e-15)
(978.58 9.33159e-07 2.82121e-15)
(978.58 9.7518e-07 2.41478e-15)
(978.58 1.01995e-06 1.91586e-15)
(978.58 1.07099e-06 1.9229e-15)
(978.58 1.1129e-06 1.7598e-15)
(978.58 1.05538e-06 1.60034e-15)
(978.35 0.247765 1.45776e-14)
(978.314 0.286588 1.44718e-14)
(978.273 0.331258 1.24077e-14)
(978.226 0.382462 1.28295e-14)
(978.172 0.440996 1.34164e-14)
(978.111 0.50779 1.30176e-14)
(978.041 0.584043 1.24434e-14)
(977.961 0.671302 1.41429e-14)
(977.87 0.771394 1.54551e-14)
(977.766 0.886721 1.3851e-14)
(977.644 1.02033 1.4101e-14)
(977.503 1.17578 1.59523e-14)
(977.339 1.35647 1.65713e-14)
(977.149 1.56554 1.50558e-14)
(976.93 1.80523 1.50874e-14)
(976.683 2.07695 1.45131e-14)
(976.405 2.38288 1.23716e-14)
(803.358 283.761 1.87907e-15)
(803.909 282.633 4.37629e-15)
(804.532 281.412 6.41278e-15)
(805.233 280.091 5.3951e-15)
(806.016 278.663 5.00103e-15)
(806.885 277.12 4.82307e-15)
(807.843 275.459 4.43774e-15)
(808.889 273.679 4.68331e-15)
(810.019 271.786 4.52243e-15)
(811.229 269.786 1.95588e-15)
(812.509 267.696 1.43206e-16)
(813.85 265.53 2.01469e-15)
(815.239 263.309 4.95589e-16)
(816.666 261.051 4.66556e-16)
(818.118 258.775 -1.461e-15)
(819.586 256.499 1.40485e-16)
(821.061 254.234 1.74883e-15)
(822.538 251.993 1.67115e-15)
(824.01 249.781 4.75541e-15)
(825.477 247.601 2.93445e-15)
(826.938 245.453 3.65813e-15)
(828.396 243.331 4.83155e-15)
(829.857 241.224 4.46004e-15)
(831.327 239.125 4.18416e-15)
(832.812 237.023 4.62142e-15)
(834.315 234.908 4.83813e-15)
(835.841 232.77 4.23649e-15)
(837.442 230.548 5.12854e-15)
(839.143 228.272 4.82398e-15)
(840.982 225.912 5.03262e-15)
(842.958 223.396 3.80049e-15)
(845.071 220.676 6.21182e-15)
(847.322 217.738 4.65836e-15)
(849.704 214.612 5.14408e-15)
(852.201 211.335 2.97336e-15)
(854.806 207.927 5.40537e-15)
(857.525 204.377 5.75974e-15)
(860.374 200.654 4.99129e-15)
(863.367 196.723 4.67552e-15)
(866.513 192.549 7.33448e-15)
(869.816 188.105 6.18481e-15)
(873.279 183.356 7.43049e-15)
(876.909 178.259 4.7804e-15)
(880.712 172.777 5.42953e-15)
(884.694 166.895 7.67164e-15)
(888.852 160.618 5.84648e-15)
(893.183 153.975 4.00957e-15)
(897.685 146.998 4.26971e-15)
(902.348 139.732 6.68655e-15)
(907.152 132.219 4.60714e-15)
(912.082 124.459 6.8815e-15)
(917.126 116.441 7.48859e-15)
(922.235 108.221 6.71851e-15)
(927.317 99.8826 7.49021e-15)
(932.253 91.5816 5.07922e-15)
(936.764 83.4721 5.74744e-15)
(940.254 76.2451 7.58759e-15)
(942.939 70.4432 7.76761e-15)
(945.568 65.4235 1.00793e-14)
(948.346 60.6616 7.78543e-15)
(951.247 55.8909 5.80469e-15)
(954.209 50.9912 6.91911e-15)
(957.169 45.9377 7.28048e-15)
(960.031 40.8007 7.26229e-15)
(962.743 35.5983 9.33576e-15)
(965.355 30.2622 9.16068e-15)
(967.724 25.0952 7.09785e-15)
(969.548 20.7591 6.62304e-15)
(970.928 17.4702 8.84219e-15)
(972.109 14.9195 7.8909e-15)
(973.174 12.7928 7.6784e-15)
(974.13 10.9061 7.16858e-15)
(974.953 9.19639 7.19635e-15)
(975.597 7.70174 7.15977e-15)
(976.042 6.4802 1.06258e-14)
(976.335 5.51455 8.21526e-15)
(976.571 4.72661 6.89397e-15)
(976.819 4.04734 5.96754e-15)
(977.083 3.44561 5.87964e-15)
(977.334 2.91142 6.52425e-15)
(977.554 2.43298 4.11299e-15)
(977.744 1.9947 5.57506e-15)
(977.911 1.59306 6.95848e-15)
(978.056 1.24764 7.95714e-15)
(978.172 0.979091 8.01536e-15)
(978.262 0.78211 7.9474e-15)
(978.332 0.633251 6.01879e-15)
(978.386 0.513536 5.90609e-15)
(978.426 0.415775 7.39097e-15)
(978.453 0.339437 7.14403e-15)
(978.469 0.282765 7.7644e-15)
(978.481 0.239335 6.88554e-15)
(978.493 0.202468 7.05958e-15)
(978.506 0.170089 5.51658e-15)
(978.518 0.142298 2.69626e-15)
(978.529 0.118421 6.60502e-15)
(978.538 0.0973022 3.60004e-15)
(978.546 0.0781459 5.63972e-15)
(978.553 0.0611651 7.76502e-15)
(978.559 0.0472994 5.4674e-15)
(978.564 0.0369808 6.5972e-15)
(978.568 0.0294965 4.82552e-15)
(978.571 0.0237831 5.86209e-15)
(978.573 0.0192118 7.12573e-15)
(978.575 0.0155544 7.5345e-15)
(978.575 0.0127066 6.37008e-15)
(978.576 0.0105225 5.41921e-15)
(978.576 0.00879316 7.23001e-15)
(978.577 0.00733892 6.53361e-15)
(978.577 0.00608142 6.85509e-15)
(978.578 0.00497905 9.55688e-15)
(978.578 0.00398935 1.02634e-14)
(978.579 0.00309746 6.02672e-15)
(978.579 0.00232538 7.46499e-15)
(978.579 0.00170722 6.89381e-15)
(978.58 0.00125459 5.4608e-15)
(978.58 0.000941331 8.59509e-15)
(978.58 0.000721771 8.6594e-15)
(978.58 0.000562311 6.46525e-15)
(978.58 0.00044551 6.86638e-15)
(978.58 0.000359288 5.37795e-15)
(978.58 0.00029227 4.89435e-15)
(978.58 0.000236961 9.24025e-15)
(978.58 0.000190023 8.4226e-15)
(978.58 0.000149274 5.16074e-15)
(978.58 0.00011397 4.28609e-15)
(978.58 8.48067e-05 4.54335e-15)
(978.58 6.2398e-05 4.25986e-15)
(978.58 4.63485e-05 4.12581e-15)
(978.58 3.52063e-05 4.64176e-15)
(978.58 2.72945e-05 6.59404e-15)
(978.58 2.15328e-05 3.61451e-15)
(978.58 1.7318e-05 5.02432e-15)
(978.58 1.41675e-05 5.27729e-15)
(978.58 1.16558e-05 5.84601e-15)
(978.58 9.53666e-06 8.37114e-15)
(978.58 7.70391e-06 6.10937e-15)
(978.58 6.10661e-06 5.56094e-15)
(978.58 4.76329e-06 6.21608e-15)
(978.58 3.71331e-06 7.15723e-15)
(978.58 2.97133e-06 7.23648e-15)
(978.58 2.53386e-06 7.17852e-15)
(978.58 2.31924e-06 6.82715e-15)
(978.58 2.2361e-06 6.52558e-15)
(978.58 2.23425e-06 6.72405e-15)
(978.58 2.2657e-06 5.7943e-15)
(978.58 2.28717e-06 5.15455e-15)
(978.58 2.28879e-06 5.975e-15)
(978.58 2.27931e-06 4.63776e-15)
(978.58 2.26157e-06 5.14271e-15)
(978.58 2.24737e-06 5.51096e-15)
(978.58 2.24965e-06 5.44072e-15)
(978.58 2.27457e-06 6.59532e-15)
(978.58 2.32036e-06 6.40953e-15)
(978.58 2.38145e-06 6.32124e-15)
(978.58 2.45266e-06 6.81252e-15)
(978.58 2.52988e-06 5.63444e-15)
(978.58 2.6106e-06 6.93425e-15)
(978.58 2.69422e-06 5.89765e-15)
(978.58 2.78145e-06 4.53366e-15)
(978.58 2.87339e-06 5.67173e-15)
(978.58 2.97086e-06 4.77061e-15)
(978.58 3.07397e-06 4.32914e-15)
(978.58 3.18236e-06 4.08167e-15)
(978.58 3.29571e-06 3.51715e-15)
(978.58 3.4143e-06 4.68194e-15)
(978.58 3.53916e-06 6.43635e-15)
(978.58 3.67164e-06 6.00081e-15)
(978.58 3.81265e-06 5.59814e-15)
(978.58 3.96215e-06 5.70344e-15)
(978.58 4.11924e-06 4.83005e-15)
(978.58 4.28266e-06 3.74706e-15)
(978.58 4.45157e-06 5.81726e-15)
(978.58 4.62595e-06 5.77239e-15)
(978.58 4.80658e-06 4.56177e-15)
(978.58 4.9945e-06 5.16532e-15)
(978.58 5.19032e-06 4.55503e-15)
(978.58 5.39379e-06 4.5505e-15)
(978.58 5.60381e-06 4.3719e-15)
(978.58 5.81906e-06 4.03018e-15)
(978.58 6.03874e-06 4.52359e-15)
(978.58 6.26316e-06 4.22562e-15)
(978.58 6.4939e-06 4.50724e-15)
(978.58 6.73294e-06 4.43571e-15)
(978.58 6.98162e-06 3.43515e-15)
(978.58 7.23998e-06 4.08443e-15)
(978.58 7.50575e-06 6.1103e-15)
(978.58 7.77771e-06 6.69234e-15)
(978.58 8.05484e-06 6.79896e-15)
(978.58 8.33109e-06 6.45132e-15)
(978.58 8.62151e-06 5.23683e-15)
(978.58 9.10279e-06 4.28694e-15)
(978.58 8.73447e-06 3.31717e-15)
(977.739 0.878252 2.11311e-14)
(977.611 1.01327 2.25591e-14)
(977.464 1.16941 2.12782e-14)
(977.293 1.35055 2.16202e-14)
(977.095 1.56082 2.28117e-14)
(976.865 1.80437 2.09271e-14)
(976.601 2.08471 2.08988e-14)
(976.3 2.40487 2.14738e-14)
(975.958 2.76857 2.1656e-14)
(975.57 3.17955 2.11482e-14)
(975.13 3.64378 2.24417e-14)
(974.63 4.17104 2.31543e-14)
(974.059 4.77537 2.04369e-14)
(973.402 5.47288 2.11621e-14)
(972.646 6.28131 2.34782e-14)
(971.776 7.21806 2.25924e-14)
(793.657 305.814 2.51069e-15)
(793.914 305.181 3.29149e-15)
(794.154 304.594 3.84306e-15)
(794.376 304.058 4.25997e-15)
(794.582 303.58 4.46935e-15)
(794.773 303.16 3.60538e-15)
(794.949 302.798 4.29127e-15)
(795.111 302.487 7.37139e-15)
(795.26 302.215 4.66898e-15)
(795.4 301.97 6.39852e-15)
(795.535 301.733 7.6481e-15)
(795.67 301.489 6.59318e-15)
(795.811 301.22 8.5032e-15)
(795.964 300.915 5.63617e-15)
(796.134 300.562 4.30791e-15)
(796.326 300.157 3.25786e-15)
(796.542 299.695 3.41029e-15)
(796.785 299.178 4.34914e-15)
(797.055 298.611 4.16389e-15)
(797.354 298 1.31243e-15)
(797.678 297.355 3.52993e-15)
(798.023 296.688 1.6175e-15)
(798.38 296.015 1.27099e-15)
(798.744 295.343 1.17619e-15)
(799.116 294.678 1.51768e-15)
(799.49 294.032 1.47782e-15)
(799.842 293.437 2.01283e-15)
(800.201 292.832 3.21096e-15)
(800.594 292.232 3.15263e-15)
(801.054 291.686 3.43581e-15)
(801.593 291.196 3.11003e-15)
(802.215 290.716 4.41261e-15)
(802.93 290.166 2.69849e-15)
(803.764 289.457 4.94334e-15)
(804.753 288.534 3.92691e-15)
(805.919 287.405 7.61725e-15)
(807.259 286.122 1.90164e-15)
(808.764 284.735 4.37119e-15)
(810.424 283.269 4.22132e-15)
(812.228 281.736 4.58723e-15)
(814.158 280.14 4.36752e-15)
(816.169 278.512 5.24495e-15)
(818.206 276.903 2.09362e-15)
(820.235 275.333 4.98003e-15)
(822.242 273.795 4.0339e-15)
(824.225 272.253 4.14264e-15)
(826.222 270.64 6.89832e-15)
(828.304 268.864 5.98653e-15)
(830.555 266.836 5.97546e-15)
(833.046 264.486 4.58316e-15)
(835.816 261.789 5.66156e-15)
(838.852 258.82 7.0599e-15)
(842.113 255.664 6.71176e-15)
(845.612 252.209 7.09085e-15)
(849.474 248.071 9.38633e-15)
(853.888 242.82 1.0318e-14)
(859.105 236.062 8.02636e-15)
(865.23 227.459 9.59497e-15)
(872.076 217.165 1.11914e-14)
(879.504 205.472 1.13916e-14)
(887.461 192.552 1.03968e-14)
(895.879 178.515 9.96281e-15)
(904.612 163.52 1.10779e-14)
(913.43 147.784 1.10778e-14)
(922.033 131.595 8.2675e-15)
(930.013 115.486 9.1078e-15)
(936.862 100.101 1.30301e-14)
(942.073 86.4424 1.10098e-14)
(945.801 75.9202 1.08691e-14)
(949.28 67.4385 1.35887e-14)
(952.843 59.8614 1.06788e-14)
(956.406 52.6352 1.09372e-14)
(959.794 45.6085 1.30307e-14)
(962.923 38.7222 1.27307e-14)
(965.804 32.0113 1.06015e-14)
(968.251 25.9542 1.03642e-14)
(970.072 21.1764 1.29028e-14)
(971.484 17.6391 1.14552e-14)
(972.718 14.8596 1.0603e-14)
(973.818 12.4909 9.64975e-15)
(974.757 10.3978 1.06584e-14)
(975.482 8.59538 1.17363e-14)
(975.972 7.13145 1.25658e-14)
(976.291 5.97494 1.12412e-14)
(976.553 5.03474 1.13915e-14)
(976.824 4.2446 1.15593e-14)
(977.101 3.57078 1.07588e-14)
(977.354 2.98994 9.59849e-15)
(977.57 2.4798 9.39735e-15)
(977.753 2.0217 1.01483e-14)
(977.914 1.61148 1.24907e-14)
(978.055 1.26664 1.07914e-14)
(978.168 1.00411 9.30064e-15)
(978.255 0.813672 1.03226e-14)
(978.322 0.668132 7.55345e-15)
(978.375 0.548594 9.45235e-15)
(978.415 0.449143 8.42355e-15)
(978.443 0.369504 1.077e-14)
(978.46 0.308164 1.00944e-14)
(978.473 0.260218 8.83523e-15)
(978.485 0.220305 1.00559e-14)
(978.499 0.186078 1.03115e-14)
(978.512 0.156738 9.33234e-15)
(978.524 0.131176 1.14414e-14)
(978.534 0.108428 1.17307e-14)
(978.542 0.0880064 8.9459e-15)
(978.55 0.069886 8.68476e-15)
(978.557 0.0544561 1.2167e-14)
(978.562 0.0421391 1.07088e-14)
(978.567 0.0328333 1.19628e-14)
(978.571 0.0258396 1.23289e-14)
(978.573 0.0204308 1.20552e-14)
(978.575 0.0161906 9.60067e-15)
(978.576 0.012901 1.04348e-14)
(978.576 0.010368 1.06046e-14)
(978.577 0.00837675 1.01229e-14)
(978.577 0.00675991 1.046e-14)
(978.578 0.0054245 1.14539e-14)
(978.578 0.00429777 1.01321e-14)
(978.579 0.00333052 1.06418e-14)
(978.579 0.00251482 1.09133e-14)
(978.579 0.00186598 9.2926e-15)
(978.579 0.00138831 1.04259e-14)
(978.58 0.00105372 1.10709e-14)
(978.58 0.000816155 1.00039e-14)
(978.58 0.000641051 9.36818e-15)
(978.58 0.000509473 8.08607e-15)
(978.58 0.000409369 9.31367e-15)
(978.58 0.000330962 6.9203e-15)
(978.58 0.000267341 7.52441e-15)
(978.58 0.000214388 8.89501e-15)
(978.58 0.000169283 7.70186e-15)
(978.58 0.000130601 1.09165e-14)
(978.58 9.83161e-05 9.25549e-15)
(978.58 7.29118e-05 8.59591e-15)
(978.58 5.43312e-05 9.11551e-15)
(978.58 4.14509e-05 9.25199e-15)
(978.58 3.25805e-05 9.35849e-15)
(978.58 2.64167e-05 1.07966e-14)
(978.58 2.21536e-05 9.28206e-15)
(978.58 1.91405e-05 8.50137e-15)
(978.58 1.68082e-05 9.20839e-15)
(978.58 1.48598e-05 1.00407e-14)
(978.58 1.31838e-05 9.14883e-15)
(978.58 1.17471e-05 8.30396e-15)
(978.58 1.05998e-05 7.88055e-15)
(978.58 9.72991e-06 9.37787e-15)
(978.58 9.27949e-06 9.9826e-15)
(978.58 9.21241e-06 8.17262e-15)
(978.58 9.30992e-06 8.10954e-15)
(978.58 9.59071e-06 8.57016e-15)
(978.58 9.98137e-06 8.19993e-15)
(978.58 1.03628e-05 8.32789e-15)
(978.58 1.07054e-05 6.78113e-15)
(978.58 1.10265e-05 6.89061e-15)
(978.58 1.13428e-05 8.98444e-15)
(978.58 1.16683e-05 8.86831e-15)
(978.58 1.20156e-05 8.95994e-15)
(978.58 1.2391e-05 7.86853e-15)
(978.58 1.27953e-05 8.03968e-15)
(978.58 1.32251e-05 7.53823e-15)
(978.58 1.36762e-05 6.43281e-15)
(978.58 1.41463e-05 6.29034e-15)
(978.58 1.46355e-05 6.90128e-15)
(978.58 1.51454e-05 7.98393e-15)
(978.58 1.5677e-05 7.90834e-15)
(978.58 1.62288e-05 7.49071e-15)
(978.58 1.67972e-05 7.32428e-15)
(978.58 1.73792e-05 1.06841e-14)
(978.58 1.79744e-05 7.20921e-15)
(978.58 1.85867e-05 6.96813e-15)
(978.58 1.92225e-05 8.60064e-15)
(978.58 1.98885e-05 8.54329e-15)
(978.58 2.0589e-05 7.42635e-15)
(978.58 2.13246e-05 7.13232e-15)
(978.58 2.20946e-05 6.90673e-15)
(978.58 2.2899e-05 7.92496e-15)
(978.58 2.37411e-05 7.0403e-15)
(978.58 2.46278e-05 6.24081e-15)
(978.58 2.55691e-05 5.741e-15)
(978.58 2.65738e-05 6.74428e-15)
(978.58 2.76473e-05 6.97756e-15)
(978.58 2.87885e-05 7.94622e-15)
(978.58 2.99919e-05 7.69641e-15)
(978.58 3.1252e-05 7.15782e-15)
(978.58 3.25666e-05 8.33865e-15)
(978.58 3.39481e-05 6.76567e-15)
(978.58 3.53953e-05 6.81441e-15)
(978.58 3.69674e-05 8.66533e-15)
(978.58 3.85951e-05 7.01189e-15)
(978.58 4.03204e-05 6.58769e-15)
(978.58 4.29763e-05 7.77004e-15)
(978.58 4.2417e-05 6.56342e-15)
(975.765 2.91684 2.97709e-14)
(975.336 3.36423 2.84781e-14)
(974.847 3.87222 2.88688e-14)
(974.29 4.45028 3.18811e-14)
(973.653 5.11203 3.01206e-14)
(972.922 5.87379 2.72668e-14)
(972.082 6.75461 2.91198e-14)
(971.116 7.77393 2.8979e-14)
(970.009 8.9475 2.81104e-14)
(968.733 10.301 3.05434e-14)
(967.257 11.8592 3.3028e-14)
(965.557 13.6428 3.08074e-14)
(963.616 15.6648 2.9447e-14)
(961.43 17.9367 2.87588e-14)
(959.004 20.4686 2.93006e-14)
(956.342 23.2768 2.856e-14)
(791.229 314.597 1.05374e-15)
(791.816 314.1 2.31211e-16)
(792.368 313.583 4.61547e-16)
(792.887 313.051 5.14899e-16)
(793.374 312.509 2.6915e-15)
(793.831 311.961 1.8752e-15)
(794.26 311.414 2.57786e-16)
(794.662 310.872 5.76508e-16)
(795.041 310.338 2.06765e-15)
(795.397 309.816 1.77631e-15)
(795.735 309.304 7.2525e-16)
(796.055 308.801 2.30158e-15)
(796.362 308.303 1.92673e-15)
(796.658 307.804 3.10399e-15)
(796.945 307.3 4.47662e-15)
(797.226 306.786 4.99967e-15)
(797.504 306.256 4.6637e-15)
(797.78 305.707 3.58226e-15)
(798.057 305.135 3.36299e-15)
(798.337 304.54 5.68814e-15)
(798.619 303.918 5.70955e-15)
(798.905 303.265 8.12977e-15)
(799.189 302.584 6.17509e-15)
(799.461 301.891 6.68377e-15)
(799.729 301.181 3.85613e-15)
(799.983 300.476 6.67044e-15)
(800.228 299.778 4.96422e-15)
(800.452 299.12 5.79581e-15)
(800.687 298.458 8.67902e-15)
(800.948 297.87 7.12991e-15)
(801.248 297.412 4.38419e-15)
(801.586 297.128 8.25879e-15)
(801.954 297.037 5.2231e-15)
(802.338 297.135 7.00411e-15)
(802.721 297.392 7.84266e-15)
(803.104 297.742 6.9609e-15)
(803.509 298.125 7.99423e-15)
(803.965 298.509 6.66068e-15)
(804.492 298.871 7.2598e-15)
(805.102 299.189 8.87148e-16)
(805.796 299.432 8.43563e-15)
(806.57 299.573 5.24379e-16)
(807.421 299.611 5.49525e-15)
(808.328 299.585 2.98131e-15)
(809.292 299.509 3.72114e-15)
(810.293 299.427 2.20123e-15)
(811.285 299.423 2.52588e-15)
(812.269 299.524 1.83664e-15)
(813.278 299.701 3.22745e-15)
(814.331 299.898 1.16448e-15)
(815.464 300.033 3.78893e-15)
(816.767 300.007 5.37486e-15)
(818.343 299.749 6.78874e-15)
(820.206 299.296 6.06445e-15)
(822.249 298.755 8.14673e-15)
(824.427 298.213 8.2477e-15)
(826.739 297.685 6.69931e-15)
(829.166 296.994 7.34954e-15)
(831.733 295.852 7.68666e-15)
(834.518 294.1 1.04999e-14)
(837.555 291.787 9.96155e-15)
(840.851 288.962 9.85541e-15)
(844.413 285.496 8.39449e-15)
(848.291 281.105 1.04474e-14)
(852.602 275.389 7.56768e-15)
(857.516 267.942 9.85445e-15)
(863.198 258.449 1.29043e-14)
(869.832 246.693 1.35763e-14)
(877.621 232.267 1.31089e-14)
(886.254 215.524 1.41076e-14)
(895.463 197.19 1.37071e-14)
(905.047 177.842 1.38072e-14)
(914.705 157.889 1.37187e-14)
(923.997 137.819 1.46126e-14)
(932.367 118.41 1.46801e-14)
(939.279 100.452 1.44046e-14)
(944.391 85.1925 1.59327e-14)
(948.214 73.7971 1.47295e-14)
(951.947 64.5814 1.59152e-14)
(955.712 56.2724 1.52997e-14)
(959.314 48.3663 1.71766e-14)
(962.622 40.7115 1.56052e-14)
(965.644 33.3365 1.51395e-14)
(968.248 26.7002 1.48473e-14)
(970.199 21.4768 1.62013e-14)
(971.645 17.7223 1.5453e-14)
(972.871 14.8544 1.48764e-14)
(973.949 12.4394 1.40143e-14)
(974.849 10.3305 1.27452e-14)
(975.523 8.54257 1.54744e-14)
(975.965 7.11086 1.62214e-14)
(976.25 5.98883 1.47632e-14)
(976.496 5.07258 1.44735e-14)
(976.761 4.30233 1.54015e-14)
(977.03 3.65335 1.31117e-14)
(977.275 3.09416 1.28874e-14)
(977.488 2.59822 1.31368e-14)
(977.672 2.14929 1.37158e-14)
(977.835 1.74336 1.44727e-14)
(977.982 1.39191 1.24191e-14)
(978.108 1.11064 1.42783e-14)
(978.208 0.900294 1.38544e-14)
(978.285 0.742306 1.41229e-14)
(978.345 0.615651 1.43927e-14)
(978.393 0.509257 1.38313e-14)
(978.427 0.42018 1.28451e-14)
(978.451 0.347507 1.437e-14)
(978.467 0.289075 1.4319e-14)
(978.481 0.241352 1.38047e-14)
(978.495 0.201116 1.22656e-14)
(978.51 0.16667 1.4673e-14)
(978.523 0.136884 1.58909e-14)
(978.534 0.110651 1.32733e-14)
(978.544 0.0873688 1.30558e-14)
(978.552 0.0671437 1.39074e-14)
(978.559 0.0505273 1.1915e-14)
(978.565 0.0378948 1.33215e-14)
(978.569 0.028852 1.35552e-14)
(978.572 0.0223691 1.49424e-14)
(978.574 0.0175492 1.68182e-14)
(978.575 0.0138935 1.38825e-14)
(978.576 0.0111078 1.26554e-14)
(978.576 0.00894527 1.38233e-14)
(978.577 0.00721497 1.4884e-14)
(978.578 0.00579927 1.37737e-14)
(978.578 0.00461032 1.48417e-14)
(978.578 0.003594 1.15677e-14)
(978.579 0.00273946 1.27131e-14)
(978.579 0.00205666 1.44982e-14)
(978.579 0.00154597 1.21562e-14)
(978.58 0.00118026 1.27381e-14)
(978.58 0.000915723 1.13549e-14)
(978.58 0.00071817 1.16619e-14)
(978.58 0.000568581 1.18396e-14)
(978.58 0.000454873 1.17191e-14)
(978.58 0.000366674 1.15478e-14)
(978.58 0.000295926 1.32764e-14)
(978.58 0.000237647 1.34392e-14)
(978.58 0.000188412 1.14324e-14)
(978.58 0.000146477 1.17467e-14)
(978.58 0.00011204 1.01412e-14)
(978.58 8.57949e-05 1.18622e-14)
(978.58 6.77772e-05 1.18763e-14)
(978.58 5.66636e-05 1.25353e-14)
(978.58 5.0185e-05 1.09012e-14)
(978.58 4.6687e-05 1.47992e-14)
(978.58 4.4985e-05 1.286e-14)
(978.58 4.39826e-05 1.35957e-14)
(978.58 4.31207e-05 1.19295e-14)
(978.58 4.26115e-05 1.22203e-14)
(978.58 4.20209e-05 1.22133e-14)
(978.58 4.13589e-05 1.04699e-14)
(978.58 4.09964e-05 1.06689e-14)
(978.58 4.11546e-05 1.00483e-14)
(978.58 4.18105e-05 1.03481e-14)
(978.58 4.2856e-05 1.04809e-14)
(978.58 4.41756e-05 1.18138e-14)
(978.58 4.56627e-05 1.23138e-14)
(978.58 4.72456e-05 1.17029e-14)
(978.58 4.88977e-05 1.09064e-14)
(978.58 5.0623e-05 1.23589e-14)
(978.58 5.24385e-05 1.12114e-14)
(978.58 5.43597e-05 1.12647e-14)
(978.58 5.63943e-05 9.44546e-15)
(978.58 5.85435e-05 1.07142e-14)
(978.58 6.08084e-05 1.11144e-14)
(978.58 6.31959e-05 1.00852e-14)
(978.58 6.57194e-05 9.49061e-15)
(978.58 6.83941e-05 1.04337e-14)
(978.58 7.12287e-05 9.51096e-15)
(978.58 7.4221e-05 1.24152e-14)
(978.58 7.73599e-05 1.05324e-14)
(978.58 8.06326e-05 1.13715e-14)
(978.58 8.40336e-05 1.18115e-14)
(978.58 8.75691e-05 1.11595e-14)
(978.58 9.12544e-05 1.00599e-14)
(978.58 9.51063e-05 1.20362e-14)
(978.58 9.9133e-05 9.94573e-15)
(978.58 0.000103329 9.63457e-15)
(978.58 0.000107674 9.28844e-15)
(978.58 0.000112143 1.02952e-14)
(978.58 0.000116717 9.12026e-15)
(978.58 0.0001214 9.29634e-15)
(978.58 0.000126226 9.98538e-15)
(978.58 0.000131243 9.77178e-15)
(978.58 0.000136505 9.72456e-15)
(978.58 0.000142022 8.77856e-15)
(978.58 0.000147796 8.64562e-15)
(978.58 0.000153735 1.07474e-14)
(978.58 0.00015999 1.08075e-14)
(978.58 0.000165624 1.11194e-14)
(978.58 0.0001755 1.04125e-14)
(978.58 0.000171996 9.31717e-15)
(969.687 9.1704 3.64338e-14)
(968.347 10.5746 3.8016e-14)
(966.796 12.1957 4.08294e-14)
(965.005 14.0592 4.0787e-14)
(962.952 16.1843 3.79222e-14)
(960.625 18.5867 3.83495e-14)
(958.025 21.2774 3.94351e-14)
(955.152 24.2723 3.86612e-14)
(951.981 27.6066 3.83171e-14)
(948.488 31.2835 4.10055e-14)
(944.543 35.4267 4.00761e-14)
(939.984 40.1976 3.72129e-14)
(934.701 45.7323 3.72974e-14)
(928.667 52.1009 3.47821e-14)
(921.935 59.2976 3.63444e-14)
(790.282 316.058 3.02629e-15)
(790.967 315.687 1.44508e-15)
(791.624 315.285 1.34324e-15)
(792.256 314.852 -2.02179e-16)
(792.861 314.39 2.8162e-15)
(793.437 313.904 -7.17658e-16)
(793.986 313.398 1.93971e-15)
(794.506 312.88 2.85197e-15)
(794.999 312.356 2.78264e-15)
(795.464 311.832 2.28676e-15)
(795.903 311.316 1.75642e-15)
(796.317 310.811 2.5658e-15)
(796.708 310.319 2.55314e-15)
(797.079 309.841 4.05867e-15)
(797.433 309.376 -3.34487e-16)
(797.771 308.922 3.70625e-15)
(798.098 308.477 2.38003e-15)
(798.418 308.041 2.65681e-15)
(798.736 307.611 1.92018e-15)
(799.06 307.188 8.88745e-16)
(799.395 306.771 -5.92165e-16)
(799.748 306.35 2.0362e-15)
(800.12 305.924 1.3513e-15)
(800.506 305.507 3.40663e-15)
(800.911 305.101 2.86968e-15)
(801.348 304.709 4.36256e-15)
(801.823 304.345 3.81447e-15)
(802.352 304.019 3.76647e-15)
(802.935 303.778 5.06739e-15)
(803.519 303.528 4.49801e-15)
(804.093 303.274 5.64161e-15)
(804.657 303.036 6.28936e-15)
(805.206 302.839 6.51246e-15)
(805.732 302.704 7.1572e-15)
(806.226 302.642 6.19246e-15)
(806.69 302.655 8.37355e-15)
(807.133 302.751 6.0334e-15)
(807.571 302.934 8.50037e-15)
(808.025 303.194 5.55852e-15)
(808.521 303.508 5.83522e-15)
(809.078 303.846 4.10552e-15)
(809.69 304.188 5.90796e-15)
(810.336 304.536 2.40059e-15)
(811.019 304.839 4.60788e-15)
(811.736 305.123 1.7372e-15)
(812.483 305.386 3.38685e-15)
(813.255 305.608 2.34262e-15)
(814.018 305.923 4.06456e-15)
(814.787 306.358 4.57707e-15)
(815.578 306.882 4.86016e-15)
(816.381 307.546 6.40877e-15)
(817.158 308.449 6.0769e-15)
(817.886 309.524 6.77186e-15)
(818.655 310.57 5.92813e-15)
(819.571 311.517 7.32783e-15)
(820.602 312.462 8.29047e-15)
(821.703 313.396 8.54905e-15)
(822.918 314.204 9.42529e-15)
(824.214 315.008 6.17661e-15)
(825.445 315.929 5.89383e-15)
(826.599 316.755 1.04011e-14)
(827.918 317.149 1.08758e-14)
(829.46 317.116 8.18203e-15)
(831.124 316.685 9.78586e-15)
(832.862 315.883 1.03865e-14)
(834.67 314.732 1.12839e-14)
(836.565 313.321 1.08172e-14)
(838.597 311.628 1.31594e-14)
(840.803 309.422 1.26161e-14)
(843.218 306.477 1.43474e-14)
(845.903 302.702 1.24617e-14)
(848.928 298.024 1.48167e-14)
(852.387 292.207 1.40054e-14)
(856.441 284.824 1.74874e-14)
(861.308 275.372 1.55846e-14)
(867.198 263.437 1.47284e-14)
(874.349 248.739 1.56803e-14)
(882.917 231.009 1.70543e-14)
(892.442 210.981 1.80603e-14)
(902.472 189.625 1.84344e-14)
(912.578 167.604 1.83903e-14)
(922.259 145.519 1.85415e-14)
(930.947 124.265 1.78222e-14)
(938.144 104.785 1.57688e-14)
(943.671 87.9728 1.71745e-14)
(947.747 75.3479 1.86708e-14)
(951.511 65.6647 1.9223e-14)