/*--------------------------------*- C++ -*----------------------------------*\
| =========                 |                                                 |
| \\      /  F ield         | OpenFOAM: The Open Source CFD Toolbox           |
|  \\    /   O peration     | Version:  v1706                                 |
|   \\  /    A nd           | Web:      www.OpenFOAM.com                      |
|    \\/     M anipulation  |                                                 |
\*---------------------------------------------------------------------------*/
FoamFile
{
    version     2.0;
    format      ascii;
    class       volScalarField;
    location    "4e-05";
    object      wallHeatFlux;
}
// * * * * * * * * * * * * * * * * * * * * * * * * * * * * * * * * * * * * * //

dimensions      [1 0 -3 0 0 0 0];


internalField   uniform 0;

boundaryField
{
    cone
    {
        type            calculated;
        value           nonuniform List<scalar> 
119
(
-1024.46
-968.688
-911.879
-854.35
-796.459
-738.603
-681.201
-624.693
-569.53
-516.172
-465.079
-416.702
-371.48
-329.859
-292.315
-259.333
-231.321
-208.7
-191.393
-179.003
-172.406
-171.87
-177.467
-189.097
-206.253
-228.879
-256.426
-288.047
-322.746
-359.468
-397.152
-434.775
-471.405
-506.239
-538.636
-568.129
-594.431
-617.429
-637.167
-653.775
-667.512
-678.741
-687.796
-695.077
-700.993
-706.179
-710.945
-715.646
-720.595
-726.051
-732.216
-739.29
-747.354
-756.41
-766.505
-777.662
-789.859
-803.061
-817.225
-832.306
-848.253
-865.016
-882.537
-900.754
-919.597
-938.987
-958.835
-979.042
-999.502
-1020.1
-1040.72
-1061.26
-1081.62
-1101.68
-1121.36
-1140.59
-1159.31
-1177.5
-1195.17
-1212.35
-1229.13
-1245.62
-1261.99
-1278.35
-1294.81
-1311.37
-1327.94
-1344.29
-1360.13
-1375.14
-1389.05
-1401.68
-1412.97
-1422.97
-1431.8
-1439.65
-1446.68
-1453.08
-1458.95
-1464.36
-1469.34
-1473.82
-1477.75
-1480.97
-1483.34
-1484.71
-1484.94
-1483.95
-1481.67
-1478.05
-1473.06
-1466.6
-1458.53
-1448.53
-1435.89
-1420.4
-1403.94
-1403.32
-1407.54
)
;
    }
    inlet
    {
        type            calculated;
        value           uniform 0;
    }
    rWedge
    {
        type            wedge;
    }
    lWedge
    {
        type            wedge;
    }
    outlet
    {
        type            calculated;
        value           uniform 0;
    }
    procBoundary0to1
    {
        type            processor;
        value           uniform 0;
    }
    procBoundary0to2
    {
        type            processor;
        value           uniform 0;
    }
}


// ************************************************************************* //
