/*--------------------------------*- C++ -*----------------------------------*\
| =========                 |                                                 |
| \\      /  F ield         | OpenFOAM: The Open Source CFD Toolbox           |
|  \\    /   O peration     | Version:  v1706                                 |
|   \\  /    A nd           | Web:      www.OpenFOAM.com                      |
|    \\/     M anipulation  |                                                 |
\*---------------------------------------------------------------------------*/
FoamFile
{
    version     2.0;
    format      ascii;
    class       volScalarField;
    location    "1.5e-05";
    object      kappatr;
}
// * * * * * * * * * * * * * * * * * * * * * * * * * * * * * * * * * * * * * //

dimensions      [1 1 -3 -1 0 0 0];


internalField   nonuniform List<scalar> 
30038
(
0.014593
0.014593
0.014593
0.014593
0.014593
0.014593
0.014593
0.014593
0.014593
0.014593
0.014593
0.014593
0.014593
0.014593
0.014593
0.014593
0.014593
0.014593
0.014593
0.014593
0.014593
0.014593
0.014593
0.014593
0.014593
0.014593
0.014593
0.014593
0.014593
0.014593
0.014593
0.014593
0.014593
0.014593
0.014593
0.014593
0.014593
0.014593
0.014593
0.014593
0.014593
0.014593
0.014593
0.014593
0.014593
0.014593
0.014593
0.014593
0.014593
0.014593
0.014593
0.014593
0.014593
0.014593
0.014593
0.014593
0.014593
0.014593
0.014593
0.014593
0.014593
0.014593
0.014593
0.014593
0.014593
0.014593
0.014593
0.014593
0.014593
0.014593
0.014593
0.014593
0.014593
0.014593
0.014593
0.014593
0.014593
0.014593
0.014593
0.014593
0.014593
0.014593
0.014593
0.014593
0.014593
0.014593
0.014593
0.014593
0.014593
0.014593
0.014593
0.014593
0.014593
0.014593
0.014593
0.014593
0.014593
0.014593
0.014593
0.014593
0.014593
0.014593
0.014593
0.014593
0.014593
0.014593
0.014593
0.014593
0.014593
0.014593
0.014593
0.014593
0.014593
0.014593
0.014593
0.014593
0.014593
0.014593
0.014593
0.014593
0.014593
0.014593
0.014593
0.014593
0.014593
0.014593
0.014593
0.014593
0.014593
0.014593
0.014593
0.014593
0.014593
0.014593
0.014593
0.014593
0.014593
0.014593
0.014593
0.014593
0.014593
0.014593
0.014593
0.014593
0.014593
0.014593
0.014593
0.014593
0.014593
0.014593
0.014593
0.014593
0.014593
0.014593
0.014593
0.014593
0.014593
0.014593
0.014593
0.014593
0.014593
0.014593
0.014593
0.014593
0.014593
0.014593
0.014593
0.014593
0.014593
0.014593
0.014593
0.014593
0.014593
0.014593
0.014593
0.014593
0.014593
0.014593
0.014593
0.014593
0.014593
0.014593
0.014593
0.014593
0.014593
0.014593
0.014593
0.014593
0.014593
0.014593
0.014593
0.014593
0.014593
0.014593
0.014593
0.014593
0.014593
0.014593
0.014593
0.014593
0.014593
0.014593
0.014593
0.014593
0.014593
0.014593
0.014593
0.014593
0.014593
0.014593
0.014593
0.014593
0.014593
0.014593
0.014593
0.014593
0.014593
0.014593
0.014593
0.014593
0.014593
0.014593
0.014593
0.014593
0.014593
0.014593
0.014593
0.014593
0.014593
0.014593
0.014593
0.014593
0.014593
0.014593
0.014593
0.014593
0.014593
0.014593
0.014593
0.014593
0.014593
0.014593
0.014593
0.014593
0.014593
0.014593
0.014593
0.014593
0.014593
0.014593
0.014593
0.014593
0.014593
0.014593
0.014593
0.014593
0.014593
0.014593
0.014593
0.014593
0.014593
0.014593
0.014593
0.014593
0.014593
0.014593
0.014593
0.014593
0.014593
0.014593
0.014593
0.014593
0.014593
0.014593
0.014593
0.014593
0.014593
0.014593
0.014593
0.014593
0.014593
0.014593
0.014593
0.014593
0.014593
0.014593
0.014593
0.014593
0.014593
0.014593
0.014593
0.014593
0.014593
0.014593
0.014593
0.014593
0.014593
0.014593
0.014593
0.014593
0.014593
0.014593
0.014593
0.014593
0.014593
0.014593
0.014593
0.014593
0.014593
0.014593
0.014593
0.014593
0.014593
0.014593
0.014593
0.014593
0.014593
0.014593
0.014593
0.014593
0.014593
0.014593
0.014593
0.014593
0.014593
0.014593
0.014593
0.014593
0.014593
0.014593
0.014593
0.014593
0.014593
0.014593
0.014593
0.014593
0.014593
0.014593
0.014593
0.014593
0.014593
0.014593
0.014593
0.014593
0.014593
0.014593
0.014593
0.014593
0.014593
0.014593
0.014593
0.014593
0.014593
0.014593
0.014593
0.014593
0.014593
0.014593
0.014593
0.014593
0.014593
0.014593
0.014593
0.014593
0.014593
0.014593
0.014593
0.014593
0.014593
0.014593
0.014593
0.014593
0.014593
0.014593
0.014593
0.014593
0.014593
0.014593
0.014593
0.014593
0.014593
0.014593
0.014593
0.014593
0.014593
0.014593
0.014593
0.014593
0.014593
0.014593
0.014593
0.014593
0.014593
0.014593
0.014593
0.014593
0.014593
0.014593
0.014593
0.014593
0.014593
0.014593
0.014593
0.014593
0.014593
0.014593
0.014593
0.014593
0.014593
0.014593
0.014593
0.014593
0.014593
0.014593
0.014593
0.014593
0.014593
0.014593
0.014593
0.014593
0.014593
0.014593
0.014593
0.014593
0.014593
0.014593
0.014593
0.014593
0.014593
0.014593
0.014593
0.014593
0.014593
0.014593
0.014593
0.014593
0.014593
0.014593
0.014593
0.014593
0.014593
0.014593
0.014593
0.014593
0.014593
0.014593
0.014593
0.014593
0.014593
0.014593
0.014593
0.014593
0.014593
0.014593
0.014593
0.014593
0.014593
0.014593
0.014593
0.014593
0.014593
0.014593
0.014593
0.014593
0.014593
0.014593
0.014593
0.014593
0.014593
0.014593
0.014593
0.014593
0.014593
0.014593
0.014593
0.014593
0.014593
0.014593
0.014593
0.014593
0.014593
0.014593
0.014593
0.014593
0.014593
0.014593
0.014593
0.014593
0.014593
0.014593
0.014593
0.014593
0.014593
0.014593
0.014593
0.014593
0.014593
0.014593
0.014593
0.014593
0.014593
0.014593
0.014593
0.014593
0.014593
0.014593
0.014593
0.014593
0.014593
0.014593
0.014593
0.014593
0.014593
0.014593
0.014593
0.014593
0.014593
0.014593
0.014593
0.014593
0.014593
0.014593
0.014593
0.014593
0.014593
0.014593
0.014593
0.014593
0.014593
0.014593
0.014593
0.014593
0.014593
0.014593
0.014593
0.014593
0.014593
0.014593
0.014593
0.014593
0.014593
0.014593
0.014593
0.014593
0.014593
0.014593
0.014593
0.014593
0.014593
0.014593
0.014593
0.014593
0.014593
0.014593
0.014593
0.014593
0.014593
0.014593
0.014593
0.014593
0.014593
0.014593
0.014593
0.014593
0.014593
0.014593
0.014593
0.014593
0.014593
0.014593
0.014593
0.014593
0.014593
0.014593
0.014593
0.014593
0.014593
0.014593
0.014593
0.014593
0.014593
0.014593
0.014593
0.014593
0.014593
0.014593
0.014593
0.014593
0.014593
0.014593
0.014593
0.014593
0.014593
0.014593
0.014593
0.014593
0.014593
0.014593
0.014593
0.014593
0.014593
0.014593
0.014593
0.014593
0.014593
0.014593
0.014593
0.014593
0.014593
0.014593
0.014593
0.014593
0.014593
0.014593
0.014593
0.014593
0.014593
0.014593
0.014593
0.014593
0.014593
0.014593
0.014593
0.014593
0.014593
0.014593
0.014593
0.014593
0.014593
0.014593
0.014593
0.014593
0.014593
0.014593
0.014593
0.014593
0.014593
0.014593
0.014593
0.014593
0.014593
0.014593
0.014593
0.014593
0.014593
0.014593
0.014593
0.014593
0.014593
0.014593
0.014593
0.014593
0.014593
0.014593
0.014593
0.014593
0.014593
0.014593
0.014593
0.014593
0.014593
0.014593
0.014593
0.014593
0.014593
0.014593
0.014593
0.014593
0.014593
0.014593
0.014593
0.014593
0.014593
0.014593
0.014593
0.014593
0.014593
0.014593
0.014593
0.014593
0.014593
0.014593
0.014593
0.014593
0.014593
0.014593
0.014593
0.014593
0.014593
0.014593
0.014593
0.014593
0.014593
0.014593
0.014593
0.014593
0.014593
0.014593
0.014593
0.014593
0.014593
0.014593
0.014593
0.014593
0.014593
0.014593
0.014593
0.014593
0.014593
0.014593
0.014593
0.014593
0.014593
0.014593
0.014593
0.014593
0.014593
0.014593
0.014593
0.014593
0.014593
0.014593
0.014593
0.014593
0.014593
0.014593
0.014593
0.014593
0.014593
0.014593
0.014593
0.014593
0.014593
0.014593
0.014593
0.014593
0.014593
0.014593
0.014593
0.014593
0.014593
0.014593
0.014593
0.014593
0.014593
0.014593
0.014593
0.014593
0.014593
0.014593
0.014593
0.014593
0.014593
0.014593
0.014593
0.014593
0.014593
0.014593
0.014593
0.014593
0.014593
0.014593
0.014593
0.014593
0.014593
0.014593
0.014593
0.014593
0.014593
0.014593
0.014593
0.014593
0.014593
0.014593
0.014593
0.014593
0.014593
0.014593
0.014593
0.014593
0.014593
0.014593
0.014593
0.014593
0.014593
0.014593
0.014593
0.014593
0.014593
0.014593
0.014593
0.014593
0.014593
0.014593
0.014593
0.014593
0.014593
0.014593
0.014593
0.014593
0.014593
0.014593
0.014593
0.014593
0.014593
0.014593
0.014593
0.014593
0.014593
0.014593
0.014593
0.014593
0.014593
0.014593
0.014593
0.014593
0.014593
0.014593
0.014593
0.014593
0.014593
0.014593
0.014593
0.014593
0.014593
0.014593
0.014593
0.014593
0.014593
0.014593
0.014593
0.014593
0.014593
0.014593
0.014593
0.014593
0.014593
0.014593
0.014593
0.014593
0.014593
0.014593
0.014593
0.014593
0.014593
0.014593
0.014593
0.014593
0.014593
0.014593
0.014593
0.014593
0.014593
0.014593
0.014593
0.014593
0.014593
0.014593
0.014593
0.014593
0.014593
0.014593
0.014593
0.014593
0.014593
0.014593
0.014593
0.014593
0.014593
0.014593
0.014593
0.014593
0.014593
0.014593
0.014593
0.014593
0.014593
0.014593
0.014593
0.014593
0.014593
0.014593
0.014593
0.014593
0.014593
0.014593
0.014593
0.014593
0.014593
0.014593
0.014593
0.014593
0.014593
0.014593
0.014593
0.014593
0.014593
0.014593
0.014593
0.014593
0.014593
0.014593
0.014593
0.014593
0.014593
0.014593
0.014593
0.014593
0.014593
0.014593
0.014593
0.014593
0.014593
0.014593
0.014593
0.014593
0.014593
0.014593
0.014593
0.014593
0.014593
0.014593
0.014593
0.014593
0.014593
0.014593
0.014593
0.014593
0.014593
0.014593
0.014593
0.014593
0.014593
0.014593
0.014593
0.014593
0.014593
0.014593
0.014593
0.014593
0.014593
0.014593
0.014593
0.014593
0.014593
0.014593
0.014593
0.014593
0.014593
0.014593
0.014593
0.014593
0.014593
0.014593
0.014593
0.014593
0.014593
0.014593
0.014593
0.014593
0.014593
0.014593
0.014593
0.014593
0.014593
0.014593
0.014593
0.014593
0.014593
0.014593
0.014593
0.014593
0.014593
0.014593
0.014593
0.014593
0.014593
0.014593
0.014593
0.014593
0.014593
0.014593
0.014593
0.014593
0.014593
0.014593
0.014593
0.014593
0.014593
0.014593
0.014593
0.014593
0.014593
0.014593
0.014593
0.014593
0.014593
0.014593
0.014593
0.014593
0.014593
0.014593
0.014593
0.014593
0.014593
0.014593
0.014593
0.014593
0.014593
0.014593
0.014593
0.014593
0.014593
0.014593
0.014593
0.014593
0.014593
0.014593
0.014593
0.014593
0.014593
0.014593
0.014593
0.014593
0.014593
0.014593
0.014593
0.014593
0.014593
0.014593
0.014593
0.014593
0.014593
0.014593
0.014593
0.014593
0.014593
0.014593
0.014593
0.014593
0.014593
0.014593
0.014593
0.014593
0.014593
0.014593
0.014593
0.014593
0.014593
0.014593
0.014593
0.014593
0.014593
0.014593
0.014593
0.014593
0.014593
0.014593
0.014593
0.014593
0.014593
0.014593
0.014593
0.014593
0.014593
0.014593
0.014593
0.014593
0.014593
0.014593
0.014593
0.014593
0.014593
0.014593
0.014593
0.014593
0.014593
0.014593
0.014593
0.014593
0.014593
0.014593
0.014593
0.014593
0.014593
0.014593
0.014593
0.014593
0.014593
0.014593
0.014593
0.014593
0.014593
0.014593
0.014593
0.014593
0.014593
0.014593
0.014593
0.014593
0.014593
0.014593
0.014593
0.014593
0.014593
0.014593
0.014593
0.014593
0.014593
0.014593
0.014593
0.014593
0.014593
0.014593
0.014593
0.014593
0.014593
0.014593
0.014593
0.014593
0.014593
0.014593
0.014593
0.014593
0.014593
0.014593
0.014593
0.014593
0.014593
0.014593
0.014593
0.014593
0.014593
0.014593
0.014593
0.014593
0.014593
0.014593
0.014593
0.014593
0.014593
0.014593
0.014593
0.014593
0.014593
0.014593
0.014593
0.014593
0.014593
0.014593
0.014593
0.014593
0.014593
0.014593
0.014593
0.014593
0.014593
0.014593
0.014593
0.014593
0.014593
0.014593
0.014593
0.014593
0.014593
0.014593
0.014593
0.014593
0.014593
0.014593
0.014593
0.014593
0.014593
0.014593
0.014593
0.014593
0.014593
0.014593
0.014593
0.014593
0.014593
0.014593
0.014593
0.014593
0.014593
0.014593
0.014593
0.014593
0.014593
0.014593
0.014593
0.014593
0.014593
0.014593
0.014593
0.014593
0.014593
0.014593
0.014593
0.014593
0.014593
0.014593
0.014593
0.014593
0.014593
0.014593
0.014593
0.014593
0.014593
0.014593
0.014593
0.014593
0.014593
0.014593
0.014593
0.014593
0.014593
0.014593
0.014593
0.014593
0.014593
0.014593
0.014593
0.014593
0.014593
0.014593
0.014593
0.014593
0.014593
0.014593
0.014593
0.014593
0.014593
0.014593
0.014593
0.014593
0.014593
0.014593
0.014593
0.014593
0.014593
0.014593
0.014593
0.014593
0.014593
0.014593
0.014593
0.014593
0.014593
0.014593
0.014593
0.014593
0.014593
0.014593
0.014593
0.014593
0.014593
0.014593
0.014593
0.014593
0.014593
0.014593
0.014593
0.014593
0.014593
0.014593
0.014593
0.014593
0.014593
0.014593
0.014593
0.014593
0.014593
0.014593
0.014593
0.014593
0.014593
0.014593
0.014593
0.014593
0.014593
0.014593
0.014593
0.014593
0.014593
0.014593
0.014593
0.014593
0.014593
0.014593
0.014593
0.014593
0.014593
0.014593
0.014593
0.014593
0.014593
0.014593
0.014593
0.014593
0.014593
0.014593
0.014593
0.014593
0.014593
0.014593
0.014593
0.014593
0.014593
0.014593
0.014593
0.014593
0.014593
0.014593
0.014593
0.014593
0.014593
0.014593
0.014593
0.014593
0.014593
0.014593
0.014593
0.014593
0.014593
0.014593
0.014593
0.014593
0.014593
0.014593
0.014593
0.014593
0.014593
0.014593
0.014593
0.014593
0.014593
0.014593
0.014593
0.014593
0.014593
0.014593
0.014593
0.014593
0.014593
0.014593
0.014593
0.014593
0.014593
0.014593
0.014593
0.014593
0.014593
0.014593
0.014593
0.014593
0.014593
0.014593
0.014593
0.014593
0.014593
0.014593
0.014593
0.014593
0.014593
0.014593
0.014593
0.014593
0.014593
0.014593
0.014593
0.014593
0.014593
0.014593
0.014593
0.014593
0.014593
0.014593
0.014593
0.014593
0.014593
0.014593
0.014593
0.014593
0.014593
0.014593
0.014593
0.014593
0.014593
0.014593
0.0145931
0.0145931
0.014593
0.014593
0.014593
0.014593
0.014593
0.014593
0.014593
0.014593
0.014593
0.014593
0.014593
0.014593
0.014593
0.014593
0.014593
0.014593
0.014593
0.014593
0.014593
0.014593
0.014593
0.014593
0.014593
0.014593
0.014593
0.014593
0.014593
0.014593
0.014593
0.014593
0.014593
0.014593
0.014593
0.014593
0.014593
0.014593
0.014593
0.014593
0.014593
0.014593
0.014593
0.014593
0.014593
0.014593
0.014593
0.0145931
0.0145931
0.0145932
0.0145934
0.0145937
0.014593
0.014593
0.014593
0.014593
0.014593
0.014593
0.014593
0.014593
0.014593
0.014593
0.014593
0.014593
0.014593
0.014593
0.014593
0.014593
0.014593
0.014593
0.014593
0.014593
0.014593
0.014593
0.014593
0.014593
0.014593
0.014593
0.014593
0.014593
0.014593
0.014593
0.014593
0.014593
0.014593
0.014593
0.014593
0.014593
0.014593
0.014593
0.014593
0.014593
0.014593
0.014593
0.0145931
0.0145931
0.0145932
0.0145934
0.0145936
0.0145941
0.014595
0.0145967
0.014593
0.014593
0.014593
0.014593
0.014593
0.014593
0.014593
0.014593
0.014593
0.014593
0.014593
0.014593
0.014593
0.014593
0.014593
0.014593
0.014593
0.014593
0.014593
0.014593
0.014593
0.014593
0.014593
0.014593
0.014593
0.014593
0.014593
0.014593
0.014593
0.014593
0.014593
0.014593
0.014593
0.014593
0.014593
0.014593
0.014593
0.014593
0.014593
0.0145931
0.0145931
0.0145932
0.0145934
0.0145936
0.0145941
0.0145949
0.0145964
0.0145989
0.0146035
0.0146121
0.014593
0.014593
0.014593
0.014593
0.014593
0.014593
0.014593
0.014593
0.014593
0.014593
0.014593
0.014593
0.014593
0.014593
0.014593
0.014593
0.014593
0.014593
0.014593
0.014593
0.014593
0.014593
0.014593
0.014593
0.014593
0.014593
0.014593
0.014593
0.014593
0.014593
0.014593
0.014593
0.014593
0.014593
0.014593
0.0145931
0.0145931
0.0145931
0.0145932
0.0145934
0.0145937
0.0145941
0.014595
0.0145964
0.0145988
0.0146031
0.0146105
0.0146235
0.0146467
0.0146899
0.014593
0.014593
0.014593
0.014593
0.014593
0.014593
0.014593
0.014593
0.014593
0.014593
0.014593
0.014593
0.014593
0.014593
0.014593
0.014593
0.014593
0.014593
0.014593
0.014593
0.014593
0.014593
0.014593
0.014593
0.014593
0.014593
0.014593
0.014593
0.014593
0.014593
0.014593
0.014593
0.0145931
0.0145931
0.0145932
0.0145933
0.0145934
0.0145937
0.0145942
0.014595
0.0145965
0.0145989
0.0146031
0.0146103
0.0146227
0.0146442
0.0146815
0.0147463
0.0148599
0.0150655
0.014593
0.014593
0.014593
0.014593
0.014593
0.014593
0.014593
0.014593
0.014593
0.014593
0.014593
0.014593
0.014593
0.014593
0.014593
0.014593
0.014593
0.014593
0.014593
0.014593
0.014593
0.014593
0.014593
0.014593
0.014593
0.014593
0.014593
0.014593
0.014593
0.0145931
0.0145931
0.0145932
0.0145933
0.0145935
0.0145938
0.0145943
0.0145952
0.0145967
0.0145992
0.0146034
0.0146106
0.0146228
0.0146437
0.0146795
0.0147407
0.0148454
0.015024
0.0153267
0.0158351
0.0166868
0.014593
0.014593
0.014593
0.014593
0.014593
0.014593
0.014593
0.014593
0.014593
0.014593
0.014593
0.014593
0.014593
0.014593
0.014593
0.014593
0.014593
0.014593
0.014593
0.014593
0.014593
0.014593
0.014593
0.014593
0.014593
0.0145931
0.0145931
0.0145931
0.0145932
0.0145933
0.0145935
0.0145939
0.0145945
0.0145954
0.014597
0.0145996
0.014604
0.0146114
0.0146238
0.0146447
0.01468
0.0147396
0.0148404
0.0150101
0.0152937
0.0157611
0.0165145
0.0176893
0.019445
0.0219439
0.014593
0.014593
0.014593
0.014593
0.014593
0.014593
0.014593
0.014593
0.014593
0.014593
0.014593
0.014593
0.014593
0.014593
0.014593
0.014593
0.014593
0.014593
0.014593
0.014593
0.014593
0.014593
0.0145931
0.0145931
0.0145932
0.0145932
0.0145934
0.0145936
0.014594
0.0145947
0.0145957
0.0145974
0.0146003
0.0146049
0.0146127
0.0146256
0.0146471
0.0146828
0.0147426
0.0148423
0.015008
0.0152817
0.0157277
0.0164393
0.017539
0.0191657
0.0214465
0.0244605
0.0282187
0.0326558
0.014593
0.014593
0.014593
0.014593
0.014593
0.014593
0.014593
0.014593
0.014593
0.014593
0.014593
0.014593
0.014593
0.014593
0.014593
0.014593
0.014593
0.014593
0.0145931
0.0145931
0.0145931
0.0145932
0.0145933
0.0145935
0.0145938
0.0145942
0.014595
0.0145961
0.0145981
0.0146012
0.0146063
0.0146147
0.0146285
0.0146511
0.0146884
0.0147498
0.014851
0.0150171
0.015288
0.0157244
0.0164132
0.0174679
0.0190177
0.0211817
0.0240357
0.027586
0.031768
0.036466
0.0415472
0.0468708
0.014593
0.014593
0.014593
0.014593
0.014593
0.014593
0.014593
0.014593
0.014593
0.014593
0.014593
0.014593
0.014593
0.014593
0.014593
0.0145931
0.0145931
0.0145932
0.0145932
0.0145934
0.0145936
0.0145939
0.0145945
0.0145954
0.0145967
0.014599
0.0146025
0.0146083
0.0146176
0.0146326
0.0146571
0.0146969
0.0147617
0.0148671
0.0150379
0.0153129
0.0157502
0.0164322
0.0174652
0.0189696
0.021057
0.0238
0.0272088
0.0312271
0.0357477
0.0406381
0.0457647
0.0510077
0.0562717
0.0614643
0.014593
0.014593
0.014593
0.014593
0.014593
0.014593
0.014593
0.014593
0.014593
0.014593
0.014593
0.014593
0.0145931
0.0145931
0.0145931
0.0145932
0.0145933
0.0145935
0.0145938
0.0145942
0.0145949
0.0145959
0.0145976
0.0146002
0.0146043
0.014611
0.0146215
0.0146385
0.0146656
0.0147093
0.0147794
0.0148919
0.015072
0.0153579
0.0158067
0.0164971
0.0175297
0.0190167
0.0210612
0.0237304
0.0270353
0.0309259
0.0353056
0.0400525
0.0450407
0.0501535
0.0552892
0.0603612
0.0652918
0.0700141
0.074483
0.014593
0.014593
0.014593
0.014593
0.014593
0.014593
0.014593
0.014593
0.0145931
0.0145931
0.0145931
0.0145932
0.0145933
0.0145934
0.0145937
0.014594
0.0145945
0.0145954
0.0145967
0.0145987
0.0146019
0.0146068
0.0146147
0.014627
0.0146465
0.0146774
0.0147265
0.0148042
0.0149275
0.0151219
0.0154265
0.0158975
0.0166116
0.0176644
0.0191602
0.0211927
0.023822
0.0270561
0.0308486
0.0351107
0.0397308
0.0445925
0.0495868
0.0546176
0.0596031
0.064469
0.0691448
0.0735707
0.0776951
0.0814531
0.0847948
0.014593
0.014593
0.014593
0.014593
0.014593
0.0145931
0.0145931
0.0145931
0.0145932
0.0145933
0.0145934
0.0145936
0.0145939
0.0145943
0.014595
0.0145961
0.0145978
0.0146003
0.0146042
0.0146103
0.0146198
0.0146345
0.0146576
0.0146937
0.0147501
0.0148385
0.0149767
0.0151918
0.0155236
0.0160289
0.0167828
0.0178764
0.019406
0.0214556
0.0240756
0.0272691
0.0309906
0.0351571
0.0396659
0.0444104
0.0492899
0.0542156
0.0591107
0.0639077
0.0685404
0.0729497
0.0770832
0.0808875
0.0842955
0.0872409
0.0896743
0.0916228
0.014593
0.0145931
0.0145931
0.0145931
0.0145932
0.0145933
0.0145934
0.0145936
0.0145938
0.0145942
0.0145949
0.0145958
0.0145972
0.0145993
0.0146026
0.0146076
0.0146152
0.014627
0.014645
0.0146729
0.014716
0.0147826
0.0148856
0.0150442
0.0152874
0.0156569
0.0162103
0.0170214
0.0181771
0.0197653
0.0218588
0.0244974
0.0276775
0.0313523
0.0354434
0.0398559
0.0444922
0.0492605
0.054079
0.0588765
0.0635911
0.0681638
0.0725377
0.0766629
0.0804929
0.0839722
0.0870354
0.0896273
0.0917235
0.093347
0.0945506
0.0954337
0.0145932
0.0145933
0.0145934
0.0145936
0.0145938
0.0145942
0.0145948
0.0145956
0.0145969
0.0145988
0.0146016
0.0146059
0.0146124
0.0146222
0.0146371
0.0146598
0.0146944
0.0147471
0.0148275
0.0149501
0.0151363
0.0154174
0.0158373
0.0164548
0.0173428
0.0185828
0.0202539
0.0224164
0.0250985
0.0282884
0.0319372
0.0359699
0.0402989
0.0448352
0.0494957
0.0542061
0.058901
0.0635238
0.0680222
0.0723432
0.0764392
0.0802673
0.0837813
0.0869246
0.0896396
0.0918894
0.0936718
0.0950257
0.0960142
0.0967161
0.0972011
0.0975419
0.0145938
0.0145942
0.0145948
0.0145956
0.0145968
0.0145985
0.0146012
0.014605
0.0146108
0.0146195
0.0146324
0.0146518
0.0146809
0.0147247
0.0147907
0.01489
0.0150392
0.0152624
0.0155938
0.0160799
0.0167807
0.0177673
0.0191153
0.0208929
0.0231474
0.0258941
0.0291126
0.0327518
0.0367399
0.0409959
0.0454394
0.0499956
0.0545977
0.0591868
0.0637106
0.0681227
0.0723753
0.0764232
0.0802256
0.0837434
0.086929
0.0897281
0.0920968
0.0940177
0.0955098
0.0966237
0.0974243
0.0979843
0.0983653
0.0986218
0.098793
0.0989032
0.0145969
0.0145986
0.0146011
0.0146048
0.0146102
0.0146182
0.0146299
0.0146473
0.0146731
0.0147113
0.0147681
0.0148525
0.0149778
0.0151632
0.015436
0.0158337
0.0164055
0.0172121
0.0183216
0.0198018
0.0217086
0.0240747
0.0269027
0.0301641
0.0338056
0.0377587
0.0419492
0.0463048
0.0507591
0.0552525
0.0597321
0.0641508
0.0684664
0.0726372
0.0766207
0.0803786
0.0838757
0.0870718
0.0899189
0.0923712
0.0944022
0.0960147
0.0972431
0.0981432
0.0987806
0.0992202
0.0995127
0.0997052
0.0998259
0.0998906
0.0999343
0.0999696
0.0146104
0.0146182
0.0146294
0.0146457
0.0146696
0.0147047
0.014756
0.0148312
0.0149414
0.0151026
0.0153373
0.0156764
0.016161
0.0168425
0.0177809
0.0190394
0.0206756
0.0227315
0.0252248
0.0281456
0.0314584
0.0351088
0.0390322
0.0431612
0.0474316
0.0517848
0.0561684
0.0605354
0.0648436
0.069055
0.0731327
0.0770382
0.0807352
0.0841907
0.087371
0.0902347
0.0927379
0.0948482
0.0965571
0.0978852
0.0988782
0.0995927
0.10009
0.100424
0.100642
0.100781
0.100855
0.100889
0.100914
0.100919
0.100895
0.10085
0.01467
0.0147036
0.0147522
0.0148225
0.0149242
0.0150709
0.015282
0.0155837
0.0160112
0.0166085
0.0174281
0.0185273
0.0199613
0.0217753
0.0239958
0.026626
0.0296449
0.0330116
0.0366722
0.0405667
0.0446349
0.0488203
0.0530719
0.057344
0.0615952
0.065788
0.0698882
0.0738631
0.077678
0.0812993
0.0846962
0.0878391
0.0906926
0.0932163
0.0953762
0.0971565
0.0985663
0.0996393
0.100425
0.100978
0.101356
0.101603
0.101756
0.101844
0.10188
0.101894
0.101895
0.101875
0.101826
0.101759
0.10168
0.101597
0.0150629
0.0152614
0.0155419
0.0159348
0.0164789
0.0172204
0.0182104
0.0195002
0.0211342
0.0231429
0.0255372
0.0283067
0.0314219
0.0348389
0.0385058
0.042368
0.0463727
0.0504709
0.0546187
0.0587765
0.0629081
0.0669804
0.0709627
0.0748261
0.0785399
0.0820727
0.0853962
0.0884834
0.091304
0.0938222
0.0960046
0.0978305
0.0993003
0.100438
0.101286
0.101892
0.10231
0.102586
0.102757
0.102857
0.1029
0.102903
0.102896
0.102878
0.102831
0.102761
0.102677
0.102583
0.102485
0.102388
0.102295
0.0164364
0.017132
0.0180536
0.0192476
0.0207558
0.0226089
0.0248216
0.0273901
0.0302932
0.0334956
0.0369531
0.0406173
0.0444401
0.0483756
0.0523821
0.0564222
0.0604619
0.0644697
0.0684165
0.0722751
0.0760195
0.0796227
0.083056
0.0862927
0.0893085
0.0920772
0.0945671
0.0967467
0.0985933
0.100102
0.101288
0.102186
0.102836
0.103291
0.103595
0.103783
0.103893
0.103945
0.103945
0.103929
0.103904
0.103859
0.103787
0.103699
0.103599
0.103492
0.103383
0.103275
0.103167
0.103061
0.102958
0.0206069
0.0223546
0.0244363
0.0268516
0.0295846
0.0326067
0.0358802
0.0393629
0.0430115
0.0467845
0.0506429
0.0545516
0.0584788
0.0623957
0.066275
0.0700913
0.0738202
0.0774387
0.0809227
0.0842461
0.0873846
0.0903155
0.0930159
0.095458
0.0976126
0.0994574
0.100983
0.102199
0.103132
0.103819
0.104305
0.104632
0.104837
0.104956
0.105015
0.105014
0.10499
0.104956
0.104908
0.104834
0.104742
0.104639
0.104524
0.104406
0.104286
0.104168
0.104049
0.103932
0.103815
0.103699
0.103585
0.0321428
0.0352612
0.0385838
0.0420723
0.0456894
0.0493999
0.0531715
0.0569747
0.060783
0.0645716
0.0683174
0.0719977
0.0755912
0.0790773
0.0824344
0.085639
0.0886687
0.0915028
0.0941207
0.0964983
0.0986091
0.100431
0.101953
0.103181
0.104134
0.104846
0.105354
0.105701
0.10592
0.106047
0.106109
0.106111
0.106083
0.106036
0.105979
0.105907
0.105811
0.105702
0.10558
0.105452
0.105323
0.105194
0.105065
0.104936
0.104808
0.104681
0.104554
0.104426
0.1043
0.104175
0.04508
0.0486476
0.0522817
0.0559554
0.0596446
0.0633271
0.0669818
0.0705885
0.0741277
0.0775802
0.0809277
0.0841508
0.0872284
0.09014
0.0928668
0.0953901
0.0976886
0.0997385
0.101519
0.103019
0.104241
0.1052
0.105923
0.106445
0.106806
0.107034
0.107167
0.107231
0.107235
0.107202
0.107145
0.107078
0.107
0.1069
0.106785
0.10666
0.106525
0.106385
0.106245
0.106105
0.105966
0.105827
0.105689
0.105551
0.105414
0.105277
0.105139
0.105001
0.104864
0.104728
0.0589862
0.0625525
0.066102
0.0696166
0.0730788
0.0764713
0.0797774
0.0829805
0.0860633
0.0890065
0.0917917
0.0944016
0.0968195
0.0990263
0.101001
0.102724
0.104185
0.105384
0.106333
0.107055
0.107583
0.107948
0.108182
0.108318
0.108383
0.108383
0.108348
0.108284
0.108203
0.108117
0.108016
0.107893
0.107762
0.107619
0.10747
0.107319
0.10717
0.10702
0.106871
0.106722
0.106574
0.106426
0.106279
0.106131
0.105984
0.105836
0.105688
0.10554
0.105392
0.105244
0.0724644
0.0757764
0.079017
0.0821713
0.0852246
0.0881611
0.0909633
0.0936146
0.0960994
0.0984025
0.100507
0.102393
0.104045
0.105451
0.106612
0.107537
0.108247
0.108769
0.109132
0.109366
0.109502
0.109562
0.109559
0.109521
0.109449
0.109356
0.109259
0.109152
0.109023
0.108883
0.108737
0.108579
0.108419
0.108258
0.108098
0.107937
0.107778
0.10762
0.107462
0.107305
0.107147
0.10699
0.106832
0.106675
0.106517
0.106359
0.1062
0.106041
0.105883
0.105724
0.0847491
0.0876475
0.0904322
0.0930874
0.0955981
0.0979503
0.10013
0.102123
0.10391
0.105478
0.106817
0.107926
0.108815
0.1095
0.110006
0.110359
0.110586
0.110717
0.110771
0.110763
0.11072
0.110639
0.110536
0.110427
0.11031
0.110177
0.110029
0.109874
0.109709
0.109539
0.109369
0.109198
0.109028
0.108858
0.10869
0.108521
0.108353
0.108186
0.108019
0.107852
0.107685
0.107518
0.10735
0.107182
0.107014
0.106846
0.106676
0.106507
0.106337
0.106167
0.0953654
0.0977296
0.0999428
0.101993
0.103865
0.105544
0.107018
0.108278
0.109324
0.110164
0.110813
0.111294
0.111629
0.111844
0.111965
0.11201
0.111994
0.111943
0.111855
0.111741
0.111619
0.111491
0.111353
0.111196
0.111032
0.110862
0.110683
0.110502
0.110321
0.11014
0.10996
0.109781
0.109603
0.109425
0.109247
0.10907
0.108894
0.108717
0.10854
0.108364
0.108187
0.10801
0.107832
0.107654
0.107476
0.107297
0.107117
0.106936
0.106756
0.106575
0.103977
0.105722
0.107285
0.108656
0.109827
0.1108
0.111581
0.112186
0.112634
0.112943
0.11314
0.113247
0.113278
0.113253
0.113192
0.113094
0.112969
0.112835
0.112696
0.112547
0.112384
0.112211
0.112033
0.111846
0.111655
0.111465
0.111274
0.111084
0.110894
0.110705
0.110517
0.11033
0.110143
0.109957
0.109771
0.109585
0.109399
0.109213
0.109027
0.108841
0.108654
0.108467
0.108279
0.108091
0.107902
0.107712
0.107522
0.107331
0.10714
0.106948
0.111457
0.112348
0.113063
0.113615
0.114022
0.114299
0.114473
0.114561
0.114574
0.114539
0.114466
0.114356
0.11422
0.114075
0.113923
0.113763
0.113594
0.113411
0.113223
0.113029
0.112829
0.112629
0.112428
0.112228
0.112028
0.111829
0.111631
0.111434
0.111237
0.111041
0.110845
0.11065
0.110455
0.11026
0.110065
0.10987
0.109674
0.109478
0.109282
0.109086
0.108888
0.10869
0.108492
0.108293
0.108093
0.107892
0.10769
0.107488
0.107286
0.115095
0.115453
0.115695
0.11584
0.115905
0.115898
0.11585
0.115763
0.11564
0.115494
0.115336
0.115171
0.115
0.114822
0.11463
0.114433
0.114231
0.114023
0.113811
0.113602
0.113392
0.113181
0.112973
0.112765
0.112558
0.112351
0.112146
0.111941
0.111736
0.111531
0.111327
0.111123
0.110919
0.110715
0.11051
0.110306
0.110101
0.109895
0.109689
0.109483
0.109275
0.109067
0.108859
0.108649
0.108439
0.108227
0.108015
0.107803
0.107589
0.117239
0.117275
0.117251
0.117185
0.117081
0.116945
0.116787
0.116616
0.11644
0.116256
0.116067
0.115868
0.11566
0.11545
0.115234
0.115013
0.114793
0.114574
0.114354
0.114135
0.113918
0.1137
0.113484
0.113269
0.113055
0.11284
0.112627
0.112414
0.112201
0.111988
0.111775
0.111562
0.111348
0.111135
0.110921
0.110707
0.110493
0.110278
0.110062
0.109845
0.109628
0.10941
0.109191
0.108971
0.10875
0.108529
0.108306
0.108083
0.107858
0.118418
0.118268
0.118098
0.117915
0.117725
0.117531
0.117331
0.117122
0.116905
0.116685
0.116461
0.116231
0.116001
0.115773
0.115544
0.115315
0.115088
0.114861
0.114636
0.114411
0.114187
0.113964
0.113741
0.113519
0.113297
0.113075
0.112853
0.112632
0.11241
0.112188
0.111967
0.111744
0.111522
0.111299
0.111075
0.110851
0.110626
0.1104
0.110174
0.109947
0.109719
0.109489
0.109259
0.109028
0.108796
0.108563
0.108329
0.108094
0.119229
0.119028
0.118821
0.11861
0.118392
0.118166
0.117936
0.117703
0.117465
0.117225
0.116988
0.11675
0.116511
0.116275
0.116039
0.115804
0.11557
0.115337
0.115105
0.114873
0.114642
0.114411
0.11418
0.11395
0.11372
0.11349
0.11326
0.11303
0.112799
0.112569
0.112338
0.112107
0.111875
0.111642
0.111409
0.111175
0.110941
0.110705
0.110469
0.110232
0.109994
0.109754
0.109514
0.109273
0.10903
0.108787
0.108543
0.108297
0.119676
0.119441
0.119201
0.118959
0.118713
0.118465
0.118218
0.117971
0.117723
0.117477
0.117233
0.116989
0.116746
0.116504
0.116262
0.116021
0.115781
0.115542
0.115303
0.115064
0.114825
0.114587
0.114348
0.11411
0.113872
0.113633
0.113395
0.113155
0.112916
0.112676
0.112435
0.112194
0.111953
0.11171
0.111467
0.111222
0.110977
0.110731
0.110484
0.110235
0.109986
0.109736
0.109484
0.109231
0.108978
0.108723
0.108468
0.120229
0.119974
0.119717
0.11946
0.119205
0.118949
0.118694
0.118441
0.118188
0.117936
0.117685
0.117435
0.117185
0.116936
0.116688
0.116441