/*--------------------------------*- C++ -*----------------------------------*\
| =========                 |                                                 |
| \\      /  F ield         | OpenFOAM: The Open Source CFD Toolbox           |
|  \\    /   O peration     | Version:  v1706                                 |
|   \\  /    A nd           | Web:      www.OpenFOAM.com                      |
|    \\/     M anipulation  |                                                 |
\*---------------------------------------------------------------------------*/
FoamFile
{
    version     2.0;
    format      ascii;
    class       volScalarField;
    location    "1.5e-05";
    object      Mach;
}
// * * * * * * * * * * * * * * * * * * * * * * * * * * * * * * * * * * * * * //

dimensions      [0 0 0 0 0 0 0];


internalField   nonuniform List<scalar> 
30038
(
11.2859
11.2859
11.2859
11.2859
11.2859
11.2859
11.2859
11.2859
11.2859
11.2859
11.2859
11.2859
11.2859
11.2859
11.2859
11.2859
11.2859
11.2859
11.2859
11.2859
11.2859
11.2859
11.2859
11.2859
11.2859
11.2859
11.2859
11.2859
11.2859
11.2859
11.2859
11.2859
11.2859
11.2859
11.2859
11.2859
11.2859
11.2859
11.2859
11.2859
11.2859
11.2859
11.2859
11.2859
11.2859
11.2859
11.2859
11.2859
11.2859
11.2859
11.2859
11.2859
11.2859
11.2859
11.2859
11.2859
11.2859
11.2859
11.2859
11.2859
11.2859
11.2859
11.2859
11.2859
11.2859
11.2859
11.2859
11.2859
11.2859
11.2859
11.2859
11.2859
11.2859
11.2859
11.2859
11.2859
11.2859
11.2859
11.2859
11.2859
11.2859
11.2859
11.2859
11.2859
11.2859
11.2859
11.2859
11.2859
11.2859
11.2859
11.2859
11.2859
11.2859
11.2859
11.2859
11.2859
11.2859
11.2859
11.2859
11.2859
11.2859
11.2859
11.2859
11.2859
11.2859
11.2859
11.2859
11.2859
11.2859
11.2859
11.2859
11.2859
11.2859
11.2859
11.2859
11.2859
11.2859
11.2859
11.2859
11.2859
11.2859
11.2859
11.2859
11.2859
11.2859
11.2859
11.2859
11.2859
11.2859
11.2859
11.2859
11.2859
11.2859
11.2859
11.2859
11.2859
11.2859
11.2859
11.2859
11.2859
11.2859
11.2859
11.2859
11.2859
11.2859
11.2859
11.2859
11.2859
11.2859
11.2859
11.2859
11.2859
11.2859
11.2859
11.2859
11.2859
11.2859
11.2859
11.2859
11.2859
11.2859
11.2859
11.2859
11.2859
11.2859
11.2859
11.2859
11.2859
11.2859
11.2859
11.2859
11.2859
11.2859
11.2859
11.2859
11.2859
11.2859
11.2859
11.2859
11.2859
11.2859
11.2859
11.2859
11.2859
11.2859
11.2859
11.2859
11.2859
11.2859
11.2859
11.2859
11.2859
11.2859
11.2859
11.2859
11.2859
11.2859
11.2859
11.2859
11.2859
11.2859
11.2859
11.2859
11.2859
11.2859
11.2859
11.2859
11.2859
11.2859
11.2859
11.2859
11.2859
11.2859
11.2859
11.2859
11.2859
11.2859
11.2859
11.2859
11.2859
11.2859
11.2859
11.2859
11.2859
11.2859
11.2859
11.2859
11.2859
11.2859
11.2859
11.2859
11.2859
11.2859
11.2859
11.2859
11.2859
11.2859
11.2859
11.2859
11.2859
11.2859
11.2859
11.2859
11.2859
11.2859
11.2859
11.2859
11.2859
11.2859
11.2859
11.2859
11.2859
11.2859
11.2859
11.2859
11.2859
11.2859
11.2859
11.2859
11.2859
11.2859
11.2859
11.2859
11.2859
11.2859
11.2859
11.2859
11.2859
11.2859
11.2859
11.2859
11.2859
11.2859
11.2859
11.2859
11.2859
11.2859
11.2859
11.2859
11.2859
11.2859
11.2859
11.2859
11.2859
11.2859
11.2859
11.2859
11.2859
11.2859
11.2859
11.2859
11.2859
11.2859
11.2859
11.2859
11.2859
11.2859
11.2859
11.2859
11.2859
11.2859
11.2859
11.2859
11.2859
11.2859
11.2859
11.2859
11.2859
11.2859
11.2859
11.2859
11.2859
11.2859
11.2859
11.2859
11.2859
11.2859
11.2859
11.2859
11.2859
11.2859
11.2859
11.2859
11.2859
11.2859
11.2859
11.2859
11.2859
11.2859
11.2859
11.2859
11.2859
11.2859
11.2859
11.2859
11.2859
11.2859
11.2859
11.2859
11.2859
11.2859
11.2859
11.2859
11.2859
11.2859
11.2859
11.2859
11.2859
11.2859
11.2859
11.2859
11.2859
11.2859
11.2859
11.2859
11.2859
11.2859
11.2859
11.2859
11.2859
11.2859
11.2859
11.2859
11.2859
11.2859
11.2859
11.2859
11.2859
11.2859
11.2859
11.2859
11.2859
11.2859
11.2859
11.2859
11.2859
11.2859
11.2859
11.2859
11.2859
11.2859
11.2859
11.2859
11.2859
11.2859
11.2859
11.2859
11.2859
11.2859
11.2859
11.2859
11.2859
11.2859
11.2859
11.2859
11.2859
11.2859
11.2859
11.2859
11.2859
11.2859
11.2859
11.2859
11.2859
11.2859
11.2859
11.2859
11.2859
11.2859
11.2859
11.2859
11.2859
11.2859
11.2859
11.2859
11.2859
11.2859
11.2859
11.2859
11.2859
11.2859
11.2859
11.2859
11.2859
11.2859
11.2859
11.2859
11.2859
11.2859
11.2859
11.2859
11.2859
11.2859
11.2859
11.2859
11.2859
11.2859
11.2859
11.2859
11.2859
11.2859
11.2859
11.2859
11.2859
11.2859
11.2859
11.2859
11.2859
11.2859
11.2859
11.2859
11.2859
11.2859
11.2859
11.2859
11.2859
11.2859
11.2859
11.2859
11.2859
11.2859
11.2859
11.2859
11.2859
11.2859
11.2859
11.2859
11.2859
11.2859
11.2859
11.2859
11.2859
11.2859
11.2859
11.2859
11.2859
11.2859
11.2859
11.2859
11.2859
11.2859
11.2859
11.2859
11.2859
11.2859
11.2859
11.2859
11.2859
11.2859
11.2859
11.2859
11.2859
11.2859
11.2859
11.2859
11.2859
11.2859
11.2859
11.2859
11.2859
11.2859
11.2859
11.2859
11.2859
11.2859
11.2859
11.2859
11.2859
11.2859
11.2859
11.2859
11.2859
11.2859
11.2859
11.2859
11.2859
11.2859
11.2859
11.2859
11.2859
11.2859
11.2859
11.2859
11.2859
11.2859
11.2859
11.2859
11.2859
11.2859
11.2859
11.2859
11.2859
11.2859
11.2859
11.2859
11.2859
11.2859
11.2859
11.2859
11.2859
11.2859
11.2859
11.2859
11.2859
11.2859
11.2859
11.2859
11.2859
11.2859
11.2859
11.2859
11.2859
11.2859
11.2859
11.2859
11.2859
11.2859
11.2859
11.2859
11.2859
11.2859
11.2859
11.2859
11.2859
11.2859
11.2859
11.2859
11.2859
11.2859
11.2859
11.2859
11.2859
11.2859
11.2859
11.2859
11.2859
11.2859
11.2859
11.2859
11.2859
11.2859
11.2859
11.2859
11.2859
11.2859
11.2859
11.2859
11.2859
11.2859
11.2859
11.2859
11.2859
11.2859
11.2859
11.2859
11.2859
11.2859
11.2859
11.2859
11.2859
11.2859
11.2859
11.2859
11.2859
11.2859
11.2859
11.2859
11.2859
11.2859
11.2859
11.2859
11.2859
11.2859
11.2859
11.2859
11.2859
11.2859
11.2859
11.2859
11.2859
11.2859
11.2859
11.2859
11.2859
11.2859
11.2859
11.2859
11.2859
11.2859
11.2859
11.2859
11.2859
11.2859
11.2859
11.2859
11.2859
11.2859
11.2859
11.2859
11.2859
11.2859
11.2859
11.2859
11.2859
11.2859
11.2859
11.2859
11.2859
11.2859
11.2859
11.2859
11.2859
11.2859
11.2859
11.2859
11.2859
11.2859
11.2859
11.2859
11.2859
11.2859
11.2859
11.2859
11.2859
11.2859
11.2859
11.2859
11.2859
11.2859
11.2859
11.2859
11.2859
11.2859
11.2859
11.2859
11.2859
11.2859
11.2859
11.2859
11.2859
11.2859
11.2859
11.2859
11.2859
11.2859
11.2859
11.2859
11.2859
11.2859
11.2859
11.2859
11.2859
11.2859
11.2859
11.2859
11.2859
11.2859
11.2859
11.2859
11.2859
11.2859
11.2859
11.2859
11.2859
11.2859
11.2859
11.2859
11.2859
11.2859
11.2859
11.2859
11.2859
11.2859
11.2859
11.2859
11.2859
11.2859
11.2859
11.2859
11.2859
11.2859
11.2859
11.2859
11.2859
11.2859
11.2859
11.2859
11.2859
11.2859
11.2859
11.2859
11.2859
11.2859
11.2859
11.2859
11.2859
11.2859
11.2859
11.2859
11.2859
11.2859
11.2859
11.2859
11.2859
11.2859
11.2859
11.2859
11.2859
11.2859
11.2859
11.2859
11.2859
11.2859
11.2859
11.2859
11.2859
11.2859
11.2859
11.2859
11.2859
11.2859
11.2859
11.2859
11.2859
11.2859
11.2859
11.2859
11.2859
11.2859
11.2859
11.2859
11.2859
11.2859
11.2859
11.2859
11.2859
11.2859
11.2859
11.2859
11.2859
11.2859
11.2859
11.2859
11.2859
11.2859
11.2859
11.2859
11.2859
11.2859
11.2859
11.2859
11.2859
11.2859
11.2859
11.2859
11.2859
11.2859
11.2859
11.2859
11.2859
11.2859
11.2859
11.2859
11.2859
11.2859
11.2859
11.2859
11.2859
11.2859
11.2859
11.2859
11.2859
11.2859
11.2859
11.2859
11.2859
11.2859
11.2859
11.2859
11.2859
11.2859
11.2859
11.2859
11.2859
11.2859
11.2859
11.2859
11.2859
11.2859
11.2859
11.2859
11.2859
11.2859
11.2859
11.2859
11.2859
11.2859
11.2859
11.2859
11.2859
11.2859
11.2859
11.2859
11.2859
11.2859
11.2859
11.2859
11.2859
11.2859
11.2859
11.2859
11.2859
11.2859
11.2859
11.2859
11.2859
11.2859
11.2859
11.2859
11.2859
11.2859
11.2859
11.2859
11.2859
11.2859
11.2859
11.2859
11.2859
11.2859
11.2859
11.2859
11.2859
11.2859
11.2859
11.2859
11.2859
11.2859
11.2859
11.2859
11.2859
11.2859
11.2859
11.2859
11.2859
11.2859
11.2859
11.2859
11.2859
11.2859
11.2859
11.2859
11.2859
11.2859
11.2859
11.2859
11.2859
11.2859
11.2859
11.2859
11.2859
11.2859
11.2859
11.2859
11.2859
11.2859
11.2859
11.2859
11.2859
11.2859
11.2859
11.2859
11.2859
11.2859
11.2859
11.2859
11.2859
11.2859
11.2859
11.2859
11.2859
11.2859
11.2859
11.2859
11.2859
11.2859
11.2859
11.2859
11.2859
11.2859
11.2859
11.2859
11.2859
11.2859
11.2859
11.2859
11.2859
11.2859
11.2859
11.2859
11.2859
11.2859
11.2859
11.2859
11.2859
11.2859
11.2859
11.2859
11.2859
11.2859
11.2859
11.2859
11.2859
11.2859
11.2859
11.2859
11.2859
11.2859
11.2859
11.2859
11.2859
11.2859
11.2859
11.2859
11.2859
11.2859
11.2859
11.2859
11.2859
11.2859
11.2859
11.2859
11.2859
11.2859
11.2859
11.2859
11.2859
11.2859
11.2859
11.2859
11.2859
11.2859
11.2859
11.2859
11.2859
11.2859
11.2859
11.2859
11.2859
11.2859
11.2859
11.2859
11.2859
11.2859
11.2859
11.2859
11.2859
11.2859
11.2859
11.2859
11.2859
11.2859
11.2859
11.2859
11.2859
11.2859
11.2859
11.2859
11.2859
11.2859
11.2859
11.2859
11.2859
11.2859
11.2859
11.2859
11.2859
11.2859
11.2859
11.2859
11.2859
11.2859
11.2859
11.2859
11.2859
11.2859
11.2859
11.2859
11.2859
11.2859
11.2859
11.2859
11.2859
11.2859
11.2859
11.2859
11.2859
11.2859
11.2859
11.2859
11.2859
11.2859
11.2859
11.2859
11.2859
11.2859
11.2859
11.2859
11.2859
11.2859
11.2859
11.2859
11.2859
11.2859
11.2859
11.2859
11.2859
11.2859
11.2859
11.2859
11.2859
11.2859
11.2859
11.2859
11.2859
11.2859
11.2859
11.2859
11.2859
11.2859
11.2859
11.2859
11.2859
11.2859
11.2859
11.2859
11.2859
11.2859
11.2859
11.2859
11.2859
11.2859
11.2859
11.2859
11.2859
11.2859
11.2859
11.2859
11.2859
11.2859
11.2859
11.2859
11.2859
11.2859
11.2859
11.2859
11.2859
11.2859
11.2859
11.2859
11.2859
11.2859
11.2859
11.2859
11.2859
11.2859
11.2859
11.2859
11.2859
11.2859
11.2859
11.2859
11.2859
11.2859
11.2859
11.2859
11.2859
11.2859
11.2859
11.2859
11.2859
11.2859
11.2859
11.2859
11.2859
11.2859
11.2859
11.2859
11.2859
11.2859
11.2859
11.2859
11.2859
11.2859
11.2859
11.2859
11.2859
11.2859
11.2859
11.2859
11.2859
11.2859
11.2859
11.2859
11.2859
11.2859
11.2859
11.2859
11.2859
11.2859
11.2859
11.2859
11.2859
11.2859
11.2859
11.2859
11.2859
11.2859
11.2859
11.2859
11.2859
11.2859
11.2859
11.2859
11.2859
11.2859
11.2859
11.2859
11.2859
11.2859
11.2859
11.2859
11.2859
11.2859
11.2859
11.2859
11.2859
11.2859
11.2859
11.2859
11.2859
11.2859
11.2859
11.2859
11.2859
11.2859
11.2859
11.2859
11.2859
11.2859
11.2859
11.2859
11.2859
11.2859
11.2859
11.2859
11.2859
11.2859
11.2859
11.2859
11.2859
11.2859
11.2859
11.2859
11.2859
11.2859
11.2859
11.2859
11.2859
11.2859
11.2859
11.2859
11.2859
11.2859
11.2859
11.2859
11.2859
11.2859
11.2859
11.2859
11.2859
11.2859
11.2859
11.2859
11.2859
11.2859
11.2859
11.2859
11.2859
11.2859
11.2859
11.2859
11.2859
11.2859
11.2859
11.2859
11.2859
11.2859
11.2859
11.2859
11.2859
11.2859
11.2859
11.2859
11.2859
11.2859
11.2859
11.2859
11.2859
11.2859
11.2859
11.2859
11.2859
11.2859
11.2859
11.2859
11.2859
11.2859
11.2859
11.2859
11.2859
11.2859
11.2859
11.2859
11.2859
11.2859
11.2859
11.2859
11.2859
11.2859
11.2859
11.2859
11.2859
11.2859
11.2859
11.2859
11.2859
11.2859
11.2859
11.2859
11.2859
11.2859
11.2859
11.2859
11.2859
11.2859
11.2859
11.2859
11.2859
11.2859
11.2859
11.2859
11.2859
11.2859
11.2859
11.2859
11.2859
11.2859
11.2859
11.2859
11.2859
11.2859
11.2859
11.2859
11.2859
11.2859
11.2859
11.2859
11.2859
11.2859
11.2859
11.2859
11.2859
11.2859
11.2859
11.2859
11.2859
11.2859
11.2859
11.2859
11.2859
11.2859
11.2859
11.2859
11.2859
11.2859
11.2859
11.2859
11.2859
11.2859
11.2859
11.2859
11.2859
11.2859
11.2859
11.2859
11.2859
11.2859
11.2859
11.2859
11.2859
11.2859
11.2858
11.2859
11.2859
11.2859
11.2859
11.2859
11.2859
11.2859
11.2859
11.2859
11.2859
11.2859
11.2859
11.2859
11.2859
11.2859
11.2859
11.2859
11.2859
11.2859
11.2859
11.2859
11.2859
11.2859
11.2859
11.2859
11.2859
11.2859
11.2859
11.2859
11.2859
11.2859
11.2859
11.2859
11.2859
11.2859
11.2859
11.2859
11.2859
11.2859
11.2859
11.2859
11.2859
11.2859
11.2859
11.2859
11.2859
11.2858
11.2858
11.2858
11.2858
11.2859
11.2859
11.2859
11.2859
11.2859
11.2859
11.2859
11.2859
11.2859
11.2859
11.2859
11.2859
11.2859
11.2859
11.2859
11.2859
11.2859
11.2859
11.2859
11.2859
11.2859
11.2859
11.2859
11.2859
11.2859
11.2859
11.2859
11.2859
11.2859
11.2859
11.2859
11.2859
11.2859
11.2859
11.2859
11.2859
11.2859
11.2859
11.2859
11.2859
11.2859
11.2859
11.2859
11.2858
11.2858
11.2858
11.2858
11.2857
11.2857
11.2855
11.2859
11.2859
11.2859
11.2859
11.2859
11.2859
11.2859
11.2859
11.2859
11.2859
11.2859
11.2859
11.2859
11.2859
11.2859
11.2859
11.2859
11.2859
11.2859
11.2859
11.2859
11.2859
11.2859
11.2859
11.2859
11.2859
11.2859
11.2859
11.2859
11.2859
11.2859
11.2859
11.2859
11.2859
11.2859
11.2859
11.2859
11.2859
11.2859
11.2859
11.2858
11.2858
11.2858
11.2858
11.2857
11.2857
11.2855
11.2852
11.2848
11.2838
11.2859
11.2859
11.2859
11.2859
11.2859
11.2859
11.2859
11.2859
11.2859
11.2859
11.2859
11.2859
11.2859
11.2859
11.2859
11.2859
11.2859
11.2859
11.2859
11.2859
11.2859
11.2859
11.2859
11.2859
11.2859
11.2859
11.2859
11.2859
11.2859
11.2859
11.2859
11.2859
11.2859
11.2859
11.2859
11.2859
11.2859
11.2858
11.2858
11.2858
11.2858
11.2857
11.2857
11.2855
11.2852
11.2848
11.284
11.2826
11.2801
11.2754
11.2859
11.2859
11.2859
11.2859
11.2859
11.2859
11.2859
11.2859
11.2859
11.2859
11.2859
11.2859
11.2859
11.2859
11.2859
11.2859
11.2859
11.2859
11.2859
11.2859
11.2859
11.2859
11.2859
11.2859
11.2859
11.2859
11.2859
11.2859
11.2859
11.2859
11.2859
11.2859
11.2859
11.2858
11.2858
11.2858
11.2858
11.2858
11.2857
11.2856
11.2855
11.2852
11.2848
11.284
11.2827
11.2803
11.2763
11.2692
11.2566
11.2332
11.2859
11.2859
11.2859
11.2859
11.2859
11.2859
11.2859
11.2859
11.2859
11.2859
11.2859
11.2859
11.2859
11.2859
11.2859
11.2859
11.2859
11.2859
11.2859
11.2859
11.2859
11.2859
11.2859
11.2859
11.2859
11.2859
11.2859
11.2859
11.2859
11.2859
11.2858
11.2858
11.2858
11.2858
11.2858
11.2857
11.2856
11.2855
11.2852
11.2847
11.284
11.2826
11.2803
11.2764
11.2696
11.2579
11.2378
11.2029
11.1423
11.0348
11.2859
11.2859
11.2859
11.2859
11.2859
11.2859
11.2859
11.2859
11.2859
11.2859
11.2859
11.2859
11.2859
11.2859
11.2859
11.2859
11.2859
11.2859
11.2859
11.2859
11.2859
11.2859
11.2859
11.2859
11.2859
11.2859
11.2859
11.2858
11.2858
11.2858
11.2858
11.2858
11.2857
11.2856
11.2854
11.2851
11.2847
11.2839
11.2825
11.2802
11.2762
11.2696
11.2582
11.2388
11.2059
11.15
11.0563
10.9017
10.6528
10.265
11.2859
11.2859
11.2859
11.2859
11.2859
11.2859
11.2859
11.2859
11.2859
11.2859
11.2859
11.2859
11.2859
11.2859
11.2859
11.2859
11.2859
11.2859
11.2859
11.2859
11.2859
11.2859
11.2859
11.2858
11.2858
11.2858
11.2858
11.2858
11.2857
11.2857
11.2856
11.2854
11.2851
11.2845
11.2837
11.2822
11.2798
11.2758
11.2691
11.2577
11.2386
11.2064
11.1527
11.0635
10.9183
10.6884
10.3407
9.84794
9.20354
8.43637
11.2859
11.2859
11.2859
11.2859
11.2859
11.2859
11.2859
11.2859
11.2859
11.2859
11.2859
11.2859
11.2859
11.2859
11.2859
11.2859
11.2859
11.2859
11.2859
11.2859
11.2858
11.2858
11.2858
11.2858
11.2858
11.2857
11.2856
11.2855
11.2853
11.2849
11.2844
11.2834
11.2819
11.2793
11.2751
11.2681
11.2564
11.237
11.2048
11.1517
11.0646
10.9244
10.7045
10.3743
9.90795
9.30002
8.57727
7.79501
7.01324
6.28372
11.2859
11.2859
11.2859
11.2859
11.2859
11.2859
11.2859
11.2859
11.2859
11.2859
11.2859
11.2859
11.2859
11.2859
11.2859
11.2859
11.2858
11.2858
11.2858
11.2858
11.2858
11.2858
11.2857
11.2856
11.2854
11.2852
11.2848
11.2841
11.2831
11.2814
11.2786
11.274
11.2665
11.2542
11.234
11.201
11.1471
11.0599
10.9212
10.7061
10.3861
9.93677
9.35199
8.65493
7.89575
7.13372
6.41668
5.77232
5.20669
4.72105
11.2859
11.2859
11.2859
11.2859
11.2859
11.2859
11.2859
11.2859
11.2859
11.2859
11.2859
11.2859
11.2858
11.2858
11.2858
11.2858
11.2858
11.2858
11.2857
11.2857
11.2855
11.2853
11.285
11.2846
11.2838
11.2826
11.2806
11.2775
11.2724
11.2642
11.2509
11.2294
11.1946
11.1386
11.0491
10.9087
10.6938
10.3776
9.93798
9.36911
8.69213
7.95306
7.20724
6.50098
5.86204
5.30056
4.81474
4.39748
4.03762
3.72995
11.2859
11.2859
11.2859
11.2859
11.2859
11.2859
11.2859
11.2859
11.2859
11.2858
11.2858
11.2858
11.2858
11.2858
11.2858
11.2857
11.2857
11.2856
11.2854
11.2852
11.2848
11.2843
11.2834
11.2819
11.2797
11.276
11.2703
11.2611
11.2463
11.2228
11.1852
11.1255
11.0315
10.8861
10.6668
10.3488
9.91207
9.35267
8.69109
7.97033
7.24183
6.54914
5.91917
5.36255
4.87872
4.46127
4.10195
3.79233
3.5256
3.29384
3.09501
11.2859
11.2859
11.2859
11.2859
11.2859
11.2858
11.2858
11.2858
11.2858
11.2858
11.2858
11.2858
11.2857
11.2856
11.2855
11.2853
11.285
11.2846
11.2838
11.2827
11.281
11.2783
11.274
11.2673
11.2567
11.2399
11.2135
11.1719
11.1068
11.0058
10.8519
10.6237
10.2982
9.85836
9.30268
8.65236
7.94825
7.23805
6.56191
5.94491
5.39732
4.9191
4.50464
4.14631
3.83644
3.56815
3.33579
3.13455
2.96128
2.81256
2.68832
11.2859
11.2859
11.2858
11.2858
11.2858
11.2858
11.2858
11.2858
11.2858
11.2857
11.2856
11.2855
11.2854
11.2851
11.2847
11.2842
11.2832
11.2819
11.2797
11.2764
11.2712
11.2632
11.2507
11.2312
11.2008
11.1537
11.081
10.9701
10.804
10.5621
10.2237
9.77512
9.21829
8.5759
7.88727
7.19637
6.53951
5.93917
5.40462
4.93587
4.52784
4.17352
3.86574
3.59807
3.36514
3.16249
2.98667
2.83532
2.70704
2.60128
2.51646
2.45087
11.2858
11.2858
11.2858
11.2858
11.2858
11.2857
11.2857
11.2856
11.2854
11.2852
11.2848
11.2843
11.2836
11.2824
11.2806
11.2779
11.2737
11.2673
11.2575
11.2424
11.2191
11.1834
11.1288
11.0459
10.9216
10.7389
10.4784
10.1219
9.65973
9.09802
8.46144
7.78796
7.11771
6.48274
5.90244
5.38458
4.92886
4.53054
4.18313
3.88003
3.61525
3.38371
3.18127
3.00457
2.85117
2.71957
2.60902
2.51893
2.44815
2.39476
2.35564
2.32734
11.2858
11.2857
11.2857
11.2856
11.2854
11.2852
11.2849
11.2844
11.2837
11.2827
11.2811
11.2788
11.2752
11.2699
11.2618
11.2495
11.2308
11.2025
11.1596
11.0949
10.9985
10.8566
10.6524
10.3679
9.98839
9.5089
8.94006
8.30864
7.65107
7.00334
6.39291
5.83577
5.33788
4.89838
4.51275
4.17496
3.87895
3.61918
3.39095
3.19042
3.01443
2.86057
2.72725
2.61361
2.51921
2.44337
2.38475
2.34108
2.30958
2.28742
2.27198
2.26083
11.2854
11.2852
11.2849
11.2844
11.2838
11.2828
11.2814
11.2793
11.2761
11.2714
11.2644
11.2539
11.2381
11.2145
11.1792
11.1265
11.0485
10.9343
10.7697
10.5385
10.2249
9.81818
9.31897
8.74259
8.11743
7.47778
6.85506
6.27193
5.74084
5.26581
4.84534
4.475
4.14923
3.86247
3.60967
3.38652
3.18949
3.01569
2.86284
2.7293
2.61412
2.51689
2.43721
2.37422
2.32628
2.29105
2.26595
2.24837
2.23624
2.22793
2.22215
2.21811
11.2837
11.2828
11.2814
11.2794
11.2765
11.2721
11.2657
11.2563
11.2423
11.2217
11.1912
11.1463
11.0805
10.9847
10.8474
10.6542
10.3901
10.0424
9.60571
9.08651
8.50442
7.88851
7.27001
6.67535
6.12231
5.61987
5.17019
4.7711
4.41828
4.10658
3.83095
3.58684
3.37037
3.17832
3.00806
2.85749
2.72504
2.60972
2.51108
2.42885
2.36251
2.31094
2.27229
2.2443
2.22456
2.21087
2.20152
2.1951
2.19095
2.18853
2.1871
2.1867
11.2763
11.2721
11.266
11.2571
11.2442
11.2253
11.1977
11.1576
11.0995
11.0158
10.8966
10.7297
10.5012
10.1984
9.81305
9.34581
8.80905
8.22559
7.62372
7.03063
6.46741
5.94714
5.47559
5.05326
4.67745
4.34392
4.04797
3.78506
3.55113
3.34271
3.15691
2.9914
2.84428
2.71409
2.59984
2.50104
2.41748
2.34888
2.29451
2.25297
2.22231
2.20039
2.18513
2.17471
2.16774
2.16303
2.16018
2.15864
2.15846
2.1585
2.15902
2.15999
11.244
11.2258
11.1997
11.1622
11.1086
11.0322
10.9245
10.7747
10.5707
10.3001
9.95401
9.52979
9.03469
8.48599
7.90794
7.32636
6.76353
6.23517
5.75003
5.31116
4.91767
4.56651
4.2536
3.97469
3.72574
3.50318
3.30396
3.12552
2.96582
2.82316
2.69623
2.5841
2.48625
2.40251
2.33271
2.27641
2.23258
2.19967
2.17582
2.15903
2.14747
2.13968
2.13464
2.13154
2.12995
2.12928
2.12987
2.13037
2.13145
2.13305
2.13483
2.13639
11.0363
10.9349
10.7952
10.6065
10.3575
10.0393
9.64791
9.18753
8.67128
8.11949
7.55558
7.00136
6.47367
5.98321
5.53506
5.13005
4.76633
4.44066
4.14924
3.88826
3.65418
3.44391
3.25478
3.08462
2.9316
2.79427
2.67147
2.56234
2.4664
2.38347
2.31346
2.25611
2.21073
2.17608
2.15053
2.13231
2.11972
2.1113
2.10583
2.10236
2.10046
2.0999
2.10032
2.10116
2.1023
2.10409
2.10609
2.10804
2.11022
2.11259
2.11474
10.3765
10.0761
9.70765
9.27383
8.78506
8.25856
7.71509
7.17502
6.65508
6.16682
5.71657
5.3065
4.93588
4.60227
4.30243
4.0329
3.79034
3.57171
3.37435
3.19601
3.0348
2.88917
2.75788
2.63993
2.53458
2.44136
2.36009
2.29076
2.23322
2.187
2.15114
2.12431
2.10496
2.09143
2.08229
2.07634
2.07271
2.07078
2.07012
2.07027
2.07156
2.07288
2.07452
2.07674
2.07909
2.08131
2.08394
2.08657
2.08916
2.09178
2.09422
8.83088
8.32678
7.80418
7.28156
6.77468
6.29495
5.84922
5.44043
5.06869
4.73229
4.42852
4.15434
3.90669
3.6827
3.47978
3.2957
3.12857
2.97681
2.83911
2.71443
2.60192
2.50096
2.41112
2.33227
2.26439
2.20742
2.16107
2.12461
2.09694
2.07669
2.06237
2.05267
2.04643
2.04258
2.04046
2.03968
2.03998
2.04113
2.04279
2.04455
2.04697
2.04957
2.05211
2.0548
2.05773
2.06058
2.06348
2.06636
2.06919
2.07201
2.07467
6.36415
5.92874
5.52712
5.15987
4.82582
4.52276
4.24804
3.99891
3.77273
3.5671
3.37987
3.20919
3.0535
2.91149
2.78209
2.66443
2.55783
2.46175
2.37585
2.30001
2.23423
2.17853
2.1327
2.09622
2.06815
2.04736
2.03254
2.0224
2.01582
2.01175
2.00964
2.00899
2.00924
2.01031
2.01225
2.0144
2.01663
2.01948
2.02238
2.02512
2.0283
2.03151
2.03466
2.03783
2.04096
2.04406
2.04714
2.05017
2.05319
2.05607
4.87948
4.58164
4.31047
4.06353
3.83845
3.63303
3.44529
3.27347
3.11608
2.97186
2.83974
2.71885
2.6085
2.50813
2.41732
2.33579
2.26345
2.20033
2.14648
2.10176
2.06578
2.0378
2.01684
2.00175
1.99131
1.98454
1.98047
1.97832
1.97765
1.97789
1.97914
1.98111
1.98354
1.98593
1.98898
1.99219
1.99527
1.99848
2.00194
2.00532
2.00875
2.01218
2.01557
2.01893
2.02226
2.02555
2.02883
2.03206
2.03528
2.03837
3.87743
3.67511
3.48947
3.31891
3.16203
3.01764
2.88473
2.76248
2.65018
2.54729
2.45338
2.3681
2.29127
2.22282
2.16281
2.11129
2.06819
2.03322
2.00577
1.985
1.9699
1.95942
1.95258
1.94848
1.94633
1.94579
1.9463
1.94758
1.94957
1.95221
1.95504
1.95796
1.96145
1.96486
1.96815
1.97188
1.9756
1.97926
1.98295
1.98659
1.99022
1.99382
1.99739
2.00093
2.00444
2.00793
2.01139
2.01482
2.01824
2.02152
3.18947
3.04688
2.91505
2.79319
2.68065
2.57689
2.4815
2.39415
2.3146
2.2427
2.17843
2.12187
2.07309
2.03204
1.99851
1.972
1.95176
1.93695
1.92664
1.91985
1.91583
1.91386
1.91343
1.91408
1.91544
1.91764
1.92036
1.92356
1.9266
1.93031
1.93405
1.93764
1.94142
1.9454
1.94928
1.95322
1.95717
1.96106
1.96492
1.96875
1.97255
1.97632
1.98007
1.98379
1.98748
1.99115
1.9948
1.99841
2.00201
2.00548
2.69823
2.59514
2.49978
2.41184
2.33108
2.25733
2.19051
2.13064
2.07779
2.03207
1.99343
1.9617
1.93648
1.91712
1.90286
1.8929
1.88636
1.88253
1.88079
1.88049
1.88135
1.88299
1.88537
1.88817
1.89154
1.895
1.89865
1.90274
1.90666
1.91049
1.91474
1.91895
1.92312
1.9273
1.93145
1.93556
1.93966
1.94371
1.94774
1.95174
1.9557
1.95965
1.96356
1.96746
1.97133
1.97517
1.97899
1.98278
1.98655
1.9902
2.33901
2.26479
2.19686
2.1352
2.07985
2.03092
1.98848
1.95253
1.92291
1.89928
1.88108
1.86763
1.85823
1.8521
1.84857
1.84709
1.84703
1.84813
1.85009
1.85256
1.8556
1.85908
1.8631
1.86672
1.87102
1.87527
1.87937
1.88373
1.8882
1.89257
1.89701
1.90143
1.9058
1.91014
1.91444
1.91872
1.92296
1.92718
1.93136
1.93552
1.93965
1.94376
1.94784
1.9519
1.95594
1.95995
1.96394
1.96788
1.97182
1.97564
2.07726
2.02651
1.98161
1.94263
1.90958
1.88231
1.86051
1.8437
1.83128
1.82264
1.81707
1.81395
1.81283
1.8131
1.81445
1.81669
1.81936
1.82267
1.82631
1.8305
1.83451
1.83886
1.84353
1.84789
1.85232
1.85704
1.86169
1.86634
1.87101
1.87562
1.88021
1.88477
1.88929
1.89377
1.89823
1.90265
1.90704
1.91141
1.91575
1.92007
1.92436
1.92862
1.93286
1.93708
1.94127
1.94544
1.94958
1.95368
1.95777
1.96175
1.86485
1.8401
1.82033
1.80511
1.7939
1.78617
1.78129
1.7787
1.77801
1.77866
1.78032
1.78286
1.78587
1.78938
1.79322
1.79755
1.80206
1.80642
1.81131
1.81601
1.82058
1.82553
1.83046
1.83531
1.84021
1.84508
1.8499
1.8547
1.85946
1.86418
1.86887
1.87353
1.87816
1.88275
1.88732
1.89186
1.89638
1.90087
1.90533
1.90977
1.91418
1.91857
1.92294
1.92728
1.93159
1.93588
1.94013
1.94436
1.94848
1.76544
1.75559
1.74889
1.74482
1.74286
1.74266
1.74374
1.74576
1.74861
1.75197
1.75568
1.75979
1.7643
1.76918
1.77372
1.77878
1.78384
1.78865
1.79369
1.79886
1.80392
1.80905
1.81417
1.81923
1.82426
1.82926
1.83421
1.83913
1.84402
1.84888
1.8537
1.8585
1.86326
1.86799
1.8727
1.87738
1.88204
1.88667
1.89127
1.89585
1.90041
1.90494
1.90945
1.91392
1.91837
1.9228
1.92718
1.93154
1.9358
1.70774
1.70648
1.70682
1.70838
1.7108
1.714
1.71769
1.72166
1.72604
1.73073
1.73581
1.74077
1.74592
1.7513
1.75637
1.76151
1.76694
1.77228
1.7776
1.78293
1.78821
1.79347
1.7987
1.80389
1.80904
1.81415
1.81923
1.82427
1.82928
1.83427
1.83922
1.84415
1.84904
1.85391
1.85875
1.86356
1.86835
1.87312
1.87786
1.88257
1.88726
1.89192
1.89656
1.90116
1.90574
1.91029
1.9148
1.91929
1.92366
1.6755
1.67905
1.68309
1.68735
1.69199
1.69691
1.70221
1.7075
1.71279
1.71838
1.72379
1.7291
1.73473
1.7403
1.7458
1.75137
1.7569
1.76237
1.76782
1.77322
1.77859
1.78392
1.78922
1.79449
1.79972
1.80491
1.81008
1.81521
1.82032
1.82539
1.83044
1.83546
1.84046
1.84542
1.85037
1.85528
1.86017
1.86504
1.86988
1.87469
1.87947
1.88423
1.88896
1.89366
1.89833
1.90295
1.90755
1.91203
1.65278
1.65767
1.66284
1.66841
1.67392
1.67946
1.68524
1.69094
1.69646
1.70222
1.70804
1.71375
1.71952
1.72527
1.73096
1.73662
1.74225
1.74784
1.75338
1.75889
1.76436
1.7698
1.77521
1.78059
1.78593
1.79124
1.79652
1.80177
1.80699
1.81219
1.81735
1.82249
1.8276
1.83269
1.83775
1.84279
1.8478
1.85278
1.85774
1.86266
1.86757
1.87244
1.87728
1.88209
1.88686
1.89159
1.89629
1.90087
1.64008
1.64592
1.65191
1.65781
1.66358
1.66948
1.67552
1.68146
1.68741
1.69336
1.69926
1.70513
1.71098
1.71677
1.72253
1.72825
1.73393
1.73958
1.74519
1.75076
1.75631
1.76182
1.7673
1.77275
1.77817
1.78356
1.78892
1.79425
1.79956
1.80484
1.81009
1.81532
1.82051
1.82569
1.83083
1.83595
1.84105
1.84611
1.85115
1.85616
1.86113
1.86608
1.87099
1.87586
1.88068
1.88547
1.89015
1.62445
1.63047
1.63653
1.64276
1.64892
1.65505
1.66121
1.66732
1.67339
1.67943
1.68543
1.69139
1.69731
1.7032
1.70904
1.71486
1.72063
1.72637
1.73208
1.73775
1.7434
1.74901
1.75459
1.76015
1.76567
1.77116
1.77663
1.78207
1.78748
1.79286
1.79822
1.80355
1.80886
1.81414
1.81939
1.82461
1.82981
1.83497
1.84011
1.84522
1.85029
1.85533
1.86033
1.86529
1.8702
1.87507
1.87983
1.61616
1.62248
1.62883
1.63514
1.6414
1.64764
1.65384
1.65999
1.66611
1.67219
1.67823
1.68424
1.69021
1.69614
1.70204
1.70791
1.71374
1.71954
1.72531
1.73105
1.73675
1.74243
1.74808
1.75371
1.7593
1.76486
1.7704
1.77591
1.7814
1.78686
1.79229
1.79769
1.80307
1.80841
1.81373
1.81902
1.82428
1.82951
1.83471
1.83987
1.84499
1.85008
1.85512
1.8601
1.86505
1.86987
1.60274
1.6092
1.61562
1.62201
1.62835
1.63466
1.64093
1.64716
1.65335
1.65951
1.66563
1.67171
1.67777
1.68378
1.68977
1.69572
1.70164
1.70753
1.71339
1.71922
1.72502
1.73079
1.73653
1.74225
1.74793
1.75359
1.75923
1.76483
1.77041
1.77596
1.78148
1.78697
1.79244
1.79788
1.80329
1.80866
1.81401
1.81932
1.8246
1.82984
1.83504
1.8402
1.84531
1.85036
1.85537
1.86025
1.58996
1.59649
1.60298
1.60943
1.61584
1.62222
1.62856
1.63486
1.64113
1.64736
1.65355
1.65972
1.66585
1.67195
1.67801
1.68405
1.69005
1.69603
1.70197
1.70789
1.71378
1.71963
1.72546
1.73127
1.73704
1.74279
1.7485
1.7542
1.75986
1.7655
1.7711
1.77668
1.78223
1.78775
1.79324
1.7987
1.80412
1.80951
1.81486
1.82017
1.82544
1.83066
1.83584
1.84095
1.84601
1.85094
1.57772
1.58431
1.59086
1.59737
1.60385
1.61029
1.6167
1.62307
1.62941
1.63571
1.64198
1.64822
1.65443
1.6606
1.66675
1.67286
1.67895
1.685
1.69103
1.69702
1.70299
1.70893
1.71484
1.72073
1.72658
1.73241
1.73821
1.74398
1.74973
1.75544
1.76113
1.76678
1.77241
1.77801
1.78357
1.7891
1.79459
1.80005
1.80546
1.81084
1.81617
1.82145
1.82667
1.83183
1.83694
1.84191
1.56598
1.57263
1.57924
1.58581
1.59235
1.59885
1.60533
1.61177
1.61817
1.62454
1.63089
1.6372
1.64348
1.64972
1.65594
1.66213
1.66829
1.67442
1.68052
1.68659
1.69264
1.69865
1.70464
1.7106
1.71653
1.72244
1.72831
1.73416
1.73998
1.74576
1.75152
1.75725
1.76295
1.76861
1.77424
1.77983
1.78539
1.79091
1.79638
1.80181
1.80719
1.81252
1.81778
1.82298
1.82811
1.83311
1.55471
1.56141
1.56808
1.57471
1.58131
1.58788
1.59441
1.60092
1.60739
1.61383
1.62024
1.62661
1.63296
1.63928
1.64557
1.65182
1.65805
1.66425
1.67043
1.67657
1.68269
1.68877
1.69483
1.70086
1.70686
1.71284
1.71878
1.7247
1.73058
1.73644
1.74226
1.74805
1.75381
1.75953
1.76522
1.77087
1.77649
1.78206
1.78758
1.79305
1.79847
1.80383
1.80913
1.81435
1.81951
1.82453
1.54389
1.55065
1.55737
1.56406
1.57072
1.57734
1.58394
1.5905
1.59703
1.60354
1.61001
1.61645
1.62286
1.62924
1.6356
1.64192
1.64821
1.65448
1.66072
1.66693
1.67311
1.67926
1.68539
1.69148
1.69755
1.70358
1.70959
1.71557
1.72151
1.72743
1.73331
1.73916
1.74498
1.75076
1.7565
1.7622
1.76785
1.77346
1.77903
1.78453
1.78998
1.79537
1.8007
1.80594
1.81112
1.81615
1.5403
1.54708
1.55382
1.56054
1.56722
1.57387
1.58049
1.58708
1.59364
1.60017
1.60667
1.61315
1.61959
1.626
1.63239
1.63874
1.64507
1.65137
1.65764
1.66388
1.6701
1.67628
1.68243
1.68856
1.69465
1.70072
1.70675
1.71275
1.71872
1.72466
1.73056
1.73642
1.74224
1.74803
1.75376
1.75946
1.7651
1.77069
1.77623
1.78171
1.78712
1.79247
1.79772
1.8029
1.80794
1.53036
1.53719
1.54398
1.55075
1.55748
1.56419
1.57086
1.57751
1.58412
1.59071
1.59727
1.60379
1.61029
1.61676
1.62321
1.62962
1.636
1.64236
1.64868
1.65498
1.66125
1.66749
1.67369
1.67987
1.68602
1.69214
1.69822
1.70427
1.71028
1.71626
1.7222
1.7281
1.73396
1.73978
1.74555
1.75128
1.75695
1.76257
1.76813
1.77363
1.77906
1.78441
1.78967
1.79485
1.79987
1.52079
1.52767
1.53451
1.54132
1.54811
1.55486
1.56159
1.56829
1.57495
1.58159
1.5882
1.59478
1.60133
1.60785
1.61435
1.62081
1.62725
1.63365
1.64003
1.64638
1.65269
1.65898
1.66524
1.67147
1.67766
1.68382
1.68994
1.69603
1.70208
1.70809
1.71407
1.72001
1.7259
1.73175
1.73755
1.7433
1.749
1.75464
1.76021
1.76572
1.77116
1.77651
1.78177
1.78693
1.79194
1.5185
1.52539
1.53225
1.53908
1.54588
1.55265
1.55939