/*--------------------------------*- C++ -*----------------------------------*\
| =========                 |                                                 |
| \\      /  F ield         | OpenFOAM: The Open Source CFD Toolbox           |
|  \\    /   O peration     | Version:  v1706                                 |
|   \\  /    A nd           | Web:      www.OpenFOAM.com                      |
|    \\/     M anipulation  |                                                 |
\*---------------------------------------------------------------------------*/
FoamFile
{
    version     2.0;
    format      ascii;
    class       volScalarField;
    location    "1.5e-05";
    object      Tov;
}
// * * * * * * * * * * * * * * * * * * * * * * * * * * * * * * * * * * * * * //

dimensions      [0 0 0 1 0 0 0];


internalField   nonuniform List<scalar> 
30038
(
144.4
144.4
144.4
144.4
144.4
144.4
144.4
144.4
144.4
144.4
144.4
144.4
144.4
144.4
144.4
144.4
144.4
144.4
144.4
144.4
144.4
144.4
144.4
144.4
144.4
144.4
144.4
144.4
144.4
144.4
144.4
144.4
144.4
144.4
144.4
144.4
144.4
144.4
144.4
144.4
144.4
144.4
144.4
144.4
144.4
144.4
144.4
144.4
144.4
144.4
144.4
144.4
144.4
144.4
144.4
144.4
144.4
144.4
144.4
144.4
144.4
144.4
144.4
144.4
144.4
144.4
144.4
144.4
144.4
144.4
144.4
144.4
144.4
144.4
144.4
144.4
144.4
144.4
144.4
144.4
144.4
144.4
144.4
144.4
144.4
144.4
144.4
144.4
144.4
144.4
144.4
144.4
144.4
144.4
144.4
144.4
144.4
144.4
144.4
144.4
144.4
144.4
144.4
144.4
144.4
144.4
144.4
144.4
144.4
144.4
144.4
144.4
144.4
144.4
144.4
144.4
144.4
144.4
144.4
144.4
144.4
144.4
144.4
144.4
144.4
144.4
144.4
144.4
144.4
144.4
144.4
144.4
144.4
144.4
144.4
144.4
144.4
144.4
144.4
144.4
144.4
144.4
144.4
144.4
144.4
144.4
144.4
144.4
144.4
144.4
144.4
144.4
144.4
144.4
144.4
144.4
144.4
144.4
144.4
144.4
144.4
144.4
144.4
144.4
144.4
144.4
144.4
144.4
144.4
144.4
144.4
144.4
144.4
144.4
144.4
144.4
144.4
144.4
144.4
144.4
144.4
144.4
144.4
144.4
144.4
144.4
144.4
144.4
144.4
144.4
144.4
144.4
144.4
144.4
144.4
144.4
144.4
144.4
144.4
144.4
144.4
144.4
144.4
144.4
144.4
144.4
144.4
144.4
144.4
144.4
144.4
144.4
144.4
144.4
144.4
144.4
144.4
144.4
144.4
144.4
144.4
144.4
144.4
144.4
144.4
144.4
144.4
144.4
144.4
144.4
144.4
144.4
144.4
144.4
144.4
144.4
144.4
144.4
144.4
144.4
144.4
144.4
144.4
144.4
144.4
144.4
144.4
144.4
144.4
144.4
144.4
144.4
144.4
144.4
144.4
144.4
144.4
144.4
144.4
144.4
144.4
144.4
144.4
144.4
144.4
144.4
144.4
144.4
144.4
144.4
144.4
144.4
144.4
144.4
144.4
144.4
144.4
144.4
144.4
144.4
144.4
144.4
144.4
144.4
144.4
144.4
144.4
144.4
144.4
144.4
144.4
144.4
144.4
144.4
144.4
144.4
144.4
144.4
144.4
144.4
144.4
144.4
144.4
144.4
144.4
144.4
144.4
144.4
144.4
144.4
144.4
144.4
144.4
144.4
144.4
144.4
144.4
144.4
144.4
144.4
144.4
144.4
144.4
144.4
144.4
144.4
144.4
144.4
144.4
144.4
144.4
144.4
144.4
144.4
144.4
144.4
144.4
144.4
144.4
144.4
144.4
144.4
144.4
144.4
144.4
144.4
144.4
144.4
144.4
144.4
144.4
144.4
144.4
144.4
144.4
144.4
144.4
144.4
144.4
144.4
144.4
144.4
144.4
144.4
144.4
144.4
144.4
144.4
144.4
144.4
144.4
144.4
144.4
144.4
144.4
144.4
144.4
144.4
144.4
144.4
144.4
144.4
144.4
144.4
144.4
144.4
144.4
144.4
144.4
144.4
144.4
144.4
144.4
144.4
144.4
144.4
144.4
144.4
144.4
144.4
144.4
144.4
144.4
144.4
144.4
144.4
144.4
144.4
144.4
144.4
144.4
144.4
144.4
144.4
144.4
144.4
144.4
144.4
144.4
144.4
144.4
144.4
144.4
144.4
144.4
144.4
144.4
144.4
144.4
144.4
144.4
144.4
144.4
144.4
144.4
144.4
144.4
144.4
144.4
144.4
144.4
144.4
144.4
144.4
144.4
144.4
144.4
144.4
144.4
144.4
144.4
144.4
144.4
144.4
144.4
144.4
144.4
144.4
144.4
144.4
144.4
144.4
144.4
144.4
144.4
144.4
144.4
144.4
144.4
144.4
144.4
144.4
144.4
144.4
144.4
144.4
144.4
144.4
144.4
144.4
144.4
144.4
144.4
144.4
144.4
144.4
144.4
144.4
144.4
144.4
144.4
144.4
144.4
144.4
144.4
144.4
144.4
144.4
144.4
144.4
144.4
144.4
144.4
144.4
144.4
144.4
144.4
144.4
144.4
144.4
144.4
144.4
144.4
144.4
144.4
144.4
144.4
144.4
144.4
144.4
144.4
144.4
144.4
144.4
144.4
144.4
144.4
144.4
144.4
144.4
144.4
144.4
144.4
144.4
144.4
144.4
144.4
144.4
144.4
144.4
144.4
144.4
144.4
144.4
144.4
144.4
144.4
144.4
144.4
144.4
144.4
144.4
144.4
144.4
144.4
144.4
144.4
144.4
144.4
144.4
144.4
144.4
144.4
144.4
144.4
144.4
144.4
144.4
144.4
144.4
144.4
144.4
144.4
144.4
144.4
144.4
144.4
144.4
144.4
144.4
144.4
144.4
144.4
144.4
144.4
144.4
144.4
144.4
144.4
144.4
144.4
144.4
144.4
144.4
144.4
144.4
144.4
144.4
144.4
144.4
144.4
144.4
144.4
144.4
144.4
144.4
144.4
144.4
144.4
144.4
144.4
144.4
144.4
144.4
144.4
144.4
144.4
144.4
144.4
144.4
144.4
144.4
144.4
144.4
144.4
144.4
144.4
144.4
144.4
144.4
144.4
144.4
144.4
144.4
144.4
144.4
144.4
144.4
144.4
144.4
144.4
144.4
144.4
144.4
144.4
144.4
144.4
144.4
144.4
144.4
144.4
144.4
144.4
144.4
144.4
144.4
144.4
144.4
144.4
144.4
144.4
144.4
144.4
144.4
144.4
144.4
144.4
144.4
144.4
144.4
144.4
144.4
144.4
144.4
144.4
144.4
144.4
144.4
144.4
144.4
144.4
144.4
144.4
144.4
144.4
144.4
144.4
144.4
144.4
144.4
144.4
144.4
144.4
144.4
144.4
144.4
144.4
144.4
144.4
144.4
144.4
144.4
144.4
144.4
144.4
144.4
144.4
144.4
144.4
144.4
144.4
144.4
144.4
144.4
144.4
144.4
144.4
144.4
144.4
144.4
144.4
144.4
144.4
144.4
144.4
144.4
144.4
144.4
144.4
144.4
144.4
144.4
144.4
144.4
144.4
144.4
144.4
144.4
144.4
144.4
144.4
144.4
144.4
144.4
144.4
144.4
144.4
144.4
144.4
144.4
144.4
144.4
144.4
144.4
144.4
144.4
144.4
144.4
144.4
144.4
144.4
144.4
144.4
144.4
144.4
144.4
144.4
144.4
144.4
144.4
144.4
144.4
144.4
144.4
144.4
144.4
144.4
144.4
144.4
144.4
144.4
144.4
144.4
144.4
144.4
144.4
144.4
144.4
144.4
144.4
144.4
144.4
144.4
144.4
144.4
144.4
144.4
144.4
144.4
144.4
144.4
144.4
144.4
144.4
144.4
144.4
144.4
144.4
144.4
144.4
144.4
144.4
144.4
144.4
144.4
144.4
144.4
144.4
144.4
144.4
144.4
144.4
144.4
144.4
144.4
144.4
144.4
144.4
144.4
144.4
144.4
144.4
144.4
144.4
144.4
144.4
144.4
144.4
144.4
144.4
144.4
144.4
144.4
144.4
144.4
144.4
144.4
144.4
144.4
144.4
144.4
144.4
144.4
144.4
144.4
144.4
144.4
144.4
144.4
144.4
144.4
144.4
144.4
144.4
144.4
144.4
144.4
144.4
144.4
144.4
144.4
144.4
144.4
144.4
144.4
144.4
144.4
144.4
144.4
144.4
144.4
144.4
144.4
144.4
144.4
144.4
144.4
144.4
144.4
144.4
144.4
144.4
144.4
144.4
144.4
144.4
144.4
144.4
144.4
144.4
144.4
144.4
144.4
144.4
144.4
144.4
144.4
144.4
144.4
144.4
144.4
144.4
144.4
144.4
144.4
144.4
144.4
144.4
144.4
144.4
144.4
144.4
144.4
144.4
144.4
144.4
144.4
144.4
144.4
144.4
144.4
144.4
144.4
144.4
144.4
144.4
144.4
144.4
144.4
144.4
144.4
144.4
144.4
144.4
144.4
144.4
144.4
144.4
144.4
144.4
144.4
144.4
144.4
144.4
144.4
144.4
144.4
144.4
144.4
144.4
144.4
144.4
144.4
144.4
144.4
144.4
144.4
144.4
144.4
144.4
144.4
144.4
144.4
144.4
144.4
144.4
144.4
144.4
144.4
144.4
144.4
144.4
144.4
144.4
144.4
144.4
144.4
144.4
144.4
144.4
144.4
144.4
144.4
144.4
144.4
144.4
144.4
144.4
144.4
144.4
144.4
144.4
144.4
144.4
144.4
144.4
144.4
144.4
144.4
144.4
144.4
144.4
144.4
144.4
144.4
144.4
144.4
144.4
144.4
144.4
144.4
144.4
144.4
144.4
144.4
144.4
144.4
144.4
144.4
144.4
144.4
144.4
144.4
144.4
144.4
144.4
144.4
144.4
144.4
144.4
144.4
144.4
144.4
144.4
144.4
144.4
144.4
144.4
144.4
144.4
144.4
144.4
144.4
144.4
144.4
144.4
144.4
144.4
144.4
144.4
144.4
144.4
144.4
144.4
144.4
144.4
144.4
144.4
144.4
144.4
144.4
144.4
144.4
144.4
144.4
144.4
144.4
144.4
144.4
144.4
144.4
144.4
144.4
144.4
144.4
144.4
144.4
144.4
144.4
144.4
144.4
144.4
144.4
144.4
144.4
144.4
144.4
144.4
144.4
144.4
144.4
144.4
144.4
144.4
144.4
144.4
144.4
144.4
144.4
144.4
144.4
144.4
144.4
144.4
144.4
144.4
144.4
144.4
144.4
144.4
144.4
144.4
144.4
144.4
144.4
144.4
144.4
144.4
144.4
144.4
144.4
144.4
144.4
144.4
144.4
144.4
144.4
144.4
144.4
144.4
144.4
144.4
144.4
144.4
144.4
144.4
144.4
144.4
144.4
144.4
144.4
144.4
144.4
144.4
144.4
144.4
144.4
144.4
144.4
144.4
144.4
144.4
144.4
144.4
144.4
144.4
144.4
144.4
144.4
144.4
144.4
144.4
144.4
144.4
144.4
144.4
144.4
144.4
144.4
144.4
144.4
144.4
144.4
144.4
144.4
144.4
144.4
144.4
144.4
144.4
144.4
144.4
144.4
144.4
144.4
144.4
144.4
144.4
144.4
144.4
144.4
144.4
144.4
144.4
144.4
144.4
144.4
144.4
144.4
144.4
144.4
144.4
144.4
144.4
144.4
144.4
144.4
144.4
144.4
144.4
144.4
144.4
144.4
144.4
144.4
144.4
144.4
144.4
144.4
144.4
144.4
144.4
144.4
144.4
144.4
144.4
144.4
144.4
144.4
144.4
144.4
144.4
144.4
144.4
144.4
144.4
144.4
144.4
144.4
144.4
144.4
144.4
144.4
144.4
144.4
144.4
144.4
144.4
144.4
144.4
144.4
144.4
144.4
144.4
144.4
144.4
144.4
144.4
144.4
144.4
144.4
144.4
144.4
144.4
144.4
144.4
144.4
144.4
144.4
144.4
144.4
144.4
144.4
144.4
144.4
144.4
144.4
144.4
144.4
144.4
144.4
144.4
144.4
144.4
144.4
144.4
144.4
144.4
144.4
144.4
144.4
144.4
144.4
144.4
144.4
144.4
144.4
144.4
144.4
144.4
144.4
144.4
144.4
144.4
144.4
144.4
144.4
144.4
144.4
144.4
144.4
144.4
144.4
144.4
144.4
144.4
144.4
144.4
144.4
144.4
144.4
144.4
144.4
144.4
144.4
144.4
144.4
144.4
144.4
144.4
144.4
144.4
144.4
144.4
144.4
144.4
144.4
144.4
144.4
144.4
144.4
144.4
144.4
144.4
144.4
144.4
144.4
144.4
144.4
144.4
144.4
144.4
144.4
144.4
144.4
144.4
144.4
144.4
144.4
144.4
144.4
144.4
144.4
144.4
144.4
144.4
144.4
144.4
144.4
144.4
144.4
144.4
144.4
144.4
144.4
144.4
144.4
144.4
144.4
144.401
144.401
144.402
144.4
144.4
144.4
144.4
144.4
144.4
144.4
144.4
144.4
144.4
144.4
144.4
144.4
144.4
144.4
144.4
144.4
144.4
144.4
144.4
144.4
144.4
144.4
144.4
144.4
144.4
144.4
144.4
144.4
144.4
144.4
144.4
144.4
144.4
144.4
144.4
144.4
144.4
144.4
144.4
144.4
144.4
144.4
144.4
144.401
144.401
144.402
144.403
144.405
144.409
144.4
144.4
144.4
144.4
144.4
144.4
144.4
144.4
144.4
144.4
144.4
144.4
144.4
144.4
144.4
144.4
144.4
144.4
144.4
144.4
144.4
144.4
144.4
144.4
144.4
144.4
144.4
144.4
144.4
144.4
144.4
144.4
144.4
144.4
144.4
144.4
144.4
144.4
144.4
144.4
144.4
144.401
144.401
144.402
144.403
144.405
144.409
144.415
144.427
144.449
144.4
144.4
144.4
144.4
144.4
144.4
144.4
144.4
144.4
144.4
144.4
144.4
144.4
144.4
144.4
144.4
144.4
144.4
144.4
144.4
144.4
144.4
144.4
144.4
144.4
144.4
144.4
144.4
144.4
144.4
144.4
144.4
144.4
144.4
144.4
144.4
144.4
144.4
144.401
144.401
144.402
144.403
144.405
144.409
144.415
144.426
144.445
144.479
144.54
144.655
144.4
144.4
144.4
144.4
144.4
144.4
144.4
144.4
144.4
144.4
144.4
144.4
144.4
144.4
144.4
144.4
144.4
144.4
144.4
144.4
144.4
144.4
144.4
144.4
144.4
144.4
144.4
144.4
144.4
144.4
144.4
144.4
144.4
144.4
144.4
144.401
144.401
144.402
144.403
144.405
144.409
144.415
144.426
144.445
144.478
144.535
144.634
144.808
145.118
145.697
144.4
144.4
144.4
144.4
144.4
144.4
144.4
144.4
144.4
144.4
144.4
144.4
144.4
144.4
144.4
144.4
144.4
144.4
144.4
144.4
144.4
144.4
144.4
144.4
144.4
144.4
144.4
144.4
144.4
144.4
144.4
144.4
144.401
144.401
144.402
144.403
144.406
144.41
144.416
144.427
144.446
144.479
144.535
144.631
144.797
145.084
145.583
146.451
147.977
150.749
144.4
144.4
144.4
144.4
144.4
144.4
144.4
144.4
144.4
144.4
144.4
144.4
144.4
144.4
144.4
144.4
144.4
144.4
144.4
144.4
144.4
144.4
144.4
144.4
144.4
144.4
144.4
144.4
144.401
144.401
144.401
144.402
144.404
144.406
144.41
144.417
144.429
144.449
144.482
144.539
144.635
144.798
145.078
145.556
146.377
147.782
150.188
154.288
161.24
173.061
144.4
144.4
144.4
144.4
144.4
144.4
144.4
144.4
144.4
144.4
144.4
144.4
144.4
144.4
144.4
144.4
144.4
144.4
144.4
144.4
144.4
144.4
144.4
144.4
144.4
144.401
144.401
144.402
144.403
144.404
144.407
144.412
144.419
144.432
144.453
144.488
144.547
144.645
144.811
145.091
145.563
146.362
147.715
150.001
153.84
160.223
170.652
187.251
212.782
250.536
144.4
144.4
144.4
144.4
144.4
144.4
144.4
144.4
144.4
144.4
144.4
144.4
144.4
144.4
144.4
144.4
144.4
144.4
144.4
144.4
144.4
144.4
144.401
144.401
144.402
144.403
144.405
144.408
144.414
144.422
144.436
144.459
144.497
144.56
144.663
144.836
145.123
145.602
146.402
147.74
149.972
153.677
159.765
169.605
185.105
208.664
242.895
290.121
351.927
428.707
144.4
144.4
144.4
144.4
144.4
144.4
144.4
144.4
144.4
144.4
144.4
144.4
144.4
144.4
144.4
144.4
144.4
144.4
144.401
144.401
144.402
144.403
144.404
144.406
144.41
144.416
144.426
144.442
144.468
144.51
144.578
144.69
144.874
145.177
145.676
146.499
147.857
150.095
153.763
159.72
169.24
184.092
206.491
238.853
283.335
341.309
413.035
497.663
593.612
698.667
144.4
144.4
144.4
144.4
144.4
144.4
144.4
144.4
144.4
144.4
144.4
144.4
144.4
144.4
144.401
144.401
144.401
144.402
144.403
144.405
144.408
144.413
144.42
144.431
144.45
144.48
144.527
144.604
144.728
144.93
145.257
145.79
146.659
148.074
150.376
154.101
160.075
169.506
184.055
205.788
236.956
279.588
335.02
403.562
484.463
576.128
676.478
783.283
894.475
1007.81
144.4
144.4
144.4
144.4
144.4
144.4
144.4
144.4
144.4
144.4
144.4
144.4
144.401
144.401
144.402
144.403
144.404
144.407
144.41
144.416
144.425
144.439
144.461
144.496
144.551
144.64
144.781
145.008
145.371
145.956
146.896
148.408
150.836
154.714
160.85
170.411
184.974
206.479
237.021
278.486
332.137
398.313
476.386
564.939
662.057
765.608
873.434
983.443
1093.55
1201.79
1306.62
144.4
144.4
144.4
144.4
144.4
144.4
144.4
144.4
144.401
144.401
144.402
144.402
144.404
144.406
144.409
144.413
144.421
144.432
144.449
144.476
144.518
144.585
144.689
144.854
145.116
145.529
146.186
147.23
148.887
151.512
155.647
162.099
172.011
186.897
208.587
239.025
279.941
332.485
396.97
472.838
558.817
653.171
753.944
859.13
966.789
1074.97
1181.67
1285.03
1383.35
1474.55
1556.91
144.4
144.4
144.4
144.4
144.4
144.401
144.401
144.402
144.402
144.403
144.405
144.408
144.412
144.418
144.427
144.442
144.464
144.498
144.55
144.631
144.758
144.955
145.264
145.747
146.503
147.691
149.551
152.458
156.973
163.912
174.41
189.933
212.212
243.039
283.976
336.029
399.444
473.686
557.588
649.571
747.851
850.596
956.011
1062.34
1167.73
1270.39
1368.65
1460.73
1544.53
1617.92
1679.22
1728.73
144.4
144.401
144.401
144.402
144.402
144.403
144.405
144.407
144.411
144.417
144.425
144.437
144.456
144.485
144.528
144.595
144.697
144.854
145.096
145.469
146.046
146.94
148.323
150.462
153.756
158.796
166.422
177.768
194.262
217.537
249.232
290.722
342.849
405.759
478.909
561.203
651.192
747.25
847.704
950.897
1055.24
1159.07
1260.71
1358.57
1451.1
1536.52
1612.77
1678.03
1731.29
1772.85
1803.82
1826.63
144.402
144.403
144.405
144.407
144.411
144.416
144.424
144.435
144.452
144.477
144.515
144.573
144.659
144.791
144.99
145.294
145.756
146.463
147.543
149.192
151.707
155.524
161.272
169.823
182.317
200.144
224.834
257.862
300.404
353.116
416.024
488.551
569.652
657.989
752.08
850.399
951.435
1053.73
1155.82
1256.14
1353.21
1445.61
1531.8
1609.99
1678.33
1735.52
1781.18
1816.07
1841.66
1859.88
1872.5
1881.38
144.411
144.416
144.424
144.434
144.45
144.474
144.509
144.561
144.638
144.754
144.926
145.186
145.575
146.162
147.048
148.383
150.394
153.417
157.933
164.618
174.381
188.371
207.93
234.472
269.289
313.343
367.092
430.431
502.739
583.01
670.003
762.368
858.717
957.682
1057.92
1158.13
1256.9
1352.83
1444.59
1530.86
1610.09
1680.57
1740.81
1790.07
1828.58
1857.47
1878.31
1892.91
1902.87
1909.58
1914.05
1916.94
144.452
144.475
144.508
144.558
144.63
144.736
144.894
145.126
145.471
145.983
146.745
147.879
149.566
152.072
155.778
161.223
169.137
180.465
196.354
218.083
246.924
283.969
329.95
385.124
449.254
521.673
601.409
687.31
778.147
872.667
969.629
1067.81
1166.03
1263.05
1357.56
1448.32
1534.13
1613.67
1685.39
1747.82
1799.96
1841.65
1873.57
1897.06
1913.73
1925.25
1932.92
1937.97
1941.14
1942.84
1943.98
1944.9
144.633
144.736
144.886
145.105
145.425
145.894
146.582
147.592
149.076
151.252
154.434
159.064
165.74
175.25
188.568
206.818
231.185
262.775
302.453
350.716
407.625
472.819
545.595
625.014
710.013
799.476
892.277
987.296
1083.43
1179.6
1274.71
1367.57
1457.01
1541.92
1621.16
1693.39
1757.2
1811.46
1855.72
1890.31
1916.27
1935.02
1948.08
1956.88
1962.62
1966.28
1968.22
1969.12
1969.78
1969.89
1969.25
1968.08
145.43
145.881
146.532
147.476
148.843
150.823
153.683
157.796
163.669
171.97
183.532
199.339
220.461
247.952
282.715
325.375
376.197
435.059
501.496
574.785
654.029
738.254
826.451
917.613
1010.73
1104.81
1198.88
1291.95
1382.94
1470.78
1554.45
1632.91
1705.01
1769.46
1825.1
1871.3
1908.1
1936.23
1956.88
1971.48
1981.46
1987.98
1992.03
1994.35
1995.3
1995.65
1995.69
1995.14
1993.86
1992.08
1989.96
1987.78
150.715
153.404
157.224
162.616
170.161
180.583
194.747
213.609
238.142
269.224
307.528
353.436
406.991
467.919
535.679
609.547
688.68
772.19
859.173
948.73
1039.96
1131.97
1223.86
1314.77
1403.72
1489.73
1571.83
1649.12
1720.57
1785.01
1841.36
1888.86
1927.32
1957.23
1979.6
1995.63
2006.7
2014.01
2018.54
2021.21
2022.34
2022.41
2022.23
2021.74
2020.47
2018.61
2016.38
2013.87
2011.27
2008.7
2006.21
169.568
179.333
192.486
209.881
232.401
260.866
295.943
338.061
387.362
443.706
506.699
575.759
650.18
729.185
811.973
897.739
985.684
1075
1164.89
1254.55
1343.19
1429.94
1513.9
1594.18
1669.94
1740.28
1804.19
1860.62
1908.79
1948.37
1979.65
2003.39
2020.66
2032.74
2040.84
2045.83
2048.75
2050.15
2050.13
2049.69
2049.03
2047.82
2045.88
2043.55
2040.86
2038.01
2035.1
2032.23
2029.36
2026.53
2023.76
230.152
256.911
289.755
329.111
375.169
427.868
486.921
551.861
622.098
696.964
775.753
857.752
942.248
1028.53
1115.89
1203.6
1290.94
1377.19
1461.58
1543.29
1621.5
1695.43
1764.3
1827.2
1883.16
1931.43
1971.58
2003.74
2028.5
2046.78
2059.74
2068.48
2073.94
2077.13
2078.71
2078.67
2078.04
2077.12
2075.8
2073.83
2071.36
2068.62
2065.54
2062.35
2059.16
2055.99
2052.82
2049.68
2046.55
2043.46
2040.4
419.666
475.606
537.154
603.813
675.011
750.136
828.558
909.645
992.77
1077.31
1162.61
1248.05
1332.97
1416.72
1498.6
1577.87
1653.78
1725.62
1792.68
1854.16
1909.19
1957.02
1997.21
2029.78
2055.19
2074.18
2087.79
2097.08
2102.96
2106.37
2108.01
2108.07
2107.3
2106.05
2104.5
2102.56
2099.98
2097.04
2093.78
2090.34
2086.86
2083.4
2079.94
2076.49
2073.06
2069.65
2066.24
2062.83
2059.45
2056.1
662.874
734.742
809.877
887.724
967.728
1049.34
1132.01
1215.16
1298.21
1380.59
1461.71
1540.93
1617.58
1690.98
1760.48
1825.43
1885.13
1938.79
1985.72
2025.48
2058.01
2083.64
2103.02
2117.06
2126.75
2132.9
2136.48
2138.19
2138.29
2137.39
2135.86
2134.04
2131.94
2129.24
2126.12
2122.77
2119.12
2115.36
2111.58
2107.82
2104.06
2100.33
2096.63
2092.92
2089.23
2085.54
2081.85
2078.16
2074.48
2070.82
953.32
1032.03
1111.96
1192.6
1273.45
1353.99
1433.7
1512.04
1588.45
1662.3
1732.99
1799.91
1862.5
1920.1
1972.03
2017.64
2056.51
2088.56
2114.02
2133.46
2147.68
2157.54
2163.85
2167.54
2169.27
2169.27
2168.33
2166.58
2164.4
2162.05
2159.31
2156
2152.43
2148.58
2144.54
2140.48
2136.44
2132.4
2128.37
2124.36
2120.36
2116.38
2112.41
2108.43
2104.46
2100.49
2096.51
2092.52
2088.55
2084.59
1259
1337.39
1415.26
1492.15
1567.56
1641
1711.88
1779.66
1843.8
1903.77
1958.99
2008.85
2052.77
2090.36
2121.52
2146.44
2165.61
2179.73
2189.56
2195.91
2199.59
2201.22
2201.13
2200.11
2198.13
2195.6
2192.97
2190.05
2186.55
2182.75
2178.78
2174.51
2170.16
2165.8
2161.46
2157.12
2152.81
2148.53
2144.26
2140
2135.75
2131.5
2127.25
2123
2118.75
2114.48
2110.21
2105.93
2101.66
2097.39
1555.76
1628.09
1698.39
1766.12
1830.81
1891.95
1949.08
2001.67
2049.18
2091.07
2127.03
2156.94
2180.96
2199.54
2213.28
2222.88
2229.08
2232.63
2234.1
2233.88
2232.7
2230.48
2227.67
2224.69
2221.5
2217.87
2213.84
2209.63
2205.14
2200.5
2195.87
2191.24
2186.62
2182.01
2177.42
2172.85
2168.3
2163.77
2159.24
2154.72
2150.2
2145.68
2141.15
2136.62
2132.08
2127.53
2122.97
2118.39
2113.82
2109.25
1824.78
1886.19
1944.14
1998.22
2047.95
2092.84
2132.42
2166.42
2194.76
2217.57
2235.27
2248.39
2257.53
2263.41
2266.72
2267.92
2267.49
2266.09
2263.66
2260.54
2257.19
2253.69
2249.9
2245.62
2241.13
2236.49
2231.6
2226.67
2221.73
2216.8
2211.88
2207.01
2202.16
2197.32
2192.5
2187.68
2182.88
2178.09
2173.3
2168.51
2163.72
2158.92
2154.11
2149.3
2144.47
2139.63
2134.77
2129.9
2125.04
2120.16
2050.93
2097.59
2139.62
2176.63
2208.41
2234.9
2256.22
2272.77
2285.03
2293.5
2298.91
2301.85
2302.67
2302
2300.31
2297.61
2294.16
2290.49
2286.66
2282.57
2278.09
2273.34
2268.47
2263.35
2258.12
2252.9
2247.69
2242.48
2237.3
2232.14
2227.01
2221.89
2216.81
2211.73
2206.66
2201.6
2196.54
2191.48
2186.43
2181.37
2176.3
2171.22
2166.13
2161.03
2155.92
2150.79
2145.64
2140.48
2135.31
2130.13
2252.81
2277.19
2296.79
2311.97
2323.14
2330.77
2335.57
2338
2338.35
2337.38
2335.34
2332.32
2328.56
2324.56
2320.36
2315.95
2311.28
2306.25
2301.07
2295.75
2290.24
2284.73
2279.24
2273.73
2268.25
2262.81
2257.38
2251.98
2246.6
2241.24
2235.89
2230.55
2225.23
2219.91
2214.59
2209.27
2203.95
2198.62
2193.29
2187.94
2182.59
2177.22
2171.83
2166.43
2161.01
2155.58
2150.12
2144.66
2139.18
2352.74
2362.64
2369.31
2373.33
2375.12
2374.93
2373.59
2371.15
2367.76
2363.7
2359.33
2354.76
2350.02
2345.1
2339.8
2334.34
2328.79
2323.02
2317.2
2311.42
2305.64
2299.85
2294.11
2288.4
2282.7
2277.04
2271.4
2265.78
2260.17
2254.57
2248.98
2243.39
2237.82
2232.24
2226.66
2221.08
2215.49
2209.89
2204.28
2198.66
2193.03
2187.38
2181.71
2176.02
2170.31
2164.59
2158.84
2153.09
2147.31
2412.11
2413.12
2412.44
2410.59
2407.69
2403.91
2399.52
2394.77
2389.86
2384.77
2379.52
2373.98
2368.23
2362.4
2356.41
2350.3
2344.22
2338.16
2332.08
2326.05
2320.05
2314.07
2308.11
2302.19
2296.28
2290.4
2284.53
2278.68
2272.83
2266.99
2261.15
2255.32
2249.49
2243.65
2237.81
2231.97
2226.11
2220.24
2214.36
2208.46
2202.55
2196.61
2190.66
2184.69
2178.7
2172.68
2166.65
2160.6
2154.53
2444.91
2440.73
2435.98
2430.85
2425.57
2420.14
2414.57
2408.77
2402.72
2396.59
2390.36
2383.98
2377.6
2371.27
2364.92
2358.58
2352.3
2346.04
2339.8
2333.6
2327.41
2321.25
2315.11
2308.98
2302.87
2296.77
2290.68
2284.59
2278.51
2272.42
2266.34
2260.25
2254.15
2248.05
2241.94
2235.81
2229.67
2223.52
2217.34
2211.15
2204.94
2198.7
2192.45
2186.17
2179.87
2173.55
2167.21
2160.85
2467.52
2461.88
2456.11
2450.2
2444.1
2437.79
2431.36
2424.86
2418.23
2411.56
2404.94
2398.32
2391.69
2385.13
2378.59
2372.07
2365.58
2359.12
2352.69
2346.28
2339.88
2333.51
2327.14
2320.79
2314.45
2308.11
2301.78
2295.45
2289.12
2282.78
2276.45
2270.1
2263.75
2257.38
2251
2244.61
2238.2
2231.77
2225.32
2218.85
2212.36
2205.84
2199.31
2192.74
2186.16
2179.55
2172.93
2166.28
2479.95
2473.38
2466.66
2459.88
2452.99
2446.04
2439.14
2432.25
2425.34
2418.5
2411.69
2404.88
2398.12
2391.4
2384.69
2378.01
2371.35
2364.71
2358.08
2351.47
2344.88
2338.29
2331.7
2325.13
2318.56
2311.98
2305.41
2298.83
2292.24
2285.65
2279.05
2272.43
2265.81
2259.16
2252.5
2245.82
2239.12
2232.39
2225.65
2218.88
2212.09
2205.27
2198.43
2191.56
2184.67
2177.77
2170.84
2495.38
2488.24
2481.02
2473.83
2466.68
2459.51
2452.38
2445.3
2438.23
2431.19
2424.2
2417.22
2410.27
2403.35
2396.45
2389.57
2382.7
2375.85
2369.01
2362.18
2355.36
2348.54
2341.73
2334.92
2328.11
2321.29
2314.47
2307.65
2300.81
2293.96
2287.1
2280.23
2273.33
2266.43
2259.5
2252.55
2245.57
2238.58
2231.56
2224.51
2217.45
2210.35
2203.23
2196.09
2188.92
2181.75
2174.53
2501.57
2494.15
2486.74
2479.39
2472.06
2464.76
2457.5
2450.26
2443.05
2435.87
2428.71
2421.57
2414.45
2407.35
2400.26
2393.18
2386.12
2379.06
2372.01
2364.96
2357.92
2350.87
2343.82
2336.77
2329.71
2322.64
2315.57
2308.48
2301.38
2294.26
2287.13
2279.97
2272.8
2265.6
2258.39
2251.15
2243.88
2236.59
2229.27
2221.93
2214.56
2207.17
2199.76
2192.32
2184.87
2177.38
2513.93
2506.35
2498.78
2491.26
2483.77
2476.3
2468.87
2461.45
2454.06
2446.69
2439.34
2432
2424.68
2417.38
2410.08
2402.79
2395.51
2388.23
2380.96
2373.68
2366.4
2359.12
2351.84
2344.54
2337.24
2329.93
2322.61
2315.27
2307.91
2300.54
2293.14
2285.73
2278.29
2270.83
2263.35
2255.84
2248.31
2240.75
2233.16
2225.55
2217.91
2210.25
2202.57
2194.86
2187.15
2179.4
2525.45
2517.71
2509.99
2502.31
2494.65
2487.01
2479.39
2471.8
2464.22
2456.66
2449.11
2441.58
2434.05
2426.54
2419.03
2411.53
2404.02
2396.52
2389.02
2381.52
2374.01
2366.5
2358.97
2351.44
2343.89
2336.34
2328.76
2321.17
2313.56
2305.93
2298.28
2290.61
2282.91
2275.19
2267.45
2259.67
2251.87
2244.05
2236.2
2228.32
2220.42
2212.5
2204.55
2196.58
2188.6
2180.59
2536.15
2528.26
2520.38
2512.52
2504.69
2496.87
2489.07
2481.29
2473.52
2465.77
2458.02
2450.29
2442.56
2434.83
2427.11
2419.39
2411.67
2403.95
2396.22
2388.49
2380.74
2372.99
2365.23
2357.46
2349.67
2341.87
2334.04
2326.2
2318.34
2310.46
2302.55
2294.62
2286.67
2278.69
2270.68
2262.65
2254.59
2246.51
2238.39
2230.26
2222.09
2213.91
2205.7
2197.47
2189.24
2180.98
2546.03
2537.97
2529.92
2521.89
2513.88
2505.89
2497.9
2489.93
2481.97
2474.02
2466.07
2458.13
2450.2
2442.26
2434.32
2426.39
2418.44
2410.5
2402.54
2394.58
2386.61
2378.62
2370.62
2362.61
2354.58
2346.53
2338.46
2330.37
2322.26
2314.13
2305.97
2297.78
2289.58
2281.34
2273.08
2264.79
2256.47
2248.13
2239.76
2231.36
2222.94
2214.5
2206.06
2197.6
2189.13
2180.63
2555.08
2546.85
2538.63
2530.42
2522.23
2514.05
2505.88
2497.72
2489.56
2481.41
2473.26
2465.12
2456.97
2448.82
2440.67
2432.52
2424.35
2416.18
2408
2399.81
2391.6
2383.38
2375.15
2366.89
2358.62
2350.33
2342.02
2333.68
2325.33
2316.94
2308.53
2300.1
2291.64
2283.15
2274.64
2266.09
2257.52
2248.92
2240.31
2231.67
2223.02
2214.34
2205.66
2196.97
2188.26
2179.53
2563.29
2554.89
2546.49
2538.11
2529.74
2521.37
2513.01
2504.65
2496.3
2487.95
2479.6
2471.24
2462.89
2454.53
2446.16
2437.78
2429.4
2421
2412.6
2404.18
2395.74
2387.29
2378.82
2370.33
2361.82
2353.28
2344.73
2336.15
2327.55
2318.92
2310.26
2301.58
2292.87
2284.13
2275.36
2266.58
2257.78
2248.95
2240.09
2231.22
2222.34
2213.43
2204.51
2195.58
2186.64
2177.68
2562.09
2553.52
2544.95
2536.39
2527.84
2519.29
2510.73
2502.18
2493.63
2485.07
2476.51
2467.95
2459.37
2450.79
2442.2
2433.59
2424.97
2416.34
2407.69
2399.02
2390.34
2381.63
2372.91
2364.16
2355.39
2346.6
2337.78
2328.93
2320.06
2311.16
2302.23
2293.29
2284.32
2275.33
2266.31
2257.27
2248.21
2239.12
2230.02
2220.89
2211.75
2202.6
2193.44
2184.29
2175.11
2568.45
2559.69
2550.95
2542.2
2533.46
2524.71
2515.96
2507.21
2498.46
2489.7
2480.93
2472.15
2463.37
2454.57
2445.76
2436.93
2428.09
2419.23
2410.36
2401.46
2392.55
2383.61
2374.65
2365.67
2356.67
2347.63
2338.57
2329.5
2320.4
2311.27
2302.12
2292.95
2283.75
2274.53
2265.27
2256
2246.7
2237.39
2228.05
2218.7
2209.34
2199.97
2190.6
2181.23
2171.84
2573.96
2565.03
2556.1
2547.16
2538.23
2529.29
2520.35
2511.4
2502.44
2493.47
2484.5
2475.51
2466.51
2457.5
2448.47
2439.43
2430.36
2421.28
2412.18
2403.06
2393.92
2384.75
2375.56
2366.35
2357.12
2347.87
2338.59
2329.29
2319.96
2310.62
2301.24
2291.83
2282.4
2272.95
2263.47
2253.97
2244.45
2234.91
2225.35
2215.79
2206.21
2196.63
2187.05
2177.48
2167.9
2569.52
2560.4
2551.28
2542.16
2533.02
2523.88
2514.73
2505.57
2496.4
2487.22
2478.02
2468.81
2459.59
2450.34
2441.08
2431.8
2422.5
2413.18
2403.83
2394.47
2385.09
2375.68
2366.25
2356.81
2347.34
2337.84
2328.31
2318.76
2309.18
2299.58
2289.95
2280.3
2270.62
2260.92
2251.2
2241.47
2231.71
2221.95
2212.17
2202.39
2192.61
2182.84
2173.07
2163.3
2573.17
2563.87
2554.56
2545.24
2535.91
2526.57
2517.23
2507.87
2498.49
2489.1
2479.7
2470.28
2460.84
2451.38
2441.9
2432.41
2422.9
2413.37
2403.81
2394.24
2384.65
2375.03
2365.39
2355.72
2346.02
2336.3
2326.56
2316.79
2306.99
2297.17
2287.32
2277.45
2267.56
2257.65
2247.72
2237.78
2227.82
2217.85
2207.88
2197.9
2187.93
2177.97
2168.02
2158.07
2575.98
2566.49
2556.99
2547.49
2537.96
2528.43
2518.88
2509.32
2499.75
2490.15
2480.54
2470.91
2461.27
2451.61
2441.93
2432.24
2422.52
2412.79
2403.03
2393.24
2383.43
2373.6
2363.74
2353.85
2343.94
2334.01
2324.05
2314.06
2304.05
2294.02
2283.97
2273.89
2263.8
2253.68
2243.55
2233.41
2223.25
2213.09
2202.93
2192.77
2182.62
2172.47
2162.35
2152.24
2577.96
2568.28
2558.59
2548.89
2539.18
2529.45
2519.7
2509.95
2500.18
2490.39
2480.58
2470.76
2460.92
2451.07
2441.19
2431.29
2421.36
2411.42
2401.45
2391.45
2381.43
2371.39
2361.32
2351.23
2341.11
2330.97
2320.8
2310.61
2300.4
2290.16
2279.91
2269.63
2259.34
2249.03
2238.71
2228.37
2218.03
2207.69
2197.34
2187.01
2176.68
2166.37
2156.09
2145.82
2569.23
2559.35
2549.47
2539.57
2529.66
2519.73
2509.78
2499.82
2489.85
2479.85
2469.84
2459.79
2449.73
2439.65
2429.55
2419.42
2409.27
2399.09
2388.9
2378.67
2368.43
2358.16
2347.86
2337.54
2327.2
2316.84
2306.45
2296.04
2285.61
2275.16
2264.7
2254.21
2243.72
2233.21
2222.7
2212.18
2201.66
2191.14
2180.64
2170.15
2159.69
2149.26
2138.84
2569.38
2559.32
2549.26
2539.18
2529.09
2518.98
2508.84
2498.69
2488.52
2478.32
2468.11
2457.87
2447.62
2437.34
2427.03
2416.71
2406.36
2395.99
2385.59
2375.17
2364.73
2354.27
2343.78
2333.27
2322.73
2312.18
2301.6
2291
2280.39
2269.75
2259.1
2248.44
2237.77
2227.09
2216.4
2205.71
2195.03
2184.35
2173.69
2163.06
2152.44
2141.87
2131.31
2568.74
2558.51
2548.26
2538
2527.72
2517.42
2507.1
2496.75
2486.39
2476.01
2465.61
2455.18
2444.73
2434.26
2423.77
2413.25
2402.71
2392.15
2381.56
2370.96
2360.32
2349.67
2338.99
2328.3
2317.58
2306.84
2296.08
2285.3
2274.51
2263.7
2252.88
2242.04
2231.2
2220.36
2209.51
2198.66
2187.82
2177
2166.19
2155.41
2144.66
2133.96
2123.28
2556.89
2546.47
2536.02
2525.56
2515.07
2504.57
2494.04
2483.5
2472.93
2462.34
2451.73
2441.1
2430.44
2419.76
2409.06
2398.34
2387.59
2376.82
2366.03
2355.22
2344.39
2333.53
2322.66
2311.76
2300.85
2289.91
2278.97
2268
2257.03
2246.04
2235.04
2224.04
2213.04
2202.04
2191.04
2180.06
2169.09
2158.15
2147.24
2136.36
2125.54
2114.74
2554.48
2543.88
2533.26
2522.62
2511.95
2501.27
2490.57
2479.84
2469.1
2458.33
2447.54
2436.73
2425.89
2415.04
2404.16
2393.26
2382.33
2371.39
2360.43
2349.44
2338.43
2327.41
2316.36
2305.3
2294.22
2283.12
2272.01
2260.89
2249.75
2238.61
2227.46
2216.31
2205.16
2194.02
2182.88
2171.76
2160.66
2149.6
2138.56
2127.57
2116.64
2105.74
2551.29
2540.52
2529.73
2518.91
2508.08
2497.23
2486.35
2475.45
2464.53
2453.59
2442.63
2431.64
2420.64
2409.61
2398.56
2387.49
2376.4
2365.29
2354.15
2343
2331.83
2320.64
2309.44
2298.21
2286.97
2275.72
2264.46
2253.18
2241.9
2230.61
2219.32
2208.03
2196.74
2185.46
2174.2
2162.95
2151.73
2140.55
2129.41
2118.31
2107.27
2096.28
2547.34
2536.4
2525.44
2514.46
2503.46
2492.44
2481.4
2470.34
2459.25
2448.14
2437.01
2425.86
2414.69
2403.5
2392.29
2381.05
2369.8
2358.53