/*--------------------------------*- C++ -*----------------------------------*\
| =========                 |                                                 |
| \\      /  F ield         | OpenFOAM: The Open Source CFD Toolbox           |
|  \\    /   O peration     | Version:  v1706                                 |
|   \\  /    A nd           | Web:      www.OpenFOAM.com                      |
|    \\/     M anipulation  |                                                 |
\*---------------------------------------------------------------------------*/
FoamFile
{
    version     2.0;
    format      ascii;
    class       volVectorField;
    location    "4e-05";
    object      U;
}
// * * * * * * * * * * * * * * * * * * * * * * * * * * * * * * * * * * * * * //

dimensions      [0 1 -1 0 0 0 0];


internalField   nonuniform List<vector> 
29987
(
(978.58 -2.17582e-08 3.79605e-11)
(978.58 -8.57116e-09 1.4265e-11)
(978.58 -3.87766e-09 6.45801e-12)
(978.58 -2.16664e-09 3.64675e-12)
(978.58 -1.41536e-09 2.38892e-12)
(978.58 -1.0178e-09 1.71703e-12)
(978.58 -7.76012e-10 1.30052e-12)
(978.58 -6.14959e-10 1.02461e-12)
(978.58 -5.01367e-10 8.28673e-13)
(978.58 -4.17468e-10 6.92395e-13)
(978.58 -3.54532e-10 5.21236e-13)
(978.58 -3.06715e-10 4.59614e-13)
(978.58 -2.68785e-10 4.09629e-13)
(978.58 -2.38581e-10 3.50312e-13)
(978.58 -2.13477e-10 3.02364e-13)
(978.58 -1.92591e-10 2.64549e-13)
(978.58 -1.76456e-10 2.22994e-13)
(978.58 -1.62264e-10 1.97356e-13)
(978.58 -1.49791e-10 1.85543e-13)
(978.58 -1.39048e-10 1.71494e-13)
(978.58 -1.30124e-10 1.6225e-13)
(978.58 -1.22843e-10 1.38125e-13)
(978.58 -1.16242e-10 1.31167e-13)
(978.58 -1.09704e-10 1.13986e-13)
(978.58 -1.04253e-10 1.17571e-13)
(978.58 -9.9496e-11 1.11546e-13)
(978.58 -9.5148e-11 9.18565e-14)
(978.58 -9.16417e-11 8.31244e-14)
(978.58 -8.88623e-11 8.9341e-14)
(978.58 -8.55333e-11 8.17194e-14)
(978.58 -8.3261e-11 8.19254e-14)
(978.58 -8.0638e-11 7.41215e-14)
(978.58 -7.81178e-11 6.48674e-14)
(978.58 -7.57632e-11 5.94458e-14)
(978.58 -7.38369e-11 5.95298e-14)
(978.58 -7.26899e-11 5.59941e-14)
(978.58 -7.06473e-11 5.43176e-14)
(978.58 -6.85943e-11 4.51675e-14)
(978.58 -6.76762e-11 4.23433e-14)
(978.58 -6.6456e-11 4.22894e-14)
(978.58 -6.5123e-11 3.47861e-14)
(978.58 -6.48063e-11 3.98007e-14)
(978.58 -6.33454e-11 4.51584e-14)
(978.58 -6.30563e-11 3.79106e-14)
(978.58 -6.19339e-11 3.38192e-14)
(978.58 -6.19503e-11 3.26894e-14)
(978.58 -6.08274e-11 4.16725e-14)
(978.58 -5.99143e-11 2.93254e-14)
(978.58 -5.9327e-11 2.94317e-14)
(978.58 -5.93365e-11 3.37969e-14)
(978.58 -5.85373e-11 3.26835e-14)
(978.58 -5.83719e-11 2.94561e-14)
(978.58 -5.77309e-11 2.75929e-14)
(978.58 -5.7597e-11 2.4243e-14)
(978.58 -5.71963e-11 2.47716e-14)
(978.58 -5.64242e-11 2.0514e-14)
(978.58 -5.64338e-11 1.81067e-14)
(978.58 -5.66622e-11 2.00145e-14)
(978.58 -5.60639e-11 2.35323e-14)
(978.58 -5.53108e-11 2.63726e-14)
(978.58 -5.53763e-11 2.34192e-14)
(978.58 -5.61218e-11 1.35592e-14)
(978.58 -5.49102e-11 1.97287e-14)
(978.58 -5.48505e-11 2.05196e-14)
(978.58 -5.47608e-11 1.67321e-14)
(978.58 -5.48345e-11 1.5004e-14)
(978.58 -5.49233e-11 1.57549e-14)
(978.58 -5.49115e-11 1.87133e-14)
(978.58 -5.54375e-11 1.84652e-14)
(978.58 -5.48264e-11 1.60776e-14)
(978.58 -5.50014e-11 1.47037e-14)
(978.58 -5.53091e-11 1.55451e-14)
(978.58 -5.61709e-11 1.37844e-14)
(978.58 -5.56186e-11 1.50019e-14)
(978.58 -5.57154e-11 1.79175e-14)
(978.58 -5.62271e-11 1.68536e-14)
(978.58 -5.59884e-11 1.56954e-14)
(978.58 -5.6126e-11 1.6073e-14)
(978.58 -5.61679e-11 9.66665e-15)
(978.58 -5.65373e-11 6.78858e-15)
(978.58 -5.67581e-11 1.0315e-14)
(978.58 -5.68181e-11 1.05126e-14)
(978.58 -5.72627e-11 8.23396e-15)
(978.58 -5.70142e-11 1.11455e-14)
(978.58 -5.73016e-11 1.27858e-14)
(978.58 -5.7581e-11 1.16141e-14)
(978.58 -5.79323e-11 1.02662e-14)
(978.58 -5.76888e-11 1.07777e-14)
(978.58 -5.77179e-11 1.12724e-14)
(978.58 -5.78042e-11 8.10444e-15)
(978.58 -5.84352e-11 7.44333e-15)
(978.58 -5.88529e-11 7.92536e-15)
(978.58 -5.97962e-11 1.14233e-14)
(978.58 -5.91607e-11 1.23963e-14)
(978.58 -5.90989e-11 1.27722e-14)
(978.58 -5.93417e-11 1.1084e-14)
(978.58 -5.97135e-11 7.86029e-15)
(978.58 -6.01416e-11 1.01507e-14)
(978.58 -6.05548e-11 1.01174e-14)
(978.58 -6.09438e-11 7.44465e-15)
(978.58 -6.1497e-11 7.45195e-15)
(978.58 -6.20557e-11 1.27923e-14)
(978.58 -6.2312e-11 1.16933e-14)
(978.58 -6.24743e-11 8.30543e-15)
(978.58 -6.30114e-11 8.37219e-15)
(978.58 -6.33641e-11 6.5942e-15)
(978.58 -6.39573e-11 5.31871e-15)
(978.58 -6.43885e-11 6.02977e-15)
(978.58 -6.50879e-11 8.5911e-15)
(978.58 -6.54064e-11 6.51852e-15)
(978.58 -6.61254e-11 7.27165e-15)
(978.58 -6.68647e-11 7.93669e-15)
(978.58 -6.73841e-11 9.38233e-15)
(978.58 -6.82259e-11 7.79807e-15)
(978.58 -6.8852e-11 9.58777e-15)
(978.58 -6.95568e-11 7.72571e-15)
(978.58 -7.00868e-11 9.4855e-15)
(978.58 -7.06548e-11 1.13532e-14)
(978.58 -7.13242e-11 9.86237e-15)
(978.58 -7.20816e-11 6.02382e-15)
(978.58 -7.27744e-11 7.14242e-15)
(978.58 -7.33322e-11 8.34621e-15)
(978.58 -7.42926e-11 6.84228e-15)
(978.58 -7.43675e-11 8.02095e-15)
(978.58 -7.4857e-11 8.84059e-15)
(978.58 -7.54718e-11 7.92601e-15)
(978.58 -7.61127e-11 8.80433e-15)
(978.58 -7.64274e-11 7.95512e-15)
(978.58 -7.77587e-11 8.76682e-15)
(978.58 -7.87138e-11 8.43203e-15)
(978.58 -7.96043e-11 1.04551e-14)
(978.58 -8.07399e-11 1.09987e-14)
(978.58 -8.19537e-11 4.89841e-15)
(978.58 -8.2544e-11 4.2994e-15)
(978.58 -8.33495e-11 5.96883e-15)
(978.58 -8.4633e-11 4.24244e-15)
(978.58 -8.60116e-11 8.60388e-15)
(978.58 -8.65821e-11 8.34774e-15)
(978.58 -8.7884e-11 6.34811e-15)
(978.58 -8.9634e-11 6.52211e-15)
(978.58 -9.01329e-11 2.8727e-15)
(978.58 -9.16414e-11 5.27357e-15)
(978.58 -9.2476e-11 7.42842e-15)
(978.58 -9.43907e-11 6.26797e-15)
(978.58 -9.58773e-11 7.69688e-15)
(978.58 -9.75378e-11 8.51293e-15)
(978.58 -9.87219e-11 8.27705e-15)
(978.58 -9.92092e-11 8.32354e-15)
(978.58 -1.00668e-10 6.6707e-15)
(978.58 -1.02503e-10 4.48369e-15)
(978.58 -1.04358e-10 4.23945e-15)
(978.58 -1.05655e-10 4.25921e-15)
(978.58 -1.06585e-10 5.35293e-15)
(978.58 -1.08058e-10 7.09425e-15)
(978.58 -1.10358e-10 6.1387e-15)
(978.58 -1.12174e-10 8.11145e-15)
(978.58 -5.20915e-08 8.68879e-11)
(978.58 -2.79326e-08 4.30779e-11)
(978.58 -1.50587e-08 2.16714e-11)
(978.58 -8.80119e-09 1.23259e-11)
(978.58 -5.64888e-09 7.8598e-12)
(978.58 -3.93223e-09 5.48755e-12)
(978.58 -2.91668e-09 4.0738e-12)
(978.58 -2.26965e-09 3.12416e-12)
(978.58 -1.82699e-09 2.50801e-12)
(978.58 -1.50985e-09 2.02744e-12)
(978.58 -1.2743e-09 1.65605e-12)
(978.58 -1.09318e-09 1.42346e-12)
(978.58 -9.52182e-10 1.20516e-12)
(978.58 -8.40316e-10 1.04657e-12)
(978.58 -7.49738e-10 9.06097e-13)
(978.58 -6.74723e-10 8.18737e-13)
(978.58 -6.12294e-10 7.06918e-13)
(978.58 -5.60962e-10 6.42612e-13)
(978.58 -5.168e-10 5.87228e-13)
(978.58 -4.7823e-10 5.33683e-13)
(978.58 -4.44665e-10 4.78646e-13)
(978.58 -4.16816e-10 4.15843e-13)
(978.58 -3.93459e-10 3.93357e-13)
(978.58 -3.72138e-10 3.60041e-13)
(978.58 -3.52019e-10 3.48969e-13)
(978.58 -3.33903e-10 3.30946e-13)
(978.58 -3.18708e-10 3.06556e-13)
(978.58 -3.05818e-10 2.84845e-13)
(978.58 -2.94355e-10 2.6588e-13)
(978.58 -2.82303e-10 2.43649e-13)
(978.58 -2.71363e-10 2.1812e-13)
(978.58 -2.64178e-10 2.11381e-13)
(978.58 -2.5717e-10 1.81379e-13)
(978.58 -2.50005e-10 1.72212e-13)
(978.58 -2.4452e-10 1.73157e-13)
(978.58 -2.38591e-10 1.67473e-13)
(978.58 -2.32501e-10 1.53766e-13)
(978.58 -2.25166e-10 1.53502e-13)
(978.58 -2.19437e-10 1.45924e-13)
(978.58 -2.14442e-10 1.30025e-13)
(978.58 -2.10367e-10 1.20393e-13)
(978.58 -2.05916e-10 1.22769e-13)
(978.58 -2.03134e-10 1.24666e-13)
(978.58 -1.99955e-10 1.09727e-13)
(978.58 -1.97139e-10 9.38437e-14)
(978.58 -1.96923e-10 1.04073e-13)
(978.58 -1.94377e-10 9.92968e-14)
(978.58 -1.90926e-10 9.13871e-14)
(978.58 -1.87774e-10 9.17058e-14)
(978.58 -1.86139e-10 9.93609e-14)
(978.58 -1.83286e-10 9.43079e-14)
(978.58 -1.83741e-10 8.26078e-14)
(978.58 -1.8222e-10 7.78622e-14)
(978.58 -1.81422e-10 6.64834e-14)
(978.58 -1.79409e-10 6.80638e-14)
(978.58 -1.77332e-10 6.56346e-14)
(978.58 -1.76222e-10 6.52848e-14)
(978.58 -1.76423e-10 6.43174e-14)
(978.58 -1.75061e-10 7.22542e-14)
(978.58 -1.72667e-10 6.90796e-14)
(978.58 -1.72795e-10 6.04029e-14)
(978.58 -1.73877e-10 5.57025e-14)
(978.58 -1.72559e-10 6.36223e-14)
(978.58 -1.72181e-10 5.52897e-14)
(978.58 -1.70221e-10 5.41617e-14)
(978.58 -1.70732e-10 5.33129e-14)
(978.58 -1.69175e-10 4.77733e-14)
(978.58 -1.6851e-10 5.19604e-14)
(978.58 -1.7046e-10 4.95584e-14)
(978.58 -1.6946e-10 4.62605e-14)
(978.58 -1.68475e-10 4.96972e-14)
(978.58 -1.68608e-10 4.99811e-14)
(978.58 -1.69401e-10 4.48239e-14)
(978.58 -1.69884e-10 4.52283e-14)
(978.58 -1.68762e-10 4.87397e-14)
(978.58 -1.70012e-10 5.01388e-14)
(978.58 -1.70848e-10 4.50074e-14)
(978.58 -1.70819e-10 4.14563e-14)
(978.58 -1.69602e-10 3.39548e-14)
(978.58 -1.70094e-10 3.43051e-14)
(978.58 -1.71566e-10 3.72203e-14)
(978.58 -1.71506e-10 3.45311e-14)
(978.58 -1.72606e-10 3.22213e-14)
(978.58 -1.73076e-10 3.69213e-14)
(978.58 -1.73712e-10 3.88591e-14)
(978.58 -1.73698e-10 3.71073e-14)
(978.58 -1.74644e-10 3.34764e-14)
(978.58 -1.75411e-10 3.60222e-14)
(978.58 -1.76208e-10 3.31272e-14)
(978.58 -1.7639e-10 3.08111e-14)
(978.58 -1.75682e-10 3.29294e-14)
(978.58 -1.76169e-10 3.04407e-14)
(978.58 -1.7818e-10 3.68251e-14)
(978.58 -1.80144e-10 3.69625e-14)
(978.58 -1.81087e-10 3.8253e-14)
(978.58 -1.82275e-10 2.963e-14)
(978.58 -1.82176e-10 2.44187e-14)
(978.58 -1.82273e-10 2.55581e-14)
(978.58 -1.82968e-10 2.60227e-14)
(978.58 -1.83798e-10 2.59188e-14)
(978.58 -1.8466e-10 2.53525e-14)
(978.58 -1.86284e-10 2.676e-14)
(978.58 -1.87435e-10 2.75507e-14)
(978.58 -1.88697e-10 2.20347e-14)
(978.58 -1.89721e-10 2.35282e-14)
(978.58 -1.91273e-10 2.21434e-14)
(978.58 -1.9253e-10 2.18706e-14)
(978.58 -1.9396e-10 2.03913e-14)
(978.58 -1.9607e-10 1.86263e-14)
(978.58 -1.97185e-10 2.10322e-14)
(978.58 -1.98406e-10 2.28999e-14)
(978.58 -2.00392e-10 2.26548e-14)
(978.58 -2.01085e-10 2.27503e-14)
(978.58 -2.02617e-10 2.33912e-14)
(978.58 -2.04645e-10 2.54943e-14)
(978.58 -2.06302e-10 2.48868e-14)
(978.58 -2.07878e-10 2.62566e-14)
(978.58 -2.09778e-10 2.57323e-14)
(978.58 -2.11617e-10 2.1666e-14)
(978.58 -2.13489e-10 1.82894e-14)
(978.58 -2.15469e-10 2.04026e-14)
(978.58 -2.1735e-10 2.13634e-14)
(978.58 -2.19966e-10 2.17133e-14)
(978.58 -2.2179e-10 2.20887e-14)
(978.58 -2.23563e-10 2.24941e-14)
(978.58 -2.26106e-10 2.03962e-14)
(978.58 -2.28014e-10 2.03814e-14)
(978.58 -2.29814e-10 1.96245e-14)
(978.58 -2.31254e-10 2.03068e-14)
(978.58 -2.33257e-10 2.38281e-14)
(978.58 -2.36813e-10 2.28177e-14)
(978.58 -2.38896e-10 1.8399e-14)
(978.58 -2.41656e-10 1.85395e-14)
(978.58 -2.44873e-10 2.08281e-14)
(978.58 -2.46828e-10 2.03315e-14)
(978.58 -2.49729e-10 2.03774e-14)
(978.58 -2.52834e-10 2.06096e-14)
(978.58 -2.56334e-10 1.70153e-14)
(978.58 -2.5907e-10 2.16331e-14)
(978.58 -2.60887e-10 2.16734e-14)
(978.58 -2.64935e-10 1.77074e-14)
(978.58 -2.6873e-10 2.00049e-14)
(978.58 -2.71855e-10 1.77487e-14)
(978.58 -2.74908e-10 1.836e-14)
(978.58 -2.78463e-10 1.69266e-14)
(978.58 -2.8208e-10 2.06754e-14)
(978.58 -2.86084e-10 1.93846e-14)
(978.58 -2.9222e-10 2.0785e-14)
(978.58 -2.95419e-10 2.08099e-14)
(978.58 -2.98205e-10 1.69462e-14)
(978.58 -3.01436e-10 1.60654e-14)
(978.58 -3.07017e-10 1.31277e-14)
(978.58 -3.11717e-10 1.75491e-14)
(978.58 -3.16345e-10 1.71539e-14)
(978.58 -3.21231e-10 1.70992e-14)
(978.58 -3.25327e-10 1.93047e-14)
(978.58 -7.1154e-08 1.17584e-10)
(978.58 -4.52394e-08 6.78239e-11)
(978.58 -2.73593e-08 3.74355e-11)
(978.58 -1.69427e-08 2.17721e-11)
(978.58 -1.10812e-08 1.37153e-11)
(978.58 -7.69533e-09 9.37568e-12)
(978.58 -5.6459e-09 6.92386e-12)
(978.58 -4.34026e-09 5.29188e-12)
(978.58 -3.46046e-09 4.22049e-12)
(978.58 -2.83825e-09 3.41914e-12)
(978.58 -2.38154e-09 2.84039e-12)
(978.58 -2.03459e-09 2.42085e-12)
(978.58 -1.76593e-09 2.06283e-12)
(978.58 -1.5517e-09 1.77589e-12)
(978.58 -1.3793e-09 1.5666e-12)
(978.58 -1.24016e-09 1.36302e-12)
(978.58 -1.12349e-09 1.19022e-12)
(978.58 -1.02468e-09 1.07395e-12)
(978.58 -9.41122e-10 9.52763e-13)
(978.58 -8.68889e-10 8.87253e-13)
(978.58 -8.07006e-10 7.91956e-13)
(978.58 -7.54647e-10 7.13262e-13)
(978.58 -7.08936e-10 6.74708e-13)
(978.58 -6.67764e-10 6.16626e-13)
(978.58 -6.31978e-10 5.89197e-13)
(978.58 -5.9841e-10 5.44194e-13)
(978.58 -5.70295e-10 5.11193e-13)
(978.58 -5.45696e-10 4.69593e-13)
(978.58 -5.23702e-10 4.30838e-13)
(978.58 -5.01636e-10 4.02974e-13)
(978.58 -4.81589e-10 3.74357e-13)
(978.58 -4.66219e-10 3.58839e-13)
(978.58 -4.52279e-10 3.3232e-13)
(978.58 -4.39848e-10 3.24186e-13)
(978.58 -4.30129e-10 3.07264e-13)
(978.58 -4.19431e-10 2.74966e-13)
(978.58 -4.08376e-10 2.60354e-13)
(978.58 -3.95226e-10 2.53849e-13)
(978.58 -3.84809e-10 2.49642e-13)
(978.58 -3.75216e-10 2.28386e-13)
(978.58 -3.66658e-10 2.21117e-13)
(978.58 -3.59475e-10 2.12237e-13)
(978.58 -3.53243e-10 2.0619e-13)
(978.58 -3.47598e-10 1.90468e-13)
(978.58 -3.42917e-10 1.79812e-13)
(978.58 -3.39746e-10 1.76321e-13)
(978.58 -3.34973e-10 1.70877e-13)
(978.58 -3.29163e-10 1.69999e-13)
(978.58 -3.24594e-10 1.69123e-13)
(978.58 -3.21306e-10 1.70341e-13)
(978.58 -3.16511e-10 1.54788e-13)
(978.58 -3.15691e-10 1.44022e-13)
(978.58 -3.12802e-10 1.34626e-13)
(978.58 -3.10221e-10 1.30755e-13)
(978.58 -3.06495e-10 1.21886e-13)
(978.58 -3.05275e-10 1.20734e-13)
(978.58 -3.02451e-10 1.14544e-13)
(978.58 -3.00867e-10 1.13694e-13)
(978.58 -2.98199e-10 1.19669e-13)
(978.58 -2.9572e-10 1.16438e-13)
(978.58 -2.94303e-10 1.10492e-13)
(978.58 -2.9428e-10 1.10528e-13)
(978.58 -2.93308e-10 9.97413e-14)
(978.58 -2.92377e-10 8.85682e-14)
(978.58 -2.90465e-10 9.73907e-14)
(978.58 -2.89363e-10 9.22066e-14)
(978.58 -2.88138e-10 8.6561e-14)
(978.58 -2.8759e-10 8.98891e-14)
(978.58 -2.8661e-10 7.94894e-14)
(978.58 -2.85182e-10 7.64374e-14)
(978.58 -2.83926e-10 7.622e-14)
(978.58 -2.85328e-10 7.66094e-14)
(978.58 -2.85308e-10 7.44234e-14)
(978.58 -2.85613e-10 7.67771e-14)
(978.58 -2.84848e-10 7.93155e-14)
(978.58 -2.85674e-10 7.4842e-14)
(978.58 -2.86851e-10 6.88262e-14)
(978.58 -2.88361e-10 6.88754e-14)
(978.58 -2.86405e-10 7.07988e-14)
(978.58 -2.85957e-10 6.9013e-14)
(978.58 -2.87966e-10 6.4041e-14)
(978.58 -2.88666e-10 6.1696e-14)
(978.58 -2.89146e-10 5.92759e-14)
(978.58 -2.90028e-10 5.805e-14)
(978.58 -2.9126e-10 5.53562e-14)
(978.58 -2.91134e-10 5.64257e-14)
(978.58 -2.92424e-10 6.15526e-14)
(978.58 -2.93733e-10 6.13353e-14)
(978.58 -2.94449e-10 5.69922e-14)
(978.58 -2.94945e-10 5.49178e-14)
(978.58 -2.94745e-10 5.23884e-14)
(978.58 -2.95811e-10 5.44367e-14)
(978.58 -2.9837e-10 6.23414e-14)
(978.58 -2.99449e-10 6.55897e-14)
(978.58 -3.0077e-10 5.96079e-14)
(978.58 -3.02174e-10 4.76707e-14)
(978.58 -3.05188e-10 4.59932e-14)
(978.58 -3.04928e-10 4.81212e-14)
(978.58 -3.04969e-10 4.82029e-14)
(978.58 -3.06057e-10 4.70356e-14)
(978.58 -3.08452e-10 4.30693e-14)
(978.58 -3.10726e-10 4.65386e-14)
(978.58 -3.1267e-10 4.35909e-14)
(978.58 -3.13928e-10 4.30152e-14)
(978.58 -3.14831e-10 4.72123e-14)
(978.58 -3.17307e-10 4.36853e-14)
(978.58 -3.19493e-10 4.00973e-14)
(978.58 -3.21296e-10 3.86216e-14)
(978.58 -3.23886e-10 3.97868e-14)
(978.58 -3.25984e-10 3.91188e-14)
(978.58 -3.28604e-10 3.54631e-14)
(978.58 -3.31575e-10 3.53559e-14)
(978.58 -3.33488e-10 3.73855e-14)
(978.58 -3.35554e-10 3.9356e-14)
(978.58 -3.38592e-10 4.09554e-14)
(978.58 -3.4173e-10 4.58383e-14)
(978.58 -3.44113e-10 4.62286e-14)
(978.58 -3.46674e-10 4.34579e-14)
(978.58 -3.49831e-10 3.74361e-14)
(978.58 -3.52412e-10 3.69032e-14)
(978.58 -3.5596e-10 3.79123e-14)
(978.58 -3.58793e-10 3.76519e-14)
(978.58 -3.62182e-10 3.60096e-14)
(978.58 -3.66205e-10 3.46398e-14)
(978.58 -3.6956e-10 3.63567e-14)
(978.58 -3.72939e-10 3.70195e-14)
(978.58 -3.75808e-10 3.56164e-14)
(978.58 -3.7869e-10 3.7028e-14)
(978.58 -3.81808e-10 3.99534e-14)
(978.58 -3.84529e-10 3.7881e-14)
(978.58 -3.88753e-10 3.33009e-14)
(978.58 -3.93116e-10 3.75674e-14)
(978.58 -3.97162e-10 3.85336e-14)
(978.58 -4.0234e-10 3.29915e-14)
(978.58 -4.05947e-10 3.61342e-14)
(978.58 -4.10361e-10 2.86781e-14)
(978.58 -4.1442e-10 2.98859e-14)
(978.58 -4.19936e-10 3.60094e-14)
(978.58 -4.25042e-10 3.90852e-14)
(978.58 -4.29047e-10 3.25691e-14)
(978.58 -4.34306e-10 2.8088e-14)
(978.58 -4.39228e-10 2.9365e-14)
(978.58 -4.44288e-10 3.13352e-14)
(978.58 -4.49833e-10 3.09132e-14)
(978.58 -4.56147e-10 3.27391e-14)
(978.58 -4.61692e-10 2.91338e-14)
(978.58 -4.67105e-10 3.11859e-14)
(978.58 -4.74152e-10 3.35302e-14)
(978.58 -4.81028e-10 3.43324e-14)
(978.58 -4.86794e-10 3.1271e-14)
(978.58 -4.92119e-10 3.02522e-14)
(978.58 -4.98245e-10 2.98344e-14)
(978.58 -5.05246e-10 3.02958e-14)
(978.58 -5.13889e-10 2.8449e-14)
(978.58 -5.21389e-10 3.3323e-14)
(978.58 -5.28826e-10 3.23561e-14)
(978.58 -8.35636e-08 1.37724e-10)
(978.58 -5.95601e-08 8.79289e-11)
(978.58 -3.94996e-08 5.23754e-11)
(978.58 -2.59404e-08 3.15198e-11)
(978.58 -1.74913e-08 2.00623e-11)
(978.58 -1.22783e-08 1.36673e-11)
(978.58 -8.9992e-09 9.92563e-12)
(978.58 -6.87138e-09 7.58512e-12)
(978.58 -5.43435e-09 6.00908e-12)
(978.58 -4.4274e-09 4.90036e-12)
(978.58 -3.6933e-09 4.03564e-12)
(978.58 -3.14119e-09 3.41282e-12)
(978.58 -2.7153e-09 2.91553e-12)
(978.58 -2.37863e-09 2.53615e-12)
(978.58 -2.10922e-09 2.25003e-12)
(978.58 -1.88958e-09 1.94816e-12)
(978.58 -1.7075e-09 1.71165e-12)
(978.58 -1.55375e-09 1.52212e-12)
(978.58 -1.42361e-09 1.36173e-12)
(978.58 -1.31317e-09 1.25233e-12)
(978.58 -1.21791e-09 1.12801e-12)
(978.58 -1.13474e-09 1.05266e-12)
(978.58 -1.06332e-09 9.58564e-13)
(978.58 -1.001e-09 8.89624e-13)
(978.58 -9.44759e-10 8.11786e-13)
(978.58 -8.93942e-10 7.59284e-13)
(978.58 -8.50011e-10 7.02279e-13)
(978.58 -8.1141e-10 6.58679e-13)
(978.58 -7.76383e-10 6.29293e-13)
(978.58 -7.43573e-10 5.79742e-13)
(978.58 -7.13431e-10 5.45433e-13)
(978.58 -6.88078e-10 5.09377e-13)
(978.58 -6.66096e-10 4.88516e-13)
(978.58 -6.45946e-10 4.58151e-13)
(978.58 -6.30222e-10 4.27932e-13)
(978.58 -6.14715e-10 4.01121e-13)
(978.58 -5.98419e-10 3.81118e-13)
(978.58 -5.80463e-10 3.55366e-13)
(978.58 -5.62564e-10 3.42255e-13)
(978.58 -5.48724e-10 3.19219e-13)
(978.58 -5.354e-10 3.11821e-13)
(978.58 -5.23253e-10 2.95032e-13)
(978.58 -5.13586e-10 2.84501e-13)
(978.58 -5.04277e-10 2.69084e-13)
(978.58 -4.96988e-10 2.71078e-13)
(978.58 -4.9064e-10 2.52188e-13)
(978.58 -4.84539e-10 2.44461e-13)
(978.58 -4.75897e-10 2.37102e-13)
(978.58 -4.69116e-10 2.32736e-13)
(978.58 -4.63453e-10 2.17712e-13)
(978.58 -4.57492e-10 2.06344e-13)
(978.58 -4.53528e-10 2.0273e-13)
(978.58 -4.49298e-10 1.90756e-13)
(978.58 -4.45098e-10 1.82904e-13)
(978.58 -4.39494e-10 1.75234e-13)
(978.58 -4.37188e-10 1.75081e-13)
(978.58 -4.34466e-10 1.67707e-13)
(978.58 -4.31014e-10 1.65333e-13)
(978.58 -4.27344e-10 1.67892e-13)
(978.58 -4.23747e-10 1.61357e-13)
(978.58 -4.20825e-10 1.51203e-13)
(978.58 -4.18875e-10 1.40421e-13)
(978.58 -4.17283e-10 1.35089e-13)
(978.58 -4.15521e-10 1.42844e-13)
(978.58 -4.14293e-10 1.4551e-13)
(978.58 -4.1194e-10 1.35668e-13)
(978.58 -4.10019e-10 1.30305e-13)
(978.58 -4.09635e-10 1.25121e-13)
(978.58 -4.08295e-10 1.14722e-13)
(978.58 -4.05715e-10 1.13726e-13)
(978.58 -4.06014e-10 1.14161e-13)
(978.58 -4.04031e-10 1.15336e-13)
(978.58 -4.02571e-10 1.11966e-13)
(978.58 -4.01941e-10 1.11242e-13)
(978.58 -4.01109e-10 1.07638e-13)
(978.58 -4.02052e-10 1.04364e-13)
(978.58 -4.03701e-10 1.0697e-13)
(978.58 -4.0499e-10 1.06734e-13)
(978.58 -4.03781e-10 9.88735e-14)
(978.58 -4.03638e-10 9.2052e-14)
(978.58 -4.04913e-10 9.1247e-14)
(978.58 -4.07064e-10 9.64455e-14)
(978.58 -4.07486e-10 9.27796e-14)
(978.58 -4.08043e-10 9.21835e-14)
(978.58 -4.08288e-10 8.89547e-14)
(978.58 -4.08216e-10 8.78868e-14)
(978.58 -4.10094e-10 8.38145e-14)
(978.58 -4.10891e-10 7.87865e-14)
(978.58 -4.13282e-10 7.88601e-14)
(978.58 -4.13676e-10 8.16188e-14)
(978.58 -4.13797e-10 8.05399e-14)
(978.58 -4.14324e-10 8.18867e-14)
(978.58 -4.17586e-10 8.43499e-14)
(978.58 -4.18656e-10 8.41254e-14)
(978.58 -4.21258e-10 7.4122e-14)
(978.58 -4.23633e-10 7.37757e-14)
(978.58 -4.2635e-10 7.33641e-14)
(978.58 -4.27714e-10 6.80769e-14)
(978.58 -4.2897e-10 6.72653e-14)
(978.58 -4.29365e-10 6.37246e-14)
(978.58 -4.31113e-10 6.08179e-14)
(978.58 -4.32967e-10 6.16964e-14)
(978.58 -4.36179e-10 6.26555e-14)
(978.58 -4.38755e-10 6.42884e-14)
(978.58 -4.40485e-10 6.3799e-14)
(978.58 -4.44001e-10 6.20974e-14)
(978.58 -4.45748e-10 5.96865e-14)
(978.58 -4.47777e-10 5.88243e-14)
(978.58 -4.50161e-10 5.52817e-14)
(978.58 -4.53006e-10 5.14929e-14)
(978.58 -4.56808e-10 5.31117e-14)
(978.58 -4.60054e-10 5.43655e-14)
(978.58 -4.62921e-10 5.82802e-14)
(978.58 -4.65715e-10 5.79982e-14)
(978.58 -4.69309e-10 5.94669e-14)
(978.58 -4.73886e-10 5.82392e-14)
(978.58 -4.77784e-10 5.64961e-14)
(978.58 -4.81526e-10 5.13811e-14)
(978.58 -4.85239e-10 5.01508e-14)
(978.58 -4.8932e-10 5.34507e-14)
(978.58 -4.93733e-10 5.34492e-14)
(978.58 -4.98138e-10 5.03905e-14)
(978.58 -5.02049e-10 4.89465e-14)
(978.58 -5.06727e-10 5.22335e-14)
(978.58 -5.10943e-10 5.291e-14)
(978.58 -5.14719e-10 5.22915e-14)
(978.58 -5.20681e-10 5.56909e-14)
(978.58 -5.24257e-10 5.44329e-14)
(978.58 -5.27788e-10 4.96187e-14)
(978.58 -5.31381e-10 4.85892e-14)
(978.58 -5.36814e-10 4.82681e-14)
(978.58 -5.43089e-10 5.09022e-14)
(978.58 -5.4826e-10 4.78049e-14)
(978.58 -5.54063e-10 4.74537e-14)
(978.58 -5.601e-10 4.94347e-14)
(978.58 -5.65817e-10 4.90082e-14)
(978.58 -5.71498e-10 5.43223e-14)
(978.58 -5.77545e-10 5.13792e-14)
(978.58 -5.83798e-10 4.92511e-14)
(978.58 -5.90003e-10 4.57921e-14)
(978.58 -5.96758e-10 4.58104e-14)
(978.58 -6.03687e-10 4.54566e-14)
(978.58 -6.10271e-10 4.47088e-14)
(978.58 -6.1605e-10 4.70464e-14)
(978.58 -6.23647e-10 4.8057e-14)
(978.58 -6.31969e-10 4.84975e-14)
(978.58 -6.40162e-10 4.73819e-14)
(978.58 -6.47895e-10 4.55295e-14)
(978.58 -6.57359e-10 4.28755e-14)
(978.58 -6.65963e-10 4.30466e-14)
(978.58 -6.73611e-10 4.29619e-14)
(978.58 -6.81685e-10 4.58149e-14)
(978.58 -6.89089e-10 4.42275e-14)
(978.58 -6.98458e-10 4.06354e-14)
(978.58 -7.08376e-10 4.37725e-14)
(978.58 -7.19166e-10 4.42034e-14)
(978.58 -9.21843e-08 1.51934e-10)
(978.58 -7.10984e-08 1.04335e-10)
(978.58 -5.07619e-08 6.60119e-11)
(978.58 -3.52073e-08 4.13191e-11)
(978.58 -2.45734e-08 2.67903e-11)
(978.58 -1.75679e-08 1.83045e-11)
(978.58 -1.29584e-08 1.32001e-11)
(978.58 -9.88185e-09 1.0016e-11)
(978.58 -7.7779e-09 7.90252e-12)
(978.58 -6.29897e-09 6.42391e-12)
(978.58 -5.2268e-09 5.32005e-12)
(978.58 -4.42484e-09 4.45758e-12)
(978.58 -3.80867e-09 3.78517e-12)
(978.58 -3.32532e-09 3.2891e-12)
(978.58 -2.93985e-09 2.87254e-12)
(978.58 -2.62734e-09 2.52473e-12)
(978.58 -2.36883e-09 2.23379e-12)
(978.58 -2.15128e-09 2.00571e-12)
(978.58 -1.96673e-09 1.81683e-12)
(978.58 -1.80962e-09 1.62686e-12)
(978.58 -1.6757e-09 1.48656e-12)
(978.58 -1.55866e-09 1.36868e-12)
(978.58 -1.45752e-09 1.24073e-12)
(978.58 -1.36892e-09 1.1415e-12)
(978.58 -1.28991e-09 1.05218e-12)
(978.58 -1.21998e-09 1.00058e-12)
(978.58 -1.15803e-09 9.24501e-13)
(978.58 -1.10273e-09 8.7732e-13)
(978.58 -1.05299e-09 8.22375e-13)
(978.58 -1.00725e-09 7.61156e-13)
(978.58 -9.66033e-10 7.09904e-13)
(978.58 -9.30248e-10 6.63689e-13)
(978.58 -8.983e-10 6.14053e-13)
(978.58 -8.70077e-10 5.78192e-13)
(978.58 -8.46775e-10 5.50145e-13)
(978.58 -8.24623e-10 5.19291e-13)
(978.58 -8.00621e-10 4.9589e-13)
(978.58 -7.78432e-10 4.7002e-13)
(978.58 -7.55504e-10 4.35923e-13)
(978.58 -7.35727e-10 4.22444e-13)
(978.58 -7.1632e-10 4.11318e-13)
(978.58 -6.98115e-10 3.93185e-13)
(978.58 -6.8433e-10 3.74876e-13)
(978.58 -6.71278e-10 3.64636e-13)
(978.58 -6.6022e-10 3.4836e-13)
(978.58 -6.49773e-10 3.4036e-13)
(978.58 -6.412e-10 3.20498e-13)
(978.58 -6.30369e-10 3.07775e-13)
(978.58 -6.21443e-10 2.92562e-13)
(978.58 -6.12936e-10 2.71434e-13)
(978.58 -6.05812e-10 2.71108e-13)
(978.58 -5.98514e-10 2.61061e-13)
(978.58 -5.92148e-10 2.51664e-13)
(978.58 -5.8696e-10 2.44262e-13)
(978.58 -5.80158e-10 2.39135e-13)
(978.58 -5.74742e-10 2.28225e-13)
(978.58 -5.70724e-10 2.14939e-13)
(978.58 -5.65669e-10 2.13041e-13)
(978.58 -5.61895e-10 2.0956e-13)
(978.58 -5.56955e-10 1.95041e-13)
(978.58 -5.526e-10 1.90837e-13)
(978.58 -5.48775e-10 1.85342e-13)
(978.58 -5.46002e-10 1.84804e-13)
(978.58 -5.44353e-10 1.8759e-13)
(978.58 -5.41552e-10 1.7507e-13)
(978.58 -5.38263e-10 1.76791e-13)
(978.58 -5.35166e-10 1.70092e-13)
(978.58 -5.34087e-10 1.56991e-13)
(978.58 -5.33008e-10 1.63283e-13)
(978.58 -5.303e-10 1.59562e-13)
(978.58 -5.29839e-10 1.53578e-13)
(978.58 -5.27771e-10 1.50225e-13)
(978.58 -5.25588e-10 1.44321e-13)
(978.58 -5.23006e-10 1.38729e-13)
(978.58 -5.22267e-10 1.41151e-13)
(978.58 -5.22073e-10 1.38477e-13)
(978.58 -5.22484e-10 1.3652e-13)
(978.58 -5.23097e-10 1.27866e-13)
(978.58 -5.22302e-10 1.23762e-13)
(978.58 -5.23233e-10 1.25814e-13)
(978.58 -5.23387e-10 1.30254e-13)
(978.58 -5.25776e-10 1.19692e-13)
(978.58 -5.26145e-10 1.1705e-13)
(978.58 -5.2698e-10 1.15709e-13)
(978.58 -5.28526e-10 1.13653e-13)
(978.58 -5.28205e-10 1.08362e-13)
(978.58 -5.28867e-10 1.0703e-13)
(978.58 -5.30392e-10 1.10341e-13)
(978.58 -5.31984e-10 1.11867e-13)
(978.58 -5.32581e-10 1.07269e-13)
(978.58 -5.34436e-10 1.01992e-13)
(978.58 -5.35806e-10 1.0204e-13)
(978.58 -5.37035e-10 1.00377e-13)
(978.58 -5.38398e-10 9.64157e-14)
(978.58 -5.41606e-10 9.49146e-14)
(978.58 -5.44357e-10 9.52914e-14)
(978.58 -5.47151e-10 8.82408e-14)
(978.58 -5.49065e-10 9.01749e-14)
(978.58 -5.52088e-10 9.0314e-14)
(978.58 -5.53318e-10 8.6005e-14)
(978.58 -5.5531e-10 8.38966e-14)
(978.58 -5.5659e-10 8.64363e-14)
(978.58 -5.5927e-10 8.54307e-14)
(978.58 -5.63015e-10 7.6421e-14)
(978.58 -5.65592e-10 7.82759e-14)
(978.58 -5.69713e-10 8.00676e-14)
(978.58 -5.73335e-10 7.91546e-14)
(978.58 -5.76467e-10 7.73842e-14)
(978.58 -5.78434e-10 7.61298e-14)
(978.58 -5.80855e-10 7.83562e-14)
(978.58 -5.8432e-10 7.78213e-14)
(978.58 -5.88373e-10 7.67321e-14)
(978.58 -5.9148e-10 7.45941e-14)
(978.58 -5.95213e-10 6.728e-14)
(978.58 -5.98807e-10 6.87761e-14)
(978.58 -6.04117e-10 7.23318e-14)
(978.58 -6.08796e-10 7.40128e-14)
(978.58 -6.13766e-10 7.21362e-14)
(978.58 -6.18859e-10 7.42886e-14)
(978.58 -6.23776e-10 7.22166e-14)
(978.58 -6.2847e-10 6.62398e-14)
(978.58 -6.34135e-10 6.53577e-14)
(978.58 -6.39451e-10 7.09504e-14)
(978.58 -6.45158e-10 6.90958e-14)
(978.58 -6.50676e-10 6.66047e-14)
(978.58 -6.55538e-10 7.08053e-14)
(978.58 -6.61578e-10 7.02145e-14)
(978.58 -6.67779e-10 6.32579e-14)
(978.58 -6.71911e-10 6.20863e-14)
(978.58 -6.75938e-10 6.15444e-14)
(978.58 -6.82406e-10 6.32227e-14)
(978.58 -6.89776e-10 6.73085e-14)
(978.58 -6.9583e-10 6.34731e-14)
(978.58 -7.02388e-10 6.60502e-14)
(978.58 -7.09961e-10 6.57043e-14)
(978.58 -7.17101e-10 6.54902e-14)
(978.58 -7.24779e-10 6.45181e-14)
(978.58 -7.31558e-10 6.02358e-14)
(978.58 -7.39123e-10 6.05497e-14)
(978.58 -7.47224e-10 5.87129e-14)
(978.58 -7.5468e-10 6.17187e-14)
(978.58 -7.63406e-10 6.01056e-14)
(978.58 -7.72305e-10 6.1859e-14)
(978.58 -7.79461e-10 6.2381e-14)
(978.58 -7.87396e-10 6.05727e-14)
(978.58 -7.96006e-10 5.98227e-14)
(978.58 -8.06298e-10 5.64687e-14)
(978.58 -8.16243e-10 5.34826e-14)
(978.58 -8.26805e-10 5.5563e-14)
(978.58 -8.377e-10 5.64342e-14)
(978.58 -8.47576e-10 5.66567e-14)
(978.58 -8.5771e-10 5.91876e-14)
(978.58 -8.67657e-10 5.17094e-14)
(978.58 -8.77898e-10 5.45167e-14)
(978.58 -8.89098e-10 5.84293e-14)
(978.58 -9.01419e-10 5.71491e-14)
(978.58 -9.85232e-08 1.62742e-10)
(978.58 -8.03708e-08 1.17683e-10)
(978.58 -6.08468e-08 7.81598e-11)
(978.58 -4.43012e-08 5.09011e-11)
(978.58 -3.20133e-08 3.36801e-11)
(978.58 -2.33953e-08 2.3152e-11)
(978.58 -1.74556e-08 1.67352e-11)
(978.58 -1.33587e-08 1.25817e-11)
(978.58 -1.05003e-08 9.82844e-12)
(978.58 -8.47242e-09 7.91459e-12)
(978.58 -6.999e-09 6.55485e-12)
(978.58 -5.8988e-09 5.5092e-12)
(978.58 -5.05709e-09 4.71392e-12)
(978.58 -4.4007e-09 4.08444e-12)
(978.58 -3.87896e-09 3.51874e-12)
(978.58 -3.45585e-09 3.10113e-12)
(978.58 -3.10721e-09 2.77096e-12)
(978.58 -2.8171e-09 2.46528e-12)
(978.58 -2.57147e-09 2.23126e-12)
(978.58 -2.36126e-09 2.00126e-12)
(978.58 -2.18233e-09 1.82165e-12)
(978.58 -2.0267e-09 1.66266e-12)
(978.58 -1.89107e-09 1.52683e-12)
(978.58 -1.77231e-09 1.38816e-12)
(978.58 -1.66915e-09 1.30373e-12)
(978.58 -1.57764e-09 1.2189e-12)
(978.58 -1.49489e-09 1.13875e-12)
(978.58 -1.42033e-09 1.06381e-12)
(978.58 -1.35342e-09 9.75524e-13)
(978.58 -1.29398e-09 9.03103e-13)
(978.58 -1.24003e-09 8.63935e-13)
(978.58 -1.19217e-09 8.05027e-13)
(978.58 -1.14964e-09 7.57507e-13)
(978.58 -1.1116e-09 7.20257e-13)
(978.58 -1.07866e-09 6.7407e-13)
(978.58 -1.04769e-09 6.27963e-13)
(978.58 -1.01721e-09 6.18336e-13)
(978.58 -9.88643e-10 5.80452e-13)
(978.58 -9.60282e-10 5.52545e-13)
(978.58 -9.35338e-10 5.31928e-13)
(978.58 -9.0894e-10 4.93293e-13)
(978.58 -8.85755e-10 4.71887e-13)
(978.58 -8.66439e-10 4.56232e-13)
(978.58 -8.48424e-10 4.41629e-13)
(978.58 -8.32954e-10 4.2364e-13)
(978.58 -8.19037e-10 4.09735e-13)
(978.58 -8.06463e-10 3.87154e-13)
(978.58 -7.93003e-10 3.76407e-13)
(978.58 -7.81611e-10 3.61548e-13)
(978.58 -7.69457e-10 3.4086e-13)
(978.58 -7.59789e-10 3.30606e-13)
(978.58 -7.49998e-10 3.18345e-13)
(978.58 -7.40284e-10 3.04397e-13)
(978.58 -7.33589e-10 2.94837e-13)
(978.58 -7.25886e-10 2.82585e-13)
(978.58 -7.1911e-10 2.73616e-13)
(978.58 -7.1253e-10 2.68248e-13)
(978.58 -7.05478e-10 2.65567e-13)
(978.58 -6.99536e-10 2.51161e-13)
(978.58 -6.93903e-10 2.43251e-13)
(978.58 -6.87778e-10 2.39812e-13)
(978.58 -6.83524e-10 2.33921e-13)
(978.58 -6.78735e-10 2.30288e-13)
(978.58 -6.75882e-10 2.2097e-13)
(978.58 -6.71918e-10 2.19997e-13)
(978.58 -6.6876e-10 2.17089e-13)
(978.58 -6.65189e-10 2.03382e-13)
(978.58 -6.62309e-10 1.98025e-13)
(978.58 -6.59976e-10 2.00373e-13)
(978.58 -6.57141e-10 1.91638e-13)
(978.58 -6.54869e-10 1.86728e-13)
(978.58 -6.53413e-10 1.81236e-13)
(978.58 -6.50831e-10 1.77357e-13)
(978.58 -6.47763e-10 1.70133e-13)
(978.58 -6.46082e-10 1.71524e-13)
(978.58 -6.46515e-10 1.64427e-13)
(978.58 -6.46702e-10 1.59577e-13)
(978.58 -6.44749e-10 1.5861e-13)
(978.58 -6.42962e-10 1.66961e-13)
(978.58 -6.44439e-10 1.58715e-13)
(978.58 -6.44505e-10 1.52882e-13)
(978.58 -6.46813e-10 1.47415e-13)
(978.58 -6.47315e-10 1.45491e-13)