/*--------------------------------*- C++ -*----------------------------------*\
| =========                 |                                                 |
| \\      /  F ield         | OpenFOAM: The Open Source CFD Toolbox           |
|  \\    /   O peration     | Version:  v1706                                 |
|   \\  /    A nd           | Web:      www.OpenFOAM.com                      |
|    \\/     M anipulation  |                                                 |
\*---------------------------------------------------------------------------*/
FoamFile
{
    version     2.0;
    format      ascii;
    class       volScalarField;
    location    "3.9e-05";
    object      alpha;
}
// * * * * * * * * * * * * * * * * * * * * * * * * * * * * * * * * * * * * * //

dimensions      [1 -1 -1 0 0 0 0];


internalField   nonuniform List<scalar> 
30038
(
1.40478e-05
1.40478e-05
1.40478e-05
1.40478e-05
1.40478e-05
1.40478e-05
1.40478e-05
1.40478e-05
1.40478e-05
1.40478e-05
1.40478e-05
1.40478e-05
1.40478e-05
1.40478e-05
1.40478e-05
1.40478e-05
1.40478e-05
1.40478e-05
1.40478e-05
1.40478e-05
1.40478e-05
1.40478e-05
1.40478e-05
1.40478e-05
1.40478e-05
1.40478e-05
1.40478e-05
1.40478e-05
1.40478e-05
1.40478e-05
1.40478e-05
1.40478e-05
1.40478e-05
1.40478e-05
1.40478e-05
1.40478e-05
1.40478e-05
1.40478e-05
1.40478e-05
1.40478e-05
1.40478e-05
1.40478e-05
1.40478e-05
1.40478e-05
1.40478e-05
1.40478e-05
1.40478e-05
1.40478e-05
1.40478e-05
1.40478e-05
1.40478e-05
1.40478e-05
1.40478e-05
1.40478e-05
1.40478e-05
1.40478e-05
1.40478e-05
1.40478e-05
1.40478e-05
1.40478e-05
1.40478e-05
1.40478e-05
1.40478e-05
1.40478e-05
1.40478e-05
1.40478e-05
1.40478e-05
1.40478e-05
1.40478e-05
1.40478e-05
1.40478e-05
1.40478e-05
1.40478e-05
1.40478e-05
1.40478e-05
1.40478e-05
1.40478e-05
1.40478e-05
1.40478e-05
1.40478e-05
1.40478e-05
1.40478e-05
1.40478e-05
1.40478e-05
1.40478e-05
1.40478e-05
1.40478e-05
1.40478e-05
1.40478e-05
1.40478e-05
1.40478e-05
1.40478e-05
1.40478e-05
1.40478e-05
1.40478e-05
1.40478e-05
1.40478e-05
1.40478e-05
1.40478e-05
1.40478e-05
1.40478e-05
1.40478e-05
1.40478e-05
1.40478e-05
1.40478e-05
1.40478e-05
1.40478e-05
1.40478e-05
1.40478e-05
1.40478e-05
1.40478e-05
1.40478e-05
1.40478e-05
1.40478e-05
1.40478e-05
1.40478e-05
1.40478e-05
1.40478e-05
1.40478e-05
1.40478e-05
1.40478e-05
1.40478e-05
1.40478e-05
1.40478e-05
1.40478e-05
1.40478e-05
1.40478e-05
1.40478e-05
1.40478e-05
1.40478e-05
1.40478e-05
1.40478e-05
1.40478e-05
1.40478e-05
1.40478e-05
1.40478e-05
1.40478e-05
1.40478e-05
1.40478e-05
1.40478e-05
1.40478e-05
1.40478e-05
1.40478e-05
1.40478e-05
1.40478e-05
1.40478e-05
1.40478e-05
1.40478e-05
1.40478e-05
1.40478e-05
1.40478e-05
1.40478e-05
1.40478e-05
1.40478e-05
1.40478e-05
1.40478e-05
1.40478e-05
1.40478e-05
1.40478e-05
1.40478e-05
1.40478e-05
1.40478e-05
1.40478e-05
1.40478e-05
1.40478e-05
1.40478e-05
1.40478e-05
1.40478e-05
1.40478e-05
1.40478e-05
1.40478e-05
1.40478e-05
1.40478e-05
1.40478e-05
1.40478e-05
1.40478e-05
1.40478e-05
1.40478e-05
1.40478e-05
1.40478e-05
1.40478e-05
1.40478e-05
1.40478e-05
1.40478e-05
1.40478e-05
1.40478e-05
1.40478e-05
1.40478e-05
1.40478e-05
1.40478e-05
1.40478e-05
1.40478e-05
1.40478e-05
1.40478e-05
1.40478e-05
1.40478e-05
1.40478e-05
1.40478e-05
1.40478e-05
1.40478e-05
1.40478e-05
1.40478e-05
1.40478e-05
1.40478e-05
1.40478e-05
1.40478e-05
1.40478e-05
1.40478e-05
1.40478e-05
1.40478e-05
1.40478e-05
1.40478e-05
1.40478e-05
1.40478e-05
1.40478e-05
1.40478e-05
1.40478e-05
1.40478e-05
1.40478e-05
1.40478e-05
1.40478e-05
1.40478e-05
1.40478e-05
1.40478e-05
1.40478e-05
1.40478e-05
1.40478e-05
1.40478e-05
1.40478e-05
1.40478e-05
1.40478e-05
1.40478e-05
1.40478e-05
1.40478e-05
1.40478e-05
1.40478e-05
1.40478e-05
1.40478e-05
1.40478e-05
1.40478e-05
1.40478e-05
1.40478e-05
1.40478e-05
1.40478e-05
1.40478e-05
1.40478e-05
1.40478e-05
1.40478e-05
1.40478e-05
1.40478e-05
1.40478e-05
1.40478e-05
1.40478e-05
1.40478e-05
1.40478e-05
1.40478e-05
1.40478e-05
1.40478e-05
1.40478e-05
1.40478e-05
1.40478e-05
1.40478e-05
1.40478e-05
1.40478e-05
1.40478e-05
1.40478e-05
1.40478e-05
1.40478e-05
1.40478e-05
1.40478e-05
1.40478e-05
1.40478e-05
1.40478e-05
1.40478e-05
1.40478e-05
1.40478e-05
1.40478e-05
1.40478e-05
1.40478e-05
1.40478e-05
1.40478e-05
1.40478e-05
1.40478e-05
1.40478e-05
1.40478e-05
1.40478e-05
1.40478e-05
1.40478e-05
1.40478e-05
1.40478e-05
1.40478e-05
1.40478e-05
1.40478e-05
1.40478e-05
1.40478e-05
1.40478e-05
1.40478e-05
1.40478e-05
1.40478e-05
1.40478e-05
1.40478e-05
1.40478e-05
1.40478e-05
1.40478e-05
1.40478e-05
1.40478e-05
1.40478e-05
1.40478e-05
1.40478e-05
1.40478e-05
1.40478e-05
1.40478e-05
1.40478e-05
1.40478e-05
1.40478e-05
1.40478e-05
1.40478e-05
1.40478e-05
1.40478e-05
1.40478e-05
1.40478e-05
1.40478e-05
1.40478e-05
1.40478e-05
1.40478e-05
1.40478e-05
1.40478e-05
1.40478e-05
1.40478e-05
1.40478e-05
1.40478e-05
1.40478e-05
1.40478e-05
1.40478e-05
1.40478e-05
1.40478e-05
1.40478e-05
1.40478e-05
1.40478e-05
1.40478e-05
1.40478e-05
1.40478e-05
1.40478e-05
1.40478e-05
1.40478e-05
1.40478e-05
1.40478e-05
1.40478e-05
1.40478e-05
1.40478e-05
1.40478e-05
1.40478e-05
1.40478e-05
1.40478e-05
1.40478e-05
1.40478e-05
1.40478e-05
1.40478e-05
1.40478e-05
1.40478e-05
1.40478e-05
1.40478e-05
1.40478e-05
1.40478e-05
1.40478e-05
1.40478e-05
1.40478e-05
1.40478e-05
1.40478e-05
1.40478e-05
1.40478e-05
1.40478e-05
1.40478e-05
1.40478e-05
1.40478e-05
1.40478e-05
1.40478e-05
1.40478e-05
1.40478e-05
1.40478e-05
1.40478e-05
1.40478e-05
1.40478e-05
1.40478e-05
1.40478e-05
1.40478e-05
1.40478e-05
1.40478e-05
1.40478e-05
1.40478e-05
1.40478e-05
1.40478e-05
1.40478e-05
1.40478e-05
1.40478e-05
1.40478e-05
1.40478e-05
1.40478e-05
1.40478e-05
1.40478e-05
1.40478e-05
1.40478e-05
1.40478e-05
1.40478e-05
1.40478e-05
1.40478e-05
1.40478e-05
1.40478e-05
1.40478e-05
1.40478e-05
1.40478e-05
1.40478e-05
1.40478e-05
1.40478e-05
1.40478e-05
1.40478e-05
1.40478e-05
1.40478e-05
1.40478e-05
1.40478e-05
1.40479e-05
1.40478e-05
1.40478e-05
1.40478e-05
1.40478e-05
1.40478e-05
1.40478e-05
1.40478e-05
1.40478e-05
1.40478e-05
1.40478e-05
1.40478e-05
1.40478e-05
1.40478e-05
1.40478e-05
1.40478e-05
1.40478e-05
1.40478e-05
1.40478e-05
1.40478e-05
1.40478e-05
1.40478e-05
1.40478e-05
1.40478e-05
1.40478e-05
1.40478e-05
1.40478e-05
1.40478e-05
1.40478e-05
1.40478e-05
1.40478e-05
1.40478e-05
1.40478e-05
1.40478e-05
1.40478e-05
1.40478e-05
1.40478e-05
1.40479e-05
1.40479e-05
1.4048e-05
1.4048e-05
1.40478e-05
1.40478e-05
1.40478e-05
1.40478e-05
1.40478e-05
1.40478e-05
1.40478e-05
1.40478e-05
1.40478e-05
1.40478e-05
1.40478e-05
1.40478e-05
1.40478e-05
1.40478e-05
1.40478e-05
1.40478e-05
1.40478e-05
1.40478e-05
1.40478e-05
1.40478e-05
1.40478e-05
1.40478e-05
1.40478e-05
1.40478e-05
1.40478e-05
1.40478e-05
1.40478e-05
1.40478e-05
1.40478e-05
1.40478e-05
1.40478e-05
1.40478e-05
1.40478e-05
1.40479e-05
1.40479e-05
1.40479e-05
1.4048e-05
1.40481e-05
1.40483e-05
1.40485e-05
1.40478e-05
1.40478e-05
1.40478e-05
1.40478e-05
1.40478e-05
1.40478e-05
1.40478e-05
1.40478e-05
1.40478e-05
1.40478e-05
1.40478e-05
1.40478e-05
1.40478e-05
1.40478e-05
1.40478e-05
1.40478e-05
1.40478e-05
1.40478e-05
1.40478e-05
1.40478e-05
1.40478e-05
1.40478e-05
1.40478e-05
1.40478e-05
1.40478e-05
1.40478e-05
1.40478e-05
1.40478e-05
1.40478e-05
1.40478e-05
1.40479e-05
1.40479e-05
1.40479e-05
1.4048e-05
1.40481e-05
1.40483e-05
1.40485e-05
1.40488e-05
1.40492e-05
1.40498e-05
1.40478e-05
1.40478e-05
1.40478e-05
1.40478e-05
1.40478e-05
1.40478e-05
1.40478e-05
1.40478e-05
1.40478e-05
1.40478e-05
1.40478e-05
1.40478e-05
1.40478e-05
1.40478e-05
1.40478e-05
1.40478e-05
1.40478e-05
1.40478e-05
1.40478e-05
1.40478e-05
1.40478e-05
1.40478e-05
1.40478e-05
1.40478e-05
1.40478e-05
1.40478e-05
1.40478e-05
1.40479e-05
1.40479e-05
1.40479e-05
1.4048e-05
1.40481e-05
1.40482e-05
1.40484e-05
1.40487e-05
1.40491e-05
1.40497e-05
1.40505e-05
1.40517e-05
1.40535e-05
1.40478e-05
1.40478e-05
1.40478e-05
1.40478e-05
1.40478e-05
1.40478e-05
1.40478e-05
1.40478e-05
1.40478e-05
1.40478e-05
1.40478e-05
1.40478e-05
1.40478e-05
1.40478e-05
1.40478e-05
1.40478e-05
1.40478e-05
1.40478e-05
1.40478e-05
1.40478e-05
1.40478e-05
1.40478e-05
1.40478e-05
1.40478e-05
1.40479e-05
1.40479e-05
1.4048e-05
1.4048e-05
1.40481e-05
1.40482e-05
1.40484e-05
1.40487e-05
1.40491e-05
1.40496e-05
1.40504e-05
1.40515e-05
1.40531e-05
1.40553e-05
1.40587e-05
1.40635e-05
1.40478e-05
1.40478e-05
1.40478e-05
1.40478e-05
1.40478e-05
1.40478e-05
1.40478e-05
1.40478e-05
1.40478e-05
1.40478e-05
1.40478e-05
1.40478e-05
1.40478e-05
1.40478e-05
1.40478e-05
1.40478e-05
1.40478e-05
1.40478e-05
1.40478e-05
1.40478e-05
1.40479e-05
1.40479e-05
1.40479e-05
1.4048e-05
1.4048e-05
1.40481e-05
1.40482e-05
1.40484e-05
1.40487e-05
1.40491e-05
1.40496e-05
1.40503e-05
1.40513e-05
1.40528e-05
1.40549e-05
1.40579e-05
1.40622e-05
1.40684e-05
1.40772e-05
1.40901e-05
1.40478e-05
1.40478e-05
1.40478e-05
1.40478e-05
1.40478e-05
1.40478e-05
1.40478e-05
1.40478e-05
1.40478e-05
1.40478e-05
1.40478e-05
1.40478e-05
1.40478e-05
1.40478e-05
1.40478e-05
1.40478e-05
1.40478e-05
1.40479e-05
1.40479e-05
1.40479e-05
1.4048e-05
1.4048e-05
1.40481e-05
1.40483e-05
1.40484e-05
1.40487e-05
1.40491e-05
1.40496e-05
1.40503e-05
1.40513e-05
1.40527e-05
1.40547e-05
1.40575e-05
1.40615e-05
1.40671e-05
1.40751e-05
1.40865e-05
1.41028e-05
1.4126e-05
1.41596e-05
1.40478e-05
1.40478e-05
1.40478e-05
1.40478e-05
1.40478e-05
1.40478e-05
1.40478e-05
1.40478e-05
1.40478e-05
1.40478e-05
1.40478e-05
1.40478e-05
1.40478e-05
1.40478e-05
1.40478e-05
1.40479e-05
1.40479e-05
1.40479e-05
1.4048e-05
1.4048e-05
1.40481e-05
1.40483e-05
1.40485e-05
1.40487e-05
1.40491e-05
1.40496e-05
1.40503e-05
1.40513e-05
1.40526e-05
1.40546e-05
1.40572e-05
1.4061e-05
1.40663e-05
1.40738e-05
1.40843e-05
1.40991e-05
1.41201e-05
1.41497e-05
1.41916e-05
1.4251e-05
1.43355e-05
1.40478e-05
1.40478e-05
1.40478e-05
1.40478e-05
1.40478e-05
1.40478e-05
1.40478e-05
1.40478e-05
1.40478e-05
1.40478e-05
1.40478e-05
1.40478e-05
1.40479e-05
1.40479e-05
1.40479e-05
1.4048e-05
1.40481e-05
1.40482e-05
1.40483e-05
1.40485e-05
1.40488e-05
1.40491e-05
1.40496e-05
1.40504e-05
1.40513e-05
1.40527e-05
1.40545e-05
1.40572e-05
1.40608e-05
1.40659e-05
1.40729e-05
1.40829e-05
1.40967e-05
1.41161e-05
1.41433e-05
1.41814e-05
1.42348e-05
1.43095e-05
1.44139e-05
1.45592e-05
1.47607e-05
1.40478e-05
1.40478e-05
1.40478e-05
1.40478e-05
1.40478e-05
1.40478e-05
1.40478e-05
1.40478e-05
1.40478e-05
1.40479e-05
1.40479e-05
1.40479e-05
1.4048e-05
1.4048e-05
1.40481e-05
1.40482e-05
1.40484e-05
1.40486e-05
1.40488e-05
1.40492e-05
1.40497e-05
1.40505e-05
1.40514e-05
1.40528e-05
1.40547e-05
1.40572e-05
1.40608e-05
1.40657e-05
1.40725e-05
1.4082e-05
1.40952e-05
1.41135e-05
1.4139e-05
1.41744e-05
1.42236e-05
1.42919e-05
1.43865e-05
1.4517e-05
1.46962e-05
1.49401e-05
1.52687e-05
1.57048e-05
1.40478e-05
1.40478e-05
1.40478e-05
1.40478e-05
1.40478e-05
1.40478e-05
1.40478e-05
1.40479e-05
1.40479e-05
1.40479e-05
1.4048e-05
1.4048e-05
1.40481e-05
1.40482e-05
1.40484e-05
1.40486e-05
1.40489e-05
1.40493e-05
1.40499e-05
1.40506e-05
1.40516e-05
1.4053e-05
1.40549e-05
1.40574e-05
1.4061e-05
1.40659e-05
1.40726e-05
1.40818e-05
1.40945e-05
1.4112e-05
1.41363e-05
1.41697e-05
1.42159e-05
1.42795e-05
1.43669e-05
1.44868e-05
1.46504e-05
1.48717e-05
1.51682e-05
1.55602e-05
1.60695e-05
1.67167e-05
1.75162e-05
1.40478e-05
1.40478e-05
1.40478e-05
1.40479e-05
1.40479e-05
1.40479e-05
1.4048e-05
1.4048e-05
1.40481e-05
1.40482e-05
1.40483e-05
1.40485e-05
1.40487e-05
1.4049e-05
1.40495e-05
1.405e-05
1.40508e-05
1.40518e-05
1.40533e-05
1.40552e-05
1.40578e-05
1.40614e-05
1.40663e-05
1.4073e-05
1.40821e-05
1.40945e-05
1.41116e-05
1.4135e-05
1.41671e-05
1.42111e-05
1.42712e-05
1.43534e-05
1.44654e-05
1.46172e-05
1.48215e-05
1.50941e-05
1.54533e-05
1.5919e-05
1.65104e-05
1.72437e-05
1.81276e-05
1.91589e-05
2.03169e-05
1.40479e-05
1.40479e-05
1.40479e-05
1.40479e-05
1.4048e-05
1.4048e-05
1.40481e-05
1.40482e-05
1.40484e-05
1.40486e-05
1.40488e-05
1.40492e-05
1.40496e-05
1.40502e-05
1.40511e-05
1.40522e-05
1.40537e-05
1.40557e-05
1.40584e-05
1.40621e-05
1.4067e-05
1.40738e-05
1.40829e-05
1.40953e-05
1.41122e-05
1.41352e-05
1.41665e-05
1.4209e-05
1.42668e-05
1.43452e-05
1.44513e-05
1.45942e-05
1.47857e-05
1.50399e-05
1.53737e-05
1.58055e-05
1.63539e-05
1.70345e-05
1.78571e-05
1.88218e-05
1.99148e-05
2.11081e-05
2.23594e-05
2.36163e-05
1.40479e-05
1.4048e-05
1.4048e-05
1.40481e-05
1.40482e-05
1.40483e-05
1.40485e-05
1.40487e-05
1.4049e-05
1.40493e-05
1.40498e-05
1.40505e-05
1.40514e-05
1.40526e-05
1.40542e-05
1.40563e-05
1.40591e-05
1.4063e-05
1.40681e-05
1.4075e-05
1.40843e-05
1.40969e-05
1.41138e-05
1.41367e-05
1.41676e-05
1.42094e-05
1.42657e-05
1.43416e-05
1.44437e-05
1.45803e-05
1.47622e-05
1.50024e-05
1.53166e-05
1.57218e-05
1.62355e-05
1.68734e-05
1.76463e-05
1.85568e-05
1.95957e-05
2.07396e-05
2.19527e-05
2.31859e-05
2.43761e-05
2.54491e-05
2.63566e-05
1.40481e-05
1.40481e-05
1.40483e-05
1.40484e-05
1.40486e-05
1.40488e-05
1.40491e-05
1.40496e-05
1.40501e-05
1.40509e-05
1.40518e-05
1.40531e-05
1.40548e-05
1.40571e-05
1.40601e-05
1.40642e-05
1.40696e-05
1.40767e-05
1.40864e-05
1.40992e-05
1.41165e-05
1.41396e-05
1.41707e-05
1.42123e-05
1.4268e-05
1.43426e-05
1.44421e-05
1.45745e-05
1.47497e-05
1.49798e-05
1.52792e-05
1.56638e-05
1.61503e-05
1.67536e-05
1.74851e-05
1.83491e-05
1.93399e-05
2.04398e-05
2.16176e-05
2.28322e-05
2.40291e-05
2.51408e-05
2.61018e-05
2.6873e-05
2.74477e-05
2.78593e-05
1.40482e-05
1.40483e-05
1.40485e-05
1.40487e-05
1.4049e-05
1.40494e-05
1.40499e-05
1.40505e-05
1.40513e-05
1.40524e-05
1.40538e-05
1.40557e-05
1.40581e-05
1.40614e-05
1.40657e-05
1.40715e-05
1.4079e-05
1.40891e-05
1.41025e-05
1.41204e-05
1.41441e-05
1.41757e-05
1.42177e-05
1.42736e-05
1.4348e-05
1.44465e-05
1.45766e-05
1.47476e-05
1.49709e-05
1.52598e-05
1.56292e-05
1.60946e-05
1.66707e-05
1.73683e-05
1.81932e-05
1.91421e-05
2.0201e-05
2.13436e-05
2.25345e-05
2.37271e-05
2.48628e-05
2.58763e-05
2.6717e-05
2.73659e-05
2.78347e-05
2.81559e-05
2.83635e-05
2.84963e-05
1.40489e-05
1.40492e-05
1.40497e-05
1.40502e-05
1.40509e-05
1.40519e-05
1.40531e-05
1.40547e-05
1.40567e-05
1.40595e-05
1.4063e-05
1.40677e-05
1.40739e-05
1.4082e-05
1.40927e-05
1.41069e-05
1.41255e-05
1.41502e-05
1.41828e-05
1.42259e-05
1.42828e-05
1.43579e-05
1.44567e-05
1.45863e-05
1.47555e-05
1.4975e-05
1.52572e-05
1.56162e-05
1.60664e-05
1.66216e-05
1.72926e-05
1.80853e-05
1.89983e-05
2.00203e-05
2.11293e-05
2.22937e-05
2.34737e-05
2.46186e-05
2.56678e-05
2.65658e-05
2.72814e-05
2.78147e-05
2.81891e-05
2.84386e-05
2.85969e-05
2.86933e-05
2.87478e-05
2.87784e-05
1.40495e-05
1.405e-05
1.40507e-05
1.40515e-05
1.40526e-05
1.4054e-05
1.40558e-05
1.40581e-05
1.40611e-05
1.40651e-05
1.40702e-05
1.4077e-05
1.40858e-05
1.40973e-05
1.41124e-05
1.41323e-05
1.41583e-05
1.41924e-05
1.42372e-05
1.42959e-05
1.43728e-05
1.44733e-05
1.46041e-05
1.47737e-05
1.49921e-05
1.52712e-05
1.56239e-05
1.6064e-05
1.66043e-05
1.72552e-05
1.80225e-05
1.89057e-05
1.98957e-05
2.09736e-05
2.21111e-05
2.32735e-05
2.44167e-05
2.54866e-05
2.64272e-05
2.71991e-05
2.77912e-05
2.82186e-05
2.85106e-05
2.87005e-05
2.88181e-05
2.88869e-05
2.89244e-05
2.89424e-05
2.89435e-05
2.89415e-05
1.40522e-05
1.40535e-05
1.40551e-05
1.40571e-05
1.40598e-05
1.40632e-05
1.40677e-05
1.40734e-05
1.40809e-05
1.40906e-05
1.41032e-05
1.41195e-05
1.41409e-05
1.41687e-05
1.42049e-05
1.4252e-05
1.43134e-05
1.43932e-05
1.44967e-05
1.46304e-05
1.48025e-05
1.50226e-05
1.53018e-05
1.56524e-05
1.60871e-05
1.6618e-05
1.72547e-05
1.80027e-05
1.8862e-05
1.98249e-05
2.08749e-05
2.19867e-05
2.31288e-05
2.4263e-05
2.53416e-05
2.63112e-05
2.71275e-05
2.77707e-05
2.82469e-05
2.85806e-05
2.88026e-05
2.89435e-05
2.9028e-05
2.9075e-05
2.90989e-05
2.91052e-05
2.91018e-05
2.90954e-05
2.90833e-05
2.90654e-05
1.40589e-05
1.4062e-05
1.40659e-05
1.4071e-05
1.40774e-05
1.40858e-05
1.40966e-05
1.41105e-05
1.41285e-05
1.41518e-05
1.41818e-05
1.42207e-05
1.4271e-05
1.4336e-05
1.44199e-05
1.45278e-05
1.46662e-05
1.4843e-05
1.50673e-05
1.53499e-05
1.57021e-05
1.61359e-05
1.66623e-05
1.72903e-05
1.80249e-05
1.88659e-05
1.98066e-05
2.08323e-05
2.19202e-05
2.30412e-05
2.41618e-05
2.52398e-05
2.62261e-05
2.70751e-05
2.776e-05
2.82794e-05
2.86517e-05
2.89051e-05
2.90695e-05
2.91706e-05
2.92283e-05
2.92588e-05
2.92705e-05
2.92677e-05
2.92615e-05
2.92505e-05
2.92334e-05
2.92112e-05
2.91863e-05
2.91585e-05
1.40751e-05
1.40826e-05
1.40921e-05
1.41042e-05
1.41198e-05
1.41398e-05
1.41655e-05
1.41984e-05
1.42408e-05
1.42951e-05
1.43647e-05
1.44539e-05
1.45678e-05
1.47128e-05
1.48965e-05
1.51278e-05
1.54168e-05
1.57743e-05
1.62113e-05
1.6738e-05
1.73624e-05
1.80888e-05
1.89167e-05
1.984e-05
2.08452e-05
2.19111e-05
2.30112e-05
2.41153e-05
2.5186e-05
2.61789e-05
2.70493e-05
2.77661e-05
2.83213e-05
2.87279e-05
2.90106e-05
2.91976e-05
2.93153e-05
2.93842e-05
2.94216e-05
2.94386e-05
2.94383e-05
2.94318e-05
2.94218e-05
2.94059e-05
2.93845e-05
2.93594e-05
2.93315e-05
2.93013e-05
2.92707e-05
2.92413e-05
1.41139e-05
1.41315e-05
1.4154e-05
1.41827e-05
1.42193e-05
1.42659e-05
1.43253e-05
1.44008e-05
1.44968e-05
1.46185e-05
1.47721e-05
1.4965e-05
1.52061e-05
1.55047e-05
1.5871e-05
1.63152e-05
1.68466e-05
1.74721e-05
1.81951e-05
1.90147e-05
1.99248e-05
2.09129e-05
2.19592e-05
2.30391e-05
2.41247e-05
2.51834e-05
2.61749e-05
2.70565e-05
2.77953e-05
2.83784e-05
2.88135e-05
2.91218e-05
2.93297e-05
2.94632e-05
2.95435e-05
2.95881e-05
2.96098e-05
2.9613e-05
2.96066e-05
2.95964e-05
2.95816e-05
2.95609e-05
2.9536e-05
2.95086e-05
2.94781e-05
2.94463e-05
2.94149e-05
2.93841e-05
2.93538e-05
2.93243e-05
1.42045e-05
1.42455e-05
1.42974e-05
1.43631e-05
1.4446e-05
1.45505e-05
1.46818e-05
1.48462e-05
1.50511e-05
1.53047e-05
1.56162e-05
1.59949e-05
1.64503e-05
1.69904e-05
1.76213e-05
1.83453e-05
1.91609e-05
2.00616e-05
2.10357e-05
2.20644e-05
2.31249e-05
2.41911e-05
2.52341e-05
2.62176e-05
2.71017e-05
2.78531e-05
2.84556e-05
2.89128e-05
2.92422e-05
2.94683e-05
2.96159e-05
2.97068e-05
2.97583e-05
2.97843e-05
2.97914e-05
2.97862e-05
2.97752e-05
2.97607e-05
2.97412e-05
2.97166e-05
2.96889e-05
2.96585e-05
2.96259e-05
2.95929e-05
2.95607e-05
2.95289e-05
2.94975e-05
2.94667e-05
2.94365e-05
2.94067e-05
1.44104e-05
1.45023e-05
1.46173e-05
1.47605e-05
1.49383e-05
1.51578e-05
1.54271e-05
1.57548e-05
1.61496e-05
1.66198e-05
1.71727e-05
1.78128e-05
1.85417e-05
1.93568e-05
2.02515e-05
2.12142e-05
2.22273e-05
2.32688e-05
2.4315e-05
2.53395e-05
2.63095e-05
2.71884e-05
2.79438e-05
2.85573e-05
2.90294e-05
2.93747e-05
2.96153e-05
2.9775e-05
2.98752e-05
2.9933e-05
2.99628e-05
2.99735e-05
2.99696e-05
2.99584e-05
2.99432e-05
2.99246e-05
2.99e-05
2.98721e-05
2.98423e-05
2.98094e-05
2.97753e-05
2.97416e-05
2.97083e-05
2.96753e-05
2.96428e-05
2.9611e-05
2.95794e-05
2.95483e-05
2.95177e-05
2.94875e-05
1.4858e-05
1.50519e-05
1.52892e-05
1.55775e-05
1.59249e-05
1.63393e-05
1.6828e-05
1.73971e-05
1.805e-05
1.8787e-05
1.96047e-05
2.0496e-05
2.14494e-05
2.24481e-05
2.34711e-05
2.44963e-05
2.54998e-05
2.6452e-05
2.73193e-05
2.80705e-05
2.86869e-05
2.91668e-05
2.95222e-05
2.97731e-05
2.9942e-05
3.00497e-05
3.01129e-05
3.01465e-05
3.01597e-05
3.01568e-05
3.01457e-05
3.01302e-05
3.01115e-05
3.00874e-05
3.00592e-05
3.00289e-05
2.9996e-05
2.99611e-05
2.9926e-05
2.98916e-05
2.98573e-05
2.98234e-05
2.979e-05
2.97569e-05
2.97241e-05
2.96918e-05
2.96598e-05
2.96281e-05
2.9597e-05
2.95663e-05
1.57611e-05
1.61317e-05
1.65692e-05
1.70799e-05
1.76684e-05
1.8337e-05
1.90847e-05
1.99073e-05
2.0797e-05
2.17425e-05
2.27275e-05
2.37318e-05
2.4735e-05
2.57153e-05
2.66458e-05
2.74955e-05
2.82354e-05
2.8847e-05
2.93274e-05
2.9687e-05
2.99436e-05
3.01185e-05
3.02313e-05
3.02986e-05
3.0335e-05
3.03501e-05
3.03482e-05
3.03378e-05
3.03211e-05
3.03014e-05
3.02781e-05
3.02496e-05
3.02189e-05
3.01862e-05
3.01506e-05
3.01143e-05
3.00785e-05
3.0043e-05
3.00076e-05
2.99728e-05
2.99383e-05
2.99042e-05
2.98704e-05
2.98368e-05
2.98036e-05
2.97707e-05
2.97381e-05
2.97059e-05
2.96742e-05
2.96429e-05
1.73811e-05
1.79918e-05
1.86784e-05
1.94387e-05
2.02675e-05
2.11567e-05
2.20949e-05
2.30659e-05
2.40509e-05
2.50307e-05
2.59854e-05
2.68904e-05
2.77173e-05
2.84393e-05
2.9039e-05
2.95131e-05
2.98707e-05
3.01284e-05
3.03056e-05
3.04211e-05
3.04908e-05
3.05289e-05
3.0545e-05
3.05438e-05
3.05339e-05
3.05161e-05
3.04955e-05
3.04722e-05
3.04433e-05
3.04119e-05
3.0379e-05
3.03432e-05
3.03061e-05
3.0269e-05
3.02323e-05
3.01956e-05
3.01594e-05
3.01236e-05
3.0088e-05
3.00528e-05
3.00179e-05
2.99832e-05
2.99488e-05
2.99147e-05
2.98809e-05
2.98474e-05
2.98142e-05
2.97814e-05
2.97492e-05
2.97174e-05
1.9853e-05
2.06885e-05
2.15773e-05
2.25077e-05
2.34639e-05
2.44281e-05
2.53826e-05
2.63091e-05
2.71851e-05
2.79842e-05
2.86821e-05
2.92631e-05
2.97244e-05
3.00744e-05
3.03283e-05
3.05041e-05
3.06197e-05
3.069e-05
3.07286e-05
3.07451e-05
3.07439e-05
3.07337e-05
3.07152e-05
3.06936e-05
3.06698e-05
3.06405e-05
3.06085e-05
3.0575e-05
3.05389e-05
3.05009e-05
3.04627e-05
3.04249e-05
3.03872e-05
3.03496e-05
3.03125e-05
3.02756e-05
3.0239e-05
3.02027e-05
3.01667e-05
3.01309e-05
3.00954e-05
3.00601e-05
3.00251e-05
2.99903e-05
2.99559e-05
2.99218e-05
2.98881e-05
2.98548e-05
2.98221e-05
2.97897e-05
2.29818e-05
2.39215e-05
2.48626e-05
2.57894e-05
2.66848e-05
2.75279e-05
2.82945e-05
2.89626e-05
2.95189e-05
2.99614e-05
3.02982e-05
3.05437e-05
3.07147e-05
3.08276e-05
3.08965e-05
3.09344e-05
3.09503e-05
3.09486e-05
3.09379e-05
3.09187e-05
3.08954e-05
3.08703e-05
3.08415e-05
3.08084e-05
3.07742e-05
3.07379e-05
3.06991e-05
3.06598e-05
3.06208e-05
3.05819e-05
3.05431e-05
3.05047e-05
3.04667e-05
3.04288e-05
3.03912e-05
3.03539e-05
3.03167e-05
3.02798e-05
3.02431e-05
3.02067e-05
3.01705e-05
3.01346e-05
3.0099e-05
3.00637e-05
3.00287e-05
2.9994e-05
2.99598e-05
2.99259e-05
2.98927e-05
2.98598e-05
2.62492e-05
2.71102e-05
2.79164e-05
2.86456e-05
2.92786e-05
2.98045e-05
3.02228e-05
3.05416e-05
3.07746e-05
3.09373e-05
3.10448e-05
3.11105e-05
3.11462e-05
3.11604e-05
3.11578e-05
3.11461e-05
3.11259e-05
3.1101e-05
3.10748e-05
3.10454e-05
3.10114e-05
3.09762e-05
3.09396e-05
3.09004e-05
3.08601e-05
3.082e-05
3.078e-05
3.074e-05
3.07003e-05
3.06611e-05
3.06219e-05
3.05831e-05
3.05445e-05
3.05061e-05
3.04679e-05
3.04299e-05
3.03921e-05
3.03546e-05
3.03173e-05
3.02802e-05
3.02434e-05
3.02068e-05
3.01706e-05
3.01347e-05
3.00991e-05
3.00639e-05
3.00291e-05
2.99947e-05
2.9961e-05
2.99277e-05
2.90339e-05
2.96268e-05
3.01174e-05
3.05066e-05
3.08032e-05
3.102e-05
3.11714e-05
3.12712e-05
3.13319e-05
3.13642e-05
3.13756e-05
3.13716e-05
3.13583e-05
3.13365e-05
3.13103e-05
3.12828e-05
3.12526e-05
3.12176e-05
3.11814e-05
3.11441e-05
3.11043e-05
3.10631e-05
3.1022e-05
3.0981e-05
3.094e-05
3.08991e-05
3.08586e-05
3.08183e-05
3.07782e-05
3.07384e-05
3.06988e-05
3.06594e-05
3.06201e-05
3.05811e-05
3.05422e-05
3.05036e-05
3.04651e-05
3.04269e-05
3.0389e-05
3.03513e-05
3.03138e-05
3.02767e-05
3.02399e-05
3.02034e-05
3.01673e-05
3.01315e-05
3.00962e-05
3.00613e-05
3.0027e-05
2.99932e-05
3.08102e-05
3.1081e-05
3.12786e-05
3.14162e-05
3.15061e-05
3.15602e-05
3.15879e-05
3.15956e-05
3.15897e-05
3.15744e-05
3.15508e-05
3.15231e-05
3.14944e-05
3.14624e-05
3.1427e-05
3.13897e-05
3.13515e-05
3.13111e-05
3.1269e-05
3.12269e-05
3.11849e-05
3.11428e-05
3.11007e-05
3.10592e-05
3.10178e-05
3.09765e-05
3.09355e-05
3.08947e-05
3.08541e-05
3.08136e-05
3.07734e-05
3.07333e-05
3.06934e-05
3.06536e-05
3.06141e-05
3.05748e-05
3.05357e-05
3.04969e-05
3.04583e-05
3.04199e-05
3.03819e-05
3.03442e-05
3.03068e-05
3.02697e-05
3.0233e-05
3.01967e-05
3.01609e-05
3.01255e-05
3.00908e-05
3.00565e-05
3.15484e-05
3.16701e-05
3.17486e-05
3.17949e-05
3.18172e-05
3.18202e-05
3.18119e-05
3.1794e-05
3.17685e-05
3.17393e-05
3.1709e-05
3.16755e-05
3.16393e-05
3.16009e-05
3.15615e-05
3.15205e-05
3.14776e-05
3.14345e-05
3.13915e-05
3.13484e-05
3.13053e-05
3.12626e-05
3.12202e-05
3.11778e-05
3.11356e-05
3.10937e-05
3.10519e-05
3.10103e-05
3.09688e-05
3.09275e-05
3.08864e-05
3.08455e-05
3.08047e-05
3.07641e-05
3.07237e-05
3.06836e-05
3.06436e-05
3.06039e-05
3.05644e-05
3.05252e-05
3.04862e-05
3.04476e-05
3.04092e-05
3.03713e-05
3.03336e-05
3.02964e-05
3.02596e-05
3.02232e-05
3.01873e-05
3.01521e-05
3.01174e-05
3.20351e-05
3.20508e-05
3.20491e-05
3.20379e-05
3.20172e-05
3.19894e-05
3.19585e-05
3.19266e-05
3.18915e-05
3.18543e-05
3.18148e-05
3.17742e-05
3.17325e-05
3.16888e-05
3.16446e-05
3.16007e-05
3.15567e-05
3.15126e-05
3.14688e-05
3.14253e-05
3.13818e-05
3.13385e-05
3.12955e-05
3.12526e-05
3.12099e-05
3.11673e-05
3.11249e-05
3.10826e-05
3.10405e-05
3.09985e-05
3.09567e-05
3.09151e-05
3.08736e-05
3.08324e-05
3.07914e-05
3.07505e-05
3.07099e-05
3.06696e-05
3.06294e-05
3.05896e-05
3.05501e-05
3.05108e-05
3.04719e-05
3.04333e-05
3.03951e-05
3.03574e-05
3.032e-05
3.02832e-05
3.02468e-05
3.02111e-05
3.01759e-05
3.22825e-05
3.2267e-05
3.22432e-05
3.22131e-05
3.21806e-05
3.21471e-05
3.21104e-05
3.20716e-05
3.20313e-05
3.19896e-05
3.19468e-05
3.19024e-05
3.18572e-05
3.18123e-05
3.17674e-05
3.17223e-05
3.16775e-05
3.1633e-05
3.15885e-05
3.15441e-05
3.15001e-05
3.14561e-05
3.14122e-05
3.13686e-05
3.13251e-05
3.12817e-05
3.12384e-05
3.11953e-05
3.11524e-05
3.11096e-05
3.10669e-05
3.10245e-05
3.09822e-05
3.09401e-05
3.08982e-05
3.08565e-05
3.0815e-05
3.07738e-05
3.07328e-05
3.06921e-05
3.06516e-05
3.06114e-05
3.05716e-05
3.05321e-05
3.0493e-05
3.04542e-05
3.04159e-05
3.0378e-05
3.03406e-05
3.03038e-05
3.02676e-05
3.02319e-05
3.24396e-05
3.24053e-05
3.237e-05
3.23315e-05
3.22913e-05
3.22501e-05
3.22072e-05
3.21633e-05
3.21181e-05
3.20721e-05
3.20262e-05
3.19805e-05
3.19344e-05
3.18885e-05
3.1843e-05
3.17976e-05
3.17522e-05
3.17071e-05
3.16622e-05
3.16173e-05
3.15725e-05
3.1528e-05
3.14835e-05
3.14392e-05
3.1395e-05
3.13509e-05
3.1307e-05
3.12632e-05
3.12196e-05
3.11762e-05
3.11329e-05
3.10897e-05
3.10468e-05
3.1004e-05
3.09615e-05
3.09192e-05
3.0877e-05
3.08352e-05
3.07935e-05
3.07522e-05
3.07111e-05
3.06703e-05
3.06299e-05
3.05898e-05
3.05501e-05
3.05108e-05
3.04719e-05
3.04335e-05
3.03956e-05
3.03583e-05
3.03216e-05
3.02855e-05
3.25549e-05
3.25133e-05
3.24709e-05
3.2427e-05
3.23819e-05
3.23359e-05
3.2289e-05
3.22421e-05
3.21956e-05
3.21487e-05
3.21018e-05
3.20554e-05
3.2009e-05
3.19627e-05
3.19166e-05
3.18706e-05
3.18247e-05
3.1779e-05
3.17334e-05
3.16879e-05
3.16426e-05
3.15973e-05
3.15522e-05
3.15072e-05
3.14624e-05
3.14176e-05
3.13731e-05
3.13286e-05
3.12843e-05
3.12402e-05
3.11963e-05
3.11525e-05
3.11089e-05
3.10655e-05
3.10223e-05
3.09793e-05
3.09365e-05
3.0894e-05
3.08518e-05
3.08098e-05
3.07681e-05
3.07267e-05
3.06857e-05
3.0645e-05
3.06047e-05
3.05649e-05
3.05255e-05
3.04865e-05
3.04481e-05
3.04102e-05
3.03731e-05
3.03365e-05
3.26485e-05
3.26024e-05
3.25554e-05
3.25078e-05
3.246e-05
3.24126e-05
3.23649e-05
3.23171e-05
3.22698e-05
3.22225e-05
3.21752e-05
3.21282e-05
3.20813e-05
3.20345e-05
3.19878e-05
3.19412e-05
3.18947e-05
3.18484e-05
3.18022e-05
3.1756e-05
3.171e-05
3.16641e-05
3.16183e-05
3.15727e-05
3.15272e-05
3.14818e-05
3.14366e-05
3.13915e-05
3.13465e-05
3.13018e-05
3.12571e-05
3.12127e-05
3.11685e-05
3.11244e-05
3.10806e-05
3.10369e-05
3.09935e-05
3.09504e-05
3.09075e-05
3.08649e-05
3.08226e-05
3.07806e-05
3.0739e-05
3.06977e-05
3.06568e-05
3.06164e-05
3.05764e-05
3.05369e-05
3.0498e-05
3.04596e-05
3.0422e-05
3.03849e-05
3.27282e-05
3.26797e-05
3.26313e-05
3.25829e-05
3.25342e-05
3.2486e-05
3.24379e-05
3.23897e-05
3.23418e-05
3.22941e-05
3.22463e-05
3.21987e-05
3.21512e-05
3.21038e-05
3.20565e-05
3.20093e-05
3.19622e-05
3.19152e-05
3.18683e-05
3.18215e-05
3.17749e-05
3.17283e-05
3.16819e-05
3.16356e-05
3.15895e-05
3.15434e-05
3.14975e-05
3.14518e-05
3.14062e-05
3.13608e-05
3.13155e-05
3.12704e-05
3.12255e-05
3.11808e-05
3.11363e-05
3.1092e-05
3.10479e-05
3.10042e-05
3.09606e-05
3.09174e-05
3.08745e-05
3.08319e-05
3.07896e-05
3.07477e-05
3.07063e-05
3.06653e-05
3.06247e-05
3.05847e-05
3.05452e-05
3.05063e-05
3.04682e-05
3.04306e-05
3.28024e-05
3.2753e-05
3.27039e-05
3.26551e-05
3.2606e-05
3.25572e-05
3.25086e-05
3.246e-05
3.24115e-05
3.23632e-05
3.23149e-05
3.22667e-05
3.22186e-05
3.21705e-05
3.21226e-05
3.20748e-05
3.20271e-05
3.19794e-05
3.19319e-05
3.18845e-05
3.18372e-05
3.179e-05
3.17429e-05
3.1696e-05
3.16492e-05
3.16025e-05
3.1556e-05
3.15095e-05
3.14633e-05
3.14172e-05
3.13713e-05
3.13255e-05
3.12799e-05
3.12346e-05
3.11894e-05
3.11445e-05
3.10998e-05
3.10553e-05
3.10112e-05
3.09673e-05
3.09237e-05
3.08805e-05
3.08376e-05
3.07951e-05
3.07531e-05
3.07115e-05
3.06704e-05
3.06298e-05
3.05898e-05
3.05503e-05
3.05117e-05
3.04736e-05
3.28737e-05
3.28239e-05
3.27742e-05
3.27249e-05
3.26754e-05
3.26261e-05
3.25769e-05
3.25278e-05
3.24787e-05
3.24297e-05
3.23809e-05
3.23321e-05
3.22834e-05
3.22347e-05
3.21862e-05
3.21377e-05
3.20894e-05
3.20411e-05
3.1993e-05
3.19449e-05
3.1897e-05
3.18491e-05
3.18014e-05
3.17538e-05
3.17064e-05
3.1659e-05
3.16118e-05
3.15647e-05
3.15178e-05
3.14711e-05
3.14245e-05
3.1378e-05
3.13318e-05
3.12858e-05
3.12399e-05
3.11943e-05
3.1149e-05
3.11039e-05
3.1059e-05
3.10145e-05
3.09703e-05
3.09264e-05
3.08829e-05
3.08398e-05
3.07972e-05
3.07549e-05
3.07132e-05
3.06721e-05
3.06315e-05
3.05916e-05
3.05524e-05
3.05139e-05
3.28923e-05
3.28422e-05
3.27922e-05
3.27423e-05
3.26924e-05
3.26427e-05
3.2593e-05
3.25433e-05
3.24938e-05
3.24443e-05
3.23949e-05
3.23456e-05
3.22963e-05
3.22472e-05
3.21981e-05
3.21491e-05
3.21002e-05
3.20515e-05
3.20028e-05
3.19542e-05
3.19057e-05
3.18573e-05
3.18091e-05
3.1761e-05
3.1713e-05
3.16651e-05
3.16173e-05
3.15698e-05
3.15223e-05
3.14751e-05
3.1428e-05
3.1381e-05
3.13343e-05
3.12878e-05
3.12415e-05
3.11955e-05
3.11497e-05
3.11042e-05
3.1059e-05
3.10142e-05
3.09696e-05
3.09255e-05
3.08817e-05
3.08385e-05
3.07956e-05
3.07533e-05
3.07116e-05
3.06705e-05
3.063e-05
3.05903e-05
3.05512e-05
3.29583e-05
3.29076e-05
3.28571e-05
3.28066e-05
3.27562e-05
3.27059e-05
3.26556e-05
3.26054e-05
3.25552e-05
3.25052e-05
3.24552e-05
3.24052e-05
3.23554e-05
3.23056e-05
3.22559e-05
3.22063e-05
3.21568e-05
3.21074e-05
3.20581e-05
3.20088e-05
3.19597e-05
3.19107e-05
3.18618e-05
3.1813e-05
3.17643e-05
3.17157e-05
3.16673e-05
3.16191e-05
3.15709e-05
3.1523e-05
3.14752e-05
3.14276e-05
3.13802e-05
3.1333e-05
3.1286e-05