/*--------------------------------*- C++ -*----------------------------------*\
| =========                 |                                                 |
| \\      /  F ield         | OpenFOAM: The Open Source CFD Toolbox           |
|  \\    /   O peration     | Version:  v1706                                 |
|   \\  /    A nd           | Web:      www.OpenFOAM.com                      |
|    \\/     M anipulation  |                                                 |
\*---------------------------------------------------------------------------*/
FoamFile
{
    version     2.0;
    format      ascii;
    class       volScalarField;
    location    "3.9e-05";
    object      kappave;
}
// * * * * * * * * * * * * * * * * * * * * * * * * * * * * * * * * * * * * * //

dimensions      [1 1 -3 -1 0 0 0];


internalField   nonuniform List<scalar> 
30038
(
1.46038e-10
1.46038e-10
1.46038e-10
1.46038e-10
1.46038e-10
1.46038e-10
1.46038e-10
1.46038e-10
1.46038e-10
1.46038e-10
1.46038e-10
1.46038e-10
1.46038e-10
1.46038e-10
1.46038e-10
1.46038e-10
1.46038e-10
1.46038e-10
1.46038e-10
1.46038e-10
1.46038e-10
1.46038e-10
1.46038e-10
1.46038e-10
1.46038e-10
1.46038e-10
1.46038e-10
1.46038e-10
1.46038e-10
1.46038e-10
1.46038e-10
1.46038e-10
1.46038e-10
1.46038e-10
1.46038e-10
1.46038e-10
1.46038e-10
1.46038e-10
1.46038e-10
1.46038e-10
1.46038e-10
1.46038e-10
1.46038e-10
1.46038e-10
1.46038e-10
1.46038e-10
1.46038e-10
1.46038e-10
1.46038e-10
1.46038e-10
1.46038e-10
1.46038e-10
1.46038e-10
1.46038e-10
1.46038e-10
1.46038e-10
1.46038e-10
1.46038e-10
1.46038e-10
1.46038e-10
1.46038e-10
1.46038e-10
1.46038e-10
1.46038e-10
1.46038e-10
1.46038e-10
1.46038e-10
1.46038e-10
1.46038e-10
1.46038e-10
1.46038e-10
1.46038e-10
1.46038e-10
1.46038e-10
1.46038e-10
1.46038e-10
1.46038e-10
1.46038e-10
1.46038e-10
1.46038e-10
1.46038e-10
1.46038e-10
1.46038e-10
1.46038e-10
1.46038e-10
1.46038e-10
1.46038e-10
1.46038e-10
1.46038e-10
1.46038e-10
1.46038e-10
1.46038e-10
1.46038e-10
1.46038e-10
1.46038e-10
1.46038e-10
1.46038e-10
1.46038e-10
1.46038e-10
1.46038e-10
1.46038e-10
1.46038e-10
1.46038e-10
1.46038e-10
1.46038e-10
1.46038e-10
1.46038e-10
1.46038e-10
1.46038e-10
1.46038e-10
1.46038e-10
1.46038e-10
1.46038e-10
1.46038e-10
1.46038e-10
1.46038e-10
1.46038e-10
1.46038e-10
1.46038e-10
1.46038e-10
1.46038e-10
1.46038e-10
1.46038e-10
1.46038e-10
1.46038e-10
1.46038e-10
1.46038e-10
1.46038e-10
1.46038e-10
1.46038e-10
1.46038e-10
1.46038e-10
1.46038e-10
1.46038e-10
1.46038e-10
1.46038e-10
1.46038e-10
1.46038e-10
1.46038e-10
1.46038e-10
1.46038e-10
1.46038e-10
1.46038e-10
1.46038e-10
1.46038e-10
1.46038e-10
1.46038e-10
1.46038e-10
1.46038e-10
1.46038e-10
1.46038e-10
1.46038e-10
1.46038e-10
1.46038e-10
1.46038e-10
1.46038e-10
1.46038e-10
1.46038e-10
1.46038e-10
1.46038e-10
1.46038e-10
1.46038e-10
1.46038e-10
1.46038e-10
1.46038e-10
1.46038e-10
1.46038e-10
1.46038e-10
1.46038e-10
1.46038e-10
1.46038e-10
1.46038e-10
1.46038e-10
1.46038e-10
1.46038e-10
1.46038e-10
1.46038e-10
1.46038e-10
1.46038e-10
1.46038e-10
1.46038e-10
1.46038e-10
1.46038e-10
1.46038e-10
1.46038e-10
1.46038e-10
1.46038e-10
1.46038e-10
1.46038e-10
1.46038e-10
1.46038e-10
1.46038e-10
1.46038e-10
1.46038e-10
1.46038e-10
1.46038e-10
1.46038e-10
1.46038e-10
1.46038e-10
1.46038e-10
1.46038e-10
1.46038e-10
1.46038e-10
1.46038e-10
1.46038e-10
1.46038e-10
1.46038e-10
1.46038e-10
1.46038e-10
1.46038e-10
1.46038e-10
1.46038e-10
1.46038e-10
1.46038e-10
1.46038e-10
1.46038e-10
1.46038e-10
1.46038e-10
1.46038e-10
1.46038e-10
1.46038e-10
1.46038e-10
1.46038e-10
1.46038e-10
1.46038e-10
1.46038e-10
1.46038e-10
1.46038e-10
1.46038e-10
1.46038e-10
1.46038e-10
1.46038e-10
1.46038e-10
1.46038e-10
1.46038e-10
1.46038e-10
1.46038e-10
1.46038e-10
1.46038e-10
1.46038e-10
1.46038e-10
1.46038e-10
1.46038e-10
1.46038e-10
1.46038e-10
1.46038e-10
1.46038e-10
1.46038e-10
1.46038e-10
1.46038e-10
1.46038e-10
1.46038e-10
1.46038e-10
1.46038e-10
1.46038e-10
1.46038e-10
1.46038e-10
1.46038e-10
1.46038e-10
1.46038e-10
1.46038e-10
1.46038e-10
1.46038e-10
1.46038e-10
1.46038e-10
1.46038e-10
1.46038e-10
1.46038e-10
1.46038e-10
1.46038e-10
1.46038e-10
1.46038e-10
1.46038e-10
1.46038e-10
1.46038e-10
1.46038e-10
1.46038e-10
1.46038e-10
1.46038e-10
1.46038e-10
1.46038e-10
1.46038e-10
1.46038e-10
1.46038e-10
1.46038e-10
1.46038e-10
1.46038e-10
1.46038e-10
1.46038e-10
1.46038e-10
1.46038e-10
1.46038e-10
1.46038e-10
1.46038e-10
1.46038e-10
1.46038e-10
1.46038e-10
1.46038e-10
1.46038e-10
1.46038e-10
1.46038e-10
1.46038e-10
1.46038e-10
1.46038e-10
1.46038e-10
1.46038e-10
1.46038e-10
1.46038e-10
1.46038e-10
1.46038e-10
1.46038e-10
1.46038e-10
1.46038e-10
1.46038e-10
1.46038e-10
1.46038e-10
1.46038e-10
1.46038e-10
1.46038e-10
1.46038e-10
1.46038e-10
1.46038e-10
1.46038e-10
1.46038e-10
1.46038e-10
1.46038e-10
1.46038e-10
1.46038e-10
1.46038e-10
1.46038e-10
1.46038e-10
1.46038e-10
1.46038e-10
1.46038e-10
1.46038e-10
1.46038e-10
1.46038e-10
1.46038e-10
1.46038e-10
1.46038e-10
1.46038e-10
1.46038e-10
1.46038e-10
1.46038e-10
1.46038e-10
1.46038e-10
1.46038e-10
1.46038e-10
1.46038e-10
1.46038e-10
1.46038e-10
1.46038e-10
1.46038e-10
1.46038e-10
1.46038e-10
1.46038e-10
1.46038e-10
1.46038e-10
1.46038e-10
1.46038e-10
1.46038e-10
1.46038e-10
1.46038e-10
1.46038e-10
1.46038e-10
1.46038e-10
1.46038e-10
1.46038e-10
1.46038e-10
1.46038e-10
1.46038e-10
1.46038e-10
1.46038e-10
1.46038e-10
1.46038e-10
1.46038e-10
1.46038e-10
1.46038e-10
1.46038e-10
1.46038e-10
1.46038e-10
1.46038e-10
1.46038e-10
1.46038e-10
1.46038e-10
1.46038e-10
1.46038e-10
1.46038e-10
1.46038e-10
1.46038e-10
1.46038e-10
1.46038e-10
1.46038e-10
1.46038e-10
1.46038e-10
1.46038e-10
1.46038e-10
1.46038e-10
1.46038e-10
1.46038e-10
1.46038e-10
1.46038e-10
1.46038e-10
1.46038e-10
1.46038e-10
1.46038e-10
1.46038e-10
1.46038e-10
1.46038e-10
1.46038e-10
1.46038e-10
1.46038e-10
1.46038e-10
1.46038e-10
1.46038e-10
1.46038e-10
1.46038e-10
1.46038e-10
1.46038e-10
1.46038e-10
1.46039e-10
1.46038e-10
1.46038e-10
1.46038e-10
1.46038e-10
1.46038e-10
1.46038e-10
1.46038e-10
1.46038e-10
1.46038e-10
1.46038e-10
1.46038e-10
1.46038e-10
1.46038e-10
1.46038e-10
1.46038e-10
1.46038e-10
1.46038e-10
1.46038e-10
1.46038e-10
1.46038e-10
1.46038e-10
1.46038e-10
1.46038e-10
1.46038e-10
1.46038e-10
1.46038e-10
1.46038e-10
1.46038e-10
1.46038e-10
1.46038e-10
1.46038e-10
1.46038e-10
1.46038e-10
1.46038e-10
1.46038e-10
1.46038e-10
1.46039e-10
1.46039e-10
1.46039e-10
1.4604e-10
1.46038e-10
1.46038e-10
1.46038e-10
1.46038e-10
1.46038e-10
1.46038e-10
1.46038e-10
1.46038e-10
1.46038e-10
1.46038e-10
1.46038e-10
1.46038e-10
1.46038e-10
1.46038e-10
1.46038e-10
1.46038e-10
1.46038e-10
1.46038e-10
1.46038e-10
1.46038e-10
1.46038e-10
1.46038e-10
1.46038e-10
1.46038e-10
1.46038e-10
1.46038e-10
1.46038e-10
1.46038e-10
1.46038e-10
1.46038e-10
1.46038e-10
1.46038e-10
1.46038e-10
1.46039e-10
1.46039e-10
1.46039e-10
1.4604e-10
1.46041e-10
1.46043e-10
1.46045e-10
1.46038e-10
1.46038e-10
1.46038e-10
1.46038e-10
1.46038e-10
1.46038e-10
1.46038e-10
1.46038e-10
1.46038e-10
1.46038e-10
1.46038e-10
1.46038e-10
1.46038e-10
1.46038e-10
1.46038e-10
1.46038e-10
1.46038e-10
1.46038e-10
1.46038e-10
1.46038e-10
1.46038e-10
1.46038e-10
1.46038e-10
1.46038e-10
1.46038e-10
1.46038e-10
1.46038e-10
1.46038e-10
1.46038e-10
1.46038e-10
1.46039e-10
1.46039e-10
1.46039e-10
1.4604e-10
1.46041e-10
1.46043e-10
1.46045e-10
1.46048e-10
1.46052e-10
1.46059e-10
1.46038e-10
1.46038e-10
1.46038e-10
1.46038e-10
1.46038e-10
1.46038e-10
1.46038e-10
1.46038e-10
1.46038e-10
1.46038e-10
1.46038e-10
1.46038e-10
1.46038e-10
1.46038e-10
1.46038e-10
1.46038e-10
1.46038e-10
1.46038e-10
1.46038e-10
1.46038e-10
1.46038e-10
1.46038e-10
1.46038e-10
1.46038e-10
1.46038e-10
1.46038e-10
1.46038e-10
1.46039e-10
1.46039e-10
1.46039e-10
1.4604e-10
1.46041e-10
1.46042e-10
1.46044e-10
1.46047e-10
1.46051e-10
1.46057e-10
1.46066e-10
1.46079e-10
1.46097e-10
1.46038e-10
1.46038e-10
1.46038e-10
1.46038e-10
1.46038e-10
1.46038e-10
1.46038e-10
1.46038e-10
1.46038e-10
1.46038e-10
1.46038e-10
1.46038e-10
1.46038e-10
1.46038e-10
1.46038e-10
1.46038e-10
1.46038e-10
1.46038e-10
1.46038e-10
1.46038e-10
1.46038e-10
1.46038e-10
1.46038e-10
1.46038e-10
1.46039e-10
1.46039e-10
1.46039e-10
1.4604e-10
1.46041e-10
1.46042e-10
1.46044e-10
1.46047e-10
1.46051e-10
1.46057e-10
1.46065e-10
1.46076e-10
1.46093e-10
1.46116e-10
1.46151e-10
1.46201e-10
1.46038e-10
1.46038e-10
1.46038e-10
1.46038e-10
1.46038e-10
1.46038e-10
1.46038e-10
1.46038e-10
1.46038e-10
1.46038e-10
1.46038e-10
1.46038e-10
1.46038e-10
1.46038e-10
1.46038e-10
1.46038e-10
1.46038e-10
1.46038e-10
1.46038e-10
1.46038e-10
1.46038e-10
1.46039e-10
1.46039e-10
1.46039e-10
1.4604e-10
1.46041e-10
1.46042e-10
1.46044e-10
1.46047e-10
1.46051e-10
1.46056e-10
1.46064e-10
1.46075e-10
1.4609e-10
1.46112e-10
1.46143e-10
1.46188e-10
1.46252e-10
1.46344e-10
1.46478e-10
1.46038e-10
1.46038e-10
1.46038e-10
1.46038e-10
1.46038e-10
1.46038e-10
1.46038e-10
1.46038e-10
1.46038e-10
1.46038e-10
1.46038e-10
1.46038e-10
1.46038e-10
1.46038e-10
1.46038e-10
1.46038e-10
1.46038e-10
1.46038e-10
1.46039e-10
1.46039e-10
1.4604e-10
1.4604e-10
1.46041e-10
1.46043e-10
1.46045e-10
1.46047e-10
1.46051e-10
1.46056e-10
1.46064e-10
1.46074e-10
1.46089e-10
1.46109e-10
1.46139e-10
1.4618e-10
1.46239e-10
1.46322e-10
1.4644e-10
1.46609e-10
1.46851e-10
1.472e-10
1.46038e-10
1.46038e-10
1.46038e-10
1.46038e-10
1.46038e-10
1.46038e-10
1.46038e-10
1.46038e-10
1.46038e-10
1.46038e-10
1.46038e-10
1.46038e-10
1.46038e-10
1.46038e-10
1.46038e-10
1.46038e-10
1.46039e-10
1.46039e-10
1.4604e-10
1.4604e-10
1.46041e-10
1.46043e-10
1.46045e-10
1.46047e-10
1.46051e-10
1.46056e-10
1.46064e-10
1.46074e-10
1.46088e-10
1.46108e-10
1.46136e-10
1.46175e-10
1.4623e-10
1.46308e-10
1.46417e-10
1.46572e-10
1.46789e-10
1.47097e-10
1.47533e-10
1.48151e-10
1.4903e-10
1.46038e-10
1.46038e-10
1.46038e-10
1.46038e-10
1.46038e-10
1.46038e-10
1.46038e-10
1.46038e-10
1.46038e-10
1.46038e-10
1.46038e-10
1.46038e-10
1.46039e-10
1.46039e-10
1.46039e-10
1.4604e-10
1.46041e-10
1.46042e-10
1.46043e-10
1.46045e-10
1.46048e-10
1.46052e-10
1.46057e-10
1.46064e-10
1.46074e-10
1.46088e-10
1.46108e-10
1.46135e-10
1.46173e-10
1.46226e-10
1.46299e-10
1.46402e-10
1.46546e-10
1.46748e-10
1.47031e-10
1.47427e-10
1.47983e-10
1.48759e-10
1.49845e-10
1.51356e-10
1.53452e-10
1.46038e-10
1.46038e-10
1.46038e-10
1.46038e-10
1.46038e-10
1.46038e-10
1.46038e-10
1.46038e-10
1.46038e-10
1.46038e-10
1.46039e-10
1.46039e-10
1.46039e-10
1.4604e-10
1.46041e-10
1.46042e-10
1.46044e-10
1.46046e-10
1.46049e-10
1.46053e-10
1.46058e-10
1.46065e-10
1.46076e-10
1.4609e-10
1.46109e-10
1.46136e-10
1.46173e-10
1.46224e-10
1.46295e-10
1.46394e-10
1.46531e-10
1.46721e-10
1.46986e-10
1.47354e-10
1.47866e-10
1.48576e-10
1.4956e-10
1.50918e-10
1.52781e-10
1.55319e-10
1.58738e-10
1.63276e-10
1.46038e-10
1.46038e-10
1.46038e-10
1.46038e-10
1.46038e-10
1.46038e-10
1.46038e-10
1.46039e-10
1.46039e-10
1.46039e-10
1.4604e-10
1.4604e-10
1.46041e-10
1.46042e-10
1.46044e-10
1.46046e-10
1.46049e-10
1.46054e-10
1.46059e-10
1.46067e-10
1.46077e-10
1.46092e-10
1.46111e-10
1.46138e-10
1.46175e-10
1.46226e-10
1.46295e-10
1.46391e-10
1.46523e-10
1.46706e-10
1.46958e-10
1.47305e-10
1.47785e-10
1.48447e-10
1.49357e-10
1.50604e-10
1.52305e-10
1.54607e-10
1.57693e-10
1.61772e-10
1.67074e-10
1.73814e-10
1.82143e-10
1.46038e-10
1.46038e-10
1.46038e-10
1.46038e-10
1.46039e-10
1.46039e-10
1.46039e-10
1.4604e-10
1.46041e-10
1.46042e-10
1.46043e-10
1.46045e-10
1.46047e-10
1.46051e-10
1.46055e-10
1.46061e-10
1.46069e-10
1.4608e-10
1.46095e-10
1.46115e-10
1.46142e-10
1.46179e-10
1.4623e-10
1.46299e-10
1.46394e-10
1.46524e-10
1.46702e-10
1.46945e-10
1.47279e-10
1.47736e-10
1.48361e-10
1.49216e-10
1.50381e-10
1.5196e-10
1.54086e-10
1.56923e-10
1.60662e-10
1.65509e-10
1.71669e-10
1.79308e-10
1.88523e-10
1.99285e-10
2.11384e-10
1.46038e-10
1.46039e-10
1.46039e-10
1.46039e-10
1.4604e-10
1.4604e-10
1.46041e-10
1.46042e-10
1.46044e-10
1.46046e-10
1.46048e-10
1.46052e-10
1.46057e-10
1.46063e-10
1.46072e-10
1.46083e-10
1.46099e-10
1.4612e-10
1.46148e-10
1.46186e-10
1.46238e-10
1.46308e-10
1.46403e-10
1.46532e-10
1.46708e-10
1.46947e-10
1.47272e-10
1.47714e-10
1.48315e-10
1.49131e-10
1.50234e-10
1.51722e-10
1.53714e-10
1.5636e-10
1.59834e-10
1.6433e-10
1.70041e-10
1.77133e-10
1.85711e-10
1.95778e-10
2.07198e-10
2.19687e-10
2.32814e-10
2.4605e-10
1.46039e-10
1.4604e-10
1.4604e-10
1.46041e-10
1.46042e-10
1.46043e-10
1.46045e-10
1.46047e-10
1.4605e-10
1.46054e-10
1.46059e-10
1.46066e-10
1.46075e-10
1.46088e-10
1.46104e-10
1.46126e-10
1.46156e-10
1.46195e-10
1.46249e-10
1.46321e-10
1.46418e-10
1.46548e-10
1.46724e-10
1.46962e-10
1.47284e-10
1.47718e-10
1.48304e-10
1.49094e-10
1.50155e-10
1.51577e-10
1.5347e-10
1.5597e-10
1.59241e-10
1.6346e-10
1.68812e-10
1.7546e-10
1.83521e-10
1.93024e-10
2.03881e-10
2.15855e-10
2.28582e-10
2.41563e-10
2.54153e-10
2.65595e-10
2.7541e-10
1.46041e-10
1.46041e-10
1.46043e-10
1.46044e-10
1.46046e-10
1.46048e-10
1.46052e-10
1.46056e-10
1.46062e-10
1.4607e-10
1.4608e-10
1.46093e-10
1.46111e-10
1.46135e-10
1.46166e-10
1.46208e-10
1.46264e-10
1.46339e-10
1.46439e-10
1.46573e-10
1.46752e-10
1.46993e-10
1.47316e-10
1.47748e-10
1.48328e-10
1.49104e-10
1.5014e-10
1.51518e-10
1.53341e-10
1.55736e-10
1.58853e-10
1.62859e-10
1.67927e-10
1.74217e-10
1.81847e-10
1.90868e-10
2.01225e-10
2.12742e-10
2.25103e-10
2.3789e-10
2.5055e-10
2.62393e-10
2.7275e-10
2.81232e-10
2.87787e-10
2.92813e-10
1.46042e-10
1.46044e-10
1.46045e-10
1.46047e-10
1.4605e-10
1.46054e-10
1.46059e-10
1.46066e-10
1.46074e-10
1.46085e-10
1.461e-10
1.4612e-10
1.46145e-10
1.46179e-10
1.46224e-10
1.46284e-10
1.46363e-10
1.46468e-10
1.46607e-10
1.46792e-10
1.47039e-10
1.47368e-10
1.47805e-10
1.48387e-10
1.4916e-10
1.50185e-10
1.51539e-10
1.5332e-10
1.55644e-10
1.58653e-10
1.62501e-10
1.67352e-10
1.73358e-10
1.80638e-10
1.89253e-10
1.99176e-10
2.10268e-10
2.22265e-10
2.34808e-10
2.47428e-10
2.59524e-10
2.70434e-10
2.79646e-10
2.86977e-10
2.92571e-10
2.96795e-10
3.00045e-10
3.02812e-10
1.46049e-10
1.46053e-10
1.46057e-10
1.46063e-10
1.4607e-10
1.4608e-10
1.46093e-10
1.46109e-10
1.46131e-10
1.46159e-10
1.46196e-10
1.46245e-10
1.46309e-10
1.46394e-10
1.46505e-10
1.46652e-10
1.46846e-10
1.47103e-10
1.47442e-10
1.47891e-10
1.48483e-10
1.49264e-10
1.50292e-10
1.51641e-10
1.53403e-10
1.55688e-10
1.58628e-10
1.62368e-10
1.67061e-10
1.72852e-10
1.79857e-10
1.8814e-10
1.97692e-10
2.08403e-10
2.20055e-10
2.32327e-10
2.44821e-10
2.57022e-10
2.68314e-10
2.78135e-10
2.86176e-10
2.92458e-10
2.97251e-10
3.0094e-10
3.03919e-10
3.06544e-10
3.09095e-10
3.11915e-10
1.46056e-10
1.46061e-10
1.46068e-10
1.46076e-10
1.46087e-10
1.46102e-10
1.46121e-10
1.46145e-10
1.46176e-10
1.46217e-10
1.46271e-10
1.46341e-10
1.46433e-10
1.46553e-10
1.4671e-10
1.46916e-10
1.47187e-10
1.47542e-10
1.48008e-10
1.48619e-10
1.49419e-10
1.50465e-10
1.51827e-10
1.53593e-10
1.55868e-10
1.58776e-10
1.62452e-10
1.67042e-10
1.7268e-10
1.79477e-10
1.87498e-10
1.96744e-10
2.07127e-10
2.18461e-10
2.30462e-10
2.42782e-10
2.54977e-10
2.66498e-10
2.76781e-10
2.85429e-10
2.92348e-10
2.97719e-10
3.01877e-10
3.05211e-10
3.08076e-10
3.10777e-10
3.13566e-10
3.1665e-10
3.20173e-10
3.24542e-10
1.46084e-10
1.46097e-10
1.46114e-10
1.46135e-10
1.46163e-10
1.46198e-10
1.46244e-10
1.46304e-10
1.46382e-10
1.46483e-10
1.46614e-10
1.46784e-10
1.47006e-10
1.47295e-10
1.47672e-10
1.48163e-10
1.48801e-10
1.49632e-10
1.50709e-10
1.52102e-10
1.53894e-10
1.56187e-10
1.59097e-10
1.62753e-10
1.67288e-10
1.7283e-10
1.79483e-10
1.87308e-10
1.9631e-10
2.06419e-10
2.1747e-10
2.29214e-10
2.41336e-10
2.53453e-10
2.65085e-10
2.75691e-10
2.84831e-10
2.92313e-10
2.98228e-10
3.02859e-10
3.06565e-10
3.09713e-10
3.12614e-10
3.15535e-10
3.18705e-10
3.22273e-10
3.26437e-10
3.31405e-10
3.37329e-10
3.44619e-10
1.46153e-10
1.46185e-10
1.46226e-10
1.46279e-10
1.46346e-10
1.46433e-10
1.46545e-10
1.4669e-10
1.46877e-10
1.47119e-10
1.47432e-10
1.47837e-10
1.48361e-10
1.49037e-10
1.4991e-10
1.51034e-10
1.52476e-10
1.54317e-10
1.56656e-10
1.59601e-10
1.63275e-10
1.67803e-10
1.73302e-10
1.79868e-10
1.87559e-10
1.96378e-10
2.06265e-10
2.17074e-10
2.28582e-10
2.40501e-10
2.52497e-10
2.64148e-10
2.74959e-10
2.84473e-10
2.92432e-10
2.98842e-10
3.03925e-10
3.08013e-10
3.11459e-10
3.1459e-10
3.17679e-10
3.20972e-10
3.24649e-10
3.28858e-10
3.33851e-10
3.39755e-10
3.46725e-10
3.54985e-10
3.64847e-10
3.76942e-10
1.46322e-10
1.46399e-10
1.46498e-10
1.46625e-10
1.46787e-10
1.46995e-10
1.47262e-10
1.47605e-10
1.48046e-10
1.48611e-10
1.49337e-10
1.50265e-10
1.51452e-10
1.52963e-10
1.54877e-10
1.57289e-10
1.60303e-10
1.64034e-10
1.68598e-10
1.74103e-10
1.80638e-10
1.8825e-10
1.96942e-10
2.06658e-10
2.17269e-10
2.28566e-10
2.40289e-10
2.52138e-10
2.63745e-10
2.74662e-10
2.84443e-10
2.92785e-10
2.99626e-10
3.05129e-10
3.09589e-10
3.13345e-10
3.16726e-10
3.2001e-10
3.23456e-10
3.27269e-10
3.31583e-10
3.36645e-10
3.42625e-10
3.49657e-10
3.57939e-10
3.67716e-10
3.79257e-10
3.92875e-10
4.09035e-10
4.28704e-10
1.46725e-10
1.46909e-10
1.47143e-10
1.47442e-10
1.47822e-10
1.48308e-10
1.48926e-10
1.49713e-10
1.50713e-10
1.5198e-10
1.53581e-10
1.55594e-10
1.58108e-10
1.61224e-10
1.6505e-10
1.69693e-10
1.75252e-10
1.81804e-10
1.8939e-10
1.98007e-10
2.076e-10
2.18051e-10
2.29166e-10
2.40706e-10
2.52397e-10
2.63916e-10
2.74865e-10
2.84818e-10
2.9345e-10
3.00651e-10
3.0653e-10
3.11341e-10
3.15406e-10
3.1905e-10
3.22557e-10
3.26185e-10
3.30161e-10
3.3463e-10
3.39805e-10
3.45895e-10
3.53048e-10
3.61433e-10
3.71286e-10
3.82875e-10
3.96477e-10
4.12442e-10
4.31174e-10
4.53131e-10
4.78941e-10
5.1e-10
1.47668e-10
1.48096e-10
1.48636e-10
1.4932e-10
1.50184e-10
1.51273e-10
1.52642e-10
1.54356e-10
1.56494e-10
1.59141e-10
1.62394e-10
1.66353e-10
1.71116e-10
1.76773e-10
1.83389e-10
1.90997e-10
1.99586e-10
2.09101e-10
2.19428e-10
2.30389e-10
2.4176e-10
2.5329e-10
2.64695e-10
2.75616e-10
2.85659e-10
2.94499e-10
3.01987e-10
3.08188e-10
3.13324e-10
3.1769e-10
3.21602e-10
3.25349e-10
3.29189e-10
3.33357e-10
3.38021e-10
3.43369e-10
3.49613e-10
3.56935e-10
3.65494e-10
3.75502e-10
3.87223e-10
4.00937e-10
4.16961e-10
4.35686e-10
4.57539e-10
4.82985e-10
5.12565e-10
5.4692e-10
5.86941e-10
6.34604e-10
1.49814e-10
1.50772e-10
1.5197e-10
1.53464e-10
1.55319e-10
1.57611e-10
1.60424e-10
1.63849e-10
1.67979e-10
1.72905e-10
1.78702e-10
1.85426e-10
1.93098e-10
2.01701e-10
2.11176e-10
2.21414e-10
2.32247e-10
2.43464e-10
2.54835e-10
2.66105e-10
2.76955e-10
2.87024e-10
2.95994e-10
3.03698e-10
3.10168e-10
3.15593e-10
3.20247e-10
3.24431e-10
3.28435e-10
3.32511e-10
3.36901e-10
3.41799e-10
3.47369e-10
3.53825e-10
3.61364e-10
3.70165e-10
3.80404e-10
3.92348e-10
4.06281e-10
4.22493e-10
4.41358e-10
4.63295e-10
4.88757e-10
5.18251e-10
5.52362e-10
5.9174e-10
6.37124e-10
6.89393e-10
7.49776e-10
8.21019e-10
1.54484e-10
1.56509e-10
1.58988e-10
1.62002e-10
1.65637e-10
1.69978e-10
1.75104e-10
1.81081e-10
1.87952e-10
1.95728e-10
2.04381e-10
2.1385e-10
2.24028e-10
2.34755e-10
2.45831e-10
2.57045e-10
2.68169e-10
2.78917e-10
2.88959e-10
2.97993e-10
3.05848e-10
3.12533e-10
3.1821e-10
3.23133e-10
3.27589e-10
3.31862e-10
3.36203e-10
3.40855e-10
3.4602e-10
3.51857e-10
3.58586e-10
3.66409e-10
3.75514e-10
3.86069e-10
3.98326e-10
4.12572e-10
4.29094e-10
4.48238e-10
4.70419e-10
4.96081e-10
5.2571e-10
5.59862e-10
5.99165e-10
6.44316e-10
6.96101e-10
7.55404e-10
8.23221e-10
9.00731e-10
9.89597e-10
1.09356e-09
1.63932e-10
1.67815e-10
1.72404e-10
1.77769e-10
1.83964e-10
1.91018e-10
1.98929e-10
2.07663e-10
2.17152e-10
2.27293e-10
2.37931e-10
2.48877e-10
2.59938e-10
2.70908e-10
2.8153e-10
2.91504e-10
3.00548e-10
3.08496e-10
3.15345e-10
3.2124e-10
3.26413e-10
3.3114e-10
3.35694e-10
3.40324e-10
3.45274e-10
3.50748e-10
3.56908e-10
3.6398e-10
3.72145e-10
3.81615e-10
3.92578e-10
4.05245e-10
4.1991e-10
4.36866e-10
4.56431e-10
4.79013e-10
5.05049e-10
5.35011e-10
5.69436e-10
6.08932e-10
6.54165e-10
7.05888e-10
7.64942e-10
8.32265e-10
9.08904e-10
9.9603e-10
1.09496e-09
1.20725e-09
1.3351e-09
1.48351e-09
1.80966e-10
1.87412e-10
1.94677e-10
2.02751e-10
2.11588e-10
2.21119e-10
2.3124e-10
2.41802e-10
2.52625e-10
2.63535e-10
2.74345e-10
2.84824e-10
2.94696e-10
3.03706e-10
3.11698e-10
3.18668e-10
3.24748e-10
3.30156e-10
3.35154e-10
3.40004e-10
3.44951e-10
3.50237e-10
3.56066e-10
3.62605e-10
3.70085e-10
3.78667e-10
3.88588e-10
4.00042e-10
4.13218e-10
4.28415e-10
4.45928e-10
4.66061e-10
4.89204e-10
5.15793e-10
5.46291e-10
5.81216e-10
6.21158e-10
6.66764e-10
7.18755e-10
7.7794e-10
8.4522e-10
9.21591e-10
1.00817e-09
1.10618e-09
1.217e-09
1.34215e-09
1.48334e-09
1.64259e-09
1.82277e-09
2.03046e-09
2.07248e-10
2.16205e-10
2.25791e-10
2.35903e-10
2.46395e-10
2.571e-10
2.6786e-10
2.78506e-10
2.88827e-10
2.98572e-10
3.07513e-10
3.15511e-10
3.22567e-10
3.28808e-10
3.3444e-10
3.39712e-10
3.44878e-10
3.50174e-10
3.55838e-10
3.62078e-10
3.69057e-10
3.77009e-10
3.86096e-10
3.96555e-10
4.08595e-10
4.2239e-10
4.38238e-10
4.56437e-10
4.77289e-10
5.01161e-10
5.2849e-10
5.5973e-10
5.95386e-10
6.36027e-10
6.82289e-10
7.34869e-10
7.94548e-10
8.62193e-10
9.38762e-10
1.02532e-09
1.12305e-09
1.23324e-09
1.35736e-09
1.49698e-09
1.65388e-09
1.82999e-09
2.02752e-09
2.24903e-09
2.49822e-09
2.78358e-09
2.41321e-10
2.51745e-10
2.62332e-10
2.7294e-10
2.83419e-10
2.93572e-10
3.03173e-10
3.12017e-10
3.19993e-10
3.27111e-10
3.33497e-10
3.39351e-10
3.44909e-10
3.50415e-10
3.56098e-10
3.62191e-10
3.689e-10
3.76391e-10
3.84896e-10
3.94579e-10
4.05669e-10
4.1839e-10
4.32938e-10
4.49565e-10
4.68589e-10
4.90316e-10
5.15093e-10
5.43352e-10
5.75549e-10
6.12173e-10
6.53779e-10
7.0099e-10
7.54483e-10
8.15012e-10
8.8342e-10
9.60633e-10
1.04768e-09
1.14568e-09
1.2559e-09
1.37971e-09
1.51864e-09
1.67435e-09
1.84869e-09
2.04369e-09
2.26158e-09
2.50482e-09
2.77615e-09
3.07881e-09
3.4175e-09
3.803e-09
2.78811e-10
2.89119e-10
2.99097e-10
3.0854e-10
3.17273e-10
3.25209e-10
3.32377e-10
3.38907e-10
3.4499e-10
3.50855e-10
3.56734e-10
3.62851e-10
3.69432e-10
3.76678e-10
3.8476e-10
3.93908e-10
4.04286e-10
4.16116e-10
4.29642e-10
4.45062e-10
4.62611e-10
4.82616e-10
5.05391e-10
5.31263e-10
5.60655e-10
5.94025e-10
6.3186e-10
6.74702e-10
7.2316e-10
7.77897e-10
8.39645e-10
9.09221e-10
9.87524e-10
1.07555e-09
1.17438e-09
1.28523e-09
1.40943e-09
1.54843e-09
1.70383e-09
1.87739e-09
2.07104e-09
2.2869e-09
2.52727e-09
2.79471e-09
3.09199e-09
3.42216e-09
3.78863e-09
4.19542e-09
4.64838e-09
5.16103e-09
3.14728e-10
3.23342e-10
3.31236e-10
3.38457e-10
3.4514e-10
3.51476e-10
3.57681e-10
3.63979e-10
3.70589e-10
3.77727e-10
3.85588e-10
3.94356e-10
4.04245e-10
4.15426e-10
4.28126e-10
4.4259e-10
4.59022e-10
4.77648e-10
4.98804e-10
5.22804e-10
5.49974e-10
5.80723e-10
6.15512e-10
6.54819e-10
6.99176e-10
7.49183e-10
8.05496e-10
8.68831e-10
9.39985e-10
1.01983e-09
1.10933e-09
1.20955e-09
1.32165e-09
1.4469e-09
1.58672e-09
1.74263e-09
1.91634e-09
2.10968e-09
2.32467e-09
2.56352e-09
2.82863e-09
3.12265e-09
3.44843e-09
3.8091e-09
4.2081e-09
4.64914e-09
5.13639e-09
5.67476e-09
6.27146e-09
6.94322e-09
3.45458e-10
3.52324e-10
3.58951e-10
3.65547e-10
3.72323e-10
3.79498e-10
3.87276e-10
3.95845e-10
4.05406e-10
4.16152e-10
4.28262e-10
4.41969e-10
4.57523e-10
4.75118e-10
4.95008e-10
5.175e-10
5.42923e-10
5.71606e-10
6.03947e-10
6.40409e-10
6.81468e-10
7.27646e-10
7.79533e-10
8.37778e-10
9.03082e-10
9.76225e-10
1.05807e-09
1.14955e-09
1.25169e-09
1.36564e-09
1.49262e-09
1.634e-09
1.79125e-09
1.966e-09
2.16002e-09
2.37525e-09
2.6138e-09
2.87797e-09
3.17027e-09
3.49341e-09
3.85037e-09
4.24436e-09
4.6789e-09
5.15779e-09
5.68516e-09
6.26552e-09
6.90388e-09
7.60617e-09
8.38117e-09
9.24931e-09
3.6759e-10
3.74642e-10
3.81976e-10
3.89805e-10
3.98326e-10
4.07711e-10
4.18186e-10
4.29921e-10
4.43105e-10
4.5798e-10
4.74787e-10
4.93729e-10
5.15072e-10
5.39109e-10
5.6618e-10
5.96619e-10
6.30811e-10
6.69219e-10
7.12322e-10
7.60639e-10
8.14755e-10
8.75311e-10
9.42996e-10
1.01857e-09
1.10289e-09
1.19686e-09
1.30149e-09
1.41789e-09
1.54726e-09
1.69092e-09
1.85031e-09
2.02699e-09
2.22268e-09
2.43922e-09
2.67866e-09
2.94319e-09
3.23522e-09
3.55734e-09
3.91238e-09
4.3034e-09
4.73372e-09
5.20694e-09
5.72696e-09
6.29798e-09
6.92458e-09
7.61169e-09
8.36468e-09
9.18951e-09
1.00932e-08
1.10864e-08
1.21937e-08
4.0179e-10
4.11168e-10
4.21504e-10
4.33036e-10
4.45913e-10
4.60336e-10
4.76554e-10
4.94807e-10
5.15299e-10
5.38311e-10
5.64126e-10
5.93088e-10
6.25546e-10
6.61875e-10
7.02535e-10
7.48013e-10
7.98818e-10
8.5553e-10
9.18787e-10
9.89275e-10
1.06775e-09
1.15503e-09
1.25204e-09
1.35974e-09
1.47923e-09
1.61167e-09
1.75835e-09
1.92067e-09
2.10015e-09
2.29845e-09
2.51737e-09
2.75885e-09
3.02502e-09
3.31818e-09
3.64082e-09
3.99564e-09
4.38557e-09
4.81377e-09
5.28365e-09
5.79892e-09
6.36355e-09
6.98185e-09
7.65846e-09
8.39838e-09
9.20703e-09
1.00902e-08
1.10543e-08
1.21062e-08
1.32543e-08
1.45111e-08
1.59061e-08
4.37625e-10
4.50363e-10
4.64556e-10
4.8041e-10
4.98176e-10
5.18092e-10
5.40363e-10
5.65281e-10
5.93141e-10
6.24272e-10
6.5904e-10
6.97816e-10
7.41057e-10
7.89261e-10
8.42936e-10
9.02652e-10
9.69048e-10
1.0428e-09
1.12466e-09
1.21543e-09
1.31603e-09
1.42741e-09
1.55063e-09
1.68685e-09
1.83732e-09
2.00339e-09
2.18656e-09
2.38843e-09
2.61075e-09
2.85541e-09
3.12445e-09
3.4201e-09
3.74476e-09
4.101e-09
4.49164e-09
4.91969e-09
5.38842e-09
5.90135e-09
6.46226e-09
7.07523e-09
7.74467e-09
8.47528e-09
9.27215e-09
1.01407e-08
1.10869e-08
1.2117e-08
1.32378e-08
1.44566e-08
1.57816e-08
1.72224e-08
1.87939e-08
2.05307e-08
5.03888e-10
5.23431e-10
5.45252e-10
5.69561e-10
5.96661e-10
6.26857e-10
6.60465e-10
6.97868e-10
7.39442e-10
7.85634e-10
8.36953e-10
8.93906e-10
9.5706e-10
1.02706e-09
1.10457e-09
1.19034e-09
1.28518e-09
1.38997e-09
1.50566e-09
1.6333e-09
1.77402e-09
1.92905e-09
2.09972e-09
2.28749e-09
2.49392e-09
2.7207e-09
2.96967e-09
3.24281e-09
3.54228e-09
3.87039e-09
4.22964e-09
4.62272e-09
5.05253e-09
5.5222e-09
6.03508e-09
6.59479e-09
7.20521e-09
7.87052e-09
8.59519e-09
9.38405e-09
1.02422e-08
1.11753e-08
1.21891e-08
1.329e-08
1.44849e-08
1.5781e-08
1.71862e-08
1.87088e-08
2.03582e-08
2.21456e-08
2.40882e-08
2.62266e-08
6.03667e-10
6.33262e-10
6.66116e-10
7.0255e-10
7.42949e-10
7.87704e-10
8.37258e-10
8.92122e-10
9.52813e-10
1.01989e-09
1.09399e-09
1.1758e-09
1.26605e-09
1.36555e-09
1.47517e-09
1.59586e-09
1.72864e-09
1.87463e-09
2.03505e-09
2.21119e-09
2.40448e-09
2.61646e-09
2.84877e-09
3.10322e-09
3.38172e-09
3.68635e-09
4.01937e-09
4.38318e-09
4.78039e-09
5.21379e-09
5.68639e-09
6.20141e-09
6.76231e-09
7.3728e-09
8.03687e-09
8.75877e-09
9.54308e-09
1.03947e-08
1.13188e-08
1.2321e-08
1.34074e-08
1.45842e-08
1.58583e-08
1.72371e-08
1.87282e-08
2.034e-08
2.20815e-08
2.39622e-08
2.59927e-08
2.81858e-08
3.05613e-08
3.31664e-08
7.51577e-10
7.95383e-10
8.43745e-10
8.97112e-10
9.55995e-10
1.02092e-09
1.09245e-09
1.17121e-09
1.25791e-09
1.35326e-09
1.45807e-09
1.57321e-09
1.69961e-09
1.8383e-09
1.99039e-09
2.15705e-09
2.33959e-09
2.53939e-09
2.75795e-09
2.9969e-09
3.25799e-09
3.5431e-09
3.85425e-09
4.19363e-09
4.56358e-09
4.9666e-09
5.40541e-09
5.8829e-09
6.40217e-09
6.96656e-09
7.57963e-09
8.24518e-09
8.9673e-09
9.75033e-09
1.05989e-08
1.15181e-08
1.2513e-08
1.35895e-08
1.47535e-08
1.60115e-08
1.73702e-08
1.88371e-08
2.04198e-08
2.21268e-08
2.39667e-08
2.5949e-08
2.80838e-08
3.03818e-08
3.28551e-08
3.5518e-08
3.83933e-08
4.15348e-08
9.666e-10
1.03003e-09
1.09974e-09
1.1763e-09
1.26034e-09
1.35257e-09
1.45369e-09
1.56451e-09
1.68592e-09
1.81883e-09
1.96425e-09
2.12329e-09
2.29712e-09
2.48701e-09
2.69434e-09
2.92058e-09
3.16733e-09
3.43629e-09
3.72931e-09
4.04836e-09
4.39557e-09
4.77321e-09
5.18374e-09
5.62977e-09
6.1141e-09
6.63973e-09
7.20986e-09
7.82793e-09
8.4976e-09
9.22277e-09
1.00076e-08
1.08566e-08
1.17744e-08
1.27662e-08
1.38372e-08
1.49932e-08
1.62402e-08
1.75849e-08
1.90339e-08
2.05947e-08
2.22749e-08
2.40829e-08
2.60274e-08
2.81178e-08
3.03639e-08
3.27762e-08
3.5366e-08
3.81454e-08
4.11276e-08
4.4329e-08
4.77751e-08
5.15275e-08
1.27329e-09
1.36328e-09
1.46173e-09
1.56936e-09
1.68697e-09
1.81545e-09
1.95571e-09
2.10876e-09
2.27569e-09
2.45767e-09
2.65595e-09
2.87189e-09
3.10695e-09
3.36269e-09
3.6408e-09
3.94307e-09
4.27146e-09
4.62801e-09
5.01497e-09
5.43471e-09
5.88977e-09
6.38288e-09
6.91693e-09
7.49504e-09
8.12051e-09
8.79687e-09
9.52787e-09
1.03175e-08
1.11701e-08
1.20901e-08
1.30824e-08
1.41521e-08
1.53046e-08
1.65457e-08
1.78815e-08
1.93186e-08
2.08639e-08
2.25245e-08
2.43084e-08
2.62237e-08
2.82792e-08
3.0484e-08
3.2848e-08
3.53815e-08
3.80955e-08
4.10018e-08
4.41126e-08
4.74415e-08
5.10031e-08
5.48154e-08
5.89075e-08
6.33486e-08
1.70265e-09
1.8279e-09
1.96432e-09
2.11286e-09
2.27449e-09
2.45031e-09
2.64149e-09
2.84926e-09
3.07498e-09
3.32007e-09
3.58608e-09
3.87467e-09
4.18761e-09
4.5268e-09
4.89427e-09
5.29219e-09
5.7229e-09
6.18885e-09
6.69271e-09
7.23728e-09
7.82558e-09
8.46082e-09
9.1464e-09
9.88596e-09
1.06833e-08
1.15426e-08
1.24682e-08
1.34647e-08
1.45369e-08
1.56902e-08
1.693e-08
1.8262e-08
1.96926e-08
2.12283e-08
2.28759e-08
2.46427e-08
2.65366e-08
2.85657e-08
3.07386e-08
3.30646e-08
3.55532e-08
3.82148e-08
4.10601e-08
4.41006e-08
4.73483e-08
5.08162e-08
5.45179e-08
5.84679e-08
6.26826e-08
6.71819e-08
7.1998e-08
7.72086e-08
2.46455e-09
2.65035e-09
2.85186e-09
3.07031e-09
3.30702e-09
3.56343e-09
3.84107e-09
4.14155e-09
4.46664e-09
4.81819e-09
5.19821e-09
5.60881e-09
6.05227e-09
6.53102e-09
7.04764e-09
7.60486e-09
8.20561e-09
8.853e-09
9.55034e-09
1.03011e-08
1.11091e-08
1.19782e-08
1.29126e-08
1.39168e-08
1.49954e-08
1.61535e-08
1.73963e-08
1.87293e-08
2.01585e-08
2.16901e-08
2.33306e-08
2.5087e-08
2.69666e-08
2.89771e-08
3.11266e-08
3.34239e-08
3.58779e-08
3.84982e-08
4.12948e-08
4.42786e-08
4.74605e-08
5.08527e-08
5.44674e-08
5.8318e-08
6.24185e-08
6.67838e-08
7.14296e-08
7.63738e-08
8.16383e-08
8.72589e-08
9.33218e-08
3.32298e-09
3.57202e-09
3.84113e-09
4.13181e-09
4.44569e-09
4.78449e-09
5.15004e-09
5.5443e-09
5.96938e-09
6.42748e-09
6.92099e-09
7.45242e-09
8.02445e-09
8.63994e-09
9.3019e-09
1.00135e-08
1.07783e-08
1.15997e-08
1.24816e-08
1.34281e-08
1.44434e-08
1.55321e-08
1.66989e-08
1.79489e-08
1.92874e-08
2.07201e-08
2.22528e-08
2.38919e-08
2.56439e-08
2.75158e-08
2.95149e-08
3.16489e-08
3.39259e-08
3.63544e-08
3.89435e-08