/*--------------------------------*- C++ -*----------------------------------*\
| =========                 |                                                 |
| \\      /  F ield         | OpenFOAM: The Open Source CFD Toolbox           |
|  \\    /   O peration     | Version:  v1706                                 |
|   \\  /    A nd           | Web:      www.OpenFOAM.com                      |
|    \\/     M anipulation  |                                                 |
\*---------------------------------------------------------------------------*/
FoamFile
{
    version     2.0;
    format      ascii;
    class       volScalarField;
    location    "3.9e-05";
    object      Mach;
}
// * * * * * * * * * * * * * * * * * * * * * * * * * * * * * * * * * * * * * //

dimensions      [0 0 0 0 0 0 0];


internalField   nonuniform List<scalar> 
30038
(
3.99498
3.99498
3.99498
3.99498
3.99498
3.99498
3.99498
3.99498
3.99498
3.99498
3.99498
3.99498
3.99498
3.99498
3.99498
3.99498
3.99498
3.99498
3.99498
3.99498
3.99498
3.99498
3.99498
3.99498
3.99498
3.99498
3.99498
3.99498
3.99498
3.99498
3.99498
3.99498
3.99498
3.99498
3.99498
3.99498
3.99498
3.99498
3.99498
3.99498
3.99498
3.99498
3.99498
3.99498
3.99498
3.99498
3.99498
3.99498
3.99498
3.99498
3.99498
3.99498
3.99498
3.99498
3.99498
3.99498
3.99498
3.99498
3.99498
3.99498
3.99498
3.99498
3.99498
3.99498
3.99498
3.99498
3.99498
3.99498
3.99498
3.99498
3.99498
3.99498
3.99498
3.99498
3.99498
3.99498
3.99498
3.99498
3.99498
3.99498
3.99498
3.99498
3.99498
3.99498
3.99498
3.99498
3.99498
3.99498
3.99498
3.99498
3.99498
3.99498
3.99498
3.99498
3.99498
3.99498
3.99498
3.99498
3.99498
3.99498
3.99498
3.99498
3.99498
3.99498
3.99498
3.99498
3.99498
3.99498
3.99498
3.99498
3.99498
3.99498
3.99498
3.99498
3.99498
3.99498
3.99498
3.99498
3.99498
3.99498
3.99498
3.99498
3.99498
3.99498
3.99498
3.99498
3.99498
3.99498
3.99498
3.99498
3.99498
3.99498
3.99498
3.99498
3.99498
3.99498
3.99498
3.99498
3.99498
3.99498
3.99498
3.99498
3.99498
3.99498
3.99498
3.99498
3.99498
3.99498
3.99498
3.99498
3.99498
3.99498
3.99498
3.99498
3.99498
3.99498
3.99498
3.99498
3.99498
3.99498
3.99498
3.99498
3.99498
3.99498
3.99498
3.99498
3.99498
3.99498
3.99498
3.99498
3.99498
3.99498
3.99498
3.99498
3.99498
3.99498
3.99498
3.99498
3.99498
3.99498
3.99498
3.99498
3.99498
3.99498
3.99498
3.99498
3.99498
3.99498
3.99498
3.99498
3.99498
3.99498
3.99498
3.99498
3.99498
3.99498
3.99498
3.99498
3.99498
3.99498
3.99498
3.99498
3.99498
3.99498
3.99498
3.99498
3.99498
3.99498
3.99498
3.99498
3.99498
3.99498
3.99498
3.99498
3.99498
3.99498
3.99498
3.99498
3.99498
3.99498
3.99498
3.99498
3.99498
3.99498
3.99498
3.99498
3.99498
3.99498
3.99498
3.99498
3.99498
3.99498
3.99498
3.99498
3.99498
3.99498
3.99498
3.99498
3.99498
3.99498
3.99498
3.99498
3.99498
3.99498
3.99498
3.99498
3.99498
3.99498
3.99498
3.99498
3.99498
3.99498
3.99498
3.99498
3.99498
3.99498
3.99498
3.99498
3.99498
3.99498
3.99498
3.99498
3.99498
3.99498
3.99498
3.99498
3.99498
3.99498
3.99498
3.99498
3.99498
3.99498
3.99498
3.99498
3.99498
3.99498
3.99498
3.99498
3.99498
3.99498
3.99498
3.99498
3.99498
3.99498
3.99498
3.99498
3.99498
3.99498
3.99498
3.99498
3.99498
3.99498
3.99498
3.99498
3.99498
3.99498
3.99498
3.99498
3.99498
3.99498
3.99498
3.99498
3.99498
3.99498
3.99498
3.99498
3.99498
3.99498
3.99498
3.99498
3.99498
3.99498
3.99498
3.99498
3.99498
3.99498
3.99498
3.99498
3.99498
3.99498
3.99498
3.99498
3.99498
3.99498
3.99498
3.99498
3.99498
3.99498
3.99498
3.99498
3.99498
3.99498
3.99498
3.99498
3.99498
3.99498
3.99498
3.99498
3.99498
3.99498
3.99498
3.99498
3.99498
3.99498
3.99498
3.99498
3.99498
3.99498
3.99498
3.99498
3.99498
3.99498
3.99498
3.99498
3.99498
3.99498
3.99498
3.99498
3.99498
3.99498
3.99498
3.99498
3.99498
3.99498
3.99498
3.99498
3.99498
3.99498
3.99498
3.99498
3.99498
3.99498
3.99498
3.99498
3.99498
3.99498
3.99498
3.99498
3.99498
3.99497
3.99497
3.99497
3.99498
3.99498
3.99498
3.99498
3.99498
3.99498
3.99498
3.99498
3.99498
3.99498
3.99498
3.99498
3.99498
3.99498
3.99498
3.99498
3.99498
3.99498
3.99498
3.99498
3.99498
3.99498
3.99498
3.99498
3.99498
3.99498
3.99498
3.99498
3.99498
3.99498
3.99498
3.99498
3.99498
3.99497
3.99497
3.99497
3.99497
3.99496
3.99496
3.99498
3.99498
3.99498
3.99498
3.99498
3.99498
3.99498
3.99498
3.99498
3.99498
3.99498
3.99498
3.99498
3.99498
3.99498
3.99498
3.99498
3.99498
3.99498
3.99498
3.99498
3.99498
3.99498
3.99498
3.99498
3.99498
3.99498
3.99498
3.99498
3.99498
3.99498
3.99497
3.99497
3.99497
3.99497
3.99496
3.99496
3.99495
3.99493
3.99491
3.99498
3.99498
3.99498
3.99498
3.99498
3.99498
3.99498
3.99498
3.99498
3.99498
3.99498
3.99498
3.99498
3.99498
3.99498
3.99498
3.99498
3.99498
3.99498
3.99498
3.99498
3.99498
3.99498
3.99498
3.99498
3.99498
3.99498
3.99498
3.99497
3.99497
3.99497
3.99497
3.99496
3.99496
3.99495
3.99494
3.99492
3.99489
3.99485
3.99479
3.99498
3.99498
3.99498
3.99498
3.99498
3.99498
3.99498
3.99498
3.99498
3.99498
3.99498
3.99498
3.99498
3.99498
3.99498
3.99498
3.99498
3.99498
3.99498
3.99498
3.99498
3.99498
3.99498
3.99498
3.99498
3.99497
3.99497
3.99497
3.99497
3.99496
3.99496
3.99495
3.99494
3.99492
3.99489
3.99486
3.9948
3.99473
3.99462
3.99445
3.99498
3.99498
3.99498
3.99498
3.99498
3.99498
3.99498
3.99498
3.99498
3.99498
3.99498
3.99498
3.99498
3.99498
3.99498
3.99498
3.99498
3.99498
3.99498
3.99498
3.99498
3.99497
3.99497
3.99497
3.99497
3.99497
3.99496
3.99496
3.99495
3.99494
3.99492
3.9949
3.99486
3.99481
3.99474
3.99464
3.99449
3.99428
3.99396
3.99351
3.99498
3.99498
3.99498
3.99498
3.99498
3.99498
3.99498
3.99498
3.99498
3.99498
3.99498
3.99498
3.99498
3.99498
3.99498
3.99498
3.99498
3.99498
3.99497
3.99497
3.99497
3.99497
3.99497
3.99496
3.99496
3.99495
3.99494
3.99492
3.99489
3.99486
3.99481
3.99474
3.99465
3.99451
3.99431
3.99403
3.99362
3.99304
3.99219
3.99095
3.99498
3.99498
3.99498
3.99498
3.99498
3.99498
3.99498
3.99498
3.99498
3.99498
3.99498
3.99498
3.99498
3.99498
3.99498
3.99497
3.99497
3.99497
3.99497
3.99497
3.99496
3.99496
3.99495
3.99493
3.99492
3.99489
3.99486
3.99481
3.99475
3.99465
3.99452
3.99433
3.99406
3.99368
3.99314
3.99238
3.99128
3.98971
3.98743
3.98416
3.99498
3.99498
3.99498
3.99498
3.99498
3.99498
3.99498
3.99498
3.99498
3.99498
3.99498
3.99497
3.99497
3.99497
3.99497
3.99497
3.99496
3.99496
3.99495
3.99494
3.99493
3.99491
3.99489
3.99486
3.99481
3.99474
3.99465
3.99452
3.99434
3.99408
3.99372
3.99321
3.99249
3.99147
3.99002
3.98798
3.98507
3.98093
3.97499
3.96654
3.99498
3.99498
3.99498
3.99498
3.99498
3.99498
3.99498
3.99498
3.99498
3.99497
3.99497
3.99497
3.99497
3.99497
3.99496
3.99496
3.99495
3.99494
3.99493
3.99491
3.99489
3.99485
3.9948
3.99474
3.99464
3.99451
3.99433
3.99408
3.99373
3.99324
3.99255
3.99159
3.99023
3.98832
3.98563
3.98185
3.97652
3.969
3.95842
3.94341
3.92247
3.99498
3.99498
3.99498
3.99498
3.99498
3.99497
3.99497
3.99497
3.99497
3.99497
3.99497
3.99496
3.99496
3.99495
3.99494
3.99492
3.99491
3.99488
3.99484
3.99479
3.99472
3.99463
3.9945
3.99432
3.99407
3.99372
3.99324
3.99257
3.99164
3.99035
3.98853
3.986
3.98247
3.97753
3.97062
3.96098
3.94754
3.92885
3.90303
3.86732
3.81913
3.99498
3.99498
3.99498
3.99497
3.99497
3.99497
3.99497
3.99497
3.99496
3.99496
3.99495
3.99495
3.99493
3.99492
3.9949
3.99487
3.99483
3.99478
3.99471
3.99461
3.99448
3.99429
3.99404
3.9937
3.99322
3.99256
3.99165
3.99038
3.98864
3.98622
3.98286
3.9782
3.97173
3.96277
3.95037
3.93327
3.90977
3.87773
3.8344
3.77671
3.70064
3.60421
3.99497
3.99497
3.99497
3.99497
3.99497
3.99497
3.99496
3.99496
3.99495
3.99494
3.99493
3.99491
3.99489
3.99486
3.99482
3.99476
3.99469
3.99458
3.99445
3.99426
3.994
3.99365
3.99316
3.9925
3.99159
3.99035
3.98864
3.98628
3.98304
3.97857
3.97242
3.96396
3.95233
3.93639
3.91464
3.88513
3.84546
3.79276
3.72389
3.63572
3.5259
3.39229
3.23846
3.99497
3.99497
3.99496
3.99496
3.99495
3.99495
3.99494
3.99492
3.9949
3.99488
3.99484
3.9948
3.99474
3.99466
3.99455
3.9944
3.99421
3.99394
3.99357
3.99308
3.9924
3.99149
3.99024
3.98854
3.98621
3.98303
3.97868
3.97274
3.96462
3.95354
3.93846
3.918
3.89042
3.85351
3.80467
3.74099
3.65956
3.55789
3.43458
3.28982
3.12654
2.9474
2.76275
3.99496
3.99496
3.99495
3.99494
3.99493
3.99491
3.99489
3.99486
3.99483
3.99478
3.99471
3.99462
3.99451
3.99435
3.99414
3.99385
3.99347
3.99296
3.99226
3.99132
3.99005
3.98833
3.986
3.98283
3.97854
3.97271
3.9648
3.95408
3.9396
3.92008
3.89391
3.85909
3.81323
3.75361
3.67749
3.58242
3.46682
3.33053
3.17541
3.0054
2.82561
2.64303
2.46254
2.29483
3.99494
3.99493
3.99492
3.9949
3.99488
3.99485
3.9948
3.99475
3.99468
3.99458
3.99445
3.99428
3.99405
3.99375
3.99334
3.9928
3.99207
3.99109
3.98978
3.98801
3.98564
3.98244
3.97813
3.97233
3.96451
3.95399
3.93987
3.92097
3.8958
3.86251
3.81887
3.76239
3.69046
3.60072
3.4915
3.36234
3.21451
3.05126
2.8773
2.69838
2.52097
2.35168
2.19767
2.0637
1.95563
3.99491
3.99489
3.99486
3.99482
3.99477
3.99471
3.99463
3.99452
3.99438
3.99419
3.99394
3.99361
3.99317
3.99259
3.99182
3.99078
3.98941
3.98757
3.98512
3.98184
3.97746
3.97159
3.96375
3.95328
3.93932
3.92076
3.89621
3.86394
3.82189
3.76773
3.69901
3.61348
3.50946
3.38632
3.2449
3.08786
2.91943
2.74467
2.56943
2.39989
2.24226
2.10275
1.98645
1.89618
1.82963
1.78321
3.99487
3.99483
3.99479
3.99474
3.99466
3.99457
3.99445
3.99429
3.99408
3.9938
3.99344
3.99296
3.99233
3.99149
3.99039
3.98893
3.98699
3.98442
3.98101
3.97649
3.97048
3.9625
3.95192
3.93792
3.91945
3.89518
3.86349
3.82245
3.76988
3.70351
3.62119
3.5213
3.40311
3.26721
3.11576
2.95252
2.78214
2.60983
2.44117
2.28196
2.13786
2.01431
1.91493
1.84006
1.78676
1.75086
1.72736
1.71226
3.99469
3.9946
3.9945
3.99436
3.99417
3.99393
3.99362
3.99322
3.99269
3.99199
3.99108
3.98988
3.98831
3.98624
3.98351
3.97991
3.97518
3.96893
3.9607
3.94987
3.93565
3.91701
3.89269
3.86116
3.82061
3.769
3.70418
3.62417
3.52741
3.41318
3.28188
3.13536
2.97691
2.81088
2.64192
2.47513
2.31578
2.16907
2.04022
1.93351
1.85059
1.78997
1.74793
1.72007
1.70221
1.69117
1.68479
1.68123
3.99453
3.9944
3.99424
3.99402
3.99375
3.9934
3.99294
3.99234
3.99157
3.99056
3.98924
3.98752
3.98528
3.98234
3.9785
3.97347
3.9669
3.9583
3.94706
3.9324
3.91335
3.88868
3.85692
3.81636
3.76509
3.70112
3.62259
3.52806
3.41685
3.28928
3.14698
2.99288
2.83097
2.66559
2.50131
2.3429
2.1952
2.06296
1.95067
1.86094
1.79351
1.74554
1.71301
1.69182
1.67852
1.67057
1.66614
1.66406
1.66365
1.66426
3.99383
3.99352
3.99311
3.99258
3.9919
3.99103
3.9899
3.98843
3.98653
3.98406
3.98086
3.9767
3.9713
3.96428
3.95517
3.94336
3.92807
3.90835
3.883
3.85062
3.80959
3.7581
3.69431
3.61649
3.52336
3.4143
3.28965
3.15087
3.00063
2.84258
2.68083
2.51948
2.36286
2.21538
2.08138
1.96521
1.87008
1.79672
1.74326
1.7062
1.68157
1.66581
1.65613
1.6506
1.64789
1.647
1.64725
1.64844
1.64966
1.65161
3.99213
3.99135
3.99035
3.98906
3.9874
3.98527
3.98253
3.979
3.97444
3.96856
3.96097
3.9512
3.93863
3.92249
3.90181
3.87546
3.84207
3.8001
3.74784
3.68359
3.60579
3.5133
3.40562
3.28312
3.14719
3.00032
2.84587
2.6877
2.52953
2.37531
2.229
2.0946
1.97612
1.87703
1.79882
1.74051
1.69921
1.67123
1.65301
1.64163
1.63494
1.63135
1.62991
1.62986
1.63097
1.63218
1.63405
1.63645
1.6389
1.64141
3.98799
3.9861
3.98369
3.9806
3.97665
3.97158
3.9651
3.95681
3.9462
3.93266
3.91541
3.89349
3.86579
3.83098
3.78758
3.73402
3.66872
3.59028
3.49773
3.39072
3.2697
3.13604
2.99208
2.84095
2.68624
2.53144
2.38006
2.23569
2.10197
1.98255
1.8809
1.79904
1.73671
1.69165
1.66056
1.63996
1.62687
1.61891
1.61457
1.61263
1.61233
1.61294
1.61452
1.61606
1.61839
1.62097
1.62364
1.62637
1.62933
1.63217
3.97815
3.97368
3.968
3.96077
3.95159
3.93994
3.92518
3.90654
3.88305
3.85362
3.81695
3.77166
3.71626
3.64933
3.56963
3.47639
3.36944
3.24931
3.11741
2.97596
2.82791
2.67658
2.52526
2.37707
2.23524
2.10307
1.98388
1.88096
1.79664
1.73123
1.68307
1.64924
1.62646
1.61173
1.60266
1.59748
1.595
1.59427
1.5948
1.59612
1.59785
1.59998
1.60268
1.60539
1.60823
1.61119
1.61426
1.61727
1.62031
1.62321
3.95532
3.94504
3.93211
3.91586
3.89549
3.87007
3.83848
3.7995
3.75181
3.69404
3.62492
3.54341
3.44892
3.34148
3.22177
3.09121
2.95195
2.8068
2.65882
2.51107
2.36634
2.22756
2.09766
1.97967
1.87665
1.79102
1.72353
1.67301
1.63694
1.61227
1.59607
1.58594
1.57999
1.577
1.57598
1.57631
1.57745
1.57939
1.58129
1.58392
1.58678
1.58968
1.59265
1.59584
1.59903
1.60218
1.60532
1.60839
1.61145
1.61438
3.90423
3.88178
3.85399
3.8198
3.77802
3.72741
3.66674
3.5949
3.51107
3.41486
3.30651
3.18683
3.0573
2.92003
2.77766
2.63303
2.48897
2.34796
2.21263
2.08563
1.96967
1.86756
1.78172
1.71314
1.66106
1.62332
1.59716
1.57975
1.56868
1.56206
1.55857
1.5573
1.55738
1.55848
1.5602
1.56234
1.56484
1.56786
1.57079
1.57386
1.57705
1.58036
1.58363
1.58691
1.59017
1.59337
1.59654
1.59965
1.60274
1.60571
3.79685
3.75174
3.69769
3.63361
3.55857
3.47197
3.37367
3.2641
3.14421
3.01554
2.88015
2.74054
2.59934
2.45909
2.32207
2.19058
2.06699
1.95376
1.85346
1.76839
1.69968
1.64686
1.60812
1.58091
1.56257
1.55075
1.54362
1.53973
1.53817
1.53812
1.5391
1.54083
1.54313
1.54542
1.5484
1.55152
1.55467
1.55788
1.56131
1.56473
1.56813
1.57152
1.57487
1.57819
1.58147
1.58472
1.58792
1.59108
1.5942
1.59721
3.59379
3.51512
3.42541
3.32476
3.2138
3.09361
2.96577
2.83228
2.69552
2.55788
2.42165
2.28886
2.16156
2.04186
1.93198
1.83425
1.75083
1.6829
1.63016
1.59106
1.56331
1.54439
1.53208
1.52455
1.52035
1.51857
1.51846
1.51939
1.52103
1.52331
1.52579
1.52871
1.532
1.53516
1.53846
1.54192
1.54545
1.54895
1.55247
1.55598
1.55944
1.56287
1.56626
1.56963
1.57296
1.57624
1.57949
1.58269
1.58586
1.58891
3.26754
3.15518
3.03475
2.90784
2.77642
2.6427
2.50883
2.37686
2.24858
2.12581
2.01044
1.90445
1.80997
1.72901
1.66267
1.61079
1.572
1.54421
1.5251
1.51255
1.50479
1.50042
1.4985
1.49835
1.49922
1.50087
1.50316
1.50581
1.50862
1.51198
1.51531
1.5187
1.52217
1.52583
1.52946
1.53309
1.53672
1.54031
1.54388
1.54742
1.55093
1.5544
1.55785
1.56126
1.56464
1.56797
1.57127
1.5745
1.57771
1.5808
2.84171
2.71265
2.58226
2.45246
2.32504
2.20157
2.08366
1.97301
1.8714
1.78079
1.70297
1.63899
1.58869
1.55083
1.52352
1.50461
1.49209
1.48429
1.47991
1.47795
1.47777
1.47866
1.48033
1.48268
1.4855
1.48821
1.49161
1.49513
1.49859
1.50212
1.50585
1.50961
1.51334
1.5171
1.52083
1.52453
1.5282
1.53185
1.53547
1.53906
1.54261
1.54614
1.54964
1.5531
1.55652
1.5599
1.56324
1.56652
1.56976
1.57289
2.38909
2.26654
2.14819
2.03548
1.92994
1.83316
1.74695
1.67292
1.61196
1.56388
1.52754
1.50119
1.48285
1.47065
1.46303
1.45877
1.45687
1.45672
1.45772
1.45945
1.46182
1.4646
1.46763
1.47097
1.47464
1.47816
1.48179
1.48557
1.48943
1.49326
1.49713
1.50099
1.50481
1.50862
1.5124
1.51616
1.51989
1.52359
1.52726
1.5309
1.53451
1.53809
1.54164
1.54515
1.54862
1.55204
1.55542
1.55874
1.56201
1.56517
1.98175
1.88167
1.79015
1.70884
1.63915
1.58179
1.53651
1.5022
1.47725
1.45983
1.44822
1.44098
1.43696
1.43522
1.43521
1.43635
1.43816
1.44057
1.44343
1.44664
1.44997
1.45374
1.45743
1.46114
1.46495
1.46893
1.47289
1.47686
1.48083
1.48477
1.4887
1.4926
1.49649
1.50035
1.50419
1.508
1.51178
1.51554
1.51927
1.52297
1.52663
1.53026
1.53386
1.53741
1.54092
1.54439
1.5478
1.55115
1.55446
1.55765
1.66691
1.60205
1.54879
1.50679
1.47497
1.45179
1.4356
1.42482
1.41814
1.41451
1.41303
1.41321
1.41452
1.41644
1.41896
1.42194
1.42531
1.42864
1.43247
1.43635
1.44016
1.44403
1.44811
1.45218
1.45624
1.46034
1.46441
1.46846
1.47249
1.47649
1.48047
1.48444
1.48838
1.4923
1.49619
1.50006
1.5039
1.50772
1.5115
1.51525
1.51897
1.52265
1.52629
1.52989
1.53344
1.53694
1.54039
1.54377
1.54711
1.55033
1.47504
1.44604
1.42495
1.41026
1.40051
1.39454
1.39143
1.39031
1.39073
1.39228
1.39435
1.39697
1.40011
1.40349
1.4071
1.41094
1.41497
1.41887
1.42284
1.42699
1.43117
1.43533
1.43953
1.44372
1.44788
1.45203
1.45616
1.46027
1.46436
1.46843
1.47247
1.47649
1.4805
1.48447
1.48843
1.49235
1.49625
1.50012
1.50395
1.50776
1.51152
1.51525
1.51893
1.52257
1.52616
1.5297
1.53318
1.53659
1.53996
1.5432
1.39693
1.38392
1.37538
1.37027
1.36776
1.36708
1.36782
1.36962
1.37187
1.37464
1.37794
1.38143
1.38521
1.3891
1.39323
1.39729
1.40135
1.40557
1.40986
1.41413
1.41844
1.42273
1.42701
1.43127
1.43552
1.43974
1.44395
1.44815
1.45232
1.45647
1.46059
1.4647
1.46878
1.47284
1.47688
1.48089
1.48487
1.48882
1.49274
1.49663
1.50048
1.50429
1.50806
1.51178
1.51546
1.51909
1.52266
1.52617
1.52961
1.533
1.53626
1.34538
1.34355
1.34337
1.34449
1.34656
1.34904
1.35197
1.35543
1.35907
1.36299
1.367
1.37123
1.37542
1.37958
1.38386
1.38826
1.39264
1.39704
1.40145
1.40584
1.41022
1.41458
1.41892
1.42324
1.42755
1.43183
1.43611
1.44036
1.44459
1.4488
1.45299
1.45716
1.4613
1.46542
1.46951
1.47358
1.47761
1.48161
1.48558
1.48952
1.49341
1.49727
1.50108
1.50484
1.50856
1.51222
1.51582
1.51936
1.52282
1.52623
1.52951
1.31924
1.32077
1.32313
1.32584
1.32896
1.33258
1.33639
1.34041
1.34462
1.34896
1.35326
1.35752
1.36188
1.36639
1.37088
1.37537
1.37988
1.38438
1.38887
1.39334
1.3978
1.40224
1.40666
1.41106
1.41544
1.41981
1.42416
1.42849
1.43281
1.4371
1.44137
1.44562
1.44985
1.45405
1.45822
1.46237
1.46648
1.47057
1.47462
1.47864
1.48262
1.48656
1.49046
1.49431
1.49811
1.50185
1.50555
1.50917
1.51274
1.51623
1.51965
1.52295
1.3023
1.30563
1.30943
1.31342
1.31756
1.32194
1.32639
1.33078
1.33519
1.33963
1.34425
1.34884
1.35343
1.35805
1.36266
1.36725
1.37182
1.37639
1.38094
1.38547
1.38999
1.39449
1.39897
1.40344
1.40788
1.41231
1.41673
1.42112
1.42549
1.42985
1.43418
1.43848
1.44276
1.44702
1.45125
1.45545
1.45961
1.46375
1.46785
1.47191
1.47594
1.47992
1.48385
1.48774
1.49157
1.49535
1.49907
1.50273
1.50631
1.50982
1.51326
1.51657
1.29016
1.29445
1.29895
1.30355
1.30805
1.31258
1.31714
1.32184
1.32654
1.33122
1.33594
1.34066
1.34536
1.35004
1.35471
1.35937
1.36401
1.36863
1.37324
1.37784
1.38242
1.38698
1.39152
1.39605
1.40056
1.40505
1.40953
1.41398
1.41841
1.42282
1.42721
1.43157
1.43591
1.44021
1.44449
1.44874
1.45296
1.45714
1.46129
1.46539
1.46946
1.47348
1.47745
1.48137
1.48524
1.48905
1.49279
1.49647
1.50008
1.5036
1.50705
1.51036
1.28046
1.28507
1.2897
1.29438
1.29919
1.30398
1.30877
1.31359
1.3184
1.3232
1.32799
1.33277
1.33753
1.34228
1.34701
1.35173
1.35643
1.36111
1.36579
1.37044
1.37508
1.37971
1.38432
1.3889
1.39347
1.39802
1.40256
1.40707
1.41156
1.41602
1.42046
1.42488
1.42927
1.43363
1.43796
1.44225
1.44652
1.45075
1.45493
1.45908
1.46319
1.46725
1.47125
1.47521
1.4791
1.48294
1.48671
1.4904
1.49402
1.49756
1.50101
1.50434
1.27138
1.27629
1.28118
1.28607
1.291
1.29591
1.30081
1.3057
1.31057
1.31544
1.32029
1.32512
1.32995
1.33476
1.33955
1.34433
1.34909
1.35384
1.35857
1.36329
1.36799
1.37267
1.37734
1.38199
1.38662
1.39123
1.39581
1.40038
1.40492
1.40944
1.41394
1.41841
1.42284
1.42725
1.43163
1.43598
1.44028
1.44456
1.44879
1.45297
1.45712
1.46121
1.46525
1.46923
1.47315
1.47701
1.4808
1.48452
1.48815
1.49169
1.49515
1.49848
1.26314
1.26817
1.27317
1.27817
1.28316
1.28814
1.2931
1.29805
1.30299
1.30791
1.31282
1.31772
1.3226
1.32747
1.33233
1.33717
1.34199
1.3468
1.35159
1.35637
1.36113
1.36587
1.3706
1.3753
1.37999
1.38465
1.38929
1.39391
1.39851
1.40308
1.40763
1.41215
1.41663
1.42109
1.42552
1.4299
1.43426
1.43857
1.44284
1.44706
1.45124
1.45536
1.45943
1.46344
1.46739
1.47127
1.47508
1.4788
1.48245
1.486
1.48946
1.49278
1.2553
1.2604
1.26547
1.27053
1.27558
1.28062
1.28564
1.29065
1.29565
1.30063
1.3056
1.31056
1.3155
1.32043
1.32534
1.33024
1.33512
1.33999
1.34484
1.34968
1.3545
1.3593
1.36408
1.36884
1.37358
1.3783
1.38299
1.38766
1.39231
1.39694
1.40153
1.4061
1.41063
1.41513
1.4196
1.42403
1.42843
1.43278
1.43708
1.44134
1.44555
1.44971
1.45381
1.45784
1.46181
1.46571
1.46953
1.47326
1.47692
1.48046
1.48392
1.48724
1.25288
1.25802
1.26314
1.26824
1.27334
1.27842
1.28349
1.28855
1.29359
1.29862
1.30363
1.30863
1.31362
1.31859
1.32355
1.32849
1.33341
1.33832
1.34321
1.34809
1.35294
1.35778
1.36259
1.36738
1.37215
1.3769
1.38163
1.38632
1.391
1.39564
1.40025
1.40483
1.40938
1.41389
1.41836
1.42279
1.42718
1.43152
1.43581
1.44005
1.44423
1.44836
1.45241
1.4564
1.46031
1.46414
1.46789
1.47154
1.47509
1.47854
1.48184
1.24561
1.2508
1.25598
1.26115
1.2663
1.27144
1.27657
1.28168
1.28678
1.29187
1.29694
1.302
1.30704
1.31207
1.31708
1.32208
1.32706
1.33202
1.33697
1.34189
1.3468
1.35169
1.35656
1.3614
1.36622
1.37102
1.37579
1.38054
1.38526
1.38995
1.3946
1.39923
1.40382
1.40837
1.41288
1.41735
1.42177
1.42614
1.43046
1.43473
1.43894
1.44308
1.44716
1.45116
1.45508
1.45892
1.46267
1.46632
1.46986
1.4733
1.47659
1.23858
1.24383
1.24906
1.25429
1.2595
1.26469
1.26988
1.27504
1.2802
1.28534
1.29047
1.29559
1.30068
1.30577
1.31084
1.31589
1.32092
1.32594
1.33094
1.33592
1.34088
1.34581
1.35073
1.35563
1.3605
1.36534
1.37016
1.37496
1.37972
1.38445
1.38915
1.39382
1.39844
1.40303
1.40758
1.41208
1.41654
1.42094
1.42529
1.42958
1.43381
1.43797
1.44206
1.44608
1.45001
1.45385
1.4576
1.46124
1.46477
1.4682
1.47146
1.23709
1.24238
1.24766
1.25292
1.25817
1.26341
1.26864
1.27385
1.27904
1.28423
1.28939
1.29455
1.29968
1.3048
1.30991
1.315
1.32006
1.32511
1.33014
1.33515
1.34014
1.34511
1.35005
1.35497
1.35986
1.36473
1.36957
1.37437
1.37915
1.38389
1.38859
1.39326
1.39788
1.40246
1.407
1.41148
1.41591
1.42029
1.4246
1.42885
1.43302
1.43712
1.44115
1.44508
1.44892
1.45266
1.4563
1.45982
1.46322
1.46646
1.23058
1.23592
1.24125
1.24657
1.25188
1.25717
1.26245
1.26771
1.27296
1.2782
1.28342
1.28862
1.29381
1.29898
1.30414
1.30928
1.3144
1.3195
1.32457
1.32963
1.33467
1.33968
1.34467
1.34964
1.35458
1.35948
1.36436
1.36921
1.37403
1.3788
1.38355
1.38825
1.3929
1.39752
1.40208
1.40659
1.41105
1.41544
1.41977
1.42403
1.42822
1.43233
1.43636
1.44029
1.44413
1.44786
1.45148
1.45498
1.45835
1.46156
1.22429
1.22969
1.23507
1.24044
1.2458
1.25114
1.25647
1.26179
1.26709
1.27238
1.27765
1.28291
1.28814
1.29337
1.29857
1.30376
1.30893
1.31407
1.3192
1.32431
1.32939
1.33445
1.33948
1.34449
1.34947
1.35442
1.35934
1.36423
1.36908
1.3739
1.37867
1.38341
1.38809
1.39274
1.39732
1.40186
1.40634
1.41075
1.41509
1.41937
1.42357
1.42768
1.4317
1.43563
1.43946
1.44318
1.44678
1.45025
1.45359
1.45676
1.21822
1.22367
1.2291
1.23452
1.23993
1.24533
1.25071
1.25607
1.26143
1.26676
1.27208
1.27739
1.28268
1.28795
1.2932
1.29844
1.30365
1.30884
1.31402
1.31917
1.3243
1.3294
1.33448
1.33953
1.34455
1.34954
1.3545
1.35942
1.36431
1.36916
1.37396
1.37873
1.38344
1.38811
1.39272
1.39728
1.40177
1.4062
1.41056
1.41484
1.41904
1.42315
1.42717
1.43109
1.43491
1.4386
1.44218
1.44562
1.44892
1.45205
1.21236
1.21786
1.22334
1.22881
1.23427
1.23971
1.24514
1.25056
1.25596
1.26135
1.26671
1.27207
1.2774
1.28272
1.28802
1.2933
1.29856
1.3038
1.30902
1.31421
1.31938
1.32453
1.32965
1.33474
1.3398
1.34482
1.34982
1.35478
1.3597
1.36458
1.36941
1.37421
1.37895
1.38364
1.38827
1.39284
1.39735
1.40179
1.40615
1.41044
1.41464
1.41875
1.42276
1.42666
1.43045
1.43413
1.43767
1.44107
1.44433
1.4474
1.2067
1.21225
1.21778
1.2233
1.22881
1.2343
1.23978
1.24524
1.25069
1.25612
1.26154
1.26693
1.27232
1.27768
1.28302
1.28835
1.29365
1.29894
1.3042
1.30943
1.31464
1.31983
1.32499
1.33011
1.33521
1.34027
1.3453
1.35029
1.35524
1.36015
1.36501
1.36983
1.37459
1.3793
1.38395
1.38853
1.39305
1.3975
1.40186
1.40615
1.41034
1.41444
1.41844
1.42232
1.42609
1.42973
1.43324
1.43659
1.4398
1.44282
1.20124
1.20684
1.21242
1.21798
1.22354
1.22908
1.2346
1.24011
1.2456
1.25108
1.25654
1.26198
1.26741
1.27282
1.27821
1.28357
1.28892
1.29424
1.29954
1.30482
1.31007
1.31529
1.32049
1.32565
1.33078
1.33588
1.34093
1.34595
1.35093
1.35587
1.36075
1.36559
1.37037
1.37509
1.37975
1.38435
1.38887
1.39332
1.39769
1.40197
1.40615
1.41023
1.41421
1.41807
1.42181
1.42541
1.42887
1.43218
1.43533
1.43828
1.20162
1.20724
1.21286
1.21845
1.22404
1.22961
1.23516
1.2407
1.24622
1.25172
1.25721
1.26268
1.26813
1.27356
1.27897
1.28435
1.28972
1.29506
1.30037
1.30566
1.31091
1.31614
1.32134
1.3265
1.33162
1.33671
1.34176
1.34676
1.35171
1.35662
1.36147
1.36627
1.371
1.37567
1.38027
1.3848
1.38925
1.39361
1.39787
1.40204
1.40611
1.41006
1.41388
1.41758
1.42114
1.42455
1.4278
1.43089
1.43377
1.19658
1.20225
1.20791
1.21355
1.21918
1.22479
1.23039
1.23597
1.24153
1.24708
1.25261
1.25811
1.2636
1.26907
1.27452
1.27994
1.28535
1.29072
1.29607
1.30139
1.30668
1.31194
1.31717
1.32236
1.32751
1.33262
1.33769
1.34271
1.34769
1.35261
1.35747
1.36228
1.36702
1.3717
1.3763
1.38082
1.38526
1.38961
1.39386
1.39801
1.40205
1.40597
1.40976
1.41341
1.41692
1.42027
1.42346
1.42647
1.42927
1.19173
1.19744
1.20314
1.20882
1.21449
1.22014
1.22578
1.2314
1.23701
1.24259
1.24816
1.25371
1.25924
1.26474
1.27023
1.27569
1.28112
1.28653
1.29191
1.29727
1.30259
1.30787
1.31313
1.31834
1.32352
1.32865
1.33374
1.33878
1.34377
1.3487
1.35358
1.35839
1.36314
1.36781
1.37241
1.37693
1.38135
1.38569
1.38992
1.39404
1.39804
1.40192
1.40567
1.40927
1.41272
1.41601
1.41912
1.42205
1.42476
1.19279
1.19853
1.20426
1.20997
1.21566
1.22134
1.227
1.23264
1.23827
1.24387
1.24946
1.25502
1.26056
1.26608
1.27157
1.27704
1.28248
1.28789
1.29327
1.29862
1.30393
1.30921
1.31445
1.31965
1.3248
1.3299
1.33496
1.33996
1.3449
1.34978
1.3546
1.35934
1.36401
1.3686
1.3731
1.37751
1.38182
1.38602
1.39011
1.39408
1.39791
1.40161
1.40515
1.40853
1.41175
1.41477
1.41762
1.42023
1.18831
1.19409
1.19985
1.2056
1.21133
1.21705
1.22275
1.22843
1.23409
1.23973
1.24535
1.25094
1.25652
1.26207
1.26759
1.27309
1.27856
1.284
1.2894
1.29478
1.30011
1.30541
1.31067
1.31588
1.32105
1.32616
1.33123
1.33623
1.34118
1.34606
1.35088
1.35562
1.36028
1.36485
1.36933
1.37372
1.378
1.38216
1.38621
1.39013
1.39391
1.39755
1.40103
1.40434
1.40747
1.41041
1.41315
1.41566
1.1898
1.1956
1.20138
1.20715
1.2129
1.21864
1.22435
1.23004
1.23572
1.24137
1.247
1.2526
1.25818
1.26374
1.26926
1.27475
1.28022
1.28565
1.29104
1.29639
1.30171
1.30698
1.31221
1.31738
1.32251
1.32758
1.33259
1.33754
1.34241
1.34722
1.35195
1.35659
1.36114
1.3656
1.36995
1.3742
1.37832
1.38233
1.38619
1.38992
1.39349
1.39689
1.40012
1.40317
1.40601
1.40865
1.41104
1.18565
1.19149
1.19731
1.20311
1.2089
1.21466
1.22041
1.22613
1.23184
1.23752
1.24318
1.24881
1.25441
1.25999
1.26554
1.27106
1.27654
1.28199
1.2874
1.29277
1.2981
1.30338
1.30862
1.3138
1.31893
1.324
1.32901
1.33395
1.33882
1.34361
1.34831
1.35293
1.35746
1.36189
1.36621
1.37041
1.37449
1.37844
1.38225
1.38591
1.3894
1.39273
1.39587
1.39882
1.40156
1.40408
1.40635
1.18751
1.19337
1.1992
1.20502
1.21081
1.21659
1.22234
1.22808
1.23378
1.23947
1.24512
1.25075
1.25635
1.26192
1.26746
1.27296
1.27843
1.28385
1.28923
1.29457
1.29986
1.3051
1.31028
1.31541
1.32047
1.32547
1.3304
1.33525
1.34003
1.34471
1.34931
1.3538
1.35819
1.36247
1.36663
1.37065
1.37454
1.37829
1.38187
1.38529
1.38852
1.39157
1.39441
1.39703
1.39944
1.40157
1.18367
1.18955
1.19541
1.20126
1.20708
1.21288
1.21866
1.22442
1.23015
1.23586
1.24154
1.24719
1.25281
1.2584
1.26395
1.26946
1.27494
1.28037
1.28576
1.2911
1.29639
1.30163
1.30681
1.31193
1.31699
1.32198
1.32689
1.33172
1.33647
1.34113
1.34569
1.35015
1.3545
1.35872
1.36283
1.36679
1.37062
1.37428
1.37779
1.38111
1.38425
1.38719
1.38992
1.39243
1.39469
1.39669
1.17993
1.18584
1.19173
1.19761
1.20346
1.20928
1.21509
1.22087
1.22662
1.23235
1.23805
1.24371
1.24935
1.25494
1.26051
1.26603
1.27151
1.27695
1.28234
1.28769
1.29298
1.29821
1.30338
1.30849
1.31353
1.3185
1.32339
1.3282
1.33292
1.33755
1.34207
1.34648
1.35078
1.35495
1.35899
1.36289
1.36664
1.37023
1.37364
1.37687
1.37991
1.38274
1.38534
1.38771
1.38984
1.39169
1.17631
1.18225
1.18816
1.19405
1.19993
1.20578
1.2116
1.2174
1.22317
1.22891
1.23463
1.2403
1.24595
1.25156
1.25712
1.26265
1.26814
1.27358
1.27897
1.28431
1.28959
1.29482
1.29998
1.30507
1.31009
1.31504
1.3199
1.32468
1.32936
1.33395
1.33843
1.34279
1.34703
1.35114
1.35512
1.35894
1.36261
1.3661
1.36942
1.37255
1.37547
1.37818
1.38065
1.38288
1.38486
1.38655
1.17278
1.17874
1.18468
1.19059
1.19649
1.20235
1.20819
1.21401
1.21979
1.22554
1.23126
1.23695
1.2426
1.24822
1.25379
1.25932
1.26481
1.27024
1.27563
1.28096
1.28623
1.29144
1.29658
1.30166
1.30666
1.31157
1.3164
1.32114
1.32579
1.33032
1.33475
1.33905
1.34323
1.34728
1.35117
1.35492
1.35849
1.3619
1.36511
1.36812
1.37092
1.3735
1.37584
1.37792
1.37974
1.38126
1.16934
1.17532
1.18128
1.18721
1.19311
1.19899
1.20485
1.21067
1.21647
1.22223
1.22796
1.23365
1.23931
1.24492
1.2505
1.25602
1.2615
1.26693
1.27231
1.27762
1.28288
1.28807
1.29319
1.29824
1.3032
1.30809
1.31288
1.31757
1.32217
1.32665
1.33102
1.33526
1.33937
1.34334
1.34715
1.35081
1.35429
1.35759
1.36069
1.36358
1.36625
1.36869
1.37088
1.37281
1.37446
1.3758
1.16598
1.17197
1.17794
1.18388
1.1898
1.19569
1.20156
1.20739
1.21319
1.21896
1.22469
1.23039
1.23604
1.24165
1.24722
1.25274
1.25821
1.26363
1.26899
1.27429
1.27952
1.28468
1.28978
1.29479
1.29972
1.30456
1.30931
1.31396
1.3185
1.32292
1.32723
1.3314
1.33543
1.33932
1.34304
1.3466
1.34998
1.35316
1.35614
1.35891
1.36144
1.36374
1.36577
1.36753
1.36901
1.37017
1.16868
1.17466
1.18062
1.18654
1.19244
1.19831
1.20415
1.20995
1.21572
1.22145
1.22715
1.2328
1.2384
1.24396
1.24947
1.25492
1.26032
1.26566
1.27093
1.27614
1.28128
1.28633
1.29131
1.2962
1.301
1.30569
1.31028
1.31476
1.31912
1.32336
1.32745
1.3314
1.33519
1.33882
1.34228
1.34554
1.34861
1.35146
1.35409
1.35648
1.35862
1.36049
1.36208
1.36338
1.36434
1.16544
1.17143
1.17739
1.18332
1.18923
1.1951
1.20094
1.20674
1.21251
1.21823
1.22392
1.22956
1.23515
1.24069
1.24618
1.25162
1.257
1.26231
1.26755
1.27273
1.27783
1.28285
1.28778
1.29262
1.29736
1.302
1.30654
1.31095
1.31523
1.31939
1.3234
1.32726
1.33096
1.33448
1.33782
1.34097
1.34391
1.34663
1.34912
1.35135
1.35333
1.35503
1.35644
1.35755
1.35831
1.16224
1.16823
1.1742
1.18013
1.18603
1.1919
1.19774
1.20354
1.20929
1.21501
1.22068
1.22631
1.23189
1.23741
1.24288
1.24829
1.25364
1.25892
1.26413
1.26927
1.27433
1.2793
1.28418
1.28897
1.29366
1.29823
1.3027
1.30704
1.31124
1.31531
1.31923
1.323
1.32659
1.33001
1.33323
1.33625
1.33906
1.34163
1.34397
1.34605
1.34785
1.34938
1.3506
1.3515
1.35205
1.16506
1.17102
1.17695
1.18285
1.18872
1.19454
1.20033
1.20608
1.21178
1.21743
1.22304
1.2286
1.2341
1.23954
1.24492
1.25023
1.25548
1.26065
1.26575
1.27076
1.27568
1.28051
1.28524
1.28986
1.29437
1.29875
1.30302