/*--------------------------------*- C++ -*----------------------------------*\
| =========                 |                                                 |
| \\      /  F ield         | OpenFOAM: The Open Source CFD Toolbox           |
|  \\    /   O peration     | Version:  v1706                                 |
|   \\  /    A nd           | Web:      www.OpenFOAM.com                      |
|    \\/     M anipulation  |                                                 |
\*---------------------------------------------------------------------------*/
FoamFile
{
    version     2.0;
    format      ascii;
    class       volScalarField;
    location    "3.9e-05";
    object      mu;
}
// * * * * * * * * * * * * * * * * * * * * * * * * * * * * * * * * * * * * * //

dimensions      [1 -1 -1 0 0 0 0];


internalField   nonuniform List<scalar> 
30038
(
1.0351e-05
1.0351e-05
1.0351e-05
1.0351e-05
1.0351e-05
1.0351e-05
1.0351e-05
1.0351e-05
1.0351e-05
1.0351e-05
1.0351e-05
1.0351e-05
1.0351e-05
1.0351e-05
1.0351e-05
1.0351e-05
1.0351e-05
1.0351e-05
1.0351e-05
1.0351e-05
1.0351e-05
1.0351e-05
1.0351e-05
1.0351e-05
1.0351e-05
1.0351e-05
1.0351e-05
1.0351e-05
1.0351e-05
1.0351e-05
1.0351e-05
1.0351e-05
1.0351e-05
1.0351e-05
1.0351e-05
1.0351e-05
1.0351e-05
1.0351e-05
1.0351e-05
1.0351e-05
1.0351e-05
1.0351e-05
1.0351e-05
1.0351e-05
1.0351e-05
1.0351e-05
1.0351e-05
1.0351e-05
1.0351e-05
1.0351e-05
1.0351e-05
1.0351e-05
1.0351e-05
1.0351e-05
1.0351e-05
1.0351e-05
1.0351e-05
1.0351e-05
1.0351e-05
1.0351e-05
1.0351e-05
1.0351e-05
1.0351e-05
1.0351e-05
1.0351e-05
1.0351e-05
1.0351e-05
1.0351e-05
1.0351e-05
1.0351e-05
1.0351e-05
1.0351e-05
1.0351e-05
1.0351e-05
1.0351e-05
1.0351e-05
1.0351e-05
1.0351e-05
1.0351e-05
1.0351e-05
1.0351e-05
1.0351e-05
1.0351e-05
1.0351e-05
1.0351e-05
1.0351e-05
1.0351e-05
1.0351e-05
1.0351e-05
1.0351e-05
1.0351e-05
1.0351e-05
1.0351e-05
1.0351e-05
1.0351e-05
1.0351e-05
1.0351e-05
1.0351e-05
1.0351e-05
1.0351e-05
1.0351e-05
1.0351e-05
1.0351e-05
1.0351e-05
1.0351e-05
1.0351e-05
1.0351e-05
1.0351e-05
1.0351e-05
1.0351e-05
1.0351e-05
1.0351e-05
1.0351e-05
1.0351e-05
1.0351e-05
1.0351e-05
1.0351e-05
1.0351e-05
1.0351e-05
1.0351e-05
1.0351e-05
1.0351e-05
1.0351e-05
1.0351e-05
1.0351e-05
1.0351e-05
1.0351e-05
1.0351e-05
1.0351e-05
1.0351e-05
1.0351e-05
1.0351e-05
1.0351e-05
1.0351e-05
1.0351e-05
1.0351e-05
1.0351e-05
1.0351e-05
1.0351e-05
1.0351e-05
1.0351e-05
1.0351e-05
1.0351e-05
1.0351e-05
1.0351e-05
1.0351e-05
1.0351e-05
1.0351e-05
1.0351e-05
1.0351e-05
1.0351e-05
1.0351e-05
1.0351e-05
1.0351e-05
1.0351e-05
1.0351e-05
1.0351e-05
1.0351e-05
1.0351e-05
1.0351e-05
1.0351e-05
1.0351e-05
1.0351e-05
1.0351e-05
1.0351e-05
1.0351e-05
1.0351e-05
1.0351e-05
1.0351e-05
1.0351e-05
1.0351e-05
1.0351e-05
1.0351e-05
1.0351e-05
1.0351e-05
1.0351e-05
1.0351e-05
1.0351e-05
1.0351e-05
1.0351e-05
1.0351e-05
1.0351e-05
1.0351e-05
1.0351e-05
1.0351e-05
1.0351e-05
1.0351e-05
1.0351e-05
1.0351e-05
1.0351e-05
1.0351e-05
1.0351e-05
1.0351e-05
1.0351e-05
1.0351e-05
1.0351e-05
1.0351e-05
1.0351e-05
1.0351e-05
1.0351e-05
1.0351e-05
1.0351e-05
1.0351e-05
1.0351e-05
1.0351e-05
1.0351e-05
1.0351e-05
1.0351e-05
1.0351e-05
1.0351e-05
1.0351e-05
1.0351e-05
1.0351e-05
1.0351e-05
1.0351e-05
1.0351e-05
1.0351e-05
1.0351e-05
1.0351e-05
1.0351e-05
1.0351e-05
1.0351e-05
1.0351e-05
1.0351e-05
1.0351e-05
1.0351e-05
1.0351e-05
1.0351e-05
1.0351e-05
1.0351e-05
1.0351e-05
1.0351e-05
1.0351e-05
1.0351e-05
1.0351e-05
1.0351e-05
1.0351e-05
1.0351e-05
1.0351e-05
1.0351e-05
1.0351e-05
1.0351e-05
1.0351e-05
1.0351e-05
1.0351e-05
1.0351e-05
1.0351e-05
1.0351e-05
1.0351e-05
1.0351e-05
1.0351e-05
1.0351e-05
1.0351e-05
1.0351e-05
1.0351e-05
1.0351e-05
1.0351e-05
1.0351e-05
1.0351e-05
1.0351e-05
1.0351e-05
1.0351e-05
1.0351e-05
1.0351e-05
1.0351e-05
1.0351e-05
1.0351e-05
1.0351e-05
1.0351e-05
1.0351e-05
1.0351e-05
1.0351e-05
1.0351e-05
1.0351e-05
1.0351e-05
1.0351e-05
1.0351e-05
1.0351e-05
1.0351e-05
1.0351e-05
1.0351e-05
1.0351e-05
1.0351e-05
1.0351e-05
1.0351e-05
1.0351e-05
1.0351e-05
1.0351e-05
1.0351e-05
1.0351e-05
1.0351e-05
1.0351e-05
1.0351e-05
1.0351e-05
1.0351e-05
1.0351e-05
1.0351e-05
1.0351e-05
1.0351e-05
1.0351e-05
1.0351e-05
1.0351e-05
1.0351e-05
1.0351e-05
1.0351e-05
1.0351e-05
1.0351e-05
1.0351e-05
1.0351e-05
1.0351e-05
1.0351e-05
1.0351e-05
1.0351e-05
1.0351e-05
1.0351e-05
1.0351e-05
1.0351e-05
1.0351e-05
1.0351e-05
1.0351e-05
1.0351e-05
1.0351e-05
1.0351e-05
1.0351e-05
1.0351e-05
1.0351e-05
1.0351e-05
1.0351e-05
1.0351e-05
1.0351e-05
1.0351e-05
1.0351e-05
1.0351e-05
1.0351e-05
1.0351e-05
1.0351e-05
1.0351e-05
1.0351e-05
1.0351e-05
1.0351e-05
1.0351e-05
1.0351e-05
1.0351e-05
1.0351e-05
1.0351e-05
1.0351e-05
1.0351e-05
1.0351e-05
1.0351e-05
1.0351e-05
1.0351e-05
1.0351e-05
1.0351e-05
1.0351e-05
1.0351e-05
1.0351e-05
1.0351e-05
1.0351e-05
1.0351e-05
1.0351e-05
1.0351e-05
1.0351e-05
1.0351e-05
1.0351e-05
1.0351e-05
1.0351e-05
1.0351e-05
1.0351e-05
1.0351e-05
1.0351e-05
1.0351e-05
1.0351e-05
1.0351e-05
1.0351e-05
1.0351e-05
1.0351e-05
1.0351e-05
1.0351e-05
1.0351e-05
1.0351e-05
1.0351e-05
1.0351e-05
1.0351e-05
1.0351e-05
1.0351e-05
1.0351e-05
1.0351e-05
1.0351e-05
1.0351e-05
1.0351e-05
1.0351e-05
1.0351e-05
1.0351e-05
1.0351e-05
1.0351e-05
1.0351e-05
1.0351e-05
1.0351e-05
1.0351e-05
1.0351e-05
1.0351e-05
1.0351e-05
1.0351e-05
1.0351e-05
1.0351e-05
1.0351e-05
1.0351e-05
1.0351e-05
1.0351e-05
1.0351e-05
1.0351e-05
1.0351e-05
1.0351e-05
1.0351e-05
1.0351e-05
1.0351e-05
1.0351e-05
1.0351e-05
1.0351e-05
1.0351e-05
1.03511e-05
1.0351e-05
1.0351e-05
1.0351e-05
1.0351e-05
1.0351e-05
1.0351e-05
1.0351e-05
1.0351e-05
1.0351e-05
1.0351e-05
1.0351e-05
1.0351e-05
1.0351e-05
1.0351e-05
1.0351e-05
1.0351e-05
1.0351e-05
1.0351e-05
1.0351e-05
1.0351e-05
1.0351e-05
1.0351e-05
1.0351e-05
1.0351e-05
1.0351e-05
1.0351e-05
1.0351e-05
1.0351e-05
1.0351e-05
1.0351e-05
1.0351e-05
1.0351e-05
1.0351e-05
1.0351e-05
1.0351e-05
1.0351e-05
1.03511e-05
1.03511e-05
1.03511e-05
1.03512e-05
1.0351e-05
1.0351e-05
1.0351e-05
1.0351e-05
1.0351e-05
1.0351e-05
1.0351e-05
1.0351e-05
1.0351e-05
1.0351e-05
1.0351e-05
1.0351e-05
1.0351e-05
1.0351e-05
1.0351e-05
1.0351e-05
1.0351e-05
1.0351e-05
1.0351e-05
1.0351e-05
1.0351e-05
1.0351e-05
1.0351e-05
1.0351e-05
1.0351e-05
1.0351e-05
1.0351e-05
1.0351e-05
1.0351e-05
1.0351e-05
1.0351e-05
1.0351e-05
1.0351e-05
1.03511e-05
1.03511e-05
1.03511e-05
1.03512e-05
1.03513e-05
1.03514e-05
1.03515e-05
1.0351e-05
1.0351e-05
1.0351e-05
1.0351e-05
1.0351e-05
1.0351e-05
1.0351e-05
1.0351e-05
1.0351e-05
1.0351e-05
1.0351e-05
1.0351e-05
1.0351e-05
1.0351e-05
1.0351e-05
1.0351e-05
1.0351e-05
1.0351e-05
1.0351e-05
1.0351e-05
1.0351e-05
1.0351e-05
1.0351e-05
1.0351e-05
1.0351e-05
1.0351e-05
1.0351e-05
1.0351e-05
1.0351e-05
1.0351e-05
1.03511e-05
1.03511e-05
1.03511e-05
1.03512e-05
1.03512e-05
1.03513e-05
1.03515e-05
1.03517e-05
1.0352e-05
1.03525e-05
1.0351e-05
1.0351e-05
1.0351e-05
1.0351e-05
1.0351e-05
1.0351e-05
1.0351e-05
1.0351e-05
1.0351e-05
1.0351e-05
1.0351e-05
1.0351e-05
1.0351e-05
1.0351e-05
1.0351e-05
1.0351e-05
1.0351e-05
1.0351e-05
1.0351e-05
1.0351e-05
1.0351e-05
1.0351e-05
1.0351e-05
1.0351e-05
1.0351e-05
1.0351e-05
1.0351e-05
1.03511e-05
1.03511e-05
1.03511e-05
1.03512e-05
1.03512e-05
1.03513e-05
1.03515e-05
1.03517e-05
1.0352e-05
1.03524e-05
1.0353e-05
1.03539e-05
1.03552e-05
1.0351e-05
1.0351e-05
1.0351e-05
1.0351e-05
1.0351e-05
1.0351e-05
1.0351e-05
1.0351e-05
1.0351e-05
1.0351e-05
1.0351e-05
1.0351e-05
1.0351e-05
1.0351e-05
1.0351e-05
1.0351e-05
1.0351e-05
1.0351e-05
1.0351e-05
1.0351e-05
1.0351e-05
1.0351e-05
1.0351e-05
1.0351e-05
1.03511e-05
1.03511e-05
1.03511e-05
1.03512e-05
1.03512e-05
1.03513e-05
1.03515e-05
1.03517e-05
1.03519e-05
1.03523e-05
1.03529e-05
1.03537e-05
1.03549e-05
1.03566e-05
1.0359e-05
1.03626e-05
1.0351e-05
1.0351e-05
1.0351e-05
1.0351e-05
1.0351e-05
1.0351e-05
1.0351e-05
1.0351e-05
1.0351e-05
1.0351e-05
1.0351e-05
1.0351e-05
1.0351e-05
1.0351e-05
1.0351e-05
1.0351e-05
1.0351e-05
1.0351e-05
1.0351e-05
1.0351e-05
1.0351e-05
1.03511e-05
1.03511e-05
1.03511e-05
1.03512e-05
1.03512e-05
1.03513e-05
1.03515e-05
1.03517e-05
1.03519e-05
1.03523e-05
1.03529e-05
1.03536e-05
1.03547e-05
1.03563e-05
1.03585e-05
1.03616e-05
1.03662e-05
1.03727e-05
1.03822e-05
1.0351e-05
1.0351e-05
1.0351e-05
1.0351e-05
1.0351e-05
1.0351e-05
1.0351e-05
1.0351e-05
1.0351e-05
1.0351e-05
1.0351e-05
1.0351e-05
1.0351e-05
1.0351e-05
1.0351e-05
1.0351e-05
1.0351e-05
1.03511e-05
1.03511e-05
1.03511e-05
1.03511e-05
1.03512e-05
1.03513e-05
1.03513e-05
1.03515e-05
1.03517e-05
1.03519e-05
1.03523e-05
1.03528e-05
1.03536e-05
1.03546e-05
1.03561e-05
1.03582e-05
1.03611e-05
1.03652e-05
1.03711e-05
1.03795e-05
1.03915e-05
1.04086e-05
1.04334e-05
1.0351e-05
1.0351e-05
1.0351e-05
1.0351e-05
1.0351e-05
1.0351e-05
1.0351e-05
1.0351e-05
1.0351e-05
1.0351e-05
1.0351e-05
1.0351e-05
1.0351e-05
1.0351e-05
1.0351e-05
1.03511e-05
1.03511e-05
1.03511e-05
1.03511e-05
1.03512e-05
1.03513e-05
1.03514e-05
1.03515e-05
1.03517e-05
1.0352e-05
1.03523e-05
1.03528e-05
1.03536e-05
1.03546e-05
1.0356e-05
1.0358e-05
1.03607e-05
1.03647e-05
1.03702e-05
1.03779e-05
1.03888e-05
1.04043e-05
1.04261e-05
1.0457e-05
1.05008e-05
1.0563e-05
1.0351e-05
1.0351e-05
1.0351e-05
1.0351e-05
1.0351e-05
1.0351e-05
1.0351e-05
1.0351e-05
1.0351e-05
1.0351e-05
1.0351e-05
1.0351e-05
1.03511e-05
1.03511e-05
1.03511e-05
1.03512e-05
1.03512e-05
1.03513e-05
1.03514e-05
1.03515e-05
1.03517e-05
1.0352e-05
1.03524e-05
1.03529e-05
1.03536e-05
1.03546e-05
1.0356e-05
1.03579e-05
1.03606e-05
1.03643e-05
1.03695e-05
1.03768e-05
1.03871e-05
1.04014e-05
1.04214e-05
1.04495e-05
1.04888e-05
1.05439e-05
1.06208e-05
1.07278e-05
1.08763e-05
1.0351e-05
1.0351e-05
1.0351e-05
1.0351e-05
1.0351e-05
1.0351e-05
1.0351e-05
1.0351e-05
1.0351e-05
1.03511e-05
1.03511e-05
1.03511e-05
1.03511e-05
1.03512e-05
1.03512e-05
1.03513e-05
1.03514e-05
1.03516e-05
1.03518e-05
1.03521e-05
1.03524e-05
1.0353e-05
1.03537e-05
1.03547e-05
1.03561e-05
1.0358e-05
1.03606e-05
1.03642e-05
1.03692e-05
1.03762e-05
1.03859e-05
1.03994e-05
1.04182e-05
1.04443e-05
1.04805e-05
1.05309e-05
1.06006e-05
1.06968e-05
1.08287e-05
1.10085e-05
1.12506e-05
1.1572e-05
1.0351e-05
1.0351e-05
1.0351e-05
1.0351e-05
1.0351e-05
1.0351e-05
1.0351e-05
1.03511e-05
1.03511e-05
1.03511e-05
1.03511e-05
1.03512e-05
1.03513e-05
1.03513e-05
1.03515e-05
1.03516e-05
1.03518e-05
1.03521e-05
1.03525e-05
1.03531e-05
1.03538e-05
1.03548e-05
1.03562e-05
1.03581e-05
1.03607e-05
1.03643e-05
1.03693e-05
1.0376e-05
1.03854e-05
1.03983e-05
1.04162e-05
1.04408e-05
1.04748e-05
1.05217e-05
1.05862e-05
1.06745e-05
1.0795e-05
1.09581e-05
1.11766e-05
1.14654e-05
1.18407e-05
1.23176e-05
1.29067e-05
1.0351e-05
1.0351e-05
1.0351e-05
1.03511e-05
1.03511e-05
1.03511e-05
1.03511e-05
1.03512e-05
1.03512e-05
1.03513e-05
1.03514e-05
1.03515e-05
1.03517e-05
1.03519e-05
1.03522e-05
1.03526e-05
1.03532e-05
1.0354e-05
1.0355e-05
1.03565e-05
1.03584e-05
1.0361e-05
1.03646e-05
1.03695e-05
1.03763e-05
1.03855e-05
1.0398e-05
1.04153e-05
1.04389e-05
1.04713e-05
1.05157e-05
1.05762e-05
1.06587e-05
1.07705e-05
1.09211e-05
1.1122e-05
1.13867e-05
1.17298e-05
1.21656e-05
1.27059e-05
1.33572e-05
1.41171e-05
1.49703e-05
1.0351e-05
1.03511e-05
1.03511e-05
1.03511e-05
1.03511e-05
1.03512e-05
1.03512e-05
1.03513e-05
1.03514e-05
1.03516e-05
1.03518e-05
1.0352e-05
1.03524e-05
1.03528e-05
1.03534e-05
1.03542e-05
1.03553e-05
1.03568e-05
1.03588e-05
1.03615e-05
1.03652e-05
1.03701e-05
1.03769e-05
1.0386e-05
1.03985e-05
1.04154e-05
1.04384e-05
1.04698e-05
1.05123e-05
1.05701e-05
1.06483e-05
1.07536e-05
1.08947e-05
1.1082e-05
1.1328e-05
1.16462e-05
1.20502e-05
1.25517e-05
1.31579e-05
1.38687e-05
1.46741e-05
1.55533e-05
1.64753e-05
1.74015e-05
1.03511e-05
1.03511e-05
1.03512e-05
1.03512e-05
1.03513e-05
1.03514e-05
1.03515e-05
1.03517e-05
1.03519e-05
1.03521e-05
1.03525e-05
1.0353e-05
1.03537e-05
1.03545e-05
1.03557e-05
1.03573e-05
1.03594e-05
1.03622e-05
1.0366e-05
1.03711e-05
1.03779e-05
1.03872e-05
1.03997e-05
1.04165e-05
1.04393e-05
1.04701e-05
1.05116e-05
1.05675e-05
1.06427e-05
1.07434e-05
1.08774e-05
1.10544e-05
1.12859e-05
1.15845e-05
1.1963e-05
1.24331e-05
1.30026e-05
1.36734e-05
1.44389e-05
1.52818e-05
1.61757e-05
1.70843e-05
1.79614e-05
1.87519e-05
1.94207e-05
1.03512e-05
1.03513e-05
1.03513e-05
1.03514e-05
1.03516e-05
1.03518e-05
1.0352e-05
1.03523e-05
1.03527e-05
1.03533e-05
1.0354e-05
1.03549e-05
1.03562e-05
1.03579e-05
1.03601e-05
1.03631e-05
1.0367e-05
1.03723e-05
1.03794e-05
1.03889e-05
1.04016e-05
1.04187e-05
1.04415e-05
1.04722e-05
1.05133e-05
1.05682e-05
1.06416e-05
1.07391e-05
1.08682e-05
1.10378e-05
1.12583e-05
1.15418e-05
1.19002e-05
1.23448e-05
1.28837e-05
1.35204e-05
1.42505e-05
1.50609e-05
1.59288e-05
1.68237e-05
1.77056e-05
1.85248e-05
1.92329e-05
1.98012e-05
2.02246e-05
2.05279e-05
1.03513e-05
1.03514e-05
1.03515e-05
1.03517e-05
1.03519e-05
1.03522e-05
1.03525e-05
1.0353e-05
1.03536e-05
1.03544e-05
1.03554e-05
1.03568e-05
1.03586e-05
1.0361e-05
1.03642e-05
1.03684e-05
1.0374e-05
1.03815e-05
1.03913e-05
1.04045e-05
1.0422e-05
1.04452e-05
1.04762e-05
1.05174e-05
1.05722e-05
1.06448e-05
1.07406e-05
1.08667e-05
1.10312e-05
1.1244e-05
1.15162e-05
1.18592e-05
1.22836e-05
1.27977e-05
1.34055e-05
1.41047e-05
1.48849e-05
1.57269e-05
1.66044e-05
1.74832e-05
1.83199e-05
1.90667e-05
1.96862e-05
2.01644e-05
2.05098e-05
2.07464e-05
2.08995e-05
2.09973e-05
1.03518e-05
1.03521e-05
1.03524e-05
1.03528e-05
1.03533e-05
1.0354e-05
1.03549e-05
1.03561e-05
1.03576e-05
1.03596e-05
1.03622e-05
1.03657e-05
1.03702e-05
1.03762e-05
1.03841e-05
1.03945e-05
1.04083e-05
1.04265e-05
1.04505e-05
1.04823e-05
1.05242e-05
1.05795e-05
1.06523e-05
1.07478e-05
1.08725e-05
1.10342e-05
1.12422e-05
1.15066e-05
1.18384e-05
1.22475e-05
1.27419e-05
1.3326e-05
1.39988e-05
1.47518e-05
1.5569e-05
1.64269e-05
1.72964e-05
1.814e-05
1.89131e-05
1.95748e-05
2.01021e-05
2.04951e-05
2.07709e-05
2.09547e-05
2.10714e-05
2.11424e-05
2.11826e-05
2.12052e-05
1.03523e-05
1.03527e-05
1.03531e-05
1.03537e-05
1.03545e-05
1.03555e-05
1.03569e-05
1.03586e-05
1.03608e-05
1.03637e-05
1.03675e-05
1.03725e-05
1.0379e-05
1.03875e-05
1.03986e-05
1.04133e-05
1.04324e-05
1.04576e-05
1.04906e-05
1.05338e-05
1.05905e-05
1.06645e-05
1.07609e-05
1.08859e-05
1.10468e-05
1.12524e-05
1.15124e-05
1.18366e-05
1.22348e-05
1.27144e-05
1.32797e-05
1.39305e-05
1.466e-05
1.54542e-05
1.62924e-05
1.71489e-05
1.79912e-05
1.87796e-05
1.94727e-05
2.00414e-05
2.04777e-05
2.07926e-05
2.10078e-05
2.11477e-05
2.12344e-05
2.12851e-05
2.13127e-05
2.1326e-05
2.13268e-05
2.13253e-05
1.03543e-05
1.03552e-05
1.03564e-05
1.03579e-05
1.03599e-05
1.03624e-05
1.03656e-05
1.03699e-05
1.03754e-05
1.03825e-05
1.03918e-05
1.04039e-05
1.04196e-05
1.04401e-05
1.04667e-05
1.05015e-05
1.05467e-05
1.06055e-05
1.06817e-05
1.07803e-05
1.09071e-05
1.10693e-05
1.1275e-05
1.15333e-05
1.18537e-05
1.22448e-05
1.2714e-05
1.32651e-05
1.38983e-05
1.46078e-05
1.53815e-05
1.62007e-05
1.70423e-05
1.7878e-05
1.86728e-05
1.93872e-05
1.99887e-05
2.04626e-05
2.08135e-05
2.10594e-05
2.1223e-05
2.13268e-05
2.1389e-05
2.14237e-05
2.14413e-05
2.14459e-05
2.14434e-05
2.14387e-05
2.14298e-05
2.14166e-05
1.03592e-05
1.03615e-05
1.03644e-05
1.03681e-05
1.03729e-05
1.0379e-05
1.0387e-05
1.03972e-05
1.04105e-05
1.04276e-05
1.04498e-05
1.04784e-05
1.05155e-05
1.05634e-05
1.06252e-05
1.07047e-05
1.08067e-05
1.09369e-05
1.11023e-05
1.13104e-05
1.157e-05
1.18896e-05
1.22775e-05
1.27402e-05
1.32815e-05
1.39012e-05
1.45944e-05
1.53501e-05
1.61517e-05
1.69777e-05
1.78034e-05
1.85978e-05
1.93245e-05
1.995e-05
2.04547e-05
2.08374e-05
2.11118e-05
2.12985e-05
2.14196e-05
2.14941e-05
2.15366e-05
2.15591e-05
2.15678e-05
2.15657e-05
2.15611e-05
2.1553e-05
2.15404e-05
2.15241e-05
2.15057e-05
2.14852e-05
1.03712e-05
1.03766e-05
1.03836e-05
1.03926e-05
1.04041e-05
1.04188e-05
1.04377e-05
1.0462e-05
1.04932e-05
1.05332e-05
1.05845e-05
1.06503e-05
1.07342e-05
1.0841e-05
1.09764e-05
1.11468e-05
1.13598e-05
1.16232e-05
1.19452e-05
1.23333e-05
1.27933e-05
1.33286e-05
1.39386e-05
1.4619e-05
1.53596e-05
1.6145e-05
1.69556e-05
1.77691e-05
1.85581e-05
1.92897e-05
1.9931e-05
2.04592e-05
2.08683e-05
2.11679e-05
2.13762e-05
2.1514e-05
2.16008e-05
2.16515e-05
2.16791e-05
2.16916e-05
2.16914e-05
2.16866e-05
2.16792e-05
2.16675e-05
2.16517e-05
2.16332e-05
2.16127e-05
2.15904e-05
2.15679e-05
2.15462e-05
1.03997e-05
1.04127e-05
1.04293e-05
1.04504e-05
1.04774e-05
1.05117e-05
1.05555e-05
1.06111e-05
1.06819e-05
1.07715e-05
1.08847e-05
1.10269e-05
1.12045e-05
1.14245e-05
1.16944e-05
1.20218e-05
1.24133e-05
1.28741e-05
1.34069e-05
1.40108e-05
1.46815e-05
1.54095e-05
1.61805e-05
1.69762e-05
1.77761e-05
1.85562e-05
1.92867e-05
1.99364e-05
2.04808e-05
2.09104e-05
2.1231e-05
2.14582e-05
2.16114e-05
2.17097e-05
2.17689e-05
2.18017e-05
2.18177e-05
2.18201e-05
2.18154e-05
2.18079e-05
2.1797e-05
2.17817e-05
2.17634e-05
2.17432e-05
2.17207e-05
2.16973e-05
2.16741e-05
2.16514e-05
2.16291e-05
2.16074e-05
1.04664e-05
1.04967e-05
1.05349e-05
1.05833e-05
1.06444e-05
1.07214e-05
1.08182e-05
1.09393e-05
1.10903e-05
1.12771e-05
1.15066e-05
1.17857e-05
1.21213e-05
1.25193e-05
1.29841e-05
1.35176e-05
1.41185e-05
1.47823e-05
1.55e-05
1.6258e-05
1.70394e-05
1.78251e-05
1.85936e-05
1.93182e-05
1.99696e-05
2.05233e-05
2.09673e-05
2.13041e-05
2.15469e-05
2.17135e-05
2.18222e-05
2.18892e-05
2.19272e-05
2.19463e-05
2.19516e-05
2.19477e-05
2.19396e-05
2.19289e-05
2.19146e-05
2.18964e-05
2.1876e-05
2.18537e-05
2.18296e-05
2.18053e-05
2.17816e-05
2.17581e-05
2.1735e-05
2.17123e-05
2.169e-05
2.16681e-05
1.06182e-05
1.06859e-05
1.07706e-05
1.08761e-05
1.10071e-05
1.11689e-05
1.13673e-05
1.16088e-05
1.18997e-05
1.22462e-05
1.26535e-05
1.31252e-05
1.36623e-05
1.42629e-05
1.49222e-05
1.56315e-05
1.6378e-05
1.71455e-05
1.79163e-05
1.86712e-05
1.93859e-05
2.00336e-05
2.05901e-05
2.10422e-05
2.13901e-05
2.16446e-05
2.18218e-05
2.19395e-05
2.20133e-05
2.20559e-05
2.20779e-05
2.20857e-05
2.20829e-05
2.20746e-05
2.20634e-05
2.20497e-05
2.20316e-05
2.2011e-05
2.19891e-05
2.19648e-05
2.19397e-05
2.19148e-05
2.18903e-05
2.1866e-05
2.18421e-05
2.18186e-05
2.17954e-05
2.17724e-05
2.17499e-05
2.17276e-05
1.0948e-05
1.10909e-05
1.12657e-05
1.14782e-05
1.17341e-05
1.20395e-05
1.23996e-05
1.28189e-05
1.33e-05
1.3843e-05
1.44456e-05
1.51023e-05
1.58049e-05
1.65407e-05
1.72945e-05
1.80499e-05
1.87893e-05
1.9491e-05
2.013e-05
2.06835e-05
2.11377e-05
2.14913e-05
2.17532e-05
2.19381e-05
2.20626e-05
2.21419e-05
2.21885e-05
2.22132e-05
2.22229e-05
2.22208e-05
2.22126e-05
2.22012e-05
2.21874e-05
2.21697e-05
2.21489e-05
2.21266e-05
2.21023e-05
2.20766e-05
2.20507e-05
2.20254e-05
2.20001e-05
2.19751e-05
2.19505e-05
2.19261e-05
2.1902e-05
2.18781e-05
2.18546e-05
2.18312e-05
2.18083e-05
2.17857e-05
1.16135e-05
1.18865e-05
1.22089e-05
1.25852e-05
1.30188e-05
1.35115e-05
1.40624e-05
1.46685e-05
1.53241e-05
1.60208e-05
1.67465e-05
1.74866e-05
1.82258e-05
1.89481e-05
1.96337e-05
2.02598e-05
2.0805e-05
2.12557e-05
2.16097e-05
2.18746e-05
2.20637e-05
2.21926e-05
2.22757e-05
2.23253e-05
2.23521e-05
2.23632e-05
2.23618e-05
2.23542e-05
2.23419e-05
2.23274e-05
2.23102e-05
2.22892e-05
2.22666e-05
2.22425e-05
2.22162e-05
2.21895e-05
2.21631e-05
2.21369e-05
2.21108e-05
2.20852e-05
2.20598e-05
2.20347e-05
2.20097e-05
2.1985e-05
2.19605e-05
2.19363e-05
2.19123e-05
2.18885e-05
2.18652e-05
2.18422e-05
1.28071e-05
1.32571e-05
1.3763e-05
1.43233e-05
1.49339e-05
1.55892e-05
1.62804e-05
1.69959e-05
1.77217e-05
1.84437e-05
1.91471e-05
1.9814e-05
2.04233e-05
2.09553e-05
2.13971e-05
2.17465e-05
2.201e-05
2.21998e-05
2.23304e-05
2.24155e-05
2.24669e-05
2.24949e-05
2.25068e-05
2.25059e-05
2.24986e-05
2.24855e-05
2.24704e-05
2.24532e-05
2.24319e-05
2.24088e-05
2.23845e-05
2.23582e-05
2.23308e-05
2.23035e-05
2.22764e-05
2.22494e-05
2.22227e-05
2.21963e-05
2.21701e-05
2.21442e-05
2.21184e-05
2.20929e-05
2.20676e-05
2.20424e-05
2.20175e-05
2.19928e-05
2.19684e-05
2.19442e-05
2.19205e-05
2.1897e-05
1.46285e-05
1.52441e-05
1.5899e-05
1.65846e-05
1.72892e-05
1.79996e-05
1.8703e-05
1.93857e-05
2.00311e-05
2.06199e-05
2.11342e-05
2.15623e-05
2.19022e-05
2.21601e-05
2.23471e-05
2.24767e-05
2.25619e-05
2.26137e-05
2.26422e-05
2.26543e-05
2.26534e-05
2.26459e-05
2.26322e-05
2.26163e-05
2.25988e-05
2.25772e-05
2.25536e-05
2.25289e-05
2.25024e-05
2.24744e-05
2.24462e-05
2.24184e-05
2.23905e-05
2.23628e-05
2.23355e-05
2.23083e-05
2.22814e-05
2.22546e-05
2.22281e-05
2.22017e-05
2.21755e-05
2.21495e-05
2.21237e-05
2.20982e-05
2.20728e-05
2.20477e-05
2.20228e-05
2.19983e-05
2.19741e-05
2.19503e-05
1.6934e-05
1.76263e-05
1.83198e-05
1.90027e-05
1.96625e-05
2.02837e-05
2.08486e-05
2.13409e-05
2.17508e-05
2.20768e-05
2.2325e-05
2.25059e-05
2.26319e-05
2.27151e-05
2.27659e-05
2.27937e-05
2.28055e-05
2.28042e-05
2.27963e-05
2.27822e-05
2.2765e-05
2.27465e-05
2.27253e-05
2.2701e-05
2.26757e-05
2.2649e-05
2.26204e-05
2.25915e-05
2.25627e-05
2.25341e-05
2.25054e-05
2.24772e-05
2.24491e-05
2.24212e-05
2.23935e-05
2.2366e-05
2.23386e-05
2.23114e-05
2.22844e-05
2.22576e-05
2.22309e-05
2.22045e-05
2.21782e-05
2.21522e-05
2.21264e-05
2.21009e-05
2.20756e-05
2.20507e-05
2.20262e-05
2.2002e-05
1.93415e-05
1.99759e-05
2.05699e-05
2.11073e-05
2.15737e-05
2.19612e-05
2.22694e-05
2.25044e-05
2.2676e-05
2.27959e-05
2.28752e-05
2.29235e-05
2.29499e-05
2.29603e-05
2.29584e-05
2.29497e-05
2.29349e-05
2.29165e-05
2.28972e-05
2.28755e-05
2.28505e-05
2.28246e-05
2.27976e-05
2.27687e-05
2.2739e-05
2.27095e-05
2.268e-05
2.26505e-05
2.26213e-05
2.25924e-05
2.25635e-05
2.25349e-05
2.25065e-05
2.24782e-05
2.245e-05
2.2422e-05
2.23942e-05
2.23665e-05
2.2339e-05
2.23117e-05
2.22846e-05
2.22577e-05
2.2231e-05
2.22045e-05
2.21783e-05
2.21524e-05
2.21267e-05
2.21014e-05
2.20765e-05
2.2052e-05
2.13934e-05
2.18303e-05
2.21917e-05
2.24786e-05
2.26971e-05
2.28569e-05
2.29684e-05
2.30419e-05
2.30866e-05
2.31104e-05
2.31189e-05
2.31159e-05
2.31061e-05
2.30901e-05
2.30707e-05
2.30505e-05
2.30282e-05
2.30024e-05
2.29758e-05
2.29483e-05
2.29189e-05
2.28886e-05
2.28583e-05
2.28281e-05
2.27979e-05
2.27677e-05
2.27379e-05
2.27082e-05
2.26787e-05
2.26494e-05
2.26202e-05
2.25911e-05
2.25622e-05
2.25334e-05
2.25048e-05
2.24763e-05
2.2448e-05
2.24198e-05
2.23919e-05
2.23641e-05
2.23365e-05
2.23091e-05
2.2282e-05
2.22551e-05
2.22285e-05
2.22022e-05
2.21761e-05
2.21504e-05
2.21252e-05
2.21003e-05
2.27023e-05
2.29018e-05
2.30474e-05
2.31488e-05
2.3215e-05
2.32549e-05
2.32753e-05
2.3281e-05
2.32766e-05
2.32653e-05
2.3248e-05
2.32275e-05
2.32064e-05
2.31828e-05
2.31568e-05
2.31293e-05
2.31011e-05
2.30713e-05
2.30403e-05
2.30093e-05
2.29783e-05
2.29473e-05
2.29163e-05
2.28857e-05
2.28552e-05
2.28248e-05
2.27946e-05
2.27645e-05
2.27346e-05
2.27048e-05
2.26751e-05
2.26456e-05
2.26162e-05
2.25869e-05
2.25578e-05
2.25288e-05
2.25e-05
2.24714e-05
2.24429e-05
2.24147e-05
2.23867e-05
2.23589e-05
2.23313e-05
2.2304e-05
2.2277e-05
2.22502e-05
2.22238e-05
2.21977e-05
2.21721e-05
2.21469e-05
2.32462e-05
2.33358e-05
2.33937e-05
2.34278e-05
2.34442e-05
2.34465e-05
2.34403e-05
2.34272e-05
2.34083e-05
2.33868e-05
2.33645e-05
2.33398e-05
2.33132e-05
2.32848e-05
2.32558e-05
2.32256e-05
2.3194e-05
2.31623e-05
2.31306e-05
2.30988e-05
2.30671e-05
2.30356e-05
2.30043e-05
2.29731e-05
2.2942e-05
2.29111e-05
2.28804e-05
2.28497e-05
2.28191e-05
2.27887e-05
2.27584e-05
2.27282e-05
2.26982e-05
2.26683e-05
2.26385e-05
2.26089e-05
2.25795e-05
2.25502e-05
2.25211e-05
2.24922e-05
2.24635e-05
2.24351e-05
2.24068e-05
2.23788e-05
2.23511e-05
2.23237e-05
2.22965e-05
2.22697e-05
2.22433e-05
2.22173e-05
2.21918e-05
2.36048e-05
2.36164e-05
2.36151e-05
2.36069e-05
2.35917e-05
2.35711e-05
2.35484e-05
2.35249e-05
2.3499e-05
2.34716e-05
2.34425e-05
2.34126e-05
2.33818e-05
2.33496e-05
2.33171e-05
2.32847e-05
2.32523e-05
2.32198e-05
2.31875e-05
2.31554e-05
2.31234e-05
2.30915e-05
2.30599e-05
2.30282e-05
2.29968e-05
2.29654e-05
2.29341e-05
2.2903e-05
2.28719e-05
2.2841e-05
2.28102e-05
2.27795e-05
2.2749e-05
2.27186e-05
2.26884e-05
2.26583e-05
2.26284e-05
2.25986e-05
2.25691e-05
2.25397e-05
2.25106e-05
2.24817e-05
2.2453e-05
2.24246e-05
2.23964e-05
2.23686e-05
2.23411e-05
2.23139e-05
2.22871e-05
2.22608e-05
2.22349e-05
2.37871e-05
2.37757e-05
2.37582e-05
2.3736e-05
2.3712e-05
2.36874e-05
2.36603e-05
2.36317e-05
2.3602e-05
2.35713e-05
2.35398e-05
2.3507e-05
2.34738e-05
2.34407e-05
2.34076e-05
2.33743e-05
2.33413e-05
2.33085e-05
2.32757e-05
2.32431e-05
2.32106e-05
2.31782e-05
2.31459e-05
2.31137e-05
2.30816e-05
2.30497e-05
2.30178e-05
2.2986e-05
2.29544e-05
2.29228e-05
2.28914e-05
2.28601e-05
2.2829e-05
2.2798e-05
2.27671e-05
2.27364e-05
2.27058e-05
2.26754e-05
2.26452e-05
2.26152e-05
2.25854e-05
2.25558e-05
2.25264e-05
2.24973e-05
2.24685e-05
2.244e-05
2.24117e-05
2.23838e-05
2.23563e-05
2.23291e-05
2.23024e-05
2.22762e-05
2.39029e-05
2.38776e-05
2.38516e-05
2.38232e-05
2.37936e-05
2.37632e-05
2.37316e-05
2.36993e-05
2.3666e-05
2.36321e-05
2.35983e-05
2.35645e-05
2.35306e-05
2.34968e-05
2.34633e-05
2.34298e-05
2.33964e-05
2.33632e-05
2.333e-05
2.32969e-05
2.3264e-05
2.32311e-05
2.31984e-05
2.31657e-05
2.31331e-05
2.31007e-05
2.30683e-05
2.30361e-05
2.30039e-05
2.29719e-05
2.294e-05
2.29082e-05
2.28766e-05
2.28451e-05
2.28137e-05
2.27825e-05
2.27515e-05
2.27206e-05
2.269e-05
2.26595e-05
2.26292e-05
2.25992e-05
2.25694e-05
2.25399e-05
2.25106e-05
2.24816e-05
2.2453e-05
2.24247e-05
2.23968e-05
2.23692e-05
2.23422e-05
2.23156e-05
2.39878e-05
2.39572e-05
2.39259e-05
2.38935e-05
2.38603e-05
2.38264e-05
2.37919e-05
2.37574e-05
2.3723e-05
2.36885e-05
2.3654e-05
2.36198e-05
2.35856e-05
2.35514e-05
2.35175e-05
2.34836e-05
2.34498e-05
2.34161e-05
2.33825e-05
2.3349e-05
2.33156e-05
2.32822e-05
2.3249e-05
2.32158e-05
2.31828e-05
2.31498e-05
2.3117e-05
2.30843e-05
2.30516e-05
2.30191e-05
2.29867e-05
2.29545e-05
2.29223e-05
2.28904e-05
2.28585e-05
2.28269e-05
2.27953e-05
2.2764e-05
2.27329e-05
2.2702e-05
2.26712e-05
2.26408e-05
2.26105e-05
2.25806e-05
2.25509e-05
2.25215e-05
2.24924e-05
2.24637e-05
2.24354e-05
2.24075e-05
2.23802e-05
2.23532e-05
2.40568e-05
2.40228e-05
2.39882e-05
2.39531e-05
2.39179e-05
2.38829e-05
2.38478e-05
2.38126e-05
2.37777e-05
2.37429e-05
2.37081e-05
2.36734e-05
2.36389e-05
2.36043e-05
2.35699e-05
2.35356e-05
2.35014e-05
2.34672e-05
2.34332e-05
2.33992e-05
2.33653e-05
2.33314e-05
2.32977e-05
2.32641e-05
2.32306e-05
2.31971e-05
2.31638e-05
2.31306e-05
2.30974e-05
2.30645e-05
2.30316e-05
2.29988e-05
2.29662e-05
2.29338e-05
2.29015e-05
2.28693e-05
2.28373e-05
2.28055e-05
2.27739e-05
2.27425e-05
2.27114e-05
2.26804e-05
2.26498e-05
2.26193e-05
2.25892e-05
2.25594e-05
2.253e-05
2.25009e-05
2.24722e-05
2.24439e-05
2.24162e-05
2.23889e-05
2.41155e-05
2.40798e-05
2.40441e-05
2.40084e-05
2.39726e-05
2.3937e-05
2.39016e-05
2.38661e-05
2.38308e-05
2.37956e-05
2.37604e-05
2.37254e-05
2.36904e-05
2.36554e-05
2.36206e-05
2.35858e-05
2.35511e-05
2.35165e-05
2.34819e-05
2.34475e-05
2.34131e-05
2.33788e-05
2.33446e-05
2.33105e-05
2.32764e-05
2.32425e-05
2.32087e-05
2.3175e-05
2.31414e-05
2.31079e-05
2.30746e-05
2.30413e-05
2.30083e-05
2.29753e-05
2.29425e-05
2.29099e-05
2.28774e-05
2.28452e-05
2.28131e-05
2.27812e-05
2.27496e-05
2.27182e-05
2.26871e-05
2.26562e-05
2.26257e-05
2.25955e-05
2.25656e-05
2.25361e-05
2.2507e-05
2.24783e-05
2.24503e-05
2.24226e-05
2.41702e-05
2.41338e-05
2.40976e-05
2.40616e-05
2.40255e-05
2.39895e-05
2.39537e-05
2.39179e-05
2.38822e-05
2.38465e-05
2.3811e-05
2.37754e-05
2.374e-05
2.37046e-05
2.36693e-05
2.36341e-05
2.35989e-05
2.35638e-05
2.35288e-05
2.34939e-05
2.3459e-05
2.34242e-05
2.33895e-05
2.3355e-05
2.33205e-05
2.32861e-05
2.32518e-05
2.32176e-05
2.31835e-05
2.31495e-05
2.31157e-05
2.3082e-05
2.30484e-05
2.3015e-05
2.29817e-05
2.29486e-05
2.29156e-05
2.28829e-05
2.28503e-05
2.2818e-05
2.27859e-05
2.2754e-05
2.27225e-05
2.26912e-05
2.26602e-05
2.26295e-05
2.25992e-05
2.25693e-05
2.25398e-05
2.25108e-05
2.24823e-05
2.24543e-05
2.42227e-05
2.4186e-05
2.41494e-05
2.41131e-05
2.40766e-05
2.40403e-05
2.4004e-05
2.39678e-05
2.39317e-05
2.38956e-05
2.38596e-05
2.38236e-05
2.37877e-05
2.37519e-05
2.37161e-05
2.36804e-05
2.36448e-05
2.36093e-05
2.35738e-05
2.35384e-05
2.3503e-05
2.34678e-05
2.34326e-05
2.33976e-05
2.33626e-05
2.33277e-05
2.32929e-05
2.32582e-05
2.32237e-05
2.31892e-05
2.31549e-05
2.31207e-05
2.30866e-05
2.30527e-05
2.30189e-05
2.29853e-05
2.29519e-05
2.29186e-05
2.28856e-05
2.28528e-05
2.28202e-05
2.27879e-05
2.27558e-05
2.27241e-05
2.26926e-05
2.26615e-05
2.26308e-05
2.26005e-05
2.25706e-05
2.25412e-05
2.25123e-05
2.24839e-05
2.42365e-05
2.41995e-05
2.41627e-05
2.41259e-05
2.40892e-05
2.40525e-05
2.40159e-05
2.39793e-05
2.39428e-05
2.39063e-05
2.38699e-05
2.38336e-05
2.37973e-05
2.37611e-05
2.37249e-05
2.36888e-05
2.36528e-05
2.36169e-05
2.3581e-05
2.35452e-05
2.35095e-05
2.34738e-05
2.34383e-05
2.34028e-05
2.33674e-05
2.33322e-05
2.3297e-05
2.32619e-05
2.3227e-05
2.31921e-05
2.31574e-05
2.31229e-05
2.30885e-05
2.30542e-05
2.30201e-05
2.29862e-05
2.29524e-05
2.29189e-05
2.28856e-05
2.28525e-05
2.28197e-05
2.27872e-05
2.2755e-05
2.27231e-05
2.26915e-05
2.26604e-05
2.26296e-05
2.25993e-05
2.25694e-05
2.25402e-05
2.25114e-05
2.42851e-05
2.42477e-05
2.42105e-05
2.41733e-05
2.41362e-05
2.40991e-05
2.4062e-05
2.4025e-05
2.39881e-05
2.39512e-05
2.39143e-05
2.38775e-05
2.38408e-05
2.38041e-05
2.37675e-05
2.3731e-05
2.36945e-05
2.36581e-05
2.36217e-05
2.35855e-05
2.35493e-05
2.35131e-05
2.34771e-05
2.34411e-05
2.34053e-05
2.33695e-05
2.33338e-05
2.32983e-05
2.32628e-05
2.32275e-05
2.31923e-05
2.31572e-05
2.31223e-05
2.30875e-05
2.30529e-05
2.30184e-05
2.29842e-05
2.29502e-05
2.29164e-05
2.28828e-05
2.28495e-05
2.28165e-05
2.27838e-05
2.27514e-05
2.27194e-05
2.26878e-05
2.26566e-05
2.26258e-05
2.25956e-05
2.25659e-05
2.25368e-05
2.43318e-05
2.42941e-05
2.42564e-05
2.42188e-05
2.41813e-05
2.41437e-05
2.41063e-05
2.40688e-05
2.40315e-05
2.39941e-05
2.39568e-05
2.39196e-05
2.38824e-05
2.38453e-05
2.38082e-05
2.37712e-05
2.37343e-05
2.36974e-05
2.36606e-05
2.36238e-05
2.35871e-05
2.35505e-05
2.3514e-05
2.34775e-05
2.34412e-05
2.34049e-05
2.33687e-05
2.33326e-05
2.32967e-05
2.32608e-05
2.32251e-05
2.31895e-05
2.3154e-05
2.31187e-05
2.30836e-05
2.30487e-05
2.30139e-05