/*--------------------------------*- C++ -*----------------------------------*\
| =========                 |                                                 |
| \\      /  F ield         | OpenFOAM: The Open Source CFD Toolbox           |
|  \\    /   O peration     | Version:  v1706                                 |
|   \\  /    A nd           | Web:      www.OpenFOAM.com                      |
|    \\/     M anipulation  |                                                 |
\*---------------------------------------------------------------------------*/
FoamFile
{
    version     2.0;
    format      ascii;
    class       volScalarField;
    location    "3.9e-05";
    object      Tov;
}
// * * * * * * * * * * * * * * * * * * * * * * * * * * * * * * * * * * * * * //

dimensions      [0 0 0 1 0 0 0];


internalField   nonuniform List<scalar> 
30038
(
144.4
144.4
144.4
144.4
144.4
144.4
144.4
144.4
144.4
144.4
144.4
144.4
144.4
144.4
144.4
144.4
144.4
144.4
144.4
144.4
144.4
144.4
144.4
144.4
144.4
144.4
144.4
144.4
144.4
144.4
144.4
144.4
144.4
144.4
144.4
144.4
144.4
144.4
144.4
144.4
144.4
144.4
144.4
144.4
144.4
144.4
144.4
144.4
144.4
144.4
144.4
144.4
144.4
144.4
144.4
144.4
144.4
144.4
144.4
144.4
144.4
144.4
144.4
144.4
144.4
144.4
144.4
144.4
144.4
144.4
144.4
144.4
144.4
144.4
144.4
144.4
144.4
144.4
144.4
144.4
144.4
144.4
144.4
144.4
144.4
144.4
144.4
144.4
144.4
144.4
144.4
144.4
144.4
144.4
144.4
144.4
144.4
144.4
144.4
144.4
144.4
144.4
144.4
144.4
144.4
144.4
144.4
144.4
144.4
144.4
144.4
144.4
144.4
144.4
144.4
144.4
144.4
144.4
144.4
144.4
144.4
144.4
144.4
144.4
144.4
144.4
144.4
144.4
144.4
144.4
144.4
144.4
144.4
144.4
144.4
144.4
144.4
144.4
144.4
144.4
144.4
144.4
144.4
144.4
144.4
144.4
144.4
144.4
144.4
144.4
144.4
144.4
144.4
144.4
144.4
144.4
144.4
144.4
144.4
144.4
144.4
144.4
144.4
144.4
144.4
144.4
144.4
144.4
144.4
144.4
144.4
144.4
144.4
144.4
144.4
144.4
144.4
144.4
144.4
144.4
144.4
144.4
144.4
144.4
144.4
144.4
144.4
144.4
144.4
144.4
144.4
144.4
144.4
144.4
144.4
144.4
144.4
144.4
144.4
144.4
144.4
144.4
144.4
144.4
144.4
144.4
144.4
144.4
144.4
144.4
144.4
144.4
144.4
144.4
144.4
144.4
144.4
144.4
144.4
144.4
144.4
144.4
144.4
144.4
144.4
144.4
144.4
144.4
144.4
144.4
144.4
144.4
144.4
144.4
144.4
144.4
144.4
144.4
144.4
144.4
144.4
144.4
144.4
144.4
144.4
144.4
144.4
144.4
144.4
144.4
144.4
144.4
144.4
144.4
144.4
144.4
144.4
144.4
144.4
144.4
144.4
144.4
144.4
144.4
144.4
144.4
144.4
144.4
144.4
144.4
144.4
144.4
144.4
144.4
144.4
144.4
144.4
144.4
144.4
144.4
144.4
144.4
144.4
144.4
144.4
144.4
144.4
144.4
144.4
144.4
144.4
144.4
144.4
144.4
144.4
144.4
144.4
144.4
144.4
144.4
144.4
144.4
144.4
144.4
144.4
144.4
144.4
144.4
144.4
144.4
144.4
144.4
144.4
144.4
144.4
144.4
144.4
144.4
144.4
144.4
144.4
144.4
144.4
144.4
144.4
144.4
144.4
144.4
144.4
144.4
144.4
144.4
144.4
144.4
144.4
144.4
144.4
144.4
144.4
144.4
144.4
144.4
144.4
144.4
144.4
144.4
144.4
144.4
144.4
144.4
144.4
144.4
144.4
144.4
144.4
144.4
144.4
144.4
144.4
144.4
144.4
144.4
144.4
144.4
144.4
144.4
144.4
144.4
144.4
144.4
144.4
144.4
144.4
144.4
144.4
144.4
144.4
144.4
144.4
144.4
144.4
144.4
144.4
144.4
144.4
144.4
144.4
144.4
144.4
144.4
144.4
144.4
144.4
144.4
144.4
144.4
144.4
144.4
144.4
144.4
144.4
144.4
144.4
144.4
144.4
144.4
144.4
144.4
144.4
144.4
144.4
144.4
144.4
144.4
144.4
144.4
144.4
144.4
144.401
144.401
144.401
144.4
144.4
144.4
144.4
144.4
144.4
144.4
144.4
144.4
144.4
144.4
144.4
144.4
144.4
144.4
144.4
144.4
144.4
144.4
144.4
144.4
144.4
144.4
144.4
144.4
144.4
144.4
144.4
144.4
144.4
144.4
144.4
144.4
144.4
144.401
144.401
144.401
144.402
144.402
144.403
144.4
144.4
144.4
144.4
144.4
144.4
144.4
144.4
144.4
144.4
144.4
144.4
144.4
144.4
144.4
144.4
144.4
144.4
144.4
144.4
144.4
144.4
144.4
144.4
144.4
144.4
144.4
144.4
144.4
144.4
144.4
144.401
144.401
144.401
144.402
144.402
144.403
144.405
144.407
144.41
144.4
144.4
144.4
144.4
144.4
144.4
144.4
144.4
144.4
144.4
144.4
144.4
144.4
144.4
144.4
144.4
144.4
144.4
144.4
144.4
144.4
144.4
144.4
144.4
144.4
144.4
144.4
144.4
144.401
144.401
144.401
144.402
144.402
144.403
144.405
144.406
144.409
144.413
144.419
144.428
144.4
144.4
144.4
144.4
144.4
144.4
144.4
144.4
144.4
144.4
144.4
144.4
144.4
144.4
144.4
144.4
144.4
144.4
144.4
144.4
144.4
144.4
144.4
144.4
144.4
144.401
144.401
144.401
144.402
144.402
144.403
144.404
144.406
144.409
144.413
144.418
144.426
144.438
144.455
144.479
144.4
144.4
144.4
144.4
144.4
144.4
144.4
144.4
144.4
144.4
144.4
144.4
144.4
144.4
144.4
144.4
144.4
144.4
144.4
144.4
144.4
144.4
144.401
144.401
144.401
144.402
144.402
144.403
144.404
144.406
144.409
144.413
144.418
144.425
144.436
144.451
144.473
144.505
144.551
144.618
144.4
144.4
144.4
144.4
144.4
144.4
144.4
144.4
144.4
144.4
144.4
144.4
144.4
144.4
144.4
144.4
144.4
144.4
144.4
144.401
144.401
144.401
144.402
144.402
144.403
144.405
144.406
144.409
144.413
144.418
144.425
144.435
144.449
144.47
144.499
144.541
144.6
144.686
144.809
144.988
144.4
144.4
144.4
144.4
144.4
144.4
144.4
144.4
144.4
144.4
144.4
144.4
144.4
144.4
144.4
144.4
144.401
144.401
144.401
144.402
144.402
144.403
144.405
144.407
144.409
144.413
144.418
144.425
144.435
144.449
144.468
144.496
144.535
144.59
144.668
144.78
144.938
145.164
145.487
145.954
144.4
144.4
144.4
144.4
144.4
144.4
144.4
144.4
144.4
144.4
144.4
144.4
144.4
144.401
144.401
144.401
144.401
144.402
144.403
144.404
144.405
144.407
144.409
144.413
144.418
144.425
144.435
144.448
144.467
144.494
144.531
144.584
144.657
144.761
144.907
145.113
145.405
145.817
146.4
147.229
148.409
144.4
144.4
144.4
144.4
144.4
144.4
144.4
144.4
144.4
144.4
144.401
144.401
144.401
144.402
144.402
144.403
144.404
144.405
144.407
144.41
144.414
144.419
144.426
144.436
144.449
144.468
144.494
144.53
144.581
144.651
144.749
144.887
145.08
145.349
145.728
146.258
147.003
148.045
149.505
151.544
154.384
144.4
144.4
144.4
144.4
144.4
144.4
144.4
144.401
144.401
144.401
144.401
144.402
144.402
144.403
144.404
144.406
144.408
144.411
144.415
144.42
144.427
144.437
144.451
144.469
144.495
144.531
144.58
144.649
144.744
144.876
145.059
145.313
145.667
146.16
146.846
147.799
149.122
150.952
153.473
156.924
161.604
167.869
144.4
144.4
144.4
144.4
144.4
144.401
144.401
144.401
144.401
144.402
144.403
144.404
144.405
144.406
144.409
144.412
144.416
144.421
144.429
144.439
144.453
144.472
144.498
144.534
144.583
144.651
144.744
144.872
145.049
145.293
145.63
146.095
146.738
147.625
148.848
150.528
152.828
155.954
160.169
165.785
173.156
182.643
194.542
144.4
144.401
144.401
144.401
144.401
144.402
144.402
144.403
144.404
144.405
144.407
144.41
144.413
144.417
144.423
144.431
144.442
144.456
144.476
144.503
144.539
144.589
144.657
144.75
144.876
145.05
145.287
145.613
146.059
146.671
147.511
148.659
150.227
152.36
155.244
159.113
164.249
170.969
179.606
190.464
203.772
219.591
237.712
144.401
144.401
144.402
144.402
144.403
144.404
144.405
144.406
144.408
144.411
144.414
144.419
144.425
144.434
144.445
144.461
144.482
144.509
144.547
144.598
144.667
144.761
144.888
145.06
145.295
145.615
146.05
146.642
147.448
148.544
150.029
152.037
154.737
158.342
163.107
169.326
177.309
187.349
199.676
214.387
231.378
250.308
270.566
291.324
144.402
144.402
144.403
144.404
144.405
144.407
144.409
144.412
144.416
144.422
144.429
144.438
144.45
144.467
144.489
144.518
144.558
144.611
144.682
144.778
144.907
145.082
145.318
145.636
146.066
146.648
147.434
148.494
149.923
151.841
154.405
157.809
162.289
168.115
175.578
184.961
196.498
210.318
226.383
244.422
263.937
284.172
304.065
322.296
337.932
144.404
144.405
144.406
144.408
144.411
144.414
144.419
144.425
144.432
144.443
144.456
144.474
144.498
144.529
144.571
144.627
144.702
144.802
144.936
145.115
145.355
145.677
146.108
146.688
147.466
148.508
149.901
151.76
154.229
157.488
161.754
167.278
174.334
183.189
194.077
207.144
222.4
239.659
258.509
278.329
298.228
317.029
333.521
346.915
356.984
364.243
144.406
144.408
144.41
144.413
144.417
144.422
144.429
144.437
144.449
144.464
144.483
144.509
144.544
144.589
144.649
144.729
144.834
144.974
145.16
145.408
145.738
146.178
146.764
147.544
148.583
149.962
151.789
154.2
157.361
161.477
166.779
173.524
181.965
192.329
204.771
219.332
235.883
254.091
273.435
293.174
312.299
329.631
344.194
355.545
363.806
369.495
373.186
375.551
144.416
144.42
144.426
144.434
144.444
144.457
144.473
144.495
144.524
144.562
144.612
144.677
144.762
144.875
145.024
145.221
145.48
145.824
146.278
146.878
147.673
148.722
150.106
151.927
154.312
157.42
161.441
166.592
173.112
181.242
191.197
203.133
217.109
233.037
250.65
269.494
288.95
308.16
326.044
341.561
354.06
363.451
370.083
374.52
377.342
379.064
380.039
380.587
144.424
144.431
144.44
144.452
144.466
144.486
144.511
144.543
144.585
144.64
144.712
144.805
144.928
145.088
145.298
145.574
145.936
146.412
147.036
147.856
148.931
150.338
152.177
154.568
157.663
161.64
166.704
173.078
180.989
190.639
202.18
215.681
231.08
248.157
266.517
285.625
304.749
322.937
339.153
352.615
363.034
370.604
375.8
379.19
381.293
382.525
383.198
383.521
383.54
383.505
144.462
144.479
144.501
144.53
144.567
144.614
144.676
144.756
144.86
144.994
145.169
145.397
145.694
146.081
146.585
147.243
148.1
149.216
150.667
152.547
154.976
158.096
162.078
167.115
173.415
181.19
190.631
201.88
215.008
229.971
246.581
264.493
283.228
302.16
320.457
337.141
351.36
362.67
371.106
377.046
381.013
383.537
385.051
385.896
386.325
386.438
386.378
386.263
386.047
385.726
144.555
144.597
144.652
144.722
144.812
144.928
145.078
145.272
145.522
145.845
146.264
146.806
147.508
148.416
149.59
151.104
153.052
155.549
158.733
162.767
167.832
174.125
181.843
191.164
202.217
215.069
229.685
245.902
263.412
281.779
300.457
318.717
335.667
350.44
362.479
371.68
378.314
382.847
385.793
387.609
388.647
389.196
389.408
389.357
389.246
389.048
388.741
388.344
387.896
387.397
144.78
144.883
145.015
145.184
145.401
145.679
146.036
146.495
147.086
147.844
148.818
150.067
151.667
153.709
156.307
159.595
163.726
168.875
175.226
182.961
192.241
203.187
215.853
230.209
246.108
263.266
281.285
299.676
317.799
334.851
349.988
362.586
372.425
379.673
384.734
388.092
390.21
391.452
392.126
392.433
392.427
392.311
392.13
391.844
391.459
391.008
390.506
389.962
389.413
388.883
145.318
145.564
145.877
146.277
146.786
147.436
148.266
149.323
150.669
152.379
154.546
157.279
160.71
164.988
170.276
176.746
184.566
193.884
204.803
217.365
231.54
247.189
264.047
281.745
299.835
317.755
334.781
350.114
363.101
373.439
381.202
386.728
390.467
392.873
394.322
395.126
395.519
395.579
395.462
395.279
395.012
394.639
394.189
393.695
393.146
392.573
392.006
391.452
390.907
390.376
146.58
147.152
147.877
148.795
149.956
151.423
153.272
155.595
158.502
162.12
166.593
172.075
178.726
186.699
196.125
207.091
219.626
233.691
249.153
265.759
283.165
300.952
318.621
335.519
350.903
364.121
374.812
382.976
388.89
392.961
395.625
397.269
398.201
398.673
398.802
398.708
398.509
398.247
397.894
397.449
396.949
396.401
395.812
395.216
394.635
394.061
393.495
392.94
392.396
391.86
149.457
150.747
152.362
154.382
156.899
160.022
163.875
168.594
174.326
181.219
189.41
199.01
210.092
222.666
236.686
252.015
268.414
285.55
303.036
320.42
337.11
352.422
365.723
376.622
385.065
391.273
395.613
398.501
400.316
401.364
401.906
402.099
402.03
401.825
401.551
401.214
400.769
400.264
399.724
399.129
398.512
397.902
397.3
396.703
396.118
395.542
394.973
394.411
393.86
393.315
155.762
158.515
161.899
166.037
171.058
177.099
184.293
192.762
202.6
213.857
226.529
240.555
255.799
272.024
288.911
306.095
323.164
339.581
354.717
367.966
378.934
387.529
393.929
398.463
401.524
403.479
404.628
405.237
405.478
405.426
405.224
404.943
404.604
404.167
403.655
403.106
402.509
401.875
401.24
400.616
399.995
399.381
398.777
398.178
397.586
397.001
396.424
395.852
395.29
394.736
168.686
174.066
180.474
188.029
196.835
206.965
218.449
231.266
245.342
260.535
276.609
293.256
310.133
326.859
342.947
357.812
370.89
381.794
390.417
396.902
401.55
404.724
406.776
408.002
408.665
408.941
408.907
408.719
408.414
408.057
407.633
407.114
406.556
405.961
405.315
404.656
404.005
403.36
402.718
402.087
401.463
400.844
400.232
399.625
399.023
398.428
397.839
397.256
396.684
396.119
192.523
201.719
212.189
223.942
236.94
251.094
266.257
282.192
298.597
315.155
331.508
347.21
361.72
374.515
385.231
393.76
400.226
404.902
408.126
410.232
411.504
412.199
412.494
412.472
412.292
411.967
411.593
411.168
410.64
410.069
409.47
408.818
408.142
407.468
406.799
406.132
405.474
404.824
404.178
403.539
402.905
402.277
401.653
401.035
400.422
399.816
399.216
398.622
398.04
397.465
230.416
243.615
257.863
273.001
288.792
304.944
321.158
337.103
352.362
366.436
378.843
389.256
397.575
403.919
408.536
411.744
413.856
415.141
415.848
416.151
416.129
415.942
415.604
415.209
414.776
414.24
413.655
413.043
412.385
411.692
410.996
410.306
409.618
408.933
408.258
407.587
406.921
406.262
405.607
404.957
404.311
403.671
403.036
402.406
401.782
401.164
400.554
399.95
399.357
398.772
280.803
296.429
312.299
328.134
343.626
358.382
371.938
383.86
393.861
401.865
407.987
412.464
415.589
417.657
418.921
419.615
419.907
419.878
419.681
419.33
418.903
418.443
417.915
417.311
416.684
416.02
415.311
414.593
413.881
413.17
412.461
411.761
411.067
410.377
409.692
409.011
408.335
407.664
406.997
406.334
405.677
405.025
404.378
403.736
403.101
402.473
401.852
401.238
400.635
400.041
336.066
351.051
365.234
378.189
389.532
399.021
406.611
412.423
416.683
419.665
421.639
422.846
423.503
423.765
423.718
423.502
423.132
422.675
422.193
421.654
421.03
420.384
419.714
418.994
418.257
417.522
416.79
416.058
415.333
414.615
413.901
413.191
412.486
411.786
411.089
410.397
409.708
409.024
408.345
407.67
407.001
406.337
405.678
405.026
404.38
403.741
403.11
402.486
401.874
401.27
385.136
395.807
404.693
411.782
417.205
421.18
423.962
425.799
426.917
427.513
427.724
427.65
427.406
427.006
426.523
426.017
425.461
424.817
424.152
423.467
422.735
421.979
421.224
420.473
419.72
418.971
418.23
417.492
416.758
416.03
415.306
414.584
413.868
413.154
412.445
411.74
411.039
410.343
409.651
408.964
408.283
407.607
406.937
406.274
405.617
404.967
404.326
403.693
403.071
402.458
417.33
422.298
425.932
428.468
430.127
431.127
431.639
431.783
431.674
431.391
430.956
430.445
429.915
429.325
428.674
427.986
427.283
426.538
425.763
424.988
424.216
423.443
422.67
421.907
421.148
420.391
419.639
418.891
418.147
417.406
416.669
415.936
415.206
414.48
413.758
413.04
412.327
411.618
410.914
410.215
409.522
408.835
408.154
407.48
406.812
406.153
405.501
404.858
404.228
403.606
430.906
433.154
434.607
435.465
435.879
435.935
435.782
435.452
434.979
434.439
433.88
433.26
432.592
431.881
431.154
430.398
429.607
428.812
428.02
427.225
426.431
425.646
424.865
424.086
423.311
422.541
421.774
421.01
420.25
419.493
418.739
417.989
417.243
416.5
415.761
415.027
414.296
413.571
412.85
412.134
411.423
410.719
410.02
409.328
408.643
407.965
407.295
406.634
405.982
405.342
404.711
439.918
440.211
440.179
439.971
439.588
439.072
438.499
437.908
437.258
436.568
435.837
435.087
434.314
433.506
432.69
431.879
431.066
430.252
429.444
428.641
427.84
427.043
426.251
425.462
424.676
423.893
423.114
422.337
421.564
420.794
420.027
419.264
418.505
417.75
416.998
416.251
415.509
414.771
414.038
413.31
412.588
411.872
411.162
410.459
409.763
409.075
408.395
407.724
407.062
406.413
405.774
444.516
444.229
443.787
443.226
442.622
442
441.317
440.597
439.85
439.075
438.283
437.46
436.623
435.792
434.96
434.126
433.297
432.474
431.652
430.834
430.021
429.21
428.401
427.597
426.795
425.997
425.201
424.408
423.619
422.833
422.05
421.27
420.495
419.723
418.955
418.191
417.431
416.677
415.927
415.182
414.442
413.709
412.981
412.26
411.547
410.84
410.141
409.451
408.771
408.099
407.441
406.793
447.443
446.804
446.147
445.43
444.682
443.915
443.117
442.301
441.462
440.607
439.755
438.907
438.053
437.203
436.36
435.518
434.679
433.845
433.014
432.184
431.359
430.536
429.715
428.898
428.083
427.272
426.463
425.658
424.855
424.056
423.26
422.468
421.68
420.895
420.115
419.339
418.567
417.8
417.038
416.281
415.53
414.785
414.046
413.314
412.589
411.872
411.163
410.463
409.772
409.092
408.424
407.767
449.593
448.819
448.027
447.208
446.368
445.511
444.639
443.767
442.901
442.03
441.159
440.297
439.436
438.577
437.722
436.871
436.021
435.175
434.331
433.49
432.652
431.816
430.983
430.153
429.325
428.501
427.679
426.861
426.046
425.234
424.426
423.621
422.82
422.023
421.23
420.442
419.658
418.878
418.104
417.336
416.573
415.816
415.066
414.323
413.587
412.859
412.139
411.429
410.729
410.038
409.362
408.695
451.343
450.481
449.604
448.716
447.825
446.94
446.052
445.162
444.281
443.403
442.523
441.649
440.778
439.909
439.043
438.179
437.318
436.459
435.603
434.749
433.898
433.05
432.204
431.361
430.521
429.684
428.85
428.019
427.191
426.366
425.545
424.728
423.914
423.105
422.3
421.499
420.702
419.911
419.125
418.344
417.57
416.801
416.039
415.285
414.538
413.799
413.069
412.348
411.638
410.938
410.252
409.577
452.832
451.924
451.021
450.116
449.208
448.309
447.413
446.515
445.622
444.733
443.845
442.959
442.077
441.196
440.317
439.442
438.568
437.697
436.828
435.962
435.098
434.237
433.379
432.523
431.671
430.821
429.974
429.13
428.29
427.453
426.619
425.789
424.963
424.141
423.323
422.51
421.701
420.897
420.099
419.306
418.52
417.74
416.966
416.2
415.442
414.692
413.951
413.22
412.5
411.79
411.095
410.41
454.219
453.295
452.377
451.464
450.549
449.637
448.731
447.824
446.92
446.02
445.12
444.223
443.329
442.436
441.545
440.657
439.772
438.888
438.007
437.128
436.252
435.379
434.508
433.639
432.774
431.912
431.052
430.196
429.343
428.493
427.646
426.804
425.965
425.13
424.3
423.474
422.653
421.837
421.026
420.221
419.422
418.63
417.845
417.067
416.298
415.537
414.785
414.043
413.313
412.593
411.888
411.194
455.554
454.621
453.693
452.769
451.845
450.923
450.005
449.088
448.173
447.26
446.349
445.44
444.534
443.629
442.727
441.826
440.928
440.032
439.139
438.248
437.359
436.473
435.59
434.709
433.831
432.956
432.084
431.214
430.348
429.486
428.627
427.771
426.92
426.072
425.229
424.39
423.557
422.728
421.905
421.088
420.277
419.472
418.675
417.886
417.104
416.332
415.569
414.817
414.076
413.346
412.631
411.928
455.904
454.964
454.029
453.095
452.163
451.233
450.305
449.378
448.454
447.531
446.611
445.692
444.775
443.861
442.948
442.038
441.13
440.224
439.321
438.42
437.521
436.625
435.732
434.841
433.953
433.068
432.186
431.307
430.432
429.559
428.691
427.827
426.966
426.11
425.258
424.412
423.57
422.735
421.905
421.081
420.264
419.455
418.653
417.86
417.077
416.303
415.539
414.787
414.047
413.322
412.609
457.139
456.19
455.244
454.299
453.355
452.414
451.474
450.536
449.6
448.666
447.734
446.803
445.875
444.948
444.024
443.101
442.181
441.263
440.347
439.433
438.522
437.613
436.707
435.803
434.903
434.005
433.11
432.218
431.329
430.444
429.562
428.685
427.811
426.942
426.077
425.217
424.363
423.514
422.671
421.835
421.006
420.184
419.37
418.565
417.769
416.984
416.209
415.446
414.695
413.96
413.237
458.328
457.369
456.411
455.455
454.501
453.548
452.597
451.647
450.7
449.754
448.81
447.868
446.927
445.989
445.052
444.117
443.184
442.254
441.325
440.399
439.475
438.554
437.634
436.718
435.804
434.893
433.985
433.079
432.177
431.279
430.384
429.493
428.606
427.723
426.845
425.972
425.104
424.242
423.386
422.537
421.695
420.86
420.034
419.216
418.409
417.611
416.825
416.051
415.29
414.544
413.811
458.5
457.531
456.564
455.599
454.635
453.672
452.712
451.752
450.795
449.839
448.885
447.932
446.982
446.033
445.086
444.14
443.197
442.256
441.317
440.38
439.445
438.513
437.583
436.656
435.732
434.81
433.891
432.976
432.064
431.155
430.25
429.349
428.453
427.561
426.675
425.793
424.918
424.048
423.186
422.33
421.483
420.643
419.814
418.993
418.184
417.386
416.601
415.828
415.072
414.329
459.584
458.604
457.626
456.65
455.675
454.701
453.729
452.758
451.789
450.821
449.855
448.89
447.927
446.966
446.006
445.048
444.092
443.138
442.186
441.236
440.288
439.343
438.399
437.458
436.52
435.585
434.652
433.723
432.797
431.874
430.955
430.041
429.13
428.225
427.324
426.429
425.539
424.656
423.78
422.911
422.05
421.198
420.355
419.523
418.701
417.891
417.094
416.311
415.544
414.79
460.621
459.63
458.641
457.654
456.667
455.682
454.698
453.716
452.734
451.755
450.776
449.799
448.824
447.85
446.878
445.907
444.938
443.971
443.006
442.042
441.081
440.121
439.164
438.21
437.258
436.308
435.362
434.418
433.478
432.541
431.608
430.679
429.754
428.834
427.919
427.009
426.106
425.209
424.319
423.436
422.562
421.696
420.84
419.995
419.161
418.339
417.531
416.736
415.958
415.193
461.61
460.609
459.609
458.61
457.612
456.615
455.62
454.625
453.632
452.64
451.649
450.66
449.672
448.685
447.7
446.716
445.734
444.753
443.774
442.797
441.822
440.849
439.878
438.909
437.942
436.979
436.018
435.059
434.105
433.153
432.205
431.262
430.322
429.388
428.458
427.534
426.616
425.705
424.801
423.904
423.016
422.137
421.268
420.409
419.563
418.729
417.908
417.102
416.313
415.538
462.553
461.54
460.529
459.519
458.509
457.501
456.493
455.486
454.481
453.476
452.473
451.471
450.47
449.47
448.471
447.474
446.478
445.484
444.491
443.5
442.511
441.523
440.538
439.555
438.574
437.595
436.619
435.646
434.676
433.71
432.747
431.789
430.834
429.885
428.94
428.002
427.069
426.143
425.224
424.314
423.412
422.519
421.636
420.765
419.905
419.059
418.227
417.409
416.609
415.823
463.447
462.423
461.401
460.378
459.357
458.337
457.317
456.298
455.28
454.263
453.246
452.231
451.217
450.204
449.192
448.181
447.171
446.162
445.155
444.15
443.146
442.144
441.144
440.146
439.15
438.156
437.165
436.177
435.192
434.21
433.232
432.258
431.289
430.324
429.364
428.411
427.463
426.522
425.589
424.664
423.748
422.841
421.945
421.061
420.188
419.329
418.485
417.656
416.845
416.048
464.293
463.257
462.223
461.189
460.156
459.123
458.09
457.059
456.028
454.998
453.968
452.94
451.912
450.885
449.859
448.834
447.81
446.787
445.765
444.745
443.726
442.709
441.694
440.681
439.669
438.66
437.654
436.65
435.65
434.653
433.659
432.669
431.684
430.704
429.729
428.76
427.798
426.842
425.894
424.954
424.024
423.103
422.193
421.295
420.41
419.539
418.683
417.842
417.02
416.213
464.042
462.995
461.949
460.903
459.858
458.813
457.768
456.724
455.681
454.638
453.595
452.553
451.512
450.472
449.432
448.394
447.356
446.32
445.285
444.251
443.218
442.188
441.159
440.132
439.107
438.085
437.065
436.049
435.036
434.026
433.021
432.02
431.024
430.034
429.049
428.071
427.1
426.138
425.183
424.238
423.304
422.38
421.469
420.571
419.687
418.819
417.967
417.134
416.316
464.775
463.716
462.658
461.599
460.541
459.483
458.425
457.367
456.31
455.253
454.196
453.14
452.085
451.03
449.975
448.922
447.869
446.817
445.767
444.717
443.669
442.623
441.578
440.535
439.494
438.456
437.421
436.388
435.359
434.333
433.312
432.295
431.283
430.277
429.277
428.283
427.297
426.319
425.35
424.391
423.442
422.505
421.581
420.67
419.773
418.893
418.03
417.186
416.359
465.456
464.385
463.313
462.242
461.17
460.099
459.027
457.956
456.884
455.813
454.742
453.671
452.601
451.531
450.461
449.393
448.324
447.257
446.191
445.125
444.061
442.998
441.937
440.878
439.821
438.767
437.715
436.666
435.62
434.578
433.541
432.508
431.48
430.458
429.442
428.433
427.431
426.438
425.454
424.481
423.518
422.567
421.63
420.707
419.8
418.909
418.036
417.182
416.346
465
463.915
462.83
461.745
460.659
459.574
458.488
457.402
456.316
455.231
454.145
453.059
451.974
450.889
449.804
448.72
447.637
446.554
445.473
444.393
443.314
442.236
441.16
440.087
439.016
437.947
436.882
435.819
434.761
433.707
432.658
431.613
430.575
429.543
428.518
427.502
426.494
425.496
424.509
423.533
422.57
421.621
420.686
419.768
418.867
417.983
417.12
416.274
465.56
464.461
463.363
462.263
461.164
460.064
458.963
457.863
456.762
455.661
454.56
453.458
452.357
451.256
450.156
449.056
447.956
446.857
445.759
444.662
443.567
442.472
441.38
440.29
439.202
438.116
437.034
435.955
434.88
433.809
432.743
431.683
430.629
429.582
428.543
427.512
426.49
425.479
424.479
423.49
422.515
421.553
420.606
419.676
418.764
417.871
416.998
416.143
464.951
463.838
462.724
461.61
460.495
459.38
458.264
457.147
456.031
454.914
453.797
452.68
451.563
450.446
449.329
448.213
447.098
445.983
444.869
443.757
442.646
441.536
440.429
439.324
438.221
437.122
436.026
434.934
433.848
432.767
431.691
430.622
429.561
428.507
427.462
426.427
425.401
424.387
423.385
422.397
421.423
420.465
419.524
418.602
417.699
416.817
415.954
465.382
464.254
463.126
461.996
460.866
459.736
458.604
457.472
456.34
455.207
454.074
452.941
451.807
450.674
449.54
448.407
447.275
446.143
445.012
443.883
442.754
441.627
440.503
439.381
438.262
437.147
436.035
434.928
433.826
432.73
431.64
430.555
429.478
428.41
427.35
426.3
425.261
424.233
423.218
422.218
421.233
420.264
419.313
418.381
417.468
416.578
415.708
464.61
463.467
462.322
461.177
460.03
458.883
457.735
456.586
455.437
454.288
453.138
451.987
450.837
449.687
448.537
447.387
446.238
445.089
443.942
442.798
441.655
440.514
439.376
438.242
437.111
435.984
434.861
433.743
432.63
431.524
430.424
429.332
428.249
427.175
426.111
425.058
424.018
422.991
421.979
420.983
420.004
419.043
418.102
417.182
416.284
415.407
464.904
463.745
462.585
461.424
460.262
459.098
457.934
456.769
455.603
454.437
453.27
452.103
450.935
449.767
448.6
447.434
446.268
445.104
443.941
442.78
441.621
440.464
439.31
438.159
437.011
435.868
434.728
433.594
432.466
431.344
430.23
429.123
428.026
426.938
425.861
424.796
423.744
422.705
421.682
420.676
419.687
418.717
417.768
416.84
415.936
415.052
465.135
463.961
462.785
461.607
460.429
459.249
458.068
456.886
455.703
454.52
453.336
452.152
450.968
449.784
448.601
447.418
446.237
445.056
443.877
442.699
441.523
440.349
439.178
438.011
436.847
435.687
434.532
433.382
432.239
431.103
429.974
428.853
427.742
426.641
425.551
424.474
423.41
422.361
421.328
420.311
419.314
418.336
417.379
416.445
415.534
414.645
465.302
464.111
462.919
461.725
460.529
459.333
458.135
456.937
455.738
454.539
453.338
452.138
450.939
449.739
448.539
447.339
446.141
444.943
443.747
442.552
441.359
440.169
438.982
437.798
436.618
435.443
434.272
433.108
431.95
430.799
429.656
428.522
427.398
426.284
425.183
424.094
423.019
421.96
420.917
419.892
418.887
417.901
416.938
415.998
415.082
414.189
465.401
464.194
462.985
461.776
460.565
459.352
458.138
456.924
455.71
454.494
453.278
452.061
450.844
449.627
448.41
447.194
445.978
444.764
443.551
442.34
441.131
439.924
438.721
437.522
436.326
435.136
433.951
432.771
431.599
430.435
429.278
428.132
426.995
425.87
424.757
423.657
422.573
421.504
420.453
419.42
418.407
417.415
416.447
415.502
414.582
413.685
465.435
464.212
462.988
461.763
460.536
459.308
458.079
456.848
455.616
454.383
453.15
451.917
450.683
449.449
448.215
446.982
445.75
444.519
443.29
442.063
440.838
439.616
438.397
437.182
435.972
434.767
433.567
432.374
431.188
430.011
428.842
427.683
426.535
425.398
424.275
423.166
422.072
420.995
419.936
418.896
417.877
416.88
415.907
414.958
414.035
413.136
465.405
464.167
462.927
461.685
460.441
459.197
457.95
456.703
455.454
454.205
452.955
451.705
450.454
449.204
447.954
446.705
445.456
444.21
442.964
441.721
440.481
439.244
438.01
436.781
435.556
434.337
433.124
431.917
430.719
429.529
428.348
427.178
426.019
424.872
423.739
422.621
421.519
420.435
419.369
418.323
417.299
416.297
415.32
414.368
413.444
412.543
464.053
462.797
461.538
460.278
459.017
457.754
456.49
455.225
453.96
452.693
451.427
450.16
448.893
447.627
446.362
445.098
443.836
442.575
441.317
440.062
438.81
437.562
436.318
435.08
433.847
432.621
431.403
430.192
428.99
427.799
426.618
425.449
424.293
423.151
422.025
420.916
419.825
418.753
417.702
416.674
415.669
414.69
413.736
412.81
411.909
463.871
462.598
461.323
460.047
458.77
457.491
456.21
454.929
453.647
452.365
451.082
449.8
448.518
447.236
445.955
444.676
443.399
442.123
440.85
439.581
438.315
437.053
435.796
434.545
433.3
432.062
430.831
429.609
428.397
427.195
426.005
424.827
423.663
422.514
421.381
420.265
419.168
418.092
417.037
416.006
414.999
414.018
413.064
412.138
411.238
463.619
462.331
461.04
459.748
458.454
457.16
455.863
454.567
453.269
451.971
450.673
449.375
448.077
446.781
445.485
444.191
442.899
441.61
440.323
439.04
437.761
436.486
435.217
433.953
432.696
431.447
430.205
428.973
427.751
426.54
425.341
424.155
422.984
421.828
420.689
419.568
418.467
417.387
416.33
415.296
414.288
413.307
412.353
411.428
410.53
461.995
460.689
459.381
458.072
456.762
455.45
454.138
452.825
451.512
450.199
448.886
447.574
446.262
444.953
443.645
442.339
441.036
439.736
438.44
437.148
435.861
434.58
433.305
432.038
430.778
429.527
428.285
427.054
425.835
424.628
423.435
422.258
421.096
419.953
418.828
417.724
416.641
415.582
414.548
413.54
412.559
411.607
410.684
409.789
461.592
460.27
458.947
457.623
456.297
454.971
453.644
452.316
450.988
449.661
448.334
447.007
445.682
444.359
443.038
441.719
440.403
439.091
437.783
436.48
435.182
433.89
432.604
431.327
430.057
428.797
427.547
426.309
425.082
423.869
422.67
421.488
420.322
419.174
418.047
416.94
415.857
414.797
413.763
412.756
411.777
410.828
409.909
409.017
461.121
459.785
458.447
457.108
455.768
454.427
453.085
451.743
450.402
449.06
447.72
446.38
445.042
443.706
442.372
441.041
439.714
438.39
437.071
435.757
434.448
433.146
431.852
430.565
429.287
428.019
426.762
425.517
424.284
423.066
421.863
420.676
419.507
418.357
417.227
416.12
415.036
413.977
412.945
411.94
410.964
410.018
409.104
408.217
460.584
459.233
457.881
456.528
455.174
453.819
452.464
451.109
449.754
448.399
447.046
445.694
444.344
442.995
441.65
440.308
438.969
437.635
436.305
434.981
433.664
432.353
431.05
429.755
428.47
427.196
425.932
424.681
423.444
422.221
421.014
419.824
418.653
417.502
416.372
415.265
414.182
413.125
412.095
411.093
410.122
409.181
408.272
407.392
458.616
457.251
455.884
454.517
453.149
451.781
450.413
449.045
447.679
446.313
444.95
443.588