/*--------------------------------*- C++ -*----------------------------------*\
| =========                 |                                                 |
| \\      /  F ield         | OpenFOAM: The Open Source CFD Toolbox           |
|  \\    /   O peration     | Version:  v1706                                 |
|   \\  /    A nd           | Web:      www.OpenFOAM.com                      |
|    \\/     M anipulation  |                                                 |
\*---------------------------------------------------------------------------*/
FoamFile
{
    version     2.0;
    format      ascii;
    class       volVectorField;
    location    "3.9e-05";
    object      U;
}
// * * * * * * * * * * * * * * * * * * * * * * * * * * * * * * * * * * * * * //

dimensions      [0 1 -1 0 0 0 0];


internalField   nonuniform List<vector> 
30038
(
(978.58 -1.14284e-10 4.92698e-15)
(978.58 -1.16366e-10 4.36402e-15)
(978.58 -1.17566e-10 7.42622e-15)
(978.58 -1.19808e-10 2.90974e-15)
(978.58 -1.21832e-10 5.21032e-15)
(978.58 -1.23343e-10 5.82397e-15)
(978.58 -1.25808e-10 8.95316e-15)
(978.58 -1.27951e-10 9.25596e-15)
(978.58 -1.30214e-10 4.69985e-15)
(978.58 -1.32565e-10 6.51015e-15)
(978.58 -1.35007e-10 1.00551e-14)
(978.58 -1.37737e-10 6.52698e-15)
(978.58 -1.4012e-10 5.00891e-15)
(978.58 -1.42762e-10 3.38667e-15)
(978.58 -1.45773e-10 6.47487e-15)
(978.58 -1.49174e-10 8.35032e-15)
(978.58 -1.51755e-10 6.02927e-15)
(978.58 -1.53972e-10 3.15361e-15)
(978.58 -1.56051e-10 5.14184e-15)
(978.58 -1.58897e-10 7.49122e-15)
(978.58 -1.60879e-10 8.59722e-15)
(978.58 -1.62443e-10 4.68876e-15)
(978.58 -1.62576e-10 1.20979e-15)
(978.58 -1.60164e-10 8.64347e-15)
(978.58 -1.53736e-10 5.8738e-15)
(978.58 -1.41794e-10 3.29834e-15)
(978.58 -1.29678e-10 4.83314e-15)
(978.58 -1.10766e-10 7.87126e-15)
(978.58 -7.48551e-11 8.71649e-15)
(978.58 -1.94476e-11 7.19132e-15)
(978.58 7.45418e-11 7.32206e-15)
(978.58 2.41055e-10 9.56127e-15)
(978.58 5.14841e-10 7.84856e-15)
(978.58 9.35518e-10 8.41876e-15)
(978.58 1.53224e-09 1.04296e-14)
(978.58 2.39933e-09 6.772e-15)
(978.58 3.79616e-09 3.95921e-15)
(978.58 5.95898e-09 8.29905e-15)
(978.58 -3.28375e-10 1.74775e-14)
(978.58 -3.34205e-10 2.0205e-14)
(978.58 -3.38675e-10 1.91255e-14)
(978.58 -3.42856e-10 1.89141e-14)
(978.58 -3.49049e-10 2.22749e-14)
(978.58 -3.54986e-10 2.04612e-14)
(978.58 -3.60472e-10 2.20833e-14)
(978.58 -3.66252e-10 2.1003e-14)
(978.58 -3.72591e-10 1.64802e-14)
(978.58 -3.80003e-10 2.09165e-14)
(978.58 -3.85696e-10 1.93948e-14)
(978.58 -3.92401e-10 1.52509e-14)
(978.58 -3.99704e-10 1.76329e-14)
(978.58 -4.06164e-10 1.90279e-14)
(978.58 -4.10585e-10 2.05688e-14)
(978.58 -4.16882e-10 2.02241e-14)
(978.58 -4.23891e-10 2.01306e-14)
(978.58 -4.30964e-10 1.91788e-14)
(978.58 -4.35746e-10 1.82716e-14)
(978.58 -4.38956e-10 1.95811e-14)
(978.58 -4.38242e-10 1.99174e-14)
(978.58 -4.31731e-10 2.08591e-14)
(978.58 -4.2461e-10 1.97175e-14)
(978.58 -4.10772e-10 1.89274e-14)
(978.58 -3.83883e-10 1.76719e-14)
(978.58 -3.43006e-10 1.79644e-14)
(978.58 -2.77842e-10 1.80985e-14)
(978.58 -1.57258e-10 1.80583e-14)
(978.58 5.00621e-11 2.08968e-14)
(978.58 4.16548e-10 1.97409e-14)
(978.58 1.01919e-09 1.97461e-14)
(978.58 1.95895e-09 2.74535e-14)
(978.58 3.30054e-09 2.60353e-14)
(978.58 5.23065e-09 2.41349e-14)
(978.58 8.12105e-09 2.39329e-14)
(978.58 1.24838e-08 2.04218e-14)
(978.58 1.9493e-08 2.11325e-14)
(978.58 3.06467e-08 2.36232e-14)
(978.58 -5.35478e-10 3.19957e-14)
(978.58 -5.42218e-10 3.37032e-14)
(978.58 -5.49398e-10 3.0942e-14)
(978.58 -5.58004e-10 2.89786e-14)
(978.58 -5.65023e-10 3.1383e-14)
(978.58 -5.74399e-10 3.27271e-14)
(978.58 -5.81544e-10 3.22515e-14)
(978.58 -5.8932e-10 2.64364e-14)
(978.58 -5.98026e-10 2.77894e-14)
(978.58 -6.07313e-10 2.83074e-14)
(978.58 -6.16768e-10 2.73059e-14)
(978.58 -6.26515e-10 2.92077e-14)
(978.58 -6.36332e-10 3.16476e-14)
(978.58 -6.46449e-10 3.12811e-14)
(978.58 -6.54257e-10 3.07657e-14)
(978.58 -6.59932e-10 3.3474e-14)
(978.58 -6.64566e-10 3.22748e-14)
(978.58 -6.64595e-10 3.1947e-14)
(978.58 -6.61184e-10 3.09869e-14)
(978.58 -6.55335e-10 3.01121e-14)
(978.58 -6.45486e-10 3.03635e-14)
(978.58 -6.14825e-10 3.11248e-14)
(978.58 -5.71523e-10 2.86272e-14)
(978.58 -4.96559e-10 2.9826e-14)
(978.58 -3.59905e-10 3.347e-14)
(978.58 -1.17272e-10 3.29932e-14)
(978.58 2.94974e-10 3.0838e-14)
(978.58 9.60134e-10 3.07534e-14)
(978.58 1.98153e-09 3.46441e-14)
(978.58 3.39805e-09 3.51826e-14)
(978.58 5.36648e-09 3.58281e-14)
(978.58 8.21729e-09 3.74516e-14)
(978.58 1.25169e-08 3.58883e-14)
(978.58 1.90063e-08 3.64365e-14)
(978.58 2.88478e-08 3.71592e-14)
(978.58 4.36181e-08 3.59437e-14)
(978.58 6.75639e-08 3.34374e-14)
(978.58 1.04559e-07 3.6331e-14)
(978.58 -7.30927e-10 4.56485e-14)
(978.58 -7.40114e-10 4.48589e-14)
(978.58 -7.48954e-10 4.27196e-14)
(978.58 -7.59982e-10 4.26269e-14)
(978.58 -7.69394e-10 4.59276e-14)
(978.58 -7.81289e-10 4.22071e-14)
(978.58 -7.92673e-10 4.13859e-14)
(978.58 -8.0236e-10 4.14519e-14)
(978.58 -8.12329e-10 4.37988e-14)
(978.58 -8.21899e-10 4.13304e-14)
(978.58 -8.316e-10 4.37996e-14)
(978.58 -8.40807e-10 4.40748e-14)
(978.58 -8.48984e-10 4.47212e-14)
(978.58 -8.54163e-10 3.84572e-14)
(978.58 -8.54472e-10 4.08568e-14)
(978.58 -8.5511e-10 4.19317e-14)
(978.58 -8.49158e-10 4.0979e-14)
(978.58 -8.36905e-10 4.52571e-14)
(978.58 -7.99786e-10 4.46767e-14)
(978.58 -7.49319e-10 4.24851e-14)
(978.58 -6.59392e-10 4.24664e-14)
(978.58 -4.95808e-10 4.28326e-14)
(978.58 -2.10035e-10 4.73271e-14)
(978.58 2.57295e-10 4.89609e-14)
(978.58 9.91505e-10 4.75009e-14)
(978.58 2.06023e-09 4.79772e-14)
(978.58 3.5267e-09 4.70739e-14)
(978.58 5.56014e-09 4.60397e-14)
(978.58 8.51657e-09 4.77731e-14)
(978.58 1.29703e-08 4.82955e-14)
(978.58 1.96562e-08 4.71427e-14)
(978.58 2.96257e-08 4.86232e-14)
(978.58 4.45136e-08 4.80868e-14)
(978.58 6.67818e-08 4.82221e-14)
(978.58 1.0041e-07 5.03001e-14)
(978.58 1.50685e-07 5.12185e-14)
(978.58 2.31736e-07 5.00947e-14)
(978.58 3.56063e-07 5.09663e-14)
(978.58 -9.15979e-10 5.43019e-14)
(978.58 -9.28341e-10 5.68773e-14)
(978.58 -9.40069e-10 5.72345e-14)
(978.58 -9.52081e-10 5.57135e-14)
(978.58 -9.63121e-10 5.38167e-14)
(978.58 -9.75272e-10 5.4926e-14)
(978.58 -9.88584e-10 5.64049e-14)
(978.58 -9.98873e-10 5.70329e-14)
(978.58 -1.00824e-09 5.78878e-14)
(978.58 -1.01428e-09 5.72043e-14)
(978.58 -1.01541e-09 5.61949e-14)
(978.58 -1.0173e-09 5.50941e-14)
(978.58 -1.01629e-09 5.31976e-14)
(978.58 -1.01131e-09 5.32406e-14)
(978.58 -9.88869e-10 5.62528e-14)
(978.58 -9.50337e-10 5.82582e-14)
(978.58 -8.90425e-10 6.04061e-14)
(978.58 -7.76451e-10 5.78206e-14)
(978.58 -5.74123e-10 5.63958e-14)
(978.58 -2.36687e-10 5.9414e-14)
(978.58 3.01212e-10 5.67052e-14)
(978.58 1.12209e-09 5.7821e-14)
(978.58 2.25406e-09 6.33944e-14)
(978.58 3.79701e-09 6.19542e-14)
(978.58 5.96241e-09 6.17288e-14)
(978.58 9.14385e-09 6.26166e-14)
(978.58 1.38715e-08 6.13245e-14)
(978.58 2.08699e-08 5.54131e-14)
(978.58 3.12149e-08 5.50438e-14)
(978.58 4.65468e-08 5.66697e-14)
(978.58 6.92883e-08 6.17566e-14)
(978.58 1.03063e-07 6.50313e-14)
(978.58 1.53385e-07 6.14047e-14)
(978.58 2.28456e-07 6.07169e-14)
(978.58 3.4138e-07 6.16286e-14)
(978.58 5.09467e-07 6.29962e-14)
(978.58 7.78689e-07 6.40675e-14)
(978.58 1.18911e-06 6.44027e-14)
(978.58 -1.08877e-09 7.04961e-14)
(978.58 -1.10198e-09 6.9801e-14)
(978.58 -1.11648e-09 6.53254e-14)
(978.58 -1.1289e-09 6.20467e-14)
(978.58 -1.13931e-09 6.5462e-14)
(978.58 -1.14834e-09 6.59677e-14)
(978.58 -1.15312e-09 6.4417e-14)
(978.58 -1.15831e-09 7.34594e-14)
(978.58 -1.16105e-09 7.30341e-14)
(978.58 -1.15765e-09 6.91837e-14)
(978.58 -1.15036e-09 6.88292e-14)
(978.58 -1.11439e-09 6.69581e-14)
(978.58 -1.06934e-09 6.65162e-14)
(978.58 -9.89485e-10 6.79882e-14)
(978.58 -8.42656e-10 6.77117e-14)
(978.58 -5.91436e-10 6.98727e-14)
(978.58 -1.85583e-10 7.28355e-14)
(978.58 4.44722e-10 7.05128e-14)
(978.58 1.34509e-09 7.00081e-14)
(978.58 2.55675e-09 7.33649e-14)
(978.58 4.21672e-09 7.32338e-14)
(978.58 6.57895e-09 7.45552e-14)
(978.58 1.00522e-08 7.31755e-14)
(978.58 1.51584e-08 7.11482e-14)
(978.58 2.26388e-08 7.14883e-14)
(978.58 3.35926e-08 7.69413e-14)
(978.58 4.96746e-08 7.68026e-14)
(978.58 7.33258e-08 7.05963e-14)
(978.58 1.08162e-07 7.30145e-14)
(978.58 1.59564e-07 7.31208e-14)
(978.58 2.35559e-07 7.16585e-14)
(978.58 3.48119e-07 7.28419e-14)
(978.58 5.15261e-07 7.3998e-14)
(978.58 7.63608e-07 7.72435e-14)
(978.58 1.13555e-06 7.5466e-14)
(978.58 1.68711e-06 7.21706e-14)
(978.58 2.56549e-06 7.4058e-14)
(978.58 3.89715e-06 7.52081e-14)
(978.58 -1.25149e-09 7.91439e-14)
(978.58 -1.26158e-09 7.87366e-14)
(978.58 -1.26781e-09 8.17304e-14)
(978.58 -1.27336e-09 8.28866e-14)
(978.58 -1.27752e-09 7.99646e-14)
(978.58 -1.27823e-09 7.7377e-14)
(978.58 -1.27614e-09 8.03968e-14)
(978.58 -1.25223e-09 8.23508e-14)
(978.58 -1.21468e-09 7.8492e-14)
(978.58 -1.15383e-09 8.25863e-14)
(978.58 -1.04602e-09 8.20279e-14)
(978.58 -8.50839e-10 8.04114e-14)
(978.58 -5.34978e-10 8.0209e-14)
(978.58 -4.44529e-11 7.97094e-14)
(978.58 6.89808e-10 8.02275e-14)
(978.58 1.67869e-09 8.37054e-14)
(978.58 3.00299e-09 8.49684e-14)
(978.58 4.83085e-09 8.59503e-14)
(978.58 7.47464e-09 8.39178e-14)
(978.58 1.13382e-08 8.5778e-14)
(978.58 1.69423e-08 8.44889e-14)
(978.58 2.50571e-08 8.38846e-14)
(978.58 3.68465e-08 8.35584e-14)
(978.58 5.40169e-08 8.51032e-14)
(978.58 7.90562e-08 8.3945e-14)
(978.58 1.15623e-07 8.74225e-14)
(978.58 1.69123e-07 8.62943e-14)
(978.58 2.47527e-07 8.04965e-14)
(978.58 3.62622e-07 8.2104e-14)
(978.58 5.31882e-07 8.51479e-14)
(978.58 7.8127e-07 8.55112e-14)
(978.58 1.14935e-06 8.59672e-14)
(978.58 1.69389e-06 8.87206e-14)
(978.58 2.50011e-06 9.10276e-14)
(978.58 3.70306e-06 9.07363e-14)
(978.58 5.48086e-06 8.78489e-14)
(978.58 8.29582e-06 8.84939e-14)
(978.58 1.25397e-05 8.89196e-14)
(978.58 -1.38124e-09 9.29921e-14)
(978.58 -1.38377e-09 9.39341e-14)
(978.58 -1.38223e-09 9.56372e-14)
(978.58 -1.36584e-09 9.72341e-14)
(978.58 -1.33413e-09 9.36817e-14)
(978.58 -1.28499e-09 9.08514e-14)
(978.58 -1.20127e-09 9.33625e-14)
(978.58 -1.04806e-09 9.5328e-14)
(978.58 -7.94937e-10 9.76328e-14)
(978.58 -3.98612e-10 9.5467e-14)
(978.58 2.017e-10 9.41251e-14)
(978.58 1.03628e-09 9.42336e-14)
(978.58 2.13712e-09 9.40293e-14)
(978.58 3.61739e-09 9.52398e-14)
(978.58 5.69492e-09 9.54553e-14)
(978.58 8.70607e-09 9.81248e-14)
(978.58 1.30547e-08 9.8971e-14)
(978.58 1.92953e-08 9.64091e-14)
(978.58 2.82623e-08 9.60855e-14)
(978.58 4.11818e-08 9.62784e-14)
(978.58 5.98243e-08 9.49957e-14)
(978.58 8.67719e-08 9.66651e-14)
(978.58 1.25806e-07 9.41126e-14)
(978.58 1.82443e-07 9.47328e-14)
(978.58 2.64746e-07 9.54647e-14)
(978.58 3.84532e-07 9.97743e-14)
(978.58 5.59179e-07 9.66729e-14)
(978.58 8.14273e-07 9.66305e-14)
(978.58 1.18754e-06 9.97384e-14)
(978.58 1.73466e-06 1.01037e-13)
(978.58 2.53806e-06 1.01579e-13)
(978.58 3.71977e-06 1.00892e-13)
(978.58 5.46204e-06 1.01085e-13)
(978.58 8.03276e-06 1.00063e-13)
(978.58 1.1854e-05 1.02549e-13)
(978.58 1.74814e-05 1.03929e-13)
(978.58 2.63399e-05 9.95042e-14)
(978.58 3.96226e-05 9.63955e-14)
(978.58 -1.46249e-09 1.07511e-13)
(978.58 -1.43486e-09 1.08023e-13)
(978.58 -1.39436e-09 1.09887e-13)
(978.58 -1.32584e-09 1.09102e-13)
(978.58 -1.1994e-09 1.09206e-13)
(978.58 -9.87079e-10 1.10392e-13)
(978.58 -6.54709e-10 1.1217e-13)
(978.58 -1.51416e-10 1.09488e-13)
(978.58 5.62554e-10 1.09344e-13)
(978.58 1.50246e-09 1.0673e-13)
(978.58 2.74745e-09 1.05737e-13)
(978.58 4.45723e-09 1.08293e-13)
(978.58 6.89163e-09 1.04037e-13)
(978.58 1.03735e-08 1.09408e-13)
(978.58 1.53298e-08 1.09368e-13)
(978.58 2.23816e-08 1.10327e-13)
(978.58 3.2446e-08 1.08358e-13)
(978.58 4.68294e-08 1.06392e-13)
(978.58 6.74029e-08 1.06735e-13)
(978.58 9.68929e-08 1.08243e-13)
(978.58 1.39254e-07 1.07759e-13)
(978.58 2.00206e-07 1.07885e-13)
(978.58 2.88042e-07 1.05992e-13)
(978.58 4.14829e-07 1.06018e-13)
(978.58 5.98157e-07 1.08812e-13)
(978.58 8.63689e-07 1.10761e-13)
(978.58 1.24894e-06 1.11179e-13)
(978.58 1.80885e-06 1.08972e-13)
(978.58 2.62404e-06 1.09398e-13)
(978.58 3.81289e-06 1.10606e-13)
(978.58 5.54964e-06 1.12235e-13)
(978.58 8.09128e-06 1.12479e-13)
(978.58 1.18171e-05 1.12969e-13)
(978.58 1.72913e-05 1.12326e-13)
(978.58 2.53407e-05 1.15883e-13)
(978.58 3.72602e-05 1.14557e-13)
(978.58 5.47525e-05 1.11055e-13)
(978.58 8.21334e-05 1.10004e-13)
(978.58 0.000122973 1.09924e-13)
(978.58 -1.31815e-09 1.20401e-13)
(978.58 -1.13401e-09 1.1981e-13)
(978.58 -8.45593e-10 1.22264e-13)
(978.58 -4.09669e-10 1.25633e-13)
(978.58 2.18152e-10 1.24178e-13)
(978.58 1.04538e-09 1.24879e-13)
(978.58 2.12893e-09 1.23171e-13)
(978.58 3.58537e-09 1.19432e-13)
(978.58 5.62244e-09 1.18525e-13)
(978.58 8.50932e-09 1.18495e-13)
(978.58 1.25838e-08 1.20839e-13)
(978.58 1.8321e-08 1.1727e-13)
(978.58 2.64206e-08 1.17888e-13)
(978.58 3.78864e-08 1.22486e-13)
(978.58 5.41394e-08 1.21879e-13)
(978.58 7.72131e-08 1.21246e-13)
(978.58 1.10023e-07 1.19112e-13)
(978.58 1.56751e-07 1.22037e-13)
(978.58 2.23415e-07 1.21037e-13)
(978.58 3.18697e-07 1.2071e-13)
(978.58 4.55117e-07 1.18944e-13)
(978.58 6.50755e-07 1.18865e-13)
(978.58 9.31771e-07 1.19014e-13)
(978.58 1.33611e-06 1.21522e-13)
(978.58 1.91887e-06 1.23215e-13)
(978.58 2.76026e-06 1.23352e-13)
(978.58 3.9771e-06 1.21935e-13)
(978.58 5.73995e-06 1.18705e-13)
(978.58 8.2981e-06 1.20543e-13)
(978.58 1.20166e-05 1.25365e-13)
(978.58 1.7431e-05 1.2542e-13)
(978.58 2.53286e-05 1.2513e-13)
(978.58 3.68672e-05 1.24794e-13)
(978.58 5.37628e-05 1.24867e-13)
(978.58 7.85204e-05 1.25714e-13)
(978.58 0.000115043 1.23303e-13)
(978.58 0.000168454 1.21902e-13)
(978.58 0.000251588 1.25053e-13)
(978.58 0.000374939 1.25692e-13)
(978.58 -2.74972e-11 1.38959e-13)
(978.58 7.21355e-10 1.37373e-13)
(978.58 1.68954e-09 1.36161e-13)
(978.58 2.97075e-09 1.3609e-13)
(978.58 4.73024e-09 1.33786e-13)
(978.58 7.20901e-09 1.35389e-13)
(978.58 1.06766e-08 1.36945e-13)
(978.58 1.55067e-08 1.34456e-13)
(978.58 2.22513e-08 1.31264e-13)
(978.58 3.1703e-08 1.33078e-13)
(978.58 4.49717e-08 1.3245e-13)
(978.58 6.36262e-08 1.32146e-13)
(978.58 8.98986e-08 1.30373e-13)
(978.58 1.26962e-07 1.31005e-13)
(978.58 1.79325e-07 1.37038e-13)
(978.58 2.53415e-07 1.37542e-13)
(978.58 3.58434e-07 1.37328e-13)
(978.58 5.07557e-07 1.33542e-13)
(978.58 7.19673e-07 1.30169e-13)
(978.58 1.02189e-06 1.3111e-13)
(978.58 1.4532e-06 1.32724e-13)
(978.58 2.06977e-06 1.32245e-13)
(978.58 2.95269e-06 1.30721e-13)
(978.58 4.21917e-06 1.31869e-13)
(978.58 6.03891e-06 1.34112e-13)
(978.58 8.658e-06 1.35446e-13)
(978.58 1.24338e-05 1.31001e-13)
(978.58 1.78863e-05 1.32268e-13)
(978.58 2.57729e-05 1.3676e-13)
(978.58 3.71995e-05 1.38747e-13)
(978.58 5.37826e-05 1.37296e-13)
(978.58 7.78902e-05 1.34849e-13)
(978.58 0.000112993 1.35093e-13)
(978.58 0.000164214 1.36267e-13)
(978.58 0.00023901 1.37207e-13)
(978.58 0.000348936 1.36757e-13)
(978.579 0.000509133 1.38207e-13)
(978.579 0.0007571 1.38371e-13)
(978.579 0.00112315 1.36468e-13)
(978.58 2.55659e-09 1.51855e-13)
(978.58 4.13233e-09 1.49421e-13)
(978.58 6.32175e-09 1.49014e-13)
(978.58 9.36042e-09 1.50128e-13)
(978.58 1.35604e-08 1.49809e-13)
(978.58 1.9369e-08 1.50053e-13)
(978.58 2.74265e-08 1.50216e-13)
(978.58 3.86229e-08 1.49871e-13)
(978.58 5.4209e-08 1.47707e-13)
(978.58 7.59478e-08 1.48874e-13)
(978.58 1.0632e-07 1.46615e-13)
(978.58 1.48818e-07 1.4604e-13)
(978.58 2.08377e-07 1.43029e-13)
(978.58 2.91981e-07 1.4195e-13)
(978.58 4.0954e-07 1.46525e-13)
(978.58 5.75124e-07 1.47519e-13)
(978.58 8.08751e-07 1.45673e-13)
(978.58 1.13895e-06 1.45353e-13)
(978.58 1.60642e-06 1.44796e-13)
(978.58 2.26935e-06 1.42465e-13)
(978.58 3.21101e-06 1.40422e-13)
(978.58 4.55083e-06 1.42571e-13)
(978.58 6.46033e-06 1.43087e-13)
(978.58 9.18627e-06 1.42134e-13)
(978.58 1.30841e-05 1.44743e-13)
(978.58 1.8667e-05 1.48157e-13)
(978.58 2.66766e-05 1.44177e-13)
(978.58 3.81865e-05 1.42549e-13)
(978.58 5.47538e-05 1.46014e-13)
(978.58 7.86399e-05 1.47152e-13)
(978.58 0.000113134 1.48852e-13)
(978.58 0.00016303 1.46706e-13)
(978.58 0.000235325 1.47128e-13)
(978.58 0.000340239 1.48991e-13)
(978.579 0.000492805 1.51446e-13)
(978.579 0.000714823 1.50218e-13)
(978.579 0.00103989 1.4907e-13)
(978.578 0.00151197 1.49364e-13)
(978.577 0.00223866 1.47774e-13)
(978.576 0.00330598 1.48504e-13)
(978.58 1.22806e-08 1.65569e-13)
(978.58 1.74375e-08 1.6494e-13)
(978.58 2.45189e-08 1.63588e-13)
(978.58 3.42731e-08 1.61504e-13)
(978.58 4.77277e-08 1.62254e-13)
(978.58 6.63096e-08 1.63407e-13)
(978.58 9.20196e-08 1.6394e-13)
(978.58 1.27651e-07 1.61924e-13)
(978.58 1.7711e-07 1.61563e-13)
(978.58 2.45874e-07 1.62208e-13)
(978.58 3.41645e-07 1.5681e-13)
(978.58 4.75254e-07 1.57767e-13)
(978.58 6.61964e-07 1.57198e-13)
(978.58 9.23309e-07 1.57112e-13)
(978.58 1.28974e-06 1.58361e-13)
(978.58 1.80437e-06 1.57609e-13)
(978.58 2.52835e-06 1.54767e-13)
(978.58 3.54852e-06 1.53695e-13)
(978.58 4.98841e-06 1.55643e-13)
(978.58 7.02409e-06 1.54401e-13)
(978.58 9.90683e-06 1.5773e-13)
(978.58 1.39959e-05 1.58996e-13)
(978.58 1.98057e-05 1.59565e-13)
(978.58 2.8074e-05 1.57088e-13)
(978.58 3.98605e-05 1.56009e-13)
(978.58 5.66898e-05 1.56822e-13)
(978.58 8.07583e-05 1.55984e-13)
(978.58 0.000115235 1.55638e-13)
(978.58 0.000164702 1.57035e-13)
(978.58 0.000235789 1.59408e-13)
(978.58 0.000338113 1.59712e-13)
(978.579 0.000485633 1.59378e-13)
(978.579 0.000698662 1.59202e-13)
(978.579 0.00100676 1.60996e-13)
(978.578 0.00145324 1.61737e-13)
(978.577 0.00210072 1.57979e-13)
(978.576 0.00304519 1.59852e-13)
(978.575 0.00441195 1.61411e-13)
(978.572 0.00650438 1.61421e-13)
(978.569 0.00956213 1.61105e-13)
(978.58 4.34289e-08 1.77299e-13)
(978.58 5.98197e-08 1.75224e-13)
(978.58 8.22832e-08 1.76001e-13)
(978.58 1.13126e-07 1.76726e-13)
(978.58 1.55534e-07 1.77231e-13)
(978.58 2.13937e-07 1.77911e-13)
(978.58 2.94507e-07 1.73586e-13)
(978.58 4.05848e-07 1.71782e-13)
(978.58 5.59962e-07 1.75729e-13)
(978.58 7.73631e-07 1.74772e-13)
(978.58 1.07036e-06 1.71028e-13)
(978.58 1.48313e-06 1.74604e-13)
(978.58 2.05827e-06 1.72856e-13)
(978.58 2.86097e-06 1.70068e-13)
(978.58 3.98314e-06 1.69571e-13)
(978.58 5.55453e-06 1.65676e-13)
(978.58 7.75865e-06 1.65253e-13)
(978.58 1.08554e-05 1.67957e-13)
(978.58 1.52134e-05 1.68967e-13)
(978.58 2.13564e-05 1.71293e-13)
(978.58 3.00298e-05 1.75763e-13)
(978.58 4.22957e-05 1.71451e-13)
(978.58 5.96701e-05 1.70028e-13)
(978.58 8.432e-05 1.69897e-13)
(978.58 0.000119348 1.69148e-13)
(978.58 0.000169204 1.69001e-13)
(978.58 0.000240277 1.67878e-13)
(978.58 0.00034176 1.67541e-13)
(978.579 0.000486896 1.74583e-13)
(978.579 0.000694791 1.71299e-13)
(978.579 0.000993051 1.68044e-13)
(978.578 0.00142163 1.67818e-13)
(978.577 0.00203845 1.68672e-13)
(978.576 0.00292752 1.72185e-13)
(978.575 0.00421149 1.74045e-13)
(978.573 0.00606698 1.72958e-13)
(978.569 0.00876336 1.7163e-13)
(978.565 0.0126514 1.73103e-13)
(978.558 0.0185714 1.77117e-13)
(978.548 0.0271786 1.74536e-13)
(978.58 1.41049e-07 1.90138e-13)
(978.58 1.92226e-07 1.90731e-13)
(978.58 2.62167e-07 1.89784e-13)
(978.58 3.57917e-07 1.87711e-13)
(978.58 4.8921e-07 1.88243e-13)
(978.58 6.6953e-07 1.89386e-13)
(978.58 9.17597e-07 1.86993e-13)
(978.58 1.25943e-06 1.82869e-13)
(978.58 1.73126e-06 1.86729e-13)
(978.58 2.38358e-06 1.87117e-13)
(978.58 3.28697e-06 1.84644e-13)
(978.58 4.54013e-06 1.87322e-13)
(978.58 6.28135e-06 1.82792e-13)
(978.58 8.7047e-06 1.79753e-13)
(978.58 1.20829e-05 1.81658e-13)
(978.58 1.67999e-05 1.80311e-13)
(978.58 2.33968e-05 1.78517e-13)
(978.58 3.26377e-05 1.81845e-13)
(978.58 4.56034e-05 1.8353e-13)
(978.58 6.38243e-05 1.86179e-13)
(978.58 8.94716e-05 1.85303e-13)
(978.58 0.00012563 1.81441e-13)
(978.58 0.00017669 1.83727e-13)
(978.58 0.000248907 1.82215e-13)
(978.58 0.000351211 1.79841e-13)
(978.579 0.000496366 1.82305e-13)
(978.579 0.000702646 1.78332e-13)
(978.579 0.000996244 1.81255e-13)
(978.578 0.00141477 1.81599e-13)
(978.577 0.00201231 1.79534e-13)
(978.576 0.00286675 1.82135e-13)
(978.575 0.00409039 1.83716e-13)
(978.573 0.00584556 1.81977e-13)
(978.57 0.00836672 1.81572e-13)
(978.565 0.0119949 1.85082e-13)
(978.559 0.0172196 1.85425e-13)
(978.55 0.0247832 1.86027e-13)
(978.537 0.0356501 1.86553e-13)
(978.517 0.0521041 1.85689e-13)
(978.49 0.075902 1.85099e-13)
(978.58 4.41201e-07 2.03741e-13)
(978.58 5.98202e-07 2.03298e-13)
(978.58 8.12192e-07 2.0183e-13)
(978.58 1.10434e-06 2.00433e-13)
(978.58 1.50384e-06 1.99023e-13)
(978.58 2.05105e-06 1.98883e-13)
(978.58 2.80181e-06 1.99676e-13)
(978.58 3.83354e-06 1.98686e-13)
(978.58 5.25373e-06 1.99612e-13)
(978.58 7.21182e-06 1.9838e-13)
(978.58 9.91592e-06 1.97979e-13)
(978.58 1.36563e-05 1.98361e-13)
(978.58 1.88385e-05 1.94082e-13)
(978.58 2.60298e-05 1.94193e-13)
(978.58 3.60253e-05 1.9616e-13)
(978.58 4.99409e-05 1.94824e-13)
(978.58 6.93454e-05 1.94179e-13)
(978.58 9.64474e-05 1.94777e-13)
(978.58 0.000134361 1.94243e-13)
(978.58 0.000187484 1.957e-13)
(978.58 0.000262035 1.95227e-13)
(978.58 0.000366823 1.93241e-13)
(978.579 0.000514341 1.93591e-13)
(978.579 0.000722336 1.93064e-13)
(978.579 0.00101606 1.93056e-13)
(978.578 0.00143148 1.92692e-13)
(978.577 0.00201992 1.93614e-13)
(978.576 0.00285475 1.93584e-13)
(978.575 0.00404092 1.91489e-13)
(978.573 0.0057289 1.9479e-13)
(978.57 0.00813451 1.95331e-13)
(978.566 0.0115681 1.97228e-13)
(978.56 0.0164759 1.93088e-13)
(978.551 0.0235014 1.93707e-13)
(978.539 0.0335755 1.96697e-13)
(978.521 0.0480297 1.98942e-13)
(978.496 0.0688724 1.98023e-13)
(978.461 0.0987041 1.96154e-13)
(978.407 0.143616 1.96139e-13)
(978.333 0.208213 1.9916e-13)
(978.58 1.34813e-06 2.17249e-13)
(978.58 1.82157e-06 2.16419e-13)
(978.58 2.46513e-06 2.15601e-13)
(978.58 3.34138e-06 2.12328e-13)
(978.58 4.5364e-06 2.12332e-13)
(978.58 6.16884e-06 2.15561e-13)
(978.58 8.40241e-06 2.14229e-13)
(978.58 1.14634e-05 2.10766e-13)
(978.58 1.56653e-05 2.12405e-13)
(978.58 2.14424e-05 2.1293e-13)
(978.58 2.93983e-05 2.11497e-13)
(978.58 4.03725e-05 2.11074e-13)
(978.58 5.55341e-05 2.07476e-13)
(978.58 7.65147e-05 2.08897e-13)
(978.58 0.000105594 2.10619e-13)
(978.58 0.00014596 2.07629e-13)
(978.58 0.000202085 2.09253e-13)
(978.58 0.000280241 2.11115e-13)
(978.579 0.000389246 2.08715e-13)
(978.579 0.000541515 2.07497e-13)
(978.579 0.000754549 2.06303e-13)
(978.579 0.00105306 2.04632e-13)
(978.578 0.00147199 2.08494e-13)
(978.577 0.00206083 2.09068e-13)
(978.576 0.00288974 2.09299e-13)
(978.575 0.0040584 2.06986e-13)
(978.573 0.00570853 2.04551e-13)
(978.57 0.00804197 2.04218e-13)
(978.566 0.0113465 2.03999e-13)
(978.56 0.0160331 2.06455e-13)
(978.552 0.0226897 2.05634e-13)
(978.54 0.0321572 2.05272e-13)
(978.523 0.0456431 2.06861e-13)
(978.5 0.0648763 2.06851e-13)
(978.467 0.0923541 2.04704e-13)
(978.42 0.131627 2.07229e-13)
(978.352 0.188023 2.07758e-13)
(978.256 0.26841 2.06412e-13)
(978.114 0.388691 2.08177e-13)
(977.917 0.560598 2.10277e-13)
(978.58 4.04149e-06 2.33717e-13)
(978.58 5.445e-06 2.31539e-13)
(978.58 7.34787e-06 2.28317e-13)
(978.58 9.93196e-06 2.26886e-13)
(978.58 1.34468e-05 2.26957e-13)
(978.58 1.82354e-05 2.26004e-13)
(978.58 2.47697e-05 2.26251e-13)
(978.58 3.37006e-05 2.25286e-13)
(978.58 4.59266e-05 2.26471e-13)
(978.58 6.26898e-05 2.23004e-13)
(978.58 8.57104e-05 2.21189e-13)
(978.58 0.000117374 2.22048e-13)
(978.58 0.000160993 2.21228e-13)
(978.58 0.000221177 2.23055e-13)
(978.58 0.000304348 2.229e-13)
(978.579 0.000419466 2.24857e-13)
(978.579 0.000579048 2.24479e-13)
(978.579 0.000800616 2.21791e-13)
(978.579 0.00110872 2.22238e-13)
(978.578 0.00153782 2.22235e-13)
(978.577 0.00213634 2.17697e-13)
(978.576 0.00297245 2.18279e-13)
(978.575 0.0041422 2.19223e-13)
(978.572 0.0057812 2.17872e-13)
(978.57 0.00808108 2.19291e-13)
(978.565 0.0113131 2.17341e-13)
(978.56 0.0158615 2.17816e-13)
(978.552 0.022272 2.17312e-13)
(978.54 0.0313197 2.15806e-13)
(978.525 0.0441076 2.1844e-13)
(978.502 0.0622061 2.19831e-13)
(978.471 0.0878558 2.20374e-13)
(978.427 0.124253 2.2104e-13)
(978.364 0.175967 2.17511e-13)
(978.275 0.249537 2.18338e-13)
(978.149 0.354251 2.21426e-13)
(977.97 0.503911 2.21939e-13)
(977.716 0.716214 2.20819e-13)
(977.344 1.03163 2.21669e-13)
(976.831 1.4789 2.23744e-13)
(978.58 8.87659e-06 2.47572e-13)
(978.58 1.19077e-05 2.4822e-13)
(978.58 1.59999e-05 2.43784e-13)
(978.58 2.15335e-05 2.42801e-13)
(978.58 2.90282e-05 2.43126e-13)
(978.58 3.9195e-05 2.39297e-13)
(978.58 5.30084e-05 2.41424e-13)
(978.58 7.1806e-05 2.37914e-13)
(978.58 9.74267e-05 2.36311e-13)
(978.58 0.000132402 2.38099e-13)
(978.58 0.000180224 2.35673e-13)
(978.58 0.000245712 2.33463e-13)
(978.58 0.000335536 2.33704e-13)
(978.579 0.00045893 2.35352e-13)
(978.579 0.000628702 2.34458e-13)
(978.579 0.000862641 2.34956e-13)
(978.578 0.00118549 2.36745e-13)
(978.578 0.00163173 2.32798e-13)
(978.577 0.00224945 2.31437e-13)
(978.576 0.00310583 2.32176e-13)
(978.574 0.00429486 2.31726e-13)
(978.572 0.00594822 2.30176e-13)
(978.569 0.00825065 2.31174e-13)
(978.565 0.0114617 2.28774e-13)
(978.559 0.0159464 2.28295e-13)
(978.551 0.022219 2.32991e-13)
(978.54 0.031005 2.31052e-13)
(978.525 0.0433284 2.29351e-13)
(978.503 0.060637 2.2945e-13)
(978.473 0.0849799 2.31991e-13)
(978.431 0.11926 2.31657e-13)
(978.371 0.167595 2.27665e-13)
(978.288 0.235822 2.32668e-13)
(978.17 0.332242 2.34493e-13)
(978.005 0.468619 2.30738e-13)
(977.772 0.661763 2.32724e-13)
(977.443 0.935182 2.35093e-13)
(976.977 1.32376 2.34345e-13)
(976.321 1.87152 2.33374e-13)
(975.369 2.67798 2.34523e-13)
(974.067 3.8089 2.33539e-13)
(978.58 2.5784e-05 2.63801e-13)
(978.58 3.44977e-05 2.60609e-13)
(978.58 4.6231e-05 2.55167e-13)
(978.58 6.20551e-05 2.56637e-13)
(978.58 8.34304e-05 2.55654e-13)
(978.58 0.00011235 2.52681e-13)
(978.58 0.000151538 2.51922e-13)
(978.58 0.000204723 2.5074e-13)
(978.58 0.000277018 2.52686e-13)
(978.579 0.000375441 2.52981e-13)
(978.579 0.000509642 2.48384e-13)
(978.579 0.000692903 2.48287e-13)
(978.579 0.000943541 2.4937e-13)
(978.578 0.00128685 2.48679e-13)
(978.578 0.00175781 2.46893e-13)
(978.577 0.00240488 2.48339e-13)
(978.576 0.00329524 2.48183e-13)
(978.574 0.00452221 2.45491e-13)
(978.572 0.00621556 2.44552e-13)
(978.569 0.00855605 2.44288e-13)
(978.564 0.0117957 2.43893e-13)
(978.559 0.0162865 2.45259e-13)
(978.55 0.0225204 2.40211e-13)
(978.539 0.0311864 2.37229e-13)
(978.524 0.0432502 2.43762e-13)
(978.503 0.0600666 2.45668e-13)
(978.473 0.0835392 2.41302e-13)
(978.432 0.116345 2.41256e-13)
(978.375 0.162253 2.41569e-13)
(978.295 0.226571 2.42857e-13)
(978.184 0.316779 2.41741e-13)
(978.028 0.443429 2.43579e-13)
(977.811 0.621403 2.46678e-13)
(977.506 0.871653 2.45182e-13)
(977.079 1.2237 2.46628e-13)
(976.479 1.71908 2.45251e-13)
(975.639 2.41582 2.43831e-13)
(974.458 3.39738 2.46312e-13)
(972.814 4.76818 2.48707e-13)
(970.458 6.7593 2.45306e-13)
(967.288 9.50328 2.45113e-13)
(978.58 5.52942e-05 2.76408e-13)
(978.58 7.36708e-05 2.74764e-13)
(978.58 9.83132e-05 2.6746e-13)
(978.58 0.000131409 2.68922e-13)
(978.58 0.000175929 2.70885e-13)
(978.58 0.000235906 2.67371e-13)
(978.58 0.000316833 2.67386e-13)
(978.579 0.000426194 2.68422e-13)
(978.579 0.000574208 2.66315e-13)
(978.579 0.000774841 2.68386e-13)
(978.579 0.00104722 2.67085e-13)
(978.578 0.00141756 2.61298e-13)
(978.577 0.00192186 2.61607e-13)
(978.576 0.00260964 2.61613e-13)
(978.575 0.00354905 2.61033e-13)
(978.573 0.00483404 2.62094e-13)
(978.571 0.00659435 2.62508e-13)
(978.568 0.00900934 2.57484e-13)
(978.563 0.0123273 2.54375e-13)
(978.557 0.0168924 2.54907e-13)
(978.549 0.0231824 2.56361e-13)
(978.538 0.0318614 2.56795e-13)
(978.522 0.0438534 2.54657e-13)
(978.501 0.0604454 2.5407e-13)
(978.472 0.0834324 2.56777e-13)
(978.431 0.115321 2.57671e-13)
(978.375 0.159614 2.56155e-13)
(978.298 0.221209 2.54999e-13)
(978.19 0.306956 2.53879e-13)
(978.042 0.426452 2.53421e-13)
(977.835 0.593133 2.56547e-13)
(977.548 0.825798 2.58804e-13)
(977.149 1.1507 2.53564e-13)
(976.593 1.60455 2.50896e-13)
(975.819 2.23853 2.53278e-13)
(974.742 3.12349 2.54996e-13)
(973.245 4.35754 2.55317e-13)
(971.169 6.07309 2.55727e-13)
(968.292 8.46008 2.59242e-13)
(964.359 11.7367 2.5842e-13)
(958.862 16.3894 2.55633e-13)
(951.693 22.607 2.56605e-13)
(978.58 0.000117443 2.88006e-13)
(978.58 0.000155826 2.86395e-13)
(978.58 0.000207081 2.83908e-13)
(978.58 0.000275632 2.84107e-13)
(978.579 0.000367455 2.8469e-13)
(978.579 0.000490642 2.82849e-13)
(978.579 0.000656159 2.8149e-13)
(978.579 0.000878896 2.82551e-13)
(978.578 0.00117909 2.81485e-13)
(978.578 0.00158429 2.80561e-13)
(978.577 0.00213205 2.80751e-13)
(978.576 0.00287365 2.76445e-13)
(978.575 0.00387914 2.73849e-13)
(978.573 0.00524444 2.74957e-13)
(978.57 0.00710102 2.74851e-13)
(978.567 0.00962937 2.73963e-13)
(978.562 0.0130776 2.73723e-13)
(978.556 0.0177871 2.7051e-13)
(978.547 0.0242284 2.68198e-13)
(978.536 0.0330509 2.67388e-13)
(978.52 0.0451515 2.69962e-13)
(978.498 0.0617711 2.71288e-13)
(978.468 0.0846268 2.68334e-13)
(978.428 0.1161 2.66193e-13)
(978.372 0.159494 2.68828e-13)
(978.296 0.219395 2.68337e-13)
(978.191 0.302174 2.66883e-13)
(978.046 0.416682 2.6541e-13)
(977.847 0.575238 2.65547e-13)
(977.572 0.794953 2.64399e-13)
(977.192 1.09957 2.65928e-13)
(976.668 1.52201 2.68546e-13)
(975.944 2.10791 2.66044e-13)
(974.943 2.92022 2.62925e-13)
(973.561 4.04504 2.65751e-13)
(971.658 5.59971 2.66276e-13)
(969.044 7.74293 2.66885e-13)
(965.469 10.6863 2.69227e-13)
(960.618 14.7 2.68599e-13)
(954.084 20.1405 2.69622e-13)
(945.438 27.3971 2.69529e-13)
(933.864 37.2879 2.68261e-13)
(919.494 49.8633 2.69976e-13)
(978.58 0.000326482 3.01109e-13)
(978.579 0.000432077 3.0231e-13)
(978.579 0.000572729 3.01437e-13)
(978.579 0.000760361 2.98524e-13)
(978.579 0.00101105 2.96004e-13)
(978.578 0.00134647 2.9467e-13)
(978.577 0.00179595 2.95378e-13)
(978.577 0.00239918 2.94366e-13)
(978.575 0.00320994 2.92246e-13)
(978.574 0.00430125 2.9213e-13)
(978.572 0.00577232 2.90485e-13)
(978.569 0.00775825 2.87946e-13)
(978.565 0.0104432 2.89098e-13)
(978.56 0.0140785 2.87977e-13)
(978.554 0.0190076 2.87146e-13)
(978.545 0.0257004 2.86992e-13)
(978.532 0.0348008 2.84455e-13)
(978.516 0.0471918 2.85952e-13)
(978.494 0.0640862 2.84586e-13)
(978.463 0.0871505 2.8296e-13)
(978.422 0.118679 2.86052e-13)