/*--------------------------------*- C++ -*----------------------------------*\
| =========                 |                                                 |
| \\      /  F ield         | OpenFOAM: The Open Source CFD Toolbox           |
|  \\    /   O peration     | Version:  v1706                                 |
|   \\  /    A nd           | Web:      www.OpenFOAM.com                      |
|    \\/     M anipulation  |                                                 |
\*---------------------------------------------------------------------------*/
FoamFile
{
    version     2.0;
    format      ascii;
    class       volScalarField;
    location    "3.9e-05";
    object      wallHeatFlux;
}
// * * * * * * * * * * * * * * * * * * * * * * * * * * * * * * * * * * * * * //

dimensions      [1 0 -3 0 0 0 0];


internalField   uniform 0;

boundaryField
{
    cone
    {
        type            calculated;
        value           nonuniform List<scalar> 
153
(
11658.5
11534.1
11410.6
11287.8
11165.8
11044.4
10923.7
10803.8
10684.5
10566
10448.2
10331.2
10215
10099.7
9985.2
9871.62
9758.98
9647.29
9536.6
9426.95
9318.36
9210.86
9104.5
8999.32
8895.33
8792.58
8691.09
8590.89
8492.01
8394.48
8298.32
8203.55
8110.18
8018.21
7927.65
7838.5
7750.72
7664.31
7579.2
7495.36
7412.69
7331.1
7250.43
7170.48
7090.96
7011.43
6931.32
6847.73
6762.23
6678.86
6598.07
6519.27
6441.9
6365.73
6290.58
6216.31
6142.8
6069.95
5997.68
5925.91
5854.59
5783.65
5713.05
5642.74
5572.7
5502.87
5433.24
5363.76
5294.42
5225.19
5156.05
5086.97
5017.95
4948.96
4880
4811.05
4742.1
4673.15
4604.2
4535.23
4466.27
4397.3
4328.34
4259.39
4190.46
4121.58
4052.74
3983.98
3915.32
3846.77
3778.36
3710.13
3642.09
3574.28
3506.74
3439.5
3372.6
3306.06
3239.94
3174.27
3109.08
3044.43
2980.34
2916.86
2854.03
2791.88
2730.45
2669.78
2609.9
2550.84
2492.64
2435.31
2378.88
2323.38
2268.82
2215.22
2162.59
2110.94
2060.27
2010.58
1961.88
1914.16
1867.41
1821.64
1776.82
1732.96
1690.04
1648.05
1607
1566.89
1527.7
1489.46
1452.17
1415.85
1380.52
1346.21
1312.96
1280.8
1249.77
1219.92
1191.3
1163.94
1137.9
1113.19
1089.86
1067.92
1047.36
1028.18
1010.35
993.824
978.526
964.359
951.164
)
;
    }
    inlet
    {
        type            calculated;
        value           uniform 0;
    }
    rWedge
    {
        type            wedge;
    }
    lWedge
    {
        type            wedge;
    }
    outlet
    {
        type            calculated;
        value           nonuniform 0();
    }
    procBoundary2to0
    {
        type            processor;
        value           uniform 0;
    }
    procBoundary2to1
    {
        type            processor;
        value           uniform 0;
    }
    procBoundary2to3
    {
        type            processor;
        value           uniform 0;
    }
}


// ************************************************************************* //
