/*--------------------------------*- C++ -*----------------------------------*\
| =========                 |                                                 |
| \\      /  F ield         | OpenFOAM: The Open Source CFD Toolbox           |
|  \\    /   O peration     | Version:  v1706                                 |
|   \\  /    A nd           | Web:      www.OpenFOAM.com                      |
|    \\/     M anipulation  |                                                 |
\*---------------------------------------------------------------------------*/
FoamFile
{
    version     2.0;
    format      ascii;
    class       volScalarField;
    location    "1.8e-05";
    object      kappatr;
}
// * * * * * * * * * * * * * * * * * * * * * * * * * * * * * * * * * * * * * //

dimensions      [1 1 -3 -1 0 0 0];


internalField   nonuniform List<scalar> 
30038
(
0.014593
0.014593
0.014593
0.014593
0.014593
0.014593
0.014593
0.014593
0.014593
0.014593
0.014593
0.014593
0.014593
0.014593
0.014593
0.014593
0.014593
0.014593
0.014593
0.014593
0.014593
0.014593
0.014593
0.014593
0.014593
0.014593
0.014593
0.014593
0.014593
0.014593
0.014593
0.014593
0.014593
0.014593
0.014593
0.014593
0.014593
0.014593
0.014593
0.014593
0.014593
0.014593
0.014593
0.014593
0.014593
0.014593
0.014593
0.014593
0.014593
0.014593
0.014593
0.014593
0.014593
0.014593
0.014593
0.014593
0.014593
0.014593
0.014593
0.014593
0.014593
0.014593
0.014593
0.014593
0.014593
0.014593
0.014593
0.014593
0.014593
0.014593
0.014593
0.014593
0.014593
0.014593
0.014593
0.014593
0.014593
0.014593
0.014593
0.014593
0.014593
0.014593
0.014593
0.014593
0.014593
0.014593
0.014593
0.014593
0.014593
0.014593
0.014593
0.014593
0.014593
0.014593
0.014593
0.014593
0.014593
0.014593
0.014593
0.014593
0.014593
0.014593
0.014593
0.014593
0.014593
0.014593
0.014593
0.014593
0.014593
0.014593
0.014593
0.014593
0.014593
0.014593
0.014593
0.014593
0.014593
0.014593
0.014593
0.014593
0.014593
0.014593
0.014593
0.014593
0.014593
0.014593
0.014593
0.014593
0.014593
0.014593
0.014593
0.014593
0.014593
0.014593
0.014593
0.014593
0.014593
0.014593
0.014593
0.014593
0.014593
0.014593
0.014593
0.014593
0.014593
0.014593
0.014593
0.014593
0.014593
0.014593
0.014593
0.014593
0.014593
0.014593
0.014593
0.014593
0.014593
0.014593
0.014593
0.014593
0.014593
0.014593
0.014593
0.014593
0.014593
0.014593
0.014593
0.014593
0.014593
0.014593
0.014593
0.014593
0.014593
0.014593
0.014593
0.014593
0.014593
0.014593
0.014593
0.014593
0.014593
0.014593
0.014593
0.014593
0.014593
0.014593
0.014593
0.014593
0.014593
0.014593
0.014593
0.014593
0.014593
0.014593
0.014593
0.014593
0.014593
0.014593
0.014593
0.014593
0.014593
0.014593
0.014593
0.014593
0.014593
0.014593
0.014593
0.014593
0.014593
0.014593
0.014593
0.014593
0.014593
0.014593
0.014593
0.014593
0.014593
0.014593
0.014593
0.014593
0.014593
0.014593
0.014593
0.014593
0.014593
0.014593
0.014593
0.014593
0.014593
0.014593
0.014593
0.014593
0.014593
0.014593
0.014593
0.014593
0.014593
0.014593
0.014593
0.014593
0.014593
0.014593
0.014593
0.014593
0.014593
0.014593
0.014593
0.014593
0.014593
0.014593
0.014593
0.014593
0.014593
0.014593
0.014593
0.014593
0.014593
0.014593
0.014593
0.014593
0.014593
0.014593
0.014593
0.014593
0.014593
0.014593
0.014593
0.014593
0.014593
0.014593
0.014593
0.014593
0.014593
0.014593
0.014593
0.014593
0.014593
0.014593
0.014593
0.014593
0.014593
0.014593
0.014593
0.014593
0.014593
0.014593
0.014593
0.014593
0.014593
0.014593
0.014593
0.014593
0.014593
0.014593
0.014593
0.014593
0.014593
0.014593
0.014593
0.014593
0.014593
0.014593
0.014593
0.014593
0.014593
0.014593
0.014593
0.014593
0.014593
0.014593
0.014593
0.014593
0.014593
0.014593
0.014593
0.014593
0.014593
0.014593
0.014593
0.014593
0.014593
0.014593
0.014593
0.014593
0.014593
0.014593
0.014593
0.014593
0.014593
0.014593
0.014593
0.014593
0.014593
0.014593
0.014593
0.014593
0.014593
0.014593
0.014593
0.014593
0.014593
0.014593
0.014593
0.014593
0.014593
0.014593
0.014593
0.014593
0.014593
0.014593
0.014593
0.014593
0.014593
0.014593
0.014593
0.014593
0.014593
0.014593
0.014593
0.014593
0.014593
0.014593
0.014593
0.014593
0.014593
0.014593
0.014593
0.014593
0.014593
0.014593
0.014593
0.014593
0.014593
0.014593
0.014593
0.014593
0.014593
0.014593
0.014593
0.014593
0.014593
0.014593
0.014593
0.014593
0.014593
0.014593
0.014593
0.014593
0.014593
0.014593
0.014593
0.014593
0.014593
0.014593
0.014593
0.014593
0.014593
0.014593
0.014593
0.014593
0.014593
0.014593
0.014593
0.014593
0.014593
0.014593
0.014593
0.014593
0.014593
0.014593
0.014593
0.014593
0.014593
0.014593
0.014593
0.014593
0.014593
0.014593
0.014593
0.014593
0.014593
0.014593
0.014593
0.014593
0.014593
0.014593
0.014593
0.014593
0.014593
0.014593
0.014593
0.014593
0.014593
0.014593
0.014593
0.014593
0.014593
0.014593
0.014593
0.014593
0.014593
0.014593
0.014593
0.014593
0.014593
0.014593
0.014593
0.014593
0.014593
0.014593
0.014593
0.014593
0.014593
0.014593
0.014593
0.014593
0.014593
0.0145931
0.0145931
0.0145931
0.0145931
0.014593
0.014593
0.014593
0.014593
0.014593
0.014593
0.014593
0.014593
0.014593
0.014593
0.014593
0.014593
0.014593
0.014593
0.014593
0.014593
0.014593
0.014593
0.014593
0.014593
0.014593
0.014593
0.014593
0.014593
0.014593
0.014593
0.014593
0.014593
0.014593
0.014593
0.014593
0.0145931
0.0145931
0.0145931
0.0145931
0.0145931
0.0145932
0.0145933
0.0145933
0.0145934
0.014593
0.014593
0.014593
0.014593
0.014593
0.014593
0.014593
0.014593
0.014593
0.014593
0.014593
0.014593
0.014593
0.014593
0.014593
0.014593
0.014593
0.014593
0.014593
0.014593
0.014593
0.014593
0.014593
0.014593
0.014593
0.014593
0.014593
0.0145931
0.0145931
0.0145931
0.0145931
0.0145932
0.0145932
0.0145933
0.0145934
0.0145935
0.0145936
0.0145938
0.0145941
0.0145945
0.014593
0.014593
0.014593
0.014593
0.014593
0.014593
0.014593
0.014593
0.014593
0.014593
0.014593
0.014593
0.014593
0.014593
0.014593
0.014593
0.014593
0.014593
0.014593
0.014593
0.014593
0.014593
0.0145931
0.0145931
0.0145931
0.0145931
0.0145932
0.0145932
0.0145933
0.0145933
0.0145934
0.0145936
0.0145937
0.014594
0.0145943
0.0145946
0.0145951
0.0145958
0.0145967
0.014598
0.014593
0.014593
0.014593
0.014593
0.014593
0.014593
0.014593
0.014593
0.014593
0.014593
0.014593
0.014593
0.014593
0.014593
0.014593
0.014593
0.014593
0.0145931
0.0145931
0.0145931
0.0145931
0.0145931
0.0145932
0.0145932
0.0145933
0.0145934
0.0145935
0.0145936
0.0145938
0.0145941
0.0145944
0.0145948
0.0145954
0.0145961
0.0145971
0.0145983
0.0146
0.0146022
0.014605
0.014609
0.014593
0.014593
0.014593
0.014593
0.014593
0.014593
0.014593
0.014593
0.014593
0.014593
0.014593
0.014593
0.014593
0.0145931
0.0145931
0.0145931
0.0145931
0.0145932
0.0145932
0.0145933
0.0145933
0.0145934
0.0145936
0.0145937
0.0145939
0.0145942
0.0145946
0.0145951
0.0145957
0.0145965
0.0145976
0.0145989
0.0146007
0.0146031
0.0146061
0.0146101
0.0146153
0.0146222
0.0146312
0.0146435
0.014593
0.014593
0.014593
0.014593
0.014593
0.014593
0.014593
0.014593
0.0145931
0.0145931
0.0145931
0.0145931
0.0145931
0.0145932
0.0145932
0.0145933
0.0145934
0.0145935
0.0145936
0.0145938
0.0145941
0.0145944
0.0145948
0.0145953
0.014596
0.0145969
0.0145981
0.0145996
0.0146016
0.0146041
0.0146074
0.0146118
0.0146174
0.0146247
0.0146342
0.0146466
0.0146627
0.0146837
0.0147113
0.0147484
0.014593
0.014593
0.014593
0.014593
0.0145931
0.0145931
0.0145931
0.0145931
0.0145931
0.0145932
0.0145932
0.0145933
0.0145933
0.0145934
0.0145936
0.0145937
0.0145939
0.0145942
0.0145946
0.014595
0.0145956
0.0145964
0.0145974
0.0145987
0.0146003
0.0146025
0.0146053
0.0146089
0.0146136
0.0146197
0.0146276
0.0146378
0.0146511
0.0146682
0.0146905
0.0147192
0.0147565
0.0148046
0.0148669
0.0149478
0.0150544
0.0145931
0.0145931
0.0145931
0.0145931
0.0145932
0.0145932
0.0145932
0.0145933
0.0145934
0.0145935
0.0145937
0.0145938
0.0145941
0.0145944
0.0145948
0.0145953
0.014596
0.0145968
0.0145979
0.0145993
0.0146011
0.0146035
0.0146065
0.0146105
0.0146156
0.0146221
0.0146307
0.0146417
0.0146559
0.0146742
0.0146979
0.0147285
0.014768
0.0148187
0.0148839
0.0149675
0.0150742
0.0152104
0.0153833
0.0156029
0.015882
0.0145931
0.0145932
0.0145932
0.0145933
0.0145934
0.0145935
0.0145936
0.0145938
0.014594
0.0145943
0.0145946
0.014595
0.0145956
0.0145964
0.0145973
0.0145985
0.0146001
0.0146021
0.0146047
0.014608
0.0146123
0.0146178
0.0146249
0.0146341
0.0146459
0.0146611
0.0146807
0.014706
0.0147385
0.0147802
0.0148338
0.0149024
0.01499
0.0151016
0.0152432
0.0154219
0.0156461
0.0159254
0.0162701
0.0166919
0.0172031
0.0178151
0.0145934
0.0145934
0.0145936
0.0145937
0.0145939
0.0145941
0.0145945
0.0145949
0.0145954
0.014596
0.0145968
0.0145979
0.0145992
0.014601
0.0146032
0.014606
0.0146097
0.0146144
0.0146204
0.0146281
0.014638
0.0146507
0.014667
0.0146879
0.0147148
0.0147493
0.0147934
0.0148499
0.014922
0.0150138
0.0151304
0.0152777
0.0154631
0.0156948
0.0159822
0.0163354
0.0167646
0.0172798
0.0178896
0.0185999
0.0194142
0.0203323
0.0213441
0.0145941
0.0145944
0.0145947
0.0145952
0.0145957
0.0145965
0.0145974
0.0145986
0.0146001
0.0146021
0.0146045
0.0146077
0.0146117
0.0146168
0.0146234
0.0146317
0.0146425
0.0146562
0.0146737
0.0146962
0.0147248
0.0147615
0.0148082
0.0148678
0.0149435
0.0150397
0.0151613
0.0153145
0.0155065
0.0157457
0.0160412
0.016403
0.016841
0.0173648
0.0179822
0.0186984
0.0195146
0.0204284
0.0214301
0.0225057
0.0236378
0.0248033
0.0259753
0.0145956
0.0145962
0.0145971
0.0145981
0.0145995
0.0146012
0.0146034
0.0146061
0.0146096
0.0146141
0.0146197
0.014627
0.0146361
0.0146478
0.0146627
0.0146816
0.0147057
0.0147364
0.0147755
0.0148251
0.0148881
0.0149679
0.0150687
0.0151958
0.0153552
0.0155541
0.0158008
0.0161045
0.0164747
0.0169212
0.0174529
0.0180775
0.0187995
0.0196198
0.0205352
0.0215366
0.0226093
0.023735
0.0248896
0.026043
0.0271577
0.0281949
0.0291199
0.0299282
0.0145991
0.0146006
0.0146026
0.014605
0.0146081
0.0146121
0.0146171
0.0146233
0.0146313
0.0146414
0.0146542
0.0146704
0.014691
0.0147171
0.0147501
0.014792
0.0148449
0.0149118
0.0149961
0.0151022
0.0152353
0.0154014
0.0156079
0.0158628
0.016175
0.016554
0.0170091
0.0175487
0.0181799
0.0189069
0.0197302
0.0206461
0.0216461
0.0227156
0.0238366
0.024987
0.0261382
0.0272548
0.0282976
0.0292317
0.0300349
0.0306997
0.0312348
0.0316501
0.0319796
0.0146071
0.0146107
0.0146151
0.0146207
0.0146278
0.0146367
0.0146479
0.0146621
0.0146799
0.0147025
0.0147308
0.0147666
0.0148117
0.0148685
0.0149399
0.0150295
0.0151417
0.0152816
0.0154555
0.0156704
0.0159344
0.0162561
0.0166447
0.017109
0.017657
0.018295
0.0190268
0.0198528
0.0207687
0.0217659
0.0228305
0.0239451
0.0250891
0.0262358
0.0273524
0.0284013
0.0293475
0.0301667
0.0308492
0.0313994
0.0318301
0.0321593
0.0324042
0.0325849
0.0327113
0.0328043
0.014619
0.0146254
0.0146334
0.0146435
0.0146561
0.0146719
0.0146917
0.0147166
0.0147477
0.0147869
0.0148359
0.0148973
0.014974
0.0150698
0.0151891
0.015337
0.0155199
0.0157446
0.0160191
0.0163517
0.0167512
0.017226
0.0177834
0.018429
0.0191662
0.0199947
0.0209103
0.021904
0.0229628
0.0240694
0.0252047
0.0263442
0.0274576
0.0285092
0.0294644
0.0302974
0.0309965
0.0315635
0.0320102
0.0323531
0.0326102
0.0327988
0.0329339
0.0330282
0.03309
0.0331296
0.0331493
0.0331549
0.0146664
0.0146842
0.0147065
0.0147342
0.0147688
0.0148119
0.0148657
0.0149326
0.0150158
0.015119
0.0152468
0.0154043
0.0155978
0.0158341
0.0161209
0.0164663
0.0168785
0.0173654
0.0179337
0.0185884
0.0193318
0.0201635
0.021079
0.0220691
0.0231213
0.0242187
0.0253433
0.0264731
0.0275796
0.0286298
0.02959
0.0304334
0.0311463
0.0317284
0.0321898
0.032546
0.0328147
0.0330128
0.0331559
0.0332566
0.0333246
0.0333684
0.0333932
0.0334032
0.0333987
0.0333862
0.0333649
0.0333357
0.0147252
0.0147565
0.0147953
0.0148434
0.014903
0.0149767
0.0150677
0.0151799
0.0153179
0.0154869
0.015693
0.0159431
0.0162445
0.016605
0.0170323
0.0175336
0.0181148
0.0187802
0.0195313
0.0203672
0.0212831
0.0222699
0.0233148
0.024402
0.0255142
0.0266315
0.0277278
0.0287723
0.0297327
0.0305821
0.031305
0.0318992
0.0323731
0.0327411
0.0330202
0.0332273
0.0333776
0.0334844
0.0335578
0.0336058
0.0336349
0.0336495
0.0336492
0.0336413
0.033625
0.033602
0.0335702
0.033531
0.0334836
0.0334262
0.0149501
0.0150321
0.0151328
0.0152559
0.0154063
0.0155891
0.0158105
0.016077
0.0163958
0.0167742
0.0172193
0.0177376
0.0183341
0.0190123
0.0197728
0.0206142
0.0215312
0.0225148
0.0235521
0.0246282
0.0257264
0.0268286
0.0279113
0.0289456
0.0299011
0.0307511
0.0314791
0.0320815
0.0325647
0.0329422
0.0332301
0.0334447
0.0336014
0.0337135
0.0337913
0.033843
0.0338754
0.0338931
0.0338974
0.0338921
0.0338798
0.0338615
0.0338354
0.0338024
0.0337615
0.033713
0.033656
0.033592
0.033522
0.0334454
0.015517
0.0157166
0.0159563
0.0162425
0.0165819
0.0169815
0.0174475
0.0179857
0.0186002
0.0192934
0.0200652
0.0209132
0.0218321
0.0228127
0.023842
0.0249059
0.0259886
0.0270733
0.0281388
0.0291584
0.0301034
0.0309481
0.0316758
0.0322812
0.0327697
0.0331534
0.0334476
0.033668
0.0338298
0.033946
0.0340274
0.0340819
0.0341169
0.0341369
0.0341443
0.034141
0.0341315
0.0341167
0.0340948
0.0340664
0.0340311
0.0339888
0.0339394
0.0338834
0.0338207
0.0337519
0.0336787
0.0335997
0.0335152
0.0334234
0.0168116
0.0172359
0.0177264
0.0182875
0.0189227
0.0196332
0.0204179
0.0212738
0.0221951
0.0231726
0.0241934
0.0252438
0.0263091
0.0273736
0.0284184
0.0294186
0.0303475
0.0311806
0.0319015
0.0325042
0.032993
0.0333789
0.0336762
0.0339001
0.034065
0.034184
0.0342678
0.0343243
0.034361
0.0343826
0.0343918
0.03439
0.0343825
0.0343698
0.0343509
0.0343259
0.0342948
0.0342574
0.0342139
0.0341641
0.0341088
0.0340473
0.0339805
0.0339089
0.0338332
0.0337523
0.0336658
0.0335725
0.0334726
0.0333632
0.0193125
0.0200422
0.0208412
0.0217058
0.0226297
0.0236036
0.0246148
0.02565
0.0266954
0.0277371
0.0287574
0.0297334
0.0306403
0.0314553
0.0321625
0.0327561
0.0332395
0.0336228
0.0339194
0.0341437
0.0343096
0.0344297
0.0345145
0.0345719
0.0346093
0.0346316
0.0346419
0.034641
0.0346345
0.0346229
0.0346059
0.0345834
0.0345555
0.0345216
0.0344824
0.0344375
0.0343877
0.0343327
0.0342725
0.0342073
0.0341378
0.0340648
0.0339871
0.0339036
0.0338143
0.0337185
0.0336157
0.0335051
0.0333876
0.0332597
0.0231453
0.0241144
0.025114
0.0261316
0.0271546
0.0281701
0.0291618
0.0301086
0.0309875
0.0317774
0.0324639
0.0330414
0.0335133
0.0338888
0.0341804
0.0344017
0.0345658
0.034685
0.0347692
0.0348263
0.0348634
0.0348855
0.034896
0.0348953
0.034889
0.0348776
0.0348617
0.034841
0.034815
0.0347836
0.0347473
0.0347065
0.0346611
0.0346108
0.0345559
0.0344969
0.0344336
0.0343662
0.034295
0.0342194
0.0341387
0.0340526
0.0339607
0.033862
0.0337565
0.0336434
0.0335234
0.0333949
0.0332594
0.0331133
0.0276923
0.0286778
0.0296365
0.0305487
0.0313932
0.032151
0.0328094
0.0333638
0.0338176
0.0341796
0.0344616
0.0346761
0.0348356
0.0349515
0.0350334
0.0350888
0.0351246
0.0351456
0.0351554
0.035154
0.0351473
0.0351356
0.03512
0.0351
0.0350752
0.0350454
0.0350111
0.0349733
0.0349309
0.0348844
0.0348336
0.0347791
0.0347213
0.0346596
0.0345938
0.0345238
0.0344501
0.0343717
0.0342883
0.0341994
0.0341047
0.0340029
0.0338947
0.0337792
0.0336569
0.0335264
0.0333893
0.0332434
0.0330907
0.032928
0.0318593
0.0325777
0.0332007
0.0337249
0.0341543
0.0344972
0.0347647
0.0349686
0.0351204
0.0352306
0.0353082
0.0353605
0.0353938
0.0354128
0.0354209
0.0354184
0.0354106
0.035398
0.0353821
0.0353619
0.0353375
0.0353086
0.0352756
0.0352395
0.0351994
0.0351555
0.0351078
0.0350569
0.0350029
0.034946
0.0348854
0.0348206
0.0347517
0.0346794
0.0346031
0.0345219
0.0344356
0.0343438
0.0342459
0.0341414
0.0340306
0.0339127
0.033788
0.0336557
0.0335169
0.0333696
0.0332164
0.0330548
0.0328877
0.0327098
0.0345234
0.034842
0.0350905
0.0352799
0.0354209
0.035523
0.0355944
0.0356421
0.0356718
0.0356879
0.0356932
0.0356892
0.0356797
0.0356655
0.0356487
0.0356277
0.0356032
0.0355745
0.0355421
0.0355067
0.0354682
0.0354261
0.0353807
0.0353322
0.0352813
0.0352278
0.0351712
0.0351112
0.0350471
0.0349793
0.0349082
0.0348333
0.0347539
0.0346697
0.0345805
0.0344857
0.0343848
0.0342776
0.0341642
0.0340439
0.033917
0.033783
0.0336423
0.0334941
0.03334
0.0331781
0.0330105
0.0328345
0.0326536
0.0324626
0.035737
0.0358287
0.0358921
0.0359339
0.0359589
0.0359712
0.0359728
0.0359668
0.035955
0.0359389
0.0359206
0.0358983
0.0358731
0.035844
0.0358115
0.0357763
0.0357386
0.0356977
0.0356537
0.035607
0.035558
0.0355072
0.0354536
0.0353969
0.0353371
0.0352737
0.0352068
0.0351364
0.0350626
0.0349846
0.0349022
0.0348152
0.0347231
0.0346252
0.0345214
0.0344115
0.0342956
0.0341729
0.034044
0.0339082
0.0337659
0.0336169
0.0334617
0.0332994
0.033131
0.0329554
0.0327748
0.0325865
0.0323934
0.0321919
0.0362549
0.0362624
0.0362599
0.0362513
0.0362368
0.0362183
0.0361979
0.0361741
0.0361477
0.0361177
0.0360847
0.0360491
0.0360116
0.0359713
0.0359281
0.0358824
0.0358348
0.0357857
0.0357343
0.0356803
0.0356232
0.0355636
0.0355007
0.0354343
0.0353643
0.0352913
0.0352146
0.0351336
0.0350484
0.0349584
0.034863
0.0347621
0.0346556
0.0345432
0.0344247
0.0342999
0.034169
0.0340315
0.0338878
0.0337379
0.0335818
0.033419
0.0332498
0.0330748
0.0328938
0.0327064
0.0325142
0.0323162
0.0321142
0.0319053
0.0365247
0.0365037
0.036481
0.0364554
0.0364273
0.036396
0.036362
0.0363257
0.0362879
0.0362476
0.0362047
0.0361595
0.0361126
0.0360646
0.0360147
0.0359625
0.0359077
0.0358505
0.0357908
0.0357281
0.0356618
0.0355922
0.0355198
0.0354439
0.035364
0.0352802
0.035192
0.0350989
0.0350005
0.0348968
0.0347876
0.0346726
0.0345517
0.034425
0.0342921
0.034153
0.0340082
0.0338573
0.0337002
0.0335368
0.0333674
0.0331923
0.0330112
0.0328246
0.032633
0.0324363
0.0322357
0.0320308
0.0318232
0.0316104
0.0367118
0.0366789
0.0366436
0.0366064
0.0365678
0.0365271
0.0364841
0.0364389
0.0363924
0.0363449
0.0362959
0.0362448
0.0361915
0.0361362
0.0360787
0.0360187
0.0359558
0.0358895
0.0358202
0.0357481
0.0356729
0.0355938
0.0355111
0.0354244
0.0353331
0.0352368
0.0351355
0.0350291
0.0349173
0.0347998
0.0346768
0.034548
0.0344133
0.034273
0.034127
0.0339749
0.0338169
0.0336531
0.0334836
0.0333081
0.0331273
0.0329412
0.0327503
0.0325547
0.0323553
0.032152
0.0319461
0.0317375
0.0315275
0.0313142
0.0368514
0.0368099
0.0367664
0.036721
0.0366745
0.0366272
0.0365785
0.0365281
0.0364757
0.0364217
0.0363658
0.0363077
0.0362471
0.0361838
0.0361174
0.0360482
0.0359764
0.0359015
0.0358231
0.0357412
0.0356556
0.0355659
0.0354714
0.0353721
0.0352681
0.035159
0.0350446
0.0349248
0.0347998
0.034669
0.0345328
0.0343913
0.034244
0.0340909
0.0339323
0.0337679
0.0335979
0.0334225
0.033242
0.0330564
0.0328662
0.0326716
0.0324733
0.0322715
0.0320671
0.0318603
0.0316523
0.0314431
0.0312341
0.0310235
0.0369589
0.0369115
0.0368629
0.0368127
0.0367609
0.0367075
0.0366528
0.0365961
0.0365371
0.0364759
0.0364121
0.0363456
0.0362762
0.0362044
0.0361297
0.0360518
0.0359705
0.0358859
0.0357973
0.0357043
0.0356068
0.0355048
0.0353981
0.0352863
0.0351695
0.0350477
0.0349205
0.0347881
0.0346507
0.0345077
0.0343591
0.0342053
0.034046
0.0338811
0.0337107
0.0335355
0.0333553
0.0331701
0.0329807
0.0327871
0.03259
0.0323895
0.0321866
0.0319814
0.0317751
0.0315677
0.0313607
0.031154
0.0309491
0.0307444
0.0370987
0.0370471
0.0369942
0.0369401
0.0368843
0.0368265
0.0367667
0.0367048
0.0366405
0.0365736
0.036504
0.036432
0.0363575
0.0362798
0.036199
0.0361151
0.0360274
0.0359357
0.0358397
0.0357395
0.0356347
0.0355253
0.0354112
0.0352922
0.0351682
0.0350393
0.0349055
0.0347665
0.0346221
0.0344727
0.034318
0.0341579
0.0339926
0.0338222
0.033647
0.033467
0.0332824
0.0330938
0.0329012
0.0327053
0.0325062
0.0323048
0.0321012
0.0318964
0.0316907
0.0314854
0.0312803
0.0310773
0.0308759
0.030678
0.0304819
0.0371726
0.0371156
0.0370568
0.0369962
0.0369336
0.0368687
0.0368012
0.0367312
0.0366592
0.0365846
0.036507
0.0364266
0.0363431
0.0362563
0.0361655
0.0360707
0.035972
0.035869
0.0357616
0.0356498
0.0355334
0.0354123
0.0352865
0.0351561
0.0350207
0.0348802
0.0347348
0.0345844
0.0344288
0.0342681
0.0341026
0.033932
0.0337569
0.0335773
0.0333934
0.0332056
0.033014
0.0328193
0.0326215
0.0324215
0.0322196
0.0320164
0.0318124
0.0316086
0.0314052
0.0312036
0.0310036
0.0308071
0.0306137
0.0304252
0.0302399
0.0372866
0.0372251
0.0371618
0.037096
0.037028
0.0369577
0.0368855
0.0368108
0.0367332
0.036653
0.0365699
0.0364836
0.0363936
0.0362999
0.0362024
0.0361009
0.0359953
0.0358855
0.0357714
0.0356528
0.0355299
0.0354026
0.0352704
0.0351334
0.0349918
0.0348454
0.0346939
0.0345376
0.0343765
0.0342107
0.0340401
0.0338652
0.0336861
0.0335029
0.0333158
0.0331254
0.0329318
0.0327354
0.032537
0.0323366
0.0321351
0.0319328
0.0317306
0.0315288
0.0313286
0.03113
0.0309346
0.0307422
0.0305545
0.0303712
0.030194
0.0300211
0.0373222
0.0372537
0.0371831
0.0371106
0.0370356
0.0369579
0.0368779
0.0367951
0.0367092
0.0366198
0.0365269
0.0364305
0.0363304
0.0362263
0.0361183
0.0360062
0.0358899
0.0357696
0.035645
0.0355157
0.0353821
0.0352439
0.0351011
0.0349535
0.0348013
0.0346444
0.0344829
0.0343169
0.0341465
0.0339719
0.0337933
0.0336107
0.0334246
0.0332353
0.0330429
0.032848
0.032651
0.0324522
0.0322524
0.0320517
0.0318512
0.031651
0.0314522
0.0312551
0.0310609
0.0308694
0.0306824
0.0304996
0.0303227
0.030151
0.0299866
0.0298274
0.0373339
0.0372586
0.0371809
0.037101
0.0370183
0.0369328
0.0368438
0.0367516
0.0366562
0.0365571
0.0364544
0.036348
0.0362376
0.0361236
0.0360055
0.0358833
0.0357568
0.0356261
0.0354912
0.0353517
0.0352077
0.0350592
0.0349064
0.034749
0.0345872
0.0344212
0.034251
0.0340767
0.0338986
0.0337169
0.0335318
0.0333435
0.0331525
0.0329591
0.0327635
0.0325664
0.0323682
0.0321693
0.0319705
0.0317719
0.0315747
0.031379
0.0311859
0.0309956
0.0308093
0.030627
0.0304502
0.0302785
0.0301136
0.0299548
0.0298041
0.0296592
0.0373216
0.0372391
0.0371537
0.0370651
0.0369736
0.0368789
0.0367809
0.0366793
0.0365743
0.0364657
0.0363535
0.0362375
0.0361175
0.0359935
0.0358656
0.0357335
0.0355972
0.0354565
0.0353116
0.0351624
0.0350089
0.0348511
0.0346893
0.0345233
0.0343533
0.0341795
0.0340021
0.0338213
0.0336372
0.0334501
0.0332605
0.0330685
0.0328746
0.0326791
0.0324826
0.0322855
0.0320883
0.0318915
0.0316958
0.0315017
0.0313098
0.0311207
0.0309352
0.0307535
0.0305769
0.0304052
0.0302398
0.0300805
0.0299285
0.0297834
0.0296466
0.0295164
0.0372834
0.0371924
0.0370984
0.0370012
0.0369007
0.036797
0.03669
0.0365794
0.0364652
0.0363473
0.0362258
0.0361003
0.0359709
0.0358374
0.0356998
0.0355582
0.0354125
0.0352626
0.0351087
0.0349507
0.0347888
0.034623
0.0344534
0.0342802
0.0341035
0.0339236
0.0337406
0.0335549
0.0333666
0.0331761
0.0329839
0.0327902
0.0325954
0.0324001
0.0322047
0.0320096
0.0318156
0.0316229
0.0314325
0.0312446
0.03106
0.0308792
0.0307029
0.0305313
0.0303656
0.0302057
0.0300526
0.0299062
0.0297676
0.0296363
0.0295137
0.0293973
0.0372177
0.0371182
0.0370158
0.0369101
0.0368011
0.0366886
0.0365727
0.0364532
0.0363301
0.0362031
0.0360723
0.0359376
0.0357991
0.0356566
0.0355101
0.0353598
0.0352056
0.0350475
0.0348857
0.0347201
0.0345511
0.0343785
0.0342027
0.0340238
0.033842
0.0336576
0.0334708
0.033282
0.0330914
0.0328994
0.0327065
0.032513
0.0323194
0.0321262
0.0319339
0.0317429
0.0315539
0.0313672
0.0311838
0.0310038
0.0308279
0.0306568
0.0304908
0.0303305
0.0301766
0.030029
0.0298886
0.0297556
0.0296304
0.0295124
0.0294032
0.0293002
0.0371256
0.037018
0.0369072
0.0367931
0.0366756
0.0365545
0.0364298
0.0363016
0.0361696
0.0360339
0.0358945
0.0357513
0.0356044
0.0354537
0.0352993
0.0351413
0.0349796
0.0348145
0.034646
0.0344742
0.0342994
0.0341216
0.0339411
0.0337581
0.0335728
0.0333857
0.0331968
0.0330067
0.0328157
0.0326241
0.0324325
0.0322411
0.0320505
0.0318613
0.0316738
0.0314886
0.0313063
0.0311272
0.0309521
0.0307814
0.0306154
0.0304549
0.0303003
0.0301517
0.03001
0.0298751
0.0297475
0.0296274
0.0295152
0.0294103
0.0293134
0.0292232
0.0368924
0.0367733
0.0366508
0.036525
0.0363955
0.0362626
0.036126
0.0359859
0.0358422
0.0356949
0.035544
0.0353896
0.0352317
0.0350705
0.0349059
0.0347381
0.0345672
0.0343933
0.0342168
0.0340376
0.0338561
0.0336725
0.0334871
0.0333001
0.0331119
0.0329228
0.0327332
0.0325435
0.0323541
0.0321655
0.031978
0.0317921
0.0316085
0.0314274
0.0312495
0.0310752
0.030905
0.0307394
0.0305788
0.0304235
0.0302743
0.0301314
0.0299949
0.0298654
0.0297431
0.0296281
0.0295204
0.0294202
0.0293275
0.0292425
0.029164
0.036742
0.036615
0.0364846
0.0363508
0.0362136
0.036073
0.0359289
0.0357814
0.0356305
0.0354763
0.0353187
0.0351579
0.034994
0.034827
0.0346571
0.0344844
0.0343092
0.0341315
0.0339515
0.0337697
0.033586
0.033401
0.0332147
0.0330277
0.0328401
0.0326525
0.0324651
0.0322784
0.0320928
0.0319088
0.0317267
0.0315471
0.0313704
0.0311971
0.0310276
0.0308624
0.0307018
0.0305465
0.0303967
0.0302527
0.0301149
0.0299838
0.0298594
0.0297419
0.0296316
0.0295284
0.0294323
0.0293437
0.0292622
0.0291881
0.0291203
0.0365686
0.0364342
0.0362965
0.0361555
0.0360112
0.0358637
0.0357129
0.035559
0.0354019
0.0352417
0.0350786
0.0349125
0.0347437
0.0345723
0.0343985
0.0342223
0.0340441
0.033864
0.0336823
0.0334992
0.033315
0.03313
0.0329446
0.0327591
0.0325738
0.0323892
0.0322056
0.0320234
0.0318431
0.0316651
0.0314897
0.0313175
0.0311489
0.0309843
0.0308241
0.0306688
0.0305185
0.0303738
0.0302351
0.0301024
0.0299762
0.0298566
0.0297438
0.0296379
0.0295387
0.0294466
0.0293615
0.0292835
0.0292123
0.0291479
0.0290893
0.0362331
0.0360889
0.0359415
0.035791
0.0356375
0.035481
0.0353216
0.0351594
0.0349944
0.0348269
0.0346568
0.0344845
0.03431
0.0341335
0.0339553
0.0337756
0.0335945
0.0334125
0.0332297
0.0330465
0.0328632
0.0326801
0.0324976
0.0323161
0.0321359
0.0319574
0.0317811
0.0316073
0.0314364
0.0312688
0.031105
0.0309453
0.03079
0.0306397
0.0304946
0.030355
0.0302211
0.0300934
0.0299719
0.0298569
0.0297485
0.0296465
0.0295512
0.0294626
0.0293809
0.0293058
0.0292373
0.0291752
0.0291192
0.0290686
0.0360144
0.0358644
0.0357116
0.0355558
0.0353973
0.0352362
0.0350724
0.0349062
0.0347377
0.034567
0.0343942
0.0342196
0.0340434
0.0338657
0.0336868
0.033507
0.0333265
0.0331456
0.0329646
0.0327838
0.0326035
0.0324241
0.032246
0.0320695
0.031895
0.0317228
0.0315533
0.031387
0.0312241
0.0310651
0.0309103
0.0307601
0.0306147
0.0304745
0.0303397
0.0302107
0.0300876
0.0299706
0.0298599
0.0297554
0.0296572
0.0295655
0.0294802
0.0294014
0.029329
0.0292628
0.0292027
0.0291484
0.0290997
0.0290558
0.0357808
0.035626
0.0354686
0.0353087
0.0351463
0.0349815
0.0348146
0.0346456
0.0344748
0.0343021
0.034128
0.0339525
0.0337758
0.0335983
0.0334201
0.0332416
0.0330629
0.0328845
0.0327066
0.0325294
0.0323535
0.0321791
0.0320064
0.0318361
0.0316682
0.0315032
0.0313415
0.0311834
0.0310292
0.0308792
0.0307339
0.0305933
0.0304579
0.0303279
0.0302035
0.0300848
0.029972
0.0298653
0.0297646
0.0296699
0.0295814
0.0294991
0.029423
0.0293529
0.0292887
0.0292303
0.0291774
0.0291297
0.0290871
0.0290487
0.0355352
0.0353766
0.0352157
0.0350526
0.0348874
0.0347203
0.0345513
0.0343808
0.0342088
0.0340355
0.0338612
0.0336861
0.0335103
0.0333343
0.0331581
0.0329821
0.0328066
0.0326318
0.0324582
0.0322859
0.0321154
0.0319469
0.0317807
0.0316173
0.0314569
0.0312998
0.0311464
0.030997
0.0308519
0.0307113
0.0305755
0.0304447
0.0303192
0.0301991
0.0300846
0.0299759
0.0298728
0.0297755
0.0296841
0.0295986
0.029519
0.0294453
0.0293773
0.0293148
0.0292578
0.029206
0.0291592
0.0291171
0.0290795
0.0290456
0.0352804
0.035119
0.0349557
0.0347905
0.0346237
0.0344554
0.0342856
0.0341147
0.0339428
0.0337702
0.0335969
0.0334234
0.0332497
0.0330763
0.0329033
0.032731
0.0325597
0.0323898
0.0322214
0.0320549
0.0318906
0.0317289
0.03157
0.0314142
0.0312618
0.0311131
0.0309684
0.030828
0.030692
0.0305608
0.0304345
0.0303133
0.0301974
0.0300868
0.0299818
0.0298822
0.0297881
0.0296997
0.0296169
0.0295398
0.0294681
0.0294019
0.029341
0.0292851
0.0292342
0.029188
0.0291463
0.0291087
0.0290751
0.0290447
0.0350193
0.0348563
0.0346916
0.0345256
0.0343582
0.0341898
0.0340204
0.0338503
0.0336796
0.0335087
0.0333377
0.0331669
0.0329965
0.0328268
0.032658
0.0324904
0.0323243
0.0321599
0.0319977
0.0318378
0.0316805
0.0315261
0.0313749
0.0312272
0.0310832
0.0309431
0.0308073
0.0306758
0.030549
0.030427
0.0303099
0.0301979
0.0300911
0.0299895
0.0298931
0.0298021
0.0297164
0.0296361
0.0295611
0.0294914
0.0294267
0.029367
0.0293122
0.0292619
0.0292161
0.0291745
0.0291369
0.029103
0.0290724
0.0290447
0.0347549
0.0345912
0.0344263
0.0342604
0.0340936
0.0339262
0.0337582
0.03359
0.0334217
0.0332536
0.0330859
0.0329188
0.0327526
0.0325875
0.0324238
0.0322617
0.0321016
0.0319437
0.0317882
0.0316354
0.0314856
0.031339
0.0311959
0.0310564
0.0309209
0.0307895
0.0306624
0.0305398
0.0304219
0.0303087
0.0302005
0.0300972
0.0299988
0.0299054
0.0298172
0.029734
0.0296559
0.0295829
0.0295148
0.0294515
0.0293929
0.0293388
0.029289
0.0292435
0.0292018
0.029164
0.0291296
0.0290984
0.0290702
0.0290444
0.0343264
0.0341623
0.0339976
0.0338324
0.033667
0.0335015
0.0333362
0.0331712
0.0330069
0.0328433
0.0326808
0.0325196
0.03236
0.0322021
0.0320463
0.0318927
0.0317417
0.0315934
0.0314482
0.0313061
0.0311675
0.0310326
0.0309015
0.0307744
0.0306515
0.030533
0.0304189
0.0303095
0.0302047
0.0301047
0.0300094
0.0299188
0.0298331
0.0297522
0.0296761
0.0296048
0.0295382
0.029476
0.0294183
0.0293648
0.0293154
0.02927
0.0292282
0.0291899
0.029155
0.0291231
0.029094
0.0290674
0.0290429
0.0340644
0.033902
0.0337395
0.0335769
0.0334144
0.0332523
0.0330907
0.03293
0.0327702
0.0326116
0.0324544
0.0322989
0.0321454
0.0319939
0.0318448
0.0316982
0.0315544
0.0314137
0.0312761
0.0311419
0.0310114
0.0308845
0.0307616
0.0306428
0.0305282
0.0304178
0.0303119
0.0302105
0.0301135
0.0300209
0.029933
0.0298496
0.0297708
0.0296966
0.0296268
0.0295614
0.0295002
0.0294432
0.0293902
0.029341
0.0292955
0.0292535
0.0292148
0.0291791
0.0291464
0.0291163
0.0290887
0.0290632
0.0290394
0.0338072
0.0336476
0.033488
0.0333288
0.0331702
0.0330122
0.0328552
0.0326993
0.0325448
0.0323918
0.0322406
0.0320913
0.0319442
0.0317995
0.0316575
0.0315181
0.0313818
0.0312487
0.0311188
0.0309925
0.0308698
0.030751
0.030636
0.0305251
0.0304183
0.0303157
0.0302173
0.0301232
0.0300333
0.0299477
0.0298665
0.0297896
0.029717
0.0296486
0.0295843
0.029524
0.0294676