/*--------------------------------*- C++ -*----------------------------------*\
| =========                 |                                                 |
| \\      /  F ield         | OpenFOAM: The Open Source CFD Toolbox           |
|  \\    /   O peration     | Version:  v1706                                 |
|   \\  /    A nd           | Web:      www.OpenFOAM.com                      |
|    \\/     M anipulation  |                                                 |
\*---------------------------------------------------------------------------*/
FoamFile
{
    version     2.0;
    format      ascii;
    class       volScalarField;
    location    "1.8e-05";
    object      kappave;
}
// * * * * * * * * * * * * * * * * * * * * * * * * * * * * * * * * * * * * * //

dimensions      [1 1 -3 -1 0 0 0];


internalField   nonuniform List<scalar> 
30038
(
1.46038e-10
1.46038e-10
1.46038e-10
1.46038e-10
1.46038e-10
1.46038e-10
1.46038e-10
1.46038e-10
1.46038e-10
1.46038e-10
1.46038e-10
1.46038e-10
1.46038e-10
1.46038e-10
1.46038e-10
1.46038e-10
1.46038e-10
1.46038e-10
1.46038e-10
1.46038e-10
1.46038e-10
1.46038e-10
1.46038e-10
1.46038e-10
1.46038e-10
1.46038e-10
1.46038e-10
1.46038e-10
1.46038e-10
1.46038e-10
1.46038e-10
1.46038e-10
1.46038e-10
1.46038e-10
1.46038e-10
1.46038e-10
1.46038e-10
1.46038e-10
1.46038e-10
1.46038e-10
1.46038e-10
1.46038e-10
1.46038e-10
1.46038e-10
1.46038e-10
1.46038e-10
1.46038e-10
1.46038e-10
1.46038e-10
1.46038e-10
1.46038e-10
1.46038e-10
1.46038e-10
1.46038e-10
1.46038e-10
1.46038e-10
1.46038e-10
1.46038e-10
1.46038e-10
1.46038e-10
1.46038e-10
1.46038e-10
1.46038e-10
1.46038e-10
1.46038e-10
1.46038e-10
1.46038e-10
1.46038e-10
1.46038e-10
1.46038e-10
1.46038e-10
1.46038e-10
1.46038e-10
1.46038e-10
1.46038e-10
1.46038e-10
1.46038e-10
1.46038e-10
1.46038e-10
1.46038e-10
1.46038e-10
1.46038e-10
1.46038e-10
1.46038e-10
1.46038e-10
1.46038e-10
1.46038e-10
1.46038e-10
1.46038e-10
1.46038e-10
1.46038e-10
1.46038e-10
1.46038e-10
1.46038e-10
1.46038e-10
1.46038e-10
1.46038e-10
1.46038e-10
1.46038e-10
1.46038e-10
1.46038e-10
1.46038e-10
1.46038e-10
1.46038e-10
1.46038e-10
1.46038e-10
1.46038e-10
1.46038e-10
1.46038e-10
1.46038e-10
1.46038e-10
1.46038e-10
1.46038e-10
1.46038e-10
1.46038e-10
1.46038e-10
1.46038e-10
1.46038e-10
1.46038e-10
1.46038e-10
1.46038e-10
1.46038e-10
1.46038e-10
1.46038e-10
1.46038e-10
1.46038e-10
1.46038e-10
1.46038e-10
1.46038e-10
1.46038e-10
1.46038e-10
1.46038e-10
1.46038e-10
1.46038e-10
1.46038e-10
1.46038e-10
1.46038e-10
1.46038e-10
1.46038e-10
1.46038e-10
1.46038e-10
1.46038e-10
1.46038e-10
1.46038e-10
1.46038e-10
1.46038e-10
1.46038e-10
1.46038e-10
1.46038e-10
1.46038e-10
1.46038e-10
1.46038e-10
1.46038e-10
1.46038e-10
1.46038e-10
1.46038e-10
1.46038e-10
1.46038e-10
1.46038e-10
1.46038e-10
1.46038e-10
1.46038e-10
1.46038e-10
1.46038e-10
1.46038e-10
1.46038e-10
1.46038e-10
1.46038e-10
1.46038e-10
1.46038e-10
1.46038e-10
1.46038e-10
1.46038e-10
1.46038e-10
1.46038e-10
1.46038e-10
1.46038e-10
1.46038e-10
1.46038e-10
1.46038e-10
1.46038e-10
1.46038e-10
1.46038e-10
1.46038e-10
1.46038e-10
1.46038e-10
1.46038e-10
1.46038e-10
1.46038e-10
1.46038e-10
1.46038e-10
1.46038e-10
1.46038e-10
1.46038e-10
1.46038e-10
1.46038e-10
1.46038e-10
1.46038e-10
1.46038e-10
1.46038e-10
1.46038e-10
1.46038e-10
1.46038e-10
1.46038e-10
1.46038e-10
1.46038e-10
1.46038e-10
1.46038e-10
1.46038e-10
1.46038e-10
1.46038e-10
1.46038e-10
1.46038e-10
1.46038e-10
1.46038e-10
1.46038e-10
1.46038e-10
1.46038e-10
1.46038e-10
1.46038e-10
1.46038e-10
1.46038e-10
1.46038e-10
1.46038e-10
1.46038e-10
1.46038e-10
1.46038e-10
1.46038e-10
1.46038e-10
1.46038e-10
1.46038e-10
1.46038e-10
1.46038e-10
1.46038e-10
1.46038e-10
1.46038e-10
1.46038e-10
1.46038e-10
1.46038e-10
1.46038e-10
1.46038e-10
1.46038e-10
1.46038e-10
1.46038e-10
1.46038e-10
1.46038e-10
1.46038e-10
1.46038e-10
1.46038e-10
1.46038e-10
1.46038e-10
1.46038e-10
1.46038e-10
1.46038e-10
1.46038e-10
1.46038e-10
1.46038e-10
1.46038e-10
1.46038e-10
1.46038e-10
1.46038e-10
1.46038e-10
1.46038e-10
1.46038e-10
1.46038e-10
1.46038e-10
1.46038e-10
1.46038e-10
1.46038e-10
1.46038e-10
1.46038e-10
1.46038e-10
1.46038e-10
1.46038e-10
1.46038e-10
1.46038e-10
1.46038e-10
1.46038e-10
1.46038e-10
1.46038e-10
1.46038e-10
1.46038e-10
1.46038e-10
1.46038e-10
1.46038e-10
1.46038e-10
1.46038e-10
1.46038e-10
1.46038e-10
1.46038e-10
1.46038e-10
1.46038e-10
1.46038e-10
1.46038e-10
1.46038e-10
1.46038e-10
1.46038e-10
1.46038e-10
1.46038e-10
1.46038e-10
1.46038e-10
1.46038e-10
1.46038e-10
1.46038e-10
1.46038e-10
1.46038e-10
1.46038e-10
1.46038e-10
1.46038e-10
1.46038e-10
1.46038e-10
1.46038e-10
1.46038e-10
1.46038e-10
1.46038e-10
1.46038e-10
1.46038e-10
1.46038e-10
1.46038e-10
1.46038e-10
1.46038e-10
1.46038e-10
1.46038e-10
1.46038e-10
1.46038e-10
1.46038e-10
1.46038e-10
1.46038e-10
1.46038e-10
1.46038e-10
1.46038e-10
1.46038e-10
1.46038e-10
1.46038e-10
1.46038e-10
1.46038e-10
1.46038e-10
1.46038e-10
1.46038e-10
1.46038e-10
1.46038e-10
1.46038e-10
1.46038e-10
1.46038e-10
1.46038e-10
1.46038e-10
1.46038e-10
1.46038e-10
1.46038e-10
1.46038e-10
1.46038e-10
1.46038e-10
1.46038e-10
1.46038e-10
1.46038e-10
1.46038e-10
1.46038e-10
1.46038e-10
1.46038e-10
1.46038e-10
1.46038e-10
1.46038e-10
1.46038e-10
1.46038e-10
1.46038e-10
1.46038e-10
1.46038e-10
1.46038e-10
1.46038e-10
1.46038e-10
1.46038e-10
1.46038e-10
1.46038e-10
1.46038e-10
1.46038e-10
1.46038e-10
1.46038e-10
1.46038e-10
1.46038e-10
1.46038e-10
1.46038e-10
1.46038e-10
1.46038e-10
1.46038e-10
1.46038e-10
1.46038e-10
1.46038e-10
1.46038e-10
1.46038e-10
1.46038e-10
1.46038e-10
1.46038e-10
1.46038e-10
1.46038e-10
1.46038e-10
1.46038e-10
1.46038e-10
1.46038e-10
1.46038e-10
1.46038e-10
1.46038e-10
1.46038e-10
1.46038e-10
1.46038e-10
1.46038e-10
1.46038e-10
1.46038e-10
1.46038e-10
1.46038e-10
1.46038e-10
1.46038e-10
1.46038e-10
1.46038e-10
1.46038e-10
1.46038e-10
1.46038e-10
1.46038e-10
1.46038e-10
1.46038e-10
1.46038e-10
1.46038e-10
1.46038e-10
1.46038e-10
1.46038e-10
1.46038e-10
1.46038e-10
1.46038e-10
1.46038e-10
1.46038e-10
1.46038e-10
1.46038e-10
1.46038e-10
1.46038e-10
1.46038e-10
1.46038e-10
1.46038e-10
1.46038e-10
1.46038e-10
1.46038e-10
1.46038e-10
1.46038e-10
1.46038e-10
1.46038e-10
1.46038e-10
1.46038e-10
1.46038e-10
1.46038e-10
1.46038e-10
1.46038e-10
1.46038e-10
1.46038e-10
1.46038e-10
1.46038e-10
1.46038e-10
1.46038e-10
1.46038e-10
1.46038e-10
1.46038e-10
1.46038e-10
1.46039e-10
1.46039e-10
1.46038e-10
1.46038e-10
1.46038e-10
1.46038e-10
1.46038e-10
1.46038e-10
1.46038e-10
1.46038e-10
1.46038e-10
1.46038e-10
1.46038e-10
1.46038e-10
1.46038e-10
1.46038e-10
1.46038e-10
1.46038e-10
1.46038e-10
1.46038e-10
1.46038e-10
1.46038e-10
1.46038e-10
1.46038e-10
1.46038e-10
1.46038e-10
1.46038e-10
1.46038e-10
1.46038e-10
1.46038e-10
1.46038e-10
1.46038e-10
1.46038e-10
1.46038e-10
1.46038e-10
1.46039e-10
1.46039e-10
1.46039e-10
1.4604e-10
1.4604e-10
1.46041e-10
1.46042e-10
1.46038e-10
1.46038e-10
1.46038e-10
1.46038e-10
1.46038e-10
1.46038e-10
1.46038e-10
1.46038e-10
1.46038e-10
1.46038e-10
1.46038e-10
1.46038e-10
1.46038e-10
1.46038e-10
1.46038e-10
1.46038e-10
1.46038e-10
1.46038e-10
1.46038e-10
1.46038e-10
1.46038e-10
1.46038e-10
1.46038e-10
1.46038e-10
1.46038e-10
1.46038e-10
1.46038e-10
1.46038e-10
1.46038e-10
1.46039e-10
1.46039e-10
1.46039e-10
1.4604e-10
1.46041e-10
1.46041e-10
1.46043e-10
1.46044e-10
1.46046e-10
1.46049e-10
1.46053e-10
1.46038e-10
1.46038e-10
1.46038e-10
1.46038e-10
1.46038e-10
1.46038e-10
1.46038e-10
1.46038e-10
1.46038e-10
1.46038e-10
1.46038e-10
1.46038e-10
1.46038e-10
1.46038e-10
1.46038e-10
1.46038e-10
1.46038e-10
1.46038e-10
1.46038e-10
1.46038e-10
1.46038e-10
1.46038e-10
1.46038e-10
1.46038e-10
1.46039e-10
1.46039e-10
1.46039e-10
1.4604e-10
1.4604e-10
1.46041e-10
1.46042e-10
1.46043e-10
1.46045e-10
1.46047e-10
1.4605e-10
1.46054e-10
1.46059e-10
1.46066e-10
1.46075e-10
1.46087e-10
1.46038e-10
1.46038e-10
1.46038e-10
1.46038e-10
1.46038e-10
1.46038e-10
1.46038e-10
1.46038e-10
1.46038e-10
1.46038e-10
1.46038e-10
1.46038e-10
1.46038e-10
1.46038e-10
1.46038e-10
1.46038e-10
1.46038e-10
1.46038e-10
1.46038e-10
1.46038e-10
1.46039e-10
1.46039e-10
1.46039e-10
1.4604e-10
1.46041e-10
1.46041e-10
1.46043e-10
1.46044e-10
1.46046e-10
1.46048e-10
1.46052e-10
1.46056e-10
1.46062e-10
1.46069e-10
1.46079e-10
1.46091e-10
1.46108e-10
1.46129e-10
1.46158e-10
1.46198e-10
1.46038e-10
1.46038e-10
1.46038e-10
1.46038e-10
1.46038e-10
1.46038e-10
1.46038e-10
1.46038e-10
1.46038e-10
1.46038e-10
1.46038e-10
1.46038e-10
1.46038e-10
1.46038e-10
1.46038e-10
1.46039e-10
1.46039e-10
1.46039e-10
1.4604e-10
1.4604e-10
1.46041e-10
1.46042e-10
1.46043e-10
1.46045e-10
1.46047e-10
1.4605e-10
1.46054e-10
1.46058e-10
1.46065e-10
1.46073e-10
1.46083e-10
1.46097e-10
1.46115e-10
1.46138e-10
1.46169e-10
1.46209e-10
1.46261e-10
1.46329e-10
1.4642e-10
1.46543e-10
1.46038e-10
1.46038e-10
1.46038e-10
1.46038e-10
1.46038e-10
1.46038e-10
1.46038e-10
1.46038e-10
1.46038e-10
1.46038e-10
1.46039e-10
1.46039e-10
1.46039e-10
1.46039e-10
1.4604e-10
1.46041e-10
1.46041e-10
1.46043e-10
1.46044e-10
1.46046e-10
1.46048e-10
1.46051e-10
1.46056e-10
1.46061e-10
1.46068e-10
1.46077e-10
1.46088e-10
1.46104e-10
1.46123e-10
1.46149e-10
1.46182e-10
1.46226e-10
1.46282e-10
1.46355e-10
1.4645e-10
1.46574e-10
1.46735e-10
1.46945e-10
1.47222e-10
1.47593e-10
1.46038e-10
1.46038e-10
1.46038e-10
1.46038e-10
1.46038e-10
1.46038e-10
1.46038e-10
1.46039e-10
1.46039e-10
1.46039e-10
1.4604e-10
1.4604e-10
1.46041e-10
1.46042e-10
1.46043e-10
1.46045e-10
1.46047e-10
1.4605e-10
1.46053e-10
1.46058e-10
1.46064e-10
1.46071e-10
1.46081e-10
1.46094e-10
1.46111e-10
1.46132e-10
1.4616e-10
1.46197e-10
1.46244e-10
1.46305e-10
1.46384e-10
1.46486e-10
1.46619e-10
1.46791e-10
1.47013e-10
1.47301e-10
1.47674e-10
1.48155e-10
1.48778e-10
1.49589e-10
1.50655e-10
1.46038e-10
1.46038e-10
1.46039e-10
1.46039e-10
1.46039e-10
1.4604e-10
1.4604e-10
1.46041e-10
1.46042e-10
1.46043e-10
1.46044e-10
1.46046e-10
1.46048e-10
1.46052e-10
1.46056e-10
1.46061e-10
1.46067e-10
1.46076e-10
1.46087e-10
1.46101e-10
1.46119e-10
1.46143e-10
1.46173e-10
1.46213e-10
1.46263e-10
1.46329e-10
1.46414e-10
1.46525e-10
1.46667e-10
1.46851e-10
1.47088e-10
1.47394e-10
1.47789e-10
1.48297e-10
1.48949e-10
1.49785e-10
1.50854e-10
1.52216e-10
1.53947e-10
1.56145e-10
1.58939e-10
1.46039e-10
1.46039e-10
1.4604e-10
1.46041e-10
1.46041e-10
1.46042e-10
1.46044e-10
1.46045e-10
1.46047e-10
1.4605e-10
1.46054e-10
1.46058e-10
1.46064e-10
1.46071e-10
1.46081e-10
1.46093e-10
1.46108e-10
1.46128e-10
1.46154e-10
1.46188e-10
1.46231e-10
1.46286e-10
1.46357e-10
1.46449e-10
1.46567e-10
1.46719e-10
1.46916e-10
1.47168e-10
1.47493e-10
1.47911e-10
1.48447e-10
1.49134e-10
1.50011e-10
1.51128e-10
1.52545e-10
1.54334e-10
1.56578e-10
1.59372e-10
1.62823e-10
1.67045e-10
1.72161e-10
1.78287e-10
1.46041e-10
1.46042e-10
1.46043e-10
1.46045e-10
1.46047e-10
1.46049e-10
1.46052e-10
1.46056e-10
1.46061e-10
1.46068e-10
1.46076e-10
1.46087e-10
1.461e-10
1.46117e-10
1.4614e-10
1.46168e-10
1.46204e-10
1.46251e-10
1.46311e-10
1.46389e-10
1.46488e-10
1.46615e-10
1.46778e-10
1.46988e-10
1.47257e-10
1.47602e-10
1.48044e-10
1.48609e-10
1.4933e-10
1.50249e-10
1.51416e-10
1.52891e-10
1.54746e-10
1.57065e-10
1.59941e-10
1.63476e-10
1.67773e-10
1.7293e-10
1.79033e-10
1.86144e-10
1.94296e-10
2.03487e-10
2.13617e-10
1.46048e-10
1.46051e-10
1.46055e-10
1.46059e-10
1.46065e-10
1.46072e-10
1.46082e-10
1.46094e-10
1.46109e-10
1.46128e-10
1.46153e-10
1.46184e-10
1.46225e-10
1.46276e-10
1.46341e-10
1.46425e-10
1.46533e-10
1.4667e-10
1.46846e-10
1.4707e-10
1.47357e-10
1.47724e-10
1.48191e-10
1.48788e-10
1.49546e-10
1.50508e-10
1.51726e-10
1.53259e-10
1.55181e-10
1.57574e-10
1.60532e-10
1.64154e-10
1.68538e-10
1.73781e-10
1.79962e-10
1.87132e-10
1.95304e-10
2.04453e-10
2.14484e-10
2.25256e-10
2.36595e-10
2.48272e-10
2.60016e-10
1.46063e-10
1.4607e-10
1.46078e-10
1.46089e-10
1.46103e-10
1.4612e-10
1.46141e-10
1.46169e-10
1.46204e-10
1.46249e-10
1.46305e-10
1.46377e-10
1.46469e-10
1.46586e-10
1.46735e-10
1.46924e-10
1.47166e-10
1.47473e-10
1.47864e-10
1.4836e-10
1.48991e-10
1.4979e-10
1.50799e-10
1.52071e-10
1.53666e-10
1.55657e-10
1.58127e-10
1.61166e-10
1.64872e-10
1.69342e-10
1.74665e-10
1.80918e-10
1.88147e-10
1.96361e-10
2.05528e-10
2.15557e-10
2.26302e-10
2.3758e-10
2.49151e-10
2.60713e-10
2.71891e-10
2.82297e-10
2.91585e-10
2.99711e-10
1.46098e-10
1.46114e-10
1.46133e-10
1.46158e-10
1.46189e-10
1.46229e-10
1.46278e-10
1.46341e-10
1.46421e-10
1.46522e-10
1.4665e-10
1.46813e-10
1.47019e-10
1.4728e-10
1.4761e-10
1.48029e-10
1.48559e-10
1.49228e-10
1.50072e-10
1.51134e-10
1.52466e-10
1.54129e-10
1.56196e-10
1.58747e-10
1.61873e-10
1.65667e-10
1.70223e-10
1.75626e-10
1.81945e-10
1.89225e-10
1.97471e-10
2.06644e-10
2.16662e-10
2.27377e-10
2.38612e-10
2.50145e-10
2.6169e-10
2.72893e-10
2.83363e-10
2.92751e-10
3.00833e-10
3.07537e-10
3.12948e-10
3.17168e-10
3.20541e-10
1.46179e-10
1.46214e-10
1.46259e-10
1.46315e-10
1.46386e-10
1.46475e-10
1.46588e-10
1.46729e-10
1.46908e-10
1.47133e-10
1.47417e-10
1.47776e-10
1.48227e-10
1.48795e-10
1.4951e-10
1.50407e-10
1.51529e-10
1.5293e-10
1.54671e-10
1.56822e-10
1.59465e-10
1.62686e-10
1.66576e-10
1.71225e-10
1.76712e-10
1.83101e-10
1.90431e-10
1.98704e-10
2.07879e-10
2.17871e-10
2.28541e-10
2.39716e-10
2.5119e-10
2.62695e-10
2.73906e-10
2.84446e-10
2.93965e-10
3.02219e-10
3.09114e-10
3.14692e-10
3.19083e-10
3.22466e-10
3.25017e-10
3.26936e-10
3.28324e-10
3.29403e-10
1.46298e-10
1.46362e-10
1.46442e-10
1.46543e-10
1.46669e-10
1.46827e-10
1.47025e-10
1.47274e-10
1.47586e-10
1.47978e-10
1.48469e-10
1.49083e-10
1.49851e-10
1.5081e-10
1.52004e-10
1.53485e-10
1.55316e-10
1.57566e-10
1.60314e-10
1.63644e-10
1.67644e-10
1.72398e-10
1.7798e-10
1.84446e-10
1.9183e-10
2.00131e-10
2.09306e-10
2.19266e-10
2.29881e-10
2.40981e-10
2.52373e-10
2.63815e-10
2.75001e-10
2.85578e-10
2.95199e-10
3.03606e-10
3.10682e-10
3.16447e-10
3.21017e-10
3.24561e-10
3.27259e-10
3.29286e-10
3.30793e-10
3.31909e-10
3.32719e-10
3.33326e-10
3.3376e-10
3.34096e-10
1.46772e-10
1.46951e-10
1.47173e-10
1.47451e-10
1.47797e-10
1.48229e-10
1.48767e-10
1.49437e-10
1.5027e-10
1.51303e-10
1.52582e-10
1.54159e-10
1.56096e-10
1.58462e-10
1.61333e-10
1.64792e-10
1.6892e-10
1.73797e-10
1.79489e-10
1.86047e-10
1.93495e-10
2.0183e-10
2.11007e-10
2.20934e-10
2.31488e-10
2.42501e-10
2.53793e-10
2.65145e-10
2.76273e-10
2.86848e-10
2.96532e-10
3.05059e-10
3.12291e-10
3.18227e-10
3.22967e-10
3.2667e-10
3.29513e-10
3.31668e-10
3.33292e-10
3.34515e-10
3.35433e-10
3.36135e-10
3.36677e-10
3.37102e-10
3.37415e-10
3.37686e-10
3.37911e-10
3.38137e-10
1.47361e-10
1.47674e-10
1.48063e-10
1.48544e-10
1.49141e-10
1.49878e-10
1.50789e-10
1.51913e-10
1.53294e-10
1.54986e-10
1.5705e-10
1.59554e-10
1.62573e-10
1.66183e-10
1.70462e-10
1.75484e-10
1.81307e-10
1.87974e-10
1.95501e-10
2.03881e-10
2.13065e-10
2.22963e-10
2.3345e-10
2.44367e-10
2.55543e-10
2.6678e-10
2.77817e-10
2.88348e-10
2.9805e-10
3.06654e-10
3.14006e-10
3.20086e-10
3.24978e-10
3.28828e-10
3.31809e-10
3.3409e-10
3.35828e-10
3.37157e-10
3.38182e-10
3.38987e-10
3.39638e-10
3.40184e-10
3.40624e-10
3.41034e-10
3.41412e-10
3.41777e-10
3.42112e-10
3.42437e-10
3.42755e-10
3.43106e-10
1.49613e-10
1.50434e-10
1.51441e-10
1.52674e-10
1.54179e-10
1.5601e-10
1.58227e-10
1.60896e-10
1.64089e-10
1.6788e-10
1.72338e-10
1.77531e-10
1.83509e-10
1.90306e-10
1.9793e-10
2.06368e-10
2.15567e-10
2.25439e-10
2.35856e-10
2.4667e-10
2.57715e-10
2.68812e-10
2.79726e-10
2.90171e-10
2.99841e-10
3.08471e-10
3.15899e-10
3.22086e-10
3.27101e-10
3.31079e-10
3.34183e-10
3.36582e-10
3.3843e-10
3.39864e-10
3.40992e-10
3.41898e-10
3.42656e-10
3.43316e-10
3.43895e-10
3.44436e-10
3.4497e-10
3.45514e-10
3.46054e-10
3.46605e-10
3.47162e-10
3.47735e-10
3.48321e-10
3.48943e-10
3.49631e-10
3.50477e-10
1.55289e-10
1.57288e-10
1.59688e-10
1.62555e-10
1.65955e-10
1.69958e-10
1.74628e-10
1.80022e-10
1.86182e-10
1.93132e-10
2.00872e-10
2.09381e-10
2.18605e-10
2.28453e-10
2.38798e-10
2.49499e-10
2.604e-10
2.71335e-10
2.82093e-10
2.92408e-10
3.01994e-10
3.10595e-10
3.18045e-10
3.24292e-10
3.29393e-10
3.3347e-10
3.36679e-10
3.39181e-10
3.41131e-10
3.42663e-10
3.43891e-10
3.44898e-10
3.45762e-10
3.46536e-10
3.47246e-10
3.47921e-10
3.48612e-10
3.49334e-10
3.50076e-10
3.50853e-10
3.51666e-10
3.52524e-10
3.53435e-10
3.54413e-10
3.55465e-10
3.56606e-10
3.57864e-10
3.59238e-10
3.60763e-10
3.62576e-10
1.68259e-10
1.72511e-10
1.77427e-10
1.83053e-10
1.89423e-10
1.96549e-10
2.04424e-10
2.13017e-10
2.22272e-10
2.32098e-10
2.42367e-10
2.52945e-10
2.63685e-10
2.74434e-10
2.85003e-10
2.95145e-10
3.04594e-10
3.13106e-10
3.20518e-10
3.26773e-10
3.31914e-10
3.36054e-10
3.3934e-10
3.41928e-10
3.43967e-10
3.45591e-10
3.46913e-10
3.48019e-10
3.48988e-10
3.49876e-10
3.50717e-10
3.51529e-10
3.52378e-10
3.53276e-10
3.5422e-10
3.55224e-10
3.56295e-10
3.57443e-10
3.58681e-10
3.60019e-10
3.61476e-10
3.63059e-10
3.64787e-10
3.66682e-10
3.68765e-10
3.71035e-10
3.73505e-10
3.76181e-10
3.79112e-10
3.82519e-10
1.93343e-10
2.00667e-10
2.08691e-10
2.17378e-10
2.26668e-10
2.36468e-10
2.46653e-10
2.57093e-10
2.67652e-10
2.78191e-10
2.88538e-10
2.98462e-10
3.07719e-10
3.16081e-10
3.23392e-10
3.29594e-10
3.34724e-10
3.38886e-10
3.42218e-10
3.44868e-10
3.4698e-10
3.48686e-10
3.50097e-10
3.51299e-10
3.52372e-10
3.53375e-10
3.54347e-10
3.55303e-10
3.5631e-10
3.57385e-10
3.58535e-10
3.59771e-10
3.61104e-10
3.62544e-10
3.6411e-10
3.65816e-10
3.67681e-10
3.6972e-10
3.7195e-10
3.7439e-10
3.77064e-10
3.80001e-10
3.83205e-10
3.86685e-10
3.90458e-10
3.94537e-10
3.98939e-10
4.03682e-10
4.08854e-10
4.14802e-10
2.31891e-10
2.41656e-10
2.51742e-10
2.62024e-10
2.72379e-10
2.8268e-10
2.92767e-10
3.02429e-10
3.11439e-10
3.19588e-10
3.26732e-10
3.32818e-10
3.37882e-10
3.4202e-10
3.45362e-10
3.48047e-10
3.50214e-10
3.5199e-10
3.53484e-10
3.54779e-10
3.55958e-10
3.57078e-10
3.58183e-10
3.59287e-10
3.60459e-10
3.61717e-10
3.63078e-10
3.64553e-10
3.66153e-10
3.67892e-10
3.69791e-10
3.71874e-10
3.74158e-10
3.76659e-10
3.794e-10
3.82409e-10
3.85707e-10
3.89318e-10
3.9327e-10
3.97581e-10
4.02268e-10
4.07353e-10
4.12858e-10
4.188e-10
4.25203e-10
4.3209e-10
4.39499e-10
4.47454e-10
4.56095e-10
4.65963e-10
2.77934e-10
2.87964e-10
2.97754e-10
3.07106e-10
3.15812e-10
3.23683e-10
3.30595e-10
3.36502e-10
3.41443e-10
3.4551e-10
3.48824e-10
3.51517e-10
3.5372e-10
3.55554e-10
3.57123e-10
3.5851e-10
3.59796e-10
3.61037e-10
3.62281e-10
3.6354e-10
3.64886e-10
3.66336e-10
3.67918e-10
3.69641e-10
3.71518e-10
3.73566e-10
3.7581e-10
3.78281e-10
3.80992e-10
3.83968e-10
3.87233e-10
3.90821e-10
3.94763e-10
3.99081e-10
4.038e-10
4.08952e-10
4.14574e-10
4.20687e-10
4.27319e-10
4.345e-10
4.4226e-10
4.50621e-10
4.59625e-10
4.693e-10
4.79693e-10
4.90829e-10
5.02773e-10
5.15567e-10
5.29422e-10
5.45159e-10
3.2088e-10
3.28411e-10
3.35025e-10
3.40693e-10
3.45457e-10
3.49406e-10
3.52655e-10
3.55329e-10
3.57549e-10
3.5943e-10
3.61069e-10
3.6255e-10
3.63946e-10
3.65316e-10
3.66706e-10
3.68133e-10
3.69665e-10
3.71322e-10
3.73138e-10
3.75122e-10
3.77291e-10
3.79665e-10
3.8227e-10
3.85142e-10
3.88298e-10
3.91765e-10
3.95572e-10
3.99758e-10
4.04357e-10
4.09401e-10
4.1492e-10
4.20944e-10
4.2751e-10
4.3467e-10
4.42455e-10
4.50896e-10
4.60034e-10
4.69907e-10
4.80554e-10
4.92014e-10
5.04338e-10
5.17565e-10
5.31754e-10
5.46946e-10
5.63214e-10
5.80594e-10
5.99196e-10
6.19085e-10
6.40588e-10
6.64866e-10
3.49964e-10
3.53755e-10
3.56907e-10
3.59538e-10
3.61761e-10
3.6368e-10
3.65388e-10
3.66965e-10
3.6848e-10
3.6999e-10
3.71537e-10
3.7315e-10
3.74884e-10
3.76767e-10
3.78839e-10
3.81102e-10
3.83586e-10
3.86307e-10
3.89297e-10
3.92591e-10
3.96216e-10
4.00199e-10
4.04572e-10
4.09378e-10
4.1466e-10
4.20454e-10
4.26796e-10
4.33724e-10
4.41276e-10
4.49502e-10
4.58456e-10
4.68183e-10
4.78723e-10
4.90127e-10
5.02447e-10
5.1573e-10
5.30025e-10
5.45391e-10
5.61889e-10
5.79573e-10
5.98514e-10
6.18776e-10
6.40438e-10
6.63567e-10
6.88276e-10
7.14624e-10
7.42761e-10
7.72783e-10
8.05183e-10
8.41631e-10
3.6642e-10
3.68376e-10
3.70155e-10
3.71837e-10
3.73484e-10
3.7515e-10
3.76871e-10
3.78694e-10
3.80655e-10
3.8279e-10
3.85141e-10
3.87714e-10
3.90542e-10
3.9364e-10
3.97045e-10
4.00793e-10
4.0492e-10
4.09452e-10
4.14426e-10
4.19886e-10
4.25884e-10
4.32463e-10
4.39661e-10
4.47522e-10
4.56098e-10
4.65438e-10
4.75595e-10
4.86629e-10
4.98603e-10
5.11567e-10
5.25582e-10
5.40712e-10
5.57018e-10
5.74557e-10
5.93401e-10
6.13623e-10
6.35297e-10
6.58495e-10
6.83309e-10
7.09815e-10
7.38112e-10
7.68302e-10
8.00499e-10
8.34797e-10
8.71347e-10
9.1026e-10
9.51753e-10
9.95984e-10
1.04365e-09
1.09714e-09
3.79064e-10
3.80908e-10
3.82831e-10
3.84892e-10
3.87112e-10
3.89532e-10
3.92199e-10
3.9512e-10
3.98329e-10
4.01845e-10
4.05706e-10
4.09952e-10
4.14624e-10
4.1975e-10
4.2537e-10
4.31532e-10
4.38292e-10
4.45702e-10
4.53804e-10
4.62647e-10
4.72287e-10
4.82789e-10
4.94206e-10
5.06599e-10
5.20038e-10
5.34601e-10
5.50352e-10
5.67359e-10
5.85701e-10
6.0545e-10
6.26682e-10
6.49475e-10
6.73921e-10
7.00104e-10
7.28117e-10
7.58057e-10
7.9003e-10
8.24134e-10
8.605e-10
8.99248e-10
9.40508e-10
9.84412e-10
1.03112e-09
1.08082e-09
1.13369e-09
1.18992e-09
1.24982e-09
1.31368e-09
1.38245e-09
1.45949e-09
3.94423e-10
3.97175e-10
4.00203e-10
4.0352e-10
4.0716e-10
4.11145e-10
4.15517e-10
4.20317e-10
4.25591e-10
4.3137e-10
4.37697e-10
4.44622e-10
4.52208e-10
4.60512e-10
4.69582e-10
4.79471e-10
4.90242e-10
5.01963e-10
5.14703e-10
5.28526e-10
5.43502e-10
5.59712e-10
5.7725e-10
5.96191e-10
6.16613e-10
6.38611e-10
6.62272e-10
6.87685e-10
7.14942e-10
7.44148e-10
7.75408e-10
8.08826e-10
8.44518e-10
8.82606e-10
9.23212e-10
9.66466e-10
1.01253e-09
1.06154e-09
1.11364e-09
1.16903e-09
1.22788e-09
1.29041e-09
1.35683e-09
1.42741e-09
1.50245e-09
1.58224e-09
1.66722e-09
1.75784e-09
1.85541e-09
1.96454e-09
4.173e-10
4.2182e-10
4.26771e-10
4.32197e-10
4.38147e-10
4.44654e-10
4.51765e-10
4.59534e-10
4.68029e-10
4.77311e-10
4.87431e-10
4.98451e-10
5.10438e-10
5.23467e-10
5.37612e-10
5.52948e-10
5.69552e-10
5.87506e-10
6.06904e-10
6.2785e-10
6.50431e-10
6.74743e-10
7.00891e-10
7.28979e-10
7.59113e-10
7.91396e-10
8.2595e-10
8.62898e-10
9.02364e-10
9.44476e-10
9.89379e-10
1.03721e-09
1.08813e-09
1.1423e-09
1.19989e-09
1.26106e-09
1.32604e-09
1.39501e-09
1.4682e-09
1.54585e-09
1.62827e-09
1.71572e-09
1.80858e-09
1.90718e-09
2.01201e-09
2.12346e-09
2.24218e-09
2.36883e-09
2.50519e-09
2.6575e-09
4.52692e-10
4.60022e-10
4.68015e-10
4.7673e-10
4.86239e-10
4.96604e-10
5.07884e-10
5.20144e-10
5.33459e-10
5.47909e-10
5.63574e-10
5.80534e-10
5.98875e-10
6.1869e-10
6.40073e-10
6.63128e-10
6.87969e-10
7.14701e-10
7.43432e-10
7.74281e-10
8.07372e-10
8.42822e-10
8.80752e-10
9.213e-10
9.64607e-10
1.01082e-09
1.06007e-09
1.11254e-09
1.16839e-09
1.22778e-09
1.2909e-09
1.35796e-09
1.42913e-09
1.50464e-09
1.58473e-09
1.66963e-09
1.7596e-09
1.85496e-09
1.95604e-09
2.06316e-09
2.17676e-09
2.29724e-09
2.42512e-09
2.56092e-09
2.70527e-09
2.8588e-09
3.02239e-09
3.19695e-09
3.3849e-09
3.59451e-09
5.0743e-10
5.19013e-10
5.31589e-10
5.45228e-10
5.60011e-10
5.76024e-10
5.93355e-10
6.12087e-10
6.32312e-10
6.54133e-10
6.77652e-10
7.02976e-10
7.30219e-10
7.59508e-10
7.90965e-10
8.24711e-10
8.60881e-10
8.99614e-10
9.41044e-10
9.85309e-10
1.03256e-09
1.08297e-09
1.13668e-09
1.19388e-09
1.25473e-09
1.31944e-09
1.38817e-09
1.46117e-09
1.53863e-09
1.62077e-09
1.70783e-09
1.80008e-09
1.89777e-09
2.0012e-09
2.11068e-09
2.22658e-09
2.34926e-09
2.47913e-09
2.61667e-09
2.76237e-09
2.9168e-09
3.08056e-09
3.25438e-09
3.43896e-09
3.63521e-09
3.84399e-09
4.0665e-09
4.30398e-09
4.55965e-09
4.84425e-09
5.74522e-10
5.9095e-10
6.08706e-10
6.27882e-10
6.48571e-10
6.70868e-10
6.94881e-10
7.20725e-10
7.48511e-10
7.78357e-10
8.10391e-10
8.44757e-10
8.8159e-10
9.21023e-10
9.63208e-10
1.0083e-09
1.05645e-09
1.10782e-09
1.16257e-09
1.22089e-09
1.28295e-09
1.34895e-09
1.41909e-09
1.49358e-09
1.57262e-09
1.65646e-09
1.74534e-09
1.83949e-09
1.93918e-09
2.04471e-09
2.15634e-09
2.2744e-09
2.39924e-09
2.53121e-09
2.67075e-09
2.81827e-09
2.97425e-09
3.13924e-09
3.31378e-09
3.49854e-09
3.6942e-09
3.90156e-09
4.12144e-09
4.35484e-09
4.6027e-09
4.86631e-09
5.14675e-09
5.44567e-09
5.76469e-09
6.10797e-09
6.48931e-09
6.91144e-10
7.15744e-10
7.42185e-10
7.70588e-10
8.01077e-10
8.3377e-10
8.68802e-10
9.06316e-10
9.46473e-10
9.89415e-10
1.03529e-09
1.08428e-09
1.13654e-09
1.19225e-09
1.25157e-09
1.3147e-09
1.38184e-09
1.45319e-09
1.52896e-09
1.60937e-09
1.69465e-09
1.78504e-09
1.8808e-09
1.9822e-09
2.08949e-09
2.20297e-09
2.32296e-09
2.44977e-09
2.58372e-09
2.7252e-09
2.87461e-09
3.03235e-09
3.19892e-09
3.37481e-09
3.56055e-09
3.75677e-09
3.96409e-09
4.18327e-09
4.41504e-09
4.66034e-09
4.92006e-09
5.1953e-09
5.48715e-09
5.79698e-09
6.126e-09
6.47594e-09
6.84817e-09
7.24487e-09
7.66804e-09
8.12303e-09
8.6272e-09
8.28785e-10
8.62265e-10
8.98105e-10
9.36439e-10
9.77417e-10
1.0212e-09
1.06795e-09
1.11784e-09
1.17102e-09
1.22769e-09
1.28803e-09
1.35223e-09
1.42047e-09
1.49297e-09
1.56994e-09
1.65161e-09
1.73821e-09
1.82999e-09
1.92719e-09
2.03008e-09
2.13895e-09
2.25407e-09
2.37574e-09
2.50427e-09
2.64002e-09
2.78331e-09
2.9345e-09
3.09401e-09
3.26225e-09
3.43967e-09
3.62676e-09
3.82407e-09
4.03215e-09
4.25162e-09
4.48316e-09
4.7275e-09
4.98546e-09
5.25789e-09
5.54581e-09
5.85021e-09
6.17232e-09
6.51332e-09
6.8747e-09
7.25784e-09
7.66456e-09
8.09638e-09
8.55556e-09
9.04378e-09
9.56382e-09
1.01181e-08
1.07133e-08
1.13709e-08
1.06013e-09
1.10792e-09
1.15886e-09
1.21313e-09
1.2709e-09
1.33235e-09
1.39771e-09
1.46715e-09
1.54089e-09
1.61913e-09
1.70211e-09
1.79005e-09
1.88321e-09
1.98184e-09
2.0862e-09
2.19656e-09
2.31322e-09
2.4365e-09
2.56667e-09
2.70407e-09
2.84905e-09
3.00196e-09
3.16317e-09
3.33307e-09
3.5121e-09
3.7007e-09
3.89934e-09
4.10856e-09
4.32888e-09
4.56093e-09
4.80535e-09
5.0628e-09
5.33408e-09
5.61998e-09
5.92141e-09
6.23934e-09
6.57486e-09
6.92908e-09
7.30335e-09
7.69896e-09
8.11752e-09
8.56058e-09
9.03e-09
9.52758e-09
1.00556e-08
1.0616e-08
1.12115e-08
1.18442e-08
1.25175e-08
1.32342e-08
1.40025e-08
1.48486e-08
1.38667e-09
1.45339e-09
1.52422e-09
1.59939e-09
1.67909e-09
1.76356e-09
1.85301e-09
1.9477e-09
2.04789e-09
2.15384e-09
2.26582e-09
2.38412e-09
2.50904e-09
2.6409e-09
2.78001e-09
2.92671e-09
3.08134e-09
3.24428e-09
3.41592e-09
3.59663e-09
3.78683e-09
3.98701e-09
4.19763e-09
4.41917e-09
4.6522e-09
4.8973e-09
5.15508e-09
5.4262e-09
5.7114e-09
6.01144e-09
6.32718e-09
6.65949e-09
7.0094e-09
7.37798e-09
7.76637e-09
8.17587e-09
8.60788e-09
9.06383e-09
9.54548e-09
1.00545e-08
1.05928e-08
1.11625e-08
1.17659e-08
1.24051e-08
1.30831e-08
1.3802e-08
1.45653e-08
1.53754e-08
1.62362e-08
1.7151e-08
1.81294e-08
1.92033e-08
1.83866e-09
1.92992e-09
2.02645e-09
2.12847e-09
2.23628e-09
2.35014e-09
2.47034e-09
2.59716e-09
2.73092e-09
2.87194e-09
3.02057e-09
3.17713e-09
3.34198e-09
3.51551e-09
3.6981e-09
3.89017e-09
4.09211e-09
4.30439e-09
4.52751e-09
4.76195e-09
5.00823e-09
5.26694e-09
5.53868e-09
5.82409e-09
6.12386e-09
6.43874e-09
6.76953e-09
7.11708e-09
7.48232e-09
7.86623e-09
8.26994e-09
8.69459e-09
9.14147e-09
9.61197e-09
1.01076e-08
1.06299e-08
1.11808e-08
1.1762e-08
1.23758e-08
1.30241e-08
1.37096e-08
1.44346e-08
1.52019e-08
1.60142e-08
1.68749e-08
1.77867e-08
1.87534e-08
1.97778e-08
2.08643e-08
2.20167e-08
2.32461e-08
2.45902e-08
2.45295e-09
2.57543e-09
2.70457e-09
2.84064e-09
2.98396e-09
3.13488e-09
3.29374e-09
3.46089e-09
3.63668e-09
3.8215e-09
4.01577e-09
4.21989e-09
4.43427e-09
4.65936e-09
4.89568e-09
5.1437e-09
5.40395e-09
5.67698e-09
5.96341e-09
6.26385e-09
6.57897e-09
6.90949e-09
7.25617e-09
7.61982e-09
8.00134e-09
8.40166e-09
8.82179e-09
9.26283e-09
9.72597e-09
1.02125e-08
1.07237e-08
1.12612e-08
1.18266e-08
1.24216e-08
1.30481e-08
1.37082e-08
1.4404e-08
1.51378e-08
1.59123e-08
1.673e-08
1.75939e-08
1.85069e-08
1.94723e-08
2.04932e-08
2.15736e-08
2.27164e-08
2.39258e-08
2.52053e-08
2.65591e-08
2.79919e-08
2.9516e-08
3.11748e-08
3.27388e-09
3.43557e-09
3.60555e-09
3.78417e-09
3.97179e-09
4.16879e-09
4.37562e-09
4.59267e-09
4.82038e-09
5.05918e-09
5.30957e-09
5.57206e-09
5.84716e-09
6.13542e-09
6.43743e-09
6.75381e-09
7.08521e-09
7.43232e-09
7.79588e-09
8.17667e-09
8.57554e-09
8.99334e-09
9.43111e-09
9.8898e-09
1.03706e-08
1.08746e-08
1.14031e-08
1.19576e-08
1.25394e-08
1.31503e-08
1.37919e-08
1.44661e-08
1.5175e-08
1.59206e-08
1.67053e-08
1.75317e-08
1.84023e-08
1.93199e-08
2.02877e-08
2.13087e-08
2.23863e-08
2.3524e-08
2.47255e-08
2.59943e-08
2.73347e-08
2.87502e-08
3.0245e-08
3.1823e-08
3.34887e-08
3.52463e-08
3.71101e-08
3.91298e-08
4.35432e-09
4.56459e-09
4.78504e-09
5.01611e-09
5.25822e-09
5.5118e-09
5.77736e-09
6.05541e-09
6.34646e-09
6.65104e-09
6.96975e-09
7.30319e-09
7.652e-09
8.01685e-09
8.39846e-09
8.79758e-09
9.21503e-09
9.65164e-09
1.01083e-08
1.05861e-08
1.10859e-08
1.1609e-08
1.21565e-08
1.27297e-08
1.33299e-08
1.39588e-08
1.46177e-08
1.53086e-08
1.60332e-08
1.67934e-08
1.75916e-08
1.84299e-08
1.93107e-08
2.02368e-08
2.12108e-08
2.22357e-08
2.33149e-08
2.44513e-08
2.56487e-08
2.69106e-08
2.82408e-08
2.96434e-08
3.11223e-08
3.26814e-08
3.43253e-08
3.60577e-08
3.78828e-08
3.98046e-08
4.18275e-08
4.39561e-08
4.6205e-08
4.86323e-08
6.02592e-09
6.30795e-09
6.60287e-09
6.91118e-09
7.23342e-09
7.57016e-09
7.92201e-09
8.2896e-09
8.67357e-09
9.07462e-09
9.4935e-09
9.93097e-09
1.03879e-08
1.0865e-08
1.13634e-08
1.1884e-08
1.24279e-08
1.29961e-08
1.35899e-08
1.42106e-08
1.48595e-08
1.55381e-08
1.62481e-08
1.6991e-08
1.77688e-08
1.85834e-08
1.94369e-08
2.03316e-08
2.12697e-08
2.22541e-08
2.32872e-08
2.43722e-08
2.5512e-08
2.671e-08
2.79696e-08
2.92944e-08
3.06881e-08
3.21549e-08
3.36987e-08
3.53235e-08
3.7034e-08
3.88342e-08
4.07283e-08
4.27209e-08
4.4816e-08
4.70175e-08
4.93291e-08
5.17547e-08
5.42998e-08
5.69799e-08
5.986e-08
7.89284e-09
8.24919e-09
8.62104e-09
9.00901e-09
9.41374e-09
9.83589e-09
1.02762e-08
1.07354e-08
1.12143e-08
1.17137e-08
1.22346e-08
1.27778e-08
1.33443e-08
1.39353e-08
1.45518e-08
1.5195e-08
1.58663e-08
1.6567e-08
1.72986e-08
1.80627e-08
1.88609e-08
1.9695e-08
2.0567e-08
2.1479e-08
2.24331e-08
2.34317e-08
2.44774e-08
2.55728e-08
2.67207e-08
2.79243e-08
2.91867e-08
3.05113e-08
3.19018e-08
3.33616e-08
3.4895e-08
3.6506e-08