/*--------------------------------*- C++ -*----------------------------------*\
| =========                 |                                                 |
| \\      /  F ield         | OpenFOAM: The Open Source CFD Toolbox           |
|  \\    /   O peration     | Version:  v1706                                 |
|   \\  /    A nd           | Web:      www.OpenFOAM.com                      |
|    \\/     M anipulation  |                                                 |
\*---------------------------------------------------------------------------*/
FoamFile
{
    version     2.0;
    format      ascii;
    class       volScalarField;
    location    "1.8e-05";
    object      rho;
}
// * * * * * * * * * * * * * * * * * * * * * * * * * * * * * * * * * * * * * //

dimensions      [1 -3 0 0 0 0 0];


internalField   nonuniform List<scalar> 
30038
(
0.000511309
0.000511309
0.000511309
0.000511309
0.000511309
0.000511309
0.000511309
0.000511309
0.000511309
0.000511309
0.000511309
0.000511309
0.000511309
0.000511309
0.000511309
0.000511309
0.000511309
0.000511309
0.000511309
0.000511309
0.000511309
0.000511309
0.000511309
0.000511309
0.000511309
0.000511309
0.000511309
0.000511309
0.000511309
0.000511309
0.000511309
0.000511309
0.000511309
0.000511309
0.000511309
0.000511309
0.000511309
0.000511309
0.000511309
0.000511309
0.000511309
0.000511309
0.000511309
0.000511309
0.000511309
0.000511309
0.000511309
0.000511309
0.000511309
0.000511309
0.000511309
0.000511309
0.000511309
0.000511309
0.000511309
0.000511309
0.000511309
0.000511309
0.000511309
0.000511309
0.000511309
0.000511309
0.000511309
0.000511309
0.000511309
0.000511309
0.000511309
0.000511309
0.000511309
0.000511309
0.000511309
0.000511309
0.000511309
0.000511309
0.000511309
0.000511309
0.000511309
0.000511309
0.000511309
0.000511309
0.000511309
0.000511309
0.000511309
0.000511309
0.000511309
0.000511309
0.000511309
0.000511309
0.000511309
0.000511309
0.000511309
0.000511309
0.000511309
0.000511309
0.000511309
0.000511309
0.000511309
0.000511309
0.000511309
0.000511309
0.000511309
0.000511309
0.000511309
0.000511309
0.000511309
0.000511309
0.000511309
0.000511309
0.000511309
0.000511309
0.000511309
0.000511309
0.000511309
0.000511309
0.000511309
0.000511309
0.000511309
0.000511309
0.000511309
0.000511309
0.000511309
0.000511309
0.000511309
0.000511309
0.000511309
0.000511309
0.000511309
0.000511309
0.000511309
0.000511309
0.000511309
0.000511309
0.000511309
0.000511309
0.000511309
0.000511309
0.000511309
0.000511309
0.000511309
0.000511309
0.000511309
0.000511309
0.000511309
0.000511309
0.000511309
0.000511309
0.000511309
0.000511309
0.000511309
0.000511309
0.000511309
0.000511309
0.000511309
0.000511309
0.000511309
0.000511309
0.000511309
0.000511309
0.000511309
0.000511309
0.000511309
0.000511309
0.000511309
0.000511309
0.000511309
0.000511309
0.000511309
0.000511309
0.000511309
0.000511309
0.000511309
0.000511309
0.000511309
0.000511309
0.000511309
0.000511309
0.000511309
0.000511309
0.000511309
0.000511309
0.000511309
0.000511309
0.000511309
0.000511309
0.000511309
0.000511309
0.000511309
0.000511309
0.000511309
0.000511309
0.000511309
0.000511309
0.000511309
0.000511309
0.000511309
0.000511309
0.000511309
0.000511309
0.000511309
0.000511309
0.000511309
0.000511309
0.000511309
0.000511309
0.000511309
0.000511309
0.000511309
0.000511309
0.000511309
0.000511309
0.000511309
0.000511309
0.000511309
0.000511309
0.000511309
0.000511309
0.000511309
0.000511309
0.000511309
0.000511309
0.000511309
0.000511309
0.000511309
0.000511309
0.000511309
0.000511309
0.000511309
0.000511309
0.000511309
0.000511309
0.000511309
0.000511309
0.000511309
0.000511309
0.000511309
0.000511309
0.000511309
0.000511309
0.000511309
0.000511309
0.000511309
0.000511309
0.000511309
0.000511309
0.000511309
0.000511309
0.000511309
0.000511309
0.000511309
0.000511309
0.000511309
0.000511309
0.000511309
0.000511309
0.000511309
0.000511309
0.000511309
0.000511309
0.000511309
0.000511309
0.000511309
0.000511309
0.000511309
0.000511309
0.000511309
0.000511309
0.000511309
0.000511309
0.000511309
0.000511309
0.000511309
0.000511309
0.000511309
0.000511309
0.000511309
0.000511309
0.000511309
0.000511309
0.000511309
0.000511309
0.000511309
0.000511309
0.000511309
0.000511309
0.000511309
0.000511309
0.000511309
0.000511309
0.000511309
0.000511309
0.000511309
0.000511309
0.000511309
0.000511309
0.000511309
0.000511309
0.000511309
0.000511309
0.000511309
0.000511309
0.000511309
0.000511309
0.000511309
0.000511309
0.000511309
0.000511309
0.000511309
0.000511309
0.000511309
0.000511309
0.000511309
0.000511309
0.000511309
0.000511309
0.000511309
0.000511309
0.000511309
0.000511309
0.000511309
0.000511309
0.000511309
0.000511309
0.000511309
0.000511309
0.000511309
0.000511309
0.000511309
0.000511309
0.000511309
0.000511309
0.000511309
0.000511309
0.000511309
0.000511309
0.000511309
0.000511309
0.000511309
0.000511309
0.000511309
0.000511309
0.000511309
0.000511309
0.000511309
0.000511309
0.000511309
0.000511309
0.000511309
0.000511309
0.000511309
0.000511309
0.000511309
0.000511309
0.000511309
0.000511309
0.000511309
0.000511309
0.000511309
0.000511309
0.000511309
0.000511309
0.000511309
0.000511309
0.000511309
0.000511309
0.000511309
0.000511309
0.000511309
0.000511309
0.000511309
0.000511309
0.000511309
0.000511309
0.000511309
0.000511309
0.000511309
0.000511309
0.000511309
0.000511309
0.000511309
0.000511309
0.000511309
0.000511309
0.000511309
0.000511309
0.000511309
0.000511309
0.000511309
0.000511309
0.000511309
0.000511309
0.000511309
0.000511309
0.000511309
0.000511309
0.000511309
0.000511309
0.000511309
0.000511309
0.000511309
0.000511309
0.000511309
0.000511309
0.000511309
0.000511309
0.000511309
0.000511309
0.000511309
0.000511309
0.000511309
0.000511309
0.000511309
0.000511309
0.000511309
0.000511309
0.000511309
0.000511309
0.000511309
0.00051131
0.00051131
0.00051131
0.00051131
0.000511309
0.000511309
0.000511309
0.000511309
0.000511309
0.000511309
0.000511309
0.000511309
0.000511309
0.000511309
0.000511309
0.000511309
0.000511309
0.000511309
0.000511309
0.000511309
0.000511309
0.000511309
0.000511309
0.000511309
0.000511309
0.000511309
0.000511309
0.000511309
0.000511309
0.000511309
0.000511309
0.000511309
0.000511309
0.000511309
0.000511309
0.000511309
0.00051131
0.00051131
0.00051131
0.00051131
0.00051131
0.00051131
0.00051131
0.000511311
0.000511309
0.000511309
0.000511309
0.000511309
0.000511309
0.000511309
0.000511309
0.000511309
0.000511309
0.000511309
0.000511309
0.000511309
0.000511309
0.000511309
0.000511309
0.000511309
0.000511309
0.000511309
0.000511309
0.000511309
0.000511309
0.000511309
0.000511309
0.000511309
0.000511309
0.000511309
0.000511309
0.00051131
0.00051131
0.00051131
0.00051131
0.00051131
0.00051131
0.00051131
0.000511311
0.000511311
0.000511311
0.000511312
0.000511313
0.000511314
0.000511309
0.000511309
0.000511309
0.000511309
0.000511309
0.000511309
0.000511309
0.000511309
0.000511309
0.000511309
0.000511309
0.000511309
0.000511309
0.000511309
0.000511309
0.000511309
0.000511309
0.000511309
0.000511309
0.000511309
0.000511309
0.000511309
0.000511309
0.00051131
0.00051131
0.00051131
0.00051131
0.00051131
0.00051131
0.00051131
0.000511311
0.000511311
0.000511312
0.000511312
0.000511313
0.000511315
0.000511316
0.000511318
0.000511321
0.000511326
0.000511309
0.000511309
0.000511309
0.000511309
0.000511309
0.000511309
0.000511309
0.000511309
0.000511309
0.000511309
0.000511309
0.000511309
0.000511309
0.000511309
0.000511309
0.000511309
0.000511309
0.000511309
0.00051131
0.00051131
0.00051131
0.00051131
0.00051131
0.00051131
0.00051131
0.000511311
0.000511311
0.000511311
0.000511312
0.000511313
0.000511314
0.000511315
0.000511317
0.000511319
0.000511323
0.000511327
0.000511332
0.00051134
0.000511349
0.000511363
0.000511309
0.000511309
0.000511309
0.000511309
0.000511309
0.000511309
0.000511309
0.000511309
0.000511309
0.000511309
0.000511309
0.000511309
0.000511309
0.00051131
0.00051131
0.00051131
0.00051131
0.00051131
0.00051131
0.00051131
0.00051131
0.000511311
0.000511311
0.000511312
0.000511312
0.000511313
0.000511314
0.000511316
0.000511318
0.000511321
0.000511324
0.000511329
0.000511335
0.000511343
0.000511353
0.000511367
0.000511384
0.000511408
0.000511438
0.000511483
0.000511309
0.000511309
0.000511309
0.000511309
0.000511309
0.000511309
0.000511309
0.000511309
0.000511309
0.00051131
0.00051131
0.00051131
0.00051131
0.00051131
0.00051131
0.00051131
0.000511311
0.000511311
0.000511311
0.000511312
0.000511313
0.000511314
0.000511315
0.000511317
0.000511319
0.000511322
0.000511326
0.000511331
0.000511338
0.000511346
0.000511358
0.000511372
0.000511392
0.000511417
0.00051145
0.000511493
0.000511549
0.000511623
0.000511719
0.00051186
0.000511309
0.000511309
0.000511309
0.000511309
0.00051131
0.00051131
0.00051131
0.00051131
0.00051131
0.00051131
0.00051131
0.00051131
0.000511311
0.000511311
0.000511312
0.000511312
0.000511313
0.000511314
0.000511316
0.000511318
0.00051132
0.000511324
0.000511328
0.000511334
0.000511341
0.00051135
0.000511363
0.000511379
0.0005114
0.000511427
0.000511462
0.000511509
0.000511569
0.000511648
0.00051175
0.000511884
0.000512058
0.000512287
0.00051258
0.000513012
0.00051131
0.00051131
0.00051131
0.00051131
0.00051131
0.00051131
0.00051131
0.00051131
0.000511311
0.000511311
0.000511311
0.000511312
0.000511313
0.000511314
0.000511315
0.000511317
0.000511319
0.000511322
0.000511325
0.00051133
0.000511336
0.000511344
0.000511355
0.000511368
0.000511386
0.000511408
0.000511438
0.000511476
0.000511526
0.000511591
0.000511675
0.000511784
0.000511926
0.000512111
0.000512351
0.000512663
0.000513069
0.000513593
0.000514281
0.000515157
0.00051643
0.00051131
0.00051131
0.00051131
0.000511311
0.000511311
0.000511311
0.000511312
0.000511312
0.000511313
0.000511314
0.000511316
0.000511318
0.00051132
0.000511323
0.000511327
0.000511333
0.000511339
0.000511348
0.00051136
0.000511374
0.000511393
0.000511418
0.00051145
0.000511491
0.000511544
0.000511614
0.000511704
0.00051182
0.000511971
0.000512167
0.00051242
0.000512749
0.000513175
0.000513726
0.000514438
0.000515359
0.000516549
0.000518081
0.000520072
0.000522584
0.000526181
0.000511311
0.000511311
0.000511312
0.000511312
0.000511313
0.000511314
0.000511315
0.000511317
0.000511319
0.000511322
0.000511325
0.00051133
0.000511336
0.000511343
0.000511353
0.000511365
0.000511381
0.000511402
0.000511429
0.000511463
0.000511508
0.000511565
0.000511639
0.000511735
0.000511859
0.000512019
0.000512226
0.000512494
0.000512839
0.000513285
0.000513861
0.000514605
0.000515563
0.000516797
0.000518384
0.000520422
0.000523033
0.000526377
0.000530622
0.000536065
0.000542809
0.000552278
0.000511313
0.000511314
0.000511315
0.000511316
0.000511318
0.000511321
0.000511324
0.000511328
0.000511333
0.000511339
0.000511348
0.000511358
0.000511372
0.00051139
0.000511412
0.000511441
0.000511479
0.000511527
0.000511588
0.000511668
0.00051177
0.000511902
0.000512072
0.000512291
0.000512573
0.000512936
0.000513404
0.000514006
0.00051478
0.000515775
0.000517053
0.000518691
0.000520789
0.000523471
0.000526889
0.000531231
0.000536723
0.000543647
0.000552362
0.000563273
0.000577005
0.00059352
0.000616448
0.00051132
0.000511323
0.000511326
0.000511331
0.000511336
0.000511344
0.000511353
0.000511365
0.00051138
0.0005114
0.000511424
0.000511456
0.000511497
0.000511549
0.000511616
0.000511701
0.000511811
0.000511952
0.000512133
0.000512365
0.000512663
0.000513045
0.000513535
0.000514164
0.00051497
0.000516003
0.000517325
0.000519015
0.000521171
0.000523919
0.000527411
0.000531834
0.000537411
0.000544415
0.000553195
0.000564175
0.000577836
0.000594658
0.000615264
0.000640499
0.000672521
0.000712149
0.000770774
0.000511334
0.000511341
0.000511349
0.00051136
0.000511373
0.00051139
0.000511412
0.000511439
0.000511474
0.000511519
0.000511576
0.000511648
0.000511741
0.000511859
0.00051201
0.000512203
0.00051245
0.000512766
0.000513169
0.000513684
0.000514343
0.000515184
0.000516258
0.000517628
0.000519371
0.000521588
0.000524403
0.000527969
0.000532469
0.000538125
0.000545201
0.000554035
0.000565043
0.000578705
0.000595522
0.000616007
0.000641014
0.00067207
0.00071151
0.00076221
0.000826415
0.000906272
0.000997263
0.00111168
0.000511368
0.000511383
0.000511402
0.000511426
0.000511457
0.000511496
0.000511545
0.000511608
0.000511687
0.000511788
0.000511917
0.00051208
0.000512287
0.000512551
0.000512887
0.000513315
0.000513859
0.000514551
0.000515432
0.000516553
0.000517975
0.000519779
0.000522062
0.00052495
0.000528594
0.000533177
0.000538914
0.000546064
0.000554946
0.000565972
0.000579619
0.00059639
0.000616762
0.000641468
0.000671858
0.000710137
0.000759132
0.000821471
0.000898621
0.000990085
0.00109336
0.00120322
0.0013159
0.00142022
0.00152558
0.000511445
0.00051148
0.000511523
0.000511578
0.000511648
0.000511736
0.000511847
0.000511987
0.000512164
0.000512389
0.000512673
0.000513033
0.00051349
0.000514068
0.0005148
0.000515727
0.000516901
0.000518385
0.000520258
0.000522619
0.000525591
0.000529324
0.000534001
0.000539831
0.000547066
0.000556009
0.000567062
0.000580691
0.000597399
0.000617668
0.000642095
0.00067186
0.000709
0.0007563
0.000816509
0.000891364
0.000980763
0.00108242
0.00119204
0.00130407
0.00141249
0.00151255
0.00159957
0.00167383
0.00173111
0.00177942
0.000511558
0.00051162
0.000511698
0.000511796
0.000511919
0.000512073
0.000512268
0.000512513
0.000512823
0.000513212
0.000513703
0.000514321
0.000515101
0.000516084
0.000517321
0.000518879
0.000520835
0.000523288
0.00052636
0.000530201
0.000534991
0.000540936
0.000548277
0.000557309
0.000568409
0.00058204
0.000598703
0.000618888
0.00064308
0.0006723
0.000708406
0.000754077
0.000812156
0.000884621
0.000971716
0.00107154
0.00118015
0.00129219
0.0014018
0.00150366
0.00159374
0.00166994
0.00173144
0.0017795
0.00181491
0.00184078
0.00185774
0.00186917
0.00051201
0.000512182
0.000512398
0.000512669
0.000513008
0.000513433
0.000513966
0.000514634
0.000515471
0.000516521
0.000517836
0.000519482
0.000521539
0.000524104
0.000527299
0.000531274
0.000536205
0.000542294
0.000549775
0.000558931
0.000570116
0.00058379
0.00060045
0.000620582
0.00064461
0.000673399
0.000708617
0.000752809
0.000808877
0.000878987
0.000963692
0.00106145
0.00116871
0.00128037
0.00139069
0.00149423
0.00158673
0.00166565
0.0017301
0.00178063
0.0018186
0.001846
0.0018646
0.00187669
0.00188357
0.00188692
0.00188808
0.00188758
0.000512563
0.000512865
0.000513241
0.00051371
0.000514295
0.000515023
0.000515931
0.000517063
0.000518473
0.000520229
0.000522409
0.000525112
0.000528459
0.000532599
0.000537707
0.000543981
0.000551646
0.000560973
0.000572299
0.000586075
0.000602792
0.000622924
0.000646883
0.000675367
0.000709874
0.000752812
0.000807086
0.000874999
0.000957362
0.00105297
0.00115862
0.00126952
0.0013801
0.00148489
0.00157946
0.00166093
0.00172813
0.00178131
0.0018217
0.00185108
0.00187135
0.00188452
0.00189225
0.001896
0.0018971
0.00189673
0.00189557
0.00189403
0.00189218
0.00188896
0.000514709
0.000515513
0.000516508
0.000517741
0.000519269
0.000521159
0.000523491
0.000526364
0.000529899
0.000534246
0.000539577
0.000546086
0.000553989
0.000563547
0.000575083
0.000589037
0.000605893
0.000626112
0.000650104
0.00067842
0.00071242
0.000754382
0.000807155
0.000873142
0.000953348
0.00104684
0.00115073
0.00126055
0.00137095
0.00147652
0.00157269
0.00165636
0.00172605
0.00178176
0.00182453
0.00185597
0.00187795
0.00189243
0.00190113
0.00190545
0.00190684
0.00190646
0.00190522
0.00190356
0.00190122
0.00189804
0.00189393
0.00188903
0.00188371
0.00187708
0.000520272
0.000522327
0.000524846
0.000527929
0.000531698
0.000536302
0.000541912
0.000548717
0.000556925
0.000566786
0.000578613
0.000592837
0.000609934
0.000630353
0.000654493
0.000682794
0.000716508
0.0007578
0.000809434
0.000873869
0.000952227
0.00104377
0.00114587
0.00125438
0.0013642
0.00147003
0.00156727
0.00165264
0.00172443
0.0017824
0.00182737
0.00186083
0.00188452
0.00190039
0.00191015
0.00191518
0.00191699
0.00191673
0.00191551
0.00191375
0.00191129
0.00190792
0.00190361
0.00189845
0.00189267
0.00188644
0.00188009
0.0018733
0.00186717
0.00186039
0.000533952
0.000538874
0.000544832
0.000552006
0.000560598
0.000570846
0.00058306
0.000597664
0.000615127
0.000635881
0.0006603
0.000688755
0.000722418
0.000763371
0.000814288
0.000877633
0.000954556
0.00104443
0.00114483
0.00125189
0.00136076
0.00146634
0.00156407
0.00165056
0.00172394
0.00178374
0.00183062
0.0018659
0.00189122
0.00190845
0.0019193
0.00192515
0.00192744
0.00192744
0.00192626
0.00192449
0.00192203
0.00191859
0.00191422
0.00190891
0.00190296
0.00189652
0.00188984
0.00188282
0.00187592
0.00186923
0.0018632
0.00185722
0.00185248
0.00184731
0.000565182
0.000575917
0.000588629
0.000603744
0.00062172
0.000642964
0.000667817
0.000696606
0.00073047
0.000771445
0.000822124
0.000884911
0.000960899
0.00104948
0.00114837
0.00125391
0.00136154
0.00146638
0.00156396
0.00165091
0.00172525
0.00178636
0.00183472
0.00187152
0.00189827
0.00191675
0.00192862
0.00193534
0.00193816
0.0019385
0.0019374
0.00193569
0.00193327
0.00192986
0.00192545
0.00192013
0.0019142
0.00190765
0.00190072
0.00189342
0.00188619
0.00187916
0.0018725
0.00186614
0.0018603
0.00185472
0.00185007
0.00184548
0.00184239
0.00183893
0.000630013
0.000651924
0.000677383
0.000706702
0.000741044
0.000782447
0.000833423
0.000896249
0.000971867
0.0010596
0.00115721
0.00126124
0.00136738
0.001471
0.00156781
0.00165451
0.0017291
0.00179087
0.00184017
0.00187807
0.00190593
0.00192546
0.00193825
0.00194578
0.00194915
0.00194984
0.00194889
0.00194728
0.00194493
0.00194159
0.00193714
0.00193199
0.0019261
0.00191957
0.00191256
0.00190506
0.00189751
0.00189019
0.00188318
0.0018764
0.00186998
0.00186387
0.00185826
0.00185301
0.0018486
0.00184433
0.00184125
0.00183807
0.00183645
0.00183455
0.00075461
0.000796908
0.000848783
0.0009123
0.000988154
0.00107551
0.00117211
0.00127466
0.00137907
0.00148101
0.0015764
0.00166208
0.00173615
0.00179785
0.00184745
0.00188593
0.00191452
0.0019348
0.00194833
0.00195653
0.00196041
0.00196146
0.0019607
0.0019592
0.00195692
0.00195368
0.0019493
0.00194428
0.00193846
0.00193204
0.00192507
0.00191754
0.00190978
0.00190218
0.00189488
0.00188783
0.00188099
0.00187442
0.00186827
0.00186241
0.00185708
0.00185212
0.00184786
0.00184387
0.00184091
0.00183787
0.00183625
0.00183446
0.0018341
0.00183335
0.00101057
0.00109798
0.00119381
0.00129487
0.00139732
0.00149708
0.00159038
0.00167427
0.001747
0.00180784
0.00185703
0.00189548
0.00192432
0.00194499
0.00195899
0.00196769
0.00197199
0.00197336
0.0019728
0.00197139
0.00196923
0.00196609
0.00196185
0.00195685
0.00195119
0.00194493
0.00193808
0.00193059
0.00192279
0.00191503
0.00190748
0.00190015
0.00189305
0.00188617
0.00187956
0.00187329
0.00186739
0.00186175
0.00185668
0.00185194
0.00184787
0.00184414
0.00184121
0.00183839
0.00183679
0.00183506
0.00183448
0.00183373
0.00183453
0.00183518
0.00142271
0.00151978
0.00161026
0.00169155
0.00176209
0.00182126
0.0018693
0.00190706
0.00193561
0.00195626
0.0019704
0.00197936
0.00198395
0.00198555
0.00198519
0.00198384
0.0019818
0.00197878
0.00197467
0.00196967
0.00196421
0.00195813
0.00195144
0.00194409
0.00193631
0.00192851
0.00192084
0.00191331
0.00190594
0.00189882
0.00189196
0.00188533
0.00187899
0.00187297
0.00186724
0.00186187
0.00185701
0.00185249
0.0018486
0.00184508
0.00184215
0.0018396
0.00183797
0.00183624
0.00183556
0.00183496
0.0018355
0.00183598
0.00183788
0.00183994
0.00178168
0.00183836
0.0018845
0.00192089
0.00194859
0.00196875
0.00198268
0.00199161
0.00199632
0.00199806
0.00199784
0.00199656
0.00199462
0.0019917
0.00198771
0.00198273
0.00197743
0.00197157
0.00196506
0.00195792
0.00195021
0.00194244
0.00193475
0.00192715
0.0019196
0.00191224
0.00190515
0.00189832
0.0018917
0.00188529
0.0018792
0.00187337
0.00186785
0.00186275
0.00185806
0.00185377
0.00185005
0.00184663
0.00184384
0.00184149
0.00183972
0.00183806
0.00183732
0.00183684
0.00183711
0.00183763
0.00183934
0.00184118
0.00184416
0.00184726
0.00196334
0.00198255
0.00199591
0.0020045
0.00200913
0.00201088
0.00201076
0.00200953
0.00200765
0.0020048
0.00200091
0.00199599
0.00199081
0.00198515
0.00197886
0.00197196
0.00196436
0.00195669
0.00194903
0.00194147
0.00193385
0.00192633
0.00191905
0.00191202
0.00190522
0.00189861
0.00189218
0.00188603
0.00188015
0.00187449
0.00186923
0.00186434
0.00185982
0.00185579
0.00185215
0.00184889
0.00184624
0.00184399
0.00184207
0.00184053
0.00183978
0.0018393
0.00183934
0.00184003
0.0018415
0.00184326
0.00184588
0.00184873
0.00185257
0.00185653
0.00202238
0.00202402
0.0020239
0.00202272
0.00202086
0.00201805
0.00201423
0.0020094
0.00200431
0.00199882
0.00199274
0.00198609
0.00197867
0.00197113
0.00196358
0.00195609
0.0019485
0.00194095
0.00193354
0.00192638
0.0019194
0.00191264
0.00190606
0.00189962
0.00189344
0.00188752
0.00188178
0.00187637
0.00187135
0.00186661
0.00186235
0.00185847
0.00185492
0.00185186
0.00184934
0.00184698
0.00184509
0.00184372
0.00184286
0.00184227
0.00184235
0.00184308
0.0018443
0.00184597
0.00184835
0.00185105
0.00185446
0.00185809
0.00186257
0.00186718
0.00203419
0.00203139
0.0020276
0.00202287
0.00201787
0.00201253
0.00200666
0.00200023
0.00199304
0.00198566
0.00197827
0.0019709
0.0019634
0.00195588
0.00194847
0.00194122
0.00193416
0.00192724
0.00192055
0.001914
0.00190759
0.0019014
0.00189546
0.00188966
0.00188415
0.00187901
0.00187413
0.00186964
0.00186558
0.00186176
0.0018584
0.00185556
0.00185293
0.00185058
0.00184886
0.00184748
0.0018465
0.00184592
0.00184611
0.00184669
0.00184777
0.00184935
0.0018515
0.001854
0.00185711
0.00186052
0.00186456
0.00186876
0.00187369
0.00187868
0.00203142
0.00202623
0.00202055
0.00201432
0.00200737
0.00200019
0.00199299
0.00198578
0.00197844
0.00197101
0.00196364
0.00195642
0.00194933
0.00194236
0.00193553
0.00192891
0.00192243
0.00191605
0.00190989
0.00190393
0.00189812
0.00189253
0.00188729
0.00188231
0.00187766
0.00187341
0.00186941
0.00186576
0.00186267
0.00185976
0.00185708
0.00185495
0.00185325
0.00185177
0.00185076
0.00185037
0.00185045
0.00185089
0.00185192
0.00185337
0.0018553
0.00185761
0.00186046
0.00186362
0.00186731
0.00187123
0.00187569
0.00188023
0.00188539
0.00189051
0.00202158
0.00201464
0.00200767
0.00200064
0.00199349
0.0019862
0.00197895
0.0019718
0.00196477
0.0019578
0.00195094
0.00194423
0.00193771
0.00193129
0.00192498
0.00191885
0.00191289
0.00190709
0.00190148
0.00189615
0.0018911
0.00188634
0.00188193
0.00187776
0.00187393
0.00187058
0.00186744
0.00186445
0.00186202
0.00185996
0.00185814
0.00185666
0.00185584
0.00185542
0.00185536
0.00185579
0.00185673
0.001858
0.00185976
0.00186188
0.00186448
0.00186739
0.00187077
0.00187439
0.00187848
0.00188269
0.00188736
0.00189199
0.00189715
0.00190214
0.0020154
0.00200844
0.00200134
0.00199426
0.00198725
0.00198031
0.00197342
0.00196659
0.00195988
0.00195331
0.00194689
0.00194056
0.00193434
0.00192825
0.00192232
0.00191655
0.00191093
0.00190555
0.00190045
0.00189563
0.00189108
0.00188679
0.0018828
0.00187927
0.00187589
0.00187268
0.00186996
0.00186761
0.00186543
0.00186363
0.00186235
0.00186154
0.00186101
0.00186097
0.00186135
0.00186213
0.00186326
0.00186487
0.00186679
0.00186917
0.00187183
0.00187492
0.00187825
0.00188199
0.00188585
0.00189015
0.00189441
0.00189909
0.00190356
0.00190849
0.00191311
0.00200262
0.00199584
0.00198907
0.00198234
0.00197569
0.00196915
0.00196274
0.00195643
0.00195021
0.00194406
0.00193805
0.00193218
0.00192645
0.00192084
0.00191546
0.00191034
0.00190548
0.00190083
0.00189644
0.00189236
0.00188866
0.00188506
0.00188166
0.00187873
0.0018761
0.00187364
0.00187151
0.00186991
0.00186869
0.00186777
0.00186729
0.00186722
0.0018675
0.00186815
0.00186918
0.00187061
0.00187235
0.00187451
0.00187693
0.00187975
0.0018828
0.0018862
0.00188975
0.00189367
0.00189756
0.00190184
0.00190594
0.0019104
0.0019145
0.00191899
0.00192302
0.00199805
0.00199152
0.00198507
0.00197871
0.00197245
0.00196628
0.00196017
0.00195412
0.00194821
0.00194242
0.00193674
0.00193116
0.00192581
0.00192072
0.00191583
0.00191111
0.00190666
0.00190253
0.00189868
0.00189489
0.00189136
0.00188825
0.00188537
0.00188266
0.00188028
0.00187838
0.00187683
0.00187554
0.00187469
0.00187421
0.00187407
0.00187425
0.00187482
0.00187573
0.00187698
0.00187856
0.0018805
0.0018827
0.00188527
0.00188803
0.00189113
0.00189438
0.0018979
0.00190147
0.00190536
0.00190907
0.00191314
0.00191687
0.0019209
0.00192443
0.00192832
0.00193154
0.0019885
0.00198241
0.00197638
0.00197039
0.00196447
0.00195868
0.00195299
0.00194736
0.00194185
0.00193658
0.00193152
0.0019266
0.00192188
0.00191741
0.00191325
0.00190925
0.00190532
0.00190171
0.00189846
0.00189535
0.00189244
0.00188984
0.00188771
0.00188586
0.00188426
0.00188308
0.00188224
0.00188171
0.00188151
0.00188163
0.00188211
0.00188288
0.00188399
0.00188541
0.00188713
0.00188914
0.00189144
0.00189394
0.00189676
0.00189968
0.00190287
0.00190614
0.0019096
0.00191299
0.00191665
0.00192
0.00192364
0.00192683
0.00193027
0.00193305
0.00193622
0.00193845
0.00198082
0.00197507
0.00196941
0.00196381
0.00195826
0.00195288
0.0019477
0.00194267
0.00193776
0.00193308
0.00192864
0.00192444
0.00192029
0.00191631
0.00191266
0.00190925
0.00190596
0.00190289
0.00190014
0.0018978
0.0018957
0.00189384
0.00189238
0.00189123
0.00189035
0.0018898
0.00188955
0.00188961
0.00188999
0.00189064
0.00189163
0.00189287
0.00189441
0.00189622
0.00189826
0.00190054
0.00190306
0.00190569
0.00190858
0.00191151
0.0019146
0.0019177
0.00192091
0.00192394
0.00192719
0.00193
0.00193305
0.00193555
0.00193825
0.00194015
0.00194248
0.00194369
0.00197482
0.00196942
0.00196418
0.00195909
0.0019541
0.00194928
0.00194466
0.00194027
0.00193599
0.00193178
0.00192781
0.00192411
0.00192056
0.00191714
0.00191396
0.00191111
0.00190859
0.00190626
0.0019042
0.00190251
0.00190108
0.0018999
0.00189904
0.00189847
0.00189818
0.00189817
0.00189845
0.00189901
0.00189986
0.00190095
0.00190232
0.00190392
0.00190574
0.0019078
0.00191002
0.00191241
0.00191498
0.00191757
0.00192036
0.00192312
0.00192592
0.0019287
0.00193148
0.00193399
0.00193666
0.00193882
0.00194111
0.00194282
0.00194466
0.00194564
0.00194697
0.00194721
0.00197067
0.00196579
0.00196108
0.00195656
0.00195219
0.00194784
0.00194367
0.00193973
0.00193598
0.00193231
0.00192883
0.00192558
0.00192267
0.00191998
0.00191747
0.00191527
0.00191337
0.0019117
0.00191029
0.00190915
0.00190829
0.00190769
0.00190736
0.0019073
0.0019075
0.00190796
0.00190867
0.00190963
0.00191084
0.00191223
0.00191388
0.00191568
0.00191765
0.0019198
0.00192204
0.00192438
0.00192685
0.00192924
0.00193175
0.00193418
0.00193654
0.00193883
0.00194104
0.0019429
0.00194483
0.00194626
0.00194765
0.00194854
0.0019494
0.00194945
0.00194971
0.00194897
0.00196868
0.00196428
0.00195999
0.00195589
0.00195199
0.00194815
0.00194445
0.00194095
0.0019377
0.00193471
0.00193188
0.00192928
0.00192696
0.00192488
0.00192302
0.0019214
0.00192004
0.00191893
0.00191807
0.00191745
0.00191709
0.00191697
0.0019171
0.00191747
0.00191806
0.0019189
0.00191993
0.00192117
0.00192261
0.00192418
0.00192595
0.00192782
0.00192979
0.00193189
0.00193399
0.00193612
0.00193832
0.00194036
0.00194244
0.0019444
0.00194618
0.00194783
0.00194936
0.00195047
0.00195155
0.00195219
0.00195263
0.0019526
0.00195247
0.00195161
0.00195089
0.00194933
0.00196836
0.00196443
0.00196059
0.00195692
0.00195344
0.00195021
0.00194714
0.00194424
0.00194159
0.00193917
0.00193695
0.00193494
0.00193316
0.00193162
0.0019303
0.0019292
0.00192834
0.00192772
0.00192733
0.00192716
0.00192723
0.00192751
0.00192801
0.00192871
0.0019296
0.00193068
0.00193192
0.00193331
0.00193485
0.00193647
0.00193822
0.00194002
0.00194183
0.00194372
0.00194554
0.00194732
0.0019491
0.00195067
0.00195217
0.00195354
0.00195463
0.00195554
0.00195629
0.0019566
0.00195676
0.00195654
0.00195603
0.00195507
0.00195392
0.00195234
0.00195076
0.00194836
0.00196623
0.00196299
0.0019599
0.00195699
0.00195431
0.00195181
0.00194949
0.00194738
0.00194548
0.00194378
0.00194229
0.00194101
0.00193995
0.00193911
0.00193848
0.00193806
0.00193786
0.00193786
0.00193807
0.00193847
0.00193905
0.00193981
0.00194074
0.00194181
0.00194302
0.00194433
0.00194575
0.00194726
0.00194878
0.00195038
0.00195195
0.00195348
0.00195502
0.00195643
0.00195772
0.00195896
0.00195993
0.00196075
0.00196142
0.00196176
0.00196185
0.00196174
0.00196123
0.00196044
0.00195932
0.00195784
0.00195609
0.00195413
0.00195179
0.00194933
0.00194596
0.00197003
0.00196733
0.00196478
0.00196242
0.00196024
0.00195824
0.00195643
0.00195481
0.00195339
0.00195217
0.00195114
0.00195032
0.00194969
0.00194926
0.00194902
0.00194897
0.00194911
0.00194942
0.0019499
0.00195054
0.00195132
0.00195224
0.00195327
0.00195439
0.00195561
0.00195688
0.00195819
0.00195953
0.00196082
0.00196213
0.00196335
0.00196447
0.00196553
0.0019664
0.0019671
0.0019677
0.00196798
0.00196805
0.00196793
0.00196748
0.00196672
0.0019657
0.00196433
0.00196262
0.00196061
0.0019584
0.00195589
0.00195315
0.00194992
0.0019466
0.00194249
0.00197562
0.00197341
0.00197136
0.00196948
0.00196777
0.00196624
0.00196489
0.00196372
0.00196274
0.00196194
0.00196132
0.00196088
0.00196062
0.00196053
0.00196061
0.00196084
0.00196123
0.00196175
0.0019624
0.00196317
0.00196404
0.001965
0.00196601
0.00196708
0.00196817
0.00196926
0.00197034
0.00197138
0.00197233
0.00197322
0.00197397
0.00197457
0.00197505
0.0019753
0.00197531
0.00197517
0.00197473
0.001974
0.00197303
0.00197175
0.00197014
0.00196823
0.00196596
0.00196349
0.00196075
0.00195781
0.00195449
0.00195088
0.00194692
0.00194295
0.00193824
0.00198104
0.00197944
0.00197801
0.00197674
0.00197564
0.0019747
0.00197394
0.00197333
0.0019729
0.00197262
0.00197249
0.00197252
0.00197269
0.00197299
0.00197341
0.00197395
0.00197458
0.0019753
0.00197609
0.00197693
0.00197781
0.0019787
0.00197958
0.00198043
0.00198123
0.00198196
0.00198258
0.00198307
0.00198345
0.00198363
0.00198361
0.00198342
0.00198298
0.00198226
0.00198133
0.0019801
0.00197856
0.00197674
0.0019746
0.00197213
0.00196938
0.00196643
0.00196326
0.00195981
0.00195601
0.00195193
0.00194765
0.00194312
0.00193863
0.00193342
0.00199007
0.00198889