/*--------------------------------*- C++ -*----------------------------------*\
| =========                 |                                                 |
| \\      /  F ield         | OpenFOAM: The Open Source CFD Toolbox           |
|  \\    /   O peration     | Version:  v1706                                 |
|   \\  /    A nd           | Web:      www.OpenFOAM.com                      |
|    \\/     M anipulation  |                                                 |
\*---------------------------------------------------------------------------*/
FoamFile
{
    version     2.0;
    format      ascii;
    class       volScalarField;
    location    "1.8e-05";
    object      Tov;
}
// * * * * * * * * * * * * * * * * * * * * * * * * * * * * * * * * * * * * * //

dimensions      [0 0 0 1 0 0 0];


internalField   nonuniform List<scalar> 
30038
(
144.4
144.4
144.4
144.4
144.4
144.4
144.4
144.4
144.4
144.4
144.4
144.4
144.4
144.4
144.4
144.4
144.4
144.4
144.4
144.4
144.4
144.4
144.4
144.4
144.4
144.4
144.4
144.4
144.4
144.4
144.4
144.4
144.4
144.4
144.4
144.4
144.4
144.4
144.4
144.4
144.4
144.4
144.4
144.4
144.4
144.4
144.4
144.4
144.4
144.4
144.4
144.4
144.4
144.4
144.4
144.4
144.4
144.4
144.4
144.4
144.4
144.4
144.4
144.4
144.4
144.4
144.4
144.4
144.4
144.4
144.4
144.4
144.4
144.4
144.4
144.4
144.4
144.4
144.4
144.4
144.4
144.4
144.4
144.4
144.4
144.4
144.4
144.4
144.4
144.4
144.4
144.4
144.4
144.4
144.4
144.4
144.4
144.4
144.4
144.4
144.4
144.4
144.4
144.4
144.4
144.4
144.4
144.4
144.4
144.4
144.4
144.4
144.4
144.4
144.4
144.4
144.4
144.4
144.4
144.4
144.4
144.4
144.4
144.4
144.4
144.4
144.4
144.4
144.4
144.4
144.4
144.4
144.4
144.4
144.4
144.4
144.4
144.4
144.4
144.4
144.4
144.4
144.4
144.4
144.4
144.4
144.4
144.4
144.4
144.4
144.4
144.4
144.4
144.4
144.4
144.4
144.4
144.4
144.4
144.4
144.4
144.4
144.4
144.4
144.4
144.4
144.4
144.4
144.4
144.4
144.4
144.4
144.4
144.4
144.4
144.4
144.4
144.4
144.4
144.4
144.4
144.4
144.4
144.4
144.4
144.4
144.4
144.4
144.4
144.4
144.4
144.4
144.4
144.4
144.4
144.4
144.4
144.4
144.4
144.4
144.4
144.4
144.4
144.4
144.4
144.4
144.4
144.4
144.4
144.4
144.4
144.4
144.4
144.4
144.4
144.4
144.4
144.4
144.4
144.4
144.4
144.4
144.4
144.4
144.4
144.4
144.4
144.4
144.4
144.4
144.4
144.4
144.4
144.4
144.4
144.4
144.4
144.4
144.4
144.4
144.4
144.4
144.4
144.4
144.4
144.4
144.4
144.4
144.4
144.4
144.4
144.4
144.4
144.4
144.4
144.4
144.4
144.4
144.4
144.4
144.4
144.4
144.4
144.4
144.4
144.4
144.4
144.4
144.4
144.4
144.4
144.4
144.4
144.4
144.4
144.4
144.4
144.4
144.4
144.4
144.4
144.4
144.4
144.4
144.4
144.4
144.4
144.4
144.4
144.4
144.4
144.4
144.4
144.4
144.4
144.4
144.4
144.4
144.4
144.4
144.4
144.4
144.4
144.4
144.4
144.4
144.4
144.4
144.4
144.4
144.4
144.4
144.4
144.4
144.4
144.4
144.4
144.4
144.4
144.4
144.4
144.4
144.4
144.4
144.4
144.4
144.4
144.4
144.4
144.4
144.4
144.4
144.4
144.4
144.4
144.4
144.4
144.4
144.4
144.4
144.4
144.4
144.4
144.4
144.4
144.4
144.4
144.4
144.4
144.4
144.4
144.4
144.4
144.4
144.4
144.4
144.4
144.4
144.4
144.4
144.4
144.4
144.4
144.4
144.4
144.4
144.4
144.4
144.4
144.4
144.4
144.4
144.4
144.4
144.4
144.4
144.4
144.4
144.4
144.4
144.4
144.4
144.4
144.4
144.4
144.4
144.4
144.4
144.4
144.4
144.4
144.4
144.4
144.4
144.4
144.4
144.4
144.4
144.4
144.4
144.4
144.4
144.4
144.4
144.4
144.4
144.4
144.4
144.4
144.4
144.4
144.4
144.4
144.4
144.4
144.4
144.4
144.4
144.4
144.4
144.4
144.4
144.4
144.4
144.4
144.4
144.4
144.4
144.4
144.4
144.4
144.4
144.4
144.4
144.4
144.4
144.4
144.4
144.4
144.4
144.4
144.4
144.4
144.4
144.4
144.4
144.4
144.4
144.4
144.4
144.4
144.4
144.4
144.4
144.4
144.4
144.401
144.401
144.401
144.401
144.402
144.4
144.4
144.4
144.4
144.4
144.4
144.4
144.4
144.4
144.4
144.4
144.4
144.4
144.4
144.4
144.4
144.4
144.4
144.4
144.4
144.4
144.4
144.4
144.4
144.4
144.4
144.4
144.4
144.4
144.4
144.4
144.401
144.401
144.401
144.401
144.402
144.403
144.403
144.404
144.406
144.4
144.4
144.4
144.4
144.4
144.4
144.4
144.4
144.4
144.4
144.4
144.4
144.4
144.4
144.4
144.4
144.4
144.4
144.4
144.4
144.4
144.4
144.4
144.4
144.4
144.4
144.401
144.401
144.401
144.401
144.402
144.402
144.403
144.404
144.405
144.407
144.409
144.411
144.415
144.42
144.4
144.4
144.4
144.4
144.4
144.4
144.4
144.4
144.4
144.4
144.4
144.4
144.4
144.4
144.4
144.4
144.4
144.4
144.4
144.4
144.4
144.401
144.401
144.401
144.401
144.402
144.402
144.403
144.403
144.404
144.406
144.407
144.41
144.413
144.417
144.422
144.429
144.438
144.45
144.467
144.4
144.4
144.4
144.4
144.4
144.4
144.4
144.4
144.4
144.4
144.4
144.4
144.4
144.4
144.4
144.4
144.4
144.401
144.401
144.401
144.401
144.402
144.402
144.403
144.404
144.405
144.407
144.409
144.411
144.414
144.419
144.425
144.432
144.442
144.455
144.472
144.494
144.523
144.562
144.615
144.4
144.4
144.4
144.4
144.4
144.4
144.4
144.4
144.4
144.4
144.4
144.4
144.401
144.401
144.401
144.401
144.402
144.402
144.403
144.403
144.404
144.406
144.407
144.41
144.413
144.416
144.421
144.428
144.436
144.447
144.461
144.48
144.504
144.535
144.576
144.63
144.7
144.792
144.914
145.079
144.4
144.4
144.4
144.4
144.4
144.4
144.4
144.401
144.401
144.401
144.401
144.401
144.402
144.402
144.403
144.404
144.405
144.407
144.409
144.411
144.414
144.419
144.424
144.431
144.44
144.452
144.468
144.488
144.515
144.549
144.594
144.652
144.728
144.826
144.954
145.12
145.337
145.62
145.992
146.492
144.4
144.4
144.4
144.4
144.401
144.401
144.401
144.401
144.402
144.402
144.403
144.404
144.405
144.406
144.408
144.41
144.413
144.416
144.421
144.427
144.435
144.445
144.459
144.476
144.498
144.527
144.565
144.613
144.676
144.758
144.864
145.002
145.18
145.411
145.711
146.099
146.6
147.25
148.092
149.188
150.634
144.401
144.401
144.401
144.402
144.402
144.403
144.403
144.404
144.405
144.407
144.409
144.411
144.414
144.419
144.424
144.431
144.44
144.451
144.466
144.485
144.509
144.541
144.582
144.635
144.703
144.791
144.906
145.054
145.245
145.492
145.811
146.223
146.755
147.44
148.321
149.452
150.902
152.754
155.116
158.128
161.978
144.402
144.402
144.403
144.404
144.405
144.406
144.408
144.41
144.413
144.417
144.421
144.427
144.435
144.445
144.458
144.474
144.495
144.522
144.556
144.601
144.659
144.733
144.828
144.952
145.111
145.315
145.579
145.919
146.356
146.919
147.642
148.569
149.756
151.272
153.2
155.642
158.719
162.573
167.364
173.274
180.504
189.259
144.405
144.406
144.408
144.41
144.412
144.415
144.42
144.425
144.432
144.44
144.451
144.465
144.484
144.507
144.537
144.575
144.624
144.687
144.767
144.871
145.004
145.175
145.394
145.676
146.038
146.502
147.097
147.86
148.834
150.078
151.661
153.668
156.202
159.385
163.356
168.269
174.29
181.588
190.321
200.625
212.606
226.322
241.686
144.414
144.418
144.423
144.429
144.437
144.447
144.459
144.475
144.495
144.521
144.554
144.597
144.651
144.719
144.807
144.92
145.064
145.248
145.484
145.786
146.172
146.665
147.296
148.1
149.125
150.428
152.08
154.168
156.795
160.083
164.169
169.208
175.36
182.79
191.647
202.053
214.082
227.755
242.987
259.618
277.421
296.055
315.096
144.434
144.443
144.455
144.469
144.487
144.51
144.539
144.576
144.623
144.683
144.759
144.856
144.979
145.136
145.335
145.59
145.914
146.328
146.854
147.523
148.374
149.453
150.821
152.547
154.721
157.445
160.84
165.043
170.206
176.486
184.04
193.014
203.522
215.632
229.353
244.605
261.218
278.945
297.43
316.188
334.584
351.928
367.574
381.379
144.481
144.502
144.528
144.561
144.603
144.656
144.723
144.807
144.914
145.05
145.222
145.44
145.716
146.067
146.512
147.076
147.79
148.693
149.835
151.274
153.083
155.351
158.181
161.692
166.019
171.312
177.722
185.401
194.486
205.086
217.264
231.015
246.274
262.862
280.542
298.986
317.734
336.187
353.649
369.474
383.212
394.675
403.959
411.199
416.965
144.589
144.637
144.697
144.772
144.867
144.987
145.137
145.327
145.567
145.87
146.252
146.734
147.342
148.108
149.073
150.286
151.809
153.713
156.089
159.037
162.679
167.145
172.58
179.132
186.945
196.147
206.84
219.08
232.86
248.104
264.646
282.253
300.622
319.322
337.8
355.39
371.444
385.479
397.27
406.834
414.361
420.134
424.441
427.626
429.855
431.497
144.749
144.835
144.942
145.077
145.247
145.459
145.725
146.059
146.479
147.006
147.667
148.496
149.534
150.832
152.452
154.468
156.969
160.056
163.848
168.474
174.073
180.787
188.751
198.085
208.882
221.19
234.997
250.221
266.707
284.221
302.478
321.091
339.542
357.203
373.435
387.732
399.83
409.708
417.529
423.557
428.09
431.422
433.811
435.482
436.576
437.275
437.624
437.72
145.385
145.625
145.923
146.297
146.762
147.344
148.069
148.973
150.099
151.499
153.236
155.385
158.035
161.287
165.257
170.071
175.862
182.765
190.908
200.4
211.32
223.71
237.554
252.762
269.185
286.592
304.714
323.201
341.57
359.236
375.578
390.079
402.439
412.601
420.696
426.972
431.72
435.229
437.766
439.555
440.762
441.539
441.979
442.155
442.073
441.849
441.467
440.944
146.176
146.597
147.12
147.768
148.572
149.568
150.801
152.325
154.204
156.513
159.342
162.791
166.973
172.01
178.031
185.16
193.516
203.196
214.267
226.762
240.659
255.864
272.222
289.514
307.481
325.804
344.04
361.643
378.019
392.649
405.207
415.601
423.934
430.433
435.378
439.053
441.727
443.627
444.934
445.789
446.306
446.565
446.559
446.415
446.123
445.709
445.139
444.436
443.587
442.561
149.209
150.319
151.683
153.358
155.409
157.913
160.958
164.643
169.08
174.385
180.678
188.077
196.688
206.594
217.851
230.48
244.449
259.664
275.962
293.133
310.928
329.053
347.107
364.579
380.906
395.577
408.252
418.809
427.327
434.008
439.12
442.94
445.734
447.733
449.123
450.046
450.625
450.94
451.014
450.918
450.696
450.366
449.897
449.304
448.569
447.698
446.676
445.528
444.275
442.905
156.923
159.663
162.969
166.94
171.681
177.305
183.923
191.642
200.554
210.731
222.211
235.005
249.071
264.309
280.553
297.598
315.206
333.102
350.923
368.194
384.383
398.999
411.695
422.333
430.963
437.771
443.007
446.941
449.831
451.91
453.367
454.344
454.97
455.329
455.458
455.397
455.226
454.958
454.563
454.052
453.416
452.652
451.764
450.758
449.632
448.396
447.083
445.667
444.156
442.513
174.905
180.907
187.908
196.002
205.267
215.76
227.503
240.492
254.678
269.953
286.145
303.057
320.458
338.093
355.632
372.63
388.591
403.048
415.659
426.276
434.934
441.798
447.103
451.107
454.063
456.198
457.701
458.716
459.374
459.761
459.926
459.891
459.755
459.526
459.182
458.731
458.169
457.493
456.708
455.811
454.813
453.707
452.504
451.217
449.858
448.406
446.855
445.184
443.396
441.44
211.003
221.856
233.898
247.111
261.434
276.753
292.891
309.654
326.823
344.161
361.365
378.016
393.656
407.843
420.254
430.74
439.326
446.163
451.47
455.493
458.474
460.633
462.159
463.193
463.866
464.267
464.451
464.433
464.314
464.103
463.795
463.387
462.88
462.267
461.557
460.747
459.846
458.851
457.767
456.591
455.338
454.024
452.625
451.125
449.522
447.802
445.961
443.98
441.878
439.594
269.51
284.869
300.939
317.527
334.431
351.43
368.238
384.466
399.685
413.488
425.577
435.813
444.219
450.935
456.168
460.148
463.106
465.254
466.774
467.804
468.474
468.873
469.06
469.046
468.93
468.723
468.433
468.056
467.584
467.015
466.355
465.615
464.792
463.882
462.888
461.821
460.678
459.46
458.175
456.812
455.358
453.806
452.153
450.379
448.486
446.458
444.31
442.011
439.591
436.986
343.4
360.005
376.349
392.067
406.761
420.06
431.7
441.561
449.673
456.17
461.244
465.114
467.996
470.091
471.573
472.575
473.223
473.603
473.777
473.751
473.628
473.414
473.13
472.765
472.312
471.771
471.146
470.457
469.688
468.842
467.92
466.933
465.884
464.768
463.576
462.309
460.977
459.562
458.056
456.453
454.746
452.915
450.97
448.896
446.702
444.366
441.913
439.307
436.585
433.688
414.931
427.602
438.663
448.024
455.727
461.902
466.732
470.421
473.172
475.17
476.578
477.526
478.131
478.475
478.619
478.572
478.429
478.197
477.906
477.538
477.093
476.565
475.962
475.303
474.572
473.773
472.905
471.979
470.998
469.963
468.863
467.688
466.438
465.129
463.747
462.277
460.718
459.06
457.294
455.411
453.416
451.295
449.057
446.684
444.197
441.564
438.828
435.947
432.973
429.814
462.389
468.145
472.647
476.086
478.649
480.506
481.804
482.673
483.213
483.504
483.599
483.524
483.348
483.088
482.78
482.395
481.946
481.42
480.827
480.18
479.477
478.709
477.879
476.995
476.067
475.091
474.061
472.968
471.803
470.571
469.279
467.92
466.479
464.955
463.34
461.626
459.803
457.868
455.824
453.657
451.375
448.968
446.446
443.792
441.035
438.146
435.159
432.029
428.818
425.434
484.428
486.101
487.256
488.019
488.475
488.697
488.725
488.614
488.395
488.098
487.761
487.353
486.889
486.355
485.76
485.113
484.423
483.674
482.869
482.013
481.119
480.19
479.212
478.177
477.086
475.931
474.712
473.43
472.087
470.67
469.173
467.594
465.925
464.15
462.272
460.288
458.194
455.983
453.661
451.219
448.663
445.992
443.213
440.313
437.309
434.182
430.971
427.63
424.212
420.651
493.915
494.051
494.004
493.843
493.575
493.234
492.859
492.42
491.933
491.38
490.774
490.12
489.43
488.69
487.897
487.059
486.186
485.286
484.346
483.356
482.313
481.222
480.074
478.861
477.584
476.254
474.855
473.381
471.83
470.195
468.464
466.634
464.704
462.67
460.527
458.275
455.915
453.438
450.855
448.163
445.364
442.451
439.429
436.308
433.087
429.758
426.351
422.848
419.283
415.603
498.882
498.494
498.074
497.6
497.082
496.504
495.877
495.209
494.511
493.77
492.981
492.149
491.287
490.405
489.488
488.53
487.524
486.476
485.382
484.233
483.021
481.747
480.425
479.039
477.581
476.054
474.446
472.752
470.963
469.079
467.098
465.014
462.826
460.534
458.136
455.628
453.021
450.308
447.488
444.561
441.531
438.405
435.178
431.857
428.458
424.973
421.427
417.813
414.159
410.422
502.336
501.726
501.074
500.386
499.674
498.922
498.128
497.295
496.438
495.563
494.66
493.72
492.739
491.722
490.666
489.564
488.408
487.193
485.922
484.603
483.225
481.78
480.269
478.684
477.02
475.265
473.421
471.484
469.453
467.321
465.092
462.761
460.326
457.792
455.162
452.423
449.585
446.646
443.609
440.473
437.247
433.933
430.54
427.069
423.54
419.95
416.323
412.654
408.97
405.236
504.918
504.15
503.343
502.504
501.645
500.77
499.872
498.941
497.975
496.979
495.949
494.879
493.764
492.598
491.379
490.108
488.788
487.414
485.977
484.478
482.912
481.27
479.545
477.733
475.837
473.849
471.768
469.592
467.323
464.952
462.488
459.93
457.271
454.512
451.658
448.707
445.658
442.518
439.295
435.984
432.599
429.143
425.63
422.06
418.454
414.812
411.159
407.491
403.837
400.163
506.91
506.031
505.13
504.201
503.242
502.257
501.245
500.198
499.11
497.979
496.803
495.578
494.301
492.979
491.606
490.174
488.683
487.13
485.507
483.804
482.022
480.158
478.209
476.171
474.044
471.828
469.516
467.114
464.623
462.036
459.351
456.575
453.705
450.741
447.682
444.543
441.319
438.012
434.638
431.195
427.697
424.148
420.563
416.945
413.316
409.675
406.05
402.438
398.867
395.306
509.503
508.545
507.564
506.561
505.529
504.459
503.352
502.207
501.02
499.784
498.5
497.173
495.799
494.369
492.883
491.339
489.729
488.045
486.286
484.45
482.534
480.534
478.449
476.281
474.021
471.676
469.246
466.724
464.108
461.404
458.61
455.723
452.748
449.684
446.541
443.317
440.019
436.654
433.225
429.744
426.214
422.65
419.056
415.45
411.834
408.233
404.645
401.1
397.593
394.154
390.751
510.875
509.818
508.726
507.602
506.443
505.24
503.992
502.698
501.367
499.989
498.558
497.075
495.537
493.937
492.268
490.527
488.714
486.825
484.858
482.812
480.684
478.472
476.178
473.803
471.339
468.787
466.15
463.427
460.612
457.711
454.728
451.658
448.514
445.293
442.003
438.648
435.232
431.769
428.258
424.716
421.146
417.563
413.972
410.394
406.829
403.304
399.817
396.396
393.037
389.77
386.564
512.994
511.852
510.675
509.455
508.194
506.891
505.554
504.17
502.736
501.254
499.72
498.127
496.468
494.743
492.949
491.083
489.144
487.13
485.039
482.868
480.622
478.296
475.886
473.392
470.817
468.158
465.411
462.581
459.67
456.678
453.605
450.46
447.245
443.962
440.617
437.218
433.771
430.281
426.761
423.213
419.655
416.09
412.534
408.994
405.489
402.019
398.614
395.267
392.01
388.834
385.772
382.789
513.657
512.383
511.073
509.727
508.336
506.897
505.415
503.882
502.295
500.643
498.929
497.151
495.305
493.39
491.405
489.345
487.213
485.008
482.727
480.364
477.924
475.406
472.806
470.123
467.359
464.517
461.594
458.595
455.522
452.378
449.168
445.894
442.563
439.179
435.75
432.281
428.783
425.26
421.726
418.185
414.654
411.138
407.653
404.204
400.814
397.479
394.229
391.057
387.994
385.028
382.194
379.452
513.875
512.477
511.034
509.55
508.018
506.432
504.785
503.08
501.316
499.487
497.593
495.631
493.6
491.503
489.335
487.093
484.775
482.384
479.917
477.372
474.748
472.046
469.268
466.413
463.482
460.48
457.406
454.266
451.063
447.799
444.482
441.114
437.704
434.258
430.781
427.284
423.775
420.26
416.754
413.262
409.799
406.372
402.996
399.676
396.434
393.266
390.201
387.23
384.382
381.645
379.051
376.562
513.65
512.116
510.53
508.887
507.19
505.437
503.622
501.745
499.805
497.802
495.735
493.599
491.393
489.117
486.77
484.351
481.856
479.285
476.642
473.924
471.132
468.267
465.331
462.326
459.255
456.119
452.924
449.673
446.371
443.021
439.632
436.207
432.755
429.283
425.799
422.312
418.832
415.364
411.925
408.519
405.16
401.857
398.623
395.463
392.397
389.422
386.561
383.81
381.191
378.694
376.345
374.11
512.94
511.25
509.506
507.703
505.842
503.923
501.944
499.902
497.796
495.623
493.385
491.079
488.703
486.254
483.735
481.146
478.484
475.751
472.948
470.076
467.137
464.132
461.064
457.935
454.751
451.514
448.227
444.897
441.529
438.127
434.701
431.255
427.798
424.339
420.885
417.445
414.03
410.645
407.307
404.021
400.798
397.648
394.582
391.605
388.736
385.97
383.328
380.807
378.421
376.167
374.063
372.07
511.721
509.875
507.975
506.017
503.999
501.92
499.779
497.575
495.306
492.969
490.565
488.094
485.554
482.945
480.268
477.524
474.713
471.836
468.896
465.893
462.831
459.711
456.539
453.316
450.048
446.738
443.392
440.016
436.616
433.198
429.77
426.339
422.912
419.501
416.11
412.751
409.434
406.165
402.957
399.818
396.755
393.781
390.904
388.127
385.467
382.921
380.502
378.214
376.064
374.041
372.17
370.408
510.013
508.017
505.964
503.853
501.68
499.445
497.146
494.783
492.356
489.863
487.304
484.68
481.991
479.238
476.421
473.543
470.603
467.605
464.551
461.442
458.284
455.078
451.829
448.541
445.22
441.87
438.497
435.108
431.71
428.308
424.912
421.528
418.165
414.833
411.538
408.29
405.099
401.97
398.917
395.946
393.063
390.28
387.604
385.037
382.592
380.269
378.075
376.011
374.087
372.289
370.631
369.089
505.691
503.488
501.225
498.901
496.515
494.066
491.555
488.982
486.346
483.648
480.889
478.07
475.191
472.256
469.264
466.22
463.124
459.981
456.794
453.567
450.303
447.007
443.685
440.341
436.982
433.615
430.244
426.879
423.526
420.193
416.887
413.617
410.392
407.218
404.105
401.063
398.095
395.215
392.427
389.736
387.155
384.686
382.331
380.101
377.997
376.022
374.175
372.459
370.871
369.417
368.077
502.91
500.564
498.158
495.692
493.167
490.582
487.937
485.233
482.471
479.652
476.777
473.848
470.866
467.833
464.753
461.628
458.461
455.257
452.018
448.75
445.457
442.144
438.817
435.481
432.144
428.811
425.49
422.188
418.911
415.668
412.466
409.314
406.219
403.188
400.231
397.354
394.562
391.866
389.271
386.779
384.4
382.139
379.996
377.976
376.082
374.311
372.665
371.147
369.754
368.487
367.329
499.708
497.229
494.692
492.099
489.449
486.742
483.98
481.164
478.295
475.374
472.404
469.387
466.324
463.219
460.075
456.895
453.684
450.445
447.182
443.901
440.608
437.306
434.003
430.704
427.417
424.146
420.901
417.687
414.512
411.383
408.308
405.294
402.347
399.475
396.687
393.987
391.379
388.873
386.474
384.183
382.007
379.948
378.008
376.188
374.486
372.908
371.45
370.116
368.899
367.798
366.798
493.527
490.875
488.169
485.411
482.601
479.74
476.831
473.876
470.875
467.832
464.749
461.63
458.477
455.295
452.087
448.857
445.61
442.351
439.085
435.817
432.554
429.302
426.066
422.853
419.67
416.524
413.421
410.368
407.372
404.44
401.58
398.796
396.094
393.481
390.965
388.546
386.232
384.027
381.932
379.951
378.086
376.334
374.699
373.181
371.78
370.495
369.324
368.262
367.307
366.442
489.509
486.757
483.956
481.108
478.213
475.275
472.294
469.273
466.215
463.122
459.999
456.847
453.671
450.476
447.264
444.042
440.813
437.583
434.358
431.142
427.942
424.764
421.614
418.498
415.424
412.396
409.421
406.508
403.659
400.883
398.185
395.572
393.046
390.615
388.282
386.051
383.926
381.909
380.001
378.205
376.518
374.943
373.481
372.131
370.891
369.759
368.731
367.803
366.972
366.222
485.225
482.392
479.515
476.596
473.637
470.641
467.61
464.547
461.454
458.336
455.195
452.035
448.861
445.677
442.487
439.296
436.109
432.932
429.77
426.629
423.514
420.431
417.386
414.387
411.437
408.542
405.71
402.947
400.256
397.644
395.115
392.675
390.327
388.076
385.925
383.876
381.931
380.093
378.36
376.733
375.214
373.803
372.498
371.299
370.201
369.201
368.297
367.483
366.755
366.1
480.731
477.835
474.901
471.933
468.931
465.899
462.84
459.756
456.652
453.53
450.395
447.251
444.101
440.951
437.805
434.669
431.546
428.444
425.365
422.317
419.307
416.336
413.412
410.542
407.73
404.981
402.301
399.694
397.166
394.722
392.364
390.097
387.924
385.848
383.872
381.996
380.222
378.548
376.977
375.508
374.143
372.879
371.714
370.646
369.67
368.785
367.985
367.266
366.624
366.046
476.081
473.141
470.172
467.173
464.15
461.103
458.038
454.956
451.862
448.759
445.652
442.545
439.441
436.347
433.266
430.203
427.164
424.154
421.177
418.239
415.345
412.501
409.711
406.981
404.315
401.718
399.195
396.749
394.386
392.108
389.918
387.82
385.817
383.908
382.097
380.382
378.763
377.243
375.821
374.498
373.27
372.135
371.092
370.137
369.266
368.476
367.763
367.122
366.548
366.029
471.328
468.366
465.38
462.373
459.348
456.308
453.257
450.197
447.134
444.071
441.012
437.962
434.924
431.904
428.906
425.934
422.995
420.092
417.23
414.414
411.65
408.941
406.293
403.709
401.195
398.753
396.388
394.103
391.902
389.787
387.761
385.825
383.981
382.229
380.569
379.002
377.529
376.149
374.863
373.667
372.559
371.537
370.598
369.738
368.955
368.244
367.601
367.022
366.501
366.027
466.526
463.56
460.578
457.581
454.575
451.561
448.544
445.527
442.514
439.509
436.517
433.541
430.585
427.655
424.755
421.889
419.061
416.277
413.541
410.857
408.23
405.663
403.161
400.727
398.365
396.078
393.87
391.742
389.698
387.739
385.868
384.084
382.388
380.779
379.26
377.829
376.488
375.235
374.066
372.982
371.978
371.052
370.201
369.421
368.71
368.062
367.475
366.943
366.462
366.021
458.772
455.812
452.845
449.876
446.906
443.941
440.984
438.038
435.107
432.197
429.31
426.451
423.625
420.834
418.085
415.38
412.724
410.12
407.573
405.087
402.665
400.31
398.025
395.814
393.679
391.622
389.646
387.752
385.94
384.213
382.569
381.008
379.532
378.141
376.834
375.61
374.466
373.401
372.412
371.496
370.651
369.873
369.159
368.505
367.908
367.363
366.866
366.413
365.994
454.047
451.126
448.206
445.29
442.382
439.484
436.601
433.737
430.896
428.08
425.295
422.544
419.831
417.16
414.534
411.958
409.435
406.968
404.561
402.217
399.939
397.729
395.591
393.527
391.538
389.626
387.792
386.038
384.363
382.767
381.251
379.815
378.46
377.184
375.986
374.864
373.815
372.838
371.93
371.088
370.309
369.591
368.929
368.32
367.76
367.246
366.775
366.34
365.934
449.422
446.557
443.698
440.851
438.017
435.201
432.407
429.637
426.895
424.185
421.511
418.876
416.284
413.738
411.241
408.797
406.409
404.08
401.812
399.609
397.472
395.404
393.407
391.483
389.632
387.856
386.156
384.53
382.979
381.504
380.105
378.783
377.534
376.359
375.255
374.221
373.253
372.351
371.51
370.729
370.004
369.333
368.711
368.136
367.604
367.111
366.655
366.23
365.829
442.134
439.351
436.585
433.839
431.116
428.419
425.753
423.12
420.524
417.967
415.454
412.987
410.569
408.203
405.892
403.639
401.446
399.315
397.249
395.248
393.316
391.453
389.66
387.938
386.288
384.708
383.2
381.763
380.398
379.105
377.882
376.727
375.639
374.616
373.656
372.757
371.917
371.132
370.399
369.717
369.082
368.49
367.939
367.425
366.946
366.497
366.075
365.672
437.884
435.188
432.513
429.864
427.243
424.653
422.097
419.579
417.101
414.666
412.277
409.937
407.648
405.413
403.234
401.113
399.052
397.053
395.118
393.247
391.443
389.705
388.034
386.431
384.894
383.425
382.024
380.691
379.424
378.223
377.086
376.012
374.999
374.045
373.148
372.306
371.515
370.775
370.081
369.431
368.822
368.251
367.716
367.213
366.74
366.292
365.867
365.458
431.225
428.65
426.105
423.592
421.114
418.673
416.273
413.916
411.605
409.341
407.127
404.966
402.859
400.808
398.814
396.88
395.007
393.196
391.447
389.761
388.139
386.58
385.084
383.652
382.283
380.978
379.736
378.555
377.435
376.373
375.368
374.418
373.521
372.676
371.879
371.129
370.423
369.759
369.133
368.542
367.985
367.459
366.96
366.487
366.036
365.603
365.183
427.473
425.004
422.568
420.167
417.804
415.481
413.2
410.964
408.775
406.635
404.546
402.508
400.525
398.597
396.725
394.912
393.156
391.46
389.824
388.248
386.731
385.273
383.875
382.537
381.258
380.038
378.876
377.769
376.717
375.719
374.772
373.875
373.026
372.223
371.463
370.744
370.065
369.421
368.811
368.233
367.683
367.16
366.66
366.183
365.724
365.28
364.847
421.577
419.253
416.966
414.719
412.514
410.352
408.236
406.167
404.147
402.177
400.259
398.394
396.582
394.826
393.124
391.479
389.889
388.356
386.878
385.456
384.091
382.781
381.527
380.327
379.181
378.087
377.045
376.052
375.107
374.209
373.355
372.545
371.775
371.043
370.348
369.687
369.058
368.459
367.886
367.339
366.814
366.31
365.824
365.354
364.898
364.449
418.368
416.157
413.984
411.852
409.763
407.718
405.718
403.765
401.861
400.006
398.201
396.446
394.744
393.094
391.497
389.952
388.46
387.019
385.631
384.296
383.012
381.781
380.6
379.469
378.387
377.352
376.364
375.42
374.52
373.662
372.844
372.063
371.319
370.609
369.931
369.283
368.663
368.068
367.497
366.948
366.418
365.906
365.409
364.927
364.456
363.993
415.372
413.271
411.211
409.192
407.216
405.283
403.395
401.554
399.759
398.012
396.312
394.662
393.061
391.509
390.007
388.554
387.149
385.793
384.486
383.227
382.017
380.854
379.737
378.665
377.638
376.653
375.711
374.808
373.945
373.118
372.328
371.571
370.846
370.151
369.485
368.845
368.229
367.635
367.062
366.507
365.97
365.448
364.939
364.444
363.96
363.481
412.577
410.586
408.635
406.725
404.857
403.032
401.251
399.514
397.822
396.176
394.575
393.021
391.513
390.051
388.634
387.263
385.938
384.657
383.423
382.232
381.085
379.982
378.92
377.899
376.918
375.975
375.071
374.202
373.368
372.568
371.799
371.059
370.349
369.664
369.005
368.368
367.753
367.157
366.578
366.017
365.47
364.937
364.417
363.908
363.409
362.914
409.973
408.088
406.242
404.436
402.671
400.948
399.266
397.628
396.032
394.479
392.969
391.503
390.079
388.698
387.359
386.062
384.808
383.595
382.423
381.292
380.201
379.148
378.133
377.156
376.214
375.307
374.433
373.592
372.781
372.001
371.248
370.522
369.82
369.142
368.486
367.849
367.232
366.631
366.046
365.476
364.92
364.376
363.844
363.321
362.806
362.296
407.546
405.761
404.015
402.308
400.64
399.012
397.424
395.876
394.368
392.901
391.475
390.088
388.74
387.432
386.163
384.933
383.741
382.588
381.472
380.392
379.348
378.339
377.365
376.423
375.514
374.636
373.788
372.968
372.176
371.411
370.67
369.952
369.256
368.581
367.925
367.287
366.665
366.059
365.467
364.889
364.322
363.766
363.22
362.683
362.154
361.629
405.28
403.591
401.938
400.323
398.746
397.206
395.704
394.24
392.814
391.425
390.073
388.758
387.479
386.236
385.03
383.859
382.723
381.621
380.553
379.518
378.515
377.543
376.603
375.692
374.809
373.955
373.127
372.325
371.547
370.792
370.059
369.347
368.655
367.98
367.323
366.681
366.055
365.442
364.842
364.254
363.676
363.108
362.549
361.999
361.456
360.918
401.56
399.995
398.466
396.972
395.514
394.091
392.703
391.351
390.033
388.748
387.497
386.28
385.096
383.945
382.825
381.738
380.681
379.654
378.658
377.69
376.75
375.837
374.952
374.091
373.256
372.444
371.655
370.888
370.141
369.414
368.705
368.013
367.338
366.679
366.033
365.401
364.781
364.172
363.573
362.984
362.405
361.834
361.272
360.717
360.168
399.651
398.168
396.718
395.301
393.918
392.567
391.249
389.962
388.708
387.484
386.291
385.128
383.996
382.893
381.819
380.774
379.756
378.766
377.802
376.863
375.95
375.062
374.197
373.354
372.534
371.735
370.956
370.196
369.455
368.731
368.025
367.333
366.656
365.993
365.342
364.703
364.075
363.457
362.849
362.25
361.66
361.079
360.507
359.942
359.383
397.85
396.441
395.064
393.718
392.402
391.116
389.861
388.634
387.436
386.266
385.125
384.011
382.925
381.864
380.83
379.821
378.837
377.877
376.941
376.028
375.138
374.269
373.421
372.593
371.785
370.996
370.225
369.471
368.734
368.013
367.306
366.614
365.934
365.266
364.61
363.964
363.328
362.702
362.085
361.477
360.878
360.288
359.706
359.133
358.565
394.8
393.489
392.206
390.951
389.725
388.525
387.352
386.205
385.084
383.988
382.917
381.87
380.847
379.848
378.871
377.916
376.982
376.07
375.178
374.306
373.454
372.62
371.805
371.007
370.226
369.461
368.712
367.978
367.257
366.55
365.855
365.171
364.499
363.837
363.185
362.542
361.909
361.284
360.668
360.062
359.464
358.875
358.294
357.721
393.229
391.978
390.753
389.553
388.379
387.23
386.105
385.003
383.925
382.869
381.836
380.824
379.834
378.864
377.915
376.985
376.074
375.182
374.308
373.453
372.614
371.793
370.987
370.198
369.423
368.664
367.917
367.184
366.464
365.755
365.058
364.371
363.694
363.027
362.369
361.721
361.081
360.45
359.828
359.215
358.611
358.017
357.43
356.852
391.716
390.519
389.345
388.196
387.069
385.964
384.882
383.82
382.78
381.76
380.76
379.779
378.817
377.873
376.947
376.039
375.148
374.274
373.416
372.574
371.748
370.937
370.14
369.357
368.588
367.831
367.087
366.355
365.634
364.924
364.224
363.534
362.854
362.182
361.52
360.866
360.222
359.586
358.959
358.341
357.733
357.134
356.545
355.964
390.249
389.1
387.973
386.868
385.783
384.718
383.674
382.648
381.641
380.652
379.681
378.727
377.79
376.869
375.965
375.076
374.202
373.343
372.499
371.669
370.853
370.05
369.261
368.483
367.718
366.965
366.222
365.491
364.77
364.058
363.357
362.664
361.981
361.306
360.64
359.983
359.335