/*--------------------------------*- C++ -*----------------------------------*\
| =========                 |                                                 |
| \\      /  F ield         | OpenFOAM: The Open Source CFD Toolbox           |
|  \\    /   O peration     | Version:  v1706                                 |
|   \\  /    A nd           | Web:      www.OpenFOAM.com                      |
|    \\/     M anipulation  |                                                 |
\*---------------------------------------------------------------------------*/
FoamFile
{
    version     2.0;
    format      ascii;
    class       volScalarField;
    location    "1.8e-05";
    object      wallHeatFlux;
}
// * * * * * * * * * * * * * * * * * * * * * * * * * * * * * * * * * * * * * //

dimensions      [1 0 -3 0 0 0 0];


internalField   uniform 0;

boundaryField
{
    cone
    {
        type            calculated;
        value           nonuniform List<scalar> 
153
(
746.792
669.701
596.411
527.165
462.2
401.751
346.05
295.32
249.78
209.641
175.102
146.357
123.585
106.951
96.5886
92.3982
94.7584
103.784
119.477
141.858
170.929
206.681
249.053
297.953
353.241
414.733
482.186
555.3
633.709
716.981
804.609
896.013
990.533
1087.43
1185.89
1285.02
1383.86
1481.39
1576.51
1668.09
1755
1836.05
1910.19
1976.07
2032.54
2078.49
2112.92
2133.58
2142.66
2139.9
2121.46
2087.23
2037.25
1971.49
1890.2
1793.91
1683.39
1559.61
1423.7
1276.89
1120.49
956.115
785.34
609.61
430.316
248.899
66.7323
-114.881
-294.736
-471.719
-644.82
-813.137
-975.867
-1132.31
-1281.86
-1424.02
-1558.37
-1684.61
-1802.51
-1911.96
-2012.72
-2104.76
-2188.52
-2263.8
-2330.2
-2388.04
-2437.45
-2478.47
-2511.11
-2535.3
-2551.46
-2559.5
-2558.81
-2549.56
-2531.86
-2505.74
-2471.16
-2427.98
-2376.13
-2315.56
-2246.23
-2168.12
-2081.22
-1985.56
-1881.2
-1768.24
-1646.84
-1517.18
-1379.56
-1234.37
-1082.04
-923.081
-757.975
-587.299
-411.611
-231.415
-47.174
140.66
331.547
524.938
720.08
916.003
1111.45
1304.85
1494.26
1677.34
1851.39
2012.78
2159.46
2288.39
2394.65
2476.23
2531.71
2561.37
2565.35
2543.94
2497.77
2430.52
2347.07
2251.72
2148.48
2040.91
1931.98
1823.94
1718.45
1616.56
1518.89
1425.68
1336.96
1252.6
1172.38
1096.02
1023.27
)
;
    }
    inlet
    {
        type            calculated;
        value           uniform 0;
    }
    rWedge
    {
        type            wedge;
    }
    lWedge
    {
        type            wedge;
    }
    outlet
    {
        type            calculated;
        value           nonuniform 0();
    }
    procBoundary2to0
    {
        type            processor;
        value           uniform 0;
    }
    procBoundary2to1
    {
        type            processor;
        value           uniform 0;
    }
    procBoundary2to3
    {
        type            processor;
        value           uniform 0;
    }
}


// ************************************************************************* //
