/*--------------------------------*- C++ -*----------------------------------*\
| =========                 |                                                 |
| \\      /  F ield         | OpenFOAM: The Open Source CFD Toolbox           |
|  \\    /   O peration     | Version:  v1706                                 |
|   \\  /    A nd           | Web:      www.OpenFOAM.com                      |
|    \\/     M anipulation  |                                                 |
\*---------------------------------------------------------------------------*/
FoamFile
{
    version     2.0;
    format      ascii;
    class       volScalarField;
    location    "1.4e-05";
    object      kappatr;
}
// * * * * * * * * * * * * * * * * * * * * * * * * * * * * * * * * * * * * * //

dimensions      [1 1 -3 -1 0 0 0];


internalField   nonuniform List<scalar> 
29871
(
0.0145971
0.0145971
0.0145971
0.0145971
0.014597
0.014597
0.0145969
0.0145968
0.0145968
0.0145967
0.0145966
0.0145965
0.0145964
0.0145963
0.0145962
0.0145961
0.014596
0.0145959
0.0145958
0.0145957
0.0145956
0.0145955
0.0145954
0.0145953
0.0145952
0.0145952
0.0145951
0.014595
0.0145949
0.0145948
0.0145947
0.0145947
0.0145946
0.0145945
0.0145945
0.0145944
0.0145944
0.0145943
0.0145943
0.0145943
0.0145942
0.0145942
0.0145942
0.0145942
0.0145942
0.0145941
0.0145941
0.0145941
0.0145941
0.0145941
0.0145941
0.0145941
0.0145941
0.0145941
0.0145941
0.0145942
0.0145942
0.0145942
0.0145942
0.0145942
0.0145942
0.0145942
0.0145942
0.0145942
0.0145943
0.0145943
0.0145943
0.0145943
0.0145943
0.0145943
0.0145943
0.0145944
0.0145944
0.0145944
0.0145944
0.0145944
0.0145944
0.0145945
0.0145945
0.0145945
0.0145945
0.0145945
0.0145946
0.0145946
0.0145946
0.0145946
0.0145946
0.0145947
0.0145947
0.0145947
0.0145947
0.0145947
0.0145948
0.0145948
0.0145948
0.0145948
0.0145948
0.0145948
0.0145949
0.0145949
0.0145949
0.0145949
0.0145949
0.014595
0.014595
0.014617
0.0146169
0.0146168
0.0146166
0.0146164
0.0146161
0.0146158
0.0146154
0.014615
0.0146146
0.0146141
0.0146136
0.0146131
0.0146126
0.014612
0.0146115
0.0146109
0.0146103
0.0146097
0.0146092
0.0146086
0.014608
0.0146074
0.0146069
0.0146063
0.0146058
0.0146053
0.0146048
0.0146043
0.0146038
0.0146034
0.014603
0.0146026
0.0146022
0.0146019
0.0146016
0.0146013
0.0146011
0.0146008
0.0146006
0.0146005
0.0146003
0.0146002
0.0146001
0.0146
0.0145999
0.0145998
0.0145998
0.0145998
0.0145998
0.0145998
0.0145998
0.0145999
0.0145999
0.0145999
0.0146
0.0146001
0.0146001
0.0146002
0.0146003
0.0146004
0.0146005
0.0146005
0.0146006
0.0146007
0.0146008
0.0146009
0.014601
0.0146011
0.0146012
0.0146013
0.0146014
0.0146015
0.0146016
0.0146018
0.0146019
0.014602
0.0146021
0.0146022
0.0146024
0.0146025
0.0146026
0.0146028
0.0146029
0.014603
0.0146032
0.0146033
0.0146034
0.0146036
0.0146037
0.0146039
0.014604
0.0146042
0.0146043
0.0146044
0.0146046
0.0146047
0.0146049
0.014605
0.0146051
0.0146053
0.0146054
0.0146056
0.0146057
0.0146058
0.0146659
0.0146658
0.0146656
0.0146652
0.0146646
0.014664
0.0146631
0.0146622
0.0146612
0.01466
0.0146587
0.0146574
0.0146559
0.0146544
0.0146528
0.0146512
0.0146495
0.0146478
0.0146461
0.0146443
0.0146426
0.0146408
0.0146391
0.0146374
0.0146357
0.014634
0.0146324
0.0146309
0.0146294
0.0146279
0.0146265
0.0146252
0.014624
0.0146228
0.0146218
0.0146207
0.0146198
0.014619
0.0146182
0.0146175
0.0146169
0.0146164
0.0146159
0.0146156
0.0146152
0.014615
0.0146148
0.0146147
0.0146146
0.0146146
0.0146146
0.0146147
0.0146147
0.0146149
0.014615
0.0146152
0.0146154
0.0146157
0.0146159
0.0146162
0.0146165
0.0146168
0.0146171
0.0146174
0.0146177
0.014618
0.0146183
0.0146187
0.014619
0.0146194
0.0146197
0.0146201
0.0146205
0.0146209
0.0146213
0.0146217
0.0146221
0.0146225
0.0146229
0.0146234
0.0146238
0.0146243
0.0146247
0.0146252
0.0146257
0.0146262
0.0146267
0.0146272
0.0146277
0.0146282
0.0146287
0.0146293
0.0146298
0.0146303
0.0146308
0.0146314
0.0146319
0.0146324
0.014633
0.0146335
0.014634
0.0146345
0.0146351
0.0146356
0.0146361
0.0146367
0.0147806
0.0147803
0.0147797
0.0147786
0.0147772
0.0147755
0.0147734
0.014771
0.0147683
0.0147654
0.0147622
0.0147587
0.0147551
0.0147512
0.0147472
0.0147431
0.0147388
0.0147345
0.0147301
0.0147256
0.0147212
0.0147168
0.0147124
0.014708
0.0147038
0.0146996
0.0146956
0.0146916
0.0146878
0.0146842
0.0146807
0.0146774
0.0146743
0.0146714
0.0146687
0.0146662
0.0146638
0.0146617
0.0146598
0.0146581
0.0146567
0.0146554
0.0146543
0.0146534
0.0146527
0.0146521
0.0146517
0.0146515
0.0146514
0.0146515
0.0146516
0.0146518
0.0146522
0.0146526
0.0146532
0.0146538
0.0146544
0.0146551
0.0146559
0.0146567
0.0146576
0.0146584
0.0146593
0.0146603
0.0146612
0.0146622
0.0146632
0.0146642
0.0146652
0.0146663
0.0146674
0.0146685
0.0146696
0.0146708
0.0146719
0.0146731
0.0146744
0.0146756
0.0146769
0.0146783
0.0146796
0.014681
0.0146825
0.0146839
0.0146854
0.0146869
0.0146884
0.01469
0.0146916
0.0146932
0.0146948
0.0146965
0.0146981
0.0146998
0.0147015
0.0147031
0.0147048
0.0147065
0.0147083
0.01471
0.0147117
0.0147134
0.0147151
0.0147169
0.0147186
0.0147203
0.015036
0.0150358
0.0150349
0.0150331
0.0150305
0.0150271
0.0150229
0.015018
0.0150124
0.0150061
0.0149992
0.0149917
0.0149837
0.0149752
0.0149663
0.014957
0.0149475
0.0149377
0.0149276
0.0149175
0.0149073
0.014897
0.0148868
0.0148767
0.0148666
0.0148568
0.0148472
0.0148378
0.0148287
0.01482
0.0148116
0.0148036
0.0147961
0.014789
0.0147823
0.0147762
0.0147705
0.0147653
0.0147606
0.0147564
0.0147527
0.0147494
0.0147467
0.0147444
0.0147425
0.0147411
0.0147401
0.0147395
0.0147394
0.0147395
0.0147398
0.0147404
0.0147414
0.0147425
0.0147439
0.0147455
0.0147473
0.0147492
0.0147513
0.0147534
0.0147557
0.0147581
0.0147605
0.014763
0.0147656
0.0147682
0.0147709
0.0147737
0.0147764
0.0147793
0.0147822
0.0147851
0.0147882
0.0147912
0.0147944
0.0147976
0.0148009
0.0148043
0.0148078
0.0148114
0.014815
0.0148188
0.0148226
0.0148266
0.0148306
0.0148347
0.0148389
0.0148432
0.0148476
0.014852
0.0148566
0.0148612
0.0148658
0.0148705
0.0148753
0.0148801
0.014885
0.0148899
0.0148948
0.0148997
0.0149047
0.0149097
0.0149148
0.0149198
0.0149249
0.01493
0.0149352
0.0155585
0.0155575
0.0155548
0.0155505
0.0155444
0.0155366
0.0155274
0.0155166
0.0155045
0.015491
0.0154763
0.0154604
0.0154435
0.0154256
0.0154069
0.0153874
0.0153674
0.0153469
0.015326
0.0153048
0.0152835
0.0152621
0.0152408
0.0152197
0.0151988
0.0151783
0.0151582
0.0151386
0.0151197
0.0151014
0.0150839
0.0150672
0.0150515
0.0150366
0.0150227
0.0150099
0.0149981
0.0149874
0.0149778
0.0149693
0.0149619
0.0149556
0.0149504
0.0149462
0.014943
0.0149408
0.0149395
0.0149392
0.0149396
0.0149405
0.0149421
0.0149445
0.0149474
0.0149509
0.0149548
0.0149592
0.0149639
0.014969
0.0149744
0.01498
0.0149859
0.0149919
0.0149981
0.0150045
0.015011
0.0150176
0.0150244
0.0150313
0.0150383
0.0150455
0.0150528
0.0150603
0.015068
0.0150758
0.0150837
0.0150919
0.0151003
0.0151089
0.0151177
0.0151267
0.015136
0.0151455
0.0151552
0.0151652
0.0151754
0.0151859
0.0151966
0.0152075
0.0152186
0.01523
0.0152415
0.0152533
0.0152652
0.0152773
0.0152896
0.015302
0.0153145
0.0153272
0.0153399
0.0153528
0.0153658
0.0153789
0.0153921
0.0154054
0.0154188
0.0154322
0.0154458
0.016501
0.0165056
0.0165068
0.0165054
0.0165012
0.0164941
0.0164841
0.0164712
0.0164557
0.0164376
0.016417
0.0163941
0.016369
0.0163417
0.0163125
0.0162815
0.0162488
0.0162146
0.0161791
0.0161425
0.0161049
0.0160665
0.0160276
0.0159884
0.0159489
0.0159095
0.0158702
0.0158314
0.0157932
0.0157557
0.0157192
0.0156839
0.0156499
0.0156173
0.0155864
0.0155571
0.0155297
0.0155042
0.0154807
0.0154592
0.0154398
0.0154226
0.0154076
0.0153948
0.0153841
0.0153755
0.0153691
0.0153648
0.0153624
0.0153622
0.0153632
0.0153656
0.0153697
0.0153753
0.0153821
0.01539
0.0153991
0.0154091
0.0154199
0.0154314
0.0154436
0.0154564
0.0154697
0.0154834
0.0154974
0.0155119
0.0155266
0.0155415
0.0155567
0.0155722
0.0155879
0.0156039
0.0156201
0.0156366
0.0156534
0.0156705
0.015688
0.0157058
0.0157241
0.0157427
0.0157618
0.0157813
0.0158013
0.0158217
0.0158426
0.015864
0.0158858
0.0159081
0.0159309
0.0159542
0.0159779
0.016002
0.0160266
0.0160516
0.0160771
0.0161028
0.016129
0.0161554
0.0161822
0.0162092
0.0162365
0.016264
0.0162917
0.0163197
0.0163478
0.016376
0.0164044
0.016433
0.0164618
0.0164907
0.0178788
0.0178783
0.0178743
0.0178664
0.0178549
0.0178403
0.0178215
0.0177991
0.0177733
0.0177444
0.0177124
0.0176775
0.0176396
0.0175991
0.0175559
0.0175104
0.0174627
0.017413
0.0173616
0.0173086
0.0172543
0.0171988
0.0171424
0.0170852
0.0170275
0.0169696
0.0169118
0.0168542
0.0167972
0.0167409
0.0166857
0.016632
0.0165799
0.0165297
0.0164819
0.0164365
0.016394
0.0163546
0.0163185
0.0162859
0.0162569
0.0162317
0.0162103
0.0161928
0.016179
0.016169
0.0161626
0.0161603
0.0161613
0.0161645
0.0161708
0.0161799
0.0161917
0.0162058
0.0162219
0.01624
0.0162597
0.0162808
0.0163033
0.0163268
0.0163512
0.0163764
0.0164022
0.0164286
0.0164554
0.0164827
0.0165102
0.0165381
0.0165664
0.0165949
0.0166238
0.016653
0.0166827
0.0167127
0.0167432
0.0167742
0.0168057
0.0168378
0.0168705
0.0169038
0.0169378
0.0169725
0.0170078
0.0170437
0.0170803
0.0171176
0.0171555
0.017194
0.017233
0.0172727
0.0173129
0.0173536
0.0173948
0.0174364
0.0174783
0.0175206
0.0175631
0.0176058
0.0176487
0.0176917
0.0177348
0.0177779
0.017821
0.0178641
0.0179072
0.0179503
0.0179933
0.0180363
0.0180793
0.0181223
0.0193399
0.0193269
0.0193107
0.0192919
0.0192709
0.0192453
0.0192167
0.0191853
0.0191515
0.0191154
0.0190768
0.0190359
0.0189926
0.018947
0.0188991
0.0188489
0.0187968
0.0187426
0.0186865
0.0186285
0.018569
0.0185081
0.0184462
0.0183832
0.0183196
0.0182554
0.0181912
0.0181272
0.0180638
0.0180013
0.0179401
0.0178804
0.0178227
0.0177672
0.0177143
0.0176642
0.0176174
0.017574
0.0175345
0.0174992
0.0174685
0.0174427
0.0174219
0.0174061
0.0173954
0.0173903
0.0173907
0.0173949
0.0174032
0.0174162
0.0174332
0.0174538
0.0174775
0.0175041
0.0175331
0.0175642
0.0175971
0.0176315
0.0176671
0.0177036
0.0177408
0.0177786
0.0178169
0.0178556
0.0178945
0.0179337
0.0179729
0.0180121
0.0180513
0.0180904
0.0181295
0.0181686
0.0182077
0.0182468
0.0182859
0.0183252
0.0183648
0.0184045
0.0184446
0.0184849
0.0185256
0.0185666
0.018608
0.0186497
0.0186916
0.0187335
0.0187753
0.018817
0.0188585
0.0188999
0.0189411
0.018982
0.0190225
0.0190627
0.0191025
0.0191418
0.0191806
0.0192188
0.0192565
0.0192935
0.0193298
0.0193655
0.0194003
0.0194344
0.0194676
0.0194999
0.0195313
0.0195618
0.0195912
0.0196197
0.0201251
0.0200966
0.0200668
0.0200386
0.0200105
0.01998
0.0199476
0.019915
0.0198822
0.0198484
0.0198141
0.0197799
0.0197452
0.0197101
0.0196749
0.0196397
0.019604
0.0195679
0.0195317
0.0194953
0.0194584
0.0194208
0.0193825
0.0193436
0.0193042
0.0192644
0.0192242
0.0191835
0.0191424
0.0191011
0.0190599
0.0190195
0.0189802
0.0189425
0.018907
0.0188743
0.0188448
0.0188191
0.0187974
0.0187802
0.0187675
0.0187594
0.0187572
0.0187589
0.018765
0.0187753
0.0187892
0.0188085
0.0188303
0.0188552
0.0188835
0.0189144
0.0189472
0.0189813
0.0190165
0.0190523
0.0190883
0.0191244
0.0191602
0.0191956
0.0192303
0.0192641
0.0192969
0.0193284
0.0193587
0.0193877
0.0194156
0.0194424
0.0194682
0.0194933
0.0195175
0.0195412
0.0195642
0.0195867
0.0196087
0.0196303
0.0196514
0.0196721
0.0196924
0.0197122
0.0197316
0.0197506
0.0197692
0.0197874
0.0198052
0.0198228
0.0198401
0.019857
0.0198737
0.0198902
0.0199064
0.0199223
0.0199379
0.0199533
0.0199684
0.0199832
0.0199977
0.020012
0.0200258
0.0200394
0.0200526
0.0200653
0.0200777
0.0200897
0.0201012
0.0201123
0.020123
0.0201332
0.0201429
0.0201523
0.0204106
0.0203766
0.0203443
0.0203147
0.0202833
0.0202504
0.0202184
0.0201867
0.020154
0.0201216
0.0200897
0.0200574
0.0200256
0.0199949
0.0199644
0.0199341
0.0199049
0.0198764
0.0198485
0.0198216
0.0197958
0.0197706
0.0197462
0.0197228
0.0197004
0.0196793
0.01966
0.0196424
0.0196267
0.0196127
0.0196008
0.0195906
0.0195821
0.0195754
0.0195703
0.0195673
0.0195667
0.0195678
0.0195715
0.0195778
0.019587
0.0195995
0.0196149
0.0196315
0.0196518
0.0196735
0.0196972
0.0197228
0.0197488
0.0197748
0.0198009
0.0198266
0.0198517
0.0198759
0.0198987
0.0199203
0.0199407
0.0199597
0.0199774
0.0199935
0.0200083
0.0200219
0.0200346
0.0200463
0.0200573
0.0200675
0.0200772
0.0200863
0.020095
0.0201032
0.0201109
0.0201182
0.0201251
0.0201315
0.0201376
0.0201433
0.0201487
0.0201538
0.0201586
0.0201632
0.0201675
0.0201717
0.0201757
0.0201796
0.0201834
0.0201871
0.0201908
0.0201944
0.0201981
0.0202017
0.0202054
0.0202092
0.020213
0.020217
0.020221
0.0202251
0.0202294
0.0202337
0.0202382
0.0202428
0.0202475
0.0202522
0.0202569
0.0202617
0.0202665
0.0202713
0.0202761
0.0202808
0.0202854
0.02029
0.0205386
0.0205047
0.0204701
0.0204365
0.0204033
0.0203695
0.0203371
0.0203055
0.0202731
0.0202412
0.0202101
0.0201783
0.020148
0.0201199
0.0200915
0.0200633
0.0200384
0.020014
0.0199892
0.0199665
0.0199469
0.0199272
0.0199077
0.0198893
0.0198723
0.0198567
0.0198426
0.01983
0.0198191
0.0198101
0.0198035
0.0197993
0.0197984
0.0197996
0.0198031
0.0198085
0.0198176
0.0198302
0.0198451
0.019862
0.0198808
0.0199017
0.0199236
0.0199461
0.0199698
0.019993
0.0200164
0.020041
0.0200646
0.020088
0.0201108
0.0201314
0.0201504
0.0201681
0.0201843
0.0201991
0.0202128
0.0202252
0.0202363
0.0202462
0.0202549
0.0202624
0.0202689
0.0202747
0.0202797
0.020284
0.0202876
0.0202905
0.0202926
0.0202941
0.0202951
0.0202957
0.020296
0.0202961
0.020296
0.0202958
0.0202955
0.020295
0.0202946
0.0202941
0.0202937
0.0202933
0.020293
0.0202927
0.0202926
0.0202925
0.0202926
0.0202929
0.0202933
0.0202939
0.0202947
0.0202957
0.0202969
0.0202983
0.0202998
0.0203015
0.0203035
0.0203055
0.0203077
0.0203101
0.0203126
0.0203151
0.0203178
0.0203206
0.0203234
0.0203263
0.0203292
0.0203322
0.0203352
0.0203382
0.0203412
0.0205975
0.0205627
0.0205278
0.0204937
0.0204595
0.020425
0.0203925
0.0203608
0.020328
0.0202962
0.0202653
0.0202337
0.0202039
0.0201765
0.0201482
0.0201206
0.020096
0.0200718
0.020047
0.0200251
0.0200051
0.0199864
0.0199663
0.0199482
0.0199332
0.0199201
0.0199089
0.0199002
0.0198939
0.0198899
0.019889
0.01989
0.0198932
0.0198986
0.0199059
0.0199145
0.0199248
0.0199379
0.0199535
0.0199712
0.0199909
0.0200121
0.0200345
0.0200574
0.0200803
0.0201036
0.020127
0.0201499
0.0201723
0.0201952
0.0202147
0.0202324
0.02025
0.020266
0.0202793
0.0202916
0.0203038
0.0203143
0.020323
0.0203311
0.020338
0.0203435
0.0203478
0.0203516
0.0203546
0.0203566
0.0203579
0.0203591
0.0203595
0.0203595
0.0203592
0.0203586
0.0203578
0.0203568
0.0203557
0.0203544
0.0203529
0.0203514
0.0203498
0.0203482
0.0203467
0.0203453
0.0203439
0.0203426
0.0203414
0.0203404
0.0203395
0.0203387
0.0203382
0.0203377
0.0203375
0.0203375
0.0203375
0.0203378
0.0203383
0.0203389
0.0203397
0.0203407
0.020342
0.0203434
0.020345
0.0203468
0.0203488
0.020351
0.0203533
0.0203558
0.0203584
0.020361
0.0203638
0.0203666
0.0203695
0.0203724
0.0203753
0.0206376
0.020602
0.0205671
0.0205327
0.0204978
0.0204628
0.0204313
0.0203997
0.0203667
0.0203358
0.0203056
0.0202745
0.0202461
0.0202197
0.0201921
0.020166
0.0201427
0.0201191
0.0200954
0.0200747
0.020055
0.0200376
0.0200183
0.0200008
0.0199855
0.0199728
0.0199624
0.0199541
0.019948
0.0199441
0.0199435
0.0199445
0.0199476
0.0199533
0.0199612
0.0199712
0.0199831
0.0199971
0.020013
0.0200305
0.0200493
0.020069
0.020089
0.0201091
0.0201296
0.0201509
0.02017
0.0201888
0.0202093
0.0202298
0.0202471
0.0202626
0.0202786
0.0202937
0.0203069
0.020319
0.0203303
0.0203406
0.0203498
0.0203581
0.0203654
0.0203717
0.0203768
0.0203809
0.0203844
0.0203874
0.0203896
0.0203912
0.0203919
0.020392
0.0203918
0.0203913
0.0203904
0.0203891
0.0203877
0.0203861
0.0203843
0.0203825
0.0203806
0.0203788
0.0203771
0.0203754
0.0203738
0.0203724
0.0203711
0.02037
0.020369
0.0203683
0.0203677
0.0203672
0.020367
0.020367
0.0203671
0.0203674
0.0203679
0.0203686
0.0203694
0.0203705
0.0203718
0.0203732
0.0203749
0.0203768
0.0203788
0.0203811
0.0203836
0.0203862
0.0203889
0.0203918
0.0203947
0.0203977
0.0204008
0.0204039
0.020407
0.0207421
0.0207071
0.0206716
0.0206359
0.0206017
0.0205673
0.0205318
0.020498
0.0204675
0.0204356
0.0204028
0.0203732
0.0203438
0.0203137
0.0202867
0.020261
0.020234
0.0202095
0.020187
0.0201637
0.0201418
0.0201217
0.0201025
0.020085
0.0200679
0.0200518
0.0200376
0.0200259
0.0200163
0.0200085
0.0200024
0.0199983
0.0199974
0.0199981
0.0200007
0.0200054
0.0200123
0.0200209
0.0200313
0.0200432
0.0200568
0.0200718
0.0200881
0.0201053
0.0201231
0.0201413
0.0201597
0.0201779
0.0201957
0.0202139
0.0202322
0.0202493
0.0202653
0.0202802
0.0202946
0.0203085
0.0203215
0.0203335
0.0203449
0.0203555
0.0203654
0.0203745
0.0203829
0.0203903
0.020396
0.020401
0.0204054
0.0204091
0.020412
0.0204143
0.0204158
0.0204168
0.0204173
0.0204173
0.020417
0.0204164
0.0204155
0.0204144
0.0204131
0.0204117
0.0204102
0.0204088
0.0204073
0.020406
0.0204047
0.0204035
0.0204025
0.0204016
0.0204009
0.0204004
0.0204001
0.0204
0.0204001
0.0204003
0.0204007
0.0204013
0.0204022
0.0204031
0.0204043
0.0204057
0.0204073
0.0204091
0.0204111
0.0204132
0.0204156
0.0204181
0.0204207
0.0204236
0.0204266
0.0204297
0.0204328
0.0204361
0.0204395
0.0204429
0.0204463
0.0207803
0.0207452
0.0207093
0.0206746
0.0206411
0.0206067
0.0205714
0.0205396
0.0205093
0.0204771
0.0204454
0.0204171
0.0203882
0.0203596
0.0203338
0.020308
0.020282
0.0202581
0.0202359
0.0202136
0.0201929
0.0201733
0.0201545
0.0201375
0.0201217
0.020107
0.0200938
0.0200826
0.0200734
0.0200661
0.0200606
0.0200567
0.020055
0.0200553
0.020057
0.0200606
0.0200661
0.0200731
0.0200816
0.0200915
0.0201026
0.0201149
0.0201283
0.0201424
0.0201571
0.0201723
0.0201878
0.0202032
0.0202185
0.0202347
0.0202513
0.0202654
0.0202796
0.0202945
0.0203084
0.0203215
0.0203342
0.0203464
0.0203581
0.0203694
0.0203799
0.0203898
0.0203992
0.0204078
0.0204147
0.0204207
0.0204263
0.0204314
0.0204358
0.0204393
0.0204422
0.0204445
0.0204461
0.0204472
0.0204479
0.0204482
0.0204481
0.0204478
0.0204473
0.0204466
0.0204457
0.0204448
0.0204439
0.020443
0.0204422
0.0204415
0.0204409
0.0204405
0.0204403
0.0204402
0.0204402
0.0204405
0.0204409
0.0204416
0.0204424
0.0204435
0.0204447
0.0204462
0.0204479
0.0204497
0.0204518
0.020454
0.0204565
0.0204591
0.0204619
0.0204649
0.020468
0.0204714
0.020475
0.0204786
0.0204822
0.0204861
0.0204901
0.0204941
0.0204983
0.0205025
0.0210758
0.0210392
0.0210028
0.020967
0.0209313
0.0208957
0.0208605
0.0208258
0.0207906
0.020755
0.0207219
0.0206888
0.0206546
0.0206206
0.0205903
0.0205601
0.020528
0.0204982
0.0204708
0.0204422
0.0204154
0.0203906
0.0203648
0.0203395
0.0203161
0.020294
0.0202729
0.0202527
0.0202335
0.0202156
0.0201991
0.0201841
0.0201702
0.0201577
0.0201468
0.0201378
0.0201305
0.0201249
0.0201208
0.0201186
0.0201185
0.0201194
0.0201217
0.0201256
0.0201308
0.0201373
0.0201449
0.0201536
0.0201633
0.0201738
0.020185
0.0201968
0.0202091
0.0202217
0.0202345
0.0202474
0.0202614
0.0202758
0.0202879
0.0203005
0.0203144
0.0203276
0.0203399
0.0203521
0.0203642
0.0203762
0.020388
0.0203994
0.0204102
0.0204208
0.0204306
0.0204387
0.020446
0.0204532
0.0204599
0.0204658
0.020471
0.0204755
0.0204793
0.0204824
0.0204849
0.0204869
0.0204883
0.0204893
0.0204899
0.0204902
0.0204902
0.0204902
0.02049
0.0204897
0.0204894
0.0204892
0.0204891
0.0204891
0.0204893
0.0204896
0.0204901
0.0204909
0.0204918
0.020493
0.0204943
0.0204959
0.0204978
0.0204998
0.0205021
0.0205046
0.0205072
0.0205101
0.0205132
0.0205165
0.0205199
0.0205236
0.0205274
0.0205314
0.0205356
0.02054
0.0205446
0.0205492
0.0205541
0.0205591
0.0205642
0.0205694
0.0205748
0.0211265
0.0210904
0.0210547
0.0210193
0.0209841
0.0209491
0.0209147
0.0208804
0.0208453
0.0208112
0.0207794
0.0207466
0.0207127
0.0206809
0.0206519
0.0206217
0.0205907
0.0205628
0.0205357
0.0205082
0.0204828
0.0204588
0.0204331
0.0204086
0.0203859
0.0203643
0.0203434
0.0203237
0.0203053
0.0202879
0.020272
0.0202574
0.0202439
0.0202317
0.020221
0.0202118
0.0202042
0.0201982
0.0201935
0.0201904
0.020189
0.0201892
0.0201903
0.0201927
0.0201962
0.0202008
0.0202062
0.0202126
0.0202197
0.0202276
0.0202361
0.0202451
0.0202546
0.0202645
0.0202747
0.0202854
0.0202971
0.0203094
0.0203197
0.0203309
0.0203435
0.0203559
0.0203676
0.0203793
0.0203912
0.0204034
0.0204157
0.0204279
0.0204398
0.0204515
0.0204624
0.0204719
0.0204808
0.0204897
0.0204982
0.020506
0.020513
0.0205192
0.0205246
0.0205293
0.0205333
0.0205367
0.0205395
0.0205418
0.0205436
0.0205451
0.0205463
0.0205473
0.0205481
0.0205488
0.0205494
0.0205502
0.020551
0.0205519
0.020553
0.0205543
0.0205558
0.0205576
0.0205595
0.0205618
0.0205643
0.020567
0.02057
0.0205732
0.0205767
0.0205804
0.0205843
0.0205884
0.0205927
0.0205972
0.0206019
0.0206068
0.0206119
0.0206173
0.0206228
0.0206285
0.0206344
0.0206405
0.0206468
0.0206533
0.02066
0.0206669
0.0206739
0.0211862
0.0211509
0.021116
0.0210814
0.0210468
0.0210129
0.0209795
0.0209458
0.0209112
0.0208793
0.0208483
0.0208161
0.0207832
0.0207538
0.0207256
0.0206955
0.0206666
0.0206404
0.0206136
0.0205875
0.020563
0.0205398
0.0205147
0.0204912
0.0204692
0.0204479
0.0204275
0.0204083
0.0203904
0.0203736
0.0203579
0.0203434
0.0203302
0.020318
0.0203072
0.0202977
0.0202896
0.0202828
0.0202773
0.0202731
0.0202703
0.0202688
0.0202687
0.0202694
0.020271
0.0202735
0.0202768
0.0202808
0.0202855
0.0202909
0.0202968
0.0203033
0.0203103
0.0203177
0.0203257
0.0203343
0.0203438
0.0203538
0.0203629
0.020373
0.0203845
0.0203965
0.0204078
0.020419
0.0204308
0.0204432
0.0204561
0.0204692
0.0204821
0.020495
0.0205071
0.0205182
0.0205289
0.0205395
0.0205499
0.0205596
0.0205685
0.0205767
0.0205842
0.0205908
0.0205968
0.0206021
0.0206067
0.0206107
0.0206142
0.0206173
0.02062
0.0206224
0.0206245
0.0206266
0.0206286
0.0206306
0.0206327
0.020635
0.0206374
0.0206401
0.020643
0.0206462
0.0206497
0.0206534
0.0206574
0.0206617
0.0206663
0.0206712
0.0206762
0.0206816
0.0206871
0.0206929
0.0206989
0.0207051
0.0207115
0.0207182
0.0207251
0.0207322
0.0207395
0.0207471
0.0207549
0.020763
0.0207713
0.0207799
0.0207887
0.0207977
0.0208069
0.0212563
0.0212221
0.0211883
0.0211546
0.0211212
0.0210886
0.0210562
0.0210233
0.0209904
0.0209605
0.0209302
0.0208988
0.020868
0.0208405
0.0208129
0.0207837
0.020757
0.0207324
0.0207062
0.0206812
0.0206576
0.0206348
0.0206114
0.0205891
0.0205676
0.0205467
0.0205269
0.0205082
0.0204908
0.0204743
0.0204588
0.0204444
0.0204311
0.0204188
0.0204077
0.0203977
0.020389
0.0203814
0.0203749
0.0203695
0.0203652
0.0203621
0.0203601
0.020359
0.0203589
0.0203593
0.0203604
0.0203622
0.0203646
0.0203676
0.0203712
0.0203753
0.02038
0.0203852
0.0203911
0.0203978
0.0204053
0.0204133
0.0204213
0.0204304
0.0204408
0.0204523
0.0204633
0.0204743
0.0204861
0.0204988
0.0205123
0.0205264
0.0205408
0.0205548
0.0205681
0.020581
0.0205938
0.0206067
0.0206193
0.0206314
0.0206428
0.0206534
0.0206634
0.0206725
0.0206809
0.0206885
0.0206954
0.0207016
0.0207072
0.0207122
0.0207168
0.0207211
0.0207251
0.0207289
0.0207326
0.0207364
0.0207402
0.0207443
0.0207485
0.020753
0.0207577
0.0207628
0.0207682
0.0207739
0.0207799
0.0207862
0.0207928
0.0207997
0.0208069
0.0208143
0.020822
0.0208299
0.020838
0.0208464
0.0208551
0.020864
0.0208731
0.0208825
0.0208922
0.0209022
0.0209125
0.0209231
0.020934
0.0209452
0.0209566
0.0209684
0.0209804
0.0209927
0.0210052
0.0213383
0.0213054
0.0212729
0.0212406
0.0212088
0.0211777
0.0211466
0.0211149
0.0210845
0.0210561
0.0210269
0.0209966
0.0209684
0.0209426
0.0209157
0.0208881
0.0208633
0.0208401
0.0208152
0.020791
0.0207684
0.0207465
0.0207249
0.0207036
0.0206827
0.0206625
0.0206434
0.0206254
0.0206083
0.0205921
0.0205769
0.0205625
0.020549
0.0205366
0.0205251
0.0205145
0.020505
0.0204966
0.020489
0.0204825
0.0204769
0.0204722
0.0204684
0.0204655
0.0204634
0.0204619
0.020461
0.0204608
0.0204611
0.0204619
0.0204634
0.0204654
0.020468
0.0204713
0.0204754
0.0204802
0.0204859
0.0204923
0.0204994
0.0205075
0.020517
0.020528
0.0205387
0.0205495
0.0205615
0.0205747
0.0205892
0.0206045
0.0206204
0.0206358
0.0206508
0.0206659
0.0206814
0.0206969
0.0207122
0.0207271
0.0207414
0.020755
0.0207679
0.02078
0.0207912
0.0208016
0.0208111
0.0208199
0.020828
0.0208355
0.0208424
0.0208489
0.0208551
0.0208612
0.0208671
0.020873
0.0208791
0.0208853
0.0208918
0.0208985
0.0209056
0.020913
0.0209207
0.0209288
0.0209373
0.020946
0.0209551
0.0209645
0.0209742
0.0209842
0.0209944
0.0210049
0.0210157
0.0210268
0.0210381
0.0210497
0.0210616
0.0210739
0.0210864
0.0210993
0.0211126
0.0211261
0.0211401
0.0211544
0.021169
0.021184
0.0211993
0.0212148
0.0212307
0.0214337
0.0214025
0.0213716
0.021341
0.0213111
0.0212818
0.0212523
0.0212224
0.0211946
0.0211676
0.0211399
0.0211114
0.0210858
0.0210615
0.0210359
0.0210102
0.020987
0.0209653
0.0209421
0.0209191
0.0208977
0.0208771
0.0208567
0.0208364
0.0208164
0.0207972
0.020779
0.0207616
0.020745
0.0207292
0.0207142
0.0206999
0.0206865
0.0206738
0.0206619
0.0206509
0.0206407
0.0206314
0.0206229
0.0206152
0.0206083
0.0206022
0.0205969
0.0205923
0.0205884
0.0205851
0.0205824
0.0205803
0.0205787
0.0205776
0.0205773
0.0205775
0.0205783
0.0205799
0.0205823
0.0205856
0.0205898
0.020595
0.0206012
0.0206086
0.0206175
0.0206281
0.0206387
0.0206496
0.0206621
0.0206763
0.020692
0.0207089
0.0207264
0.0207436
0.0207608
0.0207787
0.0207971
0.0208157
0.0208341
0.0208523
0.0208699
0.0208869
0.0209032
0.0209185
0.020933
0.0209466
0.0209592
0.020971
0.0209819
0.0209922
0.0210019
0.021011
0.0210199
0.0210285
0.021037
0.0210455
0.0210542
0.021063
0.0210721
0.0210815
0.0210913
0.0211015
0.021112
0.0211229
0.0211341
0.0211457
0.0211577
0.02117
0.0211826
0.0211955
0.0212087
0.0212222
0.021236
0.0212501
0.0212645
0.0212792
0.0212943
0.0213097
0.0213255
0.0213416
0.0213582
0.0213751
0.0213924
0.0214101
0.0214282
0.0214467
0.0214656
0.0214848
0.0215043
0.0215735
0.0215439
0.0215147
0.0214857
0.0214572
0.0214296
0.0214022
0.0213746
0.0213473
0.0213219
0.0212966
0.0212707
0.0212448
0.0212215
0.0211987
0.021175
0.0211515
0.0211298
0.0211098
0.0210887
0.0210671
0.021047
0.0210278
0.0210088
0.0209896
0.0209707
0.0209527
0.0209354
0.0209188
0.0209028
0.0208876
0.020873
0.020859
0.0208456
0.0208329
0.0208208
0.0208094
0.0207986
0.0207886
0.0207793
0.0207706
0.0207626
0.0207553
0.0207486
0.0207426
0.0207371
0.0207322
0.0207279
0.0207241
0.0207209
0.0207182
0.0207162
0.0207148
0.0207143
0.0207146
0.0207156
0.0207176
0.0207207
0.020725
0.0207306
0.0207376
0.0207462
0.0207568
0.0207677
0.0207792
0.0207926
0.0208082
0.0208256
0.0208445
0.0208639
0.0208833
0.0209034
0.0209244
0.0209461
0.0209681
0.0209902
0.021012
0.0210333
0.021054
0.0210739
0.0210929
0.0211109
0.021128
0.021144
0.021159
0.0211731
0.0211864
0.0211991
0.0212112
0.021223
0.0212345
0.0212459
0.0212574
0.021269
0.0212808
0.0212928
0.0213053
0.0213181
0.0213312
0.0213448
0.0213588
0.0213732
0.0213879
0.021403
0.0214184
0.0214341
0.0214502
0.0214666
0.0214833
0.0215003
0.0215177
0.0215354
0.0215534
0.0215718
0.0215906
0.0216098
0.0216294
0.0216493
0.0216698
0.0216906
0.0217118
0.0217335
0.0217556
0.021778
0.0218008
0.021824
0.0216974
0.0216701
0.0216432
0.0216166
0.0215906
0.0215653
0.0215402
0.021515
0.0214908
0.0214676
0.0214443
0.0214206
0.021398
0.0213767
0.0213556
0.0213344
0.0213133
0.0212932
0.0212748
0.0212563
0.0212363
0.0212177
0.0212001
0.0211826
0.021165
0.0211472
0.0211304
0.0211145
0.0210988
0.0210836
0.021069
0.0210551
0.0210416
0.0210285
0.0210159
0.0210038
0.0209922
0.0209811
0.0209706
0.0209606
0.0209512
0.0209423
0.020934
0.0209262
0.020919
0.0209122
0.020906
0.0209003
0.0208952
0.0208906
0.0208865
0.0208832
0.0208806
0.0208789
0.0208782
0.0208784
0.0208795
0.0208818
0.0208856
0.0208909
0.0208979
0.0209067
0.0209178
0.0209292
0.0209418
0.020957
0.0209745
0.0209941
0.0210153
0.0210369
0.0210592
0.0210827
0.0211072
0.0211326
0.0211584
0.0211843
0.02121
0.0212353
0.0212599
0.0212836
0.0213064
0.0213281
0.0213487
0.0213682
0.0213866
0.021404
0.0214206
0.0214364
0.0214517
0.0214665
0.0214811
0.0214956
0.0215102
0.0215249
0.0215398
0.021555
0.0215706
0.0215866
0.0216029
0.0216197
0.0216369
0.0216544
0.0216723
0.0216906
0.0217092
0.0217282
0.0217475
0.0217671
0.021787
0.0218073
0.0218279
0.0218488
0.0218701
0.0218918
0.0219139
0.0219364
0.0219592
0.0219826
0.0220063
0.0220305
0.0220551
0.0220801
0.0221055
0.0221313
0.0221575
0.022184
0.0222109
0.0222381
0.0218379
0.0218132
0.021789
0.0217652
0.021742
0.0217193
0.0216968
0.0216745
0.0216533
0.0216326
0.0216116
0.0215909
0.0215714
0.0215521
0.0215333
0.0215149
0.0214964
0.0214781
0.0214616
0.0214455
0.0214277
0.0214107
0.021395
0.0213793
0.0213634
0.0213472
0.0213317
0.0213171
0.0213027
0.0212885
0.0212748
0.0212617
0.021249
0.0212365
0.0212242
0.0212123
0.0212007
0.0211896
0.0211788
0.0211685
0.0211586
0.0211491
0.02114
0.0211314
0.0211232
0.0211155
0.0211082
0.0211015
0.0210952
0.0210896
0.0210845
0.0210802
0.0210767
0.0210742
0.0210728
0.0210727
0.0210733
0.0210753
0.0210791
0.0210846
0.0210921
0.0211016
0.0211136
0.0211261
0.0211406
0.021158
0.021178
0.0212003
0.021224
0.0212485
0.0212742
0.0213013
0.0213298
0.0213591
0.0213888
0.0214187
0.0214485
0.0214777
0.0215062
0.0215338
0.0215603
0.0215857
0.0216098
0.0216326
0.0216543
0.021675
0.0216947
0.0217136
0.021732
0.0217499
0.0217676
0.0217852
0.0218029
0.0218206
0.0218387
0.021857
0.0218757
0.0218948
0.0219142
0.0219341
0.0219543
0.021975
0.0219959
0.0220173
0.0220389
0.0220609
0.0220832
0.0221058
0.0221287
0.0221519
0.0221755
0.0221994
0.0222236
0.0222482
0.0222732
0.0222986
0.0223244
0.0223506
0.0223773
0.0224043
0.0224318
0.0224596
0.0224879
0.0225165
0.0225455
0.0225747
0.0226043
0.0226342
0.0219955
0.0219739
0.0219526
0.0219319
0.0219117
0.021892
0.0218724
0.0218535
0.0218352
0.0218172
0.0217991
0.0217818
0.0217651
0.0217482
0.0217321
0.0217167
0.0217008
0.0216848
0.0216706
0.0216568
0.0216414
0.0216265
0.0216128
0.0215993
0.0215851
0.0215706
0.0215567
0.0215437
0.0215307
0.0215177
0.0215052
0.0214932
0.0214814
0.0214697
0.0214581
0.0214466
0.0214353
0.0214243
0.0214136
0.0214031
0.021393
0.0213831
0.0213736
0.0213644
0.0213556
0.0213472
0.0213392
0.0213318
0.0213248
0.0213184
0.0213127
0.0213079
0.0213039
0.0213009
0.0212993
0.0212992
0.0212999
0.0213022
0.0213064
0.0213128
0.0213212
0.0213322
0.0213454
0.0213597