/*--------------------------------*- C++ -*----------------------------------*\
| =========                 |                                                 |
| \\      /  F ield         | OpenFOAM: The Open Source CFD Toolbox           |
|  \\    /   O peration     | Version:  v1706                                 |
|   \\  /    A nd           | Web:      www.OpenFOAM.com                      |
|    \\/     M anipulation  |                                                 |
\*---------------------------------------------------------------------------*/
FoamFile
{
    version     2.0;
    format      ascii;
    class       volScalarField;
    location    "1.4e-05";
    object      Mach;
}
// * * * * * * * * * * * * * * * * * * * * * * * * * * * * * * * * * * * * * //

dimensions      [0 0 0 0 0 0 0];


internalField   nonuniform List<scalar> 
29871
(
3.99393
3.99393
3.99394
3.99395
3.99396
3.99397
3.99399
3.99401
3.99402
3.99404
3.99407
3.99409
3.99411
3.99414
3.99416
3.99419
3.99421
3.99424
3.99426
3.99429
3.99432
3.99434
3.99437
3.99439
3.99441
3.99444
3.99446
3.99448
3.9945
3.99452
3.99454
3.99456
3.99457
3.99459
3.9946
3.99462
3.99463
3.99464
3.99465
3.99466
3.99467
3.99467
3.99468
3.99468
3.99469
3.99469
3.99469
3.99469
3.99469
3.99469
3.99469
3.99469
3.99469
3.99469
3.99469
3.99468
3.99468
3.99468
3.99468
3.99467
3.99467
3.99467
3.99466
3.99466
3.99466
3.99465
3.99465
3.99465
3.99464
3.99464
3.99463
3.99463
3.99463
3.99462
3.99462
3.99461
3.99461
3.9946
3.9946
3.99459
3.99459
3.99458
3.99458
3.99457
3.99457
3.99456
3.99456
3.99455
3.99455
3.99454
3.99454
3.99453
3.99453
3.99452
3.99452
3.99451
3.99451
3.9945
3.9945
3.99449
3.99449
3.99448
3.99448
3.99447
3.99447
3.98893
3.98896
3.989
3.98905
3.98912
3.98919
3.98928
3.98937
3.98947
3.98958
3.9897
3.98983
3.98996
3.99009
3.99023
3.99037
3.99052
3.99067
3.99081
3.99096
3.99111
3.99125
3.99139
3.99153
3.99167
3.9918
3.99193
3.99206
3.99217
3.99229
3.9924
3.9925
3.99259
3.99268
3.99276
3.99284
3.99291
3.99297
3.99302
3.99307
3.99311
3.99315
3.99318
3.9932
3.99322
3.99324
3.99325
3.99326
3.99326
3.99325
3.99325
3.99325
3.99324
3.99322
3.99321
3.99319
3.99318
3.99316
3.99314
3.99312
3.9931
3.99307
3.99305
3.99303
3.993
3.99298
3.99295
3.99293
3.9929
3.99288
3.99285
3.99282
3.9928
3.99277
3.99274
3.99271
3.99268
3.99265
3.99261
3.99258
3.99255
3.99251
3.99248
3.99245
3.99241
3.99238
3.99234
3.9923
3.99227
3.99223
3.9922
3.99216
3.99212
3.99209
3.99205
3.99202
3.99198
3.99194
3.99191
3.99187
3.99184
3.9918
3.99177
3.99173
3.9917
3.97663
3.97668
3.97675
3.97686
3.97702
3.9772
3.97742
3.97767
3.97795
3.97826
3.97859
3.97894
3.97932
3.97971
3.98012
3.98053
3.98096
3.9814
3.98184
3.98228
3.98272
3.98316
3.9836
3.98403
3.98445
3.98486
3.98525
3.98564
3.98601
3.98636
3.9867
3.98701
3.98732
3.9876
3.98786
3.9881
3.98832
3.98853
3.98871
3.98887
3.98901
3.98914
3.98924
3.98933
3.9894
3.98945
3.98949
3.98951
3.98952
3.98952
3.98951
3.98949
3.98946
3.98943
3.98938
3.98933
3.98927
3.98921
3.98914
3.98907
3.989
3.98892
3.98885
3.98876
3.98868
3.9886
3.98851
3.98842
3.98833
3.98824
3.98815
3.98806
3.98796
3.98786
3.98776
3.98765
3.98755
3.98744
3.98733
3.98721
3.9871
3.98698
3.98686
3.98674
3.98661
3.98649
3.98636
3.98623
3.9861
3.98596
3.98583
3.9857
3.98556
3.98543
3.98529
3.98516
3.98502
3.98489
3.98475
3.98462
3.98448
3.98435
3.98421
3.98408
3.98394
3.98381
3.94793
3.94807
3.9483
3.94858
3.94898
3.94946
3.95003
3.95067
3.95138
3.95215
3.95299
3.95388
3.95482
3.95581
3.95683
3.95788
3.95895
3.96004
3.96115
3.96226
3.96337
3.96448
3.96557
3.96665
3.96771
3.96874
3.96975
3.97072
3.97165
3.97255
3.9734
3.9742
3.97496
3.97566
3.97632
3.97692
3.97747
3.97796
3.9784
3.9788
3.97914
3.97943
3.97967
3.97987
3.98002
3.98013
3.9802
3.98024
3.98023
3.98019
3.98015
3.98007
3.97997
3.97984
3.97969
3.97952
3.97934
3.97915
3.97894
3.97873
3.97851
3.97828
3.97804
3.9778
3.97756
3.9773
3.97705
3.97679
3.97652
3.97625
3.97597
3.97569
3.9754
3.97511
3.97481
3.9745
3.97418
3.97386
3.97352
3.97318
3.97284
3.97248
3.97212
3.97174
3.97137
3.97098
3.97059
3.97019
3.96979
3.96938
3.96897
3.96855
3.96813
3.96771
3.96729
3.96686
3.96644
3.96601
3.96558
3.96515
3.96472
3.96429
3.96386
3.96342
3.96299
3.96255
3.88525
3.88541
3.88579
3.88635
3.88705
3.88798
3.88912
3.89044
3.89192
3.89356
3.89535
3.89727
3.89931
3.90147
3.90371
3.90604
3.90844
3.91088
3.91337
3.91588
3.9184
3.92092
3.92342
3.9259
3.92834
3.93073
3.93306
3.93532
3.9375
3.9396
3.9416
3.94351
3.94531
3.947
3.94858
3.95004
3.95138
3.9526
3.9537
3.95467
3.95552
3.95624
3.95685
3.95735
3.95773
3.958
3.95817
3.95825
3.95824
3.95813
3.958
3.95781
3.95753
3.95719
3.9568
3.95636
3.95589
3.95538
3.95484
3.95428
3.9537
3.95309
3.95247
3.95183
3.95118
3.95051
3.94983
3.94913
3.94842
3.9477
3.94696
3.94621
3.94544
3.94465
3.94385
3.94302
3.94218
3.94131
3.94042
3.93951
3.93858
3.93763
3.93665
3.93565
3.93463
3.93358
3.93252
3.93143
3.93033
3.92921
3.92807
3.92691
3.92575
3.92457
3.92338
3.92218
3.92097
3.91975
3.91852
3.91729
3.91605
3.91481
3.91355
3.9123
3.91103
3.90976
3.90848
3.76083
3.7614
3.76239
3.76375
3.7653
3.76735
3.76979
3.77256
3.77565
3.77903
3.7827
3.78662
3.79077
3.79513
3.79967
3.80438
3.80921
3.81415
3.81917
3.82425
3.82935
3.83446
3.83955
3.8446
3.84958
3.85447
3.85925
3.86389
3.86837
3.87267
3.87678
3.88068
3.88435
3.88779
3.89098
3.89391
3.89659
3.899
3.90114
3.90301
3.90463
3.90598
3.90708
3.90792
3.90853
3.9089
3.90905
3.90898
3.9087
3.90836
3.90787
3.90718
3.90633
3.90537
3.9043
3.90313
3.90188
3.90055
3.89916
3.89772
3.89622
3.89468
3.89311
3.8915
3.88987
3.8882
3.88651
3.88478
3.88303
3.88125
3.87943
3.87758
3.87568
3.87375
3.87177
3.86975
3.86768
3.86556
3.86339
3.86116
3.85888
3.85655
3.85416
3.85171
3.84921
3.84666
3.84405
3.84139
3.83869
3.83593
3.83314
3.8303
3.82742
3.82451
3.82157
3.8186
3.8156
3.81257
3.80953
3.80647
3.80339
3.80029
3.79717
3.79403
3.79088
3.78771
3.78452
3.55054
3.55013
3.55044
3.55134
3.55291
3.55524
3.55771
3.56087
3.56474
3.56918
3.57415
3.57961
3.58555
3.59193
3.59872
3.60588
3.61338
3.62118
3.62924
3.63752
3.64599
3.6546
3.66331
3.67208
3.68088
3.68966
3.69838
3.70699
3.71546
3.72376
3.73183
3.73965
3.74717
3.75437
3.76121
3.76766
3.7737
3.7793
3.78442
3.78906
3.7932
3.79682
3.79993
3.80252
3.80459
3.80617
3.80726
3.80784
3.80799
3.80768
3.80694
3.80607
3.80491
3.80331
3.80142
3.79927
3.7969
3.79434
3.7916
3.78872
3.78571
3.78259
3.77938
3.77609
3.77273
3.76931
3.76583
3.7623
3.75872
3.75508
3.75139
3.74764
3.74382
3.73994
3.73599
3.73196
3.72785
3.72366
3.71937
3.715
3.71052
3.70595
3.70127
3.6965
3.69162
3.68664
3.68156
3.67638
3.6711
3.66573
3.66027
3.65473
3.64911
3.64341
3.63764
3.63182
3.62593
3.62
3.61402
3.60799
3.60194
3.59585
3.58973
3.58359
3.57742
3.57123
3.56501
3.55877
3.55251
3.54622
3.26821
3.26935
3.27125
3.27396
3.27735
3.28157
3.28566
3.29084
3.29687
3.30352
3.31074
3.31853
3.32686
3.33569
3.345
3.35476
3.36492
3.37544
3.3863
3.39746
3.40887
3.4205
3.4323
3.44424
3.45627
3.46833
3.48037
3.49233
3.50414
3.51576
3.5271
3.53811
3.54872
3.55887
3.5685
3.57755
3.58598
3.59373
3.60076
3.60704
3.61252
3.61719
3.62104
3.62407
3.62629
3.62769
3.62828
3.62802
3.62702
3.6253
3.62355
3.62098
3.61777
3.61408
3.60997
3.60549
3.60069
3.59563
3.59033
3.58484
3.57919
3.57341
3.56752
3.56154
3.5555
3.54939
3.54324
3.53704
3.5308
3.52451
3.51818
3.51178
3.50532
3.49878
3.49217
3.48545
3.47864
3.47172
3.46469
3.45754
3.45027
3.44289
3.43538
3.42776
3.42004
3.41221
3.40427
3.39624
3.38812
3.37992
3.37164
3.3633
3.3549
3.34645
3.33797
3.32946
3.32094
3.31241
3.30388
3.29536
3.28685
3.27837
3.26991
3.26147
3.25307
3.24469
3.23634
3.22802
3.21972
3.21145
3.0012
3.00519
3.00999
3.01563
3.02119
3.02648
3.03301
3.04014
3.0477
3.05565
3.06399
3.07272
3.08184
3.09133
3.10117
3.11135
3.12182
3.13258
3.14361
3.15488
3.16635
3.17799
3.18979
3.20172
3.21372
3.22576
3.23777
3.24968
3.26145
3.27301
3.28429
3.29523
3.30576
3.31582
3.32533
3.33422
3.34241
3.34982
3.35639
3.36203
3.36667
3.37029
3.37284
3.37435
3.37481
3.37427
3.37282
3.37021
3.36633
3.36308
3.3586
3.35327
3.34734
3.34096
3.33419
3.32712
3.3198
3.31229
3.30465
3.29691
3.28911
3.28129
3.27346
3.26564
3.25785
3.25009
3.24237
3.2347
3.22707
3.21947
3.21189
3.20432
3.19675
3.18917
3.18157
3.17392
3.16624
3.1585
3.1507
3.14286
3.13495
3.12699
3.11898
3.11092
3.10286
3.09482
3.08681
3.07885
3.07094
3.06309
3.05533
3.04766
3.0401
3.03265
3.02533
3.01815
3.01113
3.00426
2.99758
2.99107
2.98476
2.97863
2.97271
2.96699
2.96146
2.95614
2.95102
2.94608
2.94134
2.93677
2.8653
2.87064
2.87754
2.88498
2.89177
2.89859
2.90593
2.91344
2.92094
2.92849
2.93616
2.94391
2.95167
2.95946
2.96728
2.97507
2.98284
2.99062
2.9984
3.00617
3.01394
3.02174
3.02952
3.03728
3.04499
3.05261
3.06014
3.06758
3.07488
3.08198
3.08882
3.09532
3.10141
3.10703
3.11212
3.11655
3.12026
3.12319
3.12529
3.12652
3.12681
3.12613
3.12439
3.1218
3.11833
3.11372
3.1092
3.10419
3.09771
3.09102
3.08396
3.07654
3.06888
3.06112
3.05334
3.04561
3.03799
3.03053
3.02327
3.01624
3.00947
3.003
2.99681
2.9909
2.98525
2.97984
2.97463
2.96962
2.96478
2.96009
2.95554
2.95112
2.94682
2.94262
2.93852
2.93452
2.93061
2.92678
2.92303
2.91936
2.91576
2.91225
2.90881
2.90546
2.90217
2.89895
2.89581
2.89274
2.88975
2.88684
2.88402
2.88129
2.87865
2.8761
2.87364
2.87128
2.869
2.86681
2.86471
2.86269
2.86074
2.85887
2.85707
2.85534
2.85367
2.85206
2.8505
2.849
2.84754
2.84614
2.81761
2.82477
2.83302
2.84094
2.84814
2.8557
2.86342
2.8708
2.87808
2.88552
2.89289
2.90017
2.90733
2.91435
2.92123
2.92793
2.93442
2.94077
2.94692
2.95279
2.95841
2.96384
2.96907
2.97405
2.97872
2.98299
2.98683
2.99026
2.99326
2.99585
2.998
2.99962
3.00069
3.00123
3.00122
3.00056
2.99918
2.99715
2.99441
2.99094
2.98669
2.98165
2.97592
2.9695
2.96335
2.95661
2.95008
2.94312
2.93596
2.92887
2.92196
2.91533
2.90903
2.90312
2.8976
2.89246
2.8877
2.88332
2.87933
2.87572
2.87245
2.86947
2.86676
2.86431
2.86211
2.86012
2.85834
2.85672
2.85525
2.85391
2.85266
2.85149
2.85037
2.8493
2.84825
2.84721
2.84618
2.84516
2.84413
2.84311
2.8421
2.84108
2.84007
2.83908
2.83809
2.83712
2.83617
2.83524
2.83434
2.83346
2.8326
2.83178
2.83097
2.83021
2.82946
2.82875
2.82805
2.82738
2.82674
2.82613
2.82553
2.82495
2.8244
2.82386
2.82334
2.82283
2.82234
2.82187
2.8214
2.82096
2.79531
2.80283
2.81059
2.81859
2.82625
2.83382
2.84187
2.84936
2.85657
2.86426
2.87152
2.87837
2.88596
2.89305
2.89925
2.90585
2.91275
2.91846
2.92383
2.92977
2.93507
2.93944
2.94404
2.94847
2.95247
2.95605
2.95911
2.96166
2.96374
2.96529
2.96625
2.96657
2.96615
2.96505
2.96313
2.96033
2.95804
2.95454
2.9502
2.94534
2.93999
2.93423
2.92781
2.92106
2.91429
2.90681
2.89981
2.89294
2.88575
2.879
2.87245
2.86629
2.8606
2.85524
2.85045
2.84614
2.8422
2.83865
2.83553
2.83282
2.8305
2.82854
2.82691
2.82555
2.82446
2.8236
2.82293
2.8224
2.82198
2.82165
2.82139
2.82117
2.82098
2.82081
2.82065
2.82048
2.82032
2.82015
2.81997
2.81977
2.81956
2.81933
2.81909
2.81885
2.81859
2.81832
2.81806
2.81779
2.81753
2.81727
2.81702
2.81678
2.81655
2.81632
2.81612
2.81593
2.81575
2.81559
2.81544
2.81529
2.81516
2.81504
2.81492
2.8148
2.81469
2.81457
2.81446
2.81433
2.8142
2.81407
2.81392
2.78676
2.79462
2.80266
2.81064
2.81832
2.82602
2.83423
2.84154
2.84875
2.85657
2.86365
2.87026
2.8778
2.88455
2.89036
2.89678
2.90322
2.90843
2.91358
2.91922
2.92393
2.92832
2.93163
2.93612
2.94018
2.94341
2.94639
2.949
2.95097
2.95228
2.95284
2.95274
2.95188
2.95027
2.94801
2.94483
2.94126
2.9372
2.9324
2.92705
2.92122
2.91497
2.90844
2.90173
2.89475
2.88763
2.88072
2.87392
2.86749
2.86135
2.85467
2.84923
2.84429
2.83932
2.83472
2.83099
2.82762
2.82426
2.82136
2.81905
2.81693
2.81519
2.81383
2.81282
2.81189
2.81116
2.81066
2.81041
2.8102
2.81011
2.81011
2.81018
2.81032
2.81049
2.81068
2.81087
2.81106
2.81122
2.81137
2.81149
2.81159
2.81166
2.81171
2.81174
2.81174
2.81173
2.8117
2.81166
2.81162
2.81156
2.81147
2.81138
2.81128
2.81119
2.81107
2.81093
2.8108
2.81066
2.81055
2.81041
2.81025
2.8101
2.80995
2.80979
2.80963
2.80947
2.8093
2.80914
2.80897
2.80881
2.80864
2.80847
2.80831
2.77876
2.78667
2.79486
2.80271
2.81027
2.81807
2.82637
2.83345
2.84066
2.84861
2.85551
2.86206
2.86959
2.87616
2.88193
2.88848
2.89469
2.8997
2.90507
2.91053
2.91517
2.91988
2.92304
2.9268
2.9299
2.93277
2.93516
2.93709
2.93853
2.93946
2.93979
2.93965
2.93894
2.93762
2.93571
2.93323
2.93016
2.92647
2.92216
2.91726
2.91187
2.90609
2.89995
2.89366
2.88742
2.88119
2.87405
2.86775
2.8618
2.8559
2.84973
2.84435
2.83988
2.83512
2.83071
2.82685
2.82333
2.82005
2.81712
2.81457
2.81235
2.81051
2.80897
2.80776
2.80678
2.80613
2.80568
2.80541
2.80527
2.80527
2.80535
2.80548
2.80566
2.80586
2.80607
2.80628
2.80648
2.80666
2.80682
2.80695
2.80705
2.80712
2.80716
2.80716
2.80714
2.8071
2.80703
2.80694
2.80684
2.80672
2.80659
2.80646
2.80632
2.80618
2.80603
2.80587
2.80572
2.80559
2.80545
2.80532
2.80518
2.80504
2.80492
2.80481
2.80468
2.80454
2.8044
2.80426
2.80412
2.80397
2.80381
2.80365
2.80348
2.75618
2.76426
2.77212
2.78017
2.78835
2.79599
2.80344
2.81162
2.81947
2.82634
2.83366
2.84154
2.84814
2.85472
2.86194
2.8681
2.87391
2.88026
2.8861
2.89077
2.89616
2.90101
2.90541
2.90966
2.91359
2.91714
2.92031
2.92306
2.92522
2.92674
2.92774
2.92831
2.92836
2.92799
2.92714
2.92575
2.92384
2.92143
2.91853
2.91517
2.91137
2.90714
2.90256
2.89769
2.89256
2.88726
2.8819
2.87635
2.8706
2.86486
2.85895
2.85359
2.84817
2.843
2.83832
2.83383
2.82958
2.8257
2.8221
2.81876
2.81569
2.81298
2.81061
2.8085
2.80669
2.80527
2.8041
2.80313
2.80238
2.80182
2.80144
2.80122
2.80112
2.80112
2.80119
2.8013
2.80145
2.80162
2.80178
2.80193
2.80207
2.80218
2.80226
2.80231
2.80233
2.80233
2.8023
2.80224
2.80216
2.80207
2.80196
2.80182
2.80168
2.80153
2.80137
2.8012
2.80102
2.80083
2.80064
2.80045
2.80024
2.80002
2.79981
2.79958
2.79932
2.79904
2.79879
2.79853
2.79824
2.79795
2.79768
2.7974
2.79709
2.79679
2.79651
2.74984
2.75773
2.76548
2.77378
2.78161
2.78913
2.79655
2.80489
2.81212
2.81889
2.82643
2.83392
2.84019
2.84693
2.8537
2.85936
2.86532
2.87132
2.87671
2.88166
2.88667
2.89112
2.89533
2.89945
2.90319
2.90655
2.90951
2.91199
2.91398
2.91552
2.91658
2.91704
2.91692
2.91635
2.91538
2.91397
2.91211
2.90983
2.90717
2.90414
2.90074
2.897
2.89296
2.88867
2.88415
2.87949
2.87482
2.87005
2.86521
2.86043
2.8551
2.84964
2.84521
2.84074
2.83613
2.8319
2.82791
2.82412
2.82054
2.81719
2.81397
2.81105
2.80851
2.80619
2.80407
2.80237
2.80092
2.79967
2.79866
2.79787
2.79729
2.79688
2.79661
2.79646
2.7964
2.79642
2.7965
2.7966
2.79671
2.79682
2.7969
2.79696
2.79698
2.79697
2.79692
2.79684
2.79671
2.79655
2.79635
2.79611
2.79585
2.79558
2.79528
2.79498
2.79467
2.79434
2.794
2.79366
2.79331
2.79295
2.79257
2.79219
2.79181
2.79143
2.79104
2.79066
2.79027
2.78988
2.78952
2.78907
2.78867
2.7883
2.78783
2.78738
2.78698
2.7865
2.68571
2.69397
2.70221
2.71041
2.71855
2.72661
2.73466
2.74258
2.75027
2.75806
2.76634
2.77375
2.78113
2.78875
2.79671
2.80351
2.81022
2.81789
2.82477
2.83087
2.83761
2.84396
2.84921
2.85514
2.86083
2.86606
2.87106
2.87567
2.88
2.88412
2.88797
2.89146
2.8946
2.89735
2.89966
2.9015
2.9029
2.90386
2.90441
2.90453
2.9041
2.90321
2.90186
2.9001
2.89797
2.89552
2.89277
2.88974
2.88644
2.88291
2.87918
2.87527
2.87127
2.86725
2.86316
2.85898
2.8548
2.84997
2.84498
2.84097
2.83683
2.83237
2.82831
2.82451
2.82084
2.81731
2.81395
2.81068
2.80768
2.80504
2.80254
2.8002
2.79828
2.79662
2.79514
2.79389
2.7929
2.79213
2.79155
2.79112
2.7908
2.79057
2.79039
2.79023
2.7901
2.78998
2.78988
2.78976
2.78962
2.78946
2.78927
2.78905
2.7888
2.78851
2.7882
2.78785
2.78749
2.7871
2.78669
2.78626
2.78581
2.78534
2.78485
2.78435
2.78384
2.78332
2.78279
2.78225
2.7817
2.78114
2.78058
2.78002
2.77945
2.77887
2.77828
2.77769
2.77708
2.77647
2.77585
2.77519
2.77454
2.77387
2.77317
2.67826
2.6864
2.69451
2.70254
2.7105
2.71843
2.72632
2.734
2.74142
2.74945
2.75724
2.76441
2.77154
2.77934
2.78673
2.79319
2.80002
2.80739
2.81358
2.81989
2.82626
2.83227
2.83722
2.84302
2.84848
2.85348
2.85818
2.86277
2.86704
2.87096
2.87457
2.87785
2.88079
2.88338
2.88557
2.88733
2.88865
2.88956
2.89009
2.89022
2.88996
2.88932
2.88831
2.88693
2.8852
2.88316
2.88082
2.87822
2.87539
2.87235
2.86913
2.86577
2.86234
2.85886
2.85527
2.85159
2.84799
2.84375
2.83913
2.83534
2.83144
2.8271
2.82313
2.81946
2.81588
2.81239
2.80901
2.8057
2.80263
2.79985
2.79715
2.79466
2.79258
2.79072
2.78903
2.78753
2.78623
2.78511
2.78415
2.78336
2.78269
2.78214
2.78167
2.78128
2.78093
2.78062
2.78031
2.78
2.77967
2.77932
2.77895
2.77855
2.77811
2.77765
2.77715
2.77662
2.77606
2.77546
2.77484
2.7742
2.77352
2.77283
2.77211
2.77138
2.77062
2.76986
2.76907
2.76827
2.76746
2.76664
2.7658
2.76495
2.76409
2.76322
2.76233
2.76143
2.76052
2.75958
2.75863
2.75766
2.75667
2.75565
2.7546
2.66956
2.67754
2.68545
2.69325
2.70101
2.70877
2.71638
2.72377
2.73102
2.73907
2.74623
2.75322
2.7602
2.76789
2.7746
2.78083
2.78781
2.79458
2.80025
2.80665
2.81261
2.81823
2.82307
2.82868
2.83379
2.83848
2.84309
2.84753
2.85163
2.85539
2.85881
2.86192
2.86471
2.86717
2.86927
2.87098
2.87229
2.87321
2.87376
2.87395
2.8738
2.87331
2.87248
2.87135
2.86992
2.86823
2.86629
2.86413
2.86177
2.85923
2.85652
2.85369
2.85077
2.84778
2.8447
2.84152
2.83839
2.83482
2.83085
2.82733
2.82376
2.81982
2.81588
2.81232
2.80883
2.80536
2.80196
2.79859
2.79542
2.79245
2.78952
2.78684
2.78447
2.78226
2.78018
2.77829
2.77662
2.77515
2.77388
2.77276
2.77178
2.77092
2.77015
2.76946
2.76883
2.76822
2.76763
2.76704
2.76644
2.76583
2.76518
2.76451
2.76381
2.76306
2.76228
2.76147
2.76061
2.75972
2.7588
2.75784
2.75685
2.75583
2.75478
2.75371
2.75261
2.75149
2.75034
2.74917
2.74799
2.74678
2.74555
2.7443
2.74303
2.74175
2.74044
2.73911
2.73776
2.73639
2.73499
2.73356
2.7321
2.7306
2.72907
2.65933
2.66708
2.67472
2.68225
2.68976
2.69726
2.70453
2.71157
2.71881
2.72639
2.73309
2.73978
2.74679
2.75397
2.76008
2.76624
2.77305
2.7792
2.78448
2.79061
2.79625
2.80149
2.8065
2.81167
2.8164
2.8209
2.82533
2.82953
2.83342
2.83699
2.84026
2.84323
2.84589
2.84825
2.85028
2.85197
2.8533
2.85427
2.85489
2.85519
2.85517
2.85485
2.85423
2.85334
2.85219
2.85082
2.84924
2.84747
2.84552
2.84341
2.84114
2.83877
2.83631
2.83375
2.83106
2.82827
2.82552
2.82253
2.81919
2.81589
2.81258
2.80899
2.80516
2.80172
2.79834
2.79491
2.79147
2.7881
2.78482
2.78155
2.7784
2.77552
2.77287
2.77034
2.76793
2.7657
2.76366
2.76181
2.76014
2.75862
2.75723
2.75596
2.75478
2.75368
2.75264
2.75163
2.75065
2.74967
2.74868
2.74768
2.74666
2.74561
2.74452
2.74339
2.74222
2.74101
2.73975
2.73845
2.73711
2.73574
2.73432
2.73286
2.73136
2.72983
2.72827
2.72667
2.72505
2.72339
2.7217
2.71999
2.71824
2.71647
2.71467
2.71285
2.71099
2.70911
2.70719
2.70524
2.70326
2.70124
2.69917
2.69707
2.69492
2.69272
2.69047
2.64721
2.65466
2.66197
2.66918
2.6764
2.68352
2.69042
2.69708
2.70425
2.71112
2.71748
2.72376
2.73074
2.73724
2.7429
2.74897
2.75531
2.76097
2.76586
2.77155
2.7769
2.78185
2.78673
2.79148
2.79592
2.80026
2.80443
2.80835
2.81198
2.81535
2.81845
2.82128
2.82383
2.82609
2.82806
2.82973
2.83108
2.83211
2.83282
2.83324
2.83337
2.83323
2.83282
2.83217
2.83129
2.83021
2.82895
2.8275
2.82591
2.82417
2.82229
2.82029
2.8182
2.81599
2.81364
2.81119
2.80875
2.80617
2.8033
2.80027
2.79719
2.79394
2.79024
2.78688
2.78358
2.78018
2.77672
2.77329
2.76987
2.76635
2.76306
2.75998
2.757
2.75411
2.75132
2.74868
2.74619
2.74387
2.74169
2.73966
2.73774
2.73594
2.73424
2.73261
2.73104
2.72951
2.72801
2.72652
2.72503
2.72353
2.722
2.72045
2.71886
2.71723
2.71555
2.71383
2.71206
2.71024
2.70836
2.70644
2.70447
2.70246
2.70039
2.69828
2.69613
2.69394
2.69171
2.68944
2.68713
2.68478
2.6824
2.67998
2.67752
2.67503
2.6725
2.66993
2.66732
2.66467
2.66197
2.65923
2.65644
2.65359
2.65069
2.64772
2.6447
2.63282
2.63988
2.6468
2.65365
2.66048
2.66715
2.67363
2.67996
2.68674
2.69295
2.69895
2.70484
2.71153
2.71734
2.72263
2.72831
2.73422
2.73952
2.74397
2.74911
2.75416
2.75879
2.76328
2.76763
2.77186
2.77597
2.77983
2.78345
2.78682
2.78996
2.79285
2.79551
2.79792
2.80009
2.80199
2.80361
2.80496
2.80603
2.80682
2.80734
2.80761
2.80762
2.8074
2.80696
2.80631
2.80548
2.80448
2.80331
2.802
2.80056
2.79898
2.79729
2.79548
2.79355
2.79149
2.78933
2.78714
2.78482
2.78226
2.77949
2.77662
2.77367
2.77013
2.76685
2.7636
2.76018
2.75667
2.75316
2.74951
2.7458
2.74231
2.73893
2.73558
2.73227
2.72903
2.72589
2.72286
2.71997
2.71719
2.71454
2.71199
2.70955
2.7072
2.70493
2.70271
2.70055
2.69841
2.69629
2.69418
2.69206
2.68991
2.68774
2.68554
2.68329
2.68099
2.67864
2.67623
2.67376
2.67124
2.66866
2.66603
2.66334
2.66059
2.65779
2.65493
2.65203
2.64908
2.64608
2.64304
2.63995
2.63681
2.63363
2.63041
2.62714
2.62382
2.62046
2.61705
2.61359
2.61007
2.6065
2.60286
2.59917
2.59541
2.59158
2.58768
2.609
2.61572
2.62232
2.6288
2.63521
2.64155
2.64773
2.65372
2.65972
2.66583
2.67153
2.67704
2.68256
2.68861
2.69387
2.6988
2.70382
2.70929
2.71425
2.71835
2.72279
2.72749
2.73174
2.73578
2.73973
2.74363
2.74744
2.75099
2.75428
2.75737
2.76024
2.76289
2.76533
2.76757
2.76959
2.77138
2.77293
2.77424
2.77531
2.77613
2.77671
2.77706
2.77718
2.7771
2.77682
2.77635
2.77571
2.77491
2.77396
2.77287
2.77165
2.7703
2.76884
2.76724
2.76552
2.76368
2.76174
2.75973
2.75759
2.75522
2.75262
2.74992
2.74717
2.74377
2.74054
2.73727
2.73378
2.73017
2.7265
2.72256
2.71866
2.71489
2.71113
2.70734
2.70354
2.69976
2.69605
2.69241
2.68885
2.68539
2.68203
2.67875
2.67557
2.67248
2.66945
2.66649
2.66358
2.66071
2.65785
2.65501
2.65216
2.6493
2.6464
2.64347
2.6405
2.63747
2.63439
2.63124
2.62803
2.62476
2.62142
2.61802
2.61455
2.61102
2.60744
2.60379
2.60008
2.59632
2.59251
2.58864
2.58472
2.58075
2.57673
2.57266
2.56853
2.56435
2.56012
2.55583
2.55148
2.54707
2.5426
2.53806
2.53345
2.52877
2.52402
2.51918
2.58926
2.59546
2.60154
2.60749
2.61338
2.61916
2.62478
2.63024
2.63577
2.64115
2.64634
2.65135
2.65641
2.66149
2.66635
2.6709
2.67521
2.68005
2.68459
2.68844
2.69212
2.69637
2.70019
2.70378
2.70728
2.7107
2.71416
2.71735
2.72029
2.72304
2.72561
2.72797
2.73014
2.73214
2.73396
2.73559
2.73701
2.73822
2.73922
2.74001
2.74058
2.74096
2.74114
2.74113
2.74094
2.74058
2.74006
2.7394
2.73859
2.73765
2.73659
2.7354
2.73409
2.73264
2.73105
2.72935
2.72755
2.72565
2.72361
2.72133
2.71882
2.71622
2.71357
2.71021
2.70698
2.70361
2.69997
2.69621
2.69222
2.68801
2.68386
2.67972
2.6755
2.6712
2.66684
2.66247
2.6581
2.65377
2.64949
2.64526
2.64111
2.63704
2.63304
2.62912
2.62527
2.62148
2.61775
2.61406
2.61039
2.60673
2.60308
2.59941
2.59571
2.59197
2.58819
2.58436
2.58046
2.5765
2.57247
2.56837
2.56421
2.55997
2.55566
2.55129
2.54685
2.54235
2.53779
2.53317
2.52849
2.52375
2.51895
2.5141
2.5092
2.50423
2.49922
2.49414
2.48901
2.48381
2.47855
2.47323
2.46784
2.46238
2.45684
2.45123
2.44554
2.43976
2.4339
2.42795
2.56601
2.57162
2.57709
2.58244
2.58772
2.59287
2.59786
2.60276
2.60763
2.61231
2.61688
2.62141
2.62578
2.62996
2.63434
2.6384
2.64206
2.64608
2.6502
2.65364
2.65668
2.66035
2.66369
2.66679
2.66975
2.67265
2.67564
2.67843
2.68095
2.68333
2.68553
2.68755
2.6894
2.6911
2.69265
2.69405
2.69527
2.69632
2.69718
2.69785
2.69835
2.69868
2.69883
2.69882
2.69865
2.69834
2.69787
2.69727
2.69654
2.69567
2.69469
2.69358
2.69235
2.69098
2.68947
2.68781
2.68608
2.68421
2.68219
2.67992
2.67741
2.67483
2.67214
2.66873
2.66542
2.66185
2.658
2.65398
2.6496
2.6451
2.64061
2.63601
2.63127
2.62639
2.62141
2.61638
2.61131
2.60623
2.60117
2.59614
2.59115
2.58623
2.58137
2.57659
2.57187
2.56721
2.56261
2.55805
2.55352
2.54901
2.5445
2.53998
2.53543
2.53084
2.52621
2.52152
2.51677
2.51195
2.50707
2.50211
2.49709
2.49199
2.48682
2.48158
2.47628
2.47091
2.46547
2.45998
2.45443
2.44882
2.44315
2.43742
2.43164
2.4258
2.4199
2.41394
2.40793
2.40185
2.39571
2.3895
2.38322
2.37687
2.37045
2.36395
2.35737
2.3507
2.34395
2.33711
2.53885
2.54378
2.54857
2.55325
2.55783
2.56228
2.56659
2.57083
2.57496
2.57894
2.58282
2.5867
2.59031
2.59377
2.59748
2.60089
2.60392
2.60711
2.6107
2.61356
2.61605
2.61906
2.62187
2.62441
2.62669
2.62908
2.63152
2.63385
2.63589
2.63783
2.63963
2.64124
2.6427
2.64403
2.64525
2.64635
2.6473
2.64811
2.64875
2.64925
2.6496
2.64979
2.64985
2.64976
2.64953
2.64918
2.64869
2.64808
2.64734
2.64648
2.6455
2.6444
2.64318
2.64181
2.64029
2.63863
2.63687
2.63497
2.63288
2.63053
2.62794
2.62535
2.6224
2.61891
2.6154
2.61155
2.60744
2.60302
2.59825
2.59342
2.58849
2.58336
2.57803
2.57253
2.5669
2.56116
2.55536
2.54951
2.54365
2.5378
2.53198
2.5262
2.52048
2.51483
2.50924
2.50371
2.49824
2.49281
2.48741
2.48203
2.47666
2.47127
2.46587
2.46042
2.45494
2.44939
2.44379
2.43813
2.43239
2.42659
2.42071
2.41477
2.40876
2.40268
2.39653
2.39033
2.38406
2.37773
2.37135
2.36491
2.35841
2.35186
2.34525
2.33859
2.33187
2.3251
2.31827
2.31138
2.30443
2.29741
2.29033
2.28318
2.27595
2.26865
2.26127
2.25381
2.24626
2.23863
2.50744
2.51161
2.51565
2.51958
2.5234
2.52709
2.53065
2.53413
2.53749
2.54071
2.54387
2.54696
2.54983
2.55258
2.5555
2.55815
2.56052
2.56296
2.56581
2.56798
2.56992
2.57223
2.57446
2.57639
2.57789
2.57975
2.58163
2.5834
2.58489
2.58634
2.58767
2.58884
2.58984
2.59074
2.59157
2.5923
2.59292
2.59342
2.59378
2.59402
2.59414
2.59414
2.59402
2.59378
2.59342
2.59295
2.59237
2.59167
2.59086
2.58994
2.5889
2.58773
2.58644
2.58501
2.58341
2.58168
2.57982
2.5778
2.57557
2.57306
2.57035
2.56766
2.56425
2.56067
2.55685
2.55268
2.54823
2.54333
2.53821
2.53297
2.52752
2.52181
2.51587
2.50973
2.50342
2.49699
2.49045
2.48385
2.47721
2.47056
2.46393
2.45734
2.45079
2.4443
2.43788
2.43152
2.42521
2.41894
2.41271
2.4065
2.4003
2.39409
2.38786
2.3816
2.37529
2.36893
2.36252
2.35605
2.34951
2.34291
2.33625
2.32952
2.32272
2.31587
2.30895
2.30198
2.29495
2.28787
2.28074
2.27355
2.26631
2.25902
2.25169
2.2443
2.23686
2.22937
2.22183
2.21423
2.20658
2.19887
2.19109
2.18325
2.17534
2.16736
2.15931
2.15118
2.14298
2.13469
2.12632
2.47488
2.47811
2.48122
2.48422
2.48709
2.48984
2.4925
2.49505
2.49747
2.49983
2.50209
2.50419
2.50621
2.50826
2.51013
2.5118
2.5135
2.51542
2.51691
2.51822
2.51976
2.52137
2.52258
2.52345
2.52465
2.52601
2.52702
2.52794
2.52894
2.5297
2.53035
2.53088
2.5313
2.53167
2.53199
2.53222
2.53235
2.53237
2.53229
2.53212
2.53186
2.5315
2.53104
2.53049
2.52984
2.5291
2.52825
2.5273
2.52625
2.52508
2.52379
2.52237
2.5208
2.51906
2.5172
2.51517
2.51297
2.51052
2.50781
2.50496
2.5019
2.49811
2.4943
2.49013
2.48562
2.48073
2.4754
2.46989
2.46417
2.45817
2.45188
2.44533
2.43855
2.43159
2.42448
2.41726
2.40994
2.40258
2.3952
2.38783
2.38049
2.37319
2.36594
2.35876
2.35163
2.34456
2.33753
2.33054
2.32357
2.3166
2.30963
2.30265
2.29564
2.28859
2.28149
2.27435
2.26715
2.2599
2.25259
2.24522
2.23779
2.23031
2.22278
2.21519
2.20755
2.19987
2.19214
2.18436
2.17654
2.16868
2.16077
2.15282
2.14482
2.13679
2.1287
2.12058
2.1124
2.10418
2.0959
2.08756
2.07917
2.07072
2.0622
2.05362
2.04496
2.03624
2.02744
2.01857
2.43348
2.43584
2.43809
2.44022
2.44222
2.44412
2.44592
2.44762
2.4492
2.45071
2.45212
2.45342
2.45464
2.45582
2.45689
2.45782
2.45875
2.45973
2.4605
2.46111
2.46185
2.46274
2.46323
2.46351
2.464
2.4648
2.46495
2.46531
2.46597
2.46594
2.46605
2.46613
2.46603
2.46589
2.46576
2.46556
2.46528
2.46492
2.46448
2.46397
2.46339
2.46274
2.46202
2.46122
2.46034
2.45938
2.45833
2.45719
2.45594
2.45459
2.45312
2.45152
2.44975
2.44785
2.44579
2.44354
2.44108
2.43837
2.43543
2.43239
2.4287
2.42472
2.42055
2.41601
2.41113
2.40575
2.40003
2.3941
2.38788
2.38134
2.37448
2.36736
2.36
2.35244
2.34472
2.33687
2.32893
2.32093
2.31291
2.30489
2.29689
2.28894
2.28103
2.27319
2.26539
2.25765
2.24996
2.2423
2.23466
2.22703
2.2194
2.21176
2.20409
2.1964
2.18866
2.18089
2.17307
2.16521
2.15729
2.14933
2.14132
2.13327
2.12517
2.11703
2.10885
2.10063
2.09237
2.08408
2.07575
2.06739
2.05899
2.05055
2.04208
2.03358
2.02504
2.01646
2.00785
1.99919
1.99048
1.98173
1.97292
1.96407
1.95515
1.94618
1.93715
1.92805
1.9189
1.90967
2.38891
2.39025
2.39148
2.3926
2.39361
2.39452
2.39534
2.39605
2.39669
2.39725
2.3977
2.39809
2.39843
2.39868
2.39883
2.39896
2.39908
2.39909
2.39897
2.39893
2.39899
2.39878
2.39845
2.39825
2.39834
2.39776
2.39751
2.39772
2.39692
2.39647
2.39617
2.39551
2.39482
2.3942
2.39357
2.39285
2.39207
2.39124
2.39037
2.38945
2.38848
2.38745
2.38636
2.38521
2.384
2.3827
2.38133
2.37985
2.37828
2.37658
2.37474
2.37277
2.37064
2.36833
2.36581
2.36306
2.36007
2.35689
2.35343
2.34925
2.34505
2.3405
2.33557
2.33027
2.32445
2.31836
2.312
2.30529
2.29824
2.29087
2.28324
2.27536
2.26728
2.25904
2.25066
2.24219
2.23367
2.22511
2.21656
2.20802
2.19952
2.19107
2.18268
2.17433
2.16603
2.15778
2.14956
2.14136
2.13318
2.125
2.11681
2.1086
2.10037
2.09212
2.08383
2.07551
2.06715
2.05875
2.05032
2.04185
2.03335
2.02481
2.01624
2.00764
1.99901
1.99035
1.98167
1.97296
1.96422
1.95546
1.94668
1.93786
1.92903
1.92016
1.91127
1.90234
1.89338
1.88438
1.87535
1.86627
1.85714
1.84797
1.83875
1.82947
1.82014
1.81076
1.80132
2.33794
2.33826
2.33847
2.33858
2.3386
2.33853
2.33837
2.33813
2.33782
2.33744
2.33699
2.33649
2.33592
2.33527
2.33461
2.33392
2.33315
2.3323
2.3315
2.33075
2.32985
2.32888
2.32802
2.32731
2.32604
2.32527
2.3248
2.32342
2.32236
2.32173
2.32051
2.31922
2.31813
2.31705
2.3159
2.3147
2.31347
2.31221
2.31093
2.30962
2.30827
2.30688
2.30544
2.30394
2.30238
2.30074
2.29901
2.29718
2.29522
2.29314
2.29092
2.28852
2.28593
2.28312
2.28007
2.2768
2.27334
2.26922
2.26491
2.26033
2.25539
2.25009
2.24434
2.23816
2.23171
2.22493
2.21778
2.21029
2.20249
2.19443
2.18612
2.17762
2.16895
2.16016
2.15127
2.14233
2.13336
2.12438
2.11543
2.1065
2.09762
2.08879
2.08001
2.07127
2.06257
2.05391
2.04527
2.03664
2.02802
2.0194
2.01078
2.00213
1.99347
1.98479
1.97608
1.96734
1.95858
1.9498
1.94099
1.93215
1.9233
1.91442
1.90552
1.89661
1.88767
1.87872
1.86975
1.86077
1.85177
1.84275
1.83372
1.82467
1.8156
1.80651
1.7974
1.78826
1.7791
1.7699
1.76067
1.7514
1.74209
1.73274
1.72334
1.71389
1.7044
1.69486
1.68528
1.67566
2.28153
2.28093
2.28024
2.27946
2.27859
2.27764
2.27662
2.27553
2.27437
2.27315
2.27187
2.27056
2.26918
2.26776
2.26632
2.26485
2.26334
2.26177
2.26025
2.25873
2.25714
2.25554
2.25405
2.25252
2.25065
2.24939
2.24816
2.24631
2.2446
2.24363
2.24187
2.24002
2.23848
2.23696
2.23538
2.23376
2.23214
2.23052
2.22888
2.22723
2.22555