/*--------------------------------*- C++ -*----------------------------------*\
| =========                 |                                                 |
| \\      /  F ield         | OpenFOAM: The Open Source CFD Toolbox           |
|  \\    /   O peration     | Version:  v1706                                 |
|   \\  /    A nd           | Web:      www.OpenFOAM.com                      |
|    \\/     M anipulation  |                                                 |
\*---------------------------------------------------------------------------*/
FoamFile
{
    version     2.0;
    format      ascii;
    class       volScalarField;
    location    "1.4e-05";
    object      mu;
}
// * * * * * * * * * * * * * * * * * * * * * * * * * * * * * * * * * * * * * //

dimensions      [1 -1 -1 0 0 0 0];


internalField   nonuniform List<scalar> 
29871
(
1.03539e-05
1.03539e-05
1.03539e-05
1.03539e-05
1.03538e-05
1.03538e-05
1.03538e-05
1.03537e-05
1.03537e-05
1.03536e-05
1.03536e-05
1.03535e-05
1.03534e-05
1.03534e-05
1.03533e-05
1.03532e-05
1.03532e-05
1.03531e-05
1.0353e-05
1.03529e-05
1.03529e-05
1.03528e-05
1.03527e-05
1.03527e-05
1.03526e-05
1.03525e-05
1.03525e-05
1.03524e-05
1.03523e-05
1.03523e-05
1.03522e-05
1.03522e-05
1.03521e-05
1.03521e-05
1.03521e-05
1.0352e-05
1.0352e-05
1.03519e-05
1.03519e-05
1.03519e-05
1.03519e-05
1.03519e-05
1.03518e-05
1.03518e-05
1.03518e-05
1.03518e-05
1.03518e-05
1.03518e-05
1.03518e-05
1.03518e-05
1.03518e-05
1.03518e-05
1.03518e-05
1.03518e-05
1.03518e-05
1.03518e-05
1.03518e-05
1.03518e-05
1.03518e-05
1.03518e-05
1.03519e-05
1.03519e-05
1.03519e-05
1.03519e-05
1.03519e-05
1.03519e-05
1.03519e-05
1.03519e-05
1.03519e-05
1.03519e-05
1.0352e-05
1.0352e-05
1.0352e-05
1.0352e-05
1.0352e-05
1.0352e-05
1.0352e-05
1.0352e-05
1.0352e-05
1.03521e-05
1.03521e-05
1.03521e-05
1.03521e-05
1.03521e-05
1.03521e-05
1.03521e-05
1.03522e-05
1.03522e-05
1.03522e-05
1.03522e-05
1.03522e-05
1.03522e-05
1.03522e-05
1.03523e-05
1.03523e-05
1.03523e-05
1.03523e-05
1.03523e-05
1.03523e-05
1.03523e-05
1.03523e-05
1.03524e-05
1.03524e-05
1.03524e-05
1.03524e-05
1.0368e-05
1.0368e-05
1.03679e-05
1.03677e-05
1.03676e-05
1.03674e-05
1.03671e-05
1.03669e-05
1.03666e-05
1.03663e-05
1.0366e-05
1.03656e-05
1.03653e-05
1.03649e-05
1.03645e-05
1.03641e-05
1.03637e-05
1.03633e-05
1.03629e-05
1.03625e-05
1.0362e-05
1.03616e-05
1.03612e-05
1.03608e-05
1.03604e-05
1.03601e-05
1.03597e-05
1.03593e-05
1.0359e-05
1.03587e-05
1.03584e-05
1.03581e-05
1.03578e-05
1.03576e-05
1.03573e-05
1.03571e-05
1.03569e-05
1.03567e-05
1.03566e-05
1.03564e-05
1.03563e-05
1.03562e-05
1.03561e-05
1.0356e-05
1.03559e-05
1.03559e-05
1.03559e-05
1.03558e-05
1.03558e-05
1.03558e-05
1.03558e-05
1.03558e-05
1.03559e-05
1.03559e-05
1.03559e-05
1.0356e-05
1.0356e-05
1.03561e-05
1.03561e-05
1.03562e-05
1.03562e-05
1.03563e-05
1.03563e-05
1.03564e-05
1.03565e-05
1.03565e-05
1.03566e-05
1.03567e-05
1.03568e-05
1.03568e-05
1.03569e-05
1.0357e-05
1.03571e-05
1.03571e-05
1.03572e-05
1.03573e-05
1.03574e-05
1.03575e-05
1.03576e-05
1.03576e-05
1.03577e-05
1.03578e-05
1.03579e-05
1.0358e-05
1.03581e-05
1.03582e-05
1.03583e-05
1.03584e-05
1.03585e-05
1.03586e-05
1.03587e-05
1.03588e-05
1.03589e-05
1.0359e-05
1.03591e-05
1.03592e-05
1.03593e-05
1.03594e-05
1.03595e-05
1.03596e-05
1.03597e-05
1.03598e-05
1.03599e-05
1.036e-05
1.03601e-05
1.04027e-05
1.04027e-05
1.04025e-05
1.04022e-05
1.04018e-05
1.04013e-05
1.04008e-05
1.04001e-05
1.03993e-05
1.03985e-05
1.03976e-05
1.03967e-05
1.03956e-05
1.03946e-05
1.03934e-05
1.03923e-05
1.03911e-05
1.03899e-05
1.03887e-05
1.03874e-05
1.03862e-05
1.03849e-05
1.03837e-05
1.03825e-05
1.03813e-05
1.03801e-05
1.0379e-05
1.03779e-05
1.03768e-05
1.03758e-05
1.03748e-05
1.03739e-05
1.0373e-05
1.03722e-05
1.03714e-05
1.03707e-05
1.037e-05
1.03694e-05
1.03689e-05
1.03684e-05
1.0368e-05
1.03676e-05
1.03673e-05
1.0367e-05
1.03668e-05
1.03666e-05
1.03665e-05
1.03664e-05
1.03663e-05
1.03663e-05
1.03663e-05
1.03664e-05
1.03664e-05
1.03665e-05
1.03666e-05
1.03668e-05
1.03669e-05
1.03671e-05
1.03673e-05
1.03674e-05
1.03676e-05
1.03678e-05
1.03681e-05
1.03683e-05
1.03685e-05
1.03687e-05
1.0369e-05
1.03692e-05
1.03695e-05
1.03697e-05
1.037e-05
1.03702e-05
1.03705e-05
1.03708e-05
1.0371e-05
1.03713e-05
1.03716e-05
1.03719e-05
1.03722e-05
1.03725e-05
1.03728e-05
1.03732e-05
1.03735e-05
1.03738e-05
1.03742e-05
1.03745e-05
1.03749e-05
1.03752e-05
1.03756e-05
1.0376e-05
1.03763e-05
1.03767e-05
1.03771e-05
1.03775e-05
1.03778e-05
1.03782e-05
1.03786e-05
1.0379e-05
1.03793e-05
1.03797e-05
1.03801e-05
1.03805e-05
1.03808e-05
1.03812e-05
1.03816e-05
1.0382e-05
1.04841e-05
1.04839e-05
1.04834e-05
1.04827e-05
1.04817e-05
1.04804e-05
1.0479e-05
1.04773e-05
1.04754e-05
1.04733e-05
1.0471e-05
1.04685e-05
1.04659e-05
1.04632e-05
1.04604e-05
1.04574e-05
1.04544e-05
1.04513e-05
1.04482e-05
1.04451e-05
1.04419e-05
1.04388e-05
1.04357e-05
1.04326e-05
1.04296e-05
1.04266e-05
1.04237e-05
1.0421e-05
1.04183e-05
1.04157e-05
1.04132e-05
1.04109e-05
1.04087e-05
1.04066e-05
1.04047e-05
1.04029e-05
1.04012e-05
1.03998e-05
1.03984e-05
1.03972e-05
1.03962e-05
1.03952e-05
1.03945e-05
1.03938e-05
1.03933e-05
1.03929e-05
1.03927e-05
1.03925e-05
1.03924e-05
1.03925e-05
1.03926e-05
1.03927e-05
1.0393e-05
1.03933e-05
1.03937e-05
1.03941e-05
1.03946e-05
1.03951e-05
1.03956e-05
1.03962e-05
1.03968e-05
1.03974e-05
1.03981e-05
1.03987e-05
1.03994e-05
1.04001e-05
1.04008e-05
1.04015e-05
1.04022e-05
1.0403e-05
1.04038e-05
1.04045e-05
1.04053e-05
1.04062e-05
1.0407e-05
1.04078e-05
1.04087e-05
1.04096e-05
1.04105e-05
1.04115e-05
1.04125e-05
1.04134e-05
1.04144e-05
1.04155e-05
1.04165e-05
1.04176e-05
1.04187e-05
1.04198e-05
1.04209e-05
1.04221e-05
1.04232e-05
1.04244e-05
1.04256e-05
1.04267e-05
1.04279e-05
1.04291e-05
1.04303e-05
1.04315e-05
1.04327e-05
1.0434e-05
1.04352e-05
1.04364e-05
1.04376e-05
1.04389e-05
1.04401e-05
1.04413e-05
1.06652e-05
1.06651e-05
1.06644e-05
1.06632e-05
1.06613e-05
1.06589e-05
1.06559e-05
1.06525e-05
1.06485e-05
1.0644e-05
1.06391e-05
1.06338e-05
1.06281e-05
1.06221e-05
1.06158e-05
1.06092e-05
1.06024e-05
1.05955e-05
1.05884e-05
1.05812e-05
1.05739e-05
1.05667e-05
1.05594e-05
1.05522e-05
1.05451e-05
1.05381e-05
1.05313e-05
1.05246e-05
1.05182e-05
1.0512e-05
1.05061e-05
1.05004e-05
1.0495e-05
1.049e-05
1.04853e-05
1.04809e-05
1.04769e-05
1.04732e-05
1.04699e-05
1.04669e-05
1.04642e-05
1.0462e-05
1.046e-05
1.04584e-05
1.04571e-05
1.04561e-05
1.04554e-05
1.04549e-05
1.04548e-05
1.04549e-05
1.04551e-05
1.04556e-05
1.04562e-05
1.04571e-05
1.04581e-05
1.04592e-05
1.04604e-05
1.04618e-05
1.04633e-05
1.04648e-05
1.04664e-05
1.04681e-05
1.04698e-05
1.04716e-05
1.04734e-05
1.04753e-05
1.04772e-05
1.04791e-05
1.04811e-05
1.04831e-05
1.04852e-05
1.04873e-05
1.04894e-05
1.04916e-05
1.04939e-05
1.04961e-05
1.04985e-05
1.05009e-05
1.05034e-05
1.05059e-05
1.05085e-05
1.05112e-05
1.05139e-05
1.05167e-05
1.05195e-05
1.05224e-05
1.05254e-05
1.05285e-05
1.05316e-05
1.05347e-05
1.05379e-05
1.05412e-05
1.05445e-05
1.05479e-05
1.05512e-05
1.05547e-05
1.05581e-05
1.05616e-05
1.05651e-05
1.05686e-05
1.05721e-05
1.05757e-05
1.05792e-05
1.05828e-05
1.05864e-05
1.05901e-05
1.05937e-05
1.10359e-05
1.10351e-05
1.10332e-05
1.10302e-05
1.10258e-05
1.10203e-05
1.10138e-05
1.10061e-05
1.09975e-05
1.0988e-05
1.09775e-05
1.09663e-05
1.09542e-05
1.09416e-05
1.09283e-05
1.09145e-05
1.09003e-05
1.08857e-05
1.08709e-05
1.08559e-05
1.08408e-05
1.08256e-05
1.08105e-05
1.07955e-05
1.07807e-05
1.07661e-05
1.07519e-05
1.0738e-05
1.07246e-05
1.07116e-05
1.06992e-05
1.06874e-05
1.06762e-05
1.06656e-05
1.06558e-05
1.06467e-05
1.06383e-05
1.06308e-05
1.0624e-05
1.06179e-05
1.06127e-05
1.06082e-05
1.06045e-05
1.06015e-05
1.05993e-05
1.05977e-05
1.05968e-05
1.05966e-05
1.05968e-05
1.05975e-05
1.05986e-05
1.06003e-05
1.06024e-05
1.06048e-05
1.06076e-05
1.06107e-05
1.06141e-05
1.06177e-05
1.06215e-05
1.06255e-05
1.06297e-05
1.06339e-05
1.06383e-05
1.06429e-05
1.06475e-05
1.06522e-05
1.0657e-05
1.06619e-05
1.06669e-05
1.0672e-05
1.06772e-05
1.06825e-05
1.06879e-05
1.06934e-05
1.06991e-05
1.07049e-05
1.07108e-05
1.07169e-05
1.07232e-05
1.07296e-05
1.07361e-05
1.07429e-05
1.07498e-05
1.07569e-05
1.07641e-05
1.07715e-05
1.07791e-05
1.07869e-05
1.07948e-05
1.08028e-05
1.0811e-05
1.08193e-05
1.08278e-05
1.08364e-05
1.08451e-05
1.08539e-05
1.08628e-05
1.08717e-05
1.08808e-05
1.089e-05
1.08992e-05
1.09085e-05
1.09178e-05
1.09272e-05
1.09367e-05
1.09463e-05
1.09559e-05
1.17044e-05
1.17076e-05
1.17084e-05
1.17075e-05
1.17045e-05
1.16995e-05
1.16924e-05
1.16832e-05
1.16722e-05
1.16594e-05
1.16448e-05
1.16286e-05
1.16107e-05
1.15914e-05
1.15707e-05
1.15486e-05
1.15254e-05
1.15012e-05
1.1476e-05
1.145e-05
1.14234e-05
1.13962e-05
1.13686e-05
1.13408e-05
1.13128e-05
1.12848e-05
1.1257e-05
1.12294e-05
1.12023e-05
1.11757e-05
1.11498e-05
1.11248e-05
1.11007e-05
1.10776e-05
1.10556e-05
1.10349e-05
1.10154e-05
1.09973e-05
1.09806e-05
1.09654e-05
1.09517e-05
1.09395e-05
1.09288e-05
1.09197e-05
1.09121e-05
1.09061e-05
1.09015e-05
1.08984e-05
1.08967e-05
1.08966e-05
1.08973e-05
1.0899e-05
1.09019e-05
1.09059e-05
1.09107e-05
1.09163e-05
1.09228e-05
1.09298e-05
1.09375e-05
1.09457e-05
1.09544e-05
1.09634e-05
1.09728e-05
1.09825e-05
1.09925e-05
1.10028e-05
1.10132e-05
1.10238e-05
1.10346e-05
1.10456e-05
1.10567e-05
1.1068e-05
1.10795e-05
1.10912e-05
1.11031e-05
1.11153e-05
1.11277e-05
1.11404e-05
1.11533e-05
1.11665e-05
1.11801e-05
1.11939e-05
1.12081e-05
1.12226e-05
1.12374e-05
1.12525e-05
1.1268e-05
1.12838e-05
1.13e-05
1.13165e-05
1.13333e-05
1.13505e-05
1.13679e-05
1.13856e-05
1.14037e-05
1.14219e-05
1.14405e-05
1.14592e-05
1.14782e-05
1.14974e-05
1.15167e-05
1.15363e-05
1.15559e-05
1.15757e-05
1.15957e-05
1.16157e-05
1.16359e-05
1.16562e-05
1.16765e-05
1.16971e-05
1.26817e-05
1.26813e-05
1.26785e-05
1.26729e-05
1.26647e-05
1.26544e-05
1.2641e-05
1.26251e-05
1.26068e-05
1.25863e-05
1.25637e-05
1.25389e-05
1.2512e-05
1.24832e-05
1.24526e-05
1.24204e-05
1.23865e-05
1.23513e-05
1.23148e-05
1.22772e-05
1.22387e-05
1.21993e-05
1.21593e-05
1.21187e-05
1.20778e-05
1.20368e-05
1.19957e-05
1.19549e-05
1.19144e-05
1.18745e-05
1.18354e-05
1.17973e-05
1.17603e-05
1.17247e-05
1.16908e-05
1.16586e-05
1.16285e-05
1.16005e-05
1.15749e-05
1.15518e-05
1.15312e-05
1.15134e-05
1.14982e-05
1.14857e-05
1.1476e-05
1.14689e-05
1.14643e-05
1.14627e-05
1.14634e-05
1.14657e-05
1.14701e-05
1.14766e-05
1.1485e-05
1.14949e-05
1.15064e-05
1.15192e-05
1.15332e-05
1.15482e-05
1.15641e-05
1.15808e-05
1.15981e-05
1.1616e-05
1.16343e-05
1.1653e-05
1.1672e-05
1.16914e-05
1.17109e-05
1.17307e-05
1.17507e-05
1.1771e-05
1.17915e-05
1.18122e-05
1.18332e-05
1.18545e-05
1.18762e-05
1.18982e-05
1.19205e-05
1.19433e-05
1.19665e-05
1.19901e-05
1.20142e-05
1.20388e-05
1.20638e-05
1.20893e-05
1.21153e-05
1.21417e-05
1.21686e-05
1.21959e-05
1.22236e-05
1.22517e-05
1.22803e-05
1.23091e-05
1.23383e-05
1.23678e-05
1.23976e-05
1.24276e-05
1.24577e-05
1.2488e-05
1.25185e-05
1.2549e-05
1.25795e-05
1.26101e-05
1.26407e-05
1.26713e-05
1.27018e-05
1.27324e-05
1.27629e-05
1.27934e-05
1.28239e-05
1.28543e-05
1.37181e-05
1.37088e-05
1.36973e-05
1.3684e-05
1.36691e-05
1.36509e-05
1.36306e-05
1.36084e-05
1.35844e-05
1.35588e-05
1.35314e-05
1.35024e-05
1.34717e-05
1.34394e-05
1.34054e-05
1.33698e-05
1.33328e-05
1.32944e-05
1.32545e-05
1.32134e-05
1.31712e-05
1.3128e-05
1.30841e-05
1.30395e-05
1.29943e-05
1.29488e-05
1.29032e-05
1.28578e-05
1.28129e-05
1.27685e-05
1.27251e-05
1.26828e-05
1.26419e-05
1.26025e-05
1.2565e-05
1.25295e-05
1.24962e-05
1.24655e-05
1.24375e-05
1.24124e-05
1.23906e-05
1.23723e-05
1.23576e-05
1.23464e-05
1.23388e-05
1.23352e-05
1.23354e-05
1.23384e-05
1.23443e-05
1.23535e-05
1.23656e-05
1.23802e-05
1.2397e-05
1.24159e-05
1.24365e-05
1.24585e-05
1.24819e-05
1.25063e-05
1.25315e-05
1.25574e-05
1.25838e-05
1.26106e-05
1.26378e-05
1.26652e-05
1.26928e-05
1.27206e-05
1.27484e-05
1.27762e-05
1.2804e-05
1.28318e-05
1.28595e-05
1.28872e-05
1.29149e-05
1.29426e-05
1.29704e-05
1.29983e-05
1.30264e-05
1.30546e-05
1.3083e-05
1.31116e-05
1.31404e-05
1.31695e-05
1.31989e-05
1.32285e-05
1.32582e-05
1.32879e-05
1.33175e-05
1.33471e-05
1.33766e-05
1.3406e-05
1.34351e-05
1.34641e-05
1.34929e-05
1.35214e-05
1.35496e-05
1.35775e-05
1.3605e-05
1.36322e-05
1.36589e-05
1.36851e-05
1.37109e-05
1.37362e-05
1.37609e-05
1.37851e-05
1.38086e-05
1.38315e-05
1.38538e-05
1.38754e-05
1.38963e-05
1.39165e-05
1.4275e-05
1.42548e-05
1.42337e-05
1.42136e-05
1.41937e-05
1.4172e-05
1.41491e-05
1.4126e-05
1.41027e-05
1.40787e-05
1.40544e-05
1.40301e-05
1.40055e-05
1.39806e-05
1.39556e-05
1.39307e-05
1.39053e-05
1.38797e-05
1.38541e-05
1.38282e-05
1.38021e-05
1.37754e-05
1.37483e-05
1.37207e-05
1.36927e-05
1.36645e-05
1.3636e-05
1.36071e-05
1.35779e-05
1.35486e-05
1.35194e-05
1.34907e-05
1.34629e-05
1.34362e-05
1.3411e-05
1.33878e-05
1.33669e-05
1.33486e-05
1.33333e-05
1.3321e-05
1.3312e-05
1.33063e-05
1.33047e-05
1.33059e-05
1.33103e-05
1.33175e-05
1.33274e-05
1.33411e-05
1.33565e-05
1.33742e-05
1.33943e-05
1.34162e-05
1.34395e-05
1.34637e-05
1.34886e-05
1.3514e-05
1.35396e-05
1.35652e-05
1.35906e-05
1.36156e-05
1.36403e-05
1.36643e-05
1.36875e-05
1.37099e-05
1.37313e-05
1.37519e-05
1.37717e-05
1.37907e-05
1.38091e-05
1.38268e-05
1.3844e-05
1.38608e-05
1.38771e-05
1.38931e-05
1.39087e-05
1.3924e-05
1.3939e-05
1.39537e-05
1.3968e-05
1.39821e-05
1.39959e-05
1.40094e-05
1.40226e-05
1.40354e-05
1.40481e-05
1.40605e-05
1.40728e-05
1.40848e-05
1.40967e-05
1.41084e-05
1.41198e-05
1.41311e-05
1.41422e-05
1.41531e-05
1.41638e-05
1.41743e-05
1.41846e-05
1.41947e-05
1.42046e-05
1.42142e-05
1.42235e-05
1.42326e-05
1.42414e-05
1.42499e-05
1.42581e-05
1.42659e-05
1.42735e-05
1.42807e-05
1.42876e-05
1.42943e-05
1.44775e-05
1.44534e-05
1.44305e-05
1.44095e-05
1.43872e-05
1.43638e-05
1.43412e-05
1.43187e-05
1.42955e-05
1.42725e-05
1.42499e-05
1.4227e-05
1.42044e-05
1.41827e-05
1.4161e-05
1.41395e-05
1.41188e-05
1.40986e-05
1.40788e-05
1.40597e-05
1.40414e-05
1.40235e-05
1.40062e-05
1.39896e-05
1.39737e-05
1.39588e-05
1.39451e-05
1.39326e-05
1.39214e-05
1.39116e-05
1.39031e-05
1.38959e-05
1.38898e-05
1.38851e-05
1.38815e-05
1.38793e-05
1.38789e-05
1.38797e-05
1.38823e-05
1.38868e-05
1.38933e-05
1.39022e-05
1.39131e-05
1.39248e-05
1.39393e-05
1.39547e-05
1.39715e-05
1.39897e-05
1.40081e-05
1.40265e-05
1.4045e-05
1.40633e-05
1.40811e-05
1.40982e-05
1.41144e-05
1.41298e-05
1.41442e-05
1.41577e-05
1.41702e-05
1.41816e-05
1.41921e-05
1.42018e-05
1.42108e-05
1.42191e-05
1.42269e-05
1.42341e-05
1.4241e-05
1.42475e-05
1.42536e-05
1.42594e-05
1.42649e-05
1.42701e-05
1.4275e-05
1.42796e-05
1.42839e-05
1.42879e-05
1.42917e-05
1.42953e-05
1.42987e-05
1.4302e-05
1.43051e-05
1.43081e-05
1.43109e-05
1.43137e-05
1.43164e-05
1.4319e-05
1.43216e-05
1.43242e-05
1.43267e-05
1.43293e-05
1.43319e-05
1.43346e-05
1.43374e-05
1.43402e-05
1.4343e-05
1.43459e-05
1.43489e-05
1.43521e-05
1.43552e-05
1.43585e-05
1.43618e-05
1.43651e-05
1.43685e-05
1.43719e-05
1.43753e-05
1.43787e-05
1.43821e-05
1.43854e-05
1.43887e-05
1.4392e-05
1.45683e-05
1.45442e-05
1.45197e-05
1.44958e-05
1.44723e-05
1.44484e-05
1.44254e-05
1.4403e-05
1.438e-05
1.43574e-05
1.43353e-05
1.43127e-05
1.42912e-05
1.42713e-05
1.42511e-05
1.42312e-05
1.42135e-05
1.41962e-05
1.41786e-05
1.41625e-05
1.41486e-05
1.41346e-05
1.41208e-05
1.41077e-05
1.40956e-05
1.40846e-05
1.40746e-05
1.40657e-05
1.40579e-05
1.40516e-05
1.40469e-05
1.40439e-05
1.40433e-05
1.40441e-05
1.40466e-05
1.40504e-05
1.40569e-05
1.40658e-05
1.40764e-05
1.40884e-05
1.41017e-05
1.41165e-05
1.4132e-05
1.4148e-05
1.41648e-05
1.41813e-05
1.41979e-05
1.42153e-05
1.42321e-05
1.42487e-05
1.42649e-05
1.42794e-05
1.42929e-05
1.43055e-05
1.4317e-05
1.43275e-05
1.43372e-05
1.4346e-05
1.43539e-05
1.43609e-05
1.43671e-05
1.43724e-05
1.4377e-05
1.43811e-05
1.43846e-05
1.43877e-05
1.43903e-05
1.43923e-05
1.43938e-05
1.43949e-05
1.43956e-05
1.4396e-05
1.43962e-05
1.43963e-05
1.43962e-05
1.43961e-05
1.43958e-05
1.43955e-05
1.43952e-05
1.43949e-05
1.43946e-05
1.43943e-05
1.43941e-05
1.43939e-05
1.43938e-05
1.43938e-05
1.43938e-05
1.4394e-05
1.43943e-05
1.43947e-05
1.43953e-05
1.4396e-05
1.43968e-05
1.43978e-05
1.43989e-05
1.44001e-05
1.44015e-05
1.4403e-05
1.44045e-05
1.44062e-05
1.4408e-05
1.44098e-05
1.44117e-05
1.44136e-05
1.44156e-05
1.44177e-05
1.44198e-05
1.44219e-05
1.4424e-05
1.44261e-05
1.44283e-05
1.461e-05
1.45854e-05
1.45606e-05
1.45364e-05
1.45122e-05
1.44877e-05
1.44647e-05
1.44422e-05
1.44189e-05
1.43964e-05
1.43745e-05
1.4352e-05
1.43309e-05
1.43114e-05
1.42914e-05
1.42718e-05
1.42544e-05
1.42372e-05
1.42196e-05
1.42041e-05
1.41898e-05
1.41766e-05
1.41623e-05
1.41495e-05
1.41389e-05
1.41296e-05
1.41216e-05
1.41155e-05
1.4111e-05
1.41082e-05
1.41075e-05
1.41082e-05
1.41105e-05
1.41143e-05
1.41195e-05
1.41256e-05
1.41329e-05
1.41422e-05
1.41533e-05
1.41658e-05
1.41798e-05
1.41948e-05
1.42107e-05
1.42269e-05
1.42432e-05
1.42597e-05
1.42763e-05
1.42926e-05
1.43085e-05
1.43247e-05
1.43385e-05
1.43511e-05
1.43635e-05
1.43749e-05
1.43843e-05
1.43931e-05
1.44018e-05
1.44092e-05
1.44154e-05
1.44211e-05
1.4426e-05
1.44299e-05
1.44329e-05
1.44357e-05
1.44378e-05
1.44392e-05
1.44401e-05
1.4441e-05
1.44413e-05
1.44412e-05
1.4441e-05
1.44406e-05
1.44401e-05
1.44394e-05
1.44385e-05
1.44376e-05
1.44366e-05
1.44355e-05
1.44344e-05
1.44333e-05
1.44322e-05
1.44311e-05
1.44302e-05
1.44292e-05
1.44284e-05
1.44277e-05
1.4427e-05
1.44265e-05
1.44261e-05
1.44258e-05
1.44256e-05
1.44256e-05
1.44257e-05
1.44259e-05
1.44262e-05
1.44267e-05
1.44272e-05
1.44279e-05
1.44288e-05
1.44299e-05
1.4431e-05
1.44323e-05
1.44337e-05
1.44352e-05
1.44369e-05
1.44386e-05
1.44404e-05
1.44423e-05
1.44443e-05
1.44463e-05
1.44484e-05
1.44504e-05
1.44524e-05
1.46385e-05
1.46132e-05
1.45885e-05
1.45641e-05
1.45394e-05
1.45145e-05
1.44922e-05
1.44697e-05
1.44463e-05
1.44244e-05
1.4403e-05
1.4381e-05
1.43608e-05
1.43421e-05
1.43225e-05
1.4304e-05
1.42875e-05
1.42707e-05
1.42539e-05
1.42392e-05
1.42252e-05
1.42129e-05
1.41992e-05
1.41868e-05
1.4176e-05
1.4167e-05
1.41596e-05
1.41537e-05
1.41494e-05
1.41466e-05
1.41462e-05
1.41469e-05
1.41491e-05
1.41531e-05
1.41588e-05
1.41658e-05
1.41743e-05
1.41842e-05
1.41955e-05
1.42079e-05
1.42212e-05
1.42352e-05
1.42493e-05
1.42636e-05
1.42782e-05
1.42933e-05
1.43068e-05
1.43202e-05
1.43347e-05
1.43492e-05
1.43615e-05
1.43725e-05
1.43839e-05
1.43946e-05
1.4404e-05
1.44125e-05
1.44205e-05
1.44278e-05
1.44344e-05
1.44402e-05
1.44454e-05
1.44499e-05
1.44535e-05
1.44565e-05
1.44589e-05
1.4461e-05
1.44626e-05
1.44637e-05
1.44643e-05
1.44643e-05
1.44642e-05
1.44638e-05
1.44631e-05
1.44623e-05
1.44612e-05
1.44601e-05
1.44588e-05
1.44575e-05
1.44562e-05
1.4455e-05
1.44537e-05
1.44525e-05
1.44514e-05
1.44504e-05
1.44495e-05
1.44487e-05
1.4448e-05
1.44475e-05
1.4447e-05
1.44467e-05
1.44466e-05
1.44466e-05
1.44467e-05
1.44469e-05
1.44472e-05
1.44477e-05
1.44483e-05
1.4449e-05
1.445e-05
1.4451e-05
1.44522e-05
1.44535e-05
1.4455e-05
1.44566e-05
1.44583e-05
1.44602e-05
1.44621e-05
1.44641e-05
1.44662e-05
1.44683e-05
1.44705e-05
1.44727e-05
1.44749e-05
1.47126e-05
1.46878e-05
1.46626e-05
1.46373e-05
1.46131e-05
1.45887e-05
1.45635e-05
1.45395e-05
1.45178e-05
1.44952e-05
1.44719e-05
1.4451e-05
1.44301e-05
1.44088e-05
1.43896e-05
1.43714e-05
1.43523e-05
1.43348e-05
1.43189e-05
1.43024e-05
1.42868e-05
1.42726e-05
1.42589e-05
1.42466e-05
1.42344e-05
1.4223e-05
1.42129e-05
1.42046e-05
1.41978e-05
1.41923e-05
1.41879e-05
1.41851e-05
1.41844e-05
1.41849e-05
1.41867e-05
1.41901e-05
1.4195e-05
1.42011e-05
1.42084e-05
1.42169e-05
1.42265e-05
1.42372e-05
1.42487e-05
1.42609e-05
1.42735e-05
1.42864e-05
1.42995e-05
1.43124e-05
1.43251e-05
1.4338e-05
1.43509e-05
1.43631e-05
1.43744e-05
1.4385e-05
1.43952e-05
1.44051e-05
1.44143e-05
1.44228e-05
1.44309e-05
1.44384e-05
1.44454e-05
1.44519e-05
1.44579e-05
1.44631e-05
1.44672e-05
1.44707e-05
1.44738e-05
1.44764e-05
1.44785e-05
1.44801e-05
1.44812e-05
1.44819e-05
1.44822e-05
1.44822e-05
1.4482e-05
1.44816e-05
1.4481e-05
1.44802e-05
1.44793e-05
1.44783e-05
1.44772e-05
1.44762e-05
1.44752e-05
1.44742e-05
1.44733e-05
1.44725e-05
1.44717e-05
1.44711e-05
1.44706e-05
1.44703e-05
1.447e-05
1.447e-05
1.447e-05
1.44702e-05
1.44705e-05
1.44709e-05
1.44715e-05
1.44722e-05
1.4473e-05
1.4474e-05
1.44751e-05
1.44764e-05
1.44778e-05
1.44794e-05
1.4481e-05
1.44828e-05
1.44847e-05
1.44867e-05
1.44888e-05
1.4491e-05
1.44933e-05
1.44956e-05
1.4498e-05
1.45004e-05
1.45028e-05
1.47397e-05
1.47148e-05
1.46894e-05
1.46648e-05
1.4641e-05
1.46166e-05
1.45915e-05
1.4569e-05
1.45475e-05
1.45247e-05
1.45022e-05
1.44821e-05
1.44616e-05
1.44413e-05
1.4423e-05
1.44048e-05
1.43863e-05
1.43693e-05
1.43536e-05
1.43378e-05
1.43231e-05
1.43092e-05
1.42959e-05
1.42838e-05
1.42726e-05
1.42621e-05
1.42528e-05
1.42448e-05
1.42383e-05
1.42332e-05
1.42292e-05
1.42264e-05
1.42253e-05
1.42255e-05
1.42267e-05
1.42293e-05
1.42331e-05
1.42381e-05
1.42442e-05
1.42511e-05
1.4259e-05
1.42678e-05
1.42772e-05
1.42872e-05
1.42977e-05
1.43085e-05
1.43194e-05
1.43304e-05
1.43413e-05
1.43527e-05
1.43645e-05
1.43745e-05
1.43846e-05
1.43951e-05
1.4405e-05
1.44143e-05
1.44233e-05
1.44319e-05
1.44402e-05
1.44482e-05
1.44557e-05
1.44627e-05
1.44694e-05
1.44755e-05
1.44804e-05
1.44846e-05
1.44886e-05
1.44922e-05
1.44953e-05
1.44979e-05
1.44999e-05
1.45015e-05
1.45027e-05
1.45035e-05
1.4504e-05
1.45041e-05
1.45041e-05
1.45039e-05
1.45035e-05
1.4503e-05
1.45024e-05
1.45018e-05
1.45011e-05
1.45005e-05
1.44999e-05
1.44994e-05
1.4499e-05
1.44987e-05
1.44985e-05
1.44985e-05
1.44985e-05
1.44987e-05
1.4499e-05
1.44995e-05
1.45001e-05
1.45008e-05
1.45017e-05
1.45028e-05
1.45039e-05
1.45052e-05
1.45067e-05
1.45083e-05
1.451e-05
1.45119e-05
1.45139e-05
1.4516e-05
1.45182e-05
1.45206e-05
1.45231e-05
1.45257e-05
1.45283e-05
1.45311e-05
1.45339e-05
1.45367e-05
1.45397e-05
1.45427e-05
1.49494e-05
1.49233e-05
1.48976e-05
1.48721e-05
1.48469e-05
1.48216e-05
1.47966e-05
1.4772e-05
1.4747e-05
1.47218e-05
1.46983e-05
1.46748e-05
1.46505e-05
1.46264e-05
1.4605e-05
1.45836e-05
1.45608e-05
1.45397e-05
1.45202e-05
1.44999e-05
1.44809e-05
1.44633e-05
1.4445e-05
1.4427e-05
1.44105e-05
1.43948e-05
1.43798e-05
1.43655e-05
1.43519e-05
1.43391e-05
1.43275e-05
1.43169e-05
1.4307e-05
1.42981e-05
1.42904e-05
1.4284e-05
1.42788e-05
1.42748e-05
1.42719e-05
1.42704e-05
1.42703e-05
1.42709e-05
1.42726e-05
1.42753e-05
1.4279e-05
1.42836e-05
1.4289e-05
1.42952e-05
1.43021e-05
1.43095e-05
1.43175e-05
1.43258e-05
1.43345e-05
1.43435e-05
1.43526e-05
1.43617e-05
1.43717e-05
1.43819e-05
1.43904e-05
1.43994e-05
1.44092e-05
1.44186e-05
1.44274e-05
1.4436e-05
1.44446e-05
1.44531e-05
1.44615e-05
1.44696e-05
1.44772e-05
1.44847e-05
1.44917e-05
1.44974e-05
1.45026e-05
1.45077e-05
1.45124e-05
1.45167e-05
1.45203e-05
1.45235e-05
1.45262e-05
1.45284e-05
1.45302e-05
1.45316e-05
1.45326e-05
1.45333e-05
1.45337e-05
1.4534e-05
1.4534e-05
1.45339e-05
1.45338e-05
1.45336e-05
1.45334e-05
1.45333e-05
1.45332e-05
1.45332e-05
1.45333e-05
1.45335e-05
1.45339e-05
1.45344e-05
1.45351e-05
1.45359e-05
1.45369e-05
1.4538e-05
1.45393e-05
1.45408e-05
1.45424e-05
1.45442e-05
1.4546e-05
1.45481e-05
1.45503e-05
1.45526e-05
1.4555e-05
1.45576e-05
1.45603e-05
1.45632e-05
1.45662e-05
1.45693e-05
1.45725e-05
1.45758e-05
1.45793e-05
1.45828e-05
1.45864e-05
1.45901e-05
1.45939e-05
1.49853e-05
1.49597e-05
1.49343e-05
1.49093e-05
1.48843e-05
1.48595e-05
1.48351e-05
1.48107e-05
1.47858e-05
1.47616e-05
1.47391e-05
1.47158e-05
1.46918e-05
1.46692e-05
1.46487e-05
1.46272e-05
1.46052e-05
1.45855e-05
1.45662e-05
1.45467e-05
1.45287e-05
1.45117e-05
1.44935e-05
1.4476e-05
1.446e-05
1.44447e-05
1.44299e-05
1.44159e-05
1.44028e-05
1.43905e-05
1.43792e-05
1.43688e-05
1.43593e-05
1.43506e-05
1.4343e-05
1.43365e-05
1.43311e-05
1.43268e-05
1.43235e-05
1.43213e-05
1.43203e-05
1.43204e-05
1.43212e-05
1.43229e-05
1.43254e-05
1.43286e-05
1.43325e-05
1.4337e-05
1.43421e-05
1.43477e-05
1.43537e-05
1.43601e-05
1.43668e-05
1.43739e-05
1.43811e-05
1.43887e-05
1.4397e-05
1.44057e-05
1.4413e-05
1.44209e-05
1.44299e-05
1.44387e-05
1.4447e-05
1.44553e-05
1.44638e-05
1.44724e-05
1.44811e-05
1.44898e-05
1.44982e-05
1.45065e-05
1.45143e-05
1.4521e-05
1.45273e-05
1.45336e-05
1.45396e-05
1.45452e-05
1.45501e-05
1.45545e-05
1.45584e-05
1.45617e-05
1.45645e-05
1.45669e-05
1.45689e-05
1.45705e-05
1.45719e-05
1.45729e-05
1.45737e-05
1.45744e-05
1.4575e-05
1.45755e-05
1.4576e-05
1.45765e-05
1.45771e-05
1.45777e-05
1.45785e-05
1.45794e-05
1.45805e-05
1.45817e-05
1.45831e-05
1.45847e-05
1.45865e-05
1.45884e-05
1.45906e-05
1.45929e-05
1.45953e-05
1.45979e-05
1.46007e-05
1.46036e-05
1.46067e-05
1.46099e-05
1.46132e-05
1.46167e-05
1.46203e-05
1.46241e-05
1.4628e-05
1.46321e-05
1.46362e-05
1.46406e-05
1.46451e-05
1.46497e-05
1.46544e-05
1.46593e-05
1.46642e-05
1.50276e-05
1.50026e-05
1.49778e-05
1.49533e-05
1.49288e-05
1.49047e-05
1.4881e-05
1.48571e-05
1.48326e-05
1.48099e-05
1.47879e-05
1.47651e-05
1.47418e-05
1.47209e-05
1.47009e-05
1.46796e-05
1.46591e-05
1.46405e-05
1.46215e-05
1.4603e-05
1.45856e-05
1.45691e-05
1.45513e-05
1.45347e-05
1.45191e-05
1.4504e-05
1.44895e-05
1.44759e-05
1.44632e-05
1.44512e-05
1.44401e-05
1.44299e-05
1.44204e-05
1.44118e-05
1.44041e-05
1.43974e-05
1.43917e-05
1.43869e-05
1.4383e-05
1.438e-05
1.4378e-05
1.43769e-05
1.43769e-05
1.43773e-05
1.43785e-05
1.43802e-05
1.43826e-05
1.43854e-05
1.43888e-05
1.43926e-05
1.43968e-05
1.44014e-05
1.44063e-05
1.44116e-05
1.44172e-05
1.44233e-05
1.44301e-05
1.44372e-05
1.44437e-05
1.44508e-05
1.4459e-05
1.44675e-05
1.44755e-05
1.44835e-05
1.44919e-05
1.45006e-05
1.45097e-05
1.4519e-05
1.45282e-05
1.45373e-05
1.4546e-05
1.45538e-05
1.45614e-05
1.45689e-05
1.45763e-05
1.45832e-05
1.45895e-05
1.45953e-05
1.46006e-05
1.46053e-05
1.46096e-05
1.46133e-05
1.46166e-05
1.46194e-05
1.46219e-05
1.46241e-05
1.4626e-05
1.46277e-05
1.46292e-05
1.46307e-05
1.46321e-05
1.46336e-05
1.46351e-05
1.46367e-05
1.46384e-05
1.46403e-05
1.46424e-05
1.46446e-05
1.46471e-05
1.46497e-05
1.46526e-05
1.46556e-05
1.46589e-05
1.46623e-05
1.46659e-05
1.46697e-05
1.46736e-05
1.46777e-05
1.4682e-05
1.46864e-05
1.4691e-05
1.46957e-05
1.47005e-05
1.47056e-05
1.47108e-05
1.47162e-05
1.47217e-05
1.47274e-05
1.47333e-05
1.47394e-05
1.47457e-05
1.47521e-05
1.47586e-05
1.50773e-05
1.50531e-05
1.50291e-05
1.50052e-05
1.49815e-05
1.49584e-05
1.49354e-05
1.49121e-05
1.48887e-05
1.48675e-05
1.48461e-05
1.48238e-05
1.48019e-05
1.47824e-05
1.47629e-05
1.47421e-05
1.47232e-05
1.47057e-05
1.46872e-05
1.46694e-05
1.46527e-05
1.46365e-05
1.46199e-05
1.46041e-05
1.45888e-05
1.4574e-05
1.456e-05
1.45468e-05
1.45344e-05
1.45227e-05
1.45117e-05
1.45015e-05
1.4492e-05
1.44833e-05
1.44754e-05
1.44684e-05
1.44621e-05
1.44568e-05
1.44522e-05
1.44483e-05
1.44453e-05
1.44431e-05
1.44417e-05
1.44409e-05
1.44408e-05
1.44411e-05
1.44419e-05
1.44432e-05
1.44449e-05
1.4447e-05
1.44495e-05
1.44525e-05
1.44558e-05
1.44595e-05
1.44637e-05
1.44684e-05
1.44737e-05
1.44794e-05
1.44851e-05
1.44915e-05
1.44989e-05
1.45071e-05
1.45149e-05
1.45227e-05
1.4531e-05
1.454e-05
1.45496e-05
1.45597e-05
1.45698e-05
1.45798e-05
1.45892e-05
1.45984e-05
1.46075e-05
1.46166e-05
1.46255e-05
1.46341e-05
1.46422e-05
1.46497e-05
1.46568e-05
1.46633e-05
1.46692e-05
1.46746e-05
1.46795e-05
1.46839e-05
1.46878e-05
1.46914e-05
1.46947e-05
1.46977e-05
1.47005e-05
1.47032e-05
1.47059e-05
1.47086e-05
1.47113e-05
1.47142e-05
1.47172e-05
1.47203e-05
1.47237e-05
1.47273e-05
1.47311e-05
1.47352e-05
1.47394e-05
1.47439e-05
1.47486e-05
1.47535e-05
1.47586e-05
1.47638e-05
1.47693e-05
1.47749e-05
1.47807e-05
1.47866e-05
1.47928e-05
1.47991e-05
1.48056e-05
1.48122e-05
1.48191e-05
1.48262e-05
1.48335e-05
1.4841e-05
1.48487e-05
1.48567e-05
1.48648e-05
1.48732e-05
1.48817e-05
1.48904e-05
1.48993e-05
1.51355e-05
1.51122e-05
1.50892e-05
1.50662e-05
1.50436e-05
1.50216e-05
1.49996e-05
1.49771e-05
1.49555e-05
1.49353e-05
1.49147e-05
1.48932e-05
1.48731e-05
1.48549e-05
1.48358e-05
1.48162e-05
1.47986e-05
1.47821e-05
1.47645e-05
1.47473e-05
1.47313e-05
1.47158e-05
1.47004e-05
1.46853e-05
1.46705e-05
1.46562e-05
1.46426e-05
1.46298e-05
1.46177e-05
1.46063e-05
1.45954e-05
1.45852e-05
1.45757e-05
1.45668e-05
1.45587e-05
1.45512e-05
1.45445e-05
1.45385e-05
1.45331e-05
1.45285e-05
1.45245e-05
1.45212e-05
1.45185e-05
1.45164e-05
1.45149e-05
1.45139e-05
1.45132e-05
1.45131e-05
1.45133e-05
1.45139e-05
1.45149e-05
1.45164e-05
1.45182e-05
1.45206e-05
1.45235e-05
1.45269e-05
1.45309e-05
1.45355e-05
1.45405e-05
1.45463e-05
1.4553e-05
1.45608e-05
1.45684e-05
1.4576e-05
1.45845e-05
1.45939e-05
1.46041e-05
1.4615e-05
1.46263e-05
1.46372e-05
1.46479e-05
1.46586e-05
1.46696e-05
1.46805e-05
1.46914e-05
1.4702e-05
1.47121e-05
1.47218e-05
1.47309e-05
1.47395e-05
1.47474e-05
1.47548e-05
1.47616e-05
1.47678e-05
1.47736e-05
1.47789e-05
1.47838e-05
1.47884e-05
1.47928e-05
1.47971e-05
1.48013e-05
1.48055e-05
1.48098e-05
1.48142e-05
1.48188e-05
1.48236e-05
1.48286e-05
1.48338e-05
1.48393e-05
1.48451e-05
1.48511e-05
1.48573e-05
1.48637e-05
1.48704e-05
1.48773e-05
1.48843e-05
1.48916e-05
1.48991e-05
1.49067e-05
1.49146e-05
1.49226e-05
1.49308e-05
1.49393e-05
1.4948e-05
1.49569e-05
1.4966e-05
1.49754e-05
1.4985e-05
1.49949e-05
1.50051e-05
1.50154e-05
1.50261e-05
1.50369e-05
1.5048e-05
1.50592e-05
1.52032e-05
1.51811e-05
1.51592e-05
1.51374e-05
1.51162e-05
1.50954e-05
1.50745e-05
1.50533e-05
1.50336e-05
1.50144e-05
1.49948e-05
1.49746e-05
1.49564e-05
1.49392e-05
1.4921e-05
1.49028e-05
1.48864e-05
1.4871e-05
1.48545e-05
1.48382e-05
1.4823e-05
1.48084e-05
1.47939e-05
1.47795e-05
1.47653e-05
1.47517e-05
1.47388e-05
1.47264e-05
1.47147e-05
1.47035e-05
1.46928e-05
1.46827e-05
1.46732e-05
1.46642e-05
1.46557e-05
1.46479e-05
1.46407e-05
1.46341e-05
1.46281e-05
1.46226e-05
1.46177e-05
1.46134e-05
1.46096e-05
1.46064e-05
1.46036e-05
1.46013e-05
1.45993e-05
1.45978e-05
1.45967e-05
1.45959e-05
1.45957e-05
1.45959e-05
1.45965e-05
1.45976e-05
1.45993e-05
1.46016e-05
1.46046e-05
1.46083e-05
1.46127e-05
1.4618e-05
1.46242e-05
1.46318e-05
1.46393e-05
1.46471e-05
1.46559e-05
1.4666e-05
1.46771e-05
1.46891e-05
1.47015e-05
1.47137e-05
1.47259e-05
1.47386e-05
1.47516e-05
1.47648e-05
1.47779e-05