/*--------------------------------*- C++ -*----------------------------------*\
| =========                 |                                                 |
| \\      /  F ield         | OpenFOAM: The Open Source CFD Toolbox           |
|  \\    /   O peration     | Version:  v1706                                 |
|   \\  /    A nd           | Web:      www.OpenFOAM.com                      |
|    \\/     M anipulation  |                                                 |
\*---------------------------------------------------------------------------*/
FoamFile
{
    version     2.0;
    format      ascii;
    class       volScalarField;
    location    "1.4e-05";
    object      p;
}
// * * * * * * * * * * * * * * * * * * * * * * * * * * * * * * * * * * * * * //

dimensions      [1 -1 -2 0 0 0 0];


internalField   nonuniform List<scalar> 
29871
(
21.9277
21.9276
21.9275
21.9274
21.9272
21.9271
21.9269
21.9267
21.9264
21.9262
21.9259
21.9257
21.9254
21.9251
21.9247
21.9244
21.9241
21.9238
21.9234
21.9231
21.9228
21.9225
21.9221
21.9218
21.9215
21.9212
21.9209
21.9206
21.9203
21.92
21.9198
21.9195
21.9193
21.9191
21.9189
21.9187
21.9185
21.9184
21.9183
21.9182
21.918
21.918
21.9179
21.9178
21.9178
21.9177
21.9177
21.9177
21.9177
21.9177
21.9177
21.9177
21.9177
21.9177
21.9177
21.9178
21.9178
21.9178
21.9179
21.9179
21.9179
21.918
21.918
21.9181
21.9181
21.9182
21.9182
21.9183
21.9183
21.9184
21.9184
21.9185
21.9185
21.9186
21.9186
21.9187
21.9187
21.9188
21.9189
21.9189
21.919
21.9191
21.9191
21.9192
21.9193
21.9193
21.9194
21.9195
21.9195
21.9196
21.9197
21.9197
21.9198
21.9199
21.9199
21.92
21.9201
21.9201
21.9202
21.9202
21.9203
21.9204
21.9204
21.9205
21.9206
21.9952
21.995
21.9946
21.9941
21.9934
21.9925
21.9915
21.9904
21.9891
21.9877
21.9862
21.9846
21.9829
21.9811
21.9793
21.9774
21.9754
21.9735
21.9715
21.9695
21.9675
21.9656
21.9636
21.9617
21.9599
21.958
21.9563
21.9546
21.953
21.9514
21.9499
21.9485
21.9472
21.9459
21.9447
21.9437
21.9427
21.9418
21.9409
21.9402
21.9396
21.939
21.9385
21.9381
21.9378
21.9376
21.9374
21.9373
21.9372
21.9372
21.9372
21.9373
21.9374
21.9375
21.9377
21.9379
21.9381
21.9383
21.9386
21.9389
21.9391
21.9394
21.9397
21.9401
21.9404
21.9407
21.9411
21.9414
21.9418
21.9421
21.9425
21.9429
21.9433
21.9437
21.9441
21.9445
21.9449
21.9453
21.9458
21.9462
21.9467
21.9471
21.9476
21.9481
21.9485
21.949
21.9495
21.95
21.9505
21.951
21.9515
21.952
21.9525
21.953
21.9535
21.954
21.9545
21.955
21.9555
21.956
21.9565
21.9569
21.9574
21.9579
21.9584
22.1654
22.1654
22.1648
22.1637
22.1621
22.1601
22.1576
22.1546
22.1513
22.1475
22.1434
22.1389
22.1341
22.1291
22.1238
22.1183
22.1126
22.1068
22.1008
22.0948
22.0888
22.0827
22.0767
22.0707
22.0647
22.0589
22.0532
22.0477
22.0424
22.0373
22.0324
22.0277
22.0233
22.0192
22.0153
22.0117
22.0084
22.0054
22.0027
22.0002
21.998
21.9961
21.9944
21.993
21.9918
21.9908
21.9901
21.9896
21.9893
21.9892
21.9892
21.9894
21.9897
21.9901
21.9907
21.9913
21.9921
21.9929
21.9938
21.9947
21.9957
21.9968
21.9979
21.999
22.0001
22.0013
22.0025
22.0037
22.0049
22.0062
22.0075
22.0088
22.0101
22.0115
22.0129
22.0143
22.0157
22.0172
22.0188
22.0203
22.0219
22.0236
22.0252
22.0269
22.0286
22.0304
22.0322
22.034
22.0358
22.0376
22.0395
22.0414
22.0432
22.0451
22.047
22.0489
22.0507
22.0526
22.0545
22.0564
22.0582
22.0601
22.062
22.0639
22.0657
22.0676
22.5723
22.5724
22.5713
22.5687
22.5647
22.5595
22.5531
22.5455
22.5367
22.527
22.5162
22.5045
22.492
22.4787
22.4648
22.4504
22.4355
22.4203
22.4049
22.3893
22.3736
22.358
22.3424
22.3271
22.312
22.2972
22.2828
22.2688
22.2552
22.2422
22.2297
22.2177
22.2064
22.1958
22.1858
22.1765
22.1679
22.1601
22.153
22.1467
22.1411
22.1363
22.1321
22.1287
22.1259
22.1238
22.1222
22.1212
22.1208
22.1208
22.1212
22.1219
22.1231
22.1246
22.1264
22.1284
22.1307
22.1332
22.1359
22.1388
22.1418
22.1449
22.1481
22.1515
22.1549
22.1584
22.162
22.1657
22.1695
22.1734
22.1773
22.1814
22.1855
22.1897
22.1941
22.1985
22.203
22.2077
22.2124
22.2173
22.2223
22.2274
22.2326
22.238
22.2434
22.2489
22.2545
22.2602
22.266
22.2719
22.2778
22.2838
22.2898
22.2959
22.302
22.3082
22.3143
22.3205
22.3268
22.333
22.3393
22.3456
22.352
22.3583
22.3647
22.3712
23.5211
23.5235
23.5228
23.5192
23.5121
23.5019
23.4888
23.4729
23.4542
23.4329
23.4091
23.383
23.3548
23.3247
23.2929
23.2595
23.2249
23.1892
23.1525
23.1152
23.0775
23.0395
23.0014
22.9635
22.9259
22.8889
22.8526
22.8172
22.783
22.7501
22.7185
22.6884
22.66
22.6332
22.6082
22.5849
22.5634
22.5437
22.5257
22.5096
22.4952
22.4826
22.4717
22.4625
22.455
22.4491
22.4447
22.4418
22.4406
22.4404
22.4413
22.4433
22.4463
22.4503
22.4551
22.4608
22.4671
22.474
22.4816
22.4896
22.498
22.5068
22.516
22.5254
22.535
22.5449
22.555
22.5652
22.5757
22.5864
22.5972
22.6083
22.6196
22.6312
22.6431
22.6552
22.6676
22.6803
22.6934
22.7068
22.7205
22.7346
22.749
22.7637
22.7789
22.7944
22.8102
22.8263
22.8428
22.8596
22.8767
22.894
22.9116
22.9295
22.9475
22.9657
22.9841
23.0026
23.0212
23.04
23.0588
23.0778
23.0968
23.116
23.1353
23.1547
23.1742
25.6109
25.6147
25.6116
25.6028
25.5856
25.5607
25.5291
25.4911
25.4469
25.3968
25.3411
25.2802
25.2146
25.1447
25.0712
24.9945
24.9153
24.834
24.7511
24.6672
24.5825
24.4977
24.4132
24.3295
24.2468
24.1654
24.0858
24.0081
23.9327
23.8598
23.7897
23.7227
23.659
23.5989
23.5426
23.4903
23.4423
23.3985
23.3592
23.3242
23.2936
23.2674
23.2452
23.2272
23.2134
23.2031
23.1964
23.1938
23.1937
23.1961
23.2013
23.2091
23.2192
23.2315
23.2458
23.2618
23.2794
23.2984
23.3186
23.3398
23.362
23.3851
23.4088
23.4333
23.4585
23.4843
23.5107
23.5378
23.5655
23.5939
23.6229
23.6526
23.683
23.7142
23.7462
23.7791
23.8128
23.8474
23.883
23.9196
23.9572
23.9959
24.0357
24.0765
24.1183
24.1612
24.2052
24.2501
24.2961
24.3429
24.3907
24.4393
24.4887
24.5389
24.5899
24.6415
24.6938
24.7467
24.8003
24.8544
24.9092
24.9645
25.0205
25.077
25.1342
25.192
25.2504
30.0739
30.1222
30.1545
30.1722
30.1727
30.1587
30.1298
30.0842
30.0236
29.9491
29.8612
29.7604
29.6474
29.5228
29.3873
29.2419
29.0875
28.9252
28.7557
28.5801
28.3994
28.2147
28.0275
27.8387
27.6494
27.4605
27.2731
27.0882
26.9071
26.7308
26.5602
26.396
26.239
26.0895
25.9482
25.8153
25.691
25.5754
25.4686
25.3707
25.2819
25.2024
25.1321
25.071
25.0192
24.9767
24.9437
24.9189
24.9028
24.8965
24.8963
24.9029
24.9162
24.9357
24.9609
24.9917
25.0274
25.0677
25.1122
25.1603
25.2118
25.2662
25.3234
25.383
25.4448
25.5085
25.5738
25.6407
25.709
25.7786
25.8495
25.9217
25.9952
26.0703
26.147
26.2254
26.3057
26.388
26.4723
26.5588
26.6476
26.7388
26.8324
26.9285
27.0272
27.1285
27.2325
27.3393
27.4489
27.5613
27.6766
27.7946
27.9155
28.0392
28.1656
28.2948
28.4265
28.5608
28.6975
28.8365
28.9777
29.1211
29.2664
29.4137
29.5628
29.7136
29.8662
30.0206
30.1768
30.3349
38.8338
38.9122
38.9589
38.9674
38.9468
38.9106
38.8412
38.7358
38.6009
38.4389
38.2516
38.04
37.805
37.548
37.2715
36.9778
36.6684
36.3457
36.0125
35.6711
35.323
34.9695
34.6117
34.2513
33.8905
33.5312
33.1747
32.8223
32.4748
32.1337
31.8001
31.4761
31.1632
30.8631
30.5773
30.3076
30.0556
29.8229
29.6107
29.4195
29.2497
29.1013
28.9744
28.8684
28.7829
28.7165
28.6684
28.6428
28.636
28.6404
28.6615
28.6969
28.7462
28.8086
28.883
28.9684
29.0637
29.1679
29.2802
29.3997
29.5257
29.6571
29.7932
29.9334
30.0772
30.2244
30.3751
30.5292
30.6869
30.8483
31.0135
31.1828
31.3562
31.534
31.7164
31.9037
32.096
32.2937
32.4972
32.7066
32.9224
33.1449
33.3743
33.6109
33.8549
34.1064
34.3657
34.6328
34.9079
35.1908
35.4816
35.7802
36.0865
36.4002
36.7211
37.0489
37.3834
37.7245
38.0719
38.4254
38.7851
39.1508
39.5226
39.9007
40.2853
40.6766
41.075
41.4808
41.8943
42.3158
55.5548
55.6088
55.6028
55.5574
55.4722
55.3199
55.1134
54.8565
54.555
54.217
53.8404
53.4224
52.9678
52.4791
51.9535
51.3921
50.8017
50.1853
49.5422
48.8759
48.1927
47.4995
46.8023
46.1043
45.4077
44.716
44.0346
43.3689
42.7235
42.102
41.5069
40.939
40.3989
39.8878
39.4067
38.9556
38.5343
38.1427
37.7821
37.4543
37.1623
36.9084
36.6927
36.5156
36.3789
36.2831
36.2292
36.2142
36.2324
36.2855
36.3689
36.4817
36.6224
36.7897
36.9815
37.1954
37.4294
37.6819
37.9508
38.2342
38.5312
38.8413
39.1645
39.5002
39.8475
40.2052
40.5721
40.9469
41.3289
41.7173
42.1118
42.5124
42.9194
43.3334
43.7553
44.1859
44.6261
45.0769
45.5389
46.0129
46.4993
46.9986
47.5109
48.036
48.5716
49.116
49.6691
50.2305
50.8001
51.3773
51.9614
52.552
53.1488
53.751
54.3583
54.9701
55.5857
56.2044
56.8254
57.4476
58.0702
58.6919
59.3115
59.9275
60.5386
61.1432
61.7399
62.3272
62.9038
63.4689
70.8843
70.6843
70.4026
70.1557
69.9325
69.6534
69.3067
68.9385
68.5683
68.1713
67.7542
67.3353
66.9009
66.443
65.9776
65.5099
65.0265
64.526
64.0202
63.5083
62.9816
62.433
61.8577
61.2585
60.6414
60.0086
59.3561
58.6802
57.9816
57.2639
56.5341
55.8059
55.0921
54.4008
53.7415
53.1256
52.5636
52.0625
51.6257
51.2557
50.9509
50.7074
50.5346
50.4321
50.3914
50.386
50.4374
50.5675
50.7411
50.9601
51.2349
51.5607
51.9268
52.3269
52.7587
53.2187
53.7015
54.2023
54.7184
55.2475
55.7853
56.3253
56.8609
57.3881
57.9051
58.4118
58.9094
59.3995
59.8839
60.3643
60.8425
61.3196
61.7964
62.273
62.7493
63.2249
63.6991
64.1715
64.6412
65.1079
65.5707
66.0293
66.4831
66.9322
67.3785
67.8229
68.2653
68.705
69.1412
69.574
70.0029
70.4268
70.8449
71.2571
71.6625
72.0596
72.447
72.8239
73.1898
73.5437
73.885
74.2132
74.5281
74.8295
75.1178
75.3932
75.6561
75.9076
76.1482
76.3784
79.6157
79.2613
78.913
78.6574
78.3481
77.9541
77.5669
77.1983
76.7936
76.388
75.9951
75.5639
75.1115
74.6783
74.235
73.7681
73.3067
72.8554
72.394
71.9272
71.4712
71.0256
70.595
70.178
69.7698
69.3753
69.0046
68.6658
68.3591
68.0813
67.832
67.6027
67.3819
67.1695
66.9608
66.7576
66.5633
66.3745
66.2024
66.0561
65.9497
65.9075
65.9203
65.9808
66.1142
66.2824
66.499
66.7766
67.0885
67.4269
67.7892
68.1702
68.5685
68.9739
69.3751
69.7685
70.1554
70.5353
70.9044
71.2583
71.5963
71.9238
72.2466
72.5666
72.8844
73.2004
73.5141
73.8242
74.1291
74.427
74.7157
74.9934
75.259
75.5119
75.7523
75.9808
76.198
76.4049
76.6024
76.7914
76.9725
77.1467
77.3146
77.4767
77.6336
77.7855
77.9329
78.0763
78.2165
78.3534
78.4869
78.6182
78.7483
78.8764
79.0018
79.1259
79.2505
79.3754
79.5
79.6244
79.749
79.8739
79.999
80.1241
80.2494
80.3744
80.499
80.6229
80.7454
80.8663
82.2445
81.8447
81.4275
81.0389
80.6519
80.2278
79.8476
79.5079
79.141
78.7852
78.4506
78.0744
77.7264
77.45
77.1457
76.821
76.5856
76.3573
76.0764
75.8271
75.6552
75.4639
75.254
75.0362
74.8156
74.5972
74.3874
74.1832
73.9797
73.7778
73.5884
73.4237
73.298
73.2247
73.2076
73.2197
73.2903
73.4312
73.6266
73.8544
74.1053
74.3874
74.6702
74.9441
75.2496
75.5352
75.8111
76.1175
76.3978
76.6883
76.9998
77.2823
77.546
77.8
78.0384
78.2636
78.4819
78.6924
78.893
79.0831
79.2628
79.4329
79.5978
79.7549
79.9001
80.0323
80.1486
80.2473
80.331
80.4026
80.4643
80.5182
80.5667
80.6122
80.6567
80.7009
80.7448
80.7887
80.8328
80.8772
80.922
80.9675
81.0134
81.06
81.1074
81.1556
81.2047
81.2548
81.3062
81.3585
81.4117
81.4664
81.5227
81.5795
81.636
81.6935
81.7527
81.8115
81.8689
81.9263
81.9838
82.041
82.0979
82.1548
82.2116
82.2682
82.3244
82.3802
82.4352
82.4893
82.5425
82.6302
82.2036
81.7803
81.3912
80.9861
80.543
80.1734
79.8381
79.4635
79.1151
78.7892
78.4124
78.0833
77.8313
77.537
77.2341
77.032
76.8278
76.5628
76.3581
76.2339
76.139
75.9827
75.8087
75.6954
75.6212
75.568
75.5489
75.57
75.6251
75.7106
75.8144
75.9332
76.0702
76.2275
76.3708
76.5069
76.6777
76.8882
77.1337
77.4161
77.7283
78.0599
78.4044
78.7475
79.1039
79.477
79.824
80.1486
80.5093
80.7759
81.0016
81.25
81.4814
81.6292
81.7628
81.918
82.0449
82.1352
82.2239
82.3043
82.3551
82.3866
82.4227
82.4505
82.4614
82.4661
82.4794
82.4931
82.5053
82.5183
82.5323
82.547
82.5613
82.574
82.5846
82.593
82.5996
82.605
82.6091
82.6123
82.6144
82.6156
82.6157
82.6151
82.6137
82.6119
82.6099
82.6079
82.6048
82.6008
82.5967
82.593
82.5916
82.591
82.5892
82.5885
82.5913
82.5984
82.6089
82.6208
82.6357
82.6545
82.6768
82.7022
82.7305
82.7616
82.7952
82.8305
82.8675
82.9056
82.9439
82.9819
82.656
82.2102
81.7972
81.4133
80.9866
80.5291
80.1941
79.8669
79.483
79.1536
78.841
78.4664
78.167
77.9348
77.6458
77.3744
77.1979
77.0032
76.76
76.5843
76.4726
76.4052
76.2771
76.156
76.0751
76.0278
76.0153
76.0369
76.0933
76.1815
76.3035
76.4509
76.6282
76.8409
77.0871
77.3606
77.6594
77.9826
78.3234
78.6789
79.0432
79.4028
79.7431
80.0648
80.4099
80.7998
81.0646
81.2764
81.5489
81.8705
82.1018
82.2568
82.4343
82.6119
82.7456
82.8504
82.9468
83.0325
83.1038
83.1654
83.2165
83.2554
83.2806
83.2957
83.3113
83.3298
83.3464
83.3569
83.3588
83.3529
83.3429
83.3291
83.3119
83.2925
83.2717
83.2501
83.2282
83.2064
83.1848
83.1634
83.1422
83.1212
83.1006
83.0803
83.0604
83.0411
83.0225
83.0046
82.9873
82.9707
82.9551
82.9405
82.9266
82.9152
82.9057
82.8961
82.8873
82.8834
82.8833
82.8851
82.8906
82.8993
82.9111
82.9269
82.9462
82.9685
82.994
83.0219
83.0516
83.0833
83.1169
83.1506
83.1848
83.283
82.8516
82.4025
81.9514
81.5695
81.1843
80.717
80.294
80.0056
79.6757
79.2857
78.9934
78.6975
78.3457
78.0903
77.8724
77.5961
77.3734
77.2239
77.032
76.8363
76.6955
76.5959
76.5326
76.4502
76.3693
76.3103
76.287
76.3058
76.3632
76.453
76.5719
76.7233
76.9003
77.1048
77.3401
77.604
77.8918
78.2005
78.5275
78.8705
79.229
79.5963
79.9642
80.3288
80.6923
81.0525
81.3866
81.6898
81.9922
82.2834
82.5343
82.747
82.9136
83.0578
83.1919
83.3066
83.3992
83.4759
83.5406
83.5954
83.6478
83.6995
83.7385
83.7531
83.7516
83.7486
83.7458
83.7404
83.7308
83.7165
83.6986
83.6782
83.6554
83.6317
83.6067
83.5808
83.5545
83.5282
83.5018
83.4756
83.4496
83.4237
83.3982
83.3729
83.3481
83.3236
83.2999
83.2768
83.2546
83.233
83.2125
83.1929
83.1742
83.1565
83.1409
83.1277
83.1155
83.1042
83.0973
83.0942
83.0931
83.0961
83.1038
83.115
83.1281
83.1443
83.1648
83.1889
83.2146
83.2414
83.271
83.3028
83.3341
83.3667
82.9613
82.525
82.0512
81.634
81.279
80.8762
80.3881
80.0411
79.7704
79.4207
79.0533
78.7971
78.5065
78.1989
77.9856
77.7701
77.5206
77.3321
77.1847
77.0157
76.8716
76.7577
76.663
76.601
76.5647
76.5336
76.5144
76.5224
76.565
76.6422
76.7538
76.899
77.0748
77.2763
77.5008
77.7512
78.0256
78.3204
78.6321
78.9572
79.2945
79.6416
79.9929
80.3422
80.6872
81.0288
81.3605
81.6615
81.9345
82.2386
82.5417
82.7353
82.9152
83.1164
83.284
83.418
83.533
83.6307
83.7126
83.7816
83.8374
83.8862
83.9416
83.9899
84.0092
84.0046
83.9984
83.9949
83.99
83.9805
83.966
83.9475
83.9258
83.9012
83.8746
83.8464
83.8178
83.7895
83.7612
83.7329
83.7048
83.677
83.6495
83.6224
83.5958
83.5698
83.5445
83.5199
83.496
83.4728
83.4498
83.4277
83.4068
83.387
83.3684
83.3518
83.3373
83.3245
83.3131
83.3052
83.3007
83.2982
83.2991
83.3042
83.3114
83.321
83.3341
83.3512
83.3741
83.3959
83.4175
83.4452
83.4741
83.5007
83.532
83.5644
85.9337
85.4329
84.9427
84.4693
84.0031
83.5359
83.0873
82.661
82.2054
81.7305
81.369
81.0197
80.589
80.1325
79.8446
79.5706
79.2022
78.8878
78.6493
78.3555
78.1028
77.9256
77.714
77.4893
77.3136
77.1673
77.0386
76.9303
76.8349
76.7551
76.7064
76.6928
76.699
76.7189
76.7594
76.8274
76.9261
77.056
77.2146
77.4008
77.6166
77.8554
78.1167
78.3983
78.6967
79.0083
79.33
79.6601
79.9957
80.3323
80.6657
80.9941
81.3167
81.6257
81.9034
82.162
82.4583
82.7482
82.921
83.0899
83.2898
83.4629
83.594
83.7055
83.8033
83.8882
83.962
84.0235
84.0781
84.1405
84.1964
84.2217
84.2206
84.2169
84.2156
84.2118
84.2027
84.1886
84.1706
84.1493
84.1254
84.0998
84.073
84.0453
84.0168
83.9881
83.9592
83.9308
83.9026
83.8746
83.847
83.8196
83.7927
83.7661
83.7396
83.7136
83.6882
83.6636
83.64
83.6174
83.5961
83.5762
83.5581
83.542
83.5277
83.5152
83.5053
83.4981
83.4931
83.491
83.4924
83.4964
83.5033
83.5129
83.5263
83.5446
83.5628
83.582
83.6068
83.6318
83.6564
83.6851
83.7138
85.6523
85.1525
84.6695
84.1991
83.7294
83.2701
82.8425
82.4161
81.9367
81.5061
81.181
80.8213
80.3659
79.9786
79.7261
79.4319
79.071
78.8118
78.5691
78.2899
78.0814
77.9323
77.7283
77.5207
77.3595
77.2319
77.1231
77.0307
76.9583
76.9038
76.8736
76.8745
76.9022
76.9501
77.0178
77.1086
77.2257
77.3702
77.5411
77.737
77.9574
78.2006
78.4633
78.7444
79.0405
79.3479
79.6637
79.9855
80.3101
80.6341
80.9549
81.2704
81.5779
81.8699
82.1355
82.387
82.671
82.9487
83.1163
83.2818
83.4823
83.6625
83.794
83.9032
84.0001
84.0861
84.163
84.2293
84.2894
84.3565
84.4155
84.4427
84.4449
84.4444
84.4459
84.4451
84.4394
84.428
84.4112
84.3904
84.3666
84.3403
84.3118
84.2816
84.2509
84.2202
84.1895
84.1589
84.1283
84.0979
84.0677
84.0378
84.0083
83.9792
83.9508
83.923
83.8962
83.8703
83.8454
83.8216
83.799
83.7779
83.7585
83.7409
83.725
83.7109
83.699
83.6894
83.6822
83.6778
83.6762
83.6772
83.6812
83.6879
83.6977
83.7109
83.7263
83.7438
83.7643
83.7867
83.8107
83.8363
83.8631
85.4318
84.9383
84.4638
83.9943
83.5259
83.0851
82.6725
82.2358
81.7525
81.3863
81.07
80.6895
80.2365
79.9259
79.6818
79.3584
79.0395
78.8216
78.5716
78.3167
78.1378
78.0032
77.8087
77.6248
77.4855
77.3723
77.2717
77.1935
77.1413
77.1102
77.0999
77.1145
77.1553
77.2199
77.306
77.4139
77.5449
77.6999
77.8786
78.0801
78.3031
78.5463
78.8094
79.0875
79.3792
79.6806
79.9886
80.3006
80.614
80.9261
81.2351
81.5391
81.8339
82.113
82.3722
82.6224
82.8937
83.1501
83.3254
83.4938
83.6916
83.8868
84.0272
84.1372
84.2344
84.3217
84.4016
84.4736
84.5411
84.6123
84.6715
84.7002
84.7074
84.7109
84.714
84.7131
84.7054
84.6909
84.671
84.6468
84.619
84.5885
84.5561
84.5227
84.4891
84.4552
84.4212
84.3873
84.3534
84.32
84.287
84.2546
84.223
84.1922
84.1622
84.1331
84.105
84.0778
84.0517
84.0266
84.0028
83.9804
83.9596
83.9404
83.9228
83.907
83.8932
83.8814
83.872
83.865
83.8605
83.8586
83.8595
83.8632
83.8699
83.8797
83.8922
83.9076
83.9254
83.9456
83.9679
83.9918
84.0169
85.2797
84.7963
84.3288
83.8599
83.4017
82.9827
82.5759
82.1254
81.6759
81.3551
81.0324
80.6268
80.2178
79.9618
79.7069
79.3667
79.1005
78.909
78.6649
78.428
78.2605
78.1211
77.9556
77.8045
77.6839
77.5778
77.4872
77.4221
77.3848
77.371
77.3774
77.405
77.4557
77.5299
77.6264
77.7444
77.884
78.0451
78.2275
78.4306
78.6531
78.8937
79.1512
79.4231
79.708
80.0006
80.2991
80.601
80.9036
81.2051
81.504
81.798
82.0828
82.3544
82.6131
82.8663
83.1246
83.3622
83.5522
83.7297
83.9284
84.1429
84.2971
84.4094
84.5083
84.5983
84.6819
84.7621
84.8418
84.9146
84.9668
84.993
85.0034
85.0082
85.0089
85.0035
84.9909
84.9718
84.9472
84.9181
84.8854
84.8502
84.8136
84.7761
84.7381
84.7
84.6618
84.624
84.5868
84.5503
84.5146
84.4799
84.4463
84.4137
84.3821
84.3514
84.3218
84.2931
84.2656
84.2391
84.2138
84.1897
84.1671
84.146
84.1265
84.1085
84.0924
84.0782
84.0661
84.0563
84.0489
84.0441
84.0421
84.0431
84.0471
84.0541
84.0642
84.0772
84.0928
84.1109
84.1312
84.1532
84.1766
84.2009
84.2257
85.199
84.7269
84.2643
83.7996
83.3604
82.9586
82.5503
82.0961
81.7033
81.4006
81.0653
80.6441
80.3018
80.0751
79.8046
79.4695
79.2368
79.0655
78.8388
78.6121
78.4429
78.3034
78.1702
78.0486
77.9399
77.8423
77.7643
77.711
77.6839
77.681
77.6994
77.7376
77.7962
77.8762
77.9776
78.1001
78.2432
78.4064
78.589
78.7905
79.0098
79.2456
79.4964
79.7603
80.0354
80.3186
80.6074
80.9001
81.1932
81.4856
81.7764
82.0628
82.3411
82.6096
82.8698
83.1249
83.3742
83.6046
83.8066
83.994
84.1969
84.4264
84.5958
84.7102
84.811
84.9047
84.9939
85.0845
85.174
85.2453
85.2887
85.3124
85.3251
85.3304
85.3284
85.3186
85.3012
85.2769
85.2468
85.212
85.1738
85.1333
85.0913
85.0484
85.0051
84.9619
84.9192
84.8773
84.8363
84.7966
84.758
84.7208
84.6847
84.65
84.6163
84.5838
84.5523
84.5218
84.4924
84.464
84.4367
84.4105
84.3856
84.3621
84.3399
84.3194
84.3005
84.2835
84.2686
84.2559
84.2457
84.2381
84.2334
84.2316
84.233
84.2375
84.2451
84.2556
84.269
84.2848
84.3029
84.3228
84.3442
84.3666
84.3897
85.1895
84.7277
84.2695
83.8161
83.3988
83.0067
82.5944
82.1601
81.8169
81.5143
81.1655
80.7571
80.4738
80.2547
79.9789
79.6566
79.4372
79.2835
79.0821
78.8638
78.6939
78.5623
78.4497
78.3446
78.2443
78.1587
78.0943
78.0516
78.0317
78.0351
78.0606
78.106
78.1704
78.254
78.3574
78.4806
78.6235
78.7855
78.9657
79.1635
79.3778
79.6075
79.851
80.1068
80.3729
80.6471
80.9272
81.2111
81.4966
81.7822
82.0673
82.3486
82.6234
82.8914
83.1535
83.4097
83.6563
83.8874
84.0983
84.295
84.5047
84.7464
84.9266
85.0422
85.1456
85.2445
85.3412
85.4408
85.5363
85.6052
85.6437
85.6658
85.679
85.6837
85.679
85.6649
85.6421
85.6119
85.5756
85.5345
85.4899
85.4429
85.3945
85.3453
85.2962
85.2475
85.1998
85.1534
85.1084
85.0649
85.0231
84.9827
84.9439
84.9065
84.8704
84.8355
84.8016
84.7687
84.7369
84.7059
84.676
84.6471
84.6193
84.5928
84.5677
84.5441
84.5222
84.5021
84.4842
84.4686
84.4554
84.445
84.4375
84.433
84.4317
84.4335
84.4384
84.4464
84.4571
84.4705
84.4862
84.5039
84.5231
84.5435
84.5647
85.7166
85.2473
84.7943
84.3432
83.9078
83.5093
83.1211
82.7098
82.3157
81.9995
81.6889
81.3316
80.9675
80.7192
80.4926
80.2244
79.9218
79.6979
79.5561
79.3881
79.1824
79.0134
78.8894
78.7876
78.69
78.5958
78.5204
78.4689
78.436
78.4214
78.4283
78.4574
78.5067
78.5744
78.6599
78.7635
78.8857
79.0263
79.185
79.3612
79.5541
79.7626
79.9858
80.2222
80.4703
80.7285
80.9949
81.2676
81.5447
81.8244
82.1054
82.386
82.6639
82.9383
83.2078
83.472
83.73
83.9784
84.214
84.4328
84.6382
84.8577
85.1109
85.2936
85.4104
85.5184
85.6243
85.73
85.8381
85.9352
86.0001
86.0367
86.0586
86.0711
86.0736
86.0652
86.0462
86.0175
85.9808
85.9376
85.8894
85.8377
85.7836
85.7281
85.6723
85.6168
85.5623
85.5092
85.4578
85.4083
85.3608
85.3151
85.2713
85.2292
85.1887
85.1495
85.1115
85.0746
85.0387
85.0037
84.9696
84.9364
84.9042
84.8731
84.8432
84.8147
84.7878
84.7625
84.7392
84.7181
84.6993
84.6831
84.6696
84.6591
84.6516
84.6473
84.6462
84.6483
84.6535
84.6616
84.6724
84.6856
84.7008
84.7177
84.7359
84.7549
85.822
85.3658
84.9215
84.4824
84.0677
83.6825
83.2962
82.899
82.5466
82.2392
81.9175
81.5696
81.2658
81.0189
80.7789
80.5317
80.2606
80.0239
79.8833
79.7474
79.5583
79.3895
79.271
79.176
79.0839
78.9936
78.9238
78.8825
78.858
78.8475
78.8561
78.8866
78.9376
79.0066
79.0924
79.1951
79.3151
79.4526
79.6073
79.7788
79.9664
80.1691
80.386
80.6158
80.8573
81.1088
81.3689
81.6357
81.9077
82.1834
82.4613
82.7397
83.0167
83.2909
83.5628
83.8308
84.0919
84.3446
84.5863
84.8124
85.027
85.2599
85.5227
85.6978
85.8174
85.9328
86.0477
86.1637
86.2791
86.3733
86.434
86.4704
86.4925
86.5034
86.5026
86.4895
86.4647
86.4297
86.3861
86.3357
86.28
86.2207
86.1591
86.0964
86.0336
85.9715
85.9109
85.8521
85.7955
85.7411
85.6891
85.6392
85.5913
85.5454
85.501
85.4581
85.4165
85.3759
85.3363
85.2976
85.2597
85.2228
85.1868
85.152
85.1184
85.0862
85.0555
85.0267
84.9998
84.9752
84.953
84.9333
84.9165
84.9027
84.892
84.8846
84.8804
84.8795
84.8818
84.8871
84.8952
84.9057
84.9184
84.9329
84.9486
84.9652
84.9821
84.999
85.9807
85.5372
85.1034
84.6807
84.2852
83.9088
83.5281
83.1569
82.833
82.5254
82.1979
81.8846
81.6201
81.3595
81.1145
80.8958
80.6566
80.4121
80.2678
80.1497
79.976
79.8074
79.6958
79.6089
79.5214
79.4334
79.3658
79.3312
79.3131
79.3047
79.3137
79.3448
79.3965
79.4657
79.5507
79.6516
79.7689
79.9031
80.0538
80.2208
80.4033
80.6007
80.812
81.0361
81.272
81.5182
81.7734
82.036
82.3046
82.5778
82.8541
83.132
83.4098
83.6858
83.9601
84.2326
84.4984
84.7566
85.0047
85.2377
85.4629
85.7141
85.9777
86.1382
86.2647
86.3906
86.516
86.6431
86.7622
86.851
86.9085
86.9451
86.9671
86.9757
86.9707
86.9523
86.9215
86.8799
86.8292
86.7714
86.7082
86.6413
86.5722
86.5022
86.4325
86.3639
86.297
86.2324
86.1703
86.1107
86.0537
85.9991
85.9468
85.8963
85.8476
85.8004
85.7545
85.7096
85.6658
85.6229
85.5808
85.5397
85.4996
85.4606
85.423
85.3867
85.3521
85.3194
85.2887
85.2603
85.2343
85.2111
85.1907
85.1734
85.1594
85.1486
85.1413
85.1373
85.1366
85.139
85.1443
85.1521
85.1621
85.1739
85.187
85.2009
85.2152
85.2293
86.1837
85.7529
85.3324
84.9282
84.5482
84.1797
83.8119
83.4685
83.1594
82.85
82.5335
82.2572
82.0054
81.7376
81.5025
81.3067
81.0875
80.8456
80.7027
80.5897
80.4244
80.256
80.1552
80.0821
79.995
79.9053
79.8408
79.8113
79.7967
79.788
79.7961
79.8275
79.8801
79.9494
80.0332
80.1318
80.2463
80.3772
80.5244
80.6874
80.8657
81.0586
81.2653
81.485
81.7166
81.9589
82.2106
82.4705
82.7372
83.0093
83.2855
83.5643
83.844
84.123
84.401
84.6781
84.9492
85.2137
85.4681
85.7079
85.9466
86.2191
86.4646
86.6154
86.7536
86.8917
87.0288
87.1661
87.284
87.3672
87.4227
87.4592
87.4802
87.486
87.4766
87.4527
87.4158
87.3676
87.3101
87.2452
87.1748
87.1006
87.0244
86.9475
86.871
86.7959
86.723
86.6525
86.5847
86.5198
86.4576
86.3979
86.3405
86.2852
86.2316
86.1796
86.129
86.0795
86.031
85.9834
85.9369
85.8912
85.8467
85.8033
85.7613
85.7208
85.682
85.6451
85.6103
85.5779
85.5481
85.521
85.497
85.4761
85.4587
85.4446
85.4341
85.4271
85.4234
85.4229
85.4254
85.4305
85.4378
85.4468
85.4571
85.4681
85.4795
85.4906
86.4211
86.004
85.5992
85.2129
84.8459
84.4874
84.138
83.8163
83.5147
83.2097
82.9164
82.6616
82.4123
82.1516
81.9339
81.7481
81.5368
81.31
81.1747
81.0591
80.8965
80.7304
80.6436
80.5855
80.4932
80.3986
80.3411
80.3184
80.3025
80.2916
80.2983
80.3296
80.3838
80.4542
80.537
80.6332
80.7449
80.8731
81.0174
81.1774
81.3524
81.542
81.7454
81.9619
82.1906
82.4304
82.6802
82.9388
83.2049
83.4773
83.7546
84.0353
84.3179
84.6007
84.8835
85.1653
85.4423
85.7132
85.9732
86.2206
86.4771
86.7635
86.9744
87.1305
87.2837
87.4343
87.5838
87.7272
87.84
87.9186
87.9729
88.009
88.0284
88.0309
88.0171
87.988
87.9454
87.8912
87.8273
87.7559
87.679
87.5983
87.5156
87.4323
87.3496
87.2685
87.1897
87.1135
87.0401
86.9697
86.9021
86.8371
86.7745
86.714
86.6553
86.5982
86.5426
86.4881
86.4347
86.3823
86.3309
86.2806
86.2314
86.1835
86.1369
86.092
86.0489
86.0077
85.9688
85.9324
85.8987
85.8679
85.8402
85.8159
85.7951
85.7779
85.7644
85.7544
85.7479
85.7447
85.7445
85.7468
85.7514
85.7576
85.765
85.7731
85.7813
85.7893
85.7966
86.2815
85.8934
85.5233
85.1686
84.8233
84.4931
84.1865
83.8914
83.5987
83.3277
83.0827
82.8366
82.5933
82.3904
82.2054
81.9983
81.7973
81.6672
81.5458
81.3848
81.2273
81.1545
81.102
81.0048
80.9064
80.8636
80.8451
80.8181
80.8088
80.8169
80.846
80.9018
80.9751
81.058
81.152
81.2612
81.3872
81.5297
81.6878
81.8608
82.0483
82.2498
82.4645
82.6917
82.9304
83.1796
83.4382
83.705
83.9788
84.2582
84.5418
84.8279
85.115
85.4036
85.6898
85.9728
86.2498
86.5152
86.7726
87.0494
87.3248
87.5114
87.683
87.8516
88.014
88.1751
88.3181
88.4244
88.4999
88.5537
88.5891
88.6065
88.6059
88.5881
88.5545
88.5069
88.4475
88.3783
88.3014
88.2189
88.1326
88.0444
87.9555
87.8674
87.7809
87.6966
87.6151
87.5364
87.4606
87.3877
87.3173
87.2494
87.1837
87.1198
87.0576
86.9968
86.9372
86.8789
86.8216
86.7654
86.7103
86.6565
86.6039
86.5529
86.5037
86.4563
86.411
86.3681
86.3278
86.2904
86.2561
86.2251
86.1976
86.1738
86.1537
86.1374
86.1249
86.1158
86.1101
86.1073
86.1071
86.109
86.1125
86.1171
86.1221
86.1272
86.1319
86.1358
86.5764
86.2048
85.8495
85.5077
85.1774
84.8643
84.5691
84.2829
84.0061
83.7513
83.5122
83.2741
83.0496
82.8555
82.6691
82.4709
82.2949
82.1657
82.0382
81.881
81.7405
81.6773
81.6208
81.5187
81.4253
81.404
81.3781
81.3348
81.3391
81.3503
81.368
81.4249
81.5061
81.5914
81.6832
81.7901
81.9149
82.0568
82.2142
82.3865
82.5734
82.7742
82.9885
83.2156
83.4546
83.7045
83.9643
84.2329
84.509
84.7913
85.0784
85.3684
85.6611
85.9541
86.2453
86.5342
86.8167
87.0882
87.3594
87.6514
87.891
88.0815
88.2693
88.4498
88.6234
88.7917
88.9296
89.0304
89.1045
89.1584
89.1933
89.2089
89.2056
89.1846
89.1475
89.0962
89.0328
88.9595
88.8784
88.7916
88.701
88.6083
88.515
88.4223
88.3311
88.2421
88.1557
88.0721
87.9913
87.9133
87.8379
87.7649
87.694
87.6251
87.5578
87.4921
87.4276
87.3644
87.3024
87.2415
87.1819
87.1236
87.0667
87.0115
86.9581
86.9068
86.8577
86.8112
86.7675
86.7268
86.6894
86.6555
86.6253
86.599
86.5766
86.558
86.5433
86.5322
86.5243
86.5194
86.517
86.5165
86.5174
86.5192
86.5214
86.5234
86.5249
86.5255
86.5245
86.1833
85.855
85.54
85.2411
84.9565
84.6815
84.4199
84.1765
83.9438
83.7171
83.5077
83.3188
83.1336
82.949
82.7903
82.6602
82.5278
82.3792
82.2608
82.1991
82.1324
82.0269
81.954
81.9481
81.9118
81.8573
81.8798
81.8879
81.8845
81.9452
82.0422
82.1321
82.2212
82.3263
82.4511
82.5936
82.7517
82.9246
83.1121
83.3137
83.5289
83.7571
83.9975
84.2492
84.5112
84.7824
85.0616
85.3474
85.6382
85.9333
86.2309
86.5282
86.8246
87.1182
87.4056
87.6858
87.975
88.2599
88.4744
88.6804
88.8804
89.0689
89.2527
89.4218
89.5531
89.6511
89.7258
89.7804
89.815
89.8295
89.8245
89.8014
89.7621
89.7084
89.6426
89.5667
89.4829
89.3932
89.2996
89.2038
89.1072
89.011
88.9161
88.8231
88.7326
88.6447
88.5595
88.4769
88.3969
88.3192
88.2436
88.17
88.0981
88.0277
87.9588
87.8911
87.8247
87.7596
87.6958
87.6335
87.5728
87.5138
87.4569
87.4021
87.3499
87.3003
87.2538
87.2105
87.1707
87.1347
87.1026
87.0745
87.0504
87.0303
87.014
87.0014
86.9919
86.9853
86.9811
86.9786
86.9773
86.9766
86.9761
86.9753
86.9736
86.9709
86.5179
86.2033
85.9024
85.616
85.3421
85.0793
84.8306
84.5964
84.3717
84.1569
83.9585
83.7739
83.5941
83.4233
83.275
83.1437
83.0101
82.8755
82.7757
82.7093
82.6291
82.5305
82.4891
82.4868
82.4342
82.382
82.4197
82.4204
82.395
82.4621
82.5796
82.6728
82.7589
82.8638
82.9906
83.1351
83.295
83.4696
83.6589
83.8624
84.0797
84.3101
84.5529
84.8074
85.0724
85.3468
85.6295
85.919
86.2146
86.5144
86.816
87.1183
87.419
87.716
88.0083
88.3037
88.6082
88.8607
89.0817
89.2985
89.5046
89.6995
89.8904
90.0558
90.1826
90.2806
90.3571
90.4131
90.4481
90.4624
90.4569
90.4333
90.3933
90.3388
90.2721
90.1952
90.1103
90.0193
89.9242
89.8266
89.7279
89.6293
89.5317
89.4357
89.3419
89.2505
89.1616
89.0751
88.9911
88.9094
88.8298
88.7521
88.6761
88.6017
88.5288
88.4573
88.3872
88.3185
88.2513
88.1856
88.1218
88.0599
88.0001
87.9428
87.8881
87.8364
87.7879
87.7429
87.7017
87.6644
87.6313
87.6022
87.5773
87.5564
87.5393
87.5257
87.5151
87.5071
87.5012
87.4969
87.4934
87.4904
87.4874
87.4838
87.4795
87.4741
87.4674
87.4592
86.8476
86.5462
86.2582
85.9834
85.7204
85.4693
85.2315
85.0059
84.7902
84.5862
84.3961
84.2168
84.0449
83.8854
83.7436
83.6126
83.4827
83.3633
83.2744
83.2002
83.1114
83.0342
83.0166
83.0062
82.9369
82.9037
82.9488
82.9443
82.9048
82.9789
83.112
83.2042
83.2894
83.3978
83.5284
83.6759
83.8385
84.016
84.2081
84.4145
84.6348
84.8683