/*--------------------------------*- C++ -*----------------------------------*\
| =========                 |                                                 |
| \\      /  F ield         | OpenFOAM: The Open Source CFD Toolbox           |
|  \\    /   O peration     | Version:  v1706                                 |
|   \\  /    A nd           | Web:      www.OpenFOAM.com                      |
|    \\/     M anipulation  |                                                 |
\*---------------------------------------------------------------------------*/
FoamFile
{
    version     2.0;
    format      ascii;
    class       volScalarField;
    location    "1.4e-05";
    object      Tov;
}
// * * * * * * * * * * * * * * * * * * * * * * * * * * * * * * * * * * * * * //

dimensions      [0 0 0 1 0 0 0];


internalField   nonuniform List<scalar> 
29871
(
144.455
144.455
144.455
144.454
144.454
144.453
144.452
144.451
144.45
144.449
144.448
144.447
144.446
144.445
144.443
144.442
144.441
144.439
144.438
144.437
144.435
144.434
144.433
144.431
144.43
144.429
144.428
144.426
144.425
144.424
144.423
144.422
144.421
144.421
144.42
144.419
144.418
144.418
144.417
144.417
144.416
144.416
144.416
144.416
144.415
144.415
144.415
144.415
144.415
144.415
144.415
144.415
144.415
144.415
144.415
144.415
144.415
144.416
144.416
144.416
144.416
144.416
144.416
144.417
144.417
144.417
144.417
144.417
144.417
144.418
144.418
144.418
144.418
144.419
144.419
144.419
144.419
144.419
144.42
144.42
144.42
144.42
144.421
144.421
144.421
144.421
144.422
144.422
144.422
144.423
144.423
144.423
144.423
144.424
144.424
144.424
144.424
144.425
144.425
144.425
144.425
144.426
144.426
144.426
144.426
144.721
144.72
144.718
144.715
144.712
144.708
144.704
144.699
144.694
144.688
144.682
144.676
144.669
144.662
144.655
144.647
144.639
144.632
144.624
144.616
144.608
144.6
144.593
144.585
144.578
144.571
144.564
144.557
144.551
144.545
144.539
144.534
144.528
144.524
144.519
144.515
144.511
144.508
144.505
144.502
144.5
144.497
144.496
144.494
144.493
144.492
144.491
144.491
144.491
144.491
144.491
144.491
144.491
144.492
144.493
144.493
144.494
144.495
144.496
144.497
144.498
144.499
144.501
144.502
144.503
144.504
144.506
144.507
144.508
144.51
144.511
144.513
144.514
144.515
144.517
144.519
144.52
144.522
144.523
144.525
144.527
144.529
144.53
144.532
144.534
144.536
144.538
144.54
144.541
144.543
144.545
144.547
144.549
144.551
144.553
144.555
144.557
144.558
144.56
144.562
144.564
144.566
144.568
144.57
144.571
145.375
145.374
145.37
145.365
145.358
145.349
145.338
145.326
145.311
145.296
145.279
145.261
145.242
145.221
145.2
145.179
145.156
145.133
145.11
145.087
145.063
145.04
145.017
144.994
144.971
144.949
144.927
144.906
144.886
144.867
144.849
144.831
144.814
144.799
144.784
144.771
144.759
144.747
144.737
144.728
144.72
144.713
144.707
144.701
144.697
144.694
144.691
144.69
144.689
144.688
144.689
144.689
144.69
144.692
144.694
144.697
144.7
144.703
144.706
144.71
144.713
144.717
144.721
144.725
144.73
144.734
144.739
144.743
144.748
144.752
144.757
144.762
144.767
144.772
144.777
144.783
144.788
144.794
144.8
144.805
144.811
144.818
144.824
144.83
144.837
144.843
144.85
144.857
144.863
144.87
144.877
144.884
144.891
144.898
144.906
144.913
144.92
144.927
144.934
144.941
144.948
144.955
144.962
144.969
144.976
144.983
146.912
146.908
146.899
146.886
146.867
146.844
146.816
146.784
146.748
146.708
146.665
146.619
146.57
146.518
146.465
146.409
146.352
146.294
146.235
146.176
146.116
146.057
145.998
145.94
145.883
145.827
145.773
145.72
145.669
145.62
145.574
145.53
145.488
145.449
145.412
145.379
145.348
145.319
145.294
145.271
145.251
145.234
145.22
145.207
145.198
145.19
145.185
145.182
145.181
145.182
145.183
145.187
145.191
145.197
145.204
145.212
145.221
145.231
145.241
145.252
145.263
145.275
145.287
145.299
145.312
145.325
145.338
145.352
145.366
145.38
145.394
145.409
145.424
145.439
145.455
145.471
145.488
145.505
145.522
145.54
145.558
145.577
145.596
145.615
145.635
145.655
145.676
145.697
145.718
145.74
145.761
145.783
145.806
145.828
145.85
145.873
145.896
145.919
145.941
145.964
145.987
146.01
146.034
146.057
146.08
146.103
150.349
150.347
150.335
150.312
150.277
150.231
150.174
150.108
150.032
149.948
149.855
149.754
149.646
149.531
149.412
149.287
149.158
149.026
148.891
148.755
148.617
148.479
148.342
148.205
148.07
147.938
147.808
147.682
147.56
147.443
147.33
147.223
147.121
147.026
146.937
146.854
146.777
146.708
146.644
146.588
146.538
146.494
146.457
146.427
146.402
146.383
146.369
146.361
146.359
146.36
146.364
146.373
146.385
146.401
146.42
146.441
146.464
146.49
146.518
146.547
146.577
146.609
146.642
146.676
146.71
146.745
146.781
146.818
146.855
146.894
146.932
146.972
147.013
147.054
147.096
147.14
147.184
147.23
147.276
147.324
147.373
147.424
147.475
147.528
147.582
147.638
147.694
147.752
147.81
147.87
147.931
147.993
148.056
148.119
148.183
148.248
148.313
148.379
148.445
148.512
148.579
148.647
148.714
148.782
148.851
148.92
148.989
157.448
157.435
157.398
157.34
157.256
157.151
157.025
156.879
156.713
156.53
156.329
156.113
155.882
155.639
155.384
155.119
154.847
154.568
154.284
153.996
153.706
153.416
153.127
152.84
152.557
152.279
152.007
151.742
151.485
151.238
151.002
150.776
150.562
150.362
150.174
150
149.841
149.697
149.567
149.452
149.353
149.267
149.196
149.14
149.097
149.067
149.049
149.045
149.049
149.061
149.084
149.115
149.154
149.201
149.254
149.313
149.377
149.445
149.517
149.593
149.672
149.753
149.837
149.923
150.011
150.1
150.192
150.285
150.38
150.477
150.576
150.677
150.78
150.885
150.993
151.104
151.217
151.333
151.452
151.574
151.699
151.828
151.96
152.095
152.233
152.375
152.52
152.668
152.819
152.973
153.129
153.289
153.45
153.615
153.781
153.949
154.12
154.292
154.466
154.641
154.818
154.996
155.175
155.356
155.539
155.722
155.907
170.464
170.529
170.546
170.527
170.469
170.372
170.233
170.054
169.837
169.586
169.301
168.982
168.633
168.254
167.848
167.417
166.964
166.49
165.998
165.491
164.971
164.441
163.904
163.362
162.818
162.274
161.734
161.199
160.673
160.159
159.658
159.173
158.707
158.261
157.837
157.437
157.062
156.713
156.391
156.098
155.833
155.598
155.393
155.217
155.071
154.955
154.867
154.808
154.774
154.771
154.784
154.817
154.873
154.948
155.04
155.148
155.271
155.407
155.554
155.711
155.877
156.051
156.232
156.419
156.611
156.808
157.008
157.213
157.421
157.632
157.846
158.065
158.286
158.512
158.742
158.977
159.216
159.461
159.711
159.967
160.229
160.497
160.771
161.052
161.339
161.633
161.933
162.24
162.554
162.875
163.202
163.535
163.875
164.22
164.571
164.928
165.289
165.655
166.026
166.401
166.779
167.161
167.546
167.934
168.325
168.718
169.114
169.512
169.913
170.316
189.973
189.966
189.911
189.798
189.634
189.425
189.157
188.836
188.468
188.055
187.598
187.099
186.559
185.98
185.365
184.716
184.038
183.331
182.6
181.848
181.078
180.292
179.493
178.685
177.871
177.054
176.239
175.429
174.627
173.838
173.064
172.31
171.581
170.88
170.211
169.579
168.986
168.436
167.933
167.479
167.076
166.725
166.428
166.183
165.992
165.852
165.762
165.729
165.743
165.786
165.873
165.999
166.161
166.356
166.58
166.83
167.103
167.396
167.707
168.033
168.373
168.723
169.083
169.45
169.824
170.204
170.588
170.978
171.372
171.771
172.175
172.584
172.999
173.42
173.848
174.282
174.725
175.176
175.635
176.104
176.582
177.07
177.568
178.075
178.592
179.119
179.654
180.199
180.753
181.315
181.885
182.463
183.048
183.64
184.237
184.839
185.446
186.056
186.668
187.283
187.9
188.517
189.135
189.754
190.373
190.992
191.611
192.23
192.849
193.469
211.258
211.068
210.829
210.553
210.244
209.868
209.447
208.986
208.489
207.958
207.393
206.791
206.157
205.49
204.788
204.054
203.291
202.501
201.682
200.838
199.971
199.086
198.186
197.273
196.35
195.422
194.493
193.569
192.654
191.754
190.873
190.015
189.186
188.39
187.631
186.914
186.244
185.624
185.059
184.555
184.116
183.747
183.45
183.224
183.071
182.996
183
183.059
183.176
183.36
183.601
183.893
184.23
184.607
185.021
185.464
185.933
186.424
186.932
187.454
187.986
188.528
189.077
189.632
190.191
190.753
191.317
191.881
192.446
193.01
193.574
194.138
194.703
195.268
195.835
196.404
196.977
197.553
198.134
198.72
199.312
199.908
200.511
201.119
201.73
202.341
202.951
203.561
204.17
204.776
205.379
205.979
206.574
207.165
207.75
208.328
208.9
209.463
210.019
210.565
211.102
211.628
212.144
212.648
213.14
213.619
214.084
214.536
214.974
215.397
222.948
222.523
222.077
221.654
221.235
220.78
220.298
219.811
219.321
218.818
218.307
217.798
217.283
216.76
216.237
215.714
215.184
214.649
214.112
213.573
213.027
212.472
211.905
211.33
210.748
210.161
209.568
208.968
208.362
207.755
207.15
206.555
205.978
205.425
204.904
204.423
203.991
203.613
203.295
203.041
202.854
202.736
202.701
202.725
202.812
202.962
203.162
203.445
203.762
204.125
204.539
204.991
205.471
205.971
206.486
207.012
207.542
208.072
208.599
209.12
209.632
210.131
210.615
211.081
211.528
211.958
212.371
212.768
213.151
213.522
213.882
214.233
214.574
214.909
215.236
215.556
215.87
216.178
216.479
216.774
217.064
217.347
217.624
217.894
218.16
218.422
218.679
218.933
219.182
219.427
219.669
219.906
220.14
220.37
220.596
220.817
221.035
221.247
221.455
221.658
221.855
222.047
222.232
222.412
222.585
222.751
222.911
223.064
223.21
223.35
227.239
226.727
226.241
225.797
225.325
224.831
224.351
223.876
223.386
222.902
222.425
221.941
221.465
221.007
220.551
220.099
219.663
219.238
218.822
218.421
218.036
217.661
217.298
216.949
216.616
216.303
216.014
215.753
215.519
215.312
215.133
214.982
214.855
214.755
214.679
214.633
214.623
214.64
214.692
214.785
214.921
215.105
215.332
215.578
215.879
216.201
216.553
216.933
217.319
217.707
218.094
218.477
218.852
219.212
219.554
219.877
220.181
220.465
220.729
220.971
221.192
221.396
221.586
221.762
221.926
222.079
222.224
222.361
222.491
222.613
222.73
222.839
222.942
223.04
223.131
223.216
223.297
223.373
223.446
223.515
223.58
223.643
223.704
223.762
223.819
223.875
223.93
223.984
224.039
224.094
224.149
224.205
224.263
224.323
224.383
224.445
224.508
224.574
224.642
224.71
224.78
224.851
224.922
224.994
225.066
225.138
225.21
225.281
225.35
225.419
229.169
228.658
228.136
227.629
227.13
226.623
226.135
225.661
225.175
224.696
224.229
223.753
223.297
222.877
222.452
222.03
221.657
221.292
220.921
220.582
220.289
219.995
219.704
219.429
219.175
218.943
218.732
218.543
218.38
218.246
218.147
218.083
218.07
218.087
218.138
218.219
218.353
218.539
218.761
219.012
219.292
219.602
219.929
220.264
220.618
220.965
221.313
221.681
222.034
222.385
222.727
223.035
223.32
223.586
223.829
224.051
224.257
224.443
224.61
224.759
224.89
225.003
225.101
225.187
225.263
225.328
225.383
225.425
225.458
225.481
225.496
225.506
225.51
225.511
225.51
225.507
225.502
225.496
225.489
225.482
225.476
225.47
225.465
225.461
225.459
225.458
225.46
225.464
225.47
225.479
225.49
225.505
225.523
225.544
225.567
225.593
225.622
225.653
225.686
225.722
225.759
225.797
225.837
225.879
225.921
225.965
226.009
226.054
226.099
226.144
226.189
230.057
229.533
229.006
228.492
227.977
227.457
226.968
226.492
225.999
225.522
225.058
224.584
224.136
223.724
223.302
222.887
222.519
222.157
221.785
221.458
221.157
220.878
220.579
220.308
220.084
219.887
219.72
219.59
219.495
219.435
219.421
219.435
219.482
219.561
219.67
219.798
219.951
220.145
220.378
220.642
220.935
221.252
221.586
221.929
222.271
222.62
222.97
223.314
223.65
223.993
224.285
224.552
224.815
225.056
225.256
225.442
225.625
225.782
225.914
226.035
226.139
226.222
226.287
226.345
226.39
226.421
226.441
226.458
226.465
226.464
226.46
226.452
226.44
226.425
226.408
226.388
226.366
226.343
226.319
226.296
226.273
226.251
226.23
226.211
226.193
226.177
226.164
226.153
226.144
226.138
226.134
226.133
226.135
226.139
226.146
226.155
226.167
226.183
226.201
226.223
226.247
226.274
226.304
226.336
226.371
226.408
226.447
226.487
226.529
226.571
226.614
226.658
226.701
230.663
230.126
229.599
229.081
228.555
228.027
227.552
227.077
226.58
226.116
225.663
225.195
224.768
224.373
223.959
223.567
223.217
222.865
222.509
222.199
221.903
221.643
221.356
221.093
220.864
220.674
220.517
220.394
220.302
220.243
220.233
220.248
220.294
220.378
220.496
220.644
220.822
221.031
221.267
221.529
221.81
222.103
222.402
222.703
223.01
223.33
223.616
223.898
224.205
224.512
224.773
225.005
225.245
225.472
225.672
225.853
226.023
226.178
226.317
226.441
226.551
226.646
226.723
226.786
226.839
226.883
226.917
226.941
226.952
226.954
226.951
226.943
226.929
226.911
226.889
226.864
226.838
226.81
226.783
226.756
226.729
226.704
226.681
226.659
226.639
226.622
226.608
226.596
226.587
226.581
226.577
226.577
226.579
226.583
226.591
226.601
226.613
226.629
226.649
226.671
226.696
226.724
226.755
226.789
226.826
226.865
226.906
226.948
226.992
227.038
227.084
227.131
227.177
232.243
231.713
231.177
230.638
230.122
229.603
229.068
228.557
228.097
227.618
227.123
226.678
226.236
225.784
225.378
224.991
224.587
224.218
223.882
223.533
223.203
222.903
222.614
222.353
222.096
221.855
221.643
221.466
221.323
221.205
221.114
221.053
221.038
221.048
221.086
221.157
221.259
221.388
221.542
221.72
221.922
222.147
222.39
222.647
222.913
223.186
223.461
223.734
224.002
224.273
224.548
224.806
225.046
225.27
225.486
225.695
225.89
226.071
226.242
226.403
226.55
226.687
226.815
226.925
227.013
227.087
227.153
227.209
227.254
227.288
227.311
227.326
227.333
227.333
227.329
227.321
227.307
227.29
227.271
227.25
227.228
227.206
227.184
227.163
227.144
227.126
227.111
227.098
227.087
227.08
227.075
227.073
227.074
227.078
227.084
227.093
227.105
227.12
227.138
227.158
227.182
227.209
227.239
227.271
227.307
227.344
227.384
227.427
227.472
227.518
227.566
227.615
227.666
227.717
227.769
232.821
232.29
231.748
231.223
230.717
230.198
229.664
229.183
228.727
228.243
227.764
227.338
226.903
226.473
226.084
225.698
225.307
224.948
224.614
224.279
223.969
223.675
223.393
223.138
222.901
222.68
222.482
222.314
222.177
222.067
221.984
221.925
221.899
221.904
221.929
221.982
222.063
222.168
222.295
222.442
222.608
222.792
222.992
223.203
223.424
223.651
223.883
224.115
224.344
224.586
224.835
225.048
225.26
225.484
225.693
225.89
226.081
226.264
226.44
226.61
226.769
226.917
227.06
227.19
227.293
227.383
227.468
227.545
227.61
227.665
227.708
227.742
227.767
227.784
227.794
227.798
227.797
227.792
227.785
227.774
227.761
227.748
227.734
227.721
227.709
227.698
227.689
227.683
227.679
227.677
227.678
227.682
227.688
227.698
227.711
227.727
227.746
227.768
227.793
227.82
227.851
227.885
227.922
227.961
228.003
228.048
228.096
228.146
228.2
228.254
228.309
228.368
228.428
228.488
228.55
228.614
237.307
236.75
236.197
235.652
235.111
234.571
234.036
233.51
232.978
232.438
231.938
231.437
230.92
230.405
229.948
229.493
229.009
228.559
228.146
227.715
227.312
226.938
226.55
226.169
225.817
225.486
225.168
224.865
224.577
224.307
224.061
223.835
223.627
223.438
223.275
223.139
223.03
222.945
222.884
222.85
222.849
222.862
222.896
222.953
223.031
223.128
223.242
223.372
223.517
223.674
223.842
224.019
224.203
224.392
224.583
224.778
224.987
225.204
225.385
225.575
225.783
225.981
226.167
226.35
226.532
226.712
226.89
227.062
227.224
227.383
227.531
227.654
227.764
227.871
227.972
228.063
228.141
228.208
228.265
228.312
228.35
228.38
228.402
228.417
228.426
228.431
228.431
228.43
228.427
228.423
228.419
228.416
228.414
228.414
228.416
228.421
228.429
228.44
228.454
228.471
228.492
228.516
228.544
228.575
228.609
228.646
228.686
228.729
228.776
228.825
228.877
228.931
228.989
229.049
229.113
229.179
229.247
229.318
229.391
229.466
229.543
229.622
229.703
238.079
237.528
236.985
236.447
235.912
235.38
234.858
234.338
233.806
233.288
232.806
232.31
231.798
231.316
230.878
230.422
229.953
229.532
229.123
228.708
228.325
227.964
227.578
227.207
226.866
226.541
226.227
225.931
225.653
225.393
225.153
224.933
224.731
224.548
224.386
224.248
224.134
224.043
223.973
223.926
223.905
223.907
223.924
223.959
224.011
224.079
224.161
224.256
224.363
224.481
224.608
224.743
224.886
225.034
225.188
225.348
225.523
225.709
225.863
226.031
226.221
226.407
226.583
226.758
226.938
227.12
227.306
227.49
227.668
227.844
228.01
228.153
228.287
228.42
228.548
228.666
228.772
228.866
228.947
229.018
229.079
229.13
229.172
229.207
229.235
229.257
229.275
229.29
229.302
229.312
229.323
229.333
229.345
229.359
229.376
229.395
229.418
229.444
229.474
229.508
229.545
229.586
229.631
229.68
229.732
229.788
229.846
229.908
229.973
230.041
230.112
230.186
230.263
230.343
230.426
230.513
230.602
230.694
230.789
230.887
230.988
231.091
231.197
238.987
238.449
237.918
237.391
236.865
236.349
235.841
235.329
234.804
234.319
233.85
233.362
232.864
232.417
231.991
231.537
231.098
230.703
230.298
229.904
229.534
229.183
228.805
228.451
228.119
227.799
227.49
227.202
226.932
226.679
226.443
226.225
226.025
225.843
225.68
225.537
225.415
225.313
225.23
225.167
225.124
225.101
225.1
225.109
225.133
225.17
225.22
225.28
225.351
225.431
225.52
225.617
225.722
225.833
225.953
226.082
226.224
226.376
226.512
226.663
226.836
227.017
227.186
227.356
227.533
227.719
227.913
228.11
228.305
228.499
228.682
228.849
229.01
229.171
229.327
229.473
229.608
229.732
229.844
229.945
230.035
230.115
230.184
230.245
230.298
230.345
230.385
230.421
230.454
230.485
230.516
230.546
230.578
230.612
230.649
230.689
230.733
230.781
230.833
230.889
230.95
231.015
231.084
231.157
231.234
231.314
231.398
231.485
231.575
231.669
231.766
231.867
231.97
232.078
232.189
232.303
232.421
232.543
232.669
232.799
232.932
233.068
233.208
240.056
239.534
239.018
238.505
237.996
237.5
237.007
236.507
236.006
235.551
235.092
234.616
234.148
233.73
233.312
232.87
232.465
232.092
231.697
231.318
230.961
230.617
230.263
229.926
229.602
229.286
228.987
228.706
228.442
228.194
227.961
227.743
227.542
227.358
227.19
227.04
226.907
226.793
226.695
226.614
226.55
226.503
226.472
226.455
226.454
226.46
226.476
226.503
226.539
226.583
226.637
226.699
226.769
226.848
226.937
227.037
227.149
227.269
227.391
227.527
227.683
227.857
228.021
228.187
228.364
228.555
228.759
228.972
229.188
229.4
229.601
229.795
229.989
230.183
230.373
230.555
230.727
230.889
231.039
231.177
231.304
231.419
231.523
231.616
231.701
231.778
231.847
231.912
231.972
232.029
232.086
232.143
232.201
232.262
232.326
232.393
232.465
232.542
232.623
232.709
232.8
232.895
232.995
233.099
233.208
233.32
233.436
233.556
233.679
233.807
233.937
234.072
234.21
234.353
234.5
234.651
234.807
234.968
235.133
235.302
235.476
235.655
235.837
236.024
236.214
241.307
240.806
240.309
239.815
239.33
238.856
238.383
237.899
237.435
237.003
236.56
236.1
235.67
235.278
234.871
234.451
234.074
233.722
233.345
232.979
232.636
232.305
231.977
231.655
231.338
231.034
230.745
230.472
230.214
229.97
229.739
229.522
229.319
229.13
228.957
228.798
228.655
228.526
228.413
228.314
228.229
228.158
228.101
228.057
228.025
228.003
227.989
227.986
227.99
228.002
228.024
228.055
228.094
228.144
228.205
228.277
228.363
228.459
228.566
228.688
228.83
228.996
229.157
229.319
229.5
229.699
229.917
230.148
230.388
230.62
230.847
231.076
231.309
231.543
231.774
232
232.216
232.422
232.617
232.8
232.97
233.127
233.273
233.406
233.529
233.642
233.747
233.846
233.94
234.031
234.12
234.21
234.302
234.396
234.494
234.596
234.703
234.815
234.933
235.055
235.183
235.316
235.454
235.596
235.743
235.895
236.05
236.21
236.373
236.541
236.713
236.89
237.071
237.257
237.447
237.643
237.845
238.051
238.263
238.481
238.703
238.931
239.164
239.402
239.644
242.765
242.289
241.816
241.347
240.891
240.442
239.992
239.536
239.111
238.7
238.279
237.845
237.453
237.083
236.695
236.304
235.951
235.621
235.269
234.919
234.593
234.281
233.972
233.665
233.361
233.07
232.794
232.53
232.279
232.04
231.813
231.597
231.393
231.201
231.021
230.854
230.7
230.559
230.431
230.314
230.21
230.118
230.037
229.968
229.909
229.859
229.818
229.786
229.762
229.746
229.74
229.744
229.756
229.78
229.816
229.866
229.929
230.006
230.1
230.212
230.345
230.505
230.666
230.83
231.018
231.232
231.468
231.723
231.988
232.248
232.509
232.779
233.057
233.338
233.618
233.893
234.161
234.418
234.665
234.898
235.118
235.324
235.516
235.695
235.861
236.017
236.164
236.303
236.437
236.568
236.697
236.827
236.958
237.093
237.231
237.375
237.523
237.677
237.837
238.002
238.174
238.35
238.532
238.719
238.911
239.107
239.308
239.514
239.724
239.939
240.159
240.383
240.613
240.848
241.089
241.336
241.588
241.847
242.112
242.382
242.659
242.942
243.23
243.524
243.823
244.907
244.452
244.005
243.561
243.125
242.701
242.282
241.859
241.442
241.054
240.667
240.272
239.876
239.52
239.172
238.811
238.452
238.122
237.816
237.496
237.166
236.86
236.568
236.279
235.989
235.7
235.426
235.165
234.912
234.669
234.437
234.216
234.004
233.801
233.608
233.424
233.251
233.088
232.936
232.794
232.663
232.542
232.431
232.33
232.238
232.155
232.082
232.016
231.958
231.909
231.869
231.838
231.817
231.81
231.814
231.829
231.859
231.905
231.97
232.054
232.16
232.289
232.449
232.614
232.787
232.99
233.226
233.488
233.774
234.068
234.362
234.667
234.985
235.314
235.648
235.983
236.314
236.638
236.953
237.256
237.545
237.82
238.079
238.323
238.552
238.767
238.97
239.163
239.348
239.528
239.703
239.877
240.052
240.229
240.408
240.593
240.782
240.977
241.178
241.386
241.599
241.818
242.043
242.274
242.509
242.75
242.996
243.247
243.502
243.763
244.029
244.3
244.576
244.858
245.146
245.44
245.74
246.047
246.36
246.68
247.006
247.339
247.678
248.023
248.375
248.731
246.808
246.388
245.975
245.567
245.168
244.78
244.394
244.008
243.636
243.281
242.923
242.561
242.214
241.889
241.566
241.242
240.919
240.612
240.331
240.048
239.744
239.458
239.19
238.923
238.655
238.384
238.128
237.885
237.647
237.415
237.193
236.98
236.775
236.576
236.384
236.2
236.023
235.855
235.695
235.543
235.4
235.266
235.139
235.021
234.91
234.808
234.713
234.627
234.548
234.478
234.417
234.367
234.327
234.3
234.29
234.293
234.309
234.344
234.4
234.481
234.586
234.719
234.887
235.06
235.251
235.48
235.745
236.042
236.363
236.692
237.031
237.387
237.761
238.147
238.539
238.934
239.326
239.711
240.086
240.449
240.798
241.129
241.444
241.742
242.023
242.29
242.543
242.785
243.019
243.247
243.47
243.692
243.915
244.14
244.368
244.602
244.84
245.085
245.336
245.593
245.856
246.125
246.401
246.681
246.967
247.259
247.555
247.857
248.163
248.475
248.792
249.114
249.442
249.776
250.116
250.463
250.816
251.175
251.542
251.915
252.295
252.681
253.074
253.473
253.879
254.289
254.705
255.127
248.968
248.589
248.215
247.848
247.491
247.143
246.796
246.454
246.127
245.808
245.487
245.169
244.869
244.573
244.284
244.003
243.719
243.438
243.185
242.939
242.667
242.406
242.164
241.925
241.682
241.433
241.197
240.974
240.753
240.536
240.327
240.127
239.932
239.742
239.555
239.373
239.196
239.026
238.862
238.704
238.553
238.408
238.27
238.138
238.014
237.896
237.785
237.682
237.587
237.501
237.424
237.358
237.305
237.265
237.244
237.242
237.252
237.282
237.338
237.422
237.534
237.679
237.862
238.05
238.271
238.534
238.838
239.178
239.539
239.912
240.304
240.718
241.152
241.599
242.054
242.511
242.966
243.414
243.851
244.274
244.681
245.069
245.439
245.79
246.124
246.441
246.744
247.036
247.318
247.594
247.866
248.136
248.408
248.681
248.959
249.241
249.529
249.823
250.123
250.429
250.741
251.059
251.383
251.712
252.046
252.386
252.73
253.08
253.434
253.794
254.158
254.528
254.904
255.285
255.673
256.066
256.466
256.873
257.287
257.707
258.133
258.567
259.006
259.451
259.902
260.358
260.819
261.285
251.399
251.064
250.736
250.415
250.104
249.799
249.498
249.205
248.924
248.646
248.367
248.1
247.843
247.583
247.335
247.098
246.854
246.607
246.388
246.177
245.941
245.711
245.501
245.294
245.076
244.853
244.639
244.44
244.24
244.041
243.849
243.665
243.484
243.305
243.127
242.951
242.778
242.609
242.445
242.285
242.13
241.979
241.833
241.693
241.558
241.43
241.308
241.193
241.086
240.989
240.902
240.827
240.766
240.72
240.695
240.693
240.704
240.738
240.802
240.898
241.026
241.193
241.395
241.612
241.872
242.18
242.531
242.919
243.324
243.749
244.201
244.677
245.174
245.684
246.202
246.722
247.238
247.747
248.242
248.722
249.183
249.625
250.046
250.446
250.827
251.192
251.541
251.878
252.206
252.528
252.845
253.162
253.479
253.798
254.122
254.449
254.783
255.122
255.467
255.817
256.174
256.536
256.903
257.275
257.651
258.033
258.418
258.809
259.204
259.603
260.008
260.417
260.832
261.252
261.678
262.11
262.547
262.991
263.441
263.898
264.36
264.828
265.302
265.781
266.265
266.754
267.246
267.742
254.102
253.817
253.539
253.269
253.007
252.751
252.5
252.258
252.025
251.793
251.564
251.348
251.134
250.918
250.717
250.522
250.32
250.114
249.935
249.758
249.563
249.369
249.192
249.021
248.829
248.635
248.449
248.276
248.097
247.92
247.749
247.584
247.42
247.256
247.09
246.923
246.757
246.594
246.433
246.274
246.118
245.966
245.817
245.672
245.532
245.397
245.269
245.148
245.035
244.932
244.841
244.763
244.701
244.657
244.637
244.639
244.66
244.708
244.789
244.906
245.059
245.258
245.485
245.744
246.054
246.413
246.818
247.254
247.71
248.194
248.708
249.247
249.806
250.378
250.956
251.534
252.107
252.669
253.216
253.745
254.253
254.739
255.203
255.645
256.067
256.472
256.861
257.237
257.604
257.965
258.323
258.678
259.035
259.394
259.756
260.123
260.495
260.871
261.253
261.641
262.033
262.429
262.831
263.236
263.645
264.058
264.475
264.896
265.321
265.749
266.182
266.619
267.061
267.508
267.959
268.416
268.878
269.346
269.819
270.297
270.781
271.269
271.762
272.259
272.76
273.264
273.771
274.28
274.79
256.842
256.617
256.401
256.192
255.989
255.792
255.603
255.419
255.238
255.063
254.896
254.73
254.564
254.41
254.259
254.101
253.942
253.804
253.664
253.51
253.356
253.216
253.08
252.919
252.755
252.602
252.454
252.296
252.147
251.999
251.853
251.71
251.564
251.412
251.256
251.099
250.944
250.789
250.635
250.483
250.332
250.183
250.038
249.897
249.761
249.632
249.51
249.397
249.295
249.206
249.133
249.077
249.043
249.036
249.048
249.087
249.159
249.268
249.413
249.601
249.84
250.101
250.413
250.779
251.194
251.654
252.14
252.652
253.196
253.771
254.371
254.988
255.614
256.245
256.872
257.492
258.097
258.685
259.252
259.796
260.315
260.811
261.285
261.737
262.172
262.591
262.998
263.395
263.786
264.174
264.56
264.947
265.335
265.727
266.123
266.522
266.926
267.335
267.747
268.163
268.583
269.006
269.432
269.861
270.293
270.728
271.166
271.607
272.05
272.498
272.948
273.402
273.86
274.323
274.789
275.26
275.736
276.215
276.699
277.187
277.679
278.174
278.671
279.171
279.672
280.175
280.678
281.181
260.122
259.954
259.794
259.64
259.492
259.35
259.216
259.085
258.958
258.837
258.72
258.603
258.489
258.383
258.277
258.165
258.056
257.959
257.857
257.745
257.632
257.531
257.428
257.303
257.171
257.052
256.927
256.787
256.674
256.549
256.418
256.299
256.175
256.038
255.893
255.748
255.602
255.456
255.309
255.163
255.017
254.872
254.731
254.593
254.461
254.335
254.218
254.111
254.016
253.936
253.874
253.833
253.818
253.827
253.861
253.928
254.033
254.176
254.36
254.594
254.87
255.184
255.554
255.976
256.45
256.962
257.499
258.067
258.669
259.3
259.952
260.617
261.289
261.96
262.625
263.277
263.913
264.527
265.118
265.683
266.223
266.738
267.23
267.701
268.153
268.591
269.016
269.432
269.842
270.249
270.654
271.059
271.466
271.875
272.286
272.701
273.119
273.54
273.964
274.391
274.819
275.25
275.683
276.118
276.554
276.992
277.431
277.873
278.316
278.762
279.21
279.661
280.115
280.572
281.031
281.495
281.961
282.43
282.903
283.377
283.855
284.333
284.813
285.294
285.774
286.254
286.732
287.208
263.521
263.418
263.32
263.229
263.143
263.063
262.987
262.914
262.846
262.78
262.714
262.651
262.592
262.531
262.467
262.405
262.348
262.286
262.214
262.143
262.08
262.008
261.919
261.82
261.735
261.632
261.51
261.428
261.325
261.208
261.116
261.016
260.894
260.76
260.626
260.491
260.355
260.217
260.078
259.94
259.803
259.668
259.538
259.413
259.297
259.189
259.094
259.013
258.95
258.906
258.889
258.897
258.93
258.996
259.099
259.243
259.429
259.659
259.945
260.264
260.637
261.065
261.544
262.073
262.633
263.219
263.84
264.491
265.168
265.86
266.561
267.264
267.961
268.648
269.318
269.967
270.592
271.191
271.764
272.309
272.829
273.325
273.8
274.258
274.7
275.132
275.554
275.97
276.383
276.793
277.204
277.615
278.027
278.441
278.857
279.274
279.694
280.115
280.536
280.959
281.383
281.807
282.231
282.656
283.082
283.508
283.935
284.362
284.791
285.221
285.652
286.086
286.521
286.958
287.397
287.838
288.28
288.724
289.169
289.615
290.06
290.505
290.949
291.39
291.829
292.265
292.697
267.233
267.192
267.156
267.125
267.099
267.076
267.056
267.039
267.023
267.008
266.993
266.98
266.964
266.945
266.926
266.908
266.883
266.851
266.818
266.788
266.747
266.692
266.627
266.57
266.485
266.385
266.327
266.244
266.138
266.075
265.999
265.888
265.763
265.64
265.517
265.391
265.263
265.134
265.005
264.878
264.753
264.634
264.522
264.419
264.327
264.249
264.188
264.147
264.132
264.14
264.176
264.245
264.35
264.496
264.685
264.918
265.204
265.534
265.91
266.34
266.823
267.355
267.932
268.533
269.164
269.827
270.517
271.225
271.944
272.665
273.382
274.089
274.78
275.451
276.097
276.717
277.309
277.872
278.408
278.918
279.404
279.871
280.32
280.754
281.178
281.593
282.002
282.407
282.809
283.211
283.612
284.013
284.415
284.818
285.22
285.623
286.026
286.429
286.831
287.232
287.633
288.032
288.431
288.829
289.227
289.624
290.021
290.417
290.814
291.212
291.609
292.008
292.407
292.807
293.207
293.608
294.009
294.408
294.807
295.204
295.598
295.989
296.376
296.758
297.135
297.507
297.872
298.231
271.189
271.202
271.22
271.242
271.268
271.295
271.325
271.356
271.388
271.419
271.449
271.478
271.503
271.526
271.546
271.563
271.573
271.576
271.577
271.574
271.56
271.535
271.501
271.465
271.395
271.321
271.28
271.213
271.116
271.077
271.019
270.917
270.802
270.691
270.578
270.462
270.344
270.226
270.108
269.992
269.881
269.776
269.68