/*--------------------------------*- C++ -*----------------------------------*\
| =========                 |                                                 |
| \\      /  F ield         | OpenFOAM: The Open Source CFD Toolbox           |
|  \\    /   O peration     | Version:  v1706                                 |
|   \\  /    A nd           | Web:      www.OpenFOAM.com                      |
|    \\/     M anipulation  |                                                 |
\*---------------------------------------------------------------------------*/
FoamFile
{
    version     2.0;
    format      ascii;
    class       volVectorField;
    location    "1.4e-05";
    object      U;
}
// * * * * * * * * * * * * * * * * * * * * * * * * * * * * * * * * * * * * * //

dimensions      [0 1 -1 0 0 0 0];


internalField   nonuniform List<vector> 
29871
(
(978.51 0.110293 7.56251e-15)
(978.511 0.110211 4.7184e-15)
(978.511 0.109874 5.19774e-15)
(978.512 0.109288 3.94233e-15)
(978.513 0.108464 2.45293e-15)
(978.513 0.107413 3.27179e-15)
(978.515 0.106147 4.22848e-15)
(978.516 0.104674 4.48584e-15)
(978.517 0.103005 5.02396e-15)
(978.518 0.101149 5.04497e-15)
(978.52 0.0991183 5.01152e-15)
(978.521 0.0969284 6.4575e-15)
(978.523 0.0945962 5.24682e-15)
(978.525 0.09214 5.6655e-15)
(978.526 0.089578 4.13452e-15)
(978.528 0.0869284 2.76825e-15)
(978.53 0.0842093 3.39069e-15)
(978.532 0.08144 4.15496e-15)
(978.533 0.0786402 4.36775e-15)
(978.535 0.0758303 4.34152e-15)
(978.537 0.0730303 3.96425e-15)
(978.539 0.0702588 4.3405e-15)
(978.54 0.0675326 2.91655e-15)
(978.542 0.0648664 4.66208e-15)
(978.544 0.0622725 6.0726e-15)
(978.545 0.0597611 5.34749e-15)
(978.547 0.0573405 6.79707e-15)
(978.548 0.0550167 3.57045e-15)
(978.549 0.0527938 3.37281e-15)
(978.55 0.0506734 5.21941e-15)
(978.552 0.0486562 5.23423e-15)
(978.553 0.0467414 3.57523e-15)
(978.554 0.0449281 4.85e-15)
(978.555 0.0432157 7.31882e-15)
(978.556 0.0416039 4.21419e-15)
(978.556 0.040093 2.11996e-15)
(978.557 0.0386856 2.05341e-15)
(978.558 0.0373862 5.09514e-15)
(978.558 0.0361977 5.43227e-15)
(978.559 0.0351219 5.63169e-15)
(978.559 0.0341617 6.58355e-15)
(978.56 0.033315 6.96033e-15)
(978.56 0.0325807 6.96748e-15)
(978.56 0.0319639 3.73654e-15)
(978.56 0.0314486 3.56674e-15)
(978.561 0.0310238 4.59726e-15)
(978.561 0.0307127 3.44024e-15)
(978.561 0.0304829 1.51195e-16)
(978.561 0.030293 3.27567e-15)
(978.561 0.0302273 5.63672e-15)
(978.561 0.0302286 4.06141e-15)
(978.561 0.0302633 2.70513e-15)
(978.561 0.0303333 4.02075e-15)
(978.56 0.0304354 5.14942e-15)
(978.56 0.0305774 4.67202e-15)
(978.56 0.0307629 4.97502e-15)
(978.56 0.0309873 5.60562e-15)
(978.56 0.031245 6.08453e-15)
(978.56 0.0315317 4.50029e-15)
(978.559 0.0318443 3.34506e-15)
(978.559 0.0321801 1.86369e-15)
(978.559 0.0325368 1.57496e-15)
(978.559 0.032912 2.43613e-15)
(978.558 0.0333035 1.26116e-15)
(978.558 0.0337091 4.95847e-15)
(978.558 0.0341267 5.20829e-15)
(978.558 0.0345546 3.51959e-15)
(978.557 0.0349912 2.57469e-15)
(978.557 0.0354355 2.44278e-15)
(978.557 0.0358866 3.07524e-15)
(978.556 0.0363444 4.25379e-15)
(978.556 0.0368087 3.80058e-15)
(978.556 0.0372798 2.56663e-15)
(978.555 0.0377581 3.31321e-15)
(978.555 0.038244 3.50988e-15)
(978.555 0.0387378 4.51108e-15)
(978.555 0.0392398 2.06148e-15)
(978.554 0.0397504 3.05283e-15)
(978.554 0.0402696 3.33809e-15)
(978.554 0.0407973 6.05655e-15)
(978.553 0.0413334 5.77448e-15)
(978.553 0.0418777 4.99426e-15)
(978.552 0.0424297 4.73099e-15)
(978.552 0.042989 3.835e-15)
(978.552 0.0435549 5.57168e-15)
(978.551 0.0441267 4.7535e-15)
(978.551 0.0447039 4.23235e-15)
(978.551 0.0452858 5.3684e-15)
(978.55 0.0458716 5.30239e-15)
(978.55 0.0464607 4.69742e-15)
(978.55 0.0470523 4.55907e-15)
(978.549 0.0476456 2.71461e-15)
(978.549 0.0482397 4.16134e-15)
(978.548 0.0488338 4.46851e-15)
(978.548 0.0494272 3.59724e-15)
(978.548 0.050019 3.78695e-15)
(978.547 0.0506087 3.92036e-15)
(978.547 0.0511957 3.96726e-15)
(978.547 0.0517798 3.93301e-15)
(978.546 0.0523607 3.84289e-15)
(978.546 0.0529383 4.6501e-15)
(978.546 0.0535127 3.58642e-15)
(978.545 0.0540843 2.41697e-15)
(978.545 0.0546535 2.98648e-15)
(978.544 0.0552208 1.73119e-15)
(978.185 0.624214 1.16339e-14)
(978.188 0.62338 1.19984e-14)
(978.191 0.621605 1.3405e-14)
(978.195 0.618633 1.29432e-14)
(978.201 0.614471 1.20645e-14)
(978.206 0.609145 1.36319e-14)
(978.213 0.602693 1.25792e-14)
(978.22 0.595164 1.24142e-14)
(978.227 0.586621 1.24851e-14)
(978.235 0.577134 1.25675e-14)
(978.243 0.566778 1.20214e-14)
(978.252 0.555627 1.17647e-14)
(978.261 0.543753 1.2585e-14)
(978.27 0.531226 8.79412e-15)
(978.279 0.518121 7.75519e-15)
(978.288 0.504515 9.99093e-15)
(978.298 0.490489 1.18812e-14)
(978.307 0.476117 1.12639e-14)
(978.317 0.461473 9.87102e-15)
(978.327 0.446622 8.8332e-15)
(978.336 0.431629 9.66401e-15)
(978.345 0.416559 1.09511e-14)
(978.354 0.401482 1.30658e-14)
(978.363 0.386468 1.31207e-14)
(978.372 0.371593 1.06026e-14)
(978.381 0.35693 1.16032e-14)
(978.389 0.342551 1.2637e-14)
(978.397 0.328531 1.14235e-14)
(978.404 0.314939 1.17568e-14)
(978.412 0.301847 1.17225e-14)
(978.418 0.28932 1.2527e-14)
(978.425 0.277417 8.33282e-15)
(978.43 0.266186 1.19774e-14)
(978.436 0.255666 1.51188e-14)
(978.441 0.245884 1.36593e-14)
(978.445 0.236857 1.21957e-14)
(978.449 0.228584 9.4911e-15)
(978.453 0.221048 1.23779e-14)
(978.456 0.214232 1.1515e-14)
(978.458 0.20812 1.27426e-14)
(978.46 0.202686 1.27462e-14)
(978.462 0.197905 1.15124e-14)
(978.464 0.193758 1.20329e-14)
(978.465 0.190212 1.1085e-14)
(978.466 0.187237 1.03921e-14)
(978.466 0.184832 1.1666e-14)
(978.466 0.182956 1.18979e-14)
(978.466 0.181573 7.4824e-15)
(978.466 0.180743 1.10341e-14)
(978.466 0.180482 8.69431e-15)
(978.465 0.180572 8.70624e-15)
(978.465 0.180859 1.07055e-14)
(978.464 0.181394 1.10543e-14)
(978.463 0.182259 9.28106e-15)
(978.461 0.183437 9.95505e-15)
(978.46 0.184889 1.0007e-14)
(978.459 0.186572 1.16268e-14)
(978.457 0.188444 1.20402e-14)
(978.456 0.190467 8.20257e-15)
(978.454 0.192609 8.64695e-15)
(978.453 0.194842 9.55901e-15)
(978.451 0.197146 7.13876e-15)
(978.45 0.199507 9.20313e-15)
(978.448 0.201915 7.96351e-15)
(978.446 0.204367 1.02045e-14)
(978.445 0.206862 9.77739e-15)
(978.443 0.209401 8.91577e-15)
(978.441 0.211987 1.10538e-14)
(978.439 0.214624 1.09983e-14)
(978.438 0.217317 8.85336e-15)
(978.436 0.22007 1.08503e-14)
(978.434 0.222887 8.01082e-15)
(978.432 0.22577 8.14753e-15)
(978.43 0.228723 1.05903e-14)
(978.428 0.231748 8.91651e-15)
(978.426 0.234847 9.02516e-15)
(978.424 0.238021 8.57978e-15)
(978.422 0.241269 9.20194e-15)
(978.419 0.244592 9.26477e-15)
(978.417 0.247989 1.16371e-14)
(978.415 0.251456 1.02296e-14)
(978.413 0.254991 9.90855e-15)
(978.41 0.258589 9.61345e-15)
(978.408 0.262245 1.08747e-14)
(978.405 0.265953 1.16636e-14)
(978.403 0.269705 1.16868e-14)
(978.401 0.273494 1.09165e-14)
(978.398 0.277311 1.07034e-14)
(978.396 0.281147 1.12761e-14)
(978.393 0.284993 1.11096e-14)
(978.391 0.288842 9.75167e-15)
(978.388 0.292685 8.77024e-15)
(978.386 0.296517 1.25245e-14)
(978.384 0.300333 1.11574e-14)
(978.381 0.30413 9.78559e-15)
(978.379 0.307907 9.37686e-15)
(978.377 0.311662 9.64269e-15)
(978.374 0.315397 1.05468e-14)
(978.372 0.319116 9.37682e-15)
(978.37 0.322821 6.29826e-15)
(978.367 0.326519 9.80802e-15)
(978.365 0.330213 1.03891e-14)
(978.363 0.333912 7.88761e-15)
(978.36 0.33762 8.21985e-15)
(978.358 0.341345 6.41375e-15)
(977.371 1.89861 2.27875e-14)
(977.378 1.90364 2.24787e-14)
(977.385 1.90521 1.75372e-14)
(977.395 1.90313 2.10453e-14)
(977.408 1.89668 2.24977e-14)
(977.423 1.88624 1.97292e-14)
(977.441 1.87195 2.03255e-14)
(977.46 1.85395 2.00099e-14)
(977.481 1.83238 2.1933e-14)
(977.504 1.80735 1.98598e-14)
(977.529 1.77906 1.84059e-14)
(977.554 1.74769 1.65478e-14)
(977.581 1.71349 1.57952e-14)
(977.609 1.67674 1.8984e-14)
(977.638 1.63773 1.94328e-14)
(977.667 1.59677 1.8601e-14)
(977.697 1.55416 1.73768e-14)
(977.727 1.5102 1.80873e-14)
(977.756 1.46519 1.69067e-14)
(977.786 1.41944 1.71592e-14)
(977.816 1.37328 1.63933e-14)
(977.845 1.32699 1.50639e-14)
(977.873 1.28087 1.83434e-14)
(977.901 1.23516 2.07077e-14)
(977.928 1.19007 1.60671e-14)
(977.954 1.14577 1.87896e-14)
(977.979 1.10245 2.01771e-14)
(978.002 1.06024 1.88402e-14)
(978.025 1.01927 1.82179e-14)
(978.047 0.979644 1.83721e-14)
(978.067 0.941452 1.84102e-14)
(978.086 0.904778 1.91746e-14)
(978.104 0.869709 1.7632e-14)
(978.121 0.836332 1.8908e-14)
(978.136 0.804735 1.96755e-14)
(978.15 0.775005 2.02248e-14)
(978.163 0.74722 2.0054e-14)
(978.174 0.721458 1.87582e-14)
(978.185 0.697818 1.86968e-14)
(978.193 0.676352 1.96127e-14)
(978.201 0.65705 1.87304e-14)
(978.207 0.639935 1.75213e-14)
(978.213 0.624984 1.79934e-14)
(978.216 0.612127 1.78372e-14)
(978.219 0.601333 1.87541e-14)
(978.221 0.592471 1.74394e-14)
(978.222 0.585426 1.94743e-14)
(978.222 0.580022 1.84594e-14)
(978.221 0.576223 1.60276e-14)
(978.219 0.574274 1.51691e-14)
(978.217 0.573973 1.52087e-14)
(978.216 0.574448 1.62792e-14)
(978.213 0.575588 1.53243e-14)
(978.209 0.577723 1.53923e-14)
(978.205 0.580864 1.64606e-14)
(978.201 0.584904 1.72645e-14)
(978.197 0.589735 1.64692e-14)
(978.192 0.595255 1.97712e-14)
(978.187 0.601377 1.9222e-14)
(978.182 0.608026 1.53708e-14)
(978.177 0.615144 1.48768e-14)
(978.171 0.622681 1.41355e-14)
(978.166 0.630595 1.64835e-14)
(978.16 0.63885 1.72911e-14)
(978.154 0.647414 1.39816e-14)
(978.149 0.65626 1.51135e-14)
(978.142 0.665364 1.53047e-14)
(978.136 0.674709 1.51728e-14)
(978.13 0.68428 1.63002e-14)
(978.123 0.694068 1.65009e-14)
(978.117 0.704067 1.54558e-14)
(978.11 0.714277 1.70639e-14)
(978.103 0.724702 1.45199e-14)
(978.096 0.735347 1.57206e-14)
(978.089 0.74622 1.58847e-14)
(978.081 0.75733 1.40578e-14)
(978.074 0.768684 1.69444e-14)
(978.066 0.780288 1.73753e-14)
(978.058 0.792147 1.46748e-14)
(978.05 0.804264 1.48472e-14)
(978.042 0.816636 1.74919e-14)
(978.034 0.82926 1.6402e-14)
(978.025 0.842131 1.65306e-14)
(978.017 0.855239 1.52454e-14)
(978.008 0.868572 1.78668e-14)
(977.999 0.882117 1.76197e-14)
(977.99 0.895859 1.471e-14)
(977.981 0.909783 1.49734e-14)
(977.972 0.923874 1.64646e-14)
(977.963 0.938116 1.50969e-14)
(977.954 0.952493 1.60524e-14)
(977.945 0.96699 1.4647e-14)
(977.936 0.98159 1.42563e-14)
(977.927 0.996278 1.64131e-14)
(977.917 1.01104 1.65307e-14)
(977.908 1.02586 1.48037e-14)
(977.899 1.04071 1.39649e-14)
(977.89 1.0556 1.72097e-14)
(977.88 1.07052 1.63845e-14)
(977.871 1.08544 1.52051e-14)
(977.862 1.10037 1.47314e-14)
(977.853 1.11531 1.55924e-14)
(977.843 1.13026 1.55495e-14)
(977.834 1.14522 1.40986e-14)
(977.824 1.16021 1.39956e-14)
(977.815 1.17523 1.41946e-14)
(975.428 4.96896 3.06447e-14)
(975.448 4.98068 3.17962e-14)
(975.476 4.97921 2.73537e-14)
(975.501 4.97031 2.85489e-14)
(975.535 4.95417 2.84891e-14)
(975.578 4.92756 2.7297e-14)
(975.625 4.89115 2.96495e-14)
(975.676 4.8455 2.87873e-14)
(975.732 4.79106 2.58491e-14)
(975.792 4.72825 2.59686e-14)
(975.855 4.6576 2.80624e-14)
(975.921 4.57963 2.69713e-14)
(975.99 4.49493 2.63402e-14)
(976.061 4.40404 2.62272e-14)
(976.134 4.3075 2.68163e-14)
(976.208 4.20586 2.4759e-14)
(976.283 4.09974 2.5406e-14)
(976.358 3.98979 2.60258e-14)
(976.434 3.87667 2.59597e-14)
(976.51 3.76097 2.57716e-14)
(976.585 3.64329 2.54898e-14)
(976.659 3.52418 2.7998e-14)
(976.733 3.40427 2.81725e-14)
(976.804 3.28422 2.63646e-14)
(976.874 3.16473 2.52953e-14)
(976.942 3.04651 2.62634e-14)
(977.008 2.93024 2.80225e-14)
(977.071 2.81657 2.49352e-14)
(977.13 2.70611 2.35738e-14)
(977.187 2.59945 2.57497e-14)
(977.24 2.49714 2.57287e-14)
(977.29 2.39961 2.58301e-14)
(977.336 2.3072 2.51178e-14)
(977.378 2.22017 2.71352e-14)
(977.416 2.13868 2.62215e-14)
(977.451 2.06286 2.64013e-14)
(977.482 1.99274 2.68976e-14)
(977.509 1.92836 2.49231e-14)
(977.533 1.86955 2.482e-14)
(977.553 1.81622 2.33346e-14)
(977.57 1.76847 2.58565e-14)
(977.584 1.72617 2.68575e-14)
(977.595 1.68908 2.4389e-14)
(977.602 1.65736 2.57634e-14)
(977.608 1.63064 2.62679e-14)
(977.61 1.60882 2.41027e-14)
(977.61 1.59211 2.33485e-14)
(977.608 1.57933 2.50802e-14)
(977.604 1.57162 2.83034e-14)
(977.596 1.56973 2.16061e-14)
(977.591 1.57063 2.11181e-14)
(977.583 1.57342 2.14625e-14)
(977.573 1.57912 2.28876e-14)
(977.561 1.58811 2.45608e-14)
(977.548 1.60007 2.19186e-14)
(977.535 1.61462 2.28108e-14)
(977.52 1.63144 2.52803e-14)
(977.505 1.65023 2.52435e-14)
(977.489 1.67074 2.34045e-14)
(977.473 1.69269 2.32658e-14)
(977.457 1.71584 2.36842e-14)
(977.44 1.73998 2.10103e-14)
(977.422 1.76493 2.10017e-14)
(977.405 1.79053 2.09167e-14)
(977.387 1.8167 2.10734e-14)
(977.37 1.84336 2.12071e-14)
(977.351 1.87049 2.12311e-14)
(977.333 1.89806 2.0881e-14)
(977.314 1.9261 2.06933e-14)
(977.295 1.95464 2.09741e-14)
(977.276 1.98372 2.1939e-14)
(977.256 2.01336 2.16235e-14)
(977.236 2.04363 2.16951e-14)
(977.215 2.07457 2.16303e-14)
(977.194 2.10621 1.97877e-14)
(977.172 2.1386 2.03956e-14)
(977.15 2.17178 2.29284e-14)
(977.127 2.20579 2.23634e-14)
(977.103 2.24064 2.26006e-14)
(977.079 2.27637 2.42098e-14)
(977.055 2.313 2.25445e-14)
(977.03 2.35054 2.08738e-14)
(977.004 2.38899 1.98103e-14)
(976.978 2.42834 2.10374e-14)
(976.952 2.46857 2.20432e-14)
(976.925 2.50967 1.89865e-14)
(976.898 2.55159 2.15222e-14)
(976.87 2.59428 2.40156e-14)
(976.842 2.63767 2.23151e-14)
(976.814 2.68169 2.00594e-14)
(976.785 2.72627 2.0871e-14)
(976.756 2.77131 2.01716e-14)
(976.728 2.81674 2.11828e-14)
(976.699 2.86247 2.18207e-14)
(976.67 2.90842 1.92623e-14)
(976.641 2.95452 1.94262e-14)
(976.612 3.00074 2.39763e-14)
(976.583 3.04703 2.24909e-14)
(976.554 3.09336 1.97692e-14)
(976.524 3.13973 2.16895e-14)
(976.495 3.18614 2.12451e-14)
(976.466 3.23263 2.02063e-14)
(976.437 3.27922 2.1692e-14)
(976.407 3.32597 2.04476e-14)
(976.377 3.37293 1.90031e-14)
(976.347 3.42017 1.97156e-14)
(971.061 11.7875 3.73964e-14)
(971.094 11.846 3.87333e-14)
(971.148 11.8769 3.76158e-14)
(971.21 11.877 3.7197e-14)
(971.27 11.8651 3.7717e-14)
(971.356 11.8272 3.53378e-14)
(971.457 11.7644 3.589e-14)
(971.571 11.6782 3.87531e-14)
(971.697 11.5696 3.95258e-14)
(971.832 11.4393 3.79905e-14)
(971.977 11.2883 3.51989e-14)
(972.13 11.1178 3.52552e-14)
(972.291 10.9291 3.59486e-14)
(972.457 10.7236 3.35309e-14)
(972.629 10.5029 3.44478e-14)
(972.805 10.269 3.70285e-14)
(972.983 10.0239 3.51548e-14)
(973.163 9.76935 3.65639e-14)
(973.343 9.50693 3.53931e-14)
(973.523 9.23836 3.36521e-14)
(973.701 8.96544 3.33061e-14)
(973.877 8.69002 3.32982e-14)
(974.049 8.41385 3.5806e-14)
(974.217 8.13845 3.76236e-14)
(974.381 7.86509 3.38069e-14)
(974.538 7.59481 3.254e-14)
(974.691 7.32855 3.26222e-14)
(974.837 7.06722 2.90135e-14)
(974.976 6.81171 2.95057e-14)
(975.109 6.56286 3.20358e-14)
(975.234 6.32138 3.22338e-14)
(975.353 6.08799 3.23443e-14)
(975.464 5.8635 3.25682e-14)
(975.567 5.64881 3.22408e-14)
(975.662 5.44486 3.31823e-14)
(975.749 5.25252 3.26875e-14)
(975.828 5.07256 3.43094e-14)
(975.898 4.90565 3.39003e-14)
(975.959 4.75229 2.9185e-14)
(976.011 4.61307 2.98345e-14)
(976.055 4.48848 3.32558e-14)
(976.091 4.37793 3.34397e-14)
(976.118 4.28111 3.14342e-14)
(976.138 4.19898 3.0767e-14)
(976.15 4.13019 3.3062e-14)
(976.155 4.07384 3.26889e-14)
(976.154 4.03155 3.22476e-14)
(976.146 3.99934 3.1044e-14)
(976.134 3.97729 3.01721e-14)
(976.112 3.97098 3.09912e-14)
(976.095 3.97362 2.8676e-14)
(976.077 3.9799 2.81164e-14)
(976.049 3.99321 2.91607e-14)
(976.018 4.01477 3.20794e-14)
(975.984 4.04387 3.14387e-14)
(975.947 4.07951 3.03438e-14)
(975.909 4.12085 3.07243e-14)
(975.87 4.16717 3.15186e-14)
(975.829 4.2178 3.09345e-14)
(975.787 4.27221 2.91358e-14)
(975.744 4.32997 2.94113e-14)
(975.7 4.39075 3.04357e-14)
(975.656 4.45429 2.86995e-14)
(975.61 4.52039 2.84942e-14)
(975.563 4.58888 2.93384e-14)
(975.515 4.65962 2.76142e-14)
(975.467 4.73248 2.52515e-14)
(975.417 4.80736 2.62257e-14)
(975.366 4.8842 2.6136e-14)
(975.314 4.96293 2.78874e-14)
(975.261 5.04354 2.81369e-14)
(975.206 5.12602 2.79938e-14)
(975.15 5.21043 3.00279e-14)
(975.092 5.29683 2.77468e-14)
(975.033 5.38531 2.65376e-14)
(974.973 5.47597 2.74707e-14)
(974.911 5.56892 2.71248e-14)
(974.847 5.66425 2.78016e-14)
(974.782 5.76208 2.82928e-14)
(974.715 5.86248 2.85229e-14)
(974.646 5.96552 2.97696e-14)
(974.576 6.07124 2.85936e-14)
(974.504 6.17963 2.62409e-14)
(974.43 6.29071 2.57132e-14)
(974.355 6.40443 2.7939e-14)
(974.278 6.52072 2.87409e-14)
(974.2 6.63949 2.75828e-14)
(974.121 6.76065 2.77635e-14)
(974.041 6.88411 2.8962e-14)
(973.959 7.00976 2.72705e-14)
(973.877 7.13747 2.7903e-14)
(973.794 7.26714 2.93558e-14)
(973.71 7.39864 2.64197e-14)
(973.625 7.53187 2.61725e-14)
(973.539 7.66675 2.67214e-14)
(973.453 7.80317 2.4855e-14)
(973.366 7.94102 2.59332e-14)
(973.279 8.08022 2.71361e-14)
(973.191 8.22067 2.46841e-14)
(973.102 8.36228 2.61203e-14)
(973.013 8.50501 2.66524e-14)
(972.924 8.64877 2.45664e-14)
(972.833 8.79352 2.61701e-14)
(972.742 8.93921 2.79886e-14)
(972.65 9.08584 2.63186e-14)
(972.557 9.2334 2.57213e-14)
(972.464 9.3819 2.74854e-14)
(961.618 26.785 4.55396e-14)
(961.718 26.8881 4.45697e-14)
(961.857 26.9293 4.43698e-14)
(962.023 26.8978 4.30924e-14)
(962.164 26.8441 4.39134e-14)
(962.366 26.7488 4.47997e-14)
(962.605 26.6005 4.72024e-14)
(962.868 26.4028 4.52087e-14)
(963.153 26.1585 4.5424e-14)
(963.458 25.8698 4.49442e-14)
(963.781 25.5388 4.23739e-14)
(964.12 25.1676 4.37788e-14)
(964.473 24.759 4.30691e-14)
(964.838 24.3158 4.21622e-14)
(965.213 23.8406 4.4105e-14)
(965.595 23.3357 4.16757e-14)
(965.983 22.8039 3.97481e-14)
(966.376 22.2484 4.09128e-14)
(966.77 21.6728 4.07458e-14)
(967.165 21.0809 4.09723e-14)
(967.557 20.4757 4.03721e-14)
(967.946 19.8602 4.11921e-14)
(968.329 19.2377 4.30278e-14)
(968.705 18.6115 4.10954e-14)
(969.073 17.9856 3.63477e-14)
(969.43 17.3643 3.79765e-14)
(969.774 16.7518 3.81567e-14)
(970.103 16.1516 3.7627e-14)
(970.417 15.5674 3.96061e-14)
(970.713 15.0021 3.9175e-14)
(970.991 14.4589 3.98202e-14)
(971.249 13.9402 3.99205e-14)
(971.487 13.4478 4.04461e-14)
(971.704 12.9826 3.94367e-14)
(971.901 12.5455 4.14205e-14)
(972.078 12.1368 4.03447e-14)
(972.234 11.7572 3.92049e-14)
(972.371 11.4072 3.7629e-14)
(972.488 11.0869 3.74246e-14)
(972.587 10.7964 3.92079e-14)
(972.668 10.535 3.88255e-14)
(972.73 10.3039 3.86771e-14)
(972.775 10.1051 3.87753e-14)
(972.803 9.93423 3.77478e-14)
(972.816 9.79137 4.04769e-14)
(972.812 9.68314 3.93731e-14)
(972.795 9.5989 3.82002e-14)
(972.765 9.53901 3.74985e-14)
(972.71 9.51945 3.70424e-14)
(972.666 9.52499 3.80369e-14)
(972.617 9.54016 3.59292e-14)
(972.547 9.57331 3.45454e-14)
(972.466 9.62791 3.70002e-14)
(972.378 9.70274 3.92671e-14)
(972.284 9.79557 4.07641e-14)
(972.184 9.90439 3.9263e-14)
(972.079 10.0274 3.72728e-14)
(971.971 10.1632 3.37206e-14)
(971.858 10.3102 3.46342e-14)
(971.743 10.4672 3.579e-14)
(971.624 10.633 3.60394e-14)
(971.504 10.8061 3.48537e-14)
(971.381 10.9854 3.57174e-14)
(971.256 11.1699 3.71449e-14)
(971.13 11.3586 3.2647e-14)
(971.002 11.5511 3.40746e-14)
(970.873 11.7467 3.91686e-14)
(970.741 11.9455 3.39239e-14)
(970.608 12.1473 3.13018e-14)
(970.473 12.3523 3.51156e-14)
(970.335 12.5607 3.42454e-14)
(970.194 12.7728 3.17755e-14)
(970.05 12.989 3.31537e-14)
(969.902 13.2096 3.39203e-14)
(969.752 13.4348 3.41026e-14)
(969.597 13.6651 3.35245e-14)
(969.438 13.9007 3.37485e-14)
(969.276 14.142 3.44614e-14)
(969.109 14.3892 3.3696e-14)
(968.938 14.6426 3.12383e-14)
(968.763 14.9025 3.1347e-14)
(968.583 15.1691 3.43121e-14)
(968.399 15.4426 3.47437e-14)
(968.211 15.7233 3.35491e-14)
(968.019 16.0112 3.25623e-14)
(967.822 16.3065 3.19054e-14)
(967.621 16.6092 3.23055e-14)
(967.416 16.9194 3.35226e-14)
(967.207 17.2368 3.35666e-14)
(966.995 17.5614 3.21291e-14)
(966.779 17.893 3.3298e-14)
(966.56 18.2312 3.15515e-14)
(966.338 18.5757 3.16365e-14)
(966.113 18.926 3.36344e-14)
(965.886 19.2816 3.30167e-14)
(965.656 19.642 3.01803e-14)
(965.425 20.0067 3.0555e-14)
(965.191 20.3752 3.22929e-14)
(964.956 20.7471 3.02073e-14)
(964.719 21.1219 3.10057e-14)
(964.481 21.4994 3.2982e-14)
(964.241 21.8792 3.23938e-14)
(964 22.2613 3.2895e-14)
(963.757 22.6457 3.19852e-14)
(963.512 23.0325 3.00421e-14)
(963.265 23.4219 3.0447e-14)
(963.016 23.8142 3.32112e-14)
(943.483 54.0672 5.14979e-14)
(943.522 54.5285 5.21528e-14)
(943.627 54.8827 5.23702e-14)
(943.798 55.1451 4.84351e-14)
(944.043 55.3159 4.93038e-14)
(944.386 55.3611 4.92694e-14)
(944.66 55.287 5.08064e-14)
(945.004 55.1777 5.2147e-14)
(945.439 54.9673 5.13306e-14)
(945.933 54.6567 5.06782e-14)
(946.474 54.2524 4.77023e-14)
(947.056 53.7588 4.99775e-14)
(947.677 53.1783 5.21512e-14)
(948.333 52.5153 4.8882e-14)
(949.018 51.7759 4.80589e-14)
(949.728 50.9649 4.84428e-14)
(950.46 50.087 4.8585e-14)
(951.208 49.1497 4.8663e-14)
(951.967 48.1614 4.79825e-14)
(952.732 47.1294 4.77771e-14)
(953.5 46.0593 4.6679e-14)
(954.267 44.956 4.6924e-14)
(955.03 43.8251 4.68427e-14)
(955.786 42.6737 4.53474e-14)
(956.53 41.5089 4.64504e-14)
(957.26 40.3374 4.87603e-14)
(957.971 39.1642 4.83283e-14)
(958.662 37.9937 4.72332e-14)
(959.331 36.8296 4.76386e-14)
(959.975 35.6758 4.67823e-14)
(960.594 34.5369 4.60649e-14)
(961.184 33.418 4.57073e-14)
(961.745 32.3242 4.76396e-14)
(962.274 31.2599 4.85959e-14)
(962.769 30.23 4.69454e-14)
(963.23 29.2404 4.48182e-14)
(963.652 28.2975 4.30777e-14)
(964.036 27.4074 4.45307e-14)
(964.377 26.5756 4.49485e-14)
(964.676 25.8059 4.51866e-14)
(964.931 25.1013 4.54576e-14)
(965.143 24.4645 4.58054e-14)
(965.311 23.8973 4.39839e-14)
(965.437 23.4012 4.45138e-14)
(965.522 22.9739 4.62488e-14)
(965.571 22.6076 4.63496e-14)
(965.582 22.3094 4.5477e-14)
(965.551 22.0899 4.62104e-14)
(965.49 21.9211 4.73399e-14)
(965.407 21.8035 4.67073e-14)
(965.263 21.7735 4.372e-14)
(965.145 21.8006 4.37739e-14)
(965.024 21.84 4.37982e-14)
(964.853 21.9214 4.37288e-14)
(964.657 22.0509 4.45539e-14)
(964.446 22.2243 4.12476e-14)
(964.223 22.4358 4.0724e-14)
(963.988 22.6812 4.49529e-14)
(963.744 22.9569 4.37364e-14)
(963.492 23.2592 4.08682e-14)
(963.233 23.5849 4.13763e-14)
(962.968 23.9305 4.28671e-14)
(962.7 24.2931 4.00713e-14)
(962.427 24.6707 4.13139e-14)
(962.152 25.0616 4.1416e-14)
(961.873 25.465 4.12759e-14)
(961.59 25.8801 4.52746e-14)
(961.302 26.3066 4.19174e-14)
(961.01 26.7441 4.18955e-14)
(960.712 27.1926 4.30635e-14)
(960.409 27.6518 4.03095e-14)
(960.098 28.1217 3.95999e-14)
(959.781 28.6025 3.85232e-14)
(959.455 29.0941 3.9434e-14)
(959.122 29.5968 4.03466e-14)
(958.78 30.1112 3.95849e-14)
(958.43 30.6376 3.98263e-14)
(958.07 31.1768 3.98235e-14)
(957.7 31.7295 3.82275e-14)
(957.32 32.2965 3.89218e-14)
(956.93 32.8783 3.82671e-14)
(956.529 33.4758 3.83438e-14)
(956.117 34.0896 3.69349e-14)
(955.695 34.7202 3.70912e-14)
(955.261 35.3677 3.98867e-14)
(954.816 36.0327 3.89618e-14)
(954.361 36.7153 3.9443e-14)
(953.895 37.4155 3.7896e-14)
(953.419 38.133 3.62454e-14)
(952.933 38.8676 3.6e-14)
(952.438 39.6189 3.64946e-14)
(951.934 40.3864 3.76248e-14)
(951.422 41.1695 3.75189e-14)
(950.903 41.9675 3.49151e-14)
(950.376 42.7796 3.67058e-14)
(949.843 43.6051 3.89461e-14)
(949.304 44.4434 3.76769e-14)
(948.759 45.294 3.89063e-14)
(948.209 46.1563 3.72355e-14)
(947.653 47.0296 3.59763e-14)
(947.093 47.9136 3.5366e-14)
(946.528 48.8079 3.53546e-14)
(945.957 49.7122 3.71629e-14)
(945.382 50.6263 3.56339e-14)
(944.801 51.55 3.84741e-14)
(944.214 52.4832 3.68851e-14)
(943.622 53.4258 3.6793e-14)
(943.024 54.3777 3.57582e-14)
(942.419 55.3388 3.40425e-14)
(941.808 56.309 3.62192e-14)
(912.586 102.495 5.5361e-14)
(912.82 103.104 5.70876e-14)
(913.163 103.576 5.72631e-14)
(913.611 103.924 5.5208e-14)
(914.147 104.08 5.66649e-14)
(914.832 104.017 5.76298e-14)
(915.354 103.801 5.70628e-14)
(916.048 103.55 5.57092e-14)
(916.883 103.142 5.72211e-14)
(917.794 102.585 5.61048e-14)
(918.77 101.882 5.47344e-14)
(919.805 101.041 5.69838e-14)
(920.894 100.07 5.67623e-14)
(922.033 98.9724 5.3882e-14)
(923.217 97.7468 5.19572e-14)
(924.439 96.4021 5.40505e-14)
(925.693 94.9488 5.71302e-14)
(926.972 93.3905 5.58378e-14)
(928.273 91.7301 5.42815e-14)
(929.592 89.9763 5.18784e-14)
(930.922 88.1415 5.31637e-14)
(932.255 86.2385 5.29516e-14)
(933.586 84.2783 5.52827e-14)
(934.908 82.2688 5.59055e-14)
(936.218 80.2175 5.29309e-14)
(937.51 78.1356 5.30248e-14)
(938.776 76.0373 5.53881e-14)
(940.008 73.9377 5.57233e-14)
(941.199 71.8512 5.2829e-14)
(942.341 69.7925 4.93623e-14)
(943.428 67.7737 4.93617e-14)
(944.455 65.8046 5.34326e-14)
(945.417 63.8955 5.32555e-14)
(946.31 62.0573 4.94459e-14)
(947.13 60.298 5.04462e-14)
(947.876 58.6222 5.17717e-14)
(948.547 57.0326 5.08914e-14)
(949.144 55.5324 5.10422e-14)
(949.666 54.126 5.07988e-14)
(950.112 52.8196 5.313e-14)
(950.481 51.6212 5.20615e-14)
(950.774 50.5347 5.10299e-14)
(950.991 49.5629 5.06114e-14)
(951.136 48.7094 5.12155e-14)
(951.21 47.9771 5.12217e-14)
(951.21 47.3806 5.09311e-14)
(951.135 46.9105 5.32043e-14)
(950.994 46.531 5.27938e-14)
(950.784 46.298 5.03907e-14)
(950.461 46.2442 5.07776e-14)
(950.252 46.2726 5.03735e-14)
(949.937 46.3615 5.03525e-14)
(949.552 46.5422 4.87599e-14)
(949.127 46.8199 5.10475e-14)
(948.668 47.1886 5.02242e-14)
(948.181 47.6401 4.79669e-14)
(947.669 48.1667 4.94745e-14)
(947.136 48.7605 4.80574e-14)
(946.585 49.4137 4.97718e-14)
(946.02 50.1197 5.00677e-14)
(945.442 50.8732 4.84205e-14)
(944.853 51.6704 4.92775e-14)
(944.254 52.5071 4.77703e-14)
(943.646 53.3786 4.63353e-14)
(943.031 54.2794 4.42318e-14)
(942.409 55.2046 4.86755e-14)
(941.781 56.1497 4.88935e-14)
(941.147 57.1111 4.45878e-14)
(940.508 58.0861 4.76331e-14)
(939.863 59.073 4.88947e-14)
(939.21 60.071 4.58368e-14)
(938.55 61.0802 4.47701e-14)
(937.88 62.1014 4.48062e-14)
(937.198 63.1358 4.6663e-14)
(936.505 64.1852 4.32223e-14)
(935.798 65.2512 4.336e-14)
(935.076 66.3355 4.4799e-14)
(934.338 67.4396 4.3584e-14)
(933.583 68.5647 4.3086e-14)
(932.812 69.712 4.25767e-14)
(932.023 70.8825 4.16239e-14)
(931.217 72.0766 4.24497e-14)
(930.393 73.2943 4.40643e-14)
(929.553 74.536 4.34298e-14)
(928.697 75.8022 4.41412e-14)
(927.824 77.0932 4.51049e-14)
(926.935 78.4094 4.36649e-14)
(926.03 79.7515 4.05156e-14)
(925.111 81.1201 4.131e-14)
(924.176 82.5153 4.17302e-14)
(923.228 83.9367 4.25291e-14)
(922.267 85.3843 4.14744e-14)
(921.293 86.8581 4.32352e-14)
(920.308 88.3576 4.05512e-14)
(919.311 89.8824 4.1342e-14)
(918.305 91.4316 4.07302e-14)
(917.289 93.0039 4.13106e-14)
(916.264 94.598 4.08611e-14)
(915.23 96.2128 3.89754e-14)
(914.189 97.8468 4.11667e-14)
(913.141 99.4985 4.11374e-14)
(912.086 101.166 4.00571e-14)
(911.024 102.848 3.89204e-14)
(909.955 104.543 3.777e-14)
(908.88 106.25 3.97746e-14)
(907.798 107.967 3.7783e-14)
(906.709 109.693 3.92096e-14)
(905.613 111.427 3.9119e-14)
(904.509 113.171 3.96554e-14)
(903.398 114.923 3.80127e-14)
(874.299 162.415 6.17659e-14)
(875.01 162.829 6.09177e-14)
(875.89 163.074 5.95451e-14)
(876.971 163.167 6.11414e-14)
(878.024 162.957 6.14165e-14)
(878.827 162.76 5.97001e-14)
(879.931 162.424 5.85683e-14)
(881.15 161.957 6.11583e-14)
(882.44 161.328 6.15043e-14)
(883.798 160.529 6.08835e-14)
(885.209 159.605 5.97135e-14)
(886.67 158.558 5.88219e-14)
(888.187 157.362 5.87183e-14)
(889.753 156.026 5.74542e-14)
(891.353 154.579 5.83833e-14)
(892.983 153.009 5.87795e-14)
(894.641 151.307 5.86041e-14)
(896.318 149.495 5.85531e-14)
(898.004 147.592 5.76388e-14)
(899.695 145.592 5.77266e-14)
(901.388 143.488 6.00568e-14)
(903.08 141.278 5.77181e-14)
(904.77 138.97 5.79917e-14)
(906.452 136.58 5.76684e-14)
(908.117 134.123 5.77802e-14)
(909.757 131.604 5.81533e-14)
(911.365 129.029 5.6517e-14)
(912.935 126.404 5.69255e-14)
(914.46 123.742 5.99027e-14)
(915.933 121.058 5.54653e-14)
(917.348 118.367 5.67761e-14)
(918.693 115.696 5.67413e-14)
(919.961 113.063 5.81335e-14)
(921.146 110.482 5.87021e-14)
(922.238 107.974 5.80048e-14)
(923.227 105.563 5.74516e-14)
(924.104 103.276 5.71659e-14)
(924.859 101.13 5.69624e-14)
(925.486 99.1411 5.60925e-14)
(925.977 97.3219 5.70755e-14)
(926.333 95.6779 5.84037e-14)
(926.553 94.2219 5.73538e-14)
(926.637 92.971 5.67964e-14)
(926.588 91.9229 5.44104e-14)
(926.416 91.0675 5.30434e-14)
(926.148 90.3831 5.59179e-14)
(925.81 89.8605 5.71745e-14)
(925.275 89.5816 5.39478e-14)
(924.49 89.6495 5.5151e-14)
(924.049 89.7611 5.68565e-14)
(923.406 89.9618 5.77586e-14)
(922.632 90.3371 5.65494e-14)
(921.788 90.8724 5.43179e-14)
(920.9 91.5528 5.54748e-14)
(919.976 92.3645 5.60976e-14)
(919.024 93.2909 5.53659e-14)
(918.049 94.3166 5.29904e-14)
(917.057 95.4297 5.2565e-14)
(916.053 96.6211 5.28635e-14)
(915.04 97.8814 5.52961e-14)
(914.022 99.1983 5.2314e-14)
(913.002 100.559 5.16171e-14)
(911.984 101.954 5.2082e-14)
(910.968 103.376 5.15858e-14)
(909.957 104.82 5.01042e-14)
(908.95 106.283 5.13362e-14)
(907.945 107.763 5.13545e-14)
(906.942 109.26 5.05901e-14)
(905.936 110.771 5.10316e-14)
(904.927 112.298 4.91508e-14)
(903.909 113.842 5.08144e-14)
(902.881 115.402 5.09063e-14)
(901.84 116.979 4.94908e-14)
(900.784 118.576 5.09194e-14)
(899.709 120.192 4.57554e-14)
(898.616 121.83 4.48201e-14)
(897.503 123.491 4.70184e-14)
(896.368 125.176 4.5291e-14)
(895.213 126.888 4.52098e-14)
(894.035 128.627 4.80795e-14)
(892.837 130.396 4.50792e-14)
(891.617 132.198 4.58717e-14)
(890.376 134.033 4.70654e-14)
(889.116 135.901 4.84099e-14)
(887.842 137.794 4.49551e-14)
(886.559 139.704 4.53134e-14)
(885.267 141.633 4.56227e-14)
(883.969 143.575 4.89142e-14)
(882.668 145.529 4.71293e-14)
(881.367 147.494 4.67359e-14)
(880.066 149.465 4.5079e-14)
(878.771 151.439 4.75337e-14)
(877.484 153.411 4.62699e-14)
(876.208 155.378 4.48092e-14)
(874.947 157.333 4.54212e-14)
(873.704 159.271 4.54662e-14)
(872.484 161.188 4.56021e-14)
(871.288 163.079 4.15675e-14)
(870.12 164.938 4.07954e-14)
(868.983 166.76 4.13028e-14)
(867.878 168.543 4.04211e-14)
(866.808 170.282 4.00662e-14)
(865.774 171.975 4.18918e-14)
(864.777 173.621 3.92404e-14)
(863.815 175.217 4.0026e-14)
(862.889 176.764 3.82124e-14)
(861.997 178.261 3.67498e-14)
(861.137 179.709 3.87011e-14)
(860.308 181.11 3.91794e-14)
(859.507 182.462 3.88121e-14)
(847.472 205.826 6.0818e-14)
(848.276 205.854 6.13317e-14)
(849.533 205.832 6.15377e-14)
(851.024 205.727 6.21809e-14)