/*--------------------------------*- C++ -*----------------------------------*\
| =========                 |                                                 |
| \\      /  F ield         | OpenFOAM: The Open Source CFD Toolbox           |
|  \\    /   O peration     | Version:  v1706                                 |
|   \\  /    A nd           | Web:      www.OpenFOAM.com                      |
|    \\/     M anipulation  |                                                 |
\*---------------------------------------------------------------------------*/
FoamFile
{
    version     2.0;
    format      ascii;
    class       volScalarField;
    location    "1.4e-05";
    object      wallHeatFlux;
}
// * * * * * * * * * * * * * * * * * * * * * * * * * * * * * * * * * * * * * //

dimensions      [1 0 -3 0 0 0 0];


internalField   uniform 0;

boundaryField
{
    cone
    {
        type            calculated;
        value           nonuniform List<scalar> 
181
(
7583.86
7721.7
7864.33
8011.25
8161.91
8315.75
8472.17
8630.55
8790.29
8950.75
9111.31
9271.36
9430.32
9587.62
9742.76
9895.27
10044.8
10190.9
10333.4
10472.2
10607.2
10738.6
10866.4
10990.9
11112.4
11231.3
11348.1
11463.2
11577.3
11690.8
11804.4
11918.5
12033.8
12150.8
12269.8
12391.4
12515.9
12643.6
12774.8
12909.8
13048.7
13191.6
13338.7
13490
13645.6
13805.5
13969.7
14138.2
14311
14488.2
14669.7
14855.6
15046
15240.8
15440.2
15644.3
15853.2
16067
16285.9
16510
16739.5
16974.7
17215.8
17463
17716.4
17976.5
18243.3
18517.1
18798.2
19086.7
19382.9
19686.9
19998.8
20318.7
20646.6
20982.4
21326.1
21677.4
22035.7
22400.7
22771.5
23147.2
23526.4
23907.7
24289.1
24668.1
25042.1
25407.7
25760.8
26097
26411.1
26697.2
26948.7
27158.5
27319.1
27422.2
27459.8
27423.7
27306.3
27101
26802.9
26411.7
25926.1
25340.3
24655.9
23877
23009.8
22063.1
21047.5
19974.9
18859.2
17714.6
16554.2
15390.8
14236.5
13102.4
11998
10931.3
9908.88
8935.65
8015.08
7149.34
6339.44
5585.36
4886.21
4240.4
3646.19
3101.22
2602.73
2147.96
1734.08
1358.19
1017.34
708.705
429.592
177.464
-50.064
-255.211
-440.035
-606.431
-756.138
-890.75
-1011.72
-1120.36
-1217.88
-1305.35
-1383.77
-1454.02
-1516.9
-1573.14
-1623.4
-1668.27
-1708.29
-1743.94
-1775.66
-1803.85
-1828.87
-1851.04
-1870.67
-1888
-1903.3
-1916.76
-1928.6
-1938.99
-1948.09
-1956.04
-1962.98
-1969.02
-1974.26
-1978.8
-1982.72
-1986.1
-1989.01
-1991.5
-1993.62
-1995.43
-1996.96
-1998.25
-1999.33
-2000.23
-2000.98
)
;
    }
    inlet
    {
        type            calculated;
        value           uniform 0;
    }
    rWedge
    {
        type            wedge;
    }
    lWedge
    {
        type            wedge;
    }
    outlet
    {
        type            calculated;
        value           nonuniform 0();
    }
    procBoundary1to0
    {
        type            processor;
        value           uniform 0;
    }
    procBoundary1to2
    {
        type            processor;
        value           uniform 0;
    }
}


// ************************************************************************* //
