/*--------------------------------*- C++ -*----------------------------------*\
| =========                 |                                                 |
| \\      /  F ield         | OpenFOAM: The Open Source CFD Toolbox           |
|  \\    /   O peration     | Version:  v1706                                 |
|   \\  /    A nd           | Web:      www.OpenFOAM.com                      |
|    \\/     M anipulation  |                                                 |
\*---------------------------------------------------------------------------*/
FoamFile
{
    version     2.0;
    format      ascii;
    class       volVectorField;
    location    "2e-05";
    object      U;
}
// * * * * * * * * * * * * * * * * * * * * * * * * * * * * * * * * * * * * * //

dimensions      [0 1 -1 0 0 0 0];


internalField   nonuniform List<vector> 
30104
(
(2764.5 -4.57459e-11 1.94425e-15)
(2764.5 -4.37039e-11 6.55894e-15)
(2764.5 -4.26548e-11 5.89894e-15)
(2764.5 -4.25824e-11 2.57022e-15)
(2764.5 -4.31509e-11 4.41151e-15)
(2764.5 -4.47402e-11 3.61049e-15)
(2764.5 -4.57996e-11 6.11787e-16)
(2764.5 -4.66615e-11 1.49039e-15)
(2764.5 -4.61689e-11 3.45683e-15)
(2764.5 -4.58348e-11 3.73858e-15)
(2764.5 -4.53923e-11 3.0521e-15)
(2764.5 -4.35651e-11 4.10135e-15)
(2764.5 -4.03514e-11 5.48325e-16)
(2764.5 -3.7955e-11 2.74845e-15)
(2764.5 -3.66183e-11 4.977e-15)
(2764.5 -3.61698e-11 5.55117e-15)
(2764.5 -3.74718e-11 4.25149e-15)
(2764.5 -3.77319e-11 2.0297e-15)
(2764.5 -4.00284e-11 4.54463e-15)
(2764.5 -4.21705e-11 3.71647e-15)
(2764.5 -4.49428e-11 2.91749e-15)
(2764.5 -4.51222e-11 2.81654e-15)
(2764.5 -4.55377e-11 2.75726e-15)
(2764.5 -4.78856e-11 2.26378e-15)
(2764.5 -5.11661e-11 4.19699e-15)
(2764.5 -5.56822e-11 3.14495e-15)
(2764.5 -5.85135e-11 2.05575e-15)
(2764.5 -5.93771e-11 2.74003e-15)
(2764.5 -5.88102e-11 2.92515e-15)
(2764.5 -5.72025e-11 4.51978e-15)
(2764.5 -5.58568e-11 3.69977e-15)
(2764.5 -5.64025e-11 1.39861e-15)
(2764.5 -5.66551e-11 2.09495e-15)
(2764.5 -5.65409e-11 2.47738e-15)
(2764.5 -5.70211e-11 2.74842e-15)
(2764.5 -5.64166e-11 3.95718e-15)
(2764.5 -5.469e-11 2.08663e-15)
(2764.5 -5.32515e-11 3.14956e-15)
(2764.5 -4.74006e-11 4.2901e-15)
(2764.5 -3.69208e-11 1.83275e-15)
(2764.5 -3.31646e-11 1.77157e-15)
(2764.5 -2.69161e-11 1.72896e-15)
(2764.5 -2.35027e-11 1.57101e-15)
(2764.5 -2.12975e-11 1.56272e-15)
(2764.5 -1.91104e-11 1.81055e-15)
(2764.5 -1.58765e-11 1.87809e-15)
(2764.5 -1.26794e-11 1.94471e-15)
(2764.5 -1.07332e-11 8.71605e-16)
(2764.5 -7.4903e-12 2.85877e-15)
(2764.5 -4.64354e-12 3.17227e-15)
(2764.5 -1.36493e-12 1.95594e-15)
(2764.5 9.04697e-13 1.18659e-15)
(2764.5 1.51855e-12 1.41855e-15)
(2764.5 2.87373e-12 3.05817e-15)
(2764.5 2.87335e-12 1.47613e-15)
(2764.5 -8.3583e-13 2.1705e-15)
(2764.5 -3.75643e-12 3.16343e-15)
(2764.5 -7.75316e-12 1.28431e-15)
(2764.5 -8.96301e-12 2.1538e-15)
(2764.5 -4.52368e-12 2.48783e-15)
(2764.5 -5.52029e-12 3.2604e-15)
(2764.5 -9.94486e-12 3.61896e-15)
(2764.5 -1.41379e-11 2.26407e-15)
(2764.5 -1.90707e-11 1.98421e-15)
(2764.5 -2.63979e-11 2.181e-15)
(2764.5 -3.46456e-11 2.14342e-15)
(2764.5 -3.82022e-11 2.02382e-15)
(2764.5 -3.94423e-11 3.61532e-15)
(2764.5 -4.32704e-11 1.97705e-15)
(2764.5 -4.42267e-11 5.48351e-16)
(2764.5 -4.43608e-11 1.78666e-15)
(2764.5 -4.53002e-11 2.46144e-15)
(2764.5 -4.7702e-11 1.01021e-15)
(2764.5 -5.31766e-11 2.48771e-15)
(2764.5 -5.48786e-11 2.80424e-15)
(2764.5 -5.69817e-11 1.69442e-15)
(2764.5 -5.93825e-11 1.16414e-15)
(2764.5 -6.47569e-11 4.45756e-16)
(2764.5 -6.95525e-11 2.89923e-15)
(2764.5 -6.92497e-11 2.76642e-15)
(2764.5 -7.00064e-11 2.37086e-15)
(2764.5 -7.36374e-11 4.06021e-15)
(2764.5 -7.55752e-11 2.78849e-15)
(2764.5 -7.56564e-11 2.69816e-15)
(2764.5 -7.8272e-11 2.97914e-15)
(2764.5 -8.05943e-11 2.60702e-15)
(2764.5 -7.91665e-11 2.69516e-15)
(2764.5 -7.92855e-11 2.4938e-15)
(2764.5 -7.85828e-11 1.50176e-15)
(2764.5 -7.74404e-11 2.2214e-15)
(2764.5 -7.69995e-11 9.42475e-16)
(2764.5 -7.93691e-11 2.14383e-15)
(2764.5 -7.93425e-11 2.65065e-15)
(2764.5 -7.96949e-11 1.96911e-15)
(2764.5 -8.05186e-11 -1.78059e-17)
(2764.5 -8.02196e-11 -4.53279e-16)
(2764.5 -7.98033e-11 1.81751e-15)
(2764.5 -8.16905e-11 1.02755e-15)
(2764.5 -8.06556e-11 1.9109e-15)
(2764.5 -7.79249e-11 8.66212e-16)
(2764.5 -7.38478e-11 7.1487e-17)
(2764.5 -7.3925e-11 2.92945e-15)
(2764.5 -7.46103e-11 3.34325e-15)
(2764.5 -7.49062e-11 2.44278e-15)
(2764.5 -7.64952e-11 1.71658e-15)
(2764.5 -7.71515e-11 1.50873e-15)
(2764.5 -7.29987e-11 2.07778e-15)
(2764.5 -6.46158e-11 1.99689e-15)
(2764.5 -5.93422e-11 1.59807e-15)
(2764.5 -5.60896e-11 2.11686e-15)
(2764.5 -4.9107e-11 1.80564e-15)
(2764.5 -3.96268e-11 1.89088e-17)
(2764.5 -3.14581e-11 2.30601e-15)
(2764.5 -9.74774e-12 7.58148e-16)
(2764.5 3.21346e-13 -1.11694e-15)
(2764.5 1.23399e-11 1.64646e-15)
(2764.5 1.49968e-11 1.92725e-15)
(2764.5 2.12773e-11 1.82856e-15)
(2764.5 3.2456e-11 1.80362e-15)
(2764.5 3.33776e-11 1.6734e-15)
(2764.5 3.07807e-11 1.71803e-15)
(2764.5 2.65285e-11 1.51746e-15)
(2764.5 1.4591e-11 2.07108e-15)
(2764.5 3.5379e-13 9.68812e-16)
(2764.5 -2.03721e-11 -1.12784e-16)
(2764.5 -3.88724e-11 1.64587e-15)
(2764.5 -5.08936e-11 3.50531e-15)
(2764.5 -6.7051e-11 2.65184e-15)
(2764.5 -7.54734e-11 2.79896e-15)
(2764.5 -7.63132e-11 1.64617e-15)
(2764.5 -7.75574e-11 1.79709e-15)
(2764.5 -7.8143e-11 -5.92645e-17)
(2764.5 -7.48144e-11 7.19573e-16)
(2764.5 -6.02312e-11 1.45585e-15)
(2764.5 -4.52003e-11 1.36519e-15)
(2764.5 -2.83573e-11 1.32662e-15)
(2764.5 -1.90655e-11 8.89638e-16)
(2764.5 -1.95937e-11 2.17229e-15)
(2764.5 -1.88981e-11 8.33343e-17)
(2764.5 -2.01112e-11 2.56971e-15)
(2764.5 -2.94616e-11 2.67721e-15)
(2764.5 -3.60136e-11 3.70892e-16)
(2764.5 -4.59063e-11 -1.08812e-16)
(2764.5 -5.53609e-11 7.97481e-16)
(2764.5 -5.33718e-11 1.02266e-15)
(2764.5 -5.2093e-11 1.52228e-15)
(2764.5 -4.8949e-11 1.00824e-15)
(2764.5 -4.07728e-11 1.13194e-15)
(2764.5 -3.45821e-11 1.75226e-15)
(2764.5 -3.43682e-11 1.49447e-15)
(2764.5 -3.3983e-11 1.70978e-15)
(2764.5 -3.63434e-11 1.33348e-15)
(2764.5 -3.9833e-11 1.72437e-15)
(2764.5 -4.51012e-11 1.02099e-15)
(2764.5 -4.64961e-11 1.6954e-15)
(2764.5 -4.03086e-11 1.54552e-15)
(2764.5 -3.41127e-11 9.03992e-16)
(2764.5 -2.23683e-11 2.34483e-15)
(2764.5 -1.96205e-11 2.83233e-15)
(2764.5 -2.30441e-11 1.91549e-15)
(2764.5 -2.69029e-11 3.0348e-15)
(2764.5 -3.09604e-11 7.01614e-16)
(2764.5 -3.25169e-11 1.44563e-15)
(2764.5 -2.79592e-11 2.78669e-15)
(2764.5 -2.44442e-11 1.7873e-15)
(2764.5 -2.92272e-11 1.00552e-15)
(2764.5 -3.86836e-11 1.10419e-15)
(2764.5 -4.02203e-11 2.21363e-15)
(2764.5 -4.53199e-11 7.12846e-16)
(2764.5 -4.62412e-11 1.50219e-15)
(2764.5 -4.21808e-11 1.03044e-15)
(2764.5 -3.65349e-11 1.34337e-15)
(2764.5 -2.93794e-11 1.59732e-15)
(2764.5 -2.91193e-11 1.47669e-15)
(2764.5 -2.90257e-11 1.83486e-15)
(2764.5 -3.39233e-11 1.57662e-15)
(2764.5 -3.59005e-11 1.29856e-15)
(2764.5 -3.91244e-11 1.3022e-15)
(2764.5 -4.4792e-11 1.85102e-15)
(2764.5 -5.56508e-11 7.52492e-16)
(2764.5 -6.29403e-11 1.55225e-15)
(2764.5 -6.54592e-11 1.67278e-15)
(2764.5 -6.18331e-11 1.19488e-15)
(2764.5 -5.54133e-11 2.17479e-15)
(2764.5 -5.63798e-11 1.48374e-15)
(2764.5 -5.49325e-11 8.38792e-16)
(2764.5 -5.26437e-11 1.74492e-16)
(2764.5 -4.60287e-11 1.31184e-15)
(2764.5 -4.26623e-11 1.35055e-15)
(2764.5 -3.78864e-11 1.34909e-15)
(2764.5 -2.88244e-11 1.04765e-15)
(2764.5 -2.50697e-11 5.53342e-16)
(2764.5 -2.57748e-11 6.83407e-16)
(2764.5 -2.89507e-11 1.66639e-15)
(2764.5 -3.77145e-11 1.42134e-15)
(2764.5 -4.3955e-11 5.63362e-16)
(2764.5 -4.22472e-11 7.55235e-16)
(2764.5 -3.53171e-11 5.93907e-16)
(2764.5 -1.69607e-11 1.1061e-15)
(2764.5 -1.34599e-11 1.35396e-15)
(2764.5 -1.93789e-11 1.4318e-15)
(2764.5 -2.70458e-11 1.78854e-15)
(2764.5 -3.76525e-11 6.68244e-16)
(2764.5 -4.5133e-11 1.12451e-15)
(2764.5 -5.15127e-11 2.03092e-15)
(2764.5 -5.86022e-11 1.33678e-15)
(2764.5 -6.4026e-11 1.21028e-15)
(2764.5 -6.65835e-11 1.03394e-15)
(2764.5 -7.19675e-11 1.22891e-15)
(2764.5 -7.5412e-11 9.41058e-16)
(2764.5 -1.23334e-10 1.18447e-14)
(2764.5 -1.24372e-10 1.64589e-14)
(2764.5 -1.24833e-10 1.17157e-14)
(2764.5 -1.23568e-10 1.03251e-14)
(2764.5 -1.21528e-10 1.10747e-14)
(2764.5 -1.21725e-10 8.78378e-15)
(2764.5 -1.20875e-10 7.15151e-15)
(2764.5 -1.22566e-10 1.34981e-14)
(2764.5 -1.23938e-10 1.38184e-14)
(2764.5 -1.24697e-10 1.27157e-14)
(2764.5 -1.25775e-10 1.25829e-14)
(2764.5 -1.27944e-10 1.38905e-14)
(2764.5 -1.28834e-10 1.49842e-14)
(2764.5 -1.29592e-10 1.42918e-14)
(2764.5 -1.28451e-10 1.55413e-14)
(2764.5 -1.2435e-10 1.47813e-14)
(2764.5 -1.22179e-10 1.17544e-14)
(2764.5 -1.23935e-10 5.12144e-15)
(2764.5 -1.18589e-10 5.93939e-15)
(2764.5 -1.13009e-10 9.01593e-15)
(2764.5 -1.0464e-10 9.14303e-15)
(2764.5 -1.02939e-10 8.3178e-15)
(2764.5 -9.82443e-11 9.34335e-15)
(2764.5 -9.31731e-11 7.26021e-15)
(2764.5 -8.82637e-11 7.77925e-15)
(2764.5 -8.30856e-11 9.71795e-15)
(2764.5 -7.84628e-11 9.31481e-15)
(2764.5 -7.66202e-11 3.13435e-15)
(2764.5 -7.57246e-11 6.19335e-15)
(2764.5 -7.56008e-11 6.66963e-15)
(2764.5 -7.04387e-11 5.74704e-15)
(2764.5 -6.35455e-11 3.67166e-15)
(2764.5 -6.31127e-11 4.96673e-15)
(2764.5 -6.35937e-11 5.814e-15)
(2764.5 -6.35931e-11 5.48536e-15)
(2764.5 -6.8164e-11 9.13397e-15)
(2764.5 -7.12362e-11 8.59382e-15)
(2764.5 -7.70703e-11 9.26143e-15)
(2764.5 -9.02594e-11 9.57763e-15)
(2764.5 -1.03519e-10 9.32893e-15)
(2764.5 -1.14302e-10 8.87198e-15)
(2764.5 -1.28369e-10 8.4013e-15)
(2764.5 -1.33964e-10 8.25227e-15)
(2764.5 -1.40259e-10 7.92052e-15)
(2764.5 -1.46111e-10 7.72963e-15)
(2764.5 -1.53107e-10 7.64614e-15)
(2764.5 -1.57467e-10 7.99979e-15)
(2764.5 -1.63713e-10 6.72671e-15)
(2764.5 -1.72576e-10 9.29703e-15)
(2764.5 -1.80292e-10 8.19905e-15)
(2764.5 -1.8741e-10 7.049e-15)
(2764.5 -1.91865e-10 5.7609e-15)
(2764.5 -1.93452e-10 6.44652e-15)
(2764.5 -1.96454e-10 9.88699e-15)
(2764.5 -1.94409e-10 6.77738e-15)
(2764.5 -1.88262e-10 6.47243e-15)
(2764.5 -1.85784e-10 8.44683e-15)
(2764.5 -1.85361e-10 8.91585e-15)
(2764.5 -1.80366e-10 9.47548e-15)
(2764.5 -1.77161e-10 8.39403e-15)
(2764.5 -1.64966e-10 7.5296e-15)
(2764.5 -1.4963e-10 1.0447e-14)
(2764.5 -1.32116e-10 8.36714e-15)
(2764.5 -1.2454e-10 6.48373e-15)
(2764.5 -1.11536e-10 4.17465e-15)
(2764.5 -9.84281e-11 8.47503e-15)
(2764.5 -9.78393e-11 3.80633e-15)
(2764.5 -9.92023e-11 7.40934e-15)
(2764.5 -9.31444e-11 7.03979e-15)
(2764.5 -9.44624e-11 6.99963e-15)
(2764.5 -9.52085e-11 6.87684e-15)
(2764.5 -9.5895e-11 5.27562e-15)
(2764.5 -9.3277e-11 4.99845e-15)
(2764.5 -8.61134e-11 6.29402e-15)
(2764.5 -8.62441e-11 7.3508e-15)
(2764.5 -8.06945e-11 9.09003e-15)
(2764.5 -7.04065e-11 7.3233e-15)
(2764.5 -6.28656e-11 5.46603e-15)
(2764.5 -6.08212e-11 6.66362e-15)
(2764.5 -6.26153e-11 6.22862e-15)
(2764.5 -6.02138e-11 5.9343e-15)
(2764.5 -5.68109e-11 7.8374e-15)
(2764.5 -6.3384e-11 8.21529e-15)
(2764.5 -6.69594e-11 6.16571e-15)
(2764.5 -6.71533e-11 6.09223e-15)
(2764.5 -7.15258e-11 7.90594e-15)
(2764.5 -7.56244e-11 6.55243e-15)
(2764.5 -7.564e-11 6.68028e-15)
(2764.5 -7.85247e-11 6.46512e-15)
(2764.5 -7.78726e-11 5.77666e-15)
(2764.5 -7.42067e-11 5.33903e-15)
(2764.5 -6.18392e-11 8.67458e-15)
(2764.5 -6.32496e-11 8.60771e-15)
(2764.5 -6.68693e-11 7.29014e-15)
(2764.5 -6.95287e-11 3.48316e-15)
(2764.5 -7.26302e-11 4.86401e-15)
(2764.5 -7.10267e-11 4.65803e-15)
(2764.5 -6.89307e-11 3.01714e-15)
(2764.5 -7.46042e-11 3.42182e-15)
(2764.5 -7.8308e-11 4.79199e-15)
(2764.5 -8.21207e-11 6.4317e-15)
(2764.5 -7.98176e-11 6.74438e-15)
(2764.5 -8.15063e-11 6.72341e-15)
(2764.5 -8.25777e-11 5.3419e-15)
(2764.5 -8.49171e-11 5.09063e-15)
(2764.5 -8.83235e-11 7.64473e-15)
(2764.5 -1.08957e-10 7.99366e-15)
(2764.5 -1.15381e-10 8.27696e-15)
(2764.5 -1.24824e-10 7.75675e-15)
(2764.5 -1.37164e-10 7.95218e-15)
(2764.5 -1.51288e-10 6.93179e-15)
(2764.5 -1.69194e-10 3.44926e-15)
(2764.5 -1.82931e-10 6.30562e-15)
(2764.5 -2.07057e-10 1.924e-15)
(2764.5 -2.20726e-10 5.26112e-15)
(2764.5 -2.1714e-10 7.89987e-15)
(2764.5 -2.1694e-10 4.95203e-15)
(2764.5 -2.1895e-10 5.77241e-15)
(2764.5 -2.26313e-10 4.64956e-15)
(2764.5 -2.19714e-10 5.00638e-15)
(2764.5 -2.06991e-10 5.53121e-15)
(2764.5 -1.87459e-10 5.49046e-15)
(2764.5 -1.6211e-10 4.96123e-15)
(2764.5 -1.30151e-10 3.65878e-15)
(2764.5 -1.0045e-10 5.65508e-15)
(2764.5 -7.00071e-11 5.30306e-15)
(2764.5 -6.87941e-11 4.07733e-15)
(2764.5 -5.2717e-11 7.39434e-15)
(2764.5 -5.32306e-11 8.3674e-15)
(2764.5 -6.06411e-11 5.15593e-15)
(2764.5 -6.44067e-11 6.27612e-15)
(2764.5 -7.10836e-11 6.33303e-15)
(2764.5 -8.84437e-11 4.99639e-15)
(2764.5 -1.16826e-10 6.57237e-15)
(2764.5 -1.4942e-10 8.22753e-15)
(2764.5 -1.66794e-10 6.14585e-15)
(2764.5 -1.68766e-10 7.04052e-15)
(2764.5 -1.602e-10 3.66189e-15)
(2764.5 -1.51062e-10 3.20747e-15)
(2764.5 -1.40508e-10 5.99698e-15)
(2764.5 -1.20249e-10 6.60931e-15)
(2764.5 -1.06156e-10 4.15005e-15)
(2764.5 -8.50051e-11 3.76204e-15)
(2764.5 -8.4472e-11 3.85633e-15)
(2764.5 -9.02673e-11 3.97648e-15)
(2764.5 -9.31782e-11 3.62749e-15)
(2764.5 -1.05329e-10 4.04995e-15)
(2764.5 -1.22469e-10 5.81812e-15)
(2764.5 -1.2451e-10 3.65534e-15)
(2764.5 -1.27197e-10 4.07168e-15)
(2764.5 -1.31746e-10 3.92571e-15)
(2764.5 -1.27981e-10 4.67074e-15)
(2764.5 -1.2131e-10 5.681e-15)
(2764.5 -1.12835e-10 4.2069e-15)
(2764.5 -1.15073e-10 3.81331e-15)
(2764.5 -1.21027e-10 3.96344e-15)
(2764.5 -1.22596e-10 5.17723e-15)
(2764.5 -1.27199e-10 5.43007e-15)
(2764.5 -1.15828e-10 5.74446e-15)
(2764.5 -1.053e-10 5.55777e-15)
(2764.5 -1.00841e-10 5.71498e-15)
(2764.5 -1.02938e-10 6.28196e-15)
(2764.5 -9.89885e-11 6.46951e-15)
(2764.5 -1.05887e-10 4.95842e-15)
(2764.5 -1.05198e-10 5.24404e-15)
(2764.5 -9.35449e-11 4.40507e-15)
(2764.5 -9.20265e-11 3.78151e-15)
(2764.5 -9.86884e-11 4.01769e-15)
(2764.5 -1.07898e-10 4.34999e-15)
(2764.5 -1.17417e-10 5.34918e-15)
(2764.5 -1.26592e-10 5.53328e-15)
(2764.5 -1.23132e-10 5.33904e-15)
(2764.5 -1.19983e-10 5.19698e-15)
(2764.5 -1.11174e-10 4.85569e-15)
(2764.5 -9.74744e-11 5.43307e-15)
(2764.5 -7.862e-11 5.34441e-15)
(2764.5 -7.70436e-11 2.73643e-15)
(2764.5 -8.18329e-11 4.80201e-15)
(2764.5 -7.50506e-11 3.86457e-15)
(2764.5 -7.71024e-11 3.43997e-15)
(2764.5 -8.74998e-11 4.83788e-15)
(2764.5 -9.79507e-11 3.92382e-15)
(2764.5 -1.07998e-10 3.59373e-15)
(2764.5 -1.05957e-10 5.06669e-15)
(2764.5 -1.02135e-10 5.64029e-15)
(2764.5 -1.04575e-10 5.11119e-15)
(2764.5 -1.10787e-10 5.18495e-15)
(2764.5 -1.21972e-10 6.30686e-15)
(2764.5 -1.36217e-10 2.51582e-15)
(2764.5 -1.49039e-10 3.74008e-15)
(2764.5 -1.53176e-10 4.10395e-15)
(2764.5 -1.51261e-10 3.57448e-15)
(2764.5 -1.45741e-10 4.33442e-15)
(2764.5 -1.31813e-10 4.18364e-15)
(2764.5 -1.26516e-10 3.98634e-15)
(2764.5 -1.28423e-10 3.87225e-15)
(2764.5 -1.30781e-10 4.15078e-15)
(2764.5 -1.4018e-10 4.41531e-15)
(2764.5 -1.44877e-10 4.44121e-15)
(2764.5 -1.2948e-10 4.28062e-15)
(2764.5 -1.08766e-10 4.54711e-15)
(2764.5 -1.01671e-10 3.89209e-15)
(2764.5 -9.33011e-11 1.88524e-15)
(2764.5 -8.9526e-11 3.74659e-15)
(2764.5 -9.45686e-11 5.40759e-15)
(2764.5 -9.60776e-11 6.41838e-15)
(2764.5 -1.02195e-10 7.0427e-15)
(2764.5 -1.07211e-10 7.26157e-15)
(2764.5 -1.1448e-10 5.07126e-15)
(2764.5 -1.29608e-10 4.13091e-15)
(2764.5 -2.09518e-10 1.81499e-14)
(2764.5 -2.08474e-10 2.02303e-14)
(2764.5 -2.07813e-10 2.11023e-14)
(2764.5 -2.0923e-10 1.87809e-14)
(2764.5 -2.05983e-10 2.10628e-14)
(2764.5 -2.03306e-10 2.03964e-14)
(2764.5 -2.00291e-10 2.12722e-14)
(2764.5 -2.01705e-10 2.24348e-14)
(2764.5 -2.00864e-10 2.2307e-14)
(2764.5 -2.00277e-10 2.05362e-14)
(2764.5 -2.01189e-10 2.05871e-14)
(2764.5 -2.03889e-10 2.21854e-14)
(2764.5 -2.06737e-10 1.69181e-14)
(2764.5 -2.09118e-10 1.68214e-14)
(2764.5 -2.11543e-10 2.09506e-14)
(2764.5 -2.11117e-10 2.11122e-14)
(2764.5 -1.83856e-10 1.24359e-14)
(2764.5 -1.91902e-10 1.32895e-14)
(2764.5 -2.01007e-10 1.45465e-14)
(2764.5 -2.08178e-10 1.50665e-14)
(2764.5 -2.13861e-10 1.59745e-14)
(2764.5 -2.18467e-10 1.2774e-14)
(2764.5 -2.19993e-10 1.05151e-14)
(2764.5 -2.24407e-10 1.67324e-14)
(2764.5 -2.29009e-10 1.41858e-14)
(2764.5 -2.30578e-10 1.274e-14)
(2764.5 -2.306e-10 1.44787e-14)
(2764.5 -2.34379e-10 1.32382e-14)
(2764.5 -2.41026e-10 1.47045e-14)
(2764.5 -2.45964e-10 1.38125e-14)
(2764.5 -2.44775e-10 1.16556e-14)
(2764.5 -2.39963e-10 1.23296e-14)
(2764.5 -2.3364e-10 1.05576e-14)
(2764.5 -2.25889e-10 1.27529e-14)
(2764.5 -2.20756e-10 1.47459e-14)
(2764.5 -2.15128e-10 1.12606e-14)
(2764.5 -2.02206e-10 1.28996e-14)
(2764.5 -1.85968e-10 1.33198e-14)
(2764.5 -1.67349e-10 1.25616e-14)
(2764.5 -1.52979e-10 1.25489e-14)
(2764.5 -1.46738e-10 1.29989e-14)
(2764.5 -1.35385e-10 1.25624e-14)
(2764.5 -1.31901e-10 1.25335e-14)
(2764.5 -1.27945e-10 1.26336e-14)
(2764.5 -1.20159e-10 1.18765e-14)
(2764.5 -1.158e-10 1.22361e-14)
(2764.5 -1.07952e-10 1.18267e-14)
(2764.5 -1.02996e-10 1.17811e-14)
(2764.5 -9.66317e-11 1.17629e-14)
(2764.5 -9.14848e-11 1.16112e-14)
(2764.5 -9.02003e-11 1.23447e-14)
(2764.5 -8.77265e-11 1.35917e-14)
(2764.5 -8.56902e-11 1.07965e-14)
(2764.5 -8.86522e-11 1.10395e-14)
(2764.5 -8.53654e-11 1.32865e-14)
(2764.5 -8.88247e-11 1.27534e-14)
(2764.5 -9.43201e-11 1.24458e-14)
(2764.5 -1.06827e-10 1.47641e-14)
(2764.5 -1.27553e-10 1.13204e-14)
(2764.5 -1.5229e-10 1.23904e-14)
(2764.5 -1.56627e-10 1.12477e-14)
(2764.5 -1.64624e-10 1.12316e-14)
(2764.5 -1.65396e-10 1.32387e-14)
(2764.5 -1.62649e-10 1.39969e-14)
(2764.5 -1.52609e-10 1.29774e-14)
(2764.5 -1.51038e-10 1.06456e-14)
(2764.5 -1.50374e-10 1.02632e-14)
(2764.5 -1.50463e-10 1.05569e-14)
(2764.5 -1.48812e-10 1.01915e-14)
(2764.5 -1.52115e-10 8.8775e-15)
(2764.5 -1.51345e-10 7.92137e-15)
(2764.5 -1.62134e-10 1.41005e-14)
(2764.5 -1.67723e-10 1.0059e-14)
(2764.5 -1.758e-10 1.00631e-14)
(2764.5 -1.84789e-10 1.1725e-14)
(2764.5 -1.88801e-10 1.09607e-14)
(2764.5 -1.82921e-10 1.09718e-14)
(2764.5 -1.78495e-10 1.07677e-14)
(2764.5 -1.76078e-10 1.21397e-14)
(2764.5 -1.76478e-10 1.2228e-14)
(2764.5 -1.68905e-10 1.0582e-14)
(2764.5 -1.66237e-10 7.58652e-15)
(2764.5 -1.67165e-10 1.19464e-14)
(2764.5 -1.6897e-10 1.15887e-14)
(2764.5 -1.71534e-10 9.34458e-15)
(2764.5 -1.79552e-10 1.32348e-14)
(2764.5 -1.90891e-10 1.05e-14)
(2764.5 -2.01077e-10 1.00292e-14)
(2764.5 -2.12252e-10 1.18249e-14)
(2764.5 -2.2778e-10 1.21002e-14)
(2764.5 -2.28345e-10 9.71095e-15)
(2764.5 -2.14452e-10 9.31293e-15)
(2764.5 -2.10676e-10 1.09078e-14)
(2764.5 -2.1162e-10 9.2239e-15)
(2764.5 -2.10367e-10 8.8335e-15)
(2764.5 -2.18709e-10 7.49638e-15)
(2764.5 -2.14373e-10 7.11682e-15)
(2764.5 -2.04267e-10 9.59322e-15)
(2764.5 -2.05868e-10 1.06581e-14)
(2764.5 -2.06293e-10 1.00271e-14)
(2764.5 -1.99541e-10 9.26947e-15)
(2764.5 -1.89788e-10 9.68694e-15)
(2764.5 -1.79483e-10 8.21441e-15)
(2764.5 -1.70412e-10 7.77651e-15)
(2764.5 -1.58945e-10 7.89729e-15)
(2764.5 -1.50239e-10 8.61787e-15)
(2764.5 -1.47531e-10 1.07064e-14)
(2764.5 -1.39023e-10 9.39034e-15)
(2764.5 -1.18177e-10 9.36538e-15)
(2764.5 -9.09599e-11 9.85332e-15)
(2764.5 -7.78909e-11 7.2812e-15)
(2764.5 -6.53401e-11 9.87962e-15)
(2764.5 -6.01757e-11 6.75051e-15)
(2764.5 -6.94357e-11 1.08911e-14)
(2764.5 -7.4013e-11 9.7233e-15)
(2764.5 -7.57635e-11 8.57159e-15)
(2764.5 -7.59269e-11 9.2393e-15)
(2764.5 -8.48529e-11 9.77042e-15)
(2764.5 -9.36475e-11 8.25901e-15)
(2764.5 -1.13458e-10 9.57526e-15)
(2764.5 -1.41236e-10 1.14798e-14)
(2764.5 -1.72742e-10 8.51122e-15)
(2764.5 -1.99912e-10 7.8173e-15)
(2764.5 -2.26013e-10 9.93564e-15)
(2764.5 -2.34609e-10 8.76716e-15)
(2764.5 -2.42183e-10 1.13338e-14)
(2764.5 -2.36415e-10 1.17796e-14)
(2764.5 -2.38549e-10 1.08617e-14)
(2764.5 -2.26877e-10 8.33168e-15)
(2764.5 -2.19463e-10 9.05724e-15)
(2764.5 -1.98654e-10 8.72025e-15)
(2764.5 -1.61871e-10 9.37983e-15)
(2764.5 -1.41108e-10 9.15702e-15)
(2764.5 -1.30512e-10 1.01257e-14)
(2764.5 -1.35841e-10 9.82396e-15)
(2764.5 -1.47559e-10 1.00931e-14)
(2764.5 -1.55095e-10 9.76514e-15)
(2764.5 -1.70386e-10 9.27654e-15)
(2764.5 -1.91609e-10 9.72633e-15)
(2764.5 -2.07793e-10 8.79841e-15)
(2764.5 -2.12272e-10 8.22824e-15)
(2764.5 -2.06969e-10 7.96201e-15)
(2764.5 -2.03947e-10 6.88658e-15)
(2764.5 -1.98482e-10 7.57726e-15)
(2764.5 -1.82902e-10 6.03432e-15)
(2764.5 -1.57189e-10 6.09352e-15)
(2764.5 -1.50895e-10 6.27714e-15)
(2764.5 -1.37054e-10 6.10901e-15)
(2764.5 -1.28039e-10 9.31325e-15)
(2764.5 -1.33946e-10 9.97144e-15)
(2764.5 -1.49188e-10 8.44614e-15)
(2764.5 -1.67349e-10 8.71515e-15)
(2764.5 -1.78799e-10 8.72082e-15)
(2764.5 -1.8121e-10 8.6237e-15)
(2764.5 -1.90466e-10 1.0989e-14)
(2764.5 -1.99563e-10 9.0334e-15)
(2764.5 -2.07767e-10 8.73994e-15)
(2764.5 -2.09847e-10 8.02755e-15)
(2764.5 -2.09366e-10 9.02178e-15)
(2764.5 -1.91534e-10 8.26789e-15)
(2764.5 -1.91658e-10 8.90724e-15)
(2764.5 -1.88193e-10 7.46049e-15)
(2764.5 -1.90688e-10 8.50482e-15)
(2764.5 -1.87013e-10 9.35187e-15)
(2764.5 -1.77459e-10 8.95101e-15)
(2764.5 -1.58646e-10 8.1109e-15)
(2764.5 -1.51073e-10 8.72253e-15)
(2764.5 -1.42601e-10 8.41998e-15)
(2764.5 -1.45998e-10 9.16618e-15)
(2764.5 -1.61685e-10 7.90321e-15)
(2764.5 -1.75673e-10 6.95173e-15)
(2764.5 -2.0432e-10 8.93198e-15)
(2764.5 -2.10705e-10 9.00144e-15)
(2764.5 -2.17946e-10 1.08481e-14)
(2764.5 -2.16167e-10 7.19589e-15)
(2764.5 -2.01891e-10 9.33361e-15)
(2764.5 -1.88e-10 8.10172e-15)
(2764.5 -1.79528e-10 6.26512e-15)
(2764.5 -1.62809e-10 4.67067e-15)
(2764.5 -1.60264e-10 5.38674e-15)
(2764.5 -1.58838e-10 6.70034e-15)
(2764.5 -1.6952e-10 7.69158e-15)
(2764.5 -1.89434e-10 6.41371e-15)
(2764.5 -1.87725e-10 5.49631e-15)
(2764.5 -1.78768e-10 9.867e-15)
(2764.5 -1.64479e-10 8.12457e-15)
(2764.5 -1.53127e-10 7.4498e-15)
(2764.5 -1.48528e-10 9.00525e-15)
(2764.5 -1.50519e-10 8.63332e-15)
(2764.5 -1.55084e-10 7.44032e-15)
(2764.5 -1.61457e-10 6.25158e-15)
(2764.5 -1.66832e-10 5.80642e-15)
(2764.5 -1.69971e-10 7.10211e-15)
(2764.5 -1.69386e-10 7.23266e-15)
(2764.5 -1.73064e-10 5.95462e-15)
(2764.5 -1.79965e-10 5.13801e-15)
(2764.5 -1.82788e-10 5.93468e-15)
(2764.5 -1.91661e-10 5.99578e-15)
(2764.5 -1.94818e-10 6.56032e-15)
(2764.5 -1.85377e-10 5.9524e-15)
(2764.5 -1.64571e-10 7.03639e-15)
(2764.5 -1.57664e-10 8.23098e-15)
(2764.5 -1.46767e-10 5.96069e-15)
(2764.5 -1.32721e-10 5.51355e-15)
(2764.5 -1.35793e-10 8.49712e-15)
(2764.5 -1.13412e-10 7.10984e-15)
(2764.5 -1.23453e-10 4.83831e-15)
(2764.5 -1.1951e-10 6.89574e-15)
(2764.5 -1.20954e-10 7.25259e-15)
(2764.5 -2.92971e-10 2.78308e-14)
(2764.5 -2.94181e-10 2.66602e-14)
(2764.5 -2.96337e-10 2.41677e-14)
(2764.5 -2.96358e-10 2.73825e-14)
(2764.5 -2.95716e-10 2.89439e-14)
(2764.5 -2.94392e-10 2.45071e-14)
(2764.5 -2.90507e-10 2.72347e-14)
(2764.5 -2.88053e-10 2.65323e-14)
(2764.5 -2.87073e-10 2.43696e-14)
(2764.5 -2.85079e-10 2.52682e-14)
(2764.5 -2.83644e-10 3.28562e-14)
(2764.5 -2.831e-10 3.27525e-14)
(2764.5 -2.8479e-10 2.60694e-14)
(2764.5 -2.85413e-10 2.69787e-14)
(2764.5 -2.86687e-10 2.77634e-14)
(2764.5 -2.91467e-10 2.56854e-14)
(2764.5 -2.37155e-10 1.83592e-14)
(2764.5 -2.28629e-10 1.78424e-14)
(2764.5 -2.24401e-10 1.81453e-14)
(2764.5 -2.20837e-10 1.79509e-14)
(2764.5 -2.19399e-10 1.86857e-14)
(2764.5 -2.16028e-10 1.94975e-14)
(2764.5 -2.1003e-10 1.80928e-14)
(2764.5 -2.03037e-10 1.79869e-14)
(2764.5 -1.96963e-10 1.99951e-14)
(2764.5 -1.89964e-10 2.09508e-14)
(2764.5 -1.80947e-10 1.81926e-14)
(2764.5 -1.73261e-10 1.91126e-14)
(2764.5 -1.69707e-10 1.77325e-14)
(2764.5 -1.68354e-10 1.59782e-14)
(2764.5 -1.68443e-10 1.84175e-14)
(2764.5 -1.72697e-10 1.72724e-14)
(2764.5 -1.75981e-10 1.64512e-14)
(2764.5 -1.83372e-10 1.59255e-14)
(2764.5 -1.92171e-10 1.34569e-14)
(2764.5 -2.07541e-10 1.50649e-14)
(2764.5 -2.3079e-10 1.73663e-14)
(2764.5 -2.53845e-10 1.94003e-14)
(2764.5 -2.75514e-10 1.97784e-14)
(2764.5 -2.83453e-10 1.8841e-14)
(2764.5 -2.98834e-10 1.71625e-14)
(2764.5 -3.13779e-10 1.67592e-14)
(2764.5 -3.24058e-10 1.77923e-14)
(2764.5 -3.29013e-10 1.57775e-14)
(2764.5 -3.30773e-10 1.91369e-14)
(2764.5 -3.4538e-10 2.03723e-14)
(2764.5 -3.527e-10 1.58673e-14)
(2764.5 -3.60579e-10 1.76692e-14)
(2764.5 -3.72251e-10 1.57925e-14)
(2764.5 -3.80819e-10 1.53442e-14)
(2764.5 -3.85134e-10 1.75673e-14)
(2764.5 -3.98126e-10 1.64685e-14)
(2764.5 -4.04857e-10 1.76461e-14)
(2764.5 -4.03511e-10 1.87831e-14)
(2764.5 -4.0043e-10 1.81379e-14)
(2764.5 -3.9421e-10 1.50343e-14)
(2764.5 -3.84679e-10 1.82334e-14)
(2764.5 -3.71665e-10 1.63343e-14)
(2764.5 -3.57762e-10 1.65407e-14)
(2764.5 -3.50586e-10 1.82588e-14)
(2764.5 -3.47015e-10 1.78265e-14)
(2764.5 -3.41565e-10 1.82438e-14)
(2764.5 -3.41579e-10 1.82218e-14)
(2764.5 -3.41409e-10 1.6875e-14)
(2764.5 -3.30133e-10 1.8081e-14)
(2764.5 -3.11061e-10 1.42871e-14)
(2764.5 -3.01964e-10 1.34963e-14)
(2764.5 -2.94206e-10 1.66526e-14)
(2764.5 -2.90652e-10 1.63153e-14)
(2764.5 -2.81218e-10 1.6432e-14)
(2764.5 -2.72696e-10 1.56529e-14)
(2764.5 -2.59888e-10 1.82503e-14)
(2764.5 -2.58969e-10 1.52242e-14)
(2764.5 -2.51314e-10 1.56741e-14)
(2764.5 -2.53535e-10 1.53241e-14)
(2764.5 -2.61866e-10 1.67288e-14)
(2764.5 -2.69811e-10 1.74119e-14)
(2764.5 -2.67316e-10 1.63991e-14)
(2764.5 -2.57072e-10 1.55856e-14)
(2764.5 -2.56952e-10 1.58135e-14)
(2764.5 -2.54308e-10 1.42222e-14)
(2764.5 -2.55716e-10 1.27372e-14)
(2764.5 -2.46598e-10 1.64867e-14)
(2764.5 -2.39904e-10 1.63231e-14)
(2764.5 -2.30159e-10 1.59091e-14)
(2764.5 -2.27452e-10 1.60673e-14)
(2764.5 -2.25168e-10 1.5996e-14)
(2764.5 -2.30159e-10 1.51195e-14)
(2764.5 -2.33778e-10 1.56816e-14)
(2764.5 -2.43939e-10 1.52472e-14)
(2764.5 -2.55352e-10 1.52368e-14)
(2764.5 -2.61937e-10 1.516e-14)
(2764.5 -2.55154e-10 1.61789e-14)
(2764.5 -2.48079e-10 1.49003e-14)
(2764.5 -2.44657e-10 1.50905e-14)
(2764.5 -2.45934e-10 1.47138e-14)
(2764.5 -2.59795e-10 1.73976e-14)
(2764.5 -2.65329e-10 1.49301e-14)
(2764.5 -2.67484e-10 1.42316e-14)
(2764.5 -2.72949e-10 1.357e-14)
(2764.5 -2.89401e-10 1.62368e-14)
(2764.5 -3.06681e-10 1.57534e-14)
(2764.5 -3.11943e-10 1.48758e-14)
(2764.5 -3.14347e-10 1.44687e-14)
(2764.5 -3.20787e-10 1.18874e-14)
(2764.5 -3.28102e-10 1.44754e-14)
(2764.5 -3.38869e-10 1.52655e-14)
(2764.5 -3.61949e-10 1.43138e-14)
(2764.5 -3.80064e-10 1.41871e-14)
(2764.5 -3.94659e-10 1.55813e-14)
(2764.5 -4.13324e-10 1.35005e-14)
(2764.5 -4.25282e-10 1.3456e-14)
(2764.5 -4.28638e-10 1.18022e-14)
(2764.5 -4.27183e-10 1.35534e-14)
(2764.5 -4.25065e-10 1.36454e-14)
(2764.5 -4.18452e-10 1.2079e-14)
(2764.5 -4.02551e-10 1.32972e-14)
(2764.5 -3.86734e-10 1.32296e-14)
(2764.5 -3.59331e-10 1.3335e-14)
(2764.5 -3.23976e-10 1.47232e-14)
(2764.5 -2.78836e-10 1.24419e-14)
(2764.5 -2.28105e-10 1.15877e-14)
(2764.5 -1.78372e-10 1.32812e-14)
(2764.5 -1.46209e-10 1.4473e-14)
(2764.5 -1.23474e-10 1.33375e-14)
(2764.5 -1.11969e-10 1.14045e-14)
(2764.5 -1.16124e-10 1.23643e-14)
(2764.5 -1.26972e-10 1.51636e-14)
(2764.5 -1.43256e-10 1.24227e-14)
(2764.5 -1.71029e-10 1.28147e-14)
(2764.5 -2.36971e-10 1.33687e-14)
(2764.5 -2.67132e-10 1.11943e-14)
(2764.5 -2.8553e-10 1.22822e-14)
(2764.5 -2.94415e-10 1.22137e-14)
(2764.5 -2.95132e-10 1.2815e-14)
(2764.5 -2.93779e-10 1.56933e-14)
(2764.5 -2.86352e-10 1.4244e-14)
(2764.5 -2.64483e-10 1.22378e-14)
(2764.5 -2.42478e-10 1.39769e-14)
(2764.5 -2.1864e-10 1.35207e-14)
(2764.5 -2.13632e-10 1.25756e-14)
(2764.5 -2.15541e-10 1.30903e-14)
(2764.5 -2.18915e-10 1.12088e-14)
(2764.5 -2.38476e-10 1.04704e-14)
(2764.5 -2.66776e-10 1.24098e-14)
(2764.5 -2.86379e-10 1.23301e-14)
(2764.5 -2.93802e-10 1.15828e-14)
(2764.5 -2.91016e-10 1.08604e-14)
(2764.5 -2.69444e-10 9.97002e-15)
(2764.5 -2.44699e-10 9.96406e-15)
(2764.5 -2.10743e-10 1.01097e-14)
(2764.5 -1.96995e-10 1.0056e-14)
(2764.5 -1.99547e-10 1.09751e-14)
(2764.5 -1.94084e-10 1.33374e-14)
(2764.5 -2.10539e-10 1.22979e-14)
(2764.5 -2.19155e-10 1.12459e-14)
(2764.5 -2.45354e-10 9.61242e-15)
(2764.5 -2.67402e-10 1.02994e-14)
(2764.5 -2.81149e-10 9.60194e-15)
(2764.5 -2.84479e-10 1.3149e-14)
(2764.5 -2.75034e-10 6.48368e-15)
(2764.5 -2.74502e-10 1.15984e-14)
(2764.5 -2.73692e-10 1.16402e-14)
(2764.5 -2.74574e-10 1.1585e-14)
(2764.5 -2.78706e-10 1.12367e-14)
(2764.5 -2.73586e-10 1.10384e-14)
(2764.5 -2.58946e-10 1.19144e-14)
(2764.5 -2.34773e-10 9.59962e-15)
(2764.5 -2.06231e-10 1.01448e-14)
(2764.5 -1.93007e-10 9.0914e-15)
(2764.5 -1.85274e-10 9.90873e-15)
(2764.5 -1.89152e-10 9.13382e-15)
(2764.5 -1.985e-10 9.13428e-15)
(2764.5 -2.17446e-10 1.15538e-14)
(2764.5 -2.33664e-10 1.07361e-14)
(2764.5 -2.34718e-10 1.04377e-14)
(2764.5 -2.29386e-10 1.20609e-14)
(2764.5 -2.27984e-10 1.16808e-14)
(2764.5 -2.06974e-10 1.12342e-14)
(2764.5 -1.97717e-10 8.87761e-15)
(2764.5 -1.84648e-10 9.53497e-15)
(2764.5 -1.90116e-10 1.00249e-14)
(2764.5 -1.9451e-10 9.93797e-15)
(2764.5 -2.25179e-10 8.95194e-15)
(2764.5 -2.52059e-10 9.50436e-15)
(2764.5 -2.67744e-10 7.74398e-15)
(2764.5 -2.70865e-10 1.16125e-14)
(2764.5 -2.59448e-10 1.03379e-14)
(2764.5 -2.55006e-10 1.05576e-14)
(2764.5 -2.53682e-10 1.25251e-14)
(2764.5 -2.54212e-10 1.11892e-14)
(2764.5 -2.549e-10 1.01774e-14)
(2764.5 -2.54758e-10 1.08463e-14)
(2764.5 -2.47573e-10 9.89966e-15)
(2764.5 -2.44138e-10 9.23443e-15)
(2764.5 -2.45865e-10 9.22873e-15)
(2764.5 -2.55342e-10 1.02981e-14)
(2764.5 -2.60439e-10 9.7169e-15)
(2764.5 -2.82569e-10 9.59124e-15)
(2764.5 -2.89411e-10 1.06458e-14)
(2764.5 -2.85458e-10 9.51188e-15)
(2764.5 -2.76016e-10 1.06523e-14)
(2764.5 -2.72889e-10 8.90043e-15)
(2764.5 -2.67681e-10 8.20151e-15)
(2764.5 -2.58607e-10 8.96205e-15)
(2764.5 -2.59677e-10 8.98092e-15)
(2764.5 -2.39095e-10 9.171e-15)
(2764.5 -2.3364e-10 9.47036e-15)
(2764.5 -2.06048e-10 8.79577e-15)
(2764.5 -3.7629e-10 3.39224e-14)
(2764.5 -3.74693e-10 3.44238e-14)
(2764.5 -3.76656e-10 3.84914e-14)
(2764.5 -3.80429e-10 3.85436e-14)
(2764.5 -3.81711e-10 3.49283e-14)
(2764.5 -3.8134e-10 3.506e-14)
(2764.5 -3.80506e-10 3.64479e-14)
(2764.5 -3.76559e-10 3.63581e-14)
(2764.5 -3.74898e-10 3.42818e-14)
(2764.5 -3.71005e-10 3.75614e-14)
(2764.5 -3.68202e-10 4.12794e-14)
(2764.5 -3.63931e-10 3.54236e-14)
(2764.5 -3.57439e-10 3.64627e-14)
(2764.5 -3.55849e-10 3.31882e-14)
(2764.5 -3.56958e-10 3.20921e-14)
(2764.5 -3.32266e-10 2.64103e-14)
(2764.5 -3.39397e-10 2.46389e-14)
(2764.5 -3.55095e-10 2.42024e-14)
(2764.5 -3.58385e-10 1.99098e-14)
(2764.5 -3.79777e-10 2.60243e-14)
(2764.5 -3.94329e-10 2.19239e-14)
(2764.5 -4.01001e-10 2.17658e-14)
(2764.5 -4.06479e-10 2.46679e-14)
(2764.5 -4.17583e-10 2.48271e-14)