/*--------------------------------*- C++ -*----------------------------------*\
| =========                 |                                                 |
| \\      /  F ield         | OpenFOAM: The Open Source CFD Toolbox           |
|  \\    /   O peration     | Version:  v1706                                 |
|   \\  /    A nd           | Web:      www.OpenFOAM.com                      |
|    \\/     M anipulation  |                                                 |
\*---------------------------------------------------------------------------*/
FoamFile
{
    version     2.0;
    format      ascii;
    class       volScalarField;
    location    "2e-05";
    object      wallHeatFlux;
}
// * * * * * * * * * * * * * * * * * * * * * * * * * * * * * * * * * * * * * //

dimensions      [1 0 -3 0 0 0 0];


internalField   uniform 0;

boundaryField
{
    cone
    {
        type            calculated;
        value           nonuniform List<scalar> 
119
(
81226.3
77997.1
74640.3
71224.7
67819.2
64488.9
61290.8
58271.7
55466.3
52897.7
50577.9
48510
46689.9
45108.5
43752.8
42607.2
41654.5
40878.3
40264.9
39797.6
39459.9
39235.9
39108
39058.9
39075.7
39147.9
39264.2
39412.2
39580.4
39758.2
39936.3
40106.8
40264.1
40405.2
40527.8
40630.7
40713.5
40777.1
40822.8
40850.3
40860.1
40854
40833
40797
40745.4
40677.4
40590.7
40483
40354.5
40202.6
40019.7
39801.8
39544.4
39242
38889.1
38481.2
38014.3
37486.1
36896.1
36246.1
35540.9
34788.2
33999.2
33187
32366.9
31555
30767.9
30022.1
29333.4
28715.9
28184
27750.6
27427.8
27227.8
27163.3
27247.1
27491.6
27908.4
28508.1
29300.5
30296
31506
32942.7
34618.7
36545.9
38733.2
41183.5
43889.3
46825.1
49932.1
53097.8
56141.4
58799.2
60754.7
61649.2
61144.1
59052.8
55453.7
50757.1
45646.9
40819.7
36711
33459.6
31010.2
29224.5
27950.5
27054.6
26434.6
26015.3
25742
25573.6
25472.9
25396.9
25291.1
25118.2
24905.1
25100.4
25769.9
27694.2
)
;
    }
    inlet
    {
        type            calculated;
        value           uniform 0;
    }
    rWedge
    {
        type            wedge;
    }
    lWedge
    {
        type            wedge;
    }
    outlet
    {
        type            calculated;
        value           uniform 0;
    }
    procBoundary0to1
    {
        type            processor;
        value           uniform 0;
    }
    procBoundary0to2
    {
        type            processor;
        value           uniform 0;
    }
}


// ************************************************************************* //
