/*--------------------------------*- C++ -*----------------------------------*\
| =========                 |                                                 |
| \\      /  F ield         | OpenFOAM: The Open Source CFD Toolbox           |
|  \\    /   O peration     | Version:  v1706                                 |
|   \\  /    A nd           | Web:      www.OpenFOAM.com                      |
|    \\/     M anipulation  |                                                 |
\*---------------------------------------------------------------------------*/
FoamFile
{
    version     2.0;
    format      ascii;
    class       volScalarField;
    location    "3.7e-05";
    object      alpha;
}
// * * * * * * * * * * * * * * * * * * * * * * * * * * * * * * * * * * * * * //

dimensions      [1 -1 -1 0 0 0 0];


internalField   nonuniform List<scalar> 
30038
(
1.40478e-05
1.40478e-05
1.40478e-05
1.40478e-05
1.40478e-05
1.40478e-05
1.40478e-05
1.40478e-05
1.40478e-05
1.40478e-05
1.40478e-05
1.40478e-05
1.40478e-05
1.40478e-05
1.40478e-05
1.40478e-05
1.40478e-05
1.40478e-05
1.40478e-05
1.40478e-05
1.40478e-05
1.40478e-05
1.40478e-05
1.40478e-05
1.40478e-05
1.40478e-05
1.40478e-05
1.40478e-05
1.40478e-05
1.40478e-05
1.40478e-05
1.40478e-05
1.40478e-05
1.40478e-05
1.40478e-05
1.40478e-05
1.40478e-05
1.40478e-05
1.40478e-05
1.40478e-05
1.40478e-05
1.40478e-05
1.40478e-05
1.40478e-05
1.40478e-05
1.40478e-05
1.40478e-05
1.40478e-05
1.40478e-05
1.40478e-05
1.40478e-05
1.40478e-05
1.40478e-05
1.40478e-05
1.40478e-05
1.40478e-05
1.40478e-05
1.40478e-05
1.40478e-05
1.40478e-05
1.40478e-05
1.40478e-05
1.40478e-05
1.40478e-05
1.40478e-05
1.40478e-05
1.40478e-05
1.40478e-05
1.40478e-05
1.40478e-05
1.40478e-05
1.40478e-05
1.40478e-05
1.40478e-05
1.40478e-05
1.40478e-05
1.40478e-05
1.40478e-05
1.40478e-05
1.40478e-05
1.40478e-05
1.40478e-05
1.40478e-05
1.40478e-05
1.40478e-05
1.40478e-05
1.40478e-05
1.40478e-05
1.40478e-05
1.40478e-05
1.40478e-05
1.40478e-05
1.40478e-05
1.40478e-05
1.40478e-05
1.40478e-05
1.40478e-05
1.40478e-05
1.40478e-05
1.40478e-05
1.40478e-05
1.40478e-05
1.40478e-05
1.40478e-05
1.40478e-05
1.40478e-05
1.40478e-05
1.40478e-05
1.40478e-05
1.40478e-05
1.40478e-05
1.40478e-05
1.40478e-05
1.40478e-05
1.40478e-05
1.40478e-05
1.40478e-05
1.40478e-05
1.40478e-05
1.40478e-05
1.40478e-05
1.40478e-05
1.40478e-05
1.40478e-05
1.40478e-05
1.40478e-05
1.40478e-05
1.40478e-05
1.40478e-05
1.40478e-05
1.40478e-05
1.40478e-05
1.40478e-05
1.40478e-05
1.40478e-05
1.40478e-05
1.40478e-05
1.40478e-05
1.40478e-05
1.40478e-05
1.40478e-05
1.40478e-05
1.40478e-05
1.40478e-05
1.40478e-05
1.40478e-05
1.40478e-05
1.40478e-05
1.40478e-05
1.40478e-05
1.40478e-05
1.40478e-05
1.40478e-05
1.40478e-05
1.40478e-05
1.40478e-05
1.40478e-05
1.40478e-05
1.40478e-05
1.40478e-05
1.40478e-05
1.40478e-05
1.40478e-05
1.40478e-05
1.40478e-05
1.40478e-05
1.40478e-05
1.40478e-05
1.40478e-05
1.40478e-05
1.40478e-05
1.40478e-05
1.40478e-05
1.40478e-05
1.40478e-05
1.40478e-05
1.40478e-05
1.40478e-05
1.40478e-05
1.40478e-05
1.40478e-05
1.40478e-05
1.40478e-05
1.40478e-05
1.40478e-05
1.40478e-05
1.40478e-05
1.40478e-05
1.40478e-05
1.40478e-05
1.40478e-05
1.40478e-05
1.40478e-05
1.40478e-05
1.40478e-05
1.40478e-05
1.40478e-05
1.40478e-05
1.40478e-05
1.40478e-05
1.40478e-05
1.40478e-05
1.40478e-05
1.40478e-05
1.40478e-05
1.40478e-05
1.40478e-05
1.40478e-05
1.40478e-05
1.40478e-05
1.40478e-05
1.40478e-05
1.40478e-05
1.40478e-05
1.40478e-05
1.40478e-05
1.40478e-05
1.40478e-05
1.40478e-05
1.40478e-05
1.40478e-05
1.40478e-05
1.40478e-05
1.40478e-05
1.40478e-05
1.40478e-05
1.40478e-05
1.40478e-05
1.40478e-05
1.40478e-05
1.40478e-05
1.40478e-05
1.40478e-05
1.40478e-05
1.40478e-05
1.40478e-05
1.40478e-05
1.40478e-05
1.40478e-05
1.40478e-05
1.40478e-05
1.40478e-05
1.40478e-05
1.40478e-05
1.40478e-05
1.40478e-05
1.40478e-05
1.40478e-05
1.40478e-05
1.40478e-05
1.40478e-05
1.40478e-05
1.40478e-05
1.40478e-05
1.40478e-05
1.40478e-05
1.40478e-05
1.40478e-05
1.40478e-05
1.40478e-05
1.40478e-05
1.40478e-05
1.40478e-05
1.40478e-05
1.40478e-05
1.40478e-05
1.40478e-05
1.40478e-05
1.40478e-05
1.40478e-05
1.40478e-05
1.40478e-05
1.40478e-05
1.40478e-05
1.40478e-05
1.40478e-05
1.40478e-05
1.40478e-05
1.40478e-05
1.40478e-05
1.40478e-05
1.40478e-05
1.40478e-05
1.40478e-05
1.40478e-05
1.40478e-05
1.40478e-05
1.40478e-05
1.40478e-05
1.40478e-05
1.40478e-05
1.40478e-05
1.40478e-05
1.40478e-05
1.40478e-05
1.40478e-05
1.40478e-05
1.40478e-05
1.40478e-05
1.40478e-05
1.40478e-05
1.40478e-05
1.40478e-05
1.40478e-05
1.40478e-05
1.40478e-05
1.40478e-05
1.40478e-05
1.40478e-05
1.40478e-05
1.40478e-05
1.40478e-05
1.40478e-05
1.40478e-05
1.40478e-05
1.40478e-05
1.40478e-05
1.40478e-05
1.40478e-05
1.40478e-05
1.40478e-05
1.40478e-05
1.40478e-05
1.40478e-05
1.40478e-05
1.40478e-05
1.40478e-05
1.40478e-05
1.40478e-05
1.40478e-05
1.40478e-05
1.40478e-05
1.40478e-05
1.40478e-05
1.40478e-05
1.40478e-05
1.40478e-05
1.40478e-05
1.40478e-05
1.40478e-05
1.40478e-05
1.40478e-05
1.40478e-05
1.40478e-05
1.40478e-05
1.40478e-05
1.40478e-05
1.40478e-05
1.40478e-05
1.40478e-05
1.40478e-05
1.40478e-05
1.40478e-05
1.40478e-05
1.40478e-05
1.40478e-05
1.40478e-05
1.40478e-05
1.40478e-05
1.40478e-05
1.40478e-05
1.40478e-05
1.40478e-05
1.40478e-05
1.40478e-05
1.40478e-05
1.40478e-05
1.40478e-05
1.40478e-05
1.40478e-05
1.40478e-05
1.40478e-05
1.40478e-05
1.40478e-05
1.40478e-05
1.40478e-05
1.40478e-05
1.40478e-05
1.40478e-05
1.40478e-05
1.40478e-05
1.40478e-05
1.40478e-05
1.40478e-05
1.40478e-05
1.40478e-05
1.40478e-05
1.40478e-05
1.40478e-05
1.40478e-05
1.40478e-05
1.40478e-05
1.40478e-05
1.40478e-05
1.40478e-05
1.40478e-05
1.40478e-05
1.40478e-05
1.40478e-05
1.40478e-05
1.40478e-05
1.40478e-05
1.40478e-05
1.40478e-05
1.40478e-05
1.40478e-05
1.40478e-05
1.40478e-05
1.40478e-05
1.40478e-05
1.40478e-05
1.40478e-05
1.40478e-05
1.40478e-05
1.40478e-05
1.40478e-05
1.40478e-05
1.40478e-05
1.40478e-05
1.40478e-05
1.40478e-05
1.40478e-05
1.40478e-05
1.40478e-05
1.40478e-05
1.40478e-05
1.40478e-05
1.40478e-05
1.40478e-05
1.40478e-05
1.40478e-05
1.40478e-05
1.40478e-05
1.40478e-05
1.40478e-05
1.40478e-05
1.40478e-05
1.40478e-05
1.40478e-05
1.40478e-05
1.40478e-05
1.40478e-05
1.40478e-05
1.40478e-05
1.40478e-05
1.40478e-05
1.40478e-05
1.40478e-05
1.40478e-05
1.40478e-05
1.40478e-05
1.40478e-05
1.40478e-05
1.40478e-05
1.40478e-05
1.40478e-05
1.40478e-05
1.40478e-05
1.40478e-05
1.40478e-05
1.40478e-05
1.40478e-05
1.40478e-05
1.40478e-05
1.40478e-05
1.40478e-05
1.40478e-05
1.40478e-05
1.40478e-05
1.40478e-05
1.40478e-05
1.40478e-05
1.40478e-05
1.40478e-05
1.40478e-05
1.40478e-05
1.40478e-05
1.40478e-05
1.40478e-05
1.40478e-05
1.40478e-05
1.40478e-05
1.40478e-05
1.40478e-05
1.40478e-05
1.40478e-05
1.40478e-05
1.40478e-05
1.40478e-05
1.40478e-05
1.40478e-05
1.40478e-05
1.40478e-05
1.40478e-05
1.40478e-05
1.40478e-05
1.40478e-05
1.40478e-05
1.40478e-05
1.40478e-05
1.40478e-05
1.40478e-05
1.40478e-05
1.40478e-05
1.40478e-05
1.40478e-05
1.40478e-05
1.40478e-05
1.40478e-05
1.40478e-05
1.40478e-05
1.40478e-05
1.40478e-05
1.40478e-05
1.40478e-05
1.40478e-05
1.40478e-05
1.40478e-05
1.40478e-05
1.40478e-05
1.40478e-05
1.40478e-05
1.40478e-05
1.40478e-05
1.40478e-05
1.40478e-05
1.40478e-05
1.40478e-05
1.40478e-05
1.40478e-05
1.40478e-05
1.40478e-05
1.40478e-05
1.40478e-05
1.40478e-05
1.40478e-05
1.40478e-05
1.40478e-05
1.40478e-05
1.40478e-05
1.40478e-05
1.40478e-05
1.40478e-05
1.40478e-05
1.40478e-05
1.40478e-05
1.40478e-05
1.40478e-05
1.40478e-05
1.40478e-05
1.40478e-05
1.40478e-05
1.40478e-05
1.40478e-05
1.40478e-05
1.40478e-05
1.40478e-05
1.40478e-05
1.40478e-05
1.40478e-05
1.40478e-05
1.40478e-05
1.40478e-05
1.40478e-05
1.40478e-05
1.40478e-05
1.40478e-05
1.40478e-05
1.40478e-05
1.40478e-05
1.40478e-05
1.40478e-05
1.40478e-05
1.40478e-05
1.40478e-05
1.40478e-05
1.40478e-05
1.40478e-05
1.40478e-05
1.40478e-05
1.40478e-05
1.40478e-05
1.40478e-05
1.40478e-05
1.40478e-05
1.40478e-05
1.40478e-05
1.40478e-05
1.40478e-05
1.40478e-05
1.40478e-05
1.40478e-05
1.40478e-05
1.40478e-05
1.40478e-05
1.40478e-05
1.40478e-05
1.40478e-05
1.40478e-05
1.40478e-05
1.40478e-05
1.40478e-05
1.40478e-05
1.40478e-05
1.40478e-05
1.40478e-05
1.40478e-05
1.40478e-05
1.40478e-05
1.40478e-05
1.40478e-05
1.40478e-05
1.40478e-05
1.40478e-05
1.40478e-05
1.40478e-05
1.40478e-05
1.40478e-05
1.40478e-05
1.40478e-05
1.40478e-05
1.40478e-05
1.40478e-05
1.40478e-05
1.40478e-05
1.40478e-05
1.40478e-05
1.40478e-05
1.40478e-05
1.40478e-05
1.40478e-05
1.40478e-05
1.40478e-05
1.40478e-05
1.40478e-05
1.40478e-05
1.40478e-05
1.40478e-05
1.40478e-05
1.40478e-05
1.40478e-05
1.40478e-05
1.40478e-05
1.40478e-05
1.40478e-05
1.40478e-05
1.40478e-05
1.40478e-05
1.40478e-05
1.40478e-05
1.40478e-05
1.40478e-05
1.40478e-05
1.40478e-05
1.40478e-05
1.40478e-05
1.40478e-05
1.40478e-05
1.40478e-05
1.40478e-05
1.40478e-05
1.40478e-05
1.40478e-05
1.40478e-05
1.40478e-05
1.40478e-05
1.40478e-05
1.40478e-05
1.40478e-05
1.40478e-05
1.40478e-05
1.40478e-05
1.40478e-05
1.40478e-05
1.40478e-05
1.40478e-05
1.40478e-05
1.40478e-05
1.40478e-05
1.40478e-05
1.40478e-05
1.40478e-05
1.40478e-05
1.40478e-05
1.40478e-05
1.40478e-05
1.40478e-05
1.40478e-05
1.40478e-05
1.40478e-05
1.40478e-05
1.40478e-05
1.40478e-05
1.40478e-05
1.40478e-05
1.40478e-05
1.40478e-05
1.40478e-05
1.40478e-05
1.40478e-05
1.40478e-05
1.40478e-05
1.40478e-05
1.40478e-05
1.40478e-05
1.40478e-05
1.40478e-05
1.40478e-05
1.40478e-05
1.40478e-05
1.40478e-05
1.40478e-05
1.40478e-05
1.40478e-05
1.40478e-05
1.40478e-05
1.40478e-05
1.40478e-05
1.40478e-05
1.40478e-05
1.40478e-05
1.40478e-05
1.40478e-05
1.40478e-05
1.40478e-05
1.40478e-05
1.40478e-05
1.40478e-05
1.40478e-05
1.40478e-05
1.40478e-05
1.40478e-05
1.40478e-05
1.40478e-05
1.40478e-05
1.40478e-05
1.40478e-05
1.40478e-05
1.40478e-05
1.40478e-05
1.40478e-05
1.40478e-05
1.40478e-05
1.40478e-05
1.40478e-05
1.40478e-05
1.40478e-05
1.40478e-05
1.40478e-05
1.40478e-05
1.40478e-05
1.40478e-05
1.40478e-05
1.40478e-05
1.40478e-05
1.40478e-05
1.40478e-05
1.40478e-05
1.40478e-05
1.40478e-05
1.40478e-05
1.40478e-05
1.40478e-05
1.40478e-05
1.40478e-05
1.40478e-05
1.40478e-05
1.40478e-05
1.40478e-05
1.40478e-05
1.40478e-05
1.40478e-05
1.40478e-05
1.40478e-05
1.40478e-05
1.40478e-05
1.40478e-05
1.40478e-05
1.40478e-05
1.40478e-05
1.40478e-05
1.40478e-05
1.40478e-05
1.40478e-05
1.40478e-05
1.40478e-05
1.40478e-05
1.40478e-05
1.40478e-05
1.40478e-05
1.40478e-05
1.40478e-05
1.40478e-05
1.40478e-05
1.40478e-05
1.40478e-05
1.40478e-05
1.40478e-05
1.40478e-05
1.40478e-05
1.40478e-05
1.40478e-05
1.40478e-05
1.40478e-05
1.40478e-05
1.40478e-05
1.40478e-05
1.40478e-05
1.40478e-05
1.40478e-05
1.40478e-05
1.40478e-05
1.40478e-05
1.40478e-05
1.40478e-05
1.40478e-05
1.40478e-05
1.40478e-05
1.40478e-05
1.40478e-05
1.40478e-05
1.40478e-05
1.40478e-05
1.40478e-05
1.40478e-05
1.40478e-05
1.40478e-05
1.40478e-05
1.40478e-05
1.40478e-05
1.40478e-05
1.40478e-05
1.40478e-05
1.40478e-05
1.40478e-05
1.40478e-05
1.40478e-05
1.40478e-05
1.40478e-05
1.40478e-05
1.40478e-05
1.40478e-05
1.40478e-05
1.40478e-05
1.40478e-05
1.40478e-05
1.40478e-05
1.40478e-05
1.40478e-05
1.40478e-05
1.40478e-05
1.40478e-05
1.40478e-05
1.40478e-05
1.40478e-05
1.40478e-05
1.40478e-05
1.40478e-05
1.40478e-05
1.40478e-05
1.40478e-05
1.40478e-05
1.40478e-05
1.40478e-05
1.40478e-05
1.40478e-05
1.40478e-05
1.40478e-05
1.40478e-05
1.40478e-05
1.40478e-05
1.40478e-05
1.40478e-05
1.40478e-05
1.40478e-05
1.40478e-05
1.40478e-05
1.40478e-05
1.40478e-05
1.40478e-05
1.40478e-05
1.40478e-05
1.40478e-05
1.40478e-05
1.40478e-05
1.40478e-05
1.40478e-05
1.40478e-05
1.40478e-05
1.40478e-05
1.40478e-05
1.40478e-05
1.40478e-05
1.40478e-05
1.40478e-05
1.40478e-05
1.40478e-05
1.40478e-05
1.40478e-05
1.40478e-05
1.40478e-05
1.40478e-05
1.40478e-05
1.40478e-05
1.40478e-05
1.40478e-05
1.40478e-05
1.40478e-05
1.40478e-05
1.40478e-05
1.40478e-05
1.40478e-05
1.40478e-05
1.40478e-05
1.40478e-05
1.40478e-05
1.40478e-05
1.40478e-05
1.40478e-05
1.40478e-05
1.40478e-05
1.40478e-05
1.40478e-05
1.40478e-05
1.40478e-05
1.40478e-05
1.40478e-05
1.40478e-05
1.40478e-05
1.40478e-05
1.40478e-05
1.40478e-05
1.40478e-05
1.40478e-05
1.40478e-05
1.40478e-05
1.40478e-05
1.40478e-05
1.40478e-05
1.40478e-05
1.40478e-05
1.40478e-05
1.40478e-05
1.40478e-05
1.40478e-05
1.40478e-05
1.40478e-05
1.40478e-05
1.40478e-05
1.40478e-05
1.40478e-05
1.40478e-05
1.40478e-05
1.40478e-05
1.40478e-05
1.40478e-05
1.40478e-05
1.40478e-05
1.40478e-05
1.40478e-05
1.40478e-05
1.40478e-05
1.40478e-05
1.40478e-05
1.40478e-05
1.40478e-05
1.40478e-05
1.40478e-05
1.40478e-05
1.40478e-05
1.40478e-05
1.40478e-05
1.40478e-05
1.40478e-05
1.40478e-05
1.40478e-05
1.40478e-05
1.40478e-05
1.40478e-05
1.40478e-05
1.40478e-05
1.40478e-05
1.40478e-05
1.40478e-05
1.40478e-05
1.40478e-05
1.40478e-05
1.40478e-05
1.40478e-05
1.40478e-05
1.40478e-05
1.40478e-05
1.40478e-05
1.40478e-05
1.40478e-05
1.40478e-05
1.40478e-05
1.40478e-05
1.40478e-05
1.40478e-05
1.40478e-05
1.40478e-05
1.40478e-05
1.40478e-05
1.40478e-05
1.40478e-05
1.40478e-05
1.40478e-05
1.40478e-05
1.40478e-05
1.40478e-05
1.40478e-05
1.40478e-05
1.40478e-05
1.40478e-05
1.40478e-05
1.40478e-05
1.40478e-05
1.40478e-05
1.40478e-05
1.40478e-05
1.40478e-05
1.40478e-05
1.40478e-05
1.40478e-05
1.40478e-05
1.40478e-05
1.40478e-05
1.40478e-05
1.40478e-05
1.40478e-05
1.40478e-05
1.40478e-05
1.40478e-05
1.40478e-05
1.40478e-05
1.40478e-05
1.40478e-05
1.40478e-05
1.40478e-05
1.40478e-05
1.40478e-05
1.40478e-05
1.40478e-05
1.40478e-05
1.40478e-05
1.40478e-05
1.40478e-05
1.40478e-05
1.40478e-05
1.40478e-05
1.40478e-05
1.40478e-05
1.40478e-05
1.40478e-05
1.40478e-05
1.40478e-05
1.40478e-05
1.40478e-05
1.40478e-05
1.40478e-05
1.40478e-05
1.40478e-05
1.40478e-05
1.40478e-05
1.40478e-05
1.40478e-05
1.40478e-05
1.40478e-05
1.40478e-05
1.40478e-05
1.40478e-05
1.40478e-05
1.40478e-05
1.40478e-05
1.40478e-05
1.40478e-05
1.40478e-05
1.40478e-05
1.40478e-05
1.40478e-05
1.40478e-05
1.40478e-05
1.40478e-05
1.40478e-05
1.40478e-05
1.40478e-05
1.40478e-05
1.40478e-05
1.40478e-05
1.40478e-05
1.40478e-05
1.40478e-05
1.40478e-05
1.40478e-05
1.40478e-05
1.40478e-05
1.40478e-05
1.40478e-05
1.40478e-05
1.40478e-05
1.40478e-05
1.40478e-05
1.40478e-05
1.40478e-05
1.40478e-05
1.40478e-05
1.40478e-05
1.40478e-05
1.40478e-05
1.40478e-05
1.40478e-05
1.40478e-05
1.40478e-05
1.40478e-05
1.40478e-05
1.40478e-05
1.40478e-05
1.40478e-05
1.40478e-05
1.40478e-05
1.40478e-05
1.40478e-05
1.40478e-05
1.40478e-05
1.40478e-05
1.40478e-05
1.40478e-05
1.40478e-05
1.40478e-05
1.40478e-05
1.40478e-05
1.40478e-05
1.40478e-05
1.40478e-05
1.40478e-05
1.40478e-05
1.40478e-05
1.40478e-05
1.40478e-05
1.40478e-05
1.40478e-05
1.40478e-05
1.40478e-05
1.40478e-05
1.40478e-05
1.40478e-05
1.40478e-05
1.40478e-05
1.40478e-05
1.40478e-05
1.40478e-05
1.40478e-05
1.40478e-05
1.40478e-05
1.40478e-05
1.40478e-05
1.40478e-05
1.40478e-05
1.40478e-05
1.40478e-05
1.40478e-05
1.40478e-05
1.40478e-05
1.40478e-05
1.40478e-05
1.40478e-05
1.40478e-05
1.40478e-05
1.40478e-05
1.40478e-05
1.40478e-05
1.40478e-05
1.40478e-05
1.40478e-05
1.40478e-05
1.40478e-05
1.40478e-05
1.40478e-05
1.40478e-05
1.40478e-05
1.40478e-05
1.40478e-05
1.40478e-05
1.40478e-05
1.40478e-05
1.40478e-05
1.40478e-05
1.40478e-05
1.40478e-05
1.40478e-05
1.40478e-05
1.40478e-05
1.40478e-05
1.40478e-05
1.40478e-05
1.40478e-05
1.40478e-05
1.40478e-05
1.40478e-05
1.40478e-05
1.40478e-05
1.40478e-05
1.40478e-05
1.40478e-05
1.40478e-05
1.40478e-05
1.40478e-05
1.40478e-05
1.40478e-05
1.40478e-05
1.40478e-05
1.40478e-05
1.40478e-05
1.40478e-05
1.40478e-05
1.40478e-05
1.40478e-05
1.40478e-05
1.40478e-05
1.40478e-05
1.40478e-05
1.40478e-05
1.40478e-05
1.40478e-05
1.40478e-05
1.40478e-05
1.40478e-05
1.40478e-05
1.40478e-05
1.40478e-05
1.40478e-05
1.40478e-05
1.40478e-05
1.40478e-05
1.40478e-05
1.40478e-05
1.40478e-05
1.40478e-05
1.40478e-05
1.40479e-05
1.40479e-05
1.40478e-05
1.40478e-05
1.40478e-05
1.40478e-05
1.40478e-05
1.40478e-05
1.40478e-05
1.40478e-05
1.40478e-05
1.40478e-05
1.40478e-05
1.40478e-05
1.40478e-05
1.40478e-05
1.40478e-05
1.40478e-05
1.40478e-05
1.40478e-05
1.40478e-05
1.40478e-05
1.40478e-05
1.40478e-05
1.40478e-05
1.40478e-05
1.40478e-05
1.40478e-05
1.40478e-05
1.40478e-05
1.40478e-05
1.40478e-05
1.40478e-05
1.40478e-05
1.40478e-05
1.40478e-05
1.40478e-05
1.40478e-05
1.40478e-05
1.40478e-05
1.40478e-05
1.40478e-05
1.40478e-05
1.40478e-05
1.40478e-05
1.40478e-05
1.40478e-05
1.40479e-05
1.40479e-05
1.4048e-05
1.40481e-05
1.40482e-05
1.40478e-05
1.40478e-05
1.40478e-05
1.40478e-05
1.40478e-05
1.40478e-05
1.40478e-05
1.40478e-05
1.40478e-05
1.40478e-05
1.40478e-05
1.40478e-05
1.40478e-05
1.40478e-05
1.40478e-05
1.40478e-05
1.40478e-05
1.40478e-05
1.40478e-05
1.40478e-05
1.40478e-05
1.40478e-05
1.40478e-05
1.40478e-05
1.40478e-05
1.40478e-05
1.40478e-05
1.40478e-05
1.40478e-05
1.40478e-05
1.40478e-05
1.40478e-05
1.40478e-05
1.40478e-05
1.40478e-05
1.40478e-05
1.40478e-05
1.40478e-05
1.40478e-05
1.40478e-05
1.40478e-05
1.40478e-05
1.40479e-05
1.40479e-05
1.4048e-05
1.40481e-05
1.40482e-05
1.40485e-05
1.40488e-05
1.40494e-05
1.40478e-05
1.40478e-05
1.40478e-05
1.40478e-05
1.40478e-05
1.40478e-05
1.40478e-05
1.40478e-05
1.40478e-05
1.40478e-05
1.40478e-05
1.40478e-05
1.40478e-05
1.40478e-05
1.40478e-05
1.40478e-05
1.40478e-05
1.40478e-05
1.40478e-05
1.40478e-05
1.40478e-05
1.40478e-05
1.40478e-05
1.40478e-05
1.40478e-05
1.40478e-05
1.40478e-05
1.40478e-05
1.40478e-05
1.40478e-05
1.40478e-05
1.40478e-05
1.40478e-05
1.40478e-05
1.40478e-05
1.40478e-05
1.40478e-05
1.40478e-05
1.40479e-05
1.40479e-05
1.40479e-05
1.4048e-05
1.40481e-05
1.40483e-05
1.40485e-05
1.40489e-05
1.40494e-05
1.40502e-05
1.40515e-05
1.40536e-05
1.40478e-05
1.40478e-05
1.40478e-05
1.40478e-05
1.40478e-05
1.40478e-05
1.40478e-05
1.40478e-05
1.40478e-05
1.40478e-05
1.40478e-05
1.40478e-05
1.40478e-05
1.40478e-05
1.40478e-05
1.40478e-05
1.40478e-05
1.40478e-05
1.40478e-05
1.40478e-05
1.40478e-05
1.40478e-05
1.40478e-05
1.40478e-05
1.40478e-05
1.40478e-05
1.40478e-05
1.40478e-05
1.40478e-05
1.40478e-05
1.40478e-05
1.40478e-05
1.40478e-05
1.40478e-05
1.40478e-05
1.40479e-05
1.40479e-05
1.40479e-05
1.4048e-05
1.40481e-05
1.40483e-05
1.40485e-05
1.40489e-05
1.40495e-05
1.40503e-05
1.40516e-05
1.40535e-05
1.40564e-05
1.40609e-05
1.40679e-05
1.40478e-05
1.40478e-05
1.40478e-05
1.40478e-05
1.40478e-05
1.40478e-05
1.40478e-05
1.40478e-05
1.40478e-05
1.40478e-05
1.40478e-05
1.40478e-05
1.40478e-05
1.40478e-05
1.40478e-05
1.40478e-05
1.40478e-05
1.40478e-05
1.40478e-05
1.40478e-05
1.40478e-05
1.40478e-05
1.40478e-05
1.40478e-05
1.40478e-05
1.40478e-05
1.40478e-05
1.40478e-05
1.40478e-05
1.40478e-05
1.40478e-05
1.40478e-05
1.40479e-05
1.40479e-05
1.4048e-05
1.4048e-05
1.40482e-05
1.40483e-05
1.40486e-05
1.4049e-05
1.40496e-05
1.40504e-05
1.40517e-05
1.40537e-05
1.40566e-05
1.40609e-05
1.40675e-05
1.40774e-05
1.40926e-05
1.41163e-05
1.40478e-05
1.40478e-05
1.40478e-05
1.40478e-05
1.40478e-05
1.40478e-05
1.40478e-05
1.40478e-05
1.40478e-05
1.40478e-05
1.40478e-05
1.40478e-05
1.40478e-05
1.40478e-05
1.40478e-05
1.40478e-05
1.40478e-05
1.40478e-05
1.40478e-05
1.40478e-05
1.40478e-05
1.40478e-05
1.40478e-05
1.40478e-05
1.40478e-05
1.40478e-05
1.40478e-05
1.40478e-05
1.40479e-05
1.40479e-05
1.40479e-05
1.4048e-05
1.40481e-05
1.40482e-05
1.40484e-05
1.40487e-05
1.40491e-05
1.40497e-05
1.40506e-05
1.4052e-05
1.4054e-05
1.40569e-05
1.40613e-05
1.40679e-05
1.40777e-05
1.40924e-05
1.41145e-05
1.41476e-05
1.41977e-05
1.4275e-05
1.40478e-05
1.40478e-05
1.40478e-05
1.40478e-05
1.40478e-05
1.40478e-05
1.40478e-05
1.40478e-05
1.40478e-05
1.40478e-05
1.40478e-05
1.40478e-05
1.40478e-05
1.40478e-05
1.40478e-05
1.40478e-05
1.40478e-05
1.40478e-05
1.40478e-05
1.40478e-05
1.40478e-05
1.40478e-05
1.40478e-05
1.40478e-05
1.40478e-05
1.40479e-05
1.40479e-05
1.40479e-05
1.4048e-05
1.40481e-05
1.40483e-05
1.40485e-05
1.40488e-05
1.40492e-05
1.40499e-05
1.40509e-05
1.40523e-05
1.40544e-05
1.40575e-05
1.4062e-05
1.40688e-05
1.40787e-05
1.40935e-05
1.41154e-05
1.41479e-05
1.41962e-05
1.42679e-05
1.43744e-05
1.45326e-05
1.47698e-05
1.40478e-05
1.40478e-05
1.40478e-05
1.40478e-05
1.40478e-05
1.40478e-05
1.40478e-05
1.40478e-05
1.40478e-05
1.40478e-05
1.40478e-05
1.40478e-05
1.40478e-05
1.40478e-05
1.40478e-05
1.40478e-05
1.40478e-05
1.40478e-05
1.40478e-05
1.40478e-05
1.40478e-05
1.40479e-05
1.40479e-05
1.40479e-05
1.4048e-05
1.40481e-05
1.40482e-05
1.40483e-05
1.40486e-05
1.40489e-05
1.40494e-05
1.40502e-05
1.40512e-05
1.40528e-05
1.4055e-05
1.40583e-05
1.40631e-05
1.40701e-05
1.40804e-05
1.40955e-05
1.41177e-05
1.41504e-05
1.41985e-05
1.42692e-05
1.4373e-05
1.45246e-05
1.4745e-05
1.50628e-05
1.55169e-05
1.61594e-05
1.40478e-05
1.40478e-05
1.40478e-05
1.40478e-05
1.40478e-05
1.40478e-05
1.40478e-05
1.40478e-05
1.40478e-05
1.40478e-05
1.40478e-05
1.40478e-05
1.40478e-05
1.40478e-05
1.40478e-05
1.40478e-05
1.40478e-05
1.40478e-05
1.40479e-05
1.40479e-05
1.4048e-05
1.4048e-05
1.40481e-05
1.40482e-05
1.40484e-05
1.40487e-05
1.40491e-05
1.40497e-05
1.40505e-05
1.40517e-05
1.40534e-05
1.40558e-05
1.40593e-05
1.40645e-05
1.40719e-05
1.40827e-05
1.40985e-05
1.41214e-05
1.41549e-05
1.42037e-05
1.42748e-05
1.43782e-05
1.4528e-05
1.47436e-05
1.50514e-05
1.54849e-05
1.60853e-05
1.68985e-05
1.79727e-05
1.93505e-05
1.40478e-05
1.40478e-05
1.40478e-05
1.40478e-05
1.40478e-05
1.40478e-05
1.40478e-05
1.40478e-05
1.40478e-05
1.40478e-05
1.40478e-05
1.40478e-05
1.40478e-05
1.40478e-05
1.40479e-05
1.40479e-05
1.40479e-05
1.4048e-05
1.40481e-05
1.40482e-05
1.40483e-05
1.40486e-05
1.40489e-05
1.40494e-05
1.405e-05
1.40509e-05
1.40523e-05
1.40541e-05
1.40569e-05
1.40607e-05
1.40663e-05
1.40744e-05
1.40859e-05
1.41027e-05
1.41268e-05
1.41617e-05
1.42121e-05
1.42849e-05
1.43897e-05
1.45403e-05
1.47553e-05
1.50594e-05
1.54843e-05
1.6068e-05
1.68523e-05
1.78781e-05
1.91786e-05
2.07727e-05
2.26623e-05
2.48255e-05
1.40478e-05
1.40478e-05
1.40478e-05
1.40478e-05
1.40478e-05
1.40478e-05
1.40478e-05
1.40478e-05
1.40478e-05
1.40478e-05
1.40479e-05
1.40479e-05
1.40479e-05
1.4048e-05
1.4048e-05
1.40481e-05
1.40483e-05
1.40485e-05
1.40488e-05
1.40491e-05
1.40497e-05
1.40504e-05
1.40515e-05
1.4053e-05
1.40552e-05
1.40582e-05
1.40626e-05
1.40688e-05
1.40776e-05
1.40902e-05
1.41083e-05
1.41341e-05
1.41711e-05
1.4224e-05
1.42998e-05
1.44081e-05
1.4562e-05
1.47798e-05
1.50852e-05
1.55083e-05
1.60848e-05
1.6854e-05
1.78537e-05
1.91148e-05
2.06536e-05
2.24678e-05
2.45351e-05
2.68167e-05
2.92659e-05
3.18238e-05
1.40478e-05
1.40478e-05
1.40478e-05
1.40478e-05
1.40478e-05
1.40478e-05
1.40479e-05
1.40479e-05
1.40479e-05
1.4048e-05
1.4048e-05
1.40481e-05
1.40482e-05
1.40484e-05
1.40487e-05
1.4049e-05
1.40495e-05
1.40501e-05
1.4051e-05
1.40523e-05
1.4054e-05
1.40565e-05
1.406e-05
1.4065e-05
1.4072e-05
1.40818e-05
1.40958e-05
1.41156e-05
1.41437e-05
1.41836e-05
1.42402e-05
1.43205e-05
1.44341e-05
1.45941e-05
1.48184e-05
1.51299e-05
1.55575e-05
1.6135e-05
1.68992e-05
1.78853e-05
1.91219e-05
2.06243e-05
2.23906e-05
2.44e-05
2.66154e-05
2.89878e-05
3.14625e-05
3.39819e-05
3.64885e-05
3.8935e-05
1.40478e-05
1.40478e-05
1.40479e-05
1.40479e-05
1.40479e-05
1.4048e-05
1.4048e-05
1.40481e-05
1.40482e-05
1.40484e-05
1.40486e-05
1.40489e-05
1.40493e-05
1.40499e-05
1.40507e-05
1.40518e-05
1.40533e-05
1.40554e-05
1.40583e-05
1.40624e-05
1.40681e-05
1.40761e-05
1.40873e-05
1.41031e-05
1.41252e-05
1.41563e-05
1.42001e-05
1.42616e-05
1.43481e-05
1.44692e-05
1.46383e-05
1.48729e-05
1.51955e-05
1.56339e-05
1.62203e-05
1.6989e-05
1.79727e-05
1.91971e-05
2.06761e-05
2.24076e-05
2.43723e-05
2.65362e-05
2.88539e-05
3.12743e-05
3.37432e-05
3.62026e-05
3.85994e-05
4.08861e-05
4.30116e-05
4.49298e-05
1.40479e-05
1.40479e-05
1.4048e-05
1.4048e-05
1.40481e-05
1.40482e-05
1.40484e-05
1.40486e-05
1.40489e-05
1.40492e-05
1.40498e-05
1.40505e-05
1.40514e-05
1.40528e-05
1.40546e-05
1.40572e-05
1.40607e-05
1.40655e-05
1.40722e-05
1.40816e-05
1.40945e-05
1.41126e-05
1.41377e-05
1.41727e-05
1.42215e-05
1.42895e-05
1.43841e-05
1.45154e-05
1.46968e-05
1.49459e-05
1.52849e-05
1.57407e-05
1.63438e-05
1.71263e-05
1.8118e-05
1.93419e-05
2.08094e-05
2.25175e-05
2.4448e-05
2.6569e-05
2.88388e-05
3.12099e-05
3.3633e-05
3.60553e-05
3.84254e-05
4.06972e-05
4.28249e-05
4.47535e-05
4.64273e-05
4.78053e-05
4.8899e-05
1.40481e-05
1.40482e-05
1.40484e-05
1.40486e-05
1.40488e-05
1.40492e-05
1.40497e-05
1.40504e-05
1.40513e-05
1.40525e-05
1.40542e-05
1.40564e-05
1.40596e-05
1.40638e-05
1.40697e-05
1.40777e-05
1.40888e-05
1.4104e-05
1.4125e-05
1.4154e-05
1.4194e-05
1.42493e-05
1.43257e-05
1.44308e-05
1.45753e-05
1.47729e-05
1.50413e-05
1.54024e-05
1.58824e-05
1.65103e-05
1.73157e-05
1.83254e-05
1.95593e-05
2.10261e-05
2.27214e-05
2.46271e-05
2.67131e-05
2.89405e-05
3.12655e-05
3.36428e-05
3.60251e-05
3.8364e-05
4.0616e-05
4.27401e-05
4.46894e-05
4.641e-05
4.78575e-05
4.90125e-05
4.98903e-05
5.05246e-05
5.09776e-05
1.40486e-05
1.40489e-05
1.40492e-05
1.40497e-05
1.40504e-05
1.40512e-05
1.40524e-05
1.40539e-05
1.40561e-05
1.40589e-05
1.40628e-05
1.40681e-05
1.40752e-05
1.4085e-05
1.40983e-05
1.41165e-05
1.41414e-05
1.41754e-05
1.42219e-05
1.42856e-05
1.43726e-05
1.44913e-05
1.46526e-05
1.48709e-05
1.51639e-05
1.55537e-05
1.60653e-05
1.67262e-05
1.75636e-05
1.86009e-05
1.98546e-05
2.13305e-05
2.30221e-05
2.49113e-05
2.69692e-05
2.91595e-05
3.14416e-05
3.37738e-05
3.61136e-05
3.84163e-05
4.06409e-05
4.275e-05
4.47035e-05
4.64534e-05
4.79535e-05
4.91767e-05
5.01246e-05
5.08257e-05
5.13213e-05
5.16603e-05
5.18822e-05
5.20292e-05
1.40504e-05
1.40513e-05
1.40524e-05
1.4054e-05
1.4056e-05
1.40587e-05
1.40624e-05
1.40673e-05
1.40739e-05
1.40828e-05
1.40949e-05
1.41111e-05
1.41332e-05
1.41631e-05
1.42035e-05
1.42584e-05
1.43328e-05
1.44335e-05
1.45694e-05
1.47521e-05
1.49964e-05
1.53205e-05
1.5746e-05
1.62973e-05
1.69999e-05
1.78782e-05
1.89522e-05
2.02346e-05
2.1728e-05
2.34239e-05
2.53035e-05
2.73391e-05
2.94965e-05
3.17382e-05
3.4026e-05
3.63214e-05
3.85839e-05
4.07747e-05
4.28595e-05
4.48035e-05
4.65646e-05
4.80983e-05
4.93731e-05
5.03811e-05
5.11411e-05
5.1689e-05
5.20677e-05
5.23208e-05
5.24818e-05
5.25804e-05
5.26378e-05
5.26643e-05
1.40562e-05
1.40589e-05
1.40624e-05
1.40672e-05
1.40735e-05
1.40819e-05
1.40932e-05
1.41083e-05
1.41285e-05
1.41556e-05
1.41921e-05
1.4241e-05
1.43068e-05
1.43949e-05
1.4513e-05
1.46707e-05
1.48803e-05
1.51571e-05
1.55195e-05
1.5989e-05
1.65886e-05
1.73417e-05
1.82697e-05
1.93888e-05
2.07077e-05
2.22257e-05
2.39323e-05
2.58078e-05
2.78255e-05
2.99533e-05
3.21567e-05
3.44005e-05
3.66499e-05
3.88685e-05
4.10201e-05
4.3073e-05
4.49961e-05
4.67531e-05
4.8303e-05
4.96121e-05
5.06662e-05
5.14755e-05
5.20699e-05
5.24874e-05
5.27695e-05
5.29522e-05
5.30635e-05
5.31289e-05
5.31592e-05
5.3161e-05
5.31581e-05
5.31507e-05
1.4074e-05
1.40822e-05
1.40931e-05
1.41076e-05
1.41268e-05
1.41523e-05
1.41862e-05
1.42313e-05
1.42913e-05
1.43711e-05
1.4477e-05
1.46174e-05
1.48026e-05
1.50457e-05
1.53627e-05
1.5772e-05
1.62944e-05
1.69515e-05
1.77642e-05
1.87502e-05
1.99218e-05
2.12836e-05
2.28317e-05
2.45533e-05
2.64285e-05
2.84312e-05
3.05316e-05
3.26977e-05
3.48974e-05
3.70992e-05
3.92705e-05
4.1378e-05
4.33921e-05
4.5285e-05
4.70254e-05
4.85762e-05
4.99036e-05
5.09892e-05
5.18366e-05
5.24694e-05
5.29212e-05
5.32304e-05
5.34339e-05
5.35586e-05
5.36313e-05
5.36679e-05
5.3672e-05
5.36639e-05
5.3652e-05
5.36273e-05
5.35866e-05
5.35379e-05
1.41278e-05
1.41525e-05
1.41851e-05
1.42281e-05
1.42847e-05
1.43592e-05
1.44574e-05
1.45862e-05
1.47549e-05
1.49749e-05
1.52598e-05
1.5626e-05
1.60918e-05
1.66769e-05
1.7401e-05
1.82819e-05
1.93334e-05
2.05636e-05
2.19731e-05
2.35547e-05
2.52941e-05
2.71708e-05
2.916e-05
3.12336e-05
3.33624e-05
3.55173e-05
3.76697e-05
3.97905e-05
4.18493e-05
4.38185e-05
4.56734e-05
4.73863e-05
4.89243e-05
5.02549e-05
5.13578e-05
5.22316e-05
5.28936e-05
5.33734e-05
5.37063e-05
5.3928e-05
5.40658e-05
5.41459e-05
5.41879e-05
5.41952e-05
5.4184e-05
5.41678e-05
5.41439e-05
5.41034e-05
5.40517e-05
5.39935e-05
5.39286e-05
5.38635e-05
1.42861e-05
1.4358e-05
1.44518e-05
1.45739e-05
1.47323e-05
1.49372e-05
1.52007e-05
1.55372e-05
1.5963e-05
1.64959e-05
1.71541e-05
1.79546e-05
1.89116e-05
2.00347e-05
2.13277e-05
2.27874e-05
2.4404e-05
2.61615e-05
2.80397e-05
3.00148e-05
3.2061e-05
3.41514e-05
3.62598e-05
3.83605e-05
4.04276e-05
4.24332e-05
4.43522e-05
4.6162e-05
4.78382e-05
4.93516e-05
5.06722e-05
5.17787e-05
5.26662e-05
5.33475e-05
5.38486e-05
5.42008e-05
5.44371e-05
5.45864e-05
5.46734e-05
5.4719e-05
5.47296e-05
5.47178e-05
5.46969e-05
5.46707e-05
5.46318e-05
5.45795e-05
5.45196e-05
5.44523e-05
5.43816e-05
5.43106e-05
5.42414e-05
5.41739e-05
1.47323e-05
1.49289e-05
1.51796e-05
1.54973e-05
1.58967e-05
1.63938e-05
1.70052e-05
1.77467e-05
1.8632e-05
1.96714e-05
2.08702e-05
2.22278e-05
2.37379e-05
2.53882e-05
2.71622e-05
2.90399e-05
3.09988e-05
3.30154e-05
3.50652e-05
3.71247e-05
3.9171e-05
4.11808e-05
4.31289e-05
4.49924e-05
4.67506e-05
4.83821e-05
4.98609e-05
5.11594e-05
5.22567e-05
5.31458e-05
5.38364e-05
5.43503e-05
5.47156e-05
5.49636e-05
5.51223e-05
5.52149e-05
5.52624e-05
5.52759e-05
5.5264e-05
5.52384e-05
5.52078e-05
5.51699e-05
5.51166e-05
5.50547e-05
5.49871e-05
5.49131e-05
5.4838e-05
5.47634e-05
5.46898e-05
5.46163e-05
5.45442e-05
5.44734e-05
1.6362e-05
1.69427e-05
1.76436e-05
1.84775e-05
1.94544e-05
2.05801e-05
2.18557e-05
2.32771e-05
2.48348e-05
2.65153e-05
2.83017e-05
3.01748e-05
3.21139e-05
3.40973e-05
3.61034e-05
3.81108e-05
4.00993e-05
4.2048e-05
4.39342e-05
4.57369e-05
4.74376e-05
4.90172e-05
5.04525e-05
5.17184e-05
5.27949e-05
5.36744e-05
5.43641e-05
5.48821e-05
5.52543e-05
5.55096e-05
5.5674e-05
5.57706e-05
5.58201e-05
5.58345e-05
5.58217e-05
5.5793e-05
5.57578e-05
5.57175e-05
5.56637e-05
5.55999e-05
5.55307e-05
5.54544e-05
5.53753e-05
5.52963e-05
5.52183e-05
5.51406e-05
5.50633e-05
5.49868e-05
5.49105e-05
5.4835e-05
5.47605e-05
1.93713e-05
2.04434e-05
2.16561e-05
2.30064e-05
2.44871e-05
2.60869e-05
2.77915e-05
2.95841e-05
3.1447e-05
3.3361e-05
3.53067e-05
3.72647e-05
3.92161e-05
4.1143e-05
4.30265e-05
4.48462e-05
4.65832e-05
4.82208e-05
4.97418e-05
5.11256e-05
5.23494e-05
5.33947e-05
5.42541e-05
5.49328e-05
5.54467e-05
5.58193e-05
5.60768e-05