/*--------------------------------*- C++ -*----------------------------------*\
| =========                 |                                                 |
| \\      /  F ield         | OpenFOAM: The Open Source CFD Toolbox           |
|  \\    /   O peration     | Version:  v1706                                 |
|   \\  /    A nd           | Web:      www.OpenFOAM.com                      |
|    \\/     M anipulation  |                                                 |
\*---------------------------------------------------------------------------*/
FoamFile
{
    version     2.0;
    format      ascii;
    class       volScalarField;
    location    "3.7e-05";
    object      kappave;
}
// * * * * * * * * * * * * * * * * * * * * * * * * * * * * * * * * * * * * * //

dimensions      [1 1 -3 -1 0 0 0];


internalField   nonuniform List<scalar> 
30038
(
1.46038e-10
1.46038e-10
1.46038e-10
1.46038e-10
1.46038e-10
1.46038e-10
1.46038e-10
1.46038e-10
1.46038e-10
1.46038e-10
1.46038e-10
1.46038e-10
1.46038e-10
1.46038e-10
1.46038e-10
1.46038e-10
1.46038e-10
1.46038e-10
1.46038e-10
1.46038e-10
1.46038e-10
1.46038e-10
1.46038e-10
1.46038e-10
1.46038e-10
1.46038e-10
1.46038e-10
1.46038e-10
1.46038e-10
1.46038e-10
1.46038e-10
1.46038e-10
1.46038e-10
1.46038e-10
1.46038e-10
1.46038e-10
1.46038e-10
1.46038e-10
1.46038e-10
1.46038e-10
1.46038e-10
1.46038e-10
1.46038e-10
1.46038e-10
1.46038e-10
1.46038e-10
1.46038e-10
1.46038e-10
1.46038e-10
1.46038e-10
1.46038e-10
1.46038e-10
1.46038e-10
1.46038e-10
1.46038e-10
1.46038e-10
1.46038e-10
1.46038e-10
1.46038e-10
1.46038e-10
1.46038e-10
1.46038e-10
1.46038e-10
1.46038e-10
1.46038e-10
1.46038e-10
1.46038e-10
1.46038e-10
1.46038e-10
1.46038e-10
1.46038e-10
1.46038e-10
1.46038e-10
1.46038e-10
1.46038e-10
1.46038e-10
1.46038e-10
1.46038e-10
1.46038e-10
1.46038e-10
1.46038e-10
1.46038e-10
1.46038e-10
1.46038e-10
1.46038e-10
1.46038e-10
1.46038e-10
1.46038e-10
1.46038e-10
1.46038e-10
1.46038e-10
1.46038e-10
1.46038e-10
1.46038e-10
1.46038e-10
1.46038e-10
1.46038e-10
1.46038e-10
1.46038e-10
1.46038e-10
1.46038e-10
1.46038e-10
1.46038e-10
1.46038e-10
1.46038e-10
1.46038e-10
1.46038e-10
1.46038e-10
1.46038e-10
1.46038e-10
1.46038e-10
1.46038e-10
1.46038e-10
1.46038e-10
1.46038e-10
1.46038e-10
1.46038e-10
1.46038e-10
1.46038e-10
1.46038e-10
1.46038e-10
1.46038e-10
1.46038e-10
1.46038e-10
1.46038e-10
1.46038e-10
1.46038e-10
1.46038e-10
1.46038e-10
1.46038e-10
1.46038e-10
1.46038e-10
1.46038e-10
1.46038e-10
1.46038e-10
1.46038e-10
1.46038e-10
1.46038e-10
1.46038e-10
1.46038e-10
1.46038e-10
1.46038e-10
1.46038e-10
1.46038e-10
1.46038e-10
1.46038e-10
1.46038e-10
1.46038e-10
1.46038e-10
1.46038e-10
1.46038e-10
1.46038e-10
1.46038e-10
1.46038e-10
1.46038e-10
1.46038e-10
1.46038e-10
1.46038e-10
1.46038e-10
1.46038e-10
1.46038e-10
1.46038e-10
1.46038e-10
1.46038e-10
1.46038e-10
1.46038e-10
1.46038e-10
1.46038e-10
1.46038e-10
1.46038e-10
1.46038e-10
1.46038e-10
1.46038e-10
1.46038e-10
1.46038e-10
1.46038e-10
1.46038e-10
1.46038e-10
1.46038e-10
1.46038e-10
1.46038e-10
1.46038e-10
1.46038e-10
1.46038e-10
1.46038e-10
1.46038e-10
1.46038e-10
1.46038e-10
1.46038e-10
1.46038e-10
1.46038e-10
1.46038e-10
1.46038e-10
1.46038e-10
1.46038e-10
1.46038e-10
1.46038e-10
1.46038e-10
1.46038e-10
1.46038e-10
1.46038e-10
1.46038e-10
1.46038e-10
1.46038e-10
1.46038e-10
1.46038e-10
1.46038e-10
1.46038e-10
1.46038e-10
1.46038e-10
1.46038e-10
1.46038e-10
1.46038e-10
1.46038e-10
1.46038e-10
1.46038e-10
1.46038e-10
1.46038e-10
1.46038e-10
1.46038e-10
1.46038e-10
1.46038e-10
1.46038e-10
1.46038e-10
1.46038e-10
1.46038e-10
1.46038e-10
1.46038e-10
1.46038e-10
1.46038e-10
1.46038e-10
1.46038e-10
1.46038e-10
1.46038e-10
1.46038e-10
1.46038e-10
1.46038e-10
1.46038e-10
1.46038e-10
1.46038e-10
1.46038e-10
1.46038e-10
1.46038e-10
1.46038e-10
1.46038e-10
1.46038e-10
1.46038e-10
1.46038e-10
1.46038e-10
1.46038e-10
1.46038e-10
1.46038e-10
1.46038e-10
1.46038e-10
1.46038e-10
1.46038e-10
1.46038e-10
1.46038e-10
1.46038e-10
1.46038e-10
1.46038e-10
1.46038e-10
1.46038e-10
1.46038e-10
1.46038e-10
1.46038e-10
1.46038e-10
1.46038e-10
1.46038e-10
1.46038e-10
1.46038e-10
1.46038e-10
1.46038e-10
1.46038e-10
1.46038e-10
1.46038e-10
1.46038e-10
1.46038e-10
1.46038e-10
1.46038e-10
1.46038e-10
1.46038e-10
1.46038e-10
1.46038e-10
1.46038e-10
1.46038e-10
1.46038e-10
1.46038e-10
1.46038e-10
1.46038e-10
1.46038e-10
1.46038e-10
1.46038e-10
1.46038e-10
1.46038e-10
1.46038e-10
1.46038e-10
1.46038e-10
1.46038e-10
1.46038e-10
1.46038e-10
1.46038e-10
1.46038e-10
1.46038e-10
1.46038e-10
1.46038e-10
1.46038e-10
1.46038e-10
1.46038e-10
1.46038e-10
1.46038e-10
1.46038e-10
1.46038e-10
1.46038e-10
1.46038e-10
1.46038e-10
1.46038e-10
1.46038e-10
1.46038e-10
1.46038e-10
1.46038e-10
1.46038e-10
1.46038e-10
1.46038e-10
1.46038e-10
1.46038e-10
1.46038e-10
1.46038e-10
1.46038e-10
1.46038e-10
1.46038e-10
1.46038e-10
1.46038e-10
1.46038e-10
1.46038e-10
1.46038e-10
1.46038e-10
1.46038e-10
1.46038e-10
1.46038e-10
1.46038e-10
1.46038e-10
1.46038e-10
1.46038e-10
1.46038e-10
1.46038e-10
1.46038e-10
1.46038e-10
1.46038e-10
1.46038e-10
1.46038e-10
1.46038e-10
1.46038e-10
1.46038e-10
1.46038e-10
1.46038e-10
1.46038e-10
1.46038e-10
1.46038e-10
1.46038e-10
1.46038e-10
1.46038e-10
1.46038e-10
1.46038e-10
1.46038e-10
1.46038e-10
1.46038e-10
1.46038e-10
1.46038e-10
1.46038e-10
1.46038e-10
1.46038e-10
1.46038e-10
1.46038e-10
1.46038e-10
1.46038e-10
1.46038e-10
1.46038e-10
1.46038e-10
1.46038e-10
1.46038e-10
1.46038e-10
1.46038e-10
1.46038e-10
1.46038e-10
1.46038e-10
1.46038e-10
1.46038e-10
1.46038e-10
1.46038e-10
1.46038e-10
1.46038e-10
1.46038e-10
1.46038e-10
1.46038e-10
1.46038e-10
1.46038e-10
1.46038e-10
1.46038e-10
1.46038e-10
1.46038e-10
1.46038e-10
1.46038e-10
1.46038e-10
1.46038e-10
1.46038e-10
1.46038e-10
1.46038e-10
1.46038e-10
1.46038e-10
1.46038e-10
1.46038e-10
1.46038e-10
1.46038e-10
1.46038e-10
1.46038e-10
1.46038e-10
1.46038e-10
1.46038e-10
1.46038e-10
1.46038e-10
1.46038e-10
1.46038e-10
1.46038e-10
1.46038e-10
1.46038e-10
1.46038e-10
1.46038e-10
1.46038e-10
1.46038e-10
1.46038e-10
1.46038e-10
1.46038e-10
1.46038e-10
1.46038e-10
1.46038e-10
1.46038e-10
1.46038e-10
1.46038e-10
1.46038e-10
1.46038e-10
1.46038e-10
1.46038e-10
1.46038e-10
1.46038e-10
1.46038e-10
1.46038e-10
1.46038e-10
1.46038e-10
1.46038e-10
1.46038e-10
1.46038e-10
1.46038e-10
1.46038e-10
1.46038e-10
1.46038e-10
1.46038e-10
1.46038e-10
1.46038e-10
1.46038e-10
1.46038e-10
1.46038e-10
1.46038e-10
1.46038e-10
1.46038e-10
1.46038e-10
1.46038e-10
1.46038e-10
1.46038e-10
1.46038e-10
1.46038e-10
1.46038e-10
1.46038e-10
1.46038e-10
1.46038e-10
1.46038e-10
1.46038e-10
1.46038e-10
1.46038e-10
1.46038e-10
1.46038e-10
1.46038e-10
1.46038e-10
1.46038e-10
1.46038e-10
1.46038e-10
1.46038e-10
1.46038e-10
1.46038e-10
1.46038e-10
1.46038e-10
1.46038e-10
1.46038e-10
1.46038e-10
1.46038e-10
1.46038e-10
1.46038e-10
1.46038e-10
1.46038e-10
1.46038e-10
1.46038e-10
1.46038e-10
1.46038e-10
1.46038e-10
1.46038e-10
1.46038e-10
1.46038e-10
1.46038e-10
1.46038e-10
1.46038e-10
1.46038e-10
1.46038e-10
1.46038e-10
1.46038e-10
1.46038e-10
1.46038e-10
1.46038e-10
1.46038e-10
1.46038e-10
1.46038e-10
1.46038e-10
1.46038e-10
1.46038e-10
1.46038e-10
1.46038e-10
1.46038e-10
1.46038e-10
1.46038e-10
1.46038e-10
1.46038e-10
1.46038e-10
1.46038e-10
1.46038e-10
1.46038e-10
1.46038e-10
1.46038e-10
1.46038e-10
1.46038e-10
1.46038e-10
1.46038e-10
1.46038e-10
1.46038e-10
1.46038e-10
1.46038e-10
1.46038e-10
1.46038e-10
1.46038e-10
1.46038e-10
1.46038e-10
1.46038e-10
1.46038e-10
1.46038e-10
1.46038e-10
1.46038e-10
1.46038e-10
1.46038e-10
1.46038e-10
1.46038e-10
1.46038e-10
1.46038e-10
1.46038e-10
1.46038e-10
1.46038e-10
1.46038e-10
1.46038e-10
1.46038e-10
1.46038e-10
1.46038e-10
1.46038e-10
1.46038e-10
1.46038e-10
1.46038e-10
1.46038e-10
1.46038e-10
1.46038e-10
1.46038e-10
1.46038e-10
1.46038e-10
1.46038e-10
1.46038e-10
1.46038e-10
1.46038e-10
1.46038e-10
1.46038e-10
1.46038e-10
1.46038e-10
1.46038e-10
1.46038e-10
1.46038e-10
1.46038e-10
1.46038e-10
1.46038e-10
1.46038e-10
1.46038e-10
1.46038e-10
1.46038e-10
1.46038e-10
1.46038e-10
1.46038e-10
1.46038e-10
1.46038e-10
1.46038e-10
1.46038e-10
1.46038e-10
1.46038e-10
1.46038e-10
1.46038e-10
1.46038e-10
1.46038e-10
1.46038e-10
1.46038e-10
1.46038e-10
1.46038e-10
1.46038e-10
1.46038e-10
1.46038e-10
1.46038e-10
1.46038e-10
1.46038e-10
1.46038e-10
1.46038e-10
1.46038e-10
1.46038e-10
1.46038e-10
1.46038e-10
1.46038e-10
1.46038e-10
1.46038e-10
1.46038e-10
1.46038e-10
1.46038e-10
1.46038e-10
1.46038e-10
1.46038e-10
1.46038e-10
1.46038e-10
1.46038e-10
1.46038e-10
1.46038e-10
1.46038e-10
1.46038e-10
1.46038e-10
1.46038e-10
1.46038e-10
1.46038e-10
1.46038e-10
1.46038e-10
1.46038e-10
1.46038e-10
1.46038e-10
1.46038e-10
1.46038e-10
1.46038e-10
1.46038e-10
1.46038e-10
1.46038e-10
1.46038e-10
1.46038e-10
1.46038e-10
1.46038e-10
1.46038e-10
1.46038e-10
1.46038e-10
1.46038e-10
1.46038e-10
1.46038e-10
1.46038e-10
1.46038e-10
1.46038e-10
1.46038e-10
1.46038e-10
1.46038e-10
1.46038e-10
1.46038e-10
1.46038e-10
1.46038e-10
1.46038e-10
1.46038e-10
1.46038e-10
1.46038e-10
1.46038e-10
1.46038e-10
1.46038e-10
1.46038e-10
1.46038e-10
1.46038e-10
1.46038e-10
1.46038e-10
1.46038e-10
1.46038e-10
1.46038e-10
1.46038e-10
1.46038e-10
1.46038e-10
1.46038e-10
1.46038e-10
1.46038e-10
1.46038e-10
1.46038e-10
1.46038e-10
1.46038e-10
1.46038e-10
1.46038e-10
1.46038e-10
1.46038e-10
1.46038e-10
1.46038e-10
1.46038e-10
1.46038e-10
1.46038e-10
1.46038e-10
1.46038e-10
1.46038e-10
1.46038e-10
1.46038e-10
1.46038e-10
1.46038e-10
1.46038e-10
1.46038e-10
1.46038e-10
1.46038e-10
1.46038e-10
1.46038e-10
1.46038e-10
1.46038e-10
1.46038e-10
1.46038e-10
1.46038e-10
1.46038e-10
1.46038e-10
1.46038e-10
1.46038e-10
1.46038e-10
1.46038e-10
1.46038e-10
1.46038e-10
1.46038e-10
1.46038e-10
1.46038e-10
1.46038e-10
1.46038e-10
1.46038e-10
1.46038e-10
1.46038e-10
1.46038e-10
1.46038e-10
1.46038e-10
1.46038e-10
1.46038e-10
1.46038e-10
1.46038e-10
1.46038e-10
1.46038e-10
1.46038e-10
1.46038e-10
1.46038e-10
1.46038e-10
1.46038e-10
1.46038e-10
1.46038e-10
1.46038e-10
1.46038e-10
1.46038e-10
1.46038e-10
1.46038e-10
1.46038e-10
1.46038e-10
1.46038e-10
1.46038e-10
1.46038e-10
1.46038e-10
1.46038e-10
1.46038e-10
1.46038e-10
1.46038e-10
1.46038e-10
1.46038e-10
1.46038e-10
1.46038e-10
1.46038e-10
1.46038e-10
1.46038e-10
1.46038e-10
1.46038e-10
1.46038e-10
1.46038e-10
1.46038e-10
1.46038e-10
1.46038e-10
1.46038e-10
1.46038e-10
1.46038e-10
1.46038e-10
1.46038e-10
1.46038e-10
1.46038e-10
1.46038e-10
1.46038e-10
1.46038e-10
1.46038e-10
1.46038e-10
1.46038e-10
1.46038e-10
1.46038e-10
1.46038e-10
1.46038e-10
1.46038e-10
1.46038e-10
1.46038e-10
1.46038e-10
1.46038e-10
1.46038e-10
1.46038e-10
1.46038e-10
1.46038e-10
1.46038e-10
1.46038e-10
1.46038e-10
1.46038e-10
1.46038e-10
1.46038e-10
1.46038e-10
1.46038e-10
1.46038e-10
1.46038e-10
1.46038e-10
1.46038e-10
1.46038e-10
1.46038e-10
1.46038e-10
1.46038e-10
1.46038e-10
1.46038e-10
1.46038e-10
1.46038e-10
1.46038e-10
1.46038e-10
1.46038e-10
1.46038e-10
1.46038e-10
1.46038e-10
1.46038e-10
1.46038e-10
1.46038e-10
1.46038e-10
1.46038e-10
1.46038e-10
1.46038e-10
1.46038e-10
1.46038e-10
1.46038e-10
1.46038e-10
1.46038e-10
1.46038e-10
1.46038e-10
1.46038e-10
1.46038e-10
1.46038e-10
1.46038e-10
1.46038e-10
1.46038e-10
1.46038e-10
1.46038e-10
1.46038e-10
1.46038e-10
1.46038e-10
1.46038e-10
1.46038e-10
1.46038e-10
1.46038e-10
1.46038e-10
1.46038e-10
1.46038e-10
1.46038e-10
1.46038e-10
1.46038e-10
1.46038e-10
1.46038e-10
1.46038e-10
1.46038e-10
1.46038e-10
1.46038e-10
1.46038e-10
1.46038e-10
1.46038e-10
1.46038e-10
1.46038e-10
1.46038e-10
1.46038e-10
1.46038e-10
1.46038e-10
1.46038e-10
1.46038e-10
1.46038e-10
1.46038e-10
1.46038e-10
1.46038e-10
1.46038e-10
1.46038e-10
1.46038e-10
1.46038e-10
1.46038e-10
1.46038e-10
1.46038e-10
1.46038e-10
1.46038e-10
1.46038e-10
1.46038e-10
1.46038e-10
1.46038e-10
1.46038e-10
1.46038e-10
1.46038e-10
1.46038e-10
1.46038e-10
1.46038e-10
1.46038e-10
1.46038e-10
1.46038e-10
1.46038e-10
1.46038e-10
1.46038e-10
1.46038e-10
1.46038e-10
1.46038e-10
1.46038e-10
1.46038e-10
1.46038e-10
1.46038e-10
1.46038e-10
1.46038e-10
1.46038e-10
1.46038e-10
1.46038e-10
1.46038e-10
1.46038e-10
1.46038e-10
1.46038e-10
1.46038e-10
1.46038e-10
1.46038e-10
1.46038e-10
1.46038e-10
1.46038e-10
1.46038e-10
1.46038e-10
1.46038e-10
1.46038e-10
1.46038e-10
1.46038e-10
1.46038e-10
1.46038e-10
1.46038e-10
1.46038e-10
1.46038e-10
1.46038e-10
1.46038e-10
1.46038e-10
1.46038e-10
1.46038e-10
1.46038e-10
1.46038e-10
1.46038e-10
1.46038e-10
1.46038e-10
1.46038e-10
1.46038e-10
1.46038e-10
1.46038e-10
1.46038e-10
1.46038e-10
1.46038e-10
1.46038e-10
1.46038e-10
1.46038e-10
1.46038e-10
1.46038e-10
1.46038e-10
1.46038e-10
1.46038e-10
1.46038e-10
1.46038e-10
1.46038e-10
1.46038e-10
1.46038e-10
1.46038e-10
1.46038e-10
1.46038e-10
1.46038e-10
1.46038e-10
1.46038e-10
1.46038e-10
1.46038e-10
1.46038e-10
1.46038e-10
1.46038e-10
1.46038e-10
1.46038e-10
1.46038e-10
1.46038e-10
1.46038e-10
1.46038e-10
1.46038e-10
1.46038e-10
1.46038e-10
1.46038e-10
1.46038e-10
1.46038e-10
1.46038e-10
1.46038e-10
1.46038e-10
1.46038e-10
1.46038e-10
1.46038e-10
1.46038e-10
1.46038e-10
1.46038e-10
1.46038e-10
1.46038e-10
1.46038e-10
1.46038e-10
1.46038e-10
1.46038e-10
1.46038e-10
1.46038e-10
1.46038e-10
1.46038e-10
1.46038e-10
1.46038e-10
1.46038e-10
1.46038e-10
1.46038e-10
1.46038e-10
1.46038e-10
1.46038e-10
1.46038e-10
1.46038e-10
1.46038e-10
1.46038e-10
1.46038e-10
1.46038e-10
1.46038e-10
1.46038e-10
1.46038e-10
1.46038e-10
1.46038e-10
1.46038e-10
1.46038e-10
1.46038e-10
1.46038e-10
1.46038e-10
1.46038e-10
1.46038e-10
1.46038e-10
1.46038e-10
1.46038e-10
1.46038e-10
1.46038e-10
1.46038e-10
1.46038e-10
1.46038e-10
1.46038e-10
1.46038e-10
1.46038e-10
1.46038e-10
1.46038e-10
1.46038e-10
1.46038e-10
1.46038e-10
1.46038e-10
1.46038e-10
1.46038e-10
1.46038e-10
1.46038e-10
1.46038e-10
1.46038e-10
1.46038e-10
1.46038e-10
1.46038e-10
1.46038e-10
1.46038e-10
1.46038e-10
1.46038e-10
1.46038e-10
1.46038e-10
1.46038e-10
1.46038e-10
1.46038e-10
1.46038e-10
1.46038e-10
1.46038e-10
1.46038e-10
1.46038e-10
1.46038e-10
1.46038e-10
1.46038e-10
1.46038e-10
1.46038e-10
1.46038e-10
1.46038e-10
1.46038e-10
1.46038e-10
1.46038e-10
1.46038e-10
1.46038e-10
1.46038e-10
1.46038e-10
1.46038e-10
1.46038e-10
1.46038e-10
1.46038e-10
1.46038e-10
1.46038e-10
1.46038e-10
1.46038e-10
1.46038e-10
1.46038e-10
1.46038e-10
1.46038e-10
1.46038e-10
1.46038e-10
1.46038e-10
1.46038e-10
1.46038e-10
1.46038e-10
1.46038e-10
1.46038e-10
1.46038e-10
1.46038e-10
1.46038e-10
1.46038e-10
1.46038e-10
1.46038e-10
1.46038e-10
1.46038e-10
1.46038e-10
1.46038e-10
1.46038e-10
1.46038e-10
1.46038e-10
1.46038e-10
1.46038e-10
1.46038e-10
1.46038e-10
1.46038e-10
1.46038e-10
1.46038e-10
1.46038e-10
1.46038e-10
1.46038e-10
1.46038e-10
1.46038e-10
1.46038e-10
1.46038e-10
1.46038e-10
1.46038e-10
1.46038e-10
1.46038e-10
1.46038e-10
1.46038e-10
1.46038e-10
1.46038e-10
1.46038e-10
1.46038e-10
1.46038e-10
1.46038e-10
1.46038e-10
1.46038e-10
1.46038e-10
1.46038e-10
1.46038e-10
1.46038e-10
1.46038e-10
1.46038e-10
1.46038e-10
1.46038e-10
1.46038e-10
1.46038e-10
1.46038e-10
1.46038e-10
1.46038e-10
1.46038e-10
1.46038e-10
1.46038e-10
1.46038e-10
1.46038e-10
1.46038e-10
1.46038e-10
1.46038e-10
1.46038e-10
1.46038e-10
1.46038e-10
1.46038e-10
1.46038e-10
1.46038e-10
1.46038e-10
1.46038e-10
1.46038e-10
1.46038e-10
1.46038e-10
1.46038e-10
1.46038e-10
1.46038e-10
1.46038e-10
1.46038e-10
1.46038e-10
1.46038e-10
1.46038e-10
1.46038e-10
1.46038e-10
1.46038e-10
1.46038e-10
1.46038e-10
1.46038e-10
1.46038e-10
1.46038e-10
1.46038e-10
1.46038e-10
1.46038e-10
1.46038e-10
1.46038e-10
1.46038e-10
1.46038e-10
1.46038e-10
1.46038e-10
1.46038e-10
1.46038e-10
1.46038e-10
1.46038e-10
1.46038e-10
1.46038e-10
1.46038e-10
1.46038e-10
1.46038e-10
1.46038e-10
1.46038e-10
1.46038e-10
1.46038e-10
1.46038e-10
1.46038e-10
1.46039e-10
1.46039e-10
1.46038e-10
1.46038e-10
1.46038e-10
1.46038e-10
1.46038e-10
1.46038e-10
1.46038e-10
1.46038e-10
1.46038e-10
1.46038e-10
1.46038e-10
1.46038e-10
1.46038e-10
1.46038e-10
1.46038e-10
1.46038e-10
1.46038e-10
1.46038e-10
1.46038e-10
1.46038e-10
1.46038e-10
1.46038e-10
1.46038e-10
1.46038e-10
1.46038e-10
1.46038e-10
1.46038e-10
1.46038e-10
1.46038e-10
1.46038e-10
1.46038e-10
1.46038e-10
1.46038e-10
1.46038e-10
1.46038e-10
1.46038e-10
1.46038e-10
1.46038e-10
1.46038e-10
1.46038e-10
1.46038e-10
1.46038e-10
1.46038e-10
1.46038e-10
1.46038e-10
1.46039e-10
1.46039e-10
1.4604e-10
1.46041e-10
1.46042e-10
1.46038e-10
1.46038e-10
1.46038e-10
1.46038e-10
1.46038e-10
1.46038e-10
1.46038e-10
1.46038e-10
1.46038e-10
1.46038e-10
1.46038e-10
1.46038e-10
1.46038e-10
1.46038e-10
1.46038e-10
1.46038e-10
1.46038e-10
1.46038e-10
1.46038e-10
1.46038e-10
1.46038e-10
1.46038e-10
1.46038e-10
1.46038e-10
1.46038e-10
1.46038e-10
1.46038e-10
1.46038e-10
1.46038e-10
1.46038e-10
1.46038e-10
1.46038e-10
1.46038e-10
1.46038e-10
1.46038e-10
1.46038e-10
1.46038e-10
1.46038e-10
1.46038e-10
1.46038e-10
1.46038e-10
1.46038e-10
1.46039e-10
1.46039e-10
1.4604e-10
1.46041e-10
1.46042e-10
1.46045e-10
1.46049e-10
1.46055e-10
1.46038e-10
1.46038e-10
1.46038e-10
1.46038e-10
1.46038e-10
1.46038e-10
1.46038e-10
1.46038e-10
1.46038e-10
1.46038e-10
1.46038e-10
1.46038e-10
1.46038e-10
1.46038e-10
1.46038e-10
1.46038e-10
1.46038e-10
1.46038e-10
1.46038e-10
1.46038e-10
1.46038e-10
1.46038e-10
1.46038e-10
1.46038e-10
1.46038e-10
1.46038e-10
1.46038e-10
1.46038e-10
1.46038e-10
1.46038e-10
1.46038e-10
1.46038e-10
1.46038e-10
1.46038e-10
1.46038e-10
1.46038e-10
1.46038e-10
1.46038e-10
1.46038e-10
1.46039e-10
1.46039e-10
1.4604e-10
1.46041e-10
1.46043e-10
1.46045e-10
1.46049e-10
1.46055e-10
1.46064e-10
1.46078e-10
1.461e-10
1.46038e-10
1.46038e-10
1.46038e-10
1.46038e-10
1.46038e-10
1.46038e-10
1.46038e-10
1.46038e-10
1.46038e-10
1.46038e-10
1.46038e-10
1.46038e-10
1.46038e-10
1.46038e-10
1.46038e-10
1.46038e-10
1.46038e-10
1.46038e-10
1.46038e-10
1.46038e-10
1.46038e-10
1.46038e-10
1.46038e-10
1.46038e-10
1.46038e-10
1.46038e-10
1.46038e-10
1.46038e-10
1.46038e-10
1.46038e-10
1.46038e-10
1.46038e-10
1.46038e-10
1.46038e-10
1.46038e-10
1.46038e-10
1.46039e-10
1.46039e-10
1.4604e-10
1.46041e-10
1.46043e-10
1.46046e-10
1.4605e-10
1.46056e-10
1.46065e-10
1.46078e-10
1.46099e-10
1.46131e-10
1.46181e-10
1.4626e-10
1.46038e-10
1.46038e-10
1.46038e-10
1.46038e-10
1.46038e-10
1.46038e-10
1.46038e-10
1.46038e-10
1.46038e-10
1.46038e-10
1.46038e-10
1.46038e-10
1.46038e-10
1.46038e-10
1.46038e-10
1.46038e-10
1.46038e-10
1.46038e-10
1.46038e-10
1.46038e-10
1.46038e-10
1.46038e-10
1.46038e-10
1.46038e-10
1.46038e-10
1.46038e-10
1.46038e-10
1.46038e-10
1.46038e-10
1.46038e-10
1.46038e-10
1.46038e-10
1.46039e-10
1.46039e-10
1.4604e-10
1.4604e-10
1.46042e-10
1.46044e-10
1.46046e-10
1.4605e-10
1.46057e-10
1.46066e-10
1.4608e-10
1.46101e-10
1.46133e-10
1.46182e-10
1.46256e-10
1.46368e-10
1.46543e-10
1.4682e-10
1.46038e-10
1.46038e-10
1.46038e-10
1.46038e-10
1.46038e-10
1.46038e-10
1.46038e-10
1.46038e-10
1.46038e-10
1.46038e-10
1.46038e-10
1.46038e-10
1.46038e-10
1.46038e-10
1.46038e-10
1.46038e-10
1.46038e-10
1.46038e-10
1.46038e-10
1.46038e-10
1.46038e-10
1.46038e-10
1.46038e-10
1.46038e-10
1.46038e-10
1.46038e-10
1.46038e-10
1.46038e-10
1.46038e-10
1.46039e-10
1.46039e-10
1.4604e-10
1.46041e-10
1.46042e-10
1.46044e-10
1.46047e-10
1.46052e-10
1.46058e-10
1.46068e-10
1.46083e-10
1.46105e-10
1.46138e-10
1.46187e-10
1.46262e-10
1.46374e-10
1.46544e-10
1.46803e-10
1.47198e-10
1.47808e-10
1.48776e-10
1.46038e-10
1.46038e-10
1.46038e-10
1.46038e-10
1.46038e-10
1.46038e-10
1.46038e-10
1.46038e-10
1.46038e-10
1.46038e-10
1.46038e-10
1.46038e-10
1.46038e-10
1.46038e-10
1.46038e-10
1.46038e-10
1.46038e-10
1.46038e-10
1.46038e-10
1.46038e-10
1.46038e-10
1.46038e-10
1.46038e-10
1.46038e-10
1.46038e-10
1.46039e-10
1.46039e-10
1.46039e-10
1.4604e-10
1.46041e-10
1.46043e-10
1.46045e-10
1.46048e-10
1.46053e-10
1.46061e-10
1.46071e-10
1.46087e-10
1.4611e-10
1.46145e-10
1.46196e-10
1.46273e-10
1.46388e-10
1.46561e-10
1.46821e-10
1.47213e-10
1.47808e-10
1.4871e-10
1.50085e-10
1.52197e-10
1.55513e-10
1.46038e-10
1.46038e-10
1.46038e-10
1.46038e-10
1.46038e-10
1.46038e-10
1.46038e-10
1.46038e-10
1.46038e-10
1.46038e-10
1.46038e-10
1.46038e-10
1.46038e-10
1.46038e-10
1.46038e-10
1.46038e-10
1.46038e-10
1.46038e-10
1.46038e-10
1.46038e-10
1.46038e-10
1.46038e-10
1.46039e-10
1.46039e-10
1.4604e-10
1.46041e-10
1.46042e-10
1.46044e-10
1.46046e-10
1.4605e-10
1.46055e-10
1.46063e-10
1.46075e-10
1.46092e-10
1.46117e-10
1.46154e-10
1.46209e-10
1.4629e-10
1.4641e-10
1.46589e-10
1.46856e-10
1.47256e-10
1.47857e-10
1.48761e-10
1.50125e-10
1.52183e-10
1.55291e-10
1.59986e-10
1.67103e-10
1.78044e-10
1.46038e-10
1.46038e-10
1.46038e-10
1.46038e-10
1.46038e-10
1.46038e-10
1.46038e-10
1.46038e-10
1.46038e-10
1.46038e-10
1.46038e-10
1.46038e-10
1.46038e-10
1.46038e-10
1.46038e-10
1.46038e-10
1.46038e-10
1.46038e-10
1.46039e-10
1.46039e-10
1.46039e-10
1.4604e-10
1.46041e-10
1.46043e-10
1.46045e-10
1.46048e-10
1.46052e-10
1.46058e-10
1.46067e-10
1.4608e-10
1.46099e-10
1.46127e-10
1.46167e-10
1.46226e-10
1.46313e-10
1.46441e-10
1.4663e-10
1.4691e-10
1.47326e-10
1.47947e-10
1.48873e-10
1.5026e-10
1.52337e-10
1.55449e-10
1.60108e-10
1.67067e-10
1.77428e-10
1.92792e-10
2.15534e-10
2.49369e-10
1.46038e-10
1.46038e-10
1.46038e-10
1.46038e-10
1.46038e-10
1.46038e-10
1.46038e-10
1.46038e-10
1.46038e-10
1.46038e-10
1.46038e-10
1.46038e-10
1.46038e-10
1.46038e-10
1.46038e-10
1.46039e-10
1.46039e-10
1.4604e-10
1.46041e-10
1.46042e-10
1.46044e-10
1.46046e-10
1.4605e-10
1.46055e-10
1.46062e-10
1.46072e-10
1.46087e-10
1.46109e-10
1.46139e-10
1.46184e-10
1.4625e-10
1.46345e-10
1.46483e-10
1.46687e-10
1.46987e-10
1.47429e-10
1.48083e-10
1.49052e-10
1.50492e-10
1.52633e-10
1.55819e-10
1.60558e-10
1.67592e-10
1.77999e-10
1.93321e-10
2.15735e-10
2.48262e-10
2.95017e-10
3.61621e-10
4.55857e-10
1.46038e-10
1.46038e-10
1.46038e-10
1.46038e-10
1.46038e-10
1.46038e-10
1.46038e-10
1.46038e-10
1.46038e-10
1.46038e-10
1.46038e-10
1.46039e-10
1.46039e-10
1.4604e-10
1.4604e-10
1.46042e-10
1.46043e-10
1.46045e-10
1.46048e-10
1.46052e-10
1.46058e-10
1.46067e-10
1.46079e-10
1.46096e-10
1.46121e-10
1.46156e-10
1.46207e-10
1.4628e-10
1.46387e-10
1.46541e-10
1.46765e-10
1.47092e-10
1.47571e-10
1.48274e-10
1.49309e-10
1.50835e-10
1.5309e-10
1.56421e-10
1.61344e-10
1.68605e-10
1.79288e-10
1.94937e-10
2.17724e-10
2.50636e-10
2.97675e-10
3.63992e-10
4.5595e-10
5.81156e-10
7.48828e-10
9.70308e-10
1.46038e-10
1.46038e-10
1.46038e-10
1.46038e-10
1.46038e-10
1.46038e-10
1.46038e-10
1.46039e-10
1.46039e-10
1.4604e-10
1.4604e-10
1.46041e-10
1.46043e-10
1.46045e-10
1.46047e-10
1.46051e-10
1.46056e-10
1.46063e-10
1.46073e-10
1.46088e-10
1.46108e-10
1.46137e-10
1.46178e-10
1.46237e-10
1.46321e-10
1.46442e-10
1.46616e-10
1.46868e-10
1.47233e-10
1.47763e-10
1.48535e-10
1.49664e-10
1.51317e-10
1.53741e-10
1.57299e-10
1.62521e-10
1.70177e-10
1.81374e-10
1.97687e-10
2.21324e-10
2.55312e-10
3.0368e-10
3.71598e-10
4.65383e-10
5.92403e-10
7.60811e-10
9.793e-10
1.25704e-09
1.60421e-09
2.03393e-09
1.46038e-10
1.46038e-10
1.46038e-10
1.46039e-10
1.46039e-10
1.4604e-10
1.4604e-10
1.46041e-10
1.46042e-10
1.46044e-10
1.46047e-10
1.4605e-10
1.46055e-10
1.46061e-10
1.4607e-10
1.46082e-10
1.461e-10
1.46124e-10
1.46159e-10
1.46208e-10
1.46277e-10
1.46376e-10
1.46517e-10
1.46718e-10
1.47006e-10
1.47421e-10
1.4802e-10
1.48886e-10
1.50144e-10
1.51972e-10
1.54635e-10
1.58518e-10
1.64178e-10
1.72423e-10
1.84408e-10
2.0177e-10
2.26789e-10
2.62574e-10
3.13242e-10
3.8404e-10
4.81353e-10
6.12579e-10
7.85902e-10
1.00993e-09
1.29342e-09
1.64463e-09
2.07135e-09
2.58076e-09
3.18157e-09
3.88818e-09
1.46039e-10
1.46039e-10
1.4604e-10
1.4604e-10
1.46041e-10
1.46042e-10
1.46044e-10
1.46046e-10
1.46049e-10
1.46054e-10
1.4606e-10
1.46068e-10
1.46079e-10
1.46095e-10
1.46116e-10
1.46147e-10
1.46189e-10
1.46248e-10
1.46332e-10
1.4645e-10
1.46616e-10
1.46853e-10
1.47191e-10
1.47673e-10
1.48364e-10
1.49358e-10
1.50789e-10
1.52856e-10
1.55846e-10
1.60176e-10
1.66446e-10
1.7552e-10
1.88627e-10
2.07496e-10
2.34522e-10
2.72947e-10
3.27025e-10
4.02134e-10
5.04769e-10
6.4241e-10
8.23301e-10
1.0561e-09
1.34955e-09
1.71214e-09
2.15146e-09
2.67438e-09
3.28642e-09
3.99082e-09
4.78815e-09
5.68152e-09
6.69426e-09
1.46041e-10
1.46043e-10
1.46044e-10
1.46046e-10
1.46049e-10
1.46054e-10
1.46059e-10
1.46067e-10
1.46077e-10
1.46092e-10
1.46112e-10
1.46139e-10
1.46177e-10
1.4623e-10
1.46303e-10
1.46406e-10
1.4655e-10
1.46752e-10
1.47037e-10
1.4744e-10
1.48013e-10
1.48829e-10
1.49993e-10
1.51659e-10
1.54048e-10
1.5748e-10
1.62417e-10
1.69517e-10
1.79725e-10
1.94371e-10
2.15318e-10
2.45119e-10
2.872e-10
3.46007e-10
4.27098e-10
5.37126e-10
6.83687e-10
8.75087e-10
1.12003e-09
1.4273e-09
1.80546e-09
2.26222e-09
2.80456e-09
3.4382e-09
4.16694e-09
4.99145e-09
5.9101e-09
6.92094e-09
8.02426e-09
9.22739e-09
1.05747e-08
1.46047e-10
1.4605e-10
1.46054e-10
1.4606e-10
1.46067e-10
1.46077e-10
1.46091e-10
1.4611e-10
1.46136e-10
1.46171e-10
1.4622e-10
1.46287e-10
1.46379e-10
1.46508e-10
1.46687e-10
1.46938e-10
1.47289e-10
1.47782e-10
1.48477e-10
1.49461e-10
1.50855e-10
1.52838e-10
1.55662e-10
1.59692e-10
1.65449e-10
1.73672e-10
1.85412e-10
2.0214e-10
2.25893e-10
2.59438e-10
3.06436e-10
3.71582e-10
4.60665e-10
5.8053e-10
7.38917e-10
9.44207e-10
1.20516e-09
1.53056e-09
1.92898e-09
2.40822e-09
2.97527e-09
3.63605e-09
4.39482e-09
5.253e-09
6.20911e-09
7.26054e-09
8.40562e-09
9.64547e-09
1.09829e-08
1.24239e-08
1.39802e-08
1.57134e-08
1.46068e-10
1.46079e-10
1.46092e-10
1.46111e-10
1.46136e-10
1.4617e-10
1.46217e-10
1.4628e-10
1.46367e-10
1.46487e-10
1.46652e-10
1.46881e-10
1.47198e-10
1.47639e-10
1.48256e-10
1.49119e-10
1.50333e-10
1.52042e-10
1.54456e-10
1.57872e-10
1.62713e-10
1.6958e-10
1.79321e-10
1.93128e-10
2.12656e-10
2.40169e-10
2.78701e-10
3.32214e-10
4.05702e-10
5.05231e-10
6.37872e-10
8.11523e-10
1.03465e-09
1.31604e-09
1.66447e-09
2.08846e-09
2.59591e-09
3.19368e-09
3.88782e-09
4.68281e-09
5.58068e-09
6.58032e-09
7.6789e-09
8.87373e-09
1.01644e-08
1.15527e-08
1.30423e-08
1.46396e-08
1.63501e-08
1.81821e-08
2.01508e-08
2.23302e-08
1.4614e-10
1.46174e-10
1.46221e-10
1.46283e-10
1.46368e-10
1.46484e-10
1.46642e-10
1.46858e-10
1.47156e-10
1.47567e-10
1.48135e-10
1.48923e-10
1.50021e-10
1.51554e-10
1.53698e-10
1.56707e-10
1.60936e-10
1.66887e-10
1.75269e-10
1.87074e-10
2.03678e-10
2.26973e-10
2.59511e-10
3.0466e-10
3.66736e-10
4.51088e-10
5.64098e-10
7.13084e-10
9.0611e-10
1.15172e-09
1.45872e-09
1.83582e-09
2.29147e-09
2.83356e-09
3.46885e-09
4.2034e-09
5.04172e-09
5.98627e-09
7.03635e-09
8.18903e-09
9.44088e-09
1.07901e-08
1.22376e-08
1.37857e-08
1.54394e-08
1.72045e-08
1.90868e-08
2.10959e-08
2.32375e-08
2.55184e-08
2.79654e-08
3.06662e-08
1.46382e-10
1.46498e-10
1.46655e-10
1.46868e-10
1.47159e-10
1.47556e-10
1.48101e-10
1.48849e-10
1.49882e-10
1.51311e-10
1.53292e-10
1.56048e-10
1.59887e-10
1.65247e-10
1.72737e-10
1.83208e-10
1.9784e-10
2.18253e-10
2.46638e-10
2.85902e-10
3.39814e-10
4.13106e-10
5.11524e-10
6.41792e-10
8.11486e-10
1.02883e-09
1.30243e-09
1.64106e-09
2.05336e-09
2.54766e-09
3.13172e-09
3.81222e-09
4.59505e-09
5.48472e-09
6.48395e-09
7.59242e-09
8.80707e-09
1.01239e-08
1.154e-08
1.30552e-08
1.46707e-08
1.63903e-08
1.82196e-08
2.01632e-08
2.22294e-08
2.44261e-08
2.67562e-08
2.92369e-08
3.18776e-08
3.46814e-08
3.76662e-08
4.09417e-08
1.47207e-10
1.47606e-10
1.48149e-10
1.48889e-10
1.499e-10
1.51285e-10
1.5319e-10
1.55816e-10
1.59442e-10
1.64461e-10
1.71417e-10
1.81065e-10
1.94449e-10
2.12996e-10
2.38634e-10
2.7393e-10
3.22223e-10
3.87748e-10
4.75704e-10
5.92268e-10
7.44512e-10
9.40263e-10
1.18788e-09
1.49601e-09
1.87333e-09
2.3284e-09
2.86936e-09
3.50379e-09
4.23818e-09
5.07819e-09
6.02832e-09
7.09127e-09
8.26691e-09
9.55221e-09
1.09428e-08
1.2435e-08
1.40271e-08
1.57195e-08
1.75146e-08
1.94176e-08
2.14326e-08
2.35663e-08
2.5828e-08
2.82197e-08
3.07533e-08
3.34441e-08
3.62951e-08
3.93108e-08
4.25019e-08
4.58832e-08
4.94755e-08
5.34073e-08
1.50077e-10
1.51476e-10
1.53382e-10
1.55985e-10
1.5955e-10
1.6444e-10
1.71159e-10
1.80403e-10
1.93124e-10
2.10619e-10
2.34636e-10
2.67497e-10
3.12225e-10
3.7267e-10
4.53592e-10
5.60696e-10
7.00596e-10
8.80708e-10
1.10907e-09
1.39415e-09
1.74455e-09
2.16887e-09
2.67546e-09
3.27227e-09
3.96659e-09
4.76472e-09
5.672e-09
6.69278e-09
7.82958e-09
9.08236e-09
1.04481e-08
1.19222e-08
1.34999e-08
1.51786e-08
1.69579e-08
1.88392e-08
2.0826e-08
2.29225e-08
2.51344e-08
2.74706e-08
2.99341e-08
3.25334e-08
3.52842e-08
3.8193e-08
4.12619e-08
4.45004e-08
4.79205e-08
5.15321e-08
5.53484e-08
5.93875e-08
6.36773e-08
6.83585e-08
1.6023e-10
1.6519e-10
1.71946e-10
1.8116e-10
1.93733e-10
2.10883e-10
2.34244e-10
2.65974e-10
3.08881e-10
3.66534e-10
4.43358e-10
5.44685e-10
6.76738e-10
8.46558e-10
1.06186e-09
1.33085e-09
1.66202e-09
2.06391e-09
2.54491e-09
3.11317e-09
3.77634e-09
4.5414e-09
5.41436e-09
6.40019e-09
7.50298e-09
8.72498e-09
1.00661e-08
1.15233e-08
1.30913e-08
1.4765e-08
1.65409e-08
1.84175e-08
2.03951e-08
2.24764e-08
2.46656e-08
2.69669e-08
2.93874e-08
3.19333e-08
3.46099e-08
3.74302e-08
4.04056e-08
4.35394e-08
4.6836e-08
5.03074e-08
5.39652e-08
5.78185e-08
6.18837e-08
6.61752e-08
7.07063e-08
7.54923e-08
8.05656e-08
8.60839e-08
2.1386e-10
2.37471e-10
2.69279e-10
3.11956e-10
3.68891e-10
4.44277e-10
5.43167e-10
6.71479e-10
8.35935e-10
1.04395e-09
1.30348e-09
1.62281e-09
2.0104e-09
2.47462e-09
3.02363e-09
3.66526e-09
4.40682e-09
5.25491e-09
6.21516e-09
7.29213e-09
8.48956e-09
9.80934e-09
1.12512e-08
1.28117e-08
1.44855e-08
1.62666e-08
1.81508e-08
2.01356e-08
2.22205e-08
2.44077e-08
2.67e-08
2.91012e-08
3.16178e-08
3.42565e-08
3.70215e-08
3.99226e-08
4.29747e-08
4.61822e-08
4.95474e-08
5.30811e-08
5.67952e-08
6.06978e-08
6.48028e-08
6.91261e-08
7.36807e-08
7.84789e-08
8.35352e-08
8.88644e-08
9.44837e-08
1.00429e-07
1.06875e-07
3.80183e-10
4.56719e-10
5.564e-10
6.84925e-10
8.48773e-10
1.0551e-09
1.31163e-09
1.62643e-09
2.00781e-09
2.46407e-09
3.00334e-09
3.63345e-09
4.36188e-09
5.19552e-09
6.14052e-09
7.20202e-09
8.38414e-09
9.69017e-09
1.11215e-08
1.26776e-08
1.43547e-08
1.61468e-08
1.80476e-08
2.0052e-08
2.21567e-08
2.43607e-08
2.66649e-08
2.90711e-08