/*--------------------------------*- C++ -*----------------------------------*\
| =========                 |                                                 |
| \\      /  F ield         | OpenFOAM: The Open Source CFD Toolbox           |
|  \\    /   O peration     | Version:  v1706                                 |
|   \\  /    A nd           | Web:      www.OpenFOAM.com                      |
|    \\/     M anipulation  |                                                 |
\*---------------------------------------------------------------------------*/
FoamFile
{
    version     2.0;
    format      ascii;
    class       volScalarField;
    location    "3.7e-05";
    object      Mach;
}
// * * * * * * * * * * * * * * * * * * * * * * * * * * * * * * * * * * * * * //

dimensions      [0 0 0 0 0 0 0];


internalField   nonuniform List<scalar> 
30038
(
7.18506
7.18506
7.18506
7.18506
7.18506
7.18506
7.18506
7.18506
7.18506
7.18506
7.18506
7.18506
7.18506
7.18506
7.18506
7.18506
7.18506
7.18506
7.18506
7.18506
7.18506
7.18506
7.18506
7.18506
7.18506
7.18506
7.18506
7.18506
7.18506
7.18506
7.18506
7.18506
7.18506
7.18506
7.18506
7.18506
7.18506
7.18506
7.18506
7.18506
7.18506
7.18506
7.18506
7.18506
7.18506
7.18506
7.18506
7.18506
7.18506
7.18506
7.18506
7.18506
7.18506
7.18506
7.18506
7.18506
7.18506
7.18506
7.18506
7.18506
7.18506
7.18506
7.18506
7.18506
7.18506
7.18506
7.18506
7.18506
7.18506
7.18506
7.18506
7.18506
7.18506
7.18506
7.18506
7.18506
7.18506
7.18506
7.18506
7.18506
7.18506
7.18506
7.18506
7.18506
7.18506
7.18506
7.18506
7.18506
7.18506
7.18506
7.18506
7.18506
7.18506
7.18506
7.18506
7.18506
7.18506
7.18506
7.18506
7.18506
7.18506
7.18506
7.18506
7.18506
7.18506
7.18506
7.18506
7.18506
7.18506
7.18506
7.18506
7.18506
7.18506
7.18506
7.18506
7.18506
7.18506
7.18506
7.18506
7.18506
7.18506
7.18506
7.18506
7.18506
7.18506
7.18506
7.18506
7.18506
7.18506
7.18506
7.18506
7.18506
7.18506
7.18506
7.18506
7.18506
7.18506
7.18506
7.18506
7.18506
7.18506
7.18506
7.18506
7.18506
7.18506
7.18506
7.18506
7.18506
7.18506
7.18506
7.18506
7.18506
7.18506
7.18506
7.18506
7.18506
7.18506
7.18506
7.18506
7.18506
7.18506
7.18506
7.18506
7.18506
7.18506
7.18506
7.18506
7.18506
7.18506
7.18506
7.18506
7.18506
7.18506
7.18506
7.18506
7.18506
7.18506
7.18506
7.18506
7.18506
7.18506
7.18506
7.18506
7.18506
7.18506
7.18506
7.18506
7.18506
7.18506
7.18506
7.18506
7.18506
7.18506
7.18506
7.18506
7.18506
7.18506
7.18506
7.18506
7.18506
7.18506
7.18506
7.18506
7.18506
7.18506
7.18506
7.18506
7.18506
7.18506
7.18506
7.18506
7.18506
7.18506
7.18506
7.18506
7.18506
7.18506
7.18506
7.18506
7.18506
7.18506
7.18506
7.18506
7.18506
7.18506
7.18506
7.18506
7.18506
7.18506
7.18506
7.18506
7.18506
7.18506
7.18506
7.18506
7.18506
7.18506
7.18506
7.18506
7.18506
7.18506
7.18506
7.18506
7.18506
7.18506
7.18506
7.18506
7.18506
7.18506
7.18506
7.18506
7.18506
7.18506
7.18506
7.18506
7.18506
7.18506
7.18506
7.18506
7.18506
7.18506
7.18506
7.18506
7.18506
7.18506
7.18506
7.18506
7.18506
7.18506
7.18506
7.18506
7.18506
7.18506
7.18506
7.18506
7.18506
7.18506
7.18506
7.18506
7.18506
7.18506
7.18506
7.18506
7.18506
7.18506
7.18506
7.18506
7.18506
7.18506
7.18506
7.18506
7.18506
7.18506
7.18506
7.18506
7.18506
7.18506
7.18506
7.18506
7.18506
7.18506
7.18506
7.18506
7.18506
7.18506
7.18506
7.18506
7.18506
7.18506
7.18506
7.18506
7.18506
7.18506
7.18506
7.18506
7.18506
7.18506
7.18506
7.18506
7.18506
7.18506
7.18506
7.18506
7.18506
7.18506
7.18506
7.18506
7.18506
7.18506
7.18506
7.18506
7.18506
7.18506
7.18506
7.18506
7.18506
7.18506
7.18506
7.18506
7.18506
7.18506
7.18506
7.18506
7.18506
7.18506
7.18506
7.18506
7.18506
7.18506
7.18506
7.18506
7.18506
7.18506
7.18506
7.18506
7.18506
7.18506
7.18506
7.18506
7.18506
7.18506
7.18506
7.18506
7.18506
7.18506
7.18506
7.18506
7.18506
7.18506
7.18506
7.18506
7.18506
7.18506
7.18506
7.18506
7.18506
7.18506
7.18506
7.18506
7.18506
7.18506
7.18506
7.18506
7.18506
7.18506
7.18506
7.18506
7.18506
7.18506
7.18506
7.18506
7.18506
7.18506
7.18506
7.18506
7.18506
7.18506
7.18506
7.18506
7.18506
7.18506
7.18506
7.18506
7.18506
7.18506
7.18506
7.18506
7.18506
7.18506
7.18506
7.18506
7.18506
7.18506
7.18506
7.18506
7.18506
7.18506
7.18506
7.18506
7.18506
7.18506
7.18506
7.18506
7.18506
7.18506
7.18506
7.18506
7.18506
7.18506
7.18506
7.18506
7.18506
7.18506
7.18506
7.18506
7.18506
7.18506
7.18506
7.18506
7.18506
7.18506
7.18506
7.18506
7.18506
7.18506
7.18506
7.18506
7.18506
7.18506
7.18506
7.18506
7.18506
7.18506
7.18506
7.18506
7.18506
7.18506
7.18506
7.18506
7.18506
7.18506
7.18506
7.18506
7.18506
7.18506
7.18506
7.18506
7.18506
7.18506
7.18506
7.18506
7.18506
7.18506
7.18506
7.18506
7.18506
7.18506
7.18506
7.18506
7.18506
7.18506
7.18506
7.18506
7.18506
7.18506
7.18506
7.18506
7.18506
7.18506
7.18506
7.18506
7.18506
7.18506
7.18506
7.18506
7.18506
7.18506
7.18506
7.18506
7.18506
7.18506
7.18506
7.18506
7.18506
7.18506
7.18506
7.18506
7.18506
7.18506
7.18506
7.18506
7.18506
7.18506
7.18506
7.18506
7.18506
7.18506
7.18506
7.18506
7.18506
7.18506
7.18506
7.18506
7.18506
7.18506
7.18506
7.18506
7.18506
7.18506
7.18506
7.18506
7.18506
7.18506
7.18506
7.18506
7.18506
7.18506
7.18506
7.18506
7.18506
7.18506
7.18506
7.18506
7.18506
7.18506
7.18506
7.18506
7.18506
7.18506
7.18506
7.18506
7.18506
7.18506
7.18506
7.18506
7.18506
7.18506
7.18506
7.18506
7.18506
7.18506
7.18506
7.18506
7.18506
7.18506
7.18506
7.18506
7.18506
7.18506
7.18506
7.18506
7.18506
7.18506
7.18506
7.18506
7.18506
7.18506
7.18506
7.18506
7.18506
7.18506
7.18506
7.18506
7.18506
7.18506
7.18506
7.18506
7.18506
7.18506
7.18506
7.18506
7.18506
7.18506
7.18506
7.18506
7.18506
7.18506
7.18506
7.18506
7.18506
7.18506
7.18506
7.18506
7.18506
7.18506
7.18506
7.18506
7.18506
7.18506
7.18506
7.18506
7.18506
7.18506
7.18506
7.18506
7.18506
7.18506
7.18506
7.18506
7.18506
7.18506
7.18506
7.18506
7.18506
7.18506
7.18506
7.18506
7.18506
7.18506
7.18506
7.18506
7.18506
7.18506
7.18506
7.18506
7.18506
7.18506
7.18506
7.18506
7.18506
7.18506
7.18506
7.18506
7.18506
7.18506
7.18506
7.18506
7.18506
7.18506
7.18506
7.18506
7.18506
7.18506
7.18506
7.18506
7.18506
7.18506
7.18506
7.18506
7.18506
7.18506
7.18506
7.18506
7.18506
7.18506
7.18506
7.18506
7.18506
7.18506
7.18506
7.18506
7.18506
7.18506
7.18506
7.18506
7.18506
7.18506
7.18506
7.18506
7.18506
7.18506
7.18506
7.18506
7.18506
7.18506
7.18506
7.18506
7.18506
7.18506
7.18506
7.18506
7.18506
7.18506
7.18506
7.18506
7.18506
7.18506
7.18506
7.18506
7.18506
7.18506
7.18506
7.18506
7.18506
7.18506
7.18506
7.18506
7.18506
7.18506
7.18506
7.18506
7.18506
7.18506
7.18506
7.18506
7.18506
7.18506
7.18506
7.18506
7.18506
7.18506
7.18506
7.18506
7.18506
7.18506
7.18506
7.18506
7.18506
7.18506
7.18506
7.18506
7.18506
7.18506
7.18506
7.18506
7.18506
7.18506
7.18506
7.18506
7.18506
7.18506
7.18506
7.18506
7.18506
7.18506
7.18506
7.18506
7.18506
7.18506
7.18506
7.18506
7.18506
7.18506
7.18506
7.18506
7.18506
7.18506
7.18506
7.18506
7.18506
7.18506
7.18506
7.18506
7.18506
7.18506
7.18506
7.18506
7.18506
7.18506
7.18506
7.18506
7.18506
7.18506
7.18506
7.18506
7.18506
7.18506
7.18506
7.18506
7.18506
7.18506
7.18506
7.18506
7.18506
7.18506
7.18506
7.18506
7.18506
7.18506
7.18506
7.18506
7.18506
7.18506
7.18506
7.18506
7.18506
7.18506
7.18506
7.18506
7.18506
7.18506
7.18506
7.18506
7.18506
7.18506
7.18506
7.18506
7.18506
7.18506
7.18506
7.18506
7.18506
7.18506
7.18506
7.18506
7.18506
7.18506
7.18506
7.18506
7.18506
7.18506
7.18506
7.18506
7.18506
7.18506
7.18506
7.18506
7.18506
7.18506
7.18506
7.18506
7.18506
7.18506
7.18506
7.18506
7.18506
7.18506
7.18506
7.18506
7.18506
7.18506
7.18506
7.18506
7.18506
7.18506
7.18506
7.18506
7.18506
7.18506
7.18506
7.18506
7.18506
7.18506
7.18506
7.18506
7.18506
7.18506
7.18506
7.18506
7.18506
7.18506
7.18506
7.18506
7.18506
7.18506
7.18506
7.18506
7.18506
7.18506
7.18506
7.18506
7.18506
7.18506
7.18506
7.18506
7.18506
7.18506
7.18506
7.18506
7.18506
7.18506
7.18506
7.18506
7.18506
7.18506
7.18506
7.18506
7.18506
7.18506
7.18506
7.18506
7.18506
7.18506
7.18506
7.18506
7.18506
7.18506
7.18506
7.18506
7.18506
7.18506
7.18506
7.18506
7.18506
7.18506
7.18506
7.18506
7.18506
7.18506
7.18506
7.18506
7.18506
7.18506
7.18506
7.18506
7.18506
7.18506
7.18506
7.18506
7.18506
7.18506
7.18506
7.18506
7.18506
7.18506
7.18506
7.18506
7.18506
7.18506
7.18506
7.18506
7.18506
7.18506
7.18506
7.18506
7.18506
7.18506
7.18506
7.18506
7.18506
7.18506
7.18506
7.18506
7.18506
7.18506
7.18506
7.18506
7.18506
7.18506
7.18506
7.18506
7.18506
7.18506
7.18506
7.18506
7.18506
7.18506
7.18506
7.18506
7.18506
7.18506
7.18506
7.18506
7.18506
7.18506
7.18506
7.18506
7.18506
7.18506
7.18506
7.18506
7.18506
7.18506
7.18506
7.18506
7.18506
7.18506
7.18506
7.18506
7.18506
7.18506
7.18506
7.18506
7.18506
7.18506
7.18506
7.18506
7.18506
7.18506
7.18506
7.18506
7.18506
7.18506
7.18506
7.18506
7.18506
7.18506
7.18506
7.18506
7.18506
7.18506
7.18506
7.18506
7.18506
7.18506
7.18506
7.18506
7.18506
7.18506
7.18506
7.18506
7.18506
7.18506
7.18506
7.18506
7.18506
7.18506
7.18506
7.18506
7.18506
7.18506
7.18506
7.18506
7.18506
7.18506
7.18506
7.18506
7.18506
7.18506
7.18506
7.18506
7.18506
7.18506
7.18506
7.18506
7.18506
7.18506
7.18506
7.18506
7.18506
7.18506
7.18506
7.18506
7.18506
7.18506
7.18506
7.18506
7.18506
7.18506
7.18506
7.18506
7.18506
7.18506
7.18506
7.18506
7.18506
7.18506
7.18506
7.18506
7.18506
7.18506
7.18506
7.18506
7.18506
7.18506
7.18506
7.18506
7.18506
7.18506
7.18506
7.18506
7.18506
7.18506
7.18506
7.18506
7.18506
7.18506
7.18506
7.18506
7.18506
7.18506
7.18506
7.18506
7.18506
7.18506
7.18506
7.18506
7.18506
7.18506
7.18506
7.18506
7.18506
7.18506
7.18506
7.18506
7.18506
7.18506
7.18506
7.18506
7.18506
7.18506
7.18506
7.18506
7.18506
7.18506
7.18506
7.18506
7.18506
7.18506
7.18506
7.18506
7.18506
7.18506
7.18506
7.18506
7.18506
7.18506
7.18506
7.18506
7.18506
7.18506
7.18506
7.18506
7.18506
7.18506
7.18506
7.18506
7.18506
7.18506
7.18506
7.18506
7.18506
7.18506
7.18506
7.18506
7.18506
7.18506
7.18506
7.18506
7.18506
7.18506
7.18506
7.18506
7.18506
7.18506
7.18506
7.18506
7.18506
7.18506
7.18506
7.18506
7.18506
7.18506
7.18506
7.18506
7.18506
7.18506
7.18506
7.18506
7.18506
7.18506
7.18506
7.18506
7.18506
7.18506
7.18506
7.18506
7.18506
7.18506
7.18506
7.18506
7.18506
7.18506
7.18506
7.18506
7.18506
7.18506
7.18506
7.18506
7.18506
7.18506
7.18506
7.18506
7.18506
7.18506
7.18506
7.18506
7.18506
7.18506
7.18506
7.18506
7.18505
7.18506
7.18506
7.18506
7.18506
7.18506
7.18506
7.18506
7.18506
7.18506
7.18506
7.18506
7.18506
7.18506
7.18506
7.18506
7.18506
7.18506
7.18506
7.18506
7.18506
7.18506
7.18506
7.18506
7.18506
7.18506
7.18506
7.18506
7.18506
7.18506
7.18506
7.18506
7.18506
7.18506
7.18506
7.18506
7.18506
7.18506
7.18506
7.18506
7.18506
7.18506
7.18506
7.18506
7.18506
7.18506
7.18506
7.18505
7.18505
7.18503
7.18502
7.18506
7.18506
7.18506
7.18506
7.18506
7.18506
7.18506
7.18506
7.18506
7.18506
7.18506
7.18506
7.18506
7.18506
7.18506
7.18506
7.18506
7.18506
7.18506
7.18506
7.18506
7.18506
7.18506
7.18506
7.18506
7.18506
7.18506
7.18506
7.18506
7.18506
7.18506
7.18506
7.18506
7.18506
7.18506
7.18506
7.18506
7.18506
7.18506
7.18506
7.18506
7.18506
7.18506
7.18505
7.18504
7.18503
7.18502
7.18499
7.18495
7.18489
7.18506
7.18506
7.18506
7.18506
7.18506
7.18506
7.18506
7.18506
7.18506
7.18506
7.18506
7.18506
7.18506
7.18506
7.18506
7.18506
7.18506
7.18506
7.18506
7.18506
7.18506
7.18506
7.18506
7.18506
7.18506
7.18506
7.18506
7.18506
7.18506
7.18506
7.18506
7.18506
7.18506
7.18506
7.18506
7.18506
7.18506
7.18506
7.18506
7.18505
7.18505
7.18504
7.18503
7.18502
7.18499
7.18495
7.18489
7.1848
7.18466
7.18444
7.18506
7.18506
7.18506
7.18506
7.18506
7.18506
7.18506
7.18506
7.18506
7.18506
7.18506
7.18506
7.18506
7.18506
7.18506
7.18506
7.18506
7.18506
7.18506
7.18506
7.18506
7.18506
7.18506
7.18506
7.18506
7.18506
7.18506
7.18506
7.18506
7.18506
7.18506
7.18506
7.18506
7.18506
7.18506
7.18506
7.18505
7.18505
7.18504
7.18503
7.18501
7.18498
7.18494
7.18488
7.18479
7.18466
7.18445
7.18413
7.18364
7.18285
7.18506
7.18506
7.18506
7.18506
7.18506
7.18506
7.18506
7.18506
7.18506
7.18506
7.18506
7.18506
7.18506
7.18506
7.18506
7.18506
7.18506
7.18506
7.18506
7.18506
7.18506
7.18506
7.18506
7.18506
7.18506
7.18506
7.18506
7.18506
7.18506
7.18506
7.18506
7.18506
7.18506
7.18505
7.18505
7.18504
7.18502
7.18501
7.18498
7.18494
7.18487
7.18478
7.18464
7.18442
7.1841
7.18362
7.18289
7.18178
7.18007
7.17739
7.18506
7.18506
7.18506
7.18506
7.18506
7.18506
7.18506
7.18506
7.18506
7.18506
7.18506
7.18506
7.18506
7.18506
7.18506
7.18506
7.18506
7.18506
7.18506
7.18506
7.18506
7.18506
7.18506
7.18506
7.18506
7.18506
7.18506
7.18506
7.18506
7.18505
7.18505
7.18504
7.18503
7.18502
7.185
7.18497
7.18492
7.18485
7.18475
7.18461
7.18438
7.18405
7.18356
7.18282
7.18171
7.18005
7.17755
7.17377
7.16799
7.15902
7.18506
7.18506
7.18506
7.18506
7.18506
7.18506
7.18506
7.18506
7.18506
7.18506
7.18506
7.18506
7.18506
7.18506
7.18506
7.18506
7.18506
7.18506
7.18506
7.18506
7.18506
7.18506
7.18506
7.18506
7.18506
7.18506
7.18505
7.18505
7.18504
7.18503
7.18501
7.18499
7.18496
7.1849
7.18483
7.18472
7.18456
7.18433
7.18398
7.18347
7.18271
7.18157
7.17989
7.17738
7.17364
7.16805
7.1597
7.14721
7.12834
7.0996
7.18506
7.18506
7.18506
7.18506
7.18506
7.18506
7.18506
7.18506
7.18506
7.18506
7.18506
7.18506
7.18506
7.18506
7.18506
7.18506
7.18506
7.18506
7.18506
7.18506
7.18506
7.18506
7.18505
7.18505
7.18504
7.18504
7.18502
7.185
7.18498
7.18494
7.18488
7.1848
7.18468
7.18451
7.18425
7.18388
7.18334
7.18254
7.18136
7.17962
7.17705
7.17326
7.16765
7.15935
7.14707
7.12893
7.10219
7.06295
7.00535
6.92121
7.18506
7.18506
7.18506
7.18506
7.18506
7.18506
7.18506
7.18506
7.18506
7.18506
7.18506
7.18506
7.18506
7.18506
7.18506
7.18506
7.18506
7.18506
7.18506
7.18505
7.18505
7.18504
7.18503
7.18501
7.18499
7.18496
7.18492
7.18485
7.18476
7.18463
7.18444
7.18416
7.18375
7.18316
7.18231
7.18106
7.17923
7.17656
7.17264
7.1669
7.15848
7.14614
7.12808
7.10172
7.06344
7.00831
6.92982
6.82
6.6691
6.46809
7.18506
7.18506
7.18506
7.18506
7.18506
7.18506
7.18506
7.18506
7.18506
7.18506
7.18506
7.18506
7.18506
7.18506
7.18506
7.18505
7.18505
7.18504
7.18503
7.18502
7.185
7.18498
7.18494
7.18489
7.18481
7.18471
7.18456
7.18434
7.18403
7.18358
7.18293
7.182
7.18065
7.17869
7.17586
7.17174
7.16576
7.15707
7.14445
7.12613
7.09964
7.06152
7.00709
6.93031
6.82384
6.67968
6.49045
6.25159
5.96214
5.63007
7.18506
7.18506
7.18506
7.18506
7.18506
7.18506
7.18506
7.18506
7.18506
7.18506
7.18506
7.18505
7.18505
7.18504
7.18504
7.18502
7.18501
7.18499
7.18496
7.18491
7.18485
7.18476
7.18464
7.18446
7.18421
7.18386
7.18335
7.18263
7.1816
7.18011
7.17799
7.17493
7.17052
7.16418
7.15505
7.14191
7.12301
7.09593
7.0573
7.00266
6.92624
6.82116
6.67994
6.49582
6.26465
5.98699
5.66926
5.32354
4.96274
4.6047
7.18506
7.18506
7.18506
7.18506
7.18506
7.18506
7.18506
7.18505
7.18505
7.18504
7.18504
7.18503
7.18501
7.18499
7.18497
7.18493
7.18487
7.1848
7.18469
7.18455
7.18434
7.18405
7.18364
7.18306
7.18224
7.18107
7.17941
7.17706
7.1737
7.1689
7.16207
7.15231
7.13838
7.11855
7.09039
7.05062
6.99487
6.91765
6.81241
6.67219
6.49072
6.26426
5.99338
5.68419
5.34783
4.99837
4.64971
4.31374
3.99666
3.70678
7.18506
7.18506
7.18506
7.18505
7.18505
7.18504
7.18504
7.18503
7.18501
7.185
7.18497
7.18494
7.18489
7.18482
7.18473
7.1846
7.18443
7.18418
7.18383
7.18335
7.18267
7.18172
7.18038
7.1785
7.17584
7.17209
7.16679
7.15928
7.14867
7.13368
7.11252
7.08276
7.04114
6.98339
6.90418
6.79733
6.65633
6.47549
6.25155
5.98534
5.68268
5.35403
5.01251
4.67132
4.34159
4.03138
3.74542
3.4863
3.25232
3.04626
7.18505
7.18504
7.18504
7.18503
7.18501
7.185
7.18497
7.18494
7.1849
7.18484
7.18475
7.18464
7.18448
7.18426
7.18396
7.18354
7.18297
7.18216
7.18104
7.17948
7.17731
7.17426
7.17
7.16403
7.15566
7.14393
7.12751
7.10456
7.07262
7.02838
6.96765
6.88526
6.77533
6.63184
6.44974
6.22638
5.963
5.6654
5.3435
5.00956
4.67588
4.35282
4.04799
3.76609
3.50941
3.27866
3.07321
2.89288
2.73566
2.60333
7.18503
7.18501
7.185
7.18497
7.18494
7.1849
7.18484
7.18476
7.18466
7.18451
7.18431
7.18404
7.18367
7.18316
7.18245
7.18148
7.18014
7.1783
7.17574
7.17219
7.16727
7.16043
7.15095
7.13777
7.1195
7.09423
7.0594
7.01169
6.94692
6.86007
6.74557
6.59793
6.4128
6.18827
5.92614
5.63236
5.31645
4.98988
4.66402
4.34842
4.05005
3.77329
3.52038
3.29198
3.08779
2.90711
2.74952
2.61496
2.50413
2.41581
2.34855
7.18494
7.18489
7.18484
7.18476
7.18466
7.18452
7.18433
7.18408
7.18373
7.18326
7.18263
7.18176
7.18057
7.17894
7.17671
7.17366
7.16946
7.16368
7.15574
7.14481
7.12978
7.10913
7.08087
7.04234
6.99016
6.92015
6.82746
6.70687
6.55347
6.36367
6.13646
5.87428
5.58335
5.27288
4.95361
4.63593
4.32853
4.03766
3.76729
3.51946
3.29478
3.09303
2.91348
2.75563
2.61933
2.50494
2.4126
2.34127
2.28875
2.25132
2.22512
7.18475
7.18465
7.18451
7.18433
7.18408
7.18375
7.18331
7.18271
7.1819
7.18081
7.17933
7.17732
7.17459
7.17088
7.16583
7.15895
7.14957
7.13678
7.11937
7.0957
7.06364
7.02043
6.96261
6.88603
6.78602
6.65776
6.49702
6.30112
6.06998
5.8068
5.5181
5.21283
4.90097
4.59193
4.29344
4.01104
3.74817
3.50662
3.28692
3.08886
2.91175
2.75501
2.61837
2.50208
2.40645
2.33109
2.27431
2.23329
2.20474
2.18547
2.17278
2.16426
7.18405
7.18372
7.18329
7.18271
7.18193
7.18089
7.1795
7.17762
7.17511
7.17172
7.16715
7.16098
7.15265
7.1414
7.12622
7.10576
7.07824
7.04139
6.99231
6.92748
6.84282
6.73389
6.59639
6.42687
6.22366
5.9877
5.72299
5.43632
5.13633
4.8322
4.53236
4.24355
3.97051
3.71618
3.482
3.26841
3.07517
2.90167
2.74726
2.61161
2.49483
2.39731
2.31899
2.25879
2.21448
2.18313
2.16175
2.1475
2.13831
2.13255
2.12939
2.12775
7.18185
7.18083
7.17947
7.17766
7.17526
7.17206
7.16778
7.16206
7.15442
7.14419
7.13051
7.11224
7.08787
7.05546
7.01258
6.95622
6.88281
6.78838
6.66886
6.52059
6.34104
6.12967
5.88847
5.62219
5.33779
5.04353
4.74774
4.45778
4.17943
3.91662
3.67173
3.4459
3.23944
3.05204
2.88316
2.73214
2.59863
2.48263
2.38449
2.3044
2.24171
2.19471
2.16089
2.13747
2.12175
2.11155
2.10532
2.1015
2.09975
2.09937
2.10045
2.10158
7.17508
7.17194
7.1678
7.16233
7.15507
7.14546
7.13273
7.11588
7.09359
7.06421
7.02561
6.97519
6.90985
6.82605
6.72006
6.58828
6.42788
6.23741
6.01749
5.77119
5.50384
5.22247
4.93477
4.64815
4.3689
4.1018
3.85002
3.61541
3.3988
3.20033
3.01967
2.85632
2.70964
2.57926
2.46512
2.36751
2.28675
2.22252
2.17357
2.13776
2.11258
2.09553
2.08435
2.07736
2.07322
2.07123
2.07098
2.0713
2.07332
2.07471
2.07695
2.07959
7.1547
7.14537
7.13313
7.11708
7.09605
7.06856
7.03275
6.98632
6.92654
6.85027
6.75411
6.63471
6.48916
6.31562
6.11384
5.88565
5.63503
5.36774
5.09062
4.81066
4.53425
4.26662
4.01158
3.7716
3.54799
3.34132
3.15158
2.97843
2.82137
2.67983
2.55344
2.44209
2.34605
2.26566
2.20083
2.15065
2.1134
2.08685
2.06865
2.05659
2.04901
2.0446
2.04228
2.04172
2.04213
2.04391
2.04585
2.0479
2.05085
2.05393
2.05711
2.06023
7.09552
7.069
7.03476
6.99074
6.9345
6.86323
6.77385
6.66329
6.52876
6.3683
6.18119
5.96846
5.73305
5.47962
5.21411
4.94289
4.67212
4.40711
4.15205
3.90985
3.68232
3.47034
3.27422
3.09383
2.92881
2.7787
2.64298
2.52129
2.41353
2.31993
2.24083
2.17629
2.12568
2.08759
2.06005
2.04093
2.0282
2.02015
2.01542
2.01287
2.01218
2.01279
2.01412
2.01662
2.01863
2.02148
2.02478
2.02818
2.03145
2.03512
2.03883
2.04233
6.93453
6.86612
6.78096
6.67622
6.54937
6.39845
6.22259
6.02236
5.79997
5.55924
5.30526
5.04375
4.78043
4.52046
4.26809
4.02651
3.79786
3.58334
3.38347
3.19837
3.02781
2.87143
2.72879
2.59944
2.48305
2.37956
2.28913
2.21212
2.14868
2.09838
2.06004
2.032
2.01233
1.99912
1.99066
1.98562
1.98306
1.98232
1.98288
1.98406
1.98662
1.98918
1.99183
1.99531
1.99884
2.00239
2.00611
2.01001
2.01382
2.01765
2.02152
2.0252
6.40796
6.24017
6.04947
5.83766
5.60795
5.36471
5.11304
4.85814
4.60486
4.35733
4.11878
3.89151
3.67697
3.47588
3.28848
3.11473
2.95435
2.80698
2.67222
2.54968
2.43908
2.34038
2.25375
2.17952
2.1179
2.06858
2.0306
2.00254
1.98266
1.96917
1.9605
1.95539
1.9528
1.95195
1.95243
1.9539
1.95633
1.95922
1.96187
1.96538
1.96918
1.97296
1.97669
1.98077
1.98485
1.98889
1.99294
1.99697
2.00095
2.00495
2.0088
5.62691
5.39326
5.15103
4.90493
4.6594
4.41831
4.18475
3.96103
3.74872
3.54868
3.36128
3.18655
3.02434
2.87435
2.73623
2.60963
2.49423
2.3898
2.29634
2.214
2.14314
2.08395
2.03622
1.99917
1.97156
1.95181
1.93832
1.92964
1.92452
1.9219
1.92114
1.92177
1.92339
1.9256
1.92883
1.93182
1.93523
1.93921
1.94315
1.94705
1.95124
1.95554
1.95974
1.96399
1.96823
1.97244
1.97663
1.98081
1.98495
1.9891
1.99311
4.68375
4.45024
4.22323
4.00491
3.7968
3.59985
3.41452
3.2409
3.07888
2.92826
2.78874
2.66
2.54173
2.43369
2.33572
2.24783
2.1702
2.10317
2.04694
2.00134
1.96573
1.93899
1.91974
1.90654
1.89802
1.89299
1.89047
1.88989
1.89063
1.89232
1.89465
1.89788
1.90138
1.9047
1.90886
1.91304
1.91717
1.9214
1.92587
1.93029
1.93472
1.93917
1.94357
1.94796
1.95233
1.95668
1.96102
1.96534
1.96963
1.97394
1.97812
3.62809
3.44667
3.27603
3.11609
2.96668
2.82757
2.69847
2.57912
2.46927
2.36872
2.27739
2.19531
2.12271
2.0599
2.00706
1.96405
1.93031
1.90484
1.88643
1.87378
1.8656
1.86082
1.85856
1.85816
1.85903
1.86084
1.86344
1.8667
1.87047
1.87395
1.8781
1.88258
1.88692
1.89118
1.89586
1.90053
1.90514
1.90977
1.91438
1.91896
1.92353
1.92807
1.9326
1.9371
1.9416
1.94608
1.95056
1.955
1.95947
1.9638
2.98818
2.85113
2.72332
2.6045
2.49445
2.39299
2.29998
2.21539
2.13931
2.07196
2.01366
1.96455
1.92451
1.89302
1.86918
1.85191
1.84004
1.8324
1.82801
1.82609
1.82592
1.82702
1.8291
1.8319
1.83519
1.83914
1.84303
1.84718
1.85185
1.85638
1.86085
1.86561
1.87048
1.87523
1.88005
1.88487
1.88965
1.89441
1.89914
1.90385
1.90855
1.91323
1.91789
1.92255
1.92719
1.93181
1.93644
1.94103
1.94564
1.95014
2.50775
2.40684
2.31367
2.22817
2.15036
2.08036
2.01844
1.96487
1.91976
1.88297
1.85403
1.8321
1.81623
1.80536
1.79843
1.79457
1.79306
1.7932
1.79459
1.79695
1.79993
1.8034
1.80747
1.8118
1.81594
1.82077
1.82557
1.83026
1.8351
1.84013
1.8451
1.85008
1.85509
1.86004
1.86498
1.86991
1.87481
1.87969
1.88455
1.88939
1.89422
1.89904
1.90384
1.90863
1.91341
1.91818
1.92295
1.92769
1.93244
1.93708
2.15396
2.08291
2.01905
1.96265
1.91395
1.87303
1.83972
1.81356
1.79377
1.7795
1.76982
1.76375
1.76053
1.75952
1.76004
1.76177
1.76442
1.7676
1.77131
1.7755
1.78011
1.78446
1.78937
1.79447
1.79934
1.80423
1.80948
1.81468
1.81984
1.82502
1.83017
1.83529
1.8404
1.84548
1.85053
1.85557
1.8606
1.8656
1.87059
1.87556
1.88052
1.88547
1.89041
1.89534
1.90025
1.90516
1.91006
1.91494
1.91983
1.92462
1.90512
1.86139
1.82477
1.79508
1.77185
1.75436
1.74186
1.73351
1.72841
1.72593
1.72551
1.72647
1.72857
1.73154
1.73497
1.73894
1.74329
1.74804
1.75278
1.75775
1.76306
1.76815
1.77319
1.77859
1.78399
1.78929
1.79465
1.80001
1.80532
1.81061
1.81587
1.82111
1.82632
1.83152
1.83669
1.84185
1.847
1.85212
1.85724
1.86234
1.86743
1.87251
1.87758
1.88263
1.88768
1.89272
1.89776
1.90277
1.90779
1.91271
1.7494
1.72918
1.71411
1.70348
1.69654
1.69252
1.69086
1.69107
1.69251
1.69502
1.69835
1.70205
1.70627
1.71085
1.71576
1.72085
1.72592
1.73137
1.73673
1.74197
1.74748
1.75305
1.75852
1.76406
1.7696
1.77508
1.78055
1.78599
1.79141
1.7968
1.80217
1.80752
1.81284
1.81815
1.82344
1.82872
1.83399
1.83924
1.84447
1.8497
1.85491
1.86012
1.86531
1.87049
1.87567
1.88084
1.886
1.89113
1.89628
1.90134
1.66452
1.65905
1.65616
1.65539
1.65625
1.65822
1.66118
1.66487
1.66886
1.67334
1.67816
1.68329
1.68863
1.69388
1.69949
1.70509
1.7105
1.71612
1.72188
1.72755
1.73325
1.73895
1.74461
1.75024
1.75586
1.76145
1.76702
1.77256
1.77808
1.78357
1.78905
1.7945
1.79994
1.80536
1.81077
1.81616
1.82154
1.82691
1.83227
1.83761
1.84295
1.84827
1.85359
1.85889
1.86419
1.86948
1.87476
1.88002
1.88528
1.89046
1.62112
1.62366
1.62707
1.63113
1.63543
1.64018
1.64524
1.65061
1.65613
1.66165
1.66742
1.67321
1.67881
1.68455
1.69049
1.69635
1.7022
1.70808
1.71391
1.71972
1.72551
1.73126
1.73699
1.7427
1.74838
1.75404
1.75968
1.7653
1.7709
1.77649
1.78205
1.7876
1.79313
1.79865
1.80415
1.80964
1.81513
1.8206
1.82606
1.83151
1.83695
1.84238
1.8478
1.85321
1.85861
1.86401
1.86938
1.87476
1.88006
1.59717
1.60179
1.60681
1.61212
1.61773
1.62343
1.62922
1.63517
1.64111
1.64692
1.6528
1.65891
1.66495
1.67094
1.67699
1.683
1.68897
1.69493
1.70085
1.70675
1.71262
1.71846
1.72428
1.73008
1.73586
1.74161
1.74735
1.75307
1.75877
1.76446
1.77013
1.77578
1.78142
1.78705
1.79266
1.79826
1.80385
1.80943
1.815
1.82056
1.82611
1.83166
1.83719
1.84271
1.84822
1.85373
1.85921
1.8647
1.8701
1.57884
1.58468
1.59057
1.59659
1.60274
1.60883
1.61484
1.62087
1.62714
1.63335
1.6395
1.64571
1.65189
1.65802
1.66413
1.67022
1.67628
1.68231
1.68832
1.6943
1.70025
1.70619
1.7121
1.71799
1.72386
1.72971
1.73554
1.74136
1.74716
1.75295
1.75872
1.76447
1.77022
1.77594
1.78166
1.78737
1.79306
1.79875
1.80442
1.81009
1.81575
1.82139
1.82703
1.83266
1.83827
1.84388
1.84946
1.85505
1.86055
1.57014
1.57639
1.58258
1.58879
1.59521
1.60157
1.60789
1.61425
1.62059
1.62688
1.63315
1.6394
1.64561
1.6518
1.65796
1.6641
1.67021
1.6763
1.68236
1.6884
1.69442
1.70042
1.7064
1.71236
1.71831
1.72423
1.73015
1.73604
1.74193
1.74779
1.75365
1.75949
1.76532
1.77113
1.77694
1.78274
1.78852
1.7943
1.80006
1.80582
1.81157
1.8173
1.82303
1.82874
1.83444
1.84012
1.8458
1.8514
1.55656
1.56313
1.56965
1.57611
1.58263
1.58912
1.59556
1.60199
1.60839
1.61476
1.6211
1.62741
1.6337
1.63996
1.6462
1.65241
1.6586
1.66477
1.67091
1.67704
1.68314
1.68923
1.6953
1.70135
1.70738
1.7134
1.7194
1.72539
1.73137
1.73733
1.74328
1.74922
1.75514
1.76105
1.76695
1.77284
1.77873
1.7846
1.79046
1.79631
1.80215
1.80798
1.8138
1.8196
1.82539
1.83116
1.83692
1.8426
1.55087
1.5575
1.56409
1.57067
1.57722
1.58373
1.59022
1.59668
1.60312
1.60953
1.61591
1.62227
1.6286
1.63491
1.6412
1.64747
1.65371
1.65994
1.66615
1.67233
1.6785
1.68466
1.69079
1.69691
1.70302
1.70911
1.71519
1.72125
1.7273
1.73334
1.73937
1.74538
1.75139
1.75738
1.76336
1.76933
1.7753
1.78125
1.78718
1.79311
1.79903
1.80493
1.81082
1.81669
1.82254
1.82838
1.83414
1.53921
1.54589
1.55255
1.55919
1.56579
1.57237
1.57892
1.58544
1.59194
1.59841
1.60486
1.61129
1.6177
1.62408
1.63044
1.63679
1.64311
1.64941
1.6557
1.66197
1.66822
1.67445
1.68067
1.68688
1.69307
1.69924
1.70541
1.71156
1.71769
1.72382
1.72993
1.73603
1.74212
1.7482
1.75427
1.76032
1.76637
1.7724
1.77842
1.78443
1.79043
1.79641
1.80237
1.80832
1.81424
1.82015
1.82598
1.53475
1.54146
1.54815
1.55481
1.56145
1.56806
1.57464
1.58121
1.58775
1.59426
1.60076
1.60724
1.61369
1.62013
1.62654
1.63294
1.63932
1.64568
1.65203
1.65836
1.66467
1.67097
1.67725
1.68352
1.68978
1.69602
1.70225
1.70847
1.71468
1.72087
1.72705
1.73322
1.73938
1.74553
1.75167
1.75779
1.7639
1.77
1.77608
1.78215
1.78821
1.79424
1.80026
1.80624
1.81222
1.8181
1.52403
1.5308
1.53754
1.54426
1.55096
1.55763
1.56428
1.5709
1.57751
1.58409
1.59065
1.5972
1.60372
1.61023
1.61671
1.62318
1.62963
1.63607
1.64249
1.64889
1.65528
1.66165
1.66801
1.67436
1.68069
1.68701
1.69332
1.69962
1.7059
1.71217
1.71843
1.72467
1.73091
1.73713
1.74334
1.74953
1.75572
1.76189
1.76804
1.77418
1.78029
1.78639
1.79247
1.79851
1.80454
1.81048
1.51373
1.52055
1.52735
1.53413
1.54088
1.54761
1.55432
1.56101
1.56767
1.57432
1.58095
1.58756
1.59415
1.60072
1.60727
1.61381
1.62033
1.62684
1.63333
1.6398
1.64626
1.65271
1.65914
1.66556
1.67196
1.67836
1.68474
1.6911
1.69746
1.7038
1.71013
1.71645
1.72275
1.72904
1.73532
1.74158
1.74783
1.75406
1.76028
1.76647
1.77265
1.7788
1.78493
1.79102
1.7971
1.80308
1.50383
1.5107
1.51756
1.52439
1.5312
1.53798
1.54475
1.5515
1.55823
1.56494
1.57163
1.5783
1.58495
1.59159
1.59821
1.60481
1.6114
1.61797
1.62453
1.63107
1.6376
1.64411
1.65061
1.6571
1.66357
1.67003
1.67648
1.68291
1.68933
1.69574
1.70214
1.70852
1.71489
1.72124
1.72758
1.7339
1.74021
1.7465
1.75277
1.75902
1.76525
1.77145
1.77762
1.78376
1.78988
1.79589
1.49431
1.50124
1.50814
1.51503
1.52189
1.52873
1.53556
1.54236
1.54915
1.55592
1.56267
1.5694
1.57611
1.58281
1.58949
1.59616
1.60281
1.60945
1.61607
1.62267
1.62926
1.63584
1.6424
1.64895
1.65549
1.66201
1.66852
1.67502
1.6815
1.68797
1.69443
1.70087
1.70729
1.7137
1.7201
1.72648
1.73284
1.73918
1.7455
1.75179
1.75807
1.76431
1.77052
1.77669
1.78283
1.78887
1.48516
1.49213
1.49909
1.50603
1.51294
1.51984
1.52672
1.53358
1.54042
1.54724
1.55405
1.56084
1.56761
1.57437
1.58111
1.58783
1.59454
1.60124
1.60792
1.61458
1.62124
1.62787
1.6345
1.6411
1.6477
1.65428
1.66085
1.6674
1.67394
1.68047
1.68698
1.69347
1.69995
1.70641
1.71286
1.71928
1.72569
1.73207
1.73844
1.74477
1.75108
1.75735
1.76359
1.76978
1.77594
1.782
1.47635
1.48338
1.49038
1.49737
1.50433
1.51128
1.51821
1.52512
1.53202
1.5389
1.54576
1.5526
1.55943
1.56624
1.57304
1.57982
1.58658
1.59333
1.60007
1.60679
1.6135
1.62019
1.62687
1.63353
1.64018
1.64681
1.65343
1.66004
1.66663
1.6732
1.67976
1.68631
1.69283
1.69934
1.70583
1.7123
1.71874
1.72516
1.73155
1.73792
1.74425
1.75054
1.7568
1.76301
1.76919
1.77525
1.47495
1.482
1.48903
1.49604
1.50304
1.51002
1.51698
1.52393
1.53086
1.53777
1.54466
1.55154
1.5584
1.56525
1.57208
1.5789
1.5857
1.59249
1.59926
1.60602
1.61276
1.61949
1.62621
1.6329
1.63959
1.64625
1.65291
1.65954
1.66616
1.67277
1.67935
1.68592
1.69246
1.69898
1.70549
1.71196
1.71841
1.72482
1.73121
1.73757
1.74388
1.75016
1.75638
1.76255
1.76862
1.46682
1.47392
1.481
1.48806
1.4951
1.50213
1.50914
1.51613
1.5231
1.53006
1.53701
1.54393
1.55084
1.55774
1.56462
1.57149
1.57834
1.58517
1.59199
1.59879
1.60558
1.61236
1.61911
1.62586
1.63258
1.63929
1.64599
1.65267
1.65932
1.66596
1.67258
1.67918
1.68575
1.6923
1.69883
1.70533
1.7118
1.71824
1.72464
1.73101
1.73734
1.74362
1.74984
1.75602
1.76208
1.45899
1.46613
1.47325
1.48036
1.48744
1.49451
1.50157
1.5086
1.51562
1.52262
1.52961
1.53658
1.54354
1.55048
1.5574
1.56431
1.5712
1.57808
1.58494
1.59179
1.59862
1.60544
1.61224
1.61902
1.62578
1.63253
1.63925
1.64596
1.65265
1.65932
1.66596
1.67259
1.67919
1.68576
1.69231
1.69883
1.70532
1.71177
1.71819
1.72456
1.73089
1.73717
1.74339
1.74955
1.7556
1.45862
1.46578
1.47292
1.48005
1.48716
1.49425
1.50133
1.50839
1.51543
1.52246
1.52947
1.53647
1.54345
1.55041
1.55736
1.5643
1.57121