/*--------------------------------*- C++ -*----------------------------------*\
| =========                 |                                                 |
| \\      /  F ield         | OpenFOAM: The Open Source CFD Toolbox           |
|  \\    /   O peration     | Version:  v1706                                 |
|   \\  /    A nd           | Web:      www.OpenFOAM.com                      |
|    \\/     M anipulation  |                                                 |
\*---------------------------------------------------------------------------*/
FoamFile
{
    version     2.0;
    format      ascii;
    class       volScalarField;
    location    "3.7e-05";
    object      mu;
}
// * * * * * * * * * * * * * * * * * * * * * * * * * * * * * * * * * * * * * //

dimensions      [1 -1 -1 0 0 0 0];


internalField   nonuniform List<scalar> 
30038
(
1.0351e-05
1.0351e-05
1.0351e-05
1.0351e-05
1.0351e-05
1.0351e-05
1.0351e-05
1.0351e-05
1.0351e-05
1.0351e-05
1.0351e-05
1.0351e-05
1.0351e-05
1.0351e-05
1.0351e-05
1.0351e-05
1.0351e-05
1.0351e-05
1.0351e-05
1.0351e-05
1.0351e-05
1.0351e-05
1.0351e-05
1.0351e-05
1.0351e-05
1.0351e-05
1.0351e-05
1.0351e-05
1.0351e-05
1.0351e-05
1.0351e-05
1.0351e-05
1.0351e-05
1.0351e-05
1.0351e-05
1.0351e-05
1.0351e-05
1.0351e-05
1.0351e-05
1.0351e-05
1.0351e-05
1.0351e-05
1.0351e-05
1.0351e-05
1.0351e-05
1.0351e-05
1.0351e-05
1.0351e-05
1.0351e-05
1.0351e-05
1.0351e-05
1.0351e-05
1.0351e-05
1.0351e-05
1.0351e-05
1.0351e-05
1.0351e-05
1.0351e-05
1.0351e-05
1.0351e-05
1.0351e-05
1.0351e-05
1.0351e-05
1.0351e-05
1.0351e-05
1.0351e-05
1.0351e-05
1.0351e-05
1.0351e-05
1.0351e-05
1.0351e-05
1.0351e-05
1.0351e-05
1.0351e-05
1.0351e-05
1.0351e-05
1.0351e-05
1.0351e-05
1.0351e-05
1.0351e-05
1.0351e-05
1.0351e-05
1.0351e-05
1.0351e-05
1.0351e-05
1.0351e-05
1.0351e-05
1.0351e-05
1.0351e-05
1.0351e-05
1.0351e-05
1.0351e-05
1.0351e-05
1.0351e-05
1.0351e-05
1.0351e-05
1.0351e-05
1.0351e-05
1.0351e-05
1.0351e-05
1.0351e-05
1.0351e-05
1.0351e-05
1.0351e-05
1.0351e-05
1.0351e-05
1.0351e-05
1.0351e-05
1.0351e-05
1.0351e-05
1.0351e-05
1.0351e-05
1.0351e-05
1.0351e-05
1.0351e-05
1.0351e-05
1.0351e-05
1.0351e-05
1.0351e-05
1.0351e-05
1.0351e-05
1.0351e-05
1.0351e-05
1.0351e-05
1.0351e-05
1.0351e-05
1.0351e-05
1.0351e-05
1.0351e-05
1.0351e-05
1.0351e-05
1.0351e-05
1.0351e-05
1.0351e-05
1.0351e-05
1.0351e-05
1.0351e-05
1.0351e-05
1.0351e-05
1.0351e-05
1.0351e-05
1.0351e-05
1.0351e-05
1.0351e-05
1.0351e-05
1.0351e-05
1.0351e-05
1.0351e-05
1.0351e-05
1.0351e-05
1.0351e-05
1.0351e-05
1.0351e-05
1.0351e-05
1.0351e-05
1.0351e-05
1.0351e-05
1.0351e-05
1.0351e-05
1.0351e-05
1.0351e-05
1.0351e-05
1.0351e-05
1.0351e-05
1.0351e-05
1.0351e-05
1.0351e-05
1.0351e-05
1.0351e-05
1.0351e-05
1.0351e-05
1.0351e-05
1.0351e-05
1.0351e-05
1.0351e-05
1.0351e-05
1.0351e-05
1.0351e-05
1.0351e-05
1.0351e-05
1.0351e-05
1.0351e-05
1.0351e-05
1.0351e-05
1.0351e-05
1.0351e-05
1.0351e-05
1.0351e-05
1.0351e-05
1.0351e-05
1.0351e-05
1.0351e-05
1.0351e-05
1.0351e-05
1.0351e-05
1.0351e-05
1.0351e-05
1.0351e-05
1.0351e-05
1.0351e-05
1.0351e-05
1.0351e-05
1.0351e-05
1.0351e-05
1.0351e-05
1.0351e-05
1.0351e-05
1.0351e-05
1.0351e-05
1.0351e-05
1.0351e-05
1.0351e-05
1.0351e-05
1.0351e-05
1.0351e-05
1.0351e-05
1.0351e-05
1.0351e-05
1.0351e-05
1.0351e-05
1.0351e-05
1.0351e-05
1.0351e-05
1.0351e-05
1.0351e-05
1.0351e-05
1.0351e-05
1.0351e-05
1.0351e-05
1.0351e-05
1.0351e-05
1.0351e-05
1.0351e-05
1.0351e-05
1.0351e-05
1.0351e-05
1.0351e-05
1.0351e-05
1.0351e-05
1.0351e-05
1.0351e-05
1.0351e-05
1.0351e-05
1.0351e-05
1.0351e-05
1.0351e-05
1.0351e-05
1.0351e-05
1.0351e-05
1.0351e-05
1.0351e-05
1.0351e-05
1.0351e-05
1.0351e-05
1.0351e-05
1.0351e-05
1.0351e-05
1.0351e-05
1.0351e-05
1.0351e-05
1.0351e-05
1.0351e-05
1.0351e-05
1.0351e-05
1.0351e-05
1.0351e-05
1.0351e-05
1.0351e-05
1.0351e-05
1.0351e-05
1.0351e-05
1.0351e-05
1.0351e-05
1.0351e-05
1.0351e-05
1.0351e-05
1.0351e-05
1.0351e-05
1.0351e-05
1.0351e-05
1.0351e-05
1.0351e-05
1.0351e-05
1.0351e-05
1.0351e-05
1.0351e-05
1.0351e-05
1.0351e-05
1.0351e-05
1.0351e-05
1.0351e-05
1.0351e-05
1.0351e-05
1.0351e-05
1.0351e-05
1.0351e-05
1.0351e-05
1.0351e-05
1.0351e-05
1.0351e-05
1.0351e-05
1.0351e-05
1.0351e-05
1.0351e-05
1.0351e-05
1.0351e-05
1.0351e-05
1.0351e-05
1.0351e-05
1.0351e-05
1.0351e-05
1.0351e-05
1.0351e-05
1.0351e-05
1.0351e-05
1.0351e-05
1.0351e-05
1.0351e-05
1.0351e-05
1.0351e-05
1.0351e-05
1.0351e-05
1.0351e-05
1.0351e-05
1.0351e-05
1.0351e-05
1.0351e-05
1.0351e-05
1.0351e-05
1.0351e-05
1.0351e-05
1.0351e-05
1.0351e-05
1.0351e-05
1.0351e-05
1.0351e-05
1.0351e-05
1.0351e-05
1.0351e-05
1.0351e-05
1.0351e-05
1.0351e-05
1.0351e-05
1.0351e-05
1.0351e-05
1.0351e-05
1.0351e-05
1.0351e-05
1.0351e-05
1.0351e-05
1.0351e-05
1.0351e-05
1.0351e-05
1.0351e-05
1.0351e-05
1.0351e-05
1.0351e-05
1.0351e-05
1.0351e-05
1.0351e-05
1.0351e-05
1.0351e-05
1.0351e-05
1.0351e-05
1.0351e-05
1.0351e-05
1.0351e-05
1.0351e-05
1.0351e-05
1.0351e-05
1.0351e-05
1.0351e-05
1.0351e-05
1.0351e-05
1.0351e-05
1.0351e-05
1.0351e-05
1.0351e-05
1.0351e-05
1.0351e-05
1.0351e-05
1.0351e-05
1.0351e-05
1.0351e-05
1.0351e-05
1.0351e-05
1.0351e-05
1.0351e-05
1.0351e-05
1.0351e-05
1.0351e-05
1.0351e-05
1.0351e-05
1.0351e-05
1.0351e-05
1.0351e-05
1.0351e-05
1.0351e-05
1.0351e-05
1.0351e-05
1.0351e-05
1.0351e-05
1.0351e-05
1.0351e-05
1.0351e-05
1.0351e-05
1.0351e-05
1.0351e-05
1.0351e-05
1.0351e-05
1.0351e-05
1.0351e-05
1.0351e-05
1.0351e-05
1.0351e-05
1.0351e-05
1.0351e-05
1.0351e-05
1.0351e-05
1.0351e-05
1.0351e-05
1.0351e-05
1.0351e-05
1.0351e-05
1.0351e-05
1.0351e-05
1.0351e-05
1.0351e-05
1.0351e-05
1.0351e-05
1.0351e-05
1.0351e-05
1.0351e-05
1.0351e-05
1.0351e-05
1.0351e-05
1.0351e-05
1.0351e-05
1.0351e-05
1.0351e-05
1.0351e-05
1.0351e-05
1.0351e-05
1.0351e-05
1.0351e-05
1.0351e-05
1.0351e-05
1.0351e-05
1.0351e-05
1.0351e-05
1.0351e-05
1.0351e-05
1.0351e-05
1.0351e-05
1.0351e-05
1.0351e-05
1.0351e-05
1.0351e-05
1.0351e-05
1.0351e-05
1.0351e-05
1.0351e-05
1.0351e-05
1.0351e-05
1.0351e-05
1.0351e-05
1.0351e-05
1.0351e-05
1.0351e-05
1.0351e-05
1.0351e-05
1.0351e-05
1.0351e-05
1.0351e-05
1.0351e-05
1.0351e-05
1.0351e-05
1.0351e-05
1.0351e-05
1.0351e-05
1.0351e-05
1.0351e-05
1.0351e-05
1.0351e-05
1.0351e-05
1.0351e-05
1.0351e-05
1.0351e-05
1.0351e-05
1.0351e-05
1.0351e-05
1.0351e-05
1.0351e-05
1.0351e-05
1.0351e-05
1.0351e-05
1.0351e-05
1.0351e-05
1.0351e-05
1.0351e-05
1.0351e-05
1.0351e-05
1.0351e-05
1.0351e-05
1.0351e-05
1.0351e-05
1.0351e-05
1.0351e-05
1.0351e-05
1.0351e-05
1.0351e-05
1.0351e-05
1.0351e-05
1.0351e-05
1.0351e-05
1.0351e-05
1.0351e-05
1.0351e-05
1.0351e-05
1.0351e-05
1.0351e-05
1.0351e-05
1.0351e-05
1.0351e-05
1.0351e-05
1.0351e-05
1.0351e-05
1.0351e-05
1.0351e-05
1.0351e-05
1.0351e-05
1.0351e-05
1.0351e-05
1.0351e-05
1.0351e-05
1.0351e-05
1.0351e-05
1.0351e-05
1.0351e-05
1.0351e-05
1.0351e-05
1.0351e-05
1.0351e-05
1.0351e-05
1.0351e-05
1.0351e-05
1.0351e-05
1.0351e-05
1.0351e-05
1.0351e-05
1.0351e-05
1.0351e-05
1.0351e-05
1.0351e-05
1.0351e-05
1.0351e-05
1.0351e-05
1.0351e-05
1.0351e-05
1.0351e-05
1.0351e-05
1.0351e-05
1.0351e-05
1.0351e-05
1.0351e-05
1.0351e-05
1.0351e-05
1.0351e-05
1.0351e-05
1.0351e-05
1.0351e-05
1.0351e-05
1.0351e-05
1.0351e-05
1.0351e-05
1.0351e-05
1.0351e-05
1.0351e-05
1.0351e-05
1.0351e-05
1.0351e-05
1.0351e-05
1.0351e-05
1.0351e-05
1.0351e-05
1.0351e-05
1.0351e-05
1.0351e-05
1.0351e-05
1.0351e-05
1.0351e-05
1.0351e-05
1.0351e-05
1.0351e-05
1.0351e-05
1.0351e-05
1.0351e-05
1.0351e-05
1.0351e-05
1.0351e-05
1.0351e-05
1.0351e-05
1.0351e-05
1.0351e-05
1.0351e-05
1.0351e-05
1.0351e-05
1.0351e-05
1.0351e-05
1.0351e-05
1.0351e-05
1.0351e-05
1.0351e-05
1.0351e-05
1.0351e-05
1.0351e-05
1.0351e-05
1.0351e-05
1.0351e-05
1.0351e-05
1.0351e-05
1.0351e-05
1.0351e-05
1.0351e-05
1.0351e-05
1.0351e-05
1.0351e-05
1.0351e-05
1.0351e-05
1.0351e-05
1.0351e-05
1.0351e-05
1.0351e-05
1.0351e-05
1.0351e-05
1.0351e-05
1.0351e-05
1.0351e-05
1.0351e-05
1.0351e-05
1.0351e-05
1.0351e-05
1.0351e-05
1.0351e-05
1.0351e-05
1.0351e-05
1.0351e-05
1.0351e-05
1.0351e-05
1.0351e-05
1.0351e-05
1.0351e-05
1.0351e-05
1.0351e-05
1.0351e-05
1.0351e-05
1.0351e-05
1.0351e-05
1.0351e-05
1.0351e-05
1.0351e-05
1.0351e-05
1.0351e-05
1.0351e-05
1.0351e-05
1.0351e-05
1.0351e-05
1.0351e-05
1.0351e-05
1.0351e-05
1.0351e-05
1.0351e-05
1.0351e-05
1.0351e-05
1.0351e-05
1.0351e-05
1.0351e-05
1.0351e-05
1.0351e-05
1.0351e-05
1.0351e-05
1.0351e-05
1.0351e-05
1.0351e-05
1.0351e-05
1.0351e-05
1.0351e-05
1.0351e-05
1.0351e-05
1.0351e-05
1.0351e-05
1.0351e-05
1.0351e-05
1.0351e-05
1.0351e-05
1.0351e-05
1.0351e-05
1.0351e-05
1.0351e-05
1.0351e-05
1.0351e-05
1.0351e-05
1.0351e-05
1.0351e-05
1.0351e-05
1.0351e-05
1.0351e-05
1.0351e-05
1.0351e-05
1.0351e-05
1.0351e-05
1.0351e-05
1.0351e-05
1.0351e-05
1.0351e-05
1.0351e-05
1.0351e-05
1.0351e-05
1.0351e-05
1.0351e-05
1.0351e-05
1.0351e-05
1.0351e-05
1.0351e-05
1.0351e-05
1.0351e-05
1.0351e-05
1.0351e-05
1.0351e-05
1.0351e-05
1.0351e-05
1.0351e-05
1.0351e-05
1.0351e-05
1.0351e-05
1.0351e-05
1.0351e-05
1.0351e-05
1.0351e-05
1.0351e-05
1.0351e-05
1.0351e-05
1.0351e-05
1.0351e-05
1.0351e-05
1.0351e-05
1.0351e-05
1.0351e-05
1.0351e-05
1.0351e-05
1.0351e-05
1.0351e-05
1.0351e-05
1.0351e-05
1.0351e-05
1.0351e-05
1.0351e-05
1.0351e-05
1.0351e-05
1.0351e-05
1.0351e-05
1.0351e-05
1.0351e-05
1.0351e-05
1.0351e-05
1.0351e-05
1.0351e-05
1.0351e-05
1.0351e-05
1.0351e-05
1.0351e-05
1.0351e-05
1.0351e-05
1.0351e-05
1.0351e-05
1.0351e-05
1.0351e-05
1.0351e-05
1.0351e-05
1.0351e-05
1.0351e-05
1.0351e-05
1.0351e-05
1.0351e-05
1.0351e-05
1.0351e-05
1.0351e-05
1.0351e-05
1.0351e-05
1.0351e-05
1.0351e-05
1.0351e-05
1.0351e-05
1.0351e-05
1.0351e-05
1.0351e-05
1.0351e-05
1.0351e-05
1.0351e-05
1.0351e-05
1.0351e-05
1.0351e-05
1.0351e-05
1.0351e-05
1.0351e-05
1.0351e-05
1.0351e-05
1.0351e-05
1.0351e-05
1.0351e-05
1.0351e-05
1.0351e-05
1.0351e-05
1.0351e-05
1.0351e-05
1.0351e-05
1.0351e-05
1.0351e-05
1.0351e-05
1.0351e-05
1.0351e-05
1.0351e-05
1.0351e-05
1.0351e-05
1.0351e-05
1.0351e-05
1.0351e-05
1.0351e-05
1.0351e-05
1.0351e-05
1.0351e-05
1.0351e-05
1.0351e-05
1.0351e-05
1.0351e-05
1.0351e-05
1.0351e-05
1.0351e-05
1.0351e-05
1.0351e-05
1.0351e-05
1.0351e-05
1.0351e-05
1.0351e-05
1.0351e-05
1.0351e-05
1.0351e-05
1.0351e-05
1.0351e-05
1.0351e-05
1.0351e-05
1.0351e-05
1.0351e-05
1.0351e-05
1.0351e-05
1.0351e-05
1.0351e-05
1.0351e-05
1.0351e-05
1.0351e-05
1.0351e-05
1.0351e-05
1.0351e-05
1.0351e-05
1.0351e-05
1.0351e-05
1.0351e-05
1.0351e-05
1.0351e-05
1.0351e-05
1.0351e-05
1.0351e-05
1.0351e-05
1.0351e-05
1.0351e-05
1.0351e-05
1.0351e-05
1.0351e-05
1.0351e-05
1.0351e-05
1.0351e-05
1.0351e-05
1.0351e-05
1.0351e-05
1.0351e-05
1.0351e-05
1.0351e-05
1.0351e-05
1.0351e-05
1.0351e-05
1.0351e-05
1.0351e-05
1.0351e-05
1.0351e-05
1.0351e-05
1.0351e-05
1.0351e-05
1.0351e-05
1.0351e-05
1.0351e-05
1.0351e-05
1.0351e-05
1.0351e-05
1.0351e-05
1.0351e-05
1.0351e-05
1.0351e-05
1.0351e-05
1.0351e-05
1.0351e-05
1.0351e-05
1.0351e-05
1.0351e-05
1.0351e-05
1.0351e-05
1.0351e-05
1.0351e-05
1.0351e-05
1.0351e-05
1.0351e-05
1.0351e-05
1.0351e-05
1.0351e-05
1.0351e-05
1.0351e-05
1.0351e-05
1.0351e-05
1.0351e-05
1.0351e-05
1.0351e-05
1.0351e-05
1.0351e-05
1.0351e-05
1.0351e-05
1.0351e-05
1.0351e-05
1.0351e-05
1.0351e-05
1.0351e-05
1.0351e-05
1.0351e-05
1.0351e-05
1.0351e-05
1.0351e-05
1.0351e-05
1.0351e-05
1.0351e-05
1.0351e-05
1.0351e-05
1.0351e-05
1.0351e-05
1.0351e-05
1.0351e-05
1.0351e-05
1.0351e-05
1.0351e-05
1.0351e-05
1.0351e-05
1.0351e-05
1.0351e-05
1.0351e-05
1.0351e-05
1.0351e-05
1.0351e-05
1.0351e-05
1.0351e-05
1.0351e-05
1.0351e-05
1.0351e-05
1.0351e-05
1.0351e-05
1.0351e-05
1.0351e-05
1.0351e-05
1.0351e-05
1.0351e-05
1.0351e-05
1.0351e-05
1.0351e-05
1.0351e-05
1.0351e-05
1.0351e-05
1.0351e-05
1.0351e-05
1.0351e-05
1.0351e-05
1.0351e-05
1.0351e-05
1.0351e-05
1.0351e-05
1.0351e-05
1.0351e-05
1.0351e-05
1.0351e-05
1.0351e-05
1.0351e-05
1.0351e-05
1.0351e-05
1.0351e-05
1.0351e-05
1.0351e-05
1.0351e-05
1.0351e-05
1.0351e-05
1.0351e-05
1.0351e-05
1.0351e-05
1.0351e-05
1.0351e-05
1.0351e-05
1.0351e-05
1.0351e-05
1.0351e-05
1.0351e-05
1.0351e-05
1.0351e-05
1.0351e-05
1.0351e-05
1.0351e-05
1.0351e-05
1.0351e-05
1.0351e-05
1.0351e-05
1.0351e-05
1.0351e-05
1.0351e-05
1.0351e-05
1.0351e-05
1.0351e-05
1.0351e-05
1.0351e-05
1.0351e-05
1.0351e-05
1.0351e-05
1.0351e-05
1.0351e-05
1.0351e-05
1.0351e-05
1.0351e-05
1.0351e-05
1.0351e-05
1.0351e-05
1.0351e-05
1.0351e-05
1.0351e-05
1.0351e-05
1.0351e-05
1.0351e-05
1.0351e-05
1.0351e-05
1.0351e-05
1.0351e-05
1.0351e-05
1.0351e-05
1.0351e-05
1.0351e-05
1.0351e-05
1.0351e-05
1.0351e-05
1.0351e-05
1.0351e-05
1.0351e-05
1.0351e-05
1.0351e-05
1.0351e-05
1.0351e-05
1.0351e-05
1.0351e-05
1.0351e-05
1.0351e-05
1.0351e-05
1.0351e-05
1.0351e-05
1.0351e-05
1.0351e-05
1.0351e-05
1.0351e-05
1.0351e-05
1.0351e-05
1.0351e-05
1.0351e-05
1.0351e-05
1.0351e-05
1.0351e-05
1.0351e-05
1.0351e-05
1.0351e-05
1.0351e-05
1.0351e-05
1.0351e-05
1.0351e-05
1.0351e-05
1.0351e-05
1.0351e-05
1.0351e-05
1.0351e-05
1.0351e-05
1.0351e-05
1.0351e-05
1.0351e-05
1.0351e-05
1.0351e-05
1.0351e-05
1.0351e-05
1.0351e-05
1.0351e-05
1.0351e-05
1.0351e-05
1.0351e-05
1.0351e-05
1.0351e-05
1.0351e-05
1.0351e-05
1.0351e-05
1.0351e-05
1.0351e-05
1.0351e-05
1.0351e-05
1.0351e-05
1.0351e-05
1.0351e-05
1.0351e-05
1.0351e-05
1.0351e-05
1.0351e-05
1.0351e-05
1.0351e-05
1.0351e-05
1.0351e-05
1.0351e-05
1.0351e-05
1.0351e-05
1.0351e-05
1.0351e-05
1.0351e-05
1.0351e-05
1.0351e-05
1.0351e-05
1.0351e-05
1.0351e-05
1.0351e-05
1.0351e-05
1.0351e-05
1.0351e-05
1.0351e-05
1.0351e-05
1.0351e-05
1.0351e-05
1.0351e-05
1.0351e-05
1.0351e-05
1.0351e-05
1.0351e-05
1.0351e-05
1.0351e-05
1.0351e-05
1.0351e-05
1.0351e-05
1.0351e-05
1.0351e-05
1.0351e-05
1.0351e-05
1.0351e-05
1.0351e-05
1.0351e-05
1.0351e-05
1.0351e-05
1.0351e-05
1.0351e-05
1.0351e-05
1.0351e-05
1.0351e-05
1.0351e-05
1.0351e-05
1.0351e-05
1.0351e-05
1.0351e-05
1.0351e-05
1.0351e-05
1.0351e-05
1.0351e-05
1.0351e-05
1.0351e-05
1.0351e-05
1.0351e-05
1.0351e-05
1.0351e-05
1.0351e-05
1.0351e-05
1.0351e-05
1.0351e-05
1.0351e-05
1.0351e-05
1.0351e-05
1.0351e-05
1.0351e-05
1.0351e-05
1.0351e-05
1.0351e-05
1.0351e-05
1.0351e-05
1.0351e-05
1.0351e-05
1.0351e-05
1.0351e-05
1.0351e-05
1.0351e-05
1.0351e-05
1.0351e-05
1.0351e-05
1.0351e-05
1.0351e-05
1.0351e-05
1.0351e-05
1.0351e-05
1.0351e-05
1.0351e-05
1.0351e-05
1.0351e-05
1.0351e-05
1.0351e-05
1.0351e-05
1.0351e-05
1.0351e-05
1.0351e-05
1.0351e-05
1.0351e-05
1.0351e-05
1.0351e-05
1.0351e-05
1.0351e-05
1.0351e-05
1.0351e-05
1.0351e-05
1.0351e-05
1.0351e-05
1.0351e-05
1.0351e-05
1.0351e-05
1.0351e-05
1.03511e-05
1.03511e-05
1.0351e-05
1.0351e-05
1.0351e-05
1.0351e-05
1.0351e-05
1.0351e-05
1.0351e-05
1.0351e-05
1.0351e-05
1.0351e-05
1.0351e-05
1.0351e-05
1.0351e-05
1.0351e-05
1.0351e-05
1.0351e-05
1.0351e-05
1.0351e-05
1.0351e-05
1.0351e-05
1.0351e-05
1.0351e-05
1.0351e-05
1.0351e-05
1.0351e-05
1.0351e-05
1.0351e-05
1.0351e-05
1.0351e-05
1.0351e-05
1.0351e-05
1.0351e-05
1.0351e-05
1.0351e-05
1.0351e-05
1.0351e-05
1.0351e-05
1.0351e-05
1.0351e-05
1.0351e-05
1.0351e-05
1.0351e-05
1.0351e-05
1.0351e-05
1.0351e-05
1.03511e-05
1.03511e-05
1.03511e-05
1.03512e-05
1.03513e-05
1.0351e-05
1.0351e-05
1.0351e-05
1.0351e-05
1.0351e-05
1.0351e-05
1.0351e-05
1.0351e-05
1.0351e-05
1.0351e-05
1.0351e-05
1.0351e-05
1.0351e-05
1.0351e-05
1.0351e-05
1.0351e-05
1.0351e-05
1.0351e-05
1.0351e-05
1.0351e-05
1.0351e-05
1.0351e-05
1.0351e-05
1.0351e-05
1.0351e-05
1.0351e-05
1.0351e-05
1.0351e-05
1.0351e-05
1.0351e-05
1.0351e-05
1.0351e-05
1.0351e-05
1.0351e-05
1.0351e-05
1.0351e-05
1.0351e-05
1.0351e-05
1.0351e-05
1.0351e-05
1.0351e-05
1.0351e-05
1.03511e-05
1.03511e-05
1.03511e-05
1.03512e-05
1.03513e-05
1.03515e-05
1.03518e-05
1.03522e-05
1.0351e-05
1.0351e-05
1.0351e-05
1.0351e-05
1.0351e-05
1.0351e-05
1.0351e-05
1.0351e-05
1.0351e-05
1.0351e-05
1.0351e-05
1.0351e-05
1.0351e-05
1.0351e-05
1.0351e-05
1.0351e-05
1.0351e-05
1.0351e-05
1.0351e-05
1.0351e-05
1.0351e-05
1.0351e-05
1.0351e-05
1.0351e-05
1.0351e-05
1.0351e-05
1.0351e-05
1.0351e-05
1.0351e-05
1.0351e-05
1.0351e-05
1.0351e-05
1.0351e-05
1.0351e-05
1.0351e-05
1.0351e-05
1.0351e-05
1.0351e-05
1.0351e-05
1.03511e-05
1.03511e-05
1.03512e-05
1.03512e-05
1.03513e-05
1.03515e-05
1.03518e-05
1.03522e-05
1.03528e-05
1.03538e-05
1.03553e-05
1.0351e-05
1.0351e-05
1.0351e-05
1.0351e-05
1.0351e-05
1.0351e-05
1.0351e-05
1.0351e-05
1.0351e-05
1.0351e-05
1.0351e-05
1.0351e-05
1.0351e-05
1.0351e-05
1.0351e-05
1.0351e-05
1.0351e-05
1.0351e-05
1.0351e-05
1.0351e-05
1.0351e-05
1.0351e-05
1.0351e-05
1.0351e-05
1.0351e-05
1.0351e-05
1.0351e-05
1.0351e-05
1.0351e-05
1.0351e-05
1.0351e-05
1.0351e-05
1.0351e-05
1.0351e-05
1.0351e-05
1.03511e-05
1.03511e-05
1.03511e-05
1.03512e-05
1.03513e-05
1.03514e-05
1.03516e-05
1.03518e-05
1.03522e-05
1.03529e-05
1.03538e-05
1.03552e-05
1.03573e-05
1.03606e-05
1.03658e-05
1.0351e-05
1.0351e-05
1.0351e-05
1.0351e-05
1.0351e-05
1.0351e-05
1.0351e-05
1.0351e-05
1.0351e-05
1.0351e-05
1.0351e-05
1.0351e-05
1.0351e-05
1.0351e-05
1.0351e-05
1.0351e-05
1.0351e-05
1.0351e-05
1.0351e-05
1.0351e-05
1.0351e-05
1.0351e-05
1.0351e-05
1.0351e-05
1.0351e-05
1.0351e-05
1.0351e-05
1.0351e-05
1.0351e-05
1.0351e-05
1.0351e-05
1.0351e-05
1.03511e-05
1.03511e-05
1.03511e-05
1.03512e-05
1.03513e-05
1.03514e-05
1.03516e-05
1.03519e-05
1.03523e-05
1.03529e-05
1.03539e-05
1.03553e-05
1.03575e-05
1.03607e-05
1.03655e-05
1.03728e-05
1.0384e-05
1.04015e-05
1.0351e-05
1.0351e-05
1.0351e-05
1.0351e-05
1.0351e-05
1.0351e-05
1.0351e-05
1.0351e-05
1.0351e-05
1.0351e-05
1.0351e-05
1.0351e-05
1.0351e-05
1.0351e-05
1.0351e-05
1.0351e-05
1.0351e-05
1.0351e-05
1.0351e-05
1.0351e-05
1.0351e-05
1.0351e-05
1.0351e-05
1.0351e-05
1.0351e-05
1.0351e-05
1.0351e-05
1.0351e-05
1.0351e-05
1.03511e-05
1.03511e-05
1.03511e-05
1.03512e-05
1.03513e-05
1.03515e-05
1.03517e-05
1.0352e-05
1.03524e-05
1.03531e-05
1.03541e-05
1.03555e-05
1.03577e-05
1.0361e-05
1.03658e-05
1.03731e-05
1.03839e-05
1.04001e-05
1.04246e-05
1.04615e-05
1.05185e-05
1.0351e-05
1.0351e-05
1.0351e-05
1.0351e-05
1.0351e-05
1.0351e-05
1.0351e-05
1.0351e-05
1.0351e-05
1.0351e-05
1.0351e-05
1.0351e-05
1.0351e-05
1.0351e-05
1.0351e-05
1.0351e-05
1.0351e-05
1.0351e-05
1.0351e-05
1.0351e-05
1.0351e-05
1.0351e-05
1.0351e-05
1.0351e-05
1.0351e-05
1.03511e-05
1.03511e-05
1.03511e-05
1.03512e-05
1.03512e-05
1.03514e-05
1.03515e-05
1.03517e-05
1.03521e-05
1.03526e-05
1.03533e-05
1.03543e-05
1.03559e-05
1.03581e-05
1.03615e-05
1.03665e-05
1.03738e-05
1.03847e-05
1.04008e-05
1.04248e-05
1.04604e-05
1.05132e-05
1.05916e-05
1.07082e-05
1.0883e-05
1.0351e-05
1.0351e-05
1.0351e-05
1.0351e-05
1.0351e-05
1.0351e-05
1.0351e-05
1.0351e-05
1.0351e-05
1.0351e-05
1.0351e-05
1.0351e-05
1.0351e-05
1.0351e-05
1.0351e-05
1.0351e-05
1.0351e-05
1.0351e-05
1.0351e-05
1.0351e-05
1.0351e-05
1.03511e-05
1.03511e-05
1.03511e-05
1.03511e-05
1.03512e-05
1.03513e-05
1.03514e-05
1.03516e-05
1.03518e-05
1.03522e-05
1.03527e-05
1.03535e-05
1.03547e-05
1.03563e-05
1.03587e-05
1.03623e-05
1.03674e-05
1.0375e-05
1.03862e-05
1.04025e-05
1.04266e-05
1.04621e-05
1.05142e-05
1.05906e-05
1.07023e-05
1.08647e-05
1.10989e-05
1.14335e-05
1.19069e-05
1.0351e-05
1.0351e-05
1.0351e-05
1.0351e-05
1.0351e-05
1.0351e-05
1.0351e-05
1.0351e-05
1.0351e-05
1.0351e-05
1.0351e-05
1.0351e-05
1.0351e-05
1.0351e-05
1.0351e-05
1.0351e-05
1.0351e-05
1.0351e-05
1.03511e-05
1.03511e-05
1.03511e-05
1.03512e-05
1.03512e-05
1.03513e-05
1.03515e-05
1.03517e-05
1.0352e-05
1.03524e-05
1.0353e-05
1.03539e-05
1.03551e-05
1.03569e-05
1.03595e-05
1.03633e-05
1.03688e-05
1.03768e-05
1.03884e-05
1.04053e-05
1.04299e-05
1.04659e-05
1.05183e-05
1.05945e-05
1.07048e-05
1.08637e-05
1.10905e-05
1.141e-05
1.18523e-05
1.24515e-05
1.3243e-05
1.42582e-05
1.0351e-05
1.0351e-05
1.0351e-05
1.0351e-05
1.0351e-05
1.0351e-05
1.0351e-05
1.0351e-05
1.0351e-05
1.0351e-05
1.0351e-05
1.0351e-05
1.0351e-05
1.0351e-05
1.03511e-05
1.03511e-05
1.03511e-05
1.03512e-05
1.03512e-05
1.03513e-05
1.03514e-05
1.03516e-05
1.03518e-05
1.03522e-05
1.03526e-05
1.03533e-05
1.03543e-05
1.03557e-05
1.03577e-05
1.03605e-05
1.03647e-05
1.03706e-05
1.03791e-05
1.03914e-05
1.04092e-05
1.04349e-05
1.04721e-05
1.05257e-05
1.0603e-05
1.07139e-05
1.08723e-05
1.10964e-05
1.14095e-05
1.18396e-05
1.24175e-05
1.31733e-05
1.41316e-05
1.53062e-05
1.66985e-05
1.82924e-05
1.0351e-05
1.0351e-05
1.0351e-05
1.0351e-05
1.0351e-05
1.0351e-05
1.0351e-05
1.0351e-05
1.0351e-05
1.0351e-05
1.03511e-05
1.03511e-05
1.03511e-05
1.03511e-05
1.03512e-05
1.03513e-05
1.03514e-05
1.03515e-05
1.03517e-05
1.0352e-05
1.03524e-05
1.0353e-05
1.03537e-05
1.03549e-05
1.03564e-05
1.03587e-05
1.03619e-05
1.03665e-05
1.0373e-05
1.03823e-05
1.03956e-05
1.04146e-05
1.04418e-05
1.04809e-05
1.05367e-05
1.06165e-05
1.07299e-05
1.08904e-05
1.11154e-05
1.14272e-05
1.1852e-05
1.24187e-05
1.31554e-05
1.40846e-05
1.52184e-05
1.65552e-05
1.80785e-05
1.97597e-05
2.15644e-05
2.34491e-05
1.0351e-05
1.0351e-05
1.0351e-05
1.0351e-05
1.0351e-05
1.0351e-05
1.03511e-05
1.03511e-05
1.03511e-05
1.03511e-05
1.03512e-05
1.03512e-05
1.03513e-05
1.03515e-05
1.03516e-05
1.03519e-05
1.03522e-05
1.03527e-05
1.03534e-05
1.03543e-05
1.03556e-05
1.03574e-05
1.036e-05
1.03637e-05
1.03688e-05
1.03761e-05
1.03864e-05
1.0401e-05
1.04217e-05
1.04511e-05
1.04928e-05
1.0552e-05
1.06356e-05
1.07536e-05
1.09188e-05
1.11484e-05
1.14634e-05
1.1889e-05
1.2452e-05
1.31787e-05
1.40898e-05
1.51969e-05
1.64983e-05
1.7979e-05
1.96114e-05
2.13595e-05
2.31829e-05
2.50393e-05
2.68863e-05
2.86889e-05
1.0351e-05
1.0351e-05
1.03511e-05
1.03511e-05
1.03511e-05
1.03511e-05
1.03512e-05
1.03512e-05
1.03513e-05
1.03514e-05
1.03516e-05
1.03518e-05
1.03521e-05
1.03525e-05
1.03531e-05
1.03539e-05
1.0355e-05
1.03566e-05
1.03588e-05
1.03618e-05
1.0366e-05
1.03719e-05
1.03801e-05
1.03917e-05
1.0408e-05
1.0431e-05
1.04632e-05
1.05086e-05
1.05723e-05
1.06615e-05
1.07861e-05
1.09589e-05
1.11967e-05
1.15197e-05
1.19518e-05
1.25182e-05
1.3243e-05
1.41453e-05
1.5235e-05
1.65108e-05
1.79586e-05
1.9553e-05
2.12608e-05
2.30442e-05
2.48634e-05
2.66756e-05
2.84417e-05
3.01266e-05
3.16927e-05
3.31062e-05
1.03511e-05
1.03511e-05
1.03511e-05
1.03512e-05
1.03512e-05
1.03513e-05
1.03514e-05
1.03516e-05
1.03518e-05
1.03521e-05
1.03525e-05
1.0353e-05
1.03537e-05
1.03547e-05
1.0356e-05
1.03579e-05
1.03605e-05
1.03641e-05
1.0369e-05
1.03759e-05
1.03854e-05
1.03987e-05
1.04172e-05
1.0443e-05
1.0479e-05
1.05291e-05
1.05988e-05
1.06956e-05
1.08292e-05
1.10128e-05
1.12626e-05
1.15984e-05
1.20428e-05
1.26193e-05
1.33501e-05
1.42519e-05
1.53332e-05
1.65919e-05
1.80144e-05
1.95772e-05
2.12496e-05
2.29968e-05
2.47822e-05
2.65671e-05
2.83134e-05
2.99874e-05
3.15552e-05
3.29763e-05
3.42096e-05
3.52249e-05
3.60309e-05
1.03512e-05
1.03513e-05
1.03514e-05
1.03516e-05
1.03518e-05
1.03521e-05
1.03524e-05
1.03529e-05
1.03536e-05
1.03545e-05
1.03557e-05
1.03574e-05
1.03597e-05
1.03628e-05
1.03671e-05
1.0373e-05
1.03812e-05
1.03924e-05
1.04079e-05
1.04293e-05
1.04588e-05
1.04995e-05
1.05558e-05
1.06333e-05
1.07397e-05
1.08853e-05
1.1083e-05
1.13491e-05
1.17028e-05
1.21655e-05
1.27589e-05
1.35029e-05
1.44121e-05
1.54929e-05
1.67421e-05
1.81463e-05
1.96833e-05
2.13246e-05
2.30377e-05
2.47894e-05
2.65448e-05
2.82682e-05
2.99276e-05
3.14927e-05
3.2929e-05
3.41969e-05
3.52635e-05
3.61145e-05
3.67613e-05
3.72287e-05
3.75625e-05
1.03516e-05
1.03518e-05
1.03521e-05
1.03524e-05
1.03529e-05
1.03535e-05
1.03544e-05
1.03555e-05
1.03571e-05
1.03592e-05
1.03621e-05
1.0366e-05
1.03712e-05
1.03784e-05
1.03882e-05
1.04016e-05
1.04199e-05
1.0445e-05
1.04793e-05
1.05262e-05
1.05903e-05
1.06778e-05
1.07967e-05
1.09575e-05
1.11734e-05
1.14606e-05
1.18376e-05
1.23246e-05
1.29416e-05
1.3706e-05
1.46297e-05
1.57172e-05
1.69637e-05
1.83557e-05
1.98721e-05
2.14859e-05
2.31675e-05
2.4886e-05
2.661e-05
2.83067e-05
2.99459e-05
3.15e-05
3.29394e-05
3.42288e-05
3.53341e-05
3.62355e-05
3.69339e-05
3.74505e-05
3.78157e-05
3.80655e-05
3.8229e-05
3.83373e-05
1.0353e-05
1.03536e-05
1.03544e-05
1.03555e-05
1.0357e-05
1.03591e-05
1.03617e-05
1.03654e-05
1.03702e-05
1.03768e-05
1.03857e-05
1.03977e-05
1.04139e-05
1.04359e-05
1.04658e-05
1.05062e-05
1.0561e-05
1.06352e-05
1.07353e-05
1.087e-05
1.105e-05
1.12888e-05
1.16023e-05
1.20085e-05
1.25263e-05
1.31734e-05
1.39648e-05
1.49097e-05
1.60101e-05
1.72597e-05
1.86447e-05
2.01446e-05
2.17342e-05
2.33861e-05
2.50718e-05
2.67631e-05
2.84303e-05
3.00445e-05
3.15807e-05
3.30131e-05
3.43107e-05
3.54409e-05
3.63802e-05
3.71229e-05
3.76829e-05
3.80867e-05
3.83657e-05
3.85522e-05
3.86708e-05
3.87435e-05
3.87857e-05
3.88053e-05
1.03572e-05
1.03592e-05
1.03618e-05
1.03653e-05
1.03699e-05
1.03761e-05
1.03845e-05
1.03956e-05
1.04105e-05
1.04305e-05
1.04573e-05
1.04934e-05
1.05418e-05
1.06068e-05
1.06938e-05
1.081e-05
1.09644e-05
1.11684e-05
1.14354e-05
1.17813e-05
1.22231e-05
1.27781e-05
1.34619e-05
1.42865e-05
1.52583e-05
1.63769e-05
1.76343e-05
1.90163e-05
2.0503e-05
2.20709e-05
2.36944e-05
2.53477e-05
2.70052e-05
2.86399e-05
3.02254e-05
3.1738e-05
3.3155e-05
3.44496e-05
3.55917e-05
3.65563e-05
3.7333e-05
3.79293e-05
3.83673e-05
3.8675e-05
3.88828e-05
3.90174e-05
3.90994e-05
3.91476e-05
3.91699e-05
3.91713e-05
3.91691e-05
3.91636e-05
1.03703e-05
1.03764e-05
1.03844e-05
1.03951e-05
1.04092e-05
1.0428e-05
1.0453e-05
1.04862e-05
1.05304e-05
1.05892e-05
1.06673e-05
1.07707e-05
1.09072e-05
1.10863e-05
1.13199e-05
1.16215e-05
1.20064e-05
1.24906e-05
1.30894e-05
1.38159e-05
1.46792e-05
1.56827e-05
1.68233e-05
1.80919e-05
1.94736e-05
2.09493e-05
2.2497e-05
2.40931e-05
2.57139e-05
2.73362e-05
2.89362e-05
3.04891e-05
3.19731e-05
3.33679e-05
3.46503e-05
3.5793e-05
3.67711e-05
3.7571e-05
3.81954e-05
3.86617e-05
3.89946e-05
3.92224e-05
3.93724e-05
3.94643e-05
3.95178e-05
3.95447e-05
3.95478e-05
3.95418e-05
3.95331e-05
3.95148e-05
3.94849e-05
3.9449e-05
1.04099e-05
1.04282e-05
1.04522e-05
1.04838e-05
1.05255e-05
1.05805e-05
1.06528e-05
1.07477e-05
1.08721e-05
1.10341e-05
1.12441e-05
1.15139e-05
1.18571e-05
1.22882e-05
1.28218e-05
1.34709e-05
1.42457e-05
1.51521e-05
1.61907e-05
1.73561e-05
1.86378e-05
2.00206e-05
2.14863e-05
2.30143e-05
2.45829e-05
2.61706e-05
2.77566e-05
2.93193e-05
3.08363e-05
3.22873e-05
3.36541e-05
3.49162e-05
3.60495e-05
3.70299e-05
3.78426e-05
3.84864e-05
3.89742e-05
3.93278e-05
3.95731e-05
3.97364e-05
3.9838e-05
3.9897e-05
3.9928e-05
3.99333e-05
3.99251e-05
3.99131e-05
3.98955e-05
3.98657e-05
3.98276e-05
3.97847e-05
3.97369e-05
3.96889e-05
1.05266e-05
1.05796e-05
1.06487e-05
1.07387e-05
1.08554e-05
1.10064e-05
1.12005e-05
1.14484e-05
1.17622e-05
1.21549e-05
1.26399e-05
1.32297e-05
1.39349e-05
1.47624e-05
1.57152e-05
1.67907e-05
1.79819e-05
1.92769e-05
2.06608e-05
2.21162e-05
2.36239e-05
2.51642e-05
2.67177e-05
2.82657e-05
2.97888e-05
3.12666e-05
3.26806e-05
3.40141e-05
3.52492e-05
3.63643e-05
3.73374e-05
3.81527e-05
3.88066e-05
3.93087e-05
3.96779e-05
3.99374e-05
4.01115e-05
4.02216e-05
4.02857e-05
4.03193e-05
4.03271e-05
4.03184e-05
4.0303e-05
4.02836e-05
4.0255e-05
4.02165e-05
4.01724e-05
4.01227e-05
4.00706e-05
4.00183e-05
3.99674e-05
3.99176e-05
1.08554e-05
1.10002e-05
1.11849e-05
1.14191e-05
1.17134e-05
1.20797e-05
1.25302e-05
1.30765e-05
1.37288e-05
1.44947e-05
1.5378e-05
1.63784e-05
1.74911e-05
1.87071e-05
2.00143e-05
2.13978e-05
2.28412e-05
2.43271e-05
2.58375e-05
2.73551e-05
2.88629e-05
3.03438e-05
3.17792e-05
3.31523e-05
3.44478e-05
3.56499e-05
3.67396e-05
3.76964e-05
3.85049e-05
3.91601e-05
3.9669e-05
4.00476e-05
4.03168e-05
4.04995e-05
4.06165e-05
4.06847e-05
4.07196e-05
4.07296e-05
4.07208e-05
4.0702e-05
4.06794e-05
4.06515e-05
4.06123e-05
4.05666e-05
4.05168e-05
4.04623e-05
4.04069e-05
4.03519e-05
4.02977e-05
4.02436e-05
4.01905e-05
4.01383e-05
1.20562e-05
1.24841e-05
1.30006e-05
1.3615e-05
1.43348e-05
1.51643e-05
1.61042e-05
1.71515e-05
1.82993e-05
1.95376e-05
2.08539e-05
2.22341e-05
2.36628e-05
2.51244e-05
2.66025e-05
2.80817e-05
2.95469e-05
3.09828e-05
3.23726e-05
3.37009e-05
3.49541e-05
3.6118e-05
3.71755e-05
3.81083e-05
3.89015e-05
3.95496e-05
4.00578e-05
4.04394e-05
4.07137e-05
4.09018e-05
4.1023e-05
4.10941e-05
4.11306e-05
4.11412e-05
4.11318e-05
4.11106e-05
4.10847e-05
4.1055e-05
4.10154e-05
4.09683e-05
4.09173e-05
4.08611e-05
4.08028e-05
4.07447e-05
4.06871e-05
4.06299e-05
4.0573e-05
4.05166e-05
4.04604e-05
4.04048e-05
4.03498e-05
1.42736e-05
1.50636e-05
1.59571e-05
1.69521e-05
1.80431e-05
1.92219e-05
2.04779e-05
2.17988e-05
2.31714e-05
2.45818e-05
2.60155e-05
2.74582e-05
2.88961e-05
3.03159e-05
3.17038e-05
3.30446e-05
3.43244e-05
3.55311e-05
3.66519e-05
3.76715e-05
3.85732e-05
3.93435e-05
3.99767e-05
4.04768e-05
4.08555e-05
4.113e-05
4.13198e-05
4.14422e-05
4.15149e-05
4.15519e-05
4.15616e-05
4.15518e-05
4.15291e-05
4.14986e-05
4.14659e-05
4.14265e-05
4.13779e-05
4.13249e-05
4.12674e-05
4.12063e-05
4.1145e-05
4.10842e-05
4.10238e-05
4.09635e-05
4.09038e-05
4.08445e-05
4.07853e-05
4.07264e-05
4.06675e-05
4.06092e-05
4.05512e-05
1.79308e-05
1.906e-05
2.02636e-05
2.1531e-05
2.28506e-05
2.42103e-05
2.55974e-05
2.69991e-05
2.84026e-05
2.9796e-05
3.11672e-05
3.25038e-05
3.37922e-05
3.502e-05
3.61762e-05
3.72494e-05
3.82258e-05
3.90902e-05
3.98306e-05
4.04419e-05
4.09272e-05
4.12969e-05
4.15668e-05
4.17542e-05
4.18755e-05
4.19478e-05
4.19837e-05
4.19913e-05
4.19809e-05
4.19563e-05
4.19216e-05
4.1885e-05
4.18446e-05
4.17939e-05
4.17384e-05
4.16803e-05
4.16172e-05
4.15529e-05
4.14888e-05
4.14251e-05
4.13616e-05
4.12985e-05
4.1236e-05
4.11737e-05
4.11117e-05
4.10498e-05
4.0988e-05
4.09263e-05
4.08646e-05
4.08033e-05
4.07423e-05
2.40091e-05
2.53496e-05
2.67081e-05
2.80729e-05
2.94332e-05
3.07781e-05
3.20973e-05
3.33793e-05
3.46117e-05
3.57839e-05
3.68858e-05
3.79073e-05
3.88356e-05
3.96573e-05
4.03617e-05
4.09445e-05
4.14087e-05
4.1764e-05
4.20244e-05
4.22059e-05
4.23232e-05
4.23928e-05
4.24262e-05
4.24311e-05
4.2419e-05
4.23915e-05
4.23535e-05
4.23131e-05
4.227e-05
4.22177e-05
4.216e-05
4.20997e-05
4.20347e-05
4.19672e-05
4.19e-05
4.18333e-05
4.17669e-05
4.17006e-05
4.16349e-05
4.15695e-05
4.15042e-05
4.14393e-05
4.13745e-05
4.13098e-05
4.12452e-05
4.11805e-05
4.1116e-05
4.10513e-05
4.0987e-05
4.09229e-05
2.92333e-05
3.05457e-05
3.18383e-05
3.31017e-05
3.43254e-05