/*--------------------------------*- C++ -*----------------------------------*\
| =========                 |                                                 |
| \\      /  F ield         | OpenFOAM: The Open Source CFD Toolbox           |
|  \\    /   O peration     | Version:  v1706                                 |
|   \\  /    A nd           | Web:      www.OpenFOAM.com                      |
|    \\/     M anipulation  |                                                 |
\*---------------------------------------------------------------------------*/
FoamFile
{
    version     2.0;
    format      ascii;
    class       volScalarField;
    location    "3.7e-05";
    object      Tov;
}
// * * * * * * * * * * * * * * * * * * * * * * * * * * * * * * * * * * * * * //

dimensions      [0 0 0 1 0 0 0];


internalField   nonuniform List<scalar> 
30038
(
144.4
144.4
144.4
144.4
144.4
144.4
144.4
144.4
144.4
144.4
144.4
144.4
144.4
144.4
144.4
144.4
144.4
144.4
144.4
144.4
144.4
144.4
144.4
144.4
144.4
144.4
144.4
144.4
144.4
144.4
144.4
144.4
144.4
144.4
144.4
144.4
144.4
144.4
144.4
144.4
144.4
144.4
144.4
144.4
144.4
144.4
144.4
144.4
144.4
144.4
144.4
144.4
144.4
144.4
144.4
144.4
144.4
144.4
144.4
144.4
144.4
144.4
144.4
144.4
144.4
144.4
144.4
144.4
144.4
144.4
144.4
144.4
144.4
144.4
144.4
144.4
144.4
144.4
144.4
144.4
144.4
144.4
144.4
144.4
144.4
144.4
144.4
144.4
144.4
144.4
144.4
144.4
144.4
144.4
144.4
144.4
144.4
144.4
144.4
144.4
144.4
144.4
144.4
144.4
144.4
144.4
144.4
144.4
144.4
144.4
144.4
144.4
144.4
144.4
144.4
144.4
144.4
144.4
144.4
144.4
144.4
144.4
144.4
144.4
144.4
144.4
144.4
144.4
144.4
144.4
144.4
144.4
144.4
144.4
144.4
144.4
144.4
144.4
144.4
144.4
144.4
144.4
144.4
144.4
144.4
144.4
144.4
144.4
144.4
144.4
144.4
144.4
144.4
144.4
144.4
144.4
144.4
144.4
144.4
144.4
144.4
144.4
144.4
144.4
144.4
144.4
144.4
144.4
144.4
144.4
144.4
144.4
144.4
144.4
144.4
144.4
144.4
144.4
144.4
144.4
144.4
144.4
144.4
144.4
144.4
144.4
144.4
144.4
144.4
144.4
144.4
144.4
144.4
144.4
144.4
144.4
144.4
144.4
144.4
144.4
144.4
144.4
144.4
144.4
144.4
144.4
144.4
144.4
144.4
144.4
144.4
144.4
144.4
144.4
144.4
144.4
144.4
144.4
144.4
144.4
144.4
144.4
144.4
144.4
144.4
144.4
144.4
144.4
144.4
144.4
144.4
144.4
144.4
144.4
144.4
144.4
144.4
144.4
144.4
144.4
144.4
144.4
144.4
144.4
144.4
144.4
144.4
144.4
144.4
144.4
144.4
144.4
144.4
144.4
144.4
144.4
144.4
144.4
144.4
144.4
144.4
144.4
144.4
144.4
144.4
144.4
144.4
144.4
144.4
144.4
144.4
144.4
144.4
144.4
144.4
144.4
144.4
144.4
144.4
144.4
144.4
144.4
144.4
144.4
144.4
144.4
144.4
144.4
144.4
144.4
144.4
144.4
144.4
144.4
144.4
144.4
144.4
144.4
144.4
144.4
144.4
144.4
144.4
144.4
144.4
144.4
144.4
144.4
144.4
144.4
144.4
144.4
144.4
144.4
144.4
144.4
144.4
144.4
144.4
144.4
144.4
144.4
144.4
144.4
144.4
144.4
144.4
144.4
144.4
144.4
144.4
144.4
144.4
144.4
144.4
144.4
144.4
144.4
144.4
144.4
144.4
144.4
144.4
144.4
144.4
144.4
144.4
144.4
144.4
144.4
144.4
144.4
144.4
144.4
144.4
144.4
144.4
144.4
144.4
144.4
144.4
144.4
144.4
144.4
144.4
144.4
144.4
144.4
144.4
144.4
144.4
144.4
144.4
144.4
144.4
144.4
144.4
144.4
144.4
144.4
144.4
144.4
144.4
144.4
144.4
144.4
144.4
144.4
144.4
144.4
144.4
144.4
144.4
144.4
144.4
144.4
144.4
144.4
144.4
144.4
144.4
144.4
144.4
144.4
144.4
144.4
144.4
144.4
144.4
144.4
144.4
144.4
144.4
144.4
144.4
144.4
144.4
144.4
144.4
144.4
144.4
144.4
144.4
144.4
144.4
144.4
144.4
144.4
144.4
144.4
144.4
144.4
144.4
144.4
144.4
144.4
144.4
144.4
144.4
144.4
144.4
144.4
144.4
144.4
144.4
144.4
144.4
144.4
144.4
144.4
144.4
144.4
144.4
144.4
144.4
144.4
144.4
144.4
144.4
144.4
144.4
144.4
144.4
144.4
144.4
144.4
144.4
144.4
144.4
144.4
144.4
144.4
144.4
144.4
144.4
144.4
144.4
144.4
144.4
144.4
144.4
144.4
144.4
144.4
144.4
144.4
144.4
144.4
144.4
144.4
144.4
144.4
144.4
144.4
144.4
144.4
144.4
144.4
144.4
144.4
144.4
144.4
144.4
144.4
144.4
144.4
144.4
144.4
144.4
144.4
144.4
144.4
144.4
144.4
144.4
144.4
144.4
144.4
144.4
144.4
144.4
144.4
144.4
144.4
144.4
144.4
144.4
144.4
144.4
144.4
144.4
144.4
144.4
144.4
144.4
144.4
144.4
144.4
144.4
144.4
144.4
144.4
144.4
144.4
144.4
144.4
144.4
144.4
144.4
144.4
144.4
144.4
144.4
144.4
144.4
144.4
144.4
144.4
144.4
144.4
144.4
144.4
144.4
144.4
144.4
144.4
144.4
144.4
144.4
144.4
144.4
144.4
144.4
144.4
144.4
144.4
144.4
144.4
144.4
144.4
144.4
144.4
144.4
144.4
144.4
144.4
144.4
144.4
144.4
144.4
144.4
144.4
144.4
144.4
144.4
144.4
144.4
144.4
144.4
144.4
144.4
144.4
144.4
144.4
144.4
144.4
144.4
144.4
144.4
144.4
144.4
144.4
144.4
144.4
144.4
144.4
144.4
144.4
144.4
144.4
144.4
144.4
144.4
144.4
144.4
144.4
144.4
144.4
144.4
144.4
144.4
144.4
144.4
144.4
144.4
144.4
144.4
144.4
144.4
144.4
144.4
144.4
144.4
144.4
144.4
144.4
144.4
144.4
144.4
144.4
144.4
144.4
144.4
144.4
144.4
144.4
144.4
144.4
144.4
144.4
144.4
144.4
144.4
144.4
144.4
144.4
144.4
144.4
144.4
144.4
144.4
144.4
144.4
144.4
144.4
144.4
144.4
144.4
144.4
144.4
144.4
144.4
144.4
144.4
144.4
144.4
144.4
144.4
144.4
144.4
144.4
144.4
144.4
144.4
144.4
144.4
144.4
144.4
144.4
144.4
144.4
144.4
144.4
144.4
144.4
144.4
144.4
144.4
144.4
144.4
144.4
144.4
144.4
144.4
144.4
144.4
144.4
144.4
144.4
144.4
144.4
144.4
144.4
144.4
144.4
144.4
144.4
144.4
144.4
144.4
144.4
144.4
144.4
144.4
144.4
144.4
144.4
144.4
144.4
144.4
144.4
144.4
144.4
144.4
144.4
144.4
144.4
144.4
144.4
144.4
144.4
144.4
144.4
144.4
144.4
144.4
144.4
144.4
144.4
144.4
144.4
144.4
144.4
144.4
144.4
144.4
144.4
144.4
144.4
144.4
144.4
144.4
144.4
144.4
144.4
144.4
144.4
144.4
144.4
144.4
144.4
144.4
144.4
144.4
144.4
144.4
144.4
144.4
144.4
144.4
144.4
144.4
144.4
144.4
144.4
144.4
144.4
144.4
144.4
144.4
144.4
144.4
144.4
144.4
144.4
144.4
144.4
144.4
144.4
144.4
144.4
144.4
144.4
144.4
144.4
144.4
144.4
144.4
144.4
144.4
144.4
144.4
144.4
144.4
144.4
144.4
144.4
144.4
144.4
144.4
144.4
144.4
144.4
144.4
144.4
144.4
144.4
144.4
144.4
144.4
144.4
144.4
144.4
144.4
144.4
144.4
144.4
144.4
144.4
144.4
144.4
144.4
144.4
144.4
144.4
144.4
144.4
144.4
144.4
144.4
144.4
144.4
144.4
144.4
144.4
144.4
144.4
144.4
144.4
144.4
144.4
144.4
144.4
144.4
144.4
144.4
144.4
144.4
144.4
144.4
144.4
144.4
144.4
144.4
144.4
144.4
144.4
144.4
144.4
144.4
144.4
144.4
144.4
144.4
144.4
144.4
144.4
144.4
144.4
144.4
144.4
144.4
144.4
144.4
144.4
144.4
144.4
144.4
144.4
144.4
144.4
144.4
144.4
144.4
144.4
144.4
144.4
144.4
144.4
144.4
144.4
144.4
144.4
144.4
144.4
144.4
144.4
144.4
144.4
144.4
144.4
144.4
144.4
144.4
144.4
144.4
144.4
144.4
144.4
144.4
144.4
144.4
144.4
144.4
144.4
144.4
144.4
144.4
144.4
144.4
144.4
144.4
144.4
144.4
144.4
144.4
144.4
144.4
144.4
144.4
144.4
144.4
144.4
144.4
144.4
144.4
144.4
144.4
144.4
144.4
144.4
144.4
144.4
144.4
144.4
144.4
144.4
144.4
144.4
144.4
144.4
144.4
144.4
144.4
144.4
144.4
144.4
144.4
144.4
144.4
144.4
144.4
144.4
144.4
144.4
144.4
144.4
144.4
144.4
144.4
144.4
144.4
144.4
144.4
144.4
144.4
144.4
144.4
144.4
144.4
144.4
144.4
144.4
144.4
144.4
144.4
144.4
144.4
144.4
144.4
144.4
144.4
144.4
144.4
144.4
144.4
144.4
144.4
144.4
144.4
144.4
144.4
144.4
144.4
144.4
144.4
144.4
144.4
144.4
144.4
144.4
144.4
144.4
144.4
144.4
144.4
144.4
144.4
144.4
144.4
144.4
144.4
144.4
144.4
144.4
144.4
144.4
144.4
144.4
144.4
144.4
144.4
144.4
144.4
144.4
144.4
144.4
144.4
144.4
144.4
144.4
144.4
144.4
144.4
144.4
144.4
144.4
144.4
144.4
144.4
144.4
144.4
144.4
144.4
144.4
144.4
144.4
144.4
144.4
144.4
144.4
144.4
144.4
144.4
144.4
144.4
144.4
144.4
144.4
144.4
144.4
144.4
144.4
144.4
144.4
144.4
144.4
144.4
144.4
144.4
144.4
144.4
144.4
144.4
144.4
144.4
144.4
144.4
144.4
144.4
144.4
144.4
144.4
144.4
144.4
144.4
144.4
144.4
144.4
144.4
144.4
144.4
144.4
144.4
144.4
144.4
144.4
144.4
144.4
144.4
144.4
144.4
144.4
144.4
144.4
144.4
144.4
144.4
144.4
144.4
144.4
144.4
144.4
144.4
144.4
144.4
144.4
144.4
144.4
144.4
144.4
144.4
144.4
144.4
144.4
144.4
144.4
144.4
144.4
144.4
144.4
144.4
144.4
144.4
144.4
144.4
144.4
144.4
144.4
144.4
144.4
144.4
144.4
144.4
144.4
144.4
144.4
144.4
144.4
144.4
144.4
144.4
144.4
144.4
144.4
144.4
144.4
144.4
144.4
144.4
144.4
144.4
144.4
144.4
144.4
144.4
144.4
144.4
144.4
144.4
144.4
144.4
144.4
144.4
144.4
144.4
144.4
144.4
144.4
144.4
144.4
144.4
144.4
144.4
144.4
144.4
144.4
144.4
144.4
144.4
144.4
144.4
144.4
144.4
144.4
144.4
144.4
144.4
144.4
144.401
144.401
144.402
144.4
144.4
144.4
144.4
144.4
144.4
144.4
144.4
144.4
144.4
144.4
144.4
144.4
144.4
144.4
144.4
144.4
144.4
144.4
144.4
144.4
144.4
144.4
144.4
144.4
144.4
144.4
144.4
144.4
144.4
144.4
144.4
144.4
144.4
144.4
144.4
144.4
144.4
144.4
144.4
144.4
144.4
144.4
144.4
144.401
144.401
144.402
144.403
144.404
144.406
144.4
144.4
144.4
144.4
144.4
144.4
144.4
144.4
144.4
144.4
144.4
144.4
144.4
144.4
144.4
144.4
144.4
144.4
144.4
144.4
144.4
144.4
144.4
144.4
144.4
144.4
144.4
144.4
144.4
144.4
144.4
144.4
144.4
144.4
144.4
144.4
144.4
144.4
144.4
144.4
144.401
144.401
144.401
144.402
144.403
144.404
144.406
144.409
144.415
144.423
144.4
144.4
144.4
144.4
144.4
144.4
144.4
144.4
144.4
144.4
144.4
144.4
144.4
144.4
144.4
144.4
144.4
144.4
144.4
144.4
144.4
144.4
144.4
144.4
144.4
144.4
144.4
144.4
144.4
144.4
144.4
144.4
144.4
144.4
144.4
144.4
144.4
144.401
144.401
144.401
144.402
144.403
144.404
144.407
144.41
144.415
144.422
144.434
144.452
144.48
144.4
144.4
144.4
144.4
144.4
144.4
144.4
144.4
144.4
144.4
144.4
144.4
144.4
144.4
144.4
144.4
144.4
144.4
144.4
144.4
144.4
144.4
144.4
144.4
144.4
144.4
144.4
144.4
144.4
144.4
144.4
144.4
144.4
144.4
144.401
144.401
144.401
144.402
144.403
144.405
144.407
144.41
144.416
144.423
144.435
144.452
144.479
144.519
144.582
144.68
144.4
144.4
144.4
144.4
144.4
144.4
144.4
144.4
144.4
144.4
144.4
144.4
144.4
144.4
144.4
144.4
144.4
144.4
144.4
144.4
144.4
144.4
144.4
144.4
144.4
144.4
144.4
144.4
144.4
144.4
144.401
144.401
144.401
144.402
144.402
144.404
144.405
144.408
144.411
144.417
144.425
144.437
144.455
144.481
144.522
144.582
144.673
144.812
145.023
145.353
144.4
144.4
144.4
144.4
144.4
144.4
144.4
144.4
144.4
144.4
144.4
144.4
144.4
144.4
144.4
144.4
144.4
144.4
144.4
144.4
144.4
144.4
144.4
144.4
144.4
144.4
144.4
144.401
144.401
144.401
144.402
144.403
144.404
144.406
144.408
144.412
144.418
144.427
144.439
144.458
144.486
144.527
144.588
144.68
144.816
145.021
145.327
145.788
146.487
147.565
144.4
144.4
144.4
144.4
144.4
144.4
144.4
144.4
144.4
144.4
144.4
144.4
144.4
144.4
144.4
144.4
144.4
144.4
144.4
144.4
144.4
144.4
144.4
144.401
144.401
144.401
144.402
144.402
144.403
144.405
144.407
144.41
144.414
144.42
144.429
144.443
144.463
144.492
144.535
144.598
144.692
144.83
145.035
145.34
145.793
146.466
147.466
148.954
151.174
154.517
144.4
144.4
144.4
144.4
144.4
144.4
144.4
144.4
144.4
144.4
144.4
144.4
144.4
144.4
144.4
144.4
144.4
144.4
144.4
144.4
144.401
144.401
144.401
144.402
144.403
144.404
144.405
144.408
144.411
144.416
144.423
144.433
144.448
144.469
144.5
144.546
144.612
144.71
144.853
145.063
145.372
145.827
146.498
147.484
148.935
151.062
154.167
158.674
165.172
174.48
144.4
144.4
144.4
144.4
144.4
144.4
144.4
144.4
144.4
144.4
144.4
144.4
144.4
144.4
144.4
144.4
144.401
144.401
144.401
144.402
144.402
144.403
144.405
144.406
144.409
144.413
144.418
144.426
144.438
144.454
144.477
144.511
144.56
144.632
144.735
144.886
145.105
145.424
145.89
146.57
147.563
149.009
151.11
154.148
158.512
164.713
173.4
185.35
201.446
222.591
144.4
144.4
144.4
144.4
144.4
144.4
144.4
144.4
144.4
144.4
144.4
144.4
144.401
144.401
144.401
144.401
144.402
144.403
144.404
144.406
144.408
144.411
144.415
144.422
144.431
144.444
144.462
144.488
144.526
144.58
144.658
144.769
144.93
145.163
145.499
145.984
146.687
147.703
149.17
151.283
154.313
158.626
164.704
173.148
184.666
200.016
219.923
244.98
275.566
311.696
144.4
144.4
144.4
144.4
144.4
144.4
144.4
144.4
144.401
144.401
144.401
144.401
144.402
144.403
144.404
144.405
144.407
144.41
144.413
144.419
144.426
144.437
144.452
144.473
144.503
144.545
144.606
144.692
144.814
144.99
145.24
145.6
146.115
146.853
147.912
149.426
151.588
154.66
158.994
165.049
173.394
184.691
199.648
218.936
243.084
272.376
306.78
345.949
389.319
435.995
144.4
144.4
144.4
144.4
144.401
144.401
144.401
144.401
144.402
144.402
144.403
144.405
144.406
144.409
144.412
144.417
144.423
144.432
144.445
144.462
144.487
144.521
144.57
144.639
144.736
144.873
145.067
145.343
145.734
146.29
147.079
148.201
149.791
152.04
155.206
159.631
165.757
174.125
185.36
200.125
219.046
242.619
271.111
304.5
342.446
384.328
429.319
476.42
524.516
572.593
144.401
144.401
144.401
144.401
144.402
144.402
144.403
144.404
144.406
144.408
144.411
144.415
144.421
144.429
144.44
144.455
144.476
144.505
144.546
144.603
144.682
144.794
144.95
145.168
145.476
145.909
146.519
147.378
148.586
150.284
152.662
155.977
160.566
166.858
175.369
186.693
201.447
220.212
243.443
271.39
304.033
341.068
381.931
425.854
471.903
518.97
565.935
611.707
655.07
694.857
144.401
144.402
144.402
144.403
144.404
144.406
144.408
144.411
144.415
144.42
144.427
144.437
144.451
144.469
144.495
144.53
144.579
144.646
144.74
144.869
145.05
145.301
145.65
146.138
146.818
147.768
149.091
150.933
153.487
157.013
161.844
168.399
177.176
188.734
203.651
222.458
245.565
273.191
305.31
341.639
381.661
424.669
469.822
516.119
562.488
607.891
651.23
691.174
726.337
755.621
779.078
144.405
144.406
144.408
144.411
144.415
144.42
144.427
144.436
144.448
144.465
144.489
144.52
144.563
144.623
144.704
144.816
144.969
145.181
145.473
145.877
146.435
147.207
148.273
149.746
151.775
154.562
158.368
163.528
170.452
179.62
191.56
206.808
225.844
249.028
276.539
308.335
344.145
383.481
425.691
470.007
515.536
561.274
606.253
649.488
689.836
725.971
756.737
781.522
800.497
814.282
824.165
144.411
144.415
144.42
144.427
144.436
144.448
144.464
144.486
144.515
144.555
144.609
144.682
144.781
144.917
145.102
145.355
145.701
146.175
146.823
147.712
148.929
150.594
152.864
155.949
160.116
165.702
173.109
182.802
195.276
211.021
230.465
253.912
281.497
313.154
348.612
387.407
428.935
472.483
517.248
562.309
606.754
649.691
690.131
726.887
758.788
785.062
805.581
820.847
831.681
839.114
843.99
847.222
144.437
144.449
144.465
144.486
144.514
144.552
144.603
144.671
144.763
144.887
145.054
145.281
145.587
146.003
146.568
147.334
148.373
149.783
151.692
154.268
157.73
162.354
168.477
176.496
186.855
200.018
216.425
236.446
260.328
288.156
319.836
355.088
393.47
434.412
477.256
521.273
565.628
609.457
651.942
692.218
729.239
761.886
789.301
811.156
827.737
839.745
848.069
853.646
857.198
859.376
860.642
861.229
144.517
144.554
144.604
144.669
144.757
144.874
145.031
145.241
145.522
145.9
146.408
147.091
148.009
149.243
150.9
153.119
156.082
160.018
165.211
171.999
180.772
191.95
205.96
223.189
243.947
268.419
296.639
328.479
363.652
401.729
442.172
484.369
527.654
571.273
614.419
656.334
696.242
733.232
766.27
794.469
817.366
835.06
848.117
857.321
863.554
867.597
870.062
871.511
872.182
872.224
872.16
871.994
144.764
144.878
145.03
145.231
145.498
145.853
146.325
146.955
147.793
148.909
150.394
152.367
154.982
158.432
162.958
168.853
176.453
186.136
198.296
213.312
231.519
253.159
278.355
307.089
339.2
374.391
412.246
452.254
493.848
536.415
579.272
621.674
662.914
702.29
739.009
772.134
800.783
824.414
842.984
856.922
866.909
873.762
878.279
881.051
882.666
883.48
883.572
883.393
883.128
882.577
881.674
880.591
145.512
145.856
146.311
146.91
147.7
148.743
150.118
151.929
154.308
157.424
161.485
166.743
173.495
182.074
192.838
206.145
222.328
241.656
264.304
290.333
319.675
352.139
387.417
425.106
464.723
505.739
547.592
589.662
631.262
671.733
710.441
746.684
779.619
808.41
832.479
851.677
866.297
876.934
884.335
889.272
892.345
894.13
895.07
895.232
894.982
894.62
894.088
893.183
892.031
890.732
889.286
887.835
147.72
148.726
150.04
151.755
153.989
156.89
160.641
165.464
171.622
179.409
189.15
201.174
215.798
233.295
253.868
277.626
304.568
334.578
367.441
402.844
440.394
479.636
520.079
561.207
602.456
643.195
682.813
720.731
756.323
788.836
817.494
841.711
861.266
876.359
887.501
895.354
900.634
903.975
905.922
906.944
907.181
906.918
906.449
905.861
904.991
903.822
902.481
900.975
899.394
897.809
896.264
894.756
153.989
156.771
160.339
164.891
170.66
177.911
186.934
198.032
211.498
227.596
246.536
268.453
293.388
321.284
351.988
385.262
420.793
458.202
497.06
536.915
577.291
617.675
657.487
696.164
733.178
767.965
799.856
828.135
852.228
871.883
887.23
898.694
906.867
912.425
915.989
918.069
919.135
919.44
919.172
918.598
917.908
917.059
915.862
914.472
912.954
911.294
909.61
907.938
906.29
904.646
903.031
901.449
177.444
186.007
196.48
209.132
224.21
241.918
262.399
285.718
311.856
340.707
372.088
405.748
441.376
478.61
517.05
556.276
595.855
635.317
674.13
711.778
747.777
781.621
812.709
840.386
864.111
883.623
899.001
910.597
918.952
924.696
928.4
930.576
931.693
932.018
931.73
931.081
930.288
929.38
928.168
926.73
925.171
923.455
921.675
919.899
918.145
916.4
914.665
912.948
911.237
909.544
907.873
222.916
239.749
259.165
281.238
305.971
333.29
363.052
395.053
429.035
464.696
501.692
539.651
578.189
616.909
655.378
693.11
729.632
764.508
797.276
827.396
854.271
877.405
896.544
911.734
923.279
931.675
937.487
941.245
943.475
944.614
944.91
944.611
943.913
942.976
941.972
940.762
939.271
937.647
935.885
934.013
932.134
930.272
928.425
926.583
924.758
922.946
921.139
919.342
917.547
915.768
914.003
303.4
329.501
357.927
388.508
421.028
455.232
490.829
527.495
564.887
602.653
640.433
677.826
714.385
749.684
783.325
814.891
843.889
869.781
892.118
910.669
925.469
936.787
945.07
950.831
954.568
956.794
957.901
958.136
957.816
957.056
955.989
954.861
953.617
952.056
950.348
948.561
946.62
944.643
942.675
940.719
938.771
936.838
934.923
933.014
931.114
929.22
927.33
925.445
923.56
921.688
919.827
450.127
484.419
519.825
556.043
592.759
629.653
666.396
702.613
737.898
771.867
804.161
834.401
862.134
886.875
908.23
925.998
940.215
951.132
959.157
964.757
968.384
970.537
971.572
971.723
971.349
970.496
969.321
968.073
966.74
965.126
963.342
961.481
959.475
957.392
955.322
953.269
951.223
949.186
947.164
945.153
943.149
941.155
939.167
937.183
935.202
933.222
931.246
929.268
927.301
925.342
587.326
623.235
659.139
694.731
729.661
763.561
796.089
826.923
855.713
882.043
905.479
925.683
942.495
955.96
966.32
973.946
979.261
982.695
984.711
985.639
985.662
985.206
984.258
982.977
981.581
980.136
978.476
976.605
974.651
972.591
970.42
968.247
966.087
963.931
961.782
959.654
957.544
955.441
953.347
951.26
949.177
947.099
945.025
942.952
940.881
938.81
936.741
934.669
932.606
930.549
725.344
758.864
791.26
822.233
851.491
878.709
903.502
925.489
944.392
960.095
972.655
982.319
989.424
994.348
997.513
999.319
1000.06
999.952
999.392
998.337
996.928
995.388
993.819
992.092
990.12
988.068
985.951
983.696
981.414
979.155
976.898
974.647
972.412
970.195
967.985
965.785
963.598
961.419
959.245
957.075
954.908
952.744
950.581
948.418
946.256
944.092
941.928
939.761
937.602
935.446
850.149
877.713
903.235
926.364
946.773
964.244
978.702
990.229
999.078
1005.56
1009.99
1012.81
1014.35
1014.86
1014.61
1013.89
1012.7
1011.15
1009.49
1007.79
1005.96
1003.9
1001.75
999.544
997.212
994.826
992.462
990.106
987.75
985.411
983.091
980.781
978.48
976.192
973.911
971.636
969.368
967.106
964.847
962.592
960.338
958.085
955.832
953.578
951.323
949.066
946.808
944.545
942.289
940.032
950.458
969.17
985.093
998.195
1008.59
1016.53
1022.28
1026.16
1028.57
1029.8
1030.01
1029.61
1028.7
1027.35
1025.67
1023.88
1022.03
1020.07
1017.93
1015.68
1013.37
1010.97
1008.48
1006.01
1003.56
1001.1
998.649
996.224
993.811
991.409
989.02
986.642
984.27
981.906
979.547
977.192
974.841
972.494
970.15
967.807
965.465
963.122
960.778
958.432
956.084
953.732
951.378
949.019
946.664
944.307
1018.44
1027.63
1034.58
1039.53
1042.81
1044.76
1045.61
1045.51
1044.91
1043.81
1042.28
1040.45
1038.53
1036.54
1034.45
1032.21
1029.85
1027.44
1024.95
1022.37
1019.8
1017.24
1014.68
1012.13
1009.6
1007.08
1004.58
1002.08
999.603
997.133
994.671
992.218
989.769
987.326
984.886
982.449
980.015
977.582
975.15
972.719
970.286
967.853
965.417
962.978
960.535
958.089
955.638
953.181
950.728
948.27
1057.23
1059.87
1061.31
1061.72
1061.37
1060.51
1059.19
1057.46
1055.49
1053.43
1051.29
1049.07
1046.73
1044.26
1041.73
1039.15
1036.49
1033.8
1031.15
1028.49
1025.83
1023.2
1020.58
1017.97
1015.38
1012.8
1010.23
1007.67
1005.12
1002.57
1000.03
997.5
994.973
992.448
989.926
987.405
984.886
982.366
979.846
977.325
974.803
972.277
969.748
967.215
964.678
962.135
959.587
957.032
954.48
951.92
1077.51
1076.37
1074.8
1072.9
1070.77
1068.56
1066.28
1063.92
1061.46
1058.88
1056.25
1053.57
1050.81
1048.03
1045.27
1042.51
1039.75
1037.02
1034.3
1031.59
1028.9
1026.22
1023.55
1020.89
1018.24
1015.6
1012.97
1010.34
1007.72
1005.1
1002.49
999.878
997.271
994.665
992.059
989.453
986.846
984.237
981.626
979.012
976.393
973.771
971.143
968.509
965.869
963.224
960.571
957.918
955.257
1088.55
1086.26
1083.9
1081.48
1078.99
1076.39
1073.72
1070.97
1068.19
1065.34
1062.45
1059.59
1056.74
1053.88
1051.04
1048.23
1045.42
1042.63
1039.85
1037.08
1034.32
1031.58
1028.84
1026.12
1023.39
1020.68
1017.97
1015.27
1012.57
1009.87
1007.18
1004.48
1001.79
999.102
996.41
993.716
991.02
988.322
985.619
982.912
980.2
977.483
974.759
972.029
969.292
966.548
963.796
961.043
958.28
1096.88
1094.24
1091.52
1088.74
1085.88
1082.99
1080.05
1077.07
1074.11
1071.16
1068.21
1065.27
1062.35
1059.45
1056.56
1053.68
1050.82
1047.96
1045.12
1042.29
1039.47
1036.66
1033.85
1031.05
1028.26
1025.47
1022.68
1019.9
1017.12
1014.34
1011.56
1008.79
1006.01
1003.23
1000.46
997.674
994.888
992.098
989.303
986.503
983.697
980.884
978.064
975.237
972.401
969.559
966.707
963.854
960.989
1100.97
1097.97
1094.93
1091.86
1088.8
1085.76
1082.71
1079.67
1076.67
1073.67
1070.68
1067.71
1064.75
1061.8
1058.87
1055.94
1053.03
1050.12
1047.22
1044.33
1041.45
1038.57
1035.69
1032.82
1029.96
1027.09
1024.23
1021.37
1018.51
1015.65
1012.79
1009.93
1007.06
1004.2
1001.32
998.447
995.565
992.678
989.783
986.882
983.973
981.056
978.132
975.198
972.257
969.305
966.352
963.385
1106.81
1103.66
1100.53
1097.39
1094.25
1091.15
1088.06
1084.98
1081.91
1078.86
1075.82
1072.79
1069.78
1066.77
1063.77
1060.78
1057.8
1054.83
1051.86
1048.9
1045.94
1042.99
1040.04
1037.09
1034.15
1031.21
1028.26
1025.32
1022.38
1019.43
1016.49
1013.54
1010.58
1007.63
1004.66
1001.7
998.722
995.741
992.752
989.755
986.75
983.736
980.713
977.681
974.641
971.591
968.537
965.47
1108.99
1105.8
1102.62
1099.44
1096.29
1093.15
1090.01
1086.89
1083.79
1080.69
1077.6
1074.53
1071.46
1068.39
1065.34
1062.29
1059.25
1056.21
1053.17
1050.14
1047.12
1044.09
1041.07
1038.04
1035.02
1032
1028.97
1025.94
1022.91
1019.88
1016.84
1013.8
1010.75
1007.7
1004.64
1001.57
998.493
995.409
992.316
989.214
986.103
982.983
979.852
976.713
973.564
970.411
967.243
1114.06
1110.81
1107.59
1104.37
1101.16
1097.97
1094.78
1091.6
1088.44
1085.28
1082.13
1078.99
1075.86
1072.73
1069.6
1066.49
1063.37
1060.26
1057.15
1054.05
1050.94
1047.84
1044.74
1041.63
1038.53
1035.42
1032.31
1029.2
1026.08
1022.96
1019.83
1016.7
1013.56
1010.42
1007.26
1004.1
1000.93
997.753
994.564
991.366
988.158
984.94
981.712
978.475
975.227
971.975
968.709
1115.57
1112.29
1109.02
1105.76
1102.51
1099.27
1096.03
1092.81
1089.59
1086.37
1083.17
1079.97
1076.77
1073.58
1070.39
1067.2
1064.02
1060.84
1057.65
1054.47
1051.29
1048.11
1044.92
1041.73
1038.54
1035.35
1032.15
1028.95
1025.74
1022.52
1019.3
1016.07
1012.83
1009.58
1006.33
1003.06
999.786
996.501
993.206
989.901
986.586
983.261
979.926
976.581
973.232
969.868
1120.05
1116.72
1113.4
1110.08
1106.77
1103.47
1100.18
1096.89
1093.61
1090.33
1087.06
1083.79
1080.52
1077.26
1074
1070.74
1067.48
1064.22
1060.96
1057.7
1054.44
1051.17
1047.9
1044.63
1041.36
1038.08
1034.79
1031.5
1028.2
1024.89
1021.58
1018.26
1014.93
1011.59
1008.24
1004.88
1001.51
998.127
994.736
991.335
987.923
984.502
981.071
977.63
974.184
970.723
1124.26
1120.88
1117.49
1114.12
1110.75
1107.39
1104.03
1100.68
1097.33
1093.99
1090.65
1087.31
1083.97
1080.64
1077.3
1073.97
1070.64
1067.3
1063.96
1060.62
1057.28
1053.93
1050.58
1047.22
1043.86
1040.5
1037.12
1033.74
1030.35
1026.96
1023.55
1020.14
1016.71
1013.28
1009.84
1006.38
1002.92
999.443
995.957
992.46
988.953
985.436
981.911
978.374
974.833
971.278
1128.19
1124.75
1121.31
1117.87
1114.45
1111.02
1107.6
1104.18
1100.77
1097.36
1093.95
1090.54
1087.13
1083.72
1080.31
1076.9
1073.49
1070.08
1066.66
1063.24
1059.81
1056.38
1052.95
1049.51
1046.06
1042.6
1039.14
1035.67
1032.2
1028.71
1025.21
1021.71
1018.19
1014.66
1011.13
1007.58
1004.02
1000.45
996.871
993.28
989.678
986.067
982.447
978.817
975.182
971.534
1131.84
1128.33
1124.83
1121.34
1117.85
1114.36
1110.88
1107.39
1103.91
1100.43
1096.95
1093.47
1089.98
1086.5
1083.02
1079.53
1076.04
1072.55
1069.05
1065.55
1062.04
1058.52
1055
1051.48
1047.94
1044.4
1040.85
1037.29
1033.73
1030.15
1026.56
1022.97
1019.36
1015.74
1012.11
1008.47
1004.82
1001.15
997.48
993.795
990.1
986.395
982.684
978.968
975.248
971.515
1135.19
1131.63
1128.07
1124.51
1120.96
1117.41
1113.85
1110.3
1106.75
1103.2
1099.65
1096.09
1092.54
1088.98
1085.42
1081.85
1078.28
1074.71
1071.13
1067.54
1063.95
1060.36
1056.75
1053.14
1049.52
1045.89
1042.25
1038.61
1034.95
1031.28
1027.6
1023.92
1020.22
1016.51
1012.78
1009.05
1005.31
1001.55
997.784
994.011
990.23
986.44
982.644
978.841
975.037
971.219
1138.26
1134.64
1131.01
1127.39
1123.77
1120.15
1116.53
1112.91
1109.29
1105.67
1102.04
1098.41
1094.78
1091.15
1087.51
1083.86
1080.22
1076.56
1072.9
1069.23
1065.56
1061.88
1058.19
1054.49
1050.78
1047.07
1043.34
1039.61
1035.86
1032.1
1028.34
1024.56
1020.77
1016.97
1013.15
1009.33
1005.5
1001.66
997.805
993.946
990.08
986.205
982.324
978.434
974.544
970.642
1137.34
1133.66
1129.97
1126.29
1122.6
1118.91
1115.22
1111.52
1107.83
1104.13
1100.43
1096.72
1093.01
1089.29
1085.57
1081.84
1078.11
1074.36
1070.61
1066.86
1063.09
1059.32
1055.53
1051.74
1047.94
1044.12
1040.3
1036.47
1032.62
1028.76
1024.89
1021.01
1017.13
1013.23
1009.32
1005.41
1001.48
997.545
993.599
989.646
985.685
981.719
977.747
973.775
969.792
1139.75
1136
1132.25
1128.5
1124.74
1120.98
1117.22
1113.45
1109.68
1105.91
1102.13
1098.35
1094.56
1090.77
1086.96
1083.15
1079.34
1075.51
1071.68
1067.84
1063.99
1060.13
1056.26
1052.39
1048.5
1044.6
1040.68
1036.76
1032.83
1028.89
1024.94
1020.98
1017.01
1013.03
1009.03
1005.03
1001.02
996.997
992.967
988.929
984.887
980.84
976.788
972.738
968.678
1141.86
1138.04
1134.22
1130.4
1126.58
1122.75
1118.91
1115.07
1111.23
1107.38
1103.53
1099.67
1095.8
1091.93
1088.05
1084.16
1080.26
1076.36
1072.44
1068.52
1064.58
1060.64
1056.69
1052.72
1048.75
1044.77
1040.77
1036.77
1032.76
1028.73
1024.7
1020.65
1016.6
1012.53
1008.45
1004.37
1000.27
996.167
992.056
987.939
983.817
979.692
975.565
971.44
967.307
1139.78
1135.89
1132
1128.1
1124.2
1120.3
1116.39
1112.47
1108.55
1104.61
1100.68
1096.73
1092.78
1088.82
1084.85
1080.87
1076.89
1072.89
1068.88
1064.86
1060.84
1056.81
1052.76
1048.71
1044.65
1040.57
1036.49
1032.39
1028.28
1024.17
1020.04
1015.9
1011.75
1007.59
1003.42
999.247
995.064
990.875
986.681
982.483
978.284
974.084
969.889
965.686
1141.21
1137.25
1133.29
1129.32
1125.35
1121.37
1117.39
1113.39
1109.4
1105.39
1101.37
1097.35
1093.32
1089.28
1085.23
1081.17
1077.11
1073.03
1068.95
1064.85
1060.75
1056.64
1052.52
1048.38
1044.24
1040.08
1035.91
1031.74
1027.55
1023.35
1019.14
1014.92
1010.69
1006.45
1002.21
997.953
993.694
989.43
985.163
980.893
976.624
972.355
968.092
963.825
1142.33
1138.3
1134.27
1130.23
1126.19
1122.13
1118.07
1114.01
1109.93
1105.85
1101.76
1097.66
1093.55
1089.44
1085.31
1081.18
1077.04
1072.89
1068.73
1064.55
1060.37
1056.18
1051.97
1047.76
1043.53
1039.3
1035.05
1030.79
1026.52
1022.25
1017.96
1013.66
1009.36
1005.04
1000.72
996.397
992.065
987.73
983.392
979.054
974.719
970.385
966.06
961.731
1143.13
1139.04
1134.93
1130.82
1126.71
1122.58
1118.45
1114.31
1110.16
1106
1101.84
1097.67
1093.49
1089.3
1085.1
1080.89
1076.67
1072.44
1068.2
1063.95
1059.69
1055.42
1051.14
1046.84
1042.54
1038.23
1033.9
1029.57
1025.23
1020.87
1016.51
1012.14
1007.76
1003.37
998.982
994.585
990.185
985.781
981.378
976.975
972.577
968.183
963.798
959.413
1139.46
1135.28
1131.1
1126.92
1122.72
1118.52
1114.31
1110.09
1105.86
1101.63
1097.38
1093.13
1088.86
1084.59
1080.3
1076.01
1071.7
1067.38
1063.06
1058.72
1054.37
1050.01
1045.65
1041.27
1036.88
1032.48
1028.07
1023.66
1019.23
1014.8
1010.35
1005.91
1001.45
996.99
992.526
988.06
983.593
979.127
974.664
970.206
965.756
961.317
956.88
1139.57
1135.33
1131.08
1126.83
1122.57
1118.3
1114.01
1109.72
1105.42
1101.11
1096.79
1092.47
1088.13
1083.78
1079.42
1075.05
1070.67
1066.28
1061.87
1057.46
1053.04
1048.61
1044.17
1039.72
1035.26
1030.79
1026.31
1021.82
1017.33
1012.82
1008.32
1003.8
999.279
994.755
990.228
985.7
981.173
976.648
972.128
967.616
963.114
958.625
954.14
1139.39
1135.08
1130.77
1126.44
1122.11
1117.77
1113.41
1109.05
1104.68
1100.3
1095.91
1091.5
1087.09
1082.67
1078.24
1073.8
1069.34
1064.88
1060.41
1055.93
1051.44
1046.93
1042.42
1037.9
1033.37
1028.83
1024.29
1019.73
1015.17
1010.6
1006.03
1001.45
996.87
992.284
987.698
983.112
978.529
973.95
969.378
964.815
960.265
955.73
951.202
1134.52
1130.14
1125.75
1121.34
1116.93
1112.51
1108.08
1103.63
1099.18
1094.72
1090.25
1085.77
1081.28
1076.77
1072.26
1067.74
1063.21
1058.67
1054.12
1049.56
1044.99
1040.41
1035.82
1031.23
1026.62
1022.01
1017.4
1012.77
1008.14
1003.51
998.87
994.229
989.587
984.945
980.306
975.67
971.041
966.42
961.812
957.218
952.642
948.076
1133.66
1129.21
1124.75
1120.28
1115.8
1111.31
1106.81
1102.3
1097.78
1093.25
1088.71
1084.16
1079.6
1075.03
1070.45
1065.86
1061.27
1056.66
1052.04
1047.42
1042.78
1038.14
1033.49
1028.83
1024.17
1019.49
1014.82
1010.13
1005.45
1000.76
996.061
991.366
986.671
981.978
977.289
972.605
967.93
963.265
958.616
953.982
949.369
944.769
1132.49
1127.97
1123.45
1118.91
1114.37
1109.81
1105.25
1100.67
1096.08
1091.49
1086.88
1082.27
1077.65
1073.01
1068.37
1063.72