/*--------------------------------*- C++ -*----------------------------------*\
| =========                 |                                                 |
| \\      /  F ield         | OpenFOAM: The Open Source CFD Toolbox           |
|  \\    /   O peration     | Version:  v1706                                 |
|   \\  /    A nd           | Web:      www.OpenFOAM.com                      |
|    \\/     M anipulation  |                                                 |
\*---------------------------------------------------------------------------*/
FoamFile
{
    version     2.0;
    format      ascii;
    class       volScalarField;
    location    "3.7e-05";
    object      wallHeatFlux;
}
// * * * * * * * * * * * * * * * * * * * * * * * * * * * * * * * * * * * * * //

dimensions      [1 0 -3 0 0 0 0];


internalField   uniform 0;

boundaryField
{
    cone
    {
        type            calculated;
        value           nonuniform List<scalar> 
153
(
118695
117520
116352
115190
114032
112880
111732
110589
109452
108319
107191
106069
104952
103841
102735
101635
100541
99452.4
98370.2
97294.1
96224.4
95161.1
94104.4
93054.4
92011.4
90975.3
89946.5
88925.1
87911.4
86905.6
85908.1
84919
83938.9
82968.2
82007.4
81057.1
80118.1
79191.1
78277.1
77377.4
76493.2
75625.8
74776.8
73947.7
73139.7
72351
71580.5
70795.7
70049.8
69403.1
68802.8
68242.7
67714.9
67214.1
66736.2
66278.1
65837.4
65412
65000.3
64601
64212.9
63835
63466.3
63106.2
62753.8
62408.7
62070.1
61737.6
61410.6
61088.8
60771.8
60459.1
60150.5
59845.5
59543.8
59245.3
58949.4
58656.1
58364.9
58075.9
57788.8
57503.4
57219.4
56936.7
56655.2
56374.4
56094.3
55814.7
55535.5
55256.6
54977.7
54698.8
54419.8
54140.5
53860.8
53580.6
53299.9
53018.4
52736.1
52453
52168.9
51883.8
51597.6
51310.2
51021.6
50731.8
50440.6
50148
49854.1
49558.7
49261.9
48963.5
48663.7
48362.4
48059.5
47755.1
47449.3
47141.8
46832.9
46522.5
46210.7
45897.4
45582.6
45266.5
44949
44630.3
44310.2
43988.9
43666.5
43342.9
43018.2
42692.5
42365.8
42038.2
41709.8
41380.5
41050.6
40719.9
40388.7
40056.9
39724.6
39391.9
39058.9
38725.5
38391.8
38058
37724.1
37390
37056
36722.1
36388.6
36055.8
35722.4
)
;
    }
    inlet
    {
        type            calculated;
        value           uniform 0;
    }
    rWedge
    {
        type            wedge;
    }
    lWedge
    {
        type            wedge;
    }
    outlet
    {
        type            calculated;
        value           nonuniform 0();
    }
    procBoundary2to0
    {
        type            processor;
        value           uniform 0;
    }
    procBoundary2to1
    {
        type            processor;
        value           uniform 0;
    }
    procBoundary2to3
    {
        type            processor;
        value           uniform 0;
    }
}


// ************************************************************************* //
