/*--------------------------------*- C++ -*----------------------------------*\
| =========                 |                                                 |
| \\      /  F ield         | OpenFOAM: The Open Source CFD Toolbox           |
|  \\    /   O peration     | Version:  v1706                                 |
|   \\  /    A nd           | Web:      www.OpenFOAM.com                      |
|    \\/     M anipulation  |                                                 |
\*---------------------------------------------------------------------------*/
FoamFile
{
    version     2.0;
    format      ascii;
    class       volScalarField;
    location    "3.3e-05";
    object      alpha;
}
// * * * * * * * * * * * * * * * * * * * * * * * * * * * * * * * * * * * * * //

dimensions      [1 -1 -1 0 0 0 0];


internalField   nonuniform List<scalar> 
30038
(
1.40478e-05
1.40478e-05
1.40478e-05
1.40478e-05
1.40478e-05
1.40478e-05
1.40478e-05
1.40478e-05
1.40478e-05
1.40478e-05
1.40478e-05
1.40478e-05
1.40478e-05
1.40478e-05
1.40478e-05
1.40478e-05
1.40478e-05
1.40478e-05
1.40478e-05
1.40478e-05
1.40478e-05
1.40478e-05
1.40478e-05
1.40478e-05
1.40478e-05
1.40478e-05
1.40478e-05
1.40478e-05
1.40478e-05
1.40478e-05
1.40478e-05
1.40478e-05
1.40478e-05
1.40478e-05
1.40478e-05
1.40478e-05
1.40478e-05
1.40478e-05
1.40478e-05
1.40478e-05
1.40478e-05
1.40478e-05
1.40478e-05
1.40478e-05
1.40478e-05
1.40478e-05
1.40478e-05
1.40478e-05
1.40478e-05
1.40478e-05
1.40478e-05
1.40478e-05
1.40478e-05
1.40478e-05
1.40478e-05
1.40478e-05
1.40478e-05
1.40478e-05
1.40478e-05
1.40478e-05
1.40478e-05
1.40478e-05
1.40478e-05
1.40478e-05
1.40478e-05
1.40478e-05
1.40478e-05
1.40478e-05
1.40478e-05
1.40478e-05
1.40478e-05
1.40478e-05
1.40478e-05
1.40478e-05
1.40478e-05
1.40478e-05
1.40478e-05
1.40478e-05
1.40478e-05
1.40478e-05
1.40478e-05
1.40478e-05
1.40478e-05
1.40478e-05
1.40478e-05
1.40478e-05
1.40478e-05
1.40478e-05
1.40478e-05
1.40478e-05
1.40478e-05
1.40478e-05
1.40478e-05
1.40478e-05
1.40478e-05
1.40478e-05
1.40478e-05
1.40478e-05
1.40478e-05
1.40478e-05
1.40478e-05
1.40478e-05
1.40478e-05
1.40478e-05
1.40478e-05
1.40478e-05
1.40478e-05
1.40478e-05
1.40478e-05
1.40478e-05
1.40478e-05
1.40478e-05
1.40478e-05
1.40478e-05
1.40478e-05
1.40478e-05
1.40478e-05
1.40478e-05
1.40478e-05
1.40478e-05
1.40478e-05
1.40478e-05
1.40478e-05
1.40478e-05
1.40478e-05
1.40478e-05
1.40478e-05
1.40478e-05
1.40478e-05
1.40478e-05
1.40478e-05
1.40478e-05
1.40478e-05
1.40478e-05
1.40478e-05
1.40478e-05
1.40478e-05
1.40478e-05
1.40478e-05
1.40478e-05
1.40478e-05
1.40478e-05
1.40478e-05
1.40478e-05
1.40478e-05
1.40478e-05
1.40478e-05
1.40478e-05
1.40478e-05
1.40478e-05
1.40478e-05
1.40478e-05
1.40478e-05
1.40478e-05
1.40478e-05
1.40478e-05
1.40478e-05
1.40478e-05
1.40478e-05
1.40478e-05
1.40478e-05
1.40478e-05
1.40478e-05
1.40478e-05
1.40478e-05
1.40478e-05
1.40478e-05
1.40478e-05
1.40478e-05
1.40478e-05
1.40478e-05
1.40478e-05
1.40478e-05
1.40478e-05
1.40478e-05
1.40478e-05
1.40478e-05
1.40478e-05
1.40478e-05
1.40478e-05
1.40478e-05
1.40478e-05
1.40478e-05
1.40478e-05
1.40478e-05
1.40478e-05
1.40478e-05
1.40478e-05
1.40478e-05
1.40478e-05
1.40478e-05
1.40478e-05
1.40478e-05
1.40478e-05
1.40478e-05
1.40478e-05
1.40478e-05
1.40478e-05
1.40478e-05
1.40478e-05
1.40478e-05
1.40478e-05
1.40478e-05
1.40478e-05
1.40478e-05
1.40478e-05
1.40478e-05
1.40478e-05
1.40478e-05
1.40478e-05
1.40478e-05
1.40478e-05
1.40478e-05
1.40478e-05
1.40478e-05
1.40478e-05
1.40478e-05
1.40478e-05
1.40478e-05
1.40478e-05
1.40478e-05
1.40478e-05
1.40478e-05
1.40478e-05
1.40478e-05
1.40478e-05
1.40478e-05
1.40478e-05
1.40478e-05
1.40478e-05
1.40478e-05
1.40478e-05
1.40478e-05
1.40478e-05
1.40478e-05
1.40478e-05
1.40478e-05
1.40478e-05
1.40478e-05
1.40478e-05
1.40478e-05
1.40478e-05
1.40478e-05
1.40478e-05
1.40478e-05
1.40478e-05
1.40478e-05
1.40478e-05
1.40478e-05
1.40478e-05
1.40478e-05
1.40478e-05
1.40478e-05
1.40478e-05
1.40478e-05
1.40478e-05
1.40478e-05
1.40478e-05
1.40478e-05
1.40478e-05
1.40478e-05
1.40478e-05
1.40478e-05
1.40478e-05
1.40478e-05
1.40478e-05
1.40478e-05
1.40478e-05
1.40478e-05
1.40478e-05
1.40478e-05
1.40478e-05
1.40478e-05
1.40478e-05
1.40478e-05
1.40478e-05
1.40478e-05
1.40478e-05
1.40478e-05
1.40478e-05
1.40478e-05
1.40478e-05
1.40478e-05
1.40478e-05
1.40478e-05
1.40478e-05
1.40478e-05
1.40478e-05
1.40478e-05
1.40478e-05
1.40478e-05
1.40478e-05
1.40478e-05
1.40478e-05
1.40478e-05
1.40478e-05
1.40478e-05
1.40478e-05
1.40478e-05
1.40478e-05
1.40478e-05
1.40478e-05
1.40478e-05
1.40478e-05
1.40478e-05
1.40478e-05
1.40478e-05
1.40478e-05
1.40478e-05
1.40478e-05
1.40478e-05
1.40478e-05
1.40478e-05
1.40478e-05
1.40478e-05
1.40478e-05
1.40478e-05
1.40478e-05
1.40478e-05
1.40478e-05
1.40478e-05
1.40478e-05
1.40478e-05
1.40478e-05
1.40478e-05
1.40478e-05
1.40478e-05
1.40478e-05
1.40478e-05
1.40478e-05
1.40478e-05
1.40478e-05
1.40478e-05
1.40478e-05
1.40478e-05
1.40478e-05
1.40478e-05
1.40478e-05
1.40478e-05
1.40478e-05
1.40478e-05
1.40478e-05
1.40478e-05
1.40478e-05
1.40478e-05
1.40478e-05
1.40478e-05
1.40478e-05
1.40478e-05
1.40478e-05
1.40478e-05
1.40478e-05
1.40478e-05
1.40478e-05
1.40478e-05
1.40478e-05
1.40478e-05
1.40478e-05
1.40478e-05
1.40478e-05
1.40478e-05
1.40478e-05
1.40478e-05
1.40478e-05
1.40478e-05
1.40478e-05
1.40478e-05
1.40478e-05
1.40478e-05
1.40478e-05
1.40478e-05
1.40478e-05
1.40478e-05
1.40478e-05
1.40478e-05
1.40478e-05
1.40478e-05
1.40478e-05
1.40478e-05
1.40478e-05
1.40478e-05
1.40478e-05
1.40478e-05
1.40478e-05
1.40478e-05
1.40478e-05
1.40478e-05
1.40478e-05
1.40478e-05
1.40478e-05
1.40478e-05
1.40478e-05
1.40478e-05
1.40478e-05
1.40478e-05
1.40478e-05
1.40478e-05
1.40478e-05
1.40478e-05
1.40478e-05
1.40478e-05
1.40478e-05
1.40478e-05
1.40478e-05
1.40478e-05
1.40478e-05
1.40478e-05
1.40478e-05
1.40478e-05
1.40478e-05
1.40478e-05
1.40478e-05
1.40478e-05
1.40478e-05
1.40478e-05
1.40478e-05
1.40478e-05
1.40478e-05
1.40478e-05
1.40478e-05
1.40478e-05
1.40478e-05
1.40478e-05
1.40478e-05
1.40478e-05
1.40478e-05
1.40478e-05
1.40478e-05
1.40478e-05
1.40478e-05
1.40478e-05
1.40478e-05
1.40478e-05
1.40478e-05
1.40478e-05
1.40478e-05
1.40478e-05
1.40478e-05
1.40478e-05
1.40478e-05
1.40478e-05
1.40478e-05
1.40478e-05
1.40478e-05
1.40478e-05
1.40478e-05
1.40478e-05
1.40478e-05
1.40478e-05
1.40478e-05
1.40478e-05
1.40478e-05
1.40478e-05
1.40478e-05
1.40478e-05
1.40478e-05
1.40478e-05
1.40478e-05
1.40478e-05
1.40478e-05
1.40478e-05
1.40478e-05
1.40478e-05
1.40478e-05
1.40478e-05
1.40478e-05
1.40478e-05
1.40478e-05
1.40478e-05
1.40478e-05
1.40478e-05
1.40478e-05
1.40478e-05
1.40478e-05
1.40478e-05
1.40478e-05
1.40478e-05
1.40478e-05
1.40478e-05
1.40478e-05
1.40478e-05
1.40478e-05
1.40478e-05
1.40478e-05
1.40478e-05
1.40478e-05
1.40478e-05
1.40478e-05
1.40478e-05
1.40478e-05
1.40478e-05
1.40478e-05
1.40478e-05
1.40478e-05
1.40478e-05
1.40478e-05
1.40478e-05
1.40478e-05
1.40478e-05
1.40478e-05
1.40478e-05
1.40478e-05
1.40478e-05
1.40478e-05
1.40478e-05
1.40478e-05
1.40478e-05
1.40478e-05
1.40478e-05
1.40478e-05
1.40478e-05
1.40478e-05
1.40478e-05
1.40478e-05
1.40478e-05
1.40478e-05
1.40478e-05
1.40478e-05
1.40478e-05
1.40478e-05
1.40478e-05
1.40478e-05
1.40478e-05
1.40478e-05
1.40478e-05
1.40478e-05
1.40478e-05
1.40478e-05
1.40478e-05
1.40478e-05
1.40478e-05
1.40478e-05
1.40478e-05
1.40478e-05
1.40478e-05
1.40478e-05
1.40478e-05
1.40478e-05
1.40478e-05
1.40478e-05
1.40478e-05
1.40478e-05
1.40478e-05
1.40478e-05
1.40478e-05
1.40478e-05
1.40478e-05
1.40478e-05
1.40478e-05
1.40478e-05
1.40478e-05
1.40478e-05
1.40478e-05
1.40478e-05
1.40478e-05
1.40478e-05
1.40478e-05
1.40478e-05
1.40478e-05
1.40478e-05
1.40478e-05
1.40478e-05
1.40478e-05
1.40478e-05
1.40478e-05
1.40478e-05
1.40478e-05
1.40478e-05
1.40478e-05
1.40478e-05
1.40478e-05
1.40478e-05
1.40478e-05
1.40478e-05
1.40478e-05
1.40478e-05
1.40478e-05
1.40478e-05
1.40478e-05
1.40478e-05
1.40478e-05
1.40478e-05
1.40478e-05
1.40478e-05
1.40478e-05
1.40478e-05
1.40478e-05
1.40478e-05
1.40478e-05
1.40478e-05
1.40478e-05
1.40478e-05
1.40478e-05
1.40478e-05
1.40478e-05
1.40478e-05
1.40478e-05
1.40478e-05
1.40478e-05
1.40478e-05
1.40478e-05
1.40478e-05
1.40478e-05
1.40478e-05
1.40478e-05
1.40478e-05
1.40478e-05
1.40478e-05
1.40478e-05
1.40478e-05
1.40478e-05
1.40478e-05
1.40478e-05
1.40478e-05
1.40478e-05
1.40478e-05
1.40478e-05
1.40478e-05
1.40478e-05
1.40478e-05
1.40478e-05
1.40478e-05
1.40478e-05
1.40478e-05
1.40478e-05
1.40478e-05
1.40478e-05
1.40478e-05
1.40478e-05
1.40478e-05
1.40478e-05
1.40478e-05
1.40478e-05
1.40478e-05
1.40478e-05
1.40478e-05
1.40478e-05
1.40478e-05
1.40478e-05
1.40478e-05
1.40478e-05
1.40478e-05
1.40478e-05
1.40478e-05
1.40478e-05
1.40478e-05
1.40478e-05
1.40478e-05
1.40478e-05
1.40478e-05
1.40478e-05
1.40478e-05
1.40478e-05
1.40478e-05
1.40478e-05
1.40478e-05
1.40478e-05
1.40478e-05
1.40478e-05
1.40478e-05
1.40478e-05
1.40478e-05
1.40478e-05
1.40478e-05
1.40478e-05
1.40478e-05
1.40478e-05
1.40478e-05
1.40478e-05
1.40478e-05
1.40478e-05
1.40478e-05
1.40478e-05
1.40478e-05
1.40478e-05
1.40478e-05
1.40478e-05
1.40478e-05
1.40478e-05
1.40478e-05
1.40478e-05
1.40478e-05
1.40478e-05
1.40478e-05
1.40478e-05
1.40478e-05
1.40478e-05
1.40478e-05
1.40478e-05
1.40478e-05
1.40478e-05
1.40478e-05
1.40478e-05
1.40478e-05
1.40478e-05
1.40478e-05
1.40478e-05
1.40478e-05
1.40478e-05
1.40478e-05
1.40478e-05
1.40478e-05
1.40478e-05
1.40478e-05
1.40478e-05
1.40478e-05
1.40478e-05
1.40478e-05
1.40478e-05
1.40478e-05
1.40478e-05
1.40478e-05
1.40478e-05
1.40478e-05
1.40478e-05
1.40478e-05
1.40478e-05
1.40478e-05
1.40478e-05
1.40478e-05
1.40478e-05
1.40478e-05
1.40478e-05
1.40478e-05
1.40478e-05
1.40478e-05
1.40478e-05
1.40478e-05
1.40478e-05
1.40478e-05
1.40478e-05
1.40478e-05
1.40478e-05
1.40478e-05
1.40478e-05
1.40478e-05
1.40478e-05
1.40478e-05
1.40478e-05
1.40478e-05
1.40478e-05
1.40478e-05
1.40478e-05
1.40478e-05
1.40478e-05
1.40478e-05
1.40478e-05
1.40478e-05
1.40478e-05
1.40478e-05
1.40478e-05
1.40478e-05
1.40478e-05
1.40478e-05
1.40478e-05
1.40478e-05
1.40478e-05
1.40478e-05
1.40478e-05
1.40478e-05
1.40478e-05
1.40478e-05
1.40478e-05
1.40478e-05
1.40478e-05
1.40478e-05
1.40478e-05
1.40478e-05
1.40478e-05
1.40478e-05
1.40478e-05
1.40478e-05
1.40478e-05
1.40478e-05
1.40478e-05
1.40478e-05
1.40478e-05
1.40478e-05
1.40478e-05
1.40478e-05
1.40478e-05
1.40478e-05
1.40478e-05
1.40478e-05
1.40478e-05
1.40478e-05
1.40478e-05
1.40478e-05
1.40478e-05
1.40478e-05
1.40478e-05
1.40478e-05
1.40478e-05
1.40478e-05
1.40478e-05
1.40478e-05
1.40478e-05
1.40478e-05
1.40478e-05
1.40478e-05
1.40478e-05
1.40478e-05
1.40478e-05
1.40478e-05
1.40478e-05
1.40478e-05
1.40478e-05
1.40478e-05
1.40478e-05
1.40478e-05
1.40478e-05
1.40478e-05
1.40478e-05
1.40478e-05
1.40478e-05
1.40478e-05
1.40478e-05
1.40478e-05
1.40478e-05
1.40478e-05
1.40478e-05
1.40478e-05
1.40478e-05
1.40478e-05
1.40478e-05
1.40478e-05
1.40478e-05
1.40478e-05
1.40478e-05
1.40478e-05
1.40478e-05
1.40478e-05
1.40478e-05
1.40478e-05
1.40478e-05
1.40478e-05
1.40478e-05
1.40478e-05
1.40478e-05
1.40478e-05
1.40478e-05
1.40478e-05
1.40478e-05
1.40478e-05
1.40478e-05
1.40478e-05
1.40478e-05
1.40478e-05
1.40478e-05
1.40478e-05
1.40478e-05
1.40478e-05
1.40478e-05
1.40478e-05
1.40478e-05
1.40478e-05
1.40478e-05
1.40478e-05
1.40478e-05
1.40478e-05
1.40478e-05
1.40478e-05
1.40478e-05
1.40478e-05
1.40478e-05
1.40478e-05
1.40478e-05
1.40478e-05
1.40478e-05
1.40478e-05
1.40478e-05
1.40478e-05
1.40478e-05
1.40478e-05
1.40478e-05
1.40478e-05
1.40478e-05
1.40478e-05
1.40478e-05
1.40478e-05
1.40478e-05
1.40478e-05
1.40478e-05
1.40478e-05
1.40478e-05
1.40478e-05
1.40478e-05
1.40478e-05
1.40478e-05
1.40478e-05
1.40478e-05
1.40478e-05
1.40478e-05
1.40478e-05
1.40478e-05
1.40478e-05
1.40478e-05
1.40478e-05
1.40478e-05
1.40478e-05
1.40478e-05
1.40478e-05
1.40478e-05
1.40478e-05
1.40478e-05
1.40478e-05
1.40478e-05
1.40478e-05
1.40478e-05
1.40478e-05
1.40478e-05
1.40478e-05
1.40478e-05
1.40478e-05
1.40478e-05
1.40478e-05
1.40478e-05
1.40478e-05
1.40478e-05
1.40478e-05
1.40478e-05
1.40478e-05
1.40478e-05
1.40478e-05
1.40478e-05
1.40478e-05
1.40478e-05
1.40478e-05
1.40478e-05
1.40478e-05
1.40478e-05
1.40478e-05
1.40478e-05
1.40478e-05
1.40478e-05
1.40478e-05
1.40478e-05
1.40478e-05
1.40478e-05
1.40478e-05
1.40478e-05
1.40478e-05
1.40478e-05
1.40478e-05
1.40478e-05
1.40478e-05
1.40478e-05
1.40478e-05
1.40478e-05
1.40478e-05
1.40478e-05
1.40478e-05
1.40478e-05
1.40478e-05
1.40478e-05
1.40478e-05
1.40478e-05
1.40478e-05
1.40478e-05
1.40478e-05
1.40478e-05
1.40478e-05
1.40478e-05
1.40478e-05
1.40478e-05
1.40478e-05
1.40478e-05
1.40478e-05
1.40478e-05
1.40478e-05
1.40478e-05
1.40478e-05
1.40478e-05
1.40478e-05
1.40478e-05
1.40478e-05
1.40478e-05
1.40478e-05
1.40478e-05
1.40478e-05
1.40478e-05
1.40478e-05
1.40478e-05
1.40478e-05
1.40478e-05
1.40478e-05
1.40478e-05
1.40478e-05
1.40478e-05
1.40478e-05
1.40478e-05
1.40478e-05
1.40478e-05
1.40478e-05
1.40478e-05
1.40478e-05
1.40478e-05
1.40478e-05
1.40478e-05
1.40478e-05
1.40478e-05
1.40478e-05
1.40478e-05
1.40478e-05
1.40478e-05
1.40478e-05
1.40478e-05
1.40478e-05
1.40478e-05
1.40478e-05
1.40478e-05
1.40478e-05
1.40478e-05
1.40478e-05
1.40478e-05
1.40478e-05
1.40478e-05
1.40478e-05
1.40478e-05
1.40478e-05
1.40478e-05
1.40478e-05
1.40478e-05
1.40478e-05
1.40478e-05
1.40478e-05
1.40478e-05
1.40478e-05
1.40478e-05
1.40478e-05
1.40478e-05
1.40478e-05
1.40478e-05
1.40478e-05
1.40478e-05
1.40478e-05
1.40478e-05
1.40478e-05
1.40478e-05
1.40478e-05
1.40478e-05
1.40478e-05
1.40478e-05
1.40478e-05
1.40478e-05
1.40478e-05
1.40478e-05
1.40478e-05
1.40478e-05
1.40478e-05
1.40478e-05
1.40478e-05
1.40478e-05
1.40478e-05
1.40478e-05
1.40478e-05
1.40478e-05
1.40478e-05
1.40478e-05
1.40478e-05
1.40478e-05
1.40478e-05
1.40478e-05
1.40478e-05
1.40478e-05
1.40478e-05
1.40478e-05
1.40478e-05
1.40478e-05
1.40478e-05
1.40478e-05
1.40478e-05
1.40478e-05
1.40478e-05
1.40478e-05
1.40478e-05
1.40478e-05
1.40478e-05
1.40478e-05
1.40478e-05
1.40478e-05
1.40478e-05
1.40478e-05
1.40478e-05
1.40478e-05
1.40478e-05
1.40478e-05
1.40478e-05
1.40478e-05
1.40478e-05
1.40478e-05
1.40478e-05
1.40478e-05
1.40478e-05
1.40478e-05
1.40478e-05
1.40478e-05
1.40478e-05
1.40478e-05
1.40478e-05
1.40478e-05
1.40478e-05
1.40478e-05
1.40478e-05
1.40478e-05
1.40478e-05
1.40478e-05
1.40478e-05
1.40478e-05
1.40478e-05
1.40478e-05
1.40478e-05
1.40478e-05
1.40478e-05
1.40478e-05
1.40478e-05
1.40478e-05
1.40478e-05
1.40478e-05
1.40478e-05
1.40478e-05
1.40478e-05
1.40478e-05
1.40478e-05
1.40478e-05
1.40478e-05
1.40478e-05
1.40478e-05
1.40478e-05
1.40478e-05
1.40478e-05
1.40478e-05
1.40478e-05
1.40478e-05
1.40478e-05
1.40478e-05
1.40478e-05
1.40478e-05
1.40478e-05
1.40478e-05
1.40478e-05
1.40478e-05
1.40478e-05
1.40478e-05
1.40478e-05
1.40478e-05
1.40478e-05
1.40478e-05
1.40478e-05
1.40478e-05
1.40478e-05
1.40478e-05
1.40478e-05
1.40478e-05
1.40478e-05
1.40478e-05
1.40478e-05
1.40478e-05
1.40478e-05
1.40478e-05
1.40478e-05
1.40478e-05
1.40478e-05
1.40478e-05
1.40478e-05
1.40478e-05
1.40478e-05
1.40478e-05
1.40478e-05
1.40478e-05
1.40478e-05
1.40478e-05
1.40478e-05
1.40478e-05
1.40478e-05
1.40478e-05
1.40478e-05
1.40478e-05
1.40478e-05
1.40478e-05
1.40478e-05
1.40478e-05
1.40478e-05
1.40478e-05
1.40478e-05
1.40478e-05
1.40478e-05
1.40478e-05
1.40478e-05
1.40478e-05
1.40478e-05
1.40478e-05
1.40478e-05
1.40478e-05
1.40478e-05
1.40478e-05
1.40478e-05
1.40478e-05
1.40478e-05
1.40478e-05
1.40478e-05
1.40478e-05
1.40478e-05
1.40478e-05
1.40478e-05
1.40478e-05
1.40478e-05
1.40478e-05
1.40478e-05
1.40478e-05
1.40478e-05
1.40478e-05
1.40478e-05
1.40478e-05
1.40478e-05
1.40478e-05
1.40478e-05
1.40478e-05
1.40478e-05
1.40478e-05
1.40478e-05
1.40478e-05
1.40478e-05
1.40478e-05
1.40478e-05
1.40478e-05
1.40478e-05
1.40478e-05
1.40478e-05
1.40478e-05
1.40478e-05
1.40478e-05
1.40478e-05
1.40478e-05
1.40478e-05
1.40478e-05
1.40478e-05
1.40478e-05
1.40478e-05
1.40479e-05
1.40479e-05
1.4048e-05
1.40478e-05
1.40478e-05
1.40478e-05
1.40478e-05
1.40478e-05
1.40478e-05
1.40478e-05
1.40478e-05
1.40478e-05
1.40478e-05
1.40478e-05
1.40478e-05
1.40478e-05
1.40478e-05
1.40478e-05
1.40478e-05
1.40478e-05
1.40478e-05
1.40478e-05
1.40478e-05
1.40478e-05
1.40478e-05
1.40478e-05
1.40478e-05
1.40478e-05
1.40478e-05
1.40478e-05
1.40478e-05
1.40478e-05
1.40478e-05
1.40478e-05
1.40478e-05
1.40478e-05
1.40478e-05
1.40478e-05
1.40478e-05
1.40478e-05
1.40478e-05
1.40478e-05
1.40478e-05
1.40478e-05
1.40478e-05
1.40478e-05
1.40478e-05
1.40479e-05
1.40479e-05
1.4048e-05
1.40481e-05
1.40482e-05
1.40485e-05
1.40478e-05
1.40478e-05
1.40478e-05
1.40478e-05
1.40478e-05
1.40478e-05
1.40478e-05
1.40478e-05
1.40478e-05
1.40478e-05
1.40478e-05
1.40478e-05
1.40478e-05
1.40478e-05
1.40478e-05
1.40478e-05
1.40478e-05
1.40478e-05
1.40478e-05
1.40478e-05
1.40478e-05
1.40478e-05
1.40478e-05
1.40478e-05
1.40478e-05
1.40478e-05
1.40478e-05
1.40478e-05
1.40478e-05
1.40478e-05
1.40478e-05
1.40478e-05
1.40478e-05
1.40478e-05
1.40478e-05
1.40478e-05
1.40478e-05
1.40478e-05
1.40478e-05
1.40478e-05
1.40478e-05
1.40479e-05
1.40479e-05
1.4048e-05
1.40481e-05
1.40482e-05
1.40485e-05
1.40488e-05
1.40494e-05
1.40503e-05
1.40478e-05
1.40478e-05
1.40478e-05
1.40478e-05
1.40478e-05
1.40478e-05
1.40478e-05
1.40478e-05
1.40478e-05
1.40478e-05
1.40478e-05
1.40478e-05
1.40478e-05
1.40478e-05
1.40478e-05
1.40478e-05
1.40478e-05
1.40478e-05
1.40478e-05
1.40478e-05
1.40478e-05
1.40478e-05
1.40478e-05
1.40478e-05
1.40478e-05
1.40478e-05
1.40478e-05
1.40478e-05
1.40478e-05
1.40478e-05
1.40478e-05
1.40478e-05
1.40478e-05
1.40478e-05
1.40478e-05
1.40478e-05
1.40478e-05
1.40478e-05
1.40479e-05
1.40479e-05
1.4048e-05
1.40481e-05
1.40483e-05
1.40485e-05
1.40488e-05
1.40494e-05
1.40502e-05
1.40515e-05
1.40534e-05
1.40565e-05
1.40478e-05
1.40478e-05
1.40478e-05
1.40478e-05
1.40478e-05
1.40478e-05
1.40478e-05
1.40478e-05
1.40478e-05
1.40478e-05
1.40478e-05
1.40478e-05
1.40478e-05
1.40478e-05
1.40478e-05
1.40478e-05
1.40478e-05
1.40478e-05
1.40478e-05
1.40478e-05
1.40478e-05
1.40478e-05
1.40478e-05
1.40478e-05
1.40478e-05
1.40478e-05
1.40478e-05
1.40478e-05
1.40478e-05
1.40478e-05
1.40478e-05
1.40478e-05
1.40478e-05
1.40478e-05
1.40479e-05
1.40479e-05
1.40479e-05
1.4048e-05
1.40481e-05
1.40483e-05
1.40485e-05
1.40489e-05
1.40494e-05
1.40503e-05
1.40515e-05
1.40534e-05
1.40563e-05
1.40607e-05
1.40675e-05
1.40782e-05
1.40478e-05
1.40478e-05
1.40478e-05
1.40478e-05
1.40478e-05
1.40478e-05
1.40478e-05
1.40478e-05
1.40478e-05
1.40478e-05
1.40478e-05
1.40478e-05
1.40478e-05
1.40478e-05
1.40478e-05
1.40478e-05
1.40478e-05
1.40478e-05
1.40478e-05
1.40478e-05
1.40478e-05
1.40478e-05
1.40478e-05
1.40478e-05
1.40478e-05
1.40478e-05
1.40478e-05
1.40478e-05
1.40478e-05
1.40478e-05
1.40478e-05
1.40479e-05
1.40479e-05
1.4048e-05
1.4048e-05
1.40482e-05
1.40483e-05
1.40486e-05
1.4049e-05
1.40495e-05
1.40504e-05
1.40517e-05
1.40536e-05
1.40565e-05
1.40608e-05
1.40674e-05
1.40773e-05
1.40922e-05
1.41152e-05
1.41511e-05
1.40478e-05
1.40478e-05
1.40478e-05
1.40478e-05
1.40478e-05
1.40478e-05
1.40478e-05
1.40478e-05
1.40478e-05
1.40478e-05
1.40478e-05
1.40478e-05
1.40478e-05
1.40478e-05
1.40478e-05
1.40478e-05
1.40478e-05
1.40478e-05
1.40478e-05
1.40478e-05
1.40478e-05
1.40478e-05
1.40478e-05
1.40478e-05
1.40478e-05
1.40478e-05
1.40478e-05
1.40479e-05
1.40479e-05
1.40479e-05
1.4048e-05
1.40481e-05
1.40482e-05
1.40484e-05
1.40487e-05
1.40491e-05
1.40497e-05
1.40506e-05
1.40519e-05
1.40539e-05
1.40569e-05
1.40613e-05
1.40678e-05
1.40776e-05
1.40923e-05
1.41144e-05
1.41474e-05
1.41972e-05
1.42725e-05
1.43882e-05
1.40478e-05
1.40478e-05
1.40478e-05
1.40478e-05
1.40478e-05
1.40478e-05
1.40478e-05
1.40478e-05
1.40478e-05
1.40478e-05
1.40478e-05
1.40478e-05
1.40478e-05
1.40478e-05
1.40478e-05
1.40478e-05
1.40478e-05
1.40478e-05
1.40478e-05
1.40478e-05
1.40478e-05
1.40478e-05
1.40478e-05
1.40478e-05
1.40479e-05
1.40479e-05
1.40479e-05
1.4048e-05
1.40481e-05
1.40483e-05
1.40485e-05
1.40488e-05
1.40492e-05
1.40499e-05
1.40508e-05
1.40523e-05
1.40543e-05
1.40574e-05
1.4062e-05
1.40687e-05
1.40786e-05
1.40934e-05
1.41153e-05
1.41479e-05
1.41963e-05
1.42683e-05
1.43749e-05
1.45328e-05
1.4766e-05
1.51116e-05
1.40478e-05
1.40478e-05
1.40478e-05
1.40478e-05
1.40478e-05
1.40478e-05
1.40478e-05
1.40478e-05
1.40478e-05
1.40478e-05
1.40478e-05
1.40478e-05
1.40478e-05
1.40478e-05
1.40478e-05
1.40478e-05
1.40478e-05
1.40478e-05
1.40478e-05
1.40478e-05
1.40479e-05
1.40479e-05
1.40479e-05
1.4048e-05
1.40481e-05
1.40482e-05
1.40483e-05
1.40486e-05
1.40489e-05
1.40494e-05
1.40501e-05
1.40512e-05
1.40527e-05
1.4055e-05
1.40582e-05
1.4063e-05
1.407e-05
1.40803e-05
1.40954e-05
1.41176e-05
1.41504e-05
1.41986e-05
1.42696e-05
1.43738e-05
1.45264e-05
1.47481e-05
1.50678e-05
1.55227e-05
1.61607e-05
1.70394e-05
1.40478e-05
1.40478e-05
1.40478e-05
1.40478e-05
1.40478e-05
1.40478e-05
1.40478e-05
1.40478e-05
1.40478e-05
1.40478e-05
1.40478e-05
1.40478e-05
1.40478e-05
1.40478e-05
1.40478e-05
1.40478e-05
1.40478e-05
1.40479e-05
1.40479e-05
1.40479e-05
1.4048e-05
1.40481e-05
1.40482e-05
1.40484e-05
1.40487e-05
1.40491e-05
1.40497e-05
1.40505e-05
1.40516e-05
1.40533e-05
1.40558e-05
1.40593e-05
1.40644e-05
1.40718e-05
1.40826e-05
1.40984e-05
1.41214e-05
1.41549e-05
1.42039e-05
1.42752e-05
1.43791e-05
1.45298e-05
1.47469e-05
1.50571e-05
1.54943e-05
1.60999e-05
1.69195e-05
1.79985e-05
1.93765e-05
2.10769e-05
1.40478e-05
1.40478e-05
1.40478e-05
1.40478e-05
1.40478e-05
1.40478e-05
1.40478e-05
1.40478e-05
1.40478e-05
1.40478e-05
1.40478e-05
1.40478e-05
1.40478e-05
1.40479e-05
1.40479e-05
1.40479e-05
1.4048e-05
1.40481e-05
1.40482e-05
1.40483e-05
1.40486e-05
1.40489e-05
1.40493e-05
1.405e-05
1.40509e-05
1.40522e-05
1.40541e-05
1.40568e-05
1.40607e-05
1.40663e-05
1.40743e-05
1.40859e-05
1.41026e-05
1.41268e-05
1.41617e-05
1.42123e-05
1.42853e-05
1.43907e-05
1.45422e-05
1.47586e-05
1.5065e-05
1.54936e-05
1.60826e-05
1.68745e-05
1.79104e-05
1.9223e-05
2.083e-05
2.27288e-05
2.48982e-05
2.72947e-05
1.40478e-05
1.40478e-05
1.40478e-05
1.40478e-05
1.40478e-05
1.40478e-05
1.40478e-05
1.40478e-05
1.40478e-05
1.40479e-05
1.40479e-05
1.40479e-05
1.4048e-05
1.4048e-05
1.40481e-05
1.40483e-05
1.40485e-05
1.40487e-05
1.40491e-05
1.40497e-05
1.40504e-05
1.40515e-05
1.4053e-05
1.40552e-05
1.40582e-05
1.40625e-05
1.40687e-05
1.40776e-05
1.40902e-05
1.41082e-05
1.41341e-05
1.41712e-05
1.42243e-05
1.43005e-05
1.44092e-05
1.45641e-05
1.47834e-05
1.50911e-05
1.55177e-05
1.60995e-05
1.68759e-05
1.78854e-05
1.91589e-05
2.07126e-05
2.25437e-05
2.46285e-05
2.69261e-05
2.93843e-05
3.19489e-05
3.45547e-05
1.40478e-05
1.40478e-05
1.40478e-05
1.40478e-05
1.40478e-05
1.40479e-05
1.40479e-05
1.40479e-05
1.4048e-05
1.4048e-05
1.40481e-05
1.40482e-05
1.40484e-05
1.40487e-05
1.4049e-05
1.40494e-05
1.40501e-05
1.4051e-05
1.40523e-05
1.4054e-05
1.40565e-05
1.406e-05
1.4065e-05
1.40719e-05
1.40818e-05
1.40958e-05
1.41157e-05
1.41438e-05
1.41839e-05
1.42407e-05
1.43214e-05
1.44356e-05
1.45966e-05
1.48225e-05
1.51364e-05
1.55676e-05
1.61502e-05
1.69215e-05
1.7917e-05
1.91655e-05
2.06821e-05
2.24647e-05
2.4492e-05
2.67262e-05
2.91173e-05
3.16097e-05
3.41433e-05
3.66577e-05
3.91005e-05
4.14299e-05
1.40478e-05
1.40479e-05
1.40479e-05
1.40479e-05
1.4048e-05
1.4048e-05
1.40481e-05
1.40482e-05
1.40484e-05
1.40486e-05
1.40489e-05
1.40493e-05
1.40499e-05
1.40507e-05
1.40518e-05
1.40533e-05
1.40554e-05
1.40583e-05
1.40624e-05
1.40681e-05
1.40761e-05
1.40874e-05
1.41032e-05
1.41254e-05
1.41566e-05
1.42005e-05
1.42624e-05
1.43493e-05
1.44712e-05
1.46414e-05
1.48777e-05
1.52029e-05
1.56451e-05
1.62367e-05
1.70125e-05
1.80055e-05
1.92415e-05
2.07342e-05
2.24812e-05
2.4463e-05
2.66447e-05
2.89807e-05
3.14193e-05
3.39057e-05
3.63816e-05
3.8793e-05
4.10906e-05
4.32227e-05
4.51268e-05
4.67643e-05
1.40479e-05
1.4048e-05
1.4048e-05
1.40481e-05
1.40482e-05
1.40484e-05
1.40486e-05
1.40489e-05
1.40492e-05
1.40498e-05
1.40505e-05
1.40514e-05
1.40528e-05
1.40546e-05
1.40572e-05
1.40607e-05
1.40655e-05
1.40723e-05
1.40816e-05
1.40947e-05
1.41128e-05
1.4138e-05
1.41732e-05
1.42223e-05
1.42907e-05
1.43859e-05
1.45181e-05
1.47008e-05
1.49519e-05
1.52938e-05
1.57536e-05
1.63622e-05
1.7152e-05
1.81531e-05
1.93883e-05
2.08691e-05
2.25922e-05
2.4539e-05
2.66769e-05
2.8964e-05
3.13522e-05
3.37921e-05
3.62305e-05
3.86156e-05
4.09014e-05
4.30415e-05
4.49807e-05
4.66614e-05
4.80451e-05
4.91223e-05
4.99377e-05
1.40482e-05
1.40484e-05
1.40486e-05
1.40489e-05
1.40492e-05
1.40497e-05
1.40504e-05
1.40513e-05
1.40525e-05
1.40542e-05
1.40565e-05
1.40596e-05
1.40639e-05
1.40698e-05
1.40778e-05
1.40889e-05
1.41042e-05
1.41254e-05
1.41545e-05
1.41948e-05
1.42505e-05
1.43274e-05
1.44333e-05
1.4579e-05
1.47782e-05
1.50489e-05
1.54133e-05
1.58978e-05
1.65316e-05
1.73447e-05
1.8364e-05
1.96093e-05
2.10893e-05
2.27991e-05
2.47204e-05
2.68226e-05
2.90664e-05
3.14077e-05
3.38009e-05
3.61985e-05
3.85516e-05
4.08169e-05
4.29531e-05
4.49132e-05
4.66433e-05
4.80981e-05
4.92583e-05
5.01373e-05
5.07747e-05
5.12159e-05
5.15221e-05
1.40489e-05
1.40492e-05
1.40497e-05
1.40504e-05
1.40512e-05
1.40524e-05
1.4054e-05
1.40561e-05
1.4059e-05
1.40629e-05
1.40682e-05
1.40754e-05
1.40852e-05
1.40986e-05
1.41169e-05
1.4142e-05
1.41762e-05
1.42231e-05
1.42873e-05
1.4375e-05
1.44948e-05
1.46576e-05
1.48779e-05
1.51738e-05
1.55673e-05
1.6084e-05
1.67515e-05
1.75971e-05
1.86444e-05
1.99097e-05
2.13986e-05
2.31046e-05
2.50087e-05
2.70821e-05
2.92879e-05
3.15852e-05
3.39323e-05
3.62864e-05
3.86026e-05
4.08397e-05
4.29603e-05
4.49243e-05
4.66834e-05
4.81911e-05
4.942e-05
5.03717e-05
5.1075e-05
5.15719e-05
5.19095e-05
5.21322e-05
5.22728e-05
5.23645e-05
1.40513e-05
1.40525e-05
1.4054e-05
1.40561e-05
1.40588e-05
1.40625e-05
1.40674e-05
1.40741e-05
1.40831e-05
1.40952e-05
1.41117e-05
1.41339e-05
1.4164e-05
1.42049e-05
1.42603e-05
1.43354e-05
1.44371e-05
1.45743e-05
1.47589e-05
1.50058e-05
1.53333e-05
1.57633e-05
1.63204e-05
1.70303e-05
1.79175e-05
1.90021e-05
2.02964e-05
2.18029e-05
2.35129e-05
2.54071e-05
2.74575e-05
2.96296e-05
3.18857e-05
3.41874e-05
3.64961e-05
3.87712e-05
4.09737e-05
4.30692e-05
4.50229e-05
4.67926e-05
4.83337e-05
4.96142e-05
5.06262e-05
5.13888e-05
5.19381e-05
5.23173e-05
5.25702e-05
5.27312e-05
5.28285e-05
5.28849e-05
5.29084e-05
5.29167e-05
1.4059e-05
1.40626e-05
1.40674e-05
1.40738e-05
1.40823e-05
1.40937e-05
1.41089e-05
1.41294e-05
1.41568e-05
1.41936e-05
1.42431e-05
1.43096e-05
1.43988e-05
1.45182e-05
1.46777e-05
1.48897e-05
1.51697e-05
1.55363e-05
1.60111e-05
1.66174e-05
1.73788e-05
1.83165e-05
1.94467e-05
2.07779e-05
2.23092e-05
2.40296e-05
2.59193e-05
2.79511e-05
3.00929e-05
3.23097e-05
3.45664e-05
3.68281e-05
3.90583e-05
4.12206e-05
4.32833e-05
4.52153e-05
4.69803e-05
4.85371e-05
4.98518e-05
5.09098e-05
5.17218e-05
5.23176e-05
5.27358e-05
5.3018e-05
5.32004e-05
5.33113e-05
5.33761e-05
5.34061e-05
5.34067e-05
5.34029e-05
5.33935e-05
5.33685e-05
1.40827e-05
1.40937e-05
1.41084e-05
1.41278e-05
1.41536e-05
1.4188e-05
1.42336e-05
1.42944e-05
1.43753e-05
1.44826e-05
1.46247e-05
1.48124e-05
1.50587e-05
1.53797e-05
1.57941e-05
1.63229e-05
1.69877e-05
1.78096e-05
1.88062e-05
1.99896e-05
2.13641e-05
2.29256e-05
2.46609e-05
2.65498e-05
2.85661e-05
3.06796e-05
3.28582e-05
3.50698e-05
3.72828e-05
3.94647e-05
4.1582e-05
4.36049e-05
4.55058e-05
4.72534e-05
4.88104e-05
5.01428e-05
5.1232e-05
5.20818e-05
5.27161e-05
5.31685e-05
5.34778e-05
5.36811e-05
5.38054e-05
5.38776e-05
5.39137e-05
5.39172e-05
5.39087e-05
5.38965e-05
5.38713e-05
5.383e-05
5.37797e-05
5.37232e-05
1.41541e-05
1.41872e-05
1.42308e-05
1.42883e-05
1.4364e-05
1.44635e-05
1.45943e-05
1.47655e-05
1.49886e-05
1.52776e-05
1.56488e-05
1.61209e-05
1.67136e-05
1.74467e-05
1.83379e-05
1.94009e-05
2.06434e-05
2.2066e-05
2.3661e-05
2.54138e-05
2.73038e-05
2.93057e-05
3.13916e-05
3.3532e-05
3.56977e-05
3.78603e-05
3.99906e-05
4.20581e-05
4.40352e-05
4.5897e-05
4.76162e-05
4.91595e-05
5.04945e-05
5.16006e-05
5.24765e-05
5.31396e-05
5.36199e-05
5.39529e-05
5.41744e-05
5.43116e-05
5.43912e-05
5.44329e-05
5.44395e-05
5.44278e-05
5.44112e-05
5.4387e-05
5.43461e-05
5.42943e-05
5.42361e-05
5.41708e-05
5.41046e-05
5.40401e-05
1.43635e-05
1.44589e-05
1.4583e-05
1.47441e-05
1.49523e-05
1.52199e-05
1.55616e-05
1.59938e-05
1.65343e-05
1.72015e-05
1.80121e-05
1.89805e-05
2.01159e-05
2.14219e-05
2.28949e-05
2.45247e-05
2.62953e-05
2.81861e-05
3.01732e-05
3.22307e-05
3.43317e-05
3.64499e-05
3.85597e-05
4.06352e-05
4.26484e-05
4.45741e-05
4.63898e-05
4.80713e-05
4.95891e-05
5.09132e-05
5.20222e-05
5.29113e-05
5.35934e-05
5.40947e-05
5.44467e-05
5.46826e-05
5.48314e-05
5.49179e-05
5.4963e-05
5.49728e-05
5.49607e-05
5.49394e-05
5.49126e-05
5.48734e-05
5.48209e-05
5.4761e-05
5.46937e-05
5.4623e-05
5.45521e-05
5.44825e-05
5.44142e-05
5.43471e-05
1.49458e-05
1.5201e-05
1.55241e-05
1.59302e-05
1.64351e-05
1.70556e-05
1.78074e-05
1.87042e-05
1.9756e-05
2.09678e-05
2.23388e-05
2.38621e-05
2.55255e-05
2.7312e-05
2.92015e-05
3.11715e-05
3.31984e-05
3.52577e-05
3.73259e-05
3.93801e-05
4.13971e-05
4.33517e-05
4.52207e-05
4.69838e-05
4.86194e-05
5.01017e-05
5.14028e-05
5.25017e-05
5.33918e-05
5.40827e-05
5.45963e-05
5.49612e-05
5.52086e-05
5.53666e-05
5.54585e-05
5.55055e-05
5.55183e-05
5.55059e-05
5.54797e-05
5.54486e-05
5.54105e-05
5.53569e-05
5.52949e-05
5.52273e-05
5.51533e-05
5.50782e-05
5.50037e-05
5.49301e-05
5.48568e-05
5.47842e-05
5.47129e-05
5.46426e-05
1.69978e-05
1.77094e-05
1.8555e-05
1.95445e-05
2.06834e-05
2.19725e-05
2.34072e-05
2.4978e-05
2.6671e-05
2.84692e-05
3.03532e-05
3.23023e-05
3.4295e-05
3.63093e-05
3.83243e-05
4.03195e-05
4.22742e-05
4.41655e-05
4.59727e-05
4.76772e-05
4.92598e-05
5.06975e-05
5.19649e-05
5.30422e-05
5.39218e-05
5.46111e-05
5.51284e-05
5.54997e-05
5.57542e-05
5.59177e-05
5.60135e-05
5.60624e-05
5.60759e-05
5.60626e-05
5.60334e-05
5.59977e-05
5.5957e-05
5.59028e-05
5.58388e-05
5.57695e-05
5.56933e-05
5.56142e-05
5.55354e-05
5.54573e-05
5.53797e-05
5.53025e-05
5.52261e-05
5.515e-05
5.50741e-05
5.49991e-05
5.49249e-05
2.05549e-05
2.17812e-05
2.31451e-05
2.4639e-05
2.62513e-05
2.79675e-05
2.9771e-05
3.16436e-05
3.35665e-05
3.55202e-05
3.74852e-05
3.94429e-05
4.13753e-05
4.32635e-05
4.50871e-05
4.68273e-05
4.84674e-05
4.99904e-05
5.13754e-05
5.25996e-05
5.36448e-05
5.45034e-05
5.5181e-05
5.56936e-05
5.60649e-05
5.63212e-05