/*--------------------------------*- C++ -*----------------------------------*\
| =========                 |                                                 |
| \\      /  F ield         | OpenFOAM: The Open Source CFD Toolbox           |
|  \\    /   O peration     | Version:  v1706                                 |
|   \\  /    A nd           | Web:      www.OpenFOAM.com                      |
|    \\/     M anipulation  |                                                 |
\*---------------------------------------------------------------------------*/
FoamFile
{
    version     2.0;
    format      ascii;
    class       volScalarField;
    location    "3.3e-05";
    object      kappatr;
}
// * * * * * * * * * * * * * * * * * * * * * * * * * * * * * * * * * * * * * //

dimensions      [1 1 -3 -1 0 0 0];


internalField   nonuniform List<scalar> 
30038
(
0.014593
0.014593
0.014593
0.014593
0.014593
0.014593
0.014593
0.014593
0.014593
0.014593
0.014593
0.014593
0.014593
0.014593
0.014593
0.014593
0.014593
0.014593
0.014593
0.014593
0.014593
0.014593
0.014593
0.014593
0.014593
0.014593
0.014593
0.014593
0.014593
0.014593
0.014593
0.014593
0.014593
0.014593
0.014593
0.014593
0.014593
0.014593
0.014593
0.014593
0.014593
0.014593
0.014593
0.014593
0.014593
0.014593
0.014593
0.014593
0.014593
0.014593
0.014593
0.014593
0.014593
0.014593
0.014593
0.014593
0.014593
0.014593
0.014593
0.014593
0.014593
0.014593
0.014593
0.014593
0.014593
0.014593
0.014593
0.014593
0.014593
0.014593
0.014593
0.014593
0.014593
0.014593
0.014593
0.014593
0.014593
0.014593
0.014593
0.014593
0.014593
0.014593
0.014593
0.014593
0.014593
0.014593
0.014593
0.014593
0.014593
0.014593
0.014593
0.014593
0.014593
0.014593
0.014593
0.014593
0.014593
0.014593
0.014593
0.014593
0.014593
0.014593
0.014593
0.014593
0.014593
0.014593
0.014593
0.014593
0.014593
0.014593
0.014593
0.014593
0.014593
0.014593
0.014593
0.014593
0.014593
0.014593
0.014593
0.014593
0.014593
0.014593
0.014593
0.014593
0.014593
0.014593
0.014593
0.014593
0.014593
0.014593
0.014593
0.014593
0.014593
0.014593
0.014593
0.014593
0.014593
0.014593
0.014593
0.014593
0.014593
0.014593
0.014593
0.014593
0.014593
0.014593
0.014593
0.014593
0.014593
0.014593
0.014593
0.014593
0.014593
0.014593
0.014593
0.014593
0.014593
0.014593
0.014593
0.014593
0.014593
0.014593
0.014593
0.014593
0.014593
0.014593
0.014593
0.014593
0.014593
0.014593
0.014593
0.014593
0.014593
0.014593
0.014593
0.014593
0.014593
0.014593
0.014593
0.014593
0.014593
0.014593
0.014593
0.014593
0.014593
0.014593
0.014593
0.014593
0.014593
0.014593
0.014593
0.014593
0.014593
0.014593
0.014593
0.014593
0.014593
0.014593
0.014593
0.014593
0.014593
0.014593
0.014593
0.014593
0.014593
0.014593
0.014593
0.014593
0.014593
0.014593
0.014593
0.014593
0.014593
0.014593
0.014593
0.014593
0.014593
0.014593
0.014593
0.014593
0.014593
0.014593
0.014593
0.014593
0.014593
0.014593
0.014593
0.014593
0.014593
0.014593
0.014593
0.014593
0.014593
0.014593
0.014593
0.014593
0.014593
0.014593
0.014593
0.014593
0.014593
0.014593
0.014593
0.014593
0.014593
0.014593
0.014593
0.014593
0.014593
0.014593
0.014593
0.014593
0.014593
0.014593
0.014593
0.014593
0.014593
0.014593
0.014593
0.014593
0.014593
0.014593
0.014593
0.014593
0.014593
0.014593
0.014593
0.014593
0.014593
0.014593
0.014593
0.014593
0.014593
0.014593
0.014593
0.014593
0.014593
0.014593
0.014593
0.014593
0.014593
0.014593
0.014593
0.014593
0.014593
0.014593
0.014593
0.014593
0.014593
0.014593
0.014593
0.014593
0.014593
0.014593
0.014593
0.014593
0.014593
0.014593
0.014593
0.014593
0.014593
0.014593
0.014593
0.014593
0.014593
0.014593
0.014593
0.014593
0.014593
0.014593
0.014593
0.014593
0.014593
0.014593
0.014593
0.014593
0.014593
0.014593
0.014593
0.014593
0.014593
0.014593
0.014593
0.014593
0.014593
0.014593
0.014593
0.014593
0.014593
0.014593
0.014593
0.014593
0.014593
0.014593
0.014593
0.014593
0.014593
0.014593
0.014593
0.014593
0.014593
0.014593
0.014593
0.014593
0.014593
0.014593
0.014593
0.014593
0.014593
0.014593
0.014593
0.014593
0.014593
0.014593
0.014593
0.014593
0.014593
0.014593
0.014593
0.014593
0.014593
0.014593
0.014593
0.014593
0.014593
0.014593
0.014593
0.014593
0.014593
0.014593
0.014593
0.014593
0.014593
0.014593
0.014593
0.014593
0.014593
0.014593
0.014593
0.014593
0.014593
0.014593
0.014593
0.014593
0.014593
0.014593
0.014593
0.014593
0.014593
0.014593
0.014593
0.014593
0.014593
0.014593
0.014593
0.014593
0.014593
0.014593
0.014593
0.014593
0.014593
0.014593
0.014593
0.014593
0.014593
0.014593
0.014593
0.014593
0.014593
0.014593
0.014593
0.014593
0.014593
0.014593
0.014593
0.014593
0.014593
0.014593
0.014593
0.014593
0.014593
0.014593
0.014593
0.014593
0.014593
0.014593
0.014593
0.014593
0.014593
0.014593
0.014593
0.014593
0.014593
0.014593
0.014593
0.014593
0.014593
0.014593
0.014593
0.014593
0.014593
0.014593
0.014593
0.014593
0.014593
0.014593
0.014593
0.014593
0.014593
0.014593
0.014593
0.014593
0.014593
0.014593
0.014593
0.014593
0.014593
0.014593
0.014593
0.014593
0.014593
0.014593
0.014593
0.014593
0.014593
0.014593
0.014593
0.014593
0.014593
0.014593
0.014593
0.014593
0.014593
0.014593
0.014593
0.014593
0.014593
0.014593
0.014593
0.014593
0.014593
0.014593
0.014593
0.014593
0.014593
0.014593
0.014593
0.014593
0.014593
0.014593
0.014593
0.014593
0.014593
0.014593
0.014593
0.014593
0.014593
0.014593
0.014593
0.014593
0.014593
0.014593
0.014593
0.014593
0.014593
0.014593
0.014593
0.014593
0.014593
0.014593
0.014593
0.014593
0.014593
0.014593
0.014593
0.014593
0.014593
0.014593
0.014593
0.014593
0.014593
0.014593
0.014593
0.014593
0.014593
0.014593
0.014593
0.014593
0.014593
0.014593
0.014593
0.014593
0.014593
0.014593
0.014593
0.014593
0.014593
0.014593
0.014593
0.014593
0.014593
0.014593
0.014593
0.014593
0.014593
0.014593
0.014593
0.014593
0.014593
0.014593
0.014593
0.014593
0.014593
0.014593
0.014593
0.014593
0.014593
0.014593
0.014593
0.014593
0.014593
0.014593
0.014593
0.014593
0.014593
0.014593
0.014593
0.014593
0.014593
0.014593
0.014593
0.014593
0.014593
0.014593
0.014593
0.014593
0.014593
0.014593
0.014593
0.014593
0.014593
0.014593
0.014593
0.014593
0.014593
0.014593
0.014593
0.014593
0.014593
0.014593
0.014593
0.014593
0.014593
0.014593
0.014593
0.014593
0.014593
0.014593
0.014593
0.014593
0.014593
0.014593
0.014593
0.014593
0.014593
0.014593
0.014593
0.014593
0.014593
0.014593
0.014593
0.014593
0.014593
0.014593
0.014593
0.014593
0.014593
0.014593
0.014593
0.014593
0.014593
0.014593
0.014593
0.014593
0.014593
0.014593
0.014593
0.014593
0.014593
0.014593
0.014593
0.014593
0.014593
0.014593
0.014593
0.014593
0.014593
0.014593
0.014593
0.014593
0.014593
0.014593
0.014593
0.014593
0.014593
0.014593
0.014593
0.014593
0.014593
0.014593
0.014593
0.014593
0.014593
0.014593
0.014593
0.014593
0.014593
0.014593
0.014593
0.014593
0.014593
0.014593
0.014593
0.014593
0.014593
0.014593
0.014593
0.014593
0.014593
0.014593
0.014593
0.014593
0.014593
0.014593
0.014593
0.014593
0.014593
0.014593
0.014593
0.014593
0.014593
0.014593
0.014593
0.014593
0.014593
0.014593
0.014593
0.014593
0.014593
0.014593
0.014593
0.014593
0.014593
0.014593
0.014593
0.014593
0.014593
0.014593
0.014593
0.014593
0.014593
0.014593
0.014593
0.014593
0.014593
0.014593
0.014593
0.014593
0.014593
0.014593
0.014593
0.014593
0.014593
0.014593
0.014593
0.014593
0.014593
0.014593
0.014593
0.014593
0.014593
0.014593
0.014593
0.014593
0.014593
0.014593
0.014593
0.014593
0.014593
0.014593
0.014593
0.014593
0.014593
0.014593
0.014593
0.014593
0.014593
0.014593
0.014593
0.014593
0.014593
0.014593
0.014593
0.014593
0.014593
0.014593
0.014593
0.014593
0.014593
0.014593
0.014593
0.014593
0.014593
0.014593
0.014593
0.014593
0.014593
0.014593
0.014593
0.014593
0.014593
0.014593
0.014593
0.014593
0.014593
0.014593
0.014593
0.014593
0.014593
0.014593
0.014593
0.014593
0.014593
0.014593
0.014593
0.014593
0.014593
0.014593
0.014593
0.014593
0.014593
0.014593
0.014593
0.014593
0.014593
0.014593
0.014593
0.014593
0.014593
0.014593
0.014593
0.014593
0.014593
0.014593
0.014593
0.014593
0.014593
0.014593
0.014593
0.014593
0.014593
0.014593
0.014593
0.014593
0.014593
0.014593
0.014593
0.014593
0.014593
0.014593
0.014593
0.014593
0.014593
0.014593
0.014593
0.014593
0.014593
0.014593
0.014593
0.014593
0.014593
0.014593
0.014593
0.014593
0.014593
0.014593
0.014593
0.014593
0.014593
0.014593
0.014593
0.014593
0.014593
0.014593
0.014593
0.014593
0.014593
0.014593
0.014593
0.014593
0.014593
0.014593
0.014593
0.014593
0.014593
0.014593
0.014593
0.014593
0.014593
0.014593
0.014593
0.014593
0.014593
0.014593
0.014593
0.014593
0.014593
0.014593
0.014593
0.014593
0.014593
0.014593
0.014593
0.014593
0.014593
0.014593
0.014593
0.014593
0.014593
0.014593
0.014593
0.014593
0.014593
0.014593
0.014593
0.014593
0.014593
0.014593
0.014593
0.014593
0.014593
0.014593
0.014593
0.014593
0.014593
0.014593
0.014593
0.014593
0.014593
0.014593
0.014593
0.014593
0.014593
0.014593
0.014593
0.014593
0.014593
0.014593
0.014593
0.014593
0.014593
0.014593
0.014593
0.014593
0.014593
0.014593
0.014593
0.014593
0.014593
0.014593
0.014593
0.014593
0.014593
0.014593
0.014593
0.014593
0.014593
0.014593
0.014593
0.014593
0.014593
0.014593
0.014593
0.014593
0.014593
0.014593
0.014593
0.014593
0.014593
0.014593
0.014593
0.014593
0.014593
0.014593
0.014593
0.014593
0.014593
0.014593
0.014593
0.014593
0.014593
0.014593
0.014593
0.014593
0.014593
0.014593
0.014593
0.014593
0.014593
0.014593
0.014593
0.014593
0.014593
0.014593
0.014593
0.014593
0.014593
0.014593
0.014593
0.014593
0.014593
0.014593
0.014593
0.014593
0.014593
0.014593
0.014593
0.014593
0.014593
0.014593
0.014593
0.014593
0.014593
0.014593
0.014593
0.014593
0.014593
0.014593
0.014593
0.014593
0.014593
0.014593
0.014593
0.014593
0.014593
0.014593
0.014593
0.014593
0.014593
0.014593
0.014593
0.014593
0.014593
0.014593
0.014593
0.014593
0.014593
0.014593
0.014593
0.014593
0.014593
0.014593
0.014593
0.014593
0.014593
0.014593
0.014593
0.014593
0.014593
0.014593
0.014593
0.014593
0.014593
0.014593
0.014593
0.014593
0.014593
0.014593
0.014593
0.014593
0.014593
0.014593
0.014593
0.014593
0.014593
0.014593
0.014593
0.014593
0.014593
0.014593
0.014593
0.014593
0.014593
0.014593
0.014593
0.014593
0.014593
0.014593
0.014593
0.014593
0.014593
0.014593
0.014593
0.014593
0.014593
0.014593
0.014593
0.014593
0.014593
0.014593
0.014593
0.014593
0.014593
0.014593
0.014593
0.014593
0.014593
0.014593
0.014593
0.014593
0.014593
0.014593
0.014593
0.014593
0.014593
0.014593
0.014593
0.014593
0.014593
0.014593
0.014593
0.014593
0.014593
0.014593
0.014593
0.014593
0.014593
0.014593
0.014593
0.014593
0.014593
0.014593
0.014593
0.014593
0.014593
0.014593
0.014593
0.014593
0.014593
0.014593
0.014593
0.014593
0.014593
0.014593
0.014593
0.014593
0.014593
0.014593
0.014593
0.014593
0.014593
0.014593
0.014593
0.014593
0.014593
0.014593
0.014593
0.014593
0.014593
0.014593
0.014593
0.014593
0.014593
0.014593
0.014593
0.014593
0.014593
0.014593
0.014593
0.014593
0.014593
0.014593
0.014593
0.014593
0.014593
0.014593
0.014593
0.014593
0.014593
0.014593
0.014593
0.014593
0.014593
0.014593
0.014593
0.014593
0.014593
0.014593
0.014593
0.014593
0.014593
0.014593
0.014593
0.014593
0.014593
0.014593
0.014593
0.014593
0.014593
0.014593
0.014593
0.014593
0.014593
0.014593
0.014593
0.014593
0.014593
0.014593
0.014593
0.014593
0.014593
0.014593
0.014593
0.014593
0.014593
0.014593
0.014593
0.014593
0.014593
0.014593
0.014593
0.014593
0.014593
0.014593
0.014593
0.014593
0.014593
0.014593
0.014593
0.014593
0.014593
0.014593
0.014593
0.014593
0.014593
0.014593
0.014593
0.014593
0.014593
0.014593
0.014593
0.0145931
0.014593
0.014593
0.014593
0.014593
0.014593
0.014593
0.014593
0.014593
0.014593
0.014593
0.014593
0.014593
0.014593
0.014593
0.014593
0.014593
0.014593
0.014593
0.014593
0.014593
0.014593
0.014593
0.014593
0.014593
0.014593
0.014593
0.014593
0.014593
0.014593
0.014593
0.014593
0.014593
0.014593
0.014593
0.014593
0.014593
0.014593
0.014593
0.014593
0.014593
0.014593
0.014593
0.014593
0.014593
0.014593
0.014593
0.0145931
0.0145931
0.0145931
0.0145932
0.014593
0.014593
0.014593
0.014593
0.014593
0.014593
0.014593
0.014593
0.014593
0.014593
0.014593
0.014593
0.014593
0.014593
0.014593
0.014593
0.014593
0.014593
0.014593
0.014593
0.014593
0.014593
0.014593
0.014593
0.014593
0.014593
0.014593
0.014593
0.014593
0.014593
0.014593
0.014593
0.014593
0.014593
0.014593
0.014593
0.014593
0.014593
0.014593
0.014593
0.014593
0.014593
0.014593
0.0145931
0.0145931
0.0145931
0.0145932
0.0145933
0.0145935
0.0145937
0.014593
0.014593
0.014593
0.014593
0.014593
0.014593
0.014593
0.014593
0.014593
0.014593
0.014593
0.014593
0.014593
0.014593
0.014593
0.014593
0.014593
0.014593
0.014593
0.014593
0.014593
0.014593
0.014593
0.014593
0.014593
0.014593
0.014593
0.014593
0.014593
0.014593
0.014593
0.014593
0.014593
0.014593
0.014593
0.014593
0.014593
0.014593
0.014593
0.014593
0.0145931
0.0145931
0.0145931
0.0145932
0.0145933
0.0145935
0.0145937
0.0145941
0.0145946
0.0145956
0.014593
0.014593
0.014593
0.014593
0.014593
0.014593
0.014593
0.014593
0.014593
0.014593
0.014593
0.014593
0.014593
0.014593
0.014593
0.014593
0.014593
0.014593
0.014593
0.014593
0.014593
0.014593
0.014593
0.014593
0.014593
0.014593
0.014593
0.014593
0.014593
0.014593
0.014593
0.014593
0.014593
0.014593
0.014593
0.014593
0.014593
0.0145931
0.0145931
0.0145931
0.0145932
0.0145933
0.0145935
0.0145937
0.0145941
0.0145947
0.0145955
0.0145968
0.0145989
0.0146021
0.014593
0.014593
0.014593
0.014593
0.014593
0.014593
0.014593
0.014593
0.014593
0.014593
0.014593
0.014593
0.014593
0.014593
0.014593
0.014593
0.014593
0.014593
0.014593
0.014593
0.014593
0.014593
0.014593
0.014593
0.014593
0.014593
0.014593
0.014593
0.014593
0.014593
0.014593
0.014593
0.014593
0.0145931
0.0145931
0.0145931
0.0145932
0.0145932
0.0145934
0.0145935
0.0145938
0.0145942
0.0145947
0.0145956
0.0145969
0.0145989
0.0146019
0.0146064
0.0146135
0.0146246
0.014593
0.014593
0.014593
0.014593
0.014593
0.014593
0.014593
0.014593
0.014593
0.014593
0.014593
0.014593
0.014593
0.014593
0.014593
0.014593
0.014593
0.014593
0.014593
0.014593
0.014593
0.014593
0.014593
0.014593
0.014593
0.014593
0.014593
0.014593
0.014593
0.014593
0.0145931
0.0145931
0.0145931
0.0145932
0.0145933
0.0145934
0.0145936
0.0145938
0.0145942
0.0145948
0.0145957
0.0145971
0.0145991
0.014602
0.0146066
0.0146134
0.0146236
0.0146392
0.014663
0.0147003
0.014593
0.014593
0.014593
0.014593
0.014593
0.014593
0.014593
0.014593
0.014593
0.014593
0.014593
0.014593
0.014593
0.014593
0.014593
0.014593
0.014593
0.014593
0.014593
0.014593
0.014593
0.014593
0.014593
0.014593
0.014593
0.014593
0.0145931
0.0145931
0.0145931
0.0145931
0.0145932
0.0145933
0.0145934
0.0145936
0.0145939
0.0145943
0.014595
0.0145959
0.0145973
0.0145994
0.0146024
0.014607
0.0146138
0.014624
0.0146393
0.0146622
0.0146965
0.0147482
0.0148265
0.0149467
0.014593
0.014593
0.014593
0.014593
0.014593
0.014593
0.014593
0.014593
0.014593
0.014593
0.014593
0.014593
0.014593
0.014593
0.014593
0.014593
0.014593
0.014593
0.014593
0.014593
0.014593
0.014593
0.014593
0.0145931
0.0145931
0.0145931
0.0145932
0.0145932
0.0145933
0.0145935
0.0145937
0.014594
0.0145945
0.0145952
0.0145962
0.0145977
0.0145998
0.014603
0.0146077
0.0146147
0.0146251
0.0146404
0.0146632
0.014697
0.0147473
0.014822
0.0149328
0.0150968
0.0153391
0.0156981
0.014593
0.014593
0.014593
0.014593
0.014593
0.014593
0.014593
0.014593
0.014593
0.014593
0.014593
0.014593
0.014593
0.014593
0.014593
0.014593
0.014593
0.014593
0.014593
0.0145931
0.0145931
0.0145931
0.0145931
0.0145932
0.0145933
0.0145934
0.0145936
0.0145938
0.0145942
0.0145947
0.0145954
0.0145965
0.0145981
0.0146004
0.0146038
0.0146088
0.0146161
0.0146268
0.0146425
0.0146656
0.0146996
0.0147497
0.0148234
0.0149317
0.0150901
0.0153205
0.0156526
0.0161252
0.0167879
0.0177008
0.014593
0.014593
0.014593
0.014593
0.014593
0.014593
0.014593
0.014593
0.014593
0.014593
0.014593
0.014593
0.014593
0.014593
0.014593
0.014593
0.0145931
0.0145931
0.0145931
0.0145932
0.0145932
0.0145933
0.0145935
0.0145937
0.014594
0.0145944
0.014595
0.0145958
0.014597
0.0145988
0.0146013
0.0146049
0.0146103
0.014618
0.0146292
0.0146456
0.0146694
0.0147043
0.0147551
0.0148293
0.0149372
0.0150937
0.0153193
0.0156415
0.0160957
0.0167247
0.0175762
0.0186971
0.0201286
0.0218949
0.014593
0.014593
0.014593
0.014593
0.014593
0.014593
0.014593
0.014593
0.014593
0.014593
0.014593
0.014593
0.0145931
0.0145931
0.0145931
0.0145932
0.0145932
0.0145933
0.0145934
0.0145936
0.0145938
0.0145942
0.0145946
0.0145953
0.0145963
0.0145976
0.0145996
0.0146024
0.0146064
0.0146122
0.0146205
0.0146326
0.0146499
0.014675
0.0147114
0.0147639
0.0148398
0.0149493
0.0151066
0.0153314
0.0156497
0.0160949
0.0167068
0.0175295
0.0186055
0.0199691
0.0216384
0.0236109
0.0258646
0.0283541
0.014593
0.014593
0.014593
0.014593
0.014593
0.014593
0.014593
0.014593
0.0145931
0.0145931
0.0145931
0.0145931
0.0145932
0.0145933
0.0145934
0.0145935
0.0145937
0.014594
0.0145944
0.014595
0.0145957
0.0145969
0.0145984
0.0146007
0.0146038
0.0146083
0.0146148
0.0146239
0.014637
0.0146558
0.0146827
0.0147212
0.0147764
0.0148555
0.0149685
0.0151294
0.0153572
0.0156768
0.01612
0.0167243
0.0175308
0.0185796
0.0199025
0.0215165
0.0234187
0.0255844
0.0279711
0.0305248
0.0331889
0.0358958
0.014593
0.014593
0.014593
0.014593
0.0145931
0.0145931
0.0145931
0.0145931
0.0145932
0.0145933
0.0145934
0.0145935
0.0145937
0.0145939
0.0145943
0.0145947
0.0145954
0.0145963
0.0145976
0.0145995
0.0146021
0.0146057
0.0146108
0.0146181
0.0146284
0.0146429
0.0146635
0.0146928
0.0147344
0.0147934
0.0148772
0.0149958
0.0151631
0.0153978
0.0157239
0.0161718
0.016777
0.0175782
0.0186124
0.0199093
0.0214848
0.0233366
0.0254426
0.0277635
0.0302474
0.0328365
0.0354684
0.0380804
0.0406181
0.0430379
0.0145931
0.0145931
0.0145931
0.0145931
0.0145932
0.0145933
0.0145933
0.0145935
0.0145936
0.0145938
0.0145942
0.0145946
0.0145952
0.014596
0.0145971
0.0145987
0.0146009
0.0146039
0.0146082
0.0146141
0.0146225
0.0146341
0.0146505
0.0146736
0.014706
0.0147517
0.0148159
0.0149062
0.0150328
0.0152097
0.0154552
0.015793
0.0162523
0.0168669
0.0176728
0.0187043
0.0199883
0.0215389
0.0233537
0.0254124
0.0276789
0.0301055
0.0326387
0.0352216
0.0377936
0.0402986
0.0426854
0.0449002
0.0468783
0.0485793
0.0145931
0.0145932
0.0145933
0.0145933
0.0145935
0.0145936
0.0145938
0.0145941
0.0145945
0.014595
0.0145958
0.0145968
0.0145982
0.0146001
0.0146028
0.0146064
0.0146115
0.0146185
0.0146282
0.0146417
0.0146605
0.0146867
0.0147233
0.0147742
0.0148453
0.0149442
0.0150815
0.0152714
0.0155322
0.0158874
0.016365
0.0169973
0.0178177
0.0188576
0.0201408
0.0216791
0.0234691
0.0254914
0.0277123
0.0300881
0.0325691
0.0351036
0.0376367
0.0401144
0.0424888
0.044712
0.0467265
0.0484724
0.0499098
0.0510288
0.0518759
0.0145935
0.0145936
0.0145938
0.0145941
0.0145945
0.014595
0.0145957
0.0145966
0.0145979
0.0145996
0.014602
0.0146053
0.0146097
0.0146158
0.0146242
0.0146357
0.0146516
0.0146736
0.0147039
0.0147457
0.0148036
0.0148834
0.0149935
0.0151448
0.0153517
0.015633
0.0160115
0.0165148
0.0171732
0.0180179
0.0190768
0.0203704
0.0219078
0.023684
0.0256798
0.0278636
0.0301945
0.0326267
0.0351127
0.0376034
0.0400478
0.0424011
0.0446202
0.0466564
0.0484536
0.0499648
0.0511701
0.0520832
0.0527454
0.0532036
0.0535217
0.0145941
0.0145945
0.014595
0.0145957
0.0145966
0.0145978
0.0145994
0.0146017
0.0146046
0.0146087
0.0146142
0.0146217
0.0146319
0.0146458
0.0146648
0.0146908
0.0147264
0.0147751
0.0148418
0.014933
0.0150573
0.0152265
0.0154553
0.0157627
0.0161715
0.0167083
0.0174016
0.01828
0.019368
0.0206824
0.0222291
0.0240013
0.0259794
0.0281332
0.0304246
0.0328111
0.0352493
0.0376947
0.0401008
0.0424247
0.0446277
0.0466679
0.0484953
0.0500615
0.0513381
0.0523267
0.0530573
0.0535735
0.0539242
0.0541556
0.0543016
0.0543968
0.0145967
0.0145979
0.0145995
0.0146016
0.0146044
0.0146083
0.0146134
0.0146203
0.0146297
0.0146423
0.0146594
0.0146825
0.0147138
0.0147562
0.0148138
0.0148918
0.0149974
0.01514
0.0153317
0.0155882
0.0159284
0.0163751
0.0169539
0.0176913
0.0186129
0.0197396
0.0210841
0.0226491
0.0244255
0.0263932
0.0285231
0.0307795
0.0331232
0.0355142
0.0379126
0.040276
0.0425639
0.0447408
0.0467703
0.0486087
0.0502096
0.0515398
0.0525911
0.0533833
0.0539539
0.0543478
0.0546106
0.0547778
0.0548789
0.0549374
0.0549619
0.0549705
0.0146047
0.0146084
0.0146134
0.01462
0.0146288
0.0146407
0.0146565
0.0146777
0.0147062
0.0147445
0.0147959
0.014865
0.0149576
0.0150817
0.0152473
0.0154676
0.0157584
0.0161393
0.0166325
0.0172624
0.0180533
0.0190273
0.0202014
0.0215843
0.023175
0.0249622
0.0269252
0.0290359
0.0312608
0.0335637
0.035908
0.0382574
0.0405742
0.0428205
0.0449632
0.0469702
0.0488037
0.0504209
0.0517866
0.0528857
0.0537292
0.0543481
0.0547825
0.0550757
0.0552652
0.0553804
0.0554478
0.0554789
0.0554795
0.0554756
0.0554658
0.0554398
0.0146292
0.0146407
0.0146559
0.0146761
0.0147029
0.0147386
0.0147861
0.0148492
0.0149332
0.0150447
0.0151924
0.0153873
0.0156431
0.0159766
0.0164071
0.0169564
0.017647
0.0185008
0.0195361
0.0207654
0.0221933
0.0238153
0.025618
0.0275802
0.0296748
0.0318703
0.0341335
0.0364309
0.0387299
0.0409964
0.0431958
0.0452973
0.047272
0.0490873
0.0507048
0.0520889
0.0532204
0.0541032
0.0547621
0.0552321
0.0555534
0.0557646
0.0558937
0.0559687
0.0560062
0.0560098
0.056001
0.0559883
0.0559621
0.0559192
0.0558669
0.0558083
0.0147035
0.0147379
0.0147831
0.0148428
0.0149214
0.0150249
0.0151607
0.0153386
0.0155703
0.0158705
0.0162562
0.0167466
0.0173623
0.0181238
0.0190496
0.0201538
0.0214446
0.0229224
0.0245793
0.0264002
0.0283635
0.0304431
0.03261
0.0348335
0.0370832
0.0393297
0.0415427
0.0436904
0.0457442
0.0476783
0.0494642
0.0510675
0.0524543
0.0536033
0.0545132
0.0552021
0.055701
0.0560469
0.056277
0.0564196
0.0565022
0.0565455
0.0565523
0.0565402
0.056523
0.0564979
0.0564554
0.0564016
0.0563411
0.0562733
0.0562045
0.0561375
0.014921
0.0150201
0.015149
0.0153163
0.0155326
0.0158106
0.0161656
0.0166145
0.0171761
0.0178691
0.0187112
0.0197172
0.0208967
0.0222533
0.0237835
0.0254766
0.0273159
0.0292801
0.0313443
0.0334816
0.0356642
0.0378646
0.0400563
0.0422123
0.0443037
0.0463041
0.0481903
0.049937
0.0515138
0.0528892
0.0540413
0.0549648
0.0556735
0.0561942
0.0565599
0.056805
0.0569595
0.0570494
0.0570962
0.0571064
0.0570938
0.0570717
0.0570439
0.0570031
0.0569486
0.0568864
0.0568165
0.056743
0.0566694
0.0565971
0.0565261
0.0564564
0.0155259
0.0157909
0.0161267
0.0165484
0.017073
0.0177176
0.0184986
0.0194302
0.0205228
0.0217816
0.0232058
0.0247883
0.0265162
0.028372
0.0303348
0.0323813
0.0344869
0.0366261
0.0387746
0.0409086
0.0430038
0.0450342
0.0469758
0.0488073
0.0505064
0.0520462
0.0533978
0.0545394
0.055464
0.0561817
0.0567153
0.0570943
0.0573513
0.0575155
0.057611
0.0576597
0.057673
0.0576602
0.057633
0.0576007
0.0575611
0.0575054
0.057441
0.0573708
0.0572939
0.0572159
0.0571384
0.0570621
0.0569859
0.0569105
0.0568364
0.0567633
0.0176575
0.0183967
0.0192752
0.0203031
0.0214862
0.0228253
0.0243157
0.0259475
0.0277062
0.0295741
0.0315312
0.033556
0.035626
0.0377185
0.0398117
0.0418844
0.0439149
0.0458797
0.047757
0.0495276
0.0511717
0.0526651
0.0539818
0.0551008
0.0560146
0.0567306
0.057268
0.0576538
0.0579181
0.058088
0.0581875
0.0582382
0.0582523
0.0582385
0.0582082
0.058171
0.0581288
0.0580725
0.058006
0.057934
0.0578549
0.0577727
0.0576908
0.0576097
0.0575291
0.0574489
0.0573695
0.0572905
0.0572116
0.0571337
0.0570567
0.0213527
0.0226266
0.0240434
0.0255953
0.0272702
0.029053
0.0309264
0.0328718
0.0348693
0.0368988
0.0389401
0.0409737
0.0429811
0.0449426
0.046837
0.0486447
0.0503485
0.0519306
0.0533693
0.0546411
0.0557268
0.0566188
0.0573227
0.0578552
0.0582409
0.0585071
0.0586786
0.05878
0.0588315
0.0588441
0.0588298
0.0587971
0.0587535
0.058707
0.0586511
0.0585822
0.0585074
0.0584263
0.0583401
0.0582537
0.058168
0.0580829
0.0579981
0.057914
0.0578305
0.0577472
0.0576643
0.0575816
0.057499
0.057417
0.0573357
0.0270537
0.0287626
0.0305604
0.0324308
0.0343566
0.03632
0.038303
0.0402876
0.042257
0.0441945
0.0460825
0.0479016
0.0496345
0.0512659
0.0527797
0.0541563
0.0553744
0.0564169
0.0572769
0.0579591
0.0584784
0.058857
0.0591195
0.0592891
0.0593897
0.0594393
0.059449
0.0594338
0.0593983
0.0593489
0.0592968
0.0592395
0.0591675
0.0590891
0.0590072
0.0589182
0.0588275
0.0587371
0.0586473
0.0585578
0.058469
0.058381
0.0582933
0.058206
0.0581189
0.058032
0.0579452
0.0578586
0.0577719
0.0576858
0.0576001
0.0359841
0.0379055
0.0398351
0.0417572
0.043657
0.0455197
0.0473291
0.049068
0.0507212
0.0522748
0.0537143
0.0550219
0.0561785
0.0571691
0.0579881
0.0586397
0.0591379
0.0595027
0.0597563
0.0599199
0.0600166
0.0600626
0.0600683
0.0600506
0.0600109
0.0599567
0.0598993
0.059838
0.0597639
0.0596823
0.0595972
0.0595054
0.0594102
0.0593155
0.0592215
0.0591279
0.0590345
0.0589419
0.0588497
0.0587579
0.0586665
0.0585753
0.0584843
0.0583935
0.0583027
0.0582119
0.0581212
0.0580304
0.05794
0.05785
0.0433427
0.0451672
0.0469498
0.0486757
0.0503294
0.0518978
0.0533685
0.0547283
0.0559607
0.0570487
0.0579799
0.0587499
0.0593633
0.0598332
0.0601778
0.060417
0.060571
0.0606608
0.0607015
0.0607012
0.0606798
0.0606359
0.060577
0.0605131
0.0604469
0.060371
0.0602856
0.0601965
0.0601026
0.0600036
0.0599045
0.059806
0.0597076
0.0596094
0.0595123
0.0594159
0.0593198
0.0592241
0.0591287
0.0590334
0.0589384
0.0588435
0.0587486
0.0586538
0.0585591
0.0584642
0.0583694
0.0582744
0.0581798
0.0580853
0.0501141
0.0516778
0.0531565
0.0545395
0.0558143
0.0569657
0.0579789
0.0588441
0.0595585
0.0601269
0.0605624
0.0608813
0.0611014
0.0612424
0.0613221
0.0613539
0.061348
0.0613216
0.0612729
0.0612083
0.0611382
0.0610665
0.0609879
0.0608981
0.0608049
0.0607087
0.0606062
0.0605026
0.0603998
0.0602972
0.0601947
0.060093
0.059992
0.0598913
0.0597911
0.0596914
0.059592
0.0594929
0.0593939
0.059295
0.0591962
0.0590974
0.0589987
0.0588999
0.0588011
0.0587021
0.0586031
0.0585039
0.058405
0.0583062
0.0557788
0.0569637
0.0580289
0.058962
0.0597556
0.0604086
0.0609267
0.0613228
0.0616115
0.0618082
0.0619328
0.062
0.0620209
0.0620087
0.061975
0.0619201
0.0618497
0.0617744
0.061697
0.0616138
0.0615203
0.0614229
0.0613232
0.0612176
0.0611095
0.0610025
0.0608956
0.0607888
0.0606827
0.0605774
0.0604724
0.0603679
0.0602639
0.0601602
0.0600568
0.0599536
0.0598507
0.0597479
0.0596452
0.0595425
0.0594399
0.0593372
0.0592345
0.0591317
0.0590288
0.0589257
0.0588225
0.058719
0.0586158
0.0585126
0.0599894
0.060707
0.0612942
0.0617581
0.0621106
0.0623649
0.0625354
0.062641
0.0626937
0.0627011
0.0626817
0.06264
0.062578
0.0625017
0.0624209
0.0623373
0.0622485
0.0621518
0.0620502
0.061946
0.0618374
0.0617254
0.0616139
0.061503
0.0613918
0.0612811
0.0611714
0.0610621
0.0609534
0.0608452
0.0607374
0.0606299
0.0605226
0.0604156
0.0603087
0.060202
0.0600954
0.0599889
0.0598825
0.059776
0.0596695
0.0595628
0.0594561
0.0593492
0.0592422
0.0591349
0.0590275
0.0589198
0.0588122
0.0587045
0.0626152
0.0629213
0.0631381
0.0632812
0.063365
0.0634002
0.0633941
0.0633662
0.0633157
0.0632456
0.0631633
0.0630768
0.062987
0.0628926
0.0627922
0.0626859
0.0625773
0.0624653
0.0623496
0.0622336
0.0621186
0.0620034
0.0618882
0.0617742
0.0616607
0.0615476
0.0614351
0.0613231
0.0612114
0.0611002
0.0609892
0.0608784
0.0607678
0.0606573
0.0605469
0.0604366
0.0603263
0.060216
0.0601057
0.0599953
0.0598849
0.0597743
0.0596635
0.0595525
0.0594413
0.0593298
0.0592181
0.0591061
0.0589941
0.0588819
0.0640416
0.0641025
0.0641176
0.0641006
0.0640606
0.0640002
0.063922
0.0638336
0.0637412
0.0636453
0.0635453
0.0634404
0.0633297
0.0632166
0.0631009
0.0629815
0.0628612
0.062742
0.0626228
0.0625033
0.0623851
0.0622676
0.0621502
0.0620335
0.0619173
0.0618015
0.0616861
0.061571
0.0614563
0.0613417
0.0612274
0.0611133
0.0609992
0.0608852
0.0607712
0.0606572
0.0605432
0.0604291
0.0603149
0.0602006
0.0600862
0.0599715
0.0598566
0.0597415
0.0596261
0.0595103
0.0593943
0.059278
0.0591616
0.0590449
0.064764
0.0646928
0.0646071
0.064512
0.0644132
0.0643113
0.0642058
0.0640958
0.063981
0.0638633
0.0637436
0.0636205
0.0634962
0.0633728
0.0632496
0.0631261
0.0630036
0.062882
0.0627605
0.0626397
0.0625195
0.0623997
0.0622802
0.0621612
0.0620424
0.0619239
0.0618057
0.0616877
0.0615698
0.0614521
0.0613344
0.0612168
0.0610992
0.0609816
0.0608639
0.0607461
0.0606281
0.0605101
0.0603918
0.0602733
0.0601546
0.0600355
0.0599162
0.0597966
0.0596765
0.0595562
0.0594355
0.0593147
0.0591934
0.0651972
0.065092
0.0649845
0.0648732
0.0647579
0.0646388
0.0645167
0.0643928
0.0642661
0.0641378
0.0640103
0.0638833
0.0637559
0.0636292
0.0635036
0.0633781
0.0632532
0.0631291
0.0630053
0.0628819
0.0627589
0.0626363
0.062514
0.0623919
0.06227
0.0621484
0.0620269
0.0619055
0.0617843
0.0616631
0.0615419
0.0614207
0.0612995
0.0611781
0.0610566
0.060935
0.0608132
0.0606911
0.0605689
0.0604463
0.0603234
0.0602002
0.0600767
0.0599527
0.0598284
0.0597037
0.0595786
0.0594533
0.0593276
0.0655466
0.065426
0.0653026
0.0651762
0.065048
0.0649174
0.0647854
0.0646539
0.0645232
0.064392
0.0642613
0.0641318
0.0640026
0.0638737
0.0637456
0.0636179
0.0634906
0.0633638
0.0632374
0.0631112
0.0629854
0.0628599
0.0627345
0.0626093
0.0624843
0.0623594
0.0622346
0.0621098
0.0619851
0.0618604
0.0617357
0.0616108
0.0614859
0.0613608
0.0612355
0.06111
0.0609842
0.0608581
0.0607318
0.0606051
0.0604781
0.0603507
0.0602229
0.0600946
0.059966
0.0598369
0.0597073
0.0595776
0.0594474
0.0657084
0.065574
0.0654384
0.0653032
0.0651687
0.0650339
0.0648993
0.064766
0.0646331
0.0645003
0.0643685
0.0642371
0.064106
0.0639754
0.0638452
0.0637153
0.0635858
0.0634566
0.0633276
0.0631988
0.0630702
0.0629417
0.0628134
0.0626851
0.0625569
0.0624287
0.0623006
0.0621723
0.062044
0.0619157
0.0617871
0.0616584
0.0615295
0.0614003
0.0612709
0.0611411
0.061011
0.0608806
0.0607498
0.0606185
0.0604869
0.0603548
0.0602222
0.0600892
0.0599558
0.0598218
0.0596876
0.0595528
0.0659573
0.0658191
0.0656808
0.0655426
0.0654056
0.0652691
0.0651326
0.0649971
0.0648621
0.0647273
0.0645931
0.0644593
0.0643258
0.0641926
0.0640598
0.0639272
0.0637948
0.0636627
0.0635307
0.0633989
0.0632672
0.0631356
0.0630041
0.0628725
0.0627409