/*--------------------------------*- C++ -*----------------------------------*\
| =========                 |                                                 |
| \\      /  F ield         | OpenFOAM: The Open Source CFD Toolbox           |
|  \\    /   O peration     | Version:  v1706                                 |
|   \\  /    A nd           | Web:      www.OpenFOAM.com                      |
|    \\/     M anipulation  |                                                 |
\*---------------------------------------------------------------------------*/
FoamFile
{
    version     2.0;
    format      ascii;
    class       volScalarField;
    location    "3.3e-05";
    object      Mach;
}
// * * * * * * * * * * * * * * * * * * * * * * * * * * * * * * * * * * * * * //

dimensions      [0 0 0 0 0 0 0];


internalField   nonuniform List<scalar> 
30038
(
7.18506
7.18506
7.18506
7.18506
7.18506
7.18506
7.18506
7.18506
7.18506
7.18506
7.18506
7.18506
7.18506
7.18506
7.18506
7.18506
7.18506
7.18506
7.18506
7.18506
7.18506
7.18506
7.18506
7.18506
7.18506
7.18506
7.18506
7.18506
7.18506
7.18506
7.18506
7.18506
7.18506
7.18506
7.18506
7.18506
7.18506
7.18506
7.18506
7.18506
7.18506
7.18506
7.18506
7.18506
7.18506
7.18506
7.18506
7.18506
7.18506
7.18506
7.18506
7.18506
7.18506
7.18506
7.18506
7.18506
7.18506
7.18506
7.18506
7.18506
7.18506
7.18506
7.18506
7.18506
7.18506
7.18506
7.18506
7.18506
7.18506
7.18506
7.18506
7.18506
7.18506
7.18506
7.18506
7.18506
7.18506
7.18506
7.18506
7.18506
7.18506
7.18506
7.18506
7.18506
7.18506
7.18506
7.18506
7.18506
7.18506
7.18506
7.18506
7.18506
7.18506
7.18506
7.18506
7.18506
7.18506
7.18506
7.18506
7.18506
7.18506
7.18506
7.18506
7.18506
7.18506
7.18506
7.18506
7.18506
7.18506
7.18506
7.18506
7.18506
7.18506
7.18506
7.18506
7.18506
7.18506
7.18506
7.18506
7.18506
7.18506
7.18506
7.18506
7.18506
7.18506
7.18506
7.18506
7.18506
7.18506
7.18506
7.18506
7.18506
7.18506
7.18506
7.18506
7.18506
7.18506
7.18506
7.18506
7.18506
7.18506
7.18506
7.18506
7.18506
7.18506
7.18506
7.18506
7.18506
7.18506
7.18506
7.18506
7.18506
7.18506
7.18506
7.18506
7.18506
7.18506
7.18506
7.18506
7.18506
7.18506
7.18506
7.18506
7.18506
7.18506
7.18506
7.18506
7.18506
7.18506
7.18506
7.18506
7.18506
7.18506
7.18506
7.18506
7.18506
7.18506
7.18506
7.18506
7.18506
7.18506
7.18506
7.18506
7.18506
7.18506
7.18506
7.18506
7.18506
7.18506
7.18506
7.18506
7.18506
7.18506
7.18506
7.18506
7.18506
7.18506
7.18506
7.18506
7.18506
7.18506
7.18506
7.18506
7.18506
7.18506
7.18506
7.18506
7.18506
7.18506
7.18506
7.18506
7.18506
7.18506
7.18506
7.18506
7.18506
7.18506
7.18506
7.18506
7.18506
7.18506
7.18506
7.18506
7.18506
7.18506
7.18506
7.18506
7.18506
7.18506
7.18506
7.18506
7.18506
7.18506
7.18506
7.18506
7.18506
7.18506
7.18506
7.18506
7.18506
7.18506
7.18506
7.18506
7.18506
7.18506
7.18506
7.18506
7.18506
7.18506
7.18506
7.18506
7.18506
7.18506
7.18506
7.18506
7.18506
7.18506
7.18506
7.18506
7.18506
7.18506
7.18506
7.18506
7.18506
7.18506
7.18506
7.18506
7.18506
7.18506
7.18506
7.18506
7.18506
7.18506
7.18506
7.18506
7.18506
7.18506
7.18506
7.18506
7.18506
7.18506
7.18506
7.18506
7.18506
7.18506
7.18506
7.18506
7.18506
7.18506
7.18506
7.18506
7.18506
7.18506
7.18506
7.18506
7.18506
7.18506
7.18506
7.18506
7.18506
7.18506
7.18506
7.18506
7.18506
7.18506
7.18506
7.18506
7.18506
7.18506
7.18506
7.18506
7.18506
7.18506
7.18506
7.18506
7.18506
7.18506
7.18506
7.18506
7.18506
7.18506
7.18506
7.18506
7.18506
7.18506
7.18506
7.18506
7.18506
7.18506
7.18506
7.18506
7.18506
7.18506
7.18506
7.18506
7.18506
7.18506
7.18506
7.18506
7.18506
7.18506
7.18506
7.18506
7.18506
7.18506
7.18506
7.18506
7.18506
7.18506
7.18506
7.18506
7.18506
7.18506
7.18506
7.18506
7.18506
7.18506
7.18506
7.18506
7.18506
7.18506
7.18506
7.18506
7.18506
7.18506
7.18506
7.18506
7.18506
7.18506
7.18506
7.18506
7.18506
7.18506
7.18506
7.18506
7.18506
7.18506
7.18506
7.18506
7.18506
7.18506
7.18506
7.18506
7.18506
7.18506
7.18506
7.18506
7.18506
7.18506
7.18506
7.18506
7.18506
7.18506
7.18506
7.18506
7.18506
7.18506
7.18506
7.18506
7.18506
7.18506
7.18506
7.18506
7.18506
7.18506
7.18506
7.18506
7.18506
7.18506
7.18506
7.18506
7.18506
7.18506
7.18506
7.18506
7.18506
7.18506
7.18506
7.18506
7.18506
7.18506
7.18506
7.18506
7.18506
7.18506
7.18506
7.18506
7.18506
7.18506
7.18506
7.18506
7.18506
7.18506
7.18506
7.18506
7.18506
7.18506
7.18506
7.18506
7.18506
7.18506
7.18506
7.18506
7.18506
7.18506
7.18506
7.18506
7.18506
7.18506
7.18506
7.18506
7.18506
7.18506
7.18506
7.18506
7.18506
7.18506
7.18506
7.18506
7.18506
7.18506
7.18506
7.18506
7.18506
7.18506
7.18506
7.18506
7.18506
7.18506
7.18506
7.18506
7.18506
7.18506
7.18506
7.18506
7.18506
7.18506
7.18506
7.18506
7.18506
7.18506
7.18506
7.18506
7.18506
7.18506
7.18506
7.18506
7.18506
7.18506
7.18506
7.18506
7.18506
7.18506
7.18506
7.18506
7.18506
7.18506
7.18506
7.18506
7.18506
7.18506
7.18506
7.18506
7.18506
7.18506
7.18506
7.18506
7.18506
7.18506
7.18506
7.18506
7.18506
7.18506
7.18506
7.18506
7.18506
7.18506
7.18506
7.18506
7.18506
7.18506
7.18506
7.18506
7.18506
7.18506
7.18506
7.18506
7.18506
7.18506
7.18506
7.18506
7.18506
7.18506
7.18506
7.18506
7.18506
7.18506
7.18506
7.18506
7.18506
7.18506
7.18506
7.18506
7.18506
7.18506
7.18506
7.18506
7.18506
7.18506
7.18506
7.18506
7.18506
7.18506
7.18506
7.18506
7.18506
7.18506
7.18506
7.18506
7.18506
7.18506
7.18506
7.18506
7.18506
7.18506
7.18506
7.18506
7.18506
7.18506
7.18506
7.18506
7.18506
7.18506
7.18506
7.18506
7.18506
7.18506
7.18506
7.18506
7.18506
7.18506
7.18506
7.18506
7.18506
7.18506
7.18506
7.18506
7.18506
7.18506
7.18506
7.18506
7.18506
7.18506
7.18506
7.18506
7.18506
7.18506
7.18506
7.18506
7.18506
7.18506
7.18506
7.18506
7.18506
7.18506
7.18506
7.18506
7.18506
7.18506
7.18506
7.18506
7.18506
7.18506
7.18506
7.18506
7.18506
7.18506
7.18506
7.18506
7.18506
7.18506
7.18506
7.18506
7.18506
7.18506
7.18506
7.18506
7.18506
7.18506
7.18506
7.18506
7.18506
7.18506
7.18506
7.18506
7.18506
7.18506
7.18506
7.18506
7.18506
7.18506
7.18506
7.18506
7.18506
7.18506
7.18506
7.18506
7.18506
7.18506
7.18506
7.18506
7.18506
7.18506
7.18506
7.18506
7.18506
7.18506
7.18506
7.18506
7.18506
7.18506
7.18506
7.18506
7.18506
7.18506
7.18506
7.18506
7.18506
7.18506
7.18506
7.18506
7.18506
7.18506
7.18506
7.18506
7.18506
7.18506
7.18506
7.18506
7.18506
7.18506
7.18506
7.18506
7.18506
7.18506
7.18506
7.18506
7.18506
7.18506
7.18506
7.18506
7.18506
7.18506
7.18506
7.18506
7.18506
7.18506
7.18506
7.18506
7.18506
7.18506
7.18506
7.18506
7.18506
7.18506
7.18506
7.18506
7.18506
7.18506
7.18506
7.18506
7.18506
7.18506
7.18506
7.18506
7.18506
7.18506
7.18506
7.18506
7.18506
7.18506
7.18506
7.18506
7.18506
7.18506
7.18506
7.18506
7.18506
7.18506
7.18506
7.18506
7.18506
7.18506
7.18506
7.18506
7.18506
7.18506
7.18506
7.18506
7.18506
7.18506
7.18506
7.18506
7.18506
7.18506
7.18506
7.18506
7.18506
7.18506
7.18506
7.18506
7.18506
7.18506
7.18506
7.18506
7.18506
7.18506
7.18506
7.18506
7.18506
7.18506
7.18506
7.18506
7.18506
7.18506
7.18506
7.18506
7.18506
7.18506
7.18506
7.18506
7.18506
7.18506
7.18506
7.18506
7.18506
7.18506
7.18506
7.18506
7.18506
7.18506
7.18506
7.18506
7.18506
7.18506
7.18506
7.18506
7.18506
7.18506
7.18506
7.18506
7.18506
7.18506
7.18506
7.18506
7.18506
7.18506
7.18506
7.18506
7.18506
7.18506
7.18506
7.18506
7.18506
7.18506
7.18506
7.18506
7.18506
7.18506
7.18506
7.18506
7.18506
7.18506
7.18506
7.18506
7.18506
7.18506
7.18506
7.18506
7.18506
7.18506
7.18506
7.18506
7.18506
7.18506
7.18506
7.18506
7.18506
7.18506
7.18506
7.18506
7.18506
7.18506
7.18506
7.18506
7.18506
7.18506
7.18506
7.18506
7.18506
7.18506
7.18506
7.18506
7.18506
7.18506
7.18506
7.18506
7.18506
7.18506
7.18506
7.18506
7.18506
7.18506
7.18506
7.18506
7.18506
7.18506
7.18506
7.18506
7.18506
7.18506
7.18506
7.18506
7.18506
7.18506
7.18506
7.18506
7.18506
7.18506
7.18506
7.18506
7.18506
7.18506
7.18506
7.18506
7.18506
7.18506
7.18506
7.18506
7.18506
7.18506
7.18506
7.18506
7.18506
7.18506
7.18506
7.18506
7.18506
7.18506
7.18506
7.18506
7.18506
7.18506
7.18506
7.18506
7.18506
7.18506
7.18506
7.18506
7.18506
7.18506
7.18506
7.18506
7.18506
7.18506
7.18506
7.18506
7.18506
7.18506
7.18506
7.18506
7.18506
7.18506
7.18506
7.18506
7.18506
7.18506
7.18506
7.18506
7.18506
7.18506
7.18506
7.18506
7.18506
7.18506
7.18506
7.18506
7.18506
7.18506
7.18506
7.18506
7.18506
7.18506
7.18506
7.18506
7.18506
7.18506
7.18506
7.18506
7.18506
7.18506
7.18506
7.18506
7.18506
7.18506
7.18506
7.18506
7.18506
7.18506
7.18506
7.18506
7.18506
7.18506
7.18506
7.18506
7.18506
7.18506
7.18506
7.18506
7.18506
7.18506
7.18506
7.18506
7.18506
7.18506
7.18506
7.18506
7.18506
7.18506
7.18506
7.18506
7.18506
7.18506
7.18506
7.18506
7.18506
7.18506
7.18506
7.18506
7.18506
7.18506
7.18506
7.18506
7.18506
7.18506
7.18506
7.18506
7.18506
7.18506
7.18506
7.18506
7.18506
7.18506
7.18506
7.18506
7.18506
7.18506
7.18506
7.18506
7.18506
7.18506
7.18506
7.18506
7.18506
7.18506
7.18506
7.18506
7.18506
7.18506
7.18506
7.18506
7.18506
7.18506
7.18506
7.18506
7.18506
7.18506
7.18506
7.18506
7.18506
7.18506
7.18506
7.18506
7.18506
7.18506
7.18506
7.18506
7.18506
7.18506
7.18506
7.18506
7.18506
7.18506
7.18506
7.18506
7.18506
7.18506
7.18506
7.18506
7.18506
7.18506
7.18506
7.18506
7.18506
7.18506
7.18506
7.18506
7.18506
7.18506
7.18506
7.18506
7.18506
7.18506
7.18506
7.18506
7.18506
7.18506
7.18506
7.18506
7.18506
7.18506
7.18506
7.18506
7.18506
7.18506
7.18506
7.18506
7.18506
7.18506
7.18506
7.18506
7.18506
7.18506
7.18506
7.18506
7.18506
7.18506
7.18506
7.18506
7.18506
7.18506
7.18506
7.18506
7.18506
7.18506
7.18506
7.18506
7.18506
7.18506
7.18506
7.18506
7.18506
7.18506
7.18506
7.18506
7.18506
7.18506
7.18506
7.18506
7.18506
7.18506
7.18506
7.18506
7.18506
7.18506
7.18506
7.18506
7.18506
7.18506
7.18506
7.18506
7.18506
7.18506
7.18506
7.18506
7.18506
7.18506
7.18506
7.18506
7.18506
7.18506
7.18506
7.18506
7.18506
7.18506
7.18506
7.18506
7.18506
7.18506
7.18506
7.18506
7.18506
7.18506
7.18506
7.18506
7.18506
7.18506
7.18506
7.18506
7.18506
7.18506
7.18506
7.18506
7.18506
7.18506
7.18506
7.18506
7.18506
7.18506
7.18506
7.18506
7.18506
7.18506
7.18506
7.18506
7.18506
7.18506
7.18506
7.18506
7.18506
7.18506
7.18506
7.18506
7.18506
7.18506
7.18506
7.18506
7.18506
7.18506
7.18506
7.18506
7.18506
7.18506
7.18506
7.18506
7.18506
7.18506
7.18506
7.18506
7.18506
7.18506
7.18506
7.18506
7.18506
7.18506
7.18506
7.18506
7.18506
7.18506
7.18506
7.18505
7.18505
7.18506
7.18506
7.18506
7.18506
7.18506
7.18506
7.18506
7.18506
7.18506
7.18506
7.18506
7.18506
7.18506
7.18506
7.18506
7.18506
7.18506
7.18506
7.18506
7.18506
7.18506
7.18506
7.18506
7.18506
7.18506
7.18506
7.18506
7.18506
7.18506
7.18506
7.18506
7.18506
7.18506
7.18506
7.18506
7.18506
7.18506
7.18506
7.18506
7.18506
7.18506
7.18506
7.18506
7.18506
7.18506
7.18505
7.18505
7.18504
7.18502
7.18499
7.18506
7.18506
7.18506
7.18506
7.18506
7.18506
7.18506
7.18506
7.18506
7.18506
7.18506
7.18506
7.18506
7.18506
7.18506
7.18506
7.18506
7.18506
7.18506
7.18506
7.18506
7.18506
7.18506
7.18506
7.18506
7.18506
7.18506
7.18506
7.18506
7.18506
7.18506
7.18506
7.18506
7.18506
7.18506
7.18506
7.18506
7.18506
7.18506
7.18506
7.18506
7.18506
7.18505
7.18504
7.18503
7.18502
7.18499
7.18496
7.1849
7.1848
7.18506
7.18506
7.18506
7.18506
7.18506
7.18506
7.18506
7.18506
7.18506
7.18506
7.18506
7.18506
7.18506
7.18506
7.18506
7.18506
7.18506
7.18506
7.18506
7.18506
7.18506
7.18506
7.18506
7.18506
7.18506
7.18506
7.18506
7.18506
7.18506
7.18506
7.18506
7.18506
7.18506
7.18506
7.18506
7.18506
7.18506
7.18506
7.18506
7.18505
7.18504
7.18503
7.18502
7.18499
7.18495
7.1849
7.18481
7.18467
7.18446
7.18412
7.18506
7.18506
7.18506
7.18506
7.18506
7.18506
7.18506
7.18506
7.18506
7.18506
7.18506
7.18506
7.18506
7.18506
7.18506
7.18506
7.18506
7.18506
7.18506
7.18506
7.18506
7.18506
7.18506
7.18506
7.18506
7.18506
7.18506
7.18506
7.18506
7.18506
7.18506
7.18506
7.18506
7.18506
7.18506
7.18505
7.18505
7.18504
7.18503
7.18501
7.18499
7.18495
7.18489
7.1848
7.18466
7.18445
7.18414
7.18366
7.18291
7.18172
7.18506
7.18506
7.18506
7.18506
7.18506
7.18506
7.18506
7.18506
7.18506
7.18506
7.18506
7.18506
7.18506
7.18506
7.18506
7.18506
7.18506
7.18506
7.18506
7.18506
7.18506
7.18506
7.18506
7.18506
7.18506
7.18506
7.18506
7.18506
7.18506
7.18506
7.18506
7.18506
7.18505
7.18505
7.18504
7.18503
7.18501
7.18498
7.18494
7.18487
7.18478
7.18464
7.18443
7.18411
7.18363
7.18291
7.1818
7.18013
7.17754
7.17347
7.18506
7.18506
7.18506
7.18506
7.18506
7.18506
7.18506
7.18506
7.18506
7.18506
7.18506
7.18506
7.18506
7.18506
7.18506
7.18506
7.18506
7.18506
7.18506
7.18506
7.18506
7.18506
7.18506
7.18506
7.18506
7.18506
7.18506
7.18506
7.18505
7.18505
7.18504
7.18503
7.18502
7.185
7.18497
7.18492
7.18486
7.18476
7.18461
7.18439
7.18406
7.18357
7.18284
7.18174
7.18008
7.17758
7.17382
7.16813
7.15942
7.14589
7.18506
7.18506
7.18506
7.18506
7.18506
7.18506
7.18506
7.18506
7.18506
7.18506
7.18506
7.18506
7.18506
7.18506
7.18506
7.18506
7.18506
7.18506
7.18506
7.18506
7.18506
7.18506
7.18506
7.18506
7.18506
7.18505
7.18505
7.18504
7.18503
7.18501
7.18499
7.18496
7.18491
7.18483
7.18473
7.18457
7.18434
7.18399
7.18348
7.18272
7.18159
7.17992
7.17741
7.17368
7.16809
7.15974
7.14725
7.12856
7.10043
7.05785
7.18506
7.18506
7.18506
7.18506
7.18506
7.18506
7.18506
7.18506
7.18506
7.18506
7.18506
7.18506
7.18506
7.18506
7.18506
7.18506
7.18506
7.18506
7.18506
7.18506
7.18506
7.18505
7.18505
7.18504
7.18504
7.18502
7.185
7.18498
7.18494
7.18488
7.1848
7.18469
7.18451
7.18426
7.18389
7.18335
7.18255
7.18138
7.17965
7.17709
7.1733
7.16769
7.15938
7.14707
7.12888
7.10205
7.06268
7.00533
6.92224
6.80342
7.18506
7.18506
7.18506
7.18506
7.18506
7.18506
7.18506
7.18506
7.18506
7.18506
7.18506
7.18506
7.18506
7.18506
7.18506
7.18506
7.18506
7.18506
7.18505
7.18505
7.18504
7.18503
7.18501
7.18499
7.18496
7.18492
7.18485
7.18476
7.18463
7.18444
7.18416
7.18376
7.18318
7.18232
7.18108
7.17926
7.17659
7.17267
7.16693
7.15851
7.14614
7.12802
7.10155
7.06308
7.00762
6.92864
6.81814
6.66732
6.46699
6.21188
7.18506
7.18506
7.18506
7.18506
7.18506
7.18506
7.18506
7.18506
7.18506
7.18506
7.18506
7.18506
7.18506
7.18506
7.18505
7.18505
7.18504
7.18503
7.18502
7.185
7.18498
7.18494
7.18489
7.18482
7.18471
7.18456
7.18435
7.18404
7.18359
7.18295
7.18202
7.18067
7.17872
7.17589
7.17178
7.16579
7.15709
7.14444
7.12607
7.09947
7.06116
7.0064
6.92909
6.82181
6.6765
6.48583
6.24529
5.95574
5.62285
5.26171
7.18506
7.18506
7.18506
7.18506
7.18506
7.18506
7.18506
7.18506
7.18506
7.18506
7.18505
7.18505
7.18504
7.18504
7.18502
7.18501
7.18499
7.18496
7.18491
7.18485
7.18476
7.18464
7.18447
7.18422
7.18387
7.18336
7.18264
7.18161
7.18013
7.17801
7.17495
7.17055
7.1642
7.15506
7.14188
7.12292
7.09573
7.05691
7.00194
6.92501
6.81915
6.6768
6.49116
6.25811
5.97834
5.65863
5.31109
4.95113
4.59147
4.24785
7.18506
7.18506
7.18506
7.18506
7.18506
7.18506
7.18505
7.18505
7.18504
7.18504
7.18503
7.18501
7.18499
7.18497
7.18493
7.18488
7.1848
7.1847
7.18455
7.18434
7.18406
7.18365
7.18307
7.18225
7.18108
7.17943
7.17707
7.17371
7.16892
7.16207
7.15229
7.13832
7.11842
7.09014
7.05016
6.99408
6.91634
6.81033
6.66902
6.4861
6.25784
5.98491
5.6736
5.33524
4.98409
4.63432
4.29751
3.98221
3.69099
3.42951
7.18506
7.18506
7.18505
7.18505
7.18504
7.18504
7.18503
7.18501
7.185
7.18497
7.18494
7.18489
7.18482
7.18473
7.18461
7.18443
7.18418
7.18384
7.18335
7.18268
7.18173
7.18039
7.17851
7.17585
7.17209
7.16678
7.15926
7.14862
7.13357
7.11232
7.08242
7.04056
6.98245
6.9027
6.79506
6.65297
6.47071
6.24504
5.97688
5.67222
5.34166
4.9985
4.656
4.32532
4.01446
3.72829
3.46879
3.23687
3.02984
2.84985
7.18504
7.18504
7.18503
7.18502
7.185
7.18497
7.18494
7.1849
7.18484
7.18475
7.18464
7.18448
7.18426
7.18396
7.18355
7.18297
7.18216
7.18104
7.17948
7.1773
7.17425
7.16998
7.16399
7.15559
7.14382
7.12733
7.10427
7.07214
7.02763
6.96649
6.88351
6.77275
6.62815
6.44462
6.21958
5.95433
5.65484
5.33117
4.9957
4.66081
4.33686
4.0314
3.74907
3.49212
3.26116
3.05572
2.87507
2.71919
2.587
2.47962
7.18501
7.185
7.18497
7.18494
7.1849
7.18484
7.18476
7.18466
7.18451
7.18431
7.18404
7.18367
7.18315
7.18245
7.18148
7.18014
7.17828
7.17571
7.17216
7.16722
7.16035
7.15082
7.13758
7.11921
7.09379
7.05873
7.01069
6.94544
6.85793
6.74253
6.59372
6.40714
6.18094
5.91701
5.62143
5.30388
4.97592
4.64897
4.33258
4.03366
3.75653
3.5034
3.27482
3.07048
2.88967
2.73192
2.5973
2.48613
2.39841
2.33175
2.28297
7.18489
7.18484
7.18476
7.18466
7.18452
7.18433
7.18407
7.18373
7.18326
7.18262
7.18174
7.18055
7.17892
7.17668
7.17361
7.16939
7.16358
7.15559
7.1446
7.12947
7.10869
7.08023
7.04141
6.98882
6.91825
6.8248
6.7032
6.54854
6.35726
6.12837
5.86444
5.57182
5.25985
4.93934
4.62071
4.31264
4.02132
3.75067
3.50266
3.27786
3.076
2.89635
2.73838
2.60193
2.48738
2.39486
2.32348
2.27077
2.23352
2.20793
2.19028
7.18464
7.18451
7.18432
7.18407
7.18374
7.1833
7.18269
7.18188
7.18078
7.17929
7.17727
7.17453
7.1708
7.16571
7.15878
7.14933
7.13644
7.1189
7.09504
7.06271
7.01913
6.9608
6.88354
6.78264
6.65326
6.49116
6.2937
6.06088
5.79601
5.50573
5.1991
4.88615
4.57632
4.27731
3.99457
3.73152
3.48987
3.27012
3.07202
2.89485
2.73803
2.60128
2.48484
2.38906
2.31356
2.25668
2.21558
2.18703
2.16775
2.15504
2.14706
2.14156
7.18371
7.18327
7.18268
7.1819
7.18085
7.17945
7.17756
7.17502
7.17161
7.167
7.16077
7.15237
7.14102
7.1257
7.10505
7.07727
7.04006
6.9905
6.92504
6.83955
6.72958
6.59082
6.41982
6.21499
5.97735
5.71101
5.42289
5.1217
4.81667
4.5162
4.22702
3.95379
3.69937
3.46519
3.25163
3.05841
2.8849
2.73046
2.59475
2.47786
2.3802
2.30176
2.24146
2.19707
2.16567
2.14427
2.13001
2.12081
2.11512
2.11188
2.1107
2.11003
7.18078
7.17941
7.17758
7.17515
7.17192
7.16759
7.16182
7.15409
7.14375
7.12993
7.11145
7.08681
7.05405
7.0107
6.95371
6.87951
6.78408
6.66335
6.51365
6.33252
6.11946
5.8766
5.60879
5.3231
5.02783
4.73132
4.44093
4.16236
3.89949
3.65465
3.42892
3.22256
3.03526
2.86644
2.71545
2.58192
2.46585
2.36762
2.28742
2.22464
2.17757
2.1437
2.12026
2.10452
2.09431
2.08808
2.08425
2.0825
2.08217
2.08319
2.08443
2.08576
7.17177
7.16757
7.16203
7.15468
7.14495
7.13205
7.11498
7.09241
7.06265
7.02357
6.97252
6.90639
6.8216
6.7144
6.58122
6.41924
6.22708
6.00547
5.75756
5.48883
5.20634
4.91785
4.63073
4.35124
4.0841
3.83241
3.59796
3.38155
3.18326
3.00278
2.83956
2.69296
2.56262
2.44847
2.35081
2.26998
2.20568
2.15667
2.12081
2.09561
2.07854
2.06735
2.06037
2.05622
2.05422
2.05396
2.05424
2.05626
2.05765
2.05986
2.06261
2.0654
7.14475
7.13233
7.11604
7.0947
7.06681
7.03048
6.9834
6.9228
6.84552
6.74814
6.62731
6.48017
6.30491
6.10139
5.87153
5.61943
5.35095
5.07294
4.79243
4.51575
4.24808
3.99318
3.75342
3.5301
3.32372
3.13426
2.96136
2.8045
2.66311
2.53681
2.4255
2.32946
2.24905
2.18418
2.13396
2.09667
2.07011
2.0519
2.03983
2.03225
2.02784
2.02553
2.02495
2.02531
2.02707
2.02901
2.03104
2.03398
2.03705
2.04016
2.04341
2.04669
7.06697
7.03217
6.98745
6.93034
6.858
6.76736
6.65533
6.51916
6.35693
6.16802
5.95356
5.71659
5.46188
5.19541
4.92358
4.65252
4.38748
4.13259
3.8907
3.66354
3.45196
3.25624
3.07621
2.91151
2.76166
2.62615
2.5046
2.39695
2.30339
2.22431
2.15977
2.10916
2.07106
2.04352
2.02439
2.01166
2.00361
1.99888
1.99633
1.99564
1.99623
1.99756
1.99999
2.00199
2.00482
2.00811
2.01148
2.01472
2.01837
2.02201
2.02563
2.02909
6.86024
6.77373
6.66746
6.53888
6.38613
6.2084
6.00637
5.78235
5.54027
5.28528
5.02311
4.75948
4.4995
4.24734
4.00614
3.77795
3.56394
3.36459
3.17997
3.00985
2.85386
2.71155
2.58245
2.46627
2.36292
2.2726
2.19565
2.13226
2.08198
2.04367
2.01564
1.99599
1.98278
1.97433
1.9693
1.96675
1.966
1.96654
1.96769
1.97023
1.9728
1.97542
1.97888
1.98238
1.98589
1.98958
1.99345
1.99721
2.00104
2.00483
2.00862
2.01225
6.22461
6.03204
5.81855
5.58743
5.34315
5.0908
4.8356
4.58233
4.33507
4.09696
3.87026
3.65634
3.45588
3.26909
3.09591
2.93604
2.78912
2.65474
2.53251
2.42217
2.32367
2.23718
2.16307
2.10154
2.05228
2.01436
1.98634
1.9665
1.95302
1.94437
1.93927
1.93669
1.93584
1.93632
1.93778
1.94017
1.94303
1.94568
1.94917
1.95295
1.9567
1.96039
1.96444
1.96848
1.97249
1.97651
1.98049
1.98446
1.98839
1.99233
1.99612
5.3698
5.12692
4.88055
4.63508
4.39432
4.16129
3.93824
3.72666
3.52738
3.34071
3.16668
3.00511
2.85568
2.71807
2.5919
2.47686
2.37274
2.27952
2.19738
2.12668
2.06763
2.02
1.98304
1.9555
1.93581
1.92235
1.9137
1.9086
1.90599
1.90524
1.90586
1.90747
1.90966
1.91286
1.91586
1.91924
1.92319
1.9271
1.93098
1.93514
1.93941
1.94358
1.94779
1.95199
1.95616
1.96032
1.96445
1.96856
1.97264
1.97674
1.98069
4.42434
4.19796
3.98041
3.77315
3.57708
3.39262
3.21981
3.05856
2.90864
2.76973
2.64154
2.52375
2.41612
2.31849
2.23088
2.1535
2.08668
2.03063
1.98518
1.94969
1.92305
1.90388
1.89073
1.88226
1.87725
1.87475
1.87418
1.87493
1.8766
1.87894
1.88211
1.88562
1.88891
1.89306
1.89722
1.90132
1.90552
1.90996
1.91435
1.91875
1.92316
1.92753
1.93187
1.9362
1.94051
1.94481
1.94908
1.95335
1.95759
1.96184
1.96595
3.42331
3.25362
3.09456
2.94596
2.80759
2.67915
2.56039
2.45105
2.35094
2.25999
2.17824
2.10593
2.04336
1.99074
1.94793
1.91435
1.88901
1.8707
1.85812
1.85
1.84525
1.84302
1.84264
1.84352
1.84532
1.84792
1.85115
1.85489
1.85838
1.8625
1.86697
1.87128
1.87552
1.88017
1.88481
1.88938
1.89398
1.89855
1.9031
1.90763
1.91213
1.91662
1.92108
1.92553
1.92997
1.9344
1.93882
1.9432
1.9476
1.95188
2.83007
2.70303
2.5849
2.47547
2.37455
2.28201
2.19784
2.12212
2.0551
1.99709
1.94824
1.90843
1.87713
1.85344
1.8363
1.82453
1.81695
1.81261
1.81072
1.81057
1.81169
1.81376
1.81656
1.81984
1.82376
1.82765
1.83179
1.83643
1.84094
1.84539
1.85013
1.85496
1.85968
1.86447
1.86926
1.874
1.87872
1.88342
1.8881
1.89275
1.89739
1.90201
1.90662
1.91121
1.9158
1.92036
1.92493
1.92946
1.934
1.93843
2.38764
2.29503
2.21003
2.13266
2.06307
2.0015
1.94826
1.90345
1.86692
1.83821
1.81646
1.80074
1.78998
1.78313
1.77933
1.77787
1.77803
1.77944
1.7818
1.78478
1.78823
1.79228
1.79661
1.80074
1.80555
1.81033
1.815
1.8198
1.82481
1.82975
1.8347
1.83968
1.8446
1.84951
1.8544
1.85926
1.86411
1.86893
1.87373
1.87852
1.88329
1.88805
1.89279
1.89752
1.90225
1.90695
1.91166
1.91633
1.92102
1.92559
2.0651
2.00167
1.94566
1.89733
1.85674
1.82372
1.79781
1.77823
1.76413
1.75458
1.74859
1.74544
1.74449
1.74504
1.74679
1.74944
1.75263
1.75633
1.76049
1.7651
1.76945
1.77434
1.77942
1.78426
1.78913
1.79435
1.79953
1.80466
1.80981
1.81493
1.82002
1.82509
1.83014
1.83516
1.84016
1.84515
1.85011
1.85506
1.85999
1.8649
1.86981
1.8747
1.87958
1.88444
1.8893
1.89414
1.89898
1.90379
1.90861
1.91333
1.84477
1.80852
1.77915
1.75619
1.73893
1.72662
1.7184
1.7134
1.71101
1.71063
1.71163
1.71375
1.71674
1.72017
1.72413
1.72847
1.73321
1.73794
1.7429
1.74819
1.75326
1.75828
1.76365
1.76902
1.7743
1.77963
1.78496
1.79024
1.7955
1.80073
1.80593
1.81111
1.81627
1.82141
1.82653
1.83163
1.83672
1.84179
1.84685
1.85189
1.85692
1.86194
1.86694
1.87194
1.87693
1.8819
1.88687
1.89181
1.89676
1.90161
1.71363
1.6988
1.68836
1.68157
1.67766
1.67609
1.67635
1.67783
1.68037
1.68372
1.68742
1.69163
1.69619
1.70111
1.70618
1.71124
1.71668
1.72202
1.72723
1.73272
1.73826
1.74371
1.74922
1.75473
1.76019
1.76562
1.77104
1.77642
1.78178
1.78712
1.79243
1.79772
1.80299
1.80824
1.81348
1.8187
1.82391
1.8291
1.83428
1.83944
1.8446
1.84974
1.85487
1.85999
1.8651
1.8702
1.87529
1.88036
1.88543
1.89041
1.64422
1.64145
1.64077
1.64168
1.64371
1.64669
1.6504
1.6544
1.65887
1.66367
1.6688
1.67413
1.67938
1.68497
1.69055
1.69594
1.70153
1.70727
1.71292
1.71858
1.72426
1.72989
1.7355
1.74109
1.74665
1.75218
1.75769
1.76318
1.76864
1.77408
1.77949
1.78489
1.79028
1.79564
1.80099
1.80633
1.81165
1.81696
1.82226
1.82754
1.83282
1.83808
1.84333
1.84857
1.8538
1.85902
1.86422
1.86941
1.8746
1.87969
1.6093
1.61275
1.61682
1.62113
1.62587
1.63092
1.63629
1.6418
1.64731
1.65307
1.65884
1.66442
1.67014
1.67606
1.68189
1.68771
1.69356
1.69937
1.70515
1.71091
1.71664
1.72234
1.72801
1.73366
1.73929
1.7449
1.75048
1.75605
1.76159
1.76711
1.77262
1.77811
1.78359
1.78905
1.7945
1.79993
1.80535
1.81076
1.81616
1.82155
1.82692
1.83229
1.83764
1.84299
1.84832
1.85364
1.85893
1.86423
1.86944
1.58765
1.59266
1.59797
1.60358
1.60926
1.61504
1.62098
1.6269
1.63269
1.63855
1.64464
1.65065
1.65663
1.66264
1.66863
1.67458
1.6805
1.6864
1.69226
1.69811
1.70392
1.70971
1.71547
1.72122
1.72694
1.73264
1.73833
1.74399
1.74964
1.75526
1.76087
1.76647
1.77205
1.77762
1.78317
1.78872
1.79425
1.79977
1.80527
1.81077
1.81625
1.82173
1.82719
1.83264
1.83808
1.84351
1.84891
1.85431
1.85962
1.57068
1.57656
1.58258
1.58871
1.59478
1.60077
1.60679
1.61304
1.61921
1.62535
1.63153
1.63768
1.64379
1.64988
1.65594
1.66197
1.66797
1.67395
1.6799
1.68582
1.69172
1.6976
1.70345
1.70929
1.71511
1.7209
1.72668
1.73245
1.73819
1.74392
1.74963
1.75533
1.76101
1.76668
1.77234
1.77798
1.78362
1.78924
1.79485
1.80045
1.80604
1.81162
1.81718
1.82274
1.82827
1.8338
1.8393
1.8448
1.85021
1.5625
1.56867
1.57487
1.58126
1.5876
1.59389
1.60023
1.60654
1.61281
1.61905
1.62528
1.63146
1.63762
1.64376
1.64986
1.65594
1.662
1.66803
1.67404
1.68003
1.68599
1.69194
1.69786
1.70377
1.70966
1.71553
1.72139
1.72723
1.73305
1.73886
1.74466
1.75044
1.75621
1.76196
1.76771
1.77344
1.77916
1.78487
1.79057
1.79626
1.80193
1.80759
1.81324
1.81887
1.82449
1.83009
1.83568
1.84118
1.54934
1.55583
1.56228
1.56877
1.57523
1.58165
1.58805
1.59443
1.60077
1.60708
1.61337
1.61963
1.62586
1.63207
1.63825
1.64441
1.65054
1.65665
1.66274
1.66882
1.67487
1.6809
1.68691
1.69291
1.69889
1.70485
1.7108
1.71673
1.72264
1.72855
1.73443
1.74031
1.74617
1.75202
1.75786
1.76369
1.7695
1.77531
1.7811
1.78688
1.79264
1.7984
1.80414
1.80986
1.81556
1.82124
1.82691
1.83249
1.54377
1.55034
1.55689
1.56341
1.5699
1.57636
1.5828
1.5892
1.59558
1.60194
1.60826
1.61457
1.62085
1.6271
1.63334
1.63955
1.64574
1.65192
1.65807
1.6642
1.67032
1.67641
1.68249
1.68856
1.69461
1.70064
1.70666
1.71267
1.71866
1.72464
1.7306
1.73655
1.74249
1.74842
1.75434
1.76024
1.76613
1.77201
1.77788
1.78373
1.78957
1.79539
1.80119
1.80698
1.81273
1.81847
1.82413
1.53224
1.53887
1.54548
1.55206
1.55861
1.56513
1.57162
1.57809
1.58454
1.59096
1.59736
1.60373
1.61008
1.61641
1.62272
1.62901
1.63528
1.64153
1.64776
1.65397
1.66017
1.66635
1.67251
1.67866
1.68479
1.69091
1.69701
1.7031
1.70918
1.71524
1.72129
1.72733
1.73335
1.73937
1.74537
1.75135
1.75733
1.76329
1.76924
1.77517
1.78108
1.78698
1.79285
1.79871
1.80453
1.81035
1.81606
1.52785
1.53451
1.54115
1.54775
1.55434
1.56089
1.56743
1.57394
1.58042
1.58689
1.59333
1.59975
1.60615
1.61254
1.6189
1.62524
1.63157
1.63787
1.64416
1.65044
1.65669
1.66294
1.66916
1.67537
1.68157
1.68776
1.69393
1.70008
1.70623
1.71236
1.71847
1.72458
1.73067
1.73675
1.74281
1.74886
1.7549
1.76092
1.76692
1.77291
1.77888
1.78482
1.79074
1.79663
1.8025
1.80827
1.51726
1.52397
1.53066
1.53733
1.54397
1.55059
1.55718
1.56376
1.57031
1.57684
1.58335
1.58984
1.59631
1.60276
1.60919
1.61561
1.622
1.62838
1.63475
1.6411
1.64743
1.65374
1.66005
1.66633
1.67261
1.67887
1.68511
1.69135
1.69756
1.70377
1.70996
1.71614
1.72231
1.72846
1.73459
1.74072
1.74682
1.75291
1.75898
1.76503
1.77106
1.77706
1.78304
1.78898
1.7949
1.80073
1.50707
1.51384
1.52059
1.52731
1.53401
1.54069
1.54734
1.55398
1.56059
1.56719
1.57376
1.58032
1.58685
1.59337
1.59987
1.60636
1.61282
1.61927
1.62571
1.63212
1.63853
1.64492
1.65129
1.65765
1.66399
1.67032
1.67664
1.68295
1.68924
1.69551
1.70177
1.70802
1.71425
1.72047
1.72667
1.73286
1.73903
1.74518
1.75131
1.75742
1.7635
1.76956
1.77559
1.78157
1.78754
1.7934
1.49728
1.5041
1.51091
1.51768
1.52444
1.53118
1.53789
1.54459
1.55126
1.55792
1.56455
1.57117
1.57777
1.58435
1.59092
1.59747
1.604
1.61052
1.61702
1.6235
1.62997
1.63643
1.64287
1.6493
1.65571
1.66211
1.66849
1.67486
1.68121
1.68756
1.69388
1.70019
1.70649
1.71277
1.71903
1.72528
1.7315
1.73771
1.74389
1.75005
1.75618
1.76228
1.76835
1.77438
1.78038
1.78627
1.48787
1.49474
1.5016
1.50843
1.51524
1.52203
1.5288
1.53556
1.54229
1.549
1.5557
1.56238
1.56904
1.57568
1.58231
1.58892
1.59552
1.6021
1.60866
1.61521
1.62174
1.62826
1.63476
1.64125
1.64773
1.65419
1.66063
1.66706
1.67348
1.67988
1.68627
1.69264
1.69899
1.70532
1.71164
1.71794
1.72421
1.73047
1.7367
1.7429
1.74908
1.75521
1.76132
1.76737
1.77339
1.7793
1.47882
1.48574
1.49265
1.49953
1.5064
1.51324
1.52007
1.52687
1.53366
1.54043
1.54719
1.55392
1.56064
1.56734
1.57403
1.5807
1.58735
1.59399
1.60061
1.60722
1.61381
1.62039
1.62695
1.6335
1.64003
1.64655
1.65305
1.65954
1.66601
1.67247
1.6789
1.68533
1.69173
1.69811
1.70448
1.71082
1.71714
1.72344
1.72971
1.73595
1.74215
1.74832
1.75444
1.76051
1.76655
1.77248
1.47011
1.47708
1.48404
1.49097
1.49788
1.50478
1.51166
1.51852
1.52536
1.53218
1.53899
1.54578
1.55255
1.55931
1.56605
1.57278
1.57948
1.58618
1.59286
1.59952
1.60617
1.6128
1.61941
1.62602
1.6326
1.63917
1.64573
1.65226
1.65878
1.66529
1.67178
1.67824
1.68469
1.69112
1.69753
1.70391
1.71026
1.71659
1.72289
1.72915
1.73538
1.74157
1.74771
1.7538
1.75984
1.76578
1.46874
1.47574
1.48273
1.48969
1.49663
1.50356
1.51047
1.51736
1.52424
1.53109
1.53793
1.54476
1.55157
1.55836
1.56514
1.5719
1.57864
1.58537
1.59208
1.59878
1.60546
1.61213
1.61878
1.62541
1.63203
1.63863
1.64521
1.65178
1.65833
1.66486
1.67137
1.67785
1.68431
1.69075
1.69717
1.70355
1.7099
1.71622
1.72251
1.72875
1.73496
1.74111
1.74721
1.75325
1.75918
1.46071
1.46776
1.47478
1.48179
1.48878
1.49576
1.50271
1.50965
1.51657
1.52348
1.53037
1.53724
1.54409
1.55093
1.55776
1.56456
1.57136
1.57813
1.58489
1.59164
1.59836
1.60507
1.61177
1.61844
1.62511
1.63175
1.63837
1.64498
1.65156
1.65812
1.66466
1.67118
1.67767
1.68413
1.69057
1.69698
1.70335
1.70969
1.71599
1.72225
1.72846
1.73462
1.74071
1.74675
1.75266
1.45297
1.46005
1.46712
1.47417
1.48121
1.48822
1.49522
1.50221
1.50917
1.51612
1.52305
1.52997
1.53687
1.54375
1.55062
1.55747
1.56431
1.57113
1.57793
1.58471
1.59148
1.59823
1.60497
1.61168
1.61838
1.62505
1.63171
1.63834
1.64496
1.65154
1.65811
1.66465
1.67117
1.67766
1.68411
1.69054
1.69693
1.70328
1.70959
1.71585
1.72206
1.72821
1.73429
1.74031
1.74621
1.45262
1.45973
1.46682
1.47389
1.48095
1.48799
1.49501
1.50202
1.50901
1.51598
1.52294
1.52988
1.5368
1.54371