/*--------------------------------*- C++ -*----------------------------------*\
| =========                 |                                                 |
| \\      /  F ield         | OpenFOAM: The Open Source CFD Toolbox           |
|  \\    /   O peration     | Version:  v1706                                 |
|   \\  /    A nd           | Web:      www.OpenFOAM.com                      |
|    \\/     M anipulation  |                                                 |
\*---------------------------------------------------------------------------*/
FoamFile
{
    version     2.0;
    format      ascii;
    class       volScalarField;
    location    "3.3e-05";
    object      mu;
}
// * * * * * * * * * * * * * * * * * * * * * * * * * * * * * * * * * * * * * //

dimensions      [1 -1 -1 0 0 0 0];


internalField   nonuniform List<scalar> 
30038
(
1.0351e-05
1.0351e-05
1.0351e-05
1.0351e-05
1.0351e-05
1.0351e-05
1.0351e-05
1.0351e-05
1.0351e-05
1.0351e-05
1.0351e-05
1.0351e-05
1.0351e-05
1.0351e-05
1.0351e-05
1.0351e-05
1.0351e-05
1.0351e-05
1.0351e-05
1.0351e-05
1.0351e-05
1.0351e-05
1.0351e-05
1.0351e-05
1.0351e-05
1.0351e-05
1.0351e-05
1.0351e-05
1.0351e-05
1.0351e-05
1.0351e-05
1.0351e-05
1.0351e-05
1.0351e-05
1.0351e-05
1.0351e-05
1.0351e-05
1.0351e-05
1.0351e-05
1.0351e-05
1.0351e-05
1.0351e-05
1.0351e-05
1.0351e-05
1.0351e-05
1.0351e-05
1.0351e-05
1.0351e-05
1.0351e-05
1.0351e-05
1.0351e-05
1.0351e-05
1.0351e-05
1.0351e-05
1.0351e-05
1.0351e-05
1.0351e-05
1.0351e-05
1.0351e-05
1.0351e-05
1.0351e-05
1.0351e-05
1.0351e-05
1.0351e-05
1.0351e-05
1.0351e-05
1.0351e-05
1.0351e-05
1.0351e-05
1.0351e-05
1.0351e-05
1.0351e-05
1.0351e-05
1.0351e-05
1.0351e-05
1.0351e-05
1.0351e-05
1.0351e-05
1.0351e-05
1.0351e-05
1.0351e-05
1.0351e-05
1.0351e-05
1.0351e-05
1.0351e-05
1.0351e-05
1.0351e-05
1.0351e-05
1.0351e-05
1.0351e-05
1.0351e-05
1.0351e-05
1.0351e-05
1.0351e-05
1.0351e-05
1.0351e-05
1.0351e-05
1.0351e-05
1.0351e-05
1.0351e-05
1.0351e-05
1.0351e-05
1.0351e-05
1.0351e-05
1.0351e-05
1.0351e-05
1.0351e-05
1.0351e-05
1.0351e-05
1.0351e-05
1.0351e-05
1.0351e-05
1.0351e-05
1.0351e-05
1.0351e-05
1.0351e-05
1.0351e-05
1.0351e-05
1.0351e-05
1.0351e-05
1.0351e-05
1.0351e-05
1.0351e-05
1.0351e-05
1.0351e-05
1.0351e-05
1.0351e-05
1.0351e-05
1.0351e-05
1.0351e-05
1.0351e-05
1.0351e-05
1.0351e-05
1.0351e-05
1.0351e-05
1.0351e-05
1.0351e-05
1.0351e-05
1.0351e-05
1.0351e-05
1.0351e-05
1.0351e-05
1.0351e-05
1.0351e-05
1.0351e-05
1.0351e-05
1.0351e-05
1.0351e-05
1.0351e-05
1.0351e-05
1.0351e-05
1.0351e-05
1.0351e-05
1.0351e-05
1.0351e-05
1.0351e-05
1.0351e-05
1.0351e-05
1.0351e-05
1.0351e-05
1.0351e-05
1.0351e-05
1.0351e-05
1.0351e-05
1.0351e-05
1.0351e-05
1.0351e-05
1.0351e-05
1.0351e-05
1.0351e-05
1.0351e-05
1.0351e-05
1.0351e-05
1.0351e-05
1.0351e-05
1.0351e-05
1.0351e-05
1.0351e-05
1.0351e-05
1.0351e-05
1.0351e-05
1.0351e-05
1.0351e-05
1.0351e-05
1.0351e-05
1.0351e-05
1.0351e-05
1.0351e-05
1.0351e-05
1.0351e-05
1.0351e-05
1.0351e-05
1.0351e-05
1.0351e-05
1.0351e-05
1.0351e-05
1.0351e-05
1.0351e-05
1.0351e-05
1.0351e-05
1.0351e-05
1.0351e-05
1.0351e-05
1.0351e-05
1.0351e-05
1.0351e-05
1.0351e-05
1.0351e-05
1.0351e-05
1.0351e-05
1.0351e-05
1.0351e-05
1.0351e-05
1.0351e-05
1.0351e-05
1.0351e-05
1.0351e-05
1.0351e-05
1.0351e-05
1.0351e-05
1.0351e-05
1.0351e-05
1.0351e-05
1.0351e-05
1.0351e-05
1.0351e-05
1.0351e-05
1.0351e-05
1.0351e-05
1.0351e-05
1.0351e-05
1.0351e-05
1.0351e-05
1.0351e-05
1.0351e-05
1.0351e-05
1.0351e-05
1.0351e-05
1.0351e-05
1.0351e-05
1.0351e-05
1.0351e-05
1.0351e-05
1.0351e-05
1.0351e-05
1.0351e-05
1.0351e-05
1.0351e-05
1.0351e-05
1.0351e-05
1.0351e-05
1.0351e-05
1.0351e-05
1.0351e-05
1.0351e-05
1.0351e-05
1.0351e-05
1.0351e-05
1.0351e-05
1.0351e-05
1.0351e-05
1.0351e-05
1.0351e-05
1.0351e-05
1.0351e-05
1.0351e-05
1.0351e-05
1.0351e-05
1.0351e-05
1.0351e-05
1.0351e-05
1.0351e-05
1.0351e-05
1.0351e-05
1.0351e-05
1.0351e-05
1.0351e-05
1.0351e-05
1.0351e-05
1.0351e-05
1.0351e-05
1.0351e-05
1.0351e-05
1.0351e-05
1.0351e-05
1.0351e-05
1.0351e-05
1.0351e-05
1.0351e-05
1.0351e-05
1.0351e-05
1.0351e-05
1.0351e-05
1.0351e-05
1.0351e-05
1.0351e-05
1.0351e-05
1.0351e-05
1.0351e-05
1.0351e-05
1.0351e-05
1.0351e-05
1.0351e-05
1.0351e-05
1.0351e-05
1.0351e-05
1.0351e-05
1.0351e-05
1.0351e-05
1.0351e-05
1.0351e-05
1.0351e-05
1.0351e-05
1.0351e-05
1.0351e-05
1.0351e-05
1.0351e-05
1.0351e-05
1.0351e-05
1.0351e-05
1.0351e-05
1.0351e-05
1.0351e-05
1.0351e-05
1.0351e-05
1.0351e-05
1.0351e-05
1.0351e-05
1.0351e-05
1.0351e-05
1.0351e-05
1.0351e-05
1.0351e-05
1.0351e-05
1.0351e-05
1.0351e-05
1.0351e-05
1.0351e-05
1.0351e-05
1.0351e-05
1.0351e-05
1.0351e-05
1.0351e-05
1.0351e-05
1.0351e-05
1.0351e-05
1.0351e-05
1.0351e-05
1.0351e-05
1.0351e-05
1.0351e-05
1.0351e-05
1.0351e-05
1.0351e-05
1.0351e-05
1.0351e-05
1.0351e-05
1.0351e-05
1.0351e-05
1.0351e-05
1.0351e-05
1.0351e-05
1.0351e-05
1.0351e-05
1.0351e-05
1.0351e-05
1.0351e-05
1.0351e-05
1.0351e-05
1.0351e-05
1.0351e-05
1.0351e-05
1.0351e-05
1.0351e-05
1.0351e-05
1.0351e-05
1.0351e-05
1.0351e-05
1.0351e-05
1.0351e-05
1.0351e-05
1.0351e-05
1.0351e-05
1.0351e-05
1.0351e-05
1.0351e-05
1.0351e-05
1.0351e-05
1.0351e-05
1.0351e-05
1.0351e-05
1.0351e-05
1.0351e-05
1.0351e-05
1.0351e-05
1.0351e-05
1.0351e-05
1.0351e-05
1.0351e-05
1.0351e-05
1.0351e-05
1.0351e-05
1.0351e-05
1.0351e-05
1.0351e-05
1.0351e-05
1.0351e-05
1.0351e-05
1.0351e-05
1.0351e-05
1.0351e-05
1.0351e-05
1.0351e-05
1.0351e-05
1.0351e-05
1.0351e-05
1.0351e-05
1.0351e-05
1.0351e-05
1.0351e-05
1.0351e-05
1.0351e-05
1.0351e-05
1.0351e-05
1.0351e-05
1.0351e-05
1.0351e-05
1.0351e-05
1.0351e-05
1.0351e-05
1.0351e-05
1.0351e-05
1.0351e-05
1.0351e-05
1.0351e-05
1.0351e-05
1.0351e-05
1.0351e-05
1.0351e-05
1.0351e-05
1.0351e-05
1.0351e-05
1.0351e-05
1.0351e-05
1.0351e-05
1.0351e-05
1.0351e-05
1.0351e-05
1.0351e-05
1.0351e-05
1.0351e-05
1.0351e-05
1.0351e-05
1.0351e-05
1.0351e-05
1.0351e-05
1.0351e-05
1.0351e-05
1.0351e-05
1.0351e-05
1.0351e-05
1.0351e-05
1.0351e-05
1.0351e-05
1.0351e-05
1.0351e-05
1.0351e-05
1.0351e-05
1.0351e-05
1.0351e-05
1.0351e-05
1.0351e-05
1.0351e-05
1.0351e-05
1.0351e-05
1.0351e-05
1.0351e-05
1.0351e-05
1.0351e-05
1.0351e-05
1.0351e-05
1.0351e-05
1.0351e-05
1.0351e-05
1.0351e-05
1.0351e-05
1.0351e-05
1.0351e-05
1.0351e-05
1.0351e-05
1.0351e-05
1.0351e-05
1.0351e-05
1.0351e-05
1.0351e-05
1.0351e-05
1.0351e-05
1.0351e-05
1.0351e-05
1.0351e-05
1.0351e-05
1.0351e-05
1.0351e-05
1.0351e-05
1.0351e-05
1.0351e-05
1.0351e-05
1.0351e-05
1.0351e-05
1.0351e-05
1.0351e-05
1.0351e-05
1.0351e-05
1.0351e-05
1.0351e-05
1.0351e-05
1.0351e-05
1.0351e-05
1.0351e-05
1.0351e-05
1.0351e-05
1.0351e-05
1.0351e-05
1.0351e-05
1.0351e-05
1.0351e-05
1.0351e-05
1.0351e-05
1.0351e-05
1.0351e-05
1.0351e-05
1.0351e-05
1.0351e-05
1.0351e-05
1.0351e-05
1.0351e-05
1.0351e-05
1.0351e-05
1.0351e-05
1.0351e-05
1.0351e-05
1.0351e-05
1.0351e-05
1.0351e-05
1.0351e-05
1.0351e-05
1.0351e-05
1.0351e-05
1.0351e-05
1.0351e-05
1.0351e-05
1.0351e-05
1.0351e-05
1.0351e-05
1.0351e-05
1.0351e-05
1.0351e-05
1.0351e-05
1.0351e-05
1.0351e-05
1.0351e-05
1.0351e-05
1.0351e-05
1.0351e-05
1.0351e-05
1.0351e-05
1.0351e-05
1.0351e-05
1.0351e-05
1.0351e-05
1.0351e-05
1.0351e-05
1.0351e-05
1.0351e-05
1.0351e-05
1.0351e-05
1.0351e-05
1.0351e-05
1.0351e-05
1.0351e-05
1.0351e-05
1.0351e-05
1.0351e-05
1.0351e-05
1.0351e-05
1.0351e-05
1.0351e-05
1.0351e-05
1.0351e-05
1.0351e-05
1.0351e-05
1.0351e-05
1.0351e-05
1.0351e-05
1.0351e-05
1.0351e-05
1.0351e-05
1.0351e-05
1.0351e-05
1.0351e-05
1.0351e-05
1.0351e-05
1.0351e-05
1.0351e-05
1.0351e-05
1.0351e-05
1.0351e-05
1.0351e-05
1.0351e-05
1.0351e-05
1.0351e-05
1.0351e-05
1.0351e-05
1.0351e-05
1.0351e-05
1.0351e-05
1.0351e-05
1.0351e-05
1.0351e-05
1.0351e-05
1.0351e-05
1.0351e-05
1.0351e-05
1.0351e-05
1.0351e-05
1.0351e-05
1.0351e-05
1.0351e-05
1.0351e-05
1.0351e-05
1.0351e-05
1.0351e-05
1.0351e-05
1.0351e-05
1.0351e-05
1.0351e-05
1.0351e-05
1.0351e-05
1.0351e-05
1.0351e-05
1.0351e-05
1.0351e-05
1.0351e-05
1.0351e-05
1.0351e-05
1.0351e-05
1.0351e-05
1.0351e-05
1.0351e-05
1.0351e-05
1.0351e-05
1.0351e-05
1.0351e-05
1.0351e-05
1.0351e-05
1.0351e-05
1.0351e-05
1.0351e-05
1.0351e-05
1.0351e-05
1.0351e-05
1.0351e-05
1.0351e-05
1.0351e-05
1.0351e-05
1.0351e-05
1.0351e-05
1.0351e-05
1.0351e-05
1.0351e-05
1.0351e-05
1.0351e-05
1.0351e-05
1.0351e-05
1.0351e-05
1.0351e-05
1.0351e-05
1.0351e-05
1.0351e-05
1.0351e-05
1.0351e-05
1.0351e-05
1.0351e-05
1.0351e-05
1.0351e-05
1.0351e-05
1.0351e-05
1.0351e-05
1.0351e-05
1.0351e-05
1.0351e-05
1.0351e-05
1.0351e-05
1.0351e-05
1.0351e-05
1.0351e-05
1.0351e-05
1.0351e-05
1.0351e-05
1.0351e-05
1.0351e-05
1.0351e-05
1.0351e-05
1.0351e-05
1.0351e-05
1.0351e-05
1.0351e-05
1.0351e-05
1.0351e-05
1.0351e-05
1.0351e-05
1.0351e-05
1.0351e-05
1.0351e-05
1.0351e-05
1.0351e-05
1.0351e-05
1.0351e-05
1.0351e-05
1.0351e-05
1.0351e-05
1.0351e-05
1.0351e-05
1.0351e-05
1.0351e-05
1.0351e-05
1.0351e-05
1.0351e-05
1.0351e-05
1.0351e-05
1.0351e-05
1.0351e-05
1.0351e-05
1.0351e-05
1.0351e-05
1.0351e-05
1.0351e-05
1.0351e-05
1.0351e-05
1.0351e-05
1.0351e-05
1.0351e-05
1.0351e-05
1.0351e-05
1.0351e-05
1.0351e-05
1.0351e-05
1.0351e-05
1.0351e-05
1.0351e-05
1.0351e-05
1.0351e-05
1.0351e-05
1.0351e-05
1.0351e-05
1.0351e-05
1.0351e-05
1.0351e-05
1.0351e-05
1.0351e-05
1.0351e-05
1.0351e-05
1.0351e-05
1.0351e-05
1.0351e-05
1.0351e-05
1.0351e-05
1.0351e-05
1.0351e-05
1.0351e-05
1.0351e-05
1.0351e-05
1.0351e-05
1.0351e-05
1.0351e-05
1.0351e-05
1.0351e-05
1.0351e-05
1.0351e-05
1.0351e-05
1.0351e-05
1.0351e-05
1.0351e-05
1.0351e-05
1.0351e-05
1.0351e-05
1.0351e-05
1.0351e-05
1.0351e-05
1.0351e-05
1.0351e-05
1.0351e-05
1.0351e-05
1.0351e-05
1.0351e-05
1.0351e-05
1.0351e-05
1.0351e-05
1.0351e-05
1.0351e-05
1.0351e-05
1.0351e-05
1.0351e-05
1.0351e-05
1.0351e-05
1.0351e-05
1.0351e-05
1.0351e-05
1.0351e-05
1.0351e-05
1.0351e-05
1.0351e-05
1.0351e-05
1.0351e-05
1.0351e-05
1.0351e-05
1.0351e-05
1.0351e-05
1.0351e-05
1.0351e-05
1.0351e-05
1.0351e-05
1.0351e-05
1.0351e-05
1.0351e-05
1.0351e-05
1.0351e-05
1.0351e-05
1.0351e-05
1.0351e-05
1.0351e-05
1.0351e-05
1.0351e-05
1.0351e-05
1.0351e-05
1.0351e-05
1.0351e-05
1.0351e-05
1.0351e-05
1.0351e-05
1.0351e-05
1.0351e-05
1.0351e-05
1.0351e-05
1.0351e-05
1.0351e-05
1.0351e-05
1.0351e-05
1.0351e-05
1.0351e-05
1.0351e-05
1.0351e-05
1.0351e-05
1.0351e-05
1.0351e-05
1.0351e-05
1.0351e-05
1.0351e-05
1.0351e-05
1.0351e-05
1.0351e-05
1.0351e-05
1.0351e-05
1.0351e-05
1.0351e-05
1.0351e-05
1.0351e-05
1.0351e-05
1.0351e-05
1.0351e-05
1.0351e-05
1.0351e-05
1.0351e-05
1.0351e-05
1.0351e-05
1.0351e-05
1.0351e-05
1.0351e-05
1.0351e-05
1.0351e-05
1.0351e-05
1.0351e-05
1.0351e-05
1.0351e-05
1.0351e-05
1.0351e-05
1.0351e-05
1.0351e-05
1.0351e-05
1.0351e-05
1.0351e-05
1.0351e-05
1.0351e-05
1.0351e-05
1.0351e-05
1.0351e-05
1.0351e-05
1.0351e-05
1.0351e-05
1.0351e-05
1.0351e-05
1.0351e-05
1.0351e-05
1.0351e-05
1.0351e-05
1.0351e-05
1.0351e-05
1.0351e-05
1.0351e-05
1.0351e-05
1.0351e-05
1.0351e-05
1.0351e-05
1.0351e-05
1.0351e-05
1.0351e-05
1.0351e-05
1.0351e-05
1.0351e-05
1.0351e-05
1.0351e-05
1.0351e-05
1.0351e-05
1.0351e-05
1.0351e-05
1.0351e-05
1.0351e-05
1.0351e-05
1.0351e-05
1.0351e-05
1.0351e-05
1.0351e-05
1.0351e-05
1.0351e-05
1.0351e-05
1.0351e-05
1.0351e-05
1.0351e-05
1.0351e-05
1.0351e-05
1.0351e-05
1.0351e-05
1.0351e-05
1.0351e-05
1.0351e-05
1.0351e-05
1.0351e-05
1.0351e-05
1.0351e-05
1.0351e-05
1.0351e-05
1.0351e-05
1.0351e-05
1.0351e-05
1.0351e-05
1.0351e-05
1.0351e-05
1.0351e-05
1.0351e-05
1.0351e-05
1.0351e-05
1.0351e-05
1.0351e-05
1.0351e-05
1.0351e-05
1.0351e-05
1.0351e-05
1.0351e-05
1.0351e-05
1.0351e-05
1.0351e-05
1.0351e-05
1.0351e-05
1.0351e-05
1.0351e-05
1.0351e-05
1.0351e-05
1.0351e-05
1.0351e-05
1.0351e-05
1.0351e-05
1.0351e-05
1.0351e-05
1.0351e-05
1.0351e-05
1.0351e-05
1.0351e-05
1.0351e-05
1.0351e-05
1.0351e-05
1.0351e-05
1.0351e-05
1.0351e-05
1.0351e-05
1.0351e-05
1.0351e-05
1.0351e-05
1.0351e-05
1.0351e-05
1.0351e-05
1.0351e-05
1.0351e-05
1.0351e-05
1.0351e-05
1.0351e-05
1.0351e-05
1.0351e-05
1.0351e-05
1.0351e-05
1.0351e-05
1.0351e-05
1.0351e-05
1.0351e-05
1.0351e-05
1.0351e-05
1.0351e-05
1.0351e-05
1.0351e-05
1.0351e-05
1.0351e-05
1.0351e-05
1.0351e-05
1.0351e-05
1.0351e-05
1.0351e-05
1.0351e-05
1.0351e-05
1.0351e-05
1.0351e-05
1.0351e-05
1.0351e-05
1.0351e-05
1.0351e-05
1.0351e-05
1.0351e-05
1.0351e-05
1.0351e-05
1.0351e-05
1.0351e-05
1.0351e-05
1.0351e-05
1.0351e-05
1.0351e-05
1.0351e-05
1.0351e-05
1.0351e-05
1.0351e-05
1.0351e-05
1.0351e-05
1.0351e-05
1.0351e-05
1.0351e-05
1.0351e-05
1.0351e-05
1.0351e-05
1.0351e-05
1.0351e-05
1.0351e-05
1.0351e-05
1.0351e-05
1.0351e-05
1.0351e-05
1.0351e-05
1.0351e-05
1.0351e-05
1.0351e-05
1.0351e-05
1.0351e-05
1.0351e-05
1.0351e-05
1.0351e-05
1.0351e-05
1.0351e-05
1.0351e-05
1.0351e-05
1.0351e-05
1.0351e-05
1.0351e-05
1.0351e-05
1.0351e-05
1.0351e-05
1.0351e-05
1.0351e-05
1.0351e-05
1.0351e-05
1.0351e-05
1.0351e-05
1.0351e-05
1.0351e-05
1.0351e-05
1.0351e-05
1.0351e-05
1.0351e-05
1.0351e-05
1.0351e-05
1.0351e-05
1.0351e-05
1.0351e-05
1.0351e-05
1.0351e-05
1.0351e-05
1.0351e-05
1.0351e-05
1.0351e-05
1.0351e-05
1.0351e-05
1.0351e-05
1.0351e-05
1.0351e-05
1.0351e-05
1.0351e-05
1.0351e-05
1.0351e-05
1.0351e-05
1.0351e-05
1.0351e-05
1.0351e-05
1.0351e-05
1.0351e-05
1.0351e-05
1.0351e-05
1.0351e-05
1.0351e-05
1.0351e-05
1.0351e-05
1.0351e-05
1.0351e-05
1.0351e-05
1.0351e-05
1.0351e-05
1.0351e-05
1.0351e-05
1.0351e-05
1.0351e-05
1.0351e-05
1.0351e-05
1.0351e-05
1.0351e-05
1.0351e-05
1.0351e-05
1.0351e-05
1.0351e-05
1.0351e-05
1.0351e-05
1.0351e-05
1.0351e-05
1.0351e-05
1.0351e-05
1.0351e-05
1.0351e-05
1.0351e-05
1.0351e-05
1.0351e-05
1.0351e-05
1.0351e-05
1.0351e-05
1.0351e-05
1.0351e-05
1.0351e-05
1.0351e-05
1.0351e-05
1.0351e-05
1.0351e-05
1.0351e-05
1.0351e-05
1.0351e-05
1.0351e-05
1.0351e-05
1.0351e-05
1.0351e-05
1.0351e-05
1.0351e-05
1.0351e-05
1.0351e-05
1.0351e-05
1.0351e-05
1.0351e-05
1.0351e-05
1.0351e-05
1.0351e-05
1.0351e-05
1.0351e-05
1.0351e-05
1.0351e-05
1.0351e-05
1.0351e-05
1.0351e-05
1.0351e-05
1.0351e-05
1.0351e-05
1.0351e-05
1.0351e-05
1.0351e-05
1.0351e-05
1.0351e-05
1.0351e-05
1.0351e-05
1.0351e-05
1.0351e-05
1.0351e-05
1.0351e-05
1.0351e-05
1.0351e-05
1.0351e-05
1.0351e-05
1.0351e-05
1.0351e-05
1.0351e-05
1.0351e-05
1.0351e-05
1.0351e-05
1.0351e-05
1.0351e-05
1.0351e-05
1.0351e-05
1.0351e-05
1.0351e-05
1.0351e-05
1.0351e-05
1.0351e-05
1.0351e-05
1.0351e-05
1.0351e-05
1.0351e-05
1.0351e-05
1.0351e-05
1.0351e-05
1.0351e-05
1.0351e-05
1.0351e-05
1.0351e-05
1.0351e-05
1.0351e-05
1.0351e-05
1.0351e-05
1.0351e-05
1.0351e-05
1.0351e-05
1.0351e-05
1.03511e-05
1.03511e-05
1.03511e-05
1.0351e-05
1.0351e-05
1.0351e-05
1.0351e-05
1.0351e-05
1.0351e-05
1.0351e-05
1.0351e-05
1.0351e-05
1.0351e-05
1.0351e-05
1.0351e-05
1.0351e-05
1.0351e-05
1.0351e-05
1.0351e-05
1.0351e-05
1.0351e-05
1.0351e-05
1.0351e-05
1.0351e-05
1.0351e-05
1.0351e-05
1.0351e-05
1.0351e-05
1.0351e-05
1.0351e-05
1.0351e-05
1.0351e-05
1.0351e-05
1.0351e-05
1.0351e-05
1.0351e-05
1.0351e-05
1.0351e-05
1.0351e-05
1.0351e-05
1.0351e-05
1.0351e-05
1.0351e-05
1.0351e-05
1.0351e-05
1.0351e-05
1.0351e-05
1.03511e-05
1.03511e-05
1.03511e-05
1.03512e-05
1.03513e-05
1.03515e-05
1.0351e-05
1.0351e-05
1.0351e-05
1.0351e-05
1.0351e-05
1.0351e-05
1.0351e-05
1.0351e-05
1.0351e-05
1.0351e-05
1.0351e-05
1.0351e-05
1.0351e-05
1.0351e-05
1.0351e-05
1.0351e-05
1.0351e-05
1.0351e-05
1.0351e-05
1.0351e-05
1.0351e-05
1.0351e-05
1.0351e-05
1.0351e-05
1.0351e-05
1.0351e-05
1.0351e-05
1.0351e-05
1.0351e-05
1.0351e-05
1.0351e-05
1.0351e-05
1.0351e-05
1.0351e-05
1.0351e-05
1.0351e-05
1.0351e-05
1.0351e-05
1.0351e-05
1.0351e-05
1.0351e-05
1.03511e-05
1.03511e-05
1.03511e-05
1.03512e-05
1.03513e-05
1.03515e-05
1.03518e-05
1.03522e-05
1.03528e-05
1.0351e-05
1.0351e-05
1.0351e-05
1.0351e-05
1.0351e-05
1.0351e-05
1.0351e-05
1.0351e-05
1.0351e-05
1.0351e-05
1.0351e-05
1.0351e-05
1.0351e-05
1.0351e-05
1.0351e-05
1.0351e-05
1.0351e-05
1.0351e-05
1.0351e-05
1.0351e-05
1.0351e-05
1.0351e-05
1.0351e-05
1.0351e-05
1.0351e-05
1.0351e-05
1.0351e-05
1.0351e-05
1.0351e-05
1.0351e-05
1.0351e-05
1.0351e-05
1.0351e-05
1.0351e-05
1.0351e-05
1.0351e-05
1.0351e-05
1.0351e-05
1.03511e-05
1.03511e-05
1.03512e-05
1.03512e-05
1.03513e-05
1.03515e-05
1.03518e-05
1.03522e-05
1.03528e-05
1.03537e-05
1.03551e-05
1.03574e-05
1.0351e-05
1.0351e-05
1.0351e-05
1.0351e-05
1.0351e-05
1.0351e-05
1.0351e-05
1.0351e-05
1.0351e-05
1.0351e-05
1.0351e-05
1.0351e-05
1.0351e-05
1.0351e-05
1.0351e-05
1.0351e-05
1.0351e-05
1.0351e-05
1.0351e-05
1.0351e-05
1.0351e-05
1.0351e-05
1.0351e-05
1.0351e-05
1.0351e-05
1.0351e-05
1.0351e-05
1.0351e-05
1.0351e-05
1.0351e-05
1.0351e-05
1.0351e-05
1.0351e-05
1.0351e-05
1.03511e-05
1.03511e-05
1.03511e-05
1.03512e-05
1.03512e-05
1.03514e-05
1.03515e-05
1.03518e-05
1.03522e-05
1.03528e-05
1.03538e-05
1.03552e-05
1.03573e-05
1.03605e-05
1.03655e-05
1.03734e-05
1.0351e-05
1.0351e-05
1.0351e-05
1.0351e-05
1.0351e-05
1.0351e-05
1.0351e-05
1.0351e-05
1.0351e-05
1.0351e-05
1.0351e-05
1.0351e-05
1.0351e-05
1.0351e-05
1.0351e-05
1.0351e-05
1.0351e-05
1.0351e-05
1.0351e-05
1.0351e-05
1.0351e-05
1.0351e-05
1.0351e-05
1.0351e-05
1.0351e-05
1.0351e-05
1.0351e-05
1.0351e-05
1.0351e-05
1.0351e-05
1.0351e-05
1.03511e-05
1.03511e-05
1.03511e-05
1.03512e-05
1.03513e-05
1.03514e-05
1.03516e-05
1.03519e-05
1.03523e-05
1.03529e-05
1.03539e-05
1.03553e-05
1.03574e-05
1.03606e-05
1.03654e-05
1.03727e-05
1.03838e-05
1.04007e-05
1.04271e-05
1.0351e-05
1.0351e-05
1.0351e-05
1.0351e-05
1.0351e-05
1.0351e-05
1.0351e-05
1.0351e-05
1.0351e-05
1.0351e-05
1.0351e-05
1.0351e-05
1.0351e-05
1.0351e-05
1.0351e-05
1.0351e-05
1.0351e-05
1.0351e-05
1.0351e-05
1.0351e-05
1.0351e-05
1.0351e-05
1.0351e-05
1.0351e-05
1.0351e-05
1.0351e-05
1.0351e-05
1.0351e-05
1.03511e-05
1.03511e-05
1.03511e-05
1.03512e-05
1.03513e-05
1.03514e-05
1.03517e-05
1.0352e-05
1.03524e-05
1.03531e-05
1.03541e-05
1.03555e-05
1.03577e-05
1.03609e-05
1.03658e-05
1.0373e-05
1.03838e-05
1.04001e-05
1.04244e-05
1.04611e-05
1.05166e-05
1.06019e-05
1.0351e-05
1.0351e-05
1.0351e-05
1.0351e-05
1.0351e-05
1.0351e-05
1.0351e-05
1.0351e-05
1.0351e-05
1.0351e-05
1.0351e-05
1.0351e-05
1.0351e-05
1.0351e-05
1.0351e-05
1.0351e-05
1.0351e-05
1.0351e-05
1.0351e-05
1.0351e-05
1.0351e-05
1.0351e-05
1.0351e-05
1.0351e-05
1.03511e-05
1.03511e-05
1.03511e-05
1.03512e-05
1.03512e-05
1.03513e-05
1.03515e-05
1.03517e-05
1.03521e-05
1.03525e-05
1.03533e-05
1.03543e-05
1.03558e-05
1.03581e-05
1.03614e-05
1.03664e-05
1.03737e-05
1.03846e-05
1.04008e-05
1.04248e-05
1.04605e-05
1.05135e-05
1.0592e-05
1.07083e-05
1.08802e-05
1.11349e-05
1.0351e-05
1.0351e-05
1.0351e-05
1.0351e-05
1.0351e-05
1.0351e-05
1.0351e-05
1.0351e-05
1.0351e-05
1.0351e-05
1.0351e-05
1.0351e-05
1.0351e-05
1.0351e-05
1.0351e-05
1.0351e-05
1.0351e-05
1.0351e-05
1.0351e-05
1.0351e-05
1.0351e-05
1.03511e-05
1.03511e-05
1.03511e-05
1.03512e-05
1.03513e-05
1.03514e-05
1.03516e-05
1.03518e-05
1.03522e-05
1.03527e-05
1.03535e-05
1.03546e-05
1.03563e-05
1.03587e-05
1.03622e-05
1.03674e-05
1.03749e-05
1.03861e-05
1.04025e-05
1.04266e-05
1.04621e-05
1.05144e-05
1.05913e-05
1.07036e-05
1.0867e-05
1.11026e-05
1.14378e-05
1.19079e-05
1.25554e-05
1.0351e-05
1.0351e-05
1.0351e-05
1.0351e-05
1.0351e-05
1.0351e-05
1.0351e-05
1.0351e-05
1.0351e-05
1.0351e-05
1.0351e-05
1.0351e-05
1.0351e-05
1.0351e-05
1.0351e-05
1.0351e-05
1.0351e-05
1.03511e-05
1.03511e-05
1.03511e-05
1.03512e-05
1.03512e-05
1.03513e-05
1.03515e-05
1.03517e-05
1.0352e-05
1.03524e-05
1.0353e-05
1.03538e-05
1.03551e-05
1.03569e-05
1.03595e-05
1.03632e-05
1.03687e-05
1.03767e-05
1.03883e-05
1.04052e-05
1.04299e-05
1.0466e-05
1.05186e-05
1.05951e-05
1.07062e-05
1.08662e-05
1.10947e-05
1.14169e-05
1.18631e-05
1.2467e-05
1.32621e-05
1.42774e-05
1.55303e-05
1.0351e-05
1.0351e-05
1.0351e-05
1.0351e-05
1.0351e-05
1.0351e-05
1.0351e-05
1.0351e-05
1.0351e-05
1.0351e-05
1.0351e-05
1.0351e-05
1.0351e-05
1.03511e-05
1.03511e-05
1.03511e-05
1.03512e-05
1.03512e-05
1.03513e-05
1.03514e-05
1.03516e-05
1.03518e-05
1.03521e-05
1.03526e-05
1.03533e-05
1.03543e-05
1.03557e-05
1.03577e-05
1.03605e-05
1.03646e-05
1.03705e-05
1.03791e-05
1.03914e-05
1.04092e-05
1.0435e-05
1.04722e-05
1.0526e-05
1.06037e-05
1.07153e-05
1.08747e-05
1.11005e-05
1.14163e-05
1.18504e-05
1.24339e-05
1.31971e-05
1.41643e-05
1.53484e-05
1.67475e-05
1.83461e-05
2.01119e-05
1.0351e-05
1.0351e-05
1.0351e-05
1.0351e-05
1.0351e-05
1.0351e-05
1.0351e-05
1.0351e-05
1.0351e-05
1.03511e-05
1.03511e-05
1.03511e-05
1.03511e-05
1.03512e-05
1.03513e-05
1.03514e-05
1.03515e-05
1.03517e-05
1.0352e-05
1.03524e-05
1.03529e-05
1.03537e-05
1.03548e-05
1.03564e-05
1.03587e-05
1.03619e-05
1.03664e-05
1.03729e-05
1.03822e-05
1.03955e-05
1.04146e-05
1.04419e-05
1.04811e-05
1.05372e-05
1.06173e-05
1.07315e-05
1.0893e-05
1.11198e-05
1.14341e-05
1.18628e-05
1.24349e-05
1.31787e-05
1.41171e-05
1.52619e-05
1.66112e-05
1.81473e-05
1.98403e-05
2.16516e-05
2.35413e-05
2.54613e-05
1.0351e-05
1.0351e-05
1.0351e-05
1.0351e-05
1.0351e-05
1.03511e-05
1.03511e-05
1.03511e-05
1.03511e-05
1.03512e-05
1.03512e-05
1.03513e-05
1.03515e-05
1.03516e-05
1.03519e-05
1.03522e-05
1.03527e-05
1.03534e-05
1.03543e-05
1.03556e-05
1.03574e-05
1.036e-05
1.03637e-05
1.03688e-05
1.03761e-05
1.03864e-05
1.0401e-05
1.04218e-05
1.04513e-05
1.04932e-05
1.05526e-05
1.06367e-05
1.07554e-05
1.09218e-05
1.11531e-05
1.14708e-05
1.19002e-05
1.24684e-05
1.3202e-05
1.41219e-05
1.52394e-05
1.65529e-05
1.80467e-05
1.9693e-05
2.14549e-05
2.32913e-05
2.51582e-05
2.70109e-05
2.88109e-05
3.05273e-05
1.0351e-05
1.03511e-05
1.03511e-05
1.03511e-05
1.03511e-05
1.03512e-05
1.03512e-05
1.03513e-05
1.03514e-05
1.03516e-05
1.03518e-05
1.03521e-05
1.03525e-05
1.03531e-05
1.03539e-05
1.0355e-05
1.03566e-05
1.03588e-05
1.03618e-05
1.0366e-05
1.03719e-05
1.03802e-05
1.03918e-05
1.04082e-05
1.04312e-05
1.04636e-05
1.05091e-05
1.05732e-05
1.0663e-05
1.07884e-05
1.09625e-05
1.12022e-05
1.1528e-05
1.19639e-05
1.25356e-05
1.32672e-05
1.41779e-05
1.52778e-05
1.65651e-05
1.80254e-05
1.9633e-05
2.13542e-05
2.31511e-05
2.49832e-05
2.68075e-05
2.85843e-05
3.02773e-05
3.18483e-05
3.32513e-05
3.44579e-05
1.03511e-05
1.03511e-05
1.03512e-05
1.03512e-05
1.03513e-05
1.03514e-05
1.03516e-05
1.03518e-05
1.03521e-05
1.03525e-05
1.0353e-05
1.03537e-05
1.03547e-05
1.0356e-05
1.03579e-05
1.03605e-05
1.03641e-05
1.03691e-05
1.0376e-05
1.03855e-05
1.03989e-05
1.04175e-05
1.04434e-05
1.04796e-05
1.053e-05
1.06001e-05
1.06975e-05
1.08322e-05
1.10172e-05
1.12691e-05
1.16079e-05
1.20564e-05
1.26383e-05
1.33759e-05
1.42861e-05
1.53772e-05
1.66469e-05
1.80813e-05
1.96567e-05
2.13419e-05
2.31017e-05
2.48994e-05
2.66962e-05
2.84536e-05
3.01378e-05
3.17148e-05
3.31437e-05
3.4382e-05
3.54016e-05
3.61954e-05
3.67962e-05
1.03513e-05
1.03514e-05
1.03516e-05
1.03518e-05
1.03521e-05
1.03524e-05
1.03529e-05
1.03536e-05
1.03545e-05
1.03557e-05
1.03574e-05
1.03597e-05
1.03629e-05
1.03672e-05
1.03731e-05
1.03813e-05
1.03926e-05
1.04082e-05
1.04296e-05
1.04593e-05
1.05004e-05
1.0557e-05
1.06351e-05
1.07424e-05
1.08892e-05
1.10887e-05
1.13572e-05
1.17142e-05
1.21812e-05
1.27803e-05
1.35314e-05
1.4449e-05
1.55395e-05
1.67993e-05
1.8215e-05
1.9764e-05
2.14173e-05
2.31425e-05
2.49059e-05
2.66725e-05
2.84064e-05
3.00756e-05
3.16496e-05
3.3094e-05
3.43687e-05
3.54407e-05
3.62956e-05
3.69433e-05
3.7413e-05
3.7738e-05
3.79636e-05
1.03518e-05
1.03521e-05
1.03524e-05
1.03529e-05
1.03535e-05
1.03544e-05
1.03556e-05
1.03571e-05
1.03593e-05
1.03621e-05
1.0366e-05
1.03714e-05
1.03786e-05
1.03885e-05
1.0402e-05
1.04204e-05
1.04456e-05
1.04802e-05
1.05275e-05
1.05921e-05
1.06804e-05
1.08003e-05
1.09626e-05
1.11807e-05
1.14707e-05
1.18514e-05
1.23432e-05
1.29663e-05
1.3738e-05
1.46703e-05
1.57674e-05
1.70244e-05
1.84275e-05
1.99552e-05
2.15805e-05
2.32733e-05
2.50027e-05
2.67373e-05
2.8444e-05
3.00924e-05
3.1655e-05
3.31021e-05
3.43983e-05
3.55092e-05
3.64148e-05
3.7116e-05
3.76342e-05
3.80004e-05
3.82491e-05
3.84132e-05
3.85168e-05
3.85844e-05
1.03536e-05
1.03545e-05
1.03556e-05
1.03571e-05
1.03591e-05
1.03618e-05
1.03655e-05
1.03704e-05
1.0377e-05
1.0386e-05
1.03981e-05
1.04145e-05
1.04367e-05
1.04668e-05
1.05076e-05
1.05629e-05
1.06379e-05
1.0739e-05
1.0875e-05
1.10569e-05
1.12982e-05
1.16151e-05
1.20256e-05
1.25487e-05
1.32024e-05
1.40015e-05
1.49552e-05
1.60653e-05
1.73253e-05
1.8721e-05
2.02318e-05
2.18323e-05
2.34947e-05
2.51907e-05
2.68919e-05
2.85683e-05
3.01911e-05
3.17352e-05
3.31748e-05
3.44788e-05
3.56143e-05
3.65578e-05
3.73035e-05
3.78654e-05
3.82702e-05
3.85496e-05
3.8736e-05
3.88546e-05
3.89263e-05
3.89678e-05
3.89852e-05
3.89912e-05
1.03593e-05
1.03619e-05
1.03654e-05
1.03701e-05
1.03764e-05
1.03848e-05
1.0396e-05
1.04111e-05
1.04313e-05
1.04585e-05
1.04949e-05
1.05439e-05
1.06096e-05
1.06976e-05
1.08151e-05
1.09713e-05
1.11776e-05
1.14478e-05
1.17977e-05
1.22444e-05
1.28054e-05
1.34963e-05
1.43291e-05
1.531e-05
1.64383e-05
1.7706e-05
1.90984e-05
2.05955e-05
2.21737e-05
2.38072e-05
2.547e-05
2.71365e-05
2.87798e-05
3.03731e-05
3.1893e-05
3.33165e-05
3.46171e-05
3.57642e-05
3.67329e-05
3.75125e-05
3.81108e-05
3.85498e-05
3.88579e-05
3.90659e-05
3.92003e-05
3.9282e-05
3.93298e-05
3.93519e-05
3.93523e-05
3.93495e-05
3.93426e-05
3.93241e-05
1.03767e-05
1.03848e-05
1.03956e-05
1.041e-05
1.0429e-05
1.04543e-05
1.0488e-05
1.05327e-05
1.05923e-05
1.06714e-05
1.07761e-05
1.09144e-05
1.10958e-05
1.13324e-05
1.16378e-05
1.20274e-05
1.25173e-05
1.31229e-05
1.38572e-05
1.47291e-05
1.5742e-05
1.68925e-05
1.81712e-05
1.9563e-05
2.10487e-05
2.2606e-05
2.42113e-05
2.58409e-05
2.74716e-05
2.90793e-05
3.06393e-05
3.21299e-05
3.35306e-05
3.48183e-05
3.59656e-05
3.69473e-05
3.77499e-05
3.83761e-05
3.88434e-05
3.91768e-05
3.94047e-05
3.95545e-05
3.96461e-05
3.96993e-05
3.97259e-05
3.97285e-05
3.97222e-05
3.97132e-05
3.96946e-05
3.96642e-05
3.96271e-05
3.95856e-05
1.04294e-05
1.04537e-05
1.04859e-05
1.05282e-05
1.0584e-05
1.06573e-05
1.07537e-05
1.08798e-05
1.10442e-05
1.12572e-05
1.15307e-05
1.18786e-05
1.23153e-05
1.28555e-05
1.35121e-05
1.42954e-05
1.5211e-05
1.62591e-05
1.74344e-05
1.8726e-05
2.01186e-05
2.15937e-05
2.31307e-05
2.47078e-05
2.63036e-05
2.78971e-05
2.94668e-05
3.09902e-05
3.2447e-05
3.38188e-05
3.50856e-05
3.62228e-05
3.72065e-05
3.80215e-05
3.86669e-05
3.91555e-05
3.95094e-05
3.97548e-05
3.9918e-05
4.00191e-05
4.00777e-05
4.01085e-05
4.01133e-05
4.01047e-05
4.00925e-05
4.00746e-05
4.00445e-05
4.00063e-05
3.99634e-05
3.99154e-05
3.98665e-05
3.98191e-05
1.05836e-05
1.06539e-05
1.07454e-05
1.0864e-05
1.10175e-05
1.12147e-05
1.14664e-05
1.17849e-05
1.21832e-05
1.26748e-05
1.32721e-05
1.39856e-05
1.48223e-05
1.57845e-05
1.68699e-05
1.80708e-05
1.93755e-05
2.07687e-05
2.22329e-05
2.3749e-05
2.52971e-05
2.68578e-05
2.84124e-05
2.99417e-05
3.14251e-05
3.28441e-05
3.4182e-05
3.5421e-05
3.65394e-05
3.7515e-05
3.83322e-05
3.89872e-05
3.94899e-05
3.98592e-05
4.01186e-05
4.02925e-05
4.04021e-05
4.04658e-05
4.0499e-05
4.05063e-05
4.04973e-05
4.04817e-05
4.04619e-05
4.0433e-05
4.03944e-05
4.03502e-05
4.03006e-05
4.02485e-05
4.01963e-05
4.0145e-05
4.00946e-05
4.00452e-05
1.10127e-05
1.12007e-05
1.14388e-05
1.1738e-05
1.21101e-05
1.25673e-05
1.31213e-05
1.37821e-05
1.45571e-05
1.54499e-05
1.64601e-05
1.75826e-05
1.88083e-05
2.01246e-05
2.15169e-05
2.29685e-05
2.4462e-05
2.59794e-05
2.75033e-05
2.90169e-05
3.05031e-05
3.19433e-05
3.33205e-05
3.46196e-05
3.58248e-05
3.6917e-05
3.78757e-05
3.86855e-05
3.93413e-05
3.98504e-05
4.02289e-05
4.04977e-05
4.068e-05
4.07964e-05
4.08642e-05
4.08988e-05
4.09082e-05
4.08991e-05
4.08798e-05
4.08569e-05
4.08288e-05
4.07893e-05
4.07436e-05
4.06938e-05
4.06393e-05
4.05839e-05
4.0529e-05
4.04748e-05
4.04208e-05
4.03673e-05
4.03147e-05
4.02629e-05
1.25247e-05
1.3049e-05
1.36721e-05
1.44012e-05
1.52404e-05
1.61903e-05
1.72474e-05
1.84049e-05
1.96523e-05
2.09773e-05
2.23655e-05
2.38017e-05
2.527e-05
2.67542e-05
2.82389e-05
2.97091e-05
3.11494e-05
3.2543e-05
3.38746e-05
3.51305e-05
3.62967e-05
3.7356e-05
3.82899e-05
3.90837e-05
3.97319e-05
4.02398e-05
4.06209e-05
4.08945e-05
4.10821e-05
4.12025e-05
4.12731e-05
4.13091e-05
4.13191e-05
4.13093e-05
4.12878e-05
4.12615e-05
4.12315e-05
4.11915e-05
4.11444e-05
4.10933e-05
4.10372e-05
4.09789e-05
4.09208e-05
4.08633e-05
4.08061e-05
4.07492e-05
4.06929e-05
4.06368e-05
4.05809e-05
4.05257e-05
4.0471e-05
1.51457e-05
1.60493e-05
1.70543e-05
1.8155e-05
1.93431e-05
2.06076e-05
2.19365e-05
2.33164e-05
2.47332e-05
2.61728e-05
2.76207e-05
2.90632e-05
3.0487e-05
3.18784e-05
3.32221e-05
3.45043e-05
3.57128e-05
3.6835e-05
3.78555e-05
3.87576e-05
3.95277e-05
4.01604e-05
4.06597e-05
4.10374e-05
4.1311e-05
4.14998e-05
4.16215e-05
4.16934e-05
4.17299e-05
4.17389e-05
4.17287e-05
4.17055e-05
4.16746e-05
4.16416e-05
4.16019e-05
4.15531e-05
4.15001e-05
4.14425e-05
4.13814e-05
4.13201e-05
4.12593e-05
4.1199e-05
4.11388e-05
4.10791e-05
4.10199e-05
4.09608e-05
4.0902e-05
4.08434e-05
4.07847e-05
4.07266e-05
4.06689e-05
1.91895e-05
2.04017e-05
2.16769e-05
2.30036e-05
2.43696e-05
2.57622e-05
2.71688e-05
2.85765e-05
2.99734e-05
3.13477e-05
3.26869e-05
3.39772e-05
3.52064e-05
3.63636e-05
3.74373e-05
3.84137e-05
3.92777e-05
4.00172e-05
4.06272e-05
4.11111e-05
4.14795e-05
4.1748e-05
4.19342e-05
4.20545e-05
4.21259e-05
4.21611e-05
4.2168e-05
4.21571e-05
4.2132e-05
4.2097e-05
4.20599e-05
4.20193e-05
4.19683e-05
4.19127e-05
4.18546e-05
4.17914e-05
4.17271e-05
4.1663e-05
4.15993e-05
4.15358e-05
4.14728e-05
4.14104e-05
4.13482e-05
4.12862e-05
4.12245e-05
4.11628e-05
4.11013e-05
4.10398e-05
4.09783e-05
4.09173e-05
4.08565e-05
2.55239e-05
2.68869e-05
2.82556e-05
2.96189e-05
3.09665e-05
3.22877e-05
3.35711e-05
3.48046e-05
3.59772e-05
3.70792e-05
3.81002e-05
3.90277e-05
3.98481e-05
4.05508e-05
4.11317e-05
4.15939e-05
4.19472e-05
4.2206e-05
4.23859e-05
4.25019e-05
4.25705e-05
4.26032e-05
4.26072e-05
4.25946e-05
4.25665e-05
4.2528e-05
4.24873e-05
4.24438e-05
4.23913e-05
4.23334e-05
4.2273e-05
4.2208e-05
4.21404e-05
4.20732e-05
4.20066e-05
4.19401e-05
4.18739e-05
4.18082e-05
4.17428e-05
4.16777e-05
4.16129e-05
4.15482e-05
4.14837e-05
4.14192e-05
4.13548e-05
4.12904e-05
4.12261e-05
4.11617e-05
4.10976e-05
4.10337e-05
3.07435e-05
3.20377e-05
3.33021e-05
3.45263e-05