/*--------------------------------*- C++ -*----------------------------------*\
| =========                 |                                                 |
| \\      /  F ield         | OpenFOAM: The Open Source CFD Toolbox           |
|  \\    /   O peration     | Version:  v1706                                 |
|   \\  /    A nd           | Web:      www.OpenFOAM.com                      |
|    \\/     M anipulation  |                                                 |
\*---------------------------------------------------------------------------*/
FoamFile
{
    version     2.0;
    format      ascii;
    class       volScalarField;
    location    "3.3e-05";
    object      p;
}
// * * * * * * * * * * * * * * * * * * * * * * * * * * * * * * * * * * * * * //

dimensions      [1 -1 -2 0 0 0 0];


internalField   nonuniform List<scalar> 
30038
(
21.9139
21.9139
21.9139
21.9139
21.9139
21.9139
21.9139
21.9139
21.9139
21.9139
21.9139
21.9139
21.9139
21.9139
21.9139
21.9139
21.9139
21.9139
21.9139
21.9139
21.9139
21.9139
21.9139
21.9139
21.9139
21.9139
21.9139
21.9139
21.9139
21.9139
21.9139
21.9139
21.9139
21.9139
21.9139
21.9139
21.9139
21.9139
21.9139
21.9139
21.9139
21.9139
21.9139
21.9139
21.9139
21.9139
21.9139
21.9139
21.9139
21.9139
21.9139
21.9139
21.9139
21.9139
21.9139
21.9139
21.9139
21.9139
21.9139
21.9139
21.9139
21.9139
21.9139
21.9139
21.9139
21.9139
21.9139
21.9139
21.9139
21.9139
21.9139
21.9139
21.9139
21.9139
21.9139
21.9139
21.9139
21.9139
21.9139
21.9139
21.9139
21.9139
21.9139
21.9139
21.9139
21.9139
21.9139
21.9139
21.9139
21.9139
21.9139
21.9139
21.9139
21.9139
21.9139
21.9139
21.9139
21.9139
21.9139
21.9139
21.9139
21.9139
21.9139
21.9139
21.9139
21.9139
21.9139
21.9139
21.9139
21.9139
21.9139
21.9139
21.9139
21.9139
21.9139
21.9139
21.9139
21.9139
21.9139
21.9139
21.9139
21.9139
21.9139
21.9139
21.9139
21.9139
21.9139
21.9139
21.9139
21.9139
21.9139
21.9139
21.9139
21.9139
21.9139
21.9139
21.9139
21.9139
21.9139
21.9139
21.9139
21.9139
21.9139
21.9139
21.9139
21.9139
21.9139
21.9139
21.9139
21.9139
21.9139
21.9139
21.9139
21.9139
21.9139
21.9139
21.9139
21.9139
21.9139
21.9139
21.9139
21.9139
21.9139
21.9139
21.9139
21.9139
21.9139
21.9139
21.9139
21.9139
21.9139
21.9139
21.9139
21.9139
21.9139
21.9139
21.9139
21.9139
21.9139
21.9139
21.9139
21.9139
21.9139
21.9139
21.9139
21.9139
21.9139
21.9139
21.9139
21.9139
21.9139
21.9139
21.9139
21.9139
21.9139
21.9139
21.9139
21.9139
21.9139
21.9139
21.9139
21.9139
21.9139
21.9139
21.9139
21.9139
21.9139
21.9139
21.9139
21.9139
21.9139
21.9139
21.9139
21.9139
21.9139
21.9139
21.9139
21.9139
21.9139
21.9139
21.9139
21.9139
21.9139
21.9139
21.9139
21.9139
21.9139
21.9139
21.9139
21.9139
21.9139
21.9139
21.9139
21.9139
21.9139
21.9139
21.9139
21.9139
21.9139
21.9139
21.9139
21.9139
21.9139
21.9139
21.9139
21.9139
21.9139
21.9139
21.9139
21.9139
21.9139
21.9139
21.9139
21.9139
21.9139
21.9139
21.9139
21.9139
21.9139
21.9139
21.9139
21.9139
21.9139
21.9139
21.9139
21.9139
21.9139
21.9139
21.9139
21.9139
21.9139
21.9139
21.9139
21.9139
21.9139
21.9139
21.9139
21.9139
21.9139
21.9139
21.9139
21.9139
21.9139
21.9139
21.9139
21.9139
21.9139
21.9139
21.9139
21.9139
21.9139
21.9139
21.9139
21.9139
21.9139
21.9139
21.9139
21.9139
21.9139
21.9139
21.9139
21.9139
21.9139
21.9139
21.9139
21.9139
21.9139
21.9139
21.9139
21.9139
21.9139
21.9139
21.9139
21.9139
21.9139
21.9139
21.9139
21.9139
21.9139
21.9139
21.9139
21.9139
21.9139
21.9139
21.9139
21.9139
21.9139
21.9139
21.9139
21.9139
21.9139
21.9139
21.9139
21.9139
21.9139
21.9139
21.9139
21.9139
21.9139
21.9139
21.9139
21.9139
21.9139
21.9139
21.9139
21.9139
21.9139
21.9139
21.9139
21.9139
21.9139
21.9139
21.9139
21.9139
21.9139
21.9139
21.9139
21.9139
21.9139
21.9139
21.9139
21.9139
21.9139
21.9139
21.9139
21.9139
21.9139
21.9139
21.9139
21.9139
21.9139
21.9139
21.9139
21.9139
21.9139
21.9139
21.9139
21.9139
21.9139
21.9139
21.9139
21.9139
21.9139
21.9139
21.9139
21.9139
21.9139
21.9139
21.9139
21.9139
21.9139
21.9139
21.9139
21.9139
21.9139
21.9139
21.9139
21.9139
21.9139
21.9139
21.9139
21.9139
21.9139
21.9139
21.9139
21.9139
21.9139
21.9139
21.9139
21.9139
21.9139
21.9139
21.9139
21.9139
21.9139
21.9139
21.9139
21.9139
21.9139
21.9139
21.9139
21.9139
21.9139
21.9139
21.9139
21.9139
21.9139
21.9139
21.9139
21.9139
21.9139
21.9139
21.9139
21.9139
21.9139
21.9139
21.9139
21.9139
21.9139
21.9139
21.9139
21.9139
21.9139
21.9139
21.9139
21.9139
21.9139
21.9139
21.9139
21.9139
21.9139
21.9139
21.9139
21.9139
21.9139
21.9139
21.9139
21.9139
21.9139
21.9139
21.9139
21.9139
21.9139
21.9139
21.9139
21.9139
21.9139
21.9139
21.9139
21.9139
21.9139
21.9139
21.9139
21.9139
21.9139
21.9139
21.9139
21.9139
21.9139
21.9139
21.9139
21.9139
21.9139
21.9139
21.9139
21.9139
21.9139
21.9139
21.9139
21.9139
21.9139
21.9139
21.9139
21.9139
21.9139
21.9139
21.9139
21.9139
21.9139
21.9139
21.9139
21.9139
21.9139
21.9139
21.9139
21.9139
21.9139
21.9139
21.9139
21.9139
21.9139
21.9139
21.9139
21.9139
21.9139
21.9139
21.9139
21.9139
21.9139
21.9139
21.9139
21.9139
21.9139
21.9139
21.9139
21.9139
21.9139
21.9139
21.9139
21.9139
21.9139
21.9139
21.9139
21.9139
21.9139
21.9139
21.9139
21.9139
21.9139
21.9139
21.9139
21.9139
21.9139
21.9139
21.9139
21.9139
21.9139
21.9139
21.9139
21.9139
21.9139
21.9139
21.9139
21.9139
21.9139
21.9139
21.9139
21.9139
21.9139
21.9139
21.9139
21.9139
21.9139
21.9139
21.9139
21.9139
21.9139
21.9139
21.9139
21.9139
21.9139
21.9139
21.9139
21.9139
21.9139
21.9139
21.9139
21.9139
21.9139
21.9139
21.9139
21.9139
21.9139
21.9139
21.9139
21.9139
21.9139
21.9139
21.9139
21.9139
21.9139
21.9139
21.9139
21.9139
21.9139
21.9139
21.9139
21.9139
21.9139
21.9139
21.9139
21.9139
21.9139
21.9139
21.9139
21.9139
21.9139
21.9139
21.9139
21.9139
21.9139
21.9139
21.9139
21.9139
21.9139
21.9139
21.9139
21.9139
21.9139
21.9139
21.9139
21.9139
21.9139
21.9139
21.9139
21.9139
21.9139
21.9139
21.9139
21.9139
21.9139
21.9139
21.9139
21.9139
21.9139
21.9139
21.9139
21.9139
21.9139
21.9139
21.9139
21.9139
21.9139
21.9139
21.9139
21.9139
21.9139
21.9139
21.9139
21.9139
21.9139
21.9139
21.9139
21.9139
21.9139
21.9139
21.9139
21.9139
21.9139
21.9139
21.9139
21.9139
21.9139
21.9139
21.9139
21.9139
21.9139
21.9139
21.9139
21.9139
21.9139
21.9139
21.9139
21.9139
21.9139
21.9139
21.9139
21.9139
21.9139
21.9139
21.9139
21.9139
21.9139
21.9139
21.9139
21.9139
21.9139
21.9139
21.9139
21.9139
21.9139
21.9139
21.9139
21.9139
21.9139
21.9139
21.9139
21.9139
21.9139
21.9139
21.9139
21.9139
21.9139
21.9139
21.9139
21.9139
21.9139
21.9139
21.9139
21.9139
21.9139
21.9139
21.9139
21.9139
21.9139
21.9139
21.9139
21.9139
21.9139
21.9139
21.9139
21.9139
21.9139
21.9139
21.9139
21.9139
21.9139
21.9139
21.9139
21.9139
21.9139
21.9139
21.9139
21.9139
21.9139
21.9139
21.9139
21.9139
21.9139
21.9139
21.9139
21.9139
21.9139
21.9139
21.9139
21.9139
21.9139
21.9139
21.9139
21.9139
21.9139
21.9139
21.9139
21.9139
21.9139
21.9139
21.9139
21.9139
21.9139
21.9139
21.9139
21.9139
21.9139
21.9139
21.9139
21.9139
21.9139
21.9139
21.9139
21.9139
21.9139
21.9139
21.9139
21.9139
21.9139
21.9139
21.9139
21.9139
21.9139
21.9139
21.9139
21.9139
21.9139
21.9139
21.9139
21.9139
21.9139
21.9139
21.9139
21.9139
21.9139
21.9139
21.9139
21.9139
21.9139
21.9139
21.9139
21.9139
21.9139
21.9139
21.9139
21.9139
21.9139
21.9139
21.9139
21.9139
21.9139
21.9139
21.9139
21.9139
21.9139
21.9139
21.9139
21.9139
21.9139
21.9139
21.9139
21.9139
21.9139
21.9139
21.9139
21.9139
21.9139
21.9139
21.9139
21.9139
21.9139
21.9139
21.9139
21.9139
21.9139
21.9139
21.9139
21.9139
21.9139
21.9139
21.9139
21.9139
21.9139
21.9139
21.9139
21.9139
21.9139
21.9139
21.9139
21.9139
21.9139
21.9139
21.9139
21.9139
21.9139
21.9139
21.9139
21.9139
21.9139
21.9139
21.9139
21.9139
21.9139
21.9139
21.9139
21.9139
21.9139
21.9139
21.9139
21.9139
21.9139
21.9139
21.9139
21.9139
21.9139
21.9139
21.9139
21.9139
21.9139
21.9139
21.9139
21.9139
21.9139
21.9139
21.9139
21.9139
21.9139
21.9139
21.9139
21.9139
21.9139
21.9139
21.9139
21.9139
21.9139
21.9139
21.9139
21.9139
21.9139
21.9139
21.9139
21.9139
21.9139
21.9139
21.9139
21.9139
21.9139
21.9139
21.9139
21.9139
21.9139
21.9139
21.9139
21.9139
21.9139
21.9139
21.9139
21.9139
21.9139
21.9139
21.9139
21.9139
21.9139
21.9139
21.9139
21.9139
21.9139
21.9139
21.9139
21.9139
21.9139
21.9139
21.9139
21.9139
21.9139
21.9139
21.9139
21.9139
21.9139
21.9139
21.9139
21.9139
21.9139
21.9139
21.9139
21.9139
21.9139
21.9139
21.9139
21.9139
21.9139
21.9139
21.9139
21.9139
21.9139
21.9139
21.9139
21.9139
21.9139
21.9139
21.9139
21.9139
21.9139
21.9139
21.9139
21.9139
21.9139
21.9139
21.9139
21.9139
21.9139
21.9139
21.9139
21.9139
21.9139
21.9139
21.9139
21.9139
21.9139
21.9139
21.9139
21.9139
21.9139
21.9139
21.9139
21.9139
21.9139
21.9139
21.9139
21.9139
21.9139
21.9139
21.9139
21.9139
21.9139
21.9139
21.9139
21.9139
21.9139
21.9139
21.9139
21.9139
21.9139
21.9139
21.9139
21.9139
21.9139
21.9139
21.9139
21.9139
21.9139
21.9139
21.9139
21.9139
21.9139
21.9139
21.9139
21.9139
21.9139
21.9139
21.9139
21.9139
21.9139
21.9139
21.9139
21.9139
21.9139
21.9139
21.9139
21.9139
21.9139
21.9139
21.9139
21.9139
21.9139
21.9139
21.9139
21.9139
21.9139
21.9139
21.9139
21.9139
21.9139
21.9139
21.9139
21.9139
21.9139
21.9139
21.9139
21.9139
21.9139
21.9139
21.9139
21.9139
21.9139
21.9139
21.9139
21.9139
21.9139
21.9139
21.9139
21.9139
21.9139
21.9139
21.9139
21.9139
21.9139
21.9139
21.9139
21.9139
21.9139
21.9139
21.9139
21.9139
21.9139
21.9139
21.9139
21.9139
21.9139
21.9139
21.9139
21.9139
21.9139
21.9139
21.9139
21.9139
21.9139
21.9139
21.9139
21.9139
21.9139
21.9139
21.9139
21.9139
21.9139
21.9139
21.9139
21.9139
21.9139
21.9139
21.9139
21.9139
21.9139
21.9139
21.9139
21.9139
21.9139
21.9139
21.9139
21.9139
21.9139
21.9139
21.9139
21.9139
21.9139
21.9139
21.9139
21.9139
21.9139
21.9139
21.9139
21.9139
21.9139
21.9139
21.9139
21.9139
21.9139
21.9139
21.9139
21.9139
21.9139
21.9139
21.9139
21.9139
21.9139
21.9139
21.9139
21.9139
21.9139
21.9139
21.9139
21.9139
21.9139
21.9139
21.9139
21.9139
21.9139
21.9139
21.9139
21.9139
21.9139
21.9139
21.9139
21.9139
21.9139
21.9139
21.9139
21.9139
21.9139
21.9139
21.9139
21.9139
21.9139
21.9139
21.9139
21.9139
21.9139
21.9139
21.9139
21.9139
21.9139
21.9139
21.9139
21.9139
21.9139
21.9139
21.9139
21.9139
21.9139
21.9139
21.9139
21.9139
21.9139
21.9139
21.9139
21.9139
21.9139
21.9139
21.9139
21.9139
21.9139
21.9139
21.9139
21.9139
21.914
21.914
21.9139
21.9139
21.9139
21.9139
21.9139
21.9139
21.9139
21.9139
21.9139
21.9139
21.9139
21.9139
21.9139
21.9139
21.9139
21.9139
21.9139
21.9139
21.9139
21.9139
21.9139
21.9139
21.9139
21.9139
21.9139
21.9139
21.9139
21.9139
21.9139
21.9139
21.9139
21.9139
21.9139
21.9139
21.9139
21.9139
21.9139
21.9139
21.9139
21.9139
21.9139
21.9139
21.9139
21.9139
21.9139
21.914
21.914
21.9141
21.9142
21.9143
21.9139
21.9139
21.9139
21.9139
21.9139
21.9139
21.9139
21.9139
21.9139
21.9139
21.9139
21.9139
21.9139
21.9139
21.9139
21.9139
21.9139
21.9139
21.9139
21.9139
21.9139
21.9139
21.9139
21.9139
21.9139
21.9139
21.9139
21.9139
21.9139
21.9139
21.9139
21.9139
21.9139
21.9139
21.9139
21.9139
21.9139
21.9139
21.9139
21.9139
21.9139
21.914
21.914
21.914
21.9141
21.9142
21.9143
21.9146
21.9149
21.9155
21.9139
21.9139
21.9139
21.9139
21.9139
21.9139
21.9139
21.9139
21.9139
21.9139
21.9139
21.9139
21.9139
21.9139
21.9139
21.9139
21.9139
21.9139
21.9139
21.9139
21.9139
21.9139
21.9139
21.9139
21.9139
21.9139
21.9139
21.9139
21.9139
21.9139
21.9139
21.9139
21.9139
21.9139
21.9139
21.9139
21.9139
21.9139
21.914
21.914
21.914
21.9141
21.9142
21.9143
21.9146
21.9149
21.9155
21.9163
21.9176
21.9197
21.9139
21.9139
21.9139
21.9139
21.9139
21.9139
21.9139
21.9139
21.9139
21.9139
21.9139
21.9139
21.9139
21.9139
21.9139
21.9139
21.9139
21.9139
21.9139
21.9139
21.9139
21.9139
21.9139
21.9139
21.9139
21.9139
21.9139
21.9139
21.9139
21.9139
21.9139
21.9139
21.9139
21.9139
21.9139
21.914
21.914
21.914
21.9141
21.9142
21.9144
21.9146
21.915
21.9155
21.9164
21.9176
21.9195
21.9225
21.927
21.9343
21.9139
21.9139
21.9139
21.9139
21.9139
21.9139
21.9139
21.9139
21.9139
21.9139
21.9139
21.9139
21.9139
21.9139
21.9139
21.9139
21.9139
21.9139
21.9139
21.9139
21.9139
21.9139
21.9139
21.9139
21.9139
21.9139
21.9139
21.9139
21.9139
21.9139
21.9139
21.914
21.914
21.914
21.9141
21.9141
21.9143
21.9144
21.9147
21.9151
21.9156
21.9165
21.9178
21.9197
21.9226
21.927
21.9337
21.944
21.9597
21.9848
21.9139
21.9139
21.9139
21.9139
21.9139
21.9139
21.9139
21.9139
21.9139
21.9139
21.9139
21.9139
21.9139
21.9139
21.9139
21.9139
21.9139
21.9139
21.9139
21.9139
21.9139
21.9139
21.9139
21.9139
21.9139
21.9139
21.9139
21.9139
21.914
21.914
21.914
21.9141
21.9142
21.9143
21.9145
21.9148
21.9152
21.9158
21.9167
21.918
21.92
21.923
21.9274
21.9341
21.9442
21.9595
21.9825
22.0174
22.0709
22.155
21.9139
21.9139
21.9139
21.9139
21.9139
21.9139
21.9139
21.9139
21.9139
21.9139
21.9139
21.9139
21.9139
21.9139
21.9139
21.9139
21.9139
21.9139
21.9139
21.9139
21.9139
21.9139
21.9139
21.9139
21.9139
21.914
21.914
21.914
21.9141
21.9142
21.9143
21.9146
21.9149
21.9153
21.9159
21.9169
21.9183
21.9204
21.9235
21.9281
21.935
21.9452
21.9604
21.9833
22.0175
22.0688
22.1459
22.2621
22.4384
22.7116
21.9139
21.9139
21.9139
21.9139
21.9139
21.9139
21.9139
21.9139
21.9139
21.9139
21.9139
21.9139
21.9139
21.9139
21.9139
21.9139
21.9139
21.9139
21.9139
21.9139
21.9139
21.914
21.914
21.914
21.9141
21.9142
21.9143
21.9144
21.9147
21.915
21.9155
21.9162
21.9172
21.9188
21.921
21.9243
21.9291
21.9362
21.9468
21.9624
21.9855
22.0198
22.0708
22.1466
22.2596
22.4278
22.6783
23.0511
23.6065
24.4442
21.9139
21.9139
21.9139
21.9139
21.9139
21.9139
21.9139
21.9139
21.9139
21.9139
21.9139
21.9139
21.9139
21.9139
21.9139
21.9139
21.9139
21.914
21.914
21.914
21.914
21.9141
21.9142
21.9143
21.9145
21.9148
21.9152
21.9157
21.9165
21.9177
21.9193
21.9218
21.9253
21.9305
21.938
21.9491
21.9653
21.9892
22.0242
22.0759
22.152
22.2644
22.4302
22.6746
23.0343
23.5618
24.3313
25.4459
27.0463
29.3407
21.9139
21.9139
21.9139
21.9139
21.9139
21.9139
21.9139
21.9139
21.9139
21.9139
21.9139
21.9139
21.9139
21.9139
21.914
21.914
21.914
21.9141
21.9142
21.9143
21.9144
21.9146
21.915
21.9154
21.916
21.9169
21.9182
21.9201
21.9228
21.9267
21.9323
21.9405
21.9523
21.9695
21.9945
22.031
22.0843
22.1622
22.2761
22.4426
22.6858
23.0406
23.5563
24.3015
25.3699
26.8846
29.0009
31.9077
35.8249
41.054
21.9139
21.9139
21.9139
21.9139
21.9139
21.9139
21.9139
21.9139
21.9139
21.9139
21.914
21.914
21.914
21.9141
21.9141
21.9142
21.9144
21.9145
21.9148
21.9152
21.9157
21.9164
21.9175
21.919
21.9211
21.9242
21.9285
21.9347
21.9437
21.9566
21.9751
22.0019
22.0406
22.0965
22.1776
22.2951
22.4653
22.7118
23.0681
23.5814
24.3167
25.362
26.8318
28.8692
31.6442
35.3494
40.1929
46.3973
54.1793
63.9527
21.9139
21.9139
21.9139
21.9139
21.9139
21.9139
21.914
21.914
21.914
21.9141
21.9141
21.9142
21.9143
21.9145
21.9147
21.915
21.9155
21.9161
21.917
21.9182
21.92
21.9224
21.9259
21.9309
21.9379
21.9479
21.9622
21.9825
22.0117
22.0534
22.1132
22.1991
22.3225
22.4997
22.7539
23.118
23.6377
24.3757
25.4155
26.8652
28.8588
31.5546
35.1301
39.7757
45.6873
53.0598
62.0984
73.0611
86.2128
102.309
21.9139
21.9139
21.914
21.914
21.914
21.9141
21.9141
21.9142
21.9143
21.9145
21.9147
21.9149
21.9153
21.9159
21.9167
21.9177
21.9192
21.9213
21.9242
21.9282
21.934
21.942
21.9534
21.9695
21.9922
22.0245
22.0703
22.1354
22.2281
22.3599
22.5475
22.8142
23.1927
23.7279
24.4808
25.5318
26.9839
28.9636
31.6192
35.1157
39.6293
45.341
52.431
61.0816
71.4994
83.9552
98.7204
116.166
136.709
162.911
21.914
21.9141
21.9141
21.9142
21.9143
21.9144
21.9146
21.9149
21.9153
21.9158
21.9164
21.9174
21.9187
21.9205
21.923
21.9265
21.9313
21.9381
21.9475
21.9606
21.9791
22.0049
22.0413
22.0924
22.1645
22.2661
22.4094
22.6115
22.8961
23.2962
23.8565
24.6371
25.7162
27.1927
29.187
31.8386
35.3014
39.7384
45.3165
52.203
60.5629
70.5802
82.4878
96.5662
113.081
132.469
155.626
184.051
218.608
262.212
21.9142
21.9143
21.9144
21.9146
21.9149
21.9152
21.9157
21.9163
21.9172
21.9184
21.92
21.9223
21.9253
21.9296
21.9354
21.9435
21.9546
21.9701
21.9916
22.0215
22.0632
22.1213
22.2024
22.3158
22.4742
22.6955
23.0042
23.4341
24.0301
24.8521
25.9769
27.5002
29.5369
32.2188
35.6898
40.1002
45.6038
52.3547
60.5056
70.2205
81.7029
95.2241
111.039
129.473
151.205
177.452
209.592
248.373
293.406
341.597
391.985
21.9149
21.9153
21.9157
21.9163
21.9172
21.9183
21.9198
21.9219
21.9247
21.9285
21.9338
21.9409
21.9507
21.9642
21.9827
22.0082
22.0434
22.0919
22.159
22.2518
22.3804
22.5584
22.8047
23.1451
23.6142
24.2581
25.1368
26.3262
27.9196
30.0272
32.7736
36.293
40.7243
46.2088
52.8879
60.9034
70.4023
81.5658
94.6398
109.886
127.572
148.201
172.787
202.669
238.882
281.421
328.675
377.402
423.901
463.99
497.198
21.9164
21.9172
21.9183
21.9198
21.9218
21.9245
21.9281
21.9329
21.9395
21.9484
21.9606
21.9771
21.9996
22.0303
22.0723
22.1298
22.2085
22.3165
22.4647
22.6679
22.9464
23.3275
23.8473
24.5532
25.5059
26.7809
28.4694
30.6772
33.5221
37.1292
41.6263
47.1424
53.8071
61.7518
71.1095
82.0434
94.7737
109.567
126.663
146.448
169.737
197.773
231.716
271.956
317.514
365.811
413.274
456.189
491.868
519.187
538.241
550.307
21.922
21.9246
21.9281
21.9328
21.939
21.9475
21.9588
21.974
21.9946
22.0224
22.06
22.1109
22.1801
22.274
22.4016
22.575
22.8106
23.1304
23.5633
24.1476
24.9323
25.979
27.3632
29.174
31.5131
34.4914
38.2251
42.8313
48.4273
55.1318
63.0657
72.3522
83.1385
95.6234
110.071
126.709
145.848
168.134
194.686
226.701
264.829
308.581
355.972
403.82
448.508
486.98
517.608
539.96
554.818
563.371
567.61
568.33
21.9395
21.9477
21.9586
21.9731
21.9926
22.0186
22.0534
22.1002
22.163
22.2475
22.3612
22.5143
22.7204
22.9976
23.37
23.8688
24.5344
25.4179
26.5821
28.1022
30.0653
32.5686
35.7161
39.615
44.372
50.0935
56.8877
64.8661
74.1438
84.8546
97.1811
111.373
127.664
146.314
167.841
193.229
223.657
259.93
301.915
348.142
395.848
441.645
482.298
515.766
541.133
558.835
569.837
575.791
577.75
577.686
577.642
576.637
21.9934
22.0185
22.052
22.0963
22.1554
22.234
22.3388
22.4785
22.6648
22.9132
23.244
23.6835
24.2656
25.0333
26.0397
27.3487
29.035
31.1832
33.8855
37.239
41.3416
46.29
52.18
59.1107
67.1853
76.5118
87.2135
99.4604
113.487
129.532
147.824
168.792
193.289
222.443
257.144
297.507
342.464
389.673
436.011
478.27
514.028
542.128
562.472
575.91
583.569
587.101
587.526
587.313
586.787
585.047
581.895
577.28
22.1562
22.2318
22.3317
22.4635
22.6376
22.8676
23.171
23.5707
24.0958
24.7832
25.6783
26.8362
28.3217
30.2084
32.5776
35.5161
39.1133
43.4578
48.6366
54.7361
61.8471
70.0658
79.4943
90.2472
102.485
116.43
132.324
150.373
170.944
194.781
222.947
256.362
295.303
339.006
385.514
431.975
475.287
512.841
543.237
565.976
581.631
591.223
596.225
597.601
597.342
597.062
595.788
593.101
589.275
584.364
578.801
572.501
22.6355
22.8553
23.1427
23.5179
24.0065
24.6408
25.4605
26.5137
27.857
29.5552
31.6801
34.3088
37.5218
41.4004
46.0241
51.4706
57.8179
65.1501
73.5576
83.1374
93.9975
106.292
120.234
136.065
153.976
174.289
197.664
225.096
257.502
295.254
337.803
383.503
429.776
473.685
512.608
544.821
569.628
587.309
598.792
605.118
607.673
607.714
607.374
606.518
604.445
601.098
596.61
591.397
585.481
579.284
573.094
566.583
23.9879
24.5911
25.364
26.3494
27.5974
29.1653
31.117
33.5212
36.4498
39.9764
44.1739
49.1129
54.8627
61.4942
69.0864
77.7249
87.5026
98.5229
110.936
124.949
140.8
158.668
178.846
201.931
228.857
260.515
297.318
338.863
383.738
429.629
473.782
513.587
547.178
573.719
593.24
606.324
614.03
617.768
618.384
617.906
617.342
615.712
612.747
608.803
603.908
598.312
592.254
586.081
579.8
573.456
567.23
560.779
29.0032
30.8399
33.0893
35.8157
39.0851
42.9634
47.5153
52.8032
58.8887
65.8378
73.7259
82.6352
92.6548
103.885
116.477
130.632
146.584
164.5
184.654
207.603
234.23
265.382
301.475
342.188
386.287
431.681
475.792
516.086
550.661
578.544
599.496
614.035
623.117
627.876
629.166
628.811
628.332
627.003
624.468
620.906
616.363
611.131
605.263
599.156
592.935
586.634
580.333
574.06
567.777
561.614
555.238
38.6622
42.3123
46.5789
51.5187
57.1865
63.6383
70.9372
79.1562
88.3751
98.6794
110.17
122.998
137.366
153.498
171.548
191.783
214.74
241.256
272.125
307.734
347.797
391.201
436.032
479.882
520.341
555.526
584.328
606.397
622.186
632.409
638.038
640.181
640.076
639.388
638.396
636.277
633.031
628.875
623.919
618.285
612.272
606.145
599.891
593.597
587.311
581.038
574.784
568.568
562.344
556.23
549.909
56.2856
62.3605
69.206
76.8841
85.4671
95.0325
105.663
117.461
130.585
145.238
161.626
179.897
200.317
223.42
250.006
280.803
316.14
355.73
398.532
442.767
486.191
526.538
561.954
591.296
614.19
630.917
642.013
648.467
651.414
651.572
650.877
650.028
648.165
645.067
641.299
636.647
631.33
625.477
619.427
613.232
606.951
600.67
594.396
588.134
581.893
575.672
569.466
563.293
557.108
551.026
544.746
92.7675
102.718
113.716
125.875
139.357
154.367
171.089
189.663
210.373
233.76
260.589
291.508
326.767
366.045
408.336
451.959
494.823
534.803
570.113
599.66
623.033
640.346
652.116
659.33
662.796
663.306
662.667
661.863
660.191
657.416
653.829
649.443
644.402
638.699
632.725
626.626
620.4
614.136
607.867
601.598
595.345
589.11
582.892
576.689
570.505
564.331
558.186
552.03
545.973
539.727
135.527
149.434
164.876
182.009
200.974
222.084
245.902
273.146
304.37
339.723
378.827
420.68
463.673
505.852
545.232
580.137
609.557
633.05
650.647
662.881
670.618
674.447
675.378
674.827
673.843
672.388
669.863
666.391
662.299
657.468
651.989
646.124
640.125
633.944
627.688
621.429
615.168
608.913
602.672
596.442
590.225
584.022
577.832
571.655
565.494
559.344
553.222
547.091
541.055
534.843
194.549
213.997
235.628
260.031
287.86
319.551
355.139
394.174
435.632
477.959
519.323
557.886
592.108
621.078
644.352
661.949
674.39
682.393
686.517
687.762
687.267
686.192
684.861
682.479
679.052
675.191
670.569
665.292
659.568
653.648
647.555
641.343
635.111
628.859
622.598
616.349
610.112
603.886
597.671
591.466
585.272
579.089
572.919
566.761
560.619
554.489
548.387
542.28
536.266
530.085
276.364
304.943
337.241
373.174
412.201
453.263
494.852
535.254
572.784
606.052
634.266
657.021
674.33
686.715
694.76
699.06
700.429
699.998
698.919
697.565
695.294
691.988
688.203
683.774
678.716
673.097
667.245
661.224
655.065
648.861
642.635
636.391
630.148
623.91
617.676
611.45
605.233
599.025
592.826
586.637
580.457
574.289
568.134
561.992
555.868
549.757
543.676
537.591
531.599
525.45
393.993
433.018
473.63
514.369
553.634
589.9
621.953
649.128
671.078
687.813
699.895
707.792
712.083
713.461
713.069
711.975
710.503
708.322
705.143
701.351
697.085
692.202
686.697
680.93
675.013
668.903
662.718
656.506
650.275
644.04
637.809
631.58
625.354
619.133
612.915
606.703
600.497
594.299
588.111
581.932
575.764
569.609
563.468
557.343
551.236
545.144
539.083
533.021
527.05
520.932
536.488
574.405
609.168
639.756
665.615
686.482
702.4
713.952
721.506
725.596
726.889
726.48
725.335
723.737
721.594
718.475
714.673
710.511
705.759
700.367
694.691
688.869
682.822
676.672
670.496
664.284
658.056
651.825
645.595
639.368
633.146
626.926
620.709
614.496
608.286
602.081
595.882
589.692
583.511
577.342
571.186
565.043
558.916
552.806
546.717
540.644
534.603
528.564
522.614
516.527
659.343
683.638
703.165
718.073
728.856
735.878
739.609
740.728
740.218
739.003
737.282
735.105
732.011
728.185
724.079
719.435
714.162
708.555
702.799
696.812
690.706
684.573
678.391
672.18
665.962
659.74
653.514
647.288
641.064
634.84
628.62
622.403
616.188
609.977
603.77
597.57
591.377
585.194
579.021
572.861
566.716
560.586
554.474
548.379
542.307
536.253
530.233
524.216
518.287
512.231
744.562
750.883
754.125
754.962
754.289
752.984
751.143
748.854
745.765
741.899
737.806
733.243
728.081
722.521
716.826
710.913
704.848
698.746
692.591
686.399
680.201
673.994
667.778
661.558
655.335
649.11
642.884
636.657
630.432
624.21
617.99
611.775
605.564
599.36
593.163
586.976
580.799
574.635
568.485
562.351
556.234
550.136
544.058
538.003
531.968
525.968
519.973
514.066
508.04
769.569
768.701
767.281
765.301
762.856
759.732
755.819
751.711
747.191
742.118
736.59
730.951
725.117
719.091
713.021
706.9
700.731
694.551
688.357
682.15
675.94
669.725
663.504
657.279
651.051
644.82
638.588
632.357
626.127
619.9
613.678
607.461
601.251
595.049
588.857
582.675
576.506
570.35
564.211
558.088
551.984
545.9
539.838
533.801
527.785
521.804
515.832
509.946
503.95
779.736
777.116
773.911
769.945
765.802
761.288
756.274
750.78
745.183
739.423
733.431
727.392
721.313
715.171
709.011
702.835
696.642
690.442
684.234
678.018
671.797
665.571
659.34
653.106
646.868
640.629
634.389
628.151
621.916
615.685
609.461
603.243
597.034
590.835
584.647
578.471
572.309
566.163
560.033
553.923
547.832
541.763
535.716
529.696
523.699
517.739
511.789
505.924
499.957
780.078
775.541
770.555
765.095
759.528
753.829
747.874
741.865
735.83
729.716
723.575
717.424
711.248
705.062
698.866
692.658
686.442
680.22
673.99
667.754
661.514
655.27
649.023
642.775
636.527
630.279
624.035
617.795
611.561
605.335
599.117
592.91
586.714
580.53
574.361
568.207
562.069
555.951
549.852
543.774
537.72
531.69
525.687
519.709
513.768
507.841
501.997
496.059
779.534
773.992
768.338
762.423
756.443
750.45
744.366
738.247
732.122
725.967
719.795
713.615
707.419
701.213
694.997
688.771
682.537
676.297
670.05
663.798
657.542
651.285
645.026
638.767
632.51
626.255
620.005
613.761
607.525
601.297
595.08
588.875
582.682
576.504
570.341
564.195
558.067
551.959
545.872
539.808
533.769
527.754
521.769
515.81
509.889
503.984
498.161
492.253
771.128
765.174
759.124
753.028
746.931
740.8
734.644
728.481
722.301
716.105
709.899
703.681
697.452
691.215
684.968
678.714
672.454
666.189
659.92
653.65
647.379
641.109
634.84
628.575
622.314
616.059
609.812
603.574
597.346
591.13
584.927
578.738
572.566
566.409
560.272
554.153
548.056
541.982
535.931
529.906
523.908
517.94
511.999
506.099
500.215
494.414
488.534
767.918
761.849
755.744
749.608
743.464
737.302
731.119
724.925
718.718
712.496
706.264
700.021
693.768
687.506
681.238
674.964
668.685
662.403
656.119
649.835
643.551
637.27
630.993
624.72
618.454
612.195
605.945
599.706
593.478
587.264
581.064
574.879
568.712
562.563
556.434
550.325
544.239
538.177
532.14
526.13
520.147
514.197
508.275
502.395
496.533
490.753
484.902
758.563
752.421
746.254
740.075
733.88
727.668
721.443
715.207
708.957
702.697
696.429
690.151
683.867
677.578
671.284
664.987
658.689
652.391
646.093
639.799
633.508
627.223
620.944
614.672
608.41
602.158
595.918
589.691
583.479
577.282
571.103
564.941
558.8
552.679
546.58
540.505
534.455
528.431
522.436
516.47
510.537
504.634
498.773
492.933
487.175
481.352
755.344
749.166
742.966
736.752
730.524
724.28
718.025
711.758
705.481
699.194
692.9
686.6
680.294
673.985
667.672
661.359
655.046
648.734
642.425
636.12
629.821
623.528
617.243
610.968
604.702
598.449
592.209
585.983
579.773
573.58
567.406
561.25
555.116
549.004
542.915
536.851
530.814
524.804
518.823
512.873
506.957
501.073
495.232
489.414
483.677
477.883
752.186
745.97
739.736
733.487
727.225
720.95
714.664
708.368
702.064
695.752
689.434
683.112
676.785
670.457
664.128
657.799
651.472
645.147
638.827
632.513
626.206
619.907
613.617
607.337
601.07
594.816
588.576
582.352
576.144
569.955
563.786
557.637
551.511
545.407
539.329
533.276
527.251
521.254
515.288
509.354
503.456
497.59
491.77
485.974
480.261
474.496
749.079
742.826
736.556
730.273
723.979
717.674
711.358
705.035
698.705
692.369
686.029
679.685
673.34
666.994
660.649
654.305
647.965
641.629
635.299
628.977
622.662
616.357
610.063
603.78
597.511
591.256
585.017
578.795
572.591
566.406
560.242
554.1
547.981
541.886
535.818
529.776
523.763
517.78
511.83
505.912
500.032
494.186
488.387
482.615
476.924
471.19
746.019
739.729
733.425
727.11
720.785
714.45
708.107
701.758
695.403
689.045
682.683
676.32
669.957
663.594
657.234
650.877
644.525
638.178
631.839
625.509
619.187
612.877
606.579
600.294
594.023
587.768
581.53
575.31
569.109
562.929
556.771
550.635
544.524
538.439
532.38
526.35
520.35
514.382
508.447
502.547
496.685
490.86
485.082
479.332
473.663
467.955
743.003
736.678
730.342
723.996
717.641
711.278
704.909
698.535
692.158
685.778
679.396
673.015
666.634
660.257
653.882
647.513
641.149
634.793
628.446
622.108
615.781
609.466
603.164
596.877
590.605
584.35
578.113
571.896
565.699
559.523
553.371
547.242
541.139
535.064
529.016
522.999
517.013
511.06
505.142
499.259
493.414
487.606
481.847
476.118
470.469
464.788
740.03
733.673
727.305
720.93
714.547
708.158
701.764
695.367
688.968
682.567
676.167
669.768
663.372
656.98
650.593
644.211
637.838
631.472
625.117
618.772
612.44
606.121
599.816
593.527
587.255
581
574.765
568.55
562.357
556.187
550.041
543.921
537.828
531.762
525.727
519.723
513.75
507.81
501.905
496.037
490.208
484.417
478.677
472.971
467.346
461.694
730.713
724.316
717.912
711.503
705.089
698.672
692.253
685.833
679.413
672.995
666.58
660.169
653.763
647.364
640.971
634.588
628.214
621.851
615.501
609.163
602.84
596.533
590.243
583.97
577.717
571.485
565.274
559.086
552.922
546.784
540.673
534.589
528.533
522.506
516.512
510.55
504.622
498.731
492.878
487.068
481.298
475.578
469.895
464.294
458.671
727.798
721.373
714.942
708.508
702.07
695.631
689.191
682.752
676.314
669.88
663.449
657.024
650.605
644.194
637.791
631.399
625.017
618.647
612.291
605.95
599.624
593.315
587.024
580.753
574.502
568.273
562.067
555.885
549.727
543.595
537.489
531.412
525.365
519.347
513.362
507.413
501.5
495.625
489.789
483.997
478.247
472.549
466.888
461.31
455.716
724.928
718.476
712.021
705.562
699.102
692.642
686.182
679.725
673.27
666.819
660.374
653.936
647.505
641.082
634.67
628.269
621.88
615.505
609.145
602.8
596.472
590.163
583.873
577.604
571.356
565.129
558.925
552.746
546.593
540.465
534.365
528.296
522.258
516.252
510.28
504.344
498.446
492.586
486.768
480.993
475.263
469.586
463.948
458.394
452.83
715.626
709.146
702.665
696.184
689.703
683.225
676.749
670.278
663.813
657.354
650.903
644.461
638.029
631.608
625.2
618.805
612.426
606.062
599.716
593.387
587.077
580.786