/*--------------------------------*- C++ -*----------------------------------*\
| =========                 |                                                 |
| \\      /  F ield         | OpenFOAM: The Open Source CFD Toolbox           |
|  \\    /   O peration     | Version:  v1706                                 |
|   \\  /    A nd           | Web:      www.OpenFOAM.com                      |
|    \\/     M anipulation  |                                                 |
\*---------------------------------------------------------------------------*/
FoamFile
{
    version     2.0;
    format      ascii;
    class       volScalarField;
    location    "3.3e-05";
    object      rho;
}
// * * * * * * * * * * * * * * * * * * * * * * * * * * * * * * * * * * * * * //

dimensions      [1 -3 0 0 0 0 0];


internalField   nonuniform List<scalar> 
30038
(
0.000511309
0.000511309
0.000511309
0.000511309
0.000511309
0.000511309
0.000511309
0.000511309
0.000511309
0.000511309
0.000511309
0.000511309
0.000511309
0.000511309
0.000511309
0.000511309
0.000511309
0.000511309
0.000511309
0.000511309
0.000511309
0.000511309
0.000511309
0.000511309
0.000511309
0.000511309
0.000511309
0.000511309
0.000511309
0.000511309
0.000511309
0.000511309
0.000511309
0.000511309
0.000511309
0.000511309
0.000511309
0.000511309
0.000511309
0.000511309
0.000511309
0.000511309
0.000511309
0.000511309
0.000511309
0.000511309
0.000511309
0.000511309
0.000511309
0.000511309
0.000511309
0.000511309
0.000511309
0.000511309
0.000511309
0.000511309
0.000511309
0.000511309
0.000511309
0.000511309
0.000511309
0.000511309
0.000511309
0.000511309
0.000511309
0.000511309
0.000511309
0.000511309
0.000511309
0.000511309
0.000511309
0.000511309
0.000511309
0.000511309
0.000511309
0.000511309
0.000511309
0.000511309
0.000511309
0.000511309
0.000511309
0.000511309
0.000511309
0.000511309
0.000511309
0.000511309
0.000511309
0.000511309
0.000511309
0.000511309
0.000511309
0.000511309
0.000511309
0.000511309
0.000511309
0.000511309
0.000511309
0.000511309
0.000511309
0.000511309
0.000511309
0.000511309
0.000511309
0.000511309
0.000511309
0.000511309
0.000511309
0.000511309
0.000511309
0.000511309
0.000511309
0.000511309
0.000511309
0.000511309
0.000511309
0.000511309
0.000511309
0.000511309
0.000511309
0.000511309
0.000511309
0.000511309
0.000511309
0.000511309
0.000511309
0.000511309
0.000511309
0.000511309
0.000511309
0.000511309
0.000511309
0.000511309
0.000511309
0.000511309
0.000511309
0.000511309
0.000511309
0.000511309
0.000511309
0.000511309
0.000511309
0.000511309
0.000511309
0.000511309
0.000511309
0.000511309
0.000511309
0.000511309
0.000511309
0.000511309
0.000511309
0.000511309
0.000511309
0.000511309
0.000511309
0.000511309
0.000511309
0.000511309
0.000511309
0.000511309
0.000511309
0.000511309
0.000511309
0.000511309
0.000511309
0.000511309
0.000511309
0.000511309
0.000511309
0.000511309
0.000511309
0.000511309
0.000511309
0.000511309
0.000511309
0.000511309
0.000511309
0.000511309
0.000511309
0.000511309
0.000511309
0.000511309
0.000511309
0.000511309
0.000511309
0.000511309
0.000511309
0.000511309
0.000511309
0.000511309
0.000511309
0.000511309
0.000511309
0.000511309
0.000511309
0.000511309
0.000511309
0.000511309
0.000511309
0.000511309
0.000511309
0.000511309
0.000511309
0.000511309
0.000511309
0.000511309
0.000511309
0.000511309
0.000511309
0.000511309
0.000511309
0.000511309
0.000511309
0.000511309
0.000511309
0.000511309
0.000511309
0.000511309
0.000511309
0.000511309
0.000511309
0.000511309
0.000511309
0.000511309
0.000511309
0.000511309
0.000511309
0.000511309
0.000511309
0.000511309
0.000511309
0.000511309
0.000511309
0.000511309
0.000511309
0.000511309
0.000511309
0.000511309
0.000511309
0.000511309
0.000511309
0.000511309
0.000511309
0.000511309
0.000511309
0.000511309
0.000511309
0.000511309
0.000511309
0.000511309
0.000511309
0.000511309
0.000511309
0.000511309
0.000511309
0.000511309
0.000511309
0.000511309
0.000511309
0.000511309
0.000511309
0.000511309
0.000511309
0.000511309
0.000511309
0.000511309
0.000511309
0.000511309
0.000511309
0.000511309
0.000511309
0.000511309
0.000511309
0.000511309
0.000511309
0.000511309
0.000511309
0.000511309
0.000511309
0.000511309
0.000511309
0.000511309
0.000511309
0.000511309
0.000511309
0.000511309
0.000511309
0.000511309
0.000511309
0.000511309
0.000511309
0.000511309
0.000511309
0.000511309
0.000511309
0.000511309
0.000511309
0.000511309
0.000511309
0.000511309
0.000511309
0.000511309
0.000511309
0.000511309
0.000511309
0.000511309
0.000511309
0.000511309
0.000511309
0.000511309
0.000511309
0.000511309
0.000511309
0.000511309
0.000511309
0.000511309
0.000511309
0.000511309
0.000511309
0.000511309
0.000511309
0.000511309
0.000511309
0.000511309
0.000511309
0.000511309
0.000511309
0.000511309
0.000511309
0.000511309
0.000511309
0.000511309
0.000511309
0.000511309
0.000511309
0.000511309
0.000511309
0.000511309
0.000511309
0.000511309
0.000511309
0.000511309
0.000511309
0.000511309
0.000511309
0.000511309
0.000511309
0.000511309
0.000511309
0.000511309
0.000511309
0.000511309
0.000511309
0.000511309
0.000511309
0.000511309
0.000511309
0.000511309
0.000511309
0.000511309
0.000511309
0.000511309
0.000511309
0.000511309
0.000511309
0.000511309
0.000511309
0.000511309
0.000511309
0.000511309
0.000511309
0.000511309
0.000511309
0.000511309
0.000511309
0.000511309
0.000511309
0.000511309
0.000511309
0.000511309
0.000511309
0.000511309
0.000511309
0.000511309
0.000511309
0.000511309
0.000511309
0.000511309
0.000511309
0.000511309
0.000511309
0.000511309
0.000511309
0.000511309
0.000511309
0.000511309
0.000511309
0.000511309
0.000511309
0.000511309
0.000511309
0.000511309
0.000511309
0.000511309
0.000511309
0.000511309
0.000511309
0.000511309
0.000511309
0.000511309
0.000511309
0.000511309
0.000511309
0.000511309
0.000511309
0.000511309
0.000511309
0.000511309
0.000511309
0.000511309
0.000511309
0.000511309
0.000511309
0.000511309
0.000511309
0.000511309
0.000511309
0.000511309
0.000511309
0.000511309
0.000511309
0.000511309
0.000511309
0.000511309
0.000511309
0.000511309
0.000511309
0.000511309
0.000511309
0.000511309
0.000511309
0.000511309
0.000511309
0.000511309
0.000511309
0.000511309
0.000511309
0.000511309
0.000511309
0.000511309
0.000511309
0.000511309
0.000511309
0.000511309
0.000511309
0.000511309
0.000511309
0.000511309
0.000511309
0.000511309
0.000511309
0.000511309
0.000511309
0.000511309
0.000511309
0.000511309
0.000511309
0.000511309
0.000511309
0.000511309
0.000511309
0.000511309
0.000511309
0.000511309
0.000511309
0.000511309
0.000511309
0.000511309
0.000511309
0.000511309
0.000511309
0.000511309
0.000511309
0.000511309
0.000511309
0.000511309
0.000511309
0.000511309
0.000511309
0.000511309
0.000511309
0.000511309
0.000511309
0.000511309
0.000511309
0.000511309
0.000511309
0.000511309
0.000511309
0.000511309
0.000511309
0.000511309
0.000511309
0.000511309
0.000511309
0.000511309
0.000511309
0.000511309
0.000511309
0.000511309
0.000511309
0.000511309
0.000511309
0.000511309
0.000511309
0.000511309
0.000511309
0.000511309
0.000511309
0.000511309
0.000511309
0.000511309
0.000511309
0.000511309
0.000511309
0.000511309
0.000511309
0.000511309
0.000511309
0.000511309
0.000511309
0.000511309
0.000511309
0.000511309
0.000511309
0.000511309
0.000511309
0.000511309
0.000511309
0.000511309
0.000511309
0.000511309
0.000511309
0.000511309
0.000511309
0.000511309
0.000511309
0.000511309
0.000511309
0.000511309
0.000511309
0.000511309
0.000511309
0.000511309
0.000511309
0.000511309
0.000511309
0.000511309
0.000511309
0.000511309
0.000511309
0.000511309
0.000511309
0.000511309
0.000511309
0.000511309
0.000511309
0.000511309
0.000511309
0.000511309
0.000511309
0.000511309
0.000511309
0.000511309
0.000511309
0.000511309
0.000511309
0.000511309
0.000511309
0.000511309
0.000511309
0.000511309
0.000511309
0.000511309
0.000511309
0.000511309
0.000511309
0.000511309
0.000511309
0.000511309
0.000511309
0.000511309
0.000511309
0.000511309
0.000511309
0.000511309
0.000511309
0.000511309
0.000511309
0.000511309
0.000511309
0.000511309
0.000511309
0.000511309
0.000511309
0.000511309
0.000511309
0.000511309
0.000511309
0.000511309
0.000511309
0.000511309
0.000511309
0.000511309
0.000511309
0.000511309
0.000511309
0.000511309
0.000511309
0.000511309
0.000511309
0.000511309
0.000511309
0.000511309
0.000511309
0.000511309
0.000511309
0.000511309
0.000511309
0.000511309
0.000511309
0.000511309
0.000511309
0.000511309
0.000511309
0.000511309
0.000511309
0.000511309
0.000511309
0.000511309
0.000511309
0.000511309
0.000511309
0.000511309
0.000511309
0.000511309
0.000511309
0.000511309
0.000511309
0.000511309
0.000511309
0.000511309
0.000511309
0.000511309
0.000511309
0.000511309
0.000511309
0.000511309
0.000511309
0.000511309
0.000511309
0.000511309
0.000511309
0.000511309
0.000511309
0.000511309
0.000511309
0.000511309
0.000511309
0.000511309
0.000511309
0.000511309
0.000511309
0.000511309
0.000511309
0.000511309
0.000511309
0.000511309
0.000511309
0.000511309
0.000511309
0.000511309
0.000511309
0.000511309
0.000511309
0.000511309
0.000511309
0.000511309
0.000511309
0.000511309
0.000511309
0.000511309
0.000511309
0.000511309
0.000511309
0.000511309
0.000511309
0.000511309
0.000511309
0.000511309
0.000511309
0.000511309
0.000511309
0.000511309
0.000511309
0.000511309
0.000511309
0.000511309
0.000511309
0.000511309
0.000511309
0.000511309
0.000511309
0.000511309
0.000511309
0.000511309
0.000511309
0.000511309
0.000511309
0.000511309
0.000511309
0.000511309
0.000511309
0.000511309
0.000511309
0.000511309
0.000511309
0.000511309
0.000511309
0.000511309
0.000511309
0.000511309
0.000511309
0.000511309
0.000511309
0.000511309
0.000511309
0.000511309
0.000511309
0.000511309
0.000511309
0.000511309
0.000511309
0.000511309
0.000511309
0.000511309
0.000511309
0.000511309
0.000511309
0.000511309
0.000511309
0.000511309
0.000511309
0.000511309
0.000511309
0.000511309
0.000511309
0.000511309
0.000511309
0.000511309
0.000511309
0.000511309
0.000511309
0.000511309
0.000511309
0.000511309
0.000511309
0.000511309
0.000511309
0.000511309
0.000511309
0.000511309
0.000511309
0.000511309
0.000511309
0.000511309
0.000511309
0.000511309
0.000511309
0.000511309
0.000511309
0.000511309
0.000511309
0.000511309
0.000511309
0.000511309
0.000511309
0.000511309
0.000511309
0.000511309
0.000511309
0.000511309
0.000511309
0.000511309
0.000511309
0.000511309
0.000511309
0.000511309
0.000511309
0.000511309
0.000511309
0.000511309
0.000511309
0.000511309
0.000511309
0.000511309
0.000511309
0.000511309
0.000511309
0.000511309
0.000511309
0.000511309
0.000511309
0.000511309
0.000511309
0.000511309
0.000511309
0.000511309
0.000511309
0.000511309
0.000511309
0.000511309
0.000511309
0.000511309
0.000511309
0.000511309
0.000511309
0.000511309
0.000511309
0.000511309
0.000511309
0.000511309
0.000511309
0.000511309
0.000511309
0.000511309
0.000511309
0.000511309
0.000511309
0.000511309
0.000511309
0.000511309
0.000511309
0.000511309
0.000511309
0.000511309
0.000511309
0.000511309
0.000511309
0.000511309
0.000511309
0.000511309
0.000511309
0.000511309
0.000511309
0.000511309
0.000511309
0.000511309
0.000511309
0.000511309
0.000511309
0.000511309
0.000511309
0.000511309
0.000511309
0.000511309
0.000511309
0.000511309
0.000511309
0.000511309
0.000511309
0.000511309
0.000511309
0.000511309
0.000511309
0.000511309
0.000511309
0.000511309
0.000511309
0.000511309
0.000511309
0.000511309
0.000511309
0.000511309
0.000511309
0.000511309
0.000511309
0.000511309
0.000511309
0.000511309
0.000511309
0.000511309
0.000511309
0.000511309
0.000511309
0.000511309
0.000511309
0.000511309
0.000511309
0.000511309
0.000511309
0.000511309
0.000511309
0.000511309
0.000511309
0.000511309
0.000511309
0.000511309
0.000511309
0.000511309
0.000511309
0.000511309
0.000511309
0.000511309
0.000511309
0.000511309
0.000511309
0.000511309
0.000511309
0.000511309
0.000511309
0.000511309
0.000511309
0.000511309
0.000511309
0.000511309
0.000511309
0.000511309
0.000511309
0.000511309
0.000511309
0.000511309
0.000511309
0.000511309
0.000511309
0.000511309
0.000511309
0.000511309
0.000511309
0.000511309
0.000511309
0.000511309
0.000511309
0.000511309
0.000511309
0.000511309
0.000511309
0.000511309
0.000511309
0.000511309
0.000511309
0.000511309
0.000511309
0.000511309
0.000511309
0.000511309
0.000511309
0.000511309
0.000511309
0.000511309
0.000511309
0.000511309
0.000511309
0.000511309
0.000511309
0.000511309
0.000511309
0.000511309
0.000511309
0.000511309
0.000511309
0.000511309
0.000511309
0.000511309
0.000511309
0.000511309
0.000511309
0.000511309
0.000511309
0.000511309
0.000511309
0.000511309
0.000511309
0.000511309
0.000511309
0.000511309
0.000511309
0.000511309
0.000511309
0.000511309
0.000511309
0.000511309
0.000511309
0.000511309
0.000511309
0.000511309
0.000511309
0.000511309
0.000511309
0.000511309
0.000511309
0.000511309
0.000511309
0.000511309
0.000511309
0.000511309
0.000511309
0.000511309
0.000511309
0.000511309
0.000511309
0.000511309
0.000511309
0.000511309
0.000511309
0.000511309
0.000511309
0.000511309
0.000511309
0.000511309
0.000511309
0.000511309
0.000511309
0.000511309
0.000511309
0.000511309
0.000511309
0.000511309
0.000511309
0.000511309
0.000511309
0.000511309
0.000511309
0.000511309
0.000511309
0.000511309
0.000511309
0.000511309
0.000511309
0.000511309
0.000511309
0.000511309
0.000511309
0.000511309
0.000511309
0.000511309
0.000511309
0.000511309
0.000511309
0.000511309
0.000511309
0.000511309
0.000511309
0.000511309
0.000511309
0.000511309
0.000511309
0.000511309
0.000511309
0.000511309
0.000511309
0.000511309
0.000511309
0.000511309
0.000511309
0.000511309
0.000511309
0.000511309
0.000511309
0.000511309
0.000511309
0.000511309
0.000511309
0.000511309
0.000511309
0.000511309
0.000511309
0.000511309
0.000511309
0.000511309
0.000511309
0.000511309
0.000511309
0.000511309
0.000511309
0.000511309
0.000511309
0.000511309
0.000511309
0.000511309
0.000511309
0.000511309
0.000511309
0.000511309
0.000511309
0.000511309
0.000511309
0.000511309
0.000511309
0.000511309
0.000511309
0.000511309
0.000511309
0.000511309
0.000511309
0.000511309
0.000511309
0.000511309
0.000511309
0.000511309
0.000511309
0.000511309
0.000511309
0.000511309
0.000511309
0.000511309
0.000511309
0.000511309
0.000511309
0.000511309
0.000511309
0.000511309
0.000511309
0.000511309
0.000511309
0.000511309
0.000511309
0.000511309
0.000511309
0.000511309
0.000511309
0.000511309
0.000511309
0.000511309
0.000511309
0.000511309
0.000511309
0.000511309
0.000511309
0.000511309
0.000511309
0.000511309
0.000511309
0.000511309
0.000511309
0.000511309
0.000511309
0.000511309
0.000511309
0.000511309
0.000511309
0.000511309
0.000511309
0.000511309
0.000511309
0.000511309
0.000511309
0.000511309
0.000511309
0.000511309
0.000511309
0.000511309
0.000511309
0.000511309
0.000511309
0.000511309
0.000511309
0.000511309
0.000511309
0.000511309
0.000511309
0.000511309
0.000511309
0.000511309
0.000511309
0.000511309
0.000511309
0.000511309
0.000511309
0.000511309
0.000511309
0.000511309
0.000511309
0.000511309
0.000511309
0.000511309
0.000511309
0.000511309
0.000511309
0.000511309
0.00051131
0.00051131
0.000511309
0.000511309
0.000511309
0.000511309
0.000511309
0.000511309
0.000511309
0.000511309
0.000511309
0.000511309
0.000511309
0.000511309
0.000511309
0.000511309
0.000511309
0.000511309
0.000511309
0.000511309
0.000511309
0.000511309
0.000511309
0.000511309
0.000511309
0.000511309
0.000511309
0.000511309
0.000511309
0.000511309
0.000511309
0.000511309
0.000511309
0.000511309
0.000511309
0.000511309
0.000511309
0.000511309
0.000511309
0.000511309
0.000511309
0.000511309
0.000511309
0.000511309
0.000511309
0.000511309
0.000511309
0.00051131
0.00051131
0.00051131
0.00051131
0.00051131
0.000511309
0.000511309
0.000511309
0.000511309
0.000511309
0.000511309
0.000511309
0.000511309
0.000511309
0.000511309
0.000511309
0.000511309
0.000511309
0.000511309
0.000511309
0.000511309
0.000511309
0.000511309
0.000511309
0.000511309
0.000511309
0.000511309
0.000511309
0.000511309
0.000511309
0.000511309
0.000511309
0.000511309
0.000511309
0.000511309
0.000511309
0.000511309
0.000511309
0.000511309
0.000511309
0.000511309
0.000511309
0.000511309
0.000511309
0.000511309
0.000511309
0.000511309
0.00051131
0.00051131
0.00051131
0.00051131
0.00051131
0.000511311
0.000511312
0.000511313
0.000511309
0.000511309
0.000511309
0.000511309
0.000511309
0.000511309
0.000511309
0.000511309
0.000511309
0.000511309
0.000511309
0.000511309
0.000511309
0.000511309
0.000511309
0.000511309
0.000511309
0.000511309
0.000511309
0.000511309
0.000511309
0.000511309
0.000511309
0.000511309
0.000511309
0.000511309
0.000511309
0.000511309
0.000511309
0.000511309
0.000511309
0.000511309
0.000511309
0.000511309
0.000511309
0.000511309
0.000511309
0.000511309
0.000511309
0.00051131
0.00051131
0.00051131
0.00051131
0.00051131
0.000511311
0.000511312
0.000511313
0.000511315
0.000511318
0.000511322
0.000511309
0.000511309
0.000511309
0.000511309
0.000511309
0.000511309
0.000511309
0.000511309
0.000511309
0.000511309
0.000511309
0.000511309
0.000511309
0.000511309
0.000511309
0.000511309
0.000511309
0.000511309
0.000511309
0.000511309
0.000511309
0.000511309
0.000511309
0.000511309
0.000511309
0.000511309
0.000511309
0.000511309
0.000511309
0.000511309
0.000511309
0.000511309
0.000511309
0.000511309
0.000511309
0.000511309
0.00051131
0.00051131
0.00051131
0.00051131
0.00051131
0.000511311
0.000511312
0.000511313
0.000511315
0.000511318
0.000511322
0.000511328
0.000511339
0.000511355
0.000511309
0.000511309
0.000511309
0.000511309
0.000511309
0.000511309
0.000511309
0.000511309
0.000511309
0.000511309
0.000511309
0.000511309
0.000511309
0.000511309
0.000511309
0.000511309
0.000511309
0.000511309
0.000511309
0.000511309
0.000511309
0.000511309
0.000511309
0.000511309
0.000511309
0.000511309
0.000511309
0.000511309
0.000511309
0.000511309
0.000511309
0.000511309
0.00051131
0.00051131
0.00051131
0.00051131
0.00051131
0.00051131
0.000511311
0.000511312
0.000511313
0.000511315
0.000511318
0.000511322
0.000511329
0.000511338
0.000511353
0.000511376
0.00051141
0.000511468
0.000511309
0.000511309
0.000511309
0.000511309
0.000511309
0.000511309
0.000511309
0.000511309
0.000511309
0.000511309
0.000511309
0.000511309
0.000511309
0.000511309
0.000511309
0.000511309
0.000511309
0.000511309
0.000511309
0.000511309
0.000511309
0.000511309
0.000511309
0.000511309
0.000511309
0.000511309
0.000511309
0.000511309
0.000511309
0.00051131
0.00051131
0.00051131
0.00051131
0.00051131
0.000511311
0.000511311
0.000511312
0.000511313
0.000511315
0.000511318
0.000511323
0.000511329
0.000511339
0.000511353
0.000511376
0.000511409
0.000511459
0.000511536
0.000511652
0.000511842
0.000511309
0.000511309
0.000511309
0.000511309
0.000511309
0.000511309
0.000511309
0.000511309
0.000511309
0.000511309
0.000511309
0.000511309
0.000511309
0.000511309
0.000511309
0.000511309
0.000511309
0.000511309
0.000511309
0.000511309
0.000511309
0.000511309
0.000511309
0.000511309
0.000511309
0.000511309
0.00051131
0.00051131
0.00051131
0.00051131
0.00051131
0.000511311
0.000511311
0.000511312
0.000511314
0.000511316
0.000511319
0.000511323
0.00051133
0.00051134
0.000511355
0.000511377
0.00051141
0.000511459
0.000511533
0.000511644
0.000511811
0.000512062
0.000512439
0.00051305
0.000511309
0.000511309
0.000511309
0.000511309
0.000511309
0.000511309
0.000511309
0.000511309
0.000511309
0.000511309
0.000511309
0.000511309
0.000511309
0.000511309
0.000511309
0.000511309
0.000511309
0.000511309
0.000511309
0.000511309
0.000511309
0.000511309
0.00051131
0.00051131
0.00051131
0.00051131
0.00051131
0.00051131
0.000511311
0.000511312
0.000511313
0.000511314
0.000511316
0.00051132
0.000511324
0.000511331
0.000511341
0.000511357
0.000511379
0.000511412
0.000511461
0.000511534
0.000511643
0.000511805
0.000512046
0.000512405
0.00051294
0.000513736
0.000514915
0.000516779
0.000511309
0.000511309
0.000511309
0.000511309
0.000511309
0.000511309
0.000511309
0.000511309
0.000511309
0.000511309
0.000511309
0.000511309
0.000511309
0.000511309
0.000511309
0.000511309
0.000511309
0.000511309
0.000511309
0.00051131
0.00051131
0.00051131
0.00051131
0.00051131
0.000511311
0.000511311
0.000511312
0.000511313
0.000511315
0.000511317
0.000511321
0.000511326
0.000511333
0.000511344
0.00051136
0.000511383
0.000511417
0.000511467
0.00051154
0.000511649
0.000511809
0.000512045
0.000512394
0.000512908
0.000513667
0.000514782
0.000516415
0.000518795
0.000522216
0.000527401
0.000511309
0.000511309
0.000511309
0.000511309
0.000511309
0.000511309
0.000511309
0.000511309
0.000511309
0.000511309
0.000511309
0.000511309
0.000511309
0.000511309
0.000511309
0.00051131
0.00051131
0.00051131
0.00051131
0.00051131
0.00051131
0.000511311
0.000511311
0.000511312
0.000511314
0.000511315
0.000511318
0.000511322
0.000511327
0.000511335
0.000511347
0.000511364
0.000511388
0.000511424
0.000511475
0.000511551
0.000511661
0.000511822
0.000512058
0.000512403
0.000512907
0.000513644
0.000514719
0.000516277
0.000518527
0.000521744
0.000526293
0.000532636
0.000541287
0.000553651
0.000511309
0.000511309
0.000511309
0.000511309
0.000511309
0.000511309
0.000511309
0.000511309
0.000511309
0.000511309
0.000511309
0.00051131
0.00051131
0.00051131
0.00051131
0.00051131
0.00051131
0.000511311
0.000511311
0.000511312
0.000511313
0.000511314
0.000511316
0.000511319
0.000511324
0.00051133
0.000511339
0.000511351
0.000511369
0.000511396
0.000511433
0.000511488
0.000511566
0.00051168
0.000511845
0.000512085
0.000512432
0.000512935
0.000513664
0.000514717
0.000516232
0.000518399
0.000521474
0.000525789
0.000531753
0.000539872
0.000550735
0.000565054
0.000583347
0.000608162
0.000511309
0.000511309
0.000511309
0.000511309
0.000511309
0.000511309
0.000511309
0.00051131
0.00051131
0.00051131
0.00051131
0.00051131
0.00051131
0.00051131
0.000511311
0.000511312
0.000511312
0.000511314
0.000511315
0.000511318
0.000511321
0.000511326
0.000511333
0.000511343
0.000511357
0.000511377
0.000511405
0.000511446
0.000511504
0.000511588
0.000511708
0.00051188
0.000512127
0.000512483
0.000512994
0.000513728
0.000514778
0.000516276
0.000518399
0.000521386
0.000525543
0.000531248
0.000538953
0.000549195
0.000562586
0.000579764
0.000601481
0.000628858
0.000662719
0.000707384
0.000511309
0.000511309
0.000511309
0.00051131
0.00051131
0.00051131
0.00051131
0.00051131
0.00051131
0.00051131
0.000511311
0.000511311
0.000511312
0.000511313
0.000511315
0.000511317
0.00051132
0.000511324
0.000511329
0.000511337
0.000511348
0.000511364
0.000511386
0.000511418
0.000511463
0.000511526
0.000511617
0.000511745
0.000511928
0.000512188
0.000512559
0.000513086
0.000513837
0.000514902
0.000516407
0.00051852
0.000521467
0.000525532
0.000531066
0.000538481
0.000548267
0.000560978
0.000577212
0.000597619
0.000623054
0.000654741
0.000693709
0.00074156
0.000799832
0.000881431
0.00051131
0.00051131
0.00051131
0.00051131
0.00051131
0.00051131
0.000511311
0.000511311
0.000511312
0.000511313
0.000511314
0.000511316
0.000511318
0.000511322
0.000511327
0.000511333
0.000511343
0.000511356
0.000511374
0.000511399
0.000511435
0.000511485
0.000511555
0.000511654
0.000511794
0.000511991
0.00051227
0.000512663
0.000513217
0.000513998
0.000515096
0.000516633
0.000518771
0.000521723
0.000525758
0.000531204
0.000538439
0.000547909
0.000560117
0.000575622
0.000594993
0.000618964
0.000648569
0.000685004
0.00072928
0.000783339
0.000851431
0.000940406
0.00105375
0.0012045
0.00051131
0.00051131
0.00051131
0.000511311
0.000511311
0.000511312
0.000511313
0.000511314
0.000511315
0.000511318
0.000511321
0.000511325
0.000511331
0.000511339
0.00051135
0.000511365
0.000511386
0.000511416
0.000511456
0.000511513
0.000511593
0.000511703
0.000511858
0.000512074
0.000512377
0.000512801
0.000513392
0.000514218
0.000515368
0.000516962
0.000519158
0.000522159
0.000526221
0.000531651
0.0005388
0.000548071
0.000559927
0.000574881
0.000593459
0.000616291
0.000644255
0.000678555
0.000720143
0.000770379
0.000832419
0.000911851
0.00101473
0.00114433
0.00129946
0.00146823
0.00164773
0.000511311
0.000511312
0.000511313
0.000511314
0.000511315
0.000511317
0.00051132
0.000511324
0.000511329
0.000511336
0.000511346
0.000511359
0.000511377
0.000511403
0.000511437
0.000511485
0.00051155
0.000511641
0.000511767
0.000511941
0.000512182
0.000512517
0.000512981
0.000513623
0.00051451
0.000515733
0.000517412
0.000519701
0.000522796
0.000526942
0.000532426
0.000539578
0.000548765
0.00056041
0.000574983
0.000592981
0.000614945
0.000641639
0.000674153
0.00071352
0.000760775
0.000818164
0.000890349
0.000983208
0.00110118
0.00124453
0.00140742
0.0015779
0.00174231
0.00188491
0.00200361
0.000511314
0.000511315
0.000511317
0.00051132
0.000511323
0.000511328
0.000511335
0.000511344
0.000511356
0.000511372
0.000511394
0.000511424
0.000511466
0.000511522
0.000511599
0.000511705
0.00051185
0.000512049
0.000512323
0.000512699
0.000513214
0.000513921
0.000514889
0.00051621
0.000518004
0.000520423
0.000523658
0.000527943
0.00053355
0.000540786
0.000549988
0.000561542
0.00057588
0.000593468
0.000614784
0.000640498
0.000671575
0.00070912
0.000754004
0.000807877
0.000874433
0.000959134
0.00106691
0.00119953
0.00135362
0.00151983
0.00168515
0.00183595
0.00196217
0.0020592
0.00212701
0.00216955
0.000511324
0.000511328
0.000511334
0.000511343
0.000511354
0.000511369
0.000511389
0.000511417
0.000511454
0.000511504
0.000511572
0.000511664
0.000511789
0.000511959
0.00051219
0.000512505
0.000512933
0.000513516
0.000514306
0.000515377
0.000516824
0.000518767
0.000521357
0.000524781
0.000529262
0.00053506
0.000542461
0.000551774
0.00056335
0.000577589
0.000594925
0.000615797
0.000640795
0.000670772
0.000706855
0.000749848
0.00080101
0.000863218
0.000941373
0.00104052
0.00116344
0.00130858
0.00146891
0.00163303
0.00178786
0.00192223
0.00202985
0.00210878
0.00216141
0.00219157
0.00220673
0.00220906
0.000511354
0.000511368
0.000511388
0.000511413
0.000511448
0.000511494
0.000511555
0.000511638
0.00051175
0.0005119
0.000512102
0.000512375
0.000512743
0.000513238
0.000513906
0.000514802
0.000516004
0.00051761
0.000519741
0.000522548
0.000526214
0.000530952
0.00053701
0.000544651
0.000554163
0.000565864
0.000580125
0.00059735
0.000617951
0.000642449
0.000671617
0.00070652
0.000748006
0.00079707
0.000855955
0.000928961
0.00102101
0.00113546
0.00127208
0.0014258
0.00158688
0.00174327
0.00188337
0.00199958
0.00208821
0.00215046
0.0021892
0.00221039
0.00221788
0.00221784
0.0022182
0.00221575
0.000511446
0.00051149
0.000511548
0.000511625
0.000511728
0.000511865
0.000512048
0.000512292
0.000512619
0.000513054
0.000513636
0.000514411
0.000515441
0.000516807
0.00051861
0.000520974
0.00052405
0.000528014
0.000533072
0.000539458
0.000547417
0.000557212
0.000569134
0.00058353
0.000600776
0.000621263
0.000645457
0.000674068
0.000708086
0.000748408
0.000795858
0.000852239
0.000921239
0.00100755
0.0011148
0.00124369
0.00139064
0.00154755
0.00170348
0.00184712
0.00196972
0.00206677
0.00213764
0.00218474
0.00221179
0.00222499
0.00222707
0.00222694
0.00222636
0.00222206
0.00221288
0.00219845
0.000511721
0.000511851
0.000512022
0.000512248
0.000512547
0.000512943
0.000513466
0.000514158
0.000515069
0.000516268
0.000517838
0.000519886
0.000522536
0.000525937
0.000530262
0.000535707
0.000542492
0.000550844
0.000561002
0.000573236
0.00058787
0.000605259
0.000625774
0.000649835
0.000678108
0.000711516
0.000750982
0.00079722
0.000851728
0.000917673
0.000999448
0.00110076
0.00122287
0.00136333
0.00151549
0.00166956
0.00181475
0.00194182
0.00204556
0.00212391
0.00217834
0.00221197
0.00223032
0.00223612
0.00223607
0.00223636
0.00223386
0.00222665
0.0022155
0.00220061
0.00218327
0.00216299
0.000512519
0.00051289
0.000513377
0.000514014
0.000514845
0.000515929
0.000517338
0.000519162
0.000521507
0.000524502
0.000528292
0.000533043
0.000538943
0.000546198
0.000555014
0.000565613
0.000578244
0.000593214
0.00061086
0.000631532
0.000655621
0.000683755
0.000716809
0.000755706
0.000801086
0.000854234
0.000917911
0.000996195
0.00109273
0.00120909
0.00134363
0.00149087
0.00164208
0.00178722
0.00191719
0.0020258
0.00211027
0.00217115
0.00221114
0.00223396
0.00224406
0.00224539
0.00224561
0.00224461
0.00223983
0.00223072
0.00221775
0.00220222
0.00218402
0.00216463
0.00214514
0.0021243
0.000514746
0.000515757
0.000517059
0.00051873
0.000520865
0.000523573
0.00052698
0.000531227
0.000536476
0.000542904
0.0005507
0.000560053
0.000571167
0.000584277
0.000599678
0.00061769
0.000638644
0.000662908
0.000691089
0.000724023
0.000762617
0.000807452
0.000859671
0.000921739
0.000997436
0.00109025
0.0012019
0.00133124
0.00147367
0.00162148
0.00176542
0.0018966
0.00200841
0.00209771
0.00216423
0.00220944
0.00223682
0.00225111
0.00225479
0.00225476
0.00225479
0.00225178
0.00224433
0.00223358
0.00221964
0.00220312
0.00218481
0.00216595
0.00214661
0.00212693
0.00210754
0.0020872
0.000523056
0.000526198
0.000530089
0.000534866
0.000540683
0.000547707
0.000556113
0.00056607
0.000577768
0.000591434
0.000607356
0.000625837
0.000647191
0.000671772
0.000700178
0.000733219
0.000771766
0.000816349
0.000868025
0.000929056
0.00100296
0.00109302
0.00120092
0.00132583
0.00146379
0.00160796
0.00174983
0.00188088
0.00199451
0.00208723
0.00215782
0.00220755
0.00223947
0.0022573
0.00226353
0.0022642
0.0022647
0.00226287
0.00225721
0.0022481
0.00223578
0.00222106
0.00220396
0.00218587
0.00216728
0.00214829
0.00212919
0.0021101
0.0020909
0.00207201
0.00205223
0.000539358
0.000545818
0.000553511
0.000562595
0.000573223
0.000585575
0.000599879
0.000616414
0.000635469
0.000657339
0.000682376
0.000711182
0.000744549
0.000783292
0.000827896
0.000879377
0.000939879
0.0010127
0.00110086
0.00120591
0.00132714
0.00146107
0.00160154
0.00174071
0.00187059
0.00198481
0.00207947
0.00215298
0.00220643
0.00224203
0.00226273
0.00227203
0.00227394
0.00227393
0.00227332
0.00226938
0.0022617
0.00225107
0.00223779
0.00222203
0.0022048
0.00218706
0.00216877
0.00215023
0.00213161
0.00211296
0.00209428
0.00207565
0.00205692
0.00203848