/*--------------------------------*- C++ -*----------------------------------*\
| =========                 |                                                 |
| \\      /  F ield         | OpenFOAM: The Open Source CFD Toolbox           |
|  \\    /   O peration     | Version:  v1706                                 |
|   \\  /    A nd           | Web:      www.OpenFOAM.com                      |
|    \\/     M anipulation  |                                                 |
\*---------------------------------------------------------------------------*/
FoamFile
{
    version     2.0;
    format      ascii;
    class       volScalarField;
    location    "3.3e-05";
    object      Tt;
}
// * * * * * * * * * * * * * * * * * * * * * * * * * * * * * * * * * * * * * //

dimensions      [0 0 0 1 0 0 0];


internalField   nonuniform List<scalar> 
30038
(
144.4
144.4
144.4
144.4
144.4
144.4
144.4
144.4
144.4
144.4
144.4
144.4
144.4
144.4
144.4
144.4
144.4
144.4
144.4
144.4
144.4
144.4
144.4
144.4
144.4
144.4
144.4
144.4
144.4
144.4
144.4
144.4
144.4
144.4
144.4
144.4
144.4
144.4
144.4
144.4
144.4
144.4
144.4
144.4
144.4
144.4
144.4
144.4
144.4
144.4
144.4
144.4
144.4
144.4
144.4
144.4
144.4
144.4
144.4
144.4
144.4
144.4
144.4
144.4
144.4
144.4
144.4
144.4
144.4
144.4
144.4
144.4
144.4
144.4
144.4
144.4
144.4
144.4
144.4
144.4
144.4
144.4
144.4
144.4
144.4
144.4
144.4
144.4
144.4
144.4
144.4
144.4
144.4
144.4
144.4
144.4
144.4
144.4
144.4
144.4
144.4
144.4
144.4
144.4
144.4
144.4
144.4
144.4
144.4
144.4
144.4
144.4
144.4
144.4
144.4
144.4
144.4
144.4
144.4
144.4
144.4
144.4
144.4
144.4
144.4
144.4
144.4
144.4
144.4
144.4
144.4
144.4
144.4
144.4
144.4
144.4
144.4
144.4
144.4
144.4
144.4
144.4
144.4
144.4
144.4
144.4
144.4
144.4
144.4
144.4
144.4
144.4
144.4
144.4
144.4
144.4
144.4
144.4
144.4
144.4
144.4
144.4
144.4
144.4
144.4
144.4
144.4
144.4
144.4
144.4
144.4
144.4
144.4
144.4
144.4
144.4
144.4
144.4
144.4
144.4
144.4
144.4
144.4
144.4
144.4
144.4
144.4
144.4
144.4
144.4
144.4
144.4
144.4
144.4
144.4
144.4
144.4
144.4
144.4
144.4
144.4
144.4
144.4
144.4
144.4
144.4
144.4
144.4
144.4
144.4
144.4
144.4
144.4
144.4
144.4
144.4
144.4
144.4
144.4
144.4
144.4
144.4
144.4
144.4
144.4
144.4
144.4
144.4
144.4
144.4
144.4
144.4
144.4
144.4
144.4
144.4
144.4
144.4
144.4
144.4
144.4
144.4
144.4
144.4
144.4
144.4
144.4
144.4
144.4
144.4
144.4
144.4
144.4
144.4
144.4
144.4
144.4
144.4
144.4
144.4
144.4
144.4
144.4
144.4
144.4
144.4
144.4
144.4
144.4
144.4
144.4
144.4
144.4
144.4
144.4
144.4
144.4
144.4
144.4
144.4
144.4
144.4
144.4
144.4
144.4
144.4
144.4
144.4
144.4
144.4
144.4
144.4
144.4
144.4
144.4
144.4
144.4
144.4
144.4
144.4
144.4
144.4
144.4
144.4
144.4
144.4
144.4
144.4
144.4
144.4
144.4
144.4
144.4
144.4
144.4
144.4
144.4
144.4
144.4
144.4
144.4
144.4
144.4
144.4
144.4
144.4
144.4
144.4
144.4
144.4
144.4
144.4
144.4
144.4
144.4
144.4
144.4
144.4
144.4
144.4
144.4
144.4
144.4
144.4
144.4
144.4
144.4
144.4
144.4
144.4
144.4
144.4
144.4
144.4
144.4
144.4
144.4
144.4
144.4
144.4
144.4
144.4
144.4
144.4
144.4
144.4
144.4
144.4
144.4
144.4
144.4
144.4
144.4
144.4
144.4
144.4
144.4
144.4
144.4
144.4
144.4
144.4
144.4
144.4
144.4
144.4
144.4
144.4
144.4
144.4
144.4
144.4
144.4
144.4
144.4
144.4
144.4
144.4
144.4
144.4
144.4
144.4
144.4
144.4
144.4
144.4
144.4
144.4
144.4
144.4
144.4
144.4
144.4
144.4
144.4
144.4
144.4
144.4
144.4
144.4
144.4
144.4
144.4
144.4
144.4
144.4
144.4
144.4
144.4
144.4
144.4
144.4
144.4
144.4
144.4
144.4
144.4
144.4
144.4
144.4
144.4
144.4
144.4
144.4
144.4
144.4
144.4
144.4
144.4
144.4
144.4
144.4
144.4
144.4
144.4
144.4
144.4
144.4
144.4
144.4
144.4
144.4
144.4
144.4
144.4
144.4
144.4
144.4
144.4
144.4
144.4
144.4
144.4
144.4
144.4
144.4
144.4
144.4
144.4
144.4
144.4
144.4
144.4
144.4
144.4
144.4
144.4
144.4
144.4
144.4
144.4
144.4
144.4
144.4
144.4
144.4
144.4
144.4
144.4
144.4
144.4
144.4
144.4
144.4
144.4
144.4
144.4
144.4
144.4
144.4
144.4
144.4
144.4
144.4
144.4
144.4
144.4
144.4
144.4
144.4
144.4
144.4
144.4
144.4
144.4
144.4
144.4
144.4
144.4
144.4
144.4
144.4
144.4
144.4
144.4
144.4
144.4
144.4
144.4
144.4
144.4
144.4
144.4
144.4
144.4
144.4
144.4
144.4
144.4
144.4
144.4
144.4
144.4
144.4
144.4
144.4
144.4
144.4
144.4
144.4
144.4
144.4
144.4
144.4
144.4
144.4
144.4
144.4
144.4
144.4
144.4
144.4
144.4
144.4
144.4
144.4
144.4
144.4
144.4
144.4
144.4
144.4
144.4
144.4
144.4
144.4
144.4
144.4
144.4
144.4
144.4
144.4
144.4
144.4
144.4
144.4
144.4
144.4
144.4
144.4
144.4
144.4
144.4
144.4
144.4
144.4
144.4
144.4
144.4
144.4
144.4
144.4
144.4
144.4
144.4
144.4
144.4
144.4
144.4
144.4
144.4
144.4
144.4
144.4
144.4
144.4
144.4
144.4
144.4
144.4
144.4
144.4
144.4
144.4
144.4
144.4
144.4
144.4
144.4
144.4
144.4
144.4
144.4
144.4
144.4
144.4
144.4
144.4
144.4
144.4
144.4
144.4
144.4
144.4
144.4
144.4
144.4
144.4
144.4
144.4
144.4
144.4
144.4
144.4
144.4
144.4
144.4
144.4
144.4
144.4
144.4
144.4
144.4
144.4
144.4
144.4
144.4
144.4
144.4
144.4
144.4
144.4
144.4
144.4
144.4
144.4
144.4
144.4
144.4
144.4
144.4
144.4
144.4
144.4
144.4
144.4
144.4
144.4
144.4
144.4
144.4
144.4
144.4
144.4
144.4
144.4
144.4
144.4
144.4
144.4
144.4
144.4
144.4
144.4
144.4
144.4
144.4
144.4
144.4
144.4
144.4
144.4
144.4
144.4
144.4
144.4
144.4
144.4
144.4
144.4
144.4
144.4
144.4
144.4
144.4
144.4
144.4
144.4
144.4
144.4
144.4
144.4
144.4
144.4
144.4
144.4
144.4
144.4
144.4
144.4
144.4
144.4
144.4
144.4
144.4
144.4
144.4
144.4
144.4
144.4
144.4
144.4
144.4
144.4
144.4
144.4
144.4
144.4
144.4
144.4
144.4
144.4
144.4
144.4
144.4
144.4
144.4
144.4
144.4
144.4
144.4
144.4
144.4
144.4
144.4
144.4
144.4
144.4
144.4
144.4
144.4
144.4
144.4
144.4
144.4
144.4
144.4
144.4
144.4
144.4
144.4
144.4
144.4
144.4
144.4
144.4
144.4
144.4
144.4
144.4
144.4
144.4
144.4
144.4
144.4
144.4
144.4
144.4
144.4
144.4
144.4
144.4
144.4
144.4
144.4
144.4
144.4
144.4
144.4
144.4
144.4
144.4
144.4
144.4
144.4
144.4
144.4
144.4
144.4
144.4
144.4
144.4
144.4
144.4
144.4
144.4
144.4
144.4
144.4
144.4
144.4
144.4
144.4
144.4
144.4
144.4
144.4
144.4
144.4
144.4
144.4
144.4
144.4
144.4
144.4
144.4
144.4
144.4
144.4
144.4
144.4
144.4
144.4
144.4
144.4
144.4
144.4
144.4
144.4
144.4
144.4
144.4
144.4
144.4
144.4
144.4
144.4
144.4
144.4
144.4
144.4
144.4
144.4
144.4
144.4
144.4
144.4
144.4
144.4
144.4
144.4
144.4
144.4
144.4
144.4
144.4
144.4
144.4
144.4
144.4
144.4
144.4
144.4
144.4
144.4
144.4
144.4
144.4
144.4
144.4
144.4
144.4
144.4
144.4
144.4
144.4
144.4
144.4
144.4
144.4
144.4
144.4
144.4
144.4
144.4
144.4
144.4
144.4
144.4
144.4
144.4
144.4
144.4
144.4
144.4
144.4
144.4
144.4
144.4
144.4
144.4
144.4
144.4
144.4
144.4
144.4
144.4
144.4
144.4
144.4
144.4
144.4
144.4
144.4
144.4
144.4
144.4
144.4
144.4
144.4
144.4
144.4
144.4
144.4
144.4
144.4
144.4
144.4
144.4
144.4
144.4
144.4
144.4
144.4
144.4
144.4
144.4
144.4
144.4
144.4
144.4
144.4
144.4
144.4
144.4
144.4
144.4
144.4
144.4
144.4
144.4
144.4
144.4
144.4
144.4
144.4
144.4
144.4
144.4
144.4
144.4
144.4
144.4
144.4
144.4
144.4
144.4
144.4
144.4
144.4
144.4
144.4
144.4
144.4
144.4
144.4
144.4
144.4
144.4
144.4
144.4
144.4
144.4
144.4
144.4
144.4
144.4
144.4
144.4
144.4
144.4
144.4
144.4
144.4
144.4
144.4
144.4
144.4
144.4
144.4
144.4
144.4
144.4
144.4
144.4
144.4
144.4
144.4
144.4
144.4
144.4
144.4
144.4
144.4
144.4
144.4
144.4
144.4
144.4
144.4
144.4
144.4
144.4
144.4
144.4
144.4
144.4
144.4
144.4
144.4
144.4
144.4
144.4
144.4
144.4
144.4
144.4
144.4
144.4
144.4
144.4
144.4
144.4
144.4
144.4
144.4
144.4
144.4
144.4
144.4
144.4
144.4
144.4
144.4
144.4
144.4
144.4
144.4
144.4
144.4
144.4
144.4
144.4
144.4
144.4
144.4
144.4
144.4
144.4
144.4
144.4
144.4
144.4
144.4
144.4
144.4
144.4
144.4
144.4
144.4
144.4
144.4
144.4
144.4
144.4
144.4
144.4
144.4
144.4
144.4
144.4
144.4
144.4
144.4
144.4
144.4
144.4
144.4
144.4
144.4
144.4
144.4
144.4
144.4
144.4
144.4
144.4
144.4
144.4
144.4
144.4
144.4
144.4
144.4
144.4
144.4
144.4
144.4
144.4
144.4
144.4
144.4
144.4
144.4
144.4
144.4
144.4
144.4
144.4
144.4
144.4
144.4
144.4
144.4
144.4
144.4
144.4
144.4
144.4
144.4
144.4
144.401
144.4
144.4
144.4
144.4
144.4
144.4
144.4
144.4
144.4
144.4
144.4
144.4
144.4
144.4
144.4
144.4
144.4
144.4
144.4
144.4
144.4
144.4
144.4
144.4
144.4
144.4
144.4
144.4
144.4
144.4
144.4
144.4
144.4
144.4
144.4
144.4
144.4
144.4
144.4
144.4
144.4
144.4
144.4
144.4
144.4
144.4
144.401
144.401
144.402
144.403
144.4
144.4
144.4
144.4
144.4
144.4
144.4
144.4
144.4
144.4
144.4
144.4
144.4
144.4
144.4
144.4
144.4
144.4
144.4
144.4
144.4
144.4
144.4
144.4
144.4
144.4
144.4
144.4
144.4
144.4
144.4
144.4
144.4
144.4
144.4
144.4
144.4
144.4
144.4
144.4
144.4
144.4
144.4
144.401
144.401
144.402
144.403
144.404
144.406
144.409
144.4
144.4
144.4
144.4
144.4
144.4
144.4
144.4
144.4
144.4
144.4
144.4
144.4
144.4
144.4
144.4
144.4
144.4
144.4
144.4
144.4
144.4
144.4
144.4
144.4
144.4
144.4
144.4
144.4
144.4
144.4
144.4
144.4
144.4
144.4
144.4
144.4
144.4
144.4
144.401
144.401
144.401
144.402
144.403
144.404
144.406
144.409
144.414
144.422
144.434
144.4
144.4
144.4
144.4
144.4
144.4
144.4
144.4
144.4
144.4
144.4
144.4
144.4
144.4
144.4
144.4
144.4
144.4
144.4
144.4
144.4
144.4
144.4
144.4
144.4
144.4
144.4
144.4
144.4
144.4
144.4
144.4
144.4
144.4
144.4
144.4
144.401
144.401
144.401
144.402
144.403
144.404
144.406
144.41
144.415
144.422
144.434
144.451
144.478
144.521
144.4
144.4
144.4
144.4
144.4
144.4
144.4
144.4
144.4
144.4
144.4
144.4
144.4
144.4
144.4
144.4
144.4
144.4
144.4
144.4
144.4
144.4
144.4
144.4
144.4
144.4
144.4
144.4
144.4
144.4
144.4
144.4
144.4
144.401
144.401
144.401
144.402
144.403
144.405
144.407
144.41
144.415
144.423
144.435
144.452
144.478
144.518
144.579
144.674
144.822
144.4
144.4
144.4
144.4
144.4
144.4
144.4
144.4
144.4
144.4
144.4
144.4
144.4
144.4
144.4
144.4
144.4
144.4
144.4
144.4
144.4
144.4
144.4
144.4
144.4
144.4
144.4
144.4
144.4
144.401
144.401
144.401
144.402
144.402
144.403
144.405
144.408
144.411
144.416
144.424
144.436
144.454
144.481
144.521
144.581
144.672
144.809
145.018
145.337
145.837
144.4
144.4
144.4
144.4
144.4
144.4
144.4
144.4
144.4
144.4
144.4
144.4
144.4
144.4
144.4
144.4
144.4
144.4
144.4
144.4
144.4
144.4
144.4
144.4
144.4
144.4
144.401
144.401
144.401
144.402
144.403
144.404
144.406
144.408
144.412
144.418
144.426
144.439
144.457
144.485
144.526
144.587
144.678
144.815
145.019
145.325
145.786
146.479
147.53
149.148
144.4
144.4
144.4
144.4
144.4
144.4
144.4
144.4
144.4
144.4
144.4
144.4
144.4
144.4
144.4
144.4
144.4
144.4
144.4
144.4
144.4
144.4
144.401
144.401
144.401
144.402
144.402
144.403
144.405
144.407
144.409
144.414
144.42
144.429
144.442
144.462
144.491
144.534
144.597
144.69
144.829
145.034
145.339
145.792
146.467
147.47
148.962
151.176
154.464
159.368
144.4
144.4
144.4
144.4
144.4
144.4
144.4
144.4
144.4
144.4
144.4
144.4
144.4
144.4
144.4
144.4
144.4
144.4
144.4
144.401
144.401
144.401
144.402
144.403
144.404
144.405
144.408
144.411
144.416
144.423
144.433
144.447
144.469
144.5
144.545
144.611
144.708
144.851
145.061
145.371
145.827
146.499
147.489
148.947
151.086
154.211
158.744
165.255
174.497
187.439
144.4
144.4
144.4
144.4
144.4
144.4
144.4
144.4
144.4
144.4
144.4
144.4
144.4
144.4
144.4
144.401
144.401
144.401
144.402
144.402
144.403
144.404
144.406
144.409
144.413
144.418
144.426
144.437
144.454
144.477
144.511
144.56
144.631
144.734
144.884
145.103
145.423
145.89
146.572
147.568
149.021
151.134
154.194
158.592
164.847
173.611
185.659
201.835
222.992
249.834
144.4
144.4
144.4
144.4
144.4
144.4
144.4
144.4
144.4
144.4
144.4
144.401
144.401
144.401
144.401
144.402
144.403
144.404
144.405
144.408
144.411
144.415
144.422
144.431
144.443
144.462
144.488
144.525
144.579
144.657
144.768
144.929
145.162
145.498
145.985
146.689
147.709
149.183
151.309
154.359
158.705
164.835
173.36
184.993
200.5
220.608
245.888
276.652
312.923
354.3
144.4
144.4
144.4
144.4
144.4
144.4
144.4
144.401
144.401
144.401
144.401
144.402
144.403
144.404
144.405
144.407
144.41
144.413
144.419
144.426
144.437
144.451
144.472
144.502
144.545
144.605
144.691
144.814
144.989
145.24
145.6
146.117
146.857
147.92
149.443
151.617
154.71
159.077
165.183
173.605
185.012
200.123
219.614
244.018
273.614
308.351
347.848
391.44
438.302
487.293
144.4
144.4
144.4
144.401
144.401
144.401
144.401
144.402
144.402
144.403
144.405
144.406
144.409
144.412
144.417
144.423
144.432
144.445
144.462
144.487
144.521
144.57
144.639
144.736
144.873
145.067
145.343
145.736
146.293
147.086
148.213
149.812
152.075
155.262
159.722
165.9
174.345
185.688
200.601
219.716
243.532
272.318
306.044
344.364
386.641
432.025
479.469
527.795
575.876
622.719
144.401
144.401
144.401
144.402
144.402
144.403
144.404
144.406
144.408
144.411
144.415
144.421
144.429
144.44
144.455
144.476
144.505
144.546
144.603
144.682
144.794
144.95
145.17
145.478
145.913
146.526
147.388
148.603
150.311
152.705
156.045
160.672
167.018
175.608
187.04
201.941
220.895
244.362
272.589
305.555
342.947
384.192
428.513
474.967
522.43
569.763
615.836
659.409
698.969
733.463
144.402
144.402
144.403
144.404
144.406
144.408
144.411
144.415
144.42
144.427
144.437
144.451
144.469
144.495
144.53
144.579
144.647
144.74
144.87
145.051
145.303
145.654
146.144
146.828
147.783
149.115
150.97
153.543
157.098
161.971
168.585
177.445
189.116
204.181
223.176
246.514
274.41
306.838
343.508
383.892
427.279
472.817
519.501
566.246
612.006
655.675
695.913
731.281
760.741
783.885
801.522
144.406
144.408
144.411
144.415
144.42
144.427
144.436
144.448
144.466
144.489
144.521
144.564
144.624
144.705
144.817
144.972
145.185
145.478
145.884
146.446
147.223
148.297
149.78
151.826
154.636
158.476
163.683
170.673
179.932
191.992
207.394
226.621
250.034
277.811
309.908
346.045
385.728
428.3
472.984
518.88
564.977
610.299
653.856
694.502
730.898
761.875
786.818
805.853
819.731
829.371
836.08
144.415
144.42
144.427
144.436
144.448
144.464
144.486
144.516
144.556
144.61
144.684
144.784
144.92
145.107
145.361
145.71
146.187
146.84
147.736
148.964
150.643
152.933
156.047
160.255
165.897
173.38
183.173
195.776
211.684
231.325
255.004
282.853
314.804
350.577
389.706
431.576
475.472
520.585
565.988
610.759
654.005
694.733
731.748
763.866
790.31
810.949
826.288
837.173
844.586
849.489
852.585
854.608
144.449
144.465
144.486
144.515
144.553
144.604
144.673
144.766
144.891
145.059
145.288
145.597
146.017
146.586
147.36
148.409
149.833
151.761
154.364
157.863
162.536
168.726
176.833
187.305
200.609
217.19
237.417
261.536
289.63
321.599
357.16
395.863
437.134
480.308
524.655
569.332
613.47
656.247
696.793
734.062
766.922
794.508
816.489
833.155
845.214
853.565
859.148
862.705
864.858
866.106
866.627
866.81
144.556
144.606
144.672
144.761
144.879
145.038
145.25
145.534
145.916
146.429
147.12
148.048
149.296
150.972
153.217
156.214
160.197
165.451
172.319
181.195
192.502
206.668
224.085
245.06
269.776
298.264
330.391
365.864
404.251
445.008
487.519
531.114
575.035
618.471
660.659
700.821
738.044
771.287
799.653
822.677
840.458
853.571
862.805
869.051
873.096
875.556
876.995
877.662
877.674
877.591
877.382
876.826
144.885
145.038
145.242
145.512
145.872
146.35
146.987
147.836
148.967
150.472
152.471
155.12
158.615
163.201
169.171
176.869
186.672
198.979
214.17
232.58
254.449
279.897
308.902
341.298
376.784
414.939
455.248
497.139
539.997
583.138
625.81
667.301
706.913
743.847
777.161
805.967
829.719
848.374
862.368
872.386
879.252
883.773
886.54
888.148
888.953
889.03
888.841
888.57
888.008
887.088
885.968
884.712
145.879
146.34
146.948
147.75
148.809
150.204
152.042
154.457
157.619
161.738
167.072
173.918
182.614
193.519
206.995
223.372
242.919
265.81
292.099
321.715
354.462
390.028
428.006
467.909
509.205
551.331
593.664
635.513
676.215
715.138
751.575
784.683
813.617
837.796
857.073
871.744
882.41
889.824
894.764
897.83
899.608
900.541
900.687
900.426
900.056
899.515
898.602
897.444
896.144
894.687
893.209
891.772
148.803
150.139
151.883
154.154
157.103
160.915
165.815
172.067
179.972
189.853
202.043
216.857
234.569
255.379
279.391
306.599
336.886
370.029
405.711
443.539
483.053
523.759
565.14
606.632
647.597
687.425
725.535
761.299
793.964
822.748
847.06
866.683
881.818
892.983
900.847
906.127
909.461
911.4
912.411
912.632
912.36
911.883
911.282
910.403
909.228
907.885
906.377
904.794
903.208
901.651
900.122
898.624
157.011
160.644
165.276
171.144
178.515
187.681
198.946
212.603
228.916
248.091
270.26
295.459
323.627
354.606
388.155
423.956
461.629
500.743
540.842
581.45
622.054
662.07
700.934
738.117
773.054
805.073
833.457
857.628
877.336
892.714
904.192
912.369
917.924
921.477
923.546
924.602
924.891
924.613
924.023
923.324
922.466
921.261
919.867
918.347
916.685
914.998
913.325
911.676
910.031
908.404
906.806
905.232
186.822
197.467
210.315
225.611
243.556
264.29
287.874
314.283
343.407
375.06
408.986
444.872
482.355
521.031
560.482
600.272
639.93
678.923
716.733
752.876
786.846
818.038
845.798
869.58
889.127
904.521
916.12
924.47
930.205
933.894
936.057
937.161
937.467
937.167
936.507
935.7
934.781
933.559
932.114
930.552
928.835
927.053
925.276
923.52
921.774
920.038
918.32
916.61
914.906
913.223
911.559
241.513
261.186
283.527
308.532
336.125
366.157
398.421
432.657
468.561
505.788
543.964
582.703
621.61
660.252
698.137
734.796
769.789
802.657
832.856
859.789
882.957
902.111
917.301
928.836
937.216
943.011
946.748
948.961
950.084
950.361
950.048
949.335
948.382
947.369
946.15
944.65
943.02
941.254
939.378
937.497
935.634
933.786
931.943
930.118
928.306
926.5
924.702
922.911
921.121
919.347
917.588
332.525
361.22
392.062
424.833
459.275
495.096
531.972
569.557
607.501
645.443
682.982
719.667
755.074
788.805
820.444
849.495
875.418
897.766
916.31
931.091
942.383
950.639
956.374
960.083
962.286
963.374
963.587
963.253
962.476
961.395
960.253
958.999
957.427
955.712
953.922
951.978
949.998
948.026
946.068
944.117
942.182
940.267
938.36
936.46
934.568
932.68
930.796
928.915
927.035
925.168
923.312
488.918
524.526
560.929
597.812
634.858
671.735
708.069
743.451
777.499
809.855
840.139
867.896
892.641
913.98
931.718
945.897
956.774
964.758
970.321
973.914
976.038
977.05
977.175
976.785
975.913
974.723
973.462
972.116
970.491
968.699
966.833
964.823
962.736
960.663
958.607
956.559
954.519
952.496
950.483
948.479
946.486
944.499
942.517
940.539
938.564
936.589
934.617
932.644
930.683
928.729
628.689
664.715
700.412
735.429
769.395
801.971
832.837
861.641
887.966
911.377
931.539
948.298
961.703
972.007
979.58
984.846
988.241
990.222
991.121
991.115
990.642
989.674
988.376
986.966
985.508
983.836
981.956
979.995
977.93
975.755
973.577
971.414
969.255
967.102
964.973
962.862
960.758
958.663
956.576
954.494
952.418
950.347
948.278
946.211
944.145
942.079
940.014
937.948
935.891
933.839
764.951
797.381
828.37
857.628
884.828
909.586
931.518
950.353
965.978
978.46
988.05
995.089
999.954
1003.07
1004.84
1005.54
1005.41
1004.83
1003.75
1002.32
1000.77
999.184
997.446
995.463
993.404
991.281
989.02
986.735
984.471
982.211
979.956
977.719
975.499
973.287
971.087
968.9
966.721
964.548
962.38
960.215
958.053
955.894
953.736
951.579
949.422
947.263
945.105
942.944
940.791
938.64
884.068
909.541
932.602
952.926
970.301
984.658
996.089
1004.85
1011.25
1015.62
1018.38
1019.88
1020.34
1020.07
1019.32
1018.1
1016.54
1014.87
1013.15
1011.3
1009.23
1007.07
1004.86
1002.53
1000.14
997.768
995.408
993.048
990.706
988.384
986.071
983.769
981.479
979.197
976.922
974.656
972.395
970.139
967.886
965.636
963.387
961.139
958.891
956.643
954.394
952.142
949.889
947.632
945.382
943.132
975.435
991.237
1004.22
1014.5
1022.33
1028
1031.8
1034.15
1035.33
1035.5
1035.06
1034.13
1032.75
1031.05
1029.25
1027.38
1025.41
1023.26
1021
1018.68
1016.27
1013.78
1011.31
1008.85
1006.38
1003.93
1001.5
999.088
996.684
994.294
991.915
989.542
987.178
984.819
982.466
980.117
977.773
975.432
973.093
970.756
968.418
966.081
963.742
961.402
959.059
956.713
954.365
952.012
949.665
947.314
1033.58
1040.41
1045.26
1048.46
1050.34
1051.13
1050.99
1050.37
1049.23
1047.67
1045.82
1043.89
1041.88
1039.77
1037.53
1035.16
1032.73
1030.24
1027.66
1025.08
1022.52
1019.95
1017.4
1014.86
1012.35
1009.84
1007.34
1004.86
1002.39
999.928
997.475
995.027
992.585
990.147
987.712
985.281
982.852
980.425
977.999
975.573
973.146
970.718
968.287
965.854
963.417
960.976
958.532
956.082
953.636
951.186
1065.52
1066.89
1067.23
1066.85
1065.95
1064.59
1062.84
1060.85
1058.78
1056.62
1054.38
1052.03
1049.55
1047.02
1044.43
1041.76
1039.07
1036.41
1033.75
1031.08
1028.45
1025.83
1023.22
1020.62
1018.04
1015.47
1012.91
1010.36
1007.81
1005.27
1002.74
1000.22
997.696
995.177
992.66
990.144
987.63
985.116
982.602
980.086
977.569
975.049
972.526
969.998
967.467
964.93
962.389
959.842
957.297
954.745
1081.8
1080.19
1078.26
1076.11
1073.89
1071.59
1069.22
1066.74
1064.16
1061.52
1058.83
1056.07
1053.28
1050.52
1047.76
1044.99
1042.25
1039.53
1036.82
1034.12
1031.45
1028.78
1026.11
1023.46
1020.82
1018.19
1015.56
1012.94
1010.33
1007.72
1005.11
1002.51
999.908
997.307
994.707
992.106
989.504
986.9
984.295
981.686
979.073
976.456
973.834
971.207
968.574
965.936
963.29
960.645
957.993
1091.59
1089.21
1086.78
1084.26
1081.66
1078.97
1076.22
1073.43
1070.57
1067.69
1064.82
1061.97
1059.11
1056.26
1053.45
1050.63
1047.84
1045.06
1042.29
1039.53
1036.79
1034.05
1031.32
1028.6
1025.89
1023.18
1020.48
1017.78
1015.09
1012.4
1009.71
1007.02
1004.34
1001.65
998.966
996.278
993.587
990.894
988.196
985.495
982.789
980.078
977.36
974.637
971.906
969.17
966.426
963.682
960.928
1099.5
1096.77
1093.97
1091.11
1088.22
1085.26
1082.28
1079.32
1076.37
1073.41
1070.47
1067.55
1064.65
1061.75
1058.87
1056.01
1053.15
1050.31
1047.48
1044.66
1041.85
1039.04
1036.24
1033.45
1030.66
1027.88
1025.1
1022.32
1019.55
1016.78
1014.01
1011.24
1008.47
1005.7
1002.92
1000.14
997.364
994.58
991.791
988.996
986.196
983.389
980.576
977.755
974.927
972.093
969.25
966.406
963.551
1103.17
1100.12
1097.05
1093.99
1090.94
1087.89
1084.85
1081.84
1078.84
1075.85
1072.88
1069.92
1066.97
1064.04
1061.11
1058.2
1055.29
1052.39
1049.5
1046.62
1043.74
1040.87
1038
1035.14
1032.28
1029.42
1026.57
1023.71
1020.86
1018.01
1015.15
1012.29
1009.44
1006.57
1003.71
1000.83
997.958
995.076
992.187
989.292
986.39
983.48
980.562
977.636
974.703
971.761
968.817
965.862
1108.82
1105.68
1102.54
1099.41
1096.31
1093.22
1090.13
1087.06
1084.01
1080.97
1077.94
1074.93
1071.92
1068.92
1065.93
1062.95
1059.98
1057.01
1054.05
1051.1
1048.15
1045.21
1042.26
1039.32
1036.39
1033.45
1030.51
1027.58
1024.64
1021.7
1018.76
1015.82
1012.87
1009.92
1006.96
1004
1001.03
998.051
995.068
992.077
989.079
986.072
983.057
980.033
977.002
973.961
970.918
967.862
1110.93
1107.75
1104.57
1101.41
1098.27
1095.14
1092.02
1088.92
1085.82
1082.73
1079.65
1076.59
1073.52
1070.47
1067.42
1064.38
1061.35
1058.32
1055.29
1052.27
1049.25
1046.23
1043.21
1040.19
1037.17
1034.16
1031.14
1028.11
1025.09
1022.06
1019.03
1015.99
1012.95
1009.9
1006.85
1003.79
1000.72
997.638
994.551
991.456
988.353
985.24
982.119
978.989
975.85
972.709
969.553
1115.91
1112.69
1109.47
1106.26
1103.07
1099.88
1096.71
1093.54
1090.39
1087.24
1084.1
1080.97
1077.84
1074.72
1071.61
1068.5
1065.39
1062.29
1059.18
1056.09
1052.99
1049.89
1046.8
1043.7
1040.6
1037.5
1034.39
1031.29
1028.17
1025.06
1021.94
1018.81
1015.68
1012.54
1009.39
1006.23
1003.07
999.896
996.714
993.523
990.322
987.113
983.894
980.667
977.43
974.191
970.937
1117.36
1114.09
1110.83
1107.59
1104.35
1101.11
1097.89
1094.67
1091.46
1088.26
1085.06
1081.87
1078.68
1075.5
1072.32
1069.14
1065.96
1062.78
1059.61
1056.43
1053.26
1050.08
1046.9
1043.72
1040.53
1037.34
1034.15
1030.95
1027.75
1024.54
1021.32
1018.09
1014.86
1011.62
1008.37
1005.11
1001.84
998.566
995.279
991.982
988.675
985.36
982.036
978.703
975.367
972.016
1121.77
1118.45
1115.13
1111.83
1108.53
1105.24
1101.95
1098.67
1095.4
1092.13
1088.87
1085.61
1082.35
1079.09
1075.84
1072.59
1069.33
1066.08
1062.83
1059.57
1056.32
1053.06
1049.8
1046.53
1043.26
1039.99
1036.71
1033.42
1030.13
1026.82
1023.52
1020.2
1016.87
1013.54
1010.2
1006.84
1003.48
1000.11
996.725
993.332
989.93
986.519
983.099
979.67
976.239
972.793
1125.9
1122.52
1119.15
1115.79
1112.43
1109.08
1105.73
1102.39
1099.05
1095.71
1092.38
1089.05
1085.72
1082.39
1079.07
1075.74
1072.41
1069.08
1065.75
1062.41
1059.08
1055.74
1052.39
1049.04
1045.68
1042.32
1038.95
1035.58
1032.19
1028.8
1025.4
1022
1018.58
1015.15
1011.71
1008.27
1004.81
1001.34
997.864
994.376
990.879
987.373
983.858
980.335
976.81
973.269
1129.75
1126.32
1122.89
1119.46
1116.05
1112.63
1109.22
1105.81
1102.4
1099
1095.6
1092.2
1088.8
1085.39
1081.99
1078.59
1075.18
1071.77
1068.36
1064.95
1061.53
1058.1
1054.67
1051.24
1047.8
1044.35
1040.89
1037.43
1033.95
1030.47
1026.98
1023.48
1019.97
1016.45
1012.92
1009.38
1005.83
1002.27
998.696
995.114
991.523
987.924
984.315
980.698
977.08
973.453
1133.32
1129.83
1126.34
1122.85
1119.37
1115.89
1112.41
1108.94
1105.46
1101.99
1098.52
1095.04
1091.57
1088.09
1084.61
1081.13
1077.65
1074.16
1070.67
1067.17
1063.67
1060.16
1056.65
1053.13
1049.6
1046.06
1042.52
1038.97
1035.4
1031.83
1028.25
1024.66
1021.06
1017.44
1013.82
1010.19
1006.54
1002.89
999.224
995.549
991.864
988.173
984.479
980.778
977.075
973.361
1136.6
1133.05
1129.5
1125.95
1122.4
1118.86
1115.31
1111.77
1108.23
1104.68
1101.14
1097.59
1094.04
1090.49
1086.93
1083.37
1079.81
1076.24
1072.67
1069.09
1065.51
1061.91
1058.31
1054.71
1051.09
1047.47
1043.84
1040.19
1036.54
1032.88
1029.21
1025.53
1021.83
1018.13
1014.42
1010.69
1006.95
1003.21
999.451
995.691
991.921
988.145
984.365
980.579
976.792
972.992
1139.59
1135.97
1132.36
1128.75
1125.14
1121.53
1117.91
1114.3
1110.69
1107.07
1103.45
1099.83
1096.21
1092.58
1088.95
1085.31
1081.67
1078.02
1074.36
1070.7
1067.03
1063.36
1059.67
1055.98
1052.28
1048.57
1044.85
1041.12
1037.37
1033.62
1029.86
1026.09
1022.3
1018.51
1014.7
1010.89
1007.07
1003.24
999.398
995.552
991.698
987.836
983.969
980.098
976.226
972.344
1138.61
1134.93
1131.25
1127.57
1123.89
1120.21
1116.53
1112.84
1109.16
1105.46
1101.77
1098.07
1094.36
1090.65
1086.93
1083.21
1079.48
1075.74
1072
1068.25
1064.49
1060.72
1056.94
1053.15
1049.35
1045.55
1041.73
1037.9
1034.06
1030.21
1026.34
1022.48
1018.6
1014.71
1010.81
1006.9
1002.99
999.062
995.128
991.188
987.242
983.292
979.338
975.386
971.425
1140.94
1137.2
1133.45
1129.71
1125.96
1122.21
1118.45
1114.7
1110.93
1107.17
1103.39
1099.62
1095.83
1092.04
1088.25
1084.45
1080.64
1076.82
1072.99
1069.15
1065.31
1061.45
1057.59
1053.72
1049.83
1045.94
1042.03
1038.12
1034.19
1030.26
1026.32
1022.36
1018.4
1014.43
1010.44
1006.45
1002.45
998.439
994.421
990.398
986.371
982.341
978.309
974.279
970.242
1142.97
1139.16
1135.35
1131.54
1127.72
1123.9
1120.07
1116.24
1112.4
1108.56
1104.71
1100.86
1097
1093.13
1089.25
1085.37
1081.48
1077.58
1073.67
1069.75
1065.82
1061.88
1057.93
1053.97
1050.01
1046.03
1042.05
1038.05
1034.04
1030.03
1026
1021.96
1017.91
1013.86
1009.79
1005.71
1001.63
997.536
993.438
989.336
985.23
981.123
977.016
972.913
968.805
1140.83
1136.95
1133.06
1129.17
1125.28
1121.38
1117.47
1113.56
1109.65
1105.72
1101.79
1097.85
1093.9
1089.95
1085.99
1082.01
1078.03
1074.04
1070.04
1066.03
1062.01
1057.98
1053.94
1049.9
1045.84
1041.77
1037.69
1033.6
1029.5
1025.39
1021.27
1017.14
1013
1008.85
1004.69
1000.53
996.361
992.186
988.007
983.827
979.647
975.468
971.296
967.119
1142.18
1138.23
1134.28
1130.32
1126.35
1122.38
1118.4
1114.41
1110.42
1106.42
1102.41
1098.39
1094.37
1090.33
1086.29
1082.24
1078.18
1074.11
1070.03
1065.94
1061.85
1057.74
1053.62
1049.49
1045.35
1041.2
1037.04
1032.87
1028.69
1024.5
1020.3
1016.09
1011.87
1007.64
1003.41
999.166
994.921
990.671
986.42
982.169
977.92
973.673
969.435
965.195
1143.22
1139.2
1135.18
1131.15
1127.11
1123.06
1119.01
1114.95
1110.88
1106.8
1102.72
1098.63
1094.53
1090.42
1086.3
1082.17
1078.04
1073.89
1069.74
1065.57
1061.39
1057.2
1053
1048.8
1044.58
1040.35
1036.11
1031.86
1027.6
1023.33
1019.05
1014.76
1010.46
1006.16
1001.85
997.54
993.223
988.903
984.583
980.264
975.949
971.639
967.339
963.039
1143.95
1139.87
1135.77
1131.67
1127.56
1123.44
1119.31
1115.18
1111.04
1106.89
1102.73
1098.56
1094.39
1090.21
1086.01
1081.81
1077.6
1073.37
1069.14
1064.89
1060.64
1056.37
1052.09
1047.81
1043.51
1039.2
1034.89
1030.56
1026.22
1021.88
1017.53
1013.17
1008.8
1004.42
1000.04
995.66
991.275
986.888
982.502
978.12
973.743
969.373
965.016
960.66
1140.21
1136.05
1131.88
1127.7
1123.51
1119.31
1115.11
1110.9
1106.68
1102.45
1098.21
1093.96
1089.7
1085.43
1081.15
1076.86
1072.56
1068.25
1063.92
1059.59
1055.25
1050.9
1046.54
1042.17
1037.78
1033.39
1028.99
1024.58
1020.17
1015.74
1011.31
1006.87
1002.43
997.984
993.535
989.084
984.634
980.187
975.744
971.31
966.885
962.474
958.068
1140.26
1136.02
1131.79
1127.54
1123.28
1119.02
1114.74
1110.46
1106.16
1101.86
1097.54
1093.22
1088.89
1084.54
1080.19
1075.82
1071.45
1067.07
1062.67
1058.27
1053.85
1049.43
1044.99
1040.55
1036.09
1031.63
1027.16
1022.68
1018.2
1013.7
1009.21
1004.7
1000.19
995.683
991.171
986.659
982.15
977.645
973.147
968.659
964.182
959.723
955.27
1140.01
1135.71
1131.4
1127.08
1122.75
1118.42
1114.07
1109.71
1105.35
1100.97
1096.58
1092.19
1087.78
1083.37
1078.94
1074.5
1070.06
1065.6
1061.14
1056.66
1052.17
1047.68
1043.17
1038.66
1034.14
1029.61
1025.07
1020.53
1015.97
1011.42
1006.85
1002.29
997.718
993.148
988.577
984.008
979.443
974.885
970.335
965.798
961.275
956.77
952.276
1135.08
1130.7
1126.31
1121.92
1117.51
1113.09
1108.67
1104.23
1099.79
1095.33
1090.86
1086.39
1081.9
1077.41
1072.9
1068.39
1063.86
1059.33
1054.78
1050.23
1045.67
1041.09
1036.51
1031.93
1027.33
1022.73
1018.12
1013.51
1008.89
1004.27
999.641
995.014
990.387
985.761
981.14
976.523
971.916
967.319
962.737
958.17
953.626
949.094
1134.14
1129.7
1125.24
1120.78
1116.31
1111.82
1107.33
1102.83
1098.31
1093.79
1089.25
1084.71
1080.16
1075.59
1071.02
1066.44
1061.85
1057.25
1052.64
1048.02
1043.39
1038.76
1034.12
1029.47
1024.81
1020.15
1015.48
1010.81
1006.13
1001.45
996.769
992.089
987.409
982.733
978.062
973.399
968.746
964.106
959.483
954.878
950.298
945.734
1132.91
1128.4
1123.88
1119.35
1114.81
1110.26
1105.7
1101.13
1096.55
1091.96
1087.36