# Cf ()      
# Time       	patch        	min          	max          	average      
2e-05        	cone	2.007521e-05	7.439914e-02	2.644513e-02
