/*--------------------------------*- C++ -*----------------------------------*\
| =========                 |                                                 |
| \\      /  F ield         | OpenFOAM: The Open Source CFD Toolbox           |
|  \\    /   O peration     | Version:  v1706                                 |
|   \\  /    A nd           | Web:      www.OpenFOAM.com                      |
|    \\/     M anipulation  |                                                 |
\*---------------------------------------------------------------------------*/
FoamFile
{
    version     2.0;
    format      ascii;
    class       volScalarField;
    location    "3.9e-05";
    object      alpha;
}
// * * * * * * * * * * * * * * * * * * * * * * * * * * * * * * * * * * * * * //

dimensions      [1 -1 -1 0 0 0 0];


internalField   nonuniform List<scalar> 
30104
(
1.40513e-05
1.40518e-05
1.40524e-05
1.40531e-05
1.40539e-05
1.40548e-05
1.40559e-05
1.40571e-05
1.40585e-05
1.40601e-05
1.4062e-05
1.40641e-05
1.40665e-05
1.40693e-05
1.40724e-05
1.4076e-05
1.40801e-05
1.70595e-05
1.70019e-05
1.69438e-05
1.68854e-05
1.68266e-05
1.67677e-05
1.67088e-05
1.66498e-05
1.65909e-05
1.6532e-05
1.64732e-05
1.64143e-05
1.63555e-05
1.62965e-05
1.62374e-05
1.61782e-05
1.61187e-05
1.60589e-05
1.59989e-05
1.59386e-05
1.5878e-05
1.58171e-05
1.5756e-05
1.56946e-05
1.56328e-05
1.55746e-05
1.55306e-05
1.54951e-05
1.54628e-05
1.54306e-05
1.5397e-05
1.53612e-05
1.5323e-05
1.52824e-05
1.52396e-05
1.51947e-05
1.51478e-05
1.50991e-05
1.50489e-05
1.49974e-05
1.49448e-05
1.48912e-05
1.48368e-05
1.47816e-05
1.47258e-05
1.46696e-05
1.46132e-05
1.45573e-05
1.45045e-05
1.44582e-05
1.44192e-05
1.4385e-05
1.4353e-05
1.4322e-05
1.42914e-05
1.42614e-05
1.42325e-05
1.42052e-05
1.41803e-05
1.41587e-05
1.41411e-05
1.41269e-05
1.41151e-05
1.41048e-05
1.40956e-05
1.40874e-05
1.40804e-05
1.40746e-05
1.407e-05
1.40663e-05
1.40632e-05
1.40605e-05
1.40582e-05
1.40563e-05
1.40546e-05
1.40532e-05
1.40522e-05
1.40513e-05
1.40506e-05
1.40501e-05
1.40496e-05
1.40492e-05
1.4049e-05
1.40487e-05
1.40485e-05
1.40484e-05
1.40483e-05
1.40482e-05
1.40481e-05
1.4048e-05
1.4048e-05
1.40479e-05
1.40479e-05
1.40479e-05
1.40479e-05
1.40478e-05
1.40478e-05
1.40478e-05
1.40478e-05
1.40478e-05
1.40478e-05
1.40478e-05
1.40478e-05
1.40478e-05
1.40478e-05
1.40478e-05
1.40478e-05
1.40478e-05
1.40478e-05
1.40478e-05
1.40478e-05
1.40478e-05
1.40478e-05
1.40478e-05
1.40478e-05
1.40478e-05
1.40478e-05
1.40478e-05
1.40478e-05
1.40478e-05
1.40478e-05
1.40478e-05
1.40478e-05
1.40478e-05
1.40478e-05
1.40478e-05
1.40478e-05
1.40478e-05
1.40478e-05
1.40478e-05
1.40478e-05
1.40478e-05
1.40478e-05
1.40478e-05
1.40478e-05
1.40478e-05
1.40478e-05
1.40478e-05
1.40478e-05
1.40478e-05
1.40478e-05
1.40478e-05
1.40478e-05
1.40478e-05
1.40478e-05
1.40478e-05
1.40478e-05
1.40478e-05
1.40478e-05
1.40478e-05
1.40478e-05
1.40478e-05
1.40478e-05
1.40478e-05
1.40478e-05
1.40478e-05
1.40478e-05
1.40478e-05
1.40478e-05
1.40478e-05
1.40478e-05
1.40478e-05
1.40478e-05
1.40478e-05
1.40478e-05
1.40478e-05
1.40478e-05
1.40478e-05
1.40478e-05
1.40478e-05
1.40478e-05
1.40478e-05
1.40478e-05
1.40478e-05
1.40478e-05
1.40478e-05
1.40478e-05
1.40478e-05
1.40478e-05
1.40478e-05
1.40478e-05
1.40478e-05
1.40478e-05
1.40478e-05
1.40478e-05
1.40478e-05
1.40478e-05
1.40478e-05
1.40478e-05
1.40478e-05
1.40478e-05
1.40478e-05
1.40478e-05
1.40693e-05
1.40726e-05
1.40764e-05
1.40808e-05
1.40858e-05
1.40916e-05
1.40982e-05
1.41058e-05
1.41145e-05
1.41244e-05
1.41359e-05
1.41489e-05
1.41638e-05
1.41808e-05
1.42002e-05
1.42224e-05
1.42479e-05
2.11898e-05
2.11608e-05
2.11324e-05
2.11048e-05
2.10781e-05
2.10523e-05
2.10276e-05
2.10037e-05
2.09807e-05
2.09585e-05
2.09368e-05
2.09155e-05
2.08943e-05
2.08732e-05
2.08518e-05
2.083e-05
2.08076e-05
2.07844e-05
2.07601e-05
2.07348e-05
2.07081e-05
2.06799e-05
2.06501e-05
2.06185e-05
2.05849e-05
2.0548e-05
2.05047e-05
2.04539e-05
2.03949e-05
2.0327e-05
2.02495e-05
2.01622e-05
2.00646e-05
1.99566e-05
1.98376e-05
1.9707e-05
1.95644e-05
1.94094e-05
1.92425e-05
1.90645e-05
1.88761e-05
1.86775e-05
1.84682e-05
1.82473e-05
1.80138e-05
1.7767e-05
1.75064e-05
1.72327e-05
1.69508e-05
1.66795e-05
1.64546e-05
1.6262e-05
1.60827e-05
1.59066e-05
1.57297e-05
1.55518e-05
1.53747e-05
1.52019e-05
1.50397e-05
1.48959e-05
1.47759e-05
1.46769e-05
1.45918e-05
1.45153e-05
1.44452e-05
1.43813e-05
1.43241e-05
1.42751e-05
1.42349e-05
1.42028e-05
1.41768e-05
1.41549e-05
1.41359e-05
1.41196e-05
1.41059e-05
1.40949e-05
1.40861e-05
1.40791e-05
1.40733e-05
1.40685e-05
1.40645e-05
1.40612e-05
1.40585e-05
1.40563e-05
1.40546e-05
1.40533e-05
1.40522e-05
1.40513e-05
1.40506e-05
1.405e-05
1.40496e-05
1.40492e-05
1.40489e-05
1.40487e-05
1.40485e-05
1.40484e-05
1.40483e-05
1.40482e-05
1.40481e-05
1.4048e-05
1.4048e-05
1.40479e-05
1.40479e-05
1.40479e-05
1.40479e-05
1.40478e-05
1.40478e-05
1.40478e-05
1.40478e-05
1.40478e-05
1.40478e-05
1.40478e-05
1.40478e-05
1.40478e-05
1.40478e-05
1.40478e-05
1.40478e-05
1.40478e-05
1.40478e-05
1.40478e-05
1.40478e-05
1.40478e-05
1.40478e-05
1.40478e-05
1.40478e-05
1.40478e-05
1.40478e-05
1.40478e-05
1.40478e-05
1.40478e-05
1.40478e-05
1.40478e-05
1.40478e-05
1.40478e-05
1.40478e-05
1.40478e-05
1.40478e-05
1.40478e-05
1.40478e-05
1.40478e-05
1.40478e-05
1.40478e-05
1.40478e-05
1.40478e-05
1.40478e-05
1.40478e-05
1.40478e-05
1.40478e-05
1.40478e-05
1.40478e-05
1.40478e-05
1.40478e-05
1.40478e-05
1.40478e-05
1.40478e-05
1.40478e-05
1.40478e-05
1.40478e-05
1.40478e-05
1.40478e-05
1.40478e-05
1.40478e-05
1.40478e-05
1.40478e-05
1.40478e-05
1.40478e-05
1.40478e-05
1.40478e-05
1.40478e-05
1.40478e-05
1.40478e-05
1.40478e-05
1.40478e-05
1.40478e-05
1.40478e-05
1.40478e-05
1.40478e-05
1.40478e-05
1.40478e-05
1.40478e-05
1.40478e-05
1.40478e-05
1.40478e-05
1.40478e-05
1.40478e-05
1.40478e-05
1.40478e-05
1.40478e-05
1.40478e-05
1.40478e-05
1.40478e-05
1.40478e-05
1.40478e-05
1.41264e-05
1.41385e-05
1.41524e-05
1.41683e-05
1.41866e-05
1.42075e-05
1.42314e-05
1.42589e-05
1.42904e-05
1.43265e-05
1.43676e-05
1.44144e-05
1.44672e-05
1.45269e-05
1.45944e-05
1.46711e-05
2.18225e-05
2.1798e-05
2.1774e-05
2.17504e-05
2.17274e-05
2.1705e-05
2.16834e-05
2.16626e-05
2.16427e-05
2.1624e-05
2.16064e-05
2.159e-05
2.1575e-05
2.15614e-05
2.15491e-05
2.15384e-05
2.15291e-05
2.15213e-05
2.1515e-05
2.15102e-05
2.15067e-05
2.15045e-05
2.15034e-05
2.15032e-05
2.15038e-05
2.15048e-05
2.15057e-05
2.15066e-05
2.15075e-05
2.1507e-05
2.15054e-05
2.15023e-05
2.14968e-05
2.14885e-05
2.14779e-05
2.14652e-05
2.14506e-05
2.14337e-05
2.1414e-05
2.13902e-05
2.13616e-05
2.13271e-05
2.12859e-05
2.12371e-05
2.11793e-05
2.11097e-05
2.10242e-05
2.09186e-05
2.07886e-05
2.06272e-05
2.04266e-05
2.01887e-05
1.99169e-05
1.96131e-05
1.9278e-05
1.8911e-05
1.85118e-05
1.80835e-05
1.76359e-05
1.71908e-05
1.67975e-05
1.648e-05
1.62057e-05
1.59513e-05
1.57075e-05
1.54736e-05
1.52545e-05
1.5059e-05
1.48947e-05
1.47627e-05
1.46539e-05
1.45597e-05
1.44756e-05
1.44007e-05
1.43354e-05
1.42809e-05
1.42374e-05
1.42033e-05
1.41757e-05
1.41526e-05
1.41329e-05
1.41164e-05
1.41029e-05
1.40922e-05
1.40839e-05
1.40772e-05
1.40718e-05
1.40672e-05
1.40633e-05
1.40602e-05
1.40577e-05
1.40557e-05
1.40542e-05
1.4053e-05
1.4052e-05
1.40511e-05
1.40505e-05
1.40499e-05
1.40495e-05
1.40492e-05
1.40489e-05
1.40487e-05
1.40485e-05
1.40483e-05
1.40482e-05
1.40481e-05
1.4048e-05
1.4048e-05
1.40479e-05
1.40479e-05
1.40479e-05
1.40479e-05
1.40478e-05
1.40478e-05
1.40478e-05
1.40478e-05
1.40478e-05
1.40478e-05
1.40478e-05
1.40478e-05
1.40478e-05
1.40478e-05
1.40478e-05
1.40478e-05
1.40478e-05
1.40478e-05
1.40478e-05
1.40478e-05
1.40478e-05
1.40478e-05
1.40478e-05
1.40478e-05
1.40478e-05
1.40478e-05
1.40478e-05
1.40478e-05
1.40478e-05
1.40478e-05
1.40478e-05
1.40478e-05
1.40478e-05
1.40478e-05
1.40478e-05
1.40478e-05
1.40478e-05
1.40478e-05
1.40478e-05
1.40478e-05
1.40478e-05
1.40478e-05
1.40478e-05
1.40478e-05
1.40478e-05
1.40478e-05
1.40478e-05
1.40478e-05
1.40478e-05
1.40478e-05
1.40478e-05
1.40478e-05
1.40478e-05
1.40478e-05
1.40478e-05
1.40478e-05
1.40478e-05
1.40478e-05
1.40478e-05
1.40478e-05
1.40478e-05
1.40478e-05
1.40478e-05
1.40478e-05
1.40478e-05
1.40478e-05
1.40478e-05
1.40478e-05
1.40478e-05
1.40478e-05
1.40478e-05
1.40478e-05
1.40478e-05
1.40478e-05
1.40478e-05
1.40478e-05
1.40478e-05
1.40478e-05
1.40478e-05
1.40478e-05
1.40478e-05
1.40478e-05
1.40478e-05
1.40478e-05
1.40478e-05
1.43092e-05
1.4349e-05
1.43945e-05
1.44464e-05
1.45054e-05
1.45721e-05
1.46479e-05
1.4734e-05
1.48321e-05
1.49435e-05
1.50693e-05
1.52102e-05
1.53668e-05
1.55404e-05
1.57333e-05
1.59489e-05
2.19481e-05
2.19214e-05
2.18954e-05
2.18701e-05
2.18456e-05
2.18218e-05
2.17989e-05
2.17767e-05
2.17555e-05
2.17351e-05
2.17156e-05
2.16971e-05
2.16796e-05
2.16631e-05
2.16479e-05
2.16338e-05
2.16211e-05
2.16099e-05
2.16004e-05
2.15926e-05
2.15868e-05
2.15829e-05
2.15823e-05
2.15832e-05
2.15857e-05
2.15901e-05
2.1596e-05
2.16034e-05
2.16126e-05
2.16236e-05
2.16363e-05
2.16501e-05
2.1664e-05
2.16767e-05
2.16875e-05
2.16963e-05
2.17041e-05
2.17115e-05
2.17191e-05
2.17266e-05
2.17338e-05
2.17405e-05
2.17462e-05
2.17496e-05
2.17503e-05
2.17501e-05
2.17496e-05
2.17489e-05
2.17473e-05
2.17429e-05
2.17341e-05
2.17199e-05
2.16982e-05
2.16657e-05
2.16173e-05
2.15476e-05
2.14517e-05
2.13252e-05
2.11631e-05
2.09569e-05
2.06945e-05
2.03729e-05
2.00002e-05
1.95827e-05
1.91231e-05
1.86247e-05
1.80967e-05
1.75595e-05
1.70552e-05
1.66479e-05
1.63178e-05
1.60246e-05
1.57495e-05
1.54895e-05
1.52506e-05
1.50427e-05
1.48725e-05
1.47382e-05
1.4628e-05
1.45326e-05
1.44482e-05
1.43741e-05
1.43113e-05
1.42604e-05
1.42208e-05
1.41901e-05
1.41649e-05
1.41436e-05
1.41255e-05
1.41105e-05
1.40984e-05
1.4089e-05
1.40816e-05
1.40756e-05
1.40706e-05
1.40663e-05
1.40627e-05
1.40597e-05
1.40573e-05
1.40554e-05
1.40539e-05
1.40527e-05
1.40517e-05
1.40509e-05
1.40502e-05
1.40497e-05
1.40493e-05
1.4049e-05
1.40487e-05
1.40485e-05
1.40484e-05
1.40482e-05
1.40481e-05
1.40481e-05
1.4048e-05
1.4048e-05
1.40479e-05
1.40479e-05
1.40479e-05
1.40479e-05
1.40478e-05
1.40478e-05
1.40478e-05
1.40478e-05
1.40478e-05
1.40478e-05
1.40478e-05
1.40478e-05
1.40478e-05
1.40478e-05
1.40478e-05
1.40478e-05
1.40478e-05
1.40478e-05
1.40478e-05
1.40478e-05
1.40478e-05
1.40478e-05
1.40478e-05
1.40478e-05
1.40478e-05
1.40478e-05
1.40478e-05
1.40478e-05
1.40478e-05
1.40478e-05
1.40478e-05
1.40478e-05
1.40478e-05
1.40478e-05
1.40478e-05
1.40478e-05
1.40478e-05
1.40478e-05
1.40478e-05
1.40478e-05
1.40478e-05
1.40478e-05
1.40478e-05
1.40478e-05
1.40478e-05
1.40478e-05
1.40478e-05
1.40478e-05
1.40478e-05
1.40478e-05
1.40478e-05
1.40478e-05
1.40478e-05
1.40478e-05
1.40478e-05
1.40478e-05
1.40478e-05
1.40478e-05
1.40478e-05
1.40478e-05
1.40478e-05
1.40478e-05
1.40478e-05
1.40478e-05
1.40478e-05
1.40478e-05
1.40478e-05
1.40478e-05
1.40478e-05
1.40478e-05
1.40478e-05
1.40478e-05
1.40478e-05
1.40478e-05
1.40478e-05
1.40478e-05
1.40478e-05
1.48629e-05
1.49808e-05
1.51141e-05
1.52639e-05
1.5431e-05
1.56167e-05
1.58233e-05
1.6054e-05
1.63106e-05
1.6593e-05
1.68996e-05
1.7228e-05
1.75757e-05
1.79411e-05
1.83273e-05
2.20483e-05
2.20186e-05
2.19899e-05
2.1962e-05
2.1935e-05
2.19087e-05
2.18832e-05
2.18585e-05
2.18345e-05
2.18112e-05
2.17887e-05
2.17669e-05
2.17459e-05
2.17258e-05
2.17066e-05
2.16886e-05
2.16718e-05
2.16563e-05
2.16426e-05
2.16308e-05
2.16211e-05
2.16138e-05
2.16088e-05
2.16076e-05
2.16085e-05
2.16115e-05
2.1617e-05
2.16251e-05
2.16364e-05
2.16511e-05
2.16691e-05
2.16899e-05
2.17126e-05
2.17358e-05
2.17579e-05
2.17781e-05
2.1796e-05
2.18121e-05
2.18268e-05
2.18405e-05
2.18532e-05
2.18657e-05
2.18782e-05
2.18894e-05
2.18996e-05
2.19096e-05
2.192e-05
2.19312e-05
2.19432e-05
2.19557e-05
2.1969e-05
2.19832e-05
2.19978e-05
2.2012e-05
2.2025e-05
2.2036e-05
2.20451e-05
2.20512e-05
2.20517e-05
2.20486e-05
2.20389e-05
2.20185e-05
2.19816e-05
2.192e-05
2.18258e-05
2.16931e-05
2.15172e-05
2.12927e-05
2.10109e-05
2.06635e-05
2.02564e-05
1.97965e-05
1.92865e-05
1.87317e-05
1.81465e-05
1.75598e-05
1.70233e-05
1.66032e-05
1.62654e-05
1.59636e-05
1.56803e-05
1.54162e-05
1.51803e-05
1.49816e-05
1.48233e-05
1.46992e-05
1.45963e-05
1.45061e-05
1.44262e-05
1.43567e-05
1.42984e-05
1.42516e-05
1.42154e-05
1.4187e-05
1.41635e-05
1.41432e-05
1.41257e-05
1.4111e-05
1.4099e-05
1.40894e-05
1.40817e-05
1.40755e-05
1.40703e-05
1.40659e-05
1.40621e-05
1.4059e-05
1.40566e-05
1.40547e-05
1.40532e-05
1.40521e-05
1.40512e-05
1.40504e-05
1.40498e-05
1.40494e-05
1.40491e-05
1.40488e-05
1.40486e-05
1.40484e-05
1.40483e-05
1.40482e-05
1.40481e-05
1.4048e-05
1.4048e-05
1.40479e-05
1.40479e-05
1.40479e-05
1.40479e-05
1.40478e-05
1.40478e-05
1.40478e-05
1.40478e-05
1.40478e-05
1.40478e-05
1.40478e-05
1.40478e-05
1.40478e-05
1.40478e-05
1.40478e-05
1.40478e-05
1.40478e-05
1.40478e-05
1.40478e-05
1.40478e-05
1.40478e-05
1.40478e-05
1.40478e-05
1.40478e-05
1.40478e-05
1.40478e-05
1.40478e-05
1.40478e-05
1.40478e-05
1.40478e-05
1.40478e-05
1.40478e-05
1.40478e-05
1.40478e-05
1.40478e-05
1.40478e-05
1.40478e-05
1.40478e-05
1.40478e-05
1.40478e-05
1.40478e-05
1.40478e-05
1.40478e-05
1.40478e-05
1.40478e-05
1.40478e-05
1.40478e-05
1.40478e-05
1.40478e-05
1.40478e-05
1.40478e-05
1.40478e-05
1.40478e-05
1.40478e-05
1.40478e-05
1.40478e-05
1.40478e-05
1.40478e-05
1.40478e-05
1.40478e-05
1.40478e-05
1.40478e-05
1.40478e-05
1.40478e-05
1.40478e-05
1.40478e-05
1.40478e-05
1.40478e-05
1.40478e-05
1.40478e-05
1.60742e-05
1.63378e-05
1.66284e-05
1.6945e-05
1.72851e-05
1.76461e-05
1.80262e-05
1.84275e-05
1.88653e-05
1.9338e-05
1.98373e-05
2.03513e-05
2.08661e-05
2.13688e-05
2.18477e-05
2.22932e-05
2.21495e-05
2.21156e-05
2.2083e-05
2.20515e-05
2.20212e-05
2.1992e-05
2.1964e-05
2.19372e-05
2.19113e-05
2.18865e-05
2.18628e-05
2.18399e-05
2.1818e-05
2.17971e-05
2.17773e-05
2.17585e-05
2.17409e-05
2.17245e-05
2.17095e-05
2.1696e-05
2.16842e-05
2.16743e-05
2.16664e-05
2.16615e-05
2.16609e-05
2.16622e-05
2.1666e-05
2.16729e-05
2.16833e-05
2.16976e-05
2.1716e-05
2.17384e-05
2.1764e-05
2.17915e-05
2.18191e-05
2.18452e-05
2.18687e-05
2.18894e-05
2.19078e-05
2.19241e-05
2.19384e-05
2.19512e-05
2.19652e-05
2.19788e-05
2.19913e-05
2.20048e-05
2.20189e-05
2.20324e-05
2.20457e-05
2.20597e-05
2.2075e-05
2.2092e-05
2.21104e-05
2.21305e-05
2.21524e-05
2.21727e-05
2.21914e-05
2.22108e-05
2.22305e-05
2.22511e-05
2.22722e-05
2.22925e-05
2.23104e-05
2.23242e-05
2.23333e-05
2.23368e-05
2.23358e-05
2.23309e-05
2.23187e-05
2.22951e-05
2.22531e-05
2.21824e-05
2.2074e-05
2.19217e-05
2.17213e-05
2.14687e-05
2.11566e-05
2.07772e-05
2.03358e-05
1.98365e-05
1.92834e-05
1.86876e-05
1.80723e-05
1.74743e-05
1.69492e-05
1.65514e-05
1.62288e-05
1.59351e-05
1.56581e-05
1.54024e-05
1.51767e-05
1.4987e-05
1.48342e-05
1.4714e-05
1.46146e-05
1.45266e-05
1.44472e-05
1.43767e-05
1.4316e-05
1.42657e-05
1.42255e-05
1.41938e-05
1.41679e-05
1.41457e-05
1.41266e-05
1.41105e-05
1.40975e-05
1.40872e-05
1.40792e-05
1.40728e-05
1.40676e-05
1.40634e-05
1.40599e-05
1.40572e-05
1.40551e-05
1.40536e-05
1.40524e-05
1.40514e-05
1.40506e-05
1.405e-05
1.40496e-05
1.40492e-05
1.40489e-05
1.40487e-05
1.40485e-05
1.40483e-05
1.40482e-05
1.40481e-05
1.40481e-05
1.4048e-05
1.4048e-05
1.40479e-05
1.40479e-05
1.40479e-05
1.40479e-05
1.40478e-05
1.40478e-05
1.40478e-05
1.40478e-05
1.40478e-05
1.40478e-05
1.40478e-05
1.40478e-05
1.40478e-05
1.40478e-05
1.40478e-05
1.40478e-05
1.40478e-05
1.40478e-05
1.40478e-05
1.40478e-05
1.40478e-05
1.40478e-05
1.40478e-05
1.40478e-05
1.40478e-05
1.40478e-05
1.40478e-05
1.40478e-05
1.40478e-05
1.40478e-05
1.40478e-05
1.40478e-05
1.40478e-05
1.40478e-05
1.40478e-05
1.40478e-05
1.40478e-05
1.40478e-05
1.40478e-05
1.40478e-05
1.40479e-05
1.40479e-05
1.40479e-05
1.40479e-05
1.40479e-05
1.40479e-05
1.40479e-05
1.40479e-05
1.40479e-05
1.40479e-05
1.40479e-05
1.40479e-05
1.40479e-05
1.40479e-05
1.40479e-05
1.40479e-05
1.40479e-05
1.40479e-05
1.40479e-05
1.40479e-05
1.40479e-05
1.40479e-05
1.88309e-05
1.93045e-05
1.98066e-05
2.03265e-05
2.08508e-05
2.1366e-05
2.18598e-05
2.23213e-05
2.27389e-05
2.31098e-05
2.34338e-05
2.37132e-05
2.39514e-05
2.23017e-05
2.22635e-05
2.22267e-05
2.21911e-05
2.21569e-05
2.21241e-05
2.20927e-05
2.20626e-05
2.20338e-05
2.20063e-05
2.19802e-05
2.19553e-05
2.19315e-05
2.1909e-05
2.18877e-05
2.18676e-05
2.18489e-05
2.18315e-05
2.18155e-05
2.18009e-05
2.17878e-05
2.17764e-05
2.1767e-05
2.17598e-05
2.17565e-05
2.17569e-05
2.17592e-05
2.17645e-05
2.17732e-05
2.17858e-05
2.18023e-05
2.18228e-05
2.18472e-05
2.18745e-05
2.19033e-05
2.19314e-05
2.19572e-05
2.19801e-05
2.20003e-05
2.2018e-05
2.20327e-05
2.20453e-05
2.20592e-05
2.20719e-05
2.2083e-05
2.20958e-05
2.21097e-05
2.2123e-05
2.21359e-05
2.21491e-05
2.21633e-05
2.21789e-05
2.21961e-05
2.22146e-05
2.22344e-05
2.2254e-05
2.22729e-05
2.22921e-05
2.23124e-05
2.23343e-05
2.23577e-05
2.23821e-05
2.24067e-05
2.24306e-05
2.24535e-05
2.24762e-05
2.2498e-05
2.25189e-05
2.25402e-05
2.25611e-05
2.25797e-05
2.2595e-05
2.26075e-05
2.26164e-05
2.26187e-05
2.26167e-05
2.26076e-05
2.25835e-05
2.25343e-05
2.24498e-05
2.2324e-05
2.21541e-05
2.19381e-05
2.16729e-05
2.13508e-05
2.09625e-05
2.05105e-05
2.00005e-05
1.94415e-05
1.88476e-05
1.82405e-05
1.76513e-05
1.71222e-05
1.6704e-05
1.63831e-05
1.60942e-05
1.58171e-05
1.55547e-05
1.5315e-05
1.51046e-05
1.49268e-05
1.47816e-05
1.4664e-05
1.45632e-05
1.44723e-05
1.43909e-05
1.43207e-05
1.42633e-05
1.42185e-05
1.41841e-05
1.4157e-05
1.41347e-05
1.41162e-05
1.41013e-05
1.40898e-05
1.4081e-05
1.40742e-05
1.40688e-05
1.40644e-05
1.40608e-05
1.4058e-05
1.40558e-05
1.40542e-05
1.40529e-05
1.40518e-05
1.4051e-05
1.40503e-05
1.40498e-05
1.40493e-05
1.4049e-05
1.40488e-05
1.40486e-05
1.40484e-05
1.40483e-05
1.40482e-05
1.40481e-05
1.4048e-05
1.4048e-05
1.4048e-05
1.40479e-05
1.40479e-05
1.40479e-05
1.40479e-05
1.40479e-05
1.40479e-05
1.40479e-05
1.40479e-05
1.40479e-05
1.40479e-05
1.40479e-05
1.40479e-05
1.40479e-05
1.40479e-05
1.40479e-05
1.40479e-05
1.40479e-05
1.40479e-05
1.40479e-05
1.40479e-05
1.40479e-05
1.40479e-05
1.40479e-05
1.40479e-05
1.4048e-05
1.4048e-05
1.4048e-05
1.4048e-05
1.4048e-05
1.4048e-05
1.4048e-05
1.4048e-05
1.4048e-05
1.4048e-05
1.4048e-05
1.40481e-05
1.40481e-05
1.40481e-05
1.40481e-05
1.40481e-05
1.40481e-05
1.40481e-05
1.40481e-05
1.40482e-05
1.40482e-05
1.40482e-05
1.40482e-05
1.40482e-05
1.40483e-05
1.40483e-05
1.40483e-05
1.40483e-05
1.40484e-05
1.40483e-05
2.26579e-05
2.30588e-05
2.34113e-05
2.37166e-05
2.39776e-05
2.41983e-05
2.43834e-05
2.45373e-05
2.46643e-05
2.4768e-05
2.4852e-05
2.4919e-05
2.49714e-05
2.25014e-05
2.24599e-05
2.24188e-05
2.23788e-05
2.23409e-05
2.23047e-05
2.22697e-05
2.22358e-05
2.22034e-05
2.21728e-05
2.21439e-05
2.21164e-05
2.20903e-05
2.20657e-05
2.20426e-05
2.20211e-05
2.20011e-05
2.19827e-05
2.19658e-05
2.19504e-05
2.19366e-05
2.19245e-05
2.19142e-05
2.19059e-05
2.19001e-05
2.1899e-05
2.19002e-05
2.19037e-05
2.19103e-05
2.19206e-05
2.19346e-05
2.19518e-05
2.19722e-05
2.19959e-05
2.20221e-05
2.20484e-05
2.20731e-05
2.2095e-05
2.21147e-05
2.21321e-05
2.21458e-05
2.21583e-05
2.21713e-05
2.21813e-05
2.21899e-05
2.22003e-05
2.22115e-05
2.22224e-05
2.22331e-05
2.22439e-05
2.22552e-05
2.22675e-05
2.22811e-05
2.2296e-05
2.2312e-05
2.23287e-05
2.23454e-05
2.23626e-05
2.23808e-05
2.24004e-05
2.24215e-05
2.24436e-05
2.24662e-05
2.24889e-05
2.25118e-05
2.25352e-05
2.25597e-05
2.25853e-05
2.26124e-05
2.2641e-05
2.26703e-05
2.27e-05
2.27299e-05
2.27598e-05
2.27904e-05
2.28195e-05
2.28475e-05
2.28742e-05
2.28992e-05
2.29244e-05
2.29498e-05
2.29725e-05
2.29902e-05
2.29997e-05
2.29979e-05
2.29803e-05
2.29336e-05
2.28523e-05
2.27352e-05
2.25815e-05
2.23886e-05
2.21498e-05
2.18554e-05
2.14985e-05
2.10799e-05
2.06044e-05
2.00748e-05
1.94968e-05
1.88832e-05
1.82563e-05
1.76492e-05
1.71049e-05
1.66701e-05
1.6322e-05
1.59969e-05
1.56845e-05
1.53955e-05
1.51414e-05
1.49295e-05
1.47613e-05
1.46299e-05
1.45209e-05
1.44261e-05
1.43453e-05
1.42798e-05
1.42295e-05
1.41919e-05
1.41631e-05
1.414e-05
1.41209e-05
1.41056e-05
1.40935e-05
1.40842e-05
1.4077e-05
1.40712e-05
1.40664e-05
1.40625e-05
1.40592e-05
1.40567e-05
1.40548e-05
1.40533e-05
1.40522e-05
1.40512e-05
1.40505e-05
1.40499e-05
1.40495e-05
1.40491e-05
1.40489e-05
1.40487e-05
1.40485e-05
1.40484e-05
1.40483e-05
1.40482e-05
1.40482e-05
1.40482e-05
1.40481e-05
1.40481e-05
1.40481e-05
1.40481e-05
1.40481e-05
1.40481e-05
1.40482e-05
1.40482e-05
1.40482e-05
1.40482e-05
1.40482e-05
1.40482e-05
1.40482e-05
1.40483e-05
1.40483e-05
1.40483e-05
1.40483e-05
1.40483e-05
1.40484e-05
1.40484e-05
1.40484e-05
1.40485e-05
1.40485e-05
1.40485e-05
1.40485e-05
1.40486e-05
1.40486e-05
1.40486e-05
1.40487e-05
1.40487e-05
1.40488e-05
1.40488e-05
1.40489e-05
1.40489e-05
1.4049e-05
1.4049e-05
1.40491e-05
1.40491e-05
1.40492e-05
1.40493e-05
1.40494e-05
1.40494e-05
1.40495e-05
1.40496e-05
1.40497e-05
1.40498e-05
1.40499e-05
1.40498e-05
2.45696e-05
2.47163e-05
2.48364e-05
2.49338e-05
2.5012e-05
2.50735e-05
2.51211e-05
2.51583e-05
2.51884e-05
2.52138e-05
2.52355e-05
2.52537e-05
2.52684e-05
2.52789e-05
2.27429e-05
2.26991e-05
2.26536e-05
2.26093e-05
2.25692e-05
2.25308e-05
2.24923e-05
2.24542e-05
2.24182e-05
2.23847e-05
2.23531e-05
2.23228e-05
2.2294e-05
2.22669e-05
2.22417e-05
2.22183e-05
2.21968e-05
2.21771e-05
2.21592e-05
2.2143e-05
2.21285e-05
2.21155e-05
2.21045e-05
2.20958e-05
2.20885e-05
2.20842e-05
2.20844e-05
2.20864e-05
2.20903e-05
2.20973e-05
2.21082e-05
2.21219e-05
2.21373e-05
2.21552e-05
2.21763e-05
2.21984e-05
2.2219e-05
2.22371e-05
2.22538e-05
2.22685e-05
2.22804e-05
2.22915e-05
2.23023e-05
2.23083e-05
2.23139e-05
2.2321e-05
2.23284e-05
2.23356e-05
2.23427e-05
2.23498e-05
2.23575e-05
2.23658e-05
2.23751e-05
2.23853e-05
2.23967e-05
2.2409e-05
2.24219e-05
2.24354e-05
2.24499e-05
2.24655e-05
2.24823e-05
2.25004e-05
2.25196e-05
2.25396e-05
2.25608e-05
2.25833e-05
2.26074e-05
2.2633e-05
2.26604e-05
2.26893e-05
2.27197e-05
2.27511e-05
2.27831e-05
2.28163e-05
2.28511e-05
2.28871e-05
2.29237e-05
2.29618e-05
2.3002e-05
2.30442e-05
2.30879e-05
2.31329e-05
2.31776e-05
2.32186e-05
2.32634e-05
2.33112e-05
2.33578e-05
2.34035e-05
2.34477e-05
2.34906e-05
2.35291e-05
2.3557e-05
2.35714e-05
2.35714e-05
2.35547e-05
2.35063e-05
2.34214e-05
2.32975e-05
2.31299e-05
2.29127e-05
2.26374e-05
2.2293e-05
2.18671e-05
2.13533e-05
2.07534e-05
2.00726e-05
1.93281e-05
1.85531e-05
1.77992e-05
1.71331e-05
1.66191e-05
1.62173e-05
1.58539e-05
1.55206e-05
1.52294e-05
1.49894e-05
1.48019e-05
1.46595e-05
1.4546e-05
1.44491e-05
1.43663e-05
1.42986e-05
1.42458e-05
1.42057e-05
1.41749e-05
1.41501e-05
1.41294e-05
1.41123e-05
1.40985e-05
1.40878e-05
1.40795e-05
1.40729e-05
1.40676e-05
1.40633e-05
1.40598e-05
1.40571e-05
1.40551e-05
1.40536e-05
1.40524e-05
1.40515e-05
1.40508e-05
1.40502e-05
1.40499e-05
1.40496e-05
1.40494e-05
1.40492e-05
1.40491e-05
1.40491e-05
1.4049e-05
1.4049e-05
1.4049e-05
1.40491e-05
1.40491e-05
1.40491e-05
1.40492e-05
1.40492e-05
1.40493e-05
1.40494e-05
1.40494e-05
1.40495e-05
1.40496e-05
1.40496e-05
1.40497e-05
1.40498e-05
1.40499e-05
1.405e-05
1.40501e-05
1.40502e-05
1.40503e-05
1.40505e-05
1.40506e-05
1.40507e-05
1.40508e-05
1.4051e-05
1.40511e-05
1.40513e-05
1.40515e-05
1.40516e-05
1.40518e-05
1.4052e-05
1.40522e-05
1.40524e-05
1.40526e-05
1.40529e-05
1.40531e-05
1.40534e-05
1.40537e-05
1.4054e-05
1.40543e-05
1.40547e-05
1.4055e-05
1.40554e-05
1.40551e-05
2.53043e-05
2.53335e-05
2.5358e-05
2.53785e-05
2.53952e-05
2.5408e-05
2.54161e-05
2.54202e-05
2.54211e-05
2.54209e-05
2.54203e-05
2.54197e-05
2.54198e-05
2.54208e-05
2.30159e-05
2.29704e-05
2.29207e-05
2.28745e-05
2.28324e-05
2.27929e-05
2.2752e-05
2.27096e-05
2.26702e-05
2.26343e-05
2.26009e-05
2.25683e-05
2.25362e-05
2.25064e-05
2.24792e-05
2.2454e-05
2.24308e-05
2.24095e-05
2.239e-05
2.23726e-05
2.23573e-05
2.23435e-05
2.23311e-05
2.23218e-05
2.23141e-05
2.23066e-05
2.23037e-05
2.23045e-05
2.2306e-05
2.23084e-05
2.2315e-05
2.23248e-05
2.23352e-05
2.23464e-05
2.2361e-05
2.23777e-05
2.23922e-05
2.24044e-05
2.24159e-05
2.24262e-05
2.24353e-05
2.24435e-05
2.24498e-05
2.24517e-05
2.24543e-05
2.24573e-05
2.24602e-05
2.24628e-05
2.24654e-05
2.24684e-05
2.24718e-05
2.24755e-05
2.24798e-05
2.24851e-05
2.24914e-05
2.24986e-05
2.25067e-05
2.25155e-05
2.25254e-05
2.25363e-05
2.25485e-05
2.25621e-05
2.25772e-05
2.25938e-05
2.2612e-05
2.26321e-05
2.26539e-05
2.26777e-05
2.27034e-05
2.2731e-05
2.27605e-05
2.27915e-05
2.28241e-05
2.28587e-05
2.28951e-05
2.29326e-05
2.29714e-05
2.30126e-05
2.30557e-05
2.31e-05
2.31466e-05
2.31945e-05
2.32436e-05
2.32966e-05
2.33511e-05
2.34049e-05
2.34675e-05
2.35354e-05
2.35978e-05
2.36645e-05
2.37352e-05
2.3805e-05
2.38734e-05
2.39401e-05
2.40044e-05
2.40661e-05
2.41263e-05
2.41843e-05
2.42376e-05
2.42803e-05
2.43045e-05
2.43063e-05
2.42867e-05
2.4225e-05
2.41123e-05
2.39441e-05
2.37148e-05
2.34177e-05
2.30428e-05
2.2576e-05
2.20061e-05
2.13348e-05
2.05745e-05
1.97454e-05
1.88848e-05
1.80493e-05
1.73093e-05
1.67316e-05
1.63074e-05
1.59389e-05
1.56033e-05
1.53084e-05
1.50618e-05
1.48652e-05
1.47134e-05
1.45938e-05
1.44918e-05
1.44026e-05
1.43271e-05
1.42664e-05
1.42196e-05
1.41841e-05
1.41563e-05
1.41335e-05
1.41149e-05
1.41001e-05
1.40887e-05
1.408e-05
1.40733e-05
1.40679e-05
1.40637e-05
1.40604e-05
1.40579e-05
1.40561e-05
1.40548e-05
1.40539e-05
1.40532e-05
1.40528e-05
1.40525e-05
1.40523e-05
1.40523e-05
1.40523e-05
1.40524e-05
1.40525e-05
1.40526e-05
1.40528e-05
1.40529e-05
1.40532e-05
1.40534e-05
1.40536e-05
1.40539e-05
1.40542e-05
1.40545e-05
1.40548e-05
1.40551e-05
1.40554e-05
1.40558e-05
1.40562e-05
1.40566e-05
1.4057e-05
1.40575e-05
1.40579e-05
1.40584e-05
1.40589e-05
1.40594e-05
1.406e-05
1.40606e-05
1.40612e-05
1.40618e-05
1.40625e-05
1.40632e-05
1.4064e-05
1.40648e-05
1.40657e-05
1.40666e-05
1.40676e-05
1.40687e-05
1.40698e-05
1.4071e-05
1.40723e-05
1.40736e-05
1.40751e-05
1.40742e-05
2.55627e-05
2.55626e-05
2.55619e-05
2.55606e-05
2.55596e-05
2.55596e-05
2.55608e-05
2.5562e-05
2.55608e-05
2.55576e-05
2.55524e-05
2.55461e-05
2.55397e-05
2.55346e-05
2.3309e-05
2.32616e-05
2.32096e-05
2.31627e-05
2.31199e-05
2.30792e-05
2.3038e-05
2.29916e-05
2.29495e-05
2.29117e-05
2.28761e-05
2.28425e-05
2.2808e-05
2.27755e-05
2.27461e-05
2.27192e-05
2.26943e-05
2.26713e-05
2.26502e-05
2.2631e-05
2.26145e-05
2.25995e-05
2.25853e-05
2.25746e-05
2.25668e-05
2.25574e-05
2.25492e-05
2.2548e-05
2.25471e-05
2.2545e-05
2.25463e-05
2.25517e-05
2.25568e-05
2.25614e-05
2.25691e-05
2.25798e-05
2.25874e-05
2.25922e-05
2.25975e-05
2.2603e-05
2.26075e-05
2.26113e-05
2.26114e-05
2.26103e-05
2.2609e-05
2.26073e-05
2.26051e-05
2.26028e-05
2.26008e-05
2.25991e-05
2.25975e-05
2.25961e-05
2.25953e-05
2.25955e-05
2.25964e-05
2.25982e-05
2.26009e-05
2.26047e-05
2.26095e-05
2.26155e-05
2.26229e-05
2.26318e-05
2.26424e-05
2.26549e-05
2.26694e-05
2.2686e-05
2.27048e-05
2.27258e-05
2.2749e-05
2.27746e-05
2.28023e-05
2.28321e-05
2.28642e-05
2.28985e-05
2.29346e-05
2.29722e-05
2.30119e-05
2.30539e-05
2.30972e-05
2.31427e-05
2.3191e-05
2.32395e-05
2.32907e-05
2.3347e-05
2.3401e-05
2.34588e-05
2.35246e-05
2.3589e-05
2.36552e-05
2.37297e-05
2.38011e-05
2.38689e-05
2.39454e-05
2.40238e-05
2.40992e-05
2.41794e-05
2.42629e-05
2.43449e-05
2.44248e-05
2.44995e-05
2.45634e-05
2.46219e-05
2.46748e-05
2.47203e-05
2.47589e-05
2.47893e-05
2.48053e-05
2.48055e-05
2.47894e-05
2.47381e-05
2.46403e-05
2.44911e-05
2.42847e-05
2.40151e-05
2.36764e-05
2.32623e-05
2.2765e-05
2.21782e-05
2.15026e-05
2.07518e-05
1.99436e-05
1.91079e-05
1.82893e-05
1.75433e-05
1.69278e-05
1.64736e-05
1.60983e-05
1.5752e-05
1.54366e-05
1.5163e-05
1.4938e-05
1.47616e-05
1.46252e-05
1.45129e-05
1.4416e-05
1.43345e-05
1.42696e-05
1.42203e-05
1.41835e-05
1.41552e-05
1.41325e-05
1.41143e-05
1.41003e-05
1.40899e-05
1.40822e-05
1.40764e-05
1.4072e-05
1.40687e-05
1.40664e-05
1.40649e-05
1.40641e-05
1.40637e-05
1.40637e-05
1.40638e-05
1.40641e-05
1.40645e-05
1.40651e-05
1.40657e-05
1.40665e-05
1.40673e-05
1.40682e-05
1.40691e-05
1.40701e-05
1.40712e-05
1.40724e-05
1.40736e-05
1.40749e-05
1.40763e-05
1.40778e-05
1.40793e-05
1.40809e-05
1.40826e-05
1.40844e-05
1.40862e-05
1.4088e-05
1.409e-05
1.4092e-05
1.40941e-05
1.40964e-05
1.40987e-05
1.41012e-05
1.41039e-05
1.41067e-05
1.41097e-05
1.4113e-05
1.41165e-05
1.41202e-05
1.41242e-05
1.41284e-05
1.41329e-05
1.41376e-05
1.41432e-05
1.41405e-05
2.5708e-05
2.57054e-05
2.57007e-05
2.56939e-05
2.56865e-05
2.56796e-05
2.56745e-05
2.56707e-05
2.56671e-05
2.56623e-05
2.56564e-05
2.56495e-05
2.5642e-05
2.36098e-05
2.35612e-05
2.35098e-05
2.34631e-05
2.34197e-05
2.33772e-05
2.33374e-05
2.32895e-05
2.32451e-05
2.32059e-05
2.31687e-05
2.31328e-05
2.30978e-05
2.30639e-05
2.30327e-05
2.3004e-05
2.29775e-05
2.29528e-05
2.29298e-05
2.29088e-05
2.28905e-05
2.28734e-05
2.28576e-05
2.2845e-05
2.28361e-05
2.28245e-05
2.2813e-05
2.28074e-05
2.28039e-05
2.27968e-05
2.27932e-05
2.27942e-05
2.27933e-05
2.27917e-05
2.27932e-05
2.27972e-05
2.27976e-05
2.27953e-05
2.27947e-05
2.27944e-05
2.27932e-05
2.2791e-05
2.27866e-05
2.27811e-05
2.27751e-05
2.27686e-05
2.27614e-05
2.27542e-05
2.27471e-05
2.27402e-05
2.27333e-05
2.27268e-05
2.27208e-05
2.27155e-05
2.27111e-05
2.27075e-05
2.27049e-05
2.27032e-05
2.27032e-05
2.2704e-05
2.27063e-05
2.27103e-05
2.27163e-05
2.27243e-05
2.27346e-05
2.27472e-05
2.27622e-05
2.27798e-05
2.27999e-05
2.28228e-05
2.28481e-05
2.28761e-05
2.29066e-05
2.29395e-05
2.29745e-05
2.30117e-05
2.30514e-05
2.3093e-05
2.31362e-05
2.31825e-05
2.32306e-05
2.32789e-05
2.33316e-05
2.33865e-05
2.34407e-05
2.35014e-05
2.3565e-05
2.36249e-05
2.36921e-05
2.37654e-05
2.38311e-05
2.39007e-05
2.39777e-05
2.40533e-05
2.41317e-05
2.42145e-05
2.42936e-05
2.43704e-05
2.44463e-05
2.45177e-05
2.45863e-05
2.46554e-05
2.47249e-05
2.47933e-05
2.48588e-05
2.49186e-05
2.49693e-05
2.50078e-05
2.50353e-05
2.5049e-05
2.50502e-05
2.50453e-05
2.50307e-05
2.50047e-05
2.49646e-05
2.49056e-05
2.4821e-05
2.47036e-05
2.45449e-05
2.43357e-05
2.40709e-05
2.37484e-05
2.33645e-05
2.2912e-05
2.23822e-05
2.17689e-05
2.10761e-05
2.03115e-05
1.94915e-05
1.86504e-05
1.78432e-05
1.71394e-05
1.66008e-05
1.61848e-05
1.58108e-05
1.54714e-05
1.51784e-05
1.49397e-05
1.4755e-05
1.4614e-05
1.44993e-05
1.44022e-05
1.43229e-05
1.42619e-05
1.42172e-05