/*--------------------------------*- C++ -*----------------------------------*\
| =========                 |                                                 |
| \\      /  F ield         | OpenFOAM: The Open Source CFD Toolbox           |
|  \\    /   O peration     | Version:  v1706                                 |
|   \\  /    A nd           | Web:      www.OpenFOAM.com                      |
|    \\/     M anipulation  |                                                 |
\*---------------------------------------------------------------------------*/
FoamFile
{
    version     2.0;
    format      ascii;
    class       volScalarField;
    location    "3.9e-05";
    object      kappave;
}
// * * * * * * * * * * * * * * * * * * * * * * * * * * * * * * * * * * * * * //

dimensions      [1 1 -3 -1 0 0 0];


internalField   nonuniform List<scalar> 
30104
(
1.46074e-10
1.46079e-10
1.46086e-10
1.46093e-10
1.46101e-10
1.46111e-10
1.46122e-10
1.46135e-10
1.46149e-10
1.46166e-10
1.46185e-10
1.46207e-10
1.46232e-10
1.46261e-10
1.46294e-10
1.46331e-10
1.46373e-10
1.77348e-10
1.76749e-10
1.76145e-10
1.75537e-10
1.74926e-10
1.74314e-10
1.73701e-10
1.73088e-10
1.72475e-10
1.71863e-10
1.71252e-10
1.7064e-10
1.70028e-10
1.69415e-10
1.68801e-10
1.68185e-10
1.67566e-10
1.66945e-10
1.66321e-10
1.65694e-10
1.65064e-10
1.64431e-10
1.63796e-10
1.63157e-10
1.62515e-10
1.6191e-10
1.61452e-10
1.61083e-10
1.60748e-10
1.60413e-10
1.60064e-10
1.59692e-10
1.59295e-10
1.58873e-10
1.58428e-10
1.5796e-10
1.57473e-10
1.56967e-10
1.56445e-10
1.5591e-10
1.55363e-10
1.54806e-10
1.5424e-10
1.53667e-10
1.53086e-10
1.52502e-10
1.51916e-10
1.51334e-10
1.50785e-10
1.50304e-10
1.49899e-10
1.49543e-10
1.49211e-10
1.48888e-10
1.4857e-10
1.48258e-10
1.47957e-10
1.47674e-10
1.47415e-10
1.47191e-10
1.47007e-10
1.4686e-10
1.46737e-10
1.4663e-10
1.46534e-10
1.4645e-10
1.46377e-10
1.46317e-10
1.46269e-10
1.4623e-10
1.46198e-10
1.4617e-10
1.46146e-10
1.46126e-10
1.46109e-10
1.46094e-10
1.46083e-10
1.46074e-10
1.46067e-10
1.46061e-10
1.46057e-10
1.46053e-10
1.4605e-10
1.46047e-10
1.46046e-10
1.46044e-10
1.46043e-10
1.46042e-10
1.46041e-10
1.4604e-10
1.4604e-10
1.46039e-10
1.46039e-10
1.46039e-10
1.46038e-10
1.46038e-10
1.46038e-10
1.46038e-10
1.46038e-10
1.46038e-10
1.46038e-10
1.46038e-10
1.46038e-10
1.46038e-10
1.46038e-10
1.46038e-10
1.46038e-10
1.46038e-10
1.46038e-10
1.46038e-10
1.46038e-10
1.46038e-10
1.46038e-10
1.46038e-10
1.46038e-10
1.46038e-10
1.46038e-10
1.46038e-10
1.46038e-10
1.46038e-10
1.46038e-10
1.46038e-10
1.46038e-10
1.46038e-10
1.46038e-10
1.46038e-10
1.46038e-10
1.46038e-10
1.46038e-10
1.46038e-10
1.46038e-10
1.46038e-10
1.46038e-10
1.46038e-10
1.46038e-10
1.46038e-10
1.46038e-10
1.46038e-10
1.46038e-10
1.46038e-10
1.46038e-10
1.46038e-10
1.46038e-10
1.46038e-10
1.46038e-10
1.46038e-10
1.46038e-10
1.46038e-10
1.46038e-10
1.46038e-10
1.46038e-10
1.46038e-10
1.46038e-10
1.46038e-10
1.46038e-10
1.46038e-10
1.46038e-10
1.46038e-10
1.46038e-10
1.46038e-10
1.46038e-10
1.46038e-10
1.46038e-10
1.46038e-10
1.46038e-10
1.46038e-10
1.46038e-10
1.46038e-10
1.46038e-10
1.46038e-10
1.46038e-10
1.46038e-10
1.46038e-10
1.46038e-10
1.46038e-10
1.46038e-10
1.46038e-10
1.46038e-10
1.46038e-10
1.46038e-10
1.46038e-10
1.46038e-10
1.46038e-10
1.46038e-10
1.46038e-10
1.46038e-10
1.46038e-10
1.46038e-10
1.46038e-10
1.46038e-10
1.46038e-10
1.46038e-10
1.46038e-10
1.46261e-10
1.46295e-10
1.46335e-10
1.46381e-10
1.46433e-10
1.46493e-10
1.46562e-10
1.46641e-10
1.46731e-10
1.46835e-10
1.46953e-10
1.47089e-10
1.47244e-10
1.47421e-10
1.47622e-10
1.47853e-10
1.48118e-10
2.20291e-10
2.19989e-10
2.19693e-10
2.19406e-10
2.19128e-10
2.1886e-10
2.18602e-10
2.18354e-10
2.18114e-10
2.17883e-10
2.17657e-10
2.17435e-10
2.17215e-10
2.16995e-10
2.16773e-10
2.16546e-10
2.16313e-10
2.16071e-10
2.15819e-10
2.15555e-10
2.15277e-10
2.14984e-10
2.14675e-10
2.14346e-10
2.13997e-10
2.13613e-10
2.13163e-10
2.12635e-10
2.12021e-10
2.11315e-10
2.1051e-10
2.09602e-10
2.08587e-10
2.07464e-10
2.06227e-10
2.0487e-10
2.03387e-10
2.01776e-10
2.00041e-10
1.9819e-10
1.96231e-10
1.94167e-10
1.91992e-10
1.89695e-10
1.87267e-10
1.84702e-10
1.81992e-10
1.79147e-10
1.76217e-10
1.73397e-10
1.71058e-10
1.69056e-10
1.67192e-10
1.65361e-10
1.63522e-10
1.61673e-10
1.59832e-10
1.58035e-10
1.56349e-10
1.54855e-10
1.53607e-10
1.52578e-10
1.51693e-10
1.50898e-10
1.50169e-10
1.49504e-10
1.48911e-10
1.48401e-10
1.47983e-10
1.4765e-10
1.47379e-10
1.47151e-10
1.46954e-10
1.46784e-10
1.46642e-10
1.46527e-10
1.46436e-10
1.46363e-10
1.46303e-10
1.46253e-10
1.46212e-10
1.46177e-10
1.46149e-10
1.46126e-10
1.46109e-10
1.46095e-10
1.46084e-10
1.46074e-10
1.46067e-10
1.46061e-10
1.46056e-10
1.46053e-10
1.4605e-10
1.46047e-10
1.46045e-10
1.46044e-10
1.46042e-10
1.46041e-10
1.46041e-10
1.4604e-10
1.4604e-10
1.46039e-10
1.46039e-10
1.46039e-10
1.46038e-10
1.46038e-10
1.46038e-10
1.46038e-10
1.46038e-10
1.46038e-10
1.46038e-10
1.46038e-10
1.46038e-10
1.46038e-10
1.46038e-10
1.46038e-10
1.46038e-10
1.46038e-10
1.46038e-10
1.46038e-10
1.46038e-10
1.46038e-10
1.46038e-10
1.46038e-10
1.46038e-10
1.46038e-10
1.46038e-10
1.46038e-10
1.46038e-10
1.46038e-10
1.46038e-10
1.46038e-10
1.46038e-10
1.46038e-10
1.46038e-10
1.46038e-10
1.46038e-10
1.46038e-10
1.46038e-10
1.46038e-10
1.46038e-10
1.46038e-10
1.46038e-10
1.46038e-10
1.46038e-10
1.46038e-10
1.46038e-10
1.46038e-10
1.46038e-10
1.46038e-10
1.46038e-10
1.46038e-10
1.46038e-10
1.46038e-10
1.46038e-10
1.46038e-10
1.46038e-10
1.46038e-10
1.46038e-10
1.46038e-10
1.46038e-10
1.46038e-10
1.46038e-10
1.46038e-10
1.46038e-10
1.46038e-10
1.46038e-10
1.46038e-10
1.46038e-10
1.46038e-10
1.46038e-10
1.46038e-10
1.46038e-10
1.46038e-10
1.46038e-10
1.46038e-10
1.46038e-10
1.46038e-10
1.46038e-10
1.46038e-10
1.46038e-10
1.46038e-10
1.46038e-10
1.46038e-10
1.46038e-10
1.46038e-10
1.46038e-10
1.46038e-10
1.46038e-10
1.46038e-10
1.46038e-10
1.46038e-10
1.46038e-10
1.46855e-10
1.46981e-10
1.47125e-10
1.47291e-10
1.47481e-10
1.47698e-10
1.47947e-10
1.48232e-10
1.4856e-10
1.48935e-10
1.49363e-10
1.49849e-10
1.50398e-10
1.51018e-10
1.5172e-10
1.52517e-10
2.26889e-10
2.26634e-10
2.26382e-10
2.26135e-10
2.25894e-10
2.2566e-10
2.25433e-10
2.25215e-10
2.25008e-10
2.24812e-10
2.24628e-10
2.24457e-10
2.24299e-10
2.24157e-10
2.24029e-10
2.23916e-10
2.23819e-10
2.23737e-10
2.23671e-10
2.2362e-10
2.23584e-10
2.2356e-10
2.23549e-10
2.23546e-10
2.23552e-10
2.23561e-10
2.23571e-10
2.2358e-10
2.23589e-10
2.23584e-10
2.23567e-10
2.23534e-10
2.23477e-10
2.23391e-10
2.2328e-10
2.23148e-10
2.22996e-10
2.22821e-10
2.22615e-10
2.22368e-10
2.22071e-10
2.21712e-10
2.21283e-10
2.20776e-10
2.20175e-10
2.19452e-10
2.18563e-10
2.17465e-10
2.16113e-10
2.14436e-10
2.12351e-10
2.09878e-10
2.07052e-10
2.03894e-10
2.0041e-10
1.96595e-10
1.92445e-10
1.87993e-10
1.83339e-10
1.78712e-10
1.74623e-10
1.71323e-10
1.68471e-10
1.65826e-10
1.63292e-10
1.6086e-10
1.58582e-10
1.5655e-10
1.54842e-10
1.5347e-10
1.52339e-10
1.51359e-10
1.50485e-10
1.49706e-10
1.49028e-10
1.48461e-10
1.48009e-10
1.47654e-10
1.47368e-10
1.47128e-10
1.46923e-10
1.46751e-10
1.4661e-10
1.465e-10
1.46413e-10
1.46344e-10
1.46287e-10
1.46239e-10
1.46199e-10
1.46167e-10
1.46141e-10
1.4612e-10
1.46105e-10
1.46092e-10
1.46081e-10
1.46073e-10
1.46066e-10
1.4606e-10
1.46055e-10
1.46052e-10
1.46049e-10
1.46047e-10
1.46045e-10
1.46043e-10
1.46042e-10
1.46041e-10
1.4604e-10
1.4604e-10
1.46039e-10
1.46039e-10
1.46039e-10
1.46038e-10
1.46038e-10
1.46038e-10
1.46038e-10
1.46038e-10
1.46038e-10
1.46038e-10
1.46038e-10
1.46038e-10
1.46038e-10
1.46038e-10
1.46038e-10
1.46038e-10
1.46038e-10
1.46038e-10
1.46038e-10
1.46038e-10
1.46038e-10
1.46038e-10
1.46038e-10
1.46038e-10
1.46038e-10
1.46038e-10
1.46038e-10
1.46038e-10
1.46038e-10
1.46038e-10
1.46038e-10
1.46038e-10
1.46038e-10
1.46038e-10
1.46038e-10
1.46038e-10
1.46038e-10
1.46038e-10
1.46038e-10
1.46038e-10
1.46038e-10
1.46038e-10
1.46038e-10
1.46038e-10
1.46038e-10
1.46038e-10
1.46038e-10
1.46038e-10
1.46038e-10
1.46038e-10
1.46038e-10
1.46038e-10
1.46038e-10
1.46038e-10
1.46038e-10
1.46038e-10
1.46038e-10
1.46038e-10
1.46038e-10
1.46038e-10
1.46038e-10
1.46038e-10
1.46038e-10
1.46038e-10
1.46038e-10
1.46038e-10
1.46038e-10
1.46038e-10
1.46038e-10
1.46038e-10
1.46038e-10
1.46038e-10
1.46038e-10
1.46038e-10
1.46038e-10
1.46038e-10
1.46038e-10
1.46038e-10
1.46038e-10
1.46038e-10
1.46038e-10
1.46038e-10
1.46038e-10
1.46038e-10
1.46038e-10
1.48756e-10
1.49169e-10
1.49642e-10
1.50182e-10
1.50795e-10
1.51489e-10
1.52276e-10
1.53172e-10
1.54192e-10
1.5535e-10
1.56657e-10
1.58122e-10
1.5975e-10
1.61555e-10
1.6356e-10
1.65802e-10
2.28266e-10
2.27982e-10
2.27705e-10
2.27436e-10
2.27176e-10
2.26923e-10
2.26679e-10
2.26444e-10
2.26218e-10
2.26002e-10
2.25795e-10
2.25599e-10
2.25413e-10
2.25239e-10
2.25078e-10
2.24929e-10
2.24794e-10
2.24675e-10
2.24574e-10
2.24491e-10
2.24429e-10
2.24387e-10
2.24379e-10
2.24386e-10
2.24411e-10
2.24456e-10
2.24516e-10
2.24592e-10
2.24686e-10
2.248e-10
2.24931e-10
2.25074e-10
2.25218e-10
2.2535e-10
2.25461e-10
2.25553e-10
2.25633e-10
2.2571e-10
2.25788e-10
2.25866e-10
2.2594e-10
2.2601e-10
2.26069e-10
2.26105e-10
2.26112e-10
2.26109e-10
2.26104e-10
2.26097e-10
2.2608e-10
2.26034e-10
2.25943e-10
2.25796e-10
2.2557e-10
2.25232e-10
2.24729e-10
2.24004e-10
2.23007e-10
2.21692e-10
2.20007e-10
2.17863e-10
2.15136e-10
2.11792e-10
2.07918e-10
2.03578e-10
1.988e-10
1.93618e-10
1.88129e-10
1.82545e-10
1.77302e-10
1.73068e-10
1.69636e-10
1.66588e-10
1.63729e-10
1.61025e-10
1.58542e-10
1.5638e-10
1.54611e-10
1.53215e-10
1.5207e-10
1.51078e-10
1.502e-10
1.4943e-10
1.48777e-10
1.48248e-10
1.47837e-10
1.47517e-10
1.47255e-10
1.47034e-10
1.46845e-10
1.46689e-10
1.46564e-10
1.46466e-10
1.46389e-10
1.46327e-10
1.46274e-10
1.4623e-10
1.46193e-10
1.46162e-10
1.46137e-10
1.46117e-10
1.46102e-10
1.46089e-10
1.46079e-10
1.4607e-10
1.46063e-10
1.46058e-10
1.46053e-10
1.4605e-10
1.46048e-10
1.46045e-10
1.46044e-10
1.46042e-10
1.46041e-10
1.4604e-10
1.4604e-10
1.46039e-10
1.46039e-10
1.46039e-10
1.46039e-10
1.46038e-10
1.46038e-10
1.46038e-10
1.46038e-10
1.46038e-10
1.46038e-10
1.46038e-10
1.46038e-10
1.46038e-10
1.46038e-10
1.46038e-10
1.46038e-10
1.46038e-10
1.46038e-10
1.46038e-10
1.46038e-10
1.46038e-10
1.46038e-10
1.46038e-10
1.46038e-10
1.46038e-10
1.46038e-10
1.46038e-10
1.46038e-10
1.46038e-10
1.46038e-10
1.46038e-10
1.46038e-10
1.46038e-10
1.46038e-10
1.46038e-10
1.46038e-10
1.46038e-10
1.46038e-10
1.46038e-10
1.46038e-10
1.46038e-10
1.46038e-10
1.46038e-10
1.46038e-10
1.46038e-10
1.46038e-10
1.46038e-10
1.46038e-10
1.46038e-10
1.46038e-10
1.46038e-10
1.46038e-10
1.46038e-10
1.46038e-10
1.46038e-10
1.46038e-10
1.46038e-10
1.46038e-10
1.46038e-10
1.46038e-10
1.46038e-10
1.46038e-10
1.46038e-10
1.46038e-10
1.46038e-10
1.46038e-10
1.46038e-10
1.46038e-10
1.46038e-10
1.46038e-10
1.46038e-10
1.46038e-10
1.46038e-10
1.46038e-10
1.46038e-10
1.46038e-10
1.46038e-10
1.46038e-10
1.54512e-10
1.55737e-10
1.57123e-10
1.58681e-10
1.60418e-10
1.62348e-10
1.64496e-10
1.66895e-10
1.69562e-10
1.72498e-10
1.75685e-10
1.791e-10
1.82714e-10
1.86513e-10
1.90528e-10
2.29531e-10
2.29201e-10
2.28882e-10
2.28572e-10
2.28272e-10
2.27981e-10
2.277e-10
2.27427e-10
2.27162e-10
2.26906e-10
2.26658e-10
2.26419e-10
2.26189e-10
2.2597e-10
2.25761e-10
2.25564e-10
2.2538e-10
2.25212e-10
2.25062e-10
2.24933e-10
2.24826e-10
2.24744e-10
2.24687e-10
2.2467e-10
2.24676e-10
2.24702e-10
2.24756e-10
2.24837e-10
2.24952e-10
2.25102e-10
2.25286e-10
2.25501e-10
2.25735e-10
2.25973e-10
2.26202e-10
2.2641e-10
2.26595e-10
2.26761e-10
2.26913e-10
2.27054e-10
2.27185e-10
2.27315e-10
2.27443e-10
2.2756e-10
2.27665e-10
2.27769e-10
2.27877e-10
2.27993e-10
2.28117e-10
2.28248e-10
2.28386e-10
2.28533e-10
2.28685e-10
2.28832e-10
2.28967e-10
2.29081e-10
2.29176e-10
2.2924e-10
2.29245e-10
2.29213e-10
2.29112e-10
2.289e-10
2.28516e-10
2.27876e-10
2.26896e-10
2.25517e-10
2.23688e-10
2.21354e-10
2.18425e-10
2.14813e-10
2.10581e-10
2.058e-10
2.00498e-10
1.9473e-10
1.88647e-10
1.82548e-10
1.76971e-10
1.72603e-10
1.69092e-10
1.65954e-10
1.63009e-10
1.60263e-10
1.57811e-10
1.55745e-10
1.541e-10
1.5281e-10
1.5174e-10
1.50802e-10
1.49971e-10
1.49249e-10
1.48643e-10
1.48157e-10
1.4778e-10
1.47485e-10
1.47241e-10
1.4703e-10
1.46848e-10
1.46695e-10
1.4657e-10
1.4647e-10
1.46391e-10
1.46326e-10
1.46272e-10
1.46226e-10
1.46187e-10
1.46155e-10
1.46129e-10
1.4611e-10
1.46094e-10
1.46082e-10
1.46073e-10
1.46065e-10
1.46059e-10
1.46054e-10
1.46051e-10
1.46048e-10
1.46046e-10
1.46044e-10
1.46043e-10
1.46042e-10
1.46041e-10
1.4604e-10
1.4604e-10
1.46039e-10
1.46039e-10
1.46039e-10
1.46038e-10
1.46038e-10
1.46038e-10
1.46038e-10
1.46038e-10
1.46038e-10
1.46038e-10
1.46038e-10
1.46038e-10
1.46038e-10
1.46038e-10
1.46038e-10
1.46038e-10
1.46038e-10
1.46038e-10
1.46038e-10
1.46038e-10
1.46038e-10
1.46038e-10
1.46038e-10
1.46038e-10
1.46038e-10
1.46038e-10
1.46038e-10
1.46038e-10
1.46038e-10
1.46038e-10
1.46038e-10
1.46038e-10
1.46038e-10
1.46038e-10
1.46038e-10
1.46038e-10
1.46038e-10
1.46038e-10
1.46038e-10
1.46038e-10
1.46038e-10
1.46038e-10
1.46038e-10
1.46038e-10
1.46038e-10
1.46038e-10
1.46038e-10
1.46038e-10
1.46038e-10
1.46038e-10
1.46038e-10
1.46038e-10
1.46038e-10
1.46038e-10
1.46038e-10
1.46038e-10
1.46038e-10
1.46038e-10
1.46038e-10
1.46038e-10
1.46038e-10
1.46038e-10
1.46038e-10
1.46038e-10
1.46038e-10
1.46038e-10
1.46038e-10
1.46038e-10
1.46038e-10
1.46038e-10
1.67105e-10
1.69845e-10
1.72866e-10
1.76158e-10
1.79694e-10
1.83447e-10
1.87399e-10
1.9157e-10
1.96123e-10
2.01037e-10
2.06229e-10
2.11572e-10
2.16926e-10
2.22152e-10
2.27132e-10
2.31764e-10
2.31249e-10
2.3083e-10
2.30427e-10
2.30039e-10
2.29667e-10
2.29309e-10
2.28967e-10
2.28639e-10
2.28325e-10
2.28024e-10
2.27737e-10
2.27462e-10
2.27199e-10
2.26949e-10
2.26713e-10
2.26489e-10
2.2628e-10
2.26086e-10
2.25908e-10
2.25747e-10
2.25606e-10
2.25486e-10
2.25388e-10
2.25323e-10
2.25303e-10
2.25304e-10
2.25333e-10
2.25395e-10
2.25493e-10
2.25633e-10
2.25817e-10
2.26043e-10
2.26303e-10
2.26583e-10
2.26864e-10
2.27131e-10
2.27371e-10
2.27582e-10
2.27769e-10
2.27936e-10
2.28082e-10
2.28212e-10
2.28356e-10
2.28495e-10
2.28623e-10
2.28763e-10
2.28908e-10
2.29048e-10
2.29185e-10
2.2933e-10
2.29489e-10
2.29665e-10
2.29856e-10
2.30065e-10
2.30292e-10
2.30503e-10
2.30697e-10
2.30898e-10
2.31103e-10
2.31317e-10
2.31537e-10
2.31748e-10
2.31934e-10
2.32078e-10
2.32172e-10
2.32208e-10
2.32198e-10
2.32148e-10
2.3202e-10
2.31775e-10
2.31338e-10
2.30604e-10
2.29476e-10
2.27893e-10
2.2581e-10
2.23184e-10
2.19939e-10
2.15995e-10
2.11406e-10
2.06216e-10
2.00466e-10
1.94273e-10
1.87875e-10
1.81659e-10
1.762e-10
1.72065e-10
1.68711e-10
1.65657e-10
1.62779e-10
1.6012e-10
1.57774e-10
1.55801e-10
1.54213e-10
1.52963e-10
1.5193e-10
1.51016e-10
1.5019e-10
1.49457e-10
1.48826e-10
1.48303e-10
1.47886e-10
1.47555e-10
1.47286e-10
1.47056e-10
1.46857e-10
1.4669e-10
1.46554e-10
1.46447e-10
1.46364e-10
1.46298e-10
1.46244e-10
1.462e-10
1.46163e-10
1.46135e-10
1.46114e-10
1.46098e-10
1.46085e-10
1.46075e-10
1.46067e-10
1.46061e-10
1.46056e-10
1.46052e-10
1.46049e-10
1.46047e-10
1.46045e-10
1.46043e-10
1.46042e-10
1.46041e-10
1.4604e-10
1.4604e-10
1.46039e-10
1.46039e-10
1.46039e-10
1.46039e-10
1.46038e-10
1.46038e-10
1.46038e-10
1.46038e-10
1.46038e-10
1.46038e-10
1.46038e-10
1.46038e-10
1.46038e-10
1.46038e-10
1.46038e-10
1.46038e-10
1.46038e-10
1.46038e-10
1.46038e-10
1.46038e-10
1.46038e-10
1.46038e-10
1.46038e-10
1.46038e-10
1.46038e-10
1.46038e-10
1.46038e-10
1.46038e-10
1.46038e-10
1.46038e-10
1.46038e-10
1.46038e-10
1.46038e-10
1.46038e-10
1.46038e-10
1.46038e-10
1.46038e-10
1.46038e-10
1.46038e-10
1.46038e-10
1.46038e-10
1.46038e-10
1.46038e-10
1.46038e-10
1.46038e-10
1.46038e-10
1.46038e-10
1.46039e-10
1.46039e-10
1.46039e-10
1.46039e-10
1.46039e-10
1.46039e-10
1.46039e-10
1.46039e-10
1.46039e-10
1.46039e-10
1.46039e-10
1.46039e-10
1.46039e-10
1.46039e-10
1.46039e-10
1.46039e-10
1.95766e-10
2.0069e-10
2.05911e-10
2.11316e-10
2.16768e-10
2.22125e-10
2.2726e-10
2.32059e-10
2.36402e-10
2.4026e-10
2.43631e-10
2.46538e-10
2.49017e-10
2.34708e-10
2.34119e-10
2.33552e-10
2.33007e-10
2.32486e-10
2.31989e-10
2.31514e-10
2.31062e-10
2.30631e-10
2.30223e-10
2.29836e-10
2.29469e-10
2.29121e-10
2.28793e-10
2.28484e-10
2.28194e-10
2.27925e-10
2.27674e-10
2.27444e-10
2.27233e-10
2.27042e-10
2.26875e-10
2.26731e-10
2.26613e-10
2.26541e-10
2.26509e-10
2.26501e-10
2.26526e-10
2.2659e-10
2.26696e-10
2.26844e-10
2.27037e-10
2.2727e-10
2.27537e-10
2.2782e-10
2.28097e-10
2.28352e-10
2.28578e-10
2.28777e-10
2.28951e-10
2.29095e-10
2.29218e-10
2.29356e-10
2.29483e-10
2.29594e-10
2.29723e-10
2.29863e-10
2.29999e-10
2.3013e-10
2.30265e-10
2.30411e-10
2.30572e-10
2.3075e-10
2.30941e-10
2.31147e-10
2.3135e-10
2.31546e-10
2.31745e-10
2.31956e-10
2.32183e-10
2.32426e-10
2.3268e-10
2.32936e-10
2.33183e-10
2.33421e-10
2.33658e-10
2.33884e-10
2.34101e-10
2.34323e-10
2.3454e-10
2.34733e-10
2.34893e-10
2.35023e-10
2.35115e-10
2.35139e-10
2.35118e-10
2.35024e-10
2.34773e-10
2.34262e-10
2.33383e-10
2.32076e-10
2.3031e-10
2.28063e-10
2.25306e-10
2.21959e-10
2.17921e-10
2.13222e-10
2.07921e-10
2.0211e-10
1.95935e-10
1.89625e-10
1.83499e-10
1.77998e-10
1.73651e-10
1.70315e-10
1.67311e-10
1.64431e-10
1.61703e-10
1.59212e-10
1.57024e-10
1.55176e-10
1.53666e-10
1.52444e-10
1.51396e-10
1.50451e-10
1.49604e-10
1.48875e-10
1.48278e-10
1.47812e-10
1.47455e-10
1.47173e-10
1.46941e-10
1.46748e-10
1.46594e-10
1.46474e-10
1.46383e-10
1.46313e-10
1.46257e-10
1.46211e-10
1.46173e-10
1.46144e-10
1.46121e-10
1.46104e-10
1.46091e-10
1.4608e-10
1.46071e-10
1.46064e-10
1.46058e-10
1.46054e-10
1.46051e-10
1.46048e-10
1.46046e-10
1.46044e-10
1.46043e-10
1.46042e-10
1.46041e-10
1.4604e-10
1.4604e-10
1.46039e-10
1.46039e-10
1.46039e-10
1.46039e-10
1.46039e-10
1.46039e-10
1.46039e-10
1.46039e-10
1.46039e-10
1.46039e-10
1.46039e-10
1.46039e-10
1.46039e-10
1.46039e-10
1.46039e-10
1.46039e-10
1.46039e-10
1.46039e-10
1.46039e-10
1.46039e-10
1.46039e-10
1.46039e-10
1.46039e-10
1.46039e-10
1.46039e-10
1.46039e-10
1.46039e-10
1.4604e-10
1.4604e-10
1.4604e-10
1.4604e-10
1.4604e-10
1.4604e-10
1.4604e-10
1.4604e-10
1.4604e-10
1.4604e-10
1.46041e-10
1.46041e-10
1.46041e-10
1.46041e-10
1.46041e-10
1.46041e-10
1.46041e-10
1.46042e-10
1.46042e-10
1.46042e-10
1.46042e-10
1.46042e-10
1.46043e-10
1.46043e-10
1.46043e-10
1.46043e-10
1.46044e-10
1.46043e-10
2.35564e-10
2.39734e-10
2.43402e-10
2.46579e-10
2.49296e-10
2.51594e-10
2.53522e-10
2.55127e-10
2.56451e-10
2.57536e-10
2.58415e-10
2.59118e-10
2.59669e-10
2.41784e-10
2.40828e-10
2.39901e-10
2.3901e-10
2.38165e-10
2.37363e-10
2.36596e-10
2.35864e-10
2.3517e-10
2.34517e-10
2.33903e-10
2.33323e-10
2.32777e-10
2.32265e-10
2.31786e-10
2.3134e-10
2.30927e-10
2.30545e-10
2.30193e-10
2.29871e-10
2.29578e-10
2.29314e-10
2.29081e-10
2.28878e-10
2.2871e-10
2.286e-10
2.28522e-10
2.28476e-10
2.28467e-10
2.28504e-10
2.28585e-10
2.28704e-10
2.28861e-10
2.29057e-10
2.29283e-10
2.29514e-10
2.29732e-10
2.29925e-10
2.30098e-10
2.30251e-10
2.30367e-10
2.30476e-10
2.30592e-10
2.3068e-10
2.30754e-10
2.3085e-10
2.30956e-10
2.3106e-10
2.31163e-10
2.31269e-10
2.31382e-10
2.31504e-10
2.31643e-10
2.31794e-10
2.31959e-10
2.3213e-10
2.32302e-10
2.3248e-10
2.32668e-10
2.32872e-10
2.3309e-10
2.3332e-10
2.33554e-10
2.3379e-10
2.34028e-10
2.34272e-10
2.34526e-10
2.34792e-10
2.35074e-10
2.35371e-10
2.35675e-10
2.35984e-10
2.36295e-10
2.36606e-10
2.36924e-10
2.37227e-10
2.37518e-10
2.37795e-10
2.38055e-10
2.38317e-10
2.38581e-10
2.38817e-10
2.39001e-10
2.39099e-10
2.39081e-10
2.38898e-10
2.38413e-10
2.37567e-10
2.3635e-10
2.34752e-10
2.32747e-10
2.30265e-10
2.27204e-10
2.23494e-10
2.19142e-10
2.14199e-10
2.08693e-10
2.02685e-10
1.96305e-10
1.89788e-10
1.83477e-10
1.77819e-10
1.73299e-10
1.6968e-10
1.663e-10
1.63053e-10
1.60048e-10
1.57407e-10
1.55204e-10
1.53455e-10
1.52089e-10
1.50956e-10
1.49971e-10
1.49131e-10
1.4845e-10
1.47926e-10
1.47535e-10
1.47237e-10
1.46996e-10
1.46798e-10
1.46638e-10
1.46513e-10
1.46417e-10
1.46342e-10
1.46281e-10
1.46232e-10
1.4619e-10
1.46157e-10
1.46131e-10
1.46111e-10
1.46095e-10
1.46083e-10
1.46073e-10
1.46066e-10
1.4606e-10
1.46055e-10
1.46052e-10
1.46049e-10
1.46047e-10
1.46045e-10
1.46044e-10
1.46043e-10
1.46042e-10
1.46042e-10
1.46042e-10
1.46041e-10
1.46041e-10
1.46041e-10
1.46041e-10
1.46041e-10
1.46041e-10
1.46042e-10
1.46042e-10
1.46042e-10
1.46042e-10
1.46042e-10
1.46042e-10
1.46042e-10
1.46043e-10
1.46043e-10
1.46043e-10
1.46043e-10
1.46044e-10
1.46044e-10
1.46044e-10
1.46044e-10
1.46045e-10
1.46045e-10
1.46045e-10
1.46046e-10
1.46046e-10
1.46046e-10
1.46047e-10
1.46047e-10
1.46047e-10
1.46048e-10
1.46048e-10
1.46049e-10
1.46049e-10
1.4605e-10
1.46051e-10
1.46051e-10
1.46052e-10
1.46052e-10
1.46053e-10
1.46054e-10
1.46055e-10
1.46056e-10
1.46057e-10
1.46057e-10
1.46058e-10
1.46059e-10
1.46059e-10
2.55474e-10
2.57005e-10
2.5826e-10
2.59281e-10
2.60102e-10
2.60751e-10
2.61256e-10
2.61652e-10
2.61977e-10
2.62254e-10
2.62494e-10
2.62698e-10
2.62867e-10
2.62995e-10
2.56819e-10
2.55026e-10
2.53275e-10
2.51598e-10
2.5003e-10
2.4854e-10
2.47108e-10
2.45737e-10
2.44444e-10
2.43234e-10
2.42096e-10
2.41026e-10
2.40018e-10
2.39074e-10
2.38195e-10
2.37377e-10
2.3662e-10
2.3592e-10
2.35275e-10
2.34684e-10
2.34143e-10
2.33647e-10
2.332e-10
2.32802e-10
2.32443e-10
2.32138e-10
2.31901e-10
2.317e-10
2.31536e-10
2.3142e-10
2.3136e-10
2.31341e-10
2.31353e-10
2.31403e-10
2.31497e-10
2.31612e-10
2.3172e-10
2.31813e-10
2.31902e-10
2.31977e-10
2.32033e-10
2.32088e-10
2.32147e-10
2.32163e-10
2.32181e-10
2.3222e-10
2.32267e-10
2.32316e-10
2.32368e-10
2.32423e-10
2.32487e-10
2.32561e-10
2.32646e-10
2.32745e-10
2.32856e-10
2.32978e-10
2.33108e-10
2.33245e-10
2.33392e-10
2.33552e-10
2.33726e-10
2.33913e-10
2.34111e-10
2.34319e-10
2.34539e-10
2.34773e-10
2.35022e-10
2.35289e-10
2.35573e-10
2.35873e-10
2.36189e-10
2.36515e-10
2.36848e-10
2.37193e-10
2.37555e-10
2.37929e-10
2.3831e-10
2.38706e-10
2.39124e-10
2.39563e-10
2.40017e-10
2.40484e-10
2.40949e-10
2.41375e-10
2.41841e-10
2.42338e-10
2.42823e-10
2.43298e-10
2.43757e-10
2.44203e-10
2.44604e-10
2.44893e-10
2.45043e-10
2.45043e-10
2.4487e-10
2.44366e-10
2.43484e-10
2.42195e-10
2.40453e-10
2.38195e-10
2.35334e-10
2.31753e-10
2.27326e-10
2.21985e-10
2.15747e-10
2.0867e-10
2.0093e-10
1.92874e-10
1.85036e-10
1.78111e-10
1.72768e-10
1.68592e-10
1.64814e-10
1.61349e-10
1.58322e-10
1.55826e-10
1.53877e-10
1.52397e-10
1.51217e-10
1.50209e-10
1.49349e-10
1.48646e-10
1.48096e-10
1.47679e-10
1.47359e-10
1.47102e-10
1.46887e-10
1.46708e-10
1.46565e-10
1.46454e-10
1.46367e-10
1.46299e-10
1.46244e-10
1.46199e-10
1.46162e-10
1.46135e-10
1.46114e-10
1.46098e-10
1.46085e-10
1.46076e-10
1.46069e-10
1.46063e-10
1.46059e-10
1.46056e-10
1.46054e-10
1.46053e-10
1.46052e-10
1.46051e-10
1.46051e-10
1.46051e-10
1.46051e-10
1.46051e-10
1.46051e-10
1.46052e-10
1.46052e-10
1.46053e-10
1.46053e-10
1.46054e-10
1.46055e-10
1.46055e-10
1.46056e-10
1.46057e-10
1.46058e-10
1.46059e-10
1.4606e-10
1.46061e-10
1.46062e-10
1.46063e-10
1.46064e-10
1.46065e-10
1.46067e-10
1.46068e-10
1.46069e-10
1.46071e-10
1.46072e-10
1.46074e-10
1.46076e-10
1.46078e-10
1.46079e-10
1.46081e-10
1.46084e-10
1.46086e-10
1.46088e-10
1.46091e-10
1.46093e-10
1.46096e-10
1.46099e-10
1.46102e-10
1.46106e-10
1.46109e-10
1.46113e-10
1.46117e-10
1.46114e-10
2.63212e-10
2.63532e-10
2.63804e-10
2.64036e-10
2.64231e-10
2.64387e-10
2.64496e-10
2.64565e-10
2.64604e-10
2.64634e-10
2.64662e-10
2.64695e-10
2.64737e-10
2.64794e-10
2.89066e-10
2.85402e-10
2.81826e-10
2.78437e-10
2.75239e-10
2.72207e-10
2.69296e-10
2.66501e-10
2.63871e-10
2.61409e-10
2.59102e-10
2.56924e-10
2.54867e-10
2.52944e-10
2.51152e-10
2.49483e-10
2.47932e-10
2.46495e-10
2.45165e-10
2.43939e-10
2.42814e-10
2.41775e-10
2.40819e-10
2.39959e-10
2.39173e-10
2.38441e-10
2.37807e-10
2.37258e-10
2.36757e-10
2.36305e-10
2.35931e-10
2.35625e-10
2.35355e-10
2.35123e-10
2.34954e-10
2.34834e-10
2.34717e-10
2.346e-10
2.345e-10
2.3441e-10
2.34328e-10
2.34256e-10
2.34182e-10
2.3408e-10
2.34001e-10
2.3394e-10
2.3389e-10
2.33848e-10
2.33816e-10
2.33798e-10
2.3379e-10
2.33794e-10
2.3381e-10
2.3384e-10
2.33886e-10
2.33946e-10
2.34017e-10
2.34099e-10
2.34194e-10
2.34302e-10
2.34424e-10
2.34562e-10
2.34716e-10
2.34886e-10
2.35074e-10
2.35281e-10
2.35508e-10
2.35754e-10
2.36021e-10
2.36308e-10
2.36614e-10
2.36936e-10
2.37275e-10
2.37634e-10
2.38013e-10
2.38403e-10
2.38806e-10
2.39234e-10
2.39682e-10
2.40143e-10
2.40627e-10
2.41125e-10
2.41635e-10
2.42187e-10
2.42753e-10
2.43312e-10
2.43963e-10
2.44668e-10
2.45317e-10
2.4601e-10
2.46746e-10
2.47471e-10
2.48183e-10
2.48876e-10
2.49544e-10
2.50186e-10
2.50812e-10
2.51415e-10
2.51969e-10
2.52413e-10
2.52664e-10
2.52683e-10
2.52479e-10
2.51838e-10
2.50666e-10
2.48918e-10
2.46534e-10
2.43445e-10
2.39548e-10
2.34695e-10
2.2877e-10
2.21791e-10
2.13888e-10
2.05269e-10
1.96322e-10
1.87637e-10
1.79944e-10
1.73938e-10
1.69528e-10
1.65697e-10
1.62209e-10
1.59142e-10
1.5658e-10
1.54535e-10
1.52957e-10
1.51714e-10
1.50653e-10
1.49726e-10
1.48941e-10
1.4831e-10
1.47824e-10
1.47455e-10
1.47165e-10
1.46929e-10
1.46735e-10
1.46581e-10
1.46463e-10
1.46372e-10
1.46303e-10
1.46247e-10
1.46203e-10
1.46168e-10
1.46143e-10
1.46124e-10
1.46111e-10
1.46101e-10
1.46094e-10
1.46089e-10
1.46087e-10
1.46085e-10
1.46085e-10
1.46085e-10
1.46085e-10
1.46086e-10
1.46088e-10
1.46089e-10
1.46091e-10
1.46093e-10
1.46096e-10
1.46098e-10
1.46101e-10
1.46104e-10
1.46107e-10
1.4611e-10
1.46114e-10
1.46117e-10
1.46121e-10
1.46125e-10
1.46129e-10
1.46134e-10
1.46138e-10
1.46143e-10
1.46148e-10
1.46153e-10
1.46159e-10
1.46164e-10
1.4617e-10
1.46177e-10
1.46184e-10
1.46191e-10
1.46198e-10
1.46206e-10
1.46215e-10
1.46224e-10
1.46234e-10
1.46244e-10
1.46255e-10
1.46267e-10
1.46279e-10
1.46292e-10
1.46306e-10
1.46321e-10
1.46312e-10
2.66148e-10
2.66186e-10
2.66221e-10
2.66253e-10
2.66294e-10
2.66349e-10
2.66422e-10
2.66499e-10
2.66558e-10
2.66602e-10
2.66632e-10
2.66658e-10
2.66692e-10
2.66748e-10
3.56566e-10
3.48975e-10
3.41606e-10
3.34625e-10
3.28002e-10
3.21683e-10
3.15647e-10
3.09839e-10
3.04375e-10
2.99241e-10
2.94404e-10
2.89854e-10
2.85546e-10
2.81507e-10
2.77736e-10
2.74215e-10
2.70933e-10
2.67878e-10
2.65039e-10
2.62406e-10
2.59976e-10
2.57726e-10
2.55635e-10
2.53724e-10
2.51976e-10
2.5033e-10
2.4881e-10
2.4747e-10
2.46228e-10
2.45062e-10
2.44017e-10
2.43091e-10
2.42235e-10
2.41444e-10
2.40752e-10
2.40156e-10
2.39587e-10
2.39049e-10
2.38572e-10
2.38151e-10
2.37768e-10
2.37423e-10
2.37084e-10
2.36772e-10
2.36495e-10
2.36248e-10
2.36025e-10
2.35828e-10
2.35659e-10
2.35514e-10
2.3539e-10
2.35285e-10
2.35201e-10
2.35141e-10
2.351e-10
2.35078e-10
2.35073e-10
2.35086e-10
2.35116e-10
2.35162e-10
2.35225e-10
2.35308e-10
2.35411e-10
2.35535e-10
2.35681e-10
2.3585e-10
2.36043e-10
2.36259e-10
2.36499e-10
2.36763e-10
2.37051e-10
2.3736e-10
2.37693e-10
2.38049e-10
2.38424e-10
2.38815e-10
2.39228e-10
2.39663e-10
2.40114e-10
2.40587e-10
2.41089e-10
2.41593e-10
2.42125e-10
2.4271e-10
2.43272e-10
2.43873e-10
2.44556e-10
2.45227e-10
2.45915e-10
2.46689e-10
2.47431e-10
2.48136e-10
2.48931e-10
2.49746e-10
2.5053e-10
2.51364e-10
2.52232e-10
2.53084e-10
2.53915e-10
2.54691e-10
2.55355e-10
2.55964e-10
2.56514e-10
2.56986e-10
2.57388e-10
2.57704e-10
2.57871e-10
2.57872e-10
2.57705e-10
2.57172e-10
2.56155e-10
2.54604e-10
2.52459e-10
2.49656e-10
2.46135e-10
2.41829e-10
2.3666e-10
2.3056e-10
2.23536e-10
2.15731e-10
2.07329e-10
1.98642e-10
1.90132e-10
1.82376e-10
1.75977e-10
1.71256e-10
1.67354e-10
1.63754e-10
1.60475e-10
1.57631e-10
1.55292e-10
1.53458e-10
1.52041e-10
1.50873e-10
1.49866e-10
1.49019e-10
1.48344e-10
1.47831e-10
1.47449e-10
1.47154e-10
1.46918e-10
1.46729e-10
1.46584e-10
1.46475e-10
1.46395e-10
1.46335e-10
1.46289e-10
1.46255e-10
1.46231e-10
1.46216e-10
1.46207e-10
1.46203e-10
1.46203e-10
1.46204e-10
1.46207e-10
1.46212e-10
1.46217e-10
1.46224e-10
1.46232e-10
1.4624e-10
1.4625e-10
1.46259e-10
1.4627e-10
1.46281e-10
1.46293e-10
1.46306e-10
1.4632e-10
1.46334e-10
1.4635e-10
1.46366e-10
1.46382e-10
1.464e-10
1.46418e-10
1.46437e-10
1.46456e-10
1.46476e-10
1.46497e-10
1.4652e-10
1.46543e-10
1.46567e-10
1.46593e-10
1.46621e-10
1.4665e-10
1.46682e-10
1.46715e-10
1.46752e-10
1.46791e-10
1.46832e-10
1.46876e-10
1.46923e-10
1.46972e-10
1.4703e-10
1.47001e-10
2.68246e-10
2.6831e-10
2.6836e-10
2.68398e-10
2.68439e-10
2.68495e-10
2.68582e-10
2.68695e-10
2.68822e-10
2.68952e-10
2.69085e-10
2.69226e-10
2.69379e-10
4.91168e-10
4.75962e-10
4.61258e-10
4.47251e-10
4.33884e-10
4.21059e-10
4.08839e-10
3.97091e-10
3.85998e-10
3.7554e-10
3.65635e-10
3.56261e-10
3.47416e-10
3.39097e-10
3.31302e-10
3.24002e-10
3.17171e-10
3.10788e-10
3.0483e-10
2.99276e-10
2.94118e-10
2.89322e-10
2.8486e-10
2.80732e-10
2.76929e-10
2.73355e-10
2.70022e-10
2.6698e-10
2.64172e-10
2.61519e-10
2.59087e-10
2.56878e-10
2.5481e-10
2.52891e-10
2.51151e-10
2.49583e-10
2.48115e-10
2.46752e-10
2.45533e-10
2.44434e-10
2.43436e-10
2.4253e-10
2.41697e-10
2.40943e-10
2.40267e-10
2.39661e-10
2.39117e-10
2.38633e-10
2.38207e-10
2.37833e-10
2.37505e-10
2.37219e-10
2.36975e-10
2.36769e-10
2.36598e-10
2.36459e-10
2.36349e-10
2.36265e-10
2.36211e-10
2.36178e-10
2.36168e-10
2.36184e-10
2.36225e-10
2.36293e-10
2.36387e-10
2.36508e-10
2.36657e-10
2.36834e-10
2.37039e-10
2.37273e-10
2.37534e-10
2.37823e-10
2.38138e-10
2.3848e-10
2.38843e-10
2.39228e-10
2.3964e-10
2.40072e-10
2.40521e-10
2.41002e-10
2.41502e-10
2.42004e-10
2.42551e-10
2.43122e-10
2.43685e-10
2.44316e-10
2.44977e-10
2.456e-10
2.46298e-10
2.47061e-10
2.47743e-10
2.48467e-10
2.49267e-10
2.50053e-10
2.50868e-10
2.51729e-10
2.52551e-10
2.53349e-10
2.54138e-10
2.54881e-10
2.55594e-10
2.56312e-10
2.57034e-10
2.57746e-10
2.58426e-10
2.59048e-10
2.59575e-10
2.59975e-10
2.60262e-10
2.60404e-10
2.60417e-10
2.60365e-10
2.60214e-10
2.59944e-10
2.59526e-10
2.58913e-10
2.58034e-10
2.56813e-10
2.55164e-10
2.52989e-10
2.50235e-10
2.46884e-10
2.42893e-10
2.38188e-10
2.32681e-10
2.26305e-10
2.19102e-10
2.11154e-10
2.02629e-10
1.93885e-10
1.85493e-10
1.78177e-10
1.72579e-10
1.68254e-10
1.64366e-10
1.60837e-10
1.57791e-10
1.5531e-10
1.5339e-10
1.51924e-10
1.50731e-10
1.49722e-10
1.48898e-10
1.48264e-10
1.47799e-10