/*--------------------------------*- C++ -*----------------------------------*\
| =========                 |                                                 |
| \\      /  F ield         | OpenFOAM: The Open Source CFD Toolbox           |
|  \\    /   O peration     | Version:  v1706                                 |
|   \\  /    A nd           | Web:      www.OpenFOAM.com                      |
|    \\/     M anipulation  |                                                 |
\*---------------------------------------------------------------------------*/
FoamFile
{
    version     2.0;
    format      ascii;
    class       volScalarField;
    location    "3.9e-05";
    object      Tt;
}
// * * * * * * * * * * * * * * * * * * * * * * * * * * * * * * * * * * * * * //

dimensions      [0 0 0 1 0 0 0];


internalField   nonuniform List<scalar> 
30104
(
144.448
144.456
144.464
144.474
144.485
144.498
144.513
144.53
144.549
144.571
144.597
144.626
144.66
144.698
144.742
144.791
144.848
187.748
186.892
186.029
185.163
184.293
183.422
182.55
181.68
180.812
179.945
179.08
178.217
177.354
176.49
175.626
174.761
173.893
173.022
172.149
171.273
170.393
169.511
168.627
167.74
166.848
166.008
165.374
164.863
164.399
163.937
163.455
162.942
162.396
161.815
161.203
160.562
159.893
159.2
158.485
157.753
157.006
156.246
155.476
154.695
153.906
153.113
152.319
151.531
150.788
150.137
149.59
149.11
148.662
148.227
147.799
147.38
146.976
146.595
146.248
145.946
145.7
145.502
145.337
145.194
145.066
144.952
144.855
144.774
144.71
144.658
144.615
144.578
144.546
144.518
144.495
144.476
144.461
144.449
144.439
144.432
144.425
144.42
144.416
144.413
144.411
144.409
144.407
144.405
144.404
144.403
144.403
144.402
144.402
144.401
144.401
144.401
144.401
144.401
144.4
144.4
144.4
144.4
144.4
144.4
144.4
144.4
144.4
144.4
144.4
144.4
144.4
144.4
144.4
144.4
144.4
144.4
144.4
144.4
144.4
144.4
144.4
144.4
144.4
144.4
144.4
144.4
144.4
144.4
144.4
144.4
144.4
144.4
144.4
144.4
144.4
144.4
144.4
144.4
144.4
144.4
144.4
144.4
144.4
144.4
144.4
144.4
144.4
144.4
144.4
144.4
144.4
144.4
144.4
144.4
144.4
144.4
144.4
144.4
144.4
144.4
144.4
144.4
144.4
144.4
144.4
144.4
144.4
144.4
144.4
144.4
144.4
144.4
144.4
144.4
144.4
144.4
144.4
144.4
144.4
144.4
144.4
144.4
144.4
144.4
144.4
144.4
144.4
144.4
144.4
144.4
144.4
144.4
144.4
144.698
144.744
144.797
144.858
144.928
145.008
145.1
145.205
145.326
145.465
145.624
145.805
146.013
146.249
146.52
146.829
147.184
251.66
251.194
250.739
250.296
249.868
249.456
249.059
248.678
248.31
247.954
247.607
247.267
246.929
246.592
246.251
245.903
245.545
245.175
244.789
244.385
243.96
243.511
243.038
242.536
242.001
241.416
240.73
239.925
238.992
237.918
236.696
235.318
233.783
232.085
230.219
228.177
225.95
223.538
220.947
218.191
215.285
212.233
209.029
205.66
202.116
198.387
194.468
190.375
186.181
182.162
178.842
176.015
173.398
170.838
168.276
165.71
163.166
160.691
158.376
156.33
154.626
153.225
152.023
150.946
149.961
149.063
148.263
147.575
147.012
146.564
146.2
145.894
145.629
145.402
145.211
145.056
144.934
144.836
144.756
144.689
144.633
144.587
144.549
144.519
144.495
144.476
144.461
144.449
144.439
144.431
144.425
144.42
144.416
144.413
144.41
144.408
144.406
144.405
144.404
144.403
144.402
144.402
144.402
144.401
144.401
144.401
144.401
144.4
144.4
144.4
144.4
144.4
144.4
144.4
144.4
144.4
144.4
144.4
144.4
144.4
144.4
144.4
144.4
144.4
144.4
144.4
144.4
144.4
144.4
144.4
144.4
144.4
144.4
144.4
144.4
144.4
144.4
144.4
144.4
144.4
144.4
144.4
144.4
144.4
144.4
144.4
144.4
144.4
144.4
144.4
144.4
144.4
144.4
144.4
144.4
144.4
144.4
144.4
144.4
144.4
144.4
144.4
144.4
144.4
144.4
144.4
144.4
144.4
144.4
144.4
144.4
144.4
144.4
144.4
144.4
144.4
144.4
144.4
144.4
144.4
144.4
144.4
144.4
144.4
144.4
144.4
144.4
144.4
144.4
144.4
144.4
144.4
144.4
145.493
145.661
145.854
146.076
146.33
146.621
146.954
147.337
147.777
148.281
148.857
149.511
150.252
151.089
152.038
153.118
261.866
261.47
261.08
260.698
260.325
259.962
259.612
259.276
258.955
258.651
258.367
258.103
257.86
257.64
257.443
257.269
257.119
256.993
256.891
256.813
256.757
256.721
256.704
256.701
256.71
256.725
256.74
256.754
256.769
256.761
256.735
256.685
256.596
256.464
256.293
256.088
255.853
255.582
255.264
254.883
254.422
253.868
253.207
252.424
251.499
250.386
249.021
247.336
245.266
242.705
239.531
235.778
231.506
226.755
221.544
215.873
209.746
203.223
196.46
189.788
183.93
179.237
175.212
171.504
167.971
164.597
161.453
158.658
156.317
154.442
152.903
151.574
150.391
149.338
148.422
147.657
147.048
146.57
146.185
145.863
145.588
145.357
145.168
145.02
144.903
144.81
144.734
144.67
144.617
144.573
144.538
144.511
144.49
144.473
144.458
144.447
144.437
144.43
144.424
144.419
144.415
144.412
144.41
144.408
144.406
144.405
144.404
144.403
144.402
144.402
144.401
144.401
144.401
144.401
144.4
144.4
144.4
144.4
144.4
144.4
144.4
144.4
144.4
144.4
144.4
144.4
144.4
144.4
144.4
144.4
144.4
144.4
144.4
144.4
144.4
144.4
144.4
144.4
144.4
144.4
144.4
144.4
144.4
144.4
144.4
144.4
144.4
144.4
144.4
144.4
144.4
144.4
144.4
144.4
144.4
144.4
144.4
144.4
144.4
144.4
144.4
144.4
144.4
144.4
144.4
144.4
144.4
144.4
144.4
144.4
144.4
144.4
144.4
144.4
144.4
144.4
144.4
144.4
144.4
144.4
144.4
144.4
144.4
144.4
144.4
144.4
144.4
144.4
144.4
144.4
144.4
144.4
144.4
148.04
148.596
149.233
149.96
150.787
151.725
152.791
154.005
155.391
156.969
158.756
160.763
163.004
165.495
168.276
171.398
263.904
263.471
263.048
262.638
262.24
261.855
261.482
261.124
260.779
260.448
260.132
259.833
259.549
259.284
259.037
258.81
258.604
258.423
258.268
258.144
258.05
257.986
257.976
257.989
258.03
258.1
258.196
258.315
258.462
258.64
258.845
259.068
259.292
259.498
259.672
259.816
259.942
260.062
260.185
260.306
260.423
260.532
260.624
260.68
260.692
260.688
260.68
260.669
260.644
260.573
260.433
260.205
259.856
259.332
258.554
257.433
255.892
253.864
251.268
247.977
243.806
238.713
232.844
226.312
219.176
211.503
203.449
195.334
187.78
181.726
176.864
172.579
168.586
164.833
161.403
158.43
156.005
154.098
152.539
151.194
150.006
148.966
148.084
147.37
146.817
146.386
146.035
145.737
145.484
145.274
145.106
144.975
144.871
144.788
144.718
144.658
144.608
144.566
144.533
144.507
144.486
144.469
144.455
144.444
144.434
144.427
144.421
144.417
144.413
144.41
144.408
144.406
144.405
144.404
144.403
144.402
144.402
144.401
144.401
144.401
144.401
144.401
144.4
144.4
144.4
144.4
144.4
144.4
144.4
144.4
144.4
144.4
144.4
144.4
144.4
144.4
144.4
144.4
144.4
144.4
144.4
144.4
144.4
144.4
144.4
144.4
144.4
144.4
144.4
144.4
144.4
144.4
144.4
144.4
144.4
144.4
144.4
144.4
144.4
144.4
144.4
144.4
144.4
144.4
144.4
144.4
144.4
144.4
144.4
144.4
144.4
144.4
144.4
144.4
144.4
144.4
144.4
144.4
144.4
144.4
144.4
144.4
144.4
144.4
144.4
144.4
144.4
144.4
144.4
144.4
144.4
144.4
144.4
155.827
157.498
159.394
161.531
163.924
166.594
169.577
172.925
176.668
180.812
185.34
190.222
195.426
200.936
206.8
265.533
265.051
264.584
264.13
263.691
263.264
262.851
262.449
262.06
261.682
261.316
260.963
260.622
260.297
259.987
259.694
259.422
259.173
258.95
258.759
258.603
258.484
258.403
258.383
258.398
258.445
258.533
258.665
258.846
259.083
259.373
259.71
260.077
260.451
260.81
261.137
261.428
261.688
261.929
262.15
262.356
262.56
262.762
262.944
263.11
263.272
263.442
263.624
263.818
264.022
264.238
264.469
264.706
264.937
265.148
265.328
265.477
265.578
265.587
265.538
265.382
265.054
264.458
263.464
261.944
259.803
256.971
253.368
248.864
243.335
236.895
229.67
221.726
213.163
204.223
195.353
187.315
181.072
176.102
171.698
167.59
163.783
160.4
157.561
155.307
153.548
152.093
150.822
149.698
148.723
147.905
147.249
146.741
146.344
146.015
145.732
145.487
145.282
145.114
144.98
144.874
144.787
144.714
144.652
144.6
144.557
144.523
144.496
144.476
144.46
144.447
144.437
144.429
144.422
144.418
144.414
144.411
144.409
144.407
144.405
144.404
144.403
144.403
144.402
144.402
144.401
144.401
144.401
144.401
144.4
144.4
144.4
144.4
144.4
144.4
144.4
144.4
144.4
144.4
144.4
144.4
144.4
144.4
144.4
144.4
144.4
144.4
144.4
144.4
144.4
144.4
144.4
144.4
144.4
144.4
144.4
144.4
144.4
144.4
144.4
144.4
144.4
144.4
144.4
144.4
144.4
144.4
144.4
144.4
144.4
144.4
144.4
144.4
144.4
144.4
144.4
144.4
144.4
144.4
144.4
144.4
144.4
144.4
144.4
144.4
144.4
144.4
144.4
144.4
144.4
144.401
144.401
144.401
173.219
177.065
181.333
186.012
191.074
196.485
202.225
208.329
215.043
222.354
230.147
238.242
246.424
254.482
262.225
269.481
267.181
266.629
266.098
265.585
265.092
264.618
264.162
263.725
263.306
262.903
262.517
262.146
261.791
261.452
261.13
260.825
260.54
260.275
260.032
259.813
259.621
259.461
259.334
259.254
259.243
259.263
259.324
259.436
259.603
259.833
260.131
260.493
260.907
261.352
261.8
262.224
262.605
262.942
263.241
263.506
263.739
263.947
264.175
264.395
264.599
264.819
265.047
265.268
265.484
265.711
265.961
266.237
266.537
266.865
267.22
267.553
267.857
268.173
268.496
268.831
269.176
269.509
269.802
270.029
270.179
270.237
270.222
270.144
269.946
269.564
268.883
267.739
265.982
263.517
260.28
256.213
251.209
245.16
238.165
230.315
221.696
212.504
203.11
194.077
186.217
180.312
175.571
171.287
167.275
163.59
160.351
157.64
155.464
153.758
152.353
151.113
149.995
149.005
148.153
147.447
146.884
146.439
146.077
145.768
145.501
145.276
145.094
144.95
144.838
144.749
144.677
144.617
144.569
144.531
144.502
144.481
144.464
144.45
144.44
144.431
144.425
144.42
144.416
144.412
144.41
144.408
144.406
144.405
144.404
144.403
144.402
144.402
144.401
144.401
144.401
144.401
144.401
144.401
144.4
144.4
144.4
144.4
144.4
144.4
144.4
144.4
144.4
144.4
144.4
144.4
144.4
144.4
144.4
144.4
144.4
144.4
144.4
144.401
144.401
144.401
144.401
144.401
144.401
144.401
144.401
144.401
144.401
144.401
144.401
144.401
144.401
144.401
144.401
144.401
144.401
144.401
144.401
144.401
144.401
144.401
144.401
144.401
144.401
144.401
144.402
144.402
144.402
144.402
144.402
144.402
144.402
144.402
144.402
214.514
221.835
229.667
237.85
246.18
254.438
262.42
269.938
276.791
282.915
288.294
292.953
296.941
269.665
269.042
268.441
267.859
267.301
266.767
266.255
265.765
265.296
264.849
264.424
264.018
263.632
263.266
262.92
262.595
262.29
262.008
261.748
261.51
261.298
261.114
260.961
260.843
260.79
260.795
260.832
260.917
261.058
261.261
261.528
261.861
262.255
262.698
263.164
263.621
264.042
264.414
264.743
265.032
265.271
265.476
265.703
265.91
266.091
266.3
266.526
266.743
266.952
267.167
267.399
267.653
267.934
268.236
268.559
268.879
269.188
269.501
269.833
270.19
270.573
270.973
271.375
271.766
272.141
272.513
272.871
273.213
273.563
273.906
274.212
274.464
274.671
274.817
274.858
274.826
274.68
274.29
273.491
272.116
270.069
267.308
263.805
259.52
254.341
248.131
240.948
232.907
224.171
214.98
205.683
196.753
188.808
182.573
177.838
173.61
169.582
165.788
162.34
159.326
156.788
154.722
153.055
151.632
150.352
149.207
148.222
147.416
146.787
146.305
145.926
145.614
145.355
145.147
144.986
144.864
144.769
144.694
144.632
144.582
144.543
144.512
144.489
144.471
144.456
144.445
144.435
144.428
144.422
144.417
144.414
144.411
144.408
144.407
144.405
144.404
144.403
144.403
144.402
144.402
144.402
144.402
144.401
144.401
144.401
144.401
144.401
144.401
144.401
144.401
144.401
144.401
144.401
144.402
144.402
144.402
144.402
144.402
144.402
144.402
144.402
144.402
144.402
144.402
144.402
144.402
144.403
144.403
144.403
144.403
144.403
144.403
144.403
144.403
144.404
144.404
144.404
144.404
144.404
144.405
144.405
144.405
144.405
144.405
144.406
144.406
144.406
144.407
144.407
144.407
144.407
144.408
144.408
275.458
282.069
287.917
293.007
297.377
301.087
304.207
306.808
308.957
310.717
312.144
313.283
314.175
272.934
272.253
271.58
270.925
270.305
269.713
269.142
268.588
268.059
267.56
267.088
266.64
266.214
265.813
265.437
265.086
264.761
264.461
264.186
263.937
263.712
263.514
263.348
263.212
263.117
263.098
263.118
263.174
263.28
263.447
263.674
263.953
264.284
264.669
265.094
265.524
265.926
266.284
266.605
266.889
267.112
267.317
267.53
267.694
267.833
268.002
268.186
268.364
268.538
268.714
268.9
269.099
269.322
269.565
269.827
270.099
270.373
270.653
270.951
271.272
271.617
271.979
272.349
272.721
273.096
273.481
273.882
274.302
274.747
275.216
275.697
276.185
276.677
277.17
277.673
278.154
278.615
279.055
279.467
279.884
280.304
280.68
280.973
281.134
281.108
280.825
280.064
278.733
276.815
274.302
271.155
267.271
262.502
256.747
250.036
242.467
234.105
225.062
215.557
205.95
196.744
188.569
182.087
176.957
172.208
167.677
163.508
159.862
156.834
154.439
152.576
151.038
149.704
148.568
147.648
146.941
146.414
146.011
145.688
145.422
145.207
145.038
144.909
144.808
144.727
144.66
144.605
144.56
144.525
144.498
144.477
144.461
144.448
144.437
144.429
144.423
144.419
144.415
144.412
144.41
144.408
144.407
144.406
144.406
144.405
144.405
144.405
144.405
144.405
144.405
144.405
144.405
144.405
144.405
144.406
144.406
144.406
144.406
144.407
144.407
144.407
144.407
144.408
144.408
144.408
144.409
144.409
144.41
144.41
144.411
144.411
144.411
144.412
144.412
144.413
144.414
144.414
144.415
144.416
144.416
144.417
144.418
144.419
144.42
144.421
144.422
144.423
144.424
144.425
144.426
144.428
144.429
144.428
307.352
309.836
311.875
313.532
314.862
315.911
316.723
317.357
317.871
318.305
318.675
318.986
319.237
319.418
276.899
276.178
275.43
274.702
274.043
273.413
272.782
272.158
271.568
271.02
270.502
270.008
269.536
269.093
268.681
268.3
267.949
267.627
267.334
267.07
266.834
266.622
266.442
266.299
266.18
266.109
266.112
266.144
266.207
266.32
266.498
266.72
266.971
267.263
267.607
267.968
268.303
268.6
268.874
269.113
269.309
269.491
269.667
269.766
269.859
269.974
270.095
270.213
270.329
270.446
270.571
270.708
270.859
271.027
271.213
271.414
271.625
271.846
272.082
272.338
272.614
272.91
273.224
273.553
273.9
274.27
274.664
275.085
275.534
276.009
276.509
277.025
277.552
278.098
278.672
279.265
279.869
280.497
281.161
281.858
282.58
283.324
284.066
284.745
285.488
286.281
287.055
287.816
288.55
289.265
289.909
290.377
290.622
290.627
290.358
289.563
288.163
286.118
283.357
279.785
275.274
269.655
262.748
254.471
244.888
234.125
222.489
210.53
199.045
189.016
181.35
175.437
170.14
165.316
161.127
157.69
155.017
152.996
151.392
150.026
148.863
147.912
147.17
146.607
146.176
145.83
145.54
145.301
145.109
144.959
144.843
144.751
144.677
144.616
144.567
144.53
144.502
144.481
144.464
144.451
144.442
144.434
144.429
144.425
144.422
144.42
144.419
144.418
144.417
144.417
144.417
144.418
144.418
144.419
144.419
144.42
144.421
144.422
144.423
144.424
144.425
144.426
144.427
144.428
144.43
144.431
144.432
144.434
144.435
144.437
144.439
144.441
144.442
144.444
144.446
144.449
144.451
144.453
144.456
144.458
144.461
144.464
144.467
144.471
144.474
144.478
144.482
144.486
144.491
144.495
144.5
144.505
144.502
319.848
320.349
320.768
321.118
321.405
321.624
321.763
321.833
321.849
321.846
321.835
321.825
321.826
321.844
281.399
280.648
279.828
279.064
278.371
277.719
277.048
276.349
275.701
275.111
274.563
274.028
273.501
273.012
272.565
272.152
271.771
271.422
271.104
270.818
270.568
270.342
270.138
269.986
269.86
269.737
269.688
269.702
269.725
269.765
269.872
270.032
270.203
270.385
270.623
270.897
271.135
271.335
271.524
271.694
271.843
271.977
272.081
272.113
272.155
272.205
272.252
272.295
272.337
272.387
272.443
272.504
272.575
272.661
272.764
272.882
273.014
273.16
273.321
273.5
273.7
273.923
274.17
274.442
274.742
275.07
275.429
275.819
276.241
276.696
277.18
277.691
278.227
278.796
279.396
280.015
280.656
281.335
282.047
282.78
283.551
284.345
285.157
286.036
286.941
287.834
288.873
290.003
291.043
292.154
293.335
294.501
295.647
296.765
297.843
298.879
299.89
300.866
301.764
302.488
302.903
302.939
302.619
301.596
299.718
296.916
293.1
288.173
281.985
274.327
265.048
254.216
242.085
229.022
215.649
202.852
191.666
183.023
176.757
171.374
166.508
162.258
158.724
155.917
153.758
152.065
150.627
149.373
148.312
147.459
146.802
146.305
145.915
145.597
145.337
145.13
144.971
144.849
144.756
144.681
144.622
144.575
144.541
144.516
144.498
144.485
144.476
144.469
144.465
144.463
144.463
144.463
144.463
144.465
144.467
144.469
144.472
144.474
144.478
144.481
144.485
144.488
144.492
144.497
144.501
144.506
144.511
144.517
144.522
144.528
144.535
144.541
144.548
144.554
144.562
144.569
144.577
144.586
144.595
144.604
144.614
144.625
144.636
144.649
144.662
144.676
144.69
144.706
144.722
144.74
144.758
144.779
144.766
324.273
324.272
324.259
324.237
324.221
324.221
324.242
324.261
324.241
324.186
324.097
323.99
323.88
323.793
286.252
285.468
284.604
283.827
283.118
282.444
281.764
280.998
280.301
279.677
279.09
278.536
277.967
277.432
276.948
276.504
276.094
275.717
275.369
275.053
274.782
274.536
274.303
274.126
273.998
273.844
273.708
273.688
273.674
273.639
273.66
273.747
273.832
273.908
274.034
274.21
274.334
274.415
274.502
274.592
274.667
274.729
274.732
274.715
274.694
274.666
274.63
274.592
274.56
274.531
274.505
274.482
274.469
274.472
274.487
274.516
274.562
274.623
274.703
274.801
274.922
275.068
275.242
275.447
275.685
275.958
276.266
276.61
276.992
277.412
277.869
278.36
278.888
279.452
280.048
280.669
281.324
282.017
282.734
283.486
284.286
285.09
285.938
286.872
287.769
288.729
289.822
290.897
291.999
293.242
294.436
295.57
296.85
298.163
299.429
300.775
302.179
303.561
304.908
306.171
307.254
308.244
309.141
309.912
310.569
311.087
311.364
311.37
311.106
310.249
308.608
306.104
302.643
298.133
292.49
285.626
277.437
267.852
256.918
244.9
232.124
219.092
206.502
195.18
185.944
179.199
173.695
168.659
164.102
160.173
156.956
154.445
152.511
150.926
149.562
148.417
147.505
146.813
146.297
145.9
145.583
145.329
145.133
144.987
144.88
144.799
144.737
144.691
144.659
144.638
144.627
144.621
144.621
144.622
144.626
144.632
144.64
144.649
144.66
144.671
144.683
144.696
144.71
144.725
144.741
144.758
144.777
144.796
144.816
144.838
144.86
144.884
144.908
144.933
144.959
144.986
145.014
145.044
145.075
145.107
145.142
145.179
145.218
145.26
145.306
145.354
145.406
145.461
145.52
145.583
145.648
145.726
145.687
326.767
326.723
326.642
326.526
326.399
326.28
326.193
326.128
326.065
325.984
325.882
325.763
325.635
291.256
290.447
289.591
288.812
288.09
287.383
286.724
285.928
285.192
284.54
283.924
283.33
282.75
282.189
281.673
281.199
280.761
280.353
279.973
279.626
279.324
279.043
278.781
278.573
278.425
278.236
278.045
277.951
277.894
277.778
277.717
277.734
277.72
277.694
277.718
277.784
277.793
277.755
277.745
277.74
277.721
277.686
277.613
277.524
277.425
277.319
277.201
277.081
276.965
276.851
276.739
276.631
276.532
276.446
276.373
276.314
276.27
276.243
276.242
276.256
276.293
276.359
276.457
276.588
276.757
276.964
277.211
277.499
277.831
278.206
278.624
279.084
279.587
280.13
280.708
281.321
281.976
282.664
283.378
284.144
284.942
285.743
286.616
287.528
288.429
289.437
290.497
291.495
292.614
293.84
294.938
296.101
297.39
298.658
299.974
301.365
302.698
303.991
305.272
306.479
307.638
308.806
309.982
311.142
312.254
313.271
314.136
314.793
315.265
315.502
315.525
315.443
315.198
314.759
314.081
313.086
311.66
309.681
307.013
303.501
299.065
293.686
287.313
279.845
271.168
261.207
250.067
237.915
225.05
212.036
199.719
189.116
181.084
174.964
169.516
164.607
160.396
156.983
154.352
152.354
150.734
149.368
148.253
147.395
146.768
146.312
145.968
145.704
145.506
145.367
145.275
145.219
145.188
145.176
145.176
145.185
145.204
145.229
145.261
145.297
145.336
145.379
145.426
145.475
145.528
145.585
145.646
145.712
145.782
145.856
145.934
146.015
146.099
146.185
146.275
146.368
146.465
146.566
146.672
146.783
146.9
147.024
147.156
147.297
147.449
147.611
147.787
147.976
148.18
148.4
148.634
148.925
148.84
328.648
328.554
328.441
328.31
328.165
328.018
327.885
327.78
327.704
327.64
327.576
327.503
327.421
294.632
293.856
293.125
292.395
291.739
290.955
290.2
289.533
288.903
288.285
287.684
287.108
286.569
286.07
285.606
285.169
284.76
284.383
284.045
283.721
283.429
283.172
282.984
282.765
282.531
282.369
282.254
282.058
281.926
281.862
281.743
281.626
281.536
281.494
281.419
281.282
281.169
281.058
280.943
280.811
280.657
280.489
280.31
280.119
279.92
279.718
279.517
279.317
279.119
278.927
278.743
278.569
278.408
278.262
278.131
278.018
277.926
277.855
277.808
277.802
277.819
277.871
277.964
278.098
278.276
278.499
278.771
279.09
279.457
279.873
280.336
280.845
281.394
281.988
282.626
283.296
284.004
284.764
285.537
286.344
287.215
288.078
288.988
290.008
290.973
291.948
293.076
294.171
295.218
296.408
297.642
298.854
300.147
301.433
302.647
303.882
305.103
306.282
307.46
308.647
309.813
310.938
312.004
312.969
313.781
314.435
314.965
315.419
315.855
316.255
316.557
316.711
316.744
316.706
316.52
316.14
315.597
314.926
314.143
313.234
312.157
310.841
309.187
307.07
304.33
300.796
296.303
290.66
283.646
275.134
265.035
253.414
240.543
226.827
212.951
199.88
188.727
180.392
174.032
168.434
163.509
159.415
156.217
153.837
152.051
150.615
149.455
148.571
147.949
147.542
147.289
147.138
147.059
147.04
147.056
147.106
147.186
147.288
147.407
147.54
147.686
147.843
148.013
148.197
148.395
148.608
148.838
149.085
149.348
149.627
149.917
150.216
150.523
150.838
151.162
151.495
151.838
152.192
152.558
152.94
153.341
153.765
154.216
154.7
155.219
155.781
156.386
157.043
157.737
158.648
158.577
330.192
330.106
330.02
329.927
329.826
329.723
329.628
329.55
329.49
329.441
329.394
329.344
299.598
298.834
298.101
297.371
296.681
295.937
295.197
294.525
293.887
293.26
292.646
292.055
291.497
290.976
290.487
290.025
289.59
289.183
288.805
288.445
288.117
287.813
287.569
287.301
287.036
286.821
286.619
286.376
286.176
286.024
285.81
285.613
285.43
285.28
285.103
284.893
284.683
284.475
284.268
284.045
283.805
283.555
283.294
283.021
282.741
282.459
282.175
281.892
281.612
281.337
281.07
280.813
280.568
280.337
280.122
279.924
279.746
279.591
279.462
279.365
279.299
279.283
279.298
279.353
279.454
279.604
279.805
280.057
280.362
280.719
281.129
281.588
282.095
282.652
283.254
283.892
284.578
285.301
286.043
286.841
287.666
288.49
289.393
290.337
291.25
292.251
293.295
294.263
295.327
296.525
297.664
298.802
300.001
301.174
302.348
303.532
304.672
305.806
306.96
308.092
309.162
310.162
311.086
311.931
312.695
313.383
314.01
314.584
315.078
315.478
315.753
315.875
315.893
315.864
315.72
315.476
315.221
315.043
314.928
314.826
314.719
314.597
314.445
314.238
313.957
313.572
313.043
312.3
311.263
309.82
307.835
305.144
301.567
296.939
291.093
283.811
274.819
263.872
251.203
237.294
222.731
208.414
195.503
185.14
177.772
171.915
166.859
162.658
159.399
157.048
155.465
154.428
153.736
153.31
153.125
153.12
153.221
153.439
153.743
154.109
154.52
154.968
155.45
155.966
156.52
157.117
157.761
158.458
159.21
160.014
160.861
161.734
162.623
163.525
164.444
165.381
166.336
167.311
168.307
169.328
170.379
171.462
172.584
173.75
174.967
176.26
177.615
179.119
180.666
182.608
183.516
332.035
331.96
331.894
331.831
331.766
331.696
331.625
331.559
331.502
331.457
304.418
303.668
302.941
302.218
301.509
300.797
300.086
299.413
298.77
298.14
297.523
296.924
296.352
295.811
295.3
294.815
294.355
293.92
293.505
293.111
292.739
292.402
292.09
291.775
291.47
291.203
290.925
290.637
290.378
290.13
289.851
289.574
289.319
289.068
288.796
288.51
288.217
287.924
287.627
287.317
286.997
286.666
286.324
285.973
285.615
285.255
284.893
284.532
284.173
283.82
283.474
283.137
282.812
282.501
282.204
281.925
281.665
281.428
281.217
281.035
280.888
280.781
280.713
280.701
280.723
280.79
280.911
281.085
281.315
281.6
281.941
282.335
282.781
283.281
283.824
284.412
285.047
285.707
286.401
287.147
287.907
288.702
289.562
290.424
291.32
292.286
293.227
294.186
295.27
296.369
297.385
298.457
299.566
300.649
301.741
302.811
303.855
304.916
305.971
306.977
307.926
308.807
309.615
310.36
311.064
311.736
312.363
312.911
313.339
313.63
313.802
313.876
313.881
313.857
313.787
313.693
313.618
313.553
313.468
313.36
313.217
313.05
312.86
312.648
312.425
312.215
312.055
312.009
312.082
312.204
312.275
312.264
312.139
311.802
311.16
310.085
308.422
306.041
302.81
298.573
293.169
286.423
278.134
268.108
256.248
242.863
228.797
214.947
202.299
191.813
184.14
179.17
175.642
173.056
171.343
170.414
170.11
170.197
170.601
171.286
172.156
173.156
174.252
175.427
176.679
178.005
179.41
180.904
182.506
184.242
186.142
188.132
190.131
192.112
194.069
195.988
197.859
199.663
201.391
203.039
204.595
206.089
207.49
208.875
210.169
211.483
212.687
213.872
214.919
216.11
215.923
333.965
333.908
333.858
333.813
333.767
333.721
333.674
333.63
333.592
308.317
307.601
306.893
306.189
305.49
304.799
304.13
303.484
302.853
302.236
301.635
301.056
300.501
299.97
299.464
298.98
298.517
298.071
297.641
297.235
296.857
296.489
296.126
295.784
295.453
295.116
294.782
294.463
294.135
293.793
293.456
293.126
292.787
292.436
292.076
291.708
291.336
290.957
290.568
290.17
289.761
289.343
288.918
288.486
288.052
287.616
287.181
286.748
286.321
285.9
285.489
285.088
284.7
284.327
283.97
283.631
283.315
283.023
282.76
282.529
282.336
282.184
282.076
282.015
282.014
282.046
282.133
282.275
282.475
282.731
283.043
283.409
283.828
284.291
284.801
285.35
285.93
286.56
287.234
287.935
288.692
289.491
290.305
291.166
292.04
292.907
293.845
294.833
295.776
296.742
297.74
298.707
299.671
300.648
301.597
302.543
303.49
304.39
305.237
306.037
306.777
307.468
308.135
308.783
309.393
309.935
310.374
310.683
310.866
310.96
310.983
310.975
310.951
310.907
310.845
310.754
310.612
310.424
310.211
309.948
309.66
309.385
309.162
308.987
308.907
308.924
309.022
309.115
309.168
309.169
309.11
308.936
308.656
308.273
307.822
307.421
307.229
307.051
306.727
306.152
305.194
303.671
301.38
298.115
293.765
288.295
281.653
273.783
264.657
254.451
243.826
233.591
224.483
217.078
211.655
208.096
206.118
205.321
205.329
205.88
206.92
208.174
209.487
210.783
212.038
213.257
214.45
215.61
216.701
217.688
218.561
219.317
219.976
220.55
221.076
221.552
222.01
222.431
222.852
223.254
223.657
224.042
224.386
224.716
224.903
225.081
225.075
225.125
225.149
224.861
336.079
336.032
312.756
312.05
311.357
310.668
309.981
309.301
308.636
307.988
307.356
306.739
306.138
305.554
304.988
304.443
303.918
303.413
302.924
302.449
301.989
301.549
301.128
300.713
300.309
299.92
299.534
299.145
298.763
298.383
297.991
297.593
297.196
296.795
296.385
295.964
295.534
295.096
294.651
294.197
293.735
293.263
292.782
292.292
291.796
291.294
290.789
290.283
289.778
289.276
288.778
288.287
287.804
287.331
286.871
286.424
285.992
285.577
285.183
284.813
284.469
284.156
283.878
283.638
283.441
283.29
283.185
283.135
283.14
283.185
283.286
283.443
283.655
283.922
284.237
284.595
285.003
285.456
285.956
286.52
287.125
287.765
288.449
289.153
289.883
290.647
291.42
292.221
293.066
293.916
294.76
295.626
296.483
297.322
298.175
299.013
299.826
300.65
301.444
302.17
302.861
303.518
304.122
304.693
305.262
305.812
306.304
306.709
307.01
307.198
307.285
307.296
307.28
307.24
307.178
307.095
306.975
306.793
306.537
306.238
305.91
305.548
305.202
304.882
304.606
304.398
304.261
304.169
304.082
303.964
303.803
303.603
303.369
303.112
302.866
302.673
302.58
302.564
302.478
302.237
301.843
301.287
300.552
299.622
298.563
297.541
296.651
295.531
293.961
291.78
288.837
285.054
280.375
274.764
268.413
261.606
254.691
248.087
242.221
237.331
233.461
230.588
228.567
227.21
226.383
225.919
225.776
225.814
225.966
226.137
226.278
226.399
226.518
226.647
226.8
226.969
227.143
227.305
227.438
227.55
227.629
227.699
227.712
227.718
227.685
227.648
227.565
227.508
227.43
227.403
227.406
227.362
316.962
316.264
315.581
314.904
314.229
313.558
312.897
312.249
311.617
310.999
310.395
309.807
309.235
308.678
308.137
307.612
307.1
306.599
306.111
305.638
305.177
304.722
304.278
303.842
303.406
302.971
302.538
302.101
301.655
301.203
300.747
300.283
299.808
299.323
298.829
298.325
297.811
297.289
296.757
296.216
295.666
295.108
294.543
293.975
293.403
292.83
292.258
291.688
291.123
290.564
290.012
289.47
288.939
288.42
287.916
287.427
286.957
286.509
286.085
285.69
285.327
285
284.711
284.465
284.264
284.114
284.01
283.96
283.965
284.009
284.107
284.254
284.45
284.699
285.006
285.374
285.797
286.261
286.757
287.295
287.868
288.459
289.079
289.727
290.394
291.09
291.804
292.519
293.246
293.982
294.704
295.426
296.146
296.827
297.503
298.188
298.811
299.373
299.922
300.442
300.906
301.349
301.796
302.211
302.546
302.799
302.973
303.047
303.041
302.996
302.916
302.81
302.677
302.51
302.291
302.01
301.671
301.293
300.895
300.492
300.104
299.743
299.417
299.128
298.861
298.596
298.314
298.013
297.699
297.384
297.082
296.81
296.582
296.399
296.232
296.02
295.707
295.298
294.829
294.337
293.861
293.446
293.121
292.812
292.279
291.512
290.577
289.487
288.383
287.308
285.929
284.094
281.712
278.712
275.05
270.717
265.766
260.348
254.74
249.298
244.367
240.196
236.88
234.36
232.499
231.148
230.185
229.511
229.064
228.798
228.65
228.585
228.553
228.534
228.509
228.489
228.469
228.461
228.453
228.448
228.435
228.416
228.386
228.355
228.315
228.289
228.269
228.274
228.289
228.272
320.905
320.212
319.535
318.866
318.2
317.538
316.882
316.237
315.604
314.983
314.378
313.786
313.207
312.64
312.085
311.542
311.009
310.484
309.97
309.466
308.969
308.479
307.994
307.514
307.033
306.553
306.07
305.581
305.084
304.579
304.066
303.544
303.009
302.464
301.908
301.34
300.762
300.174
299.576
298.969
298.353
297.729
297.1
296.466
295.829
295.191
294.554
293.919
293.288
292.662
292.043
291.433
290.832
290.242
289.665
289.103
288.558
288.032
287.529
287.052
286.604
286.188
285.807
285.466
285.166
284.911
284.699
284.538
284.421
284.347
284.342
284.372
284.457
284.61
284.82
285.075
285.374
285.709
286.078
286.488
286.928
287.393
287.888
288.409
288.953
289.519
290.097
290.685
291.282
291.876
292.465
293.062
293.631
294.163
294.707
295.242
295.7
296.12
296.543
296.927
297.249
297.561
297.876
298.14
298.323
298.453
298.521
298.513
298.449
298.329