/*--------------------------------*- C++ -*----------------------------------*\
| =========                 |                                                 |
| \\      /  F ield         | OpenFOAM: The Open Source CFD Toolbox           |
|  \\    /   O peration     | Version:  v1706                                 |
|   \\  /    A nd           | Web:      www.OpenFOAM.com                      |
|    \\/     M anipulation  |                                                 |
\*---------------------------------------------------------------------------*/
FoamFile
{
    version     2.0;
    format      ascii;
    class       volScalarField;
    location    "1.4e-05";
    object      kappatr;
}
// * * * * * * * * * * * * * * * * * * * * * * * * * * * * * * * * * * * * * //

dimensions      [1 1 -3 -1 0 0 0];


internalField   nonuniform List<scalar> 
30038
(
0.014593
0.014593
0.014593
0.014593
0.014593
0.014593
0.014593
0.014593
0.014593
0.014593
0.014593
0.014593
0.014593
0.014593
0.014593
0.014593
0.014593
0.014593
0.014593
0.014593
0.014593
0.014593
0.014593
0.014593
0.014593
0.014593
0.014593
0.014593
0.014593
0.014593
0.014593
0.014593
0.014593
0.014593
0.014593
0.014593
0.014593
0.014593
0.014593
0.014593
0.014593
0.014593
0.014593
0.014593
0.014593
0.014593
0.014593
0.014593
0.014593
0.014593
0.014593
0.014593
0.014593
0.014593
0.014593
0.014593
0.014593
0.014593
0.014593
0.014593
0.014593
0.014593
0.014593
0.014593
0.014593
0.014593
0.014593
0.014593
0.014593
0.014593
0.014593
0.014593
0.014593
0.014593
0.014593
0.014593
0.014593
0.014593
0.014593
0.014593
0.014593
0.014593
0.014593
0.014593
0.014593
0.014593
0.014593
0.014593
0.014593
0.014593
0.014593
0.014593
0.014593
0.014593
0.014593
0.014593
0.014593
0.014593
0.014593
0.014593
0.014593
0.014593
0.014593
0.014593
0.014593
0.014593
0.014593
0.014593
0.014593
0.014593
0.014593
0.014593
0.014593
0.014593
0.014593
0.014593
0.014593
0.014593
0.014593
0.014593
0.014593
0.014593
0.014593
0.014593
0.014593
0.014593
0.014593
0.014593
0.014593
0.014593
0.014593
0.014593
0.014593
0.014593
0.014593
0.014593
0.014593
0.014593
0.014593
0.014593
0.014593
0.014593
0.014593
0.014593
0.014593
0.014593
0.014593
0.014593
0.014593
0.014593
0.014593
0.014593
0.014593
0.014593
0.014593
0.014593
0.014593
0.014593
0.014593
0.014593
0.014593
0.014593
0.014593
0.014593
0.014593
0.014593
0.014593
0.014593
0.014593
0.014593
0.014593
0.014593
0.014593
0.014593
0.014593
0.014593
0.014593
0.014593
0.014593
0.014593
0.014593
0.014593
0.014593
0.014593
0.014593
0.014593
0.014593
0.014593
0.014593
0.014593
0.014593
0.014593
0.014593
0.014593
0.014593
0.014593
0.014593
0.014593
0.014593
0.014593
0.014593
0.014593
0.014593
0.014593
0.014593
0.014593
0.014593
0.014593
0.014593
0.014593
0.014593
0.014593
0.014593
0.014593
0.014593
0.014593
0.014593
0.014593
0.014593
0.014593
0.014593
0.014593
0.014593
0.014593
0.014593
0.014593
0.014593
0.014593
0.014593
0.014593
0.014593
0.014593
0.014593
0.014593
0.014593
0.014593
0.014593
0.014593
0.014593
0.014593
0.014593
0.014593
0.014593
0.014593
0.014593
0.014593
0.014593
0.014593
0.014593
0.014593
0.014593
0.014593
0.014593
0.014593
0.014593
0.014593
0.014593
0.014593
0.014593
0.014593
0.014593
0.014593
0.014593
0.014593
0.014593
0.014593
0.014593
0.014593
0.014593
0.014593
0.014593
0.014593
0.014593
0.014593
0.014593
0.014593
0.014593
0.014593
0.014593
0.014593
0.014593
0.014593
0.014593
0.014593
0.014593
0.014593
0.014593
0.014593
0.014593
0.014593
0.014593
0.014593
0.014593
0.014593
0.014593
0.014593
0.014593
0.014593
0.014593
0.014593
0.014593
0.014593
0.014593
0.014593
0.014593
0.014593
0.014593
0.014593
0.014593
0.014593
0.014593
0.014593
0.014593
0.014593
0.014593
0.014593
0.014593
0.014593
0.014593
0.014593
0.014593
0.014593
0.014593
0.014593
0.014593
0.014593
0.014593
0.014593
0.014593
0.014593
0.014593
0.014593
0.014593
0.014593
0.014593
0.014593
0.014593
0.014593
0.014593
0.014593
0.014593
0.014593
0.014593
0.014593
0.014593
0.014593
0.014593
0.014593
0.014593
0.014593
0.014593
0.014593
0.014593
0.014593
0.014593
0.014593
0.014593
0.014593
0.014593
0.014593
0.014593
0.014593
0.014593
0.014593
0.014593
0.014593
0.014593
0.014593
0.014593
0.014593
0.014593
0.014593
0.014593
0.014593
0.014593
0.014593
0.014593
0.014593
0.014593
0.014593
0.014593
0.014593
0.014593
0.014593
0.014593
0.014593
0.014593
0.014593
0.014593
0.014593
0.014593
0.014593
0.014593
0.014593
0.014593
0.014593
0.014593
0.014593
0.014593
0.014593
0.014593
0.014593
0.014593
0.014593
0.014593
0.014593
0.014593
0.014593
0.014593
0.014593
0.014593
0.014593
0.014593
0.014593
0.014593
0.014593
0.014593
0.014593
0.014593
0.014593
0.014593
0.014593
0.014593
0.014593
0.014593
0.014593
0.014593
0.014593
0.014593
0.014593
0.014593
0.014593
0.014593
0.014593
0.014593
0.014593
0.014593
0.014593
0.014593
0.014593
0.014593
0.014593
0.014593
0.014593
0.014593
0.014593
0.014593
0.014593
0.014593
0.014593
0.014593
0.014593
0.014593
0.014593
0.014593
0.014593
0.014593
0.014593
0.014593
0.014593
0.014593
0.014593
0.014593
0.014593
0.014593
0.014593
0.014593
0.014593
0.014593
0.014593
0.014593
0.014593
0.014593
0.014593
0.014593
0.014593
0.014593
0.014593
0.014593
0.014593
0.014593
0.014593
0.014593
0.014593
0.014593
0.014593
0.014593
0.014593
0.014593
0.014593
0.014593
0.014593
0.014593
0.014593
0.014593
0.014593
0.014593
0.014593
0.014593
0.014593
0.014593
0.014593
0.014593
0.014593
0.014593
0.014593
0.014593
0.014593
0.014593
0.014593
0.014593
0.014593
0.014593
0.014593
0.014593
0.014593
0.014593
0.014593
0.014593
0.014593
0.014593
0.014593
0.014593
0.014593
0.014593
0.014593
0.014593
0.014593
0.014593
0.014593
0.014593
0.014593
0.014593
0.014593
0.014593
0.014593
0.014593
0.014593
0.014593
0.014593
0.014593
0.014593
0.014593
0.014593
0.014593
0.014593
0.014593
0.014593
0.014593
0.014593
0.014593
0.014593
0.014593
0.014593
0.014593
0.014593
0.014593
0.014593
0.014593
0.014593
0.014593
0.014593
0.014593
0.014593
0.014593
0.014593
0.014593
0.014593
0.014593
0.014593
0.014593
0.014593
0.014593
0.014593
0.014593
0.014593
0.014593
0.014593
0.014593
0.014593
0.014593
0.014593
0.014593
0.014593
0.014593
0.014593
0.014593
0.014593
0.014593
0.014593
0.014593
0.014593
0.014593
0.014593
0.014593
0.014593
0.014593
0.014593
0.014593
0.014593
0.014593
0.014593
0.014593
0.014593
0.014593
0.014593
0.014593
0.014593
0.014593
0.014593
0.014593
0.014593
0.014593
0.014593
0.014593
0.014593
0.014593
0.014593
0.014593
0.014593
0.014593
0.014593
0.014593
0.014593
0.014593
0.014593
0.014593
0.014593
0.014593
0.014593
0.014593
0.014593
0.014593
0.014593
0.014593
0.014593
0.014593
0.014593
0.014593
0.014593
0.014593
0.014593
0.014593
0.014593
0.014593
0.014593
0.014593
0.014593
0.014593
0.014593
0.014593
0.014593
0.014593
0.014593
0.014593
0.014593
0.014593
0.014593
0.014593
0.014593
0.014593
0.014593
0.014593
0.014593
0.014593
0.014593
0.014593
0.014593
0.014593
0.014593
0.014593
0.014593
0.014593
0.014593
0.014593
0.014593
0.014593
0.014593
0.014593
0.014593
0.014593
0.014593
0.014593
0.014593
0.014593
0.014593
0.014593
0.014593
0.014593
0.014593
0.014593
0.014593
0.014593
0.014593
0.014593
0.014593
0.014593
0.014593
0.014593
0.014593
0.014593
0.014593
0.014593
0.014593
0.014593
0.014593
0.014593
0.014593
0.014593
0.014593
0.014593
0.014593
0.014593
0.014593
0.014593
0.014593
0.014593
0.014593
0.014593
0.014593
0.014593
0.014593
0.014593
0.014593
0.014593
0.014593
0.014593
0.014593
0.014593
0.014593
0.014593
0.014593
0.014593
0.014593
0.014593
0.014593
0.014593
0.014593
0.014593
0.014593
0.014593
0.014593
0.014593
0.014593
0.014593
0.014593
0.014593
0.014593
0.014593
0.014593
0.014593
0.014593
0.014593
0.014593
0.014593
0.014593
0.014593
0.014593
0.014593
0.014593
0.014593
0.014593
0.014593
0.014593
0.014593
0.014593
0.014593
0.014593
0.014593
0.014593
0.014593
0.014593
0.014593
0.014593
0.014593
0.014593
0.014593
0.014593
0.014593
0.014593
0.014593
0.014593
0.014593
0.014593
0.014593
0.014593
0.014593
0.014593
0.014593
0.014593
0.014593
0.014593
0.014593
0.014593
0.014593
0.014593
0.014593
0.014593
0.014593
0.014593
0.014593
0.014593
0.014593
0.014593
0.014593
0.014593
0.014593
0.014593
0.014593
0.014593
0.014593
0.014593
0.014593
0.014593
0.014593
0.014593
0.014593
0.014593
0.014593
0.014593
0.014593
0.014593
0.014593
0.014593
0.014593
0.014593
0.014593
0.014593
0.014593
0.014593
0.014593
0.014593
0.014593
0.014593
0.014593
0.014593
0.014593
0.014593
0.014593
0.014593
0.014593
0.014593
0.014593
0.014593
0.014593
0.014593
0.014593
0.014593
0.014593
0.014593
0.014593
0.014593
0.014593
0.014593
0.014593
0.014593
0.014593
0.014593
0.014593
0.014593
0.014593
0.014593
0.014593
0.014593
0.014593
0.014593
0.014593
0.014593
0.014593
0.014593
0.014593
0.014593
0.014593
0.014593
0.014593
0.014593
0.014593
0.014593
0.014593
0.014593
0.014593
0.014593
0.014593
0.014593
0.014593
0.014593
0.014593
0.014593
0.014593
0.014593
0.014593
0.014593
0.014593
0.014593
0.014593
0.014593
0.014593
0.014593
0.014593
0.014593
0.014593
0.014593
0.014593
0.014593
0.014593
0.014593
0.014593
0.014593
0.014593
0.014593
0.014593
0.014593
0.014593
0.014593
0.014593
0.014593
0.014593
0.014593
0.014593
0.014593
0.014593
0.014593
0.014593
0.014593
0.014593
0.014593
0.014593
0.014593
0.014593
0.014593
0.014593
0.014593
0.014593
0.014593
0.014593
0.014593
0.014593
0.014593
0.014593
0.014593
0.014593
0.014593
0.014593
0.014593
0.014593
0.014593
0.014593
0.014593
0.014593
0.014593
0.014593
0.014593
0.014593
0.014593
0.014593
0.014593
0.014593
0.014593
0.014593
0.014593
0.014593
0.014593
0.014593
0.014593
0.014593
0.014593
0.014593
0.014593
0.014593
0.014593
0.014593
0.014593
0.014593
0.014593
0.014593
0.014593
0.014593
0.014593
0.014593
0.014593
0.014593
0.014593
0.014593
0.014593
0.014593
0.014593
0.014593
0.014593
0.014593
0.014593
0.014593
0.014593
0.014593
0.014593
0.014593
0.014593
0.014593
0.014593
0.014593
0.014593
0.014593
0.014593
0.014593
0.014593
0.014593
0.014593
0.014593
0.014593
0.014593
0.014593
0.014593
0.014593
0.014593
0.014593
0.014593
0.014593
0.014593
0.014593
0.014593
0.014593
0.014593
0.014593
0.014593
0.014593
0.014593
0.014593
0.014593
0.014593
0.014593
0.014593
0.014593
0.014593
0.014593
0.014593
0.014593
0.014593
0.014593
0.014593
0.014593
0.014593
0.014593
0.014593
0.014593
0.014593
0.014593
0.014593
0.014593
0.014593
0.014593
0.014593
0.014593
0.014593
0.014593
0.014593
0.014593
0.014593
0.014593
0.014593
0.014593
0.014593
0.014593
0.014593
0.014593
0.014593
0.014593
0.014593
0.014593
0.014593
0.014593
0.014593
0.014593
0.014593
0.014593
0.014593
0.014593
0.014593
0.014593
0.014593
0.014593
0.014593
0.014593
0.014593
0.014593
0.014593
0.014593
0.014593
0.014593
0.014593
0.014593
0.014593
0.014593
0.014593
0.014593
0.014593
0.014593
0.014593
0.014593
0.014593
0.014593
0.014593
0.014593
0.014593
0.014593
0.014593
0.014593
0.014593
0.014593
0.014593
0.014593
0.014593
0.014593
0.014593
0.014593
0.014593
0.014593
0.014593
0.014593
0.014593
0.014593
0.014593
0.014593
0.014593
0.014593
0.014593
0.014593
0.014593
0.014593
0.014593
0.014593
0.014593
0.014593
0.014593
0.014593
0.014593
0.014593
0.014593
0.014593
0.014593
0.014593
0.014593
0.014593
0.014593
0.014593
0.014593
0.014593
0.014593
0.014593
0.014593
0.014593
0.014593
0.014593
0.014593
0.014593
0.014593
0.014593
0.014593
0.014593
0.014593
0.014593
0.014593
0.014593
0.014593
0.014593
0.014593
0.014593
0.014593
0.014593
0.014593
0.014593
0.014593
0.014593
0.014593
0.014593
0.014593
0.014593
0.014593
0.014593
0.014593
0.014593
0.014593
0.014593
0.014593
0.014593
0.014593
0.014593
0.014593
0.014593
0.014593
0.014593
0.014593
0.014593
0.014593
0.014593
0.014593
0.014593
0.014593
0.014593
0.014593
0.014593
0.014593
0.014593
0.014593
0.014593
0.014593
0.014593
0.014593
0.014593
0.014593
0.014593
0.014593
0.014593
0.014593
0.014593
0.014593
0.014593
0.014593
0.014593
0.014593
0.014593
0.014593
0.014593
0.014593
0.014593
0.014593
0.014593
0.014593
0.014593
0.014593
0.014593
0.014593
0.014593
0.014593
0.014593
0.014593
0.014593
0.014593
0.014593
0.014593
0.014593
0.014593
0.014593
0.014593
0.014593
0.014593
0.014593
0.014593
0.014593
0.014593
0.014593
0.014593
0.014593
0.014593
0.014593
0.014593
0.014593
0.014593
0.014593
0.014593
0.014593
0.014593
0.014593
0.014593
0.014593
0.014593
0.014593
0.014593
0.014593
0.014593
0.014593
0.014593
0.014593
0.014593
0.014593
0.014593
0.014593
0.014593
0.014593
0.014593
0.014593
0.014593
0.014593
0.014593
0.014593
0.014593
0.014593
0.014593
0.014593
0.014593
0.014593
0.014593
0.014593
0.014593
0.014593
0.014593
0.014593
0.014593
0.014593
0.014593
0.014593
0.014593
0.014593
0.014593
0.014593
0.014593
0.014593
0.014593
0.014593
0.014593
0.014593
0.014593
0.014593
0.014593
0.014593
0.014593
0.014593
0.014593
0.014593
0.014593
0.014593
0.014593
0.014593
0.014593
0.014593
0.014593
0.014593
0.014593
0.014593
0.014593
0.014593
0.014593
0.014593
0.014593
0.014593
0.014593
0.014593
0.014593
0.014593
0.014593
0.014593
0.014593
0.014593
0.0145931
0.014593
0.014593
0.014593
0.014593
0.014593
0.014593
0.014593
0.014593
0.014593
0.014593
0.014593
0.014593
0.014593
0.014593
0.014593
0.014593
0.014593
0.014593
0.014593
0.014593
0.014593
0.014593
0.014593
0.014593
0.014593
0.014593
0.014593
0.014593
0.014593
0.014593
0.014593
0.014593
0.014593
0.014593
0.014593
0.014593
0.014593
0.014593
0.014593
0.014593
0.014593
0.014593
0.014593
0.014593
0.014593
0.014593
0.0145931
0.0145931
0.0145932
0.0145934
0.014593
0.014593
0.014593
0.014593
0.014593
0.014593
0.014593
0.014593
0.014593
0.014593
0.014593
0.014593
0.014593
0.014593
0.014593
0.014593
0.014593
0.014593
0.014593
0.014593
0.014593
0.014593
0.014593
0.014593
0.014593
0.014593
0.014593
0.014593
0.014593
0.014593
0.014593
0.014593
0.014593
0.014593
0.014593
0.014593
0.014593
0.014593
0.014593
0.014593
0.014593
0.014593
0.014593
0.0145931
0.0145931
0.0145932
0.0145934
0.0145937
0.0145943
0.0145953
0.014593
0.014593
0.014593
0.014593
0.014593
0.014593
0.014593
0.014593
0.014593
0.014593
0.014593
0.014593
0.014593
0.014593
0.014593
0.014593
0.014593
0.014593
0.014593
0.014593
0.014593
0.014593
0.014593
0.014593
0.014593
0.014593
0.014593
0.014593
0.014593
0.014593
0.014593
0.014593
0.014593
0.014593
0.014593
0.014593
0.014593
0.014593
0.014593
0.014593
0.0145931
0.0145931
0.0145932
0.0145934
0.0145937
0.0145942
0.0145951
0.0145967
0.0145997
0.0146054
0.014593
0.014593
0.014593
0.014593
0.014593
0.014593
0.014593
0.014593
0.014593
0.014593
0.014593
0.014593
0.014593
0.014593
0.014593
0.014593
0.014593
0.014593
0.014593
0.014593
0.014593
0.014593
0.014593
0.014593
0.014593
0.014593
0.014593
0.014593
0.014593
0.014593
0.014593
0.014593
0.014593
0.014593
0.014593
0.014593
0.0145931
0.0145931
0.0145931
0.0145932
0.0145934
0.0145937
0.0145942
0.0145951
0.0145966
0.0145994
0.0146042
0.0146127
0.0146281
0.0146573
0.014593
0.014593
0.014593
0.014593
0.014593
0.014593
0.014593
0.014593
0.014593
0.014593
0.014593
0.014593
0.014593
0.014593
0.014593
0.014593
0.014593
0.014593
0.014593
0.014593
0.014593
0.014593
0.014593
0.014593
0.014593
0.014593
0.014593
0.014593
0.014593
0.014593
0.014593
0.014593
0.014593
0.0145931
0.0145931
0.0145932
0.0145933
0.0145934
0.0145937
0.0145942
0.0145951
0.0145967
0.0145993
0.0146039
0.014612
0.0146261
0.0146508
0.0146944
0.0147721
0.0149158
0.014593
0.014593
0.014593
0.014593
0.014593
0.014593
0.014593
0.014593
0.014593
0.014593
0.014593
0.014593
0.014593
0.014593
0.014593
0.014593
0.014593
0.014593
0.014593
0.014593
0.014593
0.014593
0.014593
0.014593
0.014593
0.014593
0.014593
0.014593
0.014593
0.014593
0.0145931
0.0145931
0.0145932
0.0145933
0.0145935
0.0145938
0.0145943
0.0145952
0.0145968
0.0145994
0.014604
0.0146118
0.0146254
0.0146489
0.0146896
0.0147603
0.0148828
0.0150947
0.0154598
0.0160935
0.014593
0.014593
0.014593
0.014593
0.014593
0.014593
0.014593
0.014593
0.014593
0.014593
0.014593
0.014593
0.014593
0.014593
0.014593
0.014593
0.014593
0.014593
0.014593
0.014593
0.014593
0.014593
0.014593
0.014593
0.014593
0.014593
0.014593
0.0145931
0.0145931
0.0145932
0.0145933
0.0145935
0.0145939
0.0145944
0.0145954
0.014597
0.0145997
0.0146044
0.0146122
0.0146256
0.0146486
0.0146878
0.0147551
0.0148702
0.0150662
0.0153973
0.0159474
0.016838
0.0182299
0.0203158
0.014593
0.014593
0.014593
0.014593
0.014593
0.014593
0.014593
0.014593
0.014593
0.014593
0.014593
0.014593
0.014593
0.014593
0.014593
0.014593
0.014593
0.014593
0.014593
0.014593
0.014593
0.014593
0.014593
0.0145931
0.0145931
0.0145931
0.0145932
0.0145934
0.0145936
0.014594
0.0145946
0.0145956
0.0145974
0.0146002
0.0146051
0.0146132
0.0146268
0.0146498
0.0146887
0.0147545
0.0148657
0.0150529
0.0153652
0.0158785
0.0167014
0.017973
0.0198444
0.0224431
0.0258381
0.030015
0.014593
0.014593
0.014593
0.014593
0.014593
0.014593
0.014593
0.014593
0.014593
0.014593
0.014593
0.014593
0.014593
0.014593
0.014593
0.014593
0.014593
0.014593
0.014593
0.014593
0.0145931
0.0145931
0.0145932
0.0145933
0.0145934
0.0145937
0.0145941
0.0145948
0.014596
0.0145979
0.014601
0.0146062
0.0146147
0.014629
0.0146527
0.0146923
0.0147584
0.0148688
0.0150522
0.0153547
0.0158464
0.0166271
0.017825
0.0195801
0.0220126
0.0251847
0.0290795
0.033607
0.0386367
0.0440139
0.014593
0.014593
0.014593
0.014593
0.014593
0.014593
0.014593
0.014593
0.014593
0.014593
0.014593
0.014593
0.014593
0.014593
0.014593
0.014593
0.0145931
0.0145931
0.0145931
0.0145932
0.0145933
0.0145935
0.0145938
0.0145943
0.0145952
0.0145965
0.0145986
0.0146021
0.0146078
0.0146171
0.0146323
0.0146574
0.0146988
0.0147671
0.0148795
0.015064
0.0153645
0.015847
0.0166049
0.0177573
0.0194349
0.0217518
0.0247715
0.0284851
0.0328125
0.037626
0.0427798
0.0481343
0.0535729
0.0589874
0.014593
0.014593
0.014593
0.014593
0.014593
0.014593
0.014593
0.014593
0.014593
0.014593
0.014593
0.014593
0.0145931
0.0145931
0.0145931
0.0145932
0.0145933
0.0145934
0.0145937
0.014594
0.0145946
0.0145956
0.0145972
0.0145996
0.0146036
0.01461
0.0146204
0.0146372
0.0146645
0.0147089
0.0147812
0.0148987
0.0150891
0.015395
0.0158801
0.0166326
0.0177641
0.0193964
0.0216362
0.024545
0.0281188
0.0322884
0.0369383
0.0419326
0.0471362
0.0524278
0.0577053
0.0628808
0.0678746
0.0726298
0.014593
0.014593
0.014593
0.014593
0.014593
0.014593
0.014593
0.014593
0.014593
0.014593
0.0145931
0.0145931
0.0145932
0.0145932
0.0145934
0.0145936
0.0145939
0.0145943
0.0145951
0.0145962
0.0145981
0.014601
0.0146057
0.0146131
0.0146249
0.0146439
0.0146743
0.0147232
0.0148018
0.0149278
0.0151292
0.0154484
0.0159475
0.0167113
0.0178448
0.0194612
0.0216586
0.0244934
0.0279628
0.0320048
0.0365147
0.041368
0.0464391
0.0516136
0.0567927
0.0618907
0.0668264
0.0715296
0.0759433
0.0800044
0.083659
0.014593
0.014593
0.014593
0.014593
0.014593
0.014593
0.0145931
0.0145931
0.0145931
0.0145932
0.0145933
0.0145935
0.0145937
0.0145941
0.0145947
0.0145957
0.0145971
0.0145994
0.014603
0.0146086
0.0146174
0.0146312
0.0146532
0.014688
0.0147432
0.0148307
0.0149692
0.0151875
0.0155286
0.0160539
0.0168456
0.0180032
0.0196312
0.0218181
0.0246129
0.0280107
0.0319537
0.0363456
0.041072
0.0460174
0.0510751
0.0561519
0.0611685
0.066051
0.0707302
0.0751468
0.0792454
0.0829588
0.0862121
0.0889393
0.0911497
0.014593
0.014593
0.014593
0.0145931
0.0145931
0.0145931
0.0145932
0.0145933
0.0145934
0.0145937
0.014594
0.0145945
0.0145953
0.0145965
0.0145984
0.0146013
0.0146057
0.0146126
0.0146233
0.01464
0.014666
0.0147068
0.0147707
0.0148706
0.0150266
0.0152688
0.0156416
0.0162064
0.0170436
0.0182474
0.0199135
0.0221195
0.0249051
0.0282611
0.0321311
0.0364255
0.0410391
0.0458659
0.0508077
0.0557784
0.0607037
0.0655179
0.0701557
0.0745593
0.0786772
0.0824548
0.0858235
0.0887149
0.0910867
0.0929459
0.0943384
0.0953658
0.0145931
0.0145931
0.0145932
0.0145933
0.0145934
0.0145936
0.0145939
0.0145944
0.0145951
0.0145962
0.0145978
0.0146002
0.0146039
0.0146096
0.0146183
0.0146316
0.0146522
0.0146839
0.0147328
0.0148085
0.0149253
0.0151051
0.01538
0.0157962
0.0164159
0.0173178
0.0185905
0.0203202
0.0225727
0.0253769
0.0287172
0.0325373
0.0367529
0.0412671
0.0459834
0.0508122
0.0556746
0.0605016
0.0652336
0.0698117
0.0741803
0.0782906
0.082096
0.0855396
0.088556
0.0910928
0.093131
0.0946965
0.0958506
0.0966752
0.0972485
0.0976524
0.0145934
0.0145936
0.0145939
0.0145944
0.014595
0.014596
0.0145975
0.0145996
0.0146029
0.0146078
0.0146152
0.0146264
0.0146435
0.0146694
0.0147089
0.0147691
0.0148609
0.0150006
0.0152124
0.015531
0.016005
0.0166975
0.0176851
0.0190503
0.0208686
0.0231926
0.0260395
0.0293864
0.0331762
0.0373289
0.0417556
0.0463685
0.051087
0.0558391
0.060562
0.0652007
0.0697037
0.0740188
0.0780992
0.0819029
0.085383
0.0884819
0.0911433
0.0933343
0.0950587
0.0963603
0.0973049
0.0979695
0.098426
0.0987357
0.0989453
0.0990865
0.014595
0.014596
0.0145974
0.0145994
0.0146024
0.0146069
0.0146135
0.0146235
0.0146383
0.0146606
0.0146941
0.0147444
0.0148201
0.014934
0.0151047
0.0153594
0.015736
0.0162854
0.0170716
0.0181684
0.0196504
0.0215811
0.0239989
0.0269085
0.0302797
0.0340541
0.0381562
0.0425045
0.04702
0.0516304
0.056271
0.0608852
0.0654229
0.0698382
0.074084
0.0781159
0.081894
0.0853789
0.0885216
0.0912682
0.0935778
0.0954383
0.0968739
0.0979384
0.0986989
0.0992279
0.0995848
0.0998223
0.0999776
0.10007
0.100127
0.10018
0.0146024
0.0146067
0.014613
0.0146222
0.0146358
0.0146559
0.0146857
0.0147298
0.0147954
0.0148928
0.015037
0.0152498
0.0155619
0.0160146
0.0166613
0.0175657
0.0187969
0.0204202
0.0224851
0.0250151
0.0280025
0.0314103
0.0351796
0.0392394
0.0435155
0.0479376
0.0524414
0.0569697
0.0614716
0.0659016
0.0702189
0.0743816
0.078348
0.0820807
0.0855445
0.0886985
0.0914942
0.0938877
0.0958563
0.0974082
0.098583
0.099438
0.10004
0.100451
0.100723
0.1009
0.101007
0.101061
0.101098
0.101125
0.101116
0.101087
0.0146354
0.0146545
0.0146823
0.014723
0.0147826
0.0148699
0.0149976
0.0151838
0.015454
0.0158426
0.0163945
0.0171645
0.0182146
0.0196069
0.0213946
0.023612
0.0262676
0.0293422
0.0327933
0.0365626
0.040584
0.044791
0.0491214
0.0535189
0.0579331
0.0623188
0.0666353
0.0708457
0.0749134
0.0788001
0.0824704
0.085892
0.0890305
0.0918435
0.094288
0.0963351
0.097981
0.0992512
0.100194
0.100867
0.101333
0.101643
0.101843
0.101967
0.102029
0.102057
0.102076
0.102072
0.102042
0.101989
0.101921
0.101849
0.0147795
0.0148616
0.01498
0.0151506
0.0153951
0.0157432
0.0162332
0.0169128
0.0178367
0.019062
0.0206412
0.0226131
0.024996
0.027784
0.0309486
0.0344437
0.0382127
0.0421954
0.046333
0.050571
0.0548607
0.0591583
0.0634239
0.0676214
0.0717176
0.0756803
0.0794748
0.0830678
0.0864296
0.0895302
0.0923334
0.0947988
0.0968949
0.09861
0.0999582
0.100977
0.101717
0.102234
0.102585
0.10281
0.102948
0.103022
0.103049
0.103056
0.103051
0.103024
0.10297
0.102899
0.102815
0.102728
0.10264
0.102555
0.0157017
0.016155
0.0167778
0.0176189
0.0187298
0.0201597
0.0219481
0.0241178
0.0266716
0.0295913
0.0328414
0.0363747
0.0401382
0.0440779
0.0481426
0.0522855
0.0564648
0.0606426
0.064784
0.0688572
0.0728324
0.076681
0.080372
0.0838747
0.0871614
0.0902054
0.0929753
0.0954351
0.0975532
0.0993125
0.100718
0.101798
0.102596
0.103162
0.103549
0.103799
0.103953
0.10404
0.10407
0.104065
0.104055
0.104029
0.103975
0.1039
0.103813
0.103716
0.103616
0.103517
0.103419
0.103322
0.103228
0.018575
0.019906
0.0215657
0.0235781
0.0259503
0.0286711
0.0317131
0.0350371
0.0385971
0.0423451
0.046234
0.0502198
0.0542629
0.0583277
0.0623815
0.0663943
0.0703378
0.0741854
0.0779118
0.0814896
0.0848904
0.0880885
0.0910596
0.0937769
0.0962084
0.0983234
0.100102
0.101544
0.102669
0.103513
0.10412
0.10454
0.104816
0.104984
0.105079
0.105116
0.105107
0.105087
0.105056
0.105002
0.104924
0.104834
0.10473
0.104621
0.104511
0.104401
0.104292
0.104183
0.104076
0.10397
0.103866
0.0255797
0.0281475
0.031021
0.0341674
0.0375471
0.0411176
0.0448366
0.0486639
0.0525626
0.0564994
0.0604442
0.0643693
0.0682484
0.0720568
0.0757709
0.079368
0.0828237
0.0861123
0.0892099
0.0920944
0.0947423
0.0971253
0.0992149
0.100991
0.102448
0.103601
0.104477
0.105116
0.105563
0.105861
0.106042
0.106144
0.106188
0.106177
0.106147
0.106107
0.106052
0.105972
0.105876
0.105769
0.105651
0.10553
0.10541
0.10529
0.10517
0.105052
0.104934
0.104816
0.104698
0.104582
0.104467
0.0403769
0.0439378
0.0476115
0.0513646
0.0551664
0.0589893
0.062808
0.0665989
0.0703391
0.074007
0.0775817
0.0810428
0.0843686
0.0875356
0.090522
0.0933077
0.0958717
0.0981892
0.100234
0.101987
0.103439
0.104601
0.105495
0.106156
0.106623
0.106936
0.10713
0.107239
0.107284
0.107274
0.107238
0.107186
0.107123
0.107043
0.106942
0.10683
0.106705
0.106575
0.106444
0.106313
0.106183
0.106053
0.105924
0.105796
0.105668
0.10554
0.105412
0.105284
0.105157
0.105031
0.0543301
0.0580244
0.0617251
0.0654109
0.0690616
0.0726575
0.0761794
0.0796088
0.0829276
0.0861163
0.0891534
0.0920193
0.0946954
0.097163
0.0994003
0.101384
0.103094
0.104523
0.105677
0.106574
0.107244
0.107723
0.108047
0.108249
0.108361
0.108406
0.108397
0.108356
0.108292
0.10822
0.108136
0.10803
0.107911
0.107783
0.107644
0.107503
0.107361
0.10722
0.10708
0.10694
0.106801
0.106662
0.106524
0.106386
0.106248
0.10611
0.105972
0.105833
0.105695
0.105558
0.0682424
0.0717469
0.0751927
0.0785632
0.0818418
0.0850125
0.0880573
0.0909571
0.0936939
0.096251
0.0986114
0.100756
0.102663
0.104315
0.105704
0.106834
0.107719
0.108387
0.108868
0.109195
0.1094
0.109513
0.109558
0.109546
0.109501
0.109428
0.109343
0.109251
0.109142
0.109016
0.108881
0.108735
0.108584
0.108433
0.108281
0.10813
0.10798
0.10783
0.107681
0.107533
0.107385
0.107236
0.107088
0.10694
0.106792
0.106644
0.106495
0.106346
0.106197
0.106049
0.0811463
0.0842689
0.0872859
0.0901809
0.0929365
0.0955366
0.0979661
0.10021
0.10225
0.104068
0.105647
0.106981
0.108072
0.108933
0.109586
0.11006
0.110383
0.110586
0.110698
0.110737
0.110721
0.110672
0.11059
0.110492
0.11039
0.110277
0.110143
0.109999
0.109849
0.109689
0.109527
0.109365
0.109204
0.109043
0.108883
0.108724
0.108565
0.108406
0.108248
0.108091
0.107933
0.107775
0.107617
0.107459
0.1073
0.107142
0.106982
0.106823
0.106663
0.106504
0.0924739
0.0950792
0.0975359
0.0998304
0.101949
0.103875
0.105593
0.107088
0.108354
0.109393
0.110216
0.110844
0.111301
0.111612
0.111808
0.111913
0.111944
0.111924
0.111868
0.111775
0.111667
0.111554
0.111432
0.111292
0.11114
0.110983
0.110815
0.110643
0.110472
0.1103
0.110129
0.109958
0.109788
0.109619
0.109451
0.109283
0.109115
0.108948
0.10878
0.108613
0.108446
0.108278
0.10811
0.107942
0.107773
0.107604
0.107434
0.107263
0.107093
0.106923
0.101832
0.103818
0.105622
0.10723
0.10863
0.109817
0.110793
0.111567
0.112159
0.112591
0.112883
0.113065
0.11316
0.11318
0.113153
0.113088
0.112987
0.112868
0.112742
0.112608
0.112464
0.112303
0.112136
0.111963
0.111781
0.111599
0.111418
0.111236
0.111055
0.110875
0.110696
0.110517
0.110339
0.110162
0.109985
0.109808
0.109631
0.109454
0.109278
0.109101
0.108923
0.108746
0.108567
0.108389
0.10821
0.10803
0.10785
0.107669
0.107488
0.107306
0.10897
0.110266
0.111365
0.112267
0.112983
0.113531
0.113928
0.114194
0.114359
0.114439
0.114445
0.114407
0.114332
0.114222
0.114091
0.113953
0.113808
0.113655
0.113486
0.11331
0.11313
0.11294
0.112748
0.112556
0.112365
0.112173
0.111983
0.111793
0.111605
0.111417
0.11123
0.111043
0.110857
0.110671
0.110485
0.110299
0.110113
0.109926
0.10974
0.109553
0.109366
0.109178
0.10899
0.108801
0.108612
0.108422
0.108231
0.108039
0.107848
0.107655
0.114459
0.114954
0.11531
0.115546
0.115687
0.115746
0.115737
0.115688
0.1156
0.115478
0.115335
0.115186
0.115029
0.114865
0.11469
0.114504
0.114314
0.114117
0.113915
0.113714
0.113513
0.113311
0.113111
0.112912
0.112713
0.112515
0.112318
0.112122
0.111926
0.111731
0.111535
0.11134
0.111145
0.11095
0.110755
0.110559
0.110364
0.110167
0.109971
0.109774
0.109576
0.109378
0.109179
0.108979
0.108778
0.108577
0.108375
0.108173
0.10797
0.116935
0.117047
0.117082
0.117057
0.116992
0.116889
0.116755
0.116602
0.11644
0.116271
0.116095
0.115913
0.115717
0.115517
0.115313
0.115102
0.11489
0.11468
0.114469
0.114258
0.114049
0.113841
0.113633
0.113427
0.113221
0.113015
0.11281
0.112606
0.112402
0.112198
0.111994
0.11179
0.111585
0.111381
0.111177
0.110972
0.110766
0.110561
0.110354
0.110147
0.109939
0.109731
0.109522
0.109312
0.109101
0.108889
0.108676
0.108464
0.10825
0.118401
0.118317
0.118199
0.118053
0.117887
0.117712
0.117531
0.117344
0.117151
0.116947
0.116737
0.116525
0.116306
0.116084
0.115864
0.115644
0.115423
0.115205
0.114987
0.114769
0.114553
0.114338
0.114123
0.113909
0.113695
0.113482
0.113269
0.113056
0.112844
0.112631
0.112418
0.112205
0.111992
0.111778
0.111565
0.11135
0.111135
0.11092
0.110704
0.110487
0.110269
0.11005
0.109831
0.10961
0.109389
0.109167
0.108944
0.108721
0.108496
0.119189
0.119001
0.118808
0.11861
0.118406
0.118194
0.117974
0.117752
0.117526
0.117295
0.117065
0.116836
0.116606
0.116377
0.11615
0.115923
0.115698
0.115473
0.115249
0.115026
0.114803
0.114581
0.114359
0.114137
0.113916
0.113695
0.113473
0.113252
0.113031
0.112809
0.112587
0.112365
0.112142
0.111919
0.111695
0.11147
0.111245
0.111019
0.110792
0.110564
0.110336
0.110106
0.109876
0.109644
0.109412
0.109178
0.108944
0.108709
0.119891
0.119676
0.119454
0.119226
0.118994
0.11876
0.11852
0.118281
0.118043
0.117804
0.117566
0.11733
0.117094
0.116859
0.116625
0.116392
0.116159
0.115928
0.115697
0.115466
0.115236
0.115006
0.114776
0.114547
0.114317
0.114087
0.113858
0.113628
0.113397
0.113167
0.112936
0.112704
0.112472
0.11224
0.112006
0.111772
0.111537
0.111301
0.111064
0.110827
0.110588
0.110348
0.110107
0.109866
0.109623
0.109379
0.109135
0.10889
0.12025
0.120007
0.119759
0.119511
0.119264
0.119017
0.118769
0.118524
0.118279
0.118035
0.117792
0.11755
0.117309
0.117069
0.116829
0.11659
0.116351
0.116112
0.115874
0.115636
0.115399
0.115161
0.114923
0.114685
0.114447
0.114209
0.11397
0.113731
0.113492
0.113252
0.113011
0.112769
0.112527
0.112284
0.112041
0.111796
0.11155
0.111304
0.111056
0.110807
0.110557
0.110306
0.110055
0.109802
0.109548
0.109294
0.109038
0.120753
0.120497
0.120242
0.119986
0.119731
0.119478
0.119225
0.118974
0.118723
0.118473
0.118224
0.117976
0.117728
0.117481
0.117234
0.116988
0.116742
0.116496
0.11625
0.116005
0.115759