/*--------------------------------*- C++ -*----------------------------------*\
| =========                 |                                                 |
| \\      /  F ield         | OpenFOAM: The Open Source CFD Toolbox           |
|  \\    /   O peration     | Version:  v1706                                 |
|   \\  /    A nd           | Web:      www.OpenFOAM.com                      |
|    \\/     M anipulation  |                                                 |
\*---------------------------------------------------------------------------*/
FoamFile
{
    version     2.0;
    format      ascii;
    class       volScalarField;
    location    "1.4e-05";
    object      p;
}
// * * * * * * * * * * * * * * * * * * * * * * * * * * * * * * * * * * * * * //

dimensions      [1 -1 -2 0 0 0 0];


internalField   nonuniform List<scalar> 
30038
(
21.9139
21.9139
21.9139
21.9139
21.9139
21.9139
21.9139
21.9139
21.9139
21.9139
21.9139
21.9139
21.9139
21.9139
21.9139
21.9139
21.9139
21.9139
21.9139
21.9139
21.9139
21.9139
21.9139
21.9139
21.9139
21.9139
21.9139
21.9139
21.9139
21.9139
21.9139
21.9139
21.9139
21.9139
21.9139
21.9139
21.9139
21.9139
21.9139
21.9139
21.9139
21.9139
21.9139
21.9139
21.9139
21.9139
21.9139
21.9139
21.9139
21.9139
21.9139
21.9139
21.9139
21.9139
21.9139
21.9139
21.9139
21.9139
21.9139
21.9139
21.9139
21.9139
21.9139
21.9139
21.9139
21.9139
21.9139
21.9139
21.9139
21.9139
21.9139
21.9139
21.9139
21.9139
21.9139
21.9139
21.9139
21.9139
21.9139
21.9139
21.9139
21.9139
21.9139
21.9139
21.9139
21.9139
21.9139
21.9139
21.9139
21.9139
21.9139
21.9139
21.9139
21.9139
21.9139
21.9139
21.9139
21.9139
21.9139
21.9139
21.9139
21.9139
21.9139
21.9139
21.9139
21.9139
21.9139
21.9139
21.9139
21.9139
21.9139
21.9139
21.9139
21.9139
21.9139
21.9139
21.9139
21.9139
21.9139
21.9139
21.9139
21.9139
21.9139
21.9139
21.9139
21.9139
21.9139
21.9139
21.9139
21.9139
21.9139
21.9139
21.9139
21.9139
21.9139
21.9139
21.9139
21.9139
21.9139
21.9139
21.9139
21.9139
21.9139
21.9139
21.9139
21.9139
21.9139
21.9139
21.9139
21.9139
21.9139
21.9139
21.9139
21.9139
21.9139
21.9139
21.9139
21.9139
21.9139
21.9139
21.9139
21.9139
21.9139
21.9139
21.9139
21.9139
21.9139
21.9139
21.9139
21.9139
21.9139
21.9139
21.9139
21.9139
21.9139
21.9139
21.9139
21.9139
21.9139
21.9139
21.9139
21.9139
21.9139
21.9139
21.9139
21.9139
21.9139
21.9139
21.9139
21.9139
21.9139
21.9139
21.9139
21.9139
21.9139
21.9139
21.9139
21.9139
21.9139
21.9139
21.9139
21.9139
21.9139
21.9139
21.9139
21.9139
21.9139
21.9139
21.9139
21.9139
21.9139
21.9139
21.9139
21.9139
21.9139
21.9139
21.9139
21.9139
21.9139
21.9139
21.9139
21.9139
21.9139
21.9139
21.9139
21.9139
21.9139
21.9139
21.9139
21.9139
21.9139
21.9139
21.9139
21.9139
21.9139
21.9139
21.9139
21.9139
21.9139
21.9139
21.9139
21.9139
21.9139
21.9139
21.9139
21.9139
21.9139
21.9139
21.9139
21.9139
21.9139
21.9139
21.9139
21.9139
21.9139
21.9139
21.9139
21.9139
21.9139
21.9139
21.9139
21.9139
21.9139
21.9139
21.9139
21.9139
21.9139
21.9139
21.9139
21.9139
21.9139
21.9139
21.9139
21.9139
21.9139
21.9139
21.9139
21.9139
21.9139
21.9139
21.9139
21.9139
21.9139
21.9139
21.9139
21.9139
21.9139
21.9139
21.9139
21.9139
21.9139
21.9139
21.9139
21.9139
21.9139
21.9139
21.9139
21.9139
21.9139
21.9139
21.9139
21.9139
21.9139
21.9139
21.9139
21.9139
21.9139
21.9139
21.9139
21.9139
21.9139
21.9139
21.9139
21.9139
21.9139
21.9139
21.9139
21.9139
21.9139
21.9139
21.9139
21.9139
21.9139
21.9139
21.9139
21.9139
21.9139
21.9139
21.9139
21.9139
21.9139
21.9139
21.9139
21.9139
21.9139
21.9139
21.9139
21.9139
21.9139
21.9139
21.9139
21.9139
21.9139
21.9139
21.9139
21.9139
21.9139
21.9139
21.9139
21.9139
21.9139
21.9139
21.9139
21.9139
21.9139
21.9139
21.9139
21.9139
21.9139
21.9139
21.9139
21.9139
21.9139
21.9139
21.9139
21.9139
21.9139
21.9139
21.9139
21.9139
21.9139
21.9139
21.9139
21.9139
21.9139
21.9139
21.9139
21.9139
21.9139
21.9139
21.9139
21.9139
21.9139
21.9139
21.9139
21.9139
21.9139
21.9139
21.9139
21.9139
21.9139
21.9139
21.9139
21.9139
21.9139
21.9139
21.9139
21.9139
21.9139
21.9139
21.9139
21.9139
21.9139
21.9139
21.9139
21.9139
21.9139
21.9139
21.9139
21.9139
21.9139
21.9139
21.9139
21.9139
21.9139
21.9139
21.9139
21.9139
21.9139
21.9139
21.9139
21.9139
21.9139
21.9139
21.9139
21.9139
21.9139
21.9139
21.9139
21.9139
21.9139
21.9139
21.9139
21.9139
21.9139
21.9139
21.9139
21.9139
21.9139
21.9139
21.9139
21.9139
21.9139
21.9139
21.9139
21.9139
21.9139
21.9139
21.9139
21.9139
21.9139
21.9139
21.9139
21.9139
21.9139
21.9139
21.9139
21.9139
21.9139
21.9139
21.9139
21.9139
21.9139
21.9139
21.9139
21.9139
21.9139
21.9139
21.9139
21.9139
21.9139
21.9139
21.9139
21.9139
21.9139
21.9139
21.9139
21.9139
21.9139
21.9139
21.9139
21.9139
21.9139
21.9139
21.9139
21.9139
21.9139
21.9139
21.9139
21.9139
21.9139
21.9139
21.9139
21.9139
21.9139
21.9139
21.9139
21.9139
21.9139
21.9139
21.9139
21.9139
21.9139
21.9139
21.9139
21.9139
21.9139
21.9139
21.9139
21.9139
21.9139
21.9139
21.9139
21.9139
21.9139
21.9139
21.9139
21.9139
21.9139
21.9139
21.9139
21.9139
21.9139
21.9139
21.9139
21.9139
21.9139
21.9139
21.9139
21.9139
21.9139
21.9139
21.9139
21.9139
21.9139
21.9139
21.9139
21.9139
21.9139
21.9139
21.9139
21.9139
21.9139
21.9139
21.9139
21.9139
21.9139
21.9139
21.9139
21.9139
21.9139
21.9139
21.9139
21.9139
21.9139
21.9139
21.9139
21.9139
21.9139
21.9139
21.9139
21.9139
21.9139
21.9139
21.9139
21.9139
21.9139
21.9139
21.9139
21.9139
21.9139
21.9139
21.9139
21.9139
21.9139
21.9139
21.9139
21.9139
21.9139
21.9139
21.9139
21.9139
21.9139
21.9139
21.9139
21.9139
21.9139
21.9139
21.9139
21.9139
21.9139
21.9139
21.9139
21.9139
21.9139
21.9139
21.9139
21.9139
21.9139
21.9139
21.9139
21.9139
21.9139
21.9139
21.9139
21.9139
21.9139
21.9139
21.9139
21.9139
21.9139
21.9139
21.9139
21.9139
21.9139
21.9139
21.9139
21.9139
21.9139
21.9139
21.9139
21.9139
21.9139
21.9139
21.9139
21.9139
21.9139
21.9139
21.9139
21.9139
21.9139
21.9139
21.9139
21.9139
21.9139
21.9139
21.9139
21.9139
21.9139
21.9139
21.9139
21.9139
21.9139
21.9139
21.9139
21.9139
21.9139
21.9139
21.9139
21.9139
21.9139
21.9139
21.9139
21.9139
21.9139
21.9139
21.9139
21.9139
21.9139
21.9139
21.9139
21.9139
21.9139
21.9139
21.9139
21.9139
21.9139
21.9139
21.9139
21.9139
21.9139
21.9139
21.9139
21.9139
21.9139
21.9139
21.9139
21.9139
21.9139
21.9139
21.9139
21.9139
21.9139
21.9139
21.9139
21.9139
21.9139
21.9139
21.9139
21.9139
21.9139
21.9139
21.9139
21.9139
21.9139
21.9139
21.9139
21.9139
21.9139
21.9139
21.9139
21.9139
21.9139
21.9139
21.9139
21.9139
21.9139
21.9139
21.9139
21.9139
21.9139
21.9139
21.9139
21.9139
21.9139
21.9139
21.9139
21.9139
21.9139
21.9139
21.9139
21.9139
21.9139
21.9139
21.9139
21.9139
21.9139
21.9139
21.9139
21.9139
21.9139
21.9139
21.9139
21.9139
21.9139
21.9139
21.9139
21.9139
21.9139
21.9139
21.9139
21.9139
21.9139
21.9139
21.9139
21.9139
21.9139
21.9139
21.9139
21.9139
21.9139
21.9139
21.9139
21.9139
21.9139
21.9139
21.9139
21.9139
21.9139
21.9139
21.9139
21.9139
21.9139
21.9139
21.9139
21.9139
21.9139
21.9139
21.9139
21.9139
21.9139
21.9139
21.9139
21.9139
21.9139
21.9139
21.9139
21.9139
21.9139
21.9139
21.9139
21.9139
21.9139
21.9139
21.9139
21.9139
21.9139
21.9139
21.9139
21.9139
21.9139
21.9139
21.9139
21.9139
21.9139
21.9139
21.9139
21.9139
21.9139
21.9139
21.9139
21.9139
21.9139
21.9139
21.9139
21.9139
21.9139
21.9139
21.9139
21.9139
21.9139
21.9139
21.9139
21.9139
21.9139
21.9139
21.9139
21.9139
21.9139
21.9139
21.9139
21.9139
21.9139
21.9139
21.9139
21.9139
21.9139
21.9139
21.9139
21.9139
21.9139
21.9139
21.9139
21.9139
21.9139
21.9139
21.9139
21.9139
21.9139
21.9139
21.9139
21.9139
21.9139
21.9139
21.9139
21.9139
21.9139
21.9139
21.9139
21.9139
21.9139
21.9139
21.9139
21.9139
21.9139
21.9139
21.9139
21.9139
21.9139
21.9139
21.9139
21.9139
21.9139
21.9139
21.9139
21.9139
21.9139
21.9139
21.9139
21.9139
21.9139
21.9139
21.9139
21.9139
21.9139
21.9139
21.9139
21.9139
21.9139
21.9139
21.9139
21.9139
21.9139
21.9139
21.9139
21.9139
21.9139
21.9139
21.9139
21.9139
21.9139
21.9139
21.9139
21.9139
21.9139
21.9139
21.9139
21.9139
21.9139
21.9139
21.9139
21.9139
21.9139
21.9139
21.9139
21.9139
21.9139
21.9139
21.9139
21.9139
21.9139
21.9139
21.9139
21.9139
21.9139
21.9139
21.9139
21.9139
21.9139
21.9139
21.9139
21.9139
21.9139
21.9139
21.9139
21.9139
21.9139
21.9139
21.9139
21.9139
21.9139
21.9139
21.9139
21.9139
21.9139
21.9139
21.9139
21.9139
21.9139
21.9139
21.9139
21.9139
21.9139
21.9139
21.9139
21.9139
21.9139
21.9139
21.9139
21.9139
21.9139
21.9139
21.9139
21.9139
21.9139
21.9139
21.9139
21.9139
21.9139
21.9139
21.9139
21.9139
21.9139
21.9139
21.9139
21.9139
21.9139
21.9139
21.9139
21.9139
21.9139
21.9139
21.9139
21.9139
21.9139
21.9139
21.9139
21.9139
21.9139
21.9139
21.9139
21.9139
21.9139
21.9139
21.9139
21.9139
21.9139
21.9139
21.9139
21.9139
21.9139
21.9139
21.9139
21.9139
21.9139
21.9139
21.9139
21.9139
21.9139
21.9139
21.9139
21.9139
21.9139
21.9139
21.9139
21.9139
21.9139
21.9139
21.9139
21.9139
21.9139
21.9139
21.9139
21.9139
21.9139
21.9139
21.9139
21.9139
21.9139
21.9139
21.9139
21.9139
21.9139
21.9139
21.9139
21.9139
21.9139
21.9139
21.9139
21.9139
21.9139
21.9139
21.9139
21.9139
21.9139
21.9139
21.9139
21.9139
21.9139
21.9139
21.9139
21.9139
21.9139
21.9139
21.9139
21.9139
21.9139
21.9139
21.9139
21.9139
21.9139
21.9139
21.9139
21.9139
21.9139
21.9139
21.9139
21.9139
21.9139
21.9139
21.9139
21.9139
21.9139
21.9139
21.9139
21.9139
21.9139
21.9139
21.9139
21.9139
21.9139
21.9139
21.9139
21.9139
21.9139
21.9139
21.9139
21.9139
21.9139
21.9139
21.9139
21.9139
21.9139
21.9139
21.9139
21.9139
21.9139
21.9139
21.9139
21.9139
21.9139
21.9139
21.9139
21.9139
21.9139
21.9139
21.9139
21.9139
21.9139
21.9139
21.9139
21.9139
21.9139
21.9139
21.9139
21.9139
21.9139
21.9139
21.9139
21.9139
21.9139
21.9139
21.9139
21.9139
21.9139
21.9139
21.9139
21.9139
21.9139
21.9139
21.9139
21.9139
21.9139
21.9139
21.9139
21.9139
21.9139
21.9139
21.9139
21.9139
21.9139
21.9139
21.9139
21.9139
21.9139
21.9139
21.9139
21.9139
21.9139
21.9139
21.9139
21.9139
21.9139
21.9139
21.9139
21.9139
21.9139
21.9139
21.9139
21.9139
21.9139
21.9139
21.9139
21.9139
21.9139
21.9139
21.9139
21.9139
21.9139
21.9139
21.9139
21.9139
21.9139
21.9139
21.9139
21.9139
21.9139
21.9139
21.9139
21.9139
21.9139
21.9139
21.9139
21.9139
21.9139
21.9139
21.9139
21.9139
21.9139
21.9139
21.9139
21.9139
21.9139
21.9139
21.9139
21.9139
21.9139
21.9139
21.9139
21.9139
21.9139
21.9139
21.9139
21.9139
21.9139
21.9139
21.9139
21.9139
21.9139
21.9139
21.9139
21.9139
21.9139
21.9139
21.9139
21.9139
21.9139
21.9139
21.9139
21.9139
21.9139
21.9139
21.9139
21.9139
21.9139
21.9139
21.9139
21.9139
21.9139
21.9139
21.9139
21.9139
21.9139
21.9139
21.9139
21.9139
21.9139
21.9139
21.9139
21.9139
21.9139
21.9139
21.9139
21.9139
21.9139
21.9139
21.9139
21.9139
21.9139
21.9139
21.9139
21.9139
21.9139
21.9139
21.9139
21.9139
21.9139
21.9139
21.9139
21.9139
21.9139
21.9139
21.9139
21.9139
21.9139
21.9139
21.9139
21.9139
21.9139
21.9139
21.9139
21.9139
21.9139
21.9139
21.9139
21.9139
21.9139
21.9139
21.9139
21.9139
21.9139
21.9139
21.9139
21.9139
21.9139
21.9139
21.9139
21.9139
21.9139
21.9139
21.9139
21.9139
21.9139
21.9139
21.9139
21.9139
21.9139
21.9139
21.9139
21.9139
21.9139
21.9139
21.9139
21.9139
21.9139
21.9139
21.9139
21.9139
21.9139
21.9139
21.9139
21.9139
21.9139
21.9139
21.9139
21.9139
21.9139
21.9139
21.9139
21.9139
21.9139
21.9139
21.9139
21.9139
21.9139
21.9139
21.9139
21.9139
21.9139
21.9139
21.9139
21.9139
21.9139
21.9139
21.9139
21.9139
21.9139
21.9139
21.9139
21.9139
21.9139
21.9139
21.9139
21.9139
21.9139
21.9139
21.9139
21.9139
21.9139
21.9139
21.914
21.9141
21.9139
21.9139
21.9139
21.9139
21.9139
21.9139
21.9139
21.9139
21.9139
21.9139
21.9139
21.9139
21.9139
21.9139
21.9139
21.9139
21.9139
21.9139
21.9139
21.9139
21.9139
21.9139
21.9139
21.9139
21.9139
21.9139
21.9139
21.9139
21.9139
21.9139
21.9139
21.9139
21.9139
21.9139
21.9139
21.9139
21.9139
21.9139
21.9139
21.9139
21.9139
21.9139
21.9139
21.9139
21.9139
21.914
21.9141
21.9142
21.9144
21.9148
21.9139
21.9139
21.9139
21.9139
21.9139
21.9139
21.9139
21.9139
21.9139
21.9139
21.9139
21.9139
21.9139
21.9139
21.9139
21.9139
21.9139
21.9139
21.9139
21.9139
21.9139
21.9139
21.9139
21.9139
21.9139
21.9139
21.9139
21.9139
21.9139
21.9139
21.9139
21.9139
21.9139
21.9139
21.9139
21.9139
21.9139
21.9139
21.9139
21.9139
21.9139
21.9139
21.914
21.9141
21.9142
21.9144
21.9147
21.9154
21.9166
21.9189
21.9139
21.9139
21.9139
21.9139
21.9139
21.9139
21.9139
21.9139
21.9139
21.9139
21.9139
21.9139
21.9139
21.9139
21.9139
21.9139
21.9139
21.9139
21.9139
21.9139
21.9139
21.9139
21.9139
21.9139
21.9139
21.9139
21.9139
21.9139
21.9139
21.9139
21.9139
21.9139
21.9139
21.9139
21.9139
21.9139
21.9139
21.9139
21.914
21.914
21.9141
21.9142
21.9144
21.9147
21.9153
21.9164
21.9184
21.9218
21.9281
21.9402
21.9139
21.9139
21.9139
21.9139
21.9139
21.9139
21.9139
21.9139
21.9139
21.9139
21.9139
21.9139
21.9139
21.9139
21.9139
21.9139
21.9139
21.9139
21.9139
21.9139
21.9139
21.9139
21.9139
21.9139
21.9139
21.9139
21.9139
21.9139
21.9139
21.9139
21.9139
21.9139
21.9139
21.9139
21.9139
21.914
21.914
21.9141
21.9142
21.9144
21.9148
21.9154
21.9164
21.9183
21.9216
21.9274
21.9376
21.9558
21.9884
22.0505
21.9139
21.9139
21.9139
21.9139
21.9139
21.9139
21.9139
21.9139
21.9139
21.9139
21.9139
21.9139
21.9139
21.9139
21.9139
21.9139
21.9139
21.9139
21.9139
21.9139
21.9139
21.9139
21.9139
21.9139
21.9139
21.9139
21.9139
21.9139
21.9139
21.9139
21.9139
21.9139
21.914
21.914
21.9141
21.9142
21.9144
21.9148
21.9154
21.9165
21.9184
21.9216
21.9273
21.9371
21.9541
21.984
22.0366
22.1292
22.2942
22.6008
21.9139
21.9139
21.9139
21.9139
21.9139
21.9139
21.9139
21.9139
21.9139
21.9139
21.9139
21.9139
21.9139
21.9139
21.9139
21.9139
21.9139
21.9139
21.9139
21.9139
21.9139
21.9139
21.9139
21.9139
21.9139
21.9139
21.9139
21.9139
21.9139
21.914
21.914
21.9141
21.9142
21.9145
21.9149
21.9155
21.9167
21.9186
21.9219
21.9275
21.9372
21.9538
21.9826
22.0323
22.1187
22.2688
22.5298
22.9831
23.7707
25.161
21.9139
21.9139
21.9139
21.9139
21.9139
21.9139
21.9139
21.9139
21.9139
21.9139
21.9139
21.9139
21.9139
21.9139
21.9139
21.9139
21.9139
21.9139
21.9139
21.9139
21.9139
21.9139
21.9139
21.9139
21.9139
21.914
21.914
21.914
21.9141
21.9143
21.9146
21.915
21.9157
21.9169
21.9189
21.9224
21.9281
21.9379
21.9546
21.983
22.0316
22.1148
22.2576
22.5024
22.9214
23.6344
24.8348
26.8204
30.0274
35.087
21.9139
21.9139
21.9139
21.9139
21.9139
21.9139
21.9139
21.9139
21.9139
21.9139
21.9139
21.9139
21.9139
21.9139
21.9139
21.9139
21.9139
21.9139
21.9139
21.9139
21.9139
21.9139
21.914
21.914
21.9141
21.9142
21.9144
21.9147
21.9151
21.9159
21.9173
21.9195
21.9231
21.9292
21.9394
21.9566
21.9855
22.0342
22.1166
22.2562
22.4926
22.8921
23.5639
24.6817
26.5096
29.4216
33.9009
40.5062
49.8217
62.477
21.9139
21.9139
21.9139
21.9139
21.9139
21.9139
21.9139
21.9139
21.9139
21.9139
21.9139
21.9139
21.9139
21.9139
21.9139
21.9139
21.9139
21.9139
21.914
21.914
21.914
21.9141
21.9143
21.9145
21.9148
21.9154
21.9163
21.9178
21.9202
21.9242
21.9308
21.9418
21.9599
21.99
22.0402
22.1241
22.2643
22.4987
22.8901
23.5401
24.6092
26.3394
29.0713
33.2436
39.3614
47.9363
59.4274
74.2245
92.6431
115.281
21.9139
21.9139
21.9139
21.9139
21.9139
21.9139
21.9139
21.9139
21.9139
21.9139
21.9139
21.9139
21.9139
21.9139
21.9139
21.914
21.914
21.9141
21.9142
21.9143
21.9146
21.915
21.9157
21.9167
21.9185
21.9212
21.9258
21.9331
21.9451
21.9648
21.9971
22.0502
22.1378
22.2824
22.5212
22.9147
23.5601
24.6088
26.2864
28.9087
32.8805
38.6685
46.7478
57.5452
71.4074
88.6125
109.406
134.099
163.05
197.594
21.9139
21.9139
21.9139
21.9139
21.9139
21.9139
21.9139
21.9139
21.9139
21.9139
21.9139
21.914
21.914
21.9141
21.9141
21.9143
21.9145
21.9148
21.9153
21.9161
21.9174
21.9194
21.9227
21.9279
21.9363
21.9498
21.9717
22.0072
22.0649
22.1588
22.3119
22.5615
22.9676
23.6249
24.6793
26.3451
28.9189
32.7777
38.3539
46.0888
56.3793
69.5479
85.8484
105.498
128.726
155.85
187.372
224.008
266.14
317.239
21.9139
21.9139
21.9139
21.9139
21.9139
21.9139
21.9139
21.9139
21.914
21.914
21.914
21.9141
21.9142
21.9144
21.9146
21.9151
21.9157
21.9167
21.9183
21.9207
21.9246
21.9308
21.9407
21.9563
21.9813
22.0214
22.0856
22.189
22.3553
22.623
23.0527
23.739
24.8251
26.5181
29.0998
32.9241
38.3929
45.9138
55.8533
68.5092
84.1151
102.872
124.984
150.716
180.474
214.834
254.407
300.02
353.663
417.53
499.498
21.9139
21.9139
21.9139
21.9139
21.914
21.914
21.914
21.9141
21.9142
21.9143
21.9146
21.9149
21.9154
21.9163
21.9175
21.9195
21.9226
21.9274
21.9349
21.9467
21.9653
21.9946
22.0409
22.1144
22.231
22.4164
22.7106
23.1768
23.911
25.0564
26.8159
29.4608
33.3253
38.7833
46.2097
55.9399
68.2453
83.3384
101.4
122.616
147.209
175.506
208.025
245.346
288.148
337.636
396.144
466.725
552.429
652.509
770.086
21.9139
21.914
21.914
21.914
21.9141
21.9142
21.9143
21.9145
21.9148
21.9153
21.916
21.9171
21.9188
21.9213
21.9253
21.9313
21.9407
21.9552
21.9778
22.0129
22.0679
22.154
22.2889
22.5006
22.8322
23.3502
24.1543
25.3898
27.2583
30.0231
34.0011
39.5398
46.9817
56.6295
68.7266
83.462
100.997
121.499
145.167
172.28
203.275
238.737
279.265
325.706
379.758
444.118
521.725
614.354
720.774
836.258
950.877
1060.27
21.9141
21.9142
21.9143
21.9145
21.9148
21.9152
21.9159
21.9169
21.9183
21.9206
21.924
21.9291
21.9369
21.9488
21.9672
21.9953
22.0386
22.1054
22.2088
22.3687
22.6163
22.9989
23.588
24.4886
25.8502
27.8751
30.82
34.9859
40.6941
48.2544
57.9361
69.9539
84.4739
101.64
121.604
144.55
170.728
200.499
234.413
273.036
317.042
367.63
427.008
498.009
582.993
682.346
793.033
908.419
1019.49
1118.03
1197.48
1257.81
21.9148
21.9152
21.9159
21.9168
21.9182
21.9202
21.9233
21.9278
21.9347
21.945
21.9607
21.9843
22.0202
22.0748
22.158
22.2851
22.4792
22.7756
23.2273
23.9122
24.9425
26.4734
28.709
31.8999
36.3309
42.2967
50.0737
59.8975
71.9542
86.3878
103.325
122.905
145.3
170.732
199.515
232.128
269.144
311.154
359.039
414.519
480.128
558.44
650.776
755.848
868.797
982.054
1086.88
1176.33
1246.15
1296.28
1328.08
1345.96
21.9182
21.9202
21.9231
21.9273
21.9337
21.9431
21.9571
21.978
22.0092
22.0561
22.1266
22.2327
22.3926
22.6336
22.9966
23.5413
24.3543
25.5562
27.309
29.8185
33.3286
38.1059
44.4172
52.5046
62.5699
74.771
89.2315
106.063
125.392
147.382
172.236
200.239
231.804
267.496
307.87
353.628
406.06
467.331
539.976
625.866
724.923
834.046
946.991
1055.77
1152.55
1232.17
1292.17
1333.46
1358.14
1371.23
1375.09
1376.87
21.9337
21.9427
21.9558
21.9752
22.0038
22.0461
22.1088
22.2019
22.3402
22.5459
22.8518
23.3056
23.976
24.9593
26.386
28.4249
31.2821
35.1922
40.401
47.1447
55.6308
66.028
78.4676
93.0552
109.89
129.09
150.81
175.245
202.653
233.399
268.017
307.044
351.084
401.116
458.936
526.906
607.14
700.369
804.863
915.818
1026.24
1128.32
1215.81
1284.99
1335.44
1368.31
1387.09
1395.33
1397.37
1399.4
1398.52
1393.71
22.003
22.0431
22.1016
22.1873
22.3129
22.4972
22.7675
23.1637
23.7422
24.5822
25.7913
27.5099
29.9123
33.202
37.6001
43.328
50.5892
59.5564
70.3672
83.1294
97.9335
114.869
134.048
155.617
179.766
206.735
236.855
270.606
308.534
351.185
399.332
454.439
518.628
594.056
681.957
781.593
889.524
999.755
1105.07
1198.58
1275.87
1334.66
1375.8
1400.94
1414.77
1418.82
1420.26
1421.23
1418.91
1412.78
1403.15
1390.72
22.3061
22.4792
22.7298
23.0921
23.6146
24.3647
25.4335
26.9401
29.0338
31.8912
35.7084
40.6877
47.0221
54.8811
64.4036
75.6994
88.8565
103.953
121.072
140.321
161.844
185.827
212.496
242.158
275.251
312.313
353.855
400.53
453.513
514.677
586.116
669.333
764.29
868.629
977.44
1084.21
1182.08
1265.73
1332.18
1380.97
1413.29
1431.9
1440.47
1442.29
1443.85
1442.91
1438.77
1431.1
1420.39
1407.58
1393.31
1377.78
24.2733
25.2593
26.635
28.5302
31.0993
34.516
38.9625
44.6171
51.6407
60.169
70.3101
82.1501
95.7619
111.216
128.591
147.994
169.568
193.496
219.995
249.354
281.974
318.377
359.052
404.573
455.907
514.689
582.889
662.122
752.811
853.407
960.017
1066.85
1167.44
1256.02
1328.99
1384.61
1423.71
1447.97
1461.31
1465.14
1466.17
1466.93
1464.41
1458.5
1449.41
1437.94
1424.38
1409.7
1394.52
1379.29
1363.34
30.7289
33.8889
37.9777
43.1567
49.575
57.3606
66.6173
77.4275
89.8592
103.975
119.842
137.538
157.17
178.881
202.855
229.3
258.49
290.799
326.73
366.756
411.4
461.476
518.416
584.041
659.979
746.925
843.925
947.909
1053.87
1155.81
1247.9
1325.95
1387.67
1433.06
1463.15
1480.45
1488.24
1489.76
1490.75
1489.46
1485.3
1477.92
1467.64
1455.41
1441.32
1426.52
1411.27
1395.84
1380.34
1365.1
1349.32
48.5109
55.769
64.3744
74.404
85.9202
98.9792
113.639
129.964
148.035
167.962
189.89
213.999
240.497
269.644
301.795
337.43
377.014
421.026
470.177
525.729
589.354
662.63
746.398
840.116
941.356
1045.83
1148.05
1242.37
1324.29
1391.13
1441.81
1477.29
1499.24
1510.95
1514.07
1514.66
1514.82
1511.87
1505.8
1497.08
1485.96
1472.85
1458.44
1443.53
1428.21
1412.78
1397.33
1381.96
1366.59
1351.52
1335.94
95.9589
109.67
124.902
141.724
160.22
180.502
202.72
227.054
253.706
282.93
315.068
350.575
389.906
433.507
482.02
536.57
598.694
669.891
751.053
841.892
940.467
1043.09
1144.81
1240.29
1324.94
1395.66
1450.94
1491.29
1517.79
1532.62
1538.87
1539.78
1540.03
1538.2
1533.65
1526.18
1516.12
1504.23
1490.46
1475.86
1460.79
1445.42
1429.99
1414.56
1399.18
1383.86
1368.64
1353.43
1338.5
1323.08
155.284
174.25
194.947
217.528
242.171
269.074
298.487
330.742
366.282
405.539
448.934
497.063
550.954
612.021
681.664
760.759
849.161
945.28
1045.91
1146.59
1242.36
1328.64
1402.19
1461.26
1505.59
1536.06
1554.44
1563.74
1565.66
1565.63
1564.99
1561.36
1554.77
1546.07
1535.18
1522.36
1508.17
1493.47
1478.28
1462.9
1447.48
1432.05
1416.68
1401.37
1386.13
1370.95
1355.86
1340.77
1325.95
1310.67
234.48
259.513
286.761
316.472
348.977
384.705
424.063
467.45
515.432
568.97
629.374
697.932
775.461
861.873
955.808
1054.43
1153.72
1249.08
1336.11
1411.54
1473.36
1520.84
1554.84
1576.61
1588.25
1592.14
1592.29
1591.84
1589.13
1583.78
1575.96
1565.91
1554.11
1540.54
1526.17
1511.27
1496.01
1480.63
1465.22
1449.82
1434.46
1419.15
1403.9
1388.71
1373.58
1358.5
1343.52
1328.53
1313.81
1298.65
337.088
369.977
406.047
445.675
489.241
537.298
590.768
650.867
718.765
795.185
880.03
972.074
1068.77
1166.43
1260.86
1347.88
1424.22
1487.84
1537.83
1574.61
1599.08
1613.14
1619.24
1619.83
1619.09
1617.32
1612.78
1605.56
1596.6
1585.69
1572.93
1558.91
1544.36
1529.29
1514.01
1498.64
1483.24
1467.85
1452.5
1437.2
1421.94
1406.74
1391.59
1376.49
1361.45
1346.46
1331.56
1316.67
1302.03
1286.99
470.599
514.529
562.882
616.56
676.691
744.313
820.027
903.687
994.128
1089
1184.9
1277.97
1364.34
1440.78
1505.37
1557
1595.66
1622.45
1638.86
1646.52
1648
1647.35
1645.94
1642.09
1635.65
1627.31
1617.09
1605.18
1591.71
1577.51
1562.75
1547.58
1532.28
1516.91
1501.52
1486.16
1470.82
1455.52
1440.26
1425.04
1409.87
1394.75
1379.67
1364.65
1349.69
1334.78
1319.96
1305.16
1290.6
1275.67
646.624
707.103
774.796
850.164
932.972
1022.06
1115.19
1209.22
1300.6
1385.75
1461.6
1526.33
1578.76
1618.69
1647.17
1665.28
1674.31
1677.07
1676.55
1674.78
1671.7
1666.07
1658.09
1648.66
1637.55
1624.64
1610.72
1596.26
1581.3
1566.12
1550.83
1535.47
1520.09
1504.73
1489.4
1474.1
1458.84
1443.61
1428.42
1413.27
1398.17
1383.11
1368.11
1353.15
1338.26
1323.43
1308.69
1293.97
1279.5
1264.68
885.831
968.058
1055.98
1147.44
1239.51
1328.88
1412.29
1486.91
1551.01
1603.52
1644.01
1673.51
1692.8
1703.16
1706.71
1706.45
1704.71
1701.97
1696.83
1689.07
1680.25
1669.76
1657.53
1644.04
1629.96
1615.26
1600.18
1584.95
1569.64
1554.29
1538.94
1523.6
1508.27
1492.97
1477.7
1462.46
1447.25
1432.08
1416.95
1401.85
1386.8
1371.81
1356.86
1341.98
1327.16
1312.4
1297.74
1283.1
1268.71
1254
1275.78
1362.85
1444.06
1516.88
1579.66
1631.47
1671.87
1701.7
1721.71
1732.97
1737.16
1737.22
1735.55
1732.6
1728.02
1720.91
1712.14
1702.19
1690.72
1677.56
1663.7
1649.27
1634.38
1619.3
1604.08
1588.76
1573.42
1558.07
1542.74
1527.42
1512.12
1496.84
1481.59
1466.36
1451.17
1436
1420.88
1405.79
1390.75
1375.75
1360.81
1345.93
1331.11
1316.36
1301.67
1287.08
1272.54
1258.22
1243.61
1551.53
1612.37
1662.81
1702.51
1732.01
1752.19
1763.89
1768.51
1768.8
1767.14
1763.93
1759.73
1753.08
1744.36
1734.81
1723.84
1711.13
1697.58
1683.56
1668.86
1653.85
1638.7
1623.45
1608.15
1592.84
1577.5
1562.17
1546.85
1531.55
1516.27
1501
1485.76
1470.54
1455.34
1440.18
1425.06
1409.97
1394.93
1379.93
1364.99
1350.11
1335.28
1320.53
1305.84
1291.23
1276.72
1262.26
1248.02
1233.52
1735.96
1764.59
1784.41
1796.12
1800.92
1801.23
1799.55
1796.32
1791.94
1785.71
1777.02
1767.73
1757.21
1745
1731.68
1717.89
1703.42
1688.57
1673.58
1658.41
1643.15
1627.85
1612.53
1597.22
1581.9
1566.59
1551.28
1535.98
1520.7
1505.43
1490.19
1474.97
1459.78
1444.61
1429.49
1414.4
1399.35
1384.35
1369.41
1354.52
1339.69
1324.92
1310.23
1295.61
1281.07
1266.64
1252.25
1238.09
1223.69
1834.36
1834.62
1832.8
1829.53
1824.86
1818.85
1810.44
1801.03
1790.8
1779.16
1766
1752.42
1738.24
1723.53
1708.65
1693.57
1678.38
1663.14
1647.86
1632.55
1617.23
1601.91
1586.6
1571.29
1555.99
1540.69
1525.4
1510.13
1494.89
1479.66
1464.46
1449.29
1434.16
1419.06
1404.01
1389
1374.05
1359.15
1344.31
1329.54
1314.83
1300.2
1285.65
1271.18
1256.82
1242.51
1228.43
1214.13
1863.48
1858.56
1852.48
1844.38
1834.87
1824.76
1813.46
1800.56
1787.13
1773.29
1758.73
1743.94
1728.98
1713.86
1698.67
1683.43
1668.15
1652.86
1637.55
1622.24
1606.92
1591.59
1576.28
1560.97
1545.67
1530.38
1515.1
1499.84
1484.6
1469.39
1454.22
1439.07
1423.96
1408.9
1393.88
1378.92
1364
1349.15
1334.36
1319.64
1305
1290.43
1275.95
1261.55
1247.26
1233.03
1219.03
1204.83
1869.2
1859.09
1848.03
1835.45
1822.13
1808.51
1794.12
1779.43
1764.63
1749.59
1734.46
1719.27
1704.03
1688.76
1673.48
1658.17
1642.86
1627.54
1612.21
1596.88
1581.55
1566.22
1550.91
1535.61
1520.32
1505.04
1489.79
1474.57
1459.38
1444.22
1429.1
1414.02
1398.99
1384.01
1369.08
1354.21
1339.41
1324.67
1310
1295.41
1280.91
1266.49
1252.16
1237.94
1223.79
1209.87
1195.77
1870.63
1857.39
1843.92
1829.77
1815.18
1800.5
1785.56
1770.49
1755.38
1740.18
1724.95
1709.69
1694.4
1679.1
1663.78
1648.45
1633.12
1617.77
1602.43
1587.08
1571.74
1556.41
1541.09
1525.78
1510.49
1495.23
1479.99
1464.78
1449.6
1434.46
1419.37
1404.32
1389.32
1374.37
1359.49
1344.66
1329.9
1315.21
1300.6
1286.07
1271.62
1257.27
1243.01
1228.86
1214.79
1200.95
1186.94
1851.17
1836.58
1821.78
1806.78
1791.74
1776.6
1761.4
1746.18
1730.93
1715.64
1700.34
1685.02
1669.68
1654.33
1638.97
1623.61
1608.24
1592.88
1577.52
1562.16
1546.82
1531.49
1516.19
1500.9
1485.64
1470.41
1455.22
1440.06
1424.94
1409.87
1394.85
1379.88
1364.97
1350.13
1335.34
1320.63
1305.99
1291.43
1276.96
1262.57
1248.28
1234.09
1220.01
1206.02
1192.25
1178.34
1843.31
1828.33
1813.28
1798.13
1782.96
1767.74
1752.48
1737.2
1721.89
1706.56
1691.22
1675.86
1660.48
1645.1
1629.71
1614.32
1598.93
1583.54
1568.17
1552.8
1537.45
1522.12
1506.81
1491.53
1476.28
1461.06
1445.88
1430.74
1415.64
1400.6
1385.61
1370.67
1355.8
1340.99
1326.25
1311.58
1296.99
1282.48
1268.07
1253.74
1239.51
1225.39
1211.39
1197.47
1183.78
1169.97
1835.13
1820
1804.83
1789.61
1774.36
1759.08
1743.76
1728.43
1713.07
1697.69
1682.3
1666.9
1651.49
1636.07
1620.65
1605.23
1589.82
1574.41
1559.02
1543.64
1528.29
1512.95
1497.65
1482.37
1467.13
1451.92
1436.75
1421.63
1406.56
1391.54
1376.58
1361.68
1346.84
1332.07
1317.37
1302.75
1288.21
1273.75
1259.39
1245.12
1230.96
1216.91
1202.98
1189.14
1175.53
1161.82
1827.02
1811.8
1796.56
1781.27
1765.95
1750.61
1735.24
1719.84
1704.43
1689.01
1673.58
1658.13
1642.68
1627.23
1611.78
1596.34
1580.91
1565.48
1550.08
1534.69
1519.33
1503.99
1488.69
1473.42
1458.18
1442.99
1427.84
1412.74
1397.69
1382.7
1367.76
1352.89
1338.09
1323.36
1308.7
1294.13
1279.63
1265.23
1250.93
1236.72
1222.63
1208.64
1194.79
1181.04
1167.5
1153.88
1819.07
1803.78
1788.46
1773.1
1757.72
1742.31
1726.88
1711.44
1695.98
1680.51
1665.03
1649.54
1634.06
1618.58
1603.1
1587.64
1572.18
1556.75
1541.33
1525.94
1510.57
1495.23
1479.93
1464.67
1449.44
1434.26
1419.13
1404.05
1389.02
1374.05
1359.15
1344.31
1329.54
1314.85
1300.24
1285.71
1271.27
1256.92
1242.68
1228.54
1214.51
1200.59
1186.8
1173.11
1159.65
1146.12
1811.28
1795.91
1780.52
1765.09
1749.65
1734.18
1718.7
1703.2
1687.69
1672.17
1656.65
1641.13
1625.62
1610.1
1594.6
1579.12
1563.65
1548.2
1532.77
1517.37
1502
1486.66
1471.37
1456.11
1440.89
1425.73
1410.61
1395.55
1380.55
1365.61
1350.73
1335.93
1321.2
1306.55
1291.98
1277.5
1263.12
1248.82
1234.63
1220.54
1206.57
1192.71
1178.99
1165.37
1151.99
1138.55
1803.63
1788.19
1772.73
1757.24
1741.73
1726.21
1710.67
1695.12
1679.56
1664
1648.45
1632.89
1617.34
1601.81
1586.28
1570.78
1555.29
1539.83
1524.39
1508.99
1493.62
1478.28
1462.99
1447.74
1432.54
1417.38
1402.29
1387.25
1372.27
1357.36
1342.52
1327.75
1313.06
1298.45
1283.93
1269.49
1255.14
1240.89
1226.75
1212.71
1198.8
1185.01
1171.36
1157.83
1144.52
1131.18
1780.61
1765.08
1749.53
1733.96
1718.38
1702.79
1687.19
1671.59
1656
1640.4
1624.82
1609.24
1593.68
1578.13
1562.61
1547.11
1531.64
1516.19
1500.78
1485.41
1470.08
1454.79
1439.55
1424.36
1409.23
1394.15
1379.14
1364.19
1349.31
1334.5
1319.76
1305.1
1290.53
1276.04
1261.64
1247.34
1233.14
1219.05
1205.08
1191.23
1177.5
1163.93
1150.47
1137.24
1124
1773.17
1757.57
1741.96
1726.34
1710.7
1695.06
1679.42
1663.78
1648.15
1632.52
1616.9
1601.3
1585.72
1570.15
1554.61
1539.1
1523.62
1508.17
1492.76
1477.39
1462.06
1446.78
1431.55
1416.38
1401.27
1386.21
1371.22
1356.29
1341.43
1326.65
1311.94
1297.31
1282.77
1268.32
1253.97
1239.72
1225.57
1211.54
1197.62
1183.84
1170.18
1156.67
1143.29
1130.15
1116.99
1765.86
1750.2
1734.53
1718.85
1703.17
1687.49
1671.8
1656.12
1640.45
1624.79
1609.15
1593.52
1577.92
1562.33
1546.78
1531.26
1515.77
1500.32
1484.91
1469.54
1454.22
1438.96
1423.74
1408.58
1393.47
1378.43
1363.46
1348.55
1333.71
1318.96
1304.28
1289.69
1275.19
1260.78
1246.48
1232.27
1218.18
1204.2
1190.35
1176.62
1163.03
1149.6
1136.29
1123.22
1110.16
1742.96
1727.24
1711.51
1695.78
1680.05
1664.33
1648.61
1632.91
1617.22
1601.55
1585.9
1570.28
1554.68
1539.12
1523.59
1508.1
1492.65
1477.24
1461.87
1446.56