/*--------------------------------*- C++ -*----------------------------------*\
| =========                 |                                                 |
| \\      /  F ield         | OpenFOAM: The Open Source CFD Toolbox           |
|  \\    /   O peration     | Version:  v1706                                 |
|   \\  /    A nd           | Web:      www.OpenFOAM.com                      |
|    \\/     M anipulation  |                                                 |
\*---------------------------------------------------------------------------*/
FoamFile
{
    version     2.0;
    format      ascii;
    class       volScalarField;
    location    "1.4e-05";
    object      Tt;
}
// * * * * * * * * * * * * * * * * * * * * * * * * * * * * * * * * * * * * * //

dimensions      [0 0 0 1 0 0 0];


internalField   nonuniform List<scalar> 
30038
(
144.4
144.4
144.4
144.4
144.4
144.4
144.4
144.4
144.4
144.4
144.4
144.4
144.4
144.4
144.4
144.4
144.4
144.4
144.4
144.4
144.4
144.4
144.4
144.4
144.4
144.4
144.4
144.4
144.4
144.4
144.4
144.4
144.4
144.4
144.4
144.4
144.4
144.4
144.4
144.4
144.4
144.4
144.4
144.4
144.4
144.4
144.4
144.4
144.4
144.4
144.4
144.4
144.4
144.4
144.4
144.4
144.4
144.4
144.4
144.4
144.4
144.4
144.4
144.4
144.4
144.4
144.4
144.4
144.4
144.4
144.4
144.4
144.4
144.4
144.4
144.4
144.4
144.4
144.4
144.4
144.4
144.4
144.4
144.4
144.4
144.4
144.4
144.4
144.4
144.4
144.4
144.4
144.4
144.4
144.4
144.4
144.4
144.4
144.4
144.4
144.4
144.4
144.4
144.4
144.4
144.4
144.4
144.4
144.4
144.4
144.4
144.4
144.4
144.4
144.4
144.4
144.4
144.4
144.4
144.4
144.4
144.4
144.4
144.4
144.4
144.4
144.4
144.4
144.4
144.4
144.4
144.4
144.4
144.4
144.4
144.4
144.4
144.4
144.4
144.4
144.4
144.4
144.4
144.4
144.4
144.4
144.4
144.4
144.4
144.4
144.4
144.4
144.4
144.4
144.4
144.4
144.4
144.4
144.4
144.4
144.4
144.4
144.4
144.4
144.4
144.4
144.4
144.4
144.4
144.4
144.4
144.4
144.4
144.4
144.4
144.4
144.4
144.4
144.4
144.4
144.4
144.4
144.4
144.4
144.4
144.4
144.4
144.4
144.4
144.4
144.4
144.4
144.4
144.4
144.4
144.4
144.4
144.4
144.4
144.4
144.4
144.4
144.4
144.4
144.4
144.4
144.4
144.4
144.4
144.4
144.4
144.4
144.4
144.4
144.4
144.4
144.4
144.4
144.4
144.4
144.4
144.4
144.4
144.4
144.4
144.4
144.4
144.4
144.4
144.4
144.4
144.4
144.4
144.4
144.4
144.4
144.4
144.4
144.4
144.4
144.4
144.4
144.4
144.4
144.4
144.4
144.4
144.4
144.4
144.4
144.4
144.4
144.4
144.4
144.4
144.4
144.4
144.4
144.4
144.4
144.4
144.4
144.4
144.4
144.4
144.4
144.4
144.4
144.4
144.4
144.4
144.4
144.4
144.4
144.4
144.4
144.4
144.4
144.4
144.4
144.4
144.4
144.4
144.4
144.4
144.4
144.4
144.4
144.4
144.4
144.4
144.4
144.4
144.4
144.4
144.4
144.4
144.4
144.4
144.4
144.4
144.4
144.4
144.4
144.4
144.4
144.4
144.4
144.4
144.4
144.4
144.4
144.4
144.4
144.4
144.4
144.4
144.4
144.4
144.4
144.4
144.4
144.4
144.4
144.4
144.4
144.4
144.4
144.4
144.4
144.4
144.4
144.4
144.4
144.4
144.4
144.4
144.4
144.4
144.4
144.4
144.4
144.4
144.4
144.4
144.4
144.4
144.4
144.4
144.4
144.4
144.4
144.4
144.4
144.4
144.4
144.4
144.4
144.4
144.4
144.4
144.4
144.4
144.4
144.4
144.4
144.4
144.4
144.4
144.4
144.4
144.4
144.4
144.4
144.4
144.4
144.4
144.4
144.4
144.4
144.4
144.4
144.4
144.4
144.4
144.4
144.4
144.4
144.4
144.4
144.4
144.4
144.4
144.4
144.4
144.4
144.4
144.4
144.4
144.4
144.4
144.4
144.4
144.4
144.4
144.4
144.4
144.4
144.4
144.4
144.4
144.4
144.4
144.4
144.4
144.4
144.4
144.4
144.4
144.4
144.4
144.4
144.4
144.4
144.4
144.4
144.4
144.4
144.4
144.4
144.4
144.4
144.4
144.4
144.4
144.4
144.4
144.4
144.4
144.4
144.4
144.4
144.4
144.4
144.4
144.4
144.4
144.4
144.4
144.4
144.4
144.4
144.4
144.4
144.4
144.4
144.4
144.4
144.4
144.4
144.4
144.4
144.4
144.4
144.4
144.4
144.4
144.4
144.4
144.4
144.4
144.4
144.4
144.4
144.4
144.4
144.4
144.4
144.4
144.4
144.4
144.4
144.4
144.4
144.4
144.4
144.4
144.4
144.4
144.4
144.4
144.4
144.4
144.4
144.4
144.4
144.4
144.4
144.4
144.4
144.4
144.4
144.4
144.4
144.4
144.4
144.4
144.4
144.4
144.4
144.4
144.4
144.4
144.4
144.4
144.4
144.4
144.4
144.4
144.4
144.4
144.4
144.4
144.4
144.4
144.4
144.4
144.4
144.4
144.4
144.4
144.4
144.4
144.4
144.4
144.4
144.4
144.4
144.4
144.4
144.4
144.4
144.4
144.4
144.4
144.4
144.4
144.4
144.4
144.4
144.4
144.4
144.4
144.4
144.4
144.4
144.4
144.4
144.4
144.4
144.4
144.4
144.4
144.4
144.4
144.4
144.4
144.4
144.4
144.4
144.4
144.4
144.4
144.4
144.4
144.4
144.4
144.4
144.4
144.4
144.4
144.4
144.4
144.4
144.4
144.4
144.4
144.4
144.4
144.4
144.4
144.4
144.4
144.4
144.4
144.4
144.4
144.4
144.4
144.4
144.4
144.4
144.4
144.4
144.4
144.4
144.4
144.4
144.4
144.4
144.4
144.4
144.4
144.4
144.4
144.4
144.4
144.4
144.4
144.4
144.4
144.4
144.4
144.4
144.4
144.4
144.4
144.4
144.4
144.4
144.4
144.4
144.4
144.4
144.4
144.4
144.4
144.4
144.4
144.4
144.4
144.4
144.4
144.4
144.4
144.4
144.4
144.4
144.4
144.4
144.4
144.4
144.4
144.4
144.4
144.4
144.4
144.4
144.4
144.4
144.4
144.4
144.4
144.4
144.4
144.4
144.4
144.4
144.4
144.4
144.4
144.4
144.4
144.4
144.4
144.4
144.4
144.4
144.4
144.4
144.4
144.4
144.4
144.4
144.4
144.4
144.4
144.4
144.4
144.4
144.4
144.4
144.4
144.4
144.4
144.4
144.4
144.4
144.4
144.4
144.4
144.4
144.4
144.4
144.4
144.4
144.4
144.4
144.4
144.4
144.4
144.4
144.4
144.4
144.4
144.4
144.4
144.4
144.4
144.4
144.4
144.4
144.4
144.4
144.4
144.4
144.4
144.4
144.4
144.4
144.4
144.4
144.4
144.4
144.4
144.4
144.4
144.4
144.4
144.4
144.4
144.4
144.4
144.4
144.4
144.4
144.4
144.4
144.4
144.4
144.4
144.4
144.4
144.4
144.4
144.4
144.4
144.4
144.4
144.4
144.4
144.4
144.4
144.4
144.4
144.4
144.4
144.4
144.4
144.4
144.4
144.4
144.4
144.4
144.4
144.4
144.4
144.4
144.4
144.4
144.4
144.4
144.4
144.4
144.4
144.4
144.4
144.4
144.4
144.4
144.4
144.4
144.4
144.4
144.4
144.4
144.4
144.4
144.4
144.4
144.4
144.4
144.4
144.4
144.4
144.4
144.4
144.4
144.4
144.4
144.4
144.4
144.4
144.4
144.4
144.4
144.4
144.4
144.4
144.4
144.4
144.4
144.4
144.4
144.4
144.4
144.4
144.4
144.4
144.4
144.4
144.4
144.4
144.4
144.4
144.4
144.4
144.4
144.4
144.4
144.4
144.4
144.4
144.4
144.4
144.4
144.4
144.4
144.4
144.4
144.4
144.4
144.4
144.4
144.4
144.4
144.4
144.4
144.4
144.4
144.4
144.4
144.4
144.4
144.4
144.4
144.4
144.4
144.4
144.4
144.4
144.4
144.4
144.4
144.4
144.4
144.4
144.4
144.4
144.4
144.4
144.4
144.4
144.4
144.4
144.4
144.4
144.4
144.4
144.4
144.4
144.4
144.4
144.4
144.4
144.4
144.4
144.4
144.4
144.4
144.4
144.4
144.4
144.4
144.4
144.4
144.4
144.4
144.4
144.4
144.4
144.4
144.4
144.4
144.4
144.4
144.4
144.4
144.4
144.4
144.4
144.4
144.4
144.4
144.4
144.4
144.4
144.4
144.4
144.4
144.4
144.4
144.4
144.4
144.4
144.4
144.4
144.4
144.4
144.4
144.4
144.4
144.4
144.4
144.4
144.4
144.4
144.4
144.4
144.4
144.4
144.4
144.4
144.4
144.4
144.4
144.4
144.4
144.4
144.4
144.4
144.4
144.4
144.4
144.4
144.4
144.4
144.4
144.4
144.4
144.4
144.4
144.4
144.4
144.4
144.4
144.4
144.4
144.4
144.4
144.4
144.4
144.4
144.4
144.4
144.4
144.4
144.4
144.4
144.4
144.4
144.4
144.4
144.4
144.4
144.4
144.4
144.4
144.4
144.4
144.4
144.4
144.4
144.4
144.4
144.4
144.4
144.4
144.4
144.4
144.4
144.4
144.4
144.4
144.4
144.4
144.4
144.4
144.4
144.4
144.4
144.4
144.4
144.4
144.4
144.4
144.4
144.4
144.4
144.4
144.4
144.4
144.4
144.4
144.4
144.4
144.4
144.4
144.4
144.4
144.4
144.4
144.4
144.4
144.4
144.4
144.4
144.4
144.4
144.4
144.4
144.4
144.4
144.4
144.4
144.4
144.4
144.4
144.4
144.4
144.4
144.4
144.4
144.4
144.4
144.4
144.4
144.4
144.4
144.4
144.4
144.4
144.4
144.4
144.4
144.4
144.4
144.4
144.4
144.4
144.4
144.4
144.4
144.4
144.4
144.4
144.4
144.4
144.4
144.4
144.4
144.4
144.4
144.4
144.4
144.4
144.4
144.4
144.4
144.4
144.4
144.4
144.4
144.4
144.4
144.4
144.4
144.4
144.4
144.4
144.4
144.4
144.4
144.4
144.4
144.4
144.4
144.4
144.4
144.4
144.4
144.4
144.4
144.4
144.4
144.4
144.4
144.4
144.4
144.4
144.4
144.4
144.4
144.4
144.4
144.4
144.4
144.4
144.4
144.4
144.4
144.4
144.4
144.4
144.4
144.4
144.4
144.4
144.4
144.4
144.4
144.4
144.4
144.4
144.4
144.4
144.4
144.4
144.4
144.4
144.4
144.4
144.4
144.4
144.4
144.4
144.4
144.4
144.4
144.4
144.4
144.4
144.4
144.4
144.4
144.4
144.4
144.4
144.4
144.4
144.4
144.4
144.4
144.4
144.4
144.4
144.4
144.4
144.4
144.4
144.4
144.4
144.4
144.4
144.4
144.4
144.4
144.4
144.4
144.4
144.4
144.4
144.4
144.4
144.4
144.4
144.4
144.4
144.4
144.4
144.4
144.4
144.4
144.4
144.4
144.4
144.4
144.4
144.4
144.4
144.4
144.4
144.4
144.4
144.4
144.4
144.4
144.4
144.4
144.4
144.4
144.4
144.4
144.4
144.4
144.4
144.4
144.4
144.4
144.4
144.4
144.4
144.4
144.4
144.4
144.4
144.4
144.4
144.4
144.4
144.4
144.4
144.4
144.4
144.4
144.4
144.4
144.4
144.4
144.4
144.4
144.4
144.4
144.4
144.4
144.4
144.4
144.4
144.4
144.4
144.4
144.4
144.4
144.4
144.4
144.4
144.4
144.4
144.4
144.4
144.4
144.4
144.4
144.4
144.4
144.4
144.4
144.4
144.4
144.4
144.4
144.4
144.4
144.4
144.4
144.4
144.4
144.4
144.4
144.4
144.4
144.4
144.4
144.4
144.4
144.4
144.4
144.4
144.4
144.4
144.4
144.4
144.4
144.4
144.4
144.4
144.4
144.4
144.4
144.4
144.4
144.4
144.4
144.4
144.4
144.4
144.4
144.4
144.4
144.4
144.4
144.4
144.4
144.4
144.4
144.4
144.4
144.4
144.4
144.4
144.401
144.401
144.4
144.4
144.4
144.4
144.4
144.4
144.4
144.4
144.4
144.4
144.4
144.4
144.4
144.4
144.4
144.4
144.4
144.4
144.4
144.4
144.4
144.4
144.4
144.4
144.4
144.4
144.4
144.4
144.4
144.4
144.4
144.4
144.4
144.4
144.4
144.4
144.4
144.4
144.4
144.4
144.4
144.4
144.4
144.4
144.4
144.401
144.401
144.402
144.403
144.406
144.4
144.4
144.4
144.4
144.4
144.4
144.4
144.4
144.4
144.4
144.4
144.4
144.4
144.4
144.4
144.4
144.4
144.4
144.4
144.4
144.4
144.4
144.4
144.4
144.4
144.4
144.4
144.4
144.4
144.4
144.4
144.4
144.4
144.4
144.4
144.4
144.4
144.4
144.4
144.4
144.4
144.4
144.401
144.401
144.402
144.403
144.405
144.409
144.417
144.431
144.4
144.4
144.4
144.4
144.4
144.4
144.4
144.4
144.4
144.4
144.4
144.4
144.4
144.4
144.4
144.4
144.4
144.4
144.4
144.4
144.4
144.4
144.4
144.4
144.4
144.4
144.4
144.4
144.4
144.4
144.4
144.4
144.4
144.4
144.4
144.4
144.4
144.4
144.4
144.401
144.401
144.402
144.403
144.405
144.409
144.416
144.428
144.45
144.489
144.565
144.4
144.4
144.4
144.4
144.4
144.4
144.4
144.4
144.4
144.4
144.4
144.4
144.4
144.4
144.4
144.4
144.4
144.4
144.4
144.4
144.4
144.4
144.4
144.4
144.4
144.4
144.4
144.4
144.4
144.4
144.4
144.4
144.4
144.4
144.4
144.4
144.401
144.401
144.402
144.403
144.405
144.409
144.416
144.428
144.449
144.485
144.549
144.663
144.869
145.26
144.4
144.4
144.4
144.4
144.4
144.4
144.4
144.4
144.4
144.4
144.4
144.4
144.4
144.4
144.4
144.4
144.4
144.4
144.4
144.4
144.4
144.4
144.4
144.4
144.4
144.4
144.4
144.4
144.4
144.4
144.4
144.4
144.4
144.401
144.401
144.402
144.403
144.406
144.41
144.416
144.428
144.449
144.484
144.546
144.653
144.842
145.173
145.757
146.798
148.728
144.4
144.4
144.4
144.4
144.4
144.4
144.4
144.4
144.4
144.4
144.4
144.4
144.4
144.4
144.4
144.4
144.4
144.4
144.4
144.4
144.4
144.4
144.4
144.4
144.4
144.4
144.4
144.4
144.4
144.4
144.401
144.401
144.402
144.404
144.406
144.41
144.417
144.43
144.45
144.486
144.547
144.652
144.833
145.147
145.692
146.639
148.285
151.142
156.099
164.8
144.4
144.4
144.4
144.4
144.4
144.4
144.4
144.4
144.4
144.4
144.4
144.4
144.4
144.4
144.4
144.4
144.4
144.4
144.4
144.4
144.4
144.4
144.4
144.4
144.4
144.4
144.401
144.401
144.402
144.403
144.404
144.407
144.411
144.419
144.432
144.453
144.49
144.552
144.657
144.836
145.143
145.668
146.569
148.115
150.758
155.248
162.783
175.178
195.014
225.744
144.4
144.4
144.4
144.4
144.4
144.4
144.4
144.4
144.4
144.4
144.4
144.4
144.4
144.4
144.4
144.4
144.4
144.4
144.4
144.4
144.4
144.4
144.4
144.401
144.401
144.402
144.403
144.405
144.408
144.413
144.421
144.435
144.458
144.497
144.561
144.669
144.852
145.159
145.68
146.562
148.055
150.577
154.811
161.835
173.262
191.312
218.699
258.253
312.396
382.513
144.4
144.4
144.4
144.4
144.4
144.4
144.4
144.4
144.4
144.4
144.4
144.4
144.4
144.4
144.4
144.4
144.4
144.4
144.4
144.401
144.401
144.401
144.402
144.404
144.406
144.409
144.415
144.424
144.44
144.465
144.507
144.576
144.69
144.881
145.198
145.728
146.615
148.097
150.569
154.668
161.393
172.222
189.187
214.775
251.585
301.772
366.492
445.646
538.084
641.703
144.4
144.4
144.4
144.4
144.4
144.4
144.4
144.4
144.4
144.4
144.4
144.4
144.4
144.4
144.4
144.4
144.401
144.401
144.402
144.403
144.404
144.407
144.411
144.418
144.429
144.446
144.475
144.521
144.597
144.722
144.926
145.262
145.816
146.731
148.241
150.728
154.801
161.402
171.912
188.218
212.626
247.567
295.103
356.407
431.47
519.152
617.508
724.21
836.955
953.276
144.4
144.4
144.4
144.4
144.4
144.4
144.4
144.4
144.4
144.4
144.4
144.4
144.401
144.401
144.401
144.402
144.404
144.406
144.409
144.414
144.422
144.435
144.455
144.488
144.541
144.627
144.766
144.99
145.355
145.95
146.919
148.499
151.067
155.217
161.857
172.3
188.317
212.059
245.793
291.465
350.231
422.185
506.371
601.041
703.992
812.868
925.38
1039.3
1152.39
1262.84
144.4
144.4
144.4
144.4
144.4
144.4
144.4
144.4
144.4
144.401
144.401
144.401
144.402
144.403
144.405
144.407
144.411
144.418
144.428
144.443
144.468
144.507
144.569
144.668
144.827
145.08
145.488
146.142
147.196
148.891
151.61
155.945
162.787
173.402
189.473
213.017
246.138
290.638
347.61
417.184
498.542
590.133
689.96
795.857
905.657
1017.24
1128.4
1237.05
1341.33
1439.19
1528.77
144.4
144.4
144.4
144.4
144.4
144.401
144.401
144.401
144.402
144.403
144.404
144.406
144.41
144.415
144.423
144.436
144.455
144.485
144.533
144.608
144.725
144.911
145.205
145.671
146.41
147.585
149.449
152.4
157.039
164.255
175.287
191.749
215.536
248.592
292.557
348.417
416.287
495.427
584.436
681.507
784.657
891.878
1001.23
1110.74
1218.41
1322.36
1420.77
1511.5
1592.17
1660.64
1716.68
144.4
144.4
144.401
144.401
144.401
144.402
144.403
144.404
144.406
144.409
144.413
144.42
144.431
144.447
144.472
144.51
144.57
144.662
144.805
145.028
145.377
145.923
146.779
148.121
150.223
153.502
158.584
166.366
178.077
195.272
219.734
253.244
297.263
352.634
419.415
496.902
583.805
678.48
779.114
883.87
990.966
1098.65
1205.05
1308.4
1407.02
1499.09
1582.47
1654.97
1715.07
1762.57
1798.36
1824.9
144.401
144.402
144.403
144.404
144.406
144.408
144.413
144.419
144.428
144.442
144.464
144.496
144.546
144.622
144.738
144.916
145.191
145.615
146.272
147.287
148.858
151.284
155.014
160.704
169.277
181.957
200.248
225.82
260.28
304.897
360.348
426.599
502.95
588.198
680.834
779.21
881.651
986.513
1092.21
1197.07
1299.42
1397.68
1490.28
1575.4
1650.96
1715.21
1767.3
1807.59
1837.44
1858.85
1873.77
1884.3
144.406
144.408
144.412
144.418
144.427
144.44
144.459
144.488
144.532
144.598
144.697
144.847
145.075
145.422
145.95
146.758
147.991
149.872
152.736
157.073
163.58
173.21
187.189
206.968
234.092
269.986
315.706
371.745
437.96
513.635
597.629
688.555
784.914
885.178
987.846
1091.47
1194.57
1295.6
1393.06
1485.54
1571.5
1649.09
1716.49
1772.51
1816.93
1850.65
1875.22
1892.56
1904.5
1912.61
1918.1
1921.8
144.427
144.44
144.458
144.485
144.526
144.585
144.674
144.807
145.006
145.304
145.752
146.426
147.443
148.974
151.278
154.733
159.879
167.463
178.474
194.132
215.824
244.955
282.746
330.027
387.098
453.698
529.083
612.165
701.665
796.221
894.447
994.983
1096.5
1197.69
1297.15
1393.46
1485.33
1571.39
1650.08
1719.67
1778.76
1826.74
1863.99
1891.74
1911.63
1925.49
1934.87
1941.11
1945.19
1947.62
1949.13
1950.53
144.526
144.583
144.667
144.79
144.972
145.241
145.64
146.231
147.111
148.42
150.364
153.245
157.495
163.714
172.705
185.485
203.26
227.325
258.921
299.044
348.289
406.761
474.083
549.485
631.929
720.238
813.176
909.493
1007.96
1107.36
1206.52
1304.19
1399.07
1489.9
1575.51
1654.54
1725.42
1786.72
1837.55
1877.89
1908.58
1930.99
1946.81
1957.64
1964.81
1969.48
1972.31
1973.75
1974.73
1975.42
1975.18
1974.42
144.967
145.222
145.595
146.14
146.939
148.112
149.832
152.35
156.022
161.344
168.98
179.788
194.801
215.181
242.102
276.608
319.454
370.995
431.153
499.446
575.088
657.095
744.384
835.841
930.344
1026.78
1124.06
1221.11
1316.81
1409.99
1499.47
1584.17
1662.91
1734.33
1797.02
1849.96
1892.82
1926.07
1950.85
1968.61
1980.9
1989.1
1994.4
1997.69
1999.34
2000.07
2000.58
2000.48
1999.67
1998.29
1996.48
1994.56
146.898
148.001
149.596
151.9
155.22
159.978
166.74
176.236
189.362
207.143
230.657
260.917
298.739
344.627
398.707
460.735
530.15
606.165
687.854
774.23
864.292
957.039
1051.47
1146.6
1241.47
1335.07
1426.33
1514.18
1597.59
1675.54
1746.84
1810.18
1864.5
1909.26
1944.64
1971.48
1991.04
2004.75
2014.04
2020.02
2023.69
2025.68
2026.39
2026.57
2026.46
2025.72
2024.29
2022.4
2020.18
2017.86
2015.53
2013.29
159.41
165.655
174.34
186.247
202.283
223.42
250.605
284.648
326.116
375.263
432.013
495.986
566.572
643
724.413
809.919
898.625
989.638
1082.06
1175.02
1267.62
1358.98
1448.14
1534.09
1615.9
1692.64
1763.27
1826.62
1881.64
1927.66
1964.64
1993.17
2014.32
2029.37
2039.66
2046.35
2050.43
2052.75
2053.56
2053.44
2053.16
2052.48
2051.03
2049.05
2046.71
2044.13
2041.47
2038.83
2036.23
2033.66
2031.15
200.028
219.631
244.726
276.077
314.258
359.582
412.078
471.499
537.377
609.08
685.875
766.978
851.594
938.928
1028.19
1118.58
1209.3
1299.55
1388.55
1475.42
1559.25
1639.17
1714.34
1783.85
1846.65
1901.74
1948.4
1986.44
2016.26
2038.7
2054.88
2066.09
2073.47
2077.97
2080.51
2081.5
2081.28
2080.73
2079.9
2078.46
2076.39
2073.96
2071.2
2068.29
2065.33
2062.41
2059.49
2056.6
2053.73
2050.91
2048.12
308.21
350.74
399.975
455.756
517.718
585.343
658.01
735.041
815.732
899.376
985.272
1072.72
1161
1249.41
1337.23
1423.74
1508.17
1589.66
1667.44
1740.72
1808.71
1870.48
1925.08
1971.82
2010.38
2041.01
2064.38
2081.48
2093.47
2101.44
2106.32
2109.07
2110.24
2109.96
2109.15
2108.07
2106.59
2104.45
2101.88
2099.01
2095.85
2092.61
2089.38
2086.18
2082.97
2079.8
2076.63
2073.48
2070.34
2067.23
2064.16
571.141
640.249
713.643
790.709
870.821
953.359
1037.71
1123.24
1209.33
1295.34
1380.61
1464.5
1546.31
1625.28
1700.67
1771.79
1837.92
1898.22
1951.86
1998.13
2036.7
2067.68
2091.62
2109.35
2121.92
2130.35
2135.56
2138.5
2139.72
2139.47
2138.5
2137.09
2135.4
2133.24
2130.53
2127.5
2124.15
2120.66
2117.13
2113.62
2110.12
2106.63
2103.17
2099.73
2096.29
2092.86
2089.44
2086.02
2082.61
2079.23
853.028
932.346
1013.6
1096.25
1179.74
1263.52
1346.99
1429.59
1510.73
1589.76
1666.01
1738.8
1807.5
1871.45
1929.93
1982.17
2027.51
2065.6
2096.48
2120.59
2138.64
2151.55
2160.31
2165.77
2168.8
2170.04
2169.8
2168.69
2166.96
2164.99
2162.74
2159.87
2156.65
2153.19
2149.45
2145.63
2141.82
2138.03
2134.24
2130.47
2126.73
2123
2119.28
2115.57
2111.87
2108.16
2104.45
2100.73
2097.04
2093.35
1160.87
1242.16
1323.47
1404.27
1484.06
1562.29
1638.39
1711.73
1781.71
1847.74
1909.25
1965.58
2016.04
2060.02
2097.19
2127.55
2151.44
2169.48
2182.51
2191.39
2196.94
2200.03
2201.25
2200.94
2199.7
2197.72
2195.41
2192.93
2189.97
2186.55
2182.89
2178.95
2174.86
2170.75
2166.67
2162.58
2158.51
2154.48
2150.45
2146.45
2142.45
2138.46
2134.47
2130.49
2126.5
2122.5
2118.51
2114.5
2110.51
2106.52
1467.04
1543.85
1619.02
1692.01
1762.27
1829.23
1892.38
1951.2
2005.08
2053.42
2095.66
2131.52
2160.96
2184.26
2201.99
2214.87
2223.66
2229.2
2232.24
2233.31
2232.89
2231.55
2229.31
2226.65
2223.87
2220.79
2217.14
2213.25
2209.17
2204.82
2200.42
2196.03
2191.65
2187.28
2182.95
2178.63
2174.33
2170.05
2165.77
2161.51
2157.25
2152.99
2148.72
2144.46
2140.18
2135.9
2131.62
2127.32
2123.03
2118.73
1750.42
1817.4
1881.16
1941.22
1997.1
2048.28
2094.2
2134.38
2168.56
2196.73
2219.1
2236.21
2248.68
2257.19
2262.55
2265.42
2266.29
2265.74
2264.2
2261.67
2258.71
2255.63
2252.28
2248.46
2244.33
2240.04
2235.47
2230.78
2226.11
2221.44
2216.77
2212.12
2207.51
2202.92
2198.35
2193.79
2189.25
2184.71
2180.17
2175.64
2171.11
2166.58
2162.03
2157.48
2152.93
2148.36
2143.78
2139.19
2134.6
2130.01
1994
2046.75
2094.98
2138.21
2176.04
2208.24
2234.8
2255.94
2272.15
2283.97
2291.98
2297
2299.6
2300.17
2299.42
2297.63
2294.87
2291.61
2288.14
2284.48
2280.53
2276.12
2271.55
2266.8
2261.84
2256.87
2251.9
2246.94
2242
2237.1
2232.21
2227.35
2222.5
2217.67
2212.86
2208.05
2203.25
2198.45
2193.65
2188.85
2184.04
2179.23
2174.41
2169.58
2164.73
2159.88
2155.01
2150.12
2145.24
2140.35
2185.23
2220.44
2250.39
2275.08
2294.73
2309.77
2320.7
2328.05
2332.59
2334.8
2334.96
2333.94
2331.86
2328.82
2325.21
2321.41
2317.43
2313.22
2308.58
2303.74
2298.79
2293.59
2288.3
2283.06
2277.81
2272.56
2267.35
2262.17
2257.02
2251.89
2246.78
2241.68
2236.6
2231.52
2226.46
2221.39
2216.33
2211.27
2206.2
2201.12
2196.04
2190.95
2185.85
2180.74
2175.61
2170.46
2165.3
2160.12
2154.95
2149.75
2335.33
2349
2358.83
2365.38
2369.26
2370.92
2370.65
2369.31
2366.89
2363.51
2359.56
2355.44
2351.1
2346.56
2341.73
2336.61
2331.37
2325.95
2320.39
2314.85
2309.32
2303.78
2298.28
2292.81
2287.36
2281.93
2276.54
2271.16
2265.8
2260.46
2255.12
2249.79
2244.46
2239.14
2233.82
2228.49
2223.16
2217.82
2212.48
2207.12
2201.75
2196.37
2190.97
2185.55
2180.12
2174.67
2169.2
2163.73
2158.24
2403.87
2406.98
2407.96
2407.28
2405.46
2402.63
2398.9
2394.64
2390.15
2385.45
2380.59
2375.53
2370.11
2364.57
2358.94
2353.11
2347.26
2341.46
2335.64
2329.83
2324.07
2318.33
2312.63
2306.95
2301.29
2295.65
2290.02
2284.41
2278.82
2273.23
2267.65
2262.07
2256.49
2250.91
2245.32
2239.73
2234.13
2228.53
2222.91
2217.27
2211.62
2205.96
2200.28
2194.58
2188.86
2183.12
2177.36
2171.6
2165.81
2444.7
2442.37
2439.07
2435
2430.38
2425.5
2420.46
2415.26
2409.89
2404.24
2398.41
2392.52
2386.44
2380.29
2374.2
2368.1
2362
2355.95
2349.93
2343.93
2337.97
2332.03
2326.11
2320.22
2314.34
2308.47
2302.62
2296.77
2290.94
2285.1
2279.27
2273.44
2267.6
2261.76
2255.92
2250.06
2244.2
2238.32
2232.42
2226.51
2220.58
2214.64
2208.67
2202.69
2196.68
2190.66
2184.61
2178.56
2172.48
2466.73
2461.47
2456.08
2450.54
2444.84
2438.93
2432.81
2426.63
2420.32
2413.9
2407.51
2401.15
2394.76
2388.42
2382.12
2375.83
2369.59
2363.37
2357.18
2351.01
2344.86
2338.73
2332.61
2326.51
2320.41
2314.32
2308.24
2302.16
2296.08
2289.99
2283.91
2277.82
2271.71
2265.6
2259.48
2253.35
2247.19
2241.03
2234.84
2228.63
2222.41
2216.16
2209.89
2203.6
2197.29
2190.96
2184.62
2178.25
2486.38
2480.35
2474.15
2467.77
2461.28
2454.72
2448.04
2441.36
2434.73
2428.08
2421.44
2414.87
2408.31
2401.78
2395.29
2388.82
2382.38
2375.96
2369.56
2363.18
2356.81
2350.46
2344.12
2337.78
2331.45
2325.13
2318.8
2312.48
2306.15
2299.81
2293.47
2287.12
2280.76
2274.39
2268
2261.59
2255.17
2248.73
2242.26
2235.78
2229.27
2222.74
2216.19
2209.62
2203.03
2196.41
2189.79
2183.14
2496.45
2489.62
2482.69
2475.72
2468.82
2461.9
2454.98
2448.14
2441.32
2434.51
2427.74
2421.01
2414.3
2407.61
2400.95
2394.31
2387.68
2381.07
2374.47
2367.89
2361.31
2354.74
2348.18
2341.61
2335.04
2328.48
2321.9
2315.32
2308.74
2302.14
2295.53
2288.91
2282.27
2275.61
2268.94
2262.24
2255.53
2248.79
2242.03
2235.25
2228.44
2221.61
2214.76
2207.88
2200.99
2194.09
2187.15
2510.57
2503.38
2496.21
2489.03
2481.91
2474.82
2467.74
2460.71
2453.71
2446.74
2439.79
2432.87
2425.96
2419.08
2412.22
2405.37
2398.53
2391.71
2384.89
2378.09
2371.28
2364.48
2357.68
2350.88
2344.07
2337.26
2330.44
2323.61
2316.77
2309.91
2303.04
2296.16
2289.26
2282.33
2275.39
2268.43
2261.44
2254.43
2247.39
2240.33
2233.25
2226.14
2219.01
2211.87
2204.7
2197.52
2190.31
2516.13
2508.79
2501.45
2494.16
2486.9
2479.66
2472.46
2465.28
2458.12
2450.99
2443.87
2436.78
2429.69
2422.62
2415.57
2408.52
2401.47
2394.44
2387.4
2380.37
2373.34
2366.3
2359.26
2352.21
2345.15
2338.08
2331
2323.91
2316.8
2309.67
2302.52
2295.36
2288.17
2280.96
2273.72
2266.47
2259.18
2251.88
2244.54
2237.19
2229.81
2222.41
2214.99
2207.55
2200.1
2192.62
2528.04
2520.54
2513.05
2505.59
2498.16
2490.75
2483.37
2476.01
2468.66
2461.34
2454.03
2446.73
2439.44
2432.16
2424.89
2417.63
2410.37
2403.11
2395.84
2388.58
2381.31
2374.04
2366.76
2359.47
2352.16
2344.84
2337.51
2330.16
2322.8
2315.41
2308
2300.57
2293.12
2285.65
2278.15
2270.62
2263.07
2255.49
2247.89
2240.27
2232.62
2224.95
2217.26
2209.55
2201.83
2194.09
2539.14
2531.47
2523.82
2516.19
2508.59
2501
2493.44
2485.89
2478.35
2470.83
2463.32
2455.82
2448.33
2440.84
2433.35
2425.87
2418.38
2410.9
2403.41
2395.91
2388.41
2380.9
2373.38
2365.84
2358.29
2350.73
2343.14
2335.54
2327.92
2320.28
2312.61
2304.92
2297.21
2289.47
2281.7
2273.91
2266.1
2258.25
2250.39
2242.49
2234.58
2226.65
2218.69
2210.72
2202.74
2194.74
2549.42
2541.58
2533.76
2525.96
2518.18
2510.41
2502.66
2494.92
2487.19
2479.47
2471.76
2464.05
2456.35
2448.65
2440.94
2433.24
2425.53
2417.82
2410.1
2402.37
2394.64
2386.89
2379.12
2371.35
2363.55
2355.74
2347.9
2340.05
2332.17
2324.27
2316.35
2308.4
2300.43
2292.43
2284.4
2276.35
2268.27
2260.17
2252.04
2243.88
2235.71
2227.51
2219.3
2211.09
2202.87
2194.63
2558.87
2550.86
2542.87
2534.89
2526.93
2518.97
2511.03
2503.1
2495.17
2487.25
2479.34
2471.42
2463.51
2455.59
2447.67
2439.75
2431.81
2423.87
2415.93
2407.97
2399.99
2392
2384
2375.98
2367.94
2359.88
2351.8
2343.69
2335.56
2327.41
2319.23
2311.03
2302.8
2294.54
2286.26
2277.95
2269.61
2261.24
2252.85
2244.45
2236.03
2227.6
2219.15
2210.7
2202.24
2193.76
2567.48
2559.3
2551.13
2542.98
2534.83
2526.69
2518.56
2510.43
2502.3
2494.18
2486.06
2477.93
2469.8
2461.67
2453.53
2445.39
2437.23
2429.06
2420.88
2412.69
2404.48
2396.26
2388.02
2379.75
2371.47
2363.16
2354.83
2346.48
2338.1
2329.7
2321.27
2312.81
2304.33
2295.81
2287.27
2278.7
2270.12
2261.52
2252.89
2244.25
2235.59
2226.92
2218.23
2209.53
2200.84
2192.12
2575.27
2566.91
2558.56
2550.22
2541.89
2533.55
2525.23
2516.9
2508.57
2500.25
2491.92
2483.58
2475.24
2466.89
2458.53
2450.17
2441.78
2433.39
2424.98
2416.56
2408.12
2399.65
2391.17
2382.67
2374.14
2365.6
2357.02
2348.42
2339.8
2331.14
2322.46
2313.75
2305.02
2296.27
2287.49
2278.69
2269.87
2261.03
2252.16
2243.28
2234.37
2225.46
2216.54
2207.61
2198.69
2189.75
2573.68
2565.15
2556.62
2548.09
2539.57
2531.05
2522.52
2513.99
2505.46
2496.92
2488.38
2479.82
2471.26
2462.68
2454.09
2445.48
2436.86
2428.23
2419.57
2410.89
2402.2
2393.48
2384.74
2375.97
2367.18
2358.37
2349.52
2340.65
2331.76
2322.84
2313.9
2304.94
2295.95
2286.94
2277.9
2268.84
2259.75
2250.65
2241.53
2232.39
2223.25
2214.1
2204.95
2195.81
2186.65
2579.6
2570.89
2562.17
2553.46
2544.74
2536.02
2527.29
2518.56
2509.82
2501.08
2492.32
2483.55
2474.77
2465.97
2457.16
2448.33
2439.49
2430.62
2421.74
2412.83
2403.9
2394.95
2385.97
2376.96
2367.93
2358.89
2349.82
2340.72
2331.59
2322.45
2313.28
2304.08
2294.85
2285.6
2276.33
2267.03
2257.71
2248.38
2239.03
2229.67
2220.31
2210.94
2201.57
2192.22
2182.86
2584.68
2575.78
2566.88
2557.97
2549.06
2540.14
2531.22
2522.28
2513.34
2504.38
2495.41
2486.43
2477.43
2468.42
2459.39
2450.33
2441.26
2432.17
2423.06
2413.92
2404.76
2395.58
2386.38
2377.15
2367.9
2358.63
2349.33
2340.01
2330.65
2321.27
2311.87
2302.43
2292.98
2283.5
2273.99
2264.47
2254.93
2245.37
2235.81
2226.23
2216.65
2207.08
2197.51
2187.95
2178.39
2579.83
2570.74
2561.64
2552.53
2543.42
2534.29
2525.15
2516
2506.84
2497.66
2488.46
2479.25
2470.02
2460.77
2451.49
2442.2
2432.88
2423.56
2414.2
2404.83
2395.43
2386.01
2376.56
2367.09
2357.59
2348.06
2338.51
2328.92
2319.32
2309.68
2300.03
2290.34
2280.64
2270.92
2261.18
2251.42
2241.65
2231.87
2222.09
2212.31
2202.53
2192.77
2183.02
2173.28
2583.04
2573.76
2564.47
2555.17
2545.85
2536.52
2527.18
2517.83
2508.46
2499.07
2489.66
2480.23
2470.78
2461.32
2451.84
2442.34
2432.81
2423.27
2413.7
2404.11
2394.49
2384.85
2375.18
2365.48
2355.76
2346.01
2336.23
2326.43
2316.6
2306.75
2296.87
2286.98
2277.06
2267.12
2257.17
2247.21
2237.23
2227.25
2217.27
2207.29
2197.33
2187.38
2177.45
2167.53
2585.41
2575.94
2566.45
2556.96
2547.44
2537.92
2528.37
2518.81
2509.23
2499.64
2490.03
2480.4
2470.75
2461.08
2451.4
2441.69
2431.96
2422.2
2412.41
2402.6
2392.77
2382.9
2373.02
2363.1
2353.16
2343.2
2333.2
2323.19
2313.15
2303.08
2293
2282.89
2272.77
2262.63
2252.48
2242.31
2232.14
2221.97
2211.8
2201.64
2191.49
2181.36
2171.26
2161.18
2586.94
2577.28
2567.6
2557.9
2548.19
2538.47
2528.74
2518.98
2509.21
2499.42
2489.62
2479.79
2469.94
2460.06
2450.17
2440.25
2430.3
2420.33
2410.33
2400.31
2390.26
2380.19
2370.09
2359.97
2349.82
2339.64
2329.44
2319.22
2308.98
2298.71
2288.42
2278.11
2267.79
2257.46
2247.11
2236.76
2226.4
2216.04
2205.69
2195.35
2185.04
2174.74
2164.49
2154.24
2577.79
2567.92
2558.05
2548.15
2538.24
2528.32
2518.37
2508.41
2498.42
2488.41
2478.38
2468.32
2458.24
2448.14
2438.01
2427.86
2417.68
2407.48
2397.26
2387
2376.73
2366.42
2356.1
2345.74
2335.37
2324.97
2314.55
2304.1
2293.64
2283.16
2272.66
2262.15
2251.63
2241.1
2230.56
2220.03
2209.49
2198.97
2188.47
2177.99
2167.54
2157.14
2146.75
2577.5
2567.46
2557.4
2547.32
2537.22
2527.1
2516.96
2506.8
2496.61
2486.4
2476.17
2465.92
2455.64
2445.34
2435.01
2424.66
2414.28
2403.88
2393.46
2383.01
2372.53
2362.03
2351.51
2340.96
2330.39
2319.8
2309.19
2298.55
2287.9
2277.24
2266.56
2255.86
2245.16
2234.46
2223.75
2213.04
2202.35
2191.67
2181.01
2170.38
2159.79
2149.24
2138.72
2576.42
2566.2
2555.95
2545.68
2535.39
2525.08
2514.75
2504.39
2494.01
2483.61
2473.19
2462.74
2452.27
2441.78
2431.26
2420.71
2410.14
2399.55
2388.93
2378.29
2367.63
2356.94
2346.22
2335.49
2324.73
2313.96
2303.16
2292.35
2281.52
2270.67
2259.82
2248.95
2238.08
2227.21
2216.34
2205.48
2194.63
2183.8
2172.99
2162.22
2151.49
2140.81
2130.17
2564.12
2553.69
2543.24
2532.77
2522.27
2511.75
2501.21
2490.65
2480.06
2469.45
2458.82
2448.16
2437.47
2426.77
2416.04
2405.28
2394.5
2383.7
2372.87
2362.02
2351.15
2340.26
2329.35
2318.41
2307.46
2296.49
2285.5
2274.5
2263.49
2252.47
2241.44
2230.41
2219.39
2208.36
2197.35
2186.36
2175.38
2164.44
2153.54
2142.69
2131.89
2121.13
2561.26
2550.65
2540.02
2529.37
2518.69
2507.99
2497.27
2486.53
2475.76
2464.97
2454.15
2443.31
2432.45
2421.56
2410.65
2399.72
2388.76
2377.78
2366.77
2355.75
2344.7
2333.64
2322.55
2311.45
2300.33
2289.19
2278.04
2266.88
2255.71
2244.54
2233.36
2222.18
2211
2199.83
2188.68
2177.55
2166.45
2155.38
2144.36
2133.39
2122.48
2111.62
2557.63
2546.84
2536.04
2525.21
2514.36
2503.49
2492.59
2481.67
2470.72
2459.76
2448.77
2437.75
2426.71
2415.65
2404.57
2393.46
2382.34
2371.19
2360.01
2348.82
2337.61
2326.38
2315.13
2303.87
2292.59
2281.3
2269.99
2258.68
2247.36
2236.03
2224.71
2213.39
2202.07
2190.77
2179.49
2168.24
2157.01
2145.83
2134.7
2123.62
2112.62
2101.66
2553.23
2542.28
2531.3
2520.31
2509.29
2498.24
2487.18
2476.09
2464.97
2453.84