/*--------------------------------*- C++ -*----------------------------------*\
| =========                 |                                                 |
| \\      /  F ield         | OpenFOAM: The Open Source CFD Toolbox           |
|  \\    /   O peration     | Version:  v1706                                 |
|   \\  /    A nd           | Web:      www.OpenFOAM.com                      |
|    \\/     M anipulation  |                                                 |
\*---------------------------------------------------------------------------*/
FoamFile
{
    version     2.0;
    format      ascii;
    class       volScalarField;
    location    "1.4e-05";
    object      wallHeatFlux;
}
// * * * * * * * * * * * * * * * * * * * * * * * * * * * * * * * * * * * * * //

dimensions      [1 0 -3 0 0 0 0];


internalField   uniform 0;

boundaryField
{
    cone
    {
        type            calculated;
        value           nonuniform List<scalar> 
153
(
516053
510534
505040
499569
494122
488696
483291
477909
472548
467209
461893
456600
451331
446086
440864
435668
430497
425351
420231
415138
410071
405032
400020
395035
390078
385150
380251
375380
370539
365726
360944
356192
351470
346780
342121
337494
332899
328337
323810
319318
314861
310442
306062
301720
297413
293115
288796
284294
279762
275612
271689
267928
264292
260753
257289
253888
250538
247232
243963
240728
237523
234344
231190
228060
224951
221864
218796
215749
212722
209715
206728
203761
200815
197890
194987
192107
189250
186419
183613
180835
178085
175364
172675
170019
167397
164810
162261
159750
157279
154849
152461
150118
147818
145565
143358
141197
139085
137019
135002
133032
131109
129232
127400
125613
123868
122164
120499
118873
117283
115729
114210
112728
111282
109875
108508
107184
105903
104666
103474
102325
101213
100132
99072.8
98024.2
96973.4
95908.2
94817.3
93691.8
92527.4
91324.3
90089.5
88836.9
87588.3
86373.8
85230.3
84193.8
83292.3
82546.5
81974.3
81594.3
81426.1
81463.3
81695.8
82123.7
82718.9
83434.8
84222.4
85029.9
85804.9
86500.3
87075.7
87488.8
87701.5
)
;
    }
    inlet
    {
        type            calculated;
        value           uniform 0;
    }
    rWedge
    {
        type            wedge;
    }
    lWedge
    {
        type            wedge;
    }
    outlet
    {
        type            calculated;
        value           nonuniform 0();
    }
    procBoundary2to0
    {
        type            processor;
        value           uniform 0;
    }
    procBoundary2to1
    {
        type            processor;
        value           uniform 0;
    }
    procBoundary2to3
    {
        type            processor;
        value           uniform 0;
    }
}


// ************************************************************************* //
