/*--------------------------------*- C++ -*----------------------------------*\
| =========                 |                                                 |
| \\      /  F ield         | OpenFOAM: The Open Source CFD Toolbox           |
|  \\    /   O peration     | Version:  v1706                                 |
|   \\  /    A nd           | Web:      www.OpenFOAM.com                      |
|    \\/     M anipulation  |                                                 |
\*---------------------------------------------------------------------------*/
FoamFile
{
    version     2.0;
    format      ascii;
    class       volScalarField;
    location    "3.2e-05";
    object      kappatr;
}
// * * * * * * * * * * * * * * * * * * * * * * * * * * * * * * * * * * * * * //

dimensions      [1 1 -3 -1 0 0 0];


internalField   nonuniform List<scalar> 
30038
(
0.014593
0.014593
0.014593
0.014593
0.014593
0.014593
0.014593
0.014593
0.014593
0.014593
0.014593
0.014593
0.014593
0.014593
0.014593
0.014593
0.014593
0.014593
0.014593
0.014593
0.014593
0.014593
0.014593
0.014593
0.014593
0.014593
0.014593
0.014593
0.014593
0.014593
0.014593
0.014593
0.014593
0.014593
0.014593
0.014593
0.014593
0.014593
0.014593
0.014593
0.014593
0.014593
0.014593
0.014593
0.014593
0.014593
0.014593
0.014593
0.014593
0.014593
0.014593
0.014593
0.014593
0.014593
0.014593
0.014593
0.014593
0.014593
0.014593
0.014593
0.014593
0.014593
0.014593
0.014593
0.014593
0.014593
0.014593
0.014593
0.014593
0.014593
0.014593
0.014593
0.014593
0.014593
0.014593
0.014593
0.014593
0.014593
0.014593
0.014593
0.014593
0.014593
0.014593
0.014593
0.014593
0.014593
0.014593
0.014593
0.014593
0.014593
0.014593
0.014593
0.014593
0.014593
0.014593
0.014593
0.014593
0.014593
0.014593
0.014593
0.014593
0.014593
0.014593
0.014593
0.014593
0.014593
0.014593
0.014593
0.014593
0.014593
0.014593
0.014593
0.014593
0.014593
0.014593
0.014593
0.014593
0.014593
0.014593
0.014593
0.014593
0.014593
0.014593
0.014593
0.014593
0.014593
0.014593
0.014593
0.014593
0.014593
0.014593
0.014593
0.014593
0.014593
0.014593
0.014593
0.014593
0.014593
0.014593
0.014593
0.014593
0.014593
0.014593
0.014593
0.014593
0.014593
0.014593
0.014593
0.014593
0.014593
0.014593
0.014593
0.014593
0.014593
0.014593
0.014593
0.014593
0.014593
0.014593
0.014593
0.014593
0.014593
0.014593
0.014593
0.014593
0.014593
0.014593
0.014593
0.014593
0.014593
0.014593
0.014593
0.014593
0.014593
0.014593
0.014593
0.014593
0.014593
0.014593
0.014593
0.014593
0.014593
0.014593
0.014593
0.014593
0.014593
0.014593
0.014593
0.014593
0.014593
0.014593
0.014593
0.014593
0.014593
0.014593
0.014593
0.014593
0.014593
0.014593
0.014593
0.014593
0.014593
0.014593
0.014593
0.014593
0.014593
0.014593
0.014593
0.014593
0.014593
0.014593
0.014593
0.014593
0.014593
0.014593
0.014593
0.014593
0.014593
0.014593
0.014593
0.014593
0.014593
0.014593
0.014593
0.014593
0.014593
0.014593
0.014593
0.014593
0.014593
0.014593
0.014593
0.014593
0.014593
0.014593
0.014593
0.014593
0.014593
0.014593
0.014593
0.014593
0.014593
0.014593
0.014593
0.014593
0.014593
0.014593
0.014593
0.014593
0.014593
0.014593
0.014593
0.014593
0.014593
0.014593
0.014593
0.014593
0.014593
0.014593
0.014593
0.014593
0.014593
0.014593
0.014593
0.014593
0.014593
0.014593
0.014593
0.014593
0.014593
0.014593
0.014593
0.014593
0.014593
0.014593
0.014593
0.014593
0.014593
0.014593
0.014593
0.014593
0.014593
0.014593
0.014593
0.014593
0.014593
0.014593
0.014593
0.014593
0.014593
0.014593
0.014593
0.014593
0.014593
0.014593
0.014593
0.014593
0.014593
0.014593
0.014593
0.014593
0.014593
0.014593
0.014593
0.014593
0.014593
0.014593
0.014593
0.014593
0.014593
0.014593
0.014593
0.014593
0.014593
0.014593
0.014593
0.014593
0.014593
0.014593
0.014593
0.014593
0.014593
0.014593
0.014593
0.014593
0.014593
0.014593
0.014593
0.014593
0.014593
0.014593
0.014593
0.014593
0.014593
0.014593
0.014593
0.014593
0.014593
0.014593
0.014593
0.014593
0.014593
0.014593
0.014593
0.014593
0.014593
0.014593
0.014593
0.014593
0.014593
0.014593
0.014593
0.014593
0.014593
0.014593
0.014593
0.014593
0.014593
0.014593
0.014593
0.014593
0.014593
0.014593
0.014593
0.014593
0.014593
0.014593
0.014593
0.014593
0.014593
0.014593
0.014593
0.014593
0.014593
0.014593
0.014593
0.014593
0.014593
0.014593
0.014593
0.014593
0.014593
0.014593
0.014593
0.014593
0.014593
0.014593
0.014593
0.014593
0.014593
0.014593
0.014593
0.014593
0.014593
0.014593
0.014593
0.014593
0.014593
0.014593
0.014593
0.014593
0.014593
0.014593
0.014593
0.014593
0.014593
0.014593
0.014593
0.014593
0.014593
0.014593
0.014593
0.014593
0.014593
0.014593
0.014593
0.014593
0.014593
0.014593
0.014593
0.014593
0.014593
0.014593
0.014593
0.014593
0.014593
0.014593
0.014593
0.014593
0.014593
0.014593
0.014593
0.014593
0.014593
0.014593
0.014593
0.014593
0.014593
0.014593
0.014593
0.014593
0.014593
0.014593
0.014593
0.014593
0.014593
0.014593
0.014593
0.014593
0.014593
0.014593
0.014593
0.014593
0.014593
0.014593
0.014593
0.014593
0.014593
0.014593
0.014593
0.014593
0.014593
0.014593
0.014593
0.014593
0.014593
0.014593
0.014593
0.014593
0.014593
0.014593
0.014593
0.014593
0.014593
0.014593
0.014593
0.014593
0.014593
0.014593
0.014593
0.014593
0.014593
0.014593
0.014593
0.014593
0.014593
0.014593
0.014593
0.014593
0.014593
0.014593
0.014593
0.014593
0.014593
0.014593
0.014593
0.014593
0.014593
0.014593
0.014593
0.014593
0.014593
0.014593
0.014593
0.014593
0.014593
0.014593
0.014593
0.014593
0.014593
0.014593
0.014593
0.014593
0.014593
0.014593
0.014593
0.014593
0.014593
0.014593
0.014593
0.014593
0.014593
0.014593
0.014593
0.014593
0.014593
0.014593
0.014593
0.014593
0.014593
0.014593
0.014593
0.014593
0.014593
0.014593
0.014593
0.014593
0.014593
0.014593
0.014593
0.014593
0.014593
0.014593
0.014593
0.014593
0.014593
0.014593
0.014593
0.014593
0.014593
0.014593
0.014593
0.014593
0.014593
0.014593
0.014593
0.014593
0.014593
0.014593
0.014593
0.014593
0.014593
0.014593
0.014593
0.014593
0.014593
0.014593
0.014593
0.014593
0.014593
0.014593
0.014593
0.014593
0.014593
0.014593
0.014593
0.014593
0.014593
0.014593
0.014593
0.014593
0.014593
0.014593
0.014593
0.014593
0.014593
0.014593
0.014593
0.014593
0.014593
0.014593
0.014593
0.014593
0.014593
0.014593
0.014593
0.014593
0.014593
0.014593
0.014593
0.014593
0.014593
0.014593
0.014593
0.014593
0.014593
0.014593
0.014593
0.014593
0.014593
0.014593
0.014593
0.014593
0.014593
0.014593
0.014593
0.014593
0.014593
0.014593
0.014593
0.014593
0.014593
0.014593
0.014593
0.014593
0.014593
0.014593
0.014593
0.014593
0.014593
0.014593
0.014593
0.014593
0.014593
0.014593
0.014593
0.014593
0.014593
0.014593
0.014593
0.014593
0.014593
0.014593
0.014593
0.014593
0.014593
0.014593
0.014593
0.014593
0.014593
0.014593
0.014593
0.014593
0.014593
0.014593
0.014593
0.014593
0.014593
0.014593
0.014593
0.014593
0.014593
0.014593
0.014593
0.014593
0.014593
0.014593
0.014593
0.014593
0.014593
0.014593
0.014593
0.014593
0.014593
0.014593
0.014593
0.014593
0.014593
0.014593
0.014593
0.014593
0.014593
0.014593
0.014593
0.014593
0.014593
0.014593
0.014593
0.014593
0.014593
0.014593
0.014593
0.014593
0.014593
0.014593
0.014593
0.014593
0.014593
0.014593
0.014593
0.014593
0.014593
0.014593
0.014593
0.014593
0.014593
0.014593
0.014593
0.014593
0.014593
0.014593
0.014593
0.014593
0.014593
0.014593
0.014593
0.014593
0.014593
0.014593
0.014593
0.014593
0.014593
0.014593
0.014593
0.014593
0.014593
0.014593
0.014593
0.014593
0.014593
0.014593
0.014593
0.014593
0.014593
0.014593
0.014593
0.014593
0.014593
0.014593
0.014593
0.014593
0.014593
0.014593
0.014593
0.014593
0.014593
0.014593
0.014593
0.014593
0.014593
0.014593
0.014593
0.014593
0.014593
0.014593
0.014593
0.014593
0.014593
0.014593
0.014593
0.014593
0.014593
0.014593
0.014593
0.014593
0.014593
0.014593
0.014593
0.014593
0.014593
0.014593
0.014593
0.014593
0.014593
0.014593
0.014593
0.014593
0.014593
0.014593
0.014593
0.014593
0.014593
0.014593
0.014593
0.014593
0.014593
0.014593
0.014593
0.014593
0.014593
0.014593
0.014593
0.014593
0.014593
0.014593
0.014593
0.014593
0.014593
0.014593
0.014593
0.014593
0.014593
0.014593
0.014593
0.014593
0.014593
0.014593
0.014593
0.014593
0.014593
0.014593
0.014593
0.014593
0.014593
0.014593
0.014593
0.014593
0.014593
0.014593
0.014593
0.014593
0.014593
0.014593
0.014593
0.014593
0.014593
0.014593
0.014593
0.014593
0.014593
0.014593
0.014593
0.014593
0.014593
0.014593
0.014593
0.014593
0.014593
0.014593
0.014593
0.014593
0.014593
0.014593
0.014593
0.014593
0.014593
0.014593
0.014593
0.014593
0.014593
0.014593
0.014593
0.014593
0.014593
0.014593
0.014593
0.014593
0.014593
0.014593
0.014593
0.014593
0.014593
0.014593
0.014593
0.014593
0.014593
0.014593
0.014593
0.014593
0.014593
0.014593
0.014593
0.014593
0.014593
0.014593
0.014593
0.014593
0.014593
0.014593
0.014593
0.014593
0.014593
0.014593
0.014593
0.014593
0.014593
0.014593
0.014593
0.014593
0.014593
0.014593
0.014593
0.014593
0.014593
0.014593
0.014593
0.014593
0.014593
0.014593
0.014593
0.014593
0.014593
0.014593
0.014593
0.014593
0.014593
0.014593
0.014593
0.014593
0.014593
0.014593
0.014593
0.014593
0.014593
0.014593
0.014593
0.014593
0.014593
0.014593
0.014593
0.014593
0.014593
0.014593
0.014593
0.014593
0.014593
0.014593
0.014593
0.014593
0.014593
0.014593
0.014593
0.014593
0.014593
0.014593
0.014593
0.014593
0.014593
0.014593
0.014593
0.014593
0.014593
0.014593
0.014593
0.014593
0.014593
0.014593
0.014593
0.014593
0.014593
0.014593
0.014593
0.014593
0.014593
0.014593
0.014593
0.014593
0.014593
0.014593
0.014593
0.014593
0.014593
0.014593
0.014593
0.014593
0.014593
0.014593
0.014593
0.014593
0.014593
0.014593
0.014593
0.014593
0.014593
0.014593
0.014593
0.014593
0.014593
0.014593
0.014593
0.014593
0.014593
0.014593
0.014593
0.014593
0.014593
0.014593
0.014593
0.014593
0.014593
0.014593
0.014593
0.014593
0.014593
0.014593
0.014593
0.014593
0.014593
0.014593
0.014593
0.014593
0.014593
0.014593
0.014593
0.014593
0.014593
0.014593
0.014593
0.014593
0.014593
0.014593
0.014593
0.014593
0.014593
0.014593
0.014593
0.014593
0.014593
0.014593
0.014593
0.014593
0.014593
0.014593
0.014593
0.014593
0.014593
0.014593
0.014593
0.014593
0.014593
0.014593
0.014593
0.014593
0.014593
0.014593
0.014593
0.014593
0.014593
0.014593
0.014593
0.014593
0.014593
0.014593
0.014593
0.014593
0.014593
0.014593
0.014593
0.014593
0.014593
0.014593
0.014593
0.014593
0.014593
0.014593
0.014593
0.014593
0.014593
0.014593
0.014593
0.014593
0.014593
0.014593
0.014593
0.014593
0.014593
0.014593
0.014593
0.014593
0.014593
0.014593
0.014593
0.014593
0.014593
0.014593
0.014593
0.014593
0.014593
0.014593
0.014593
0.014593
0.014593
0.014593
0.014593
0.014593
0.014593
0.014593
0.014593
0.014593
0.014593
0.014593
0.014593
0.014593
0.014593
0.014593
0.014593
0.014593
0.014593
0.014593
0.014593
0.014593
0.014593
0.014593
0.014593
0.014593
0.014593
0.014593
0.014593
0.014593
0.014593
0.014593
0.014593
0.014593
0.014593
0.014593
0.014593
0.014593
0.014593
0.014593
0.014593
0.014593
0.014593
0.014593
0.014593
0.014593
0.014593
0.014593
0.014593
0.014593
0.014593
0.014593
0.014593
0.014593
0.014593
0.014593
0.014593
0.014593
0.014593
0.014593
0.014593
0.014593
0.014593
0.014593
0.014593
0.014593
0.014593
0.014593
0.014593
0.014593
0.014593
0.014593
0.014593
0.014593
0.014593
0.014593
0.014593
0.014593
0.014593
0.014593
0.014593
0.014593
0.014593
0.014593
0.014593
0.014593
0.014593
0.014593
0.014593
0.014593
0.014593
0.014593
0.014593
0.014593
0.014593
0.014593
0.014593
0.014593
0.014593
0.014593
0.014593
0.014593
0.014593
0.014593
0.014593
0.014593
0.014593
0.014593
0.014593
0.014593
0.014593
0.014593
0.0145931
0.014593
0.014593
0.014593
0.014593
0.014593
0.014593
0.014593
0.014593
0.014593
0.014593
0.014593
0.014593
0.014593
0.014593
0.014593
0.014593
0.014593
0.014593
0.014593
0.014593
0.014593
0.014593
0.014593
0.014593
0.014593
0.014593
0.014593
0.014593
0.014593
0.014593
0.014593
0.014593
0.014593
0.014593
0.014593
0.014593
0.014593
0.014593
0.014593
0.014593
0.014593
0.014593
0.014593
0.014593
0.014593
0.014593
0.0145931
0.0145931
0.0145931
0.0145932
0.014593
0.014593
0.014593
0.014593
0.014593
0.014593
0.014593
0.014593
0.014593
0.014593
0.014593
0.014593
0.014593
0.014593
0.014593
0.014593
0.014593
0.014593
0.014593
0.014593
0.014593
0.014593
0.014593
0.014593
0.014593
0.014593
0.014593
0.014593
0.014593
0.014593
0.014593
0.014593
0.014593
0.014593
0.014593
0.014593
0.014593
0.014593
0.014593
0.014593
0.014593
0.014593
0.014593
0.0145931
0.0145931
0.0145932
0.0145932
0.0145933
0.0145935
0.0145938
0.014593
0.014593
0.014593
0.014593
0.014593
0.014593
0.014593
0.014593
0.014593
0.014593
0.014593
0.014593
0.014593
0.014593
0.014593
0.014593
0.014593
0.014593
0.014593
0.014593
0.014593
0.014593
0.014593
0.014593
0.014593
0.014593
0.014593
0.014593
0.014593
0.014593
0.014593
0.014593
0.014593
0.014593
0.014593
0.014593
0.014593
0.014593
0.014593
0.0145931
0.0145931
0.0145931
0.0145932
0.0145932
0.0145934
0.0145935
0.0145938
0.0145943
0.0145949
0.014596
0.014593
0.014593
0.014593
0.014593
0.014593
0.014593
0.014593
0.014593
0.014593
0.014593
0.014593
0.014593
0.014593
0.014593
0.014593
0.014593
0.014593
0.014593
0.014593
0.014593
0.014593
0.014593
0.014593
0.014593
0.014593
0.014593
0.014593
0.014593
0.014593
0.014593
0.014593
0.014593
0.014593
0.014593
0.014593
0.014593
0.0145931
0.0145931
0.0145931
0.0145932
0.0145933
0.0145934
0.0145936
0.0145938
0.0145943
0.0145949
0.0145959
0.0145975
0.0145998
0.0146036
0.014593
0.014593
0.014593
0.014593
0.014593
0.014593
0.014593
0.014593
0.014593
0.014593
0.014593
0.014593
0.014593
0.014593
0.014593
0.014593
0.014593
0.014593
0.014593
0.014593
0.014593
0.014593
0.014593
0.014593
0.014593
0.014593
0.014593
0.014593
0.014593
0.014593
0.014593
0.014593
0.014593
0.0145931
0.0145931
0.0145931
0.0145932
0.0145933
0.0145934
0.0145936
0.0145939
0.0145943
0.014595
0.014596
0.0145975
0.0145998
0.0146033
0.0146087
0.0146169
0.01463
0.014593
0.014593
0.014593
0.014593
0.014593
0.014593
0.014593
0.014593
0.014593
0.014593
0.014593
0.014593
0.014593
0.014593
0.014593
0.014593
0.014593
0.014593
0.014593
0.014593
0.014593
0.014593
0.014593
0.014593
0.014593
0.014593
0.014593
0.014593
0.014593
0.014593
0.0145931
0.0145931
0.0145931
0.0145932
0.0145933
0.0145934
0.0145937
0.014594
0.0145944
0.0145951
0.0145962
0.0145977
0.0146
0.0146035
0.0146088
0.0146167
0.0146287
0.0146469
0.0146748
0.0147185
0.014593
0.014593
0.014593
0.014593
0.014593
0.014593
0.014593
0.014593
0.014593
0.014593
0.014593
0.014593
0.014593
0.014593
0.014593
0.014593
0.014593
0.014593
0.014593
0.014593
0.014593
0.014593
0.014593
0.014593
0.014593
0.014593
0.0145931
0.0145931
0.0145931
0.0145932
0.0145932
0.0145933
0.0145935
0.0145937
0.0145941
0.0145946
0.0145953
0.0145964
0.014598
0.0146004
0.0146039
0.0146092
0.0146172
0.014629
0.0146468
0.0146735
0.0147136
0.014774
0.0148653
0.0150053
0.014593
0.014593
0.014593
0.014593
0.014593
0.014593
0.014593
0.014593
0.014593
0.014593
0.014593
0.014593
0.014593
0.014593
0.014593
0.014593
0.014593
0.014593
0.014593
0.014593
0.014593
0.014593
0.014593
0.0145931
0.0145931
0.0145931
0.0145932
0.0145933
0.0145934
0.0145936
0.0145938
0.0145942
0.0145947
0.0145955
0.0145967
0.0145984
0.0146009
0.0146046
0.01461
0.0146181
0.0146301
0.0146479
0.0146744
0.0147138
0.0147723
0.0148592
0.0149879
0.0151781
0.0154583
0.015871
0.014593
0.014593
0.014593
0.014593
0.014593
0.014593
0.014593
0.014593
0.014593
0.014593
0.014593
0.014593
0.014593
0.014593
0.014593
0.014593
0.014593
0.014593
0.014593
0.0145931
0.0145931
0.0145931
0.0145932
0.0145932
0.0145933
0.0145935
0.0145937
0.0145939
0.0145943
0.0145949
0.0145958
0.0145971
0.0145989
0.0146016
0.0146055
0.0146112
0.0146196
0.014632
0.0146501
0.0146769
0.0147163
0.0147744
0.0148599
0.0149853
0.0151685
0.0154341
0.0158153
0.0163544
0.0171039
0.018124
0.014593
0.014593
0.014593
0.014593
0.014593
0.014593
0.014593
0.014593
0.014593
0.014593
0.014593
0.014593
0.014593
0.014593
0.014593
0.0145931
0.0145931
0.0145931
0.0145931
0.0145932
0.0145933
0.0145934
0.0145935
0.0145938
0.0145941
0.0145946
0.0145952
0.0145962
0.0145976
0.0145996
0.0146025
0.0146067
0.0146128
0.0146217
0.0146347
0.0146536
0.0146811
0.0147214
0.0147801
0.0148657
0.0149903
0.0151706
0.0154299
0.0157986
0.0163154
0.0170255
0.0179767
0.0192139
0.0207721
0.0226658
0.014593
0.014593
0.014593
0.014593
0.014593
0.014593
0.014593
0.014593
0.014593
0.014593
0.014593
0.0145931
0.0145931
0.0145931
0.0145931
0.0145932
0.0145932
0.0145933
0.0145935
0.0145937
0.0145939
0.0145943
0.0145948
0.0145956
0.0145967
0.0145983
0.0146005
0.0146037
0.0146083
0.014615
0.0146246
0.0146384
0.0146584
0.0146873
0.0147291
0.0147895
0.0148769
0.0150028
0.0151835
0.015441
0.0158042
0.0163092
0.0169982
0.0179155
0.0191016
0.0205853
0.0223766
0.0244637
0.0268163
0.0293821
0.014593
0.014593
0.014593
0.014593
0.014593
0.014593
0.014593
0.014593
0.0145931
0.0145931
0.0145931
0.0145932
0.0145932
0.0145933
0.0145934
0.0145936
0.0145938
0.0145941
0.0145946
0.0145952
0.0145961
0.0145974
0.0145992
0.0146017
0.0146053
0.0146105
0.0146178
0.0146283
0.0146434
0.0146649
0.0146957
0.0147399
0.0148033
0.014894
0.0150235
0.0152077
0.0154677
0.0158312
0.0163323
0.0170107
0.0179078
0.0190615
0.020499
0.0222299
0.0242429
0.0265053
0.0289687
0.0315755
0.0342664
0.0369737
0.014593
0.014593
0.014593
0.014593
0.0145931
0.0145931
0.0145931
0.0145932
0.0145932
0.0145933
0.0145934
0.0145935
0.0145937
0.014594
0.0145944
0.014595
0.0145957
0.0145968
0.0145983
0.0146004
0.0146033
0.0146074
0.0146133
0.0146216
0.0146333
0.0146499
0.0146735
0.0147069
0.0147545
0.0148221
0.0149179
0.0150534
0.0152442
0.0155111
0.0158806
0.0163853
0.0170626
0.0179511
0.019086
0.0204925
0.02218
0.0241384
0.0263384
0.028735
0.0312733
0.0338933
0.0365304
0.0391241
0.0416212
0.0439771
0.0145931
0.0145931
0.0145931
0.0145932
0.0145932
0.0145933
0.0145934
0.0145935
0.0145937
0.014594
0.0145943
0.0145948
0.0145955
0.0145964
0.0145977
0.0145994
0.0146019
0.0146054
0.0146102
0.014617
0.0146264
0.0146397
0.0146584
0.0146847
0.0147217
0.0147737
0.014847
0.0149499
0.015094
0.015295
0.0155732
0.0159546
0.0164703
0.0171555
0.0180463
0.0191748
0.0205639
0.0222215
0.0241384
0.0262876
0.0286278
0.0311084
0.0336743
0.036267
0.0388261
0.0412979
0.043631
0.0457673
0.0476404
0.0492188
0.0145932
0.0145932
0.0145933
0.0145934
0.0145935
0.0145937
0.0145939
0.0145943
0.0145947
0.0145953
0.0145961
0.0145973
0.0145989
0.014601
0.014604
0.0146081
0.0146139
0.0146218
0.0146328
0.0146482
0.0146695
0.0146993
0.0147409
0.0147988
0.0148796
0.0149919
0.0151477
0.0153627
0.0156572
0.0160565
0.0165907
0.0172928
0.0181962
0.0193301
0.0207141
0.0223546
0.0242417
0.0263505
0.0286423
0.0310707
0.0335848
0.0361319
0.0386561
0.0411059
0.0434341
0.04559
0.0475131
0.0491479
0.0504659
0.0514716
0.0522198
0.0145935
0.0145937
0.0145939
0.0145942
0.0145947
0.0145952
0.014596
0.0145971
0.0145985
0.0146005
0.0146032
0.0146068
0.0146118
0.0146187
0.0146282
0.0146413
0.0146593
0.0146841
0.0147184
0.0147659
0.0148314
0.0149219
0.0150465
0.0152175
0.0154509
0.0157672
0.0161911
0.0167515
0.0174796
0.0184058
0.0195558
0.0209463
0.022581
0.0244493
0.0265269
0.0287779
0.0311591
0.0336235
0.0361233
0.038608
0.0410283
0.0433408
0.0455016
0.047458
0.0491545
0.0505528
0.0516456
0.0524587
0.0530385
0.0534342
0.0537055
0.0145943
0.0145947
0.0145953
0.014596
0.014597
0.0145984
0.0146002
0.0146027
0.0146061
0.0146106
0.0146168
0.0146253
0.0146368
0.0146525
0.014674
0.0147033
0.0147435
0.0147986
0.0148739
0.0149768
0.0151171
0.0153076
0.0155647
0.0159089
0.0163646
0.0169596
0.0177227
0.0186815
0.0198581
0.0212654
0.0229045
0.0247634
0.0268181
0.0290349
0.0313735
0.0337906
0.0362425
0.038684
0.0410687
0.043356
0.045507
0.0474765
0.0492131
0.0506741
0.0518418
0.0527292
0.0533732
0.0538213
0.0541222
0.0543174
0.054439
0.0545172
0.0145971
0.0145984
0.0146002
0.0146026
0.0146058
0.0146101
0.0146159
0.0146237
0.0146342
0.0146483
0.0146676
0.0146936
0.0147288
0.0147766
0.0148415
0.0149293
0.0150482
0.0152084
0.0154235
0.0157104
0.0160897
0.0165853
0.0172236
0.0180312
0.0190322
0.0202449
0.0216783
0.0233304
0.0251878
0.0272267
0.0294149
0.0317148
0.0340867
0.0364905
0.0388857
0.0412296
0.0434838
0.0456134
0.0475796
0.0493364
0.0508401
0.0520658
0.0530165
0.0537207
0.0542194
0.0545585
0.0547807
0.05492
0.0550036
0.0550482
0.0550612
0.0550681
0.014606
0.0146102
0.0146157
0.0146232
0.0146331
0.0146464
0.0146641
0.014688
0.01472
0.0147629
0.0148207
0.0148982
0.0150022
0.0151413
0.0153268
0.0155728
0.0158967
0.0163193
0.0168637
0.0175547
0.0184162
0.0194685
0.0207258
0.0221932
0.0238656
0.0257278
0.0277561
0.0299198
0.0321839
0.034512
0.0368674
0.0392138
0.0415124
0.043727
0.0458258
0.0477753
0.0495348
0.0510623
0.0523292
0.0533302
0.0540851
0.0546294
0.0550053
0.0552556
0.0554135
0.0555074
0.0555598
0.0555787
0.0555755
0.05557
0.0555542
0.0555217
0.0146334
0.0146463
0.0146633
0.0146859
0.0147159
0.0147558
0.014809
0.0148797
0.0149737
0.0150984
0.0152633
0.0154806
0.0157652
0.0161348
0.0166099
0.0172129
0.0179663
0.0188908
0.0200029
0.0213123
0.02282
0.0245178
0.0263892
0.0284104
0.0305523
0.0327825
0.0350674
0.0373737
0.0396689
0.041918
0.0440873
0.0461475
0.048069
0.0498165
0.051351
0.0526422
0.053679
0.054474
0.0550572
0.0554663
0.0557417
0.0559184
0.0560237
0.0560838
0.0561074
0.0561026
0.0560932
0.056077
0.0560431
0.0559957
0.0559412
0.0558806
0.0147161
0.0147545
0.0148051
0.0148717
0.0149595
0.0150749
0.0152262
0.015424
0.0156813
0.0160135
0.0164387
0.0169769
0.0176488
0.0184743
0.0194706
0.0206497
0.0220168
0.0235691
0.0252956
0.0271785
0.0291943
0.0313155
0.0335121
0.0357535
0.0380096
0.040251
0.0424464
0.044565
0.0465794
0.0484636
0.0501867
0.0517134
0.0530131
0.0540713
0.0548948
0.0555083
0.0559449
0.0562425
0.0564367
0.0565531
0.0566186
0.0566479
0.0566443
0.0566301
0.0566108
0.0565798
0.0565325
0.056476
0.0564117
0.0563429
0.0562742
0.056208
0.0149579
0.0150682
0.0152114
0.0153971
0.0156366
0.0159437
0.0163344
0.0168266
0.017439
0.0181903
0.0190973
0.0201729
0.0214245
0.0228529
0.0244516
0.0262076
0.0281021
0.0301121
0.0322119
0.0343739
0.0365704
0.0387743
0.0409592
0.0430971
0.0451597
0.0471221
0.0489608
0.0506488
0.0521544
0.0534481
0.0545138
0.055354
0.055988
0.0564454
0.0567612
0.0569697
0.0570957
0.0571669
0.0572009
0.0571982
0.0571807
0.0571569
0.0571256
0.0570783
0.0570202
0.0569562
0.0568845
0.056811
0.0567379
0.056666
0.056595
0.0565256
0.0156264
0.0159185
0.0162873
0.0167488
0.0173202
0.0180184
0.0188593
0.0198557
0.021016
0.0223431
0.0238337
0.0254783
0.027262
0.0291658
0.0311677
0.0332438
0.0353689
0.0375181
0.0396671
0.0417923
0.0438687
0.0458703
0.0477746
0.0495606
0.0512042
0.0526771
0.0539518
0.0550116
0.0558561
0.0565008
0.0569717
0.0573008
0.0575195
0.0576535
0.0577294
0.0577655
0.0577641
0.0577457
0.0577167
0.0576819
0.0576357
0.0575765
0.0575101
0.0574365
0.0573588
0.057281
0.0572043
0.0571284
0.0570528
0.0569779
0.0569041
0.0568312
0.0179457
0.0187407
0.0196797
0.0207711
0.0220188
0.0234214
0.0249721
0.0266589
0.028466
0.0303747
0.0323642
0.0344126
0.0364972
0.0385955
0.0406862
0.042748
0.0447586
0.0466944
0.048535
0.0502615
0.0518526
0.0532827
0.0545267
0.0555683
0.0564053
0.0570507
0.057527
0.0578629
0.0580882
0.0582279
0.0583068
0.0583433
0.058343
0.0583236
0.0582891
0.0582493
0.0582036
0.0581424
0.0580732
0.0579991
0.0579182
0.0578361
0.0577545
0.0576737
0.0575931
0.0575133
0.0574343
0.0573557
0.0572773
0.0571997
0.0571229
0.0218649
0.0231991
0.0246735
0.0262787
0.0280011
0.0298248
0.0317318
0.0337029
0.0357183
0.0377575
0.0398007
0.0418289
0.0438233
0.0457635
0.0476285
0.0493999
0.0510607
0.0525918
0.0539703
0.0551734
0.0561855
0.0570043
0.0576404
0.0581137
0.0584502
0.0586777
0.0588194
0.0588993
0.0589356
0.0589348
0.0589133
0.058875
0.0588301
0.0587814
0.0587189
0.0586471
0.0585707
0.0584874
0.058401
0.0583149
0.0582297
0.0581448
0.0580603
0.0579767
0.0578933
0.0578102
0.0577275
0.0576452
0.0575629
0.0574812
0.0574001
0.0277615
0.0295103
0.0313416
0.0332386
0.0351839
0.0371597
0.0391477
0.0411306
0.0430916
0.045014
0.0468792
0.0486684
0.0503653
0.0519545
0.0534189
0.0547377
0.0558904
0.0568633
0.0576539
0.0582714
0.0587337
0.0590645
0.0592889
0.059429
0.0595079
0.0595422
0.0595392
0.059516
0.0594742
0.0594228
0.0593696
0.0593067
0.059232
0.0591524
0.059067
0.0589766
0.0588859
0.058796
0.0587066
0.0586175
0.0585292
0.0584415
0.0583541
0.0582671
0.0581802
0.0580935
0.0580069
0.0579205
0.0578341
0.0577483
0.0576629
0.0368047
0.0387334
0.0406637
0.0425805
0.0444691
0.0463146
0.0480999
0.0498083
0.0514254
0.0529375
0.054329
0.0555809
0.0566751
0.0575998
0.0583531
0.0589434
0.0593875
0.0597065
0.0599227
0.0600579
0.060133
0.0601629
0.0601569
0.0601311
0.0600854
0.0600278
0.0599691
0.0599045
0.0598261
0.0597427
0.059656
0.0595624
0.0594674
0.059373
0.0592789
0.0591851
0.0590921
0.0589999
0.058908
0.0588165
0.0587254
0.0586345
0.0585438
0.0584532
0.0583626
0.058272
0.0581815
0.0580909
0.0580009
0.0579111
0.0441443
0.0459552
0.0477185
0.0494188
0.0510414
0.0525738
0.0540035
0.0553162
0.0564947
0.057523
0.0583918
0.0591
0.0596556
0.0600746
0.0603758
0.0605792
0.0607062
0.0607749
0.0607981
0.0607885
0.0607583
0.0607074
0.0606448
0.0605807
0.0605121
0.0604308
0.0603436
0.0602537
0.0601572
0.0600577
0.059959
0.0598608
0.0597628
0.0596652
0.0595685
0.0594721
0.0593761
0.0592806
0.0591854
0.0590904
0.0589957
0.058901
0.0588065
0.0587119
0.0586173
0.0585227
0.0584281
0.0583333
0.058239
0.0581448
0.0508276
0.0523596
0.0538023
0.0551448
0.0563733
0.0574723
0.0584285
0.0592346
0.0598909
0.0604054
0.0607934
0.0610717
0.0612578
0.0613732
0.0614329
0.0614477
0.0614335
0.0613977
0.0613409
0.0612736
0.0612033
0.0611296
0.0610457
0.0609546
0.0608605
0.0607615
0.0606581
0.060555
0.0604523
0.0603497
0.0602475
0.0601462
0.0600456
0.0599454
0.0598456
0.0597462
0.0596469
0.0595479
0.0594491
0.0593505
0.0592519
0.0591534
0.0590549
0.0589563
0.0588577
0.058759
0.0586602
0.0585613
0.0584626
0.0583641
0.0563524
0.0574917
0.0585061
0.0593846
0.0601225
0.0607211
0.0611895
0.0615413
0.0617919
0.0619576
0.0620583
0.0621068
0.062111
0.062091
0.0620484
0.0619858
0.0619133
0.0618366
0.0617573
0.0616706
0.0615749
0.0614764
0.0613747
0.0612676
0.0611598
0.0610531
0.0609462
0.0608396
0.0607337
0.0606287
0.0605239
0.0604197
0.060316
0.0602127
0.0601096
0.0600067
0.059904
0.0598014
0.0596989
0.0595964
0.059494
0.0593916
0.0592891
0.0591865
0.0590838
0.058981
0.058878
0.0587748
0.0586719
0.0585688
0.0603832
0.0610485
0.0615852
0.0620032
0.062315
0.062534
0.062677
0.06276
0.0627941
0.0627878
0.0627605
0.0627104
0.062641
0.0625625
0.0624799
0.062395
0.0623038
0.062204
0.0621012
0.0619963
0.0618857
0.0617734
0.0616623
0.0615513
0.0614402
0.0613301
0.0612208
0.0611118
0.0610032
0.0608952
0.0607875
0.0606802
0.0605732
0.0604665
0.0603599
0.0602535
0.0601472
0.0600409
0.0599346
0.0598283
0.059722
0.0596156
0.0595091
0.0594025
0.0592956
0.0591886
0.0590814
0.0589739
0.0588666
0.0587591
0.0628416
0.0631106
0.0632953
0.0634133
0.0634767
0.0634938
0.0634783
0.0634405
0.0633819
0.0633056
0.0632212
0.0631331
0.063042
0.0629454
0.0628418
0.0627346
0.0626253
0.0625116
0.0623952
0.0622798
0.0621648
0.0620495
0.0619349
0.0618212
0.0617079
0.0615952
0.0614831
0.0613713
0.0612599
0.0611488
0.0610379
0.0609273
0.0608169
0.0607066
0.0605965
0.0604865
0.0603764
0.0602664
0.0601563
0.0600462
0.0599359
0.0598255
0.0597149
0.0596042
0.0594932
0.0593819
0.0592705
0.0591587
0.059047
0.058935
0.0641639
0.0642064
0.0642048
0.0641791
0.0641305
0.0640624
0.0639794
0.0638886
0.0637945
0.0636974
0.0635952
0.0634878
0.0633761
0.0632622
0.0631449
0.0630248
0.062905
0.0627861
0.0626667
0.0625477
0.0624298
0.0623124
0.0621954
0.062079
0.0619632
0.0618477
0.0617326
0.0616178
0.0615032
0.0613889
0.0612747
0.0611607
0.0610468
0.060933
0.0608193
0.0607055
0.0605917
0.0604779
0.060364
0.0602499
0.0601356
0.0600212
0.0599065
0.0597916
0.0596764
0.0595609
0.0594452
0.059329
0.0592129
0.0590965
0.0648292
0.0647509
0.0646609
0.0645639
0.0644636
0.0643606
0.0642529
0.064141
0.0640248
0.0639064
0.0637854
0.0636616
0.0635375
0.0634146
0.0632913
0.063168
0.0630461
0.0629247
0.0628035
0.062683
0.062563
0.0624435
0.0623243
0.0622056
0.0620871
0.0619689
0.0618509
0.0617332
0.0616155
0.0614979
0.0613805
0.061263
0.0611456
0.0610282
0.0609107
0.0607931
0.0606754
0.0605576
0.0604395
0.0603213
0.0602027
0.0600839
0.0599648
0.0598454
0.0597256
0.0596055
0.059485
0.0593645
0.0592435
0.0652461
0.0651394
0.0650308
0.0649175
0.0648006
0.0646803
0.0645575
0.0644325
0.0643049
0.0641769
0.0640499
0.0639228
0.0637954
0.0636694
0.0635441
0.0634188
0.0632943
0.0631705
0.0630469
0.0629238
0.0628011
0.0626787
0.0625566
0.0624348
0.0623132
0.0621919
0.0620707
0.0619496
0.0618285
0.0617075
0.0615865
0.0614655
0.0613444
0.0612232
0.061102
0.0609806
0.060859
0.0607371
0.0606151
0.0604927
0.0603701
0.0602471
0.0601238
0.0600001
0.0598759
0.0597515
0.0596266
0.0595016
0.0593761
0.0655883
0.0654663
0.0653417
0.0652146
0.0650854
0.0649542
0.0648223
0.0646914
0.0645605
0.0644293
0.0642993
0.0641701
0.0640409
0.0639124
0.0637848
0.0636573
0.0635303
0.0634038
0.0632776
0.0631517
0.0630262
0.0629008
0.0627757
0.0626508
0.0625261
0.0624014
0.0622769
0.0621524
0.0620279
0.0619034
0.0617788
0.0616541
0.0615294
0.0614044
0.0612793
0.061154
0.0610285
0.0609026
0.0607765
0.0606501
0.0605232
0.060396
0.0602684
0.0601404
0.060012
0.0598832
0.0597539
0.0596244
0.0594944
0.0657435
0.0656087
0.0654732
0.0653384
0.0652039
0.065069
0.0649351
0.0648022
0.0646693
0.064537
0.0644055
0.0642743
0.0641434
0.0640132
0.0638833
0.0637537
0.0636244
0.0634954
0.0633667
0.0632381
0.0631098
0.0629816
0.0628535
0.0627255
0.0625975
0.0624696
0.0623417
0.0622137
0.0620856
0.0619574
0.061829
0.0617005
0.0615717
0.0614427
0.0613135
0.0611839
0.0610541
0.0609238
0.0607932
0.0606622
0.0605307
0.0603989
0.0602665
0.0601337
0.0600005
0.0598668
0.0597329
0.0595984
0.0659903
0.0658522
0.0657138
0.0655762
0.0654397
0.0653032
0.0651671
0.065032
0.0648972
0.0647627
0.0646288
0.0644952
0.064362
0.0642291
0.0640965
0.0639642
0.0638321
0.0637002
0.0635685
0.0634369
0.0633055
0.0631741
0.0630427
0.0629114