/*--------------------------------*- C++ -*----------------------------------*\
| =========                 |                                                 |
| \\      /  F ield         | OpenFOAM: The Open Source CFD Toolbox           |
|  \\    /   O peration     | Version:  v1706                                 |
|   \\  /    A nd           | Web:      www.OpenFOAM.com                      |
|    \\/     M anipulation  |                                                 |
\*---------------------------------------------------------------------------*/
FoamFile
{
    version     2.0;
    format      ascii;
    class       volScalarField;
    location    "3.2e-05";
    object      mu;
}
// * * * * * * * * * * * * * * * * * * * * * * * * * * * * * * * * * * * * * //

dimensions      [1 -1 -1 0 0 0 0];


internalField   nonuniform List<scalar> 
30038
(
1.0351e-05
1.0351e-05
1.0351e-05
1.0351e-05
1.0351e-05
1.0351e-05
1.0351e-05
1.0351e-05
1.0351e-05
1.0351e-05
1.0351e-05
1.0351e-05
1.0351e-05
1.0351e-05
1.0351e-05
1.0351e-05
1.0351e-05
1.0351e-05
1.0351e-05
1.0351e-05
1.0351e-05
1.0351e-05
1.0351e-05
1.0351e-05
1.0351e-05
1.0351e-05
1.0351e-05
1.0351e-05
1.0351e-05
1.0351e-05
1.0351e-05
1.0351e-05
1.0351e-05
1.0351e-05
1.0351e-05
1.0351e-05
1.0351e-05
1.0351e-05
1.0351e-05
1.0351e-05
1.0351e-05
1.0351e-05
1.0351e-05
1.0351e-05
1.0351e-05
1.0351e-05
1.0351e-05
1.0351e-05
1.0351e-05
1.0351e-05
1.0351e-05
1.0351e-05
1.0351e-05
1.0351e-05
1.0351e-05
1.0351e-05
1.0351e-05
1.0351e-05
1.0351e-05
1.0351e-05
1.0351e-05
1.0351e-05
1.0351e-05
1.0351e-05
1.0351e-05
1.0351e-05
1.0351e-05
1.0351e-05
1.0351e-05
1.0351e-05
1.0351e-05
1.0351e-05
1.0351e-05
1.0351e-05
1.0351e-05
1.0351e-05
1.0351e-05
1.0351e-05
1.0351e-05
1.0351e-05
1.0351e-05
1.0351e-05
1.0351e-05
1.0351e-05
1.0351e-05
1.0351e-05
1.0351e-05
1.0351e-05
1.0351e-05
1.0351e-05
1.0351e-05
1.0351e-05
1.0351e-05
1.0351e-05
1.0351e-05
1.0351e-05
1.0351e-05
1.0351e-05
1.0351e-05
1.0351e-05
1.0351e-05
1.0351e-05
1.0351e-05
1.0351e-05
1.0351e-05
1.0351e-05
1.0351e-05
1.0351e-05
1.0351e-05
1.0351e-05
1.0351e-05
1.0351e-05
1.0351e-05
1.0351e-05
1.0351e-05
1.0351e-05
1.0351e-05
1.0351e-05
1.0351e-05
1.0351e-05
1.0351e-05
1.0351e-05
1.0351e-05
1.0351e-05
1.0351e-05
1.0351e-05
1.0351e-05
1.0351e-05
1.0351e-05
1.0351e-05
1.0351e-05
1.0351e-05
1.0351e-05
1.0351e-05
1.0351e-05
1.0351e-05
1.0351e-05
1.0351e-05
1.0351e-05
1.0351e-05
1.0351e-05
1.0351e-05
1.0351e-05
1.0351e-05
1.0351e-05
1.0351e-05
1.0351e-05
1.0351e-05
1.0351e-05
1.0351e-05
1.0351e-05
1.0351e-05
1.0351e-05
1.0351e-05
1.0351e-05
1.0351e-05
1.0351e-05
1.0351e-05
1.0351e-05
1.0351e-05
1.0351e-05
1.0351e-05
1.0351e-05
1.0351e-05
1.0351e-05
1.0351e-05
1.0351e-05
1.0351e-05
1.0351e-05
1.0351e-05
1.0351e-05
1.0351e-05
1.0351e-05
1.0351e-05
1.0351e-05
1.0351e-05
1.0351e-05
1.0351e-05
1.0351e-05
1.0351e-05
1.0351e-05
1.0351e-05
1.0351e-05
1.0351e-05
1.0351e-05
1.0351e-05
1.0351e-05
1.0351e-05
1.0351e-05
1.0351e-05
1.0351e-05
1.0351e-05
1.0351e-05
1.0351e-05
1.0351e-05
1.0351e-05
1.0351e-05
1.0351e-05
1.0351e-05
1.0351e-05
1.0351e-05
1.0351e-05
1.0351e-05
1.0351e-05
1.0351e-05
1.0351e-05
1.0351e-05
1.0351e-05
1.0351e-05
1.0351e-05
1.0351e-05
1.0351e-05
1.0351e-05
1.0351e-05
1.0351e-05
1.0351e-05
1.0351e-05
1.0351e-05
1.0351e-05
1.0351e-05
1.0351e-05
1.0351e-05
1.0351e-05
1.0351e-05
1.0351e-05
1.0351e-05
1.0351e-05
1.0351e-05
1.0351e-05
1.0351e-05
1.0351e-05
1.0351e-05
1.0351e-05
1.0351e-05
1.0351e-05
1.0351e-05
1.0351e-05
1.0351e-05
1.0351e-05
1.0351e-05
1.0351e-05
1.0351e-05
1.0351e-05
1.0351e-05
1.0351e-05
1.0351e-05
1.0351e-05
1.0351e-05
1.0351e-05
1.0351e-05
1.0351e-05
1.0351e-05
1.0351e-05
1.0351e-05
1.0351e-05
1.0351e-05
1.0351e-05
1.0351e-05
1.0351e-05
1.0351e-05
1.0351e-05
1.0351e-05
1.0351e-05
1.0351e-05
1.0351e-05
1.0351e-05
1.0351e-05
1.0351e-05
1.0351e-05
1.0351e-05
1.0351e-05
1.0351e-05
1.0351e-05
1.0351e-05
1.0351e-05
1.0351e-05
1.0351e-05
1.0351e-05
1.0351e-05
1.0351e-05
1.0351e-05
1.0351e-05
1.0351e-05
1.0351e-05
1.0351e-05
1.0351e-05
1.0351e-05
1.0351e-05
1.0351e-05
1.0351e-05
1.0351e-05
1.0351e-05
1.0351e-05
1.0351e-05
1.0351e-05
1.0351e-05
1.0351e-05
1.0351e-05
1.0351e-05
1.0351e-05
1.0351e-05
1.0351e-05
1.0351e-05
1.0351e-05
1.0351e-05
1.0351e-05
1.0351e-05
1.0351e-05
1.0351e-05
1.0351e-05
1.0351e-05
1.0351e-05
1.0351e-05
1.0351e-05
1.0351e-05
1.0351e-05
1.0351e-05
1.0351e-05
1.0351e-05
1.0351e-05
1.0351e-05
1.0351e-05
1.0351e-05
1.0351e-05
1.0351e-05
1.0351e-05
1.0351e-05
1.0351e-05
1.0351e-05
1.0351e-05
1.0351e-05
1.0351e-05
1.0351e-05
1.0351e-05
1.0351e-05
1.0351e-05
1.0351e-05
1.0351e-05
1.0351e-05
1.0351e-05
1.0351e-05
1.0351e-05
1.0351e-05
1.0351e-05
1.0351e-05
1.0351e-05
1.0351e-05
1.0351e-05
1.0351e-05
1.0351e-05
1.0351e-05
1.0351e-05
1.0351e-05
1.0351e-05
1.0351e-05
1.0351e-05
1.0351e-05
1.0351e-05
1.0351e-05
1.0351e-05
1.0351e-05
1.0351e-05
1.0351e-05
1.0351e-05
1.0351e-05
1.0351e-05
1.0351e-05
1.0351e-05
1.0351e-05
1.0351e-05
1.0351e-05
1.0351e-05
1.0351e-05
1.0351e-05
1.0351e-05
1.0351e-05
1.0351e-05
1.0351e-05
1.0351e-05
1.0351e-05
1.0351e-05
1.0351e-05
1.0351e-05
1.0351e-05
1.0351e-05
1.0351e-05
1.0351e-05
1.0351e-05
1.0351e-05
1.0351e-05
1.0351e-05
1.0351e-05
1.0351e-05
1.0351e-05
1.0351e-05
1.0351e-05
1.0351e-05
1.0351e-05
1.0351e-05
1.0351e-05
1.0351e-05
1.0351e-05
1.0351e-05
1.0351e-05
1.0351e-05
1.0351e-05
1.0351e-05
1.0351e-05
1.0351e-05
1.0351e-05
1.0351e-05
1.0351e-05
1.0351e-05
1.0351e-05
1.0351e-05
1.0351e-05
1.0351e-05
1.0351e-05
1.0351e-05
1.0351e-05
1.0351e-05
1.0351e-05
1.0351e-05
1.0351e-05
1.0351e-05
1.0351e-05
1.0351e-05
1.0351e-05
1.0351e-05
1.0351e-05
1.0351e-05
1.0351e-05
1.0351e-05
1.0351e-05
1.0351e-05
1.0351e-05
1.0351e-05
1.0351e-05
1.0351e-05
1.0351e-05
1.0351e-05
1.0351e-05
1.0351e-05
1.0351e-05
1.0351e-05
1.0351e-05
1.0351e-05
1.0351e-05
1.0351e-05
1.0351e-05
1.0351e-05
1.0351e-05
1.0351e-05
1.0351e-05
1.0351e-05
1.0351e-05
1.0351e-05
1.0351e-05
1.0351e-05
1.0351e-05
1.0351e-05
1.0351e-05
1.0351e-05
1.0351e-05
1.0351e-05
1.0351e-05
1.0351e-05
1.0351e-05
1.0351e-05
1.0351e-05
1.0351e-05
1.0351e-05
1.0351e-05
1.0351e-05
1.0351e-05
1.0351e-05
1.0351e-05
1.0351e-05
1.0351e-05
1.0351e-05
1.0351e-05
1.0351e-05
1.0351e-05
1.0351e-05
1.0351e-05
1.0351e-05
1.0351e-05
1.0351e-05
1.0351e-05
1.0351e-05
1.0351e-05
1.0351e-05
1.0351e-05
1.0351e-05
1.0351e-05
1.0351e-05
1.0351e-05
1.0351e-05
1.0351e-05
1.0351e-05
1.0351e-05
1.0351e-05
1.0351e-05
1.0351e-05
1.0351e-05
1.0351e-05
1.0351e-05
1.0351e-05
1.0351e-05
1.0351e-05
1.0351e-05
1.0351e-05
1.0351e-05
1.0351e-05
1.0351e-05
1.0351e-05
1.0351e-05
1.0351e-05
1.0351e-05
1.0351e-05
1.0351e-05
1.0351e-05
1.0351e-05
1.0351e-05
1.0351e-05
1.0351e-05
1.0351e-05
1.0351e-05
1.0351e-05
1.0351e-05
1.0351e-05
1.0351e-05
1.0351e-05
1.0351e-05
1.0351e-05
1.0351e-05
1.0351e-05
1.0351e-05
1.0351e-05
1.0351e-05
1.0351e-05
1.0351e-05
1.0351e-05
1.0351e-05
1.0351e-05
1.0351e-05
1.0351e-05
1.0351e-05
1.0351e-05
1.0351e-05
1.0351e-05
1.0351e-05
1.0351e-05
1.0351e-05
1.0351e-05
1.0351e-05
1.0351e-05
1.0351e-05
1.0351e-05
1.0351e-05
1.0351e-05
1.0351e-05
1.0351e-05
1.0351e-05
1.0351e-05
1.0351e-05
1.0351e-05
1.0351e-05
1.0351e-05
1.0351e-05
1.0351e-05
1.0351e-05
1.0351e-05
1.0351e-05
1.0351e-05
1.0351e-05
1.0351e-05
1.0351e-05
1.0351e-05
1.0351e-05
1.0351e-05
1.0351e-05
1.0351e-05
1.0351e-05
1.0351e-05
1.0351e-05
1.0351e-05
1.0351e-05
1.0351e-05
1.0351e-05
1.0351e-05
1.0351e-05
1.0351e-05
1.0351e-05
1.0351e-05
1.0351e-05
1.0351e-05
1.0351e-05
1.0351e-05
1.0351e-05
1.0351e-05
1.0351e-05
1.0351e-05
1.0351e-05
1.0351e-05
1.0351e-05
1.0351e-05
1.0351e-05
1.0351e-05
1.0351e-05
1.0351e-05
1.0351e-05
1.0351e-05
1.0351e-05
1.0351e-05
1.0351e-05
1.0351e-05
1.0351e-05
1.0351e-05
1.0351e-05
1.0351e-05
1.0351e-05
1.0351e-05
1.0351e-05
1.0351e-05
1.0351e-05
1.0351e-05
1.0351e-05
1.0351e-05
1.0351e-05
1.0351e-05
1.0351e-05
1.0351e-05
1.0351e-05
1.0351e-05
1.0351e-05
1.0351e-05
1.0351e-05
1.0351e-05
1.0351e-05
1.0351e-05
1.0351e-05
1.0351e-05
1.0351e-05
1.0351e-05
1.0351e-05
1.0351e-05
1.0351e-05
1.0351e-05
1.0351e-05
1.0351e-05
1.0351e-05
1.0351e-05
1.0351e-05
1.0351e-05
1.0351e-05
1.0351e-05
1.0351e-05
1.0351e-05
1.0351e-05
1.0351e-05
1.0351e-05
1.0351e-05
1.0351e-05
1.0351e-05
1.0351e-05
1.0351e-05
1.0351e-05
1.0351e-05
1.0351e-05
1.0351e-05
1.0351e-05
1.0351e-05
1.0351e-05
1.0351e-05
1.0351e-05
1.0351e-05
1.0351e-05
1.0351e-05
1.0351e-05
1.0351e-05
1.0351e-05
1.0351e-05
1.0351e-05
1.0351e-05
1.0351e-05
1.0351e-05
1.0351e-05
1.0351e-05
1.0351e-05
1.0351e-05
1.0351e-05
1.0351e-05
1.0351e-05
1.0351e-05
1.0351e-05
1.0351e-05
1.0351e-05
1.0351e-05
1.0351e-05
1.0351e-05
1.0351e-05
1.0351e-05
1.0351e-05
1.0351e-05
1.0351e-05
1.0351e-05
1.0351e-05
1.0351e-05
1.0351e-05
1.0351e-05
1.0351e-05
1.0351e-05
1.0351e-05
1.0351e-05
1.0351e-05
1.0351e-05
1.0351e-05
1.0351e-05
1.0351e-05
1.0351e-05
1.0351e-05
1.0351e-05
1.0351e-05
1.0351e-05
1.0351e-05
1.0351e-05
1.0351e-05
1.0351e-05
1.0351e-05
1.0351e-05
1.0351e-05
1.0351e-05
1.0351e-05
1.0351e-05
1.0351e-05
1.0351e-05
1.0351e-05
1.0351e-05
1.0351e-05
1.0351e-05
1.0351e-05
1.0351e-05
1.0351e-05
1.0351e-05
1.0351e-05
1.0351e-05
1.0351e-05
1.0351e-05
1.0351e-05
1.0351e-05
1.0351e-05
1.0351e-05
1.0351e-05
1.0351e-05
1.0351e-05
1.0351e-05
1.0351e-05
1.0351e-05
1.0351e-05
1.0351e-05
1.0351e-05
1.0351e-05
1.0351e-05
1.0351e-05
1.0351e-05
1.0351e-05
1.0351e-05
1.0351e-05
1.0351e-05
1.0351e-05
1.0351e-05
1.0351e-05
1.0351e-05
1.0351e-05
1.0351e-05
1.0351e-05
1.0351e-05
1.0351e-05
1.0351e-05
1.0351e-05
1.0351e-05
1.0351e-05
1.0351e-05
1.0351e-05
1.0351e-05
1.0351e-05
1.0351e-05
1.0351e-05
1.0351e-05
1.0351e-05
1.0351e-05
1.0351e-05
1.0351e-05
1.0351e-05
1.0351e-05
1.0351e-05
1.0351e-05
1.0351e-05
1.0351e-05
1.0351e-05
1.0351e-05
1.0351e-05
1.0351e-05
1.0351e-05
1.0351e-05
1.0351e-05
1.0351e-05
1.0351e-05
1.0351e-05
1.0351e-05
1.0351e-05
1.0351e-05
1.0351e-05
1.0351e-05
1.0351e-05
1.0351e-05
1.0351e-05
1.0351e-05
1.0351e-05
1.0351e-05
1.0351e-05
1.0351e-05
1.0351e-05
1.0351e-05
1.0351e-05
1.0351e-05
1.0351e-05
1.0351e-05
1.0351e-05
1.0351e-05
1.0351e-05
1.0351e-05
1.0351e-05
1.0351e-05
1.0351e-05
1.0351e-05
1.0351e-05
1.0351e-05
1.0351e-05
1.0351e-05
1.0351e-05
1.0351e-05
1.0351e-05
1.0351e-05
1.0351e-05
1.0351e-05
1.0351e-05
1.0351e-05
1.0351e-05
1.0351e-05
1.0351e-05
1.0351e-05
1.0351e-05
1.0351e-05
1.0351e-05
1.0351e-05
1.0351e-05
1.0351e-05
1.0351e-05
1.0351e-05
1.0351e-05
1.0351e-05
1.0351e-05
1.0351e-05
1.0351e-05
1.0351e-05
1.0351e-05
1.0351e-05
1.0351e-05
1.0351e-05
1.0351e-05
1.0351e-05
1.0351e-05
1.0351e-05
1.0351e-05
1.0351e-05
1.0351e-05
1.0351e-05
1.0351e-05
1.0351e-05
1.0351e-05
1.0351e-05
1.0351e-05
1.0351e-05
1.0351e-05
1.0351e-05
1.0351e-05
1.0351e-05
1.0351e-05
1.0351e-05
1.0351e-05
1.0351e-05
1.0351e-05
1.0351e-05
1.0351e-05
1.0351e-05
1.0351e-05
1.0351e-05
1.0351e-05
1.0351e-05
1.0351e-05
1.0351e-05
1.0351e-05
1.0351e-05
1.0351e-05
1.0351e-05
1.0351e-05
1.0351e-05
1.0351e-05
1.0351e-05
1.0351e-05
1.0351e-05
1.0351e-05
1.0351e-05
1.0351e-05
1.0351e-05
1.0351e-05
1.0351e-05
1.0351e-05
1.0351e-05
1.0351e-05
1.0351e-05
1.0351e-05
1.0351e-05
1.0351e-05
1.0351e-05
1.0351e-05
1.0351e-05
1.0351e-05
1.0351e-05
1.0351e-05
1.0351e-05
1.0351e-05
1.0351e-05
1.0351e-05
1.0351e-05
1.0351e-05
1.0351e-05
1.0351e-05
1.0351e-05
1.0351e-05
1.0351e-05
1.0351e-05
1.0351e-05
1.0351e-05
1.0351e-05
1.0351e-05
1.0351e-05
1.0351e-05
1.0351e-05
1.0351e-05
1.0351e-05
1.0351e-05
1.0351e-05
1.0351e-05
1.0351e-05
1.0351e-05
1.0351e-05
1.0351e-05
1.0351e-05
1.0351e-05
1.0351e-05
1.0351e-05
1.0351e-05
1.0351e-05
1.0351e-05
1.0351e-05
1.0351e-05
1.0351e-05
1.0351e-05
1.0351e-05
1.0351e-05
1.0351e-05
1.0351e-05
1.0351e-05
1.0351e-05
1.0351e-05
1.0351e-05
1.0351e-05
1.0351e-05
1.0351e-05
1.0351e-05
1.0351e-05
1.0351e-05
1.0351e-05
1.0351e-05
1.0351e-05
1.0351e-05
1.0351e-05
1.0351e-05
1.0351e-05
1.0351e-05
1.0351e-05
1.0351e-05
1.0351e-05
1.0351e-05
1.0351e-05
1.0351e-05
1.0351e-05
1.0351e-05
1.0351e-05
1.0351e-05
1.0351e-05
1.0351e-05
1.0351e-05
1.0351e-05
1.0351e-05
1.0351e-05
1.0351e-05
1.0351e-05
1.0351e-05
1.0351e-05
1.0351e-05
1.0351e-05
1.0351e-05
1.0351e-05
1.0351e-05
1.0351e-05
1.0351e-05
1.0351e-05
1.0351e-05
1.0351e-05
1.0351e-05
1.0351e-05
1.0351e-05
1.0351e-05
1.0351e-05
1.0351e-05
1.0351e-05
1.0351e-05
1.0351e-05
1.0351e-05
1.0351e-05
1.0351e-05
1.0351e-05
1.0351e-05
1.0351e-05
1.0351e-05
1.0351e-05
1.0351e-05
1.0351e-05
1.0351e-05
1.0351e-05
1.0351e-05
1.0351e-05
1.0351e-05
1.0351e-05
1.0351e-05
1.0351e-05
1.0351e-05
1.0351e-05
1.0351e-05
1.0351e-05
1.0351e-05
1.0351e-05
1.0351e-05
1.0351e-05
1.0351e-05
1.0351e-05
1.0351e-05
1.0351e-05
1.0351e-05
1.0351e-05
1.0351e-05
1.0351e-05
1.0351e-05
1.0351e-05
1.0351e-05
1.0351e-05
1.0351e-05
1.0351e-05
1.0351e-05
1.0351e-05
1.0351e-05
1.0351e-05
1.0351e-05
1.0351e-05
1.0351e-05
1.0351e-05
1.0351e-05
1.0351e-05
1.0351e-05
1.0351e-05
1.0351e-05
1.0351e-05
1.0351e-05
1.0351e-05
1.0351e-05
1.0351e-05
1.0351e-05
1.0351e-05
1.0351e-05
1.0351e-05
1.0351e-05
1.0351e-05
1.0351e-05
1.0351e-05
1.0351e-05
1.0351e-05
1.0351e-05
1.0351e-05
1.0351e-05
1.0351e-05
1.0351e-05
1.0351e-05
1.0351e-05
1.0351e-05
1.0351e-05
1.0351e-05
1.0351e-05
1.0351e-05
1.0351e-05
1.0351e-05
1.0351e-05
1.0351e-05
1.0351e-05
1.0351e-05
1.0351e-05
1.0351e-05
1.0351e-05
1.0351e-05
1.0351e-05
1.0351e-05
1.0351e-05
1.0351e-05
1.0351e-05
1.0351e-05
1.0351e-05
1.0351e-05
1.0351e-05
1.0351e-05
1.0351e-05
1.0351e-05
1.0351e-05
1.0351e-05
1.0351e-05
1.0351e-05
1.0351e-05
1.0351e-05
1.0351e-05
1.0351e-05
1.0351e-05
1.0351e-05
1.0351e-05
1.0351e-05
1.0351e-05
1.0351e-05
1.0351e-05
1.0351e-05
1.0351e-05
1.0351e-05
1.0351e-05
1.0351e-05
1.0351e-05
1.0351e-05
1.0351e-05
1.0351e-05
1.0351e-05
1.0351e-05
1.0351e-05
1.0351e-05
1.0351e-05
1.0351e-05
1.0351e-05
1.0351e-05
1.0351e-05
1.0351e-05
1.0351e-05
1.0351e-05
1.0351e-05
1.0351e-05
1.0351e-05
1.0351e-05
1.0351e-05
1.0351e-05
1.0351e-05
1.0351e-05
1.0351e-05
1.0351e-05
1.0351e-05
1.0351e-05
1.0351e-05
1.0351e-05
1.0351e-05
1.0351e-05
1.0351e-05
1.0351e-05
1.0351e-05
1.0351e-05
1.0351e-05
1.0351e-05
1.0351e-05
1.0351e-05
1.0351e-05
1.0351e-05
1.0351e-05
1.0351e-05
1.0351e-05
1.0351e-05
1.0351e-05
1.0351e-05
1.0351e-05
1.0351e-05
1.0351e-05
1.0351e-05
1.0351e-05
1.0351e-05
1.0351e-05
1.0351e-05
1.0351e-05
1.0351e-05
1.0351e-05
1.0351e-05
1.0351e-05
1.0351e-05
1.0351e-05
1.0351e-05
1.0351e-05
1.0351e-05
1.0351e-05
1.0351e-05
1.0351e-05
1.0351e-05
1.0351e-05
1.0351e-05
1.0351e-05
1.0351e-05
1.0351e-05
1.0351e-05
1.0351e-05
1.0351e-05
1.0351e-05
1.0351e-05
1.0351e-05
1.0351e-05
1.0351e-05
1.0351e-05
1.0351e-05
1.03511e-05
1.03511e-05
1.03512e-05
1.0351e-05
1.0351e-05
1.0351e-05
1.0351e-05
1.0351e-05
1.0351e-05
1.0351e-05
1.0351e-05
1.0351e-05
1.0351e-05
1.0351e-05
1.0351e-05
1.0351e-05
1.0351e-05
1.0351e-05
1.0351e-05
1.0351e-05
1.0351e-05
1.0351e-05
1.0351e-05
1.0351e-05
1.0351e-05
1.0351e-05
1.0351e-05
1.0351e-05
1.0351e-05
1.0351e-05
1.0351e-05
1.0351e-05
1.0351e-05
1.0351e-05
1.0351e-05
1.0351e-05
1.0351e-05
1.0351e-05
1.0351e-05
1.0351e-05
1.0351e-05
1.0351e-05
1.0351e-05
1.0351e-05
1.0351e-05
1.0351e-05
1.0351e-05
1.03511e-05
1.03511e-05
1.03512e-05
1.03512e-05
1.03514e-05
1.03516e-05
1.0351e-05
1.0351e-05
1.0351e-05
1.0351e-05
1.0351e-05
1.0351e-05
1.0351e-05
1.0351e-05
1.0351e-05
1.0351e-05
1.0351e-05
1.0351e-05
1.0351e-05
1.0351e-05
1.0351e-05
1.0351e-05
1.0351e-05
1.0351e-05
1.0351e-05
1.0351e-05
1.0351e-05
1.0351e-05
1.0351e-05
1.0351e-05
1.0351e-05
1.0351e-05
1.0351e-05
1.0351e-05
1.0351e-05
1.0351e-05
1.0351e-05
1.0351e-05
1.0351e-05
1.0351e-05
1.0351e-05
1.0351e-05
1.0351e-05
1.0351e-05
1.0351e-05
1.0351e-05
1.0351e-05
1.03511e-05
1.03511e-05
1.03512e-05
1.03513e-05
1.03514e-05
1.03516e-05
1.03519e-05
1.03524e-05
1.03531e-05
1.0351e-05
1.0351e-05
1.0351e-05
1.0351e-05
1.0351e-05
1.0351e-05
1.0351e-05
1.0351e-05
1.0351e-05
1.0351e-05
1.0351e-05
1.0351e-05
1.0351e-05
1.0351e-05
1.0351e-05
1.0351e-05
1.0351e-05
1.0351e-05
1.0351e-05
1.0351e-05
1.0351e-05
1.0351e-05
1.0351e-05
1.0351e-05
1.0351e-05
1.0351e-05
1.0351e-05
1.0351e-05
1.0351e-05
1.0351e-05
1.0351e-05
1.0351e-05
1.0351e-05
1.0351e-05
1.0351e-05
1.0351e-05
1.0351e-05
1.03511e-05
1.03511e-05
1.03511e-05
1.03512e-05
1.03513e-05
1.03514e-05
1.03516e-05
1.03519e-05
1.03524e-05
1.03531e-05
1.03542e-05
1.03559e-05
1.03585e-05
1.0351e-05
1.0351e-05
1.0351e-05
1.0351e-05
1.0351e-05
1.0351e-05
1.0351e-05
1.0351e-05
1.0351e-05
1.0351e-05
1.0351e-05
1.0351e-05
1.0351e-05
1.0351e-05
1.0351e-05
1.0351e-05
1.0351e-05
1.0351e-05
1.0351e-05
1.0351e-05
1.0351e-05
1.0351e-05
1.0351e-05
1.0351e-05
1.0351e-05
1.0351e-05
1.0351e-05
1.0351e-05
1.0351e-05
1.0351e-05
1.0351e-05
1.0351e-05
1.0351e-05
1.0351e-05
1.03511e-05
1.03511e-05
1.03511e-05
1.03512e-05
1.03513e-05
1.03514e-05
1.03516e-05
1.03519e-05
1.03524e-05
1.03531e-05
1.03542e-05
1.03558e-05
1.03583e-05
1.03621e-05
1.0368e-05
1.03772e-05
1.0351e-05
1.0351e-05
1.0351e-05
1.0351e-05
1.0351e-05
1.0351e-05
1.0351e-05
1.0351e-05
1.0351e-05
1.0351e-05
1.0351e-05
1.0351e-05
1.0351e-05
1.0351e-05
1.0351e-05
1.0351e-05
1.0351e-05
1.0351e-05
1.0351e-05
1.0351e-05
1.0351e-05
1.0351e-05
1.0351e-05
1.0351e-05
1.0351e-05
1.0351e-05
1.0351e-05
1.0351e-05
1.0351e-05
1.0351e-05
1.0351e-05
1.03511e-05
1.03511e-05
1.03511e-05
1.03512e-05
1.03513e-05
1.03515e-05
1.03517e-05
1.0352e-05
1.03525e-05
1.03532e-05
1.03543e-05
1.0356e-05
1.03585e-05
1.03622e-05
1.03678e-05
1.03763e-05
1.03892e-05
1.0409e-05
1.044e-05
1.0351e-05
1.0351e-05
1.0351e-05
1.0351e-05
1.0351e-05
1.0351e-05
1.0351e-05
1.0351e-05
1.0351e-05
1.0351e-05
1.0351e-05
1.0351e-05
1.0351e-05
1.0351e-05
1.0351e-05
1.0351e-05
1.0351e-05
1.0351e-05
1.0351e-05
1.0351e-05
1.0351e-05
1.0351e-05
1.0351e-05
1.0351e-05
1.0351e-05
1.0351e-05
1.0351e-05
1.03511e-05
1.03511e-05
1.03511e-05
1.03512e-05
1.03512e-05
1.03513e-05
1.03515e-05
1.03517e-05
1.03521e-05
1.03526e-05
1.03534e-05
1.03545e-05
1.03562e-05
1.03587e-05
1.03625e-05
1.03681e-05
1.03766e-05
1.03892e-05
1.04081e-05
1.04366e-05
1.04794e-05
1.05441e-05
1.06434e-05
1.0351e-05
1.0351e-05
1.0351e-05
1.0351e-05
1.0351e-05
1.0351e-05
1.0351e-05
1.0351e-05
1.0351e-05
1.0351e-05
1.0351e-05
1.0351e-05
1.0351e-05
1.0351e-05
1.0351e-05
1.0351e-05
1.0351e-05
1.0351e-05
1.0351e-05
1.0351e-05
1.0351e-05
1.0351e-05
1.0351e-05
1.0351e-05
1.03511e-05
1.03511e-05
1.03511e-05
1.03512e-05
1.03513e-05
1.03514e-05
1.03516e-05
1.03518e-05
1.03522e-05
1.03528e-05
1.03536e-05
1.03548e-05
1.03566e-05
1.03592e-05
1.03631e-05
1.03688e-05
1.03773e-05
1.039e-05
1.04087e-05
1.04367e-05
1.04782e-05
1.05398e-05
1.06311e-05
1.0766e-05
1.09648e-05
1.12575e-05
1.0351e-05
1.0351e-05
1.0351e-05
1.0351e-05
1.0351e-05
1.0351e-05
1.0351e-05
1.0351e-05
1.0351e-05
1.0351e-05
1.0351e-05
1.0351e-05
1.0351e-05
1.0351e-05
1.0351e-05
1.0351e-05
1.0351e-05
1.0351e-05
1.0351e-05
1.0351e-05
1.03511e-05
1.03511e-05
1.03511e-05
1.03512e-05
1.03512e-05
1.03513e-05
1.03515e-05
1.03517e-05
1.0352e-05
1.03524e-05
1.0353e-05
1.03539e-05
1.03552e-05
1.03571e-05
1.03598e-05
1.03639e-05
1.03699e-05
1.03786e-05
1.03915e-05
1.04105e-05
1.04385e-05
1.04797e-05
1.05403e-05
1.06293e-05
1.07592e-05
1.09476e-05
1.1218e-05
1.16004e-05
1.2132e-05
1.28556e-05
1.0351e-05
1.0351e-05
1.0351e-05
1.0351e-05
1.0351e-05
1.0351e-05
1.0351e-05
1.0351e-05
1.0351e-05
1.0351e-05
1.0351e-05
1.0351e-05
1.0351e-05
1.0351e-05
1.0351e-05
1.0351e-05
1.03511e-05
1.03511e-05
1.03511e-05
1.03511e-05
1.03512e-05
1.03513e-05
1.03514e-05
1.03515e-05
1.03518e-05
1.03521e-05
1.03526e-05
1.03533e-05
1.03543e-05
1.03557e-05
1.03577e-05
1.03607e-05
1.03651e-05
1.03714e-05
1.03806e-05
1.03939e-05
1.04135e-05
1.0442e-05
1.04837e-05
1.05445e-05
1.06328e-05
1.07607e-05
1.09446e-05
1.12062e-05
1.15727e-05
1.20764e-05
1.27511e-05
1.36287e-05
1.47339e-05
1.60772e-05
1.0351e-05
1.0351e-05
1.0351e-05
1.0351e-05
1.0351e-05
1.0351e-05
1.0351e-05
1.0351e-05
1.0351e-05
1.0351e-05
1.0351e-05
1.0351e-05
1.0351e-05
1.03511e-05
1.03511e-05
1.03511e-05
1.03512e-05
1.03512e-05
1.03513e-05
1.03515e-05
1.03517e-05
1.03519e-05
1.03523e-05
1.03529e-05
1.03536e-05
1.03547e-05
1.03563e-05
1.03586e-05
1.03619e-05
1.03666e-05
1.03734e-05
1.03832e-05
1.03974e-05
1.04179e-05
1.04475e-05
1.04904e-05
1.05524e-05
1.06417e-05
1.07699e-05
1.09525e-05
1.12101e-05
1.15683e-05
1.2057e-05
1.27077e-05
1.3549e-05
1.46014e-05
1.5872e-05
1.73524e-05
1.90211e-05
2.08411e-05
1.0351e-05
1.0351e-05
1.0351e-05
1.0351e-05
1.0351e-05
1.0351e-05
1.0351e-05
1.0351e-05
1.0351e-05
1.03511e-05
1.03511e-05
1.03511e-05
1.03512e-05
1.03512e-05
1.03513e-05
1.03514e-05
1.03516e-05
1.03518e-05
1.03521e-05
1.03526e-05
1.03532e-05
1.03541e-05
1.03554e-05
1.03572e-05
1.03597e-05
1.03634e-05
1.03686e-05
1.03761e-05
1.03867e-05
1.0402e-05
1.04238e-05
1.04552e-05
1.05002e-05
1.05645e-05
1.06564e-05
1.0787e-05
1.09714e-05
1.12292e-05
1.15847e-05
1.20659e-05
1.27022e-05
1.35206e-05
1.45402e-05
1.5768e-05
1.71958e-05
1.88006e-05
2.05479e-05
2.23969e-05
2.43056e-05
2.62259e-05
1.0351e-05
1.0351e-05
1.0351e-05
1.0351e-05
1.0351e-05
1.03511e-05
1.03511e-05
1.03511e-05
1.03511e-05
1.03512e-05
1.03513e-05
1.03514e-05
1.03515e-05
1.03517e-05
1.0352e-05
1.03524e-05
1.03529e-05
1.03537e-05
1.03547e-05
1.03562e-05
1.03583e-05
1.03612e-05
1.03654e-05
1.03713e-05
1.03796e-05
1.03913e-05
1.04081e-05
1.04318e-05
1.04656e-05
1.05135e-05
1.05814e-05
1.06776e-05
1.08129e-05
1.10022e-05
1.12643e-05
1.16223e-05
1.21027e-05
1.27329e-05
1.35379e-05
1.45356e-05
1.57325e-05
1.71217e-05
1.86822e-05
2.03821e-05
2.21825e-05
2.40409e-05
2.59114e-05
2.77512e-05
2.95224e-05
3.11935e-05
1.0351e-05
1.03511e-05
1.03511e-05
1.03511e-05
1.03511e-05
1.03512e-05
1.03513e-05
1.03514e-05
1.03515e-05
1.03517e-05
1.03519e-05
1.03523e-05
1.03527e-05
1.03534e-05
1.03543e-05
1.03556e-05
1.03573e-05
1.03598e-05
1.03632e-05
1.0368e-05
1.03747e-05
1.03841e-05
1.03974e-05
1.0416e-05
1.04423e-05
1.04792e-05
1.05312e-05
1.06041e-05
1.07064e-05
1.08489e-05
1.10463e-05
1.13168e-05
1.16826e-05
1.21686e-05
1.28004e-05
1.3601e-05
1.45862e-05
1.5762e-05
1.71217e-05
1.86461e-05
2.03061e-05
2.20656e-05
2.38856e-05
2.57247e-05
2.75398e-05
2.92931e-05
3.0948e-05
3.24633e-05
3.37919e-05
3.49115e-05
1.03511e-05
1.03511e-05
1.03512e-05
1.03513e-05
1.03514e-05
1.03515e-05
1.03517e-05
1.03519e-05
1.03522e-05
1.03526e-05
1.03532e-05
1.0354e-05
1.03551e-05
1.03567e-05
1.03588e-05
1.03617e-05
1.03658e-05
1.03714e-05
1.03792e-05
1.03901e-05
1.04053e-05
1.04264e-05
1.04559e-05
1.0497e-05
1.05543e-05
1.06339e-05
1.07445e-05
1.08969e-05
1.11058e-05
1.13891e-05
1.1768e-05
1.2266e-05
1.29068e-05
1.37111e-05
1.46928e-05
1.58564e-05
1.7195e-05
1.86907e-05
2.03164e-05
2.20388e-05
2.38221e-05
2.56288e-05
2.74193e-05
2.91569e-05
3.08084e-05
3.23376e-05
3.37017e-05
3.48612e-05
3.57961e-05
3.65095e-05
3.70402e-05
1.03514e-05
1.03515e-05
1.03517e-05
1.03519e-05
1.03522e-05
1.03526e-05
1.03531e-05
1.03539e-05
1.03549e-05
1.03563e-05
1.03582e-05
1.03608e-05
1.03644e-05
1.03692e-05
1.0376e-05
1.03852e-05
1.0398e-05
1.04156e-05
1.044e-05
1.04736e-05
1.05201e-05
1.05843e-05
1.06727e-05
1.07939e-05
1.09595e-05
1.11839e-05
1.14845e-05
1.1882e-05
1.23985e-05
1.30554e-05
1.38712e-05
1.48575e-05
1.6017e-05
1.73422e-05
1.88159e-05
2.04125e-05
2.21015e-05
2.38495e-05
2.56227e-05
2.73851e-05
2.91019e-05
3.07422e-05
3.22748e-05
3.36625e-05
3.48659e-05
3.58577e-05
3.66329e-05
3.72096e-05
3.76209e-05
3.79016e-05
3.8094e-05
1.03519e-05
1.03522e-05
1.03526e-05
1.03531e-05
1.03538e-05
1.03548e-05
1.03561e-05
1.03579e-05
1.03603e-05
1.03635e-05
1.03679e-05
1.03739e-05
1.03821e-05
1.03932e-05
1.04084e-05
1.04293e-05
1.04578e-05
1.04968e-05
1.05502e-05
1.06232e-05
1.07227e-05
1.08578e-05
1.10402e-05
1.12844e-05
1.16076e-05
1.20296e-05
1.25709e-05
1.3251e-05
1.40856e-05
1.50838e-05
1.62464e-05
1.7565e-05
1.90224e-05
2.05948e-05
2.22536e-05
2.39681e-05
2.57073e-05
2.7439e-05
2.91305e-05
3.0753e-05
3.22787e-05
3.36757e-05
3.49075e-05
3.59438e-05
3.6772e-05
3.74015e-05
3.78583e-05
3.81761e-05
3.83896e-05
3.8528e-05
3.86143e-05
3.86697e-05
1.03539e-05
1.03549e-05
1.03561e-05
1.03578e-05
1.03601e-05
1.03631e-05
1.03672e-05
1.03727e-05
1.03802e-05
1.03903e-05
1.04039e-05
1.04223e-05
1.04473e-05
1.04813e-05
1.05272e-05
1.05896e-05
1.06738e-05
1.07875e-05
1.09401e-05
1.11436e-05
1.14126e-05
1.17642e-05
1.22169e-05
1.27898e-05
1.34998e-05
1.43599e-05
1.53767e-05
1.65485e-05
1.7866e-05
1.93122e-05
2.08643e-05
2.24957e-05
2.41781e-05
2.58832e-05
2.75821e-05
2.92447e-05
3.08436e-05
3.23541e-05
3.37488e-05
3.49949e-05
3.60615e-05
3.69309e-05
3.76053e-05
3.81048e-05
3.84585e-05
3.8699e-05
3.88566e-05
3.89555e-05
3.90147e-05
3.90464e-05
3.90556e-05
3.90605e-05
1.03602e-05
1.03632e-05
1.03671e-05
1.03724e-05
1.03794e-05
1.03888e-05
1.04014e-05
1.04184e-05
1.04411e-05
1.04715e-05
1.05125e-05
1.05675e-05
1.06412e-05
1.07399e-05
1.08715e-05
1.1046e-05
1.12758e-05
1.15755e-05
1.19617e-05
1.24518e-05
1.30628e-05
1.38093e-05
1.47011e-05
1.57419e-05
1.69282e-05
1.82491e-05
1.96877e-05
2.12225e-05
2.28285e-05
2.44798e-05
2.61505e-05
2.78148e-05
2.94452e-05
3.10161e-05
3.25048e-05
3.38876e-05
3.51356e-05
3.62191e-05
3.71178e-05
3.78278e-05
3.83633e-05
3.87493e-05
3.90159e-05
3.91935e-05
3.93055e-05
3.93721e-05
3.94093e-05
3.94227e-05
3.94204e-05
3.94165e-05
3.94053e-05
3.93822e-05
1.03797e-05
1.03888e-05
1.04008e-05
1.04169e-05
1.04382e-05
1.04665e-05
1.05042e-05
1.05544e-05
1.0621e-05
1.07095e-05
1.08265e-05
1.09806e-05
1.11824e-05
1.14446e-05
1.17816e-05
1.22093e-05
1.27437e-05
1.33995e-05
1.41883e-05
1.51171e-05
1.61865e-05
1.73908e-05
1.87182e-05
2.01519e-05
2.16712e-05
2.3253e-05
2.48737e-05
2.65097e-05
2.81376e-05
2.97329e-05
3.12717e-05
3.2733e-05
3.40959e-05
3.53355e-05
3.64239e-05
3.73398e-05
3.80752e-05
3.86391e-05
3.90528e-05
3.9343e-05
3.95383e-05
3.96636e-05
3.97383e-05
3.9781e-05
3.97976e-05
3.97943e-05
3.97876e-05
3.97761e-05
3.97521e-05
3.97184e-05
3.96798e-05
3.96368e-05
1.04383e-05
1.04656e-05
1.05014e-05
1.05487e-05
1.0611e-05
1.06928e-05
1.08001e-05
1.09405e-05
1.11229e-05
1.13586e-05
1.16602e-05
1.20419e-05
1.25185e-05
1.31041e-05
1.38108e-05
1.46471e-05
1.56168e-05
1.67178e-05
1.79425e-05
1.92781e-05
2.07079e-05
2.22125e-05
2.37705e-05
2.53604e-05
2.69607e-05
2.85505e-05
3.01078e-05
3.16105e-05
3.30394e-05
3.43758e-05
3.5598e-05
3.6681e-05
3.76029e-05
3.83535e-05
3.89376e-05
3.93727e-05
3.96824e-05
3.98935e-05
4.00313e-05
4.01138e-05
4.01603e-05
4.01811e-05
4.01785e-05
4.01685e-05
4.01547e-05
4.01328e-05
4.00992e-05
4.00592e-05
4.00136e-05
3.99647e-05
3.9916e-05
3.9869e-05
1.06099e-05
1.0688e-05
1.07897e-05
1.09213e-05
1.10912e-05
1.13091e-05
1.15862e-05
1.19353e-05
1.23697e-05
1.29026e-05
1.3546e-05
1.43089e-05
1.51966e-05
1.62098e-05
1.73439e-05
1.85894e-05
1.99332e-05
2.13589e-05
2.28483e-05
2.43819e-05
2.59399e-05
2.75031e-05
2.90529e-05
3.05693e-05
3.20324e-05
3.34243e-05
3.47285e-05
3.59259e-05
3.69938e-05
3.79114e-05
3.86673e-05
3.92633e-05
3.9713e-05
4.00374e-05
4.02615e-05
4.04093e-05
4.04987e-05
4.05492e-05
4.05733e-05
4.05714e-05
4.0559e-05
4.05421e-05
4.05199e-05
4.04864e-05
4.04452e-05
4.03997e-05
4.03489e-05
4.02967e-05
4.02449e-05
4.01939e-05
4.01435e-05
4.00943e-05
1.1084e-05
1.12912e-05
1.15528e-05
1.18802e-05
1.22854e-05
1.27807e-05
1.33772e-05
1.40839e-05
1.49069e-05
1.58482e-05
1.69055e-05
1.80721e-05
1.93373e-05
2.06877e-05
2.21076e-05
2.35802e-05
2.50876e-05
2.6612e-05
2.81363e-05
2.96438e-05
3.11166e-05
3.25364e-05
3.38872e-05
3.51539e-05
3.63198e-05
3.73645e-05
3.82687e-05
3.90204e-05
3.96194e-05
4.00767e-05
4.04108e-05
4.06442e-05
4.07993e-05
4.08944e-05
4.09482e-05
4.09738e-05
4.09728e-05
4.09598e-05
4.09392e-05
4.09145e-05
4.08817e-05
4.08397e-05
4.07927e-05
4.07404e-05
4.06853e-05
4.06301e-05
4.05757e-05
4.05219e-05
4.04682e-05
4.04152e-05
4.03628e-05
4.03111e-05
1.27291e-05
1.3293e-05
1.3959e-05
1.47332e-05
1.56182e-05
1.66131e-05
1.7713e-05
1.89095e-05
2.01913e-05
2.15451e-05
2.29563e-05
2.44093e-05
2.58879e-05
2.73763e-05
2.88592e-05
3.03217e-05
3.17478e-05
3.31209e-05
3.44265e-05
3.56511e-05
3.67797e-05
3.77941e-05
3.86765e-05
3.94153e-05
4.0009e-05
4.04668e-05
4.08046e-05
4.10429e-05
4.12027e-05
4.13018e-05
4.13578e-05
4.13836e-05
4.13834e-05
4.13697e-05
4.13452e-05
4.1317e-05
4.12845e-05
4.12412e-05
4.11921e-05
4.11395e-05
4.10821e-05
4.10239e-05
4.0966e-05
4.09087e-05
4.08515e-05
4.07949e-05
4.07389e-05
4.06831e-05
4.06275e-05
4.05725e-05
4.0518e-05
1.55091e-05
1.64554e-05
1.75012e-05
1.86398e-05
1.98616e-05
2.11551e-05
2.25078e-05
2.39059e-05
2.53354e-05
2.67819e-05
2.82311e-05
2.96697e-05
3.10844e-05
3.24606e-05
3.37835e-05
3.504e-05
3.6218e-05
3.73041e-05
3.82818e-05
3.91351e-05
3.98531e-05
4.04339e-05
4.08851e-05
4.12208e-05
4.14595e-05
4.16208e-05
4.17214e-05
4.1778e-05
4.18038e-05
4.18032e-05
4.1788e-05
4.17608e-05
4.17289e-05
4.16944e-05
4.165e-05
4.15991e-05
4.1545e-05
4.14859e-05
4.14245e-05
4.13635e-05
4.1303e-05
4.12428e-05
4.11829e-05
4.11236e-05
4.10644e-05
4.10055e-05
4.09469e-05
4.08884e-05
4.08301e-05
4.07722e-05
4.07146e-05
1.96916e-05
2.09321e-05
2.2231e-05
2.35766e-05
2.49564e-05
2.63578e-05
2.7768e-05
2.91745e-05
3.05654e-05
3.1929e-05
3.3252e-05
3.45211e-05
3.57247e-05
3.6852e-05
3.78907e-05
3.88261e-05
3.96437e-05
4.03338e-05
4.08946e-05
4.13326e-05
4.16605e-05
4.18952e-05
4.20544e-05
4.21537e-05
4.22097e-05
4.22341e-05
4.22319e-05
4.22154e-05
4.21858e-05
4.21494e-05
4.21116e-05
4.2067e-05
4.2014e-05
4.19576e-05
4.1897e-05
4.18328e-05
4.17685e-05
4.17048e-05
4.16413e-05
4.15781e-05
4.15155e-05
4.14533e-05
4.13913e-05
4.13296e-05
4.1268e-05
4.12065e-05
4.1145e-05
4.10838e-05
4.10225e-05
4.09616e-05
4.0901e-05
2.61061e-05
2.74741e-05
2.88433e-05
3.02029e-05
3.15425e-05
3.28515e-05
3.41178e-05
3.53296e-05
3.64767e-05
3.75492e-05
3.85362e-05
3.94243e-05
4.02003e-05
4.08562e-05
4.13906e-05
4.18093e-05
4.21243e-05
4.23506e-05
4.2504e-05
4.25998e-05
4.26531e-05
4.26743e-05
4.267e-05
4.26518e-05
4.26193e-05
4.25785e-05
4.25368e-05
4.2491e-05
4.24354e-05
4.23762e-05
4.23147e-05
4.22483e-05
4.2181e-05
4.2114e-05
4.20473e-05
4.19807e-05
4.19147e-05
4.18493e-05
4.17842e-05
4.17193e-05
4.16547e-05
4.15902e-05
4.15259e-05
4.14616e-05
4.13973e-05
4.13331e-05
4.12689e-05
4.12046e-05
4.11407e-05
4.10771e-05
3.13121e-05
3.25966e-05
3.38474e-05