/*--------------------------------*- C++ -*----------------------------------*\
| =========                 |                                                 |
| \\      /  F ield         | OpenFOAM: The Open Source CFD Toolbox           |
|  \\    /   O peration     | Version:  v1706                                 |
|   \\  /    A nd           | Web:      www.OpenFOAM.com                      |
|    \\/     M anipulation  |                                                 |
\*---------------------------------------------------------------------------*/
FoamFile
{
    version     2.0;
    format      ascii;
    class       volScalarField;
    location    "3.2e-05";
    object      Tt;
}
// * * * * * * * * * * * * * * * * * * * * * * * * * * * * * * * * * * * * * //

dimensions      [0 0 0 1 0 0 0];


internalField   nonuniform List<scalar> 
30038
(
144.4
144.4
144.4
144.4
144.4
144.4
144.4
144.4
144.4
144.4
144.4
144.4
144.4
144.4
144.4
144.4
144.4
144.4
144.4
144.4
144.4
144.4
144.4
144.4
144.4
144.4
144.4
144.4
144.4
144.4
144.4
144.4
144.4
144.4
144.4
144.4
144.4
144.4
144.4
144.4
144.4
144.4
144.4
144.4
144.4
144.4
144.4
144.4
144.4
144.4
144.4
144.4
144.4
144.4
144.4
144.4
144.4
144.4
144.4
144.4
144.4
144.4
144.4
144.4
144.4
144.4
144.4
144.4
144.4
144.4
144.4
144.4
144.4
144.4
144.4
144.4
144.4
144.4
144.4
144.4
144.4
144.4
144.4
144.4
144.4
144.4
144.4
144.4
144.4
144.4
144.4
144.4
144.4
144.4
144.4
144.4
144.4
144.4
144.4
144.4
144.4
144.4
144.4
144.4
144.4
144.4
144.4
144.4
144.4
144.4
144.4
144.4
144.4
144.4
144.4
144.4
144.4
144.4
144.4
144.4
144.4
144.4
144.4
144.4
144.4
144.4
144.4
144.4
144.4
144.4
144.4
144.4
144.4
144.4
144.4
144.4
144.4
144.4
144.4
144.4
144.4
144.4
144.4
144.4
144.4
144.4
144.4
144.4
144.4
144.4
144.4
144.4
144.4
144.4
144.4
144.4
144.4
144.4
144.4
144.4
144.4
144.4
144.4
144.4
144.4
144.4
144.4
144.4
144.4
144.4
144.4
144.4
144.4
144.4
144.4
144.4
144.4
144.4
144.4
144.4
144.4
144.4
144.4
144.4
144.4
144.4
144.4
144.4
144.4
144.4
144.4
144.4
144.4
144.4
144.4
144.4
144.4
144.4
144.4
144.4
144.4
144.4
144.4
144.4
144.4
144.4
144.4
144.4
144.4
144.4
144.4
144.4
144.4
144.4
144.4
144.4
144.4
144.4
144.4
144.4
144.4
144.4
144.4
144.4
144.4
144.4
144.4
144.4
144.4
144.4
144.4
144.4
144.4
144.4
144.4
144.4
144.4
144.4
144.4
144.4
144.4
144.4
144.4
144.4
144.4
144.4
144.4
144.4
144.4
144.4
144.4
144.4
144.4
144.4
144.4
144.4
144.4
144.4
144.4
144.4
144.4
144.4
144.4
144.4
144.4
144.4
144.4
144.4
144.4
144.4
144.4
144.4
144.4
144.4
144.4
144.4
144.4
144.4
144.4
144.4
144.4
144.4
144.4
144.4
144.4
144.4
144.4
144.4
144.4
144.4
144.4
144.4
144.4
144.4
144.4
144.4
144.4
144.4
144.4
144.4
144.4
144.4
144.4
144.4
144.4
144.4
144.4
144.4
144.4
144.4
144.4
144.4
144.4
144.4
144.4
144.4
144.4
144.4
144.4
144.4
144.4
144.4
144.4
144.4
144.4
144.4
144.4
144.4
144.4
144.4
144.4
144.4
144.4
144.4
144.4
144.4
144.4
144.4
144.4
144.4
144.4
144.4
144.4
144.4
144.4
144.4
144.4
144.4
144.4
144.4
144.4
144.4
144.4
144.4
144.4
144.4
144.4
144.4
144.4
144.4
144.4
144.4
144.4
144.4
144.4
144.4
144.4
144.4
144.4
144.4
144.4
144.4
144.4
144.4
144.4
144.4
144.4
144.4
144.4
144.4
144.4
144.4
144.4
144.4
144.4
144.4
144.4
144.4
144.4
144.4
144.4
144.4
144.4
144.4
144.4
144.4
144.4
144.4
144.4
144.4
144.4
144.4
144.4
144.4
144.4
144.4
144.4
144.4
144.4
144.4
144.4
144.4
144.4
144.4
144.4
144.4
144.4
144.4
144.4
144.4
144.4
144.4
144.4
144.4
144.4
144.4
144.4
144.4
144.4
144.4
144.4
144.4
144.4
144.4
144.4
144.4
144.4
144.4
144.4
144.4
144.4
144.4
144.4
144.4
144.4
144.4
144.4
144.4
144.4
144.4
144.4
144.4
144.4
144.4
144.4
144.4
144.4
144.4
144.4
144.4
144.4
144.4
144.4
144.4
144.4
144.4
144.4
144.4
144.4
144.4
144.4
144.4
144.4
144.4
144.4
144.4
144.4
144.4
144.4
144.4
144.4
144.4
144.4
144.4
144.4
144.4
144.4
144.4
144.4
144.4
144.4
144.4
144.4
144.4
144.4
144.4
144.4
144.4
144.4
144.4
144.4
144.4
144.4
144.4
144.4
144.4
144.4
144.4
144.4
144.4
144.4
144.4
144.4
144.4
144.4
144.4
144.4
144.4
144.4
144.4
144.4
144.4
144.4
144.4
144.4
144.4
144.4
144.4
144.4
144.4
144.4
144.4
144.4
144.4
144.4
144.4
144.4
144.4
144.4
144.4
144.4
144.4
144.4
144.4
144.4
144.4
144.4
144.4
144.4
144.4
144.4
144.4
144.4
144.4
144.4
144.4
144.4
144.4
144.4
144.4
144.4
144.4
144.4
144.4
144.4
144.4
144.4
144.4
144.4
144.4
144.4
144.4
144.4
144.4
144.4
144.4
144.4
144.4
144.4
144.4
144.4
144.4
144.4
144.4
144.4
144.4
144.4
144.4
144.4
144.4
144.4
144.4
144.4
144.4
144.4
144.4
144.4
144.4
144.4
144.4
144.4
144.4
144.4
144.4
144.4
144.4
144.4
144.4
144.4
144.4
144.4
144.4
144.4
144.4
144.4
144.4
144.4
144.4
144.4
144.4
144.4
144.4
144.4
144.4
144.4
144.4
144.4
144.4
144.4
144.4
144.4
144.4
144.4
144.4
144.4
144.4
144.4
144.4
144.4
144.4
144.4
144.4
144.4
144.4
144.4
144.4
144.4
144.4
144.4
144.4
144.4
144.4
144.4
144.4
144.4
144.4
144.4
144.4
144.4
144.4
144.4
144.4
144.4
144.4
144.4
144.4
144.4
144.4
144.4
144.4
144.4
144.4
144.4
144.4
144.4
144.4
144.4
144.4
144.4
144.4
144.4
144.4
144.4
144.4
144.4
144.4
144.4
144.4
144.4
144.4
144.4
144.4
144.4
144.4
144.4
144.4
144.4
144.4
144.4
144.4
144.4
144.4
144.4
144.4
144.4
144.4
144.4
144.4
144.4
144.4
144.4
144.4
144.4
144.4
144.4
144.4
144.4
144.4
144.4
144.4
144.4
144.4
144.4
144.4
144.4
144.4
144.4
144.4
144.4
144.4
144.4
144.4
144.4
144.4
144.4
144.4
144.4
144.4
144.4
144.4
144.4
144.4
144.4
144.4
144.4
144.4
144.4
144.4
144.4
144.4
144.4
144.4
144.4
144.4
144.4
144.4
144.4
144.4
144.4
144.4
144.4
144.4
144.4
144.4
144.4
144.4
144.4
144.4
144.4
144.4
144.4
144.4
144.4
144.4
144.4
144.4
144.4
144.4
144.4
144.4
144.4
144.4
144.4
144.4
144.4
144.4
144.4
144.4
144.4
144.4
144.4
144.4
144.4
144.4
144.4
144.4
144.4
144.4
144.4
144.4
144.4
144.4
144.4
144.4
144.4
144.4
144.4
144.4
144.4
144.4
144.4
144.4
144.4
144.4
144.4
144.4
144.4
144.4
144.4
144.4
144.4
144.4
144.4
144.4
144.4
144.4
144.4
144.4
144.4
144.4
144.4
144.4
144.4
144.4
144.4
144.4
144.4
144.4
144.4
144.4
144.4
144.4
144.4
144.4
144.4
144.4
144.4
144.4
144.4
144.4
144.4
144.4
144.4
144.4
144.4
144.4
144.4
144.4
144.4
144.4
144.4
144.4
144.4
144.4
144.4
144.4
144.4
144.4
144.4
144.4
144.4
144.4
144.4
144.4
144.4
144.4
144.4
144.4
144.4
144.4
144.4
144.4
144.4
144.4
144.4
144.4
144.4
144.4
144.4
144.4
144.4
144.4
144.4
144.4
144.4
144.4
144.4
144.4
144.4
144.4
144.4
144.4
144.4
144.4
144.4
144.4
144.4
144.4
144.4
144.4
144.4
144.4
144.4
144.4
144.4
144.4
144.4
144.4
144.4
144.4
144.4
144.4
144.4
144.4
144.4
144.4
144.4
144.4
144.4
144.4
144.4
144.4
144.4
144.4
144.4
144.4
144.4
144.4
144.4
144.4
144.4
144.4
144.4
144.4
144.4
144.4
144.4
144.4
144.4
144.4
144.4
144.4
144.4
144.4
144.4
144.4
144.4
144.4
144.4
144.4
144.4
144.4
144.4
144.4
144.4
144.4
144.4
144.4
144.4
144.4
144.4
144.4
144.4
144.4
144.4
144.4
144.4
144.4
144.4
144.4
144.4
144.4
144.4
144.4
144.4
144.4
144.4
144.4
144.4
144.4
144.4
144.4
144.4
144.4
144.4
144.4
144.4
144.4
144.4
144.4
144.4
144.4
144.4
144.4
144.4
144.4
144.4
144.4
144.4
144.4
144.4
144.4
144.4
144.4
144.4
144.4
144.4
144.4
144.4
144.4
144.4
144.4
144.4
144.4
144.4
144.4
144.4
144.4
144.4
144.4
144.4
144.4
144.4
144.4
144.4
144.4
144.4
144.4
144.4
144.4
144.4
144.4
144.4
144.4
144.4
144.4
144.4
144.4
144.4
144.4
144.4
144.4
144.4
144.4
144.4
144.4
144.4
144.4
144.4
144.4
144.4
144.4
144.4
144.4
144.4
144.4
144.4
144.4
144.4
144.4
144.4
144.4
144.4
144.4
144.4
144.4
144.4
144.4
144.4
144.4
144.4
144.4
144.4
144.4
144.4
144.4
144.4
144.4
144.4
144.4
144.4
144.4
144.4
144.4
144.4
144.4
144.4
144.4
144.4
144.4
144.4
144.4
144.4
144.4
144.4
144.4
144.4
144.4
144.4
144.4
144.4
144.4
144.4
144.4
144.4
144.4
144.4
144.4
144.4
144.4
144.4
144.4
144.4
144.4
144.4
144.4
144.4
144.4
144.4
144.4
144.4
144.4
144.4
144.4
144.4
144.4
144.4
144.4
144.4
144.4
144.4
144.4
144.4
144.4
144.4
144.4
144.4
144.4
144.4
144.4
144.4
144.4
144.4
144.4
144.4
144.4
144.4
144.4
144.4
144.4
144.4
144.4
144.4
144.4
144.4
144.4
144.4
144.4
144.4
144.4
144.4
144.4
144.4
144.4
144.4
144.4
144.4
144.4
144.4
144.4
144.4
144.4
144.4
144.4
144.4
144.4
144.4
144.4
144.4
144.4
144.401
144.401
144.4
144.4
144.4
144.4
144.4
144.4
144.4
144.4
144.4
144.4
144.4
144.4
144.4
144.4
144.4
144.4
144.4
144.4
144.4
144.4
144.4
144.4
144.4
144.4
144.4
144.4
144.4
144.4
144.4
144.4
144.4
144.4
144.4
144.4
144.4
144.4
144.4
144.4
144.4
144.4
144.4
144.4
144.4
144.4
144.4
144.401
144.401
144.401
144.402
144.403
144.4
144.4
144.4
144.4
144.4
144.4
144.4
144.4
144.4
144.4
144.4
144.4
144.4
144.4
144.4
144.4
144.4
144.4
144.4
144.4
144.4
144.4
144.4
144.4
144.4
144.4
144.4
144.4
144.4
144.4
144.4
144.4
144.4
144.4
144.4
144.4
144.4
144.4
144.4
144.4
144.4
144.4
144.401
144.401
144.401
144.402
144.403
144.405
144.407
144.411
144.4
144.4
144.4
144.4
144.4
144.4
144.4
144.4
144.4
144.4
144.4
144.4
144.4
144.4
144.4
144.4
144.4
144.4
144.4
144.4
144.4
144.4
144.4
144.4
144.4
144.4
144.4
144.4
144.4
144.4
144.4
144.4
144.4
144.4
144.4
144.4
144.4
144.4
144.4
144.401
144.401
144.401
144.402
144.403
144.405
144.407
144.411
144.417
144.426
144.44
144.4
144.4
144.4
144.4
144.4
144.4
144.4
144.4
144.4
144.4
144.4
144.4
144.4
144.4
144.4
144.4
144.4
144.4
144.4
144.4
144.4
144.4
144.4
144.4
144.4
144.4
144.4
144.4
144.4
144.4
144.4
144.4
144.4
144.4
144.4
144.4
144.401
144.401
144.401
144.402
144.403
144.405
144.407
144.411
144.417
144.426
144.439
144.46
144.491
144.542
144.4
144.4
144.4
144.4
144.4
144.4
144.4
144.4
144.4
144.4
144.4
144.4
144.4
144.4
144.4
144.4
144.4
144.4
144.4
144.4
144.4
144.4
144.4
144.4
144.4
144.4
144.4
144.4
144.4
144.4
144.4
144.4
144.401
144.401
144.401
144.402
144.402
144.404
144.405
144.408
144.412
144.418
144.427
144.44
144.461
144.491
144.538
144.61
144.72
144.894
144.4
144.4
144.4
144.4
144.4
144.4
144.4
144.4
144.4
144.4
144.4
144.4
144.4
144.4
144.4
144.4
144.4
144.4
144.4
144.4
144.4
144.4
144.4
144.4
144.4
144.4
144.4
144.4
144.4
144.401
144.401
144.401
144.402
144.403
144.404
144.406
144.409
144.413
144.419
144.428
144.442
144.463
144.494
144.541
144.611
144.717
144.878
145.121
145.495
146.08
144.4
144.4
144.4
144.4
144.4
144.4
144.4
144.4
144.4
144.4
144.4
144.4
144.4
144.4
144.4
144.4
144.4
144.4
144.4
144.4
144.4
144.4
144.4
144.4
144.4
144.4
144.401
144.401
144.401
144.402
144.403
144.404
144.407
144.41
144.414
144.421
144.43
144.445
144.466
144.498
144.546
144.617
144.723
144.882
145.12
145.478
146.015
146.825
148.052
149.939
144.4
144.4
144.4
144.4
144.4
144.4
144.4
144.4
144.4
144.4
144.4
144.4
144.4
144.4
144.4
144.4
144.4
144.4
144.4
144.4
144.4
144.4
144.401
144.401
144.401
144.402
144.402
144.404
144.405
144.407
144.411
144.416
144.423
144.433
144.449
144.472
144.505
144.555
144.628
144.736
144.896
145.135
145.489
146.017
146.802
147.97
149.705
152.277
156.087
161.744
144.4
144.4
144.4
144.4
144.4
144.4
144.4
144.4
144.4
144.4
144.4
144.4
144.4
144.4
144.4
144.4
144.4
144.4
144.401
144.401
144.401
144.401
144.402
144.403
144.404
144.406
144.409
144.412
144.418
144.426
144.437
144.454
144.479
144.514
144.567
144.643
144.756
144.921
145.164
145.523
146.051
146.831
147.98
149.669
152.146
155.757
160.977
168.436
178.948
193.519
144.4
144.4
144.4
144.4
144.4
144.4
144.4
144.4
144.4
144.4
144.4
144.4
144.4
144.4
144.4
144.401
144.401
144.401
144.402
144.403
144.404
144.405
144.407
144.41
144.415
144.421
144.43
144.443
144.461
144.488
144.527
144.583
144.665
144.784
144.957
145.21
145.579
146.119
146.907
148.058
149.737
152.176
155.7
160.748
167.894
177.841
191.398
209.408
232.677
261.792
144.4
144.4
144.4
144.4
144.4
144.4
144.4
144.4
144.4
144.4
144.4
144.401
144.401
144.401
144.402
144.402
144.403
144.404
144.406
144.409
144.412
144.417
144.425
144.435
144.45
144.47
144.5
144.543
144.605
144.694
144.822
145.007
145.275
145.662
146.222
147.034
148.209
149.906
152.351
155.852
160.825
167.808
177.456
190.517
207.756
229.854
257.288
290.237
328.579
371.764
144.4
144.4
144.4
144.4
144.4
144.4
144.4
144.401
144.401
144.401
144.402
144.402
144.403
144.404
144.406
144.408
144.411
144.415
144.421
144.43
144.442
144.459
144.482
144.517
144.565
144.634
144.732
144.873
145.074
145.362
145.775
146.368
147.218
148.439
150.185
152.678
156.216
161.196
168.129
177.633
190.407
207.167
228.553
255.012
286.704
323.442
364.714
409.754
457.637
507.167
144.4
144.4
144.4
144.401
144.401
144.401
144.401
144.402
144.403
144.404
144.405
144.407
144.41
144.414
144.419
144.426
144.436
144.45
144.47
144.498
144.538
144.593
144.671
144.782
144.939
145.161
145.477
145.925
146.563
147.471
148.76
150.589
153.174
156.808
161.876
168.867
178.365
191.029
207.528
228.456
254.239
285.035
320.692
360.745
404.463
450.917
498.967
547.432
595.174
641.151
144.401
144.401
144.401
144.402
144.403
144.404
144.405
144.407
144.409
144.413
144.417
144.424
144.433
144.445
144.462
144.486
144.519
144.565
144.63
144.72
144.847
145.025
145.275
145.627
146.123
146.821
147.806
149.192
151.139
153.864
157.658
162.897
170.051
179.679
192.399
208.834
229.532
254.883
285.036
319.857
358.928
401.585
446.986
494.113
541.806
588.934
634.34
676.672
714.367
746.541
144.402
144.403
144.404
144.405
144.407
144.409
144.412
144.417
144.423
144.431
144.442
144.457
144.478
144.507
144.547
144.602
144.679
144.785
144.933
145.138
145.424
145.823
146.38
147.158
148.244
149.759
151.865
154.785
158.807
164.304
171.733
181.625
194.563
211.122
231.801
256.947
286.686
320.891
359.174
400.927
445.381
491.628
538.603
585.238
630.475
673.133
711.789
745.085
772.218
793.09
808.711
144.407
144.409
144.412
144.417
144.422
144.43
144.44
144.454
144.474
144.5
144.536
144.585
144.652
144.744
144.871
145.046
145.287
145.619
146.08
146.716
147.597
148.814
150.496
152.811
155.987
160.316
166.168
173.986
184.281
197.597
214.461
235.32
260.47
290.009
323.799
361.474
402.469
446.074
491.469
537.698
583.746
628.645
671.368
710.672
745.221
774.013
796.713
813.713
825.893
834.232
839.961
144.417
144.423
144.43
144.44
144.454
144.472
144.496
144.53
144.575
144.636
144.719
144.832
144.986
145.196
145.483
145.877
146.416
147.155
148.168
149.555
151.451
154.035
157.541
162.266
168.579
176.912
187.753
201.608
218.953
240.177
265.525
295.054
328.612
365.844
406.217
449.073
493.663
539.128
584.523
628.944
671.476
711.047
746.421
776.525
800.805
819.387
832.943
842.408
848.78
852.921
855.503
857.165
144.455
144.473
144.497
144.528
144.571
144.629
144.706
144.81
144.95
145.14
145.398
145.746
146.219
146.861
147.732
148.915
150.518
152.688
155.613
159.537
164.763
171.658
180.645
192.183
206.739
224.735
246.5
272.22
301.909
335.396
372.328
412.201
454.4
498.234
542.931
587.62
631.451
673.598
713.134
748.949
779.963
805.485
825.426
840.279
850.839
858.039
862.766
865.734
867.514
868.465
868.744
868.89
144.574
144.63
144.704
144.803
144.936
145.114
145.352
145.671
146.1
146.677
147.452
148.495
149.897
151.778
154.296
157.652
162.099
167.948
175.563
185.353
197.748
213.168
231.979
254.445
280.693
310.689
344.239
380.991
420.463
462.079
505.201
549.131
593.073
636.229
677.842
717.1
753.021
784.574
810.996
832.033
847.991
859.545
867.548
872.89
876.261
878.27
879.391
879.795
879.728
879.61
879.271
878.576
144.941
145.112
145.34
145.643
146.045
146.581
147.295
148.246
149.513
151.197
153.434
156.393
160.289
165.388
172.003
180.493
191.249
204.666
221.114
240.893
264.203
291.109
321.532
355.252
391.917
431.065
472.157
514.6
557.762
600.918
643.323
684.28
723.065
758.814
790.573
817.557
839.395
856.24
868.654
877.389
883.282
887.068
889.328
890.617
891.123
891.021
890.82
890.471
889.744
888.727
887.559
886.26
146.049
146.564
147.243
148.139
149.321
150.88
152.93
155.621
159.138
163.711
169.612
177.157
186.696
198.593
213.2
230.83
251.717
275.991
303.658
334.596
368.562
405.204
444.081
484.684
526.467
568.851
611.179
652.761
692.95
731.097
766.445
798.123
825.352
847.695
865.19
878.285
887.634
894.023
898.198
900.702
902.113
902.745
902.666
902.362
901.945
901.278
900.261
899.046
897.663
896.183
894.706
893.284
149.301
150.789
152.729
155.253
158.526
162.747
168.159
175.041
183.704
194.479
207.695
223.656
242.609
264.719
290.048
318.546
350.052
384.306
420.957
459.584
499.71
540.832
582.419
623.875
664.561
703.882
741.252
775.999
807.334
834.517
857.082
874.984
888.557
898.381
905.183
909.679
912.401
913.938
914.672
914.616
914.237
913.724
913.046
912.026
910.772
909.39
907.843
906.258
904.683
903.135
901.605
900.112
158.386
162.399
167.504
173.949
182.015
192
204.206
218.918
236.38
256.771
280.187
306.626
335.986
368.076
402.623
439.283
477.653
517.289
557.728
598.485
639.016
678.733
717.088
753.55
787.52
818.287
845.162
867.677
885.727
899.572
909.721
916.831
921.562
924.467
926.113
926.896
926.865
926.467
925.838
925.084
924.083
922.8
921.363
919.769
918.088
916.405
914.748
913.107
911.475
909.86
908.266
906.694
190.954
202.473
216.3
232.665
251.748
273.658
298.422
325.981
356.192
388.842
423.65
460.283
498.359
537.466
577.18
617.056
656.597
695.263
732.554
767.988
801.025
831.026
857.356
879.563
897.516
911.424
921.724
929.006
933.898
936.935
938.652
939.446
939.44
939.017
938.266
937.402
936.407
935.079
933.575
931.965
930.209
928.427
926.657
924.906
923.159
921.432
919.722
918.02
916.326
914.649
912.989
249.374
270.154
293.611
319.714
348.355
379.361
412.503
447.503
484.041
521.756
560.27
599.194
638.123
676.598
714.126
750.252
784.538
816.498
845.553
871.124
892.792
910.421
924.179
934.449
941.77
946.728
949.82
951.564
952.357
952.339
951.871
951.034
950.054
948.991
947.628
946.063
944.399
942.584
940.702
938.829
936.975
935.13
933.295
931.478
929.668
927.866
926.073
924.287
922.504
920.737
918.983
344.332
373.965
405.663
439.192
474.281
510.624
547.885
585.717
623.769
661.666
698.985
735.277
770.133
803.153
833.898
861.84
886.458
907.376
924.468
937.875
947.946
955.17
960.079
963.146
964.874
965.628
965.562
965.053
964.138
963.013
961.846
960.47
958.836
957.096
955.229
953.252
951.273
949.311
947.361
945.418
943.494
941.585
939.682
937.788
935.9
934.016
932.135
930.259
928.384
926.523
924.671
504.044
540.063
576.75
613.791
650.866
687.632
723.693
758.645
792.119
823.758
853.155
879.831
903.318
923.294
939.653
952.522
962.234
969.227
973.975
976.945
978.597
979.255
979.122
978.557
977.552
976.286
974.995
973.575
971.856
970.024
968.122
966.07
963.989
961.921
959.862
957.81
955.776
953.762
951.755
949.758
947.771
945.79
943.812
941.838
939.867
937.896
935.928
933.96
932.003
930.054
644.449
680.431
715.951
750.64
784.138
816.118
846.255
874.173
899.435
921.631
940.492
955.943
968.109
977.309
983.938
988.42
991.223
992.74
993.253
993.04
992.374
991.25
989.87
988.456
986.945
985.152
983.232
981.253
979.131
976.942
974.773
972.616
970.465
968.326
966.204
964.092
961.989
959.899
957.817
955.741
953.67
951.603
949.539
947.476
945.414
943.352
941.292
939.23
937.178
935.13
779.701
811.628
841.997
870.512
896.823
920.533
941.292
958.885
973.27
984.588
993.144
999.296
1003.41
1005.97
1007.29
1007.62
1007.31
1006.51
1005.25
1003.77
1002.21
1000.58
998.725
996.71
994.631
992.447
990.165
987.89
985.628
983.367
981.117
978.889
976.678
974.475
972.284
970.101
967.924
965.754
963.589
961.429
959.272
957.117
954.964
952.811
950.658
948.504
946.35
944.193
942.045
939.898
896.374
920.952
942.979
962.167
978.359
991.548
1001.9
1009.69
1015.25
1018.93
1021.17
1022.25
1022.35
1021.9
1020.95
1019.56
1017.95
1016.25
1014.49
1012.56
1010.44
1008.26
1006
1003.63
1001.25
998.887
996.525
994.169
991.833
989.515
987.205
984.908
982.625
980.351
978.084
975.823
973.566
971.313
969.064
966.817
964.573
962.329
960.086
957.842
955.596
953.349
951.101
948.849
946.603
944.358
984.096
998.777
1010.66
1019.95
1026.88
1031.77
1034.96
1036.81
1037.57
1037.43
1036.82
1035.7
1034.15
1032.4
1030.56
1028.67
1026.64
1024.42
1022.13
1019.8
1017.34
1014.85
1012.38
1009.92
1007.46
1005.02
1002.6
1000.18
997.784
995.398
993.021
990.652
988.292
985.939
983.592
981.25
978.91
976.573
974.238
971.904
969.571
967.238
964.903
962.567
960.229
957.887
955.544
953.195
950.852
948.507
1038.63
1044.64
1048.78
1051.42
1052.84
1053.22
1052.88
1052.03
1050.72
1049.01
1047.12
1045.15
1043.11
1040.95
1038.64
1036.24
1033.8
1031.27
1028.68
1026.1
1023.55
1020.98
1018.43
1015.91
1013.39
1010.89
1008.41
1005.93
1003.46
1001
998.552
996.107
993.668
991.235
988.806
986.38
983.956
981.533
979.111
976.689
974.266
971.842
969.416
966.986
964.554
962.118
959.678
957.233
954.791
952.345
1068.27
1069.23
1069.19
1068.62
1067.52
1065.99
1064.13
1062.09
1059.97
1057.79
1055.5
1053.09
1050.59
1048.04
1045.41
1042.73
1040.05
1037.39
1034.73
1032.07
1029.45
1026.83
1024.23
1021.64
1019.06
1016.49
1013.94
1011.39
1008.85
1006.32
1003.79
1001.27
998.748
996.233
993.721
991.21
988.701
986.191
983.681
981.17
978.657
976.141
973.622
971.098
968.571
966.039
963.502
960.959
958.419
955.872
1083.27
1081.5
1079.47
1077.28
1075.02
1072.7
1070.28
1067.76
1065.15
1062.49
1059.77
1056.99
1054.21
1051.45
1048.69
1045.93
1043.2
1040.49
1037.78
1035.09
1032.42
1029.75
1027.1
1024.45
1021.82
1019.19
1016.57
1013.95
1011.34
1008.74
1006.13
1003.53
1000.93
998.336
995.74
993.144
990.547
987.948
985.346
982.741
980.133
977.52
974.902
972.279
969.65
967.016
964.375
961.735
959.087
1092.69
1090.28
1087.82
1085.27
1082.63
1079.91
1077.14
1074.32
1071.45
1068.57
1065.71
1062.85
1059.99
1057.16
1054.35
1051.54
1048.76
1045.98
1043.22
1040.47
1037.73
1035
1032.27
1029.56
1026.85
1024.15
1021.45
1018.76
1016.07
1013.38
1010.7
1008.02
1005.33
1002.65
999.968
997.284
994.598
991.908
989.215
986.518
983.816
981.109
978.395
975.676
972.95
970.218
967.478
964.739
961.99
1100.45
1097.68
1094.86
1091.98
1089.06
1086.09
1083.11
1080.16
1077.21
1074.25
1071.32
1068.41
1065.51
1062.62
1059.75
1056.89
1054.04
1051.21
1048.38
1045.57
1042.76
1039.96
1037.16
1034.37
1031.59
1028.81
1026.04
1023.27
1020.5
1017.73
1014.97
1012.2
1009.43
1006.66
1003.89
1001.12
998.343
995.563
992.777
989.987
987.19
984.388
981.578
978.762
975.938
973.108
970.27
967.431
964.581
1103.97
1100.91
1097.84
1094.78
1091.74
1088.69
1085.66
1082.66
1079.66
1076.68
1073.71
1070.76
1067.81
1064.89
1061.97
1059.06
1056.16
1053.26
1050.38
1047.5
1044.63
1041.76
1038.9
1036.04
1033.18
1030.33
1027.48
1024.63
1021.78
1018.93
1016.08
1013.23
1010.37
1007.51
1004.65
1001.78
998.909
996.03
993.146
990.255
987.356
984.45
981.537
978.615
975.687
972.749
969.81
966.86
1109.57
1106.43
1103.29
1100.17
1097.08
1093.99
1090.91
1087.85
1084.81
1081.77
1078.75
1075.74
1072.73
1069.74
1066.76
1063.78
1060.82
1057.86
1054.9
1051.95
1049.01
1046.07
1043.13
1040.19
1037.26
1034.33
1031.4
1028.46
1025.53
1022.6
1019.66
1016.72
1013.77
1010.82
1007.87
1004.91
1001.95
998.974
995.994
993.008
990.013
987.01
983.999
980.98
977.953
974.917
971.879
968.829
1111.65
1108.47
1105.3
1102.16
1099.02
1095.89
1092.78
1089.68
1086.59
1083.51
1080.44
1077.37
1074.32
1071.27
1068.23
1065.19
1062.16
1059.13
1056.11
1053.09
1050.08
1047.06
1044.05
1041.04
1038.02
1035.01
1031.99
1028.98
1025.96
1022.93
1019.9
1016.87
1013.83
1010.78
1007.73
1004.67
1001.61
998.532
995.45
992.359
989.259
986.151
983.033
979.909
976.775
973.638
970.489
1116.61
1113.39
1110.17
1106.97
1103.79
1100.61
1097.44
1094.28
1091.13
1087.99
1084.85
1081.73
1078.6
1075.49
1072.38
1069.27
1066.17
1063.07
1059.98
1056.88
1053.79
1050.7
1047.6
1044.51
1041.42
1038.32
1035.22
1032.12
1029.01
1025.9
1022.78
1019.65
1016.52
1013.39
1010.24
1007.09
1003.93
1000.76
997.58
994.393
991.197
987.991
984.777
981.555
978.323
975.089
971.841
1118.04
1114.77
1111.52
1108.28
1105.04
1101.82
1098.6
1095.39
1092.18
1088.99
1085.79
1082.6
1079.42
1076.24
1073.06
1069.89
1066.72
1063.55
1060.37
1057.2
1054.03
1050.86
1047.68
1044.51
1041.32
1038.14
1034.95
1031.75
1028.55
1025.35
1022.13
1018.91
1015.68
1012.44
1009.19
1005.94
1002.67
999.401
996.117
992.824
989.522
986.211
982.892
979.564
976.234
972.89
1122.42
1119.1
1115.79
1112.49
1109.2
1105.92
1102.64
1099.36
1096.09
1092.83
1089.57
1086.31
1083.06
1079.81
1076.56
1073.31
1070.06
1066.82
1063.57
1060.32
1057.06
1053.81
1050.55
1047.29
1044.02
1040.75
1037.47
1034.19
1030.9
1027.6
1024.3
1020.98
1017.66
1014.33
1010.99
1007.64
1004.28
1000.91
997.532
994.144
990.746
987.339
983.924
980.501
977.075
973.635
1126.52
1123.15
1119.79
1116.43
1113.08
1109.73
1106.39
1103.05
1099.71
1096.38
1093.05
1089.73
1086.4
1083.08
1079.76
1076.43
1073.11
1069.78
1066.46
1063.13
1059.79
1056.45
1053.11
1049.77
1046.41
1043.06
1039.69
1036.32
1032.94
1029.55
1026.15
1022.75
1019.33
1015.91
1012.48
1009.03
1005.58
1002.11
998.639
995.156
991.663
988.162
984.652
981.135
977.615
974.081
1130.35
1126.92
1123.49
1120.08
1116.66
1113.25
1109.85
1106.44
1103.04
1099.64
1096.24
1092.85
1089.45
1086.05
1082.65
1079.25
1075.85
1072.45
1069.04
1065.63
1062.21
1058.79
1055.37
1051.93
1048.5
1045.05
1041.6
1038.14
1034.67
1031.19
1027.7
1024.2
1020.7
1017.18
1013.65
1010.11
1006.57
1003.01
999.441
995.863
992.277
988.681
985.078
981.467
977.857
974.237
1133.89
1130.4
1126.92
1123.44
1119.96
1116.49
1113.01
1109.54
1106.07
1102.6
1099.14
1095.67
1092.2
1088.72
1085.25
1081.77
1078.29
1074.81
1071.32
1067.83
1064.33
1060.82
1057.31
1053.79
1050.27
1046.74
1043.19
1039.64
1036.09
1032.52
1028.94
1025.35
1021.75
1018.14
1014.52
1010.89
1007.25
1003.6
999.938
996.266
992.586
988.902
985.214
981.519
977.823
974.117
1137.14
1133.59
1130.05
1126.51
1122.96
1119.42
1115.89
1112.35
1108.81
1105.27
1101.73
1098.18
1094.64
1091.09
1087.54
1083.98
1080.42
1076.86
1073.29
1069.72
1066.13
1062.54
1058.95
1055.34
1051.73
1048.11
1044.48
1040.84
1037.19
1033.54
1029.87
1026.19
1022.5
1018.8
1015.08
1011.36
1007.63
1003.88
1000.14
996.38
992.615
988.845
985.071
981.292
977.511
973.719
1140.11
1136.5
1132.89
1129.28
1125.67
1122.07
1118.46
1114.85
1111.24
1107.63
1104.01
1100.4
1096.78
1093.15
1089.52
1085.89
1082.25
1078.6
1074.95
1071.29
1067.63
1063.96
1060.27
1056.59
1052.89
1049.18
1045.46
1041.73
1038
1034.25
1030.49
1026.72
1022.94
1019.14
1015.34
1011.53
1007.72
1003.89
1000.05
996.212
992.363
988.506
984.646
980.781
976.917
973.042
1139.1
1135.43
1131.76
1128.08
1124.41
1120.73
1117.05
1113.37
1109.69
1106
1102.3
1098.61
1094.91
1091.2
1087.49
1083.77
1080.04
1076.31
1072.57
1068.82
1065.06
1061.29
1057.52
1053.73
1049.94
1046.13
1042.32
1038.49
1034.65
1030.8
1026.95
1023.08
1019.2
1015.32
1011.42
1007.52
1003.61
999.688
995.759
991.824
987.883
983.939
979.993
976.048
972.096
1141.41
1137.67
1133.93
1130.19
1126.45
1122.7
1118.95
1115.19
1111.44
1107.67
1103.9
1100.13
1096.35
1092.57
1088.77
1084.97
1081.17
1077.35
1073.53
1069.69
1065.85
1062
1058.14
1054.27
1050.39
1046.49
1042.59
1038.68
1034.76
1030.83
1026.89
1022.94
1018.98
1015.01
1011.03
1007.04
1003.04
999.035
995.022
991.005
986.983
982.96
978.935
974.914
970.886
1143.42
1139.61
1135.8
1131.99
1128.18
1124.36
1120.54
1116.71
1112.88
1109.04
1105.2
1101.34
1097.49
1093.62
1089.75
1085.87
1081.98
1078.08
1074.18
1070.26
1066.33
1062.4
1058.45
1054.5
1050.53
1046.56
1042.58
1038.58
1034.58
1030.57
1026.54
1022.51
1018.46
1014.41
1010.34
1006.27
1002.19
998.103
994.011
989.914
985.815
981.715
977.615
973.521
969.422
1141.25
1137.37
1133.49
1129.61
1125.72
1121.82
1117.92
1114.01
1110.1
1106.18
1102.25
1098.31
1094.37
1090.42
1086.46
1082.49
1078.51
1074.52
1070.52
1066.51
1062.5
1058.47
1054.44
1050.39
1046.34
1042.28
1038.2
1034.11
1030.01
1025.91
1021.79
1017.66
1013.52
1009.38
1005.22
1001.07
996.9
992.73
988.558
984.384
980.212
976.041
971.878
967.711
1142.57
1138.63
1134.68
1130.72
1126.76
1122.79
1118.82
1114.83
1110.84
1106.85
1102.84
1098.83
1094.8
1090.77
1086.73
1082.68
1078.63
1074.56
1070.48
1066.4
1062.31
1058.2
1054.09
1049.96
1045.82
1041.68
1037.52
1033.35
1029.17
1024.98
1020.78
1016.58
1012.36
1008.14
1003.91
999.672
995.432
991.189
986.944
982.699
978.458
974.22
969.991
965.761
1143.59
1139.58
1135.56
1131.53
1127.49
1123.45
1119.4
1115.34
1111.28
1107.2
1103.12
1099.03
1094.93
1090.83
1086.71
1082.59
1078.46
1074.31
1070.16
1066
1061.82
1057.64
1053.44
1049.23
1045.02
1040.79
1036.55
1032.3
1028.05
1023.78
1019.51
1015.22
1010.93
1006.63
1002.33
998.019
993.707
989.393
985.079
980.768
976.461
972.16
967.869
963.58
1144.3
1140.21
1136.12
1132.02
1127.91
1123.8
1119.67
1115.54
1111.41
1107.26
1103.1
1098.94
1094.77
1090.59
1086.4
1082.2
1077.99
1073.77
1069.54
1065.29
1061.04
1056.78
1052.5
1048.22
1043.92
1039.62
1035.31
1030.98
1026.65
1022.31
1017.96
1013.6
1009.24
1004.87
1000.49
996.112
991.732
987.351
982.973
978.597
974.229
969.869
965.521
961.178
1140.53
1136.37
1132.2
1128.03
1123.84
1119.65
1115.45
1111.24
1107.02
1102.8
1098.56
1094.31
1090.05
1085.79
1081.51
1077.22
1072.92
1068.62
1064.3
1059.97
1055.63
1051.28
1046.92
1042.55
1038.17
1033.78
1029.39
1024.98
1020.57
1016.15
1011.72
1007.28
1002.85
998.404
993.96
989.515
985.072
980.631
976.197
971.771
967.356
962.956
958.562
1140.55
1136.32
1132.09
1127.84
1123.59
1119.33
1115.06
1110.77
1106.48
1102.18
1097.87
1093.55
1089.22
1084.88
1080.52
1076.16
1071.79
1067.41
1063.02
1058.61
1054.2
1049.78
1045.35
1040.91
1036.45
1032
1027.53
1023.05
1018.57
1014.08
1009.59
1005.09
1000.58
996.077
991.57
987.064
982.562
978.064
973.575
969.096
964.63
960.181
955.741
1140.28
1135.98
1131.67
1127.36
1123.03
1118.7
1114.36
1110
1105.64
1101.27
1096.88
1092.49
1088.09
1083.67
1079.25
1074.82
1070.37
1065.92
1061.45
1056.98
1052.5
1048
1043.5
1038.99
1034.47
1029.95
1025.41
1020.87
1016.32
1011.77
1007.21
1002.65
998.081
993.516
988.951
984.388
979.831
975.28
970.739
966.211
961.698
957.205
952.724
1135.32
1130.95
1126.57
1122.17
1117.77
1113.36
1108.93
1104.5
1100.06
1095.6
1091.14
1086.67
1082.18
1077.69
1073.19
1068.67
1064.15
1059.62
1055.08
1050.52
1045.96
1041.4
1036.82
1032.23
1027.64
1023.04
1018.44
1013.83
1009.21
1004.59
999.974
995.352
990.73
986.11
981.495
976.886
972.287
967.699
963.126
958.571
954.039
949.52
1134.37
1129.92
1125.47
1121.01
1116.54
1112.06
1107.57
1103.07
1098.56
1094.03
1089.5
1084.96
1080.41
1075.85
1071.28
1066.7
1062.11
1057.51
1052.91
1048.29
1043.67
1039.03
1034.39
1029.75
1025.09
1020.43
1015.77
1011.1
1006.43
1001.75
997.077
992.401
987.728
983.058
978.393
973.738
969.093
964.462
959.85
955.257
950.689
946.138
1133.1
1128.6
1124.08
1119.55
1115.02
1110.47
1105.91
1101.35
1096.77
1092.18
1087.59