/*--------------------------------*- C++ -*----------------------------------*\
| =========                 |                                                 |
| \\      /  F ield         | OpenFOAM: The Open Source CFD Toolbox           |
|  \\    /   O peration     | Version:  v1706                                 |
|   \\  /    A nd           | Web:      www.OpenFOAM.com                      |
|    \\/     M anipulation  |                                                 |
\*---------------------------------------------------------------------------*/
FoamFile
{
    version     2.0;
    format      ascii;
    class       volScalarField;
    location    "3.2e-05";
    object      Tv;
}
// * * * * * * * * * * * * * * * * * * * * * * * * * * * * * * * * * * * * * //

dimensions      [0 0 0 1 0 0 0];


internalField   nonuniform List<scalar> 
30038
(
144.4
144.4
144.4
144.4
144.4
144.4
144.4
144.4
144.4
144.4
144.4
144.4
144.4
144.4
144.4
144.4
144.4
144.4
144.4
144.4
144.4
144.4
144.4
144.4
144.4
144.4
144.4
144.4
144.4
144.4
144.4
144.4
144.4
144.4
144.4
144.4
144.4
144.4
144.4
144.4
144.4
144.4
144.4
144.4
144.4
144.4
144.4
144.4
144.4
144.4
144.4
144.4
144.4
144.4
144.4
144.4
144.4
144.4
144.4
144.4
144.4
144.4
144.4
144.4
144.4
144.4
144.4
144.4
144.4
144.4
144.4
144.4
144.4
144.4
144.4
144.4
144.4
144.4
144.4
144.4
144.4
144.4
144.4
144.4
144.4
144.4
144.4
144.4
144.4
144.4
144.4
144.4
144.4
144.4
144.4
144.4
144.4
144.4
144.4
144.4
144.4
144.4
144.4
144.4
144.4
144.4
144.4
144.4
144.4
144.4
144.4
144.4
144.4
144.4
144.4
144.4
144.4
144.4
144.4
144.4
144.4
144.4
144.4
144.4
144.4
144.4
144.4
144.4
144.4
144.4
144.4
144.4
144.4
144.4
144.4
144.4
144.4
144.4
144.4
144.4
144.4
144.4
144.4
144.4
144.4
144.4
144.4
144.4
144.4
144.4
144.4
144.4
144.4
144.4
144.4
144.4
144.4
144.4
144.4
144.4
144.4
144.4
144.4
144.4
144.4
144.4
144.4
144.4
144.4
144.4
144.4
144.4
144.4
144.4
144.4
144.4
144.4
144.4
144.4
144.4
144.4
144.4
144.4
144.4
144.4
144.4
144.4
144.4
144.4
144.4
144.4
144.4
144.4
144.4
144.4
144.4
144.4
144.4
144.4
144.4
144.4
144.4
144.4
144.4
144.4
144.4
144.4
144.4
144.4
144.4
144.4
144.4
144.4
144.4
144.4
144.4
144.4
144.4
144.4
144.4
144.4
144.4
144.4
144.4
144.4
144.4
144.4
144.4
144.4
144.4
144.4
144.4
144.4
144.4
144.4
144.4
144.4
144.4
144.4
144.4
144.4
144.4
144.4
144.4
144.4
144.4
144.4
144.4
144.4
144.4
144.4
144.4
144.4
144.4
144.4
144.4
144.4
144.4
144.4
144.4
144.4
144.4
144.4
144.4
144.4
144.4
144.4
144.4
144.4
144.4
144.4
144.4
144.4
144.4
144.4
144.4
144.4
144.4
144.4
144.4
144.4
144.4
144.4
144.4
144.4
144.4
144.4
144.4
144.4
144.4
144.4
144.4
144.4
144.4
144.4
144.4
144.4
144.4
144.4
144.4
144.4
144.4
144.4
144.4
144.4
144.4
144.4
144.4
144.4
144.4
144.4
144.4
144.4
144.4
144.4
144.4
144.4
144.4
144.4
144.4
144.4
144.4
144.4
144.4
144.4
144.4
144.4
144.4
144.4
144.4
144.4
144.4
144.4
144.4
144.4
144.4
144.4
144.4
144.4
144.4
144.4
144.4
144.4
144.4
144.4
144.4
144.4
144.4
144.4
144.4
144.4
144.4
144.4
144.4
144.4
144.4
144.4
144.4
144.4
144.4
144.4
144.4
144.4
144.4
144.4
144.4
144.4
144.4
144.4
144.4
144.4
144.4
144.4
144.4
144.4
144.4
144.4
144.4
144.4
144.4
144.4
144.4
144.4
144.4
144.4
144.4
144.4
144.4
144.4
144.4
144.4
144.4
144.4
144.4
144.4
144.4
144.4
144.4
144.4
144.4
144.4
144.4
144.4
144.4
144.4
144.4
144.4
144.4
144.4
144.4
144.4
144.4
144.4
144.4
144.4
144.4
144.4
144.4
144.4
144.4
144.4
144.4
144.4
144.4
144.4
144.4
144.4
144.4
144.4
144.4
144.4
144.4
144.4
144.4
144.4
144.4
144.4
144.4
144.4
144.4
144.4
144.4
144.4
144.4
144.4
144.4
144.4
144.4
144.4
144.4
144.4
144.4
144.4
144.4
144.4
144.4
144.4
144.4
144.4
144.4
144.4
144.4
144.4
144.4
144.4
144.4
144.4
144.4
144.4
144.4
144.4
144.4
144.4
144.4
144.4
144.4
144.4
144.4
144.4
144.4
144.4
144.4
144.4
144.4
144.4
144.4
144.4
144.4
144.4
144.4
144.4
144.4
144.4
144.4
144.4
144.4
144.4
144.4
144.4
144.4
144.4
144.4
144.4
144.4
144.4
144.4
144.4
144.4
144.4
144.4
144.4
144.4
144.4
144.4
144.4
144.4
144.4
144.4
144.4
144.4
144.4
144.4
144.4
144.4
144.4
144.4
144.4
144.4
144.4
144.4
144.4
144.4
144.4
144.4
144.4
144.4
144.4
144.4
144.4
144.4
144.4
144.4
144.4
144.4
144.4
144.4
144.4
144.4
144.4
144.4
144.4
144.4
144.4
144.4
144.4
144.4
144.4
144.4
144.4
144.4
144.4
144.4
144.4
144.4
144.4
144.4
144.4
144.4
144.4
144.4
144.4
144.4
144.4
144.4
144.4
144.4
144.4
144.4
144.4
144.4
144.4
144.4
144.4
144.4
144.4
144.4
144.4
144.4
144.4
144.4
144.4
144.4
144.4
144.4
144.4
144.4
144.4
144.4
144.4
144.4
144.4
144.4
144.4
144.4
144.4
144.4
144.4
144.4
144.4
144.4
144.4
144.4
144.4
144.4
144.4
144.4
144.4
144.4
144.4
144.4
144.4
144.4
144.4
144.4
144.4
144.4
144.4
144.4
144.4
144.4
144.4
144.4
144.4
144.4
144.4
144.4
144.4
144.4
144.4
144.4
144.4
144.4
144.4
144.4
144.4
144.4
144.4
144.4
144.4
144.4
144.4
144.4
144.4
144.4
144.4
144.4
144.4
144.4
144.4
144.4
144.4
144.4
144.4
144.4
144.4
144.4
144.4
144.4
144.4
144.4
144.4
144.4
144.4
144.4
144.4
144.4
144.4
144.4
144.4
144.4
144.4
144.4
144.4
144.4
144.4
144.4
144.4
144.4
144.4
144.4
144.4
144.4
144.4
144.4
144.4
144.4
144.4
144.4
144.4
144.4
144.4
144.4
144.4
144.4
144.4
144.4
144.4
144.4
144.4
144.4
144.4
144.4
144.4
144.4
144.4
144.4
144.4
144.4
144.4
144.4
144.4
144.4
144.4
144.4
144.4
144.4
144.4
144.4
144.4
144.4
144.4
144.4
144.4
144.4
144.4
144.4
144.4
144.4
144.4
144.4
144.4
144.4
144.4
144.4
144.4
144.4
144.4
144.4
144.4
144.4
144.4
144.4
144.4
144.4
144.4
144.4
144.4
144.4
144.4
144.4
144.4
144.4
144.4
144.4
144.4
144.4
144.4
144.4
144.4
144.4
144.4
144.4
144.4
144.4
144.4
144.4
144.4
144.4
144.4
144.4
144.4
144.4
144.4
144.4
144.4
144.4
144.4
144.4
144.4
144.4
144.4
144.4
144.4
144.4
144.4
144.4
144.4
144.4
144.4
144.4
144.4
144.4
144.4
144.4
144.4
144.4
144.4
144.4
144.4
144.4
144.4
144.4
144.4
144.4
144.4
144.4
144.4
144.4
144.4
144.4
144.4
144.4
144.4
144.4
144.4
144.4
144.4
144.4
144.4
144.4
144.4
144.4
144.4
144.4
144.4
144.4
144.4
144.4
144.4
144.4
144.4
144.4
144.4
144.4
144.4
144.4
144.4
144.4
144.4
144.4
144.4
144.4
144.4
144.4
144.4
144.4
144.4
144.4
144.4
144.4
144.4
144.4
144.4
144.4
144.4
144.4
144.4
144.4
144.4
144.4
144.4
144.4
144.4
144.4
144.4
144.4
144.4
144.4
144.4
144.4
144.4
144.4
144.4
144.4
144.4
144.4
144.4
144.4
144.4
144.4
144.4
144.4
144.4
144.4
144.4
144.4
144.4
144.4
144.4
144.4
144.4
144.4
144.4
144.4
144.4
144.4
144.4
144.4
144.4
144.4
144.4
144.4
144.4
144.4
144.4
144.4
144.4
144.4
144.4
144.4
144.4
144.4
144.4
144.4
144.4
144.4
144.4
144.4
144.4
144.4
144.4
144.4
144.4
144.4
144.4
144.4
144.4
144.4
144.4
144.4
144.4
144.4
144.4
144.4
144.4
144.4
144.4
144.4
144.4
144.4
144.4
144.4
144.4
144.4
144.4
144.4
144.4
144.4
144.4
144.4
144.4
144.4
144.4
144.4
144.4
144.4
144.4
144.4
144.4
144.4
144.4
144.4
144.4
144.4
144.4
144.4
144.4
144.4
144.4
144.4
144.4
144.4
144.4
144.4
144.4
144.4
144.4
144.4
144.4
144.4
144.4
144.4
144.4
144.4
144.4
144.4
144.4
144.4
144.4
144.4
144.4
144.4
144.4
144.4
144.4
144.4
144.4
144.4
144.4
144.4
144.4
144.4
144.4
144.4
144.4
144.4
144.4
144.4
144.4
144.4
144.4
144.4
144.4
144.4
144.4
144.4
144.4
144.4
144.4
144.4
144.4
144.4
144.4
144.4
144.4
144.4
144.4
144.4
144.4
144.4
144.4
144.4
144.4
144.4
144.4
144.4
144.4
144.4
144.4
144.4
144.4
144.4
144.4
144.4
144.4
144.4
144.4
144.4
144.4
144.4
144.4
144.4
144.4
144.4
144.4
144.4
144.4
144.4
144.4
144.4
144.4
144.4
144.4
144.4
144.4
144.4
144.4
144.4
144.4
144.4
144.4
144.4
144.4
144.4
144.4
144.4
144.4
144.4
144.4
144.4
144.4
144.4
144.4
144.4
144.4
144.4
144.4
144.4
144.4
144.4
144.4
144.4
144.4
144.4
144.4
144.4
144.4
144.4
144.4
144.4
144.4
144.4
144.4
144.4
144.4
144.4
144.4
144.4
144.4
144.4
144.4
144.4
144.4
144.4
144.4
144.4
144.4
144.4
144.4
144.4
144.4
144.4
144.4
144.4
144.4
144.4
144.4
144.4
144.4
144.4
144.4
144.4
144.4
144.4
144.4
144.4
144.4
144.4
144.4
144.4
144.4
144.4
144.4
144.4
144.4
144.4
144.4
144.4
144.4
144.4
144.4
144.4
144.4
144.4
144.4
144.4
144.4
144.4
144.4
144.4
144.4
144.4
144.4
144.4
144.4
144.4
144.4
144.4
144.4
144.4
144.4
144.4
144.4
144.4
144.4
144.4
144.4
144.4
144.4
144.4
144.4
144.4
144.4
144.4
144.4
144.4
144.4
144.4
144.4
144.4
144.4
144.4
144.4
144.4
144.4
144.4
144.4
144.4
144.4
144.4
144.4
144.4
144.4
144.4
144.4
144.4
144.4
144.4
144.4
144.4
144.4
144.4
144.4
144.4
144.4
144.4
144.4
144.4
144.4
144.4
144.4
144.4
144.4
144.4
144.4
144.4
144.4
144.4
144.4
144.4
144.4
144.4
144.4
144.4
144.4
144.4
144.4
144.4
144.4
144.4
144.4
144.4
144.4
144.4
144.4
144.4
144.4
144.4
144.4
144.4
144.4
144.4
144.4
144.4
144.4
144.4
144.4
144.4
144.4
144.4
144.4
144.4
144.4
144.4
144.4
144.4
144.4
144.4
144.4
144.4
144.4
144.4
144.4
144.4
144.4
144.4
144.4
144.4
144.4
144.4
144.4
144.4
144.4
144.4
144.4
144.4
144.4
144.4
144.4
144.4
144.4
144.4
144.4
144.4
144.4
144.4
144.4
144.4
144.4
144.4
144.4
144.4
144.4
144.4
144.4
144.4
144.4
144.4
144.4
144.4
144.4
144.4
144.4
144.4
144.4
144.4
144.4
144.4
144.4
144.4
144.4
144.4
144.4
144.4
144.4
144.4
144.4
144.4
144.4
144.4
144.4
144.4
144.4
144.4
144.4
144.4
144.4
144.4
144.4
144.4
144.4
144.4
144.4
144.4
144.4
144.4
144.4
144.4
144.4
144.4
144.4
144.4
144.4
144.4
144.4
144.4
144.4
144.4
144.4
144.4
144.4
144.4
144.4
144.4
144.4
144.4
144.4
144.4
144.4
144.4
144.4
144.4
144.4
144.4
144.4
144.4
144.4
144.4
144.4
144.4
144.4
144.4
144.4
144.4
144.4
144.4
144.4
144.4
144.4
144.4
144.4
144.4
144.4
144.4
144.4
144.4
144.4
144.4
144.4
144.4
144.4
144.4
144.4
144.4
144.4
144.4
144.4
144.4
144.4
144.4
144.4
144.4
144.4
144.4
144.4
144.4
144.4
144.4
144.4
144.4
144.4
144.4
144.4
144.4
144.4
144.4
144.4
144.4
144.4
144.4
144.401
144.401
144.4
144.4
144.4
144.4
144.4
144.4
144.4
144.4
144.4
144.4
144.4
144.4
144.4
144.4
144.4
144.4
144.4
144.4
144.4
144.4
144.4
144.4
144.4
144.4
144.4
144.4
144.4
144.4
144.4
144.4
144.4
144.4
144.4
144.4
144.4
144.4
144.4
144.4
144.4
144.4
144.4
144.4
144.4
144.4
144.4
144.401
144.401
144.402
144.404
144.407
144.4
144.4
144.4
144.4
144.4
144.4
144.4
144.4
144.4
144.4
144.4
144.4
144.4
144.4
144.4
144.4
144.4
144.4
144.4
144.4
144.4
144.4
144.4
144.4
144.4
144.4
144.4
144.4
144.4
144.4
144.4
144.4
144.4
144.4
144.4
144.4
144.4
144.4
144.4
144.4
144.4
144.401
144.401
144.401
144.402
144.404
144.407
144.412
144.42
144.436
144.4
144.4
144.4
144.4
144.4
144.4
144.4
144.4
144.4
144.4
144.4
144.4
144.4
144.4
144.4
144.4
144.4
144.4
144.4
144.4
144.4
144.4
144.4
144.4
144.4
144.4
144.4
144.4
144.4
144.4
144.4
144.4
144.4
144.4
144.4
144.4
144.4
144.4
144.401
144.401
144.402
144.403
144.405
144.408
144.413
144.422
144.436
144.461
144.504
144.577
144.4
144.4
144.4
144.4
144.4
144.4
144.4
144.4
144.4
144.4
144.4
144.4
144.4
144.4
144.4
144.4
144.4
144.4
144.4
144.4
144.4
144.4
144.4
144.4
144.4
144.4
144.4
144.4
144.4
144.4
144.4
144.4
144.4
144.4
144.4
144.401
144.401
144.402
144.403
144.405
144.409
144.414
144.424
144.439
144.465
144.508
144.579
144.692
144.871
145.153
144.4
144.4
144.4
144.4
144.4
144.4
144.4
144.4
144.4
144.4
144.4
144.4
144.4
144.4
144.4
144.4
144.4
144.4
144.4
144.4
144.4
144.4
144.4
144.4
144.4
144.4
144.4
144.4
144.4
144.4
144.4
144.401
144.401
144.401
144.402
144.404
144.406
144.41
144.416
144.427
144.444
144.472
144.517
144.591
144.707
144.889
145.161
145.556
146.107
146.844
144.4
144.4
144.4
144.4
144.4
144.4
144.4
144.4
144.4
144.4
144.4
144.4
144.4
144.4
144.4
144.4
144.4
144.4
144.4
144.4
144.4
144.4
144.4
144.4
144.4
144.4
144.4
144.4
144.401
144.401
144.402
144.403
144.404
144.407
144.412
144.419
144.431
144.45
144.48
144.53
144.609
144.733
144.922
145.204
145.608
146.161
146.879
147.766
148.812
150.003
144.4
144.4
144.4
144.4
144.4
144.4
144.4
144.4
144.4
144.4
144.4
144.4
144.4
144.4
144.4
144.4
144.4
144.4
144.4
144.4
144.4
144.4
144.4
144.4
144.401
144.401
144.401
144.402
144.403
144.406
144.409
144.414
144.423
144.436
144.458
144.493
144.548
144.634
144.768
144.971
145.269
145.69
146.26
146.993
147.89
148.933
150.096
151.347
152.662
154.029
144.4
144.4
144.4
144.4
144.4
144.4
144.4
144.4
144.4
144.4
144.4
144.4
144.4
144.4
144.4
144.4
144.4
144.4
144.4
144.4
144.4
144.401
144.401
144.402
144.403
144.404
144.407
144.411
144.417
144.428
144.444
144.469
144.509
144.572
144.669
144.817
145.038
145.357
145.803
146.399
147.156
148.073
149.131
150.302
151.555
152.858
154.187
155.525
156.866
158.22
144.4
144.4
144.4
144.4
144.4
144.4
144.4
144.4
144.4
144.4
144.4
144.4
144.4
144.4
144.4
144.4
144.4
144.401
144.401
144.402
144.402
144.404
144.406
144.409
144.414
144.422
144.435
144.454
144.484
144.532
144.605
144.716
144.883
145.128
145.476
145.955
146.585
147.374
148.317
149.396
150.581
151.84
153.144
154.47
155.8
157.122
158.428
159.717
160.995
162.285
144.4
144.4
144.4
144.4
144.4
144.4
144.4
144.4
144.4
144.4
144.4
144.4
144.4
144.4
144.401
144.401
144.401
144.402
144.403
144.405
144.408
144.412
144.419
144.429
144.444
144.469
144.506
144.563
144.649
144.779
144.971
145.247
145.633
146.153
146.825
147.654
148.631
149.734
150.934
152.202
153.508
154.831
156.155
157.468
158.764
160.039
161.292
162.526
163.74
164.944
166.168
144.4
144.4
144.4
144.4
144.4
144.4
144.4
144.4
144.4
144.4
144.401
144.401
144.401
144.402
144.403
144.405
144.407
144.411
144.417
144.425
144.438
144.458
144.489
144.535
144.605
144.71
144.864
145.088
145.404
145.837
146.408
147.131
148.006
149.021
150.152
151.37
152.646
153.953
155.272
156.588
157.89
159.174
160.435
161.674
162.891
164.088
165.267
166.428
167.573
168.704
169.854
144.4
144.4
144.4
144.4
144.4
144.4
144.4
144.401
144.401
144.401
144.402
144.403
144.405
144.407
144.41
144.415
144.423
144.435
144.452
144.478
144.518
144.577
144.665
144.793
144.98
145.245
145.611
146.101
146.733
147.514
148.442
149.498
150.659
151.894
153.177
154.484
155.797
157.102
158.392
159.661
160.906
162.128
163.328
164.507
165.667
166.81
167.935
169.042
170.131
171.201
172.257
173.329
144.4
144.4
144.401
144.401
144.401
144.402
144.402
144.403
144.405
144.407
144.41
144.415
144.422
144.433
144.449
144.473
144.508
144.56
144.636
144.748
144.909
145.137
145.454
145.882
146.44
147.142
147.989
148.973
150.072
151.261
152.513
153.801
155.105
156.408
157.7
158.974
160.226
161.453
162.657
163.837
164.997
166.137
167.259
168.364
169.452
170.521
171.572
172.605
173.619
174.617
175.601
176.604
144.401
144.402
144.402
144.404
144.405
144.407
144.411
144.415
144.423
144.433
144.448
144.47
144.503
144.551
144.621
144.722
144.866
145.07
145.352
145.735
146.236
146.874
147.653
148.57
149.611
150.752
151.968
153.232
154.521
155.818
157.109
158.385
159.64
160.872
162.079
163.261
164.421
165.559
166.677
167.778
168.862
169.928
170.977
172.008
173.02
174.015
174.992
175.953
176.899
177.833
178.758
179.702
144.406
144.408
144.412
144.417
144.424
144.434
144.45
144.472
144.504
144.55
144.616
144.711
144.846
145.034
145.295
145.646
146.108
146.697
147.422
148.285
149.273
150.369
151.548
152.785
154.056
155.342
156.628
157.903
159.158
160.392
161.6
162.784
163.943
165.079
166.194
167.289
168.367
169.428
170.472
171.499
172.508
173.5
174.473
175.43
176.37
177.295
178.207
179.107
179.996
180.877
181.753
182.649
144.427
144.438
144.454
144.476
144.509
144.555
144.621
144.714
144.845
145.026
145.275
145.608
146.045
146.601
147.289
148.109
149.055
150.112
151.257
152.466
153.717
154.989
156.266
157.535
158.789
160.021
161.229
162.412
163.569
164.702
165.813
166.902
167.973
169.026
170.063
171.084
172.088
173.074
174.044
174.995
175.93
176.848
177.751
178.642
179.52
180.387
181.245
182.094
182.938
183.775
184.611
185.468
144.52
144.568
144.637
144.732
144.864
145.045
145.291
145.618
146.043
146.582
147.246
148.039
148.955
149.98
151.097
152.281
153.512
154.768
156.033
157.294
158.541
159.769
160.973
162.153
163.306
164.435
165.54
166.623
167.686
168.73
169.757
170.769
171.764
172.744
173.707
174.653
175.581
176.493
177.389
178.27
179.137
179.992
180.836
181.671
182.498
183.318
184.132
184.942
185.747
186.549
187.352
188.176
144.905
145.094
145.345
145.676
146.102
146.638
147.294
148.073
148.972
149.977
151.072
152.236
153.447
154.686
155.937
157.187
158.425
159.645
160.843
162.015
163.162
164.284
165.382
166.456
167.509
168.543
169.559
170.559
171.544
172.513
173.467
174.405
175.327
176.232
177.119
177.992
178.849
179.693
180.525
181.346
182.157
182.96
183.757
184.547
185.333
186.114
186.893
187.668
188.443
189.216
189.991
190.787
146.776
147.438
148.218
149.111
150.106
151.188
152.335
153.53
154.753
155.988
157.224
158.449
159.658
160.845
162.008
163.145
164.257
165.344
166.408
167.45
168.472
169.475
170.462
171.433
172.39
173.332
174.259
175.171
176.067
176.946
177.81
178.657
179.491
180.31
181.118
181.915
182.702
183.481
184.254
185.02
185.781
186.539
187.293
188.045
188.795
189.544
190.292
191.04
191.788
192.54
193.313
150.377
151.452
152.589
153.769
154.976
156.195
157.414
158.623
159.817
160.989
162.138
163.262
164.361
165.435
166.485
167.514
168.521
169.51
170.481
171.437
172.378
173.305
174.219
175.118
176.003
176.872
177.725
178.563
179.386
180.194
180.988
181.771
182.543
183.306
184.061
184.808
185.55
186.287
187.02
187.75
188.477
189.203
189.928
190.652
191.375
192.1
192.825
193.55
194.278
195.009
195.761
155.365
156.566
157.766
158.956
160.13
161.284
162.414
163.521
164.603
165.66
166.693
167.705
168.696
169.668
170.622
171.56
172.484
173.394
174.291
175.174
176.045
176.901
177.743
178.569
179.38
180.176
180.958
181.727
182.484
183.231
183.969
184.698
185.421
186.138
186.85
187.558
188.263
188.965
189.667
190.367
191.066
191.766
192.466
193.166
193.868
194.571
195.276
195.983
196.692
197.406
198.139
161.736
162.844
163.929
164.989
166.026
167.039
168.03
169.001
169.954
170.888
171.807
172.71
173.601
174.479
175.344
176.198
177.038
177.865
178.678
179.476
180.26
181.029
181.784
182.527
183.258
183.979
184.69
185.394
186.091
186.783
187.469
188.152
188.832
189.509
190.185
190.861
191.535
192.21
192.886
193.562
194.24
194.919
195.6
196.283
196.968
197.655
198.345
199.038
199.735
200.452
166.538
167.527
168.495
169.443
170.372
171.284
172.181
173.062
173.931
174.788
175.632
176.466
177.288
178.098
178.894
179.678
180.447
181.202
181.943
182.671
183.386
184.09
184.785
185.47
186.148
186.819
187.484
188.145
188.802
189.457
190.109
190.76
191.409
192.059
192.709
193.36
194.011
194.664
195.319
195.976
196.635
197.296
197.96
198.626
199.295
199.967
200.641
201.319
202.002
202.704
170.927
171.814
172.685
173.543
174.387
175.22
176.042
176.853
177.654
178.444
179.222
179.988
180.74
181.48
182.205
182.918
183.617
184.305
184.982
185.648
186.307
186.958
187.603
188.242
188.877
189.508
190.136
190.763
191.388
192.013
192.637
193.262
193.887
194.514
195.142
195.772
196.405
197.039
197.676
198.316
198.959
199.604
200.253
200.904
201.559
202.216
202.877
203.541
204.211
204.898
174.972
175.779
176.576
177.363
178.14
178.907
179.664
180.41
181.144
181.865
182.574
183.269
183.952
184.623
185.282
185.93
186.57
187.201
187.825
188.442
189.055
189.664
190.269
190.871
191.472
192.071
192.67
193.269
193.868
194.468
195.07
195.673
196.278
196.886
197.496
198.108
198.724
199.343
199.964
200.589
201.217
201.849
202.483
203.122
203.763
204.408
205.056
205.707
206.365
207.038
178.748
179.49
180.223
180.947
181.659
182.361
183.05
183.728
184.392
185.045
185.686
186.316
186.936
187.547
188.15
188.747
189.337
189.923
190.505
191.083
191.659
192.234
192.807
193.38
193.953
194.527
195.102
195.678
196.256
196.836
197.419
198.004
198.592
199.183
199.777
200.375
200.976
201.581
202.189
202.8
203.416
204.034
204.657
205.282
205.912
206.544
207.18
207.82
208.465
209.127
182.29
182.969
183.638
184.295
184.94
185.573
186.195
186.806
187.406
187.997
188.579
189.155
189.723
190.286
190.845
191.4
191.951
192.501
193.049
193.596
194.143
194.69
195.238
195.787
196.338
196.891
197.446
198.003
198.563
199.127
199.693
200.263
200.837
201.414
201.994
202.579
203.167
203.759
204.355
204.954
205.557
206.165
206.775
207.39
208.007
208.629
209.253
209.882
210.516
211.165
185.596
186.208
186.81
187.4
187.98
188.551
189.112
189.665
190.212
190.752
191.288
191.819
192.346
192.871
193.394
193.916
194.437
194.958
195.479
196.001
196.524
197.049
197.576
198.106
198.638
199.174
199.712
200.254
200.799
201.348
201.901
202.458
203.018
203.583
204.151
204.724
205.3
205.881
206.466
207.054
207.646
208.242
208.842
209.446
210.053
210.663
211.277
211.895
212.518
213.156
189.208
189.747
190.279
190.803
191.321
191.833
192.34
192.844
193.344
193.842
194.338
194.833
195.328
195.822
196.318
196.814
197.311
197.811
198.313
198.817
199.324
199.834
200.347
200.864
201.385
201.909
202.438
202.97
203.507
204.047
204.592
205.142
205.695
206.253
206.814
207.38
207.95
208.525
209.103
209.685
210.271
210.86
211.454
212.05
212.651
213.254
213.861
214.474
215.1
191.991
192.48
192.963
193.443
193.918
194.391
194.862
195.332
195.8
196.268
196.737
197.206
197.676
198.148
198.622
199.098
199.577
200.059
200.544
201.032
201.524
202.02
202.52
203.024
203.532
204.044
204.561
205.082
205.608
206.138
206.672
207.211
207.754
208.302
208.854
209.41
209.97
210.535
211.103
211.675
212.251
212.831
213.415
214.001
214.592
215.185
215.782
216.384
216.999
194.593
195.041
195.486
195.93
196.373
196.815
197.256
197.699
198.142
198.586
199.032
199.481
199.931
200.385
200.842
201.301
201.765
202.232
202.703
203.178
203.658
204.142
204.63
205.122
205.62
206.122
206.628
207.139
207.655
208.175
208.7
209.229
209.763
210.302
210.844
211.391
211.942
212.498
213.057
213.62
214.186
214.757
215.331
215.908
216.488
217.072
217.659
218.251
218.855
197.46
197.875
198.291
198.707
199.124
199.543
199.964
200.386
200.812
201.24
201.672
202.107
202.545
202.987
203.434
203.885
204.339
204.799
205.263
205.731
206.205
206.683
207.166
207.653
208.146
208.643
209.145
209.652
210.163
210.679
211.2
211.725
212.255
212.789
213.327
213.869
214.416
214.966
215.52
216.077
216.638
217.203
217.771
218.342
218.916
219.493
220.075
220.669
199.76
200.152
200.545
200.94
201.338
201.738
202.141
202.548
202.958
203.371
203.789
204.211
204.637
205.068
205.503
205.942
206.387
206.836
207.291
207.75
208.214
208.683
209.157
209.636
210.12
210.609
211.103
211.601
212.105
212.612
213.125
213.642
214.163
214.689
215.219
215.752
216.29
216.832
217.377
217.926
218.478
219.033
219.592
220.153
220.718
221.285
221.858
222.441
202.333
202.708
203.086
203.468
203.853
204.242
204.636
205.033
205.435
205.841
206.252
206.668
207.088
207.514
207.944
208.38
208.82
209.266
209.717
210.173
210.634
211.1
211.572
212.048
212.529
213.015
213.506
214.001
214.502
215.006
215.515
216.029
216.546
217.068
217.593
218.123
218.656
219.192
219.732
220.276
220.822
221.372
221.924
222.479
223.037
223.6
224.173
204.431
204.792
205.157
205.526
205.899
206.276
206.659
207.046
207.437
207.834
208.236
208.643
209.055
209.472
209.894
210.322
210.755
211.193
211.636
212.085
212.539
212.998
213.462
213.931
214.405
214.884
215.367
215.855
216.348
216.845
217.347
217.853
218.362
218.876
219.394
219.915
220.44
220.968
221.499
222.034
222.571
223.112
223.655
224.2
224.749
225.302
225.865
206.807
207.161
207.519
207.882
208.25
208.623
209.001
209.385
209.773
210.167
210.566
210.971
211.381
211.796
212.217
212.643
213.074
213.511
213.953
214.4
214.852
215.31
215.772
216.239
216.711
217.187
217.669
218.154
218.644
219.138
219.636
220.138
220.644
221.154
221.667
222.184
222.703
223.226
223.752
224.281
224.813
225.347
225.883
226.423
226.966
227.519
208.761
209.105
209.455
209.809
210.169
210.535
210.905
211.282
211.663
212.05
212.443
212.841
213.244
213.653
214.068
214.487
214.913
215.343
215.779
216.22
216.665
217.116
217.572
218.033
218.498
218.968
219.442
219.921
220.403
220.89
221.381
221.876
222.374
222.876
223.381
223.889
224.401
224.915
225.433
225.953
226.475
227
227.528
228.058
228.592
229.135
210.659
210.995
211.338
211.685
212.039
212.397
212.762
213.132
213.507
213.888
214.275
214.667
215.065
215.468
215.876
216.29
216.71
217.134
217.564
217.999
218.439
218.884
219.333
219.787
220.246
220.709
221.177
221.649
222.125
222.604
223.088
223.575
224.066
224.56
225.057
225.557
226.061
226.567
227.076
227.587
228.101
228.617
229.136
229.656
230.181
230.714
212.506
212.836
213.173
213.514
213.862
214.215
214.573
214.938
215.308
215.684
216.065
216.452
216.844
217.242
217.645
218.054
218.468
218.887
219.311
219.74
220.174
220.613
221.057
221.505
221.957
222.414
222.875
223.34
223.809
224.281
224.758
225.237
225.721
226.207
226.696
227.189
227.684
228.182
228.682
229.185
229.69
230.197
230.707
231.219
231.734
232.257
214.307
214.632
214.963
215.299
215.642
215.99
216.344
216.703
217.068
217.439
217.815
218.197
218.585
218.978
219.376
219.78
220.188
220.602
221.021
221.444
221.873
222.306
222.743
223.185
223.631
224.082
224.536
224.995
225.457
225.922
226.391
226.864
227.34
227.818
228.3
228.784
229.271
229.761
230.253
230.747
231.244
231.742
232.243
232.745
233.251
233.765
216.064
216.385
216.711
217.043
217.381
217.725
218.074
218.429
218.79
219.156
219.528
219.906
220.289
220.677
221.07
221.469
221.872
222.281
222.694
223.112
223.535
223.963
224.394
224.83
225.27
225.714
226.162
226.614
227.069
227.528
227.99
228.455
228.923
229.394
229.868
230.345
230.824
231.305
231.789
232.274
232.762
233.252
233.743
234.237
234.734
235.238
217.782
218.098
218.42
218.749
219.082
219.422
219.767
220.118
220.475
220.837
221.205
221.578
221.956
222.34
222.729
223.122
223.521
223.925
224.333
224.746
225.163
225.585
226.01
226.44
226.874
227.312
227.754
228.199
228.647
229.099
229.554
230.012
230.472
230.936
231.402
231.871
232.342
232.815
233.29
233.767
234.246
234.727
235.21
235.695
236.183
236.677
219.774
220.093
220.417
220.747
221.083
221.425
221.772
222.125
222.483
222.847
223.215
223.59
223.969
224.353
224.742
225.136
225.534
225.937
226.345
226.757
227.173
227.593
228.017
228.445
228.876
229.311
229.749
230.191
230.636
231.084
231.534
231.988
232.444
232.902
233.363
233.826
234.291
234.758
235.226
235.697
236.169
236.643
237.119
237.598
238.083
221.414
221.729
222.051
222.378
222.71
223.048
223.392
223.741
224.095
224.455
224.819
225.189
225.564
225.944
226.328
226.717
227.111
227.509
227.911
228.317
228.728
229.142
229.56
229.982
230.407
230.835
231.267
231.702
232.14
232.581
233.024
233.47
233.918
234.369
234.822
235.277
235.734
236.192
236.653
237.115
237.579
238.044
238.511
238.981
239.457
223.02
223.333
223.651
223.974
224.304
224.638
224.978
225.324
225.674
226.03
226.391
226.756
227.127
227.502
227.882
228.266
228.655
229.047
229.444
229.845
230.25
230.659
231.071
231.486
231.905
232.327
232.752
233.181
233.611
234.045
234.481
234.92
235.36
235.803
236.248
236.695
237.144
237.595
238.047
238.5
238.956
239.412
239.871
240.331
240.799
224.903
225.218
225.539
225.865
226.196
226.533
226.875
227.222
227.574
227.93
228.292
228.658
229.029
229.404
229.783
230.167
230.555
230.946
231.342
231.741
232.144
232.55
232.959
233.372
233.787
234.206
234.627
235.051
235.477
235.906
236.337
236.771
237.206
237.643
238.082
238.523
238.965
239.409
239.855
240.301
240.749
241.199
241.651
242.109
226.442
226.755
227.072
227.395
227.723
228.057
228.395
228.738
229.086
229.439
229.796
230.158
230.524
230.895
231.269
231.648
232.031
232.417
232.807
233.2
233.597
233.997
234.401
234.807
235.216
235.628
236.042
236.459
236.879
237.3
237.724
238.15
238.577
239.007
239.438
239.871
240.305
240.741
241.178
241.616
242.056
242.497
242.94
243.389
227.951
228.261
228.575
228.895
229.22
229.55
229.885
230.224
230.569
230.917
231.27
231.628
231.99
232.355
232.725
233.099
233.476
233.857
234.242
234.629
235.02
235.414
235.811
236.211
236.614
237.019
237.427
237.837
238.249
238.664
239.08
239.498
239.918
240.34
240.763
241.188
241.614
242.042
242.471
242.901
243.332
243.764
244.199
244.64
229.43
229.737
230.049
230.366
230.687
231.014
231.345
231.681
232.021
232.366
232.715
233.068
233.425
233.786
234.151
234.52
234.892
235.267
235.646
236.028
236.413
236.801
237.192
237.586
237.982
238.381
238.781
239.185
239.59
239.997
240.406
240.817
241.229
241.643
242.059
242.476
242.894
243.313
243.734
244.156
244.578
245.003
245.429
245.861
231.185
231.494
231.807
232.126
232.449
232.777
233.109
233.445
233.786
234.13
234.479
234.832
235.188
235.548
235.911
236.278
236.648
237.021
237.398
237.777
238.159
238.544
238.931
239.32
239.712
240.106
240.503
240.901
241.301
241.702
242.106
242.511
242.917
243.325
243.734
244.144
244.556
244.968
245.382
245.796
246.212
246.63
247.053
232.604
232.91
233.221
233.536
233.856
234.18
234.508
234.84
235.177
235.517
235.861
236.209
236.561
236.916
237.274
237.636
238
238.368
238.738
239.112
239.487
239.866
240.247
240.63
241.015
241.402
241.792
242.183
242.576
242.97
243.366
243.764
244.162
244.562
244.964
245.366
245.77
246.174
246.58
246.986
247.394
247.804
248.218
233.996
234.299
234.607
234.919
235.235
235.555
235.879
236.208
236.54
236.876
237.216
237.559
237.905
238.255
238.609
238.965
239.324
239.686
240.051
240.418
240.788
241.16
241.534
241.911
242.289
242.67
243.052
243.436
243.822
244.209
244.598
244.988
245.379
245.772
246.165
246.56
246.956
247.352
247.75
248.148
248.548
248.949
249.356
235.661
235.965
236.274
236.586
236.903
237.223
237.548
237.876
238.207
238.542
238.881
239.223
239.567
239.915
240.266
240.62
240.976
241.335
241.696
242.06
242.426
242.794
243.164
243.536
243.91
244.285
244.662
245.041
245.421
245.802
246.185
246.569
246.954
247.34
247.727
248.114
248.503
248.893
249.283
249.675
250.069
250.467
236.997
237.298
237.603
237.911
238.224
238.541
238.861
239.184
239.512
239.842
240.176
240.512
240.852
241.195
241.54
241.888
242.239
242.592
242.947
243.305
243.664
244.026
244.39
244.755
245.122
245.491
245.861
246.233
246.606
246.98
247.355
247.731
248.109
248.487
248.866
249.247
249.628
250.009
250.392
250.776
251.161
251.552
238.306
238.604
238.905
239.21
239.519
239.831
240.147
240.467
240.789
241.115
241.444
241.775
242.11
242.447
242.787
243.13
243.475
243.822
244.171
244.523
244.876
245.231
245.589
245.947
246.308
246.67
247.033
247.398
247.763
248.13
248.498
248.867
249.237
249.608
249.98
250.353
250.726
251.1
251.475
251.851
252.229
252.611
239.59
239.884
240.182
240.483
240.788
241.096
241.408
241.723
242.041
242.362
242.686
243.012
243.342
243.674
244.008
244.345
244.684
245.026
245.369
245.714
246.062
246.411
246.761
247.113
247.467