/*--------------------------------*- C++ -*----------------------------------*\
| =========                 |                                                 |
| \\      /  F ield         | OpenFOAM: The Open Source CFD Toolbox           |
|  \\    /   O peration     | Version:  v1706                                 |
|   \\  /    A nd           | Web:      www.OpenFOAM.com                      |
|    \\/     M anipulation  |                                                 |
\*---------------------------------------------------------------------------*/
FoamFile
{
    version     2.0;
    format      ascii;
    class       volScalarField;
    location    "3.4e-05";
    object      wallHeatFlux;
}
// * * * * * * * * * * * * * * * * * * * * * * * * * * * * * * * * * * * * * //

dimensions      [1 0 -3 0 0 0 0];


internalField   uniform 0;

boundaryField
{
    cone
    {
        type            calculated;
        value           nonuniform List<scalar> 
147
(
24326.6
24322.9
24315.6
24308.9
24300.1
24289.7
24277.3
24262.8
24246
24227.1
24206.8
24185.7
24163.4
24139.7
24114.4
24087.6
24059.2
24029.2
23997.6
23964.4
23929.5
23893.1
23855
23815.4
23774.1
23731.3
23686.9
23640.9
23593.3
23544.1
23493.4
23441.2
23387.4
23332.1
23275.2
23216.9
23157.1
23095.7
23032.9
22968.6
22902.9
22835.8
22767.2
22697.2
22625.7
22552.9
22478.8
22403.2
22326.4
22248.1
22168.6
22087.8
22005.6
21922.2
21837.5
21751.6
21664.4
21576.1
21486.5
21395.7
21303.8
21210.7
21116.5
21021.1
20924.6
20827.1
20728.4
20628.8
20528
20426.3
20323.5
20219.8
20115
20009.4
19902.8
19795.2
19686.8
19577.5
19467.3
19356.3
19244.5
19131.8
19018.4
18904.2
18789.2
18673.5
18557.1
18440
18322.2
18203.8
18084.7
17965.1
17844.8
17723.9
17602.4
17480.5
17358
17235
17111.5
16987.5
16863.1
16738.2
16613
16487.3
16361.3
16234.9
16108.2
15981.2
15853.9
15726.3
15598.4
15470.3
15342
15213.4
15084.7
14955.8
14826.8
14697.6
14568.4
14439
14309.6
14180.1
14050.6
13921
13791.5
13661.9
13532.4
13403
13273.6
13144.3
13015.1
12886.1
12757.2
12628.4
12499.8
12371.5
12243.3
12115.4
11987.7
11860.4
11733.5
11607.1
11481.3
11355.9
11230.8
11105.5
24353.5
)
;
    }
    inlet
    {
        type            calculated;
        value           uniform 0;
    }
    rWedge
    {
        type            wedge;
    }
    lWedge
    {
        type            wedge;
    }
    outlet
    {
        type            calculated;
        value           nonuniform 0();
    }
    procBoundary3to2
    {
        type            processor;
        value           uniform 0;
    }
}


// ************************************************************************* //
