/*--------------------------------*- C++ -*----------------------------------*\
| =========                 |                                                 |
| \\      /  F ield         | OpenFOAM: The Open Source CFD Toolbox           |
|  \\    /   O peration     | Version:  v1706                                 |
|   \\  /    A nd           | Web:      www.OpenFOAM.com                      |
|    \\/     M anipulation  |                                                 |
\*---------------------------------------------------------------------------*/
FoamFile
{
    version     2.0;
    format      ascii;
    class       volVectorField;
    location    "1.7e-05";
    object      U;
}
// * * * * * * * * * * * * * * * * * * * * * * * * * * * * * * * * * * * * * //

dimensions      [0 1 -1 0 0 0 0];


internalField   nonuniform List<vector> 
29987
(
(2764.5 -2.08837e-08 4.07829e-11)
(2764.5 -6.56068e-09 1.19866e-11)
(2764.5 -3.1618e-09 5.8115e-12)
(2764.5 -1.95674e-09 3.48457e-12)
(2764.5 -1.33592e-09 2.32851e-12)
(2764.5 -9.66826e-10 1.69346e-12)
(2764.5 -7.2943e-10 1.29234e-12)
(2764.5 -5.70163e-10 1.01894e-12)
(2764.5 -4.63479e-10 8.04279e-13)
(2764.5 -3.82744e-10 6.94226e-13)
(2764.5 -3.19473e-10 5.12919e-13)
(2764.5 -2.72425e-10 4.49138e-13)
(2764.5 -2.3573e-10 4.14789e-13)
(2764.5 -2.06597e-10 3.50362e-13)
(2764.5 -1.81197e-10 3.09675e-13)
(2764.5 -1.6794e-10 2.61467e-13)
(2764.5 -1.46048e-10 2.20536e-13)
(2764.5 -1.31007e-10 1.95753e-13)
(2764.5 -1.19875e-10 1.84778e-13)
(2764.5 -1.12286e-10 1.73336e-13)
(2764.5 -1.00322e-10 1.68489e-13)
(2764.5 -9.7721e-11 1.41639e-13)
(2764.5 -8.79861e-11 1.32494e-13)
(2764.5 -8.19914e-11 1.14295e-13)
(2764.5 -7.48861e-11 1.18702e-13)
(2764.5 -7.37995e-11 1.15109e-13)
(2764.5 -6.58614e-11 9.13315e-14)
(2764.5 -6.60852e-11 7.99872e-14)
(2764.5 -5.94652e-11 8.64646e-14)
(2764.5 -5.76783e-11 7.84104e-14)
(2764.5 -5.53346e-11 8.61065e-14)
(2764.5 -5.49148e-11 7.464e-14)
(2764.5 -4.92549e-11 6.52823e-14)
(2764.5 -4.97035e-11 6.45506e-14)
(2764.5 -4.45206e-11 6.41409e-14)
(2764.5 -4.49721e-11 5.71752e-14)
(2764.5 -4.70369e-11 5.49232e-14)
(2764.5 -3.97377e-11 4.30337e-14)
(2764.5 -4.10233e-11 4.12552e-14)
(2764.5 -4.21838e-11 4.87453e-14)
(2764.5 -3.73615e-11 3.51418e-14)
(2764.5 -3.91715e-11 3.80274e-14)
(2764.5 -3.54089e-11 4.45395e-14)
(2764.5 -3.46683e-11 4.15974e-14)
(2764.5 -3.4412e-11 3.74526e-14)
(2764.5 -3.27501e-11 3.12967e-14)
(2764.5 -3.37898e-11 4.36447e-14)
(2764.5 -3.39855e-11 3.19379e-14)
(2764.5 -3.11667e-11 3.01367e-14)
(2764.5 -3.17388e-11 3.18488e-14)
(2764.5 -2.94148e-11 3.10593e-14)
(2764.5 -3.04848e-11 3.03333e-14)
(2764.5 -2.88557e-11 2.92163e-14)
(2764.5 -2.9687e-11 2.60903e-14)
(2764.5 -3.03493e-11 2.68644e-14)
(2764.5 -2.5073e-11 2.20598e-14)
(2764.5 -2.6864e-11 2.01324e-14)
(2764.5 -2.85703e-11 1.94597e-14)
(2764.5 -2.86922e-11 2.28657e-14)
(2764.5 -2.85381e-11 2.60226e-14)
(2764.5 -2.73319e-11 2.55279e-14)
(2764.5 -2.61632e-11 1.42952e-14)
(2764.5 -2.83451e-11 1.87909e-14)
(2764.5 -2.68964e-11 2.1486e-14)
(2764.5 -2.46216e-11 1.64056e-14)
(2764.5 -2.61218e-11 1.51949e-14)
(2764.5 -2.59363e-11 1.65974e-14)
(2764.5 -2.64576e-11 2.04119e-14)
(2764.5 -2.53978e-11 1.61241e-14)
(2764.5 -2.51777e-11 1.48451e-14)
(2764.5 -2.63057e-11 1.27972e-14)
(2764.5 -2.66321e-11 1.56015e-14)
(2764.5 -2.56398e-11 1.38929e-14)
(2764.5 -2.32436e-11 1.41506e-14)
(2764.5 -2.1834e-11 1.79692e-14)
(2764.5 -2.41334e-11 1.5974e-14)
(2764.5 -2.53984e-11 1.43272e-14)
(2764.5 -2.62752e-11 1.58569e-14)
(2764.5 -2.56406e-11 1.17006e-14)
(2764.5 -2.35696e-11 7.57275e-15)
(2764.5 -2.50412e-11 1.07049e-14)
(2764.5 -2.56138e-11 1.20176e-14)
(2764.5 -2.54762e-11 9.42209e-15)
(2764.5 -2.32346e-11 1.02424e-14)
(2764.5 -2.24421e-11 1.0816e-14)
(2764.5 -2.17294e-11 9.56515e-15)
(2764.5 -2.35312e-11 9.44373e-15)
(2764.5 -2.48973e-11 9.4114e-15)
(2764.5 -2.39551e-11 1.26501e-14)
(2764.5 -2.48892e-11 8.75884e-15)
(2764.5 -2.53971e-11 6.72455e-15)
(2764.5 -2.51313e-11 7.17783e-15)
(2764.5 -2.31688e-11 1.02784e-14)
(2764.5 -2.4767e-11 1.26045e-14)
(2764.5 -2.59635e-11 1.26123e-14)
(2764.5 -2.60866e-11 1.1876e-14)
(2764.5 -2.38632e-11 6.59607e-15)
(2764.5 -2.22654e-11 9.55765e-15)
(2764.5 -2.2419e-11 1.23997e-14)
(2764.5 -2.16477e-11 9.20819e-15)
(2764.5 -2.3483e-11 7.87107e-15)
(2764.5 -2.47397e-11 1.30747e-14)
(2764.5 -2.45183e-11 1.37991e-14)
(2764.5 -2.45315e-11 9.90647e-15)
(2764.5 -2.45471e-11 1.08337e-14)
(2764.5 -2.53545e-11 9.1524e-15)
(2764.5 -2.6455e-11 6.38325e-15)
(2764.5 -2.77169e-11 7.22279e-15)
(2764.5 -2.66125e-11 9.85137e-15)
(2764.5 -2.57175e-11 6.57935e-15)
(2764.5 -2.63549e-11 7.11433e-15)
(2764.5 -2.62391e-11 6.68897e-15)
(2764.5 -2.6193e-11 9.35596e-15)
(2764.5 -2.54126e-11 8.10412e-15)
(2764.5 -2.64277e-11 1.02627e-14)
(2764.5 -2.60297e-11 7.88708e-15)
(2764.5 -2.63317e-11 7.69294e-15)
(2764.5 -2.58546e-11 1.03859e-14)
(2764.5 -2.54762e-11 1.09755e-14)
(2764.5 -2.77958e-11 6.2503e-15)
(2764.5 -3.0188e-11 6.6547e-15)
(2764.5 -3.11036e-11 8.53592e-15)
(2764.5 -3.06105e-11 6.80149e-15)
(2764.5 -3.09237e-11 8.58254e-15)
(2764.5 -3.00437e-11 1.0522e-14)
(2764.5 -3.12024e-11 6.56269e-15)
(2764.5 -3.03559e-11 8.43259e-15)
(2764.5 -2.96581e-11 8.92918e-15)
(2764.5 -3.24238e-11 9.27922e-15)
(2764.5 -3.4947e-11 6.37353e-15)
(2764.5 -3.5034e-11 9.42633e-15)
(2764.5 -3.42876e-11 1.11066e-14)
(2764.5 -3.41928e-11 7.54641e-15)
(2764.5 -3.50829e-11 6.00016e-15)
(2764.5 -2.98785e-11 6.17942e-15)
(2764.5 -2.93812e-11 3.76559e-15)
(2764.5 -2.74077e-11 8.53141e-15)
(2764.5 -2.7364e-11 1.07078e-14)
(2764.5 -2.77427e-11 6.41563e-15)
(2764.5 -2.86905e-11 6.86346e-15)
(2764.5 -2.85949e-11 3.3458e-15)
(2764.5 -3.06225e-11 2.78866e-15)
(2764.5 -3.68959e-11 6.91968e-15)
(2764.5 -3.71685e-11 3.91526e-15)
(2764.5 -3.89427e-11 7.25529e-15)
(2764.5 -3.4679e-11 8.54144e-15)
(2764.5 -3.37719e-11 8.49254e-15)
(2764.5 -3.22034e-11 9.22445e-15)
(2764.5 -3.56488e-11 6.71037e-15)
(2764.5 -3.66726e-11 6.43143e-15)
(2764.5 -3.78865e-11 3.98293e-15)
(2764.5 -4.00029e-11 4.91692e-15)
(2764.5 -4.0823e-11 4.82571e-15)
(2764.5 -4.09258e-11 7.05087e-15)
(2764.5 -4.00981e-11 7.35707e-15)
(2764.5 -4.16513e-11 4.83848e-15)
(2764.5 -6.69587e-08 1.17818e-10)
(2764.5 -2.47812e-08 4.15101e-11)
(2764.5 -1.13555e-08 1.87725e-11)
(2764.5 -6.6105e-09 1.10648e-11)
(2764.5 -4.38984e-09 7.389e-12)
(2764.5 -3.13971e-09 5.31275e-12)
(2764.5 -2.37172e-09 4.01199e-12)
(2764.5 -1.86017e-09 3.09931e-12)
(2764.5 -1.49415e-09 2.49828e-12)
(2764.5 -1.23031e-09 2.04904e-12)
(2764.5 -1.03176e-09 1.59634e-12)
(2764.5 -8.76447e-10 1.41834e-12)
(2764.5 -7.58751e-10 1.19492e-12)
(2764.5 -6.60839e-10 1.04784e-12)
(2764.5 -5.83498e-10 8.91916e-13)
(2764.5 -5.33013e-10 8.23188e-13)
(2764.5 -4.71984e-10 6.99925e-13)
(2764.5 -4.24087e-10 6.28275e-13)
(2764.5 -3.86743e-10 5.84864e-13)
(2764.5 -3.59117e-10 5.26439e-13)
(2764.5 -3.21385e-10 4.87416e-13)
(2764.5 -3.03881e-10 4.15582e-13)
(2764.5 -2.79607e-10 3.9354e-13)
(2764.5 -2.5791e-10 3.50844e-13)
(2764.5 -2.42927e-10 3.44528e-13)
(2764.5 -2.31018e-10 3.31471e-13)
(2764.5 -2.10536e-10 2.95711e-13)
(2764.5 -2.09376e-10 2.69991e-13)
(2764.5 -1.91959e-10 2.68832e-13)
(2764.5 -1.81904e-10 2.51799e-13)
(2764.5 -1.69208e-10 2.21091e-13)
(2764.5 -1.6615e-10 2.1793e-13)
(2764.5 -1.57973e-10 1.78921e-13)
(2764.5 -1.60362e-10 1.70044e-13)
(2764.5 -1.47266e-10 1.72877e-13)
(2764.5 -1.40992e-10 1.73883e-13)
(2764.5 -1.37949e-10 1.57026e-13)
(2764.5 -1.26212e-10 1.49005e-13)
(2764.5 -1.26678e-10 1.40092e-13)
(2764.5 -1.26951e-10 1.30029e-13)
(2764.5 -1.21024e-10 1.12994e-13)
(2764.5 -1.10733e-10 1.19443e-13)
(2764.5 -1.17379e-10 1.29318e-13)
(2764.5 -1.12576e-10 1.15445e-13)
(2764.5 -1.09379e-10 8.58699e-14)
(2764.5 -9.94318e-11 1.05756e-13)
(2764.5 -1.01556e-10 1.03371e-13)
(2764.5 -9.90299e-11 8.55665e-14)
(2764.5 -9.82243e-11 8.82702e-14)
(2764.5 -9.94778e-11 9.18137e-14)
(2764.5 -9.22772e-11 9.50668e-14)
(2764.5 -9.45345e-11 8.04659e-14)
(2764.5 -9.08277e-11 7.9952e-14)
(2764.5 -8.96842e-11 6.34043e-14)
(2764.5 -9.33902e-11 6.92925e-14)
(2764.5 -8.62222e-11 6.37778e-14)
(2764.5 -8.62272e-11 6.46695e-14)
(2764.5 -8.40082e-11 6.56929e-14)
(2764.5 -8.47563e-11 7.34667e-14)
(2764.5 -8.99687e-11 7.01715e-14)
(2764.5 -8.46185e-11 6.17427e-14)
(2764.5 -8.00968e-11 4.58296e-14)
(2764.5 -8.08721e-11 6.32816e-14)
(2764.5 -7.94614e-11 5.84347e-14)
(2764.5 -7.72182e-11 5.28493e-14)
(2764.5 -7.62723e-11 5.42858e-14)
(2764.5 -7.72699e-11 4.7566e-14)
(2764.5 -7.52532e-11 4.76536e-14)
(2764.5 -7.68221e-11 4.83339e-14)
(2764.5 -7.518e-11 4.71672e-14)
(2764.5 -7.50365e-11 4.78444e-14)
(2764.5 -7.64835e-11 4.99489e-14)
(2764.5 -8.08738e-11 4.32853e-14)
(2764.5 -7.94755e-11 4.53757e-14)
(2764.5 -6.94687e-11 4.91015e-14)
(2764.5 -6.98656e-11 5.07009e-14)
(2764.5 -6.92456e-11 4.50373e-14)
(2764.5 -7.0364e-11 4.55804e-14)
(2764.5 -7.3909e-11 3.1072e-14)
(2764.5 -7.22853e-11 2.78088e-14)
(2764.5 -6.81168e-11 3.47158e-14)
(2764.5 -7.06398e-11 3.54452e-14)
(2764.5 -7.62463e-11 3.11845e-14)
(2764.5 -7.60459e-11 3.64172e-14)
(2764.5 -7.38559e-11 4.27726e-14)
(2764.5 -6.9518e-11 4.09331e-14)
(2764.5 -6.87647e-11 3.4228e-14)
(2764.5 -7.20078e-11 3.9125e-14)
(2764.5 -6.78998e-11 3.73676e-14)
(2764.5 -6.91983e-11 2.77776e-14)
(2764.5 -7.10699e-11 3.10952e-14)
(2764.5 -7.44171e-11 2.62486e-14)
(2764.5 -7.09766e-11 3.30759e-14)
(2764.5 -6.64466e-11 3.37234e-14)
(2764.5 -6.85564e-11 3.96615e-14)
(2764.5 -7.26454e-11 3.25449e-14)
(2764.5 -7.29387e-11 2.42245e-14)
(2764.5 -7.36847e-11 2.83333e-14)
(2764.5 -7.1997e-11 2.77277e-14)
(2764.5 -6.6719e-11 2.6928e-14)
(2764.5 -6.88276e-11 2.642e-14)
(2764.5 -7.18396e-11 2.64427e-14)
(2764.5 -7.11343e-11 2.99902e-14)
(2764.5 -7.16605e-11 2.1009e-14)
(2764.5 -7.24384e-11 2.20812e-14)
(2764.5 -7.13984e-11 1.9725e-14)
(2764.5 -7.20881e-11 2.22876e-14)
(2764.5 -7.37984e-11 2.1696e-14)
(2764.5 -7.80182e-11 1.76388e-14)
(2764.5 -7.57821e-11 1.94899e-14)
(2764.5 -7.64239e-11 2.40169e-14)
(2764.5 -7.78846e-11 2.25916e-14)
(2764.5 -7.74357e-11 2.34354e-14)
(2764.5 -7.44478e-11 2.40611e-14)
(2764.5 -7.55748e-11 2.76729e-14)
(2764.5 -7.55713e-11 2.53717e-14)
(2764.5 -7.67762e-11 2.63001e-14)
(2764.5 -7.71138e-11 2.68306e-14)
(2764.5 -7.52358e-11 2.37152e-14)
(2764.5 -7.47186e-11 1.70864e-14)
(2764.5 -7.72185e-11 2.00574e-14)
(2764.5 -8.0204e-11 2.14204e-14)
(2764.5 -8.13625e-11 2.20514e-14)
(2764.5 -8.24357e-11 2.34287e-14)
(2764.5 -8.34782e-11 2.38552e-14)
(2764.5 -8.52946e-11 2.28329e-14)
(2764.5 -8.66426e-11 2.39298e-14)
(2764.5 -8.50739e-11 2.1973e-14)
(2764.5 -8.34144e-11 2.11235e-14)
(2764.5 -8.5297e-11 2.41704e-14)
(2764.5 -8.75135e-11 2.94689e-14)
(2764.5 -8.88335e-11 1.82538e-14)
(2764.5 -9.21142e-11 1.82126e-14)
(2764.5 -9.42661e-11 1.85431e-14)
(2764.5 -9.82073e-11 1.82793e-14)
(2764.5 -9.77014e-11 1.7683e-14)
(2764.5 -9.29563e-11 2.9552e-14)
(2764.5 -9.09396e-11 1.46241e-14)
(2764.5 -9.16971e-11 1.4998e-14)
(2764.5 -8.90859e-11 2.07369e-14)
(2764.5 -8.68364e-11 1.85317e-14)
(2764.5 -8.20909e-11 2.00291e-14)
(2764.5 -8.5062e-11 1.8887e-14)
(2764.5 -8.99958e-11 2.02644e-14)
(2764.5 -9.71419e-11 1.79583e-14)
(2764.5 -1.0031e-10 2.27609e-14)
(2764.5 -1.0681e-10 2.08624e-14)
(2764.5 -9.92687e-11 2.2325e-14)
(2764.5 -1.01018e-10 2.71521e-14)
(2764.5 -9.829e-11 2.01151e-14)
(2764.5 -9.8787e-11 1.68521e-14)
(2764.5 -9.72813e-11 1.27136e-14)
(2764.5 -1.02507e-10 1.59131e-14)
(2764.5 -1.06749e-10 1.65392e-14)
(2764.5 -1.11812e-10 1.76647e-14)
(2764.5 -1.11426e-10 1.44299e-14)
(2764.5 -1.06283e-07 1.8202e-10)
(2764.5 -4.5335e-08 7.33654e-11)
(2764.5 -2.12528e-08 3.34636e-11)
(2764.5 -1.20348e-08 1.91606e-11)
(2764.5 -7.8407e-09 1.24883e-11)
(2764.5 -5.56545e-09 8.82171e-12)
(2764.5 -4.18167e-09 6.69432e-12)
(2764.5 -3.27049e-09 5.14286e-12)
(2764.5 -2.62003e-09 4.15642e-12)
(2764.5 -2.15275e-09 3.36311e-12)
(2764.5 -1.8104e-09 2.78258e-12)
(2764.5 -1.53608e-09 2.41535e-12)
(2764.5 -1.32288e-09 2.03716e-12)
(2764.5 -1.15126e-09 1.75437e-12)
(2764.5 -1.02073e-09 1.55176e-12)
(2764.5 -9.21347e-10 1.3683e-12)
(2764.5 -8.19421e-10 1.1735e-12)
(2764.5 -7.43632e-10 1.07535e-12)
(2764.5 -6.7806e-10 9.58968e-13)
(2764.5 -6.20159e-10 8.91429e-13)
(2764.5 -5.67526e-10 7.97087e-13)
(2764.5 -5.23941e-10 6.90229e-13)
(2764.5 -4.82539e-10 6.703e-13)
(2764.5 -4.48879e-10 6.01392e-13)
(2764.5 -4.2381e-10 5.93537e-13)
(2764.5 -3.99401e-10 5.44416e-13)
(2764.5 -3.71238e-10 5.19305e-13)
(2764.5 -3.59486e-10 4.6402e-13)
(2764.5 -3.34908e-10 4.25189e-13)
(2764.5 -3.13255e-10 4.11088e-13)
(2764.5 -2.96152e-10 3.66701e-13)
(2764.5 -2.88244e-10 3.74517e-13)
(2764.5 -2.72305e-10 3.17737e-13)
(2764.5 -2.64695e-10 3.07267e-13)
(2764.5 -2.51785e-10 3.12386e-13)
(2764.5 -2.43293e-10 2.7537e-13)
(2764.5 -2.40266e-10 2.56481e-13)
(2764.5 -2.24812e-10 2.58907e-13)
(2764.5 -2.15602e-10 2.50325e-13)
(2764.5 -2.13566e-10 2.22765e-13)
(2764.5 -2.08591e-10 2.14629e-13)
(2764.5 -1.96693e-10 2.07739e-13)
(2764.5 -1.98322e-10 2.11471e-13)
(2764.5 -1.91006e-10 1.95181e-13)
(2764.5 -1.82039e-10 1.66046e-13)
(2764.5 -1.75185e-10 1.75919e-13)
(2764.5 -1.72455e-10 1.70957e-13)
(2764.5 -1.70205e-10 1.67996e-13)
(2764.5 -1.69006e-10 1.59777e-13)
(2764.5 -1.67013e-10 1.71394e-13)
(2764.5 -1.56815e-10 1.52997e-13)
(2764.5 -1.56478e-10 1.42257e-13)
(2764.5 -1.5148e-10 1.35352e-13)
(2764.5 -1.49674e-10 1.27303e-13)
(2764.5 -1.4685e-10 1.20621e-13)
(2764.5 -1.42912e-10 1.21475e-13)
(2764.5 -1.45803e-10 1.14029e-13)
(2764.5 -1.42225e-10 1.0804e-13)
(2764.5 -1.42168e-10 1.17592e-13)
(2764.5 -1.49355e-10 1.13874e-13)
(2764.5 -1.45527e-10 1.06293e-13)
(2764.5 -1.38284e-10 1.0772e-13)
(2764.5 -1.40303e-10 1.01564e-13)
(2764.5 -1.37852e-10 8.44932e-14)
(2764.5 -1.30533e-10 9.29375e-14)
(2764.5 -1.26747e-10 8.90832e-14)
(2764.5 -1.30018e-10 7.71003e-14)
(2764.5 -1.23573e-10 8.5664e-14)
(2764.5 -1.26648e-10 8.42613e-14)
(2764.5 -1.27674e-10 8.07316e-14)
(2764.5 -1.27376e-10 8.02457e-14)
(2764.5 -1.28963e-10 7.98903e-14)
(2764.5 -1.30521e-10 7.38404e-14)
(2764.5 -1.29433e-10 7.46566e-14)
(2764.5 -1.2321e-10 8.00982e-14)
(2764.5 -1.22338e-10 8.0072e-14)
(2764.5 -1.1912e-10 6.80354e-14)
(2764.5 -1.168e-10 6.79153e-14)
(2764.5 -1.19376e-10 6.83251e-14)
(2764.5 -1.23284e-10 6.53717e-14)
(2764.5 -1.18007e-10 6.30452e-14)
(2764.5 -1.16224e-10 5.89745e-14)
(2764.5 -1.21723e-10 5.57187e-14)
(2764.5 -1.23349e-10 5.344e-14)
(2764.5 -1.22187e-10 5.62959e-14)
(2764.5 -1.21935e-10 5.44066e-14)
(2764.5 -1.18485e-10 5.92647e-14)
(2764.5 -1.20406e-10 6.67767e-14)
(2764.5 -1.18327e-10 6.00764e-14)
(2764.5 -1.14841e-10 5.65488e-14)
(2764.5 -1.15989e-10 4.99621e-14)
(2764.5 -1.21844e-10 4.92497e-14)
(2764.5 -1.22393e-10 5.78449e-14)
(2764.5 -1.19943e-10 6.36974e-14)
(2764.5 -1.15697e-10 6.42712e-14)
(2764.5 -1.18381e-10 4.80571e-14)
(2764.5 -1.19495e-10 4.10085e-14)
(2764.5 -1.20147e-10 4.41411e-14)
(2764.5 -1.22459e-10 4.67354e-14)
(2764.5 -1.16171e-10 4.74497e-14)
(2764.5 -1.13005e-10 4.0463e-14)
(2764.5 -1.16648e-10 4.61753e-14)
(2764.5 -1.20329e-10 4.82985e-14)
(2764.5 -1.1919e-10 4.16034e-14)
(2764.5 -1.20736e-10 4.75223e-14)
(2764.5 -1.18939e-10 4.33403e-14)
(2764.5 -1.17004e-10 3.87408e-14)
(2764.5 -1.15864e-10 3.41623e-14)
(2764.5 -1.25437e-10 3.70023e-14)
(2764.5 -1.26899e-10 4.22545e-14)
(2764.5 -1.26512e-10 3.61498e-14)
(2764.5 -1.27186e-10 3.65306e-14)
(2764.5 -1.29481e-10 3.67272e-14)
(2764.5 -1.27263e-10 3.81328e-14)
(2764.5 -1.27202e-10 3.73518e-14)
(2764.5 -1.27425e-10 4.48425e-14)
(2764.5 -1.26914e-10 4.6583e-14)
(2764.5 -1.26948e-10 4.6745e-14)
(2764.5 -1.23316e-10 3.87782e-14)
(2764.5 -1.20704e-10 3.77411e-14)
(2764.5 -1.23121e-10 3.94215e-14)
(2764.5 -1.27126e-10 3.83615e-14)
(2764.5 -1.30182e-10 3.59587e-14)
(2764.5 -1.30252e-10 3.36226e-14)
(2764.5 -1.31561e-10 3.53647e-14)
(2764.5 -1.32197e-10 3.64635e-14)
(2764.5 -1.34145e-10 3.39722e-14)
(2764.5 -1.36208e-10 3.50951e-14)
(2764.5 -1.37069e-10 4.05742e-14)
(2764.5 -1.36683e-10 3.85034e-14)
(2764.5 -1.37649e-10 3.54217e-14)
(2764.5 -1.38705e-10 3.83027e-14)
(2764.5 -1.44574e-10 3.8923e-14)
(2764.5 -1.46475e-10 3.35172e-14)
(2764.5 -1.52115e-10 3.85398e-14)
(2764.5 -1.55072e-10 2.59442e-14)
(2764.5 -1.55013e-10 2.62237e-14)
(2764.5 -1.53549e-10 2.87266e-14)
(2764.5 -1.55627e-10 4.37615e-14)
(2764.5 -1.50768e-10 3.68431e-14)
(2764.5 -1.54844e-10 2.57323e-14)
(2764.5 -1.47726e-10 2.72209e-14)
(2764.5 -1.44072e-10 2.96011e-14)
(2764.5 -1.46315e-10 3.00449e-14)
(2764.5 -1.49691e-10 3.20753e-14)
(2764.5 -1.55588e-10 3.04103e-14)
(2764.5 -1.62768e-10 3.05705e-14)
(2764.5 -1.64346e-10 3.02093e-14)
(2764.5 -1.69144e-10 3.78418e-14)
(2764.5 -1.69198e-10 3.04686e-14)
(2764.5 -1.70166e-10 3.16126e-14)
(2764.5 -1.6933e-10 3.30936e-14)
(2764.5 -1.69631e-10 3.19065e-14)
(2764.5 -1.69424e-10 2.32677e-14)
(2764.5 -1.77252e-10 3.5011e-14)
(2764.5 -1.80457e-10 3.11948e-14)
(2764.5 -1.37738e-07 2.33321e-10)
(2764.5 -6.63953e-08 1.05138e-10)
(2764.5 -3.25626e-08 4.94645e-11)
(2764.5 -1.83154e-08 2.76912e-11)
(2764.5 -1.1746e-08 1.77842e-11)
(2764.5 -8.25114e-09 1.25201e-11)
(2764.5 -6.16475e-09 9.40134e-12)
(2764.5 -4.81196e-09 7.28391e-12)
(2764.5 -3.85369e-09 5.83289e-12)
(2764.5 -3.15771e-09 4.78578e-12)
(2764.5 -2.64424e-09 3.90691e-12)
(2764.5 -2.24083e-09 3.37854e-12)
(2764.5 -1.92961e-09 2.89416e-12)
(2764.5 -1.68549e-09 2.50751e-12)
(2764.5 -1.49431e-09 2.26019e-12)
(2764.5 -1.3396e-09 1.93002e-12)
(2764.5 -1.19843e-09 1.68353e-12)
(2764.5 -1.08166e-09 1.50558e-12)
(2764.5 -9.89046e-10 1.32595e-12)
(2764.5 -9.03634e-10 1.26189e-12)
(2764.5 -8.22938e-10 1.11525e-12)
(2764.5 -7.62482e-10 1.032e-12)
(2764.5 -7.0125e-10 9.5541e-13)
(2764.5 -6.49093e-10 8.77581e-13)
(2764.5 -6.10839e-10 8.12494e-13)
(2764.5 -5.78092e-10 7.454e-13)
(2764.5 -5.42195e-10 6.95884e-13)
(2764.5 -5.19826e-10 6.34131e-13)
(2764.5 -4.89345e-10 6.14348e-13)
(2764.5 -4.55081e-10 5.6825e-13)
(2764.5 -4.30706e-10 5.35494e-13)
(2764.5 -4.15333e-10 5.12622e-13)
(2764.5 -3.93657e-10 4.923e-13)
(2764.5 -3.81393e-10 4.57022e-13)
(2764.5 -3.66076e-10 4.33765e-13)
(2764.5 -3.51868e-10 3.94976e-13)
(2764.5 -3.43894e-10 3.79011e-13)
(2764.5 -3.23927e-10 3.42346e-13)
(2764.5 -3.09633e-10 3.50439e-13)
(2764.5 -3.0254e-10 3.12907e-13)
(2764.5 -2.96767e-10 3.04775e-13)
(2764.5 -2.84557e-10 2.85573e-13)
(2764.5 -2.85223e-10 2.83699e-13)
(2764.5 -2.76824e-10 2.65221e-13)
(2764.5 -2.62919e-10 2.66032e-13)
(2764.5 -2.51822e-10 2.44298e-13)
(2764.5 -2.45973e-10 2.4844e-13)
(2764.5 -2.47049e-10 2.35344e-13)
(2764.5 -2.40144e-10 2.36689e-13)
(2764.5 -2.40805e-10 2.29424e-13)
(2764.5 -2.32438e-10 2.0806e-13)
(2764.5 -2.26277e-10 2.04943e-13)
(2764.5 -2.17538e-10 1.9118e-13)
(2764.5 -2.14036e-10 1.8276e-13)
(2764.5 -2.09844e-10 1.66296e-13)
(2764.5 -2.02136e-10 1.71752e-13)
(2764.5 -1.99472e-10 1.66826e-13)
(2764.5 -2.01193e-10 1.60975e-13)
(2764.5 -1.97072e-10 1.68641e-13)
(2764.5 -2.00077e-10 1.66472e-13)
(2764.5 -2.04604e-10 1.53268e-13)
(2764.5 -2.03577e-10 1.39552e-13)
(2764.5 -1.99804e-10 1.3426e-13)
(2764.5 -1.9772e-10 1.32821e-13)
(2764.5 -1.89627e-10 1.45785e-13)
(2764.5 -1.86464e-10 1.33592e-13)
(2764.5 -1.84664e-10 1.22043e-13)
(2764.5 -1.74269e-10 1.29621e-13)
(2764.5 -1.75429e-10 1.11999e-13)
(2764.5 -1.79816e-10 1.08998e-13)
(2764.5 -1.80545e-10 1.09198e-13)
(2764.5 -1.82896e-10 1.15858e-13)
(2764.5 -1.82785e-10 1.12108e-13)
(2764.5 -1.80813e-10 1.13967e-13)
(2764.5 -1.77688e-10 1.06888e-13)
(2764.5 -1.74909e-10 1.03962e-13)
(2764.5 -1.7002e-10 1.06326e-13)
(2764.5 -1.6708e-10 1.08898e-13)
(2764.5 -1.67129e-10 1.02997e-13)
(2764.5 -1.71124e-10 9.30148e-14)
(2764.5 -1.691e-10 8.384e-14)
(2764.5 -1.68467e-10 9.48327e-14)
(2764.5 -1.67391e-10 8.77059e-14)
(2764.5 -1.70135e-10 8.73539e-14)
(2764.5 -1.68517e-10 8.46496e-14)
(2764.5 -1.73791e-10 8.76388e-14)
(2764.5 -1.69398e-10 8.67268e-14)
(2764.5 -1.69124e-10 8.16755e-14)
(2764.5 -1.70467e-10 7.55589e-14)
(2764.5 -1.66773e-10 7.79268e-14)
(2764.5 -1.65943e-10 7.7542e-14)
(2764.5 -1.65513e-10 7.91703e-14)
(2764.5 -1.66475e-10 8.1264e-14)
(2764.5 -1.68946e-10 8.63246e-14)
(2764.5 -1.66649e-10 7.52808e-14)
(2764.5 -1.6752e-10 7.30614e-14)
(2764.5 -1.70291e-10 7.52108e-14)
(2764.5 -1.70599e-10 6.5749e-14)
(2764.5 -1.72019e-10 6.51721e-14)
(2764.5 -1.67621e-10 6.39162e-14)
(2764.5 -1.59297e-10 5.90276e-14)
(2764.5 -1.59458e-10 6.25955e-14)
(2764.5 -1.65167e-10 6.46262e-14)
(2764.5 -1.6792e-10 6.61456e-14)
(2764.5 -1.69023e-10 6.58923e-14)
(2764.5 -1.66406e-10 6.37255e-14)
(2764.5 -1.64079e-10 6.00418e-14)
(2764.5 -1.60497e-10 5.90874e-14)
(2764.5 -1.66185e-10 5.58496e-14)
(2764.5 -1.71955e-10 5.01155e-14)
(2764.5 -1.72506e-10 5.18146e-14)
(2764.5 -1.7333e-10 5.14921e-14)
(2764.5 -1.78128e-10 5.54748e-14)
(2764.5 -1.79888e-10 5.63193e-14)
(2764.5 -1.79474e-10 6.11237e-14)
(2764.5 -1.80676e-10 6.03669e-14)
(2764.5 -1.80121e-10 5.87887e-14)
(2764.5 -1.81398e-10 5.57556e-14)
(2764.5 -1.77415e-10 5.21523e-14)
(2764.5 -1.74868e-10 5.46476e-14)
(2764.5 -1.73394e-10 5.49975e-14)
(2764.5 -1.75422e-10 5.26369e-14)
(2764.5 -1.78195e-10 4.8374e-14)
(2764.5 -1.81636e-10 5.07011e-14)
(2764.5 -1.81581e-10 5.35876e-14)
(2764.5 -1.81185e-10 5.21413e-14)
(2764.5 -1.81259e-10 5.53903e-14)
(2764.5 -1.84887e-10 5.69592e-14)
(2764.5 -1.86965e-10 5.07572e-14)
(2764.5 -1.87011e-10 4.96099e-14)
(2764.5 -1.87287e-10 5.10428e-14)
(2764.5 -1.88916e-10 5.21075e-14)
(2764.5 -1.94884e-10 4.86796e-14)
(2764.5 -1.99738e-10 4.75522e-14)
(2764.5 -2.04364e-10 4.88976e-14)
(2764.5 -2.12486e-10 4.31183e-14)
(2764.5 -2.14679e-10 5.52713e-14)
(2764.5 -2.1336e-10 5.19265e-14)
(2764.5 -2.20568e-10 5.24847e-14)
(2764.5 -2.21892e-10 4.81788e-14)
(2764.5 -2.193e-10 4.48885e-14)
(2764.5 -2.16818e-10 4.62638e-14)
(2764.5 -2.10454e-10 4.01492e-14)
(2764.5 -2.05917e-10 4.47546e-14)
(2764.5 -2.06317e-10 4.53675e-14)
(2764.5 -2.11292e-10 4.84995e-14)
(2764.5 -2.15231e-10 4.69905e-14)
(2764.5 -2.16329e-10 4.62753e-14)
(2764.5 -2.27884e-10 4.75459e-14)
(2764.5 -2.32157e-10 4.3244e-14)
(2764.5 -2.35211e-10 4.65986e-14)
(2764.5 -2.37767e-10 4.72931e-14)
(2764.5 -2.37606e-10 5.14129e-14)
(2764.5 -2.39271e-10 3.87351e-14)
(2764.5 -2.44057e-10 4.51148e-14)
(2764.5 -2.43933e-10 4.15907e-14)
(2764.5 -1.62708e-07 2.73921e-10)
(2764.5 -8.68535e-08 1.35933e-10)
(2764.5 -4.48852e-08 6.63587e-11)
(2764.5 -2.54174e-08 3.67854e-11)
(2764.5 -1.61482e-08 2.3514e-11)
(2764.5 -1.12328e-08 1.64647e-11)
(2764.5 -8.33598e-09 1.21832e-11)
(2764.5 -6.47795e-09 9.47324e-12)
(2764.5 -5.18406e-09 7.60248e-12)
(2764.5 -4.24667e-09 6.26241e-12)
(2764.5 -3.54595e-09 5.15652e-12)
(2764.5 -3.00566e-09 4.36131e-12)
(2764.5 -2.58315e-09 3.71097e-12)
(2764.5 -2.25657e-09 3.22856e-12)
(2764.5 -2.00084e-09 2.8727e-12)
(2764.5 -1.78811e-09 2.50891e-12)
(2764.5 -1.60599e-09 2.18719e-12)
(2764.5 -1.43812e-09 1.98174e-12)
(2764.5 -1.31486e-09 1.79853e-12)
(2764.5 -1.20624e-09 1.6333e-12)
(2764.5 -1.09554e-09 1.48531e-12)
(2764.5 -1.0108e-09 1.36884e-12)
(2764.5 -9.36954e-10 1.23253e-12)
(2764.5 -8.70365e-10 1.15089e-12)
(2764.5 -8.10814e-10 1.03571e-12)
(2764.5 -7.61506e-10 1.00087e-12)
(2764.5 -7.19447e-10 9.16276e-13)
(2764.5 -6.90243e-10 8.698e-13)
(2764.5 -6.52224e-10 8.28696e-13)
(2764.5 -6.09601e-10 7.6174e-13)
(2764.5 -5.76153e-10 6.9257e-13)
(2764.5 -5.47729e-10 6.65485e-13)
(2764.5 -5.21609e-10 6.12468e-13)
(2764.5 -5.04635e-10 5.70335e-13)
(2764.5 -4.85923e-10 5.49298e-13)
(2764.5 -4.7251e-10 5.32676e-13)
(2764.5 -4.52871e-10 4.92767e-13)
(2764.5 -4.33091e-10 4.67049e-13)
(2764.5 -4.12088e-10 4.31905e-13)
(2764.5 -3.98952e-10 4.04934e-13)
(2764.5 -3.87588e-10 4.1319e-13)
(2764.5 -3.72027e-10 3.92937e-13)
(2764.5 -3.70764e-10 3.75424e-13)
(2764.5 -3.64998e-10 3.62233e-13)
(2764.5 -3.50987e-10 3.49453e-13)
(2764.5 -3.35245e-10 3.33154e-13)
(2764.5 -3.20911e-10 3.12147e-13)
(2764.5 -3.18058e-10 3.04514e-13)
(2764.5 -3.1412e-10 2.92676e-13)
(2764.5 -3.07637e-10 2.67877e-13)
(2764.5 -3.07663e-10 2.76335e-13)
(2764.5 -3.02244e-10 2.61329e-13)
(2764.5 -2.94299e-10 2.5272e-13)
(2764.5 -2.85914e-10 2.42768e-13)
(2764.5 -2.76759e-10 2.3837e-13)
(2764.5 -2.65887e-10 2.33261e-13)
(2764.5 -2.57505e-10 2.12885e-13)
(2764.5 -2.58048e-10 2.0436e-13)
(2764.5 -2.56496e-10 2.13833e-13)
(2764.5 -2.53992e-10 1.94408e-13)
(2764.5 -2.58624e-10 1.86139e-13)
(2764.5 -2.61687e-10 1.7903e-13)
(2764.5 -2.60722e-10 1.8388e-13)
(2764.5 -2.54445e-10 1.90883e-13)
(2764.5 -2.48535e-10 1.72226e-13)
(2764.5 -2.46169e-10 1.76593e-13)
(2764.5 -2.42401e-10 1.70288e-13)
(2764.5 -2.33168e-10 1.55787e-13)
(2764.5 -2.31874e-10 1.64375e-13)
(2764.5 -2.32527e-10 1.61311e-13)
(2764.5 -2.31408e-10 1.50722e-13)
(2764.5 -2.33732e-10 1.51424e-13)
(2764.5 -2.39047e-10 1.42858e-13)
(2764.5 -2.39352e-10 1.41244e-13)
(2764.5 -2.33934e-10 1.45102e-13)
(2764.5 -2.30047e-10 1.41496e-13)
(2764.5 -2.22427e-10 1.40475e-13)
(2764.5 -2.20295e-10 1.32258e-13)
(2764.5 -2.17039e-10 1.20347e-13)
(2764.5 -2.21295e-10 1.21824e-13)
(2764.5 -2.16491e-10 1.27776e-13)
(2764.5 -2.15799e-10 1.19047e-13)
(2764.5 -2.14563e-10 1.12528e-13)
(2764.5 -2.16833e-10 1.15791e-13)
(2764.5 -2.13612e-10 1.12179e-13)
(2764.5 -2.14591e-10 1.09091e-13)
(2764.5 -2.15007e-10 1.0221e-13)
(2764.5 -2.1543e-10 1.06765e-13)
(2764.5 -2.17269e-10 1.12216e-13)
(2764.5 -2.16625e-10 1.11396e-13)
(2764.5 -2.18007e-10 1.03427e-13)
(2764.5 -2.17941e-10 1.01408e-13)
(2764.5 -2.12657e-10 9.92157e-14)
(2764.5 -2.12967e-10 9.62422e-14)
(2764.5 -2.1211e-10 9.60616e-14)
(2764.5 -2.13671e-10 9.84542e-14)
(2764.5 -2.17577e-10 8.94215e-14)
(2764.5 -2.22823e-10 8.71504e-14)
(2764.5 -2.2299e-10 9.04104e-14)
(2764.5 -2.20141e-10 8.3527e-14)
(2764.5 -2.12171e-10 7.72133e-14)
(2764.5 -2.07158e-10 8.07091e-14)
(2764.5 -2.1118e-10 8.53557e-14)
(2764.5 -2.1384e-10 7.91217e-14)
(2764.5 -2.17321e-10 7.87776e-14)
(2764.5 -2.14015e-10 8.2304e-14)
(2764.5 -2.10205e-10 7.9711e-14)
(2764.5 -2.09091e-10 7.84274e-14)
(2764.5 -2.09671e-10 7.41664e-14)
(2764.5 -2.17832e-10 7.56896e-14)
(2764.5 -2.18986e-10 7.7182e-14)
(2764.5 -2.19728e-10 7.43227e-14)
(2764.5 -2.25028e-10 7.67951e-14)
(2764.5 -2.2924e-10 6.43589e-14)
(2764.5 -2.322e-10 6.50052e-14)
(2764.5 -2.33159e-10 6.82219e-14)
(2764.5 -2.32584e-10 7.3194e-14)
(2764.5 -2.34557e-10 7.07956e-14)
(2764.5 -2.31509e-10 7.41721e-14)
(2764.5 -2.29979e-10 7.62097e-14)
(2764.5 -2.26972e-10 6.9563e-14)
(2764.5 -2.28325e-10 6.57255e-14)
(2764.5 -2.2862e-10 6.91774e-14)
(2764.5 -2.33201e-10 7.18765e-14)
(2764.5 -2.37987e-10 6.58868e-14)
(2764.5 -2.40734e-10 6.84193e-14)
(2764.5 -2.39712e-10 6.95841e-14)
(2764.5 -2.40745e-10 6.35335e-14)
(2764.5 -2.42715e-10 6.22455e-14)
(2764.5 -2.42159e-10 6.16274e-14)
(2764.5 -2.42184e-10 6.17421e-14)
(2764.5 -2.42023e-10 6.58678e-14)
(2764.5 -2.46229e-10 6.44696e-14)
(2764.5 -2.51334e-10 6.63238e-14)
(2764.5 -2.56138e-10 6.61704e-14)
(2764.5 -2.61709e-10 6.58676e-14)
(2764.5 -2.68284e-10 6.50321e-14)
(2764.5 -2.6708e-10 6.20988e-14)
(2764.5 -2.71329e-10 6.24729e-14)
(2764.5 -2.73581e-10 5.67126e-14)
(2764.5 -2.80539e-10 6.17495e-14)
(2764.5 -2.80856e-10 5.69844e-14)
(2764.5 -2.77208e-10 6.10301e-14)
(2764.5 -2.73022e-10 5.9083e-14)
(2764.5 -2.67913e-10 6.1947e-14)
(2764.5 -2.71398e-10 6.39888e-14)
(2764.5 -2.74818e-10 5.71358e-14)
(2764.5 -2.71549e-10 5.42414e-14)
(2764.5 -2.76442e-10 5.71222e-14)
(2764.5 -2.80421e-10 5.54996e-14)
(2764.5 -2.86978e-10 5.43726e-14)
(2764.5 -2.93637e-10 6.30825e-14)
(2764.5 -2.95884e-10 5.50712e-14)
(2764.5 -3.00449e-10 5.27731e-14)
(2764.5 -3.09417e-10 6.34773e-14)
(2764.5 -3.09614e-10 6.02994e-14)
(2764.5 -1.82799e-07 3.07136e-10)
(2764.5 -1.06085e-07 1.64649e-10)
(2764.5 -5.78201e-08 8.35059e-11)
(2764.5 -3.32651e-08 4.65234e-11)
(2764.5 -2.10606e-08 2.94759e-11)
(2764.5 -1.45359e-08 2.04693e-11)
(2764.5 -1.07068e-08 1.52564e-11)
(2764.5 -8.28513e-09 1.1724e-11)
(2764.5 -6.62265e-09 9.33744e-12)
(2764.5 -5.41265e-09 7.64121e-12)
(2764.5 -4.51229e-09 6.35489e-12)
(2764.5 -3.82225e-09 5.35771e-12)
(2764.5 -3.2862e-09 4.58653e-12)
(2764.5 -2.86501e-09 4.01481e-12)
(2764.5 -2.53549e-09 3.47662e-12)
(2764.5 -2.26472e-09 3.05678e-12)
(2764.5 -2.0303e-09 2.72946e-12)
(2764.5 -1.82918e-09 2.42072e-12)
(2764.5 -1.66447e-09 2.2089e-12)
(2764.5 -1.52372e-09 1.97392e-12)
(2764.5 -1.38755e-09 1.82268e-12)
(2764.5 -1.28043e-09 1.66912e-12)
(2764.5 -1.185e-09 1.51628e-12)
(2764.5 -1.10038e-09 1.367e-12)
(2764.5 -1.02324e-09 1.29237e-12)
(2764.5 -9.58883e-10 1.22498e-12)
(2764.5 -9.02829e-10 1.12815e-12)
(2764.5 -8.62484e-10 1.06936e-12)
(2764.5 -8.21419e-10 9.80761e-13)
(2764.5 -7.70776e-10 8.9291e-13)
(2764.5 -7.27263e-10 8.61655e-13)
(2764.5 -6.88941e-10 8.03285e-13)
(2764.5 -6.57385e-10 7.49368e-13)
(2764.5 -6.27693e-10 7.20001e-13)
(2764.5 -6.02858e-10 6.77917e-13)
(2764.5 -5.91147e-10 6.1487e-13)
(2764.5 -5.74946e-10 6.20612e-13)
(2764.5 -5.53313e-10 5.80503e-13)
(2764.5 -5.23399e-10 5.50669e-13)
(2764.5 -5.02233e-10 5.32635e-13)
(2764.5 -4.8484e-10 4.92204e-13)
(2764.5 -4.68167e-10 4.6809e-13)
(2764.5 -4.57491e-10 4.51287e-13)
(2764.5 -4.52619e-10 4.4168e-13)
(2764.5 -4.3747e-10 4.24092e-13)
(2764.5 -4.25586e-10 4.20656e-13)
(2764.5 -4.06547e-10 3.8126e-13)
(2764.5 -3.9416e-10 3.71143e-13)
(2764.5 -3.92339e-10 3.64721e-13)
(2764.5 -3.83819e-10 3.4172e-13)
(2764.5 -3.769e-10 3.29413e-13)
(2764.5 -3.71581e-10 3.18826e-13)
(2764.5 -3.67053e-10 3.04883e-13)
(2764.5 -3.62556e-10 3.03949e-13)
(2764.5 -3.51145e-10 2.85747e-13)
(2764.5 -3.38307e-10 2.75223e-13)
(2764.5 -3.25347e-10 2.62374e-13)
(2764.5 -3.18991e-10 2.6343e-13)
(2764.5 -3.18303e-10 2.50742e-13)
(2764.5 -3.13089e-10 2.37071e-13)
(2764.5 -3.11471e-10 2.40107e-13)
(2764.5 -3.20828e-10 2.28468e-13)
(2764.5 -3.21003e-10 2.23947e-13)
(2764.5 -3.16156e-10 2.14187e-13)
(2764.5 -3.07498e-10 2.10054e-13)
(2764.5 -3.01207e-10 2.17079e-13)
(2764.5 -2.97777e-10 2.01963e-13)
(2764.5 -2.91117e-10 1.89303e-13)
(2764.5 -2.89073e-10 2.02398e-13)
(2764.5 -2.87505e-10 1.92011e-13)
(2764.5 -2.84627e-10 1.79929e-13)
(2764.5 -2.83082e-10 1.76806e-13)
(2764.5 -2.8746e-10 1.77704e-13)
(2764.5 -2.93657e-10 1.6687e-13)
(2764.5 -2.90994e-10 1.74029e-13)
(2764.5 -2.87174e-10 1.67479e-13)
(2764.5 -2.75671e-10 1.6259e-13)
(2764.5 -2.7424e-10 1.55376e-13)
(2764.5 -2.703e-10 1.66831e-13)
(2764.5 -2.71705e-10 1.58424e-13)
(2764.5 -2.68973e-10 1.53151e-13)
(2764.5 -2.68457e-10 1.41161e-13)