/*--------------------------------*- C++ -*----------------------------------*\
| =========                 |                                                 |
| \\      /  F ield         | OpenFOAM: The Open Source CFD Toolbox           |
|  \\    /   O peration     | Version:  v1706                                 |
|   \\  /    A nd           | Web:      www.OpenFOAM.com                      |
|    \\/     M anipulation  |                                                 |
\*---------------------------------------------------------------------------*/
FoamFile
{
    version     2.0;
    format      ascii;
    class       volScalarField;
    location    "1.7e-05";
    object      wallHeatFlux;
}
// * * * * * * * * * * * * * * * * * * * * * * * * * * * * * * * * * * * * * //

dimensions      [1 0 -3 0 0 0 0];


internalField   uniform 0;

boundaryField
{
    cone
    {
        type            calculated;
        value           nonuniform List<scalar> 
147
(
1.13303e+06
1.13272e+06
1.13238e+06
1.13202e+06
1.1316e+06
1.13112e+06
1.13056e+06
1.12994e+06
1.12925e+06
1.12849e+06
1.12766e+06
1.12676e+06
1.12579e+06
1.12475e+06
1.12364e+06
1.12246e+06
1.12121e+06
1.11989e+06
1.1185e+06
1.11704e+06
1.11551e+06
1.11392e+06
1.11225e+06
1.11051e+06
1.10871e+06
1.10683e+06
1.10488e+06
1.10286e+06
1.10077e+06
1.09861e+06
1.09638e+06
1.09408e+06
1.09171e+06
1.08928e+06
1.08678e+06
1.08421e+06
1.08157e+06
1.07887e+06
1.0761e+06
1.07327e+06
1.07037e+06
1.06741e+06
1.06439e+06
1.0613e+06
1.05814e+06
1.05493e+06
1.05165e+06
1.04832e+06
1.04492e+06
1.04146e+06
1.03794e+06
1.03437e+06
1.03074e+06
1.02704e+06
1.0233e+06
1.01949e+06
1.01563e+06
1.01172e+06
1.00775e+06
1.00373e+06
999661
995536
991360
987133
982856
978529
974154
969732
965263
960748
956187
951582
946933
942241
937506
932731
927914
923058
918162
913229
908258
903250
898207
893128
888016
882870
877692
872482
867242
861972
856672
851343
845988
840606
835198
829766
824310
818832
813331
807807
802264
796702
791122
785524
779908
774279
768635
762977
757304
751619
745925
740220
734505
728780
723049
717312
711568
705820
700069
694318
688565
682812
677060
671308
665557
659809
654063
648322
642585
636853
631128
625409
619699
613997
608304
602621
596949
591289
585641
580006
574387
568792
563231
557696
552173
546651
1.13425e+06
)
;
    }
    inlet
    {
        type            calculated;
        value           uniform 0;
    }
    rWedge
    {
        type            wedge;
    }
    lWedge
    {
        type            wedge;
    }
    outlet
    {
        type            calculated;
        value           nonuniform 0();
    }
    procBoundary3to2
    {
        type            processor;
        value           uniform 0;
    }
}


// ************************************************************************* //
