/*--------------------------------*- C++ -*----------------------------------*\
| =========                 |                                                 |
| \\      /  F ield         | OpenFOAM: The Open Source CFD Toolbox           |
|  \\    /   O peration     | Version:  v1706                                 |
|   \\  /    A nd           | Web:      www.OpenFOAM.com                      |
|    \\/     M anipulation  |                                                 |
\*---------------------------------------------------------------------------*/
FoamFile
{
    version     2.0;
    format      ascii;
    class       volScalarField;
    location    "1.4e-05";
    object      wallHeatFlux;
}
// * * * * * * * * * * * * * * * * * * * * * * * * * * * * * * * * * * * * * //

dimensions      [1 0 -3 0 0 0 0];


internalField   uniform 0;

boundaryField
{
    cone
    {
        type            calculated;
        value           nonuniform List<scalar> 
119
(
55528.6
55814.2
56239.8
56792.3
57461.3
58239.3
59122.5
60111.2
61209.8
62426.4
63772.9
65264.4
66918.9
68756.8
70800.3
73072.6
75596.7
78393.1
81476.7
84851.7
88505.3
92401.3
96474.1
100626
104730
108634
112168
115144
117368
118653
118835
117819
115622
112405
108459
104177
99954.5
96101
92787.4
90057.3
87862.8
86106.4
84673.3
83452.9
82350.1
81291.4
80225.1
79117.9
77951.1
76717.9
75420.4
74067.8
72673.7
71253.8
69824.4
68401
66997.8
65627
64298.9
63021.6
61801.8
60644.4
59553.1
58530.2
57576.4
56691.5
55874.3
55123.5
54437.3
53813.7
53250.3
52744.2
52292.8
51893.1
51542.6
51239
50980.1
50763.9
50588.6
50453.1
50356.3
50297.6
50276.1
50291.2
50342.2
50428.3
50549.1
50704.1
50892.6
51114.2
51368.3
51654.5
51972.3
52321.5
52701.9
53113.9
53558.3
54036.9
54552.6
55109.7
55713.4
56368.7
57078.5
57841.5
58648.3
59482.9
60322.9
61155.7
61994.2
62879.6
63841.7
64865.2
65873
66779.9
67540.8
68255.5
69461.6
71611.3
75887.3
)
;
    }
    inlet
    {
        type            calculated;
        value           uniform 0;
    }
    rWedge
    {
        type            wedge;
    }
    lWedge
    {
        type            wedge;
    }
    outlet
    {
        type            calculated;
        value           uniform 0;
    }
    procBoundary0to1
    {
        type            processor;
        value           uniform 0;
    }
    procBoundary0to2
    {
        type            processor;
        value           uniform 0;
    }
}


// ************************************************************************* //
