/*--------------------------------*- C++ -*----------------------------------*\
| =========                 |                                                 |
| \\      /  F ield         | OpenFOAM: The Open Source CFD Toolbox           |
|  \\    /   O peration     | Version:  v1706                                 |
|   \\  /    A nd           | Web:      www.OpenFOAM.com                      |
|    \\/     M anipulation  |                                                 |
\*---------------------------------------------------------------------------*/
FoamFile
{
    version     2.0;
    format      ascii;
    class       volScalarField;
    location    "3.8e-05";
    object      kappatr;
}
// * * * * * * * * * * * * * * * * * * * * * * * * * * * * * * * * * * * * * //

dimensions      [1 1 -3 -1 0 0 0];


internalField   nonuniform List<scalar> 
29871
(
0.0146534
0.0146619
0.0146717
0.0146829
0.0146957
0.0147102
0.0147267
0.0147452
0.0147657
0.0147884
0.0148135
0.0148416
0.0148735
0.0149099
0.0149513
0.014998
0.0150499
0.0151067
0.0151682
0.0152342
0.0153055
0.0153844
0.0154727
0.0155704
0.0156763
0.0157886
0.0159061
0.0160276
0.0161518
0.0162772
0.0164022
0.0165256
0.0166471
0.0167698
0.0169139
0.0170921
0.0172931
0.0175044
0.0177162
0.017922
0.0181173
0.0182997
0.018468
0.0186222
0.0187628
0.0188904
0.0190058
0.0191091
0.0192005
0.0192799
0.0193471
0.0194024
0.0194467
0.0194805
0.0195049
0.019521
0.0195301
0.0195304
0.0195269
0.0195201
0.0195111
0.0194978
0.0194824
0.019467
0.0194495
0.0194297
0.0194079
0.0193843
0.0193593
0.0193328
0.0193036
0.019273
0.0192412
0.0192074
0.0191712
0.0191337
0.0190955
0.0190554
0.0190137
0.0189707
0.0189262
0.01888
0.0188328
0.0187844
0.0187349
0.0186845
0.0186334
0.0185817
0.0185295
0.0184769
0.0184242
0.0183712
0.0183181
0.0182647
0.0182109
0.0181567
0.0181018
0.0180462
0.0179899
0.0179329
0.017875
0.0178163
0.0177569
0.0176969
0.0176365
0.0149652
0.0150166
0.0150744
0.0151399
0.0152144
0.0152989
0.0153941
0.0155004
0.0156179
0.0157466
0.0158875
0.016043
0.0162165
0.0164093
0.0166209
0.0168492
0.017092
0.0173465
0.0176097
0.01788
0.0181587
0.0184602
0.0188015
0.0191769
0.019575
0.0199833
0.0203901
0.0207855
0.0211617
0.0215131
0.0218361
0.0221289
0.0223914
0.0226242
0.0228249
0.022992
0.0231279
0.0232358
0.0233191
0.0233805
0.0234232
0.0234509
0.0234684
0.0234802
0.0234894
0.0234976
0.0235053
0.0235125
0.0235188
0.0235242
0.023526
0.0235241
0.0235197
0.0235124
0.0235011
0.0234857
0.0234665
0.0234438
0.0234182
0.0233907
0.0233609
0.0233306
0.0233016
0.0232719
0.0232416
0.0232114
0.0231817
0.0231523
0.0231235
0.023095
0.0230657
0.0230366
0.0230072
0.0229773
0.0229466
0.0229165
0.0228859
0.0228544
0.0228231
0.0227912
0.022758
0.0227244
0.0226908
0.0226563
0.0226212
0.0225861
0.022551
0.0225159
0.0224808
0.022446
0.0224115
0.0223773
0.0223434
0.0223097
0.0222763
0.0222431
0.0222099
0.0221769
0.0221441
0.0221114
0.0220791
0.0220471
0.0220154
0.0219843
0.0219536
0.0157291
0.0158791
0.0160446
0.0162279
0.0164326
0.0166607
0.016912
0.0171852
0.0174778
0.0177872
0.0181107
0.018448
0.018806
0.0192055
0.0196428
0.0201076
0.0205863
0.0210653
0.021532
0.0219767
0.0223923
0.0227735
0.0231148
0.0234127
0.0236698
0.0238904
0.0240791
0.0242405
0.0243783
0.024495
0.0245917
0.0246688
0.0247266
0.0247671
0.0247943
0.0248119
0.0248228
0.024826
0.0248235
0.0248167
0.0248036
0.0247828
0.0247538
0.0247182
0.0246788
0.0246376
0.0245961
0.0245553
0.024516
0.024479
0.0244444
0.0244122
0.0243819
0.0243531
0.0243254
0.024298
0.02427
0.0242411
0.0242105
0.0241782
0.0241442
0.0241081
0.0240704
0.0240314
0.0239918
0.0239516
0.0239106
0.0238697
0.0238293
0.0237875
0.0237476
0.0237118
0.0236709
0.0236303
0.023594
0.0235604
0.0235216
0.0234832
0.0234498
0.0234162
0.0233796
0.0233453
0.0233129
0.0232794
0.0232455
0.0232125
0.02318
0.0231475
0.0231153
0.0230838
0.0230526
0.0230218
0.0229913
0.0229612
0.0229314
0.022902
0.0228729
0.0228442
0.0228159
0.022788
0.0227606
0.0227338
0.0227077
0.0226824
0.022658
0.0226343
0.0178262
0.0181729
0.0185363
0.0189193
0.0193423
0.0198044
0.0202964
0.0208053
0.0213169
0.0218179
0.0222973
0.0227466
0.0231582
0.0235242
0.023845
0.0241228
0.0243612
0.024564
0.0247354
0.0248792
0.0249985
0.0250957
0.0251727
0.0252313
0.0252731
0.0253013
0.0253201
0.0253339
0.0253456
0.0253567
0.0253672
0.0253763
0.0253784
0.0253748
0.0253658
0.0253523
0.0253354
0.025316
0.0252951
0.025274
0.0252539
0.0252352
0.0252161
0.0251938
0.0251662
0.0251335
0.0250967
0.0250574
0.0250167
0.0249759
0.0249357
0.0248968
0.0248596
0.0248242
0.0247904
0.0247579
0.0247261
0.0246942
0.0246616
0.0246275
0.0245915
0.0245532
0.0245124
0.0244692
0.0244241
0.0243773
0.0243289
0.0242793
0.02423
0.0241788
0.0241288
0.0240831
0.0240324
0.0239814
0.0239351
0.023892
0.0238435
0.0237954
0.0237527
0.0237103
0.023665
0.0236219
0.0235813
0.0235399
0.0234986
0.0234583
0.0234187
0.0233795
0.0233411
0.0233033
0.0232661
0.0232294
0.0231933
0.0231577
0.0231226
0.023088
0.023054
0.0230207
0.022988
0.022956
0.0229247
0.0228942
0.0228647
0.0228363
0.0228089
0.0227827
0.0211704
0.0216971
0.0222084
0.0226935
0.0231432
0.0235471
0.0239037
0.0242142
0.0244815
0.0247096
0.0249027
0.0250654
0.0252014
0.0253138
0.0254053
0.0254785
0.0255358
0.0255792
0.025611
0.0256347
0.0256536
0.0256694
0.0256829
0.0256937
0.0257016
0.0257023
0.0256988
0.0256905
0.0256786
0.0256651
0.0256519
0.0256407
0.0256333
0.02563
0.0256292
0.0256268
0.02562
0.0256078
0.0255909
0.0255706
0.0255484
0.025526
0.0255054
0.0254873
0.0254694
0.0254489
0.0254244
0.0253957
0.025363
0.0253272
0.0252893
0.0252501
0.0252106
0.0251713
0.0251328
0.0250951
0.0250584
0.0250225
0.024987
0.0249515
0.0249153
0.0248782
0.0248395
0.0247989
0.0247562
0.0247114
0.0246645
0.0246158
0.0245651
0.0245131
0.0244602
0.0244063
0.0243547
0.0243004
0.0242451
0.0241931
0.0241453
0.024089
0.0240343
0.0239848
0.0239377
0.0238858
0.0238351
0.0237885
0.0237412
0.0236948
0.0236492
0.0236034
0.0235595
0.0235175
0.0234759
0.0234342
0.0233932
0.0233534
0.0233144
0.0232756
0.0232375
0.0232002
0.0231637
0.0231281
0.0230931
0.023059
0.0230259
0.0229936
0.0229623
0.0229319
0.0229027
0.0246778
0.0249071
0.0251007
0.0252631
0.025398
0.025509
0.0255992
0.0256714
0.025728
0.0257713
0.025804
0.0258297
0.0258513
0.0258701
0.0258861
0.0258993
0.0259092
0.0259152
0.0259151
0.0259126
0.0259075
0.0259011
0.0258944
0.0258885
0.0258828
0.0258784
0.025875
0.0258704
0.0258624
0.0258505
0.0258362
0.0258214
0.0258078
0.0257974
0.0257921
0.0257887
0.0257841
0.0257764
0.0257647
0.0257493
0.0257307
0.0257101
0.0256888
0.0256682
0.0256496
0.0256322
0.0256144
0.0255947
0.0255724
0.025547
0.0255188
0.0254885
0.0254564
0.0254232
0.0253893
0.0253553
0.0253211
0.0252872
0.0252535
0.0252198
0.0251856
0.0251508
0.0251149
0.0250774
0.025038
0.0249965
0.0249528
0.0249067
0.0248583
0.0248076
0.0247549
0.0247006
0.0246464
0.0245908
0.024533
0.0244771
0.0244261
0.0243655
0.0243058
0.0242509
0.0241999
0.024143
0.0240834
0.0240293
0.0239779
0.0239279
0.0238743
0.0238209
0.0237726
0.023727
0.0236797
0.02363
0.0235834
0.0235395
0.0234953
0.0234507
0.0234069
0.0233647
0.0233236
0.0232829
0.023243
0.0232043
0.0231668
0.0231303
0.0230948
0.0230605
0.0230273
0.0256452
0.0257397
0.0258153
0.0258749
0.0259207
0.0259559
0.0259842
0.0260081
0.0260287
0.0260461
0.0260604
0.0260711
0.0260779
0.0260792
0.0260779
0.026075
0.0260716
0.0260679
0.0260645
0.0260617
0.0260603
0.0260597
0.026058
0.0260534
0.0260462
0.026037
0.0260271
0.0260167
0.0260077
0.0260014
0.0259958
0.0259893
0.0259804
0.0259693
0.0259563
0.0259423
0.0259286
0.0259178
0.02591
0.0259049
0.0259002
0.0258941
0.0258855
0.0258741
0.02586
0.0258437
0.0258263
0.0258092
0.025793
0.0257777
0.0257626
0.0257468
0.0257292
0.0257091
0.0256869
0.0256626
0.0256362
0.0256082
0.0255795
0.0255499
0.0255197
0.0254897
0.0254595
0.0254287
0.0253977
0.0253659
0.0253329
0.0252983
0.0252619
0.0252233
0.0251824
0.025139
0.0250929
0.0250442
0.0249929
0.0249403
0.0248865
0.0248296
0.0247735
0.0247205
0.0246615
0.0246001
0.0245426
0.0244885
0.0244328
0.0243677
0.0243088
0.0242536
0.0242011
0.0241406
0.0240824
0.0240305
0.0239817
0.02393
0.0238734
0.023822
0.0237747
0.0237266
0.0236756
0.0236268
0.0235816
0.0235363
0.0234904
0.0234458
0.0234033
0.023362
0.0233213
0.0232818
0.0232438
0.023207
0.0261709
0.0261898
0.0262053
0.026217
0.0262244
0.0262271
0.0262266
0.0262251
0.0262229
0.0262205
0.0262186
0.0262171
0.0262175
0.0262177
0.0262162
0.026212
0.026206
0.0261983
0.0261898
0.0261817
0.026175
0.0261711
0.0261677
0.0261634
0.0261575
0.0261495
0.0261399
0.0261295
0.0261189
0.0261094
0.0261012
0.0260943
0.0260874
0.0260796
0.0260705
0.0260601
0.0260486
0.0260376
0.0260286
0.0260215
0.0260162
0.0260119
0.0260071
0.0260007
0.0259923
0.0259814
0.0259684
0.0259544
0.0259403
0.025926
0.0259122
0.0258993
0.0258859
0.0258707
0.0258541
0.0258361
0.025816
0.0257937
0.0257703
0.0257461
0.0257204
0.0256944
0.0256686
0.0256418
0.0256146
0.0255876
0.0255593
0.0255298
0.0254993
0.0254668
0.0254321
0.0253953
0.0253558
0.0253135
0.0252682
0.0252209
0.0251719
0.0251189
0.025066
0.0250148
0.0249596
0.0248995
0.024843
0.0247885
0.0247365
0.0246704
0.0246094
0.0245525
0.024499
0.0244356
0.0243742
0.0243205
0.0242694
0.0242151
0.0241535
0.0240989
0.0240488
0.0239987
0.0239425
0.0238901
0.023842
0.0237935
0.0237421
0.0236941
0.0236494
0.0236042
0.0235589
0.0235167
0.023476
0.0234359
0.0263707
0.0263687
0.0263671
0.0263663
0.026367
0.0263676
0.0263662
0.0263624
0.0263567
0.0263495
0.0263418
0.0263346
0.0263295
0.0263261
0.026323
0.0263189
0.0263132
0.0263059
0.0262975
0.0262885
0.0262797
0.0262721
0.0262663
0.0262614
0.0262567
0.0262513
0.0262447
0.0262368
0.0262281
0.0262192
0.0262108
0.0262034
0.0261968
0.0261903
0.0261835
0.0261758
0.026167
0.0261576
0.0261484
0.0261402
0.0261336
0.0261282
0.0261236
0.026119
0.0261137
0.0261069
0.0260979
0.0260875
0.0260768
0.0260646
0.0260519
0.0260399
0.0260286
0.0260161
0.0260023
0.0259886
0.0259737
0.0259561
0.025937
0.025918
0.0258971
0.0258746
0.0258529
0.0258303
0.0258063
0.0257835
0.0257598
0.0257345
0.0257092
0.0256825
0.0256537
0.0256236
0.0255912
0.0255559
0.025518
0.025478
0.0254362
0.0253891
0.0253418
0.0252954
0.0252466
0.0251898
0.0251368
0.0250851
0.0250372
0.024974
0.0249136
0.0248577
0.024805
0.024743
0.0246802
0.0246261
0.0245741
0.0245194
0.0244554
0.0243996
0.0243481
0.0242974
0.0242378
0.024183
0.0241331
0.0240821
0.0240275
0.0239772
0.0239307
0.0238816
0.0238332
0.0237891
0.0237473
0.0237045
0.0265081
0.0265009
0.0264932
0.026486
0.0264809
0.0264773
0.0264739
0.0264696
0.0264637
0.0264565
0.0264483
0.0264399
0.0264319
0.0264254
0.0264206
0.0264165
0.0264124
0.0264075
0.0264017
0.026395
0.0263877
0.0263804
0.0263738
0.0263684
0.0263638
0.0263594
0.0263546
0.026349
0.0263424
0.0263351
0.0263274
0.0263199
0.0263129
0.0263063
0.0263
0.0262934
0.0262862
0.0262784
0.0262701
0.0262619
0.0262543
0.0262479
0.0262423
0.0262374
0.0262328
0.026228
0.0262215
0.0262139
0.0262065
0.0261974
0.0261858
0.0261755
0.0261661
0.0261546
0.0261422
0.0261306
0.02612
0.0261055
0.0260898
0.0260751
0.0260587
0.0260393
0.0260212
0.0260031
0.0259817
0.0259617
0.0259423
0.0259203
0.0258987
0.025877
0.025853
0.0258287
0.025803
0.0257741
0.0257429
0.0257109
0.0256773
0.0256367
0.0255961
0.0255562
0.0255154
0.0254633
0.0254156
0.0253687
0.0253257
0.0252668
0.0252099
0.0251575
0.0251076
0.0250488
0.0249869
0.024934
0.024883
0.0248287
0.0247648
0.0247097
0.0246584
0.0246079
0.0245468
0.024491
0.0244406
0.0243878
0.0243323
0.0242809
0.0242332
0.0241813
0.024132
0.0240866
0.0240441
0.0239997
0.0266158
0.0266083
0.0265999
0.0265913
0.0265832
0.0265768
0.026572
0.026568
0.0265639
0.0265592
0.0265537
0.0265475
0.0265409
0.0265346
0.0265291
0.0265248
0.026521
0.0265174
0.0265134
0.0265088
0.0265034
0.0264974
0.0264914
0.0264857
0.0264806
0.026476
0.0264716
0.0264671
0.0264619
0.0264561
0.0264496
0.0264428
0.0264359
0.0264292
0.0264227
0.0264163
0.0264098
0.0264029
0.0263956
0.026388
0.0263804
0.0263732
0.0263669
0.026361
0.0263559
0.0263515
0.0263461
0.0263406
0.0263353
0.0263283
0.0263186
0.0263104
0.026303
0.0262924
0.026281
0.0262715
0.0262632
0.0262506
0.0262375
0.026226
0.0262139
0.0261967
0.0261817
0.0261682
0.0261489
0.0261313
0.0261158
0.0260963
0.0260775
0.0260601
0.0260395
0.0260189
0.0259992
0.0259749
0.0259495
0.0259243
0.0258984
0.0258638
0.0258303
0.0257975
0.0257642
0.0257181
0.0256766
0.0256358
0.0255978
0.0255437
0.0254926
0.0254452
0.0253999
0.0253437
0.0252854
0.0252355
0.0251868
0.0251331
0.0250713
0.0250185
0.0249685
0.0249185
0.0248575
0.0248023
0.024752
0.0246991
0.0246441
0.0245924
0.0245438
0.0244913
0.0244421
0.0243967
0.0243538
0.0243088
0.0267209
0.0267164
0.0267115
0.026706
0.0266998
0.0266932
0.026687
0.0266818
0.0266777
0.0266742
0.0266709
0.0266672
0.0266631
0.0266583
0.0266532
0.0266482
0.0266437
0.0266397
0.0266363
0.0266329
0.0266294
0.0266254
0.0266209
0.026616
0.0266109
0.0266059
0.0266012
0.0265968
0.0265925
0.0265881
0.0265832
0.0265778
0.026572
0.0265657
0.0265593
0.0265529
0.0265466
0.0265403
0.0265338
0.0265272
0.0265202
0.026513
0.0265059
0.0264991
0.0264927
0.0264869
0.0264822
0.0264771
0.026472
0.0264679
0.0264626
0.026455
0.0264485
0.0264428
0.0264341
0.0264239
0.0264158
0.0264089
0.0263984
0.026387
0.0263778
0.0263688
0.0263546
0.0263419
0.0263314
0.0263155
0.0262998
0.026287
0.0262707
0.0262534
0.026239
0.0262216
0.0262034
0.0261875
0.0261673
0.0261463
0.0261264
0.0261057
0.0260764
0.0260496
0.0260238
0.0259958
0.0259562
0.0259215
0.0258871
0.0258534
0.0258042
0.0257604
0.0257184
0.0256782
0.0256244
0.0255717
0.0255256
0.0254803
0.0254266
0.0253689
0.0253194
0.0252715
0.0252214
0.0251621
0.025109
0.0250596
0.0250074
0.0249533
0.0249021
0.0248532
0.0248018
0.0247533
0.0247085
0.0246657
0.0246204
0.0268316
0.0268276
0.026824
0.0268203
0.0268162
0.0268116
0.0268067
0.026802
0.0267978
0.0267943
0.0267913
0.0267884
0.0267855
0.0267822
0.0267785
0.0267746
0.0267707
0.026767
0.0267636
0.0267605
0.0267575
0.0267544
0.026751
0.0267472
0.026743
0.0267387
0.0267343
0.02673
0.0267259
0.0267218
0.0267175
0.026713
0.026708
0.0267026
0.0266969
0.0266909
0.0266849
0.0266788
0.0266727
0.0266665
0.0266601
0.0266535
0.0266469
0.0266402
0.0266337
0.0266277
0.0266226
0.0266175
0.0266124
0.0266087
0.0266045
0.0265986
0.0265934
0.0265892
0.0265825
0.0265742
0.0265671
0.0265614
0.0265533
0.0265434
0.0265357
0.0265289
0.0265177
0.0265068
0.0264985
0.0264862
0.0264723
0.0264616
0.0264485
0.0264326
0.0264199
0.0264058
0.0263888
0.0263747
0.0263586
0.0263402
0.0263237
0.0263064
0.026282
0.0262603
0.0262407
0.0262151
0.0261821
0.0261535
0.026126
0.0260941
0.0260511
0.0260145
0.0259777
0.0259416
0.0258907
0.0258449
0.0258025
0.025761
0.0257074
0.025655
0.0256088
0.025564
0.0255123
0.0254566
0.0254065
0.0253588
0.025307
0.0252541
0.0252043
0.0251563
0.025106
0.0250583
0.0250136
0.0249713
0.0249262
0.0248752
0.0248305
0.0269522
0.0269484
0.0269451
0.0269421
0.0269392
0.0269361
0.0269327
0.0269291
0.0269257
0.0269225
0.0269197
0.0269172
0.0269149
0.0269125
0.02691
0.0269072
0.0269043
0.0269013
0.0268984
0.0268956
0.026893
0.0268905
0.0268878
0.0268849
0.0268818
0.0268783
0.0268746
0.0268709
0.0268671
0.0268634
0.0268596
0.0268557
0.0268515
0.0268469
0.0268421
0.0268369
0.0268315
0.026826
0.0268204
0.0268147
0.0268089
0.026803
0.026797
0.0267909
0.0267848
0.0267791
0.0267739
0.0267688
0.026764
0.0267604
0.0267567
0.0267519
0.0267481
0.0267448
0.0267399
0.0267339
0.026728
0.0267235
0.0267176
0.0267095
0.0267028
0.0266977
0.0266892
0.0266798
0.0266733
0.0266639
0.026652
0.026643
0.0266326
0.0266183
0.0266069
0.0265955
0.0265796
0.0265663
0.0265534
0.0265361
0.0265211
0.0265067
0.0264861
0.0264677
0.0264522
0.026428
0.0264009
0.0263769
0.0263554
0.0263236
0.0262876
0.0262567
0.0262257
0.0261909
0.0261443
0.0261053
0.0260666
0.0260277
0.0259755
0.025929
0.0258857
0.0258436
0.0257906
0.0257397
0.0256926
0.0256468
0.0255948
0.0255436
0.0254959
0.0254494
0.0253999
0.0253524
0.0253079
0.025265
0.0252206
0.0251723
0.0251282
0.027087
0.0270834
0.0270798
0.0270765
0.0270736
0.0270711
0.0270688
0.0270666
0.0270643
0.0270619
0.0270595
0.0270571
0.0270548
0.0270528
0.027051
0.0270493
0.0270476
0.0270458
0.0270439
0.0270418
0.0270397
0.0270376
0.0270355
0.0270335
0.0270315
0.0270294
0.0270271
0.0270246
0.0270218
0.0270188
0.0270158
0.0270126
0.0270094
0.0270061
0.0270027
0.026999
0.0269951
0.0269909
0.0269864
0.0269817
0.0269769
0.026972
0.026967
0.0269619
0.0269567
0.0269515
0.0269462
0.0269411
0.0269363
0.0269316
0.0269274
0.026924
0.0269205
0.0269169
0.0269142
0.0269114
0.026908
0.0269042
0.0268997
0.0268963
0.0268924
0.0268864
0.0268806
0.0268768
0.0268705
0.0268625
0.0268574
0.0268504
0.0268402
0.0268327
0.0268245
0.0268119
0.0268015
0.0267919
0.0267775
0.0267645
0.0267535
0.0267375
0.0267223
0.0267098
0.0266919
0.0266746
0.0266606
0.0266391
0.0266161
0.0265952
0.0265771
0.0265462
0.0265161
0.0264888
0.0264636
0.0264278
0.0263875
0.0263534
0.0263193
0.0262802
0.0262317
0.0261907
0.0261504
0.0261088
0.0260565
0.0260102
0.0259658
0.025922
0.0258693
0.0258204
0.0257749
0.0257303
0.0256811
0.0256335
0.0255889
0.0255454
0.025502
0.0254571
0.0254138
0.0272177
0.0272152
0.0272127
0.0272103
0.027208
0.0272061
0.0272044
0.0272029
0.0272014
0.0272
0.0271986
0.0271971
0.0271957
0.0271943
0.0271932
0.0271921
0.0271912
0.0271902
0.0271892
0.027188
0.0271868
0.0271855
0.0271843
0.027183
0.0271817
0.0271803
0.0271789
0.0271773
0.0271755
0.0271735
0.0271714
0.0271691
0.0271667
0.0271643
0.0271617
0.027159
0.0271561
0.0271529
0.0271496
0.027146
0.0271422
0.0271383
0.0271344
0.0271303
0.0271262
0.027122
0.0271178
0.0271137
0.0271097
0.0271058
0.0271023
0.0270993
0.0270963
0.0270938
0.0270918
0.0270897
0.0270876
0.0270854
0.0270824
0.0270801
0.0270777
0.0270735
0.027069
0.0270663
0.0270615
0.0270549
0.027051
0.0270456
0.0270369
0.0270306
0.0270239
0.0270129
0.0270033
0.026995
0.026982
0.026969
0.0269588
0.0269443
0.0269285
0.0269162
0.0269005
0.0268825
0.026868
0.0268503
0.0268289
0.0268094
0.0267926
0.0267641
0.0267376
0.0267127
0.0266908
0.0266554
0.0266203
0.0265889
0.0265595
0.0265196
0.0264765
0.0264392
0.0264027
0.0263584
0.0263095
0.0262674
0.0262255
0.0261823
0.0261296
0.0260835
0.0260399
0.0259975
0.0259478
0.0259001
0.0258561
0.0258131
0.0257701
0.0257269
0.0256846
0.0256438
0.0273696
0.0273667
0.0273639
0.0273612
0.0273588
0.0273567
0.0273549
0.0273532
0.0273517
0.0273502
0.0273487
0.0273474
0.0273461
0.0273451
0.0273443
0.0273436
0.027343
0.0273425
0.027342
0.0273414
0.027341
0.0273406
0.0273403
0.0273401
0.02734
0.0273398
0.0273396
0.0273394
0.0273391
0.0273387
0.0273383
0.0273379
0.0273375
0.027337
0.0273364
0.0273356
0.0273347
0.0273337
0.0273325
0.0273311
0.0273297
0.0273282
0.0273265
0.0273248
0.0273229
0.0273208
0.0273185
0.027316
0.0273134
0.0273107
0.0273079
0.027305
0.0273021
0.0272991
0.0272961
0.0272932
0.0272904
0.0272878
0.0272855
0.0272834
0.0272817
0.0272804
0.0272789
0.0272779
0.0272768
0.0272751
0.0272738
0.0272725
0.0272697
0.0272666
0.0272647
0.0272611
0.0272557
0.0272526
0.0272481
0.0272405
0.027235
0.0272292
0.0272194
0.0272102
0.0272026
0.0271908
0.0271776
0.0271676
0.0271542
0.0271377
0.0271246
0.0271104
0.0270915
0.0270752
0.0270599
0.0270389
0.0270188
0.027002
0.0269772
0.0269519
0.0269282
0.0269077
0.026874
0.0268419
0.0268119
0.0267858
0.0267474
0.026708
0.0266722
0.026639
0.0265939
0.0265489
0.026509
0.0264699
0.0264261
0.0263751
0.0263314
0.0262891
0.0262482
0.0261988
0.0261517
0.0261084
0.0260661
0.0260236
0.0259812
0.0259394
0.0258989
0.0275035
0.0275016
0.0274998
0.027498
0.0274965
0.0274952
0.027494
0.0274931
0.0274924
0.0274918
0.0274912
0.0274908
0.0274904
0.0274902
0.0274902
0.0274903
0.0274905
0.0274908
0.0274912
0.0274916
0.0274921
0.0274926
0.0274932
0.0274939
0.0274946
0.0274954
0.0274962
0.027497
0.0274978
0.0274984
0.0274991
0.0274997
0.0275003
0.0275009
0.0275014
0.0275018
0.0275021
0.0275022
0.0275022
0.0275022
0.027502
0.0275017
0.0275013
0.0275008
0.0275002
0.0274995
0.0274987
0.0274976
0.0274965
0.0274952
0.0274938
0.0274923
0.0274907
0.0274891
0.0274875
0.0274858
0.0274842
0.0274827
0.0274813
0.02748
0.0274791
0.0274783
0.0274776
0.0274773
0.0274768
0.027476
0.0274755
0.0274749
0.027473
0.0274711
0.0274696
0.0274666
0.0274622
0.0274595
0.0274553
0.0274484
0.0274431
0.0274376
0.0274284
0.0274191
0.0274117
0.0274006
0.0273869
0.0273765
0.0273636
0.0273466
0.027332
0.0273182
0.027299
0.0272805
0.0272649
0.0272448
0.0272227
0.0272038
0.0271832
0.027157
0.0271333
0.0271128
0.0270825
0.0270508
0.0270216
0.0269967
0.0269618
0.0269238
0.0268886
0.0268571
0.0268142
0.0267718
0.0267327
0.0266958
0.0266521
0.026604
0.0265617
0.0265202
0.0264791
0.0264331
0.0263871
0.026344
0.0263021
0.0262602
0.0262183
0.026177
0.0261365
0.0276412
0.0276401
0.0276391
0.0276383
0.0276377
0.0276372
0.0276369
0.0276367
0.0276368
0.027637
0.0276373
0.0276378
0.0276383
0.027639
0.0276398
0.0276408
0.0276419
0.0276431
0.0276444
0.0276458
0.0276472
0.0276488
0.0276503
0.027652
0.0276537
0.0276555
0.0276574
0.0276593
0.0276611
0.027663
0.0276648
0.0276666
0.0276683
0.0276701
0.0276718
0.0276735
0.027675
0.0276766
0.0276779
0.0276792
0.0276804
0.0276815
0.0276826
0.0276835
0.0276844
0.0276851
0.0276857
0.0276862
0.0276866
0.0276868
0.0276869
0.0276869
0.0276867
0.0276865
0.0276862
0.0276858
0.0276853
0.0276849
0.0276844
0.027684
0.0276837
0.0276834
0.0276832
0.0276832
0.0276831
0.0276828
0.0276826
0.0276821
0.0276807
0.0276793
0.0276778
0.0276749
0.027671
0.027668
0.0276636
0.0276568
0.0276513
0.0276454
0.0276362
0.0276263
0.0276184
0.0276072
0.0275928
0.0275813
0.0275683
0.0275508
0.0275343
0.0275198
0.0275005
0.0274797
0.0274622
0.0274427
0.0274186
0.0273972
0.0273776
0.0273514
0.0273259
0.027303
0.0272782
0.0272454
0.0272161
0.027189
0.0271605
0.0271223
0.0270865
0.0270535
0.027017
0.0269763
0.026937
0.0268994
0.0268582
0.026814
0.0267723
0.0267313
0.02669
0.026647
0.026603
0.0265603
0.0265186
0.0264772
0.0264359
0.026395
0.0263547
0.0277819
0.0277816
0.0277815
0.0277816
0.0277818
0.0277821
0.0277827
0.0277834
0.0277842
0.0277853
0.0277865
0.0277878
0.0277893
0.0277909
0.0277927
0.0277945
0.0277966
0.0277987
0.027801
0.0278034
0.0278059
0.0278085
0.0278111
0.0278139
0.0278167
0.0278196
0.0278226
0.0278256
0.0278287
0.0278318
0.0278348
0.0278379
0.027841
0.027844
0.0278471
0.0278501
0.0278531
0.027856
0.0278589
0.0278616
0.0278643
0.0278669
0.0278694
0.0278718
0.0278742
0.0278764
0.0278786
0.0278806
0.0278824
0.0278841
0.0278857
0.0278871
0.0278883
0.0278894
0.0278903
0.027891
0.0278916
0.027892
0.0278923
0.0278925
0.0278927
0.0278927
0.0278927
0.0278927
0.0278925
0.0278922
0.0278917
0.0278909
0.0278894
0.0278877
0.0278856
0.0278823
0.0278781
0.0278744
0.0278691
0.0278618
0.0278554
0.0278484
0.0278384
0.0278274
0.0278184
0.0278063
0.0277908
0.0277777
0.0277639
0.0277455
0.0277269
0.0277109
0.027691
0.0276681
0.027648
0.0276282
0.0276026
0.0275785
0.0275574
0.0275316
0.0275034
0.0274787
0.0274555
0.0274229
0.0273918
0.0273634
0.0273371
0.0273024
0.0272643
0.0272301
0.0271966
0.0271591
0.027119
0.0270803
0.0270417
0.0270011
0.0269605
0.02692
0.0268793
0.0268379
0.0267958
0.026754
0.0267129
0.026672
0.0266314
0.026591
0.0265511
0.0265116
0.0264725
0.027925
0.0279255
0.0279262
0.0279271
0.0279282
0.0279295
0.0279309
0.0279324
0.0279342
0.0279361
0.0279382
0.0279405
0.0279429
0.0279455
0.0279482
0.027951
0.0279541
0.0279572
0.0279606
0.027964
0.0279676
0.0279713
0.0279751
0.027979
0.027983
0.0279871
0.0279913
0.0279956
0.0279999
0.0280043
0.0280087
0.0280131
0.0280176
0.028022
0.0280265
0.0280309
0.0280353
0.0280397
0.0280441
0.0280483
0.0280525
0.0280566
0.0280607
0.0280646
0.0280684
0.0280721
0.0280757
0.0280791
0.0280823
0.0280854
0.0280882
0.0280909
0.0280933
0.0280954
0.0280973
0.0280989
0.0281003
0.0281014
0.0281021
0.0281027
0.0281029
0.0281029
0.0281027
0.0281023
0.0281016
0.0281005
0.0280993
0.0280975
0.0280951
0.0280924
0.0280891
0.0280847
0.0280796
0.0280743
0.0280676
0.0280591
0.0280511
0.0280423
0.0280309
0.0280182
0.0280073
0.0279936
0.0279766
0.0279612
0.0279459
0.0279262
0.0279052
0.0278871
0.0278661
0.0278411
0.0278183
0.027797
0.0277703
0.0277433
0.0277195
0.0276938
0.0276632
0.0276366
0.027612
0.0275805
0.0275471
0.027518
0.0274899
0.0274601
0.0274201
0.0273853
0.0273517
0.0273174
0.0272771
0.027238
0.0272005
0.0271624
0.0271234
0.027084
0.0270443
0.0270041
0.0269636
0.026923
0.0268827
0.0268426
0.0268027
0.026763
0.0267235
0.0266843
0.0266454
0.0280699
0.0280713
0.0280729
0.0280746
0.0280766
0.0280787
0.028081
0.0280834
0.0280861
0.0280889
0.028092
0.0280952
0.0280986
0.0281022
0.0281059
0.0281098
0.0281139
0.0281181
0.0281225
0.0281271
0.0281318
0.0281367
0.0281417
0.0281468
0.0281521
0.0281574
0.0281629
0.0281685
0.0281741
0.0281798
0.0281856
0.0281914
0.0281973
0.0282032
0.0282091
0.0282149
0.0282208
0.0282267
0.0282325
0.0282382
0.0282439
0.0282494
0.0282549
0.0282602
0.0282654
0.0282704
0.0282752
0.0282799
0.0282843
0.0282885
0.0282924
0.0282959
0.0282992
0.0283021
0.0283046
0.0283067
0.0283085
0.0283098
0.0283106
0.028311
0.0283109
0.0283105
0.0283096
0.0283082
0.0283064
0.0283042
0.0283014
0.0282981
0.0282942
0.0282897
0.0282845
0.0282782
0.0282713
0.0282638
0.0282549
0.0282446
0.0282342
0.028223
0.0282094
0.0281946
0.028181
0.0281651
0.028146
0.0281278
0.0281103
0.0280888
0.0280651
0.0280443
0.0280218
0.0279948
0.027969
0.0279456
0.0279176
0.0278878
0.0278611
0.0278347
0.0278023
0.027773
0.027746
0.0277156
0.0276803
0.02765
0.02762
0.0275921
0.0275522
0.0275162
0.0274823
0.027449
0.0274101
0.0273709
0.027334
0.0272973
0.02726
0.0272219
0.0271834
0.0271445
0.0271053
0.027066
0.0270268
0.0269876
0.0269485
0.0269096
0.0268707
0.026832
0.0267935
0.0282142
0.0282162
0.0282185
0.0282209
0.0282235
0.0282263
0.0282293
0.0282325
0.0282359
0.0282395
0.0282433
0.0282473
0.0282515
0.0282559
0.0282605
0.0282653
0.0282703
0.0282755
0.0282808
0.0282864
0.0282921
0.028298
0.0283041
0.0283103
0.0283167
0.0283232
0.0283298
0.0283366
0.0283435
0.0283505
0.0283576
0.0283647
0.0283719
0.0283792
0.0283864
0.0283937
0.028401
0.0284083
0.0284155
0.0284227
0.0284298
0.0284368
0.0284436
0.0284503
0.0284568
0.0284632
0.0284693
0.0284752
0.0284807
0.028486
0.028491
0.0284955
0.0284996
0.0285033
0.0285066
0.0285093
0.0285114
0.028513
0.028514
0.0285143
0.0285141
0.0285132
0.0285117
0.0285096
0.0285067
0.0285033
0.0284992
0.0284944
0.0284889
0.0284826
0.0284757
0.0284679
0.0284591
0.0284495
0.0284391
0.0284274
0.0284145
0.0284011
0.0283868
0.0283704
0.0283528
0.0283361
0.0283173
0.0282955
0.0282742
0.0282539
0.02823
0.0282035
0.0281797
0.0281551
0.0281259
0.0280971
0.0280711
0.0280417
0.0280093
0.0279797
0.0279518
0.027918
0.0278859
0.0278563
0.0278263
0.0277897
0.0277578
0.0277263
0.0276982
0.0276591
0.0276219
0.0275878
0.0275543
0.0275173
0.0274784
0.027442
0.0274064
0.0273703
0.0273335
0.0272962
0.0272586
0.0272208
0.0271829
0.0271449
0.0271068
0.0270688
0.0270306
0.0269927
0.0269548
0.0269169
0.0283606
0.0283634
0.0283665
0.0283698
0.0283733
0.028377
0.0283809
0.028385
0.0283893
0.0283939
0.0283987
0.0284037
0.0284089
0.0284143
0.02842
0.0284259
0.0284319
0.0284382
0.0284447
0.0284514
0.0284584
0.0284654
0.0284727
0.0284802
0.0284878
0.0284956
0.0285035
0.0285116
0.0285198
0.0285281
0.0285365
0.028545
0.0285535
0.0285621
0.0285706
0.0285792
0.0285878
0.0285963
0.0286048
0.0286132
0.0286214
0.0286295
0.0286374
0.0286451
0.0286526
0.0286597
0.0286666
0.0286731
0.0286793
0.028685
0.0286903
0.028695
0.0286993
0.0287029
0.0287059
0.0287082
0.0287099
0.0287108
0.0287108
0.0287101
0.0287087
0.0287064
0.0287032
0.0286992
0.0286943
0.0286885
0.0286819
0.0286745
0.0286661
0.0286569
0.0286468
0.0286358
0.0286237
0.0286108
0.0285969
0.0285818
0.0285655
0.0285486
0.0285307
0.0285109
0.02849
0.0284696
0.0284473
0.0284225
0.0283978
0.0283741
0.0283473
0.0283179
0.0282908
0.0282636
0.0282322
0.0282004
0.0281715
0.0281406
0.0281058
0.0280735
0.0280436
0.0280089
0.027974
0.0279422
0.0279117
0.0278744
0.0278407
0.0278083
0.0277792
0.0277408
0.0277027
0.0276686
0.0276347
0.0275991
0.0275612
0.0275255
0.0274906
0.0274556
0.02742
0.0273841
0.0273478
0.0273114
0.027275
0.0272383
0.0272014
0.0271645
0.0271276
0.0270906
0.0270537
0.0270166
0.0269793
0.0269419
0.0285073
0.028511
0.028515
0.0285191
0.0285235
0.0285281
0.0285329
0.028538
0.0285433
0.0285488
0.0285546
0.0285606
0.0285668
0.0285733
0.02858
0.028587
0.0285942
0.0286016
0.0286092
0.0286171
0.0286252
0.0286334
0.0286419
0.0286506
0.0286594
0.0286684
0.0286776
0.0286869
0.0286963
0.0287059
0.0287155
0.0287252
0.0287349
0.0287446
0.0287544
0.0287641
0.0287738
0.0287833
0.0287928
0.0288021
0.0288112
0.0288201
0.0288288
0.0288372
0.0288452
0.0288528
0.02886
0.0288668
0.028873
0.0288787
0.0288838
0.0288882
0.028892
0.028895
0.0288972
0.0288986
0.0288989
0.0288985
0.0288972
0.0288948
0.0288915
0.0288871
0.0288816
0.0288751
0.0288675
0.0288589
0.0288492
0.0288385
0.0288267
0.0288139
0.0288001
0.0287853
0.0287693
0.0287524
0.0287345
0.0287154
0.0286952
0.0286742
0.0286521
0.0286285
0.0286039
0.0285794
0.0285533
0.028525
0.0284967
0.0284693
0.0284393
0.0284068
0.0283763
0.0283462
0.0283124
0.0282778
0.0282461
0.0282133
0.0281766
0.0281418
0.0281099
0.0280743
0.0280373
0.0280036
0.0279721
0.0279347
0.0278994
0.0278664
0.0278363
0.0277985
0.0277599
0.0277257
0.0276919
0.0276576
0.0276213
0.0275862
0.0275521
0.0275181
0.0274837
0.0274491
0.0274143
0.0273795
0.0273445
0.0273092
0.0272738
0.0272382
0.0272027
0.027167
0.0271312
0.0270951
0.0270588
0.0270221
0.0286541
0.0286586
0.0286634
0.0286684
0.0286737
0.0286792
0.0286849
0.0286909
0.0286972
0.0287037
0.0287104
0.0287174
0.0287247
0.0287322
0.02874
0.028748
0.0287563
0.0287648
0.0287735
0.0287825
0.0287917
0.0288011
0.0288108
0.0288206
0.0288305
0.0288407
0.028851
0.0288614
0.0288719
0.0288826
0.0288933
0.028904
0.0289147
0.0289255
0.0289361
0.0289467
0.0289572
0.0289676
0.0289777
0.0289877
0.0289973
0.0290067
0.0290157
0.0290243
0.0290324
0.02904
0.0290471
0.0290536
0.0290594
0.0290645
0.0290689
0.0290724
0.0290751
0.0290768
0.0290776
0.0290773
0.029076
0.0290736
0.0290701
0.0290654
0.0290595
0.0290524
0.029044
0.0290344
0.0290236
0.0290115