/*--------------------------------*- C++ -*----------------------------------*\
| =========                 |                                                 |
| \\      /  F ield         | OpenFOAM: The Open Source CFD Toolbox           |
|  \\    /   O peration     | Version:  v1706                                 |
|   \\  /    A nd           | Web:      www.OpenFOAM.com                      |
|    \\/     M anipulation  |                                                 |
\*---------------------------------------------------------------------------*/
FoamFile
{
    version     2.0;
    format      ascii;
    class       volScalarField;
    location    "3.8e-05";
    object      kappave;
}
// * * * * * * * * * * * * * * * * * * * * * * * * * * * * * * * * * * * * * //

dimensions      [1 1 -3 -1 0 0 0];


internalField   nonuniform List<scalar> 
29871
(
1.46642e-10
1.46728e-10
1.46825e-10
1.46937e-10
1.47065e-10
1.47211e-10
1.47376e-10
1.47561e-10
1.47766e-10
1.47993e-10
1.48245e-10
1.48526e-10
1.48845e-10
1.49209e-10
1.49623e-10
1.5009e-10
1.5061e-10
1.51179e-10
1.51794e-10
1.52454e-10
1.53168e-10
1.53957e-10
1.54841e-10
1.55819e-10
1.56878e-10
1.58003e-10
1.59179e-10
1.60395e-10
1.61638e-10
1.62892e-10
1.64144e-10
1.65379e-10
1.66594e-10
1.67822e-10
1.69264e-10
1.71047e-10
1.73059e-10
1.75173e-10
1.77294e-10
1.79353e-10
1.81308e-10
1.83133e-10
1.84817e-10
1.8636e-10
1.87767e-10
1.89045e-10
1.90199e-10
1.91233e-10
1.92148e-10
1.92943e-10
1.93616e-10
1.94169e-10
1.94612e-10
1.94951e-10
1.95195e-10
1.95356e-10
1.95447e-10
1.95451e-10
1.95415e-10
1.95347e-10
1.95257e-10
1.95124e-10
1.9497e-10
1.94816e-10
1.94641e-10
1.94443e-10
1.94225e-10
1.93988e-10
1.93738e-10
1.93473e-10
1.93181e-10
1.92874e-10
1.92556e-10
1.92218e-10
1.91856e-10
1.91481e-10
1.91098e-10
1.90697e-10
1.90279e-10
1.89849e-10
1.89403e-10
1.88941e-10
1.88469e-10
1.87985e-10
1.87489e-10
1.86985e-10
1.86473e-10
1.85956e-10
1.85433e-10
1.84907e-10
1.84379e-10
1.83849e-10
1.83317e-10
1.82782e-10
1.82244e-10
1.81701e-10
1.81152e-10
1.80596e-10
1.80033e-10
1.79462e-10
1.78882e-10
1.78295e-10
1.777e-10
1.771e-10
1.76496e-10
1.49762e-10
1.50276e-10
1.50855e-10
1.51511e-10
1.52256e-10
1.53102e-10
1.54055e-10
1.55119e-10
1.56294e-10
1.57582e-10
1.58992e-10
1.60549e-10
1.62285e-10
1.64215e-10
1.66331e-10
1.68617e-10
1.71047e-10
1.73593e-10
1.76228e-10
1.78933e-10
1.81722e-10
1.84739e-10
1.88155e-10
1.91912e-10
1.95896e-10
1.99982e-10
2.04053e-10
2.0801e-10
2.11775e-10
2.15293e-10
2.18525e-10
2.21455e-10
2.24083e-10
2.26413e-10
2.28421e-10
2.30095e-10
2.31455e-10
2.32535e-10
2.33369e-10
2.33984e-10
2.34412e-10
2.3469e-10
2.34865e-10
2.34984e-10
2.35077e-10
2.35159e-10
2.35237e-10
2.3531e-10
2.35373e-10
2.35428e-10
2.35447e-10
2.35429e-10
2.35386e-10
2.35313e-10
2.352e-10
2.35047e-10
2.34856e-10
2.34628e-10
2.34373e-10
2.34098e-10
2.33801e-10
2.33498e-10
2.33208e-10
2.32912e-10
2.32608e-10
2.32306e-10
2.3201e-10
2.31716e-10
2.31427e-10
2.31142e-10
2.30849e-10
2.30557e-10
2.30263e-10
2.29964e-10
2.29657e-10
2.29355e-10
2.29048e-10
2.28733e-10
2.28419e-10
2.281e-10
2.27767e-10
2.27431e-10
2.27093e-10
2.26747e-10
2.26396e-10
2.26044e-10
2.25692e-10
2.2534e-10
2.24988e-10
2.24639e-10
2.24293e-10
2.2395e-10
2.2361e-10
2.23273e-10
2.22938e-10
2.22605e-10
2.22273e-10
2.21942e-10
2.21612e-10
2.21285e-10
2.20961e-10
2.2064e-10
2.20323e-10
2.20011e-10
2.19703e-10
1.57407e-10
1.58908e-10
1.60564e-10
1.62399e-10
1.64448e-10
1.6673e-10
1.69245e-10
1.71979e-10
1.74908e-10
1.78003e-10
1.81241e-10
1.84618e-10
1.882e-10
1.92198e-10
1.96575e-10
2.01226e-10
2.06017e-10
2.10811e-10
2.15482e-10
2.19932e-10
2.24092e-10
2.27907e-10
2.31324e-10
2.34305e-10
2.36879e-10
2.39087e-10
2.40976e-10
2.42593e-10
2.43973e-10
2.45141e-10
2.4611e-10
2.46883e-10
2.47462e-10
2.47869e-10
2.48143e-10
2.48321e-10
2.48431e-10
2.48465e-10
2.48442e-10
2.48376e-10
2.48247e-10
2.48041e-10
2.47753e-10
2.47399e-10
2.47007e-10
2.46597e-10
2.46184e-10
2.45778e-10
2.45388e-10
2.4502e-10
2.44677e-10
2.44358e-10
2.44057e-10
2.43772e-10
2.43497e-10
2.43225e-10
2.42949e-10
2.42661e-10
2.42358e-10
2.42037e-10
2.41699e-10
2.41339e-10
2.40964e-10
2.40576e-10
2.4018e-10
2.3978e-10
2.39371e-10
2.38962e-10
2.38558e-10
2.38141e-10
2.37742e-10
2.37384e-10
2.36974e-10
2.36567e-10
2.36204e-10
2.35867e-10
2.35477e-10
2.35092e-10
2.34756e-10
2.34418e-10
2.3405e-10
2.33705e-10
2.33379e-10
2.33041e-10
2.32699e-10
2.32367e-10
2.32039e-10
2.31711e-10
2.31387e-10
2.31068e-10
2.30754e-10
2.30443e-10
2.30135e-10
2.29831e-10
2.29531e-10
2.29233e-10
2.2894e-10
2.2865e-10
2.28364e-10
2.28083e-10
2.27806e-10
2.27536e-10
2.27273e-10
2.27018e-10
2.26771e-10
2.26533e-10
1.78394e-10
1.81864e-10
1.85501e-10
1.89334e-10
1.93567e-10
1.98192e-10
2.03116e-10
2.08209e-10
2.13329e-10
2.18343e-10
2.23142e-10
2.27639e-10
2.31759e-10
2.35422e-10
2.38633e-10
2.41415e-10
2.43801e-10
2.45832e-10
2.47549e-10
2.48989e-10
2.50184e-10
2.51159e-10
2.51932e-10
2.5252e-10
2.52941e-10
2.53226e-10
2.53416e-10
2.53557e-10
2.53677e-10
2.53792e-10
2.53901e-10
2.53996e-10
2.54021e-10
2.53989e-10
2.53904e-10
2.53774e-10
2.53611e-10
2.53423e-10
2.53219e-10
2.53015e-10
2.52821e-10
2.52641e-10
2.52458e-10
2.52242e-10
2.51975e-10
2.51656e-10
2.51297e-10
2.50913e-10
2.50516e-10
2.50117e-10
2.49725e-10
2.49346e-10
2.48984e-10
2.4864e-10
2.48312e-10
2.47997e-10
2.47688e-10
2.47379e-10
2.47061e-10
2.46729e-10
2.46377e-10
2.46002e-10
2.456e-10
2.45174e-10
2.44728e-10
2.44265e-10
2.43784e-10
2.43291e-10
2.42801e-10
2.4229e-10
2.41791e-10
2.41333e-10
2.40825e-10
2.40313e-10
2.39848e-10
2.39413e-10
2.38925e-10
2.38438e-10
2.38006e-10
2.37575e-10
2.37116e-10
2.36678e-10
2.36264e-10
2.35842e-10
2.35419e-10
2.35008e-10
2.34602e-10
2.34201e-10
2.33807e-10
2.3342e-10
2.33038e-10
2.32661e-10
2.3229e-10
2.31924e-10
2.31564e-10
2.31209e-10
2.3086e-10
2.30517e-10
2.30182e-10
2.29853e-10
2.29532e-10
2.2922e-10
2.28917e-10
2.28626e-10
2.28345e-10
2.28076e-10
2.11864e-10
2.17136e-10
2.22253e-10
2.27109e-10
2.3161e-10
2.35654e-10
2.39223e-10
2.42332e-10
2.45008e-10
2.47292e-10
2.49227e-10
2.50857e-10
2.5222e-10
2.53347e-10
2.54265e-10
2.55001e-10
2.55578e-10
2.56015e-10
2.56337e-10
2.56578e-10
2.56772e-10
2.56935e-10
2.57075e-10
2.57189e-10
2.57274e-10
2.57288e-10
2.57261e-10
2.57185e-10
2.57075e-10
2.56949e-10
2.56828e-10
2.56727e-10
2.56665e-10
2.56646e-10
2.56652e-10
2.56643e-10
2.56591e-10
2.56486e-10
2.56335e-10
2.56151e-10
2.5595e-10
2.55748e-10
2.55565e-10
2.55409e-10
2.55256e-10
2.55078e-10
2.54861e-10
2.54603e-10
2.54306e-10
2.53979e-10
2.53632e-10
2.53273e-10
2.52911e-10
2.52552e-10
2.522e-10
2.51858e-10
2.51525e-10
2.512e-10
2.50878e-10
2.50554e-10
2.50222e-10
2.49879e-10
2.49519e-10
2.49137e-10
2.48732e-10
2.48304e-10
2.47852e-10
2.47379e-10
2.46884e-10
2.46373e-10
2.45849e-10
2.45313e-10
2.44798e-10
2.44251e-10
2.43694e-10
2.43165e-10
2.42677e-10
2.421e-10
2.41537e-10
2.41024e-10
2.40533e-10
2.39992e-10
2.39461e-10
2.38969e-10
2.3847e-10
2.37977e-10
2.37492e-10
2.37003e-10
2.36534e-10
2.36082e-10
2.35635e-10
2.35185e-10
2.34743e-10
2.34315e-10
2.33893e-10
2.33475e-10
2.33063e-10
2.3266e-10
2.32268e-10
2.31883e-10
2.31507e-10
2.3114e-10
2.30783e-10
2.30437e-10
2.301e-10
2.29775e-10
2.29463e-10
2.46978e-10
2.49275e-10
2.51215e-10
2.52842e-10
2.54196e-10
2.55309e-10
2.56215e-10
2.56942e-10
2.57513e-10
2.57951e-10
2.58283e-10
2.58546e-10
2.58769e-10
2.58963e-10
2.59131e-10
2.59271e-10
2.59379e-10
2.59449e-10
2.59459e-10
2.59445e-10
2.59407e-10
2.59356e-10
2.59305e-10
2.59262e-10
2.59224e-10
2.59199e-10
2.59187e-10
2.59164e-10
2.59109e-10
2.59017e-10
2.58904e-10
2.58789e-10
2.58688e-10
2.58622e-10
2.5861e-10
2.5862e-10
2.58621e-10
2.58594e-10
2.58531e-10
2.58434e-10
2.58309e-10
2.58168e-10
2.58023e-10
2.5789e-10
2.57781e-10
2.57688e-10
2.57594e-10
2.57486e-10
2.57353e-10
2.57193e-10
2.57009e-10
2.56805e-10
2.56587e-10
2.56358e-10
2.56124e-10
2.5589e-10
2.55654e-10
2.5542e-10
2.55187e-10
2.5495e-10
2.54706e-10
2.54451e-10
2.54179e-10
2.53885e-10
2.53566e-10
2.53217e-10
2.52838e-10
2.52427e-10
2.51983e-10
2.51507e-10
2.51002e-10
2.50473e-10
2.49935e-10
2.49372e-10
2.4878e-10
2.48198e-10
2.47657e-10
2.4701e-10
2.46365e-10
2.45762e-10
2.45191e-10
2.44554e-10
2.43883e-10
2.43265e-10
2.42668e-10
2.42081e-10
2.41454e-10
2.40828e-10
2.40251e-10
2.39698e-10
2.39128e-10
2.38534e-10
2.3797e-10
2.37434e-10
2.36897e-10
2.36356e-10
2.35826e-10
2.35314e-10
2.34815e-10
2.34324e-10
2.33843e-10
2.33377e-10
2.32926e-10
2.32489e-10
2.32064e-10
2.31655e-10
2.3126e-10
2.56683e-10
2.57633e-10
2.58395e-10
2.58997e-10
2.59462e-10
2.59821e-10
2.60111e-10
2.60359e-10
2.60574e-10
2.60758e-10
2.60912e-10
2.61032e-10
2.61112e-10
2.61139e-10
2.61142e-10
2.6113e-10
2.61114e-10
2.61098e-10
2.61087e-10
2.61083e-10
2.61096e-10
2.6112e-10
2.61135e-10
2.61123e-10
2.61089e-10
2.61039e-10
2.60985e-10
2.6093e-10
2.60895e-10
2.60891e-10
2.60898e-10
2.60903e-10
2.60889e-10
2.60859e-10
2.60818e-10
2.60774e-10
2.6074e-10
2.60744e-10
2.60787e-10
2.60866e-10
2.60958e-10
2.61045e-10
2.61117e-10
2.61171e-10
2.61209e-10
2.61236e-10
2.61263e-10
2.61304e-10
2.61366e-10
2.61448e-10
2.61543e-10
2.61641e-10
2.61729e-10
2.61802e-10
2.61861e-10
2.61906e-10
2.61935e-10
2.61953e-10
2.61968e-10
2.61974e-10
2.61974e-10
2.61973e-10
2.61965e-10
2.61943e-10
2.61907e-10
2.61852e-10
2.61766e-10
2.61648e-10
2.61489e-10
2.61286e-10
2.61034e-10
2.60732e-10
2.60376e-10
2.59967e-10
2.59505e-10
2.59006e-10
2.58457e-10
2.57854e-10
2.57237e-10
2.56626e-10
2.55925e-10
2.55178e-10
2.54452e-10
2.53737e-10
2.52989e-10
2.52128e-10
2.51317e-10
2.50529e-10
2.49757e-10
2.48894e-10
2.48048e-10
2.47261e-10
2.46498e-10
2.45701e-10
2.44853e-10
2.44061e-10
2.4331e-10
2.42555e-10
2.41773e-10
2.4102e-10
2.4031e-10
2.39606e-10
2.38903e-10
2.38222e-10
2.3757e-10
2.3694e-10
2.36324e-10
2.3573e-10
2.3516e-10
2.34612e-10
2.62025e-10
2.62227e-10
2.62395e-10
2.62528e-10
2.62618e-10
2.62664e-10
2.62679e-10
2.62685e-10
2.62688e-10
2.6269e-10
2.627e-10
2.62717e-10
2.62755e-10
2.62795e-10
2.62821e-10
2.62825e-10
2.62814e-10
2.6279e-10
2.62765e-10
2.62748e-10
2.62752e-10
2.6279e-10
2.6284e-10
2.62889e-10
2.6293e-10
2.62959e-10
2.62982e-10
2.63007e-10
2.63041e-10
2.631e-10
2.63185e-10
2.63297e-10
2.63424e-10
2.63558e-10
2.63698e-10
2.63842e-10
2.63995e-10
2.64175e-10
2.64398e-10
2.64664e-10
2.64972e-10
2.65316e-10
2.6568e-10
2.66055e-10
2.66436e-10
2.6682e-10
2.67211e-10
2.67621e-10
2.6806e-10
2.68526e-10
2.69027e-10
2.69565e-10
2.70123e-10
2.70686e-10
2.71256e-10
2.71833e-10
2.72404e-10
2.72964e-10
2.73524e-10
2.7408e-10
2.74621e-10
2.75156e-10
2.75683e-10
2.76182e-10
2.76654e-10
2.77097e-10
2.7749e-10
2.77826e-10
2.781e-10
2.78296e-10
2.78408e-10
2.78431e-10
2.78354e-10
2.78176e-10
2.77897e-10
2.7753e-10
2.77052e-10
2.76455e-10
2.75804e-10
2.75104e-10
2.74284e-10
2.73348e-10
2.72396e-10
2.71407e-10
2.70391e-10
2.69182e-10
2.67989e-10
2.66798e-10
2.65606e-10
2.64288e-10
2.62977e-10
2.61731e-10
2.60489e-10
2.592e-10
2.57832e-10
2.56541e-10
2.55299e-10
2.54062e-10
2.52773e-10
2.51538e-10
2.50363e-10
2.49201e-10
2.48031e-10
2.46917e-10
2.45859e-10
2.4482e-10
2.43803e-10
2.42843e-10
2.41924e-10
2.41035e-10
2.64233e-10
2.64246e-10
2.64266e-10
2.64297e-10
2.64347e-10
2.64401e-10
2.64438e-10
2.64456e-10
2.6446e-10
2.64455e-10
2.64451e-10
2.6446e-10
2.64497e-10
2.64559e-10
2.64633e-10
2.64707e-10
2.64775e-10
2.64838e-10
2.64903e-10
2.64975e-10
2.65065e-10
2.65184e-10
2.65337e-10
2.65519e-10
2.65724e-10
2.65944e-10
2.66174e-10
2.66418e-10
2.66683e-10
2.66975e-10
2.67305e-10
2.67681e-10
2.68102e-10
2.68564e-10
2.69066e-10
2.69604e-10
2.70179e-10
2.70799e-10
2.71476e-10
2.7222e-10
2.73041e-10
2.73937e-10
2.74903e-10
2.75934e-10
2.77026e-10
2.78167e-10
2.79355e-10
2.80597e-10
2.81908e-10
2.83272e-10
2.847e-10
2.86206e-10
2.87783e-10
2.89403e-10
2.91065e-10
2.9278e-10
2.94521e-10
2.96261e-10
2.98011e-10
2.9978e-10
3.01529e-10
3.03253e-10
3.0497e-10
3.06638e-10
3.08239e-10
3.09795e-10
3.11255e-10
3.12596e-10
3.13825e-10
3.14906e-10
3.15818e-10
3.16561e-10
3.17108e-10
3.17443e-10
3.17575e-10
3.17522e-10
3.17246e-10
3.1666e-10
3.15952e-10
3.15098e-10
3.14023e-10
3.12682e-10
3.11253e-10
3.09693e-10
3.08035e-10
3.06081e-10
3.04062e-10
3.01994e-10
2.99861e-10
2.97564e-10
2.95222e-10
2.92938e-10
2.90615e-10
2.88222e-10
2.85718e-10
2.83316e-10
2.80961e-10
2.78619e-10
2.76203e-10
2.73877e-10
2.71638e-10
2.69429e-10
2.6723e-10
2.65134e-10
2.63127e-10
2.61151e-10
2.59243e-10
2.57442e-10
2.55725e-10
2.54057e-10
2.66126e-10
2.66134e-10
2.66146e-10
2.66171e-10
2.66225e-10
2.66305e-10
2.66398e-10
2.66493e-10
2.66585e-10
2.66677e-10
2.66775e-10
2.66886e-10
2.67021e-10
2.67191e-10
2.67398e-10
2.67637e-10
2.679e-10
2.68183e-10
2.68487e-10
2.68813e-10
2.6917e-10
2.69565e-10
2.7001e-10
2.7051e-10
2.71068e-10
2.71681e-10
2.72346e-10
2.73062e-10
2.73834e-10
2.74669e-10
2.75576e-10
2.76567e-10
2.77649e-10
2.78829e-10
2.80109e-10
2.81491e-10
2.82977e-10
2.84572e-10
2.86287e-10
2.88132e-10
2.9012e-10
2.92261e-10
2.94558e-10
2.9701e-10
2.99616e-10
3.02373e-10
3.05263e-10
3.08299e-10
3.11492e-10
3.14819e-10
3.18269e-10
3.21888e-10
3.25659e-10
3.29535e-10
3.33521e-10
3.37631e-10
3.41842e-10
3.46068e-10
3.50336e-10
3.54656e-10
3.58955e-10
3.63194e-10
3.67418e-10
3.71562e-10
3.7555e-10
3.79433e-10
3.83146e-10
3.86607e-10
3.89837e-10
3.92786e-10
3.95381e-10
3.97643e-10
3.99517e-10
4.00944e-10
4.01954e-10
4.02583e-10
4.02774e-10
4.02246e-10
4.01442e-10
4.00291e-10
3.98699e-10
3.96541e-10
3.94134e-10
3.91402e-10
3.88377e-10
3.84851e-10
3.8112e-10
3.77215e-10
3.7309e-10
3.68694e-10
3.64166e-10
3.59664e-10
3.55031e-10
3.50257e-10
3.45335e-10
3.40548e-10
3.3579e-10
3.31036e-10
3.2619e-10
3.215e-10
3.16948e-10
3.12447e-10
3.0802e-10
3.03764e-10
2.99663e-10
2.95639e-10
2.91783e-10
2.88115e-10
2.84608e-10
2.81217e-10
2.68424e-10
2.68542e-10
2.68668e-10
2.68811e-10
2.68982e-10
2.69191e-10
2.69442e-10
2.69729e-10
2.70045e-10
2.70386e-10
2.70754e-10
2.71153e-10
2.7159e-10
2.72076e-10
2.7262e-10
2.7323e-10
2.73904e-10
2.74642e-10
2.75444e-10
2.76313e-10
2.77255e-10
2.78277e-10
2.79393e-10
2.80614e-10
2.81951e-10
2.83411e-10
2.84999e-10
2.8672e-10
2.8858e-10
2.90587e-10
2.92754e-10
2.95095e-10
2.97625e-10
3.0036e-10
3.03311e-10
3.0649e-10
3.09905e-10
3.13567e-10
3.17486e-10
3.21679e-10
3.26161e-10
3.30947e-10
3.36051e-10
3.41477e-10
3.47232e-10
3.53317e-10
3.59712e-10
3.66429e-10
3.73469e-10
3.808e-10
3.88404e-10
3.96332e-10
4.04552e-10
4.12996e-10
4.21669e-10
4.30592e-10
4.39705e-10
4.48883e-10
4.58158e-10
4.67519e-10
4.76864e-10
4.86068e-10
4.95223e-10
5.04234e-10
5.12906e-10
5.21346e-10
5.29466e-10
5.37065e-10
5.44201e-10
5.50804e-10
5.56689e-10
5.61909e-10
5.66403e-10
5.69975e-10
5.72742e-10
5.74727e-10
5.75862e-10
5.75556e-10
5.74592e-10
5.72915e-10
5.70329e-10
5.66645e-10
5.6238e-10
5.57392e-10
5.51705e-10
5.451e-10
5.38053e-10
5.30548e-10
5.22511e-10
5.13932e-10
5.05095e-10
4.96183e-10
4.86945e-10
4.77403e-10
4.67665e-10
4.58098e-10
4.48504e-10
4.38862e-10
4.29119e-10
4.19648e-10
4.10392e-10
4.01229e-10
3.92243e-10
3.83556e-10
3.7514e-10
3.66917e-10
3.59032e-10
3.51491e-10
3.44243e-10
3.3725e-10
2.71841e-10
2.72203e-10
2.72596e-10
2.73021e-10
2.73484e-10
2.73991e-10
2.74554e-10
2.75183e-10
2.75884e-10
2.76658e-10
2.77505e-10
2.78428e-10
2.7943e-10
2.80518e-10
2.81702e-10
2.82997e-10
2.84415e-10
2.85967e-10
2.87662e-10
2.89507e-10
2.91511e-10
2.93682e-10
2.96035e-10
2.98584e-10
3.01347e-10
3.04346e-10
3.07598e-10
3.11122e-10
3.14932e-10
3.19045e-10
3.23477e-10
3.2825e-10
3.33384e-10
3.38905e-10
3.44839e-10
3.51211e-10
3.58045e-10
3.65363e-10
3.73185e-10
3.81532e-10
3.90425e-10
3.99888e-10
4.09942e-10
4.20611e-10
4.31905e-10
4.43834e-10
4.56411e-10
4.69613e-10
4.83434e-10
4.97881e-10
5.12909e-10
5.28475e-10
5.44609e-10
5.61275e-10
5.78386e-10
5.95903e-10
6.13833e-10
6.32084e-10
6.50509e-10
6.69068e-10
6.8774e-10
7.06375e-10
7.24741e-10
7.4292e-10
7.60784e-10
7.78044e-10
7.94745e-10
8.10814e-10
8.2593e-10
8.40078e-10
8.53243e-10
8.65077e-10
8.75594e-10
8.84779e-10
8.92269e-10
8.9821e-10
9.02641e-10
9.05478e-10
9.05686e-10
9.0443e-10
9.0183e-10
8.9744e-10
8.91074e-10
8.83503e-10
8.74433e-10
8.63905e-10
8.51702e-10
8.38663e-10
8.24561e-10
8.09365e-10
7.93085e-10
7.76361e-10
7.59283e-10
7.41502e-10
7.23086e-10
7.04443e-10
6.85976e-10
6.67327e-10
6.48498e-10
6.29598e-10
6.11161e-10
5.93024e-10
5.75027e-10
5.57373e-10
5.40261e-10
5.23615e-10
5.07372e-10
4.91732e-10
4.76711e-10
4.62212e-10
4.48211e-10
2.78508e-10
2.79367e-10
2.80307e-10
2.81333e-10
2.82448e-10
2.8366e-10
2.8498e-10
2.86423e-10
2.88004e-10
2.89733e-10
2.91621e-10
2.93678e-10
2.95913e-10
2.9834e-10
3.00974e-10
3.03832e-10
3.06938e-10
3.10313e-10
3.13978e-10
3.17956e-10
3.22266e-10
3.26931e-10
3.31973e-10
3.37421e-10
3.43303e-10
3.49654e-10
3.56507e-10
3.63897e-10
3.7186e-10
3.80427e-10
3.89634e-10
3.99515e-10
4.10108e-10
4.21453e-10
4.33593e-10
4.4657e-10
4.60426e-10
4.75203e-10
4.90936e-10
5.07661e-10
5.25412e-10
5.44221e-10
5.64119e-10
5.85137e-10
6.07296e-10
6.30604e-10
6.55078e-10
6.80702e-10
7.07436e-10
7.35284e-10
7.64188e-10
7.94054e-10
8.24875e-10
8.56595e-10
8.89094e-10
9.22263e-10
9.56034e-10
9.90292e-10
1.02487e-09
1.05959e-09
1.09438e-09
1.12903e-09
1.1632e-09
1.19684e-09
1.22981e-09
1.26172e-09
1.29242e-09
1.32187e-09
1.34966e-09
1.37554e-09
1.3996e-09
1.42138e-09
1.44063e-09
1.45751e-09
1.47153e-09
1.48262e-09
1.49102e-09
1.49662e-09
1.49756e-09
1.49572e-09
1.49148e-09
1.48387e-09
1.473e-09
1.45977e-09
1.44372e-09
1.42477e-09
1.40308e-09
1.37978e-09
1.35427e-09
1.32675e-09
1.29722e-09
1.26695e-09
1.23565e-09
1.20302e-09
1.16916e-09
1.13512e-09
1.10111e-09
1.0666e-09
1.03162e-09
9.96761e-10
9.62594e-10
9.28771e-10
8.95114e-10
8.62119e-10
8.3009e-10
7.98835e-10
7.68262e-10
7.38703e-10
7.10208e-10
6.82641e-10
6.55967e-10
6.30227e-10
6.05727e-10
2.91422e-10
2.93292e-10
2.95335e-10
2.9756e-10
2.9998e-10
3.02608e-10
3.05462e-10
3.08561e-10
3.1193e-10
3.15592e-10
3.19572e-10
3.23894e-10
3.28582e-10
3.33662e-10
3.39163e-10
3.45116e-10
3.51557e-10
3.58524e-10
3.66059e-10
3.74202e-10
3.82997e-10
3.92485e-10
4.02712e-10
4.13726e-10
4.25577e-10
4.3832e-10
4.52013e-10
4.66717e-10
4.82492e-10
4.99401e-10
5.17502e-10
5.36857e-10
5.57528e-10
5.79579e-10
6.03075e-10
6.28084e-10
6.54671e-10
6.82901e-10
7.12833e-10
7.44524e-10
7.78023e-10
8.13374e-10
8.50617e-10
8.8979e-10
9.30916e-10
9.74004e-10
1.01906e-09
1.06608e-09
1.11497e-09
1.16571e-09
1.21822e-09
1.27233e-09
1.32797e-09
1.38502e-09
1.44329e-09
1.5026e-09
1.56271e-09
1.62345e-09
1.68463e-09
1.74589e-09
1.807e-09
1.8677e-09
1.92749e-09
1.98606e-09
2.0433e-09
2.09865e-09
2.15163e-09
2.20227e-09
2.25002e-09
2.29429e-09
2.33524e-09
2.37238e-09
2.40502e-09
2.43353e-09
2.4574e-09
2.47606e-09
2.49016e-09
2.49969e-09
2.50097e-09
2.49787e-09
2.49057e-09
2.47742e-09
2.45909e-09
2.4364e-09
2.40884e-09
2.37598e-09
2.33894e-09
2.29883e-09
2.25469e-09
2.2069e-09
2.15587e-09
2.10353e-09
2.0488e-09
1.99176e-09
1.93263e-09
1.87342e-09
1.81368e-09
1.75297e-09
1.6913e-09
1.63022e-09
1.56996e-09
1.51e-09
1.45021e-09
1.39171e-09
1.33483e-09
1.27914e-09
1.22447e-09
1.17142e-09
1.12016e-09
1.07047e-09
1.02234e-09
9.75892e-10
9.31451e-10
3.0957e-10
3.12851e-10
3.16415e-10
3.20288e-10
3.24495e-10
3.29064e-10
3.34021e-10
3.39394e-10
3.45216e-10
3.51519e-10
3.58345e-10
3.65734e-10
3.73732e-10
3.82386e-10
3.91742e-10
4.01851e-10
4.12766e-10
4.24542e-10
4.3724e-10
4.50924e-10
4.65665e-10
4.81534e-10
4.98606e-10
5.16958e-10
5.36669e-10
5.57819e-10
5.80493e-10
6.0478e-10
6.30774e-10
6.58571e-10
6.8827e-10
7.19972e-10
7.53775e-10
7.89778e-10
8.28078e-10
8.68774e-10
9.11962e-10
9.5774e-10
1.00621e-09
1.05745e-09
1.11156e-09
1.16862e-09
1.22869e-09
1.29183e-09
1.35809e-09
1.4275e-09
1.50007e-09
1.57581e-09
1.6547e-09
1.7367e-09
1.82168e-09
1.90955e-09
2.00019e-09
2.0933e-09
2.18874e-09
2.28622e-09
2.38545e-09
2.48615e-09
2.58781e-09
2.69013e-09
2.79282e-09
2.89536e-09
2.99715e-09
3.09791e-09
3.19695e-09
3.29353e-09
3.38753e-09
3.47821e-09
3.56462e-09
3.64678e-09
3.72403e-09
3.7953e-09
3.86078e-09
3.91994e-09
3.97168e-09
4.01634e-09
4.05364e-09
4.08246e-09
4.10371e-09
4.1174e-09
4.1175e-09
4.1115e-09
4.09841e-09
4.07605e-09
4.04536e-09
4.00714e-09
3.96118e-09
3.90638e-09
3.84535e-09
3.77866e-09
3.70558e-09
3.62598e-09
3.54185e-09
3.45498e-09
3.3637e-09
3.26838e-09
3.17016e-09
3.07174e-09
2.97159e-09
2.86965e-09
2.7663e-09
2.66427e-09
2.56284e-09
2.46159e-09
2.36049e-09
2.26184e-09
2.16565e-09
2.07114e-09
1.97803e-09
1.88748e-09
1.79984e-09
1.71482e-09
1.63235e-09
1.55264e-09
1.47601e-09
3.50328e-10
3.56857e-10
3.63925e-10
3.71575e-10
3.79855e-10
3.88813e-10
3.98502e-10
4.08975e-10
4.2029e-10
4.32506e-10
4.45691e-10
4.59916e-10
4.75257e-10
4.91794e-10
5.09611e-10
5.28796e-10
5.4944e-10
5.71638e-10
5.9549e-10
6.21104e-10
6.48591e-10
6.78069e-10
7.09661e-10
7.43493e-10
7.79693e-10
8.18393e-10
8.59729e-10
9.03839e-10
9.50867e-10
1.00096e-09
1.05427e-09
1.11095e-09
1.17115e-09
1.23502e-09
1.30271e-09
1.37435e-09
1.45009e-09
1.53006e-09
1.61439e-09
1.70319e-09
1.7966e-09
1.89469e-09
1.99756e-09
2.10526e-09
2.21783e-09
2.3353e-09
2.45763e-09
2.58479e-09
2.71672e-09
2.8533e-09
2.99433e-09
3.13963e-09
3.28893e-09
3.44181e-09
3.59795e-09
3.75685e-09
3.91801e-09
4.08094e-09
4.24489e-09
4.40922e-09
4.57348e-09
4.73687e-09
4.89832e-09
5.05745e-09
5.21337e-09
5.36471e-09
5.51131e-09
5.65218e-09
5.7858e-09
5.91206e-09
6.03018e-09
6.13858e-09
6.23726e-09
6.3258e-09
6.40267e-09
6.46786e-09
6.52161e-09
6.56251e-09
6.59116e-09
6.60627e-09
6.60281e-09
6.59007e-09
6.56604e-09
6.52852e-09
6.47738e-09
6.41443e-09
6.33995e-09
6.252e-09
6.1544e-09
6.04735e-09
5.93094e-09
5.80395e-09
5.67051e-09
5.53173e-09
5.38632e-09
5.23399e-09
5.0781e-09
4.92101e-09
4.76057e-09
4.59659e-09
4.43154e-09
4.26829e-09
4.10495e-09
3.9415e-09
3.77842e-09
3.61948e-09
3.46389e-09
3.31056e-09
3.15902e-09
3.0116e-09
2.8688e-09
2.73006e-09
2.5952e-09
2.46456e-09
2.33853e-09
2.21711e-09
3.61318e-10
3.6852e-10
3.76309e-10
3.84733e-10
3.93841e-10
4.03686e-10
4.14325e-10
4.25818e-10
4.38225e-10
4.51615e-10
4.66063e-10
4.81646e-10
4.98451e-10
5.16565e-10
5.36081e-10
5.57099e-10
5.7972e-10
6.04055e-10
6.30222e-10
6.58343e-10
6.8855e-10
7.20981e-10
7.55779e-10
7.93094e-10
8.3308e-10
8.75899e-10
9.21718e-10
9.70714e-10
1.02307e-09
1.07898e-09
1.13863e-09
1.20222e-09
1.26996e-09
1.34206e-09
1.41872e-09
1.50015e-09
1.58657e-09
1.6782e-09
1.77526e-09
1.87795e-09
1.98649e-09
2.10109e-09
2.22194e-09
2.34922e-09
2.4831e-09
2.62373e-09
2.77127e-09
2.92583e-09
3.08751e-09
3.2564e-09
3.43252e-09
3.61588e-09
3.80644e-09
4.00411e-09
4.20876e-09
4.42022e-09
4.63822e-09
4.86244e-09
5.09253e-09
5.32799e-09
5.56822e-09
5.81262e-09
6.06039e-09
6.31069e-09
6.56273e-09
6.81539e-09
7.06758e-09
7.31853e-09
7.56705e-09
7.81148e-09
8.05123e-09
8.28509e-09
8.511e-09
8.72857e-09
8.93659e-09
9.13284e-09
9.31695e-09
9.48805e-09
9.64403e-09
9.7844e-09
9.90906e-09
1.00161e-08
1.01048e-08
1.01762e-08
1.02289e-08
1.02624e-08
1.02711e-08
1.02611e-08
1.02344e-08
1.01901e-08
1.01272e-08
1.00436e-08
9.94229e-09
9.82479e-09
9.68853e-09
9.5366e-09
9.37063e-09
9.19167e-09
8.99699e-09
8.79239e-09
8.57888e-09
8.35649e-09
8.12353e-09
7.88532e-09
7.64383e-09
7.39758e-09
7.14533e-09
6.89251e-09
6.64128e-09
6.3891e-09
6.13614e-09
5.88444e-09
5.63873e-09
5.39711e-09
5.15856e-09
4.92253e-09
4.6928e-09
4.46992e-09
4.25302e-09
4.0418e-09
3.83671e-09
3.63834e-09
3.44685e-09
4.42194e-10
4.55589e-10
4.70032e-10
4.85604e-10
5.02387e-10
5.20472e-10
5.39954e-10
5.60933e-10
5.83515e-10
6.07813e-10
6.33946e-10
6.62045e-10
6.92246e-10
7.24692e-10
7.59539e-10
7.96943e-10
8.37073e-10
8.80105e-10
9.26225e-10
9.75629e-10
1.02852e-09
1.08512e-09
1.14564e-09
1.21032e-09
1.27941e-09
1.35314e-09
1.43178e-09
1.51559e-09
1.60485e-09
1.69983e-09
1.80082e-09
1.90812e-09
2.02202e-09
2.14282e-09
2.27082e-09
2.40632e-09
2.54961e-09
2.70099e-09
2.86075e-09
3.02918e-09
3.20655e-09
3.39311e-09
3.58912e-09
3.79479e-09
4.01031e-09
4.23584e-09
4.47153e-09
4.71747e-09
4.97372e-09
5.24032e-09
5.51721e-09
5.80431e-09
6.10146e-09
6.40843e-09
6.72491e-09
7.05052e-09
7.38478e-09
7.72711e-09
8.07689e-09
8.43328e-09
8.79537e-09
9.16218e-09
9.53248e-09
9.90499e-09
1.02784e-08
1.06512e-08
1.10216e-08
1.13884e-08
1.17498e-08
1.21036e-08
1.24487e-08
1.27835e-08
1.31051e-08
1.34129e-08
1.37053e-08
1.39793e-08
1.42342e-08
1.44691e-08
1.46814e-08
1.48698e-08
1.50348e-08
1.51741e-08
1.5286e-08
1.53725e-08
1.54327e-08
1.54614e-08
1.54546e-08
1.54298e-08
1.53771e-08
1.52979e-08
1.51934e-08
1.50606e-08
1.49016e-08
1.47203e-08
1.45154e-08
1.42856e-08
1.40367e-08
1.37702e-08
1.34826e-08
1.31786e-08
1.28618e-08
1.25337e-08
1.21913e-08
1.18394e-08
1.14817e-08
1.11181e-08
1.07461e-08
1.03729e-08
1e-08
9.6258e-09
9.24986e-09
8.87654e-09
8.51063e-09
8.14969e-09
7.7928e-09
7.44043e-09
7.09634e-09
6.7617e-09
6.4356e-09
6.11767e-09
5.80843e-09
5.50867e-09
5.21879e-09
5.84184e-10
6.08094e-10
6.33802e-10
6.61433e-10
6.91124e-10
7.2302e-10
7.57274e-10
7.94048e-10
8.33514e-10
8.7585e-10
9.2125e-10
9.69915e-10
1.02206e-09
1.07791e-09
1.1377e-09
1.20169e-09
1.27012e-09
1.34329e-09
1.42146e-09
1.50494e-09
1.59404e-09
1.68908e-09
1.7904e-09
1.89834e-09
2.01325e-09
2.13552e-09
2.2655e-09
2.40359e-09
2.55017e-09
2.70565e-09
2.87042e-09
3.0449e-09
3.22949e-09
3.4246e-09
3.63063e-09
3.84797e-09
4.07702e-09
4.31814e-09
4.5717e-09
4.83803e-09
5.11748e-09
5.41032e-09
5.71682e-09
6.03721e-09
6.37166e-09
6.72029e-09
7.08318e-09
7.46034e-09
7.85173e-09
8.25723e-09
8.67663e-09
9.10965e-09
9.55592e-09
1.00149e-08
1.04861e-08
1.09687e-08
1.14618e-08
1.19646e-08
1.2476e-08
1.29946e-08
1.3519e-08
1.40478e-08
1.45792e-08
1.51112e-08
1.56419e-08
1.61692e-08
1.66906e-08
1.72041e-08
1.77073e-08
1.81973e-08
1.86723e-08
1.91302e-08
1.95673e-08
1.99824e-08
2.03738e-08
2.07377e-08
2.10728e-08
2.13782e-08
2.1651e-08
2.18889e-08
2.20931e-08
2.22613e-08
2.23905e-08
2.24836e-08
2.25394e-08
2.25431e-08
2.25158e-08
2.24578e-08
2.23601e-08
2.22244e-08
2.20552e-08
2.18499e-08
2.16075e-08
2.13353e-08
2.10335e-08
2.06975e-08
2.03347e-08
1.99487e-08
1.95382e-08
1.91005e-08
1.86459e-08
1.81758e-08
1.76909e-08
1.71878e-08
1.66757e-08
1.61564e-08
1.56296e-08
1.50969e-08
1.45623e-08
1.40258e-08
1.34883e-08
1.29544e-08
1.24283e-08
1.19084e-08
1.13941e-08
1.0887e-08
1.03903e-08
9.9057e-09
9.43291e-09
8.97164e-09
8.52247e-09
8.0863e-09
7.66378e-09
8.24851e-10
8.65918e-10
9.09949e-10
9.5714e-10
1.00771e-09
1.06187e-09
1.11987e-09
1.18196e-09
1.2484e-09
1.31947e-09
1.39547e-09
1.47671e-09
1.5635e-09
1.65619e-09
1.75514e-09
1.86072e-09
1.97333e-09
2.09336e-09
2.22123e-09
2.35739e-09
2.50228e-09
2.65638e-09
2.82016e-09
2.99411e-09
3.17876e-09
3.3746e-09
3.58216e-09
3.80197e-09
4.03457e-09
4.28049e-09
4.54027e-09
4.81444e-09
5.10354e-09
5.40807e-09
5.72855e-09
6.06547e-09
6.41927e-09
6.7904e-09
7.17926e-09
7.58622e-09
8.0116e-09
8.45569e-09
8.91871e-09
9.4008e-09
9.90207e-09
1.04225e-08
1.0962e-08
1.15204e-08
1.20975e-08
1.26928e-08
1.33058e-08
1.39359e-08
1.45824e-08
1.52443e-08
1.59206e-08
1.661e-08
1.73112e-08
1.80226e-08
1.87426e-08
1.9469e-08
2.02e-08
2.09332e-08
2.16662e-08
2.23962e-08
2.31207e-08
2.38364e-08
2.45404e-08
2.52297e-08
2.59009e-08
2.65505e-08
2.71761e-08
2.77745e-08
2.83417e-08
2.88756e-08
2.93743e-08
2.98334e-08
3.02509e-08
3.06261e-08
3.09561e-08
3.12371e-08
3.14713e-08
3.16567e-08
3.17891e-08
3.1871e-08
3.18948e-08
3.18636e-08
3.17924e-08
3.16752e-08
3.15056e-08
3.12847e-08
3.10204e-08
3.07112e-08
3.03532e-08
2.99557e-08
2.95212e-08
2.90445e-08
2.85301e-08
2.79873e-08
2.74147e-08
2.68051e-08
2.61717e-08
2.55195e-08
2.48495e-08
2.41556e-08
2.34448e-08
2.2727e-08
2.20019e-08
2.12672e-08
2.05252e-08
1.97814e-08
1.90384e-08
1.82995e-08
1.7568e-08
1.68443e-08
1.61284e-08
1.54223e-08
1.4729e-08
1.40509e-08
1.33884e-08
1.27416e-08
1.21113e-08
1.14984e-08
1.09038e-08
1.03281e-08
9.77141e-09
1.21899e-09
1.28708e-09
1.35988e-09
1.43771e-09
1.52088e-09
1.60973e-09
1.70462e-09
1.80593e-09
1.91404e-09
2.02939e-09
2.15239e-09
2.28352e-09
2.42324e-09
2.57205e-09
2.73047e-09
2.89905e-09
3.07833e-09
3.26891e-09
3.47138e-09
3.68635e-09
3.91445e-09
4.15635e-09
4.41269e-09
4.68415e-09
4.97142e-09
5.2752e-09
5.59616e-09
5.93502e-09
6.29245e-09
6.66914e-09
7.06576e-09
7.48298e-09
7.92142e-09
8.3817e-09
8.8644e-09
9.37006e-09
9.89917e-09
1.04522e-08
1.10295e-08
1.16313e-08
1.2258e-08
1.29098e-08
1.35865e-08
1.42884e-08
1.50151e-08
1.57666e-08
1.65422e-08
1.73416e-08
1.8164e-08
1.90087e-08
1.98745e-08
2.07604e-08
2.1665e-08
2.25867e-08
2.35238e-08
2.44744e-08
2.54363e-08
2.64071e-08
2.73843e-08
2.83652e-08
2.93466e-08
3.03255e-08
3.12986e-08
3.22622e-08
3.32127e-08
3.4146e-08
3.50583e-08
3.59457e-08
3.68039e-08
3.76286e-08
3.84166e-08
3.91639e-08
3.98659e-08
4.05201e-08
4.11242e-08
4.1673e-08
4.21644e-08
4.25978e-08
4.29704e-08
4.32771e-08
4.35213e-08
4.37013e-08
4.38114e-08
4.38479e-08
4.3815e-08
4.37281e-08
4.35766e-08
4.33648e-08
4.3088e-08
4.27454e-08
4.23476e-08
4.18954e-08
4.13825e-08
4.08179e-08
4.02082e-08
3.95495e-08
3.884e-08
3.80963e-08
3.73162e-08
3.64919e-08
3.56336e-08
3.47539e-08
3.38501e-08
3.29218e-08
3.1964e-08
3.10001e-08
3.00275e-08
2.90439e-08
2.80458e-08
2.70458e-08
2.60482e-08
2.50556e-08
2.40703e-08
2.3094e-08
2.2128e-08
2.11746e-08
2.02369e-08
1.93176e-08
1.84183e-08
1.75397e-08
1.66829e-08
1.5849e-08
1.50391e-08
1.4254e-08
1.34942e-08
1.84405e-09
1.95337e-09
2.06997e-09
2.1943e-09
2.32682e-09
2.46804e-09
2.61848e-09
2.77868e-09
2.94922e-09
3.1307e-09
3.32373e-09
3.52896e-09
3.74708e-09
3.97878e-09
4.2248e-09
4.48587e-09
4.76278e-09
5.05632e-09
5.36732e-09
5.69659e-09
6.04501e-09
6.41341e-09
6.80269e-09
7.21372e-09
7.64737e-09
8.10454e-09
8.58609e-09
9.09288e-09
9.62575e-09
1.01855e-08
1.0773e-08
1.13888e-08
1.20338e-08
1.27085e-08
1.34136e-08
1.41496e-08
1.49169e-08
1.57158e-08
1.65466e-08
1.74095e-08
1.83044e-08
1.92312e-08
2.01898e-08
2.11797e-08
2.22003e-08
2.3251e-08
2.43308e-08
2.54387e-08
2.65732e-08
2.7733e-08
2.89161e-08
3.01208e-08
3.13448e-08
3.25856e-08
3.38406e-08
3.51068e-08
3.63812e-08
3.76602e-08
3.89404e-08
4.02178e-08
4.14883e-08
4.2748e-08
4.39921e-08
4.52162e-08
4.64156e-08
4.75853e-08
4.87204e-08
4.98163e-08
5.08677e-08
5.18698e-08
5.28184e-08
5.3709e-08
5.45366e-08
5.52982e-08
5.59911e-08
5.661e-08
5.71525e-08
5.76185e-08