/*--------------------------------*- C++ -*----------------------------------*\
| =========                 |                                                 |
| \\      /  F ield         | OpenFOAM: The Open Source CFD Toolbox           |
|  \\    /   O peration     | Version:  v1706                                 |
|   \\  /    A nd           | Web:      www.OpenFOAM.com                      |
|    \\/     M anipulation  |                                                 |
\*---------------------------------------------------------------------------*/
FoamFile
{
    version     2.0;
    format      ascii;
    class       volScalarField;
    location    "3.8e-05";
    object      Tt;
}
// * * * * * * * * * * * * * * * * * * * * * * * * * * * * * * * * * * * * * //

dimensions      [0 0 0 1 0 0 0];


internalField   nonuniform List<scalar> 
29871
(
145.207
145.322
145.452
145.602
145.773
145.968
146.189
146.437
146.712
147.017
147.354
147.732
148.16
148.65
149.208
149.837
150.538
151.306
152.139
153.033
154.002
155.075
156.278
157.613
159.062
160.604
162.221
163.898
165.616
167.355
169.095
170.817
172.516
174.237
176.26
178.771
181.617
184.622
187.649
190.601
193.414
196.052
198.494
200.738
202.789
204.657
206.349
207.867
209.213
210.384
211.377
212.195
212.849
213.352
213.713
213.952
214.088
214.093
214.041
213.941
213.807
213.611
213.383
213.155
212.897
212.604
212.282
211.933
211.564
211.172
210.743
210.29
209.822
209.325
208.792
208.241
207.679
207.09
206.477
205.847
205.194
204.519
203.827
203.121
202.398
201.662
200.917
200.165
199.405
198.641
197.874
197.106
196.336
195.563
194.786
194.002
193.21
192.409
191.599
190.778
189.946
189.104
188.252
187.394
186.531
149.395
150.088
150.869
151.755
152.764
153.911
155.206
156.655
158.261
160.025
161.961
164.106
166.508
169.187
172.14
175.343
178.765
182.37
186.119
189.99
194.003
198.365
203.334
208.838
214.717
220.791
226.888
232.856
238.573
243.946
248.911
253.435
257.509
261.137
264.275
266.897
269.034
270.734
272.048
273.018
273.694
274.132
274.41
274.597
274.743
274.872
274.993
275.107
275.207
275.292
275.321
275.292
275.223
275.107
274.929
274.686
274.383
274.024
273.621
273.186
272.716
272.239
271.781
271.314
270.836
270.36
269.894
269.432
268.978
268.53
268.071
267.613
267.152
266.684
266.202
265.73
265.25
264.758
264.267
263.769
263.25
262.725
262.199
261.661
261.114
260.566
260.019
259.472
258.926
258.385
257.848
257.316
256.789
256.267
255.748
255.233
254.719
254.208
253.699
253.194
252.693
252.198
251.709
251.228
250.755
159.783
161.845
164.127
166.665
169.511
172.695
176.224
180.08
184.235
188.654
193.305
198.186
203.398
209.255
215.718
222.643
229.837
237.093
244.223
251.067
257.507
263.454
268.809
273.504
277.575
281.08
284.087
286.667
288.874
290.745
292.299
293.541
294.472
295.125
295.565
295.85
296.025
296.077
296.039
295.929
295.719
295.385
294.918
294.346
293.712
293.05
292.382
291.727
291.097
290.502
289.948
289.432
288.946
288.485
288.041
287.602
287.156
286.693
286.205
285.689
285.146
284.57
283.968
283.348
282.716
282.077
281.425
280.774
280.133
279.469
278.836
278.267
277.619
276.976
276.401
275.87
275.257
274.649
274.12
273.589
273.013
272.471
271.96
271.432
270.898
270.379
269.867
269.355
268.85
268.354
267.865
267.381
266.902
266.43
265.964
265.502
265.047
264.597
264.154
263.717
263.289
262.87
262.463
262.068
261.686
261.316
189.212
194.201
199.466
205.054
211.269
218.117
225.47
233.143
240.925
248.611
256.026
263.026
269.483
275.259
280.348
284.776
288.589
291.845
294.603
296.922
298.85
300.424
301.672
302.623
303.302
303.761
304.067
304.291
304.481
304.662
304.833
304.98
305.015
304.957
304.812
304.592
304.319
304.004
303.664
303.322
302.997
302.693
302.384
302.022
301.576
301.047
300.453
299.816
299.16
298.5
297.851
297.223
296.623
296.052
295.508
294.984
294.471
293.959
293.434
292.886
292.307
291.693
291.039
290.346
289.622
288.874
288.098
287.305
286.518
285.699
284.901
284.171
283.365
282.551
281.815
281.129
280.36
279.594
278.915
278.243
277.526
276.843
276.2
275.546
274.891
274.255
273.629
273.01
272.404
271.809
271.223
270.644
270.075
269.515
268.964
268.421
267.887
267.363
266.85
266.348
265.857
265.38
264.918
264.473
264.045
263.633
238.689
246.75
254.644
262.192
269.243
275.618
281.278
286.232
290.515
294.182
297.297
299.927
302.131
303.956
305.443
306.635
307.569
308.277
308.795
309.183
309.49
309.75
309.969
310.146
310.275
310.287
310.231
310.095
309.901
309.681
309.466
309.283
309.162
309.109
309.096
309.056
308.946
308.748
308.473
308.142
307.781
307.417
307.081
306.787
306.495
306.162
305.765
305.298
304.768
304.187
303.572
302.937
302.296
301.66
301.036
300.427
299.833
299.252
298.679
298.105
297.522
296.922
296.298
295.644
294.957
294.235
293.482
292.699
291.885
291.051
290.201
289.338
288.512
287.643
286.759
285.927
285.165
284.267
283.395
282.605
281.855
281.031
280.225
279.484
278.734
277.997
277.275
276.549
275.855
275.19
274.533
273.873
273.226
272.598
271.983
271.372
270.771
270.184
269.61
269.049
268.5
267.964
267.444
266.937
266.445
265.97
265.512
293.667
297.365
300.496
303.128
305.321
307.127
308.597
309.776
310.701
311.409
311.944
312.365
312.719
313.025
313.287
313.503
313.666
313.766
313.764
313.723
313.64
313.535
313.426
313.328
313.236
313.164
313.109
313.033
312.903
312.708
312.474
312.233
312.011
311.841
311.754
311.698
311.623
311.497
311.307
311.055
310.752
310.417
310.069
309.733
309.43
309.146
308.856
308.536
308.171
307.758
307.3
306.807
306.286
305.745
305.195
304.642
304.089
303.538
302.992
302.444
301.89
301.327
300.746
300.14
299.504
298.833
298.126
297.383
296.603
295.786
294.936
294.063
293.19
292.297
291.37
290.472
289.655
288.686
287.728
286.851
286.035
285.129
284.177
283.314
282.495
281.7
280.848
279.999
279.231
278.507
277.758
276.971
276.232
275.537
274.839
274.133
273.441
272.776
272.127
271.486
270.858
270.248
269.658
269.084
268.526
267.986
267.465
309.345
310.887
312.125
313.1
313.851
314.428
314.892
315.283
315.621
315.907
316.141
316.318
316.429
316.45
316.43
316.383
316.326
316.266
316.211
316.165
316.141
316.132
316.104
316.029
315.911
315.76
315.598
315.428
315.28
315.177
315.085
314.979
314.833
314.651
314.439
314.211
313.986
313.809
313.681
313.598
313.52
313.42
313.28
313.094
312.863
312.597
312.313
312.033
311.77
311.519
311.273
311.016
310.728
310.401
310.038
309.642
309.211
308.756
308.288
307.807
307.315
306.826
306.336
305.836
305.331
304.815
304.278
303.718
303.128
302.502
301.839
301.136
300.391
299.603
298.775
297.925
297.057
296.139
295.236
294.382
293.434
292.446
291.523
290.653
289.763
288.72
287.776
286.892
286.055
285.09
284.16
283.333
282.554
281.733
280.832
280.015
279.263
278.501
277.692
276.918
276.202
275.486
274.76
274.055
273.383
272.732
272.089
271.467
270.868
270.288
317.953
318.264
318.518
318.712
318.833
318.879
318.871
318.845
318.81
318.77
318.738
318.715
318.721
318.723
318.699
318.631
318.533
318.406
318.267
318.133
318.024
317.959
317.903
317.833
317.736
317.605
317.449
317.277
317.103
316.947
316.813
316.7
316.587
316.458
316.31
316.139
315.951
315.771
315.623
315.507
315.419
315.349
315.27
315.167
315.029
314.851
314.638
314.408
314.177
313.943
313.718
313.507
313.287
313.04
312.767
312.474
312.146
311.781
311.4
311.004
310.584
310.16
309.74
309.304
308.861
308.419
307.959
307.48
306.983
306.454
305.891
305.293
304.651
303.964
303.23
302.462
301.669
300.811
299.956
299.128
298.237
297.267
296.355
295.475
294.639
293.578
292.596
291.681
290.823
289.808
288.822
287.962
287.144
286.28
285.295
284.422
283.622
282.825
281.932
281.097
280.332
279.562
278.746
277.984
277.276
276.56
275.842
275.174
274.531
273.897
321.239
321.206
321.181
321.167
321.178
321.189
321.165
321.103
321.01
320.891
320.765
320.647
320.562
320.507
320.456
320.389
320.295
320.175
320.036
319.888
319.743
319.619
319.523
319.443
319.365
319.277
319.168
319.039
318.897
318.75
318.612
318.491
318.382
318.275
318.163
318.038
317.892
317.738
317.587
317.453
317.345
317.257
317.18
317.104
317.019
316.907
316.76
316.589
316.414
316.213
316.005
315.808
315.623
315.419
315.192
314.968
314.725
314.437
314.124
313.813
313.471
313.104
312.748
312.379
311.987
311.615
311.228
310.815
310.402
309.966
309.497
309.007
308.479
307.904
307.287
306.637
305.958
305.192
304.423
303.67
302.881
301.959
301.101
300.262
299.49
298.47
297.493
296.591
295.741
294.746
293.733
292.861
292.026
291.151
290.125
289.228
288.402
287.592
286.641
285.764
284.966
284.154
283.283
282.482
281.741
280.961
280.191
279.49
278.827
278.147
323.504
323.385
323.258
323.14
323.055
322.996
322.94
322.869
322.772
322.654
322.52
322.381
322.249
322.142
322.062
321.995
321.927
321.847
321.751
321.64
321.52
321.4
321.293
321.202
321.127
321.055
320.976
320.884
320.776
320.656
320.529
320.405
320.29
320.182
320.077
319.969
319.851
319.722
319.586
319.452
319.327
319.221
319.13
319.05
318.973
318.895
318.787
318.664
318.542
318.393
318.202
318.032
317.878
317.691
317.487
317.296
317.122
316.885
316.627
316.385
316.118
315.799
315.502
315.206
314.856
314.528
314.21
313.851
313.497
313.143
312.75
312.352
311.933
311.461
310.951
310.429
309.883
309.22
308.558
307.907
307.246
306.398
305.621
304.859
304.161
303.209
302.283
301.435
300.627
299.678
298.676
297.821
296.997
296.125
295.095
294.207
293.379
292.57
291.589
290.693
289.883
289.039
288.15
287.327
286.564
285.736
284.947
284.223
283.546
282.839
325.281
325.158
325.019
324.877
324.744
324.637
324.558
324.492
324.425
324.348
324.257
324.155
324.046
323.941
323.851
323.779
323.718
323.658
323.592
323.515
323.427
323.329
323.229
323.135
323.05
322.975
322.904
322.828
322.744
322.647
322.541
322.428
322.314
322.204
322.097
321.992
321.885
321.772
321.651
321.526
321.4
321.283
321.178
321.082
320.998
320.925
320.836
320.745
320.659
320.544
320.385
320.25
320.127
319.955
319.766
319.61
319.474
319.267
319.05
318.862
318.664
318.382
318.135
317.913
317.596
317.307
317.052
316.734
316.425
316.139
315.802
315.465
315.142
314.744
314.328
313.915
313.492
312.927
312.38
311.842
311.301
310.548
309.87
309.203
308.585
307.707
306.873
306.103
305.364
304.457
303.508
302.697
301.907
301.041
300.041
299.186
298.376
297.572
296.588
295.697
294.886
294.036
293.15
292.319
291.539
290.697
289.907
289.179
288.491
287.773
327.018
326.944
326.863
326.771
326.669
326.561
326.459
326.373
326.304
326.247
326.191
326.131
326.063
325.984
325.9
325.817
325.742
325.677
325.62
325.565
325.506
325.441
325.367
325.286
325.201
325.118
325.041
324.968
324.897
324.824
324.744
324.656
324.558
324.455
324.35
324.244
324.14
324.036
323.93
323.82
323.705
323.586
323.469
323.357
323.251
323.156
323.078
322.994
322.91
322.842
322.755
322.631
322.522
322.429
322.286
322.118
321.983
321.87
321.699
321.51
321.358
321.211
320.976
320.768
320.594
320.334
320.075
319.864
319.597
319.313
319.075
318.791
318.491
318.229
317.898
317.554
317.225
316.889
316.408
315.968
315.543
315.088
314.439
313.87
313.306
312.757
311.954
311.237
310.551
309.895
309.02
308.16
307.409
306.672
305.803
304.862
304.057
303.28
302.47
301.509
300.648
299.849
299.007
298.131
297.306
296.517
295.688
294.907
294.184
293.495
292.769
328.85
328.785
328.725
328.663
328.595
328.519
328.438
328.361
328.292
328.233
328.183
328.136
328.087
328.033
327.972
327.907
327.842
327.781
327.725
327.674
327.624
327.573
327.516
327.454
327.385
327.313
327.241
327.17
327.102
327.034
326.963
326.888
326.806
326.717
326.622
326.524
326.424
326.324
326.223
326.121
326.015
325.906
325.795
325.686
325.579
325.48
325.395
325.311
325.226
325.165
325.095
324.998
324.913
324.842
324.733
324.596
324.478
324.384
324.251
324.087
323.96
323.848
323.664
323.484
323.346
323.144
322.915
322.737
322.523
322.26
322.05
321.82
321.539
321.307
321.043
320.739
320.467
320.186
319.783
319.426
319.101
318.686
318.142
317.672
317.219
316.699
315.994
315.392
314.789
314.2
313.368
312.617
311.925
311.246
310.373
309.517
308.764
308.033
307.194
306.288
305.473
304.696
303.857
302.999
302.192
301.414
300.6
299.827
299.106
298.421
297.695
296.871
296.149
330.85
330.786
330.732
330.682
330.634
330.582
330.526
330.467
330.409
330.356
330.31
330.269
330.231
330.192
330.15
330.104
330.055
330.006
329.957
329.912
329.869
329.826
329.782
329.735
329.682
329.625
329.564
329.502
329.44
329.378
329.315
329.25
329.18
329.105
329.024
328.939
328.849
328.758
328.665
328.571
328.475
328.377
328.278
328.177
328.077
327.982
327.895
327.812
327.731
327.673
327.611
327.532
327.469
327.415
327.334
327.234
327.136
327.062
326.964
326.831
326.72
326.635
326.495
326.339
326.231
326.077
325.879
325.731
325.56
325.324
325.134
324.947
324.684
324.465
324.253
323.968
323.718
323.483
323.143
322.839
322.583
322.187
321.739
321.344
320.988
320.47
319.875
319.367
318.856
318.288
317.523
316.88
316.246
315.611
314.756
313.992
313.284
312.596
311.732
310.898
310.129
309.383
308.536
307.703
306.925
306.169
305.366
304.593
303.87
303.174
302.456
301.673
300.958
333.088
333.027
332.968
332.913
332.865
332.823
332.785
332.748
332.711
332.671
332.63
332.59
332.553
332.52
332.49
332.462
332.434
332.404
332.371
332.337
332.301
332.266
332.232
332.199
332.166
332.131
332.093
332.051
332.005
331.956
331.905
331.852
331.799
331.745
331.688
331.627
331.562
331.492
331.417
331.34
331.26
331.178
331.095
331.011
330.925
330.838
330.751
330.666
330.586
330.508
330.438
330.381
330.324
330.264
330.22
330.174
330.117
330.054
329.98
329.923
329.858
329.758
329.663
329.6
329.495
329.362
329.278
329.162
328.993
328.869
328.733
328.525
328.352
328.194
327.956
327.74
327.558
327.294
327.043
326.835
326.54
326.254
326.022
325.669
325.289
324.943
324.644
324.137
323.637
323.188
322.771
322.185
321.519
320.958
320.395
319.756
318.957
318.282
317.62
316.941
316.082
315.322
314.594
313.878
313.017
312.218
311.473
310.745
309.943
309.166
308.439
307.731
307.024
306.295
305.591
335.26
335.219
335.178
335.137
335.1
335.068
335.039
335.014
334.991
334.967
334.943
334.918
334.894
334.872
334.853
334.835
334.819
334.803
334.786
334.768
334.747
334.726
334.705
334.683
334.662
334.64
334.616
334.59
334.56
334.527
334.491
334.453
334.413
334.372
334.33
334.284
334.236
334.184
334.128
334.068
334.006
333.941
333.875
333.808
333.739
333.67
333.6
333.531
333.464
333.399
333.341
333.291
333.242
333.2
333.168
333.131
333.097
333.061
333.011
332.972
332.933
332.863
332.788
332.743
332.665
332.554
332.49
332.399
332.255
332.151
332.039
331.858
331.697
331.559
331.345
331.128
330.959
330.72
330.457
330.253
329.993
329.695
329.455
329.162
328.807
328.484
328.207
327.736
327.297
326.885
326.523
325.94
325.358
324.84
324.354
323.7
322.986
322.371
321.769
321.043
320.237
319.543
318.854
318.148
317.282
316.524
315.809
315.114
314.301
313.521
312.8
312.098
311.395
310.69
309.999
309.334
337.793
337.744
337.696
337.652
337.612
337.577
337.546
337.519
337.493
337.468
337.444
337.421
337.401
337.384
337.37
337.359
337.349
337.34
337.331
337.322
337.314
337.308
337.303
337.3
337.298
337.295
337.293
337.289
337.283
337.277
337.271
337.264
337.256
337.248
337.238
337.226
337.211
337.193
337.173
337.151
337.127
337.101
337.074
337.045
337.013
336.978
336.94
336.898
336.855
336.81
336.763
336.715
336.666
336.617
336.567
336.519
336.472
336.429
336.39
336.354
336.326
336.304
336.28
336.263
336.245
336.216
336.195
336.173
336.127
336.075
336.043
335.983
335.893
335.842
335.767
335.641
335.549
335.453
335.29
335.136
335.01
334.815
334.594
334.427
334.206
333.932
333.713
333.478
333.164
332.892
332.639
332.291
331.957
331.678
331.268
330.847
330.453
330.115
329.558
329.023
328.528
328.094
327.462
326.809
326.217
325.668
324.926
324.18
323.523
322.876
322.158
321.317
320.596
319.901
319.228
318.419
317.644
316.933
316.239
315.543
314.847
314.164
313.5
340.028
339.995
339.964
339.936
339.91
339.888
339.869
339.854
339.841
339.831
339.822
339.814
339.809
339.805
339.804
339.806
339.81
339.815
339.822
339.829
339.836
339.845
339.855
339.867
339.879
339.892
339.906
339.919
339.931
339.943
339.953
339.964
339.974
339.983
339.991
339.998
340.003
340.006
340.006
340.005
340.001
339.997
339.99
339.982
339.973
339.961
339.946
339.929
339.909
339.888
339.864
339.84
339.814
339.787
339.759
339.731
339.704
339.679
339.655
339.634
339.618
339.605
339.594
339.588
339.581
339.567
339.559
339.548
339.518
339.484
339.46
339.41
339.336
339.291
339.221
339.106
339.018
338.926
338.774
338.618
338.495
338.309
338.082
337.907
337.693
337.41
337.166
336.936
336.618
336.308
336.049
335.715
335.348
335.032
334.691
334.255
333.86
333.519
333.018
332.49
332.005
331.591
331.015
330.383
329.799
329.277
328.568
327.866
327.218
326.605
325.887
325.092
324.392
323.707
323.03
322.273
321.514
320.805
320.115
319.426
318.737
318.058
317.395
342.329
342.311
342.295
342.282
342.271
342.262
342.257
342.255
342.256
342.259
342.265
342.272
342.281
342.293
342.306
342.322
342.34
342.361
342.383
342.406
342.43
342.456
342.482
342.51
342.539
342.57
342.6
342.632
342.663
342.694
342.724
342.754
342.784
342.813
342.842
342.869
342.896
342.921
342.944
342.966
342.986
343.005
343.022
343.038
343.052
343.064
343.075
343.083
343.089
343.093
343.094
343.093
343.091
343.087
343.082
343.075
343.068
343.06
343.052
343.045
343.039
343.035
343.032
343.032
343.03
343.025
343.021
343.013
342.991
342.966
342.941
342.893
342.827
342.778
342.705
342.591
342.498
342.399
342.246
342.08
341.949
341.761
341.522
341.328
341.112
340.819
340.544
340.302
339.979
339.632
339.339
339.016
338.613
338.255
337.929
337.492
337.067
336.685
336.274
335.727
335.238
334.786
334.315
333.68
333.085
332.535
331.931
331.255
330.603
329.978
329.297
328.564
327.874
327.195
326.512
325.803
325.075
324.369
323.682
322.999
322.318
321.644
320.981
344.686
344.681
344.679
344.681
344.684
344.69
344.699
344.711
344.726
344.743
344.763
344.786
344.81
344.837
344.866
344.898
344.932
344.968
345.007
345.047
345.089
345.132
345.177
345.223
345.27
345.319
345.369
345.42
345.471
345.522
345.574
345.626
345.677
345.728
345.779
345.83
345.88
345.929
345.977
346.023
346.068
346.112
346.154
346.195
346.234
346.272
346.307
346.341
346.372
346.401
346.427
346.45
346.47
346.488
346.503
346.516
346.526
346.533
346.538
346.542
346.544
346.545
346.544
346.544
346.541
346.535
346.527
346.514
346.489
346.46
346.425
346.37
346.3
346.237
346.15
346.027
345.919
345.802
345.635
345.45
345.299
345.097
344.838
344.617
344.386
344.079
343.766
343.499
343.167
342.783
342.447
342.116
341.688
341.285
340.931
340.501
340.03
339.618
339.23
338.688
338.167
337.694
337.254
336.679
336.042
335.473
334.916
334.293
333.626
332.983
332.341
331.668
330.992
330.322
329.647
328.961
328.264
327.572
326.891
326.216
325.544
324.878
324.218
323.567
322.922
347.087
347.096
347.108
347.124
347.142
347.163
347.186
347.213
347.242
347.274
347.309
347.347
347.388
347.431
347.477
347.525
347.576
347.629
347.685
347.743
347.803
347.865
347.929
347.995
348.062
348.131
348.202
348.273
348.346
348.42
348.494
348.568
348.643
348.718
348.793
348.867
348.942
349.015
349.088
349.16
349.231
349.3
349.367
349.433
349.497
349.56
349.62
349.677
349.732
349.783
349.831
349.875
349.916
349.952
349.984
350.011
350.034
350.052
350.065
350.074
350.078
350.078
350.075
350.068
350.056
350.039
350.017
349.987
349.948
349.902
349.847
349.773
349.687
349.598
349.485
349.343
349.207
349.06
348.868
348.656
348.472
348.243
347.957
347.698
347.441
347.111
346.758
346.453
346.103
345.684
345.3
344.944
344.496
344.045
343.644
343.216
342.703
342.257
341.846
341.321
340.762
340.276
339.805
339.311
338.642
338.061
337.499
336.929
336.258
335.607
334.981
334.348
333.7
333.045
332.385
331.718
331.045
330.372
329.704
329.04
328.378
327.721
327.068
326.42
325.776
349.524
349.547
349.574
349.603
349.636
349.671
349.71
349.752
349.796
349.844
349.895
349.949
350.006
350.066
350.129
350.195
350.264
350.335
350.409
350.486
350.566
350.648
350.732
350.818
350.907
350.997
351.089
351.183
351.278
351.374
351.471
351.57
351.668
351.767
351.866
351.966
352.065
352.163
352.261
352.358
352.453
352.547
352.638
352.728
352.815
352.9
352.982
353.06
353.135
353.205
353.271
353.331
353.386
353.435
353.477
353.513
353.543
353.565
353.579
353.585
353.584
353.576
353.561
353.539
353.508
353.47
353.425
353.369
353.302
353.227
353.139
353.034
352.917
352.791
352.642
352.468
352.293
352.104
351.876
351.625
351.397
351.13
350.808
350.502
350.208
349.846
349.448
349.097
348.72
348.266
347.832
347.439
346.97
346.47
346.02
345.579
345.034
344.544
344.091
343.583
342.992
342.484
341.98
341.515
340.85
340.247
339.681
339.125
338.477
337.821
337.206
336.595
335.973
335.339
334.698
334.05
333.399
332.747
332.095
331.445
330.796
330.15
329.506
328.865
328.228
351.954
351.988
352.026
352.066
352.11
352.158
352.208
352.262
352.32
352.38
352.444
352.512
352.583
352.657
352.734
352.815
352.899
352.987
353.077
353.171
353.267
353.367
353.469
353.574
353.682
353.792
353.904
354.018
354.134
354.252
354.372
354.492
354.614
354.737
354.859
354.983
355.106
355.228
355.351
355.472
355.591
355.709
355.825
355.939
356.049
356.156
356.259
356.358
356.453
356.542
356.626
356.703
356.773
356.835
356.89
356.936
356.972
356.999
357.016
357.022
357.017
357.003
356.978
356.941
356.894
356.835
356.766
356.685
356.592
356.486
356.369
356.237
356.089
355.927
355.752
355.555
355.336
355.111
354.87
354.593
354.296
354.014
353.697
353.33
352.97
352.628
352.225
351.779
351.377
350.963
350.473
349.987
349.549
349.056
348.51
348.013
347.545
346.978
346.438
345.941
345.439
344.825
344.289
343.762
343.292
342.639
342.016
341.445
340.885
340.267
339.616
339.009
338.414
337.812
337.199
336.578
335.952
335.322
334.691
334.059
333.426
332.793
332.16
331.529
330.9
330.272
354.423
354.472
354.524
354.579
354.638
354.7
354.766
354.836
354.909
354.986
355.067
355.151
355.239
355.331
355.427
355.526
355.629
355.735
355.845
355.958
356.075
356.195
356.318
356.444
356.573
356.705
356.839
356.976
357.114
357.254
357.396
357.54
357.684
357.829
357.975
358.12
358.265
358.409
358.553
358.694
358.834
358.971
359.105
359.236
359.362
359.484
359.6
359.711
359.815
359.912
360.001
360.082
360.154
360.216
360.267
360.306
360.334
360.349
360.349
360.339
360.314
360.275
360.222
360.153
360.071
359.973
359.862
359.735
359.594
359.438
359.267
359.081
358.877
358.658
358.423
358.167
357.892
357.606
357.303
356.968
356.616
356.27
355.895
355.475
355.057
354.658
354.205
353.71
353.251
352.794
352.265
351.728
351.241
350.721
350.136
349.592
349.089
348.506
347.92
347.384
346.873
346.247
345.681
345.138
344.65
344.008
343.369
342.797
342.23
341.635
341.001
340.403
339.821
339.236
338.643
338.043
337.438
336.832
336.224
335.613
334.999
334.385
333.771
333.158
332.543
331.928
331.309
330.688
356.904
356.967
357.033
357.103
357.177
357.255
357.337
357.423
357.512
357.606
357.703
357.805
357.911
358.02
358.134
358.252
358.373
358.499
358.628
358.762
358.898
359.039
359.182
359.329
359.479
359.632
359.787
359.945
360.104
360.266
360.429
360.593
360.758
360.923
361.089
361.254
361.418
361.58
361.741
361.899
362.054
362.205
362.352
362.494
362.63
362.76
362.883
362.997
363.103
363.2
363.287
363.362
363.426
363.477
363.515
363.538
363.545
363.538
363.515
363.475
363.418
363.344
363.251
363.141
363.012
362.866
362.701
362.519
362.32
362.103
361.869
361.617
361.347
361.06
360.756
360.432
360.09
359.734
359.361
358.961
358.544
358.129
357.688
357.21
356.731
356.268
355.76
355.213
354.696
354.189
353.619
353.034
352.499
351.948
351.33
350.743
350.205
349.608
348.985
348.417
347.888
347.26
346.667
346.113
345.608
344.976
344.329
343.754
343.189
342.615
342.006
341.42
340.85
340.281
339.707
339.129
338.549
337.967
337.384
336.796
336.205
335.613
335.021
334.428
333.832
333.233
332.629
332.021
359.389
359.466
359.547
359.632
359.721
359.814
359.912
360.014
360.119
360.23
360.344
360.463
360.586
360.714
360.846
360.982
361.122
361.266
361.415
361.567
361.723
361.883
362.046
362.213
362.382
362.555
362.729
362.906
363.085
363.266
363.447
363.63
363.812
363.995
364.176
364.357
364.535
364.711
364.884
365.053
365.217
365.377
365.53
365.676
365.814
365.944
366.065
366.175
366.275
366.362
366.436
366.496
366.542
366.572
366.585
366.58
366.559
366.519
366.459
366.379
366.279
366.158
366.016
365.852
365.668
365.462
365.236
364.989
364.722
364.435
364.128
363.803
363.458
363.095
362.714
362.314
361.896
361.464
361.015
360.543
360.056
359.566
359.055
358.514
357.972
357.442
356.876
356.276
355.702
355.141
354.53
353.9
353.321
352.738
352.093
351.471
350.901
350.294
349.646
349.054
348.506
347.885
347.271
346.712
346.193
345.575
344.933
344.36
343.805
343.249
342.671
342.102
341.547
340.997
340.445
339.891
339.336
338.781
338.225
337.663
337.099
336.533
335.965
335.395
334.821
334.242
333.657
333.065
361.87
361.961
362.057
362.157
362.261
362.37
362.483
362.6
362.722
362.849
362.98
363.115
363.256
363.4
363.55
363.703
363.861
364.024
364.19
364.361
364.535
364.712
364.894
365.078
365.265
365.455
365.647
365.841
366.036
366.232
366.428
366.625
366.821
367.016
367.209
367.4
367.587
367.77
367.949
368.122
368.289
368.449
368.601
368.743
368.876
368.997
369.106
369.203
369.285
369.353
369.405
369.439
369.456
369.453
369.432
369.391
369.328
369.243
369.136
369.006
368.851
368.674
368.472
368.246
367.996
367.722
367.424
367.104
366.761
366.397
366.011
365.605
365.179
364.734
364.271
363.788
363.289
362.776
362.247
361.698
361.136
360.569
359.985
359.38
358.775
358.178
357.554
356.904
356.277
355.664
355.012
354.345
353.726
353.11
352.446
351.797
351.204
350.59
349.934
349.325
348.765
348.157
347.533
346.972
346.444
345.855
345.235
344.672
344.132
343.596
343.049
342.504
341.971
341.443
340.917
340.39
339.864
339.338
338.811
338.28
337.745
337.207
336.667
336.124
335.575
335.02
334.457
333.885
333.305
364.445
364.555
364.669
364.788
364.911
365.039
365.172
365.31
365.452
365.599
365.751
365.907
366.068
366.234
366.404
366.578
366.757
366.94
367.126
367.316
367.51
367.707
367.906
368.108
368.312
368.518
368.724
368.932
369.139
369.346
369.552
369.757
369.958
370.157
370.352
370.541
370.726
370.903
371.073
371.235
371.387
371.528
371.658
371.775
371.879
371.967
372.04
372.096
372.134
372.152
372.149
372.128
372.085
372.018
371.928
371.813
371.674
371.508
371.317
371.1
370.855
370.584
370.287
369.963
369.613
369.237
368.837
368.412
367.964
367.494
367.001
366.489
365.959
365.409
364.84
364.256
363.658
363.048
362.422
361.785
361.142
360.486
359.815
359.149
358.492
357.821
357.133
356.465
355.809
355.127
354.435
353.788
353.146
352.471
351.807
351.199
350.581
349.928
349.311
348.747
348.155
347.539
346.975
346.45
345.896
345.306
344.757
344.235
343.721
343.202
342.688
342.184
341.686
341.189
340.693
340.198
339.705
339.211
338.714
338.21
337.704
337.194
336.68
336.159
335.631
335.093
334.545
333.987
366.908
367.032
367.16
367.292
367.43
367.572
367.72
367.872
368.028
368.19
368.356
368.527
368.703
368.883
369.068
369.257
369.45
369.646
369.846
370.05
370.256
370.465
370.676
370.889
371.104
371.319
371.534
371.749
371.963
372.175
372.384
372.591
372.793
372.991
373.182
373.367
373.544
373.713
373.871
374.019
374.154
374.277
374.385
374.477
374.553
374.611
374.65
374.67
374.666
374.643
374.596
374.525
374.429
374.306
374.158
373.982
373.778
373.545
373.284
372.994
372.675
372.328
371.951
371.546
371.114
370.653
370.167
369.656
369.121
368.561
367.979
367.377
366.759
366.122
365.467
364.798
364.117
363.425
362.729
362.028
361.323
360.609
359.887
359.169
358.46
357.745
357.024
356.323
355.633
354.929
354.223
353.556
352.898
352.219
351.552
350.937
350.319
349.679
349.066
348.508
347.936
347.344
346.788
346.277
345.753
345.202
344.678
344.179
343.691
343.204
342.723
342.25
341.784
341.323
340.862
340.403
339.944
339.485
339.024
338.557
338.083
337.606
337.123
336.633
336.134
335.624
335.103
334.57
369.478
369.619
369.764
369.915
370.07
370.23
370.395
370.565
370.74
370.919
371.103
371.291
371.484
371.681
371.881
372.085
372.293
372.503
372.716
372.932
373.149
373.368
373.587
373.807
374.027
374.245
374.462
374.676
374.887
375.094
375.296
375.492
375.681
375.862
376.034
376.196
376.347
376.485
376.61
376.72
376.814
376.891
376.95
376.989
377.006
377.001
376.975
376.924
376.847
376.745
376.615
376.457
376.27
376.054
375.808
375.531
375.223
374.885
374.516
374.115
373.683
373.222
372.731
372.21
371.66
371.083
370.483
369.858
369.208
368.535
367.844
367.137
366.421
365.694
364.956
364.207
363.448
362.686
361.925
361.164
360.399
359.632
358.871
358.114
357.357
356.604
355.872
355.152
354.429
353.716
353.036
352.367
351.692
351.034
350.422
349.814
349.196
348.605
348.062
347.514
346.958
346.428
345.942
345.454
344.953
344.467
344.004
343.553
343.106
342.663
342.226
341.796
341.372
340.95
340.529
340.108
339.687
339.263
338.834
338.397
337.953
337.503
337.046
336.578
336.099
335.607
335.103
372.035
372.193
372.355
372.521
372.693
372.869
373.05
373.235
373.425
373.619
373.817
374.019
374.225
374.434
374.646
374.861
375.078
375.296
375.517
375.738
375.959
376.18
376.399
376.618
376.833
377.046
377.254
377.457
377.654
377.844
378.026
378.199
378.362
378.513
378.652
378.776
378.886
378.979
379.055
379.112
379.149
379.163
379.155
379.125
379.069
378.987
378.878
378.74
378.573
378.376
378.148
377.889
377.597
377.274
376.917
376.527
376.105
375.65
375.162
374.641
374.089
373.508
372.896
372.254
371.585
370.893
370.182
369.454
368.707
367.941
367.16
366.37
365.573
364.77
363.96
363.144
362.322
361.501
360.682
359.866
359.055
358.254
357.461
356.674
355.9
355.147
354.409
353.678
352.966
352.282
351.615
350.954
350.318
349.72
349.132
348.548
347.991
347.473
346.959
346.446
345.957
345.503
345.055
344.606
344.168
343.747
343.339
342.937
342.541
342.149
341.762
341.378
340.997
340.616
340.236
339.855
339.47
339.08
338.682
338.274
337.858
337.434
337
336.553
336.093
335.619
335.131
334.627
374.399
374.566
374.737
374.913
375.094
375.279
375.468
375.662
375.859
376.06
376.265
376.473
376.684
376.898
377.114
377.331
377.55
377.77
377.99
378.209
378.428
378.644
378.858
379.069
379.275
379.477
379.672
379.86
380.04
380.211
380.372
380.521
380.657
380.779
380.886
380.976
381.049
381.102
381.135
381.144
381.133
381.097