/*--------------------------------*- C++ -*----------------------------------*\
| =========                 |                                                 |
| \\      /  F ield         | OpenFOAM: The Open Source CFD Toolbox           |
|  \\    /   O peration     | Version:  v1706                                 |
|   \\  /    A nd           | Web:      www.OpenFOAM.com                      |
|    \\/     M anipulation  |                                                 |
\*---------------------------------------------------------------------------*/
FoamFile
{
    version     2.0;
    format      ascii;
    class       volVectorField;
    location    "3.8e-05";
    object      U;
}
// * * * * * * * * * * * * * * * * * * * * * * * * * * * * * * * * * * * * * //

dimensions      [0 1 -1 0 0 0 0];


internalField   nonuniform List<vector> 
29871
(
(977.643 1.13779 6.8877e-15)
(977.512 1.29536 4.54602e-15)
(977.369 1.46719 4.71667e-15)
(977.214 1.6565 3.79996e-15)
(977.041 1.86988 2.45435e-15)
(976.846 2.11623 3.15185e-15)
(976.617 2.40547 4.19181e-15)
(976.347 2.74643 4.18141e-15)
(976.027 3.15064 4.79626e-15)
(975.653 3.62119 4.78714e-15)
(975.221 4.1642 5.00939e-15)
(974.718 4.79111 6.57929e-15)
(974.14 5.4997 5.44035e-15)
(973.494 6.27514 5.58703e-15)
(972.788 7.10085 4.06523e-15)
(972.039 7.96645 2.72925e-15)
(971.275 8.87171 3.46115e-15)
(970.513 9.82655 4.28537e-15)
(969.76 10.8417 4.40772e-15)
(968.985 11.9526 4.17997e-15)
(968.16 13.1489 4.04138e-15)
(967.201 14.4977 4.21075e-15)
(965.955 16.1429 2.60053e-15)
(964.326 18.1964 4.29415e-15)
(962.302 20.6899 5.81651e-15)
(959.967 23.5666 5.24971e-15)
(957.473 26.7264 6.53096e-15)
(954.95 30.0603 3.79453e-15)
(952.46 33.4635 3.23445e-15)
(950.029 36.8569 4.90628e-15)
(947.674 40.1881 4.77039e-15)
(945.412 43.4278 3.40908e-15)
(943.293 46.5117 4.74608e-15)
(941.125 49.7273 6.7502e-15)
(938.685 53.2119 4.42738e-15)
(935.688 57.3085 2.03597e-15)
(932.346 61.9103 1.69518e-15)
(928.919 66.7796 4.16032e-15)
(925.57 71.7405 4.51776e-15)
(922.389 76.6845 4.82977e-15)
(919.422 81.5449 5.71351e-15)
(916.682 86.279 6.0255e-15)
(914.149 90.8651 6.39194e-15)
(911.787 95.3002 3.68503e-15)
(909.552 99.5927 3.14654e-15)
(907.408 103.752 3.93575e-15)
(905.338 107.783 2.27676e-15)
(903.339 111.678 -4.37161e-16)
(901.427 115.417 7.47527e-16)
(899.623 118.977 3.95118e-15)
(897.963 122.311 3.97856e-15)
(896.473 125.383 6.65048e-16)
(895.171 128.161 1.5818e-15)
(894.076 130.615 3.97152e-15)
(893.187 132.731 3.60581e-15)
(892.525 134.472 2.98271e-15)
(892.053 135.885 3.94777e-15)
(891.774 136.92 4.18967e-15)
(891.682 137.628 3.54807e-15)
(891.673 138.121 2.94593e-15)
(891.937 138.237 1.1383e-15)
(892.176 138.181 8.29657e-16)
(892.553 137.977 1.74494e-15)
(892.992 137.595 -5.86336e-16)
(893.426 137.088 2.89771e-15)
(893.913 136.467 3.79918e-15)
(894.446 135.752 2.55002e-15)
(895.018 134.957 2.16722e-15)
(895.615 134.096 1.50979e-15)
(896.235 133.163 1.86252e-15)
(896.906 132.145 2.53107e-15)
(897.601 131.088 2.43821e-15)
(898.307 129.963 1.43368e-15)
(899.077 128.734 1.88452e-15)
(899.905 127.429 1.52615e-15)
(900.728 126.108 3.64659e-15)
(901.558 124.737 8.75332e-16)
(902.445 123.288 1.62817e-15)
(903.37 121.798 1.05118e-15)
(904.316 120.264 3.55604e-15)
(905.309 118.651 3.72647e-15)
(906.34 116.985 3.0043e-15)
(907.394 115.287 4.02431e-15)
(908.475 113.549 2.83941e-15)
(909.587 111.769 4.04669e-15)
(910.719 109.965 4.14694e-15)
(911.863 108.144 2.97143e-15)
(913.02 106.308 3.70767e-15)
(914.186 104.459 4.6864e-15)
(915.353 102.607 4.08766e-15)
(916.515 100.763 4.06238e-15)
(917.67 98.9288 1.99079e-15)
(918.818 97.1077 3.6199e-15)
(919.958 95.3005 3.85637e-15)
(921.091 93.5064 2.57664e-15)
(922.221 91.7221 3.07672e-15)
(923.347 89.9443 3.32103e-15)
(924.473 88.1705 3.33529e-15)
(925.596 86.3999 3.4077e-15)
(926.716 84.6323 3.08525e-15)
(927.832 82.8682 4.29275e-15)
(928.941 81.1086 3.31563e-15)
(930.04 79.3551 1.71281e-15)
(931.126 77.6108 2.62453e-15)
(932.194 75.88 1.01511e-15)
(972.517 6.64064 1.19265e-14)
(971.641 7.62222 1.22037e-14)
(970.629 8.75311 1.36747e-14)
(969.456 10.0509 1.34089e-14)
(968.109 11.5243 1.26457e-14)
(966.587 13.174 1.42084e-14)
(964.906 14.9967 1.3318e-14)
(963.087 16.9952 1.32813e-14)
(961.156 19.1668 1.31427e-14)
(959.104 21.5388 1.30187e-14)
(956.906 24.1153 1.23657e-14)
(954.493 26.9273 1.2325e-14)
(951.677 30.1448 1.31924e-14)
(948.294 33.9444 9.17919e-15)
(944.271 38.4408 8.42011e-15)
(939.648 43.6536 1.04091e-14)
(934.541 49.5227 1.29268e-14)
(929.083 55.9361 1.15545e-14)
(923.362 62.7909 1.01887e-14)
(917.548 69.8628 9.12151e-15)
(911.408 77.366 1.00085e-14)
(904.815 85.3169 1.18728e-14)
(897.465 93.9631 1.33412e-14)
(889.42 103.414 1.27019e-14)
(880.898 113.567 1.0419e-14)
(872.074 124.284 1.08055e-14)
(863.076 135.456 1.10732e-14)
(854.023 146.98 1.0342e-14)
(845.036 158.728 9.40397e-15)
(836.239 170.543 8.99331e-15)
(827.756 182.267 9.84641e-15)
(819.712 193.735 5.37312e-15)
(812.174 204.841 8.75361e-15)
(805.245 215.448 1.09322e-14)
(799.093 225.45 1.01613e-14)
(793.737 234.757 8.09593e-15)
(789.057 243.328 5.07695e-15)
(784.971 251.165 8.27978e-15)
(781.452 258.278 5.47475e-15)
(778.498 264.677 6.61007e-15)
(776.117 270.359 6.18051e-15)
(774.342 275.27 4.47467e-15)
(773.16 279.358 4.75032e-15)
(772.498 282.632 4.38101e-15)
(772.28 285.152 3.266e-15)
(772.438 287.006 4.54871e-15)
(772.924 288.288 4.02928e-15)
(773.693 289.091 1.40279e-15)
(774.699 289.513 3.35844e-15)
(775.902 289.649 1.23207e-15)
(777.246 289.594 1.17924e-15)
(778.674 289.431 2.20473e-15)
(780.144 289.241 3.93844e-15)
(781.62 289.089 9.67074e-16)
(783.07 289.012 2.12295e-15)
(784.456 289.082 7.00581e-16)
(785.781 289.241 1.50615e-15)
(787.008 289.552 1.1486e-15)
(788.153 290.035 -2.04188e-15)
(789.188 290.421 -1.49977e-15)
(790.062 291.092 2.59951e-16)
(791.129 291.68 -1.31166e-16)
(792.258 292.417 2.71863e-16)
(792.711 293.095 1.24164e-15)
(793.167 293.472 2.04979e-15)
(793.742 293.835 1.8438e-15)
(794.347 294.168 2.24755e-15)
(794.921 294.444 4.04501e-15)
(795.448 294.607 4.42008e-15)
(795.916 294.746 3.25894e-15)
(796.335 294.882 4.65292e-15)
(796.786 294.825 1.686e-15)
(797.211 294.721 3.27995e-15)
(797.521 294.761 4.39591e-15)
(797.765 294.753 2.5609e-15)
(798.069 294.517 3.47955e-15)
(798.373 294.297 1.89188e-15)
(798.593 294.188 2.2247e-15)
(798.803 293.986 2.56933e-15)
(799.049 293.713 3.07184e-15)
(799.249 293.51 1.52178e-15)
(799.385 293.299 8.19164e-16)
(799.523 293.027 6.40875e-16)
(799.672 292.745 1.86703e-15)
(799.805 292.461 1.66434e-15)
(799.92 292.145 2.3103e-15)
(800.035 291.796 2.12424e-15)
(800.149 291.43 1.56081e-15)
(800.255 291.043 2.23042e-15)
(800.356 290.622 1.91226e-15)
(800.461 290.162 1.92893e-15)
(800.579 289.662 2.22388e-15)
(800.714 289.122 5.09102e-15)
(800.873 288.537 3.89915e-15)
(801.065 287.905 3.40659e-15)
(801.296 287.226 3.76987e-15)
(801.569 286.501 4.83681e-15)
(801.888 285.728 3.74238e-15)
(802.255 284.903 4.60483e-15)
(802.675 284.024 4.29937e-16)
(803.151 283.087 4.38607e-15)
(803.684 282.091 5.40253e-15)
(804.271 281.036 3.51102e-15)
(804.908 279.922 3.63517e-15)
(805.591 278.749 2.32552e-15)
(959.255 20.3789 2.35984e-14)
(956.728 23.1008 2.3005e-14)
(953.967 26.108 1.85059e-14)
(950.928 29.4146 2.16926e-14)
(947.444 33.1717 2.30064e-14)
(943.356 37.544 2.00091e-14)
(938.576 42.6551 2.08006e-14)
(933.119 48.5495 2.09284e-14)
(927.088 55.1776 2.24167e-14)
(920.582 62.465 2.05315e-14)
(913.757 70.2311 1.88063e-14)
(906.533 78.5045 1.69717e-14)
(898.737 87.3736 1.60559e-14)
(890.066 96.991 1.90084e-14)
(880.43 107.547 1.93408e-14)
(869.965 119.036 1.8278e-14)
(858.85 131.384 1.74609e-14)
(847.268 144.47 1.76079e-14)
(835.404 158.13 1.61824e-14)
(823.445 172.164 1.59349e-14)
(811.598 186.329 1.53431e-14)
(800.06 200.396 1.33042e-14)
(789.176 214.054 1.64415e-14)
(779.261 226.923 1.78723e-14)
(770.394 238.747 1.23023e-14)
(762.606 249.358 1.49751e-14)
(755.881 258.676 1.46852e-14)
(750.155 266.723 1.34587e-14)
(745.328 273.615 1.24222e-14)
(741.286 279.518 1.26604e-14)
(737.927 284.617 1.18324e-14)
(735.173 289.085 1.12776e-14)
(732.987 293.033 9.96057e-15)
(731.359 296.514 1.01182e-14)
(730.289 299.443 9.78629e-15)
(729.723 301.858 1.01412e-14)
(729.6 303.85 8.59115e-15)
(729.836 305.483 8.02786e-15)
(730.36 306.794 8.21468e-15)
(731.122 307.822 8.35991e-15)
(732.059 308.634 6.99798e-15)
(733.051 309.387 5.17988e-15)
(734.073 310.329 5.0537e-15)
(735.056 311.536 4.81117e-15)
(735.947 312.888 4.95428e-15)
(736.77 314.234 4.53446e-15)
(737.566 315.461 5.69537e-15)
(738.368 316.499 4.27369e-15)
(739.205 317.298 3.63584e-15)
(740.103 317.835 2.26058e-15)
(741.082 318.103 2.24232e-15)
(742.157 318.129 3.91877e-15)
(743.335 317.953 3.08009e-15)
(744.616 317.624 2.7218e-15)
(745.996 317.197 4.32464e-15)
(747.463 316.726 5.14075e-15)
(748.999 316.28 3.41297e-15)
(750.587 315.877 5.76169e-15)
(752.206 315.578 4.88004e-15)
(753.835 315.409 4.06927e-16)
(755.459 315.312 4.152e-16)
(757.052 315.385 -2.67506e-15)
(758.64 315.543 1.30711e-15)
(760.242 315.806 -6.9013e-17)
(761.787 316.157 -1.03466e-15)
(763.217 316.497 -1.15512e-15)
(764.605 316.837 -4.89065e-16)
(766.078 317.271 -1.06602e-15)
(767.542 317.577 -1.51324e-16)
(768.817 317.755 3.65815e-16)
(770.203 318.117 8.19043e-16)
(771.778 318.252 1.04879e-15)
(772.594 318.248 5.09703e-16)
(773.867 318.296 1.21411e-15)
(775.094 318.376 1.76709e-15)
(776.345 318.129 1.82234e-15)
(777.076 318.084 3.37435e-15)
(778.22 317.963 3.9735e-15)
(779.438 317.774 2.09242e-15)
(780.294 317.505 2.95211e-15)
(781.103 317.329 3.22969e-15)
(782.235 316.957 2.83201e-15)
(783.154 316.531 2.45621e-15)
(783.9 316.203 1.56026e-15)
(784.732 315.786 3.69366e-15)
(785.564 315.275 1.72493e-15)
(786.292 314.77 -3.34441e-16)
(786.962 314.263 -2.49119e-16)
(787.608 313.71 5.18407e-17)
(788.214 313.119 -2.25827e-15)
(788.768 312.512 -4.67857e-16)
(789.279 311.893 -2.61454e-15)
(789.758 311.25 -1.08043e-15)
(790.207 310.58 -1.71651e-16)
(790.629 309.889 5.85624e-16)
(791.027 309.182 2.28699e-16)
(791.41 308.457 -8.83474e-16)
(791.782 307.715 2.04852e-15)
(792.146 306.962 1.07681e-15)
(792.504 306.207 1.9943e-15)
(792.859 305.453 1.58005e-15)
(793.216 304.706 3.9817e-15)
(793.576 303.966 3.62208e-15)
(793.939 303.241 2.79812e-15)
(794.303 302.536 5.03352e-15)
(794.663 301.861 4.74259e-15)
(920.51 60.9692 3.16927e-14)
(913.23 68.956 3.23943e-14)
(905.494 77.5159 2.84459e-14)
(897.082 86.7982 2.94337e-14)
(887.789 96.8511 2.85496e-14)
(877.447 107.888 2.75563e-14)
(866.158 119.913 2.91218e-14)
(854.102 132.853 2.81939e-14)
(841.488 146.58 2.43695e-14)
(828.521 160.926 2.41544e-14)
(815.437 175.644 2.65373e-14)
(802.451 190.49 2.50598e-14)
(789.879 205.152 2.39197e-14)
(778.136 219.191 2.29766e-14)
(767.359 232.299 2.31976e-14)
(757.619 244.273 2.09129e-14)
(748.951 254.993 2.23022e-14)
(741.358 264.409 2.09828e-14)
(734.791 272.557 2.16677e-14)
(729.163 279.54 2.1355e-14)
(724.351 285.521 2.11717e-14)
(720.274 290.62 2.23595e-14)
(716.859 295.027 2.1069e-14)
(714.03 298.95 1.92972e-14)
(711.731 302.486 1.81828e-14)
(709.908 305.67 1.71428e-14)
(708.527 308.442 1.8793e-14)
(707.531 310.719 1.34328e-14)
(706.868 312.453 1.39429e-14)
(706.5 313.63 1.45916e-14)
(706.422 314.292 1.49218e-14)
(706.639 314.525 1.51195e-14)
(707.063 314.548 1.29976e-14)
(707.641 314.744 1.55215e-14)
(708.212 315.282 1.22731e-14)
(708.707 316.054 1.26225e-14)
(709.176 316.914 1.13842e-14)
(709.664 317.775 9.39255e-15)
(710.209 318.562 9.62956e-15)
(710.822 319.229 7.126e-15)
(711.516 319.719 1.02965e-14)
(712.329 319.919 9.94145e-15)
(713.198 320.036 8.35998e-15)
(714.162 320.196 9.51411e-15)
(715.241 320.455 7.81037e-15)
(716.413 320.819 5.78678e-15)
(717.653 321.254 4.71245e-15)
(718.945 321.713 6.0413e-15)
(720.28 322.161 7.92361e-15)
(721.656 322.568 3.06883e-15)
(723.074 322.909 3.30942e-15)
(724.536 323.164 3.72833e-15)
(726.042 323.323 5.20648e-15)
(727.595 323.377 5.68308e-15)
(729.198 323.325 3.023e-15)
(730.847 323.174 4.20045e-15)
(732.536 322.941 5.97669e-15)
(734.261 322.64 4.07318e-15)
(736.009 322.298 3.8139e-15)
(737.769 321.94 2.90084e-15)
(739.533 321.587 3.31131e-15)
(741.294 321.257 6.4212e-16)
(743.047 320.972 9.22774e-17)
(744.792 320.755 4.67339e-16)
(746.535 320.577 -2.35972e-16)
(748.252 320.461 -1.02246e-16)
(749.912 320.384 -1.30476e-16)
(751.624 320.441 -7.67348e-16)
(753.424 320.48 -1.33755e-16)
(755.044 320.368 -7.22497e-16)
(756.763 320.672 1.04544e-15)
(758.635 320.829 1.72253e-16)
(759.785 320.528 4.28692e-16)
(761.43 320.567 -3.81317e-16)
(762.994 320.776 -2.01877e-15)
(764.606 320.583 3.90295e-16)
(765.657 320.558 1.05752e-15)
(767.139 320.516 1.46299e-15)
(768.69 320.525 1.5881e-15)
(769.917 320.373 2.76709e-15)
(771.043 320.305 3.17582e-16)
(772.535 320.162 -9.66761e-17)
(773.835 319.967 -1.20568e-15)
(774.956 319.85 8.66577e-16)
(776.177 319.655 9.63368e-16)
(777.399 319.387 -1.39933e-15)
(778.53 319.121 1.09977e-15)
(779.606 318.849 2.52259e-15)
(780.64 318.561 1.25692e-15)
(781.63 318.271 -3.26758e-16)
(782.585 317.976 3.15679e-16)
(783.499 317.665 -3.03718e-16)
(784.371 317.342 6.88073e-17)
(785.209 317.012 3.88969e-16)
(786.018 316.671 -1.92742e-15)
(786.794 316.315 -2.01298e-15)
(787.537 315.948 2.45642e-15)
(788.254 315.57 -7.07147e-16)
(788.948 315.183 -8.54503e-16)
(789.62 314.789 6.31881e-16)
(790.273 314.389 7.5879e-16)
(790.914 313.986 -9.68891e-16)
(791.546 313.576 2.24195e-15)
(792.171 313.154 3.90921e-16)
(792.788 312.716 7.85597e-16)
(793.394 312.262 1.96415e-15)
(845.959 139.575 3.73596e-14)
(832.615 153.937 3.77093e-14)
(818.985 168.824 3.59711e-14)
(805.304 183.994 3.52215e-14)
(791.862 199.149 3.6274e-14)
(779.116 213.839 3.26271e-14)
(767.266 227.702 3.27094e-14)
(756.421 240.489 3.3355e-14)
(746.657 252.032 3.44403e-14)
(738.005 262.239 3.15579e-14)
(730.455 271.096 2.90846e-14)
(723.936 278.677 2.86726e-14)
(718.355 285.096 2.80269e-14)
(713.628 290.514 2.56729e-14)
(709.662 295.153 2.64675e-14)
(706.359 299.184 2.75581e-14)
(703.61 302.735 2.65643e-14)
(701.33 305.875 2.7184e-14)
(699.473 308.63 2.49657e-14)
(697.992 310.984 2.1956e-14)
(696.834 312.907 2.25594e-14)
(695.946 314.393 2.14597e-14)
(695.289 315.492 2.17112e-14)
(694.852 316.251 2.36844e-14)
(694.664 316.728 1.74743e-14)
(694.677 317.036 1.84646e-14)
(694.841 317.403 1.84594e-14)
(695.059 318.026 1.39054e-14)
(695.215 318.864 1.47445e-14)
(695.324 319.766 1.70263e-14)
(695.426 320.604 1.6698e-14)
(695.534 321.301 1.70439e-14)
(695.698 321.747 1.62842e-14)
(695.932 321.851 1.53636e-14)
(696.213 321.778 1.58539e-14)
(696.629 321.664 1.42352e-14)
(697.204 321.641 1.52506e-14)
(697.907 321.766 1.45477e-14)
(698.7 322.033 1.03887e-14)
(699.559 322.411 1.15227e-14)
(700.472 322.852 1.40568e-14)
(701.433 323.308 1.16973e-14)
(702.453 323.737 1.04084e-14)
(703.462 323.818 9.79331e-15)
(704.449 323.593 1.11812e-14)
(705.515 323.245 8.81972e-15)
(706.706 322.916 7.86813e-15)
(708.012 322.662 6.14818e-15)
(709.408 322.486 4.15793e-15)
(710.857 322.37 5.66829e-15)
(712.329 322.291 3.6201e-15)
(713.81 322.214 4.23462e-15)
(715.294 322.106 5.18993e-15)
(716.778 321.95 6.99418e-15)
(718.268 321.73 5.56482e-15)
(719.782 321.429 5.24221e-15)
(721.334 321.048 2.91426e-15)
(722.938 320.604 4.38615e-15)
(724.608 320.104 4.16605e-15)
(726.358 319.57 2.96552e-15)
(728.184 319.036 3.31458e-15)
(730.08 318.524 4.58407e-15)
(732.042 318.058 4.56654e-15)
(734.055 317.661 2.87336e-15)
(736.101 317.349 3.1909e-15)
(738.168 317.127 2.46297e-15)
(740.241 316.982 -2.26437e-16)
(742.295 316.925 -3.09192e-16)
(744.319 316.967 6.99336e-17)
(746.374 317.035 3.2126e-15)
(748.43 317.138 2.20235e-15)
(750.427 317.439 1.67962e-15)
(752.497 317.732 4.2902e-15)
(754.271 317.572 2.58082e-16)
(756.161 317.785 1.15047e-15)
(757.97 318.149 9.38146e-16)
(760.034 318.166 1.11303e-15)
(761.183 318.103 1.47052e-15)
(762.984 318.232 1.48917e-15)
(764.628 318.443 1.39803e-15)
(766.278 318.408 2.34695e-15)
(767.476 318.425 9.95312e-16)
(769.097 318.481 -3.3228e-16)
(770.693 318.486 -1.03599e-15)
(771.984 318.439 1.43989e-15)
(773.457 318.403 1.78677e-15)
(774.827 318.295 6.94054e-16)
(776.121 318.167 1.84649e-16)
(777.466 318 2.01896e-15)
(778.693 317.856 -2.70195e-16)
(779.808 317.742 2.1395e-15)
(780.924 317.608 2.02363e-15)
(782.037 317.439 -1.79792e-16)
(783.08 317.26 5.78667e-16)
(784.067 317.087 -8.49341e-16)
(785.036 316.901 -1.47658e-15)
(785.98 316.69 -1.49921e-15)
(786.875 316.462 -8.44303e-16)
(787.722 316.226 -2.83216e-15)
(788.533 315.979 -1.27586e-15)
(789.31 315.717 -6.67559e-16)
(790.046 315.443 -1.85359e-15)
(790.734 315.165 3.50126e-16)
(791.378 314.888 1.51448e-15)
(791.992 314.61 1.40976e-15)
(792.589 314.323 2.09483e-15)
(793.182 314.022 3.814e-15)
(741.402 254.551 4.0563e-14)
(732.554 264.724 3.92923e-14)
(724.844 273.511 3.85908e-14)
(718.199 280.992 3.66354e-14)
(712.537 287.292 3.67331e-14)
(707.755 292.635 3.62425e-14)
(703.746 297.211 3.77366e-14)
(700.388 301.173 3.34612e-14)
(697.566 304.634 3.41676e-14)
(695.207 307.653 3.35085e-14)
(693.266 310.25 2.95894e-14)
(691.685 312.418 3.22981e-14)
(690.405 314.136 2.94752e-14)
(689.385 315.43 2.87067e-14)
(688.615 316.358 2.95797e-14)
(688.077 316.993 2.48724e-14)
(687.764 317.393 2.34006e-14)
(687.641 317.672 2.37908e-14)
(687.645 318.011 2.34187e-14)
(687.674 318.561 2.40332e-14)
(687.655 319.275 2.25537e-14)
(687.583 320.046 2.38647e-14)
(687.526 320.756 2.40549e-14)
(687.495 321.374 2.23801e-14)
(687.449 321.913 1.67047e-14)
(687.539 322.258 1.93411e-14)
(687.68 322.443 1.94628e-14)
(687.859 322.607 2.01331e-14)
(688.127 322.834 2.18138e-14)
(688.468 323.159 2.04161e-14)
(688.926 323.613 1.9914e-14)
(689.36 324.105 1.93953e-14)
(689.75 324.57 2.0273e-14)
(690.162 324.907 1.76682e-14)
(690.538 324.89 1.88533e-14)
(690.856 324.57 1.58315e-14)
(691.257 324.116 1.43757e-14)
(691.809 323.683 1.28957e-14)
(692.499 323.357 1.37198e-14)
(693.283 323.166 1.45737e-14)
(694.115 323.079 1.3498e-14)
(694.947 323.074 1.35575e-14)
(695.759 323.071 1.3151e-14)
(696.643 323.025 1.26143e-14)
(697.579 322.872 1.39464e-14)
(698.551 322.584 1.09346e-14)
(699.572 322.217 9.42936e-15)
(700.665 321.85 9.06755e-15)
(701.848 321.527 7.30924e-15)
(703.116 321.266 9.58856e-15)
(704.44 321.083 6.04058e-15)
(705.798 320.961 5.2388e-15)
(707.188 320.853 6.47536e-15)
(708.598 320.735 8.06919e-15)
(710.014 320.599 8.97442e-15)
(711.446 320.408 5.24457e-15)
(712.907 320.135 2.78722e-15)
(714.397 319.801 -4.29426e-16)
(715.927 319.404 3.73771e-17)
(717.52 318.932 1.17463e-15)
(719.183 318.418 2.58327e-15)
(720.917 317.89 -5.47752e-17)
(722.731 317.358 1.54618e-15)
(724.627 316.852 3.81555e-15)
(726.597 316.399 2.54674e-16)
(728.636 316.008 1.89473e-15)
(730.732 315.696 5.97055e-15)
(732.872 315.471 8.85172e-16)
(735.035 315.314 -4.30059e-16)
(737.215 315.24 1.38117e-15)
(739.43 315.243 1.59445e-15)
(741.682 315.381 -1.60357e-15)
(743.96 315.598 4.72962e-16)
(746.17 315.555 2.12174e-17)
(748.362 315.638 1.81584e-15)
(750.469 316.059 6.5462e-16)
(752.926 316.314 2.55427e-15)
(754.476 315.916 1.13646e-15)
(756.63 316.13 1.57523e-15)
(758.58 316.454 -1.63132e-15)
(760.717 316.607 -6.9603e-16)
(762.057 316.517 9.05454e-16)
(763.847 316.548 2.84291e-16)
(765.781 316.681 -8.32145e-16)
(767.55 316.846 -2.40474e-15)
(769.358 316.778 -1.89854e-15)
(770.726 316.701 -1.69978e-15)
(772.407 316.536 -5.22311e-16)
(774.096 316.59 -1.35235e-15)
(775.716 316.526 -1.82712e-15)
(776.998 316.389 -1.06888e-15)
(778.296 316.295 -1.55059e-15)
(779.865 316.165 -1.44396e-15)
(781.255 316.023 1.41367e-15)
(782.459 315.918 1.07516e-16)
(783.693 315.792 -1.84959e-15)
(784.953 315.611 -2.02877e-16)
(786.142 315.422 3.12476e-16)
(787.255 315.245 -6.27372e-16)
(788.335 315.069 -3.94296e-16)
(789.388 314.873 1.16543e-15)
(790.391 314.656 3.00454e-16)
(791.331 314.434 -2.32889e-16)
(792.212 314.211 -4.35341e-16)
(793.038 313.99 -2.48448e-15)
(793.815 313.769 -3.86956e-16)
(794.554 313.543 2.65476e-15)
(704.392 292.941 4.47504e-14)
(700.133 297.705 4.54686e-14)
(696.56 301.796 4.45279e-14)
(693.559 305.325 4.09001e-14)
(691.059 308.356 4.30448e-14)
(689.002 310.93 4.10676e-14)
(687.332 313.021 4.23296e-14)
(685.975 314.649 4.21786e-14)
(684.901 315.849 4.11407e-14)
(684.088 316.706 3.89933e-14)
(683.508 317.287 3.61829e-14)
(683.141 317.649 3.67438e-14)
(682.934 317.944 4.00294e-14)
(682.84 318.349 3.51654e-14)
(682.716 318.956 3.50283e-14)
(682.529 319.673 3.46665e-14)
(682.329 320.376 3.46699e-14)
(682.13 321.012 3.34196e-14)
(681.978 321.543 3.20461e-14)
(681.827 321.972 3.25052e-14)
(681.823 322.26 3.07036e-14)
(681.862 322.423 2.99868e-14)
(681.924 322.564 3.04421e-14)
(682.04 322.745 2.80184e-14)
(682.317 323.084 2.84586e-14)
(682.557 323.451 3.02036e-14)
(682.811 323.883 2.89455e-14)
(683.021 324.241 2.82662e-14)
(683.306 324.661 2.66639e-14)
(683.576 324.903 2.53439e-14)
(683.769 324.94 2.45336e-14)
(684.022 324.901 2.42168e-14)
(684.361 324.859 2.57654e-14)
(684.813 324.917 2.41617e-14)
(685.262 325.078 2.45543e-14)
(685.677 325.213 1.86109e-14)
(686.041 325.289 1.67153e-14)
(686.452 325.326 1.68735e-14)
(686.783 325.176 1.71984e-14)
(687.16 324.896 1.77598e-14)
(687.567 324.504 1.71438e-14)
(688.047 324.086 1.59555e-14)
(688.616 323.726 1.4692e-14)
(689.262 323.463 1.68471e-14)
(689.964 323.302 1.67342e-14)
(690.695 323.216 1.72284e-14)
(691.468 323.201 1.55016e-14)
(692.258 323.177 1.49894e-14)
(693.077 323.061 1.48107e-14)
(693.926 322.843 1.34699e-14)
(694.811 322.572 1.07263e-14)
(695.752 322.267 1.10592e-14)
(696.778 321.924 9.71375e-15)
(697.885 321.601 1.10972e-14)
(699.046 321.352 9.85092e-15)
(700.272 321.13 7.04562e-15)
(701.567 320.896 5.84874e-15)
(702.894 320.691 7.90599e-15)
(704.246 320.49 7.90292e-15)
(705.641 320.209 3.67345e-15)
(707.07 319.878 5.23963e-15)
(708.52 319.533 6.04955e-15)
(710.012 319.097 2.38277e-15)
(711.56 318.579 4.00253e-15)
(713.154 318.045 3.14408e-15)
(714.808 317.47 2.84989e-15)
(716.538 316.868 6.71856e-15)
(718.34 316.291 3.10196e-15)
(720.221 315.737 3.16602e-15)
(722.182 315.226 3.10849e-15)
(724.212 314.799 2.78441e-16)
(726.311 314.423 1.62945e-15)
(728.468 314.126 -8.73317e-16)
(730.658 313.923 7.34124e-16)
(732.917 313.825 6.54654e-16)
(735.264 313.888 2.11996e-15)
(737.638 313.821 5.99996e-16)
(739.961 313.737 2.09135e-15)
(742.285 314.051 -1.58847e-16)
(744.756 314.375 1.99389e-15)
(746.835 314.011 1.91888e-15)
(749.179 314.096 2.90966e-15)
(751.425 314.423 2.16177e-15)
(753.818 314.692 2.63571e-15)
(755.835 314.586 3.67595e-15)
(757.558 314.657 1.92874e-15)
(759.842 314.946 2.65024e-15)
(761.832 315.158 6.92782e-16)
(764.016 315.043 -5.29125e-16)
(765.38 315.044 -4.61763e-16)
(767.471 315.102 -4.45546e-16)
(769.411 315.308 3.56179e-16)
(771.382 315.317 -5.71454e-16)
(772.896 315.094 -3.46804e-15)
(774.431 315.022 -3.54129e-16)
(776.298 315.106 6.91518e-16)
(778.064 315.115 -2.21163e-16)
(779.535 314.94 8.49766e-16)
(780.89 314.901 -3.63111e-16)
(782.544 314.823 -4.59314e-16)
(784.123 314.757 -1.47527e-15)
(785.435 314.686 -8.80089e-16)
(786.743 314.63 1.03755e-15)
(788.105 314.51 -2.05991e-15)
(789.405 314.369 2.52271e-15)
(790.604 314.244 -9.12802e-16)
(791.751 314.133 1.89884e-15)
(792.848 314.018 -2.94506e-16)
(793.874 313.899 -1.29445e-15)
(794.841 313.785 -5.05676e-16)
(681.317 316.034 4.7816e-14)
(680.42 316.929 4.98545e-14)
(679.764 317.533 4.94512e-14)
(679.322 317.908 4.83973e-14)
(679.043 318.221 4.99895e-14)
(678.881 318.649 4.95957e-14)
(678.64 319.281 4.96083e-14)
(678.377 319.975 4.6121e-14)
(678.08 320.636 4.98057e-14)
(677.823 321.216 4.64327e-14)
(677.617 321.679 4.64801e-14)
(677.416 322.038 4.73438e-14)
(677.386 322.263 4.61144e-14)
(677.36 322.406 4.24965e-14)
(677.372 322.535 4.15408e-14)
(677.489 322.759 4.2887e-14)
(677.664 323.098 4.46276e-14)
(677.758 323.419 4.3124e-14)
(677.891 323.74 4.08317e-14)
(678.043 324.096 3.79657e-14)
(678.194 324.397 4.00037e-14)
(678.383 324.625 3.85032e-14)
(678.456 324.623 3.98691e-14)
(678.598 324.582 3.86783e-14)
(678.849 324.593 3.47467e-14)
(679.105 324.61 3.4641e-14)
(679.399 324.73 3.53085e-14)
(679.696 324.902 3.44059e-14)
(679.973 325.112 3.19196e-14)
(680.221 325.28 2.8104e-14)
(680.466 325.369 2.88257e-14)
(680.763 325.368 3.10205e-14)
(681.07 325.35 2.90147e-14)
(681.413 325.36 2.5745e-14)
(681.804 325.433 2.69672e-14)
(682.201 325.497 2.74278e-14)
(682.574 325.631 2.63123e-14)
(682.976 325.753 2.4238e-14)
(683.375 325.853 2.29461e-14)
(683.68 325.81 2.44703e-14)
(684.02 325.653 2.28346e-14)
(684.401 325.409 2.07049e-14)
(684.822 325.096 2.04268e-14)
(685.305 324.782 1.88583e-14)
(685.856 324.515 1.91875e-14)
(686.474 324.289 1.79476e-14)
(687.156 324.129 1.8885e-14)
(687.865 324.052 1.65622e-14)
(688.608 323.958 1.44851e-14)
(689.359 323.75 1.45991e-14)
(690.139 323.535 1.39911e-14)
(690.946 323.321 1.48439e-14)
(691.802 323 1.14913e-14)
(692.735 322.598 1.51842e-14)
(693.722 322.261 1.28069e-14)
(694.767 321.987 1.18383e-14)
(695.909 321.647 1.34614e-14)
(697.122 321.313 1.05335e-14)
(698.361 321.083 1.13352e-14)
(699.652 320.793 1.23142e-14)
(700.999 320.41 9.37022e-15)
(702.37 320.1 1.04163e-14)
(703.773 319.742 7.97198e-15)
(705.225 319.227 7.46269e-15)
(706.723 318.727 2.69477e-15)
(708.26 318.207 8.52005e-15)
(709.857 317.576 6.2004e-15)
(711.52 316.957 4.34824e-15)
(713.245 316.345 6.14847e-15)
(715.05 315.704 6.21053e-15)
(716.927 315.133 2.25121e-15)
(718.877 314.602 2.08866e-15)
(720.914 314.094 6.30978e-16)
(723.005 313.677 2.87686e-15)
(725.148 313.345 -2.72917e-15)
(727.416 313.213 -8.61217e-16)
(729.785 313.017 2.42962e-16)
(732.089 312.701 -5.924e-16)
(734.465 312.86 1.01187e-16)
(736.892 313.167 -2.5427e-16)
(739.165 312.797 -5.24883e-16)
(741.582 312.643 1.32715e-15)
(744.022 312.925 4.14927e-15)
(746.475 313.2 3.29375e-15)
(749.071 313.106 4.76152e-15)
(750.738 313.124 5.80413e-15)
(753.281 313.435 4.34367e-15)
(755.455 313.663 2.44062e-15)
(757.979 313.637 4.48005e-15)
(759.466 313.587 4.43565e-15)
(761.817 313.803 4.3152e-15)
(764.005 314.134 4.00154e-15)
(766.182 314.198 4.86297e-15)
(767.945 313.922 1.65908e-15)
(769.692 313.87 2.68302e-15)
(771.855 314.098 1.26705e-15)
(773.837 314.216 1.65007e-15)
(775.648 314.008 -2.44978e-16)
(777.164 313.984 -7.79281e-16)
(779.113 314.094 1.12164e-15)
(780.986 314.179 2.21329e-16)
(782.566 314.049 -3.66626e-16)
(784.037 314.017 -9.10956e-16)
(785.783 314.063 -1.95655e-15)
(787.421 314.047 2.62488e-17)
(788.752 314.04 -2.01761e-15)
(790.159 313.993 2.83799e-16)
(791.637 313.936 9.39184e-16)
(792.914 313.926 1.41749e-15)
(794.113 313.939 -7.88039e-16)
(674.279 320.878 5.74323e-14)
(673.975 321.441 5.63022e-14)
(673.735 321.882 5.47867e-14)
(673.504 322.213 5.70157e-14)
(673.443 322.416 5.59354e-14)
(673.388 322.535 5.47779e-14)
(673.376 322.655 5.211e-14)
(673.479 322.868 5.53382e-14)
(673.564 323.164 5.38519e-14)
(673.626 323.424 5.31712e-14)
(673.727 323.708 5.15032e-14)
(673.834 324.003 5.03853e-14)
(673.938 324.306 5.13136e-14)
(673.997 324.341 4.82692e-14)
(674.082 324.288 5.00577e-14)
(674.232 324.229 4.85616e-14)
(674.416 324.201 4.72823e-14)
(674.622 324.241 4.61672e-14)
(674.839 324.341 4.51121e-14)
(675.047 324.488 4.49882e-14)
(675.215 324.668 4.60235e-14)
(675.388 324.824 4.23115e-14)
(675.554 324.907 4.05693e-14)
(675.699 324.939 4.11953e-14)
(675.899 324.923 3.91628e-14)
(676.119 324.927 3.87565e-14)
(676.353 324.996 3.67246e-14)
(676.614 325.128 3.65238e-14)
(676.882 325.314 3.88947e-14)
(677.149 325.532 3.37565e-14)
(677.403 325.752 3.76374e-14)
(677.65 325.943 3.57041e-14)
(677.897 326.06 3.76716e-14)
(678.193 326.126 3.51136e-14)
(678.513 326.222 3.44328e-14)
(678.852 326.306 3.33033e-14)
(679.211 326.416 3.23044e-14)
(679.588 326.543 3.1397e-14)
(679.971 326.661 3.00787e-14)
(680.348 326.722 2.95995e-14)
(680.729 326.725 2.88437e-14)
(681.065 326.622 2.66595e-14)
(681.434 326.42 2.56529e-14)
(681.854 326.165 2.16538e-14)
(682.319 325.916 2.11619e-14)
(682.837 325.63 2.19058e-14)
(683.437 325.335 2.24177e-14)
(684.077 325.18 1.98106e-14)
(684.796 325.101 2.06066e-14)
(685.453 324.825 2.08261e-14)
(686.201 324.603 2.15863e-14)
(686.911 324.434 1.92642e-14)
(687.7 324.226 1.66342e-14)
(688.525 323.816 1.7675e-14)
(689.41 323.407 1.73211e-14)
(690.357 323.176 1.57303e-14)
(691.374 322.853 1.27535e-14)
(692.459 322.358 1.36719e-14)
(693.597 322.037 1.17598e-14)
(694.811 321.829 1.47142e-14)
(696.038 321.363 1.03799e-14)
(697.33 320.977 1.17944e-14)
(698.655 320.724 1.1113e-14)
(700.012 320.221 9.84823e-15)
(701.43 319.696 9.65925e-15)
(702.917 319.314 9.56912e-15)
(704.406 318.693 1.01993e-14)
(705.967 318.043 8.54259e-15)
(707.59 317.486 9.72258e-15)
(709.268 316.797 6.24709e-15)
(711.024 316.124 8.31012e-15)
(712.845 315.542 7.66243e-15)
(714.748 314.906 6.01496e-15)
(716.731 314.286 7.00456e-15)
(718.751 313.785 1.98027e-15)
(720.879 313.508 -9.17473e-17)
(723.165 313.144 2.96111e-15)
(725.355 312.567 2.19837e-16)
(727.696 312.541 1.32431e-15)
(730.052 312.796 3.38443e-15)
(732.352 312.374 1.76702e-15)
(734.659 311.933 2.72384e-15)
(737.184 312.141 3.45962e-15)
(739.59 312.371 5.07493e-15)
(742.421 312.211 1.95815e-15)
(744.082 312.14 3.14814e-15)
(746.747 312.36 4.41559e-15)
(749.092 312.612 7.51663e-15)
(751.804 312.681 5.55923e-15)
(753.519 312.544 6.09615e-15)
(755.958 312.784 5.24676e-15)
(758.334 313.203 7.67533e-15)
(760.637 313.313 5.35896e-15)
(762.669 313.026 5.68506e-15)
(764.569 312.983 6.3053e-15)
(766.957 313.331 6.50628e-15)
(769.063 313.537 6.3292e-15)
(771.163 313.354 2.16747e-15)
(772.81 313.288 2.17865e-15)
(775 313.535 2.56069e-15)
(777.098 313.722 2.31456e-15)
(778.861 313.587 1.97968e-15)
(780.628 313.546 3.04763e-15)
(782.578 313.815 1.20354e-15)
(784.512 313.839 1.51066e-15)
(785.98 313.823 6.33636e-17)
(787.695 313.806 -1.89326e-16)
(789.377 314.012 1.16961e-15)
(791.003 314.085 1.65737e-15)
(792.34 314.142 1.94462e-15)
(669.711 323.331 6.2267e-14)
(669.763 323.542 6.28404e-14)
(669.852 323.791 6.37585e-14)
(669.943 324.058 6.42799e-14)
(670.02 324.291 6.35618e-14)
(670.052 324.277 6.36356e-14)
(670.137 324.152 5.9895e-14)
(670.293 324.025 6.13007e-14)
(670.463 323.945 5.99048e-14)
(670.645 323.93 5.8426e-14)
(670.826 323.977 5.7054e-14)