/*--------------------------------*- C++ -*----------------------------------*\
| =========                 |                                                 |
| \\      /  F ield         | OpenFOAM: The Open Source CFD Toolbox           |
|  \\    /   O peration     | Version:  v1706                                 |
|   \\  /    A nd           | Web:      www.OpenFOAM.com                      |
|    \\/     M anipulation  |                                                 |
\*---------------------------------------------------------------------------*/
FoamFile
{
    version     2.0;
    format      ascii;
    class       volScalarField;
    location    "3.3e-05";
    object      p;
}
// * * * * * * * * * * * * * * * * * * * * * * * * * * * * * * * * * * * * * //

dimensions      [1 -1 -2 0 0 0 0];


internalField   nonuniform List<scalar> 
30104
(
21.9139
21.9139
21.9139
21.9139
21.9139
21.9139
21.9139
21.9139
21.9139
21.9139
21.9139
21.9139
21.9139
21.9139
21.9139
21.9139
21.9139
21.9139
21.9139
21.9139
21.9139
21.9139
21.9139
21.9139
21.9139
21.9139
21.9139
21.9139
21.9139
21.9139
21.9139
21.9139
21.9139
21.9139
21.9139
21.9139
21.9139
21.9139
21.9139
21.9139
21.9139
21.9139
21.9139
21.9139
21.9139
21.9139
21.9139
21.9139
21.9139
21.9139
21.9139
21.9139
21.9139
21.9139
21.9139
21.9139
21.9139
21.9139
21.9139
21.9139
21.9139
21.9139
21.9139
21.9139
21.9139
21.9139
21.9139
21.9139
21.9139
21.9139
21.9139
21.9139
21.9139
21.9139
21.9139
21.9139
21.9139
21.9139
21.9139
21.9139
21.9139
21.9139
21.9139
21.9139
21.9139
21.9139
21.9139
21.9139
21.9139
21.9139
21.9139
21.9139
21.9139
21.9139
21.9139
21.9139
21.9139
21.9139
21.9139
21.9139
21.9139
21.9139
21.9139
21.9139
21.9139
21.9139
21.9139
21.9139
21.9139
21.9139
21.9139
21.9139
21.9139
21.9139
21.9139
21.9139
21.9139
21.9139
21.9139
21.9139
21.9139
21.9139
21.9139
21.9139
21.9139
21.9139
21.9139
21.9139
21.9139
21.9139
21.9139
21.9139
21.9139
21.9139
21.9139
21.9139
21.9139
21.9139
21.9139
21.9139
21.9139
21.9139
21.9139
21.9139
21.9139
21.9139
21.9139
21.9139
21.9139
21.9139
21.9139
21.9139
21.9139
21.9139
21.9139
21.9139
21.9139
21.9139
21.9139
21.9139
21.9139
21.9139
21.9139
21.9139
21.9139
21.9139
21.9139
21.9139
21.9139
21.9139
21.9139
21.9139
21.9139
21.9139
21.9139
21.9139
21.9139
21.9139
21.9139
21.9139
21.9139
21.9139
21.9139
21.9139
21.9139
21.9139
21.9139
21.9139
21.9139
21.9139
21.9139
21.9139
21.9139
21.9139
21.9139
21.9139
21.9139
21.9139
21.9139
21.9139
21.9139
21.9139
21.9139
21.9139
21.9139
21.9139
21.9139
21.9139
21.9139
21.9139
21.9139
21.9139
21.9139
21.9139
21.9139
21.9139
21.9139
21.9139
21.9139
21.9139
21.9139
21.9139
21.9139
21.9139
21.9139
21.9139
21.9139
21.9139
21.9139
21.9139
21.9139
21.9139
21.9139
21.9139
21.9139
21.9139
21.9139
21.9139
21.9139
21.9139
21.9139
21.9139
21.9139
21.9139
21.9139
21.9139
21.9139
21.9139
21.9139
21.9139
21.9139
21.9139
21.9139
21.9139
21.9139
21.9139
21.9139
21.9139
21.9139
21.9139
21.9139
21.9139
21.9139
21.9139
21.9139
21.9139
21.9139
21.9139
21.9139
21.9139
21.9139
21.9139
21.9139
21.9139
21.9139
21.9139
21.9139
21.9139
21.9139
21.9139
21.9139
21.9139
21.9139
21.9139
21.9139
21.9139
21.9139
21.9139
21.9139
21.9139
21.9139
21.9139
21.9139
21.9139
21.9139
21.9139
21.9139
21.9139
21.9139
21.9139
21.9139
21.9139
21.9139
21.9139
21.9139
21.9139
21.9139
21.9139
21.9139
21.9139
21.9139
21.9139
21.9139
21.9139
21.9139
21.9139
21.9139
21.9139
21.9139
21.9139
21.9139
21.9139
21.9139
21.9139
21.9139
21.9139
21.9139
21.9139
21.9139
21.9139
21.9139
21.9139
21.9139
21.9139
21.9139
21.9139
21.9139
21.9139
21.9139
21.9139
21.9139
21.9139
21.9139
21.9139
21.9139
21.9139
21.9139
21.9139
21.9139
21.9139
21.9139
21.9139
21.9139
21.9139
21.9139
21.9139
21.9139
21.9139
21.9139
21.9139
21.9139
21.9139
21.9139
21.9139
21.9139
21.9139
21.9139
21.9139
21.9139
21.9139
21.9139
21.9139
21.9139
21.9139
21.9139
21.9139
21.9139
21.9139
21.9139
21.9139
21.9139
21.9139
21.9139
21.9139
21.9139
21.9139
21.9139
21.9139
21.9139
21.9139
21.9139
21.9139
21.9139
21.9139
21.9139
21.9139
21.9139
21.9139
21.9139
21.9139
21.9139
21.9139
21.9139
21.9139
21.9139
21.9139
21.9139
21.9139
21.9139
21.9139
21.9139
21.9139
21.9139
21.9139
21.9139
21.9139
21.9139
21.9139
21.9139
21.9139
21.9139
21.9139
21.9139
21.9139
21.9139
21.9139
21.9139
21.9139
21.9139
21.9139
21.9139
21.9139
21.9139
21.9139
21.9139
21.9139
21.9139
21.9139
21.9139
21.9139
21.9139
21.9139
21.9139
21.9139
21.9139
21.9139
21.9139
21.9139
21.9139
21.9139
21.9139
21.9139
21.9139
21.9139
21.9139
21.9139
21.9139
21.9139
21.9139
21.9139
21.9139
21.9139
21.9139
21.9139
21.9139
21.9139
21.9139
21.9139
21.9139
21.9139
21.9139
21.9139
21.9139
21.9139
21.9139
21.9139
21.9139
21.9139
21.9139
21.9139
21.9139
21.9139
21.9139
21.9139
21.9139
21.9139
21.9139
21.9139
21.9139
21.9139
21.9139
21.9139
21.9139
21.9139
21.9139
21.9139
21.9139
21.9139
21.9139
21.9139
21.9139
21.9139
21.9139
21.9139
21.9139
21.9139
21.9139
21.9139
21.9139
21.9139
21.9139
21.9139
21.9139
21.9139
21.9139
21.9139
21.9139
21.9139
21.9139
21.9139
21.9139
21.9139
21.9139
21.9139
21.9139
21.9139
21.9139
21.9139
21.9139
21.9139
21.9139
21.9139
21.9139
21.9139
21.9139
21.9139
21.9139
21.9139
21.9139
21.9139
21.9139
21.9139
21.9139
21.9139
21.9139
21.9139
21.9139
21.9139
21.9139
21.9139
21.9139
21.9139
21.9139
21.9139
21.9139
21.9139
21.9139
21.9139
21.9139
21.9139
21.9139
21.9139
21.9139
21.9139
21.9139
21.9139
21.9139
21.9139
21.9139
21.9139
21.9139
21.9139
21.9139
21.9139
21.9139
21.9139
21.9139
21.9139
21.9139
21.9139
21.9139
21.9139
21.9139
21.9139
21.9139
21.9139
21.9139
21.9139
21.9139
21.9139
21.9139
21.9139
21.9139
21.9139
21.9139
21.9139
21.9139
21.9139
21.9139
21.9139
21.9139
21.9139
21.9139
21.9139
21.9139
21.9139
21.9139
21.9139
21.9139
21.9139
21.9139
21.9139
21.9139
21.9139
21.9139
21.9139
21.9139
21.9139
21.9139
21.9139
21.9139
21.9139
21.9139
21.9139
21.9139
21.9139
21.9139
21.9139
21.9139
21.9139
21.9139
21.9139
21.9139
21.9139
21.9139
21.9139
21.9139
21.9139
21.9139
21.9139
21.9139
21.9139
21.9139
21.9139
21.9139
21.9139
21.9139
21.9139
21.9139
21.9139
21.9139
21.9139
21.9139
21.9139
21.9139
21.9139
21.9139
21.9139
21.9139
21.9139
21.9139
21.9139
21.9139
21.9139
21.9139
21.9139
21.9139
21.9139
21.9139
21.9139
21.9139
21.9139
21.9139
21.9139
21.9139
21.9139
21.9139
21.9139
21.9139
21.9139
21.9139
21.9139
21.9139
21.9139
21.9139
21.9139
21.9139
21.9139
21.9139
21.9139
21.9139
21.9139
21.9139
21.9139
21.9139
21.9139
21.9139
21.9139
21.9139
21.9139
21.9139
21.9139
21.9139
21.9139
21.9139
21.9139
21.9139
21.9139
21.9139
21.9139
21.9139
21.9139
21.9139
21.9139
21.9139
21.9139
21.9139
21.9139
21.9139
21.9139
21.9139
21.9139
21.9139
21.9139
21.9139
21.9139
21.9139
21.9139
21.9139
21.9139
21.9139
21.9139
21.9139
21.9139
21.9139
21.9139
21.9139
21.9139
21.9139
21.9139
21.9139
21.9139
21.9139
21.9139
21.9139
21.9139
21.9139
21.9139
21.9139
21.9139
21.9139
21.9139
21.9139
21.9139
21.9139
21.9139
21.9139
21.9139
21.9139
21.9139
21.9139
21.9139
21.9139
21.9139
21.9139
21.9139
21.9139
21.9139
21.9139
21.9139
21.9139
21.9139
21.9139
21.9139
21.9139
21.9139
21.9139
21.9139
21.9139
21.9139
21.9139
21.9139
21.9139
21.9139
21.9139
21.9139
21.9139
21.9139
21.9139
21.9139
21.9139
21.9139
21.9139
21.9139
21.9139
21.9139
21.9139
21.9139
21.9139
21.9139
21.9139
21.9139
21.9139
21.9139
21.9139
21.9139
21.9139
21.9139
21.9139
21.9139
21.9139
21.9139
21.9139
21.9139
21.9139
21.9139
21.9139
21.9139
21.9139
21.9139
21.9139
21.9139
21.9139
21.9139
21.9139
21.9139
21.9139
21.9139
21.9139
21.9139
21.9139
21.9139
21.9139
21.9139
21.9139
21.9139
21.9139
21.9139
21.9139
21.9139
21.9139
21.9139
21.9139
21.9139
21.9139
21.9139
21.9139
21.9139
21.9139
21.9139
21.9139
21.9139
21.9139
21.9139
21.9139
21.9139
21.9139
21.9139
21.9139
21.9139
21.9139
21.9139
21.9139
21.9139
21.9139
21.9139
21.9139
21.9139
21.9139
21.9139
21.9139
21.9139
21.9139
21.9139
21.9139
21.9139
21.9139
21.9139
21.9139
21.9139
21.9139
21.9139
21.9139
21.9139
21.9139
21.9139
21.9139
21.9139
21.9139
21.9139
21.9139
21.9139
21.9139
21.9139
21.9139
21.9139
21.9139
21.9139
21.9139
21.9139
21.9139
21.9139
21.9139
21.9139
21.9139
21.9139
21.9139
21.9139
21.9139
21.9139
21.9139
21.9139
21.9139
21.9139
21.9139
21.9139
21.9139
21.9139
21.9139
21.9139
21.9139
21.9139
21.9139
21.9139
21.9139
21.9139
21.9139
21.9139
21.9139
21.9139
21.9139
21.9139
21.9139
21.9139
21.9139
21.9139
21.9139
21.9139
21.9139
21.9139
21.9139
21.9139
21.9139
21.9139
21.9139
21.9139
21.9139
21.9139
21.9139
21.9139
21.9139
21.9139
21.9139
21.9139
21.9139
21.9139
21.9139
21.9139
21.9139
21.9139
21.9139
21.9139
21.9139
21.9139
21.9139
21.9139
21.9139
21.9139
21.9139
21.9139
21.9139
21.9139
21.9139
21.9139
21.9139
21.9139
21.9139
21.9139
21.9139
21.9139
21.9139
21.9139
21.9139
21.9139
21.9139
21.9139
21.9139
21.9139
21.9139
21.9139
21.9139
21.9139
21.9139
21.9139
21.9139
21.9139
21.9139
21.9139
21.9139
21.9139
21.9139
21.9139
21.9139
21.9139
21.9139
21.9139
21.9139
21.9139
21.9139
21.9139
21.9139
21.9139
21.9139
21.9139
21.9139
21.9139
21.9139
21.9139
21.9139
21.9139
21.9139
21.9139
21.9139
21.9139
21.9139
21.9139
21.9139
21.9139
21.9139
21.9139
21.9139
21.9139
21.9139
21.9139
21.9139
21.9139
21.9139
21.9139
21.9139
21.9139
21.9139
21.9139
21.9139
21.9139
21.9139
21.9139
21.9139
21.9139
21.9139
21.9139
21.9139
21.9139
21.9139
21.9139
21.9139
21.9139
21.9139
21.9139
21.9139
21.9139
21.9139
21.9139
21.9139
21.9139
21.9139
21.9139
21.9139
21.9139
21.9139
21.9139
21.9139
21.9139
21.9139
21.9139
21.9139
21.9139
21.9139
21.9139
21.9139
21.9139
21.9139
21.9139
21.9139
21.9139
21.9139
21.9139
21.9139
21.9139
21.9139
21.9139
21.9139
21.9139
21.9139
21.9139
21.9139
21.9139
21.9139
21.9139
21.9139
21.9139
21.9139
21.9139
21.9139
21.9139
21.9139
21.9139
21.9139
21.9139
21.9139
21.9139
21.9139
21.9139
21.9139
21.9139
21.9139
21.9139
21.9139
21.9139
21.9139
21.9139
21.9139
21.9139
21.9139
21.9139
21.9139
21.9139
21.9139
21.9139
21.9139
21.9139
21.9139
21.9139
21.9139
21.9139
21.9139
21.9139
21.9139
21.9139
21.9139
21.9139
21.9139
21.9139
21.9139
21.9139
21.9139
21.9139
21.9139
21.9139
21.9139
21.9139
21.9139
21.9139
21.9139
21.9139
21.9139
21.9139
21.9139
21.9139
21.9139
21.9139
21.9139
21.9139
21.9139
21.9139
21.9139
21.9139
21.9139
21.9139
21.9139
21.9139
21.9139
21.9139
21.9139
21.9139
21.9139
21.9139
21.9139
21.9139
21.9139
21.9139
21.9139
21.9139
21.9139
21.9139
21.9139
21.9139
21.9139
21.9139
21.9139
21.9139
21.9139
21.9139
21.9139
21.9139
21.9139
21.9139
21.9139
21.9139
21.9139
21.9139
21.9139
21.9139
21.9139
21.9139
21.9139
21.9139
21.9139
21.9139
21.9139
21.9139
21.9139
21.9139
21.9139
21.9139
21.9139
21.9139
21.9139
21.9139
21.9139
21.9139
21.9139
21.9139
21.9139
21.9139
21.9139
21.9139
21.9139
21.9139
21.9139
21.9139
21.9139
21.9139
21.9139
21.9139
21.9139
21.9139
21.9139
21.9139
21.9139
21.9139
21.9139
21.9139
21.9139
21.9139
21.9139
21.9139
21.9139
21.9139
21.9139
21.9139
21.9139
21.9139
21.9139
21.9139
21.9139
21.9139
21.9139
21.9139
21.9139
21.9139
21.9139
21.9139
21.9139
21.9139
21.9139
21.9139
21.9139
21.9139
21.9139
21.9139
21.9139
21.9139
21.9139
21.9139
21.9139
21.9139
21.9139
21.9139
21.9139
21.9139
21.9139
21.9139
21.9139
21.9139
21.9139
21.9139
21.9139
21.9139
21.9139
21.9139
21.9139
21.9139
21.9139
21.9139
21.9139
21.9139
21.9139
21.9139
21.9139
21.9139
21.9139
21.9139
21.9139
21.9139
21.9139
21.9139
21.9139
21.9139
21.9139
21.9139
21.9139
21.9139
21.914
21.914
21.914
21.914
21.914
21.914
21.914
21.914
21.914
21.914
21.914
21.914
21.914
21.914
21.914
21.914
21.914
21.914
21.914
21.914
21.914
21.914
21.914
21.914
21.914
21.914
21.914
21.914
21.914
21.914
21.914
21.914
21.914
21.914
21.914
21.914
21.914
21.914
21.914
21.914
21.914
21.914
21.914
21.914
21.914
21.914
21.914
21.914
21.914
21.914
21.914
21.9139
21.9139
21.9139
21.9139
21.9139
21.9139
21.9139
21.9139
21.9139
21.9139
21.9139
21.9139
21.9139
21.9139
21.9139
21.9139
21.9139
21.9139
21.9139
21.9139
21.9139
21.9139
21.9139
21.9139
21.9139
21.9139
21.9139
21.9139
21.9139
21.9139
21.9139
21.9139
21.9139
21.9139
21.9139
21.9139
21.9139
21.9139
21.9139
21.9139
21.9139
21.9139
21.9139
21.9139
21.9139
21.9139
21.9139
21.9139
21.9139
21.9139
21.9139
21.9139
21.9139
21.9139
21.9139
21.9139
21.9139
21.9139
21.9139
21.9139
21.9139
21.9139
21.9139
21.9139
21.9139
21.9139
21.9139
21.9139
21.9139
21.9139
21.9139
21.9139
21.9139
21.9139
21.9139
21.9139
21.9139
21.9139
21.9139
21.9139
21.9139
21.9139
21.9139
21.9139
21.9139
21.9139
21.9139
21.9139
21.9139
21.9139
21.9139
21.9139
21.9139
21.9139
21.9139
21.9139
21.9139
21.9139
21.9139
21.9139
21.9139
21.9139
21.9139
21.9139
21.9139
21.9139
21.9139
21.9139
21.9139
21.9139
21.9139
21.9139
21.9139
21.9139
21.9139
21.9139
21.9139
21.9139
21.9139
21.9139
21.9139
21.9139
21.9139
21.9139
21.9139
21.9139
21.9139
21.9139
21.9139
21.9139
21.9139
21.9139
21.9139
21.9139
21.9139
21.9139
21.9139
21.9139
21.914
21.914
21.914
21.914
21.914
21.914
21.914
21.914
21.914
21.9141
21.9141
21.9141
21.9141
21.9141
21.9141
21.9142
21.9142
21.9142
21.9143
21.9143
21.9143
21.9143
21.9144
21.9144
21.9144
21.9144
21.9144
21.9144
21.9145
21.9145
21.9145
21.9145
21.9145
21.9145
21.9145
21.9145
21.9145
21.9145
21.9145
21.9145
21.9145
21.9145
21.9145
21.9146
21.9146
21.9146
21.9146
21.9146
21.9146
21.9146
21.9146
21.9146
21.9146
21.9146
21.9145
21.9145
21.9145
21.9145
21.9145
21.9144
21.9144
21.9144
21.9144
21.9144
21.9143
21.9143
21.9143
21.9142
21.9142
21.9142
21.9142
21.9142
21.9141
21.9141
21.9141
21.9141
21.914
21.914
21.914
21.914
21.914
21.914
21.914
21.914
21.9139
21.9139
21.9139
21.9139
21.9139
21.9139
21.9139
21.9139
21.9139
21.9139
21.9139
21.9139
21.9139
21.9139
21.9139
21.9139
21.9139
21.9139
21.9139
21.9139
21.9139
21.9139
21.9139
21.9139
21.9139
21.9139
21.9139
21.9139
21.9139
21.9139
21.9139
21.9139
21.9139
21.9139
21.9139
21.9139
21.9139
21.9139
21.9139
21.9139
21.9139
21.9139
21.9139
21.9139
21.9139
21.9139
21.9139
21.9139
21.9139
21.9139
21.9139
21.9139
21.9139
21.9139
21.9139
21.9139
21.9139
21.9139
21.9139
21.9139
21.9139
21.9139
21.9139
21.9139
21.9139
21.9139
21.9139
21.9139
21.9139
21.9139
21.9139
21.9139
21.9139
21.9139
21.9139
21.9139
21.9139
21.9139
21.9139
21.9139
21.9139
21.9139
21.9139
21.9139
21.9139
21.9139
21.9139
21.9139
21.9139
21.9139
21.9139
21.9139
21.9139
21.9139
21.9139
21.9139
21.9139
21.9139
21.9139
21.9139
21.9139
21.9139
21.9139
21.9139
21.9139
21.9139
21.9139
21.9139
21.914
21.914
21.914
21.914
21.914
21.914
21.914
21.914
21.914
21.9141
21.9141
21.9141
21.9141
21.9142
21.9142
21.9142
21.9143
21.9144
21.9144
21.9145
21.9146
21.9146
21.9147
21.9148
21.9149
21.915
21.9151
21.9152
21.9153
21.9154
21.9156
21.9158
21.916
21.9161
21.9163
21.9165
21.9166
21.9168
21.9169
21.9171
21.9172
21.9173
21.9174
21.9174
21.9175
21.9176
21.9176
21.9177
21.9177
21.9177
21.9178
21.9178
21.9178
21.9178
21.9179
21.9179
21.9179
21.918
21.918
21.9181
21.9181
21.9181
21.9181
21.9181
21.9181
21.9181
21.9181
21.918
21.918
21.9179
21.9178
21.9177
21.9176
21.9175
21.9173
21.9172
21.9171
21.9169
21.9168
21.9166
21.9165
21.9163
21.9161
21.916
21.9158
21.9157
21.9156
21.9154
21.9153
21.9152
21.915
21.9149
21.9148
21.9147
21.9145
21.9144
21.9144
21.9143
21.9142
21.9142
21.9141
21.9141
21.9141
21.914
21.914
21.914
21.914
21.914
21.9139
21.9139
21.9139
21.9139
21.9139
21.9139
21.9139
21.9139
21.9139
21.9139
21.9139
21.9139
21.9139
21.9139
21.9139
21.9139
21.9139
21.9139
21.9139
21.9139
21.9139
21.9139
21.9139
21.9139
21.9139
21.9139
21.9139
21.9139
21.9139
21.9139
21.9139
21.9139
21.9139
21.9139
21.9139
21.9139
21.9139
21.9139
21.9139
21.9139
21.9139
21.9139
21.9139
21.9139
21.9139
21.9139
21.9139
21.9139
21.9139
21.9139
21.9139
21.9139
21.9139
21.9139
21.9139
21.9139
21.9139
21.9139
21.9139
21.9139
21.9139
21.9139
21.9139
21.9139
21.9139
21.9139
21.9139
21.9139
21.9139
21.9139
21.9139
21.9139
21.9139
21.9139
21.9139
21.9139
21.9139
21.9139
21.9139
21.9139
21.9139
21.9139
21.9139
21.9139
21.9139
21.9139
21.9139
21.914
21.914
21.914
21.914
21.914
21.914
21.914
21.9141
21.9141
21.9141
21.9141
21.9142
21.9142
21.9143
21.9143
21.9144
21.9144
21.9145
21.9146
21.9147
21.9148
21.9149
21.915
21.9152
21.9153
21.9155
21.9157
21.916
21.9163
21.9166
21.917
21.9175
21.9179
21.9184
21.9189
21.9194
21.9199
21.9204
21.921
21.9217
21.9225
21.9233
21.9243
21.9253
21.9264
21.9274
21.9285
21.9295
21.9305
21.9314
21.9323
21.933
21.9337
21.9343
21.9349
21.9354
21.9358
21.9362
21.9366
21.9369
21.9372
21.9374
21.9376
21.9378
21.9379
21.9381
21.9383
21.9384
21.9386
21.9388
21.9391
21.9393
21.9395
21.9396
21.9397
21.9397
21.9397
21.9395
21.9393
21.939
21.9387
21.9382
21.9377
21.9371
21.9365
21.9358
21.935
21.9342
21.9333
21.9325
21.9316
21.9307
21.9298
21.9289
21.928
21.9271
21.9262
21.9253
21.9244
21.9235
21.9227
21.9218
21.921
21.9201
21.9194
21.9186
21.9179
21.9173
21.9168
21.9164
21.916
21.9157
21.9154
21.9152
21.915
21.9148
21.9146
21.9145
21.9144
21.9143
21.9142
21.9141
21.9141
21.914
21.914
21.914
21.914
21.914
21.9139
21.9139
21.9139
21.9139
21.9139
21.9139
21.9139
21.9139
21.9139
21.9139
21.9139
21.9139
21.9139
21.9139
21.9139
21.9139
21.9139
21.9139
21.9139
21.9139
21.9139
21.9139
21.9139
21.9139
21.9139
21.9139
21.9139
21.9139
21.9139
21.9139
21.9139
21.9139
21.9139
21.9139
21.9139
21.9139
21.9139
21.9139
21.9139
21.9139
21.9139
21.9139
21.9139
21.9139
21.9139
21.9139
21.9139
21.9139
21.9139
21.9139
21.9139
21.9139
21.9139
21.9139
21.9139
21.9139
21.9139
21.9139
21.9139
21.9139
21.9139
21.9139
21.9139
21.9139
21.9139
21.9139
21.9139
21.9139
21.9139
21.9139
21.9139
21.9139
21.9139
21.9139
21.9139
21.9139
21.9139
21.9139
21.9139
21.9143
21.9144
21.9144
21.9145
21.9145
21.9146
21.9147
21.9148
21.915
21.9151
21.9153
21.9155
21.9157
21.9159
21.9162
21.9165
21.9168
21.9173
21.9178
21.9184
21.9191
21.9198
21.9206
21.9214
21.9224
21.9235
21.9247
21.9262
21.928
21.93
21.9323
21.9348
21.9375
21.9403
21.9432
21.9461
21.9491
21.9522
21.9557
21.9599
21.9647
21.9703
21.9765
21.983
21.9897
21.9964
22.003
22.0093
22.0153
22.0208
22.0259
22.0305
22.0347
22.0385
22.0418
22.0449
22.0476
22.05
22.0521
22.054
22.0557
22.0572
22.0585
22.0597
22.0607
22.0617
22.0626
22.0635
22.0644
22.0654
22.0663
22.0673
22.0681
22.0687
22.069
22.069
22.0686
22.0678
22.0665
22.0648
22.0627
22.0602
22.0573
22.0541
22.0504
22.0464
22.0421
22.0376
22.0329
22.0281
22.0231
22.018
22.0129
22.0076
22.0023
21.997
21.9917
21.9863
21.9809
21.9755
21.9701
21.9647
21.9593
21.9539
21.9487
21.9438
21.9393
21.9354
21.9321
21.9293
21.927
21.925
21.9234
21.9219
21.9206
21.9194
21.9183
21.9175
21.9168
21.9162
21.9158
21.9154
21.9151
21.9148
21.9146
21.9145
21.9143
21.9142
21.9142
21.9141
21.9141
21.914
21.914
21.914
21.914
21.9139
21.9139
21.9139
21.9139
21.9139
21.9139
21.9139
21.9139
21.9139
21.9139
21.9139
21.9139
21.9139
21.9139
21.9139
21.9139
21.9139
21.9139
21.9139
21.9139
21.9139
21.9139
21.9139
21.9139
21.9139
21.9139
21.9139
21.9139
21.9139
21.9139
21.9139
21.9139
21.9139
21.9139
21.9139
21.9139
21.9139
21.9139
21.9139
21.9139
21.9139
21.9139
21.9139
21.9139
21.9139
21.9139
21.9139
21.9139
21.9139
21.9139
21.9139
21.9139
21.9139
21.9139
21.9139
21.9139
21.9139
21.9139
21.9139
21.9139
21.9139
21.9139
21.9139
21.9139
21.9139
21.9139
21.9139
21.9139
21.9139
21.9139
21.9139
21.9161
21.9164
21.9167
21.917
21.9174
21.9179
21.9185
21.9192
21.9199
21.9208
21.9218
21.9228
21.924
21.9253
21.9268
21.9286
21.9307
21.9332
21.936
21.9394
21.9431
21.9472
21.9516
21.9565
21.9618
21.9681
21.9756
21.9847
21.9956
22.0081
22.022
22.0372
22.0531
22.0696
22.0865
22.1034
22.1205
22.1385
22.1587
22.1826
22.2107
22.2426
22.2775
22.3146
22.3527
22.391
22.4285
22.4645
22.4985
22.5302
22.5592
22.5857
22.6098
22.6317
22.6517
22.6699
22.6864
22.7013
22.7148
22.727
22.7381
22.748
22.757
22.7652
22.7726
22.7792
22.7853
22.7908
22.7957
22.8003
22.8046
22.8085
22.8118
22.8143
22.816
22.8162
22.8141
22.8098
22.803
22.7938
22.7823
22.7686
22.7527
22.7347
22.7146
22.6928
22.6695
22.6448
22.6191
22.5925
22.565
22.5368
22.5079
22.4782
22.4477
22.4166
22.3848
22.3525
22.3198
22.2866
22.2532
22.2197
22.1864
22.1534
22.1214
22.0914
22.0649
22.0424
22.0239
22.0085
21.9955
21.9842
21.9742
21.965
21.9565
21.9488
21.942
21.9364
21.9318
21.9282
21.9254
21.9232
21.9213
21.9198
21.9185
21.9174
21.9166
21.916
21.9156
21.9152
21.9149
21.9147
21.9145
21.9143
21.9142
21.9141
21.9141
21.914
21.914
21.914
21.914
21.9139
21.9139
21.9139
21.9139
21.9139
21.9139
21.9139
21.9139
21.9139
21.9139
21.9139
21.9139
21.9139
21.9139
21.9139
21.9139
21.9139
21.9139
21.9139
21.9139
21.9139
21.9139
21.9139
21.9139
21.9139
21.9139
21.9139
21.9139
21.9139
21.9139
21.9139
21.9139
21.9139
21.9139
21.9139
21.9139
21.9139
21.9139
21.9139
21.9139
21.9139
21.9139
21.9139
21.9139
21.9139
21.9139
21.9139
21.9139
21.9139
21.9139
21.9139
21.9139
21.9139
21.9139
21.9139
21.9139
21.9139
21.9139
21.9139
21.9139
21.9139
21.9139
21.9139
21.9139
21.9139
21.929
21.931
21.9332
21.9359
21.939
21.9426
21.9468
21.9514
21.9566
21.9624
21.9687
21.9758
21.9841
21.9941
22.0063
22.0209
22.0381
22.0575
22.0791
22.1026
22.1279
22.1549
22.1849
22.2197
22.262
22.3131
22.3736
22.443
22.5203
22.6041
22.6925
22.7841
22.8772
22.9707
23.0647
23.1631
23.2774
23.419
23.5907
23.7871
24.0002
24.2219
24.4457
24.6665
24.8804
25.0841
25.2752
25.452
25.6136
25.7604
25.894
26.0158
26.1272
26.2288
26.3213
26.405
26.4811
26.5506
26.6142
26.6722
26.7251
26.7735
26.818
26.8583
26.8939
26.9247
26.9503
26.9708
26.987
27.0011
27.0127
27.021
27.0246
27.019
27.0044
26.9812
26.9452
26.8975
26.8398
26.7726
26.6953
26.6072
26.5088
26.4012
26.2855
26.1626
26.0331
25.8972
25.7551
25.607
25.4527
25.2918
25.1241
24.9498
24.7692
24.5828
24.391
24.1942
23.993
23.7886
23.5825
23.3765
23.1735
22.9829
22.8162
22.6785
22.5678
22.478
22.4027
22.3367
22.2769
22.2215
22.1696
22.1222
22.0812
22.048
22.0222
22.0021
21.9861
21.9728
21.9614
21.9514
21.943
21.9363
21.9311
21.9272
21.9243
21.922
21.9202
21.9187
21.9175
21.9167
21.916
21.9155
21.9152
21.9149
21.9146
21.9144
21.9143
21.9142
21.9141
21.9141
21.914
21.914
21.914
21.914
21.914
21.9139
21.9139
21.9139
21.9139
21.9139
21.9139
21.9139
21.9139
21.9139
21.9139
21.9139
21.9139
21.9139
21.9139
21.9139
21.9139
21.9139
21.9139
21.9139
21.9139
21.9139
21.9139
21.9139
21.9139
21.9139
21.9139
21.9139
21.9139
21.9139
21.9139
21.9139
21.9139
21.9139
21.9139
21.9139
21.9139
21.9139
21.9139
21.9139
21.9139
21.9139
21.914
21.914
21.914
21.9139
21.9139
21.9139
21.9139
21.9139
21.9139
21.9139
21.9139
21.9139
21.9139
21.9139
21.9139
21.9928
22.0031
22.0153
22.03
22.0476
22.0681
22.0915
22.1176
22.1463
22.1776
22.2116
22.2496
22.2943
22.3485
22.4143
22.4927
22.5839
22.6876
22.8026
22.9278
23.062
23.2057
23.3636
23.5522
23.7905
24.087
24.439
24.8374
25.272
25.7324
26.209
26.6933
27.1785
27.6596
28.1354
28.6262
29.1959
29.8965
30.7242
31.6513
32.6447
33.6712
34.7019
35.7149
36.6935
37.6244
38.498
39.3073
40.0488
40.7276
41.3533
41.9332
42.4729
42.9759
43.4424
43.8732
44.2735
44.6496
45.0033
45.3326
45.6388
45.9265
46.1976
46.4484
46.6745
46.8742
47.0437
47.1804
47.2915
47.3798
47.4526
47.5124
47.5461
47.5507
47.515
47.4393
47.3133
47.1296
46.8975
46.6173
46.2886
45.9117
45.4873
45.0167
44.5008
43.9419
43.3426
42.7037
42.0263
41.311
40.5552
39.7561
38.9119
38.0236
37.0947
36.1295
35.1318
34.1035
33.0483
31.9727
30.8839
29.7897
28.7085
27.7173
26.8908
26.2303
25.6967
25.2471
24.8494
24.4833
24.137
23.8045
23.4846
23.1847
22.9242
22.7161
22.5585
22.4394
22.3456
22.2671
22.1985
22.1381
22.0875
22.0481
22.0187
21.9968
21.9797
21.9658
21.9541
21.9445
21.9369
21.9313
21.9272
21.9242
21.9218
21.92
21.9185
21.9174
21.9165
21.9159
21.9155
21.9152
21.9149
21.9147
21.9145
21.9143
21.9143
21.9142
21.9141
21.9141
21.9141
21.914
21.914
21.914
21.914
21.914
21.914
21.914
21.914
21.914
21.9139
21.9139
21.9139
21.9139
21.9139
21.9139
21.9139
21.9139
21.9139
21.9139
21.9139
21.9139
21.9139
21.9139
21.9139
21.9139
21.914
21.914
21.914
21.914
21.914
21.914
21.9141
21.9141
21.9141
21.9142
21.9142
21.9143
21.9144
21.9144
21.9144
21.9139
21.9139
21.9139
21.9139
21.9139
21.9139
21.9139
21.9139
21.9139
21.9139
22.3249
22.3781
22.4416
22.5177
22.6077
22.7123
22.8315
22.9646
23.1109
23.2697
23.4422
23.6348
23.8667
24.1586
24.5212
24.9544
25.4518
26.005
26.605
27.2436
27.9148
28.6175
29.377
30.2773
31.4007
32.763
34.3426
36.102
37.9998
39.9951
42.0492
44.1314
46.2172
48.2859
50.3269
52.3721
55.0074
58.9675
64.0162
69.7608
75.9258
82.3258
88.8216
95.3178
101.729
107.965
113.961
119.657
124.982
129.95
134.622
139.012
143.118
146.976
150.602
153.974
157.1
160.06
162.897
165.587
168.127
170.599
173.028
175.344
177.491
179.424
181.073
182.372
183.442
184.367
185.17
185.809
186.231
186.552
186.601
186.256
185.757
185.078
184.136
182.985
181.554
179.693
177.463
174.948
172.132
168.962
165.444
161.58
157.294
152.593
147.507
141.977
136.015
129.693
122.964
115.829
108.425
100.744
92.7796
84.6807
76.5528
68.462
60.4271
53.3906
48.2257
44.553
41.8045
39.5511
37.5434
35.6603
33.8492
32.0895
30.3809
28.7773
27.429
26.4009
25.6324
25.0316
24.5281
24.08
23.6671
23.2893
22.9675
22.7192
22.5393
22.4088
22.3086
22.226
22.1555
22.0974
22.0528
22.0205
21.9971
21.9793
21.965
21.9531
21.9435
21.9361
21.9307
21.9269
21.9241
21.9219
21.9201
21.9187
21.9176
21.9168
21.9162
21.9158
21.9155
21.9153
21.9151
21.9149
21.9148
21.9147
21.9145
21.9145
21.9144
21.9143
21.9143
21.9142
21.9142
21.9142
21.9142
21.9142
21.9142
21.9142
21.9142
21.9142
21.9142
21.9142
21.9142
21.9142
21.9142
21.9142
21.9142
21.9143
21.9143
21.9144
21.9145
21.9147
21.9148
21.915
21.9152
21.9154
21.9157
21.9161
21.9166
21.9171
21.9176
21.9182
21.9181
21.9139
21.9139
21.914
21.914
21.914
21.914
21.914
21.914
21.914
24.195
24.52
24.9183
25.3911
25.934
26.5403
27.2025
27.9137
28.6696
29.4728
30.3559
31.4098
32.7131
34.2864
36.12
38.1905
40.467
42.917
45.5119
48.2314
51.0732
54.0722
57.9779
63.8422
71.5429
80.6809
90.9117
101.99
113.735
125.958
138.462
151.156
163.97
176.699
189.284
201.138
211.519
220.687
228.886
236.165
242.503
247.999
252.813
257.031
260.701
263.81
266.459
268.613
270.49
272.358
274.172
275.818
277.317
278.678
279.863
280.895
281.868
282.775
283.504
284.043
284.542
285.084
285.566
285.882
286.047
286.22
286.366
286.391
286.375
286.333
286.141
285.943
285.657
285.258
284.994
284.332
283.475
282.903
282.146
280.947
279.718
278.548
277.233
275.565
273.665
271.692
269.517
266.96
264.176
261.157
257.982
254.794
251.415
247.742
243.974
239.91
235.347
230.527
225.221
219.052
211.965
203.898
194.325
182.93
170.22
156.747
142.865
128.811
114.802
100.894
87.1832
73.8601
61.3659
51.7921
45.5364
41.4009
38.3593
35.8286
33.533
31.3677
29.3571
27.6762
26.4347
25.5483
24.8785
24.3262
23.8401
23.4047
23.0354
22.7536
22.5548
22.4147
22.3093
22.2236
22.1514
22.0928
22.049
22.0181
21.9961
21.9795
21.9661
21.9548
21.9454
21.938
21.9326
21.9289
21.9263
21.9244
21.9229
21.9216
21.9206
21.9196
21.9188
21.9182
21.9176
21.9171
21.9168
21.9165
21.9163
21.9162
21.9161
21.916
21.9159
21.9158
21.9158
21.9158
21.9157
21.9157
21.9157
21.9157
21.9158
21.9158
21.916
21.9162
21.9166
21.9171
21.9178
21.9187
21.9197
21.9207
21.922
21.9235
21.9256
21.9283
21.9318
21.9356
21.9397
21.9438
21.9487
21.9481
21.9141
21.9141
32.4866
33.8621
35.4958
37.3846
39.5153
41.8679
44.4183
47.1437
50.0314
53.0903
56.3838
60.8091
67.2485
75.6079
85.5828
96.9254
109.447
122.962
137.331
152.471
168.162
184.259
200.03
214.561
228.093
240.757
252.505
263.245
272.881
281.28
288.449
294.616
299.621
303.489
306.641
309.323
311.828
314.253
316.473
318.378
319.992
321.227
321.905
322.237
322.448
322.407
322.077
321.544
320.822
320.032
319.316
318.7
317.76
316.852
316.167
315.711
314.932
314.142
313.552
313.135
312.411
311.729
311.212
310.76
310.364
309.892
309.171
308.445
307.826
307.238
306.784
306.393
305.642
304.799
304.144
303.729
302.985
302.176
301.598
300.806
299.9
299.286
298.49
297.321
296.251
295.299
294.466
293.864
292.901
291.681
290.598
289.255
287.833
286.781
285.615
284.106
283.025
281.998
280.435
278.776
277.368
275.835
273.714
270.606
266.154
260.431
253.485
246.095
238.648
231.132
223.319
214.388
203.529
189.603
172.867
154.625
135.961
117.389
99.2795
81.9704
65.9448
53.4757
45.7161
40.9382
37.5781
34.8132
32.3138
30.0182
28.0703
26.6392
25.6479
24.9249
24.3436
23.8388
23.3911
23.0163
22.7371
22.5457
22.4136
22.3148
22.2341
22.165
22.1071
22.0624
22.031
22.0097
21.9947
21.9831
21.9736
21.9655
21.9585
21.9525
21.9473
21.9428
21.939
21.9357
21.9331
21.9312
21.9298
21.9289
21.9283
21.9278
21.9274
21.927
21.9267
21.9265
21.9264
21.9264
21.9264
21.9265
21.9268
21.9273
21.9285
21.9306
21.9337
21.9381
21.9437
21.9503
21.9578
21.9659
21.9748
21.9862
22.0023
22.0239
22.0505
22.0803
22.1116
22.1422
22.1791
22.1783
63.0008
69.3738
77.5112
87.1685
98.1475
110.307
123.498
137.593
152.536
168.175
184.396
200.327
215.238
229.295
242.696
255.525
267.601
278.684
288.735
297.72
305.581
312.389
318.031
322.351
325.538
328.239
330.876
333.299
335.389
337.186
338.661
339.835
340.667
341.042
340.775
340.083
339.433
338.585
337.497
336.429
335.448
334.332
333.181
332.224
331.216
329.941
328.737
327.728
326.445
325.18
324.319
323.605
322.483
321.473
320.743
320.266
319.401
318.488
317.834
317.386
316.596
315.782
315.169
314.635
314.197
313.714
312.919
312.156
311.551
310.984
310.549
310.181
309.402
308.549
307.88
307.478
306.76
305.92
305.344
304.609
303.728
303.135
302.319
301.16
300.183
299.325
298.574
298.028
297.119
296.074
295.196
293.939
292.554
291.543
290.51
289.151
288.041
287.175
286.414
285.693
285.032
284.409
283.775
283.243
282.795
281.983
281.246
280.355
278.751
276.655
274.216
271.576
268.772
265.338
260.544
254.208
247.064
239.389
230.992
220.969
208.728
193.171
174.012
152.852
131.057
109.592
89.4067
71.0933
56.1969
46.9906
41.5636
37.9088
34.98
32.3722
30.0062
28.0235
26.6027
25.6449
24.956
24.4038
23.9247
23.4973
23.1261
22.8352
22.6352
22.5046
22.4145
22.3455
22.2879
22.2382
22.1949
22.1574
22.1252
22.0976
22.0741
22.0543
22.0383
22.0268
22.0191
22.0139
22.0101
22.0071
22.0047
22.0026
22.001
21.9999
21.9995
21.9996
22.0001
22.001
22.0031
22.0078
22.0168
22.0321
22.0551
22.0869
22.1275
22.1756
22.2296
22.2874
22.3498
22.435
22.5662
22.749