/*--------------------------------*- C++ -*----------------------------------*\
| =========                 |                                                 |
| \\      /  F ield         | OpenFOAM: The Open Source CFD Toolbox           |
|  \\    /   O peration     | Version:  v1706                                 |
|   \\  /    A nd           | Web:      www.OpenFOAM.com                      |
|    \\/     M anipulation  |                                                 |
\*---------------------------------------------------------------------------*/
FoamFile
{
    version     2.0;
    format      ascii;
    class       volScalarField;
    location    "3.3e-05";
    object      Tov;
}
// * * * * * * * * * * * * * * * * * * * * * * * * * * * * * * * * * * * * * //

dimensions      [0 0 0 1 0 0 0];


internalField   nonuniform List<scalar> 
30104
(
144.4
144.4
144.4
144.4
144.4
144.4
144.4
144.4
144.4
144.4
144.4
144.4
144.4
144.4
144.4
144.4
144.4
144.4
144.4
144.4
144.4
144.4
144.4
144.4
144.4
144.4
144.4
144.4
144.4
144.4
144.4
144.4
144.4
144.4
144.4
144.4
144.4
144.4
144.4
144.4
144.4
144.4
144.4
144.4
144.4
144.4
144.4
144.4
144.4
144.4
144.4
144.4
144.4
144.4
144.4
144.4
144.4
144.4
144.4
144.4
144.4
144.4
144.4
144.4
144.4
144.4
144.4
144.4
144.4
144.4
144.4
144.4
144.4
144.4
144.4
144.4
144.4
144.4
144.4
144.4
144.4
144.4
144.4
144.4
144.4
144.4
144.4
144.4
144.4
144.4
144.4
144.4
144.4
144.4
144.4
144.4
144.4
144.4
144.4
144.4
144.4
144.4
144.4
144.4
144.4
144.4
144.4
144.4
144.4
144.4
144.4
144.4
144.4
144.4
144.4
144.4
144.4
144.4
144.4
144.4
144.4
144.4
144.4
144.4
144.4
144.4
144.4
144.4
144.4
144.4
144.4
144.4
144.4
144.4
144.4
144.4
144.4
144.4
144.4
144.4
144.4
144.4
144.4
144.4
144.4
144.4
144.4
144.4
144.4
144.4
144.4
144.4
144.4
144.4
144.4
144.4
144.4
144.4
144.4
144.4
144.4
144.4
144.4
144.4
144.4
144.4
144.4
144.4
144.4
144.4
144.4
144.4
144.4
144.4
144.4
144.4
144.4
144.4
144.4
144.4
144.4
144.4
144.4
144.4
144.4
144.4
144.4
144.4
144.4
144.4
144.4
144.4
144.4
144.4
144.4
144.4
144.4
144.4
144.4
144.4
144.4
144.4
144.4
144.4
144.4
144.4
144.4
144.4
144.4
144.4
144.4
144.4
144.4
144.4
144.4
144.4
144.4
144.4
144.4
144.4
144.4
144.4
144.4
144.4
144.4
144.4
144.4
144.4
144.4
144.4
144.4
144.4
144.4
144.4
144.4
144.4
144.4
144.4
144.4
144.4
144.4
144.4
144.4
144.4
144.4
144.4
144.4
144.4
144.4
144.4
144.4
144.4
144.4
144.4
144.4
144.4
144.4
144.4
144.4
144.4
144.4
144.4
144.4
144.4
144.4
144.4
144.4
144.4
144.4
144.4
144.4
144.4
144.4
144.4
144.4
144.4
144.4
144.4
144.4
144.4
144.4
144.4
144.4
144.4
144.4
144.4
144.4
144.4
144.4
144.4
144.4
144.4
144.4
144.4
144.4
144.4
144.4
144.4
144.4
144.4
144.4
144.4
144.4
144.4
144.4
144.4
144.4
144.4
144.4
144.4
144.4
144.4
144.4
144.4
144.4
144.4
144.4
144.4
144.4
144.4
144.4
144.4
144.4
144.4
144.4
144.4
144.4
144.4
144.4
144.4
144.4
144.4
144.4
144.4
144.4
144.4
144.4
144.4
144.4
144.4
144.4
144.4
144.4
144.4
144.4
144.4
144.4
144.4
144.4
144.4
144.4
144.4
144.4
144.4
144.4
144.4
144.4
144.4
144.4
144.4
144.4
144.4
144.4
144.4
144.4
144.4
144.4
144.4
144.4
144.4
144.4
144.4
144.4
144.4
144.4
144.4
144.4
144.4
144.4
144.4
144.4
144.4
144.4
144.4
144.4
144.4
144.4
144.4
144.4
144.4
144.4
144.4
144.4
144.4
144.4
144.4
144.4
144.4
144.4
144.4
144.4
144.4
144.4
144.4
144.4
144.4
144.4
144.4
144.4
144.4
144.4
144.4
144.4
144.4
144.4
144.4
144.4
144.4
144.4
144.4
144.4
144.4
144.4
144.4
144.4
144.4
144.4
144.4
144.4
144.4
144.4
144.4
144.4
144.4
144.4
144.4
144.4
144.4
144.4
144.4
144.4
144.4
144.4
144.4
144.4
144.4
144.4
144.4
144.4
144.4
144.4
144.4
144.4
144.4
144.4
144.4
144.4
144.4
144.4
144.4
144.4
144.4
144.4
144.4
144.4
144.4
144.4
144.4
144.4
144.4
144.4
144.4
144.4
144.4
144.4
144.4
144.4
144.4
144.4
144.4
144.4
144.4
144.4
144.4
144.4
144.4
144.4
144.4
144.4
144.4
144.4
144.4
144.4
144.4
144.4
144.4
144.4
144.4
144.4
144.4
144.4
144.4
144.4
144.4
144.4
144.4
144.4
144.4
144.4
144.4
144.4
144.4
144.4
144.4
144.4
144.4
144.4
144.4
144.4
144.4
144.4
144.4
144.4
144.4
144.4
144.4
144.4
144.4
144.4
144.4
144.4
144.4
144.4
144.4
144.4
144.4
144.4
144.4
144.4
144.4
144.4
144.4
144.4
144.4
144.4
144.4
144.4
144.4
144.4
144.4
144.4
144.4
144.4
144.4
144.4
144.4
144.4
144.4
144.4
144.4
144.4
144.4
144.4
144.4
144.4
144.4
144.4
144.4
144.4
144.4
144.4
144.4
144.4
144.4
144.4
144.4
144.4
144.4
144.4
144.4
144.4
144.4
144.4
144.4
144.4
144.4
144.4
144.4
144.4
144.4
144.4
144.4
144.4
144.4
144.4
144.4
144.4
144.4
144.4
144.4
144.4
144.4
144.4
144.4
144.4
144.4
144.4
144.4
144.4
144.4
144.4
144.4
144.4
144.4
144.4
144.4
144.4
144.4
144.4
144.4
144.4
144.4
144.4
144.4
144.4
144.4
144.4
144.4
144.4
144.4
144.4
144.4
144.4
144.4
144.4
144.4
144.4
144.4
144.4
144.4
144.4
144.4
144.4
144.4
144.4
144.4
144.4
144.4
144.4
144.4
144.4
144.4
144.4
144.4
144.4
144.4
144.4
144.4
144.4
144.4
144.4
144.4
144.4
144.4
144.4
144.4
144.4
144.4
144.4
144.4
144.4
144.4
144.4
144.4
144.4
144.4
144.4
144.4
144.4
144.4
144.4
144.4
144.4
144.4
144.4
144.4
144.4
144.4
144.4
144.4
144.4
144.4
144.4
144.4
144.4
144.4
144.4
144.4
144.4
144.4
144.4
144.4
144.4
144.4
144.4
144.4
144.4
144.4
144.4
144.4
144.4
144.4
144.4
144.4
144.4
144.4
144.4
144.4
144.4
144.4
144.4
144.4
144.4
144.4
144.4
144.4
144.4
144.4
144.4
144.4
144.4
144.4
144.4
144.4
144.4
144.4
144.4
144.4
144.4
144.4
144.4
144.4
144.4
144.4
144.4
144.4
144.4
144.4
144.4
144.4
144.4
144.4
144.4
144.4
144.4
144.4
144.4
144.4
144.4
144.4
144.4
144.4
144.4
144.4
144.4
144.4
144.4
144.4
144.4
144.4
144.4
144.4
144.4
144.4
144.4
144.4
144.4
144.4
144.4
144.4
144.4
144.4
144.4
144.4
144.4
144.4
144.4
144.4
144.4
144.4
144.4
144.4
144.4
144.4
144.4
144.4
144.4
144.4
144.4
144.4
144.4
144.4
144.4
144.4
144.4
144.4
144.4
144.4
144.4
144.4
144.4
144.4
144.4
144.4
144.4
144.4
144.4
144.4
144.4
144.4
144.4
144.4
144.4
144.4
144.4
144.4
144.4
144.4
144.4
144.4
144.4
144.4
144.4
144.4
144.4
144.4
144.4
144.4
144.4
144.4
144.4
144.4
144.4
144.4
144.4
144.4
144.4
144.4
144.4
144.4
144.4
144.4
144.4
144.4
144.4
144.4
144.4
144.4
144.4
144.4
144.4
144.4
144.4
144.4
144.4
144.4
144.4
144.4
144.4
144.4
144.4
144.4
144.4
144.4
144.4
144.4
144.4
144.4
144.4
144.4
144.4
144.4
144.4
144.4
144.4
144.4
144.4
144.4
144.4
144.4
144.4
144.4
144.4
144.4
144.4
144.4
144.4
144.4
144.4
144.4
144.4
144.4
144.4
144.4
144.4
144.4
144.4
144.4
144.4
144.4
144.4
144.4
144.4
144.4
144.4
144.4
144.4
144.4
144.4
144.4
144.4
144.4
144.4
144.4
144.4
144.4
144.4
144.4
144.4
144.4
144.4
144.4
144.4
144.4
144.4
144.4
144.4
144.4
144.4
144.4
144.4
144.4
144.4
144.4
144.4
144.4
144.4
144.4
144.4
144.4
144.4
144.4
144.4
144.4
144.4
144.4
144.4
144.4
144.4
144.4
144.4
144.4
144.4
144.4
144.4
144.4
144.4
144.4
144.4
144.4
144.4
144.4
144.4
144.4
144.4
144.4
144.4
144.4
144.4
144.4
144.4
144.4
144.4
144.4
144.4
144.4
144.4
144.4
144.4
144.4
144.4
144.4
144.4
144.4
144.4
144.4
144.4
144.4
144.4
144.4
144.4
144.4
144.4
144.4
144.4
144.4
144.4
144.4
144.4
144.4
144.4
144.4
144.4
144.4
144.4
144.4
144.4
144.4
144.4
144.4
144.4
144.4
144.4
144.4
144.4
144.4
144.4
144.4
144.4
144.4
144.4
144.4
144.4
144.4
144.4
144.4
144.4
144.4
144.4
144.4
144.4
144.4
144.4
144.4
144.4
144.4
144.4
144.4
144.4
144.4
144.4
144.4
144.4
144.4
144.4
144.4
144.4
144.4
144.4
144.4
144.4
144.4
144.4
144.4
144.4
144.4
144.4
144.4
144.4
144.4
144.4
144.4
144.4
144.4
144.4
144.4
144.4
144.4
144.4
144.4
144.4
144.4
144.4
144.4
144.4
144.4
144.4
144.4
144.4
144.4
144.4
144.4
144.4
144.4
144.4
144.4
144.4
144.4
144.4
144.4
144.4
144.4
144.4
144.4
144.4
144.4
144.4
144.4
144.4
144.4
144.4
144.4
144.4
144.4
144.4
144.4
144.4
144.4
144.4
144.4
144.4
144.4
144.4
144.4
144.4
144.4
144.4
144.4
144.4
144.4
144.4
144.4
144.4
144.4
144.4
144.4
144.4
144.4
144.4
144.4
144.4
144.4
144.4
144.4
144.4
144.4
144.4
144.4
144.4
144.4
144.4
144.4
144.4
144.4
144.4
144.4
144.4
144.4
144.4
144.4
144.4
144.4
144.4
144.4
144.4
144.4
144.4
144.4
144.4
144.4
144.4
144.4
144.4
144.4
144.4
144.4
144.4
144.4
144.4
144.4
144.4
144.4
144.4
144.4
144.4
144.4
144.4
144.4
144.4
144.4
144.4
144.4
144.4
144.4
144.4
144.4
144.4
144.4
144.4
144.4
144.4
144.4
144.4
144.4
144.4
144.4
144.4
144.4
144.4
144.4
144.4
144.4
144.4
144.4
144.4
144.4
144.4
144.4
144.4
144.4
144.4
144.4
144.4
144.4
144.4
144.4
144.4
144.4
144.4
144.4
144.4
144.4
144.4
144.4
144.4
144.4
144.4
144.4
144.4
144.4
144.4
144.4
144.4
144.4
144.4
144.4
144.4
144.4
144.4
144.4
144.4
144.4
144.4
144.4
144.4
144.4
144.4
144.4
144.4
144.4
144.4
144.4
144.4
144.4
144.4
144.4
144.4
144.4
144.4
144.4
144.4
144.4
144.4
144.4
144.4
144.4
144.4
144.4
144.4
144.4
144.4
144.4
144.4
144.4
144.4
144.4
144.4
144.4
144.4
144.4
144.4
144.4
144.4
144.4
144.4
144.4
144.4
144.4
144.4
144.4
144.4
144.4
144.4
144.4
144.4
144.4
144.4
144.4
144.4
144.4
144.4
144.4
144.4
144.4
144.4
144.4
144.4
144.4
144.4
144.4
144.4
144.4
144.4
144.4
144.4
144.4
144.4
144.4
144.4
144.4
144.4
144.4
144.4
144.4
144.4
144.401
144.401
144.401
144.401
144.401
144.401
144.401
144.401
144.401
144.401
144.401
144.401
144.401
144.401
144.4
144.4
144.4
144.4
144.4
144.4
144.4
144.4
144.4
144.4
144.4
144.4
144.4
144.4
144.4
144.4
144.4
144.4
144.4
144.4
144.4
144.4
144.4
144.4
144.4
144.4
144.4
144.4
144.4
144.4
144.4
144.4
144.4
144.4
144.4
144.4
144.4
144.4
144.4
144.4
144.4
144.4
144.4
144.4
144.4
144.4
144.4
144.4
144.4
144.4
144.4
144.4
144.4
144.4
144.4
144.4
144.4
144.4
144.4
144.4
144.4
144.4
144.4
144.4
144.4
144.4
144.4
144.4
144.4
144.4
144.4
144.4
144.4
144.4
144.4
144.4
144.4
144.4
144.4
144.4
144.4
144.4
144.4
144.4
144.4
144.4
144.4
144.4
144.4
144.4
144.4
144.4
144.4
144.4
144.4
144.4
144.4
144.4
144.4
144.4
144.4
144.4
144.4
144.4
144.4
144.4
144.4
144.4
144.4
144.4
144.4
144.4
144.4
144.4
144.4
144.4
144.4
144.4
144.4
144.4
144.4
144.4
144.4
144.4
144.4
144.4
144.4
144.4
144.4
144.4
144.4
144.4
144.4
144.4
144.4
144.4
144.4
144.4
144.4
144.4
144.4
144.4
144.4
144.4
144.4
144.4
144.4
144.4
144.4
144.4
144.4
144.4
144.4
144.4
144.4
144.4
144.4
144.401
144.401
144.401
144.401
144.401
144.401
144.401
144.401
144.401
144.401
144.401
144.402
144.402
144.402
144.402
144.402
144.402
144.402
144.402
144.403
144.403
144.403
144.403
144.403
144.403
144.403
144.403
144.403
144.403
144.403
144.403
144.403
144.403
144.403
144.403
144.403
144.403
144.403
144.403
144.403
144.403
144.403
144.403
144.403
144.403
144.403
144.403
144.403
144.403
144.403
144.403
144.403
144.403
144.403
144.403
144.403
144.402
144.402
144.402
144.402
144.402
144.402
144.402
144.402
144.401
144.401
144.401
144.401
144.401
144.401
144.401
144.401
144.401
144.401
144.4
144.4
144.4
144.4
144.4
144.4
144.4
144.4
144.4
144.4
144.4
144.4
144.4
144.4
144.4
144.4
144.4
144.4
144.4
144.4
144.4
144.4
144.4
144.4
144.4
144.4
144.4
144.4
144.4
144.4
144.4
144.4
144.4
144.4
144.4
144.4
144.4
144.4
144.4
144.4
144.4
144.4
144.4
144.4
144.4
144.4
144.4
144.4
144.4
144.4
144.4
144.4
144.4
144.4
144.4
144.4
144.4
144.4
144.4
144.4
144.4
144.4
144.4
144.4
144.4
144.4
144.4
144.4
144.4
144.4
144.4
144.4
144.4
144.4
144.4
144.4
144.4
144.4
144.4
144.4
144.4
144.4
144.4
144.4
144.4
144.4
144.4
144.4
144.4
144.4
144.4
144.4
144.4
144.4
144.4
144.4
144.4
144.4
144.4
144.4
144.4
144.4
144.4
144.4
144.4
144.4
144.4
144.4
144.4
144.4
144.4
144.4
144.4
144.4
144.4
144.4
144.4
144.4
144.401
144.401
144.401
144.401
144.401
144.401
144.401
144.401
144.401
144.402
144.402
144.402
144.402
144.403
144.403
144.403
144.404
144.404
144.405
144.405
144.406
144.406
144.407
144.407
144.408
144.409
144.41
144.411
144.412
144.413
144.413
144.414
144.415
144.416
144.416
144.417
144.417
144.418
144.418
144.419
144.419
144.419
144.419
144.42
144.42
144.42
144.42
144.42
144.42
144.42
144.421
144.421
144.421
144.421
144.421
144.421
144.422
144.422
144.422
144.421
144.421
144.421
144.421
144.421
144.42
144.42
144.419
144.419
144.418
144.417
144.417
144.416
144.415
144.414
144.414
144.413
144.412
144.411
144.41
144.41
144.409
144.408
144.408
144.407
144.406
144.406
144.405
144.404
144.404
144.403
144.403
144.402
144.402
144.402
144.401
144.401
144.401
144.401
144.401
144.401
144.4
144.4
144.4
144.4
144.4
144.4
144.4
144.4
144.4
144.4
144.4
144.4
144.4
144.4
144.4
144.4
144.4
144.4
144.4
144.4
144.4
144.4
144.4
144.4
144.4
144.4
144.4
144.4
144.4
144.4
144.4
144.4
144.4
144.4
144.4
144.4
144.4
144.4
144.4
144.4
144.4
144.4
144.4
144.4
144.4
144.4
144.4
144.4
144.4
144.4
144.4
144.4
144.4
144.4
144.4
144.4
144.4
144.4
144.4
144.4
144.4
144.4
144.4
144.4
144.4
144.4
144.4
144.4
144.4
144.4
144.4
144.4
144.4
144.4
144.4
144.4
144.4
144.4
144.4
144.4
144.4
144.4
144.4
144.4
144.4
144.4
144.4
144.4
144.4
144.4
144.4
144.4
144.4
144.401
144.401
144.401
144.401
144.401
144.401
144.401
144.401
144.401
144.402
144.402
144.402
144.402
144.403
144.403
144.404
144.404
144.405
144.405
144.406
144.407
144.408
144.409
144.41
144.411
144.413
144.415
144.417
144.419
144.421
144.424
144.426
144.429
144.432
144.434
144.438
144.441
144.445
144.45
144.455
144.461
144.466
144.472
144.478
144.483
144.488
144.493
144.497
144.501
144.505
144.508
144.511
144.513
144.515
144.517
144.519
144.52
144.522
144.523
144.524
144.525
144.525
144.526
144.527
144.528
144.528
144.529
144.53
144.531
144.532
144.532
144.533
144.533
144.532
144.531
144.53
144.529
144.527
144.524
144.521
144.518
144.515
144.511
144.507
144.503
144.499
144.494
144.49
144.485
144.481
144.476
144.471
144.467
144.462
144.458
144.453
144.449
144.444
144.44
144.436
144.432
144.427
144.424
144.42
144.417
144.414
144.412
144.41
144.409
144.407
144.406
144.405
144.404
144.403
144.403
144.402
144.402
144.401
144.401
144.401
144.401
144.401
144.4
144.4
144.4
144.4
144.4
144.4
144.4
144.4
144.4
144.4
144.4
144.4
144.4
144.4
144.4
144.4
144.4
144.4
144.4
144.4
144.4
144.4
144.4
144.4
144.4
144.4
144.4
144.4
144.4
144.4
144.4
144.4
144.4
144.4
144.4
144.4
144.4
144.4
144.4
144.4
144.4
144.4
144.4
144.4
144.4
144.4
144.4
144.4
144.4
144.4
144.4
144.4
144.4
144.4
144.4
144.4
144.4
144.4
144.4
144.4
144.4
144.4
144.4
144.4
144.4
144.4
144.4
144.4
144.4
144.4
144.4
144.4
144.4
144.4
144.4
144.4
144.4
144.4
144.4
144.4
144.4
144.4
144.402
144.402
144.403
144.403
144.403
144.404
144.404
144.405
144.406
144.407
144.407
144.408
144.41
144.411
144.412
144.414
144.416
144.418
144.421
144.424
144.427
144.431
144.436
144.44
144.445
144.451
144.458
144.466
144.475
144.487
144.499
144.513
144.527
144.542
144.557
144.573
144.589
144.605
144.624
144.645
144.671
144.7
144.733
144.767
144.802
144.837
144.871
144.904
144.935
144.964
144.99
145.014
145.035
145.054
145.072
145.087
145.101
145.113
145.124
145.134
145.142
145.15
145.156
145.162
145.167
145.172
145.176
145.18
145.184
145.188
145.191
145.195
145.198
145.201
145.202
145.201
145.199
145.194
145.187
145.177
145.166
145.152
145.136
145.119
145.099
145.078
145.056
145.032
145.008
144.982
144.957
144.931
144.904
144.877
144.85
144.823
144.795
144.767
144.74
144.712
144.684
144.656
144.628
144.6
144.574
144.549
144.526
144.506
144.49
144.476
144.465
144.456
144.447
144.44
144.433
144.427
144.422
144.418
144.414
144.411
144.409
144.407
144.406
144.405
144.404
144.403
144.402
144.402
144.401
144.401
144.401
144.401
144.4
144.4
144.4
144.4
144.4
144.4
144.4
144.4
144.4
144.4
144.4
144.4
144.4
144.4
144.4
144.4
144.4
144.4
144.4
144.4
144.4
144.4
144.4
144.4
144.4
144.4
144.4
144.4
144.4
144.4
144.4
144.4
144.4
144.4
144.4
144.4
144.4
144.4
144.4
144.4
144.4
144.4
144.4
144.4
144.4
144.4
144.4
144.4
144.4
144.4
144.4
144.4
144.4
144.4
144.4
144.4
144.4
144.4
144.4
144.4
144.4
144.4
144.4
144.4
144.4
144.4
144.4
144.4
144.4
144.4
144.4
144.4
144.4
144.4
144.412
144.413
144.415
144.417
144.419
144.422
144.425
144.428
144.432
144.437
144.442
144.448
144.454
144.461
144.469
144.478
144.49
144.504
144.519
144.538
144.558
144.58
144.604
144.63
144.659
144.692
144.733
144.781
144.839
144.906
144.98
145.061
145.146
145.234
145.323
145.413
145.504
145.599
145.708
145.837
145.99
146.166
146.359
146.561
146.768
146.974
147.174
147.365
147.545
147.711
147.863
148
148.125
148.238
148.34
148.432
148.516
148.591
148.658
148.718
148.773
148.822
148.865
148.905
148.94
148.971
148.999
149.023
149.043
149.06
149.075
149.088
149.098
149.104
149.107
149.102
149.086
149.058
149.018
148.966
148.903
148.83
148.745
148.65
148.545
148.431
148.31
148.183
148.051
147.914
147.772
147.627
147.478
147.325
147.168
147.007
146.842
146.675
146.504
146.331
146.157
145.981
145.806
145.632
145.463
145.305
145.166
145.049
144.953
144.874
144.809
144.752
144.701
144.655
144.612
144.573
144.539
144.511
144.488
144.471
144.457
144.446
144.437
144.429
144.423
144.417
144.413
144.41
144.408
144.406
144.405
144.404
144.403
144.402
144.402
144.401
144.401
144.401
144.401
144.4
144.4
144.4
144.4
144.4
144.4
144.4
144.4
144.4
144.4
144.4
144.4
144.4
144.4
144.4
144.4
144.4
144.4
144.4
144.4
144.4
144.4
144.4
144.4
144.4
144.4
144.4
144.4
144.4
144.4
144.4
144.4
144.4
144.4
144.4
144.4
144.4
144.4
144.4
144.4
144.4
144.4
144.4
144.4
144.4
144.4
144.4
144.4
144.4
144.4
144.4
144.4
144.4
144.4
144.4
144.4
144.4
144.4
144.4
144.4
144.4
144.4
144.4
144.4
144.4
144.4
144.4
144.481
144.492
144.504
144.518
144.535
144.555
144.578
144.604
144.632
144.663
144.697
144.736
144.781
144.835
144.9
144.979
145.07
145.175
145.291
145.417
145.552
145.697
145.858
146.047
146.277
146.559
146.894
147.277
147.702
148.158
148.636
149.126
149.621
150.117
150.613
151.132
151.733
152.471
153.359
154.371
155.465
156.599
157.737
158.854
159.929
160.947
161.896
162.769
163.563
164.28
164.929
165.52
166.057
166.547
166.992
167.393
167.757
168.088
168.391
168.666
168.916
169.145
169.353
169.54
169.702
169.836
169.941
170.015
170.062
170.095
170.115
170.122
170.113
170.065
169.972
169.832
169.636
169.387
169.091
168.749
168.359
167.919
167.432
166.902
166.333
165.73
165.093
164.425
163.725
162.994
162.228
161.428
160.589
159.715
158.806
157.864
156.894
155.897
154.876
153.839
152.792
151.744
150.715
149.756
148.929
148.253
147.713
147.272
146.899
146.568
146.264
145.979
145.71
145.463
145.248
145.075
144.942
144.84
144.759
144.693
144.636
144.586
144.544
144.51
144.485
144.466
144.452
144.44
144.431
144.424
144.418
144.414
144.41
144.408
144.406
144.405
144.404
144.403
144.402
144.402
144.401
144.401
144.401
144.401
144.4
144.4
144.4
144.4
144.4
144.4
144.4
144.4
144.4
144.4
144.4
144.4
144.4
144.4
144.4
144.4
144.4
144.4
144.4
144.4
144.4
144.4
144.4
144.4
144.4
144.4
144.4
144.4
144.4
144.4
144.4
144.4
144.4
144.4
144.4
144.4
144.4
144.4
144.4
144.4
144.4
144.4
144.4
144.4
144.4
144.4
144.4
144.4
144.4
144.4
144.4
144.4
144.4
144.4
144.4
144.4
144.4
144.4
144.4
144.83
144.885
144.952
145.031
145.125
145.236
145.361
145.502
145.656
145.825
146.008
146.213
146.456
146.752
147.115
147.55
148.055
148.625
149.253
149.93
150.652
151.419
152.262
153.263
154.516
156.064
157.89
159.946
162.173
164.514
166.916
169.337
171.74
174.102
176.422
178.8
181.58
185.067
189.213
193.791
198.567
203.355
208.022
212.483
216.683
220.58
224.152
227.386
230.283
232.876
235.217
237.343
239.282
241.056
242.672
244.136
245.468
246.7
247.842
248.892
249.856
250.753
251.59
252.349
253.009
253.557
253.971
254.233
254.381
254.434
254.44
254.412
254.297
254.101
253.786
253.323
252.7
251.93
251.031
249.997
248.816
247.475
245.975
244.322
242.516
240.558
238.448
236.178
233.735
231.111
228.293
225.262
222.005
218.517
214.794
210.843
206.677
202.292
197.692
192.899
187.941
182.847
177.699
172.895
168.87
165.67
163.106
160.949
159.028
157.236
155.52
153.855
152.244
150.736
149.437
148.415
147.647
147.067
146.603
146.208
145.857
145.544
145.28
145.075
144.924
144.813
144.727
144.658
144.599
144.551
144.514
144.486
144.466
144.451
144.44
144.43
144.423
144.417
144.413
144.41
144.408
144.406
144.405
144.404
144.403
144.402
144.402
144.401
144.401
144.401
144.401
144.401
144.401
144.401
144.4
144.4
144.4
144.4
144.4
144.4
144.4
144.4
144.4
144.4
144.4
144.4
144.4
144.4
144.4
144.4
144.4
144.4
144.4
144.4
144.4
144.4
144.4
144.4
144.4
144.4
144.401
144.401
144.401
144.401
144.401
144.401
144.402
144.402
144.402
144.403
144.403
144.4
144.4
144.4
144.4
144.4
144.4
144.4
144.4
144.4
144.4
146.626
146.914
147.262
147.681
148.181
148.76
149.416
150.144
150.937
151.792
152.715
153.744
154.975
156.509
158.399
160.641
163.198
166.019
169.052
172.247
175.571
179.018
182.709
187.094
192.629
199.322
206.904
215.042
223.451
231.905
240.225
248.289
256.021
263.367
270.331
277.115
285.194
296.077
308.514
321.262
333.62
345.217
355.867
365.532
374.225
381.947
388.738
394.676
399.803
404.243
408.165
411.651
414.74
417.506
419.99
422.19
424.134
425.913
427.573
429.093
430.473
431.785
433.051
434.204
435.188
435.977
436.523
436.672
436.62
436.484
436.293
436.039
435.666
435.203
434.607
433.837
432.915
431.879
430.698
429.407
427.945
426.216
424.259
422.099
419.698
417.015
414.05
410.775
407.084
402.927
398.272
393.014
387.1
380.506
373.1
364.8
355.648
345.494
334.183
321.736
308.088
293.113
276.775
261.08
248.476
238.551
230.27
222.754
215.468
208.151
200.699
193.089
185.375
177.854
171.373
166.398
162.698
159.817
157.386
155.192
153.141
151.253
149.652
148.43
147.555
146.916
146.417
145.998
145.635
145.332
145.101
144.934
144.815
144.726
144.655
144.595
144.547
144.51
144.483
144.465
144.451
144.44
144.431
144.424
144.419
144.414
144.412
144.41
144.408
144.407
144.406
144.405
144.404
144.404
144.403
144.403
144.402
144.402
144.402
144.402
144.402
144.402
144.401
144.401
144.401
144.401
144.401
144.401
144.401
144.401
144.401
144.401
144.401
144.401
144.402
144.402
144.402
144.403
144.403
144.404
144.405
144.405
144.406
144.408
144.409
144.412
144.414
144.417
144.419
144.422
144.421
144.4
144.4
144.4
144.4
144.4
144.4
144.4
144.4
144.401
156.756
158.461
160.529
162.965
165.739
168.812
172.137
175.67
179.383
183.286
187.534
192.616
198.95
206.542
215.156
224.501
234.304
244.334
254.42
264.445
274.378
284.423
296.363
312.118
330.16
348.805
366.968
384.066
399.815
414.061
426.768
438.07
448.067
456.78
464.355
470.878
476.33
480.889
484.666
487.717
490.079
491.842
493.125
494.037
494.597
494.657
494.535
494.263
493.849
493.418
492.988
492.517
492.013
491.499
490.972
490.419
489.859
489.3
488.724
488.116
487.514
486.944
486.363
485.718
484.999
484.247
483.447
482.595
481.736
480.894
480.045
479.205
478.321
477.385
476.558
475.624
474.57
473.63
472.631
471.441
470.276
469.134
467.915
466.569
465.21
463.917
462.621
461.219
459.743
458.173
456.542
454.91
453.195
451.338
449.396
447.251
444.788
442.088
439.017
435.36
431.057
426.07
420.319
413.674
405.943
396.807
385.936
373.137
358.353
341.424
322.158
300.482
276.915
256.014
240.273
228.225
218.059
208.586
199.218
189.786
180.555
172.548
166.553
162.286
159.072
156.398
154.008
151.841
150.002
148.611
147.638
146.951
146.426
145.991
145.618
145.312
145.083
144.924
144.812
144.729
144.662
144.605
144.557
144.52
144.494
144.476
144.463
144.453
144.446
144.439
144.434
144.429
144.425
144.422
144.419
144.416
144.414
144.413
144.412
144.411
144.411
144.41
144.41
144.41
144.41
144.409
144.409
144.409
144.409
144.409
144.409
144.41
144.41
144.412
144.414
144.417
144.42
144.425
144.43
144.436
144.442
144.45
144.461
144.475
144.493
144.513
144.534
144.555
144.58
144.573
144.401
144.401
197.76
204.337
212.089
220.821
230.289
240.262
250.535
260.943
271.382
281.853
292.622
305.703
322.356
341.137
360.566
379.677
397.873
414.785
430.268
444.335
456.908
468.004
477.661
485.902
493.019
499.163
504.408
508.793
512.338
515.034
516.947
518.299
518.845
518.761
518.492
518.116
517.832
517.678
517.566
517.42
517.196
516.841
516.301
515.628
514.864
513.943
512.878
511.746
510.572
509.367
508.196
507.093
505.869
504.695
503.616
502.663
501.598
500.539
499.567
498.69
497.704
496.729
495.83
494.956
494.103
493.249
492.284
491.334
490.428
489.522
488.661
487.826
486.836
485.807
484.825
483.949
482.931
481.895
480.931
479.858
478.755
477.753
476.657
475.416
474.249
473.148
472.075
471.08
469.918
468.7
467.566
466.333
465.082
463.976
462.823
461.555
460.454
459.376
458.076
456.722
455.415
454.029
452.468
450.728
448.771
446.631
444.208
441.65
438.916
435.815
432.116
427.389
421.299
413.544
403.829
391.761
376.968
359.072
337.857
313.263
285.782
259.97
240.838
226.833
215.296
204.565
194.003
183.682
174.5
167.605
162.825
159.347
156.525
154.035
151.802
149.93
148.55
147.613
146.963
146.468
146.055
145.696
145.393
145.158
144.995
144.885
144.809
144.751
144.703
144.662
144.626
144.595
144.569
144.546
144.527
144.51
144.497
144.488
144.481
144.477
144.474
144.471
144.469
144.467
144.466
144.465
144.464
144.464
144.464
144.465
144.466
144.469
144.476
144.486
144.503
144.526
144.555
144.59
144.629
144.671
144.717
144.778
144.865
144.984
145.13
145.292
145.46
145.623
145.819
145.783
312.833
328.913
346.799
365.272
383.518
401.027
417.447
432.605
446.498
459.065
470.31
480.185
488.733
496.195
502.765
508.569
513.597
517.811
521.256
523.978
525.993
527.355
528.167
528.591
528.847
529.154
529.593
530.05
530.442
530.742
530.805
530.728
530.422
529.805
528.956
527.961
526.992
525.972
524.967
524.077
523.277
522.457
521.625
520.829
519.977
518.994
517.969
516.949
515.804
514.641
513.534
512.463
511.224
510.037
508.917
507.933
506.798
505.662
504.62
503.699
502.641
501.579
500.603
499.691
498.834
497.991
497.026
496.112
495.253
494.383
493.56
492.76
491.77
490.742
489.747
488.884
487.888
486.835
485.866
484.829
483.749
482.782
481.716
480.532
479.42
478.331
477.24
476.242
475.074
473.86
472.705
471.374
470.017
468.787
467.542
466.187
464.98
463.843
462.685
461.545
460.435
459.324
458.171
457.015
455.844
454.615
453.522
452.443
451.18
449.871
448.53
447.163
445.778
444.301
442.602
440.686
438.711
436.428
433.387
428.947
422.794
414.623
403.88
390.015
372.386
350.634
325.021
296.135
266.877
244.844
229.184
216.754
205.468
194.488
183.838
174.441
167.548
162.907
159.583
156.895
154.526
152.384
150.518
149.068
148.084
147.444
146.997
146.646
146.35
146.092
145.866
145.67
145.501
145.356
145.232
145.127
145.042
144.981
144.941
144.914
144.895
144.879
144.867
144.856
144.847
144.842
144.84
144.841
144.843
144.848
144.86
144.886
144.936
145.021
145.148
145.323
145.543
145.801
146.089
146.393
146.724
147.173
147.861
148.823
149.986
151.239
152.509
153.687
155.101
155.071
480.816
489.118
496.37
502.746
508.422
513.446
517.771
521.407
524.387
526.735
528.529
529.857
530.815
531.576
532.311
533.037
533.776
534.564
535.319
535.945
536.431
536.68
536.655
536.48
536.153
535.778
535.488
535.217
534.95
534.691
534.4
534.051
533.62
533.078
532.39
531.558
530.701
529.758
528.743
527.761
526.836
525.888
524.974
524.156
523.291
522.297
521.333
520.383
519.287
518.14
517.116
516.037
514.845
513.728
512.673
511.695
510.513
509.378
508.348
507.422
506.343
505.27
504.274
503.37
502.556
501.692
500.727
499.857
499.036
498.204
497.424
496.653
495.688
494.691
493.714
492.869
491.915
490.863
489.861
488.904
487.872
486.893
485.816
484.723
483.674
482.624
481.551
480.525
479.43
478.29
477.2
475.851
474.428
473.087
471.779
470.335
468.968
467.683
466.456
465.283
464.143
463.02
461.916
460.868
459.84
458.702
457.545
456.356
455.068
453.769
452.572
451.458
450.539
449.707
448.892
448.303
447.539
446.607
445.595
444.628
443.693
442.61
441.573
440.514
439.097
436.915
433.217
427.298
419.017
407.965
393.663
375.656
353.666
327.645
298.157
268.1
245.728
230.397
218.438
207.673
197.305
187.271
178
170.582
165.643
162.428
160.082
158.15
156.454
154.943
153.604
152.431
151.408
150.519
149.75
149.091
148.55
148.156
147.904
147.742
147.627
147.537
147.463
147.4
147.354
147.332
147.333
147.344
147.369
147.416
147.512
147.715
148.105
148.751
149.704
150.987
152.567
154.379
156.356
158.401
160.529
163.478
168.295
174.928
182.523
190.159
197.626
204.029
210.97
213.126
532.104
532.891
533.669
534.406
535.163
535.964
536.695
537.319
537.844
538.205
538.405
538.517
538.565
538.608
538.711
538.864
539.04
539.241
539.414
539.434
539.373
539.199
538.912
538.554
538.181
537.817
537.448
537.069
536.678
536.257
535.804
535.292
534.668
533.948
533.18
532.315
531.355
530.407
529.457
528.424
527.478
526.646
525.726
524.712
523.823
522.928
521.855
520.803
519.887
518.833
517.793
516.801
515.892
514.893
513.76
512.701
511.731
510.818
509.786
508.737
507.747
506.888
506.114
505.213
504.285
503.446
502.647
501.846
501.111
500.358
499.425
498.478
497.541
496.722
495.794
494.757
493.745
492.839
491.889
490.803
489.754
488.732
487.721
486.701
485.651
484.606
483.54
482.449
481.412
480.168
478.738
477.331
475.961
474.511
473.035
471.608
470.228
468.94
467.718
466.516
465.34
464.244
463.213
462.156
461.008
459.806
458.527
457.186
455.873
454.678
453.69
452.817
452.031
451.257
450.397
449.52
448.704
448.051
447.524
447.324
447.131
446.653
446.164
445.875
445.633
445.545
445.498
445.292
444.673
443.342
440.897
436.844
430.935
423.082
412.566
398.763
381.401
360.671
336.923
310.559
282.705
257.701
241.402
230.491
221.845
214.123
206.946
200.3
194.223
188.727
183.794
179.383
175.47
172.036
169.136
166.969
165.624
164.777
164.174
163.708
163.33
163.016
162.826
162.797
162.846
162.964
163.185
163.556
164.21
165.61
168.247
172.439
178.358
186.022
194.966
204.665
214.737
224.642
234.114
247.094
270.877
300.163
329.122
353.94
376.911
393.516
409.081
420.63
538.973
539.15
539.284
539.416
539.624
539.9
540.161
540.443
540.728
540.941
541.079
541.159
541.158
541.138
541.148
541.18
541.226
541.295
541.367
541.367
541.323
541.195
540.972
540.662
540.297
539.908
539.5
539.073
538.622
538.145
537.65
537.113
536.505
535.848
535.147
534.356
533.509
532.67
531.767
530.753
529.887
529.073
528.115
527.144
526.333
525.461
524.413
523.508
522.65
521.652
520.753
519.893
519.106
518.097
517.077
516.116
515.205
514.327
513.376
512.356
511.383
510.576
509.826
508.925
508.021
507.191
506.397
505.623
504.932
504.177
503.281
502.391
501.501
500.714
499.782
498.779
497.794
496.931
496.01
494.878
493.817
492.821
491.837
490.843
489.822
488.775
487.72
486.664
485.608
484.477
483.17
481.775
480.37
478.929
477.429
475.92
474.433
472.987
471.625
470.315
469.037
467.832
466.72
465.649
464.524
463.317
462.036
460.701
459.354
458.082
456.971
455.98
455.1
454.225
453.274
452.272
451.317