/*--------------------------------*- C++ -*----------------------------------*\
| =========                 |                                                 |
| \\      /  F ield         | OpenFOAM: The Open Source CFD Toolbox           |
|  \\    /   O peration     | Version:  v1706                                 |
|   \\  /    A nd           | Web:      www.OpenFOAM.com                      |
|    \\/     M anipulation  |                                                 |
\*---------------------------------------------------------------------------*/
FoamFile
{
    version     2.0;
    format      ascii;
    class       volScalarField;
    location    "1.7e-05";
    object      Mach;
}
// * * * * * * * * * * * * * * * * * * * * * * * * * * * * * * * * * * * * * //

dimensions      [0 0 0 0 0 0 0];


internalField   nonuniform List<scalar> 
30038
(
11.2859
11.2859
11.2859
11.2859
11.2859
11.2859
11.2859
11.2859
11.2859
11.2859
11.2859
11.2859
11.2859
11.2859
11.2859
11.2859
11.2859
11.2859
11.2859
11.2859
11.2859
11.2859
11.2859
11.2859
11.2859
11.2859
11.2859
11.2859
11.2859
11.2859
11.2859
11.2859
11.2859
11.2859
11.2859
11.2859
11.2859
11.2859
11.2859
11.2859
11.2859
11.2859
11.2859
11.2859
11.2859
11.2859
11.2859
11.2859
11.2859
11.2859
11.2859
11.2859
11.2859
11.2859
11.2859
11.2859
11.2859
11.2859
11.2859
11.2859
11.2859
11.2859
11.2859
11.2859
11.2859
11.2859
11.2859
11.2859
11.2859
11.2859
11.2859
11.2859
11.2859
11.2859
11.2859
11.2859
11.2859
11.2859
11.2859
11.2859
11.2859
11.2859
11.2859
11.2859
11.2859
11.2859
11.2859
11.2859
11.2859
11.2859
11.2859
11.2859
11.2859
11.2859
11.2859
11.2859
11.2859
11.2859
11.2859
11.2859
11.2859
11.2859
11.2859
11.2859
11.2859
11.2859
11.2859
11.2859
11.2859
11.2859
11.2859
11.2859
11.2859
11.2859
11.2859
11.2859
11.2859
11.2859
11.2859
11.2859
11.2859
11.2859
11.2859
11.2859
11.2859
11.2859
11.2859
11.2859
11.2859
11.2859
11.2859
11.2859
11.2859
11.2859
11.2859
11.2859
11.2859
11.2859
11.2859
11.2859
11.2859
11.2859
11.2859
11.2859
11.2859
11.2859
11.2859
11.2859
11.2859
11.2859
11.2859
11.2859
11.2859
11.2859
11.2859
11.2859
11.2859
11.2859
11.2859
11.2859
11.2859
11.2859
11.2859
11.2859
11.2859
11.2859
11.2859
11.2859
11.2859
11.2859
11.2859
11.2859
11.2859
11.2859
11.2859
11.2859
11.2859
11.2859
11.2859
11.2859
11.2859
11.2859
11.2859
11.2859
11.2859
11.2859
11.2859
11.2859
11.2859
11.2859
11.2859
11.2859
11.2859
11.2859
11.2859
11.2859
11.2859
11.2859
11.2859
11.2859
11.2859
11.2859
11.2859
11.2859
11.2859
11.2859
11.2859
11.2859
11.2859
11.2859
11.2859
11.2859
11.2859
11.2859
11.2859
11.2859
11.2859
11.2859
11.2859
11.2859
11.2859
11.2859
11.2859
11.2859
11.2859
11.2859
11.2859
11.2859
11.2859
11.2859
11.2859
11.2859
11.2859
11.2859
11.2859
11.2859
11.2859
11.2859
11.2859
11.2859
11.2859
11.2859
11.2859
11.2859
11.2859
11.2859
11.2859
11.2859
11.2859
11.2859
11.2859
11.2859
11.2859
11.2859
11.2859
11.2859
11.2859
11.2859
11.2859
11.2859
11.2859
11.2859
11.2859
11.2859
11.2859
11.2859
11.2859
11.2859
11.2859
11.2859
11.2859
11.2859
11.2859
11.2859
11.2859
11.2859
11.2859
11.2859
11.2859
11.2859
11.2859
11.2859
11.2859
11.2859
11.2859
11.2859
11.2859
11.2859
11.2859
11.2859
11.2859
11.2859
11.2859
11.2859
11.2859
11.2859
11.2859
11.2859
11.2859
11.2859
11.2859
11.2859
11.2859
11.2859
11.2859
11.2859
11.2859
11.2859
11.2859
11.2859
11.2859
11.2859
11.2859
11.2859
11.2859
11.2859
11.2859
11.2859
11.2859
11.2859
11.2859
11.2859
11.2859
11.2859
11.2859
11.2859
11.2859
11.2859
11.2859
11.2859
11.2859
11.2859
11.2859
11.2859
11.2859
11.2859
11.2859
11.2859
11.2859
11.2859
11.2859
11.2859
11.2859
11.2859
11.2859
11.2859
11.2859
11.2859
11.2859
11.2859
11.2859
11.2859
11.2859
11.2859
11.2859
11.2859
11.2859
11.2859
11.2859
11.2859
11.2859
11.2859
11.2859
11.2859
11.2859
11.2859
11.2859
11.2859
11.2859
11.2859
11.2859
11.2859
11.2859
11.2859
11.2859
11.2859
11.2859
11.2859
11.2859
11.2859
11.2859
11.2859
11.2859
11.2859
11.2859
11.2859
11.2859
11.2859
11.2859
11.2859
11.2859
11.2859
11.2859
11.2859
11.2859
11.2859
11.2859
11.2859
11.2859
11.2859
11.2859
11.2859
11.2859
11.2859
11.2859
11.2859
11.2859
11.2859
11.2859
11.2859
11.2859
11.2859
11.2859
11.2859
11.2859
11.2859
11.2859
11.2859
11.2859
11.2859
11.2859
11.2859
11.2859
11.2859
11.2859
11.2859
11.2859
11.2859
11.2859
11.2859
11.2859
11.2859
11.2859
11.2859
11.2859
11.2859
11.2859
11.2859
11.2859
11.2859
11.2859
11.2859
11.2859
11.2859
11.2859
11.2859
11.2859
11.2859
11.2859
11.2859
11.2859
11.2859
11.2859
11.2859
11.2859
11.2859
11.2859
11.2859
11.2859
11.2859
11.2859
11.2859
11.2859
11.2859
11.2859
11.2859
11.2859
11.2859
11.2859
11.2859
11.2859
11.2859
11.2859
11.2859
11.2859
11.2859
11.2859
11.2859
11.2859
11.2859
11.2859
11.2859
11.2859
11.2859
11.2859
11.2859
11.2859
11.2859
11.2859
11.2859
11.2859
11.2859
11.2859
11.2859
11.2859
11.2859
11.2859
11.2859
11.2859
11.2859
11.2859
11.2859
11.2859
11.2859
11.2859
11.2859
11.2859
11.2859
11.2859
11.2859
11.2859
11.2859
11.2859
11.2859
11.2859
11.2859
11.2859
11.2859
11.2859
11.2859
11.2859
11.2859
11.2859
11.2859
11.2859
11.2859
11.2859
11.2859
11.2859
11.2859
11.2859
11.2859
11.2859
11.2859
11.2859
11.2859
11.2859
11.2859
11.2859
11.2859
11.2859
11.2859
11.2859
11.2859
11.2859
11.2859
11.2859
11.2859
11.2859
11.2859
11.2859
11.2859
11.2859
11.2859
11.2859
11.2859
11.2859
11.2859
11.2859
11.2859
11.2859
11.2859
11.2859
11.2859
11.2859
11.2859
11.2859
11.2859
11.2859
11.2859
11.2859
11.2859
11.2859
11.2859
11.2859
11.2859
11.2859
11.2859
11.2859
11.2859
11.2859
11.2859
11.2859
11.2859
11.2859
11.2859
11.2859
11.2859
11.2859
11.2859
11.2859
11.2859
11.2859
11.2859
11.2859
11.2859
11.2859
11.2859
11.2859
11.2859
11.2859
11.2859
11.2859
11.2859
11.2859
11.2859
11.2859
11.2859
11.2859
11.2859
11.2859
11.2859
11.2859
11.2859
11.2859
11.2859
11.2859
11.2859
11.2859
11.2859
11.2859
11.2859
11.2859
11.2859
11.2859
11.2859
11.2859
11.2859
11.2859
11.2859
11.2859
11.2859
11.2859
11.2859
11.2859
11.2859
11.2859
11.2859
11.2859
11.2859
11.2859
11.2859
11.2859
11.2859
11.2859
11.2859
11.2859
11.2859
11.2859
11.2859
11.2859
11.2859
11.2859
11.2859
11.2859
11.2859
11.2859
11.2859
11.2859
11.2859
11.2859
11.2859
11.2859
11.2859
11.2859
11.2859
11.2859
11.2859
11.2859
11.2859
11.2859
11.2859
11.2859
11.2859
11.2859
11.2859
11.2859
11.2859
11.2859
11.2859
11.2859
11.2859
11.2859
11.2859
11.2859
11.2859
11.2859
11.2859
11.2859
11.2859
11.2859
11.2859
11.2859
11.2859
11.2859
11.2859
11.2859
11.2859
11.2859
11.2859
11.2859
11.2859
11.2859
11.2859
11.2859
11.2859
11.2859
11.2859
11.2859
11.2859
11.2859
11.2859
11.2859
11.2859
11.2859
11.2859
11.2859
11.2859
11.2859
11.2859
11.2859
11.2859
11.2859
11.2859
11.2859
11.2859
11.2859
11.2859
11.2859
11.2859
11.2859
11.2859
11.2859
11.2859
11.2859
11.2859
11.2859
11.2859
11.2859
11.2859
11.2859
11.2859
11.2859
11.2859
11.2859
11.2859
11.2859
11.2859
11.2859
11.2859
11.2859
11.2859
11.2859
11.2859
11.2859
11.2859
11.2859
11.2859
11.2859
11.2859
11.2859
11.2859
11.2859
11.2859
11.2859
11.2859
11.2859
11.2859
11.2859
11.2859
11.2859
11.2859
11.2859
11.2859
11.2859
11.2859
11.2859
11.2859
11.2859
11.2859
11.2859
11.2859
11.2859
11.2859
11.2859
11.2859
11.2859
11.2859
11.2859
11.2859
11.2859
11.2859
11.2859
11.2859
11.2859
11.2859
11.2859
11.2859
11.2859
11.2859
11.2859
11.2859
11.2859
11.2859
11.2859
11.2859
11.2859
11.2859
11.2859
11.2859
11.2859
11.2859
11.2859
11.2859
11.2859
11.2859
11.2859
11.2859
11.2859
11.2859
11.2859
11.2859
11.2859
11.2859
11.2859
11.2859
11.2859
11.2859
11.2859
11.2859
11.2859
11.2859
11.2859
11.2859
11.2859
11.2859
11.2859
11.2859
11.2859
11.2859
11.2859
11.2859
11.2859
11.2859
11.2859
11.2859
11.2859
11.2859
11.2859
11.2859
11.2859
11.2859
11.2859
11.2859
11.2859
11.2859
11.2859
11.2859
11.2859
11.2859
11.2859
11.2859
11.2859
11.2859
11.2859
11.2859
11.2859
11.2859
11.2859
11.2859
11.2859
11.2859
11.2859
11.2859
11.2859
11.2859
11.2859
11.2859
11.2859
11.2859
11.2859
11.2859
11.2859
11.2859
11.2859
11.2859
11.2859
11.2859
11.2859
11.2859
11.2859
11.2859
11.2859
11.2859
11.2859
11.2859
11.2859
11.2859
11.2859
11.2859
11.2859
11.2859
11.2859
11.2859
11.2859
11.2859
11.2859
11.2859
11.2859
11.2859
11.2859
11.2859
11.2859
11.2859
11.2859
11.2859
11.2859
11.2859
11.2859
11.2859
11.2859
11.2859
11.2859
11.2859
11.2859
11.2859
11.2859
11.2859
11.2859
11.2859
11.2859
11.2859
11.2859
11.2859
11.2859
11.2859
11.2859
11.2859
11.2859
11.2859
11.2859
11.2859
11.2859
11.2859
11.2859
11.2859
11.2859
11.2859
11.2859
11.2859
11.2859
11.2859
11.2859
11.2859
11.2859
11.2859
11.2859
11.2859
11.2859
11.2859
11.2859
11.2859
11.2859
11.2859
11.2859
11.2859
11.2859
11.2859
11.2859
11.2859
11.2859
11.2859
11.2859
11.2859
11.2859
11.2859
11.2859
11.2859
11.2859
11.2859
11.2859
11.2859
11.2859
11.2859
11.2859
11.2859
11.2859
11.2859
11.2859
11.2859
11.2859
11.2859
11.2859
11.2859
11.2859
11.2859
11.2859
11.2859
11.2859
11.2859
11.2859
11.2859
11.2859
11.2859
11.2859
11.2859
11.2859
11.2859
11.2859
11.2859
11.2859
11.2859
11.2859
11.2859
11.2859
11.2859
11.2859
11.2859
11.2859
11.2859
11.2859
11.2859
11.2859
11.2859
11.2859
11.2859
11.2859
11.2859
11.2859
11.2859
11.2859
11.2859
11.2859
11.2859
11.2859
11.2859
11.2859
11.2859
11.2859
11.2859
11.2859
11.2859
11.2859
11.2859
11.2859
11.2859
11.2859
11.2859
11.2859
11.2859
11.2859
11.2859
11.2859
11.2859
11.2859
11.2859
11.2859
11.2859
11.2859
11.2859
11.2859
11.2859
11.2859
11.2859
11.2859
11.2859
11.2859
11.2859
11.2859
11.2859
11.2859
11.2859
11.2859
11.2859
11.2859
11.2859
11.2859
11.2859
11.2859
11.2859
11.2859
11.2859
11.2859
11.2859
11.2859
11.2859
11.2859
11.2859
11.2859
11.2859
11.2859
11.2859
11.2859
11.2859
11.2859
11.2859
11.2859
11.2859
11.2859
11.2859
11.2859
11.2859
11.2859
11.2859
11.2859
11.2859
11.2859
11.2859
11.2859
11.2859
11.2859
11.2859
11.2859
11.2859
11.2859
11.2859
11.2859
11.2859
11.2859
11.2859
11.2859
11.2859
11.2859
11.2859
11.2859
11.2859
11.2859
11.2859
11.2859
11.2859
11.2859
11.2859
11.2859
11.2859
11.2859
11.2859
11.2859
11.2859
11.2859
11.2859
11.2859
11.2859
11.2859
11.2859
11.2859
11.2859
11.2859
11.2859
11.2859
11.2859
11.2859
11.2859
11.2859
11.2859
11.2859
11.2859
11.2859
11.2859
11.2859
11.2859
11.2859
11.2859
11.2859
11.2859
11.2859
11.2859
11.2859
11.2859
11.2859
11.2859
11.2859
11.2859
11.2859
11.2859
11.2859
11.2859
11.2859
11.2859
11.2859
11.2859
11.2859
11.2859
11.2859
11.2859
11.2859
11.2859
11.2859
11.2859
11.2859
11.2859
11.2859
11.2859
11.2859
11.2859
11.2859
11.2859
11.2859
11.2859
11.2859
11.2859
11.2859
11.2859
11.2859
11.2859
11.2859
11.2859
11.2859
11.2859
11.2859
11.2859
11.2859
11.2859
11.2859
11.2859
11.2859
11.2859
11.2859
11.2859
11.2859
11.2859
11.2859
11.2859
11.2859
11.2859
11.2859
11.2859
11.2859
11.2859
11.2859
11.2859
11.2859
11.2859
11.2859
11.2859
11.2859
11.2859
11.2859
11.2859
11.2859
11.2859
11.2859
11.2859
11.2859
11.2859
11.2859
11.2859
11.2859
11.2859
11.2859
11.2859
11.2859
11.2859
11.2859
11.2859
11.2859
11.2859
11.2859
11.2859
11.2859
11.2859
11.2859
11.2859
11.2859
11.2859
11.2859
11.2859
11.2859
11.2859
11.2859
11.2859
11.2859
11.2859
11.2859
11.2859
11.2859
11.2859
11.2859
11.2859
11.2859
11.2859
11.2859
11.2859
11.2859
11.2859
11.2859
11.2859
11.2859
11.2859
11.2859
11.2859
11.2859
11.2859
11.2859
11.2859
11.2859
11.2859
11.2859
11.2859
11.2859
11.2859
11.2859
11.2859
11.2859
11.2859
11.2859
11.2859
11.2859
11.2859
11.2859
11.2859
11.2859
11.2859
11.2859
11.2859
11.2859
11.2859
11.2859
11.2859
11.2859
11.2859
11.2859
11.2859
11.2859
11.2859
11.2859
11.2859
11.2859
11.2859
11.2859
11.2859
11.2859
11.2859
11.2859
11.2859
11.2859
11.2859
11.2859
11.2859
11.2859
11.2859
11.2859
11.2859
11.2859
11.2859
11.2859
11.2859
11.2859
11.2859
11.2859
11.2859
11.2859
11.2859
11.2859
11.2859
11.2859
11.2859
11.2859
11.2859
11.2859
11.2859
11.2859
11.2859
11.2859
11.2859
11.2859
11.2859
11.2859
11.2859
11.2859
11.2859
11.2859
11.2859
11.2859
11.2859
11.2859
11.2859
11.2859
11.2859
11.2859
11.2859
11.2859
11.2859
11.2859
11.2859
11.2859
11.2859
11.2859
11.2859
11.2859
11.2859
11.2859
11.2858
11.2859
11.2859
11.2859
11.2859
11.2859
11.2859
11.2859
11.2859
11.2859
11.2859
11.2859
11.2859
11.2859
11.2859
11.2859
11.2859
11.2859
11.2859
11.2859
11.2859
11.2859
11.2859
11.2859
11.2859
11.2859
11.2859
11.2859
11.2859
11.2859
11.2859
11.2859
11.2859
11.2859
11.2859
11.2859
11.2859
11.2859
11.2859
11.2859
11.2859
11.2859
11.2859
11.2859
11.2859
11.2859
11.2859
11.2858
11.2858
11.2858
11.2858
11.2859
11.2859
11.2859
11.2859
11.2859
11.2859
11.2859
11.2859
11.2859
11.2859
11.2859
11.2859
11.2859
11.2859
11.2859
11.2859
11.2859
11.2859
11.2859
11.2859
11.2859
11.2859
11.2859
11.2859
11.2859
11.2859
11.2859
11.2859
11.2859
11.2859
11.2859
11.2859
11.2859
11.2859
11.2859
11.2859
11.2859
11.2859
11.2859
11.2859
11.2859
11.2859
11.2859
11.2858
11.2858
11.2858
11.2858
11.2858
11.2857
11.2855
11.2859
11.2859
11.2859
11.2859
11.2859
11.2859
11.2859
11.2859
11.2859
11.2859
11.2859
11.2859
11.2859
11.2859
11.2859
11.2859
11.2859
11.2859
11.2859
11.2859
11.2859
11.2859
11.2859
11.2859
11.2859
11.2859
11.2859
11.2859
11.2859
11.2859
11.2859
11.2859
11.2859
11.2859
11.2859
11.2859
11.2859
11.2859
11.2859
11.2859
11.2858
11.2858
11.2858
11.2858
11.2858
11.2857
11.2855
11.2853
11.2849
11.2842
11.2859
11.2859
11.2859
11.2859
11.2859
11.2859
11.2859
11.2859
11.2859
11.2859
11.2859
11.2859
11.2859
11.2859
11.2859
11.2859
11.2859
11.2859
11.2859
11.2859
11.2859
11.2859
11.2859
11.2859
11.2859
11.2859
11.2859
11.2859
11.2859
11.2859
11.2859
11.2859
11.2859
11.2859
11.2859
11.2859
11.2859
11.2858
11.2858
11.2858
11.2858
11.2857
11.2857
11.2855
11.2853
11.2849
11.2842
11.2831
11.281
11.2772
11.2859
11.2859
11.2859
11.2859
11.2859
11.2859
11.2859
11.2859
11.2859
11.2859
11.2859
11.2859
11.2859
11.2859
11.2859
11.2859
11.2859
11.2859
11.2859
11.2859
11.2859
11.2859
11.2859
11.2859
11.2859
11.2859
11.2859
11.2859
11.2859
11.2859
11.2859
11.2859
11.2859
11.2858
11.2858
11.2858
11.2858
11.2858
11.2857
11.2857
11.2855
11.2853
11.2849
11.2842
11.2831
11.2811
11.2777
11.2719
11.2617
11.2431
11.2859
11.2859
11.2859
11.2859
11.2859
11.2859
11.2859
11.2859
11.2859
11.2859
11.2859
11.2859
11.2859
11.2859
11.2859
11.2859
11.2859
11.2859
11.2859
11.2859
11.2859
11.2859
11.2859
11.2859
11.2859
11.2859
11.2859
11.2859
11.2859
11.2859
11.2858
11.2858
11.2858
11.2858
11.2858
11.2857
11.2856
11.2855
11.2852
11.2848
11.2841
11.2829
11.2809
11.2776
11.2719
11.2622
11.2457
11.2176
11.1694
11.0845
11.2859
11.2859
11.2859
11.2859
11.2859
11.2859
11.2859
11.2859
11.2859
11.2859
11.2859
11.2859
11.2859
11.2859
11.2859
11.2859
11.2859
11.2859
11.2859
11.2859
11.2859
11.2859
11.2859
11.2859
11.2859
11.2859
11.2858
11.2858
11.2858
11.2858
11.2858
11.2858
11.2857
11.2856
11.2854
11.2852
11.2847
11.284
11.2827
11.2807
11.2772
11.2714
11.2617
11.2455
11.2182
11.1726
11.0968
10.9726
10.7723
10.4555
11.2859
11.2859
11.2859
11.2859
11.2859
11.2859
11.2859
11.2859
11.2859
11.2859
11.2859
11.2859
11.2859
11.2859
11.2859
11.2859
11.2859
11.2859
11.2859
11.2859
11.2859
11.2859
11.2859
11.2858
11.2858
11.2858
11.2858
11.2858
11.2857
11.2857
11.2856
11.2854
11.2851
11.2846
11.2838
11.2824
11.2802
11.2766
11.2706
11.2607
11.2442
11.2169
11.1718
11.0979
10.9783
10.7893
10.5013
10.0852
9.5235
8.82518
11.2859
11.2859
11.2859
11.2859
11.2859
11.2859
11.2859
11.2859
11.2859
11.2859
11.2859
11.2859
11.2859
11.2859
11.2859
11.2859
11.2859
11.2859
11.2859
11.2858
11.2858
11.2858
11.2858
11.2858
11.2858
11.2857
11.2856
11.2855
11.2853
11.2849
11.2844
11.2835
11.282
11.2796
11.2757
11.2693
11.2588
11.2417
11.2137
11.168
11.094
10.9758
10.791
10.5122
10.1127
9.57854
8.92147
8.18231
7.4154
6.67554
11.2859
11.2859
11.2859
11.2859
11.2859
11.2859
11.2859
11.2859
11.2859
11.2859
11.2859
11.2859
11.2859
11.2859
11.2859
11.2859
11.2858
11.2858
11.2858
11.2858
11.2858
11.2857
11.2857
11.2856
11.2854
11.2852
11.2847
11.2841
11.2831
11.2814
11.2787
11.2744
11.2674
11.2561
11.2379
11.2084
11.1609
11.0851
10.9654
10.7806
10.5051
10.1141
9.59482
8.95796
8.24108
7.49746
6.77734
6.11527
5.52455
5.01124
11.2859
11.2859
11.2859
11.2859
11.2859
11.2859
11.2859
11.2859
11.2859
11.2859
11.2859
11.2859
11.2859
11.2858
11.2858
11.2858
11.2858
11.2858
11.2858
11.2857
11.2856
11.2855
11.2853
11.285
11.2845
11.2837
11.2825
11.2806
11.2775
11.2726
11.2648
11.2523
11.2324
11.2006
11.1501
11.0704
10.9465
10.7579
10.4804
10.0915
9.58023
8.95742
8.25831
7.5325
6.82743
6.17622
5.59508
5.08682
4.64706
4.26595
3.93864
11.2859
11.2859
11.2859
11.2859
11.2859
11.2859
11.2859
11.2859
11.2859
11.2858
11.2858
11.2858
11.2858
11.2858
11.2858
11.2857
11.2857
11.2856
11.2854
11.2851
11.2847
11.2841
11.2832
11.2817
11.2794
11.2758
11.2701
11.2612
11.247
11.2247
11.1896
11.1346
11.0491
10.9179
10.7214
10.4369
10.0442
9.53505
8.92146
8.23742
7.52921
6.84077
6.20303
5.63151
5.12965
4.69359
4.31634
3.99004
3.70782
3.46179
3.24963
11.2859
11.2859
11.2859
11.2859
11.2859
11.2859
11.2858
11.2858
11.2858
11.2858
11.2858
11.2858
11.2857
11.2857
11.2856
11.2854
11.2852
11.2849
11.2844
11.2836
11.2825
11.2807
11.2778
11.2735
11.2667
11.2562
11.2398
11.2143
11.1746
11.1133
11.0194
10.8777
10.6691
10.3725
9.9706
9.45832
8.84992
8.17884
7.48836
6.81858
6.19754
5.63936
5.14728
4.71793
4.34492
4.02111
3.73977
3.49522
3.2825
3.09809
2.93788
2.80164
11.2859
11.2859
11.2858
11.2858
11.2858
11.2858
11.2858
11.2858
11.2857
11.2857
11.2856
11.2855
11.2853
11.285
11.2846
11.2839
11.2829
11.2814
11.2791
11.2756
11.2703
11.262
11.2494
11.2299
11.2
11.1541
11.0843
10.9791
10.8232
10.5979
10.2841
9.86796
9.34829
8.74213
8.08281
7.41064
6.76162
6.16037
5.61907
5.14034
4.721
4.35511
4.03609
3.75774
3.51463
3.30233
3.11714
2.95633
2.81798
2.70133
2.60495
2.52807
11.2858
11.2858
11.2858
11.2858
11.2857
11.2857
11.2856
11.2855
11.2853
11.285
11.2847
11.2841
11.2832
11.2819
11.2799
11.277
11.2725
11.2657
11.2555
11.2399
11.2162
11.1804
11.1263
11.0451
10.925
10.7503
10.5035
10.1676
9.73286
9.20272
8.59727
7.94968
7.29709
6.67109
6.09253
5.57132
5.10917
4.70288
4.34692
4.03523
3.76205
3.52236
3.31202
3.12758
2.96637
2.8265
2.70689
2.60698
2.52605
2.46301
2.41535
2.38014
11.2857
11.2857
11.2856
11.2855
11.2853
11.2851
11.2847
11.2841
11.2833
11.2821
11.2804
11.2778
11.2739
11.268
11.2593
11.2462
11.2266
11.1972
11.1534
11.0882
10.9921
10.8526
10.6542
10.3805
10.0179
9.56129
9.01919
8.41458
7.78005
7.14909
6.54862
5.99554
5.49731
5.0546
4.66408
4.32055
4.01844
3.75246
3.51803
3.3113
3.12914
2.96899
2.829
2.70797
2.60533
2.52067
2.45317
2.40138
2.36293
2.33533
2.31587
2.30187
11.2853
11.285
11.2846
11.2841
11.2833
11.2822
11.2805
11.2781
11.2745
11.2692
11.2614
11.2499
11.2329
11.2077
11.1705
11.1158
11.0358
10.9203
10.756
10.5282
10.2224
9.82921
9.34909
8.79556
8.19388
7.57516
6.9687
6.39652
5.87156
5.39886
4.97804
4.60559
4.27665
3.98608
3.72912
3.50161
3.30002
3.12153
2.96377
2.82497
2.70392
2.59998
2.51284
2.442
2.38645
2.34446
2.31378
2.29201
2.27677
2.26624
2.25912
2.25396
11.2832
11.2821
11.2804
11.2781
11.2746
11.2696
11.2623
11.2517
11.2362
11.2136
11.1805
11.1325
11.0631
10.9635
10.8227
10.6274
10.3641
10.0216
9.59561
9.09264
8.53065
7.93599
7.33716
6.75869
6.21764
5.7232
5.27819
4.88126
4.52877
4.21619
3.93884
3.69246
3.47331
3.27822
3.10464
2.95046
2.81403
2.69416
2.59019
2.50182
2.42876
2.37036
2.32535
2.29184
2.2677
2.25076
2.23908
2.2312
2.22577
2.22242
2.22066
2.21982
11.2742
11.2692
11.2621
11.2518
11.237
11.2157
11.185
11.141
11.078
10.9887
10.8632
10.6902
10.457
10.1526
9.77023
9.31191
8.78974
8.22492
7.64322
7.06933
6.52264
6.01545
5.55357
5.13792
4.7664
4.43532
4.14048
3.8777
3.64316
3.43356
3.24612
3.07855
2.92901
2.79597
2.67835
2.57546
2.48702
2.41284
2.35251
2.30513
2.26925
2.24298
2.22435
2.21141
2.20265
2.19688
2.19317
2.19117
2.19008
2.19065
2.19094
2.19167
11.2145
11.1848
11.1425
11.0829
10.9992
10.8831
10.7241
10.511
10.2333
9.88371
9.46152
8.9749
8.44061
7.88106
7.31959
6.77615
6.26492
5.79393
5.36615
4.98101
4.63589
4.32719
4.05107
3.80383
3.58211
3.38305
3.20421
3.04358
2.89955
2.7708
2.65634
2.55549
2.46798
2.39368
2.33235
2.28339
2.24566
2.21758
2.19739
2.1833
2.17373
2.16743
2.16334
2.16108
2.16015
2.16025
2.16106
2.16199
2.16357
2.16552
2.16737
10.9969
10.8849
10.7333
10.532
10.2714
9.94423
9.54898
9.09134
8.58485
8.04877
7.50434
6.97088
6.46316
5.99051
5.55741
5.16463
4.81056
4.49232
4.20652
3.94969
3.71862
3.51042
3.3226
3.15309
3.00015
2.8624
2.73869
2.62813
2.53014
2.44443
2.37092
2.30946
2.25966
2.22068
2.19123
2.16975
2.1546
2.14423
2.13743
2.13314
2.13066
2.1296
2.12946
2.13059
2.13177
2.13331
2.13545
2.1378
2.13999
2.14259
2.14511
10.2706
9.95679
9.57961
9.14368
8.66047
8.1467
7.62138
7.10246
6.60431
6.13665
5.70477
5.3104
4.95279
4.62975
4.33835
4.0755
3.83816
3.62357
3.42928
3.25319
3.09354
2.94885
2.81796
2.6999
2.5939
2.49945
2.41628
2.34432
2.28352
2.23363
2.19403
2.16366
2.1412
2.12518
2.11417
2.10692
2.10234
2.09968
2.09859
2.09855
2.09944
2.10107
2.10264
2.10485
2.10744
2.11007
2.11269
2.11565
2.11853
2.12146
2.12426
8.17611
7.67038
7.16889
6.68493
6.22787
5.80316
5.41302
5.05727
4.7343
4.44165
4.17658
3.93633
3.71833
3.52023
3.33999
3.17588
3.02641
2.89037
2.76678
2.65484
2.55391
2.46355
2.38353
2.31381
2.25437
2.20505
2.16542
2.13463
2.11158
2.09496
2.0834
2.07575
2.07098
2.06828
2.06713
2.06708
2.06787
2.06968
2.07169
2.07384
2.07664
2.07954
2.08235
2.08546
2.08871
2.09189
2.09511
2.09828
2.10145
2.10446
6.26193
5.84961
5.469
5.12025
4.80212
4.51255
4.24916
4.00947
3.79114
3.59201
3.41015
3.24387
3.09177
2.95264
2.82548
2.70948
2.60401
2.50854
2.42271
2.34634
2.2794
2.2219
2.17377
2.13468
2.10399
2.08072
2.06374
2.05184
2.04395
2.03906
2.03627
2.03511
2.03515
2.03609
2.03783
2.04022
2.04247
2.0453
2.04852
2.05169
2.05484
2.05835
2.06181
2.06528
2.06876
2.07221
2.07564
2.07903
2.08241
2.08564
4.83086
4.5485
4.29056
4.05485
3.83928
3.64189
3.46092
3.29481
3.14221
3.00199
2.87317
2.75497
2.64674
2.54797
2.45824
2.37727
2.30494
2.24122
2.18617
2.13975
2.10172
2.07156
2.04846
2.03146
2.01947
2.01144
2.00646
2.00367
2.00262
2.0028
2.00377
2.00555
2.00805
2.01086
2.01364
2.0171
2.02053
2.02387
2.02753
2.03131
2.03501
2.03875
2.04247
2.04617
2.04984
2.05349
2.05712
2.06071
2.0643
2.06775
3.86097
3.668
3.49035
3.32664
3.17563
3.03626
2.90762
2.78898
2.67969
2.57927
2.48731
2.4035
2.32764
2.25963
2.19949
2.14729
2.10302
2.06649
2.03729
2.01476
1.99802
1.98615
1.97815
1.97321
1.97059
1.9696
1.96988
1.97098
1.97298
1.97554
1.97866
1.98162
1.98511
1.98894
1.99261
1.99632
2.00034
2.00431
2.00829
2.01229
2.01625
2.02018
2.02409
2.02798
2.03184
2.03568
2.0395
2.04329
2.04707
2.05073
3.19061
3.05391
2.92718
2.80973
2.70099
2.60046
2.50779
2.42268
2.34488
2.27427
2.2108
2.15451
2.10547
2.0637
2.02905
2.0012
1.97956
1.96338
1.95184
1.94409
1.9393
1.93683
1.936
1.93647
1.93789
1.93996
1.94264
1.94588
1.94943
1.95286
1.95693
1.96089
1.96474
1.96895
1.97323
1.97744
1.98168
1.9859
1.99009
1.99426
1.9984
2.00251
2.0066
2.01066
2.01471
2.01873
2.02274
2.02672
2.03069
2.03454
2.70929
2.61009
2.51809
2.43303
2.3547
2.28293
2.21765
2.15886
2.1066
2.06096
2.02198
1.98953
1.96332
1.94288
1.92753
1.91656
1.90922
1.9047
1.90247
1.90193
1.90259
1.90423
1.90645
1.90938
1.91274
1.91664
1.92024
1.92443
1.9288
1.93295
1.93723
1.94174
1.94618
1.95066
1.95515
1.95959
1.96401
1.96839
1.97275
1.97709
1.98139
1.98568
1.98994
1.99418
1.99841
2.00261
2.0068
2.01095
2.0151
2.01914
2.35569
2.28401
2.21822
2.15829
2.10422
2.05612
2.01407
1.97809
1.94808
1.92379
1.90479
1.8905
1.88031
1.87352
1.86942
1.86754
1.86732
1.86822
1.87013
1.87265
1.87579
1.87929
1.88332
1.88743
1.8916
1.89627
1.90071
1.90507
1.90985
1.9146
1.91929
1.92401
1.9287
1.93335
1.93799
1.9426
1.94717
1.95171
1.95624
1.96073
1.9652
1.96966
1.97409
1.9785
1.98289
1.98726
1.99162
1.99594
2.00026
2.00447
2.04737
2.0035
1.96513
1.9323
1.90491
1.88274
1.8654
1.85238
1.84313
1.83705
1.83349
1.83203
1.83217
1.83339
1.83559
1.83845
1.84176
1.8455
1.84969
1.8543
1.8585
1.86334
1.86816
1.87278
1.87766
1.88264
1.88752
1.89248
1.89744
1.90235
1.90722
1.91206
1.91686
1.92164
1.9264
1.93112
1.93582
1.9405
1.94515
1.94978
1.95439
1.95898
1.96355
1.96811
1.97264
1.97715
1.98164
1.98611
1.99048
1.88492
1.86028
1.84037
1.82485
1.81325
1.8051
1.79985
1.79695
1.79599
1.79654
1.79813
1.80066
1.80383
1.80737
1.81139
1.81571
1.82058
1.82515
1.83008
1.83528
1.84014
1.84509
1.85034
1.8555
1.86067
1.86584
1.87097
1.87607
1.88115
1.8862
1.89121
1.89619
1.90114
1.90606
1.91096
1.91583
1.92068
1.9255
1.93031
1.93509
1.93985
1.94459
1.94931
1.95402
1.9587
1.96337
1.968
1.97262
1.97714
1.78331
1.77325
1.7663
1.76198
1.75983
1.75946
1.76048
1.76251
1.76536
1.76886
1.77268
1.77696
1.78149
1.78655
1.79155
1.79654
1.80197
1.80717
1.81226
1.81773
1.82316
1.8285
1.83391
1.83928
1.84461
1.84992
1.85518
1.86042
1.86562
1.8708
1.87594
1.88105
1.88614
1.8912
1.89624
1.90125
1.90624
1.91121
1.91615
1.92108
1.92598
1.93087
1.93573
1.94058
1.9454
1.95021
1.95498
1.95974
1.96441
1.72222
1.72247
1.724
1.7265
1.72973
1.73356
1.73774
1.74224
1.74701
1.75232
1.75762
1.7628
1.7684
1.77393
1.77925
1.78483
1.79049
1.79604
1.80167
1.80728
1.81283
1.81836
1.82385
1.82931
1.83473
1.84012
1.84547
1.8508
1.8561
1.86137
1.86662
1.87183
1.87703
1.8822
1.88734
1.89247
1.89757
1.90265
1.90771
1.91275
1.91777
1.92277
1.92775
1.9327
1.93764
1.94254
1.94744
1.95222
1.69017
1.69378
1.69796
1.70249
1.70724
1.71229
1.71779
1.72331
1.72884
1.73463
1.74042
1.74597
1.75166
1.75757
1.76336
1.76917
1.77499
1.78075
1.78649
1.79221
1.79788
1.80352
1.80912
1.81469
1.82022
1.82573
1.8312
1.83665
1.84207
1.84747
1.85284
1.85818
1.8635
1.86879
1.87407
1.87932
1.88455
1.88976
1.89494
1.90011
1.90526
1.91038
1.91549
1.92056
1.92562
1.93065
1.93566
1.94056
1.672
1.67731
1.68304
1.68879
1.69462
1.70057
1.70657
1.71243
1.71826
1.72439
1.73042
1.7364
1.74243
1.74842
1.75437
1.76028
1.76616
1.772
1.77782
1.78359
1.78934
1.79505
1.80072
1.80637
1.81199
1.81758
1.82314
1.82868
1.83419
1.83968
1.84514
1.85058
1.85599
1.86138
1.86676
1.87211
1.87743
1.88274
1.88803
1.89329
1.89853
1.90375
1.90895
1.91412
1.91925
1.92437
1.92938
1.6541
1.66016
1.66633
1.67254
1.67865
1.68469
1.69097
1.69722
1.70339
1.70963
1.71583
1.72198
1.7281
1.73418
1.74023
1.74624
1.75222
1.75816
1.76406
1.76994
1.77578
1.7816
1.78738
1.79313
1.79886
1.80456
1.81023
1.81588
1.8215
1.8271
1.83267
1.83822
1.84375
1.84926
1.85474
1.86021
1.86565
1.87106
1.87646
1.88183
1.88718
1.89251
1.89781
1.90308
1.90832
1.91353
1.91865
1.64467
1.65093
1.65737
1.66382
1.67019
1.67661
1.68301
1.68935
1.69567
1.70195
1.7082
1.7144
1.72058
1.72671
1.73281
1.73888
1.74491
1.75091
1.75689
1.76283
1.76874
1.77462
1.78048
1.78631
1.79211
1.79789
1.80364
1.80937
1.81507
1.82075
1.82641
1.83204
1.83765
1.84324
1.84881
1.85436
1.85988
1.86538
1.87085
1.8763
1.88172
1.88712
1.89249
1.89781
1.90312
1.90832
1.63023
1.63681
1.6434
1.64998
1.65652
1.66302
1.6695
1.67593
1.68233
1.68869
1.69501
1.7013
1.70755
1.71377
1.71996
1.72612
1.73224
1.73833
1.7444
1.75043
1.75644
1.76242
1.76837
1.7743
1.7802
1.78607
1.79192
1.79775
1.80355
1.80933
1.81509
1.82082
1.82654
1.83222
1.83789
1.84353
1.84915
1.85474
1.86031
1.86585
1.87136
1.87684
1.88229
1.8877
1.89309
1.89836
1.61678
1.6235
1.63018
1.63684
1.64345
1.65003
1.65657
1.66308
1.66955
1.67599
1.68239
1.68876
1.69509
1.70139
1.70766
1.7139
1.72011
1.72629
1.73244
1.73857
1.74467
1.75074
1.75678
1.7628
1.76879
1.77476
1.7807
1.78662
1.79252
1.79839
1.80424
1.81007
1.81587
1.82165
1.8274
1.83313
1.83884
1.84452
1.85017
1.85579
1.86139
1.86695
1.87247
1.87796
1.88341
1.88875
1.604
1.61079
1.61754
1.62426
1.63094
1.63759
1.6442
1.65077
1.65731
1.66382
1.6703
1.67674
1.68315
1.68953
1.69588
1.7022
1.70849
1.71476
1.72099
1.7272
1.73339
1.73954
1.74567
1.75178
1.75785
1.76391
1.76994
1.77595
1.78193
1.78789
1.79382
1.79973
1.80562
1.81148
1.81732
1.82313
1.82892
1.83467
1.8404
1.8461
1.85177
1.8574
1.86299
1.86854
1.87405
1.87946
1.59177
1.59861
1.60543
1.61221
1.61895
1.62566
1.63233
1.63898
1.64559
1.65216
1.65871
1.66522
1.67171
1.67816
1.68459
1.69099
1.69736
1.7037
1.71002
1.7163
1.72257
1.7288
1.73501
1.7412
1.74736
1.7535
1.75961
1.76569
1.77176
1.7778
1.78381
1.7898
1.79576
1.8017
1.80761
1.8135
1.81936
1.82518
1.83098
1.83675
1.84248
1.84817
1.85382
1.85943
1.86499
1.87044
1.58003
1.58694
1.59381
1.60064
1.60745
1.61422
1.62096
1.62766
1.63434
1.64098
1.6476
1.65418
1.66074
1.66726
1.67376
1.68023
1.68668
1.69309
1.69948
1.70584
1.71218
1.71849
1.72478
1.73104
1.73728
1.74349
1.74967
1.75583
1.76197
1.76808
1.77417
1.78023
1.78626
1.79227
1.79825
1.8042
1.81013
1.81602
1.82188
1.8277
1.83349
1.83924
1.84494
1.85058
1.85618
1.86167
1.56877
1.57573
1.58266
1.58955
1.59641
1.60324
1.61004
1.61681
1.62355
1.63025
1.63693
1.64358
1.6502
1.6568
1.66336
1.6699
1.67641
1.6829
1.68936
1.69579
1.7022
1.70858
1.71494
1.72127
1.72757
1.73385
1.74011
1.74634
1.75254
1.75872
1.76487
1.771
1.77709
1.78316
1.78921
1.79522
1.8012
1.80715
1.81306
1.81893
1.82476
1.83055
1.83629
1.84197
1.8476
1.85311
1.56497
1.57195
1.5789
1.58581
1.5927
1.59956
1.60638
1.61318
1.61995
1.62669
1.6334
1.64009
1.64674
1.65337
1.65997
1.66655
1.6731
1.67962
1.68612
1.69259
1.69904
1.70546
1.71185
1.71822
1.72457
1.73088
1.73717
1.74344
1.74968
1.75589
1.76207
1.76823
1.77436
1.78045
1.78651
1.79254
1.79853
1.80449
1.8104
1.81627
1.82209
1.82786
1.83357
1.83923
1.84476
1.55463
1.56166
1.56866
1.57563
1.58257
1.58948
1.59636
1.60322
1.61004
1.61684
1.62361
1.63035
1.63707
1.64376
1.65042
1.65706
1.66366
1.67025
1.67681
1.68334
1.68984
1.69632
1.70277
1.7092
1.7156
1.72198
1.72832
1.73464
1.74094
1.7472
1.75344
1.75964
1.76581
1.77195
1.77806
1.78412
1.79015
1.79614
1.80209
1.80799
1.81384
1.81964
1.82537
1.83104
1.83659
1.5447
1.55177
1.55882
1.56584
1.57283
1.57979
1.58673
1.59363
1.60051
1.60736
1.61419
1.62098
1.62775
1.6345
1.64121
1.6479
1.65457
1.66121
1.66782
1.6744
1.68096
1.6875
1.694
1.70048
1.70693
1.71336
1.71976
1.72613
1.73246
1.73877
1.74505
1.75129
1.7575
1.76368
1.76982
1.77592
1.78198
1.788
1.79398
1.7999
1.80577
1.81159
1.81733
1.82301
1.82856
1.54225
1.54935
1.55641
1.56345
1.57046
1.57744
1.5844
1.59133
1.59823
1.6051
1.61195
1.61877