/*--------------------------------*- C++ -*----------------------------------*\
| =========                 |                                                 |
| \\      /  F ield         | OpenFOAM: The Open Source CFD Toolbox           |
|  \\    /   O peration     | Version:  v1706                                 |
|   \\  /    A nd           | Web:      www.OpenFOAM.com                      |
|    \\/     M anipulation  |                                                 |
\*---------------------------------------------------------------------------*/
FoamFile
{
    version     2.0;
    format      ascii;
    class       volVectorField;
    location    "1.7e-05";
    object      U;
}
// * * * * * * * * * * * * * * * * * * * * * * * * * * * * * * * * * * * * * //

dimensions      [0 1 -1 0 0 0 0];


internalField   nonuniform List<vector> 
30038
(
(2764.5 -3.82036e-11 1.18464e-14)
(2764.5 -3.85125e-11 -3.18883e-15)
(2764.5 -3.54732e-11 1.06344e-14)
(2764.5 -3.8611e-11 2.21533e-15)
(2764.5 -4.08996e-11 3.6614e-15)
(2764.5 -3.75337e-11 2.91559e-15)
(2764.5 -3.87554e-11 9.16566e-15)
(2764.5 -4.01743e-11 9.02909e-15)
(2764.5 -3.9245e-11 5.79936e-15)
(2764.5 -3.85813e-11 2.81151e-15)
(2764.5 -3.5873e-11 9.24747e-15)
(2764.5 -3.84125e-11 8.35064e-15)
(2764.5 -4.0333e-11 5.65196e-15)
(2764.5 -3.98284e-11 2.31317e-15)
(2764.5 -3.87847e-11 2.55795e-15)
(2764.5 -4.22065e-11 1.00675e-14)
(2764.5 -4.67021e-11 7.96534e-15)
(2764.5 -4.86825e-11 2.99978e-15)
(2764.5 -4.95229e-11 1.51945e-15)
(2764.5 -5.22444e-11 8.18364e-15)
(2764.5 -5.31307e-11 8.48836e-15)
(2764.5 -5.48518e-11 9.99712e-15)
(2764.5 -5.8451e-11 -2.76276e-15)
(2764.5 -5.86305e-11 7.0945e-15)
(2764.5 -5.9672e-11 8.32532e-15)
(2764.5 -6.11706e-11 3.67188e-15)
(2764.5 -5.90519e-11 3.84699e-16)
(2764.5 -6.10994e-11 5.07319e-15)
(2764.5 -6.28444e-11 1.06707e-14)
(2764.5 -6.25707e-11 9.43506e-15)
(2764.5 -5.59065e-11 4.56452e-15)
(2764.5 -6.08114e-11 1.19694e-14)
(2764.5 -6.39059e-11 8.84987e-15)
(2764.5 -6.82698e-11 3.81126e-15)
(2764.5 -7.31131e-11 9.90868e-15)
(2764.5 -7.54215e-11 9.80451e-15)
(2764.5 -7.41705e-11 1.18709e-15)
(2764.5 -7.71717e-11 4.92638e-15)
(2764.5 -1.15166e-10 2.27967e-14)
(2764.5 -1.1559e-10 1.81689e-14)
(2764.5 -1.19149e-10 2.21834e-14)
(2764.5 -1.11181e-10 1.55493e-14)
(2764.5 -1.20088e-10 2.63273e-14)
(2764.5 -1.1914e-10 2.25252e-14)
(2764.5 -1.20562e-10 2.00832e-14)
(2764.5 -1.23493e-10 2.10001e-14)
(2764.5 -1.23546e-10 2.12617e-14)
(2764.5 -1.27872e-10 2.00692e-14)
(2764.5 -1.2855e-10 2.37328e-14)
(2764.5 -1.25141e-10 1.53484e-14)
(2764.5 -1.27489e-10 1.94938e-14)
(2764.5 -1.29204e-10 1.90338e-14)
(2764.5 -1.31543e-10 1.68601e-14)
(2764.5 -1.31805e-10 2.02064e-14)
(2764.5 -1.32394e-10 1.99548e-14)
(2764.5 -1.37488e-10 2.01873e-14)
(2764.5 -1.38294e-10 1.59683e-14)
(2764.5 -1.39661e-10 1.87259e-14)
(2764.5 -1.41841e-10 1.84387e-14)
(2764.5 -1.46238e-10 2.00225e-14)
(2764.5 -1.48417e-10 1.65147e-14)
(2764.5 -1.56875e-10 2.04675e-14)
(2764.5 -1.5654e-10 1.90343e-14)
(2764.5 -1.64364e-10 1.85713e-14)
(2764.5 -1.69274e-10 1.94495e-14)
(2764.5 -1.68538e-10 1.8018e-14)
(2764.5 -1.68532e-10 1.96309e-14)
(2764.5 -1.80736e-10 2.4381e-14)
(2764.5 -1.83596e-10 1.24501e-14)
(2764.5 -1.76464e-10 2.20229e-14)
(2764.5 -1.8074e-10 2.85819e-14)
(2764.5 -1.76831e-10 2.06639e-14)
(2764.5 -1.87343e-10 2.53001e-14)
(2764.5 -1.91482e-10 1.88978e-14)
(2764.5 -2.05959e-10 1.94341e-14)
(2764.5 -2.13571e-10 2.14752e-14)
(2764.5 -1.85846e-10 3.464e-14)
(2764.5 -1.88041e-10 3.59775e-14)
(2764.5 -1.92963e-10 3.58939e-14)
(2764.5 -1.88168e-10 3.07282e-14)
(2764.5 -1.91097e-10 3.35304e-14)
(2764.5 -1.94375e-10 3.09703e-14)
(2764.5 -1.94682e-10 3.4778e-14)
(2764.5 -1.99542e-10 2.82726e-14)
(2764.5 -2.01752e-10 3.12955e-14)
(2764.5 -2.06457e-10 3.11038e-14)
(2764.5 -2.12757e-10 2.8004e-14)
(2764.5 -2.1244e-10 3.23331e-14)
(2764.5 -2.15275e-10 3.28526e-14)
(2764.5 -2.15747e-10 3.36485e-14)
(2764.5 -2.18345e-10 2.91662e-14)
(2764.5 -2.19839e-10 3.48823e-14)
(2764.5 -2.22923e-10 3.47533e-14)
(2764.5 -2.27759e-10 3.27488e-14)
(2764.5 -2.31991e-10 3.08705e-14)
(2764.5 -2.34452e-10 3.20595e-14)
(2764.5 -2.36441e-10 2.92799e-14)
(2764.5 -2.43535e-10 3.13866e-14)
(2764.5 -2.42034e-10 2.84342e-14)
(2764.5 -2.48892e-10 2.88032e-14)
(2764.5 -2.49962e-10 3.41936e-14)
(2764.5 -2.51475e-10 3.41901e-14)
(2764.5 -2.58476e-10 3.02521e-14)
(2764.5 -2.647e-10 2.71207e-14)
(2764.5 -2.64174e-10 2.83968e-14)
(2764.5 -2.70883e-10 3.26996e-14)
(2764.5 -2.85439e-10 2.95553e-14)
(2764.5 -2.87174e-10 3.28448e-14)
(2764.5 -2.90606e-10 3.2321e-14)
(2764.5 -2.90628e-10 3.20914e-14)
(2764.5 -2.96347e-10 3.34322e-14)
(2764.5 -2.98217e-10 3.79116e-14)
(2764.5 -3.09618e-10 3.1584e-14)
(2764.5 -3.22587e-10 3.23993e-14)
(2764.5 -2.48962e-10 4.57093e-14)
(2764.5 -2.56242e-10 4.38238e-14)
(2764.5 -2.64281e-10 4.58094e-14)
(2764.5 -2.67923e-10 4.27144e-14)
(2764.5 -2.67736e-10 4.80922e-14)
(2764.5 -2.69199e-10 4.1902e-14)
(2764.5 -2.71662e-10 4.18995e-14)
(2764.5 -2.74013e-10 3.97351e-14)
(2764.5 -2.74517e-10 4.58499e-14)
(2764.5 -2.78166e-10 4.01035e-14)
(2764.5 -2.85242e-10 4.47429e-14)
(2764.5 -2.89757e-10 4.5784e-14)
(2764.5 -2.96753e-10 4.80367e-14)
(2764.5 -3.0102e-10 3.9694e-14)
(2764.5 -3.02018e-10 3.81803e-14)
(2764.5 -3.05344e-10 4.2958e-14)
(2764.5 -3.0569e-10 3.69397e-14)
(2764.5 -3.08816e-10 4.22662e-14)
(2764.5 -3.14799e-10 4.6164e-14)
(2764.5 -3.16851e-10 4.36624e-14)
(2764.5 -3.1666e-10 4.20958e-14)
(2764.5 -3.23076e-10 4.05374e-14)
(2764.5 -3.26634e-10 4.44737e-14)
(2764.5 -3.33042e-10 4.72676e-14)
(2764.5 -3.38668e-10 4.43726e-14)
(2764.5 -3.45073e-10 4.41969e-14)
(2764.5 -3.52454e-10 4.54415e-14)
(2764.5 -3.61649e-10 4.27221e-14)
(2764.5 -3.68274e-10 4.13259e-14)
(2764.5 -3.71449e-10 4.84361e-14)
(2764.5 -3.82095e-10 4.53237e-14)
(2764.5 -3.89068e-10 4.78806e-14)
(2764.5 -3.9379e-10 4.59045e-14)
(2764.5 -3.9534e-10 4.34552e-14)
(2764.5 -4.00494e-10 4.69661e-14)
(2764.5 -4.02681e-10 5.12969e-14)
(2764.5 -4.08998e-10 4.83548e-14)
(2764.5 -4.20672e-10 4.86886e-14)
(2764.5 -3.08796e-10 5.47923e-14)
(2764.5 -3.14332e-10 5.50875e-14)
(2764.5 -3.22199e-10 5.89293e-14)
(2764.5 -3.27417e-10 5.88321e-14)
(2764.5 -3.36009e-10 5.62714e-14)
(2764.5 -3.40093e-10 5.21569e-14)
(2764.5 -3.42227e-10 5.76868e-14)
(2764.5 -3.469e-10 5.83054e-14)
(2764.5 -3.48846e-10 6.16826e-14)
(2764.5 -3.46942e-10 5.84645e-14)
(2764.5 -3.51504e-10 5.60835e-14)
(2764.5 -3.55666e-10 5.473e-14)
(2764.5 -3.63718e-10 5.38849e-14)
(2764.5 -3.71734e-10 5.00578e-14)
(2764.5 -3.77461e-10 5.15044e-14)
(2764.5 -3.8339e-10 5.81284e-14)
(2764.5 -3.84292e-10 6.2718e-14)
(2764.5 -3.88171e-10 5.92887e-14)
(2764.5 -3.93828e-10 5.24549e-14)
(2764.5 -3.98261e-10 5.92519e-14)
(2764.5 -3.99139e-10 5.65104e-14)
(2764.5 -4.01059e-10 4.8773e-14)
(2764.5 -4.04319e-10 6.04857e-14)
(2764.5 -4.12667e-10 5.7494e-14)
(2764.5 -4.20193e-10 5.81872e-14)
(2764.5 -4.28804e-10 6.07692e-14)
(2764.5 -4.37448e-10 6.38552e-14)
(2764.5 -4.43557e-10 5.56647e-14)
(2764.5 -4.5025e-10 5.12069e-14)
(2764.5 -4.59778e-10 4.95308e-14)
(2764.5 -4.72767e-10 5.2635e-14)
(2764.5 -4.81433e-10 6.24239e-14)
(2764.5 -4.89373e-10 6.0023e-14)
(2764.5 -4.9525e-10 5.86022e-14)
(2764.5 -5.0163e-10 5.76252e-14)
(2764.5 -5.07992e-10 5.79936e-14)
(2764.5 -5.15135e-10 6.19492e-14)
(2764.5 -5.25212e-10 6.23518e-14)
(2764.5 -3.72523e-10 6.96918e-14)
(2764.5 -3.75241e-10 7.06618e-14)
(2764.5 -3.83936e-10 7.14649e-14)
(2764.5 -3.89592e-10 6.43105e-14)
(2764.5 -3.95801e-10 6.37322e-14)
(2764.5 -4.02393e-10 6.52379e-14)
(2764.5 -4.07875e-10 6.08567e-14)
(2764.5 -4.15339e-10 7.05904e-14)
(2764.5 -4.21373e-10 7.75986e-14)
(2764.5 -4.25587e-10 6.98985e-14)
(2764.5 -4.25961e-10 7.04064e-14)
(2764.5 -4.29357e-10 7.00635e-14)
(2764.5 -4.35067e-10 6.85116e-14)
(2764.5 -4.39881e-10 6.94047e-14)
(2764.5 -4.43332e-10 6.94846e-14)
(2764.5 -4.49287e-10 6.85512e-14)
(2764.5 -4.54296e-10 7.26773e-14)
(2764.5 -4.5955e-10 7.08159e-14)
(2764.5 -4.66568e-10 6.42037e-14)
(2764.5 -4.77006e-10 6.93999e-14)
(2764.5 -4.83317e-10 7.13998e-14)
(2764.5 -4.88625e-10 7.50197e-14)
(2764.5 -4.92512e-10 7.49834e-14)
(2764.5 -4.95871e-10 6.75573e-14)
(2764.5 -5.00679e-10 6.43098e-14)
(2764.5 -5.07079e-10 6.89122e-14)
(2764.5 -5.15891e-10 8.0582e-14)
(2764.5 -5.26678e-10 6.88942e-14)
(2764.5 -5.35311e-10 6.88331e-14)
(2764.5 -5.42257e-10 7.40997e-14)
(2764.5 -5.54392e-10 6.99997e-14)
(2764.5 -5.65919e-10 7.06373e-14)
(2764.5 -5.75697e-10 6.94653e-14)
(2764.5 -5.83734e-10 7.39707e-14)
(2764.5 -5.921e-10 7.65771e-14)
(2764.5 -5.99701e-10 6.91701e-14)
(2764.5 -6.06356e-10 6.82214e-14)
(2764.5 -6.17232e-10 7.23977e-14)
(2764.5 -4.29187e-10 7.91289e-14)
(2764.5 -4.33333e-10 7.484e-14)
(2764.5 -4.38488e-10 8.05583e-14)
(2764.5 -4.49585e-10 8.61489e-14)
(2764.5 -4.60451e-10 8.19592e-14)
(2764.5 -4.66597e-10 7.84395e-14)
(2764.5 -4.71831e-10 8.01094e-14)
(2764.5 -4.79858e-10 8.73267e-14)
(2764.5 -4.83127e-10 7.61002e-14)
(2764.5 -4.88175e-10 7.97938e-14)
(2764.5 -4.92135e-10 8.54243e-14)
(2764.5 -4.95984e-10 8.22641e-14)
(2764.5 -5.03362e-10 8.12325e-14)
(2764.5 -5.10444e-10 7.91668e-14)
(2764.5 -5.156e-10 7.71116e-14)
(2764.5 -5.21531e-10 8.2061e-14)
(2764.5 -5.27661e-10 7.8922e-14)
(2764.5 -5.34116e-10 8.46401e-14)
(2764.5 -5.40146e-10 8.19642e-14)
(2764.5 -5.47036e-10 8.46584e-14)
(2764.5 -5.56471e-10 8.44319e-14)
(2764.5 -5.61748e-10 8.26101e-14)
(2764.5 -5.66862e-10 8.05553e-14)
(2764.5 -5.72992e-10 8.37209e-14)
(2764.5 -5.799e-10 8.19292e-14)
(2764.5 -5.88214e-10 8.45997e-14)
(2764.5 -5.96761e-10 9.11556e-14)
(2764.5 -6.03718e-10 7.86709e-14)
(2764.5 -6.13273e-10 7.58698e-14)
(2764.5 -6.21635e-10 8.15388e-14)
(2764.5 -6.31563e-10 8.29047e-14)
(2764.5 -6.40385e-10 8.01435e-14)
(2764.5 -6.50273e-10 8.22253e-14)
(2764.5 -6.61505e-10 8.50764e-14)
(2764.5 -6.73172e-10 9.14349e-14)
(2764.5 -6.82859e-10 8.71559e-14)
(2764.5 -6.95224e-10 8.42023e-14)
(2764.5 -7.08498e-10 8.71056e-14)
(2764.5 -4.8615e-10 9.52079e-14)
(2764.5 -4.88692e-10 9.37461e-14)
(2764.5 -4.93165e-10 9.35561e-14)
(2764.5 -5.02749e-10 9.80809e-14)
(2764.5 -5.14049e-10 9.78843e-14)
(2764.5 -5.21702e-10 9.12587e-14)
(2764.5 -5.28897e-10 9.15967e-14)
(2764.5 -5.37608e-10 9.3805e-14)
(2764.5 -5.45548e-10 9.5147e-14)
(2764.5 -5.52789e-10 9.57264e-14)
(2764.5 -5.5802e-10 9.09507e-14)
(2764.5 -5.62978e-10 9.43038e-14)
(2764.5 -5.69573e-10 9.01184e-14)
(2764.5 -5.74899e-10 9.45362e-14)
(2764.5 -5.82367e-10 9.20183e-14)
(2764.5 -5.91216e-10 9.60383e-14)
(2764.5 -6.00313e-10 9.93755e-14)
(2764.5 -6.07697e-10 9.83246e-14)
(2764.5 -6.16824e-10 9.5088e-14)
(2764.5 -6.22835e-10 9.83456e-14)
(2764.5 -6.30083e-10 9.13107e-14)
(2764.5 -6.35237e-10 9.75505e-14)
(2764.5 -6.39086e-10 9.20879e-14)
(2764.5 -6.45592e-10 9.3087e-14)
(2764.5 -6.51184e-10 8.90047e-14)
(2764.5 -6.57851e-10 9.62166e-14)
(2764.5 -6.68053e-10 9.51544e-14)
(2764.5 -6.77642e-10 9.19465e-14)
(2764.5 -6.86624e-10 9.71629e-14)
(2764.5 -6.9602e-10 9.89793e-14)
(2764.5 -7.09615e-10 1.01959e-13)
(2764.5 -7.23154e-10 9.87317e-14)
(2764.5 -7.31826e-10 1.00659e-13)
(2764.5 -7.41479e-10 9.69089e-14)
(2764.5 -7.56536e-10 9.7174e-14)
(2764.5 -7.66858e-10 1.05509e-13)
(2764.5 -7.81247e-10 9.97886e-14)
(2764.5 -7.98158e-10 9.48461e-14)
(2764.5 -5.40054e-10 1.08497e-13)
(2764.5 -5.45917e-10 1.07288e-13)
(2764.5 -5.48418e-10 1.12774e-13)
(2764.5 -5.53746e-10 1.09918e-13)
(2764.5 -5.59966e-10 1.0913e-13)
(2764.5 -5.65972e-10 1.07781e-13)
(2764.5 -5.71036e-10 1.13491e-13)
(2764.5 -5.77935e-10 1.09122e-13)
(2764.5 -5.87024e-10 1.08983e-13)
(2764.5 -5.96057e-10 1.07996e-13)
(2764.5 -6.07622e-10 1.00523e-13)
(2764.5 -6.16739e-10 1.0917e-13)
(2764.5 -6.24711e-10 1.00108e-13)
(2764.5 -6.31661e-10 1.06787e-13)
(2764.5 -6.34728e-10 1.0967e-13)
(2764.5 -6.40586e-10 1.08612e-13)
(2764.5 -6.54081e-10 1.12073e-13)
(2764.5 -6.71051e-10 1.05737e-13)
(2764.5 -6.83584e-10 1.05358e-13)
(2764.5 -6.91082e-10 1.06242e-13)
(2764.5 -6.98992e-10 1.06641e-13)
(2764.5 -7.05859e-10 1.06341e-13)
(2764.5 -7.11172e-10 1.04682e-13)
(2764.5 -7.15463e-10 1.02381e-13)
(2764.5 -7.1892e-10 1.06539e-13)
(2764.5 -7.231e-10 1.07227e-13)
(2764.5 -7.29035e-10 1.10918e-13)
(2764.5 -7.39122e-10 1.06398e-13)
(2764.5 -7.50356e-10 1.08043e-13)
(2764.5 -7.62517e-10 1.06958e-13)
(2764.5 -7.73441e-10 1.09896e-13)
(2764.5 -7.85613e-10 1.09618e-13)
(2764.5 -7.9909e-10 1.11701e-13)
(2764.5 -8.10626e-10 1.08625e-13)
(2764.5 -8.18221e-10 1.15249e-13)
(2764.5 -8.3286e-10 1.15714e-13)
(2764.5 -8.44998e-10 1.12749e-13)
(2764.5 -8.63e-10 1.09467e-13)
(2764.5 -8.81853e-10 1.10824e-13)
(2764.5 -5.94961e-10 1.23071e-13)
(2764.5 -6.0037e-10 1.16622e-13)
(2764.5 -6.0304e-10 1.16518e-13)
(2764.5 -6.07884e-10 1.23528e-13)
(2764.5 -6.12914e-10 1.24318e-13)
(2764.5 -6.19503e-10 1.23655e-13)
(2764.5 -6.25482e-10 1.26594e-13)
(2764.5 -6.31727e-10 1.1858e-13)
(2764.5 -6.4241e-10 1.17586e-13)
(2764.5 -6.52596e-10 1.15367e-13)
(2764.5 -6.63445e-10 1.20052e-13)
(2764.5 -6.75922e-10 1.163e-13)
(2764.5 -6.8552e-10 1.11005e-13)
(2764.5 -6.91144e-10 1.21323e-13)
(2764.5 -6.94638e-10 1.19841e-13)
(2764.5 -7.02195e-10 1.22663e-13)
(2764.5 -7.18125e-10 1.12899e-13)
(2764.5 -7.37283e-10 1.20298e-13)
(2764.5 -7.53355e-10 1.18796e-13)
(2764.5 -7.61128e-10 1.20006e-13)
(2764.5 -7.66412e-10 1.1666e-13)
(2764.5 -7.75383e-10 1.15318e-13)
(2764.5 -7.83219e-10 1.15108e-13)
(2764.5 -7.88536e-10 1.17577e-13)
(2764.5 -7.91873e-10 1.22141e-13)
(2764.5 -7.94891e-10 1.1955e-13)
(2764.5 -8.01575e-10 1.2269e-13)
(2764.5 -8.11325e-10 1.18514e-13)
(2764.5 -8.23468e-10 1.15292e-13)
(2764.5 -8.32501e-10 1.21492e-13)
(2764.5 -8.41706e-10 1.23059e-13)
(2764.5 -8.53172e-10 1.22193e-13)
(2764.5 -8.65875e-10 1.23254e-13)
(2764.5 -8.78882e-10 1.22365e-13)
(2764.5 -8.90007e-10 1.25072e-13)
(2764.5 -9.03496e-10 1.24275e-13)
(2764.5 -9.15287e-10 1.18769e-13)
(2764.5 -9.32317e-10 1.23492e-13)
(2764.5 -9.54388e-10 1.25904e-13)
(2764.5 -6.54983e-10 1.34243e-13)
(2764.5 -6.59315e-10 1.38312e-13)
(2764.5 -6.64874e-10 1.33382e-13)
(2764.5 -6.70437e-10 1.34951e-13)
(2764.5 -6.7571e-10 1.29785e-13)
(2764.5 -6.85405e-10 1.289e-13)
(2764.5 -6.93802e-10 1.34033e-13)
(2764.5 -6.9821e-10 1.37248e-13)
(2764.5 -7.00984e-10 1.2905e-13)
(2764.5 -7.09006e-10 1.30402e-13)
(2764.5 -7.18323e-10 1.2936e-13)
(2764.5 -7.30727e-10 1.30694e-13)
(2764.5 -7.42944e-10 1.29212e-13)
(2764.5 -7.49739e-10 1.24687e-13)
(2764.5 -7.4978e-10 1.32159e-13)
(2764.5 -7.55917e-10 1.36927e-13)
(2764.5 -7.70304e-10 1.40013e-13)
(2764.5 -7.87977e-10 1.36754e-13)
(2764.5 -8.03521e-10 1.29243e-13)
(2764.5 -8.17502e-10 1.29685e-13)
(2764.5 -8.27466e-10 1.32687e-13)
(2764.5 -8.36711e-10 1.34453e-13)
(2764.5 -8.46743e-10 1.30924e-13)
(2764.5 -8.53098e-10 1.31529e-13)
(2764.5 -8.57093e-10 1.31354e-13)
(2764.5 -8.61003e-10 1.35645e-13)
(2764.5 -8.66838e-10 1.30738e-13)
(2764.5 -8.80373e-10 1.27421e-13)
(2764.5 -8.9657e-10 1.33562e-13)
(2764.5 -9.06252e-10 1.36842e-13)
(2764.5 -9.13303e-10 1.37754e-13)
(2764.5 -9.19371e-10 1.32952e-13)
(2764.5 -9.26287e-10 1.33117e-13)
(2764.5 -9.38453e-10 1.32842e-13)
(2764.5 -9.54606e-10 1.33988e-13)
(2764.5 -9.75997e-10 1.34421e-13)
(2764.5 -9.88176e-10 1.36606e-13)
(2764.5 -1.00668e-09 1.38492e-13)
(2764.5 -1.01554e-09 1.36849e-13)
(2764.5 -7.0539e-10 1.4978e-13)
(2764.5 -7.09706e-10 1.4687e-13)
(2764.5 -7.11508e-10 1.41886e-13)
(2764.5 -7.17708e-10 1.46708e-13)
(2764.5 -7.25585e-10 1.46472e-13)
(2764.5 -7.31888e-10 1.48631e-13)
(2764.5 -7.41128e-10 1.46394e-13)
(2764.5 -7.49327e-10 1.46996e-13)
(2764.5 -7.55135e-10 1.45057e-13)
(2764.5 -7.58294e-10 1.47902e-13)
(2764.5 -7.6343e-10 1.46099e-13)
(2764.5 -7.73991e-10 1.45756e-13)
(2764.5 -7.86771e-10 1.43409e-13)
(2764.5 -7.98719e-10 1.38566e-13)
(2764.5 -8.08205e-10 1.44066e-13)
(2764.5 -8.10101e-10 1.47239e-13)
(2764.5 -8.12659e-10 1.4368e-13)
(2764.5 -8.22573e-10 1.4463e-13)
(2764.5 -8.34299e-10 1.45204e-13)
(2764.5 -8.49549e-10 1.45296e-13)
(2764.5 -8.63926e-10 1.3996e-13)
(2764.5 -8.80662e-10 1.40539e-13)
(2764.5 -8.94862e-10 1.41118e-13)
(2764.5 -9.07842e-10 1.39089e-13)
(2764.5 -9.13663e-10 1.40629e-13)
(2764.5 -9.15968e-10 1.48687e-13)
(2764.5 -9.20062e-10 1.47049e-13)
(2764.5 -9.27526e-10 1.38546e-13)
(2764.5 -9.42088e-10 1.45531e-13)
(2764.5 -9.61471e-10 1.44853e-13)
(2764.5 -9.74347e-10 1.48178e-13)
(2764.5 -9.81263e-10 1.44427e-13)
(2764.5 -9.87301e-10 1.44017e-13)
(2764.5 -9.93457e-10 1.46498e-13)
(2764.5 -1.00377e-09 1.49761e-13)
(2764.5 -1.01696e-09 1.51765e-13)
(2764.5 -1.04045e-09 1.47939e-13)
(2764.5 -1.05483e-09 1.52822e-13)
(2764.5 -1.07609e-09 1.45079e-13)
(2764.5 -1.08147e-09 1.53535e-13)
(2764.5 -7.56855e-10 1.62785e-13)
(2764.5 -7.63682e-10 1.6311e-13)
(2764.5 -7.68718e-10 1.64154e-13)
(2764.5 -7.71924e-10 1.58348e-13)
(2764.5 -7.75842e-10 1.59344e-13)
(2764.5 -7.81553e-10 1.59112e-13)
(2764.5 -7.89492e-10 1.60899e-13)
(2764.5 -7.98911e-10 1.60741e-13)
(2764.5 -8.05953e-10 1.58638e-13)
(2764.5 -8.09828e-10 1.63672e-13)
(2764.5 -8.13972e-10 1.55124e-13)
(2764.5 -8.25497e-10 1.55443e-13)
(2764.5 -8.36541e-10 1.54649e-13)
(2764.5 -8.45199e-10 1.54333e-13)
(2764.5 -8.53937e-10 1.55292e-13)
(2764.5 -8.62233e-10 1.56952e-13)
(2764.5 -8.67785e-10 1.54642e-13)
(2764.5 -8.76818e-10 1.48838e-13)
(2764.5 -8.8387e-10 1.52888e-13)
(2764.5 -8.95909e-10 1.5041e-13)
(2764.5 -9.08582e-10 1.53695e-13)
(2764.5 -9.25907e-10 1.56629e-13)
(2764.5 -9.42911e-10 1.60298e-13)
(2764.5 -9.58828e-10 1.58829e-13)
(2764.5 -9.72416e-10 1.54238e-13)
(2764.5 -9.80575e-10 1.55691e-13)
(2764.5 -9.85995e-10 1.55145e-13)
(2764.5 -9.9235e-10 1.55231e-13)
(2764.5 -1.00301e-09 1.53655e-13)
(2764.5 -1.01967e-09 1.56208e-13)
(2764.5 -1.03611e-09 1.58335e-13)
(2764.5 -1.04656e-09 1.58106e-13)
(2764.5 -1.05736e-09 1.58614e-13)
(2764.5 -1.06664e-09 1.59166e-13)
(2764.5 -1.0736e-09 1.63959e-13)
(2764.5 -1.08373e-09 1.56304e-13)
(2764.5 -1.1007e-09 1.55814e-13)
(2764.5 -1.11235e-09 1.61979e-13)
(2764.5 -1.13357e-09 1.59855e-13)
(2764.5 -1.14307e-09 1.58877e-13)
(2764.5 -8.0827e-10 1.77203e-13)
(2764.5 -8.17887e-10 1.71081e-13)
(2764.5 -8.24378e-10 1.71626e-13)
(2764.5 -8.27937e-10 1.7337e-13)
(2764.5 -8.2959e-10 1.74031e-13)
(2764.5 -8.37135e-10 1.79023e-13)
(2764.5 -8.44731e-10 1.73246e-13)
(2764.5 -8.52932e-10 1.66313e-13)
(2764.5 -8.59045e-10 1.71459e-13)
(2764.5 -8.62334e-10 1.76736e-13)
(2764.5 -8.65133e-10 1.67631e-13)
(2764.5 -8.72015e-10 1.73777e-13)
(2764.5 -8.79973e-10 1.75016e-13)
(2764.5 -8.8845e-10 1.70665e-13)
(2764.5 -8.96762e-10 1.71848e-13)
(2764.5 -9.0888e-10 1.6441e-13)
(2764.5 -9.22234e-10 1.61666e-13)
(2764.5 -9.33196e-10 1.64582e-13)
(2764.5 -9.40163e-10 1.66032e-13)
(2764.5 -9.49202e-10 1.64031e-13)
(2764.5 -9.57723e-10 1.76178e-13)
(2764.5 -9.7148e-10 1.72617e-13)
(2764.5 -9.90726e-10 1.68891e-13)
(2764.5 -1.00901e-09 1.68522e-13)
(2764.5 -1.02464e-09 1.69097e-13)
(2764.5 -1.03397e-09 1.66997e-13)
(2764.5 -1.03981e-09 1.69327e-13)
(2764.5 -1.04969e-09 1.61023e-13)
(2764.5 -1.06316e-09 1.74345e-13)
(2764.5 -1.07572e-09 1.74912e-13)
(2764.5 -1.0914e-09 1.68184e-13)
(2764.5 -1.10466e-09 1.66187e-13)
(2764.5 -1.11551e-09 1.64384e-13)
(2764.5 -1.12598e-09 1.66865e-13)
(2764.5 -1.13307e-09 1.72085e-13)
(2764.5 -1.14057e-09 1.73464e-13)
(2764.5 -1.15466e-09 1.70577e-13)
(2764.5 -1.16433e-09 1.70104e-13)
(2764.5 -1.18573e-09 1.76248e-13)
(2764.5 -1.19809e-09 1.80822e-13)
(2764.5 -8.51524e-10 1.89545e-13)
(2764.5 -8.62468e-10 1.89902e-13)
(2764.5 -8.73488e-10 1.91573e-13)
(2764.5 -8.81353e-10 1.8522e-13)
(2764.5 -8.84849e-10 1.83188e-13)
(2764.5 -8.90453e-10 1.87896e-13)
(2764.5 -8.98596e-10 1.90692e-13)
(2764.5 -9.06245e-10 1.80397e-13)
(2764.5 -9.13849e-10 1.81307e-13)
(2764.5 -9.19955e-10 1.88526e-13)
(2764.5 -9.2179e-10 1.80894e-13)
(2764.5 -9.24459e-10 1.87734e-13)
(2764.5 -9.27483e-10 1.85168e-13)
(2764.5 -9.31058e-10 1.78684e-13)
(2764.5 -9.38542e-10 1.82154e-13)
(2764.5 -9.52166e-10 1.82111e-13)
(2764.5 -9.68723e-10 1.76565e-13)
(2764.5 -9.84314e-10 1.78925e-13)
(2764.5 -9.96272e-10 1.79761e-13)
(2764.5 -1.00439e-09 1.82569e-13)
(2764.5 -1.01254e-09 1.86646e-13)
(2764.5 -1.02399e-09 1.79463e-13)
(2764.5 -1.04002e-09 1.82761e-13)
(2764.5 -1.05736e-09 1.84702e-13)
(2764.5 -1.07348e-09 1.78058e-13)
(2764.5 -1.08691e-09 1.85073e-13)
(2764.5 -1.09669e-09 1.79552e-13)
(2764.5 -1.109e-09 1.78104e-13)
(2764.5 -1.12375e-09 1.83275e-13)
(2764.5 -1.13678e-09 1.76324e-13)
(2764.5 -1.14857e-09 1.80532e-13)
(2764.5 -1.15736e-09 1.8259e-13)
(2764.5 -1.16792e-09 1.82219e-13)
(2764.5 -1.17936e-09 1.75699e-13)
(2764.5 -1.19007e-09 1.823e-13)
(2764.5 -1.1989e-09 1.83161e-13)
(2764.5 -1.215e-09 1.83388e-13)
(2764.5 -1.22816e-09 1.85028e-13)
(2764.5 -1.24866e-09 1.84539e-13)
(2764.5 -1.25956e-09 1.78371e-13)
(2764.5 -8.9839e-10 2.0037e-13)
(2764.5 -9.08352e-10 2.01926e-13)
(2764.5 -9.18822e-10 2.00239e-13)
(2764.5 -9.29836e-10 1.99895e-13)
(2764.5 -9.37321e-10 1.99017e-13)
(2764.5 -9.43843e-10 1.92468e-13)
(2764.5 -9.51489e-10 1.95424e-13)
(2764.5 -9.60765e-10 1.96286e-13)
(2764.5 -9.68008e-10 1.96999e-13)
(2764.5 -9.75506e-10 1.97514e-13)
(2764.5 -9.81929e-10 1.93835e-13)
(2764.5 -9.84216e-10 1.97176e-13)
(2764.5 -9.85076e-10 1.9264e-13)
(2764.5 -9.858e-10 1.90285e-13)
(2764.5 -9.8825e-10 1.93527e-13)
(2764.5 -9.98035e-10 1.94322e-13)
(2764.5 -1.01312e-09 1.94851e-13)
(2764.5 -1.0312e-09 1.9545e-13)
(2764.5 -1.04835e-09 1.90432e-13)
(2764.5 -1.06351e-09 1.91757e-13)
(2764.5 -1.07577e-09 1.9307e-13)
(2764.5 -1.08343e-09 1.92125e-13)
(2764.5 -1.09245e-09 1.9108e-13)
(2764.5 -1.10591e-09 1.91506e-13)
(2764.5 -1.12049e-09 1.90836e-13)
(2764.5 -1.13202e-09 1.89869e-13)
(2764.5 -1.14467e-09 1.91114e-13)
(2764.5 -1.16163e-09 1.95698e-13)
(2764.5 -1.17778e-09 1.88294e-13)
(2764.5 -1.19095e-09 1.94038e-13)
(2764.5 -1.20434e-09 1.92443e-13)
(2764.5 -1.21371e-09 1.99922e-13)
(2764.5 -1.2237e-09 1.94917e-13)
(2764.5 -1.23354e-09 1.91059e-13)
(2764.5 -1.24636e-09 1.95401e-13)
(2764.5 -1.26139e-09 1.99374e-13)
(2764.5 -1.28027e-09 1.99745e-13)
(2764.5 -1.29394e-09 1.98177e-13)
(2764.5 -1.31343e-09 1.9502e-13)
(2764.5 -1.32163e-09 2.00077e-13)
(2764.5 -9.46931e-10 2.13124e-13)
(2764.5 -9.5359e-10 2.12077e-13)
(2764.5 -9.6277e-10 2.13639e-13)
(2764.5 -9.74994e-10 2.10212e-13)
(2764.5 -9.85358e-10 2.07869e-13)
(2764.5 -9.91754e-10 2.13974e-13)
(2764.5 -9.99575e-10 2.16838e-13)
(2764.5 -1.01088e-09 2.09861e-13)
(2764.5 -1.02472e-09 2.09781e-13)
(2764.5 -1.03485e-09 2.11779e-13)
(2764.5 -1.04256e-09 2.09075e-13)
(2764.5 -1.04583e-09 2.11375e-13)
(2764.5 -1.04859e-09 2.06096e-13)
(2764.5 -1.04707e-09 2.02963e-13)
(2764.5 -1.04607e-09 2.09583e-13)
(2764.5 -1.05308e-09 2.03972e-13)
(2764.5 -1.06475e-09 2.03369e-13)
(2764.5 -1.07948e-09 2.09789e-13)
(2764.5 -1.09471e-09 2.08863e-13)
(2764.5 -1.11129e-09 2.03857e-13)
(2764.5 -1.12611e-09 2.04354e-13)
(2764.5 -1.1362e-09 1.9783e-13)
(2764.5 -1.14353e-09 2.03626e-13)
(2764.5 -1.15337e-09 2.0701e-13)
(2764.5 -1.16859e-09 2.0974e-13)
(2764.5 -1.18138e-09 2.09862e-13)
(2764.5 -1.19186e-09 2.04112e-13)
(2764.5 -1.20793e-09 2.04869e-13)
(2764.5 -1.22576e-09 2.01339e-13)
(2764.5 -1.23935e-09 2.07008e-13)
(2764.5 -1.25355e-09 2.05748e-13)
(2764.5 -1.26178e-09 2.03401e-13)
(2764.5 -1.27109e-09 2.05041e-13)
(2764.5 -1.28209e-09 2.09023e-13)
(2764.5 -1.29905e-09 2.02497e-13)
(2764.5 -1.31804e-09 2.04535e-13)
(2764.5 -1.34317e-09 2.06622e-13)
(2764.5 -1.36024e-09 2.03598e-13)
(2764.5 -1.37777e-09 2.04178e-13)
(2764.5 -1.38697e-09 2.09809e-13)
(2764.5 -9.92089e-10 2.30638e-13)
(2764.5 -9.95181e-10 2.29617e-13)
(2764.5 -1.00364e-09 2.2756e-13)
(2764.5 -1.01419e-09 2.22527e-13)
(2764.5 -1.02649e-09 2.25551e-13)
(2764.5 -1.03574e-09 2.21034e-13)
(2764.5 -1.04501e-09 2.24308e-13)
(2764.5 -1.05348e-09 2.24687e-13)
(2764.5 -1.06743e-09 2.27466e-13)
(2764.5 -1.08319e-09 2.24179e-13)
(2764.5 -1.0962e-09 2.1888e-13)
(2764.5 -1.10024e-09 2.22516e-13)
(2764.5 -1.10342e-09 2.18955e-13)
(2764.5 -1.10584e-09 2.21413e-13)
(2764.5 -1.10482e-09 2.19696e-13)
(2764.5 -1.10562e-09 2.2387e-13)
(2764.5 -1.11512e-09 2.27408e-13)
(2764.5 -1.12825e-09 2.21538e-13)
(2764.5 -1.14135e-09 2.22504e-13)
(2764.5 -1.15563e-09 2.25563e-13)
(2764.5 -1.1712e-09 2.20572e-13)
(2764.5 -1.18224e-09 2.17708e-13)
(2764.5 -1.19205e-09 2.1979e-13)
(2764.5 -1.20352e-09 2.15333e-13)
(2764.5 -1.21642e-09 2.17726e-13)
(2764.5 -1.23077e-09 2.15796e-13)
(2764.5 -1.24272e-09 2.1505e-13)
(2764.5 -1.25611e-09 2.18257e-13)
(2764.5 -1.27299e-09 2.1313e-13)
(2764.5 -1.28629e-09 2.14505e-13)
(2764.5 -1.29594e-09 2.17871e-13)
(2764.5 -1.30642e-09 2.18412e-13)
(2764.5 -1.32087e-09 2.21289e-13)
(2764.5 -1.33615e-09 2.16543e-13)
(2764.5 -1.35227e-09 2.15052e-13)
(2764.5 -1.36855e-09 2.19234e-13)
(2764.5 -1.39105e-09 2.20142e-13)
(2764.5 -1.41422e-09 2.19511e-13)
(2764.5 -1.43774e-09 2.19763e-13)
(2764.5 -1.45264e-09 2.21396e-13)
(2764.5 -1.04232e-09 2.41186e-13)
(2764.5 -1.04349e-09 2.44066e-13)
(2764.5 -1.04355e-09 2.40433e-13)
(2764.5 -1.04797e-09 2.38407e-13)
(2764.5 -1.05679e-09 2.42809e-13)
(2764.5 -1.06662e-09 2.34417e-13)
(2764.5 -1.07696e-09 2.39798e-13)
(2764.5 -1.08969e-09 2.39585e-13)
(2764.5 -1.10041e-09 2.31615e-13)
(2764.5 -1.11268e-09 2.34608e-13)
(2764.5 -1.12674e-09 2.354e-13)
(2764.5 -1.14316e-09 2.3148e-13)
(2764.5 -1.15566e-09 2.29984e-13)
(2764.5 -1.16464e-09 2.33054e-13)
(2764.5 -1.17073e-09 2.33857e-13)
(2764.5 -1.16855e-09 2.30947e-13)
(2764.5 -1.16736e-09 2.39846e-13)
(2764.5 -1.17361e-09 2.32814e-13)
(2764.5 -1.18248e-09 2.2823e-13)
(2764.5 -1.19547e-09 2.29592e-13)
(2764.5 -1.20684e-09 2.32581e-13)
(2764.5 -1.22222e-09 2.29559e-13)
(2764.5 -1.23271e-09 2.29973e-13)
(2764.5 -1.23839e-09 2.31456e-13)
(2764.5 -1.24563e-09 2.26483e-13)
(2764.5 -1.25714e-09 2.31831e-13)
(2764.5 -1.2701e-09 2.32514e-13)
(2764.5 -1.2871e-09 2.2867e-13)
(2764.5 -1.30319e-09 2.28807e-13)
(2764.5 -1.31752e-09 2.31788e-13)
(2764.5 -1.33425e-09 2.3568e-13)
(2764.5 -1.34873e-09 2.24076e-13)
(2764.5 -1.35885e-09 2.27086e-13)
(2764.5 -1.37085e-09 2.37222e-13)
(2764.5 -1.3864e-09 2.28959e-13)
(2764.5 -1.40211e-09 2.29826e-13)
(2764.5 -1.41589e-09 2.33842e-13)
(2764.5 -1.43246e-09 2.36305e-13)
(2764.5 -1.45314e-09 2.31329e-13)
(2764.5 -1.47958e-09 2.32312e-13)
(2764.5 -1.49561e-09 2.30883e-13)
(2764.5 -1.09848e-09 2.586e-13)
(2764.5 -1.09992e-09 2.6289e-13)
(2764.5 -1.10274e-09 2.54022e-13)
(2764.5 -1.10603e-09 2.51574e-13)
(2764.5 -1.11176e-09 2.54532e-13)
(2764.5 -1.11877e-09 2.49556e-13)
(2764.5 -1.1284e-09 2.49848e-13)
(2764.5 -1.14272e-09 2.46034e-13)
(2764.5 -1.15677e-09 2.49528e-13)
(2764.5 -1.16643e-09 2.51441e-13)
(2764.5 -1.17557e-09 2.4559e-13)
(2764.5 -1.18763e-09 2.42934e-13)
(2764.5 -1.19704e-09 2.47166e-13)
(2764.5 -1.20681e-09 2.48573e-13)
(2764.5 -1.21486e-09 2.44323e-13)
(2764.5 -1.21754e-09 2.45353e-13)
(2764.5 -1.21677e-09 2.47031e-13)
(2764.5 -1.22224e-09 2.43726e-13)
(2764.5 -1.22883e-09 2.42975e-13)
(2764.5 -1.23819e-09 2.43548e-13)
(2764.5 -1.24964e-09 2.40985e-13)
(2764.5 -1.26429e-09 2.45994e-13)
(2764.5 -1.27662e-09 2.45623e-13)
(2764.5 -1.28108e-09 2.34901e-13)
(2764.5 -1.28664e-09 2.37306e-13)
(2764.5 -1.29573e-09 2.44833e-13)
(2764.5 -1.30925e-09 2.40009e-13)
(2764.5 -1.32779e-09 2.39538e-13)
(2764.5 -1.34768e-09 2.39085e-13)
(2764.5 -1.36831e-09 2.41815e-13)
(2764.5 -1.38517e-09 2.38465e-13)
(2764.5 -1.40011e-09 2.38521e-13)
(2764.5 -1.40983e-09 2.46675e-13)
(2764.5 -1.41975e-09 2.44177e-13)
(2764.5 -1.43244e-09 2.48568e-13)
(2764.5 -1.44628e-09 2.4949e-13)
(2764.5 -1.45843e-09 2.45123e-13)
(2764.5 -1.47297e-09 2.44289e-13)
(2764.5 -1.48977e-09 2.50256e-13)
(2764.5 -1.51868e-09 2.47197e-13)
(2764.5 -1.53723e-09 2.4582e-13)
(2764.5 -1.15017e-09 2.75903e-13)
(2764.5 -1.15694e-09 2.8115e-13)
(2764.5 -1.15889e-09 2.64754e-13)
(2764.5 -1.15995e-09 2.60101e-13)
(2764.5 -1.16523e-09 2.67474e-13)
(2764.5 -1.17268e-09 2.67107e-13)
(2764.5 -1.17748e-09 2.62844e-13)
(2764.5 -1.18624e-09 2.65641e-13)
(2764.5 -1.1959e-09 2.63923e-13)
(2764.5 -1.21013e-09 2.65097e-13)
(2764.5 -1.21965e-09 2.66165e-13)
(2764.5 -1.22709e-09 2.58343e-13)
(2764.5 -1.23485e-09 2.58539e-13)
(2764.5 -1.23897e-09 2.59508e-13)
(2764.5 -1.24708e-09 2.58901e-13)
(2764.5 -1.25589e-09 2.61822e-13)
(2764.5 -1.26175e-09 2.653e-13)
(2764.5 -1.26579e-09 2.5736e-13)
(2764.5 -1.27269e-09 2.53237e-13)
(2764.5 -1.27922e-09 2.51927e-13)
(2764.5 -1.2838e-09 2.52332e-13)
(2764.5 -1.29249e-09 2.55912e-13)
(2764.5 -1.30553e-09 2.54852e-13)
(2764.5 -1.31882e-09 2.52136e-13)
(2764.5 -1.32836e-09 2.57354e-13)
(2764.5 -1.33759e-09 2.57943e-13)
(2764.5 -1.34842e-09 2.58058e-13)
(2764.5 -1.36126e-09 2.56329e-13)
(2764.5 -1.37645e-09 2.55993e-13)
(2764.5 -1.39416e-09 2.53814e-13)
(2764.5 -1.41237e-09 2.53205e-13)
(2764.5 -1.43106e-09 2.62613e-13)
(2764.5 -1.448e-09 2.60522e-13)
(2764.5 -1.45911e-09 2.48043e-13)
(2764.5 -1.46938e-09 2.49233e-13)
(2764.5 -1.48192e-09 2.52847e-13)
(2764.5 -1.49513e-09 2.55376e-13)
(2764.5 -1.50599e-09 2.53517e-13)
(2764.5 -1.5179e-09 2.58503e-13)
(2764.5 -1.53111e-09 2.6143e-13)
(2764.5 -1.55925e-09 2.54873e-13)
(2764.5 -1.57656e-09 2.56427e-13)
(2764.5 -1.19091e-09 2.83635e-13)
(2764.5 -1.20112e-09 2.84223e-13)
(2764.5 -1.20797e-09 2.81909e-13)
(2764.5 -1.21251e-09 2.77567e-13)
(2764.5 -1.21322e-09 2.8331e-13)
(2764.5 -1.21606e-09 2.86009e-13)
(2764.5 -1.22289e-09 2.81029e-13)
(2764.5 -1.23089e-09 2.81276e-13)
(2764.5 -1.24011e-09 2.79406e-13)
(2764.5 -1.24787e-09 2.79023e-13)
(2764.5 -1.25963e-09 2.79102e-13)
(2764.5 -1.26908e-09 2.74892e-13)
(2764.5 -1.27592e-09 2.6882e-13)
(2764.5 -1.28229e-09 2.72521e-13)
(2764.5 -1.28845e-09 2.73486e-13)
(2764.5 -1.2947e-09 2.6882e-13)
(2764.5 -1.30121e-09 2.71908e-13)
(2764.5 -1.30883e-09 2.6916e-13)
(2764.5 -1.31618e-09 2.65267e-13)
(2764.5 -1.32404e-09 2.60418e-13)
(2764.5 -1.33217e-09 2.64025e-13)
(2764.5 -1.3375e-09 2.71509e-13)
(2764.5 -1.34239e-09 2.71971e-13)
(2764.5 -1.35296e-09 2.61815e-13)
(2764.5 -1.36524e-09 2.68591e-13)
(2764.5 -1.37725e-09 2.71878e-13)
(2764.5 -1.38818e-09 2.66665e-13)
(2764.5 -1.40113e-09 2.65221e-13)
(2764.5 -1.41507e-09 2.66135e-13)
(2764.5 -1.42869e-09 2.63169e-13)
(2764.5 -1.44476e-09 2.64441e-13)
(2764.5 -1.45906e-09 2.66579e-13)
(2764.5 -1.47267e-09 2.67733e-13)
(2764.5 -1.4873e-09 2.60742e-13)
(2764.5 -1.50072e-09 2.61792e-13)
(2764.5 -1.51142e-09 2.63473e-13)
(2764.5 -1.5247e-09 2.61284e-13)