/*--------------------------------*- C++ -*----------------------------------*\
| =========                 |                                                 |
| \\      /  F ield         | OpenFOAM: The Open Source CFD Toolbox           |
|  \\    /   O peration     | Version:  v1706                                 |
|   \\  /    A nd           | Web:      www.OpenFOAM.com                      |
|    \\/     M anipulation  |                                                 |
\*---------------------------------------------------------------------------*/
FoamFile
{
    version     2.0;
    format      ascii;
    class       volVectorField;
    location    "3.4e-05";
    object      U;
}
// * * * * * * * * * * * * * * * * * * * * * * * * * * * * * * * * * * * * * //

dimensions      [0 1 -1 0 0 0 0];


internalField   nonuniform List<vector> 
29987
(
(1760 -2.25028e-08 4.13795e-11)
(1760 -7.40894e-09 1.30671e-11)
(1760 -3.30911e-09 5.93544e-12)
(1760 -1.97226e-09 3.49915e-12)
(1760 -1.34169e-09 2.33368e-12)
(1760 -9.74811e-10 1.69757e-12)
(1760 -7.40705e-10 1.29099e-12)
(1760 -5.83772e-10 1.01413e-12)
(1760 -4.73546e-10 8.18993e-13)
(1760 -3.90672e-10 6.9227e-13)
(1760 -3.26901e-10 5.1607e-13)
(1760 -2.80542e-10 4.5501e-13)
(1760 -2.46925e-10 4.14907e-13)
(1760 -2.15843e-10 3.5092e-13)
(1760 -1.90509e-10 3.09455e-13)
(1760 -1.7213e-10 2.6539e-13)
(1760 -1.55447e-10 2.24513e-13)
(1760 -1.41366e-10 1.92846e-13)
(1760 -1.28831e-10 1.82612e-13)
(1760 -1.1908e-10 1.71399e-13)
(1760 -1.12261e-10 1.65573e-13)
(1760 -1.02205e-10 1.39867e-13)
(1760 -9.46901e-11 1.31871e-13)
(1760 -8.91097e-11 1.12952e-13)
(1760 -8.62287e-11 1.14639e-13)
(1760 -8.03284e-11 1.12297e-13)
(1760 -7.41696e-11 9.13015e-14)
(1760 -7.18042e-11 8.18209e-14)
(1760 -7.06267e-11 8.82252e-14)
(1760 -6.62647e-11 8.11736e-14)
(1760 -6.27878e-11 8.45893e-14)
(1760 -6.13921e-11 7.46953e-14)
(1760 -5.9419e-11 6.51885e-14)
(1760 -5.55787e-11 6.00117e-14)
(1760 -5.59285e-11 6.14732e-14)
(1760 -5.27369e-11 5.45276e-14)
(1760 -5.14591e-11 5.35966e-14)
(1760 -4.92033e-11 4.37236e-14)
(1760 -4.95267e-11 4.16767e-14)
(1760 -4.81052e-11 4.67615e-14)
(1760 -4.62816e-11 3.74929e-14)
(1760 -4.4355e-11 3.76069e-14)
(1760 -4.39874e-11 4.48067e-14)
(1760 -4.436e-11 3.85228e-14)
(1760 -4.31295e-11 3.53511e-14)
(1760 -4.08313e-11 3.24098e-14)
(1760 -4.14033e-11 4.42741e-14)
(1760 -4.09237e-11 2.9599e-14)
(1760 -3.99594e-11 2.82481e-14)
(1760 -3.86483e-11 3.32821e-14)
(1760 -3.87562e-11 3.27971e-14)
(1760 -3.89431e-11 2.96636e-14)
(1760 -3.83205e-11 2.87691e-14)
(1760 -3.72759e-11 2.62579e-14)
(1760 -3.63708e-11 2.68649e-14)
(1760 -3.69245e-11 2.20206e-14)
(1760 -3.63128e-11 1.99136e-14)
(1760 -3.60424e-11 1.99067e-14)
(1760 -3.59666e-11 2.14477e-14)
(1760 -3.52034e-11 2.49954e-14)
(1760 -3.5278e-11 2.44923e-14)
(1760 -3.48334e-11 1.4097e-14)
(1760 -3.49246e-11 1.85879e-14)
(1760 -3.52583e-11 2.05001e-14)
(1760 -3.37952e-11 1.5709e-14)
(1760 -3.34772e-11 1.39777e-14)
(1760 -3.26763e-11 1.49416e-14)
(1760 -3.36471e-11 1.91548e-14)
(1760 -3.44847e-11 1.84396e-14)
(1760 -3.36403e-11 1.57728e-14)
(1760 -3.31424e-11 1.35088e-14)
(1760 -3.34864e-11 1.60483e-14)
(1760 -3.40693e-11 1.43743e-14)
(1760 -3.31019e-11 1.5126e-14)
(1760 -3.34004e-11 1.82397e-14)
(1760 -3.38506e-11 1.63489e-14)
(1760 -3.30453e-11 1.47084e-14)
(1760 -3.34306e-11 1.68063e-14)
(1760 -3.30283e-11 1.03182e-14)
(1760 -3.3458e-11 6.41586e-15)
(1760 -3.26198e-11 1.05433e-14)
(1760 -3.36234e-11 1.10516e-14)
(1760 -3.42604e-11 7.83496e-15)
(1760 -3.41861e-11 1.07632e-14)
(1760 -3.42867e-11 1.21167e-14)
(1760 -3.42592e-11 1.06405e-14)
(1760 -3.34561e-11 9.28192e-15)
(1760 -3.263e-11 9.73754e-15)
(1760 -3.22414e-11 1.26949e-14)
(1760 -3.32998e-11 8.61137e-15)
(1760 -3.35871e-11 6.71555e-15)
(1760 -3.31623e-11 7e-15)
(1760 -3.23052e-11 1.09185e-14)
(1760 -3.4077e-11 1.21403e-14)
(1760 -3.44509e-11 1.27783e-14)
(1760 -3.45835e-11 1.22195e-14)
(1760 -3.3974e-11 7.89338e-15)
(1760 -3.40364e-11 1.07448e-14)
(1760 -3.42026e-11 1.07886e-14)
(1760 -3.50033e-11 7.72606e-15)
(1760 -3.54208e-11 7.42986e-15)
(1760 -3.55293e-11 1.28465e-14)
(1760 -3.61681e-11 1.2218e-14)
(1760 -3.7137e-11 9.25198e-15)
(1760 -3.66729e-11 9.55695e-15)
(1760 -3.7132e-11 7.6808e-15)
(1760 -3.6775e-11 6.90516e-15)
(1760 -3.65035e-11 7.40914e-15)
(1760 -3.54827e-11 9.84354e-15)
(1760 -3.60457e-11 7.34008e-15)
(1760 -3.68442e-11 7.88314e-15)
(1760 -3.74033e-11 7.5642e-15)
(1760 -3.84806e-11 9.18785e-15)
(1760 -3.91589e-11 7.63979e-15)
(1760 -3.96113e-11 9.88375e-15)
(1760 -3.92864e-11 7.41198e-15)
(1760 -3.94341e-11 8.603e-15)
(1760 -3.88721e-11 1.17331e-14)
(1760 -3.88809e-11 1.13063e-14)
(1760 -3.85628e-11 6.04439e-15)
(1760 -3.88139e-11 7.54119e-15)
(1760 -3.91087e-11 8.81803e-15)
(1760 -3.98053e-11 7.37345e-15)
(1760 -4.02764e-11 8.3677e-15)
(1760 -4.08168e-11 8.81622e-15)
(1760 -4.11409e-11 8.23948e-15)
(1760 -4.11704e-11 8.99294e-15)
(1760 -4.18338e-11 7.57405e-15)
(1760 -4.22322e-11 8.95627e-15)
(1760 -4.26113e-11 8.00073e-15)
(1760 -4.32046e-11 1.07446e-14)
(1760 -4.32279e-11 1.24779e-14)
(1760 -4.5494e-11 4.85209e-15)
(1760 -4.529e-11 3.72421e-15)
(1760 -4.53831e-11 6.04181e-15)
(1760 -4.50261e-11 4.42552e-15)
(1760 -4.58272e-11 9.03491e-15)
(1760 -4.6158e-11 8.10485e-15)
(1760 -4.68034e-11 4.73116e-15)
(1760 -4.77374e-11 9.91725e-15)
(1760 -4.65865e-11 2.1146e-15)
(1760 -4.65626e-11 3.39773e-15)
(1760 -4.91207e-11 6.78855e-15)
(1760 -4.961e-11 5.83502e-15)
(1760 -5.13661e-11 7.89526e-15)
(1760 -5.20017e-11 7.10861e-15)
(1760 -5.27544e-11 8.9589e-15)
(1760 -5.21529e-11 8.15544e-15)
(1760 -5.20288e-11 6.75966e-15)
(1760 -5.19049e-11 6.31507e-15)
(1760 -5.3603e-11 3.35001e-15)
(1760 -5.52693e-11 4.6106e-15)
(1760 -5.51765e-11 3.93157e-15)
(1760 -5.51886e-11 9.48194e-15)
(1760 -5.64976e-11 5.48775e-15)
(1760 -5.68011e-11 7.64969e-15)
(1760 -6.29902e-08 1.07797e-10)
(1760 -2.70653e-08 4.37395e-11)
(1760 -1.27651e-08 1.9972e-11)
(1760 -7.20582e-09 1.14417e-11)
(1760 -4.68117e-09 7.50122e-12)
(1760 -3.33093e-09 5.3515e-12)
(1760 -2.50751e-09 3.99907e-12)
(1760 -1.96312e-09 3.09543e-12)
(1760 -1.58386e-09 2.50274e-12)
(1760 -1.30584e-09 2.0274e-12)
(1760 -1.09458e-09 1.62666e-12)
(1760 -9.33894e-10 1.41719e-12)
(1760 -8.14197e-10 1.19757e-12)
(1760 -7.12718e-10 1.04435e-12)
(1760 -6.30189e-10 8.92876e-13)
(1760 -5.63449e-10 8.19564e-13)
(1760 -5.07835e-10 7.08965e-13)
(1760 -4.61519e-10 6.38022e-13)
(1760 -4.23537e-10 5.91073e-13)
(1760 -3.93105e-10 5.32664e-13)
(1760 -3.6548e-10 4.85711e-13)
(1760 -3.34917e-10 4.16055e-13)
(1760 -3.10243e-10 3.91667e-13)
(1760 -2.92932e-10 3.55085e-13)
(1760 -2.75033e-10 3.45206e-13)
(1760 -2.5908e-10 3.30043e-13)
(1760 -2.43092e-10 3.00364e-13)
(1760 -2.31043e-10 2.76638e-13)
(1760 -2.23566e-10 2.64825e-13)
(1760 -2.14692e-10 2.49121e-13)
(1760 -2.0212e-10 2.15789e-13)
(1760 -1.94132e-10 2.13219e-13)
(1760 -1.89526e-10 1.76071e-13)
(1760 -1.79045e-10 1.65172e-13)
(1760 -1.75013e-10 1.72566e-13)
(1760 -1.70313e-10 1.68952e-13)
(1760 -1.64907e-10 1.55071e-13)
(1760 -1.58054e-10 1.51652e-13)
(1760 -1.5539e-10 1.42888e-13)
(1760 -1.49149e-10 1.2942e-13)
(1760 -1.4581e-10 1.15281e-13)
(1760 -1.42272e-10 1.19875e-13)
(1760 -1.40913e-10 1.27288e-13)
(1760 -1.38612e-10 1.12868e-13)
(1760 -1.35652e-10 9.03012e-14)
(1760 -1.30821e-10 1.05732e-13)
(1760 -1.27574e-10 1.02801e-13)
(1760 -1.26662e-10 8.82622e-14)
(1760 -1.2555e-10 8.90622e-14)
(1760 -1.23267e-10 9.65952e-14)
(1760 -1.20371e-10 9.45581e-14)
(1760 -1.20182e-10 8.12797e-14)
(1760 -1.19577e-10 7.95183e-14)
(1760 -1.16313e-10 6.64783e-14)
(1760 -1.13213e-10 6.86083e-14)
(1760 -1.12566e-10 6.45732e-14)
(1760 -1.12741e-10 6.41902e-14)
(1760 -1.11866e-10 6.37531e-14)
(1760 -1.11915e-10 7.18835e-14)
(1760 -1.08753e-10 7.11828e-14)
(1760 -1.07274e-10 6.02458e-14)
(1760 -1.05587e-10 5.08357e-14)
(1760 -1.07367e-10 6.27355e-14)
(1760 -1.07435e-10 5.64996e-14)
(1760 -1.06551e-10 5.36572e-14)
(1760 -1.05141e-10 5.39124e-14)
(1760 -1.0228e-10 4.74343e-14)
(1760 -1.01482e-10 5.21548e-14)
(1760 -1.03928e-10 5.06359e-14)
(1760 -1.03018e-10 4.63823e-14)
(1760 -1.01259e-10 4.83266e-14)
(1760 -1.01579e-10 5.02522e-14)
(1760 -1.03009e-10 4.42672e-14)
(1760 -1.00668e-10 4.5169e-14)
(1760 -1.00945e-10 4.90269e-14)
(1760 -1.03557e-10 5.10193e-14)
(1760 -1.01199e-10 4.62098e-14)
(1760 -1.02457e-10 4.40797e-14)
(1760 -1.01754e-10 3.11121e-14)
(1760 -1.01306e-10 3.01306e-14)
(1760 -9.91691e-11 3.56204e-14)
(1760 -9.97401e-11 3.36851e-14)
(1760 -1.00218e-10 3.09906e-14)
(1760 -1.00758e-10 3.75697e-14)
(1760 -1.02524e-10 4.21322e-14)
(1760 -1.01955e-10 3.91823e-14)
(1760 -1.04488e-10 3.40403e-14)
(1760 -1.03368e-10 3.96657e-14)
(1760 -1.01181e-10 3.57038e-14)
(1760 -9.96752e-11 2.83355e-14)
(1760 -9.97022e-11 3.18022e-14)
(1760 -1.0541e-10 2.70143e-14)
(1760 -1.00367e-10 3.45204e-14)
(1760 -9.74661e-11 3.57851e-14)
(1760 -9.97218e-11 3.9831e-14)
(1760 -1.03774e-10 3.19068e-14)
(1760 -1.04252e-10 2.385e-14)
(1760 -1.0352e-10 2.60796e-14)
(1760 -1.02889e-10 2.40555e-14)
(1760 -1.03023e-10 2.50023e-14)
(1760 -1.0361e-10 2.60068e-14)
(1760 -1.03571e-10 2.69021e-14)
(1760 -1.03721e-10 2.94477e-14)
(1760 -1.06606e-10 2.14619e-14)
(1760 -1.08074e-10 2.25159e-14)
(1760 -1.08374e-10 2.14136e-14)
(1760 -1.10545e-10 2.29754e-14)
(1760 -1.11848e-10 2.14869e-14)
(1760 -1.1002e-10 1.88098e-14)
(1760 -1.09544e-10 2.05223e-14)
(1760 -1.09979e-10 2.40993e-14)
(1760 -1.0982e-10 2.32587e-14)
(1760 -1.10184e-10 2.33442e-14)
(1760 -1.10814e-10 2.49302e-14)
(1760 -1.12292e-10 2.70319e-14)
(1760 -1.14322e-10 2.57818e-14)
(1760 -1.16362e-10 2.69994e-14)
(1760 -1.16686e-10 2.65334e-14)
(1760 -1.18037e-10 2.25999e-14)
(1760 -1.18256e-10 1.78136e-14)
(1760 -1.18595e-10 2.01187e-14)
(1760 -1.19271e-10 2.10455e-14)
(1760 -1.19499e-10 2.16198e-14)
(1760 -1.19756e-10 2.25996e-14)
(1760 -1.21151e-10 2.34955e-14)
(1760 -1.23138e-10 2.2129e-14)
(1760 -1.23813e-10 2.21121e-14)
(1760 -1.24001e-10 2.07789e-14)
(1760 -1.25953e-10 2.1138e-14)
(1760 -1.27324e-10 2.34511e-14)
(1760 -1.28341e-10 2.30098e-14)
(1760 -1.28317e-10 1.8408e-14)
(1760 -1.30579e-10 1.80702e-14)
(1760 -1.31867e-10 2.037e-14)
(1760 -1.33859e-10 1.71118e-14)
(1760 -1.34947e-10 2.0583e-14)
(1760 -1.36171e-10 2.0334e-14)
(1760 -1.36361e-10 1.73899e-14)
(1760 -1.3667e-10 2.00829e-14)
(1760 -1.41602e-10 2.37767e-14)
(1760 -1.46303e-10 1.66735e-14)
(1760 -1.42068e-10 2.1669e-14)
(1760 -1.41552e-10 1.97714e-14)
(1760 -1.43342e-10 2.08857e-14)
(1760 -1.46978e-10 1.74675e-14)
(1760 -1.48289e-10 2.16197e-14)
(1760 -1.51779e-10 2.00969e-14)
(1760 -1.54644e-10 2.11532e-14)
(1760 -1.57003e-10 2.45202e-14)
(1760 -1.57372e-10 1.91527e-14)
(1760 -1.56699e-10 1.62841e-14)
(1760 -1.60922e-10 1.24643e-14)
(1760 -1.65241e-10 1.59248e-14)
(1760 -1.65165e-10 1.8497e-14)
(1760 -1.66949e-10 1.65005e-14)
(1760 -1.67123e-10 1.83432e-14)
(1760 -9.30498e-08 1.56641e-10)
(1760 -4.73904e-08 7.42208e-11)
(1760 -2.41441e-08 3.58164e-11)
(1760 -1.36856e-08 2.00863e-11)
(1760 -8.72749e-09 1.28045e-11)
(1760 -6.10148e-09 8.95833e-12)
(1760 -4.54552e-09 6.73834e-12)
(1760 -3.53818e-09 5.18388e-12)
(1760 -2.84171e-09 4.16635e-12)
(1760 -2.33972e-09 3.37265e-12)
(1760 -1.9617e-09 2.80579e-12)
(1760 -1.66889e-09 2.41026e-12)
(1760 -1.44604e-09 2.0378e-12)
(1760 -1.26763e-09 1.75914e-12)
(1760 -1.12216e-09 1.56154e-12)
(1760 -9.98238e-10 1.36578e-12)
(1760 -8.98668e-10 1.18254e-12)
(1760 -8.18067e-10 1.07328e-12)
(1760 -7.49447e-10 9.54413e-13)
(1760 -6.9196e-10 8.90578e-13)
(1760 -6.43196e-10 7.93613e-13)
(1760 -5.90321e-10 6.98682e-13)
(1760 -5.45126e-10 6.71574e-13)
(1760 -5.18235e-10 6.0977e-13)
(1760 -4.83712e-10 5.92817e-13)
(1760 -4.54474e-10 5.48495e-13)
(1760 -4.27583e-10 5.20232e-13)
(1760 -4.04676e-10 4.70638e-13)
(1760 -3.91126e-10 4.28164e-13)
(1760 -3.73898e-10 4.05231e-13)
(1760 -3.54896e-10 3.69758e-13)
(1760 -3.38156e-10 3.63178e-13)
(1760 -3.25816e-10 3.24217e-13)
(1760 -3.13987e-10 3.18328e-13)
(1760 -3.03694e-10 3.0815e-13)
(1760 -2.93981e-10 2.71592e-13)
(1760 -2.8502e-10 2.54796e-13)
(1760 -2.74144e-10 2.55449e-13)
(1760 -2.687e-10 2.54025e-13)
(1760 -2.58153e-10 2.26402e-13)
(1760 -2.5144e-10 2.15334e-13)
(1760 -2.44604e-10 2.08794e-13)
(1760 -2.42624e-10 2.07964e-13)
(1760 -2.39889e-10 1.91165e-13)
(1760 -2.34045e-10 1.74361e-13)
(1760 -2.25553e-10 1.74561e-13)
(1760 -2.18839e-10 1.69889e-13)
(1760 -2.1734e-10 1.66598e-13)
(1760 -2.13412e-10 1.6372e-13)
(1760 -2.10218e-10 1.70627e-13)
(1760 -2.06834e-10 1.54846e-13)
(1760 -2.06705e-10 1.43592e-13)
(1760 -2.04437e-10 1.34888e-13)
(1760 -2.00346e-10 1.30463e-13)
(1760 -1.94915e-10 1.22457e-13)
(1760 -1.91013e-10 1.21155e-13)
(1760 -1.9e-10 1.13179e-13)
(1760 -1.9204e-10 1.09307e-13)
(1760 -1.91163e-10 1.20956e-13)
(1760 -1.86888e-10 1.16587e-13)
(1760 -1.83499e-10 1.08646e-13)
(1760 -1.80452e-10 1.1089e-13)
(1760 -1.80236e-10 1.02001e-13)
(1760 -1.81284e-10 8.45023e-14)
(1760 -1.80334e-10 9.42654e-14)
(1760 -1.77592e-10 8.95891e-14)
(1760 -1.74167e-10 8.20358e-14)
(1760 -1.73259e-10 9.01408e-14)
(1760 -1.73725e-10 8.00401e-14)
(1760 -1.72615e-10 7.55594e-14)
(1760 -1.73346e-10 7.55215e-14)
(1760 -1.71714e-10 7.81781e-14)
(1760 -1.72377e-10 7.41757e-14)
(1760 -1.693e-10 7.64455e-14)
(1760 -1.68259e-10 8.02854e-14)
(1760 -1.71443e-10 7.82369e-14)
(1760 -1.70142e-10 6.94774e-14)
(1760 -1.70517e-10 6.98673e-14)
(1760 -1.71431e-10 6.98363e-14)
(1760 -1.70604e-10 6.69109e-14)
(1760 -1.68043e-10 6.26672e-14)
(1760 -1.67371e-10 5.84621e-14)
(1760 -1.67789e-10 5.50863e-14)
(1760 -1.68692e-10 5.57373e-14)
(1760 -1.6904e-10 5.54649e-14)
(1760 -1.71603e-10 5.53775e-14)
(1760 -1.73676e-10 6.18349e-14)
(1760 -1.74198e-10 6.50431e-14)
(1760 -1.72281e-10 5.69018e-14)
(1760 -1.69932e-10 5.54212e-14)
(1760 -1.68257e-10 5.17976e-14)
(1760 -1.74107e-10 5.08699e-14)
(1760 -1.73014e-10 5.83264e-14)
(1760 -1.69787e-10 6.31273e-14)
(1760 -1.68838e-10 6.1268e-14)
(1760 -1.69673e-10 4.64062e-14)
(1760 -1.72717e-10 4.26837e-14)
(1760 -1.73172e-10 4.66955e-14)
(1760 -1.75265e-10 4.71259e-14)
(1760 -1.74647e-10 4.63011e-14)
(1760 -1.73552e-10 4.12251e-14)
(1760 -1.73559e-10 4.63439e-14)
(1760 -1.73007e-10 4.44797e-14)
(1760 -1.73317e-10 4.14548e-14)
(1760 -1.76321e-10 4.71421e-14)
(1760 -1.77232e-10 4.39896e-14)
(1760 -1.8127e-10 4.01663e-14)
(1760 -1.83279e-10 3.7285e-14)
(1760 -1.83077e-10 3.8534e-14)
(1760 -1.83062e-10 4.07735e-14)
(1760 -1.8269e-10 3.58096e-14)
(1760 -1.83501e-10 3.52115e-14)
(1760 -1.84095e-10 3.62692e-14)
(1760 -1.85479e-10 3.88407e-14)
(1760 -1.85371e-10 3.98871e-14)
(1760 -1.87298e-10 4.62712e-14)
(1760 -1.90563e-10 4.76546e-14)
(1760 -1.92234e-10 4.70434e-14)
(1760 -1.95315e-10 3.94801e-14)
(1760 -1.95645e-10 3.80524e-14)
(1760 -1.95806e-10 3.8936e-14)
(1760 -1.97897e-10 3.81998e-14)
(1760 -1.98756e-10 3.67177e-14)
(1760 -1.99246e-10 3.44153e-14)
(1760 -2.00174e-10 3.55501e-14)
(1760 -2.02222e-10 3.64149e-14)
(1760 -2.04268e-10 3.56091e-14)
(1760 -2.05237e-10 3.66042e-14)
(1760 -2.06176e-10 4.0642e-14)
(1760 -2.08568e-10 3.82174e-14)
(1760 -2.10615e-10 3.39518e-14)
(1760 -2.13108e-10 3.74205e-14)
(1760 -2.14603e-10 3.78364e-14)
(1760 -2.1685e-10 3.3589e-14)
(1760 -2.18824e-10 3.7792e-14)
(1760 -2.21578e-10 2.93192e-14)
(1760 -2.24017e-10 2.76357e-14)
(1760 -2.22798e-10 3.39763e-14)
(1760 -2.23966e-10 3.75437e-14)
(1760 -2.27844e-10 3.37484e-14)
(1760 -2.35535e-10 2.86463e-14)
(1760 -2.38251e-10 2.81576e-14)
(1760 -2.39342e-10 3.24681e-14)
(1760 -2.3775e-10 3.01354e-14)
(1760 -2.39979e-10 3.46159e-14)
(1760 -2.42834e-10 2.85247e-14)
(1760 -2.46802e-10 2.97829e-14)
(1760 -2.51946e-10 3.33637e-14)
(1760 -2.56062e-10 3.74798e-14)
(1760 -2.57832e-10 3.31197e-14)
(1760 -2.59089e-10 3.24928e-14)
(1760 -2.6087e-10 3.13365e-14)
(1760 -2.66497e-10 3.0166e-14)
(1760 -2.72039e-10 2.63404e-14)
(1760 -2.75633e-10 3.28146e-14)
(1760 -2.75961e-10 3.24996e-14)
(1760 -1.14835e-07 1.92256e-10)
(1760 -6.65022e-08 1.02208e-10)
(1760 -3.66241e-08 5.24559e-11)
(1760 -2.12838e-08 2.93737e-11)
(1760 -1.35234e-08 1.84831e-11)
(1760 -9.34104e-09 1.28068e-11)
(1760 -6.88974e-09 9.50755e-12)
(1760 -5.32544e-09 7.36228e-12)
(1760 -4.25537e-09 5.8792e-12)
(1760 -3.49426e-09 4.81506e-12)
(1760 -2.92969e-09 3.94628e-12)
(1760 -2.49146e-09 3.3717e-12)
(1760 -2.14975e-09 2.88514e-12)
(1760 -1.8813e-09 2.50986e-12)
(1760 -1.66278e-09 2.25481e-12)
(1760 -1.47893e-09 1.94023e-12)
(1760 -1.33013e-09 1.697e-12)
(1760 -1.2084e-09 1.5068e-12)
(1760 -1.10551e-09 1.33872e-12)
(1760 -1.01841e-09 1.25518e-12)
(1760 -9.44862e-10 1.11804e-12)
(1760 -8.72428e-10 1.03818e-12)
(1760 -8.04733e-10 9.49412e-13)
(1760 -7.5682e-10 8.79353e-13)
(1760 -7.10052e-10 8.06448e-13)
(1760 -6.6772e-10 7.51418e-13)
(1760 -6.28463e-10 6.97701e-13)
(1760 -5.94624e-10 6.46805e-13)
(1760 -5.70409e-10 6.21418e-13)
(1760 -5.43587e-10 5.72856e-13)
(1760 -5.18337e-10 5.41184e-13)
(1760 -4.9496e-10 5.11318e-13)
(1760 -4.73708e-10 4.93424e-13)
(1760 -4.58367e-10 4.57636e-13)
(1760 -4.4118e-10 4.29885e-13)
(1760 -4.24756e-10 4.00694e-13)
(1760 -4.11627e-10 3.79402e-13)
(1760 -3.98412e-10 3.4955e-13)
(1760 -3.87513e-10 3.46712e-13)
(1760 -3.74848e-10 3.15115e-13)
(1760 -3.62564e-10 3.07733e-13)
(1760 -3.52975e-10 2.89085e-13)
(1760 -3.48557e-10 2.84979e-13)
(1760 -3.45472e-10 2.67968e-13)
(1760 -3.38444e-10 2.723e-13)
(1760 -3.26325e-10 2.45291e-13)
(1760 -3.1836e-10 2.42731e-13)
(1760 -3.12132e-10 2.33467e-13)
(1760 -3.06588e-10 2.35298e-13)
(1760 -3.004e-10 2.24413e-13)
(1760 -2.95631e-10 2.09461e-13)
(1760 -2.93034e-10 2.04381e-13)
(1760 -2.89953e-10 1.9452e-13)
(1760 -2.86824e-10 1.86319e-13)
(1760 -2.81394e-10 1.71923e-13)
(1760 -2.73726e-10 1.75775e-13)
(1760 -2.69624e-10 1.66958e-13)
(1760 -2.72947e-10 1.62582e-13)
(1760 -2.71207e-10 1.69328e-13)
(1760 -2.66871e-10 1.62651e-13)
(1760 -2.61897e-10 1.50444e-13)
(1760 -2.58746e-10 1.4023e-13)
(1760 -2.57084e-10 1.33797e-13)
(1760 -2.575e-10 1.36259e-13)
(1760 -2.56413e-10 1.44254e-13)
(1760 -2.53236e-10 1.33438e-13)
(1760 -2.4885e-10 1.26684e-13)
(1760 -2.46508e-10 1.27487e-13)
(1760 -2.46949e-10 1.12312e-13)
(1760 -2.43892e-10 1.09884e-13)
(1760 -2.45608e-10 1.10249e-13)
(1760 -2.4568e-10 1.15317e-13)
(1760 -2.43729e-10 1.1244e-13)
(1760 -2.40085e-10 1.12761e-13)
(1760 -2.37783e-10 1.07966e-13)
(1760 -2.40319e-10 1.03461e-13)
(1760 -2.40912e-10 1.06726e-13)
(1760 -2.41058e-10 1.0887e-13)
(1760 -2.41506e-10 1.00566e-13)
(1760 -2.39766e-10 9.24851e-14)
(1760 -2.36888e-10 8.63568e-14)
(1760 -2.36338e-10 9.36346e-14)
(1760 -2.35656e-10 8.77536e-14)
(1760 -2.38239e-10 8.8502e-14)
(1760 -2.37745e-10 8.63758e-14)
(1760 -2.39438e-10 8.8605e-14)
(1760 -2.40901e-10 8.54143e-14)
(1760 -2.42243e-10 8.07574e-14)
(1760 -2.42816e-10 7.7004e-14)
(1760 -2.40728e-10 8.1483e-14)
(1760 -2.38775e-10 7.95722e-14)
(1760 -2.3989e-10 7.91578e-14)
(1760 -2.41713e-10 8.1839e-14)
(1760 -2.40554e-10 8.56639e-14)
(1760 -2.39709e-10 7.42465e-14)
(1760 -2.38501e-10 7.26658e-14)
(1760 -2.41024e-10 7.53083e-14)
(1760 -2.4085e-10 6.80959e-14)
(1760 -2.42851e-10 6.65933e-14)
(1760 -2.44583e-10 6.36019e-14)
(1760 -2.45508e-10 5.93187e-14)
(1760 -2.45538e-10 6.0354e-14)
(1760 -2.4588e-10 6.21741e-14)
(1760 -2.44819e-10 6.60105e-14)
(1760 -2.45663e-10 6.42712e-14)
(1760 -2.47555e-10 6.25868e-14)
(1760 -2.50375e-10 6.03163e-14)
(1760 -2.5473e-10 5.92269e-14)
(1760 -2.54805e-10 5.58056e-14)
(1760 -2.56737e-10 5.06532e-14)
(1760 -2.56305e-10 5.17677e-14)
(1760 -2.57008e-10 5.20958e-14)
(1760 -2.57963e-10 5.7114e-14)
(1760 -2.58607e-10 5.75286e-14)
(1760 -2.5884e-10 6.10092e-14)
(1760 -2.61146e-10 5.98681e-14)
(1760 -2.63517e-10 5.93881e-14)
(1760 -2.65514e-10 5.43886e-14)
(1760 -2.68679e-10 5.0601e-14)
(1760 -2.72055e-10 5.36858e-14)
(1760 -2.73079e-10 5.40409e-14)
(1760 -2.74641e-10 5.07004e-14)
(1760 -2.77086e-10 4.79996e-14)
(1760 -2.78193e-10 5.09065e-14)
(1760 -2.80045e-10 5.22276e-14)
(1760 -2.81141e-10 5.1135e-14)
(1760 -2.83443e-10 5.52584e-14)
(1760 -2.85803e-10 5.60617e-14)
(1760 -2.87528e-10 5.08231e-14)
(1760 -2.89411e-10 4.97099e-14)
(1760 -2.91174e-10 5.00256e-14)
(1760 -2.93383e-10 5.07537e-14)
(1760 -2.95453e-10 4.81978e-14)
(1760 -2.98651e-10 4.80647e-14)
(1760 -3.01363e-10 5.0298e-14)
(1760 -3.04647e-10 4.74841e-14)
(1760 -3.09519e-10 5.37646e-14)
(1760 -3.12289e-10 5.32432e-14)
(1760 -3.1211e-10 4.92785e-14)
(1760 -3.14349e-10 4.59164e-14)
(1760 -3.18144e-10 4.54897e-14)
(1760 -3.23341e-10 4.51092e-14)
(1760 -3.29447e-10 4.49998e-14)
(1760 -3.31179e-10 4.52172e-14)
(1760 -3.33969e-10 4.55275e-14)
(1760 -3.36445e-10 4.87903e-14)
(1760 -3.39064e-10 4.88633e-14)
(1760 -3.44626e-10 4.81079e-14)
(1760 -3.51671e-10 4.48623e-14)
(1760 -3.5664e-10 4.54256e-14)
(1760 -3.58677e-10 4.48453e-14)
(1760 -3.60822e-10 4.72096e-14)
(1760 -3.63758e-10 4.69673e-14)
(1760 -3.6946e-10 4.1139e-14)
(1760 -3.77705e-10 4.32453e-14)
(1760 -3.81472e-10 4.29068e-14)
(1760 -1.31029e-07 2.18784e-10)
(1760 -8.3649e-08 1.27285e-10)
(1760 -4.94906e-08 6.90874e-11)
(1760 -2.97601e-08 3.92696e-11)
(1760 -1.90503e-08 2.46966e-11)
(1760 -1.30893e-08 1.69785e-11)
(1760 -9.5667e-09 1.24401e-11)
(1760 -7.34268e-09 9.61554e-12)
(1760 -5.84188e-09 7.68238e-12)
(1760 -4.7776e-09 6.29978e-12)
(1760 -3.99747e-09 5.19996e-12)
(1760 -3.39734e-09 4.38221e-12)
(1760 -2.9246e-09 3.73107e-12)
(1760 -2.5538e-09 3.24856e-12)
(1760 -2.25518e-09 2.86349e-12)
(1760 -2.0045e-09 2.51477e-12)
(1760 -1.80121e-09 2.20855e-12)
(1760 -1.63548e-09 1.99097e-12)
(1760 -1.49307e-09 1.80781e-12)
(1760 -1.37433e-09 1.6254e-12)
(1760 -1.27018e-09 1.48475e-12)
(1760 -1.17488e-09 1.36531e-12)
(1760 -1.08651e-09 1.22932e-12)
(1760 -1.0163e-09 1.1456e-12)
(1760 -9.54307e-10 1.04484e-12)
(1760 -8.98056e-10 1.00065e-12)
(1760 -8.44653e-10 9.17213e-13)
(1760 -7.97989e-10 8.72865e-13)
(1760 -7.64082e-10 8.25741e-13)
(1760 -7.26499e-10 7.59531e-13)
(1760 -6.92728e-10 7.00636e-13)
(1760 -6.62924e-10 6.68293e-13)
(1760 -6.34203e-10 6.11331e-13)
(1760 -6.11764e-10 5.72118e-13)
(1760 -5.88847e-10 5.52299e-13)
(1760 -5.65387e-10 5.26823e-13)
(1760 -5.46356e-10 4.95219e-13)
(1760 -5.28813e-10 4.69368e-13)
(1760 -5.13269e-10 4.3385e-13)
(1760 -4.97732e-10 4.1359e-13)
(1760 -4.82538e-10 4.10332e-13)
(1760 -4.68592e-10 3.96327e-13)
(1760 -4.58932e-10 3.76312e-13)
(1760 -4.53349e-10 3.66821e-13)
(1760 -4.44699e-10 3.50366e-13)
(1760 -4.32185e-10 3.35467e-13)
(1760 -4.24725e-10 3.11813e-13)
(1760 -4.12535e-10 3.01303e-13)
(1760 -4.01946e-10 2.88432e-13)
(1760 -3.97395e-10 2.69727e-13)
(1760 -3.90216e-10 2.73652e-13)
(1760 -3.83146e-10 2.62252e-13)
(1760 -3.82064e-10 2.55141e-13)
(1760 -3.76427e-10 2.46045e-13)
(1760 -3.69509e-10 2.42288e-13)
(1760 -3.61482e-10 2.33397e-13)
(1760 -3.54377e-10 2.14535e-13)
(1760 -3.55144e-10 2.10032e-13)
(1760 -3.52625e-10 2.13171e-13)
(1760 -3.49921e-10 1.94984e-13)
(1760 -3.44874e-10 1.87221e-13)
(1760 -3.39685e-10 1.8137e-13)
(1760 -3.35477e-10 1.83931e-13)
(1760 -3.34336e-10 1.89385e-13)
(1760 -3.32858e-10 1.73561e-13)
(1760 -3.28132e-10 1.75789e-13)
(1760 -3.25736e-10 1.71169e-13)
(1760 -3.21974e-10 1.56843e-13)
(1760 -3.22314e-10 1.63007e-13)
(1760 -3.19369e-10 1.58768e-13)
(1760 -3.17927e-10 1.48914e-13)
(1760 -3.16928e-10 1.49067e-13)
(1760 -3.16867e-10 1.43155e-13)
(1760 -3.12439e-10 1.39418e-13)
(1760 -3.09957e-10 1.42282e-13)
(1760 -3.10234e-10 1.3945e-13)
(1760 -3.10323e-10 1.39608e-13)
(1760 -3.12116e-10 1.30177e-13)
(1760 -3.13771e-10 1.20632e-13)
(1760 -3.10862e-10 1.22549e-13)
(1760 -3.07508e-10 1.29232e-13)
(1760 -3.07097e-10 1.191e-13)
(1760 -3.05791e-10 1.13786e-13)
(1760 -3.06335e-10 1.13122e-13)
(1760 -3.06808e-10 1.13155e-13)
(1760 -3.08313e-10 1.07013e-13)
(1760 -3.09801e-10 1.03533e-13)
(1760 -3.10141e-10 1.08776e-13)
(1760 -3.12495e-10 1.13835e-13)
(1760 -3.11993e-10 1.11064e-13)
(1760 -3.0963e-10 1.02462e-13)
(1760 -3.08835e-10 1.01407e-13)
(1760 -3.09552e-10 9.96474e-14)
(1760 -3.1009e-10 9.63665e-14)
(1760 -3.09956e-10 9.55488e-14)
(1760 -3.07868e-10 9.76495e-14)
(1760 -3.08416e-10 8.96665e-14)
(1760 -3.09862e-10 8.96495e-14)
(1760 -3.10613e-10 9.08809e-14)
(1760 -3.12286e-10 8.49804e-14)
(1760 -3.14718e-10 8.0285e-14)
(1760 -3.14621e-10 8.28514e-14)
(1760 -3.17328e-10 8.58598e-14)
(1760 -3.17688e-10 7.83649e-14)
(1760 -3.1899e-10 7.90528e-14)
(1760 -3.18911e-10 8.14618e-14)
(1760 -3.20744e-10 7.96936e-14)
(1760 -3.23421e-10 7.83594e-14)
(1760 -3.264e-10 7.50874e-14)
(1760 -3.28287e-10 7.69909e-14)
(1760 -3.29039e-10 7.72237e-14)
(1760 -3.29394e-10 7.56314e-14)
(1760 -3.30065e-10 7.62596e-14)
(1760 -3.31039e-10 6.60069e-14)
(1760 -3.31271e-10 6.69155e-14)
(1760 -3.35028e-10 7.08196e-14)
(1760 -3.37367e-10 7.4116e-14)
(1760 -3.39222e-10 7.06946e-14)
(1760 -3.41886e-10 7.36917e-14)
(1760 -3.45496e-10 7.45393e-14)
(1760 -3.48603e-10 6.562e-14)
(1760 -3.50211e-10 6.3034e-14)
(1760 -3.53153e-10 6.96454e-14)
(1760 -3.5455e-10 6.84424e-14)
(1760 -3.56659e-10 6.3974e-14)
(1760 -3.5871e-10 6.99213e-14)
(1760 -3.60424e-10 7.05945e-14)
(1760 -3.62541e-10 6.3665e-14)
(1760 -3.64918e-10 6.21972e-14)
(1760 -3.68736e-10 6.16452e-14)
(1760 -3.7079e-10 6.26599e-14)
(1760 -3.73982e-10 6.57832e-14)
(1760 -3.77407e-10 6.45227e-14)
(1760 -3.8125e-10 6.64963e-14)
(1760 -3.84177e-10 6.71441e-14)
(1760 -3.87478e-10 6.61369e-14)
(1760 -3.90263e-10 6.61195e-14)
(1760 -3.95558e-10 6.11872e-14)
(1760 -3.98582e-10 6.23582e-14)
(1760 -3.98989e-10 5.65768e-14)
(1760 -4.02046e-10 5.99715e-14)
(1760 -4.06525e-10 5.80003e-14)
(1760 -4.12905e-10 5.96559e-14)
(1760 -4.17358e-10 6.05049e-14)
(1760 -4.22294e-10 5.92537e-14)
(1760 -4.26521e-10 5.90966e-14)
(1760 -4.29714e-10 5.86199e-14)
(1760 -4.31571e-10 5.37972e-14)
(1760 -4.38054e-10 5.52015e-14)
(1760 -4.4736e-10 5.71441e-14)
(1760 -4.51832e-10 5.41682e-14)
(1760 -4.56839e-10 6.2222e-14)
(1760 -4.62137e-10 5.36655e-14)
(1760 -4.66833e-10 5.41687e-14)
(1760 -4.74122e-10 6.03148e-14)
(1760 -4.80329e-10 5.93039e-14)
(1760 -1.435e-07 2.39702e-10)
(1760 -9.87045e-08 1.49197e-10)
(1760 -6.22125e-08 8.51421e-11)
(1760 -3.88421e-08 4.96689e-11)
(1760 -2.52282e-08 3.12806e-11)
(1760 -1.73393e-08 2.1328e-11)
(1760 -1.26028e-08 1.56422e-11)
(1760 -9.61036e-09 1.19392e-11)
(1760 -7.60498e-09 9.45351e-12)
(1760 -6.1964e-09 7.70578e-12)
(1760 -5.17113e-09 6.40652e-12)
(1760 -4.3888e-09 5.39969e-12)
(1760 -3.77341e-09 4.62919e-12)
(1760 -3.28783e-09 4.03296e-12)
(1760 -2.89812e-09 3.48184e-12)
(1760 -2.57643e-09 3.06704e-12)
(1760 -2.31337e-09 2.74817e-12)
(1760 -2.09802e-09 2.44117e-12)
(1760 -1.91329e-09 2.21481e-12)
(1760 -1.75498e-09 1.98562e-12)
(1760 -1.62008e-09 1.81933e-12)
(1760 -1.49951e-09 1.66196e-12)
(1760 -1.39115e-09 1.51571e-12)
(1760 -1.29688e-09 1.37066e-12)
(1760 -1.21576e-09 1.29587e-12)
(1760 -1.14197e-09 1.2186e-12)
(1760 -1.07608e-09 1.13141e-12)
(1760 -1.01538e-09 1.06526e-12)
(1760 -9.66682e-10 9.75663e-13)
(1760 -9.20315e-10 8.94365e-13)
(1760 -8.80816e-10 8.59766e-13)
(1760 -8.40829e-10 8.01502e-13)
(1760 -8.04763e-10 7.51109e-13)
(1760 -7.74247e-10 7.20668e-13)
(1760 -7.4503e-10 6.77877e-13)
(1760 -7.16301e-10 6.19808e-13)
(1760 -6.88222e-10 6.20624e-13)
(1760 -6.64945e-10 5.80718e-13)
(1760 -6.46985e-10 5.52065e-13)
(1760 -6.2822e-10 5.31305e-13)
(1760 -6.09403e-10 4.93561e-13)
(1760 -5.9123e-10 4.73074e-13)
(1760 -5.76151e-10 4.56016e-13)
(1760 -5.67761e-10 4.42576e-13)
(1760 -5.5606e-10 4.23239e-13)
(1760 -5.41526e-10 4.16112e-13)
(1760 -5.32581e-10 3.83542e-13)
(1760 -5.19038e-10 3.71931e-13)
(1760 -5.05314e-10 3.61047e-13)
(1760 -4.97103e-10 3.39534e-13)
(1760 -4.87845e-10 3.29211e-13)
(1760 -4.77878e-10 3.19091e-13)
(1760 -4.75812e-10 3.05698e-13)
(1760 -4.68652e-10 3.0173e-13)
(1760 -4.61047e-10 2.85169e-13)
(1760 -4.52332e-10 2.72535e-13)
(1760 -4.4329e-10 2.66945e-13)
(1760 -4.41505e-10 2.67433e-13)
(1760 -4.38578e-10 2.52638e-13)
(1760 -4.34283e-10 2.4148e-13)
(1760 -4.2887e-10 2.38933e-13)
(1760 -4.23515e-10 2.29257e-13)
(1760 -4.18102e-10 2.25321e-13)
(1760 -4.13967e-10 2.16202e-13)
(1760 -4.1203e-10 2.13636e-13)
(1760 -4.06167e-10 2.15476e-13)
(1760 -4.04473e-10 2.00835e-13)
(1760 -3.99976e-10 1.91126e-13)
(1760 -3.97346e-10 1.98674e-13)
(1760 -3.94581e-10 1.89642e-13)
(1760 -3.92406e-10 1.82114e-13)
(1760 -3.91935e-10 1.78807e-13)
(1760 -3.91629e-10 1.77502e-13)
(1760 -3.86308e-10 1.67258e-13)
(1760 -3.8325e-10 1.72401e-13)
(1760 -3.82938e-10 1.66565e-13)
(1760 -3.80785e-10 1.61073e-13)
(1760 -3.82265e-10 1.56402e-13)
(1760 -3.83492e-10 1.68803e-13)
(1760 -3.83108e-10 1.607e-13)
(1760 -3.80738e-10 1.54785e-13)
(1760 -3.77939e-10 1.45089e-13)
(1760 -3.76183e-10 1.43841e-13)
(1760 -3.76516e-10 1.34077e-13)
(1760 -3.76324e-10 1.36998e-13)
(1760 -3.76202e-10 1.28702e-13)
(1760 -3.78581e-10 1.34416e-13)
(1760 -3.79237e-10 1.30401e-13)
(1760 -3.81994e-10 1.30949e-13)
(1760 -3.82194e-10 1.21188e-13)
(1760 -3.81057e-10 1.20468e-13)
(1760 -3.80141e-10 1.24175e-13)
(1760 -3.80036e-10 1.19331e-13)
(1760 -3.81974e-10 1.15903e-13)
(1760 -3.80842e-10 1.17477e-13)
(1760 -3.7995e-10 1.16285e-13)
(1760 -3.78115e-10 1.08387e-13)
(1760 -3.79145e-10 1.10697e-13)
(1760 -3.79147e-10 1.10545e-13)
(1760 -3.80575e-10 1.09668e-13)
(1760 -3.84389e-10 1.05952e-13)
(1760 -3.85123e-10 1.07138e-13)
(1760 -3.861e-10 9.81018e-14)
(1760 -3.87198e-10 9.70042e-14)
(1760 -3.89767e-10 1.01031e-13)
(1760 -3.91562e-10 9.99747e-14)
(1760 -3.92298e-10 9.89969e-14)
(1760 -3.93134e-10 9.63898e-14)
(1760 -3.97293e-10 9.88324e-14)
(1760 -4.01176e-10 1.00281e-13)
(1760 -4.02929e-10 9.3223e-14)
(1760 -4.04279e-10 9.05965e-14)
(1760 -4.06572e-10 8.73093e-14)
(1760 -4.06823e-10 8.8143e-14)
(1760 -4.05308e-10 9.10277e-14)
(1760 -4.07983e-10 9.06677e-14)
(1760 -4.12027e-10 9.30329e-14)
(1760 -4.1309e-10 9.38872e-14)
(1760 -4.15315e-10 9.36251e-14)
(1760 -4.18414e-10 8.84814e-14)
(1760 -4.21345e-10 7.84329e-14)
(1760 -4.23659e-10 8.59074e-14)
(1760 -4.28084e-10 9.07027e-14)
(1760 -4.31274e-10 8.30182e-14)
(1760 -4.3303e-10 8.00762e-14)
(1760 -4.36473e-10 8.1065e-14)
(1760 -4.38834e-10 8.12777e-14)
(1760 -4.41426e-10 8.09919e-14)
(1760 -4.44543e-10 8.242e-14)
(1760 -4.48945e-10 8.05834e-14)
(1760 -4.51406e-10 8.19615e-14)
(1760 -4.53713e-10 8.20836e-14)
(1760 -4.55818e-10 8.09934e-14)
(1760 -4.59572e-10 8.16021e-14)
(1760 -4.64311e-10 8.02223e-14)
(1760 -4.6804e-10 8.03195e-14)
(1760 -4.70865e-10 7.90701e-14)