/*--------------------------------*- C++ -*----------------------------------*\
| =========                 |                                                 |
| \\      /  F ield         | OpenFOAM: The Open Source CFD Toolbox           |
|  \\    /   O peration     | Version:  v1706                                 |
|   \\  /    A nd           | Web:      www.OpenFOAM.com                      |
|    \\/     M anipulation  |                                                 |
\*---------------------------------------------------------------------------*/
FoamFile
{
    version     2.0;
    format      ascii;
    class       volScalarField;
    location    "3.4e-05";
    object      wallHeatFlux;
}
// * * * * * * * * * * * * * * * * * * * * * * * * * * * * * * * * * * * * * //

dimensions      [1 0 -3 0 0 0 0];


internalField   uniform 0;

boundaryField
{
    cone
    {
        type            calculated;
        value           nonuniform List<scalar> 
147
(
243687
243636
243563
243499
243412
243320
243208
243084
242943
242787
242616
242430
242229
242012
241781
241534
241272
240994
240701
240393
240070
239731
239377
239007
238622
238222
237806
237376
236930
236469
235993
235502
234997
234477
233942
233393
232829
232251
231660
231054
230434
229800
229153
228493
227819
227132
226432
225719
224993
224255
223504
222740
221964
221176
220376
219564
218741
217908
217063
216208
215343
214466
213579
212682
211774
210856
209928
208990
208042
207084
206117
205140
204155
203160
202157
201144
200124
199095
198057
197012
195959
194898
193830
192754
191671
190581
189485
188381
187272
186156
185034
183906
182772
181633
180488
179338
178184
177024
175860
174691
173518
172341
171160
169976
168788
167597
166403
165206
164006
162803
161599
160392
159183
157973
156761
155548
154333
153118
151902
150685
149467
148250
147032
145815
144597
143380
142164
140949
139734
138521
137309
136098
134889
133682
132476
131273
130072
128874
127678
126485
125296
124111
122933
121759
120588
119418
243953
)
;
    }
    inlet
    {
        type            calculated;
        value           uniform 0;
    }
    rWedge
    {
        type            wedge;
    }
    lWedge
    {
        type            wedge;
    }
    outlet
    {
        type            calculated;
        value           nonuniform 0();
    }
    procBoundary3to2
    {
        type            processor;
        value           uniform 0;
    }
}


// ************************************************************************* //
