/*--------------------------------*- C++ -*----------------------------------*\
| =========                 |                                                 |
| \\      /  F ield         | OpenFOAM: The Open Source CFD Toolbox           |
|  \\    /   O peration     | Version:  v1706                                 |
|   \\  /    A nd           | Web:      www.OpenFOAM.com                      |
|    \\/     M anipulation  |                                                 |
\*---------------------------------------------------------------------------*/
FoamFile
{
    version     2.0;
    format      ascii;
    class       volScalarField;
    location    "1.9e-05";
    object      Mach;
}
// * * * * * * * * * * * * * * * * * * * * * * * * * * * * * * * * * * * * * //

dimensions      [0 0 0 0 0 0 0];


internalField   nonuniform List<scalar> 
29871
(
3.99497
3.99497
3.99496
3.99496
3.99496
3.99496
3.99496
3.99496
3.99496
3.99495
3.99495
3.99495
3.99495
3.99495
3.99494
3.99494
3.99494
3.99494
3.99493
3.99493
3.99493
3.99493
3.99493
3.99492
3.99492
3.99492
3.99492
3.99491
3.99491
3.99491
3.99491
3.99491
3.9949
3.9949
3.9949
3.9949
3.9949
3.9949
3.9949
3.9949
3.9949
3.9949
3.9949
3.9949
3.9949
3.9949
3.9949
3.9949
3.9949
3.9949
3.9949
3.9949
3.99491
3.99491
3.99491
3.99491
3.99491
3.99491
3.99492
3.99492
3.99492
3.99492
3.99493
3.99493
3.99493
3.99493
3.99493
3.99493
3.99494
3.99494
3.99494
3.99494
3.99494
3.99494
3.99495
3.99495
3.99495
3.99495
3.99495
3.99495
3.99495
3.99495
3.99495
3.99495
3.99495
3.99495
3.99496
3.99496
3.99496
3.99496
3.99496
3.99496
3.99496
3.99496
3.99496
3.99496
3.99495
3.99495
3.99495
3.99495
3.99495
3.99495
3.99495
3.99495
3.99495
3.99491
3.99491
3.9949
3.99489
3.99489
3.99488
3.99487
3.99486
3.99485
3.99484
3.99483
3.99482
3.9948
3.99479
3.99478
3.99477
3.99475
3.99474
3.99473
3.99471
3.9947
3.99468
3.99467
3.99466
3.99464
3.99463
3.99461
3.9946
3.99459
3.99458
3.99456
3.99455
3.99454
3.99453
3.99452
3.99452
3.99451
3.9945
3.9945
3.9945
3.99449
3.99449
3.99449
3.99449
3.99449
3.9945
3.9945
3.9945
3.99451
3.99452
3.99452
3.99453
3.99454
3.99455
3.99456
3.99457
3.99458
3.99459
3.99461
3.99462
3.99463
3.99464
3.99466
3.99467
3.99468
3.99469
3.9947
3.99472
3.99473
3.99474
3.99475
3.99476
3.99477
3.99477
3.99478
3.99479
3.9948
3.9948
3.99481
3.99481
3.99482
3.99482
3.99483
3.99483
3.99483
3.99483
3.99484
3.99484
3.99484
3.99484
3.99484
3.99484
3.99484
3.99484
3.99484
3.99483
3.99483
3.99483
3.99483
3.99483
3.99483
3.99483
3.99482
3.99482
3.99482
3.99479
3.99477
3.99475
3.99473
3.99471
3.99468
3.99466
3.99463
3.9946
3.99457
3.99454
3.9945
3.99447
3.99443
3.99439
3.99435
3.99431
3.99427
3.99422
3.99418
3.99413
3.99409
3.99404
3.994
3.99395
3.99391
3.99387
3.99382
3.99378
3.99374
3.9937
3.99367
3.99363
3.9936
3.99357
3.99354
3.99352
3.99349
3.99348
3.99346
3.99345
3.99344
3.99343
3.99343
3.99343
3.99344
3.99345
3.99346
3.99347
3.99349
3.99351
3.99353
3.99356
3.99359
3.99362
3.99365
3.99368
3.99372
3.99376
3.99379
3.99383
3.99387
3.99391
3.99395
3.99398
3.99402
3.99406
3.9941
3.99413
3.99417
3.9942
3.99423
3.99426
3.99429
3.99432
3.99434
3.99437
3.99439
3.99441
3.99443
3.99444
3.99446
3.99447
3.99448
3.99449
3.9945
3.9945
3.99451
3.99451
3.99451
3.99451
3.99451
3.99451
3.99451
3.99451
3.9945
3.9945
3.99449
3.99449
3.99448
3.99447
3.99447
3.99446
3.99445
3.99445
3.99444
3.99447
3.99441
3.99436
3.9943
3.99423
3.99417
3.99409
3.99402
3.99393
3.99385
3.99376
3.99366
3.99357
3.99346
3.99336
3.99325
3.99314
3.99302
3.9929
3.99279
3.99267
3.99254
3.99242
3.9923
3.99218
3.99206
3.99194
3.99182
3.99171
3.9916
3.9915
3.9914
3.9913
3.99121
3.99113
3.99106
3.99099
3.99093
3.99088
3.99084
3.99081
3.99079
3.99078
3.99077
3.99078
3.99079
3.99081
3.99085
3.99089
3.99093
3.99099
3.99105
3.99112
3.9912
3.99128
3.99137
3.99146
3.99155
3.99165
3.99175
3.99185
3.99196
3.99206
3.99216
3.99227
3.99237
3.99247
3.99257
3.99266
3.99275
3.99284
3.99293
3.99301
3.99308
3.99316
3.99322
3.99329
3.99334
3.99339
3.99344
3.99348
3.99352
3.99355
3.99358
3.9936
3.99362
3.99363
3.99364
3.99365
3.99365
3.99365
3.99364
3.99364
3.99363
3.99362
3.99361
3.99359
3.99357
3.99356
3.99354
3.99352
3.99349
3.99347
3.99345
3.99342
3.9934
3.99376
3.99364
3.9935
3.99335
3.9932
3.99303
3.99285
3.99266
3.99246
3.99225
3.99203
3.9918
3.99156
3.99131
3.99105
3.99078
3.9905
3.99021
3.98992
3.98962
3.98931
3.98901
3.9887
3.98839
3.98808
3.98777
3.98747
3.98717
3.98688
3.9866
3.98633
3.98607
3.98582
3.98559
3.98538
3.98518
3.985
3.98484
3.9847
3.98458
3.98449
3.98441
3.98436
3.98434
3.98433
3.98435
3.9844
3.98445
3.98453
3.98464
3.98476
3.98491
3.98507
3.98525
3.98544
3.98564
3.98586
3.98609
3.98633
3.98657
3.98682
3.98708
3.98734
3.98759
3.98785
3.98811
3.98836
3.98861
3.98885
3.98909
3.98932
3.98954
3.98975
3.98995
3.99013
3.99031
3.99047
3.99062
3.99076
3.99089
3.991
3.99109
3.99118
3.99125
3.99131
3.99136
3.9914
3.99142
3.99144
3.99145
3.99144
3.99143
3.99142
3.99139
3.99136
3.99132
3.99128
3.99123
3.99118
3.99112
3.99106
3.991
3.99094
3.99087
3.9908
3.99073
3.99065
3.99188
3.99156
3.99122
3.99085
3.99046
3.99004
3.9896
3.98912
3.98862
3.9881
3.98755
3.98697
3.98637
3.98574
3.9851
3.98443
3.98375
3.98305
3.98233
3.98161
3.98088
3.98014
3.9794
3.97865
3.97792
3.97718
3.97646
3.97576
3.97507
3.9744
3.97376
3.97315
3.97257
3.97202
3.97152
3.97106
3.97065
3.97028
3.96997
3.96971
3.9695
3.96935
3.96925
3.96921
3.96922
3.96929
3.96941
3.96956
3.96978
3.97004
3.97036
3.97071
3.97111
3.97155
3.97202
3.97252
3.97304
3.9736
3.97417
3.97476
3.97536
3.97596
3.97658
3.97719
3.9778
3.97841
3.97901
3.97959
3.98016
3.98072
3.98125
3.98176
3.98225
3.98271
3.98315
3.98355
3.98393
3.98427
3.98458
3.98487
3.98511
3.98533
3.98552
3.98567
3.98579
3.98589
3.98595
3.98599
3.98601
3.98599
3.98596
3.98592
3.98586
3.98577
3.98567
3.98555
3.98542
3.98528
3.98512
3.98496
3.98479
3.98461
3.98442
3.98422
3.98402
3.98382
3.98361
3.98928
3.98865
3.98798
3.98725
3.98646
3.98562
3.98471
3.98375
3.98273
3.98164
3.9805
3.9793
3.97804
3.97672
3.97534
3.97391
3.97242
3.97089
3.9693
3.96768
3.96601
3.96432
3.96262
3.9609
3.95917
3.95745
3.95574
3.95404
3.95237
3.95074
3.94914
3.94759
3.9461
3.94468
3.94333
3.94205
3.94087
3.93978
3.9388
3.93792
3.93716
3.93651
3.93598
3.93558
3.93529
3.93514
3.93511
3.9352
3.93542
3.93575
3.93614
3.93668
3.93733
3.93808
3.93893
3.93986
3.94088
3.94197
3.94313
3.94434
3.9456
3.94691
3.94825
3.94961
3.951
3.95239
3.95378
3.95517
3.95654
3.95789
3.95921
3.96049
3.96173
3.96293
3.96407
3.96516
3.96618
3.96714
3.96802
3.96884
3.96958
3.97025
3.97085
3.97136
3.97181
3.97218
3.97247
3.97269
3.97285
3.97293
3.97296
3.97292
3.97282
3.97271
3.97254
3.97231
3.97204
3.97173
3.97139
3.97101
3.97061
3.97018
3.96972
3.96925
3.96876
3.96824
3.96772
3.96718
3.96662
3.96605
3.98097
3.97946
3.97784
3.97609
3.97421
3.97221
3.97007
3.96779
3.96537
3.9628
3.96011
3.95727
3.95432
3.95124
3.94804
3.94473
3.94132
3.93782
3.93424
3.93058
3.92688
3.92313
3.91937
3.9156
3.91183
3.9081
3.90441
3.90077
3.89721
3.89375
3.8904
3.88717
3.88408
3.88114
3.87838
3.8758
3.87342
3.87126
3.86932
3.86762
3.86616
3.86496
3.86402
3.86333
3.86291
3.86275
3.86286
3.86321
3.86383
3.86462
3.8656
3.86687
3.86836
3.87006
3.87195
3.87402
3.87625
3.87862
3.88113
3.88375
3.88647
3.88927
3.89213
3.89503
3.89797
3.90092
3.90387
3.9068
3.90969
3.91253
3.91531
3.91801
3.92062
3.92313
3.92552
3.92778
3.92991
3.9319
3.93373
3.93541
3.93692
3.93826
3.93944
3.94045
3.94128
3.94195
3.94244
3.94278
3.94296
3.94298
3.94285
3.94262
3.94233
3.94187
3.9413
3.94062
3.93985
3.93899
3.93805
3.93705
3.93597
3.93484
3.93365
3.93242
3.93115
3.92983
3.92847
3.92708
3.92565
3.92419
3.9614
3.95786
3.95406
3.94997
3.94561
3.94096
3.93603
3.93081
3.92532
3.91956
3.91355
3.9073
3.90083
3.89413
3.88723
3.88014
3.87287
3.86544
3.85787
3.8502
3.84246
3.8347
3.82698
3.81933
3.81179
3.80439
3.79717
3.79014
3.78335
3.77682
3.77056
3.76462
3.759
3.75374
3.74885
3.74435
3.74026
3.73659
3.73337
3.73062
3.72833
3.72653
3.72522
3.72437
3.72401
3.72415
3.72472
3.72578
3.7273
3.729
3.73121
3.73387
3.73692
3.74034
3.7441
3.74817
3.75252
3.75713
3.76198
3.76703
3.77225
3.77762
3.7831
3.78867
3.79431
3.79996
3.80562
3.81124
3.8168
3.82226
3.8276
3.83278
3.83778
3.84257
3.84713
3.85144
3.85546
3.85919
3.86261
3.86571
3.86846
3.87088
3.87295
3.87466
3.87601
3.87702
3.87766
3.87797
3.87793
3.87755
3.87697
3.87624
3.87515
3.87378
3.87218
3.87036
3.86836
3.86617
3.86383
3.86134
3.85872
3.85599
3.85316
3.85023
3.84722
3.84412
3.84095
3.83772
3.83442
3.83105
3.91668
3.90877
3.90035
3.89141
3.88196
3.87198
3.86147
3.85043
3.83887
3.82685
3.8144
3.80161
3.78852
3.77519
3.76166
3.74798
3.73417
3.72028
3.70634
3.69242
3.67859
3.66494
3.65155
3.63849
3.62581
3.61357
3.6018
3.59056
3.57987
3.56976
3.56028
3.55144
3.54325
3.53574
3.52892
3.52279
3.51736
3.51263
3.50862
3.50536
3.50286
3.50112
3.50011
3.49979
3.50024
3.50128
3.50307
3.50558
3.50848
3.5118
3.5159
3.52064
3.52593
3.53173
3.538
3.54473
3.55188
3.55939
3.56724
3.57539
3.5838
3.59243
3.60124
3.61019
3.61924
3.62835
3.63747
3.64654
3.65553
3.66439
3.67305
3.68147
3.68961
3.69742
3.70484
3.71184
3.71836
3.72437
3.72983
3.73471
3.73898
3.74262
3.74562
3.74798
3.74967
3.75066
3.75102
3.75067
3.74967
3.74849
3.74676
3.74439
3.74152
3.73821
3.73448
3.73037
3.72593
3.72118
3.71617
3.71091
3.70543
3.69977
3.69396
3.688
3.68193
3.67574
3.66946
3.66307
3.65658
3.65
3.82131
3.80502
3.78786
3.7699
3.7512
3.7318
3.71173
3.69104
3.66983
3.64821
3.62632
3.60428
3.58222
3.56022
3.53837
3.51675
3.49542
3.47441
3.45376
3.43351
3.41377
3.39471
3.37649
3.35918
3.34286
3.32755
3.31326
3.30001
3.28778
3.27659
3.26643
3.25731
3.24921
3.24212
3.236
3.23083
3.22656
3.22314
3.22057
3.21889
3.21812
3.21825
3.21924
3.22089
3.22327
3.22632
3.23008
3.23463
3.23899
3.24445
3.25064
3.25739
3.26467
3.27246
3.28074
3.28947
3.29863
3.30817
3.31806
3.32827
3.33877
3.34953
3.36051
3.37169
3.383
3.39441
3.40587
3.41731
3.42866
3.43987
3.45084
3.46152
3.47182
3.48167
3.49101
3.49976
3.50784
3.51519
3.52174
3.52744
3.53224
3.53612
3.53904
3.54098
3.54191
3.54176
3.54063
3.53828
3.53594
3.5326
3.52827
3.52316
3.51738
3.511
3.50407
3.49666
3.48881
3.48058
3.47205
3.46326
3.45425
3.44507
3.43576
3.42636
3.41691
3.40742
3.39791
3.38838
3.37883
3.36927
3.66605
3.63812
3.60929
3.57975
3.54965
3.51914
3.48834
3.45731
3.42609
3.39477
3.36366
3.33308
3.30329
3.27449
3.24679
3.2203
3.19506
3.17109
3.14835
3.12678
3.10632
3.08686
3.06862
3.0519
3.03679
3.02328
3.01133
3.00088
2.99183
2.98407
2.97757
2.97229
2.96821
2.96525
2.96332
2.96236
2.96226
2.96293
2.96426
2.96615
2.96865
2.97184
2.97579
2.98039
2.98553
2.99098
2.99681
3.00175
3.00805
3.01474
3.02169
3.02895
3.03655
3.04444
3.05264
3.06109
3.06974
3.0786
3.08768
3.09697
3.10643
3.11604
3.12579
3.13568
3.14568
3.15578
3.1659
3.17601
3.18605
3.19595
3.20563
3.21504
3.22411
3.23281
3.24105
3.24876
3.25586
3.26224
3.26781
3.27248
3.27617
3.27884
3.28044
3.28095
3.28034
3.27873
3.27561
3.27141
3.2675
3.26198
3.25553
3.24833
3.24046
3.23203
3.22312
3.21381
3.20416
3.19424
3.18414
3.17393
3.16366
3.15337
3.14307
3.1328
3.12265
3.11269
3.10295
3.09348
3.08428
3.07537
3.0667
3.38751
3.34689
3.30632
3.26625
3.22704
3.18895
3.15213
3.11661
3.08232
3.04898
3.01698
2.98686
2.95898
2.93349
2.91046
2.8899
2.87176
2.85597
2.84241
2.83097
2.82155
2.81409
2.80838
2.80425
2.80148
2.79988
2.79933
2.79979
2.80111
2.80304
2.80558
2.80868
2.81221
2.81618
2.82073
2.82572
2.83111
2.8369
2.84274
2.84866
2.85489
2.86012
2.86697
2.87384
2.88087
2.88793
2.89461
2.90122
2.90829
2.91528
2.92239
2.92956
2.93663
2.94365
2.95075
2.95788
2.96488
2.97186
2.97875
2.98549
2.99209
2.9986
3.00505
3.01139
3.01759
3.02362
3.02946
3.03512
3.04057
3.04583
3.05085
3.05557
3.05989
3.0637
3.06693
3.06953
3.07147
3.0727
3.07316
3.0728
3.07156
3.06956
3.06675
3.06296
3.05796
3.05322
3.04785
3.04115
3.03416
3.02674
3.01898
3.01103
3.00302
2.99503
2.98715
2.97947
2.97205
2.9649
2.95802
2.9514
2.94512
2.93928
2.93386
2.92881
2.92405
2.91959
2.9154
2.91145
2.9077
2.90414
2.90078
2.89763
2.89468
3.03272
2.98946
2.94817
2.9095
2.87389
2.84158
2.81272
2.78738
2.76561
2.74742
2.73242
2.72018
2.71037
2.70273
2.69708
2.69325
2.69102
2.69017
2.69056
2.69189
2.694
2.69682
2.70021
2.70407
2.70834
2.71324
2.71866
2.72435
2.73033
2.73691
2.74353
2.75013
2.75735
2.7631
2.77017
2.7777
2.78458
2.79215
2.80002
2.80738
2.81412
2.82143
2.829
2.83654
2.84404
2.85159
2.85902
2.86602
2.87321
2.88065
2.88789
2.89477
2.90147
2.90827
2.91503
2.92155
2.92793
2.93407
2.93994
2.94561
2.95112
2.9563
2.96119
2.96581
2.97022
2.97443
2.97832
2.98191
2.98509
2.98777
2.98987
2.99141
2.99241
2.99285
2.99266
2.99191
2.99058
2.98854
2.98574
2.98214
2.97775
2.97245
2.96811
2.96178
2.95498
2.94871
2.94203
2.93496
2.92791
2.92102
2.91427
2.90776
2.9016
2.89586
2.89044
2.88536
2.88061
2.87628
2.87242
2.86891
2.86564
2.8627
2.86001
2.85767
2.85563
2.85378
2.85206
2.85053
2.84926
2.84822
2.84732
2.84647
2.84567
2.77317
2.73919
2.71003
2.68554
2.66522
2.64867
2.63546
2.62517
2.61749
2.61214
2.60885
2.6073
2.60723
2.60827
2.61015
2.61287
2.61627
2.62024
2.62467
2.6298
2.63564
2.64182
2.64829
2.65501
2.6618
2.66911
2.67562
2.68217
2.69003
2.69775
2.70486
2.71266
2.72114
2.72931
2.73683
2.74448
2.75249
2.76039
2.76804
2.77586
2.78412
2.79188
2.79944
2.80712
2.81481
2.82242
2.83005
2.83802
2.84528
2.85247
2.85982
2.86728
2.87454
2.88108
2.88779
2.89468
2.90115
2.9072
2.91347
2.9192
2.92449
2.92946
2.93482
2.93953
2.94373
2.94759
2.95127
2.95462
2.95764
2.96033
2.96258
2.96432
2.96544
2.96597
2.9659
2.9653
2.964
2.96181
2.95972
2.95637
2.95224
2.94765
2.94261
2.93727
2.93173
2.92514
2.9185
2.91204
2.90542
2.89853
2.89198
2.88563
2.87966
2.87416
2.86879
2.86379
2.85942
2.85555
2.8515
2.84806
2.84507
2.84235
2.84
2.83805
2.83602
2.83454
2.83329
2.83219
2.83134
2.83062
2.83005
2.82965
2.82931
2.82901
2.82879
2.56367
2.55389
2.54696
2.54246
2.53999
2.53923
2.5399
2.54159
2.54424
2.54763
2.55161
2.55622
2.56162
2.56753
2.57378
2.58039
2.58714
2.59439
2.60125
2.6077
2.61565
2.62352
2.63128
2.63905
2.64698
2.65481
2.66239
2.67009
2.67806
2.68588
2.6936
2.70147
2.70966
2.71763
2.72543
2.73338
2.74146
2.74934
2.7571
2.76498
2.77293
2.78072
2.7885
2.79622
2.80386
2.81132
2.81917
2.82714
2.83413
2.84127
2.84835
2.85643
2.86317
2.86961
2.87663
2.88312
2.88897
2.89567
2.9017
2.90678
2.91199
2.91758
2.92214
2.92636
2.93111
2.93516
2.93839
2.94131
2.94453
2.94705
2.94951
2.95094
2.95154
2.9518
2.95135
2.95029
2.94862
2.94642
2.94378
2.94056
2.93666
2.93207
2.92708
2.92174
2.91608
2.9101
2.9039
2.89766
2.89128
2.88503
2.87918
2.8731
2.8673
2.86256
2.85787
2.85296
2.84853
2.84501
2.84166
2.83828
2.83522
2.83283
2.83041
2.82826
2.82674
2.82544
2.82415
2.82312
2.8224
2.82189
2.82153
2.82134
2.82134
2.8214
2.82141
2.82146
2.51596
2.50353
2.49415
2.48747
2.48311
2.48074
2.48023
2.48105
2.48308
2.48602
2.48964
2.49379
2.49873
2.50434
2.51048
2.51709
2.52397
2.53109
2.53689
2.54428
2.55187
2.55933
2.56671
2.57421
2.58177
2.58911
2.59667
2.60447
2.61229
2.62012
2.62809
2.63624
2.64431
2.65239
2.66054
2.66873
2.67678
2.68477
2.69281
2.70102
2.70906
2.71709
2.7252
2.73327
2.74115
2.74893
2.75672
2.76451
2.77229
2.78004
2.78765
2.79516
2.80241
2.81042
2.81802
2.82478
2.83176
2.8391
2.84687
2.85313
2.85972
2.86666
2.87264
2.8787
2.88541
2.89077
2.89583
2.90147
2.90651
2.91051
2.91503
2.91976
2.92361
2.92765
2.93019
2.93295
2.93526
2.93688
2.93822
2.93907
2.9394
2.93927
2.93856
2.93718
2.93508
2.93233
2.92904
2.92527
2.92107
2.9165
2.91167
2.90665
2.9013
2.89578
2.8903
2.88412
2.87827
2.87287
2.8671
2.86177
2.85698
2.85286
2.84826
2.84385
2.83994
2.83616
2.83338
2.8306
2.82774
2.8252
2.82295
2.82093
2.81925
2.8183
2.8172
2.81633
2.81572
2.81522
2.81482
2.81452
2.81444
2.81448
2.8146
2.4169
2.41967
2.42322
2.4275
2.43223
2.43732
2.44286
2.44885
2.45535
2.46211
2.46949
2.47541
2.48229
2.48961
2.49682
2.50389
2.51138
2.51851
2.52572
2.5333
2.54106
2.54886
2.5567
2.56473
2.57275
2.58079
2.5889
2.59704
2.60513
2.6131
2.62114
2.62921
2.6372
2.64524
2.65338
2.66149
2.66948
2.67742
2.68549
2.69358
2.70149
2.70945
2.7175
2.72549
2.73332
2.74112
2.74887
2.75655
2.7643
2.77206
2.77959
2.78695
2.79404
2.80208
2.80912
2.81575
2.82248
2.83012
2.83706
2.84302
2.84988
2.85636
2.862
2.86844
2.87444
2.87937
2.88491
2.89009
2.89484
2.89843
2.90307
2.90755
2.91143
2.91469
2.91753
2.92027
2.92275
2.92468
2.92604
2.92679
2.9269
2.92642
2.92551
2.92422
2.92252
2.92037
2.91775
2.91463
2.91105
2.90707
2.9028
2.89831
2.89356
2.88872
2.88391
2.87837
2.87311
2.86803
2.8625
2.8574
2.85296
2.84858
2.84491
2.84032
2.83614
2.83254
2.82894
2.8261
2.82353
2.82074
2.81828
2.81611
2.81426
2.8126
2.81155
2.81075
2.80993
2.80927
2.80877
2.80856
2.80853
2.80859
2.80869
2.37412
2.3832
2.39184
2.40048
2.40907
2.41735
2.42549
2.43353
2.44143
2.44921
2.4568
2.4641
2.47155
2.47917
2.48681
2.49455
2.50254
2.51044
2.51836
2.52623
2.53407
2.54186
2.54973
2.55771
2.56564
2.57365
2.58174
2.58981
2.59782
2.60584
2.61394
2.62201
2.63009
2.63819
2.64631
2.65436
2.66231
2.67023
2.67823
2.68616
2.69401
2.70191
2.70985
2.71767
2.72541
2.73312
2.74071
2.74821
2.75587
2.76353
2.77081
2.77795
2.78517
2.79315
2.79982
2.80644
2.81311
2.82063
2.82678
2.83268
2.8398
2.84568
2.85137
2.85762
2.86296
2.86789
2.87362
2.87836
2.883
2.88626
2.89073
2.89489
2.89851
2.90212
2.90535
2.90807
2.91025
2.91184
2.91291
2.91356
2.91381
2.9136
2.91303
2.91206
2.91065
2.90877
2.90641
2.90364
2.9005
2.8971
2.89348
2.88967
2.88563
2.88144
2.87717
2.87242
2.86777
2.86305
2.8577
2.85291
2.84872
2.8443
2.84112
2.83657
2.83223
2.82841
2.82487
2.82128
2.81881
2.8162
2.81345
2.81112
2.80909
2.80709
2.80571
2.805
2.80403
2.8032
2.80263
2.80245
2.80234
2.80229
2.80241
2.3485
2.36006
2.37121
2.38201
2.39243
2.40241
2.41198
2.42115
2.42997
2.4386
2.44701
2.45524
2.46348
2.47171
2.47967
2.48758
2.49546
2.50333
2.5113
2.51936
2.52738
2.53535
2.54336
2.55137
2.55939
2.56747
2.57555
2.5836
2.5916
2.59963
2.60768
2.61572
2.62377
2.63183
2.63985
2.6478
2.65566
2.66351
2.67138
2.67915
2.68689
2.69467
2.70243
2.71006
2.71766
2.72524
2.73262
2.73987
2.74748
2.75497
2.76197
2.76889
2.77634
2.78376
2.79012
2.79657
2.80353
2.81043
2.81611
2.82252
2.82917
2.83456
2.84051
2.84623
2.85098
2.85602
2.86142
2.86592
2.87097
2.87444
2.87847
2.88226
2.88566
2.88896
2.89189
2.89445
2.89661
2.89835
2.89964
2.90043
2.90075
2.9006
2.90003
2.89912
2.89791
2.89637
2.89451
2.89229
2.88975
2.88691
2.88384
2.88058
2.87712
2.87348
2.8697
2.86569
2.86159
2.85733
2.85228
2.84771
2.84387
2.83958
2.83655
2.83212
2.82771
2.82377
2.82016
2.81644
2.81322
2.81116
2.80826
2.8057
2.80351
2.80131
2.79961
2.79879
2.79778
2.79687
2.79618
2.79594
2.79576
2.79568
2.79579
2.79599
2.79624
2.32846
2.34064
2.3528
2.3648
2.37653
2.3879
2.39881
2.40921
2.41909
2.42853
2.43766
2.44664
2.45552
2.46417
2.47263
2.48092
2.48909
2.49722
2.50539
2.51355
2.52167
2.52974
2.53779
2.54583
2.55388
2.56195
2.57
2.57799
2.58595
2.59391
2.60187
2.60983
2.61779
2.62573
2.63363
2.64145
2.64918
2.65692
2.66464
2.67224
2.67983
2.68748
2.69503
2.70244
2.70989
2.71733
2.72443
2.73138
2.73908
2.7462
2.75298
2.75973
2.76716
2.77401
2.78007
2.78648
2.79356
2.79982
2.80535
2.81191
2.8176
2.82348
2.82911
2.83452
2.83851
2.84376
2.84886
2.85333
2.85788
2.86208
2.86608
2.86956
2.87283
2.87589
2.87865
2.88108
2.88311
2.88472
2.88589
2.88665
2.88702
2.88705
2.88677
2.88614
2.88521
2.88397
2.8824
2.88052
2.87839
2.87603
2.87347
2.87077
2.8679
2.86483
2.86158
2.85812
2.8545
2.85072
2.84626
2.84166
2.83809
2.83407
2.83112
2.82694
2.82249
2.81852
2.81479
2.81127
2.80756
2.80496
2.80267
2.79984
2.79748
2.79514
2.79318
2.79218
2.79116
2.79015
2.78936
2.78897
2.78872
2.7886
2.78865
2.78883
2.78909
2.31341
2.32488
2.33668
2.34872
2.36087
2.37301
2.38497
2.39655
2.40767
2.41831
2.42853
2.43842
2.44792
2.45706
2.46604
2.47476
2.48323
2.49162
2.49994
2.50819
2.51636
2.52448
2.53255
2.54059
2.54863
2.55666
2.56464
2.57257
2.58046
2.58834
2.59619
2.60404
2.61187
2.61968
2.62743
2.63509
2.64269
2.65031
2.65784
2.66527
2.67271
2.68021
2.6875
2.69466
2.70205
2.70925
2.71602
2.7229
2.73048
2.73716
2.74378
2.75052
2.7576
2.76397
2.76987
2.77647
2.78324
2.78904
2.79487
2.80062
2.80616
2.81195
2.81705
2.82253
2.82627
2.83126
2.83605
2.84041
2.84486
2.84911
2.85303
2.85659
2.85981
2.8627
2.86525
2.86749
2.86941
2.87102
2.87228
2.87316
2.87366
2.8738
2.87361
2.87311
2.87233
2.87127
2.86998
2.86847
2.86674
2.8648
2.86268
2.8604
2.85797
2.85536
2.85258
2.8496
2.84644
2.84314
2.83946
2.83493
2.83134
2.82769
2.82478
2.82093
2.8165
2.81256
2.80888
2.80535
2.80177
2.79834
2.79618
2.79363
2.79099
2.78862
2.78643
2.78513
2.78413
2.78303
2.78213
2.78164
2.78132
2.78114
2.78113
2.78128
2.78152
2.29349
2.3036
2.31401
2.32476
2.33588
2.34738
2.35922
2.3713
2.38342
2.39536
2.40701
2.41828
2.42909
2.43935
2.44911
2.45871
2.4681
2.47719
2.48597
2.49449
2.50286
2.51111
2.51927
2.52736
2.53541
2.54342
2.55139
2.55931
2.56716
2.57497
2.58275
2.59049
2.59822
2.60591
2.61357
2.62117
2.62866
2.63611
2.64359
2.65092
2.65814
2.66547
2.67281
2.67977
2.68671
2.69414
2.70091
2.70745
2.71445
2.72155
2.72789
2.73432
2.74116
2.74772
2.75371
2.75948
2.76609
2.77216
2.77788
2.78389
2.78917
2.79474
2.80005
2.80488
2.81008
2.81422
2.81882
2.82327
2.82742
2.83171
2.83582
2.83963
2.84315
2.84632
2.84913
2.85161
2.85379
2.85569
2.85728
2.85856
2.85949
2.86008
2.86036
2.86034
2.86005
2.8595
2.85871
2.85769
2.85644
2.85501
2.8534
2.85161
2.84968
2.8476
2.84537
2.84294
2.84033
2.83754
2.83461
2.83148
2.8277
2.82383
2.82045
2.81743
2.81397
2.8097
2.80585
2.80231
2.79881
2.79546
2.79179
2.78895
2.78702
2.7842
2.78185
2.77955
2.77802
2.7768
2.77558
2.77458
2.77399
2.77357
2.77327
2.77312
2.77312
2.77323
2.28746
2.29725
2.30712
2.31713
2.32732
2.33779
2.34864
2.3599
2.37153
2.38338
2.39531
2.40717
2.41883
2.43014
2.44097
2.45112
2.46079
2.47042
2.47973
2.48871
2.49732
2.50571
2.51396
2.52209
2.53014
2.53813
2.54605
2.55389
2.56167
2.56939
2.57706
2.58469
2.59228
2.59983
2.60733
2.61476
2.62207
2.62938
2.63671
2.6438
2.6508
2.65813
2.66512
2.67179
2.67873
2.68592
2.69233
2.69874
2.70573
2.71238
2.71842
2.72472
2.73144
2.73765
2.74321
2.749
2.75526
2.76098
2.76668
2.77228
2.77728
2.78274
2.78789
2.79261
2.79747
2.80214
2.80658
2.81069
2.81468
2.81863
2.82246
2.82608
2.82945
2.83252
2.83525
2.83764
2.83973
2.84156
2.84313
2.84442
2.84542
2.84611
2.84652
2.84666
2.84654
2.84618
2.84561
2.84484
2.8439
2.84278
2.84148
2.84003
2.83844
2.8367
2.83482
2.83275
2.83049
2.82804
2.82543
2.8227
2.81966
2.81581
2.81228
2.8092
2.80602
2.80201
2.79824
2.7949
2.79153
2.78828
2.78474
2.78153
2.77969
2.77694
2.77452
2.7722
2.77041
2.76894
2.76755
2.76643
2.76565
2.76507
2.76465
2.76438
2.76429
2.76432
2.76445
2.76463
2.28223
2.29214
2.30204
2.31191
2.32177
2.33168
2.34172
2.35201
2.36261
2.37356
2.38486
2.39646
2.40822
2.41996
2.43145
2.44254
2.45313
2.46304
2.47269
2.4822
2.4913
2.5
2.50838
2.51659
2.52467
2.53265
2.54053
2.5483
2.556
2.56362
2.57118
2.57869
2.58614
2.59353
2.60089
2.60814
2.61524
2.62244
2.62957
2.63639
2.64326
2.65053
2.65711
2.66356
2.67062
2.67729
2.68349
2.68989
2.6966
2.70286
2.7087
2.71505
2.72129
2.72726
2.73242
2.73832
2.74414
2.7497
2.75506
2.76027
2.76521
2.77035
2.77518
2.77974
2.78443
2.78902
2.79352
2.79777
2.8018
2.80566
2.80929
2.81266
2.81581
2.8187
2.82128
2.82354
2.82552
2.82725
2.82875
2.83002
2.83102
2.83175
2.83222
2.83244
2.83243
2.83221
2.83179
2.8312
2.83046
2.82957
2.82853
2.82735
2.82604
2.82461
2.82306
2.82136
2.81948
2.81742
2.81522
2.81284
2.81032
2.80736
2.80351
2.80036
2.79743
2.79373
2.78999
2.78676
2.78356
2.78037
2.77689
2.77353
2.77168
2.76899
2.76656
2.76423
2.76227
2.76067
2.75918
2.75792
2.75697
2.75623
2.75566
2.75524
2.75495
2.75477
2.75466
2.75459
2.27701
2.28707
2.29718
2.30727
2.31728
2.3272
2.33706
2.34689
2.35678
2.36681
2.37709
2.38772
2.39876
2.41011
2.42161
2.43305
2.44421
2.45499
2.46522
2.47484
2.48439
2.49356
2.50233
2.5107
2.51885
2.52685
2.5347
2.54243
2.55005
2.55757
2.56502
2.57241
2.5797
2.58693
2.59414
2.60118
2.60808
2.61522
2.62203
2.6286
2.63554
2.64243
2.64875
2.65514
2.66202
2.66825
2.67427
2.68072
2.68706
2.69294
2.69866
2.70494
2.71076
2.71629
2.72151
2.72724
2.73271
2.73802
2.74305
2.74793
2.75276
2.7576
2.76219
2.76661
2.7711
2.77553
2.77982
2.78394
2.78784
2.7915
2.79496
2.79823
2.80134
2.80424
2.80687
2.80922
2.81128
2.81301
2.81443
2.81559
2.81652
2.81723
2.81769
2.81794
2.81798
2.81782
2.81748
2.81698
2.81635
2.8156
2.81471
2.81369
2.81256
2.81131
2.80994
2.80845
2.80683
2.80506
2.80315
2.80114
2.79897
2.7965
2.79344
2.79035
2.78754
2.78452
2.78087
2.77769
2.77479
2.77168
2.7684
2.76499
2.7631
2.76046
2.75803
2.75559
2.75351
2.75174
2.75004
2.7485
2.7472
2.74609
2.74513
2.7443
2.74359
2.74298
2.74245
2.74198
2.27195
2.28188
2.29202
2.30229
2.31257
2.32278
2.33286
2.3428
2.35259
2.36226
2.3719
2.38162
2.3916
2.40193
2.41265
2.42367
2.43482
2.4459
2.4567
2.46707
2.47675
2.48616
2.49537
2.50415
2.5125
2.52055
2.52841
2.53611
2.54366
2.5511
2.55844
2.56569
2.57283
2.57991
2.58695
2.59376
2.60053
2.60752
2.61402
2.62038
2.62738
2.63378
2.6399
2.64631
2.65284
2.65872
2.66462
2.67096
2.67702
2.68247
2.68826
2.69415
2.69969
2.70479
2.7102
2.71556
2.72074
2.72579
2.73055
2.73514
2.73975
2.74432
2.74876
2.75305
2.75729
2.76149
2.76557
2.76949
2.77322
2.77672
2.78001
2.78311
2.78603
2.78876
2.79127
2.79351
2.79547
2.79717
2.79863
2.79988
2.8009
2.8017
2.80229
2.80268
2.80287
2.80289
2.80275
2.80245
2.8019
2.80117
2.80032
2.79935
2.79827
2.79709
2.7958
2.79442
2.7929
2.79126
2.78951
2.78766
2.78566
2.78349
2.78082
2.77798
2.77533
2.7726
2.76943
2.76628
2.76355
2.76065
2.7577
2.75455
2.75212
2.74963
2.74701
2.74435
2.74212
2.7401
2.73811
2.73625
2.73459
2.73314
2.73183
2.73066
2.72959
2.72861
2.72772
2.72688
2.72607
2.27666
2.28676
2.29689
2.30723
2.31766
2.32805
2.33833
2.34841
2.35826
2.36787
2.37729
2.38661
2.39598
2.40559
2.41555
2.42591
2.43658
2.44737
2.45802
2.46834
2.47813
2.48734
2.4965
2.50524
2.51355
2.52147
2.52916
2.53667
2.54402
2.55126
2.55839
2.56537
2.57232
2.57916
2.58574
2.59244
2.59913
2.60539
2.61166
2.61847
2.6245
2.63042
2.63678
2.64296
2.64854
2.65439
2.66044
2.6662
2.67136
2.67714
2.68263
2.68783
2.69278
2.69802
2.70308
2.70799
2.7128
2.71731
2.72162
2.72601
2.73035
2.73459
2.73871
2.74273
2.74668
2.75052
2.75423
2.75776
2.7611
2.76422
2.76714
2.76987
2.7724
2.77474
2.77685
2.77872
2.78036
2.78178
2.78299
2.784
2.7848
2.7854
2.78581
2.78605
2.78612
2.78603
2.78577
2.78539
2.78488
2.78426
2.78353
2.78269
2.78176
2.78073
2.77949
2.77801
2.77639
2.77467
2.77285
2.77092
2.76889
2.76648
2.76383
2.76127
2.75869
2.75571
2.75259
2.74993
2.74718
2.74432
2.74125
2.7386
2.73608
2.73334
2.73058
2.72825
2.72604
2.72382
2.72168
2.7197
2.7179
2.71625
2.71471
2.71327
2.71192
2.71064
2.70941
2.70821
2.27029
2.2808
2.29121
2.30146
2.31177
2.32227
2.33282
2.34326
2.3535
2.36347
2.37311
2.38243
2.39146
2.40033
2.40925
2.41842
2.42802
2.43804
2.44836
2.45872
2.46888
2.47864
2.48773
2.49668
2.50534
2.51356
2.52133
2.52883
2.53612
2.54328
2.55028
2.55712
2.56394
2.57056
2.57695
2.58357
2.58992
2.59596
2.60218
2.60866
2.61441
2.62013
2.62637
2.63217
2.63753
2.64324
2.64901
2.65445
2.65942
2.66498
2.67017
2.67508
2.67983
2.68482
2.68958
2.69422
2.69876
2.70302
2.7071
2.71123
2.71533
2.71935
2.72326
2.72706
2.73076
2.73435
2.73782
2.74113
2.74427
2.74721
2.74994
2.75247
2.75482
2.75698
2.75895
2.76071
2.76226
2.76362
2.76477
2.76573
2.7665
2.76708
2.7675
2.76774
2.76784
2.76778
2.76758
2.76726
2.76684
2.7663
2.76566
2.76492
2.76407
2.7631
2.76201
2.76082
2.7595
2.75804
2.75648
2.75483
2.75302
2.75078
2.74823
2.74569
2.74314
2.74028
2.73718
2.73454
2.73186
2.72899
2.72597
2.72306
2.72044
2.71763
2.71485
2.7123
2.70984
2.70737
2.70493
2.70255
2.7002
2.69793
2.69577
2.6937
2.69171
2.68979
2.68792
2.68609
2.27331
2.28417
2.29483
2.30533
2.31567
2.32615
2.33677
2.34734
2.35772
2.36781
2.37753
2.38681
2.39564
2.40411
2.41241
2.42081
2.42956
2.43881
2.44851
2.45844
2.46832
2.47791
2.48692
2.49556
2.50409
2.51219
2.51982
2.52711
2.5342
2.54108
2.54781
2.55448
2.56091
2.56716
2.57361
2.57967
2.58549
2.59166
2.59772
2.60325
2.6088
2.61483
2.62027
2.62543
2.63087
2.6364
2.64158
2.64631
2.65154
2.65648
2.66116
2.66562
2.67032
2.67479
2.67913
2.68339
2.6874
2.69123
2.69509
2.69892
2.70268
2.70635
2.70991
2.71335
2.71668
2.71989
2.72295
2.72585
2.72857
2.73109
2.73343
2.73557
2.73755
2.73935
2.74097
2.74241
2.74366
2.74473
2.74562
2.74633
2.74688
2.74727
2.74751
2.74761
2.74757
2.7474
2.74712
2.74674
2.74626
2.74567
2.74499
2.7442
2.74329
2.7423
2.74121
2.74001
2.73866
2.73717
2.73558
2.7339
2.73201
2.72984
2.72754
2.7252
2.72264
2.71963
2.71691
2.71421
2.71138
2.70846
2.70522
2.70211
2.69901
2.69594
2.69299
2.69004
2.68704
2.68403
2.68106
2.67817
2.67535
2.6726
2.6699
2.66727
2.6647
2.66217
2.65968
2.27534
2.28637
2.29733
2.30805
2.31855
2.32897
2.33959
2.35023
2.36071
2.3709
2.38069
2.38996
2.39865
2.40678
2.41452
2.42215
2.43002
2.4384
2.44734
2.45672
2.46622
2.47556
2.48446
2.49279
2.50108
2.50902
2.51654
2.52365
2.53045
2.5371
2.54362
2.54988
2.55603
2.56224
2.56809
2.57372
2.57975
2.5854
2.59072
2.59613
2.60188
2.60695
2.61199
2.61705
2.62222
2.62726
2.6318
2.63652
2.64127
2.64573
2.64987
2.65422
2.65841
2.66242
2.66637
2.67012
2.67367
2.67723
2.68076
2.68423
2.68761
2.6909
2.69408
2.69713
2.70005
2.70282
2.70544
2.7079
2.71019
2.71229
2.71422
2.71599
2.71759
2.71904
2.72032
2.72144
2.72239
2.72318
2.72381
2.72429
2.72463
2.72483
2.72491
2.72486
2.7247
2.72443
2.72407
2.7236
2.72305
2.7224
2.72166
2.72082
2.71988
2.71885
2.71772
2.71644
2.715
2.71348
2.71189
2.71014
2.70814
2.70595
2.70371
2.70129
2.69829
2.6955
2.69272
2.6898
2.6867
2.68323
2.67974
2.67639
2.673
2.66959
2.66613
2.66262
2.65906
2.6555
2.65198
2.64848
2.64503
2.64161
2.63824
2.63493
2.63165
2.62842
2.62522
2.62204
2.26504
2.27608
2.28715
2.29831
2.30926
2.31994
2.33036
2.34089
2.35155
2.36208
2.37232
2.38214
2.3914
2.39996
2.4078
2.415
2.42187
2.42881
2.43622
2.44431
2.45301
2.46204
2.47105
2.47976
2.48785
2.4958
2.50358
2.51096
2.5179
2.52453
2.53093
2.53706
2.54312
2.5491
2.55477
2.56029
2.56606
2.57139
2.57648
2.58183
2.5871
2.59187
2.59683