/*--------------------------------*- C++ -*----------------------------------*\
| =========                 |                                                 |
| \\      /  F ield         | OpenFOAM: The Open Source CFD Toolbox           |
|  \\    /   O peration     | Version:  v1706                                 |
|   \\  /    A nd           | Web:      www.OpenFOAM.com                      |
|    \\/     M anipulation  |                                                 |
\*---------------------------------------------------------------------------*/
FoamFile
{
    version     2.0;
    format      ascii;
    class       volScalarField;
    location    "1.9e-05";
    object      mu;
}
// * * * * * * * * * * * * * * * * * * * * * * * * * * * * * * * * * * * * * //

dimensions      [1 -1 -1 0 0 0 0];


internalField   nonuniform List<scalar> 
29871
(
1.0351e-05
1.0351e-05
1.0351e-05
1.0351e-05
1.0351e-05
1.0351e-05
1.03511e-05
1.03511e-05
1.03511e-05
1.03511e-05
1.03511e-05
1.03511e-05
1.03511e-05
1.03511e-05
1.03511e-05
1.03511e-05
1.03511e-05
1.03511e-05
1.03511e-05
1.03511e-05
1.03511e-05
1.03511e-05
1.03511e-05
1.03512e-05
1.03512e-05
1.03512e-05
1.03512e-05
1.03512e-05
1.03512e-05
1.03512e-05
1.03512e-05
1.03512e-05
1.03512e-05
1.03512e-05
1.03512e-05
1.03512e-05
1.03512e-05
1.03512e-05
1.03512e-05
1.03512e-05
1.03512e-05
1.03512e-05
1.03512e-05
1.03512e-05
1.03512e-05
1.03512e-05
1.03512e-05
1.03512e-05
1.03512e-05
1.03512e-05
1.03512e-05
1.03512e-05
1.03512e-05
1.03512e-05
1.03512e-05
1.03512e-05
1.03512e-05
1.03512e-05
1.03512e-05
1.03512e-05
1.03512e-05
1.03512e-05
1.03511e-05
1.03511e-05
1.03511e-05
1.03511e-05
1.03511e-05
1.03511e-05
1.03511e-05
1.03511e-05
1.03511e-05
1.03511e-05
1.03511e-05
1.03511e-05
1.03511e-05
1.03511e-05
1.03511e-05
1.03511e-05
1.03511e-05
1.03511e-05
1.03511e-05
1.03511e-05
1.03511e-05
1.03511e-05
1.03511e-05
1.03511e-05
1.03511e-05
1.03511e-05
1.03511e-05
1.03511e-05
1.03511e-05
1.03511e-05
1.03511e-05
1.03511e-05
1.03511e-05
1.03511e-05
1.03511e-05
1.03511e-05
1.03511e-05
1.03511e-05
1.03511e-05
1.03511e-05
1.03511e-05
1.03511e-05
1.03511e-05
1.03512e-05
1.03512e-05
1.03512e-05
1.03512e-05
1.03513e-05
1.03513e-05
1.03513e-05
1.03513e-05
1.03514e-05
1.03514e-05
1.03514e-05
1.03514e-05
1.03515e-05
1.03515e-05
1.03515e-05
1.03516e-05
1.03516e-05
1.03517e-05
1.03517e-05
1.03517e-05
1.03518e-05
1.03518e-05
1.03519e-05
1.03519e-05
1.03519e-05
1.0352e-05
1.0352e-05
1.0352e-05
1.03521e-05
1.03521e-05
1.03521e-05
1.03522e-05
1.03522e-05
1.03522e-05
1.03523e-05
1.03523e-05
1.03523e-05
1.03523e-05
1.03523e-05
1.03523e-05
1.03524e-05
1.03524e-05
1.03524e-05
1.03524e-05
1.03524e-05
1.03524e-05
1.03523e-05
1.03523e-05
1.03523e-05
1.03523e-05
1.03523e-05
1.03523e-05
1.03522e-05
1.03522e-05
1.03522e-05
1.03521e-05
1.03521e-05
1.03521e-05
1.0352e-05
1.0352e-05
1.0352e-05
1.03519e-05
1.03519e-05
1.03519e-05
1.03518e-05
1.03518e-05
1.03518e-05
1.03517e-05
1.03517e-05
1.03517e-05
1.03517e-05
1.03516e-05
1.03516e-05
1.03516e-05
1.03516e-05
1.03515e-05
1.03515e-05
1.03515e-05
1.03515e-05
1.03515e-05
1.03514e-05
1.03514e-05
1.03514e-05
1.03514e-05
1.03514e-05
1.03514e-05
1.03514e-05
1.03514e-05
1.03514e-05
1.03514e-05
1.03514e-05
1.03514e-05
1.03514e-05
1.03514e-05
1.03514e-05
1.03514e-05
1.03514e-05
1.03514e-05
1.03514e-05
1.03514e-05
1.03514e-05
1.03514e-05
1.03514e-05
1.03514e-05
1.03514e-05
1.03515e-05
1.03516e-05
1.03516e-05
1.03517e-05
1.03517e-05
1.03518e-05
1.03519e-05
1.03519e-05
1.0352e-05
1.03521e-05
1.03522e-05
1.03523e-05
1.03524e-05
1.03525e-05
1.03526e-05
1.03527e-05
1.03528e-05
1.03529e-05
1.03531e-05
1.03532e-05
1.03533e-05
1.03534e-05
1.03536e-05
1.03537e-05
1.03538e-05
1.03539e-05
1.03541e-05
1.03542e-05
1.03543e-05
1.03544e-05
1.03545e-05
1.03546e-05
1.03547e-05
1.03548e-05
1.03549e-05
1.0355e-05
1.03551e-05
1.03551e-05
1.03552e-05
1.03552e-05
1.03553e-05
1.03553e-05
1.03553e-05
1.03553e-05
1.03553e-05
1.03553e-05
1.03553e-05
1.03553e-05
1.03552e-05
1.03552e-05
1.03551e-05
1.03551e-05
1.0355e-05
1.03549e-05
1.03548e-05
1.03548e-05
1.03547e-05
1.03546e-05
1.03545e-05
1.03544e-05
1.03543e-05
1.03541e-05
1.0354e-05
1.03539e-05
1.03538e-05
1.03537e-05
1.03536e-05
1.03535e-05
1.03534e-05
1.03533e-05
1.03532e-05
1.03531e-05
1.0353e-05
1.0353e-05
1.03529e-05
1.03528e-05
1.03527e-05
1.03527e-05
1.03526e-05
1.03526e-05
1.03525e-05
1.03525e-05
1.03524e-05
1.03524e-05
1.03524e-05
1.03524e-05
1.03523e-05
1.03523e-05
1.03523e-05
1.03523e-05
1.03523e-05
1.03523e-05
1.03523e-05
1.03523e-05
1.03523e-05
1.03523e-05
1.03523e-05
1.03523e-05
1.03524e-05
1.03524e-05
1.03524e-05
1.03524e-05
1.03524e-05
1.03524e-05
1.03525e-05
1.03525e-05
1.03524e-05
1.03525e-05
1.03527e-05
1.03528e-05
1.0353e-05
1.03532e-05
1.03534e-05
1.03536e-05
1.03538e-05
1.03541e-05
1.03543e-05
1.03546e-05
1.03548e-05
1.03551e-05
1.03554e-05
1.03557e-05
1.0356e-05
1.03563e-05
1.03567e-05
1.0357e-05
1.03573e-05
1.03577e-05
1.0358e-05
1.03584e-05
1.03587e-05
1.0359e-05
1.03594e-05
1.03597e-05
1.036e-05
1.03603e-05
1.03606e-05
1.03609e-05
1.03612e-05
1.03614e-05
1.03617e-05
1.03619e-05
1.03621e-05
1.03622e-05
1.03624e-05
1.03625e-05
1.03626e-05
1.03627e-05
1.03627e-05
1.03627e-05
1.03627e-05
1.03627e-05
1.03627e-05
1.03626e-05
1.03625e-05
1.03624e-05
1.03622e-05
1.03621e-05
1.03619e-05
1.03617e-05
1.03614e-05
1.03612e-05
1.0361e-05
1.03607e-05
1.03604e-05
1.03602e-05
1.03599e-05
1.03596e-05
1.03593e-05
1.0359e-05
1.03587e-05
1.03584e-05
1.03582e-05
1.03579e-05
1.03576e-05
1.03573e-05
1.03571e-05
1.03569e-05
1.03566e-05
1.03564e-05
1.03562e-05
1.0356e-05
1.03558e-05
1.03557e-05
1.03555e-05
1.03554e-05
1.03552e-05
1.03551e-05
1.0355e-05
1.0355e-05
1.03549e-05
1.03548e-05
1.03548e-05
1.03547e-05
1.03547e-05
1.03547e-05
1.03547e-05
1.03547e-05
1.03547e-05
1.03547e-05
1.03548e-05
1.03548e-05
1.03548e-05
1.03549e-05
1.03549e-05
1.0355e-05
1.0355e-05
1.03551e-05
1.03552e-05
1.03552e-05
1.03553e-05
1.03554e-05
1.03543e-05
1.03546e-05
1.0355e-05
1.03554e-05
1.03558e-05
1.03563e-05
1.03568e-05
1.03573e-05
1.03578e-05
1.03584e-05
1.0359e-05
1.03596e-05
1.03603e-05
1.0361e-05
1.03617e-05
1.03625e-05
1.03632e-05
1.0364e-05
1.03648e-05
1.03657e-05
1.03665e-05
1.03673e-05
1.03682e-05
1.03691e-05
1.03699e-05
1.03708e-05
1.03716e-05
1.03725e-05
1.03733e-05
1.03741e-05
1.03748e-05
1.03756e-05
1.03763e-05
1.0377e-05
1.03776e-05
1.03782e-05
1.03787e-05
1.03792e-05
1.03796e-05
1.03799e-05
1.03802e-05
1.03805e-05
1.03806e-05
1.03807e-05
1.03808e-05
1.03808e-05
1.03807e-05
1.03805e-05
1.03803e-05
1.03801e-05
1.03797e-05
1.03794e-05
1.03789e-05
1.03785e-05
1.0378e-05
1.03774e-05
1.03768e-05
1.03762e-05
1.03755e-05
1.03749e-05
1.03742e-05
1.03735e-05
1.03727e-05
1.0372e-05
1.03713e-05
1.03706e-05
1.03699e-05
1.03692e-05
1.03685e-05
1.03678e-05
1.03672e-05
1.03665e-05
1.03659e-05
1.03654e-05
1.03648e-05
1.03643e-05
1.03639e-05
1.03634e-05
1.0363e-05
1.03626e-05
1.03623e-05
1.0362e-05
1.03618e-05
1.03615e-05
1.03613e-05
1.03612e-05
1.03611e-05
1.0361e-05
1.03609e-05
1.03609e-05
1.03609e-05
1.03609e-05
1.03609e-05
1.0361e-05
1.03611e-05
1.03611e-05
1.03613e-05
1.03614e-05
1.03615e-05
1.03617e-05
1.03618e-05
1.0362e-05
1.03622e-05
1.03624e-05
1.03625e-05
1.03627e-05
1.03629e-05
1.03594e-05
1.03603e-05
1.03612e-05
1.03622e-05
1.03633e-05
1.03644e-05
1.03656e-05
1.03669e-05
1.03683e-05
1.03697e-05
1.03712e-05
1.03728e-05
1.03744e-05
1.03762e-05
1.03779e-05
1.03798e-05
1.03817e-05
1.03836e-05
1.03856e-05
1.03876e-05
1.03897e-05
1.03918e-05
1.03939e-05
1.03959e-05
1.0398e-05
1.04001e-05
1.04021e-05
1.04041e-05
1.0406e-05
1.04079e-05
1.04098e-05
1.04115e-05
1.04132e-05
1.04147e-05
1.04162e-05
1.04175e-05
1.04187e-05
1.04198e-05
1.04208e-05
1.04216e-05
1.04222e-05
1.04227e-05
1.04231e-05
1.04233e-05
1.04233e-05
1.04232e-05
1.0423e-05
1.04226e-05
1.0422e-05
1.04213e-05
1.04205e-05
1.04196e-05
1.04185e-05
1.04174e-05
1.04161e-05
1.04148e-05
1.04133e-05
1.04118e-05
1.04102e-05
1.04086e-05
1.0407e-05
1.04053e-05
1.04036e-05
1.04018e-05
1.04001e-05
1.03984e-05
1.03967e-05
1.03951e-05
1.03934e-05
1.03918e-05
1.03903e-05
1.03888e-05
1.03874e-05
1.03861e-05
1.03848e-05
1.03837e-05
1.03826e-05
1.03816e-05
1.03806e-05
1.03798e-05
1.03791e-05
1.03784e-05
1.03778e-05
1.03774e-05
1.0377e-05
1.03766e-05
1.03764e-05
1.03763e-05
1.03762e-05
1.03762e-05
1.03762e-05
1.03763e-05
1.03765e-05
1.03767e-05
1.03769e-05
1.03772e-05
1.03776e-05
1.03779e-05
1.03783e-05
1.03788e-05
1.03792e-05
1.03797e-05
1.03802e-05
1.03808e-05
1.03813e-05
1.03819e-05
1.03824e-05
1.03664e-05
1.03681e-05
1.037e-05
1.0372e-05
1.03741e-05
1.03764e-05
1.03789e-05
1.03815e-05
1.03843e-05
1.03873e-05
1.03904e-05
1.03937e-05
1.03972e-05
1.04009e-05
1.04047e-05
1.04087e-05
1.04128e-05
1.04171e-05
1.04215e-05
1.0426e-05
1.04306e-05
1.04353e-05
1.04401e-05
1.04449e-05
1.04497e-05
1.04545e-05
1.04594e-05
1.04642e-05
1.04689e-05
1.04736e-05
1.04781e-05
1.04826e-05
1.04869e-05
1.0491e-05
1.04949e-05
1.04986e-05
1.05021e-05
1.05053e-05
1.05083e-05
1.05109e-05
1.05132e-05
1.05152e-05
1.05169e-05
1.05182e-05
1.05192e-05
1.05199e-05
1.05201e-05
1.052e-05
1.05196e-05
1.05189e-05
1.05179e-05
1.05165e-05
1.05148e-05
1.05128e-05
1.05105e-05
1.0508e-05
1.05053e-05
1.05023e-05
1.04991e-05
1.04957e-05
1.04922e-05
1.04886e-05
1.04848e-05
1.0481e-05
1.04771e-05
1.04732e-05
1.04693e-05
1.04654e-05
1.04615e-05
1.04577e-05
1.04539e-05
1.04502e-05
1.04466e-05
1.04432e-05
1.04399e-05
1.04367e-05
1.04338e-05
1.0431e-05
1.04283e-05
1.04259e-05
1.04237e-05
1.04217e-05
1.04199e-05
1.04183e-05
1.04169e-05
1.04158e-05
1.04148e-05
1.0414e-05
1.04135e-05
1.04131e-05
1.04129e-05
1.0413e-05
1.04131e-05
1.04133e-05
1.04137e-05
1.04143e-05
1.0415e-05
1.04158e-05
1.04167e-05
1.04176e-05
1.04187e-05
1.04199e-05
1.04211e-05
1.04224e-05
1.04237e-05
1.04251e-05
1.04266e-05
1.04281e-05
1.04296e-05
1.04312e-05
1.0389e-05
1.03931e-05
1.03976e-05
1.04024e-05
1.04075e-05
1.04131e-05
1.0419e-05
1.04253e-05
1.0432e-05
1.04391e-05
1.04465e-05
1.04543e-05
1.04625e-05
1.04711e-05
1.048e-05
1.04892e-05
1.04987e-05
1.05086e-05
1.05187e-05
1.0529e-05
1.05396e-05
1.05503e-05
1.05611e-05
1.0572e-05
1.05828e-05
1.05936e-05
1.06043e-05
1.06149e-05
1.06252e-05
1.06353e-05
1.06451e-05
1.06546e-05
1.06637e-05
1.06724e-05
1.06806e-05
1.06883e-05
1.06955e-05
1.07021e-05
1.07081e-05
1.07134e-05
1.0718e-05
1.07218e-05
1.0725e-05
1.07274e-05
1.0729e-05
1.07299e-05
1.073e-05
1.07294e-05
1.07281e-05
1.07262e-05
1.07235e-05
1.07202e-05
1.07162e-05
1.07116e-05
1.07064e-05
1.07007e-05
1.06945e-05
1.06879e-05
1.06808e-05
1.06734e-05
1.06657e-05
1.06577e-05
1.06495e-05
1.06412e-05
1.06327e-05
1.06242e-05
1.06157e-05
1.06072e-05
1.05988e-05
1.05905e-05
1.05823e-05
1.05744e-05
1.05668e-05
1.05594e-05
1.05523e-05
1.05456e-05
1.05393e-05
1.05334e-05
1.05279e-05
1.05229e-05
1.05183e-05
1.05142e-05
1.05105e-05
1.05074e-05
1.05047e-05
1.05025e-05
1.05008e-05
1.04996e-05
1.04988e-05
1.04984e-05
1.04985e-05
1.04989e-05
1.04996e-05
1.05007e-05
1.05021e-05
1.05038e-05
1.05058e-05
1.05081e-05
1.05106e-05
1.05134e-05
1.05163e-05
1.05194e-05
1.05227e-05
1.05261e-05
1.05296e-05
1.05333e-05
1.05371e-05
1.0541e-05
1.0545e-05
1.05491e-05
1.04427e-05
1.04524e-05
1.04629e-05
1.04742e-05
1.04862e-05
1.04991e-05
1.05128e-05
1.05273e-05
1.05427e-05
1.0559e-05
1.0576e-05
1.05938e-05
1.06123e-05
1.06315e-05
1.06514e-05
1.06718e-05
1.06927e-05
1.07142e-05
1.0736e-05
1.07582e-05
1.07807e-05
1.08033e-05
1.0826e-05
1.08486e-05
1.0871e-05
1.08931e-05
1.09148e-05
1.09361e-05
1.09567e-05
1.09767e-05
1.09959e-05
1.10143e-05
1.10318e-05
1.10482e-05
1.10637e-05
1.1078e-05
1.10911e-05
1.1103e-05
1.11137e-05
1.11229e-05
1.11308e-05
1.11372e-05
1.11421e-05
1.11456e-05
1.11477e-05
1.11481e-05
1.11473e-05
1.11451e-05
1.11417e-05
1.11368e-05
1.11307e-05
1.11233e-05
1.11147e-05
1.1105e-05
1.10942e-05
1.10824e-05
1.10697e-05
1.10562e-05
1.1042e-05
1.10271e-05
1.10116e-05
1.09957e-05
1.09794e-05
1.09628e-05
1.0946e-05
1.09291e-05
1.09122e-05
1.08954e-05
1.08787e-05
1.08623e-05
1.08461e-05
1.08305e-05
1.08153e-05
1.08007e-05
1.07867e-05
1.07735e-05
1.07611e-05
1.07495e-05
1.07388e-05
1.07291e-05
1.07203e-05
1.07125e-05
1.07058e-05
1.07001e-05
1.06954e-05
1.06918e-05
1.06892e-05
1.06876e-05
1.06871e-05
1.06874e-05
1.06884e-05
1.06903e-05
1.06929e-05
1.06964e-05
1.07005e-05
1.07053e-05
1.07107e-05
1.07167e-05
1.07231e-05
1.073e-05
1.07374e-05
1.07451e-05
1.07532e-05
1.07615e-05
1.07702e-05
1.07791e-05
1.07882e-05
1.07976e-05
1.08072e-05
1.08171e-05
1.05663e-05
1.05885e-05
1.06123e-05
1.06378e-05
1.06648e-05
1.06935e-05
1.07237e-05
1.07556e-05
1.07889e-05
1.08237e-05
1.08599e-05
1.08972e-05
1.09357e-05
1.09752e-05
1.10156e-05
1.10567e-05
1.10984e-05
1.11408e-05
1.11835e-05
1.12266e-05
1.12698e-05
1.13129e-05
1.13556e-05
1.13975e-05
1.14384e-05
1.14782e-05
1.15167e-05
1.15537e-05
1.1589e-05
1.16227e-05
1.16545e-05
1.16844e-05
1.17123e-05
1.17381e-05
1.17618e-05
1.17833e-05
1.18027e-05
1.18199e-05
1.18348e-05
1.18474e-05
1.18575e-05
1.18652e-05
1.18705e-05
1.18735e-05
1.18738e-05
1.18723e-05
1.18685e-05
1.18625e-05
1.18545e-05
1.18443e-05
1.18321e-05
1.1818e-05
1.18021e-05
1.17845e-05
1.17651e-05
1.17443e-05
1.1722e-05
1.16984e-05
1.16736e-05
1.16477e-05
1.1621e-05
1.15934e-05
1.15652e-05
1.15365e-05
1.15075e-05
1.14782e-05
1.14488e-05
1.14195e-05
1.13905e-05
1.13619e-05
1.13339e-05
1.13067e-05
1.12804e-05
1.12551e-05
1.1231e-05
1.12081e-05
1.11868e-05
1.11669e-05
1.11488e-05
1.11324e-05
1.11178e-05
1.11051e-05
1.10944e-05
1.10857e-05
1.10789e-05
1.10743e-05
1.10716e-05
1.10712e-05
1.10722e-05
1.10748e-05
1.10791e-05
1.10851e-05
1.10927e-05
1.11018e-05
1.11122e-05
1.11238e-05
1.11366e-05
1.11505e-05
1.11653e-05
1.1181e-05
1.11973e-05
1.12144e-05
1.1232e-05
1.12502e-05
1.12688e-05
1.12879e-05
1.13073e-05
1.1327e-05
1.13471e-05
1.13675e-05
1.08382e-05
1.08856e-05
1.09357e-05
1.09884e-05
1.10438e-05
1.11017e-05
1.11621e-05
1.12249e-05
1.12902e-05
1.13575e-05
1.14265e-05
1.14968e-05
1.15678e-05
1.16393e-05
1.17107e-05
1.17819e-05
1.18526e-05
1.19226e-05
1.19917e-05
1.20599e-05
1.21268e-05
1.21921e-05
1.22554e-05
1.23163e-05
1.23745e-05
1.24299e-05
1.24822e-05
1.25313e-05
1.25771e-05
1.26195e-05
1.26585e-05
1.2694e-05
1.27261e-05
1.27546e-05
1.27797e-05
1.28015e-05
1.282e-05
1.28355e-05
1.28481e-05
1.28575e-05
1.28638e-05
1.28667e-05
1.28664e-05
1.2864e-05
1.28588e-05
1.2851e-05
1.2841e-05
1.28291e-05
1.28142e-05
1.27968e-05
1.27772e-05
1.27556e-05
1.27319e-05
1.27065e-05
1.26792e-05
1.26502e-05
1.26195e-05
1.25873e-05
1.25538e-05
1.25191e-05
1.24832e-05
1.24462e-05
1.24084e-05
1.23699e-05
1.23307e-05
1.22911e-05
1.22513e-05
1.22114e-05
1.21717e-05
1.21324e-05
1.20936e-05
1.20557e-05
1.20189e-05
1.19834e-05
1.19496e-05
1.19178e-05
1.1888e-05
1.18607e-05
1.1836e-05
1.1814e-05
1.1795e-05
1.17791e-05
1.17662e-05
1.17565e-05
1.175e-05
1.17474e-05
1.17481e-05
1.17509e-05
1.17568e-05
1.17656e-05
1.17772e-05
1.17913e-05
1.18078e-05
1.18265e-05
1.18472e-05
1.18698e-05
1.18941e-05
1.19197e-05
1.19468e-05
1.19749e-05
1.20042e-05
1.20342e-05
1.20649e-05
1.20962e-05
1.21278e-05
1.21598e-05
1.2192e-05
1.22245e-05
1.22573e-05
1.22903e-05
1.1298e-05
1.13842e-05
1.14745e-05
1.15684e-05
1.16654e-05
1.17649e-05
1.18664e-05
1.19696e-05
1.2074e-05
1.21793e-05
1.22848e-05
1.23897e-05
1.24935e-05
1.25955e-05
1.2695e-05
1.27917e-05
1.28851e-05
1.29747e-05
1.30606e-05
1.31426e-05
1.3221e-05
1.32962e-05
1.33675e-05
1.34341e-05
1.34953e-05
1.3551e-05
1.36011e-05
1.36457e-05
1.36851e-05
1.37195e-05
1.37494e-05
1.37748e-05
1.37957e-05
1.38122e-05
1.38246e-05
1.38333e-05
1.38385e-05
1.38405e-05
1.38401e-05
1.3838e-05
1.38332e-05
1.3826e-05
1.38162e-05
1.3804e-05
1.379e-05
1.37747e-05
1.37592e-05
1.37407e-05
1.37206e-05
1.36992e-05
1.36765e-05
1.36523e-05
1.36268e-05
1.36003e-05
1.35725e-05
1.35434e-05
1.35133e-05
1.34823e-05
1.34504e-05
1.34173e-05
1.33832e-05
1.33484e-05
1.33128e-05
1.32765e-05
1.32396e-05
1.32022e-05
1.31645e-05
1.31265e-05
1.30883e-05
1.30504e-05
1.30129e-05
1.29763e-05
1.29408e-05
1.29065e-05
1.28736e-05
1.28423e-05
1.28128e-05
1.27855e-05
1.27607e-05
1.27388e-05
1.272e-05
1.27046e-05
1.26929e-05
1.2685e-05
1.26813e-05
1.26818e-05
1.26855e-05
1.26926e-05
1.2704e-05
1.27187e-05
1.27367e-05
1.27577e-05
1.27815e-05
1.28078e-05
1.28362e-05
1.28665e-05
1.28984e-05
1.29319e-05
1.29666e-05
1.30022e-05
1.30383e-05
1.30748e-05
1.31119e-05
1.31493e-05
1.31868e-05
1.3224e-05
1.32608e-05
1.3297e-05
1.33324e-05
1.33669e-05
1.34004e-05
1.2196e-05
1.23338e-05
1.2473e-05
1.26126e-05
1.27516e-05
1.28889e-05
1.30239e-05
1.31559e-05
1.3285e-05
1.34119e-05
1.35352e-05
1.3653e-05
1.37637e-05
1.38663e-05
1.39603e-05
1.40453e-05
1.41214e-05
1.41887e-05
1.42474e-05
1.42979e-05
1.43405e-05
1.43756e-05
1.4404e-05
1.44263e-05
1.44432e-05
1.44554e-05
1.44635e-05
1.44673e-05
1.44673e-05
1.44654e-05
1.44609e-05
1.4454e-05
1.44448e-05
1.44336e-05
1.44205e-05
1.44057e-05
1.43894e-05
1.43719e-05
1.43537e-05
1.43353e-05
1.43172e-05
1.42958e-05
1.4274e-05
1.42525e-05
1.42307e-05
1.42087e-05
1.41867e-05
1.4164e-05
1.41417e-05
1.41191e-05
1.40957e-05
1.40723e-05
1.40491e-05
1.40256e-05
1.40021e-05
1.39792e-05
1.39564e-05
1.39333e-05
1.39104e-05
1.38879e-05
1.38657e-05
1.38437e-05
1.38216e-05
1.37996e-05
1.37776e-05
1.37556e-05
1.37339e-05
1.37127e-05
1.3692e-05
1.36718e-05
1.3652e-05
1.36326e-05
1.36138e-05
1.35958e-05
1.35791e-05
1.35641e-05
1.35512e-05
1.35407e-05
1.35327e-05
1.35275e-05
1.35257e-05
1.35263e-05
1.35293e-05
1.35352e-05
1.35435e-05
1.35542e-05
1.35687e-05
1.35848e-05
1.36033e-05
1.36239e-05
1.36462e-05
1.36698e-05
1.36942e-05
1.37189e-05
1.37441e-05
1.37692e-05
1.37939e-05
1.38179e-05
1.38412e-05
1.38641e-05
1.38867e-05
1.39083e-05
1.39286e-05
1.39477e-05
1.39658e-05
1.39831e-05
1.39994e-05
1.40146e-05
1.40289e-05
1.40426e-05
1.40559e-05
1.40687e-05
1.40809e-05
1.34557e-05
1.36211e-05
1.37815e-05
1.39342e-05
1.4077e-05
1.42084e-05
1.43274e-05
1.44334e-05
1.45258e-05
1.46044e-05
1.46702e-05
1.47248e-05
1.47696e-05
1.48058e-05
1.48344e-05
1.4856e-05
1.48711e-05
1.48802e-05
1.48834e-05
1.48826e-05
1.48791e-05
1.48723e-05
1.48626e-05
1.48503e-05
1.48361e-05
1.48199e-05
1.48021e-05
1.47827e-05
1.47623e-05
1.47411e-05
1.47196e-05
1.46975e-05
1.46768e-05
1.46537e-05
1.46289e-05
1.46054e-05
1.45813e-05
1.45566e-05
1.45331e-05
1.45101e-05
1.44857e-05
1.44605e-05
1.44358e-05
1.44112e-05
1.43864e-05
1.43624e-05
1.43397e-05
1.43169e-05
1.42932e-05
1.42691e-05
1.42458e-05
1.42237e-05
1.42012e-05
1.41787e-05
1.41573e-05
1.41362e-05
1.41153e-05
1.40955e-05
1.40769e-05
1.40586e-05
1.40405e-05
1.40233e-05
1.40072e-05
1.39921e-05
1.39775e-05
1.39639e-05
1.39511e-05
1.39391e-05
1.39279e-05
1.3918e-05
1.39093e-05
1.39023e-05
1.3897e-05
1.38937e-05
1.38925e-05
1.38928e-05
1.38944e-05
1.38977e-05
1.39027e-05
1.39095e-05
1.39179e-05
1.39266e-05
1.39395e-05
1.39547e-05
1.39693e-05
1.39845e-05
1.40016e-05
1.40195e-05
1.40376e-05
1.40558e-05
1.40738e-05
1.40911e-05
1.41081e-05
1.41243e-05
1.41391e-05
1.41531e-05
1.41667e-05
1.41795e-05
1.41913e-05
1.42023e-05
1.42119e-05
1.42209e-05
1.42298e-05
1.42379e-05
1.4245e-05
1.42514e-05
1.42575e-05
1.42634e-05
1.4269e-05
1.42741e-05
1.42787e-05
1.42827e-05
1.42862e-05
1.44644e-05
1.46051e-05
1.47278e-05
1.48322e-05
1.49197e-05
1.49919e-05
1.50506e-05
1.50975e-05
1.51341e-05
1.51616e-05
1.51809e-05
1.5193e-05
1.51978e-05
1.51972e-05
1.51933e-05
1.51855e-05
1.51744e-05
1.51605e-05
1.51446e-05
1.51268e-05
1.51072e-05
1.50867e-05
1.50656e-05
1.5044e-05
1.50215e-05
1.49995e-05
1.49768e-05
1.49503e-05
1.49248e-05
1.49004e-05
1.48739e-05
1.48468e-05
1.48208e-05
1.4796e-05
1.47703e-05
1.47435e-05
1.47167e-05
1.46905e-05
1.46641e-05
1.46375e-05
1.46119e-05
1.45866e-05
1.45607e-05
1.45346e-05
1.45087e-05
1.44829e-05
1.44574e-05
1.44338e-05
1.44107e-05
1.43867e-05
1.4362e-05
1.43385e-05
1.43172e-05
1.42956e-05
1.42732e-05
1.42518e-05
1.4231e-05
1.42104e-05
1.41916e-05
1.41742e-05
1.41568e-05
1.41396e-05
1.41244e-05
1.41102e-05
1.40962e-05
1.40829e-05
1.40708e-05
1.40595e-05
1.40488e-05
1.40393e-05
1.40314e-05
1.40252e-05
1.40208e-05
1.40179e-05
1.4017e-05
1.40174e-05
1.40191e-05
1.40217e-05
1.40268e-05
1.40342e-05
1.40434e-05
1.40542e-05
1.40662e-05
1.40792e-05
1.40943e-05
1.41097e-05
1.4125e-05
1.4141e-05
1.41576e-05
1.41734e-05
1.41889e-05
1.42044e-05
1.4219e-05
1.42325e-05
1.42454e-05
1.42574e-05
1.42686e-05
1.42791e-05
1.42882e-05
1.42964e-05
1.43041e-05
1.43113e-05
1.43178e-05
1.43239e-05
1.43283e-05
1.43322e-05
1.43361e-05
1.43397e-05
1.43428e-05
1.43452e-05
1.43469e-05
1.43483e-05
1.43497e-05
1.4351e-05
1.43521e-05
1.53299e-05
1.53736e-05
1.54066e-05
1.54301e-05
1.54452e-05
1.5452e-05
1.54517e-05
1.54478e-05
1.54397e-05
1.54281e-05
1.54141e-05
1.53979e-05
1.53796e-05
1.536e-05
1.53395e-05
1.53181e-05
1.52956e-05
1.52727e-05
1.52494e-05
1.52218e-05
1.51947e-05
1.51683e-05
1.51417e-05
1.51149e-05
1.50881e-05
1.50617e-05
1.50346e-05
1.50068e-05
1.49791e-05
1.4952e-05
1.49243e-05
1.48963e-05
1.48691e-05
1.48425e-05
1.48156e-05
1.47883e-05
1.47615e-05
1.47349e-05
1.47083e-05
1.46818e-05
1.46561e-05
1.46304e-05
1.46046e-05
1.45787e-05
1.45528e-05
1.45267e-05
1.45013e-05
1.44783e-05
1.44551e-05
1.44308e-05
1.44058e-05
1.43836e-05
1.43628e-05
1.43407e-05
1.43188e-05
1.4298e-05
1.42767e-05
1.42569e-05
1.42396e-05
1.42219e-05
1.42042e-05
1.4189e-05
1.41747e-05
1.41597e-05
1.4146e-05
1.41342e-05
1.41233e-05
1.41122e-05
1.41028e-05
1.40949e-05
1.40893e-05
1.40848e-05
1.40806e-05
1.40785e-05
1.40786e-05
1.40798e-05
1.40828e-05
1.40874e-05
1.40941e-05
1.41026e-05
1.41123e-05
1.41227e-05
1.41338e-05
1.4146e-05
1.41592e-05
1.41731e-05
1.41873e-05
1.4202e-05
1.42171e-05
1.42316e-05
1.4246e-05
1.426e-05
1.42715e-05
1.4283e-05
1.42946e-05
1.43051e-05
1.43145e-05
1.43236e-05
1.43326e-05
1.43401e-05
1.43465e-05
1.43528e-05
1.4359e-05
1.43639e-05
1.43683e-05
1.43724e-05
1.43756e-05
1.43782e-05
1.43805e-05
1.43825e-05
1.43841e-05
1.43853e-05
1.43865e-05
1.43875e-05
1.4388e-05
1.4388e-05
1.55684e-05
1.56067e-05
1.56363e-05
1.56579e-05
1.56724e-05
1.56804e-05
1.56809e-05
1.56778e-05
1.56706e-05
1.56597e-05
1.5646e-05
1.56302e-05
1.56121e-05
1.55923e-05
1.55716e-05
1.55499e-05
1.55272e-05
1.55047e-05
1.54781e-05
1.54509e-05
1.54246e-05
1.53984e-05
1.5372e-05
1.53455e-05
1.53192e-05
1.52923e-05
1.52642e-05
1.52363e-05
1.52088e-05
1.51813e-05
1.51538e-05
1.51266e-05
1.50996e-05
1.5072e-05
1.50441e-05
1.50167e-05
1.49894e-05
1.49618e-05
1.4934e-05
1.4907e-05
1.48803e-05
1.48533e-05
1.48262e-05
1.47996e-05
1.47733e-05
1.47468e-05
1.47207e-05
1.46952e-05
1.46697e-05
1.46444e-05
1.46189e-05
1.45933e-05
1.45671e-05
1.45426e-05
1.45203e-05
1.44971e-05
1.44727e-05
1.44483e-05
1.44276e-05
1.44066e-05
1.43844e-05
1.43636e-05
1.43431e-05
1.43222e-05
1.43041e-05
1.42868e-05
1.42687e-05
1.42528e-05
1.42384e-05
1.42235e-05
1.42085e-05
1.41956e-05
1.41834e-05
1.4173e-05
1.41622e-05
1.4152e-05
1.41437e-05
1.41369e-05
1.41323e-05
1.41293e-05
1.41287e-05
1.41294e-05
1.41313e-05
1.41343e-05
1.41384e-05
1.41436e-05
1.41501e-05
1.41581e-05
1.41674e-05
1.41778e-05
1.41892e-05
1.42012e-05
1.42135e-05
1.42257e-05
1.42386e-05
1.42516e-05
1.42639e-05
1.42767e-05
1.4289e-05
1.42996e-05
1.43093e-05
1.43197e-05
1.433e-05
1.43393e-05
1.4348e-05
1.43555e-05
1.43629e-05
1.43707e-05
1.43773e-05
1.43832e-05
1.43887e-05
1.43934e-05
1.43968e-05
1.44007e-05
1.44039e-05
1.44064e-05
1.44086e-05
1.44103e-05
1.44114e-05
1.44117e-05
1.4412e-05
1.44122e-05
1.44122e-05
1.60466e-05
1.60065e-05
1.59699e-05
1.59359e-05
1.59038e-05
1.58733e-05
1.58436e-05
1.58149e-05
1.57872e-05
1.57602e-05
1.57347e-05
1.57074e-05
1.56786e-05
1.56506e-05
1.56233e-05
1.55962e-05
1.55699e-05
1.55437e-05
1.5516e-05
1.54879e-05
1.54603e-05
1.5433e-05
1.54056e-05
1.53785e-05
1.53515e-05
1.5324e-05
1.5296e-05
1.52682e-05
1.52406e-05
1.5213e-05
1.51854e-05
1.51581e-05
1.51307e-05
1.5103e-05
1.50754e-05
1.50483e-05
1.50212e-05
1.49939e-05
1.49667e-05
1.49403e-05
1.49138e-05
1.4887e-05
1.48605e-05
1.48346e-05
1.48087e-05
1.47829e-05
1.47575e-05
1.47325e-05
1.47075e-05
1.46829e-05
1.46583e-05
1.46332e-05
1.46074e-05
1.45843e-05
1.45626e-05
1.45396e-05
1.45152e-05
1.44926e-05
1.44727e-05
1.44514e-05
1.44299e-05
1.44102e-05
1.43898e-05
1.43706e-05
1.43534e-05
1.43356e-05
1.43184e-05
1.43033e-05
1.42895e-05
1.42743e-05
1.42594e-05
1.42465e-05
1.42345e-05
1.4223e-05
1.42115e-05
1.42014e-05
1.41937e-05
1.41883e-05
1.41842e-05
1.41811e-05
1.41792e-05
1.41786e-05
1.41789e-05
1.41804e-05
1.41835e-05
1.41883e-05
1.41947e-05
1.4202e-05
1.421e-05
1.42186e-05
1.42276e-05
1.42372e-05
1.42472e-05
1.42575e-05
1.42688e-05
1.42798e-05
1.42905e-05
1.43021e-05
1.43131e-05
1.43225e-05
1.43314e-05
1.434e-05
1.43504e-05
1.43602e-05
1.43689e-05
1.4377e-05
1.43842e-05
1.43909e-05
1.43985e-05
1.44051e-05
1.44111e-05
1.44166e-05
1.44213e-05
1.44249e-05
1.44281e-05
1.44314e-05
1.44342e-05
1.44362e-05
1.44375e-05
1.44386e-05
1.44395e-05
1.444e-05
1.44399e-05
1.63352e-05
1.62495e-05
1.61731e-05
1.61049e-05
1.60445e-05
1.59906e-05
1.59417e-05
1.58973e-05
1.58566e-05
1.58193e-05
1.57849e-05
1.57516e-05
1.5719e-05
1.56877e-05
1.56577e-05
1.56285e-05
1.56005e-05
1.55726e-05
1.55444e-05
1.55159e-05
1.54875e-05
1.54593e-05
1.54312e-05
1.54037e-05
1.53761e-05
1.53481e-05
1.53202e-05
1.52926e-05
1.5265e-05
1.52375e-05
1.52103e-05
1.51833e-05
1.51562e-05
1.5129e-05
1.51021e-05
1.50755e-05
1.5049e-05
1.50224e-05
1.49962e-05
1.49704e-05
1.49445e-05
1.49185e-05
1.48929e-05
1.48678e-05
1.48427e-05
1.48178e-05
1.47932e-05
1.47688e-05
1.47446e-05
1.47211e-05
1.46973e-05
1.46728e-05
1.46479e-05
1.46266e-05
1.46056e-05
1.4583e-05
1.45595e-05
1.45389e-05
1.45193e-05
1.44977e-05
1.44779e-05
1.44589e-05
1.44394e-05
1.44218e-05
1.44052e-05
1.43874e-05
1.43715e-05
1.43566e-05
1.43433e-05
1.4328e-05
1.43131e-05
1.43001e-05
1.42877e-05
1.42768e-05
1.42668e-05
1.42576e-05
1.42497e-05
1.42431e-05
1.42379e-05
1.42341e-05
1.42319e-05
1.42317e-05
1.42322e-05
1.42335e-05
1.42356e-05
1.42386e-05
1.42426e-05
1.42474e-05
1.42532e-05
1.42598e-05
1.42671e-05
1.42751e-05
1.42833e-05
1.4292e-05
1.43011e-05
1.431e-05
1.43192e-05
1.43294e-05
1.43391e-05
1.43473e-05
1.43554e-05
1.43629e-05
1.4373e-05
1.43833e-05
1.4392e-05
1.44003e-05
1.44084e-05
1.44147e-05
1.44215e-05
1.44292e-05
1.44359e-05
1.4442e-05
1.44476e-05
1.44516e-05
1.44549e-05
1.44587e-05
1.44624e-05
1.44649e-05
1.44664e-05
1.44678e-05
1.44691e-05
1.44694e-05
1.44694e-05
1.66084e-05
1.64877e-05
1.63778e-05
1.6279e-05
1.61909e-05
1.61125e-05
1.60429e-05
1.59811e-05
1.59261e-05
1.58772e-05
1.58335e-05
1.57933e-05
1.57558e-05
1.57208e-05
1.56874e-05
1.56555e-05
1.5625e-05
1.5595e-05
1.55653e-05
1.5536e-05
1.55071e-05
1.54786e-05
1.54505e-05
1.54228e-05
1.53951e-05
1.53675e-05
1.534e-05
1.53128e-05
1.52857e-05
1.52588e-05
1.52322e-05
1.52058e-05
1.51793e-05
1.51529e-05
1.51269e-05
1.51011e-05
1.50753e-05
1.50496e-05
1.50244e-05
1.49995e-05
1.49744e-05
1.49493e-05
1.49249e-05
1.49006e-05
1.48764e-05
1.48525e-05
1.48289e-05
1.48052e-05
1.4782e-05
1.47596e-05
1.47367e-05
1.47129e-05
1.46899e-05
1.46698e-05
1.46493e-05
1.46271e-05
1.46054e-05
1.45863e-05
1.45668e-05
1.45462e-05
1.45276e-05
1.45089e-05
1.44913e-05
1.4475e-05
1.44587e-05
1.44415e-05
1.44262e-05
1.44113e-05
1.43982e-05
1.4384e-05
1.43695e-05
1.43565e-05
1.43444e-05
1.43334e-05
1.43234e-05
1.43143e-05
1.43065e-05
1.43002e-05
1.42952e-05
1.42915e-05
1.42889e-05
1.42872e-05
1.42865e-05
1.42866e-05
1.42874e-05
1.42892e-05
1.4292e-05
1.42957e-05
1.43002e-05
1.43052e-05
1.43106e-05
1.43164e-05
1.43225e-05
1.43292e-05
1.43364e-05
1.43437e-05
1.43515e-05
1.43602e-05
1.43688e-05
1.43759e-05
1.43832e-05
1.43899e-05
1.43995e-05
1.44099e-05
1.44187e-05
1.44269e-05
1.44353e-05
1.44426e-05
1.44483e-05
1.44561e-05
1.44637e-05
1.44704e-05
1.44767e-05
1.44815e-05
1.44849e-05
1.44889e-05
1.44934e-05
1.44967e-05
1.44984e-05
1.45e-05
1.45015e-05
1.45023e-05
1.45025e-05
1.45024e-05
1.45021e-05
1.69184e-05
1.67746e-05
1.66369e-05
1.65079e-05
1.63891e-05
1.62812e-05
1.61844e-05
1.60983e-05
1.60222e-05
1.59552e-05
1.5896e-05
1.58437e-05
1.57973e-05
1.57556e-05
1.57171e-05
1.56814e-05
1.56477e-05
1.56155e-05
1.55842e-05
1.55539e-05
1.55245e-05
1.54956e-05
1.54675e-05
1.54399e-05
1.54124e-05
1.53851e-05
1.53582e-05
1.53315e-05
1.53051e-05
1.52789e-05
1.52531e-05
1.52273e-05
1.52016e-05
1.51762e-05
1.5151e-05
1.51261e-05
1.51011e-05
1.50764e-05
1.50523e-05
1.50282e-05
1.50039e-05
1.49801e-05
1.49567e-05
1.49333e-05
1.491e-05
1.48873e-05
1.48648e-05
1.48416e-05
1.48197e-05
1.47987e-05
1.47767e-05
1.47537e-05
1.47328e-05
1.47136e-05
1.46933e-05
1.46717e-05
1.46522e-05
1.46342e-05
1.46148e-05
1.45959e-05
1.45778e-05
1.45603e-05
1.45443e-05
1.45293e-05
1.45128e-05
1.44963e-05
1.44816e-05
1.44671e-05
1.44534e-05
1.444e-05
1.44267e-05
1.44139e-05
1.44023e-05
1.43918e-05
1.43824e-05
1.43739e-05
1.43662e-05
1.43596e-05
1.43539e-05
1.43494e-05
1.43459e-05
1.43435e-05
1.43422e-05
1.43418e-05
1.4342e-05
1.43428e-05
1.43442e-05
1.43463e-05
1.43489e-05
1.43521e-05
1.43559e-05
1.43601e-05
1.43647e-05
1.43698e-05
1.43754e-05
1.43813e-05
1.43877e-05
1.43947e-05
1.44024e-05
1.44087e-05
1.4415e-05
1.44211e-05
1.44297e-05
1.44401e-05
1.44489e-05
1.4457e-05
1.44652e-05
1.44735e-05
1.44796e-05
1.4486e-05
1.44943e-05
1.45017e-05
1.45088e-05
1.45143e-05
1.4518e-05
1.45222e-05
1.45272e-05
1.45312e-05
1.45335e-05
1.45353e-05
1.45371e-05
1.45383e-05
1.45389e-05
1.4539e-05
1.45389e-05
1.72357e-05
1.70908e-05
1.69428e-05
1.67951e-05
1.66512e-05
1.65143e-05
1.63868e-05
1.62704e-05
1.6166e-05
1.60736e-05
1.59923e-05
1.59207e-05
1.5858e-05
1.58033e-05
1.57557e-05
1.57134e-05
1.56749e-05
1.56391e-05
1.56053e-05
1.55733e-05
1.55426e-05
1.55131e-05
1.54846e-05
1.54568e-05
1.54294e-05
1.54026e-05
1.53761e-05
1.53499e-05
1.53241e-05
1.52987e-05
1.52736e-05
1.52486e-05
1.52237e-05
1.51992e-05
1.51749e-05
1.51508e-05
1.51268e-05
1.51032e-05
1.508e-05
1.50567e-05
1.50335e-05
1.50108e-05
1.49885e-05
1.49659e-05
1.49437e-05
1.49224e-05
1.49006e-05
1.48783e-05
1.4858e-05
1.4838e-05
1.48168e-05
1.47952e-05
1.4776e-05
1.47575e-05
1.47376e-05
1.47173e-05
1.46993e-05
1.4682e-05
1.46638e-05
1.46461e-05
1.46286e-05
1.46126e-05
1.45971e-05
1.45831e-05
1.45672e-05
1.45513e-05
1.45369e-05
1.45227e-05
1.45092e-05
1.44963e-05
1.44837e-05
1.44717e-05
1.44607e-05
1.44506e-05
1.44416e-05