/*--------------------------------*- C++ -*----------------------------------*\
| =========                 |                                                 |
| \\      /  F ield         | OpenFOAM: The Open Source CFD Toolbox           |
|  \\    /   O peration     | Version:  v1706                                 |
|   \\  /    A nd           | Web:      www.OpenFOAM.com                      |
|    \\/     M anipulation  |                                                 |
\*---------------------------------------------------------------------------*/
FoamFile
{
    version     2.0;
    format      ascii;
    class       volScalarField;
    location    "1.9e-05";
    object      p;
}
// * * * * * * * * * * * * * * * * * * * * * * * * * * * * * * * * * * * * * //

dimensions      [1 -1 -2 0 0 0 0];


internalField   nonuniform List<scalar> 
29871
(
21.914
21.9141
21.9141
21.9141
21.9141
21.9141
21.9141
21.9142
21.9142
21.9142
21.9142
21.9142
21.9143
21.9143
21.9143
21.9144
21.9144
21.9144
21.9144
21.9145
21.9145
21.9145
21.9146
21.9146
21.9146
21.9147
21.9147
21.9147
21.9147
21.9148
21.9148
21.9148
21.9148
21.9149
21.9149
21.9149
21.9149
21.9149
21.9149
21.915
21.915
21.915
21.915
21.915
21.915
21.915
21.9149
21.9149
21.9149
21.9149
21.9149
21.9149
21.9149
21.9148
21.9148
21.9148
21.9148
21.9147
21.9147
21.9147
21.9147
21.9146
21.9146
21.9146
21.9145
21.9145
21.9145
21.9145
21.9144
21.9144
21.9144
21.9144
21.9144
21.9143
21.9143
21.9143
21.9143
21.9143
21.9143
21.9142
21.9142
21.9142
21.9142
21.9142
21.9142
21.9142
21.9142
21.9142
21.9142
21.9142
21.9142
21.9142
21.9142
21.9142
21.9142
21.9142
21.9142
21.9142
21.9142
21.9142
21.9142
21.9142
21.9142
21.9142
21.9142
21.9147
21.9148
21.9149
21.915
21.9151
21.9152
21.9153
21.9154
21.9155
21.9157
21.9158
21.9159
21.9161
21.9162
21.9164
21.9166
21.9168
21.9169
21.9171
21.9173
21.9175
21.9177
21.9179
21.9181
21.9183
21.9185
21.9187
21.9188
21.919
21.9192
21.9193
21.9195
21.9196
21.9198
21.9199
21.92
21.9201
21.9202
21.9203
21.9204
21.9204
21.9204
21.9205
21.9205
21.9204
21.9204
21.9204
21.9203
21.9203
21.9202
21.9201
21.92
21.9199
21.9198
21.9196
21.9195
21.9193
21.9192
21.919
21.9189
21.9187
21.9185
21.9184
21.9182
21.918
21.9179
21.9177
21.9176
21.9174
21.9173
21.9171
21.917
21.9169
21.9167
21.9166
21.9165
21.9164
21.9163
21.9162
21.9162
21.9161
21.916
21.916
21.9159
21.9159
21.9159
21.9158
21.9158
21.9158
21.9158
21.9158
21.9158
21.9158
21.9158
21.9158
21.9158
21.9159
21.9159
21.9159
21.9159
21.9159
21.916
21.916
21.916
21.916
21.9162
21.9164
21.9167
21.9169
21.9172
21.9175
21.9179
21.9182
21.9186
21.919
21.9195
21.9199
21.9204
21.9209
21.9214
21.9219
21.9224
21.923
21.9236
21.9241
21.9247
21.9253
21.926
21.9266
21.9272
21.9278
21.9284
21.929
21.9296
21.9302
21.9307
21.9313
21.9318
21.9323
21.9327
21.9331
21.9335
21.9339
21.9342
21.9344
21.9346
21.9348
21.9349
21.935
21.935
21.935
21.935
21.9349
21.9347
21.9345
21.9343
21.934
21.9337
21.9333
21.9329
21.9325
21.9321
21.9316
21.9311
21.9306
21.9301
21.9296
21.9291
21.9285
21.928
21.9275
21.927
21.9265
21.926
21.9255
21.925
21.9246
21.9241
21.9237
21.9233
21.923
21.9226
21.9223
21.922
21.9217
21.9215
21.9213
21.9211
21.9209
21.9208
21.9206
21.9205
21.9205
21.9204
21.9204
21.9203
21.9203
21.9203
21.9204
21.9204
21.9204
21.9205
21.9206
21.9206
21.9207
21.9208
21.9209
21.921
21.9211
21.9212
21.9213
21.9202
21.9208
21.9215
21.9223
21.9231
21.924
21.9249
21.9259
21.927
21.9281
21.9292
21.9305
21.9317
21.9331
21.9345
21.9359
21.9374
21.939
21.9406
21.9422
21.9439
21.9455
21.9472
21.9489
21.9506
21.9523
21.9539
21.9556
21.9572
21.9588
21.9603
21.9617
21.9631
21.9644
21.9656
21.9668
21.9678
21.9687
21.9696
21.9703
21.9709
21.9713
21.9717
21.9719
21.9719
21.9719
21.9717
21.9714
21.971
21.9705
21.9699
21.9691
21.9683
21.9673
21.9663
21.9652
21.964
21.9628
21.9615
21.9602
21.9588
21.9574
21.956
21.9545
21.9531
21.9517
21.9503
21.9489
21.9475
21.9462
21.9449
21.9437
21.9425
21.9414
21.9403
21.9393
21.9384
21.9375
21.9367
21.936
21.9354
21.9348
21.9343
21.9339
21.9335
21.9332
21.9329
21.9328
21.9326
21.9326
21.9325
21.9326
21.9326
21.9327
21.9328
21.933
21.9332
21.9334
21.9336
21.9339
21.9342
21.9345
21.9348
21.9351
21.9354
21.9358
21.9288
21.9304
21.9321
21.9339
21.9359
21.938
21.9403
21.9428
21.9453
21.9481
21.951
21.9541
21.9573
21.9606
21.9641
21.9677
21.9714
21.9752
21.9791
21.9831
21.9872
21.9914
21.9956
21.9999
22.0042
22.0085
22.0128
22.017
22.0212
22.0253
22.0292
22.0331
22.0368
22.0403
22.0437
22.0468
22.0496
22.0523
22.0546
22.0566
22.0584
22.0598
22.061
22.0618
22.0623
22.0624
22.0623
22.0618
22.061
22.06
22.0586
22.0569
22.055
22.0528
22.0504
22.0477
22.0449
22.0419
22.0387
22.0354
22.032
22.0285
22.025
22.0214
22.0178
22.0142
22.0107
22.0071
22.0037
22.0003
21.997
21.9938
21.9907
21.9878
21.985
21.9824
21.9799
21.9776
21.9755
21.9735
21.9718
21.9702
21.9688
21.9676
21.9666
21.9657
21.965
21.9645
21.9641
21.9639
21.9639
21.9639
21.964
21.9643
21.9646
21.9651
21.9656
21.9662
21.9669
21.9676
21.9684
21.9693
21.9702
21.9711
21.9721
21.9731
21.9742
21.952
21.956
21.9604
21.9651
21.9702
21.9756
21.9813
21.9874
21.9938
22.0006
22.0077
22.0152
22.0231
22.0314
22.04
22.049
22.0583
22.0679
22.0778
22.0879
22.0982
22.1086
22.1191
22.1296
22.1401
22.1506
22.161
22.1713
22.1814
22.1912
22.2008
22.21
22.2189
22.2272
22.2351
22.2424
22.2492
22.2553
22.2607
22.2654
22.2695
22.2727
22.2752
22.277
22.2779
22.278
22.2775
22.2762
22.2741
22.2713
22.2678
22.2636
22.2588
22.2534
22.2475
22.241
22.2341
22.2268
22.2191
22.2111
22.2028
22.1943
22.1857
22.177
22.1683
22.1596
22.1509
22.1424
22.134
22.1258
22.1179
22.1102
22.1029
22.096
22.0894
22.0832
22.0774
22.0721
22.0672
22.0627
22.0587
22.0552
22.0521
22.0494
22.0472
22.0454
22.0441
22.0431
22.0425
22.0424
22.0425
22.0428
22.0435
22.0445
22.0457
22.0472
22.0488
22.0507
22.0527
22.0549
22.0573
22.0598
22.0624
22.0651
22.0678
22.0707
22.0736
21.9838
21.9917
22.0002
22.0094
22.0193
22.03
22.0414
22.0538
22.067
22.0811
22.0962
22.1123
22.1292
22.147
22.1656
22.185
22.2052
22.2262
22.2478
22.27
22.2927
22.3159
22.3396
22.3638
22.3882
22.4129
22.4377
22.4625
22.4872
22.5117
22.5358
22.5594
22.5824
22.6047
22.6262
22.6467
22.6661
22.6843
22.7012
22.7166
22.7305
22.7427
22.7533
22.7621
22.769
22.7742
22.7774
22.7788
22.7785
22.7766
22.7728
22.7672
22.7599
22.751
22.7405
22.7286
22.7154
22.7009
22.6853
22.6687
22.6512
22.6329
22.614
22.5945
22.5748
22.5547
22.5345
22.5143
22.4942
22.4742
22.4546
22.4354
22.4166
22.3985
22.381
22.3642
22.3483
22.3332
22.3191
22.3059
22.2939
22.2828
22.2729
22.2641
22.2564
22.2498
22.2444
22.24
22.2366
22.2342
22.2328
22.2324
22.2327
22.2338
22.2355
22.238
22.2412
22.2451
22.2495
22.2544
22.2599
22.2657
22.272
22.2787
22.2856
22.2929
22.3004
22.3082
22.3163
22.3247
22.0859
22.105
22.1259
22.1485
22.1731
22.1995
22.2278
22.2579
22.29
22.3239
22.3596
22.3971
22.4367
22.4782
22.5218
22.5674
22.615
22.6645
22.7159
22.7689
22.8235
22.8794
22.9361
22.9934
23.0511
23.1088
23.1664
23.2236
23.2802
23.336
23.3908
23.4442
23.496
23.546
23.5938
23.6393
23.6821
23.7219
23.7586
23.7919
23.8216
23.8476
23.8696
23.8876
23.9015
23.9113
23.9166
23.9178
23.915
23.909
23.8985
23.884
23.8658
23.8441
23.819
23.7908
23.7595
23.7255
23.689
23.6502
23.6095
23.5672
23.5234
23.4785
23.4328
23.3865
23.3401
23.2937
23.2476
23.2022
23.1576
23.1142
23.072
23.0314
22.9926
22.9556
22.9206
22.8879
22.8573
22.8291
22.8034
22.7801
22.7593
22.7411
22.7255
22.7124
22.7019
22.6939
22.6883
22.6854
22.6847
22.6858
22.6888
22.6937
22.7005
22.709
22.7191
22.7307
22.7437
22.7579
22.7732
22.7895
22.8068
22.8249
22.8439
22.8635
22.8839
22.9048
22.9262
22.9482
22.3328
22.3788
22.4282
22.4814
22.5386
22.6
22.6659
22.7366
22.8123
22.8931
22.9788
23.0693
23.1642
23.2632
23.3661
23.4728
23.5831
23.6969
23.8136
23.933
24.0546
24.1782
24.3034
24.43
24.5575
24.6852
24.8125
24.9389
25.0637
25.1862
25.3058
25.422
25.5343
25.6421
25.7448
25.8419
25.9329
26.0172
26.0943
26.1636
26.2246
26.2768
26.3204
26.3549
26.3801
26.3957
26.403
26.4007
26.3907
26.3719
26.344
26.3077
26.2634
26.2117
26.1529
26.0874
26.0157
25.9384
25.8563
25.7698
25.6796
25.5861
25.4901
25.3923
25.2932
25.1932
25.093
24.993
24.8938
24.796
24.7
24.6063
24.5154
24.4279
24.3441
24.2645
24.1896
24.1195
24.0547
23.9954
23.9417
23.8939
23.8521
23.816
23.786
23.7623
23.7444
23.7318
23.7257
23.7246
23.7278
23.7357
23.7481
23.7647
23.7856
23.8105
23.839
23.8709
23.906
23.944
23.9847
24.0279
24.0734
24.1208
24.1701
24.2212
24.2741
24.3287
24.3852
24.4435
22.9077
23.016
23.1336
23.2606
23.397
23.5429
23.6982
23.8628
24.0362
24.2183
24.409
24.6086
24.8174
25.0354
25.2627
25.4988
25.7434
25.9961
26.2569
26.5256
26.8011
27.0815
27.3645
27.6479
27.9301
28.2098
28.4856
28.7564
29.0214
29.2795
29.5298
29.7709
30.0017
30.2213
30.4287
30.6234
30.8045
30.9711
31.122
31.2563
31.3732
31.4716
31.5506
31.6106
31.6516
31.6758
31.6759
31.6573
31.626
31.5759
31.507
31.421
31.319
31.2014
31.069
30.9234
30.7657
30.5966
30.4171
30.2285
30.0324
29.8303
29.6231
29.4122
29.1989
28.9845
28.7702
28.5575
28.3478
28.1423
27.9423
27.7489
27.5628
27.3849
27.2157
27.0559
26.9062
26.7671
26.6393
26.5233
26.4195
26.328
26.2493
26.1839
26.1319
26.0921
26.0653
26.0544
26.0533
26.0637
26.0846
26.1162
26.1585
26.211
26.2731
26.3441
26.4235
26.5108
26.6052
26.7059
26.8123
26.924
27.0408
27.1623
27.2884
27.4186
27.5523
27.6892
27.8288
27.9711
24.2442
24.4889
24.7504
25.0297
25.3282
25.6471
25.9876
26.3517
26.7404
27.1536
27.5894
28.045
28.5176
29.0048
29.5049
30.0166
30.5396
31.0733
31.616
32.1648
32.7175
33.2735
33.8319
34.3909
34.9479
35.5
36.0441
36.5776
37.0974
37.6
38.0826
38.5438
38.9821
39.3955
39.7816
40.1381
40.4631
40.7576
41.0209
41.2481
41.4365
41.5859
41.6981
41.7788
41.8201
41.8203
41.7933
41.7446
41.6553
41.5262
41.3648
41.1745
40.9563
40.7136
40.4478
40.1579
39.8447
39.5128
39.166
38.8057
38.4329
38.0493
37.6573
37.2589
36.856
36.451
36.0465
35.6446
35.2467
34.854
34.4685
34.0925
33.7288
33.3806
33.0507
32.7415
32.4547
32.1916
31.9533
31.7409
31.5549
31.3957
31.2631
31.1569
31.0773
31.03
31.0124
31.0157
31.0442
31.095
31.1689
31.2655
31.3834
31.522
31.6802
31.8567
32.0496
32.2576
32.4806
32.7185
32.9701
33.2336
33.5075
33.7907
34.0823
34.3823
34.6914
35.0106
35.3407
35.6819
26.6638
27.1696
27.7187
28.31
28.9414
29.6107
30.3168
31.0593
31.8355
32.6416
33.4755
34.3384
35.2324
36.1586
37.1161
38.1021
39.113
40.145
41.1959
42.2672
43.3667
44.5041
45.6659
46.8247
47.9622
49.0658
50.1264
51.1378
52.0959
52.9978
53.8432
54.6302
55.3493
55.9956
56.5708
57.0749
57.5133
57.8957
58.2241
58.4936
58.7071
58.8718
58.9732
59.0033
58.9661
58.8998
58.8201
58.6685
58.4542
58.2005
57.9151
57.5895
57.2251
56.8285
56.3917
55.9121
55.405
54.8792
54.3276
53.7453
53.1372
52.5111
51.8712
51.2196
50.5602
49.8964
49.2306
48.5627
47.8972
47.2422
46.606
45.9948
45.4114
44.8558
44.3264
43.8222
43.3443
42.8961
42.4831
42.1091
41.777
41.492
41.2578
41.0753
40.948
40.8741
40.8494
40.8764
40.9564
41.0834
41.2569
41.4768
41.7428
42.0527
42.4027
42.7901
43.2154
43.6796
44.1805
44.7097
45.2605
45.8343
46.4353
47.0629
47.7106
48.3731
49.0481
49.7314
50.416
51.0955
51.7674
32.4362
33.4832
34.586
35.7481
36.9746
38.2701
39.6374
41.0792
42.6125
44.2742
46.0561
47.9215
49.8334
51.7602
53.6759
55.5606
57.3985
59.1746
60.8742
62.4827
63.983
65.3587
66.6127
67.7466
68.76
69.6653
70.4724
71.1773
71.7786
72.298
72.7378
73.0878
73.3533
73.5656
73.717
73.8028
73.827
73.7805
73.6864
73.59
73.4951
73.2875
73.0488
72.807
72.5394
72.2582
71.9558
71.6214
71.31
70.992
70.6235
70.2294
69.8395
69.4321
69.0109
68.6095
68.2065
67.7709
67.3151
66.8657
66.4239
65.9734
65.5039
65.0182
64.5169
63.9985
63.4714
62.9487
62.4325
61.9145
61.3851
60.8396
60.2809
59.7217
59.1819
58.6799
58.2277
57.8321
57.494
57.2143
57.0045
56.8543
56.7506
56.7061
56.7017
56.7648
56.9185
57.1259
57.3917
57.7156
58.0953
58.5279
58.9981
59.499
60.0356
60.5994
61.1752
61.7509
62.323
62.9087
63.5162
64.1212
64.7013
65.2562
65.7968
66.3242
66.8301
67.3126
67.7808
68.2467
68.7161
69.1855
69.647
43.6548
45.8224
48.1769
50.6745
53.2692
55.9161
58.5703
61.1898
63.7265
66.117
68.3426
70.4062
72.3089
74.056
75.6522
77.086
78.3458
79.436
80.3582
81.126
81.7567
82.2537
82.6191
82.8691
83.0543
83.1743
83.2199
83.2011
83.1359
83.0107
82.843
82.6677
82.5576
82.3489
82.0527
81.793
81.4863
81.1335
80.8461
80.6022
80.2914
79.9251
79.5489
79.1518
78.7214
78.3262
78.0114
77.7083
77.3514
76.9118
76.4718
76.0907
75.7042
75.3018
74.927
74.5452
74.1325
73.7441
73.3992
73.0532
72.6864
72.325
71.9944
71.686
71.3849
71.1038
70.8354
70.5618
70.2822
70.0086
69.7572
69.5413
69.371
69.248
69.1631
69.0947
69.0288
68.9713
68.9299
68.9187
68.9259
68.9345
69.0714
69.2976
69.4918
69.6972
69.9678
70.2939
70.6418
71.0071
71.3879
71.7695
72.1585
72.5517
72.9173
73.268
73.6317
73.9955
74.3548
74.6965
74.9864
75.2605
75.5526
75.8435
76.1124
76.3619
76.611
76.8713
77.1346
77.3833
77.6032
77.7935
77.9637
58.8886
62.2196
65.4768
68.5773
71.4933
74.21
76.7143
78.9984
81.0638
82.9055
84.5066
85.8632
86.9772
87.8668
88.5701
89.106
89.4922
89.7539
89.9469
90.0776
90.1289
90.1181
90.0497
89.9196
89.7613
89.654
89.474
89.1251
88.8047
88.541
88.1826
87.7348
87.3371
87.0178
86.6654
86.2361
85.7755
85.335
84.874
84.3859
83.9521
83.5529
83.1354
82.7055
82.2618
81.7799
81.2902
80.9114
80.5793
80.2059
79.7505
79.3096
78.9866
78.6581
78.2844
77.9379
77.5964
77.2181
76.9026
76.6507
76.3685
76.0522
75.8143
75.62
75.4041
75.1667
74.9451
74.7421
74.5368
74.3481
74.2033
74.1139
74.0599
74.0217
73.9956
73.9761
73.959
73.9482
74.0055
74.1269
74.3
74.5191
74.755
75.0126
75.3328
75.638
75.9029
76.1889
76.5045
76.7932
77.076
77.3804
77.6766
77.9493
78.2107
78.4498
78.6848
78.922
79.1135
79.2732
79.4358
79.5897
79.7514
79.9279
80.0378
80.1224
80.2182
80.3294
80.4418
80.5242
80.5724
80.6128
80.6623
80.7231
80.7871
82.593
85.0991
87.3112
89.2183
90.8233
92.1331
93.1595
93.952
94.5392
94.96
95.2698
95.4985
95.6332
95.6861
95.6635
95.5578
95.3951
95.2588
95.0735
94.6926
94.2596
93.834
93.3853
92.9113
92.4512
92.0127
91.5463
91.0333
90.5269
90.043
89.5326
89
88.5079
88.0585
87.5907
87.0932
86.6099
86.1405
85.6543
85.1662
84.7128
84.2743
83.8383
83.4044
82.9537
82.4515
81.9697
81.6217
81.2837
80.8748
80.3723
80.0062
79.7211
79.376
79.0213
78.6965
78.3126
77.9815
77.7621
77.5012
77.1877
76.9908
76.8274
76.5972
76.3788
76.2619
76.1599
76.0185
75.9089
75.848
75.8444
75.8372
75.7988
75.7835
75.8107
75.8833
76.0037
76.1701
76.387
76.6397
76.8927
77.1199
77.3462
77.6022
77.8933
78.2038
78.507
78.8106
79.1194
79.4063
79.7109
80.0044
80.1901
80.377
80.5926
80.7772
80.9035
81.0316
81.1907
81.3116
81.3852
81.4713
81.5752
81.6494
81.7234
81.8038
81.8533
81.8865
81.9189
81.9537
81.9925
82.0395
82.0945
82.1346
82.1501
82.1576
84.2612
87.1421
89.72
91.9794
93.9229
95.5612
96.8903
97.9477
98.7444
99.3141
99.7105
99.9987
100.183
100.27
100.259
100.14
99.983
99.8205
99.472
99.0162
98.5467
98.0716
97.5786
97.0938
96.6447
96.1784
95.6614
95.1385
94.6248
94.1023
93.5766
93.0805
92.5945
92.0797
91.5432
91.0254
90.5157
89.9847
89.4461
88.9524
88.4792
87.9848
87.4824
87.0025
86.5294
86.0456
85.5695
85.1138
84.6702
84.2415
83.8172
83.3681
82.8552
82.4123
82.0956
81.7529
81.3065
80.8212
80.5313
80.2454
79.8884
79.5734
79.2447
78.8672
78.6275
78.4127
78.123
77.8996
77.7544
77.5829
77.3591
77.1982
77.0942
77.0451
76.9558
76.8425
76.7604
76.7084
76.7007
76.7456
76.846
76.9901
77.1631
77.3456
77.5241
77.7022
77.8961
78.1192
78.3769
78.6684
78.9814
79.3051
79.6132
79.8857
80.1708
80.4391
80.6677
80.9236
81.1821
81.3541
81.4805
81.6421
81.8064
81.9364
82.0355
82.0911
82.1624
82.281
82.3728
82.4422
82.5014
82.5392
82.5557
82.6041
82.6526
82.6832
82.7119
82.7341
82.7415
82.7279
82.7163
82.7174
82.7218
103.467
103.987
104.38
104.628
104.752
104.784
104.737
104.617
104.42
104.183
103.989
103.684
103.233
102.731
102.209
101.668
101.19
100.748
100.253
99.721
99.1874
98.6502
98.1016
97.5759
97.0703
96.5405
95.9907
95.4438
94.9031
94.3594
93.8273
93.3244
92.8183
92.2872
91.7507
91.2341
90.7191
90.1847
89.658
89.1742
88.6955
88.1965
87.7023
87.2316
86.7631
86.2902
85.8298
85.3799
84.9415
84.5273
84.1194
83.673
83.1557
82.7761
82.4853
82.134
81.6594
81.2569
81.003
80.6922
80.3511
80.0726
79.7365
79.4353
79.2335
78.9884
78.7186
78.5479
78.4406
78.2787
78.0754
77.9339
77.843
77.7571
77.6447
77.5592
77.5238
77.5497
77.6094
77.6831
77.7659
77.8628
77.9824
78.1349
78.3289
78.5648
78.8308
79.109
79.3895
79.6664
79.9364
80.2045
80.4647
80.721
81.0009
81.2452
81.4579
81.7052
81.9433
82.1056
82.2123
82.2942
82.4425
82.5984
82.7119
82.7895
82.8304
82.8834
82.983
83.0634
83.1275
83.1808
83.2152
83.2299
83.2547
83.2963
83.3269
83.3411
83.3418
83.342
83.3506
83.3598
83.3568
114.958
113.555
112.258
111.057
110.012
109.096
108.253
107.457
106.687
105.961
105.313
104.681
104.036
103.403
102.777
102.158
101.602
101.061
100.506
99.9451
99.3861
98.8187
98.2504
97.7119
97.1776
96.6251
96.066
95.5131
94.9604
94.4067
93.8769
93.3652
92.844
92.31
91.7845
91.2749
90.7614
90.2363
89.7347
89.263
88.7844
88.2933
87.8194
87.3646
86.9084
86.4565
86.0179
85.5785
85.1514
84.7635
84.3769
83.9251
83.4213
83.1071
82.8356
82.476
82.0143
81.7062
81.4559
81.1134
80.8298
80.5674
80.2527
80.0255
79.8407
79.5804
79.3594
79.2246
79.1407
78.9834
78.7946
78.663
78.5631
78.4972
78.4562
78.4243
78.4085
78.4161
78.4498
78.5168
78.6235
78.7711
78.9443
79.1349
79.3382
79.5511
79.7707
79.9988
80.2405
80.4962
80.7607
81.0262
81.2803
81.5281
81.7764
81.9839
82.182
82.4199
82.6416
82.7875
82.8787
82.9279
83.0555
83.2314
83.3601
83.4566
83.5255
83.5372
83.5916
83.6922
83.7731
83.8388
83.8887
83.9016
83.9
83.942
83.9884
84.0045
83.9961
84.0051
84.0169
84.0132
83.9999
123.842
120.856
118.199
115.867
113.857
112.12
110.605
109.261
108.056
107.004
106.09
105.249
104.458
103.72
103.015
102.348
101.731
101.128
100.523
99.9238
99.3303
98.7356
98.1589
97.6057
97.0507
96.4886
95.9306
95.3778
94.8233
94.2787
93.758
93.2449
92.7245
92.2028
91.695
91.1976
90.6939
90.1904
89.7166
89.2584
88.7884
88.3172
87.8703
87.4343
86.9953
86.5697
86.1569
85.7269
85.3188
84.9684
84.5998
84.1387
83.697
83.4302
83.1659
82.7915
82.3965
82.1521
81.886
81.5653
81.3223
81.0487
80.8007
80.631
80.4529
80.2116
80.0194
79.8883
79.8249
79.7083
79.5473
79.4308
79.3413
79.2711
79.2256
79.2059
79.2179
79.2657
79.3459
79.4511
79.5754
79.7144
79.8658
80.0326
80.2181
80.4269
80.6569
80.9011
81.1511
81.3998
81.6432
81.8771
82.0999
82.3206
82.5378
82.7319
82.9204
83.1425
83.364
83.5064
83.5886
83.6265
83.7465
83.928
84.0633
84.1683
84.2551
84.2904
84.2892
84.3825
84.487
84.5664
84.6268
84.6444
84.6255
84.6616
84.7207
84.7489
84.7392
84.7363
84.7417
84.7372
84.7215
84.7004
84.6772
133.728
129.366
125.381
121.82
118.695
115.979
113.626
111.578
109.798
108.267
106.95
105.819
104.848
103.975
103.153
102.395
101.691
101.016
100.361
99.7263
99.1034
98.4944
97.9129
97.3484
96.7855
96.2259
95.6746
95.1264
94.5816
94.0539
93.5433
93.0358
92.5266
92.0237
91.5346
91.0515
90.5637
90.0872
89.6391
89.1955
88.7397
88.2954
87.8778
87.4598
87.0385
86.6464
86.2578
85.8275
85.4594
85.1497
84.7917
84.3355
83.9753
83.7414
83.4691
83.0853
82.7819
82.5689
82.2937
82.0308
81.7784
81.525
81.3457
81.2316
81.0561
80.8361
80.6744
80.5527
80.4654
80.3799
80.2791
80.1821
80.1025
80.0534
80.0367
80.0488
80.0856
80.1442
80.2228
80.3221
80.4445
80.5905
80.758
80.9448
81.1454
81.3567
81.5757
81.7996
82.0261
82.255
82.4856
82.7127
82.9319
83.1452
83.3506
83.5381
83.7136
83.9082
84.1298
84.283
84.367
84.4025
84.5068
84.6911
84.8336
84.9413
85.0412
85.1122
85.1108
85.1477
85.2617
85.3624
85.4359
85.4607
85.4299
85.4605
85.5249
85.5616
85.559
85.5403
85.5318
85.5215
85.5032
85.479
85.4533
145.001
139.815
134.784
130.04
125.684
121.772
118.314
115.292
112.684
110.46
108.565
106.954
105.584
104.411
103.381
102.469
101.648
100.883
100.164
99.4807
98.8236
98.197
97.6024
97.0259
96.459
95.9035
95.3574
94.8163
94.2858
93.7735
93.2728
92.7756
92.2824
91.799
91.3279
90.8604
90.392
89.943
89.5183
89.0892
88.6497
88.2382
87.8491
87.4404
87.0432
86.692
86.314
85.8896
85.5795
85.2995
84.9451
84.5237
84.2329
84.017
83.7303
83.3807
83.1322
82.9238
82.6851
82.4561
82.2046
82.0015
81.8576
81.7779
81.6237
81.4283
81.2831
81.1674
81.0738
81.006
80.9429
80.8823
80.8351
80.8117
80.8151
80.8437
80.8956
80.97
81.0669
81.1858
81.3248
81.481
81.6513
81.8335
82.0261
82.2302
82.443
82.6633
82.8877
83.1131
83.3365
83.5535
83.7618
83.9634
84.1601
84.3496
84.5266
84.7064
84.9223
85.1036
85.2024
85.2449
85.3367
85.5195
85.671
85.7774
85.8794
85.9708
86.016
86.0049
86.073
86.1928
86.2893
86.3334
86.2982
86.314
86.3813
86.4257
86.4314
86.411
86.3944
86.381
86.3636
86.3409
86.3136
160.563
155.815
150.755
145.483
140.144
134.898
129.892
125.244
121.036
117.319
114.1
111.346
108.999
106.981
105.25
103.842
102.729
101.751
100.857
100.039
99.2777
98.5662
97.9034
97.281
96.6854
96.1104
95.5536
95.009
94.4751
93.9576
93.4568
92.9658
92.4814
92.005
91.5397
91.0859
90.6351
90.1865
89.7643
89.3615
88.9429
88.5227
88.1517
87.7797
87.3701
87.0208
86.7021
86.3203
85.9365
85.6714
85.4054
85.05
84.6933
84.4511
84.2445
83.9487
83.6565
83.4358
83.2264
83.0365
82.8234
82.6092
82.4398
82.3119
82.2381
82.118
81.9608
81.8341
81.7276
81.6396
81.5834
81.5456
81.5152
81.4962
81.4968
81.5213
81.5694
81.6393
81.7299
81.8406
81.9707
82.1189
82.2834
82.4624
82.6539
82.8561
83.0675
83.2849
83.5067
83.7284
83.9495
84.1683
84.3821
84.5883
84.787
84.9795
85.1668
85.3461
85.517
85.7028
85.9137
86.0472
86.1181
86.2126
86.389
86.555
86.6688
86.7732
86.8757
86.95
86.9532
86.9595
87.0713
87.1968
87.2679
87.2583
87.2505
87.3014
87.3448
87.3532
87.3351
87.3132
87.2908
87.2635
87.23
87.1909
168.046
164.291
160.089
155.446
150.417
145.106
139.651
134.217
128.982
124.105
119.701
115.83
112.498
109.675
107.297
105.267
103.52
102.128
101.035
100.069
99.1927
98.3925
97.6627
96.9899
96.3605
95.7658
95.198
94.6493
94.1192
93.6097
93.1166
92.6347
92.1636
91.7026
91.2532
90.8167
90.3817
89.9516
89.5576
89.172
88.7552
88.3711
88.0351
87.6591
87.2673
86.9736
86.6685
86.2872
85.9624
85.7273
85.4592
85.1104
84.8252
84.6235
84.4143
84.1274
83.8797
83.6689
83.487
83.3365
83.1472
82.9624
82.817
82.7001
82.6139
82.5249
82.4174
82.3128
82.2182
82.1436
82.0997
82.0808
82.0751
82.081
82.1034
82.1463
82.2105
82.2942
82.3972
82.5195
82.6604
82.8185
82.9922
83.1796
83.3787
83.5873
83.8038
84.0255
84.2503
84.4766
84.704
84.9304
85.153
85.3699
85.5798
85.7829
85.9806
86.1707
86.3461
86.5206
86.7185
86.8861
86.9788
87.0742
87.2429
87.4216
87.544
87.657
87.772
87.863
87.8958
87.8781
87.971
88.105
88.194
88.2189
88.1966
88.2079
88.2349
88.2423
88.2273
88.2036
88.1779
88.1497
88.1183
88.0845
88.0493
88.0131
172.712
169.931
166.757
163.133
159.026
154.434
149.392
143.993
138.391
132.783
127.379
122.364
117.859
113.917
110.537
107.692
105.321
103.327
101.66
100.367
99.3054
98.3682
97.5317
96.7761
96.0878
95.4536
94.86
94.2977
93.7638
93.2554
92.7654
92.291
91.8314
91.3824
90.9475
90.5283
90.1046
89.6951
89.3291
88.9484
88.5366
88.204
87.8816
87.4936
87.1543
86.893
86.5864
86.2278
85.9535
85.7353
85.4564
85.1437
84.9089
84.7376
84.5145
84.2599
84.0402
83.8485
83.6931
83.564
83.4115
83.2584
83.1345
83.0265
82.9336
82.8597
82.7823
82.7026
82.6287
82.5723
82.5449
82.543
82.5571
82.5834
82.6244
82.6836
82.762
82.8594
82.9759
83.1106
83.2623
83.4299
83.6118
83.8065
84.012
84.2264
84.4478
84.6739
84.9024
85.1333
85.366
85.5987
85.8291
86.0558
86.2762
86.4915
86.7032
86.9108
87.1141
87.3046
87.4905
87.7111
87.8519
87.9621
88.123
88.2988
88.422
88.529
88.646
88.7448
88.7885
88.7605
88.8482
88.9852
89.0809
89.1273
89.1194
89.1171
89.1353
89.1474
89.1433
89.1276
89.1054
89.0777
89.0445
89.0065
88.9646
88.9196
175.4
173.328
170.98
168.293
165.198
161.63
157.538
152.901
147.757
142.217
136.458
130.702
125.174
120.069
115.518
111.581
108.253
105.483
103.187
101.268
99.7418
98.5722
97.5756
96.6977
95.9147
95.2111
94.5698
93.978
93.4279
92.9106
92.4176
91.9471
91.4949
91.0532
90.6329
90.2274
89.8094
89.428
89.0808
88.6919
88.3106
88.0153
87.6907
87.3124
87.0231
86.7731
86.4596
86.1432
85.9068
85.6931
85.4053
85.1433
84.9464
84.7793
84.5554
84.3399
84.1442
83.9739
83.8368
83.7221
83.6029
83.481
83.3757
83.2775
83.1881
83.1209
83.066
83.0145
82.9679
82.9341
82.9207
82.9293
82.9562
82.9979
83.0549
83.1289
83.2218
83.3357
83.4679
83.6151
83.777
83.9534
84.1436
84.3458
84.5582
84.7792
85.0068
85.239
85.4751
85.7142
85.9548
86.1953
86.4337
86.6684
86.8976
87.1222
87.3425
87.5621
87.7793
87.9825
88.1815
88.3924
88.5942
88.75
88.9089
89.1102
89.2789
89.3945
89.5152
89.6271
89.6897
89.6716
89.7596
89.8907
89.985
90.0357
90.0326
90.0203
90.0195
90.0161
90.0007
89.9744
89.9411
89.9029
89.8607
89.8153
89.7676
89.7185
176.936
175.321
173.527
171.512
169.215
166.564
163.477
159.872
155.691
150.918
145.601
139.867
133.919
128.008
122.388
117.268
112.773
108.943
105.756
103.139
100.984
99.2247
97.8915
96.822
95.8996
95.0885
94.3678
93.7219
93.1365
92.5964
92.091
91.618
91.1653
90.7272
90.3205
89.9201
89.5088
89.1572
88.8152
88.4188
88.0838
87.8035
87.4711
87.1234
86.868
86.6177
86.3034
86.0306
85.8254
85.5995
85.3242
85.1024
84.9321
84.7496
84.5509
84.3673
84.1944
84.0425
83.9202
83.8175
83.7191
83.6232
83.5344
83.4505
83.3724
83.3112
83.269
83.239
83.2172
83.2056
83.2088
83.2307
83.2716
83.3299
83.4049
83.4967
83.6062
83.7328
83.8748
84.0316
84.2026
84.3875
84.5856
84.7953
85.0151
85.2431
85.4779
85.7194
85.9681
86.2191
86.4699
86.7196
86.9673
87.212
87.4522
87.6879
87.9229
88.1562
88.3846
88.6003
88.809
89.0301
89.2393
89.4061
89.5722
89.7746
89.9768
90.1057
90.219
90.3356
90.4215
90.4499
90.5166
90.6282
90.7209
90.7699
90.7696
90.7594
90.7551
90.7484
90.7323
90.7065
90.6745
90.6381
90.5983
90.5558
90.5114
90.4658
90.4195
176.514
175.086
173.517
171.76
169.77
167.478
164.798
161.636
157.904
153.541
148.534
142.951
136.953
130.789
124.751
119.115
114.08
109.745
106.121
103.153
100.745
98.7829
97.2697
96.1159
95.1459
94.3068
93.5724
92.9242
92.3407
91.8094
91.3222
90.8584
90.4209
90.0211
89.6163
89.2187
88.8867
88.5405
88.1504
87.8519
87.5745
87.237
86.924
86.6915
86.4349
86.1332
85.8914
85.7045
85.4682
85.2166
85.0223
84.8645
84.681
84.5016
84.3422
84.1913
84.0566
83.9482
83.8551
83.7683
83.6886
83.6155
83.548
83.4849
83.433
83.3991
83.3825
83.3789
83.3866
83.407
83.4434
83.4978
83.5703
83.6601
83.7668
83.8899
84.0281
84.181
84.3486
84.5304
84.7259
84.9343
85.1543
85.3845
85.6234
85.8697
86.1227
86.3798
86.6394
86.8996
87.1595
87.4179
87.6739
87.9279
88.1835
88.4376
88.6872
88.9294
89.1592
89.3824
89.6156
89.8356
90.015
90.1897
90.4003
90.6185
90.7545
90.8643
90.9806
91.0794
91.1348
91.1948
91.2922
91.3868
91.438
91.445
91.4414
91.4393
91.4331
91.4181
91.3953
91.3665
91.3332
91.2967
91.2579
91.2176
91.1767
91.1357
177.287
176.085
174.803
173.42
171.882
170.14
168.139
165.798
163.022
159.703
155.744
151.083
145.727
139.785
133.479
127.115
121.021
115.47
110.634
106.57
103.246
100.572
98.4197
96.7292
95.4714
94.4506
93.5857
92.8385
92.1831
91.6049
91.0849
90.5977
90.1547
89.7491
89.3335
88.9528
88.6265
88.2701
87.8964
87.6202
87.3398
87.0026
86.7186
86.4976
86.2381
85.9521
85.7303
85.5512
85.3171
85.0817
84.9043
84.757
84.5828
84.4153
84.2721
84.1397
84.0209
83.9249
83.8402
83.7611
83.6911
83.6303
83.5772
83.5296
83.4899
83.4643
83.4563
83.4646
83.4868
83.5224
83.5727
83.6396
83.7238
83.8252
83.9432
84.0768
84.2252
84.388
84.5652
84.7566
84.9615
85.1793
85.4088
85.6488
85.8979
86.155
86.4185
86.6863
86.9573
87.2306
87.505
87.7794
88.053
88.3261
88.5975
88.8656
89.1292
89.387
89.6338
89.8764
90.1285
90.3686
90.5674
90.7554
90.9776
91.2125
91.3571
91.4651
91.5815
91.6941
91.7774
91.8369
91.9197
92.0075
92.0617
92.0797
92.0831
92.0829
92.0786
92.0682
92.0498
92.023
91.9903
91.9542
91.9161
91.8772
91.8384
91.8001
176.782
175.696
174.553
173.324
171.977
170.45
168.693
166.64
164.196
161.245
157.665
153.353
148.263
142.447
136.081
129.466
122.968
116.933
111.608
107.105
103.42
100.47
98.1246
96.2747
94.9034
93.8342
92.9406
92.1773
91.5218
90.9433
90.4173
89.9548
89.5271
89.0976
88.7261
88.3927
88.0224
87.6687
87.4013
87.1132
86.7784
86.5169
86.298
86.0373
85.765
85.5532
85.3761
85.1541
84.9299
84.758
84.6214
84.4605
84.3011
84.1679
84.0491
83.9428
83.8565
83.7801
83.7078
83.6446
83.5924
83.5498
83.5152
83.4882
83.4721
83.4713
83.4876
83.52
83.5672
83.6291
83.7068
83.8008
83.9114
84.0381
84.18
84.3367
84.5078
84.6931
84.8924
85.1053
85.331
85.5685
85.8169
86.0748
86.3411
86.6142
86.8926
87.1751
87.461
87.7492
88.0388
88.3289
88.619
88.9069
89.1921
89.4734
89.7495
90.0194
90.2861
90.5544
90.8045
91.02
91.2254
91.4617
91.7188
91.8841
91.9928
92.1052
92.23
92.3446
92.428
92.4957
92.565
92.6183
92.6461
92.6567
92.6581
92.6521
92.6375
92.6135
92.5824
92.5465
92.5079
92.4681
92.4285
92.3899
92.3525
176.355
175.39
174.377
173.297
172.118
170.788
169.248
167.445
165.291
162.667
159.435
155.461
150.651
144.998
138.628
131.82
124.966
118.476
112.673
107.735
103.689
100.464
97.9244
95.9313
94.4424
93.3177
92.3927
91.6199
90.9505
90.364
89.8586
89.3902
88.9419
88.5632
88.2095
87.823
87.4862
87.2133
86.9098
86.5795
86.3363
86.1046
85.841
85.587
85.372
85.1897
84.9891
84.7761
84.5989
84.4664
84.3208
84.1673
84.0393
83.93
83.8322
83.7521
83.6829
83.6173
83.5603
83.5142
83.4784
83.4528
83.4367
83.4303
83.4367
83.4593
83.4988
83.5542
83.625
83.7112
83.8132
83.9312
84.0647
84.2132
84.3765
84.5541
84.746
84.9518
85.1712
85.4035
85.6479
85.9033
86.1688
86.4431
86.725
87.013
87.3061
87.6035
87.9042
88.2072
88.5118
88.8167
89.1203
89.4217
89.7194
90.0121
90.3021
90.5884
90.8701
91.1327
91.3664
91.5906
91.8445
92.1254
92.3036
92.4133
92.5269
92.6617
92.7976
92.9037
92.9668
93.0171
93.0638
93.0962
93.1114
93.113
93.1036
93.0844
93.0573
93.0244
92.9876
92.9486
92.909
92.87
92.8325
92.7968
92.7634
92.7324
176.799
176.013
175.186
174.309
173.379
172.363
171.219
169.883
168.304
166.409
164.081
161.17
157.519
152.988
147.517
141.178
134.218
127.043
120.121
113.855
108.487
104.084
100.586
97.8534
95.7262
94.1181
92.9357
91.9829
91.179
90.5002
89.9206
89.3909
88.9102
88.5026
88.1126
87.7086
87.3748
87.0816
86.7527
86.4348
86.193
85.9354
85.6681
85.44
85.2102
85.0085
84.8297
84.6317
84.4412