/*--------------------------------*- C++ -*----------------------------------*\
| =========                 |                                                 |
| \\      /  F ield         | OpenFOAM: The Open Source CFD Toolbox           |
|  \\    /   O peration     | Version:  v1706                                 |
|   \\  /    A nd           | Web:      www.OpenFOAM.com                      |
|    \\/     M anipulation  |                                                 |
\*---------------------------------------------------------------------------*/
FoamFile
{
    version     2.0;
    format      ascii;
    class       volScalarField;
    location    "1.9e-05";
    object      rho;
}
// * * * * * * * * * * * * * * * * * * * * * * * * * * * * * * * * * * * * * //

dimensions      [1 -3 0 0 0 0 0];


internalField   nonuniform List<scalar> 
29871
(
0.000511311
0.000511311
0.000511311
0.000511311
0.000511311
0.000511311
0.000511311
0.000511312
0.000511312
0.000511312
0.000511312
0.000511312
0.000511313
0.000511313
0.000511313
0.000511313
0.000511314
0.000511314
0.000511314
0.000511314
0.000511315
0.000511315
0.000511315
0.000511316
0.000511316
0.000511316
0.000511316
0.000511317
0.000511317
0.000511317
0.000511318
0.000511318
0.000511318
0.000511318
0.000511318
0.000511319
0.000511319
0.000511319
0.000511319
0.000511319
0.000511319
0.000511319
0.000511319
0.000511319
0.000511319
0.000511319
0.000511319
0.000511319
0.000511319
0.000511319
0.000511319
0.000511318
0.000511318
0.000511318
0.000511318
0.000511318
0.000511317
0.000511317
0.000511317
0.000511317
0.000511316
0.000511316
0.000511316
0.000511316
0.000511315
0.000511315
0.000511315
0.000511315
0.000511314
0.000511314
0.000511314
0.000511314
0.000511314
0.000511313
0.000511313
0.000511313
0.000511313
0.000511313
0.000511313
0.000511313
0.000511313
0.000511312
0.000511312
0.000511312
0.000511312
0.000511312
0.000511312
0.000511312
0.000511312
0.000511312
0.000511312
0.000511312
0.000511312
0.000511312
0.000511312
0.000511312
0.000511312
0.000511312
0.000511312
0.000511312
0.000511312
0.000511312
0.000511312
0.000511312
0.000511312
0.000511316
0.000511317
0.000511318
0.000511319
0.000511319
0.00051132
0.000511321
0.000511322
0.000511324
0.000511325
0.000511326
0.000511327
0.000511329
0.00051133
0.000511332
0.000511333
0.000511335
0.000511337
0.000511339
0.00051134
0.000511342
0.000511344
0.000511346
0.000511348
0.000511349
0.000511351
0.000511353
0.000511355
0.000511357
0.000511358
0.00051136
0.000511361
0.000511363
0.000511364
0.000511366
0.000511367
0.000511368
0.000511369
0.00051137
0.00051137
0.000511371
0.000511371
0.000511372
0.000511372
0.000511372
0.000511372
0.000511371
0.000511371
0.00051137
0.00051137
0.000511369
0.000511368
0.000511367
0.000511366
0.000511365
0.000511363
0.000511362
0.000511361
0.000511359
0.000511358
0.000511356
0.000511355
0.000511353
0.000511351
0.00051135
0.000511348
0.000511347
0.000511345
0.000511344
0.000511342
0.000511341
0.00051134
0.000511338
0.000511337
0.000511336
0.000511335
0.000511334
0.000511333
0.000511332
0.000511331
0.000511331
0.00051133
0.00051133
0.000511329
0.000511329
0.000511329
0.000511328
0.000511328
0.000511328
0.000511328
0.000511328
0.000511328
0.000511328
0.000511328
0.000511328
0.000511328
0.000511328
0.000511328
0.000511329
0.000511329
0.000511329
0.000511329
0.00051133
0.00051133
0.00051133
0.000511329
0.000511331
0.000511333
0.000511336
0.000511338
0.000511341
0.000511344
0.000511348
0.000511351
0.000511355
0.000511359
0.000511363
0.000511368
0.000511372
0.000511377
0.000511382
0.000511387
0.000511392
0.000511397
0.000511403
0.000511408
0.000511414
0.00051142
0.000511426
0.000511432
0.000511438
0.000511444
0.00051145
0.000511456
0.000511462
0.000511467
0.000511473
0.000511478
0.000511483
0.000511488
0.000511492
0.000511497
0.0005115
0.000511504
0.000511506
0.000511509
0.000511511
0.000511513
0.000511514
0.000511515
0.000511515
0.000511515
0.000511514
0.000511513
0.000511511
0.000511509
0.000511507
0.000511504
0.000511501
0.000511497
0.000511493
0.000511489
0.000511485
0.00051148
0.000511476
0.000511471
0.000511466
0.000511461
0.000511455
0.00051145
0.000511445
0.00051144
0.000511435
0.00051143
0.000511425
0.000511421
0.000511416
0.000511412
0.000511408
0.000511404
0.0005114
0.000511397
0.000511393
0.00051139
0.000511388
0.000511385
0.000511383
0.000511381
0.000511379
0.000511378
0.000511376
0.000511375
0.000511374
0.000511374
0.000511373
0.000511373
0.000511373
0.000511373
0.000511373
0.000511374
0.000511374
0.000511374
0.000511375
0.000511376
0.000511377
0.000511377
0.000511378
0.000511379
0.00051138
0.000511381
0.000511383
0.000511364
0.00051137
0.000511376
0.000511383
0.000511391
0.000511399
0.000511407
0.000511416
0.000511426
0.000511436
0.000511446
0.000511458
0.00051147
0.000511482
0.000511495
0.000511509
0.000511524
0.000511539
0.000511554
0.00051157
0.000511586
0.000511602
0.000511619
0.000511636
0.000511652
0.000511669
0.000511686
0.000511702
0.000511719
0.000511734
0.00051175
0.000511765
0.000511779
0.000511793
0.000511806
0.000511818
0.000511829
0.000511839
0.000511849
0.000511857
0.000511864
0.00051187
0.000511874
0.000511878
0.00051188
0.00051188
0.00051188
0.000511878
0.000511875
0.000511871
0.000511866
0.00051186
0.000511852
0.000511844
0.000511835
0.000511825
0.000511814
0.000511802
0.00051179
0.000511777
0.000511764
0.00051175
0.000511736
0.000511722
0.000511708
0.000511694
0.00051168
0.000511666
0.000511652
0.000511639
0.000511626
0.000511613
0.000511601
0.00051159
0.000511579
0.000511568
0.000511559
0.00051155
0.000511542
0.000511535
0.000511528
0.000511522
0.000511516
0.000511512
0.000511508
0.000511504
0.000511502
0.0005115
0.000511498
0.000511497
0.000511497
0.000511497
0.000511497
0.000511498
0.000511499
0.000511501
0.000511503
0.000511505
0.000511507
0.00051151
0.000511512
0.000511515
0.000511518
0.000511522
0.000511525
0.000511528
0.000511439
0.000511453
0.000511468
0.000511484
0.000511502
0.000511521
0.000511542
0.000511564
0.000511589
0.000511614
0.000511642
0.00051167
0.000511701
0.000511732
0.000511765
0.000511799
0.000511834
0.000511871
0.000511908
0.000511946
0.000511986
0.000512026
0.000512068
0.00051211
0.000512152
0.000512195
0.000512238
0.000512281
0.000512324
0.000512366
0.000512407
0.000512447
0.000512486
0.000512524
0.000512559
0.000512593
0.000512625
0.000512654
0.00051268
0.000512704
0.000512725
0.000512743
0.000512758
0.000512769
0.000512778
0.000512783
0.000512785
0.000512784
0.00051278
0.000512772
0.000512761
0.000512747
0.000512731
0.000512711
0.00051269
0.000512665
0.000512639
0.000512611
0.00051258
0.000512549
0.000512516
0.000512482
0.000512447
0.000512412
0.000512377
0.000512341
0.000512305
0.00051227
0.000512235
0.000512201
0.000512167
0.000512135
0.000512103
0.000512073
0.000512044
0.000512017
0.000511991
0.000511966
0.000511944
0.000511923
0.000511904
0.000511887
0.000511872
0.000511859
0.000511848
0.000511838
0.000511831
0.000511825
0.00051182
0.000511817
0.000511816
0.000511816
0.000511817
0.000511819
0.000511822
0.000511826
0.000511831
0.000511837
0.000511844
0.000511851
0.000511859
0.000511868
0.000511877
0.000511887
0.000511897
0.000511907
0.000511918
0.000511639
0.000511676
0.000511715
0.000511759
0.000511805
0.000511854
0.000511907
0.000511963
0.000512021
0.000512083
0.000512149
0.000512219
0.000512293
0.000512371
0.000512453
0.000512539
0.000512629
0.000512722
0.000512819
0.000512919
0.00051302
0.000513124
0.000513228
0.000513333
0.000513439
0.000513545
0.000513651
0.000513756
0.00051386
0.000513962
0.000514062
0.000514159
0.000514252
0.000514342
0.000514427
0.000514507
0.000514581
0.00051465
0.000514713
0.000514769
0.000514818
0.00051486
0.000514894
0.000514921
0.00051494
0.00051495
0.000514953
0.00051495
0.000514937
0.000514917
0.00051489
0.000514856
0.000514816
0.000514768
0.000514715
0.000514656
0.000514591
0.000514522
0.000514449
0.000514372
0.000514291
0.000514208
0.000514122
0.000514036
0.000513948
0.00051386
0.000513772
0.000513685
0.000513599
0.000513515
0.000513433
0.000513354
0.000513277
0.000513205
0.000513136
0.000513071
0.00051301
0.000512954
0.000512901
0.000512854
0.00051281
0.000512772
0.000512737
0.000512708
0.000512683
0.000512662
0.000512646
0.000512634
0.000512626
0.000512623
0.000512623
0.000512626
0.000512631
0.00051264
0.000512651
0.000512665
0.000512681
0.0005127
0.00051272
0.000512742
0.000512766
0.000512791
0.000512817
0.000512845
0.000512873
0.000512902
0.000512932
0.000511911
0.000511981
0.000512057
0.000512139
0.000512227
0.000512322
0.000512425
0.000512536
0.000512657
0.000512787
0.000512928
0.000513079
0.000513238
0.000513407
0.000513584
0.00051377
0.000513962
0.000514163
0.000514369
0.000514582
0.0005148
0.000515024
0.000515254
0.000515489
0.00051573
0.000515976
0.000516225
0.000516476
0.000516727
0.000516979
0.000517228
0.000517475
0.000517717
0.000517954
0.000518183
0.000518405
0.000518617
0.000518819
0.000519008
0.000519184
0.000519345
0.00051949
0.000519619
0.00051973
0.000519824
0.000519899
0.000519956
0.000519993
0.00052001
0.000520014
0.000519999
0.000519963
0.000519908
0.000519837
0.000519749
0.000519646
0.000519527
0.000519395
0.00051925
0.000519093
0.000518926
0.00051875
0.000518566
0.000518376
0.000518181
0.000517982
0.000517781
0.000517578
0.000517375
0.000517172
0.000516972
0.000516774
0.000516581
0.000516392
0.000516209
0.000516033
0.000515864
0.000515704
0.000515553
0.000515411
0.00051528
0.00051516
0.000515052
0.000514954
0.000514868
0.000514794
0.000514731
0.000514679
0.000514639
0.000514608
0.000514588
0.000514578
0.000514578
0.000514585
0.000514599
0.00051462
0.000514649
0.000514685
0.000514727
0.000514776
0.00051483
0.000514889
0.000514952
0.000515019
0.00051509
0.000515165
0.000515242
0.000515323
0.000515407
0.000515494
0.000512784
0.000512954
0.000513141
0.000513346
0.00051357
0.000513813
0.000514073
0.000514351
0.000514646
0.000514957
0.000515285
0.00051563
0.000515995
0.000516381
0.000516791
0.000517223
0.000517679
0.000518156
0.000518656
0.000519178
0.000519719
0.000520276
0.000520845
0.000521423
0.000522007
0.000522595
0.000523184
0.000523772
0.000524359
0.000524941
0.000525517
0.000526083
0.000526638
0.000527178
0.000527699
0.0005282
0.000528676
0.000529126
0.000529545
0.000529933
0.000530286
0.000530604
0.000530883
0.000531122
0.000531321
0.000531478
0.000531591
0.000531654
0.000531676
0.000531672
0.000531619
0.00053152
0.000531381
0.000531204
0.00053099
0.000530741
0.000530458
0.000530143
0.000529799
0.000529427
0.000529032
0.000528617
0.000528183
0.000527733
0.000527271
0.0005268
0.000526324
0.000525846
0.00052537
0.000524898
0.000524433
0.000523978
0.000523535
0.000523107
0.000522696
0.000522303
0.000521931
0.000521579
0.00052125
0.000520945
0.000520664
0.000520407
0.000520176
0.000519972
0.000519794
0.000519641
0.000519516
0.000519418
0.000519343
0.000519299
0.000519279
0.000519281
0.000519302
0.000519342
0.000519402
0.000519481
0.000519578
0.000519691
0.00051982
0.000519962
0.000520116
0.000520281
0.000520457
0.000520643
0.000520839
0.000521042
0.000521253
0.000521469
0.00052169
0.000521917
0.000514927
0.000515337
0.000515778
0.000516251
0.000516762
0.000517313
0.00051791
0.000518558
0.00051926
0.000520018
0.00052083
0.000521695
0.000522607
0.000523562
0.000524557
0.000525593
0.000526667
0.000527778
0.000528922
0.000530092
0.000531286
0.000532505
0.000533751
0.000535023
0.000536317
0.000537628
0.000538949
0.000540273
0.000541593
0.000542902
0.000544193
0.000545461
0.000546698
0.0005479
0.000549058
0.000550166
0.000551218
0.000552207
0.000553127
0.000553971
0.000554731
0.000555403
0.000555988
0.000556482
0.000556875
0.000557175
0.00055738
0.000557475
0.000557495
0.000557425
0.000557251
0.000556982
0.000556624
0.000556183
0.000555663
0.000555065
0.000554394
0.000553659
0.000552867
0.000552023
0.000551131
0.000550199
0.000549235
0.000548245
0.000547235
0.000546211
0.000545177
0.000544139
0.000543104
0.000542075
0.00054106
0.000540063
0.000539089
0.000538146
0.000537237
0.00053637
0.000535548
0.000534775
0.000534056
0.000533393
0.000532789
0.000532247
0.000531767
0.000531348
0.000530991
0.000530705
0.000530479
0.000530307
0.000530205
0.000530158
0.000530168
0.000530221
0.000530319
0.000530462
0.000530651
0.000530885
0.000531159
0.000531472
0.00053182
0.000532202
0.000532615
0.000533057
0.000533525
0.000534016
0.000534528
0.00053506
0.000535614
0.000536191
0.00053679
0.000537411
0.000519868
0.000520847
0.000521923
0.000523095
0.000524364
0.000525726
0.00052718
0.000528722
0.000530344
0.000532044
0.000533827
0.000535702
0.000537681
0.000539773
0.00054198
0.000544301
0.000546732
0.000549269
0.000551916
0.000554676
0.000557536
0.000560473
0.000563457
0.000566466
0.000569482
0.00057249
0.00057548
0.00057844
0.000581361
0.000584237
0.000587055
0.000589801
0.000592461
0.000595023
0.000597476
0.000599812
0.000602022
0.000604088
0.000605995
0.000607736
0.000609299
0.000610672
0.000611836
0.000612788
0.000613559
0.00061413
0.000614396
0.000614451
0.0006144
0.000614135
0.000613647
0.000612956
0.000612077
0.000611012
0.000609768
0.000608366
0.000606817
0.000605127
0.000603301
0.000601357
0.000599316
0.000597192
0.000594998
0.000592747
0.000590456
0.000588142
0.000585818
0.000583501
0.000581209
0.000578958
0.000576763
0.000574636
0.000572585
0.000570618
0.00056874
0.000566957
0.000565276
0.000563705
0.00056225
0.000560918
0.000559712
0.000558637
0.000557698
0.000556903
0.000556252
0.000555724
0.00055534
0.000555131
0.000555043
0.000555093
0.000555246
0.000555513
0.000555901
0.000556405
0.000557018
0.000557734
0.000558548
0.000559453
0.000560441
0.0005615
0.000562623
0.000563808
0.000565054
0.000566357
0.000567716
0.000569125
0.000570575
0.000572059
0.000573571
0.000575111
0.000531661
0.000533877
0.000536246
0.000538789
0.000541529
0.00054449
0.000547693
0.000551169
0.000554942
0.000559012
0.000563356
0.000567937
0.000572721
0.000577682
0.000582802
0.000588076
0.000593507
0.000599093
0.000604811
0.000610615
0.000616482
0.000622423
0.000628453
0.000634568
0.000640745
0.00064695
0.000653148
0.000659304
0.00066538
0.000671326
0.000677109
0.000682716
0.00068813
0.000693319
0.000698252
0.000702887
0.000707194
0.000711175
0.000714818
0.000718058
0.000720858
0.000723231
0.000725201
0.000726784
0.000727898
0.000728497
0.000728788
0.000728851
0.000728433
0.000727506
0.000726178
0.00072449
0.000722456
0.000720118
0.000717493
0.000714557
0.000711314
0.000707825
0.000704143
0.000700284
0.00069625
0.000692063
0.000687754
0.000683344
0.000678857
0.000674322
0.000669771
0.000665226
0.0006607
0.000656205
0.000651759
0.000647391
0.000643139
0.000639046
0.00063515
0.000631485
0.000628071
0.000624922
0.000622051
0.00061947
0.000617185
0.0006152
0.00061351
0.000612109
0.000611004
0.000610266
0.000609875
0.00060974
0.000609891
0.000610274
0.000610918
0.000611823
0.000612975
0.000614369
0.000615995
0.000617836
0.000619868
0.000622077
0.000624466
0.000627041
0.000629788
0.000632682
0.000635702
0.000638838
0.000642081
0.000645435
0.000648911
0.00065253
0.000656306
0.000660237
0.000552854
0.000557592
0.000562824
0.000568537
0.000574701
0.000581286
0.000588281
0.000595683
0.000603447
0.000611511
0.000619868
0.000628576
0.000637712
0.000647325
0.00065743
0.000668007
0.000679019
0.000690428
0.000702211
0.000714398
0.000727108
0.000740483
0.000754331
0.000768292
0.000782124
0.000795671
0.000808816
0.000821485
0.000833615
0.000845158
0.000856114
0.000866457
0.000876058
0.000884847
0.000892841
0.000900026
0.00090647
0.000912312
0.000917523
0.000921959
0.000925746
0.000928993
0.000931486
0.000933071
0.000933757
0.000934101
0.000934262
0.000933542
0.000931974
0.000929886
0.000927401
0.000924394
0.000920862
0.000916889
0.000912363
0.000907233
0.00090171
0.000895923
0.000889769
0.000883166
0.000876175
0.000868908
0.000861424
0.000853748
0.000845933
0.000838023
0.000830043
0.00082199
0.00081392
0.000805947
0.000798188
0.000790727
0.000783599
0.000776795
0.000770281
0.000764031
0.000758052
0.000752385
0.000747102
0.000742252
0.000737872
0.000734042
0.000730814
0.000728204
0.000726234
0.000724892
0.000724172
0.000724108
0.000724651
0.000725763
0.000727442
0.000729696
0.00073253
0.000735927
0.000739836
0.000744227
0.000749112
0.000754515
0.000760407
0.000766672
0.000773214
0.000780059
0.000787271
0.000794844
0.000802689
0.00081074
0.000818971
0.000827323
0.000835697
0.000844005
0.000852214
0.000606569
0.000616719
0.000627438
0.000638838
0.000651045
0.000664168
0.000678277
0.000693426
0.000709874
0.000728139
0.000748127
0.000769358
0.000791357
0.000813728
0.000836162
0.000858431
0.000880358
0.00090177
0.000922495
0.000942338
0.000961073
0.000978483
0.000994588
0.00100939
0.00102286
0.00103513
0.00104633
0.0010564
0.00106533
0.00107323
0.0010802
0.00108609
0.00109097
0.00109527
0.00109887
0.00110167
0.00110371
0.00110483
0.0011053
0.00110578
0.00110624
0.00110534
0.00110401
0.0011026
0.00110083
0.00109885
0.00109654
0.00109381
0.00109138
0.00108886
0.00108564
0.00108201
0.0010784
0.00107454
0.00107045
0.00106658
0.00106266
0.00105823
0.00105346
0.00104872
0.00104404
0.0010392
0.00103403
0.00102858
0.00102285
0.00101682
0.00101061
0.00100438
0.000998181
0.000991879
0.000985328
0.000978452
0.000971284
0.000964
0.000956879
0.000950184
0.000944079
0.000938654
0.000933914
0.000929862
0.000926627
0.000924127
0.000922171
0.000920911
0.000920081
0.000920134
0.000921294
0.000923168
0.000925767
0.000929094
0.000933141
0.000937893
0.000943159
0.000948849
0.000955039
0.000961627
0.000968411
0.000975228
0.000982025
0.000989038
0.000996392
0.00100377
0.00101085
0.00101763
0.00102426
0.00103074
0.00103697
0.00104292
0.00104872
0.00105454
0.00106043
0.00106637
0.00107222
0.000714847
0.000738046
0.000763777
0.000791483
0.000820603
0.000850606
0.000880972
0.000911231
0.000940829
0.000968999
0.000995529
0.00102043
0.0010437
0.00106537
0.00108548
0.00110386
0.00112035
0.00113498
0.00114781
0.00115886
0.00116823
0.00117605
0.00118231
0.00118721
0.0011914
0.00119488
0.00119748
0.00119932
0.00120062
0.00120114
0.00120108
0.00120098
0.00120166
0.00120117
0.00119959
0.00119839
0.00119657
0.00119412
0.0011925
0.00119144
0.00118955
0.00118691
0.00118406
0.00118086
0.00117718
0.00117392
0.00117171
0.00116967
0.0011669
0.00116292
0.00115882
0.00115547
0.00115205
0.00114839
0.00114502
0.00114148
0.00113743
0.00113362
0.00113034
0.00112699
0.00112328
0.00111956
0.00111617
0.00111302
0.0011099
0.00110699
0.00110418
0.0011012
0.00109803
0.00109481
0.0010918
0.00108917
0.00108706
0.00108549
0.00108429
0.00108319
0.001082
0.00108075
0.00107958
0.0010787
0.00107793
0.00107715
0.00107795
0.00107989
0.00108139
0.00108299
0.00108541
0.00108858
0.00109206
0.00109579
0.00109977
0.00110381
0.00110799
0.00111229
0.00111631
0.00112018
0.00112428
0.00112846
0.00113266
0.00113667
0.00114004
0.00114322
0.00114669
0.00115022
0.00115352
0.00115659
0.0011597
0.00116299
0.00116635
0.00116954
0.00117235
0.00117478
0.00117696
0.000874492
0.000911919
0.000948836
0.00098429
0.00101799
0.00104977
0.00107945
0.0011069
0.00113211
0.00115497
0.00117524
0.00119281
0.00120774
0.00122016
0.00123034
0.00123863
0.00124523
0.00125041
0.00125487
0.00125869
0.00126161
0.00126378
0.0012652
0.00126583
0.00126616
0.00126715
0.00126719
0.00126527
0.00126363
0.00126268
0.00126058
0.00125728
0.00125455
0.0012528
0.00125065
0.00124751
0.00124391
0.0012405
0.0012368
0.00123271
0.00122928
0.0012263
0.00122311
0.00121974
0.00121612
0.0012119
0.00120753
0.00120456
0.00120221
0.00119934
0.0011953
0.00119133
0.00118886
0.00118634
0.00118321
0.00118036
0.00117751
0.00117407
0.00117137
0.00116947
0.0011671
0.00116418
0.00116223
0.00116082
0.00115907
0.00115689
0.00115483
0.00115295
0.00115097
0.00114911
0.00114775
0.00114705
0.00114671
0.00114644
0.00114614
0.00114579
0.00114534
0.00114489
0.00114522
0.00114628
0.00114795
0.00115014
0.00115245
0.00115498
0.00115824
0.00116121
0.00116358
0.00116618
0.00116915
0.0011718
0.00117437
0.00117727
0.00118014
0.00118276
0.00118528
0.00118755
0.00118984
0.00119224
0.00119409
0.00119559
0.00119716
0.00119867
0.00120036
0.00120232
0.00120347
0.0012043
0.0012053
0.00120656
0.00120789
0.00120885
0.00120938
0.00120983
0.00121042
0.00121118
0.00121201
0.00113363
0.00116351
0.00119029
0.00121377
0.00123396
0.00125098
0.00126494
0.00127612
0.00128501
0.00129203
0.00129784
0.00130279
0.00130672
0.0013097
0.00131175
0.00131277
0.00131314
0.00131392
0.00131406
0.00131201
0.00130916
0.00130631
0.00130315
0.00129965
0.00129631
0.00129323
0.0012898
0.00128579
0.00128182
0.0012781
0.00127405
0.00126968
0.00126579
0.0012624
0.00125878
0.00125475
0.00125086
0.00124711
0.00124311
0.00123904
0.00123537
0.00123188
0.00122844
0.00122502
0.00122133
0.00121689
0.00121265
0.00121009
0.00120769
0.00120435
0.00119967
0.00119671
0.00119478
0.00119208
0.00118921
0.00118665
0.00118324
0.00118046
0.00117907
0.00117708
0.00117431
0.00117301
0.00117211
0.00117027
0.00116847
0.001168
0.00116765
0.00116673
0.00116609
0.00116605
0.00116662
0.00116701
0.00116689
0.00116691
0.00116732
0.00116829
0.00116982
0.00117186
0.00117446
0.00117738
0.00118017
0.00118248
0.00118469
0.00118723
0.00119019
0.00119334
0.00119635
0.0011993
0.00120228
0.00120497
0.00120794
0.00121078
0.00121226
0.00121377
0.00121569
0.00121726
0.00121808
0.00121896
0.00122032
0.00122127
0.00122163
0.0012222
0.00122305
0.00122359
0.00122419
0.00122492
0.00122529
0.00122549
0.00122571
0.00122601
0.0012264
0.00122696
0.00122764
0.00122813
0.0012283
0.00122841
0.00113256
0.00116739
0.00119886
0.00122675
0.0012511
0.00127203
0.00128967
0.00130408
0.00131551
0.00132433
0.00133118
0.00133686
0.00134141
0.00134488
0.00134714
0.00134808
0.00134863
0.00134907
0.00134748
0.00134449
0.00134121
0.00133781
0.00133417
0.00133064
0.00132756
0.0013243
0.00132045
0.00131649
0.00131258
0.00130853
0.00130442
0.00130065
0.00129699
0.00129297
0.00128865
0.00128453
0.00128048
0.00127615
0.0012717
0.00126778
0.00126409
0.00126012
0.00125601
0.00125216
0.00124835
0.00124438
0.00124046
0.00123676
0.00123319
0.00122982
0.00122651
0.00122283
0.00121826
0.00121452
0.00121236
0.00120991
0.00120604
0.00120158
0.00119961
0.00119769
0.00119485
0.00119247
0.00118984
0.00118651
0.00118493
0.00118363
0.00118128
0.00117968
0.00117909
0.00117815
0.00117644
0.00117543
0.00117521
0.00117564
0.00117548
0.0011749
0.00117457
0.00117454
0.00117495
0.00117598
0.00117759
0.00117972
0.00118216
0.00118461
0.00118688
0.00118902
0.00119124
0.00119375
0.00119663
0.00119989
0.00120336
0.00120691
0.00121018
0.00121292
0.00121575
0.00121832
0.00122036
0.00122275
0.00122522
0.00122659
0.00122738
0.0012286
0.00122987
0.00123074
0.00123123
0.00123118
0.0012314
0.00123227
0.00123288
0.00123323
0.00123349
0.0012335
0.00123335
0.00123363
0.00123398
0.00123414
0.00123431
0.00123445
0.00123443
0.00123419
0.00123398
0.00123397
0.00123404
0.00133474
0.00134602
0.00135533
0.00136251
0.00136786
0.00137184
0.00137471
0.00137652
0.00137719
0.00137725
0.00137771
0.00137689
0.0013743
0.00137093
0.00136719
0.00136315
0.00135985
0.00135699
0.00135357
0.00134969
0.00134571
0.00134163
0.00133737
0.00133338
0.00132962
0.00132557
0.00132128
0.00131698
0.00131273
0.00130841
0.00130423
0.00130039
0.00129651
0.00129229
0.00128795
0.00128383
0.00127969
0.00127528
0.00127095
0.00126711
0.00126334
0.00125928
0.00125524
0.00125146
0.00124768
0.00124381
0.00124005
0.00123638
0.00123285
0.00122962
0.00122647
0.00122278
0.00121812
0.00121517
0.00121333
0.00121075
0.00120648
0.00120307
0.00120155
0.00119932
0.00119666
0.00119471
0.00119197
0.00118962
0.00118852
0.00118683
0.00118471
0.00118383
0.00118376
0.00118301
0.00118161
0.00118091
0.00118088
0.00118085
0.00118044
0.00118028
0.00118061
0.00118162
0.00118299
0.00118446
0.00118594
0.0011875
0.00118929
0.00119145
0.00119405
0.0011971
0.00120043
0.00120383
0.00120718
0.0012104
0.00121346
0.00121642
0.00121922
0.0012219
0.00122483
0.00122725
0.00122921
0.0012316
0.00123389
0.00123524
0.00123581
0.00123604
0.00123706
0.00123825
0.00123894
0.00123915
0.00123893
0.00123894
0.00123954
0.00123997
0.00124023
0.00124038
0.00124036
0.00124016
0.00124015
0.00124038
0.00124052
0.0012405
0.00124035
0.00124023
0.00124025
0.00124033
0.00124029
0.00144749
0.00144009
0.0014328
0.00142563
0.00141944
0.00141407
0.001409
0.00140394
0.00139873
0.00139367
0.00138924
0.00138484
0.00138017
0.00137548
0.0013707
0.0013659
0.00136176
0.00135779
0.00135364
0.00134943
0.00134521
0.00134083
0.00133639
0.00133228
0.00132822
0.00132391
0.00131949
0.00131511
0.00131069
0.00130623
0.00130203
0.00129805
0.00129393
0.00128961
0.00128536
0.00128126
0.00127709
0.00127274
0.00126866
0.00126493
0.00126109
0.00125707
0.00125323
0.00124959
0.00124591
0.00124225
0.00123871
0.00123514
0.0012317
0.00122875
0.00122582
0.001222
0.00121745
0.00121527
0.00121364
0.0012109
0.00120676
0.00120453
0.00120303
0.00120038
0.0011984
0.00119663
0.00119414
0.00119272
0.00119182
0.00118992
0.0011884
0.00118804
0.00118827
0.00118761
0.00118644
0.00118592
0.0011858
0.00118604
0.00118654
0.00118709
0.00118775
0.00118861
0.00118971
0.00119115
0.00119302
0.0011953
0.00119787
0.00120061
0.00120345
0.00120634
0.00120922
0.00121212
0.00121512
0.00121823
0.00122138
0.00122448
0.00122736
0.0012301
0.00123277
0.00123486
0.00123677
0.00123916
0.00124136
0.00124259
0.00124301
0.00124287
0.00124361
0.00124503
0.00124594
0.00124641
0.00124649
0.00124592
0.00124595
0.00124654
0.00124697
0.00124723
0.00124732
0.00124703
0.00124663
0.00124681
0.00124707
0.00124701
0.00124672
0.00124668
0.00124671
0.00124661
0.00124642
0.00152463
0.00150267
0.00148304
0.00146578
0.00145101
0.00143832
0.00142725
0.00141732
0.00140827
0.0014004
0.00139364
0.00138737
0.00138139
0.00137577
0.00137035
0.00136522
0.00136059
0.00135604
0.00135141
0.00134678
0.00134215
0.00133745
0.00133291
0.00132861
0.00132426
0.0013198
0.00131534
0.00131091
0.00130641
0.001302
0.00129786
0.00129379
0.0012896
0.00128537
0.00128126
0.00127725
0.00127313
0.00126899
0.00126519
0.00126156
0.00125776
0.00125391
0.00125034
0.00124687
0.00124334
0.00123995
0.00123668
0.00123318
0.00122992
0.00122737
0.00122461
0.0012206
0.00121677
0.00121514
0.00121358
0.00121059
0.00120724
0.00120579
0.00120406
0.00120164
0.00120013
0.00119818
0.00119648
0.00119578
0.00119496
0.00119329
0.00119214
0.00119185
0.00119237
0.00119221
0.00119143
0.00119115
0.00119116
0.00119134
0.00119179
0.00119251
0.00119357
0.00119501
0.00119678
0.00119879
0.00120097
0.00120326
0.00120563
0.00120813
0.00121085
0.00121379
0.00121694
0.0012202
0.00122345
0.00122662
0.00122966
0.00123251
0.00123515
0.0012377
0.00124012
0.00124218
0.0012441
0.00124641
0.00124872
0.00125001
0.00125039
0.00125016
0.00125084
0.00125233
0.00125331
0.0012539
0.00125421
0.00125388
0.00125319
0.00125367
0.00125433
0.00125472
0.00125487
0.00125458
0.0012539
0.00125396
0.00125431
0.00125434
0.00125399
0.00125376
0.00125367
0.00125351
0.00125325
0.00125295
0.00125264
0.00160562
0.00157129
0.00153998
0.00151212
0.00148784
0.00146689
0.00144881
0.00143304
0.00141929
0.00140749
0.0013974
0.00138884
0.00138159
0.00137501
0.00136867
0.0013628
0.00135738
0.00135214
0.00134702
0.00134202
0.00133707
0.00133219
0.00132758
0.00132313
0.00131865
0.00131416
0.00130973
0.00130529
0.00130085
0.00129659
0.0012925
0.00128843
0.0012843
0.00128022
0.00127627
0.00127237
0.00126838
0.0012645
0.00126094
0.00125742
0.00125372
0.00125014
0.00124685
0.00124354
0.00124017
0.00123712
0.0012341
0.00123054
0.00122771
0.0012256
0.00122291
0.00121889
0.00121602
0.00121477
0.00121307
0.0012099
0.00120766
0.00120655
0.00120468
0.00120294
0.00120125
0.00119948
0.00119862
0.00119861
0.00119786
0.00119644
0.00119569
0.0011955
0.00119574
0.00119597
0.00119596
0.00119594
0.00119607
0.00119651
0.00119732
0.00119846
0.00119987
0.00120151
0.00120333
0.00120534
0.00120757
0.00121003
0.0012127
0.00121555
0.00121854
0.00122162
0.00122475
0.00122787
0.00123097
0.00123403
0.00123705
0.00123997
0.00124272
0.00124531
0.00124773
0.00124985
0.00125173
0.00125381
0.00125622
0.00125776
0.00125827
0.00125808
0.00125862
0.00126014
0.00126122
0.00126186
0.00126237
0.00126245
0.00126171
0.00126151
0.00126222
0.00126283
0.00126308
0.0012628
0.00126192
0.00126187
0.00126223
0.0012623
0.00126199
0.0012615
0.00126118
0.00126088
0.00126054
0.00126017
0.0012598
0.00169785
0.00165588
0.00161515
0.00157686
0.00154189
0.0015107
0.00148332
0.00145948
0.00143899
0.00142161
0.00140689
0.00139447
0.00138402
0.00137509
0.00136713
0.00136001
0.0013536
0.00134759
0.00134191
0.00133646
0.00133118
0.00132615
0.0013214
0.00131679
0.00131224
0.00130776
0.00130334
0.00129893
0.00129461
0.00129046
0.00128643
0.00128241
0.0012784
0.00127449
0.00127069
0.0012669
0.00126307
0.00125946
0.00125612
0.0012527
0.00124913
0.00124587
0.00124287
0.00123961
0.00123646
0.00123385
0.0012309
0.00122734
0.00122515
0.00122337
0.00122065
0.00121699
0.00121494
0.00121387
0.00121194
0.00120913
0.00120753
0.00120641
0.00120496
0.00120358
0.00120185
0.00120066
0.00120027
0.00120066
0.00120016
0.00119906
0.00119853
0.0011984
0.00119853
0.00119897
0.00119944
0.00119988
0.00120042
0.0012012
0.00120228
0.00120364
0.00120527
0.00120714
0.00120924
0.00121155
0.00121406
0.00121674
0.00121953
0.00122242
0.0012254
0.00122846
0.00123161
0.0012348
0.001238
0.00124114
0.00124421
0.00124713
0.00124988
0.00125247
0.00125492
0.0012572
0.00125923
0.00126123
0.00126367
0.00126567
0.0012665
0.00126648
0.00126693
0.00126847
0.00126968
0.00127033
0.0012709
0.00127127
0.00127106
0.00127021
0.00127036
0.00127114
0.00127163
0.0012715
0.0012705
0.00127022
0.00127057
0.00127067
0.00127039
0.00126981
0.00126931
0.00126891
0.00126851
0.00126809
0.00126766
0.0018253
0.00178682
0.00174548
0.00170223
0.00165837
0.00161533
0.00157444
0.00153667
0.00150268
0.00147287
0.00144723
0.00142546
0.00140698
0.00139107
0.00137741
0.00136652
0.00135815
0.00135065
0.00134363
0.00133713
0.00133102
0.00132527
0.00131992
0.00131491
0.00131011
0.00130546
0.00130094
0.00129651
0.00129213
0.00128791
0.00128385
0.00127987
0.00127593
0.00127206
0.00126828
0.00126462
0.00126096
0.0012573
0.00125394
0.0012508
0.00124744
0.00124403
0.0012412
0.00123834
0.00123499
0.00123235
0.00123008
0.001227
0.00122385
0.00122218