/*--------------------------------*- C++ -*----------------------------------*\
| =========                 |                                                 |
| \\      /  F ield         | OpenFOAM: The Open Source CFD Toolbox           |
|  \\    /   O peration     | Version:  v1706                                 |
|   \\  /    A nd           | Web:      www.OpenFOAM.com                      |
|    \\/     M anipulation  |                                                 |
\*---------------------------------------------------------------------------*/
FoamFile
{
    version     2.0;
    format      ascii;
    class       volScalarField;
    location    "1.9e-05";
    object      Tt;
}
// * * * * * * * * * * * * * * * * * * * * * * * * * * * * * * * * * * * * * //

dimensions      [0 0 0 1 0 0 0];


internalField   nonuniform List<scalar> 
29871
(
144.401
144.401
144.401
144.401
144.401
144.401
144.401
144.401
144.401
144.401
144.401
144.401
144.402
144.402
144.402
144.402
144.402
144.402
144.402
144.402
144.402
144.403
144.403
144.403
144.403
144.403
144.403
144.403
144.403
144.404
144.404
144.404
144.404
144.404
144.404
144.404
144.404
144.404
144.404
144.404
144.404
144.404
144.404
144.404
144.404
144.404
144.404
144.404
144.404
144.404
144.404
144.404
144.404
144.404
144.404
144.404
144.403
144.403
144.403
144.403
144.403
144.403
144.403
144.403
144.403
144.402
144.402
144.402
144.402
144.402
144.402
144.402
144.402
144.402
144.402
144.402
144.402
144.401
144.401
144.401
144.401
144.401
144.401
144.401
144.401
144.401
144.401
144.401
144.401
144.401
144.401
144.401
144.401
144.401
144.401
144.401
144.401
144.401
144.401
144.401
144.401
144.401
144.401
144.401
144.401
144.403
144.404
144.404
144.404
144.405
144.405
144.406
144.406
144.407
144.407
144.408
144.408
144.409
144.41
144.41
144.411
144.412
144.412
144.413
144.414
144.415
144.415
144.416
144.417
144.417
144.418
144.419
144.42
144.42
144.421
144.422
144.422
144.423
144.423
144.424
144.424
144.425
144.425
144.425
144.425
144.425
144.426
144.426
144.426
144.426
144.425
144.425
144.425
144.425
144.424
144.424
144.424
144.423
144.423
144.422
144.422
144.421
144.42
144.42
144.419
144.418
144.418
144.417
144.417
144.416
144.415
144.415
144.414
144.413
144.413
144.412
144.412
144.411
144.411
144.41
144.41
144.41
144.409
144.409
144.409
144.408
144.408
144.408
144.408
144.408
144.408
144.407
144.407
144.407
144.407
144.407
144.407
144.407
144.407
144.407
144.407
144.408
144.408
144.408
144.408
144.408
144.408
144.408
144.408
144.408
144.409
144.41
144.411
144.413
144.414
144.415
144.416
144.418
144.419
144.421
144.423
144.424
144.426
144.428
144.43
144.432
144.434
144.437
144.439
144.441
144.443
144.446
144.448
144.451
144.453
144.455
144.458
144.46
144.462
144.464
144.466
144.468
144.47
144.472
144.474
144.475
144.476
144.478
144.479
144.48
144.48
144.481
144.481
144.481
144.481
144.481
144.481
144.48
144.48
144.479
144.478
144.477
144.475
144.474
144.472
144.471
144.469
144.467
144.465
144.463
144.461
144.459
144.457
144.455
144.453
144.451
144.449
144.447
144.445
144.444
144.442
144.44
144.438
144.437
144.435
144.434
144.433
144.432
144.43
144.429
144.429
144.428
144.427
144.426
144.426
144.425
144.425
144.425
144.425
144.425
144.424
144.424
144.424
144.425
144.425
144.425
144.425
144.425
144.426
144.426
144.426
144.427
144.427
144.427
144.428
144.428
144.426
144.429
144.432
144.435
144.438
144.441
144.445
144.449
144.453
144.458
144.462
144.467
144.472
144.478
144.483
144.489
144.495
144.501
144.507
144.513
144.519
144.526
144.532
144.538
144.545
144.551
144.557
144.564
144.57
144.575
144.581
144.586
144.591
144.596
144.601
144.605
144.608
144.611
144.614
144.617
144.618
144.62
144.621
144.621
144.621
144.621
144.62
144.618
144.616
144.614
144.611
144.608
144.605
144.601
144.597
144.592
144.588
144.583
144.578
144.573
144.567
144.562
144.556
144.551
144.546
144.54
144.535
144.53
144.525
144.52
144.515
144.51
144.506
144.502
144.498
144.494
144.491
144.488
144.485
144.482
144.48
144.478
144.476
144.474
144.473
144.472
144.471
144.471
144.47
144.47
144.47
144.47
144.47
144.471
144.471
144.472
144.472
144.473
144.474
144.475
144.476
144.477
144.478
144.48
144.481
144.482
144.462
144.468
144.475
144.483
144.491
144.499
144.508
144.518
144.528
144.539
144.551
144.563
144.575
144.588
144.602
144.616
144.63
144.645
144.66
144.676
144.692
144.708
144.724
144.74
144.756
144.772
144.788
144.804
144.819
144.835
144.849
144.863
144.876
144.889
144.901
144.912
144.922
144.931
144.938
144.945
144.951
144.955
144.958
144.96
144.961
144.961
144.959
144.957
144.953
144.948
144.942
144.935
144.927
144.918
144.908
144.898
144.886
144.875
144.862
144.85
144.837
144.823
144.81
144.796
144.783
144.769
144.756
144.743
144.73
144.717
144.705
144.693
144.682
144.671
144.661
144.651
144.642
144.634
144.626
144.619
144.613
144.608
144.603
144.598
144.595
144.592
144.59
144.588
144.587
144.586
144.586
144.586
144.587
144.588
144.589
144.591
144.593
144.595
144.598
144.601
144.604
144.607
144.61
144.614
144.617
144.621
144.625
144.558
144.574
144.592
144.611
144.631
144.652
144.675
144.699
144.725
144.752
144.78
144.81
144.841
144.874
144.907
144.942
144.978
145.014
145.052
145.09
145.129
145.168
145.207
145.246
145.285
145.324
145.363
145.4
145.437
145.473
145.507
145.54
145.572
145.601
145.629
145.654
145.677
145.697
145.715
145.731
145.743
145.752
145.759
145.763
145.763
145.762
145.757
145.75
145.739
145.727
145.711
145.694
145.674
145.652
145.628
145.603
145.576
145.547
145.517
145.487
145.455
145.424
145.391
145.359
145.326
145.294
145.262
145.231
145.2
145.17
145.141
145.114
145.087
145.062
145.038
145.016
144.995
144.976
144.959
144.943
144.929
144.916
144.906
144.897
144.889
144.883
144.879
144.876
144.874
144.874
144.875
144.877
144.88
144.883
144.888
144.894
144.9
144.907
144.915
144.923
144.932
144.941
144.951
144.961
144.971
144.982
144.992
144.69
144.722
144.757
144.794
144.835
144.878
144.924
144.974
145.027
145.083
145.142
145.205
145.27
145.339
145.412
145.487
145.564
145.645
145.728
145.813
145.9
145.989
146.079
146.169
146.261
146.352
146.444
146.534
146.624
146.712
146.798
146.882
146.963
147.041
147.116
147.186
147.252
147.313
147.369
147.419
147.463
147.502
147.533
147.559
147.577
147.589
147.594
147.593
147.586
147.572
147.552
147.526
147.494
147.456
147.414
147.366
147.314
147.257
147.197
147.134
147.067
146.999
146.928
146.855
146.782
146.708
146.634
146.56
146.486
146.413
146.342
146.273
146.205
146.14
146.078
146.018
145.962
145.909
145.859
145.814
145.772
145.734
145.699
145.669
145.643
145.621
145.603
145.589
145.578
145.571
145.568
145.568
145.57
145.575
145.583
145.593
145.606
145.621
145.638
145.656
145.677
145.699
145.722
145.746
145.771
145.798
145.825
145.854
145.883
145.912
145.115
145.192
145.276
145.367
145.464
145.569
145.681
145.8
145.926
146.059
146.2
146.348
146.502
146.664
146.832
147.006
147.186
147.373
147.564
147.76
147.96
148.164
148.369
148.575
148.781
148.986
149.189
149.389
149.586
149.778
149.965
150.145
150.319
150.484
150.641
150.788
150.925
151.051
151.164
151.266
151.354
151.428
151.488
151.534
151.565
151.582
151.584
151.573
151.55
151.512
151.461
151.398
151.322
151.235
151.136
151.028
150.91
150.783
150.649
150.508
150.361
150.21
150.054
149.895
149.734
149.572
149.41
149.249
149.089
148.931
148.777
148.627
148.481
148.341
148.207
148.08
147.96
147.848
147.744
147.648
147.561
147.483
147.414
147.354
147.304
147.262
147.229
147.206
147.19
147.184
147.185
147.192
147.205
147.226
147.253
147.285
147.324
147.367
147.414
147.466
147.521
147.58
147.642
147.707
147.774
147.843
147.915
147.989
148.064
148.142
146.126
146.311
146.509
146.722
146.949
147.193
147.452
147.727
148.019
148.326
148.649
148.987
149.339
149.704
150.081
150.469
150.868
151.276
151.693
152.117
152.546
152.979
153.412
153.845
154.274
154.698
155.115
155.523
155.92
156.305
156.674
157.028
157.365
157.683
157.98
158.257
158.511
158.741
158.947
159.126
159.278
159.403
159.499
159.567
159.606
159.615
159.6
159.559
159.493
159.399
159.28
159.137
158.972
158.785
158.577
158.35
158.106
157.846
157.571
157.284
156.987
156.681
156.367
156.048
155.726
155.401
155.076
154.753
154.433
154.118
153.809
153.509
153.218
152.939
152.672
152.419
152.181
151.96
151.756
151.57
151.402
151.254
151.125
151.016
150.926
150.857
150.808
150.777
150.767
150.773
150.791
150.826
150.877
150.942
151.021
151.112
151.215
151.328
151.451
151.583
151.723
151.871
152.024
152.184
152.349
152.519
152.694
152.873
153.057
153.245
148.463
148.885
149.337
149.82
150.334
150.88
151.456
152.063
152.7
153.365
154.057
154.773
155.511
156.27
157.046
157.838
158.644
159.461
160.288
161.123
161.961
162.798
163.628
164.444
165.243
166.021
166.773
167.497
168.191
168.852
169.478
170.066
170.615
171.124
171.591
172.016
172.399
172.738
173.033
173.283
173.484
173.637
173.742
173.802
173.808
173.779
173.705
173.587
173.43
173.23
172.989
172.712
172.398
172.05
171.67
171.259
170.821
170.356
169.869
169.362
168.836
168.296
167.744
167.182
166.613
166.041
165.467
164.896
164.33
163.773
163.228
162.699
162.187
161.695
161.227
160.784
160.37
159.986
159.634
159.316
159.034
158.789
158.581
158.412
158.281
158.191
158.138
158.131
158.149
158.198
158.282
158.397
158.543
158.717
158.918
159.143
159.39
159.658
159.944
160.247
160.564
160.894
161.235
161.588
161.949
162.319
162.696
163.08
163.47
163.866
153.64
154.546
155.507
156.52
157.585
158.701
159.868
161.085
162.35
163.658
165.003
166.375
167.765
169.166
170.57
171.973
173.368
174.753
176.124
177.478
178.81
180.112
181.378
182.598
183.767
184.879
185.932
186.922
187.848
188.706
189.496
190.215
190.865
191.445
191.956
192.399
192.776
193.092
193.349
193.542
193.671
193.732
193.727
193.679
193.574
193.415
193.213
192.971
192.669
192.316
191.92
191.482
191.003
190.488
189.936
189.35
188.73
188.08
187.404
186.704
185.981
185.239
184.479
183.705
182.92
182.127
181.33
180.533
179.74
178.955
178.183
177.428
176.696
175.992
175.322
174.689
174.1
173.559
173.07
172.635
172.259
171.943
171.688
171.497
171.368
171.314
171.327
171.383
171.498
171.671
171.898
172.175
172.5
172.869
173.278
173.724
174.202
174.711
175.245
175.804
176.383
176.98
177.591
178.212
178.842
179.479
180.122
180.771
181.426
182.087
162.496
164.172
165.932
167.769
169.671
171.629
173.632
175.674
177.748
179.845
181.953
184.057
186.144
188.2
190.215
192.176
194.075
195.904
197.659
199.34
200.95
202.496
203.967
205.343
206.611
207.767
208.808
209.736
210.557
211.276
211.9
212.43
212.868
213.214
213.476
213.659
213.77
213.813
213.805
213.761
213.663
213.514
213.309
213.055
212.765
212.447
212.123
211.74
211.321
210.877
210.405
209.902
209.374
208.824
208.247
207.643
207.021
206.38
205.719
205.036
204.333
203.615
202.881
202.133
201.374
200.607
199.832
199.053
198.271
197.494
196.729
195.981
195.255
194.555
193.885
193.248
192.648
192.092
191.588
191.142
190.76
190.447
190.209
190.046
189.971
189.979
190.054
190.195
190.425
190.723
191.086
191.511
191.994
192.527
193.103
193.718
194.367
195.049
195.757
196.483
197.22
197.968
198.726
199.493
200.262
201.026
201.783
202.529
203.26
203.971
204.663
180.169
182.924
185.721
188.535
191.348
194.139
196.892
199.596
202.249
204.865
207.416
209.861
212.168
214.313
216.282
218.068
219.671
221.091
222.331
223.401
224.305
225.051
225.655
226.131
226.491
226.752
226.925
227.009
227.009
226.969
226.876
226.731
226.537
226.301
226.024
225.711
225.368
224.997
224.614
224.223
223.842
223.391
222.931
222.478
222.017
221.555
221.091
220.613
220.143
219.669
219.178
218.685
218.198
217.706
217.212
216.731
216.254
215.772
215.291
214.82
214.357
213.896
213.435
212.975
212.516
212.058
211.605
211.163
210.733
210.312
209.901
209.497
209.105
208.731
208.383
208.072
207.803
207.584
207.418
207.309
207.269
207.283
207.343
207.464
207.635
207.854
208.155
208.489
208.871
209.298
209.761
210.252
210.758
211.273
211.797
212.321
212.837
213.338
213.824
214.303
214.776
215.229
215.654
216.054
216.434
216.797
217.138
217.458
217.76
218.048
218.327
218.595
218.852
205.755
209.183
212.522
215.714
218.713
221.483
223.999
226.246
228.213
229.89
231.296
232.465
233.426
234.203
234.818
235.284
235.61
235.809
235.88
235.864
235.79
235.646
235.439
235.178
234.874
234.528
234.149
233.736
233.299
232.848
232.389
231.917
231.476
230.986
230.457
229.958
229.444
228.921
228.42
227.933
227.415
226.881
226.356
225.836
225.311
224.802
224.321
223.839
223.34
222.831
222.34
221.873
221.4
220.926
220.473
220.03
219.591
219.174
218.782
218.398
218.019
217.657
217.32
217.002
216.697
216.411
216.143
215.89
215.657
215.448
215.267
215.118
215.008
214.937
214.912
214.917
214.949
215.018
215.122
215.263
215.438
215.62
215.889
216.208
216.512
216.831
217.187
217.564
217.944
218.325
218.702
219.068
219.424
219.765
220.078
220.372
220.659
220.928
221.178
221.41
221.613
221.803
221.99
222.161
222.312
222.447
222.576
222.7
222.818
222.927
223.025
223.11
223.184
226.886
229.881
232.502
234.741
236.622
238.177
239.444
240.459
241.252
241.848
242.268
242.531
242.64
242.628
242.546
242.379
242.14
241.843
241.501
241.119
240.697
240.255
239.802
239.338
238.854
238.382
237.896
237.327
236.78
236.256
235.691
235.11
234.554
234.022
233.475
232.904
232.33
231.772
231.21
230.644
230.098
229.56
229.009
228.455
227.905
227.358
226.816
226.315
225.826
225.318
224.796
224.297
223.848
223.391
222.918
222.467
222.029
221.594
221.196
220.831
220.463
220.102
219.782
219.483
219.187
218.909
218.654
218.416
218.192
217.992
217.824
217.694
217.6
217.54
217.52
217.529
217.564
217.618
217.723
217.879
218.071
218.298
218.549
218.822
219.137
219.462
219.782
220.119
220.469
220.802
221.128
221.455
221.762
222.047
222.32
222.573
222.809
223.032
223.225
223.397
223.561
223.712
223.851
223.979
224.074
224.156
224.237
224.314
224.38
224.432
224.468
224.497
224.526
224.554
224.578
245.472
246.425
247.144
247.657
247.987
248.14
248.135
248.053
247.878
247.628
247.324
246.975
246.58
246.155
245.712
245.25
244.763
244.268
243.767
243.17
242.586
242.016
241.443
240.865
240.289
239.72
239.139
238.541
237.947
237.364
236.77
236.171
235.587
235.019
234.444
233.861
233.286
232.72
232.152
231.587
231.038
230.492
229.942
229.391
228.841
228.286
227.746
227.259
226.767
226.253
225.722
225.251
224.811
224.344
223.881
223.441
222.993
222.573
222.207
221.836
221.461
221.14
220.84
220.524
220.235
219.987
219.758
219.524
219.326
219.158
219.041
218.946
218.859
218.812
218.813
218.84
218.901
218.998
219.136
219.315
219.52
219.737
219.97
220.226
220.504
220.797
221.096
221.405
221.723
222.029
222.333
222.628
222.872
223.114
223.359
223.582
223.78
223.973
224.163
224.322
224.458
224.592
224.722
224.826
224.92
225.007
225.075
225.13
225.178
225.22
225.253
225.281
225.306
225.328
225.337
225.338
250.667
251.503
252.147
252.619
252.936
253.113
253.124
253.059
252.901
252.665
252.368
252.024
251.631
251.2
250.749
250.278
249.784
249.296
248.719
248.13
247.557
246.99
246.419
245.845
245.276
244.694
244.088
243.484
242.89
242.297
241.703
241.118
240.536
239.943
239.344
238.753
238.167
237.574
236.979
236.399
235.827
235.249
234.67
234.102
233.538
232.974
232.417
231.871
231.329
230.788
230.247
229.701
229.146
228.623
228.15
227.658
227.141
226.622
226.182
225.74
225.269
224.829
224.396
223.952
223.57
223.204
222.822
222.486
222.182
221.869
221.551
221.28
221.023
220.802
220.575
220.36
220.185
220.042
219.944
219.88
219.866
219.881
219.921
219.984
220.07
220.179
220.316
220.483
220.678
220.898
221.136
221.39
221.649
221.906
222.179
222.452
222.711
222.981
223.243
223.465
223.67
223.891
224.108
224.306
224.488
224.649
224.805
224.969
225.11
225.236
225.35
225.451
225.524
225.605
225.673
225.727
225.774
225.81
225.833
225.84
225.846
225.851
225.851
261.178
260.29
259.48
258.727
258.021
257.35
256.697
256.066
255.459
254.868
254.309
253.714
253.086
252.475
251.879
251.289
250.714
250.145
249.544
248.934
248.334
247.741
247.147
246.559
245.975
245.379
244.775
244.173
243.577
242.98
242.384
241.797
241.207
240.61
240.016
239.432
238.85
238.264
237.68
237.113
236.545
235.971
235.404
234.848
234.295
233.744
233.202
232.666
232.135
231.61
231.085
230.551
230.002
229.509
229.048
228.56
228.043
227.562
227.138
226.688
226.231
225.814
225.383
224.976
224.612
224.237
223.871
223.552
223.259
222.939
222.624
222.353
222.098
221.858
221.615
221.402
221.238
221.122
221.036
220.972
220.931
220.917
220.923
220.954
221.019
221.121
221.253
221.407
221.576
221.757
221.948
222.15
222.36
222.578
222.815
223.047
223.273
223.518
223.752
223.951
224.139
224.32
224.54
224.748
224.93
225.104
225.255
225.397
225.558
225.699
225.826
225.943
226.041
226.117
226.186
226.257
226.315
226.357
226.386
226.409
226.428
226.439
226.438
267.581
265.674
263.976
262.465
261.129
259.937
258.859
257.88
256.986
256.165
255.41
254.682
253.969
253.286
252.63
251.992
251.381
250.776
250.16
249.54
248.924
248.312
247.703
247.105
246.507
245.902
245.298
244.699
244.104
243.509
242.922
242.34
241.755
241.169
240.589
240.018
239.448
238.876
238.312
237.759
237.203
236.646
236.098
235.559
235.021
234.488
233.964
233.442
232.926
232.423
231.915
231.394
230.864
230.408
229.962
229.483
228.982
228.544
228.127
227.67
227.248
226.846
226.431
226.058
225.707
225.33
224.993
224.679
224.396
224.074
223.759
223.483
223.222
222.991
222.78
222.586
222.417
222.279
222.169
222.089
222.042
222.035
222.046
222.074
222.118
222.182
222.264
222.366
222.487
222.626
222.781
222.949
223.123
223.305
223.499
223.687
223.881
224.096
224.302
224.475
224.646
224.806
225.017
225.236
225.421
225.596
225.768
225.902
226.044
226.208
226.351
226.48
226.599
226.685
226.754
226.835
226.913
226.967
226.998
227.029
227.056
227.063
227.063
273.675
270.979
268.53
266.332
264.376
262.639
261.099
259.733
258.519
257.443
256.482
255.598
254.776
254.009
253.28
252.583
251.918
251.264
250.617
249.979
249.351
248.73
248.12
247.52
246.92
246.32
245.725
245.136
244.55
243.968
243.395
242.825
242.253
241.684
241.123
240.568
240.013
239.46
238.918
238.382
237.843
237.306
236.781
236.261
235.742
235.231
234.727
234.219
233.722
233.245
232.757
232.249
231.757
231.327
230.892
230.42
229.956
229.551
229.136
228.698
228.303
227.906
227.532
227.187
226.84
226.476
226.151
225.836
225.558
225.259
224.951
224.675
224.419
224.186
223.975
223.783
223.618
223.483
223.378
223.299
223.243
223.208
223.192
223.194
223.211
223.248
223.307
223.386
223.48
223.585
223.7
223.822
223.951
224.092
224.244
224.399
224.563
224.747
224.929
225.081
225.234
225.377
225.577
225.798
225.985
226.16
226.338
226.492
226.614
226.778
226.939
227.082
227.217
227.317
227.389
227.475
227.57
227.641
227.678
227.712
227.743
227.76
227.764
227.763
227.757
280.616
277.392
274.313
271.433
268.786
266.387
264.239
262.331
260.648
259.169
257.863
256.709
255.69
254.774
253.931
253.149
252.415
251.71
251.029
250.369
249.728
249.101
248.49
247.889
247.293
246.703
246.119
245.542
244.969
244.403
243.845
243.289
242.734
242.184
241.642
241.105
240.568
240.036
239.516
238.998
238.478
237.965
237.463
236.962
236.463
235.976
235.493
234.997
234.529
234.08
233.61
233.119
232.671
232.262
231.83
231.368
230.952
230.57
230.158
229.755
229.37
228.997
228.656
228.339
227.988
227.638
227.325
227.018
226.728
226.442
226.161
225.891
225.643
225.421
225.222
225.042
224.88
224.738
224.618
224.522
224.448
224.398
224.369
224.361
224.366
224.382
224.412
224.455
224.51
224.578
224.657
224.746
224.844
224.952
225.07
225.195
225.329
225.478
225.64
225.774
225.907
226.037
226.218
226.438
226.626
226.797
226.972
227.148
227.277
227.412
227.588
227.747
227.897
228.014
228.092
228.182
228.288
228.374
228.423
228.462
228.498
228.524
228.537
228.54
228.538
287.741
284.483
281.161
277.853
274.637
271.581
268.741
266.154
263.838
261.791
259.993
258.415
257.031
255.827
254.78
253.852
253.01
252.227
251.491
250.792
250.123
249.481
248.861
248.257
247.663
247.08
246.506
245.939
245.38
244.83
244.287
243.746
243.21
242.68
242.157
241.637
241.12
240.611
240.112
239.612
239.111
238.624
238.145
237.661
237.185
236.726
236.26
235.781
235.348
234.92
234.466
234.004
233.592
233.199
232.774
232.34
231.955
231.587
231.199
230.823
230.449
230.109
229.779
229.481
229.144
228.805
228.498
228.198
227.909
227.636
227.37
227.115
226.88
226.667
226.474
226.298
226.138
225.995
225.873
225.771
225.69
225.627
225.581
225.549
225.531
225.528
225.534
225.551
225.581
225.62
225.67
225.727
225.792
225.868
225.955
226.053
226.162
226.283
226.422
226.547
226.661
226.779
226.941
227.151
227.337
227.503
227.672
227.847
228.005
228.128
228.281
228.46
228.627
228.767
228.853
228.945
229.062
229.162
229.227
229.277
229.323
229.361
229.387
229.402
229.407
296.376
293.806
290.995
287.955
284.725
281.368
277.964
274.604
271.38
268.372
265.631
263.179
261.015
259.114
257.449
256.029
254.846
253.821
252.906
252.073
251.304
250.585
249.908
249.266
248.648
248.05
247.468
246.9
246.343
245.797
245.261
244.731
244.207
243.689
243.178
242.674
242.173
241.675
241.189
240.71
240.228
239.748
239.288
238.829
238.359
237.915
237.481
237.029
236.581
236.174
235.761
235.323
234.901
234.515
234.137
233.721
233.321
232.955
232.596
232.247
231.891
231.545
231.224
230.903
230.609
230.295
229.973
229.672
229.378
229.099
228.837
228.585
228.342
228.116
227.91
227.722
227.55
227.393
227.251
227.125
227.017
226.926
226.851
226.791
226.746
226.712
226.691
226.679
226.678
226.683
226.697
226.719
226.75
226.79
226.839
226.899
226.971
227.055
227.151
227.258
227.379
227.484
227.594
227.736
227.928
228.112
228.273
228.434
228.605
228.778
228.913
229.041
229.225
229.41
229.573
229.679
229.779
229.898
230.01
230.092
230.16
230.221
230.272
230.311
230.337
230.352
300.205
298.245
296.053
293.6
290.869
287.866
284.62
281.193
277.677
274.183
270.819
267.676
264.819
262.281
260.063
258.129
256.442
255.03
253.87
252.866
251.975
251.167
250.427
249.739
249.092
248.477
247.888
247.319
246.767
246.23
245.705
245.189
244.681
244.18
243.687
243.201
242.719
242.241
241.777
241.318
240.85
240.397
239.963
239.517
239.068
238.658
238.242
237.805
237.394
237.009
236.607
236.186
235.805
235.444
235.075
234.675
234.304
233.955
233.619
233.298
232.961
232.639
232.337
232.031
231.738
231.445
231.145
230.852
230.569
230.301
230.05
229.809
229.578
229.359
229.157
228.972
228.802
228.647
228.505
228.377
228.264
228.166
228.081
228.01
227.95
227.901
227.862
227.832
227.811
227.796
227.792
227.795
227.806
227.825
227.853
227.892
227.943
228.006
228.081
228.165
228.264
228.365
228.464
228.585
228.755
228.932
229.087
229.244
229.411
229.587
229.739
229.863
230.041
230.238
230.417
230.55
230.659
230.781
230.904
231.008
231.095
231.173
231.242
231.299
231.344
231.379
231.405
231.423
302.787
301.291
299.627
297.755
295.635
293.232
290.517
287.489
284.177
280.653
277.018
273.398
269.916
266.675
263.747
261.167
258.936
257.011
255.365
254.022
252.908
251.947
251.096
250.329
249.626
248.975
248.364
247.784
247.229
246.695
246.178
245.672
245.178
244.693
244.217
243.75
243.284
242.826
242.386
241.942
241.49
241.07
240.654
240.218
239.804
239.418
239.015
238.601
238.22
237.854
237.462
237.073
236.72
236.381
236.016
235.644
235.298
234.97
234.655
234.351
234.039
233.737
233.448
233.157
232.871
232.592
232.313
232.038
231.773
231.521
231.283
231.054
230.832
230.62
230.423
230.24
230.073
229.919
229.779
229.65
229.533
229.428
229.335
229.252
229.179
229.116
229.061
229.014
228.974
228.943
228.92
228.904
228.895
228.896
228.903
228.922
228.953
228.997
229.056
229.126
229.203
229.305
229.399
229.503
229.647
229.809
229.957
230.104
230.265
230.44
230.602
230.728
230.907
231.114
231.303
231.459
231.588
231.725
231.867
231.997
232.113
232.217
232.31
232.392
232.462
232.519
232.567
232.604
304.658
303.455
302.151
300.71
299.094
297.258
295.153
292.735
289.973
286.865
283.445
279.792
276.023
272.281
268.705
265.409
262.466
259.903
257.71
255.835
254.286
253.044
252.002
251.101
250.304
249.586
248.93
248.322
247.753
247.213
246.696
246.198
245.714
245.241
244.782
244.331
243.88
243.445
243.025
242.592
242.165
241.773
241.37
240.953
240.571
240.202
239.81
239.428
239.07
238.719
238.34
237.988
237.654
237.33
236.978
236.639
236.315
236.008
235.712
235.422
235.133
234.849
234.573
234.297
234.023
233.758
233.495
233.238
232.988
232.75
232.523
232.307
232.099
231.9
231.713
231.54
231.38
231.232
231.093
230.962
230.841
230.731
230.63
230.538
230.455
230.379
230.311
230.249
230.195
230.149
230.109
230.075
230.047
230.026
230.014
230.014
230.025
230.05
230.089
230.14
230.203
230.281
230.373
230.471
230.592
230.745
230.897
231.037
231.192
231.365
231.541
231.676
231.862
232.075
232.277
232.451
232.602
232.76
232.923
233.079
233.223
233.355
233.476
233.586
233.685
233.773
233.849
233.914
306.205
305.177
304.091
302.926
301.653
300.236
298.629
296.78
294.636
292.147
289.281
286.037
282.457
278.637
274.72
270.867
267.233
263.933
261.034
258.552
256.45
254.691
253.29
252.156
251.198
250.368
249.633
248.973
248.369
247.81
247.284
246.786
246.307
245.843
245.397
244.96
244.523
244.112
243.706
243.285
242.89
242.516
242.126
241.735
241.378
241.022
240.645
240.293
239.96
239.617
239.261
238.937
238.625
238.307
237.983
237.67
237.369
237.082
236.805
236.53
236.258
235.99
235.728
235.468
235.21
234.959
234.712
234.47
234.235
234.01
233.796
233.592
233.396
233.21
233.033
232.867
232.713
232.568
232.432
232.305
232.185
232.074
231.97
231.875
231.786
231.704
231.628
231.558
231.493
231.432
231.375
231.324
231.279
231.24
231.21
231.191
231.188
231.195
231.214
231.246
231.29
231.351
231.427
231.509
231.614
231.749
231.898
232.033
232.179
232.349
232.537
232.701
232.887
233.108
233.326
233.52
233.7
233.889
234.085
234.276
234.457
234.628
234.79
234.94
235.079
235.206
235.32
235.422
235.514
306.718
305.774
304.779
303.721
302.578
301.315
299.891
298.256
296.351
294.117
291.498
288.46
285.012
281.216
277.199
273.131
269.197
265.557
262.319
259.533
257.189
255.232
253.66
252.423
251.404
250.539
249.788
249.123
248.523
247.973
247.463
246.98
246.521
246.084
245.655
245.234
244.842
244.448
244.042
243.674
243.315
242.937
242.574
242.24
241.896
241.54
241.212
240.9
240.568
240.24
239.937
239.645
239.341
239.042
238.754
238.474
238.207
237.95
237.692
237.435
237.183
236.935
236.692
236.452
236.216
235.985
235.759
235.539
235.327
235.125
234.933
234.75
234.575
234.408
234.25
234.101
233.96
233.827
233.702
233.583
233.471
233.366
233.267
233.173
233.084
233.001
232.922
232.848
232.777
232.711
232.65
232.594
232.545
232.506
232.476
232.455
232.446
232.45
232.464
232.491
232.538
232.601
232.672
232.763
232.885
233.027
233.158
233.3
233.47
233.665
233.855
234.057
234.288
234.529
234.752
234.97
235.198
235.433
235.666
235.892
236.109
236.316
236.512
236.696
236.867
237.024
237.169
237.301
308.195
307.363
306.494
305.581
304.612
303.571
302.433
301.159
299.701
298.001
295.993
293.606
290.783
287.496
283.775
279.716
275.487
271.292
267.334
263.765
260.673
258.073
255.92
254.177
252.825
251.741
250.841
250.073
249.402
248.806
248.267
247.768
247.304
246.868
246.441
246.035
245.655
245.27
244.883
244.537
244.19
243.827
243.49
243.175
242.844
242.511
242.203
241.91
241.595
241.291
241.008
240.736
240.452
240.175
239.909
239.652
239.405
239.166
238.927
238.688
238.452
238.22
237.993
237.77
237.551
237.337
237.128
236.924
236.727
236.538
236.359
236.188
236.024
235.867
235.717
235.574
235.438
235.309
235.186
235.068
234.956
234.849
234.746
234.648
234.554
234.463
234.376
234.292
234.213
234.137
234.065
234
233.941
233.89
233.847
233.815
233.795
233.792
233.8
233.821
233.862
233.915
233.977
234.059
234.171
234.31
234.442
234.588
234.764
234.97
235.19
235.413
235.663
235.929
236.191
236.453
236.725
237.006
237.288
237.564
237.829
238.082
238.324
238.553
238.767
238.968
239.155
239.328
308.935
308.17
307.374
306.538
305.652
304.702
303.669
302.521
301.213
299.689
297.878
295.703
293.086
289.973
286.355
282.297
277.95
273.53
269.275
265.384
261.984
259.123
256.769
254.862
253.391
252.241
251.304
250.517
249.842
249.249
248.715
248.233
247.786
247.355
246.957
246.581
246.202
245.833
245.503
245.166
244.819
244.503
244.203
243.888
243.577
243.287
243.012
242.719
242.436
242.171
241.92
241.659
241.403
241.159
240.923
240.696
240.477
240.258
240.038
239.821
239.607
239.397
239.191
238.99
238.794
238.602
238.416
238.235
238.061
237.895
237.736
237.584
237.438
237.298
237.162
237.032
236.907
236.787
236.672
236.56
236.452
236.347
236.245
236.145
236.048
235.954
235.862
235.773
235.688
235.607
235.53
235.461
235.398
235.344
235.3
235.268
235.254
235.257
235.27
235.301
235.348
235.41
235.493
235.607
235.754
235.898
236.053
236.242
236.467
236.724
236.981
237.25
237.54
237.842
238.152
238.472
238.799
239.129
239.455
239.774
240.083
240.379
240.661
240.928
241.18
241.416
241.638
309.871
309.17
308.447
307.689
306.885
306.022
305.084
304.048
302.87
301.498
299.862
297.878
295.456
292.515
289.015
284.984
280.553
275.938
271.406
267.202
263.5
260.376
257.82
255.757
254.162
252.942
251.967
251.164
250.481
249.886
249.363
248.887
248.442
248.04
247.66
247.281
246.927
246.603
246.274
245.94
245.644
245.353
245.053
244.763
244.488
244.229
243.963
243.698
243.45
243.219
242.983
242.747
242.523
242.309
242.103
241.904
241.706
241.508
241.312
241.118
240.925
240.738
240.556
240.379
240.206
240.039
239.876
239.718
239.567
239.421
239.282
239.147
239.017
238.891
238.768
238.649
238.533
238.42
238.309
238.201
238.095
237.99
237.886
237.784
237.683
237.584
237.487
237.393
237.303
237.217
237.138
237.065
237
236.946
236.904
236.879
236.876
236.883
236.907
236.949
237.011
237.098
237.217
237.372
237.529
237.701
237.912
238.164
238.452
238.751
239.053
239.381
239.733
240.1
240.477
240.862
241.25
241.637
242.018
242.388
242.745
243.086
243.411
243.719
244.011
244.286
244.548
244.797
311.65
311.025
310.39
309.739
309.063
308.346
307.573
306.729
305.795
304.736
303.501
302.022
300.212
297.971
295.198
291.821
287.836
283.344
278.558
273.768
269.264
265.265
261.882
259.123
256.912
255.193
253.9
252.886
252.059
251.366
250.772
250.244
249.768
249.343
248.946
248.559
248.208
247.881
247.551
247.231
246.945
246.658
246.37
246.103
245.839
245.588