/*--------------------------------*- C++ -*----------------------------------*\
| =========                 |                                                 |
| \\      /  F ield         | OpenFOAM: The Open Source CFD Toolbox           |
|  \\    /   O peration     | Version:  v1706                                 |
|   \\  /    A nd           | Web:      www.OpenFOAM.com                      |
|    \\/     M anipulation  |                                                 |
\*---------------------------------------------------------------------------*/
FoamFile
{
    version     2.0;
    format      ascii;
    class       volVectorField;
    location    "1.9e-05";
    object      U;
}
// * * * * * * * * * * * * * * * * * * * * * * * * * * * * * * * * * * * * * //

dimensions      [0 1 -1 0 0 0 0];


internalField   nonuniform List<vector> 
29871
(
(978.579 0.00097176 7.00011e-15)
(978.579 0.0010755 4.63905e-15)
(978.579 0.00118811 4.86332e-15)
(978.579 0.00130917 3.93156e-15)
(978.579 0.00143796 2.59545e-15)
(978.579 0.00157377 3.3162e-15)
(978.579 0.00171613 4.2418e-15)
(978.579 0.00186499 4.41997e-15)
(978.578 0.00202078 4.89964e-15)
(978.578 0.00218433 4.84172e-15)
(978.578 0.0023567 4.87089e-15)
(978.578 0.00253904 6.35299e-15)
(978.578 0.00273242 5.2604e-15)
(978.578 0.00293754 5.65821e-15)
(978.578 0.00315446 3.97469e-15)
(978.578 0.00338232 2.64935e-15)
(978.577 0.00361941 3.33714e-15)
(978.577 0.0038636 4.08935e-15)
(978.577 0.0041127 4.32441e-15)
(978.577 0.00436483 4.34057e-15)
(978.577 0.00461856 3.87987e-15)
(978.577 0.00487292 4.14381e-15)
(978.576 0.00512717 2.83506e-15)
(978.576 0.00538056 4.66916e-15)
(978.576 0.00563199 6.11625e-15)
(978.576 0.00587995 5.22024e-15)
(978.576 0.00612276 6.44586e-15)
(978.576 0.00635895 3.58304e-15)
(978.576 0.00658753 3.24755e-15)
(978.575 0.00680793 5.11798e-15)
(978.575 0.00701973 4.94384e-15)
(978.575 0.00722229 3.48698e-15)
(978.575 0.00741457 4.93661e-15)
(978.575 0.00759524 7.05165e-15)
(978.575 0.00776295 4.07465e-15)
(978.575 0.00791646 2.0154e-15)
(978.575 0.00805472 2.18698e-15)
(978.575 0.00817676 4.96551e-15)
(978.575 0.00828169 5.24179e-15)
(978.575 0.00836873 5.55771e-15)
(978.575 0.00843697 6.53844e-15)
(978.575 0.00848565 6.73759e-15)
(978.575 0.00851448 5.83063e-15)
(978.575 0.00852325 3.97223e-15)
(978.575 0.00851616 3.97134e-15)
(978.575 0.00848561 4.45624e-15)
(978.575 0.00843943 3.16405e-15)
(978.575 0.00837586 1.01286e-15)
(978.575 0.0082949 2.65728e-15)
(978.575 0.00819717 6.50039e-15)
(978.575 0.00808353 4.58548e-15)
(978.575 0.00795495 1.91185e-15)
(978.575 0.0078125 3.67959e-15)
(978.575 0.00765735 5.28259e-15)
(978.575 0.00749074 4.56406e-15)
(978.576 0.00731392 4.71857e-15)
(978.576 0.00712808 5.65678e-15)
(978.576 0.0069344 6.2507e-15)
(978.576 0.00673411 4.55944e-15)
(978.576 0.00652849 3.59386e-15)
(978.576 0.00631882 1.8971e-15)
(978.576 0.0061063 1.77646e-15)
(978.577 0.005892 3.0912e-15)
(978.577 0.00567693 6.48672e-16)
(978.577 0.00546209 4.91679e-15)
(978.577 0.00524851 5.50105e-15)
(978.577 0.00503724 3.7087e-15)
(978.577 0.00482932 2.59878e-15)
(978.577 0.00462573 2.46952e-15)
(978.577 0.00442745 2.83949e-15)
(978.578 0.00423545 4.32619e-15)
(978.578 0.00405074 4.02612e-15)
(978.578 0.00387429 1.84586e-15)
(978.578 0.00370706 3.50143e-15)
(978.578 0.00354979 3.00297e-15)
(978.578 0.003403 4.97238e-15)
(978.578 0.0032671 1.71052e-15)
(978.578 0.00314227 3.5834e-15)
(978.578 0.00302854 2.84213e-15)
(978.578 0.00292576 5.97126e-15)
(978.578 0.00283346 5.52853e-15)
(978.578 0.00275131 4.57942e-15)
(978.578 0.00267893 4.61591e-15)
(978.578 0.00261559 3.7305e-15)
(978.578 0.00256109 5.74847e-15)
(978.578 0.00251525 4.88073e-15)
(978.578 0.00247684 4.25312e-15)
(978.578 0.00244578 5.42843e-15)
(978.578 0.00242315 5.69681e-15)
(978.578 0.00240642 5.12259e-15)
(978.578 0.00239531 4.02514e-15)
(978.578 0.00239395 3.14415e-15)
(978.578 0.00239543 4.1577e-15)
(978.578 0.00239999 4.15802e-15)
(978.578 0.00240775 3.37983e-15)
(978.578 0.00241846 3.61033e-15)
(978.578 0.00243249 3.71002e-15)
(978.578 0.00245018 3.81757e-15)
(978.578 0.00247088 3.81717e-15)
(978.578 0.00249386 3.86338e-15)
(978.578 0.00251854 4.70791e-15)
(978.578 0.0025445 3.66406e-15)
(978.578 0.00257147 2.35254e-15)
(978.578 0.00259933 3.09708e-15)
(978.578 0.00262807 1.61593e-15)
(978.575 0.00536238 1.19353e-14)
(978.575 0.00592165 1.22614e-14)
(978.575 0.00652312 1.36984e-14)
(978.574 0.00717134 1.31681e-14)
(978.573 0.00787162 1.2184e-14)
(978.573 0.00862892 1.38015e-14)
(978.572 0.00944673 1.27606e-14)
(978.572 0.0103262 1.25725e-14)
(978.571 0.0112661 1.26656e-14)
(978.57 0.0122636 1.27533e-14)
(978.569 0.0133144 1.20985e-14)
(978.569 0.0144135 1.19805e-14)
(978.568 0.0155553 1.2728e-14)
(978.567 0.0167344 9.00574e-15)
(978.566 0.0179467 8.00284e-15)
(978.565 0.0191905 1.01621e-14)
(978.564 0.0204665 1.20929e-14)
(978.564 0.0217769 1.13639e-14)
(978.563 0.0231239 9.97988e-15)
(978.562 0.024508 8.67011e-15)
(978.561 0.0259274 9.71218e-15)
(978.56 0.0273771 1.09878e-14)
(978.559 0.0288498 1.29425e-14)
(978.558 0.0303372 1.28953e-14)
(978.557 0.0318316 1.05451e-14)
(978.556 0.0333261 1.15504e-14)
(978.555 0.0348147 1.26713e-14)
(978.554 0.0362902 1.13468e-14)
(978.553 0.0377436 1.16066e-14)
(978.553 0.0391639 1.16386e-14)
(978.552 0.0405392 1.24148e-14)
(978.551 0.0418587 8.21015e-15)
(978.551 0.043113 1.18764e-14)
(978.55 0.0442946 1.48148e-14)
(978.549 0.0453967 1.3265e-14)
(978.549 0.0464129 1.20343e-14)
(978.548 0.0473373 9.67576e-15)
(978.548 0.0481643 1.22984e-14)
(978.548 0.0488892 1.14299e-14)
(978.548 0.0495077 1.25383e-14)
(978.548 0.0500165 1.25455e-14)
(978.548 0.0504144 1.14302e-14)
(978.548 0.0506973 1.18033e-14)
(978.548 0.0508636 1.10503e-14)
(978.548 0.0509151 1.06877e-14)
(978.548 0.050856 1.16838e-14)
(978.548 0.0506777 1.12466e-14)
(978.549 0.0503862 8.5225e-15)
(978.549 0.0499838 1.05275e-14)
(978.55 0.049474 9.37158e-15)
(978.55 0.0488611 8.38139e-15)
(978.551 0.0481501 1.06593e-14)
(978.552 0.0473467 1.17657e-14)
(978.552 0.046457 9.7058e-15)
(978.553 0.0454877 9.95266e-15)
(978.554 0.0444461 9.58692e-15)
(978.555 0.0433405 1.14784e-14)
(978.555 0.0421799 1.19976e-14)
(978.556 0.0409731 7.92272e-15)
(978.557 0.0397288 8.11974e-15)
(978.558 0.0384556 9.76878e-15)
(978.559 0.0371622 7.07012e-15)
(978.559 0.0358575 9.47831e-15)
(978.56 0.0345503 8.22275e-15)
(978.561 0.0332492 1.04437e-14)
(978.562 0.0319619 1.03777e-14)
(978.563 0.0306953 9.10779e-15)
(978.563 0.029456 1.11738e-14)
(978.564 0.0282495 1.13947e-14)
(978.565 0.0270809 9.2691e-15)
(978.565 0.0259544 1.14584e-14)
(978.566 0.0248732 8.12608e-15)
(978.567 0.0238399 7.97825e-15)
(978.567 0.0228564 1.05933e-14)
(978.568 0.0219246 8.29463e-15)
(978.568 0.0210467 8.81254e-15)
(978.568 0.0202241 8.43917e-15)
(978.569 0.0194585 9.20037e-15)
(978.569 0.0187512 9.18603e-15)
(978.569 0.0181033 1.15429e-14)
(978.57 0.0175163 1.00264e-14)
(978.57 0.0169905 9.54916e-15)
(978.57 0.0165251 9.33702e-15)
(978.57 0.0161199 1.04079e-14)
(978.57 0.0157727 1.15866e-14)
(978.571 0.0154808 1.17416e-14)
(978.571 0.015242 1.12149e-14)
(978.571 0.0150526 1.06284e-14)
(978.571 0.0149088 1.12461e-14)
(978.571 0.0148105 1.1802e-14)
(978.571 0.0147585 9.18395e-15)
(978.571 0.0147552 9.69124e-15)
(978.571 0.0147704 1.18204e-14)
(978.571 0.0148029 1.08008e-14)
(978.57 0.0148598 9.63581e-15)
(978.57 0.0149451 9.29228e-15)
(978.57 0.0150566 9.62689e-15)
(978.57 0.0151911 1.04742e-14)
(978.57 0.0153457 9.23155e-15)
(978.57 0.0155178 6.53907e-15)
(978.57 0.015705 9.8406e-15)
(978.57 0.0159056 1.03791e-14)
(978.569 0.0161179 7.89386e-15)
(978.569 0.0163404 8.24704e-15)
(978.569 0.0165716 6.42289e-15)
(978.567 0.01495 2.32031e-14)
(978.565 0.016604 2.27551e-14)
(978.564 0.0184046 1.85162e-14)
(978.562 0.0203528 2.19677e-14)
(978.561 0.0224468 2.32741e-14)
(978.559 0.0246836 2.02384e-14)
(978.557 0.027061 2.07269e-14)
(978.555 0.0295804 2.04652e-14)
(978.553 0.0322469 2.23032e-14)
(978.551 0.0350691 2.0157e-14)
(978.549 0.0380571 1.86788e-14)
(978.546 0.0412199 1.68269e-14)
(978.544 0.0445653 1.59643e-14)
(978.541 0.048099 1.89838e-14)
(978.539 0.051823 1.94312e-14)
(978.536 0.0557328 1.87753e-14)
(978.533 0.0598162 1.75808e-14)
(978.53 0.0640538 1.84785e-14)
(978.527 0.0684227 1.71111e-14)
(978.524 0.0729 1.72772e-14)
(978.521 0.0774649 1.64797e-14)
(978.518 0.0820988 1.50453e-14)
(978.515 0.0867858 1.84018e-14)
(978.512 0.0915114 2.0801e-14)
(978.509 0.0962607 1.61395e-14)
(978.506 0.101016 1.87496e-14)
(978.503 0.105753 2.00068e-14)
(978.5 0.110445 1.88845e-14)
(978.498 0.115062 1.8166e-14)
(978.495 0.119577 1.8225e-14)
(978.493 0.123969 1.83677e-14)
(978.49 0.128217 1.91707e-14)
(978.488 0.132304 1.78266e-14)
(978.486 0.136208 1.88768e-14)
(978.484 0.139906 1.96813e-14)
(978.483 0.143375 2.00842e-14)
(978.481 0.146594 1.98341e-14)
(978.48 0.149541 1.88407e-14)
(978.479 0.152199 1.86199e-14)
(978.478 0.15455 1.94913e-14)
(978.478 0.15658 1.85177e-14)
(978.477 0.158274 1.72958e-14)
(978.477 0.159619 1.76555e-14)
(978.477 0.160608 1.76979e-14)
(978.478 0.161227 1.84212e-14)
(978.478 0.161421 1.76384e-14)
(978.479 0.161273 1.93774e-14)
(978.48 0.160851 1.77859e-14)
(978.481 0.160065 1.614e-14)
(978.483 0.158931 1.54834e-14)
(978.484 0.157465 1.47949e-14)
(978.486 0.155682 1.70424e-14)
(978.488 0.153595 1.5137e-14)
(978.49 0.151223 1.53734e-14)
(978.492 0.148584 1.65942e-14)
(978.494 0.145702 1.74985e-14)
(978.497 0.142599 1.59202e-14)
(978.499 0.139296 1.93892e-14)
(978.502 0.135814 1.94134e-14)
(978.504 0.132175 1.51212e-14)
(978.507 0.128404 1.45125e-14)
(978.509 0.124526 1.37348e-14)
(978.512 0.120566 1.62853e-14)
(978.515 0.116549 1.74986e-14)
(978.517 0.112497 1.38774e-14)
(978.52 0.108434 1.51446e-14)
(978.522 0.104381 1.54917e-14)
(978.524 0.100363 1.54048e-14)
(978.527 0.0964016 1.67069e-14)
(978.529 0.0925192 1.67554e-14)
(978.531 0.0887367 1.57108e-14)
(978.533 0.0850741 1.73362e-14)
(978.535 0.0815503 1.4331e-14)
(978.537 0.0781824 1.57848e-14)
(978.538 0.0749859 1.65009e-14)
(978.54 0.0719725 1.40392e-14)
(978.541 0.0691496 1.66058e-14)
(978.543 0.0665238 1.73303e-14)
(978.544 0.0640987 1.4638e-14)
(978.545 0.0618742 1.45683e-14)
(978.546 0.0598506 1.73442e-14)
(978.547 0.0580234 1.61413e-14)
(978.547 0.0563883 1.63404e-14)
(978.548 0.0549453 1.4976e-14)
(978.548 0.0536856 1.74942e-14)
(978.549 0.0526068 1.78765e-14)
(978.549 0.0517065 1.43673e-14)
(978.549 0.0509719 1.46111e-14)
(978.549 0.0503993 1.70124e-14)
(978.549 0.0499711 1.50835e-14)
(978.549 0.0497057 1.64827e-14)
(978.549 0.0496181 1.42949e-14)
(978.549 0.04964 1.50263e-14)
(978.548 0.049718 1.65554e-14)
(978.548 0.0498723 1.6314e-14)
(978.548 0.0501244 1.48241e-14)
(978.547 0.0504708 1.39249e-14)
(978.547 0.0509 1.67928e-14)
(978.547 0.0514004 1.59165e-14)
(978.546 0.0519623 1.4797e-14)
(978.546 0.0525769 1.47333e-14)
(978.545 0.0532358 1.56784e-14)
(978.545 0.0539311 1.5604e-14)
(978.544 0.0546565 1.42092e-14)
(978.544 0.0554073 1.40488e-14)
(978.543 0.056181 1.42262e-14)
(978.543 0.0412231 3.12243e-14)
(978.539 0.0456618 3.23238e-14)
(978.536 0.0504535 2.79116e-14)
(978.531 0.0556316 2.8844e-14)
(978.527 0.0612349 2.88641e-14)
(978.522 0.0673011 2.77303e-14)
(978.517 0.0738593 3.02865e-14)
(978.511 0.0809228 2.91172e-14)
(978.506 0.0884879 2.64277e-14)
(978.499 0.0965389 2.63863e-14)
(978.493 0.105055 2.85237e-14)
(978.486 0.114015 2.73404e-14)
(978.479 0.123392 2.66528e-14)
(978.472 0.133156 2.64828e-14)
(978.465 0.143275 2.6941e-14)
(978.458 0.153726 2.48692e-14)
(978.45 0.164498 2.56144e-14)
(978.442 0.175592 2.64644e-14)
(978.434 0.187018 2.63233e-14)
(978.426 0.198775 2.59858e-14)
(978.418 0.210852 2.57183e-14)
(978.41 0.22322 2.80916e-14)
(978.402 0.235833 2.82235e-14)
(978.394 0.248631 2.63598e-14)
(978.386 0.261547 2.53506e-14)
(978.378 0.274513 2.64208e-14)
(978.37 0.287468 2.80578e-14)
(978.362 0.300356 2.48425e-14)
(978.355 0.313122 2.35843e-14)
(978.348 0.325698 2.57093e-14)
(978.341 0.338007 2.57946e-14)
(978.334 0.349961 2.58861e-14)
(978.328 0.361471 2.5187e-14)
(978.323 0.37246 2.7148e-14)
(978.318 0.382857 2.61517e-14)
(978.313 0.392596 2.64195e-14)
(978.31 0.401617 2.67776e-14)
(978.306 0.409869 2.49253e-14)
(978.303 0.417304 2.482e-14)
(978.301 0.423876 2.33804e-14)
(978.3 0.429548 2.56584e-14)
(978.299 0.434289 2.65287e-14)
(978.299 0.438078 2.40276e-14)
(978.299 0.440942 2.55798e-14)
(978.301 0.442837 2.60451e-14)
(978.303 0.443542 2.40521e-14)
(978.304 0.443194 2.36921e-14)
(978.307 0.442205 2.50608e-14)
(978.31 0.440176 2.70933e-14)
(978.314 0.437156 2.26791e-14)
(978.319 0.433197 2.13155e-14)
(978.324 0.428344 2.16257e-14)
(978.329 0.42264 2.2953e-14)
(978.335 0.416132 2.48685e-14)
(978.341 0.408874 2.18249e-14)
(978.347 0.400918 2.26694e-14)
(978.353 0.392329 2.52517e-14)
(978.36 0.383179 2.51457e-14)
(978.367 0.373549 2.3379e-14)
(978.374 0.363515 2.3059e-14)
(978.381 0.353151 2.37372e-14)
(978.388 0.342525 2.09016e-14)
(978.395 0.331705 2.05814e-14)
(978.402 0.320764 2.05768e-14)
(978.409 0.309772 2.08059e-14)
(978.416 0.298801 2.08694e-14)
(978.422 0.287912 2.09226e-14)
(978.429 0.277163 2.06855e-14)
(978.435 0.266605 2.07033e-14)
(978.44 0.256285 2.10442e-14)
(978.446 0.246246 2.20432e-14)
(978.451 0.236527 2.18118e-14)
(978.456 0.227162 2.19242e-14)
(978.461 0.218183 2.17747e-14)
(978.465 0.209617 1.99827e-14)
(978.469 0.201493 2.02947e-14)
(978.473 0.193842 2.29823e-14)
(978.477 0.186689 2.24194e-14)
(978.48 0.180048 2.25758e-14)
(978.482 0.173948 2.43186e-14)
(978.485 0.168397 2.26259e-14)
(978.487 0.163402 2.09749e-14)
(978.488 0.158981 1.95455e-14)
(978.49 0.155103 2.07989e-14)
(978.491 0.151768 2.24723e-14)
(978.491 0.148974 1.89262e-14)
(978.492 0.14665 2.08153e-14)
(978.492 0.144837 2.37346e-14)
(978.492 0.143453 2.29022e-14)
(978.492 0.142444 1.94385e-14)
(978.491 0.142024 2.07351e-14)
(978.491 0.142032 2.04659e-14)
(978.49 0.14221 2.13948e-14)
(978.489 0.142602 2.1612e-14)
(978.488 0.143303 1.95558e-14)
(978.487 0.144307 2.01519e-14)
(978.486 0.145586 2.39223e-14)
(978.485 0.147105 2.2521e-14)
(978.483 0.148835 1.99147e-14)
(978.482 0.150752 2.188e-14)
(978.48 0.152831 2.13561e-14)
(978.479 0.155058 2.0327e-14)
(978.477 0.157419 2.18179e-14)
(978.475 0.159905 2.05304e-14)
(978.474 0.162502 1.89962e-14)
(978.472 0.1652 1.97983e-14)
(978.492 0.0969044 3.85176e-14)
(978.483 0.107817 3.94295e-14)
(978.474 0.119732 3.86014e-14)
(978.463 0.132662 3.77652e-14)
(978.452 0.146595 3.88187e-14)
(978.44 0.161508 3.61648e-14)
(978.427 0.177376 3.66887e-14)
(978.414 0.194196 3.9561e-14)
(978.4 0.211994 4.01682e-14)
(978.385 0.230831 3.87578e-14)
(978.37 0.250785 3.58905e-14)
(978.354 0.27193 3.57722e-14)
(978.337 0.294321 3.6639e-14)
(978.32 0.318 3.41587e-14)
(978.302 0.342995 3.50785e-14)
(978.283 0.369314 3.73704e-14)
(978.263 0.396915 3.55617e-14)
(978.243 0.425692 3.73558e-14)
(978.223 0.455488 3.59973e-14)
(978.202 0.486133 3.4165e-14)
(978.181 0.517463 3.38941e-14)
(978.16 0.549338 3.38541e-14)
(978.139 0.581636 3.63078e-14)
(978.118 0.614249 3.78202e-14)
(978.097 0.647076 3.4189e-14)
(978.077 0.680022 3.31359e-14)
(978.056 0.712973 3.32226e-14)
(978.037 0.745787 2.95455e-14)
(978.018 0.778286 3.01167e-14)
(977.999 0.810272 3.25464e-14)
(977.982 0.841551 3.24904e-14)
(977.965 0.871951 3.25822e-14)
(977.95 0.90132 3.28134e-14)
(977.935 0.929516 3.2647e-14)
(977.922 0.956396 3.34335e-14)
(977.91 0.981809 3.30518e-14)
(977.9 1.00561 3.4852e-14)
(977.89 1.02767 3.43396e-14)
(977.883 1.04784 2.93614e-14)
(977.877 1.066 3.03164e-14)
(977.872 1.08204 3.33691e-14)
(977.869 1.09587 3.33326e-14)
(977.867 1.10741 3.13459e-14)
(977.867 1.11652 3.06171e-14)
(977.869 1.12326 3.28816e-14)
(977.873 1.12756 3.24577e-14)
(977.878 1.12882 3.19837e-14)
(977.883 1.12741 3.10025e-14)
(977.89 1.12473 3.02005e-14)
(977.899 1.1195 3.09664e-14)
(977.909 1.11184 2.95068e-14)
(977.92 1.1019 2.81348e-14)
(977.933 1.08979 2.89114e-14)
(977.946 1.07563 3.24489e-14)
(977.96 1.0595 3.17982e-14)
(977.975 1.04154 3.03471e-14)
(977.991 1.02192 3.06839e-14)
(978.007 1.00078 3.14878e-14)
(978.024 0.978254 3.07065e-14)
(978.041 0.954482 2.89717e-14)
(978.059 0.929604 2.93295e-14)
(978.076 0.903794 3.09949e-14)
(978.094 0.877243 2.89778e-14)
(978.111 0.850136 2.85247e-14)
(978.129 0.82265 2.95359e-14)
(978.146 0.794945 2.80987e-14)
(978.163 0.767182 2.52153e-14)
(978.179 0.739526 2.62224e-14)
(978.195 0.712146 2.62252e-14)
(978.21 0.685211 2.78048e-14)
(978.225 0.658879 2.7924e-14)
(978.239 0.633298 2.81009e-14)
(978.252 0.608603 3.02766e-14)
(978.265 0.584919 2.78984e-14)
(978.276 0.562352 2.62976e-14)
(978.287 0.540995 2.77629e-14)
(978.297 0.520921 2.72414e-14)
(978.305 0.502162 2.78839e-14)
(978.313 0.484755 2.84026e-14)
(978.32 0.468754 2.84942e-14)
(978.326 0.454138 2.99194e-14)
(978.332 0.440898 2.87099e-14)
(978.336 0.429075 2.64879e-14)
(978.339 0.418589 2.54211e-14)
(978.342 0.409474 2.79024e-14)
(978.344 0.401791 2.91373e-14)
(978.346 0.395305 2.82357e-14)
(978.346 0.390204 2.76577e-14)
(978.346 0.386443 2.93236e-14)
(978.345 0.383509 2.71818e-14)
(978.344 0.382122 2.78839e-14)
(978.342 0.382178 2.85355e-14)
(978.341 0.382671 2.65335e-14)
(978.338 0.383713 2.65837e-14)
(978.335 0.385621 2.65919e-14)
(978.332 0.388393 2.528e-14)
(978.329 0.39193 2.63424e-14)
(978.325 0.396136 2.71098e-14)
(978.321 0.400927 2.49077e-14)
(978.316 0.40624 2.63532e-14)
(978.312 0.412022 2.70216e-14)
(978.307 0.418219 2.49397e-14)
(978.303 0.424775 2.67447e-14)
(978.298 0.431628 2.81631e-14)
(978.293 0.438727 2.65975e-14)
(978.288 0.446038 2.57898e-14)
(978.283 0.453543 2.74424e-14)
(978.356 0.248828 4.66646e-14)
(978.334 0.275821 4.54377e-14)
(978.309 0.304952 4.5642e-14)
(978.284 0.33643 4.43728e-14)
(978.256 0.370505 4.55781e-14)
(978.227 0.407436 4.6422e-14)
(978.195 0.44743 4.87581e-14)
(978.162 0.490592 4.65714e-14)
(978.126 0.536904 4.67234e-14)
(978.089 0.586245 4.60406e-14)
(978.049 0.638459 4.32103e-14)
(978.008 0.693407 4.50649e-14)
(977.966 0.75098 4.43148e-14)
(977.922 0.811056 4.32868e-14)
(977.877 0.87346 4.5277e-14)
(977.83 0.937986 4.27948e-14)
(977.783 1.00447 4.10071e-14)
(977.735 1.07285 4.19561e-14)
(977.687 1.14313 4.17142e-14)
(977.638 1.21536 4.15236e-14)
(977.589 1.28948 4.12972e-14)
(977.539 1.36538 4.20074e-14)
(977.489 1.4428 4.40804e-14)
(977.439 1.52144 4.21779e-14)
(977.389 1.60093 3.75682e-14)
(977.339 1.68086 3.905e-14)
(977.291 1.76079 3.89796e-14)
(977.244 1.84034 3.86026e-14)
(977.198 1.91915 4.06002e-14)
(977.154 1.99688 4.02761e-14)
(977.112 2.07315 4.06422e-14)
(977.072 2.14753 4.06405e-14)
(977.035 2.21956 4.11249e-14)
(977.001 2.28874 4.03218e-14)
(976.969 2.35459 4.23339e-14)
(976.941 2.41665 4.10987e-14)
(976.916 2.47449 4.01518e-14)
(976.895 2.5277 3.85945e-14)
(976.877 2.57601 3.82412e-14)
(976.863 2.61918 3.98776e-14)
(976.853 2.65693 3.94276e-14)
(976.847 2.68904 3.90783e-14)
(976.845 2.71539 3.90927e-14)
(976.847 2.73585 3.79612e-14)
(976.852 2.7508 4.04386e-14)
(976.862 2.75985 3.92965e-14)
(976.877 2.76111 3.82025e-14)
(976.89 2.75631 3.76738e-14)
(976.907 2.74824 3.70667e-14)
(976.93 2.7339 3.87778e-14)
(976.956 2.71351 3.64552e-14)
(976.984 2.68749 3.44014e-14)
(977.016 2.65615 3.69929e-14)
(977.049 2.61983 3.95227e-14)
(977.084 2.57887 4.11581e-14)
(977.122 2.5336 3.96904e-14)
(977.161 2.48434 3.74362e-14)
(977.201 2.43146 3.38668e-14)
(977.242 2.37545 3.44133e-14)
(977.283 2.3168 3.58395e-14)
(977.326 2.256 3.60259e-14)
(977.368 2.19344 3.4892e-14)
(977.41 2.12948 3.60887e-14)
(977.452 2.06449 3.76394e-14)
(977.493 1.99886 3.32473e-14)
(977.533 1.93301 3.45309e-14)
(977.573 1.86735 3.97684e-14)
(977.611 1.80223 3.44945e-14)
(977.648 1.73798 3.10397e-14)
(977.684 1.67489 3.53712e-14)
(977.718 1.61322 3.47153e-14)
(977.75 1.55326 3.24354e-14)
(977.781 1.49526 3.38698e-14)
(977.809 1.43947 3.47532e-14)
(977.836 1.38612 3.44283e-14)
(977.86 1.33544 3.41065e-14)
(977.883 1.28761 3.42982e-14)
(977.903 1.24289 3.50232e-14)
(977.921 1.20147 3.44693e-14)
(977.937 1.16336 3.17554e-14)
(977.951 1.12873 3.1521e-14)
(977.962 1.09781 3.42162e-14)
(977.972 1.07042 3.52697e-14)
(977.979 1.04663 3.37155e-14)
(977.984 1.02658 3.28858e-14)
(977.987 1.00956 3.24396e-14)
(977.989 0.996086 3.30187e-14)
(977.988 0.98617 3.40629e-14)
(977.986 0.978231 3.46398e-14)
(977.983 0.974176 3.27639e-14)
(977.977 0.973942 3.3131e-14)
(977.974 0.975098 3.18605e-14)
(977.967 0.977775 3.20929e-14)
(977.96 0.982745 3.39918e-14)
(977.951 0.990034 3.27661e-14)
(977.941 0.999467 3.07265e-14)
(977.931 1.01084 3.14097e-14)
(977.919 1.02395 3.26157e-14)
(977.908 1.03863 3.0775e-14)
(977.895 1.05469 3.16058e-14)
(977.882 1.07198 3.35428e-14)
(977.869 1.09035 3.26566e-14)
(977.856 1.10974 3.36425e-14)
(977.842 1.1301 3.24804e-14)
(977.827 1.1514 3.04938e-14)
(977.812 1.17359 3.09758e-14)
(977.797 1.19658 3.37287e-14)
(978.169 0.448297 5.38635e-14)
(978.125 0.500573 5.40533e-14)
(978.076 0.558178 5.43281e-14)
(978.024 0.62145 5.09479e-14)
(977.967 0.690592 5.16629e-14)
(977.906 0.765682 5.17609e-14)
(977.841 0.846665 5.31757e-14)
(977.772 0.933374 5.51999e-14)
(977.699 1.0256 5.40823e-14)
(977.622 1.12322 5.3791e-14)
(977.542 1.22628 5.06807e-14)
(977.458 1.33506 5.29772e-14)
(977.37 1.45002 5.512e-14)
(977.279 1.57166 5.16229e-14)
(977.183 1.70036 5.07225e-14)
(977.083 1.83629 5.08788e-14)
(976.979 1.97955 5.09262e-14)
(976.871 2.13025 5.14721e-14)
(976.76 2.28843 5.04258e-14)
(976.645 2.45377 5.00486e-14)
(976.527 2.62546 4.91744e-14)
(976.408 2.80237 4.92565e-14)
(976.287 2.98332 4.86503e-14)
(976.166 3.16727 4.73436e-14)
(976.046 3.35339 4.82607e-14)
(975.927 3.54093 5.0561e-14)
(975.808 3.72924 4.99096e-14)
(975.692 3.91771 4.90693e-14)
(975.578 4.1058 4.93661e-14)
(975.466 4.29289 4.82002e-14)
(975.358 4.47825 4.75849e-14)
(975.254 4.66101 4.75211e-14)
(975.154 4.84018 4.9661e-14)
(975.06 5.01475 5.03728e-14)
(974.971 5.18373 4.86125e-14)
(974.889 5.34621 4.63249e-14)
(974.814 5.50128 4.47129e-14)
(974.746 5.64806 4.61968e-14)
(974.686 5.78575 4.64396e-14)
(974.634 5.9136 4.65345e-14)
(974.59 6.03095 4.69676e-14)
(974.555 6.13697 4.7022e-14)
(974.528 6.23097 4.53412e-14)
(974.51 6.31263 4.58441e-14)
(974.501 6.38177 4.72462e-14)
(974.501 6.43751 4.73423e-14)
(974.509 6.47904 4.62635e-14)
(974.527 6.50803 4.6921e-14)
(974.555 6.52256 4.78002e-14)
(974.592 6.51805 4.65126e-14)
(974.624 6.50497 4.43131e-14)
(974.669 6.48148 4.41638e-14)
(974.724 6.44412 4.44086e-14)
(974.787 6.39356 4.39783e-14)
(974.855 6.33061 4.53907e-14)
(974.929 6.25596 4.16874e-14)
(975.007 6.17015 4.13241e-14)
(975.09 6.07372 4.59162e-14)
(975.177 5.96746 4.45902e-14)
(975.267 5.85233 4.13376e-14)
(975.36 5.72925 4.2147e-14)
(975.455 5.59893 4.3356e-14)
(975.552 5.46206 4.05845e-14)
(975.649 5.31947 4.17399e-14)
(975.747 5.17221 4.15529e-14)
(975.845 5.02143 4.13324e-14)
(975.942 4.86826 4.62431e-14)
(976.038 4.71368 4.29567e-14)
(976.132 4.55864 4.28046e-14)
(976.223 4.40402 4.39425e-14)
(976.312 4.25077 4.14308e-14)
(976.398 4.09985 4.05623e-14)
(976.479 3.9522 3.95756e-14)
(976.557 3.80867 4.04847e-14)
(976.63 3.67001 4.17995e-14)
(976.699 3.53689 4.09195e-14)
(976.763 3.4099 4.09801e-14)
(976.821 3.28958 4.13666e-14)
(976.874 3.17633 3.97132e-14)
(976.923 3.0705 4.0448e-14)
(976.965 2.97228 3.97023e-14)
(977.003 2.88177 3.98237e-14)
(977.035 2.79944 3.83335e-14)
(977.062 2.72546 3.7806e-14)
(977.084 2.65915 4.10634e-14)
(977.101 2.60114 3.98607e-14)
(977.113 2.55191 4.05817e-14)
(977.12 2.51 3.86978e-14)
(977.123 2.47697 3.69097e-14)
(977.121 2.45299 3.70468e-14)
(977.116 2.43403 3.76818e-14)
(977.106 2.42473 3.94874e-14)
(977.091 2.42586 3.81323e-14)
(977.08 2.42964 3.66047e-14)
(977.064 2.43751 3.82853e-14)
(977.043 2.45161 4.03758e-14)
(977.019 2.47174 3.92216e-14)
(976.993 2.49732 4.04305e-14)
(976.965 2.52779 3.83246e-14)
(976.935 2.56257 3.73373e-14)
(976.904 2.6012 3.70105e-14)
(976.871 2.6433 3.73081e-14)
(976.837 2.68861 3.92716e-14)
(976.802 2.7369 3.75706e-14)
(976.766 2.7879 3.99338e-14)
(976.729 2.84124 3.84338e-14)
(976.691 2.8965 3.84848e-14)
(976.652 2.95335 3.70538e-14)
(976.613 3.01159 3.52926e-14)
(976.573 3.07118 3.77007e-14)
(977.567 1.11584 6.02629e-14)
(977.459 1.24482 6.19324e-14)
(977.342 1.38395 6.17583e-14)
(977.218 1.5338 5.97455e-14)
(977.085 1.69522 6.17612e-14)
(976.944 1.8693 6.20231e-14)
(976.792 2.05743 6.17491e-14)
(976.631 2.26116 6.02723e-14)
(976.458 2.48187 6.24789e-14)
(976.274 2.72031 6.15835e-14)
(976.078 2.97634 6.00732e-14)
(975.873 3.24905 6.27972e-14)
(975.658 3.53716 6.24397e-14)
(975.435 3.83948 5.94363e-14)
(975.204 4.15518 5.699e-14)
(974.966 4.48387 5.92315e-14)
(974.72 4.82511 6.23016e-14)
(974.469 5.17799 6.13776e-14)
(974.213 5.54122 5.93841e-14)
(973.954 5.91372 5.67235e-14)
(973.693 6.29506 5.77288e-14)
(973.43 6.68523 5.74596e-14)
(973.167 7.08411 5.94518e-14)
(972.903 7.49102 5.96242e-14)
(972.639 7.90469 5.70737e-14)
(972.377 8.32343 5.68357e-14)
(972.117 8.74538 5.88254e-14)
(971.86 9.16844 5.89842e-14)
(971.609 9.59035 5.63891e-14)
(971.365 10.0089 5.23311e-14)
(971.129 10.4221 5.22496e-14)
(970.902 10.8283 5.65826e-14)
(970.687 11.2256 5.61995e-14)
(970.483 11.612 5.21623e-14)
(970.292 11.9857 5.31094e-14)
(970.116 12.3446 5.4835e-14)
(969.956 12.6866 5.38208e-14)
(969.812 13.0097 5.3397e-14)
(969.687 13.3115 5.29079e-14)
(969.58 13.5896 5.49175e-14)
(969.493 13.8418 5.39733e-14)
(969.425 14.0672 5.29566e-14)
(969.377 14.2651 5.24153e-14)
(969.349 14.4337 5.35132e-14)
(969.341 14.5723 5.31124e-14)
(969.353 14.6801 5.2702e-14)
(969.383 14.7592 5.46189e-14)
(969.435 14.8111 5.38995e-14)
(969.512 14.8258 5.14176e-14)
(969.592 14.7993 5.1468e-14)
(969.675 14.7608 5.12178e-14)
(969.788 14.6935 5.19387e-14)
(969.92 14.5959 4.97416e-14)
(970.067 14.4696 5.20423e-14)
(970.226 14.316 5.15777e-14)
(970.397 14.1365 4.92116e-14)
(970.579 13.9329 5.07498e-14)
(970.769 13.7077 4.94244e-14)
(970.966 13.4625 5.12878e-14)
(971.17 13.1989 5.1514e-14)
(971.378 12.9187 4.98606e-14)
(971.59 12.6243 5.0265e-14)
(971.804 12.3183 4.88887e-14)
(972.019 12.003 4.82534e-14)
(972.233 11.6801 4.58596e-14)
(972.445 11.3511 5.01463e-14)
(972.655 11.0177 5.07182e-14)
(972.862 10.6819 4.6704e-14)
(973.064 10.3455 4.98695e-14)
(973.26 10.0107 5.1142e-14)
(973.45 9.67905 4.8131e-14)
(973.632 9.35229 4.66215e-14)
(973.807 9.03193 4.71704e-14)
(973.973 8.71958 4.96014e-14)
(974.129 8.41689 4.64742e-14)
(974.276 8.12545 4.63675e-14)
(974.411 7.8467 4.77814e-14)
(974.536 7.582 4.67313e-14)
(974.649 7.33269 4.6077e-14)
(974.751 7.09998 4.58198e-14)
(974.84 6.88503 4.46478e-14)
(974.917 6.68896 4.52708e-14)
(974.981 6.51166 4.69745e-14)
(975.034 6.35299 4.59339e-14)
(975.074 6.21567 4.70751e-14)
(975.101 6.09933 4.76773e-14)
(975.118 6.00026 4.63778e-14)
(975.123 5.9227 4.26982e-14)
(975.117 5.86492 4.3614e-14)
(975.103 5.8198 4.39601e-14)
(975.075 5.79902 4.51216e-14)
(975.041 5.79989 4.46624e-14)
(975.014 5.80844 4.52188e-14)
(974.97 5.82826 4.36185e-14)
(974.917 5.86255 4.42978e-14)
(974.858 5.91148 4.39426e-14)
(974.793 5.97407 4.4532e-14)
(974.723 6.04901 4.40351e-14)
(974.649 6.1353 4.21714e-14)
(974.57 6.23216 4.46384e-14)
(974.487 6.3388 4.45319e-14)
(974.4 6.45426 4.35669e-14)
(974.31 6.5775 4.24945e-14)
(974.217 6.70755 4.16515e-14)
(974.122 6.84385 4.36542e-14)
(974.025 6.98626 4.2432e-14)
(973.924 7.13491 4.36528e-14)
(973.821 7.28986 4.31508e-14)
(973.715 7.45084 4.2891e-14)
(973.606 7.6173 4.09151e-14)
(976.155 2.6829 7.08509e-14)
(975.899 2.99093 7.01411e-14)
(975.621 3.32928 6.94599e-14)
(975.322 3.69842 7.06096e-14)
(975.001 4.09832 7.14754e-14)
(974.658 4.52871 6.93388e-14)
(974.294 4.98885 6.87186e-14)
(973.909 5.47742 7.08007e-14)
(973.506 5.99313 7.22308e-14)
(973.087 6.53551 7.10632e-14)
(972.65 7.10531 7.0263e-14)
(972.198 7.70429 6.922e-14)
(971.729 8.33464 6.96292e-14)
(971.242 8.99815 6.79164e-14)
(970.736 9.69549 6.83334e-14)
(970.211 10.4261 6.92511e-14)
(969.669 11.1893 6.92423e-14)
(969.111 11.9854 6.88273e-14)
(968.537 12.8155 6.73509e-14)
(967.95 13.6781 6.75414e-14)
(967.355 14.5678 6.95663e-14)
(966.757 15.4771 6.63475e-14)
(966.163 16.3985 6.68351e-14)
(965.574 17.326 6.60466e-14)
(964.995 18.2548 6.60161e-14)
(964.428 19.1808 6.56864e-14)
(963.874 20.1001 6.34408e-14)
(963.337 21.0095 6.40157e-14)
(962.817 21.9066 6.60406e-14)
(962.317 22.7887 6.08894e-14)
(961.839 23.6522 6.18034e-14)
(961.385 24.4935 6.22698e-14)
(960.957 25.309 6.31368e-14)
(960.558 26.0953 6.3719e-14)
(960.19 26.8491 6.24681e-14)
(959.855 27.5672 6.21674e-14)
(959.554 28.2462 6.16928e-14)
(959.29 28.882 6.11297e-14)
(959.065 29.4716 6.05725e-14)
(958.879 30.0118 6.13881e-14)
(958.733 30.4995 6.21941e-14)
(958.628 30.9306 6.06748e-14)
(958.565 31.3011 6.02772e-14)
(958.54 31.6137 5.79023e-14)
(958.554 31.8693 5.64913e-14)
(958.608 32.059 5.87461e-14)
(958.704 32.1885 6.01514e-14)
(958.848 32.2549 5.70625e-14)
(959.04 32.2371 5.73176e-14)
(959.197 32.1678 5.95985e-14)
(959.408 32.0622 6.04405e-14)
(959.666 31.8966 5.95868e-14)
(959.958 31.6715 5.67278e-14)
(960.278 31.3887 5.76632e-14)
(960.623 31.0516 5.84379e-14)
(960.989 30.6643 5.74417e-14)
(961.375 30.229 5.59256e-14)
(961.778 29.7475 5.55573e-14)
(962.196 29.2234 5.55861e-14)
(962.626 28.6618 5.89154e-14)
(963.065 28.0671 5.60865e-14)
(963.51 27.4423 5.50622e-14)
(963.961 26.7903 5.56125e-14)
(964.414 26.1153 5.50306e-14)
(964.866 25.4223 5.36668e-14)
(965.316 24.7163 5.55613e-14)
(965.759 24.002 5.48707e-14)
(966.195 23.2839 5.48019e-14)
(966.619 22.5667 5.50294e-14)
(967.03 21.8549 5.31316e-14)
(967.426 21.1529 5.49776e-14)
(967.804 20.4653 5.48583e-14)
(968.163 19.7959 5.34611e-14)
(968.5 19.1481 5.59215e-14)
(968.815 18.5248 5.02621e-14)
(969.107 17.9288 5.02894e-14)
(969.374 17.3629 5.32386e-14)
(969.616 16.8296 5.13725e-14)
(969.832 16.331 5.16219e-14)
(970.021 15.8688 5.33733e-14)
(970.185 15.4444 5.10246e-14)
(970.322 15.0585 5.22745e-14)
(970.433 14.7135 5.34887e-14)
(970.516 14.413 5.51931e-14)
(970.573 14.152 5.17331e-14)
(970.607 13.9284 5.14809e-14)
(970.613 13.7565 5.12201e-14)
(970.593 13.6283 5.48573e-14)
(970.557 13.5307 5.37113e-14)
(970.481 13.4932 5.16047e-14)
(970.395 13.5069 5.16376e-14)
(970.325 13.5323 5.24469e-14)
(970.215 13.5878 5.13715e-14)
(970.082 13.6808 4.98467e-14)