/*--------------------------------*- C++ -*----------------------------------*\
| =========                 |                                                 |
| \\      /  F ield         | OpenFOAM: The Open Source CFD Toolbox           |
|  \\    /   O peration     | Version:  v1706                                 |
|   \\  /    A nd           | Web:      www.OpenFOAM.com                      |
|    \\/     M anipulation  |                                                 |
\*---------------------------------------------------------------------------*/
FoamFile
{
    version     2.0;
    format      ascii;
    class       volScalarField;
    location    "1.1e-05";
    object      alpha;
}
// * * * * * * * * * * * * * * * * * * * * * * * * * * * * * * * * * * * * * //

dimensions      [1 -1 -1 0 0 0 0];


internalField   nonuniform List<scalar> 
30104
(
1.40622e-05
1.40619e-05
1.40615e-05
1.4061e-05
1.40606e-05
1.40602e-05
1.40598e-05
1.40594e-05
1.4059e-05
1.40586e-05
1.40582e-05
1.40578e-05
1.40574e-05
1.4057e-05
1.40566e-05
1.40563e-05
1.4056e-05
1.40578e-05
1.40579e-05
1.4058e-05
1.40581e-05
1.40581e-05
1.40582e-05
1.40583e-05
1.40584e-05
1.40584e-05
1.40585e-05
1.40586e-05
1.40587e-05
1.40588e-05
1.40588e-05
1.40589e-05
1.4059e-05
1.40591e-05
1.40592e-05
1.40593e-05
1.40594e-05
1.40594e-05
1.40595e-05
1.40596e-05
1.40597e-05
1.40598e-05
1.40599e-05
1.406e-05
1.40601e-05
1.40602e-05
1.40603e-05
1.40604e-05
1.40605e-05
1.40606e-05
1.40607e-05
1.40608e-05
1.40609e-05
1.4061e-05
1.40611e-05
1.40612e-05
1.40613e-05
1.40614e-05
1.40615e-05
1.40616e-05
1.40618e-05
1.40619e-05
1.4062e-05
1.40621e-05
1.40622e-05
1.40623e-05
1.40625e-05
1.40626e-05
1.40627e-05
1.40628e-05
1.40629e-05
1.40631e-05
1.40632e-05
1.40633e-05
1.40634e-05
1.40636e-05
1.40637e-05
1.40638e-05
1.4064e-05
1.40641e-05
1.40642e-05
1.40643e-05
1.40645e-05
1.40646e-05
1.40647e-05
1.40649e-05
1.4065e-05
1.40651e-05
1.40652e-05
1.40654e-05
1.40655e-05
1.40656e-05
1.40658e-05
1.40659e-05
1.40661e-05
1.40662e-05
1.40663e-05
1.40665e-05
1.40666e-05
1.40667e-05
1.40669e-05
1.4067e-05
1.40672e-05
1.40673e-05
1.40675e-05
1.40676e-05
1.40678e-05
1.40679e-05
1.40681e-05
1.40683e-05
1.40684e-05
1.40686e-05
1.40688e-05
1.40689e-05
1.40691e-05
1.40693e-05
1.40695e-05
1.40697e-05
1.40698e-05
1.407e-05
1.40702e-05
1.40704e-05
1.40706e-05
1.40708e-05
1.4071e-05
1.40713e-05
1.40715e-05
1.40717e-05
1.40719e-05
1.40722e-05
1.40724e-05
1.40726e-05
1.40729e-05
1.40731e-05
1.40734e-05
1.40736e-05
1.40739e-05
1.40741e-05
1.40744e-05
1.40746e-05
1.40749e-05
1.40752e-05
1.40754e-05
1.40757e-05
1.4076e-05
1.40762e-05
1.40765e-05
1.40768e-05
1.40771e-05
1.40773e-05
1.40776e-05
1.40779e-05
1.40781e-05
1.40784e-05
1.40787e-05
1.4079e-05
1.40792e-05
1.40795e-05
1.40798e-05
1.408e-05
1.40803e-05
1.40806e-05
1.40809e-05
1.40811e-05
1.40814e-05
1.40817e-05
1.40819e-05
1.40822e-05
1.40825e-05
1.40828e-05
1.4083e-05
1.40833e-05
1.40836e-05
1.40839e-05
1.40842e-05
1.40845e-05
1.40848e-05
1.40851e-05
1.40854e-05
1.40857e-05
1.4086e-05
1.40863e-05
1.40867e-05
1.4087e-05
1.40874e-05
1.40877e-05
1.40881e-05
1.40884e-05
1.40888e-05
1.40892e-05
1.40896e-05
1.409e-05
1.40904e-05
1.40909e-05
1.40913e-05
1.40918e-05
1.40922e-05
1.40927e-05
1.40932e-05
1.40937e-05
1.40942e-05
1.40948e-05
1.40953e-05
1.40959e-05
1.40965e-05
1.40971e-05
1.40977e-05
1.40982e-05
1.40979e-05
1.40915e-05
1.41297e-05
1.41276e-05
1.41254e-05
1.41232e-05
1.41209e-05
1.41186e-05
1.41163e-05
1.4114e-05
1.41117e-05
1.41095e-05
1.41073e-05
1.41051e-05
1.41029e-05
1.41008e-05
1.40988e-05
1.40969e-05
1.4095e-05
1.41136e-05
1.41141e-05
1.41147e-05
1.41153e-05
1.41159e-05
1.41165e-05
1.41171e-05
1.41177e-05
1.41183e-05
1.41189e-05
1.41195e-05
1.41201e-05
1.41207e-05
1.41213e-05
1.4122e-05
1.41226e-05
1.41233e-05
1.41239e-05
1.41246e-05
1.41252e-05
1.41259e-05
1.41265e-05
1.41272e-05
1.41279e-05
1.41286e-05
1.41293e-05
1.413e-05
1.41307e-05
1.41314e-05
1.41322e-05
1.41329e-05
1.41337e-05
1.41344e-05
1.41352e-05
1.4136e-05
1.41368e-05
1.41376e-05
1.41384e-05
1.41392e-05
1.414e-05
1.41409e-05
1.41417e-05
1.41426e-05
1.41435e-05
1.41444e-05
1.41453e-05
1.41462e-05
1.41471e-05
1.4148e-05
1.4149e-05
1.41499e-05
1.41509e-05
1.41519e-05
1.41529e-05
1.41539e-05
1.41549e-05
1.4156e-05
1.4157e-05
1.41581e-05
1.41591e-05
1.41602e-05
1.41613e-05
1.41624e-05
1.41635e-05
1.41646e-05
1.41657e-05
1.41669e-05
1.4168e-05
1.41692e-05
1.41704e-05
1.41715e-05
1.41727e-05
1.41739e-05
1.41751e-05
1.41763e-05
1.41776e-05
1.41788e-05
1.418e-05
1.41813e-05
1.41826e-05
1.41838e-05
1.41851e-05
1.41864e-05
1.41878e-05
1.41891e-05
1.41904e-05
1.41918e-05
1.41932e-05
1.41946e-05
1.4196e-05
1.41974e-05
1.41989e-05
1.42003e-05
1.42018e-05
1.42033e-05
1.42049e-05
1.42064e-05
1.4208e-05
1.42097e-05
1.42113e-05
1.4213e-05
1.42147e-05
1.42164e-05
1.42182e-05
1.422e-05
1.42218e-05
1.42237e-05
1.42256e-05
1.42276e-05
1.42295e-05
1.42316e-05
1.42336e-05
1.42357e-05
1.42378e-05
1.424e-05
1.42422e-05
1.42444e-05
1.42467e-05
1.4249e-05
1.42514e-05
1.42537e-05
1.42561e-05
1.42586e-05
1.4261e-05
1.42635e-05
1.42661e-05
1.42686e-05
1.42712e-05
1.42738e-05
1.42764e-05
1.4279e-05
1.42817e-05
1.42843e-05
1.4287e-05
1.42897e-05
1.42923e-05
1.4295e-05
1.42977e-05
1.43004e-05
1.43031e-05
1.43058e-05
1.43085e-05
1.43112e-05
1.43139e-05
1.43166e-05
1.43193e-05
1.4322e-05
1.43247e-05
1.43275e-05
1.43302e-05
1.43329e-05
1.43357e-05
1.43385e-05
1.43413e-05
1.43441e-05
1.43469e-05
1.43497e-05
1.43526e-05
1.43555e-05
1.43584e-05
1.43614e-05
1.43644e-05
1.43674e-05
1.43705e-05
1.43736e-05
1.43767e-05
1.43799e-05
1.43831e-05
1.43864e-05
1.43898e-05
1.43932e-05
1.43967e-05
1.44002e-05
1.44038e-05
1.44075e-05
1.44113e-05
1.44152e-05
1.44191e-05
1.44232e-05
1.44273e-05
1.44316e-05
1.44359e-05
1.44404e-05
1.4445e-05
1.44497e-05
1.44545e-05
1.44595e-05
1.44646e-05
1.44698e-05
1.44752e-05
1.44808e-05
1.44822e-05
1.44541e-05
1.42886e-05
1.42826e-05
1.42763e-05
1.427e-05
1.42635e-05
1.42569e-05
1.42503e-05
1.42437e-05
1.42371e-05
1.42306e-05
1.42241e-05
1.42178e-05
1.42116e-05
1.42055e-05
1.41996e-05
1.4194e-05
1.42694e-05
1.42716e-05
1.42738e-05
1.4276e-05
1.42783e-05
1.42805e-05
1.42828e-05
1.42852e-05
1.42875e-05
1.42899e-05
1.42923e-05
1.42947e-05
1.42971e-05
1.42996e-05
1.43021e-05
1.43046e-05
1.43072e-05
1.43098e-05
1.43124e-05
1.4315e-05
1.43177e-05
1.43204e-05
1.43231e-05
1.43259e-05
1.43287e-05
1.43315e-05
1.43344e-05
1.43373e-05
1.43402e-05
1.43432e-05
1.43462e-05
1.43493e-05
1.43524e-05
1.43555e-05
1.43587e-05
1.4362e-05
1.43653e-05
1.43686e-05
1.4372e-05
1.43754e-05
1.43789e-05
1.43824e-05
1.4386e-05
1.43897e-05
1.43934e-05
1.43971e-05
1.44009e-05
1.44048e-05
1.44087e-05
1.44127e-05
1.44167e-05
1.44208e-05
1.44249e-05
1.44291e-05
1.44334e-05
1.44377e-05
1.44421e-05
1.44465e-05
1.4451e-05
1.44555e-05
1.44601e-05
1.44647e-05
1.44694e-05
1.44742e-05
1.4479e-05
1.44838e-05
1.44887e-05
1.44937e-05
1.44986e-05
1.45037e-05
1.45087e-05
1.45138e-05
1.4519e-05
1.45242e-05
1.45294e-05
1.45347e-05
1.45399e-05
1.45453e-05
1.45506e-05
1.4556e-05
1.45615e-05
1.45669e-05
1.45724e-05
1.4578e-05
1.45836e-05
1.45893e-05
1.4595e-05
1.46007e-05
1.46065e-05
1.46124e-05
1.46183e-05
1.46243e-05
1.46303e-05
1.46365e-05
1.46427e-05
1.4649e-05
1.46553e-05
1.46618e-05
1.46684e-05
1.46751e-05
1.46818e-05
1.46887e-05
1.46958e-05
1.47029e-05
1.47102e-05
1.47176e-05
1.47251e-05
1.47328e-05
1.47406e-05
1.47486e-05
1.47568e-05
1.47651e-05
1.47736e-05
1.47822e-05
1.47911e-05
1.48001e-05
1.48092e-05
1.48186e-05
1.48282e-05
1.48379e-05
1.48478e-05
1.48579e-05
1.48682e-05
1.48787e-05
1.48894e-05
1.49003e-05
1.49114e-05
1.49226e-05
1.4934e-05
1.49456e-05
1.49574e-05
1.49693e-05
1.49814e-05
1.49937e-05
1.5006e-05
1.50185e-05
1.50312e-05
1.50439e-05
1.50567e-05
1.50696e-05
1.50825e-05
1.50954e-05
1.51084e-05
1.51214e-05
1.51343e-05
1.51473e-05
1.51604e-05
1.51734e-05
1.51864e-05
1.51995e-05
1.52126e-05
1.52256e-05
1.52388e-05
1.52519e-05
1.5265e-05
1.52782e-05
1.52914e-05
1.53047e-05
1.53179e-05
1.53313e-05
1.53446e-05
1.53581e-05
1.53716e-05
1.53851e-05
1.53988e-05
1.54125e-05
1.54264e-05
1.54403e-05
1.54544e-05
1.54686e-05
1.5483e-05
1.54975e-05
1.55123e-05
1.55272e-05
1.55423e-05
1.55577e-05
1.55733e-05
1.55892e-05
1.56053e-05
1.56218e-05
1.56386e-05
1.56558e-05
1.56733e-05
1.56912e-05
1.57095e-05
1.57283e-05
1.57475e-05
1.57673e-05
1.57873e-05
1.58085e-05
1.5829e-05
1.5848e-05
1.57872e-05
1.46321e-05
1.46179e-05
1.46034e-05
1.45885e-05
1.45733e-05
1.4558e-05
1.45426e-05
1.45271e-05
1.45117e-05
1.44964e-05
1.44813e-05
1.44664e-05
1.44519e-05
1.44377e-05
1.44239e-05
1.44105e-05
1.46756e-05
1.46826e-05
1.46896e-05
1.46967e-05
1.47039e-05
1.47112e-05
1.47186e-05
1.47261e-05
1.47336e-05
1.47412e-05
1.47489e-05
1.47567e-05
1.47645e-05
1.47725e-05
1.47804e-05
1.47885e-05
1.47967e-05
1.48049e-05
1.48131e-05
1.48215e-05
1.48299e-05
1.48384e-05
1.4847e-05
1.48556e-05
1.48643e-05
1.48732e-05
1.4882e-05
1.4891e-05
1.49001e-05
1.49093e-05
1.49186e-05
1.4928e-05
1.49374e-05
1.49471e-05
1.49568e-05
1.49666e-05
1.49766e-05
1.49867e-05
1.49969e-05
1.50073e-05
1.50178e-05
1.50285e-05
1.50394e-05
1.50503e-05
1.50615e-05
1.50728e-05
1.50843e-05
1.5096e-05
1.51078e-05
1.51199e-05
1.51321e-05
1.51445e-05
1.51571e-05
1.517e-05
1.5183e-05
1.51962e-05
1.52096e-05
1.52232e-05
1.52371e-05
1.52511e-05
1.52654e-05
1.52798e-05
1.52945e-05
1.53094e-05
1.53245e-05
1.53398e-05
1.53553e-05
1.5371e-05
1.53869e-05
1.54031e-05
1.54194e-05
1.54359e-05
1.54526e-05
1.54695e-05
1.54865e-05
1.55037e-05
1.55211e-05
1.55386e-05
1.55562e-05
1.55739e-05
1.55917e-05
1.56096e-05
1.56276e-05
1.56457e-05
1.56639e-05
1.56823e-05
1.57007e-05
1.57192e-05
1.57378e-05
1.57565e-05
1.57753e-05
1.57943e-05
1.58133e-05
1.58325e-05
1.58519e-05
1.58714e-05
1.5891e-05
1.59108e-05
1.59309e-05
1.59511e-05
1.59715e-05
1.59921e-05
1.6013e-05
1.60341e-05
1.60554e-05
1.60771e-05
1.6099e-05
1.61213e-05
1.61439e-05
1.61668e-05
1.61902e-05
1.62138e-05
1.62379e-05
1.62625e-05
1.62874e-05
1.63128e-05
1.63387e-05
1.63651e-05
1.6392e-05
1.64194e-05
1.64473e-05
1.64758e-05
1.65048e-05
1.65344e-05
1.65646e-05
1.65953e-05
1.66267e-05
1.66586e-05
1.66912e-05
1.67243e-05
1.6758e-05
1.67923e-05
1.68272e-05
1.68627e-05
1.68987e-05
1.69353e-05
1.69725e-05
1.70102e-05
1.70485e-05
1.70873e-05
1.71267e-05
1.71662e-05
1.72055e-05
1.72447e-05
1.72838e-05
1.73227e-05
1.73615e-05
1.74001e-05
1.74385e-05
1.74768e-05
1.75149e-05
1.75529e-05
1.75906e-05
1.76282e-05
1.76657e-05
1.77029e-05
1.774e-05
1.77769e-05
1.78136e-05
1.78501e-05
1.78864e-05
1.79225e-05
1.79584e-05
1.7994e-05
1.80294e-05
1.80646e-05
1.80995e-05
1.81341e-05
1.81684e-05
1.82025e-05
1.82362e-05
1.82695e-05
1.83025e-05
1.83352e-05
1.83674e-05
1.83992e-05
1.84306e-05
1.84615e-05
1.84919e-05
1.8522e-05
1.85514e-05
1.85805e-05
1.86088e-05
1.86369e-05
1.86641e-05
1.86911e-05
1.87172e-05
1.87432e-05
1.8768e-05
1.8793e-05
1.8817e-05
1.88406e-05
1.87949e-05
1.5303e-05
1.52745e-05
1.52452e-05
1.52152e-05
1.51846e-05
1.51536e-05
1.51223e-05
1.50909e-05
1.50595e-05
1.50283e-05
1.49974e-05
1.49669e-05
1.4937e-05
1.49078e-05
1.48794e-05
1.55874e-05
1.56043e-05
1.56214e-05
1.56387e-05
1.56563e-05
1.5674e-05
1.5692e-05
1.57101e-05
1.57285e-05
1.57471e-05
1.57659e-05
1.57849e-05
1.58041e-05
1.58235e-05
1.58431e-05
1.58629e-05
1.58829e-05
1.59031e-05
1.59234e-05
1.5944e-05
1.59647e-05
1.59856e-05
1.60066e-05
1.60278e-05
1.60492e-05
1.60707e-05
1.60924e-05
1.61143e-05
1.61364e-05
1.61587e-05
1.61812e-05
1.62039e-05
1.62268e-05
1.62499e-05
1.62733e-05
1.62968e-05
1.63207e-05
1.63447e-05
1.6369e-05
1.63936e-05
1.64185e-05
1.64436e-05
1.6469e-05
1.64946e-05
1.65206e-05
1.65469e-05
1.65734e-05
1.66003e-05
1.66275e-05
1.66551e-05
1.66829e-05
1.67111e-05
1.67397e-05
1.67685e-05
1.67978e-05
1.68274e-05
1.68573e-05
1.68876e-05
1.69183e-05
1.69494e-05
1.69808e-05
1.70125e-05
1.70447e-05
1.70771e-05
1.711e-05
1.71432e-05
1.71767e-05
1.72106e-05
1.72448e-05
1.72793e-05
1.73141e-05
1.73493e-05
1.73847e-05
1.74204e-05
1.74564e-05
1.74926e-05
1.75291e-05
1.75659e-05
1.76027e-05
1.76393e-05
1.76757e-05
1.77119e-05
1.77479e-05
1.77836e-05
1.78191e-05
1.78543e-05
1.78891e-05
1.79237e-05
1.7958e-05
1.79919e-05
1.80256e-05
1.80589e-05
1.80919e-05
1.81246e-05
1.8157e-05
1.81891e-05
1.82208e-05
1.82523e-05
1.82834e-05
1.83142e-05
1.83447e-05
1.83748e-05
1.84047e-05
1.84342e-05
1.84634e-05
1.84923e-05
1.85208e-05
1.8549e-05
1.85769e-05
1.86044e-05
1.86316e-05
1.86584e-05
1.86848e-05
1.87109e-05
1.87366e-05
1.87619e-05
1.87868e-05
1.88113e-05
1.88354e-05
1.8859e-05
1.88822e-05
1.8905e-05
1.89274e-05
1.89493e-05
1.89708e-05
1.89918e-05
1.90124e-05
1.90326e-05
1.90524e-05
1.90717e-05
1.90906e-05
1.91091e-05
1.91272e-05
1.91449e-05
1.91621e-05
1.9179e-05
1.91954e-05
1.92114e-05
1.9227e-05
1.92422e-05
1.92569e-05
1.92712e-05
1.92853e-05
1.92991e-05
1.93126e-05
1.93258e-05
1.93388e-05
1.93514e-05
1.93638e-05
1.93758e-05
1.93875e-05
1.93988e-05
1.94097e-05
1.94202e-05
1.94303e-05
1.94399e-05
1.9449e-05
1.94577e-05
1.94658e-05
1.94734e-05
1.94806e-05
1.94872e-05
1.94933e-05
1.94989e-05
1.9504e-05
1.95086e-05
1.95127e-05
1.95164e-05
1.95197e-05
1.95225e-05
1.9525e-05
1.95271e-05
1.95289e-05
1.95303e-05
1.95316e-05
1.95325e-05
1.95334e-05
1.95339e-05
1.95346e-05
1.95348e-05
1.95353e-05
1.95355e-05
1.95359e-05
1.9536e-05
1.95365e-05
1.95368e-05
1.95376e-05
1.95381e-05
1.95392e-05
1.95399e-05
1.95418e-05
1.95421e-05
1.95206e-05
1.64319e-05
1.63876e-05
1.63417e-05
1.62945e-05
1.6246e-05
1.61966e-05
1.61464e-05
1.60956e-05
1.60445e-05
1.59932e-05
1.59419e-05
1.58909e-05
1.58404e-05
1.57905e-05
1.57416e-05
1.56937e-05
1.71872e-05
1.72178e-05
1.72487e-05
1.72798e-05
1.73113e-05
1.7343e-05
1.7375e-05
1.74072e-05
1.74397e-05
1.74725e-05
1.75055e-05
1.75386e-05
1.7572e-05
1.76056e-05
1.76393e-05
1.76732e-05
1.77071e-05
1.77412e-05
1.77754e-05
1.78096e-05
1.78439e-05
1.78782e-05
1.79122e-05
1.79459e-05
1.79794e-05
1.80127e-05
1.80456e-05
1.80783e-05
1.81106e-05
1.81427e-05
1.81744e-05
1.82057e-05
1.82367e-05
1.82674e-05
1.82976e-05
1.83275e-05
1.83571e-05
1.83862e-05
1.84149e-05
1.84433e-05
1.84713e-05
1.84988e-05
1.8526e-05
1.85527e-05
1.85791e-05
1.86051e-05
1.86306e-05
1.86558e-05
1.86806e-05
1.87049e-05
1.87289e-05
1.87525e-05
1.87757e-05
1.87985e-05
1.88209e-05
1.88429e-05
1.88645e-05
1.88857e-05
1.89066e-05
1.8927e-05
1.89471e-05
1.89668e-05
1.89861e-05
1.90051e-05
1.90236e-05
1.90418e-05
1.90597e-05
1.90772e-05
1.90943e-05
1.9111e-05
1.91274e-05
1.91435e-05
1.91592e-05
1.91746e-05
1.91896e-05
1.92043e-05
1.92187e-05
1.92327e-05
1.92464e-05
1.92598e-05
1.92731e-05
1.92861e-05
1.92989e-05
1.93115e-05
1.93239e-05
1.9336e-05
1.93479e-05
1.93596e-05
1.93711e-05
1.93824e-05
1.93934e-05
1.94043e-05
1.94148e-05
1.94252e-05
1.94353e-05
1.94451e-05
1.94547e-05
1.94641e-05
1.94731e-05
1.94818e-05
1.94903e-05
1.94985e-05
1.95063e-05
1.95138e-05
1.9521e-05
1.95279e-05
1.95345e-05
1.95407e-05
1.95466e-05
1.95522e-05
1.95575e-05
1.95624e-05
1.9567e-05
1.95713e-05
1.95754e-05
1.95791e-05
1.95827e-05
1.95859e-05
1.9589e-05
1.95919e-05
1.95946e-05
1.95971e-05
1.95995e-05
1.96018e-05
1.9604e-05
1.96061e-05
1.96081e-05
1.961e-05
1.96119e-05
1.96137e-05
1.96155e-05
1.96173e-05
1.9619e-05
1.96207e-05
1.96224e-05
1.96241e-05
1.96258e-05
1.96275e-05
1.96293e-05
1.9631e-05
1.96328e-05
1.96346e-05
1.96364e-05
1.96383e-05
1.96402e-05
1.96426e-05
1.96451e-05
1.96474e-05
1.96497e-05
1.96519e-05
1.9654e-05
1.96559e-05
1.96578e-05
1.96596e-05
1.96614e-05
1.9663e-05
1.96647e-05
1.96663e-05
1.96679e-05
1.96695e-05
1.96711e-05
1.96727e-05
1.96744e-05
1.96761e-05
1.9678e-05
1.96799e-05
1.96819e-05
1.96841e-05
1.96864e-05
1.96889e-05
1.96916e-05
1.96945e-05
1.96976e-05
1.9701e-05
1.97045e-05
1.9708e-05
1.97118e-05
1.97156e-05
1.97197e-05
1.97238e-05
1.97282e-05
1.97326e-05
1.97373e-05
1.9742e-05
1.9747e-05
1.97519e-05
1.97572e-05
1.97622e-05
1.97678e-05
1.97729e-05
1.9779e-05
1.97847e-05
1.97785e-05
1.78029e-05
1.77475e-05
1.76901e-05
1.7631e-05
1.75701e-05
1.75078e-05
1.74444e-05
1.738e-05
1.73149e-05
1.72494e-05
1.71836e-05
1.7118e-05
1.70528e-05
1.88805e-05
1.8901e-05
1.8921e-05
1.89405e-05
1.89597e-05
1.89784e-05
1.89967e-05
1.90145e-05
1.90319e-05
1.90489e-05
1.90655e-05
1.90817e-05
1.90975e-05
1.91128e-05
1.91277e-05
1.91423e-05
1.91565e-05
1.91702e-05
1.91836e-05
1.91966e-05
1.92093e-05
1.92216e-05
1.92337e-05
1.92455e-05
1.9257e-05
1.92684e-05
1.92795e-05
1.92904e-05
1.9301e-05
1.93115e-05
1.93218e-05
1.9332e-05
1.9342e-05
1.93518e-05
1.93615e-05
1.9371e-05
1.93804e-05
1.93897e-05
1.93988e-05
1.94078e-05
1.94167e-05
1.94254e-05
1.94341e-05
1.94426e-05
1.94509e-05
1.94591e-05
1.94672e-05
1.94751e-05
1.94829e-05
1.94905e-05
1.9498e-05
1.95053e-05
1.95124e-05
1.95194e-05
1.95262e-05
1.95328e-05
1.95392e-05
1.95454e-05
1.95515e-05
1.95574e-05
1.9563e-05
1.95685e-05
1.95738e-05
1.9579e-05
1.95839e-05
1.95887e-05
1.95933e-05
1.95977e-05
1.96019e-05
1.9606e-05
1.96099e-05
1.96137e-05
1.96173e-05
1.96207e-05
1.9624e-05
1.96272e-05
1.96302e-05
1.9633e-05
1.96358e-05
1.96384e-05
1.96408e-05
1.96432e-05
1.96454e-05
1.96475e-05
1.96495e-05
1.96514e-05
1.96532e-05
1.96549e-05
1.96566e-05
1.96582e-05
1.96597e-05
1.96613e-05
1.96628e-05
1.96643e-05
1.96658e-05
1.96673e-05
1.96688e-05
1.96703e-05
1.96718e-05
1.96734e-05
1.96749e-05
1.96765e-05
1.96781e-05
1.96796e-05
1.96813e-05
1.96831e-05
1.96849e-05
1.96866e-05
1.96883e-05
1.969e-05
1.96917e-05
1.96933e-05
1.9695e-05
1.96968e-05
1.96985e-05
1.97003e-05
1.97022e-05
1.97041e-05
1.97061e-05
1.97082e-05
1.97103e-05
1.97126e-05
1.97149e-05
1.97174e-05
1.97199e-05
1.97227e-05
1.97255e-05
1.97285e-05
1.97316e-05
1.97348e-05
1.97382e-05
1.97416e-05
1.97451e-05
1.97486e-05
1.97522e-05
1.97558e-05
1.97595e-05
1.97632e-05
1.9767e-05
1.97708e-05
1.97746e-05
1.97785e-05
1.97823e-05
1.97863e-05
1.97902e-05
1.97936e-05
1.97968e-05
1.97999e-05
1.98029e-05
1.98059e-05
1.98089e-05
1.98118e-05
1.98148e-05
1.98177e-05
1.98208e-05
1.98239e-05
1.9827e-05
1.98303e-05
1.98337e-05
1.98372e-05
1.98409e-05
1.98447e-05
1.98487e-05
1.98529e-05
1.98573e-05
1.98619e-05
1.98666e-05
1.98715e-05
1.98766e-05
1.98818e-05
1.98871e-05
1.98925e-05
1.98979e-05
1.99034e-05
1.9909e-05
1.9915e-05
1.99211e-05
1.99275e-05
1.9934e-05
1.99407e-05
1.99476e-05
1.99547e-05
1.99618e-05
1.99691e-05
1.99765e-05
1.9984e-05
1.99916e-05
1.99991e-05
2.00069e-05
2.00144e-05
2.0022e-05
2.00297e-05
2.00209e-05
1.88333e-05
1.87906e-05
1.87468e-05
1.87022e-05
1.86567e-05
1.86103e-05
1.85628e-05
1.85144e-05
1.84649e-05
1.84146e-05
1.83632e-05
1.83109e-05
1.82578e-05
1.9476e-05
1.94824e-05
1.94888e-05
1.94951e-05
1.95012e-05
1.95072e-05
1.95131e-05
1.95189e-05
1.95246e-05
1.95301e-05
1.95356e-05
1.95409e-05
1.95461e-05
1.95512e-05
1.95562e-05
1.95611e-05
1.95658e-05
1.95705e-05
1.95751e-05
1.95795e-05
1.95839e-05
1.95882e-05
1.95924e-05
1.95964e-05
1.96004e-05
1.96043e-05
1.96082e-05
1.96119e-05
1.96155e-05
1.9619e-05
1.96224e-05
1.96257e-05
1.96289e-05
1.9632e-05
1.9635e-05
1.96379e-05
1.96407e-05
1.96433e-05
1.96459e-05
1.96483e-05
1.96507e-05
1.96529e-05
1.96551e-05
1.96572e-05
1.96592e-05
1.96612e-05
1.96631e-05
1.96649e-05
1.96667e-05
1.96685e-05
1.96703e-05
1.96721e-05
1.96738e-05
1.96756e-05
1.96773e-05
1.96791e-05
1.96809e-05
1.96826e-05
1.96844e-05
1.96862e-05
1.9688e-05
1.96898e-05
1.96916e-05
1.96934e-05
1.96953e-05
1.96971e-05
1.9699e-05
1.97009e-05
1.97028e-05
1.97048e-05
1.97068e-05
1.97088e-05
1.97108e-05
1.97129e-05
1.9715e-05
1.97172e-05
1.97194e-05
1.97216e-05
1.97239e-05
1.97262e-05
1.97285e-05
1.97308e-05
1.97331e-05
1.97355e-05
1.97379e-05
1.97404e-05
1.9743e-05
1.97456e-05
1.97483e-05
1.9751e-05
1.97538e-05
1.97565e-05
1.97592e-05
1.97619e-05
1.97646e-05
1.97673e-05
1.977e-05
1.97727e-05
1.97754e-05
1.97781e-05
1.97808e-05
1.97835e-05
1.97862e-05
1.97889e-05
1.97915e-05
1.9794e-05
1.97965e-05
1.97991e-05
1.98017e-05
1.98044e-05
1.98072e-05
1.98101e-05
1.98131e-05
1.98162e-05
1.98195e-05
1.98229e-05
1.98264e-05
1.983e-05
1.98338e-05
1.98377e-05
1.98417e-05
1.98459e-05
1.98502e-05
1.98546e-05
1.9859e-05
1.98635e-05
1.9868e-05
1.98726e-05
1.98771e-05
1.98815e-05
1.98861e-05
1.98907e-05
1.98955e-05
1.99003e-05
1.99053e-05
1.99103e-05
1.99155e-05
1.99206e-05
1.99259e-05
1.99311e-05
1.99364e-05
1.99416e-05
1.99468e-05
1.9952e-05
1.99571e-05
1.99622e-05
1.99674e-05
1.99727e-05
1.99781e-05
1.99837e-05
1.99894e-05
1.99954e-05
2.00015e-05
2.00078e-05
2.00144e-05
2.00212e-05
2.00282e-05
2.00355e-05
2.0043e-05
2.00507e-05
2.00588e-05
2.0067e-05
2.00755e-05
2.00842e-05
2.00932e-05
2.01024e-05
2.01119e-05
2.01215e-05
2.01314e-05
2.01415e-05
2.01518e-05
2.01624e-05
2.01733e-05
2.01845e-05
2.01959e-05
2.02075e-05
2.02192e-05
2.02311e-05
2.02432e-05
2.02553e-05
2.02677e-05
2.02801e-05
2.02927e-05
2.03054e-05
2.03183e-05
2.03312e-05
2.03444e-05
2.03576e-05
2.03711e-05
2.03843e-05
2.03977e-05
2.04094e-05
2.03934e-05
1.92808e-05
1.92473e-05
1.92143e-05
1.91822e-05
1.91502e-05
1.91185e-05
1.90876e-05
1.90575e-05
1.90279e-05
1.89989e-05
1.89708e-05
1.89438e-05
1.89179e-05
1.8893e-05
1.96461e-05
1.96483e-05
1.96504e-05
1.96524e-05
1.96543e-05
1.96562e-05
1.96581e-05
1.96599e-05
1.96617e-05
1.96634e-05
1.96652e-05
1.96669e-05
1.96687e-05
1.96704e-05
1.96721e-05
1.96739e-05
1.96756e-05
1.96774e-05
1.96792e-05
1.9681e-05
1.96828e-05
1.96847e-05
1.96866e-05
1.96885e-05
1.96904e-05
1.96924e-05
1.96944e-05
1.96964e-05
1.96984e-05
1.97004e-05
1.97025e-05
1.97046e-05
1.97067e-05
1.97088e-05
1.9711e-05
1.97131e-05
1.97153e-05
1.97175e-05
1.97197e-05
1.97219e-05
1.97241e-05
1.97263e-05
1.97285e-05
1.97307e-05
1.9733e-05
1.97352e-05
1.97375e-05
1.97399e-05
1.97422e-05
1.97446e-05
1.9747e-05
1.97494e-05
1.97518e-05
1.97542e-05
1.97566e-05
1.9759e-05
1.97614e-05
1.97638e-05
1.97662e-05
1.97686e-05
1.97711e-05
1.97736e-05
1.97761e-05
1.97787e-05
1.97813e-05
1.97839e-05
1.97866e-05
1.97894e-05
1.97922e-05
1.97951e-05
1.9798e-05
1.98011e-05
1.98042e-05
1.98073e-05
1.98105e-05
1.98138e-05
1.98171e-05
1.98205e-05
1.98239e-05
1.98274e-05
1.98309e-05
1.98344e-05
1.9838e-05
1.98417e-05
1.98454e-05
1.9849e-05
1.98527e-05
1.98562e-05
1.98598e-05
1.98634e-05
1.98671e-05
1.98708e-05
1.98746e-05
1.98784e-05
1.98822e-05
1.98861e-05
1.989e-05
1.98939e-05
1.98979e-05
1.9902e-05
1.99061e-05
1.99102e-05
1.99144e-05
1.99187e-05
1.9923e-05
1.99275e-05
1.99321e-05
1.99369e-05
1.99419e-05
1.9947e-05
1.99523e-05
1.99578e-05
1.99635e-05
1.99693e-05
1.99753e-05
1.99815e-05
1.99879e-05
1.99944e-05
2.00011e-05
2.0008e-05
2.00149e-05
2.00221e-05
2.00293e-05
2.00366e-05
2.00441e-05
2.00517e-05
2.00594e-05
2.00672e-05
2.00753e-05
2.00835e-05
2.00919e-05
2.01004e-05
2.01091e-05
2.01178e-05
2.01266e-05
2.01355e-05
2.01445e-05
2.01536e-05
2.01628e-05
2.01721e-05
2.01815e-05
2.0191e-05
2.02007e-05
2.02105e-05
2.02206e-05
2.02309e-05
2.02415e-05
2.02523e-05
2.02635e-05
2.0275e-05
2.02867e-05
2.02988e-05
2.03112e-05
2.03239e-05
2.03369e-05
2.03502e-05
2.03638e-05
2.03778e-05
2.0392e-05
2.04066e-05
2.04214e-05
2.04365e-05
2.0452e-05
2.04677e-05
2.04837e-05
2.05e-05
2.05165e-05
2.05334e-05
2.05506e-05
2.0568e-05
2.05857e-05
2.06037e-05
2.06219e-05
2.06404e-05
2.0659e-05
2.06779e-05
2.0697e-05
2.07163e-05
2.07359e-05
2.07557e-05
2.07757e-05
2.07959e-05
2.08165e-05
2.08373e-05
2.08585e-05
2.088e-05
2.09019e-05
2.0924e-05
2.09464e-05
2.0968e-05
2.09898e-05
2.10021e-05
2.09715e-05
1.94148e-05
1.93866e-05
1.93605e-05
1.93343e-05
1.93085e-05
1.92851e-05
1.9263e-05
1.92413e-05
1.92202e-05
1.92003e-05
1.91815e-05
1.91637e-05
1.91471e-05
1.91322e-05
1.97074e-05
1.97094e-05
1.97114e-05
1.97134e-05
1.97154e-05
1.97174e-05
1.97195e-05
1.97215e-05
1.97236e-05
1.97257e-05
1.97279e-05
1.97301e-05
1.97324e-05
1.97347e-05
1.9737e-05
1.97393e-05
1.97417e-05
1.97442e-05
1.97466e-05
1.97491e-05
1.97516e-05
1.97541e-05
1.97566e-05
1.97592e-05
1.97618e-05
1.97644e-05
1.97671e-05
1.97697e-05
1.97724e-05
1.97752e-05
1.97779e-05
1.97807e-05
1.97835e-05
1.97864e-05
1.97892e-05
1.97921e-05
1.97951e-05
1.9798e-05
1.9801e-05
1.98039e-05
1.9807e-05
1.981e-05
1.98131e-05
1.98163e-05
1.98194e-05
1.98225e-05
1.98257e-05
1.98287e-05
1.98318e-05
1.98349e-05
1.9838e-05
1.98412e-05
1.98444e-05
1.98476e-05
1.98509e-05
1.98542e-05
1.98576e-05
1.9861e-05
1.98645e-05
1.98681e-05
1.98718e-05
1.98755e-05
1.98793e-05
1.98832e-05
1.98872e-05
1.98913e-05
1.98955e-05
1.98998e-05
1.99042e-05
1.99087e-05
1.99133e-05
1.9918e-05
1.99228e-05
1.99277e-05
1.99327e-05
1.99378e-05
1.99429e-05
1.99482e-05
1.99535e-05
1.9959e-05
1.99645e-05
1.99702e-05
1.99759e-05
1.99817e-05
1.99876e-05
1.99935e-05
1.99996e-05
2.00059e-05
2.00122e-05
2.00186e-05
2.0025e-05
2.00316e-05
2.00382e-05
2.0045e-05
2.00518e-05
2.00588e-05
2.00658e-05
2.0073e-05
2.00803e-05
2.00878e-05
2.00954e-05
2.01032e-05
2.01112e-05
2.01194e-05
2.01278e-05
2.01365e-05
2.01454e-05
2.01545e-05
2.01638e-05
2.01734e-05
2.01832e-05
2.01933e-05
2.02035e-05
2.0214e-05
2.02246e-05
2.02355e-05
2.02466e-05
2.02579e-05
2.02693e-05
2.0281e-05
2.02929e-05
2.03049e-05
2.03172e-05
2.03296e-05
2.03423e-05
2.03552e-05
2.03683e-05
2.03817e-05
2.03952e-05
2.0409e-05
2.04229e-05
2.0437e-05
2.04513e-05
2.04658e-05
2.04806e-05
2.04955e-05
2.05106e-05
2.0526e-05
2.05417e-05
2.05576e-05
2.05739e-05
2.05904e-05
2.06073e-05
2.06246e-05
2.06422e-05
2.06601e-05
2.06784e-05
2.06971e-05
2.07162e-05
2.07356e-05
2.07553e-05
2.07755e-05
2.07959e-05
2.08167e-05
2.08379e-05
2.08594e-05
2.08812e-05
2.09034e-05
2.09259e-05
2.09487e-05
2.09718e-05
2.09952e-05
2.1019e-05
2.1043e-05
2.10674e-05
2.1092e-05
2.1117e-05
2.11422e-05
2.11678e-05
2.11936e-05
2.12197e-05
2.12461e-05
2.12728e-05
2.12998e-05
2.13271e-05
2.13547e-05
2.13827e-05
2.1411e-05
2.14396e-05
2.14686e-05
2.1498e-05
2.15277e-05
2.15579e-05
2.15886e-05
2.16197e-05
2.16512e-05
2.16832e-05
2.17152e-05
2.17467e-05
2.17754e-05
2.18045e-05
2.18046e-05
2.17506e-05
1.94782e-05
1.94503e-05
1.94245e-05
1.93982e-05
1.93728e-05
1.93503e-05
1.93295e-05
1.93081e-05
1.92882e-05
1.92711e-05
1.92559e-05
1.92424e-05
1.92313e-05
1.92225e-05
1.97749e-05
1.97776e-05
1.97803e-05
1.97831e-05
1.97859e-05
1.97888e-05
1.97917e-05
1.97946e-05
1.97976e-05
1.98006e-05
1.98037e-05
1.98067e-05
1.98097e-05
1.98128e-05
1.98159e-05
1.9819e-05
1.98222e-05
1.98254e-05
1.98287e-05
1.9832e-05
1.98353e-05
1.98387e-05
1.98421e-05
1.98455e-05
1.9849e-05
1.98525e-05
1.98561e-05
1.98597e-05
1.98634e-05
1.98671e-05
1.98709e-05
1.98747e-05
1.98786e-05
1.98825e-05
1.98865e-05
1.98906e-05
1.98947e-05
1.98989e-05
1.99031e-05
1.99075e-05
1.99119e-05
1.99163e-05
1.99209e-05
1.99255e-05
1.99302e-05
1.99349e-05
1.99397e-05
1.99447e-05
1.99497e-05
1.99548e-05
1.996e-05
1.99653e-05
1.99706e-05
1.99761e-05
1.99816e-05
1.99873e-05
1.99931e-05
1.9999e-05
2.0005e-05
2.00112e-05
2.00175e-05
2.00239e-05
2.00305e-05
2.00372e-05
2.0044e-05
2.0051e-05
2.00582e-05
2.00655e-05
2.00729e-05
2.00805e-05
2.00882e-05
2.00961e-05
2.01041e-05
2.01123e-05
2.01206e-05
2.0129e-05
2.01376e-05
2.01464e-05
2.01553e-05
2.01643e-05
2.01735e-05
2.01829e-05
2.01924e-05
2.0202e-05
2.02119e-05
2.02219e-05
2.0232e-05
2.02423e-05
2.02528e-05
2.02635e-05
2.02743e-05
2.02853e-05
2.02964e-05
2.03078e-05
2.03194e-05
2.03311e-05
2.03432e-05
2.03554e-05
2.03679e-05
2.03807e-05
2.03937e-05
2.04071e-05
2.04207e-05
2.04346e-05
2.04488e-05
2.04632e-05
2.0478e-05
2.0493e-05
2.05083e-05
2.05238e-05
2.05396e-05
2.05557e-05
2.05721e-05
2.05886e-05
2.06055e-05
2.06226e-05
2.06399e-05
2.06575e-05
2.06754e-05
2.06935e-05
2.07119e-05
2.07306e-05
2.07495e-05
2.07687e-05
2.07881e-05
2.08079e-05
2.08278e-05
2.08481e-05
2.08686e-05
2.08894e-05
2.09105e-05
2.09319e-05
2.09536e-05
2.09756e-05
2.09979e-05
2.10205e-05
2.10436e-05
2.10669e-05
2.10907e-05
2.11148e-05
2.11393e-05
2.11641e-05
2.11894e-05
2.1215e-05
2.1241e-05
2.12673e-05
2.12941e-05
2.13211e-05
2.13485e-05
2.13763e-05
2.14044e-05
2.14328e-05
2.14616e-05
2.14907e-05
2.15201e-05
2.15498e-05
2.15798e-05
2.16101e-05
2.16407e-05
2.16716e-05
2.17028e-05
2.17342e-05
2.1766e-05
2.1798e-05
2.18304e-05
2.1863e-05
2.18959e-05
2.1929e-05
2.19625e-05
2.19962e-05
2.20302e-05
2.20645e-05
2.20991e-05
2.2134e-05
2.21692e-05
2.22048e-05
2.22406e-05
2.22767e-05
2.23131e-05
2.23499e-05
2.23869e-05
2.24242e-05
2.24619e-05
2.24998e-05
2.25382e-05
2.25766e-05
2.26149e-05
2.26518e-05
2.26861e-05
2.27141e-05
2.27332e-05
2.27193e-05
2.26278e-05
1.9528e-05
1.95015e-05
1.94768e-05
1.94512e-05
1.94274e-05
1.94061e-05
1.93868e-05
1.9366e-05
1.93472e-05
1.93306e-05
1.93161e-05
1.93038e-05
1.92932e-05
1.98599e-05
1.98637e-05
1.98675e-05
1.98714e-05
1.98754e-05
1.98795e-05
1.98836e-05
1.98878e-05
1.98921e-05
1.98964e-05
1.99008e-05
1.99052e-05
1.99098e-05
1.99144e-05
1.99191e-05
1.99238e-05
1.99287e-05
1.99335e-05
1.99385e-05
1.99435e-05
1.99486e-05
1.99537e-05
1.9959e-05
1.99643e-05
1.99697e-05
1.99751e-05
1.99807e-05
1.99863e-05
1.9992e-05
1.99979e-05
2.00038e-05
2.00098e-05
2.00159e-05
2.00221e-05
2.00284e-05
2.00349e-05
2.00414e-05
2.00481e-05
2.00549e-05
2.00618e-05
2.00688e-05
2.0076e-05
2.00833e-05
2.00907e-05
2.00983e-05
2.0106e-05
2.01139e-05
2.01219e-05
2.01301e-05
2.01384e-05
2.01468e-05
2.01554e-05
2.01642e-05
2.01731e-05
2.01822e-05
2.01915e-05
2.02009e-05
2.02106e-05
2.02204e-05
2.02304e-05
2.02406e-05
2.0251e-05
2.02616e-05
2.02724e-05
2.02834e-05
2.02946e-05
2.0306e-05
2.03175e-05
2.03293e-05
2.03413e-05
2.03535e-05
2.03659e-05
2.03784e-05
2.03912e-05
2.04042e-05
2.04174e-05
2.04308e-05
2.04444e-05
2.04582e-05
2.04723e-05
2.04865e-05
2.0501e-05
2.05157e-05
2.05306e-05
2.05457e-05
2.05611e-05
2.05767e-05
2.05926e-05
2.06087e-05
2.0625e-05
2.06416e-05
2.06586e-05
2.06757e-05
2.06932e-05
2.0711e-05
2.07291e-05
2.07475e-05
2.07662e-05
2.07852e-05
2.08046e-05
2.08242e-05
2.08442e-05
2.08645e-05
2.08851e-05
2.09061e-05
2.09273e-05
2.09488e-05
2.09706e-05
2.09927e-05
2.10151e-05
2.10378e-05
2.10607e-05
2.1084e-05
2.11075e-05
2.11313e-05
2.11553e-05
2.11797e-05
2.12044e-05
2.12293e-05
2.12545e-05
2.128e-05
2.13058e-05
2.13319e-05
2.13583e-05
2.1385e-05
2.1412e-05
2.14393e-05
2.14669e-05
2.14948e-05
2.1523e-05
2.15516e-05
2.15805e-05
2.16098e-05
2.16394e-05
2.16693e-05
2.16996e-05
2.17302e-05
2.17612e-05
2.17925e-05
2.18241e-05
2.18561e-05
2.18883e-05
2.19209e-05
2.19538e-05
2.19869e-05
2.20203e-05
2.2054e-05
2.20879e-05
2.21221e-05
2.21565e-05