/*--------------------------------*- C++ -*----------------------------------*\
| =========                 |                                                 |
| \\      /  F ield         | OpenFOAM: The Open Source CFD Toolbox           |
|  \\    /   O peration     | Version:  v1706                                 |
|   \\  /    A nd           | Web:      www.OpenFOAM.com                      |
|    \\/     M anipulation  |                                                 |
\*---------------------------------------------------------------------------*/
FoamFile
{
    version     2.0;
    format      ascii;
    class       volScalarField;
    location    "1.1e-05";
    object      Mach;
}
// * * * * * * * * * * * * * * * * * * * * * * * * * * * * * * * * * * * * * //

dimensions      [0 0 0 0 0 0 0];


internalField   nonuniform List<scalar> 
30104
(
3.99122
3.99132
3.99142
3.99153
3.99164
3.99175
3.99186
3.99197
3.99207
3.99218
3.99229
3.99239
3.99249
3.99258
3.99268
3.99277
3.99285
3.99227
3.99225
3.99223
3.9922
3.99218
3.99216
3.99214
3.99212
3.9921
3.99208
3.99206
3.99204
3.99202
3.992
3.99197
3.99195
3.99193
3.99191
3.99189
3.99186
3.99184
3.99182
3.9918
3.99177
3.99175
3.99173
3.9917
3.99168
3.99166
3.99163
3.99161
3.99159
3.99156
3.99154
3.99151
3.99148
3.99146
3.99143
3.99141
3.99138
3.99135
3.99132
3.9913
3.99127
3.99124
3.99121
3.99118
3.99115
3.99112
3.99109
3.99106
3.99103
3.991
3.99096
3.99093
3.9909
3.99086
3.99083
3.99079
3.99076
3.99072
3.99069
3.99065
3.99062
3.99058
3.99054
3.9905
3.99047
3.99043
3.99039
3.99035
3.99031
3.99027
3.99023
3.99019
3.99015
3.99011
3.99007
3.99003
3.98999
3.98995
3.9899
3.98986
3.98982
3.98977
3.98973
3.98968
3.98964
3.98959
3.98955
3.9895
3.98945
3.9894
3.98936
3.98931
3.98926
3.98921
3.98915
3.9891
3.98905
3.98899
3.98894
3.98888
3.98883
3.98877
3.98871
3.98865
3.98859
3.98853
3.98847
3.9884
3.98834
3.98827
3.98821
3.98814
3.98807
3.988
3.98793
3.98786
3.98779
3.98772
3.98765
3.98758
3.9875
3.98743
3.98735
3.98728
3.98721
3.98713
3.98706
3.98698
3.98691
3.98683
3.98676
3.98668
3.98661
3.98653
3.98646
3.98638
3.98631
3.98624
3.98616
3.98609
3.98602
3.98594
3.98587
3.98579
3.98572
3.98565
3.98557
3.9855
3.98542
3.98534
3.98527
3.98519
3.98511
3.98504
3.98496
3.98488
3.9848
3.98472
3.98463
3.98455
3.98447
3.98438
3.98429
3.9842
3.98411
3.98402
3.98393
3.98383
3.98374
3.98364
3.98354
3.98343
3.98333
3.98322
3.98311
3.983
3.98288
3.98276
3.98264
3.98252
3.98239
3.98226
3.98213
3.98199
3.98185
3.98171
3.98157
3.98143
3.98154
3.98322
3.97383
3.97439
3.97496
3.97554
3.97614
3.97673
3.97733
3.97793
3.97852
3.97911
3.97969
3.98025
3.98081
3.98135
3.98187
3.98238
3.98286
3.97768
3.97753
3.97738
3.97723
3.97708
3.97692
3.97676
3.97661
3.97644
3.97628
3.97612
3.97595
3.97578
3.97561
3.97544
3.97526
3.97509
3.97491
3.97473
3.97454
3.97436
3.97417
3.97398
3.97379
3.9736
3.9734
3.9732
3.973
3.9728
3.9726
3.97239
3.97218
3.97197
3.97175
3.97153
3.97131
3.97109
3.97087
3.97064
3.97041
3.97017
3.96994
3.9697
3.96946
3.96921
3.96897
3.96871
3.96846
3.9682
3.96795
3.96768
3.96742
3.96715
3.96688
3.96661
3.96633
3.96606
3.96577
3.96549
3.96521
3.96492
3.96463
3.96434
3.96404
3.96375
3.96345
3.96315
3.96285
3.96254
3.96224
3.96193
3.96162
3.96131
3.96099
3.96068
3.96036
3.96004
3.95972
3.95939
3.95906
3.95873
3.9584
3.95806
3.95772
3.95738
3.95704
3.95668
3.95633
3.95597
3.95561
3.95524
3.95487
3.95449
3.95411
3.95372
3.95333
3.95292
3.95252
3.9521
3.95168
3.95125
3.95081
3.95037
3.94991
3.94945
3.94898
3.9485
3.94801
3.94751
3.947
3.94648
3.94595
3.94542
3.94487
3.94431
3.94375
3.94317
3.94258
3.94199
3.94138
3.94077
3.94015
3.93951
3.93887
3.93822
3.93757
3.9369
3.93623
3.93555
3.93487
3.93418
3.93349
3.93279
3.93208
3.93138
3.93067
3.92996
3.92924
3.92853
3.92781
3.92709
3.92637
3.92565
3.92493
3.92421
3.92348
3.92276
3.92203
3.9213
3.92056
3.91982
3.91908
3.91833
3.91758
3.91682
3.91606
3.91529
3.91451
3.91372
3.91293
3.91212
3.91131
3.91048
3.90964
3.90879
3.90792
3.90704
3.90614
3.90523
3.90429
3.90334
3.90237
3.90139
3.90037
3.89934
3.89828
3.8972
3.8961
3.89497
3.89381
3.89262
3.8914
3.89016
3.88888
3.88758
3.88624
3.88488
3.88347
3.88204
3.88058
3.87904
3.87859
3.88554
3.9337
3.93528
3.93689
3.93854
3.94021
3.9419
3.94359
3.94528
3.94695
3.94861
3.95025
3.95185
3.95341
3.95493
3.95641
3.95783
3.93656
3.93599
3.9354
3.93481
3.93421
3.93361
3.93301
3.93239
3.93177
3.93115
3.93052
3.92988
3.92924
3.92859
3.92794
3.92728
3.92662
3.92595
3.92527
3.92459
3.9239
3.9232
3.9225
3.92179
3.92107
3.92035
3.91962
3.91888
3.91813
3.91737
3.91661
3.91583
3.91505
3.91425
3.91345
3.91264
3.91181
3.91098
3.91013
3.90927
3.9084
3.90751
3.90662
3.90571
3.90478
3.90384
3.90289
3.90193
3.90095
3.89995
3.89894
3.89791
3.89687
3.89582
3.89474
3.89365
3.89255
3.89143
3.89029
3.88914
3.88797
3.88679
3.88559
3.88438
3.88315
3.8819
3.88064
3.87937
3.87808
3.87678
3.87546
3.87414
3.87279
3.87144
3.87007
3.8687
3.86731
3.8659
3.86449
3.86307
3.86163
3.86019
3.85873
3.85726
3.85577
3.85428
3.85277
3.85125
3.84971
3.84816
3.84659
3.84501
3.84341
3.84179
3.84015
3.83849
3.83681
3.8351
3.83337
3.83162
3.82984
3.82802
3.82618
3.82431
3.82241
3.82047
3.8185
3.8165
3.81446
3.81238
3.81027
3.80811
3.80592
3.80368
3.80141
3.79909
3.79674
3.79434
3.7919
3.78942
3.78689
3.78433
3.78172
3.77907
3.77638
3.77365
3.77088
3.76808
3.76524
3.76236
3.75945
3.75651
3.75354
3.75054
3.74752
3.74448
3.74142
3.73834
3.73525
3.73215
3.72905
3.72596
3.72286
3.71977
3.71667
3.71358
3.71049
3.7074
3.70431
3.70122
3.69813
3.69503
3.69194
3.68885
3.68575
3.68265
3.67954
3.67643
3.67332
3.67019
3.66706
3.66392
3.66077
3.6576
3.65442
3.65122
3.648
3.64475
3.64149
3.63819
3.63487
3.63151
3.62811
3.62467
3.62119
3.61766
3.61407
3.61042
3.60672
3.60294
3.59909
3.59516
3.59115
3.58705
3.58285
3.57856
3.57415
3.56965
3.56501
3.56023
3.55561
3.55119
3.56409
3.84823
3.85183
3.85553
3.85929
3.86312
3.86698
3.87086
3.87475
3.87862
3.88246
3.88624
3.88997
3.89361
3.89716
3.9006
3.90391
3.83367
3.83197
3.83025
3.8285
3.82674
3.82495
3.82315
3.82132
3.81946
3.81759
3.81569
3.81378
3.81183
3.80987
3.80788
3.80588
3.80384
3.80179
3.79971
3.79762
3.7955
3.79335
3.79119
3.789
3.78678
3.78454
3.78228
3.77999
3.77768
3.77534
3.77297
3.77058
3.76815
3.7657
3.76323
3.76072
3.75818
3.75561
3.75301
3.75038
3.74771
3.74501
3.74228
3.73951
3.7367
3.73386
3.73098
3.72806
3.7251
3.72211
3.71907
3.71599
3.71287
3.70971
3.70651
3.70327
3.69998
3.69665
3.69328
3.68986
3.68641
3.68291
3.67937
3.67579
3.67216
3.6685
3.6648
3.66107
3.65729
3.65348
3.64964
3.64576
3.64185
3.63791
3.63395
3.62996
3.62595
3.62192
3.61788
3.61383
3.60977
3.60569
3.6016
3.5975
3.59338
3.58926
3.58512
3.58096
3.5768
3.57262
3.56842
3.56419
3.55995
3.55569
3.55139
3.54707
3.54271
3.53833
3.5339
3.52943
3.52492
3.52036
3.51575
3.51109
3.50638
3.5016
3.49676
3.49185
3.48687
3.48182
3.47668
3.47147
3.46617
3.46078
3.4553
3.44973
3.44405
3.43828
3.4324
3.42641
3.42031
3.4141
3.40778
3.40134
3.39478
3.38811
3.38132
3.37441
3.36738
3.36024
3.35298
3.34561
3.33814
3.33055
3.32287
3.31508
3.3072
3.29923
3.29117
3.28303
3.27482
3.26662
3.25848
3.25039
3.24235
3.23438
3.22647
3.21862
3.21084
3.20313
3.19548
3.18791
3.18042
3.173
3.16566
3.1584
3.15122
3.14413
3.13712
3.13021
3.12338
3.11666
3.11003
3.1035
3.09708
3.09076
3.08456
3.07847
3.0725
3.06665
3.06093
3.05534
3.04988
3.04455
3.03938
3.03432
3.02944
3.02467
3.02009
3.0156
3.01134
3.00712
3.0032
2.99924
2.99568
2.99194
2.98879
2.98519
2.9826
2.97901
2.97728
2.97411
2.98263
3.69119
3.698
3.70499
3.71213
3.71938
3.72671
3.73409
3.74149
3.74887
3.7562
3.76345
3.77059
3.77759
3.78442
3.79105
3.61295
3.60895
3.60492
3.60084
3.59672
3.59256
3.58836
3.58413
3.57986
3.57555
3.57121
3.56683
3.56241
3.55797
3.55348
3.54897
3.54443
3.53985
3.53525
3.53062
3.52597
3.5213
3.5166
3.51188
3.50714
3.50237
3.49757
3.49275
3.4879
3.48303
3.47812
3.47319
3.46822
3.46322
3.45819
3.45312
3.44801
3.44287
3.43769
3.43247
3.4272
3.42189
3.41654
3.41113
3.40568
3.40017
3.39462
3.389
3.38333
3.3776
3.37181
3.36596
3.36005
3.35407
3.34802
3.34191
3.33572
3.32947
3.32315
3.31676
3.3103
3.30377
3.29717
3.2905
3.28376
3.27696
3.27009
3.26315
3.25616
3.2491
3.24199
3.23482
3.2276
3.22033
3.21301
3.20565
3.19824
3.1908
3.18336
3.17596
3.16861
3.16132
3.15408
3.14691
3.1398
3.13276
3.1258
3.11891
3.1121
3.10537
3.09872
3.09215
3.08567
3.07926
3.07295
3.06672
3.06057
3.05451
3.04854
3.04266
3.03687
3.03117
3.02557
3.02006
3.01464
3.00932
3.00409
2.99897
2.99394
2.98902
2.9842
2.97948
2.97488
2.97038
2.966
2.96173
2.95758
2.95355
2.94964
2.94585
2.94218
2.93864
2.93523
2.93194
2.92878
2.92574
2.92284
2.92006
2.91741
2.91489
2.91249
2.91022
2.90808
2.90606
2.90416
2.90238
2.90073
2.89918
2.89775
2.89644
2.89523
2.89411
2.89306
2.89209
2.89118
2.89035
2.88957
2.88885
2.88819
2.88757
2.88701
2.88649
2.886
2.88554
2.88511
2.8847
2.8843
2.88391
2.88352
2.88314
2.88275
2.88234
2.88193
2.88149
2.88103
2.88054
2.88002
2.87946
2.87888
2.87825
2.87758
2.87687
2.87612
2.87531
2.87448
2.87354
2.87259
2.87152
2.87045
2.86923
2.86804
2.86665
2.86535
2.86379
2.86235
2.86063
2.85904
2.85717
2.85537
2.85345
2.85145
2.84957
2.85078
3.44375
3.45368
3.46393
3.47447
3.48525
3.49624
3.50738
3.51865
3.52999
3.54137
3.55272
3.56401
3.57519
3.5862
3.59699
3.60752
3.26721
3.26108
3.25492
3.24872
3.24249
3.23621
3.22991
3.22357
3.21719
3.21079
3.20437
3.19791
3.19144
3.18495
3.17844
3.17191
3.16538
3.15883
3.15228
3.14572
3.13916
3.13262
3.12612
3.11967
3.11327
3.10691
3.1006
3.09435
3.08815
3.082
3.07591
3.06989
3.06392
3.05801
3.05218
3.04641
3.0407
3.03507
3.02952
3.02404
3.01863
3.01331
3.00807
3.0029
2.99783
2.99283
2.98793
2.98311
2.97838
2.97374
2.96919
2.96473
2.96036
2.95609
2.9519
2.94781
2.94381
2.9399
2.93608
2.93236
2.92873
2.92519
2.92175
2.91839
2.91513
2.91196
2.90889
2.90591
2.90302
2.90022
2.89752
2.89491
2.89239
2.88997
2.88765
2.88542
2.88329
2.88126
2.87932
2.87747
2.87569
2.874
2.87239
2.87087
2.86943
2.86808
2.86681
2.86562
2.86452
2.86349
2.86254
2.86167
2.86087
2.86013
2.85946
2.85886
2.85831
2.85782
2.85739
2.857
2.85665
2.85635
2.85609
2.85585
2.85565
2.85546
2.8553
2.85515
2.855
2.85486
2.85473
2.85458
2.85443
2.85426
2.85407
2.85386
2.85362
2.85335
2.85305
2.85271
2.85234
2.85192
2.85147
2.85097
2.85042
2.84983
2.8492
2.84852
2.8478
2.84703
2.84622
2.84535
2.84442
2.84344
2.8424
2.84131
2.84015
2.83895
2.83768
2.83636
2.83499
2.83356
2.83208
2.83055
2.82898
2.82735
2.82568
2.82401
2.82233
2.82064
2.81894
2.81722
2.8155
2.81377
2.81206
2.81034
2.80864
2.80695
2.80528
2.80362
2.80199
2.80038
2.79881
2.79726
2.79575
2.79427
2.79284
2.79144
2.79009
2.78878
2.78752
2.78631
2.78514
2.78402
2.78291
2.78182
2.78075
2.77968
2.77864
2.7776
2.77658
2.77557
2.77457
2.77358
2.7726
2.77161
2.77061
2.76967
2.76865
2.76778
2.7668
2.76594
2.7675
3.17755
3.18895
3.20067
3.21269
3.22496
3.23745
3.25013
3.26294
3.27586
3.28883
3.30181
3.31475
3.32759
2.94534
2.94154
2.93781
2.93417
2.9306
2.92712
2.92372
2.92039
2.91715
2.91398
2.9109
2.90789
2.90497
2.90212
2.89935
2.89666
2.89405
2.89151
2.88904
2.88666
2.88434
2.8821
2.87991
2.87778
2.8757
2.87369
2.87173
2.86983
2.86798
2.86619
2.86446
2.86278
2.86115
2.85958
2.85806
2.8566
2.85519
2.85383
2.85253
2.85129
2.8501
2.84896
2.84788
2.84686
2.84589
2.84497
2.84411
2.8433
2.84255
2.84185
2.8412
2.84059
2.84004
2.83953
2.83906
2.83864
2.83825
2.8379
2.83758
2.8373
2.83704
2.83681
2.8366
2.83641
2.83624
2.83607
2.83592
2.83578
2.83564
2.83549
2.83535
2.8352
2.83504
2.83488
2.8347
2.8345
2.83429
2.83406
2.83381
2.83353
2.83323
2.8329
2.83255
2.83216
2.83174
2.83128
2.83079
2.83025
2.82968
2.82906
2.82839
2.82768
2.82692
2.82611
2.82525
2.82435
2.8234
2.82242
2.8214
2.82034
2.81925
2.81813
2.81698
2.81582
2.81463
2.81344
2.81224
2.81105
2.80985
2.80865
2.80745
2.80627
2.80509
2.80391
2.80275
2.80161
2.80047
2.79935
2.79824
2.79715
2.79608
2.79503
2.794
2.79298
2.79199
2.79103
2.79008
2.78916
2.78826
2.78739
2.78652
2.78566
2.7848
2.78394
2.78308
2.78222
2.78137
2.78053
2.7797
2.77888
2.77807
2.77728
2.77651
2.77577
2.77505
2.77437
2.77364
2.77291
2.77216
2.77139
2.77059
2.76979
2.76896
2.76813
2.76729
2.76643
2.76558
2.76471
2.76384
2.76296
2.76208
2.76119
2.7603
2.75939
2.75847
2.75753
2.75657
2.75558
2.75456
2.75348
2.75236
2.75115
2.74987
2.74851
2.74714
2.74576
2.74437
2.74296
2.74153
2.74008
2.73861
2.73711
2.73558
2.73402
2.73244
2.73083
2.7292
2.72756
2.72585
2.72415
2.72235
2.72068
2.72143
2.99254
3.00169
3.01095
3.02032
3.02979
3.03935
3.04899
3.05871
3.06849
3.07832
3.08818
3.09806
3.10792
2.83868
2.83773
2.83682
2.83595
2.83511
2.8343
2.83354
2.8328
2.83211
2.83145
2.83082
2.83023
2.82968
2.82916
2.82867
2.82821
2.82779
2.8274
2.82704
2.82671
2.82641
2.82613
2.82588
2.82565
2.82544
2.82525
2.82507
2.82491
2.82476
2.82462
2.82448
2.82435
2.82422
2.82408
2.82394
2.8238
2.82365
2.82348
2.8233
2.8231
2.82289
2.82265
2.82239
2.8221
2.82179
2.82144
2.82107
2.82068
2.82025
2.81978
2.81929
2.81877
2.81821
2.81763
2.81701
2.81637
2.81571
2.81501
2.8143
2.81357
2.81281
2.81204
2.81125
2.81045
2.80964
2.80882
2.80798
2.80714
2.8063
2.80545
2.8046
2.80375
2.8029
2.80205
2.80121
2.80036
2.79953
2.7987
2.79788
2.79706
2.79626
2.79546
2.79467
2.7939
2.79313
2.79238
2.79165
2.79093
2.79022
2.78951
2.7888
2.7881
2.7874
2.7867
2.786
2.78531
2.78463
2.78395
2.78328
2.78261
2.78196
2.78131
2.78066
2.78003
2.7794
2.77877
2.77813
2.77748
2.77683
2.77617
2.77551
2.77485
2.77418
2.77351
2.77284
2.77217
2.77149
2.77081
2.77012
2.76942
2.76872
2.76799
2.76725
2.76648
2.76568
2.76483
2.76394
2.76299
2.76198
2.76089
2.75977
2.75865
2.75753
2.75639
2.75525
2.75409
2.75293
2.75175
2.75055
2.74934
2.7481
2.74684
2.74554
2.74422
2.74285
2.74144
2.74002
2.73857
2.73711
2.73562
2.73412
2.7326
2.73105
2.72948
2.72788
2.72625
2.72459
2.7229
2.72117
2.7194
2.7176
2.71574
2.71384
2.71189
2.7099
2.70785
2.70575
2.70361
2.70141
2.69918
2.69691
2.69461
2.6923
2.68997
2.6876
2.68517
2.68268
2.68015
2.67756
2.67492
2.67222
2.66947
2.66667
2.66382
2.6609
2.65794
2.65491
2.65185
2.64869
2.64557
2.64234
2.63973
2.64134
2.91546
2.92292
2.93018
2.93727
2.94427
2.95111
2.95769
2.96405
2.97022
2.97616
2.98182
2.98717
2.99223
2.99698
2.8172
2.817
2.81679
2.81657
2.81634
2.8161
2.81584
2.81557
2.81528
2.81497
2.81464
2.8143
2.81394
2.81355
2.81315
2.81273
2.81229
2.81183
2.81135
2.81085
2.81034
2.80981
2.80927
2.80871
2.80814
2.80755
2.80696
2.80636
2.80576
2.80514
2.80453
2.80391
2.80329
2.80267
2.80204
2.80142
2.80079
2.80017
2.79955
2.79893
2.79831
2.7977
2.79708
2.79647
2.79587
2.79528
2.79469
2.79411
2.79353
2.79295
2.79237
2.79179
2.79121
2.79063
2.79006
2.78948
2.78891
2.78834
2.78777
2.78721
2.78665
2.78608
2.78553
2.78497
2.78441
2.78386
2.78331
2.78276
2.7822
2.78165
2.7811
2.78055
2.77999
2.77943
2.77886
2.77828
2.7777
2.7771
2.77649
2.77587
2.77522
2.77456
2.77388
2.77318
2.77244
2.77167
2.77085
2.76999
2.76912
2.76826
2.76738
2.7665
2.76562
2.76473
2.76383
2.76292
2.76199
2.76105
2.7601
2.75913
2.75814
2.75713
2.75609
2.75504
2.75396
2.75285
2.75174
2.7506
2.74944
2.74826
2.74705
2.74583
2.74457
2.74328
2.74196
2.74061
2.73922
2.7378
2.73633
2.73483
2.73328
2.73169
2.73006
2.72838
2.72667
2.72493
2.72316
2.72137
2.71956
2.71776
2.71592
2.71405
2.71214
2.71019
2.7082
2.70616
2.70409
2.70196
2.6998
2.69759
2.69533
2.69302
2.69067
2.68828
2.68584
2.68337
2.68085
2.6783
2.6757
2.67306
2.67037
2.66763
2.66484
2.66199
2.6591
2.65614
2.65313
2.65007
2.64694
2.64375
2.64051
2.6372
2.63384
2.63041
2.62693
2.62339
2.61979
2.61614
2.61243
2.60867
2.60485
2.60097
2.59703
2.59302
2.58893
2.58478
2.58056
2.57627
2.57191
2.56748
2.56298
2.55841
2.55378
2.54908
2.5443
2.53946
2.53452
2.52957
2.52451
2.51967
2.51471
2.51165
2.51566
2.89504
2.90235
2.90905
2.91496
2.92098
2.92695
2.93221
2.9372
2.94207
2.94655
2.95058
2.95423
2.95751
2.96031
2.80061
2.80012
2.79963
2.79914
2.79865
2.79816
2.79768
2.7972
2.79672
2.79624
2.79577
2.7953
2.79484
2.79437
2.7939
2.79343
2.79296
2.79249
2.79202
2.79155
2.79108
2.79061
2.79014
2.78968
2.78921
2.78875
2.78829
2.78783
2.78736
2.7869
2.78643
2.78596
2.78549
2.78501
2.78453
2.78403
2.78353
2.78302
2.78249
2.78196
2.78141
2.78085
2.78027
2.77967
2.77906
2.77843
2.77776
2.77706
2.77635
2.77565
2.77494
2.77422
2.7735
2.77278
2.77205
2.77131
2.77056
2.76981
2.76904
2.76826
2.76746
2.76666
2.76583
2.76499
2.76414
2.76326
2.76236
2.76145
2.76051
2.75954
2.75855
2.75753
2.75649
2.75542
2.75433
2.7532
2.75205
2.75088
2.74968
2.74846
2.74721
2.74595
2.74466
2.74336
2.74204
2.74071
2.73937
2.73803
2.73667
2.73528
2.73386
2.73241
2.73093
2.72941
2.72787
2.72629
2.72467
2.72302
2.72133
2.7196
2.71783
2.71603
2.71418
2.7123
2.71038
2.70842
2.70641
2.70437
2.70228
2.70015
2.69797
2.69574
2.69347
2.69115
2.68877
2.68635
2.68388
2.68136
2.67879
2.67618
2.67352
2.67081
2.66806
2.66526
2.66243
2.65955
2.65663
2.65366
2.65064
2.64757
2.64444
2.64125
2.63801
2.6347
2.63133
2.62791
2.62442
2.62088
2.61727
2.61361
2.60988
2.6061
2.60226
2.59835
2.59439
2.59036
2.58627
2.58211
2.57788
2.57358
2.56922
2.56478
2.56027
2.55569
2.55104
2.54631
2.54151
2.53664
2.53169
2.52667
2.52158
2.51641
2.51117
2.50585
2.50046
2.495
2.48945
2.48383
2.47814
2.47236
2.4665
2.46057
2.45455
2.44845
2.44227
2.43602
2.42968
2.42327
2.41678
2.41021
2.40357
2.39684
2.39004
2.38315
2.37617
2.36912
2.36196
2.35484
2.3477
2.34112
2.33461
2.33232
2.34034
2.88365
2.89084
2.89727
2.90269
2.90848
2.91418
2.91915
2.92311
2.92775
2.93229
2.93602
2.93936
2.94243
2.94493
2.78662
2.78616
2.78569
2.78521
2.78473
2.78423
2.78372
2.78321
2.78268
2.78213
2.78157
2.78098
2.78038
2.77977
2.77917
2.77856
2.77794
2.77732
2.7767
2.77606
2.77542
2.77477
2.77411
2.77343
2.77275
2.77205
2.77133
2.7706
2.76985
2.76909
2.76831
2.76751
2.76669
2.76586
2.765
2.76413
2.76324
2.76233
2.76141
2.76047
2.75951
2.75854
2.75756
2.75655
2.75554
2.75451
2.75348
2.75245
2.7514
2.75033
2.74924
2.74813
2.74699
2.74583
2.74464
2.74343
2.74219
2.74093
2.73963
2.7383
2.73695
2.73556
2.73414
2.73268
2.73119
2.72967
2.7281
2.72651
2.72487
2.7232
2.7215
2.71976
2.71798
2.71617
2.71432
2.71245
2.71054
2.70859
2.70662
2.70462
2.70259
2.70052
2.69843
2.6963
2.69414
2.69195
2.68971
2.68743
2.68511
2.68274
2.68032
2.67785
2.67533
2.67277
2.67015
2.66748
2.66476
2.66199
2.65916
2.65628
2.65335
2.65036
2.64732
2.64422
2.64106
2.63784
2.63456
2.63123
2.62783
2.62437
2.62085
2.61728
2.61363
2.60993
2.60617
2.60235
2.59846
2.59452
2.59051
2.58644
2.58231
2.57812
2.57386
2.56954
2.56515
2.56069
2.55617
2.55157
2.5469
2.54216
2.53735
2.53246
2.5275
2.52247
2.51737
2.5122
2.50695
2.50163
2.49623
2.49076
2.48522
2.47959
2.47389
2.46812
2.46226
2.45632
2.4503
2.4442
2.43802
2.43175
2.4254
2.41897
2.41246
2.40587
2.39919
2.39243
2.38559
2.37866
2.37165
2.36456
2.35739
2.35014
2.3428
2.33538
2.32787
2.32029
2.31262
2.30487
2.29704
2.28913
2.28113
2.27306
2.26491
2.25668
2.24836
2.23997
2.23151
2.22296
2.21433
2.20562
2.19684
2.18797
2.17901
2.16996
2.1608
2.15158
2.1423
2.13323
2.12439
2.11673
2.11002
2.1089
2.12274
2.87389
2.88091
2.88711
2.89242
2.89854
2.90386
2.90886
2.91243
2.91675
2.92015
2.92332
2.92601
2.92808
2.76959
2.76884
2.76808
2.76731
2.76652
2.76572
2.7649
2.76408
2.76323
2.76238
2.76152
2.76066
2.75978
2.75889
2.75798
2.75705
2.75611
2.75514
2.75415
2.75314
2.75211
2.75106
2.74998
2.74888
2.74775
2.7466
2.74542
2.74422
2.74299
2.74174
2.74047
2.73916
2.73784
2.73649
2.73512
2.73372
2.7323
2.73085
2.72939
2.7279
2.72638
2.72484
2.72328
2.72169
2.72007
2.71843
2.71676
2.71506
2.71332
2.71154
2.70973
2.70788
2.70599
2.70405
2.70208
2.70007
2.69802
2.69592
2.69378
2.69159
2.68937
2.68709
2.68477
2.68241
2.68
2.67754
2.67503
2.67248
2.66988
2.66724
2.66455
2.66181
2.65902
2.65619
2.65331
2.65039
2.64741
2.64439
2.64132
2.63819
2.63502
2.63179
2.62851
2.62517
2.62177
2.61832
2.6148
2.61123
2.60759
2.60389
2.60013
2.5963
2.59241
2.58846
2.58444
2.58036
2.57621
2.57199
2.56771
2.56336
2.55894
2.55444
2.54988
2.54525
2.54054
2.53577
2.53092
2.52599
2.521
2.51593
2.51079
2.50558
2.50029
2.49493
2.48949
2.48398
2.4784
2.47274
2.467
2.46119
2.4553
2.44933
2.44329
2.43716
2.43096
2.42467
2.41831
2.41186
2.40534
2.39874
2.39206
2.38529
2.37845
2.37153
2.36453
2.35745
2.35028
2.34303
2.33571
2.3283
2.3208
2.31322
2.30557
2.29782
2.29
2.28209
2.2741
2.26602
2.25787
2.24963
2.24131
2.23291
2.22443
2.21587
2.20723
2.19851
2.18971
2.18083
2.17187
2.16284
2.15373
2.14454
2.13527
2.12593
2.11651
2.10702
2.09745
2.0878
2.07809
2.06829
2.05843
2.04848
2.03847
2.02838
2.01821
2.00797
1.99765
1.98725
1.97678
1.96623
1.9556
1.94488
1.93407
1.92316
1.91215
1.90114
1.8902
1.87983
1.87008
1.86234
1.85631
1.85716
1.87683
2.86411
2.87057
2.87627
2.88142
2.8871
2.89179
2.89642
2.90037
2.90422
2.90756
2.91061
2.91312
2.9151
2.7424
2.7412
2.73998
2.73874
2.73747
2.73619
2.73489
2.73356
2.73221
2.73084
2.72944
2.728
2.72654
2.72505
2.72353
2.72198
2.72039
2.71877
2.71712
2.71544
2.71373
2.71198
2.7102
2.70839
2.70655
2.70467
2.70275
2.70081
2.69883
2.69682
2.69477
2.69268
2.69057
2.68841
2.68622
2.68399
2.68172
2.67941
2.67706
2.67467
2.67223
2.66975
2.66723
2.66466
2.66204
2.65937
2.65664
2.65387
2.65105
2.64818
2.64525
2.64227
2.63924
2.63615
2.63301
2.62981
2.62656
2.62325
2.61988
2.61646
2.61298
2.60944
2.60584
2.60219
2.59847
2.59469
2.59085
2.58695
2.58299
2.57897
2.57488
2.57073
2.56652
2.56224
2.5579
2.55349
2.54901
2.54447
2.53985
2.53517
2.53042
2.5256
2.5207
2.51574
2.5107
2.50559
2.50041
2.49516
2.48983
2.48443
2.47896
2.47341
2.46778
2.46208
2.4563
2.45045
2.44452
2.43851
2.43242
2.42625
2.42
2.41367
2.40727
2.40078
2.39421
2.38757
2.38084
2.37404
2.36715
2.36019
2.35314
2.34602
2.33881
2.33153
2.32416
2.31672
2.3092
2.30159
2.29391
2.28615
2.27831
2.27039
2.26239
2.25432
2.24616
2.23793
2.22962
2.22124
2.21277
2.20423
2.19561
2.18692
2.17815
2.1693
2.16037
2.15137
2.14229
2.13313
2.1239
2.11459
2.10521
2.09575
2.08622
2.07661
2.06693
2.05718
2.04735
2.03746
2.02749
2.01744
2.00733
1.99715
1.9869
1.97657
1.96618
1.95572
1.94519
1.93459
1.92393
1.9132
1.9024
1.89154
1.88061
1.86962
1.85857
1.84746
1.83629
1.82506
1.81377
1.80243
1.79104
1.77961
1.76812
1.75659
1.74502
1.7334
1.72175
1.71005
1.69831
1.68652
1.67467
1.66276
1.65082
1.63905
1.62763
1.61726
1.60802
1.6014
1.59702
1.59958
1.62308
2.85798
2.86321
2.86853
2.87349
2.87792
2.88229
2.88617
2.88962
2.89268
2.89531
2.89745
2.8991
2.70505
2.70323
2.70137
2.69948
2.69755
2.69559
2.69359
2.69156
2.68949
2.68738
2.68523
2.68304
2.68081
2.67854
2.67623
2.67388
2.67149
2.66905
2.66658
2.66406
2.6615
2.6589
2.65625
2.65355
2.65082
2.64803
2.64521
2.64233
2.63941
2.63643
2.63341
2.63034
2.62722
2.62404
2.62082
2.61754
2.6142
2.61081
2.60736
2.60385
2.60029
2.59666
2.59298
2.58923
2.58543
2.58156
2.57764
2.57364
2.56959
2.56548
2.56129
2.55705
2.55274
2.54836
2.54392
2.53942
2.53484
2.5302
2.52549
2.52071
2.51586
2.51093
2.50594
2.50088
2.49575
2.49054
2.48526
2.47991
2.47449
2.46899
2.46341
2.45777
2.45205
2.44625
2.44038
2.43443
2.42841
2.42232
2.41614
2.40989
2.40357
2.39717
2.39069
2.38414
2.37751
2.3708
2.36401
2.35714
2.3502
2.34318
2.33608
2.3289
2.32164
2.31431
2.30689
2.2994
2.29182
2.28417
2.27644
2.26863
2.26075
2.25278
2.24474
2.23662
2.22842
2.22015
2.2118
2.20337
2.19487
2.1863
2.17765
2.16893
2.16013
2.15127
2.14233
2.13332
2.12424
2.11509
2.10587
2.09658
2.08722
2.07779
2.0683
2.05873
2.0491
2.0394
2.02963
2.01979
2.00989
1.99991
1.98987
1.97977
1.96959
1.95935
1.94904
1.93867
1.92823
1.91773
1.90716
1.89653
1.88583
1.87507
1.86426
1.85338
1.84244
1.83145
1.8204
1.8093
1.79814
1.78694
1.77569
1.7644
1.75306
1.74169
1.73029
1.71885
1.70738
1.69588
1.68436
1.67282
1.66126
1.64968
1.63809
1.62648
1.61485
1.60319
1.59152
1.57982
1.56811
1.55638
1.54464
1.53291
1.52117
1.50944
1.49771
1.48599
1.47428
1.46257
1.45086
1.43914
1.42739
1.41567
1.40403
1.39281
1.38225
1.3731
1.36546
1.36054
1.35859
1.36155
1.38549
2.84135
2.84655
2.85146
2.85609
2.8604
2.86438
2.86795
2.87112
2.87388
2.8762
2.6527
2.65004
2.64734
2.64458
2.64179
2.63894
2.63605
2.63311
2.63012
2.62708
2.62399
2.62086
2.61767
2.61443
2.61114
2.6078
2.6044
2.60096
2.59745
2.5939
2.59029
2.58662
2.5829
2.57913
2.57529
2.57139
2.56744
2.56343
2.55935
2.55522
2.55102
2.54676
2.54243
2.53804
2.53359
2.52907
2.52449
2.51983
2.51512
2.51033
2.50547
2.50055
2.49556
2.4905
2.48537
2.48017
2.4749
2.46956
2.46415
2.45867
2.45311
2.44748
2.44178
2.43601
2.43017
2.42424
2.41825
2.41218
2.40604
2.39982
2.39352
2.38715
2.3807
2.37417
2.36757
2.36089
2.35414
2.34731
2.3404
2.33342
2.32636
2.31922
2.31201
2.30472
2.29736
2.28992
2.28241
2.27482
2.26715
2.25941
2.2516
2.24371
2.23575
2.22771
2.21959
2.2114
2.20314
2.1948
2.18639
2.17791
2.16935
2.16072
2.15202
2.14325
2.13441
2.1255
2.11653
2.10748
2.09836
2.08918
2.07993
2.07062
2.06123
2.05179
2.04227
2.0327
2.02306
2.01336
2.00359
1.99377
1.98388
1.97394
1.96393
1.95386
1.94373
1.93355
1.9233
1.913
1.90264
1.89222
1.88174
1.87121
1.86061
1.84996
1.83926
1.8285
1.81769
1.80682
1.7959
1.78493
1.77391
1.76284
1.75173
1.74058
1.72939
1.71817
1.70691
1.69562
1.6843
1.67296
1.66161
1.65023
1.63884
1.62744
1.61602
1.6046
1.59317
1.58173
1.57027
1.5588
1.54734
1.53587
1.52441
1.51296
1.50152
1.49008
1.47866
1.46725
1.45585
1.44448
1.43312
1.42178
1.41047
1.39919
1.38794
1.37673
1.36555
1.3544
1.34329
1.33221
1.32118
1.31019
1.29925
1.28836
1.27751
1.26673
1.256
1.24533
1.23469
1.22409
1.21351
1.20303
1.19276
1.18311
1.17438
1.16722
1.16176
1.15871
1.15887
1.16192
1.18182
2.82457
2.82928
2.83362
2.83759
2.8412
2.84444
2.84732
2.84981
2.8519
2.57936
2.57564
2.57187
2.56804
2.56416
2.56021
2.55621
2.55215
2.54804
2.54386
2.53963
2.53533
2.53098
2.52656
2.52208
2.51754
2.51294
2.50827
2.50354
2.49874
2.49388
2.48896
2.48397
2.47891
2.47378
2.46859
2.46332
2.45799
2.45259
2.44712
2.44159
2.43598
2.4303
2.42455
2.41872
2.41283
2.40687
2.40083
2.39472
2.38854
2.38229
2.37597
2.36957
2.3631
2.35656
2.34994
2.34325
2.33649
2.32965
2.32274
2.31576
2.3087
2.30157
2.29437
2.28709
2.27973
2.2723
2.2648
2.25722
2.24957
2.24185
2.23405
2.22618
2.21823
2.21021
2.20213
2.19396
2.18573
2.17743
2.16906
2.16061
2.1521
2.14352
2.13488
2.12616
2.11738
2.10853
2.09961
2.09063
2.08158
2.07247
2.06329
2.05405
2.04475
2.03538
2.02595
2.01646
2.00691
1.9973
1.98764
1.97791
1.96813
1.95829
1.94839
1.93844
1.92844
1.91838
1.90826
1.89809
1.88787
1.87759
1.86727
1.85689
1.84646
1.83598
1.82544
1.81486
1.80424
1.79356
1.78284
1.77207
1.76126
1.7504
1.73951
1.72857
1.7176
1.7066
1.69556
1.68449
1.6734
1.66228
1.65113
1.63997
1.6288
1.61761
1.60641
1.5952
1.58398
1.57276
1.56152
1.55028
1.53903
1.5278
1.51657
1.50535
1.49414
1.48294
1.47176
1.4606
1.44945
1.43833
1.42722
1.41615
1.4051
1.39408
1.38309
1.37214
1.36123
1.35035
1.33951
1.3287
1.31794
1.30722
1.29655
1.28592
1.27534
1.2648
1.25433
1.24391
1.23354
1.22324
1.21301
1.20284
1.19275
1.18275
1.17284
1.16303
1.15333
1.14373
1.13422
1.12481
1.11551
1.10632
1.09724
1.08828
1.07943
1.0707
1.06206
1.0535
1.04502
1.03671
1.02871
1.02147
1.01524
1.01056
1.00746
1.00653
1.00796
1.01129
1.02224
2.7967
2.80099
2.49046
2.48564
2.48076
2.47581
2.4708
2.46573
2.46059
2.45538
2.45012
2.44478
2.43938
2.43392
2.42839
2.42279
2.41712
2.41139
2.40559
2.39972
2.39378
2.38777
2.3817
2.37555
2.36934
2.36305
2.3567
2.35027
2.34378
2.33721
2.33058
2.32387
2.3171
2.31025
2.30333
2.29635
2.28929
2.28216
2.27496
2.26769
2.26035
2.25294
2.24546
2.23791
2.23029
2.2226
2.21484
2.20701
2.19911
2.19114
2.18311
2.175
2.16683
2.15859
2.15028
2.14191
2.13347
2.12496
2.11638
2.10774
2.09904
2.09027
2.08143
2.07253
2.06357
2.05455
2.04547
2.03632
2.02712
2.01786
2.00854
1.99916
1.98972
1.98023
1.97069
1.96108
1.95143
1.94172
1.93196
1.92214
1.91227
1.90235
1.89238
1.88235
1.87228
1.86215
1.85198
1.84175
1.83149
1.82117
1.81081
1.8004
1.78996
1.77946
1.76893
1.75836
1.74775
1.7371
1.72641
1.71569
1.70493
1.69414
1.68333
1.67248
1.66161
1.65072
1.6398
1.62887
1.61793
1.60697
1.596
1.58503
1.57404
1.56306
1.55206
1.54106
1.53006
1.51907
1.50808
1.4971
1.48613
1.47517
1.46422
1.45329
1.44238
1.43149
1.42063
1.40978
1.39896
1.38817
1.37742
1.36669
1.35601
1.34536
1.33475
1.32418
1.31366
1.30318
1.29275
1.28236
1.27203
1.26175
1.25152
1.24135
1.23124
1.22119
1.21121
1.2013
1.19146
1.18172
1.17205
1.16247
1.15295
1.14352
1.13417
1.12491
1.11574
1.10667
1.0977
1.08883
1.08007
1.07142
1.06289
1.05448
1.04619
1.03803
1.03
1.0221
1.01433
1.0067
0.999214
0.991881
0.984705
0.977687
0.970829
0.964133
0.957597
0.951216
0.94498
0.938865
0.932863
0.926963
0.921273
0.915938
0.911364
0.907687
0.905354
0.904381
0.904872
0.906634
0.908377
0.911716
2.38449
2.37856
2.37257
2.36651
2.36038
2.35419
2.34794
2.34161
2.33522
2.32876
2.32224
2.31565
2.30899
2.30226
2.29547
2.28861
2.28169
2.27469
2.26763
2.26051
2.25331
2.24605
2.23872
2.23133
2.22386
2.21633
2.20874
2.20108
2.19335
2.18556
2.1777
2.16977
2.16178
2.15373
2.14561
2.13742
2.12918
2.12087
2.11249
2.10406
2.09556
2.087
2.07838
2.0697
2.06096
2.05216
2.04331
2.03439
2.02542
2.01639
2.0073
1.99816
1.98896
1.9797
1.9704
1.96104
1.95162
1.94216
1.93264
1.92307
1.91345
1.90379
1.89407
1.8843
1.87449
1.86463
1.85472
1.84477
1.83477
1.82473
1.81464
1.80451
1.79434
1.78412
1.77387
1.76357
1.75324
1.74286
1.73245
1.722
1.71151
1.701
1.69045
1.67987
1.66926
1.65863
1.64797
1.63729
1.6266
1.61589
1.60517
1.59444
1.5837
1.57296
1.56221
1.55147
1.54071
1.52996
1.51921
1.50846
1.49772
1.48699
1.47627
1.46556
1.45486
1.44419
1.43352
1.42288
1.41226
1.40166
1.39108
1.38053
1.37001
1.35952
1.34907
1.33865
1.32827
1.31794
1.30764
1.29739
1.28718
1.27703
1.26692
1.25687
1.24687
1.23694
1.22707
1.21726
1.20753
1.19787
1.1883
1.17879
1.16935
1.15997
1.15068
1.14146
1.13232
1.12327
1.1143
1.10543
1.09664
1.08796
1.07937
1.07088
1.0625
1.05422
1.04605
1.03799
1.03004
1.02221
1.01452
1.00695
0.999519
0.992227
0.985076
0.978069
0.97121
0.964501
0.957945
0.951544
0.945301
0.939218
0.933298
0.927544
0.921956
0.916537
0.911288
0.90621
0.901303
0.89657
0.892007
0.887615
0.883392
0.879337
0.875443
0.871704
0.868104
0.86462
0.861241
0.857952
0.854846
0.852028
0.849813
0.848212
0.847683
0.847898
0.848656
0.850344
0.849898
0.848428
2.2643