/*--------------------------------*- C++ -*----------------------------------*\
| =========                 |                                                 |
| \\      /  F ield         | OpenFOAM: The Open Source CFD Toolbox           |
|  \\    /   O peration     | Version:  v1706                                 |
|   \\  /    A nd           | Web:      www.OpenFOAM.com                      |
|    \\/     M anipulation  |                                                 |
\*---------------------------------------------------------------------------*/
FoamFile
{
    version     2.0;
    format      ascii;
    class       volScalarField;
    location    "1.1e-05";
    object      p;
}
// * * * * * * * * * * * * * * * * * * * * * * * * * * * * * * * * * * * * * //

dimensions      [1 -1 -2 0 0 0 0];


internalField   nonuniform List<scalar> 
30104
(
21.9644
21.9631
21.9618
21.9604
21.959
21.9575
21.9561
21.9547
21.9532
21.9518
21.9504
21.949
21.9477
21.9463
21.945
21.9438
21.9425
21.9488
21.949
21.9493
21.9496
21.9498
21.9501
21.9504
21.9506
21.9509
21.9512
21.9515
21.9518
21.9521
21.9525
21.9528
21.9531
21.9534
21.9538
21.9541
21.9545
21.9548
21.9552
21.9555
21.9559
21.9563
21.9567
21.957
21.9574
21.9578
21.9582
21.9586
21.959
21.9594
21.9599
21.9603
21.9607
21.9611
21.9616
21.962
21.9624
21.9629
21.9633
21.9638
21.9642
21.9647
21.9651
21.9656
21.9661
21.9665
21.967
21.9674
21.9679
21.9684
21.9688
21.9693
21.9698
21.9702
21.9707
21.9712
21.9716
21.9721
21.9725
21.973
21.9734
21.9739
21.9743
21.9748
21.9752
21.9757
21.9761
21.9765
21.977
21.9774
21.9779
21.9783
21.9788
21.9792
21.9797
21.9801
21.9806
21.981
21.9815
21.982
21.9825
21.9829
21.9834
21.9839
21.9844
21.985
21.9855
21.986
21.9866
21.9871
21.9877
21.9882
21.9888
21.9894
21.99
21.9906
21.9912
21.9919
21.9925
21.9932
21.9939
21.9945
21.9953
21.996
21.9967
21.9974
21.9982
21.999
21.9998
22.0006
22.0014
22.0022
22.0031
22.0039
22.0048
22.0057
22.0066
22.0075
22.0084
22.0094
22.0103
22.0113
22.0122
22.0132
22.0142
22.0152
22.0162
22.0172
22.0182
22.0192
22.0202
22.0213
22.0223
22.0233
22.0243
22.0253
22.0264
22.0274
22.0284
22.0294
22.0305
22.0315
22.0325
22.0335
22.0346
22.0356
22.0367
22.0377
22.0388
22.0399
22.041
22.042
22.0432
22.0443
22.0454
22.0466
22.0478
22.049
22.0502
22.0515
22.0528
22.0541
22.0555
22.0569
22.0583
22.0598
22.0613
22.0628
22.0644
22.066
22.0677
22.0695
22.0712
22.0731
22.0749
22.0769
22.0789
22.0809
22.083
22.0851
22.0873
22.0896
22.0919
22.0942
22.0966
22.0991
22.1016
22.104
22.1042
22.0867
22.2049
22.1976
22.19
22.1822
22.1743
22.1663
22.1583
22.1503
22.1423
22.1344
22.1266
22.1189
22.1114
22.104
22.0969
22.09
22.0834
22.1525
22.1547
22.1569
22.1591
22.1613
22.1636
22.1658
22.1681
22.1704
22.1727
22.175
22.1773
22.1797
22.182
22.1844
22.1868
22.1891
22.1915
22.194
22.1964
22.1988
22.2013
22.2038
22.2063
22.2088
22.2114
22.2139
22.2165
22.2192
22.2218
22.2245
22.2272
22.23
22.2328
22.2356
22.2384
22.2413
22.2443
22.2472
22.2503
22.2533
22.2564
22.2595
22.2627
22.2659
22.2692
22.2725
22.2759
22.2793
22.2827
22.2862
22.2898
22.2934
22.297
22.3007
22.3044
22.3082
22.312
22.3159
22.3198
22.3238
22.3278
22.3319
22.336
22.3402
22.3444
22.3487
22.353
22.3574
22.3618
22.3663
22.3709
22.3755
22.3801
22.3848
22.3896
22.3944
22.3993
22.4042
22.4092
22.4143
22.4194
22.4246
22.4299
22.4352
22.4406
22.4461
22.4516
22.4572
22.4629
22.4687
22.4746
22.4805
22.4866
22.4927
22.4989
22.5053
22.5117
22.5183
22.525
22.5318
22.5388
22.5458
22.553
22.5604
22.5679
22.5755
22.5832
22.5911
22.5992
22.6073
22.6157
22.6241
22.6327
22.6414
22.6503
22.6593
22.6684
22.6776
22.687
22.6964
22.706
22.7156
22.7254
22.7352
22.7451
22.7551
22.7651
22.7753
22.7854
22.7957
22.8059
22.8162
22.8265
22.8369
22.8473
22.8577
22.8681
22.8786
22.889
22.8995
22.91
22.9206
22.9312
22.9418
22.9525
22.9633
22.9741
22.985
22.996
23.0071
23.0183
23.0296
23.041
23.0526
23.0642
23.076
23.088
23.1001
23.1123
23.1247
23.1373
23.1501
23.1631
23.1763
23.1897
23.2033
23.2171
23.2312
23.2456
23.2602
23.2751
23.2903
23.3058
23.3216
23.3377
23.3542
23.371
23.3882
23.4058
23.4238
23.4422
23.4611
23.4804
23.5001
23.5203
23.5411
23.5622
23.5839
23.6061
23.6288
23.6448
23.5695
22.8022
22.7804
22.7579
22.7347
22.711
22.687
22.6627
22.6383
22.614
22.5897
22.5657
22.542
22.5188
22.4961
22.4741
22.4528
22.7343
22.7424
22.7507
22.7591
22.7676
22.7762
22.7849
22.7937
22.8027
22.8118
22.821
22.8304
22.8398
22.8495
22.8592
22.8691
22.8792
22.8893
22.8997
22.9102
22.9208
22.9317
22.9426
22.9538
22.9651
22.9766
22.9883
23.0002
23.0123
23.0245
23.0369
23.0496
23.0624
23.0754
23.0887
23.1021
23.1158
23.1296
23.1437
23.158
23.1724
23.1872
23.2021
23.2172
23.2326
23.2482
23.264
23.2801
23.2963
23.3128
23.3296
23.3465
23.3637
23.3811
23.3987
23.4165
23.4346
23.4529
23.4713
23.49
23.5089
23.528
23.5473
23.5667
23.5864
23.6062
23.6262
23.6463
23.6666
23.6871
23.7077
23.7285
23.7494
23.7705
23.7917
23.8131
23.8346
23.8563
23.8782
23.9002
23.9224
23.9448
23.9675
23.9903
24.0134
24.0368
24.0604
24.0843
24.1084
24.1329
24.1577
24.1829
24.2084
24.2343
24.2606
24.2873
24.3145
24.3422
24.3703
24.399
24.4282
24.4579
24.4882
24.519
24.5505
24.5826
24.6154
24.6487
24.6828
24.7176
24.753
24.7892
24.8261
24.8638
24.9022
24.9415
24.9815
25.0223
25.0639
25.1064
25.1497
25.1938
25.2388
25.2846
25.3313
25.3789
25.4273
25.4766
25.5267
25.5777
25.6295
25.6821
25.7355
25.7898
25.8447
25.9004
25.9568
26.0139
26.0716
26.1298
26.1886
26.2478
26.3074
26.3675
26.4281
26.4891
26.5506
26.6125
26.6748
26.7377
26.801
26.8649
26.9292
26.9941
27.0596
27.1258
27.1925
27.26
27.3283
27.3973
27.4672
27.5381
27.61
27.683
27.7572
27.8326
27.9095
27.9878
28.0678
28.1495
28.233
28.3185
28.4062
28.4961
28.5884
28.6834
28.781
28.8817
28.9853
29.0923
29.2026
29.3168
29.4345
29.5566
29.6823
29.8134
29.9477
30.0888
30.2316
30.3857
30.5321
30.7019
30.6138
24.1571
24.1029
24.047
23.9897
23.9313
23.8722
23.8127
23.7531
23.6936
23.6346
23.5763
23.5188
23.4625
23.4075
23.3539
23.302
24.3822
24.4126
24.4435
24.4748
24.5064
24.5384
24.5708
24.6036
24.6367
24.6702
24.704
24.7382
24.7727
24.8075
24.8426
24.878
24.9138
24.9498
24.9861
25.0228
25.0597
25.097
25.1346
25.1725
25.2108
25.2494
25.2885
25.3279
25.3678
25.4082
25.449
25.4903
25.5321
25.5745
25.6174
25.661
25.7052
25.75
25.7955
25.8418
25.8888
25.9365
25.9851
26.0345
26.0847
26.1359
26.188
26.241
26.295
26.35
26.406
26.4631
26.5213
26.5806
26.641
26.7025
26.7653
26.8292
26.8943
26.9607
27.0283
27.0972
27.1674
27.2389
27.3118
27.386
27.4615
27.5385
27.6168
27.6966
27.7778
27.8604
27.9445
28.0301
28.1171
28.2056
28.2956
28.3869
28.4797
28.5739
28.6695
28.7666
28.8651
28.9651
29.0667
29.1697
29.2743
29.3805
29.4882
29.5977
29.7088
29.8217
29.9364
30.0531
30.1717
30.2924
30.4153
30.5405
30.6681
30.7982
30.9309
31.0665
31.205
31.3465
31.4914
31.6396
31.7915
31.9472
32.1069
32.2708
32.439
32.6119
32.7896
32.9724
33.1603
33.3538
33.5529
33.7579
33.969
34.1863
34.4102
34.6407
34.8781
35.1224
35.374
35.6329
35.8992
36.1732
36.4548
36.7442
37.0414
37.3466
37.6598
37.981
38.3104
38.6479
38.9935
39.3474
39.7095
40.0799
40.4586
40.8424
41.2293
41.6195
42.0129
42.4096
42.8098
43.2136
43.6211
44.0324
44.4476
44.8669
45.2903
45.7179
46.15
46.5865
47.0276
47.4734
47.9239
48.3792
48.8393
49.3043
49.7741
50.2487
50.728
51.212
51.7005
52.1936
52.6907
53.1921
53.6972
54.2061
54.718
55.2335
55.7511
56.2719
56.7936
57.3182
57.8425
58.3693
58.8944
59.4218
59.9457
60.472
60.9929
61.5167
62.0323
62.5526
63.0609
63.5744
64.0856
64.5492
64.8904
27.2081
27.0798
26.9471
26.8109
26.6719
26.5308
26.3886
26.2458
26.1032
25.9617
25.8218
25.6845
25.5502
25.4197
25.2935
28.6398
28.7257
28.813
28.9018
28.992
29.0837
29.177
29.2718
29.3683
29.4664
29.5662
29.6678
29.7711
29.8764
29.9835
30.0925
30.2036
30.3167
30.4319
30.5492
30.6687
30.7905
30.9145
31.0409
31.1697
31.301
31.435
31.5717
31.7113
31.8537
31.9991
32.1476
32.2994
32.4544
32.6128
32.7747
32.9402
33.1094
33.2824
33.4594
33.6404
33.8255
34.0148
34.2086
34.4068
34.6096
34.8172
35.0296
35.247
35.4696
35.6973
35.9304
36.169
36.4132
36.6631
36.9189
37.1806
37.4484
37.7224
38.0027
38.2893
38.5823
38.8818
39.1879
39.5006
39.8199
40.1459
40.4786
40.8179
41.1639
41.5166
41.8758
42.2417
42.6141
42.9931
43.3785
43.7704
44.1687
44.5716
44.9771
45.385
45.7952
46.2077
46.6222
47.0389
47.4575
47.8781
48.3007
48.7253
49.1519
49.5806
50.0115
50.4448
50.8805
51.3187
51.7596
52.2031
52.6494
53.0985
53.5504
54.0051
54.4626
54.9228
55.3857
55.8513
56.3194
56.79
57.2629
57.7379
58.2147
58.693
59.1727
59.6532
60.1342
60.6154
61.0962
61.5763
62.0551
62.5323
63.0073
63.4798
63.9494
64.4156
64.878
65.3364
65.7903
66.2396
66.6838
67.1229
67.5565
67.9844
68.4066
68.8227
69.2328
69.6365
70.034
70.4249
70.8093
71.1871
71.5581
71.9224
72.2828
72.6408
72.9965
73.3496
73.7002
74.0485
74.394
74.7363
75.0746
75.4084
75.7371
76.0598
76.3761
76.6852
76.9866
77.2797
77.564
77.8389
78.1041
78.3592
78.6039
78.838
79.0612
79.2737
79.4752
79.6659
79.8459
80.0155
80.1746
80.324
80.4634
80.5941
80.7151
80.8295
80.9346
81.035
81.1262
81.2149
81.2943
81.3733
81.4433
81.5147
81.5775
81.6437
81.7018
81.7658
81.8207
81.8864
81.9355
82.0114
82.0539
81.9773
33.5556
33.3011
33.0375
32.7665
32.4899
32.2088
31.9246
31.6385
31.3519
31.0661
30.782
30.5006
30.2228
29.9498
29.6824
29.4217
39.604
39.8985
40.1999
40.5082
40.8235
41.1459
41.4752
41.8116
42.1551
42.5055
42.8627
43.2268
43.5976
43.9749
44.3585
44.7483
45.144
45.5455
45.9524
46.3645
46.7815
47.2018
47.624
48.0479
48.4733
48.8999
49.3275
49.756
50.1851
50.6147
51.0447
51.4748
51.9049
52.335
52.765
53.1947
53.6242
54.0533
54.4821
54.9105
55.3384
55.766
56.193
56.6196
57.0457
57.4712
57.8962
58.3205
58.7442
59.1671
59.5892
60.0104
60.4306
60.8497
61.2675
61.684
62.0989
62.5122
62.9237
63.3332
63.7405
64.1456
64.5482
64.9482
65.3454
65.7398
66.1312
66.5195
66.9047
67.2865
67.6651
68.0404
68.4122
68.7806
69.1455
69.507
69.8649
70.2191
70.5713
70.923
71.2743
71.625
71.975
72.3242
72.6724
73.0193
73.3648
73.7087
74.0506
74.3902
74.7272
75.0612
75.3917
75.7184
76.0406
76.358
76.6701
76.9763
77.2763
77.5695
77.8554
78.1336
78.4036
78.6651
78.9175
79.1609
79.3949
79.6191
79.8332
80.037
80.2306
80.4138
80.5868
80.7499
80.9032
81.0471
81.182
81.3082
81.4263
81.5368
81.6402
81.7369
81.8276
81.9127
81.9927
82.068
82.1393
82.2067
82.2707
82.3316
82.3898
82.4459
82.5001
82.5529
82.6044
82.6549
82.7047
82.754
82.803
82.8519
82.9008
82.9499
82.9994
83.0493
83.0998
83.1581
83.2164
83.2722
83.3253
83.3755
83.4226
83.4665
83.5077
83.5469
83.5841
83.6197
83.6538
83.6868
83.7191
83.7508
83.7824
83.814
83.846
83.8786
83.9121
83.9466
83.9823
84.0194
84.0582
84.0986
84.1411
84.1854
84.232
84.2801
84.3294
84.3787
84.4292
84.4796
84.5315
84.5825
84.6357
84.6869
84.7414
84.792
84.8473
84.8946
84.9492
84.9917
85.0461
85.0827
85.1396
85.1751
85.1135
45.9379
45.3941
44.8318
44.2527
43.6594
43.0567
42.4495
41.8408
41.2336
40.6318
40.0393
39.4596
38.8953
62.1917
62.5834
62.9708
63.3535
63.7316
64.1049
64.4733
64.8368
65.1953
65.5488
65.8972
66.2405
66.5788
66.9121
67.2405
67.5641
67.883
68.1974
68.5073
68.813
69.1148
69.414
69.7119
70.0087
70.3046
70.5997
70.8942
71.1884
71.4822
71.776
72.0696
72.3634
72.6572
72.9512
73.2452
73.5393
73.8333
74.127
74.4204
74.7132
75.005
75.2956
75.5847
75.8719
76.1568
76.4389
76.718
76.9936
77.2653
77.5328
77.7956
78.0535
78.3059
78.5526
78.7934
79.0278
79.2557
79.4769
79.6911
79.8982
80.0981
80.2907
80.4761
80.6541
80.8249
80.9885
81.1449
81.2944
81.4371
81.573
81.7025
81.8256
81.9425
82.0534
82.1586
82.258
82.352
82.4406
82.524
82.6022
82.6753
82.7436
82.8071
82.866
82.9207
82.9714
83.0184
83.0621
83.1028
83.1412
83.1774
83.2119
83.245
83.2769
83.308
83.3383
83.368
83.3974
83.4265
83.4554
83.4842
83.513
83.5418
83.5706
83.6018
83.6345
83.6659
83.6964
83.7263
83.7557
83.7851
83.8146
83.8444
83.8747
83.9057
83.9375
83.9701
84.0038
84.0384
84.0742
84.1111
84.1491
84.1882
84.2284
84.2699
84.3126
84.3561
84.4001
84.4447
84.4905
84.5366
84.5824
84.6277
84.6726
84.7169
84.7605
84.8034
84.8455
84.8866
84.9266
84.9653
85.0025
85.0381
85.0718
85.1038
85.1248
85.1377
85.1491
85.1584
85.1657
85.1713
85.1756
85.1791
85.1819
85.1844
85.1869
85.1896
85.1929
85.1969
85.202
85.2083
85.216
85.2252
85.236
85.2485
85.2628
85.2787
85.2962
85.3152
85.3353
85.3565
85.3781
85.3998
85.4213
85.4438
85.4672
85.4914
85.5158
85.5408
85.5652
85.5897
85.613
85.6359
85.6565
85.6768
85.6941
85.7116
85.724
85.7379
85.7433
85.7504
85.7505
85.5545
62.136
61.5472
60.9343
60.3039
59.6616
59.0023
58.3204
57.6186
56.9008
56.1665
55.4132
54.6408
53.8526
76.7518
76.9759
77.198
77.4179
77.6355
77.8508
78.0635
78.2736
78.4809
78.6853
78.8868
79.0853
79.2806
79.4728
79.6616
79.8472
80.0292
80.2078
80.3827
80.5538
80.721
80.8842
81.0431
81.1977
81.3477
81.4929
81.633
81.768
81.8976
82.0217
82.1402
82.2528
82.3596
82.4605
82.5554
82.6444
82.7275
82.8048
82.8765
82.9428
83.0038
83.0599
83.1113
83.1585
83.2017
83.2415
83.278
83.3118
83.3433
83.3729
83.4009
83.4276
83.4533
83.4782
83.5026
83.5266
83.5504
83.5741
83.5979
83.6219
83.6462
83.6708
83.696
83.7217
83.748
83.7751
83.8028
83.8314
83.8608
83.891
83.9221
83.954
83.9869
84.0205
84.0549
84.0899
84.1255
84.1615
84.1976
84.2337
84.2694
84.3048
84.3395
84.3738
84.4077
84.4414
84.4752
84.5092
84.5428
84.5755
84.6073
84.6378
84.6671
84.6951
84.7217
84.7469
84.7706
84.7927
84.8135
84.8327
84.8507
84.8674
84.8829
84.8975
84.9086
84.9168
84.9247
84.9327
84.9409
84.9497
84.9592
84.9695
84.9809
84.9934
85.0071
85.0221
85.0384
85.0559
85.0748
85.0948
85.116
85.1382
85.1612
85.1848
85.2087
85.2327
85.2567
85.281
85.3048
85.3276
85.3498
85.3719
85.3938
85.4153
85.4361
85.456
85.4748
85.4922
85.5078
85.5214
85.5327
85.5413
85.547
85.5495
85.5485
85.5445
85.54
85.5358
85.5319
85.5285
85.5259
85.5242
85.5237
85.5244
85.5265
85.5301
85.5351
85.5418
85.5499
85.5595
85.5705
85.5828
85.5962
85.6105
85.6255
85.641
85.6568
85.6727
85.6885
85.7041
85.7193
85.7342
85.7491
85.7639
85.7784
85.792
85.8047
85.816
85.826
85.8343
85.8411
85.8458
85.8492
85.8501
85.8503
85.8474
85.8456
85.8385
85.836
85.8226
85.8126
85.783
85.3832
73.7029
73.1566
72.5912
72.0374
71.4769
70.8953
70.3123
69.7422
69.1794
68.6193
68.0692
67.538
67.0287
66.54
82.9158
82.9716
83.0235
83.0719
83.117
83.1591
83.1984
83.2353
83.27
83.3028
83.334
83.3638
83.3923
83.4199
83.4467
83.4729
83.4987
83.5243
83.5496
83.5748
83.6001
83.6254
83.6508
83.6765
83.7023
83.7285
83.7549
83.7817
83.8088
83.8363
83.8642
83.8924
83.921
83.9499
83.979
84.0083
84.0377
84.0669
84.0959
84.1245
84.1526
84.1802
84.2072
84.2336
84.2595
84.2851
84.3104
84.3357
84.3606
84.385
84.4087
84.4317
84.454
84.4755
84.4963
84.5164
84.5359
84.5549
84.5734
84.5915
84.6094
84.6271
84.6447
84.6623
84.6801
84.698
84.7161
84.7346
84.7534
84.7726
84.7921
84.8119
84.8319
84.8522
84.8725
84.8927
84.9129
84.933
84.953
84.973
84.9933
85.0137
85.0345
85.0555
85.0765
85.097
85.1165
85.1343
85.151
85.1668
85.1816
85.1953
85.208
85.2196
85.2302
85.2396
85.2481
85.2555
85.262
85.2675
85.2722
85.2762
85.2795
85.2822
85.2846
85.2878
85.2923
85.298
85.3051
85.3136
85.3234
85.3347
85.3472
85.361
85.376
85.3919
85.4088
85.4263
85.4443
85.4626
85.4808
85.4987
85.5162
85.5329
85.5489
85.5639
85.5781
85.5914
85.6039
85.6158
85.627
85.6371
85.6461
85.6537
85.6599
85.6645
85.6675
85.669
85.6689
85.6674
85.6647
85.6611
85.6569
85.6527
85.649
85.6465
85.6453
85.6455
85.647
85.65
85.6543
85.6601
85.667
85.6752
85.6844
85.6946
85.7055
85.7171
85.7291
85.7413
85.7537
85.766
85.7781
85.7899
85.8012
85.8119
85.822
85.8315
85.8402
85.8482
85.8554
85.8617
85.8671
85.871
85.8736
85.8747
85.8744
85.8727
85.8699
85.866
85.8614
85.8559
85.8505
85.8444
85.8396
85.8342
85.8322
85.8273
85.8272
85.8106
85.7893
85.6836
84.9514
77.9809
77.6478
77.3764
77.0837
76.7584
76.4724
76.2078
75.9366
75.6424
75.338
75.0278
74.7068
74.3724
74.0301
83.8674
83.8919
83.9162
83.9403
83.9643
83.9881
84.0117
84.0352
84.0585
84.0817
84.1049
84.1284
84.152
84.1756
84.199
84.2222
84.2452
84.268
84.2905
84.3126
84.3345
84.356
84.3772
84.3981
84.4187
84.4391
84.4591
84.4789
84.4985
84.5179
84.537
84.5559
84.5745
84.5929
84.611
84.6289
84.6466
84.6641
84.6816
84.6992
84.7169
84.7349
84.753
84.7714
84.7898
84.808
84.8257
84.8421
84.8576
84.8726
84.8869
84.9006
84.9137
84.9263
84.9385
84.9503
84.9619
84.9734
84.9848
84.9962
85.0078
85.0196
85.0317
85.0441
85.0569
85.0702
85.0838
85.0978
85.1123
85.1271
85.1422
85.1575
85.173
85.1885
85.2041
85.2196
85.235
85.2503
85.2654
85.2801
85.2945
85.3083
85.3213
85.3333
85.3441
85.3538
85.3625
85.3706
85.3779
85.3843
85.39
85.395
85.3994
85.4032
85.4067
85.4099
85.4129
85.4159
85.4191
85.4225
85.4264
85.4309
85.4363
85.4427
85.4504
85.4594
85.4697
85.4809
85.4932
85.5062
85.5199
85.534
85.5485
85.5631
85.5776
85.592
85.606
85.6194
85.6322
85.6442
85.6555
85.6658
85.6753
85.684
85.6919
85.6991
85.7056
85.7113
85.7164
85.7206
85.7237
85.7258
85.7269
85.7272
85.7268
85.7259
85.7247
85.7234
85.7222
85.7215
85.7214
85.7222
85.724
85.727
85.7311
85.7363
85.7426
85.7496
85.7575
85.7659
85.7749
85.7842
85.7937
85.8032
85.8127
85.8219
85.8308
85.8393
85.8472
85.8546
85.8613
85.8673
85.8725
85.877
85.8808
85.8838
85.8861
85.8877
85.8886
85.8888
85.8885
85.8875
85.8862
85.8845
85.8828
85.8812
85.88
85.8793
85.8794
85.8804
85.8828
85.8863
85.8918
85.8989
85.9089
85.9207
85.9352
85.9463
85.9498
85.919
85.8514
85.5666
84.3574
78.4966
78.195
77.9673
77.6993
77.4047
77.2133
77.0754
76.8896
76.6852
76.539
76.4408
76.3686
76.3236
76.3064
84.3521
84.3704
84.3889
84.4077
84.4269
84.4464
84.4663
84.4865
84.5069
84.5275
84.548
84.5681
84.5875
84.6065
84.6252
84.6435
84.6613
84.6786
84.6955
84.712
84.728
84.7436
84.7588
84.7737
84.7882
84.8024
84.8163
84.83
84.8434
84.8566
84.8696
84.8824
84.8951
84.9077
84.9202
84.9328
84.9453
84.9579
84.9706
84.9833
84.9959
85.0083
85.0204
85.0321
85.0432
85.0537
85.0637
85.0734
85.0831
85.0925
85.1017
85.1108
85.1199
85.129
85.1383
85.1477
85.1574
85.1674
85.1778
85.1884
85.1995
85.211
85.2228
85.2349
85.2474
85.2601
85.273
85.2861
85.2992
85.3124
85.3255
85.3384
85.3511
85.3636
85.3756
85.3872
85.3983
85.4088
85.4186
85.4278
85.4362
85.4438
85.4507
85.457
85.4627
85.4681
85.473
85.4777
85.4818
85.4858
85.4895
85.4933
85.4973
85.5016
85.5063
85.5116
85.5176
85.5243
85.5318
85.5402
85.5494
85.5595
85.5705
85.5821
85.5944
85.607
85.6199
85.6329
85.6458
85.6584
85.6707
85.6825
85.6938
85.7044
85.7142
85.7234
85.7318
85.7394
85.7463
85.7525
85.7579
85.7627
85.7669
85.7705
85.7735
85.7759
85.7778
85.7792
85.78
85.7805
85.7807
85.7808
85.781
85.7813
85.7821
85.7833
85.7851
85.7876
85.7908
85.7948
85.7996
85.8051
85.8112
85.8178
85.8248
85.8321
85.8396
85.8472
85.8547
85.8622
85.8695
85.8765
85.8833
85.8897
85.8958
85.9015
85.9068
85.9118
85.9164
85.9207
85.9247
85.9285
85.9321
85.9356
85.9389
85.9423
85.9458
85.9494
85.9533
85.9575
85.9621
85.9673
85.9731
85.9797
85.987
85.9951
86.0042
86.0139
86.0245
86.0357
86.0477
86.0602
86.0739
86.0884
86.1046
86.1202
86.133
86.1264
86.0894
85.9692
85.7355
85.2137
83.3882
78.6248
78.3607
78.1613
77.902
77.6389
77.481
77.3795
77.2151
77.0556
76.9547
76.8875
76.8602
76.8675
84.6472
84.6626
84.6784
84.6943
84.7104
84.7266
84.7427
84.7587
84.7743
84.7895
84.8044
84.8189
84.8333
84.8474
84.8612
84.8746
84.8878
84.9006
84.9132
84.9254
84.9374
84.9491
84.9606
84.9719
84.9829
84.9937
85.0044
85.0148
85.0251
85.0353
85.0453
85.0553
85.0651
85.0749
85.0846
85.0943
85.1039
85.1133
85.1227
85.1318
85.1408
85.1496
85.1583
85.1669
85.1755
85.1842
85.1931
85.2021
85.2113
85.2205
85.2299
85.2395
85.2494
85.2595
85.2699
85.2806
85.2915
85.3027
85.3141
85.3257
85.3375
85.3494
85.3614
85.3733
85.3852
85.3971
85.4087
85.4202
85.4315
85.4424
85.4531
85.4633
85.4732
85.4826
85.4915
85.5
85.5079
85.5154
85.5223
85.5289
85.535
85.5408
85.5463
85.5517
85.5569
85.562
85.5672
85.5723
85.5777
85.5835
85.5896
85.5964
85.6037
85.6117
85.6203
85.6296
85.6396
85.6501
85.661
85.6724
85.684
85.6958
85.7075
85.719
85.7303
85.7411
85.7515
85.7612
85.7702
85.7785
85.786
85.7928
85.7988
85.8041
85.8087
85.8126
85.8159
85.8187
85.821
85.8229
85.8244
85.8255
85.8264
85.8271
85.8277
85.8282
85.8288
85.8296
85.8307
85.8322
85.8342
85.8369
85.8402
85.8442
85.8489
85.8543
85.8603
85.867
85.8743
85.882
85.89
85.8984
85.9069
85.9155
85.9241
85.9326
85.941
85.9492
85.9571
85.9647
85.9719
85.9788
85.9853
85.9913
85.9969
86.002
86.0067
86.011
86.0148
86.0182
86.0212
86.0238
86.026
86.0279
86.0296
86.0309
86.032
86.0329
86.0337
86.0343
86.0347
86.0351
86.0354
86.0355
86.0356
86.0355
86.0353
86.0349
86.0343
86.0336
86.033
86.0326
86.0336
86.0357
86.0392
86.0382
86.0225
85.9657
85.841
85.5948
85.1405
84.3696
82.0325
78.4777
78.2715
78.0996
77.86
77.6666
77.5433
77.4582
77.3437
77.2385
77.16
77.1196
77.1262
77.1701
84.8574
84.871
84.8844
84.8977
84.9108
84.9238
84.9366
84.9492
84.9618
84.9742
84.9864
84.9984
85.0101
85.0215
85.0326
85.0435
85.0542
85.0646
85.0748
85.0848
85.0946
85.1042
85.1136
85.1229
85.132
85.141
85.1499
85.1587
85.1675
85.1762
85.1848
85.1934
85.202
85.2105
85.2191
85.2276
85.2362
85.2449
85.2536
85.2626
85.2717
85.281
85.2905
85.3002
85.3102
85.3202
85.3305
85.3409
85.3515
85.3623
85.3732
85.3843
85.3954
85.4066
85.4179
85.4291
85.4403
85.4514
85.4624
85.4732
85.4839
85.4943
85.5045
85.5145
85.5242
85.5337
85.5429
85.5518
85.5604
85.5687
85.5767
85.5845
85.5919
85.5992
85.6062
85.613
85.6197
85.6263
85.6328
85.6393
85.6458
85.6524
85.6592
85.6661
85.6733
85.6808
85.6887
85.697
85.7057
85.7147
85.7241
85.7337
85.7435
85.7535
85.7634
85.7732
85.7829
85.7922
85.8011
85.8095
85.8174
85.8246
85.8312
85.8371
85.8423
85.8469
85.8508
85.8542
85.857
85.8594
85.8614
85.863
85.8645
85.8659
85.8673
85.8688
85.8704
85.8723
85.8745
85.8771
85.8801
85.8836
85.8876
85.8923
85.8976
85.9035
85.9101
85.9172
85.9249
85.933
85.9415
85.9503
85.9592
85.9682
85.977
85.9855
85.9937
86.0014
86.0084
86.0148
86.0203
86.0249
86.0286
86.0313
86.033
86.0336
86.0332
86.0317
86.0293
86.0259
86.0217
86.0167
86.011
86.0049
85.9984
85.9916
85.9849
85.9783
85.972
85.9662
85.9611
85.9569
85.9538
85.9519
85.9514
85.9522
85.9545
85.9582
85.9633
85.9697
85.9773
85.9861
85.996
86.0068
86.0184
86.0306
86.0434
86.0566
86.0707
86.086
86.1036
86.1229
86.1412
86.1479
86.1187
86.03
85.8021
85.4548
84.8118
83.8559
81.2485
78.0547
77.8876
77.7095
77.5705
77.4606
77.3848
77.3359
77.2957
77.2673
77.2682
77.3111
77.3945
84.998
85.0103
85.0225
85.0346
85.0466
85.0584
85.0701
85.0816
85.0929
85.1039
85.1147
85.1252
85.1355
85.1455
85.1552
85.1648
85.1742
85.1833
85.1923
85.2012
85.2099
85.2186
85.2271
85.2356
85.244
85.2524
85.2609
85.2693
85.2778
85.2863
85.2949
85.3036
85.3124
85.3213
85.3304
85.3396
85.349
85.3586
85.3683
85.3783
85.3884
85.3986
85.409
85.4195
85.4301
85.4408
85.4515
85.4623
85.473
85.4838
85.4945
85.5051
85.5156
85.526
85.5362
85.5463
85.5561
85.5657
85.5752
85.5844
85.5934
85.6023
85.6109
85.6194
85.6277
85.6359
85.6439
85.6518
85.6596
85.6672
85.6748
85.6823
85.6897
85.6971
85.7045
85.7118
85.7192
85.7266
85.734
85.7415
85.749
85.7566
85.7643
85.7721
85.7799
85.7878
85.7957
85.8036
85.8115
85.8193
85.8269
85.8343
85.8416
85.8485
85.8551
85.8614
85.8674
85.8729
85.8781
85.883
85.8875
85.8918
85.8957
85.8995
85.9031
85.9066
85.91
85.9135
85.9171
85.9208
85.9246
85.9287
85.9331
85.9378
85.9428
85.948
85.9536
85.9594
85.9654
85.9715
85.9777
85.9839
85.99
85.9958
86.0013
86.0064
86.011
86.0149
86.018
86.0203
86.0216
86.0219
86.0212
86.0195
86.0167
86.0129
86.0082
86.0026
85.9964
85.9896
85.9825
85.9752
85.9681
85.9613
85.955
85.9497
85.9454
85.9424
85.9409
85.941
85.9428
85.9465
85.9522
85.96
85.9698
85.9818
85.9959
86.0119
86.0297
86.0492
86.0701
86.0922
86.1152
86.139
86.1638
86.1896
86.2164
86.2441
86.2725
86.3008
86.3283
86.3546
86.3792
86.4018
86.4219
86.4391
86.4532
86.4642
86.4724
86.4788
86.4837
86.486
86.4771
86.441
86.3392
86.1489
85.7959
85.2966
84.5007
83.3742
80.8373
77.8173
77.6818
77.5624
77.4583
77.3751
77.3246
77.3112
77.3216
77.348
77.3961
85.1277
85.1391
85.1504
85.1614
85.1723
85.1829
85.1933
85.2035
85.2134
85.223
85.2324
85.2416
85.2507
85.2595
85.2682
85.2767
85.2852
85.2936
85.3019
85.3102
85.3185
85.3268
85.3351
85.3435
85.352
85.3606
85.3692
85.378
85.387
85.396
85.4052
85.4146
85.4241
85.4337
85.4436
85.4535
85.4636
85.4738
85.484
85.4944
85.5048
85.5152
85.5256
85.536
85.5464
85.5567
85.5669
85.577
85.5869
85.5967
85.6063
85.6157
85.6249
85.6339
85.6426
85.6512
85.6596
85.6678
85.6758
85.6837
85.6915
85.6992
85.7068
85.7143
85.7217
85.7291
85.7364
85.7438
85.7511
85.7584
85.7657
85.773
85.7803
85.7877
85.7951
85.8025
85.8099
85.8173
85.8247
85.8321
85.8395
85.8469
85.8542
85.8614
85.8685
85.8756
85.8825
85.8893
85.8959
85.9025
85.9089
85.9151
85.9213
85.9273
85.9332
85.939
85.9447
85.9502
85.9556
85.9608
85.9659
85.9708
85.9755
85.98
85.9843
85.9883
85.992
85.9955
85.9985
86.0013
86.0036
86.0055
86.007
86.008
86.0085
86.0084
86.0078
86.0067
86.0049
86.0027
85.9999
85.9966
85.9929
85.9889
85.9847
85.9804
85.9762
85.9724
85.969
85.9662
85.9643
85.9633
85.9633
85.9646
85.9673
85.9716
85.9776
85.9854
85.995
86.0066
86.0201
86.0354
86.0526
86.0715
86.092
86.1139
86.1375
86.1631
86.1907
86.2202
86.2508
86.282
86.3136
86.3452
86.3763
86.4066
86.4355
86.4625
86.487
86.5084
86.5261
86.5396
86.5482
86.5517
86.5516
86.5477
86.5397
86.5271
86.5096
86.4884
86.4642
86.4372
86.408
86.3766
86.3436
86.3098
86.2765
86.245
86.2176
86.1969
86.1844
86.1792
86.1624
86.1145
85.9872
85.7588
85.3698
84.8169
84.0484
82.8601
80.7324
77.5442
77.4526
77.3863
77.3424
77.3244
77.3376
77.3801
77.4467
77.536
85.2588
85.2688
85.2785
85.288
85.2973
85.3064
85.3153
85.324
85.3325
85.341
85.3493
85.3575
85.3656
85.3738
85.3819
85.39
85.3982
85.4065
85.4148
85.4232
85.4318
85.4404
85.4492
85.4581
85.4672
85.4764
85.4857
85.4952
85.5048
85.5145
85.5243
85.5342
85.5442
85.5542
85.5643
85.5744
85.5845
85.5945
85.6045
85.6144
85.6242
85.6339
85.6434
85.6528
85.662
85.6709
85.6796
85.6881
85.6964
85.7044
85.7122
85.7198
85.7272
85.7344
85.7414
85.7484
85.7553
85.7621
85.7688
85.7756
85.7824
85.7893
85.7962
85.8032
85.8104
85.8176
85.825
85.8326
85.8403
85.8482
85.8562
85.8643
85.8726
85.881
85.8895
85.898
85.9066
85.9151
85.9235
85.9318
85.9399
85.9477
85.9553
85.9626
85.9695
85.976
85.9821
85.9878
85.993
85.9977
86.0019
86.0056
86.0088
86.0115
86.0136
86.0151
86.016
86.0163
86.0161
86.0152
86.0138
86.0118
86.0094
86.0066
86.0034
86
85.9964
85.9929
85.9896
85.9867
85.9843
85.9825
85.9817
85.9818
85.9829
85.9851
85.9887
85.9935
85.9999
86.0077
86.017
86.0279
86.0403
86.0543
86.0697
86.0865
86.1047
86.1241
86.145
86.168
86.1927
86.2185
86.2452
86.2728
86.3009
86.3294
86.3578
86.3858
86.413
86.439
86.4633
86.4852
86.5042
86.5198
86.5312
86.5393
86.5444
86.5461
86.5442
86.5398
86.5329
86.5234
86.5111
86.4963
86.4792
86.4599
86.4389
86.4167
86.3941
86.372
86.3514
86.3335
86.3187
86.303
86.286
86.2685
86.2513
86.2354
86.2207
86.2071
86.1952
86.1854
86.1783
86.1742
86.1736
86.1772
86.1861
86.2016
86.2255
86.2565
86.2899
86.3067
86.2822
86.1682
85.949
85.5704
85.0376
84.3167
83.1135
81.6864
77.4818
77.4129
85.3676
85.3763
85.3849
85.3933
85.4016
85.4098
85.4178
85.4258
85.4338
85.4418
85.4497
85.4577
85.4658
85.4739
85.4821
85.4904
85.4989
85.5075
85.5162
85.525
85.534
85.5431
85.5523
85.5616
85.571
85.5805
85.5901
85.5997
85.6094
85.6191
85.6287
85.6384
85.648
85.6575
85.6669
85.6763
85.6854
85.6944
85.7033
85.7119
85.7204
85.7286
85.7366
85.7444
85.752
85.7594
85.7666
85.7736
85.7805
85.7873
85.794
85.8007
85.8073
85.8141
85.8209
85.8278
85.8349
85.8422
85.8496
85.8574
85.8654
85.8736
85.8821
85.8908
85.8997
85.9088
85.918
85.9274
85.9367
85.946
85.9552
85.9642
85.9729
85.9813
85.9893
85.9968
86.0036
86.0098
86.0153
86.02
86.0239
86.0269
86.029
86.0303
86.0308
86.0304
86.0294
86.0278
86.0256
86.0231
86.0203
86.0175
86.0147
86.0122
86.0101
86.0086
86.0079
86.0081
86.0093
86.0117
86.0152
86.0201
86.0264
86.0342
86.0435
86.0544
86.0667
86.0805
86.0957
86.1122
86.13
86.1489
86.1695
86.1917
86.215
86.2391
86.264
86.2893
86.3149
86.3405
86.3658
86.3905
86.4141
86.4362
86.4564
86.474
86.4886
86.4996
86.5071
86.5119
86.5144
86.5153
86.5146
86.5121
86.5077
86.5015
86.4935
86.4839
86.4729
86.4608
86.4482
86.4359
86.4245
86.4152
86.409
86.4038
86.3973
86.3901
86.3826
86.3743
86.3655
86.3565
86.3476
86.3392
86.3315
86.3249
86.3196
86.3158
86.3136
86.3128
86.3131
86.3139
86.3149
86.3183
86.3246
86.334
86.3464
86.3618
86.38
86.4013
86.4256
86.453
86.4834
86.5167
86.553
86.5927
86.6367
86.6867
86.7447
86.8094
86.8749
86.9173
86.9067
86.7976
86.5828
86.224
85.687
84.9877
83.8723
82.984
85.4666
85.4746
85.4824
85.4903
85.4981
85.5059
85.5137
85.5216
85.5295
85.5375
85.5456
85.5538
85.5621
85.5705
85.579
85.5877
85.5965
85.6054
85.6143
85.6234
85.6325
85.6417
85.6509
85.6601
85.6694
85.6786
85.6878
85.6969
85.706
85.715
85.7239
85.7327
85.7413
85.7499
85.7583
85.7666
85.7747
85.7828
85.7907
85.7985
85.8062
85.8138
85.8213
85.8288
85.8363
85.8438
85.8513
85.8588
85.8664
85.8741
85.8819
85.8898
85.8978
85.906
85.9142
85.9226
85.931
85.9394
85.9479
85.9562
85.9645
85.9726
85.9806
85.9882
85.9955
86.0024
86.0088
86.0147
86.0201
86.0249
86.029
86.0326
86.0355
86.0378
86.0395
86.0408
86.0417
86.0423
86.0427
86.0432
86.0438
86.0448
86.0462
86.0483
86.0512
86.0551
86.06
86.0662
86.0738
86.0828
86.0933
86.1052
86.1186
86.1334
86.1495
86.1668
86.1855
86.2057
86.227
86.2491
86.2719
86.2953
86.3189
86.3426
86.3659
86.3887
86.4105
86.4308
86.4492
86.4652
86.4781
86.4873
86.4933
86.4968
86.499
86.4998
86.4991
86.4967
86.4928
86.4872
86.4804
86.4723
86.4633
86.454
86.4451
86.4374
86.4318
86.4295
86.4296
86.4294
86.4289
86.4277
86.4261
86.4241
86.4221
86.4202
86.4188
86.418
86.4179
86.4188
86.4206
86.4232
86.4263
86.4294
86.4315
86.4335
86.4368
86.4412
86.4466
86.4531
86.461
86.4703
86.4812
86.4938
86.5079
86.5237
86.5412
86.5602
86.5808
86.6029
86.6267
86.6523
86.6803
86.7109
86.744
86.7794
86.8168
86.8563
86.8977
86.9408
86.9853
87.0311
87.0777
87.1251
87.1732
87.2225
87.2742
87.33
87.3921
87.4587
87.5225
87.5582
87.5346
87.4114
87.1837
86.8158
86.2587
85.5728
84.5888
83.9844
85.5594
85.5671
85.5748
85.5825
85.5903
85.5981
85.6061
85.6141
85.6222
85.6304
85.6387