/*--------------------------------*- C++ -*----------------------------------*\
| =========                 |                                                 |
| \\      /  F ield         | OpenFOAM: The Open Source CFD Toolbox           |
|  \\    /   O peration     | Version:  v1706                                 |
|   \\  /    A nd           | Web:      www.OpenFOAM.com                      |
|    \\/     M anipulation  |                                                 |
\*---------------------------------------------------------------------------*/
FoamFile
{
    version     2.0;
    format      ascii;
    class       volScalarField;
    location    "1.1e-05";
    object      Tt;
}
// * * * * * * * * * * * * * * * * * * * * * * * * * * * * * * * * * * * * * //

dimensions      [0 0 0 1 0 0 0];


internalField   nonuniform List<scalar> 
30104
(
144.601
144.595
144.59
144.584
144.578
144.573
144.567
144.561
144.555
144.55
144.544
144.539
144.533
144.528
144.523
144.518
144.513
144.54
144.541
144.542
144.543
144.544
144.545
144.546
144.547
144.548
144.549
144.55
144.551
144.552
144.553
144.555
144.556
144.557
144.558
144.559
144.56
144.562
144.563
144.564
144.565
144.567
144.568
144.569
144.571
144.572
144.573
144.575
144.576
144.577
144.579
144.58
144.582
144.583
144.585
144.586
144.588
144.589
144.591
144.592
144.594
144.595
144.597
144.599
144.6
144.602
144.604
144.605
144.607
144.609
144.61
144.612
144.614
144.616
144.617
144.619
144.621
144.623
144.624
144.626
144.628
144.63
144.632
144.633
144.635
144.637
144.639
144.641
144.642
144.644
144.646
144.648
144.65
144.652
144.654
144.655
144.657
144.659
144.661
144.663
144.665
144.667
144.669
144.671
144.673
144.676
144.678
144.68
144.682
144.684
144.687
144.689
144.691
144.694
144.696
144.698
144.701
144.704
144.706
144.709
144.712
144.714
144.717
144.72
144.723
144.726
144.729
144.732
144.735
144.738
144.741
144.745
144.748
144.751
144.755
144.758
144.762
144.765
144.769
144.773
144.776
144.78
144.784
144.787
144.791
144.795
144.799
144.802
144.806
144.81
144.814
144.818
144.821
144.825
144.829
144.833
144.837
144.84
144.844
144.848
144.852
144.855
144.859
144.863
144.867
144.87
144.874
144.878
144.882
144.886
144.889
144.893
144.897
144.901
144.905
144.909
144.914
144.918
144.922
144.926
144.931
144.935
144.94
144.945
144.949
144.954
144.959
144.964
144.97
144.975
144.981
144.986
144.992
144.998
145.004
145.011
145.017
145.024
145.031
145.038
145.045
145.053
145.06
145.068
145.076
145.084
145.092
145.1
145.096
145.007
145.539
145.509
145.479
145.448
145.416
145.385
145.353
145.321
145.289
145.258
145.227
145.196
145.166
145.137
145.109
145.082
145.056
145.314
145.322
145.33
145.338
145.346
145.354
145.362
145.37
145.379
145.387
145.396
145.404
145.413
145.422
145.43
145.439
145.448
145.457
145.466
145.475
145.485
145.494
145.503
145.513
145.523
145.532
145.542
145.552
145.562
145.572
145.582
145.593
145.603
145.614
145.625
145.636
145.647
145.658
145.67
145.681
145.693
145.705
145.717
145.729
145.742
145.754
145.767
145.78
145.793
145.806
145.819
145.833
145.847
145.861
145.875
145.889
145.903
145.918
145.932
145.947
145.962
145.977
145.993
146.008
146.024
146.039
146.055
146.071
146.087
146.103
146.12
146.136
146.153
146.17
146.187
146.204
146.221
146.238
146.256
146.273
146.291
146.309
146.327
146.346
146.364
146.383
146.402
146.421
146.441
146.46
146.48
146.501
146.521
146.542
146.563
146.584
146.606
146.628
146.651
146.674
146.697
146.721
146.745
146.77
146.795
146.82
146.847
146.873
146.9
146.928
146.956
146.985
147.014
147.044
147.074
147.104
147.136
147.167
147.2
147.232
147.265
147.299
147.333
147.367
147.402
147.437
147.473
147.509
147.545
147.582
147.618
147.655
147.692
147.729
147.767
147.804
147.842
147.88
147.917
147.955
147.992
148.03
148.068
148.105
148.143
148.181
148.219
148.257
148.295
148.333
148.372
148.41
148.449
148.488
148.528
148.567
148.607
148.647
148.688
148.728
148.77
148.812
148.854
148.897
148.94
148.984
149.029
149.074
149.12
149.167
149.215
149.264
149.313
149.364
149.416
149.469
149.523
149.578
149.635
149.693
149.752
149.813
149.876
149.94
150.006
150.074
150.143
150.215
150.288
150.363
150.442
150.461
150.067
147.754
147.67
147.583
147.494
147.403
147.312
147.22
147.127
147.036
146.944
146.854
146.766
146.679
146.595
146.513
146.434
147.484
147.514
147.545
147.576
147.607
147.639
147.671
147.704
147.736
147.769
147.803
147.837
147.871
147.905
147.94
147.975
148.011
148.047
148.084
148.12
148.158
148.195
148.234
148.272
148.311
148.351
148.391
148.432
148.473
148.514
148.557
148.599
148.643
148.687
148.732
148.777
148.823
148.87
148.917
148.965
149.014
149.063
149.113
149.164
149.216
149.268
149.322
149.376
149.431
149.486
149.543
149.6
149.658
149.717
149.776
149.837
149.898
149.96
150.023
150.087
150.151
150.216
150.282
150.349
150.416
150.484
150.553
150.622
150.692
150.762
150.834
150.905
150.978
151.05
151.124
151.198
151.272
151.347
151.422
151.498
151.574
151.651
151.729
151.807
151.886
151.965
152.045
152.126
152.208
152.29
152.374
152.458
152.543
152.63
152.717
152.806
152.896
152.987
153.079
153.173
153.269
153.366
153.465
153.566
153.668
153.773
153.879
153.988
154.098
154.211
154.326
154.444
154.563
154.685
154.81
154.937
155.067
155.2
155.335
155.472
155.613
155.756
155.902
156.05
156.202
156.356
156.513
156.672
156.834
156.998
157.165
157.335
157.506
157.68
157.856
158.034
158.213
158.394
158.577
158.76
158.944
159.128
159.313
159.497
159.682
159.868
160.053
160.239
160.426
160.612
160.799
160.986
161.173
161.361
161.549
161.737
161.926
162.116
162.306
162.497
162.688
162.881
163.074
163.269
163.464
163.661
163.86
164.06
164.262
164.467
164.673
164.882
165.093
165.308
165.525
165.746
165.971
166.2
166.432
166.67
166.911
167.159
167.411
167.67
167.934
168.206
168.482
168.769
169.058
169.365
169.661
169.936
169.055
152.572
152.373
152.168
151.959
151.746
151.53
151.314
151.097
150.88
150.666
150.454
150.245
150.041
149.841
149.648
149.461
153.18
153.278
153.377
153.478
153.579
153.682
153.786
153.891
153.998
154.105
154.214
154.324
154.435
154.546
154.659
154.773
154.889
155.005
155.122
155.24
155.359
155.479
155.6
155.723
155.846
155.971
156.097
156.224
156.353
156.483
156.615
156.748
156.882
157.019
157.157
157.296
157.438
157.581
157.727
157.874
158.024
158.175
158.329
158.486
158.644
158.805
158.969
159.135
159.304
159.475
159.649
159.826
160.006
160.189
160.374
160.563
160.754
160.949
161.146
161.347
161.551
161.757
161.967
162.18
162.396
162.615
162.837
163.062
163.291
163.522
163.756
163.993
164.232
164.475
164.72
164.967
165.217
165.468
165.722
165.976
166.233
166.491
166.75
167.012
167.274
167.538
167.804
168.072
168.34
168.611
168.883
169.157
169.433
169.711
169.991
170.274
170.559
170.846
171.137
171.43
171.726
172.026
172.329
172.636
172.947
173.262
173.581
173.906
174.235
174.569
174.909
175.255
175.607
175.965
176.33
176.702
177.08
177.466
177.86
178.262
178.671
179.089
179.515
179.95
180.394
180.846
181.308
181.778
182.258
182.746
183.244
183.751
184.267
184.791
185.325
185.868
186.419
186.979
187.547
188.125
188.711
189.299
189.886
190.471
191.055
191.637
192.217
192.795
193.371
193.945
194.517
195.087
195.655
196.221
196.784
197.345
197.904
198.461
199.015
199.567
200.116
200.662
201.205
201.746
202.283
202.816
203.346
203.873
204.395
204.912
205.426
205.934
206.437
206.935
207.427
207.913
208.393
208.867
209.332
209.793
210.243
210.689
211.124
211.555
211.973
212.388
212.789
213.189
213.571
213.957
214.325
214.69
213.987
162.098
161.692
161.273
160.845
160.408
159.966
159.52
159.073
158.626
158.182
157.743
157.31
156.886
156.472
156.069
166.169
166.412
166.659
166.909
167.161
167.417
167.677
167.939
168.204
168.473
168.744
169.019
169.297
169.577
169.861
170.148
170.438
170.731
171.026
171.324
171.625
171.929
172.234
172.542
172.853
173.167
173.483
173.802
174.124
174.449
174.777
175.108
175.442
175.78
176.121
176.466
176.815
177.167
177.523
177.883
178.247
178.616
178.988
179.366
179.747
180.133
180.524
180.92
181.32
181.726
182.137
182.553
182.974
183.4
183.833
184.27
184.713
185.162
185.617
186.077
186.543
187.014
187.492
187.975
188.463
188.958
189.457
189.962
190.472
190.988
191.508
192.033
192.563
193.097
193.636
194.18
194.728
195.28
195.833
196.385
196.933
197.479
198.022
198.561
199.096
199.628
200.156
200.679
201.198
201.713
202.223
202.729
203.23
203.727
204.219
204.707
205.191
205.67
206.144
206.614
207.08
207.54
207.996
208.448
208.894
209.336
209.773
210.205
210.633
211.055
211.472
211.884
212.29
212.691
213.086
213.475
213.859
214.236
214.607
214.972
215.33
215.681
216.027
216.365
216.697
217.022
217.341
217.653
217.959
218.258
218.551
218.838
219.118
219.392
219.66
219.922
220.177
220.425
220.667
220.903
221.131
221.354
221.573
221.788
221.997
222.203
222.405
222.602
222.794
222.981
223.164
223.34
223.51
223.674
223.831
223.98
224.123
224.258
224.385
224.504
224.616
224.719
224.815
224.902
224.982
225.054
225.119
225.177
225.228
225.273
225.312
225.345
225.373
225.396
225.416
225.43
225.444
225.453
225.463
225.467
225.474
225.476
225.483
225.485
225.493
225.498
225.509
225.517
225.533
225.544
225.575
225.579
225.243
178.463
177.814
177.142
176.45
175.743
175.021
174.289
173.549
172.805
172.059
171.314
170.575
169.842
169.12
168.411
167.719
189.613
190.069
190.529
190.995
191.464
191.938
192.417
192.9
193.387
193.878
194.372
194.87
195.372
195.876
196.383
196.893
197.405
197.919
198.434
198.951
199.469
199.987
200.501
201.013
201.52
202.024
202.525
203.02
203.512
203.999
204.481
204.959
205.431
205.898
206.36
206.816
207.267
207.712
208.152
208.585
209.013
209.435
209.851
210.262
210.666
211.064
211.457
211.843
212.224
212.599
212.968
213.33
213.687
214.038
214.383
214.723
215.056
215.384
215.705
216.021
216.331
216.636
216.934
217.227
217.515
217.796
218.073
218.343
218.608
218.868
219.122
219.371
219.615
219.854
220.087
220.315
220.538
220.755
220.968
221.177
221.383
221.586
221.785
221.98
222.173
222.361
222.547
222.729
222.908
223.083
223.255
223.424
223.589
223.75
223.908
224.061
224.211
224.356
224.497
224.634
224.766
224.893
225.016
225.133
225.246
225.354
225.456
225.554
225.646
225.733
225.816
225.893
225.965
226.033
226.096
226.155
226.21
226.262
226.31
226.355
226.397
226.437
226.475
226.51
226.544
226.577
226.608
226.639
226.668
226.697
226.724
226.752
226.779
226.806
226.832
226.859
226.886
226.912
226.939
226.967
226.994
227.022
227.051
227.08
227.111
227.148
227.186
227.223
227.258
227.292
227.325
227.356
227.385
227.414
227.441
227.467
227.493
227.518
227.543
227.568
227.593
227.618
227.645
227.672
227.7
227.73
227.762
227.795
227.831
227.87
227.912
227.957
228.006
228.058
228.113
228.169
228.228
228.288
228.351
228.415
228.483
228.552
228.625
228.699
228.777
228.854
228.937
229.016
229.103
229.183
229.278
229.368
229.271
198.876
198.041
197.177
196.287
195.372
194.438
193.487
192.523
191.549
190.57
189.589
188.612
187.642
215.302
215.618
215.927
216.229
216.525
216.814
217.097
217.373
217.643
217.906
218.163
218.413
218.658
218.896
219.127
219.353
219.573
219.786
219.994
220.196
220.393
220.584
220.772
220.955
221.135
221.311
221.483
221.652
221.819
221.982
222.142
222.3
222.455
222.608
222.758
222.907
223.053
223.197
223.34
223.48
223.618
223.755
223.889
224.021
224.152
224.28
224.406
224.529
224.651
224.769
224.886
225
225.111
225.22
225.326
225.429
225.529
225.627
225.721
225.813
225.902
225.988
226.071
226.151
226.228
226.303
226.375
226.444
226.51
226.574
226.635
226.694
226.75
226.804
226.856
226.905
226.953
226.998
227.04
227.081
227.12
227.156
227.191
227.224
227.255
227.285
227.313
227.34
227.366
227.391
227.416
227.44
227.464
227.487
227.51
227.534
227.557
227.581
227.605
227.629
227.653
227.677
227.702
227.727
227.753
227.781
227.809
227.836
227.862
227.888
227.914
227.941
227.967
227.994
228.022
228.05
228.079
228.109
228.14
228.172
228.206
228.241
228.278
228.316
228.356
228.398
228.443
228.489
228.537
228.588
228.641
228.695
228.749
228.804
228.86
228.917
228.974
229.032
229.091
229.15
229.21
229.271
229.332
229.393
229.455
229.509
229.558
229.607
229.655
229.702
229.748
229.794
229.84
229.887
229.934
229.983
230.032
230.083
230.137
230.192
230.249
230.309
230.372
230.438
230.506
230.578
230.652
230.729
230.808
230.89
230.973
231.058
231.143
231.228
231.317
231.41
231.506
231.605
231.708
231.813
231.922
232.032
232.145
232.259
232.375
232.492
232.612
232.731
232.852
232.971
233.091
233.211
233.074
214.595
213.938
213.264
212.578
211.881
211.169
210.441
209.699
208.942
208.172
207.387
206.589
205.78
224.543
224.644
224.743
224.841
224.937
225.031
225.123
225.213
225.302
225.388
225.473
225.556
225.638
225.717
225.795
225.871
225.946
226.019
226.09
226.16
226.228
226.295
226.361
226.424
226.487
226.548
226.608
226.666
226.722
226.777
226.831
226.883
226.933
226.981
227.028
227.073
227.116
227.158
227.198
227.236
227.273
227.308
227.342
227.375
227.407
227.437
227.467
227.496
227.525
227.553
227.581
227.608
227.636
227.663
227.691
227.718
227.746
227.773
227.801
227.829
227.857
227.885
227.913
227.942
227.97
228
228.029
228.059
228.089
228.119
228.15
228.182
228.214
228.246
228.279
228.313
228.347
228.382
228.418
228.453
228.49
228.526
228.563
228.6
228.638
228.676
228.717
228.758
228.8
228.843
228.885
228.928
228.97
229.013
229.055
229.098
229.14
229.182
229.224
229.266
229.308
229.35
229.392
229.435
229.476
229.515
229.555
229.595
229.636
229.679
229.722
229.767
229.814
229.863
229.914
229.967
230.022
230.079
230.138
230.199
230.262
230.328
230.394
230.463
230.533
230.603
230.674
230.745
230.816
230.886
230.957
231.03
231.104
231.181
231.258
231.338
231.418
231.499
231.581
231.664
231.746
231.829
231.911
231.992
232.072
232.152
232.233
232.316
232.401
232.489
232.579
232.672
232.769
232.868
232.971
233.078
233.188
233.302
233.42
233.542
233.668
233.798
233.931
234.069
234.21
234.355
234.503
234.655
234.81
234.97
235.132
235.299
235.471
235.647
235.827
236.009
236.194
236.382
236.572
236.764
236.959
237.156
237.354
237.555
237.758
237.963
238.171
238.38
238.594
238.802
239.015
239.2
238.947
221.518
220.999
220.487
219.988
219.493
219.002
218.523
218.057
217.599
217.151
216.717
216.3
215.899
215.515
227.202
227.236
227.269
227.3
227.331
227.36
227.389
227.418
227.446
227.473
227.5
227.528
227.555
227.582
227.609
227.636
227.663
227.691
227.719
227.748
227.776
227.805
227.835
227.865
227.895
227.926
227.956
227.988
228.019
228.051
228.083
228.116
228.149
228.182
228.216
228.249
228.283
228.318
228.352
228.386
228.421
228.456
228.49
228.525
228.56
228.595
228.631
228.668
228.705
228.742
228.78
228.817
228.854
228.892
228.929
228.967
229.004
229.042
229.08
229.118
229.157
229.196
229.235
229.275
229.316
229.357
229.399
229.443
229.487
229.532
229.578
229.625
229.674
229.723
229.774
229.825
229.877
229.929
229.983
230.037
230.092
230.148
230.204
230.262
230.319
230.377
230.434
230.489
230.545
230.602
230.66
230.718
230.777
230.836
230.897
230.957
231.019
231.081
231.144
231.207
231.271
231.337
231.403
231.469
231.537
231.607
231.68
231.755
231.833
231.913
231.996
232.082
232.171
232.263
232.357
232.455
232.555
232.657
232.762
232.87
232.979
233.091
233.205
233.32
233.437
233.556
233.678
233.802
233.928
234.058
234.19
234.324
234.459
234.596
234.735
234.876
235.017
235.161
235.306
235.452
235.6
235.75
235.903
236.058
236.217
236.379
236.546
236.718
236.894
237.074
237.26
237.451
237.646
237.846
238.052
238.262
238.478
238.698
238.923
239.154
239.388
239.628
239.872
240.121
240.375
240.633
240.895
241.163
241.435
241.711
241.992
242.278
242.567
242.861
243.158
243.458
243.762
244.069
244.38
244.695
245.013
245.336
245.664
245.996
246.333
246.676
247.026
247.378
247.737
248.081
248.43
248.627
248.138
223.604
223.163
222.757
222.35
221.949
221.585
221.241
220.905
220.577
220.268
219.976
219.7
219.443
219.21
228.16
228.191
228.222
228.254
228.285
228.317
228.349
228.381
228.413
228.447
228.48
228.515
228.55
228.586
228.623
228.66
228.697
228.735
228.773
228.811
228.85
228.89
228.93
228.97
229.011
229.052
229.093
229.135
229.177
229.22
229.263
229.307
229.351
229.395
229.44
229.486
229.531
229.577
229.624
229.67
229.718
229.766
229.814
229.863
229.912
229.962
230.011
230.059
230.106
230.155
230.204
230.254
230.304
230.355
230.406
230.458
230.511
230.565
230.62
230.676
230.733
230.792
230.851
230.912
230.975
231.039
231.105
231.172
231.241
231.312
231.384
231.458
231.533
231.61
231.688
231.768
231.849
231.931
232.015
232.101
232.188
232.276
232.366
232.457
232.55
232.643
232.739
232.837
232.936
233.037
233.138
233.241
233.346
233.452
233.559
233.668
233.779
233.892
234.007
234.125
234.245
234.368
234.493
234.622
234.755
234.891
235.031
235.175
235.322
235.473
235.627
235.785
235.947
236.112
236.28
236.451
236.626
236.804
236.985
237.169
237.356
237.547
237.741
237.938
238.138
238.342
238.549
238.76
238.974
239.192
239.413
239.636
239.863
240.092
240.325
240.562
240.802
241.046
241.295
241.548
241.805
242.068
242.336
242.61
242.889
243.174
243.466
243.763
244.065
244.374
244.689
245.009
245.335
245.667
246.004
246.347
246.695
247.048
247.407
247.771
248.141
248.515
248.895
249.279
249.669
250.064
250.464
250.868
251.278
251.692
252.111
252.535
252.964
253.398
253.836
254.28
254.73
255.185
255.646
256.113
256.587
257.067
257.554
258.048
258.551
259.061
259.578
260.094
260.604
261.069
261.54
261.542
260.668
224.591
224.154
223.752
223.345
222.948
222.597
222.275
221.942
221.632
221.366
221.129
220.919
220.746
220.61
229.216
229.258
229.301
229.344
229.388
229.433
229.478
229.524
229.571
229.618
229.666
229.713
229.761
229.809
229.857
229.906
229.956
230.007
230.057
230.109
230.161
230.214
230.267
230.321
230.376
230.431
230.487
230.544
230.602
230.66
230.719
230.779
230.84
230.901
230.964
231.027
231.092
231.158
231.224
231.292
231.361
231.432
231.503
231.575
231.648
231.723
231.799
231.876
231.955
232.035
232.117
232.199
232.283
232.369
232.456
232.545
232.636
232.729
232.824
232.92
233.019
233.12
233.223
233.329
233.437
233.547
233.659
233.774
233.891
234.01
234.131
234.255
234.382
234.51
234.641
234.774
234.909
235.047
235.187
235.329
235.474
235.621
235.771
235.923
236.078
236.236
236.397
236.559
236.725
236.893
237.063
237.237
237.413
237.592
237.775
237.961
238.151
238.345
238.543
238.745
238.951
239.162
239.377
239.597
239.821
240.05
240.284
240.522
240.764
241.011
241.261
241.516
241.776
242.039
242.306
242.578
242.853
243.133
243.417
243.705
243.998
244.294
244.596
244.901
245.211
245.525
245.844
246.167
246.494
246.826
247.162
247.504
247.85
248.201
248.558
248.92
249.288
249.662
250.042
250.428
250.82
251.219
251.624
252.035
252.452
252.875
253.304
253.739
254.18
254.626
255.079
255.536
256
256.468
256.942
257.421
257.905
258.395
258.889
259.389
259.893
260.402
260.917
261.436
261.96
262.488
263.022
263.56
264.103
264.652
265.205
265.763
266.326
266.895
267.468
268.047
268.632
269.221
269.816
270.417
271.022
271.633
272.249
272.871
273.5
274.131
274.759
275.365
275.929
276.389
276.704
276.476
274.974
225.367
224.952
224.568
224.169
223.797
223.466
223.165
222.842
222.549
222.29
222.064
221.872
221.708
230.547
230.606
230.666
230.727
230.79
230.853
230.918
230.984
231.051
231.118
231.187
231.257
231.329
231.401
231.475
231.549
231.625
231.701
231.779
231.857
231.937
232.018
232.1
232.183
232.268
232.354
232.441
232.53
232.62
232.711
232.804
232.898
232.994
233.092
233.191
233.292
233.395
233.5
233.607
233.716
233.827
233.939
234.054
234.171
234.29
234.411
234.535
234.661
234.79
234.92
235.053
235.189
235.327
235.468
235.611
235.757
235.906
236.058
236.213
236.371
236.532
236.696
236.863
237.034
237.207
237.384
237.563
237.746
237.932
238.121
238.314
238.51
238.708
238.911
239.116
239.325
239.537
239.752
239.971
240.193
240.419
240.648
240.881
241.118
241.358
241.602
241.849
242.101
242.357
242.616
242.881
243.149
243.422
243.7
243.983
244.271
244.563
244.861
245.164
245.472
245.786
246.104
246.428
246.757
247.091
247.43
247.773
248.122
248.475
248.833
249.196
249.563
249.935
250.311
250.692
251.078
251.469
251.864
252.264
252.669
253.079
253.493
253.913
254.337
254.767
255.201
255.64
256.085
256.535
256.99
257.451
257.918
258.39
258.868
259.352
259.842
260.338
260.839
261.346
261.858
262.376
262.9
263.428
263.962
264.5
265.043
265.591
266.143
266.7
267.26
267.825
268.393
268.966
269.542
270.121
270.704
271.29
271.88
272.472
273.067
273.666
274.266
274.87
275.476
276.084
276.695
277.308
277.922
278.539
279.158
279.778
280.399
281.022
281.646
282.271
282.897
283.523
284.149
284.775
285.4
286.026
286.651
287.277
287.904
288.528
289.143
289.731
290.256
290.685
290.934
290.865
290.288
288.207
226.12
225.728
225.358
224.971
224.629
224.306
224.012
223.719
223.451
223.21
223.007
222.838
222.697
232.621
232.714
232.809
232.906
233.004
233.104
233.206
233.309
233.414
233.521
233.63
233.74
233.852
233.965
234.08
234.197
234.316
234.436
234.559
234.683
234.809
234.937
235.067
235.2
235.334
235.471
235.61
235.752
235.896
236.042
236.191
236.342
236.496
236.653
236.813
236.975
237.14
237.309
237.48
237.654
237.831
238.011
238.195
238.382
238.572
238.765
238.961
239.161
239.365
239.572
239.783
239.997
240.215
240.437
240.662
240.891
241.124
241.361
241.602
241.847
242.096
242.348
242.605
242.865
243.13
243.398
243.671
243.947
244.228
244.513
244.801
245.094
245.391
245.693
245.998
246.308
246.622
246.94
247.263
247.59
247.922
248.259
248.6
248.946
249.297
249.654
250.015
250.381
250.753
251.13
251.512
251.9
252.292
252.69
253.093
253.501
253.915
254.333
254.757
255.185
255.619
256.057
256.5
256.947
257.4
257.856
258.317
258.783
259.253
259.727
260.206
260.689
261.177
261.669
262.165
262.666
263.172
263.682
264.196
264.715
265.239
265.767
266.3
266.837
267.378
267.925
268.475
269.031
269.59
270.154
270.722
271.293
271.869
272.448
273.03
273.615
274.203
274.794
275.387
275.982
276.58
277.178
277.778
278.379
278.981
279.584
280.187
280.79
281.393
281.996
282.598
283.2
283.8
284.4
284.999
285.596
286.191
286.786
287.378
287.969
288.558
289.144
289.729
290.311
290.891
291.467
292.041
292.611
293.177
293.738
294.294
294.844
295.388
295.925
296.454
296.975
297.487
297.99
298.484
298.969
299.446
299.913
300.365
300.786
301.146
301.412
301.47
301.361
300.893
299.892
297.572
226.676
226.309
225.952
225.623
225.308
225.024
224.761
224.516
224.295
224.107
223.952
223.825
235.439
235.578
235.719
235.862
236.007
236.155
236.305
236.457
236.612
236.769
236.929
237.09
237.254
237.421
237.59
237.762
237.936
238.113
238.293
238.476
238.661
238.85
239.041
239.235
239.433
239.634
239.838
240.045
240.256
240.47
240.687
240.908
241.133
241.361
241.592
241.828
242.067
242.31
242.557
242.808
243.063
243.321
243.584
243.851
244.122
244.397
244.676
244.96
245.248
245.54
245.836
246.137
246.442
246.751
247.065
247.383
247.705
248.032
248.364
248.699
249.039
249.384
249.733
250.087
250.445
250.807
251.174
251.546
251.922
252.302
252.687
253.077
253.471
253.87
254.274
254.682
255.095
255.513
255.935
256.362
256.795
257.232
257.674
258.121
258.573
259.03
259.491
259.958
260.429
260.904
261.385
261.869
262.358
262.851
263.348
263.849
264.354
264.864
265.377
265.894
266.414
266.939
267.466
267.998
268.532
269.07
269.612
270.156
270.704
271.254
271.808
272.364
272.924
273.486
274.052
274.62
275.19
275.763
276.338
276.916
277.496
278.077
278.661
279.246
279.832
280.419
281.007
281.595
282.184
282.772
283.36
283.947
284.533
285.117
285.7
286.28
286.858
287.434
288.007
288.576
289.142
289.705
290.264
290.82
291.372
291.92
292.463
293.003
293.538
294.068
294.593
295.112
295.626
296.133
296.634
297.129
297.615
298.094
298.565
299.026
299.479
299.921
300.353
300.774
301.185
301.588
301.981
302.364
302.737
303.099
303.449
303.786
304.109
304.418
304.711
304.987
305.246
305.486
305.708
305.912
306.097
306.258
306.385
306.452
306.423
306.27
305.908
305.346
304.439
303.09
301.062
227.914
227.563
227.228
226.911
226.615
226.346
226.1
225.875
225.671
225.494
239.316
239.512
239.71
239.912
240.117
240.324
240.535
240.749
240.965
241.185
241.408
241.634
241.863
242.095
242.331
242.57
242.813
243.059
243.309
243.562
243.819
244.08
244.344
244.613
244.885
245.161
245.442
245.726
246.014
246.306
246.603
246.904
247.209
247.518
247.831
248.149
248.471
248.798
249.129
249.464
249.804
250.148
250.497
250.85
251.208
251.57
251.936
252.308
252.683
253.063
253.448
253.836
254.23
254.627
255.03
255.436
255.847
256.262
256.682
257.106
257.534
257.966
258.403
258.844
259.29
259.74
260.194
260.652
261.114
261.581
262.052
262.527
263.006
263.489
263.976
264.468
264.963
265.462
265.966
266.473
266.984
267.499
268.017
268.539
269.065
269.594
270.126
270.661
271.199
271.739
272.282
272.827
273.375
273.925
274.476
275.03
275.586
276.144
276.703
277.263
277.825
278.389
278.953
279.518
280.085
280.651
281.218
281.786
282.353
282.92
283.487
284.054
284.62
285.184
285.748
286.31
286.87
287.429
287.985
288.538
289.089
289.636
290.18
290.721
291.257
291.789
292.317
292.84
293.359
293.872
294.38
294.883
295.38
295.87
296.353
296.83
297.299
297.761
298.215
298.66
299.097
299.524
299.942
300.349
300.746
301.133
301.51
301.878
302.237
302.588
302.929
303.261
303.581
303.891
304.189
304.474
304.746
305.003
305.245
305.469
305.675
305.86
306.024
306.165
306.289
306.397
306.486
306.558
306.611
306.647
306.668
306.673
306.664
306.642
306.606
306.56
306.505
306.445
306.383
306.323
306.268
306.216
306.135
305.994
305.747
305.37
304.798
304.026
302.982
301.532
300.096
229.197
228.88
228.584
228.308
228.054
227.822
227.611
227.42
227.252
244.621
244.886
245.155
245.428
245.704
245.983
246.267
246.553
246.844
247.138
247.436
247.738
248.044
248.353
248.667
248.984
249.306
249.632
249.961
250.295
250.634
250.976
251.322
251.673
252.028
252.388
252.751
253.12
253.492
253.869
254.25
254.635
255.025
255.419
255.818
256.22
256.628
257.039
257.455
257.875
258.299
258.727
259.16
259.596
260.037
260.481
260.93
261.382
261.838
262.298
262.762
263.23
263.701
264.176
264.654
265.136
265.622
266.111
266.603
267.099
267.598
268.101
268.606
269.115
269.627
270.142
270.66
271.18
271.704
272.23
272.759
273.29
273.824
274.36
274.899
275.439
275.982
276.526
277.072
277.619
278.168
278.718
279.269
279.82
280.372
280.924
281.476
282.028
282.579
283.13
283.68
284.229
284.777
285.323
285.869
286.412
286.954
287.493
288.031
288.565
289.097
289.626
290.151
290.673
291.191
291.704
292.214
292.719
293.22
293.715
294.206
294.692
295.173
295.648
296.117
296.58
297.036
297.485
297.927
298.361
298.787
299.205
299.613
300.011
300.4
300.778
301.146
301.502
301.848
302.185
302.514
302.832
303.142
303.441
303.729
304.007
304.273
304.528
304.77
304.998
305.211
305.408
305.588
305.749
305.89
306.012
306.118
306.208
306.283
306.342
306.387
306.419
306.436
306.44
306.431
306.409
306.377
306.335
306.285
306.23
306.173
306.117
306.062
305.995
305.913
305.819
305.713
305.599
305.475
305.337
305.188
305.027
304.856
304.674
304.483
304.282
304.074
303.859
303.637
303.405
303.15
302.854
302.486
302.014
301.415
300.629
299.666
298.493
297.067
296.496
231.276
230.979
250.882
251.217
251.556
251.899
252.245
252.595
252.949
253.307
253.669
254.035
254.404
254.778
255.155
255.537
255.923
256.312
256.706
257.104
257.505
257.911
258.321
258.735
259.153
259.575
260.001
260.431
260.865
261.303
261.745
262.19
262.639
263.092
263.549
264.009
264.473
264.941
265.411
265.885
266.363
266.843
267.327
267.814
268.303
268.796
269.291
269.789
270.289
270.792
271.298
271.806
272.316
272.828
273.343
273.859
274.378
274.898
275.421
275.945
276.471
276.998
277.527
278.057
278.588
279.12
279.654
280.188
280.723
281.258
281.794
282.329
282.865
283.4
283.935
284.469
285.002
285.534
286.065
286.594
287.121
287.646
288.169
288.689
289.206
289.72
290.23
290.737
291.239
291.737
292.23
292.718
293.201
293.68
294.153
294.621
295.084
295.541
295.992
296.438
296.878
297.311
297.738
298.157
298.569
298.974
299.37
299.758
300.136
300.506
300.865
301.214
301.552
301.88
302.197
302.506
302.806
303.097
303.377
303.647
303.907
304.156
304.394
304.619
304.832
305.031
305.214
305.382
305.531
305.66
305.771
305.866
305.947
306.014
306.068
306.109
306.137
306.153
306.156
306.148
306.128
306.099
306.062
306.019
305.973
305.926
305.882
305.834
305.774
305.702
305.62
305.524
305.415
305.292
305.157
305.01
304.85
304.679
304.497
304.302
304.096
303.876
303.643
303.392
303.123
302.842
302.55
302.248
301.934
301.607
301.269
300.92
300.56
300.19
299.81
299.418
299.017
298.605
298.184
297.756
297.322
296.88
296.421
295.917
295.336
294.654
293.864
292.904
291.767
290.499
289.256
289.328
258.119
258.518
258.92
259.325
259.734
260.147
260.563
260.983
261.407
261.834
262.264
262.698
263.136
263.577
264.021
264.469
264.921
265.375
265.833
266.294
266.759
267.226
267.697
268.171
268.647
269.127
269.609
270.094
270.581
271.071
271.563
272.058
272.555
273.054
273.554
274.057
274.562
275.068
275.575
276.084
276.595
277.106
277.619
278.132
278.646
279.161
279.677
280.193
280.71
281.226
281.743
282.26
282.777
283.294
283.81
284.326
284.841
285.355
285.868
286.38
286.891
287.4
287.907
288.413
288.916
289.416
289.914
290.408
290.899
291.387
291.871
292.35
292.825
293.295
293.761
294.221
294.675
295.124
295.568
296.005
296.436
296.861
297.279
297.691
298.096
298.493
298.883
299.265
299.638
300.003
300.36
300.707
301.045
301.372
301.69
301.996
302.293
302.581
302.86
303.13
303.39
303.641
303.882
304.113
304.333
304.541
304.738
304.921
305.09
305.243
305.378
305.494
305.593
305.676
305.747
305.804
305.849
305.882
305.902
305.91
305.907
305.893
305.868
305.836
305.798
305.756
305.713
305.673
305.633
305.583
305.522
305.448
305.361
305.261
305.149
305.025
304.889
304.742
304.584
304.414
304.233
304.04
303.834
303.612
303.371
303.115
302.846
302.564
302.268
301.96
301.64
301.308
300.963
300.606
300.237
299.855
299.46
299.052
298.631
298.197
297.75
297.291
296.822
296.343
295.855
295.357
294.849
294.332
293.807
293.272
292.729
292.178
291.617
291.048
290.47
289.886
289.296
288.702
288.107
287.506
286.89
286.231
285.5
284.671
283.745
282.674
281.424
280.146
279.141
279.487
266.003
266.449
266.898
267.351
267.805
268.263
268.723
269.186
269.652
270.12
270.591
271.064