/*--------------------------------*- C++ -*----------------------------------*\
| =========                 |                                                 |
| \\      /  F ield         | OpenFOAM: The Open Source CFD Toolbox           |
|  \\    /   O peration     | Version:  v1706                                 |
|   \\  /    A nd           | Web:      www.OpenFOAM.com                      |
|    \\/     M anipulation  |                                                 |
\*---------------------------------------------------------------------------*/
FoamFile
{
    version     2.0;
    format      ascii;
    class       volScalarField;
    location    "1.1e-05";
    object      wallHeatFlux;
}
// * * * * * * * * * * * * * * * * * * * * * * * * * * * * * * * * * * * * * //

dimensions      [1 0 -3 0 0 0 0];


internalField   uniform 0;

boundaryField
{
    cone
    {
        type            calculated;
        value           nonuniform List<scalar> 
119
(
-2256.03
-2255.81
-2255.59
-2255.39
-2255.19
-2254.99
-2254.79
-2254.6
-2254.4
-2254.21
-2254.01
-2253.82
-2253.63
-2253.44
-2253.25
-2253.06
-2252.87
-2252.68
-2252.5
-2252.31
-2252.12
-2251.94
-2251.75
-2251.57
-2251.38
-2251.2
-2251.02
-2250.84
-2250.65
-2250.47
-2250.29
-2250.11
-2249.93
-2249.75
-2249.57
-2249.4
-2249.22
-2249.04
-2248.86
-2248.69
-2248.51
-2248.34
-2248.16
-2247.99
-2247.82
-2247.64
-2247.47
-2247.3
-2247.13
-2246.96
-2246.79
-2246.62
-2246.45
-2246.28
-2246.11
-2245.95
-2245.78
-2245.61
-2245.45
-2245.28
-2245.12
-2244.95
-2244.79
-2244.63
-2244.46
-2244.3
-2244.14
-2243.98
-2243.82
-2243.66
-2243.5
-2243.34
-2243.18
-2243.02
-2242.86
-2242.71
-2242.55
-2242.39
-2242.24
-2242.08
-2241.93
-2241.77
-2241.62
-2241.47
-2241.31
-2241.16
-2241.01
-2240.86
-2240.71
-2240.56
-2240.41
-2240.26
-2240.12
-2239.97
-2239.84
-2239.72
-2239.61
-2239.53
-2239.49
-2239.5
-2239.59
-2239.75
-2240
-2240.33
-2240.71
-2241.12
-2241.54
-2241.98
-2242.51
-2243.29
-2244.68
-2247.21
-2251.79
-2259.83
-2273.57
-2296.4
-2335.12
-2401.48
-2503.67
)
;
    }
    inlet
    {
        type            calculated;
        value           uniform 0;
    }
    rWedge
    {
        type            wedge;
    }
    lWedge
    {
        type            wedge;
    }
    outlet
    {
        type            calculated;
        value           uniform 0;
    }
    procBoundary0to1
    {
        type            processor;
        value           uniform 0;
    }
    procBoundary0to2
    {
        type            processor;
        value           uniform 0;
    }
}


// ************************************************************************* //
