/*--------------------------------*- C++ -*----------------------------------*\
| =========                 |                                                 |
| \\      /  F ield         | OpenFOAM: The Open Source CFD Toolbox           |
|  \\    /   O peration     | Version:  v1706                                 |
|   \\  /    A nd           | Web:      www.OpenFOAM.com                      |
|    \\/     M anipulation  |                                                 |
\*---------------------------------------------------------------------------*/
FoamFile
{
    version     2.0;
    format      ascii;
    class       volVectorField;
    location    "4e-05";
    object      U;
}
// * * * * * * * * * * * * * * * * * * * * * * * * * * * * * * * * * * * * * //

dimensions      [0 1 -1 0 0 0 0];


internalField   nonuniform List<vector> 
30104
(
(1760 -6.45292e-11 2.64872e-15)
(1760 -6.44e-11 5.03806e-15)
(1760 -6.44246e-11 4.95426e-15)
(1760 -6.43275e-11 3.2272e-15)
(1760 -6.40613e-11 4.86348e-15)
(1760 -6.40631e-11 3.67263e-15)
(1760 -6.42641e-11 7.69638e-16)
(1760 -6.49879e-11 9.9956e-16)
(1760 -6.57638e-11 4.65073e-15)
(1760 -6.59609e-11 6.87527e-15)
(1760 -6.52983e-11 4.26992e-15)
(1760 -6.51936e-11 3.1685e-15)
(1760 -6.55684e-11 5.2721e-16)
(1760 -6.57825e-11 3.63251e-15)
(1760 -6.55925e-11 5.08322e-15)
(1760 -6.66346e-11 4.72669e-15)
(1760 -6.78469e-11 4.05485e-15)
(1760 -7.53975e-11 2.59699e-15)
(1760 -7.52184e-11 3.61211e-15)
(1760 -7.51057e-11 3.43735e-15)
(1760 -7.40135e-11 3.19649e-15)
(1760 -7.32451e-11 3.10156e-15)
(1760 -7.48645e-11 2.89992e-15)
(1760 -7.79278e-11 2.83432e-15)
(1760 -8.06179e-11 4.05489e-15)
(1760 -8.58101e-11 3.1933e-15)
(1760 -8.86222e-11 2.44291e-15)
(1760 -8.9095e-11 2.70912e-15)
(1760 -9.03244e-11 3.19507e-15)
(1760 -9.12241e-11 4.69506e-15)
(1760 -9.14897e-11 3.30327e-15)
(1760 -9.19779e-11 9.46442e-16)
(1760 -9.30007e-11 2.13315e-15)
(1760 -9.32949e-11 2.40062e-15)
(1760 -9.18048e-11 2.51246e-15)
(1760 -8.97881e-11 4.34813e-15)
(1760 -8.56347e-11 1.61678e-15)
(1760 -8.06082e-11 3.50498e-15)
(1760 -7.46211e-11 4.39806e-15)
(1760 -6.77037e-11 1.55651e-15)
(1760 -5.72019e-11 1.55036e-15)
(1760 -5.14569e-11 1.31619e-15)
(1760 -4.40504e-11 1.77844e-15)
(1760 -3.62569e-11 1.53801e-15)
(1760 -2.96611e-11 1.82396e-15)
(1760 -2.58933e-11 1.72063e-15)
(1760 -2.06301e-11 2.1842e-15)
(1760 -1.43419e-11 4.73236e-16)
(1760 -7.85748e-12 2.52091e-15)
(1760 -1.89542e-12 3.52941e-15)
(1760 3.61619e-12 1.50106e-15)
(1760 4.93027e-12 8.01699e-16)
(1760 5.11813e-12 1.22025e-15)
(1760 3.81959e-12 3.33391e-15)
(1760 -1.71549e-12 1.02534e-15)
(1760 -1.37028e-11 2.36648e-15)
(1760 -3.11418e-11 3.01366e-15)
(1760 -4.63511e-11 1.91956e-15)
(1760 -6.46071e-11 2.87081e-15)
(1760 -7.87261e-11 2.39799e-15)
(1760 -8.68009e-11 3.51543e-15)
(1760 -9.97015e-11 4.17986e-15)
(1760 -1.10989e-10 2.31449e-15)
(1760 -1.23453e-10 2.48255e-15)
(1760 -1.30297e-10 2.40506e-15)
(1760 -1.37636e-10 3.26078e-15)
(1760 -1.46265e-10 9.09483e-16)
(1760 -1.5525e-10 3.94263e-15)
(1760 -1.59249e-10 2.63338e-15)
(1760 -1.61131e-10 1.0326e-15)
(1760 -1.57503e-10 1.62144e-15)
(1760 -1.49712e-10 2.86433e-15)
(1760 -1.37596e-10 1.16204e-17)
(1760 -1.22214e-10 2.09599e-15)
(1760 -9.97696e-11 2.31309e-15)
(1760 -6.56276e-11 1.58862e-15)
(1760 -2.32379e-11 1.03694e-15)
(1760 1.54532e-11 -2.31966e-16)
(1760 3.65106e-11 2.32224e-15)
(1760 5.88193e-11 2.70589e-15)
(1760 8.0521e-11 1.18889e-15)
(1760 1.01483e-10 4.0661e-15)
(1760 1.2465e-10 2.584e-15)
(1760 1.54939e-10 2.54934e-15)
(1760 1.72457e-10 3.15483e-15)
(1760 1.73108e-10 2.6755e-15)
(1760 1.6358e-10 3.26058e-15)
(1760 1.41812e-10 2.48486e-15)
(1760 1.15313e-10 2.29162e-15)
(1760 6.33987e-11 2.3354e-15)
(1760 2.87487e-11 6.50041e-16)
(1760 7.33337e-12 2.66802e-15)
(1760 -2.20417e-11 2.65583e-15)
(1760 -7.93636e-11 3.69529e-15)
(1760 -1.31633e-10 -7.0646e-18)
(1760 -1.67021e-10 -1.73849e-15)
(1760 -1.94724e-10 1.95229e-15)
(1760 -2.22807e-10 3.14822e-17)
(1760 -2.50844e-10 1.79274e-15)
(1760 -2.85753e-10 4.79898e-16)
(1760 -3.24162e-10 -8.01619e-17)
(1760 -3.66674e-10 3.27744e-15)
(1760 -4.18972e-10 3.30866e-15)
(1760 -4.76508e-10 2.2957e-15)
(1760 -4.46637e-10 8.81423e-16)
(1760 -3.92469e-10 1.82839e-15)
(1760 -3.52179e-10 2.87685e-15)
(1760 -3.12315e-10 2.77684e-15)
(1760 -2.48027e-10 3.38668e-15)
(1760 -1.27065e-10 4.81211e-15)
(1760 1.64316e-10 3.57631e-15)
(1760 3.04549e-10 1.47277e-15)
(1760 3.19167e-10 3.17545e-15)
(1760 3.34497e-10 1.77275e-15)
(1760 3.5423e-10 9.33138e-16)
(1760 3.74559e-10 4.02524e-15)
(1760 3.96399e-10 3.49497e-15)
(1760 4.12591e-10 3.46756e-15)
(1760 4.18681e-10 3.16282e-15)
(1760 4.2369e-10 2.80436e-15)
(1760 4.34164e-10 2.85729e-15)
(1760 4.4966e-10 2.76864e-15)
(1760 4.6559e-10 3.66176e-15)
(1760 4.76807e-10 2.16936e-15)
(1760 4.81517e-10 1.82316e-15)
(1760 4.82559e-10 4.11685e-15)
(1760 4.85816e-10 4.26098e-15)
(1760 4.84176e-10 3.77613e-15)
(1760 4.73371e-10 4.16158e-15)
(1760 4.58977e-10 3.67312e-15)
(1760 4.40639e-10 3.54603e-15)
(1760 4.23048e-10 2.19264e-15)
(1760 4.10708e-10 2.70618e-15)
(1760 3.85722e-10 3.49265e-15)
(1760 3.63416e-10 3.64424e-15)
(1760 3.49404e-10 3.73297e-15)
(1760 3.35293e-10 3.02168e-15)
(1760 3.11576e-10 4.0514e-15)
(1760 2.93238e-10 1.7407e-15)
(1760 2.76375e-10 3.77885e-15)
(1760 2.52793e-10 4.57136e-15)
(1760 2.20494e-10 1.696e-15)
(1760 7.11029e-11 9.90049e-16)
(1760 -1.07379e-10 1.60991e-15)
(1760 -2.32133e-10 1.06081e-15)
(1760 -3.1202e-10 2.12139e-15)
(1760 -3.61478e-10 1.24595e-15)
(1760 -3.81705e-10 1.55944e-15)
(1760 -4.03228e-10 1.87745e-15)
(1760 -4.258e-10 1.46926e-15)
(1760 -4.41854e-10 1.99228e-15)
(1760 -4.67717e-10 7.39989e-16)
(1760 -4.82307e-10 1.52767e-15)
(1760 -5.01851e-10 3.99981e-16)
(1760 -5.04691e-10 1.33403e-15)
(1760 -5.02272e-10 1.34571e-15)
(1760 -4.98868e-10 2.10447e-16)
(1760 -4.86121e-10 1.54447e-15)
(1760 -4.70795e-10 2.26795e-15)
(1760 -4.52604e-10 1.56572e-15)
(1760 -4.26962e-10 1.3842e-15)
(1760 -3.9773e-10 6.94626e-16)
(1760 -3.60783e-10 5.90082e-16)
(1760 -3.23602e-10 2.8548e-15)
(1760 -2.86452e-10 2.3245e-15)
(1760 -2.59425e-10 2.58598e-16)
(1760 -2.32508e-10 5.22151e-16)
(1760 -1.96843e-10 1.92059e-15)
(1760 -1.61496e-10 9.62009e-16)
(1760 -9.57805e-11 1.33552e-15)
(1760 -1.25815e-11 1.1393e-15)
(1760 5.96718e-11 1.05433e-15)
(1760 1.21531e-10 2.03876e-15)
(1760 1.74359e-10 1.4047e-15)
(1760 2.14779e-10 2.11392e-15)
(1760 2.33903e-10 1.6068e-15)
(1760 2.35189e-10 1.06166e-15)
(1760 2.19756e-10 8.95512e-16)
(1760 1.93527e-10 2.0363e-15)
(1760 1.64374e-10 7.13714e-16)
(1760 1.19756e-10 1.9081e-15)
(1760 6.02678e-11 1.8355e-15)
(1760 7.34558e-12 1.60292e-15)
(1760 -5.81787e-11 3.71432e-15)
(1760 -1.17383e-10 1.90603e-15)
(1760 -1.68957e-10 1.51605e-15)
(1760 -2.02728e-10 -6.8216e-17)
(1760 -2.17447e-10 1.62801e-15)
(1760 -2.12055e-10 1.58613e-15)
(1760 -1.99694e-10 1.63687e-15)
(1760 -1.79857e-10 7.85256e-16)
(1760 -1.41903e-10 4.64619e-16)
(1760 -1.03102e-10 -3.83991e-16)
(1760 -5.0638e-11 1.24044e-15)
(1760 2.54754e-13 1.39402e-15)
(1760 4.42633e-11 2.37858e-16)
(1760 6.67773e-11 9.4015e-16)
(1760 6.63613e-11 5.72675e-17)
(1760 5.55188e-11 9.33964e-16)
(1760 3.76495e-11 1.99628e-15)
(1760 1.01456e-11 1.21091e-15)
(1760 -2.30156e-11 1.84266e-15)
(1760 -6.07315e-11 2.22923e-15)
(1760 -9.06521e-11 9.65453e-16)
(1760 -1.15683e-10 1.71572e-15)
(1760 -1.30467e-10 2.2152e-15)
(1760 -1.37128e-10 1.55447e-15)
(1760 -1.31255e-10 1.19143e-15)
(1760 -1.24418e-10 1.09532e-15)
(1760 -1.03763e-10 1.08854e-15)
(1760 -1.97728e-10 1.28721e-14)
(1760 -1.97627e-10 1.44741e-14)
(1760 -1.96476e-10 1.19628e-14)
(1760 -1.96389e-10 1.12404e-14)
(1760 -1.96751e-10 1.06836e-14)
(1760 -1.96689e-10 1.05712e-14)
(1760 -1.96885e-10 8.58628e-15)
(1760 -1.95479e-10 1.17783e-14)
(1760 -1.94833e-10 1.4451e-14)
(1760 -1.94904e-10 1.19164e-14)
(1760 -1.95709e-10 1.1253e-14)
(1760 -1.95428e-10 1.50647e-14)
(1760 -1.94456e-10 1.71049e-14)
(1760 -1.95346e-10 1.49244e-14)
(1760 -1.95908e-10 1.35869e-14)
(1760 -1.93694e-10 1.33749e-14)
(1760 -1.93601e-10 1.12963e-14)
(1760 -1.49203e-10 4.56398e-15)
(1760 -1.48719e-10 6.93111e-15)
(1760 -1.46382e-10 8.71867e-15)
(1760 -1.46658e-10 8.55454e-15)
(1760 -1.44501e-10 8.37667e-15)
(1760 -1.36158e-10 8.45007e-15)
(1760 -1.24575e-10 7.1266e-15)
(1760 -1.17182e-10 8.48838e-15)
(1760 -1.08061e-10 9.06685e-15)
(1760 -1.05796e-10 7.14271e-15)
(1760 -1.02231e-10 3.984e-15)
(1760 -9.90149e-11 5.85337e-15)
(1760 -9.82395e-11 6.87948e-15)
(1760 -9.99127e-11 5.19097e-15)
(1760 -9.94095e-11 3.62691e-15)
(1760 -1.00879e-10 4.35509e-15)
(1760 -1.04034e-10 5.17744e-15)
(1760 -1.06252e-10 6.58951e-15)
(1760 -1.14247e-10 9.6707e-15)
(1760 -1.27664e-10 9.12612e-15)
(1760 -1.4176e-10 9.72333e-15)
(1760 -1.57828e-10 9.91304e-15)
(1760 -1.72582e-10 9.4814e-15)
(1760 -1.94274e-10 9.68177e-15)
(1760 -2.14549e-10 8.92423e-15)
(1760 -2.33182e-10 8.72106e-15)
(1760 -2.47112e-10 8.57612e-15)
(1760 -2.60528e-10 8.29174e-15)
(1760 -2.71502e-10 7.87157e-15)
(1760 -2.83753e-10 8.42982e-15)
(1760 -2.93585e-10 6.7312e-15)
(1760 -3.07179e-10 9.7266e-15)
(1760 -3.18805e-10 9.02856e-15)
(1760 -3.24846e-10 7.99594e-15)
(1760 -3.27845e-10 5.75564e-15)
(1760 -3.26992e-10 6.82821e-15)
(1760 -3.1619e-10 9.09568e-15)
(1760 -2.89474e-10 7.00446e-15)
(1760 -2.71526e-10 6.23228e-15)
(1760 -2.39778e-10 8.75784e-15)
(1760 -2.05286e-10 8.83936e-15)
(1760 -1.63129e-10 9.17516e-15)
(1760 -1.30626e-10 7.49924e-15)
(1760 -9.13409e-11 6.60652e-15)
(1760 -5.76424e-11 1.03861e-14)
(1760 -2.73903e-11 9.05778e-15)
(1760 9.85808e-13 5.7811e-15)
(1760 3.03901e-11 3.89489e-15)
(1760 5.78966e-11 7.2937e-15)
(1760 9.02848e-11 4.87903e-15)
(1760 1.13939e-10 6.79426e-15)
(1760 1.22885e-10 7.52947e-15)
(1760 1.17112e-10 7.56763e-15)
(1760 9.2407e-11 8.50022e-15)
(1760 4.75649e-11 5.22055e-15)
(1760 -7.88582e-12 5.60638e-15)
(1760 -3.24209e-11 6.83726e-15)
(1760 -7.64196e-11 6.91025e-15)
(1760 -1.27821e-10 9.07776e-15)
(1760 -2.41676e-10 8.16153e-15)
(1760 -3.19756e-10 5.19191e-15)
(1760 -3.68667e-10 5.77098e-15)
(1760 -4.10366e-10 6.51716e-15)
(1760 -4.50961e-10 5.60202e-15)
(1760 -4.92598e-10 7.76849e-15)
(1760 -5.34596e-10 8.91051e-15)
(1760 -5.80242e-10 5.67485e-15)
(1760 -6.22853e-10 5.21417e-15)
(1760 -6.68483e-10 7.22977e-15)
(1760 -6.8204e-10 6.16398e-15)
(1760 -6.4427e-10 6.18169e-15)
(1760 -5.64233e-10 6.38876e-15)
(1760 -2.59783e-10 6.88192e-15)
(1760 -6.22524e-11 8.06192e-15)
(1760 2.49199e-12 1.05216e-14)
(1760 1.22331e-10 8.68168e-15)
(1760 2.86658e-10 7.6651e-15)
(1760 4.32801e-10 6.73384e-15)
(1760 5.56936e-10 6.90161e-15)
(1760 6.71748e-10 6.95132e-15)
(1760 7.8755e-10 4.37623e-15)
(1760 9.04009e-10 5.90439e-15)
(1760 1.01715e-09 7.28766e-15)
(1760 1.13671e-09 9.08328e-15)
(1760 1.25498e-09 9.13244e-15)
(1760 1.42847e-09 8.76673e-15)
(1760 1.62808e-09 7.57463e-15)
(1760 1.80076e-09 6.61463e-15)
(1760 1.93839e-09 8.62468e-15)
(1760 2.10149e-09 8.49939e-15)
(1760 2.30163e-09 9.22721e-15)
(1760 2.48408e-09 8.80185e-15)
(1760 2.55101e-09 8.21203e-15)
(1760 2.49641e-09 6.76766e-15)
(1760 2.54571e-09 3.56274e-15)
(1760 2.63964e-09 6.82089e-15)
(1760 2.72526e-09 4.31023e-15)
(1760 2.80501e-09 5.44368e-15)
(1760 2.90425e-09 8.38076e-15)
(1760 2.98807e-09 5.90946e-15)
(1760 3.05099e-09 6.59976e-15)
(1760 3.10703e-09 5.45266e-15)
(1760 3.15896e-09 5.86169e-15)
(1760 3.21845e-09 7.13345e-15)
(1760 3.27656e-09 7.33389e-15)
(1760 3.33175e-09 6.42339e-15)
(1760 3.39425e-09 5.22442e-15)
(1760 3.45697e-09 6.88379e-15)
(1760 3.50077e-09 6.43237e-15)
(1760 3.5184e-09 6.24084e-15)
(1760 3.51516e-09 8.98102e-15)
(1760 3.48328e-09 1.02684e-14)
(1760 3.42791e-09 5.91375e-15)
(1760 3.34355e-09 6.66092e-15)
(1760 3.23547e-09 7.1216e-15)
(1760 3.12842e-09 4.96797e-15)
(1760 3.00748e-09 7.98574e-15)
(1760 2.87904e-09 9.17289e-15)
(1760 2.75188e-09 7.04123e-15)
(1760 2.62242e-09 6.93676e-15)
(1760 2.49936e-09 5.81025e-15)
(1760 2.37155e-09 4.43276e-15)
(1760 2.25509e-09 8.48496e-15)
(1760 2.15874e-09 8.3645e-15)
(1760 2.00241e-09 5.25509e-15)
(1760 2.07801e-09 5.21164e-15)
(1760 2.14721e-09 5.61615e-15)
(1760 2.1954e-09 6.04896e-15)
(1760 2.15333e-09 5.81264e-15)
(1760 2.04881e-09 5.9031e-15)
(1760 1.92128e-09 8.07758e-15)
(1760 1.80468e-09 4.43322e-15)
(1760 1.6979e-09 5.47457e-15)
(1760 1.65159e-09 6.24669e-15)
(1760 1.58028e-09 6.8499e-15)
(1760 1.5046e-09 7.74047e-15)
(1760 1.39382e-09 6.43208e-15)
(1760 1.29636e-09 5.91456e-15)
(1760 1.20218e-09 6.57555e-15)
(1760 1.09849e-09 7.96634e-15)
(1760 1.00475e-09 7.86016e-15)
(1760 9.102e-10 7.83043e-15)
(1760 8.24528e-10 7.51117e-15)
(1760 7.32969e-10 7.27691e-15)
(1760 6.35126e-10 7.46906e-15)
(1760 5.39666e-10 6.96086e-15)
(1760 4.46136e-10 5.56971e-15)
(1760 3.69227e-10 7.62859e-15)
(1760 3.11157e-10 6.05204e-15)
(1760 2.57459e-10 5.59487e-15)
(1760 1.38966e-10 6.3548e-15)
(1760 -9.51967e-11 5.75992e-15)
(1760 -4.31205e-10 7.1533e-15)
(1760 -5.3552e-10 7.07619e-15)
(1760 -6.36853e-10 6.33128e-15)
(1760 -7.29668e-10 6.69175e-15)
(1760 -8.08519e-10 5.34059e-15)
(1760 -8.20714e-10 5.68014e-15)
(1760 -7.98331e-10 5.04692e-15)
(1760 -7.46733e-10 3.42845e-15)
(1760 -6.49143e-10 4.39251e-15)
(1760 -5.64799e-10 3.48191e-15)
(1760 -4.82233e-10 3.22572e-15)
(1760 -3.3749e-10 3.80926e-15)
(1760 -2.30318e-10 2.88584e-15)
(1760 -6.95961e-11 2.45272e-15)
(1760 9.31409e-11 4.93355e-15)
(1760 1.82819e-10 5.91877e-15)
(1760 2.24343e-10 5.30264e-15)
(1760 2.32189e-10 5.28325e-15)
(1760 1.89508e-10 5.71392e-15)
(1760 1.38192e-10 2.86213e-15)
(1760 7.23303e-11 4.61233e-15)
(1760 -8.39999e-13 5.63622e-15)
(1760 -9.20223e-11 4.22954e-15)
(1760 -1.91876e-10 5.17445e-15)
(1760 -2.96847e-10 4.48781e-15)
(1760 -3.53459e-10 3.77068e-15)
(1760 -3.88043e-10 3.38184e-15)
(1760 -3.96706e-10 3.49927e-15)
(1760 -3.69022e-10 3.28479e-15)
(1760 -3.30301e-10 3.76866e-15)
(1760 -2.80747e-10 3.95161e-15)
(1760 -2.20407e-10 3.66819e-15)
(1760 -1.41838e-10 3.21271e-15)
(1760 -7.73043e-11 5.93948e-16)
(1760 -2.81237e-11 4.20164e-15)
(1760 -2.14283e-12 4.81129e-15)
(1760 -2.49113e-12 6.04677e-15)
(1760 -1.49952e-11 6.43515e-15)
(1760 -3.5288e-11 6.45911e-15)
(1760 -6.17263e-11 5.35805e-15)
(1760 -1.04385e-10 4.29338e-15)
(1760 -3.31236e-10 1.81154e-14)
(1760 -3.31568e-10 2.15761e-14)
(1760 -3.30263e-10 2.04599e-14)
(1760 -3.29826e-10 1.98599e-14)
(1760 -3.28436e-10 2.2368e-14)
(1760 -3.27763e-10 2.15716e-14)
(1760 -3.26663e-10 2.00379e-14)
(1760 -3.25538e-10 2.02346e-14)
(1760 -3.25265e-10 2.0566e-14)
(1760 -3.24943e-10 2.01095e-14)
(1760 -3.25556e-10 1.98001e-14)
(1760 -3.25937e-10 2.42146e-14)
(1760 -3.26588e-10 1.76584e-14)
(1760 -3.26204e-10 1.78552e-14)
(1760 -3.26202e-10 2.06982e-14)
(1760 -3.26073e-10 2.07601e-14)
(1760 -3.45147e-10 1.27549e-14)
(1760 -3.51466e-10 1.44841e-14)
(1760 -3.57832e-10 1.46377e-14)
(1760 -3.62551e-10 1.46127e-14)
(1760 -3.72076e-10 1.48351e-14)
(1760 -3.83113e-10 1.38862e-14)
(1760 -3.90901e-10 1.25912e-14)
(1760 -3.91301e-10 1.62529e-14)
(1760 -3.89388e-10 1.39305e-14)
(1760 -3.88449e-10 1.34725e-14)
(1760 -3.92326e-10 1.53699e-14)
(1760 -3.91521e-10 1.35564e-14)
(1760 -3.8922e-10 1.55716e-14)
(1760 -3.91117e-10 1.28108e-14)
(1760 -3.90291e-10 1.05895e-14)
(1760 -3.88236e-10 1.0646e-14)
(1760 -3.85536e-10 1.05207e-14)
(1760 -3.79993e-10 1.23356e-14)
(1760 -3.64398e-10 1.36345e-14)
(1760 -3.40085e-10 1.02559e-14)
(1760 -3.03046e-10 1.2845e-14)
(1760 -2.84272e-10 1.26625e-14)
(1760 -2.66144e-10 1.19771e-14)
(1760 -2.45602e-10 1.19041e-14)
(1760 -2.19289e-10 1.29382e-14)
(1760 -1.86674e-10 1.18427e-14)
(1760 -1.61756e-10 1.24007e-14)
(1760 -1.46834e-10 1.2297e-14)
(1760 -1.27809e-10 1.09007e-14)
(1760 -1.0846e-10 1.24921e-14)
(1760 -8.72817e-11 1.14099e-14)
(1760 -6.87472e-11 1.21839e-14)
(1760 -5.52956e-11 1.20009e-14)
(1760 -5.22449e-11 1.24336e-14)
(1760 -6.03718e-11 1.1052e-14)
(1760 -8.78155e-11 1.53716e-14)
(1760 -1.26539e-10 1.03508e-14)
(1760 -1.92977e-10 1.15556e-14)
(1760 -2.18703e-10 1.22384e-14)
(1760 -2.2517e-10 1.19212e-14)
(1760 -2.35449e-10 1.1773e-14)
(1760 -2.73457e-10 1.53912e-14)
(1760 -3.65981e-10 1.03373e-14)
(1760 -4.2511e-10 1.29386e-14)
(1760 -4.59532e-10 1.11695e-14)
(1760 -4.83879e-10 1.17942e-14)
(1760 -5.10262e-10 1.37274e-14)
(1760 -5.43665e-10 1.43971e-14)
(1760 -5.73396e-10 1.27752e-14)
(1760 -6.07249e-10 1.11864e-14)
(1760 -6.44963e-10 1.05364e-14)
(1760 -6.87191e-10 1.1141e-14)
(1760 -6.72258e-10 1.00341e-14)
(1760 -6.23078e-10 1.00594e-14)
(1760 -4.81491e-10 1.1747e-14)
(1760 -1.70277e-10 1.46078e-14)
(1760 -1.14298e-10 1.27237e-14)
(1760 -7.31734e-11 1.31757e-14)
(1760 2.08788e-11 1.42623e-14)
(1760 1.71043e-10 1.42561e-14)
(1760 3.43449e-10 1.4056e-14)
(1760 4.44298e-10 1.34826e-14)
(1760 5.37783e-10 1.44281e-14)
(1760 6.34394e-10 1.45601e-14)
(1760 7.31897e-10 1.18555e-14)
(1760 8.41775e-10 1.08652e-14)
(1760 9.66243e-10 1.47194e-14)
(1760 1.1253e-09 1.28273e-14)
(1760 1.34274e-09 1.26323e-14)
(1760 1.53878e-09 1.50546e-14)
(1760 1.72189e-09 1.21579e-14)
(1760 1.77276e-09 1.19276e-14)
(1760 1.65642e-09 1.277e-14)
(1760 1.76476e-09 1.32818e-14)
(1760 2.0674e-09 1.12907e-14)
(1760 2.42248e-09 1.09028e-14)
(1760 2.8061e-09 1.30286e-14)
(1760 3.1556e-09 1.19501e-14)
(1760 3.51823e-09 1.12735e-14)
(1760 3.92647e-09 1.0414e-14)
(1760 4.38207e-09 1.06598e-14)
(1760 4.84661e-09 1.2056e-14)
(1760 5.3379e-09 1.27485e-14)
(1760 5.8747e-09 1.20341e-14)
(1760 6.48132e-09 1.16749e-14)
(1760 7.19554e-09 1.24289e-14)
(1760 8.00429e-09 1.12894e-14)
(1760 8.97207e-09 1.07968e-14)
(1760 1.0155e-08 1.02527e-14)
(1760 1.14308e-08 1.13548e-14)
(1760 1.26537e-08 1.31802e-14)
(1760 1.3867e-08 1.17936e-14)
(1760 1.52164e-08 1.03809e-14)
(1760 1.66682e-08 1.1165e-14)
(1760 1.79792e-08 8.77895e-15)
(1760 1.90896e-08 1.00404e-14)
(1760 2.00453e-08 8.94857e-15)
(1760 2.08741e-08 1.11825e-14)
(1760 2.15891e-08 1.0487e-14)
(1760 2.21614e-08 9.37607e-15)
(1760 2.26283e-08 9.98428e-15)
(1760 2.30467e-08 1.00493e-14)
(1760 2.34522e-08 9.30723e-15)
(1760 2.3863e-08 1.14126e-14)
(1760 2.42797e-08 1.13459e-14)
(1760 2.47027e-08 8.67292e-15)
(1760 2.5052e-08 8.78744e-15)
(1760 2.51814e-08 1.12898e-14)
(1760 2.50713e-08 1.03608e-14)
(1760 2.47696e-08 1.14788e-14)
(1760 2.42334e-08 1.1694e-14)
(1760 2.35887e-08 1.20263e-14)
(1760 2.28749e-08 9.52755e-15)
(1760 2.21012e-08 1.01973e-14)
(1760 2.12815e-08 1.05417e-14)
(1760 2.04318e-08 9.83598e-15)
(1760 1.95865e-08 9.90293e-15)
(1760 1.87692e-08 1.10906e-14)
(1760 1.79725e-08 9.94181e-15)
(1760 1.71644e-08 1.03898e-14)
(1760 1.64024e-08 1.09092e-14)
(1760 1.56952e-08 9.48722e-15)
(1760 1.50247e-08 1.01022e-14)
(1760 1.43641e-08 1.10863e-14)
(1760 1.37199e-08 9.76417e-15)
(1760 1.30586e-08 9.53176e-15)
(1760 1.24079e-08 8.36376e-15)
(1760 1.18593e-08 9.90204e-15)
(1760 1.13303e-08 8.41208e-15)
(1760 1.08394e-08 7.75749e-15)
(1760 1.03586e-08 1.00787e-14)
(1760 9.82685e-09 8.17274e-15)
(1760 9.27632e-09 1.10511e-14)
(1760 8.74785e-09 9.94108e-15)
(1760 8.22224e-09 9.33769e-15)
(1760 7.72236e-09 9.63692e-15)
(1760 7.25684e-09 9.5796e-15)
(1760 6.78284e-09 9.77794e-15)
(1760 6.34848e-09 1.12211e-14)
(1760 5.9133e-09 1.00976e-14)
(1760 5.49557e-09 9.5034e-15)
(1760 5.07552e-09 9.82116e-15)
(1760 4.70738e-09 1.00444e-14)
(1760 4.33944e-09 1.01966e-14)
(1760 3.95562e-09 9.03783e-15)
(1760 3.60839e-09 9.14253e-15)
(1760 3.24325e-09 9.09507e-15)
(1760 2.87688e-09 1.07791e-14)
(1760 2.60065e-09 9.56803e-15)
(1760 2.27387e-09 8.4158e-15)
(1760 1.9896e-09 9.78847e-15)
(1760 2.08318e-09 9.98173e-15)
(1760 1.93452e-09 1.01251e-14)
(1760 1.62866e-09 8.87634e-15)
(1760 1.3714e-09 8.86636e-15)
(1760 1.15541e-09 1.00371e-14)
(1760 9.22989e-10 1.03247e-14)
(1760 7.07594e-10 1.10343e-14)
(1760 5.23992e-10 9.1728e-15)
(1760 3.30154e-10 9.32513e-15)
(1760 1.59048e-10 9.79808e-15)
(1760 8.26006e-11 7.51793e-15)
(1760 -6.37382e-11 7.68983e-15)
(1760 -2.59674e-10 7.89635e-15)
(1760 -5.43219e-10 8.02742e-15)
(1760 -7.75567e-10 9.13584e-15)
(1760 -8.5744e-10 5.88453e-15)
(1760 -8.55019e-10 6.20122e-15)
(1760 -8.13902e-10 8.35545e-15)
(1760 -7.18029e-10 7.10294e-15)
(1760 -6.30086e-10 5.21004e-15)
(1760 -5.26034e-10 8.07552e-15)
(1760 -3.69377e-10 8.07527e-15)
(1760 -2.65529e-10 7.1699e-15)
(1760 -1.41417e-10 5.45046e-15)
(1760 -1.86468e-11 4.75988e-15)
(1760 3.84018e-11 7.6007e-15)
(1760 3.45801e-11 7.6257e-15)
(1760 1.20169e-11 6.51059e-15)
(1760 -2.25149e-11 5.9139e-15)
(1760 -7.54476e-11 5.85466e-15)
(1760 -1.41586e-10 5.84907e-15)
(1760 -2.18735e-10 6.51777e-15)
(1760 -2.81373e-10 6.9589e-15)
(1760 -3.52591e-10 6.42722e-15)
(1760 -4.16651e-10 8.69907e-15)
(1760 -4.30959e-10 6.52312e-15)
(1760 -4.29538e-10 5.11922e-15)
(1760 -4.24009e-10 7.24922e-15)
(1760 -4.05405e-10 6.29492e-15)
(1760 -3.81903e-10 5.89674e-15)
(1760 -3.59486e-10 6.95937e-15)
(1760 -2.93026e-10 7.0176e-15)
(1760 -4.67625e-10 2.7607e-14)
(1760 -4.6881e-10 2.71152e-14)
(1760 -4.68966e-10 2.39942e-14)
(1760 -4.68633e-10 2.90142e-14)
(1760 -4.68366e-10 2.96095e-14)
(1760 -4.6801e-10 2.37209e-14)
(1760 -4.67111e-10 2.71469e-14)
(1760 -4.64079e-10 2.65632e-14)
(1760 -4.6326e-10 2.4913e-14)
(1760 -4.6123e-10 2.80017e-14)
(1760 -4.59704e-10 3.11661e-14)
(1760 -4.57832e-10 2.99989e-14)
(1760 -4.56535e-10 2.77973e-14)
(1760 -4.5443e-10 2.66515e-14)
(1760 -4.5363e-10 2.68862e-14)
(1760 -4.51227e-10 2.64508e-14)
(1760 -2.92651e-10 1.83167e-14)
(1760 -2.82939e-10 1.63802e-14)
(1760 -2.73415e-10 1.75004e-14)
(1760 -2.62989e-10 1.73036e-14)
(1760 -2.5061e-10 1.9715e-14)
(1760 -2.4451e-10 2.05108e-14)
(1760 -2.36252e-10 1.70049e-14)
(1760 -2.30865e-10 1.67839e-14)
(1760 -2.19639e-10 1.9818e-14)
(1760 -2.09725e-10 2.09423e-14)
(1760 -1.95887e-10 1.86972e-14)
(1760 -1.76835e-10 1.86989e-14)
(1760 -1.65228e-10 1.72442e-14)
(1760 -1.67047e-10 1.66964e-14)
(1760 -1.76574e-10 2.04363e-14)
(1760 -1.89667e-10 1.73537e-14)
(1760 -2.10082e-10 1.70719e-14)
(1760 -2.26096e-10 1.5872e-14)
(1760 -2.59314e-10 1.37286e-14)
(1760 -3.12761e-10 1.59328e-14)
(1760 -3.85406e-10 1.85713e-14)
(1760 -4.3964e-10 2.05232e-14)
(1760 -4.65523e-10 1.97671e-14)
(1760 -4.93774e-10 1.8362e-14)
(1760 -5.20846e-10 1.6682e-14)
(1760 -5.5242e-10 1.68705e-14)
(1760 -5.83641e-10 1.72981e-14)
(1760 -6.13561e-10 1.6223e-14)
(1760 -6.45157e-10 1.9799e-14)
(1760 -6.74814e-10 1.81901e-14)
(1760 -7.01038e-10 1.49613e-14)
(1760 -7.2327e-10 1.77288e-14)
(1760 -7.54432e-10 1.5891e-14)
(1760 -7.87112e-10 1.58274e-14)
(1760 -7.94696e-10 1.71094e-14)
(1760 -7.55809e-10 1.76213e-14)
(1760 -6.86188e-10 1.82048e-14)
(1760 -4.06559e-10 2.01391e-14)
(1760 -1.93793e-10 1.81397e-14)
(1760 -1.67569e-10 1.71519e-14)
(1760 -9.50028e-11 1.88733e-14)
(1760 1.94606e-11 1.77279e-14)
(1760 1.86799e-10 1.79722e-14)
(1760 3.35485e-10 1.92569e-14)
(1760 4.448e-10 1.91744e-14)
(1760 5.48526e-10 1.86267e-14)
(1760 6.54921e-10 1.82132e-14)
(1760 7.71497e-10 1.76155e-14)
(1760 9.00279e-10 1.90101e-14)
(1760 1.03127e-09 1.5928e-14)
(1760 1.20209e-09 1.58162e-14)
(1760 1.37411e-09 1.9253e-14)
(1760 1.53686e-09 1.87387e-14)
(1760 1.70184e-09 1.79695e-14)
(1760 1.66694e-09 1.85315e-14)
(1760 1.62421e-09 1.81991e-14)
(1760 1.88007e-09 1.65772e-14)
(1760 2.27467e-09 1.76791e-14)
(1760 2.60241e-09 1.86003e-14)
(1760 2.9208e-09 1.83437e-14)
(1760 3.22135e-09 1.87388e-14)
(1760 3.56126e-09 1.78287e-14)
(1760 3.96894e-09 1.69902e-14)
(1760 4.41843e-09 1.77351e-14)
(1760 4.90488e-09 1.52284e-14)
(1760 5.44375e-09 1.51412e-14)
(1760 6.0278e-09 1.85656e-14)
(1760 6.70989e-09 1.7209e-14)
(1760 7.48032e-09 1.68654e-14)
(1760 8.28682e-09 1.74207e-14)
(1760 9.16395e-09 1.65805e-14)
(1760 1.00364e-08 1.6111e-14)
(1760 1.11602e-08 1.60014e-14)
(1760 1.26674e-08 1.61515e-14)
(1760 1.42643e-08 1.65344e-14)
(1760 1.59274e-08 1.5912e-14)
(1760 1.79081e-08 1.65392e-14)
(1760 2.0396e-08 1.5629e-14)
(1760 2.33742e-08 1.61704e-14)
(1760 2.67357e-08 1.58567e-14)
(1760 3.03738e-08 1.78102e-14)
(1760 3.42376e-08 1.60106e-14)
(1760 3.8326e-08 1.56704e-14)
(1760 4.27243e-08 1.54014e-14)
(1760 4.75817e-08 1.66461e-14)
(1760 5.30345e-08 1.64763e-14)
(1760 5.91962e-08 1.54764e-14)
(1760 6.60787e-08 1.48127e-14)
(1760 7.34597e-08 1.38018e-14)
(1760 8.10559e-08 1.55414e-14)
(1760 8.88444e-08 1.68228e-14)
(1760 9.69864e-08 1.52485e-14)
(1760 1.05403e-07 1.5352e-14)
(1760 1.13677e-07 1.5969e-14)
(1760 1.21512e-07 1.36984e-14)
(1760 1.2876e-07 1.37714e-14)
(1760 1.35328e-07 1.29036e-14)
(1760 1.41141e-07 1.43577e-14)
(1760 1.46139e-07 1.48934e-14)
(1760 1.50374e-07 1.30272e-14)
(1760 1.54035e-07 1.43602e-14)
(1760 1.57432e-07 1.37361e-14)
(1760 1.60806e-07 1.36457e-14)
(1760 1.64371e-07 1.456e-14)
(1760 1.68212e-07 1.37569e-14)
(1760 1.71974e-07 1.28091e-14)
(1760 1.75757e-07 1.42356e-14)
(1760 1.79609e-07 1.46478e-14)
(1760 1.82425e-07 1.36769e-14)
(1760 1.84421e-07 1.26699e-14)
(1760 1.8474e-07 1.39738e-14)
(1760 1.83025e-07 1.63345e-14)
(1760 1.79497e-07 1.32544e-14)
(1760 1.74471e-07 1.30468e-14)
(1760 1.68336e-07 1.3698e-14)
(1760 1.61407e-07 1.19415e-14)
(1760 1.53925e-07 1.28883e-14)
(1760 1.46083e-07 1.33945e-14)
(1760 1.38027e-07 1.40306e-14)
(1760 1.29915e-07 1.71953e-14)
(1760 1.2199e-07 1.48264e-14)
(1760 1.144e-07 1.27119e-14)
(1760 1.07178e-07 1.35244e-14)
(1760 1.00377e-07 1.47481e-14)
(1760 9.41986e-08 1.31218e-14)
(1760 8.84764e-08 1.40712e-14)
(1760 8.32624e-08 1.17709e-14)
(1760 7.8529e-08 1.19725e-14)
(1760 7.41254e-08 1.48346e-14)
(1760 7.00736e-08 1.25754e-14)
(1760 6.63472e-08 1.3368e-14)
(1760 6.27997e-08 1.2311e-14)
(1760 5.93982e-08 1.23424e-14)
(1760 5.60969e-08 1.21094e-14)
(1760 5.28349e-08 1.25591e-14)
(1760 4.95845e-08 1.20177e-14)
(1760 4.64326e-08 1.35969e-14)
(1760 4.32989e-08 1.39511e-14)
(1760 4.02583e-08 1.2219e-14)
(1760 3.72971e-08 1.26595e-14)
(1760 3.44147e-08 1.11164e-14)
(1760 3.16081e-08 1.21498e-14)
(1760 2.89512e-08 1.25887e-14)
(1760 2.64091e-08 1.31387e-14)
(1760 2.39641e-08 1.11907e-14)
(1760 2.16199e-08 1.4409e-14)
(1760 1.93943e-08 1.25653e-14)
(1760 1.71614e-08 1.32671e-14)
(1760 1.52226e-08 1.28359e-14)
(1760 1.32842e-08 1.19058e-14)
(1760 1.15911e-08 1.36017e-14)
(1760 1.0202e-08 1.1438e-14)
(1760 9.13683e-09 1.2183e-14)
(1760 8.15377e-09 1.1169e-14)
(1760 7.24422e-09 1.23544e-14)
(1760 6.40831e-09 1.1568e-14)
(1760 5.58282e-09 1.27805e-14)
(1760 4.80508e-09 1.35602e-14)
(1760 4.10689e-09 1.32673e-14)
(1760 3.43053e-09 1.20968e-14)
(1760 2.80548e-09 1.37291e-14)
(1760 2.36365e-09 1.20212e-14)
(1760 1.72241e-09 1.25797e-14)
(1760 1.74209e-09 1.07412e-14)
(1760 1.61728e-09 1.2434e-14)
(1760 1.29002e-09 1.3803e-14)
(1760 9.91005e-10 1.19498e-14)
(1760 7.51275e-10 1.14849e-14)
(1760 5.37025e-10 1.19667e-14)
(1760 3.19668e-10 9.40083e-15)
(1760 1.83704e-10 1.30095e-14)
(1760 2.69862e-12 1.14215e-14)
(1760 -1.80711e-10 1.14269e-14)
(1760 -4.81556e-10 1.24324e-14)
(1760 -7.43883e-10 1.16169e-14)
(1760 -8.85645e-10 9.5719e-15)
(1760 -9.28701e-10 1.015e-14)
(1760 -9.22269e-10 9.45216e-15)
(1760 -8.59194e-10 8.64695e-15)
(1760 -7.81441e-10 8.47904e-15)
(1760 -6.63759e-10 9.35185e-15)
(1760 -5.44373e-10 8.67429e-15)
(1760 -4.74555e-10 8.04938e-15)
(1760 -3.27652e-10 8.99249e-15)
(1760 -1.74278e-10 9.98774e-15)
(1760 -7.67378e-11 1.0095e-14)
(1760 -3.25913e-11 8.52538e-15)
(1760 -4.46084e-11 8.45062e-15)
(1760 -7.19384e-11 9.26061e-15)
(1760 -1.15577e-10 9.95175e-15)
(1760 -1.88758e-10 9.76749e-15)
(1760 -2.51697e-10 9.36949e-15)
(1760 -3.839e-10 8.71973e-15)
(1760 -5.93132e-10 3.48624e-14)
(1760 -5.91797e-10 3.55199e-14)
(1760 -5.91244e-10 3.76904e-14)
(1760 -5.8976e-10 3.9701e-14)
(1760 -5.87147e-10 3.47826e-14)
(1760 -5.85959e-10 3.44964e-14)
(1760 -5.86743e-10 3.64267e-14)
(1760 -5.87721e-10 3.59769e-14)
(1760 -5.88166e-10 3.50797e-14)
(1760 -5.90298e-10 3.81834e-14)
(1760 -5.9412e-10 3.85302e-14)
(1760 -5.98193e-10 3.52119e-14)
(1760 -6.01981e-10 3.64224e-14)
(1760 -6.05093e-10 3.31681e-14)
(1760 -6.08533e-10 3.24851e-14)
(1760 -7.01334e-10 2.62731e-14)
(1760 -7.0786e-10 2.42069e-14)
(1760 -7.19717e-10 2.3336e-14)
(1760 -7.27301e-10 2.16325e-14)
(1760 -7.35187e-10 2.48687e-14)
(1760 -7.4695e-10 2.23438e-14)
(1760 -7.559e-10 2.11789e-14)
(1760 -7.6798e-10 2.35472e-14)
(1760 -7.82583e-10 2.40126e-14)
(1760 -8.00357e-10 2.49085e-14)
(1760 -8.21019e-10 2.4032e-14)
(1760 -8.4227e-10 2.35249e-14)
(1760 -8.59469e-10 2.58154e-14)
(1760 -8.6818e-10 2.58466e-14)
(1760 -8.35315e-10 2.33593e-14)
(1760 -8.16876e-10 2.46669e-14)
(1760 -7.70667e-10 2.61492e-14)
(1760 -7.33106e-10 2.48168e-14)
(1760 -6.8901e-10 2.55074e-14)
(1760 -6.02065e-10 2.27251e-14)
(1760 -4.59684e-10 2.18913e-14)
(1760 -7.03018e-11 2.33261e-14)
(1760 1.0081e-10 2.31104e-14)
(1760 1.87742e-10 2.43252e-14)
(1760 2.79848e-10 2.41875e-14)
(1760 3.53022e-10 2.46116e-14)
(1760 4.25316e-10 2.56998e-14)
(1760 5.1804e-10 2.51483e-14)
(1760 6.11275e-10 2.62059e-14)
(1760 7.12766e-10 2.53286e-14)
(1760 8.22683e-10 2.48998e-14)
(1760 9.46971e-10 2.42388e-14)
(1760 1.09067e-09 2.43287e-14)
(1760 1.26461e-09 2.5426e-14)
(1760 1.43687e-09 2.46617e-14)
(1760 1.61e-09 2.54411e-14)
(1760 1.65564e-09 2.51523e-14)
(1760 1.52507e-09 2.47064e-14)
(1760 1.56248e-09 2.30944e-14)
(1760 1.82517e-09 2.12412e-14)
(1760 2.16945e-09 2.15064e-14)
(1760 2.51266e-09 2.23436e-14)
(1760 2.84514e-09 2.26665e-14)
(1760 3.17716e-09 2.185e-14)
(1760 3.56686e-09 2.07261e-14)
(1760 4.00434e-09 2.1175e-14)
(1760 4.47594e-09 2.18886e-14)
(1760 5.0028e-09 2.19877e-14)
(1760 5.59255e-09 2.22563e-14)
(1760 6.23888e-09 2.12782e-14)
(1760 6.96655e-09 2.25874e-14)
(1760 7.7724e-09 2.2522e-14)
(1760 8.70332e-09 2.33326e-14)
(1760 9.68486e-09 2.09255e-14)
(1760 1.07751e-08 2.16175e-14)
(1760 1.21505e-08 2.24355e-14)
(1760 1.36601e-08 2.25205e-14)
(1760 1.51217e-08 2.39219e-14)
(1760 1.6491e-08 2.07113e-14)
(1760 1.80313e-08 1.8462e-14)
(1760 1.99316e-08 2.21307e-14)
(1760 2.22171e-08 2.39936e-14)
(1760 2.48445e-08 2.02156e-14)
(1760 2.7854e-08 2.10551e-14)
(1760 3.13941e-08 2.1913e-14)
(1760 3.55887e-08 2.13639e-14)
(1760 4.04938e-08 2.18164e-14)
(1760 4.61282e-08 2.16797e-14)
(1760 5.23931e-08 2.13525e-14)
(1760 5.916e-08 2.15292e-14)
(1760 6.64217e-08 2.08383e-14)
(1760 7.43632e-08 2.08586e-14)
(1760 8.32146e-08 2.01709e-14)
(1760 9.30733e-08 2.31875e-14)
(1760 1.0409e-07 2.16525e-14)
(1760 1.16681e-07 1.93944e-14)
(1760 1.31144e-07 2.00151e-14)
(1760 1.47432e-07 2.07637e-14)