/*--------------------------------*- C++ -*----------------------------------*\
| =========                 |                                                 |
| \\      /  F ield         | OpenFOAM: The Open Source CFD Toolbox           |
|  \\    /   O peration     | Version:  v1706                                 |
|   \\  /    A nd           | Web:      www.OpenFOAM.com                      |
|    \\/     M anipulation  |                                                 |
\*---------------------------------------------------------------------------*/
FoamFile
{
    version     2.0;
    format      ascii;
    class       volScalarField;
    location    "4e-05";
    object      wallHeatFlux;
}
// * * * * * * * * * * * * * * * * * * * * * * * * * * * * * * * * * * * * * //

dimensions      [1 0 -3 0 0 0 0];


internalField   uniform 0;

boundaryField
{
    cone
    {
        type            calculated;
        value           nonuniform List<scalar> 
119
(
18006.7
16804.6
15556.7
14295.2
13050.4
11848.8
10711.7
9655.31
8690.29
7822.42
7053.21
6380.74
5800.59
5306.81
4894.12
4556.89
4288.97
4086.32
3944.02
3857.48
3823.03
3836.86
3896.41
3999.12
4140.83
4317.94
4526.42
4761.66
5018.57
5291.61
5574.97
5862.75
6149.2
6429.01
6697.53
6950.99
7186.6
7402.62
7598.28
7773.72
7929.89
8068.39
8191.31
8301.07
8400.29
8491.58
8577.49
8660.4
8742.42
8825.36
8910.67
8999.4
9092.17
9189.12
9289.94
9393.82
9499.48
9605.17
9708.76
9807.79
9899.63
9981.44
10050.4
10103.5
10138
10151.9
10144.1
10113.5
10059.9
9984.2
9887.71
9772.37
9640.59
9494.98
9338.11
9172.32
8999.53
8821.28
8638.63
8452.28
8262.58
8069.59
7873.13
7672.85
7468.31
7258.97
7044.33
6823.93
6597.55
6365.26
6127.62
5885.78
5641.69
5398.16
5158.73
4927.23
4707.33
4502.39
4316.61
4153.72
4017.3
3911.83
3840.82
3806.96
3812.13
3858.47
3946.01
4071.48
4231.06
4419.87
4632.53
4864.38
5113.77
5383.52
5677.68
5998.75
6376.77
6852.1
7492.83
)
;
    }
    inlet
    {
        type            calculated;
        value           uniform 0;
    }
    rWedge
    {
        type            wedge;
    }
    lWedge
    {
        type            wedge;
    }
    outlet
    {
        type            calculated;
        value           uniform 0;
    }
    procBoundary0to1
    {
        type            processor;
        value           uniform 0;
    }
    procBoundary0to2
    {
        type            processor;
        value           uniform 0;
    }
}


// ************************************************************************* //
