/*--------------------------------*- C++ -*----------------------------------*\
| =========                 |                                                 |
| \\      /  F ield         | OpenFOAM: The Open Source CFD Toolbox           |
|  \\    /   O peration     | Version:  v1706                                 |
|   \\  /    A nd           | Web:      www.OpenFOAM.com                      |
|    \\/     M anipulation  |                                                 |
\*---------------------------------------------------------------------------*/
FoamFile
{
    version     2.0;
    format      ascii;
    class       volScalarField;
    location    "4e-05";
    object      kappatr;
}
// * * * * * * * * * * * * * * * * * * * * * * * * * * * * * * * * * * * * * //

dimensions      [1 1 -3 -1 0 0 0];


internalField   nonuniform List<scalar> 
30038
(
0.014593
0.014593
0.014593
0.014593
0.014593
0.014593
0.014593
0.014593
0.014593
0.014593
0.014593
0.014593
0.014593
0.014593
0.014593
0.014593
0.014593
0.014593
0.014593
0.014593
0.014593
0.014593
0.014593
0.014593
0.014593
0.014593
0.014593
0.014593
0.014593
0.014593
0.014593
0.014593
0.014593
0.014593
0.014593
0.014593
0.014593
0.014593
0.014593
0.014593
0.014593
0.014593
0.014593
0.014593
0.014593
0.014593
0.014593
0.014593
0.014593
0.014593
0.014593
0.014593
0.014593
0.014593
0.014593
0.014593
0.014593
0.014593
0.014593
0.014593
0.014593
0.014593
0.014593
0.014593
0.014593
0.014593
0.014593
0.014593
0.014593
0.014593
0.014593
0.014593
0.014593
0.014593
0.014593
0.014593
0.014593
0.014593
0.014593
0.014593
0.014593
0.014593
0.014593
0.014593
0.014593
0.014593
0.014593
0.014593
0.014593
0.014593
0.014593
0.014593
0.014593
0.014593
0.014593
0.014593
0.014593
0.014593
0.014593
0.014593
0.014593
0.014593
0.014593
0.014593
0.014593
0.014593
0.014593
0.014593
0.014593
0.014593
0.014593
0.014593
0.014593
0.014593
0.014593
0.014593
0.014593
0.014593
0.014593
0.014593
0.014593
0.014593
0.014593
0.014593
0.014593
0.014593
0.014593
0.014593
0.014593
0.014593
0.014593
0.014593
0.014593
0.014593
0.014593
0.014593
0.014593
0.014593
0.014593
0.014593
0.014593
0.014593
0.014593
0.014593
0.014593
0.014593
0.014593
0.014593
0.014593
0.014593
0.014593
0.014593
0.014593
0.014593
0.014593
0.014593
0.014593
0.014593
0.014593
0.014593
0.014593
0.014593
0.014593
0.014593
0.014593
0.014593
0.014593
0.014593
0.014593
0.014593
0.014593
0.014593
0.014593
0.014593
0.014593
0.014593
0.014593
0.014593
0.014593
0.014593
0.014593
0.014593
0.014593
0.014593
0.014593
0.014593
0.014593
0.014593
0.014593
0.014593
0.014593
0.014593
0.014593
0.014593
0.014593
0.014593
0.014593
0.014593
0.014593
0.014593
0.014593
0.014593
0.014593
0.014593
0.014593
0.014593
0.014593
0.014593
0.014593
0.014593
0.014593
0.014593
0.014593
0.014593
0.014593
0.014593
0.014593
0.014593
0.014593
0.014593
0.014593
0.014593
0.014593
0.014593
0.014593
0.014593
0.014593
0.014593
0.014593
0.014593
0.014593
0.014593
0.014593
0.014593
0.014593
0.014593
0.014593
0.014593
0.014593
0.014593
0.014593
0.014593
0.014593
0.014593
0.014593
0.014593
0.014593
0.014593
0.014593
0.014593
0.014593
0.014593
0.014593
0.014593
0.014593
0.014593
0.014593
0.014593
0.014593
0.014593
0.014593
0.014593
0.014593
0.014593
0.014593
0.014593
0.014593
0.014593
0.014593
0.014593
0.014593
0.014593
0.014593
0.014593
0.014593
0.014593
0.014593
0.014593
0.014593
0.014593
0.014593
0.014593
0.014593
0.014593
0.014593
0.014593
0.014593
0.014593
0.014593
0.014593
0.014593
0.014593
0.014593
0.014593
0.014593
0.014593
0.014593
0.014593
0.014593
0.014593
0.014593
0.014593
0.014593
0.014593
0.014593
0.014593
0.014593
0.014593
0.014593
0.014593
0.014593
0.014593
0.014593
0.014593
0.014593
0.014593
0.014593
0.014593
0.014593
0.014593
0.014593
0.014593
0.014593
0.014593
0.014593
0.014593
0.014593
0.014593
0.014593
0.014593
0.014593
0.014593
0.014593
0.014593
0.014593
0.014593
0.014593
0.014593
0.014593
0.014593
0.014593
0.014593
0.014593
0.014593
0.014593
0.014593
0.014593
0.014593
0.014593
0.014593
0.014593
0.014593
0.014593
0.014593
0.014593
0.014593
0.014593
0.014593
0.014593
0.014593
0.014593
0.014593
0.014593
0.014593
0.014593
0.014593
0.014593
0.014593
0.014593
0.014593
0.014593
0.014593
0.014593
0.014593
0.014593
0.014593
0.014593
0.014593
0.014593
0.014593
0.014593
0.014593
0.014593
0.014593
0.014593
0.014593
0.014593
0.014593
0.014593
0.014593
0.014593
0.014593
0.014593
0.014593
0.014593
0.014593
0.014593
0.014593
0.014593
0.014593
0.014593
0.014593
0.014593
0.014593
0.014593
0.014593
0.014593
0.014593
0.014593
0.014593
0.014593
0.014593
0.014593
0.014593
0.014593
0.014593
0.014593
0.014593
0.014593
0.014593
0.014593
0.014593
0.014593
0.014593
0.014593
0.014593
0.014593
0.014593
0.014593
0.014593
0.014593
0.014593
0.014593
0.014593
0.014593
0.014593
0.014593
0.014593
0.014593
0.014593
0.014593
0.014593
0.014593
0.014593
0.014593
0.014593
0.014593
0.014593
0.014593
0.014593
0.014593
0.014593
0.014593
0.014593
0.014593
0.014593
0.014593
0.014593
0.014593
0.014593
0.014593
0.014593
0.014593
0.014593
0.014593
0.014593
0.014593
0.014593
0.014593
0.014593
0.014593
0.014593
0.014593
0.014593
0.014593
0.014593
0.014593
0.014593
0.014593
0.014593
0.014593
0.014593
0.014593
0.014593
0.014593
0.014593
0.014593
0.014593
0.014593
0.014593
0.014593
0.014593
0.014593
0.014593
0.014593
0.014593
0.014593
0.014593
0.014593
0.014593
0.014593
0.014593
0.014593
0.014593
0.014593
0.014593
0.014593
0.014593
0.014593
0.014593
0.014593
0.014593
0.014593
0.014593
0.014593
0.014593
0.014593
0.014593
0.014593
0.014593
0.014593
0.014593
0.014593
0.014593
0.014593
0.014593
0.014593
0.014593
0.014593
0.014593
0.014593
0.014593
0.014593
0.014593
0.014593
0.014593
0.014593
0.014593
0.014593
0.014593
0.014593
0.014593
0.014593
0.014593
0.014593
0.014593
0.014593
0.014593
0.014593
0.014593
0.014593
0.014593
0.014593
0.014593
0.014593
0.014593
0.014593
0.014593
0.014593
0.014593
0.014593
0.014593
0.014593
0.014593
0.014593
0.014593
0.014593
0.014593
0.014593
0.014593
0.014593
0.014593
0.014593
0.014593
0.014593
0.014593
0.014593
0.014593
0.014593
0.014593
0.014593
0.014593
0.014593
0.014593
0.014593
0.014593
0.014593
0.014593
0.014593
0.014593
0.014593
0.014593
0.014593
0.014593
0.014593
0.014593
0.014593
0.014593
0.014593
0.014593
0.014593
0.014593
0.014593
0.014593
0.014593
0.014593
0.014593
0.014593
0.014593
0.014593
0.014593
0.014593
0.014593
0.014593
0.014593
0.014593
0.014593
0.014593
0.014593
0.014593
0.014593
0.014593
0.014593
0.014593
0.014593
0.014593
0.014593
0.014593
0.014593
0.014593
0.014593
0.014593
0.014593
0.014593
0.014593
0.014593
0.014593
0.014593
0.014593
0.014593
0.014593
0.014593
0.014593
0.014593
0.014593
0.014593
0.014593
0.014593
0.014593
0.014593
0.014593
0.014593
0.014593
0.014593
0.014593
0.014593
0.014593
0.014593
0.014593
0.014593
0.014593
0.014593
0.014593
0.014593
0.014593
0.014593
0.014593
0.014593
0.014593
0.014593
0.014593
0.014593
0.014593
0.014593
0.014593
0.014593
0.014593
0.014593
0.014593
0.014593
0.014593
0.014593
0.014593
0.014593
0.014593
0.014593
0.014593
0.014593
0.014593
0.014593
0.014593
0.014593
0.014593
0.014593
0.014593
0.014593
0.014593
0.014593
0.014593
0.014593
0.014593
0.014593
0.014593
0.014593
0.014593
0.014593
0.014593
0.014593
0.014593
0.014593
0.014593
0.014593
0.014593
0.014593
0.014593
0.014593
0.014593
0.014593
0.014593
0.014593
0.014593
0.014593
0.014593
0.014593
0.014593
0.014593
0.014593
0.014593
0.014593
0.014593
0.014593
0.014593
0.014593
0.014593
0.014593
0.014593
0.014593
0.014593
0.014593
0.014593
0.014593
0.014593
0.014593
0.014593
0.014593
0.014593
0.014593
0.014593
0.014593
0.014593
0.014593
0.014593
0.014593
0.014593
0.014593
0.014593
0.014593
0.014593
0.014593
0.014593
0.014593
0.014593
0.014593
0.014593
0.014593
0.014593
0.014593
0.014593
0.014593
0.014593
0.014593
0.014593
0.014593
0.014593
0.014593
0.014593
0.014593
0.014593
0.014593
0.014593
0.014593
0.014593
0.014593
0.014593
0.014593
0.014593
0.014593
0.014593
0.014593
0.014593
0.014593
0.014593
0.014593
0.014593
0.014593
0.014593
0.014593
0.014593
0.014593
0.014593
0.014593
0.014593
0.014593
0.014593
0.014593
0.014593
0.014593
0.014593
0.014593
0.014593
0.014593
0.014593
0.014593
0.014593
0.014593
0.014593
0.014593
0.014593
0.014593
0.014593
0.014593
0.014593
0.014593
0.014593
0.014593
0.014593
0.014593
0.014593
0.014593
0.014593
0.014593
0.014593
0.014593
0.014593
0.014593
0.014593
0.014593
0.014593
0.014593
0.014593
0.014593
0.014593
0.014593
0.014593
0.014593
0.014593
0.014593
0.014593
0.014593
0.014593
0.014593
0.014593
0.014593
0.014593
0.014593
0.014593
0.014593
0.014593
0.014593
0.014593
0.014593
0.014593
0.014593
0.014593
0.014593
0.014593
0.014593
0.014593
0.014593
0.014593
0.014593
0.014593
0.014593
0.014593
0.014593
0.014593
0.014593
0.014593
0.014593
0.014593
0.014593
0.014593
0.014593
0.014593
0.014593
0.014593
0.014593
0.014593
0.014593
0.014593
0.014593
0.014593
0.014593
0.014593
0.014593
0.014593
0.014593
0.014593
0.014593
0.014593
0.014593
0.014593
0.014593
0.014593
0.014593
0.014593
0.014593
0.014593
0.014593
0.014593
0.014593
0.014593
0.014593
0.014593
0.014593
0.014593
0.014593
0.014593
0.014593
0.014593
0.014593
0.014593
0.014593
0.014593
0.014593
0.014593
0.014593
0.014593
0.014593
0.014593
0.014593
0.014593
0.014593
0.014593
0.014593
0.014593
0.014593
0.014593
0.014593
0.014593
0.014593
0.014593
0.014593
0.014593
0.014593
0.014593
0.014593
0.014593
0.014593
0.014593
0.014593
0.014593
0.014593
0.014593
0.014593
0.014593
0.014593
0.014593
0.014593
0.014593
0.014593
0.014593
0.014593
0.014593
0.014593
0.014593
0.014593
0.014593
0.014593
0.014593
0.014593
0.014593
0.014593
0.014593
0.014593
0.014593
0.014593
0.014593
0.014593
0.014593
0.014593
0.014593
0.014593
0.014593
0.014593
0.014593
0.014593
0.014593
0.014593
0.014593
0.014593
0.014593
0.014593
0.014593
0.014593
0.014593
0.014593
0.014593
0.014593
0.014593
0.014593
0.014593
0.014593
0.014593
0.014593
0.014593
0.014593
0.014593
0.014593
0.014593
0.014593
0.014593
0.014593
0.014593
0.014593
0.014593
0.014593
0.014593
0.014593
0.014593
0.014593
0.014593
0.014593
0.014593
0.014593
0.014593
0.014593
0.014593
0.014593
0.014593
0.014593
0.014593
0.014593
0.014593
0.014593
0.014593
0.014593
0.014593
0.014593
0.014593
0.014593
0.014593
0.014593
0.014593
0.014593
0.014593
0.014593
0.014593
0.014593
0.014593
0.014593
0.014593
0.014593
0.014593
0.014593
0.014593
0.014593
0.014593
0.014593
0.014593
0.014593
0.014593
0.014593
0.014593
0.014593
0.014593
0.014593
0.014593
0.014593
0.014593
0.014593
0.014593
0.014593
0.014593
0.014593
0.014593
0.014593
0.014593
0.014593
0.014593
0.014593
0.014593
0.014593
0.014593
0.014593
0.014593
0.014593
0.014593
0.014593
0.014593
0.014593
0.014593
0.014593
0.014593
0.014593
0.014593
0.014593
0.014593
0.014593
0.014593
0.014593
0.014593
0.014593
0.014593
0.014593
0.014593
0.014593
0.014593
0.014593
0.014593
0.014593
0.014593
0.014593
0.014593
0.014593
0.014593
0.014593
0.014593
0.014593
0.014593
0.014593
0.014593
0.014593
0.014593
0.014593
0.014593
0.014593
0.014593
0.014593
0.014593
0.014593
0.014593
0.014593
0.014593
0.014593
0.014593
0.014593
0.014593
0.014593
0.014593
0.014593
0.014593
0.014593
0.014593
0.014593
0.014593
0.014593
0.014593
0.014593
0.014593
0.014593
0.014593
0.014593
0.014593
0.014593
0.014593
0.014593
0.014593
0.014593
0.014593
0.014593
0.014593
0.014593
0.014593
0.014593
0.014593
0.014593
0.014593
0.014593
0.014593
0.014593
0.014593
0.014593
0.014593
0.014593
0.014593
0.014593
0.014593
0.014593
0.014593
0.014593
0.014593
0.014593
0.014593
0.014593
0.014593
0.014593
0.014593
0.014593
0.014593
0.014593
0.014593
0.014593
0.014593
0.014593
0.014593
0.014593
0.014593
0.014593
0.014593
0.014593
0.014593
0.014593
0.014593
0.014593
0.014593
0.014593
0.014593
0.014593
0.014593
0.014593
0.014593
0.014593
0.014593
0.014593
0.014593
0.014593
0.014593
0.014593
0.014593
0.014593
0.014593
0.014593
0.014593
0.014593
0.014593
0.014593
0.014593
0.014593
0.014593
0.014593
0.014593
0.014593
0.014593
0.014593
0.014593
0.014593
0.014593
0.014593
0.014593
0.0145931
0.0145931
0.014593
0.014593
0.014593
0.014593
0.014593
0.014593
0.014593
0.014593
0.014593
0.014593
0.014593
0.014593
0.014593
0.014593
0.014593
0.014593
0.014593
0.014593
0.014593
0.014593
0.014593
0.014593
0.014593
0.014593
0.014593
0.014593
0.014593
0.014593
0.014593
0.014593
0.014593
0.014593
0.014593
0.014593
0.014593
0.014593
0.014593
0.014593
0.014593
0.014593
0.014593
0.014593
0.014593
0.014593
0.0145931
0.0145931
0.0145931
0.0145932
0.0145933
0.0145934
0.014593
0.014593
0.014593
0.014593
0.014593
0.014593
0.014593
0.014593
0.014593
0.014593
0.014593
0.014593
0.014593
0.014593
0.014593
0.014593
0.014593
0.014593
0.014593
0.014593
0.014593
0.014593
0.014593
0.014593
0.014593
0.014593
0.014593
0.014593
0.014593
0.014593
0.014593
0.014593
0.014593
0.014593
0.014593
0.014593
0.014593
0.014593
0.014593
0.014593
0.014593
0.0145931
0.0145931
0.0145931
0.0145932
0.0145933
0.0145934
0.0145936
0.0145939
0.0145944
0.014593
0.014593
0.014593
0.014593
0.014593
0.014593
0.014593
0.014593
0.014593
0.014593
0.014593
0.014593
0.014593
0.014593
0.014593
0.014593
0.014593
0.014593
0.014593
0.014593
0.014593
0.014593
0.014593
0.014593
0.014593
0.014593
0.014593
0.014593
0.014593
0.014593
0.014593
0.014593
0.014593
0.014593
0.014593
0.014593
0.014593
0.014593
0.0145931
0.0145931
0.0145931
0.0145932
0.0145933
0.0145934
0.0145936
0.0145939
0.0145944
0.0145952
0.0145963
0.0145981
0.014593
0.014593
0.014593
0.014593
0.014593
0.014593
0.014593
0.014593
0.014593
0.014593
0.014593
0.014593
0.014593
0.014593
0.014593
0.014593
0.014593
0.014593
0.014593
0.014593
0.014593
0.014593
0.014593
0.014593
0.014593
0.014593
0.014593
0.014593
0.014593
0.014593
0.014593
0.014593
0.014593
0.014593
0.014593
0.0145931
0.0145931
0.0145931
0.0145932
0.0145933
0.0145935
0.0145937
0.014594
0.0145945
0.0145952
0.0145963
0.014598
0.0146006
0.0146045
0.0146107
0.014593
0.014593
0.014593
0.014593
0.014593
0.014593
0.014593
0.014593
0.014593
0.014593
0.014593
0.014593
0.014593
0.014593
0.014593
0.014593
0.014593
0.014593
0.014593
0.014593
0.014593
0.014593
0.014593
0.014593
0.014593
0.014593
0.014593
0.014593
0.014593
0.014593
0.014593
0.0145931
0.0145931
0.0145931
0.0145932
0.0145932
0.0145933
0.0145935
0.0145937
0.0145941
0.0145946
0.0145953
0.0145965
0.0145982
0.0146008
0.0146046
0.0146104
0.0146191
0.0146324
0.0146533
0.014593
0.014593
0.014593
0.014593
0.014593
0.014593
0.014593
0.014593
0.014593
0.014593
0.014593
0.014593
0.014593
0.014593
0.014593
0.014593
0.014593
0.014593
0.014593
0.014593
0.014593
0.014593
0.014593
0.014593
0.014593
0.014593
0.014593
0.014593
0.0145931
0.0145931
0.0145931
0.0145932
0.0145933
0.0145934
0.0145935
0.0145938
0.0145942
0.0145947
0.0145955
0.0145967
0.0145985
0.0146011
0.014605
0.0146108
0.0146195
0.0146325
0.0146519
0.014681
0.0147251
0.0147932
0.014593
0.014593
0.014593
0.014593
0.014593
0.014593
0.014593
0.014593
0.014593
0.014593
0.014593
0.014593
0.014593
0.014593
0.014593
0.014593
0.014593
0.014593
0.014593
0.014593
0.014593
0.014593
0.014593
0.014593
0.0145931
0.0145931
0.0145931
0.0145931
0.0145932
0.0145933
0.0145934
0.0145936
0.0145939
0.0145943
0.0145949
0.0145958
0.014597
0.0145989
0.0146016
0.0146057
0.0146116
0.0146205
0.0146335
0.0146529
0.0146816
0.0147243
0.0147876
0.0148817
0.0150217
0.0152325
0.014593
0.014593
0.014593
0.014593
0.014593
0.014593
0.014593
0.014593
0.014593
0.014593
0.014593
0.014593
0.014593
0.014593
0.014593
0.014593
0.014593
0.014593
0.014593
0.014593
0.014593
0.0145931
0.0145931
0.0145931
0.0145932
0.0145932
0.0145934
0.0145935
0.0145937
0.014594
0.0145945
0.0145951
0.0145961
0.0145975
0.0145995
0.0146024
0.0146066
0.0146129
0.014622
0.0146354
0.0146552
0.0146842
0.0147268
0.0147895
0.0148815
0.0150161
0.0152123
0.0154964
0.0159048
0.016488
0.014593
0.014593
0.014593
0.014593
0.014593
0.014593
0.014593
0.014593
0.014593
0.014593
0.014593
0.014593
0.014593
0.014593
0.014593
0.014593
0.014593
0.0145931
0.0145931
0.0145931
0.0145932
0.0145932
0.0145933
0.0145934
0.0145936
0.0145938
0.0145942
0.0145947
0.0145954
0.0145965
0.014598
0.0146002
0.0146034
0.0146079
0.0146146
0.0146242
0.0146383
0.0146587
0.0146885
0.0147319
0.0147952
0.0148872
0.0150207
0.0152133
0.0154893
0.0158803
0.0164258
0.0171722
0.0181703
0.01947
0.014593
0.014593
0.014593
0.014593
0.014593
0.014593
0.014593
0.014593
0.014593
0.014593
0.014593
0.014593
0.014593
0.0145931
0.0145931
0.0145931
0.0145931
0.0145932
0.0145933
0.0145934
0.0145935
0.0145937
0.014594
0.0145944
0.014595
0.0145958
0.014597
0.0145987
0.0146012
0.0146047
0.0146097
0.0146168
0.0146272
0.0146421
0.0146637
0.0146949
0.0147398
0.0148048
0.0148985
0.0150332
0.0152259
0.0154995
0.0158839
0.0164158
0.0171373
0.0180919
0.0193183
0.0208438
0.0226796
0.0248134
0.014593
0.014593
0.014593
0.014593
0.014593
0.014593
0.014593
0.014593
0.014593
0.0145931
0.0145931
0.0145931
0.0145931
0.0145932
0.0145932
0.0145933
0.0145935
0.0145936
0.0145939
0.0145942
0.0145947
0.0145954
0.0145964
0.0145977
0.0145997
0.0146024
0.0146063
0.0146119
0.0146198
0.0146312
0.0146473
0.0146705
0.0147036
0.014751
0.0148189
0.014916
0.0150542
0.0152501
0.0155259
0.01591
0.016437
0.0171465
0.018079
0.0192703
0.0207442
0.022507
0.0245443
0.0268233
0.0293
0.0319163
0.014593
0.014593
0.014593
0.014593
0.014593
0.0145931
0.0145931
0.0145931
0.0145931
0.0145932
0.0145932
0.0145933
0.0145934
0.0145936
0.0145938
0.0145941
0.0145945
0.0145951
0.0145959
0.0145971
0.0145987
0.0146009
0.0146041
0.0146085
0.0146148
0.0146237
0.0146363
0.0146541
0.0146794
0.0147153
0.0147661
0.0148383
0.0149405
0.0150847
0.0152872
0.0155696
0.0159591
0.0164889
0.0171961
0.0181185
0.0192893
0.0207306
0.0224483
0.024429
0.0266407
0.0290374
0.0315645
0.0341647
0.0367784
0.0393526
0.014593
0.0145931
0.0145931
0.0145931
0.0145931
0.0145932
0.0145932
0.0145933
0.0145934
0.0145936
0.0145937
0.014594
0.0145944
0.0145949
0.0145956
0.0145966
0.014598
0.0145999
0.0146026
0.0146063
0.0146114
0.0146187
0.0146288
0.014643
0.014663
0.014691
0.0147305
0.014786
0.014864
0.0149733
0.0151262
0.0153389
0.0156324
0.0160334
0.0165734
0.0172874
0.0182105
0.0193732
0.0207953
0.0224819
0.0244204
0.0265814
0.0289224
0.0313923
0.0339362
0.0364953
0.0390118
0.0414355
0.0437173
0.0458115
0.0145931
0.0145931
0.0145932
0.0145932
0.0145933
0.0145934
0.0145935
0.0145937
0.014594
0.0145943
0.0145948
0.0145955
0.0145963
0.0145976
0.0145992
0.0146015
0.0146047
0.0146091
0.0146152
0.0146237
0.0146354
0.0146518
0.0146745
0.0147062
0.0147503
0.0148119
0.0148975
0.0150164
0.0151811
0.0154078
0.0157175
0.0161361
0.0166938
0.0174236
0.0183578
0.0195237
0.0209387
0.0226062
0.0245138
0.0266339
0.0289271
0.031346
0.0338403
0.0363569
0.0388408
0.0412422
0.0435146
0.0456055
0.0474559
0.0490142
0.0502775
0.0145933
0.0145934
0.0145936
0.0145937
0.014594
0.0145943
0.0145948
0.0145954
0.0145962
0.0145973
0.0145988
0.0146009
0.0146038
0.0146076
0.014613
0.0146203
0.0146303
0.0146442
0.0146632
0.0146896
0.0147259
0.0147761
0.0148454
0.0149409
0.0150723
0.0152523
0.0154976
0.0158289
0.0162717
0.016855
0.0176095
0.0185647
0.0197447
0.0211638
0.0228233
0.0247102
0.0267983
0.0290504
0.0314231
0.0338697
0.0363422
0.0387899
0.0411657
0.0434267
0.0455277
0.0474148
0.0490353
0.050357
0.0513821
0.0521377
0.0526855
0.0145938
0.014594
0.0145943
0.0145948
0.0145954
0.0145962
0.0145972
0.0145987
0.0146006
0.0146032
0.0146068
0.0146116
0.0146181
0.014627
0.0146392
0.0146557
0.0146784
0.0147093
0.0147517
0.0148097
0.0148889
0.0149971
0.0151444
0.0153441
0.015613
0.0159723
0.0164465
0.0170635
0.0178517
0.0188376
0.0200418
0.0214751
0.0231364
0.0250116
0.0270753
0.0292927
0.031623
0.0340234
0.0364504
0.0388581
0.0412017
0.0434415
0.0455382
0.0474449
0.0491108
0.0504981
0.0515958
0.052423
0.0530185
0.053432
0.0537076
0.0538922
0.0145955
0.0145962
0.0145973
0.0145987
0.0146006
0.0146031
0.0146064
0.0146109
0.014617
0.0146251
0.0146361
0.014651
0.0146712
0.0146985
0.0147354
0.0147856
0.0148535
0.0149455
0.0150699
0.0152373
0.0154618
0.0157606
0.0161547
0.0166684
0.0173277
0.0181588
0.0191849
0.0204225
0.021879
0.0235504
0.0254217
0.0274676
0.0296553
0.0319469
0.0343029
0.0366835
0.0390476
0.0413535
0.0435641
0.045644
0.0475532
0.0492449
0.0506792
0.0518369
0.0527267
0.0533802
0.0538396
0.0541508
0.054353
0.05448
0.0545562
0.0545978
0.0146008
0.0146032
0.0146065
0.0146109
0.0146167
0.0146244
0.0146348
0.0146486
0.0146671
0.014692
0.0147254
0.0147702
0.0148304
0.0149113
0.0150196
0.0151644
0.0153573
0.0156128
0.0159486
0.0163857
0.0169475
0.0176583
0.0185415
0.0196164
0.0208958
0.0223832
0.0240717
0.0259451
0.0279783
0.0301402
0.0323957
0.0347083
0.0370417
0.0393594
0.0416227
0.0437969
0.0458501
0.0477478
0.0494482
0.0509113
0.052113
0.0530536
0.0537572
0.0542606
0.054606
0.0548345
0.0549771
0.0550622
0.0551077
0.0551213
0.0551192
0.0551151
0.0146172
0.0146248
0.0146348
0.0146481
0.0146658
0.0146892
0.0147204
0.0147618
0.0148169
0.0148903
0.0149877
0.015117
0.0152878
0.0155126
0.0158066
0.0161879
0.0166771
0.0172964
0.0180681
0.0190123
0.0201443
0.0214726
0.0229968
0.0247076
0.0265872
0.0286112
0.0307499
0.0329707
0.0352404
0.0375259
0.0397944
0.0420107
0.0441424
0.0461606
0.0480349
0.0497286
0.0512037
0.0524337
0.0534125
0.0541565
0.0546978
0.0550745
0.0553269
0.0554869
0.0555817
0.0556346
0.055652
0.0556459
0.0556356
0.0556173
0.0555814
0.0555341
0.0146669
0.0146897
0.0147198
0.0147593
0.0148115
0.0148803
0.0149708
0.0150897
0.0152457
0.0154495
0.0157142
0.0160557
0.0164922
0.0170436
0.0177305
0.0185724
0.0195859
0.0207819
0.0221645
0.0237299
0.025466
0.0273542
0.0293705
0.031487
0.0336736
0.0358999
0.0381361
0.0403526
0.0425177
0.0446015
0.0465773
0.0484183
0.0500925
0.0515646
0.0528074
0.0538104
0.0545843
0.0551562
0.0555601
0.0558333
0.0560094
0.056114
0.0561725
0.0561949
0.0561885
0.0561739
0.0561536
0.0561189
0.0560696
0.0560117
0.0559464
0.055879
0.0148135
0.01488
0.0149668
0.0150798
0.0152267
0.015417
0.0156623
0.0159767
0.0163762
0.0168787
0.0175031
0.0182678
0.0191889
0.0202787
0.0215439
0.0229843
0.0245927
0.026355
0.028252
0.0302604
0.0323541
0.0345056
0.0366872
0.038872
0.0410335
0.0431434
0.0451739
0.0471007
0.0489
0.0505436
0.0519996
0.0532408
0.0542545
0.0550471
0.0556408
0.0560655
0.0563564
0.0565466
0.0566601
0.0567228
0.0567498
0.0567441
0.0567255
0.0567009
0.0566677
0.056618
0.0565586
0.0564922
0.0564196
0.0563458
0.0562734
0.0562031
0.0152285
0.0154115
0.0156456
0.0159431
0.0163185
0.016788
0.0173685
0.0180771
0.018929
0.0199368
0.0211082
0.0224455
0.0239446
0.0255954
0.0273824
0.0292862
0.0312846
0.0333534
0.0354675
0.0376021
0.0397329
0.0418362
0.0438866
0.0458587
0.0477305
0.0494805
0.0510839
0.0525118
0.0537385
0.0547503
0.0555501
0.0561559
0.0565947
0.0568991
0.0570994
0.0572203
0.0572875
0.0573171
0.0573116
0.0572906
0.0572616
0.0572262
0.0571769
0.057116
0.0570484
0.0569734
0.0568955
0.0568177
0.056741
0.0566647
0.0565895
0.0565159
0.0167635
0.0173159
0.0179865
0.0187896
0.019737
0.0208368
0.0220924
0.0235017
0.0250574
0.0267472
0.0285549
0.0304614
0.0324458
0.0344861
0.0365594
0.0386436
0.040717
0.0427586
0.0447452
0.046654
0.0484649
0.0501588
0.0517135
0.053103
0.0543035
0.0553012
0.0560969
0.0567056
0.0571514
0.0574633
0.0576701
0.0577964
0.0578667
0.0578966
0.0578918
0.0578698
0.0578349
0.0577952
0.0577467
0.0576843
0.0576144
0.0575379
0.0574562
0.0573739
0.0572924
0.0572116
0.057131
0.0570512
0.0569719
0.0568934
0.056816
0.0196672
0.0207154
0.0219093
0.023248
0.0247259
0.026333
0.0280558
0.0298778
0.0317809
0.0337458
0.0357525
0.0377806
0.0398101
0.0418222
0.0437979
0.0457163
0.0475567
0.0493013
0.0509327
0.0524311
0.0537731
0.0549369
0.0559094
0.0566904
0.0572927
0.0577376
0.0580512
0.0582606
0.0583896
0.0584606
0.0584896
0.0584849
0.0584613
0.0584211
0.0583762
0.0583265
0.0582619
0.058189
0.0581117
0.0580273
0.0579409
0.0578547
0.0577693
0.0576841
0.0575996
0.0575158
0.0574322
0.057349
0.0572659
0.0571835
0.0571019
0.0245896
0.026129
0.0277792
0.0295262
0.0313541
0.0332461
0.0351845
0.0371514
0.0391287
0.0410988
0.0430449
0.0449502
0.0467957
0.0485629
0.0502357
0.0517987
0.0532339
0.0545202
0.0556379
0.0565752
0.0573318
0.0579187
0.0583549
0.0586644
0.0588721
0.0590002
0.05907
0.0590973
0.059091
0.0590644
0.0590205
0.05897
0.0589166
0.0588507
0.0587751
0.058695
0.0586081
0.0585174
0.0584268
0.058337
0.0582477
0.0581586
0.0580702
0.0579822
0.0578945
0.0578071
0.0577199
0.0576328
0.0575457
0.0574592
0.0573732
0.0329842
0.0348559
0.0367598
0.0386799
0.0406001
0.0425053
0.0443806
0.0462107
0.0479784
0.0496673
0.0512633
0.0527522
0.0541178
0.055341
0.0564043
0.0572976
0.0580209
0.058584
0.0590044
0.059304
0.0595049
0.0596288
0.0596954
0.0597191
0.05971
0.0596804
0.0596327
0.0595756
0.0595172
0.0594503
0.0593713
0.0592874
0.0591989
0.0591046
0.0590097
0.0589154
0.0588214
0.0587275
0.0586345
0.0585422
0.0584502
0.0583586
0.0582671
0.0581758
0.0580845
0.0579934
0.0579022
0.057811
0.0577203
0.0576299
0.040333
0.0421896
0.044024
0.0458232
0.047573
0.049258
0.0508637
0.0523777
0.0537872
0.0550773
0.0562307
0.0572323
0.0580739
0.058756
0.0592878
0.059686
0.05997
0.0601596
0.0602762
0.0603371
0.0603546
0.060342
0.0603085
0.0602561
0.0601933
0.0601293
0.0600598
0.0599769
0.0598893
0.0597987
0.0597012
0.0596018
0.0595032
0.0594049
0.0593068
0.0592093
0.0591125
0.059016
0.0589198
0.0588241
0.0587286
0.0586333
0.058538
0.0584428
0.0583476
0.0582524
0.0581572
0.0580618
0.0579668
0.0578719
0.0473651
0.0490294
0.0506266
0.0521444
0.0535716
0.0548968
0.056106
0.0571835
0.0581169
0.0588998
0.0595338
0.0600281
0.0603983
0.0606618
0.0608358
0.060942
0.060995
0.0610042
0.0609872
0.0609486
0.0608903
0.0608226
0.0607528
0.0606788
0.060593
0.0605015
0.0604072
0.060307
0.0602033
0.0601002
0.0599977
0.0598952
0.0597932
0.0596921
0.0595913
0.0594909
0.0593909
0.0592912
0.0591916
0.0590923
0.058993
0.0588939
0.0587947
0.0586955
0.0585963
0.058497
0.0583976
0.0582979
0.0581986
0.0580994
0.0535004
0.0548365
0.0560726
0.0571957
0.058192
0.0590516
0.0597703
0.0603505
0.0608021
0.061139
0.061377
0.0615328
0.0616257
0.0616684
0.0616675
0.0616451
0.0616003
0.0615357
0.061463
0.0613872
0.0613075
0.061219
0.0611233
0.0610247
0.0609218
0.0608143
0.0607069
0.0606001
0.0604932
0.0603865
0.0602808
0.0601757
0.060071
0.0599668
0.0598629
0.0597593
0.0596559
0.0595527
0.0594495
0.0593464
0.0592433
0.0591402
0.0590371
0.0589339
0.0588306
0.0587271
0.0586234
0.0585196
0.0584159
0.0583122
0.0583372
0.0592478
0.0600292
0.060679
0.061201
0.0616056
0.0619055
0.0621142
0.0622491
0.0623256
0.0623542
0.0623452
0.0623151
0.062263
0.0621918
0.0621136
0.0620317
0.0619463
0.0618543
0.0617541
0.0616511
0.0615451
0.061434
0.061322
0.0612111
0.0611
0.0609891
0.060879
0.0607696
0.0606604
0.0605518
0.0604436
0.0603358
0.0602283
0.0601211
0.060014
0.059907
0.0598001
0.0596932
0.0595863
0.0594793
0.0593723
0.0592651
0.0591579
0.0590504
0.0589427
0.0588348
0.0587267
0.0586186
0.0585104
0.0616185
0.0620796
0.0624341
0.0626938
0.0628706
0.0629824
0.0630407
0.0630533
0.0630356
0.0629957
0.0629351
0.0628578
0.0627736
0.0626857
0.0625946
0.0624978
0.0623935
0.062286
0.0621765
0.0620619
0.0619456
0.0618303
0.0617152
0.0615999
0.0614855
0.0613719
0.0612586
0.0611457
0.0610335
0.0609215
0.0608098
0.0606984
0.0605872
0.0604763
0.0603655
0.0602548
0.0601441
0.0600335
0.0599228
0.059812
0.0597011
0.0595901
0.0594789
0.0593675
0.0592558
0.0591439
0.0590318
0.0589192
0.0588068
0.0586941
0.0634991
0.0636439
0.0637302
0.0637684
0.0637641
0.0637366
0.0636864
0.0636167
0.063533
0.0634424
0.0633484
0.0632516
0.0631493
0.063041
0.0629291
0.0628152
0.0626972
0.0625769
0.0624573
0.0623383
0.0622189
0.0621001
0.0619823
0.0618647
0.0617477
0.0616313
0.0615153
0.0613996
0.0612843
0.0611692
0.0610542
0.0609395
0.0608249
0.0607104
0.060596
0.0604816
0.0603672
0.0602528
0.0601382
0.0600235
0.0599087
0.0597936
0.0596783
0.0595627
0.0594469
0.0593307
0.0592142
0.0590973
0.0589805
0.0588632
0.0644876
0.0644468
0.0643856
0.0643064
0.064216
0.0641193
0.0640191
0.0639166
0.0638087
0.0636961
0.0635798
0.0634614
0.0633398
0.0632156
0.0630917
0.0629688
0.0628454
0.0627222
0.0626003
0.0624788
0.0623576
0.0622371
0.062117
0.0619973
0.061878
0.061759
0.0616402
0.0615217
0.0614033
0.061285
0.0611668
0.0610487
0.0609306
0.0608125
0.0606944
0.0605763
0.0604579
0.0603395
0.0602208
0.060102
0.0599828
0.0598634
0.0597436
0.0596235
0.059503
0.0593822
0.0592609
0.0591396
0.0590178
0.0650041
0.0649064
0.0648032
0.0646969
0.0645886
0.0644752
0.064358
0.0642373
0.0641145
0.063989
0.0638611
0.0637331
0.0636062
0.063479
0.0633516
0.0632257
0.0631003
0.0629749
0.0628504
0.0627264
0.0626027
0.0624794
0.0623565
0.0622338
0.0621115
0.0619893
0.0618674
0.0617455
0.0616238
0.0615021
0.0613804
0.0612587
0.061137
0.0610152
0.0608933
0.0607713
0.0606491
0.0605266
0.060404
0.060281
0.0601577
0.0600341
0.0599101
0.0597857
0.0596609
0.0595357
0.05941
0.0592842
0.0591578
0.065381
0.0652669
0.0651481
0.065026
0.064901
0.0647739
0.0646443
0.0645127
0.0643809
0.06425
0.064119
0.0639877
0.0638578
0.0637285
0.0635992
0.0634707
0.0633428
0.0632152
0.063088
0.0629613
0.0628348
0.0627087
0.0625828
0.0624571
0.0623315
0.0622062
0.0620809
0.0619557
0.0618305
0.0617053
0.0615801
0.0614548
0.0613294
0.0612038
0.0610781
0.0609522
0.0608261
0.0606996
0.0605729
0.0604458
0.0603184
0.0601906
0.0600623
0.0599336
0.0598044
0.0596748
0.0595447
0.0594144
0.0592835
0.0655702
0.0654387
0.065305
0.0651698
0.0650343
0.0648995
0.0647648
0.0646298
0.064496
0.0643629
0.0642298
0.0640974
0.0639658
0.0638344
0.0637034
0.0635729
0.0634427
0.0633128
0.0631832
0.0630539
0.0629247
0.0627957
0.0626669
0.0625381
0.0624095
0.0622808
0.0621522
0.0620236
0.0618948
0.061766
0.061637
0.0615079
0.0613785
0.0612489
0.0611191
0.0609889
0.0608585
0.0607276
0.0605964
0.0604648
0.0603327
0.0602001
0.0600671
0.0599335
0.0597995
0.0596649
0.0595301
0.0593947
0.0658318
0.0656926
0.0655542
0.0654158
0.0652773
0.0651397
0.065003
0.0648662
0.0647301
0.0645948
0.0644597
0.064325
0.0641909
0.064057
0.0639235
0.0637902
0.0636573
0.0635246
0.063392
0.0632596
0.0631274
0.0629953
0.0628632
0.0627312
0.0625992
0.0624671
0.062335
0.0622028
0.0620705