/*--------------------------------*- C++ -*----------------------------------*\
| =========                 |                                                 |
| \\      /  F ield         | OpenFOAM: The Open Source CFD Toolbox           |
|  \\    /   O peration     | Version:  v1706                                 |
|   \\  /    A nd           | Web:      www.OpenFOAM.com                      |
|    \\/     M anipulation  |                                                 |
\*---------------------------------------------------------------------------*/
FoamFile
{
    version     2.0;
    format      ascii;
    class       volScalarField;
    location    "4e-05";
    object      kappave;
}
// * * * * * * * * * * * * * * * * * * * * * * * * * * * * * * * * * * * * * //

dimensions      [1 1 -3 -1 0 0 0];


internalField   nonuniform List<scalar> 
30038
(
1.46038e-10
1.46038e-10
1.46038e-10
1.46038e-10
1.46038e-10
1.46038e-10
1.46038e-10
1.46038e-10
1.46038e-10
1.46038e-10
1.46038e-10
1.46038e-10
1.46038e-10
1.46038e-10
1.46038e-10
1.46038e-10
1.46038e-10
1.46038e-10
1.46038e-10
1.46038e-10
1.46038e-10
1.46038e-10
1.46038e-10
1.46038e-10
1.46038e-10
1.46038e-10
1.46038e-10
1.46038e-10
1.46038e-10
1.46038e-10
1.46038e-10
1.46038e-10
1.46038e-10
1.46038e-10
1.46038e-10
1.46038e-10
1.46038e-10
1.46038e-10
1.46038e-10
1.46038e-10
1.46038e-10
1.46038e-10
1.46038e-10
1.46038e-10
1.46038e-10
1.46038e-10
1.46038e-10
1.46038e-10
1.46038e-10
1.46038e-10
1.46038e-10
1.46038e-10
1.46038e-10
1.46038e-10
1.46038e-10
1.46038e-10
1.46038e-10
1.46038e-10
1.46038e-10
1.46038e-10
1.46038e-10
1.46038e-10
1.46038e-10
1.46038e-10
1.46038e-10
1.46038e-10
1.46038e-10
1.46038e-10
1.46038e-10
1.46038e-10
1.46038e-10
1.46038e-10
1.46038e-10
1.46038e-10
1.46038e-10
1.46038e-10
1.46038e-10
1.46038e-10
1.46038e-10
1.46038e-10
1.46038e-10
1.46038e-10
1.46038e-10
1.46038e-10
1.46038e-10
1.46038e-10
1.46038e-10
1.46038e-10
1.46038e-10
1.46038e-10
1.46038e-10
1.46038e-10
1.46038e-10
1.46038e-10
1.46038e-10
1.46038e-10
1.46038e-10
1.46038e-10
1.46038e-10
1.46038e-10
1.46038e-10
1.46038e-10
1.46038e-10
1.46038e-10
1.46038e-10
1.46038e-10
1.46038e-10
1.46038e-10
1.46038e-10
1.46038e-10
1.46038e-10
1.46038e-10
1.46038e-10
1.46038e-10
1.46038e-10
1.46038e-10
1.46038e-10
1.46038e-10
1.46038e-10
1.46038e-10
1.46038e-10
1.46038e-10
1.46038e-10
1.46038e-10
1.46038e-10
1.46038e-10
1.46038e-10
1.46038e-10
1.46038e-10
1.46038e-10
1.46038e-10
1.46038e-10
1.46038e-10
1.46038e-10
1.46038e-10
1.46038e-10
1.46038e-10
1.46038e-10
1.46038e-10
1.46038e-10
1.46038e-10
1.46038e-10
1.46038e-10
1.46038e-10
1.46038e-10
1.46038e-10
1.46038e-10
1.46038e-10
1.46038e-10
1.46038e-10
1.46038e-10
1.46038e-10
1.46038e-10
1.46038e-10
1.46038e-10
1.46038e-10
1.46038e-10
1.46038e-10
1.46038e-10
1.46038e-10
1.46038e-10
1.46038e-10
1.46038e-10
1.46038e-10
1.46038e-10
1.46038e-10
1.46038e-10
1.46038e-10
1.46038e-10
1.46038e-10
1.46038e-10
1.46038e-10
1.46038e-10
1.46038e-10
1.46038e-10
1.46038e-10
1.46038e-10
1.46038e-10
1.46038e-10
1.46038e-10
1.46038e-10
1.46038e-10
1.46038e-10
1.46038e-10
1.46038e-10
1.46038e-10
1.46038e-10
1.46038e-10
1.46038e-10
1.46038e-10
1.46038e-10
1.46038e-10
1.46038e-10
1.46038e-10
1.46038e-10
1.46038e-10
1.46038e-10
1.46038e-10
1.46038e-10
1.46038e-10
1.46038e-10
1.46038e-10
1.46038e-10
1.46038e-10
1.46038e-10
1.46038e-10
1.46038e-10
1.46038e-10
1.46038e-10
1.46038e-10
1.46038e-10
1.46038e-10
1.46038e-10
1.46038e-10
1.46038e-10
1.46038e-10
1.46038e-10
1.46038e-10
1.46038e-10
1.46038e-10
1.46038e-10
1.46038e-10
1.46038e-10
1.46038e-10
1.46038e-10
1.46038e-10
1.46038e-10
1.46038e-10
1.46038e-10
1.46038e-10
1.46038e-10
1.46038e-10
1.46038e-10
1.46038e-10
1.46038e-10
1.46038e-10
1.46038e-10
1.46038e-10
1.46038e-10
1.46038e-10
1.46038e-10
1.46038e-10
1.46038e-10
1.46038e-10
1.46038e-10
1.46038e-10
1.46038e-10
1.46038e-10
1.46038e-10
1.46038e-10
1.46038e-10
1.46038e-10
1.46038e-10
1.46038e-10
1.46038e-10
1.46038e-10
1.46038e-10
1.46038e-10
1.46038e-10
1.46038e-10
1.46038e-10
1.46038e-10
1.46038e-10
1.46038e-10
1.46038e-10
1.46038e-10
1.46038e-10
1.46038e-10
1.46038e-10
1.46038e-10
1.46038e-10
1.46038e-10
1.46038e-10
1.46038e-10
1.46038e-10
1.46038e-10
1.46038e-10
1.46038e-10
1.46038e-10
1.46038e-10
1.46038e-10
1.46038e-10
1.46038e-10
1.46038e-10
1.46038e-10
1.46038e-10
1.46038e-10
1.46038e-10
1.46038e-10
1.46038e-10
1.46038e-10
1.46038e-10
1.46038e-10
1.46038e-10
1.46038e-10
1.46038e-10
1.46038e-10
1.46038e-10
1.46038e-10
1.46038e-10
1.46038e-10
1.46038e-10
1.46038e-10
1.46038e-10
1.46038e-10
1.46038e-10
1.46038e-10
1.46038e-10
1.46038e-10
1.46038e-10
1.46038e-10
1.46038e-10
1.46038e-10
1.46038e-10
1.46038e-10
1.46038e-10
1.46038e-10
1.46038e-10
1.46038e-10
1.46038e-10
1.46038e-10
1.46038e-10
1.46038e-10
1.46038e-10
1.46038e-10
1.46038e-10
1.46038e-10
1.46038e-10
1.46038e-10
1.46038e-10
1.46038e-10
1.46038e-10
1.46038e-10
1.46038e-10
1.46038e-10
1.46038e-10
1.46038e-10
1.46038e-10
1.46038e-10
1.46038e-10
1.46038e-10
1.46038e-10
1.46038e-10
1.46038e-10
1.46038e-10
1.46038e-10
1.46038e-10
1.46038e-10
1.46038e-10
1.46038e-10
1.46038e-10
1.46038e-10
1.46038e-10
1.46038e-10
1.46038e-10
1.46038e-10
1.46038e-10
1.46038e-10
1.46038e-10
1.46038e-10
1.46038e-10
1.46038e-10
1.46038e-10
1.46038e-10
1.46038e-10
1.46038e-10
1.46038e-10
1.46038e-10
1.46038e-10
1.46038e-10
1.46038e-10
1.46038e-10
1.46038e-10
1.46038e-10
1.46038e-10
1.46038e-10
1.46038e-10
1.46038e-10
1.46038e-10
1.46038e-10
1.46038e-10
1.46038e-10
1.46038e-10
1.46038e-10
1.46038e-10
1.46038e-10
1.46038e-10
1.46038e-10
1.46038e-10
1.46038e-10
1.46038e-10
1.46038e-10
1.46038e-10
1.46038e-10
1.46038e-10
1.46038e-10
1.46038e-10
1.46038e-10
1.46038e-10
1.46038e-10
1.46038e-10
1.46038e-10
1.46038e-10
1.46038e-10
1.46038e-10
1.46038e-10
1.46038e-10
1.46038e-10
1.46038e-10
1.46038e-10
1.46038e-10
1.46038e-10
1.46038e-10
1.46038e-10
1.46038e-10
1.46038e-10
1.46038e-10
1.46038e-10
1.46038e-10
1.46038e-10
1.46038e-10
1.46038e-10
1.46038e-10
1.46038e-10
1.46038e-10
1.46038e-10
1.46038e-10
1.46038e-10
1.46038e-10
1.46038e-10
1.46038e-10
1.46038e-10
1.46038e-10
1.46038e-10
1.46038e-10
1.46038e-10
1.46038e-10
1.46038e-10
1.46038e-10
1.46038e-10
1.46038e-10
1.46038e-10
1.46038e-10
1.46038e-10
1.46038e-10
1.46038e-10
1.46038e-10
1.46038e-10
1.46038e-10
1.46038e-10
1.46038e-10
1.46038e-10
1.46038e-10
1.46038e-10
1.46038e-10
1.46038e-10
1.46038e-10
1.46038e-10
1.46038e-10
1.46038e-10
1.46038e-10
1.46038e-10
1.46038e-10
1.46038e-10
1.46038e-10
1.46038e-10
1.46038e-10
1.46038e-10
1.46038e-10
1.46038e-10
1.46038e-10
1.46038e-10
1.46038e-10
1.46038e-10
1.46038e-10
1.46038e-10
1.46038e-10
1.46038e-10
1.46038e-10
1.46038e-10
1.46038e-10
1.46038e-10
1.46038e-10
1.46038e-10
1.46038e-10
1.46038e-10
1.46038e-10
1.46038e-10
1.46038e-10
1.46038e-10
1.46038e-10
1.46038e-10
1.46038e-10
1.46038e-10
1.46038e-10
1.46038e-10
1.46038e-10
1.46038e-10
1.46038e-10
1.46038e-10
1.46038e-10
1.46038e-10
1.46038e-10
1.46038e-10
1.46038e-10
1.46038e-10
1.46038e-10
1.46038e-10
1.46038e-10
1.46038e-10
1.46038e-10
1.46038e-10
1.46038e-10
1.46038e-10
1.46038e-10
1.46038e-10
1.46038e-10
1.46038e-10
1.46038e-10
1.46038e-10
1.46038e-10
1.46038e-10
1.46038e-10
1.46038e-10
1.46038e-10
1.46038e-10
1.46038e-10
1.46038e-10
1.46038e-10
1.46038e-10
1.46038e-10
1.46038e-10
1.46038e-10
1.46038e-10
1.46038e-10
1.46038e-10
1.46038e-10
1.46038e-10
1.46038e-10
1.46038e-10
1.46038e-10
1.46038e-10
1.46038e-10
1.46038e-10
1.46038e-10
1.46038e-10
1.46038e-10
1.46038e-10
1.46038e-10
1.46038e-10
1.46038e-10
1.46038e-10
1.46038e-10
1.46038e-10
1.46038e-10
1.46038e-10
1.46038e-10
1.46038e-10
1.46038e-10
1.46038e-10
1.46038e-10
1.46038e-10
1.46038e-10
1.46038e-10
1.46038e-10
1.46038e-10
1.46038e-10
1.46038e-10
1.46038e-10
1.46038e-10
1.46038e-10
1.46038e-10
1.46038e-10
1.46038e-10
1.46038e-10
1.46038e-10
1.46038e-10
1.46038e-10
1.46038e-10
1.46038e-10
1.46038e-10
1.46038e-10
1.46038e-10
1.46038e-10
1.46038e-10
1.46038e-10
1.46038e-10
1.46038e-10
1.46038e-10
1.46038e-10
1.46038e-10
1.46038e-10
1.46038e-10
1.46038e-10
1.46038e-10
1.46038e-10
1.46038e-10
1.46038e-10
1.46038e-10
1.46038e-10
1.46038e-10
1.46038e-10
1.46038e-10
1.46038e-10
1.46038e-10
1.46038e-10
1.46038e-10
1.46038e-10
1.46038e-10
1.46038e-10
1.46038e-10
1.46038e-10
1.46038e-10
1.46038e-10
1.46038e-10
1.46038e-10
1.46038e-10
1.46038e-10
1.46038e-10
1.46038e-10
1.46038e-10
1.46038e-10
1.46038e-10
1.46038e-10
1.46038e-10
1.46038e-10
1.46038e-10
1.46038e-10
1.46038e-10
1.46038e-10
1.46038e-10
1.46038e-10
1.46038e-10
1.46038e-10
1.46038e-10
1.46038e-10
1.46038e-10
1.46038e-10
1.46038e-10
1.46038e-10
1.46038e-10
1.46038e-10
1.46038e-10
1.46038e-10
1.46038e-10
1.46038e-10
1.46038e-10
1.46038e-10
1.46038e-10
1.46038e-10
1.46038e-10
1.46038e-10
1.46038e-10
1.46038e-10
1.46038e-10
1.46038e-10
1.46038e-10
1.46038e-10
1.46038e-10
1.46038e-10
1.46038e-10
1.46038e-10
1.46038e-10
1.46038e-10
1.46038e-10
1.46038e-10
1.46038e-10
1.46038e-10
1.46038e-10
1.46038e-10
1.46038e-10
1.46038e-10
1.46038e-10
1.46038e-10
1.46038e-10
1.46038e-10
1.46038e-10
1.46038e-10
1.46038e-10
1.46038e-10
1.46038e-10
1.46038e-10
1.46038e-10
1.46038e-10
1.46038e-10
1.46038e-10
1.46038e-10
1.46038e-10
1.46038e-10
1.46038e-10
1.46038e-10
1.46038e-10
1.46038e-10
1.46038e-10
1.46038e-10
1.46038e-10
1.46038e-10
1.46038e-10
1.46038e-10
1.46038e-10
1.46038e-10
1.46038e-10
1.46038e-10
1.46038e-10
1.46038e-10
1.46038e-10
1.46038e-10
1.46038e-10
1.46038e-10
1.46038e-10
1.46038e-10
1.46038e-10
1.46038e-10
1.46038e-10
1.46038e-10
1.46038e-10
1.46038e-10
1.46038e-10
1.46038e-10
1.46038e-10
1.46038e-10
1.46038e-10
1.46038e-10
1.46038e-10
1.46038e-10
1.46038e-10
1.46038e-10
1.46038e-10
1.46038e-10
1.46038e-10
1.46038e-10
1.46038e-10
1.46038e-10
1.46038e-10
1.46038e-10
1.46038e-10
1.46038e-10
1.46038e-10
1.46038e-10
1.46038e-10
1.46038e-10
1.46038e-10
1.46038e-10
1.46038e-10
1.46038e-10
1.46038e-10
1.46038e-10
1.46038e-10
1.46038e-10
1.46038e-10
1.46038e-10
1.46038e-10
1.46038e-10
1.46038e-10
1.46038e-10
1.46038e-10
1.46038e-10
1.46038e-10
1.46038e-10
1.46038e-10
1.46038e-10
1.46038e-10
1.46038e-10
1.46038e-10
1.46038e-10
1.46038e-10
1.46038e-10
1.46038e-10
1.46038e-10
1.46038e-10
1.46038e-10
1.46038e-10
1.46038e-10
1.46038e-10
1.46038e-10
1.46038e-10
1.46038e-10
1.46038e-10
1.46038e-10
1.46038e-10
1.46038e-10
1.46038e-10
1.46038e-10
1.46038e-10
1.46038e-10
1.46038e-10
1.46038e-10
1.46038e-10
1.46038e-10
1.46038e-10
1.46038e-10
1.46038e-10
1.46038e-10
1.46038e-10
1.46038e-10
1.46038e-10
1.46038e-10
1.46038e-10
1.46038e-10
1.46038e-10
1.46038e-10
1.46038e-10
1.46038e-10
1.46038e-10
1.46038e-10
1.46038e-10
1.46038e-10
1.46038e-10
1.46038e-10
1.46038e-10
1.46038e-10
1.46038e-10
1.46038e-10
1.46038e-10
1.46038e-10
1.46038e-10
1.46038e-10
1.46038e-10
1.46038e-10
1.46038e-10
1.46038e-10
1.46038e-10
1.46038e-10
1.46038e-10
1.46038e-10
1.46038e-10
1.46038e-10
1.46038e-10
1.46038e-10
1.46038e-10
1.46038e-10
1.46038e-10
1.46038e-10
1.46038e-10
1.46038e-10
1.46038e-10
1.46038e-10
1.46038e-10
1.46038e-10
1.46038e-10
1.46038e-10
1.46038e-10
1.46038e-10
1.46038e-10
1.46038e-10
1.46038e-10
1.46038e-10
1.46038e-10
1.46038e-10
1.46038e-10
1.46038e-10
1.46038e-10
1.46038e-10
1.46038e-10
1.46038e-10
1.46038e-10
1.46038e-10
1.46038e-10
1.46038e-10
1.46038e-10
1.46038e-10
1.46038e-10
1.46038e-10
1.46038e-10
1.46038e-10
1.46038e-10
1.46038e-10
1.46038e-10
1.46038e-10
1.46038e-10
1.46038e-10
1.46038e-10
1.46038e-10
1.46038e-10
1.46038e-10
1.46038e-10
1.46038e-10
1.46038e-10
1.46038e-10
1.46038e-10
1.46038e-10
1.46038e-10
1.46038e-10
1.46038e-10
1.46038e-10
1.46038e-10
1.46038e-10
1.46038e-10
1.46038e-10
1.46038e-10
1.46038e-10
1.46038e-10
1.46038e-10
1.46038e-10
1.46038e-10
1.46038e-10
1.46038e-10
1.46038e-10
1.46038e-10
1.46038e-10
1.46038e-10
1.46038e-10
1.46038e-10
1.46038e-10
1.46038e-10
1.46038e-10
1.46038e-10
1.46038e-10
1.46038e-10
1.46038e-10
1.46038e-10
1.46038e-10
1.46038e-10
1.46038e-10
1.46038e-10
1.46038e-10
1.46038e-10
1.46038e-10
1.46038e-10
1.46038e-10
1.46038e-10
1.46038e-10
1.46038e-10
1.46038e-10
1.46038e-10
1.46038e-10
1.46038e-10
1.46038e-10
1.46038e-10
1.46038e-10
1.46038e-10
1.46038e-10
1.46038e-10
1.46038e-10
1.46038e-10
1.46038e-10
1.46038e-10
1.46038e-10
1.46038e-10
1.46038e-10
1.46038e-10
1.46038e-10
1.46038e-10
1.46038e-10
1.46038e-10
1.46038e-10
1.46038e-10
1.46038e-10
1.46038e-10
1.46038e-10
1.46038e-10
1.46038e-10
1.46038e-10
1.46038e-10
1.46038e-10
1.46038e-10
1.46038e-10
1.46038e-10
1.46038e-10
1.46038e-10
1.46038e-10
1.46038e-10
1.46038e-10
1.46038e-10
1.46038e-10
1.46038e-10
1.46038e-10
1.46038e-10
1.46038e-10
1.46038e-10
1.46038e-10
1.46038e-10
1.46038e-10
1.46038e-10
1.46038e-10
1.46038e-10
1.46038e-10
1.46038e-10
1.46038e-10
1.46038e-10
1.46038e-10
1.46038e-10
1.46038e-10
1.46038e-10
1.46038e-10
1.46038e-10
1.46038e-10
1.46038e-10
1.46038e-10
1.46038e-10
1.46038e-10
1.46038e-10
1.46038e-10
1.46038e-10
1.46038e-10
1.46038e-10
1.46038e-10
1.46038e-10
1.46038e-10
1.46038e-10
1.46038e-10
1.46038e-10
1.46038e-10
1.46038e-10
1.46038e-10
1.46038e-10
1.46038e-10
1.46038e-10
1.46038e-10
1.46038e-10
1.46038e-10
1.46038e-10
1.46038e-10
1.46038e-10
1.46038e-10
1.46038e-10
1.46038e-10
1.46038e-10
1.46038e-10
1.46038e-10
1.46038e-10
1.46038e-10
1.46038e-10
1.46038e-10
1.46038e-10
1.46038e-10
1.46038e-10
1.46038e-10
1.46038e-10
1.46038e-10
1.46038e-10
1.46038e-10
1.46038e-10
1.46038e-10
1.46038e-10
1.46038e-10
1.46038e-10
1.46038e-10
1.46038e-10
1.46038e-10
1.46038e-10
1.46038e-10
1.46038e-10
1.46038e-10
1.46038e-10
1.46038e-10
1.46038e-10
1.46038e-10
1.46038e-10
1.46038e-10
1.46038e-10
1.46038e-10
1.46038e-10
1.46038e-10
1.46038e-10
1.46038e-10
1.46038e-10
1.46038e-10
1.46038e-10
1.46038e-10
1.46038e-10
1.46038e-10
1.46038e-10
1.46038e-10
1.46038e-10
1.46038e-10
1.46038e-10
1.46038e-10
1.46038e-10
1.46038e-10
1.46038e-10
1.46038e-10
1.46038e-10
1.46038e-10
1.46038e-10
1.46038e-10
1.46038e-10
1.46038e-10
1.46038e-10
1.46038e-10
1.46038e-10
1.46038e-10
1.46038e-10
1.46038e-10
1.46038e-10
1.46038e-10
1.46038e-10
1.46038e-10
1.46038e-10
1.46038e-10
1.46038e-10
1.46038e-10
1.46038e-10
1.46038e-10
1.46038e-10
1.46038e-10
1.46038e-10
1.46038e-10
1.46038e-10
1.46038e-10
1.46038e-10
1.46038e-10
1.46038e-10
1.46038e-10
1.46038e-10
1.46038e-10
1.46038e-10
1.46038e-10
1.46038e-10
1.46038e-10
1.46038e-10
1.46038e-10
1.46038e-10
1.46038e-10
1.46038e-10
1.46038e-10
1.46038e-10
1.46038e-10
1.46038e-10
1.46038e-10
1.46038e-10
1.46038e-10
1.46038e-10
1.46038e-10
1.46038e-10
1.46038e-10
1.46038e-10
1.46038e-10
1.46038e-10
1.46038e-10
1.46038e-10
1.46038e-10
1.46038e-10
1.46038e-10
1.46038e-10
1.46038e-10
1.46038e-10
1.46038e-10
1.46038e-10
1.46038e-10
1.46038e-10
1.46038e-10
1.46038e-10
1.46038e-10
1.46038e-10
1.46038e-10
1.46038e-10
1.46038e-10
1.46038e-10
1.46038e-10
1.46038e-10
1.46038e-10
1.46038e-10
1.46038e-10
1.46038e-10
1.46038e-10
1.46038e-10
1.46038e-10
1.46038e-10
1.46038e-10
1.46038e-10
1.46038e-10
1.46038e-10
1.46038e-10
1.46038e-10
1.46038e-10
1.46038e-10
1.46038e-10
1.46038e-10
1.46038e-10
1.46038e-10
1.46038e-10
1.46038e-10
1.46038e-10
1.46038e-10
1.46038e-10
1.46038e-10
1.46038e-10
1.46038e-10
1.46038e-10
1.46038e-10
1.46038e-10
1.46038e-10
1.46038e-10
1.46038e-10
1.46038e-10
1.46038e-10
1.46038e-10
1.46038e-10
1.46038e-10
1.46038e-10
1.46038e-10
1.46038e-10
1.46038e-10
1.46038e-10
1.46038e-10
1.46038e-10
1.46038e-10
1.46038e-10
1.46038e-10
1.46038e-10
1.46038e-10
1.46038e-10
1.46038e-10
1.46038e-10
1.46038e-10
1.46038e-10
1.46038e-10
1.46038e-10
1.46038e-10
1.46038e-10
1.46038e-10
1.46038e-10
1.46038e-10
1.46038e-10
1.46038e-10
1.46038e-10
1.46038e-10
1.46038e-10
1.46038e-10
1.46038e-10
1.46038e-10
1.46038e-10
1.46038e-10
1.46038e-10
1.46038e-10
1.46038e-10
1.46038e-10
1.46038e-10
1.46038e-10
1.46038e-10
1.46038e-10
1.46038e-10
1.46038e-10
1.46038e-10
1.46038e-10
1.46038e-10
1.46038e-10
1.46038e-10
1.46038e-10
1.46038e-10
1.46039e-10
1.46038e-10
1.46038e-10
1.46038e-10
1.46038e-10
1.46038e-10
1.46038e-10
1.46038e-10
1.46038e-10
1.46038e-10
1.46038e-10
1.46038e-10
1.46038e-10
1.46038e-10
1.46038e-10
1.46038e-10
1.46038e-10
1.46038e-10
1.46038e-10
1.46038e-10
1.46038e-10
1.46038e-10
1.46038e-10
1.46038e-10
1.46038e-10
1.46038e-10
1.46038e-10
1.46038e-10
1.46038e-10
1.46038e-10
1.46038e-10
1.46038e-10
1.46038e-10
1.46038e-10
1.46038e-10
1.46038e-10
1.46038e-10
1.46038e-10
1.46038e-10
1.46038e-10
1.46038e-10
1.46038e-10
1.46038e-10
1.46038e-10
1.46038e-10
1.46038e-10
1.46038e-10
1.46039e-10
1.46039e-10
1.4604e-10
1.46042e-10
1.46038e-10
1.46038e-10
1.46038e-10
1.46038e-10
1.46038e-10
1.46038e-10
1.46038e-10
1.46038e-10
1.46038e-10
1.46038e-10
1.46038e-10
1.46038e-10
1.46038e-10
1.46038e-10
1.46038e-10
1.46038e-10
1.46038e-10
1.46038e-10
1.46038e-10
1.46038e-10
1.46038e-10
1.46038e-10
1.46038e-10
1.46038e-10
1.46038e-10
1.46038e-10
1.46038e-10
1.46038e-10
1.46038e-10
1.46038e-10
1.46038e-10
1.46038e-10
1.46038e-10
1.46038e-10
1.46038e-10
1.46038e-10
1.46038e-10
1.46038e-10
1.46038e-10
1.46038e-10
1.46038e-10
1.46038e-10
1.46038e-10
1.46039e-10
1.46039e-10
1.4604e-10
1.46042e-10
1.46044e-10
1.46047e-10
1.46052e-10
1.46038e-10
1.46038e-10
1.46038e-10
1.46038e-10
1.46038e-10
1.46038e-10
1.46038e-10
1.46038e-10
1.46038e-10
1.46038e-10
1.46038e-10
1.46038e-10
1.46038e-10
1.46038e-10
1.46038e-10
1.46038e-10
1.46038e-10
1.46038e-10
1.46038e-10
1.46038e-10
1.46038e-10
1.46038e-10
1.46038e-10
1.46038e-10
1.46038e-10
1.46038e-10
1.46038e-10
1.46038e-10
1.46038e-10
1.46038e-10
1.46038e-10
1.46038e-10
1.46038e-10
1.46038e-10
1.46038e-10
1.46038e-10
1.46038e-10
1.46038e-10
1.46038e-10
1.46039e-10
1.46039e-10
1.4604e-10
1.4604e-10
1.46042e-10
1.46044e-10
1.46047e-10
1.46052e-10
1.4606e-10
1.46072e-10
1.4609e-10
1.46038e-10
1.46038e-10
1.46038e-10
1.46038e-10
1.46038e-10
1.46038e-10
1.46038e-10
1.46038e-10
1.46038e-10
1.46038e-10
1.46038e-10
1.46038e-10
1.46038e-10
1.46038e-10
1.46038e-10
1.46038e-10
1.46038e-10
1.46038e-10
1.46038e-10
1.46038e-10
1.46038e-10
1.46038e-10
1.46038e-10
1.46038e-10
1.46038e-10
1.46038e-10
1.46038e-10
1.46038e-10
1.46038e-10
1.46038e-10
1.46038e-10
1.46038e-10
1.46038e-10
1.46038e-10
1.46038e-10
1.46038e-10
1.46039e-10
1.46039e-10
1.4604e-10
1.46041e-10
1.46042e-10
1.46044e-10
1.46048e-10
1.46053e-10
1.46061e-10
1.46072e-10
1.4609e-10
1.46117e-10
1.46158e-10
1.46225e-10
1.46038e-10
1.46038e-10
1.46038e-10
1.46038e-10
1.46038e-10
1.46038e-10
1.46038e-10
1.46038e-10
1.46038e-10
1.46038e-10
1.46038e-10
1.46038e-10
1.46038e-10
1.46038e-10
1.46038e-10
1.46038e-10
1.46038e-10
1.46038e-10
1.46038e-10
1.46038e-10
1.46038e-10
1.46038e-10
1.46038e-10
1.46038e-10
1.46038e-10
1.46038e-10
1.46038e-10
1.46038e-10
1.46038e-10
1.46038e-10
1.46038e-10
1.46038e-10
1.46038e-10
1.46039e-10
1.46039e-10
1.4604e-10
1.46041e-10
1.46043e-10
1.46045e-10
1.46049e-10
1.46054e-10
1.46062e-10
1.46074e-10
1.46092e-10
1.46119e-10
1.4616e-10
1.46222e-10
1.46317e-10
1.46464e-10
1.46697e-10
1.46038e-10
1.46038e-10
1.46038e-10
1.46038e-10
1.46038e-10
1.46038e-10
1.46038e-10
1.46038e-10
1.46038e-10
1.46038e-10
1.46038e-10
1.46038e-10
1.46038e-10
1.46038e-10
1.46038e-10
1.46038e-10
1.46038e-10
1.46038e-10
1.46038e-10
1.46038e-10
1.46038e-10
1.46038e-10
1.46038e-10
1.46038e-10
1.46038e-10
1.46038e-10
1.46038e-10
1.46038e-10
1.46038e-10
1.46039e-10
1.46039e-10
1.46039e-10
1.4604e-10
1.46041e-10
1.46043e-10
1.46046e-10
1.4605e-10
1.46055e-10
1.46064e-10
1.46076e-10
1.46095e-10
1.46123e-10
1.46165e-10
1.46228e-10
1.46323e-10
1.46467e-10
1.46685e-10
1.47017e-10
1.4753e-10
1.48342e-10
1.46038e-10
1.46038e-10
1.46038e-10
1.46038e-10
1.46038e-10
1.46038e-10
1.46038e-10
1.46038e-10
1.46038e-10
1.46038e-10
1.46038e-10
1.46038e-10
1.46038e-10
1.46038e-10
1.46038e-10
1.46038e-10
1.46038e-10
1.46038e-10
1.46038e-10
1.46038e-10
1.46038e-10
1.46038e-10
1.46038e-10
1.46038e-10
1.46038e-10
1.46038e-10
1.46039e-10
1.46039e-10
1.4604e-10
1.46041e-10
1.46042e-10
1.46044e-10
1.46047e-10
1.46051e-10
1.46057e-10
1.46066e-10
1.4608e-10
1.461e-10
1.46129e-10
1.46173e-10
1.46238e-10
1.46336e-10
1.46482e-10
1.46702e-10
1.47033e-10
1.47534e-10
1.48294e-10
1.4945e-10
1.51225e-10
1.54014e-10
1.46038e-10
1.46038e-10
1.46038e-10
1.46038e-10
1.46038e-10
1.46038e-10
1.46038e-10
1.46038e-10
1.46038e-10
1.46038e-10
1.46038e-10
1.46038e-10
1.46038e-10
1.46038e-10
1.46038e-10
1.46038e-10
1.46038e-10
1.46038e-10
1.46038e-10
1.46038e-10
1.46038e-10
1.46038e-10
1.46039e-10
1.46039e-10
1.46039e-10
1.4604e-10
1.46041e-10
1.46043e-10
1.46045e-10
1.46048e-10
1.46053e-10
1.4606e-10
1.4607e-10
1.46085e-10
1.46106e-10
1.46138e-10
1.46184e-10
1.46253e-10
1.46355e-10
1.46507e-10
1.46734e-10
1.47073e-10
1.47581e-10
1.48344e-10
1.49494e-10
1.51229e-10
1.53847e-10
1.57805e-10
1.6381e-10
1.73065e-10
1.46038e-10
1.46038e-10
1.46038e-10
1.46038e-10
1.46038e-10
1.46038e-10
1.46038e-10
1.46038e-10
1.46038e-10
1.46038e-10
1.46038e-10
1.46038e-10
1.46038e-10
1.46038e-10
1.46038e-10
1.46038e-10
1.46038e-10
1.46038e-10
1.46038e-10
1.46039e-10
1.46039e-10
1.4604e-10
1.46041e-10
1.46042e-10
1.46044e-10
1.46046e-10
1.4605e-10
1.46055e-10
1.46063e-10
1.46074e-10
1.46091e-10
1.46114e-10
1.46149e-10
1.462e-10
1.46274e-10
1.46383e-10
1.46544e-10
1.46782e-10
1.47136e-10
1.47662e-10
1.48446e-10
1.49619e-10
1.51374e-10
1.54003e-10
1.5794e-10
1.63824e-10
1.72596e-10
1.85633e-10
2.04986e-10
2.3391e-10
1.46038e-10
1.46038e-10
1.46038e-10
1.46038e-10
1.46038e-10
1.46038e-10
1.46038e-10
1.46038e-10
1.46038e-10
1.46038e-10
1.46038e-10
1.46038e-10
1.46038e-10
1.46038e-10
1.46038e-10
1.46039e-10
1.46039e-10
1.4604e-10
1.4604e-10
1.46041e-10
1.46043e-10
1.46045e-10
1.46048e-10
1.46053e-10
1.46059e-10
1.46068e-10
1.4608e-10
1.46099e-10
1.46126e-10
1.46164e-10
1.4622e-10
1.46301e-10
1.4642e-10
1.46594e-10
1.4685e-10
1.47226e-10
1.47782e-10
1.48605e-10
1.49826e-10
1.51641e-10
1.54339e-10
1.58353e-10
1.64313e-10
1.73142e-10
1.86163e-10
2.0526e-10
2.33069e-10
2.73228e-10
3.30783e-10
4.12861e-10
1.46038e-10
1.46038e-10
1.46038e-10
1.46038e-10
1.46038e-10
1.46038e-10
1.46038e-10
1.46038e-10
1.46038e-10
1.46038e-10
1.46038e-10
1.46039e-10
1.46039e-10
1.46039e-10
1.4604e-10
1.46041e-10
1.46042e-10
1.46044e-10
1.46047e-10
1.46051e-10
1.46056e-10
1.46063e-10
1.46074e-10
1.46088e-10
1.4611e-10
1.4614e-10
1.46184e-10
1.46247e-10
1.46338e-10
1.4647e-10
1.46662e-10
1.46942e-10
1.47351e-10
1.4795e-10
1.48831e-10
1.50129e-10
1.52044e-10
1.54873e-10
1.59052e-10
1.65219e-10
1.743e-10
1.87622e-10
2.07065e-10
2.3524e-10
2.75684e-10
3.33036e-10
4.13145e-10
5.23133e-10
6.71778e-10
8.6997e-10
1.46038e-10
1.46038e-10
1.46038e-10
1.46038e-10
1.46038e-10
1.46038e-10
1.46038e-10
1.46039e-10
1.46039e-10
1.46039e-10
1.4604e-10
1.46041e-10
1.46042e-10
1.46044e-10
1.46046e-10
1.46049e-10
1.46054e-10
1.4606e-10
1.46069e-10
1.46081e-10
1.46099e-10
1.46124e-10
1.4616e-10
1.4621e-10
1.46283e-10
1.46387e-10
1.46537e-10
1.46753e-10
1.47065e-10
1.47519e-10
1.48179e-10
1.49142e-10
1.50551e-10
1.52615e-10
1.55643e-10
1.60086e-10
1.66602e-10
1.76138e-10
1.90052e-10
2.10254e-10
2.39392e-10
2.81037e-10
3.39845e-10
4.21628e-10
5.33293e-10
6.82677e-10
8.78279e-10
1.12921e-09
1.44574e-09
1.84066e-09
1.46038e-10
1.46038e-10
1.46038e-10
1.46039e-10
1.46039e-10
1.46039e-10
1.4604e-10
1.46041e-10
1.46042e-10
1.46043e-10
1.46046e-10
1.46048e-10
1.46052e-10
1.46058e-10
1.46066e-10
1.46077e-10
1.46092e-10
1.46113e-10
1.46143e-10
1.46186e-10
1.46246e-10
1.46331e-10
1.46452e-10
1.46625e-10
1.46873e-10
1.4723e-10
1.47743e-10
1.48486e-10
1.49561e-10
1.51123e-10
1.53396e-10
1.56707e-10
1.61534e-10
1.68566e-10
1.78794e-10
1.93629e-10
2.1505e-10
2.45783e-10
2.89482e-10
3.50886e-10
4.35875e-10
5.51403e-10
7.05325e-10
9.06059e-10
1.16229e-09
1.48257e-09
1.87484e-09
2.34679e-09
2.9077e-09
3.57197e-09
1.46039e-10
1.46039e-10
1.46039e-10
1.4604e-10
1.46041e-10
1.46042e-10
1.46043e-10
1.46045e-10
1.46048e-10
1.46052e-10
1.46057e-10
1.46064e-10
1.46074e-10
1.46088e-10
1.46106e-10
1.46133e-10
1.4617e-10
1.46221e-10
1.46293e-10
1.46395e-10
1.4654e-10
1.46744e-10
1.47035e-10
1.4745e-10
1.48044e-10
1.48897e-10
1.50124e-10
1.51893e-10
1.54451e-10
1.58151e-10
1.63509e-10
1.71264e-10
1.82471e-10
1.98625e-10
2.2181e-10
2.54875e-10
3.01609e-10
3.66882e-10
4.56696e-10
5.781e-10
7.39003e-10
9.47878e-10
1.21343e-09
1.54431e-09
1.94839e-09
2.43293e-09
3.00401e-09
3.66608e-09
4.42097e-09
5.27226e-09
6.24069e-09
1.46041e-10
1.46042e-10
1.46043e-10
1.46045e-10
1.46048e-10
1.46052e-10
1.46057e-10
1.46063e-10
1.46073e-10
1.46085e-10
1.46103e-10
1.46126e-10
1.4616e-10
1.46205e-10
1.46269e-10
1.46358e-10
1.46483e-10
1.46658e-10
1.46905e-10
1.47253e-10
1.47747e-10
1.48449e-10
1.4945e-10
1.50881e-10
1.5293e-10
1.55872e-10
1.601e-10
1.66179e-10
1.7492e-10
1.87469e-10
2.05439e-10
2.3106e-10
2.67352e-10
3.18293e-10
3.8894e-10
4.85457e-10
6.15025e-10
7.85632e-10
1.00582e-09
1.28433e-09
1.62982e-09
2.05034e-09
2.55316e-09
3.14457e-09
3.82934e-09
4.60947e-09
5.48411e-09
6.45134e-09
7.51058e-09
8.66845e-09
9.96614e-09
1.46046e-10
1.46049e-10
1.46052e-10
1.46057e-10
1.46064e-10
1.46073e-10
1.46085e-10
1.46101e-10
1.46124e-10
1.46155e-10
1.46197e-10
1.46256e-10
1.46336e-10
1.46448e-10
1.46604e-10
1.46821e-10
1.47125e-10
1.47552e-10
1.48153e-10
1.49001e-10
1.50202e-10
1.51908e-10
1.54335e-10
1.57795e-10
1.62735e-10
1.69789e-10
1.79862e-10
1.94225e-10
2.14648e-10
2.43554e-10
2.84191e-10
3.4078e-10
4.18614e-10
5.24066e-10
6.64479e-10
8.47946e-10
1.08306e-09
1.37858e-09
1.74314e-09
2.18497e-09
2.71125e-09
3.32844e-09
4.04156e-09
4.85334e-09
5.76338e-09
6.76942e-09
7.86923e-09
9.06277e-09
1.03525e-08
1.17434e-08
1.32472e-08
1.49234e-08
1.46065e-10
1.46074e-10
1.46086e-10
1.46102e-10
1.46124e-10
1.46154e-10
1.46195e-10
1.46251e-10
1.46327e-10
1.46431e-10
1.46575e-10
1.46774e-10
1.47049e-10
1.47432e-10
1.47966e-10
1.48713e-10
1.49762e-10
1.51236e-10
1.53317e-10
1.56257e-10
1.60421e-10
1.66325e-10
1.74698e-10
1.86569e-10
2.03372e-10
2.27084e-10
2.60378e-10
3.06784e-10
3.70823e-10
4.58074e-10
5.75159e-10
7.29605e-10
9.29623e-10
1.18385e-09
1.50105e-09
1.88982e-09
2.35839e-09
2.91396e-09
3.56302e-09
4.31066e-09
5.16013e-09
6.11159e-09
7.16277e-09
8.31076e-09
9.55409e-09
1.0894e-08
1.23335e-08
1.38779e-08
1.55336e-08
1.73078e-08
1.9216e-08
2.13314e-08
1.46128e-10
1.46158e-10
1.46199e-10
1.46254e-10
1.46328e-10
1.46429e-10
1.46567e-10
1.46756e-10
1.47016e-10
1.47373e-10
1.47866e-10
1.4855e-10
1.49501e-10
1.50827e-10
1.5268e-10
1.55277e-10
1.58923e-10
1.64051e-10
1.71271e-10
1.81438e-10
1.95745e-10
2.15838e-10
2.43957e-10
2.83086e-10
3.37102e-10
4.10878e-10
5.10325e-10
6.4234e-10
8.14651e-10
1.03558e-09
1.3138e-09
1.65806e-09
2.07689e-09
2.57843e-09
3.16988e-09
3.85758e-09
4.64675e-09
5.5409e-09
6.5407e-09
7.6439e-09
8.84714e-09
1.01478e-08
1.1546e-08
1.30435e-08
1.46443e-08
1.63547e-08
1.81798e-08
2.0128e-08
2.22075e-08
2.44241e-08
2.67994e-08
2.94261e-08
1.46341e-10
1.46443e-10
1.4658e-10
1.46767e-10
1.47021e-10
1.47367e-10
1.47841e-10
1.48492e-10
1.49389e-10
1.50628e-10
1.52345e-10
1.54729e-10
1.58048e-10
1.62677e-10
1.69142e-10
1.78178e-10
1.90807e-10
2.08437e-10
2.32987e-10
2.67024e-10
3.13914e-10
3.77939e-10
4.64379e-10
5.79509e-10
7.30517e-10
9.25332e-10
1.17238e-09
1.48033e-09
1.85788e-09
2.31348e-09
2.8551e-09
3.4899e-09
4.22401e-09
5.06265e-09
6.0094e-09
7.06524e-09
8.22813e-09
9.49446e-09
1.08607e-08
1.23256e-08
1.38899e-08
1.55564e-08
1.73305e-08
1.92174e-08
2.12233e-08
2.33581e-08
2.56254e-08
2.80349e-08
3.06038e-08
3.33361e-08
3.62458e-08
3.94393e-08
1.47065e-10
1.47415e-10
1.47888e-10
1.48533e-10
1.49413e-10
1.50618e-10
1.52272e-10
1.54549e-10
1.57691e-10
1.62035e-10
1.68053e-10
1.76396e-10
1.87969e-10
2.04013e-10
2.26216e-10
2.5684e-10
2.98856e-10
3.56079e-10
4.33259e-10
5.3612e-10
6.71322e-10
8.46342e-10
1.06929e-09
1.34867e-09
1.69312e-09
2.11123e-09
2.61131e-09
3.20114e-09
3.88775e-09
4.67703e-09
5.5741e-09
6.58239e-09
7.70311e-09
8.93445e-09
1.02725e-08
1.1713e-08
1.32534e-08
1.48939e-08
1.66359e-08
1.84834e-08
2.04418e-08
2.25157e-08
2.4715e-08
2.70447e-08
2.95099e-08
3.21292e-08
3.49085e-08
3.78504e-08
4.09646e-08
4.42647e-08
4.77724e-08
5.16119e-08
1.49576e-10
1.50795e-10
1.52454e-10
1.54717e-10
1.57812e-10
1.62055e-10
1.67881e-10
1.75891e-10
1.86913e-10
2.02075e-10
2.22908e-10
2.51457e-10
2.90408e-10
3.4322e-10
4.14222e-10
5.08678e-10
6.32782e-10
7.93573e-10
9.98799e-10
1.25672e-09
1.57585e-09
1.96477e-09
2.43192e-09
2.98539e-09
3.63271e-09
4.38073e-09
5.23503e-09
6.20051e-09
7.28042e-09
8.47603e-09
9.78561e-09
1.12049e-08
1.27291e-08
1.43549e-08
1.60812e-08
1.79084e-08
1.98395e-08
2.18798e-08
2.40327e-08
2.63063e-08
2.87084e-08
3.12409e-08
3.39203e-08
3.67568e-08
3.97538e-08
4.29169e-08
4.62574e-08
4.97874e-08
5.3517e-08
5.74645e-08
6.16581e-08
6.6237e-08
1.58432e-10
1.62745e-10
1.68615e-10
1.76617e-10
1.87534e-10
2.02428e-10
2.2273e-10
2.50344e-10
2.87762e-10
3.38189e-10
4.05643e-10
4.95026e-10
6.12144e-10
7.63652e-10
9.56945e-10
1.2e-09
1.50115e-09
1.86889e-09
2.31166e-09
2.83768e-09
3.45478e-09
4.17022e-09
4.99049e-09
5.92087e-09
6.96595e-09
8.12872e-09
9.41035e-09
1.0809e-08
1.23202e-08
1.39386e-08
1.56601e-08
1.74825e-08
1.94053e-08
2.1431e-08
2.35633e-08
2.58053e-08
2.81646e-08
3.06492e-08
3.32601e-08
3.60108e-08
3.89145e-08
4.19759e-08
4.51984e-08
4.85922e-08
5.21693e-08
5.59388e-08
5.99147e-08
6.4113e-08
6.85473e-08
7.32327e-08
7.82002e-08
8.36062e-08
2.05146e-10
2.25709e-10
2.53446e-10
2.90735e-10
3.40617e-10
4.06897e-10
4.94219e-10
6.08089e-10
7.54847e-10
9.41579e-10
1.17597e-09
1.46615e-09
1.82048e-09
2.24732e-09
2.75491e-09
3.3512e-09
4.04369e-09
4.83928e-09
5.74408e-09
6.76295e-09
7.90011e-09
9.15824e-09
1.05382e-08
1.20379e-08
1.36526e-08
1.53766e-08
1.72049e-08
1.91344e-08
2.11641e-08
2.32952e-08
2.553e-08
2.78722e-08
3.03286e-08
3.29054e-08
3.56051e-08
3.84399e-08
4.142e-08
4.45552e-08
4.78483e-08
5.13061e-08
5.49404e-08
5.87614e-08
6.27798e-08
6.70121e-08
7.14721e-08
7.61723e-08
8.11262e-08
8.6349e-08
9.18579e-08
9.76876e-08
1.04012e-07
3.50921e-10
4.18344e-10
5.06514e-10
6.20731e-10
7.671e-10
9.52451e-10
1.18423e-09
1.47032e-09
1.8189e-09
2.23826e-09
2.73656e-09
3.32175e-09
4.00143e-09
4.78273e-09
5.6721e-09
6.67518e-09
7.79639e-09
9.03949e-09
1.04067e-08
1.18985e-08
1.35125e-08
1.52435e-08
1.70853e-08
1.90322e-08
2.10806e-08
2.32286e-08
2.5476e-08
2.78251e-08