/*--------------------------------*- C++ -*----------------------------------*\
| =========                 |                                                 |
| \\      /  F ield         | OpenFOAM: The Open Source CFD Toolbox           |
|  \\    /   O peration     | Version:  v1706                                 |
|   \\  /    A nd           | Web:      www.OpenFOAM.com                      |
|    \\/     M anipulation  |                                                 |
\*---------------------------------------------------------------------------*/
FoamFile
{
    version     2.0;
    format      ascii;
    class       volScalarField;
    location    "4e-05";
    object      Mach;
}
// * * * * * * * * * * * * * * * * * * * * * * * * * * * * * * * * * * * * * //

dimensions      [0 0 0 0 0 0 0];


internalField   nonuniform List<scalar> 
30038
(
7.18506
7.18506
7.18506
7.18506
7.18506
7.18506
7.18506
7.18506
7.18506
7.18506
7.18506
7.18506
7.18506
7.18506
7.18506
7.18506
7.18506
7.18506
7.18506
7.18506
7.18506
7.18506
7.18506
7.18506
7.18506
7.18506
7.18506
7.18506
7.18506
7.18506
7.18506
7.18506
7.18506
7.18506
7.18506
7.18506
7.18506
7.18506
7.18506
7.18506
7.18506
7.18506
7.18506
7.18506
7.18506
7.18506
7.18506
7.18506
7.18506
7.18506
7.18506
7.18506
7.18506
7.18506
7.18506
7.18506
7.18506
7.18506
7.18506
7.18506
7.18506
7.18506
7.18506
7.18506
7.18506
7.18506
7.18506
7.18506
7.18506
7.18506
7.18506
7.18506
7.18506
7.18506
7.18506
7.18506
7.18506
7.18506
7.18506
7.18506
7.18506
7.18506
7.18506
7.18506
7.18506
7.18506
7.18506
7.18506
7.18506
7.18506
7.18506
7.18506
7.18506
7.18506
7.18506
7.18506
7.18506
7.18506
7.18506
7.18506
7.18506
7.18506
7.18506
7.18506
7.18506
7.18506
7.18506
7.18506
7.18506
7.18506
7.18506
7.18506
7.18506
7.18506
7.18506
7.18506
7.18506
7.18506
7.18506
7.18506
7.18506
7.18506
7.18506
7.18506
7.18506
7.18506
7.18506
7.18506
7.18506
7.18506
7.18506
7.18506
7.18506
7.18506
7.18506
7.18506
7.18506
7.18506
7.18506
7.18506
7.18506
7.18506
7.18506
7.18506
7.18506
7.18506
7.18506
7.18506
7.18506
7.18506
7.18506
7.18506
7.18506
7.18506
7.18506
7.18506
7.18506
7.18506
7.18506
7.18506
7.18506
7.18506
7.18506
7.18506
7.18506
7.18506
7.18506
7.18506
7.18506
7.18506
7.18506
7.18506
7.18506
7.18506
7.18506
7.18506
7.18506
7.18506
7.18506
7.18506
7.18506
7.18506
7.18506
7.18506
7.18506
7.18506
7.18506
7.18506
7.18506
7.18506
7.18506
7.18506
7.18506
7.18506
7.18506
7.18506
7.18506
7.18506
7.18506
7.18506
7.18506
7.18506
7.18506
7.18506
7.18506
7.18506
7.18506
7.18506
7.18506
7.18506
7.18506
7.18506
7.18506
7.18506
7.18506
7.18506
7.18506
7.18506
7.18506
7.18506
7.18506
7.18506
7.18506
7.18506
7.18506
7.18506
7.18506
7.18506
7.18506
7.18506
7.18506
7.18506
7.18506
7.18506
7.18506
7.18506
7.18506
7.18506
7.18506
7.18506
7.18506
7.18506
7.18506
7.18506
7.18506
7.18506
7.18506
7.18506
7.18506
7.18506
7.18506
7.18506
7.18506
7.18506
7.18506
7.18506
7.18506
7.18506
7.18506
7.18506
7.18506
7.18506
7.18506
7.18506
7.18506
7.18506
7.18506
7.18506
7.18506
7.18506
7.18506
7.18506
7.18506
7.18506
7.18506
7.18506
7.18506
7.18506
7.18506
7.18506
7.18506
7.18506
7.18506
7.18506
7.18506
7.18506
7.18506
7.18506
7.18506
7.18506
7.18506
7.18506
7.18506
7.18506
7.18506
7.18506
7.18506
7.18506
7.18506
7.18506
7.18506
7.18506
7.18506
7.18506
7.18506
7.18506
7.18506
7.18506
7.18506
7.18506
7.18506
7.18506
7.18506
7.18506
7.18506
7.18506
7.18506
7.18506
7.18506
7.18506
7.18506
7.18506
7.18506
7.18506
7.18506
7.18506
7.18506
7.18506
7.18506
7.18506
7.18506
7.18506
7.18506
7.18506
7.18506
7.18506
7.18506
7.18506
7.18506
7.18506
7.18506
7.18506
7.18506
7.18506
7.18506
7.18506
7.18506
7.18506
7.18506
7.18506
7.18506
7.18506
7.18506
7.18506
7.18506
7.18506
7.18506
7.18506
7.18506
7.18506
7.18506
7.18506
7.18506
7.18506
7.18506
7.18506
7.18506
7.18506
7.18506
7.18506
7.18506
7.18506
7.18506
7.18506
7.18506
7.18506
7.18506
7.18506
7.18506
7.18506
7.18506
7.18506
7.18506
7.18506
7.18506
7.18506
7.18506
7.18506
7.18506
7.18506
7.18506
7.18506
7.18506
7.18506
7.18506
7.18506
7.18506
7.18506
7.18506
7.18506
7.18506
7.18506
7.18506
7.18506
7.18506
7.18506
7.18506
7.18506
7.18506
7.18506
7.18506
7.18506
7.18506
7.18506
7.18506
7.18506
7.18506
7.18506
7.18506
7.18506
7.18506
7.18506
7.18506
7.18506
7.18506
7.18506
7.18506
7.18506
7.18506
7.18506
7.18506
7.18506
7.18506
7.18506
7.18506
7.18506
7.18506
7.18506
7.18506
7.18506
7.18506
7.18506
7.18506
7.18506
7.18506
7.18506
7.18506
7.18506
7.18506
7.18506
7.18506
7.18506
7.18506
7.18506
7.18506
7.18506
7.18506
7.18506
7.18506
7.18506
7.18506
7.18506
7.18506
7.18506
7.18506
7.18506
7.18506
7.18506
7.18506
7.18506
7.18506
7.18506
7.18506
7.18506
7.18506
7.18506
7.18506
7.18506
7.18506
7.18506
7.18506
7.18506
7.18506
7.18506
7.18506
7.18506
7.18506
7.18506
7.18506
7.18506
7.18506
7.18506
7.18506
7.18506
7.18506
7.18506
7.18506
7.18506
7.18506
7.18506
7.18506
7.18506
7.18506
7.18506
7.18506
7.18506
7.18506
7.18506
7.18506
7.18506
7.18506
7.18506
7.18506
7.18506
7.18506
7.18506
7.18506
7.18506
7.18506
7.18506
7.18506
7.18506
7.18506
7.18506
7.18506
7.18506
7.18506
7.18506
7.18506
7.18506
7.18506
7.18506
7.18506
7.18506
7.18506
7.18506
7.18506
7.18506
7.18506
7.18506
7.18506
7.18506
7.18506
7.18506
7.18506
7.18506
7.18506
7.18506
7.18506
7.18506
7.18506
7.18506
7.18506
7.18506
7.18506
7.18506
7.18506
7.18506
7.18506
7.18506
7.18506
7.18506
7.18506
7.18506
7.18506
7.18506
7.18506
7.18506
7.18506
7.18506
7.18506
7.18506
7.18506
7.18506
7.18506
7.18506
7.18506
7.18506
7.18506
7.18506
7.18506
7.18506
7.18506
7.18506
7.18506
7.18506
7.18506
7.18506
7.18506
7.18506
7.18506
7.18506
7.18506
7.18506
7.18506
7.18506
7.18506
7.18506
7.18506
7.18506
7.18506
7.18506
7.18506
7.18506
7.18506
7.18506
7.18506
7.18506
7.18506
7.18506
7.18506
7.18506
7.18506
7.18506
7.18506
7.18506
7.18506
7.18506
7.18506
7.18506
7.18506
7.18506
7.18506
7.18506
7.18506
7.18506
7.18506
7.18506
7.18506
7.18506
7.18506
7.18506
7.18506
7.18506
7.18506
7.18506
7.18506
7.18506
7.18506
7.18506
7.18506
7.18506
7.18506
7.18506
7.18506
7.18506
7.18506
7.18506
7.18506
7.18506
7.18506
7.18506
7.18506
7.18506
7.18506
7.18506
7.18506
7.18506
7.18506
7.18506
7.18506
7.18506
7.18506
7.18506
7.18506
7.18506
7.18506
7.18506
7.18506
7.18506
7.18506
7.18506
7.18506
7.18506
7.18506
7.18506
7.18506
7.18506
7.18506
7.18506
7.18506
7.18506
7.18506
7.18506
7.18506
7.18506
7.18506
7.18506
7.18506
7.18506
7.18506
7.18506
7.18506
7.18506
7.18506
7.18506
7.18506
7.18506
7.18506
7.18506
7.18506
7.18506
7.18506
7.18506
7.18506
7.18506
7.18506
7.18506
7.18506
7.18506
7.18506
7.18506
7.18506
7.18506
7.18506
7.18506
7.18506
7.18506
7.18506
7.18506
7.18506
7.18506
7.18506
7.18506
7.18506
7.18506
7.18506
7.18506
7.18506
7.18506
7.18506
7.18506
7.18506
7.18506
7.18506
7.18506
7.18506
7.18506
7.18506
7.18506
7.18506
7.18506
7.18506
7.18506
7.18506
7.18506
7.18506
7.18506
7.18506
7.18506
7.18506
7.18506
7.18506
7.18506
7.18506
7.18506
7.18506
7.18506
7.18506
7.18506
7.18506
7.18506
7.18506
7.18506
7.18506
7.18506
7.18506
7.18506
7.18506
7.18506
7.18506
7.18506
7.18506
7.18506
7.18506
7.18506
7.18506
7.18506
7.18506
7.18506
7.18506
7.18506
7.18506
7.18506
7.18506
7.18506
7.18506
7.18506
7.18506
7.18506
7.18506
7.18506
7.18506
7.18506
7.18506
7.18506
7.18506
7.18506
7.18506
7.18506
7.18506
7.18506
7.18506
7.18506
7.18506
7.18506
7.18506
7.18506
7.18506
7.18506
7.18506
7.18506
7.18506
7.18506
7.18506
7.18506
7.18506
7.18506
7.18506
7.18506
7.18506
7.18506
7.18506
7.18506
7.18506
7.18506
7.18506
7.18506
7.18506
7.18506
7.18506
7.18506
7.18506
7.18506
7.18506
7.18506
7.18506
7.18506
7.18506
7.18506
7.18506
7.18506
7.18506
7.18506
7.18506
7.18506
7.18506
7.18506
7.18506
7.18506
7.18506
7.18506
7.18506
7.18506
7.18506
7.18506
7.18506
7.18506
7.18506
7.18506
7.18506
7.18506
7.18506
7.18506
7.18506
7.18506
7.18506
7.18506
7.18506
7.18506
7.18506
7.18506
7.18506
7.18506
7.18506
7.18506
7.18506
7.18506
7.18506
7.18506
7.18506
7.18506
7.18506
7.18506
7.18506
7.18506
7.18506
7.18506
7.18506
7.18506
7.18506
7.18506
7.18506
7.18506
7.18506
7.18506
7.18506
7.18506
7.18506
7.18506
7.18506
7.18506
7.18506
7.18506
7.18506
7.18506
7.18506
7.18506
7.18506
7.18506
7.18506
7.18506
7.18506
7.18506
7.18506
7.18506
7.18506
7.18506
7.18506
7.18506
7.18506
7.18506
7.18506
7.18506
7.18506
7.18506
7.18506
7.18506
7.18506
7.18506
7.18506
7.18506
7.18506
7.18506
7.18506
7.18506
7.18506
7.18506
7.18506
7.18506
7.18506
7.18506
7.18506
7.18506
7.18506
7.18506
7.18506
7.18506
7.18506
7.18506
7.18506
7.18506
7.18506
7.18506
7.18506
7.18506
7.18506
7.18506
7.18506
7.18506
7.18506
7.18506
7.18506
7.18506
7.18506
7.18506
7.18506
7.18506
7.18506
7.18506
7.18506
7.18506
7.18506
7.18506
7.18506
7.18506
7.18506
7.18506
7.18506
7.18506
7.18506
7.18506
7.18506
7.18506
7.18506
7.18506
7.18506
7.18506
7.18506
7.18506
7.18506
7.18506
7.18506
7.18506
7.18506
7.18506
7.18506
7.18506
7.18506
7.18506
7.18506
7.18506
7.18506
7.18506
7.18506
7.18506
7.18506
7.18506
7.18506
7.18506
7.18506
7.18506
7.18506
7.18506
7.18506
7.18506
7.18506
7.18506
7.18506
7.18506
7.18506
7.18506
7.18506
7.18506
7.18506
7.18506
7.18506
7.18506
7.18506
7.18506
7.18506
7.18506
7.18506
7.18506
7.18506
7.18506
7.18506
7.18506
7.18506
7.18506
7.18506
7.18506
7.18506
7.18506
7.18506
7.18506
7.18506
7.18506
7.18506
7.18506
7.18506
7.18506
7.18506
7.18506
7.18506
7.18506
7.18506
7.18506
7.18506
7.18506
7.18506
7.18506
7.18506
7.18506
7.18506
7.18506
7.18506
7.18506
7.18506
7.18506
7.18506
7.18506
7.18506
7.18506
7.18506
7.18506
7.18506
7.18506
7.18506
7.18506
7.18506
7.18506
7.18506
7.18506
7.18506
7.18506
7.18506
7.18506
7.18506
7.18506
7.18506
7.18506
7.18506
7.18506
7.18506
7.18506
7.18506
7.18506
7.18506
7.18506
7.18506
7.18506
7.18506
7.18506
7.18506
7.18506
7.18506
7.18506
7.18506
7.18506
7.18506
7.18506
7.18506
7.18506
7.18506
7.18506
7.18506
7.18506
7.18506
7.18506
7.18506
7.18506
7.18506
7.18506
7.18506
7.18506
7.18506
7.18506
7.18506
7.18506
7.18506
7.18506
7.18506
7.18506
7.18506
7.18506
7.18506
7.18506
7.18506
7.18506
7.18506
7.18506
7.18506
7.18506
7.18506
7.18506
7.18506
7.18506
7.18506
7.18506
7.18506
7.18506
7.18506
7.18506
7.18506
7.18506
7.18506
7.18506
7.18506
7.18506
7.18506
7.18506
7.18506
7.18506
7.18506
7.18506
7.18506
7.18506
7.18506
7.18506
7.18506
7.18506
7.18506
7.18506
7.18506
7.18506
7.18506
7.18506
7.18506
7.18506
7.18506
7.18506
7.18506
7.18506
7.18506
7.18506
7.18506
7.18506
7.18506
7.18506
7.18506
7.18505
7.18506
7.18506
7.18506
7.18506
7.18506
7.18506
7.18506
7.18506
7.18506
7.18506
7.18506
7.18506
7.18506
7.18506
7.18506
7.18506
7.18506
7.18506
7.18506
7.18506
7.18506
7.18506
7.18506
7.18506
7.18506
7.18506
7.18506
7.18506
7.18506
7.18506
7.18506
7.18506
7.18506
7.18506
7.18506
7.18506
7.18506
7.18506
7.18506
7.18506
7.18506
7.18506
7.18506
7.18506
7.18506
7.18506
7.18505
7.18505
7.18504
7.18503
7.18506
7.18506
7.18506
7.18506
7.18506
7.18506
7.18506
7.18506
7.18506
7.18506
7.18506
7.18506
7.18506
7.18506
7.18506
7.18506
7.18506
7.18506
7.18506
7.18506
7.18506
7.18506
7.18506
7.18506
7.18506
7.18506
7.18506
7.18506
7.18506
7.18506
7.18506
7.18506
7.18506
7.18506
7.18506
7.18506
7.18506
7.18506
7.18506
7.18506
7.18506
7.18506
7.18506
7.18505
7.18505
7.18504
7.18502
7.185
7.18497
7.18492
7.18506
7.18506
7.18506
7.18506
7.18506
7.18506
7.18506
7.18506
7.18506
7.18506
7.18506
7.18506
7.18506
7.18506
7.18506
7.18506
7.18506
7.18506
7.18506
7.18506
7.18506
7.18506
7.18506
7.18506
7.18506
7.18506
7.18506
7.18506
7.18506
7.18506
7.18506
7.18506
7.18506
7.18506
7.18506
7.18506
7.18506
7.18506
7.18506
7.18506
7.18505
7.18505
7.18504
7.18502
7.185
7.18497
7.18492
7.18484
7.18473
7.18454
7.18506
7.18506
7.18506
7.18506
7.18506
7.18506
7.18506
7.18506
7.18506
7.18506
7.18506
7.18506
7.18506
7.18506
7.18506
7.18506
7.18506
7.18506
7.18506
7.18506
7.18506
7.18506
7.18506
7.18506
7.18506
7.18506
7.18506
7.18506
7.18506
7.18506
7.18506
7.18506
7.18506
7.18506
7.18506
7.18506
7.18506
7.18505
7.18504
7.18503
7.18502
7.185
7.18496
7.18491
7.18483
7.18472
7.18454
7.18427
7.18385
7.18319
7.18506
7.18506
7.18506
7.18506
7.18506
7.18506
7.18506
7.18506
7.18506
7.18506
7.18506
7.18506
7.18506
7.18506
7.18506
7.18506
7.18506
7.18506
7.18506
7.18506
7.18506
7.18506
7.18506
7.18506
7.18506
7.18506
7.18506
7.18506
7.18506
7.18506
7.18506
7.18506
7.18506
7.18505
7.18505
7.18504
7.18503
7.18501
7.18499
7.18495
7.1849
7.18482
7.1847
7.18452
7.18425
7.18384
7.18322
7.18228
7.18083
7.17857
7.18506
7.18506
7.18506
7.18506
7.18506
7.18506
7.18506
7.18506
7.18506
7.18506
7.18506
7.18506
7.18506
7.18506
7.18506
7.18506
7.18506
7.18506
7.18506
7.18506
7.18506
7.18506
7.18506
7.18506
7.18506
7.18506
7.18506
7.18506
7.18506
7.18506
7.18505
7.18505
7.18504
7.18503
7.18501
7.18498
7.18494
7.18488
7.1848
7.18467
7.18448
7.1842
7.18378
7.18315
7.18221
7.1808
7.17868
7.17548
7.1706
7.163
7.18506
7.18506
7.18506
7.18506
7.18506
7.18506
7.18506
7.18506
7.18506
7.18506
7.18506
7.18506
7.18506
7.18506
7.18506
7.18506
7.18506
7.18506
7.18506
7.18506
7.18506
7.18506
7.18506
7.18506
7.18506
7.18506
7.18505
7.18505
7.18504
7.18503
7.18502
7.185
7.18497
7.18493
7.18486
7.18477
7.18463
7.18443
7.18414
7.1837
7.18305
7.18208
7.18065
7.17852
7.17534
7.17059
7.16351
7.1529
7.13688
7.11243
7.18506
7.18506
7.18506
7.18506
7.18506
7.18506
7.18506
7.18506
7.18506
7.18506
7.18506
7.18506
7.18506
7.18506
7.18506
7.18506
7.18506
7.18506
7.18506
7.18506
7.18506
7.18506
7.18506
7.18505
7.18505
7.18504
7.18503
7.18501
7.18499
7.18496
7.18491
7.18484
7.18473
7.18459
7.18437
7.18405
7.18358
7.1829
7.18189
7.1804
7.17821
7.17498
7.1702
7.16313
7.15267
7.13721
7.11441
7.08086
7.03144
6.95877
7.18506
7.18506
7.18506
7.18506
7.18506
7.18506
7.18506
7.18506
7.18506
7.18506
7.18506
7.18506
7.18506
7.18506
7.18506
7.18506
7.18506
7.18506
7.18506
7.18505
7.18505
7.18504
7.18503
7.18502
7.185
7.18497
7.18494
7.18488
7.1848
7.18469
7.18452
7.18428
7.18393
7.18343
7.18269
7.18162
7.18005
7.17776
7.17441
7.1695
7.1623
7.15176
7.13631
7.11375
7.08092
7.03347
6.96556
6.86979
6.7367
6.5566
7.18506
7.18506
7.18506
7.18506
7.18506
7.18506
7.18506
7.18506
7.18506
7.18506
7.18506
7.18506
7.18506
7.18506
7.18506
7.18505
7.18505
7.18504
7.18504
7.18503
7.18501
7.18499
7.18496
7.18491
7.18485
7.18476
7.18462
7.18444
7.18417
7.18378
7.18322
7.18242
7.18126
7.17958
7.17714
7.1736
7.16847
7.16102
7.15019
7.13447
7.11171
7.0789
7.0319
6.96525
6.87214
6.74475
6.5752
6.35747
6.08826
5.77233
7.18506
7.18506
7.18506
7.18506
7.18506
7.18506
7.18506
7.18506
7.18506
7.18506
7.18506
7.18506
7.18505
7.18505
7.18504
7.18503
7.18502
7.185
7.18497
7.18493
7.18488
7.1848
7.18469
7.18454
7.18433
7.18402
7.18358
7.18296
7.18206
7.18078
7.17894
7.17631
7.17251
7.16705
7.15919
7.14788
7.1316
7.10825
7.07489
7.02753
6.96096
6.86876
6.74361
6.57827
6.36726
6.10896
5.80721
5.47192
5.11512
4.75473
7.18506
7.18506
7.18506
7.18506
7.18506
7.18506
7.18506
7.18506
7.18505
7.18505
7.18504
7.18503
7.18502
7.185
7.18498
7.18494
7.1849
7.18483
7.18474
7.18461
7.18443
7.18418
7.18382
7.18332
7.18261
7.1816
7.18016
7.17812
7.17521
7.17107
7.16516
7.15673
7.14471
7.12757
7.10321
7.06872
7.02022
6.9527
6.86004
6.73534
6.57191
6.36474
6.1124
5.81863
5.49261
5.14745
4.79735
4.45531
4.12899
3.82811
7.18506
7.18506
7.18506
7.18506
7.18505
7.18505
7.18504
7.18503
7.18502
7.185
7.18498
7.18495
7.18491
7.18485
7.18477
7.18466
7.18451
7.18429
7.18399
7.18357
7.18298
7.18215
7.18099
7.17935
7.17704
7.17379
7.16919
7.16269
7.15349
7.14049
7.12214
7.0963
7.06007
7.00964
6.94011
6.84564
6.71977
6.55633
6.35084
6.10226
5.81428
5.49556
5.15835
4.81609
4.48094
4.16228
3.8661
3.59597
3.35085
3.13391
7.18505
7.18505
7.18504
7.18503
7.18502
7.18501
7.18498
7.18496
7.18492
7.18486
7.18479
7.18469
7.18455
7.18436
7.1841
7.18373
7.18323
7.18252
7.18155
7.18019
7.17829
7.17564
7.17193
7.16674
7.15946
7.14926
7.13498
7.11501
7.08716
7.04851
6.99526
6.92263
6.82502
6.69638
6.5311
6.32538
6.07867
5.79485
5.48223
5.15232
4.81767
4.48958
4.17684
3.88533
3.61829
3.37702
3.16129
2.97087
2.80351
2.661
7.18503
7.18502
7.185
7.18498
7.18496
7.18492
7.18487
7.1848
7.1847
7.18458
7.1844
7.18416
7.18384
7.18339
7.18277
7.18192
7.18075
7.17913
7.1769
7.1738
7.1695
7.16354
7.15526
7.14377
7.12783
7.10575
7.07527
7.03342
6.97637
6.89946
6.79731
6.66431
6.49548
6.28775
6.04125
5.76018
5.45269
5.12966
4.80269
4.48224
4.17639
3.89056
3.62785
3.38947
3.17551
2.98531
2.81836
2.67435
2.55392
2.45616
2.38037
7.18495
7.18491
7.18486
7.1848
7.1847
7.18458
7.18442
7.18419
7.18389
7.18348
7.18292
7.18215
7.18111
7.17968
7.17773
7.17505
7.17137
7.16632
7.15936
7.1498
7.13664
7.11856
7.09378
7.05993
7.01396
6.95202
6.86953
6.76138
6.62244
6.44843
6.23713
5.98944
5.71001
5.40693
5.09049
4.77141
4.45919
4.16114
3.88215
3.625
3.39087
3.17983
2.9913
2.82466
2.67956
2.55621
2.45496
2.37526
2.31552
2.27221
2.24156
7.18478
7.18469
7.18457
7.18441
7.18419
7.1839
7.18351
7.18298
7.18227
7.18131
7.18
7.17824
7.17584
7.17258
7.16814
7.1621
7.15387
7.14264
7.12735
7.10654
7.07832
7.0402
6.98902
6.92093
6.83145
6.71577
6.56931
6.38862
6.17241
5.92245
5.6439
5.34482
5.03493
4.72403
4.42066
4.13128
3.86019
3.60981
3.38116
3.17429
2.9887
2.82369
2.67885
2.55422
2.45018
2.3667
2.30264
2.2556
2.22234
2.1997
2.18457
2.17425
7.18416
7.18387
7.18349
7.18297
7.18229
7.18137
7.18014
7.17849
7.17626
7.17328
7.16925
7.16382
7.15648
7.14658
7.13321
7.11517
7.09089
7.05832
7.01483
6.95717
6.88148
6.78344
6.65864
6.50315
6.31447
6.09232
5.83941
5.5614
5.26628
4.96317
4.66092
4.36707
4.0872
3.82497
3.58242
3.36038
3.15882
2.9773
2.8151
2.6718
2.54727
2.44187
2.3558
2.28843
2.23798
2.20172
2.17662
2.15975
2.14871
2.14182
2.13759
2.13511
7.18221
7.1813
7.1801
7.1785
7.17637
7.17354
7.16976
7.16471
7.15795
7.14892
7.13684
7.12069
7.09913
7.07042
7.03235
6.98216
6.91651
6.83159
6.72332
6.58779
6.42191
6.2242
5.99551
5.73944
5.46209
5.17131
4.8755
4.58256
4.29896
4.02943
3.77696
3.5432
3.32874
3.13352
2.95708
2.79877
2.6581
2.5349
2.4294
2.34196
2.27232
2.21921
2.18035
2.15301
2.13447
2.12223
2.11451
2.10978
2.10734
2.10665
2.10684
2.10818
7.17618
7.1734
7.16973
7.16488
7.15845
7.14994
7.13866
7.12372
7.10395
7.07785
7.04351
6.99853
6.94002
6.86464
6.76868
6.64844
6.50069
6.32331
6.11596
5.88064
5.62177
5.34574
5.06008
4.77241
4.48959
4.21706
3.95867
3.71679
3.49265
3.28664
3.09864
2.92819
2.77468
2.63761
2.51677
2.41234
2.32469
2.25379
2.1988
2.15791
2.12871
2.10865
2.09527
2.08674
2.08165
2.07879
2.07781
2.0779
2.07946
2.08101
2.08286
2.08539
7.15804
7.14975
7.13887
7.1246
7.10589
7.08141
7.04947
7.00796
6.95434
6.88564
6.79854
6.68963
6.55576
6.39455
6.205
5.988
5.74663
5.48594
5.21241
4.93307
4.65464
4.38289
4.12227
3.87579
3.64522
3.43143
3.23463
3.0546
2.8909
2.74297
2.61033
2.49276
2.39038
2.30354
2.23239
2.17639
2.13411
2.10344
2.08207
2.06774
2.05854
2.05299
2.04981
2.0486
2.04887
2.04987
2.05207
2.05384
2.05647
2.05952
2.06273
2.0657
7.10519
7.0815
7.05088
7.01142
6.96086
6.89653
6.81547
6.71455
6.59083
6.44192
6.26649
6.06478
5.8389
5.59279
5.33193
5.06258
4.79109
4.52317
4.26354
4.01566
3.7818
3.56318
3.36036
3.17337
3.00194
2.84564
2.70396
2.57645
2.46291
2.36341
2.2783
2.20781
2.15161
2.10859
2.07697
2.05468
2.03957
2.02974
2.02374
2.02044
2.0191
2.01925
2.02007
2.02235
2.02459
2.02701
2.03025
2.0336
2.03696
2.04048
2.0442
2.04768
6.96025
6.89837
6.82096
6.72522
6.60842
6.46832
6.30351
6.1139
5.90096
5.66783
5.4191
5.16031
4.89724
4.63536
4.37936
4.13288
3.89853
3.67788
3.47173
3.28035
3.10365
2.94132
2.79293
2.65804
2.53624
2.42737
2.33147
2.24887
2.17985
2.12423
2.08113
2.04909
2.02623
2.01055
2.0003
1.99406
1.99063
1.98909
1.98912
1.99017
1.99226
1.99488
1.99728
2.00052
2.0041
2.00771
2.01125
2.01515
2.01904
2.02288
2.02676
2.03046
6.47553
6.31815
6.13754
5.93485
5.71266
5.4749
5.2264
4.9724
4.71795
4.46754
4.22479
3.99244
3.77227
3.56532
3.37201
3.19242
3.02635
2.87347
2.73339
2.60571
2.4901
2.38641
2.2947
2.21528
2.14843
2.09409
2.05158
2.01963
1.99658
1.98064
1.97018
1.96376
1.96018
1.95865
1.95877
1.95994
1.96173
1.9647
1.96742
1.97055
1.9743
1.97805
1.98178
1.98578
1.98989
1.99392
1.99798
2.00205
2.00606
2.01008
2.01394
5.72858
5.5003
5.26138
5.01649
4.77025
4.52681
4.28963
4.06137
3.84391
3.63843
3.4455
3.26526
3.09764
2.9424
2.79921
2.66771
2.54757
2.4385
2.3404
2.25335
2.17766
2.1136
2.06117
2.01982
1.98846
1.96564
1.94977
1.93927
1.93279
1.92921
1.92779
1.92794
1.92911
1.93101
1.93399
1.93717
1.9402
1.94409
1.94808
1.95205
1.95608
1.96038
1.96462
1.96887
1.97314
1.97737
1.98158
1.98578
1.98994
1.99411
1.99815
4.79211
4.55659
4.32636
4.10394
3.89113
3.68914
3.49862
3.31983
3.15272
2.99713
2.8528
2.71941
2.59665
2.48424
2.38197
2.28978
2.20778
2.13625
2.0755
2.02551
1.98584
1.95555
1.93336
1.91784
1.90751
1.90115
1.89774
1.89643
1.89663
1.8979
1.90008
1.90299
1.90645
1.90965
1.91353
1.91779
1.92195
1.92603
1.93051
1.93501
1.93944
1.94389
1.94833
1.95274
1.95713
1.96151
1.96586
1.97021
1.97452
1.97885
1.98305
3.7162
3.52995
3.35446
3.18974
3.03566
2.89202
2.75853
2.63494
2.52097
2.41641
2.3211
2.23505
2.15838
2.09139
2.03434
1.98724
1.94971
1.92092
1.89971
1.88482
1.8749
1.86883
1.86564
1.86449
1.8649
1.86641
1.86876
1.87164
1.8753
1.87894
1.88277
1.8872
1.89155
1.89586
1.9004
1.90509
1.90967
1.91431
1.91896
1.92357
1.92816
1.93272
1.93727
1.9418
1.94632
1.95083
1.95532
1.95979
1.96428
1.96864
3.05662
2.91532
2.78339
2.66059
2.54668
2.44146
2.34477
2.25652
2.17675
2.10562
2.04343
1.99042
1.94658
1.91156
1.88463
1.86473
1.85074
1.84145
1.83581
1.83295
1.83208
1.83273
1.83446
1.83696
1.84003
1.84375
1.84785
1.85165
1.85623
1.86086
1.86539
1.86999
1.87485
1.87967
1.88448
1.88931
1.8941
1.89887
1.90363
1.90837
1.91308
1.91779
1.92247
1.92715
1.93181
1.93646
1.9411
1.94572
1.95036
1.95487
2.55993
2.45552
2.35892
2.27004
2.18886
2.11544
2.05
1.99281
1.94408
1.90379
1.8716
1.84681
1.82849
1.81564
1.80718
1.80211
1.7997
1.79919
1.80012
1.80211
1.8048
1.80813
1.81194
1.81628
1.82035
1.82494
1.82987
1.83458
1.83924
1.84431
1.84936
1.85434
1.85936
1.86435
1.86931
1.87425
1.87917
1.88406
1.88895
1.89381
1.89866
1.9035
1.90833
1.91314
1.91794
1.92274
1.92752
1.93229
1.93706
1.94173
2.19294
2.11877
2.05173
1.99205
1.94
1.89573
1.85919
1.83005
1.80764
1.79113
1.77962
1.77213
1.76777
1.7659
1.76586
1.7671
1.76941
1.77233
1.77592
1.77989
1.78434
1.78884
1.79347
1.79857
1.80352
1.80838
1.81355
1.81878
1.8239
1.8291
1.8343
1.83945
1.84458
1.84969
1.85476
1.85982
1.86486
1.86989
1.8749
1.87989
1.88488
1.88985
1.89481
1.89976
1.9047
1.90963
1.91455
1.91946
1.92437
1.92918
1.93232
1.88547
1.84577
1.81313
1.78719
1.76732
1.75278
1.74276
1.73637
1.73285
1.73162
1.73206
1.73369
1.73633
1.7396
1.74338
1.74757
1.7522
1.75706
1.76176
1.767
1.77221
1.77727
1.78253
1.78794
1.79327
1.79863
1.804
1.80932
1.81463
1.81992
1.82518
1.83042
1.83564
1.84084
1.84602
1.85118
1.85633
1.86146
1.86658
1.8717
1.8768
1.88189
1.88697
1.89204
1.89711
1.90217
1.9072
1.91225
1.9172
1.76598
1.74332
1.7261
1.71364
1.70521
1.70001
1.69741
1.69688
1.69785
1.69993
1.70294
1.70654
1.71053
1.71494
1.7198
1.72487
1.72982
1.73522
1.74067
1.7459
1.75124
1.75685
1.76239
1.76791
1.77345
1.77896
1.78444
1.7899
1.79533
1.80075
1.80614
1.81151
1.81686
1.82219
1.82751
1.8328
1.83809
1.84336
1.84862
1.85386
1.8591
1.86433
1.86954
1.87475
1.87995
1.88514
1.89033
1.89549
1.90067
1.90575
1.6739
1.6671
1.66316
1.66153
1.66175
1.66329
1.66585
1.66924
1.67318
1.67743
1.68208
1.68717
1.69239
1.69765
1.70318
1.70883
1.71427
1.71972
1.72553
1.73126
1.73693
1.74265
1.74835
1.754
1.75964
1.76525
1.77083
1.77639
1.78192
1.78744
1.79294
1.79842
1.80388
1.80932
1.81475
1.82017
1.82557
1.83096
1.83633
1.8417
1.84706
1.85241
1.85774
1.86308
1.8684
1.87371
1.87902
1.8843
1.8896
1.8948
1.62629
1.62845
1.6315
1.6353
1.63956
1.6441
1.64899
1.65432
1.65972
1.66526
1.67094
1.67675
1.68243
1.68805
1.694
1.6999
1.70572
1.71162
1.7175
1.72333
1.72913
1.73491
1.74067
1.7464
1.7521
1.75778
1.76344
1.76908
1.7747
1.7803
1.78589
1.79146
1.79701
1.80255
1.80808
1.8136
1.8191
1.82459
1.83007
1.83555
1.84101
1.84646
1.85191
1.85735
1.86278
1.8682
1.8736
1.87902
1.88434
1.60113
1.60572
1.61055
1.6157
1.62128
1.62688
1.63266
1.63853
1.64449
1.65039
1.65619
1.66227
1.66835
1.67434
1.68039
1.68644
1.69243
1.6984
1.70435
1.71028
1.71617
1.72204
1.72788
1.7337
1.7395
1.74528
1.75104
1.75677
1.7625
1.7682
1.77389
1.77957
1.78523
1.79088
1.79652
1.80214
1.80776
1.81336
1.81895
1.82453
1.83011
1.83568
1.84123
1.84678
1.85232
1.85786
1.86337
1.86889
1.87432
1.58224
1.58806
1.59388
1.59987
1.60595
1.61208
1.61816
1.62414
1.63036
1.63661
1.64277
1.64898
1.65518
1.66134
1.66747
1.67359
1.67967
1.68572
1.69175
1.69776
1.70373
1.70969
1.71562
1.72154
1.72743
1.7333
1.73916
1.74499
1.75082
1.75662
1.76241
1.76819
1.77396
1.77971
1.78545
1.79118
1.7969
1.80261
1.80831
1.814
1.81968
1.82535
1.83102
1.83667
1.84231
1.84795
1.85356
1.85918
1.86472
1.57323
1.57953
1.58576
1.59193
1.59831
1.60471
1.61104
1.6174
1.62376
1.63007
1.63636
1.64263
1.64887
1.65508
1.66127
1.66742
1.67356
1.67966
1.68575
1.69181
1.69786
1.70388
1.70988
1.71587
1.72183
1.72778
1.73371
1.73963
1.74553
1.75142
1.7573
1.76317
1.76902
1.77486
1.78069
1.78651
1.79232
1.79812
1.80391
1.80969
1.81547
1.82123
1.82698
1.83272
1.83846
1.84417
1.84988
1.85551
1.55957
1.56611
1.57266
1.57914
1.58565
1.59216
1.59863
1.60508
1.6115
1.61789
1.62425
1.63059
1.6369
1.64318
1.64944
1.65567
1.66188
1.66807
1.67424
1.68039
1.68652
1.69263
1.69872
1.70479
1.71084
1.71688
1.72291
1.72892
1.73492
1.7409
1.74687
1.75283
1.75878
1.76472
1.77064
1.77656
1.78246
1.78836
1.79425
1.80012
1.80599
1.81185
1.8177
1.82353
1.82935
1.83515
1.84095
1.84666
1.55377
1.56043
1.56704
1.57364
1.58021
1.58674
1.59326
1.59974
1.60619
1.61262
1.61903
1.6254
1.63176
1.63809
1.6444
1.65069
1.65696
1.66321
1.66944
1.67565
1.68184
1.68801
1.69417
1.70032
1.70644
1.71256
1.71866
1.72474
1.73081
1.73688
1.74293
1.74897
1.75499
1.76101
1.76702
1.77302
1.779
1.78498
1.79095
1.7969
1.80285
1.80878
1.8147
1.8206
1.82648
1.83236
1.83815
1.54205
1.54876
1.55545
1.5621
1.56872
1.57532
1.58189
1.58844
1.59496
1.60146
1.60793
1.61438
1.6208
1.62721
1.63359
1.63996
1.6463
1.65263
1.65894
1.66523
1.6715
1.67776
1.684
1.69022
1.69643
1.70263
1.70882
1.71499
1.72115
1.7273
1.73343
1.73956
1.74567
1.75178
1.75787
1.76395
1.77002
1.77609
1.78214
1.78817
1.7942
1.80021
1.80621
1.81219
1.81814
1.82409
1.82996
1.53757
1.5443
1.55101
1.55769
1.56435
1.57098
1.57759
1.58417
1.59073
1.59727
1.60379
1.61029
1.61676
1.62322
1.62966
1.63608
1.64248
1.64886
1.65523
1.66158
1.66792
1.67424
1.68054
1.68684
1.69311
1.69938
1.70563
1.71187
1.7181
1.72432
1.73053
1.73672
1.74291
1.74908
1.75525
1.7614
1.76754
1.77366
1.77978
1.78588
1.79196
1.79803
1.80408
1.8101
1.81611
1.82204
1.5268
1.53359
1.54035
1.54709
1.55381
1.5605
1.56717
1.57382
1.58044
1.58705
1.59363
1.6002
1.60674
1.61327
1.61978
1.62627
1.63274
1.6392
1.64564
1.65207
1.65848
1.66487
1.67126
1.67762
1.68398
1.69032
1.69665
1.70297
1.70928
1.71557
1.72185
1.72813
1.73439
1.74064
1.74687
1.7531
1.75931
1.76551
1.77169
1.77786
1.78401
1.79014
1.79625
1.80233
1.8084
1.81438
1.51645
1.52329
1.53011
1.53691
1.54368
1.55043
1.55716
1.56387
1.57056
1.57723
1.58388
1.59051
1.59712
1.60371
1.61029
1.61685
1.62339
1.62992
1.63643
1.64293
1.64941
1.65588
1.66233
1.66878
1.6752
1.68162
1.68802
1.69441
1.70079
1.70716
1.71351
1.71985
1.72618
1.7325
1.73881
1.7451
1.75138
1.75764
1.76389
1.77012
1.77633
1.78251
1.78868
1.79481
1.80093
1.80695
1.50651
1.5134
1.52027
1.52713
1.53395
1.54076
1.54755
1.55432
1.56107
1.5678
1.57451
1.5812
1.58788
1.59454
1.60118
1.6078
1.61441
1.62101
1.62759
1.63415
1.6407
1.64724
1.65376
1.66027
1.66677
1.67325
1.67972
1.68618
1.69262
1.69906
1.70548
1.71188
1.71828
1.72466
1.73103
1.73738
1.74372
1.75004
1.75634
1.76263
1.76889
1.77513
1.78134
1.78752
1.79367
1.79974
1.49694
1.50389
1.51082
1.51772
1.5246
1.53147
1.53831
1.54514
1.55195
1.55873
1.5655
1.57226
1.57899
1.58571
1.59242
1.59911
1.60578
1.61244
1.61908
1.62571
1.63232
1.63892
1.64551
1.65208
1.65864
1.66519
1.67172
1.67824
1.68475
1.69124
1.69773
1.70419
1.71065
1.71709
1.72351
1.72992
1.73631
1.74268
1.74904
1.75537
1.76168
1.76796
1.77421
1.78042
1.7866
1.79269
1.48775
1.49474
1.50172
1.50868
1.51561
1.52253
1.52943
1.53631
1.54317
1.55002
1.55685
1.56366
1.57045
1.57723
1.58399
1.59074
1.59747
1.60419
1.61089
1.61758
1.62425
1.63091
1.63756
1.64419
1.65081
1.65742
1.66401
1.67059
1.67715
1.6837
1.69024
1.69676
1.70327
1.70976
1.71623
1.72269
1.72913
1.73555
1.74194
1.74831
1.75466
1.76097
1.76725
1.77348
1.77969
1.78579
1.4789
1.48595
1.49297
1.49998
1.50696
1.51393
1.52088
1.52782
1.53473
1.54163
1.54851
1.55538
1.56223
1.56906
1.57588
1.58268
1.58947
1.59624
1.603
1.60974
1.61647
1.62319
1.62989
1.63658
1.64325
1.64991
1.65656
1.66319
1.6698
1.6764
1.68299
1.68956
1.69611
1.70265
1.70917
1.71567
1.72215
1.7286
1.73503
1.74143
1.7478
1.75414
1.76044
1.76669
1.77291
1.77903
1.47748
1.48455
1.4916
1.49864
1.50566
1.51266
1.51964
1.5266
1.53355
1.54049
1.5474
1.5543
1.56119
1.56806
1.57491
1.58175
1.58858
1.59539
1.60218
1.60896
1.61573
1.62248
1.62922
1.63594
1.64265
1.64934
1.65602
1.66268
1.66933
1.67596
1.68257
1.68917
1.69574
1.7023
1.70883
1.71534
1.72182
1.72827
1.7347
1.74109
1.74745
1.75377
1.76003
1.76626
1.77238
1.46932
1.47644
1.48353
1.49062
1.49768
1.50473
1.51175
1.51877
1.52576
1.53274
1.53971
1.54666
1.55359
1.56051
1.56741
1.5743
1.58117
1.58803
1.59487
1.6017
1.60851
1.61531
1.62209
1.62886
1.63561
1.64235
1.64907
1.65577
1.66246
1.66912
1.67577
1.6824
1.689
1.69559
1.70214
1.70868
1.71519
1.72166
1.72811
1.73452
1.74088
1.74721
1.75348
1.7597
1.76581
1.46146
1.46861
1.47575
1.48288
1.48999
1.49708
1.50415
1.51121
1.51825
1.52527
1.53228
1.53927
1.54625
1.55321
1.56016
1.56709
1.57401
1.58091
1.5878
1.59467
1.60152
1.60836
1.61518
1.62199
1.62878
1.63555
1.64231
1.64904
1.65576
1.66245
1.66913
1.67578
1.68241
1.68902
1.6956
1.70216
1.70868
1.71517
1.72163
1.72805
1.73442
1.74074
1.74701
1.75322
1.75932
1.46107
1.46825
1.47541
1.48256
1.48969
1.4968
1.5039
1.51098
1.51805
1.5251
1.53213
1.53915
1.54615
1.55314
1.56011
1.56707
1.57401
1.58093
1.58784
1.59473
1.60161