/*--------------------------------*- C++ -*----------------------------------*\
| =========                 |                                                 |
| \\      /  F ield         | OpenFOAM: The Open Source CFD Toolbox           |
|  \\    /   O peration     | Version:  v1706                                 |
|   \\  /    A nd           | Web:      www.OpenFOAM.com                      |
|    \\/     M anipulation  |                                                 |
\*---------------------------------------------------------------------------*/
FoamFile
{
    version     2.0;
    format      ascii;
    class       volScalarField;
    location    "4e-05";
    object      p;
}
// * * * * * * * * * * * * * * * * * * * * * * * * * * * * * * * * * * * * * //

dimensions      [1 -1 -2 0 0 0 0];


internalField   nonuniform List<scalar> 
30038
(
21.9139
21.9139
21.9139
21.9139
21.9139
21.9139
21.9139
21.9139
21.9139
21.9139
21.9139
21.9139
21.9139
21.9139
21.9139
21.9139
21.9139
21.9139
21.9139
21.9139
21.9139
21.9139
21.9139
21.9139
21.9139
21.9139
21.9139
21.9139
21.9139
21.9139
21.9139
21.9139
21.9139
21.9139
21.9139
21.9139
21.9139
21.9139
21.9139
21.9139
21.9139
21.9139
21.9139
21.9139
21.9139
21.9139
21.9139
21.9139
21.9139
21.9139
21.9139
21.9139
21.9139
21.9139
21.9139
21.9139
21.9139
21.9139
21.9139
21.9139
21.9139
21.9139
21.9139
21.9139
21.9139
21.9139
21.9139
21.9139
21.9139
21.9139
21.9139
21.9139
21.9139
21.9139
21.9139
21.9139
21.9139
21.9139
21.9139
21.9139
21.9139
21.9139
21.9139
21.9139
21.9139
21.9139
21.9139
21.9139
21.9139
21.9139
21.9139
21.9139
21.9139
21.9139
21.9139
21.9139
21.9139
21.9139
21.9139
21.9139
21.9139
21.9139
21.9139
21.9139
21.9139
21.9139
21.9139
21.9139
21.9139
21.9139
21.9139
21.9139
21.9139
21.9139
21.9139
21.9139
21.9139
21.9139
21.9139
21.9139
21.9139
21.9139
21.9139
21.9139
21.9139
21.9139
21.9139
21.9139
21.9139
21.9139
21.9139
21.9139
21.9139
21.9139
21.9139
21.9139
21.9139
21.9139
21.9139
21.9139
21.9139
21.9139
21.9139
21.9139
21.9139
21.9139
21.9139
21.9139
21.9139
21.9139
21.9139
21.9139
21.9139
21.9139
21.9139
21.9139
21.9139
21.9139
21.9139
21.9139
21.9139
21.9139
21.9139
21.9139
21.9139
21.9139
21.9139
21.9139
21.9139
21.9139
21.9139
21.9139
21.9139
21.9139
21.9139
21.9139
21.9139
21.9139
21.9139
21.9139
21.9139
21.9139
21.9139
21.9139
21.9139
21.9139
21.9139
21.9139
21.9139
21.9139
21.9139
21.9139
21.9139
21.9139
21.9139
21.9139
21.9139
21.9139
21.9139
21.9139
21.9139
21.9139
21.9139
21.9139
21.9139
21.9139
21.9139
21.9139
21.9139
21.9139
21.9139
21.9139
21.9139
21.9139
21.9139
21.9139
21.9139
21.9139
21.9139
21.9139
21.9139
21.9139
21.9139
21.9139
21.9139
21.9139
21.9139
21.9139
21.9139
21.9139
21.9139
21.9139
21.9139
21.9139
21.9139
21.9139
21.9139
21.9139
21.9139
21.9139
21.9139
21.9139
21.9139
21.9139
21.9139
21.9139
21.9139
21.9139
21.9139
21.9139
21.9139
21.9139
21.9139
21.9139
21.9139
21.9139
21.9139
21.9139
21.9139
21.9139
21.9139
21.9139
21.9139
21.9139
21.9139
21.9139
21.9139
21.9139
21.9139
21.9139
21.9139
21.9139
21.9139
21.9139
21.9139
21.9139
21.9139
21.9139
21.9139
21.9139
21.9139
21.9139
21.9139
21.9139
21.9139
21.9139
21.9139
21.9139
21.9139
21.9139
21.9139
21.9139
21.9139
21.9139
21.9139
21.9139
21.9139
21.9139
21.9139
21.9139
21.9139
21.9139
21.9139
21.9139
21.9139
21.9139
21.9139
21.9139
21.9139
21.9139
21.9139
21.9139
21.9139
21.9139
21.9139
21.9139
21.9139
21.9139
21.9139
21.9139
21.9139
21.9139
21.9139
21.9139
21.9139
21.9139
21.9139
21.9139
21.9139
21.9139
21.9139
21.9139
21.9139
21.9139
21.9139
21.9139
21.9139
21.9139
21.9139
21.9139
21.9139
21.9139
21.9139
21.9139
21.9139
21.9139
21.9139
21.9139
21.9139
21.9139
21.9139
21.9139
21.9139
21.9139
21.9139
21.9139
21.9139
21.9139
21.9139
21.9139
21.9139
21.9139
21.9139
21.9139
21.9139
21.9139
21.9139
21.9139
21.9139
21.9139
21.9139
21.9139
21.9139
21.9139
21.9139
21.9139
21.9139
21.9139
21.9139
21.9139
21.9139
21.9139
21.9139
21.9139
21.9139
21.9139
21.9139
21.9139
21.9139
21.9139
21.9139
21.9139
21.9139
21.9139
21.9139
21.9139
21.9139
21.9139
21.9139
21.9139
21.9139
21.9139
21.9139
21.9139
21.9139
21.9139
21.9139
21.9139
21.9139
21.9139
21.9139
21.9139
21.9139
21.9139
21.9139
21.9139
21.9139
21.9139
21.9139
21.9139
21.9139
21.9139
21.9139
21.9139
21.9139
21.9139
21.9139
21.9139
21.9139
21.9139
21.9139
21.9139
21.9139
21.9139
21.9139
21.9139
21.9139
21.9139
21.9139
21.9139
21.9139
21.9139
21.9139
21.9139
21.9139
21.9139
21.9139
21.9139
21.9139
21.9139
21.9139
21.9139
21.9139
21.9139
21.9139
21.9139
21.9139
21.9139
21.9139
21.9139
21.9139
21.9139
21.9139
21.9139
21.9139
21.9139
21.9139
21.9139
21.9139
21.9139
21.9139
21.9139
21.9139
21.9139
21.9139
21.9139
21.9139
21.9139
21.9139
21.9139
21.9139
21.9139
21.9139
21.9139
21.9139
21.9139
21.9139
21.9139
21.9139
21.9139
21.9139
21.9139
21.9139
21.9139
21.9139
21.9139
21.9139
21.9139
21.9139
21.9139
21.9139
21.9139
21.9139
21.9139
21.9139
21.9139
21.9139
21.9139
21.9139
21.9139
21.9139
21.9139
21.9139
21.9139
21.9139
21.9139
21.9139
21.9139
21.9139
21.9139
21.9139
21.9139
21.9139
21.9139
21.9139
21.9139
21.9139
21.9139
21.9139
21.9139
21.9139
21.9139
21.9139
21.9139
21.9139
21.9139
21.9139
21.9139
21.9139
21.9139
21.9139
21.9139
21.9139
21.9139
21.9139
21.9139
21.9139
21.9139
21.9139
21.9139
21.9139
21.9139
21.9139
21.9139
21.9139
21.9139
21.9139
21.9139
21.9139
21.9139
21.9139
21.9139
21.9139
21.9139
21.9139
21.9139
21.9139
21.9139
21.9139
21.9139
21.9139
21.9139
21.9139
21.9139
21.9139
21.9139
21.9139
21.9139
21.9139
21.9139
21.9139
21.9139
21.9139
21.9139
21.9139
21.9139
21.9139
21.9139
21.9139
21.9139
21.9139
21.9139
21.9139
21.9139
21.9139
21.9139
21.9139
21.9139
21.9139
21.9139
21.9139
21.9139
21.9139
21.9139
21.9139
21.9139
21.9139
21.9139
21.9139
21.9139
21.9139
21.9139
21.9139
21.9139
21.9139
21.9139
21.9139
21.9139
21.9139
21.9139
21.9139
21.9139
21.9139
21.9139
21.9139
21.9139
21.9139
21.9139
21.9139
21.9139
21.9139
21.9139
21.9139
21.9139
21.9139
21.9139
21.9139
21.9139
21.9139
21.9139
21.9139
21.9139
21.9139
21.9139
21.9139
21.9139
21.9139
21.9139
21.9139
21.9139
21.9139
21.9139
21.9139
21.9139
21.9139
21.9139
21.9139
21.9139
21.9139
21.9139
21.9139
21.9139
21.9139
21.9139
21.9139
21.9139
21.9139
21.9139
21.9139
21.9139
21.9139
21.9139
21.9139
21.9139
21.9139
21.9139
21.9139
21.9139
21.9139
21.9139
21.9139
21.9139
21.9139
21.9139
21.9139
21.9139
21.9139
21.9139
21.9139
21.9139
21.9139
21.9139
21.9139
21.9139
21.9139
21.9139
21.9139
21.9139
21.9139
21.9139
21.9139
21.9139
21.9139
21.9139
21.9139
21.9139
21.9139
21.9139
21.9139
21.9139
21.9139
21.9139
21.9139
21.9139
21.9139
21.9139
21.9139
21.9139
21.9139
21.9139
21.9139
21.9139
21.9139
21.9139
21.9139
21.9139
21.9139
21.9139
21.9139
21.9139
21.9139
21.9139
21.9139
21.9139
21.9139
21.9139
21.9139
21.9139
21.9139
21.9139
21.9139
21.9139
21.9139
21.9139
21.9139
21.9139
21.9139
21.9139
21.9139
21.9139
21.9139
21.9139
21.9139
21.9139
21.9139
21.9139
21.9139
21.9139
21.9139
21.9139
21.9139
21.9139
21.9139
21.9139
21.9139
21.9139
21.9139
21.9139
21.9139
21.9139
21.9139
21.9139
21.9139
21.9139
21.9139
21.9139
21.9139
21.9139
21.9139
21.9139
21.9139
21.9139
21.9139
21.9139
21.9139
21.9139
21.9139
21.9139
21.9139
21.9139
21.9139
21.9139
21.9139
21.9139
21.9139
21.9139
21.9139
21.9139
21.9139
21.9139
21.9139
21.9139
21.9139
21.9139
21.9139
21.9139
21.9139
21.9139
21.9139
21.9139
21.9139
21.9139
21.9139
21.9139
21.9139
21.9139
21.9139
21.9139
21.9139
21.9139
21.9139
21.9139
21.9139
21.9139
21.9139
21.9139
21.9139
21.9139
21.9139
21.9139
21.9139
21.9139
21.9139
21.9139
21.9139
21.9139
21.9139
21.9139
21.9139
21.9139
21.9139
21.9139
21.9139
21.9139
21.9139
21.9139
21.9139
21.9139
21.9139
21.9139
21.9139
21.9139
21.9139
21.9139
21.9139
21.9139
21.9139
21.9139
21.9139
21.9139
21.9139
21.9139
21.9139
21.9139
21.9139
21.9139
21.9139
21.9139
21.9139
21.9139
21.9139
21.9139
21.9139
21.9139
21.9139
21.9139
21.9139
21.9139
21.9139
21.9139
21.9139
21.9139
21.9139
21.9139
21.9139
21.9139
21.9139
21.9139
21.9139
21.9139
21.9139
21.9139
21.9139
21.9139
21.9139
21.9139
21.9139
21.9139
21.9139
21.9139
21.9139
21.9139
21.9139
21.9139
21.9139
21.9139
21.9139
21.9139
21.9139
21.9139
21.9139
21.9139
21.9139
21.9139
21.9139
21.9139
21.9139
21.9139
21.9139
21.9139
21.9139
21.9139
21.9139
21.9139
21.9139
21.9139
21.9139
21.9139
21.9139
21.9139
21.9139
21.9139
21.9139
21.9139
21.9139
21.9139
21.9139
21.9139
21.9139
21.9139
21.9139
21.9139
21.9139
21.9139
21.9139
21.9139
21.9139
21.9139
21.9139
21.9139
21.9139
21.9139
21.9139
21.9139
21.9139
21.9139
21.9139
21.9139
21.9139
21.9139
21.9139
21.9139
21.9139
21.9139
21.9139
21.9139
21.9139
21.9139
21.9139
21.9139
21.9139
21.9139
21.9139
21.9139
21.9139
21.9139
21.9139
21.9139
21.9139
21.9139
21.9139
21.9139
21.9139
21.9139
21.9139
21.9139
21.9139
21.9139
21.9139
21.9139
21.9139
21.9139
21.9139
21.9139
21.9139
21.9139
21.9139
21.9139
21.9139
21.9139
21.9139
21.9139
21.9139
21.9139
21.9139
21.9139
21.9139
21.9139
21.9139
21.9139
21.9139
21.9139
21.9139
21.9139
21.9139
21.9139
21.9139
21.9139
21.9139
21.9139
21.9139
21.9139
21.9139
21.9139
21.9139
21.9139
21.9139
21.9139
21.9139
21.9139
21.9139
21.9139
21.9139
21.9139
21.9139
21.9139
21.9139
21.9139
21.9139
21.9139
21.9139
21.9139
21.9139
21.9139
21.9139
21.9139
21.9139
21.9139
21.9139
21.9139
21.9139
21.9139
21.9139
21.9139
21.9139
21.9139
21.9139
21.9139
21.9139
21.9139
21.9139
21.9139
21.9139
21.9139
21.9139
21.9139
21.9139
21.9139
21.9139
21.9139
21.9139
21.9139
21.9139
21.9139
21.9139
21.9139
21.9139
21.9139
21.9139
21.9139
21.9139
21.9139
21.9139
21.9139
21.9139
21.9139
21.9139
21.9139
21.9139
21.9139
21.9139
21.9139
21.9139
21.9139
21.9139
21.9139
21.9139
21.9139
21.9139
21.9139
21.9139
21.9139
21.9139
21.9139
21.9139
21.9139
21.9139
21.9139
21.9139
21.9139
21.9139
21.9139
21.9139
21.9139
21.9139
21.9139
21.9139
21.9139
21.9139
21.9139
21.9139
21.9139
21.9139
21.9139
21.9139
21.9139
21.9139
21.9139
21.9139
21.9139
21.9139
21.9139
21.9139
21.9139
21.9139
21.9139
21.9139
21.9139
21.9139
21.9139
21.9139
21.9139
21.9139
21.9139
21.9139
21.9139
21.9139
21.9139
21.9139
21.9139
21.9139
21.9139
21.9139
21.9139
21.9139
21.9139
21.9139
21.9139
21.9139
21.9139
21.9139
21.9139
21.9139
21.9139
21.9139
21.9139
21.9139
21.9139
21.9139
21.9139
21.9139
21.9139
21.9139
21.9139
21.9139
21.9139
21.9139
21.9139
21.9139
21.9139
21.9139
21.9139
21.9139
21.9139
21.9139
21.9139
21.9139
21.9139
21.9139
21.9139
21.9139
21.914
21.9139
21.9139
21.9139
21.9139
21.9139
21.9139
21.9139
21.9139
21.9139
21.9139
21.9139
21.9139
21.9139
21.9139
21.9139
21.9139
21.9139
21.9139
21.9139
21.9139
21.9139
21.9139
21.9139
21.9139
21.9139
21.9139
21.9139
21.9139
21.9139
21.9139
21.9139
21.9139
21.9139
21.9139
21.9139
21.9139
21.9139
21.9139
21.9139
21.9139
21.9139
21.9139
21.9139
21.9139
21.9139
21.9139
21.914
21.914
21.9141
21.9141
21.9139
21.9139
21.9139
21.9139
21.9139
21.9139
21.9139
21.9139
21.9139
21.9139
21.9139
21.9139
21.9139
21.9139
21.9139
21.9139
21.9139
21.9139
21.9139
21.9139
21.9139
21.9139
21.9139
21.9139
21.9139
21.9139
21.9139
21.9139
21.9139
21.9139
21.9139
21.9139
21.9139
21.9139
21.9139
21.9139
21.9139
21.9139
21.9139
21.9139
21.9139
21.9139
21.9139
21.914
21.914
21.9141
21.9141
21.9143
21.9145
21.9148
21.9139
21.9139
21.9139
21.9139
21.9139
21.9139
21.9139
21.9139
21.9139
21.9139
21.9139
21.9139
21.9139
21.9139
21.9139
21.9139
21.9139
21.9139
21.9139
21.9139
21.9139
21.9139
21.9139
21.9139
21.9139
21.9139
21.9139
21.9139
21.9139
21.9139
21.9139
21.9139
21.9139
21.9139
21.9139
21.9139
21.9139
21.9139
21.9139
21.914
21.914
21.914
21.9141
21.9142
21.9143
21.9145
21.9148
21.9152
21.916
21.9171
21.9139
21.9139
21.9139
21.9139
21.9139
21.9139
21.9139
21.9139
21.9139
21.9139
21.9139
21.9139
21.9139
21.9139
21.9139
21.9139
21.9139
21.9139
21.9139
21.9139
21.9139
21.9139
21.9139
21.9139
21.9139
21.9139
21.9139
21.9139
21.9139
21.9139
21.9139
21.9139
21.9139
21.9139
21.9139
21.9139
21.914
21.914
21.914
21.9141
21.9142
21.9143
21.9145
21.9148
21.9153
21.916
21.9171
21.9187
21.9213
21.9253
21.9139
21.9139
21.9139
21.9139
21.9139
21.9139
21.9139
21.9139
21.9139
21.9139
21.9139
21.9139
21.9139
21.9139
21.9139
21.9139
21.9139
21.9139
21.9139
21.9139
21.9139
21.9139
21.9139
21.9139
21.9139
21.9139
21.9139
21.9139
21.9139
21.9139
21.9139
21.9139
21.9139
21.914
21.914
21.914
21.9141
21.9142
21.9144
21.9146
21.9149
21.9154
21.9161
21.9172
21.9189
21.9214
21.9251
21.9309
21.9397
21.9536
21.9139
21.9139
21.9139
21.9139
21.9139
21.9139
21.9139
21.9139
21.9139
21.9139
21.9139
21.9139
21.9139
21.9139
21.9139
21.9139
21.9139
21.9139
21.9139
21.9139
21.9139
21.9139
21.9139
21.9139
21.9139
21.9139
21.9139
21.9139
21.9139
21.914
21.914
21.914
21.9141
21.9141
21.9142
21.9144
21.9146
21.915
21.9155
21.9163
21.9174
21.9191
21.9217
21.9255
21.9312
21.9399
21.9528
21.9724
22.0023
22.0493
21.9139
21.9139
21.9139
21.9139
21.9139
21.9139
21.9139
21.9139
21.9139
21.9139
21.9139
21.9139
21.9139
21.9139
21.9139
21.9139
21.9139
21.9139
21.9139
21.9139
21.9139
21.9139
21.9139
21.9139
21.9139
21.9139
21.914
21.914
21.914
21.9141
21.9142
21.9143
21.9145
21.9147
21.9151
21.9157
21.9165
21.9177
21.9195
21.9222
21.9261
21.932
21.9407
21.9538
21.9732
22.0022
22.0458
22.1112
22.2104
22.3644
21.9139
21.9139
21.9139
21.9139
21.9139
21.9139
21.9139
21.9139
21.9139
21.9139
21.9139
21.9139
21.9139
21.9139
21.9139
21.9139
21.9139
21.9139
21.9139
21.9139
21.9139
21.9139
21.914
21.914
21.914
21.9141
21.9141
21.9142
21.9144
21.9146
21.9149
21.9153
21.9159
21.9168
21.9181
21.92
21.9229
21.927
21.9332
21.9422
21.9556
21.9753
22.0045
22.0479
22.1124
22.2081
22.3507
22.5631
22.8808
23.3646
21.9139
21.9139
21.9139
21.9139
21.9139
21.9139
21.9139
21.9139
21.9139
21.9139
21.9139
21.9139
21.9139
21.9139
21.9139
21.9139
21.9139
21.9139
21.9139
21.914
21.914
21.914
21.9141
21.9142
21.9143
21.9144
21.9147
21.915
21.9155
21.9162
21.9172
21.9186
21.9207
21.9238
21.9283
21.9348
21.9443
21.9582
21.9787
22.0087
22.0528
22.1177
22.2133
22.3542
22.5616
22.8668
23.3147
23.97
24.9255
26.327
21.9139
21.9139
21.9139
21.9139
21.9139
21.9139
21.9139
21.9139
21.9139
21.9139
21.9139
21.9139
21.9139
21.9139
21.9139
21.914
21.914
21.914
21.9141
21.9141
21.9142
21.9144
21.9146
21.9148
21.9152
21.9158
21.9166
21.9177
21.9193
21.9217
21.925
21.9299
21.9369
21.9471
21.962
21.9835
22.0148
22.0604
22.127
22.2243
22.3663
22.5735
22.8757
23.3148
23.9504
24.8638
26.1646
27.9946
30.5333
34.0317
21.9139
21.9139
21.9139
21.9139
21.9139
21.9139
21.9139
21.9139
21.9139
21.9139
21.9139
21.914
21.914
21.914
21.9141
21.9141
21.9142
21.9143
21.9145
21.9147
21.915
21.9155
21.9161
21.917
21.9183
21.9202
21.9228
21.9266
21.932
21.9398
21.9509
21.9669
21.99
22.0233
22.0714
22.1409
22.2416
22.3872
22.598
22.9025
23.3412
23.9705
24.8672
26.1326
27.8961
30.3147
33.5708
37.8705
43.4307
50.5779
21.9139
21.9139
21.9139
21.9139
21.9139
21.9139
21.9139
21.914
21.914
21.914
21.914
21.9141
21.9142
21.9143
21.9144
21.9146
21.9149
21.9153
21.9158
21.9166
21.9177
21.9192
21.9214
21.9244
21.9287
21.9348
21.9435
21.9559
21.9735
21.9987
22.0347
22.0862
22.1601
22.2661
22.4182
22.6362
22.9484
23.3943
24.0282
24.9234
26.1761
27.9075
30.2642
33.4137
37.5398
42.835
49.4953
57.729
67.7532
80.1074
21.9139
21.9139
21.9139
21.914
21.914
21.914
21.914
21.9141
21.9142
21.9143
21.9144
21.9146
21.9148
21.9152
21.9157
21.9163
21.9173
21.9185
21.9204
21.9229
21.9265
21.9314
21.9385
21.9483
21.9623
21.982
22.01
22.0496
22.1058
22.1857
22.2992
22.4607
22.6902
23.0157
23.4764
24.1254
25.0335
26.2927
28.0181
30.3473
33.4368
37.4565
42.5836
48.9973
56.8748
66.4095
77.8365
91.4742
107.5
127.175
21.914
21.914
21.914
21.9141
21.9142
21.9143
21.9144
21.9145
21.9148
21.9151
21.9155
21.9161
21.917
21.9181
21.9197
21.9219
21.9249
21.9292
21.935
21.9432
21.9547
21.9707
21.9932
22.0247
22.069
22.1314
22.2192
22.3429
22.5173
22.7629
23.108
23.5918
24.2669
25.2026
26.4877
28.2321
30.566
33.6361
37.6
42.6217
48.8668
56.4989
65.6901
76.6455
89.632
104.911
122.8
144.052
169.6
202.74
21.9141
21.9142
21.9143
21.9144
21.9146
21.9148
21.9151
21.9155
21.9161
21.9168
21.9179
21.9193
21.9213
21.924
21.9277
21.9328
21.9398
21.9495
21.963
21.9818
22.0078
22.0439
22.0944
22.1647
22.2629
22.3999
22.5914
22.8584
23.2303
23.7465
24.4598
25.4384
26.769
28.5572
30.9265
34.0145
37.9677
42.9373
49.0759
56.5353
65.47
76.0616
88.5508
103.2
120.279
140.278
164.196
193.36
228.994
270.592
319.369
21.9146
21.9148
21.9151
21.9155
21.916
21.9168
21.9178
21.9191
21.9209
21.9234
21.9268
21.9313
21.9376
21.9462
21.9579
21.9741
21.9963
22.0269
22.0691
22.1274
22.2081
22.3196
22.4739
22.6875
22.9826
23.3896
23.9489
24.7138
25.7523
27.1493
29.0068
31.4423
34.5851
38.5711
43.5396
49.6305
56.9847
65.7425
76.0669
88.1712
102.319
118.752
137.843
160.37
187.566
220.647
260.115
305.026
353.039
399.775
443.766
21.9156
21.9161
21.9168
21.9178
21.9191
21.9208
21.9232
21.9263
21.9306
21.9364
21.9442
21.9548
21.9692
21.9889
22.0157
22.0523
22.1023
22.1708
22.2647
22.3935
22.5701
22.812
23.1432
23.5953
24.2103
25.0424
26.1596
27.6457
29.5992
32.1321
35.3657
39.4259
44.4402
50.5367
57.8449
66.4946
76.6323
88.4477
102.197
118.116
136.501
157.955
183.562
214.564
251.729
294.705
341.578
389.164
433.654
472.105
502.308
524.87
21.9193
21.921
21.9233
21.9264
21.9305
21.936
21.9434
21.9533
21.9666
21.9846
22.0089
22.0417
22.0861
22.1464
22.2282
22.3393
22.4903
22.6953
22.9737
23.3508
23.8604
24.5461
25.4634
26.6808
28.2809
30.3591
33.0219
36.3825
40.5573
45.6624
51.8151
59.1339
67.7399
77.7657
89.3835
102.83
118.348
136.188
156.82
181.173
210.449
245.578
286.596
332.176
379.583
425.356
466.09
499.62
524.939
542.518
553.362
559.131
21.9309
21.9364
21.9435
21.9531
21.9659
21.9829
22.0056
22.0361
22.0769
22.1318
22.2055
22.3046
22.4381
22.6177
22.8594
23.1842
23.6198
24.202
24.9765
26.0003
27.3426
29.0845
31.3183
34.1447
37.669
41.9978
47.2367
53.4922
60.8735
69.4934
79.4729
90.9703
104.204
119.421
136.846
156.86
180.241
208.122
241.508
280.71
324.854
371.69
418.053
460.586
496.673
525.039
545.497
558.922
566.562
569.986
570.47
570.278
21.9669
21.9836
22.0056
22.0349
22.0737
22.1253
22.1939
22.2854
22.4074
22.57
22.7868
23.0757
23.4599
23.9695
24.643
25.5282
26.6837
28.179
30.0938
32.5165
35.5417
39.2667
43.7884
49.2021
55.6049
63.0972
71.7848
81.779
93.2272
106.332
121.343
138.468
158.026
180.674
207.453
239.394
276.982
319.686
365.703
412.186
455.91
494.042
524.992
548.151
564.065
573.771
578.809
580.205
580.002
579.731
578.551
575.792
22.0759
22.1261
22.1922
22.2794
22.3946
22.5467
22.7477
23.0129
23.3627
23.8228
24.4262
25.214
26.2363
27.5532
29.2338
31.3557
34.0029
37.2636
41.2265
45.9791
51.6071
58.199
65.8475
74.652
84.717
96.1807
109.234
124.124
141.051
160.29
182.401
208.339
239.121
275.339
316.704
361.772
408.026
452.437
492.145
525.196
550.742
568.955
580.769
587.319
589.99
590.089
589.786
589.003
586.979
583.599
579.06
573.534
22.3982
22.5452
22.7375
22.9889
23.3175
23.746
24.3033
25.0252
25.9555
27.1465
28.6589
30.5611
32.9275
35.8369
39.3703
43.608
48.628
54.5076
61.3275
69.1746
78.1424
88.3306
99.8703
112.945
127.794
144.616
163.654
185.397
210.722
240.614
275.712
315.894
359.994
405.806
450.512
491.282
525.977
553.569
573.908
587.604
595.727
599.69
600.465
600.055
599.561
598.031
595.124
591.095
586.103
580.387
574.324
567.884
23.3193
23.7308
24.2611
24.9423
25.8133
26.9203
28.317
30.0641
32.2278
34.8785
38.089
41.9326
46.4809
51.8036
57.97
65.055
73.1405
82.3158
92.6762
104.348
117.511
132.398
149.2
168.143
189.668
214.582
243.827
278.053
317.24
360.428
405.676
450.373
491.786
527.723
556.948
579.035
594.466
604.192
609.331
610.942
610.671
610.234
609.056
606.642
603.089
598.469
593.149
587.19
581.014
574.711
568.445
561.93
26.8526
28.1766
29.8214
31.8464
34.3144
37.2907
40.8411
45.0314
49.9246
55.5825
62.0683
69.4525
77.8137
87.2378
97.8166
109.675
122.99
137.99
154.858
173.806
195.244
219.927
248.749
282.343
320.738
363.116
407.744
452.211
493.929
530.708
561.134
584.662
601.64
612.751
618.945
621.568
621.634
621.02
620.17
618.212
615.032
610.853
605.839
600.137
594.048
587.853
581.544
575.219
568.879
562.656
556.215
34.0998
36.916
40.2586
44.1865
48.7574
54.0269
60.0502
66.8858
74.6023
83.2758
92.9893
103.832
115.93
129.462
144.648
161.664
180.709
202.182
226.801
255.407
288.595
326.401
368.092
412.095
456.187
497.926
535.151
566.394
591.062
609.261
621.513
628.764
632.332
632.814
632.189
631.494
629.826
626.901
623.148
618.451
613.082
607.159
601.04
594.791
588.467
582.15
575.842
569.567
563.287
557.121
550.745
48.2289
53.2115
58.8857
65.3017
72.5161
80.5965
89.6173
99.659
110.81
123.2
137.01
152.458
169.701
188.936
210.562
235.274
263.859
296.852
334.262
375.4
418.804
462.411
503.93
541.267
572.991
598.422
617.487
630.698
638.939
643.174
644.194
643.684
642.978
641.554
639
635.497
631.116
626.046
620.3
614.254
608.092
601.815
595.508
589.204
582.907
576.633
570.376
564.153
557.921
551.794
545.464
79.061
87.5364
96.9393
107.348
118.852
131.59
145.747
161.532
179.081
198.599
220.495
245.454
274.203
307.195
344.385
385.092
427.933
470.972
512.065
549.229
581.085
606.908
626.55
640.501
649.46
654.254
655.877
655.528
654.633
653.447
651.181
647.836
643.804
638.97
633.479
627.558
621.493
615.265
608.963
602.662
596.365
590.081
583.816
577.567
571.337
565.12
558.932
552.733
546.633
540.34
116.172
128.078
141.225
155.801
171.993
189.926
209.821
232.113
257.477
286.566
319.733
356.859
397.242
439.545
481.935
522.423
559.149
590.807
616.684
636.617
650.999
660.436
665.738
667.822
667.618
666.701
665.613
663.516
660.292
656.51
651.919
646.666
640.898
634.91
628.768
622.511
616.233
609.944
603.653
597.376
591.114
584.868
578.638
572.421
566.22
560.029
553.866
547.693
541.615
535.355
167.316
183.988
202.386
222.763
245.59
271.521
301.115
334.609
371.795
411.93
453.696
495.357
535.064
571.097
602.24
627.865
647.781
662.304
672.015
677.689
680.024
679.998
679.11
677.976
676.033
673.029
669.338
664.968
659.963
654.321
648.405
642.34
636.133
629.875
623.605
617.325
611.051
604.787
598.531
592.286
586.053
579.832
573.625
567.429
561.248
555.079
548.937
542.787
536.731
530.502
237.621
261.136
287.796
318.045
351.99
389.325
429.247
470.443
511.27
550.009
585.098
615.451
640.519
660.112
674.48
684.28
690.119
692.588
692.719
691.845
690.579
688.761
685.917
682.256
678.098
673.265
667.798
661.986
656.03
649.876
643.635
637.374
631.101
624.827
618.562
612.304
606.055
599.815
593.583
587.359
581.144
574.94
568.749
562.57
556.408
550.257
544.135
538.008
531.972
525.774
337.578
372.063
409.586
449.276
489.823
529.676
567.251
601.151
630.445
654.658
673.627
687.631
697.274
703.068
705.547
705.773
704.881
703.481
701.74
698.986
695.345
691.327
686.655
681.335
675.632
669.752
663.676
657.481
651.258
645.005
638.735
632.466
626.202
619.945
613.697
607.456
601.222
594.996
588.777
582.566
576.365
570.175
563.998
557.835
551.689
545.557
539.455
533.349
527.334
521.167
472.08
511.849
550.545
586.734
619.2
647.175
670.265
688.344
701.758
711.008
716.571
718.96
719.154
718.232
716.755
714.974
712.273
708.613
704.679
700.156
695.004
689.38
683.567
677.557
671.408
665.216
658.99
652.738
646.484
640.228
633.971
627.717
621.466
615.221
608.981
602.748
596.522
590.304
584.094
577.893
571.703
565.526
559.363
553.216
547.087
540.973
534.891
528.807
522.812
516.675
608.355
639.149
665.549
687.263
704.22
716.827
725.487
730.653
732.818
732.884
731.906
730.36
728.466
725.786
722.159
718.208
713.785
708.787
703.213
697.467
691.55
685.446
679.282
673.078
666.842
660.599
654.353
648.103
641.854
635.606
629.358
623.11
616.866
610.625
604.389
598.161
591.939
585.727
579.525
573.333
567.154
560.99
554.841
548.709
542.597
536.502
530.439
524.377
518.402
512.295
721.199
732.776
740.672
745.288
747.104
746.977
745.908
744.267
742.234
739.526
735.91
731.927
727.555
722.654
717.144
711.46
705.644
699.58
693.442
687.274
681.062
674.833
668.595
662.35
656.104
649.859
643.611
637.363
631.116
624.869
618.623
612.379
606.14
599.907
593.681
587.465
581.258
575.063
568.881
562.713
556.561
550.426
544.309
538.214
532.138
526.094
520.054
514.1
508.022
760.442
761.8
761.425
760.226
758.467
756.282
753.493
749.856
745.836
741.478
736.637
731.2
725.567
719.819
713.802
707.695
701.574
695.389
689.174
682.952
676.719
670.481
664.238
657.991
651.742
645.492
639.24
632.989
626.737
620.488
614.24
607.996
601.758
595.527
589.305
583.093
576.893
570.706
564.533
558.376
552.236
546.116
540.014
533.936
527.878
521.854
515.835
509.902
503.853
774.861
772.954
770.599
767.68
763.999
759.937
755.564
750.758
745.382
739.786
734.09
728.127
722.057
715.975
709.818
703.621
697.422
691.205
684.975
678.741
672.499
666.253
660.002
653.747
647.49
641.232
634.973
628.715
622.458
616.205
609.955
603.711
597.474
591.245
585.027
578.82
572.627
566.448
560.285
554.139
548.012
541.906
535.82
529.758
523.719
517.714
511.717
505.803
499.783
778.338
774.229
769.817
765.021
759.688
754.121
748.469
742.56
736.524
730.477
724.354
718.179
712.003
705.805
699.586
693.363
687.132
680.89
674.643
668.389
662.131
655.868
649.602
643.334
637.066
630.799
624.534
618.272
612.015
605.764
599.52
593.284
587.058
580.845
574.644
568.457
562.287
556.134
550
543.885
537.793
531.722
525.678
519.656
513.67
507.695
501.802
495.81
779.432
774.122
768.578
762.961
757.1
751.096
745.083
738.996
732.847
726.694
720.517
714.315
708.106
701.887
695.653
689.412
683.163
676.906
670.642
664.373
658.1
651.823
645.545
639.267
632.989
626.714
620.442
614.176
607.916
601.663
595.419
589.186
582.964
576.754
570.56
564.381
558.219
552.076
545.954
539.852
533.773
527.719
521.691
515.687
509.721
503.766
497.894
491.93
771.748
765.776
759.796
753.745
747.624
741.494
735.342
729.159
722.967
716.762
710.539
704.307
698.066
691.813
685.551
679.282
673.006
666.725
660.44
654.151
647.861
641.571
635.282
628.996
622.714
616.437
610.166
603.904
597.65
591.407
585.176
578.958
572.754
566.566
560.394
554.242
548.109
541.998
535.909
529.845
523.806
517.794
511.809
505.862
499.928
494.076
488.14
768.602
762.509
756.405
750.279
744.117
737.943
731.756
725.548
719.327
713.096
706.85
700.593
694.328
688.052
681.769
675.479
669.185
662.886
656.584
650.282
643.979
637.678
631.379
625.085
618.796
612.515
606.241
599.977
593.723
587.481
581.253
575.038
568.84
562.658
556.495
550.352
544.23
538.13
532.055
526.004
519.98
513.986
508.018
502.09
496.178
490.346
484.437
759.19
753.036
746.868
740.676
734.47
728.251
722.015
715.766
709.506
703.234
696.952
690.662
684.363
678.059
671.749
665.436
659.12
652.804
646.488
640.173
633.862
627.555
621.254
614.959
608.674
602.397
596.132
589.878
583.638
577.413
571.203
565.01
558.836
552.681
546.547
540.435
534.348
528.285
522.249
516.24
510.262
504.313
498.403
492.512
486.7
480.819
755.925
749.734
743.53
737.307
731.068
724.816
718.55
712.272
705.984
699.685
693.377
687.063
680.743
674.417
668.089
661.758
655.427
649.097
642.768
636.443
630.122
623.808
617.5
611.201
604.912
598.633
592.367
586.115
579.877
573.654
567.449
561.262
555.095
548.948
542.824
536.723
530.647
524.597
518.575
512.582
506.621
500.689
494.798
488.928
483.136
477.283
752.724
746.497
740.256
733.999
727.727
721.443
715.146
708.839
702.523
696.198
689.866
683.529
677.188
670.843
664.497
658.15
651.804
645.461
639.121
632.786
626.457
620.135
613.822
607.519
601.227
594.947
588.68
582.429
576.193
569.975
563.774
557.594
551.434
545.296
539.181
533.091
527.026
520.989
514.982
509.004
503.059
497.145
491.273
485.424
479.654
473.828
749.577
743.314
737.037
730.746
724.441
718.125
711.799
705.464
699.121
692.772
686.417
680.058
673.697
667.334
660.971
654.61
648.251
641.895
635.545
629.201
622.864
616.536
610.218
603.911
597.616
591.336
585.07
578.819
572.587
566.372
560.177
554.002
547.85
541.72
535.615
529.535
523.483
517.459
511.465
505.503
499.575
493.679
487.828
482
476.252
470.455
746.48
740.181
733.868
727.544
721.208
714.862
708.508
702.146
695.778
689.405
683.028
676.65
670.27
663.89
657.512
651.136
644.764
638.398
632.038
625.685
619.341
613.008
606.685
600.376
594.079
587.798
581.532
575.284
569.054
562.844
556.654
550.485
544.34
538.219
532.124
526.055
520.015
514.004
508.026
502.08
496.169
490.293
484.462
478.657
472.93
467.158
743.428
737.094
730.748
724.392
718.026
711.652
705.27
698.883
692.492
686.097
679.7
673.302
666.905
660.509
654.116
647.727
641.344
634.967
628.598
622.238
615.888
609.549
603.223
596.911
590.613
584.331
578.067
571.821
565.594
559.388
553.203
547.041
540.904
534.792
528.707
522.65
516.623
510.626
504.663
498.734
492.842
486.983
481.17
475.385
469.677
463.931
740.421
734.054
727.676
721.289
714.895
708.494
702.087
695.676
689.262
682.846
676.43
670.015
663.601
657.19
650.784
644.383
637.989
631.602
625.225
618.858
612.502
606.159
599.829
593.515
587.216
580.934
574.671
568.427
562.204
556.002
549.823
543.669
537.54
531.438
525.364
519.32
513.307
507.324
501.375
495.46
489.582
483.74
477.945
472.179
466.492
460.774
731.059
724.652
718.236
711.814
705.388
698.957
692.523
686.088
679.653
673.219
666.786
660.357
653.932
647.513
641.101
634.696
628.301
621.916
615.543
609.182
602.834
596.502
590.185
583.886
577.605
571.344
565.103
558.884
552.688
546.517
540.37
534.251
528.16
522.096
516.061
510.058
504.088
498.151
492.249
486.387
480.564
474.789
469.045
463.38
457.689
728.111
721.674
715.232
708.784
702.333
695.879
689.425
682.97
676.516
670.064
663.616
657.172
650.734
644.303
637.88
631.466
625.063
618.671
612.291
605.925
599.575
593.24
586.922
580.623
574.344
568.085
561.849
555.635
549.446
543.282
537.142
531.029
524.945
518.89
512.865
506.872
500.914
494.993
489.108
483.263
477.458
471.703
465.981
460.338
454.674
725.208
718.744
712.276
705.804
699.33
692.854
686.379
679.905
673.434
666.966
660.503
654.045
647.595
641.152
634.719
628.296
621.885
615.487
609.102
602.733
596.38
590.044
583.727
577.429
571.153
564.898
558.664
552.454
546.268
540.108
533.975
527.868
521.791
515.746
509.733
503.754
497.81
491.903
486.034
480.207
474.421
468.685
462.985
457.365
451.728
715.861
709.367
702.872
696.376
689.881
683.386
676.894
670.406
663.923
657.445
650.975
644.513
638.06
631.617
625.187
618.77
612.366
605.978
599.606
593.252
586.916
580.599
574.301