/*--------------------------------*- C++ -*----------------------------------*\
| =========                 |                                                 |
| \\      /  F ield         | OpenFOAM: The Open Source CFD Toolbox           |
|  \\    /   O peration     | Version:  v1706                                 |
|   \\  /    A nd           | Web:      www.OpenFOAM.com                      |
|    \\/     M anipulation  |                                                 |
\*---------------------------------------------------------------------------*/
FoamFile
{
    version     2.0;
    format      ascii;
    class       volScalarField;
    location    "4e-05";
    object      Tov;
}
// * * * * * * * * * * * * * * * * * * * * * * * * * * * * * * * * * * * * * //

dimensions      [0 0 0 1 0 0 0];


internalField   nonuniform List<scalar> 
30038
(
144.4
144.4
144.4
144.4
144.4
144.4
144.4
144.4
144.4
144.4
144.4
144.4
144.4
144.4
144.4
144.4
144.4
144.4
144.4
144.4
144.4
144.4
144.4
144.4
144.4
144.4
144.4
144.4
144.4
144.4
144.4
144.4
144.4
144.4
144.4
144.4
144.4
144.4
144.4
144.4
144.4
144.4
144.4
144.4
144.4
144.4
144.4
144.4
144.4
144.4
144.4
144.4
144.4
144.4
144.4
144.4
144.4
144.4
144.4
144.4
144.4
144.4
144.4
144.4
144.4
144.4
144.4
144.4
144.4
144.4
144.4
144.4
144.4
144.4
144.4
144.4
144.4
144.4
144.4
144.4
144.4
144.4
144.4
144.4
144.4
144.4
144.4
144.4
144.4
144.4
144.4
144.4
144.4
144.4
144.4
144.4
144.4
144.4
144.4
144.4
144.4
144.4
144.4
144.4
144.4
144.4
144.4
144.4
144.4
144.4
144.4
144.4
144.4
144.4
144.4
144.4
144.4
144.4
144.4
144.4
144.4
144.4
144.4
144.4
144.4
144.4
144.4
144.4
144.4
144.4
144.4
144.4
144.4
144.4
144.4
144.4
144.4
144.4
144.4
144.4
144.4
144.4
144.4
144.4
144.4
144.4
144.4
144.4
144.4
144.4
144.4
144.4
144.4
144.4
144.4
144.4
144.4
144.4
144.4
144.4
144.4
144.4
144.4
144.4
144.4
144.4
144.4
144.4
144.4
144.4
144.4
144.4
144.4
144.4
144.4
144.4
144.4
144.4
144.4
144.4
144.4
144.4
144.4
144.4
144.4
144.4
144.4
144.4
144.4
144.4
144.4
144.4
144.4
144.4
144.4
144.4
144.4
144.4
144.4
144.4
144.4
144.4
144.4
144.4
144.4
144.4
144.4
144.4
144.4
144.4
144.4
144.4
144.4
144.4
144.4
144.4
144.4
144.4
144.4
144.4
144.4
144.4
144.4
144.4
144.4
144.4
144.4
144.4
144.4
144.4
144.4
144.4
144.4
144.4
144.4
144.4
144.4
144.4
144.4
144.4
144.4
144.4
144.4
144.4
144.4
144.4
144.4
144.4
144.4
144.4
144.4
144.4
144.4
144.4
144.4
144.4
144.4
144.4
144.4
144.4
144.4
144.4
144.4
144.4
144.4
144.4
144.4
144.4
144.4
144.4
144.4
144.4
144.4
144.4
144.4
144.4
144.4
144.4
144.4
144.4
144.4
144.4
144.4
144.4
144.4
144.4
144.4
144.4
144.4
144.4
144.4
144.4
144.4
144.4
144.4
144.4
144.4
144.4
144.4
144.4
144.4
144.4
144.4
144.4
144.4
144.4
144.4
144.4
144.4
144.4
144.4
144.4
144.4
144.4
144.4
144.4
144.4
144.4
144.4
144.4
144.4
144.4
144.4
144.4
144.4
144.4
144.4
144.4
144.4
144.4
144.4
144.4
144.4
144.4
144.4
144.4
144.4
144.4
144.4
144.4
144.4
144.4
144.4
144.4
144.4
144.4
144.4
144.4
144.4
144.4
144.4
144.4
144.4
144.4
144.4
144.4
144.4
144.4
144.4
144.4
144.4
144.4
144.4
144.4
144.4
144.4
144.4
144.4
144.4
144.4
144.4
144.4
144.4
144.4
144.4
144.4
144.4
144.4
144.4
144.4
144.4
144.4
144.4
144.4
144.4
144.4
144.4
144.4
144.4
144.4
144.4
144.4
144.4
144.4
144.4
144.4
144.4
144.4
144.4
144.4
144.4
144.4
144.4
144.4
144.4
144.4
144.4
144.4
144.4
144.4
144.4
144.4
144.4
144.4
144.4
144.4
144.4
144.4
144.4
144.4
144.4
144.4
144.4
144.4
144.4
144.4
144.4
144.4
144.4
144.4
144.4
144.4
144.4
144.4
144.4
144.4
144.4
144.4
144.4
144.4
144.4
144.4
144.4
144.4
144.4
144.4
144.4
144.4
144.4
144.4
144.4
144.4
144.4
144.4
144.4
144.4
144.4
144.4
144.4
144.4
144.4
144.4
144.4
144.4
144.4
144.4
144.4
144.4
144.4
144.4
144.4
144.4
144.4
144.4
144.4
144.4
144.4
144.4
144.4
144.4
144.4
144.4
144.4
144.4
144.4
144.4
144.4
144.4
144.4
144.4
144.4
144.4
144.4
144.4
144.4
144.4
144.4
144.4
144.4
144.4
144.4
144.4
144.4
144.4
144.4
144.4
144.4
144.4
144.4
144.4
144.4
144.4
144.4
144.4
144.4
144.4
144.4
144.4
144.4
144.4
144.4
144.4
144.4
144.4
144.4
144.4
144.4
144.4
144.4
144.4
144.4
144.4
144.4
144.4
144.4
144.4
144.4
144.4
144.4
144.4
144.4
144.4
144.4
144.4
144.4
144.4
144.4
144.4
144.4
144.4
144.4
144.4
144.4
144.4
144.4
144.4
144.4
144.4
144.4
144.4
144.4
144.4
144.4
144.4
144.4
144.4
144.4
144.4
144.4
144.4
144.4
144.4
144.4
144.4
144.4
144.4
144.4
144.4
144.4
144.4
144.4
144.4
144.4
144.4
144.4
144.4
144.4
144.4
144.4
144.4
144.4
144.4
144.4
144.4
144.4
144.4
144.4
144.4
144.4
144.4
144.4
144.4
144.4
144.4
144.4
144.4
144.4
144.4
144.4
144.4
144.4
144.4
144.4
144.4
144.4
144.4
144.4
144.4
144.4
144.4
144.4
144.4
144.4
144.4
144.4
144.4
144.4
144.4
144.4
144.4
144.4
144.4
144.4
144.4
144.4
144.4
144.4
144.4
144.4
144.4
144.4
144.4
144.4
144.4
144.4
144.4
144.4
144.4
144.4
144.4
144.4
144.4
144.4
144.4
144.4
144.4
144.4
144.4
144.4
144.4
144.4
144.4
144.4
144.4
144.4
144.4
144.4
144.4
144.4
144.4
144.4
144.4
144.4
144.4
144.4
144.4
144.4
144.4
144.4
144.4
144.4
144.4
144.4
144.4
144.4
144.4
144.4
144.4
144.4
144.4
144.4
144.4
144.4
144.4
144.4
144.4
144.4
144.4
144.4
144.4
144.4
144.4
144.4
144.4
144.4
144.4
144.4
144.4
144.4
144.4
144.4
144.4
144.4
144.4
144.4
144.4
144.4
144.4
144.4
144.4
144.4
144.4
144.4
144.4
144.4
144.4
144.4
144.4
144.4
144.4
144.4
144.4
144.4
144.4
144.4
144.4
144.4
144.4
144.4
144.4
144.4
144.4
144.4
144.4
144.4
144.4
144.4
144.4
144.4
144.4
144.4
144.4
144.4
144.4
144.4
144.4
144.4
144.4
144.4
144.4
144.4
144.4
144.4
144.4
144.4
144.4
144.4
144.4
144.4
144.4
144.4
144.4
144.4
144.4
144.4
144.4
144.4
144.4
144.4
144.4
144.4
144.4
144.4
144.4
144.4
144.4
144.4
144.4
144.4
144.4
144.4
144.4
144.4
144.4
144.4
144.4
144.4
144.4
144.4
144.4
144.4
144.4
144.4
144.4
144.4
144.4
144.4
144.4
144.4
144.4
144.4
144.4
144.4
144.4
144.4
144.4
144.4
144.4
144.4
144.4
144.4
144.4
144.4
144.4
144.4
144.4
144.4
144.4
144.4
144.4
144.4
144.4
144.4
144.4
144.4
144.4
144.4
144.4
144.4
144.4
144.4
144.4
144.4
144.4
144.4
144.4
144.4
144.4
144.4
144.4
144.4
144.4
144.4
144.4
144.4
144.4
144.4
144.4
144.4
144.4
144.4
144.4
144.4
144.4
144.4
144.4
144.4
144.4
144.4
144.4
144.4
144.4
144.4
144.4
144.4
144.4
144.4
144.4
144.4
144.4
144.4
144.4
144.4
144.4
144.4
144.4
144.4
144.4
144.4
144.4
144.4
144.4
144.4
144.4
144.4
144.4
144.4
144.4
144.4
144.4
144.4
144.4
144.4
144.4
144.4
144.4
144.4
144.4
144.4
144.4
144.4
144.4
144.4
144.4
144.4
144.4
144.4
144.4
144.4
144.4
144.4
144.4
144.4
144.4
144.4
144.4
144.4
144.4
144.4
144.4
144.4
144.4
144.4
144.4
144.4
144.4
144.4
144.4
144.4
144.4
144.4
144.4
144.4
144.4
144.4
144.4
144.4
144.4
144.4
144.4
144.4
144.4
144.4
144.4
144.4
144.4
144.4
144.4
144.4
144.4
144.4
144.4
144.4
144.4
144.4
144.4
144.4
144.4
144.4
144.4
144.4
144.4
144.4
144.4
144.4
144.4
144.4
144.4
144.4
144.4
144.4
144.4
144.4
144.4
144.4
144.4
144.4
144.4
144.4
144.4
144.4
144.4
144.4
144.4
144.4
144.4
144.4
144.4
144.4
144.4
144.4
144.4
144.4
144.4
144.4
144.4
144.4
144.4
144.4
144.4
144.4
144.4
144.4
144.4
144.4
144.4
144.4
144.4
144.4
144.4
144.4
144.4
144.4
144.4
144.4
144.4
144.4
144.4
144.4
144.4
144.4
144.4
144.4
144.4
144.4
144.4
144.4
144.4
144.4
144.4
144.4
144.4
144.4
144.4
144.4
144.4
144.4
144.4
144.4
144.4
144.4
144.4
144.4
144.4
144.4
144.4
144.4
144.4
144.4
144.4
144.4
144.4
144.4
144.4
144.4
144.4
144.4
144.4
144.4
144.4
144.4
144.4
144.4
144.4
144.4
144.4
144.4
144.4
144.4
144.4
144.4
144.4
144.4
144.4
144.4
144.4
144.4
144.4
144.4
144.4
144.4
144.4
144.4
144.4
144.4
144.4
144.4
144.4
144.4
144.4
144.4
144.4
144.4
144.4
144.4
144.4
144.4
144.4
144.4
144.4
144.4
144.4
144.4
144.4
144.4
144.4
144.4
144.4
144.4
144.4
144.4
144.4
144.4
144.4
144.4
144.4
144.4
144.4
144.4
144.4
144.4
144.4
144.4
144.4
144.4
144.4
144.4
144.4
144.4
144.4
144.4
144.4
144.4
144.4
144.4
144.4
144.4
144.4
144.4
144.4
144.4
144.4
144.4
144.4
144.4
144.4
144.4
144.4
144.4
144.4
144.4
144.4
144.4
144.4
144.4
144.4
144.4
144.4
144.4
144.4
144.4
144.4
144.4
144.4
144.4
144.4
144.4
144.4
144.4
144.4
144.4
144.4
144.4
144.4
144.4
144.4
144.4
144.4
144.4
144.4
144.4
144.4
144.4
144.4
144.4
144.4
144.4
144.4
144.4
144.4
144.4
144.4
144.4
144.4
144.4
144.4
144.4
144.4
144.4
144.4
144.4
144.4
144.4
144.4
144.4
144.4
144.4
144.4
144.4
144.4
144.4
144.4
144.4
144.4
144.4
144.4
144.4
144.4
144.4
144.4
144.4
144.4
144.4
144.4
144.4
144.4
144.4
144.4
144.4
144.401
144.401
144.401
144.4
144.4
144.4
144.4
144.4
144.4
144.4
144.4
144.4
144.4
144.4
144.4
144.4
144.4
144.4
144.4
144.4
144.4
144.4
144.4
144.4
144.4
144.4
144.4
144.4
144.4
144.4
144.4
144.4
144.4
144.4
144.4
144.4
144.4
144.4
144.4
144.4
144.4
144.4
144.4
144.4
144.4
144.4
144.4
144.401
144.401
144.401
144.402
144.403
144.405
144.4
144.4
144.4
144.4
144.4
144.4
144.4
144.4
144.4
144.4
144.4
144.4
144.4
144.4
144.4
144.4
144.4
144.4
144.4
144.4
144.4
144.4
144.4
144.4
144.4
144.4
144.4
144.4
144.4
144.4
144.4
144.4
144.4
144.4
144.4
144.4
144.4
144.4
144.4
144.4
144.4
144.401
144.401
144.402
144.402
144.403
144.405
144.408
144.412
144.419
144.4
144.4
144.4
144.4
144.4
144.4
144.4
144.4
144.4
144.4
144.4
144.4
144.4
144.4
144.4
144.4
144.4
144.4
144.4
144.4
144.4
144.4
144.4
144.4
144.4
144.4
144.4
144.4
144.4
144.4
144.4
144.4
144.4
144.4
144.4
144.4
144.4
144.401
144.401
144.401
144.402
144.402
144.404
144.406
144.408
144.413
144.419
144.429
144.444
144.468
144.4
144.4
144.4
144.4
144.4
144.4
144.4
144.4
144.4
144.4
144.4
144.4
144.4
144.4
144.4
144.4
144.4
144.4
144.4
144.4
144.4
144.4
144.4
144.4
144.4
144.4
144.4
144.4
144.4
144.4
144.4
144.4
144.4
144.4
144.401
144.401
144.401
144.402
144.403
144.404
144.406
144.409
144.413
144.42
144.43
144.445
144.467
144.501
144.554
144.637
144.4
144.4
144.4
144.4
144.4
144.4
144.4
144.4
144.4
144.4
144.4
144.4
144.4
144.4
144.4
144.4
144.4
144.4
144.4
144.4
144.4
144.4
144.4
144.4
144.4
144.4
144.4
144.4
144.4
144.4
144.4
144.401
144.401
144.401
144.402
144.403
144.404
144.407
144.41
144.414
144.421
144.431
144.447
144.469
144.504
144.555
144.632
144.749
144.927
145.207
144.4
144.4
144.4
144.4
144.4
144.4
144.4
144.4
144.4
144.4
144.4
144.4
144.4
144.4
144.4
144.4
144.4
144.4
144.4
144.4
144.4
144.4
144.4
144.4
144.4
144.4
144.4
144.401
144.401
144.401
144.402
144.402
144.403
144.405
144.407
144.411
144.416
144.423
144.434
144.45
144.473
144.508
144.56
144.638
144.754
144.928
145.188
145.578
146.17
147.084
144.4
144.4
144.4
144.4
144.4
144.4
144.4
144.4
144.4
144.4
144.4
144.4
144.4
144.4
144.4
144.4
144.4
144.4
144.4
144.4
144.4
144.4
144.4
144.4
144.401
144.401
144.401
144.402
144.403
144.404
144.406
144.408
144.412
144.417
144.425
144.437
144.454
144.479
144.515
144.569
144.649
144.767
144.942
145.202
145.586
146.158
147.008
148.273
150.162
153.016
144.4
144.4
144.4
144.4
144.4
144.4
144.4
144.4
144.4
144.4
144.4
144.4
144.4
144.4
144.4
144.4
144.4
144.4
144.4
144.4
144.401
144.401
144.401
144.402
144.402
144.403
144.405
144.407
144.41
144.414
144.42
144.428
144.441
144.459
144.486
144.525
144.582
144.666
144.788
144.968
145.232
145.62
146.192
147.033
148.27
150.086
152.742
156.61
162.212
170.301
144.4
144.4
144.4
144.4
144.4
144.4
144.4
144.4
144.4
144.4
144.4
144.4
144.4
144.4
144.4
144.4
144.401
144.401
144.401
144.401
144.402
144.403
144.404
144.406
144.408
144.411
144.416
144.423
144.433
144.447
144.467
144.496
144.538
144.6
144.689
144.818
145.005
145.279
145.678
146.26
147.11
148.347
150.148
152.756
156.512
161.874
169.433
179.919
194.194
213.196
144.4
144.4
144.4
144.4
144.4
144.4
144.4
144.4
144.4
144.4
144.4
144.4
144.4
144.401
144.401
144.401
144.402
144.402
144.403
144.405
144.407
144.41
144.413
144.419
144.427
144.438
144.454
144.477
144.509
144.556
144.623
144.719
144.858
145.057
145.346
145.763
146.367
147.239
148.5
150.317
152.926
156.652
161.924
169.294
179.425
193.062
210.955
233.773
262.019
295.871
144.4
144.4
144.4
144.4
144.4
144.4
144.4
144.4
144.4
144.401
144.401
144.401
144.402
144.402
144.403
144.404
144.406
144.408
144.412
144.416
144.423
144.432
144.445
144.463
144.489
144.526
144.578
144.653
144.759
144.91
145.127
145.437
145.881
146.517
147.429
148.735
150.6
153.255
157.013
162.284
169.59
179.556
192.877
210.247
232.265
259.327
291.544
328.71
370.379
415.76
144.4
144.4
144.4
144.4
144.4
144.401
144.401
144.401
144.402
144.402
144.403
144.404
144.406
144.408
144.411
144.415
144.42
144.428
144.439
144.454
144.476
144.506
144.548
144.608
144.692
144.811
144.979
145.218
145.556
146.037
146.72
147.689
149.065
151.013
153.759
157.609
162.961
170.314
180.258
193.446
210.527
232.059
258.414
289.694
325.691
365.899
409.578
455.822
503.57
551.777
144.4
144.401
144.401
144.401
144.402
144.402
144.403
144.404
144.405
144.407
144.41
144.414
144.419
144.426
144.435
144.448
144.467
144.492
144.528
144.577
144.647
144.743
144.879
145.069
145.336
145.712
146.242
146.987
148.035
149.509
151.575
154.462
158.47
163.987
171.494
181.553
194.775
211.765
233.039
258.937
289.556
324.711
363.943
406.562
451.707
498.339
545.328
591.606
636.054
677.573
144.401
144.402
144.402
144.403
144.404
144.405
144.407
144.41
144.413
144.418
144.424
144.433
144.445
144.461
144.483
144.514
144.557
144.616
144.697
144.811
144.968
145.186
145.491
145.916
146.508
147.334
148.486
150.09
152.319
155.4
159.636
165.408
173.18
183.488
196.906
213.992
235.213
260.874
291.054
325.579
364.023
405.752
449.983
495.787
542.101
587.88
632.072
673.458
710.646
742.36
768.335
144.404
144.405
144.407
144.41
144.413
144.417
144.423
144.432
144.443
144.458
144.478
144.506
144.544
144.596
144.667
144.765
144.899
145.085
145.34
145.693
146.18
146.854
147.785
149.071
150.846
153.285
156.625
161.168
167.29
175.443
186.138
199.911
217.272
238.637
264.265
294.21
328.297
366.122
407.102
450.511
495.515
541.142
586.406
630.346
671.906
709.814
742.792
769.977
791.234
806.999
818.479
144.41
144.413
144.418
144.424
144.432
144.442
144.456
144.476
144.502
144.537
144.584
144.648
144.736
144.855
145.018
145.239
145.543
145.958
146.526
147.304
148.371
149.829
151.821
154.532
158.204
163.143
169.722
178.382
189.607
203.894
221.701
243.392
269.175
299.071
332.892
370.254
410.606
453.277
497.51
542.428
587.1
630.638
672.116
710.422
744.338
772.894
795.684
812.972
825.477
834.19
840.009
843.913
144.433
144.443
144.457
144.476
144.501
144.534
144.579
144.639
144.72
144.83
144.977
145.176
145.446
145.812
146.308
146.981
147.894
149.134
150.813
153.081
156.137
160.228
165.666
172.824
182.125
194.028
208.988
227.41
249.597
275.705
305.716
339.427
376.462
416.299
458.315
501.814
546.006
590.026
633.044
674.227
712.614
747.086
776.641
800.712
819.342
833.097
842.8
849.39
853.68
856.376
857.996
858.88
144.504
144.537
144.581
144.639
144.717
144.82
144.958
145.144
145.392
145.725
146.173
146.775
147.584
148.672
150.133
152.093
154.713
158.201
162.817
168.876
176.746
186.836
199.574
215.367
234.562
257.402
283.985
314.252
347.982
384.804
424.221
465.65
508.449
551.906
595.222
637.619
678.344
716.557
751.257
781.451
806.481
826.215
841.058
851.719
859.053
863.914
866.952
868.766
869.736
870.027
869.982
869.894
144.724
144.825
144.959
145.137
145.374
145.688
146.105
146.662
147.402
148.389
149.703
151.45
153.767
156.831
160.861
166.126
172.946
181.681
192.719
206.452
223.235
243.353
266.984
294.169
324.808
358.661
395.36
434.429
475.324
517.451
560.165
602.732
644.427
684.559
722.387
757.02
787.523
813.195
833.776
849.511
861.004
869.028
874.415
877.834
879.862
880.992
881.366
881.236
881.015
880.623
879.855
878.843
145.389
145.695
146.097
146.629
147.329
148.254
149.474
151.081
153.196
155.969
159.592
164.296
170.36
178.101
187.869
200.024
214.913
232.836
254.01
278.549
306.436
337.535
371.584
408.221
446.991
487.385
528.853
570.809
612.583
653.499
692.922
730.19
764.514
795.034
821.037
842.181
858.59
870.771
879.399
885.247
889.023
891.267
892.523
893.005
892.868
892.552
892.118
891.373
890.314
889.072
887.673
886.227
147.356
148.251
149.42
150.947
152.937
155.525
158.879
163.204
168.742
175.777
184.621
195.603
209.047
225.25
244.446
266.788
292.321
320.98
352.591
386.879
423.486
461.98
501.883
542.69
583.864
624.797
664.859
703.467
740.024
773.834
804.11
830.155
851.587
868.444
881.124
890.225
896.474
900.565
903.009
904.359
904.941
904.819
904.417
903.888
903.173
902.103
900.823
899.395
897.832
896.247
894.691
893.18
152.962
155.451
158.65
162.74
167.94
174.502
182.705
192.849
205.231
220.133
237.79
258.372
281.961
308.542
338.004
370.144
404.679
441.257
479.469
518.87
558.995
599.352
639.385
678.516
716.207
751.92
785.034
814.833
840.66
862.12
879.184
892.166
901.6
908.159
912.483
915.095
916.547
917.186
917.069
916.614
915.988
915.223
914.157
912.841
911.382
909.763
908.083
906.405
904.751
903.109
901.49
899.906
174.158
181.958
191.545
203.192
217.158
233.668
252.894
274.935
299.812
327.453
357.709
390.356
425.109
461.627
499.523
538.386
577.787
617.277
656.347
694.465
731.14
765.883
798.136
827.254
852.627
873.864
890.9
903.988
913.606
920.351
924.828
927.567
929.092
929.74
929.637
929.16
928.402
927.54
926.49
925.136
923.622
921.965
920.196
918.416
916.653
914.907
913.166
911.443
909.731
908.038
906.367
216.12
231.83
250.066
270.932
294.463
320.619
349.286
380.284
413.379
448.287
484.683
522.201
560.465
599.081
637.639
675.669
712.686
748.243
781.895
813.14
841.391
866.093
886.876
903.659
916.659
926.29
933.096
937.649
940.456
942
942.633
942.529
942.016
941.142
940.164
939.083
937.678
936.092
934.412
932.578
930.702
928.833
926.98
925.134
923.301
921.486
919.677
917.876
916.08
914.301
912.536
292.273
317.266
344.641
374.249
405.895
439.339
474.306
510.485
547.539
585.119
622.871
660.414
697.317
733.138
767.471
799.914
830.009
857.227
881.061
901.179
917.504
930.219
939.699
946.44
950.971
953.77
955.295
955.892
955.754
955.172
954.213
953.111
951.944
950.506
948.856
947.108
945.215
943.238
941.265
939.311
937.368
935.431
933.511
931.6
929.695
927.799
925.908
924.021
922.135
920.262
918.401
434.67
468.329
503.226
539.069
575.546
612.341
649.131
685.564
721.239
755.76
788.76
819.876
848.688
874.713
897.501
916.764
932.439
944.687
953.861
960.411
964.811
967.528
968.989
969.508
969.309
968.658
967.613
966.361
965.082
963.616
961.886
960.05
958.114
956.052
953.979
951.918
949.866
947.818
945.79
943.779
941.776
939.78
937.79
935.804
933.822
931.841
929.863
927.884
925.917
923.958
570.435
606.203
642.092
677.806
713.017
747.354
780.464
812.02
841.69
869.086
893.771
915.351
933.588
948.438
960.056
968.78
975.017
979.184
981.749
983.091
983.477
983.199
982.462
981.307
979.925
978.518
976.989
975.169
973.243
971.254
969.116
966.936
964.775
962.622
960.474
958.34
956.224
954.114
952.014
949.924
947.841
945.763
943.688
941.614
939.542
937.47
935.4
933.327
931.264
929.206
708.807
742.671
775.551
807.136
837.134
865.239
891.092
914.298
934.522
951.576
965.444
976.292
984.437
990.246
994.086
996.433
997.604
997.808
997.431
996.579
995.291
993.795
992.256
990.622
988.73
986.711
984.635
982.427
980.146
977.879
975.625
973.374
971.134
968.915
966.706
964.506
962.316
960.133
957.954
955.782
953.613
951.448
949.284
947.121
944.957
942.793
940.628
938.461
936.301
934.144
835.63
863.954
890.377
914.56
936.155
954.892
970.63
983.385
993.341
1000.79
1006.05
1009.51
1011.57
1012.52
1012.5
1012
1011.01
1009.57
1007.96
1006.28
1004.52
1002.56
1000.44
998.26
995.986
993.613
991.242
988.886
986.529
984.178
981.851
979.539
977.236
974.946
972.665
970.391
968.122
965.859
963.598
961.34
959.084
956.83
954.576
952.321
950.066
947.808
945.549
943.285
941.028
938.771
939.312
959.181
976.315
990.625
1002.16
1011.12
1017.78
1022.42
1025.42
1027.13
1027.76
1027.56
1026.89
1025.73
1024.15
1022.41
1020.58
1018.69
1016.64
1014.42
1012.13
1009.78
1007.32
1004.84
1002.38
999.926
997.473
995.041
992.625
990.216
987.82
985.437
983.063
980.697
978.337
975.983
973.633
971.286
968.94
966.595
964.251
961.907
959.562
957.215
954.866
952.514
950.159
947.799
945.444
943.086
1011.41
1021.65
1029.54
1035.33
1039.28
1041.78
1043.08
1043.36
1042.97
1042.08
1040.72
1039
1037.12
1035.15
1033.12
1030.96
1028.64
1026.24
1023.81
1021.26
1018.67
1016.11
1013.55
1011
1008.46
1005.94
1003.43
1000.94
998.454
995.979
993.512
991.053
988.602
986.156
983.715
981.278
978.844
976.411
973.979
971.547
969.113
966.678
964.241
961.801
959.358
956.91
954.459
952.002
949.547
947.088
1053.34
1056.59
1058.53
1059.39
1059.29
1058.67
1057.55
1055.98
1054.1
1052.08
1049.97
1047.8
1045.51
1043.09
1040.59
1038.04
1035.41
1032.73
1030.06
1027.41
1024.75
1022.11
1019.49
1016.87
1014.28
1011.69
1009.12
1006.56
1004
1001.46
998.914
996.377
993.846
991.318
988.795
986.273
983.753
981.234
978.714
976.192
973.669
971.142
968.612
966.079
963.54
960.996
958.448
955.892
953.338
950.778
1075.57
1074.65
1073.27
1071.48
1069.45
1067.27
1065.02
1062.72
1060.29
1057.76
1055.15
1052.5
1049.78
1046.99
1044.22
1041.48
1038.72
1035.97
1033.25
1030.54
1027.84
1025.16
1022.48
1019.82
1017.17
1014.53
1011.89
1009.26
1006.64
1004.02
1001.4
998.791
996.181
993.573
990.966
988.36
985.752
983.143
980.531
977.916
975.298
972.674
970.045
967.411
964.77
962.124
959.469
956.816
954.153
1087.22
1085.01
1082.68
1080.28
1077.84
1075.29
1072.64
1069.93
1067.16
1064.34
1061.47
1058.59
1055.75
1052.89
1050.04
1047.22
1044.41
1041.61
1038.83
1036.06
1033.3
1030.55
1027.81
1025.08
1022.36
1019.64
1016.93
1014.23
1011.53
1008.83
1006.13
1003.44
1000.74
998.05
995.356
992.662
989.965
987.266
984.563
981.856
979.143
976.425
973.701
970.97
968.232
965.487
962.733
959.979
957.215
1095.75
1093.17
1090.48
1087.72
1084.89
1082.02
1079.1
1076.13
1073.16
1070.21
1067.26
1064.31
1061.39
1058.49
1055.59
1052.71
1049.84
1046.99
1044.14
1041.31
1038.48
1035.67
1032.86
1030.05
1027.26
1024.47
1021.68
1018.9
1016.11
1013.34
1010.56
1007.78
1005
1002.22
999.441
996.658
993.871
991.081
988.286
985.485
982.678
979.865
977.044
974.216
971.38
968.536
965.683
962.829
959.962
1100.04
1097.06
1094.03
1090.97
1087.9
1084.86
1081.82
1078.77
1075.75
1072.76
1069.76
1066.78
1063.82
1060.87
1057.93
1055
1052.08
1049.17
1046.27
1043.38
1040.49
1037.61
1034.73
1031.86
1028.99
1026.13
1023.27
1020.4
1017.54
1014.68
1011.82
1008.96
1006.09
1003.22
1000.35
997.469
994.587
991.698
988.804
985.902
982.993
980.075
977.149
974.215
971.272
968.32
965.364
962.396
1105.97
1102.81
1099.67
1096.54
1093.4
1090.29
1087.2
1084.11
1081.03
1077.98
1074.94
1071.9
1068.88
1065.87
1062.87
1059.88
1056.89
1053.92
1050.95
1047.98
1045.02
1042.07
1039.12
1036.17
1033.22
1030.28
1027.33
1024.39
1021.45
1018.5
1015.55
1012.6
1009.65
1006.69
1003.73
1000.76
997.782
994.8
991.811
988.813
985.807
982.793
979.769
976.736
973.695
970.642
967.587
964.518
1108.19
1104.98
1101.8
1098.62
1095.46
1092.31
1089.18
1086.05
1082.94
1079.84
1076.75
1073.67
1070.59
1067.53
1064.47
1061.42
1058.37
1055.33
1052.29
1049.26
1046.23
1043.2
1040.18
1037.15
1034.13
1031.1
1028.08
1025.05
1022.02
1018.98
1015.94
1012.9
1009.85
1006.8
1003.73
1000.67
997.59
994.505
991.412
988.309
985.197
982.076
978.944
975.804
972.653
969.498
966.328
1113.28
1110.03
1106.8
1103.58
1100.36
1097.16
1093.97
1090.79
1087.62
1084.46
1081.31
1078.16
1075.03
1071.89
1068.77
1065.65
1062.53
1059.42
1056.31
1053.2
1050.09
1046.99
1043.88
1040.78
1037.67
1034.57
1031.46
1028.34
1025.22
1022.1
1018.98
1015.84
1012.7
1009.56
1006.4
1003.24
1000.07
996.887
993.698
990.499
987.289
984.07
980.841
977.602
974.353
971.099
967.83
1114.82
1111.53
1108.26
1104.99
1101.74
1098.49
1095.26
1092.03
1088.8
1085.59
1082.38
1079.17
1075.97
1072.78
1069.59
1066.4
1063.21
1060.03
1056.84
1053.66
1050.47
1047.29
1044.1
1040.91
1037.72
1034.53
1031.33
1028.12
1024.91
1021.7
1018.47
1015.24
1012
1008.75
1005.5
1002.23
998.957
995.672
992.376
989.07
985.753
982.427
979.091
975.743
972.392
969.024
1119.34
1116
1112.67
1109.35
1106.04
1102.73
1099.43
1096.14
1092.86
1089.57
1086.3
1083.03
1079.76
1076.49
1073.23
1069.97
1066.7
1063.44
1060.18
1056.92
1053.66
1050.39
1047.12
1043.85
1040.57
1037.29
1034.01
1030.71
1027.41
1024.11
1020.79
1017.47
1014.14
1010.8
1007.45
1004.09
1000.72
997.334
993.942
990.54
987.127
983.704
980.271
976.827
973.379
969.915
1123.58
1120.18
1116.8
1113.42
1110.05
1106.68
1103.32
1099.97
1096.62
1093.27
1089.93
1086.59
1083.25
1079.91
1076.57
1073.23
1069.9
1066.56
1063.22
1059.88
1056.53
1053.19
1049.83
1046.48
1043.12
1039.75
1036.37
1032.99
1029.6
1026.21
1022.8
1019.39
1015.96
1012.53
1009.08
1005.63
1002.16
998.687
995.2
991.702
988.193
984.674
981.146
977.607
974.063
970.504
1127.54
1124.09
1120.65
1117.21
1113.78
1110.35
1106.92
1103.5
1100.09
1096.67
1093.26
1089.85
1086.44
1083.03
1079.61
1076.2
1072.79
1069.37
1065.95
1062.53
1059.1
1055.67
1052.24
1048.8
1045.35
1041.89
1038.43
1034.96
1031.48
1027.99
1024.5
1020.99
1017.47
1013.95
1010.41
1006.86
1003.3
999.731
996.149
992.557
988.954
985.34
981.718
978.085
974.447
970.793
1131.21
1127.71
1124.2
1120.71
1117.21
1113.72
1110.23
1106.75
1103.26
1099.78
1096.29
1092.81
1089.33
1085.84
1082.35
1078.86
1075.37
1071.88
1068.38
1064.87
1061.36
1057.85
1054.33
1050.8
1047.27
1043.73
1040.18
1036.62
1033.05
1029.47
1025.88
1022.29
1018.68
1015.06
1011.43
1007.79
1004.13
1000.47
996.794
993.108
989.411
985.703
981.988
978.268
974.545
970.807
1134.6
1131.04
1127.47
1123.91
1120.35
1116.8
1113.24
1109.69
1106.13
1102.58
1099.03
1095.47
1091.91
1088.35
1084.79
1081.22
1077.65
1074.07
1070.49
1066.91
1063.32
1059.72
1056.11
1052.5
1048.88
1045.25
1041.61
1037.96
1034.31
1030.64
1026.96
1023.27
1019.57
1015.86
1012.14
1008.4
1004.66
1000.9
997.133
993.356
989.573
985.781
981.98
978.174
974.366
970.543
1137.7
1134.07
1130.45
1126.82
1123.2
1119.58
1115.95
1112.33
1108.71
1105.08
1101.45
1097.82
1094.19
1090.55
1086.91
1083.27
1079.62
1075.96
1072.3
1068.63
1064.96
1061.28
1057.59
1053.89
1050.18
1046.46
1042.74
1039
1035.25
1031.5
1027.73
1023.95
1020.16
1016.36
1012.54
1008.72
1004.88
1001.04
997.187
993.325
989.455
985.578
981.694
977.8
973.905
969.998
1136.81
1133.12
1129.44
1125.75
1122.06
1118.36
1114.67
1110.98
1107.28
1103.58
1099.87
1096.16
1092.45
1088.73
1085.01
1081.28
1077.54
1073.8
1070.05
1066.29
1062.52
1058.75
1054.96
1051.17
1047.37
1043.55
1039.73
1035.89
1032.05
1028.19
1024.32
1020.44
1016.55
1012.65
1008.74
1004.82
1000.9
996.96
993.012
989.055
985.091
981.122
977.145
973.168
969.179
1139.26
1135.5
1131.75
1127.99
1124.23
1120.47
1116.71
1112.94
1109.17
1105.39
1101.61
1097.83
1094.04
1090.24
1086.44
1082.63
1078.81
1074.98
1071.15
1067.31
1063.46
1059.6
1055.73
1051.85
1047.96
1044.06
1040.15
1036.22
1032.29
1028.35
1024.4
1020.43
1016.46
1012.48
1008.49
1004.48
1000.47
996.444
992.412
988.372
984.325
980.274
976.218
972.162
968.096
1141.4
1137.58
1133.75
1129.93
1126.1
1122.27
1118.43
1114.59
1110.75
1106.9
1103.04
1099.18
1095.31
1091.44
1087.55
1083.66
1079.77
1075.86
1071.94
1068.02
1064.08
1060.14
1056.19
1052.22
1048.24
1044.26
1040.27
1036.26
1032.25
1028.23
1024.19
1020.15
1016.09
1012.02
1007.94
1003.85
999.754
995.647
991.533
987.413
983.287
979.158
975.025
970.894
966.754
1139.34
1135.45
1131.56
1127.66
1123.76
1119.85
1115.94
1112.02
1108.09
1104.16
1100.22
1096.28
1092.32
1088.36
1084.39
1080.41
1076.42
1072.42
1068.42
1064.4
1060.37
1056.34
1052.29
1048.24
1044.17
1040.1
1036.02
1031.92
1027.81
1023.69
1019.56
1015.42
1011.27
1007.11
1002.94
998.762
994.576
990.384
986.186
981.984
977.78
973.575
969.373
965.163
1140.8
1136.84
1132.88
1128.91
1124.94
1120.96
1116.97
1112.98
1108.98
1104.97
1100.95
1096.93
1092.9
1088.86
1084.8
1080.74
1076.68
1072.6
1068.52
1064.42
1060.32
1056.2
1052.08
1047.95
1043.8
1039.64
1035.47
1031.3
1027.11
1022.9
1018.69
1014.47
1010.24
1006
1001.76
997.5
993.237
988.97
984.698
980.424
976.149
971.875
967.605
963.33
1141.95
1137.92
1133.89
1129.85
1125.8
1121.75
1117.69
1113.62
1109.55
1105.46
1101.37
1097.27
1093.16
1089.04
1084.92
1080.78
1076.64
1072.49
1068.32
1064.15
1059.97
1055.77
1051.57
1047.35
1043.13
1038.89
1034.64
1030.38
1026.12
1021.84
1017.55
1013.25
1008.94
1004.63
1000.3
995.974
991.639
987.3
982.958
978.615
974.273
969.934
965.601
961.264
1142.79
1138.69
1134.59
1130.48
1126.36
1122.23
1118.1
1113.95
1109.8
1105.65
1101.48
1097.31
1093.13
1088.94
1084.74
1080.53
1076.31
1072.08
1067.83
1063.58
1059.32
1055.05
1050.77
1046.47
1042.17
1037.85
1033.53
1029.19
1024.85
1020.49
1016.13
1011.76
1007.38
1002.99
998.593
994.193
989.788
985.381
980.972
976.564
972.16
967.759
963.367
958.973
1139.15
1134.97
1130.79
1126.6
1122.4
1118.2
1113.99
1109.77
1105.54
1101.3
1097.06
1092.8
1088.53
1084.26
1079.97
1075.67
1071.37
1067.05
1062.72
1058.38
1054.03
1049.68
1045.31
1040.93
1036.54
1032.14
1027.73
1023.31
1018.88
1014.45
1010
1005.55
1001.09
996.63
992.163
987.693
983.221
978.75
974.281
969.817
965.359
960.912
956.466
1139.29
1135.05
1130.8
1126.54
1122.28
1118
1113.72
1109.43
1105.13
1100.82
1096.5
1092.17
1087.83
1083.48
1079.12
1074.74
1070.36
1065.97
1061.57
1057.16
1052.74
1048.3
1043.86
1039.41
1034.95
1030.48
1026
1021.51
1017.01
1012.5
1007.99
1003.48
998.952
994.424
989.893
985.361
980.829
976.299
971.773
967.255
962.744
958.246
953.752
1139.14
1134.83
1130.51
1126.19
1121.85
1117.51
1113.15
1108.79
1104.42
1100.03
1095.64
1091.24
1086.82
1082.4
1077.97
1073.53
1069.07
1064.61
1060.14
1055.65
1051.16
1046.66
1042.14
1037.62
1033.09
1028.55
1024
1019.45
1014.88
1010.31
1005.74
1001.16
996.571
991.982
987.392
982.801
978.213
973.628
969.049
964.48
959.921
955.377
950.839
1134.3
1129.92
1125.52
1121.12
1116.7
1112.28
1107.85
1103.4
1098.95
1094.49
1090.01
1085.53
1081.04
1076.54
1072.02
1067.5
1062.97
1058.42
1053.87
1049.31
1044.74
1040.16
1035.57
1030.98
1026.37
1021.76
1017.14
1012.51
1007.88
1003.24
998.602
993.958
989.313
984.667
980.022
975.381
970.746
966.118
961.503
956.899
952.314
947.737
1133.47
1129.01
1124.55
1120.08
1115.6
1111.11
1106.61
1102.09
1097.57
1093.04
1088.5
1083.95
1079.39
1074.82
1070.24
1065.65
1061.05
1056.44
1051.83
1047.2
1042.56
1037.92
1033.27
1028.61
1023.94
1019.27
1014.59
1009.9
1005.21
1000.52
995.821
991.123
986.424
981.726
977.032
972.342
967.661
962.989
958.331
953.688
949.066
944.454
1132.33
1127.81
1123.28
1118.75
1114.2
1109.64
1105.07
1100.5
1095.91
1091.31
1086.71
1082.09
1077.47
1072.83
1068.19
1063.53
1058.87
1054.2
1049.52
1044.83