/*--------------------------------*- C++ -*----------------------------------*\
| =========                 |                                                 |
| \\      /  F ield         | OpenFOAM: The Open Source CFD Toolbox           |
|  \\    /   O peration     | Version:  v1706                                 |
|   \\  /    A nd           | Web:      www.OpenFOAM.com                      |
|    \\/     M anipulation  |                                                 |
\*---------------------------------------------------------------------------*/
FoamFile
{
    version     2.0;
    format      ascii;
    class       volScalarField;
    location    "4e-05";
    object      wallHeatFlux;
}
// * * * * * * * * * * * * * * * * * * * * * * * * * * * * * * * * * * * * * //

dimensions      [1 0 -3 0 0 0 0];


internalField   uniform 0;

boundaryField
{
    cone
    {
        type            calculated;
        value           nonuniform List<scalar> 
153
(
118979
117803
116633
115469
114310
113156
112007
110862
109723
108589
107460
106336
105217
104104
102997
101895
100800
99709.7
98625.9
97548.3
96477.1
95412.3
94354.1
93302.6
92258.1
91220.5
90190.2
89167.4
88152.2
87144.9
86145.9
85155.4
84173.8
83201.6
82239.3
81287.6
80347.1
79418.7
78503.3
77602.3
76716.7
75848.3
74998.4
74168.6
73360.1
72571.4
71801.6
71018
70275.4
69633.1
69037.7
68482.8
67960.5
67465.5
66994
66542.6
66109
65691.2
65287.7
64897
64518
64149.7
63791.3
63441.9
63100.9
62767.7
62441.7
62122.4
61809.3
61502.1
61200.3
60903.6
60611.6
60324.1
60040.7
59761.2
59485.2
59212.7
58943.2
58676.6
58412.8
58151.4
57892.3
57635.4
57380.3
57127.1
56875.4
56625.1
56376
56128.1
55881.4
55635.5
55390.4
55145.9
54901.9
54658.4
54415
54171.6
53928.4
53685
53441.5
53197.6
52953.4
52708.7
52463.4
52217.4
51970.7
51723.2
51474.8
51225.4
50974.9
50723.3
50470.6
50216.6
49961.3
49704.7
49446.7
49187.3
48926.3
48663.9
48399.9
48134.3
47867.2
47598.4
47328
47056
46782.3
46507
46230
45951.3
45671.1
45389.2
45105.7
44820.6
44533.9
44245.7
43956
43664.9
43372.3
43078.3
42783
42486.5
42188.6
41889.6
41589.5
41288.3
40986.1
40682.9
40378.9
40074.3
39769.5
39465
39158.5
)
;
    }
    inlet
    {
        type            calculated;
        value           uniform 0;
    }
    rWedge
    {
        type            wedge;
    }
    lWedge
    {
        type            wedge;
    }
    outlet
    {
        type            calculated;
        value           nonuniform 0();
    }
    procBoundary2to0
    {
        type            processor;
        value           uniform 0;
    }
    procBoundary2to1
    {
        type            processor;
        value           uniform 0;
    }
    procBoundary2to3
    {
        type            processor;
        value           uniform 0;
    }
}


// ************************************************************************* //
