/*--------------------------------*- C++ -*----------------------------------*\
| =========                 |                                                 |
| \\      /  F ield         | OpenFOAM: The Open Source CFD Toolbox           |
|  \\    /   O peration     | Version:  v1706                                 |
|   \\  /    A nd           | Web:      www.OpenFOAM.com                      |
|    \\/     M anipulation  |                                                 |
\*---------------------------------------------------------------------------*/
FoamFile
{
    version     2.0;
    format      ascii;
    class       volScalarField;
    location    "3.7e-05";
    object      alpha;
}
// * * * * * * * * * * * * * * * * * * * * * * * * * * * * * * * * * * * * * //

dimensions      [1 -1 -1 0 0 0 0];


internalField   nonuniform List<scalar> 
30104
(
1.40565e-05
1.40578e-05
1.40593e-05
1.40611e-05
1.40631e-05
1.40655e-05
1.40681e-05
1.40711e-05
1.40746e-05
1.40786e-05
1.40831e-05
1.40882e-05
1.40941e-05
1.41008e-05
1.41084e-05
1.4117e-05
1.41269e-05
1.67861e-05
1.67272e-05
1.66677e-05
1.66076e-05
1.65467e-05
1.64847e-05
1.64212e-05
1.63562e-05
1.62891e-05
1.62197e-05
1.61477e-05
1.60729e-05
1.59952e-05
1.59145e-05
1.58309e-05
1.57444e-05
1.5657e-05
1.55828e-05
1.55249e-05
1.54731e-05
1.54214e-05
1.53676e-05
1.53109e-05
1.52515e-05
1.51894e-05
1.5125e-05
1.50587e-05
1.49908e-05
1.49219e-05
1.48522e-05
1.47823e-05
1.47126e-05
1.46433e-05
1.45764e-05
1.45158e-05
1.44641e-05
1.44201e-05
1.43808e-05
1.43437e-05
1.43078e-05
1.42732e-05
1.42403e-05
1.42098e-05
1.41827e-05
1.416e-05
1.41417e-05
1.41268e-05
1.41143e-05
1.41033e-05
1.40937e-05
1.40854e-05
1.40786e-05
1.40732e-05
1.40687e-05
1.40651e-05
1.4062e-05
1.40593e-05
1.40571e-05
1.40552e-05
1.40536e-05
1.40524e-05
1.40515e-05
1.40507e-05
1.40501e-05
1.40496e-05
1.40493e-05
1.40489e-05
1.40487e-05
1.40485e-05
1.40484e-05
1.40482e-05
1.40481e-05
1.4048e-05
1.4048e-05
1.40479e-05
1.40479e-05
1.40479e-05
1.40479e-05
1.40478e-05
1.40478e-05
1.40478e-05
1.40478e-05
1.40478e-05
1.40478e-05
1.40478e-05
1.40478e-05
1.40478e-05
1.40478e-05
1.40478e-05
1.40478e-05
1.40478e-05
1.40478e-05
1.40478e-05
1.40478e-05
1.40478e-05
1.40478e-05
1.40478e-05
1.40478e-05
1.40478e-05
1.40478e-05
1.40478e-05
1.40478e-05
1.40478e-05
1.40478e-05
1.40478e-05
1.40478e-05
1.40478e-05
1.40478e-05
1.40478e-05
1.40478e-05
1.40478e-05
1.40478e-05
1.40478e-05
1.40478e-05
1.40478e-05
1.40478e-05
1.40478e-05
1.40478e-05
1.40478e-05
1.40478e-05
1.40478e-05
1.40478e-05
1.40478e-05
1.40478e-05
1.40478e-05
1.40478e-05
1.40478e-05
1.40478e-05
1.40478e-05
1.40478e-05
1.40478e-05
1.40478e-05
1.40478e-05
1.40478e-05
1.40478e-05
1.40478e-05
1.40478e-05
1.40478e-05
1.40478e-05
1.40478e-05
1.40478e-05
1.40478e-05
1.40478e-05
1.40478e-05
1.40478e-05
1.40478e-05
1.40478e-05
1.40478e-05
1.40478e-05
1.40478e-05
1.40478e-05
1.40478e-05
1.40478e-05
1.40478e-05
1.40478e-05
1.40478e-05
1.40478e-05
1.40478e-05
1.40478e-05
1.40478e-05
1.40478e-05
1.40478e-05
1.40478e-05
1.40478e-05
1.40478e-05
1.40478e-05
1.40478e-05
1.40478e-05
1.40478e-05
1.40478e-05
1.40478e-05
1.40478e-05
1.40478e-05
1.40478e-05
1.40478e-05
1.40478e-05
1.40478e-05
1.40478e-05
1.40478e-05
1.40478e-05
1.40478e-05
1.40478e-05
1.40478e-05
1.40478e-05
1.40478e-05
1.40478e-05
1.40478e-05
1.40478e-05
1.40478e-05
1.40478e-05
1.40478e-05
1.40478e-05
1.40478e-05
1.41016e-05
1.41098e-05
1.41193e-05
1.41302e-05
1.41427e-05
1.4157e-05
1.41733e-05
1.41919e-05
1.42132e-05
1.42376e-05
1.42656e-05
1.42975e-05
1.43337e-05
1.43745e-05
1.44204e-05
1.44718e-05
1.45298e-05
2.10325e-05
2.10038e-05
2.09752e-05
2.09468e-05
2.09185e-05
2.08902e-05
2.08621e-05
2.08342e-05
2.08066e-05
2.07794e-05
2.07527e-05
2.07261e-05
2.06991e-05
2.0671e-05
2.06407e-05
2.06072e-05
2.05686e-05
2.05184e-05
2.0451e-05
2.03646e-05
2.02594e-05
2.01367e-05
1.99973e-05
1.98414e-05
1.96679e-05
1.94754e-05
1.92632e-05
1.90319e-05
1.87827e-05
1.85167e-05
1.82345e-05
1.79361e-05
1.7622e-05
1.72952e-05
1.69663e-05
1.66681e-05
1.64223e-05
1.62057e-05
1.60006e-05
1.5799e-05
1.55992e-05
1.54028e-05
1.52147e-05
1.50428e-05
1.48943e-05
1.47714e-05
1.46682e-05
1.45778e-05
1.44965e-05
1.44231e-05
1.43578e-05
1.43018e-05
1.42557e-05
1.42188e-05
1.41889e-05
1.41638e-05
1.41425e-05
1.41244e-05
1.41094e-05
1.40974e-05
1.40879e-05
1.40802e-05
1.40739e-05
1.40686e-05
1.40643e-05
1.40608e-05
1.4058e-05
1.40558e-05
1.40541e-05
1.40528e-05
1.40517e-05
1.40508e-05
1.40501e-05
1.40496e-05
1.40492e-05
1.40489e-05
1.40486e-05
1.40484e-05
1.40483e-05
1.40482e-05
1.40481e-05
1.4048e-05
1.40479e-05
1.40479e-05
1.40479e-05
1.40479e-05
1.40478e-05
1.40478e-05
1.40478e-05
1.40478e-05
1.40478e-05
1.40478e-05
1.40478e-05
1.40478e-05
1.40478e-05
1.40478e-05
1.40478e-05
1.40478e-05
1.40478e-05
1.40478e-05
1.40478e-05
1.40478e-05
1.40478e-05
1.40478e-05
1.40478e-05
1.40478e-05
1.40478e-05
1.40478e-05
1.40478e-05
1.40478e-05
1.40478e-05
1.40478e-05
1.40478e-05
1.40478e-05
1.40478e-05
1.40478e-05
1.40478e-05
1.40478e-05
1.40478e-05
1.40478e-05
1.40478e-05
1.40478e-05
1.40478e-05
1.40478e-05
1.40478e-05
1.40478e-05
1.40478e-05
1.40478e-05
1.40478e-05
1.40478e-05
1.40478e-05
1.40478e-05
1.40478e-05
1.40478e-05
1.40478e-05
1.40478e-05
1.40478e-05
1.40478e-05
1.40478e-05
1.40478e-05
1.40478e-05
1.40478e-05
1.40478e-05
1.40478e-05
1.40478e-05
1.40478e-05
1.40478e-05
1.40478e-05
1.40478e-05
1.40478e-05
1.40478e-05
1.40478e-05
1.40478e-05
1.40478e-05
1.40478e-05
1.40478e-05
1.40478e-05
1.40478e-05
1.40478e-05
1.40478e-05
1.40478e-05
1.40478e-05
1.40478e-05
1.40478e-05
1.40478e-05
1.40478e-05
1.40478e-05
1.40478e-05
1.40478e-05
1.40478e-05
1.40478e-05
1.40478e-05
1.40478e-05
1.40478e-05
1.40478e-05
1.40478e-05
1.40478e-05
1.40478e-05
1.40478e-05
1.40478e-05
1.40478e-05
1.40478e-05
1.40478e-05
1.40478e-05
1.40478e-05
1.40478e-05
1.40478e-05
1.40478e-05
1.40478e-05
1.40478e-05
1.40478e-05
1.40478e-05
1.40478e-05
1.42434e-05
1.42732e-05
1.43075e-05
1.43467e-05
1.43915e-05
1.44423e-05
1.44997e-05
1.45647e-05
1.46383e-05
1.47221e-05
1.48173e-05
1.49251e-05
1.50463e-05
1.51812e-05
1.53304e-05
1.54951e-05
2.17428e-05
2.17245e-05
2.17066e-05
2.16891e-05
2.16719e-05
2.16551e-05
2.16385e-05
2.16224e-05
2.16071e-05
2.15934e-05
2.15821e-05
2.15739e-05
2.1571e-05
2.15718e-05
2.15761e-05
2.15841e-05
2.1595e-05
2.16072e-05
2.16191e-05
2.1628e-05
2.1629e-05
2.1626e-05
2.16167e-05
2.15993e-05
2.15747e-05
2.15453e-05
2.15126e-05
2.14765e-05
2.14346e-05
2.13842e-05
2.13216e-05
2.1243e-05
2.11437e-05
2.10177e-05
2.08568e-05
2.06503e-05
2.03939e-05
2.0093e-05
1.97529e-05
1.93767e-05
1.8966e-05
1.85233e-05
1.80544e-05
1.75738e-05
1.71135e-05
1.67294e-05
1.64092e-05
1.61223e-05
1.58525e-05
1.55957e-05
1.53559e-05
1.51416e-05
1.49605e-05
1.48134e-05
1.46915e-05
1.45863e-05
1.44936e-05
1.44121e-05
1.43424e-05
1.42852e-05
1.424e-05
1.4204e-05
1.41745e-05
1.41498e-05
1.41292e-05
1.41124e-05
1.40991e-05
1.40887e-05
1.40804e-05
1.40737e-05
1.40682e-05
1.40637e-05
1.40601e-05
1.40574e-05
1.40553e-05
1.40536e-05
1.40523e-05
1.40513e-05
1.40505e-05
1.40498e-05
1.40494e-05
1.4049e-05
1.40487e-05
1.40485e-05
1.40483e-05
1.40482e-05
1.40481e-05
1.4048e-05
1.4048e-05
1.40479e-05
1.40479e-05
1.40479e-05
1.40478e-05
1.40478e-05
1.40478e-05
1.40478e-05
1.40478e-05
1.40478e-05
1.40478e-05
1.40478e-05
1.40478e-05
1.40478e-05
1.40478e-05
1.40478e-05
1.40478e-05
1.40478e-05
1.40478e-05
1.40478e-05
1.40478e-05
1.40478e-05
1.40478e-05
1.40478e-05
1.40478e-05
1.40478e-05
1.40478e-05
1.40478e-05
1.40478e-05
1.40478e-05
1.40478e-05
1.40478e-05
1.40478e-05
1.40478e-05
1.40478e-05
1.40478e-05
1.40478e-05
1.40478e-05
1.40478e-05
1.40478e-05
1.40478e-05
1.40478e-05
1.40478e-05
1.40478e-05
1.40478e-05
1.40478e-05
1.40478e-05
1.40478e-05
1.40478e-05
1.40478e-05
1.40478e-05
1.40478e-05
1.40478e-05
1.40478e-05
1.40478e-05
1.40478e-05
1.40478e-05
1.40478e-05
1.40478e-05
1.40478e-05
1.40478e-05
1.40478e-05
1.40478e-05
1.40478e-05
1.40478e-05
1.40478e-05
1.40478e-05
1.40478e-05
1.40478e-05
1.40478e-05
1.40478e-05
1.40478e-05
1.40478e-05
1.40478e-05
1.40478e-05
1.40478e-05
1.40478e-05
1.40478e-05
1.40478e-05
1.40478e-05
1.40478e-05
1.40478e-05
1.40478e-05
1.40478e-05
1.40478e-05
1.40478e-05
1.40478e-05
1.40478e-05
1.40478e-05
1.40478e-05
1.40478e-05
1.40478e-05
1.40478e-05
1.40478e-05
1.40478e-05
1.40478e-05
1.40478e-05
1.40478e-05
1.40478e-05
1.40478e-05
1.40478e-05
1.40478e-05
1.40478e-05
1.40478e-05
1.40478e-05
1.46854e-05
1.47786e-05
1.48847e-05
1.50051e-05
1.51406e-05
1.52921e-05
1.54604e-05
1.56471e-05
1.58551e-05
1.60872e-05
1.63444e-05
1.66258e-05
1.69296e-05
1.72529e-05
1.75933e-05
1.79499e-05
2.19094e-05
2.18905e-05
2.18727e-05
2.1856e-05
2.18404e-05
2.1826e-05
2.18126e-05
2.18003e-05
2.17892e-05
2.17794e-05
2.17714e-05
2.17665e-05
2.17665e-05
2.1769e-05
2.17758e-05
2.17873e-05
2.18034e-05
2.18231e-05
2.18453e-05
2.1868e-05
2.18888e-05
2.19066e-05
2.19208e-05
2.19312e-05
2.19356e-05
2.19357e-05
2.19352e-05
2.19347e-05
2.19341e-05
2.1933e-05
2.19303e-05
2.19244e-05
2.19142e-05
2.18994e-05
2.18803e-05
2.18585e-05
2.18342e-05
2.18045e-05
2.17645e-05
2.17082e-05
2.16289e-05
2.15186e-05
2.13702e-05
2.11756e-05
2.09244e-05
2.06061e-05
2.02262e-05
1.97945e-05
1.93174e-05
1.88e-05
1.82515e-05
1.76923e-05
1.71651e-05
1.67336e-05
1.6378e-05
1.60609e-05
1.57652e-05
1.54895e-05
1.52416e-05
1.50307e-05
1.48602e-05
1.47225e-05
1.46063e-05
1.45051e-05
1.44171e-05
1.43426e-05
1.42824e-05
1.42354e-05
1.41985e-05
1.41686e-05
1.41438e-05
1.41234e-05
1.41072e-05
1.40946e-05
1.40848e-05
1.40771e-05
1.40708e-05
1.40657e-05
1.40616e-05
1.40584e-05
1.4056e-05
1.40542e-05
1.40527e-05
1.40516e-05
1.40507e-05
1.405e-05
1.40495e-05
1.40491e-05
1.40488e-05
1.40486e-05
1.40484e-05
1.40482e-05
1.40481e-05
1.4048e-05
1.4048e-05
1.40479e-05
1.40479e-05
1.40479e-05
1.40479e-05
1.40478e-05
1.40478e-05
1.40478e-05
1.40478e-05
1.40478e-05
1.40478e-05
1.40478e-05
1.40478e-05
1.40478e-05
1.40478e-05
1.40478e-05
1.40478e-05
1.40478e-05
1.40478e-05
1.40478e-05
1.40478e-05
1.40478e-05
1.40478e-05
1.40478e-05
1.40478e-05
1.40478e-05
1.40478e-05
1.40478e-05
1.40478e-05
1.40478e-05
1.40478e-05
1.40478e-05
1.40478e-05
1.40478e-05
1.40478e-05
1.40478e-05
1.40478e-05
1.40478e-05
1.40478e-05
1.40478e-05
1.40478e-05
1.40478e-05
1.40478e-05
1.40478e-05
1.40478e-05
1.40478e-05
1.40478e-05
1.40478e-05
1.40478e-05
1.40478e-05
1.40478e-05
1.40478e-05
1.40478e-05
1.40478e-05
1.40478e-05
1.40478e-05
1.40478e-05
1.40478e-05
1.40478e-05
1.40478e-05
1.40478e-05
1.40478e-05
1.40478e-05
1.40478e-05
1.40478e-05
1.40478e-05
1.40478e-05
1.40478e-05
1.40478e-05
1.40478e-05
1.40478e-05
1.40478e-05
1.40478e-05
1.40478e-05
1.40478e-05
1.40478e-05
1.40478e-05
1.40478e-05
1.40478e-05
1.40478e-05
1.40478e-05
1.40478e-05
1.40478e-05
1.40478e-05
1.40478e-05
1.40478e-05
1.40478e-05
1.40478e-05
1.40478e-05
1.40478e-05
1.40478e-05
1.40478e-05
1.40478e-05
1.40478e-05
1.40478e-05
1.40478e-05
1.40478e-05
1.40478e-05
1.40478e-05
1.59249e-05
1.61717e-05
1.64455e-05
1.67454e-05
1.70695e-05
1.74149e-05
1.77794e-05
1.81624e-05
1.85731e-05
1.90219e-05
1.95038e-05
2.00082e-05
2.05214e-05
2.10297e-05
2.15208e-05
2.2044e-05
2.20235e-05
2.20044e-05
2.19868e-05
2.19708e-05
2.19564e-05
2.19436e-05
2.19322e-05
2.19222e-05
2.19136e-05
2.19064e-05
2.19016e-05
2.19008e-05
2.19021e-05
2.19066e-05
2.19155e-05
2.19288e-05
2.1946e-05
2.19662e-05
2.1988e-05
2.20097e-05
2.20296e-05
2.20476e-05
2.20632e-05
2.20756e-05
2.20853e-05
2.20927e-05
2.20987e-05
2.21042e-05
2.21097e-05
2.2115e-05
2.21202e-05
2.21246e-05
2.21276e-05
2.213e-05
2.2133e-05
2.21374e-05
2.21431e-05
2.21489e-05
2.21526e-05
2.21528e-05
2.21509e-05
2.21462e-05
2.21369e-05
2.21214e-05
2.20974e-05
2.20596e-05
2.19994e-05
2.19065e-05
2.17722e-05
2.15897e-05
2.13527e-05
2.10523e-05
2.06799e-05
2.02419e-05
1.97461e-05
1.91981e-05
1.86069e-05
1.7993e-05
1.73965e-05
1.68872e-05
1.64833e-05
1.6135e-05
1.58144e-05
1.55177e-05
1.52528e-05
1.50293e-05
1.48506e-05
1.47078e-05
1.45884e-05
1.44852e-05
1.43966e-05
1.43231e-05
1.42651e-05
1.42207e-05
1.41859e-05
1.41576e-05
1.41343e-05
1.41155e-05
1.41008e-05
1.40895e-05
1.40807e-05
1.40736e-05
1.40679e-05
1.40633e-05
1.40597e-05
1.40569e-05
1.40549e-05
1.40533e-05
1.4052e-05
1.4051e-05
1.40503e-05
1.40497e-05
1.40493e-05
1.40489e-05
1.40487e-05
1.40485e-05
1.40483e-05
1.40482e-05
1.40481e-05
1.4048e-05
1.4048e-05
1.4048e-05
1.40479e-05
1.40479e-05
1.40479e-05
1.40479e-05
1.40478e-05
1.40478e-05
1.40478e-05
1.40478e-05
1.40478e-05
1.40478e-05
1.40478e-05
1.40478e-05
1.40478e-05
1.40478e-05
1.40478e-05
1.40478e-05
1.40478e-05
1.40478e-05
1.40478e-05
1.40478e-05
1.40478e-05
1.40478e-05
1.40478e-05
1.40478e-05
1.40478e-05
1.40478e-05
1.40478e-05
1.40478e-05
1.40478e-05
1.40478e-05
1.40478e-05
1.40478e-05
1.40478e-05
1.40478e-05
1.40478e-05
1.40478e-05
1.40478e-05
1.40478e-05
1.40478e-05
1.40478e-05
1.40478e-05
1.40478e-05
1.40478e-05
1.40478e-05
1.40478e-05
1.40478e-05
1.40478e-05
1.40478e-05
1.40478e-05
1.40478e-05
1.40478e-05
1.40478e-05
1.40478e-05
1.40478e-05
1.40478e-05
1.40478e-05
1.40478e-05
1.40478e-05
1.40478e-05
1.40478e-05
1.40478e-05
1.40478e-05
1.40478e-05
1.40478e-05
1.40478e-05
1.40478e-05
1.40478e-05
1.40478e-05
1.40478e-05
1.40478e-05
1.40478e-05
1.40478e-05
1.40478e-05
1.40479e-05
1.40479e-05
1.40479e-05
1.40479e-05
1.40479e-05
1.40479e-05
1.40479e-05
1.40479e-05
1.40479e-05
1.40479e-05
1.40479e-05
1.40479e-05
1.40479e-05
1.40479e-05
1.40479e-05
1.40479e-05
1.40479e-05
1.82078e-05
1.86326e-05
1.90941e-05
1.95886e-05
2.01062e-05
2.06337e-05
2.11571e-05
2.16631e-05
2.21406e-05
2.25787e-05
2.29701e-05
2.33138e-05
2.36113e-05
2.3866e-05
2.40819e-05
2.42637e-05
2.21866e-05
2.21636e-05
2.21423e-05
2.2123e-05
2.21057e-05
2.20905e-05
2.20776e-05
2.20668e-05
2.2058e-05
2.2051e-05
2.20459e-05
2.20437e-05
2.2044e-05
2.2046e-05
2.20506e-05
2.20582e-05
2.2069e-05
2.20826e-05
2.20987e-05
2.21164e-05
2.21346e-05
2.21521e-05
2.21683e-05
2.21826e-05
2.21948e-05
2.22048e-05
2.22138e-05
2.22207e-05
2.22263e-05
2.22311e-05
2.22353e-05
2.22399e-05
2.22453e-05
2.22516e-05
2.22584e-05
2.2265e-05
2.22724e-05
2.22814e-05
2.22923e-05
2.23041e-05
2.23168e-05
2.23323e-05
2.23444e-05
2.23554e-05
2.23677e-05
2.23807e-05
2.23923e-05
2.23994e-05
2.24005e-05
2.2399e-05
2.23933e-05
2.23813e-05
2.2361e-05
2.2328e-05
2.22732e-05
2.2185e-05
2.20532e-05
2.18708e-05
2.16324e-05
2.13306e-05
2.09543e-05
2.05012e-05
1.99784e-05
1.9393e-05
1.87574e-05
1.80968e-05
1.7456e-05
1.69084e-05
1.64815e-05
1.61163e-05
1.5782e-05
1.54762e-05
1.52084e-05
1.4987e-05
1.48127e-05
1.46739e-05
1.45573e-05
1.44567e-05
1.43713e-05
1.43019e-05
1.42481e-05
1.42072e-05
1.41748e-05
1.41482e-05
1.41264e-05
1.41091e-05
1.40957e-05
1.40854e-05
1.40773e-05
1.40709e-05
1.40656e-05
1.40615e-05
1.40583e-05
1.4056e-05
1.40542e-05
1.40528e-05
1.40517e-05
1.40508e-05
1.40502e-05
1.40497e-05
1.40493e-05
1.4049e-05
1.40487e-05
1.40485e-05
1.40484e-05
1.40483e-05
1.40482e-05
1.40481e-05
1.4048e-05
1.4048e-05
1.4048e-05
1.40479e-05
1.40479e-05
1.40479e-05
1.40479e-05
1.40479e-05
1.40478e-05
1.40478e-05
1.40478e-05
1.40478e-05
1.40478e-05
1.40478e-05
1.40478e-05
1.40478e-05
1.40478e-05
1.40478e-05
1.40478e-05
1.40478e-05
1.40478e-05
1.40478e-05
1.40478e-05
1.40478e-05
1.40478e-05
1.40478e-05
1.40478e-05
1.40478e-05
1.40478e-05
1.40478e-05
1.40478e-05
1.40478e-05
1.40478e-05
1.40478e-05
1.40478e-05
1.40478e-05
1.40479e-05
1.40479e-05
1.40479e-05
1.40479e-05
1.40479e-05
1.40479e-05
1.40479e-05
1.40479e-05
1.40479e-05
1.40479e-05
1.40479e-05
1.40479e-05
1.40479e-05
1.40479e-05
1.40479e-05
1.40479e-05
1.40479e-05
1.40479e-05
1.40479e-05
1.40479e-05
1.40479e-05
1.40479e-05
1.40479e-05
1.40479e-05
1.4048e-05
1.4048e-05
1.4048e-05
1.4048e-05
1.4048e-05
1.4048e-05
1.4048e-05
1.4048e-05
1.4048e-05
1.4048e-05
1.4048e-05
1.40481e-05
1.40481e-05
1.40481e-05
1.40481e-05
1.40481e-05
1.40481e-05
1.40481e-05
1.40481e-05
1.40482e-05
1.40482e-05
1.40482e-05
1.40482e-05
1.40482e-05
1.40482e-05
2.21133e-05
2.25774e-05
2.29946e-05
2.33625e-05
2.36817e-05
2.39549e-05
2.41863e-05
2.43806e-05
2.45423e-05
2.46758e-05
2.47849e-05
2.48731e-05
2.49432e-05
2.23823e-05
2.23567e-05
2.23329e-05
2.23111e-05
2.22915e-05
2.22743e-05
2.22595e-05
2.22473e-05
2.22376e-05
2.22301e-05
2.22247e-05
2.22221e-05
2.22221e-05
2.22233e-05
2.22263e-05
2.22314e-05
2.22386e-05
2.22478e-05
2.22586e-05
2.22705e-05
2.22832e-05
2.22959e-05
2.23076e-05
2.23177e-05
2.23256e-05
2.23327e-05
2.23398e-05
2.23452e-05
2.23493e-05
2.23519e-05
2.2354e-05
2.23568e-05
2.23605e-05
2.23652e-05
2.23705e-05
2.23763e-05
2.23827e-05
2.23904e-05
2.23995e-05
2.24094e-05
2.2421e-05
2.24339e-05
2.24455e-05
2.24571e-05
2.24703e-05
2.24854e-05
2.25019e-05
2.25186e-05
2.25354e-05
2.25537e-05
2.25703e-05
2.25855e-05
2.26006e-05
2.2615e-05
2.26271e-05
2.26355e-05
2.26382e-05
2.26368e-05
2.26302e-05
2.26134e-05
2.25806e-05
2.25229e-05
2.24289e-05
2.22886e-05
2.20954e-05
2.18446e-05
2.15278e-05
2.11307e-05
2.06467e-05
2.00836e-05
1.94524e-05
1.87721e-05
1.80748e-05
1.74126e-05
1.68623e-05
1.64376e-05
1.60709e-05
1.57344e-05
1.54297e-05
1.5167e-05
1.49526e-05
1.47848e-05
1.46505e-05
1.45363e-05
1.44374e-05
1.43541e-05
1.42874e-05
1.42363e-05
1.41973e-05
1.41663e-05
1.4141e-05
1.41205e-05
1.41045e-05
1.40922e-05
1.40827e-05
1.40754e-05
1.40694e-05
1.40646e-05
1.40609e-05
1.40581e-05
1.40559e-05
1.40543e-05
1.40529e-05
1.40519e-05
1.40511e-05
1.40504e-05
1.40499e-05
1.40495e-05
1.40492e-05
1.40489e-05
1.40487e-05
1.40485e-05
1.40484e-05
1.40483e-05
1.40482e-05
1.40481e-05
1.40481e-05
1.4048e-05
1.4048e-05
1.4048e-05
1.4048e-05
1.40479e-05
1.40479e-05
1.40479e-05
1.40479e-05
1.40479e-05
1.40479e-05
1.40479e-05
1.40479e-05
1.40479e-05
1.40479e-05
1.40479e-05
1.40479e-05
1.40479e-05
1.40479e-05
1.40479e-05
1.4048e-05
1.4048e-05
1.4048e-05
1.4048e-05
1.4048e-05
1.4048e-05
1.4048e-05
1.4048e-05
1.4048e-05
1.4048e-05
1.4048e-05
1.4048e-05
1.4048e-05
1.40481e-05
1.40481e-05
1.40481e-05
1.40481e-05
1.40481e-05
1.40481e-05
1.40481e-05
1.40481e-05
1.40482e-05
1.40482e-05
1.40482e-05
1.40482e-05
1.40482e-05
1.40482e-05
1.40483e-05
1.40483e-05
1.40483e-05
1.40483e-05
1.40484e-05
1.40484e-05
1.40484e-05
1.40484e-05
1.40485e-05
1.40485e-05
1.40485e-05
1.40486e-05
1.40486e-05
1.40486e-05
1.40487e-05
1.40487e-05
1.40487e-05
1.40488e-05
1.40488e-05
1.40489e-05
1.40489e-05
1.4049e-05
1.40491e-05
1.40491e-05
1.40492e-05
1.40493e-05
1.40493e-05
1.40494e-05
1.40495e-05
1.40494e-05
2.46104e-05
2.47617e-05
2.48853e-05
2.49853e-05
2.50652e-05
2.5128e-05
2.51762e-05
2.5213e-05
2.52422e-05
2.52663e-05
2.52866e-05
2.53034e-05
2.53168e-05
2.26212e-05
2.25932e-05
2.25671e-05
2.25429e-05
2.25209e-05
2.25012e-05
2.24839e-05
2.24693e-05
2.24572e-05
2.24476e-05
2.24405e-05
2.24357e-05
2.24328e-05
2.24325e-05
2.2433e-05
2.24345e-05
2.24372e-05
2.24414e-05
2.24463e-05
2.24517e-05
2.24576e-05
2.2464e-05
2.24697e-05
2.2474e-05
2.24761e-05
2.24793e-05
2.24826e-05
2.24845e-05
2.24851e-05
2.24848e-05
2.2484e-05
2.2484e-05
2.24845e-05
2.24857e-05
2.24875e-05
2.24903e-05
2.24937e-05
2.2498e-05
2.25031e-05
2.2509e-05
2.25162e-05
2.25242e-05
2.25329e-05
2.25424e-05
2.25532e-05
2.25657e-05
2.25795e-05
2.25943e-05
2.261e-05
2.26266e-05
2.26439e-05
2.26623e-05
2.26823e-05
2.27043e-05
2.27276e-05
2.27513e-05
2.27752e-05
2.27984e-05
2.28197e-05
2.28397e-05
2.2858e-05
2.28741e-05
2.2888e-05
2.28979e-05
2.29002e-05
2.28974e-05
2.28842e-05
2.28509e-05
2.27875e-05
2.26842e-05
2.25326e-05
2.23268e-05
2.20613e-05
2.17248e-05
2.13007e-05
2.07841e-05
2.01863e-05
1.95218e-05
1.88123e-05
1.80937e-05
1.74216e-05
1.68695e-05
1.64465e-05
1.60765e-05
1.57341e-05
1.54246e-05
1.51588e-05
1.49424e-05
1.4773e-05
1.46375e-05
1.45222e-05
1.4423e-05
1.43409e-05
1.42766e-05
1.42279e-05
1.41909e-05
1.41616e-05
1.41378e-05
1.41186e-05
1.41036e-05
1.40921e-05
1.40832e-05
1.40762e-05
1.40704e-05
1.40658e-05
1.40621e-05
1.40592e-05
1.4057e-05
1.40553e-05
1.40538e-05
1.40527e-05
1.40517e-05
1.4051e-05
1.40504e-05
1.40499e-05
1.40495e-05
1.40492e-05
1.4049e-05
1.40488e-05
1.40486e-05
1.40485e-05
1.40484e-05
1.40484e-05
1.40483e-05
1.40483e-05
1.40483e-05
1.40483e-05
1.40483e-05
1.40483e-05
1.40483e-05
1.40483e-05
1.40483e-05
1.40483e-05
1.40483e-05
1.40483e-05
1.40483e-05
1.40483e-05
1.40484e-05
1.40484e-05
1.40484e-05
1.40484e-05
1.40485e-05
1.40485e-05
1.40485e-05
1.40485e-05
1.40486e-05
1.40486e-05
1.40486e-05
1.40487e-05
1.40487e-05
1.40487e-05
1.40488e-05
1.40488e-05
1.40489e-05
1.40489e-05
1.40489e-05
1.4049e-05
1.40491e-05
1.40491e-05
1.40492e-05
1.40492e-05
1.40493e-05
1.40494e-05
1.40494e-05
1.40495e-05
1.40496e-05
1.40497e-05
1.40498e-05
1.40498e-05
1.40499e-05
1.405e-05
1.40502e-05
1.40503e-05
1.40504e-05
1.40505e-05
1.40506e-05
1.40508e-05
1.40509e-05
1.40511e-05
1.40512e-05
1.40514e-05
1.40516e-05
1.40517e-05
1.40519e-05
1.40522e-05
1.40524e-05
1.40526e-05
1.40528e-05
1.40531e-05
1.40534e-05
1.40537e-05
1.4054e-05
1.40538e-05
2.53428e-05
2.53779e-05
2.54061e-05
2.54293e-05
2.54484e-05
2.54638e-05
2.54753e-05
2.54824e-05
2.54846e-05
2.54838e-05
2.54818e-05
2.54789e-05
2.5476e-05
2.54735e-05
2.28903e-05
2.28603e-05
2.28322e-05
2.28059e-05
2.27815e-05
2.27594e-05
2.27395e-05
2.2722e-05
2.27069e-05
2.26943e-05
2.26841e-05
2.2676e-05
2.26693e-05
2.26648e-05
2.26619e-05
2.2659e-05
2.26564e-05
2.2655e-05
2.26542e-05
2.26528e-05
2.26514e-05
2.26512e-05
2.26506e-05
2.26485e-05
2.26452e-05
2.26435e-05
2.26416e-05
2.2639e-05
2.26354e-05
2.26313e-05
2.26271e-05
2.26229e-05
2.26193e-05
2.26166e-05
2.26145e-05
2.26131e-05
2.26122e-05
2.26121e-05
2.26125e-05
2.26136e-05
2.26156e-05
2.26185e-05
2.26227e-05
2.2628e-05
2.26346e-05
2.26426e-05
2.26519e-05
2.26626e-05
2.26749e-05
2.26887e-05
2.27044e-05
2.27218e-05
2.27412e-05
2.27625e-05
2.27854e-05
2.28093e-05
2.28342e-05
2.286e-05
2.28866e-05
2.29144e-05
2.29438e-05
2.29745e-05
2.30061e-05
2.30377e-05
2.30684e-05
2.3096e-05
2.31224e-05
2.31483e-05
2.31746e-05
2.32008e-05
2.32232e-05
2.32376e-05
2.32408e-05
2.32339e-05
2.32049e-05
2.31418e-05
2.30372e-05
2.28843e-05
2.26755e-05
2.24012e-05
2.20492e-05
2.16062e-05
2.10682e-05
2.04458e-05
1.97505e-05
1.90036e-05
1.82448e-05
1.75345e-05
1.69446e-05
1.64964e-05
1.61066e-05
1.57471e-05
1.5425e-05
1.51519e-05
1.49326e-05
1.47628e-05
1.4628e-05
1.45143e-05
1.44176e-05
1.43386e-05
1.4277e-05
1.42304e-05
1.41947e-05
1.41664e-05
1.41431e-05
1.41242e-05
1.41091e-05
1.40973e-05
1.40879e-05
1.40804e-05
1.40742e-05
1.40691e-05
1.40648e-05
1.40614e-05
1.40587e-05
1.40566e-05
1.4055e-05
1.40536e-05
1.40526e-05
1.40518e-05
1.40511e-05
1.40506e-05
1.40503e-05
1.405e-05
1.40498e-05
1.40496e-05
1.40495e-05
1.40494e-05
1.40494e-05
1.40494e-05
1.40494e-05
1.40494e-05
1.40494e-05
1.40495e-05
1.40495e-05
1.40496e-05
1.40496e-05
1.40497e-05
1.40498e-05
1.40498e-05
1.40499e-05
1.405e-05
1.40501e-05
1.40502e-05
1.40503e-05
1.40504e-05
1.40505e-05
1.40506e-05
1.40507e-05
1.40508e-05
1.4051e-05
1.40511e-05
1.40512e-05
1.40514e-05
1.40516e-05
1.40517e-05
1.40519e-05
1.40521e-05
1.40523e-05
1.40525e-05
1.40527e-05
1.40529e-05
1.40532e-05
1.40534e-05
1.40537e-05
1.4054e-05
1.40543e-05
1.40546e-05
1.40549e-05
1.40552e-05
1.40556e-05
1.4056e-05
1.40564e-05
1.40568e-05
1.40572e-05
1.40577e-05
1.40582e-05
1.40587e-05
1.40592e-05
1.40598e-05
1.40604e-05
1.4061e-05
1.40617e-05
1.40624e-05
1.40632e-05
1.4064e-05
1.40648e-05
1.40658e-05
1.40667e-05
1.40678e-05
1.40688e-05
1.40701e-05
1.40694e-05
2.56401e-05
2.56405e-05
2.56393e-05
2.56368e-05
2.56336e-05
2.56309e-05
2.56284e-05
2.56277e-05
2.56271e-05
2.56245e-05
2.56198e-05
2.56129e-05
2.56045e-05
2.55959e-05
2.31756e-05
2.31439e-05
2.31141e-05
2.30858e-05
2.30593e-05
2.30349e-05
2.30124e-05
2.29921e-05
2.29739e-05
2.29575e-05
2.29437e-05
2.29319e-05
2.29205e-05
2.29106e-05
2.29034e-05
2.2896e-05
2.28874e-05
2.288e-05
2.28738e-05
2.28662e-05
2.28579e-05
2.28514e-05
2.28446e-05
2.28361e-05
2.2828e-05
2.28207e-05
2.28134e-05
2.28057e-05
2.27976e-05
2.27892e-05
2.27809e-05
2.27727e-05
2.27648e-05
2.27576e-05
2.2751e-05
2.2745e-05
2.27395e-05
2.27345e-05
2.273e-05
2.2726e-05
2.27229e-05
2.27205e-05
2.27197e-05
2.27201e-05
2.27215e-05
2.27244e-05
2.27289e-05
2.27351e-05
2.27431e-05
2.27531e-05
2.27653e-05
2.27796e-05
2.27962e-05
2.28147e-05
2.28351e-05
2.28573e-05
2.28813e-05
2.29071e-05
2.29345e-05
2.29638e-05
2.2995e-05
2.30278e-05
2.30616e-05
2.30961e-05
2.31315e-05
2.31675e-05
2.32052e-05
2.32455e-05
2.3289e-05
2.33337e-05
2.33782e-05
2.34214e-05
2.34612e-05
2.35029e-05
2.35479e-05
2.35941e-05
2.36382e-05
2.36775e-05
2.37094e-05
2.37283e-05
2.373e-05
2.37156e-05
2.36668e-05
2.35703e-05
2.34171e-05
2.31982e-05
2.29036e-05
2.25221e-05
2.2042e-05
2.14562e-05
2.07733e-05
2.00076e-05
1.91879e-05
1.83644e-05
1.7606e-05
1.69839e-05
1.65172e-05
1.61175e-05
1.57538e-05
1.54326e-05
1.5163e-05
1.49474e-05
1.47804e-05
1.46486e-05
1.45375e-05
1.44426e-05
1.43638e-05
1.43009e-05
1.42521e-05
1.42141e-05
1.41836e-05
1.41583e-05
1.41369e-05
1.41194e-05
1.41053e-05
1.40942e-05
1.40854e-05
1.40782e-05
1.40724e-05
1.40677e-05
1.40639e-05
1.4061e-05
1.40589e-05
1.40572e-05
1.4056e-05
1.4055e-05
1.40543e-05
1.40539e-05
1.40536e-05
1.40534e-05
1.40533e-05
1.40533e-05
1.40533e-05
1.40534e-05
1.40535e-05
1.40537e-05
1.40539e-05
1.40541e-05
1.40543e-05
1.40545e-05
1.40548e-05
1.4055e-05
1.40553e-05
1.40556e-05
1.40559e-05
1.40563e-05
1.40566e-05
1.4057e-05
1.40574e-05
1.40579e-05
1.40583e-05
1.40588e-05
1.40593e-05
1.40598e-05
1.40604e-05
1.40609e-05
1.40615e-05
1.40622e-05
1.40628e-05
1.40635e-05
1.40643e-05
1.4065e-05
1.40658e-05
1.40667e-05
1.40676e-05
1.40686e-05
1.40696e-05
1.40707e-05
1.40718e-05
1.40731e-05
1.40743e-05
1.40757e-05
1.40772e-05
1.40787e-05
1.40803e-05
1.40819e-05
1.40836e-05
1.40854e-05
1.40873e-05
1.40893e-05
1.40914e-05
1.40936e-05
1.4096e-05
1.40985e-05
1.41012e-05
1.4104e-05
1.4107e-05
1.41103e-05
1.41137e-05
1.41173e-05
1.41212e-05
1.41259e-05
1.41237e-05
2.57879e-05
2.57861e-05
2.5782e-05
2.57759e-05
2.57675e-05
2.57583e-05
2.57494e-05
2.57422e-05
2.57365e-05
2.57311e-05
2.57249e-05
2.57175e-05
2.57088e-05
2.56994e-05
2.34652e-05
2.34322e-05
2.34008e-05
2.33708e-05
2.33425e-05
2.33158e-05
2.32909e-05
2.32678e-05
2.32464e-05
2.32263e-05
2.32086e-05
2.3193e-05
2.31768e-05
2.31619e-05
2.31496e-05
2.31373e-05
2.31231e-05
2.31101e-05
2.30984e-05
2.30848e-05
2.30713e-05
2.30589e-05
2.30459e-05
2.30322e-05
2.30192e-05
2.30065e-05
2.29939e-05
2.29812e-05
2.29687e-05
2.2956e-05
2.29433e-05
2.29308e-05
2.29186e-05
2.29069e-05
2.28958e-05
2.28851e-05
2.28749e-05
2.2865e-05
2.28555e-05
2.28466e-05
2.28383e-05
2.28309e-05
2.28248e-05
2.28199e-05
2.28162e-05
2.28142e-05
2.28142e-05
2.28155e-05
2.28188e-05
2.28244e-05
2.28322e-05
2.28424e-05
2.2855e-05
2.28699e-05
2.28872e-05
2.29067e-05
2.29285e-05
2.29525e-05
2.29787e-05
2.30071e-05
2.30376e-05
2.30697e-05
2.31036e-05
2.31393e-05
2.31766e-05
2.32155e-05
2.32569e-05
2.33009e-05
2.33466e-05
2.33935e-05
2.34416e-05
2.34906e-05
2.35414e-05
2.35963e-05
2.3655e-05
2.37157e-05
2.37783e-05
2.38415e-05
2.39058e-05
2.3972e-05
2.40374e-05
2.41018e-05
2.41643e-05
2.42222e-05
2.42731e-05
2.43141e-05
2.43386e-05
2.43412e-05
2.43227e-05
2.42601e-05
2.41372e-05
2.39441e-05
2.3674e-05
2.33205e-05
2.2874e-05
2.23256e-05
2.16736e-05
2.09318e-05
2.01202e-05
1.92719e-05
1.84369e-05
1.7677e-05
1.70526e-05
1.65866e-05
1.61965e-05
1.58429e-05
1.55279e-05
1.52589e-05
1.50378e-05
1.48617e-05
1.4722e-05
1.4605e-05
1.45026e-05
1.44141e-05
1.43405e-05
1.42817e-05
1.42359e-05
1.42001e-05
1.41713e-05
1.41475e-05
1.41281e-05
1.41129e-05
1.41011e-05
1.4092e-05
1.40849e-05
1.40793e-05
1.40749e-05
1.40717e-05
1.40694e-05
1.40679e-05
1.40669e-05
1.40664e-05
1.40662e-05
1.40663e-05
1.40665e-05
1.40669e-05
1.40674e-05
1.4068e-05
1.40687e-05
1.40694e-05
1.40702e-05
1.40711e-05
1.4072e-05
1.4073e-05
1.4074e-05
1.40752e-05
1.40764e-05
1.40776e-05
1.4079e-05
1.40804e-05
1.4082e-05
1.40836e-05
1.40854e-05
1.40872e-05
1.40891e-05
1.40911e-05
1.40932e-05
1.40953e-05
1.40976e-05
1.40999e-05
1.41024e-05
1.4105e-05
1.41077e-05
1.41106e-05
1.41136e-05
1.41168e-05
1.41202e-05
1.41238e-05
1.41277e-05
1.41318e-05
1.41361e-05
1.41408e-05
1.41457e-05
1.41509e-05
1.41563e-05
1.4162e-05
1.4168e-05
1.41742e-05
1.41807e-05
1.41875e-05
1.41946e-05
1.42021e-05
1.421e-05
1.42184e-05
1.42274e-05
1.42369e-05
1.42472e-05
1.42582e-05
1.42701e-05
1.42828e-05
1.42964e-05
1.43135e-05
1.43086e-05
2.5902e-05
2.58953e-05
2.58885e-05
2.58806e-05
2.58715e-05
2.58615e-05
2.58512e-05
2.58414e-05
2.58331e-05
2.58265e-05
2.58208e-05
2.58152e-05
2.58093e-05
2.37503e-05
2.37165e-05
2.36839e-05
2.36525e-05
2.36223e-05
2.35936e-05
2.35662e-05
2.35404e-05
2.35159e-05
2.34926e-05
2.34713e-05
2.34515e-05
2.34309e-05
2.34117e-05
2.33946e-05
2.33768e-05
2.33581e-05
2.33404e-05
2.33229e-05
2.33046e-05
2.32865e-05
2.32686e-05
2.32504e-05
2.32323e-05
2.32144e-05
2.31968e-05
2.31797e-05
2.31626e-05
2.31456e-05
2.31286e-05
2.31117e-05
2.30949e-05
2.30785e-05
2.30625e-05
2.30469e-05
2.30318e-05
2.30169e-05
2.30024e-05
2.29882e-05
2.29744e-05
2.29613e-05
2.2949e-05
2.29379e-05
2.29279e-05
2.29194e-05
2.29124e-05
2.29072e-05
2.29037e-05
2.29029e-05
2.29038e-05
2.29068e-05
2.29124e-05
2.29206e-05
2.29314e-05
2.29448e-05
2.29609e-05
2.29795e-05
2.30007e-05
2.30244e-05
2.30506e-05
2.30791e-05
2.31099e-05
2.31429e-05
2.3178e-05
2.32152e-05
2.32548e-05
2.32967e-05
2.33406e-05
2.33861e-05
2.34335e-05
2.34827e-05
2.35332e-05
2.35871e-05
2.36444e-05
2.37035e-05
2.37646e-05
2.38278e-05
2.38931e-05
2.39615e-05
2.40317e-05
2.41022e-05
2.41758e-05
2.42527e-05
2.43303e-05
2.44095e-05
2.44895e-05
2.4568e-05
2.46435e-05
2.47105e-05
2.47683e-05
2.48137e-05
2.48418e-05
2.48496e-05
2.48432e-05
2.48121e-05
2.47405e-05
2.46189e-05
2.44382e-05
2.41906e-05
2.38726e-05
2.34797e-05
2.30057e-05
2.24456e-05
2.17999e-05
2.10826e-05
2.03111e-05
1.95099e-05
1.87147e-05
1.79709e-05
1.73255e-05
1.6816e-05
1.64163e-05
1.60546e-05
1.57202e-05
1.54214e-05
1.51659e-05
1.49565e-05
1.47903e-05
1.4657e-05
1.45437e-05
1.44465e-05
1.43662e-05
1.43027e-05
1.42543e-05
1.42175e-05
1.41889e-05
1.41661e-05
1.41482e-05
1.41347e-05
1.41251e-05
1.41184e-05
1.4114e-05
1.41112e-05
1.41098e-05
1.41095e-05
1.41098e-05
1.41107e-05
1.41123e-05
1.41142e-05
1.41165e-05
1.41191e-05
1.41218e-05
1.41247e-05
1.41279e-05