/*--------------------------------*- C++ -*----------------------------------*\
| =========                 |                                                 |
| \\      /  F ield         | OpenFOAM: The Open Source CFD Toolbox           |
|  \\    /   O peration     | Version:  v1706                                 |
|   \\  /    A nd           | Web:      www.OpenFOAM.com                      |
|    \\/     M anipulation  |                                                 |
\*---------------------------------------------------------------------------*/
FoamFile
{
    version     2.0;
    format      ascii;
    class       volScalarField;
    location    "3.7e-05";
    object      kappatr;
}
// * * * * * * * * * * * * * * * * * * * * * * * * * * * * * * * * * * * * * //

dimensions      [1 1 -3 -1 0 0 0];


internalField   nonuniform List<scalar> 
30104
(
0.014602
0.0146034
0.014605
0.0146068
0.014609
0.0146114
0.0146141
0.0146173
0.0146209
0.014625
0.0146297
0.014635
0.0146411
0.0146481
0.014656
0.0146649
0.0146752
0.0174376
0.0173764
0.0173146
0.0172522
0.0171889
0.0171245
0.0170586
0.016991
0.0169213
0.0168492
0.0167744
0.0166967
0.016616
0.0165322
0.0164453
0.0163555
0.0162647
0.0161876
0.0161275
0.0160737
0.01602
0.015964
0.0159052
0.0158434
0.0157789
0.0157121
0.0156431
0.0155726
0.0155011
0.0154287
0.015356
0.0152836
0.0152116
0.0151421
0.0150792
0.0150255
0.0149798
0.0149389
0.0149004
0.0148631
0.0148272
0.014793
0.0147613
0.0147332
0.0147096
0.0146906
0.0146751
0.0146621
0.0146507
0.0146407
0.0146321
0.0146251
0.0146194
0.0146148
0.014611
0.0146077
0.014605
0.0146026
0.0146007
0.0145991
0.0145978
0.0145969
0.0145961
0.0145954
0.0145949
0.0145945
0.0145942
0.014594
0.0145938
0.0145936
0.0145935
0.0145934
0.0145933
0.0145932
0.0145932
0.0145931
0.0145931
0.0145931
0.0145931
0.014593
0.014593
0.014593
0.014593
0.014593
0.014593
0.014593
0.014593
0.014593
0.014593
0.014593
0.014593
0.014593
0.014593
0.014593
0.014593
0.014593
0.014593
0.014593
0.014593
0.014593
0.014593
0.014593
0.014593
0.014593
0.014593
0.014593
0.014593
0.014593
0.014593
0.014593
0.014593
0.014593
0.014593
0.014593
0.014593
0.014593
0.014593
0.014593
0.014593
0.014593
0.014593
0.014593
0.014593
0.014593
0.014593
0.014593
0.014593
0.014593
0.014593
0.014593
0.014593
0.014593
0.014593
0.014593
0.014593
0.014593
0.014593
0.014593
0.014593
0.014593
0.014593
0.014593
0.014593
0.014593
0.014593
0.014593
0.014593
0.014593
0.014593
0.014593
0.014593
0.014593
0.014593
0.014593
0.014593
0.014593
0.014593
0.014593
0.014593
0.014593
0.014593
0.014593
0.014593
0.014593
0.014593
0.014593
0.014593
0.014593
0.014593
0.014593
0.014593
0.014593
0.014593
0.014593
0.014593
0.014593
0.014593
0.014593
0.014593
0.014593
0.014593
0.014593
0.014593
0.014593
0.014593
0.014593
0.014593
0.014593
0.014593
0.014593
0.014593
0.014593
0.014593
0.0146489
0.0146574
0.0146673
0.0146786
0.0146916
0.0147064
0.0147234
0.0147427
0.0147649
0.0147902
0.0148193
0.0148524
0.01489
0.0149324
0.01498
0.0150335
0.0150937
0.0218488
0.0218189
0.0217893
0.0217598
0.0217304
0.021701
0.0216718
0.0216428
0.0216141
0.0215859
0.0215581
0.0215305
0.0215025
0.0214733
0.0214418
0.021407
0.0213669
0.0213147
0.0212447
0.021155
0.0210457
0.0209182
0.0207734
0.0206114
0.0204312
0.0202313
0.0200109
0.0197706
0.0195117
0.0192354
0.0189422
0.0186322
0.0183059
0.0179665
0.0176248
0.017315
0.0170596
0.0168347
0.0166216
0.0164122
0.0162047
0.0160006
0.0158052
0.0156266
0.0154723
0.0153447
0.0152375
0.0151436
0.0150592
0.0149829
0.0149151
0.0148569
0.014809
0.0147707
0.0147396
0.0147135
0.0146913
0.0146725
0.014657
0.0146446
0.0146346
0.0146266
0.0146201
0.0146147
0.0146102
0.0146065
0.0146036
0.0146014
0.0145996
0.0145982
0.014597
0.0145961
0.0145954
0.0145949
0.0145945
0.0145941
0.0145939
0.0145937
0.0145935
0.0145934
0.0145933
0.0145932
0.0145932
0.0145931
0.0145931
0.0145931
0.0145931
0.014593
0.014593
0.014593
0.014593
0.014593
0.014593
0.014593
0.014593
0.014593
0.014593
0.014593
0.014593
0.014593
0.014593
0.014593
0.014593
0.014593
0.014593
0.014593
0.014593
0.014593
0.014593
0.014593
0.014593
0.014593
0.014593
0.014593
0.014593
0.014593
0.014593
0.014593
0.014593
0.014593
0.014593
0.014593
0.014593
0.014593
0.014593
0.014593
0.014593
0.014593
0.014593
0.014593
0.014593
0.014593
0.014593
0.014593
0.014593
0.014593
0.014593
0.014593
0.014593
0.014593
0.014593
0.014593
0.014593
0.014593
0.014593
0.014593
0.014593
0.014593
0.014593
0.014593
0.014593
0.014593
0.014593
0.014593
0.014593
0.014593
0.014593
0.014593
0.014593
0.014593
0.014593
0.014593
0.014593
0.014593
0.014593
0.014593
0.014593
0.014593
0.014593
0.014593
0.014593
0.014593
0.014593
0.014593
0.014593
0.014593
0.014593
0.014593
0.014593
0.014593
0.014593
0.014593
0.014593
0.014593
0.014593
0.014593
0.014593
0.014593
0.014593
0.014593
0.014593
0.014593
0.014593
0.0147962
0.0148272
0.0148628
0.0149035
0.01495
0.0150028
0.0150625
0.01513
0.0152065
0.0152935
0.0153924
0.0155044
0.0156302
0.0157704
0.0159254
0.0160965
0.0225867
0.0225676
0.022549
0.0225309
0.022513
0.0224955
0.0224783
0.0224616
0.0224457
0.0224315
0.0224197
0.0224113
0.0224082
0.0224091
0.0224135
0.0224218
0.0224331
0.0224458
0.0224582
0.0224674
0.0224685
0.0224653
0.0224557
0.0224376
0.0224121
0.0223815
0.0223476
0.02231
0.0222666
0.0222141
0.0221491
0.0220674
0.0219643
0.0218334
0.0216663
0.0214518
0.0211854
0.0208729
0.0205195
0.0201287
0.0197021
0.0192422
0.0187552
0.0182558
0.0177777
0.0173787
0.0170461
0.016748
0.0164677
0.016201
0.0159519
0.0157293
0.0155412
0.0153883
0.0152617
0.0151524
0.0150561
0.0149715
0.0148991
0.0148397
0.0147926
0.0147553
0.0147246
0.014699
0.0146776
0.0146601
0.0146463
0.0146355
0.0146269
0.0146199
0.0146142
0.0146095
0.0146058
0.014603
0.0146008
0.0145991
0.0145977
0.0145966
0.0145958
0.0145951
0.0145947
0.0145943
0.014594
0.0145937
0.0145936
0.0145934
0.0145933
0.0145932
0.0145932
0.0145931
0.0145931
0.0145931
0.0145931
0.0145931
0.014593
0.014593
0.014593
0.014593
0.014593
0.014593
0.014593
0.014593
0.014593
0.014593
0.014593
0.014593
0.014593
0.014593
0.014593
0.014593
0.014593
0.014593
0.014593
0.014593
0.014593
0.014593
0.014593
0.014593
0.014593
0.014593
0.014593
0.014593
0.014593
0.014593
0.014593
0.014593
0.014593
0.014593
0.014593
0.014593
0.014593
0.014593
0.014593
0.014593
0.014593
0.014593
0.014593
0.014593
0.014593
0.014593
0.014593
0.014593
0.014593
0.014593
0.014593
0.014593
0.014593
0.014593
0.014593
0.014593
0.014593
0.014593
0.014593
0.014593
0.014593
0.014593
0.014593
0.014593
0.014593
0.014593
0.014593
0.014593
0.014593
0.014593
0.014593
0.014593
0.014593
0.014593
0.014593
0.014593
0.014593
0.014593
0.014593
0.014593
0.014593
0.014593
0.014593
0.014593
0.014593
0.014593
0.014593
0.014593
0.014593
0.014593
0.014593
0.014593
0.014593
0.014593
0.014593
0.014593
0.014593
0.014593
0.014593
0.0152554
0.0153522
0.0154624
0.0155874
0.0157283
0.0158857
0.0160604
0.0162543
0.0164704
0.0167115
0.0169787
0.0172711
0.0175867
0.0179225
0.0182761
0.0186465
0.0227598
0.0227401
0.0227216
0.0227042
0.0226881
0.0226731
0.0226592
0.0226464
0.0226348
0.0226247
0.0226164
0.0226113
0.0226113
0.0226139
0.022621
0.0226329
0.0226496
0.0226701
0.0226932
0.0227167
0.0227384
0.0227568
0.0227716
0.0227824
0.0227869
0.0227871
0.0227866
0.022786
0.0227854
0.0227843
0.0227814
0.0227753
0.0227647
0.0227493
0.0227295
0.0227068
0.0226816
0.0226507
0.0226092
0.0225508
0.0224683
0.0223538
0.0221996
0.0219975
0.0217365
0.0214059
0.0210112
0.0205627
0.0200671
0.0195297
0.0189598
0.0183789
0.0178313
0.0173831
0.0170137
0.0166843
0.016377
0.0160907
0.0158332
0.0156141
0.015437
0.0152939
0.0151731
0.0150681
0.0149767
0.0148993
0.0148367
0.0147879
0.0147496
0.0147185
0.0146927
0.0146716
0.0146547
0.0146417
0.0146315
0.0146234
0.0146169
0.0146116
0.0146073
0.0146041
0.0146016
0.0145996
0.0145981
0.0145969
0.014596
0.0145953
0.0145948
0.0145944
0.0145941
0.0145938
0.0145936
0.0145935
0.0145934
0.0145933
0.0145932
0.0145932
0.0145931
0.0145931
0.0145931
0.0145931
0.0145931
0.014593
0.014593
0.014593
0.014593
0.014593
0.014593
0.014593
0.014593
0.014593
0.014593
0.014593
0.014593
0.014593
0.014593
0.014593
0.014593
0.014593
0.014593
0.014593
0.014593
0.014593
0.014593
0.014593
0.014593
0.014593
0.014593
0.014593
0.014593
0.014593
0.014593
0.014593
0.014593
0.014593
0.014593
0.014593
0.014593
0.014593
0.014593
0.014593
0.014593
0.014593
0.014593
0.014593
0.014593
0.014593
0.014593
0.014593
0.014593
0.014593
0.014593
0.014593
0.014593
0.014593
0.014593
0.014593
0.014593
0.014593
0.014593
0.014593
0.014593
0.014593
0.014593
0.014593
0.014593
0.014593
0.014593
0.014593
0.014593
0.014593
0.014593
0.014593
0.014593
0.014593
0.014593
0.014593
0.014593
0.014593
0.014593
0.014593
0.014593
0.014593
0.014593
0.014593
0.014593
0.014593
0.014593
0.014593
0.014593
0.014593
0.014593
0.014593
0.014593
0.0165429
0.0167994
0.0170837
0.0173953
0.017732
0.0180909
0.0184694
0.0188673
0.0192939
0.0197601
0.0202608
0.0207847
0.0213179
0.0218459
0.022356
0.0228996
0.0228783
0.0228584
0.0228402
0.0228236
0.0228086
0.0227952
0.0227834
0.0227731
0.0227641
0.0227566
0.0227517
0.0227508
0.0227521
0.0227569
0.0227661
0.0227799
0.0227978
0.0228188
0.0228414
0.0228639
0.0228846
0.0229033
0.0229195
0.0229324
0.0229425
0.0229502
0.0229563
0.0229621
0.0229678
0.0229734
0.0229787
0.0229832
0.0229864
0.0229889
0.022992
0.0229966
0.0230025
0.0230085
0.0230124
0.0230126
0.0230106
0.0230057
0.0229961
0.02298
0.022955
0.0229158
0.0228532
0.0227568
0.0226172
0.0224277
0.0221814
0.0218693
0.0214825
0.0210275
0.0205125
0.0199432
0.0193291
0.0186914
0.0180717
0.0175427
0.0171231
0.0167612
0.0164282
0.0161199
0.0158447
0.0156126
0.0154269
0.0152787
0.0151546
0.0150474
0.0149554
0.014879
0.0148188
0.0147726
0.0147365
0.0147071
0.0146829
0.0146633
0.0146481
0.0146363
0.0146272
0.0146199
0.0146139
0.0146091
0.0146053
0.0146025
0.0146004
0.0145987
0.0145974
0.0145964
0.0145956
0.014595
0.0145946
0.0145942
0.0145939
0.0145937
0.0145936
0.0145934
0.0145933
0.0145933
0.0145932
0.0145932
0.0145931
0.0145931
0.0145931
0.0145931
0.0145931
0.0145931
0.014593
0.014593
0.014593
0.014593
0.014593
0.014593
0.014593
0.014593
0.014593
0.014593
0.014593
0.014593
0.014593
0.014593
0.014593
0.014593
0.014593
0.014593
0.014593
0.014593
0.014593
0.014593
0.014593
0.014593
0.014593
0.014593
0.014593
0.014593
0.014593
0.014593
0.014593
0.014593
0.014593
0.014593
0.014593
0.014593
0.014593
0.014593
0.014593
0.014593
0.014593
0.014593
0.014593
0.014593
0.014593
0.014593
0.014593
0.014593
0.014593
0.014593
0.014593
0.014593
0.014593
0.014593
0.014593
0.014593
0.014593
0.014593
0.0145931
0.0145931
0.0145931
0.0145931
0.0145931
0.0145931
0.0145931
0.0145931
0.0145931
0.0145931
0.0145931
0.0145931
0.0145931
0.0145931
0.0145931
0.0145931
0.0145931
0.0145931
0.0145931
0.0145931
0.0145931
0.0145931
0.0145931
0.0145931
0.0145931
0.0145931
0.0189144
0.0193557
0.0198352
0.0203489
0.0208866
0.0214346
0.0219782
0.0225039
0.0229999
0.023455
0.0238616
0.0242186
0.0245277
0.0247923
0.0250166
0.0252054
0.0230477
0.0230238
0.0230017
0.0229816
0.0229636
0.0229479
0.0229344
0.0229232
0.0229141
0.0229069
0.0229015
0.0228992
0.0228996
0.0229017
0.0229064
0.0229143
0.0229255
0.0229397
0.0229564
0.0229748
0.0229937
0.0230119
0.0230287
0.0230436
0.0230562
0.0230666
0.0230759
0.0230831
0.023089
0.0230939
0.0230983
0.0231031
0.0231087
0.0231152
0.0231223
0.0231292
0.0231368
0.0231462
0.0231575
0.0231697
0.0231829
0.023199
0.0232116
0.0232231
0.0232358
0.0232493
0.0232614
0.0232687
0.0232699
0.0232683
0.0232624
0.02325
0.0232289
0.0231946
0.0231377
0.0230461
0.0229091
0.0227197
0.022472
0.0221585
0.0217675
0.0212969
0.0207538
0.0201457
0.0194855
0.0187992
0.0181335
0.0175646
0.0171212
0.0167418
0.0163945
0.0160768
0.0157986
0.0155687
0.0153876
0.0152435
0.0151223
0.0150178
0.0149291
0.0148569
0.0148011
0.0147586
0.014725
0.0146974
0.0146747
0.0146567
0.0146428
0.0146321
0.0146237
0.014617
0.0146115
0.0146072
0.014604
0.0146015
0.0145996
0.0145982
0.014597
0.0145962
0.0145955
0.014595
0.0145946
0.0145942
0.014594
0.0145938
0.0145936
0.0145935
0.0145934
0.0145933
0.0145933
0.0145932
0.0145932
0.0145931
0.0145931
0.0145931
0.0145931
0.0145931
0.0145931
0.0145931
0.0145931
0.014593
0.014593
0.014593
0.014593
0.014593
0.014593
0.014593
0.014593
0.014593
0.014593
0.014593
0.014593
0.014593
0.0145931
0.0145931
0.0145931
0.0145931
0.0145931
0.0145931
0.0145931
0.0145931
0.0145931
0.0145931
0.0145931
0.0145931
0.0145931
0.0145931
0.0145931
0.0145931
0.0145931
0.0145931
0.0145931
0.0145931
0.0145931
0.0145931
0.0145931
0.0145931
0.0145931
0.0145931
0.0145931
0.0145931
0.0145931
0.0145931
0.0145931
0.0145931
0.0145931
0.0145932
0.0145932
0.0145932
0.0145932
0.0145932
0.0145932
0.0145932
0.0145932
0.0145932
0.0145932
0.0145932
0.0145932
0.0145933
0.0145933
0.0145933
0.0145933
0.0145933
0.0145933
0.0145933
0.0145933
0.0145934
0.0145934
0.0145934
0.0145934
0.0145934
0.0145935
0.0145935
0.0145935
0.0229716
0.0234537
0.0238871
0.0242692
0.0246008
0.0248847
0.025125
0.0253268
0.0254949
0.0256335
0.0257468
0.0258384
0.0259113
0.023251
0.0232244
0.0231997
0.0231771
0.0231567
0.0231388
0.0231235
0.0231108
0.0231006
0.0230929
0.0230873
0.0230846
0.0230846
0.0230858
0.023089
0.0230942
0.0231017
0.0231113
0.0231225
0.0231349
0.0231481
0.0231612
0.0231734
0.0231839
0.023192
0.0231994
0.0232069
0.0232125
0.0232167
0.0232194
0.0232216
0.0232245
0.0232283
0.0232332
0.0232388
0.0232448
0.0232514
0.0232594
0.0232688
0.0232792
0.0232912
0.0233046
0.0233167
0.0233287
0.0233424
0.023358
0.0233752
0.0233926
0.02341
0.0234291
0.0234463
0.0234621
0.0234778
0.0234927
0.0235053
0.023514
0.0235169
0.0235154
0.0235085
0.0234911
0.023457
0.0233971
0.0232994
0.0231536
0.0229529
0.0226924
0.0223633
0.0219509
0.0214481
0.020863
0.0202074
0.0195006
0.0187763
0.0180884
0.0175167
0.0170756
0.0166947
0.0163451
0.0160285
0.0157556
0.0155329
0.0153586
0.0152191
0.0151004
0.0149977
0.0149112
0.0148419
0.0147888
0.0147483
0.0147162
0.0146899
0.0146686
0.0146519
0.0146391
0.0146293
0.0146217
0.0146155
0.0146105
0.0146066
0.0146037
0.0146015
0.0145997
0.0145984
0.0145973
0.0145964
0.0145957
0.0145952
0.0145948
0.0145945
0.0145942
0.0145939
0.0145938
0.0145936
0.0145935
0.0145934
0.0145933
0.0145933
0.0145933
0.0145932
0.0145932
0.0145932
0.0145932
0.0145932
0.0145931
0.0145931
0.0145931
0.0145931
0.0145931
0.0145931
0.0145931
0.0145932
0.0145932
0.0145932
0.0145932
0.0145932
0.0145932
0.0145932
0.0145932
0.0145932
0.0145932
0.0145932
0.0145932
0.0145932
0.0145932
0.0145932
0.0145932
0.0145933
0.0145933
0.0145933
0.0145933
0.0145933
0.0145933
0.0145933
0.0145933
0.0145933
0.0145934
0.0145934
0.0145934
0.0145934
0.0145934
0.0145934
0.0145935
0.0145935
0.0145935
0.0145935
0.0145935
0.0145936
0.0145936
0.0145936
0.0145936
0.0145937
0.0145937
0.0145937
0.0145938
0.0145938
0.0145938
0.0145939
0.0145939
0.014594
0.014594
0.014594
0.0145941
0.0145941
0.0145942
0.0145943
0.0145943
0.0145944
0.0145945
0.0145945
0.0145946
0.0145947
0.0145948
0.0145947
0.0255656
0.0257227
0.0258511
0.025955
0.026038
0.0261033
0.0261533
0.0261915
0.0262219
0.026247
0.026268
0.0262854
0.0262994
0.0234992
0.0234701
0.023443
0.0234179
0.023395
0.0233745
0.0233566
0.0233413
0.0233288
0.0233189
0.0233115
0.0233064
0.0233035
0.0233031
0.0233037
0.0233052
0.023308
0.0233123
0.0233175
0.0233231
0.0233293
0.0233358
0.0233418
0.0233463
0.0233485
0.0233517
0.0233552
0.0233572
0.0233578
0.0233574
0.0233566
0.0233566
0.0233572
0.0233584
0.0233603
0.0233632
0.0233668
0.0233712
0.0233765
0.0233826
0.02339
0.0233984
0.0234074
0.0234173
0.0234286
0.0234415
0.0234558
0.0234712
0.0234875
0.0235048
0.0235228
0.0235418
0.0235627
0.0235855
0.0236097
0.0236343
0.0236591
0.0236832
0.0237054
0.0237262
0.0237451
0.0237618
0.0237763
0.0237866
0.023789
0.0237861
0.0237724
0.0237377
0.0236719
0.0235646
0.0234071
0.0231933
0.0229175
0.022568
0.0221275
0.0215908
0.0209697
0.0202794
0.0195425
0.0187959
0.0180978
0.0175242
0.0170848
0.0167004
0.0163448
0.0160233
0.0157471
0.0155224
0.0153464
0.0152056
0.0150858
0.0149828
0.0148975
0.0148307
0.0147801
0.0147417
0.0147113
0.0146865
0.0146666
0.014651
0.014639
0.0146298
0.0146225
0.0146165
0.0146117
0.0146079
0.0146049
0.0146026
0.0146008
0.0145993
0.0145981
0.0145971
0.0145963
0.0145957
0.0145952
0.0145948
0.0145945
0.0145942
0.014594
0.0145939
0.0145937
0.0145937
0.0145936
0.0145936
0.0145935
0.0145935
0.0145935
0.0145935
0.0145935
0.0145935
0.0145935
0.0145935
0.0145935
0.0145935
0.0145936
0.0145936
0.0145936
0.0145936
0.0145936
0.0145936
0.0145937
0.0145937
0.0145937
0.0145937
0.0145938
0.0145938
0.0145938
0.0145939
0.0145939
0.0145939
0.014594
0.014594
0.0145941
0.0145941
0.0145942
0.0145942
0.0145943
0.0145943
0.0145944
0.0145944
0.0145945
0.0145946
0.0145946
0.0145947
0.0145948
0.0145949
0.014595
0.014595
0.0145951
0.0145952
0.0145954
0.0145955
0.0145956
0.0145957
0.0145958
0.014596
0.0145961
0.0145962
0.0145964
0.0145966
0.0145967
0.0145969
0.0145971
0.0145973
0.0145975
0.0145978
0.014598
0.0145983
0.0145985
0.0145988
0.0145991
0.0145994
0.0145992
0.0263264
0.0263629
0.0263922
0.0264163
0.0264361
0.0264521
0.0264641
0.0264714
0.0264737
0.0264729
0.0264708
0.0264678
0.0264647
0.0264622
0.0237787
0.0237475
0.0237183
0.023691
0.0236657
0.0236427
0.023622
0.0236039
0.0235882
0.0235751
0.0235645
0.0235561
0.0235491
0.0235445
0.0235414
0.0235385
0.0235357
0.0235343
0.0235334
0.023532
0.0235306
0.0235303
0.0235297
0.0235275
0.0235241
0.0235223
0.0235204
0.0235176
0.0235139
0.0235097
0.0235053
0.0235009
0.0234972
0.0234944
0.0234922
0.0234907
0.0234898
0.0234897
0.0234901
0.0234913
0.0234933
0.0234964
0.0235007
0.0235062
0.0235131
0.0235214
0.0235311
0.0235422
0.0235549
0.0235693
0.0235856
0.0236037
0.0236238
0.0236459
0.0236697
0.0236946
0.0237204
0.0237472
0.0237748
0.0238038
0.0238342
0.0238662
0.023899
0.0239319
0.0239637
0.0239924
0.0240198
0.0240467
0.024074
0.0241013
0.0241245
0.0241395
0.0241428
0.0241357
0.0241055
0.0240399
0.0239313
0.0237725
0.0235556
0.0232706
0.022905
0.0224447
0.0218859
0.0212393
0.0205171
0.0197412
0.0189529
0.0182151
0.0176022
0.0171367
0.0167318
0.0163583
0.0160237
0.01574
0.0155122
0.0153357
0.0151958
0.0150776
0.0149772
0.0148951
0.0148311
0.0147827
0.0147457
0.0147162
0.014692
0.0146723
0.0146567
0.0146444
0.0146347
0.0146269
0.0146205
0.0146151
0.0146107
0.0146071
0.0146044
0.0146022
0.0146005
0.0145991
0.014598
0.0145971
0.0145965
0.014596
0.0145956
0.0145953
0.014595
0.0145949
0.0145948
0.0145947
0.0145947
0.0145947
0.0145947
0.0145947
0.0145947
0.0145948
0.0145948
0.0145949
0.0145949
0.014595
0.0145951
0.0145951
0.0145952
0.0145953
0.0145954
0.0145955
0.0145956
0.0145957
0.0145958
0.0145959
0.014596
0.0145962
0.0145963
0.0145964
0.0145966
0.0145968
0.0145969
0.0145971
0.0145973
0.0145975
0.0145977
0.0145979
0.0145981
0.0145983
0.0145986
0.0145989
0.0145991
0.0145994
0.0145997
0.0146
0.0146004
0.0146007
0.0146011
0.0146015
0.0146019
0.0146024
0.0146028
0.0146033
0.0146038
0.0146043
0.0146049
0.0146055
0.0146061
0.0146067
0.0146074
0.0146082
0.014609
0.0146098
0.0146107
0.0146117
0.0146127
0.0146138
0.0146149
0.0146162
0.0146154
0.0266352
0.0266356
0.0266344
0.0266318
0.0266285
0.0266256
0.0266231
0.0266224
0.0266217
0.0266191
0.0266142
0.026607
0.0265983
0.0265893
0.0240751
0.0240421
0.0240112
0.0239818
0.0239543
0.0239289
0.0239056
0.0238845
0.0238655
0.0238485
0.0238342
0.0238219
0.0238101
0.0237998
0.0237924
0.0237847
0.0237757
0.023768
0.0237615
0.0237537
0.0237451
0.0237383
0.0237313
0.0237224
0.023714
0.0237065
0.0236988
0.0236909
0.0236825
0.0236736
0.0236651
0.0236565
0.0236484
0.0236409
0.023634
0.0236278
0.0236221
0.0236169
0.0236122
0.0236081
0.0236048
0.0236023
0.0236015
0.0236019
0.0236034
0.0236064
0.0236111
0.0236175
0.0236258
0.0236362
0.0236488
0.0236637
0.0236809
0.0237002
0.0237214
0.0237444
0.0237694
0.0237962
0.0238247
0.0238551
0.0238875
0.0239215
0.0239566
0.0239925
0.0240293
0.0240667
0.0241058
0.0241477
0.0241929
0.0242394
0.0242855
0.0243304
0.0243718
0.024415
0.0244619
0.0245098
0.0245556
0.0245965
0.0246296
0.0246493
0.024651
0.024636
0.0245853
0.0244851
0.024326
0.0240985
0.0237925
0.0233962
0.0228975
0.022289
0.0215795
0.0207841
0.0199326
0.0190772
0.0182894
0.017643
0.0171582
0.016743
0.0163653
0.0160316
0.0157515
0.0155275
0.015354
0.0152171
0.0151017
0.0150031
0.0149213
0.014856
0.0148052
0.0147658
0.0147341
0.0147078
0.0146856
0.0146674
0.0146528
0.0146412
0.0146321
0.0146246
0.0146186
0.0146137
0.0146098
0.0146068
0.0146045
0.0146028
0.0146015
0.0146005
0.0145998
0.0145993
0.014599
0.0145988
0.0145987
0.0145987
0.0145987
0.0145988
0.014599
0.0145991
0.0145993
0.0145995
0.0145997
0.0146
0.0146003
0.0146005
0.0146008
0.0146011
0.0146015
0.0146018
0.0146022
0.0146026
0.014603
0.0146035
0.0146039
0.0146044
0.0146049
0.0146055
0.0146061
0.0146067
0.0146073
0.014608
0.0146086
0.0146094
0.0146101
0.0146109
0.0146118
0.0146126
0.0146136
0.0146146
0.0146157
0.0146168
0.014618
0.0146193
0.0146206
0.014622
0.0146235
0.0146251
0.0146267
0.0146284
0.0146302
0.0146321
0.0146341
0.0146361
0.0146383
0.0146406
0.0146431
0.0146457
0.0146485
0.0146514
0.0146546
0.0146579
0.0146615
0.0146653
0.0146693
0.0146741
0.0146719
0.0267888
0.0267869
0.0267826
0.0267763
0.0267675
0.026758
0.0267488
0.0267413
0.0267354
0.0267298
0.0267234
0.0267156
0.0267066
0.0266969
0.0243759
0.0243417
0.024309
0.0242779
0.0242484
0.0242208
0.0241949
0.0241708
0.0241486
0.0241277
0.0241094
0.0240932
0.0240763
0.0240608
0.0240481
0.0240353
0.0240205
0.0240071
0.0239948
0.0239808
0.0239667
0.0239539
0.0239403
0.0239262
0.0239126
0.0238995
0.0238863
0.0238732
0.0238601
0.023847
0.0238338
0.0238208
0.0238081
0.0237959
0.0237844
0.0237733
0.0237627
0.0237524
0.0237426
0.0237333
0.0237247
0.023717
0.0237106
0.0237056
0.0237018
0.0236996
0.0236997
0.023701
0.0237045
0.0237102
0.0237183
0.0237289
0.023742
0.0237576
0.0237755
0.0237957
0.0238184
0.0238433
0.0238705
0.0239
0.0239317
0.0239651
0.0240003
0.0240374
0.0240761
0.0241165
0.0241595
0.0242052
0.0242528
0.0243014
0.0243514
0.0244023
0.0244551
0.0245121
0.0245731
0.0246362
0.0247012
0.0247669
0.0248336
0.0249024
0.0249704
0.0250372
0.0251022
0.0251623
0.0252152
0.0252578
0.0252832
0.0252859
0.0252667
0.0252017
0.025074
0.0248735
0.0245928
0.0242256
0.0237617
0.0231921
0.0225148
0.0217442
0.0209011
0.0200199
0.0191524
0.0183631
0.0177145
0.0172303
0.0168251
0.0164578
0.0161306
0.0158511
0.0156215
0.0154385
0.0152933
0.0151718
0.0150654
0.0149735
0.014897
0.014836
0.0147884
0.0147513
0.0147213
0.0146966
0.0146765
0.0146606
0.0146483
0.0146389
0.0146316
0.0146258
0.0146212
0.0146178
0.0146154
0.0146139
0.0146129
0.0146124
0.0146122
0.0146122
0.0146124
0.0146128
0.0146133
0.014614
0.0146147
0.0146155
0.0146163
0.0146172
0.0146182
0.0146192
0.0146203
0.0146214
0.0146227
0.014624
0.0146254
0.0146269
0.0146285
0.0146302
0.014632
0.0146339
0.0146359
0.014638
0.0146402
0.0146424
0.0146447
0.0146472
0.0146497
0.0146524
0.0146552
0.0146582
0.0146613
0.0146647
0.0146682
0.014672
0.014676
0.0146802
0.0146848
0.0146896
0.0146947
0.0147001
0.0147057
0.0147117
0.0147179
0.0147243
0.0147311
0.0147381
0.0147455
0.0147533
0.0147615
0.0147703
0.0147796
0.0147895
0.0148002
0.0148116
0.0148239
0.0148372
0.0148513
0.014869
0.0148639
0.0269073
0.0269003
0.0268933
0.0268851
0.0268757
0.0268653
0.0268546
0.0268444
0.0268357
0.0268288
0.0268229
0.0268172
0.026811
0.0246721
0.024637
0.0246031
0.0245705
0.0245391
0.0245093
0.0244809
0.024454
0.0244286
0.0244044
0.0243823
0.0243617
0.0243402
0.0243204
0.0243026
0.0242841
0.0242646
0.0242463
0.0242281
0.0242091
0.0241902
0.0241717
0.0241528
0.024134
0.0241154
0.0240971
0.0240793
0.0240616
0.0240439
0.0240263
0.0240087
0.0239913
0.0239742
0.0239576
0.0239414
0.0239257
0.0239103
0.0238952
0.0238804
0.0238661
0.0238525
0.0238397
0.0238281
0.0238178
0.0238089
0.0238017
0.0237962
0.0237926
0.0237918
0.0237927
0.0237959
0.0238017
0.0238102
0.0238214
0.0238354
0.023852
0.0238714
0.0238934
0.023918
0.0239453
0.0239749
0.0240068
0.0240411
0.0240776
0.0241163
0.0241574
0.0242009
0.0242465
0.0242937
0.024343
0.0243941
0.0244466
0.0245026
0.0245621
0.0246235
0.0246869
0.0247525
0.0248204
0.0248915
0.0249644
0.0250376
0.0251141
0.025194
0.0252746
0.0253569
0.02544
0.0255215
0.0256
0.0256696
0.0257296
0.0257767
0.025806
0.025814
0.0258074
0.0257751
0.0257008
0.0255744
0.0253867
0.0251295
0.0247991
0.024391
0.0238986
0.0233167
0.022646
0.0219008
0.0210994
0.0202671
0.0194411
0.0186683
0.0179979
0.0174686
0.0170535
0.0166777
0.0163303
0.01602
0.0157545
0.015537
0.0153644
0.0152259
0.0151082
0.0150072
0.0149238
0.0148578
0.0148075
0.0147694
0.0147396
0.0147159
0.0146973
0.0146833
0.0146733
0.0146664
0.0146618
0.0146589
0.0146574
0.0146571
0.0146574
0.0146584
0.01466
0.014662
0.0146644
0.014667
0.0146699
0.0146729
0.0146762
0.0146797
0.0146834
0.0146873
0.0146915
0.014696
0.0147009
0.014706
0.0147115
0.0147174
0.0147236
0.0147301
0.014737
0.0147442
0.0147516
0.0147593
0.0147673
0.0147757
0.0147844
0.0147935
0.014803
0.0148131
0.0148238
0.0148351
0.0148472
0.0148601
0.0148738
0.0148886
0.0149044
0.0149213
0.0149393
0.0149585
0.0149786
0.0149996
0.0150213
0.0150436
0.0150667
0.0150907
0.0151156
0.0151417
0.0151691
0.0151979
0.0152283
0.0152605
0.0152946
0.0153309
0.01537
0.0154112
0.0154657
0.0154599
0.0270083
0.0269992
0.0269917
0.0269849
0.0269781
0.0269708
0.0269629
0.0269548
0.0269469
0.02694
0.0269342
0.0269291
0.0269244
0.0248877
0.0248537
0.0248207
0.0247888
0.024758
0.0247286
0.0247002
0.0246731
0.0246476
0.0246225
0.0245976
0.0245739
0.0245512
0.0245278
0.0245044
0.0244814
0.0244582
0.024435
0.0244118
0.0243884
0.0243651
0.0243422
0.0243194
0.0242968
0.0242746
0.0242526
0.0242307
0.0242088
0.0241871
0.0241657
0.0241445
0.0241236
0.0241031
0.0240829
0.024063
0.0240433
0.0240239
0.024005
0.0239866
0.0239691
0.0239527
0.0239374
0.0239236
0.0239113
0.0239009
0.0238924
0.0238861
0.023882
0.023881
0.023882
0.0238855
0.0238919
0.0239013
0.0239137
0.023929
0.0239472
0.0239683
0.0239922
0.0240189
0.0240483
0.0240804
0.024115
0.0241523
0.0241921
0.0242342
0.0242783
0.0243244
0.0243723
0.0244218
0.0244739
0.0245289
0.0245856
0.0246444
0.0247063
0.0247705
0.0248368
0.024905
0.0249739
0.0250458
0.0251223
0.0252013
0.0252824
0.0253653
0.0254464
0.0255257
0.0256049
0.0256822
0.0257568
0.0258289
0.0258967
0.0259587
0.0260153
0.0260585
0.0260835
0.0260901
0.026086
0.0260687
0.0260327
0.0259753
0.0258921
0.025777
0.0256232
0.0254234
0.0251715
0.0248623
0.0244896
0.0240504
0.0235398
0.0229516
0.022285
0.0215492
0.0207561
0.0199298
0.0191105
0.0183518
0.0177119
0.0172231
0.0168114
0.0164359
0.0161012
0.0158168
0.0155861
0.0154059
0.0152653
0.0151496
0.0150528
0.0149749
0.0149159
0.0148736
0.0148446
0.014825
0.014812
0.0148042
0.014801
0.0148011
0.0148032
0.0148076
0.0148138
0.0148212
0.0148296
0.0148388
0.0148488
0.0148594
0.0148707
0.0148828
0.0148956
0.0149094
0.0149242
0.01494
0.0149571
0.0149755
0.0149951
0.015016
0.0150381
0.0150611
0.0150849
0.0151095
0.0151347
0.0151608
0.0151877
0.0152155
0.0152443
0.0152742
0.0153054
0.015338
0.0153724
0.0154087
0.0154473
0.0154884
0.0155325
0.0155796
0.01563
0.0156837
0.0157407
0.0158007
0.0158628
0.0159265
0.0159916
0.0160582
0.0161264
0.016196
0.0162673
0.0163403
0.0164156
0.0164935
0.0165755
0.0166607
0.0167532
0.0168473
0.0169648
0.0170001
0.0271096
0.0271023
0.0270959
0.0270902
0.0270846
0.0270789
0.0270729
0.0270667
0.0270607
0.0270552
0.0270504
0.0270461
0.0251595
0.0251243
0.0250897
0.025056
0.0250232
0.0249914
0.0249605
0.0249308
0.024902
0.0248735
0.0248455
0.0248183
0.0247913
0.0247641
0.024737
0.02471
0.0246828
0.0246558
0.0246288
0.0246017
0.0245747
0.024548
0.0245215
0.0244952
0.0244692
0.0244433
0.0244176
0.024392
0.0243665
0.0243413
0.0243162
0.0242915
0.0242669
0.0242426
0.0242185
0.0241946
0.024171
0.0241477
0.024125
0.0241031
0.0240821
0.0240622
0.0240437
0.0240267
0.0240114
0.023998
0.0239866
0.0239775
0.023971
0.0239669
0.0239664
0.0239677
0.023972
0.0239794
0.0239899
0.0240035
0.0240201
0.0240397
0.0240624
0.024088
0.0241165
0.0241479
0.0241821
0.0242188
0.0242576
0.0242986
0.0243417
0.0243869
0.0244344
0.0244845
0.0245366
0.0245905
0.024647
0.0247063
0.0247677
0.024831
0.0248956
0.0249622
0.0250329
0.025107
0.0251823
0.0252592
0.0253355
0.0254103
0.0254856
0.0255607
0.0256346
0.0257079
0.0257797
0.0258476
0.0259105
0.0259642
0.0260053
0.026036
0.0260603
0.0260829
0.0261027
0.0261161
0.0261222
0.0261218
0.0261144
0.0260946
0.0260618
0.0260162
0.0259576
0.0258859
0.0257994
0.0256942
0.0255646
0.0254031
0.0252009
0.0249493
0.0246385
0.0242569
0.0237898
0.0232211
0.0225498
0.0217918
0.0209663
0.020102
0.0192437
0.018449
0.0177774
0.0172668
0.0168541
0.0164877
0.0161683
0.0159043
0.015698
0.0155457
0.0154378
0.0153601
0.0153043
0.0152675
0.0152477
0.0152422
0.0152451
0.0152554
0.0152722
0.0152937
0.0153185
0.0153458
0.0153752
0.0154063
0.0154393
0.0154743
0.0155114
0.0155508
0.0155929
0.0156378
0.0156859
0.0157375
0.0157928
0.0158517
0.015914
0.0159785
0.0160446
0.0161118
0.01618
0.0162494
0.0163199
0.0163917
0.0164651
0.0165401
0.0166171
0.0166964
0.0167783
0.0168633
0.016952
0.0170451
0.0171435
0.0172482
0.0173601
0.0174796
0.0176072
0.0177402
0.017873
0.0180036
0.0181316
0.0182571
0.0183797
0.0185008
0.0186188
0.018736
0.0188475
0.0189565
0.0190551
0.0191475
0.0192273
0.019323
0.01932
0.0272284
0.0272219
0.0272159
0.0272106
0.0272058
0.0272013
0.0271968
0.0271922
0.0271876
0.027183
0.0254167
0.0253803
0.0253444
0.0253091
0.0252745
0.0252407
0.0252077
0.0251756
0.0251441
0.0251129
0.0250821
0.0250517
0.0250214
0.0249909
0.0249606
0.0249303
0.0248999
0.0248696
0.0248394
0.0248091
0.024779
0.024749
0.0247192
0.0246896
0.0246602
0.024631
0.0246019
0.0245729
0.024544
0.0245152
0.0244866
0.0244582
0.02443
0.0244019
0.0243739
0.0243461
0.0243185
0.0242912
0.0242645
0.0242384
0.0242132
0.024189
0.024166
0.0241445
0.0241244
0.0241062
0.0240899
0.0240758
0.024064
0.0240548
0.0240484
0.0240447
0.0240446
0.0240464
0.0240514
0.0240595
0.0240707
0.024085
0.0241025
0.024123
0.0241465
0.0241729
0.0242019
0.0242336
0.0242679
0.0243047
0.024344
0.0243861
0.0244313
0.024479
0.0245279
0.0245788
0.0246328
0.024689
0.0247458
0.0248034