/*--------------------------------*- C++ -*----------------------------------*\
| =========                 |                                                 |
| \\      /  F ield         | OpenFOAM: The Open Source CFD Toolbox           |
|  \\    /   O peration     | Version:  v1706                                 |
|   \\  /    A nd           | Web:      www.OpenFOAM.com                      |
|    \\/     M anipulation  |                                                 |
\*---------------------------------------------------------------------------*/
FoamFile
{
    version     2.0;
    format      ascii;
    class       volScalarField;
    location    "3.7e-05";
    object      mu;
}
// * * * * * * * * * * * * * * * * * * * * * * * * * * * * * * * * * * * * * //

dimensions      [1 -1 -1 0 0 0 0];


internalField   nonuniform List<scalar> 
30104
(
1.03574e-05
1.03584e-05
1.03595e-05
1.03608e-05
1.03623e-05
1.0364e-05
1.0366e-05
1.03682e-05
1.03708e-05
1.03737e-05
1.0377e-05
1.03808e-05
1.03851e-05
1.03901e-05
1.03957e-05
1.0402e-05
1.04093e-05
1.23687e-05
1.23253e-05
1.22815e-05
1.22372e-05
1.21923e-05
1.21466e-05
1.20999e-05
1.20519e-05
1.20025e-05
1.19513e-05
1.18983e-05
1.18432e-05
1.17859e-05
1.17265e-05
1.16649e-05
1.16012e-05
1.15368e-05
1.14821e-05
1.14394e-05
1.14012e-05
1.13632e-05
1.13235e-05
1.12817e-05
1.12379e-05
1.11922e-05
1.11448e-05
1.10959e-05
1.10459e-05
1.09951e-05
1.09437e-05
1.08922e-05
1.08409e-05
1.07898e-05
1.07405e-05
1.06959e-05
1.06578e-05
1.06254e-05
1.05964e-05
1.0569e-05
1.05426e-05
1.05171e-05
1.04929e-05
1.04704e-05
1.04504e-05
1.04337e-05
1.04202e-05
1.04092e-05
1.04e-05
1.03919e-05
1.03848e-05
1.03787e-05
1.03737e-05
1.03697e-05
1.03664e-05
1.03637e-05
1.03614e-05
1.03595e-05
1.03578e-05
1.03564e-05
1.03553e-05
1.03544e-05
1.03537e-05
1.03532e-05
1.03527e-05
1.03524e-05
1.03521e-05
1.03519e-05
1.03517e-05
1.03515e-05
1.03514e-05
1.03513e-05
1.03513e-05
1.03512e-05
1.03511e-05
1.03511e-05
1.03511e-05
1.03511e-05
1.03511e-05
1.0351e-05
1.0351e-05
1.0351e-05
1.0351e-05
1.0351e-05
1.0351e-05
1.0351e-05
1.0351e-05
1.0351e-05
1.0351e-05
1.0351e-05
1.0351e-05
1.0351e-05
1.0351e-05
1.0351e-05
1.0351e-05
1.0351e-05
1.0351e-05
1.0351e-05
1.0351e-05
1.0351e-05
1.0351e-05
1.0351e-05
1.0351e-05
1.0351e-05
1.0351e-05
1.0351e-05
1.0351e-05
1.0351e-05
1.0351e-05
1.0351e-05
1.0351e-05
1.0351e-05
1.0351e-05
1.0351e-05
1.0351e-05
1.0351e-05
1.0351e-05
1.0351e-05
1.0351e-05
1.0351e-05
1.0351e-05
1.0351e-05
1.0351e-05
1.0351e-05
1.0351e-05
1.0351e-05
1.0351e-05
1.0351e-05
1.0351e-05
1.0351e-05
1.0351e-05
1.0351e-05
1.0351e-05
1.0351e-05
1.0351e-05
1.0351e-05
1.0351e-05
1.0351e-05
1.0351e-05
1.0351e-05
1.0351e-05
1.0351e-05
1.0351e-05
1.0351e-05
1.0351e-05
1.0351e-05
1.0351e-05
1.0351e-05
1.0351e-05
1.0351e-05
1.0351e-05
1.0351e-05
1.0351e-05
1.0351e-05
1.0351e-05
1.0351e-05
1.0351e-05
1.0351e-05
1.0351e-05
1.0351e-05
1.0351e-05
1.0351e-05
1.0351e-05
1.0351e-05
1.0351e-05
1.0351e-05
1.0351e-05
1.0351e-05
1.0351e-05
1.0351e-05
1.0351e-05
1.0351e-05
1.0351e-05
1.0351e-05
1.0351e-05
1.0351e-05
1.0351e-05
1.0351e-05
1.0351e-05
1.0351e-05
1.0351e-05
1.0351e-05
1.0351e-05
1.0351e-05
1.0351e-05
1.0351e-05
1.0351e-05
1.0351e-05
1.0351e-05
1.0351e-05
1.0351e-05
1.0351e-05
1.0351e-05
1.0351e-05
1.03906e-05
1.03967e-05
1.04037e-05
1.04117e-05
1.04209e-05
1.04315e-05
1.04435e-05
1.04572e-05
1.04729e-05
1.04909e-05
1.05115e-05
1.0535e-05
1.05617e-05
1.05917e-05
1.06255e-05
1.06634e-05
1.07062e-05
1.54976e-05
1.54765e-05
1.54554e-05
1.54345e-05
1.54136e-05
1.53928e-05
1.53721e-05
1.53515e-05
1.53312e-05
1.53112e-05
1.52914e-05
1.52718e-05
1.5252e-05
1.52313e-05
1.52089e-05
1.51843e-05
1.51558e-05
1.51188e-05
1.50691e-05
1.50055e-05
1.4928e-05
1.48375e-05
1.47348e-05
1.462e-05
1.44921e-05
1.43503e-05
1.4194e-05
1.40235e-05
1.38399e-05
1.36439e-05
1.3436e-05
1.32161e-05
1.29846e-05
1.27438e-05
1.25015e-05
1.22817e-05
1.21006e-05
1.19411e-05
1.17899e-05
1.16414e-05
1.14942e-05
1.13495e-05
1.12109e-05
1.10842e-05
1.09747e-05
1.08842e-05
1.08081e-05
1.07416e-05
1.06817e-05
1.06275e-05
1.05794e-05
1.05382e-05
1.05042e-05
1.0477e-05
1.0455e-05
1.04365e-05
1.04208e-05
1.04074e-05
1.03964e-05
1.03876e-05
1.03805e-05
1.03749e-05
1.03702e-05
1.03664e-05
1.03632e-05
1.03606e-05
1.03585e-05
1.03569e-05
1.03557e-05
1.03547e-05
1.03539e-05
1.03532e-05
1.03527e-05
1.03523e-05
1.0352e-05
1.03518e-05
1.03516e-05
1.03515e-05
1.03514e-05
1.03513e-05
1.03512e-05
1.03512e-05
1.03511e-05
1.03511e-05
1.03511e-05
1.03511e-05
1.0351e-05
1.0351e-05
1.0351e-05
1.0351e-05
1.0351e-05
1.0351e-05
1.0351e-05
1.0351e-05
1.0351e-05
1.0351e-05
1.0351e-05
1.0351e-05
1.0351e-05
1.0351e-05
1.0351e-05
1.0351e-05
1.0351e-05
1.0351e-05
1.0351e-05
1.0351e-05
1.0351e-05
1.0351e-05
1.0351e-05
1.0351e-05
1.0351e-05
1.0351e-05
1.0351e-05
1.0351e-05
1.0351e-05
1.0351e-05
1.0351e-05
1.0351e-05
1.0351e-05
1.0351e-05
1.0351e-05
1.0351e-05
1.0351e-05
1.0351e-05
1.0351e-05
1.0351e-05
1.0351e-05
1.0351e-05
1.0351e-05
1.0351e-05
1.0351e-05
1.0351e-05
1.0351e-05
1.0351e-05
1.0351e-05
1.0351e-05
1.0351e-05
1.0351e-05
1.0351e-05
1.0351e-05
1.0351e-05
1.0351e-05
1.0351e-05
1.0351e-05
1.0351e-05
1.0351e-05
1.0351e-05
1.0351e-05
1.0351e-05
1.0351e-05
1.0351e-05
1.0351e-05
1.0351e-05
1.0351e-05
1.0351e-05
1.0351e-05
1.0351e-05
1.0351e-05
1.0351e-05
1.0351e-05
1.0351e-05
1.0351e-05
1.0351e-05
1.0351e-05
1.0351e-05
1.0351e-05
1.0351e-05
1.0351e-05
1.0351e-05
1.0351e-05
1.0351e-05
1.0351e-05
1.0351e-05
1.0351e-05
1.0351e-05
1.0351e-05
1.0351e-05
1.0351e-05
1.0351e-05
1.0351e-05
1.0351e-05
1.0351e-05
1.0351e-05
1.0351e-05
1.0351e-05
1.0351e-05
1.0351e-05
1.0351e-05
1.0351e-05
1.0351e-05
1.0351e-05
1.0351e-05
1.0351e-05
1.04951e-05
1.05171e-05
1.05423e-05
1.05713e-05
1.06042e-05
1.06417e-05
1.0684e-05
1.07319e-05
1.07861e-05
1.08479e-05
1.0918e-05
1.09975e-05
1.10867e-05
1.11862e-05
1.12961e-05
1.14174e-05
1.6021e-05
1.60075e-05
1.59943e-05
1.59814e-05
1.59688e-05
1.59564e-05
1.59442e-05
1.59323e-05
1.5921e-05
1.59109e-05
1.59026e-05
1.58966e-05
1.58944e-05
1.5895e-05
1.58982e-05
1.59041e-05
1.59121e-05
1.59211e-05
1.59299e-05
1.59364e-05
1.59372e-05
1.59349e-05
1.59281e-05
1.59153e-05
1.58972e-05
1.58755e-05
1.58514e-05
1.58248e-05
1.5794e-05
1.57568e-05
1.57106e-05
1.56527e-05
1.55795e-05
1.54867e-05
1.53682e-05
1.5216e-05
1.50271e-05
1.48054e-05
1.45548e-05
1.42775e-05
1.3975e-05
1.36487e-05
1.33033e-05
1.29491e-05
1.261e-05
1.23269e-05
1.2091e-05
1.18796e-05
1.16808e-05
1.14916e-05
1.13149e-05
1.1157e-05
1.10235e-05
1.09151e-05
1.08253e-05
1.07478e-05
1.06795e-05
1.06195e-05
1.05681e-05
1.0526e-05
1.04926e-05
1.04661e-05
1.04444e-05
1.04262e-05
1.0411e-05
1.03986e-05
1.03888e-05
1.03812e-05
1.0375e-05
1.03701e-05
1.0366e-05
1.03627e-05
1.03601e-05
1.03581e-05
1.03565e-05
1.03553e-05
1.03543e-05
1.03536e-05
1.0353e-05
1.03525e-05
1.03522e-05
1.03519e-05
1.03517e-05
1.03515e-05
1.03514e-05
1.03513e-05
1.03512e-05
1.03512e-05
1.03511e-05
1.03511e-05
1.03511e-05
1.03511e-05
1.0351e-05
1.0351e-05
1.0351e-05
1.0351e-05
1.0351e-05
1.0351e-05
1.0351e-05
1.0351e-05
1.0351e-05
1.0351e-05
1.0351e-05
1.0351e-05
1.0351e-05
1.0351e-05
1.0351e-05
1.0351e-05
1.0351e-05
1.0351e-05
1.0351e-05
1.0351e-05
1.0351e-05
1.0351e-05
1.0351e-05
1.0351e-05
1.0351e-05
1.0351e-05
1.0351e-05
1.0351e-05
1.0351e-05
1.0351e-05
1.0351e-05
1.0351e-05
1.0351e-05
1.0351e-05
1.0351e-05
1.0351e-05
1.0351e-05
1.0351e-05
1.0351e-05
1.0351e-05
1.0351e-05
1.0351e-05
1.0351e-05
1.0351e-05
1.0351e-05
1.0351e-05
1.0351e-05
1.0351e-05
1.0351e-05
1.0351e-05
1.0351e-05
1.0351e-05
1.0351e-05
1.0351e-05
1.0351e-05
1.0351e-05
1.0351e-05
1.0351e-05
1.0351e-05
1.0351e-05
1.0351e-05
1.0351e-05
1.0351e-05
1.0351e-05
1.0351e-05
1.0351e-05
1.0351e-05
1.0351e-05
1.0351e-05
1.0351e-05
1.0351e-05
1.0351e-05
1.0351e-05
1.0351e-05
1.0351e-05
1.0351e-05
1.0351e-05
1.0351e-05
1.0351e-05
1.0351e-05
1.0351e-05
1.0351e-05
1.0351e-05
1.0351e-05
1.0351e-05
1.0351e-05
1.0351e-05
1.0351e-05
1.0351e-05
1.0351e-05
1.0351e-05
1.0351e-05
1.0351e-05
1.0351e-05
1.0351e-05
1.0351e-05
1.0351e-05
1.0351e-05
1.0351e-05
1.0351e-05
1.0351e-05
1.08208e-05
1.08895e-05
1.09677e-05
1.10564e-05
1.11562e-05
1.12679e-05
1.13919e-05
1.15294e-05
1.16827e-05
1.18537e-05
1.20432e-05
1.22506e-05
1.24744e-05
1.27127e-05
1.29634e-05
1.32262e-05
1.61438e-05
1.61298e-05
1.61167e-05
1.61044e-05
1.60929e-05
1.60823e-05
1.60724e-05
1.60634e-05
1.60552e-05
1.6048e-05
1.60421e-05
1.60385e-05
1.60385e-05
1.60403e-05
1.60453e-05
1.60538e-05
1.60657e-05
1.60802e-05
1.60966e-05
1.61132e-05
1.61286e-05
1.61417e-05
1.61522e-05
1.61598e-05
1.6163e-05
1.61631e-05
1.61628e-05
1.61624e-05
1.6162e-05
1.61612e-05
1.61591e-05
1.61548e-05
1.61473e-05
1.61364e-05
1.61223e-05
1.61062e-05
1.60883e-05
1.60665e-05
1.6037e-05
1.59955e-05
1.59371e-05
1.58558e-05
1.57464e-05
1.56031e-05
1.5418e-05
1.51834e-05
1.49035e-05
1.45854e-05
1.42339e-05
1.38526e-05
1.34484e-05
1.30364e-05
1.2648e-05
1.23301e-05
1.2068e-05
1.18344e-05
1.16164e-05
1.14133e-05
1.12307e-05
1.10753e-05
1.09496e-05
1.08481e-05
1.07625e-05
1.0688e-05
1.06232e-05
1.05683e-05
1.05238e-05
1.04892e-05
1.04621e-05
1.044e-05
1.04217e-05
1.04067e-05
1.03948e-05
1.03855e-05
1.03783e-05
1.03726e-05
1.0368e-05
1.03642e-05
1.03612e-05
1.03588e-05
1.03571e-05
1.03557e-05
1.03546e-05
1.03538e-05
1.03531e-05
1.03526e-05
1.03523e-05
1.0352e-05
1.03517e-05
1.03516e-05
1.03514e-05
1.03513e-05
1.03512e-05
1.03512e-05
1.03511e-05
1.03511e-05
1.03511e-05
1.03511e-05
1.03511e-05
1.0351e-05
1.0351e-05
1.0351e-05
1.0351e-05
1.0351e-05
1.0351e-05
1.0351e-05
1.0351e-05
1.0351e-05
1.0351e-05
1.0351e-05
1.0351e-05
1.0351e-05
1.0351e-05
1.0351e-05
1.0351e-05
1.0351e-05
1.0351e-05
1.0351e-05
1.0351e-05
1.0351e-05
1.0351e-05
1.0351e-05
1.0351e-05
1.0351e-05
1.0351e-05
1.0351e-05
1.0351e-05
1.0351e-05
1.0351e-05
1.0351e-05
1.0351e-05
1.0351e-05
1.0351e-05
1.0351e-05
1.0351e-05
1.0351e-05
1.0351e-05
1.0351e-05
1.0351e-05
1.0351e-05
1.0351e-05
1.0351e-05
1.0351e-05
1.0351e-05
1.0351e-05
1.0351e-05
1.0351e-05
1.0351e-05
1.0351e-05
1.0351e-05
1.0351e-05
1.0351e-05
1.0351e-05
1.0351e-05
1.0351e-05
1.0351e-05
1.0351e-05
1.0351e-05
1.0351e-05
1.0351e-05
1.0351e-05
1.0351e-05
1.0351e-05
1.0351e-05
1.0351e-05
1.0351e-05
1.0351e-05
1.0351e-05
1.0351e-05
1.0351e-05
1.0351e-05
1.0351e-05
1.0351e-05
1.0351e-05
1.0351e-05
1.0351e-05
1.0351e-05
1.0351e-05
1.0351e-05
1.0351e-05
1.0351e-05
1.0351e-05
1.0351e-05
1.0351e-05
1.0351e-05
1.0351e-05
1.0351e-05
1.0351e-05
1.0351e-05
1.0351e-05
1.0351e-05
1.0351e-05
1.0351e-05
1.17341e-05
1.1916e-05
1.21177e-05
1.23387e-05
1.25775e-05
1.28321e-05
1.31006e-05
1.33828e-05
1.36854e-05
1.40161e-05
1.43712e-05
1.47429e-05
1.5121e-05
1.54956e-05
1.58574e-05
1.6243e-05
1.62278e-05
1.62138e-05
1.62008e-05
1.6189e-05
1.61784e-05
1.61689e-05
1.61606e-05
1.61532e-05
1.61468e-05
1.61415e-05
1.6138e-05
1.61374e-05
1.61384e-05
1.61417e-05
1.61483e-05
1.61581e-05
1.61708e-05
1.61856e-05
1.62017e-05
1.62177e-05
1.62324e-05
1.62456e-05
1.62571e-05
1.62663e-05
1.62734e-05
1.62788e-05
1.62832e-05
1.62873e-05
1.62913e-05
1.62953e-05
1.62991e-05
1.63023e-05
1.63045e-05
1.63063e-05
1.63085e-05
1.63117e-05
1.63159e-05
1.63202e-05
1.6323e-05
1.63231e-05
1.63217e-05
1.63182e-05
1.63114e-05
1.63e-05
1.62823e-05
1.62545e-05
1.62101e-05
1.61417e-05
1.60427e-05
1.59082e-05
1.57336e-05
1.55122e-05
1.52378e-05
1.49151e-05
1.45498e-05
1.41459e-05
1.37103e-05
1.3258e-05
1.28185e-05
1.24432e-05
1.21456e-05
1.18889e-05
1.16527e-05
1.14341e-05
1.12389e-05
1.10742e-05
1.09425e-05
1.08373e-05
1.07493e-05
1.06733e-05
1.0608e-05
1.05539e-05
1.05112e-05
1.04784e-05
1.04528e-05
1.04319e-05
1.04148e-05
1.04009e-05
1.03901e-05
1.03817e-05
1.03752e-05
1.03701e-05
1.03658e-05
1.03624e-05
1.03598e-05
1.03577e-05
1.03562e-05
1.0355e-05
1.03541e-05
1.03534e-05
1.03528e-05
1.03524e-05
1.03521e-05
1.03519e-05
1.03517e-05
1.03515e-05
1.03514e-05
1.03513e-05
1.03512e-05
1.03512e-05
1.03512e-05
1.03511e-05
1.03511e-05
1.03511e-05
1.03511e-05
1.03511e-05
1.0351e-05
1.0351e-05
1.0351e-05
1.0351e-05
1.0351e-05
1.0351e-05
1.0351e-05
1.0351e-05
1.0351e-05
1.0351e-05
1.0351e-05
1.0351e-05
1.0351e-05
1.0351e-05
1.0351e-05
1.0351e-05
1.0351e-05
1.0351e-05
1.0351e-05
1.0351e-05
1.0351e-05
1.0351e-05
1.0351e-05
1.0351e-05
1.0351e-05
1.0351e-05
1.0351e-05
1.0351e-05
1.0351e-05
1.0351e-05
1.0351e-05
1.0351e-05
1.0351e-05
1.0351e-05
1.0351e-05
1.0351e-05
1.0351e-05
1.0351e-05
1.0351e-05
1.0351e-05
1.0351e-05
1.0351e-05
1.0351e-05
1.0351e-05
1.0351e-05
1.0351e-05
1.0351e-05
1.0351e-05
1.0351e-05
1.0351e-05
1.0351e-05
1.0351e-05
1.0351e-05
1.0351e-05
1.0351e-05
1.0351e-05
1.0351e-05
1.0351e-05
1.0351e-05
1.0351e-05
1.0351e-05
1.0351e-05
1.0351e-05
1.0351e-05
1.0351e-05
1.0351e-05
1.0351e-05
1.0351e-05
1.0351e-05
1.0351e-05
1.0351e-05
1.03511e-05
1.03511e-05
1.03511e-05
1.03511e-05
1.03511e-05
1.03511e-05
1.03511e-05
1.03511e-05
1.03511e-05
1.03511e-05
1.03511e-05
1.03511e-05
1.03511e-05
1.03511e-05
1.03511e-05
1.34163e-05
1.37293e-05
1.40694e-05
1.44337e-05
1.48151e-05
1.52038e-05
1.55894e-05
1.59623e-05
1.63141e-05
1.6637e-05
1.69253e-05
1.71786e-05
1.73978e-05
1.75855e-05
1.77446e-05
1.78785e-05
1.6348e-05
1.63311e-05
1.63154e-05
1.63012e-05
1.62884e-05
1.62772e-05
1.62677e-05
1.62597e-05
1.62533e-05
1.62481e-05
1.62443e-05
1.62427e-05
1.6243e-05
1.62445e-05
1.62478e-05
1.62534e-05
1.62613e-05
1.62714e-05
1.62833e-05
1.62963e-05
1.63097e-05
1.63226e-05
1.63346e-05
1.63451e-05
1.6354e-05
1.63614e-05
1.6368e-05
1.63731e-05
1.63773e-05
1.63808e-05
1.63839e-05
1.63873e-05
1.63913e-05
1.63959e-05
1.64009e-05
1.64058e-05
1.64112e-05
1.64179e-05
1.64259e-05
1.64346e-05
1.6444e-05
1.64554e-05
1.64643e-05
1.64724e-05
1.64815e-05
1.6491e-05
1.64996e-05
1.65048e-05
1.65056e-05
1.65045e-05
1.65003e-05
1.64915e-05
1.64766e-05
1.64522e-05
1.64118e-05
1.63469e-05
1.62497e-05
1.61153e-05
1.59397e-05
1.57173e-05
1.544e-05
1.51061e-05
1.47209e-05
1.42896e-05
1.38213e-05
1.33345e-05
1.28623e-05
1.24588e-05
1.21443e-05
1.18752e-05
1.16289e-05
1.14035e-05
1.12062e-05
1.1043e-05
1.09146e-05
1.08124e-05
1.07264e-05
1.06523e-05
1.05894e-05
1.05382e-05
1.04986e-05
1.04685e-05
1.04446e-05
1.0425e-05
1.0409e-05
1.03962e-05
1.03863e-05
1.03787e-05
1.03728e-05
1.0368e-05
1.03641e-05
1.03611e-05
1.03588e-05
1.0357e-05
1.03557e-05
1.03547e-05
1.03539e-05
1.03532e-05
1.03528e-05
1.03524e-05
1.03521e-05
1.03519e-05
1.03517e-05
1.03515e-05
1.03514e-05
1.03513e-05
1.03513e-05
1.03512e-05
1.03512e-05
1.03512e-05
1.03511e-05
1.03511e-05
1.03511e-05
1.03511e-05
1.03511e-05
1.03511e-05
1.0351e-05
1.0351e-05
1.0351e-05
1.0351e-05
1.0351e-05
1.0351e-05
1.0351e-05
1.0351e-05
1.0351e-05
1.0351e-05
1.0351e-05
1.0351e-05
1.0351e-05
1.0351e-05
1.0351e-05
1.0351e-05
1.0351e-05
1.0351e-05
1.0351e-05
1.0351e-05
1.0351e-05
1.0351e-05
1.0351e-05
1.0351e-05
1.0351e-05
1.0351e-05
1.0351e-05
1.0351e-05
1.0351e-05
1.03511e-05
1.03511e-05
1.03511e-05
1.03511e-05
1.03511e-05
1.03511e-05
1.03511e-05
1.03511e-05
1.03511e-05
1.03511e-05
1.03511e-05
1.03511e-05
1.03511e-05
1.03511e-05
1.03511e-05
1.03511e-05
1.03511e-05
1.03511e-05
1.03511e-05
1.03511e-05
1.03511e-05
1.03511e-05
1.03511e-05
1.03511e-05
1.03511e-05
1.03511e-05
1.03511e-05
1.03511e-05
1.03512e-05
1.03512e-05
1.03512e-05
1.03512e-05
1.03512e-05
1.03512e-05
1.03512e-05
1.03512e-05
1.03512e-05
1.03512e-05
1.03512e-05
1.03512e-05
1.03513e-05
1.03513e-05
1.03513e-05
1.03513e-05
1.03513e-05
1.03513e-05
1.03513e-05
1.03513e-05
1.6294e-05
1.6636e-05
1.69434e-05
1.72145e-05
1.74497e-05
1.7651e-05
1.78215e-05
1.79646e-05
1.80838e-05
1.81822e-05
1.82626e-05
1.83275e-05
1.83792e-05
1.64922e-05
1.64734e-05
1.64558e-05
1.64398e-05
1.64253e-05
1.64126e-05
1.64018e-05
1.63928e-05
1.63856e-05
1.638e-05
1.63761e-05
1.63742e-05
1.63742e-05
1.63751e-05
1.63773e-05
1.6381e-05
1.63863e-05
1.63931e-05
1.6401e-05
1.64099e-05
1.64192e-05
1.64286e-05
1.64372e-05
1.64446e-05
1.64504e-05
1.64556e-05
1.64609e-05
1.64649e-05
1.64679e-05
1.64698e-05
1.64714e-05
1.64734e-05
1.64761e-05
1.64796e-05
1.64835e-05
1.64878e-05
1.64925e-05
1.64982e-05
1.65049e-05
1.65122e-05
1.65208e-05
1.65302e-05
1.65388e-05
1.65474e-05
1.6557e-05
1.65682e-05
1.65803e-05
1.65927e-05
1.6605e-05
1.66185e-05
1.66308e-05
1.66419e-05
1.66531e-05
1.66637e-05
1.66726e-05
1.66788e-05
1.66808e-05
1.66798e-05
1.66749e-05
1.66625e-05
1.66384e-05
1.65958e-05
1.65265e-05
1.64232e-05
1.62808e-05
1.6096e-05
1.58626e-05
1.557e-05
1.52134e-05
1.47984e-05
1.43333e-05
1.38321e-05
1.33183e-05
1.28303e-05
1.24248e-05
1.21119e-05
1.18417e-05
1.15938e-05
1.13692e-05
1.11756e-05
1.10177e-05
1.0894e-05
1.07951e-05
1.07109e-05
1.06381e-05
1.05767e-05
1.05275e-05
1.04899e-05
1.04612e-05
1.04384e-05
1.04197e-05
1.04046e-05
1.03928e-05
1.03837e-05
1.03768e-05
1.03713e-05
1.03669e-05
1.03634e-05
1.03607e-05
1.03586e-05
1.0357e-05
1.03558e-05
1.03548e-05
1.0354e-05
1.03534e-05
1.03529e-05
1.03526e-05
1.03523e-05
1.0352e-05
1.03518e-05
1.03517e-05
1.03515e-05
1.03514e-05
1.03514e-05
1.03513e-05
1.03512e-05
1.03512e-05
1.03512e-05
1.03512e-05
1.03511e-05
1.03511e-05
1.03511e-05
1.03511e-05
1.03511e-05
1.03511e-05
1.03511e-05
1.03511e-05
1.03511e-05
1.03511e-05
1.03511e-05
1.03511e-05
1.03511e-05
1.03511e-05
1.03511e-05
1.03511e-05
1.03511e-05
1.03511e-05
1.03511e-05
1.03511e-05
1.03511e-05
1.03511e-05
1.03511e-05
1.03512e-05
1.03512e-05
1.03512e-05
1.03512e-05
1.03512e-05
1.03512e-05
1.03512e-05
1.03512e-05
1.03512e-05
1.03512e-05
1.03512e-05
1.03512e-05
1.03512e-05
1.03513e-05
1.03513e-05
1.03513e-05
1.03513e-05
1.03513e-05
1.03513e-05
1.03513e-05
1.03513e-05
1.03514e-05
1.03514e-05
1.03514e-05
1.03514e-05
1.03514e-05
1.03514e-05
1.03515e-05
1.03515e-05
1.03515e-05
1.03515e-05
1.03515e-05
1.03516e-05
1.03516e-05
1.03516e-05
1.03516e-05
1.03517e-05
1.03517e-05
1.03517e-05
1.03518e-05
1.03518e-05
1.03519e-05
1.03519e-05
1.03519e-05
1.0352e-05
1.0352e-05
1.03521e-05
1.03521e-05
1.03522e-05
1.03522e-05
1.03522e-05
1.8134e-05
1.82454e-05
1.83365e-05
1.84102e-05
1.84691e-05
1.85154e-05
1.85509e-05
1.8578e-05
1.85995e-05
1.86173e-05
1.86322e-05
1.86446e-05
1.86545e-05
1.66683e-05
1.66477e-05
1.66284e-05
1.66106e-05
1.65943e-05
1.65798e-05
1.65671e-05
1.65563e-05
1.65474e-05
1.65404e-05
1.65351e-05
1.65315e-05
1.65295e-05
1.65292e-05
1.65296e-05
1.65307e-05
1.65327e-05
1.65357e-05
1.65394e-05
1.65433e-05
1.65477e-05
1.65524e-05
1.65566e-05
1.65598e-05
1.65614e-05
1.65637e-05
1.65661e-05
1.65675e-05
1.6568e-05
1.65677e-05
1.65672e-05
1.65671e-05
1.65676e-05
1.65684e-05
1.65698e-05
1.65718e-05
1.65743e-05
1.65775e-05
1.65812e-05
1.65856e-05
1.65909e-05
1.65968e-05
1.66032e-05
1.66102e-05
1.66182e-05
1.66273e-05
1.66375e-05
1.66484e-05
1.666e-05
1.66722e-05
1.6685e-05
1.66985e-05
1.67133e-05
1.67295e-05
1.67466e-05
1.67641e-05
1.67817e-05
1.67988e-05
1.68145e-05
1.68293e-05
1.68427e-05
1.68546e-05
1.68649e-05
1.68721e-05
1.68739e-05
1.68718e-05
1.68621e-05
1.68375e-05
1.67908e-05
1.67147e-05
1.6603e-05
1.64513e-05
1.62557e-05
1.60078e-05
1.56953e-05
1.53146e-05
1.48741e-05
1.43845e-05
1.38617e-05
1.33322e-05
1.2837e-05
1.24301e-05
1.21185e-05
1.18458e-05
1.15936e-05
1.13655e-05
1.11696e-05
1.10102e-05
1.08854e-05
1.07855e-05
1.07006e-05
1.06275e-05
1.0567e-05
1.05196e-05
1.04837e-05
1.04565e-05
1.04349e-05
1.04173e-05
1.04032e-05
1.03921e-05
1.03837e-05
1.03771e-05
1.03719e-05
1.03677e-05
1.03643e-05
1.03616e-05
1.03594e-05
1.03578e-05
1.03565e-05
1.03555e-05
1.03546e-05
1.03539e-05
1.03533e-05
1.03529e-05
1.03526e-05
1.03523e-05
1.0352e-05
1.03519e-05
1.03517e-05
1.03516e-05
1.03515e-05
1.03515e-05
1.03514e-05
1.03514e-05
1.03514e-05
1.03514e-05
1.03513e-05
1.03513e-05
1.03513e-05
1.03513e-05
1.03514e-05
1.03514e-05
1.03514e-05
1.03514e-05
1.03514e-05
1.03514e-05
1.03514e-05
1.03514e-05
1.03514e-05
1.03515e-05
1.03515e-05
1.03515e-05
1.03515e-05
1.03515e-05
1.03515e-05
1.03516e-05
1.03516e-05
1.03516e-05
1.03516e-05
1.03517e-05
1.03517e-05
1.03517e-05
1.03518e-05
1.03518e-05
1.03518e-05
1.03519e-05
1.03519e-05
1.03519e-05
1.0352e-05
1.0352e-05
1.03521e-05
1.03521e-05
1.03522e-05
1.03522e-05
1.03523e-05
1.03523e-05
1.03524e-05
1.03525e-05
1.03525e-05
1.03526e-05
1.03527e-05
1.03527e-05
1.03528e-05
1.03529e-05
1.0353e-05
1.03531e-05
1.03532e-05
1.03533e-05
1.03534e-05
1.03535e-05
1.03537e-05
1.03538e-05
1.03539e-05
1.03541e-05
1.03542e-05
1.03544e-05
1.03546e-05
1.03547e-05
1.03549e-05
1.03551e-05
1.03553e-05
1.03556e-05
1.03554e-05
1.86736e-05
1.86995e-05
1.87203e-05
1.87374e-05
1.87515e-05
1.87628e-05
1.87713e-05
1.87765e-05
1.87782e-05
1.87775e-05
1.87761e-05
1.87739e-05
1.87718e-05
1.877e-05
1.68665e-05
1.68444e-05
1.68237e-05
1.68043e-05
1.67864e-05
1.67701e-05
1.67554e-05
1.67425e-05
1.67314e-05
1.67221e-05
1.67146e-05
1.67086e-05
1.67037e-05
1.67004e-05
1.66982e-05
1.66961e-05
1.66942e-05
1.66932e-05
1.66925e-05
1.66916e-05
1.66905e-05
1.66903e-05
1.66899e-05
1.66883e-05
1.66859e-05
1.66847e-05
1.66833e-05
1.66813e-05
1.66787e-05
1.66757e-05
1.66726e-05
1.66695e-05
1.66669e-05
1.66649e-05
1.66633e-05
1.66623e-05
1.66616e-05
1.66615e-05
1.66618e-05
1.66626e-05
1.66641e-05
1.66663e-05
1.66693e-05
1.66733e-05
1.66781e-05
1.6684e-05
1.66909e-05
1.66988e-05
1.67078e-05
1.6718e-05
1.67295e-05
1.67424e-05
1.67566e-05
1.67724e-05
1.67892e-05
1.68069e-05
1.68252e-05
1.68442e-05
1.68638e-05
1.68843e-05
1.69059e-05
1.69286e-05
1.69518e-05
1.69752e-05
1.69978e-05
1.70181e-05
1.70376e-05
1.70566e-05
1.7076e-05
1.70954e-05
1.71118e-05
1.71224e-05
1.71248e-05
1.71197e-05
1.70983e-05
1.70518e-05
1.69748e-05
1.68621e-05
1.67083e-05
1.65061e-05
1.62468e-05
1.59203e-05
1.5524e-05
1.50653e-05
1.4553e-05
1.40027e-05
1.34435e-05
1.29202e-05
1.24855e-05
1.21552e-05
1.18681e-05
1.16031e-05
1.13658e-05
1.11646e-05
1.1003e-05
1.08778e-05
1.07786e-05
1.06947e-05
1.06235e-05
1.05653e-05
1.05199e-05
1.04855e-05
1.04593e-05
1.04384e-05
1.04212e-05
1.04073e-05
1.03962e-05
1.03875e-05
1.03806e-05
1.03751e-05
1.03705e-05
1.03667e-05
1.03635e-05
1.0361e-05
1.03591e-05
1.03575e-05
1.03563e-05
1.03553e-05
1.03545e-05
1.03539e-05
1.03535e-05
1.03531e-05
1.03528e-05
1.03526e-05
1.03524e-05
1.03523e-05
1.03523e-05
1.03522e-05
1.03522e-05
1.03522e-05
1.03522e-05
1.03522e-05
1.03522e-05
1.03522e-05
1.03523e-05
1.03523e-05
1.03524e-05
1.03524e-05
1.03525e-05
1.03525e-05
1.03526e-05
1.03526e-05
1.03527e-05
1.03528e-05
1.03528e-05
1.03529e-05
1.0353e-05
1.03531e-05
1.03531e-05
1.03532e-05
1.03533e-05
1.03534e-05
1.03536e-05
1.03537e-05
1.03538e-05
1.03539e-05
1.0354e-05
1.03542e-05
1.03543e-05
1.03545e-05
1.03546e-05
1.03548e-05
1.0355e-05
1.03551e-05
1.03553e-05
1.03555e-05
1.03558e-05
1.0356e-05
1.03562e-05
1.03565e-05
1.03568e-05
1.0357e-05
1.03573e-05
1.03576e-05
1.0358e-05
1.03583e-05
1.03587e-05
1.0359e-05
1.03594e-05
1.03598e-05
1.03603e-05
1.03607e-05
1.03612e-05
1.03618e-05
1.03623e-05
1.03629e-05
1.03636e-05
1.03642e-05
1.0365e-05
1.03657e-05
1.03665e-05
1.03674e-05
1.03669e-05
1.88927e-05
1.8893e-05
1.88921e-05
1.88903e-05
1.88879e-05
1.88859e-05
1.88841e-05
1.88836e-05
1.88831e-05
1.88812e-05
1.88778e-05
1.88727e-05
1.88665e-05
1.88601e-05
1.70767e-05
1.70534e-05
1.70314e-05
1.70106e-05
1.69911e-05
1.69731e-05
1.69565e-05
1.69416e-05
1.69281e-05
1.6916e-05
1.69059e-05
1.68972e-05
1.68888e-05
1.68815e-05
1.68762e-05
1.68708e-05
1.68644e-05
1.68589e-05
1.68544e-05
1.68488e-05
1.68427e-05
1.68379e-05
1.68329e-05
1.68266e-05
1.68206e-05
1.68153e-05
1.68099e-05
1.68042e-05
1.67983e-05
1.6792e-05
1.67859e-05
1.67799e-05
1.67741e-05
1.67688e-05
1.67639e-05
1.67595e-05
1.67555e-05
1.67517e-05
1.67484e-05
1.67455e-05
1.67432e-05
1.67414e-05
1.67408e-05
1.67411e-05
1.67422e-05
1.67443e-05
1.67476e-05
1.67522e-05
1.67581e-05
1.67655e-05
1.67744e-05
1.6785e-05
1.67972e-05
1.68109e-05
1.68259e-05
1.68422e-05
1.68599e-05
1.68789e-05
1.68991e-05
1.69207e-05
1.69437e-05
1.69678e-05
1.69927e-05
1.70182e-05
1.70443e-05
1.70708e-05
1.70986e-05
1.71283e-05
1.71603e-05
1.71933e-05
1.7226e-05
1.72579e-05
1.72872e-05
1.73179e-05
1.73511e-05
1.73851e-05
1.74176e-05
1.74466e-05
1.74701e-05
1.7484e-05
1.74853e-05
1.74746e-05
1.74387e-05
1.73676e-05
1.72547e-05
1.70934e-05
1.68763e-05
1.65952e-05
1.62415e-05
1.58099e-05
1.53066e-05
1.47424e-05
1.41385e-05
1.35317e-05
1.29729e-05
1.25144e-05
1.21706e-05
1.1876e-05
1.16081e-05
1.13714e-05
1.11727e-05
1.10139e-05
1.08908e-05
1.07937e-05
1.07118e-05
1.06419e-05
1.05839e-05
1.05375e-05
1.05015e-05
1.04735e-05
1.04511e-05
1.04324e-05
1.04167e-05
1.04038e-05
1.03934e-05
1.03852e-05
1.03787e-05
1.03734e-05
1.03691e-05
1.03656e-05
1.03629e-05
1.03608e-05
1.03592e-05
1.0358e-05
1.0357e-05
1.03563e-05
1.03558e-05
1.03555e-05
1.03553e-05
1.03551e-05
1.03551e-05
1.0355e-05
1.03551e-05
1.03551e-05
1.03552e-05
1.03553e-05
1.03555e-05
1.03556e-05
1.03558e-05
1.0356e-05
1.03561e-05
1.03563e-05
1.03565e-05
1.03568e-05
1.0357e-05
1.03573e-05
1.03575e-05
1.03578e-05
1.03581e-05
1.03584e-05
1.03588e-05
1.03591e-05
1.03595e-05
1.03599e-05
1.03603e-05
1.03607e-05
1.03611e-05
1.03616e-05
1.03621e-05
1.03626e-05
1.03631e-05
1.03637e-05
1.03643e-05
1.03649e-05
1.03656e-05
1.03663e-05
1.03671e-05
1.03679e-05
1.03687e-05
1.03696e-05
1.03706e-05
1.03716e-05
1.03726e-05
1.03738e-05
1.03749e-05
1.03761e-05
1.03774e-05
1.03787e-05
1.03801e-05
1.03816e-05
1.03831e-05
1.03848e-05
1.03865e-05
1.03884e-05
1.03903e-05
1.03924e-05
1.03947e-05
1.0397e-05
1.03996e-05
1.04022e-05
1.04051e-05
1.04085e-05
1.0407e-05
1.90016e-05
1.90003e-05
1.89973e-05
1.89928e-05
1.89866e-05
1.89798e-05
1.89733e-05
1.89679e-05
1.89637e-05
1.89598e-05
1.89552e-05
1.89497e-05
1.89433e-05
1.89364e-05
1.72901e-05
1.72658e-05
1.72427e-05
1.72206e-05
1.71997e-05
1.71801e-05
1.71617e-05
1.71447e-05
1.71289e-05
1.71141e-05
1.71011e-05
1.70896e-05
1.70776e-05
1.70666e-05
1.70576e-05
1.70486e-05
1.7038e-05
1.70285e-05
1.70198e-05
1.70099e-05
1.69999e-05
1.69908e-05
1.69812e-05
1.69711e-05
1.69615e-05
1.69522e-05
1.69428e-05
1.69335e-05
1.69243e-05
1.6915e-05
1.69056e-05
1.68964e-05
1.68874e-05
1.68788e-05
1.68706e-05
1.68627e-05
1.68552e-05
1.68479e-05
1.68409e-05
1.68343e-05
1.68282e-05
1.68228e-05
1.68182e-05
1.68147e-05
1.6812e-05
1.68105e-05
1.68105e-05
1.68114e-05
1.68139e-05
1.68179e-05
1.68237e-05
1.68312e-05
1.68405e-05
1.68515e-05
1.68642e-05
1.68786e-05
1.68947e-05
1.69124e-05
1.69317e-05
1.69526e-05
1.6975e-05
1.69987e-05
1.70237e-05
1.705e-05
1.70775e-05
1.71062e-05
1.71366e-05
1.71691e-05
1.72028e-05
1.72373e-05
1.72728e-05
1.73089e-05
1.73463e-05
1.73867e-05
1.743e-05
1.74747e-05
1.75208e-05
1.75675e-05
1.76148e-05
1.76636e-05
1.77118e-05
1.77592e-05
1.78053e-05
1.7848e-05
1.78854e-05
1.79157e-05
1.79337e-05
1.79356e-05
1.7922e-05
1.78759e-05
1.77853e-05
1.76431e-05
1.7444e-05
1.71835e-05
1.68545e-05
1.64504e-05
1.597e-05
1.54234e-05
1.48254e-05
1.42004e-05
1.35851e-05
1.30252e-05
1.25651e-05
1.22217e-05
1.19343e-05
1.16737e-05
1.14416e-05
1.12434e-05
1.10805e-05
1.09507e-05
1.08478e-05
1.07616e-05
1.06861e-05
1.06209e-05
1.05666e-05
1.05233e-05
1.04896e-05
1.04633e-05
1.0442e-05
1.04245e-05
1.04102e-05
1.03989e-05
1.03902e-05
1.03836e-05
1.03783e-05
1.03742e-05
1.0371e-05
1.03686e-05
1.03669e-05
1.03658e-05
1.03651e-05
1.03647e-05
1.03646e-05
1.03646e-05
1.03648e-05
1.03651e-05
1.03654e-05
1.03659e-05
1.03664e-05
1.03669e-05
1.03675e-05
1.03682e-05
1.03688e-05
1.03696e-05
1.03703e-05
1.03712e-05
1.0372e-05
1.0373e-05
1.0374e-05
1.03751e-05
1.03762e-05
1.03774e-05
1.03787e-05
1.038e-05
1.03814e-05
1.03829e-05
1.03844e-05
1.0386e-05
1.03877e-05
1.03894e-05
1.03912e-05
1.03931e-05
1.03951e-05
1.03973e-05
1.03995e-05
1.04018e-05
1.04043e-05
1.0407e-05
1.04099e-05
1.04129e-05
1.04161e-05
1.04195e-05
1.04231e-05
1.0427e-05
1.0431e-05
1.04352e-05
1.04396e-05
1.04441e-05
1.04489e-05
1.04539e-05
1.04592e-05
1.04647e-05
1.04706e-05
1.04767e-05
1.04833e-05
1.04904e-05
1.04979e-05
1.05061e-05
1.05148e-05
1.05242e-05
1.05342e-05
1.05468e-05
1.05432e-05
1.90857e-05
1.90807e-05
1.90757e-05
1.90699e-05
1.90632e-05
1.90559e-05
1.90483e-05
1.90411e-05
1.90349e-05
1.903e-05
1.90258e-05
1.90218e-05
1.90174e-05
1.75002e-05
1.74753e-05
1.74513e-05
1.74281e-05
1.74059e-05
1.73848e-05
1.73646e-05
1.73456e-05
1.73275e-05
1.73103e-05
1.72947e-05
1.728e-05
1.72648e-05
1.72508e-05
1.72381e-05
1.7225e-05
1.72112e-05
1.71982e-05
1.71853e-05
1.71718e-05
1.71584e-05
1.71453e-05
1.71319e-05
1.71186e-05
1.71053e-05
1.70924e-05
1.70798e-05
1.70672e-05
1.70547e-05
1.70421e-05
1.70297e-05
1.70173e-05
1.70052e-05
1.69934e-05
1.6982e-05
1.69708e-05
1.69599e-05
1.69491e-05
1.69387e-05
1.69285e-05
1.69189e-05
1.69098e-05
1.69016e-05
1.68943e-05
1.68879e-05
1.68828e-05
1.6879e-05
1.68764e-05
1.68758e-05
1.68765e-05
1.68787e-05
1.68828e-05
1.68889e-05
1.68968e-05
1.69067e-05
1.69186e-05
1.69323e-05
1.69479e-05
1.69654e-05
1.69847e-05
1.70057e-05
1.70283e-05
1.70526e-05
1.70785e-05
1.7106e-05
1.71351e-05
1.7166e-05
1.71983e-05
1.72318e-05
1.72668e-05
1.7303e-05
1.73403e-05
1.738e-05
1.74222e-05
1.74657e-05
1.75108e-05
1.75573e-05
1.76054e-05
1.76559e-05
1.77076e-05
1.77595e-05
1.78137e-05
1.78704e-05
1.79276e-05
1.7986e-05
1.80449e-05
1.81027e-05
1.81584e-05
1.82078e-05
1.82503e-05
1.82838e-05
1.83045e-05
1.83102e-05
1.83055e-05
1.82826e-05
1.82299e-05
1.81402e-05
1.80071e-05
1.78246e-05
1.75903e-05
1.73009e-05
1.69516e-05
1.65389e-05
1.60631e-05
1.55345e-05
1.49661e-05
1.43757e-05
1.37898e-05
1.32417e-05
1.27662e-05
1.23907e-05
1.20962e-05
1.18297e-05
1.15833e-05
1.13632e-05
1.11749e-05
1.10206e-05
1.08981e-05
1.07999e-05
1.07164e-05
1.06448e-05
1.05856e-05
1.05388e-05
1.05032e-05
1.04761e-05
1.0455e-05
1.04382e-05
1.0425e-05
1.04151e-05
1.04079e-05
1.0403e-05
1.03998e-05
1.03978e-05
1.03967e-05
1.03965e-05
1.03967e-05
1.03974e-05
1.03985e-05
1.04e-05
1.04017e-05
1.04035e-05
1.04055e-05
1.04077e-05
1.041e-05
1.04125e-05
1.04151e-05
1.04179e-05
1.04209e-05
1.04241e-05
1.04275e-05
1.04312e-05
1.04351e-05
1.04392e-05
1.04436e-05
1.04483e-05
1.04531e-05
1.04582e-05
1.04635e-05
1.0469e-05
1.04747e-05
1.04806e-05
1.04867e-05
1.04932e-05
1.05e-05
1.05071e-05
1.05147e-05
1.05227e-05
1.05313e-05
1.05404e-05
1.05502e-05
1.05607e-05
1.05719e-05
1.05839e-05
1.05967e-05
1.06102e-05
1.06245e-05
1.06394e-05
1.06548e-05
1.06706e-05
1.0687e-05
1.0704e-05
1.07217e-05
1.07402e-05
1.07596e-05
1.078e-05