/*--------------------------------*- C++ -*----------------------------------*\
| =========                 |                                                 |
| \\      /  F ield         | OpenFOAM: The Open Source CFD Toolbox           |
|  \\    /   O peration     | Version:  v1706                                 |
|   \\  /    A nd           | Web:      www.OpenFOAM.com                      |
|    \\/     M anipulation  |                                                 |
\*---------------------------------------------------------------------------*/
FoamFile
{
    version     2.0;
    format      ascii;
    class       volScalarField;
    location    "3.7e-05";
    object      p;
}
// * * * * * * * * * * * * * * * * * * * * * * * * * * * * * * * * * * * * * //

dimensions      [1 -1 -2 0 0 0 0];


internalField   nonuniform List<scalar> 
30104
(
21.941
21.9451
21.9499
21.9555
21.9619
21.9693
21.9778
21.9874
21.9984
22.0107
22.0247
22.0405
22.0586
22.0793
22.1031
22.1305
22.1623
36.1869
35.7322
35.2785
34.8245
34.3688
33.9096
33.445
32.973
32.4913
31.9977
31.4905
30.9693
30.4346
29.8881
29.3327
28.7671
28.1952
27.7238
27.3889
27.1237
26.8823
26.6442
26.4017
26.1535
25.9008
25.6458
25.3907
25.1376
24.8869
24.6384
24.3955
24.1597
23.9259
23.7086
23.5304
23.3805
23.2433
23.1115
22.9819
22.8535
22.7278
22.6071
22.4922
22.3859
22.2955
22.2254
22.1721
22.1297
22.0937
22.0626
22.0366
22.016
21.9997
21.9861
21.9743
21.964
21.9549
21.9469
21.9398
21.9338
21.9293
21.9259
21.9234
21.9214
21.9199
21.9187
21.9178
21.9171
21.9165
21.916
21.9155
21.9151
21.9148
21.9145
21.9144
21.9143
21.9142
21.9141
21.9141
21.914
21.914
21.914
21.914
21.9139
21.9139
21.9139
21.9139
21.9139
21.9139
21.9139
21.9139
21.9139
21.9139
21.9139
21.9139
21.9139
21.9139
21.9139
21.9139
21.9139
21.9139
21.9139
21.9139
21.9139
21.9139
21.9139
21.9139
21.9139
21.9139
21.9139
21.9139
21.9139
21.9139
21.9139
21.9139
21.9139
21.9139
21.9139
21.9139
21.9139
21.9139
21.9139
21.9139
21.9139
21.9139
21.9139
21.9139
21.9139
21.9139
21.9139
21.9139
21.9139
21.9139
21.9139
21.9139
21.9139
21.9139
21.9139
21.9139
21.9139
21.9139
21.9139
21.9139
21.9139
21.9139
21.9139
21.9139
21.9139
21.9139
21.9139
21.9139
21.9139
21.9139
21.9139
21.9139
21.9139
21.9139
21.9139
21.9139
21.9139
21.9139
21.9139
21.9139
21.9139
21.9139
21.9139
21.9139
21.9139
21.9139
21.9139
21.9139
21.9139
21.9139
21.9139
21.9139
21.9139
21.9139
21.9139
21.9139
21.9139
21.9139
21.9139
21.9139
21.9139
21.9139
21.9139
21.9139
21.9139
21.9139
21.9139
21.9139
21.9139
21.9139
22.0742
22.0989
22.1273
22.1599
22.1972
22.24
22.2893
22.346
22.4114
22.4869
22.5738
22.6732
22.7861
22.9131
23.0556
23.2154
23.3955
99.6306
98.7207
97.8071
96.8878
95.9602
95.0214
94.0702
93.1061
92.128
91.1328
90.1145
89.0628
87.9632
86.7993
85.5494
84.1959
82.7232
81.0297
79.0762
76.9106
74.574
72.0954
69.4974
66.792
63.9771
61.0494
58.0227
54.9316
51.8215
48.7392
45.7237
42.7949
39.968
37.2802
34.8253
32.8625
31.4602
30.3593
29.3931
28.4923
27.6362
26.8251
26.081
25.4387
24.9063
24.4651
24.0888
23.7589
23.4658
23.2047
22.9728
22.772
22.607
22.4772
22.375
22.2916
22.2215
22.1629
22.1151
22.0769
22.0462
22.0212
22.0006
21.9834
21.9689
21.9568
21.9472
21.9398
21.9341
21.9298
21.9263
21.9235
21.9214
21.9198
21.9185
21.9175
21.9167
21.916
21.9155
21.9151
21.9148
21.9146
21.9144
21.9143
21.9142
21.9141
21.9141
21.914
21.914
21.914
21.914
21.9139
21.9139
21.9139
21.9139
21.9139
21.9139
21.9139
21.9139
21.9139
21.9139
21.9139
21.9139
21.9139
21.9139
21.9139
21.9139
21.9139
21.9139
21.9139
21.9139
21.9139
21.9139
21.9139
21.9139
21.9139
21.9139
21.9139
21.9139
21.9139
21.9139
21.9139
21.9139
21.9139
21.9139
21.9139
21.9139
21.9139
21.9139
21.9139
21.9139
21.9139
21.9139
21.9139
21.9139
21.9139
21.9139
21.9139
21.9139
21.9139
21.9139
21.9139
21.9139
21.9139
21.9139
21.9139
21.9139
21.9139
21.9139
21.9139
21.9139
21.9139
21.9139
21.9139
21.9139
21.9139
21.9139
21.9139
21.9139
21.9139
21.9139
21.9139
21.9139
21.9139
21.9139
21.9139
21.9139
21.9139
21.9139
21.9139
21.9139
21.9139
21.9139
21.9139
21.9139
21.9139
21.9139
21.9139
21.9139
21.9139
21.9139
21.9139
21.9139
21.9139
21.9139
21.9139
21.9139
21.9139
21.9139
21.9139
21.9139
21.9139
21.9139
22.4911
22.5814
22.6858
22.8058
22.9432
23.0993
23.2762
23.4766
23.7044
23.9657
24.2672
24.6158
25.0173
25.4769
25.9982
26.5883
128.902
128.25
127.577
126.88
126.155
125.393
124.59
123.74
122.846
121.919
120.975
120.027
119.093
118.165
117.237
116.305
115.347
114.336
113.273
112.17
111.014
109.815
108.529
107.134
105.641
104.064
102.424
100.715
98.8935
96.9019
94.6802
92.1701
89.3164
86.0686
82.3545
77.9876
72.9577
67.5877
62.1603
56.8481
51.7473
46.9269
42.4614
38.4521
35.1311
32.7832
31.0959
29.7346
28.5452
27.4774
26.5374
25.7488
25.1074
24.5839
24.1438
23.7651
23.4357
23.1482
22.9004
22.6965
22.5379
22.416
22.3191
22.2395
22.1741
22.1217
22.0802
22.0473
22.0208
21.999
21.9808
21.9657
21.9536
21.9442
21.9373
21.9321
21.928
21.9248
21.9223
21.9205
21.919
21.9179
21.9169
21.9162
21.9156
21.9151
21.9148
21.9146
21.9144
21.9143
21.9142
21.9141
21.9141
21.914
21.914
21.914
21.914
21.9139
21.9139
21.9139
21.9139
21.9139
21.9139
21.9139
21.9139
21.9139
21.9139
21.9139
21.9139
21.9139
21.9139
21.9139
21.9139
21.9139
21.9139
21.9139
21.9139
21.9139
21.9139
21.9139
21.9139
21.9139
21.9139
21.9139
21.9139
21.9139
21.9139
21.9139
21.9139
21.9139
21.9139
21.9139
21.9139
21.9139
21.9139
21.9139
21.9139
21.9139
21.9139
21.9139
21.9139
21.9139
21.9139
21.9139
21.9139
21.9139
21.9139
21.9139
21.9139
21.9139
21.9139
21.9139
21.9139
21.9139
21.9139
21.9139
21.9139
21.9139
21.9139
21.9139
21.9139
21.9139
21.9139
21.9139
21.9139
21.9139
21.9139
21.9139
21.9139
21.9139
21.9139
21.9139
21.9139
21.9139
21.9139
21.9139
21.9139
21.9139
21.9139
21.9139
21.9139
21.9139
21.9139
21.9139
21.9139
21.9139
21.9139
21.9139
21.9139
21.9139
21.9139
21.9139
21.9139
23.834
24.1239
24.4585
24.8456
25.2924
25.8057
26.3913
27.0599
27.8248
28.6966
29.6807
30.7805
32.0014
33.3509
34.8448
36.5007
130.725
130.193
129.671
129.161
128.663
128.174
127.692
127.215
126.74
126.263
125.782
125.3
124.828
124.352
123.885
123.431
122.986
122.545
122.111
121.688
121.272
120.847
120.417
119.995
119.508
118.902
118.188
117.396
116.557
115.681
114.757
113.763
112.685
111.517
110.235
108.821
107.25
105.461
103.377
100.914
97.9721
94.4526
90.3073
85.5243
80.0318
73.7393
67.0775
60.5247
54.3282
48.5876
43.3702
38.7863
35.0998
32.5677
30.771
29.3248
28.0704
26.974
26.0533
25.3109
24.7159
24.2274
23.8144
23.4591
23.1512
22.8882
22.6755
22.5137
22.3913
22.2946
22.2159
22.1525
22.1028
22.064
22.0335
22.0088
21.9885
21.9716
21.9578
21.9471
21.9393
21.9335
21.929
21.9255
21.9229
21.9209
21.9193
21.9181
21.9171
21.9163
21.9157
21.9152
21.9149
21.9147
21.9145
21.9144
21.9143
21.9142
21.9141
21.9141
21.914
21.914
21.914
21.914
21.914
21.9139
21.9139
21.9139
21.9139
21.9139
21.9139
21.9139
21.9139
21.9139
21.9139
21.9139
21.9139
21.9139
21.9139
21.9139
21.9139
21.9139
21.9139
21.9139
21.9139
21.9139
21.9139
21.9139
21.9139
21.9139
21.9139
21.9139
21.9139
21.9139
21.9139
21.9139
21.9139
21.9139
21.9139
21.9139
21.9139
21.9139
21.9139
21.9139
21.9139
21.9139
21.9139
21.9139
21.9139
21.9139
21.9139
21.9139
21.9139
21.9139
21.9139
21.9139
21.9139
21.9139
21.9139
21.9139
21.9139
21.9139
21.9139
21.9139
21.9139
21.9139
21.9139
21.9139
21.9139
21.9139
21.914
21.914
21.914
21.914
21.914
21.914
21.914
21.914
21.914
21.914
21.914
21.914
21.914
21.914
21.914
21.914
21.914
21.914
21.914
21.914
21.914
21.914
21.914
28.0173
28.9448
29.9974
31.1794
32.4964
33.956
35.5781
37.3779
39.4641
42.0252
45.1669
48.9464
53.38
58.4507
64.1176
131.28
130.746
130.225
129.716
129.221
128.737
128.263
127.796
127.331
126.862
126.383
125.895
125.409
124.917
124.432
123.963
123.511
123.075
122.66
122.271
121.902
121.537
121.199
120.879
120.577
120.347
120.168
120.008
119.856
119.691
119.512
119.326
119.132
118.904
118.61
118.242
117.808
117.31
116.734
116.052
115.239
114.336
113.387
112.317
110.997
109.303
107.135
104.389
100.96
96.7869
91.8692
86.2453
79.8993
72.8224
65.534
58.5004
51.9332
45.9441
40.6541
36.2844
33.1739
31.0995
29.5141
28.1679
27.0029
26.035
25.2628
24.6498
24.151
23.732
23.3729
23.0638
22.8057
22.6046
22.456
22.3436
22.2541
22.1818
22.1246
22.0804
22.0461
22.0188
21.9965
21.9779
21.9626
21.9505
21.9417
21.9352
21.9303
21.9266
21.9237
21.9216
21.9199
21.9186
21.9176
21.9167
21.916
21.9155
21.9152
21.9149
21.9147
21.9145
21.9144
21.9143
21.9142
21.9142
21.9141
21.9141
21.914
21.914
21.914
21.914
21.914
21.914
21.914
21.9139
21.9139
21.9139
21.9139
21.9139
21.9139
21.9139
21.9139
21.9139
21.9139
21.9139
21.9139
21.9139
21.9139
21.9139
21.9139
21.9139
21.9139
21.9139
21.9139
21.914
21.914
21.914
21.914
21.914
21.914
21.914
21.914
21.914
21.914
21.914
21.914
21.914
21.914
21.914
21.914
21.914
21.914
21.914
21.914
21.914
21.914
21.914
21.914
21.914
21.914
21.914
21.914
21.914
21.914
21.9141
21.9141
21.9141
21.9141
21.9141
21.9141
21.9141
21.9141
21.9141
21.9141
21.9141
21.9141
21.9142
21.9142
21.9142
21.9142
21.9142
21.9142
21.9142
21.9142
21.9143
21.9143
21.9143
21.9143
21.9143
21.9143
21.9144
21.9144
37.4766
39.607
42.1944
45.3576
49.173
53.6744
58.8566
64.684
71.0999
77.9402
84.9451
91.9358
98.7759
105.36
111.606
117.454
130.621
130.093
129.58
129.084
128.606
128.148
127.711
127.291
126.885
126.484
126.081
125.676
125.268
124.85
124.432
124.017
123.609
123.209
122.825
122.465
122.128
121.815
121.538
121.286
121.053
120.844
120.701
120.572
120.448
120.311
120.149
119.991
119.843
119.724
119.675
119.67
119.686
119.727
119.786
119.846
119.931
120.073
120.106
120.027
119.868
119.616
119.227
118.659
117.929
117.112
116.196
115.075
113.578
111.52
108.752
105.179
100.775
95.5715
89.6416
83.0361
75.6947
67.9278
60.3044
53.1486
46.6464
40.9598
36.3156
33.0344
30.9033
29.29
27.9253
26.7621
25.8164
25.072
24.4835
24.0042
23.5999
23.2523
22.9559
22.7156
22.5348
22.4023
22.3005
22.2185
22.153
22.1021
22.0627
22.0319
22.007
21.9864
21.9693
21.9557
21.9456
21.9383
21.9329
21.9287
21.9256
21.9231
21.9213
21.9198
21.9186
21.9176
21.9168
21.9162
21.9157
21.9153
21.915
21.9148
21.9147
21.9145
21.9144
21.9143
21.9143
21.9142
21.9142
21.9141
21.9141
21.9141
21.9141
21.914
21.914
21.914
21.914
21.914
21.914
21.914
21.914
21.914
21.914
21.9141
21.9141
21.9141
21.9141
21.9141
21.9141
21.9141
21.9141
21.9141
21.9141
21.9141
21.9141
21.9141
21.9141
21.9141
21.9141
21.9142
21.9142
21.9142
21.9142
21.9142
21.9142
21.9142
21.9142
21.9142
21.9143
21.9143
21.9143
21.9143
21.9143
21.9143
21.9144
21.9144
21.9144
21.9144
21.9144
21.9145
21.9145
21.9145
21.9145
21.9146
21.9146
21.9146
21.9147
21.9147
21.9147
21.9148
21.9148
21.9148
21.9149
21.9149
21.915
21.915
21.9151
21.9151
21.9152
21.9152
21.9153
21.9154
21.9154
21.9155
21.9156
21.9157
21.9157
69.3341
76.2367
83.4068
90.6478
97.7974
104.724
111.327
117.524
123.271
128.523
133.235
137.383
140.968
129.98
129.465
128.964
128.479
128.012
127.566
127.144
126.745
126.368
126.005
125.648
125.296
124.947
124.591
124.229
123.864
123.503
123.148
122.802
122.471
122.17
121.903
121.669
121.451
121.211
121.016
120.904
120.807
120.719
120.607
120.479
120.363
120.275
120.237
120.239
120.269
120.316
120.384
120.468
120.557
120.686
120.877
121.065
121.251
121.455
121.691
121.953
122.219
122.479
122.707
122.807
122.799
122.647
122.329
121.857
121.276
120.589
119.762
118.694
117.183
114.998
111.975
108.055
103.261
97.6561
91.332
84.3357
76.5804
68.3183
60.2051
52.6587
45.9193
40.1618
35.6031
32.4933
30.4852
28.9303
27.6051
26.4921
25.6011
24.901
24.3443
23.8868
23.4961
23.1584
22.8738
22.6492
22.4835
22.3616
22.2672
22.1919
22.1326
22.0867
22.051
22.0228
21.9998
21.9808
21.9654
21.9534
21.9446
21.938
21.9331
21.9293
21.9263
21.9239
21.9221
21.9206
21.9193
21.9183
21.9174
21.9167
21.9162
21.9157
21.9154
21.9151
21.9149
21.9148
21.9147
21.9146
21.9145
21.9145
21.9145
21.9144
21.9144
21.9144
21.9144
21.9144
21.9144
21.9144
21.9144
21.9144
21.9144
21.9145
21.9145
21.9145
21.9145
21.9145
21.9145
21.9146
21.9146
21.9146
21.9146
21.9147
21.9147
21.9147
21.9148
21.9148
21.9148
21.9149
21.9149
21.915
21.915
21.915
21.9151
21.9151
21.9152
21.9153
21.9153
21.9154
21.9154
21.9155
21.9156
21.9156
21.9157
21.9158
21.9159
21.916
21.9161
21.9162
21.9163
21.9164
21.9165
21.9166
21.9167
21.9168
21.917
21.9171
21.9173
21.9174
21.9176
21.9178
21.918
21.9182
21.9184
21.9186
21.9188
21.9191
21.9194
21.9196
21.9199
21.9202
21.9205
21.9205
121.508
127.25
132.431
137.019
141.003
144.405
147.25
149.589
151.525
153.158
154.549
155.731
156.731
129.396
128.901
128.419
127.952
127.501
127.069
126.66
126.274
125.912
125.57
125.245
124.926
124.613
124.314
124.008
123.689
123.373
123.071
122.771
122.471
122.198
121.966
121.762
121.544
121.282
121.122
121.031
120.954
120.876
120.781
120.688
120.617
120.582
120.581
120.601
120.65
120.722
120.811
120.912
121.027
121.173
121.348
121.539
121.744
121.969
122.219
122.488
122.776
123.082
123.395
123.715
124.044
124.39
124.753
125.118
125.448
125.701
125.868
125.929
125.816
125.53
125.134
124.687
124.142
123.37
122.251
120.569
118.068
114.618
110.235
104.992
98.9683
92.2357
84.7926
76.5499
67.8714
59.4953
51.8485
45.1384
39.5049
35.1279
32.1701
30.2574
28.7426
27.4434
26.36
25.4938
24.8089
24.2606
23.8075
23.4186
23.0849
22.8109
22.6015
22.4492
22.3368
22.2499
22.1808
22.1265
22.084
22.0506
22.0239
22.0019
21.9837
21.9688
21.9571
21.9482
21.9414
21.9361
21.932
21.9286
21.9259
21.9238
21.9221
21.9206
21.9195
21.9185
21.9177
21.9171
21.9166
21.9162
21.916
21.9158
21.9157
21.9157
21.9156
21.9156
21.9156
21.9156
21.9157
21.9157
21.9157
21.9158
21.9158
21.9159
21.9159
21.916
21.9161
21.9162
21.9162
21.9163
21.9164
21.9165
21.9166
21.9167
21.9168
21.9169
21.9171
21.9172
21.9173
21.9175
21.9176
21.9178
21.918
21.9181
21.9183
21.9185
21.9187
21.9189
21.9192
21.9194
21.9196
21.9199
21.9202
21.9205
21.9208
21.9211
21.9215
21.9218
21.9222
21.9226
21.923
21.9235
21.9239
21.9244
21.9249
21.9255
21.926
21.9266
21.9272
21.9279
21.9286
21.9293
21.9301
21.9309
21.9317
21.9326
21.9336
21.9345
21.9356
21.9367
21.9379
21.9379
149.667
151.965
153.87
155.474
156.821
157.951
158.883
159.598
160.076
160.337
160.485
160.53
160.514
160.489
128.896
128.422
127.967
127.524
127.095
126.683
126.291
125.921
125.571
125.242
124.938
124.643
124.347
124.075
123.821
123.547
123.258
122.996
122.749
122.485
122.222
122.02
121.84
121.613
121.372
121.241
121.156
121.081
121.004
120.929
120.868
120.826
120.807
120.823
120.864
120.927
121.007
121.103
121.211
121.338
121.485
121.652
121.841
122.052
122.284
122.537
122.808
123.094
123.392
123.707
124.04
124.39
124.758
125.136
125.514
125.894
126.293
126.716
127.143
127.572
128.014
128.471
128.909
129.26
129.497
129.586
129.501
129.325
129.151
128.946
128.553
127.801
126.514
124.522
121.62
117.769
113.051
107.527
101.207
94.0909
86.1877
77.5154
68.5104
59.9367
52.1613
45.346
39.6298
35.188
32.1413
30.1894
28.6584
27.355
26.2772
25.4181
24.7401
24.1992
23.754
23.3747
23.0539
22.795
22.5985
22.4545
22.3473
22.2637
22.1966
22.143
22.1004
22.0664
22.0387
22.0157
21.9961
21.9796
21.9659
21.9552
21.9469
21.9406
21.9357
21.9319
21.9289
21.9266
21.9249
21.9235
21.9224
21.9215
21.9208
21.9203
21.9199
21.9198
21.9197
21.9197
21.9198
21.9199
21.92
21.9202
21.9204
21.9206
21.9208
21.9211
21.9213
21.9216
21.9219
21.9222
21.9225
21.9229
21.9232
21.9236
21.924
21.9245
21.9249
21.9254
21.9259
21.9265
21.9271
21.9277
21.9283
21.929
21.9296
21.9304
21.9311
21.9319
21.9328
21.9336
21.9346
21.9355
21.9365
21.9376
21.9388
21.9399
21.9412
21.9425
21.9439
21.9453
21.9468
21.9484
21.9501
21.9519
21.9538
21.9558
21.9579
21.9601
21.9624
21.9649
21.9676
21.9704
21.9734
21.9766
21.9801
21.9838
21.9876
21.9917
21.996
22.0007
22.0012
161.453
161.845
162.063
162.166
162.167
162.144
162.114
162.133
162.205
162.262
162.259
162.17
162.016
161.816
128.468
128.019
127.592
127.173
126.765
126.378
126.009
125.66
125.328
125.004
124.72
124.455
124.162
123.881
123.674
123.45
123.165
122.919
122.728
122.494
122.24
122.071
121.901
121.672
121.483
121.364
121.274
121.195
121.122
121.058
121.015
120.993
120.993
121.019
121.068
121.137
121.221
121.318
121.43
121.558
121.702
121.862
122.045
122.249
122.473
122.718
122.981
123.258
123.55
123.863
124.198
124.554
124.928
125.309
125.694
126.091
126.513
126.956
127.409
127.872
128.351
128.841
129.346
129.876
130.427
130.98
131.555
132.188
132.868
133.481
133.954
134.3
134.482
134.581
134.714
134.819
134.765
134.405
133.593
132.157
129.944
126.919
123.001
118.151
112.334
105.53
97.7773
89.166
79.8322
70.198
61.0596
52.811
45.637
39.7013
35.1643
32.0787
30.1206
28.6038
27.325
26.2746
25.4386
24.7782
24.2507
23.8176
23.4487
23.1349
22.8769
22.675
22.5224
22.4067
22.3158
22.2414
22.1804
22.1309
22.0911
22.0587
22.0322
22.0101
21.9916
21.9764
21.9644
21.9555
21.949
21.9443
21.9408
21.9384
21.9367
21.9355
21.9347
21.9343
21.9342
21.9342
21.9345
21.9348
21.9354
21.936
21.9367
21.9375
21.9384
21.9393
21.9402
21.9413
21.9423
21.9435
21.9447
21.946
21.9474
21.9488
21.9504
21.952
21.9537
21.9555
21.9574
21.9594
21.9615
21.9637
21.966
21.9684
21.9709
21.9736
21.9764
21.9794
21.9826
21.9859
21.9895
21.9933
21.9973
22.0015
22.0061
22.0109
22.016
22.0214
22.0271
22.0331
22.0393
22.0459
22.0527
22.0598
22.0673
22.0751
22.0834
22.0923
22.1017
22.1117
22.1222
22.1334
22.1452
22.1576
22.1707
22.1848
22.1996
22.2171
22.2196
163.848
163.908
163.942
163.889
163.755
163.56
163.322
163.091
162.923
162.797
162.665
162.499
162.293
162.053
128.103
127.677
127.271
126.878
126.497
126.134
125.788
125.459
125.146
124.83
124.561
124.327
124.032
123.751
123.564
123.371
123.093
122.867
122.697
122.475
122.264
122.106
121.927
121.734
121.583
121.467
121.369
121.283
121.217
121.169
121.139
121.128
121.138
121.17
121.223
121.294
121.379
121.477
121.589
121.715
121.854
122.009
122.183
122.378
122.593
122.828
123.082
123.348
123.632
123.936
124.264
124.613
124.979
125.356
125.746
126.156
126.588
127.037
127.503
127.984
128.477
128.983
129.516
130.08
130.662
131.26
131.898
132.582
133.281
133.995
134.743
135.5
136.279
137.144
138.03
138.856
139.644
140.36
141.004
141.588
142.056
142.364
142.515
142.431
141.988
141.054
139.453
137.032
133.738
129.402
123.915
117.237
109.422
100.633
91.0814
80.9934
70.8268
61.3698
52.9809
45.7953
39.9168
35.4319
32.3409
30.3785
28.8921
27.6354
26.5894
25.7442
25.067
24.519
24.0658
23.6772
23.3371
23.0447
22.8045
22.6175
22.4763
22.3687
22.2837
22.2154
22.1611
22.1185
22.0849
22.0583
22.0367
22.0192
22.0054
21.9952
21.9883
21.9842
21.9819
21.981
21.981
21.9817
21.9829
21.9846
21.9867
21.9891
21.9917
21.9946
21.9977
22.0011
22.0047
22.0085
22.0125
22.0169
22.0215
22.0265
22.0317
22.0373
22.0433
22.0497
22.0565
22.0636
22.0711
22.0788
22.0869
22.0953
22.1041
22.1133
22.123
22.1331
22.1438
22.1551
22.1669
22.1794
22.1927
22.2068
22.2218
22.2377
22.2546
22.2724
22.2912
22.311
22.3318
22.3538
22.3769
22.4013
22.427
22.4541
22.4828
22.513
22.545
22.5791
22.6156
22.6549
22.6974
22.7435
22.7933
22.8473
22.9038
22.9712
22.9918
164.713
164.525
164.364
164.177
163.955
163.696
163.41
163.111
162.815
162.564
162.354
162.168
161.985
127.789
127.381
126.999
126.629
126.272
125.932
125.605
125.294
124.991
124.694
124.445
124.212
123.921
123.667
123.489
123.28
123.032
122.832
122.649
122.45
122.273
122.108
121.937
121.781
121.645
121.526
121.43
121.352
121.293
121.253
121.231
121.227
121.243
121.278
121.332
121.403
121.488
121.586
121.696
121.817
121.952
122.101
122.268
122.456
122.663
122.888
123.131
123.388
123.667
123.964
124.283
124.623
124.98
125.354
125.747
126.16
126.592
127.043
127.511
127.995
128.493
129.014
129.565
130.14
130.738
131.367
132.031
132.715
133.423
134.175
134.952
135.744
136.608
137.536
138.466
139.422
140.408
141.418
142.478
143.522
144.506
145.56
146.691
147.772
148.82
149.798
150.611
151.253
151.62
151.614
151.177
150.174
148.495
146.156
142.973
138.698
133.288
126.807
119.323
110.942
101.818
92.145
82.1396
72.1719
62.9378
54.7603
47.7108
41.8276
37.1491
33.6876
31.3572
29.7493
28.4004
27.2366
26.2644
25.4714
24.828
24.3023
23.864
23.4875
23.1659
22.9028
22.6997
22.5498
22.4397
22.3563
22.2922
22.2435
22.2077
22.1818
22.1637
22.1518
22.1447
22.1417
22.1419
22.1445
22.1493
22.156
22.1641
22.1733
22.1833
22.194
22.2054
22.2176
22.2305
22.2442
22.2589
22.2746
22.2914
22.3093
22.3284
22.3486
22.37
22.3926
22.4165
22.4417
22.4681
22.4958
22.5247
22.5549
22.5864
22.6196
22.6546
22.6916
22.731
22.773
22.8179
22.866
22.9174
22.9724
23.0315
23.095
23.1632
23.2363
23.3141
23.396
23.4814
23.5699
23.6613
23.7561
23.8551
23.9591
24.0692
24.1862
24.3106
24.4428
24.5829
24.7313
24.8884
25.058
25.2353
25.4561
25.5629
164.55
164.229
163.954
163.716
163.495
163.275
163.046
162.804
162.552
162.311
162.093
161.902
161.728
126.754
126.406
126.072
125.75
125.44
125.142
124.851
124.577
124.338
124.089
123.824
123.6
123.407
123.186
122.97
122.779
122.592
122.414
122.249
122.085
121.927
121.789
121.664
121.554
121.463
121.392
121.339
121.306
121.289
121.29
121.308
121.345
121.398
121.468
121.551
121.647
121.753
121.871
122.001
122.146
122.308
122.489
122.689
122.906
123.141
123.392
123.663
123.953
124.268
124.601
124.952
125.324
125.718
126.132
126.565
127.017
127.485
127.969
128.474
129.006
129.563
130.143
130.752
131.392
132.056
132.745
133.469
134.228
135.013
135.854
136.748
137.64
138.552
139.538
140.57
141.626
142.687
143.728
144.844
146.097
147.378
148.663
149.974
151.185
152.317
153.48
154.624
155.71
156.737
157.625
158.301
158.804
158.976
158.546
157.545
156.132
154.284
151.859
148.731
144.798
140.014
134.403
128.002
120.849
113.009
104.578
95.6894
86.4705
77.0697
67.8989
59.4555
51.8975
45.3154
39.8166
35.5086
32.4401
30.4415
28.925
27.6409
26.5743
25.7172
25.0364
24.4931
24.0522
23.6835
23.3762
23.1321
22.952
22.8289
22.749
22.6985
22.6679
22.6528
22.6503
22.6573
22.6706
22.6904
22.7155
22.7447
22.7773
22.8129
22.8514
22.8928
22.9371
22.9845
23.0353
23.0898
23.1485
23.2118
23.2802
23.354
23.4333
23.5178
23.6068
23.6996
23.7957
23.8954
23.9989
24.1068
24.2191
24.3362
24.4584
24.586
24.7198
24.8608
25.0101
25.1695
25.3403
25.5239
25.7213
25.933
26.1595
26.4012
26.6586
26.932
27.2207
27.5246
27.8439
28.1795
28.5314
28.9002
29.2866
29.6941
30.1279
30.5951
31.1105
31.6722
32.3169
33.0016
33.7986
34.6656
163.836
163.57
163.33
163.115
162.915
162.721
162.525
162.322
162.117
161.919
161.733
161.563
126.525
126.192
125.873
125.566
125.27
124.984
124.708
124.451
124.209
123.961
123.722
123.509
123.301
123.088
122.89
122.702
122.518
122.348
122.19
122.036
121.893
121.764
121.648
121.547
121.464
121.399
121.353
121.324
121.311
121.315
121.336
121.372
121.425
121.492
121.573
121.665
121.768
121.882
122.009
122.15
122.307
122.482
122.675
122.886
123.114
123.36
123.626
123.913
124.221
124.549
124.903
125.274
125.667
126.082
126.517
126.969
127.439
127.928
128.44
128.977
129.538
130.126
130.742
131.385
132.057
132.761
133.497
134.259
135.056
135.904
136.775
137.659
138.595
139.591
140.615
141.652
142.68
143.749
144.952
146.228
147.472
148.711
149.917
151.1
152.361
153.662
154.95
156.268
157.582
158.788
159.847
160.674
161.231
161.612
161.881
162.09
162.196
162.095
161.787
161.254
160.433
159.223
157.563
155.405
152.715
149.492
145.724
141.363
136.369
130.721
124.371
117.265
109.39
100.795
91.5722
81.8466
71.9561
62.6246
54.2636
47.027
41.024
36.345
33.0163
30.8784
29.3436
28.0824
27.0601
26.2647
25.6614
25.2113
24.8827
24.6469
24.4849
24.3879
24.3464
24.3475
24.3807
24.4401
24.5211
24.6181
24.7269
24.845
24.9712
25.1054
25.2483
25.4011
25.5649
25.7405
25.9289
26.1309
26.3477
26.5812
26.8326
27.1027
27.3908
27.6945
28.0112
28.3399
28.6804
29.0341
29.4032
29.7908
30.2
30.6345
31.0978
31.5933
32.1248
32.697
33.3169
33.9943
34.7422
35.5751
36.5074
37.5504
38.71
39.964
41.2628
42.5901
43.9421
45.3272
46.7462
48.2267
49.7504
51.3527
52.9579
54.5997
56.149
57.6436
59.0397
60.3345
61.8602
163.495
163.264
163.044
162.839
162.65
162.473
162.301
162.131
161.959
161.788
126.285
125.962
125.654
125.36
125.075
124.802
124.54
124.292
124.051
123.814
123.59
123.379
123.172
122.968
122.775
122.593
122.418
122.255
122.102
121.959
121.827
121.707
121.6
121.508
121.433
121.375
121.334
121.309
121.299
121.305
121.327
121.363
121.414
121.479
121.556
121.644
121.744
121.854
121.978
122.115
122.269
122.439
122.626
122.831
123.054
123.296
123.559
123.843
124.149
124.476
124.826
125.199
125.599
126.015
126.451
126.905
127.379
127.874
128.392
128.934
129.501
130.097
130.719
131.37
132.049
132.756
133.49
134.254
135.062
135.906
136.75
137.632
138.601
139.61
140.592
141.562
142.6
143.765
144.992
146.161
147.318
148.516
149.722
150.976
152.287
153.572
154.871
156.228
157.487
158.609
159.679
160.564
161.247
161.918
162.602
163.153
163.552
163.841
164.012
164.051
163.892
163.503
162.981
162.386
161.759
161.134
160.459
159.692
158.783
157.665
156.251
154.423
152.035
148.926
144.954
140.06
134.291
127.68
120.222
111.945
102.952
93.3923
83.4399
73.366
63.838
55.3827
48.1737
42.2969
37.8021
34.6727
32.7491
31.5662
30.705
30.0913
29.7063
29.5167
29.472
29.5454
29.6967
29.9231
30.2093
30.5438
30.9184
31.329
31.7733
32.2506
32.7622
33.3136
33.9134
34.5722
35.3004
36.1067
36.9998
37.9914
39.0936
40.2778
41.5134
42.7976
44.1325
45.515
46.9364
48.3847
49.8469
51.3105
52.7666
54.2133
55.6566
57.1055
58.5641
60.0251
61.4663
62.8559
64.1589
65.3496
66.414
67.3821
68.3036
69.2149
70.1249
71.0474
71.9545
72.8045
73.5597
74.1546
74.6408
74.9698
75.3145
75.6136
76.0841
76.5734
77.2905
163.01
162.818
162.633
162.458
162.294
162.137
161.986
161.836
161.688
125.692
125.397
125.114
124.842
124.581
124.331
124.089
123.856
123.632
123.415
123.207
123.007
122.813
122.628
122.452
122.286
122.131
121.986
121.853
121.73
121.62
121.522
121.439
121.371
121.319
121.283
121.261
121.254
121.261
121.283
121.319
121.368
121.43
121.504
121.589
121.685
121.793
121.913
122.047
122.197
122.362
122.545
122.745
122.964
123.204
123.465
123.747
124.052
124.38
124.732
125.108
125.507
125.926
126.37
126.827
127.305
127.806
128.33
128.881
129.455
130.056
130.683
131.335
132.014
132.717
133.452
134.229
135.038
135.859
136.726
137.673
138.647
139.596
140.561
141.59
142.681
143.818
144.955
146.094
147.267
148.439
149.629
150.909
152.2
153.43
154.728
156.06
157.194
158.238
159.374
160.334
161.036
161.761
162.538
163.078
163.468
163.814
164.04
164.138
164.124
164.035
163.944
163.904
163.884
163.815
163.651
163.41
163.132
162.8
162.396
161.925
161.398
160.823
160.22
159.604
158.828
157.733
156.182
154.006
151.028
147.097
142.118
136.103
129.186
121.476
113.062
104.095
94.791
85.3816
76.2187
67.9178
61.0132
55.6355
51.7446
49.1974
47.7647
47.1574
47.0687
47.4644
48.1984
49.1799
50.3219
51.55
52.8278
54.1519
55.5211
56.9234
58.3348
59.7256
61.0762
62.3873
63.6702
64.9271
66.1436
67.3263
68.4706
69.5452
70.523
71.3996
72.195
72.9398
73.6606
74.3755
75.0941
75.8146
76.5209
77.1835
77.7698
78.2586
78.6513
78.97
79.2471
79.5127
79.7904
80.0905
80.4124
80.7287
81.0243
81.2508
81.4115
81.4663
81.4961
81.4937
81.5302
81.6007
81.783
82.0227
82.3384
82.5981
82.6649
162.803
162.636
125.365
125.086
124.817
124.558
124.311
124.072
123.839
123.615
123.402
123.195
122.996
122.804
122.62
122.444
122.277
122.121
121.975
121.841
121.717
121.605
121.504
121.416
121.341
121.28
121.233
121.201
121.182
121.177
121.185
121.207
121.241
121.289
121.348
121.42
121.502
121.595
121.7
121.818
121.949
122.095
122.257
122.435
122.632
122.848
123.086
123.345
123.628
123.934
124.265
124.619
124.998
125.4
125.824
126.269
126.731
127.221
127.731
128.26
128.814
129.394
129.996
130.623
131.272
131.95
132.665
133.418
134.202
135.008
135.853
136.757
137.688
138.613
139.564
140.571
141.62
142.699
143.798
144.908
146.052
147.217
148.363
149.568
150.864
152.094
153.273
154.576
155.862
156.905
157.956
159.25
160.281
160.926
161.619
162.428
162.883
163.164
163.494
163.806
163.974
164.05
164.129
164.203
164.242
164.225
164.129
163.925
163.648
163.457
163.313
163.197
163.17
163.305
163.609
164.008
164.352
164.528
164.495
164.261
163.853
163.205
162.348
161.34
160.235
158.946
157.191
154.766
151.481
147.207
141.918
135.73
128.787
121.229
113.334
105.495
98.1406
91.6586
86.3376
82.298
79.4221
77.4963
76.3219
75.727
75.5182
75.62
75.9853
76.4861
77.0212
77.5558
78.085
78.6218
79.1641
79.682
80.1349
80.498
80.7827
81.0263
81.2673
81.5333
81.8349
82.1606
82.4869
82.7923
83.0626
83.2897
83.4673
83.5974
83.694
83.7725
83.8491
83.937
84.0444
84.1734
84.3164
84.4603
84.5851
84.6725
84.7047
84.6937
84.6393
84.5439
84.45
84.3995
84.3831
84.43
84.5409
84.6901
84.8101
84.8608
84.8397
84.6452
124.977
124.717
124.466
124.22
123.986
123.76
123.541
123.329
123.127
122.931
122.743
122.562
122.389
122.225
122.07
121.925
121.791
121.667
121.554
121.452
121.361
121.282
121.214
121.16
121.118
121.089
121.072
121.069
121.078
121.099
121.134
121.18
121.238
121.307
121.387
121.478
121.581
121.696
121.824
121.967
122.125
122.3
122.495
122.709
122.946
123.206
123.489
123.797
124.131
124.49
124.872
125.277
125.706
126.158
126.63
127.123
127.635
128.172
128.731
129.308
129.909
130.537
131.199
131.894
132.622
133.38
134.163
134.979
135.84
136.735
137.645
138.581
139.558
140.572
141.61
142.674
143.757
144.865
146.013
147.156
148.291
149.522
150.797
151.95
153.102
154.41
155.639
156.633
157.732
159.176
160.19
160.764
161.449
162.242
162.634
162.908
163.258
163.648
163.946
164.13
164.273
164.358
164.342
164.241
164.051
163.793
163.599
163.461
163.375
163.398
163.574
163.901
164.316
164.72
165.037
165.256
165.408
165.536
165.686
165.894
166.193
166.574
166.929
167.06
166.909
166.508
165.862
164.949
163.789
162.217
159.959
156.853
152.789
147.666
141.482
134.383
126.691
118.844
111.344
104.667
99.1291
94.8227
91.643
89.3637
87.747
86.6009
85.8029
85.2875
84.993
84.843
84.7723
84.7447
84.7569
84.8037
84.8834
84.9969
85.135
85.2719
85.3735
85.4247
85.4549
85.4945
85.5546
85.6309
85.7129
85.7948
85.8765
85.9587
86.04
86.1168
86.1839
86.236
86.2664
86.2727
86.2594
86.2206
86.166
86.1077
86.0489
86.0071
85.991
86.0136
86.0816
86.1778
86.2712
86.326
86.3278
86.2847
86.1786
85.9401
124.534
124.292
124.059
123.832
123.613
123.401
123.197
123
122.81
122.628
122.453