/*--------------------------------*- C++ -*----------------------------------*\
| =========                 |                                                 |
| \\      /  F ield         | OpenFOAM: The Open Source CFD Toolbox           |
|  \\    /   O peration     | Version:  v1706                                 |
|   \\  /    A nd           | Web:      www.OpenFOAM.com                      |
|    \\/     M anipulation  |                                                 |
\*---------------------------------------------------------------------------*/
FoamFile
{
    version     2.0;
    format      ascii;
    class       volVectorField;
    location    "3.7e-05";
    object      U;
}
// * * * * * * * * * * * * * * * * * * * * * * * * * * * * * * * * * * * * * //

dimensions      [0 1 -1 0 0 0 0];


internalField   nonuniform List<vector> 
30104
(
(978.444 0.163162 3.96873e-15)
(978.423 0.188673 6.34959e-15)
(978.398 0.217646 5.2539e-15)
(978.371 0.250466 4.06541e-15)
(978.34 0.287668 5.29865e-15)
(978.306 0.330101 4.44371e-15)
(978.266 0.378782 1.59481e-15)
(978.22 0.435083 2.43501e-15)
(978.167 0.500818 5.55165e-15)
(978.104 0.578092 7.10037e-15)
(978.029 0.66887 5.15444e-15)
(977.942 0.774314 4.32114e-15)
(977.842 0.894895 2.55553e-15)
(977.73 1.02977 4.84745e-15)
(977.606 1.17881 6.67376e-15)
(977.471 1.34219 6.34028e-15)
(977.322 1.52066 5.51392e-15)
(935.399 70.5031 1.83142e-15)
(936.428 68.8266 3.85411e-15)
(937.445 67.1666 3.71024e-15)
(938.454 65.522 3.55372e-15)
(939.456 63.8903 3.63013e-15)
(940.454 62.2691 3.69007e-15)
(941.452 60.6569 2.87405e-15)
(942.45 59.0532 4.40648e-15)
(943.451 57.4577 4.09281e-15)
(944.459 55.8694 2.51033e-15)
(945.478 54.2862 2.56714e-15)
(946.513 52.7058 2.16093e-15)
(947.571 51.1256 4.244e-15)
(948.658 49.5359 4.07325e-15)
(949.789 47.9201 1.11232e-15)
(950.959 46.3186 2.46619e-15)
(952.121 44.7429 2.36839e-15)
(952.979 43.5084 2.08823e-15)
(953.632 42.5508 4.94735e-15)
(954.361 41.5575 2.18318e-15)
(955.212 40.4527 4.39857e-15)
(956.158 39.2318 4.85343e-15)
(957.173 37.9003 2.7053e-15)
(958.24 36.4597 3.11007e-15)
(959.349 34.9028 2.81946e-15)
(960.493 33.2175 2.97966e-15)
(961.67 31.3933 3.02879e-15)
(962.876 29.4365 3.33783e-15)
(964.092 27.3756 3.32334e-15)
(965.325 25.2113 3.87813e-15)
(966.604 22.9317 1.99726e-15)
(967.858 20.6222 4.26455e-15)
(969.039 18.2765 4.77237e-15)
(970.37 15.7203 3.30313e-15)
(971.799 13.1952 2.08476e-15)
(972.946 11.0478 2.58051e-15)
(973.818 9.45156 4.77266e-15)
(974.576 8.22552 2.22424e-15)
(975.234 7.19881 3.30015e-15)
(975.794 6.28027 3.92339e-15)
(976.271 5.42608 2.69546e-15)
(976.659 4.65475 3.75878e-15)
(976.927 4.02425 3.45924e-15)
(977.073 3.54294 4.58036e-15)
(977.164 3.14652 4.83638e-15)
(977.278 2.7689 3.32098e-15)
(977.433 2.39769 3.80948e-15)
(977.601 2.05222 2.5542e-15)
(977.756 1.73904 3.67355e-15)
(977.893 1.44787 1.3835e-15)
(978.02 1.16804 5.34314e-15)
(978.142 0.911466 3.07531e-15)
(978.248 0.700696 1.28978e-15)
(978.332 0.543727 2.90704e-15)
(978.397 0.428761 3.44144e-15)
(978.445 0.341223 1.25928e-15)
(978.478 0.274633 3.61509e-15)
(978.496 0.226557 2.84247e-15)
(978.504 0.192654 2.32553e-15)
(978.509 0.165855 2.46578e-15)
(978.517 0.140817 1.82582e-15)
(978.526 0.117153 4.22876e-15)
(978.536 0.0959582 4.04622e-15)
(978.544 0.0769484 2.81085e-15)
(978.552 0.0595437 5.47308e-15)
(978.559 0.0442496 4.09214e-15)
(978.566 0.0320715 3.74579e-15)
(978.57 0.0233198 4.13348e-15)
(978.574 0.0173092 3.30252e-15)
(978.576 0.0132072 3.85949e-15)
(978.577 0.0104836 2.80236e-15)
(978.577 0.00871788 2.8121e-15)
(978.577 0.0074109 3.20536e-15)
(978.577 0.00616606 7.80661e-16)
(978.578 0.00497076 4.00349e-15)
(978.578 0.00391476 4.06428e-15)
(978.579 0.00297269 3.39132e-15)
(978.579 0.00213472 5.33057e-16)
(978.579 0.00145636 -2.48683e-16)
(978.58 0.000979995 3.27243e-15)
(978.58 0.000683532 6.41125e-16)
(978.58 0.000504992 2.56891e-15)
(978.58 0.000398419 1.42143e-15)
(978.58 0.000334684 8.46535e-16)
(978.58 0.000282851 5.23453e-15)
(978.58 0.000227386 4.66478e-15)
(978.58 0.000175969 3.24575e-15)
(978.58 0.000130499 2.10863e-15)
(978.58 9.04663e-05 2.69106e-15)
(978.58 5.87244e-05 3.65904e-15)
(978.58 3.82139e-05 3.0978e-15)
(978.58 2.7526e-05 3.46429e-15)
(978.58 2.16668e-05 4.3219e-15)
(978.58 1.81869e-05 3.26629e-15)
(978.58 1.56264e-05 2.03574e-16)
(978.58 1.29276e-05 3.90244e-15)
(978.58 1.03029e-05 7.43163e-16)
(978.58 7.95557e-06 6.80477e-16)
(978.58 5.85274e-06 3.33085e-15)
(978.58 4.10395e-06 3.17872e-15)
(978.58 2.87085e-06 3.06059e-15)
(978.58 2.19739e-06 2.56949e-15)
(978.58 1.83157e-06 2.04088e-15)
(978.58 1.61043e-06 2.83821e-15)
(978.58 1.46526e-06 2.39826e-15)
(978.58 1.34542e-06 3.56928e-15)
(978.58 1.22609e-06 1.67274e-15)
(978.58 1.10432e-06 1.38931e-15)
(978.58 9.85448e-07 3.75859e-15)
(978.58 8.71987e-07 3.79232e-15)
(978.58 7.67903e-07 3.09343e-15)
(978.58 6.77901e-07 3.26664e-15)
(978.58 6.1115e-07 2.78111e-15)
(978.58 5.7663e-07 2.30116e-15)
(978.58 5.69616e-07 1.62944e-15)
(978.58 5.7774e-07 2.00751e-15)
(978.58 5.9862e-07 2.66731e-15)
(978.58 6.25542e-07 3.21286e-15)
(978.58 6.52437e-07 2.89858e-15)
(978.58 6.75533e-07 2.72969e-15)
(978.58 6.91291e-07 2.19016e-15)
(978.58 7.01523e-07 1.74774e-15)
(978.58 7.11067e-07 3.35444e-15)
(978.58 7.20061e-07 2.83646e-15)
(978.58 7.29184e-07 1.25774e-16)
(978.58 7.39587e-07 2.04658e-16)
(978.58 7.51803e-07 1.03628e-15)
(978.58 7.65869e-07 1.29838e-15)
(978.58 7.81567e-07 2.0683e-15)
(978.58 7.9859e-07 1.41732e-15)
(978.58 8.16684e-07 1.99714e-15)
(978.58 8.35704e-07 2.3135e-15)
(978.58 8.55632e-07 2.06204e-15)
(978.58 8.76509e-07 2.43144e-15)
(978.58 8.98359e-07 1.75768e-15)
(978.58 9.21147e-07 2.64946e-15)
(978.58 9.44807e-07 1.41482e-15)
(978.58 9.69334e-07 2.77873e-15)
(978.58 9.94857e-07 2.27635e-15)
(978.58 1.02162e-06 2.42968e-15)
(978.58 1.04984e-06 3.68193e-15)
(978.58 1.07951e-06 3.64372e-15)
(978.58 1.11035e-06 2.86389e-15)
(978.58 1.14193e-06 2.84473e-15)
(978.58 1.17384e-06 1.89301e-15)
(978.58 1.20598e-06 3.07962e-15)
(978.58 1.23856e-06 4.18217e-15)
(978.58 1.27203e-06 3.15638e-15)
(978.58 1.30696e-06 1.70652e-15)
(978.58 1.34385e-06 1.72937e-15)
(978.58 1.38306e-06 2.9429e-15)
(978.58 1.42486e-06 1.25494e-15)
(978.58 1.46945e-06 2.33749e-15)
(978.58 1.51696e-06 2.3361e-15)
(978.58 1.56751e-06 3.1135e-15)
(978.58 1.62112e-06 3.06622e-15)
(978.58 1.67774e-06 2.60088e-15)
(978.58 1.73726e-06 2.95297e-15)
(978.58 1.79966e-06 1.99395e-15)
(978.58 1.86511e-06 1.28701e-15)
(978.58 1.93405e-06 1.83762e-15)
(978.58 2.00711e-06 2.75045e-15)
(978.58 2.0849e-06 1.20055e-15)
(978.58 2.16772e-06 2.45692e-15)
(978.58 2.25545e-06 2.32726e-15)
(978.58 2.34747e-06 2.45879e-15)
(978.58 2.44288e-06 3.41697e-15)
(978.58 2.54072e-06 2.11967e-15)
(978.58 2.64032e-06 1.52078e-15)
(978.58 2.74143e-06 7.09882e-16)
(978.58 2.84425e-06 2.77901e-15)
(978.58 2.94918e-06 1.90666e-15)
(978.58 3.05649e-06 2.17836e-15)
(978.58 3.16609e-06 1.06225e-15)
(978.58 3.2774e-06 1.18611e-15)
(978.58 3.38955e-06 1.3239e-15)
(978.58 3.50166e-06 2.65393e-15)
(978.58 3.61331e-06 1.99892e-15)
(978.58 3.72493e-06 1.12853e-15)
(978.58 3.83805e-06 1.31348e-15)
(978.58 3.955e-06 1.31974e-15)
(978.58 4.07822e-06 1.92014e-15)
(978.58 4.2093e-06 2.88683e-15)
(978.58 4.34761e-06 2.17915e-15)
(978.58 4.49099e-06 2.91043e-15)
(978.58 4.63447e-06 2.66826e-15)
(978.58 4.77553e-06 1.73584e-15)
(978.58 4.91084e-06 2.88068e-15)
(978.58 5.04471e-06 2.54369e-15)
(978.58 5.18599e-06 1.92754e-15)
(978.58 5.36196e-06 2.03475e-15)
(978.58 5.54229e-06 1.82269e-15)
(978.58 5.20539e-06 1.63558e-15)
(977.672 0.969658 1.45859e-14)
(977.532 1.12114 1.43868e-14)
(977.369 1.29744 1.23614e-14)
(977.18 1.50228 1.2561e-14)
(976.961 1.73902 1.34748e-14)
(976.712 2.00984 1.30165e-14)
(976.429 2.31746 1.23676e-14)
(976.109 2.66423 1.41527e-14)
(975.75 3.0537 1.56291e-14)
(975.345 3.49266 1.40076e-14)
(974.887 3.99151 1.43175e-14)
(974.364 4.56413 1.60502e-14)
(973.764 5.22507 1.66029e-14)
(973.071 5.9924 1.50752e-14)
(972.277 6.87775 1.50583e-14)
(971.365 7.89605 1.43944e-14)
(970.31 9.06921 1.22447e-14)
(808.119 274.552 2.15575e-15)
(808.905 273.27 4.48549e-15)
(809.747 271.908 5.85362e-15)
(810.661 270.455 5.42824e-15)
(811.663 268.898 5.13288e-15)
(812.773 267.218 5.0832e-15)
(814.016 265.388 4.91502e-15)
(815.417 263.377 5.19089e-15)
(817.004 261.155 5.18506e-15)
(818.796 258.708 2.83777e-15)
(820.807 256.034 1.32398e-15)
(823.04 253.148 3.27194e-15)
(825.496 250.076 1.78883e-15)
(828.172 246.839 1.62143e-15)
(831.065 243.463 2.11563e-16)
(834.226 239.903 1.63968e-15)
(837.69 236.139 2.15743e-15)
(841.527 232.113 2.97495e-15)
(845.842 227.521 5.82119e-15)
(850.575 222.258 3.72102e-15)
(855.606 216.395 5.57657e-15)
(860.866 209.991 6.57375e-15)
(866.353 203.034 6.23491e-15)
(872.056 195.537 6.09413e-15)
(877.922 187.556 6.39889e-15)
(883.873 179.145 6.49517e-15)
(889.828 170.344 6.60188e-15)
(895.737 161.179 7.17992e-15)
(901.611 151.654 6.50125e-15)
(907.514 141.763 7.20932e-15)
(913.499 131.561 5.90674e-15)
(919.539 121.143 8.45728e-15)
(925.565 110.559 6.96382e-15)
(931.43 100.009 7.17914e-15)
(936.744 89.731 4.41689e-15)
(940.889 80.5089 7.47792e-15)
(944.173 73.0343 8.86952e-15)
(947.424 66.5211 6.95654e-15)
(950.801 60.3186 7.62359e-15)
(954.237 54.1157 1.01095e-14)
(957.603 47.8737 8.93201e-15)
(960.803 41.6074 1.08021e-14)
(963.867 35.2468 7.84184e-15)
(966.691 29.0435 8.64448e-15)
(968.92 23.7137 1.06682e-14)
(970.56 19.6409 8.42357e-15)
(971.893 16.5312 6.00758e-15)
(973.057 13.9858 6.47253e-15)
(974.072 11.7716 9.79947e-15)
(974.905 9.83706 6.2187e-15)
(975.516 8.2217 8.18113e-15)
(975.935 6.92067 8.57794e-15)
(976.253 5.85383 7.32929e-15)
(976.559 4.94327 8.12791e-15)
(976.873 4.1523 5.08524e-15)
(977.17 3.46364 6.29748e-15)
(977.433 2.85171 8.71401e-15)
(977.665 2.29524 8.72457e-15)
(977.868 1.80101 1.0104e-14)
(978.035 1.39511 7.77934e-15)
(978.165 1.08648 6.4422e-15)
(978.265 0.856 6.95961e-15)
(978.34 0.679381 7.92767e-15)
(978.392 0.542358 7.10809e-15)
(978.427 0.437652 9.39114e-15)
(978.45 0.357641 9.05873e-15)
(978.468 0.293328 6.79304e-15)
(978.487 0.239111 6.79487e-15)
(978.504 0.193283 9.082e-15)
(978.52 0.15436 8.23123e-15)
(978.533 0.12049 8.0438e-15)
(978.545 0.0911324 7.21696e-15)
(978.555 0.0673213 7.61307e-15)
(978.562 0.0497213 6.74452e-15)
(978.568 0.0373232 1.05157e-14)
(978.571 0.0284957 8.0638e-15)
(978.573 0.022098 6.41769e-15)
(978.574 0.0174405 5.80594e-15)
(978.575 0.0139226 5.31436e-15)
(978.576 0.0110811 6.33794e-15)
(978.577 0.00873791 4.1168e-15)
(978.577 0.00678806 5.5937e-15)
(978.578 0.0051131 7.3726e-15)
(978.579 0.00369248 7.9409e-15)
(978.579 0.0025975 8.09977e-15)
(978.579 0.00184821 7.88095e-15)
(978.58 0.00135824 6.08623e-15)
(978.58 0.00102811 5.88684e-15)
(978.58 0.000798384 7.59199e-15)
(978.58 0.000630882 7.24217e-15)
(978.58 0.000498068 8.2662e-15)
(978.58 0.00038894 7.70558e-15)
(978.58 0.000298217 7.14491e-15)
(978.58 0.000221456 6.30293e-15)
(978.58 0.000159534 2.76872e-15)
(978.58 0.000114747 6.60857e-15)
(978.58 8.52141e-05 3.43011e-15)
(978.58 6.58536e-05 5.75268e-15)
(978.58 5.25091e-05 7.71029e-15)
(978.58 4.28219e-05 5.69968e-15)
(978.58 3.53171e-05 7.08793e-15)
(978.58 2.91366e-05 5.051e-15)
(978.58 2.39049e-05 6.04503e-15)
(978.58 1.94043e-05 7.55076e-15)
(978.58 1.55522e-05 8.02749e-15)
(978.58 1.23912e-05 6.86286e-15)
(978.58 9.9469e-06 5.05708e-15)
(978.58 8.19066e-06 7.03635e-15)
(978.58 7.02556e-06 6.35914e-15)
(978.58 6.29004e-06 6.24891e-15)
(978.58 5.84764e-06 9.42695e-15)
(978.58 5.60463e-06 9.94015e-15)
(978.58 5.4731e-06 5.89898e-15)
(978.58 5.38013e-06 6.91068e-15)
(978.58 5.285e-06 6.28813e-15)
(978.58 5.19319e-06 6.04856e-15)
(978.58 5.11754e-06 8.19885e-15)
(978.58 5.01987e-06 8.55626e-15)
(978.58 4.92975e-06 6.77522e-15)
(978.58 4.87485e-06 7.0962e-15)
(978.58 4.86897e-06 4.57006e-15)
(978.58 4.91038e-06 4.73555e-15)
(978.58 4.98812e-06 8.96757e-15)
(978.58 5.09109e-06 7.34572e-15)
(978.58 5.20987e-06 4.35045e-15)
(978.58 5.33603e-06 4.00498e-15)
(978.58 5.46393e-06 4.02982e-15)
(978.58 5.59156e-06 4.05531e-15)
(978.58 5.71958e-06 3.69564e-15)
(978.58 5.84995e-06 5.05459e-15)
(978.58 5.98478e-06 6.16616e-15)
(978.58 6.1258e-06 3.47599e-15)
(978.58 6.27413e-06 4.72568e-15)
(978.58 6.43046e-06 5.14708e-15)
(978.58 6.59548e-06 6.01944e-15)
(978.58 6.77014e-06 7.26728e-15)
(978.58 6.95569e-06 5.62318e-15)
(978.58 7.15322e-06 5.09931e-15)
(978.58 7.36304e-06 5.98514e-15)
(978.58 7.58461e-06 7.17747e-15)
(978.58 7.81721e-06 7.50476e-15)
(978.58 8.06092e-06 7.36438e-15)
(978.58 8.31734e-06 6.72952e-15)
(978.58 8.58932e-06 6.5815e-15)
(978.58 8.8798e-06 6.96921e-15)
(978.58 9.19056e-06 6.41259e-15)
(978.58 9.52164e-06 5.50584e-15)
(978.58 9.87167e-06 6.68906e-15)
(978.58 1.02386e-05 5.20901e-15)
(978.58 1.06202e-05 4.91659e-15)
(978.58 1.1015e-05 5.35415e-15)
(978.58 1.14216e-05 5.42741e-15)
(978.58 1.18394e-05 6.53206e-15)
(978.58 1.2268e-05 6.3215e-15)
(978.58 1.27071e-05 6.02152e-15)
(978.58 1.31566e-05 6.65289e-15)
(978.58 1.36169e-05 5.52848e-15)
(978.58 1.4089e-05 6.86717e-15)
(978.58 1.4574e-05 5.94845e-15)
(978.58 1.50731e-05 4.46125e-15)
(978.58 1.55863e-05 5.70575e-15)
(978.58 1.61126e-05 5.01369e-15)
(978.58 1.665e-05 4.57687e-15)
(978.58 1.71976e-05 4.4427e-15)
(978.58 1.7756e-05 3.96124e-15)
(978.58 1.83289e-05 4.91454e-15)
(978.58 1.89223e-05 6.72213e-15)
(978.58 1.95435e-05 6.27198e-15)
(978.58 2.01996e-05 5.76266e-15)
(978.58 2.08951e-05 6.12449e-15)
(978.58 2.16321e-05 5.08694e-15)
(978.58 2.24104e-05 3.50273e-15)
(978.58 2.32294e-05 5.61771e-15)
(978.58 2.40896e-05 5.48204e-15)
(978.58 2.4994e-05 4.36631e-15)
(978.58 2.59484e-05 5.01064e-15)
(978.58 2.696e-05 4.81521e-15)
(978.58 2.80357e-05 4.85497e-15)
(978.58 2.91791e-05 4.41871e-15)
(978.58 3.03886e-05 3.95879e-15)
(978.58 3.16572e-05 4.31789e-15)
(978.58 3.29739e-05 4.03559e-15)
(978.58 3.4328e-05 4.52032e-15)
(978.58 3.57164e-05 4.42047e-15)
(978.58 3.71436e-05 3.35377e-15)
(978.58 3.86347e-05 4.34468e-15)
(978.58 4.02081e-05 6.41388e-15)
(978.58 4.18987e-05 6.87395e-15)
(978.58 4.37231e-05 7.03145e-15)
(978.58 4.55705e-05 6.54408e-15)
(978.58 4.76391e-05 5.45273e-15)
(978.58 5.02742e-05 4.17563e-15)
(978.58 4.86788e-05 3.82625e-15)
(975.242 3.45171 2.10914e-14)
(974.739 3.97401 2.25413e-14)
(974.163 4.57135 2.14542e-14)
(973.504 5.25887 2.18551e-14)
(972.748 6.05314 2.29655e-14)
(971.876 6.97373 2.11066e-14)
(970.878 8.03424 2.08499e-14)
(969.732 9.25656 2.13696e-14)
(968.408 10.6645 2.16071e-14)
(966.881 12.2775 2.13097e-14)
(965.134 14.1095 2.2562e-14)
(963.164 16.1684 2.3409e-14)
(960.974 18.4644 2.05467e-14)
(958.58 21.0013 2.11972e-14)
(955.971 23.8107 2.33287e-14)
(953.121 26.9053 2.23e-14)
(796.774 299.315 5.71555e-15)
(797.2 298.699 5.99369e-15)
(797.614 298.13 4.96407e-15)
(798.02 297.614 5.21948e-15)
(798.424 297.164 5.48143e-15)
(798.834 296.793 5.30078e-15)
(799.256 296.522 4.66926e-15)
(799.692 296.367 8.24152e-15)
(800.143 296.331 5.76481e-15)
(800.614 296.395 6.79215e-15)
(801.115 296.529 8.18104e-15)
(801.661 296.7 7.51349e-15)
(802.283 296.874 8.81451e-15)
(803.002 297.031 6.61588e-15)
(803.833 297.151 5.83079e-15)
(804.794 297.236 4.6066e-15)
(805.878 297.365 4.68181e-15)
(807.069 297.575 6.20605e-15)
(808.366 297.758 5.68811e-15)
(809.77 297.766 2.89534e-15)
(811.266 297.503 4.27006e-15)
(812.847 296.998 3.72054e-15)
(814.459 296.354 3.30066e-15)
(816.072 295.523 3.32164e-15)
(817.84 294.263 3.6498e-15)
(820.007 292.344 3.70381e-15)
(822.696 289.673 4.55004e-15)
(825.881 286.322 5.572e-15)
(829.478 282.435 4.91526e-15)
(833.442 278.118 5.67498e-15)
(837.791 273.402 5.30605e-15)
(842.574 268.228 6.5577e-15)
(847.856 262.423 5.713e-15)
(853.7 255.723 7.21485e-15)
(860.126 247.85 6.80214e-15)
(867.234 238.402 9.30785e-15)
(875.045 226.874 5.65996e-15)
(883.273 213.409 7.76304e-15)
(891.793 198.399 9.12171e-15)
(900.584 182.174 9.41976e-15)
(909.582 164.969 1.05612e-14)
(918.595 147.028 1.27795e-14)
(927.22 128.876 1.01903e-14)
(934.857 111.301 1.19054e-14)
(940.942 95.2124 1.11885e-14)
(945.345 82.3061 1.18803e-14)
(949.248 71.9919 1.36647e-14)
(953.139 62.985 1.33731e-14)
(956.945 54.5968 1.26051e-14)
(960.532 46.533 1.10965e-14)
(963.871 38.6864 1.05667e-14)
(966.822 31.3868 1.18642e-14)
(969.106 25.3371 1.13461e-14)
(970.814 20.769 1.08084e-14)
(972.237 17.2338 1.25764e-14)
(973.478 14.2972 1.40556e-14)
(974.509 11.7835 1.13266e-14)
(975.279 9.68566 1.19434e-14)
(975.8 7.99258 1.40578e-14)
(976.179 6.61777 1.28153e-14)
(976.523 5.47409 1.31496e-14)
(976.863 4.51444 1.21169e-14)
(977.178 3.70405 1.29497e-14)
(977.452 3.00246 1.28543e-14)
(977.69 2.38145 9.97951e-15)
(977.896 1.84555 1.05601e-14)
(978.064 1.41726 1.36472e-14)
(978.193 1.09743 1.14749e-14)
(978.29 0.859514 1.16864e-14)
(978.36 0.677389 1.40423e-14)
(978.408 0.536948 1.12122e-14)
(978.438 0.429451 1.13992e-14)
(978.459 0.345438 1.27699e-14)
(978.479 0.277123 1.27539e-14)
(978.499 0.221132 1.07848e-14)
(978.515 0.175144 1.06399e-14)
(978.53 0.136387 1.29728e-14)
(978.542 0.103329 1.16581e-14)
(978.552 0.07641 1.05943e-14)
(978.561 0.0563189 9.66411e-15)
(978.566 0.0421385 1.06457e-14)
(978.57 0.0320358 1.18136e-14)
(978.573 0.0246581 1.28891e-14)
(978.574 0.0192209 1.1087e-14)
(978.575 0.0151051 1.13478e-14)
(978.576 0.0118474 1.13803e-14)
(978.577 0.00923634 1.06671e-14)
(978.577 0.00711158 9.70426e-15)
(978.578 0.00533367 9.58951e-15)
(978.579 0.00387926 1.03831e-14)
(978.579 0.00278892 1.25658e-14)
(978.579 0.00204245 1.08417e-14)
(978.58 0.00154069 9.36232e-15)
(978.58 0.00119001 1.04491e-14)
(978.58 0.000935012 7.75134e-15)
(978.58 0.000742089 9.57301e-15)
(978.58 0.000590373 7.79329e-15)
(978.58 0.000468585 1.10747e-14)
(978.58 0.000368312 1.00155e-14)
(978.58 0.000284397 9.36956e-15)
(978.58 0.000216222 1.02478e-14)
(978.58 0.000164308 1.04185e-14)
(978.58 0.000127176 9.24142e-15)
(978.58 0.000101164 1.15097e-14)
(978.58 8.25263e-05 1.17597e-14)
(978.58 6.8814e-05 9.00342e-15)
(978.58 5.8545e-05 8.87099e-15)
(978.58 5.06195e-05 1.22193e-14)
(978.58 4.42e-05 1.07454e-14)
(978.58 3.87671e-05 1.14064e-14)
(978.58 3.40422e-05 1.26952e-14)
(978.58 2.99319e-05 1.17357e-14)
(978.58 2.64697e-05 9.38173e-15)
(978.58 2.37055e-05 1.03919e-14)
(978.58 2.16813e-05 1.02809e-14)
(978.58 2.04442e-05 1.00322e-14)
(978.58 1.99493e-05 1.06082e-14)
(978.58 1.99173e-05 1.08808e-14)
(978.58 2.0182e-05 9.92749e-15)
(978.58 2.06741e-05 1.07085e-14)
(978.58 2.12248e-05 1.0298e-14)
(978.58 2.16816e-05 9.58739e-15)
(978.58 2.2106e-05 1.04378e-14)
(978.58 2.24961e-05 1.04366e-14)
(978.58 2.28731e-05 9.90155e-15)
(978.58 2.32607e-05 8.98886e-15)
(978.58 2.36796e-05 8.19232e-15)
(978.58 2.41448e-05 8.88033e-15)
(978.58 2.4662e-05 6.36417e-15)
(978.58 2.52292e-05 7.65658e-15)
(978.58 2.58402e-05 8.35528e-15)
(978.58 2.6489e-05 7.86148e-15)
(978.58 2.71722e-05 1.03946e-14)
(978.58 2.78896e-05 8.91023e-15)
(978.58 2.86425e-05 8.10285e-15)
(978.58 2.94323e-05 8.20052e-15)
(978.58 3.02588e-05 8.45616e-15)
(978.58 3.11211e-05 9.06865e-15)
(978.58 3.20203e-05 1.03291e-14)
(978.58 3.29617e-05 9.20494e-15)
(978.58 3.39529e-05 9.03001e-15)
(978.58 3.50008e-05 9.34265e-15)
(978.58 3.61063e-05 9.5047e-15)
(978.58 3.72644e-05 9.83623e-15)
(978.58 3.84664e-05 8.70075e-15)
(978.58 3.97055e-05 8.55455e-15)
(978.58 4.09805e-05 9.41265e-15)
(978.58 4.22966e-05 1.04682e-14)
(978.58 4.3664e-05 9.01654e-15)
(978.58 4.50947e-05 8.16128e-15)
(978.58 4.65996e-05 9.01524e-15)
(978.58 4.81868e-05 8.26117e-15)
(978.58 4.9862e-05 8.87804e-15)
(978.58 5.16288e-05 6.81761e-15)
(978.58 5.34906e-05 7.31852e-15)
(978.58 5.5451e-05 9.33523e-15)
(978.58 5.75139e-05 9.16255e-15)
(978.58 5.96818e-05 9.02265e-15)
(978.58 6.19556e-05 7.65142e-15)
(978.58 6.43352e-05 7.65734e-15)
(978.58 6.68224e-05 7.56599e-15)
(978.58 6.94244e-05 5.99823e-15)
(978.58 7.21542e-05 6.53898e-15)
(978.58 7.5029e-05 7.22787e-15)
(978.58 7.80638e-05 8.27241e-15)
(978.58 8.12658e-05 8.19155e-15)
(978.58 8.46311e-05 7.61907e-15)
(978.58 8.81456e-05 7.70008e-15)
(978.58 9.17903e-05 1.05864e-14)
(978.58 9.55492e-05 7.94561e-15)
(978.58 9.94155e-05 7.79871e-15)
(978.58 0.000103394 8.90816e-15)
(978.58 0.000107498 9.03099e-15)
(978.58 0.000111744 7.56755e-15)
(978.58 0.000116141 7.141e-15)
(978.58 0.00012069 6.7649e-15)
(978.58 0.000125376 7.60023e-15)
(978.58 0.000130177 7.37315e-15)
(978.58 0.000135073 6.43354e-15)
(978.58 0.000140059 6.00234e-15)
(978.58 0.000145156 6.64782e-15)
(978.58 0.000150415 6.85477e-15)
(978.58 0.00015591 7.77979e-15)
(978.58 0.000161716 7.65547e-15)
(978.58 0.000167879 7.04308e-15)
(978.58 0.000174388 8.33567e-15)
(978.58 0.000181177 6.8857e-15)
(978.58 0.00018812 6.89253e-15)
(978.58 0.000195165 8.88377e-15)
(978.58 0.000202283 7.20439e-15)
(978.58 0.00020897 6.83725e-15)
(978.58 0.000221295 7.69238e-15)
(978.58 0.000215783 6.98863e-15)
(967.666 11.1767 2.98979e-14)
(965.987 12.9128 2.87024e-14)
(964.056 14.898 2.92587e-14)
(961.863 17.1468 3.20254e-14)
(959.405 19.6731 3.014e-14)
(956.692 22.4837 2.74656e-14)
(953.701 25.6167 2.92746e-14)
(950.415 29.0726 2.91357e-14)
(946.744 32.9279 2.82544e-14)
(942.521 37.3456 3.07285e-14)
(937.612 42.4738 3.34134e-14)
(931.966 48.4049 3.08506e-14)
(925.632 55.1447 2.93203e-14)
(918.679 62.6579 2.80545e-14)
(911.266 70.7853 2.87423e-14)
(903.325 79.5477 2.75679e-14)
(796.704 311.827 2.47637e-15)
(797.455 311.47 1.82569e-15)
(798.201 311.119 1.91464e-15)
(798.94 310.775 2.07722e-15)
(799.669 310.441 3.47537e-15)
(800.39 310.122 3.20836e-15)
(801.101 309.821 1.62347e-15)
(801.805 309.547 1.71182e-15)
(802.499 309.311 3.68087e-15)
(803.185 309.13 2.97901e-15)
(803.862 309.018 2.07117e-15)
(804.543 308.97 3.85543e-15)
(805.254 308.973 3.28286e-15)
(805.999 309.006 4.33265e-15)
(806.789 309.039 5.20002e-15)
(807.639 309.064 6.76243e-15)
(808.545 309.104 6.58111e-15)
(809.493 309.168 5.61178e-15)
(810.476 309.211 6.28569e-15)
(811.497 309.175 7.1129e-15)
(812.555 309.038 8.34865e-15)
(813.634 308.764 9.38231e-15)
(814.77 308.246 8.17721e-15)
(815.928 307.55 8.2982e-15)
(816.962 307.088 5.40337e-15)
(817.96 307.139 8.97213e-15)
(818.993 307.656 7.64286e-15)
(820.036 308.485 8.14728e-15)
(821.058 309.448 1.21128e-14)
(822.07 310.426 9.36322e-15)
(823.092 311.36 8.68263e-15)
(824.144 312.179 1.08026e-14)
(825.289 312.721 8.43317e-15)
(826.681 312.755 9.84897e-15)
(828.577 312.127 1.0456e-14)
(831.069 310.739 1.08783e-14)
(834.083 308.504 1.14149e-14)
(837.524 305.372 1.15219e-14)
(841.388 301.303 9.26251e-15)
(845.722 296.283 7.11785e-15)
(850.537 290.305 1.02131e-14)
(855.784 283.279 7.97371e-15)
(861.46 274.876 1.06214e-14)
(867.673 264.597 1.13576e-14)
(874.622 252.01 1.22554e-14)
(882.59 236.567 1.19431e-14)
(891.351 218.441 1.31725e-14)
(900.626 198.446 1.24692e-14)
(910.229 177.318 1.46504e-14)
(919.834 155.661 1.25036e-14)
(928.877 134.265 1.33796e-14)
(936.693 114.032 1.64823e-14)
(942.816 95.9639 1.65149e-14)
(947.318 81.7661 1.59238e-14)
(951.425 70.4979 1.79362e-14)
(955.486 60.6614 1.80256e-14)
(959.369 51.4788 1.62212e-14)
(962.99 42.639 1.67362e-14)
(966.262 34.3187 1.8284e-14)
(968.891 27.2306 1.72468e-14)
(970.811 21.8689 1.81507e-14)
(972.333 17.8529 1.62025e-14)
(973.626 14.6204 1.52248e-14)
(974.671 11.9205 1.62976e-14)
(975.421 9.70954 1.34981e-14)
(975.917 7.94301 1.45732e-14)
(976.287 6.51037 1.84362e-14)
(976.636 5.32518 1.7311e-14)
(976.979 4.3433 1.6448e-14)
(977.289 3.51719 1.77501e-14)
(977.559 2.79856 1.59625e-14)
(977.794 2.16843 1.59971e-14)
(977.992 1.64556 1.57908e-14)
(978.146 1.2495 1.57951e-14)
(978.26 0.963645 1.60226e-14)
(978.341 0.752617 1.5122e-14)
(978.396 0.592137 1.61379e-14)
(978.43 0.469824 1.56538e-14)
(978.453 0.375709 1.59657e-14)
(978.473 0.300462 1.55047e-14)
(978.492 0.239144 1.69767e-14)
(978.51 0.189044 1.52436e-14)
(978.526 0.147007 1.54582e-14)
(978.539 0.111138 1.44958e-14)
(978.55 0.0817874 1.64691e-14)
(978.559 0.0598372 1.56931e-14)
(978.566 0.044552 1.4899e-14)
(978.57 0.0339099 1.39403e-14)
(978.572 0.0262347 1.28742e-14)
(978.573 0.0205501 1.53761e-14)
(978.574 0.0162043 1.64473e-14)
(978.575 0.0127646 1.48202e-14)
(978.576 0.0100122 1.47647e-14)
(978.577 0.00776679 1.52328e-14)
(978.578 0.00589799 1.34032e-14)
(978.578 0.00438602 1.28834e-14)
(978.579 0.00324887 1.24661e-14)
(978.579 0.00245067 1.35873e-14)
(978.579 0.00189698 1.44844e-14)
(978.579 0.00149926 1.25556e-14)
(978.58 0.00120362 1.46014e-14)
(978.58 0.000977903 1.37624e-14)
(978.58 0.000800169 1.39358e-14)
(978.58 0.00065611 1.44493e-14)
(978.58 0.000536363 1.4105e-14)
(978.58 0.000434696 1.31392e-14)
(978.58 0.000348367 1.50508e-14)
(978.58 0.000277074 1.43777e-14)
(978.58 0.0002209 1.40059e-14)
(978.58 0.000179048 1.20314e-14)
(978.58 0.000149341 1.47275e-14)
(978.58 0.000128762 1.59921e-14)
(978.58 0.000114754 1.31502e-14)
(978.58 0.000105507 1.2914e-14)
(978.58 9.9398e-05 1.35994e-14)
(978.58 9.49015e-05 1.13115e-14)
(978.58 9.10988e-05 1.39945e-14)
(978.58 8.7845e-05 1.34317e-14)
(978.58 8.53152e-05 1.52694e-14)
(978.58 8.29961e-05 1.63639e-14)
(978.58 8.09665e-05 1.34035e-14)
(978.58 7.97002e-05 1.2514e-14)
(978.58 7.94241e-05 1.40455e-14)
(978.58 8.00804e-05 1.42785e-14)
(978.58 8.14182e-05 1.36449e-14)
(978.58 8.32216e-05 1.36031e-14)
(978.58 8.53021e-05 1.16708e-14)
(978.58 8.75231e-05 1.30089e-14)
(978.58 8.98062e-05 1.36353e-14)
(978.58 9.21251e-05 1.23702e-14)
(978.58 9.44912e-05 1.23789e-14)
(978.58 9.69341e-05 1.15919e-14)
(978.58 9.94851e-05 1.16667e-14)
(978.58 0.000102168 1.16967e-14)
(978.58 0.000104997 1.16042e-14)
(978.58 0.000107986 1.17188e-14)
(978.58 0.000111154 1.27813e-14)
(978.58 0.000114524 1.28257e-14)
(978.58 0.000118114 1.1301e-14)
(978.58 0.000121926 1.10463e-14)
(978.58 0.000125951 1.03614e-14)
(978.58 0.000130177 1.18122e-14)
(978.58 0.000134606 1.27475e-14)
(978.58 0.000139267 1.26083e-14)
(978.58 0.000144204 1.16134e-14)
(978.58 0.000149465 1.39696e-14)
(978.58 0.000155083 1.26523e-14)
(978.58 0.000161068 1.33962e-14)
(978.58 0.000167407 1.25343e-14)
(978.58 0.000174073 1.25074e-14)
(978.58 0.000181035 1.27167e-14)
(978.58 0.000188266 1.04286e-14)
(978.58 0.000195753 1.11332e-14)
(978.58 0.000203493 1.0033e-14)
(978.58 0.000211492 1.07827e-14)
(978.58 0.000219756 1.05161e-14)
(978.58 0.000228284 1.19811e-14)
(978.58 0.000237074 1.25066e-14)
(978.58 0.000246132 1.18158e-14)
(978.58 0.000255473 1.08557e-14)
(978.58 0.000265121 1.24785e-14)
(978.58 0.000275095 1.11388e-14)
(978.58 0.000285398 1.12485e-14)
(978.58 0.000296014 1.01204e-14)
(978.58 0.00030692 1.13925e-14)
(978.58 0.00031811 1.16038e-14)
(978.58 0.00032962 1.0425e-14)
(978.58 0.000341539 9.84254e-15)
(978.58 0.000353997 1.0754e-14)
(978.58 0.000367139 9.81428e-15)
(978.58 0.00038109 1.30778e-14)
(978.58 0.000395927 1.09487e-14)
(978.58 0.000411675 1.19554e-14)
(978.58 0.000428327 1.20383e-14)
(978.58 0.000445872 1.14294e-14)
(978.58 0.00046433 1.02304e-14)
(978.58 0.000483772 1.19451e-14)
(978.58 0.00050433 1.01458e-14)
(978.58 0.000526173 9.78832e-15)
(978.58 0.000549463 9.50719e-15)
(978.58 0.000574293 1.03988e-14)
(978.58 0.000600642 9.11127e-15)
(978.58 0.000628361 9.19381e-15)
(978.58 0.000657196 9.9988e-15)
(978.58 0.000686919 9.63477e-15)
(978.58 0.000717398 9.47713e-15)
(978.579 0.000748875 8.81619e-15)
(978.579 0.000781525 8.48087e-15)
(978.579 0.000816521 1.06464e-14)
(978.579 0.000853632 1.06509e-14)
(978.579 0.000891549 1.10738e-14)
(978.579 0.000950955 1.04861e-14)
(978.579 0.000943319 9.34222e-15)
(945.515 33.6697 3.63603e-14)
(941.023 38.3018 3.81508e-14)
(935.834 43.6531 4.11399e-14)
(929.875 49.8311 4.0902e-14)
(923.169 56.8618 3.76611e-14)
(915.771 64.7249 3.77722e-14)
(907.851 73.2509 3.8833e-14)
(899.236 82.568 3.81497e-14)
(889.839 92.6655 3.79236e-14)
(879.452 103.65 4.07854e-14)
(868.026 115.638 3.93359e-14)
(855.701 128.603 3.62008e-14)
(842.684 142.427 3.55577e-14)
(829.19 156.955 3.31155e-14)
(815.464 171.955 3.39806e-14)
(796.524 314.203 3.40829e-15)
(797.269 314.049 2.33907e-15)
(798.033 313.906 2.34123e-15)
(798.811 313.774 1.6546e-15)
(799.599 313.657 4.64148e-15)
(800.396 313.555 7.95542e-16)
(801.202 313.466 3.70166e-15)
(802.017 313.392 4.20933e-15)
(802.839 313.345 4.67505e-15)
(803.661 313.349 4.42618e-15)
(804.478 313.425 4.00664e-15)
(805.294 313.578 4.7255e-15)
(806.123 313.813 5.52891e-15)
(806.964 314.122 6.0439e-15)
(807.823 314.483 1.33792e-15)
(808.714 314.886 5.5105e-15)
(809.651 315.335 3.93714e-15)
(810.636 315.819 4.83381e-15)
(811.672 316.314 3.87885e-15)
(812.764 316.788 3.80064e-15)
(813.927 317.205 2.12553e-15)
(815.212 317.486 3.5142e-15)
(816.668 317.623 2.23365e-15)
(818.201 317.842 4.4471e-15)
(819.731 318.204 2.92634e-15)
(821.052 318.56 4.23213e-15)
(822.141 318.948 4.23817e-15)
(823.092 319.39 4.59027e-15)
(823.986 319.874 5.31308e-15)
(824.868 320.39 6.13563e-15)
(825.739 320.907 6.98232e-15)
(826.603 321.339 7.96989e-15)
(827.492 321.638 8.23691e-15)
(828.398 321.91 1.00146e-14)
(829.361 322.384 9.89238e-15)
(830.425 323.059 1.29781e-14)
(831.542 323.824 1.15137e-14)
(832.638 324.599 1.27943e-14)
(833.653 325.329 1.02541e-14)
(834.566 325.955 1.13114e-14)
(835.442 326.277 9.82234e-15)
(836.531 325.864 1.28925e-14)
(838.071 324.511 1.07064e-14)
(840.041 322.442 1.04844e-14)
(842.377 319.772 1.01562e-14)
(845.097 316.36 1.12055e-14)
(848.213 312.012 1.1788e-14)
(851.726 306.66 1.34108e-14)
(855.639 300.255 1.51452e-14)
(860.007 292.549 1.5738e-14)
(865 283.013 1.64146e-14)
(870.873 270.997 1.7464e-14)
(877.913 256.03 1.84173e-14)
(886.41 237.674 1.76255e-14)
(896.016 216.407 1.87777e-14)
(906.202 193.344 1.96835e-14)
(916.479 169.444 2.05782e-14)
(926.25 145.641 2.16037e-14)
(934.828 123.022 1.94539e-14)
(941.734 102.535 1.65373e-14)
(946.888 85.7843 2.16915e-14)
(951.222 72.9884 2.29687e-14)
(955.435 62.2556 1.8527e-14)
(959.459 52.3955 1.97897e-14)
(963.22 42.9494 2.08098e-14)
(966.619 34.1307 2.04122e-14)
(969.338 26.7222 2.07984e-14)
(971.294 21.2198 2.12435e-14)
(972.81 17.1576 2.06183e-14)
(974.057 13.9165 2.14361e-14)
(975.012 11.253 2.0152e-14)
(975.659 9.11068 2.11477e-14)
(976.088 7.40477 1.96765e-14)
(976.445 6.01561 2.34823e-14)
(976.798 4.87984 2.06887e-14)
(977.13 3.94793 1.88683e-14)
(977.424 3.1557 1.92147e-14)
(977.682 2.46152 2.07777e-14)