/*--------------------------------*- C++ -*----------------------------------*\
| =========                 |                                                 |
| \\      /  F ield         | OpenFOAM: The Open Source CFD Toolbox           |
|  \\    /   O peration     | Version:  v1706                                 |
|   \\  /    A nd           | Web:      www.OpenFOAM.com                      |
|    \\/     M anipulation  |                                                 |
\*---------------------------------------------------------------------------*/
FoamFile
{
    version     2.0;
    format      ascii;
    class       volScalarField;
    location    "3.1e-05";
    object      mu;
}
// * * * * * * * * * * * * * * * * * * * * * * * * * * * * * * * * * * * * * //

dimensions      [1 -1 -1 0 0 0 0];


internalField   nonuniform List<scalar> 
30038
(
1.0351e-05
1.0351e-05
1.0351e-05
1.0351e-05
1.0351e-05
1.0351e-05
1.0351e-05
1.0351e-05
1.0351e-05
1.0351e-05
1.0351e-05
1.0351e-05
1.0351e-05
1.0351e-05
1.0351e-05
1.0351e-05
1.0351e-05
1.0351e-05
1.0351e-05
1.0351e-05
1.0351e-05
1.0351e-05
1.0351e-05
1.0351e-05
1.0351e-05
1.0351e-05
1.0351e-05
1.0351e-05
1.0351e-05
1.0351e-05
1.0351e-05
1.0351e-05
1.0351e-05
1.0351e-05
1.0351e-05
1.0351e-05
1.0351e-05
1.0351e-05
1.0351e-05
1.0351e-05
1.0351e-05
1.0351e-05
1.0351e-05
1.0351e-05
1.0351e-05
1.0351e-05
1.0351e-05
1.0351e-05
1.0351e-05
1.0351e-05
1.0351e-05
1.0351e-05
1.0351e-05
1.0351e-05
1.0351e-05
1.0351e-05
1.0351e-05
1.0351e-05
1.0351e-05
1.0351e-05
1.0351e-05
1.0351e-05
1.0351e-05
1.0351e-05
1.0351e-05
1.0351e-05
1.0351e-05
1.0351e-05
1.0351e-05
1.0351e-05
1.0351e-05
1.0351e-05
1.0351e-05
1.0351e-05
1.0351e-05
1.0351e-05
1.0351e-05
1.0351e-05
1.0351e-05
1.0351e-05
1.0351e-05
1.0351e-05
1.0351e-05
1.0351e-05
1.0351e-05
1.0351e-05
1.0351e-05
1.0351e-05
1.0351e-05
1.0351e-05
1.0351e-05
1.0351e-05
1.0351e-05
1.0351e-05
1.0351e-05
1.0351e-05
1.0351e-05
1.0351e-05
1.0351e-05
1.0351e-05
1.0351e-05
1.0351e-05
1.0351e-05
1.0351e-05
1.0351e-05
1.0351e-05
1.0351e-05
1.0351e-05
1.0351e-05
1.0351e-05
1.0351e-05
1.0351e-05
1.0351e-05
1.0351e-05
1.0351e-05
1.0351e-05
1.0351e-05
1.0351e-05
1.0351e-05
1.0351e-05
1.0351e-05
1.0351e-05
1.0351e-05
1.0351e-05
1.0351e-05
1.0351e-05
1.0351e-05
1.0351e-05
1.0351e-05
1.0351e-05
1.0351e-05
1.0351e-05
1.0351e-05
1.0351e-05
1.0351e-05
1.0351e-05
1.0351e-05
1.0351e-05
1.0351e-05
1.0351e-05
1.0351e-05
1.0351e-05
1.0351e-05
1.0351e-05
1.0351e-05
1.0351e-05
1.0351e-05
1.0351e-05
1.0351e-05
1.0351e-05
1.0351e-05
1.0351e-05
1.0351e-05
1.0351e-05
1.0351e-05
1.0351e-05
1.0351e-05
1.0351e-05
1.0351e-05
1.0351e-05
1.0351e-05
1.0351e-05
1.0351e-05
1.0351e-05
1.0351e-05
1.0351e-05
1.0351e-05
1.0351e-05
1.0351e-05
1.0351e-05
1.0351e-05
1.0351e-05
1.0351e-05
1.0351e-05
1.0351e-05
1.0351e-05
1.0351e-05
1.0351e-05
1.0351e-05
1.0351e-05
1.0351e-05
1.0351e-05
1.0351e-05
1.0351e-05
1.0351e-05
1.0351e-05
1.0351e-05
1.0351e-05
1.0351e-05
1.0351e-05
1.0351e-05
1.0351e-05
1.0351e-05
1.0351e-05
1.0351e-05
1.0351e-05
1.0351e-05
1.0351e-05
1.0351e-05
1.0351e-05
1.0351e-05
1.0351e-05
1.0351e-05
1.0351e-05
1.0351e-05
1.0351e-05
1.0351e-05
1.0351e-05
1.0351e-05
1.0351e-05
1.0351e-05
1.0351e-05
1.0351e-05
1.0351e-05
1.0351e-05
1.0351e-05
1.0351e-05
1.0351e-05
1.0351e-05
1.0351e-05
1.0351e-05
1.0351e-05
1.0351e-05
1.0351e-05
1.0351e-05
1.0351e-05
1.0351e-05
1.0351e-05
1.0351e-05
1.0351e-05
1.0351e-05
1.0351e-05
1.0351e-05
1.0351e-05
1.0351e-05
1.0351e-05
1.0351e-05
1.0351e-05
1.0351e-05
1.0351e-05
1.0351e-05
1.0351e-05
1.0351e-05
1.0351e-05
1.0351e-05
1.0351e-05
1.0351e-05
1.0351e-05
1.0351e-05
1.0351e-05
1.0351e-05
1.0351e-05
1.0351e-05
1.0351e-05
1.0351e-05
1.0351e-05
1.0351e-05
1.0351e-05
1.0351e-05
1.0351e-05
1.0351e-05
1.0351e-05
1.0351e-05
1.0351e-05
1.0351e-05
1.0351e-05
1.0351e-05
1.0351e-05
1.0351e-05
1.0351e-05
1.0351e-05
1.0351e-05
1.0351e-05
1.0351e-05
1.0351e-05
1.0351e-05
1.0351e-05
1.0351e-05
1.0351e-05
1.0351e-05
1.0351e-05
1.0351e-05
1.0351e-05
1.0351e-05
1.0351e-05
1.0351e-05
1.0351e-05
1.0351e-05
1.0351e-05
1.0351e-05
1.0351e-05
1.0351e-05
1.0351e-05
1.0351e-05
1.0351e-05
1.0351e-05
1.0351e-05
1.0351e-05
1.0351e-05
1.0351e-05
1.0351e-05
1.0351e-05
1.0351e-05
1.0351e-05
1.0351e-05
1.0351e-05
1.0351e-05
1.0351e-05
1.0351e-05
1.0351e-05
1.0351e-05
1.0351e-05
1.0351e-05
1.0351e-05
1.0351e-05
1.0351e-05
1.0351e-05
1.0351e-05
1.0351e-05
1.0351e-05
1.0351e-05
1.0351e-05
1.0351e-05
1.0351e-05
1.0351e-05
1.0351e-05
1.0351e-05
1.0351e-05
1.0351e-05
1.0351e-05
1.0351e-05
1.0351e-05
1.0351e-05
1.0351e-05
1.0351e-05
1.0351e-05
1.0351e-05
1.0351e-05
1.0351e-05
1.0351e-05
1.0351e-05
1.0351e-05
1.0351e-05
1.0351e-05
1.0351e-05
1.0351e-05
1.0351e-05
1.0351e-05
1.0351e-05
1.0351e-05
1.0351e-05
1.0351e-05
1.0351e-05
1.0351e-05
1.0351e-05
1.0351e-05
1.0351e-05
1.0351e-05
1.0351e-05
1.0351e-05
1.0351e-05
1.0351e-05
1.0351e-05
1.0351e-05
1.0351e-05
1.0351e-05
1.0351e-05
1.0351e-05
1.0351e-05
1.0351e-05
1.0351e-05
1.0351e-05
1.0351e-05
1.0351e-05
1.0351e-05
1.0351e-05
1.0351e-05
1.0351e-05
1.0351e-05
1.0351e-05
1.0351e-05
1.0351e-05
1.0351e-05
1.0351e-05
1.0351e-05
1.0351e-05
1.0351e-05
1.0351e-05
1.0351e-05
1.0351e-05
1.0351e-05
1.0351e-05
1.0351e-05
1.0351e-05
1.0351e-05
1.0351e-05
1.0351e-05
1.0351e-05
1.0351e-05
1.0351e-05
1.0351e-05
1.0351e-05
1.0351e-05
1.0351e-05
1.0351e-05
1.0351e-05
1.0351e-05
1.0351e-05
1.0351e-05
1.0351e-05
1.0351e-05
1.0351e-05
1.0351e-05
1.0351e-05
1.0351e-05
1.0351e-05
1.0351e-05
1.0351e-05
1.0351e-05
1.0351e-05
1.0351e-05
1.0351e-05
1.0351e-05
1.0351e-05
1.0351e-05
1.0351e-05
1.0351e-05
1.0351e-05
1.0351e-05
1.0351e-05
1.0351e-05
1.0351e-05
1.0351e-05
1.0351e-05
1.0351e-05
1.0351e-05
1.0351e-05
1.0351e-05
1.0351e-05
1.0351e-05
1.0351e-05
1.0351e-05
1.0351e-05
1.0351e-05
1.0351e-05
1.0351e-05
1.0351e-05
1.0351e-05
1.0351e-05
1.0351e-05
1.0351e-05
1.0351e-05
1.0351e-05
1.0351e-05
1.0351e-05
1.0351e-05
1.0351e-05
1.0351e-05
1.0351e-05
1.0351e-05
1.0351e-05
1.0351e-05
1.0351e-05
1.0351e-05
1.0351e-05
1.0351e-05
1.0351e-05
1.0351e-05
1.0351e-05
1.0351e-05
1.0351e-05
1.0351e-05
1.0351e-05
1.0351e-05
1.0351e-05
1.0351e-05
1.0351e-05
1.0351e-05
1.0351e-05
1.0351e-05
1.0351e-05
1.0351e-05
1.0351e-05
1.0351e-05
1.0351e-05
1.0351e-05
1.0351e-05
1.0351e-05
1.0351e-05
1.0351e-05
1.0351e-05
1.0351e-05
1.0351e-05
1.0351e-05
1.0351e-05
1.0351e-05
1.0351e-05
1.0351e-05
1.0351e-05
1.0351e-05
1.0351e-05
1.0351e-05
1.0351e-05
1.0351e-05
1.0351e-05
1.0351e-05
1.0351e-05
1.0351e-05
1.0351e-05
1.0351e-05
1.0351e-05
1.0351e-05
1.0351e-05
1.0351e-05
1.0351e-05
1.0351e-05
1.0351e-05
1.0351e-05
1.0351e-05
1.0351e-05
1.0351e-05
1.0351e-05
1.0351e-05
1.0351e-05
1.0351e-05
1.0351e-05
1.0351e-05
1.0351e-05
1.0351e-05
1.0351e-05
1.0351e-05
1.0351e-05
1.0351e-05
1.0351e-05
1.0351e-05
1.0351e-05
1.0351e-05
1.0351e-05
1.0351e-05
1.0351e-05
1.0351e-05
1.0351e-05
1.0351e-05
1.0351e-05
1.0351e-05
1.0351e-05
1.0351e-05
1.0351e-05
1.0351e-05
1.0351e-05
1.0351e-05
1.0351e-05
1.0351e-05
1.0351e-05
1.0351e-05
1.0351e-05
1.0351e-05
1.0351e-05
1.0351e-05
1.0351e-05
1.0351e-05
1.0351e-05
1.0351e-05
1.0351e-05
1.0351e-05
1.0351e-05
1.0351e-05
1.0351e-05
1.0351e-05
1.0351e-05
1.0351e-05
1.0351e-05
1.0351e-05
1.0351e-05
1.0351e-05
1.0351e-05
1.0351e-05
1.0351e-05
1.0351e-05
1.0351e-05
1.0351e-05
1.0351e-05
1.0351e-05
1.0351e-05
1.0351e-05
1.0351e-05
1.0351e-05
1.0351e-05
1.0351e-05
1.0351e-05
1.0351e-05
1.0351e-05
1.0351e-05
1.0351e-05
1.0351e-05
1.0351e-05
1.0351e-05
1.0351e-05
1.0351e-05
1.0351e-05
1.0351e-05
1.0351e-05
1.0351e-05
1.0351e-05
1.0351e-05
1.0351e-05
1.0351e-05
1.0351e-05
1.0351e-05
1.0351e-05
1.0351e-05
1.0351e-05
1.0351e-05
1.0351e-05
1.0351e-05
1.0351e-05
1.0351e-05
1.0351e-05
1.0351e-05
1.0351e-05
1.0351e-05
1.0351e-05
1.0351e-05
1.0351e-05
1.0351e-05
1.0351e-05
1.0351e-05
1.0351e-05
1.0351e-05
1.0351e-05
1.0351e-05
1.0351e-05
1.0351e-05
1.0351e-05
1.0351e-05
1.0351e-05
1.0351e-05
1.0351e-05
1.0351e-05
1.0351e-05
1.0351e-05
1.0351e-05
1.0351e-05
1.0351e-05
1.0351e-05
1.0351e-05
1.0351e-05
1.0351e-05
1.0351e-05
1.0351e-05
1.0351e-05
1.0351e-05
1.0351e-05
1.0351e-05
1.0351e-05
1.0351e-05
1.0351e-05
1.0351e-05
1.0351e-05
1.0351e-05
1.0351e-05
1.0351e-05
1.0351e-05
1.0351e-05
1.0351e-05
1.0351e-05
1.0351e-05
1.0351e-05
1.0351e-05
1.0351e-05
1.0351e-05
1.0351e-05
1.0351e-05
1.0351e-05
1.0351e-05
1.0351e-05
1.0351e-05
1.0351e-05
1.0351e-05
1.0351e-05
1.0351e-05
1.0351e-05
1.0351e-05
1.0351e-05
1.0351e-05
1.0351e-05
1.0351e-05
1.0351e-05
1.0351e-05
1.0351e-05
1.0351e-05
1.0351e-05
1.0351e-05
1.0351e-05
1.0351e-05
1.0351e-05
1.0351e-05
1.0351e-05
1.0351e-05
1.0351e-05
1.0351e-05
1.0351e-05
1.0351e-05
1.0351e-05
1.0351e-05
1.0351e-05
1.0351e-05
1.0351e-05
1.0351e-05
1.0351e-05
1.0351e-05
1.0351e-05
1.0351e-05
1.0351e-05
1.0351e-05
1.0351e-05
1.0351e-05
1.0351e-05
1.0351e-05
1.0351e-05
1.0351e-05
1.0351e-05
1.0351e-05
1.0351e-05
1.0351e-05
1.0351e-05
1.0351e-05
1.0351e-05
1.0351e-05
1.0351e-05
1.0351e-05
1.0351e-05
1.0351e-05
1.0351e-05
1.0351e-05
1.0351e-05
1.0351e-05
1.0351e-05
1.0351e-05
1.0351e-05
1.0351e-05
1.0351e-05
1.0351e-05
1.0351e-05
1.0351e-05
1.0351e-05
1.0351e-05
1.0351e-05
1.0351e-05
1.0351e-05
1.0351e-05
1.0351e-05
1.0351e-05
1.0351e-05
1.0351e-05
1.0351e-05
1.0351e-05
1.0351e-05
1.0351e-05
1.0351e-05
1.0351e-05
1.0351e-05
1.0351e-05
1.0351e-05
1.0351e-05
1.0351e-05
1.0351e-05
1.0351e-05
1.0351e-05
1.0351e-05
1.0351e-05
1.0351e-05
1.0351e-05
1.0351e-05
1.0351e-05
1.0351e-05
1.0351e-05
1.0351e-05
1.0351e-05
1.0351e-05
1.0351e-05
1.0351e-05
1.0351e-05
1.0351e-05
1.0351e-05
1.0351e-05
1.0351e-05
1.0351e-05
1.0351e-05
1.0351e-05
1.0351e-05
1.0351e-05
1.0351e-05
1.0351e-05
1.0351e-05
1.0351e-05
1.0351e-05
1.0351e-05
1.0351e-05
1.0351e-05
1.0351e-05
1.0351e-05
1.0351e-05
1.0351e-05
1.0351e-05
1.0351e-05
1.0351e-05
1.0351e-05
1.0351e-05
1.0351e-05
1.0351e-05
1.0351e-05
1.0351e-05
1.0351e-05
1.0351e-05
1.0351e-05
1.0351e-05
1.0351e-05
1.0351e-05
1.0351e-05
1.0351e-05
1.0351e-05
1.0351e-05
1.0351e-05
1.0351e-05
1.0351e-05
1.0351e-05
1.0351e-05
1.0351e-05
1.0351e-05
1.0351e-05
1.0351e-05
1.0351e-05
1.0351e-05
1.0351e-05
1.0351e-05
1.0351e-05
1.0351e-05
1.0351e-05
1.0351e-05
1.0351e-05
1.0351e-05
1.0351e-05
1.0351e-05
1.0351e-05
1.0351e-05
1.0351e-05
1.0351e-05
1.0351e-05
1.0351e-05
1.0351e-05
1.0351e-05
1.0351e-05
1.0351e-05
1.0351e-05
1.0351e-05
1.0351e-05
1.0351e-05
1.0351e-05
1.0351e-05
1.0351e-05
1.0351e-05
1.0351e-05
1.0351e-05
1.0351e-05
1.0351e-05
1.0351e-05
1.0351e-05
1.0351e-05
1.0351e-05
1.0351e-05
1.0351e-05
1.0351e-05
1.0351e-05
1.0351e-05
1.0351e-05
1.0351e-05
1.0351e-05
1.0351e-05
1.0351e-05
1.0351e-05
1.0351e-05
1.0351e-05
1.0351e-05
1.0351e-05
1.0351e-05
1.0351e-05
1.0351e-05
1.0351e-05
1.0351e-05
1.0351e-05
1.0351e-05
1.0351e-05
1.0351e-05
1.0351e-05
1.0351e-05
1.0351e-05
1.0351e-05
1.0351e-05
1.0351e-05
1.0351e-05
1.0351e-05
1.0351e-05
1.0351e-05
1.0351e-05
1.0351e-05
1.0351e-05
1.0351e-05
1.0351e-05
1.0351e-05
1.0351e-05
1.0351e-05
1.0351e-05
1.0351e-05
1.0351e-05
1.0351e-05
1.0351e-05
1.0351e-05
1.0351e-05
1.0351e-05
1.0351e-05
1.0351e-05
1.0351e-05
1.0351e-05
1.0351e-05
1.0351e-05
1.0351e-05
1.0351e-05
1.0351e-05
1.0351e-05
1.0351e-05
1.0351e-05
1.0351e-05
1.0351e-05
1.0351e-05
1.0351e-05
1.0351e-05
1.0351e-05
1.0351e-05
1.0351e-05
1.0351e-05
1.0351e-05
1.0351e-05
1.0351e-05
1.0351e-05
1.0351e-05
1.0351e-05
1.0351e-05
1.0351e-05
1.0351e-05
1.0351e-05
1.0351e-05
1.0351e-05
1.0351e-05
1.0351e-05
1.0351e-05
1.0351e-05
1.0351e-05
1.0351e-05
1.0351e-05
1.0351e-05
1.0351e-05
1.0351e-05
1.0351e-05
1.0351e-05
1.0351e-05
1.0351e-05
1.0351e-05
1.0351e-05
1.0351e-05
1.0351e-05
1.0351e-05
1.0351e-05
1.0351e-05
1.0351e-05
1.0351e-05
1.0351e-05
1.0351e-05
1.0351e-05
1.0351e-05
1.0351e-05
1.0351e-05
1.0351e-05
1.0351e-05
1.0351e-05
1.0351e-05
1.0351e-05
1.0351e-05
1.0351e-05
1.0351e-05
1.0351e-05
1.0351e-05
1.0351e-05
1.0351e-05
1.0351e-05
1.0351e-05
1.0351e-05
1.0351e-05
1.0351e-05
1.0351e-05
1.0351e-05
1.0351e-05
1.0351e-05
1.0351e-05
1.0351e-05
1.0351e-05
1.0351e-05
1.0351e-05
1.0351e-05
1.0351e-05
1.0351e-05
1.0351e-05
1.0351e-05
1.0351e-05
1.0351e-05
1.0351e-05
1.0351e-05
1.0351e-05
1.0351e-05
1.0351e-05
1.0351e-05
1.0351e-05
1.0351e-05
1.0351e-05
1.0351e-05
1.0351e-05
1.0351e-05
1.0351e-05
1.0351e-05
1.0351e-05
1.0351e-05
1.0351e-05
1.0351e-05
1.0351e-05
1.0351e-05
1.0351e-05
1.0351e-05
1.0351e-05
1.0351e-05
1.0351e-05
1.0351e-05
1.0351e-05
1.0351e-05
1.0351e-05
1.0351e-05
1.0351e-05
1.0351e-05
1.0351e-05
1.0351e-05
1.0351e-05
1.0351e-05
1.0351e-05
1.0351e-05
1.0351e-05
1.0351e-05
1.0351e-05
1.0351e-05
1.0351e-05
1.0351e-05
1.0351e-05
1.0351e-05
1.0351e-05
1.0351e-05
1.0351e-05
1.0351e-05
1.0351e-05
1.0351e-05
1.0351e-05
1.0351e-05
1.0351e-05
1.0351e-05
1.0351e-05
1.0351e-05
1.0351e-05
1.0351e-05
1.0351e-05
1.0351e-05
1.0351e-05
1.0351e-05
1.0351e-05
1.0351e-05
1.0351e-05
1.0351e-05
1.0351e-05
1.0351e-05
1.0351e-05
1.0351e-05
1.0351e-05
1.0351e-05
1.0351e-05
1.0351e-05
1.0351e-05
1.0351e-05
1.0351e-05
1.0351e-05
1.0351e-05
1.0351e-05
1.0351e-05
1.0351e-05
1.0351e-05
1.0351e-05
1.0351e-05
1.0351e-05
1.0351e-05
1.0351e-05
1.0351e-05
1.0351e-05
1.0351e-05
1.0351e-05
1.0351e-05
1.0351e-05
1.0351e-05
1.0351e-05
1.0351e-05
1.0351e-05
1.0351e-05
1.0351e-05
1.0351e-05
1.0351e-05
1.0351e-05
1.0351e-05
1.0351e-05
1.0351e-05
1.0351e-05
1.0351e-05
1.0351e-05
1.0351e-05
1.0351e-05
1.0351e-05
1.0351e-05
1.0351e-05
1.0351e-05
1.0351e-05
1.0351e-05
1.0351e-05
1.0351e-05
1.0351e-05
1.0351e-05
1.0351e-05
1.0351e-05
1.0351e-05
1.0351e-05
1.0351e-05
1.0351e-05
1.0351e-05
1.0351e-05
1.0351e-05
1.0351e-05
1.0351e-05
1.0351e-05
1.0351e-05
1.0351e-05
1.0351e-05
1.0351e-05
1.0351e-05
1.0351e-05
1.0351e-05
1.0351e-05
1.0351e-05
1.0351e-05
1.0351e-05
1.0351e-05
1.0351e-05
1.0351e-05
1.0351e-05
1.0351e-05
1.0351e-05
1.0351e-05
1.0351e-05
1.0351e-05
1.0351e-05
1.0351e-05
1.0351e-05
1.0351e-05
1.0351e-05
1.0351e-05
1.0351e-05
1.0351e-05
1.0351e-05
1.0351e-05
1.0351e-05
1.0351e-05
1.0351e-05
1.0351e-05
1.0351e-05
1.0351e-05
1.0351e-05
1.0351e-05
1.0351e-05
1.0351e-05
1.0351e-05
1.03511e-05
1.0351e-05
1.0351e-05
1.0351e-05
1.0351e-05
1.0351e-05
1.0351e-05
1.0351e-05
1.0351e-05
1.0351e-05
1.0351e-05
1.0351e-05
1.0351e-05
1.0351e-05
1.0351e-05
1.0351e-05
1.0351e-05
1.0351e-05
1.0351e-05
1.0351e-05
1.0351e-05
1.0351e-05
1.0351e-05
1.0351e-05
1.0351e-05
1.0351e-05
1.0351e-05
1.0351e-05
1.0351e-05
1.0351e-05
1.0351e-05
1.0351e-05
1.0351e-05
1.0351e-05
1.0351e-05
1.0351e-05
1.0351e-05
1.0351e-05
1.0351e-05
1.0351e-05
1.0351e-05
1.0351e-05
1.0351e-05
1.0351e-05
1.0351e-05
1.0351e-05
1.0351e-05
1.03511e-05
1.03511e-05
1.03511e-05
1.03512e-05
1.0351e-05
1.0351e-05
1.0351e-05
1.0351e-05
1.0351e-05
1.0351e-05
1.0351e-05
1.0351e-05
1.0351e-05
1.0351e-05
1.0351e-05
1.0351e-05
1.0351e-05
1.0351e-05
1.0351e-05
1.0351e-05
1.0351e-05
1.0351e-05
1.0351e-05
1.0351e-05
1.0351e-05
1.0351e-05
1.0351e-05
1.0351e-05
1.0351e-05
1.0351e-05
1.0351e-05
1.0351e-05
1.0351e-05
1.0351e-05
1.0351e-05
1.0351e-05
1.0351e-05
1.0351e-05
1.0351e-05
1.0351e-05
1.0351e-05
1.0351e-05
1.0351e-05
1.0351e-05
1.0351e-05
1.0351e-05
1.0351e-05
1.03511e-05
1.03511e-05
1.03511e-05
1.03512e-05
1.03513e-05
1.03515e-05
1.03517e-05
1.0351e-05
1.0351e-05
1.0351e-05
1.0351e-05
1.0351e-05
1.0351e-05
1.0351e-05
1.0351e-05
1.0351e-05
1.0351e-05
1.0351e-05
1.0351e-05
1.0351e-05
1.0351e-05
1.0351e-05
1.0351e-05
1.0351e-05
1.0351e-05
1.0351e-05
1.0351e-05
1.0351e-05
1.0351e-05
1.0351e-05
1.0351e-05
1.0351e-05
1.0351e-05
1.0351e-05
1.0351e-05
1.0351e-05
1.0351e-05
1.0351e-05
1.0351e-05
1.0351e-05
1.0351e-05
1.0351e-05
1.0351e-05
1.0351e-05
1.0351e-05
1.0351e-05
1.0351e-05
1.03511e-05
1.03511e-05
1.03511e-05
1.03512e-05
1.03513e-05
1.03515e-05
1.03517e-05
1.03521e-05
1.03526e-05
1.03536e-05
1.0351e-05
1.0351e-05
1.0351e-05
1.0351e-05
1.0351e-05
1.0351e-05
1.0351e-05
1.0351e-05
1.0351e-05
1.0351e-05
1.0351e-05
1.0351e-05
1.0351e-05
1.0351e-05
1.0351e-05
1.0351e-05
1.0351e-05
1.0351e-05
1.0351e-05
1.0351e-05
1.0351e-05
1.0351e-05
1.0351e-05
1.0351e-05
1.0351e-05
1.0351e-05
1.0351e-05
1.0351e-05
1.0351e-05
1.0351e-05
1.0351e-05
1.0351e-05
1.0351e-05
1.0351e-05
1.0351e-05
1.0351e-05
1.0351e-05
1.03511e-05
1.03511e-05
1.03511e-05
1.03512e-05
1.03513e-05
1.03515e-05
1.03517e-05
1.03521e-05
1.03526e-05
1.03535e-05
1.03548e-05
1.03568e-05
1.03601e-05
1.0351e-05
1.0351e-05
1.0351e-05
1.0351e-05
1.0351e-05
1.0351e-05
1.0351e-05
1.0351e-05
1.0351e-05
1.0351e-05
1.0351e-05
1.0351e-05
1.0351e-05
1.0351e-05
1.0351e-05
1.0351e-05
1.0351e-05
1.0351e-05
1.0351e-05
1.0351e-05
1.0351e-05
1.0351e-05
1.0351e-05
1.0351e-05
1.0351e-05
1.0351e-05
1.0351e-05
1.0351e-05
1.0351e-05
1.0351e-05
1.0351e-05
1.0351e-05
1.0351e-05
1.0351e-05
1.03511e-05
1.03511e-05
1.03512e-05
1.03512e-05
1.03513e-05
1.03515e-05
1.03518e-05
1.03521e-05
1.03527e-05
1.03536e-05
1.03548e-05
1.03568e-05
1.03598e-05
1.03644e-05
1.03714e-05
1.03826e-05
1.0351e-05
1.0351e-05
1.0351e-05
1.0351e-05
1.0351e-05
1.0351e-05
1.0351e-05
1.0351e-05
1.0351e-05
1.0351e-05
1.0351e-05
1.0351e-05
1.0351e-05
1.0351e-05
1.0351e-05
1.0351e-05
1.0351e-05
1.0351e-05
1.0351e-05
1.0351e-05
1.0351e-05
1.0351e-05
1.0351e-05
1.0351e-05
1.0351e-05
1.0351e-05
1.0351e-05
1.0351e-05
1.0351e-05
1.0351e-05
1.03511e-05
1.03511e-05
1.03511e-05
1.03512e-05
1.03513e-05
1.03514e-05
1.03515e-05
1.03518e-05
1.03522e-05
1.03528e-05
1.03537e-05
1.0355e-05
1.0357e-05
1.03599e-05
1.03644e-05
1.03712e-05
1.03814e-05
1.0397e-05
1.04208e-05
1.04581e-05
1.0351e-05
1.0351e-05
1.0351e-05
1.0351e-05
1.0351e-05
1.0351e-05
1.0351e-05
1.0351e-05
1.0351e-05
1.0351e-05
1.0351e-05
1.0351e-05
1.0351e-05
1.0351e-05
1.0351e-05
1.0351e-05
1.0351e-05
1.0351e-05
1.0351e-05
1.0351e-05
1.0351e-05
1.0351e-05
1.0351e-05
1.0351e-05
1.0351e-05
1.0351e-05
1.0351e-05
1.03511e-05
1.03511e-05
1.03511e-05
1.03512e-05
1.03513e-05
1.03514e-05
1.03516e-05
1.03519e-05
1.03523e-05
1.03529e-05
1.03538e-05
1.03552e-05
1.03572e-05
1.03602e-05
1.03647e-05
1.03715e-05
1.03816e-05
1.03967e-05
1.04194e-05
1.04536e-05
1.0505e-05
1.05827e-05
1.07016e-05
1.0351e-05
1.0351e-05
1.0351e-05
1.0351e-05
1.0351e-05
1.0351e-05
1.0351e-05
1.0351e-05
1.0351e-05
1.0351e-05
1.0351e-05
1.0351e-05
1.0351e-05
1.0351e-05
1.0351e-05
1.0351e-05
1.0351e-05
1.0351e-05
1.0351e-05
1.0351e-05
1.0351e-05
1.0351e-05
1.0351e-05
1.03511e-05
1.03511e-05
1.03511e-05
1.03512e-05
1.03512e-05
1.03513e-05
1.03515e-05
1.03517e-05
1.0352e-05
1.03524e-05
1.03531e-05
1.03541e-05
1.03555e-05
1.03576e-05
1.03607e-05
1.03654e-05
1.03722e-05
1.03824e-05
1.03975e-05
1.04199e-05
1.04533e-05
1.0503e-05
1.05766e-05
1.06857e-05
1.08463e-05
1.10818e-05
1.14261e-05
1.0351e-05
1.0351e-05
1.0351e-05
1.0351e-05
1.0351e-05
1.0351e-05
1.0351e-05
1.0351e-05
1.0351e-05
1.0351e-05
1.0351e-05
1.0351e-05
1.0351e-05
1.0351e-05
1.0351e-05
1.0351e-05
1.0351e-05
1.0351e-05
1.0351e-05
1.0351e-05
1.03511e-05
1.03511e-05
1.03511e-05
1.03512e-05
1.03513e-05
1.03514e-05
1.03515e-05
1.03518e-05
1.03521e-05
1.03526e-05
1.03533e-05
1.03544e-05
1.03559e-05
1.03582e-05
1.03615e-05
1.03663e-05
1.03734e-05
1.03838e-05
1.03991e-05
1.04217e-05
1.04551e-05
1.05041e-05
1.05763e-05
1.06821e-05
1.08363e-05
1.10589e-05
1.13764e-05
1.18216e-05
1.24335e-05
1.32538e-05
1.0351e-05
1.0351e-05
1.0351e-05
1.0351e-05
1.0351e-05
1.0351e-05
1.0351e-05
1.0351e-05
1.0351e-05
1.0351e-05
1.0351e-05
1.0351e-05
1.0351e-05
1.0351e-05
1.0351e-05
1.0351e-05
1.03511e-05
1.03511e-05
1.03511e-05
1.03512e-05
1.03512e-05
1.03513e-05
1.03514e-05
1.03516e-05
1.03519e-05
1.03523e-05
1.03529e-05
1.03537e-05
1.03548e-05
1.03565e-05
1.03589e-05
1.03625e-05
1.03676e-05
1.0375e-05
1.03859e-05
1.04018e-05
1.0425e-05
1.04589e-05
1.05083e-05
1.05804e-05
1.0685e-05
1.08362e-05
1.10527e-05
1.13588e-05
1.17845e-05
1.23631e-05
1.31281e-05
1.4108e-05
1.53212e-05
1.67693e-05
1.0351e-05
1.0351e-05
1.0351e-05
1.0351e-05
1.0351e-05
1.0351e-05
1.0351e-05
1.0351e-05
1.0351e-05
1.0351e-05
1.0351e-05
1.0351e-05
1.03511e-05
1.03511e-05
1.03511e-05
1.03511e-05
1.03512e-05
1.03513e-05
1.03514e-05
1.03515e-05
1.03518e-05
1.03521e-05
1.03525e-05
1.03532e-05
1.03541e-05
1.03554e-05
1.03572e-05
1.03599e-05
1.03638e-05
1.03693e-05
1.03773e-05
1.03889e-05
1.04056e-05
1.04299e-05
1.04649e-05
1.05156e-05
1.05888e-05
1.06942e-05
1.08451e-05
1.10592e-05
1.13597e-05
1.17743e-05
1.23342e-05
1.30705e-05
1.40088e-05
1.5164e-05
1.65357e-05
1.81078e-05
1.98523e-05
2.17274e-05
1.0351e-05
1.0351e-05
1.0351e-05
1.0351e-05
1.0351e-05
1.0351e-05
1.0351e-05
1.0351e-05
1.03511e-05
1.03511e-05
1.03511e-05
1.03511e-05
1.03512e-05
1.03512e-05
1.03513e-05
1.03515e-05
1.03517e-05
1.03519e-05
1.03523e-05
1.03528e-05
1.03536e-05
1.03546e-05
1.03561e-05
1.03582e-05
1.03612e-05
1.03655e-05
1.03716e-05
1.03804e-05
1.03929e-05
1.04109e-05
1.04366e-05
1.04735e-05
1.05265e-05
1.06022e-05
1.07101e-05
1.08633e-05
1.10787e-05
1.13782e-05
1.17881e-05
1.23377e-05
1.30558e-05
1.39668e-05
1.50847e-05
1.64098e-05
1.79267e-05
1.96063e-05
2.141e-05
2.32949e-05
2.52159e-05
2.71276e-05
1.0351e-05
1.0351e-05
1.0351e-05
1.0351e-05
1.03511e-05
1.03511e-05
1.03511e-05
1.03511e-05
1.03512e-05
1.03512e-05
1.03513e-05
1.03514e-05
1.03516e-05
1.03518e-05
1.03522e-05
1.03526e-05
1.03532e-05
1.03541e-05
1.03553e-05
1.03571e-05
1.03595e-05
1.03629e-05
1.03678e-05
1.03746e-05
1.03844e-05
1.03982e-05
1.04178e-05
1.04456e-05
1.04852e-05
1.05414e-05
1.06211e-05
1.07336e-05
1.08916e-05
1.11118e-05
1.1415e-05
1.18262e-05
1.23728e-05
1.30818e-05
1.39755e-05
1.50671e-05
1.63574e-05
1.78326e-05
1.94663e-05
2.12227e-05
2.30606e-05
2.49361e-05
2.68025e-05
2.8619e-05
3.03479e-05
3.19553e-05
1.03511e-05
1.03511e-05
1.03511e-05
1.03511e-05
1.03512e-05
1.03512e-05
1.03513e-05
1.03514e-05
1.03516e-05
1.03518e-05
1.03521e-05
1.03525e-05
1.0353e-05
1.03538e-05
1.03548e-05
1.03563e-05
1.03583e-05
1.03612e-05
1.03652e-05
1.03708e-05
1.03786e-05
1.03896e-05
1.04051e-05
1.04268e-05
1.04575e-05
1.05007e-05
1.05614e-05
1.06466e-05
1.07657e-05
1.09315e-05
1.116e-05
1.14716e-05
1.18899e-05
1.24406e-05
1.31487e-05
1.40345e-05
1.51098e-05
1.63748e-05
1.78171e-05
1.94123e-05
2.11277e-05
2.29253e-05
2.4765e-05
2.66039e-05
2.84009e-05
3.01192e-05
3.17206e-05
3.31603e-05
3.43932e-05
3.54071e-05
1.03511e-05
1.03512e-05
1.03512e-05
1.03513e-05
1.03514e-05
1.03516e-05
1.03518e-05
1.0352e-05
1.03524e-05
1.03529e-05
1.03536e-05
1.03545e-05
1.03558e-05
1.03576e-05
1.036e-05
1.03634e-05
1.03681e-05
1.03747e-05
1.03838e-05
1.03964e-05
1.0414e-05
1.04386e-05
1.0473e-05
1.05208e-05
1.05875e-05
1.06801e-05
1.08084e-05
1.09849e-05
1.12257e-05
1.15505e-05
1.19817e-05
1.25435e-05
1.32585e-05
1.4145e-05
1.52128e-05
1.64615e-05
1.78788e-05
1.94422e-05
2.11213e-05
2.28812e-05
2.46853e-05
2.64948e-05
2.82707e-05
2.99784e-05
3.15841e-05
3.30485e-05
3.43281e-05
3.53896e-05
3.62248e-05
3.68475e-05
3.73023e-05
1.03514e-05
1.03516e-05
1.03518e-05
1.0352e-05
1.03524e-05
1.03528e-05
1.03535e-05
1.03543e-05
1.03555e-05
1.03571e-05
1.03593e-05
1.03623e-05
1.03664e-05
1.03721e-05
1.03798e-05
1.03906e-05
1.04054e-05
1.04258e-05
1.04541e-05
1.04931e-05
1.0547e-05
1.06214e-05
1.07238e-05
1.0864e-05
1.10547e-05
1.13121e-05
1.16551e-05
1.21053e-05
1.26849e-05
1.34144e-05
1.43096e-05
1.53782e-05
1.66185e-05
1.80182e-05
1.9556e-05
2.12035e-05
2.29285e-05
2.46973e-05
2.64752e-05
2.82258e-05
2.99163e-05
3.15164e-05
3.29925e-05
3.43051e-05
3.54183e-05
3.6314e-05
3.69982e-05
3.74963e-05
3.7845e-05
3.80797e-05
3.82384e-05
1.0352e-05
1.03524e-05
1.03528e-05
1.03534e-05
1.03543e-05
1.03554e-05
1.03569e-05
1.03589e-05
1.03616e-05
1.03654e-05
1.03704e-05
1.03773e-05
1.03868e-05
1.03996e-05
1.04172e-05
1.04413e-05
1.04743e-05
1.05194e-05
1.05811e-05
1.06654e-05
1.07802e-05
1.09356e-05
1.11447e-05
1.14234e-05
1.17903e-05
1.22656e-05
1.28697e-05
1.3621e-05
1.45323e-05
1.56091e-05
1.68481e-05
1.82365e-05
1.9754e-05
2.1374e-05
2.30667e-05
2.48009e-05
2.65456e-05
2.82675e-05
2.99354e-05
3.15217e-05
3.29974e-05
3.43279e-05
3.54774e-05
3.64224e-05
3.71603e-05
3.77096e-05
3.81003e-05
3.83675e-05
3.85436e-05
3.86561e-05
3.8726e-05
3.87687e-05
1.03543e-05
1.03554e-05
1.03568e-05
1.03588e-05
1.03614e-05
1.03649e-05
1.03696e-05
1.03759e-05
1.03845e-05
1.03961e-05
1.04117e-05
1.0433e-05
1.04618e-05
1.05009e-05
1.05539e-05
1.06256e-05
1.07225e-05
1.0853e-05
1.10277e-05
1.12599e-05
1.15653e-05
1.1962e-05
1.24689e-05
1.31045e-05
1.38842e-05
1.48184e-05
1.59099e-05
1.71536e-05
1.85362e-05
2.00379e-05
2.16339e-05
2.32964e-05
2.4997e-05
2.67073e-05
2.83976e-05
3.00386e-05
3.16044e-05
3.30698e-05
3.44048e-05
3.55759e-05
3.6557e-05
3.73389e-05
3.79324e-05
3.83629e-05
3.8662e-05
3.88627e-05
3.89912e-05
3.90699e-05
3.91158e-05
3.91366e-05
3.91414e-05
3.91441e-05
1.03615e-05
1.03649e-05
1.03694e-05
1.03754e-05
1.03835e-05
1.03943e-05
1.04087e-05
1.04282e-05
1.04542e-05
1.04892e-05
1.05362e-05
1.05993e-05
1.06839e-05
1.07969e-05
1.09472e-05
1.1146e-05
1.14067e-05
1.1745e-05
1.2178e-05
1.27233e-05
1.33969e-05
1.42116e-05
1.51745e-05
1.62861e-05
1.75392e-05
1.89201e-05
2.04096e-05
2.19841e-05
2.36181e-05
2.52854e-05
2.69605e-05
2.86167e-05
3.02268e-05
3.17667e-05
3.32138e-05
3.45425e-05
3.57223e-05
3.67263e-05
3.75408e-05
3.81707e-05
3.86363e-05
3.89653e-05
3.91884e-05
3.93338e-05
3.94232e-05
3.94759e-05
3.95017e-05
3.95052e-05
3.95024e-05
3.9496e-05
3.94786e-05
3.9451e-05
1.03837e-05
1.03941e-05
1.04079e-05
1.04262e-05
1.04506e-05
1.0483e-05
1.05261e-05
1.05835e-05
1.06597e-05
1.07607e-05
1.0894e-05
1.10692e-05
1.12979e-05
1.15936e-05
1.19716e-05
1.2448e-05
1.30384e-05
1.37564e-05
1.46116e-05
1.56082e-05
1.67439e-05
1.80099e-05
1.9392e-05
2.08713e-05
2.2426e-05
2.40324e-05
2.56667e-05
2.73056e-05
2.89254e-05
3.0501e-05
3.20102e-05
3.34326e-05
3.47458e-05
3.59228e-05
3.69373e-05
3.77733e-05
3.84305e-05
3.89245e-05
3.92793e-05
3.95235e-05
3.96852e-05
3.97852e-05
3.98435e-05
3.98743e-05
3.98806e-05
3.98747e-05
3.9866e-05
3.98499e-05
3.9821e-05
3.97846e-05
3.97433e-05
3.96993e-05
1.04504e-05
1.04815e-05
1.05224e-05
1.05763e-05
1.06472e-05
1.07403e-05
1.08624e-05
1.10215e-05
1.12278e-05
1.14932e-05
1.18312e-05
1.22563e-05
1.27833e-05
1.34255e-05
1.41937e-05
1.50941e-05
1.61278e-05
1.72903e-05
1.85711e-05
1.99557e-05
2.14259e-05
2.29613e-05
2.45401e-05
2.61408e-05
2.77422e-05
2.93233e-05
3.08614e-05
3.23356e-05
3.37275e-05
3.50176e-05
3.61819e-05
3.71959e-05
3.80422e-05
3.87174e-05
3.92323e-05
3.9608e-05
3.98704e-05
4.00458e-05
4.01562e-05
4.02207e-05
4.02554e-05
4.0264e-05
4.02567e-05
4.02452e-05
4.02287e-05
4.02006e-05
4.01636e-05
4.01216e-05
4.00742e-05
4.00253e-05
3.99771e-05
3.99307e-05
1.06449e-05
1.07336e-05
1.08488e-05
1.09977e-05
1.11893e-05
1.14341e-05
1.17442e-05
1.21326e-05
1.26128e-05
1.31975e-05
1.38976e-05
1.47205e-05
1.56693e-05
1.67422e-05
1.79323e-05
1.92282e-05
2.06152e-05
2.20759e-05
2.35914e-05
2.51417e-05
2.67076e-05
2.827e-05
2.98101e-05
3.13073e-05
3.27425e-05
3.4099e-05
3.53593e-05
3.65026e-05
3.75062e-05
3.83526e-05
3.9036e-05
3.9564e-05
3.99549e-05
4.02312e-05
4.0418e-05
4.05375e-05
4.06076e-05
4.06447e-05
4.06563e-05
4.0649e-05
4.06336e-05
4.06148e-05
4.05883e-05
4.0551e-05
4.05077e-05
4.04592e-05
4.04073e-05
4.03552e-05
4.03039e-05
4.02533e-05
4.02033e-05
4.01546e-05
1.11786e-05
1.14108e-05
1.17027e-05
1.20663e-05
1.25138e-05
1.30568e-05
1.37059e-05
1.44686e-05
1.53493e-05
1.63479e-05
1.746e-05
1.86768e-05
1.99863e-05
2.1374e-05
2.28234e-05
2.43173e-05
2.58376e-05
2.73668e-05
2.88881e-05
3.03846e-05
3.18377e-05
3.32301e-05
3.45464e-05
3.57714e-05
3.68864e-05
3.78708e-05
3.87076e-05
3.93901e-05
3.99235e-05
4.03228e-05
4.06085e-05
4.08038e-05
4.093e-05
4.10045e-05
4.10437e-05
4.10575e-05
4.10501e-05
4.10318e-05
4.10095e-05
4.09826e-05
4.09446e-05
4.08997e-05
4.08513e-05
4.07975e-05
4.07424e-05
4.06876e-05
4.06335e-05
4.05795e-05
4.05261e-05
4.04733e-05
4.04211e-05
4.03698e-05
1.29933e-05
1.36063e-05
1.43247e-05
1.51532e-05
1.60926e-05
1.71401e-05
1.82891e-05
1.95297e-05
2.08496e-05
2.22347e-05
2.367e-05
2.51395e-05
2.66271e-05
2.81173e-05
2.9595e-05
3.10451e-05
3.24509e-05
3.37967e-05
3.50686e-05
3.62529e-05
3.73331e-05
3.82906e-05
3.91094e-05
3.97825e-05
4.03133e-05
4.07144e-05
4.10044e-05
4.12048e-05
4.13349e-05
4.14124e-05
4.14533e-05
4.14673e-05
4.14597e-05
4.14399e-05
4.14139e-05
4.13844e-05
4.13465e-05
4.13004e-05
4.12501e-05
4.11947e-05
4.11366e-05
4.10785e-05
4.10212e-05
4.09643e-05
4.09076e-05
4.08514e-05
4.07955e-05
4.07398e-05
4.06843e-05
4.06294e-05
4.05751e-05
1.59653e-05
1.69616e-05
1.80547e-05
1.92362e-05
2.04957e-05
2.18211e-05
2.31993e-05
2.46162e-05
2.60577e-05
2.75094e-05
2.89574e-05
3.03886e-05
3.17893e-05
3.31445e-05
3.444e-05
3.56633e-05
3.68022e-05
3.7842e-05
3.87656e-05
3.95587e-05
4.02143e-05
4.07349e-05
4.11315e-05
4.14209e-05
4.1622e-05
4.17533e-05
4.18322e-05
4.18734e-05
4.18863e-05
4.18785e-05
4.18573e-05
4.18268e-05
4.17939e-05
4.17561e-05
4.17081e-05
4.16555e-05
4.15994e-05
4.15389e-05
4.14777e-05
4.1417e-05
4.13566e-05
4.12964e-05
4.12369e-05
4.11779e-05
4.11191e-05
4.10605e-05
4.10021e-05
4.09437e-05
4.08854e-05
4.08276e-05
4.07702e-05
2.0306e-05
2.15778e-05
2.29024e-05
2.42678e-05
2.56614e-05
2.70705e-05
2.84822e-05
2.98847e-05
3.12661e-05
3.26141e-05
3.39152e-05
3.51567e-05
3.63275e-05
3.74167e-05
3.84107e-05
3.92944e-05
4.00549e-05
4.06858e-05
4.11894e-05
4.15753e-05
4.18586e-05
4.20565e-05
4.21863e-05
4.22644e-05
4.23042e-05
4.23152e-05
4.23065e-05
4.22831e-05
4.2249e-05
4.22124e-05
4.21727e-05
4.21229e-05
4.20681e-05
4.20105e-05
4.19481e-05
4.18838e-05
4.18199e-05
4.17565e-05
4.16932e-05
4.16303e-05
4.1568e-05
4.15059e-05
4.1444e-05
4.13825e-05
4.13211e-05
4.12599e-05
4.11987e-05
4.11375e-05
4.10763e-05
4.10155e-05
4.0955e-05
2.68035e-05
2.8175e-05
2.95426e-05
3.08956e-05
3.22236e-05
3.35155e-05
3.47589e-05
3.59428e-05
3.70574e-05
3.80926e-05
3.90363e-05
3.98746e-05
4.05963e-05
4.11962e-05
4.16765e-05
4.20458e-05
4.23181e-05
4.2509e-05
4.2634e-05
4.27089e-05
4.27461e-05
4.27544e-05
4.27437e-05
4.27175e-05
4.26803e-05
4.26395e-05
4.25965e-05
4.25457e-05
4.24885e-05
4.24286e-05
4.23644e-05
4.22971e-05
4.22299e-05
4.21633e-05
4.20969e-05
4.20308e-05
4.19652e-05
4.19001e-05
4.18351e-05
4.17705e-05
4.1706e-05
4.16416e-05
4.15774e-05
4.15133e-05
4.14492e-05
4.13851e-05
4.13211e-05
4.1257e-05
4.11932e-05
4.11296e-05
3.19855e-05
3.32564e-05