/*--------------------------------*- C++ -*----------------------------------*\
| =========                 |                                                 |
| \\      /  F ield         | OpenFOAM: The Open Source CFD Toolbox           |
|  \\    /   O peration     | Version:  v1706                                 |
|   \\  /    A nd           | Web:      www.OpenFOAM.com                      |
|    \\/     M anipulation  |                                                 |
\*---------------------------------------------------------------------------*/
FoamFile
{
    version     2.0;
    format      ascii;
    class       volScalarField;
    location    "3.1e-05";
    object      p;
}
// * * * * * * * * * * * * * * * * * * * * * * * * * * * * * * * * * * * * * //

dimensions      [1 -1 -2 0 0 0 0];


internalField   nonuniform List<scalar> 
30038
(
21.9139
21.9139
21.9139
21.9139
21.9139
21.9139
21.9139
21.9139
21.9139
21.9139
21.9139
21.9139
21.9139
21.9139
21.9139
21.9139
21.9139
21.9139
21.9139
21.9139
21.9139
21.9139
21.9139
21.9139
21.9139
21.9139
21.9139
21.9139
21.9139
21.9139
21.9139
21.9139
21.9139
21.9139
21.9139
21.9139
21.9139
21.9139
21.9139
21.9139
21.9139
21.9139
21.9139
21.9139
21.9139
21.9139
21.9139
21.9139
21.9139
21.9139
21.9139
21.9139
21.9139
21.9139
21.9139
21.9139
21.9139
21.9139
21.9139
21.9139
21.9139
21.9139
21.9139
21.9139
21.9139
21.9139
21.9139
21.9139
21.9139
21.9139
21.9139
21.9139
21.9139
21.9139
21.9139
21.9139
21.9139
21.9139
21.9139
21.9139
21.9139
21.9139
21.9139
21.9139
21.9139
21.9139
21.9139
21.9139
21.9139
21.9139
21.9139
21.9139
21.9139
21.9139
21.9139
21.9139
21.9139
21.9139
21.9139
21.9139
21.9139
21.9139
21.9139
21.9139
21.9139
21.9139
21.9139
21.9139
21.9139
21.9139
21.9139
21.9139
21.9139
21.9139
21.9139
21.9139
21.9139
21.9139
21.9139
21.9139
21.9139
21.9139
21.9139
21.9139
21.9139
21.9139
21.9139
21.9139
21.9139
21.9139
21.9139
21.9139
21.9139
21.9139
21.9139
21.9139
21.9139
21.9139
21.9139
21.9139
21.9139
21.9139
21.9139
21.9139
21.9139
21.9139
21.9139
21.9139
21.9139
21.9139
21.9139
21.9139
21.9139
21.9139
21.9139
21.9139
21.9139
21.9139
21.9139
21.9139
21.9139
21.9139
21.9139
21.9139
21.9139
21.9139
21.9139
21.9139
21.9139
21.9139
21.9139
21.9139
21.9139
21.9139
21.9139
21.9139
21.9139
21.9139
21.9139
21.9139
21.9139
21.9139
21.9139
21.9139
21.9139
21.9139
21.9139
21.9139
21.9139
21.9139
21.9139
21.9139
21.9139
21.9139
21.9139
21.9139
21.9139
21.9139
21.9139
21.9139
21.9139
21.9139
21.9139
21.9139
21.9139
21.9139
21.9139
21.9139
21.9139
21.9139
21.9139
21.9139
21.9139
21.9139
21.9139
21.9139
21.9139
21.9139
21.9139
21.9139
21.9139
21.9139
21.9139
21.9139
21.9139
21.9139
21.9139
21.9139
21.9139
21.9139
21.9139
21.9139
21.9139
21.9139
21.9139
21.9139
21.9139
21.9139
21.9139
21.9139
21.9139
21.9139
21.9139
21.9139
21.9139
21.9139
21.9139
21.9139
21.9139
21.9139
21.9139
21.9139
21.9139
21.9139
21.9139
21.9139
21.9139
21.9139
21.9139
21.9139
21.9139
21.9139
21.9139
21.9139
21.9139
21.9139
21.9139
21.9139
21.9139
21.9139
21.9139
21.9139
21.9139
21.9139
21.9139
21.9139
21.9139
21.9139
21.9139
21.9139
21.9139
21.9139
21.9139
21.9139
21.9139
21.9139
21.9139
21.9139
21.9139
21.9139
21.9139
21.9139
21.9139
21.9139
21.9139
21.9139
21.9139
21.9139
21.9139
21.9139
21.9139
21.9139
21.9139
21.9139
21.9139
21.9139
21.9139
21.9139
21.9139
21.9139
21.9139
21.9139
21.9139
21.9139
21.9139
21.9139
21.9139
21.9139
21.9139
21.9139
21.9139
21.9139
21.9139
21.9139
21.9139
21.9139
21.9139
21.9139
21.9139
21.9139
21.9139
21.9139
21.9139
21.9139
21.9139
21.9139
21.9139
21.9139
21.9139
21.9139
21.9139
21.9139
21.9139
21.9139
21.9139
21.9139
21.9139
21.9139
21.9139
21.9139
21.9139
21.9139
21.9139
21.9139
21.9139
21.9139
21.9139
21.9139
21.9139
21.9139
21.9139
21.9139
21.9139
21.9139
21.9139
21.9139
21.9139
21.9139
21.9139
21.9139
21.9139
21.9139
21.9139
21.9139
21.9139
21.9139
21.9139
21.9139
21.9139
21.9139
21.9139
21.9139
21.9139
21.9139
21.9139
21.9139
21.9139
21.9139
21.9139
21.9139
21.9139
21.9139
21.9139
21.9139
21.9139
21.9139
21.9139
21.9139
21.9139
21.9139
21.9139
21.9139
21.9139
21.9139
21.9139
21.9139
21.9139
21.9139
21.9139
21.9139
21.9139
21.9139
21.9139
21.9139
21.9139
21.9139
21.9139
21.9139
21.9139
21.9139
21.9139
21.9139
21.9139
21.9139
21.9139
21.9139
21.9139
21.9139
21.9139
21.9139
21.9139
21.9139
21.9139
21.9139
21.9139
21.9139
21.9139
21.9139
21.9139
21.9139
21.9139
21.9139
21.9139
21.9139
21.9139
21.9139
21.9139
21.9139
21.9139
21.9139
21.9139
21.9139
21.9139
21.9139
21.9139
21.9139
21.9139
21.9139
21.9139
21.9139
21.9139
21.9139
21.9139
21.9139
21.9139
21.9139
21.9139
21.9139
21.9139
21.9139
21.9139
21.9139
21.9139
21.9139
21.9139
21.9139
21.9139
21.9139
21.9139
21.9139
21.9139
21.9139
21.9139
21.9139
21.9139
21.9139
21.9139
21.9139
21.9139
21.9139
21.9139
21.9139
21.9139
21.9139
21.9139
21.9139
21.9139
21.9139
21.9139
21.9139
21.9139
21.9139
21.9139
21.9139
21.9139
21.9139
21.9139
21.9139
21.9139
21.9139
21.9139
21.9139
21.9139
21.9139
21.9139
21.9139
21.9139
21.9139
21.9139
21.9139
21.9139
21.9139
21.9139
21.9139
21.9139
21.9139
21.9139
21.9139
21.9139
21.9139
21.9139
21.9139
21.9139
21.9139
21.9139
21.9139
21.9139
21.9139
21.9139
21.9139
21.9139
21.9139
21.9139
21.9139
21.9139
21.9139
21.9139
21.9139
21.9139
21.9139
21.9139
21.9139
21.9139
21.9139
21.9139
21.9139
21.9139
21.9139
21.9139
21.9139
21.9139
21.9139
21.9139
21.9139
21.9139
21.9139
21.9139
21.9139
21.9139
21.9139
21.9139
21.9139
21.9139
21.9139
21.9139
21.9139
21.9139
21.9139
21.9139
21.9139
21.9139
21.9139
21.9139
21.9139
21.9139
21.9139
21.9139
21.9139
21.9139
21.9139
21.9139
21.9139
21.9139
21.9139
21.9139
21.9139
21.9139
21.9139
21.9139
21.9139
21.9139
21.9139
21.9139
21.9139
21.9139
21.9139
21.9139
21.9139
21.9139
21.9139
21.9139
21.9139
21.9139
21.9139
21.9139
21.9139
21.9139
21.9139
21.9139
21.9139
21.9139
21.9139
21.9139
21.9139
21.9139
21.9139
21.9139
21.9139
21.9139
21.9139
21.9139
21.9139
21.9139
21.9139
21.9139
21.9139
21.9139
21.9139
21.9139
21.9139
21.9139
21.9139
21.9139
21.9139
21.9139
21.9139
21.9139
21.9139
21.9139
21.9139
21.9139
21.9139
21.9139
21.9139
21.9139
21.9139
21.9139
21.9139
21.9139
21.9139
21.9139
21.9139
21.9139
21.9139
21.9139
21.9139
21.9139
21.9139
21.9139
21.9139
21.9139
21.9139
21.9139
21.9139
21.9139
21.9139
21.9139
21.9139
21.9139
21.9139
21.9139
21.9139
21.9139
21.9139
21.9139
21.9139
21.9139
21.9139
21.9139
21.9139
21.9139
21.9139
21.9139
21.9139
21.9139
21.9139
21.9139
21.9139
21.9139
21.9139
21.9139
21.9139
21.9139
21.9139
21.9139
21.9139
21.9139
21.9139
21.9139
21.9139
21.9139
21.9139
21.9139
21.9139
21.9139
21.9139
21.9139
21.9139
21.9139
21.9139
21.9139
21.9139
21.9139
21.9139
21.9139
21.9139
21.9139
21.9139
21.9139
21.9139
21.9139
21.9139
21.9139
21.9139
21.9139
21.9139
21.9139
21.9139
21.9139
21.9139
21.9139
21.9139
21.9139
21.9139
21.9139
21.9139
21.9139
21.9139
21.9139
21.9139
21.9139
21.9139
21.9139
21.9139
21.9139
21.9139
21.9139
21.9139
21.9139
21.9139
21.9139
21.9139
21.9139
21.9139
21.9139
21.9139
21.9139
21.9139
21.9139
21.9139
21.9139
21.9139
21.9139
21.9139
21.9139
21.9139
21.9139
21.9139
21.9139
21.9139
21.9139
21.9139
21.9139
21.9139
21.9139
21.9139
21.9139
21.9139
21.9139
21.9139
21.9139
21.9139
21.9139
21.9139
21.9139
21.9139
21.9139
21.9139
21.9139
21.9139
21.9139
21.9139
21.9139
21.9139
21.9139
21.9139
21.9139
21.9139
21.9139
21.9139
21.9139
21.9139
21.9139
21.9139
21.9139
21.9139
21.9139
21.9139
21.9139
21.9139
21.9139
21.9139
21.9139
21.9139
21.9139
21.9139
21.9139
21.9139
21.9139
21.9139
21.9139
21.9139
21.9139
21.9139
21.9139
21.9139
21.9139
21.9139
21.9139
21.9139
21.9139
21.9139
21.9139
21.9139
21.9139
21.9139
21.9139
21.9139
21.9139
21.9139
21.9139
21.9139
21.9139
21.9139
21.9139
21.9139
21.9139
21.9139
21.9139
21.9139
21.9139
21.9139
21.9139
21.9139
21.9139
21.9139
21.9139
21.9139
21.9139
21.9139
21.9139
21.9139
21.9139
21.9139
21.9139
21.9139
21.9139
21.9139
21.9139
21.9139
21.9139
21.9139
21.9139
21.9139
21.9139
21.9139
21.9139
21.9139
21.9139
21.9139
21.9139
21.9139
21.9139
21.9139
21.9139
21.9139
21.9139
21.9139
21.9139
21.9139
21.9139
21.9139
21.9139
21.9139
21.9139
21.9139
21.9139
21.9139
21.9139
21.9139
21.9139
21.9139
21.9139
21.9139
21.9139
21.9139
21.9139
21.9139
21.9139
21.9139
21.9139
21.9139
21.9139
21.9139
21.9139
21.9139
21.9139
21.9139
21.9139
21.9139
21.9139
21.9139
21.9139
21.9139
21.9139
21.9139
21.9139
21.9139
21.9139
21.9139
21.9139
21.9139
21.9139
21.9139
21.9139
21.9139
21.9139
21.9139
21.9139
21.9139
21.9139
21.9139
21.9139
21.9139
21.9139
21.9139
21.9139
21.9139
21.9139
21.9139
21.9139
21.9139
21.9139
21.9139
21.9139
21.9139
21.9139
21.9139
21.9139
21.9139
21.9139
21.9139
21.9139
21.9139
21.9139
21.9139
21.9139
21.9139
21.9139
21.9139
21.9139
21.9139
21.9139
21.9139
21.9139
21.9139
21.9139
21.9139
21.9139
21.9139
21.9139
21.9139
21.9139
21.9139
21.9139
21.9139
21.9139
21.9139
21.9139
21.9139
21.9139
21.9139
21.9139
21.9139
21.9139
21.9139
21.9139
21.9139
21.9139
21.9139
21.9139
21.9139
21.9139
21.9139
21.9139
21.9139
21.9139
21.9139
21.9139
21.9139
21.9139
21.9139
21.9139
21.9139
21.9139
21.9139
21.9139
21.9139
21.9139
21.9139
21.9139
21.9139
21.9139
21.9139
21.9139
21.9139
21.9139
21.9139
21.9139
21.9139
21.9139
21.9139
21.9139
21.9139
21.9139
21.9139
21.9139
21.9139
21.9139
21.9139
21.9139
21.9139
21.9139
21.9139
21.9139
21.9139
21.9139
21.9139
21.9139
21.9139
21.9139
21.9139
21.9139
21.9139
21.9139
21.9139
21.9139
21.9139
21.9139
21.9139
21.9139
21.9139
21.9139
21.9139
21.9139
21.9139
21.9139
21.9139
21.9139
21.9139
21.9139
21.9139
21.9139
21.9139
21.9139
21.9139
21.9139
21.9139
21.9139
21.9139
21.9139
21.9139
21.9139
21.9139
21.9139
21.9139
21.9139
21.9139
21.9139
21.9139
21.9139
21.9139
21.9139
21.9139
21.9139
21.9139
21.9139
21.9139
21.9139
21.9139
21.9139
21.9139
21.9139
21.9139
21.9139
21.9139
21.9139
21.9139
21.9139
21.9139
21.9139
21.9139
21.9139
21.9139
21.9139
21.9139
21.9139
21.9139
21.9139
21.9139
21.9139
21.9139
21.9139
21.9139
21.9139
21.9139
21.9139
21.9139
21.9139
21.9139
21.9139
21.9139
21.9139
21.9139
21.9139
21.9139
21.9139
21.9139
21.9139
21.9139
21.9139
21.9139
21.9139
21.9139
21.9139
21.9139
21.9139
21.9139
21.9139
21.9139
21.9139
21.9139
21.9139
21.9139
21.9139
21.9139
21.9139
21.9139
21.9139
21.9139
21.9139
21.9139
21.9139
21.9139
21.9139
21.9139
21.9139
21.9139
21.9139
21.9139
21.9139
21.9139
21.9139
21.9139
21.9139
21.9139
21.9139
21.9139
21.9139
21.914
21.914
21.9141
21.9139
21.9139
21.9139
21.9139
21.9139
21.9139
21.9139
21.9139
21.9139
21.9139
21.9139
21.9139
21.9139
21.9139
21.9139
21.9139
21.9139
21.9139
21.9139
21.9139
21.9139
21.9139
21.9139
21.9139
21.9139
21.9139
21.9139
21.9139
21.9139
21.9139
21.9139
21.9139
21.9139
21.9139
21.9139
21.9139
21.9139
21.9139
21.9139
21.9139
21.9139
21.9139
21.9139
21.9139
21.914
21.914
21.9141
21.9141
21.9143
21.9145
21.9139
21.9139
21.9139
21.9139
21.9139
21.9139
21.9139
21.9139
21.9139
21.9139
21.9139
21.9139
21.9139
21.9139
21.9139
21.9139
21.9139
21.9139
21.9139
21.9139
21.9139
21.9139
21.9139
21.9139
21.9139
21.9139
21.9139
21.9139
21.9139
21.9139
21.9139
21.9139
21.9139
21.9139
21.9139
21.9139
21.9139
21.9139
21.9139
21.9139
21.9139
21.914
21.914
21.9141
21.9142
21.9143
21.9145
21.9148
21.9153
21.9161
21.9139
21.9139
21.9139
21.9139
21.9139
21.9139
21.9139
21.9139
21.9139
21.9139
21.9139
21.9139
21.9139
21.9139
21.9139
21.9139
21.9139
21.9139
21.9139
21.9139
21.9139
21.9139
21.9139
21.9139
21.9139
21.9139
21.9139
21.9139
21.9139
21.9139
21.9139
21.9139
21.9139
21.9139
21.9139
21.9139
21.9139
21.914
21.914
21.914
21.9141
21.9142
21.9143
21.9145
21.9148
21.9153
21.9161
21.9173
21.9191
21.922
21.9139
21.9139
21.9139
21.9139
21.9139
21.9139
21.9139
21.9139
21.9139
21.9139
21.9139
21.9139
21.9139
21.9139
21.9139
21.9139
21.9139
21.9139
21.9139
21.9139
21.9139
21.9139
21.9139
21.9139
21.9139
21.9139
21.9139
21.9139
21.9139
21.9139
21.9139
21.9139
21.9139
21.9139
21.914
21.914
21.914
21.9141
21.9142
21.9143
21.9146
21.9149
21.9154
21.9162
21.9173
21.9191
21.9218
21.9259
21.9324
21.9427
21.9139
21.9139
21.9139
21.9139
21.9139
21.9139
21.9139
21.9139
21.9139
21.9139
21.9139
21.9139
21.9139
21.9139
21.9139
21.9139
21.9139
21.9139
21.9139
21.9139
21.9139
21.9139
21.9139
21.9139
21.9139
21.9139
21.9139
21.9139
21.9139
21.9139
21.9139
21.914
21.914
21.914
21.9141
21.9142
21.9144
21.9146
21.915
21.9155
21.9163
21.9175
21.9193
21.922
21.926
21.9323
21.9417
21.9561
21.9784
22.0139
21.9139
21.9139
21.9139
21.9139
21.9139
21.9139
21.9139
21.9139
21.9139
21.9139
21.9139
21.9139
21.9139
21.9139
21.9139
21.9139
21.9139
21.9139
21.9139
21.9139
21.9139
21.9139
21.9139
21.9139
21.9139
21.9139
21.9139
21.914
21.914
21.914
21.9141
21.9141
21.9143
21.9144
21.9147
21.9151
21.9156
21.9164
21.9177
21.9195
21.9223
21.9264
21.9327
21.942
21.9562
21.9776
22.0099
22.0591
22.1345
22.2532
21.9139
21.9139
21.9139
21.9139
21.9139
21.9139
21.9139
21.9139
21.9139
21.9139
21.9139
21.9139
21.9139
21.9139
21.9139
21.9139
21.9139
21.9139
21.9139
21.9139
21.9139
21.9139
21.9139
21.9139
21.914
21.914
21.914
21.9141
21.9142
21.9143
21.9145
21.9148
21.9152
21.9158
21.9167
21.918
21.9199
21.9228
21.9271
21.9335
21.943
21.9572
21.9784
22.0103
22.0581
22.13
22.2382
22.4014
22.6488
23.0314
21.9139
21.9139
21.9139
21.9139
21.9139
21.9139
21.9139
21.9139
21.9139
21.9139
21.9139
21.9139
21.9139
21.9139
21.9139
21.9139
21.9139
21.9139
21.9139
21.9139
21.914
21.914
21.914
21.9141
21.9141
21.9142
21.9144
21.9146
21.9149
21.9154
21.916
21.917
21.9184
21.9205
21.9235
21.9281
21.9347
21.9445
21.959
21.9806
22.0126
22.0602
22.1311
22.2368
22.3942
22.6287
22.9777
23.496
24.2644
25.4137
21.9139
21.9139
21.9139
21.9139
21.9139
21.9139
21.9139
21.9139
21.9139
21.9139
21.9139
21.9139
21.9139
21.9139
21.9139
21.9139
21.9139
21.914
21.914
21.914
21.9141
21.9142
21.9143
21.9145
21.9147
21.9151
21.9156
21.9163
21.9174
21.919
21.9212
21.9245
21.9294
21.9364
21.9467
21.9619
21.9842
22.017
22.0653
22.1366
22.2418
22.3972
22.6267
22.9647
23.4611
24.1863
25.2379
26.7473
28.8869
31.9031
21.9139
21.9139
21.9139
21.9139
21.9139
21.9139
21.9139
21.9139
21.9139
21.9139
21.9139
21.9139
21.9139
21.914
21.914
21.914
21.9141
21.9141
21.9142
21.9144
21.9146
21.9149
21.9153
21.9159
21.9167
21.918
21.9197
21.9222
21.9259
21.9311
21.9387
21.9498
21.9659
21.9893
22.0235
22.0735
22.1465
22.2533
22.4097
22.6384
22.9723
23.4584
24.1623
25.1738
26.6115
28.6263
31.4003
35.1466
40.0993
46.5886
21.9139
21.9139
21.9139
21.9139
21.9139
21.9139
21.9139
21.9139
21.9139
21.914
21.914
21.914
21.9141
21.9141
21.9142
21.9143
21.9145
21.9148
21.9151
21.9156
21.9163
21.9173
21.9187
21.9207
21.9235
21.9276
21.9334
21.9418
21.9539
21.9713
21.9964
22.0327
22.0853
22.1614
22.2719
22.432
22.6642
23.0001
23.4846
24.1801
25.171
26.5682
28.5112
31.1672
34.7267
39.3963
45.3917
52.9367
62.2597
73.8644
21.9139
21.9139
21.9139
21.9139
21.9139
21.914
21.914
21.914
21.9141
21.9141
21.9142
21.9143
21.9145
21.9147
21.915
21.9154
21.916
21.9168
21.918
21.9196
21.9219
21.9252
21.9298
21.9365
21.9459
21.9593
21.9784
22.0058
22.0451
22.1014
22.1823
22.2985
22.4655
22.7053
23.0492
23.5408
24.2399
25.2271
26.6071
28.5106
31.0937
34.5325
39.0173
44.7447
51.9109
60.7175
71.3945
84.2656
99.5441
118.302
21.9139
21.914
21.914
21.914
21.9141
21.9141
21.9142
21.9143
21.9144
21.9146
21.9149
21.9153
21.9158
21.9165
21.9175
21.9189
21.9208
21.9236
21.9274
21.9328
21.9404
21.9511
21.9663
21.9877
22.0182
22.0614
22.1228
22.2102
22.3346
22.5119
22.764
23.1222
23.6294
24.344
25.3436
26.7281
28.6211
31.1688
34.5352
38.8963
44.4339
51.3302
59.7662
69.9441
82.121
96.5895
113.631
133.846
158.08
189.62
21.9141
21.9141
21.9142
21.9143
21.9144
21.9146
21.9148
21.9152
21.9157
21.9163
21.9172
21.9184
21.9201
21.9225
21.9258
21.9304
21.9367
21.9456
21.9581
21.9755
21.9999
22.0343
22.0827
22.1508
22.2469
22.3825
22.5739
22.8436
23.223
23.7552
24.4976
25.526
26.9364
28.8466
31.3944
34.7328
39.0249
44.4382
51.1414
59.3004
69.0949
80.7476
94.5427
110.745
129.735
152.335
179.887
213.909
254.452
303.308
21.9143
21.9144
21.9146
21.9148
21.9152
21.9156
21.9162
21.9171
21.9182
21.9197
21.9218
21.9248
21.9288
21.9343
21.942
21.9525
21.9672
21.9876
22.0159
22.0554
22.1105
22.1874
22.2949
22.4452
22.6553
22.9485
23.3572
23.9246
24.7082
25.7825
27.2406
29.1953
31.7769
35.1284
39.4005
44.7476
51.3248
59.2859
68.7913
80.0369
93.2867
108.807
126.894
148.145
173.71
205
242.984
287.317
336.104
385
432.338
21.9152
21.9156
21.9162
21.917
21.9181
21.9195
21.9215
21.9242
21.9278
21.9328
21.9396
21.949
21.9618
21.9794
22.0036
22.037
22.0831
22.1469
22.2352
22.3574
22.5268
22.7612
23.0854
23.5325
24.147
24.9867
26.1255
27.6542
29.6814
32.3303
35.7349
40.0342
45.37
51.8846
59.7208
69.0231
79.9663
92.7855
107.754
125.125
145.342
169.332
198.434
233.808
275.683
322.713
371.93
419.349
461.414
495.26
521.151
21.9171
21.9181
21.9196
21.9214
21.924
21.9274
21.9321
21.9384
21.9469
21.9585
21.9742
21.9957
22.0249
22.065
22.1198
22.1948
22.2978
22.4391
22.633
22.8988
23.2627
23.7595
24.435
25.3479
26.5718
28.1959
30.3246
33.0746
36.571
40.942
46.317
52.826
60.6009
69.774
80.5018
92.9939
107.523
124.327
143.749
166.516
193.844
226.973
266.482
311.648
360.121
408.406
452.679
490.055
519.012
539.6
552.789
560.17
21.9242
21.9275
21.932
21.938
21.9461
21.9569
21.9715
21.9912
22.0177
22.0537
22.1024
22.1686
22.2584
22.3804
22.5463
22.7717
23.0778
23.4924
24.0525
24.8055
25.8114
27.1438
28.8903
31.1512
34.0371
37.664
42.1497
47.6118
54.1692
61.9428
71.0558
81.6495
93.9133
108.107
124.47
143.283
165.113
191.028
222.271
259.642
302.879
350.24
398.66
444.505
484.501
516.794
540.707
556.913
566.536
571.399
572.695
572.599
21.9464
21.9569
21.9709
21.9895
22.0145
22.048
22.0928
22.1531
22.2341
22.3432
22.4901
22.6878
22.9539
23.3114
23.7906
24.4307
25.2811
26.4032
27.8707
29.7695
32.1957
35.2532
39.0493
43.6914
49.286
55.9413
63.7688
72.8835
83.4138
95.5339
109.485
125.515
143.865
164.99
189.806
219.512
255.035
296.434
342.468
390.532
437.263
479.319
514.365
541.32
560.405
572.589
579.33
581.949
582.061
581.995
581.265
579.026
22.0148
22.047
22.0898
22.1466
22.2223
22.3231
22.4576
22.6369
22.876
23.1945
23.6178
24.1789
24.9195
25.8912
27.1569
28.7899
30.8738
33.5004
36.7665
40.7705
45.6095
51.3795
58.1794
66.1119
75.2854
85.8177
97.8709
111.671
127.47
145.483
166.091
190.072
218.557
252.53
292.271
336.922
384.321
431.401
474.879
512.122
541.793
563.597
578.233
586.823
591.078
591.91
591.691
591.333
589.827
586.85
582.658
577.357
22.2214
22.3178
22.4451
22.6132
22.8353
23.1283
23.5145
24.022
24.6867
25.553
26.6748
28.1158
29.9486
32.254
35.1184
38.6312
42.8816
47.957
53.9435
60.9316
69.017
78.3018
88.8957
100.952
114.683
130.343
148.133
168.375
191.744
219.292
252.013
290.325
333.651
380.214
427.243
471.609
510.562
542.462
566.64
583.561
594.214
599.945
601.845
601.729
601.531
600.462
598.039
594.41
589.663
584.176
578.212
571.825
22.8269
23.1053
23.4689
23.9426
24.5577
25.3531
26.376
27.6819
29.3347
31.4056
33.9714
37.1124
40.9101
45.4446
50.7938
57.0352
64.2522
72.5347
81.9797
92.6906
104.814
118.554
134.163
151.83
171.84
194.787
221.648
253.399
290.533
332.669
378.328
425.034
469.854
510.032
543.665
569.909
588.923
601.464
608.599
611.812
612.137
611.736
611.094
609.278
606.14
601.868
596.773
590.961
584.83
578.585
572.364
565.884
24.5187
25.2709
26.2305
27.4467
28.9762
30.8822
33.2329
36.1001
39.5574
43.6781
48.5332
54.1919
60.7245
68.2091
76.731
86.3826
97.2631
109.515
123.337
138.977
156.615
176.51
199.199
225.595
256.637
292.846
333.965
378.739
424.965
469.9
510.845
545.768
573.711
594.486
608.693
617.316
621.753
622.737
622.344
621.907
620.452
617.656
613.923
609.187
603.749
597.773
591.637
585.376
579.079
572.771
566.585
560.18
30.638
32.842
35.5163
38.7267
42.5394
47.0194
52.2291
58.2301
65.0873
72.8754
81.6759
91.5778
102.677
115.115
129.09
144.841
162.539
182.427
205.008
231.139
261.715
297.244
337.537
381.503
427.157
471.945
513.273
549.113
578.312
600.514
616.173
626.209
631.602
633.48
633.278
632.804
631.681
629.388
625.998
621.623
616.534
610.745
604.672
598.496
592.226
585.948
579.678
573.438
567.194
561.069
554.732
41.9505
46.1557
51.0287
56.6243
62.9981
70.2118
78.338
87.4557
97.6502
109.016
121.699
135.896
151.838
169.684
189.668
212.276
238.328
268.658
303.739
343.403
386.662
431.702
476.15
517.556
553.911
583.957
607.256
624.165
635.296
641.64
644.409
644.533
643.893
643.06
641.125
637.975
634.04
629.232
623.742
617.796
611.718
605.491
599.205
592.931
586.671
580.436
574.22
568.039
561.849
555.766
549.478
61.8208
68.5948
76.1946
84.6919
94.1635
104.692
116.373
129.358
143.847
160.059
178.136
198.315
221.085
247.233
277.528
312.38
351.601
394.265
438.683
482.65
523.862
560.355
590.879
614.962
632.749
644.762
651.994
655.51
655.98
655.378
654.666
652.952
650.082
646.428
641.916
636.728
630.955
624.951
618.809
612.562
606.303
600.043
593.79
587.557
581.345
575.156
568.982
562.839
556.685
550.631
544.382
101.906
112.81
124.856
138.207
153.061
169.619
188.01
208.488
231.553
257.969
288.426
323.245
362.194
404.369
448.17
491.536
532.314
568.626
599.286
623.773
642.092
654.797
662.774
666.785
667.716
667.209
666.403
664.931
662.369
658.916
654.691
649.755
644.161
638.24
632.188
625.993
619.75
613.502
607.253
601.016
594.795
588.587
582.395
576.218
570.06
563.913
557.796
551.669
545.64
539.426
148.376
163.672
180.651
199.442
220.325
243.83
270.685
301.486
336.447
375.27
417.039
460.219
502.875
543.002
578.846
609.298
633.831
652.404
665.529
673.975
678.383
679.79
679.373
678.408
677.128
674.777
671.395
667.471
662.764
657.418
651.63
645.668
639.53
633.302
627.062
620.818
614.578
608.352
602.137
595.935
589.745
583.566
577.4
571.247
565.11
558.986
552.891
546.789
540.782
534.6
212.593
234.002
258.103
285.569
316.88
352.129
390.935
432.351
474.882
516.711
555.979
591.078
621.004
645.253
663.781
677.039
685.724
690.46
692.117
691.794
690.815
689.597
687.377
684.082
680.326
675.837
670.699
665.045
659.164
653.122
646.948
640.738
634.508
628.266
622.031
615.808
609.595
603.394
597.203
591.022
584.852
578.692
572.544
566.409
560.292
554.187
548.113
542.034
536.049
529.9
302.841
334.806
370.456
409.312
450.382
492.199
533.061
571.26
605.345
634.443
658.103
676.274
689.418
698.124
703.011
704.77
704.543
703.573
702.261
700.168
697.047
693.311
689.021
684.1
678.557
672.751
666.789
660.664
654.479
648.274
642.051
635.827
629.606
623.389
617.177
610.974
604.778
598.592
592.415
586.247
580.09
573.945
567.812
561.694
555.595
549.51
543.456
537.401
531.437
525.321
430.521
471.192
512.188
551.912
588.816
621.625
649.613
672.392
689.919
702.703
711.22
716.051
717.814
717.639
716.644
715.202
713.194
710.177
706.439
702.296
697.526
692.118
686.414
680.566
674.499
668.337
662.149
655.938
649.718
643.502
637.289
631.08
624.875
618.672
612.474
606.282
600.096
593.919
587.751
581.593
575.448
569.315
563.198
557.096
551.014
544.949
538.916
532.883
526.942
520.857
573.201
608.569
639.855
666.458
688.083
704.706
716.9
725.022
729.61
731.28
731.06
730.016
728.453
726.465
723.501
719.751
715.699
711.062
705.781
700.163
694.385
688.386
682.272
676.131
669.947
663.738
657.524
651.31
645.098
638.889
632.684
626.482
620.284
614.088
607.896
601.709
595.53
589.359
583.2
577.052
570.917
564.798
558.695
552.609
546.545
540.5
534.487
528.478
522.558
516.505
684.874
705.082
720.617
731.979
739.515
743.699
745.161
744.814
743.705
742.028
739.968
737.039
733.259
729.248
724.722
719.575
714.015
708.302
702.373
696.301
690.193
684.037
677.849
671.656
665.456
659.249
653.039
646.829
640.62
634.413
628.209
622.007
615.809
609.615
603.427
597.244
591.071
584.907
578.756
572.618
566.495
560.388
554.3
548.231
542.185
536.158
530.167
524.18
518.282
512.26
754.661
758.309
759.446
758.918
757.717
755.925
753.727
750.798
746.973
742.965
738.513
733.484
727.962
722.312
716.469
710.438
704.361
698.234
692.065
685.888
679.701
673.504
667.305
661.102
654.895
648.684
642.473
636.26
630.05
623.843
617.639
611.44
605.246
599.06
592.882
586.714
580.558
574.415
568.287
562.176
556.082
550.009
543.956
537.928
531.921
525.95
519.986
514.11
508.119
773.368
772.046
770.122
767.757
764.774
760.902
756.871
752.448
747.509
742.018
736.418
730.663
724.669
718.622
712.537
706.394
700.235
694.062
687.875
681.684
675.487
669.285
663.078
656.868
650.654
644.437
638.219
632.002
625.786
619.575
613.368
607.168
600.975
594.792
588.618
582.456
576.307
570.173
564.056
557.956
551.877
545.818
539.782
533.771
527.784
521.834
515.893
510.039
504.078
782.044
778.96
775.048
770.968
766.537
761.647
756.199
750.635
744.957
738.998
732.979
726.94
720.826
714.686
708.535
702.365
696.185
689.997
683.799
677.596
671.387
665.173
658.955
652.734
646.51
640.285
634.059
627.835
621.615
615.399
609.191
602.99
596.799
590.618
584.449
578.293
572.152
566.028
559.921
553.834
547.768
541.724
535.704
529.712
523.744
517.814
511.896
506.064
500.133
780.786
775.911
770.505
764.967
759.348
753.432
747.44
741.447
735.362
729.241
723.115
716.965
710.799
704.625
698.438
692.242
686.038
679.825
673.606
667.382
661.154
654.922
648.688
642.454
636.219
629.986
623.757
617.532
611.314
605.104
598.903
592.714
586.536
580.372
574.223
568.091
561.975
555.88
549.805
543.752
537.724
531.721
525.746
519.797
513.888
507.993
502.183
496.282
779.418
773.838
767.969
762.007
756.056
750.005
743.905
737.807
731.678
725.526
719.368
713.195
707.009
700.814
694.607
688.392
682.168
675.938
669.701
663.461
657.217
650.972
644.726
638.481
632.238
625.998
619.763
613.535
607.314
601.104
594.904
588.717
582.544
576.385
570.243
564.118
558.013
551.928
545.866
539.827
533.814
527.827
521.871
515.941
510.053
504.18
498.392
492.521
770.765
764.752
758.676
752.607
746.504
740.369
734.229
728.072
721.897
715.713
709.515
703.306
697.087
690.858
684.621
678.377
672.127
665.873
659.616
653.358
647.1
640.843
634.588
628.337
622.092
615.852
609.621
603.399
597.189
590.991
584.806
578.637
572.484
566.349
560.233
554.138
548.065
542.015
535.99
529.992
524.022
518.083
512.173
506.305
500.455
494.689
488.848
767.513
761.439
755.326
749.206
743.069
736.907
730.735
724.55
718.348
712.135
705.911
699.676
693.432
687.181
680.922
674.658
668.39
662.119
655.847
649.575
643.304
637.037
630.774
624.516
618.265
612.022
605.789
599.566
593.356
587.16
580.979
574.814
568.668
562.54
556.433
550.347
544.285
538.248
532.237
526.254
520.301
514.38
508.49
502.642
496.815
491.071
485.259
758.18
752.036
745.88
739.708
733.517
727.313
721.097
714.866
708.625
702.373
696.113
689.845
683.57
677.291
671.008
664.722
658.435
652.149
645.865
639.584
633.307
627.036
620.772
614.516
608.27
602.035
595.812
589.603
583.41
577.232
571.073
564.932
558.812
552.714
546.639
540.588
534.564
528.567
522.599
516.662
510.759
504.888
499.061
493.256
487.535
481.753
754.988
748.811
742.619
736.412
730.189
723.953
717.705
711.445
705.175
698.898
692.612
686.321
680.026
673.726
667.425
661.123
654.822
648.523
642.227
635.936
629.65
623.372
617.103
610.843
604.595
598.359
592.136
585.928
579.737
573.564
567.41
561.276
555.164
549.074
543.009
536.97
530.959
524.976
519.023
513.103
507.218
501.366
495.56
489.778
484.079
478.327
751.854
745.641
739.413
733.171
726.915
720.647
714.369
708.081
701.785
695.482
689.173
682.86
676.544
670.227
663.909
657.592
651.277
644.965
638.659
632.359
626.066
619.782
613.507
607.244
600.994
594.757
588.535
582.329
576.141
569.972
563.824
557.696
551.592
545.512
539.457
533.43
527.431
521.462
515.525
509.621
503.754
497.922
492.137
486.379
480.704
474.982
748.769
742.52
736.257
729.981
723.693
717.395
711.088
704.773
698.451
692.124
685.794
679.46
673.126
666.791
660.457
654.126
647.798
641.476
635.16
628.851
622.551
616.262
609.983
603.717
597.465
591.228
585.007
578.804
572.619
566.455
560.312
554.191
548.095
542.024
535.98
529.964
523.978
518.023
512.102
506.216
500.368
494.556
488.793
483.06
477.41
471.717
745.73
739.446
733.148
726.84
720.522
714.195
707.86
701.519
695.174
688.825
682.473
676.121
669.768
663.417
657.069
650.725
644.385
638.053
631.728
625.411
619.105
612.811
606.529
600.26
594.007
587.77
581.55
575.349
569.169
563.009
556.872
550.758
544.67
538.609
532.576
526.572
520.6
514.66
508.756
502.887
497.059
491.269
485.527
479.815
474.186
468.522
742.734
736.416
730.086
723.747
717.4
711.046
704.685
698.321
691.952
685.582
679.211
672.841
666.472
660.106
653.744
647.387
641.037
634.694
628.361
622.038
615.726
609.427
603.142
596.872
590.618
584.381
578.163
571.965
565.788
559.633
553.502
547.396
541.317
535.266
529.245
523.254
517.296
511.373
505.485
499.633
493.821
488.05
482.327
476.637
471.03
465.394
739.782
733.431
727.071
720.703
714.328
707.948
701.563
695.176
688.786
682.396
676.006
669.619
663.234
656.854
650.479
644.111
637.751
631.4
625.059
618.729
612.412
606.109
599.821
593.55
587.295
581.059
574.843
568.648
562.476
556.327
550.203
544.106
538.037
531.997
525.988
520.01
514.065
508.154
502.28
496.444
490.649
484.895
479.193
473.528
467.946
462.34
730.491
724.102
717.707
711.306
704.901
698.493
692.084
685.674
679.265
672.858
666.455
660.055
653.662
647.275
640.896
634.526
628.167
621.819
615.484
609.162
602.856
596.565
590.293
584.038
577.804
571.591
565.401
559.234
553.092
546.976
540.888
534.828
528.797
522.797
516.829
510.895
504.997
499.138
493.319
487.544
481.81
476.131
470.489
464.932
459.357
727.596
721.18
714.758
708.332
701.904
695.474
689.044
682.616
676.189
669.766
663.347
656.934
650.528
644.129
637.74
631.362
624.995
618.64
612.3
605.974
599.665
593.374
587.101
580.849
574.617
568.408
562.223
556.061
549.924
543.814
537.733
531.68
525.656
519.666
513.71
507.79
501.907
496.065
490.263
484.507
478.794
473.137
467.519
461.986
456.441
724.746
718.303
711.856
705.407
698.957
692.506
686.057
679.61
673.166
666.727
660.294
653.868
647.45
641.041
634.643
628.256
621.882
615.523
609.178
602.85
596.54
590.249
583.977
577.727
571.497
565.289
559.106
552.948
546.816
540.711
534.635
528.591
522.579
516.601
510.657
504.751
498.884
493.057
487.274
481.536
475.844
470.209
464.615
459.107
453.593
715.472
709.001
702.53
696.058
689.588
683.12
676.656
670.196
663.743
657.296
650.858
644.429
638.011
631.605
625.211
618.832
612.468
606.121
599.792
593.48