/*--------------------------------*- C++ -*----------------------------------*\
| =========                 |                                                 |
| \\      /  F ield         | OpenFOAM: The Open Source CFD Toolbox           |
|  \\    /   O peration     | Version:  v1706                                 |
|   \\  /    A nd           | Web:      www.OpenFOAM.com                      |
|    \\/     M anipulation  |                                                 |
\*---------------------------------------------------------------------------*/
FoamFile
{
    version     2.0;
    format      ascii;
    class       volScalarField;
    location    "3.1e-05";
    object      rho;
}
// * * * * * * * * * * * * * * * * * * * * * * * * * * * * * * * * * * * * * //

dimensions      [1 -3 0 0 0 0 0];


internalField   nonuniform List<scalar> 
30038
(
0.000511309
0.000511309
0.000511309
0.000511309
0.000511309
0.000511309
0.000511309
0.000511309
0.000511309
0.000511309
0.000511309
0.000511309
0.000511309
0.000511309
0.000511309
0.000511309
0.000511309
0.000511309
0.000511309
0.000511309
0.000511309
0.000511309
0.000511309
0.000511309
0.000511309
0.000511309
0.000511309
0.000511309
0.000511309
0.000511309
0.000511309
0.000511309
0.000511309
0.000511309
0.000511309
0.000511309
0.000511309
0.000511309
0.000511309
0.000511309
0.000511309
0.000511309
0.000511309
0.000511309
0.000511309
0.000511309
0.000511309
0.000511309
0.000511309
0.000511309
0.000511309
0.000511309
0.000511309
0.000511309
0.000511309
0.000511309
0.000511309
0.000511309
0.000511309
0.000511309
0.000511309
0.000511309
0.000511309
0.000511309
0.000511309
0.000511309
0.000511309
0.000511309
0.000511309
0.000511309
0.000511309
0.000511309
0.000511309
0.000511309
0.000511309
0.000511309
0.000511309
0.000511309
0.000511309
0.000511309
0.000511309
0.000511309
0.000511309
0.000511309
0.000511309
0.000511309
0.000511309
0.000511309
0.000511309
0.000511309
0.000511309
0.000511309
0.000511309
0.000511309
0.000511309
0.000511309
0.000511309
0.000511309
0.000511309
0.000511309
0.000511309
0.000511309
0.000511309
0.000511309
0.000511309
0.000511309
0.000511309
0.000511309
0.000511309
0.000511309
0.000511309
0.000511309
0.000511309
0.000511309
0.000511309
0.000511309
0.000511309
0.000511309
0.000511309
0.000511309
0.000511309
0.000511309
0.000511309
0.000511309
0.000511309
0.000511309
0.000511309
0.000511309
0.000511309
0.000511309
0.000511309
0.000511309
0.000511309
0.000511309
0.000511309
0.000511309
0.000511309
0.000511309
0.000511309
0.000511309
0.000511309
0.000511309
0.000511309
0.000511309
0.000511309
0.000511309
0.000511309
0.000511309
0.000511309
0.000511309
0.000511309
0.000511309
0.000511309
0.000511309
0.000511309
0.000511309
0.000511309
0.000511309
0.000511309
0.000511309
0.000511309
0.000511309
0.000511309
0.000511309
0.000511309
0.000511309
0.000511309
0.000511309
0.000511309
0.000511309
0.000511309
0.000511309
0.000511309
0.000511309
0.000511309
0.000511309
0.000511309
0.000511309
0.000511309
0.000511309
0.000511309
0.000511309
0.000511309
0.000511309
0.000511309
0.000511309
0.000511309
0.000511309
0.000511309
0.000511309
0.000511309
0.000511309
0.000511309
0.000511309
0.000511309
0.000511309
0.000511309
0.000511309
0.000511309
0.000511309
0.000511309
0.000511309
0.000511309
0.000511309
0.000511309
0.000511309
0.000511309
0.000511309
0.000511309
0.000511309
0.000511309
0.000511309
0.000511309
0.000511309
0.000511309
0.000511309
0.000511309
0.000511309
0.000511309
0.000511309
0.000511309
0.000511309
0.000511309
0.000511309
0.000511309
0.000511309
0.000511309
0.000511309
0.000511309
0.000511309
0.000511309
0.000511309
0.000511309
0.000511309
0.000511309
0.000511309
0.000511309
0.000511309
0.000511309
0.000511309
0.000511309
0.000511309
0.000511309
0.000511309
0.000511309
0.000511309
0.000511309
0.000511309
0.000511309
0.000511309
0.000511309
0.000511309
0.000511309
0.000511309
0.000511309
0.000511309
0.000511309
0.000511309
0.000511309
0.000511309
0.000511309
0.000511309
0.000511309
0.000511309
0.000511309
0.000511309
0.000511309
0.000511309
0.000511309
0.000511309
0.000511309
0.000511309
0.000511309
0.000511309
0.000511309
0.000511309
0.000511309
0.000511309
0.000511309
0.000511309
0.000511309
0.000511309
0.000511309
0.000511309
0.000511309
0.000511309
0.000511309
0.000511309
0.000511309
0.000511309
0.000511309
0.000511309
0.000511309
0.000511309
0.000511309
0.000511309
0.000511309
0.000511309
0.000511309
0.000511309
0.000511309
0.000511309
0.000511309
0.000511309
0.000511309
0.000511309
0.000511309
0.000511309
0.000511309
0.000511309
0.000511309
0.000511309
0.000511309
0.000511309
0.000511309
0.000511309
0.000511309
0.000511309
0.000511309
0.000511309
0.000511309
0.000511309
0.000511309
0.000511309
0.000511309
0.000511309
0.000511309
0.000511309
0.000511309
0.000511309
0.000511309
0.000511309
0.000511309
0.000511309
0.000511309
0.000511309
0.000511309
0.000511309
0.000511309
0.000511309
0.000511309
0.000511309
0.000511309
0.000511309
0.000511309
0.000511309
0.000511309
0.000511309
0.000511309
0.000511309
0.000511309
0.000511309
0.000511309
0.000511309
0.000511309
0.000511309
0.000511309
0.000511309
0.000511309
0.000511309
0.000511309
0.000511309
0.000511309
0.000511309
0.000511309
0.000511309
0.000511309
0.000511309
0.000511309
0.000511309
0.000511309
0.000511309
0.000511309
0.000511309
0.000511309
0.000511309
0.000511309
0.000511309
0.000511309
0.000511309
0.000511309
0.000511309
0.000511309
0.000511309
0.000511309
0.000511309
0.000511309
0.000511309
0.000511309
0.000511309
0.000511309
0.000511309
0.000511309
0.000511309
0.000511309
0.000511309
0.000511309
0.000511309
0.000511309
0.000511309
0.000511309
0.000511309
0.000511309
0.000511309
0.000511309
0.000511309
0.000511309
0.000511309
0.000511309
0.000511309
0.000511309
0.000511309
0.000511309
0.000511309
0.000511309
0.000511309
0.000511309
0.000511309
0.000511309
0.000511309
0.000511309
0.000511309
0.000511309
0.000511309
0.000511309
0.000511309
0.000511309
0.000511309
0.000511309
0.000511309
0.000511309
0.000511309
0.000511309
0.000511309
0.000511309
0.000511309
0.000511309
0.000511309
0.000511309
0.000511309
0.000511309
0.000511309
0.000511309
0.000511309
0.000511309
0.000511309
0.000511309
0.000511309
0.000511309
0.000511309
0.000511309
0.000511309
0.000511309
0.000511309
0.000511309
0.000511309
0.000511309
0.000511309
0.000511309
0.000511309
0.000511309
0.000511309
0.000511309
0.000511309
0.000511309
0.000511309
0.000511309
0.000511309
0.000511309
0.000511309
0.000511309
0.000511309
0.000511309
0.000511309
0.000511309
0.000511309
0.000511309
0.000511309
0.000511309
0.000511309
0.000511309
0.000511309
0.000511309
0.000511309
0.000511309
0.000511309
0.000511309
0.000511309
0.000511309
0.000511309
0.000511309
0.000511309
0.000511309
0.000511309
0.000511309
0.000511309
0.000511309
0.000511309
0.000511309
0.000511309
0.000511309
0.000511309
0.000511309
0.000511309
0.000511309
0.000511309
0.000511309
0.000511309
0.000511309
0.000511309
0.000511309
0.000511309
0.000511309
0.000511309
0.000511309
0.000511309
0.000511309
0.000511309
0.000511309
0.000511309
0.000511309
0.000511309
0.000511309
0.000511309
0.000511309
0.000511309
0.000511309
0.000511309
0.000511309
0.000511309
0.000511309
0.000511309
0.000511309
0.000511309
0.000511309
0.000511309
0.000511309
0.000511309
0.000511309
0.000511309
0.000511309
0.000511309
0.000511309
0.000511309
0.000511309
0.000511309
0.000511309
0.000511309
0.000511309
0.000511309
0.000511309
0.000511309
0.000511309
0.000511309
0.000511309
0.000511309
0.000511309
0.000511309
0.000511309
0.000511309
0.000511309
0.000511309
0.000511309
0.000511309
0.000511309
0.000511309
0.000511309
0.000511309
0.000511309
0.000511309
0.000511309
0.000511309
0.000511309
0.000511309
0.000511309
0.000511309
0.000511309
0.000511309
0.000511309
0.000511309
0.000511309
0.000511309
0.000511309
0.000511309
0.000511309
0.000511309
0.000511309
0.000511309
0.000511309
0.000511309
0.000511309
0.000511309
0.000511309
0.000511309
0.000511309
0.000511309
0.000511309
0.000511309
0.000511309
0.000511309
0.000511309
0.000511309
0.000511309
0.000511309
0.000511309
0.000511309
0.000511309
0.000511309
0.000511309
0.000511309
0.000511309
0.000511309
0.000511309
0.000511309
0.000511309
0.000511309
0.000511309
0.000511309
0.000511309
0.000511309
0.000511309
0.000511309
0.000511309
0.000511309
0.000511309
0.000511309
0.000511309
0.000511309
0.000511309
0.000511309
0.000511309
0.000511309
0.000511309
0.000511309
0.000511309
0.000511309
0.000511309
0.000511309
0.000511309
0.000511309
0.000511309
0.000511309
0.000511309
0.000511309
0.000511309
0.000511309
0.000511309
0.000511309
0.000511309
0.000511309
0.000511309
0.000511309
0.000511309
0.000511309
0.000511309
0.000511309
0.000511309
0.000511309
0.000511309
0.000511309
0.000511309
0.000511309
0.000511309
0.000511309
0.000511309
0.000511309
0.000511309
0.000511309
0.000511309
0.000511309
0.000511309
0.000511309
0.000511309
0.000511309
0.000511309
0.000511309
0.000511309
0.000511309
0.000511309
0.000511309
0.000511309
0.000511309
0.000511309
0.000511309
0.000511309
0.000511309
0.000511309
0.000511309
0.000511309
0.000511309
0.000511309
0.000511309
0.000511309
0.000511309
0.000511309
0.000511309
0.000511309
0.000511309
0.000511309
0.000511309
0.000511309
0.000511309
0.000511309
0.000511309
0.000511309
0.000511309
0.000511309
0.000511309
0.000511309
0.000511309
0.000511309
0.000511309
0.000511309
0.000511309
0.000511309
0.000511309
0.000511309
0.000511309
0.000511309
0.000511309
0.000511309
0.000511309
0.000511309
0.000511309
0.000511309
0.000511309
0.000511309
0.000511309
0.000511309
0.000511309
0.000511309
0.000511309
0.000511309
0.000511309
0.000511309
0.000511309
0.000511309
0.000511309
0.000511309
0.000511309
0.000511309
0.000511309
0.000511309
0.000511309
0.000511309
0.000511309
0.000511309
0.000511309
0.000511309
0.000511309
0.000511309
0.000511309
0.000511309
0.000511309
0.000511309
0.000511309
0.000511309
0.000511309
0.000511309
0.000511309
0.000511309
0.000511309
0.000511309
0.000511309
0.000511309
0.000511309
0.000511309
0.000511309
0.000511309
0.000511309
0.000511309
0.000511309
0.000511309
0.000511309
0.000511309
0.000511309
0.000511309
0.000511309
0.000511309
0.000511309
0.000511309
0.000511309
0.000511309
0.000511309
0.000511309
0.000511309
0.000511309
0.000511309
0.000511309
0.000511309
0.000511309
0.000511309
0.000511309
0.000511309
0.000511309
0.000511309
0.000511309
0.000511309
0.000511309
0.000511309
0.000511309
0.000511309
0.000511309
0.000511309
0.000511309
0.000511309
0.000511309
0.000511309
0.000511309
0.000511309
0.000511309
0.000511309
0.000511309
0.000511309
0.000511309
0.000511309
0.000511309
0.000511309
0.000511309
0.000511309
0.000511309
0.000511309
0.000511309
0.000511309
0.000511309
0.000511309
0.000511309
0.000511309
0.000511309
0.000511309
0.000511309
0.000511309
0.000511309
0.000511309
0.000511309
0.000511309
0.000511309
0.000511309
0.000511309
0.000511309
0.000511309
0.000511309
0.000511309
0.000511309
0.000511309
0.000511309
0.000511309
0.000511309
0.000511309
0.000511309
0.000511309
0.000511309
0.000511309
0.000511309
0.000511309
0.000511309
0.000511309
0.000511309
0.000511309
0.000511309
0.000511309
0.000511309
0.000511309
0.000511309
0.000511309
0.000511309
0.000511309
0.000511309
0.000511309
0.000511309
0.000511309
0.000511309
0.000511309
0.000511309
0.000511309
0.000511309
0.000511309
0.000511309
0.000511309
0.000511309
0.000511309
0.000511309
0.000511309
0.000511309
0.000511309
0.000511309
0.000511309
0.000511309
0.000511309
0.000511309
0.000511309
0.000511309
0.000511309
0.000511309
0.000511309
0.000511309
0.000511309
0.000511309
0.000511309
0.000511309
0.000511309
0.000511309
0.000511309
0.000511309
0.000511309
0.000511309
0.000511309
0.000511309
0.000511309
0.000511309
0.000511309
0.000511309
0.000511309
0.000511309
0.000511309
0.000511309
0.000511309
0.000511309
0.000511309
0.000511309
0.000511309
0.000511309
0.000511309
0.000511309
0.000511309
0.000511309
0.000511309
0.000511309
0.000511309
0.000511309
0.000511309
0.000511309
0.000511309
0.000511309
0.000511309
0.000511309
0.000511309
0.000511309
0.000511309
0.000511309
0.000511309
0.000511309
0.000511309
0.000511309
0.000511309
0.000511309
0.000511309
0.000511309
0.000511309
0.000511309
0.000511309
0.000511309
0.000511309
0.000511309
0.000511309
0.000511309
0.000511309
0.000511309
0.000511309
0.000511309
0.000511309
0.000511309
0.000511309
0.000511309
0.000511309
0.000511309
0.000511309
0.000511309
0.000511309
0.000511309
0.000511309
0.000511309
0.000511309
0.000511309
0.000511309
0.000511309
0.000511309
0.000511309
0.000511309
0.000511309
0.000511309
0.000511309
0.000511309
0.000511309
0.000511309
0.000511309
0.000511309
0.000511309
0.000511309
0.000511309
0.000511309
0.000511309
0.000511309
0.000511309
0.000511309
0.000511309
0.000511309
0.000511309
0.000511309
0.000511309
0.000511309
0.000511309
0.000511309
0.000511309
0.000511309
0.000511309
0.000511309
0.000511309
0.000511309
0.000511309
0.000511309
0.000511309
0.000511309
0.000511309
0.000511309
0.000511309
0.000511309
0.000511309
0.000511309
0.000511309
0.000511309
0.000511309
0.000511309
0.000511309
0.000511309
0.000511309
0.000511309
0.000511309
0.000511309
0.000511309
0.000511309
0.000511309
0.000511309
0.000511309
0.000511309
0.000511309
0.000511309
0.000511309
0.000511309
0.000511309
0.000511309
0.000511309
0.000511309
0.000511309
0.000511309
0.000511309
0.000511309
0.000511309
0.000511309
0.000511309
0.000511309
0.000511309
0.000511309
0.000511309
0.000511309
0.000511309
0.000511309
0.000511309
0.000511309
0.000511309
0.000511309
0.000511309
0.000511309
0.000511309
0.000511309
0.000511309
0.000511309
0.000511309
0.000511309
0.000511309
0.000511309
0.000511309
0.000511309
0.000511309
0.000511309
0.000511309
0.000511309
0.000511309
0.000511309
0.000511309
0.000511309
0.000511309
0.000511309
0.000511309
0.000511309
0.000511309
0.000511309
0.000511309
0.000511309
0.000511309
0.000511309
0.000511309
0.000511309
0.000511309
0.000511309
0.000511309
0.000511309
0.000511309
0.000511309
0.000511309
0.000511309
0.000511309
0.000511309
0.000511309
0.000511309
0.000511309
0.000511309
0.000511309
0.000511309
0.000511309
0.000511309
0.000511309
0.000511309
0.000511309
0.000511309
0.000511309
0.000511309
0.000511309
0.000511309
0.000511309
0.000511309
0.000511309
0.000511309
0.000511309
0.000511309
0.000511309
0.000511309
0.000511309
0.000511309
0.000511309
0.000511309
0.000511309
0.000511309
0.000511309
0.000511309
0.000511309
0.000511309
0.000511309
0.000511309
0.000511309
0.000511309
0.000511309
0.000511309
0.000511309
0.000511309
0.000511309
0.000511309
0.000511309
0.000511309
0.000511309
0.000511309
0.000511309
0.000511309
0.000511309
0.000511309
0.000511309
0.000511309
0.000511309
0.000511309
0.000511309
0.000511309
0.000511309
0.000511309
0.000511309
0.000511309
0.000511309
0.000511309
0.000511309
0.000511309
0.000511309
0.000511309
0.000511309
0.000511309
0.000511309
0.000511309
0.000511309
0.000511309
0.000511309
0.000511309
0.000511309
0.000511309
0.000511309
0.000511309
0.000511309
0.000511309
0.000511309
0.000511309
0.000511309
0.000511309
0.000511309
0.00051131
0.00051131
0.000511309
0.000511309
0.000511309
0.000511309
0.000511309
0.000511309
0.000511309
0.000511309
0.000511309
0.000511309
0.000511309
0.000511309
0.000511309
0.000511309
0.000511309
0.000511309
0.000511309
0.000511309
0.000511309
0.000511309
0.000511309
0.000511309
0.000511309
0.000511309
0.000511309
0.000511309
0.000511309
0.000511309
0.000511309
0.000511309
0.000511309
0.000511309
0.000511309
0.000511309
0.000511309
0.000511309
0.000511309
0.000511309
0.000511309
0.000511309
0.000511309
0.000511309
0.000511309
0.000511309
0.000511309
0.00051131
0.00051131
0.00051131
0.00051131
0.000511311
0.000511309
0.000511309
0.000511309
0.000511309
0.000511309
0.000511309
0.000511309
0.000511309
0.000511309
0.000511309
0.000511309
0.000511309
0.000511309
0.000511309
0.000511309
0.000511309
0.000511309
0.000511309
0.000511309
0.000511309
0.000511309
0.000511309
0.000511309
0.000511309
0.000511309
0.000511309
0.000511309
0.000511309
0.000511309
0.000511309
0.000511309
0.000511309
0.000511309
0.000511309
0.000511309
0.000511309
0.000511309
0.000511309
0.000511309
0.000511309
0.000511309
0.00051131
0.00051131
0.00051131
0.00051131
0.00051131
0.000511311
0.000511311
0.000511313
0.000511314
0.000511309
0.000511309
0.000511309
0.000511309
0.000511309
0.000511309
0.000511309
0.000511309
0.000511309
0.000511309
0.000511309
0.000511309
0.000511309
0.000511309
0.000511309
0.000511309
0.000511309
0.000511309
0.000511309
0.000511309
0.000511309
0.000511309
0.000511309
0.000511309
0.000511309
0.000511309
0.000511309
0.000511309
0.000511309
0.000511309
0.000511309
0.000511309
0.000511309
0.000511309
0.000511309
0.000511309
0.000511309
0.000511309
0.00051131
0.00051131
0.00051131
0.00051131
0.00051131
0.000511311
0.000511311
0.000511313
0.000511314
0.000511317
0.000511321
0.000511328
0.000511309
0.000511309
0.000511309
0.000511309
0.000511309
0.000511309
0.000511309
0.000511309
0.000511309
0.000511309
0.000511309
0.000511309
0.000511309
0.000511309
0.000511309
0.000511309
0.000511309
0.000511309
0.000511309
0.000511309
0.000511309
0.000511309
0.000511309
0.000511309
0.000511309
0.000511309
0.000511309
0.000511309
0.000511309
0.000511309
0.000511309
0.000511309
0.000511309
0.000511309
0.000511309
0.00051131
0.00051131
0.00051131
0.00051131
0.00051131
0.000511311
0.000511312
0.000511313
0.000511314
0.000511317
0.000511321
0.000511327
0.000511336
0.00051135
0.000511374
0.000511309
0.000511309
0.000511309
0.000511309
0.000511309
0.000511309
0.000511309
0.000511309
0.000511309
0.000511309
0.000511309
0.000511309
0.000511309
0.000511309
0.000511309
0.000511309
0.000511309
0.000511309
0.000511309
0.000511309
0.000511309
0.000511309
0.000511309
0.000511309
0.000511309
0.000511309
0.000511309
0.000511309
0.000511309
0.000511309
0.000511309
0.000511309
0.00051131
0.00051131
0.00051131
0.00051131
0.00051131
0.000511311
0.000511312
0.000511313
0.000511315
0.000511317
0.000511321
0.000511327
0.000511336
0.00051135
0.000511371
0.000511403
0.000511451
0.000511532
0.000511309
0.000511309
0.000511309
0.000511309
0.000511309
0.000511309
0.000511309
0.000511309
0.000511309
0.000511309
0.000511309
0.000511309
0.000511309
0.000511309
0.000511309
0.000511309
0.000511309
0.000511309
0.000511309
0.000511309
0.000511309
0.000511309
0.000511309
0.000511309
0.000511309
0.000511309
0.000511309
0.000511309
0.00051131
0.00051131
0.00051131
0.00051131
0.00051131
0.00051131
0.000511311
0.000511312
0.000511313
0.000511315
0.000511317
0.000511321
0.000511327
0.000511336
0.00051135
0.000511371
0.000511401
0.000511448
0.000511519
0.000511626
0.000511789
0.000512056
0.000511309
0.000511309
0.000511309
0.000511309
0.000511309
0.000511309
0.000511309
0.000511309
0.000511309
0.000511309
0.000511309
0.000511309
0.000511309
0.000511309
0.000511309
0.000511309
0.000511309
0.000511309
0.000511309
0.000511309
0.000511309
0.000511309
0.000511309
0.000511309
0.000511309
0.00051131
0.00051131
0.00051131
0.00051131
0.00051131
0.000511311
0.000511311
0.000511312
0.000511313
0.000511315
0.000511318
0.000511322
0.000511328
0.000511337
0.000511351
0.000511372
0.000511402
0.000511448
0.000511516
0.000511619
0.000511774
0.000512007
0.000512358
0.000512886
0.000513738
0.000511309
0.000511309
0.000511309
0.000511309
0.000511309
0.000511309
0.000511309
0.000511309
0.000511309
0.000511309
0.000511309
0.000511309
0.000511309
0.000511309
0.000511309
0.000511309
0.000511309
0.000511309
0.000511309
0.000511309
0.000511309
0.00051131
0.00051131
0.00051131
0.00051131
0.00051131
0.00051131
0.000511311
0.000511311
0.000511312
0.000511314
0.000511316
0.000511319
0.000511323
0.00051133
0.000511339
0.000511353
0.000511374
0.000511405
0.00051145
0.000511518
0.000511619
0.00051177
0.000511994
0.000512329
0.000512827
0.000513569
0.000514673
0.000516302
0.000518861
0.000511309
0.000511309
0.000511309
0.000511309
0.000511309
0.000511309
0.000511309
0.000511309
0.000511309
0.000511309
0.000511309
0.000511309
0.000511309
0.000511309
0.000511309
0.000511309
0.000511309
0.000511309
0.00051131
0.00051131
0.00051131
0.00051131
0.00051131
0.000511311
0.000511311
0.000511312
0.000511313
0.000511314
0.000511317
0.00051132
0.000511324
0.000511331
0.000511341
0.000511356
0.000511378
0.000511409
0.000511456
0.000511524
0.000511625
0.000511774
0.000511994
0.00051232
0.0005128
0.000513509
0.000514553
0.000516083
0.000518315
0.000521545
0.000526142
0.000533018
0.000511309
0.000511309
0.000511309
0.000511309
0.000511309
0.000511309
0.000511309
0.000511309
0.000511309
0.000511309
0.000511309
0.000511309
0.000511309
0.000511309
0.00051131
0.00051131
0.00051131
0.00051131
0.00051131
0.00051131
0.000511311
0.000511311
0.000511312
0.000511313
0.000511315
0.000511318
0.000511321
0.000511326
0.000511334
0.000511344
0.00051136
0.000511383
0.000511416
0.000511464
0.000511534
0.000511637
0.000511787
0.000512008
0.00051233
0.000512802
0.000513492
0.000514499
0.000515962
0.000518078
0.000521111
0.000525411
0.000531414
0.000539685
0.000550782
0.000566398
0.000511309
0.000511309
0.000511309
0.000511309
0.000511309
0.000511309
0.000511309
0.000511309
0.000511309
0.000511309
0.00051131
0.00051131
0.00051131
0.00051131
0.00051131
0.00051131
0.000511311
0.000511311
0.000511312
0.000511313
0.000511314
0.000511316
0.000511319
0.000511323
0.000511329
0.000511337
0.000511348
0.000511365
0.00051139
0.000511425
0.000511476
0.000511549
0.000511656
0.00051181
0.000512034
0.000512359
0.000512831
0.000513514
0.000514503
0.000515927
0.000517967
0.00052087
0.000524953
0.000530615
0.000538344
0.000548722
0.000562406
0.00058014
0.000602562
0.000632791
0.000511309
0.000511309
0.000511309
0.000511309
0.000511309
0.000511309
0.000511309
0.00051131
0.00051131
0.00051131
0.00051131
0.00051131
0.00051131
0.000511311
0.000511311
0.000511312
0.000511313
0.000511315
0.000511317
0.00051132
0.000511325
0.000511332
0.000511341
0.000511354
0.000511372
0.000511399
0.000511437
0.000511492
0.00051157
0.000511682
0.000511844
0.000512076
0.00051241
0.000512889
0.000513578
0.000514566
0.000515977
0.00051798
0.000520803
0.000524743
0.000530166
0.000537512
0.000547306
0.000560149
0.000576677
0.00059762
0.000623916
0.00065704
0.000697349
0.000750824
0.000511309
0.000511309
0.000511309
0.00051131
0.00051131
0.00051131
0.00051131
0.00051131
0.00051131
0.000511311
0.000511311
0.000511312
0.000511313
0.000511314
0.000511316
0.000511319
0.000511323
0.000511328
0.000511335
0.000511346
0.000511361
0.000511382
0.000511411
0.000511453
0.000511513
0.000511598
0.000511718
0.00051189
0.000512134
0.000512483
0.000512979
0.000513686
0.00051469
0.000516109
0.000518107
0.000520897
0.000524755
0.000530022
0.0005371
0.000546465
0.000558665
0.000574295
0.000593982
0.000618543
0.000649122
0.000686929
0.00073302
0.000790204
0.000862147
0.000964489
0.00051131
0.00051131
0.00051131
0.00051131
0.00051131
0.000511311
0.000511311
0.000511312
0.000511313
0.000511314
0.000511316
0.000511318
0.000511321
0.000511326
0.000511332
0.000511341
0.000511353
0.00051137
0.000511394
0.000511427
0.000511474
0.000511541
0.000511634
0.000511765
0.000511951
0.000512213
0.000512584
0.000513106
0.000513843
0.00051488
0.000516333
0.000518358
0.000521159
0.000524996
0.000530188
0.000537106
0.000546182
0.000557915
0.000572855
0.000591568
0.000614747
0.000643363
0.000678657
0.000721617
0.000773887
0.000839352
0.000924146
0.00103494
0.00117183
0.00134304
0.00051131
0.00051131
0.000511311
0.000511311
0.000511312
0.000511312
0.000511314
0.000511315
0.000511317
0.00051132
0.000511324
0.00051133
0.000511337
0.000511348
0.000511362
0.000511382
0.00051141
0.000511448
0.000511502
0.000511577
0.000511681
0.000511827
0.000512031
0.000512317
0.000512717
0.000513277
0.000514058
0.000515147
0.000516657
0.000518741
0.000521595
0.000525465
0.000530651
0.000537497
0.000546398
0.000557807
0.000572229
0.000590194
0.000612294
0.00063936
0.000672566
0.000712936
0.000761658
0.000821452
0.000897623
0.000996376
0.00112189
0.00127308
0.00144304
0.00161533
0.00178412
0.000511312
0.000511312
0.000511314
0.000511315
0.000511317
0.00051132
0.000511323
0.000511328
0.000511335
0.000511344
0.000511357
0.000511374
0.000511398
0.00051143
0.000511475
0.000511538
0.000511624
0.000511743
0.000511907
0.000512136
0.000512453
0.000512892
0.0005135
0.000514342
0.000515502
0.000517098
0.000519275
0.000522225
0.000526183
0.000531432
0.000538295
0.000547131
0.000558355
0.00057243
0.000589853
0.000611142
0.000637016
0.000668511
0.000706743
0.000752654
0.000808169
0.000877543
0.000966675
0.00108051
0.0012202
0.00138095
0.00155191
0.00171843
0.00186729
0.00198759
0.00207977
0.000511315
0.000511317
0.000511319
0.000511323
0.000511327
0.000511334
0.000511342
0.000511353
0.000511369
0.00051139
0.000511419
0.000511458
0.000511512
0.000511585
0.000511685
0.000511823
0.000512012
0.000512272
0.000512628
0.000513118
0.00051379
0.00051471
0.000515967
0.000517676
0.000519984
0.000523075
0.000527176
0.000532555
0.000539513
0.000548381
0.000559537
0.000573405
0.000590449
0.000611137
0.000636096
0.000666232
0.000702704
0.000746361
0.00079862
0.000862758
0.000944124
0.00104798
0.00117682
0.00132825
0.00149379
0.00166081
0.00181538
0.00194679
0.0020491
0.00212201
0.00216857
0.00219425
0.000511327
0.000511333
0.000511341
0.000511352
0.000511366
0.000511386
0.000511412
0.000511447
0.000511495
0.000511559
0.000511647
0.000511766
0.000511928
0.000512148
0.000512448
0.000512856
0.000513411
0.000514164
0.000515185
0.000516566
0.000518422
0.000520899
0.00052418
0.00052848
0.000534056
0.000541188
0.000550182
0.00056138
0.000575175
0.000591996
0.000612283
0.000636581
0.000665697
0.000700746
0.000742598
0.000792337
0.000852461
0.000927658
0.00102317
0.00114233
0.00128445
0.00144342
0.00160832
0.00176613
0.00190494
0.00201774
0.0021017
0.0021588
0.00219262
0.00220985
0.00221449
0.00221392
0.000511366
0.000511384
0.000511409
0.000511442
0.000511486
0.000511545
0.000511624
0.00051173
0.000511874
0.000512067
0.000512327
0.000512679
0.000513152
0.00051379
0.000514647
0.000515796
0.000517333
0.000519375
0.000522068
0.00052559
0.00053015
0.00053599
0.000543373
0.000552579
0.00056392
0.00057776
0.000594499
0.00061455
0.000638394
0.000666763
0.000700683
0.000741094
0.000788869
0.000845948
0.000916327
0.00100503
0.00111585
0.0012493
0.00140114
0.00156226
0.00172077
0.00186477
0.00198573
0.00207936
0.00214608
0.00218878
0.00221259
0.00222232
0.00222296
0.0022232
0.00222173
0.00221527
0.000511483
0.000511539
0.000511613
0.000511711
0.000511843
0.000512018
0.000512252
0.000512565
0.000512982
0.000513539
0.000514282
0.00051527
0.000516581
0.000518312
0.000520584
0.000523544
0.000527364
0.000532245
0.000538418
0.000546126
0.000555627
0.000567206
0.000581201
0.000597987
0.000617955
0.000641535
0.000669398
0.000702493
0.000741801
0.000788067
0.000842849
0.000909507
0.000992752
0.00109657
0.00122225
0.001367
0.00152338
0.00168073
0.00182757
0.00195445
0.00205631
0.0021318
0.00218284
0.00221295
0.00222852
0.00223211
0.00223194
0.0022318
0.0022283
0.0022198
0.00220703
0.00219023
0.000511831
0.000511995
0.000512213
0.0005125
0.000512881
0.000513384
0.000514049
0.000514925
0.000516078
0.00051759
0.000519562
0.000522118
0.000525401
0.000529581
0.000534851
0.000541428
0.000549536
0.000559414
0.00057132
0.000585574
0.000602525
0.000622548
0.000646032
0.000673599
0.000706138
0.000744644
0.000789781
0.000842843
0.000906683
0.000985656
0.00108374
0.00120272
0.00134081
0.00149203
0.00164691
0.00179465
0.00192562
0.00203383
0.0021166
0.00217508
0.0022122
0.00223289
0.00224051
0.00224095
0.00224145
0.00223958
0.00223332
0.00222291
0.00220868
0.00219174
0.0021729
0.00215228
0.000512836
0.000513305
0.00051392
0.000514722
0.000515768
0.000517128
0.000518889
0.000521157
0.000524054
0.000527725
0.000532331
0.000538058
0.000545109
0.000553691
0.00056402
0.000576337
0.000590943
0.000608172
0.000628377
0.000651919
0.000679386
0.000711617
0.000749602
0.00079395
0.000845772
0.000907537
0.000983254
0.00107678
0.00119015
0.00132227
0.00146828
0.00161986
0.00176704
0.00190035
0.00201302
0.0021018
0.00216685
0.00221026
0.00223562
0.00224796
0.00225031
0.00225025
0.00224986
0.00224597
0.00223763
0.00222546
0.00221045
0.00219274
0.00217373
0.00215417
0.00213459
0.00211388
0.000515617
0.000516878
0.000518496
0.000520565
0.000523192
0.000526499
0.000530625
0.000535729
0.000541986
0.000549584
0.000558712
0.000569567
0.000582376
0.000597429
0.000615044
0.000635554
0.0006593
0.000686847
0.000719001
0.000756725
0.000800588
0.000851575
0.000911884
0.000985215
0.00107524
0.00118404
0.00131099
0.00145205
0.00159992
0.00174545
0.00187953
0.00199504
0.00208844
0.00215876
0.00220749
0.00223774
0.00225438
0.00225931
0.00225954
0.00225996
0.0022575
0.00225065
0.00224064
0.00222731
0.00221147
0.00219356
0.00217496
0.00215581
0.00213642
0.00211687
0.00209766
0.00207752
0.000525787
0.000529577
0.000534233
0.000539907
0.000546765
0.000554979
0.00056472
0.000576169
0.000589546
0.000605135
0.000623238
0.000644168
0.000668253
0.000696051
0.000728348
0.00076606
0.000809724
0.000860242
0.00091964
0.000991352
0.00107882
0.00118405
0.00130665
0.00144318
0.00158719
0.00173031
0.00186386
0.00198091
0.00207737
0.00215167
0.00220483
0.00223972
0.00225957
0.00226775
0.00226895
0.00226943
0.00226822
0.00226339
0.00225491
0.00224322
0.0022291
0.00221239
0.00219453
0.0021762
0.00215743
0.00213853
0.00211956
0.00210062
0.00208158
0.00206286
0.00204326
0.000545013
0.000552544
0.000561443
0.000571862
0.000583975
0.000598
0.000614216
0.000632911
0.000654377
0.000678936
0.000707157
0.000739812
0.000777767
0.0008215
0.000871882
0.000930849
0.00100162
0.00108736
0.00118993
0.001309
0.00144151
0.00158169
0.00172184
0.00185392
0.00197119
0.00206929
0.00214637
0.0022032
0.00224156
0.00226451
0.00227584
0.00227852
0.00227868
0.00227852
0.00227519
0.00226788
0.002258
0.00224529
0.00223013
0.00221326
0.00219581
0.00217773
0.00215933
0.00214086
0.00212235
0.00210385
0.00208533
0.00206685
0.00204827
0.00202997
0.00201083