/*--------------------------------*- C++ -*----------------------------------*\
| =========                 |                                                 |
| \\      /  F ield         | OpenFOAM: The Open Source CFD Toolbox           |
|  \\    /   O peration     | Version:  v1706                                 |
|   \\  /    A nd           | Web:      www.OpenFOAM.com                      |
|    \\/     M anipulation  |                                                 |
\*---------------------------------------------------------------------------*/
FoamFile
{
    version     2.0;
    format      ascii;
    class       volScalarField;
    location    "3.1e-05";
    object      Tv;
}
// * * * * * * * * * * * * * * * * * * * * * * * * * * * * * * * * * * * * * //

dimensions      [0 0 0 1 0 0 0];


internalField   nonuniform List<scalar> 
30038
(
144.4
144.4
144.4
144.4
144.4
144.4
144.4
144.4
144.4
144.4
144.4
144.4
144.4
144.4
144.4
144.4
144.4
144.4
144.4
144.4
144.4
144.4
144.4
144.4
144.4
144.4
144.4
144.4
144.4
144.4
144.4
144.4
144.4
144.4
144.4
144.4
144.4
144.4
144.4
144.4
144.4
144.4
144.4
144.4
144.4
144.4
144.4
144.4
144.4
144.4
144.4
144.4
144.4
144.4
144.4
144.4
144.4
144.4
144.4
144.4
144.4
144.4
144.4
144.4
144.4
144.4
144.4
144.4
144.4
144.4
144.4
144.4
144.4
144.4
144.4
144.4
144.4
144.4
144.4
144.4
144.4
144.4
144.4
144.4
144.4
144.4
144.4
144.4
144.4
144.4
144.4
144.4
144.4
144.4
144.4
144.4
144.4
144.4
144.4
144.4
144.4
144.4
144.4
144.4
144.4
144.4
144.4
144.4
144.4
144.4
144.4
144.4
144.4
144.4
144.4
144.4
144.4
144.4
144.4
144.4
144.4
144.4
144.4
144.4
144.4
144.4
144.4
144.4
144.4
144.4
144.4
144.4
144.4
144.4
144.4
144.4
144.4
144.4
144.4
144.4
144.4
144.4
144.4
144.4
144.4
144.4
144.4
144.4
144.4
144.4
144.4
144.4
144.4
144.4
144.4
144.4
144.4
144.4
144.4
144.4
144.4
144.4
144.4
144.4
144.4
144.4
144.4
144.4
144.4
144.4
144.4
144.4
144.4
144.4
144.4
144.4
144.4
144.4
144.4
144.4
144.4
144.4
144.4
144.4
144.4
144.4
144.4
144.4
144.4
144.4
144.4
144.4
144.4
144.4
144.4
144.4
144.4
144.4
144.4
144.4
144.4
144.4
144.4
144.4
144.4
144.4
144.4
144.4
144.4
144.4
144.4
144.4
144.4
144.4
144.4
144.4
144.4
144.4
144.4
144.4
144.4
144.4
144.4
144.4
144.4
144.4
144.4
144.4
144.4
144.4
144.4
144.4
144.4
144.4
144.4
144.4
144.4
144.4
144.4
144.4
144.4
144.4
144.4
144.4
144.4
144.4
144.4
144.4
144.4
144.4
144.4
144.4
144.4
144.4
144.4
144.4
144.4
144.4
144.4
144.4
144.4
144.4
144.4
144.4
144.4
144.4
144.4
144.4
144.4
144.4
144.4
144.4
144.4
144.4
144.4
144.4
144.4
144.4
144.4
144.4
144.4
144.4
144.4
144.4
144.4
144.4
144.4
144.4
144.4
144.4
144.4
144.4
144.4
144.4
144.4
144.4
144.4
144.4
144.4
144.4
144.4
144.4
144.4
144.4
144.4
144.4
144.4
144.4
144.4
144.4
144.4
144.4
144.4
144.4
144.4
144.4
144.4
144.4
144.4
144.4
144.4
144.4
144.4
144.4
144.4
144.4
144.4
144.4
144.4
144.4
144.4
144.4
144.4
144.4
144.4
144.4
144.4
144.4
144.4
144.4
144.4
144.4
144.4
144.4
144.4
144.4
144.4
144.4
144.4
144.4
144.4
144.4
144.4
144.4
144.4
144.4
144.4
144.4
144.4
144.4
144.4
144.4
144.4
144.4
144.4
144.4
144.4
144.4
144.4
144.4
144.4
144.4
144.4
144.4
144.4
144.4
144.4
144.4
144.4
144.4
144.4
144.4
144.4
144.4
144.4
144.4
144.4
144.4
144.4
144.4
144.4
144.4
144.4
144.4
144.4
144.4
144.4
144.4
144.4
144.4
144.4
144.4
144.4
144.4
144.4
144.4
144.4
144.4
144.4
144.4
144.4
144.4
144.4
144.4
144.4
144.4
144.4
144.4
144.4
144.4
144.4
144.4
144.4
144.4
144.4
144.4
144.4
144.4
144.4
144.4
144.4
144.4
144.4
144.4
144.4
144.4
144.4
144.4
144.4
144.4
144.4
144.4
144.4
144.4
144.4
144.4
144.4
144.4
144.4
144.4
144.4
144.4
144.4
144.4
144.4
144.4
144.4
144.4
144.4
144.4
144.4
144.4
144.4
144.4
144.4
144.4
144.4
144.4
144.4
144.4
144.4
144.4
144.4
144.4
144.4
144.4
144.4
144.4
144.4
144.4
144.4
144.4
144.4
144.4
144.4
144.4
144.4
144.4
144.4
144.4
144.4
144.4
144.4
144.4
144.4
144.4
144.4
144.4
144.4
144.4
144.4
144.4
144.4
144.4
144.4
144.4
144.4
144.4
144.4
144.4
144.4
144.4
144.4
144.4
144.4
144.4
144.4
144.4
144.4
144.4
144.4
144.4
144.4
144.4
144.4
144.4
144.4
144.4
144.4
144.4
144.4
144.4
144.4
144.4
144.4
144.4
144.4
144.4
144.4
144.4
144.4
144.4
144.4
144.4
144.4
144.4
144.4
144.4
144.4
144.4
144.4
144.4
144.4
144.4
144.4
144.4
144.4
144.4
144.4
144.4
144.4
144.4
144.4
144.4
144.4
144.4
144.4
144.4
144.4
144.4
144.4
144.4
144.4
144.4
144.4
144.4
144.4
144.4
144.4
144.4
144.4
144.4
144.4
144.4
144.4
144.4
144.4
144.4
144.4
144.4
144.4
144.4
144.4
144.4
144.4
144.4
144.4
144.4
144.4
144.4
144.4
144.4
144.4
144.4
144.4
144.4
144.4
144.4
144.4
144.4
144.4
144.4
144.4
144.4
144.4
144.4
144.4
144.4
144.4
144.4
144.4
144.4
144.4
144.4
144.4
144.4
144.4
144.4
144.4
144.4
144.4
144.4
144.4
144.4
144.4
144.4
144.4
144.4
144.4
144.4
144.4
144.4
144.4
144.4
144.4
144.4
144.4
144.4
144.4
144.4
144.4
144.4
144.4
144.4
144.4
144.4
144.4
144.4
144.4
144.4
144.4
144.4
144.4
144.4
144.4
144.4
144.4
144.4
144.4
144.4
144.4
144.4
144.4
144.4
144.4
144.4
144.4
144.4
144.4
144.4
144.4
144.4
144.4
144.4
144.4
144.4
144.4
144.4
144.4
144.4
144.4
144.4
144.4
144.4
144.4
144.4
144.4
144.4
144.4
144.4
144.4
144.4
144.4
144.4
144.4
144.4
144.4
144.4
144.4
144.4
144.4
144.4
144.4
144.4
144.4
144.4
144.4
144.4
144.4
144.4
144.4
144.4
144.4
144.4
144.4
144.4
144.4
144.4
144.4
144.4
144.4
144.4
144.4
144.4
144.4
144.4
144.4
144.4
144.4
144.4
144.4
144.4
144.4
144.4
144.4
144.4
144.4
144.4
144.4
144.4
144.4
144.4
144.4
144.4
144.4
144.4
144.4
144.4
144.4
144.4
144.4
144.4
144.4
144.4
144.4
144.4
144.4
144.4
144.4
144.4
144.4
144.4
144.4
144.4
144.4
144.4
144.4
144.4
144.4
144.4
144.4
144.4
144.4
144.4
144.4
144.4
144.4
144.4
144.4
144.4
144.4
144.4
144.4
144.4
144.4
144.4
144.4
144.4
144.4
144.4
144.4
144.4
144.4
144.4
144.4
144.4
144.4
144.4
144.4
144.4
144.4
144.4
144.4
144.4
144.4
144.4
144.4
144.4
144.4
144.4
144.4
144.4
144.4
144.4
144.4
144.4
144.4
144.4
144.4
144.4
144.4
144.4
144.4
144.4
144.4
144.4
144.4
144.4
144.4
144.4
144.4
144.4
144.4
144.4
144.4
144.4
144.4
144.4
144.4
144.4
144.4
144.4
144.4
144.4
144.4
144.4
144.4
144.4
144.4
144.4
144.4
144.4
144.4
144.4
144.4
144.4
144.4
144.4
144.4
144.4
144.4
144.4
144.4
144.4
144.4
144.4
144.4
144.4
144.4
144.4
144.4
144.4
144.4
144.4
144.4
144.4
144.4
144.4
144.4
144.4
144.4
144.4
144.4
144.4
144.4
144.4
144.4
144.4
144.4
144.4
144.4
144.4
144.4
144.4
144.4
144.4
144.4
144.4
144.4
144.4
144.4
144.4
144.4
144.4
144.4
144.4
144.4
144.4
144.4
144.4
144.4
144.4
144.4
144.4
144.4
144.4
144.4
144.4
144.4
144.4
144.4
144.4
144.4
144.4
144.4
144.4
144.4
144.4
144.4
144.4
144.4
144.4
144.4
144.4
144.4
144.4
144.4
144.4
144.4
144.4
144.4
144.4
144.4
144.4
144.4
144.4
144.4
144.4
144.4
144.4
144.4
144.4
144.4
144.4
144.4
144.4
144.4
144.4
144.4
144.4
144.4
144.4
144.4
144.4
144.4
144.4
144.4
144.4
144.4
144.4
144.4
144.4
144.4
144.4
144.4
144.4
144.4
144.4
144.4
144.4
144.4
144.4
144.4
144.4
144.4
144.4
144.4
144.4
144.4
144.4
144.4
144.4
144.4
144.4
144.4
144.4
144.4
144.4
144.4
144.4
144.4
144.4
144.4
144.4
144.4
144.4
144.4
144.4
144.4
144.4
144.4
144.4
144.4
144.4
144.4
144.4
144.4
144.4
144.4
144.4
144.4
144.4
144.4
144.4
144.4
144.4
144.4
144.4
144.4
144.4
144.4
144.4
144.4
144.4
144.4
144.4
144.4
144.4
144.4
144.4
144.4
144.4
144.4
144.4
144.4
144.4
144.4
144.4
144.4
144.4
144.4
144.4
144.4
144.4
144.4
144.4
144.4
144.4
144.4
144.4
144.4
144.4
144.4
144.4
144.4
144.4
144.4
144.4
144.4
144.4
144.4
144.4
144.4
144.4
144.4
144.4
144.4
144.4
144.4
144.4
144.4
144.4
144.4
144.4
144.4
144.4
144.4
144.4
144.4
144.4
144.4
144.4
144.4
144.4
144.4
144.4
144.4
144.4
144.4
144.4
144.4
144.4
144.4
144.4
144.4
144.4
144.4
144.4
144.4
144.4
144.4
144.4
144.4
144.4
144.4
144.4
144.4
144.4
144.4
144.4
144.4
144.4
144.4
144.4
144.4
144.4
144.4
144.4
144.4
144.4
144.4
144.4
144.4
144.4
144.4
144.4
144.4
144.4
144.4
144.4
144.4
144.4
144.4
144.4
144.4
144.4
144.4
144.4
144.4
144.4
144.4
144.4
144.4
144.4
144.4
144.4
144.4
144.4
144.4
144.4
144.4
144.4
144.4
144.4
144.4
144.4
144.4
144.4
144.4
144.4
144.4
144.4
144.4
144.4
144.4
144.4
144.4
144.4
144.4
144.4
144.4
144.4
144.4
144.4
144.4
144.4
144.4
144.4
144.4
144.4
144.4
144.4
144.4
144.4
144.4
144.4
144.4
144.4
144.4
144.4
144.4
144.4
144.4
144.4
144.4
144.4
144.4
144.4
144.4
144.4
144.4
144.4
144.4
144.4
144.4
144.4
144.4
144.4
144.4
144.4
144.4
144.4
144.4
144.4
144.4
144.4
144.4
144.4
144.4
144.4
144.4
144.4
144.4
144.4
144.4
144.4
144.4
144.4
144.4
144.4
144.4
144.4
144.4
144.4
144.4
144.4
144.4
144.4
144.4
144.4
144.4
144.4
144.4
144.4
144.4
144.4
144.4
144.4
144.4
144.4
144.4
144.4
144.4
144.4
144.4
144.4
144.4
144.4
144.4
144.4
144.4
144.4
144.4
144.4
144.4
144.4
144.4
144.4
144.4
144.4
144.4
144.4
144.4
144.4
144.4
144.4
144.4
144.4
144.4
144.4
144.4
144.4
144.4
144.4
144.4
144.4
144.4
144.4
144.4
144.4
144.4
144.4
144.4
144.4
144.4
144.4
144.4
144.4
144.4
144.4
144.4
144.4
144.4
144.4
144.4
144.4
144.4
144.4
144.4
144.4
144.4
144.4
144.4
144.4
144.4
144.4
144.4
144.4
144.4
144.4
144.4
144.4
144.4
144.4
144.4
144.4
144.4
144.4
144.4
144.4
144.4
144.4
144.4
144.4
144.4
144.4
144.4
144.4
144.4
144.4
144.4
144.4
144.4
144.4
144.4
144.4
144.4
144.4
144.4
144.4
144.4
144.4
144.4
144.4
144.4
144.4
144.4
144.4
144.4
144.4
144.4
144.4
144.4
144.4
144.4
144.4
144.4
144.4
144.4
144.4
144.4
144.4
144.4
144.4
144.4
144.4
144.4
144.4
144.4
144.4
144.4
144.4
144.4
144.4
144.4
144.4
144.4
144.4
144.4
144.4
144.4
144.4
144.4
144.4
144.4
144.4
144.4
144.4
144.4
144.4
144.4
144.4
144.4
144.4
144.4
144.4
144.4
144.4
144.4
144.4
144.4
144.4
144.4
144.4
144.4
144.4
144.4
144.4
144.4
144.401
144.401
144.402
144.4
144.4
144.4
144.4
144.4
144.4
144.4
144.4
144.4
144.4
144.4
144.4
144.4
144.4
144.4
144.4
144.4
144.4
144.4
144.4
144.4
144.4
144.4
144.4
144.4
144.4
144.4
144.4
144.4
144.4
144.4
144.4
144.4
144.4
144.4
144.4
144.4
144.4
144.4
144.4
144.4
144.4
144.4
144.4
144.401
144.401
144.402
144.403
144.405
144.409
144.4
144.4
144.4
144.4
144.4
144.4
144.4
144.4
144.4
144.4
144.4
144.4
144.4
144.4
144.4
144.4
144.4
144.4
144.4
144.4
144.4
144.4
144.4
144.4
144.4
144.4
144.4
144.4
144.4
144.4
144.4
144.4
144.4
144.4
144.4
144.4
144.4
144.4
144.4
144.4
144.4
144.401
144.401
144.402
144.403
144.405
144.409
144.415
144.426
144.446
144.4
144.4
144.4
144.4
144.4
144.4
144.4
144.4
144.4
144.4
144.4
144.4
144.4
144.4
144.4
144.4
144.4
144.4
144.4
144.4
144.4
144.4
144.4
144.4
144.4
144.4
144.4
144.4
144.4
144.4
144.4
144.4
144.4
144.4
144.4
144.4
144.4
144.4
144.401
144.401
144.402
144.403
144.406
144.41
144.416
144.428
144.446
144.478
144.531
144.624
144.4
144.4
144.4
144.4
144.4
144.4
144.4
144.4
144.4
144.4
144.4
144.4
144.4
144.4
144.4
144.4
144.4
144.4
144.4
144.4
144.4
144.4
144.4
144.4
144.4
144.4
144.4
144.4
144.4
144.4
144.4
144.4
144.4
144.4
144.401
144.401
144.401
144.402
144.404
144.407
144.411
144.418
144.43
144.45
144.483
144.537
144.625
144.765
144.983
145.322
144.4
144.4
144.4
144.4
144.4
144.4
144.4
144.4
144.4
144.4
144.4
144.4
144.4
144.4
144.4
144.4
144.4
144.4
144.4
144.4
144.4
144.4
144.4
144.4
144.4
144.4
144.4
144.4
144.4
144.4
144.4
144.401
144.401
144.402
144.403
144.405
144.408
144.412
144.42
144.433
144.455
144.49
144.547
144.639
144.783
145.003
145.329
145.792
146.421
147.242
144.4
144.4
144.4
144.4
144.4
144.4
144.4
144.4
144.4
144.4
144.4
144.4
144.4
144.4
144.4
144.4
144.4
144.4
144.4
144.4
144.4
144.4
144.4
144.4
144.4
144.4
144.4
144.401
144.401
144.401
144.402
144.403
144.406
144.409
144.415
144.424
144.438
144.462
144.501
144.562
144.66
144.812
145.041
145.377
145.849
146.479
147.279
148.242
149.352
150.592
144.4
144.4
144.4
144.4
144.4
144.4
144.4
144.4
144.4
144.4
144.4
144.4
144.4
144.4
144.4
144.4
144.4
144.4
144.4
144.4
144.4
144.4
144.4
144.4
144.401
144.401
144.402
144.403
144.404
144.407
144.411
144.418
144.428
144.445
144.472
144.515
144.584
144.69
144.853
145.097
145.45
145.94
146.587
147.4
148.371
149.477
150.687
151.97
153.304
154.68
144.4
144.4
144.4
144.4
144.4
144.4
144.4
144.4
144.4
144.4
144.4
144.4
144.4
144.4
144.4
144.4
144.4
144.4
144.4
144.4
144.401
144.401
144.401
144.402
144.404
144.405
144.409
144.414
144.422
144.434
144.454
144.486
144.535
144.612
144.731
144.911
145.175
145.551
146.066
146.739
147.575
148.563
149.682
150.898
152.181
153.501
154.838
156.176
157.514
158.862
144.4
144.4
144.4
144.4
144.4
144.4
144.4
144.4
144.4
144.4
144.4
144.4
144.4
144.4
144.4
144.4
144.401
144.401
144.401
144.402
144.403
144.405
144.407
144.411
144.417
144.427
144.443
144.467
144.504
144.562
144.651
144.787
144.987
145.278
145.686
146.235
146.942
147.807
148.821
149.956
151.183
152.47
153.79
155.122
156.452
157.769
159.068
160.349
161.618
162.901
144.4
144.4
144.4
144.4
144.4
144.4
144.4
144.4
144.4
144.4
144.4
144.4
144.4
144.401
144.401
144.401
144.402
144.403
144.404
144.406
144.41
144.415
144.423
144.435
144.455
144.484
144.53
144.599
144.704
144.861
145.09
145.416
145.863
146.455
147.203
148.107
149.149
150.305
151.544
152.836
154.155
155.483
156.805
158.113
159.401
160.667
161.912
163.137
164.344
165.54
166.755
144.4
144.4
144.4
144.4
144.4
144.4
144.4
144.4
144.4
144.401
144.401
144.401
144.402
144.403
144.404
144.406
144.409
144.413
144.42
144.431
144.447
144.471
144.509
144.565
144.65
144.776
144.961
145.226
145.596
146.093
146.737
147.535
148.481
149.557
150.736
151.988
153.285
154.603
155.924
157.237
158.533
159.808
161.06
162.289
163.498
164.687
165.858
167.012
168.147
169.269
170.409
144.4
144.4
144.4
144.4
144.4
144.4
144.401
144.401
144.401
144.402
144.403
144.404
144.406
144.408
144.413
144.419
144.428
144.442
144.463
144.495
144.543
144.615
144.72
144.875
145.096
145.407
145.83
146.388
147.093
147.947
148.942
150.054
151.257
152.521
153.821
155.135
156.448
157.749
159.031
160.291
161.526
162.739
163.93
165.101
166.253
167.387
168.504
169.603
170.682
171.743
172.789
173.851
144.4
144.4
144.401
144.401
144.401
144.402
144.403
144.404
144.406
144.408
144.412
144.418
144.427
144.44
144.459
144.488
144.53
144.593
144.685
144.819
145.01
145.279
145.647
146.136
146.763
147.537
148.454
149.499
150.648
151.873
153.148
154.449
155.756
157.058
158.344
159.61
160.852
162.069
163.262
164.434
165.585
166.717
167.831
168.928
170.007
171.067
172.109
173.132
174.136
175.124
176.1
177.094
144.401
144.402
144.403
144.404
144.406
144.409
144.413
144.419
144.427
144.44
144.458
144.485
144.524
144.582
144.665
144.786
144.957
145.197
145.525
145.964
146.531
147.238
148.088
149.069
150.164
151.348
152.593
153.874
155.172
156.47
157.756
159.025
160.271
161.492
162.689
163.861
165.011
166.14
167.251
168.344
169.419
170.477
171.518
172.539
173.542
174.527
175.495
176.447
177.385
178.31
179.227
180.164
144.407
144.41
144.414
144.42
144.429
144.441
144.459
144.486
144.524
144.579
144.659
144.771
144.931
145.152
145.455
145.859
146.382
147.038
147.833
148.761
149.806
150.948
152.161
153.42
154.704
155.994
157.278
158.546
159.793
161.016
162.214
163.387
164.536
165.662
166.768
167.856
168.926
169.979
171.015
172.033
173.034
174.016
174.98
175.927
176.858
177.775
178.679
179.571
180.453
181.327
182.197
183.087
144.432
144.445
144.464
144.491
144.53
144.585
144.664
144.774
144.928
145.141
145.429
145.811
146.306
146.927
147.682
148.567
149.572
150.678
151.86
153.095
154.361
155.64
156.917
158.181
159.427
160.649
161.846
163.018
164.165
165.288
166.389
167.47
168.532
169.578
170.607
171.62
172.616
173.594
174.554
175.496
176.421
177.331
178.226
179.108
179.978
180.838
181.689
182.533
183.37
184.202
185.033
185.884
144.542
144.6
144.681
144.793
144.949
145.16
145.444
145.818
146.299
146.901
147.63
148.487
149.461
150.536
151.692
152.904
154.152
155.417
156.683
157.941
159.181
160.4
161.594
162.762
163.904
165.023
166.117
167.191
168.245
169.281
170.301
171.305
172.293
173.265
174.219
175.156
176.076
176.979
177.866
178.738
179.597
180.445
181.282
182.11
182.931
183.745
184.553
185.357
186.158
186.955
187.754
188.573
144.995
145.213
145.503
145.88
146.361
146.957
147.676
148.518
149.473
150.528
151.662
152.854
154.084
155.334
156.588
157.835
159.066
160.277
161.465
162.626
163.762
164.873
165.96
167.025
168.069
169.094
170.103
171.096
172.073
173.035
173.981
174.911
175.824
176.719
177.599
178.462
179.311
180.147
180.971
181.785
182.59
183.387
184.177
184.962
185.743
186.519
187.293
188.064
188.834
189.604
190.375
191.167
147.103
147.826
148.666
149.615
150.658
151.777
152.953
154.166
155.399
156.638
157.871
159.091
160.291
161.468
162.619
163.745
164.846
165.923
166.976
168.009
169.022
170.017
170.997
171.961
172.911
173.846
174.765
175.669
176.556
177.427
178.282
179.121
179.946
180.758
181.558
182.348
183.128
183.902
184.668
185.429
186.185
186.938
187.687
188.435
189.181
189.926
190.67
191.415
192.16
192.908
193.677
150.933
152.044
153.207
154.405
155.622
156.844
158.061
159.264
160.449
161.611
162.749
163.862
164.949
166.012
167.052
168.071
169.07
170.05
171.014
171.963
172.897
173.818
174.724
175.616
176.493
177.354
178.199
179.028
179.842
180.642
181.429
182.205
182.97
183.726
184.474
185.217
185.953
186.685
187.413
188.138
188.861
189.583
190.304
191.024
191.744
192.465
193.187
193.91
194.634
195.363
196.112
156.011
157.214
158.411
159.595
160.761
161.904
163.024
164.119
165.189
166.235
167.258
168.26
169.242
170.205
171.152
172.083
173
173.903
174.794
175.671
176.535
177.383
178.217
179.035
179.838
180.626
181.4
182.161
182.911
183.651
184.382
185.106
185.823
186.534
187.241
187.944
188.645
189.343
190.04
190.737
191.433
192.129
192.825
193.523
194.222
194.922
195.624
196.328
197.035
197.746
198.477
162.353
163.451
164.524
165.573
166.598
167.601
168.582
169.544
170.488
171.414
172.326
173.223
174.107
174.979
175.839
176.686
177.519
178.339
179.144
179.934
180.71
181.471
182.218
182.953
183.677
184.391
185.097
185.794
186.486
187.172
187.854
188.532
189.208
189.881
190.553
191.225
191.896
192.567
193.24
193.913
194.588
195.264
195.942
196.622
197.305
197.99
198.677
199.367
200.063
200.777
167.106
168.084
169.042
169.981
170.902
171.806
172.695
173.57
174.433
175.284
176.123
176.951
177.766
178.569
179.359
180.135
180.896
181.643
182.377
183.097
183.805
184.502
185.19
185.869
186.541
187.206
187.867
188.523
189.176
189.826
190.474
191.121
191.767
192.413
193.06
193.708
194.356
195.006
195.658
196.312
196.969
197.627
198.289
198.953
199.619
200.289
200.961
201.637
202.318
203.017
171.451
172.33
173.195
174.046
174.884
175.711
176.528
177.334
178.129
178.912
179.684
180.443
181.189
181.92
182.638
183.343
184.035
184.716
185.386
186.046
186.699
187.344
187.983
188.618
189.248
189.875
190.499
191.122
191.743
192.364
192.985
193.607
194.229
194.853
195.478
196.106
196.735
197.368
198.002
198.64
199.28
199.923
200.569
201.219
201.871
202.527
203.186
203.848
204.516
205.201
175.463
176.265
177.056
177.838
178.61
179.371
180.123
180.862
181.589
182.304
183.005
183.693
184.369
185.032
185.684
186.326
186.96
187.585
188.203
188.816
189.424
190.028
190.628
191.227
191.823
192.419
193.015
193.61
194.206
194.804
195.402
196.003
196.606
197.211
197.818
198.429
199.042
199.658
200.278
200.9
201.527
202.156
202.789
203.425
204.064
204.707
205.353
206.003
206.659
207.331
179.212
179.949
180.677
181.395
182.102
182.797
183.479
184.15
184.807
185.453
186.087
186.71
187.324
187.929
188.526
189.117
189.703
190.284
190.862
191.436
192.008
192.579
193.149
193.718
194.288
194.859
195.431
196.004
196.58
197.157
197.738
198.321
198.906
199.495
200.088
200.683
201.282
201.885
202.491
203.1
203.714
204.331
204.951
205.575
206.203
206.833
207.468
208.106
208.75
209.409
182.728
183.401
184.063
184.714
185.352
185.978
186.593
187.197
187.791
188.376
188.953
189.522
190.086
190.644
191.198
191.749
192.296
192.842
193.387
193.931
194.474
195.018
195.564
196.11
196.658
197.208
197.761
198.316
198.874
199.435
200
200.568
201.139
201.714
202.293
202.875
203.462
204.052
204.646
205.244
205.845
206.451
207.06
207.672
208.288
208.908
209.531
210.158
210.791
211.438
186.004
186.61
187.205
187.789
188.362
188.926
189.482
190.03
190.571
191.106
191.637
192.164
192.688
193.209
193.728
194.246
194.764
195.282
195.8
196.319
196.84
197.363
197.888
198.415
198.945
199.478
200.015
200.554
201.098
201.645
202.196
202.751
203.309
203.872
204.439
205.01
205.585
206.164
206.747
207.333
207.924
208.519
209.117
209.719
210.325
210.934
211.546
212.163
212.784
213.42
189.58
190.114
190.64
191.159
191.671
192.179
192.682
193.181
193.677
194.172
194.664
195.156
195.648
196.139
196.632
197.125
197.62
198.118
198.617
199.119
199.624
200.132
200.644
201.159
201.678
202.2
202.727
203.258
203.793
204.332
204.875
205.422
205.974
206.53
207.09
207.655
208.223
208.796
209.373
209.953
210.538
211.126
211.718
212.313
212.912
213.514
214.12
214.731
215.356
192.337
192.821
193.3
193.775
194.247
194.716
195.184
195.65
196.115
196.581
197.046
197.513
197.981
198.45
198.922
199.396
199.873
200.352
200.836
201.322
201.812
202.307
202.805
203.307
203.814
204.324
204.839
205.359
205.883
206.412
206.944
207.482
208.024
208.57
209.12
209.675
210.234
210.797
211.364
211.935
212.51
213.088
213.67
214.256
214.845
215.437
216.033
216.634
217.248
194.917
195.361
195.803
196.244
196.683
197.122
197.561
198.001
198.441
198.884
199.328
199.774
200.222
200.674
201.129
201.587
202.049
202.514
202.984
203.457
203.935
204.417
204.904
205.395
205.891
206.392
206.897
207.406
207.921
208.44
208.963
209.491
210.024
210.561
211.102
211.648
212.197
212.751
213.309
213.871
214.436
215.005
215.578
216.154
216.733
217.316
217.902
218.493
219.096
197.762
198.175
198.588
199.002
199.417
199.833
200.252
200.672
201.096
201.523
201.952
202.385
202.822
203.263
203.708
204.157
204.611
205.069
205.531
205.999
206.471
206.947
207.429
207.915
208.406
208.902
209.403
209.908
210.419
210.934
211.453
211.977
212.505
213.038
213.575
214.116
214.661
215.21
215.763
216.319
216.879
217.443
218.009
218.579
219.152
219.728
220.309
220.902
200.047
200.436
200.828
201.221
201.617
202.015
202.417
202.821
203.23
203.642
204.058
204.479
204.904
205.333
205.767
206.205
206.648
207.096
207.549
208.007
208.47
208.938
209.411
209.889
210.372
210.859
211.352
211.849
212.351
212.858
213.37
213.885
214.405
214.93
215.459
215.991
216.528
217.068
217.612
218.16
218.711
219.265
219.823
220.383
220.947
221.513
222.085
222.667
202.604
202.978
203.355
203.735
204.119
204.507
204.898
205.294
205.695
206.1
206.51
206.924
207.344
207.768
208.197
208.632
209.071
209.516
209.966
210.421
210.881
211.346
211.816
212.291
212.771
213.256
213.746
214.24
214.739
215.243
215.751
216.263
216.78
217.3
217.825
218.353
218.885
219.42
219.959
220.502
221.047
221.596
222.147
222.701
223.258
223.82
224.392
204.691
205.051
205.414
205.782
206.154
206.53
206.911
207.297
207.688
208.083
208.484
208.89
209.301
209.717
210.138
210.565
210.997
211.434
211.877
212.324
212.777
213.235
213.698
214.166
214.639
215.117
215.599
216.086
216.578
217.074
217.575
218.079
218.588
219.101
219.617
220.138
220.661
221.189
221.719
222.253
222.789
223.329
223.871
224.416
224.964
225.516
226.078
207.056
207.408
207.766
208.128
208.495
208.867
209.244
209.626
210.014
210.407
210.805
211.209
211.618
212.032
212.452
212.877
213.308
213.743
214.184
214.63
215.082
215.538
215.999
216.465
216.936
217.412
217.892
218.377
218.866
219.359
219.856
220.357
220.862
221.371
221.883
222.399
222.918
223.44
223.965
224.493
225.023
225.556
226.092
226.631
227.174
227.726
209
209.343
209.692
210.046
210.405
210.77
211.139
211.515
211.895
212.282
212.673
213.07
213.473
213.881
214.295
214.714
215.138
215.568
216.002
216.442
216.887
217.337
217.792
218.252
218.716
219.185
219.659
220.136
220.618
221.104
221.594
222.088
222.585
223.086
223.59
224.098
224.609
225.122
225.639
226.158
226.68
227.204
227.731
228.26
228.794
229.336
210.889
211.225
211.567
211.914
212.266
212.624
212.988
213.357
213.731
214.112
214.498
214.889
215.286
215.688
216.096
216.509
216.928
217.352
217.781
218.215
218.654
219.098
219.546
220
220.458
220.92
221.387
221.858
222.333
222.812
223.294
223.781
224.27
224.764
225.26
225.76
226.262
226.768
227.276
227.786
228.3
228.815
229.333
229.853
230.377
230.91
212.728
213.058
213.393
213.735
214.081
214.434
214.792
215.155
215.525
215.9
216.28
216.667
217.058
217.455
217.858
218.266
218.679
219.097
219.521
219.949
220.382
220.82
221.263
221.71
222.162
222.618
223.078
223.542
224.01
224.482
224.958
225.437
225.919
226.405
226.894
227.385
227.88
228.377
228.876
229.379
229.883
230.39
230.898
231.41
231.924
232.447
214.521
214.846
215.176
215.512
215.854
216.201
216.555
216.914
217.278
217.648
218.024
218.405
218.792
219.184
219.582
219.985
220.393
220.806
221.224
221.647
222.074
222.507
222.943
223.385
223.83
224.28
224.733
225.191
225.652
226.117
226.586
227.057
227.532
228.01
228.491
228.975
229.461
229.95
230.442
230.935
231.431
231.929
232.429
232.931
233.436
233.95
216.272
216.592
216.918
217.249
217.587
217.93
218.279
218.633
218.993
219.359
219.73
220.107
220.489
220.877
221.27
221.667
222.07
222.478
222.891
223.309
223.731
224.157
224.588
225.023
225.463
225.906
226.353
226.804
227.259
227.717
228.178
228.643
229.11
229.581
230.054
230.53
231.008
231.489
231.972
232.457
232.944
233.433
233.924
234.418
234.914
235.418
217.982
218.298
218.62
218.948
219.281
219.62
219.965
220.316
220.672
221.033
221.401
221.773
222.151
222.534
222.922
223.315
223.713
224.116
224.524
224.936
225.352
225.773
226.199
226.628
227.061
227.498
227.939
228.383
228.831
229.282
229.736
230.194
230.654
231.117
231.582
232.05
232.521
232.993
233.468
233.945
234.423
234.904
235.386
235.87
236.358
236.852
219.968
220.286
220.61
220.94
221.275
221.617
221.963
222.316
222.673
223.036
223.405
223.778
224.157
224.54
224.929
225.322
225.72
226.122
226.529
226.94
227.356
227.775
228.199
228.626
229.057
229.491
229.929
230.37
230.814
231.261
231.711
232.164
232.619
233.077
233.537
234
234.464
234.931
235.399
235.869
236.341
236.815
237.29
237.768
238.254
221.602
221.917
222.238
222.564
222.896
223.234
223.577
223.925
224.279
224.638
225.003
225.372
225.746
226.125
226.509
226.898
227.291
227.688
228.09
228.495
228.905
229.319
229.736
230.158
230.582
231.01
231.441
231.876
232.313
232.753
233.196
233.641
234.089
234.539
234.991
235.446
235.902
236.36
236.82
237.282
237.745
238.21
238.677
239.147
239.623
223.202
223.514
223.832
224.155
224.484
224.818
225.158
225.503
225.853
226.208
226.568
226.934
227.304
227.678
228.057
228.441
228.829
229.222
229.618
230.018
230.423
230.83
231.242
231.657
232.075
232.497
232.921
233.349
233.779
234.212
234.648
235.086
235.526
235.969
236.413
236.86
237.308
237.758
238.21
238.663
239.118
239.574
240.032
240.493
240.96
225.079
225.394
225.714
226.04
226.371
226.707
227.049
227.395
227.746
228.103
228.464
228.829
229.2
229.574
229.953
230.336
230.724
231.115
231.51
231.908
232.31
232.716
233.125
233.537
233.952
234.37
234.791
235.214
235.64
236.068
236.499
236.932
237.367
237.804
238.242
238.682
239.124
239.568
240.013
240.459
240.907
241.357
241.809
242.267
226.613
226.925
227.242
227.565
227.893
228.226
228.563
228.906
229.254
229.606
229.963
230.324
230.69
231.06
231.434
231.813
232.195
232.58
232.97
233.363
233.759
234.159
234.562
234.967
235.376
235.787
236.201
236.618
237.037
237.458
237.881
238.307
238.734
239.163
239.594
240.026
240.46
240.895
241.332
241.77
242.209
242.65
243.094
243.543
228.117
228.426
228.74
229.06
229.384
229.714
230.048
230.387
230.731
231.08
231.432
231.789
232.151
232.516
232.885
233.259
233.635
234.016
234.4
234.787
235.178
235.571
235.968
236.367
236.769
237.174
237.581
237.991
238.403
238.817
239.233
239.651
240.07
240.492
240.915
241.339
241.765
242.192
242.621
243.051
243.482
243.914
244.349
244.789
229.591
229.897
230.209
230.525
230.847
231.173
231.504
231.839
232.179
232.524
232.872
233.225
233.582
233.942
234.307
234.675
235.046
235.422
235.8
236.182
236.566
236.954
237.344
237.737
238.133
238.531
238.932
239.334
239.739
240.146
240.555
240.965
241.377
241.791
242.206
242.623
243.041
243.46
243.88
244.302
244.724
245.149
245.575
246.007
231.34
231.649
231.962
232.281
232.603
232.931
233.262
233.598
233.939
234.283
234.631
234.983
235.339
235.699
236.062
236.428
236.798
237.171
237.547
237.925
238.307
238.691
239.078
239.467
239.859
240.252
240.648
241.046
241.446
241.847
242.25
242.655
243.061
243.468
243.877
244.287
244.698
245.111
245.524
245.939
246.355
246.773
247.196
232.755
233.061
233.371
233.686
234.006
234.329
234.657
234.989
235.325
235.665
236.009
236.357
236.708
237.062
237.42
237.781
238.146
238.513
238.883
239.256
239.631
240.009
240.39
240.773
241.157
241.544
241.933
242.324
242.717
243.111
243.506
243.904
244.302
244.702
245.103
245.505
245.909
246.313
246.718
247.125
247.533
247.943
248.357
234.143
234.446
234.753
235.064
235.38
235.7
236.024
236.352
236.684
237.02
237.359
237.702
238.048
238.398
238.751
239.107
239.465
239.827
240.191
240.558
240.928
241.299
241.673
242.05
242.428
242.808
243.19
243.574
243.959
244.346
244.735
245.125
245.516
245.908
246.301
246.696
247.091
247.488
247.885
248.284
248.683
249.085
249.492
235.804
236.107
236.416
236.728
237.044
237.364
237.688
238.016
238.347
238.682
239.02
239.361
239.706
240.053
240.404
240.757
241.113
241.472
241.833
242.196
242.562
242.929
243.299
243.671
244.044
244.419
244.796
245.175
245.554
245.936
246.318
246.702
247.086
247.472
247.859
248.247
248.635
249.025
249.415
249.807
250.201
250.599
237.135
237.436
237.74
238.049
238.361
238.677
238.997
239.321
239.647
239.978
240.311
240.647
240.987
241.329
241.674
242.022
242.372
242.725
243.08
243.437
243.796
244.158
244.521
244.886
245.253
245.621
245.991
246.363
246.735
247.109
247.484
247.861
248.238
248.616
248.995
249.375
249.756
250.138
250.521
250.905
251.291
251.681
238.44
238.738
239.039
239.344
239.652
239.964
240.28
240.599
240.921
241.247
241.575
241.907
242.241
242.578
242.918
243.26
243.604
243.951
244.3
244.652
245.005
245.36
245.717
246.075
246.435
246.797
247.16
247.524
247.89
248.257
248.624
248.993
249.363
249.734
250.106
250.478
250.852
251.226
251.601
251.977
252.355
252.738
239.72
240.014
240.312
240.613
240.917
241.225
241.537
241.851
242.169
242.49
242.814
243.14
243.469
243.801
244.135
244.472
244.81
245.152
245.495
245.84
246.187
246.535
246.886
247.238