/*--------------------------------*- C++ -*----------------------------------*\
| =========                 |                                                 |
| \\      /  F ield         | OpenFOAM: The Open Source CFD Toolbox           |
|  \\    /   O peration     | Version:  v1706                                 |
|   \\  /    A nd           | Web:      www.OpenFOAM.com                      |
|    \\/     M anipulation  |                                                 |
\*---------------------------------------------------------------------------*/
FoamFile
{
    version     2.0;
    format      ascii;
    class       volScalarField;
    location    "3.1e-05";
    object      wallHeatFlux;
}
// * * * * * * * * * * * * * * * * * * * * * * * * * * * * * * * * * * * * * //

dimensions      [1 0 -3 0 0 0 0];


internalField   uniform 0;

boundaryField
{
    cone
    {
        type            calculated;
        value           nonuniform List<scalar> 
153
(
117511
116343
115181
114024
112872
111726
110584
109447
108315
107188
106066
104950
103838
102732
101632
100538
99448.8
98365.9
97289.1
96218.4
95153.9
94095.9
93044.5
91999.7
90961.8
89930.9
88907.2
87890.9
86882.2
85881.5
84888.9
83904.8
82929.6
81963.7
81007.8
80062.2
79127.6
78205
77295.1
76399
75517.9
74652.9
73805.4
72976.5
72166.7
71374
70596.3
69800.5
69033.9
68360.2
67730.5
67139.5
66579.3
66044.1
65529.8
65033.1
64551.7
64083.4
63626.5
63179.5
62741
62310.3
61887
61470.2
61059.1
60652.3
60249.6
59850.6
59454.8
59061.6
58670.7
58281.8
57894.4
57508.4
57123.5
56739.3
56355.7
55972.5
55589.4
55206.3
54823
54439.4
54055.4
53670.8
53285.7
52899.8
52513.1
52125.7
51737.3
51348
50957.8
50566.7
50174.5
49781.4
49387.3
48992.3
48596.3
48199.4
47801.6
47402.9
47003.4
46603.1
46202.1
45800.4
45398
44995.1
44591.6
44187.6
43783.2
43378.4
42973.3
42567.9
42162.3
41756.6
41350.8
40944.9
40539.1
40133.3
39727.6
39322.1
38916.8
38511.8
38107.1
37702.7
37298.7
36895.2
36492.3
36089.9
35688.1
35287
34886.7
34487.3
34088.8
33691.3
33294.9
32899.7
32505.8
32113.4
31722.5
31333.2
30945.7
30560.2
30176.7
29795.4
29416.4
29039.9
28666
28294.9
27926.8
27561.7
27199.8
26841.3
26486.3
)
;
    }
    inlet
    {
        type            calculated;
        value           uniform 0;
    }
    rWedge
    {
        type            wedge;
    }
    lWedge
    {
        type            wedge;
    }
    outlet
    {
        type            calculated;
        value           nonuniform 0();
    }
    procBoundary2to0
    {
        type            processor;
        value           uniform 0;
    }
    procBoundary2to1
    {
        type            processor;
        value           uniform 0;
    }
    procBoundary2to3
    {
        type            processor;
        value           uniform 0;
    }
}


// ************************************************************************* //
