/*--------------------------------*- C++ -*----------------------------------*\
| =========                 |                                                 |
| \\      /  F ield         | OpenFOAM: The Open Source CFD Toolbox           |
|  \\    /   O peration     | Version:  v1706                                 |
|   \\  /    A nd           | Web:      www.OpenFOAM.com                      |
|    \\/     M anipulation  |                                                 |
\*---------------------------------------------------------------------------*/
FoamFile
{
    version     2.0;
    format      ascii;
    class       volScalarField;
    location    "1.3e-05";
    object      kappatr;
}
// * * * * * * * * * * * * * * * * * * * * * * * * * * * * * * * * * * * * * //

dimensions      [1 1 -3 -1 0 0 0];


internalField   nonuniform List<scalar> 
29871
(
0.014593
0.014593
0.014593
0.014593
0.014593
0.014593
0.014593
0.014593
0.014593
0.014593
0.014593
0.014593
0.014593
0.014593
0.014593
0.014593
0.014593
0.014593
0.014593
0.014593
0.014593
0.014593
0.014593
0.014593
0.014593
0.014593
0.014593
0.014593
0.014593
0.014593
0.014593
0.014593
0.014593
0.014593
0.014593
0.014593
0.014593
0.014593
0.014593
0.014593
0.014593
0.014593
0.014593
0.014593
0.014593
0.014593
0.014593
0.014593
0.014593
0.014593
0.014593
0.014593
0.014593
0.014593
0.014593
0.014593
0.014593
0.014593
0.014593
0.014593
0.014593
0.014593
0.014593
0.014593
0.014593
0.014593
0.014593
0.014593
0.014593
0.014593
0.014593
0.014593
0.014593
0.014593
0.014593
0.014593
0.014593
0.014593
0.014593
0.014593
0.014593
0.014593
0.014593
0.014593
0.014593
0.014593
0.014593
0.014593
0.014593
0.014593
0.014593
0.014593
0.014593
0.014593
0.014593
0.014593
0.014593
0.014593
0.014593
0.014593
0.014593
0.014593
0.014593
0.014593
0.014593
0.014593
0.014593
0.014593
0.014593
0.014593
0.014593
0.014593
0.014593
0.014593
0.014593
0.014593
0.014593
0.014593
0.014593
0.014593
0.014593
0.014593
0.014593
0.014593
0.014593
0.014593
0.014593
0.014593
0.014593
0.014593
0.014593
0.014593
0.014593
0.014593
0.014593
0.014593
0.014593
0.014593
0.014593
0.014593
0.014593
0.014593
0.014593
0.014593
0.014593
0.014593
0.014593
0.014593
0.014593
0.014593
0.014593
0.014593
0.014593
0.014593
0.014593
0.014593
0.014593
0.014593
0.014593
0.014593
0.014593
0.014593
0.014593
0.014593
0.014593
0.014593
0.014593
0.014593
0.014593
0.014593
0.014593
0.014593
0.014593
0.014593
0.014593
0.014593
0.014593
0.014593
0.014593
0.014593
0.014593
0.014593
0.014593
0.014593
0.014593
0.014593
0.014593
0.014593
0.014593
0.014593
0.014593
0.014593
0.014593
0.014593
0.014593
0.014593
0.014593
0.014593
0.014593
0.014593
0.014593
0.014593
0.014593
0.014593
0.014593
0.014593
0.014593
0.014593
0.014593
0.014593
0.014593
0.014593
0.014593
0.014593
0.014593
0.014593
0.014593
0.014593
0.014593
0.014593
0.014593
0.014593
0.014593
0.014593
0.014593
0.014593
0.014593
0.014593
0.014593
0.014593
0.014593
0.014593
0.014593
0.014593
0.014593
0.014593
0.014593
0.014593
0.014593
0.014593
0.014593
0.014593
0.014593
0.014593
0.014593
0.014593
0.014593
0.014593
0.014593
0.014593
0.014593
0.014593
0.014593
0.014593
0.014593
0.014593
0.014593
0.014593
0.014593
0.014593
0.014593
0.014593
0.014593
0.014593
0.014593
0.014593
0.014593
0.014593
0.014593
0.014593
0.014593
0.014593
0.014593
0.014593
0.014593
0.014593
0.014593
0.014593
0.014593
0.014593
0.014593
0.014593
0.014593
0.014593
0.014593
0.014593
0.014593
0.014593
0.014593
0.014593
0.014593
0.014593
0.014593
0.014593
0.014593
0.014593
0.014593
0.014593
0.014593
0.014593
0.014593
0.014593
0.014593
0.014593
0.014593
0.014593
0.014593
0.014593
0.014593
0.014593
0.014593
0.014593
0.014593
0.014593
0.014593
0.014593
0.014593
0.014593
0.014593
0.014593
0.014593
0.014593
0.014593
0.014593
0.014593
0.014593
0.014593
0.014593
0.014593
0.014593
0.014593
0.014593
0.014593
0.014593
0.014593
0.014593
0.014593
0.014593
0.014593
0.014593
0.014593
0.014593
0.014593
0.014593
0.014593
0.014593
0.014593
0.014593
0.014593
0.014593
0.014593
0.014593
0.014593
0.014593
0.014593
0.014593
0.014593
0.014593
0.014593
0.014593
0.014593
0.014593
0.014593
0.014593
0.014593
0.014593
0.014593
0.014593
0.014593
0.014593
0.014593
0.014593
0.014593
0.014593
0.014593
0.014593
0.014593
0.014593
0.014593
0.014593
0.014593
0.014593
0.014593
0.014593
0.014593
0.014593
0.014593
0.014593
0.014593
0.014593
0.014593
0.014593
0.014593
0.014593
0.014593
0.014593
0.014593
0.014593
0.014593
0.014593
0.014593
0.014593
0.014593
0.014593
0.014593
0.014593
0.014593
0.014593
0.014593
0.014593
0.014593
0.014593
0.014593
0.014593
0.014593
0.014593
0.014593
0.014593
0.014593
0.014593
0.014593
0.014593
0.014593
0.014593
0.014593
0.014593
0.014593
0.014593
0.014593
0.014593
0.014593
0.014593
0.014593
0.014593
0.014593
0.014593
0.014593
0.014593
0.014593
0.014593
0.014593
0.014593
0.014593
0.014593
0.014593
0.014593
0.014593
0.014593
0.014593
0.014593
0.014593
0.014593
0.014593
0.014593
0.014593
0.014593
0.014593
0.014593
0.014593
0.014593
0.014593
0.014593
0.014593
0.014593
0.014593
0.014593
0.014593
0.014593
0.014593
0.014593
0.014593
0.014593
0.014593
0.014593
0.014593
0.014593
0.014593
0.014593
0.014593
0.014593
0.014593
0.014593
0.014593
0.014593
0.014593
0.014593
0.014593
0.014593
0.014593
0.014593
0.014593
0.014593
0.014593
0.014593
0.014593
0.014593
0.014593
0.014593
0.014593
0.014593
0.014593
0.014593
0.014593
0.014593
0.014593
0.014593
0.014593
0.014593
0.014593
0.014593
0.014593
0.014593
0.014593
0.014593
0.014593
0.014593
0.014593
0.014593
0.014593
0.014593
0.014593
0.014593
0.014593
0.014593
0.014593
0.014593
0.014593
0.014593
0.014593
0.014593
0.014593
0.014593
0.014593
0.014593
0.014593
0.014593
0.014593
0.014593
0.014593
0.014593
0.014593
0.014593
0.014593
0.014593
0.014593
0.014593
0.014593
0.014593
0.014593
0.014593
0.014593
0.014593
0.014593
0.014593
0.014593
0.014593
0.014593
0.014593
0.014593
0.014593
0.014593
0.014593
0.014593
0.014593
0.014593
0.014593
0.014593
0.014593
0.014593
0.014593
0.014593
0.014593
0.014593
0.014593
0.014593
0.014593
0.014593
0.014593
0.014593
0.014593
0.014593
0.014593
0.014593
0.014593
0.014593
0.014593
0.014593
0.014593
0.014593
0.014593
0.014593
0.014593
0.014593
0.014593
0.014593
0.014593
0.014593
0.014593
0.014593
0.014593
0.014593
0.014593
0.014593
0.014593
0.014593
0.014593
0.014593
0.014593
0.014593
0.014593
0.014593
0.014593
0.014593
0.014593
0.014593
0.014593
0.014593
0.014593
0.014593
0.014593
0.014593
0.014593
0.014593
0.014593
0.014593
0.014593
0.014593
0.014593
0.014593
0.014593
0.014593
0.014593
0.014593
0.014593
0.014593
0.014593
0.014593
0.014593
0.014593
0.014593
0.014593
0.014593
0.014593
0.014593
0.014593
0.014593
0.014593
0.014593
0.014593
0.014593
0.014593
0.014593
0.014593
0.014593
0.014593
0.014593
0.014593
0.014593
0.014593
0.014593
0.014593
0.014593
0.014593
0.014593
0.014593
0.014593
0.014593
0.014593
0.014593
0.014593
0.014593
0.014593
0.014593
0.014593
0.014593
0.014593
0.014593
0.014593
0.014593
0.014593
0.014593
0.014593
0.014593
0.014593
0.014593
0.014593
0.014593
0.014593
0.014593
0.014593
0.014593
0.014593
0.014593
0.014593
0.014593
0.014593
0.014593
0.014593
0.014593
0.014593
0.014593
0.014593
0.014593
0.014593
0.014593
0.014593
0.014593
0.014593
0.014593
0.014593
0.014593
0.014593
0.014593
0.014593
0.014593
0.014593
0.014593
0.014593
0.014593
0.014593
0.014593
0.014593
0.014593
0.014593
0.014593
0.014593
0.014593
0.014593
0.014593
0.014593
0.014593
0.014593
0.014593
0.014593
0.014593
0.014593
0.014593
0.014593
0.014593
0.014593
0.014593
0.014593
0.014593
0.014593
0.014593
0.014593
0.014593
0.014593
0.014593
0.014593
0.014593
0.014593
0.014593
0.014593
0.014593
0.014593
0.014593
0.014593
0.014593
0.014593
0.014593
0.014593
0.014593
0.014593
0.014593
0.014593
0.014593
0.014593
0.014593
0.014593
0.014593
0.014593
0.014593
0.014593
0.014593
0.014593
0.014593
0.014593
0.014593
0.014593
0.014593
0.014593
0.014593
0.014593
0.014593
0.014593
0.014593
0.014593
0.014593
0.014593
0.014593
0.014593
0.014593
0.014593
0.014593
0.014593
0.014593
0.014593
0.014593
0.014593
0.014593
0.014593
0.014593
0.014593
0.014593
0.014593
0.014593
0.014593
0.014593
0.014593
0.014593
0.014593
0.014593
0.014593
0.014593
0.014593
0.014593
0.014593
0.014593
0.014593
0.014593
0.014593
0.014593
0.014593
0.014593
0.014593
0.014593
0.014593
0.014593
0.014593
0.014593
0.014593
0.014593
0.014593
0.014593
0.014593
0.014593
0.014593
0.014593
0.014593
0.014593
0.014593
0.014593
0.014593
0.014593
0.014593
0.014593
0.014593
0.014593
0.014593
0.014593
0.014593
0.014593
0.014593
0.014593
0.014593
0.014593
0.014593
0.014593
0.014593
0.014593
0.014593
0.014593
0.014593
0.014593
0.014593
0.014593
0.014593
0.014593
0.014593
0.014593
0.014593
0.014593
0.014593
0.014593
0.014593
0.014593
0.014593
0.014593
0.014593
0.014593
0.014593
0.014593
0.014593
0.014593
0.014593
0.014593
0.014593
0.014593
0.014593
0.014593
0.014593
0.014593
0.014593
0.014593
0.014593
0.014593
0.014593
0.014593
0.014593
0.014593
0.014593
0.014593
0.014593
0.014593
0.014593
0.014593
0.014593
0.014593
0.014593
0.014593
0.014593
0.014593
0.014593
0.014593
0.014593
0.014593
0.014593
0.014593
0.014593
0.014593
0.014593
0.014593
0.014593
0.014593
0.014593
0.014593
0.014593
0.014593
0.014593
0.014593
0.014593
0.014593
0.014593
0.014593
0.014593
0.014593
0.014593
0.014593
0.014593
0.014593
0.014593
0.014593
0.014593
0.014593
0.014593
0.014593
0.014593
0.014593
0.014593
0.014593
0.014593
0.014593
0.014593
0.014593
0.014593
0.014593
0.014593
0.014593
0.014593
0.014593
0.014593
0.014593
0.014593
0.014593
0.014593
0.014593
0.014593
0.014593
0.014593
0.014593
0.014593
0.014593
0.014593
0.014593
0.014593
0.014593
0.014593
0.014593
0.014593
0.014593
0.014593
0.014593
0.014593
0.014593
0.014593
0.014593
0.014593
0.014593
0.014593
0.014593
0.014593
0.014593
0.014593
0.014593
0.014593
0.014593
0.014593
0.014593
0.014593
0.014593
0.014593
0.014593
0.014593
0.014593
0.014593
0.014593
0.014593
0.014593
0.014593
0.014593
0.014593
0.014593
0.014593
0.014593
0.014593
0.014593
0.014593
0.014593
0.014593
0.014593
0.014593
0.014593
0.014593
0.014593
0.014593
0.014593
0.014593
0.014593
0.014593
0.014593
0.014593
0.014593
0.014593
0.014593
0.014593
0.014593
0.014593
0.014593
0.014593
0.014593
0.014593
0.014593
0.014593
0.014593
0.014593
0.014593
0.014593
0.014593
0.014593
0.014593
0.014593
0.014593
0.014593
0.014593
0.014593
0.014593
0.014593
0.014593
0.014593
0.014593
0.014593
0.014593
0.014593
0.014593
0.014593
0.014593
0.014593
0.014593
0.014593
0.014593
0.014593
0.014593
0.014593
0.014593
0.014593
0.014593
0.014593
0.014593
0.014593
0.014593
0.014593
0.014593
0.014593
0.014593
0.014593
0.014593
0.014593
0.014593
0.014593
0.014593
0.014593
0.014593
0.014593
0.014593
0.014593
0.014593
0.014593
0.014593
0.014593
0.014593
0.014593
0.014593
0.014593
0.014593
0.014593
0.014593
0.014593
0.014593
0.014593
0.014593
0.014593
0.014593
0.014593
0.014593
0.014593
0.014593
0.014593
0.014593
0.014593
0.014593
0.014593
0.014593
0.014593
0.014593
0.014593
0.014593
0.014593
0.014593
0.014593
0.014593
0.014593
0.014593
0.014593
0.014593
0.014593
0.014593
0.014593
0.014593
0.014593
0.014593
0.014593
0.014593
0.014593
0.014593
0.014593
0.014593
0.014593
0.014593
0.014593
0.014593
0.014593
0.014593
0.014593
0.014593
0.014593
0.014593
0.014593
0.014593
0.014593
0.014593
0.014593
0.014593
0.014593
0.014593
0.014593
0.014593
0.014593
0.014593
0.014593
0.014593
0.014593
0.014593
0.014593
0.014593
0.014593
0.014593
0.014593
0.014593
0.014593
0.014593
0.014593
0.014593
0.014593
0.014593
0.014593
0.014593
0.014593
0.014593
0.014593
0.014593
0.014593
0.014593
0.014593
0.014593
0.014593
0.014593
0.014593
0.014593
0.014593
0.014593
0.014593
0.014593
0.014593
0.014593
0.014593
0.014593
0.014593
0.014593
0.014593
0.014593
0.014593
0.014593
0.014593
0.014593
0.014593
0.014593
0.014593
0.014593
0.014593
0.014593
0.014593
0.014593
0.014593
0.014593
0.014593
0.014593
0.014593
0.014593
0.014593
0.014593
0.014593
0.014593
0.014593
0.014593
0.014593
0.014593
0.014593
0.014593
0.014593
0.014593
0.014593
0.014593
0.014593
0.014593
0.014593
0.014593
0.014593
0.014593
0.014593
0.014593
0.014593
0.014593
0.014593
0.014593
0.0145931
0.0145931
0.0145931
0.0145931
0.0145931
0.0145931
0.0145931
0.0145931
0.0145931
0.0145931
0.0145931
0.0145931
0.0145931
0.0145931
0.0145931
0.0145931
0.0145931
0.0145931
0.0145931
0.0145931
0.0145931
0.0145931
0.0145931
0.0145931
0.0145931
0.0145931
0.0145931
0.0145931
0.0145931
0.014593
0.014593
0.014593
0.014593
0.014593
0.014593
0.014593
0.014593
0.014593
0.014593
0.014593
0.014593
0.014593
0.014593
0.014593
0.014593
0.014593
0.014593
0.014593
0.014593
0.014593
0.014593
0.014593
0.014593
0.014593
0.014593
0.014593
0.014593
0.014593
0.014593
0.014593
0.014593
0.014593
0.014593
0.014593
0.014593
0.014593
0.014593
0.014593
0.014593
0.014593
0.014593
0.014593
0.014593
0.014593
0.014593
0.014593
0.014593
0.014593
0.014593
0.014593
0.014593
0.014593
0.014593
0.014593
0.014593
0.014593
0.014593
0.014593
0.014593
0.014593
0.014593
0.0145931
0.0145931
0.0145931
0.0145931
0.0145931
0.0145931
0.0145931
0.0145931
0.0145931
0.0145931
0.0145931
0.0145932
0.0145932
0.0145932
0.0145932
0.0145932
0.0145933
0.0145933
0.0145933
0.0145933
0.0145934
0.0145934
0.0145934
0.0145935
0.0145935
0.0145935
0.0145935
0.0145935
0.0145936
0.0145936
0.0145936
0.0145936
0.0145936
0.0145936
0.0145936
0.0145936
0.0145936
0.0145936
0.0145936
0.0145936
0.0145936
0.0145935
0.0145935
0.0145935
0.0145935
0.0145934
0.0145934
0.0145934
0.0145934
0.0145933
0.0145933
0.0145933
0.0145932
0.0145932
0.0145932
0.0145932
0.0145931
0.0145931
0.0145931
0.0145931
0.0145931
0.0145931
0.0145931
0.014593
0.014593
0.014593
0.014593
0.014593
0.014593
0.014593
0.014593
0.014593
0.014593
0.014593
0.014593
0.014593
0.014593
0.014593
0.014593
0.014593
0.014593
0.014593
0.014593
0.014593
0.014593
0.014593
0.014593
0.014593
0.014593
0.014593
0.014593
0.014593
0.014593
0.014593
0.014593
0.014593
0.0145931
0.0145931
0.0145931
0.0145931
0.0145931
0.0145931
0.0145931
0.0145931
0.0145931
0.0145931
0.0145932
0.0145932
0.0145932
0.0145932
0.0145932
0.0145933
0.0145933
0.0145933
0.0145934
0.0145934
0.0145935
0.0145936
0.0145936
0.0145937
0.0145938
0.0145939
0.014594
0.0145941
0.0145942
0.0145943
0.0145944
0.0145946
0.0145947
0.0145949
0.0145951
0.0145953
0.0145955
0.0145958
0.014596
0.0145962
0.0145964
0.0145966
0.0145968
0.014597
0.0145971
0.0145973
0.0145974
0.0145975
0.0145976
0.0145977
0.0145977
0.0145977
0.0145977
0.0145976
0.0145976
0.0145975
0.0145974
0.0145972
0.0145971
0.0145969
0.0145967
0.0145965
0.0145963
0.0145961
0.0145959
0.0145957
0.0145955
0.0145952
0.014595
0.0145948
0.0145946
0.0145944
0.0145942
0.0145941
0.0145939
0.0145938
0.0145936
0.0145935
0.0145935
0.0145934
0.0145933
0.014593
0.014593
0.014593
0.014593
0.014593
0.014593
0.014593
0.014593
0.014593
0.014593
0.014593
0.014593
0.014593
0.014593
0.014593
0.014593
0.014593
0.014593
0.0145931
0.0145931
0.0145931
0.0145931
0.0145931
0.0145931
0.0145931
0.0145931
0.0145931
0.0145931
0.0145932
0.0145932
0.0145932
0.0145932
0.0145933
0.0145933
0.0145933
0.0145934
0.0145934
0.0145935
0.0145935
0.0145936
0.0145937
0.0145938
0.0145939
0.014594
0.0145941
0.0145943
0.0145944
0.0145946
0.0145948
0.014595
0.0145952
0.0145955
0.0145959
0.0145962
0.0145966
0.0145971
0.0145976
0.0145982
0.0145988
0.0145995
0.0146001
0.0146009
0.0146017
0.0146026
0.0146036
0.0146047
0.014606
0.0146073
0.0146088
0.0146104
0.014612
0.0146136
0.0146152
0.0146168
0.0146184
0.0146199
0.0146213
0.0146226
0.0146238
0.0146248
0.0146258
0.0146265
0.0146271
0.0146275
0.0146277
0.0146277
0.0146276
0.0146272
0.0146267
0.014626
0.0146251
0.0146241
0.014623
0.0146217
0.0146203
0.0146189
0.0146174
0.0146158
0.0146142
0.0146126
0.014611
0.0146094
0.0146078
0.0146063
0.0146048
0.0146034
0.014602
0.0146007
0.0145996
0.0145985
0.0145976
0.0145969
0.0145963
0.0145957
0.0145953
0.014593
0.014593
0.014593
0.014593
0.0145931
0.0145931
0.0145931
0.0145931
0.0145931
0.0145931
0.0145931
0.0145931
0.0145932
0.0145932
0.0145932
0.0145932
0.0145933
0.0145933
0.0145933
0.0145934
0.0145934
0.0145935
0.0145935
0.0145936
0.0145937
0.0145938
0.0145939
0.014594
0.0145941
0.0145943
0.0145945
0.0145947
0.0145949
0.0145951
0.0145954
0.0145957
0.014596
0.0145964
0.0145968
0.0145973
0.0145979
0.0145985
0.0145993
0.0146001
0.014601
0.014602
0.0146031
0.0146043
0.0146057
0.0146073
0.0146091
0.0146112
0.0146136
0.0146164
0.0146195
0.0146229
0.0146266
0.0146307
0.014635
0.0146397
0.0146446
0.0146499
0.0146557
0.0146623
0.0146697
0.0146781
0.0146874
0.0146976
0.0147084
0.0147198
0.0147314
0.0147432
0.0147549
0.0147663
0.0147774
0.014788
0.014798
0.0148072
0.0148155
0.014823
0.0148293
0.0148346
0.0148386
0.0148413
0.0148427
0.0148427
0.0148415
0.0148389
0.0148351
0.01483
0.0148238
0.0148165
0.0148083
0.0147991
0.0147893
0.0147788
0.014768
0.0147568
0.0147453
0.0147338
0.0147222
0.0147106
0.0146992
0.0146881
0.0146774
0.014667
0.0146571
0.0146479
0.0146395
0.0146322
0.0146259
0.0146207
0.0146163
0.0146126
0.0146093
0.0146065
0.0145931
0.0145931
0.0145931
0.0145931
0.0145931
0.0145931
0.0145932
0.0145932
0.0145932
0.0145932
0.0145933
0.0145933
0.0145934
0.0145934
0.0145935
0.0145936
0.0145937
0.0145938
0.0145939
0.014594
0.0145941
0.0145943
0.0145945
0.0145947
0.014595
0.0145952
0.0145955
0.0145959
0.0145963
0.0145967
0.0145972
0.0145978
0.0145984
0.0145991
0.0146
0.0146009
0.014602
0.0146031
0.0146045
0.0146059
0.0146075
0.0146094
0.0146114
0.0146138
0.0146165
0.0146196
0.0146231
0.0146272
0.0146318
0.0146369
0.0146427
0.014649
0.0146559
0.0146636
0.0146721
0.0146818
0.014693
0.014706
0.0147211
0.0147384
0.0147579
0.0147798
0.0148039
0.0148301
0.0148583
0.0148883
0.01492
0.0149536
0.0149898
0.01503
0.0150756
0.0151274
0.0151858
0.0152502
0.0153195
0.0153926
0.0154682
0.0155448
0.0156211
0.0156962
0.0157691
0.0158392
0.0159055
0.0159675
0.0160246
0.0160762
0.0161217
0.0161605
0.0161922
0.0162161
0.0162321
0.0162396
0.0162394
0.0162313
0.0162149
0.0161905
0.0161585
0.0161194
0.0160738
0.0160219
0.0159643
0.0159018
0.0158353
0.0157658
0.0156938
0.0156199
0.0155445
0.0154683
0.015392
0.0153163
0.0152418
0.0151691
0.0150986
0.015031
0.0149678
0.0149107
0.0148612
0.0148195
0.0147845
0.014755
0.0147297
0.0147074
0.0146875
0.0145934
0.0145935
0.0145936
0.0145937
0.0145938
0.0145939
0.014594
0.0145942
0.0145944
0.0145946
0.0145949
0.0145952
0.0145955
0.0145959
0.0145964
0.0145969
0.0145974
0.0145981
0.0145989
0.0145997
0.0146007
0.0146018
0.0146031
0.0146045
0.0146062
0.014608
0.0146101
0.0146124
0.014615
0.014618
0.0146213
0.0146251
0.0146295
0.0146345
0.0146401
0.0146465
0.0146537
0.0146618
0.0146707
0.0146805
0.0146914
0.0147037
0.0147177
0.0147337
0.0147522
0.0147736
0.014798
0.0148257
0.0148569
0.0148917
0.0149301
0.0149721
0.0150179
0.0150681
0.0151242
0.0151883
0.0152626
0.0153488
0.0154479
0.0155603
0.0156859
0.015824
0.0159735
0.0161331
0.0163014
0.0164775
0.0166606
0.0168519
0.0170561
0.0172829
0.0175399
0.0178288
0.0181462
0.0184858
0.0188397
0.0192005
0.0195609
0.0199148
0.0202574
0.0205854
0.0208969
0.0211897
0.0214618
0.0217114
0.0219373
0.0221384
0.0223132
0.0224604
0.0225784
0.0226653
0.0227218
0.0227449
0.0227406
0.022707
0.0226401
0.0225422
0.0224149
0.0222601
0.022079
0.0218714
0.0216377
0.0213799
0.0211019
0.0208064
0.0204948
0.0201679
0.0198267
0.0194729
0.0191092
0.0187388
0.0183643
0.0179878
0.0176121
0.0172419
0.0168863
0.0165605
0.0162762
0.0160346
0.0158295
0.0156523
0.0154955
0.0153539
0.0152244
0.0145957
0.0145961
0.0145967
0.0145973
0.014598
0.0145989
0.0145998
0.0146009
0.0146022
0.0146037
0.0146054
0.0146074
0.0146096
0.0146122
0.0146151
0.0146185
0.0146222
0.0146266
0.0146315
0.0146371
0.0146436
0.014651
0.0146594
0.014669
0.0146798
0.0146919
0.0147054
0.0147205
0.0147375
0.0147567
0.0147787
0.0148038
0.0148326
0.0148653
0.0149024
0.014944
0.0149905
0.015042
0.0150986
0.0151608
0.0152295
0.0153067
0.0153946
0.0154955
0.0156113
0.0157432
0.0158923
0.0160587
0.0162426
0.0164434
0.0166603
0.0168925
0.0171404
0.0174069
0.0177009
0.0180343
0.0184152
0.0188463
0.0193259
0.0198492
0.0204094
0.0209985
0.021608
0.0222303
0.0228592
0.0234904
0.0241221
0.0247592
0.0254207
0.0261465
0.0269483
0.0278108
0.0287089
0.0296172
0.0305144
0.0313835
0.0322122
0.0329917
0.033718
0.0343913
0.0350132
0.0355841
0.0361023
0.0365673
0.0369798
0.0373402
0.0376481
0.0379028
0.0381036
0.0382445
0.0383301
0.0383588
0.0383451
0.0382757
0.0381422
0.037955
0.0377162
0.0374272
0.0370881
0.0366952
0.036245
0.0357394
0.0351848
0.0345837
0.0339343
0.0332342
0.0324807
0.0316716
0.0308082
0.0298929
0.0289261
0.0279062
0.0268336
0.0257172
0.0245844
0.0235047
0.0225313
0.0216676
0.0208902
0.0201721
0.0194927
0.0188388
0.0182044
0.0146102
0.0146132
0.0146167
0.0146207
0.0146254
0.0146307
0.0146369
0.014644
0.0146522
0.0146617
0.0146727
0.0146853
0.0146997
0.0147161
0.0147347
0.0147557
0.0147796
0.0148068
0.0148381
0.0148739
0.0149148
0.0149615
0.0150144
0.015074
0.0151407
0.0152147
0.0152967
0.0153877
0.0154895
0.0156046
0.0157352
0.0158834
0.0160506
0.0162381
0.0164464
0.0166757
0.0169258
0.0171959
0.0174854
0.0177954
0.0181309
0.0185021
0.0189181
0.0193848
0.0199037
0.0204735
0.0210904
0.0217493
0.0224436
0.0231661
0.0239097
0.0246691
0.0254436
0.0262441
0.027103
0.028051
0.0290895
0.0302021
0.0313669
0.032562
0.0337666
0.0349617
0.0361314
0.0372651
0.0383581
0.0394094
0.0404215
0.041405
0.0423948
0.0435295
0.0447782
0.04606
0.0473159
0.048508
0.0496147
0.0506258
0.0515388
0.0523555
0.0530818
0.0537279
0.0543036
0.0548131
0.0552541
0.0556294
0.0559444
0.0562016
0.0564041
0.0565548
0.0566589
0.0566946
0.0566808
0.056643
0.0565672
0.0564401
0.0562694
0.0560526
0.0557935
0.0555012
0.0551821
0.0548221
0.0544078
0.0539322
0.0534082
0.0528356
0.0522041
0.0515089
0.0507409
0.0498801
0.0489189
0.047853
0.0466719
0.0453568
0.0438837
0.0422476
0.0404699
0.0387325
0.037159
0.0357043
0.0342961
0.0328777
0.0314127
0.0298774
0.0282562
0.026555
0.0248369
0.0147014
0.0147201
0.0147417
0.0147666
0.0147951
0.014828
0.0148658
0.0149095
0.01496
0.015018
0.0150846
0.0151604
0.0152464
0.0153431
0.0154516
0.0155732
0.0157102
0.0158652
0.0160409
0.0162394
0.0164627
0.016712
0.016988
0.017291
0.0176205
0.0179758
0.0183574
0.0187694
0.0192202
0.0197175
0.0202659
0.0208667
0.0215182
0.022217
0.0229582
0.0237356
0.0245421
0.0253707
0.0262161
0.0270809
0.027982
0.0289506
0.029997
0.0311149
0.0322902
0.0335071
0.03475
0.0360035
0.0372528
0.0384845
0.0396892
0.040862
0.0420072
0.0431435
0.0443616
0.0457292
0.0471839
0.04866
0.0501112
0.0515059
0.0528224
0.0540461
0.0551684
0.0561908
0.0571206
0.0579675
0.058739
0.0594371
0.0600648
0.0606096
0.0610763
0.0614742
0.0618107
0.0620878
0.0623084
0.0624785
0.0626044
0.0626955
0.062763
0.0628182
0.0628611
0.0628924
0.0629004
0.0628913
0.0628663
0.0628219
0.0627613
0.062684
0.0625902
0.0624781
0.0623475
0.0622039
0.0620432
0.0618702
0.0616871
0.0614922
0.0612929
0.0610869
0.0608407
0.0605797
0.0603122
0.0600439
0.059775
0.0594802
0.0591659
0.0588407
0.0585039
0.0581459
0.0577732
0.0573691
0.0569285
0.0564518
0.0559319
0.0553722
0.0547537
0.054057
0.0532798
0.0523971
0.0513693
0.0501654
0.0487593
0.0471162
0.0451823
0.0429118
0.0403472
0.0152434
0.0153515
0.015475
0.0156151
0.0157741
0.0159546
0.0161598
0.0163928
0.0166565
0.016953
0.017284
0.0176502
0.0180519
0.0184888
0.0189614
0.0194737
0.0200327
0.0206447
0.0213131
0.022038
0.0228168
0.0236451
0.0245171
0.0254255
0.0263623
0.0273201
0.0282987
0.0293108
0.0303793
0.0315099
0.0326956
0.0339246
0.0351835
0.0364596
0.0377403
0.0390136
0.0402677
0.0414935
0.042687
0.0438559
0.0450367
0.0463387
0.047727
0.0491532
0.050577
0.0519686
0.0533068
0.0545761
0.0557644
0.0568635
0.0578728
0.0587983
0.059649
0.0604295
0.061138
0.0617699
0.0623321
0.0628308
0.0632701
0.063652
0.0639795
0.0642507
0.0644669
0.0646442
0.0647984
0.0649404
0.0650693
0.0651843
0.0652852
0.0653688
0.0654351
0.0654864
0.065526
0.065548
0.0655453
0.0655291
0.0654921
0.0654318
0.0653519
0.0652662
0.0651642
0.0650608
0.0649601
0.0648491
0.0647258
0.0646037
0.0644764
0.0643395
0.064203
0.0640564
0.0638949
0.0637356
0.0635753
0.0633934
0.0632005
0.0630162
0.0628387
0.0626359
0.0624053
0.0621828
0.0619598
0.061746
0.0614981
0.0612286
0.060976
0.0607276
0.0604742
0.0602382
0.0599863
0.0596919
0.0594039
0.0591187
0.0588525
0.0585512
0.0582273
0.0579387
0.0576481
0.0573182
0.056935
0.0564976
0.0560096
0.0554748
0.0548723
0.0541743
0.0533516
0.0175437
0.017979
0.0184604
0.0189881
0.019563
0.0201885
0.0208708
0.0216149
0.0224227
0.0232933
0.0242228
0.0252057
0.0262345
0.027301
0.0283969
0.0295198
0.0306793
0.0318907
0.0331549
0.0344629
0.0358021
0.0371598
0.0385237
0.0398821
0.0412239
0.0425384
0.0438179
0.045066
0.0463183
0.0476562
0.0490511
0.0504643
0.0518636
0.0532245
0.0545294
0.0557658
0.056924
0.0579962
0.05898
0.059881
0.0607051
0.0614578
0.0621334
0.0627414
0.0632893
0.0637821
0.0642226
0.0646128
0.0649547
0.0652457
0.0654857
0.0656863
0.0658644
0.0660315
0.0661862
0.0663308
0.0664641
0.0665859
0.066698
0.0668005
0.0668905
0.0669649
0.0670239
0.0670586
0.0670574
0.0670455
0.0670235
0.0669933
0.0669608
0.0669255
0.0668872
0.066846
0.0668035
0.0667618
0.0667204
0.0666789
0.0666385
0.0665908
0.0665317
0.0664598
0.0663708
0.0662562
0.0661409
0.0660286
0.065904
0.065768
0.065634
0.0654971
0.0653504
0.0652071
0.065057
0.0648938
0.0647353
0.0645815
0.0644035
0.0642158
0.0640394
0.0638728
0.0636754
0.0634579
0.0632532
0.0630487
0.0628541
0.0626176
0.0623601
0.0621248
0.0618945
0.0616602
0.0614485
0.0612207
0.0609472
0.0606826
0.0604226
0.0601874
0.0599114
0.0596259
0.0593575
0.0591059
0.0588232
0.0585048
0.058185
0.0578617
0.057533
0.0572013
0.0568621
0.0565339
0.0257724
0.02693
0.0281349
0.0293779
0.0306552
0.0319723
0.033339
0.0347521
0.0362004
0.0376702
0.0391481
0.0406218
0.04208
0.0435124
0.0449104
0.0462742
0.0476387
0.049063
0.0505212
0.0519801
0.0534113
0.054793
0.0561091
0.0573483
0.0585023
0.0595642
0.060533
0.0614123
0.0622061
0.0629129
0.0635452
0.0641122
0.0646205
0.065075
0.0654785
0.0658334
0.0661402
0.0663956
0.0666059
0.0667894
0.0669567
0.0671119
0.0672577
0.0673935
0.0675214
0.0676415
0.0677534
0.0678562
0.0679478
0.068025
0.0680793
0.068108
0.0681223
0.0681253
0.0681239
0.0681221
0.0681159
0.0681104
0.0681074
0.0681078
0.0681108
0.0681181
0.0681317
0.0681511
0.0681542
0.0681441
0.0681158
0.0680721
0.0680174
0.0679574
0.0678939
0.0678279
0.06776
0.0676916
0.0676244
0.0675609
0.0675024
0.0674392
0.0673687
0.0672961
0.0672017
0.0670833
0.0669665
0.0668463
0.0667093
0.0665627
0.0664243
0.0662796
0.0661216
0.0659733
0.0658216
0.0656527
0.0654917
0.0653385
0.0651634
0.0649787
0.0648063
0.0646407
0.0644408
0.0642392
0.0640483
0.0638587
0.0636787
0.0634509
0.0632141
0.0629955
0.0627771
0.062558
0.0623646
0.0621604
0.0619149
0.0616665
0.0614211
0.0611891
0.060946
0.0606894
0.0604342
0.0602057
0.0599624
0.0596803
0.0594018
0.059116
0.0588215
0.0585286
0.0582302
0.0579463
0.0576647
0.0573599
0.0412113
0.0428047
0.0443707
0.0459005
0.047393
0.0488776
0.050401
0.0519406
0.0534672
0.0549546
0.0563819
0.0577336
0.0589992
0.060171
0.061244
0.0622157
0.0630865
0.0638563
0.0645387
0.0651453
0.0656849
0.0661641
0.0665873
0.0669581
0.0672776
0.0675431
0.0677603
0.0679456
0.0681112
0.0682628
0.0684034
0.0685345
0.0686568
0.0687704
0.0688754
0.0689708
0.0690527
0.0691144
0.0691506
0.0691683
0.0691767
0.0691825
0.0691834
0.0691829
0.0691834
0.0691854
0.0691908
0.0692007
0.0692153
0.0692387
0.0692705
0.0693033
0.0693194
0.0693132
0.0692958
0.0692706
0.0692383
0.0692019
0.0691655
0.069131
0.0690987
0.0690727
0.0690549
0.0690431
0.0690284
0.069007
0.0689711
0.0689192
0.068855
0.0687818
0.0687029
0.0686204
0.0685359
0.0684505
0.0683649
0.0682823
0.0682044
0.0681269
0.0680563
0.0679843
0.0678898
0.0677883
0.0676927
0.0675818
0.0674497
0.0673178
0.0671903
0.0670479
0.0668952
0.0667556
0.066609
0.0664431
0.0662863
0.0661366
0.0659675
0.0657884
0.0656218
0.0654545
0.0652582
0.0650713
0.06489
0.0647123
0.0645361
0.0643126
0.0640942
0.0638872
0.0636768
0.0634617
0.0632664
0.0630714
0.0628456
0.0626035
0.0623579
0.0621165
0.0618779
0.061631
0.0613803
0.0611397
0.0608951
0.0606361
0.0603699
0.0601027
0.0598311
0.0595687
0.0593124
0.0590543
0.0587977
0.0585315
0.058065
0.059461
0.0607593
0.061954
0.0630396
0.0640107
0.0648657
0.0656177
0.0662794
0.0668625
0.0673758
0.0678263
0.0682189
0.0685565
0.0688375
0.0690654
0.0692567
0.0694251
0.0695778
0.0697183
0.069848
0.0699672
0.0700763
0.0701752
0.0702601
0.0703246
0.070361
0.070377
0.0703846
0.0703889
0.0703889
0.070388
0.0703873
0.0703886
0.0703931
0.0704011
0.0704164
0.0704415
0.0704738
0.0704999
0.0705
0.0704907
0.0704702
0.0704425
0.0704117
0.0703802
0.0703499
0.0703209
0.0702972
0.0702823
0.0702797
0.0702815
0.0702796
0.070267
0.0702421
0.0702041
0.0701576
0.0701061
0.0700521
0.0699976
0.0699445
0.0698949
0.0698507
0.069816
0.0697884
0.0697625
0.0697334
0.069695
0.0696449
0.069584
0.0695149
0.0694395
0.0693594
0.0692757
0.0691897
0.0691033
0.0690165
0.0689327
0.0688575
0.0687779
0.068682
0.0685961
0.0685079
0.0683994
0.068274
0.0681584
0.0680367
0.067895
0.067752
0.0676206
0.0674778
0.0673154
0.0671656
0.0670206
0.0668571
0.0666828
0.0665228
0.0663565
0.0661673
0.0659905
0.0658178
0.0656546
0.0654692
0.0652579
0.0650591
0.0648635
0.0646623
0.0644521
0.0642531
0.0640625
0.0638548
0.0636199
0.0633801
0.0631359
0.0628944
0.0626535
0.0624089
0.0621633
0.0619152
0.0616615
0.0614023
0.0611396
0.0608748
0.0606142
0.0603562
0.0600955
0.0598312
0.0595608
0.0687257
0.069204
0.0696174
0.0699712
0.0702647
0.0705004
0.0706956
0.0708655
0.0710177
0.0711564
0.0712823
0.0713965
0.0714992
0.0715879
0.0716563
0.071695
0.0717107
0.0717179
0.0717225
0.0717245
0.0717242
0.071725
0.071727
0.0717322
0.0717435
0.0717648
0.0717951
0.0718207
0.0718207
0.0718103
0.0717887
0.0717593
0.0717258
0.0716936
0.0716608
0.0716295
0.0716044
0.0715908
0.0715869
0.0715862
0.0715776
0.0715581
0.0715277
0.0714881
0.0714414
0.0713923
0.0713429
0.0712945
0.0712485
0.0712074
0.0711777
0.0711585
0.0711459
0.0711334
0.0711185
0.0710952
0.0710622
0.0710213
0.0709745