/*--------------------------------*- C++ -*----------------------------------*\
| =========                 |                                                 |
| \\      /  F ield         | OpenFOAM: The Open Source CFD Toolbox           |
|  \\    /   O peration     | Version:  v1706                                 |
|   \\  /    A nd           | Web:      www.OpenFOAM.com                      |
|    \\/     M anipulation  |                                                 |
\*---------------------------------------------------------------------------*/
FoamFile
{
    version     2.0;
    format      ascii;
    class       volScalarField;
    location    "1.3e-05";
    object      mu;
}
// * * * * * * * * * * * * * * * * * * * * * * * * * * * * * * * * * * * * * //

dimensions      [1 -1 -1 0 0 0 0];


internalField   nonuniform List<scalar> 
29871
(
1.0351e-05
1.0351e-05
1.0351e-05
1.0351e-05
1.0351e-05
1.0351e-05
1.0351e-05
1.0351e-05
1.0351e-05
1.0351e-05
1.0351e-05
1.0351e-05
1.0351e-05
1.0351e-05
1.0351e-05
1.0351e-05
1.0351e-05
1.0351e-05
1.0351e-05
1.0351e-05
1.0351e-05
1.0351e-05
1.0351e-05
1.0351e-05
1.0351e-05
1.0351e-05
1.0351e-05
1.0351e-05
1.0351e-05
1.0351e-05
1.0351e-05
1.0351e-05
1.0351e-05
1.0351e-05
1.0351e-05
1.0351e-05
1.0351e-05
1.0351e-05
1.0351e-05
1.0351e-05
1.0351e-05
1.0351e-05
1.0351e-05
1.0351e-05
1.0351e-05
1.0351e-05
1.0351e-05
1.0351e-05
1.0351e-05
1.0351e-05
1.0351e-05
1.0351e-05
1.0351e-05
1.0351e-05
1.0351e-05
1.0351e-05
1.0351e-05
1.0351e-05
1.0351e-05
1.0351e-05
1.0351e-05
1.0351e-05
1.0351e-05
1.0351e-05
1.0351e-05
1.0351e-05
1.0351e-05
1.0351e-05
1.0351e-05
1.0351e-05
1.0351e-05
1.0351e-05
1.0351e-05
1.0351e-05
1.0351e-05
1.0351e-05
1.0351e-05
1.0351e-05
1.0351e-05
1.0351e-05
1.0351e-05
1.0351e-05
1.0351e-05
1.0351e-05
1.0351e-05
1.0351e-05
1.0351e-05
1.0351e-05
1.0351e-05
1.0351e-05
1.0351e-05
1.0351e-05
1.0351e-05
1.0351e-05
1.0351e-05
1.0351e-05
1.0351e-05
1.0351e-05
1.0351e-05
1.0351e-05
1.0351e-05
1.0351e-05
1.0351e-05
1.0351e-05
1.0351e-05
1.0351e-05
1.0351e-05
1.0351e-05
1.0351e-05
1.0351e-05
1.0351e-05
1.0351e-05
1.0351e-05
1.0351e-05
1.0351e-05
1.0351e-05
1.0351e-05
1.0351e-05
1.0351e-05
1.0351e-05
1.0351e-05
1.0351e-05
1.0351e-05
1.0351e-05
1.0351e-05
1.0351e-05
1.0351e-05
1.0351e-05
1.0351e-05
1.0351e-05
1.0351e-05
1.0351e-05
1.0351e-05
1.0351e-05
1.0351e-05
1.0351e-05
1.0351e-05
1.0351e-05
1.0351e-05
1.0351e-05
1.0351e-05
1.0351e-05
1.0351e-05
1.0351e-05
1.0351e-05
1.0351e-05
1.0351e-05
1.0351e-05
1.0351e-05
1.0351e-05
1.0351e-05
1.0351e-05
1.0351e-05
1.0351e-05
1.0351e-05
1.0351e-05
1.0351e-05
1.0351e-05
1.0351e-05
1.0351e-05
1.0351e-05
1.0351e-05
1.0351e-05
1.0351e-05
1.0351e-05
1.0351e-05
1.0351e-05
1.0351e-05
1.0351e-05
1.0351e-05
1.0351e-05
1.0351e-05
1.0351e-05
1.0351e-05
1.0351e-05
1.0351e-05
1.0351e-05
1.0351e-05
1.0351e-05
1.0351e-05
1.0351e-05
1.0351e-05
1.0351e-05
1.0351e-05
1.0351e-05
1.0351e-05
1.0351e-05
1.0351e-05
1.0351e-05
1.0351e-05
1.0351e-05
1.0351e-05
1.0351e-05
1.0351e-05
1.0351e-05
1.0351e-05
1.0351e-05
1.0351e-05
1.0351e-05
1.0351e-05
1.0351e-05
1.0351e-05
1.0351e-05
1.0351e-05
1.0351e-05
1.0351e-05
1.0351e-05
1.0351e-05
1.0351e-05
1.0351e-05
1.0351e-05
1.0351e-05
1.0351e-05
1.0351e-05
1.0351e-05
1.0351e-05
1.0351e-05
1.0351e-05
1.0351e-05
1.0351e-05
1.0351e-05
1.0351e-05
1.0351e-05
1.0351e-05
1.0351e-05
1.0351e-05
1.0351e-05
1.0351e-05
1.0351e-05
1.0351e-05
1.0351e-05
1.0351e-05
1.0351e-05
1.0351e-05
1.0351e-05
1.0351e-05
1.0351e-05
1.0351e-05
1.0351e-05
1.0351e-05
1.0351e-05
1.0351e-05
1.0351e-05
1.0351e-05
1.0351e-05
1.0351e-05
1.0351e-05
1.0351e-05
1.0351e-05
1.0351e-05
1.0351e-05
1.0351e-05
1.0351e-05
1.0351e-05
1.0351e-05
1.0351e-05
1.0351e-05
1.0351e-05
1.0351e-05
1.0351e-05
1.0351e-05
1.0351e-05
1.0351e-05
1.0351e-05
1.0351e-05
1.0351e-05
1.0351e-05
1.0351e-05
1.0351e-05
1.0351e-05
1.0351e-05
1.0351e-05
1.0351e-05
1.0351e-05
1.0351e-05
1.0351e-05
1.0351e-05
1.0351e-05
1.0351e-05
1.0351e-05
1.0351e-05
1.0351e-05
1.0351e-05
1.0351e-05
1.0351e-05
1.0351e-05
1.0351e-05
1.0351e-05
1.0351e-05
1.0351e-05
1.0351e-05
1.0351e-05
1.0351e-05
1.0351e-05
1.0351e-05
1.0351e-05
1.0351e-05
1.0351e-05
1.0351e-05
1.0351e-05
1.0351e-05
1.0351e-05
1.0351e-05
1.0351e-05
1.0351e-05
1.0351e-05
1.0351e-05
1.0351e-05
1.0351e-05
1.0351e-05
1.0351e-05
1.0351e-05
1.0351e-05
1.0351e-05
1.0351e-05
1.0351e-05
1.0351e-05
1.0351e-05
1.0351e-05
1.0351e-05
1.0351e-05
1.0351e-05
1.0351e-05
1.0351e-05
1.0351e-05
1.0351e-05
1.0351e-05
1.0351e-05
1.0351e-05
1.0351e-05
1.0351e-05
1.0351e-05
1.0351e-05
1.0351e-05
1.0351e-05
1.0351e-05
1.0351e-05
1.0351e-05
1.0351e-05
1.0351e-05
1.0351e-05
1.0351e-05
1.0351e-05
1.0351e-05
1.0351e-05
1.0351e-05
1.0351e-05
1.0351e-05
1.0351e-05
1.0351e-05
1.0351e-05
1.0351e-05
1.0351e-05
1.0351e-05
1.0351e-05
1.0351e-05
1.0351e-05
1.0351e-05
1.0351e-05
1.0351e-05
1.0351e-05
1.0351e-05
1.0351e-05
1.0351e-05
1.0351e-05
1.0351e-05
1.0351e-05
1.0351e-05
1.0351e-05
1.0351e-05
1.0351e-05
1.0351e-05
1.0351e-05
1.0351e-05
1.0351e-05
1.0351e-05
1.0351e-05
1.0351e-05
1.0351e-05
1.0351e-05
1.0351e-05
1.0351e-05
1.0351e-05
1.0351e-05
1.0351e-05
1.0351e-05
1.0351e-05
1.0351e-05
1.0351e-05
1.0351e-05
1.0351e-05
1.0351e-05
1.0351e-05
1.0351e-05
1.0351e-05
1.0351e-05
1.0351e-05
1.0351e-05
1.0351e-05
1.0351e-05
1.0351e-05
1.0351e-05
1.0351e-05
1.0351e-05
1.0351e-05
1.0351e-05
1.0351e-05
1.0351e-05
1.0351e-05
1.0351e-05
1.0351e-05
1.0351e-05
1.0351e-05
1.0351e-05
1.0351e-05
1.0351e-05
1.0351e-05
1.0351e-05
1.0351e-05
1.0351e-05
1.0351e-05
1.0351e-05
1.0351e-05
1.0351e-05
1.0351e-05
1.0351e-05
1.0351e-05
1.0351e-05
1.0351e-05
1.0351e-05
1.0351e-05
1.0351e-05
1.0351e-05
1.0351e-05
1.0351e-05
1.0351e-05
1.0351e-05
1.0351e-05
1.0351e-05
1.0351e-05
1.0351e-05
1.0351e-05
1.0351e-05
1.0351e-05
1.0351e-05
1.0351e-05
1.0351e-05
1.0351e-05
1.0351e-05
1.0351e-05
1.0351e-05
1.0351e-05
1.0351e-05
1.0351e-05
1.0351e-05
1.0351e-05
1.0351e-05
1.0351e-05
1.0351e-05
1.0351e-05
1.0351e-05
1.0351e-05
1.0351e-05
1.0351e-05
1.0351e-05
1.0351e-05
1.0351e-05
1.0351e-05
1.0351e-05
1.0351e-05
1.0351e-05
1.0351e-05
1.0351e-05
1.0351e-05
1.0351e-05
1.0351e-05
1.0351e-05
1.0351e-05
1.0351e-05
1.0351e-05
1.0351e-05
1.0351e-05
1.0351e-05
1.0351e-05
1.0351e-05
1.0351e-05
1.0351e-05
1.0351e-05
1.0351e-05
1.0351e-05
1.0351e-05
1.0351e-05
1.0351e-05
1.0351e-05
1.0351e-05
1.0351e-05
1.0351e-05
1.0351e-05
1.0351e-05
1.0351e-05
1.0351e-05
1.0351e-05
1.0351e-05
1.0351e-05
1.0351e-05
1.0351e-05
1.0351e-05
1.0351e-05
1.0351e-05
1.0351e-05
1.0351e-05
1.0351e-05
1.0351e-05
1.0351e-05
1.0351e-05
1.0351e-05
1.0351e-05
1.0351e-05
1.0351e-05
1.0351e-05
1.0351e-05
1.0351e-05
1.0351e-05
1.0351e-05
1.0351e-05
1.0351e-05
1.0351e-05
1.0351e-05
1.0351e-05
1.0351e-05
1.0351e-05
1.0351e-05
1.0351e-05
1.0351e-05
1.0351e-05
1.0351e-05
1.0351e-05
1.0351e-05
1.0351e-05
1.0351e-05
1.0351e-05
1.0351e-05
1.0351e-05
1.0351e-05
1.0351e-05
1.0351e-05
1.0351e-05
1.0351e-05
1.0351e-05
1.0351e-05
1.0351e-05
1.0351e-05
1.0351e-05
1.0351e-05
1.0351e-05
1.0351e-05
1.0351e-05
1.0351e-05
1.0351e-05
1.0351e-05
1.0351e-05
1.0351e-05
1.0351e-05
1.0351e-05
1.0351e-05
1.0351e-05
1.0351e-05
1.0351e-05
1.0351e-05
1.0351e-05
1.0351e-05
1.0351e-05
1.0351e-05
1.0351e-05
1.0351e-05
1.0351e-05
1.0351e-05
1.0351e-05
1.0351e-05
1.0351e-05
1.0351e-05
1.0351e-05
1.0351e-05
1.0351e-05
1.0351e-05
1.0351e-05
1.0351e-05
1.0351e-05
1.0351e-05
1.0351e-05
1.0351e-05
1.0351e-05
1.0351e-05
1.0351e-05
1.0351e-05
1.0351e-05
1.0351e-05
1.0351e-05
1.0351e-05
1.0351e-05
1.0351e-05
1.0351e-05
1.0351e-05
1.0351e-05
1.0351e-05
1.0351e-05
1.0351e-05
1.0351e-05
1.0351e-05
1.0351e-05
1.0351e-05
1.0351e-05
1.0351e-05
1.0351e-05
1.0351e-05
1.0351e-05
1.0351e-05
1.0351e-05
1.0351e-05
1.0351e-05
1.0351e-05
1.0351e-05
1.0351e-05
1.0351e-05
1.0351e-05
1.0351e-05
1.0351e-05
1.0351e-05
1.0351e-05
1.0351e-05
1.0351e-05
1.0351e-05
1.0351e-05
1.0351e-05
1.0351e-05
1.0351e-05
1.0351e-05
1.0351e-05
1.0351e-05
1.0351e-05
1.0351e-05
1.0351e-05
1.0351e-05
1.0351e-05
1.0351e-05
1.0351e-05
1.0351e-05
1.0351e-05
1.0351e-05
1.0351e-05
1.0351e-05
1.0351e-05
1.0351e-05
1.0351e-05
1.0351e-05
1.0351e-05
1.0351e-05
1.0351e-05
1.0351e-05
1.0351e-05
1.0351e-05
1.0351e-05
1.0351e-05
1.0351e-05
1.0351e-05
1.0351e-05
1.0351e-05
1.0351e-05
1.0351e-05
1.0351e-05
1.0351e-05
1.0351e-05
1.0351e-05
1.0351e-05
1.0351e-05
1.0351e-05
1.0351e-05
1.0351e-05
1.0351e-05
1.0351e-05
1.0351e-05
1.0351e-05
1.0351e-05
1.0351e-05
1.0351e-05
1.0351e-05
1.0351e-05
1.0351e-05
1.0351e-05
1.0351e-05
1.0351e-05
1.0351e-05
1.0351e-05
1.0351e-05
1.0351e-05
1.0351e-05
1.0351e-05
1.0351e-05
1.0351e-05
1.0351e-05
1.0351e-05
1.0351e-05
1.0351e-05
1.0351e-05
1.0351e-05
1.0351e-05
1.0351e-05
1.0351e-05
1.0351e-05
1.0351e-05
1.0351e-05
1.0351e-05
1.0351e-05
1.0351e-05
1.0351e-05
1.0351e-05
1.0351e-05
1.0351e-05
1.0351e-05
1.0351e-05
1.0351e-05
1.0351e-05
1.0351e-05
1.0351e-05
1.0351e-05
1.0351e-05
1.0351e-05
1.0351e-05
1.0351e-05
1.0351e-05
1.0351e-05
1.0351e-05
1.0351e-05
1.0351e-05
1.0351e-05
1.0351e-05
1.0351e-05
1.0351e-05
1.0351e-05
1.0351e-05
1.0351e-05
1.0351e-05
1.0351e-05
1.0351e-05
1.0351e-05
1.0351e-05
1.0351e-05
1.0351e-05
1.0351e-05
1.0351e-05
1.0351e-05
1.0351e-05
1.0351e-05
1.0351e-05
1.0351e-05
1.0351e-05
1.0351e-05
1.0351e-05
1.0351e-05
1.0351e-05
1.0351e-05
1.0351e-05
1.0351e-05
1.0351e-05
1.0351e-05
1.0351e-05
1.0351e-05
1.0351e-05
1.0351e-05
1.0351e-05
1.0351e-05
1.0351e-05
1.0351e-05
1.0351e-05
1.0351e-05
1.0351e-05
1.0351e-05
1.0351e-05
1.0351e-05
1.0351e-05
1.0351e-05
1.0351e-05
1.0351e-05
1.0351e-05
1.0351e-05
1.0351e-05
1.0351e-05
1.0351e-05
1.0351e-05
1.0351e-05
1.0351e-05
1.0351e-05
1.0351e-05
1.0351e-05
1.0351e-05
1.0351e-05
1.0351e-05
1.0351e-05
1.0351e-05
1.0351e-05
1.0351e-05
1.0351e-05
1.0351e-05
1.0351e-05
1.0351e-05
1.0351e-05
1.0351e-05
1.0351e-05
1.0351e-05
1.0351e-05
1.0351e-05
1.0351e-05
1.0351e-05
1.0351e-05
1.0351e-05
1.0351e-05
1.0351e-05
1.0351e-05
1.0351e-05
1.0351e-05
1.0351e-05
1.0351e-05
1.0351e-05
1.0351e-05
1.0351e-05
1.0351e-05
1.0351e-05
1.0351e-05
1.0351e-05
1.0351e-05
1.0351e-05
1.0351e-05
1.0351e-05
1.0351e-05
1.0351e-05
1.0351e-05
1.0351e-05
1.0351e-05
1.0351e-05
1.0351e-05
1.0351e-05
1.0351e-05
1.0351e-05
1.0351e-05
1.0351e-05
1.0351e-05
1.0351e-05
1.0351e-05
1.0351e-05
1.0351e-05
1.0351e-05
1.0351e-05
1.0351e-05
1.0351e-05
1.0351e-05
1.0351e-05
1.0351e-05
1.0351e-05
1.0351e-05
1.0351e-05
1.0351e-05
1.0351e-05
1.0351e-05
1.0351e-05
1.0351e-05
1.0351e-05
1.0351e-05
1.0351e-05
1.0351e-05
1.0351e-05
1.0351e-05
1.0351e-05
1.0351e-05
1.0351e-05
1.0351e-05
1.0351e-05
1.0351e-05
1.0351e-05
1.0351e-05
1.0351e-05
1.0351e-05
1.0351e-05
1.0351e-05
1.0351e-05
1.0351e-05
1.0351e-05
1.0351e-05
1.0351e-05
1.0351e-05
1.0351e-05
1.0351e-05
1.0351e-05
1.0351e-05
1.0351e-05
1.0351e-05
1.0351e-05
1.0351e-05
1.0351e-05
1.0351e-05
1.0351e-05
1.0351e-05
1.0351e-05
1.0351e-05
1.0351e-05
1.0351e-05
1.0351e-05
1.0351e-05
1.0351e-05
1.0351e-05
1.0351e-05
1.0351e-05
1.0351e-05
1.0351e-05
1.0351e-05
1.0351e-05
1.0351e-05
1.0351e-05
1.0351e-05
1.0351e-05
1.0351e-05
1.0351e-05
1.0351e-05
1.0351e-05
1.0351e-05
1.0351e-05
1.0351e-05
1.0351e-05
1.0351e-05
1.0351e-05
1.0351e-05
1.0351e-05
1.0351e-05
1.0351e-05
1.0351e-05
1.0351e-05
1.0351e-05
1.0351e-05
1.0351e-05
1.0351e-05
1.0351e-05
1.0351e-05
1.0351e-05
1.0351e-05
1.0351e-05
1.0351e-05
1.0351e-05
1.0351e-05
1.0351e-05
1.0351e-05
1.0351e-05
1.0351e-05
1.0351e-05
1.0351e-05
1.0351e-05
1.0351e-05
1.0351e-05
1.0351e-05
1.0351e-05
1.0351e-05
1.0351e-05
1.0351e-05
1.0351e-05
1.0351e-05
1.0351e-05
1.0351e-05
1.0351e-05
1.0351e-05
1.0351e-05
1.0351e-05
1.0351e-05
1.0351e-05
1.0351e-05
1.0351e-05
1.0351e-05
1.0351e-05
1.0351e-05
1.0351e-05
1.0351e-05
1.0351e-05
1.0351e-05
1.0351e-05
1.0351e-05
1.0351e-05
1.0351e-05
1.0351e-05
1.0351e-05
1.0351e-05
1.0351e-05
1.0351e-05
1.0351e-05
1.0351e-05
1.0351e-05
1.0351e-05
1.0351e-05
1.0351e-05
1.0351e-05
1.0351e-05
1.0351e-05
1.0351e-05
1.0351e-05
1.0351e-05
1.0351e-05
1.0351e-05
1.0351e-05
1.0351e-05
1.0351e-05
1.0351e-05
1.0351e-05
1.0351e-05
1.0351e-05
1.0351e-05
1.0351e-05
1.0351e-05
1.0351e-05
1.0351e-05
1.0351e-05
1.0351e-05
1.0351e-05
1.0351e-05
1.0351e-05
1.0351e-05
1.0351e-05
1.0351e-05
1.0351e-05
1.0351e-05
1.0351e-05
1.0351e-05
1.0351e-05
1.0351e-05
1.0351e-05
1.0351e-05
1.0351e-05
1.0351e-05
1.0351e-05
1.0351e-05
1.0351e-05
1.0351e-05
1.0351e-05
1.0351e-05
1.0351e-05
1.0351e-05
1.0351e-05
1.0351e-05
1.0351e-05
1.0351e-05
1.0351e-05
1.0351e-05
1.0351e-05
1.0351e-05
1.0351e-05
1.0351e-05
1.0351e-05
1.0351e-05
1.0351e-05
1.0351e-05
1.0351e-05
1.0351e-05
1.0351e-05
1.0351e-05
1.0351e-05
1.0351e-05
1.0351e-05
1.0351e-05
1.0351e-05
1.0351e-05
1.0351e-05
1.0351e-05
1.0351e-05
1.0351e-05
1.0351e-05
1.0351e-05
1.0351e-05
1.0351e-05
1.0351e-05
1.0351e-05
1.0351e-05
1.0351e-05
1.0351e-05
1.0351e-05
1.0351e-05
1.0351e-05
1.0351e-05
1.0351e-05
1.0351e-05
1.0351e-05
1.0351e-05
1.0351e-05
1.0351e-05
1.0351e-05
1.0351e-05
1.0351e-05
1.0351e-05
1.0351e-05
1.0351e-05
1.0351e-05
1.0351e-05
1.0351e-05
1.0351e-05
1.0351e-05
1.0351e-05
1.0351e-05
1.0351e-05
1.0351e-05
1.0351e-05
1.0351e-05
1.0351e-05
1.0351e-05
1.0351e-05
1.0351e-05
1.0351e-05
1.0351e-05
1.0351e-05
1.0351e-05
1.0351e-05
1.0351e-05
1.0351e-05
1.0351e-05
1.0351e-05
1.0351e-05
1.0351e-05
1.0351e-05
1.0351e-05
1.0351e-05
1.0351e-05
1.0351e-05
1.0351e-05
1.0351e-05
1.0351e-05
1.0351e-05
1.0351e-05
1.0351e-05
1.0351e-05
1.0351e-05
1.0351e-05
1.0351e-05
1.0351e-05
1.0351e-05
1.0351e-05
1.0351e-05
1.0351e-05
1.0351e-05
1.0351e-05
1.0351e-05
1.0351e-05
1.0351e-05
1.0351e-05
1.0351e-05
1.0351e-05
1.0351e-05
1.0351e-05
1.0351e-05
1.0351e-05
1.0351e-05
1.0351e-05
1.0351e-05
1.0351e-05
1.0351e-05
1.0351e-05
1.0351e-05
1.0351e-05
1.0351e-05
1.0351e-05
1.0351e-05
1.0351e-05
1.0351e-05
1.0351e-05
1.0351e-05
1.0351e-05
1.0351e-05
1.0351e-05
1.0351e-05
1.0351e-05
1.0351e-05
1.0351e-05
1.0351e-05
1.0351e-05
1.0351e-05
1.0351e-05
1.0351e-05
1.0351e-05
1.0351e-05
1.0351e-05
1.0351e-05
1.0351e-05
1.0351e-05
1.0351e-05
1.0351e-05
1.0351e-05
1.0351e-05
1.0351e-05
1.0351e-05
1.0351e-05
1.0351e-05
1.0351e-05
1.0351e-05
1.0351e-05
1.0351e-05
1.0351e-05
1.0351e-05
1.0351e-05
1.0351e-05
1.0351e-05
1.0351e-05
1.0351e-05
1.0351e-05
1.0351e-05
1.0351e-05
1.0351e-05
1.0351e-05
1.0351e-05
1.0351e-05
1.0351e-05
1.0351e-05
1.0351e-05
1.0351e-05
1.0351e-05
1.0351e-05
1.0351e-05
1.0351e-05
1.0351e-05
1.0351e-05
1.0351e-05
1.0351e-05
1.0351e-05
1.0351e-05
1.0351e-05
1.0351e-05
1.0351e-05
1.0351e-05
1.0351e-05
1.0351e-05
1.0351e-05
1.0351e-05
1.0351e-05
1.0351e-05
1.0351e-05
1.0351e-05
1.0351e-05
1.0351e-05
1.0351e-05
1.0351e-05
1.0351e-05
1.0351e-05
1.0351e-05
1.0351e-05
1.0351e-05
1.0351e-05
1.0351e-05
1.0351e-05
1.0351e-05
1.0351e-05
1.0351e-05
1.0351e-05
1.0351e-05
1.0351e-05
1.0351e-05
1.0351e-05
1.0351e-05
1.0351e-05
1.0351e-05
1.0351e-05
1.0351e-05
1.03511e-05
1.03511e-05
1.03511e-05
1.03511e-05
1.03511e-05
1.03511e-05
1.03511e-05
1.03511e-05
1.03511e-05
1.03511e-05
1.03511e-05
1.03511e-05
1.03511e-05
1.03511e-05
1.03511e-05
1.0351e-05
1.0351e-05
1.0351e-05
1.0351e-05
1.0351e-05
1.0351e-05
1.0351e-05
1.0351e-05
1.0351e-05
1.0351e-05
1.0351e-05
1.0351e-05
1.0351e-05
1.0351e-05
1.0351e-05
1.0351e-05
1.0351e-05
1.0351e-05
1.0351e-05
1.0351e-05
1.0351e-05
1.0351e-05
1.0351e-05
1.0351e-05
1.0351e-05
1.0351e-05
1.0351e-05
1.0351e-05
1.0351e-05
1.0351e-05
1.0351e-05
1.0351e-05
1.0351e-05
1.0351e-05
1.0351e-05
1.0351e-05
1.0351e-05
1.0351e-05
1.0351e-05
1.0351e-05
1.0351e-05
1.0351e-05
1.0351e-05
1.0351e-05
1.0351e-05
1.0351e-05
1.0351e-05
1.0351e-05
1.0351e-05
1.0351e-05
1.0351e-05
1.0351e-05
1.0351e-05
1.0351e-05
1.0351e-05
1.0351e-05
1.0351e-05
1.0351e-05
1.0351e-05
1.0351e-05
1.0351e-05
1.0351e-05
1.0351e-05
1.0351e-05
1.0351e-05
1.0351e-05
1.0351e-05
1.0351e-05
1.0351e-05
1.0351e-05
1.0351e-05
1.0351e-05
1.0351e-05
1.03511e-05
1.03511e-05
1.03511e-05
1.03511e-05
1.03511e-05
1.03511e-05
1.03511e-05
1.03511e-05
1.03511e-05
1.03511e-05
1.03511e-05
1.03512e-05
1.03512e-05
1.03512e-05
1.03512e-05
1.03512e-05
1.03513e-05
1.03513e-05
1.03513e-05
1.03513e-05
1.03513e-05
1.03514e-05
1.03514e-05
1.03514e-05
1.03514e-05
1.03514e-05
1.03514e-05
1.03514e-05
1.03514e-05
1.03514e-05
1.03514e-05
1.03514e-05
1.03514e-05
1.03514e-05
1.03514e-05
1.03514e-05
1.03514e-05
1.03514e-05
1.03514e-05
1.03513e-05
1.03513e-05
1.03513e-05
1.03513e-05
1.03513e-05
1.03513e-05
1.03512e-05
1.03512e-05
1.03512e-05
1.03512e-05
1.03512e-05
1.03511e-05
1.03511e-05
1.03511e-05
1.03511e-05
1.03511e-05
1.03511e-05
1.03511e-05
1.0351e-05
1.0351e-05
1.0351e-05
1.0351e-05
1.0351e-05
1.0351e-05
1.0351e-05
1.0351e-05
1.0351e-05
1.0351e-05
1.0351e-05
1.0351e-05
1.0351e-05
1.0351e-05
1.0351e-05
1.0351e-05
1.0351e-05
1.0351e-05
1.0351e-05
1.0351e-05
1.0351e-05
1.0351e-05
1.0351e-05
1.0351e-05
1.0351e-05
1.0351e-05
1.0351e-05
1.0351e-05
1.0351e-05
1.0351e-05
1.0351e-05
1.0351e-05
1.0351e-05
1.0351e-05
1.0351e-05
1.0351e-05
1.0351e-05
1.0351e-05
1.0351e-05
1.03511e-05
1.03511e-05
1.03511e-05
1.03511e-05
1.03511e-05
1.03511e-05
1.03511e-05
1.03511e-05
1.03511e-05
1.03512e-05
1.03512e-05
1.03512e-05
1.03512e-05
1.03512e-05
1.03513e-05
1.03513e-05
1.03514e-05
1.03514e-05
1.03514e-05
1.03515e-05
1.03516e-05
1.03516e-05
1.03517e-05
1.03518e-05
1.03518e-05
1.03519e-05
1.0352e-05
1.03521e-05
1.03522e-05
1.03524e-05
1.03525e-05
1.03526e-05
1.03528e-05
1.0353e-05
1.03531e-05
1.03533e-05
1.03534e-05
1.03536e-05
1.03537e-05
1.03538e-05
1.03539e-05
1.0354e-05
1.03541e-05
1.03542e-05
1.03543e-05
1.03543e-05
1.03543e-05
1.03543e-05
1.03543e-05
1.03543e-05
1.03542e-05
1.03542e-05
1.03541e-05
1.0354e-05
1.03539e-05
1.03538e-05
1.03536e-05
1.03535e-05
1.03533e-05
1.03532e-05
1.0353e-05
1.03529e-05
1.03527e-05
1.03526e-05
1.03524e-05
1.03523e-05
1.03521e-05
1.0352e-05
1.03519e-05
1.03518e-05
1.03516e-05
1.03515e-05
1.03515e-05
1.03514e-05
1.03513e-05
1.03513e-05
1.03512e-05
1.0351e-05
1.0351e-05
1.0351e-05
1.0351e-05
1.0351e-05
1.0351e-05
1.0351e-05
1.0351e-05
1.0351e-05
1.0351e-05
1.0351e-05
1.0351e-05
1.0351e-05
1.0351e-05
1.0351e-05
1.0351e-05
1.0351e-05
1.0351e-05
1.0351e-05
1.0351e-05
1.0351e-05
1.0351e-05
1.03511e-05
1.03511e-05
1.03511e-05
1.03511e-05
1.03511e-05
1.03511e-05
1.03511e-05
1.03511e-05
1.03511e-05
1.03512e-05
1.03512e-05
1.03512e-05
1.03512e-05
1.03513e-05
1.03513e-05
1.03513e-05
1.03514e-05
1.03514e-05
1.03515e-05
1.03515e-05
1.03516e-05
1.03517e-05
1.03518e-05
1.03519e-05
1.0352e-05
1.03521e-05
1.03523e-05
1.03524e-05
1.03526e-05
1.03528e-05
1.0353e-05
1.03533e-05
1.03536e-05
1.03539e-05
1.03543e-05
1.03547e-05
1.03551e-05
1.03556e-05
1.03561e-05
1.03566e-05
1.03572e-05
1.03578e-05
1.03585e-05
1.03593e-05
1.03602e-05
1.03612e-05
1.03622e-05
1.03633e-05
1.03644e-05
1.03656e-05
1.03668e-05
1.03679e-05
1.0369e-05
1.03701e-05
1.03711e-05
1.0372e-05
1.03728e-05
1.03736e-05
1.03742e-05
1.03748e-05
1.03752e-05
1.03755e-05
1.03756e-05
1.03756e-05
1.03755e-05
1.03753e-05
1.03749e-05
1.03744e-05
1.03738e-05
1.03731e-05
1.03723e-05
1.03714e-05
1.03704e-05
1.03694e-05
1.03683e-05
1.03672e-05
1.0366e-05
1.03649e-05
1.03638e-05
1.03626e-05
1.03615e-05
1.03604e-05
1.03594e-05
1.03583e-05
1.03574e-05
1.03565e-05
1.03557e-05
1.03549e-05
1.03543e-05
1.03538e-05
1.03533e-05
1.03529e-05
1.03526e-05
1.0351e-05
1.0351e-05
1.0351e-05
1.0351e-05
1.0351e-05
1.0351e-05
1.0351e-05
1.03511e-05
1.03511e-05
1.03511e-05
1.03511e-05
1.03511e-05
1.03511e-05
1.03511e-05
1.03511e-05
1.03512e-05
1.03512e-05
1.03512e-05
1.03512e-05
1.03513e-05
1.03513e-05
1.03513e-05
1.03514e-05
1.03514e-05
1.03515e-05
1.03516e-05
1.03516e-05
1.03517e-05
1.03518e-05
1.03519e-05
1.0352e-05
1.03522e-05
1.03523e-05
1.03525e-05
1.03527e-05
1.03529e-05
1.03531e-05
1.03534e-05
1.03537e-05
1.03541e-05
1.03545e-05
1.03549e-05
1.03554e-05
1.0356e-05
1.03567e-05
1.03574e-05
1.03582e-05
1.0359e-05
1.036e-05
1.03611e-05
1.03624e-05
1.03639e-05
1.03656e-05
1.03676e-05
1.03698e-05
1.03722e-05
1.03749e-05
1.03777e-05
1.03808e-05
1.03841e-05
1.03876e-05
1.03914e-05
1.03955e-05
1.04001e-05
1.04054e-05
1.04114e-05
1.0418e-05
1.04252e-05
1.04329e-05
1.04409e-05
1.04492e-05
1.04575e-05
1.04658e-05
1.0474e-05
1.04818e-05
1.04893e-05
1.04964e-05
1.05029e-05
1.05088e-05
1.05141e-05
1.05186e-05
1.05223e-05
1.05252e-05
1.05271e-05
1.05281e-05
1.05281e-05
1.05273e-05
1.05254e-05
1.05227e-05
1.05191e-05
1.05147e-05
1.05095e-05
1.05037e-05
1.04972e-05
1.04902e-05
1.04828e-05
1.04751e-05
1.04672e-05
1.04591e-05
1.04508e-05
1.04426e-05
1.04344e-05
1.04264e-05
1.04185e-05
1.04108e-05
1.04035e-05
1.03965e-05
1.03899e-05
1.0384e-05
1.03788e-05
1.03743e-05
1.03706e-05
1.03675e-05
1.03649e-05
1.03626e-05
1.03606e-05
1.0351e-05
1.03511e-05
1.03511e-05
1.03511e-05
1.03511e-05
1.03511e-05
1.03511e-05
1.03511e-05
1.03511e-05
1.03512e-05
1.03512e-05
1.03512e-05
1.03513e-05
1.03513e-05
1.03514e-05
1.03514e-05
1.03515e-05
1.03515e-05
1.03516e-05
1.03517e-05
1.03518e-05
1.03519e-05
1.03521e-05
1.03522e-05
1.03524e-05
1.03526e-05
1.03528e-05
1.0353e-05
1.03533e-05
1.03536e-05
1.0354e-05
1.03544e-05
1.03548e-05
1.03553e-05
1.03559e-05
1.03566e-05
1.03573e-05
1.03582e-05
1.03591e-05
1.03602e-05
1.03613e-05
1.03626e-05
1.03641e-05
1.03657e-05
1.03676e-05
1.03699e-05
1.03724e-05
1.03753e-05
1.03785e-05
1.03822e-05
1.03862e-05
1.03907e-05
1.03956e-05
1.04011e-05
1.04071e-05
1.0414e-05
1.04219e-05
1.04312e-05
1.04418e-05
1.04541e-05
1.0468e-05
1.04835e-05
1.05006e-05
1.05192e-05
1.05392e-05
1.05604e-05
1.05829e-05
1.06067e-05
1.06324e-05
1.06609e-05
1.06933e-05
1.07301e-05
1.07715e-05
1.08171e-05
1.08663e-05
1.09182e-05
1.09718e-05
1.10261e-05
1.10802e-05
1.11335e-05
1.11852e-05
1.12349e-05
1.1282e-05
1.1326e-05
1.13665e-05
1.1403e-05
1.14353e-05
1.14629e-05
1.14853e-05
1.15023e-05
1.15136e-05
1.1519e-05
1.15188e-05
1.15131e-05
1.15015e-05
1.14841e-05
1.14614e-05
1.14337e-05
1.14013e-05
1.13645e-05
1.13237e-05
1.12793e-05
1.12322e-05
1.11829e-05
1.11318e-05
1.10794e-05
1.10259e-05
1.09719e-05
1.09177e-05
1.0864e-05
1.08112e-05
1.07596e-05
1.07096e-05
1.06617e-05
1.06169e-05
1.05764e-05
1.05413e-05
1.05116e-05
1.04868e-05
1.04659e-05
1.0448e-05
1.04321e-05
1.0418e-05
1.03513e-05
1.03513e-05
1.03514e-05
1.03515e-05
1.03515e-05
1.03516e-05
1.03517e-05
1.03519e-05
1.0352e-05
1.03522e-05
1.03523e-05
1.03525e-05
1.03528e-05
1.03531e-05
1.03534e-05
1.03537e-05
1.03542e-05
1.03546e-05
1.03551e-05
1.03558e-05
1.03565e-05
1.03572e-05
1.03582e-05
1.03592e-05
1.03604e-05
1.03617e-05
1.03631e-05
1.03648e-05
1.03666e-05
1.03687e-05
1.03711e-05
1.03738e-05
1.03769e-05
1.03804e-05
1.03844e-05
1.0389e-05
1.03941e-05
1.03998e-05
1.04061e-05
1.04131e-05
1.04208e-05
1.04295e-05
1.04394e-05
1.04508e-05
1.04639e-05
1.04791e-05
1.04964e-05
1.05161e-05
1.05382e-05
1.05629e-05
1.05901e-05
1.06199e-05
1.06524e-05
1.0688e-05
1.07278e-05
1.07733e-05
1.0826e-05
1.08871e-05
1.09574e-05
1.10371e-05
1.11262e-05
1.12242e-05
1.13302e-05
1.14434e-05
1.15628e-05
1.16877e-05
1.18176e-05
1.19532e-05
1.20981e-05
1.2259e-05
1.24413e-05
1.26462e-05
1.28714e-05
1.31122e-05
1.33632e-05
1.36191e-05
1.38748e-05
1.41258e-05
1.43688e-05
1.46015e-05
1.48224e-05
1.50301e-05
1.52231e-05
1.54002e-05
1.55604e-05
1.5703e-05
1.5827e-05
1.59314e-05
1.60151e-05
1.60768e-05
1.61168e-05
1.61332e-05
1.61302e-05
1.61064e-05
1.60589e-05
1.59894e-05
1.58992e-05
1.57894e-05
1.56609e-05
1.55137e-05
1.53479e-05
1.51651e-05
1.49679e-05
1.47583e-05
1.45372e-05
1.43053e-05
1.40633e-05
1.38123e-05
1.35544e-05
1.32917e-05
1.3026e-05
1.2759e-05
1.24925e-05
1.22299e-05
1.19777e-05
1.17466e-05
1.15449e-05
1.13736e-05
1.12281e-05
1.11024e-05
1.09912e-05
1.08907e-05
1.07989e-05
1.03529e-05
1.03532e-05
1.03536e-05
1.03541e-05
1.03546e-05
1.03552e-05
1.03558e-05
1.03566e-05
1.03575e-05
1.03586e-05
1.03598e-05
1.03612e-05
1.03628e-05
1.03646e-05
1.03667e-05
1.03691e-05
1.03717e-05
1.03748e-05
1.03783e-05
1.03823e-05
1.03869e-05
1.03921e-05
1.03981e-05
1.04049e-05
1.04126e-05
1.04211e-05
1.04307e-05
1.04414e-05
1.04535e-05
1.04671e-05
1.04827e-05
1.05005e-05
1.05209e-05
1.05441e-05
1.05704e-05
1.06e-05
1.0633e-05
1.06695e-05
1.07097e-05
1.07537e-05
1.08025e-05
1.08572e-05
1.09196e-05
1.09912e-05
1.10733e-05
1.11669e-05
1.12726e-05
1.13907e-05
1.15211e-05
1.16635e-05
1.18174e-05
1.19821e-05
1.21579e-05
1.23469e-05
1.25555e-05
1.27919e-05
1.30621e-05
1.33679e-05
1.37081e-05
1.40793e-05
1.44766e-05
1.48945e-05
1.53269e-05
1.57682e-05
1.62143e-05
1.6662e-05
1.71101e-05
1.7562e-05
1.80312e-05
1.85461e-05
1.91148e-05
1.97266e-05
2.03636e-05
2.10079e-05
2.16442e-05
2.22607e-05
2.28485e-05
2.34014e-05
2.39166e-05
2.43942e-05
2.48353e-05
2.52403e-05
2.56078e-05
2.59376e-05
2.62302e-05
2.64859e-05
2.67043e-05
2.68849e-05
2.70273e-05
2.71273e-05
2.7188e-05
2.72084e-05
2.71986e-05
2.71494e-05
2.70547e-05
2.6922e-05
2.67526e-05
2.65476e-05
2.63071e-05
2.60284e-05
2.5709e-05
2.53504e-05
2.4957e-05
2.45307e-05
2.407e-05
2.35734e-05
2.3039e-05
2.24651e-05
2.18527e-05
2.12034e-05
2.05176e-05
1.97942e-05
1.90334e-05
1.82415e-05
1.74381e-05
1.66722e-05
1.59817e-05
1.53691e-05
1.48177e-05
1.43083e-05
1.38264e-05
1.33626e-05
1.29126e-05
1.03632e-05
1.03654e-05
1.03678e-05
1.03707e-05
1.03739e-05
1.03777e-05
1.03821e-05
1.03872e-05
1.0393e-05
1.03998e-05
1.04075e-05
1.04165e-05
1.04267e-05
1.04383e-05
1.04515e-05
1.04664e-05
1.04833e-05
1.05027e-05
1.05248e-05
1.05502e-05
1.05793e-05
1.06124e-05
1.06499e-05
1.06922e-05
1.07395e-05
1.0792e-05
1.08502e-05
1.09147e-05
1.09869e-05
1.10685e-05
1.11612e-05
1.12663e-05
1.13849e-05
1.15179e-05
1.16656e-05
1.18283e-05
1.20057e-05
1.21972e-05
1.24026e-05
1.26225e-05
1.28605e-05
1.31237e-05
1.34188e-05
1.37499e-05
1.4118e-05
1.45221e-05
1.49597e-05
1.54271e-05
1.59195e-05
1.6432e-05
1.69594e-05
1.74981e-05
1.80475e-05
1.86153e-05
1.92245e-05
1.98969e-05
2.06336e-05
2.14227e-05
2.2249e-05
2.30966e-05
2.39511e-05
2.47988e-05
2.56285e-05
2.64326e-05
2.72079e-05
2.79536e-05
2.86714e-05
2.93691e-05
3.00711e-05
3.0876e-05
3.17617e-05
3.26709e-05
3.35618e-05
3.44074e-05
3.51924e-05
3.59095e-05
3.65571e-05
3.71364e-05
3.76516e-05
3.81099e-05
3.85183e-05
3.88796e-05
3.91924e-05
3.94587e-05
3.96821e-05
3.98645e-05
4.00081e-05
4.0115e-05
4.01889e-05
4.02142e-05
4.02044e-05
4.01776e-05
4.01238e-05
4.00336e-05
3.99126e-05
3.97588e-05
3.9575e-05
3.93677e-05
3.91413e-05
3.8886e-05
3.85922e-05
3.82548e-05
3.78831e-05
3.7477e-05
3.7029e-05
3.65359e-05
3.59911e-05
3.53806e-05
3.46988e-05
3.39427e-05
3.3105e-05
3.21722e-05
3.11273e-05
2.99667e-05
2.87058e-05
2.74734e-05
2.63573e-05
2.53255e-05
2.43267e-05
2.33206e-05
2.22814e-05
2.11924e-05
2.00425e-05
1.88358e-05
1.76171e-05
1.04279e-05
1.04412e-05
1.04565e-05
1.04741e-05
1.04944e-05
1.05177e-05
1.05445e-05
1.05755e-05
1.06113e-05
1.06525e-05
1.06997e-05
1.07535e-05
1.08144e-05
1.08831e-05
1.096e-05
1.10463e-05
1.11434e-05
1.12534e-05
1.1378e-05
1.15188e-05
1.16772e-05
1.1854e-05
1.20498e-05
1.22648e-05
1.24985e-05
1.27504e-05
1.30211e-05
1.33134e-05
1.36331e-05
1.39859e-05
1.43749e-05
1.4801e-05
1.52631e-05
1.57588e-05
1.62845e-05
1.6836e-05
1.7408e-05
1.79957e-05
1.85954e-05
1.92088e-05
1.9848e-05
2.0535e-05
2.12773e-05
2.20702e-05
2.29038e-05
2.3767e-05
2.46486e-05
2.55377e-05
2.64239e-05
2.72976e-05
2.8152e-05
2.89839e-05
2.97962e-05
3.06022e-05
3.14662e-05
3.24363e-05
3.34681e-05
3.45152e-05
3.55445e-05
3.65338e-05
3.74676e-05
3.83356e-05
3.91316e-05
3.98568e-05
4.05164e-05
4.1117e-05
4.16643e-05
4.21595e-05
4.26047e-05
4.29912e-05
4.33222e-05
4.36044e-05
4.38431e-05
4.40397e-05
4.41961e-05
4.43168e-05
4.44061e-05
4.44707e-05
4.45186e-05
4.45578e-05
4.45881e-05
4.46103e-05
4.4616e-05
4.46096e-05
4.45918e-05
4.45603e-05
4.45174e-05
4.44626e-05
4.4396e-05
4.43165e-05
4.42238e-05
4.4122e-05
4.4008e-05
4.38853e-05
4.37554e-05
4.36172e-05
4.34758e-05
4.33297e-05
4.31551e-05
4.297e-05
4.27802e-05
4.25899e-05
4.23991e-05
4.21901e-05
4.19671e-05
4.17364e-05
4.14975e-05
4.12436e-05
4.09793e-05
4.06926e-05
4.03801e-05
4.0042e-05
3.96732e-05
3.92762e-05
3.88375e-05
3.83433e-05
3.7792e-05
3.71659e-05
3.64369e-05
3.55829e-05
3.45856e-05
3.34201e-05
3.20484e-05
3.04379e-05
2.86188e-05
1.08123e-05
1.0889e-05
1.09766e-05
1.1076e-05
1.11887e-05
1.13168e-05
1.14623e-05
1.16276e-05
1.18147e-05
1.2025e-05
1.22597e-05
1.25195e-05
1.28044e-05
1.31143e-05
1.34496e-05
1.38129e-05
1.42094e-05
1.46436e-05
1.51177e-05
1.56318e-05
1.61842e-05
1.67718e-05
1.73903e-05
1.80346e-05
1.86991e-05
1.93785e-05
2.00726e-05
2.07905e-05
2.15484e-05
2.23503e-05
2.31914e-05
2.40631e-05
2.49561e-05
2.58612e-05
2.67697e-05
2.76728e-05
2.85624e-05
2.94319e-05
3.02784e-05
3.11075e-05
3.19451e-05
3.28686e-05
3.38534e-05
3.4865e-05
3.58749e-05
3.6862e-05
3.78112e-05
3.87115e-05
3.95544e-05
4.0334e-05
4.10499e-05
4.17064e-05
4.23098e-05
4.28634e-05
4.33659e-05
4.38142e-05
4.42129e-05
4.45667e-05
4.48782e-05
4.51491e-05
4.53815e-05
4.55738e-05
4.57271e-05
4.58529e-05
4.59623e-05
4.6063e-05
4.61545e-05
4.6236e-05
4.63076e-05
4.63669e-05
4.64139e-05
4.64503e-05
4.64784e-05
4.6494e-05
4.64921e-05
4.64806e-05
4.64544e-05
4.64116e-05
4.63549e-05
4.62941e-05
4.62218e-05
4.61484e-05
4.6077e-05
4.59983e-05
4.59108e-05
4.58242e-05
4.57339e-05
4.56368e-05
4.554e-05
4.5436e-05
4.53215e-05
4.52084e-05
4.50948e-05
4.49658e-05
4.48289e-05
4.46982e-05
4.45723e-05
4.44284e-05
4.42649e-05
4.41071e-05
4.39489e-05
4.37972e-05
4.36214e-05
4.34302e-05
4.32511e-05
4.30748e-05
4.28951e-05
4.27277e-05
4.2549e-05
4.23402e-05
4.21359e-05
4.19336e-05
4.17448e-05
4.15311e-05
4.13014e-05
4.10966e-05
4.08905e-05
4.06565e-05
4.03847e-05
4.00744e-05
3.97283e-05
3.93489e-05
3.89216e-05
3.84265e-05
3.7843e-05
1.24439e-05
1.27527e-05
1.30942e-05
1.34685e-05
1.38763e-05
1.432e-05
1.48039e-05
1.53317e-05
1.59047e-05
1.65222e-05
1.71816e-05
1.78787e-05
1.86085e-05
1.9365e-05
2.01423e-05
2.09388e-05
2.17612e-05
2.26205e-05
2.35172e-05
2.4445e-05
2.53949e-05
2.63579e-05
2.73253e-05
2.82889e-05
2.92407e-05
3.0173e-05
3.10806e-05
3.19659e-05
3.28542e-05
3.38031e-05
3.47925e-05
3.5795e-05
3.67875e-05
3.77528e-05
3.86784e-05
3.95554e-05
4.03769e-05
4.11374e-05
4.18353e-05
4.24743e-05
4.30589e-05
4.35928e-05
4.4072e-05
4.45033e-05
4.48919e-05
4.52414e-05
4.55539e-05
4.58307e-05
4.60732e-05
4.62796e-05
4.64498e-05
4.65921e-05
4.67184e-05
4.68369e-05
4.69467e-05