/*--------------------------------*- C++ -*----------------------------------*\
| =========                 |                                                 |
| \\      /  F ield         | OpenFOAM: The Open Source CFD Toolbox           |
|  \\    /   O peration     | Version:  v1706                                 |
|   \\  /    A nd           | Web:      www.OpenFOAM.com                      |
|    \\/     M anipulation  |                                                 |
\*---------------------------------------------------------------------------*/
FoamFile
{
    version     2.0;
    format      ascii;
    class       volScalarField;
    location    "1.3e-05";
    object      p;
}
// * * * * * * * * * * * * * * * * * * * * * * * * * * * * * * * * * * * * * //

dimensions      [1 -1 -2 0 0 0 0];


internalField   nonuniform List<scalar> 
29871
(
21.9139
21.9139
21.9139
21.9139
21.9139
21.9139
21.9139
21.9139
21.9139
21.9139
21.9139
21.9139
21.9139
21.9139
21.9139
21.9139
21.9139
21.9139
21.9139
21.9139
21.9139
21.9139
21.9139
21.9139
21.9139
21.9139
21.9139
21.9139
21.9139
21.9139
21.9139
21.9139
21.9139
21.9139
21.9139
21.9139
21.9139
21.9139
21.9139
21.9139
21.9139
21.9139
21.9139
21.9139
21.9139
21.9139
21.9139
21.9139
21.9139
21.9139
21.9139
21.9139
21.9139
21.9139
21.9139
21.9139
21.9139
21.9139
21.9139
21.9139
21.9139
21.9139
21.9139
21.9139
21.9139
21.9139
21.9139
21.9139
21.9139
21.9139
21.9139
21.9139
21.9139
21.9139
21.9139
21.9139
21.9139
21.9139
21.9139
21.9139
21.9139
21.9139
21.9139
21.9139
21.9139
21.9139
21.9139
21.9139
21.9139
21.9139
21.9139
21.9139
21.9139
21.9139
21.9139
21.9139
21.9139
21.9139
21.9139
21.9139
21.9139
21.9139
21.9139
21.9139
21.9139
21.9139
21.9139
21.9139
21.9139
21.9139
21.9139
21.9139
21.9139
21.9139
21.9139
21.9139
21.9139
21.9139
21.9139
21.9139
21.9139
21.9139
21.9139
21.9139
21.9139
21.9139
21.9139
21.9139
21.9139
21.9139
21.9139
21.9139
21.9139
21.9139
21.9139
21.9139
21.9139
21.9139
21.9139
21.9139
21.9139
21.9139
21.9139
21.9139
21.9139
21.9139
21.9139
21.9139
21.9139
21.9139
21.9139
21.9139
21.9139
21.9139
21.9139
21.9139
21.9139
21.9139
21.9139
21.9139
21.9139
21.9139
21.9139
21.9139
21.9139
21.9139
21.9139
21.9139
21.9139
21.9139
21.9139
21.9139
21.9139
21.9139
21.9139
21.9139
21.9139
21.9139
21.9139
21.9139
21.9139
21.9139
21.9139
21.9139
21.9139
21.9139
21.9139
21.9139
21.9139
21.9139
21.9139
21.9139
21.9139
21.9139
21.9139
21.9139
21.9139
21.9139
21.9139
21.9139
21.9139
21.9139
21.9139
21.9139
21.9139
21.9139
21.9139
21.9139
21.9139
21.9139
21.9139
21.9139
21.9139
21.9139
21.9139
21.9139
21.9139
21.9139
21.9139
21.9139
21.9139
21.9139
21.9139
21.9139
21.9139
21.9139
21.9139
21.9139
21.9139
21.9139
21.9139
21.9139
21.9139
21.9139
21.9139
21.9139
21.9139
21.9139
21.9139
21.9139
21.9139
21.9139
21.9139
21.9139
21.9139
21.9139
21.9139
21.9139
21.9139
21.9139
21.9139
21.9139
21.9139
21.9139
21.9139
21.9139
21.9139
21.9139
21.9139
21.9139
21.9139
21.9139
21.9139
21.9139
21.9139
21.9139
21.9139
21.9139
21.9139
21.9139
21.9139
21.9139
21.9139
21.9139
21.9139
21.9139
21.9139
21.9139
21.9139
21.9139
21.9139
21.9139
21.9139
21.9139
21.9139
21.9139
21.9139
21.9139
21.9139
21.9139
21.9139
21.9139
21.9139
21.9139
21.9139
21.9139
21.9139
21.9139
21.9139
21.9139
21.9139
21.9139
21.9139
21.9139
21.9139
21.9139
21.9139
21.9139
21.9139
21.9139
21.9139
21.9139
21.9139
21.9139
21.9139
21.9139
21.9139
21.9139
21.9139
21.9139
21.9139
21.9139
21.9139
21.9139
21.9139
21.9139
21.9139
21.9139
21.9139
21.9139
21.9139
21.9139
21.9139
21.9139
21.9139
21.9139
21.9139
21.9139
21.9139
21.9139
21.9139
21.9139
21.9139
21.9139
21.9139
21.9139
21.9139
21.9139
21.9139
21.9139
21.9139
21.9139
21.9139
21.9139
21.9139
21.9139
21.9139
21.9139
21.9139
21.9139
21.9139
21.9139
21.9139
21.9139
21.9139
21.9139
21.9139
21.9139
21.9139
21.9139
21.9139
21.9139
21.9139
21.9139
21.9139
21.9139
21.9139
21.9139
21.9139
21.9139
21.9139
21.9139
21.9139
21.9139
21.9139
21.9139
21.9139
21.9139
21.9139
21.9139
21.9139
21.9139
21.9139
21.9139
21.9139
21.9139
21.9139
21.9139
21.9139
21.9139
21.9139
21.9139
21.9139
21.9139
21.9139
21.9139
21.9139
21.9139
21.9139
21.9139
21.9139
21.9139
21.9139
21.9139
21.9139
21.9139
21.9139
21.9139
21.9139
21.9139
21.9139
21.9139
21.9139
21.9139
21.9139
21.9139
21.9139
21.9139
21.9139
21.9139
21.9139
21.9139
21.9139
21.9139
21.9139
21.9139
21.9139
21.9139
21.9139
21.9139
21.9139
21.9139
21.9139
21.9139
21.9139
21.9139
21.9139
21.9139
21.9139
21.9139
21.9139
21.9139
21.9139
21.9139
21.9139
21.9139
21.9139
21.9139
21.9139
21.9139
21.9139
21.9139
21.9139
21.9139
21.9139
21.9139
21.9139
21.9139
21.9139
21.9139
21.9139
21.9139
21.9139
21.9139
21.9139
21.9139
21.9139
21.9139
21.9139
21.9139
21.9139
21.9139
21.9139
21.9139
21.9139
21.9139
21.9139
21.9139
21.9139
21.9139
21.9139
21.9139
21.9139
21.9139
21.9139
21.9139
21.9139
21.9139
21.9139
21.9139
21.9139
21.9139
21.9139
21.9139
21.9139
21.9139
21.9139
21.9139
21.9139
21.9139
21.9139
21.9139
21.9139
21.9139
21.9139
21.9139
21.9139
21.9139
21.9139
21.9139
21.9139
21.9139
21.9139
21.9139
21.9139
21.9139
21.9139
21.9139
21.9139
21.9139
21.9139
21.9139
21.9139
21.9139
21.9139
21.9139
21.9139
21.9139
21.9139
21.9139
21.9139
21.9139
21.9139
21.9139
21.9139
21.9139
21.9139
21.9139
21.9139
21.9139
21.9139
21.9139
21.9139
21.9139
21.9139
21.9139
21.9139
21.9139
21.9139
21.9139
21.9139
21.9139
21.9139
21.9139
21.9139
21.9139
21.9139
21.9139
21.9139
21.9139
21.9139
21.9139
21.9139
21.9139
21.9139
21.9139
21.9139
21.9139
21.9139
21.9139
21.9139
21.9139
21.9139
21.9139
21.9139
21.9139
21.9139
21.9139
21.9139
21.9139
21.9139
21.9139
21.9139
21.9139
21.9139
21.9139
21.9139
21.9139
21.9139
21.9139
21.9139
21.9139
21.9139
21.9139
21.9139
21.9139
21.9139
21.9139
21.9139
21.9139
21.9139
21.9139
21.9139
21.9139
21.9139
21.9139
21.9139
21.9139
21.9139
21.9139
21.9139
21.9139
21.9139
21.9139
21.9139
21.9139
21.9139
21.9139
21.9139
21.9139
21.9139
21.9139
21.9139
21.9139
21.9139
21.9139
21.9139
21.9139
21.9139
21.9139
21.9139
21.9139
21.9139
21.9139
21.9139
21.9139
21.9139
21.9139
21.9139
21.9139
21.9139
21.9139
21.9139
21.9139
21.9139
21.9139
21.9139
21.9139
21.9139
21.9139
21.9139
21.9139
21.9139
21.9139
21.9139
21.9139
21.9139
21.9139
21.9139
21.9139
21.9139
21.9139
21.9139
21.9139
21.9139
21.9139
21.9139
21.9139
21.9139
21.9139
21.9139
21.9139
21.9139
21.9139
21.9139
21.9139
21.9139
21.9139
21.9139
21.9139
21.9139
21.9139
21.9139
21.9139
21.9139
21.9139
21.9139
21.9139
21.9139
21.9139
21.9139
21.9139
21.9139
21.9139
21.9139
21.9139
21.9139
21.9139
21.9139
21.9139
21.9139
21.9139
21.9139
21.9139
21.9139
21.9139
21.9139
21.9139
21.9139
21.9139
21.9139
21.9139
21.9139
21.9139
21.9139
21.9139
21.9139
21.9139
21.9139
21.9139
21.9139
21.9139
21.9139
21.9139
21.9139
21.9139
21.9139
21.9139
21.9139
21.9139
21.9139
21.9139
21.9139
21.9139
21.9139
21.9139
21.9139
21.9139
21.9139
21.9139
21.9139
21.9139
21.9139
21.9139
21.9139
21.9139
21.9139
21.9139
21.9139
21.9139
21.9139
21.9139
21.9139
21.9139
21.9139
21.9139
21.9139
21.9139
21.9139
21.9139
21.9139
21.9139
21.9139
21.9139
21.9139
21.9139
21.9139
21.9139
21.9139
21.9139
21.9139
21.9139
21.9139
21.9139
21.9139
21.9139
21.9139
21.9139
21.9139
21.9139
21.9139
21.9139
21.9139
21.9139
21.9139
21.9139
21.9139
21.9139
21.9139
21.9139
21.9139
21.9139
21.9139
21.9139
21.9139
21.9139
21.9139
21.9139
21.9139
21.9139
21.9139
21.9139
21.9139
21.9139
21.9139
21.9139
21.9139
21.9139
21.9139
21.9139
21.9139
21.9139
21.9139
21.9139
21.9139
21.9139
21.9139
21.9139
21.9139
21.9139
21.9139
21.9139
21.9139
21.9139
21.9139
21.9139
21.9139
21.9139
21.9139
21.9139
21.9139
21.9139
21.9139
21.9139
21.9139
21.9139
21.9139
21.9139
21.9139
21.9139
21.9139
21.9139
21.9139
21.9139
21.9139
21.9139
21.9139
21.9139
21.9139
21.9139
21.9139
21.9139
21.9139
21.9139
21.9139
21.9139
21.9139
21.9139
21.9139
21.9139
21.9139
21.9139
21.9139
21.9139
21.9139
21.9139
21.9139
21.9139
21.9139
21.9139
21.9139
21.9139
21.9139
21.9139
21.9139
21.9139
21.9139
21.9139
21.9139
21.9139
21.9139
21.9139
21.9139
21.9139
21.9139
21.9139
21.9139
21.9139
21.9139
21.9139
21.9139
21.9139
21.9139
21.9139
21.9139
21.9139
21.9139
21.9139
21.9139
21.9139
21.9139
21.9139
21.9139
21.9139
21.9139
21.9139
21.9139
21.9139
21.9139
21.9139
21.9139
21.9139
21.9139
21.9139
21.9139
21.9139
21.9139
21.9139
21.9139
21.9139
21.9139
21.9139
21.9139
21.9139
21.9139
21.9139
21.9139
21.9139
21.9139
21.9139
21.9139
21.9139
21.9139
21.9139
21.9139
21.9139
21.9139
21.9139
21.9139
21.9139
21.9139
21.9139
21.9139
21.9139
21.9139
21.9139
21.9139
21.9139
21.9139
21.9139
21.9139
21.9139
21.9139
21.9139
21.9139
21.9139
21.9139
21.9139
21.9139
21.9139
21.9139
21.9139
21.9139
21.9139
21.9139
21.9139
21.9139
21.9139
21.9139
21.9139
21.9139
21.9139
21.9139
21.9139
21.9139
21.9139
21.9139
21.9139
21.9139
21.9139
21.9139
21.9139
21.9139
21.9139
21.9139
21.9139
21.9139
21.9139
21.9139
21.9139
21.9139
21.9139
21.9139
21.9139
21.9139
21.9139
21.9139
21.9139
21.9139
21.9139
21.9139
21.9139
21.9139
21.9139
21.9139
21.9139
21.9139
21.9139
21.9139
21.9139
21.9139
21.9139
21.9139
21.9139
21.9139
21.9139
21.9139
21.9139
21.9139
21.9139
21.9139
21.9139
21.9139
21.9139
21.9139
21.9139
21.9139
21.9139
21.9139
21.9139
21.9139
21.9139
21.9139
21.9139
21.9139
21.9139
21.9139
21.9139
21.9139
21.9139
21.9139
21.9139
21.9139
21.9139
21.9139
21.9139
21.9139
21.9139
21.9139
21.9139
21.9139
21.9139
21.9139
21.9139
21.9139
21.9139
21.9139
21.9139
21.9139
21.9139
21.9139
21.9139
21.9139
21.9139
21.9139
21.9139
21.9139
21.9139
21.9139
21.9139
21.9139
21.9139
21.9139
21.9139
21.9139
21.9139
21.9139
21.9139
21.9139
21.9139
21.9139
21.9139
21.9139
21.9139
21.9139
21.9139
21.9139
21.9139
21.9139
21.9139
21.9139
21.9139
21.9139
21.9139
21.9139
21.9139
21.9139
21.9139
21.9139
21.9139
21.9139
21.9139
21.9139
21.9139
21.9139
21.9139
21.9139
21.9139
21.9139
21.9139
21.9139
21.9139
21.9139
21.9139
21.9139
21.9139
21.9139
21.9139
21.9139
21.9139
21.9139
21.9139
21.9139
21.9139
21.9139
21.9139
21.9139
21.9139
21.9139
21.9139
21.9139
21.9139
21.9139
21.9139
21.9139
21.9139
21.9139
21.9139
21.9139
21.9139
21.9139
21.9139
21.9139
21.9139
21.9139
21.9139
21.9139
21.9139
21.9139
21.9139
21.9139
21.9139
21.9139
21.9139
21.9139
21.9139
21.9139
21.9139
21.9139
21.9139
21.9139
21.9139
21.9139
21.9139
21.9139
21.9139
21.9139
21.9139
21.9139
21.9139
21.9139
21.9139
21.9139
21.9139
21.9139
21.9139
21.9139
21.9139
21.9139
21.9139
21.9139
21.9139
21.9139
21.9139
21.9139
21.9139
21.9139
21.9139
21.9139
21.9139
21.9139
21.9139
21.9139
21.9139
21.9139
21.9139
21.9139
21.9139
21.9139
21.9139
21.9139
21.9139
21.9139
21.9139
21.9139
21.9139
21.9139
21.9139
21.9139
21.9139
21.9139
21.9139
21.9139
21.9139
21.9139
21.9139
21.9139
21.9139
21.9139
21.9139
21.9139
21.9139
21.9139
21.9139
21.9139
21.9139
21.9139
21.9139
21.9139
21.9139
21.9139
21.9139
21.9139
21.9139
21.9139
21.9139
21.9139
21.914
21.914
21.914
21.914
21.914
21.914
21.914
21.914
21.914
21.914
21.914
21.914
21.914
21.914
21.9141
21.9141
21.9141
21.9141
21.9141
21.9141
21.9141
21.9141
21.9141
21.9141
21.9141
21.9141
21.9141
21.9141
21.9141
21.9141
21.9141
21.914
21.914
21.914
21.914
21.914
21.914
21.914
21.914
21.914
21.914
21.914
21.914
21.914
21.9139
21.9139
21.9139
21.9139
21.9139
21.9139
21.9139
21.9139
21.9139
21.9139
21.9139
21.9139
21.9139
21.9139
21.9139
21.9139
21.9139
21.9139
21.9139
21.9139
21.9139
21.9139
21.9139
21.9139
21.9139
21.9139
21.9139
21.9139
21.9139
21.9139
21.9139
21.9139
21.9139
21.9139
21.9139
21.9139
21.9139
21.9139
21.9139
21.9139
21.9139
21.9139
21.9139
21.9139
21.9139
21.9139
21.9139
21.9139
21.9139
21.914
21.914
21.914
21.914
21.914
21.914
21.914
21.914
21.914
21.914
21.9141
21.9141
21.9141
21.9141
21.9142
21.9142
21.9142
21.9143
21.9143
21.9143
21.9144
21.9144
21.9145
21.9145
21.9146
21.9146
21.9147
21.9148
21.9148
21.9149
21.915
21.915
21.9151
21.9151
21.9152
21.9152
21.9153
21.9153
21.9153
21.9153
21.9153
21.9153
21.9153
21.9153
21.9153
21.9152
21.9152
21.9151
21.9151
21.915
21.915
21.9149
21.9148
21.9148
21.9147
21.9147
21.9146
21.9145
21.9145
21.9144
21.9143
21.9143
21.9142
21.9142
21.9141
21.9141
21.9141
21.914
21.914
21.914
21.9139
21.9139
21.9139
21.9139
21.9139
21.9139
21.9139
21.9139
21.9139
21.9139
21.9139
21.9139
21.9139
21.9139
21.9139
21.9139
21.9139
21.9139
21.9139
21.9139
21.9139
21.9139
21.9139
21.9139
21.9139
21.9139
21.9139
21.914
21.914
21.914
21.914
21.914
21.914
21.914
21.914
21.914
21.9141
21.9141
21.9141
21.9141
21.9142
21.9142
21.9142
21.9143
21.9143
21.9144
21.9144
21.9145
21.9146
21.9147
21.9148
21.9149
21.915
21.9151
21.9153
21.9155
21.9157
21.9159
21.9161
21.9163
21.9165
21.9168
21.9171
21.9174
21.9178
21.9182
21.9187
21.9191
21.9196
21.9201
21.9206
21.9211
21.9216
21.9221
21.9225
21.9229
21.9233
21.9236
21.9239
21.9241
21.9243
21.9245
21.9246
21.9246
21.9245
21.9244
21.9243
21.9241
21.9238
21.9235
21.9232
21.9228
21.9224
21.922
21.9215
21.921
21.9205
21.92
21.9195
21.9191
21.9186
21.9181
21.9176
21.9172
21.9168
21.9164
21.916
21.9157
21.9154
21.9152
21.915
21.9148
21.9146
21.9139
21.9139
21.9139
21.9139
21.9139
21.9139
21.9139
21.9139
21.9139
21.9139
21.9139
21.9139
21.9139
21.914
21.914
21.914
21.914
21.914
21.914
21.914
21.914
21.9141
21.9141
21.9141
21.9141
21.9141
21.9142
21.9142
21.9143
21.9143
21.9144
21.9144
21.9145
21.9146
21.9146
21.9147
21.9148
21.915
21.9151
21.9153
21.9154
21.9156
21.9159
21.9161
21.9164
21.9167
21.917
21.9174
21.9178
21.9183
21.9189
21.9195
21.9203
21.9211
21.9221
21.9231
21.9243
21.9255
21.9269
21.9284
21.9299
21.9316
21.9334
21.9354
21.9376
21.9401
21.9429
21.9459
21.9492
21.9527
21.9562
21.9599
21.9635
21.9672
21.9707
21.974
21.9772
21.9802
21.9829
21.9853
21.9874
21.9891
21.9905
21.9914
21.992
21.9921
21.9918
21.9911
21.99
21.9884
21.9866
21.9843
21.9818
21.979
21.9759
21.9727
21.9693
21.9658
21.9622
21.9586
21.9549
21.9513
21.9478
21.9443
21.9409
21.9377
21.9346
21.9317
21.929
21.9267
21.9247
21.923
21.9215
21.9203
21.9192
21.914
21.914
21.914
21.914
21.914
21.914
21.914
21.9141
21.9141
21.9141
21.9141
21.9142
21.9142
21.9143
21.9143
21.9144
21.9145
21.9145
21.9146
21.9147
21.9148
21.915
21.9151
21.9153
21.9154
21.9156
21.9159
21.9161
21.9164
21.9168
21.9171
21.9176
21.918
21.9186
21.9191
21.9198
21.9205
21.9214
21.9224
21.9235
21.9248
21.9262
21.9279
21.9297
21.9317
21.9339
21.9364
21.9391
21.9422
21.9457
21.9498
21.9544
21.9598
21.9658
21.9727
21.9802
21.9885
21.9975
22.0072
22.0175
22.0285
22.0403
22.0532
22.0678
22.0844
22.1031
22.1239
22.1467
22.171
22.1965
22.2227
22.2491
22.2754
22.3013
22.3263
22.3502
22.3728
22.3937
22.4127
22.4296
22.4442
22.4562
22.4655
22.472
22.4754
22.4759
22.4734
22.468
22.4596
22.4485
22.4348
22.4187
22.4004
22.3801
22.3581
22.3348
22.3105
22.2854
22.2598
22.2338
22.2077
22.1818
22.1562
22.1311
22.1068
22.0833
22.0609
22.04
22.0209
22.0041
21.9897
21.9777
21.9676
21.959
21.9515
21.945
21.914
21.9141
21.9141
21.9141
21.9142
21.9142
21.9142
21.9143
21.9144
21.9144
21.9145
21.9146
21.9147
21.9149
21.915
21.9152
21.9154
21.9156
21.9158
21.9161
21.9164
21.9168
21.9172
21.9177
21.9182
21.9188
21.9195
21.9203
21.9211
21.9221
21.9232
21.9244
21.9259
21.9275
21.9293
21.9314
21.9338
21.9364
21.9393
21.9426
21.9462
21.9503
21.9548
21.96
21.966
21.9728
21.9807
21.9896
21.9997
22.0111
22.0237
22.0377
22.0531
22.07
22.0889
22.1103
22.1351
22.1639
22.1974
22.2358
22.2794
22.3282
22.3819
22.4404
22.5034
22.5704
22.6415
22.7169
22.7982
22.8883
22.9903
23.1063
23.2368
23.3808
23.5365
23.7014
23.8726
24.0471
24.222
24.3949
24.5638
24.7267
24.8819
25.0276
25.1624
25.2849
25.3937
25.4872
25.5641
25.6231
25.6636
25.6842
25.6866
25.6703
25.6343
25.5792
25.5062
25.4165
25.3113
25.1913
25.0578
24.9127
24.7587
24.5977
24.4313
24.2604
24.0865
23.9111
23.7358
23.5623
23.3921
23.2261
23.0656
22.9123
22.769
22.6398
22.5275
22.4326
22.3529
22.2856
22.2277
22.1768
22.1314
21.9148
21.9149
21.9151
21.9153
21.9156
21.9159
21.9162
21.9166
21.917
21.9175
21.9181
21.9187
21.9195
21.9203
21.9213
21.9224
21.9237
21.9252
21.9268
21.9287
21.9309
21.9333
21.9362
21.9394
21.943
21.9471
21.9517
21.9569
21.9626
21.9692
21.9765
21.985
21.9946
22.0055
22.018
22.032
22.0478
22.0655
22.0851
22.1068
22.1309
22.1579
22.1888
22.2242
22.2652
22.3125
22.3667
22.4283
22.4978
22.5753
22.6609
22.7548
22.8573
22.9699
23.0958
23.2395
23.4061
23.5994
23.822
24.0754
24.3598
24.6744
25.0173
25.3863
25.7787
26.1924
26.6265
27.083
27.574
28.1241
28.7546
29.4732
30.2743
31.1436
32.0634
33.0154
33.9812
34.9443
35.8908
36.8106
37.6963
38.5404
39.335
40.0732
40.7495
41.3586
41.8947
42.3519
42.7246
43.0056
43.1952
43.2863
43.2925
43.2076
43.0232
42.7453
42.3793
41.931
41.4056
40.8048
40.1308
39.3912
38.5984
37.7618
36.887
35.9782
35.0396
34.0772
33.0993
32.1152
31.1326
30.1574
29.1966
28.2616
27.3728
26.5658
25.8676
25.28
24.7863
24.3645
23.9951
23.6643
23.3641
21.9198
21.9208
21.922
21.9234
21.925
21.9268
21.9289
21.9313
21.9341
21.9374
21.9412
21.9455
21.9505
21.9561
21.9626
21.97
21.9783
21.9878
21.9987
22.0111
22.0253
22.0416
22.0601
22.0811
22.1047
22.1312
22.1609
22.1941
22.2314
22.2738
22.3223
22.3778
22.4414
22.514
22.5964
22.6891
22.7928
22.9078
23.0345
23.1739
23.3283
23.5019
23.6999
23.9275
24.1889
24.4878
24.8268
25.2079
25.6319
26.0987
26.6077
27.1581
27.7515
28.3955
29.1134
29.9378
30.8947
31.9973
33.2474
34.6391
36.1608
37.7968
39.5293
41.3406
43.2156
45.1437
47.1196
49.1587
51.3208
53.7215
56.4044
59.3444
62.4927
65.7946
69.1934
72.6325
76.0572
79.4199
82.6865
85.8386
88.8651
91.75
94.4702
97.0072
99.3474
101.476
103.375
105.024
106.406
107.483
108.253
108.713
108.923
108.776
108.25
107.415
106.283
104.858
103.137
101.108
98.7805
96.1954
93.4012
90.4218
87.2636
83.9354
80.4504
76.8278
73.0972
69.2853
65.4107
61.4859
57.5325
53.5968
49.7791
46.2794
43.2203
40.577
38.2605
36.1813
34.2716
32.4857
30.7992
21.9516
21.9582
21.9658
21.9747
21.9848
21.9966
22.0101
22.0258
22.0439
22.0647
22.0888
22.1164
22.1479
22.1838
22.2244
22.2705
22.3229
22.3828
22.4515
22.5304
22.621
22.7244
22.8421
22.9749
23.1239
23.2898
23.474
23.679
23.9091
24.1696
24.4662
24.8036
25.186
25.6169
26.0991
26.6345
27.2239
27.8672
28.565
29.3209
30.1486
31.0763
32.1334
33.3414
34.7126
36.2514
37.9562
39.8214
41.8371
43.9908
46.2691
48.6619
51.1714
53.8396
56.7682
60.0592
63.7407
67.8015
72.2207
76.9719
82.0193
87.3159
92.8099
98.4587
104.238
110.134
116.158
122.332
128.871
137.169
147.484
159.44
172.604
186.605
201.159
216.046
231.079
246.074
260.877
275.413
289.643
303.444
316.596
328.959
340.476
351.034
360.529
368.877
376
381.597
385.794
389.021
391.073
391.47
389.934
387.177
383.019
377.774
371.779
364.639
355.916
345.511
334.054
321.817
308.644
294.545
279.52
263.445
246.519
229.067
211.257
193.122
174.713
156.312
138.35
122.835
110.579
100.684
92.2081
84.5325
77.3121
70.3683
63.6196
57.0921
50.9953
22.151
22.1919
22.2391
22.2934
22.3559
22.4278
22.5109
22.6069
22.7179
22.8462
22.9937
23.1625
23.3544
23.5714
23.8155
24.0905
24.4014
24.7547
25.1568
25.6136
26.1303
26.7116
27.3609
28.0811
28.8736
29.7395
30.6825
31.7155
32.8638
34.1547
35.609
37.2397
39.053
41.0492
43.2246
45.5714
48.0781
50.7323
53.5244
56.4711
59.6338
63.1124
66.953
71.1635
75.7428
80.6891
85.9974
91.6542
97.6345
103.906
110.443
117.231
124.303
131.705
140.313
151.219
164.436
179.707
196.776
215.433
235.502
256.802
279.124
302.311
326.246
350.851
376.048
401.684
427.519
451.913
474.432
495.289
514.649
532.463
548.645
563.152
576.003
587.458
597.86
607.705
617.058
625.902
634.138
641.533
647.928
653.374
658.094
661.971
664.941
667.076
668.341
668.834
668.438
667.431
665.165
662.121
659.194
656.117
651.075
644.43
636.733
629.076
621.964
613.746
604.224
593.702
582.202
569.529
556.498
542.395
526.772
509.584
490.795
470.828
448.819
423.468
395.366
365.378
334.026
301.911
269.614
237.434
205.423
173.816
144.133
23.3418
23.583
23.8597
24.1756
24.536
24.9476
25.4185
25.9569
26.5706
27.2666
28.051
28.9291
29.905
30.9823
32.1667
33.4726
34.9255
36.552
38.3735
40.404
42.6507
45.115
47.7931
50.6763
53.7524
57.0077
60.4534
64.1411
68.1459
72.4969
77.1949
82.2383
87.6305
93.3757
99.473
105.911
112.671
119.729
127.085
134.757
143.019
153.165
165.42
179.717
195.906
213.845
233.425
254.554
277.116
300.965
325.967
352.035
379.124
407.24
435.555
462.913
489.208
514.523
538.806
561.893
583.689
603.799
621.913
638.429
653.871
668.841
683.277
697.179
710.561
722.946
734.028
743.82
752.496
760.066
766.327
771.236
774.649
776.53
776.745
775.759
773.653
771.415
769.608
767.399
764.328
761.39
758.339
754.927
751.969
748.657
744.467
741.008
738.163
734.317
729.404
725.602
722.98
719.239
713.641
708.766
705.011
702.036
697.272
690.715
685.313
680.689
676.549
673.69
669.901
663.675
657.557
652.766
649.32
643.96
636.678
631.381
625.615
616.743
603.25
584.964
562.856
538.209
510.952
480.518
445.82
28.6539
29.706
30.8869
32.2032
33.6637
35.2849
37.0932
39.1167
41.3784
43.8949
46.6758
49.7244
53.038
56.6089
60.4252
64.4981
68.8739
73.6081
78.7135
84.181
90.0042
96.1866
102.737
109.662
116.961
124.619
132.633
141.001
150.03
160.805
173.548
188.235
204.755
222.986
242.832
264.213
287.033
311.156
336.44
362.79
390.145
418.302
445.986
472.974
499.29
524.954
549.852
573.808
596.696
618.172
637.876
655.886
672.765
689.148
705.028
720.413
734.96
748.399
760.793
772.261
782.718
792.061
800.271
806.789
810.831
813.094
814.445
814.376
813.784
813.04
812.066
810.798
809.271
807.674
806.135
804.684
803.704
802.88
801.972
800.976
799.378
796.36
793.452
791.149
788.282
784.648
781.286
777.97
774.186
770.894
767.325
762.857
759.192
756.384
752.27
747.105
743.483
741.125
737.204
731.555
727.22
723.93
721.437
716.812
710.338
705.372
701.284
697.557
695.229
691.852
685.852
680.474
676.331
673.523
668.334
662.518
658.281
654.929
650.106
643.158
636.508
630.576
625.243
620.395
615.276
610.288
51.2749
55.0276
59.1093
63.5136
68.2542
73.3736
78.9151
84.8798
91.2478
98.0043
105.149
112.694
120.655
129.042
137.87
147.136
157.199
169.003
182.789
198.577
216.288
235.818
257.068
279.947
304.345
330.103
357.064
385.111
413.912
442.34
470.171
497.388
523.973
549.843
574.821
598.74
621.429
642.428
661.547
679.313
696.192
712.391
727.913
742.517
756.222
769.03
780.989
792.106
802.339
811.637
819.26
824.545
828.208
830.542
832.012
833.249
833.682
833.624
833.498
833.331
833.07
832.928
833.29
834.301
835.511
836.627
837.009
836.264
835.044
833.481
831.62
829.483
827.085
824.534
821.881
819.285
817.217
815.074
812.918
811.286
808.657
804.546
801.009
797.774
793.576
788.697
784.78
780.719
775.865
772.025
768.165
763.094
759.024
755.974
751.684
746.452
742.866
740.21
735.632
730.433
726.648
723.794
721.779
717.187
711.514
707.219
703.598
700.391
699.033
696.648
691.986
687.531
683.922
681.268
677.737
673.702
670.002
668.139
664.974
659.553
654.747
650.412
646.094
642.283
638.16
634.644
630.829
625.772
114.819
123.53
132.703
142.378
152.571
163.639
176.448
191.296
208.268
227.34
248.43
271.438
296.263
322.778
350.813
380.199
410.479
440.593
470.23
499.3
527.731
555.411
582.149
607.756
632.043
654.554
675.023
693.865
711.501
728.059
743.569
758.041
771.534
784.104
795.812
806.682
816.626
825.179
831.549
835.889
838.926
841.269
842.895
844.002
844.816
845.225
845.549
845.81
846.152
846.954
848.578
851.009
853.572
855.094
855.885
856.379
855.869
855.049
853.968
852.679
851.159
849.61
848.306
847.505
846.882
846.31
845.212
843.338
840.848
837.874
834.562
831.04
827.423
823.814
820.191
816.727
813.365
809.857
807.29
805.023
801.278
797.499
794.976
791.78
787.025
782.558
779.028
774.668
769.669
766.09
762.295
757.106
752.982
749.83
745.556
740.532
737.07
733.852
728.761
724.14
720.792
718.35
716.16
711.29
706.268
702.402
698.954
695.772
694.046
692.463
688.854
684.694
680.883
677.528
674.658
671.549
668.416
666.237
663.787
660.29
656.708
653.414
650.291
648.135
646.688
645.041
643.197
640.539
261.966
287.01
314.099
343.094
373.813
405.735
437.838
469.686
501.052
531.781
561.708
590.635
618.343
644.639
669.073
691.295
711.562
730.165
747.29
763.102
777.722
791.236
803.727
815.267
825.761
834.882
841.631
846.127
849.331
851.749
853.492
854.703
855.485
855.997
856.382
856.669
857.246
858.551
860.978
863.912
866.225
867.918
868.761
869.099
869.031
868.447
867.714
866.694
865.566
864.422
863.932
864.076
864.513
864.358
863.784
862.577
860.789
858.612
856.184
853.6
850.955
848.335
845.76
843.485
841.541
839.836
838.319
836.604
834.424
831.721
828.598
825.198
821.661
818.057
814.429
810.803
806.972
803.358
800.604
797.475
793.165
790.485
788.181
784.551
779.668
776.202
772.809
768.01
763.302
759.98
756.093
750.743
746.75
743.569
739.304
734.323
730.904
727.33
722.156
717.803
714.776
712.774
709.604
704.58
700.366
696.926
693.69
690.523
688.236
686.945
684.239
680.315
676.395
672.748
669.538
666.782
664.156
661.7
659.264
656.643
653.84
651.036
648.454
646.621
645.556
644.618
643.454
641.863
570.429
601.764
631.726
660.13
686.57
710.519
732.066
751.532
769.186
785.323
800.052
813.54
825.878
837.042
846.799
854.041
858.765
862.073
864.552
866.382
867.576
868.389
868.882
869.171
869.643
870.788
873.13
876.154
878.669
880.446
881.455
881.856
881.68
881.126
880.325
879.203
877.915
876.828
876.736
877.054
877.401
877.281
876.617
875.488
873.868
871.951
869.888
867.738
865.555
863.375
861.437
859.904
858.81
857.88
857.15
856.154
854.746
852.93
850.778
848.373
845.808
843.153
840.448
837.807
835.289
833.014
831.112
829.327
827.289
824.842
822.019
818.904
815.572
812.092
808.522
804.796
800.909
797.381
794.144
790.215
786.355
784.105
781.461
777.153
773.109
770.34
766.82
761.695
757.674
754.498
750.393
744.956
741.277
738.091
733.756
728.735
725.345
721.742
716.722
712.405
709.576
707.244
703.104
698.695
695.166
692.04
689.009
685.956
683.445
682.031
679.696
675.967
672.113
668.482
665.042
662.154
659.782
657.439
655.037
652.653
650.274
647.906
645.712
643.978
642.772
641.837
640.86
639.693
638.438
826.25
839.394
851.163
861.41
869.042
873.872
877.132
879.599
881.292
882.442
883.16
883.492
883.827
884.792
887.041
890.13
892.736
894.58
895.646
895.957
895.685
895.009
893.898
892.532
891.05
890.512
890.599
890.716
890.459
889.784
888.603
886.946
884.952
882.837
880.646
878.384
876.194
874.312
872.843
871.831
871.046
870.345
869.474
868.247
866.695
864.894
862.931
860.861
858.703
856.54
854.556
852.823
851.355
850.199
849.139
847.932
846.443
844.635
842.529
840.182
837.65
834.996
832.276
829.539
826.956
824.685
822.602
820.461
818.134
815.585
812.781
809.712
806.429
802.958
799.266
795.524
791.97
788.273
784.097
780.814
778.292
774.984
770.474
767.534
764.883
760.98
755.982
752.713
749.56
745.145
739.858
736.558
733.332
728.835
723.828
720.531
716.995
712.15
707.801
704.96
701.822
697.453
693.769
690.678
687.776
684.922
682.034
679.584
677.947
675.467
671.838
668.197
664.748
661.353
658.299
655.908
653.755
651.533
649.3
647.138
645.072
643.168
641.535
640.221
639.15
638.162
637.156
636.17
899.853
900.2
900.327
900.95
902.948
905.943
908.48
910.273
911.114
911.283
910.777
909.747
908.277
906.594
905.446
905.173
904.935
904.467
903.531
902.127
900.24
898.111
895.852
893.502
891.085
888.87
887.051
885.676
884.596
883.685
882.687
881.417
879.842
878.039
876.09
874.02
871.881
869.756
867.797
866.154
864.81
863.724
862.786
861.772
860.554
859.096
857.43
855.597
853.614
851.531
849.463
847.479
845.667
844.111
842.766
841.483
840.106
838.526
836.691
834.597
832.271
829.759
827.099
824.343
821.632
819.082
816.667
814.309
811.959
809.541
806.938
804.091
801.009
797.683
794.148
790.574
786.964
783.052
779.088
775.907
772.869
768.94
765.018
762.513
759.638
755.296
751.021
748.215
744.962
740.219
735.443
732.442
729.115
724.396
719.578
716.425
712.902
708.08
703.743
700.74
697.103
692.897
689.586
686.754
684.027
681.333
678.662
676.423
674.395
671.433
667.945
664.629
661.428
658.206
655.14
652.639
650.555
648.526
646.477
644.485
642.612
640.896
639.366
638.036
636.886
635.86
634.915
634.063
927.355
925.717
923.642
921.983
920.988
920.184
919.171
917.757
915.925
913.707
911.314
908.814
906.251
903.644
901.442
899.678
898.295
897.091
895.853
894.375
892.656
890.766
888.743
886.596
884.385
882.26
880.37
878.779
877.444
876.296
875.176
873.924
872.481
870.86
869.078
867.168
865.171
863.173
861.296
859.604
858.141
856.894
855.767
854.627
853.365
851.933
850.332
848.56
846.642
844.643
842.62
840.651
838.826
837.18
835.673
834.21
832.681
830.994
829.098
826.977
824.644
822.118
819.452
816.734
814.037
811.396
808.842
806.389
803.957
801.424
798.719
795.807
792.663
789.339
785.92
782.32
778.466
774.758
771.422
767.896
763.81
760.504
757.86
754.575
750.115
746.74
744.032
740.564
735.662
731.661
728.77
725.274
720.361
715.971
712.919
709.314
704.397
700.203
697.082
693.262
689.141
685.992
683.316
680.744
678.229
675.901
673.679
670.86
667.606
664.442
661.422
658.439
655.416
652.477
649.916
647.792
645.877
644.006
642.179
640.45
638.854
637.401
636.091
634.918
633.871
632.952
632.17
925.106
922.145
919.078
916.278
913.957
912.031
910.336
908.646
906.822
904.862
902.8
900.629
898.341
896.076
893.996
892.195
890.669
889.341
888.048
886.666
885.155
883.508
881.721
879.808
877.834
875.9
874.096
872.467
871.031
869.751
868.513
867.213
865.797
864.242
862.552
860.737
858.841
856.939
855.099
853.389
851.847
850.465
849.185
847.913
846.57
845.112
843.51
841.76
839.887
837.929
835.941
833.996
832.151
830.428
828.801
827.202
825.544
823.757
821.794
819.633
817.274
814.75
812.107
809.391
806.66
803.988
801.414
798.889
796.334
793.687
790.894
787.922
784.799
781.524
778.026
774.368
770.817
767.316
763.53
759.663
756.519
753.532
749.861
745.783
742.894
740.067
736.345
731.656
728.328
725.403
721.707
716.768
712.927
709.874
706.13
701.142
697.171
693.997
690.121
686.023
682.93
680.351
677.943
675.756
673.625
670.629
667.346
664.259
661.384
658.577
655.746
652.906
650.136
647.588
645.413
643.54
641.797
640.112
638.502
636.993
635.594
634.305
633.13
632.081
631.18
630.44
629.847
629.373
917.19
914.708
912.117
909.517
907.092
904.931
903.061
901.396
899.814
898.219
896.575
894.845
893.012
891.099
889.186
887.363
885.692
884.196
882.829
881.507
880.155
878.726
877.189
875.529
873.763
871.938
870.118
868.359
866.713
865.203
863.795