/*--------------------------------*- C++ -*----------------------------------*\
| =========                 |                                                 |
| \\      /  F ield         | OpenFOAM: The Open Source CFD Toolbox           |
|  \\    /   O peration     | Version:  v1706                                 |
|   \\  /    A nd           | Web:      www.OpenFOAM.com                      |
|    \\/     M anipulation  |                                                 |
\*---------------------------------------------------------------------------*/
FoamFile
{
    version     2.0;
    format      ascii;
    class       volScalarField;
    location    "1.3e-05";
    object      Tov;
}
// * * * * * * * * * * * * * * * * * * * * * * * * * * * * * * * * * * * * * //

dimensions      [0 0 0 1 0 0 0];


internalField   nonuniform List<scalar> 
29871
(
144.4
144.4
144.4
144.4
144.4
144.4
144.4
144.4
144.4
144.4
144.4
144.4
144.4
144.4
144.4
144.4
144.4
144.4
144.4
144.4
144.4
144.4
144.4
144.4
144.4
144.4
144.4
144.4
144.4
144.4
144.4
144.4
144.4
144.4
144.4
144.4
144.4
144.4
144.4
144.4
144.4
144.4
144.4
144.4
144.4
144.4
144.4
144.4
144.4
144.4
144.4
144.4
144.4
144.4
144.4
144.4
144.4
144.4
144.4
144.4
144.4
144.4
144.4
144.4
144.4
144.4
144.4
144.4
144.4
144.4
144.4
144.4
144.4
144.4
144.4
144.4
144.4
144.4
144.4
144.4
144.4
144.4
144.4
144.4
144.4
144.4
144.4
144.4
144.4
144.4
144.4
144.4
144.4
144.4
144.4
144.4
144.4
144.4
144.4
144.4
144.4
144.4
144.4
144.4
144.4
144.4
144.4
144.4
144.4
144.4
144.4
144.4
144.4
144.4
144.4
144.4
144.4
144.4
144.4
144.4
144.4
144.4
144.4
144.4
144.4
144.4
144.4
144.4
144.4
144.4
144.4
144.4
144.4
144.4
144.4
144.4
144.4
144.4
144.4
144.4
144.4
144.4
144.4
144.4
144.4
144.4
144.4
144.4
144.4
144.4
144.4
144.4
144.4
144.4
144.4
144.4
144.4
144.4
144.4
144.4
144.4
144.4
144.4
144.4
144.4
144.4
144.4
144.4
144.4
144.4
144.4
144.4
144.4
144.4
144.4
144.4
144.4
144.4
144.4
144.4
144.4
144.4
144.4
144.4
144.4
144.4
144.4
144.4
144.4
144.4
144.4
144.4
144.4
144.4
144.4
144.4
144.4
144.4
144.4
144.4
144.4
144.4
144.4
144.4
144.4
144.4
144.4
144.4
144.4
144.4
144.4
144.4
144.4
144.4
144.4
144.4
144.4
144.4
144.4
144.4
144.4
144.4
144.4
144.4
144.4
144.4
144.4
144.4
144.4
144.4
144.4
144.4
144.4
144.4
144.4
144.4
144.4
144.4
144.4
144.4
144.4
144.4
144.4
144.4
144.4
144.4
144.4
144.4
144.4
144.4
144.4
144.4
144.4
144.4
144.4
144.4
144.4
144.4
144.4
144.4
144.4
144.4
144.4
144.4
144.4
144.4
144.4
144.4
144.4
144.4
144.4
144.4
144.4
144.4
144.4
144.4
144.4
144.4
144.4
144.4
144.4
144.4
144.4
144.4
144.4
144.4
144.4
144.4
144.4
144.4
144.4
144.4
144.4
144.4
144.4
144.4
144.4
144.4
144.4
144.4
144.4
144.4
144.4
144.4
144.4
144.4
144.4
144.4
144.4
144.4
144.4
144.4
144.4
144.4
144.4
144.4
144.4
144.4
144.4
144.4
144.4
144.4
144.4
144.4
144.4
144.4
144.4
144.4
144.4
144.4
144.4
144.4
144.4
144.4
144.4
144.4
144.4
144.4
144.4
144.4
144.4
144.4
144.4
144.4
144.4
144.4
144.4
144.4
144.4
144.4
144.4
144.4
144.4
144.4
144.4
144.4
144.4
144.4
144.4
144.4
144.4
144.4
144.4
144.4
144.4
144.4
144.4
144.4
144.4
144.4
144.4
144.4
144.4
144.4
144.4
144.4
144.4
144.4
144.4
144.4
144.4
144.4
144.4
144.4
144.4
144.4
144.4
144.4
144.4
144.4
144.4
144.4
144.4
144.4
144.4
144.4
144.4
144.4
144.4
144.4
144.4
144.4
144.4
144.4
144.4
144.4
144.4
144.4
144.4
144.4
144.4
144.4
144.4
144.4
144.4
144.4
144.4
144.4
144.4
144.4
144.4
144.4
144.4
144.4
144.4
144.4
144.4
144.4
144.4
144.4
144.4
144.4
144.4
144.4
144.4
144.4
144.4
144.4
144.4
144.4
144.4
144.4
144.4
144.4
144.4
144.4
144.4
144.4
144.4
144.4
144.4
144.4
144.4
144.4
144.4
144.4
144.4
144.4
144.4
144.4
144.4
144.4
144.4
144.4
144.4
144.4
144.4
144.4
144.4
144.4
144.4
144.4
144.4
144.4
144.4
144.4
144.4
144.4
144.4
144.4
144.4
144.4
144.4
144.4
144.4
144.4
144.4
144.4
144.4
144.4
144.4
144.4
144.4
144.4
144.4
144.4
144.4
144.4
144.4
144.4
144.4
144.4
144.4
144.4
144.4
144.4
144.4
144.4
144.4
144.4
144.4
144.4
144.4
144.4
144.4
144.4
144.4
144.4
144.4
144.4
144.4
144.4
144.4
144.4
144.4
144.4
144.4
144.4
144.4
144.4
144.4
144.4
144.4
144.4
144.4
144.4
144.4
144.4
144.4
144.4
144.4
144.4
144.4
144.4
144.4
144.4
144.4
144.4
144.4
144.4
144.4
144.4
144.4
144.4
144.4
144.4
144.4
144.4
144.4
144.4
144.4
144.4
144.4
144.4
144.4
144.4
144.4
144.4
144.4
144.4
144.4
144.4
144.4
144.4
144.4
144.4
144.4
144.4
144.4
144.4
144.4
144.4
144.4
144.4
144.4
144.4
144.4
144.4
144.4
144.4
144.4
144.4
144.4
144.4
144.4
144.4
144.4
144.4
144.4
144.4
144.4
144.4
144.4
144.4
144.4
144.4
144.4
144.4
144.4
144.4
144.4
144.4
144.4
144.4
144.4
144.4
144.4
144.4
144.4
144.4
144.4
144.4
144.4
144.4
144.4
144.4
144.4
144.4
144.4
144.4
144.4
144.4
144.4
144.4
144.4
144.4
144.4
144.4
144.4
144.4
144.4
144.4
144.4
144.4
144.4
144.4
144.4
144.4
144.4
144.4
144.4
144.4
144.4
144.4
144.4
144.4
144.4
144.4
144.4
144.4
144.4
144.4
144.4
144.4
144.4
144.4
144.4
144.4
144.4
144.4
144.4
144.4
144.4
144.4
144.4
144.4
144.4
144.4
144.4
144.4
144.4
144.4
144.4
144.4
144.4
144.4
144.4
144.4
144.4
144.4
144.4
144.4
144.4
144.4
144.4
144.4
144.4
144.4
144.4
144.4
144.4
144.4
144.4
144.4
144.4
144.4
144.4
144.4
144.4
144.4
144.4
144.4
144.4
144.4
144.4
144.4
144.4
144.4
144.4
144.4
144.4
144.4
144.4
144.4
144.4
144.4
144.4
144.4
144.4
144.4
144.4
144.4
144.4
144.4
144.4
144.4
144.4
144.4
144.4
144.4
144.4
144.4
144.4
144.4
144.4
144.4
144.4
144.4
144.4
144.4
144.4
144.4
144.4
144.4
144.4
144.4
144.4
144.4
144.4
144.4
144.4
144.4
144.4
144.4
144.4
144.4
144.4
144.4
144.4
144.4
144.4
144.4
144.4
144.4
144.4
144.4
144.4
144.4
144.4
144.4
144.4
144.4
144.4
144.4
144.4
144.4
144.4
144.4
144.4
144.4
144.4
144.4
144.4
144.4
144.4
144.4
144.4
144.4
144.4
144.4
144.4
144.4
144.4
144.4
144.4
144.4
144.4
144.4
144.4
144.4
144.4
144.4
144.4
144.4
144.4
144.4
144.4
144.4
144.4
144.4
144.4
144.4
144.4
144.4
144.4
144.4
144.4
144.4
144.4
144.4
144.4
144.4
144.4
144.4
144.4
144.4
144.4
144.4
144.4
144.4
144.4
144.4
144.4
144.4
144.4
144.4
144.4
144.4
144.4
144.4
144.4
144.4
144.4
144.4
144.4
144.4
144.4
144.4
144.4
144.4
144.4
144.4
144.4
144.4
144.4
144.4
144.4
144.4
144.4
144.4
144.4
144.4
144.4
144.4
144.4
144.4
144.4
144.4
144.4
144.4
144.4
144.4
144.4
144.4
144.4
144.4
144.4
144.4
144.4
144.4
144.4
144.4
144.4
144.4
144.4
144.4
144.4
144.4
144.4
144.4
144.4
144.4
144.4
144.4
144.4
144.4
144.4
144.4
144.4
144.4
144.4
144.4
144.4
144.4
144.4
144.4
144.4
144.4
144.4
144.4
144.4
144.4
144.4
144.4
144.4
144.4
144.4
144.4
144.4
144.4
144.4
144.4
144.4
144.4
144.4
144.4
144.4
144.4
144.4
144.4
144.4
144.4
144.4
144.4
144.4
144.4
144.4
144.4
144.4
144.4
144.4
144.4
144.4
144.4
144.4
144.4
144.4
144.4
144.4
144.4
144.4
144.4
144.4
144.4
144.4
144.4
144.4
144.4
144.4
144.4
144.4
144.4
144.4
144.4
144.4
144.4
144.4
144.4
144.4
144.4
144.4
144.4
144.4
144.4
144.4
144.4
144.4
144.4
144.4
144.4
144.4
144.4
144.4
144.4
144.4
144.4
144.4
144.4
144.4
144.4
144.4
144.4
144.4
144.4
144.4
144.4
144.4
144.4
144.4
144.4
144.4
144.4
144.4
144.4
144.4
144.4
144.4
144.4
144.4
144.4
144.4
144.4
144.4
144.4
144.4
144.4
144.4
144.4
144.4
144.4
144.4
144.4
144.4
144.4
144.4
144.4
144.4
144.4
144.4
144.4
144.4
144.4
144.4
144.4
144.4
144.4
144.4
144.4
144.4
144.4
144.4
144.4
144.4
144.4
144.4
144.4
144.4
144.4
144.4
144.4
144.4
144.4
144.4
144.4
144.4
144.4
144.4
144.4
144.4
144.4
144.4
144.4
144.4
144.4
144.4
144.4
144.4
144.4
144.4
144.4
144.4
144.4
144.4
144.4
144.4
144.4
144.4
144.4
144.4
144.4
144.4
144.4
144.4
144.4
144.4
144.4
144.4
144.4
144.4
144.4
144.4
144.4
144.4
144.4
144.4
144.4
144.4
144.4
144.4
144.4
144.4
144.4
144.4
144.4
144.4
144.4
144.4
144.4
144.4
144.4
144.4
144.4
144.4
144.4
144.4
144.4
144.4
144.4
144.4
144.4
144.4
144.4
144.4
144.4
144.4
144.4
144.4
144.4
144.4
144.4
144.4
144.4
144.4
144.4
144.4
144.4
144.4
144.4
144.4
144.4
144.4
144.4
144.4
144.4
144.4
144.4
144.4
144.4
144.4
144.4
144.4
144.4
144.4
144.4
144.4
144.4
144.4
144.4
144.4
144.4
144.4
144.4
144.4
144.4
144.4
144.4
144.4
144.4
144.4
144.4
144.4
144.4
144.4
144.4
144.4
144.4
144.4
144.4
144.4
144.4
144.4
144.4
144.4
144.4
144.4
144.4
144.4
144.4
144.4
144.4
144.4
144.4
144.4
144.4
144.4
144.4
144.4
144.4
144.4
144.4
144.4
144.4
144.4
144.4
144.4
144.4
144.4
144.4
144.4
144.4
144.4
144.4
144.4
144.4
144.4
144.4
144.4
144.4
144.4
144.4
144.4
144.4
144.4
144.4
144.4
144.4
144.4
144.4
144.4
144.4
144.4
144.4
144.4
144.4
144.4
144.4
144.4
144.4
144.4
144.4
144.4
144.4
144.4
144.401
144.401
144.401
144.401
144.401
144.401
144.401
144.401
144.401
144.401
144.401
144.401
144.401
144.401
144.401
144.401
144.401
144.401
144.401
144.401
144.401
144.401
144.401
144.401
144.401
144.401
144.401
144.401
144.401
144.401
144.401
144.401
144.401
144.4
144.4
144.4
144.4
144.4
144.4
144.4
144.4
144.4
144.4
144.4
144.4
144.4
144.4
144.4
144.4
144.4
144.4
144.4
144.4
144.4
144.4
144.4
144.4
144.4
144.4
144.4
144.4
144.4
144.4
144.4
144.4
144.4
144.4
144.4
144.4
144.4
144.4
144.4
144.4
144.4
144.4
144.4
144.4
144.4
144.4
144.4
144.4
144.4
144.4
144.4
144.4
144.4
144.4
144.4
144.4
144.4
144.4
144.4
144.401
144.401
144.401
144.401
144.401
144.401
144.401
144.401
144.401
144.402
144.402
144.402
144.402
144.402
144.403
144.403
144.403
144.403
144.404
144.404
144.404
144.405
144.405
144.406
144.406
144.406
144.407
144.407
144.407
144.408
144.408
144.408
144.408
144.408
144.408
144.408
144.408
144.408
144.408
144.408
144.408
144.407
144.407
144.407
144.407
144.406
144.406
144.405
144.405
144.405
144.404
144.404
144.404
144.403
144.403
144.403
144.402
144.402
144.402
144.401
144.401
144.401
144.401
144.401
144.401
144.4
144.4
144.4
144.4
144.4
144.4
144.4
144.4
144.4
144.4
144.4
144.4
144.4
144.4
144.4
144.4
144.4
144.4
144.4
144.4
144.4
144.4
144.4
144.4
144.4
144.4
144.4
144.4
144.4
144.4
144.4
144.401
144.401
144.401
144.401
144.401
144.401
144.401
144.401
144.401
144.402
144.402
144.402
144.402
144.403
144.403
144.403
144.404
144.404
144.405
144.405
144.406
144.407
144.407
144.408
144.409
144.41
144.412
144.413
144.414
144.416
144.417
144.419
144.421
144.423
144.426
144.428
144.431
144.434
144.437
144.44
144.443
144.445
144.448
144.451
144.453
144.455
144.457
144.459
144.46
144.461
144.462
144.463
144.463
144.462
144.462
144.461
144.46
144.458
144.456
144.454
144.452
144.45
144.447
144.444
144.441
144.439
144.436
144.433
144.43
144.427
144.424
144.422
144.419
144.417
144.414
144.412
144.41
144.409
144.407
144.406
144.405
144.404
144.4
144.4
144.4
144.4
144.4
144.4
144.4
144.4
144.4
144.4
144.4
144.4
144.4
144.4
144.4
144.4
144.4
144.401
144.401
144.401
144.401
144.401
144.401
144.401
144.401
144.401
144.402
144.402
144.402
144.402
144.403
144.403
144.403
144.404
144.404
144.405
144.406
144.406
144.407
144.408
144.409
144.41
144.412
144.413
144.415
144.417
144.419
144.421
144.424
144.426
144.43
144.434
144.438
144.443
144.449
144.455
144.462
144.469
144.477
144.486
144.495
144.505
144.516
144.528
144.541
144.556
144.573
144.591
144.611
144.632
144.653
144.675
144.697
144.718
144.739
144.759
144.778
144.796
144.812
144.826
144.838
144.848
144.856
144.861
144.864
144.864
144.862
144.858
144.851
144.841
144.83
144.816
144.801
144.784
144.766
144.746
144.726
144.705
144.684
144.662
144.641
144.619
144.598
144.578
144.558
144.539
144.52
144.503
144.488
144.474
144.462
144.452
144.444
144.437
144.43
144.4
144.4
144.4
144.401
144.401
144.401
144.401
144.401
144.401
144.401
144.401
144.402
144.402
144.402
144.403
144.403
144.403
144.404
144.404
144.405
144.406
144.406
144.407
144.408
144.409
144.41
144.412
144.413
144.415
144.417
144.419
144.422
144.425
144.428
144.431
144.435
144.44
144.445
144.451
144.457
144.465
144.474
144.484
144.495
144.507
144.52
144.535
144.551
144.569
144.591
144.615
144.643
144.675
144.712
144.753
144.799
144.849
144.904
144.962
145.024
145.089
145.16
145.238
145.326
145.425
145.537
145.662
145.798
145.943
146.096
146.252
146.41
146.567
146.721
146.87
147.012
147.145
147.269
147.382
147.482
147.568
147.638
147.692
147.729
147.748
147.749
147.732
147.698
147.647
147.579
147.495
147.398
147.287
147.164
147.032
146.892
146.746
146.596
146.442
146.287
146.131
145.976
145.824
145.675
145.531
145.391
145.259
145.135
145.023
144.925
144.841
144.771
144.712
144.662
144.619
144.581
144.401
144.401
144.401
144.401
144.402
144.402
144.402
144.402
144.403
144.403
144.404
144.404
144.405
144.406
144.407
144.408
144.409
144.41
144.412
144.413
144.415
144.417
144.42
144.423
144.426
144.43
144.434
144.438
144.444
144.449
144.456
144.463
144.472
144.482
144.493
144.505
144.52
144.535
144.553
144.573
144.594
144.619
144.646
144.677
144.713
144.755
144.803
144.857
144.918
144.987
145.064
145.148
145.241
145.343
145.458
145.587
145.737
145.911
146.112
146.344
146.606
146.9
147.223
147.575
147.954
148.357
148.783
149.236
149.724
150.266
150.881
151.582
152.372
153.244
154.186
155.181
156.211
157.256
158.301
159.33
160.332
161.296
162.21
163.066
163.855
164.569
165.2
165.739
166.179
166.513
166.736
166.841
166.84
166.729
166.503
166.165
165.723
165.182
164.552
163.836
163.041
162.18
161.265
160.31
159.322
158.31
157.278
156.237
155.197
154.166
153.154
152.167
151.211
150.298
149.443
148.673
148.005
147.442
146.972
146.575
146.234
145.935
145.668
144.405
144.406
144.407
144.409
144.41
144.412
144.414
144.416
144.419
144.422
144.425
144.429
144.434
144.439
144.445
144.452
144.459
144.468
144.478
144.49
144.503
144.518
144.535
144.554
144.576
144.601
144.628
144.659
144.694
144.734
144.778
144.829
144.888
144.954
145.03
145.115
145.212
145.319
145.438
145.57
145.716
145.88
146.067
146.282
146.53
146.816
147.144
147.516
147.935
148.402
148.919
149.485
150.103
150.781
151.539
152.406
153.412
154.582
155.93
157.464
159.181
161.076
163.133
165.338
167.672
170.123
172.682
175.364
178.24
181.446
185.096
189.223
193.786
198.7
203.857
209.151
214.476
219.738
224.865
229.803
234.518
238.974
243.135
246.969
250.453
253.565
256.28
258.572
260.416
261.777
262.664
263.032
262.97
262.451
261.413
259.891
257.916
255.517
252.716
249.516
245.925
241.98
237.742
233.257
228.552
223.643
218.549
213.298
207.936
202.511
197.062
191.624
186.236
180.966
175.939
171.363
167.393
164.039
161.205
158.768
156.621
154.688
152.926
144.436
144.442
144.449
144.457
144.467
144.478
144.491
144.506
144.523
144.543
144.566
144.592
144.622
144.656
144.696
144.74
144.791
144.848
144.914
144.99
145.076
145.175
145.288
145.416
145.56
145.722
145.903
146.105
146.333
146.591
146.885
147.223
147.608
148.048
148.547
149.108
149.734
150.429
151.194
152.034
152.965
154.012
155.207
156.581
158.162
159.969
162.016
164.311
166.856
169.646
172.675
175.933
179.427
183.204
187.393
192.171
197.668
203.94
210.978
218.729
227.109
236.01
245.314
254.91
264.704
274.631
284.661
294.866
305.557
317.394
330.607
344.982
360.123
375.612
391.078
406.219
420.794
434.629
447.624
459.759
471.045
481.468
490.981
499.56
507.203
513.907
519.654
524.424
528.194
530.85
532.467
533.021
532.77
531.483
528.993
525.5
521.047
515.671
509.38
502.116
493.823
484.549
474.428
463.519
451.808
439.271
425.882
411.624
396.549
380.726
364.198
346.971
329.089
310.738
292.394
275.169
259.87
246.489
234.608
223.773
213.648
204.021
194.795
144.63
144.67
144.717
144.77
144.832
144.904
144.986
145.081
145.191
145.319
145.465
145.634
145.827
146.046
146.295
146.577
146.897
147.263
147.682
148.163
148.714
149.343
150.056
150.861
151.762
152.765
153.877
155.114
156.501
158.072
159.861
161.896
164.201
166.795
169.69
172.893
176.403
180.214
184.324
188.751
193.572
198.94
205.002
211.859
219.552
228.081
237.412
247.486
258.219
269.512
281.268
293.408
305.924
318.999
333.175
349.005
366.569
385.637
405.87
426.909
448.397
469.988
491.375
512.34
532.765
552.606
571.884
590.778
609.933
632.064
656.679
682.219
707.498
731.719
754.399
775.279
794.261
811.344
826.616
840.263
852.473
863.318
872.738
880.776
887.538
893.073
897.437
900.692
902.946
903.736
903.443
902.638
901.019
898.296
894.641
889.996
884.452
878.203
871.395
863.736
854.946
844.878
833.814
821.771
808.541
794.043
778.108
760.351
740.647
718.953
695.112
668.817
639.678
607.71
573.45
540.418
510.945
484.098
458.489
433.074
407.23
380.598
352.998
324.62
296.579
145.85
146.1
146.389
146.723
147.106
147.547
148.056
148.643
149.322
150.105
151.003
152.029
153.193
154.507
155.984
157.643
159.518
161.647
164.067
166.814
169.918
173.401
177.28
181.563
186.25
191.34
196.846
202.836
209.441
216.792
224.974
234.027
243.949
254.712
266.259
278.512
291.376
304.747
318.551
332.831
347.878
364.24
382.135
401.498
422.125
443.765
466.156
489.029
512.108
535.133
557.905
580.311
602.406
624.533
648.449
675.59
704.79
734.76
764.546
793.465
821.023
846.86
870.741
892.647
912.692
931.048
947.854
963.131
976.922
988.94
999.265
1008.09
1015.57
1021.74
1026.66
1030.47
1033.28
1035.32
1036.84
1038.07
1039.03
1039.74
1039.92
1039.73
1039.17
1038.19
1036.84
1035.12
1033.03
1030.54
1027.63
1024.44
1020.87
1017.02
1012.96
1008.64
1004.22
999.677
994.248
988.49
982.598
976.692
970.791
964.337
957.461
950.357
943.017
935.233
927.146
918.405
908.897
898.64
887.482
875.516
862.346
847.573
831.171
812.655
791.237
766.337
737.515
704.206
665.526
620.844
571.313
153.153
154.622
156.302
158.216
160.394
162.876
165.71
168.945
172.624
176.786
181.461
186.673
192.433
198.749
205.642
213.18
221.486
230.674
240.817
251.945
264.047
277.08
290.975
305.637
320.952
336.812
353.217
370.393
388.749
408.422
429.327
451.277
474.057
497.443
521.209
545.12
568.944
592.484
615.64
638.536
661.864
687.836
715.826
744.888
774.204
803.146
831.239
858.119
883.486
907.125
928.972
949.126
967.747
984.917
1000.57
1014.59
1027.11
1038.25
1048.08
1056.65
1064.02
1070.14
1075.02
1079.02
1082.51
1085.72
1088.63
1091.24
1093.53
1095.42
1096.93
1098.1
1099
1099.5
1099.44
1099.08
1098.25
1096.89
1095.08
1093.15
1090.84
1088.5
1086.23
1083.73
1080.94
1078.19
1075.32
1072.24
1069.17
1065.88
1062.25
1058.67
1055.08
1051.01
1046.68
1042.56
1038.59
1034.08
1028.94
1023.99
1019.02
1014.28
1008.8
1002.82
997.231
991.744
986.156
980.948
975.433
968.972
962.656
956.412
950.596
944.043
936.989
930.704
924.414
917.287
909.028
899.617
889.146
877.706
864.874
850.071
832.714
185.152
191.383
198.335
206.031
214.5
223.816
234.092
245.434
257.906
271.524
286.264
302.068
318.847
336.488
354.869
373.965
393.949
415.111
437.501
460.986
485.362
510.404
535.888
561.591
587.285
612.744
637.793
662.474
687.462
714.426
742.828
771.902
800.978
829.527
857.146
883.533
908.44
931.661
953.103
972.849
991.004
1007.66
1022.68
1036.24
1048.5
1059.56
1069.47
1078.27
1086
1092.59
1098.04
1102.59
1106.64
1110.43
1113.96
1117.25
1120.29
1123.06
1125.62
1127.96
1130.02
1131.72
1133.07
1133.88
1133.85
1133.59
1133.09
1132.4
1131.66
1130.85
1129.98
1129.04
1128.07
1127.12
1126.17
1125.23
1124.31
1123.22
1121.88
1120.24
1118.23
1115.62
1112.99
1110.44
1107.62
1104.53
1101.49
1098.39
1095.07
1091.82
1088.44
1084.75
1081.17
1077.7
1073.7
1069.47
1065.5
1061.75
1057.34
1052.45
1047.87
1043.29
1038.94
1033.69
1027.94
1022.7
1017.58
1012.37
1007.67
1002.65
996.601
990.756
985.016
979.838
973.787
967.516
961.63
956.12
949.968
943.03
936.07
929.051
921.927
914.753
907.431
900.351
311.281
330.32
350.447
371.533
393.527
416.547
440.787
466.222
492.673
519.901
547.66
575.711
603.825
631.779
659.374
686.588
714.083
743.082
773.086
803.416
833.468
862.753
890.893
917.607
942.668
965.885
987.197
1006.64
1024.29
1040.06
1054.23
1066.97
1078.43
1088.7
1097.85
1105.91
1112.89
1118.71
1123.51
1127.69
1131.52
1135.06
1138.4
1141.51
1144.44
1147.19
1149.76
1152.12
1154.23
1156
1157.25
1157.92
1158.25
1158.32
1158.29
1158.25
1158.1
1157.98
1157.91
1157.92
1157.99
1158.15
1158.46
1158.91
1158.98
1158.76
1158.11
1157.11
1155.86
1154.48
1153.02
1151.51
1149.95
1148.39
1146.85
1145.39
1144.05
1142.61
1140.99
1139.33
1137.18
1134.48
1131.81
1129.07
1125.95
1122.61
1119.45
1116.16
1112.57
1109.2
1105.75
1101.93
1098.27
1094.8
1090.85
1086.67
1082.77
1079.04
1074.55
1070
1065.7
1061.43
1057.4
1052.31
1047
1042.1
1037.23
1032.33
1028.01
1023.49
1018.03
1012.52
1007.07
1001.94
996.564
990.903
985.268
980.23
974.899
968.71
962.606
956.355
949.925
943.537
937.04
930.868
924.768
918.175
587.031
617.922
648.676
679.095
709.117
739.299
770.606
802.594
834.646
866.191
896.748
925.942
953.498
979.199
1002.89
1024.47
1043.92
1061.19
1076.56
1090.27
1102.5
1113.4
1123.05
1131.52
1138.83
1144.92
1149.9
1154.16
1157.96
1161.45
1164.69
1167.71
1170.52
1173.15
1175.57
1177.77
1179.66
1181.09
1181.93
1182.35
1182.54
1182.67
1182.7
1182.68
1182.7
1182.74
1182.87
1183.09
1183.43
1183.97
1184.7
1185.46
1185.84
1185.7
1185.3
1184.72
1183.97
1183.13
1182.29
1181.49
1180.75
1180.14
1179.73
1179.46
1179.12
1178.63
1177.81
1176.61
1175.13
1173.45
1171.63
1169.73
1167.79
1165.82
1163.85
1161.95
1160.16
1158.38
1156.75
1155.1
1152.95
1150.61
1148.42
1145.88
1142.86
1139.84
1136.93
1133.68
1130.19
1127
1123.66
1119.89
1116.31
1112.91
1109.07
1105
1101.22
1097.44
1093
1088.76
1084.66
1080.65
1076.68
1071.66
1066.74
1062.08
1057.36
1052.53
1048.15
1043.79
1038.76
1033.36
1027.88
1022.51
1017.2
1011.73
1006.17
1000.84
995.437
989.724
983.859
977.982
972.014
966.253
960.636
954.994
949.392
943.592
933.127
963.592
992.152
1018.63
1042.84
1064.63
1083.92
1100.95
1116
1129.3
1141.04
1151.37
1160.4
1168.18
1174.66
1179.93
1184.36
1188.25
1191.79
1195.04
1198.05
1200.82
1203.35
1205.65
1207.62
1209.13
1209.98
1210.35
1210.53
1210.63
1210.63
1210.61
1210.59
1210.62
1210.72
1210.91
1211.26
1211.84
1212.6
1213.21
1213.21
1213
1212.52
1211.88
1211.17
1210.43
1209.73
1209.05
1208.5
1208.15
1208.09
1208.13
1208.09
1207.8
1207.22
1206.34
1205.27
1204.07
1202.82
1201.55
1200.32
1199.17
1198.14
1197.34
1196.7
1196.1
1195.43
1194.54
1193.38
1191.98
1190.38
1188.64
1186.78
1184.85
1182.86
1180.87
1178.86
1176.93
1175.19
1173.36
1171.15
1169.17
1167.14
1164.65
1161.77
1159.11
1156.32
1153.07
1149.79
1146.77
1143.51
1139.79
1136.36
1133.05
1129.33
1125.35
1121.69
1117.92
1113.61
1109.59
1105.67
1101.96
1097.78
1092.99
1088.49
1084.07
1079.53
1074.79
1070.3
1066.01
1061.36
1056.09
1050.71
1045.25
1039.85
1034.47
1029.02
1023.55
1018.03
1012.4
1006.66
1000.84
994.99
989.236
983.551
977.815
972.01
966.081
1172.04
1183.09
1192.66
1200.87
1207.69
1213.18
1217.73
1221.69
1225.24
1228.48
1231.41
1234.08
1236.49
1238.56
1240.17
1241.08
1241.45
1241.62
1241.73
1241.77
1241.77
1241.78
1241.83
1241.95
1242.21
1242.71
1243.42
1244.02
1244.02
1243.78
1243.28
1242.59
1241.81
1241.06
1240.29
1239.56
1238.97
1238.65
1238.55
1238.54
1238.34
1237.88
1237.18
1236.25
1235.16
1234.01
1232.86
1231.73
1230.66
1229.7
1229
1228.55
1228.26
1227.96
1227.62
1227.08
1226.31
1225.35
1224.26
1223.08
1221.85
1220.6
1219.39
1218.27
1217.3
1216.44
1215.66
1214.82
1213.79
1212.55
1211.11
1209.49
1207.72
1205.84
1203.89
1201.87
1199.79
1197.78
1195.86
1193.8
1191.66
1189.82
1187.79
1185.28
1182.7
1180.3
1177.57
1174.37
1171.38
1168.51
1165.3
1161.69
1158.46
1155.25
1151.63
1147.75
1144.25
1140.57
1136.43
1132.52
1128.79
1125.17
1120.86
1116.53
1112.36
1108.14
1103.76
1099.16
1094.64
1090.39
1085.93
1080.84
1075.59
1070.21
1064.72
1059.35
1053.99
1048.53
1042.97
1037.34
1031.64
1025.88
1020.1
1014.33
1008.56
1002.71
996.74
990.639
984.432
1267.66
1270.11
1272.23
1273.86
1274.76
1275.07
1275.18
1275.27
1275.27
1275.26
1275.27
1275.31
1275.47
1275.87
1276.54
1277.14
1277.14
1276.88
1276.36
1275.64
1274.87
1274.1
1273.3
1272.6
1272.13
1271.96
1271.86
1271.61
1271.13
1270.42
1269.47
1268.37
1267.19
1266.02
1264.86
1263.76
1262.83
1262.16
1261.72
1261.38
1261.04
1260.6
1260
1259.21
1258.27
1257.23
1256.15
1255.04
1253.93
1252.93
1252.1
1251.44
1250.91
1250.45
1249.94
1249.3
1248.5
1247.54
1246.45
1245.25
1243.99
1242.7
1241.42
1240.2
1239.09
1238.09
1237.12
1236.08
1234.91
1233.57
1232.05
1230.38
1228.59
1226.7
1224.7
1222.64
1220.6
1218.53
1216.35
1214.31
1212.44
1210.35
1207.88
1205.65
1203.37
1200.68
1197.65
1194.97
1192.2
1189.04
1185.6
1182.6
1179.49
1175.96
1172.23
1168.89
1165.35
1161.36
1157.52
1153.97
1150.29
1146.16
1142.2
1138.28
1134.23
1130
1125.53
1121.08
1116.87
1112.48
1107.53
1102.42
1097.15
1091.7
1086.28
1080.97
1075.57
1070.03
1064.41
1058.73
1053.02
1047.29
1041.53
1035.72
1029.8
1023.72
1017.5
1011.14
1310.84
1310.75
1310.76
1310.98
1311.51
1311.99
1311.92
1311.56
1310.93
1310.14
1309.36
1308.49
1307.67
1307.06
1306.75
1306.58
1306.27
1305.77
1305.02
1304.07
1302.98
1301.85
1300.72
1299.61
1298.62
1297.89
1297.39
1297.02
1296.66
1296.23
1295.65
1294.89
1293.97
1292.95
1291.88
1290.76
1289.67
1288.68
1287.86
1287.21
1286.66
1286.14
1285.59
1284.93
1284.13
1283.2
1282.18
1281.09
1279.95
1278.81
1277.74
1276.78
1275.95
1275.24
1274.59
1273.91
1273.15
1272.26
1271.24
1270.1
1268.86
1267.56
1266.21
1264.87
1263.58
1262.38
1261.24
1260.11
1258.92
1257.63
1256.2
1254.63
1252.94
1251.12
1249.19
1247.19
1245.15
1243.03
1240.87
1238.88
1236.93
1234.77
1232.49
1230.46
1228.25
1225.62
1222.89
1220.45
1217.78
1214.69
1211.51
1208.72
1205.7
1202.26
1198.72
1195.56
1192.15
1188.29
1184.53
1181.1
1177.42
1173.52
1169.81
1166.09
1162.21
1158.1
1153.75
1149.45
1145.28
1140.81
1136.04
1131.07
1125.88
1120.5
1115.09
1109.77
1104.4
1098.92
1093.33
1087.69
1082.02
1076.32
1070.57
1064.73
1058.77
1052.63
1046.32
1039.86
1344.99
1343.98
1343.13
1342.58
1342.19
1341.72
1341.07
1340.21
1339.18
1338.06
1336.92
1335.81
1334.77
1333.96
1333.43
1333.06
1332.72
1332.32
1331.79
1331.1
1330.27
1329.35
1328.37
1327.37
1326.44
1325.64
1324.99
1324.45
1323.96
1323.44
1322.83
1322.09
1321.22
1320.24
1319.17
1318.06
1316.94
1315.88
1314.92
1314.08
1313.33
1312.63
1311.92
1311.14
1310.27
1309.29
1308.23
1307.09
1305.91
1304.73
1303.59
1302.53
1301.58
1300.71
1299.9
1299.07
1298.18
1297.19
1296.1
1294.91
1293.63
1292.28
1290.9
1289.52
1288.18
1286.9
1285.66
1284.42
1283.14
1281.78
1280.3
1278.7
1276.99
1275.16
1273.25
1271.26
1269.19
1267.11
1265.13
1263.12
1260.97
1258.91
1256.96
1254.81
1252.29
1249.93
1247.64
1245.07
1242.1
1239.26
1236.62
1233.69
1230.35
1227.06
1224.04
1220.73
1216.98
1213.37
1210.03
1206.4
1202.65
1199.12
1195.57
1191.82
1187.81
1183.62
1179.48
1175.19
1170.76
1166.13
1161.25
1156.12
1150.82
1145.44
1140.11
1134.76
1129.32
1123.79
1118.19
1112.56
1106.88
1101.13
1095.27
1089.26
1083.08
1076.71
1070.16
1372.33
1371.14
1370.15
1369.46
1368.97
1368.54
1368.08
1367.51
1366.81
1366.03
1365.18
1364.29
1363.44
1362.7
1362.13
1361.67
1361.27
1360.86
1360.37
1359.75
1359.03
1358.21
1357.31
1356.36
1355.43
1354.57
1353.79
1353.1
1352.44
1351.79
1351.07
1350.26
1349.35
1348.33
1347.24
1346.08
1344.91
1343.77
1342.69
1341.69
1340.77
1339.9
1339.03
1338.12
1337.14
1336.09
1334.97
1333.78
1332.56
1331.33
1330.13
1329
1327.95
1326.97
1326.03
1325.09
1324.09
1323.03
1321.88
1320.64
1319.33
1317.96
1316.56
1315.17
1313.8
1312.48
1311.19
1309.9
1308.57
1307.18
1305.68
1304.08
1302.38
1300.59
1298.7
1296.73
1294.76
1292.81
1290.81
1288.75
1286.83
1284.92
1282.82
1280.52
1278.43
1276.26
1273.81
1271.04
1268.52
1265.98
1263.15
1259.94
1256.92
1254.01
1250.78
1247.13
1243.7
1240.43
1236.86
1233.21
1229.8
1226.36
1222.71
1218.81
1214.83
1210.56
1206.3
1201.96
1197.4
1192.57
1187.49
1182.26
1176.93
1171.59
1166.24
1160.84
1155.36
1149.81
1144.21
1138.55
1132.8
1126.92
1120.87
1114.64
1108.21
1101.6
1094.81
1087.86
1401.4
1400.49
1399.59
1398.81
1398.19
1397.71
1397.31
1396.91
1396.47
1395.94
1395.34
1394.66
1393.92
1393.19
1392.5
1391.9
1391.37
1390.89
1390.4
1389.86
1389.24
1388.53
1387.72
1386.83
1385.88
1384.93
1383.99
1383.1
1382.26
1381.45
1380.64
1379.78
1378.86
1377.86
1376.77
1375.61
1374.39
1373.15
1371.93
1370.74
1369.62
1368.56
1367.53
1366.52
1365.49
1364.42
1363.29
1362.1
1360.86
1359.6
1358.34
1357.1
1355.92
1354.81
1353.75
1352.73
1351.7
1350.64
1349.52
1348.33
1347.07
1345.75
1344.38
1343
1341.61
1340.26
1338.94
1337.64
1336.34
1335.01
1333.61
1332.13
1330.56
1328.91
1327.16
1325.34
1323.49
1321.61
1319.67
1317.74
1315.89
1314.02
1312.01
1309.95
1308.02
1305.96
1303.64
1301.13
1298.83
1296.39
1293.67
1290.63
1287.85
1285
1281.85
1278.32
1275.05
1271.83
1268.31
1264.73
1261.4
1258.03
1254.42
1250.74
1246.59
1242.4
1238.22
1233.9
1229.36
1224.57
1219.53
1214.34
1209.05
1203.72
1198.39
1193.01
1187.57
1182.07
1176.5
1170.86
1165.11
1159.2
1153.11
1146.82
1140.35
1133.7
1126.86
1119.87
1431.03
1430.39
1429.72
1429.04
1428.42
1427.89
1427.44
1427.04
1426.66
1426.26
1425.8
1425.28
1424.69
1424.03
1423.36
1422.69
1422.06
1421.47
1420.89
1420.31
1419.69
1419.01
1418.24
1417.39
1416.47
1415.48
1414.47
1413.45
1412.45
1411.47
1410.51
1409.55
1408.55
1407.5
1406.39
1405.2
1403.96
1402.66
1401.35
1400.04
1398.77
1397.54
1396.36
1395.22
1394.09
1392.96
1391.8
1390.6
1389.37
1388.1
1386.81
1385.53
1384.28
1383.07
1381.93
1380.83
1379.76
1378.69
1377.59
1376.45
1375.25
1374
1372.69
1371.35
1370
1368.66
1367.35
1366.06
1364.79
1363.51
1362.2
1360.83
1359.4
1357.89
1356.3
1354.64
1352.92
1351.15
1349.32
1347.51
1345.73
1343.91
1342
1340.13
1338.29
1336.32
1334.14
1331.89
1329.73
1327.39
1324.77
1321.94
1319.31
1316.53
1313.44
1310.02
1306.88
1303.7
1300.2
1296.68
1293.38
1290.01
1286.52
1282.73
1278.63
1274.53
1270.35
1266.02
1261.49
1256.72
1251.71
1246.54
1241.28
1235.97
1230.65
1225.3
1219.9
1214.43
1208.89
1203.26
1197.5
1191.56
1185.43
1179.11
1172.61
1165.93
1159.09
1152.08
1460.42
1459.93
1459.42
1458.89
1458.39
1457.92
1457.5
1457.11
1456.73
1456.32
1455.88
1455.37
1454.8
1454.18
1453.52
1452.84
1452.17
1451.5
1450.83
1450.15
1449.43
1448.65
1447.8
1446.87
1445.87
1444.82
1443.72
1442.61
1441.5
1440.39
1439.29
1438.18
1437.04
1435.86
1434.63
1433.34
1432
1430.63
1429.24
1427.86
1426.51
1425.2
1423.93
1422.7
1421.49
1420.28
1419.06
1417.81
1416.55
1415.26
1413.97
1412.69
1411.45
1410.25
1409.1
1407.99
1406.91
1405.83
1404.72
1403.59
1402.41
1401.19
1399.92
1398.64
1397.35
1396.08
1394.82
1393.59
1392.37
1391.13
1389.87
1388.56
1387.19
1385.75
1384.24
1382.66
1381.02
1379.32
1377.62
1375.9
1374.14
1372.34
1370.57
1368.79
1366.91
1364.85
1362.79
1360.71
1358.46
1355.95
1353.31
1350.77
1348.03
1345
1341.68
1338.63
1335.46
1331.97
1328.49
1325.18
1321.79
1318.29
1314.4
1310.41
1306.33
1302.13
1297.76
1293.22
1288.46
1283.47
1278.32
1273.07
1267.78
1262.49
1257.17
1251.79