/*--------------------------------*- C++ -*----------------------------------*\
| =========                 |                                                 |
| \\      /  F ield         | OpenFOAM: The Open Source CFD Toolbox           |
|  \\    /   O peration     | Version:  v1706                                 |
|   \\  /    A nd           | Web:      www.OpenFOAM.com                      |
|    \\/     M anipulation  |                                                 |
\*---------------------------------------------------------------------------*/
FoamFile
{
    version     2.0;
    format      ascii;
    class       volVectorField;
    location    "1.3e-05";
    object      U;
}
// * * * * * * * * * * * * * * * * * * * * * * * * * * * * * * * * * * * * * //

dimensions      [0 1 -1 0 0 0 0];


internalField   nonuniform List<vector> 
29871
(
(2764.5 -4.3659e-11 6.5878e-15)
(2764.5 -4.67435e-11 4.69147e-15)
(2764.5 -4.76325e-11 5.19124e-15)
(2764.5 -4.81072e-11 4.25484e-15)
(2764.5 -4.75381e-11 9.86058e-16)
(2764.5 -4.54444e-11 1.84011e-15)
(2764.5 -4.37476e-11 2.68741e-15)
(2764.5 -3.92911e-11 2.94682e-15)
(2764.5 -3.80109e-11 3.64094e-15)
(2764.5 -3.702e-11 3.67264e-15)
(2764.5 -3.6206e-11 3.01759e-15)
(2764.5 -3.65293e-11 5.8189e-15)
(2764.5 -3.65395e-11 4.72914e-15)
(2764.5 -3.57587e-11 5.42817e-15)
(2764.5 -3.50021e-11 3.5849e-15)
(2764.5 -3.37192e-11 2.15431e-15)
(2764.5 -3.24008e-11 2.49007e-15)
(2764.5 -3.26427e-11 2.96556e-15)
(2764.5 -3.24873e-11 4.78526e-15)
(2764.5 -3.21751e-11 4.23397e-15)
(2764.5 -3.26379e-11 2.61719e-15)
(2764.5 -3.53447e-11 3.98761e-15)
(2764.5 -3.75027e-11 1.1784e-15)
(2764.5 -4.19224e-11 2.27396e-15)
(2764.5 -4.78775e-11 5.4347e-15)
(2764.5 -5.2439e-11 3.67676e-15)
(2764.5 -5.55414e-11 7.12393e-15)
(2764.5 -5.96307e-11 2.99836e-15)
(2764.5 -6.11068e-11 2.13495e-15)
(2764.5 -6.41499e-11 4.35219e-15)
(2764.5 -6.67099e-11 4.25337e-15)
(2764.5 -6.73586e-11 2.42425e-15)
(2764.5 -6.74903e-11 3.51079e-15)
(2764.5 -6.6079e-11 7.23166e-15)
(2764.5 -6.22267e-11 4.05758e-15)
(2764.5 -5.77436e-11 5.51e-16)
(2764.5 -5.1602e-11 -4.72187e-16)
(2764.5 -4.30137e-11 2.56009e-15)
(2764.5 -3.46318e-11 3.10689e-15)
(2764.5 -2.73262e-11 3.08236e-15)
(2764.5 -2.02702e-11 4.69615e-15)
(2764.5 -1.27131e-11 5.26851e-15)
(2764.5 -3.81788e-12 6.48622e-15)
(2764.5 3.05812e-12 2.79876e-15)
(2764.5 5.14472e-12 2.41409e-15)
(2764.5 4.68305e-12 3.7566e-15)
(2764.5 3.02702e-12 2.47194e-15)
(2764.5 1.13395e-12 3.65384e-17)
(2764.5 -3.71756e-12 3.44463e-16)
(2764.5 -9.25359e-12 4.96872e-15)
(2764.5 -1.82237e-11 4.71869e-15)
(2764.5 -2.68762e-11 1.36065e-15)
(2764.5 -4.24511e-11 2.45617e-15)
(2764.5 -5.29275e-11 4.66872e-15)
(2764.5 -6.63359e-11 4.08755e-15)
(2764.5 -7.63322e-11 4.2411e-15)
(2764.5 -8.50271e-11 4.70525e-15)
(2764.5 -9.56363e-11 6.0587e-15)
(2764.5 -1.06292e-10 4.87311e-15)
(2764.5 -1.17699e-10 4.52826e-15)
(2764.5 -1.25999e-10 2.48288e-15)
(2764.5 -1.29583e-10 1.51827e-15)
(2764.5 -1.32616e-10 2.4183e-15)
(2764.5 -1.30731e-10 -3.22464e-16)
(2764.5 -1.26021e-10 3.17374e-15)
(2764.5 -1.17932e-10 5.6887e-15)
(2764.5 -1.10089e-10 3.30228e-15)
(2764.5 -9.67852e-11 2.5279e-15)
(2764.5 -8.56732e-11 1.3567e-15)
(2764.5 -6.47009e-11 1.73846e-15)
(2764.5 -5.15718e-11 2.63759e-15)
(2764.5 -3.7302e-11 3.52978e-15)
(2764.5 -2.173e-11 1.18776e-15)
(2764.5 -6.641e-12 2.05716e-15)
(2764.5 6.13418e-12 8.0669e-16)
(2764.5 1.92475e-11 4.67249e-15)
(2764.5 3.24077e-11 1.0424e-15)
(2764.5 3.7297e-11 1.58783e-15)
(2764.5 4.4835e-11 1.62309e-15)
(2764.5 5.22672e-11 3.65067e-15)
(2764.5 5.73415e-11 3.86162e-15)
(2764.5 6.78158e-11 3.37781e-15)
(2764.5 7.31243e-11 4.73732e-15)
(2764.5 8.1383e-11 2.0627e-15)
(2764.5 8.46989e-11 4.28118e-15)
(2764.5 8.47298e-11 4.67845e-15)
(2764.5 8.61501e-11 3.5157e-15)
(2764.5 8.3355e-11 3.62611e-15)
(2764.5 7.87658e-11 4.2185e-15)
(2764.5 7.1496e-11 3.32998e-15)
(2764.5 7.19829e-11 3.14605e-15)
(2764.5 7.0172e-11 2.42063e-15)
(2764.5 6.74148e-11 1.73083e-15)
(2764.5 6.45905e-11 2.53074e-15)
(2764.5 5.68386e-11 2.77031e-15)
(2764.5 4.29963e-11 2.49989e-15)
(2764.5 3.30589e-11 2.51579e-15)
(2764.5 1.36566e-11 2.64335e-15)
(2764.5 -1.39749e-11 3.08094e-15)
(2764.5 -3.30411e-11 2.4485e-15)
(2764.5 -5.44062e-11 5.36537e-15)
(2764.5 -8.20565e-11 4.96353e-15)
(2764.5 -1.09947e-10 7.3898e-16)
(2764.5 -1.34704e-10 2.17086e-15)
(2764.5 -1.54099e-10 8.75078e-16)
(2764.5 -1.06627e-10 9.62404e-15)
(2764.5 -1.08668e-10 7.95837e-15)
(2764.5 -1.10829e-10 1.18e-14)
(2764.5 -1.14862e-10 1.12077e-14)
(2764.5 -1.1697e-10 1.07297e-14)
(2764.5 -1.17794e-10 1.24833e-14)
(2764.5 -1.23178e-10 1.16984e-14)
(2764.5 -1.26243e-10 1.14715e-14)
(2764.5 -1.25833e-10 1.18203e-14)
(2764.5 -1.25826e-10 1.07779e-14)
(2764.5 -1.25977e-10 1.13117e-14)
(2764.5 -1.23049e-10 1.12752e-14)
(2764.5 -1.24601e-10 1.4768e-14)
(2764.5 -1.27281e-10 1.03517e-14)
(2764.5 -1.30601e-10 6.6392e-15)
(2764.5 -1.3659e-10 9.96423e-15)
(2764.5 -1.40343e-10 1.16638e-14)
(2764.5 -1.39371e-10 1.18996e-14)
(2764.5 -1.40217e-10 1.02659e-14)
(2764.5 -1.35687e-10 7.65783e-15)
(2764.5 -1.3001e-10 7.47558e-15)
(2764.5 -1.19183e-10 1.00955e-14)
(2764.5 -1.07876e-10 1.1517e-14)
(2764.5 -9.63858e-11 1.33005e-14)
(2764.5 -8.45245e-11 9.68315e-15)
(2764.5 -8.00128e-11 9.61988e-15)
(2764.5 -7.38299e-11 1.13903e-14)
(2764.5 -7.10589e-11 9.72969e-15)
(2764.5 -6.89295e-11 1.08733e-14)
(2764.5 -6.41485e-11 1.03193e-14)
(2764.5 -6.78902e-11 1.24977e-14)
(2764.5 -7.15433e-11 6.92533e-15)
(2764.5 -7.75121e-11 7.62889e-15)
(2764.5 -9.31334e-11 1.44733e-14)
(2764.5 -1.05876e-10 1.29135e-14)
(2764.5 -1.21364e-10 1.40746e-14)
(2764.5 -1.41243e-10 9.3355e-15)
(2764.5 -1.62917e-10 1.32203e-14)
(2764.5 -1.75994e-10 1.14552e-14)
(2764.5 -1.87963e-10 1.23742e-14)
(2764.5 -2.01443e-10 1.3501e-14)
(2764.5 -2.16539e-10 1.16274e-14)
(2764.5 -2.27467e-10 1.19198e-14)
(2764.5 -2.287e-10 1.11051e-14)
(2764.5 -2.29608e-10 1.02169e-14)
(2764.5 -2.19142e-10 1.10463e-14)
(2764.5 -2.10829e-10 1.23082e-14)
(2764.5 -1.93334e-10 7.54106e-15)
(2764.5 -1.75063e-10 9.08513e-15)
(2764.5 -1.48101e-10 9.58546e-15)
(2764.5 -1.16989e-10 5.73491e-15)
(2764.5 -8.1996e-11 8.08837e-15)
(2764.5 -4.79568e-11 1.11274e-14)
(2764.5 -2.27601e-11 8.83401e-15)
(2764.5 -2.63974e-12 8.50703e-15)
(2764.5 1.45277e-11 8.06942e-15)
(2764.5 3.57773e-11 8.93937e-15)
(2764.5 5.39653e-11 1.174e-14)
(2764.5 7.75003e-11 7.03257e-15)
(2764.5 9.25963e-11 5.88385e-15)
(2764.5 1.01811e-10 9.06515e-15)
(2764.5 1.04946e-10 5.56174e-15)
(2764.5 1.01694e-10 7.0766e-15)
(2764.5 8.73119e-11 5.38738e-15)
(2764.5 5.876e-11 7.85727e-15)
(2764.5 3.17973e-11 9.45726e-15)
(2764.5 -3.26551e-12 6.88191e-15)
(2764.5 -3.51889e-11 8.96674e-15)
(2764.5 -6.80394e-11 1.14992e-14)
(2764.5 -9.42218e-11 8.21372e-15)
(2764.5 -1.34953e-10 1.14216e-14)
(2764.5 -1.71205e-10 9.22687e-15)
(2764.5 -2.0437e-10 4.82698e-15)
(2764.5 -2.29866e-10 1.00534e-14)
(2764.5 -2.54855e-10 8.01812e-15)
(2764.5 -2.7254e-10 9.19697e-15)
(2764.5 -2.87769e-10 8.08252e-15)
(2764.5 -2.9839e-10 8.55143e-15)
(2764.5 -3.08555e-10 8.60286e-15)
(2764.5 -3.14727e-10 1.05392e-14)
(2764.5 -3.23564e-10 8.89162e-15)
(2764.5 -3.30249e-10 8.97702e-15)
(2764.5 -3.3514e-10 8.60368e-15)
(2764.5 -3.39847e-10 1.01897e-14)
(2764.5 -3.35757e-10 1.05199e-14)
(2764.5 -3.30394e-10 1.11447e-14)
(2764.5 -3.28105e-10 1.1783e-14)
(2764.5 -3.1999e-10 1.04455e-14)
(2764.5 -3.10916e-10 1.06595e-14)
(2764.5 -2.99302e-10 1.05574e-14)
(2764.5 -2.98234e-10 9.66252e-15)
(2764.5 -2.88484e-10 7.05699e-15)
(2764.5 -2.80115e-10 1.21963e-14)
(2764.5 -2.68577e-10 1.16687e-14)
(2764.5 -2.48585e-10 9.2352e-15)
(2764.5 -2.37328e-10 8.63186e-15)
(2764.5 -2.08062e-10 9.08498e-15)
(2764.5 -1.69852e-10 1.02345e-14)
(2764.5 -1.13772e-10 9.68991e-15)
(2764.5 -5.57877e-11 4.97503e-15)
(2764.5 -1.35154e-11 6.69932e-15)
(2764.5 3.28681e-11 9.34836e-15)
(2764.5 8.68633e-11 5.98973e-15)
(2764.5 1.20334e-10 7.84695e-15)
(2764.5 1.37602e-10 6.48453e-15)
(2764.5 -2.11428e-10 2.13337e-14)
(2764.5 -2.05643e-10 2.35666e-14)
(2764.5 -2.01948e-10 1.68299e-14)
(2764.5 -1.99581e-10 2.00926e-14)
(2764.5 -1.97777e-10 2.37475e-14)
(2764.5 -1.98806e-10 1.8708e-14)
(2764.5 -1.99478e-10 1.99505e-14)
(2764.5 -1.97128e-10 1.86815e-14)
(2764.5 -1.97181e-10 2.25927e-14)
(2764.5 -1.96889e-10 2.0903e-14)
(2764.5 -1.96411e-10 1.92215e-14)
(2764.5 -1.9362e-10 1.70107e-14)
(2764.5 -1.89109e-10 1.35997e-14)
(2764.5 -1.80486e-10 1.70602e-14)
(2764.5 -1.74092e-10 1.77538e-14)
(2764.5 -1.67948e-10 1.88889e-14)
(2764.5 -1.67127e-10 1.72204e-14)
(2764.5 -1.70834e-10 1.82537e-14)
(2764.5 -1.78961e-10 1.70871e-14)
(2764.5 -1.87009e-10 1.69552e-14)
(2764.5 -2.03062e-10 1.79539e-14)
(2764.5 -2.18331e-10 1.40821e-14)
(2764.5 -2.31898e-10 1.60218e-14)
(2764.5 -2.40971e-10 2.14721e-14)
(2764.5 -2.53378e-10 1.49129e-14)
(2764.5 -2.59802e-10 1.79062e-14)
(2764.5 -2.65071e-10 1.98696e-14)
(2764.5 -2.65873e-10 1.90747e-14)
(2764.5 -2.64735e-10 1.81956e-14)
(2764.5 -2.62471e-10 1.80593e-14)
(2764.5 -2.54946e-10 1.74498e-14)
(2764.5 -2.38789e-10 1.82262e-14)
(2764.5 -2.20693e-10 1.68175e-14)
(2764.5 -1.98615e-10 1.67024e-14)
(2764.5 -1.74781e-10 1.73092e-14)
(2764.5 -1.51642e-10 1.72517e-14)
(2764.5 -1.29325e-10 1.77628e-14)
(2764.5 -1.12437e-10 1.7123e-14)
(2764.5 -9.61406e-11 1.64507e-14)
(2764.5 -8.78901e-11 1.83315e-14)
(2764.5 -7.17187e-11 1.8379e-14)
(2764.5 -5.67087e-11 1.58953e-14)
(2764.5 -5.05891e-11 1.61208e-14)
(2764.5 -5.28907e-11 1.5831e-14)
(2764.5 -6.22401e-11 1.73591e-14)
(2764.5 -7.7921e-11 1.61382e-14)
(2764.5 -1.06784e-10 1.87479e-14)
(2764.5 -1.41405e-10 1.90583e-14)
(2764.5 -1.65748e-10 1.65112e-14)
(2764.5 -2.04452e-10 1.61867e-14)
(2764.5 -2.47362e-10 1.39691e-14)
(2764.5 -2.83496e-10 1.71767e-14)
(2764.5 -3.20563e-10 1.52254e-14)
(2764.5 -3.4783e-10 1.35331e-14)
(2764.5 -3.57875e-10 1.45975e-14)
(2764.5 -3.65661e-10 1.75803e-14)
(2764.5 -3.83921e-10 1.43662e-14)
(2764.5 -4.04189e-10 1.88695e-14)
(2764.5 -4.26541e-10 2.21962e-14)
(2764.5 -4.44015e-10 1.59154e-14)
(2764.5 -4.46318e-10 1.50801e-14)
(2764.5 -4.48769e-10 1.39199e-14)
(2764.5 -4.4057e-10 1.52597e-14)
(2764.5 -4.20515e-10 1.87997e-14)
(2764.5 -3.99543e-10 1.42201e-14)
(2764.5 -3.53258e-10 1.40904e-14)
(2764.5 -2.94513e-10 1.41503e-14)
(2764.5 -2.39696e-10 1.42849e-14)
(2764.5 -1.96028e-10 1.43195e-14)
(2764.5 -1.67391e-10 1.55928e-14)
(2764.5 -1.33496e-10 1.47473e-14)
(2764.5 -1.09035e-10 1.69437e-14)
(2764.5 -5.21365e-11 1.46009e-14)
(2764.5 -2.1764e-12 1.2559e-14)
(2764.5 1.79168e-11 1.70812e-14)
(2764.5 3.24252e-11 1.06667e-14)
(2764.5 4.2429e-11 1.59404e-14)
(2764.5 5.54285e-11 1.78317e-14)
(2764.5 6.48454e-11 1.3792e-14)
(2764.5 6.74174e-11 1.318e-14)
(2764.5 7.25459e-11 1.55898e-14)
(2764.5 7.58491e-11 1.52166e-14)
(2764.5 7.79293e-11 1.56259e-14)
(2764.5 7.66664e-11 1.46807e-14)
(2764.5 7.67756e-11 1.58532e-14)
(2764.5 7.01453e-11 1.86644e-14)
(2764.5 6.43646e-11 1.68141e-14)
(2764.5 5.92574e-11 1.6318e-14)
(2764.5 5.04703e-11 1.76257e-14)
(2764.5 4.3755e-11 1.57706e-14)
(2764.5 3.84881e-11 1.61428e-14)
(2764.5 2.85871e-11 1.61218e-14)
(2764.5 1.73863e-11 1.45191e-14)
(2764.5 6.56639e-12 1.63703e-14)
(2764.5 -6.02329e-12 1.65865e-14)
(2764.5 -2.98794e-11 1.4482e-14)
(2764.5 -5.35268e-11 1.31768e-14)
(2764.5 -8.74947e-11 1.59893e-14)
(2764.5 -1.50507e-10 1.57871e-14)
(2764.5 -2.68218e-10 1.36683e-14)
(2764.5 -3.51763e-10 1.4256e-14)
(2764.5 -4.03905e-10 1.38718e-14)
(2764.5 -4.17562e-10 1.34971e-14)
(2764.5 -4.45174e-10 1.3141e-14)
(2764.5 -4.5833e-10 1.32515e-14)
(2764.5 -4.537e-10 1.26718e-14)
(2764.5 -2.93324e-10 2.8982e-14)
(2764.5 -2.84084e-10 3.2954e-14)
(2764.5 -2.77983e-10 2.66241e-14)
(2764.5 -2.76124e-10 2.72824e-14)
(2764.5 -2.74755e-10 2.78242e-14)
(2764.5 -2.77812e-10 2.53001e-14)
(2764.5 -2.80542e-10 2.93164e-14)
(2764.5 -2.89283e-10 3.23763e-14)
(2764.5 -2.95684e-10 2.65861e-14)
(2764.5 -3.05406e-10 2.38876e-14)
(2764.5 -3.09599e-10 2.75954e-14)
(2764.5 -3.24793e-10 2.66238e-14)
(2764.5 -3.32613e-10 2.67204e-14)
(2764.5 -3.35328e-10 2.65914e-14)
(2764.5 -3.34848e-10 2.7201e-14)
(2764.5 -3.26967e-10 2.40025e-14)
(2764.5 -3.07372e-10 2.2956e-14)
(2764.5 -2.88608e-10 2.47096e-14)
(2764.5 -2.66459e-10 2.36215e-14)
(2764.5 -2.42464e-10 2.31639e-14)
(2764.5 -2.2644e-10 2.05714e-14)
(2764.5 -2.09934e-10 2.49369e-14)
(2764.5 -1.96935e-10 2.56577e-14)
(2764.5 -1.83201e-10 2.42917e-14)
(2764.5 -1.67167e-10 2.28616e-14)
(2764.5 -1.5868e-10 2.33372e-14)
(2764.5 -1.53139e-10 2.68211e-14)
(2764.5 -1.51143e-10 2.49254e-14)
(2764.5 -1.60618e-10 2.08612e-14)
(2764.5 -1.81113e-10 2.46722e-14)
(2764.5 -2.12322e-10 2.43714e-14)
(2764.5 -2.42677e-10 2.65289e-14)
(2764.5 -2.83164e-10 2.45972e-14)
(2764.5 -3.12233e-10 2.74551e-14)
(2764.5 -3.45442e-10 2.77154e-14)
(2764.5 -3.77687e-10 2.70791e-14)
(2764.5 -3.99863e-10 2.8795e-14)
(2764.5 -4.2583e-10 2.54027e-14)
(2764.5 -4.53672e-10 2.60196e-14)
(2764.5 -4.73821e-10 2.28006e-14)
(2764.5 -5.03703e-10 2.57845e-14)
(2764.5 -5.12065e-10 2.74115e-14)
(2764.5 -5.16353e-10 2.49531e-14)
(2764.5 -5.1171e-10 2.56524e-14)
(2764.5 -4.8944e-10 2.6797e-14)
(2764.5 -4.51692e-10 2.42416e-14)
(2764.5 -4.05007e-10 2.27293e-14)
(2764.5 -3.4139e-10 2.21195e-14)
(2764.5 -2.83453e-10 2.73684e-14)
(2764.5 -2.37463e-10 2.42449e-14)
(2764.5 -1.89012e-10 2.0332e-14)
(2764.5 -1.22176e-10 2.20087e-14)
(2764.5 -5.83325e-11 2.17966e-14)
(2764.5 -9.4652e-12 2.46221e-14)
(2764.5 2.26417e-11 2.07086e-14)
(2764.5 7.7759e-11 1.93679e-14)
(2764.5 1.38186e-10 2.2552e-14)
(2764.5 1.86418e-10 2.31863e-14)
(2764.5 2.22576e-10 2.1597e-14)
(2764.5 2.45534e-10 2.11863e-14)
(2764.5 2.41137e-10 2.33617e-14)
(2764.5 2.13997e-10 2.18968e-14)
(2764.5 1.7224e-10 2.08439e-14)
(2764.5 1.02429e-10 2.05464e-14)
(2764.5 7.19128e-11 2.06566e-14)
(2764.5 1.58055e-11 2.10055e-14)
(2764.5 -4.83414e-11 2.06386e-14)
(2764.5 -1.67262e-10 2.07894e-14)
(2764.5 -2.88712e-10 1.99889e-14)
(2764.5 -3.39308e-10 2.00042e-14)
(2764.5 -3.72738e-10 2.10495e-14)
(2764.5 -4.06498e-10 2.11698e-14)
(2764.5 -4.52157e-10 2.0938e-14)
(2764.5 -5.07485e-10 2.18624e-14)
(2764.5 -5.44828e-10 1.99036e-14)
(2764.5 -5.6598e-10 1.8499e-14)
(2764.5 -5.84886e-10 2.10432e-14)
(2764.5 -5.97044e-10 2.14234e-14)
(2764.5 -6.13722e-10 2.01897e-14)
(2764.5 -6.28186e-10 2.4181e-14)
(2764.5 -6.43683e-10 2.30451e-14)
(2764.5 -6.50939e-10 2.02732e-14)
(2764.5 -6.51682e-10 1.91285e-14)
(2764.5 -6.52004e-10 1.94622e-14)
(2764.5 -6.49121e-10 1.98845e-14)
(2764.5 -6.43066e-10 1.65778e-14)
(2764.5 -6.31863e-10 1.90723e-14)
(2764.5 -6.23128e-10 2.26104e-14)
(2764.5 -6.14236e-10 2.22248e-14)
(2764.5 -6.0415e-10 1.90879e-14)
(2764.5 -5.90369e-10 1.92147e-14)
(2764.5 -5.75514e-10 1.9081e-14)
(2764.5 -5.59399e-10 2.10739e-14)
(2764.5 -5.33953e-10 2.17814e-14)
(2764.5 -5.1004e-10 1.90196e-14)
(2764.5 -4.50474e-10 1.79488e-14)
(2764.5 -4.10403e-10 2.35516e-14)
(2764.5 -3.55219e-10 2.30348e-14)
(2764.5 -2.47576e-10 1.96311e-14)
(2764.5 -9.30926e-11 2.1259e-14)
(2764.5 1.35897e-10 2.25956e-14)
(2764.5 2.66957e-10 1.96597e-14)
(2764.5 3.03043e-10 2.07394e-14)
(2764.5 3.07244e-10 1.99871e-14)
(2764.5 2.9184e-10 1.78156e-14)
(2764.5 2.60811e-10 1.81516e-14)
(2764.5 -4.17197e-10 3.60073e-14)
(2764.5 -4.25107e-10 3.73842e-14)
(2764.5 -4.2548e-10 3.57894e-14)
(2764.5 -4.19854e-10 3.424e-14)
(2764.5 -4.04981e-10 3.81586e-14)
(2764.5 -3.93117e-10 3.63804e-14)
(2764.5 -3.74007e-10 3.30796e-14)
(2764.5 -3.5178e-10 3.60509e-14)
(2764.5 -3.32352e-10 3.83967e-14)
(2764.5 -3.07643e-10 3.77384e-14)
(2764.5 -2.84523e-10 3.42574e-14)
(2764.5 -2.72364e-10 3.30432e-14)
(2764.5 -2.66888e-10 3.57451e-14)
(2764.5 -2.67747e-10 3.35302e-14)
(2764.5 -2.79215e-10 3.03603e-14)
(2764.5 -3.06506e-10 3.67447e-14)
(2764.5 -3.34894e-10 3.40244e-14)
(2764.5 -3.63468e-10 3.68946e-14)
(2764.5 -3.95235e-10 3.80975e-14)
(2764.5 -4.24035e-10 3.44675e-14)
(2764.5 -4.54837e-10 3.44283e-14)
(2764.5 -4.73915e-10 3.29829e-14)
(2764.5 -4.96428e-10 3.49411e-14)
(2764.5 -5.20513e-10 3.85394e-14)
(2764.5 -5.37217e-10 3.48926e-14)
(2764.5 -5.642e-10 3.38552e-14)
(2764.5 -5.68871e-10 3.42571e-14)
(2764.5 -5.58196e-10 3.0373e-14)
(2764.5 -5.37194e-10 2.82503e-14)
(2764.5 -4.79955e-10 3.095e-14)
(2764.5 -4.15544e-10 3.08642e-14)
(2764.5 -3.36059e-10 2.99291e-14)
(2764.5 -2.73804e-10 3.00146e-14)
(2764.5 -2.08071e-10 2.95955e-14)
(2764.5 -1.66528e-10 3.00988e-14)
(2764.5 -1.18113e-10 2.96941e-14)
(2764.5 -6.2989e-11 3.15249e-14)
(2764.5 -2.25524e-11 3.49591e-14)
(2764.5 1.74379e-11 2.85282e-14)
(2764.5 5.35433e-11 2.72603e-14)
(2764.5 8.52906e-11 3.18973e-14)
(2764.5 1.08313e-10 3.32923e-14)
(2764.5 1.03647e-10 3.12506e-14)
(2764.5 6.37738e-11 2.98876e-14)
(2764.5 1.5611e-11 3.23788e-14)
(2764.5 -7.22798e-11 3.33894e-14)
(2764.5 -1.70776e-10 3.27727e-14)
(2764.5 -2.67578e-10 3.30595e-14)
(2764.5 -3.6377e-10 3.01056e-14)
(2764.5 -4.30238e-10 3.06868e-14)
(2764.5 -5.07001e-10 3.03153e-14)
(2764.5 -5.81679e-10 2.75933e-14)
(2764.5 -6.56179e-10 2.69872e-14)
(2764.5 -7.289e-10 3.12099e-14)
(2764.5 -8.00802e-10 3.14361e-14)
(2764.5 -8.49439e-10 2.98361e-14)
(2764.5 -9.1625e-10 2.89153e-14)
(2764.5 -9.77212e-10 3.01924e-14)
(2764.5 -1.01467e-09 2.98597e-14)
(2764.5 -1.03857e-09 2.74877e-14)
(2764.5 -1.05802e-09 2.6805e-14)
(2764.5 -1.08048e-09 2.95029e-14)
(2764.5 -1.02818e-09 2.76524e-14)
(2764.5 -9.0628e-10 2.81241e-14)
(2764.5 -7.66998e-10 2.98672e-14)
(2764.5 -6.96617e-10 2.90359e-14)
(2764.5 -7.43983e-10 2.62715e-14)
(2764.5 -6.84739e-10 2.67249e-14)
(2764.5 -5.4519e-10 2.6862e-14)
(2764.5 -3.69657e-11 2.91455e-14)
(2764.5 3.998e-10 3.01678e-14)
(2764.5 4.68041e-10 2.93178e-14)
(2764.5 5.52095e-10 3.18967e-14)
(2764.5 6.14695e-10 3.12344e-14)
(2764.5 6.53662e-10 2.83184e-14)
(2764.5 6.80046e-10 3.09953e-14)
(2764.5 7.19668e-10 3.00917e-14)
(2764.5 7.39429e-10 3.04878e-14)
(2764.5 7.48607e-10 3.12391e-14)
(2764.5 7.52124e-10 3.08599e-14)
(2764.5 7.55461e-10 3.18355e-14)
(2764.5 7.54521e-10 3.15765e-14)
(2764.5 7.44868e-10 2.98078e-14)
(2764.5 7.34307e-10 2.77148e-14)
(2764.5 7.15714e-10 3.00125e-14)
(2764.5 6.89186e-10 3.14591e-14)
(2764.5 6.52733e-10 3.04886e-14)
(2764.5 6.34609e-10 2.97119e-14)
(2764.5 6.01107e-10 3.12965e-14)
(2764.5 5.59998e-10 2.95902e-14)
(2764.5 5.30521e-10 2.84241e-14)
(2764.5 4.86042e-10 3.21939e-14)
(2764.5 4.3103e-10 2.86758e-14)
(2764.5 3.90607e-10 2.92656e-14)
(2764.5 3.04407e-10 2.96162e-14)
(2764.5 6.75001e-11 2.78437e-14)
(2764.5 -3.86108e-10 2.84166e-14)
(2764.5 -4.93901e-10 2.85866e-14)
(2764.5 -3.93827e-10 2.66599e-14)
(2764.5 -4.69037e-10 2.75599e-14)
(2764.5 -6.99743e-10 2.97324e-14)
(2764.5 -1.08356e-09 2.2949e-14)
(2764.5 -1.21433e-09 2.43626e-14)
(2764.5 -1.22273e-09 2.55775e-14)
(2764.5 -1.19273e-09 2.41051e-14)
(2764.5 -1.11664e-09 2.3009e-14)
(2764.5 -9.90138e-10 2.55701e-14)
(2764.5 -3.86102e-10 4.52266e-14)
(2764.5 -4.05544e-10 4.45716e-14)
(2764.5 -4.24726e-10 4.52267e-14)
(2764.5 -4.59894e-10 4.12684e-14)
(2764.5 -4.93753e-10 4.31101e-14)
(2764.5 -5.17934e-10 4.38463e-14)
(2764.5 -5.48259e-10 4.94557e-14)
(2764.5 -5.79892e-10 4.78285e-14)
(2764.5 -6.09309e-10 4.82767e-14)
(2764.5 -6.28097e-10 4.80249e-14)
(2764.5 -6.33102e-10 4.46167e-14)
(2764.5 -6.27409e-10 4.73783e-14)
(2764.5 -6.07717e-10 4.71926e-14)
(2764.5 -5.68165e-10 4.27303e-14)
(2764.5 -5.25883e-10 4.63122e-14)
(2764.5 -4.64434e-10 4.43854e-14)
(2764.5 -3.88753e-10 3.95299e-14)
(2764.5 -3.41266e-10 3.96414e-14)
(2764.5 -2.76151e-10 3.98979e-14)
(2764.5 -2.2023e-10 4.00187e-14)
(2764.5 -1.74769e-10 3.9957e-14)
(2764.5 -1.29002e-10 4.06181e-14)
(2764.5 -7.98637e-11 4.35015e-14)
(2764.5 -3.0676e-11 4.15171e-14)
(2764.5 -5.23051e-12 3.66676e-14)
(2764.5 -1.07198e-13 3.68211e-14)
(2764.5 -6.54468e-11 3.76294e-14)
(2764.5 -1.75311e-10 3.53448e-14)
(2764.5 -3.03449e-10 4.04258e-14)
(2764.5 -4.44307e-10 4.00241e-14)
(2764.5 -5.41093e-10 4.0857e-14)
(2764.5 -6.06413e-10 4.0056e-14)
(2764.5 -6.57324e-10 4.14885e-14)
(2764.5 -7.17348e-10 3.91985e-14)
(2764.5 -7.82523e-10 4.19811e-14)
(2764.5 -8.13448e-10 4.17238e-14)
(2764.5 -8.56062e-10 3.95554e-14)
(2764.5 -9.04842e-10 3.74351e-14)
(2764.5 -9.52417e-10 3.61056e-14)
(2764.5 -9.89091e-10 3.86478e-14)
(2764.5 -1.02625e-09 3.82184e-14)
(2764.5 -1.05487e-09 3.80412e-14)
(2764.5 -1.07129e-09 3.83255e-14)
(2764.5 -9.52967e-10 3.68411e-14)
(2764.5 -6.84557e-10 4.07404e-14)
(2764.5 -3.995e-10 4.09119e-14)
(2764.5 -1.91515e-10 4.015e-14)
(2764.5 -1.02786e-12 4.08958e-14)
(2764.5 2.27574e-10 3.98516e-14)
(2764.5 4.28759e-10 4.23625e-14)
(2764.5 6.07766e-10 4.14903e-14)
(2764.5 7.71429e-10 3.76542e-14)
(2764.5 9.11239e-10 3.96124e-14)
(2764.5 1.04693e-09 4.14303e-14)
(2764.5 1.21189e-09 4.45328e-14)
(2764.5 1.40729e-09 4.38895e-14)
(2764.5 1.57815e-09 4.18263e-14)
(2764.5 1.74338e-09 3.74503e-14)
(2764.5 1.93605e-09 3.68136e-14)
(2764.5 2.19428e-09 3.83712e-14)
(2764.5 2.47268e-09 3.87132e-14)
(2764.5 2.68431e-09 3.7128e-14)
(2764.5 2.87157e-09 3.7008e-14)
(2764.5 3.02699e-09 3.98037e-14)
(2764.5 3.08856e-09 3.52019e-14)
(2764.5 3.34143e-09 3.54341e-14)
(2764.5 3.76113e-09 4.19349e-14)
(2764.5 4.24724e-09 3.80242e-14)
(2764.5 4.43951e-09 3.47726e-14)
(2764.5 4.28219e-09 3.71076e-14)
(2764.5 4.17009e-09 3.72659e-14)
(2764.5 4.43489e-09 3.33557e-14)
(2764.5 4.73098e-09 3.52047e-14)
(2764.5 4.96538e-09 3.71197e-14)
(2764.5 5.16207e-09 3.61756e-14)
(2764.5 5.32664e-09 3.64002e-14)
(2764.5 5.45997e-09 3.66278e-14)
(2764.5 5.55075e-09 3.71117e-14)
(2764.5 5.61277e-09 3.71392e-14)
(2764.5 5.6524e-09 3.49088e-14)
(2764.5 5.68371e-09 3.28745e-14)
(2764.5 5.68916e-09 3.68698e-14)
(2764.5 5.66826e-09 3.7802e-14)
(2764.5 5.61064e-09 3.62772e-14)
(2764.5 5.54261e-09 3.60326e-14)
(2764.5 5.42881e-09 3.50564e-14)
(2764.5 5.28243e-09 3.50853e-14)
(2764.5 5.13009e-09 3.57458e-14)
(2764.5 4.94694e-09 3.69667e-14)
(2764.5 4.76044e-09 3.48498e-14)
(2764.5 4.58148e-09 3.45794e-14)
(2764.5 4.35659e-09 3.37022e-14)
(2764.5 4.11943e-09 3.3209e-14)
(2764.5 3.87033e-09 3.60236e-14)
(2764.5 3.55636e-09 3.5735e-14)
(2764.5 3.67361e-09 3.41316e-14)
(2764.5 3.78886e-09 3.42206e-14)
(2764.5 3.45464e-09 3.65469e-14)
(2764.5 2.89949e-09 3.39674e-14)
(2764.5 2.48813e-09 3.42604e-14)
(2764.5 2.42015e-09 3.66589e-14)
(2764.5 2.23656e-09 3.5031e-14)
(2764.5 1.89097e-09 3.74202e-14)
(2764.5 1.59706e-09 3.50729e-14)
(2764.5 1.37458e-09 3.39298e-14)
(2764.5 1.15095e-09 3.16602e-14)
(2764.5 8.82621e-10 3.51908e-14)
(2764.5 -6.62652e-10 5.39394e-14)
(2764.5 -6.53236e-10 5.42327e-14)
(2764.5 -6.33007e-10 5.60457e-14)
(2764.5 -5.98065e-10 5.06531e-14)
(2764.5 -5.41862e-10 4.9151e-14)
(2764.5 -4.90764e-10 4.92753e-14)
(2764.5 -4.35938e-10 4.72125e-14)
(2764.5 -3.70379e-10 5.30712e-14)
(2764.5 -3.19021e-10 5.16567e-14)
(2764.5 -2.78302e-10 5.17943e-14)
(2764.5 -2.22175e-10 4.92468e-14)
(2764.5 -1.76712e-10 5.08663e-14)
(2764.5 -1.64451e-10 5.19875e-14)
(2764.5 -1.96233e-10 4.88439e-14)
(2764.5 -2.84123e-10 4.84604e-14)
(2764.5 -3.82718e-10 4.99253e-14)
(2764.5 -4.9639e-10 4.993e-14)
(2764.5 -6.06476e-10 5.16062e-14)
(2764.5 -6.7348e-10 5.09017e-14)
(2764.5 -7.44851e-10 5.09009e-14)
(2764.5 -8.11204e-10 4.89609e-14)
(2764.5 -8.67753e-10 4.92237e-14)
(2764.5 -9.17898e-10 4.87808e-14)
(2764.5 -9.68632e-10 4.67456e-14)
(2764.5 -1.01626e-09 4.61393e-14)
(2764.5 -1.05971e-09 4.871e-14)
(2764.5 -1.09907e-09 4.85517e-14)
(2764.5 -1.10793e-09 4.8208e-14)
(2764.5 -1.03052e-09 4.90121e-14)
(2764.5 -7.25815e-10 4.96871e-14)
(2764.5 -1.88736e-10 4.84172e-14)
(2764.5 1.32367e-10 4.87922e-14)
(2764.5 2.07319e-10 5.11991e-14)
(2764.5 3.92999e-10 5.36101e-14)
(2764.5 5.2506e-10 5.22517e-14)
(2764.5 6.64689e-10 5.07007e-14)
(2764.5 8.11244e-10 4.75402e-14)
(2764.5 9.68666e-10 4.91922e-14)
(2764.5 1.12297e-09 4.90931e-14)
(2764.5 1.31143e-09 4.93759e-14)
(2764.5 1.53078e-09 4.95669e-14)
(2764.5 1.76751e-09 5.02551e-14)
(2764.5 2.01507e-09 4.75211e-14)
(2764.5 2.33375e-09 4.73408e-14)
(2764.5 2.70929e-09 4.96914e-14)
(2764.5 2.9142e-09 4.96011e-14)
(2764.5 3.04442e-09 4.79164e-14)
(2764.5 3.29343e-09 4.85523e-14)
(2764.5 3.39683e-09 4.95391e-14)
(2764.5 3.63603e-09 4.89879e-14)
(2764.5 3.98828e-09 4.66391e-14)
(2764.5 4.4592e-09 4.6415e-14)
(2764.5 5.02769e-09 4.75504e-14)
(2764.5 5.69461e-09 4.72792e-14)
(2764.5 6.4144e-09 4.97789e-14)
(2764.5 7.12056e-09 4.5501e-14)
(2764.5 7.84093e-09 4.3037e-14)
(2764.5 8.63529e-09 4.88341e-14)
(2764.5 9.49446e-09 4.83395e-14)
(2764.5 1.03841e-08 4.51368e-14)
(2764.5 1.13089e-08 4.49679e-14)
(2764.5 1.23152e-08 4.71768e-14)
(2764.5 1.34954e-08 4.33118e-14)
(2764.5 1.47744e-08 4.40707e-14)
(2764.5 1.61208e-08 4.46635e-14)
(2764.5 1.76054e-08 4.18488e-14)
(2764.5 1.9218e-08 4.81028e-14)
(2764.5 2.1125e-08 4.46765e-14)
(2764.5 2.31882e-08 4.35847e-14)
(2764.5 2.51241e-08 4.57657e-14)
(2764.5 2.68548e-08 4.3662e-14)
(2764.5 2.85833e-08 4.3166e-14)
(2764.5 3.06604e-08 4.11537e-14)
(2764.5 3.31085e-08 4.14908e-14)
(2764.5 3.53735e-08 4.32648e-14)
(2764.5 3.72469e-08 4.24041e-14)
(2764.5 3.88793e-08 4.29181e-14)
(2764.5 4.03923e-08 4.32105e-14)
(2764.5 4.179e-08 4.15934e-14)
(2764.5 4.2986e-08 4.20595e-14)
(2764.5 4.39068e-08 4.09161e-14)
(2764.5 4.4574e-08 4.19314e-14)
(2764.5 4.49809e-08 4.04659e-14)
(2764.5 4.51464e-08 3.97551e-14)
(2764.5 4.51542e-08 4.28421e-14)
(2764.5 4.49284e-08 4.19982e-14)
(2764.5 4.43906e-08 4.27942e-14)
(2764.5 4.36256e-08 4.20833e-14)
(2764.5 4.26479e-08 3.96747e-14)
(2764.5 4.14468e-08 3.92585e-14)
(2764.5 4.00617e-08 3.95421e-14)
(2764.5 3.85025e-08 4.08915e-14)
(2764.5 3.684e-08 4.20083e-14)
(2764.5 3.51001e-08 3.74369e-14)
(2764.5 3.32145e-08 3.79005e-14)
(2764.5 3.12262e-08 4.27438e-14)
(2764.5 2.91913e-08 4.00318e-14)
(2764.5 2.71811e-08 4.26193e-14)
(2764.5 2.53501e-08 4.14951e-14)
(2764.5 2.32359e-08 3.95631e-14)
(2764.5 2.09644e-08 4.04709e-14)
(2764.5 1.89176e-08 3.90839e-14)
(2764.5 1.73184e-08 4.15552e-14)
(2764.5 1.57129e-08 3.94262e-14)
(2764.5 1.39123e-08 4.1419e-14)
(2764.5 1.20478e-08 4.23122e-14)
(2764.5 1.04373e-08 3.98552e-14)
(2764.5 9.00462e-09 4.12918e-14)
(2764.5 7.71627e-09 3.64428e-14)
(2764.5 6.42651e-09 3.9177e-14)
(2764.5 -3.45068e-10 5.70022e-14)
(2764.5 -4.4089e-10 5.64892e-14)
(2764.5 -5.59497e-10 6.11611e-14)
(2764.5 -6.33758e-10 5.62604e-14)
(2764.5 -7.29675e-10 6.07609e-14)
(2764.5 -7.98612e-10 6.15364e-14)
(2764.5 -8.62375e-10 6.25254e-14)
(2764.5 -9.30485e-10 5.84707e-14)
(2764.5 -9.93791e-10 5.98595e-14)
(2764.5 -1.06574e-09 5.97688e-14)
(2764.5 -1.11522e-09 5.8138e-14)
(2764.5 -1.13783e-09 6.11474e-14)
(2764.5 -1.08639e-09 6.01952e-14)
(2764.5 -8.02504e-10 5.87371e-14)
(2764.5 -4.06267e-10 5.50452e-14)
(2764.5 4.26061e-11 5.90468e-14)
(2764.5 2.44719e-10 6.41014e-14)
(2764.5 4.32611e-10 6.34945e-14)
(2764.5 5.99101e-10 6.29246e-14)
(2764.5 7.563e-10 5.91724e-14)
(2764.5 9.43996e-10 6.06292e-14)
(2764.5 1.16239e-09 6.05311e-14)
(2764.5 1.37783e-09 6.26805e-14)
(2764.5 1.61744e-09 6.49632e-14)
(2764.5 1.90381e-09 6.09726e-14)
(2764.5 2.20166e-09 6.00702e-14)
(2764.5 2.56047e-09 6.18444e-14)
(2764.5 2.89888e-09 6.24629e-14)
(2764.5 3.14372e-09 6.08142e-14)
(2764.5 2.96246e-09 5.46861e-14)
(2764.5 3.15046e-09 5.36686e-14)
(2764.5 3.62451e-09 5.77652e-14)
(2764.5 4.28977e-09 5.80365e-14)
(2764.5 4.83689e-09 5.45391e-14)
(2764.5 5.45368e-09 5.50259e-14)
(2764.5 6.1138e-09 5.77388e-14)
(2764.5 6.83262e-09 5.62583e-14)
(2764.5 7.60688e-09 5.64444e-14)
(2764.5 8.45845e-09 5.53378e-14)
(2764.5 9.42727e-09 5.7584e-14)
(2764.5 1.05281e-08 5.7059e-14)
(2764.5 1.17377e-08 5.59948e-14)
(2764.5 1.30195e-08 5.46199e-14)
(2764.5 1.44977e-08 5.58613e-14)
(2764.5 1.61517e-08 5.52059e-14)
(2764.5 1.79369e-08 5.48832e-14)
(2764.5 1.98749e-08 5.61079e-14)
(2764.5 2.21161e-08 5.64283e-14)
(2764.5 2.46594e-08 5.38477e-14)
(2764.5 2.73871e-08 5.40755e-14)
(2764.5 3.03685e-08 5.33226e-14)
(2764.5 3.37956e-08 5.47384e-14)
(2764.5 3.7878e-08 5.19781e-14)
(2764.5 4.26852e-08 5.42885e-14)
(2764.5 4.81237e-08 5.54054e-14)
(2764.5 5.41157e-08 5.20297e-14)
(2764.5 6.06802e-08 5.38566e-14)
(2764.5 6.78653e-08 5.22021e-14)
(2764.5 7.56158e-08 5.39294e-14)
(2764.5 8.38423e-08 5.53033e-14)
(2764.5 9.25406e-08 5.29758e-14)
(2764.5 1.01783e-07 5.39695e-14)
(2764.5 1.11735e-07 5.24525e-14)
(2764.5 1.22338e-07 5.16981e-14)
(2764.5 1.33531e-07 4.88881e-14)
(2764.5 1.45285e-07 5.15029e-14)
(2764.5 1.57595e-07 5.3969e-14)
(2764.5 1.70279e-07 4.83794e-14)
(2764.5 1.83034e-07 5.08221e-14)
(2764.5 1.95797e-07 5.31115e-14)
(2764.5 2.08945e-07 4.98886e-14)
(2764.5 2.22945e-07 4.8836e-14)
(2764.5 2.37534e-07 4.8286e-14)
(2764.5 2.5175e-07 5.14747e-14)
(2764.5 2.64976e-07 4.88008e-14)
(2764.5 2.77288e-07 4.74868e-14)
(2764.5 2.89016e-07 4.96701e-14)
(2764.5 3.00166e-07 4.84752e-14)
(2764.5 3.10303e-07 4.77076e-14)
(2764.5 3.18949e-07 4.72589e-14)
(2764.5 3.25881e-07 4.6283e-14)
(2764.5 3.31123e-07 4.65329e-14)
(2764.5 3.34596e-07 4.78724e-14)
(2764.5 3.36255e-07 4.75629e-14)
(2764.5 3.36414e-07 4.77671e-14)
(2764.5 3.34609e-07 4.91928e-14)
(2764.5 3.31136e-07 4.91565e-14)
(2764.5 3.25874e-07 4.4165e-14)
(2764.5 3.18828e-07 4.56467e-14)
(2764.5 3.10072e-07 4.53085e-14)
(2764.5 2.99745e-07 4.76855e-14)
(2764.5 2.88036e-07 4.49729e-14)
(2764.5 2.75194e-07 4.83784e-14)
(2764.5 2.6138e-07 4.50319e-14)
(2764.5 2.46679e-07 4.53839e-14)
(2764.5 2.31245e-07 4.61827e-14)
(2764.5 2.15399e-07 4.61815e-14)
(2764.5 1.99396e-07 4.74941e-14)
(2764.5 1.83248e-07 4.45409e-14)
(2764.5 1.67045e-07 4.65209e-14)
(2764.5 1.51279e-07 4.82345e-14)
(2764.5 1.36422e-07 4.60296e-14)
(2764.5 1.22221e-07 4.60096e-14)
(2764.5 1.08031e-07 4.38539e-14)
(2764.5 9.41444e-08 4.62908e-14)
(2764.5 8.13494e-08 4.53713e-14)
(2764.5 6.99803e-08 4.50695e-14)
(2764.5 5.99585e-08 4.54905e-14)
(2764.5 5.12155e-08 4.49515e-14)
(2764.5 4.33604e-08 4.26297e-14)
(2764.5 -5.99196e-10 7.28618e-14)
(2764.5 -6.07165e-11 7.03222e-14)
(2764.5 2.82764e-10 7.05128e-14)
(2764.5 4.94177e-10 7.14311e-14)
(2764.5 6.96469e-10 7.47213e-14)
(2764.5 9.4569e-10 7.23187e-14)
(2764.5 1.21339e-09 7.04138e-14)
(2764.5 1.49205e-09 7.2132e-14)
(2764.5 1.80772e-09 7.49726e-14)
(2764.5 2.15591e-09 7.32403e-14)
(2764.5 2.56889e-09 7.31024e-14)
(2764.5 2.9974e-09 7.09954e-14)
(2764.5 3.35946e-09 7.09448e-14)
(2764.5 3.22482e-09 6.84574e-14)
(2764.5 3.37043e-09 6.77846e-14)
(2764.5 3.81089e-09 6.93093e-14)
(2764.5 4.47554e-09 7.00737e-14)