/*--------------------------------*- C++ -*----------------------------------*\
| =========                 |                                                 |
| \\      /  F ield         | OpenFOAM: The Open Source CFD Toolbox           |
|  \\    /   O peration     | Version:  v1706                                 |
|   \\  /    A nd           | Web:      www.OpenFOAM.com                      |
|    \\/     M anipulation  |                                                 |
\*---------------------------------------------------------------------------*/
FoamFile
{
    version     2.0;
    format      ascii;
    class       volScalarField;
    location    "1.3e-05";
    object      wallHeatFlux;
}
// * * * * * * * * * * * * * * * * * * * * * * * * * * * * * * * * * * * * * //

dimensions      [1 0 -3 0 0 0 0];


internalField   uniform 0;

boundaryField
{
    cone
    {
        type            calculated;
        value           nonuniform List<scalar> 
181
(
60924
60497.2
60130.5
59800.1
59486.1
59174.7
58860.5
58548.7
58254.2
58002.1
57826.4
57765
57861.2
58161.5
58714.4
59570
60778.5
62387.6
64449.4
67013.6
70128.4
73838.2
78181.6
83186.1
88861.5
95191.3
102123
109556
117343
125284
133151
140715
147786
154248
160074
165310
170041
174340
178252
181781
184858
187350
189090
189881
189502
187719
184309
179092
171965
162946
152213
140122
127183
113984
101102
89008
78013.8
68269.4
59791.6
52507.3
46295
41014.9
36529.1
32711.6
29452.5
26659.1
24254.4
22175.1
20369.7
18796.1
17419.8
16212.7
15151.7
14217.8
13395.1
12670.3
12032.7
11472.7
10982.1
10554.4
10183.8
9865.26
9594.74
9368.53
9183.52
9037.07
8926.94
8851.22
8808.32
8796.93
8816
8864.69
8942.38
9048.64
9183.29
9346.29
9537.69
9757.75
10006.9
10285.8
10595.1
10935.8
11308.8
11715.6
12157.3
12635.7
13152.5
13709.7
14309.4
14954.2
15646.5
16389.5
17186.2
18040.3
18955.6
19936.3
20987
22112.7
23319
24611.8
25997.5
27483.2
29076.4
30785.3
32618.5
34585.5
36695.9
38960
41388.4
43991.4
46779.3
49761.3
52945
56335
59931.9
63729.8
67714.2
71857.6
76116.4
80425.4
84693.8
88801.8
92600.9
95919.2
98567.4
100374
101200
100978
99739.2
97608
94794.9
91554.4
88157.6
84846.4
81797.4
79113.5
76834.5
74954.2
73438.1
72237.7
71305
70596.1
70070.5
69696.3
69449.5
69312.1
69271.3
69318.9
69450.8
69665.4
69963.3
70347.8
70823.4
71396.7
72075.9
72870.6
73792.4
74854.6
76071.5
77458
79028.3
)
;
    }
    inlet
    {
        type            calculated;
        value           uniform 0;
    }
    rWedge
    {
        type            wedge;
    }
    lWedge
    {
        type            wedge;
    }
    outlet
    {
        type            calculated;
        value           nonuniform 0();
    }
    procBoundary1to0
    {
        type            processor;
        value           uniform 0;
    }
    procBoundary1to2
    {
        type            processor;
        value           uniform 0;
    }
}


// ************************************************************************* //
