/*--------------------------------*- C++ -*----------------------------------*\
| =========                 |                                                 |
| \\      /  F ield         | OpenFOAM: The Open Source CFD Toolbox           |
|  \\    /   O peration     | Version:  v1706                                 |
|   \\  /    A nd           | Web:      www.OpenFOAM.com                      |
|    \\/     M anipulation  |                                                 |
\*---------------------------------------------------------------------------*/
FoamFile
{
    version     2.0;
    format      ascii;
    class       volVectorField;
    location    "1.2e-05";
    object      U;
}
// * * * * * * * * * * * * * * * * * * * * * * * * * * * * * * * * * * * * * //

dimensions      [0 1 -1 0 0 0 0];


internalField   nonuniform List<vector> 
30104
(
(2764.5 -4.63706e-11 2.70525e-15)
(2764.5 -4.51056e-11 5.15382e-15)
(2764.5 -4.36591e-11 4.3656e-15)
(2764.5 -4.27409e-11 2.43172e-15)
(2764.5 -4.26979e-11 3.9813e-15)
(2764.5 -4.29451e-11 3.40221e-15)
(2764.5 -4.40216e-11 8.2723e-16)
(2764.5 -4.46768e-11 2.18008e-15)
(2764.5 -4.4892e-11 3.87128e-15)
(2764.5 -4.64533e-11 3.94015e-15)
(2764.5 -4.64505e-11 3.58652e-15)
(2764.5 -4.54211e-11 4.18112e-15)
(2764.5 -4.28402e-11 8.30597e-16)
(2764.5 -4.18642e-11 2.9543e-15)
(2764.5 -4.10843e-11 5.09298e-15)
(2764.5 -4.03399e-11 5.56125e-15)
(2764.5 -4.07038e-11 4.85304e-15)
(2764.5 -6.35547e-11 2.12059e-15)
(2764.5 -5.22818e-11 3.63049e-15)
(2764.5 -3.92775e-11 2.82322e-15)
(2764.5 -2.44112e-11 2.54649e-15)
(2764.5 -1.45701e-11 2.72321e-15)
(2764.5 -1.5312e-11 2.73288e-15)
(2764.5 -2.30413e-11 1.8729e-15)
(2764.5 -3.24435e-11 4.31939e-15)
(2764.5 -4.10913e-11 3.21093e-15)
(2764.5 -4.43767e-11 1.93741e-15)
(2764.5 -4.36127e-11 2.85846e-15)
(2764.5 -4.0463e-11 1.95023e-15)
(2764.5 -3.34308e-11 4.10044e-15)
(2764.5 -3.1774e-11 3.3038e-15)
(2764.5 -3.3929e-11 1.4221e-15)
(2764.5 -3.68773e-11 2.26834e-15)
(2764.5 -3.79333e-11 2.46468e-15)
(2764.5 -3.91932e-11 2.90582e-15)
(2764.5 -4.05031e-11 3.84553e-15)
(2764.5 -4.53844e-11 2.3757e-15)
(2764.5 -4.73127e-11 3.2195e-15)
(2764.5 -4.83128e-11 5.04963e-15)
(2764.5 -4.66483e-11 1.6098e-15)
(2764.5 -4.75562e-11 1.6379e-15)
(2764.5 -4.55925e-11 1.71719e-15)
(2764.5 -4.34594e-11 1.50325e-15)
(2764.5 -4.48015e-11 1.58417e-15)
(2764.5 -4.5321e-11 1.80915e-15)
(2764.5 -4.57456e-11 1.9241e-15)
(2764.5 -4.57207e-11 2.10698e-15)
(2764.5 -4.4493e-11 1.01452e-15)
(2764.5 -4.49894e-11 3.00092e-15)
(2764.5 -4.67853e-11 3.32493e-15)
(2764.5 -4.6742e-11 2.23811e-15)
(2764.5 -4.62211e-11 1.21839e-15)
(2764.5 -4.8756e-11 1.88801e-15)
(2764.5 -4.9461e-11 3.0186e-15)
(2764.5 -4.94863e-11 1.51759e-15)
(2764.5 -4.74326e-11 2.44976e-15)
(2764.5 -4.61632e-11 3.38291e-15)
(2764.5 -4.22274e-11 1.52535e-15)
(2764.5 -3.72783e-11 1.89314e-15)
(2764.5 -3.04877e-11 2.3575e-15)
(2764.5 -2.80452e-11 3.06236e-15)
(2764.5 -2.68914e-11 3.31582e-15)
(2764.5 -2.59938e-11 2.23754e-15)
(2764.5 -2.31645e-11 2.51658e-15)
(2764.5 -2.45926e-11 2.50753e-15)
(2764.5 -3.04629e-11 2.49281e-15)
(2764.5 -3.42561e-11 1.52895e-15)
(2764.5 -3.24061e-11 3.74955e-15)
(2764.5 -3.31991e-11 2.95784e-15)
(2764.5 -3.45486e-11 6.37739e-16)
(2764.5 -3.32036e-11 1.51225e-15)
(2764.5 -3.21308e-11 1.96884e-15)
(2764.5 -3.38726e-11 1.20636e-15)
(2764.5 -3.75964e-11 2.36796e-15)
(2764.5 -3.69669e-11 2.3568e-15)
(2764.5 -3.42396e-11 2.00985e-15)
(2764.5 -3.2758e-11 1.60594e-15)
(2764.5 -3.45608e-11 1.3032e-15)
(2764.5 -3.83951e-11 2.50262e-15)
(2764.5 -3.9328e-11 2.20826e-15)
(2764.5 -3.94391e-11 1.6602e-15)
(2764.5 -4.12945e-11 3.563e-15)
(2764.5 -4.03449e-11 3.0971e-15)
(2764.5 -4.00162e-11 2.92026e-15)
(2764.5 -4.25629e-11 3.30958e-15)
(2764.5 -4.58117e-11 2.70612e-15)
(2764.5 -4.84105e-11 2.77327e-15)
(2764.5 -4.6459e-11 2.14582e-15)
(2764.5 -4.43153e-11 1.47622e-15)
(2764.5 -4.32436e-11 3.05179e-15)
(2764.5 -4.12562e-11 8.62587e-17)
(2764.5 -4.15322e-11 1.74826e-15)
(2764.5 -4.22895e-11 2.80125e-15)
(2764.5 -4.25154e-11 2.04134e-15)
(2764.5 -4.37902e-11 1.12044e-16)
(2764.5 -4.37235e-11 2.03544e-16)
(2764.5 -4.18597e-11 1.71409e-15)
(2764.5 -4.38069e-11 1.2036e-15)
(2764.5 -4.58422e-11 2.10435e-15)
(2764.5 -4.39418e-11 -2.23275e-16)
(2764.5 -3.98411e-11 -3.70351e-16)
(2764.5 -3.98606e-11 4.19049e-15)
(2764.5 -4.33457e-11 3.5672e-15)
(2764.5 -4.59885e-11 2.49837e-15)
(2764.5 -4.70632e-11 1.67185e-15)
(2764.5 -5.1143e-11 1.99974e-15)
(2764.5 -5.28751e-11 2.33801e-15)
(2764.5 -4.97727e-11 2.04556e-15)
(2764.5 -4.57724e-11 1.89692e-15)
(2764.5 -4.23066e-11 2.92642e-15)
(2764.5 -3.73845e-11 1.9732e-15)
(2764.5 -3.67076e-11 1.10139e-15)
(2764.5 -3.68812e-11 2.27276e-15)
(2764.5 -3.03345e-11 1.20219e-15)
(2764.5 -2.66459e-11 -5.2534e-16)
(2764.5 -2.79265e-11 1.09121e-15)
(2764.5 -3.00299e-11 1.76047e-15)
(2764.5 -2.6167e-11 1.88047e-15)
(2764.5 -2.42617e-11 2.04279e-15)
(2764.5 -2.72189e-11 1.64924e-15)
(2764.5 -3.24669e-11 1.50434e-15)
(2764.5 -3.4336e-11 1.48555e-15)
(2764.5 -3.77129e-11 1.46364e-15)
(2764.5 -4.15739e-11 8.08248e-16)
(2764.5 -5.00905e-11 4.11276e-16)
(2764.5 -5.37737e-11 1.93803e-15)
(2764.5 -5.18131e-11 3.43464e-15)
(2764.5 -4.77448e-11 2.28182e-15)
(2764.5 -4.6452e-11 2.08032e-15)
(2764.5 -4.51792e-11 1.70596e-15)
(2764.5 -4.42059e-11 1.28118e-15)
(2764.5 -4.36971e-11 6.51971e-16)
(2764.5 -4.27689e-11 9.45528e-16)
(2764.5 -3.80886e-11 1.12254e-15)
(2764.5 -3.63733e-11 1.37382e-15)
(2764.5 -3.0778e-11 1.4043e-15)
(2764.5 -2.76831e-11 1.1923e-15)
(2764.5 -3.06603e-11 1.69064e-15)
(2764.5 -3.33287e-11 1.01252e-15)
(2764.5 -3.46188e-11 2.45072e-15)
(2764.5 -3.76842e-11 2.31979e-15)
(2764.5 -4.0934e-11 1.73513e-16)
(2764.5 -4.53458e-11 7.89852e-18)
(2764.5 -4.7237e-11 5.57144e-16)
(2764.5 -4.34133e-11 8.55543e-16)
(2764.5 -4.4296e-11 1.32471e-15)
(2764.5 -4.24674e-11 1.02555e-15)
(2764.5 -3.8519e-11 1.16153e-15)
(2764.5 -4.12053e-11 1.72237e-15)
(2764.5 -4.33408e-11 1.61077e-15)
(2764.5 -4.24523e-11 1.6821e-15)
(2764.5 -4.11809e-11 1.21192e-15)
(2764.5 -4.27457e-11 1.5954e-15)
(2764.5 -4.52095e-11 1.08737e-15)
(2764.5 -4.40903e-11 1.78734e-15)
(2764.5 -3.87339e-11 1.77765e-15)
(2764.5 -2.65843e-11 1.09793e-15)
(2764.5 -1.75145e-11 2.36384e-15)
(2764.5 -1.47768e-11 2.93777e-15)
(2764.5 -2.40654e-11 1.96449e-15)
(2764.5 -3.32225e-11 2.84435e-15)
(2764.5 -3.60521e-11 7.20425e-16)
(2764.5 -3.67508e-11 1.15688e-15)
(2764.5 -2.84546e-11 3.02139e-15)
(2764.5 -2.30429e-11 1.51089e-15)
(2764.5 -2.65749e-11 7.68576e-16)
(2764.5 -3.74151e-11 5.00786e-16)
(2764.5 -4.20992e-11 2.04077e-15)
(2764.5 -4.5092e-11 9.0601e-16)
(2764.5 -5.22737e-11 1.50144e-15)
(2764.5 -4.91477e-11 8.25197e-16)
(2764.5 -4.60769e-11 1.25452e-15)
(2764.5 -3.79605e-11 2.02153e-15)
(2764.5 -3.08704e-11 1.75701e-15)
(2764.5 -3.04819e-11 2.22585e-15)
(2764.5 -3.18575e-11 1.5274e-15)
(2764.5 -2.78925e-11 9.1662e-16)
(2764.5 -2.46801e-11 1.17421e-15)
(2764.5 -2.63882e-11 1.53808e-15)
(2764.5 -2.75613e-11 6.30261e-16)
(2764.5 -3.68238e-11 1.57425e-15)
(2764.5 -4.08769e-11 1.55197e-15)
(2764.5 -4.15583e-11 1.73177e-15)
(2764.5 -4.05554e-11 2.51925e-15)
(2764.5 -4.51796e-11 1.42899e-15)
(2764.5 -4.63652e-11 9.29478e-16)
(2764.5 -4.81166e-11 3.25249e-16)
(2764.5 -4.32386e-11 1.25184e-15)
(2764.5 -3.86047e-11 1.46384e-15)
(2764.5 -3.83732e-11 1.07711e-15)
(2764.5 -3.668e-11 1.08241e-15)
(2764.5 -3.68164e-11 6.42378e-16)
(2764.5 -4.34307e-11 8.41492e-16)
(2764.5 -5.14786e-11 1.68099e-15)
(2764.5 -6.1073e-11 1.46562e-15)
(2764.5 -6.68665e-11 5.69908e-16)
(2764.5 -6.5817e-11 9.51909e-16)
(2764.5 -5.69503e-11 5.38119e-16)
(2764.5 -3.41633e-11 1.28955e-15)
(2764.5 -2.66551e-11 1.97603e-15)
(2764.5 -2.60855e-11 1.16304e-15)
(2764.5 -2.72893e-11 1.71507e-15)
(2764.5 -3.12716e-11 1.62688e-15)
(2764.5 -3.87244e-11 1.30272e-15)
(2764.5 -4.12685e-11 1.90311e-15)
(2764.5 -4.20787e-11 2.12235e-15)
(2764.5 -4.9018e-11 1.50771e-15)
(2764.5 -5.03674e-11 1.04916e-15)
(2764.5 -5.45581e-11 1.10922e-15)
(2764.5 -5.86468e-11 8.70199e-16)
(2764.5 -1.24062e-10 1.2877e-14)
(2764.5 -1.27431e-10 1.62692e-14)
(2764.5 -1.27305e-10 1.06725e-14)
(2764.5 -1.26683e-10 1.04286e-14)
(2764.5 -1.26315e-10 1.31351e-14)
(2764.5 -1.2609e-10 1.17084e-14)
(2764.5 -1.23866e-10 9.14467e-15)
(2764.5 -1.2441e-10 1.2374e-14)
(2764.5 -1.22219e-10 1.33971e-14)
(2764.5 -1.21866e-10 1.06103e-14)
(2764.5 -1.22574e-10 1.11919e-14)
(2764.5 -1.24334e-10 1.19465e-14)
(2764.5 -1.26123e-10 1.66364e-14)
(2764.5 -1.2444e-10 1.59211e-14)
(2764.5 -1.25663e-10 1.51681e-14)
(2764.5 -1.21654e-10 1.56069e-14)
(2764.5 -1.19683e-10 1.00798e-14)
(2764.5 -6.99349e-11 4.05166e-15)
(2764.5 -9.25362e-11 5.63462e-15)
(2764.5 -1.22419e-10 9.88852e-15)
(2764.5 -1.44328e-10 9.09863e-15)
(2764.5 -1.47363e-10 8.33842e-15)
(2764.5 -1.35803e-10 9.0143e-15)
(2764.5 -1.14707e-10 7.55757e-15)
(2764.5 -9.76246e-11 7.97e-15)
(2764.5 -9.06481e-11 9.94927e-15)
(2764.5 -9.22844e-11 8.44008e-15)
(2764.5 -9.98502e-11 4.90046e-15)
(2764.5 -1.12792e-10 7.13549e-15)
(2764.5 -1.2207e-10 6.7168e-15)
(2764.5 -1.20612e-10 5.91454e-15)
(2764.5 -1.12073e-10 3.98056e-15)
(2764.5 -1.09852e-10 5.69284e-15)
(2764.5 -1.07995e-10 5.82613e-15)
(2764.5 -1.0662e-10 6.60135e-15)
(2764.5 -1.04248e-10 8.66081e-15)
(2764.5 -1.01869e-10 7.77051e-15)
(2764.5 -1.06272e-10 8.94347e-15)
(2764.5 -1.10378e-10 9.31821e-15)
(2764.5 -1.11201e-10 9.06068e-15)
(2764.5 -1.1011e-10 8.85557e-15)
(2764.5 -1.17087e-10 8.31571e-15)
(2764.5 -1.15915e-10 8.26948e-15)
(2764.5 -1.13774e-10 7.7918e-15)
(2764.5 -1.14901e-10 7.64134e-15)
(2764.5 -1.13465e-10 7.55159e-15)
(2764.5 -1.1325e-10 7.45637e-15)
(2764.5 -1.13047e-10 5.24335e-15)
(2764.5 -1.0983e-10 9.31753e-15)
(2764.5 -1.07277e-10 8.50782e-15)
(2764.5 -1.11194e-10 7.3593e-15)
(2764.5 -1.11121e-10 5.88045e-15)
(2764.5 -1.11946e-10 7.10515e-15)
(2764.5 -1.15529e-10 8.06144e-15)
(2764.5 -1.16458e-10 5.88677e-15)
(2764.5 -1.20616e-10 7.33572e-15)
(2764.5 -1.24431e-10 8.90575e-15)
(2764.5 -1.29687e-10 9.30286e-15)
(2764.5 -1.30848e-10 1.02256e-14)
(2764.5 -1.33778e-10 7.37652e-15)
(2764.5 -1.27132e-10 7.99393e-15)
(2764.5 -1.21542e-10 1.00997e-14)
(2764.5 -1.17061e-10 8.2021e-15)
(2764.5 -1.15255e-10 5.46031e-15)
(2764.5 -1.10545e-10 4.36634e-15)
(2764.5 -1.03291e-10 7.94305e-15)
(2764.5 -1.01617e-10 5.19768e-15)
(2764.5 -1.03416e-10 6.50143e-15)
(2764.5 -9.79369e-11 6.74731e-15)
(2764.5 -9.83417e-11 6.83155e-15)
(2764.5 -1.03812e-10 6.8635e-15)
(2764.5 -1.07357e-10 4.64645e-15)
(2764.5 -1.05318e-10 4.91999e-15)
(2764.5 -1.05586e-10 6.08114e-15)
(2764.5 -1.11209e-10 6.77219e-15)
(2764.5 -1.19121e-10 8.78131e-15)
(2764.5 -1.18138e-10 7.04786e-15)
(2764.5 -1.15328e-10 5.92526e-15)
(2764.5 -1.10106e-10 6.68005e-15)
(2764.5 -1.1482e-10 6.11352e-15)
(2764.5 -1.19875e-10 5.94593e-15)
(2764.5 -1.2444e-10 8.54438e-15)
(2764.5 -1.29258e-10 9.15722e-15)
(2764.5 -1.25327e-10 5.98198e-15)
(2764.5 -1.22018e-10 5.57658e-15)
(2764.5 -1.22094e-10 7.65294e-15)
(2764.5 -1.22195e-10 6.21874e-15)
(2764.5 -1.2949e-10 6.30457e-15)
(2764.5 -1.30469e-10 6.3096e-15)
(2764.5 -1.29076e-10 5.85156e-15)
(2764.5 -1.21201e-10 6.07119e-15)
(2764.5 -1.16359e-10 7.77307e-15)
(2764.5 -1.15397e-10 8.63991e-15)
(2764.5 -1.15685e-10 6.08775e-15)
(2764.5 -1.1262e-10 4.65442e-15)
(2764.5 -1.13385e-10 5.22299e-15)
(2764.5 -1.10009e-10 4.5099e-15)
(2764.5 -1.05973e-10 3.19687e-15)
(2764.5 -1.0252e-10 3.41149e-15)
(2764.5 -1.09301e-10 5.22004e-15)
(2764.5 -1.12354e-10 6.65707e-15)
(2764.5 -1.03535e-10 7.41383e-15)
(2764.5 -9.97136e-11 7.34274e-15)
(2764.5 -1.02147e-10 4.80317e-15)
(2764.5 -1.02968e-10 5.23545e-15)
(2764.5 -1.04539e-10 7.15269e-15)
(2764.5 -1.06895e-10 7.5842e-15)
(2764.5 -1.10845e-10 7.5362e-15)
(2764.5 -1.12609e-10 8.00921e-15)
(2764.5 -1.14512e-10 8.69713e-15)
(2764.5 -1.08478e-10 4.16604e-15)
(2764.5 -1.07542e-10 1.75081e-15)
(2764.5 -1.06121e-10 5.58889e-15)
(2764.5 -1.18304e-10 2.45645e-15)
(2764.5 -1.10686e-10 4.72611e-15)
(2764.5 -1.05013e-10 8.59226e-15)
(2764.5 -1.02024e-10 4.65982e-15)
(2764.5 -1.05431e-10 5.35378e-15)
(2764.5 -1.07329e-10 3.55129e-15)
(2764.5 -1.00231e-10 4.06461e-15)
(2764.5 -9.50027e-11 5.75575e-15)
(2764.5 -9.62891e-11 6.05701e-15)
(2764.5 -9.02817e-11 5.88434e-15)
(2764.5 -8.08048e-11 4.44544e-15)
(2764.5 -8.17132e-11 5.45108e-15)
(2764.5 -8.62876e-11 5.17152e-15)
(2764.5 -9.72474e-11 2.3077e-15)
(2764.5 -1.01746e-10 7.74965e-15)
(2764.5 -1.06653e-10 8.61132e-15)
(2764.5 -1.10857e-10 5.31069e-15)
(2764.5 -1.09608e-10 5.4991e-15)
(2764.5 -1.06337e-10 5.2354e-15)
(2764.5 -1.04877e-10 4.92587e-15)
(2764.5 -1.08402e-10 6.98934e-15)
(2764.5 -1.04869e-10 8.05956e-15)
(2764.5 -1.0942e-10 5.82633e-15)
(2764.5 -1.07001e-10 6.21723e-15)
(2764.5 -1.02527e-10 3.57441e-15)
(2764.5 -1.02387e-10 2.69873e-15)
(2764.5 -9.98945e-11 7.20234e-15)
(2764.5 -9.15484e-11 6.00955e-15)
(2764.5 -9.24951e-11 4.71106e-15)
(2764.5 -9.32354e-11 3.94172e-15)
(2764.5 -1.00962e-10 4.16542e-15)
(2764.5 -1.09316e-10 3.69155e-15)
(2764.5 -1.08165e-10 3.56955e-15)
(2764.5 -1.14526e-10 4.36289e-15)
(2764.5 -1.13872e-10 5.29429e-15)
(2764.5 -1.09e-10 3.52731e-15)
(2764.5 -1.08275e-10 3.87898e-15)
(2764.5 -1.16732e-10 4.17157e-15)
(2764.5 -1.18592e-10 5.20556e-15)
(2764.5 -1.15736e-10 5.49749e-15)
(2764.5 -1.14816e-10 4.23273e-15)
(2764.5 -1.22179e-10 3.87421e-15)
(2764.5 -1.24183e-10 3.10194e-15)
(2764.5 -1.29861e-10 5.14692e-15)
(2764.5 -1.29578e-10 5.47779e-15)
(2764.5 -1.15002e-10 5.80729e-15)
(2764.5 -9.18361e-11 5.63784e-15)
(2764.5 -9.18521e-11 5.22024e-15)
(2764.5 -9.79622e-11 6.39158e-15)
(2764.5 -1.07195e-10 6.02593e-15)
(2764.5 -1.20706e-10 5.29109e-15)
(2764.5 -1.1712e-10 5.48858e-15)
(2764.5 -9.88254e-11 4.49638e-15)
(2764.5 -8.45706e-11 4.04742e-15)
(2764.5 -8.86306e-11 4.13095e-15)
(2764.5 -9.19033e-11 4.45834e-15)
(2764.5 -9.99199e-11 5.53091e-15)
(2764.5 -1.05104e-10 5.66063e-15)
(2764.5 -1.07e-10 5.60857e-15)
(2764.5 -1.13016e-10 5.41514e-15)
(2764.5 -1.10863e-10 4.63462e-15)
(2764.5 -1.00892e-10 5.53588e-15)
(2764.5 -9.6611e-11 4.80919e-15)
(2764.5 -1.0285e-10 3.67241e-15)
(2764.5 -9.61537e-11 4.55176e-15)
(2764.5 -9.19522e-11 3.84706e-15)
(2764.5 -8.52888e-11 3.78572e-15)
(2764.5 -8.5137e-11 5.36493e-15)
(2764.5 -9.59637e-11 3.17998e-15)
(2764.5 -1.07561e-10 3.63012e-15)
(2764.5 -1.14025e-10 5.68762e-15)
(2764.5 -1.21313e-10 5.49177e-15)
(2764.5 -1.29204e-10 5.19476e-15)
(2764.5 -1.30429e-10 5.21139e-15)
(2764.5 -1.43092e-10 5.78454e-15)
(2764.5 -1.45512e-10 2.78587e-15)
(2764.5 -1.36295e-10 4.36604e-15)
(2764.5 -1.36876e-10 4.75191e-15)
(2764.5 -1.199e-10 3.60745e-15)
(2764.5 -9.34897e-11 4.34564e-15)
(2764.5 -7.90736e-11 4.23468e-15)
(2764.5 -6.98536e-11 4.23851e-15)
(2764.5 -7.15238e-11 3.98195e-15)
(2764.5 -7.56251e-11 4.46342e-15)
(2764.5 -8.80026e-11 4.40647e-15)
(2764.5 -1.00472e-10 4.40809e-15)
(2764.5 -8.41023e-11 4.40927e-15)
(2764.5 -7.10846e-11 4.27659e-15)
(2764.5 -6.84933e-11 3.39236e-15)
(2764.5 -6.40237e-11 2.45378e-15)
(2764.5 -6.92327e-11 3.42312e-15)
(2764.5 -7.32885e-11 4.93437e-15)
(2764.5 -8.33005e-11 4.77834e-15)
(2764.5 -9.80044e-11 6.29736e-15)
(2764.5 -1.2031e-10 6.59924e-15)
(2764.5 -1.33109e-10 5.19006e-15)
(2764.5 -1.66581e-10 4.21633e-15)
(2764.5 -2.06454e-10 1.80921e-14)
(2764.5 -2.07604e-10 2.19345e-14)
(2764.5 -2.0933e-10 2.07605e-14)
(2764.5 -2.08508e-10 2.02966e-14)
(2764.5 -2.06874e-10 2.21729e-14)
(2764.5 -2.06692e-10 2.05685e-14)
(2764.5 -2.04232e-10 1.93728e-14)
(2764.5 -2.05063e-10 1.81004e-14)
(2764.5 -2.05825e-10 2.31321e-14)
(2764.5 -2.04084e-10 2.22001e-14)
(2764.5 -2.05751e-10 2.16272e-14)
(2764.5 -2.05981e-10 2.25185e-14)
(2764.5 -2.08273e-10 1.65081e-14)
(2764.5 -2.12921e-10 1.59063e-14)
(2764.5 -2.15364e-10 2.13552e-14)
(2764.5 -2.15517e-10 2.03745e-14)
(2764.5 -2.39213e-10 1.24591e-14)
(2764.5 -1.93308e-10 1.40219e-14)
(2764.5 -1.56303e-10 1.47819e-14)
(2764.5 -1.51257e-10 1.50008e-14)
(2764.5 -1.56216e-10 1.4853e-14)
(2764.5 -1.69278e-10 1.36126e-14)
(2764.5 -1.90276e-10 1.13127e-14)
(2764.5 -1.98555e-10 1.61167e-14)
(2764.5 -1.96012e-10 1.33883e-14)
(2764.5 -1.9097e-10 1.25345e-14)
(2764.5 -1.79719e-10 1.49413e-14)
(2764.5 -1.71606e-10 1.28912e-14)
(2764.5 -1.72448e-10 1.4685e-14)
(2764.5 -1.79833e-10 1.41443e-14)
(2764.5 -1.81311e-10 1.00751e-14)
(2764.5 -1.82989e-10 1.16217e-14)
(2764.5 -1.82268e-10 1.1141e-14)
(2764.5 -1.81812e-10 1.29166e-14)
(2764.5 -1.78701e-10 1.3613e-14)
(2764.5 -1.69963e-10 1.12344e-14)
(2764.5 -1.67817e-10 1.25985e-14)
(2764.5 -1.65961e-10 1.34617e-14)
(2764.5 -1.67515e-10 1.25154e-14)
(2764.5 -1.69081e-10 1.28762e-14)
(2764.5 -1.74115e-10 1.38805e-14)
(2764.5 -1.77117e-10 1.27372e-14)
(2764.5 -1.78531e-10 1.26652e-14)
(2764.5 -1.80188e-10 1.2047e-14)
(2764.5 -1.81243e-10 1.16173e-14)
(2764.5 -1.8058e-10 1.23892e-14)
(2764.5 -1.76532e-10 1.10727e-14)
(2764.5 -1.74569e-10 1.20355e-14)
(2764.5 -1.69816e-10 1.13186e-14)
(2764.5 -1.65455e-10 1.36216e-14)
(2764.5 -1.66832e-10 1.20254e-14)
(2764.5 -1.65131e-10 1.67486e-14)
(2764.5 -1.63031e-10 1.01403e-14)
(2764.5 -1.63541e-10 1.11817e-14)
(2764.5 -1.66555e-10 1.26661e-14)
(2764.5 -1.66248e-10 1.25111e-14)
(2764.5 -1.73187e-10 1.24223e-14)
(2764.5 -1.80112e-10 1.47976e-14)
(2764.5 -1.89412e-10 1.10622e-14)
(2764.5 -1.97795e-10 1.30298e-14)
(2764.5 -2.05308e-10 1.12355e-14)
(2764.5 -2.0303e-10 1.15662e-14)
(2764.5 -2.03411e-10 1.2217e-14)
(2764.5 -1.98337e-10 1.4143e-14)
(2764.5 -1.90163e-10 1.27628e-14)
(2764.5 -1.85566e-10 1.1377e-14)
(2764.5 -1.88554e-10 1.12453e-14)
(2764.5 -1.87534e-10 1.09093e-14)
(2764.5 -1.79494e-10 9.96915e-15)
(2764.5 -1.7674e-10 8.61223e-15)
(2764.5 -1.77032e-10 8.46462e-15)
(2764.5 -1.72275e-10 1.38814e-14)
(2764.5 -1.65244e-10 9.13684e-15)
(2764.5 -1.64215e-10 1.06202e-14)
(2764.5 -1.65061e-10 1.22471e-14)
(2764.5 -1.76641e-10 1.12164e-14)
(2764.5 -1.82026e-10 1.16406e-14)
(2764.5 -1.78433e-10 1.18455e-14)
(2764.5 -1.75726e-10 1.24104e-14)
(2764.5 -1.71115e-10 1.26949e-14)
(2764.5 -1.72997e-10 9.89751e-15)
(2764.5 -1.83791e-10 9.57662e-15)
(2764.5 -1.91248e-10 1.16791e-14)
(2764.5 -1.93152e-10 1.01671e-14)
(2764.5 -1.87893e-10 1.04012e-14)
(2764.5 -1.81736e-10 1.24928e-14)
(2764.5 -1.80705e-10 1.07328e-14)
(2764.5 -1.8322e-10 9.67384e-15)
(2764.5 -1.93777e-10 1.24123e-14)
(2764.5 -1.99084e-10 1.26049e-14)
(2764.5 -1.92853e-10 9.08199e-15)
(2764.5 -1.86528e-10 8.41001e-15)
(2764.5 -1.84032e-10 1.13172e-14)
(2764.5 -1.84736e-10 9.72891e-15)
(2764.5 -1.84732e-10 9.3515e-15)
(2764.5 -1.90349e-10 7.87749e-15)
(2764.5 -1.85329e-10 7.94755e-15)
(2764.5 -1.77674e-10 9.50578e-15)
(2764.5 -1.67665e-10 1.11354e-14)
(2764.5 -1.7328e-10 1.05126e-14)
(2764.5 -1.82401e-10 1.0025e-14)
(2764.5 -1.79842e-10 9.89046e-15)
(2764.5 -1.73609e-10 8.29634e-15)
(2764.5 -1.66309e-10 7.57918e-15)
(2764.5 -1.68986e-10 7.46897e-15)
(2764.5 -1.7504e-10 9.47821e-15)
(2764.5 -1.80679e-10 1.11114e-14)
(2764.5 -1.86141e-10 1.01758e-14)
(2764.5 -1.96458e-10 9.50268e-15)
(2764.5 -2.01541e-10 9.08728e-15)
(2764.5 -1.98247e-10 7.83728e-15)
(2764.5 -1.93125e-10 8.22303e-15)
(2764.5 -1.90582e-10 7.14195e-15)
(2764.5 -1.95307e-10 1.16738e-14)
(2764.5 -1.94065e-10 1.22528e-14)
(2764.5 -1.90426e-10 8.92037e-15)
(2764.5 -1.91145e-10 8.28887e-15)
(2764.5 -1.96571e-10 8.31987e-15)
(2764.5 -1.92666e-10 8.45481e-15)
(2764.5 -1.88312e-10 9.63371e-15)
(2764.5 -1.8544e-10 1.02526e-14)
(2764.5 -1.86261e-10 8.07209e-15)
(2764.5 -1.75286e-10 7.88914e-15)
(2764.5 -1.70741e-10 9.64437e-15)
(2764.5 -1.56148e-10 8.17249e-15)
(2764.5 -1.55372e-10 9.85566e-15)
(2764.5 -1.58451e-10 1.09305e-14)
(2764.5 -1.60021e-10 1.08287e-14)
(2764.5 -1.64684e-10 8.71018e-15)
(2764.5 -1.7134e-10 9.34938e-15)
(2764.5 -1.75209e-10 9.07462e-15)
(2764.5 -1.74672e-10 9.56131e-15)
(2764.5 -1.78919e-10 9.37903e-15)
(2764.5 -1.823e-10 1.09374e-14)
(2764.5 -1.83807e-10 1.00406e-14)
(2764.5 -1.8589e-10 9.84214e-15)
(2764.5 -1.83747e-10 9.56073e-15)
(2764.5 -1.79703e-10 9.21985e-15)
(2764.5 -1.8106e-10 9.33066e-15)
(2764.5 -1.83234e-10 8.83482e-15)
(2764.5 -1.76723e-10 8.46341e-15)
(2764.5 -1.64504e-10 7.87318e-15)
(2764.5 -1.6098e-10 7.40893e-15)
(2764.5 -1.71657e-10 9.02131e-15)
(2764.5 -1.61663e-10 6.39385e-15)
(2764.5 -1.57172e-10 6.304e-15)
(2764.5 -1.56804e-10 6.00289e-15)
(2764.5 -1.51748e-10 6.17971e-15)
(2764.5 -1.4057e-10 8.86096e-15)
(2764.5 -1.38881e-10 9.12566e-15)
(2764.5 -1.46034e-10 8.70155e-15)
(2764.5 -1.57826e-10 8.67804e-15)
(2764.5 -1.61018e-10 8.57476e-15)
(2764.5 -1.69015e-10 8.82503e-15)
(2764.5 -1.85634e-10 1.00974e-14)
(2764.5 -2.00055e-10 8.95208e-15)
(2764.5 -2.11179e-10 8.7419e-15)
(2764.5 -2.30007e-10 8.5496e-15)
(2764.5 -2.24805e-10 9.15835e-15)
(2764.5 -1.97658e-10 8.93294e-15)
(2764.5 -1.79762e-10 8.48524e-15)
(2764.5 -1.74646e-10 7.32004e-15)
(2764.5 -1.75384e-10 8.65914e-15)
(2764.5 -1.9014e-10 9.50293e-15)
(2764.5 -1.89609e-10 9.04241e-15)
(2764.5 -1.7698e-10 8.4259e-15)
(2764.5 -1.69817e-10 8.6235e-15)
(2764.5 -1.54183e-10 8.58989e-15)
(2764.5 -1.49693e-10 9.47276e-15)
(2764.5 -1.55246e-10 7.89009e-15)
(2764.5 -1.6542e-10 6.94226e-15)
(2764.5 -1.79543e-10 8.39087e-15)
(2764.5 -1.86442e-10 8.97946e-15)
(2764.5 -1.85701e-10 9.9052e-15)
(2764.5 -1.82155e-10 7.90123e-15)
(2764.5 -1.84814e-10 8.40029e-15)
(2764.5 -1.85674e-10 7.52662e-15)
(2764.5 -1.84169e-10 5.82052e-15)
(2764.5 -1.768e-10 4.82378e-15)
(2764.5 -1.71284e-10 5.55036e-15)
(2764.5 -1.64119e-10 7.32311e-15)
(2764.5 -1.55539e-10 8.58789e-15)
(2764.5 -1.60981e-10 7.19528e-15)
(2764.5 -1.41795e-10 6.32321e-15)
(2764.5 -1.50164e-10 8.77492e-15)
(2764.5 -1.52092e-10 8.15796e-15)
(2764.5 -1.55391e-10 6.56226e-15)
(2764.5 -1.68964e-10 9.0802e-15)
(2764.5 -1.6661e-10 9.70343e-15)
(2764.5 -1.69181e-10 7.45533e-15)
(2764.5 -1.74772e-10 5.52701e-15)
(2764.5 -1.81252e-10 5.128e-15)
(2764.5 -1.79262e-10 6.81942e-15)
(2764.5 -1.73731e-10 6.135e-15)
(2764.5 -1.71117e-10 5.14469e-15)
(2764.5 -1.73428e-10 3.74743e-15)
(2764.5 -1.76915e-10 4.98474e-15)
(2764.5 -1.95745e-10 5.63129e-15)
(2764.5 -2.2319e-10 6.07064e-15)
(2764.5 -2.37997e-10 6.59211e-15)
(2764.5 -2.32595e-10 6.16529e-15)
(2764.5 -2.30591e-10 8.35571e-15)
(2764.5 -2.22873e-10 6.68834e-15)
(2764.5 -2.21446e-10 5.92583e-15)
(2764.5 -2.29474e-10 7.91662e-15)
(2764.5 -2.01437e-10 7.61622e-15)
(2764.5 -1.85322e-10 7.13891e-15)
(2764.5 -1.61918e-10 8.64107e-15)
(2764.5 -1.36227e-10 8.35379e-15)
(2764.5 -2.90267e-10 2.73271e-14)
(2764.5 -2.90708e-10 2.73317e-14)
(2764.5 -2.93371e-10 2.29064e-14)
(2764.5 -2.97267e-10 2.80642e-14)
(2764.5 -2.9582e-10 2.94751e-14)
(2764.5 -2.90055e-10 2.47159e-14)
(2764.5 -2.87456e-10 2.52741e-14)
(2764.5 -2.83728e-10 2.69381e-14)
(2764.5 -2.81076e-10 2.54256e-14)
(2764.5 -2.77396e-10 2.6828e-14)
(2764.5 -2.75499e-10 3.13426e-14)
(2764.5 -2.75686e-10 2.90848e-14)
(2764.5 -2.74537e-10 2.71262e-14)
(2764.5 -2.76518e-10 2.74359e-14)
(2764.5 -2.83904e-10 3.072e-14)
(2764.5 -2.93641e-10 2.48502e-14)
(2764.5 -2.04282e-10 1.82296e-14)
(2764.5 -2.74172e-10 1.70783e-14)
(2764.5 -3.23874e-10 1.85443e-14)
(2764.5 -3.42758e-10 1.77008e-14)
(2764.5 -3.37321e-10 1.92548e-14)
(2764.5 -3.05547e-10 2.01406e-14)
(2764.5 -2.68252e-10 1.77586e-14)
(2764.5 -2.39025e-10 1.86913e-14)
(2764.5 -2.31347e-10 2.01897e-14)
(2764.5 -2.34207e-10 2.15786e-14)
(2764.5 -2.52022e-10 1.83681e-14)
(2764.5 -2.63783e-10 1.81352e-14)
(2764.5 -2.64031e-10 1.63993e-14)
(2764.5 -2.61232e-10 1.40069e-14)
(2764.5 -2.5711e-10 2.00234e-14)
(2764.5 -2.52921e-10 1.66388e-14)
(2764.5 -2.52986e-10 1.65659e-14)
(2764.5 -2.56361e-10 1.53524e-14)
(2764.5 -2.56731e-10 1.34775e-14)
(2764.5 -2.55295e-10 1.57548e-14)
(2764.5 -2.54001e-10 1.69618e-14)
(2764.5 -2.51184e-10 1.90298e-14)
(2764.5 -2.51219e-10 1.95388e-14)
(2764.5 -2.39346e-10 1.82578e-14)
(2764.5 -2.363e-10 1.56645e-14)
(2764.5 -2.34497e-10 1.66907e-14)
(2764.5 -2.35356e-10 1.7128e-14)
(2764.5 -2.35415e-10 1.74552e-14)
(2764.5 -2.36212e-10 2.01574e-14)
(2764.5 -2.45235e-10 1.81934e-14)
(2764.5 -2.4919e-10 1.52236e-14)
(2764.5 -2.47137e-10 1.71075e-14)
(2764.5 -2.45296e-10 1.52621e-14)
(2764.5 -2.40399e-10 1.58982e-14)
(2764.5 -2.36797e-10 1.66835e-14)
(2764.5 -2.39503e-10 1.75064e-14)
(2764.5 -2.38739e-10 1.61441e-14)
(2764.5 -2.40572e-10 1.8173e-14)
(2764.5 -2.36012e-10 1.96912e-14)
(2764.5 -2.36815e-10 1.43709e-14)
(2764.5 -2.34656e-10 1.92883e-14)
(2764.5 -2.39764e-10 1.66147e-14)
(2764.5 -2.41914e-10 1.55178e-14)
(2764.5 -2.51463e-10 1.79009e-14)
(2764.5 -2.59994e-10 1.80557e-14)
(2764.5 -2.67047e-10 1.79871e-14)
(2764.5 -2.68124e-10 1.75646e-14)
(2764.5 -2.67665e-10 1.61377e-14)
(2764.5 -2.64974e-10 1.77267e-14)
(2764.5 -2.57677e-10 1.43034e-14)
(2764.5 -2.5328e-10 1.33529e-14)
(2764.5 -2.49959e-10 1.61254e-14)
(2764.5 -2.49977e-10 1.56849e-14)
(2764.5 -2.4558e-10 1.56468e-14)
(2764.5 -2.43972e-10 1.64861e-14)
(2764.5 -2.44576e-10 1.72801e-14)
(2764.5 -2.46865e-10 1.43115e-14)
(2764.5 -2.40913e-10 1.54477e-14)
(2764.5 -2.31525e-10 1.56499e-14)
(2764.5 -2.29958e-10 1.62291e-14)
(2764.5 -2.33606e-10 1.74152e-14)
(2764.5 -2.45255e-10 1.53955e-14)
(2764.5 -2.47276e-10 1.52582e-14)
(2764.5 -2.42514e-10 1.58208e-14)
(2764.5 -2.33004e-10 1.25982e-14)
(2764.5 -2.28423e-10 1.28688e-14)
(2764.5 -2.32385e-10 1.68383e-14)
(2764.5 -2.42821e-10 1.53232e-14)
(2764.5 -2.5419e-10 1.59023e-14)
(2764.5 -2.62414e-10 1.57567e-14)
(2764.5 -2.66339e-10 1.52186e-14)
(2764.5 -2.62431e-10 1.48317e-14)
(2764.5 -2.59832e-10 1.556e-14)
(2764.5 -2.6604e-10 1.48931e-14)
(2764.5 -2.72368e-10 1.46852e-14)
(2764.5 -2.65417e-10 1.4763e-14)
(2764.5 -2.61574e-10 1.5353e-14)
(2764.5 -2.53738e-10 1.47421e-14)
(2764.5 -2.4984e-10 1.58118e-14)
(2764.5 -2.53186e-10 1.43742e-14)
(2764.5 -2.57106e-10 1.65002e-14)
(2764.5 -2.68125e-10 1.48832e-14)
(2764.5 -2.62646e-10 1.40078e-14)
(2764.5 -2.48962e-10 1.4161e-14)
(2764.5 -2.4777e-10 1.55117e-14)
(2764.5 -2.45315e-10 1.62733e-14)
(2764.5 -2.50761e-10 1.43249e-14)
(2764.5 -2.514e-10 1.2571e-14)
(2764.5 -2.42307e-10 1.1227e-14)
(2764.5 -2.44808e-10 1.42684e-14)
(2764.5 -2.49653e-10 1.57129e-14)
(2764.5 -2.53666e-10 1.32185e-14)
(2764.5 -2.5483e-10 1.37987e-14)
(2764.5 -2.61353e-10 1.36582e-14)
(2764.5 -2.65105e-10 1.27727e-14)
(2764.5 -2.65664e-10 1.20481e-14)
(2764.5 -2.65863e-10 1.2634e-14)
(2764.5 -2.6704e-10 1.39531e-14)
(2764.5 -2.59805e-10 1.3787e-14)
(2764.5 -2.5159e-10 1.28169e-14)
(2764.5 -2.44361e-10 1.29216e-14)
(2764.5 -2.42994e-10 1.39383e-14)
(2764.5 -2.47371e-10 1.34741e-14)
(2764.5 -2.5214e-10 1.59606e-14)
(2764.5 -2.56195e-10 1.31523e-14)
(2764.5 -2.59606e-10 1.28453e-14)
(2764.5 -2.59149e-10 1.31324e-14)
(2764.5 -2.50375e-10 1.55766e-14)
(2764.5 -2.38935e-10 1.35941e-14)
(2764.5 -2.27704e-10 1.32067e-14)
(2764.5 -2.31344e-10 1.02614e-14)
(2764.5 -2.22197e-10 1.52164e-14)
(2764.5 -2.24062e-10 1.35994e-14)
(2764.5 -2.24218e-10 1.21516e-14)
(2764.5 -2.29815e-10 1.39536e-14)
(2764.5 -2.35012e-10 1.11402e-14)
(2764.5 -2.37107e-10 1.25652e-14)
(2764.5 -2.48055e-10 1.21027e-14)
(2764.5 -2.49669e-10 1.40437e-14)
(2764.5 -2.4777e-10 1.61056e-14)
(2764.5 -2.44052e-10 1.37226e-14)
(2764.5 -2.41316e-10 1.21528e-14)
(2764.5 -2.39518e-10 1.38794e-14)
(2764.5 -2.40075e-10 1.35463e-14)
(2764.5 -2.39967e-10 1.29384e-14)
(2764.5 -2.36777e-10 1.24167e-14)
(2764.5 -2.29427e-10 1.08689e-14)
(2764.5 -2.32576e-10 1.02955e-14)
(2764.5 -2.42978e-10 1.23916e-14)
(2764.5 -2.48251e-10 1.19032e-14)
(2764.5 -2.52777e-10 1.13955e-14)
(2764.5 -2.51784e-10 1.08405e-14)
(2764.5 -2.50796e-10 1.02811e-14)
(2764.5 -2.40669e-10 1.02914e-14)
(2764.5 -2.298e-10 1.02962e-14)
(2764.5 -2.24065e-10 1.05567e-14)
(2764.5 -2.24364e-10 1.0846e-14)
(2764.5 -2.19163e-10 1.34432e-14)
(2764.5 -2.15842e-10 1.3438e-14)
(2764.5 -2.22647e-10 1.06678e-14)
(2764.5 -2.35507e-10 9.66148e-15)
(2764.5 -2.46829e-10 1.0188e-14)
(2764.5 -2.6536e-10 1.0438e-14)
(2764.5 -2.67439e-10 1.0784e-14)
(2764.5 -2.61135e-10 8.73546e-15)
(2764.5 -2.28761e-10 1.19305e-14)
(2764.5 -2.18985e-10 1.15196e-14)
(2764.5 -2.2921e-10 1.12836e-14)
(2764.5 -2.38962e-10 1.05461e-14)
(2764.5 -2.50494e-10 1.10866e-14)
(2764.5 -2.51716e-10 1.0977e-14)
(2764.5 -2.4121e-10 9.68481e-15)
(2764.5 -2.31212e-10 1.01096e-14)
(2764.5 -2.23642e-10 9.07845e-15)
(2764.5 -2.24386e-10 9.83954e-15)
(2764.5 -2.30959e-10 9.06528e-15)
(2764.5 -2.42392e-10 1.0242e-14)
(2764.5 -2.58163e-10 1.13724e-14)
(2764.5 -2.61315e-10 1.11535e-14)
(2764.5 -2.54667e-10 1.02233e-14)
(2764.5 -2.60167e-10 1.1843e-14)
(2764.5 -2.49356e-10 1.09461e-14)
(2764.5 -2.4186e-10 1.31352e-14)
(2764.5 -2.21238e-10 9.10194e-15)
(2764.5 -1.96693e-10 9.82126e-15)
(2764.5 -1.6849e-10 1.01833e-14)
(2764.5 -1.55468e-10 9.41114e-15)
(2764.5 -1.32484e-10 7.5519e-15)
(2764.5 -1.30711e-10 1.09622e-14)
(2764.5 -1.44308e-10 4.19205e-15)
(2764.5 -1.64552e-10 1.12536e-14)
(2764.5 -1.87426e-10 1.02028e-14)
(2764.5 -2.01298e-10 9.49972e-15)
(2764.5 -2.28841e-10 1.17532e-14)
(2764.5 -2.66296e-10 1.08513e-14)
(2764.5 -2.86836e-10 8.93227e-15)
(2764.5 -3.12409e-10 1.12908e-14)
(2764.5 -3.26565e-10 1.00361e-14)
(2764.5 -3.26856e-10 9.36339e-15)
(2764.5 -3.30852e-10 9.49393e-15)
(2764.5 -3.38895e-10 1.05479e-14)
(2764.5 -3.27764e-10 9.75761e-15)
(2764.5 -3.31166e-10 9.45098e-15)
(2764.5 -3.26529e-10 1.08284e-14)
(2764.5 -3.0477e-10 1.07283e-14)
(2764.5 -2.67683e-10 1.04779e-14)
(2764.5 -2.42825e-10 1.03235e-14)
(2764.5 -2.10658e-10 8.88801e-15)
(2764.5 -1.7355e-10 9.61604e-15)
(2764.5 -1.67992e-10 9.71719e-15)
(2764.5 -1.52995e-10 9.90941e-15)
(2764.5 -1.37839e-10 9.59973e-15)
(2764.5 -1.16035e-10 8.69419e-15)
(2764.5 -3.66436e-10 3.35496e-14)
(2764.5 -3.66536e-10 3.50935e-14)
(2764.5 -3.69578e-10 3.61397e-14)
(2764.5 -3.79443e-10 3.80836e-14)
(2764.5 -3.86098e-10 3.63647e-14)
(2764.5 -3.92115e-10 3.48584e-14)
(2764.5 -3.93532e-10 3.72226e-14)
(2764.5 -3.95642e-10 3.73973e-14)
(2764.5 -3.93867e-10 3.66196e-14)
(2764.5 -3.91562e-10 3.81615e-14)
(2764.5 -3.87394e-10 3.91578e-14)
(2764.5 -3.78855e-10 3.60305e-14)
(2764.5 -3.64727e-10 3.72232e-14)
(2764.5 -3.42787e-10 3.37054e-14)
(2764.5 -3.30322e-10 3.12913e-14)
(2764.5 -3.59937e-10 2.60238e-14)
(2764.5 -2.63494e-10 2.4094e-14)
(2764.5 -2.17776e-10 2.45933e-14)
(2764.5 -2.05288e-10 2.06155e-14)
(2764.5 -2.41961e-10 2.46124e-14)
(2764.5 -3.09102e-10 2.19906e-14)
(2764.5 -3.64336e-10 1.94149e-14)
(2764.5 -3.96585e-10 2.46766e-14)
(2764.5 -3.9905e-10 2.39095e-14)