/*--------------------------------*- C++ -*----------------------------------*\
| =========                 |                                                 |
| \\      /  F ield         | OpenFOAM: The Open Source CFD Toolbox           |
|  \\    /   O peration     | Version:  v1706                                 |
|   \\  /    A nd           | Web:      www.OpenFOAM.com                      |
|    \\/     M anipulation  |                                                 |
\*---------------------------------------------------------------------------*/
FoamFile
{
    version     2.0;
    format      ascii;
    class       volScalarField;
    location    "1.2e-05";
    object      wallHeatFlux;
}
// * * * * * * * * * * * * * * * * * * * * * * * * * * * * * * * * * * * * * //

dimensions      [1 0 -3 0 0 0 0];


internalField   uniform 0;

boundaryField
{
    cone
    {
        type            calculated;
        value           nonuniform List<scalar> 
119
(
78421.2
76789.5
74975.2
73069
71154.7
69305.2
67577.2
66008.9
64620.7
63417.8
62393.8
61535.2
60825.3
60247.1
59782.7
59415.2
59130.9
58916.9
58762.4
58658.3
58597.1
58572.8
58580.9
58618
58681.9
58771
58884.9
59023.3
59186.8
59376.2
59592.3
59836.2
60108.7
60410.8
60743
61105.6
61498.8
61922.5
62376.5
62860.2
63373.3
63915
64485
65082.7
65707.9
66360.4
67040.2
67747.5
68482.7
69246.2
70038.8
70861
71713.8
72598
73514.5
74464
75447.5
76465.9
77520
78610.6
79738.5
80904.7
82109.9
83354.9
84640.8
85968.4
87338.7
88752.7
90211.5
91716.1
93267.8
94867.6
96516.9
98216.7
99968.3
101773
103632
105546
107517
109545
111633
113780
115989
118260
120595
122993
125457
127988
130585
133250
135983
138786
141658
144601
147614
150698
153852
157077
160372
163738
167176
170689
174282
177967
181757
185667
189710
193884
198165
202491
206750
210787
214500
217938
221261
224810
228844
234637
243619
)
;
    }
    inlet
    {
        type            calculated;
        value           uniform 0;
    }
    rWedge
    {
        type            wedge;
    }
    lWedge
    {
        type            wedge;
    }
    outlet
    {
        type            calculated;
        value           uniform 0;
    }
    procBoundary0to1
    {
        type            processor;
        value           uniform 0;
    }
    procBoundary0to2
    {
        type            processor;
        value           uniform 0;
    }
}


// ************************************************************************* //
