/*--------------------------------*- C++ -*----------------------------------*\
| =========                 |                                                 |
| \\      /  F ield         | OpenFOAM: The Open Source CFD Toolbox           |
|  \\    /   O peration     | Version:  v1706                                 |
|   \\  /    A nd           | Web:      www.OpenFOAM.com                      |
|    \\/     M anipulation  |                                                 |
\*---------------------------------------------------------------------------*/
FoamFile
{
    version     2.0;
    format      ascii;
    class       volScalarField;
    location    "3.8e-05";
    object      Mach;
}
// * * * * * * * * * * * * * * * * * * * * * * * * * * * * * * * * * * * * * //

dimensions      [0 0 0 0 0 0 0];


internalField   nonuniform List<scalar> 
30104
(
7.18506
7.18506
7.18506
7.18506
7.18506
7.18506
7.18506
7.18506
7.18506
7.18506
7.18506
7.18506
7.18506
7.18506
7.18506
7.18506
7.18506
7.18506
7.18506
7.18506
7.18506
7.18506
7.18506
7.18506
7.18506
7.18506
7.18506
7.18506
7.18506
7.18506
7.18506
7.18506
7.18506
7.18506
7.18506
7.18506
7.18506
7.18506
7.18506
7.18506
7.18506
7.18506
7.18506
7.18506
7.18506
7.18506
7.18506
7.18506
7.18506
7.18506
7.18506
7.18506
7.18506
7.18506
7.18506
7.18506
7.18506
7.18506
7.18506
7.18506
7.18506
7.18506
7.18506
7.18506
7.18506
7.18506
7.18506
7.18506
7.18506
7.18506
7.18506
7.18506
7.18506
7.18506
7.18506
7.18506
7.18506
7.18506
7.18506
7.18506
7.18506
7.18506
7.18506
7.18506
7.18506
7.18506
7.18506
7.18506
7.18506
7.18506
7.18506
7.18506
7.18506
7.18506
7.18506
7.18506
7.18506
7.18506
7.18506
7.18506
7.18506
7.18506
7.18506
7.18506
7.18506
7.18506
7.18506
7.18506
7.18506
7.18506
7.18506
7.18506
7.18506
7.18506
7.18506
7.18506
7.18506
7.18506
7.18506
7.18506
7.18506
7.18506
7.18506
7.18506
7.18506
7.18506
7.18506
7.18506
7.18506
7.18506
7.18506
7.18506
7.18506
7.18506
7.18506
7.18506
7.18506
7.18506
7.18506
7.18506
7.18506
7.18506
7.18506
7.18506
7.18506
7.18506
7.18506
7.18506
7.18506
7.18506
7.18506
7.18506
7.18506
7.18506
7.18506
7.18506
7.18506
7.18506
7.18506
7.18506
7.18506
7.18506
7.18506
7.18506
7.18506
7.18506
7.18506
7.18506
7.18506
7.18506
7.18506
7.18506
7.18506
7.18506
7.18506
7.18506
7.18506
7.18506
7.18506
7.18506
7.18506
7.18506
7.18506
7.18506
7.18506
7.18506
7.18506
7.18506
7.18506
7.18506
7.18506
7.18506
7.18506
7.18506
7.18506
7.18506
7.18506
7.18506
7.18506
7.18506
7.18506
7.18506
7.18506
7.18506
7.18506
7.18506
7.18506
7.18506
7.18506
7.18506
7.18506
7.18506
7.18506
7.18506
7.18506
7.18506
7.18506
7.18506
7.18506
7.18506
7.18506
7.18506
7.18506
7.18506
7.18506
7.18506
7.18506
7.18506
7.18506
7.18506
7.18506
7.18506
7.18506
7.18506
7.18506
7.18506
7.18506
7.18506
7.18506
7.18506
7.18506
7.18506
7.18506
7.18506
7.18506
7.18506
7.18506
7.18506
7.18506
7.18506
7.18506
7.18506
7.18506
7.18506
7.18506
7.18506
7.18506
7.18506
7.18506
7.18506
7.18506
7.18506
7.18506
7.18506
7.18506
7.18506
7.18506
7.18506
7.18506
7.18506
7.18506
7.18506
7.18506
7.18506
7.18506
7.18506
7.18506
7.18506
7.18506
7.18506
7.18506
7.18506
7.18506
7.18506
7.18506
7.18506
7.18506
7.18506
7.18506
7.18506
7.18506
7.18506
7.18506
7.18506
7.18506
7.18506
7.18506
7.18506
7.18506
7.18506
7.18506
7.18506
7.18506
7.18506
7.18506
7.18506
7.18506
7.18506
7.18506
7.18506
7.18506
7.18506
7.18506
7.18506
7.18506
7.18506
7.18506
7.18506
7.18506
7.18506
7.18506
7.18506
7.18506
7.18506
7.18506
7.18506
7.18506
7.18506
7.18506
7.18506
7.18506
7.18506
7.18506
7.18506
7.18506
7.18506
7.18506
7.18506
7.18506
7.18506
7.18506
7.18506
7.18506
7.18506
7.18506
7.18506
7.18506
7.18506
7.18506
7.18506
7.18506
7.18506
7.18506
7.18506
7.18506
7.18506
7.18506
7.18506
7.18506
7.18506
7.18506
7.18506
7.18506
7.18506
7.18506
7.18506
7.18506
7.18506
7.18506
7.18506
7.18506
7.18506
7.18506
7.18506
7.18506
7.18506
7.18506
7.18506
7.18506
7.18506
7.18506
7.18506
7.18506
7.18506
7.18506
7.18506
7.18506
7.18506
7.18506
7.18506
7.18506
7.18506
7.18506
7.18506
7.18506
7.18506
7.18506
7.18506
7.18506
7.18506
7.18506
7.18506
7.18506
7.18506
7.18506
7.18506
7.18506
7.18506
7.18506
7.18506
7.18506
7.18506
7.18506
7.18506
7.18506
7.18506
7.18506
7.18506
7.18506
7.18506
7.18506
7.18506
7.18506
7.18506
7.18506
7.18506
7.18506
7.18506
7.18506
7.18506
7.18506
7.18506
7.18506
7.18506
7.18506
7.18506
7.18506
7.18506
7.18506
7.18506
7.18506
7.18506
7.18506
7.18506
7.18506
7.18506
7.18506
7.18506
7.18506
7.18506
7.18506
7.18506
7.18506
7.18506
7.18506
7.18506
7.18506
7.18506
7.18506
7.18506
7.18506
7.18506
7.18506
7.18506
7.18506
7.18506
7.18506
7.18506
7.18506
7.18506
7.18506
7.18506
7.18506
7.18506
7.18506
7.18506
7.18506
7.18506
7.18506
7.18506
7.18506
7.18506
7.18506
7.18506
7.18506
7.18506
7.18506
7.18506
7.18506
7.18506
7.18506
7.18506
7.18506
7.18506
7.18506
7.18506
7.18506
7.18506
7.18506
7.18506
7.18506
7.18506
7.18506
7.18506
7.18506
7.18506
7.18506
7.18506
7.18506
7.18506
7.18506
7.18506
7.18506
7.18506
7.18506
7.18506
7.18506
7.18506
7.18506
7.18506
7.18506
7.18506
7.18506
7.18506
7.18506
7.18506
7.18506
7.18506
7.18506
7.18506
7.18506
7.18506
7.18506
7.18506
7.18506
7.18506
7.18506
7.18506
7.18506
7.18506
7.18506
7.18506
7.18506
7.18506
7.18506
7.18506
7.18506
7.18506
7.18506
7.18506
7.18506
7.18506
7.18506
7.18506
7.18506
7.18506
7.18506
7.18506
7.18506
7.18506
7.18506
7.18506
7.18506
7.18506
7.18506
7.18506
7.18506
7.18506
7.18506
7.18506
7.18506
7.18506
7.18506
7.18506
7.18506
7.18506
7.18506
7.18506
7.18506
7.18506
7.18506
7.18506
7.18506
7.18506
7.18506
7.18506
7.18506
7.18506
7.18506
7.18506
7.18506
7.18506
7.18506
7.18506
7.18506
7.18506
7.18506
7.18506
7.18506
7.18506
7.18506
7.18506
7.18506
7.18506
7.18506
7.18506
7.18506
7.18506
7.18506
7.18506
7.18506
7.18506
7.18506
7.18506
7.18506
7.18506
7.18506
7.18506
7.18506
7.18506
7.18506
7.18506
7.18506
7.18506
7.18506
7.18506
7.18506
7.18506
7.18506
7.18506
7.18506
7.18506
7.18506
7.18506
7.18506
7.18506
7.18506
7.18506
7.18506
7.18506
7.18506
7.18506
7.18506
7.18506
7.18506
7.18506
7.18506
7.18506
7.18506
7.18506
7.18506
7.18506
7.18506
7.18506
7.18506
7.18506
7.18506
7.18506
7.18506
7.18506
7.18506
7.18506
7.18506
7.18506
7.18506
7.18506
7.18506
7.18506
7.18506
7.18506
7.18506
7.18506
7.18506
7.18506
7.18506
7.18506
7.18506
7.18506
7.18506
7.18506
7.18506
7.18506
7.18506
7.18506
7.18506
7.18506
7.18506
7.18506
7.18506
7.18506
7.18506
7.18506
7.18506
7.18506
7.18506
7.18506
7.18506
7.18506
7.18506
7.18506
7.18506
7.18506
7.18506
7.18506
7.18506
7.18506
7.18506
7.18506
7.18506
7.18506
7.18506
7.18506
7.18506
7.18506
7.18506
7.18506
7.18506
7.18506
7.18506
7.18506
7.18506
7.18506
7.18506
7.18506
7.18506
7.18506
7.18506
7.18506
7.18506
7.18506
7.18506
7.18506
7.18506
7.18506
7.18506
7.18506
7.18506
7.18506
7.18506
7.18506
7.18506
7.18506
7.18506
7.18506
7.18506
7.18506
7.18506
7.18506
7.18506
7.18506
7.18506
7.18506
7.18506
7.18506
7.18506
7.18506
7.18506
7.18506
7.18506
7.18506
7.18506
7.18506
7.18506
7.18506
7.18506
7.18506
7.18506
7.18506
7.18506
7.18506
7.18506
7.18506
7.18506
7.18506
7.18506
7.18506
7.18506
7.18506
7.18506
7.18506
7.18506
7.18506
7.18506
7.18506
7.18506
7.18506
7.18506
7.18506
7.18506
7.18506
7.18506
7.18506
7.18506
7.18506
7.18506
7.18506
7.18506
7.18506
7.18506
7.18506
7.18506
7.18506
7.18506
7.18506
7.18506
7.18506
7.18506
7.18506
7.18506
7.18506
7.18506
7.18506
7.18506
7.18506
7.18506
7.18506
7.18506
7.18506
7.18506
7.18506
7.18506
7.18506
7.18506
7.18506
7.18506
7.18506
7.18506
7.18506
7.18506
7.18506
7.18506
7.18506
7.18506
7.18506
7.18506
7.18506
7.18506
7.18506
7.18506
7.18506
7.18506
7.18506
7.18506
7.18506
7.18506
7.18506
7.18506
7.18506
7.18506
7.18506
7.18506
7.18506
7.18506
7.18506
7.18506
7.18506
7.18506
7.18506
7.18506
7.18506
7.18506
7.18506
7.18506
7.18506
7.18506
7.18506
7.18506
7.18506
7.18506
7.18506
7.18506
7.18506
7.18506
7.18506
7.18506
7.18506
7.18506
7.18506
7.18506
7.18506
7.18506
7.18506
7.18506
7.18506
7.18506
7.18506
7.18506
7.18506
7.18506
7.18506
7.18506
7.18506
7.18506
7.18506
7.18506
7.18506
7.18506
7.18506
7.18506
7.18506
7.18506
7.18506
7.18506
7.18506
7.18506
7.18506
7.18506
7.18506
7.18506
7.18506
7.18506
7.18506
7.18506
7.18506
7.18506
7.18506
7.18506
7.18506
7.18506
7.18506
7.18506
7.18506
7.18506
7.18506
7.18506
7.18506
7.18506
7.18506
7.18506
7.18506
7.18506
7.18506
7.18506
7.18506
7.18506
7.18506
7.18506
7.18506
7.18506
7.18506
7.18506
7.18506
7.18506
7.18506
7.18506
7.18506
7.18506
7.18506
7.18506
7.18506
7.18506
7.18506
7.18506
7.18506
7.18506
7.18506
7.18506
7.18506
7.18506
7.18506
7.18506
7.18506
7.18506
7.18506
7.18506
7.18506
7.18506
7.18506
7.18506
7.18506
7.18506
7.18506
7.18506
7.18506
7.18506
7.18506
7.18506
7.18506
7.18506
7.18506
7.18506
7.18506
7.18506
7.18506
7.18506
7.18506
7.18506
7.18506
7.18506
7.18506
7.18506
7.18506
7.18506
7.18506
7.18506
7.18506
7.18506
7.18506
7.18506
7.18506
7.18506
7.18506
7.18506
7.18506
7.18506
7.18506
7.18506
7.18506
7.18506
7.18506
7.18506
7.18506
7.18506
7.18506
7.18506
7.18506
7.18506
7.18506
7.18506
7.18506
7.18506
7.18506
7.18506
7.18506
7.18506
7.18506
7.18506
7.18506
7.18506
7.18506
7.18506
7.18506
7.18506
7.18506
7.18506
7.18506
7.18506
7.18506
7.18506
7.18506
7.18506
7.18506
7.18506
7.18506
7.18506
7.18506
7.18506
7.18506
7.18506
7.18506
7.18506
7.18506
7.18506
7.18506
7.18506
7.18506
7.18506
7.18506
7.18506
7.18506
7.18506
7.18506
7.18506
7.18506
7.18506
7.18506
7.18506
7.18506
7.18506
7.18506
7.18506
7.18506
7.18506
7.18506
7.18506
7.18506
7.18506
7.18506
7.18506
7.18506
7.18506
7.18506
7.18506
7.18506
7.18506
7.18506
7.18506
7.18506
7.18506
7.18506
7.18506
7.18506
7.18506
7.18506
7.18506
7.18506
7.18506
7.18506
7.18506
7.18506
7.18506
7.18506
7.18506
7.18506
7.18506
7.18506
7.18506
7.18506
7.18506
7.18506
7.18506
7.18506
7.18506
7.18506
7.18506
7.18506
7.18506
7.18506
7.18506
7.18506
7.18506
7.18506
7.18506
7.18506
7.18506
7.18506
7.18506
7.18506
7.18506
7.18506
7.18506
7.18506
7.18506
7.18506
7.18506
7.18506
7.18506
7.18506
7.18506
7.18506
7.18506
7.18506
7.18506
7.18506
7.18506
7.18506
7.18506
7.18506
7.18506
7.18506
7.18506
7.18506
7.18506
7.18506
7.18506
7.18506
7.18506
7.18506
7.18506
7.18506
7.18506
7.18506
7.18506
7.18506
7.18506
7.18506
7.18506
7.18506
7.18506
7.18506
7.18506
7.18506
7.18506
7.18506
7.18506
7.18506
7.18506
7.18506
7.18506
7.18506
7.18506
7.18506
7.18506
7.18506
7.18506
7.18506
7.18506
7.18506
7.18506
7.18506
7.18506
7.18506
7.18506
7.18506
7.18506
7.18506
7.18506
7.18506
7.18506
7.18506
7.18506
7.18506
7.18506
7.18506
7.18506
7.18506
7.18506
7.18506
7.18506
7.18506
7.18506
7.18506
7.18506
7.18506
7.18506
7.18506
7.18506
7.18506
7.18506
7.18506
7.18506
7.18506
7.18506
7.18506
7.18506
7.18506
7.18506
7.18506
7.18506
7.18506
7.18506
7.18506
7.18506
7.18506
7.18506
7.18506
7.18506
7.18506
7.18506
7.18506
7.18506
7.18506
7.18506
7.18506
7.18506
7.18506
7.18506
7.18506
7.18506
7.18506
7.18506
7.18506
7.18506
7.18506
7.18506
7.18506
7.18506
7.18506
7.18506
7.18506
7.18506
7.18506
7.18506
7.18506
7.18506
7.18506
7.18506
7.18506
7.18506
7.18506
7.18506
7.18506
7.18506
7.18506
7.18506
7.18506
7.18506
7.18506
7.18506
7.18506
7.18506
7.18506
7.18506
7.18506
7.18506
7.18506
7.18506
7.18506
7.18506
7.18506
7.18506
7.18506
7.18506
7.18506
7.18506
7.18506
7.18506
7.18506
7.18506
7.18506
7.18506
7.18506
7.18506
7.18506
7.18506
7.18506
7.18506
7.18506
7.18506
7.18506
7.18506
7.18506
7.18506
7.18506
7.18506
7.18506
7.18506
7.18506
7.18506
7.18506
7.18506
7.18506
7.18506
7.18506
7.18506
7.18506
7.18506
7.18506
7.18506
7.18506
7.18506
7.18506
7.18506
7.18506
7.18506
7.18506
7.18506
7.18506
7.18506
7.18506
7.18506
7.18506
7.18506
7.18506
7.18506
7.18506
7.18506
7.18506
7.18506
7.18506
7.18506
7.18506
7.18506
7.18506
7.18506
7.18506
7.18506
7.18506
7.18506
7.18506
7.18506
7.18506
7.18506
7.18506
7.18506
7.18506
7.18506
7.18506
7.18506
7.18506
7.18506
7.18506
7.18506
7.18506
7.18506
7.18506
7.18506
7.18506
7.18506
7.18506
7.18506
7.18506
7.18506
7.18506
7.18506
7.18506
7.18506
7.18506
7.18506
7.18506
7.18506
7.18506
7.18506
7.18506
7.18506
7.18506
7.18506
7.18506
7.18506
7.18506
7.18506
7.18506
7.18506
7.18506
7.18506
7.18506
7.18506
7.18506
7.18506
7.18506
7.18506
7.18506
7.18506
7.18506
7.18506
7.18506
7.18506
7.18506
7.18506
7.18506
7.18506
7.18506
7.18506
7.18506
7.18506
7.18506
7.18506
7.18506
7.18506
7.18506
7.18506
7.18506
7.18506
7.18506
7.18506
7.18506
7.18506
7.18506
7.18506
7.18506
7.18506
7.18506
7.18506
7.18506
7.18506
7.18506
7.18506
7.18506
7.18506
7.18506
7.18506
7.18506
7.18506
7.18506
7.18506
7.18506
7.18506
7.18506
7.18506
7.18506
7.18506
7.18506
7.18506
7.18506
7.18506
7.18506
7.18506
7.18506
7.18506
7.18506
7.18506
7.18506
7.18506
7.18506
7.18506
7.18506
7.18506
7.18506
7.18506
7.18506
7.18506
7.18506
7.18506
7.18506
7.18506
7.18506
7.18506
7.18506
7.18506
7.18506
7.18506
7.18506
7.18506
7.18506
7.18506
7.18506
7.18506
7.18506
7.18506
7.18506
7.18506
7.18506
7.18506
7.18506
7.18506
7.18506
7.18506
7.18506
7.18506
7.18506
7.18506
7.18506
7.18506
7.18506
7.18506
7.18506
7.18506
7.18506
7.18506
7.18506
7.18506
7.18506
7.18506
7.18506
7.18506
7.18506
7.18506
7.18506
7.18506
7.18506
7.18506
7.18506
7.18506
7.18506
7.18506
7.18506
7.18506
7.18506
7.18506
7.18506
7.18506
7.18506
7.18506
7.18506
7.18506
7.18506
7.18506
7.18506
7.18506
7.18506
7.18506
7.18506
7.18506
7.18505
7.18505
7.18505
7.18505
7.18505
7.18505
7.18505
7.18505
7.18505
7.18505
7.18505
7.18505
7.18505
7.18505
7.18505
7.18505
7.18505
7.18505
7.18505
7.18505
7.18505
7.18505
7.18505
7.18505
7.18505
7.18505
7.18505
7.18505
7.18505
7.18505
7.18505
7.18505
7.18505
7.18505
7.18505
7.18505
7.18506
7.18506
7.18506
7.18506
7.18506
7.18506
7.18506
7.18506
7.18506
7.18506
7.18506
7.18506
7.18506
7.18506
7.18506
7.18506
7.18506
7.18506
7.18506
7.18506
7.18506
7.18506
7.18506
7.18506
7.18506
7.18506
7.18506
7.18506
7.18506
7.18506
7.18506
7.18506
7.18506
7.18506
7.18506
7.18506
7.18506
7.18506
7.18506
7.18506
7.18506
7.18506
7.18506
7.18506
7.18506
7.18506
7.18506
7.18506
7.18506
7.18506
7.18506
7.18506
7.18506
7.18506
7.18506
7.18506
7.18506
7.18506
7.18506
7.18506
7.18506
7.18506
7.18506
7.18506
7.18506
7.18506
7.18506
7.18506
7.18506
7.18506
7.18506
7.18506
7.18506
7.18506
7.18506
7.18506
7.18506
7.18506
7.18506
7.18506
7.18506
7.18506
7.18506
7.18506
7.18506
7.18506
7.18506
7.18506
7.18506
7.18506
7.18506
7.18506
7.18506
7.18506
7.18506
7.18506
7.18506
7.18506
7.18506
7.18506
7.18506
7.18506
7.18506
7.18506
7.18506
7.18506
7.18506
7.18506
7.18506
7.18506
7.18506
7.18506
7.18506
7.18506
7.18506
7.18506
7.18506
7.18506
7.18506
7.18506
7.18506
7.18506
7.18506
7.18506
7.18506
7.18506
7.18506
7.18506
7.18506
7.18506
7.18506
7.18506
7.18506
7.18506
7.18506
7.18506
7.18506
7.18506
7.18506
7.18506
7.18506
7.18506
7.18506
7.18506
7.18506
7.18506
7.18506
7.18506
7.18506
7.18506
7.18506
7.18506
7.18506
7.18506
7.18505
7.18505
7.18505
7.18505
7.18505
7.18505
7.18504
7.18504
7.18504
7.18503
7.18503
7.18503
7.18502
7.18502
7.18501
7.18501
7.185
7.185
7.18499
7.18499
7.18499
7.18498
7.18498
7.18497
7.18497
7.18496
7.18496
7.18495
7.18495
7.18495
7.18495
7.18495
7.18495
7.18495
7.18495
7.18495
7.18495
7.18495
7.18496
7.18496
7.18496
7.18496
7.18497
7.18497
7.18497
7.18498
7.18498
7.18498
7.18499
7.18499
7.18499
7.18499
7.185
7.185
7.185
7.18501
7.18501
7.18501
7.18502
7.18502
7.18502
7.18502
7.18503
7.18503
7.18503
7.18503
7.18504
7.18504
7.18504
7.18504
7.18504
7.18505
7.18505
7.18505
7.18505
7.18505
7.18505
7.18506
7.18506
7.18506
7.18506
7.18506
7.18506
7.18506
7.18506
7.18506
7.18506
7.18506
7.18506
7.18506
7.18506
7.18506
7.18506
7.18506
7.18506
7.18506
7.18506
7.18506
7.18506
7.18506
7.18506
7.18506
7.18506
7.18506
7.18506
7.18506
7.18506
7.18506
7.18506
7.18506
7.18506
7.18506
7.18506
7.18506
7.18506
7.18506
7.18506
7.18506
7.18506
7.18506
7.18506
7.18506
7.18506
7.18506
7.18506
7.18506
7.18506
7.18506
7.18506
7.18506
7.18506
7.18506
7.18506
7.18506
7.18506
7.18506
7.18506
7.18506
7.18506
7.18506
7.18506
7.18506
7.18506
7.18506
7.18506
7.18506
7.18506
7.18506
7.18506
7.18506
7.18506
7.18506
7.18506
7.18506
7.18506
7.18506
7.18506
7.18506
7.18506
7.18506
7.18506
7.18506
7.18506
7.18506
7.18506
7.18506
7.18506
7.18506
7.18506
7.18506
7.18506
7.18506
7.18506
7.18506
7.18506
7.18506
7.18506
7.18506
7.18506
7.18506
7.18506
7.18506
7.18506
7.18506
7.18506
7.18506
7.18506
7.18506
7.18506
7.18506
7.18506
7.18506
7.18506
7.18505
7.18505
7.18505
7.18505
7.18505
7.18504
7.18504
7.18504
7.18504
7.18503
7.18503
7.18502
7.18502
7.18501
7.185
7.18499
7.18498
7.18497
7.18496
7.18495
7.18493
7.18491
7.18489
7.18487
7.18484
7.18481
7.18478
7.18475
7.18471
7.18468
7.18466
7.18463
7.18461
7.18459
7.18456
7.18454
7.18451
7.18448
7.18444
7.1844
7.18436
7.18433
7.1843
7.18428
7.18427
7.18426
7.18426
7.18426
7.18427
7.18428
7.1843
7.18431
7.18433
7.18435
7.18437
7.18439
7.18441
7.18443
7.18445
7.18447
7.18449
7.18451
7.18453
7.18455
7.18457
7.18459
7.18461
7.18463
7.18465
7.18467
7.1847
7.18472
7.18474
7.18476
7.18478
7.18479
7.18481
7.18483
7.18484
7.18486
7.18487
7.18489
7.1849
7.18491
7.18492
7.18494
7.18495
7.18496
7.18497
7.18498
7.18499
7.185
7.18501
7.18502
7.18503
7.18503
7.18504
7.18504
7.18504
7.18505
7.18505
7.18505
7.18505
7.18506
7.18506
7.18506
7.18506
7.18506
7.18506
7.18506
7.18506
7.18506
7.18506
7.18506
7.18506
7.18506
7.18506
7.18506
7.18506
7.18506
7.18506
7.18506
7.18506
7.18506
7.18506
7.18506
7.18506
7.18506
7.18506
7.18506
7.18506
7.18506
7.18506
7.18506
7.18506
7.18506
7.18506
7.18506
7.18506
7.18506
7.18506
7.18506
7.18506
7.18506
7.18506
7.18506
7.18506
7.18506
7.18506
7.18506
7.18506
7.18506
7.18506
7.18506
7.18506
7.18506
7.18506
7.18506
7.18506
7.18506
7.18506
7.18506
7.18506
7.18506
7.18506
7.18506
7.18506
7.18506
7.18506
7.18506
7.18506
7.18506
7.18506
7.18506
7.18506
7.18506
7.18506
7.18506
7.18506
7.18506
7.18506
7.18506
7.18506
7.18506
7.18506
7.18506
7.18506
7.18506
7.18506
7.18506
7.18506
7.18506
7.18505
7.18505
7.18505
7.18505
7.18505
7.18505
7.18504
7.18504
7.18504
7.18503
7.18503
7.18502
7.18502
7.18501
7.18501
7.185
7.18499
7.18498
7.18497
7.18495
7.18494
7.18492
7.18491
7.18489
7.18486
7.18483
7.1848
7.18476
7.18471
7.18466
7.1846
7.18454
7.18447
7.1844
7.18432
7.18423
7.1841
7.18396
7.18379
7.1836
7.1834
7.18319
7.18298
7.18278
7.18259
7.18241
7.18224
7.18209
7.18195
7.18181
7.18165
7.18147
7.18125
7.18101
7.18078
7.18056
7.18037
7.18021
7.18009
7.18
7.17996
7.17995
7.17997
7.18002
7.18009
7.18018
7.18028
7.1804
7.18052
7.18064
7.18076
7.18089
7.18101
7.18114
7.18126
7.18139
7.18151
7.18164
7.18176
7.18189
7.18202
7.18216
7.18229
7.18242
7.18255
7.18268
7.18281
7.18293
7.18304
7.18315
7.18326
7.18336
7.18346
7.18355
7.18364
7.18373
7.18382
7.18391
7.18399
7.18407
7.18416
7.18424
7.18432
7.1844
7.18448
7.18455
7.18462
7.18469
7.18474
7.18479
7.18483
7.18487
7.1849
7.18492
7.18494
7.18496
7.18498
7.18499
7.18501
7.18502
7.18503
7.18503
7.18504
7.18504
7.18505
7.18505
7.18505
7.18506
7.18506
7.18506
7.18506
7.18506
7.18506
7.18506
7.18506
7.18506
7.18506
7.18506
7.18506
7.18506
7.18506
7.18506
7.18506
7.18506
7.18506
7.18506
7.18506
7.18506
7.18506
7.18506
7.18506
7.18506
7.18506
7.18506
7.18506
7.18506
7.18506
7.18506
7.18506
7.18506
7.18506
7.18506
7.18506
7.18506
7.18506
7.18506
7.18506
7.18506
7.18506
7.18506
7.18506
7.18506
7.18506
7.18506
7.18506
7.18506
7.18506
7.18506
7.18506
7.18506
7.18506
7.18506
7.18506
7.18506
7.18506
7.18506
7.18506
7.18506
7.18506
7.18506
7.18506
7.18505
7.18505
7.18505
7.18505
7.18505
7.18505
7.18504
7.18504
7.18504
7.18503
7.18503
7.18503
7.18502
7.18502
7.18501
7.185
7.185
7.18499
7.18498
7.18496
7.18495
7.18493
7.18492
7.1849
7.18487
7.18485
7.18483
7.1848
7.18476
7.18472
7.18467
7.18461
7.18454
7.18447
7.18439
7.18431
7.18422
7.18411
7.18399
7.18384
7.18365
7.18342
7.18315
7.18285
7.18251
7.18215
7.18177
7.18137
7.18093
7.18043
7.17982
7.17906
7.17814
7.17707
7.1759
7.17465
7.17337
7.17209
7.17084
7.16964
7.16852
7.16749
7.16654
7.16566
7.16481
7.16387
7.16271
7.16126
7.15963
7.15799
7.15648
7.15518
7.15411
7.15328
7.1527
7.15236
7.15228
7.15239
7.15269
7.15313
7.15369
7.15432
7.15502
7.15576
7.15653
7.15731
7.1581
7.15889
7.15969
7.1605
7.1613
7.1621
7.16291
7.16373
7.16457
7.16543
7.1663
7.16718
7.16805
7.16891
7.16973
7.17051
7.17127
7.17198
7.17266
7.17331
7.17393
7.17453
7.17512
7.1757
7.17627
7.17683
7.1774
7.17795
7.17851
7.17907
7.17962
7.18016
7.1807
7.18123
7.18174
7.18222
7.18265
7.18301
7.18331
7.18355
7.18376
7.18393
7.18408
7.18421
7.18434
7.18445
7.18456
7.18465
7.18473
7.1848
7.18485
7.18489
7.18492
7.18495
7.18497
7.18499
7.185
7.18502
7.18503
7.18504
7.18504
7.18505
7.18505
7.18505
7.18505
7.18506
7.18506
7.18506
7.18506
7.18506
7.18506
7.18506
7.18506
7.18506
7.18506
7.18506
7.18506
7.18506
7.18506
7.18506
7.18506
7.18506
7.18506
7.18506
7.18506
7.18506
7.18506
7.18506
7.18506
7.18506
7.18506
7.18506
7.18506
7.18506
7.18506
7.18506
7.18506
7.18506
7.18506
7.18506
7.18506
7.18506
7.18505
7.18505
7.18505
7.18505
7.18505
7.18505
7.18504
7.18504
7.18504
7.18504
7.18503
7.18503
7.18503
7.18502
7.18502
7.18501
7.18501
7.185
7.18499
7.18498
7.18497
7.18496
7.18495
7.18493
7.18492
7.18489
7.18487
7.18485
7.18482
7.18479
7.18475
7.18472
7.18467
7.18462
7.18456
7.18448
7.1844
7.18431
7.1842
7.18409
7.18397
7.18384
7.18369
7.18351
7.18329
7.18303
7.18271
7.18235
7.18195
7.18151
7.18103
7.18053
7.17998
7.17937
7.17863
7.17772
7.17657
7.17519
7.17358
7.17176
7.16975
7.16759
7.16531
7.16293
7.16038
7.15742
7.15366
7.14881
7.14288
7.13606
7.12862
7.12083
7.11294
7.10517
7.09768
7.0906
7.08399
7.07792
7.07237
7.0673
7.06246
7.05718
7.05058
7.04236
7.03324
7.02423
7.01604
7.00903
7.00333
6.99893
6.99585
6.99408
6.99373
6.99453
6.99617
6.99864
7.00171
7.00524
7.00912
7.01322
7.01745
7.02176
7.02613
7.03056
7.03503
7.03953
7.04406
7.0486
7.0532
7.05789
7.06272
7.06767
7.07265
7.07757
7.08234
7.08689
7.09118
7.09525
7.09912
7.10282
7.1064
7.10989
7.11333
7.11676
7.12019
7.12364
7.12712
7.13063
7.13417
7.13774
7.14134
7.14497
7.14861
7.15225
7.15587
7.15945
7.16294
7.16622
7.16912
7.17156
7.17353
7.17513
7.17644
7.17756
7.17856
7.17946
7.18029
7.18107
7.18178
7.18241
7.18293
7.18334
7.18365
7.18389
7.18408
7.18425
7.18439
7.18452
7.18463
7.18473
7.1848
7.18486
7.1849
7.18493
7.18495
7.18498
7.18499
7.18501
7.18502
7.18503
7.18504
7.18504
7.18505
7.18505
7.18505
7.18505
7.18506
7.18506
7.18506
7.18506
7.18506
7.18506
7.18506
7.18506
7.18506
7.18506
7.18506
7.18506
7.18506
7.18506
7.18506
7.18506
7.18506
7.18506
7.18506
7.18506
7.18506
7.18506
7.18506
7.18506
7.18506
7.18506
7.18506
7.18501
7.185
7.185
7.18499
7.18498
7.18497
7.18496
7.18495
7.18494
7.18492
7.1849
7.18489
7.18486
7.18484
7.18481
7.18478
7.18474
7.1847
7.18466
7.18461
7.18456
7.1845
7.18442
7.18434
7.18424
7.18413
7.184
7.18386
7.18371
7.18354
7.18335
7.18314
7.18288
7.18257
7.18221
7.18177
7.18128
7.18073
7.18013
7.17949
7.17879
7.17804
7.17717
7.17613
7.17486
7.17333
7.17153
7.16947
7.16717
7.16466
7.16196
7.15907
7.15597
7.15251
7.14828
7.14281
7.13585
7.12741
7.11763
7.10672
7.0949
7.0824
7.06943
7.0561
7.04208
7.02587
7.00505
6.97828
6.94607
6.90988
6.87132
6.83188
6.79281
6.75509
6.71938
6.68612
6.65557
6.62781
6.60275
6.58007
6.55915
6.53739
6.50874
6.47074
6.42907
6.38944
6.35465
6.32576
6.30275
6.28519
6.27299
6.26586
6.26467
6.26733
6.2736
6.28296
6.29453
6.30785
6.32265
6.33853
6.35502
6.37196
6.38939
6.40733
6.42579
6.44468
6.46397
6.48367
6.50387
6.52479
6.54677
6.56976
6.59242
6.61434
6.63533
6.6552
6.67393
6.69171
6.70876
6.72531
6.74161
6.7579
6.77437
6.79121
6.80853
6.82643
6.8449
6.86392
6.88347
6.90352
6.92407
6.94504
6.96633
6.98783
7.00946
7.03108
7.0524
7.07229
7.08924
7.10277
7.11338
7.12196
7.12927
7.13581
7.14186
7.14758
7.15303
7.15824
7.16312
7.16742
7.17093
7.17364
7.17568
7.17726
7.17855
7.17964
7.18061
7.18149
7.18225
7.18287
7.18333
7.18367
7.18392
7.18412
7.18428
7.18443
7.18455
7.18466
7.18475
7.18482
7.18487
7.18491
7.18493
7.18495
7.18497
7.18499
7.185
7.18501
7.18502
7.18503
7.18504
7.18504
7.18504
7.18504
7.18505
7.18505
7.18505
7.18505
7.18505
7.18505
7.18505
7.18506
7.18506
7.18506
7.18506
7.18506
7.18506
7.18506
7.18506
7.18506
7.18506
7.18478
7.18474
7.18471
7.18466
7.18462
7.18457
7.18451
7.18445
7.18439
7.18431
7.18422
7.18412
7.184
7.18387
7.18371
7.18354
7.18335
7.18315
7.18292
7.18267
7.18239
7.18205
7.18164
7.18115
7.18059
7.17995
7.17924
7.17846
7.17761
7.17668
7.17566
7.17448
7.17305
7.17133
7.16929
7.16691
7.16421
7.16121
7.15794
7.15443
7.15066
7.14658
7.14187
7.13606
7.12876
7.11986
7.10944
7.09767
7.08474
7.07083
7.05609
7.04065
7.02439
7.00636
6.98421
6.95548
6.91945
6.87678
6.82869
6.77652
6.72163
6.66528
6.60847
6.55169
6.49488
6.43176
6.34747
6.23982
6.11833
5.99282
5.8702
5.75477
5.64895
5.55365
5.46881
5.39387
5.32813
5.27065
5.2204
5.17649
5.13753
5.09979
5.05058
4.98087
4.90777
4.84262
4.78863
4.74623
4.71366
4.68923
4.67338
4.66461
4.66436
4.67125
4.68113
4.69593
4.71356
4.73368
4.75635
4.78094
4.80637
4.83261
4.8601
4.88902
4.91949
4.95147
4.98491
5.01993
5.05668
5.09573
5.13801
5.18321
5.22401
5.26139
5.29644
5.32957
5.36135
5.39264
5.42411
5.45628
5.48976
5.52522
5.56321
5.6041
5.64816
5.69552
5.7464
5.80106
5.85953
5.92215
5.98932
6.06114
6.13775
6.21908
6.30528
6.39621
6.49143
6.5842
6.66356
6.7268
6.77722
6.81947
6.85711
6.89237
6.92635
6.95949
6.99188
7.02339
7.05328
7.07919
7.09937
7.11422
7.12532
7.13415
7.14173
7.14858
7.15494
7.16086
7.1661
7.17033
7.17347
7.17573
7.17739
7.1787
7.17979
7.18076
7.18163
7.18239
7.18299
7.18342
7.18372
7.18394
7.18411
7.18425
7.18438
7.18449
7.18459
7.18468
7.18475
7.18481
7.18485
7.18488
7.1849
7.18491
7.18492
7.18493
7.18494
7.18495
7.18496
7.18496
7.18498
7.18506
7.18506
7.18506
7.18506
7.18506
7.18506
7.18506
7.18506
7.18506
7.18344
7.18325
7.18304
7.18281
7.18256
7.18228
7.18197
7.18163
7.18124
7.18077
7.18022
7.17958
7.17885
7.17802
7.17711
7.17611
7.17502
7.17384
7.17252
7.17099
7.16917
7.16699
7.16442
7.16146
7.15811
7.15438
7.1503
7.14588
7.14109
7.1358
7.12959
7.12195
7.11252
7.10124
7.08823
7.07366
7.05776
7.04071
7.0227
7.00381
6.98359
6.96036
6.93151
6.89562
6.85291
6.80439
6.75123
6.69458
6.63547
6.57485
6.51311
6.45044
6.38462
6.30357
6.19691
6.06936
5.93038
5.78758
5.64656
5.51124
5.3837
5.26499
5.15545
5.05329
4.95035
4.80983
4.63709
4.46218
4.30189
4.16164
4.04204
3.94194
3.85903
3.7906
3.7343
3.68821
3.65043
3.61922
3.59358
3.57258
3.55498
3.54052
3.52947
3.52155
3.51617
3.51347
3.51428
3.51659
3.51986
3.52491
3.53132
3.53881
3.5476
3.55769
3.56435
3.57171
3.57951
3.5873
3.59465
3.60111
3.60706
3.61307
3.61928
3.62562
3.63202
3.63862
3.64567
3.65312
3.66096
3.66964
3.67918
3.68989
3.70203
3.71527
3.7294
3.74479
3.76198
3.78094
3.80154
3.82441
3.85047
3.8802
3.91375
3.95142
3.99376
4.04129
4.09479
4.15471
4.22207
4.29847
4.38534
4.48444
4.59703
4.72634
4.87614
5.05084
5.23474
5.38517
5.5032
5.60311
5.69721
5.79282
5.89372
6.00063
6.11417
6.23528
6.36337
6.49565
6.61617
6.71122
6.78222
6.83717
6.88321
6.92476
6.96402
7.00182
7.03788
7.06991
7.09485
7.11248
7.12486
7.13423
7.14204
7.14901
7.15544
7.16137
7.16661
7.17079
7.17379
7.17585
7.17731
7.17845
7.17942
7.18029
7.18107
7.18178
7.18239
7.18289
7.18328
7.18354
7.1837
7.18382
7.18391
7.18398
7.18405
7.18411
7.18417
7.18421
7.18426
7.18439
7.18505
7.18505
7.17705
7.17607
7.17499
7.1738
7.17251
7.17111
7.16958
7.16785
7.16584
7.16346
7.16066
7.15743
7.15374
7.14961
7.14505
7.14007
7.13468
7.12882
7.1223
7.11463
7.10528
7.09395
7.08057
7.06527
7.04819
7.02953
7.00945
6.98811
6.96546
6.94073
6.91171
6.87601
6.83276
6.78256
6.72656
6.66604
6.60219
6.53617
6.46887
6.40059
6.3311
6.25369
6.15559
6.03671
5.90495
5.76784
5.63064
5.49692
5.36895
5.24765
5.13337
5.02535
4.92027
4.79638
4.63264
4.45381
4.28031
4.12097
3.97927
3.85612
3.75026
3.65981
3.58367
3.52052
3.46771
3.42414
3.38764
3.35638
3.33025
3.30957
3.29441
3.28448
3.27885
3.27705
3.27884
3.28236
3.28765
3.29385
3.30046
3.30683
3.31322
3.32013
3.32674
3.3332
3.34024
3.34743
3.35461
3.36209
3.36984
3.378
3.38637
3.39505
3.404
3.41276
3.42056
3.42798
3.43544
3.44318
3.44935
3.45433
3.45943
3.46431
3.46907
3.47331
3.47689
3.48029
3.48387
3.48742
3.49085
3.49434
3.49805
3.50235
3.50716
3.5121
3.5174
3.52313
3.52913
3.53513
3.54154
3.54866
3.5564
3.56434
3.57281
3.58187
3.59066
3.59965
3.60938
3.61953
3.6311
3.64437
3.6593
3.67661
3.69628
3.71949
3.74628
3.77756
3.81395
3.85624
3.90479
3.96177
4.03067
4.114
4.21408
4.33161
4.46976
4.63578
4.8343
5.07216
5.30617
5.48697
5.62677
5.74897
5.86851
5.99339
6.12718
6.27002
6.42062
6.56728
6.68557
6.7703
6.83158
6.88036
6.92327
6.96334
7.00156
7.03782
7.07022
7.09533
7.11245
7.12392
7.13235
7.13931
7.14554
7.1513
7.15664
7.16148
7.16573
7.16932
7.17213
7.17407
7.17529
7.1761
7.1767
7.17722
7.17768
7.1781
7.17847
7.1788
7.1791
7.18002
7.14654
7.14187
7.13671
7.13107
7.12496
7.11835
7.11113
7.10294
7.09325
7.0816
7.06782
7.05192
7.03402
7.01428
6.99286
6.96992
6.94557
6.91962
6.89099
6.85728
6.81651
6.76822
6.71311
6.65227
6.58683
6.51792
6.44661
6.37355
6.29905
6.22179
6.13225
6.0219
5.89437
5.75764
5.61825
5.48067
5.34786
5.2216
5.1027
4.9911
4.88476
4.77535
4.63268
4.47059
4.30881
4.15766
4.02068
3.89884
3.79196
3.69859
3.61703
3.54666
3.48659
3.43566
3.39276
3.35507
3.32118
3.29123
3.26597
3.24578
3.23009
3.21847
3.211
3.20709
3.20625
3.20681
3.20701
3.20659
3.20523
3.20384
3.20356
3.20478
3.20728
3.21139
3.21678
3.22322
3.23206
3.24188
3.25187
3.26101
3.27007
3.27936
3.28717
3.29414
3.30337
3.31231
3.31964
3.32793
3.33615
3.34345
3.35016
3.35824
3.36611
3.37361
3.38125
3.38875
3.39616
3.40343
3.41014
3.41656
3.42266
3.42834
3.43367
3.43872
3.44357
3.44817
3.45192
3.45548
3.45951
3.4633
3.46735
3.47133
3.47455
3.47898
3.48467
3.48998
3.49521
3.49919
3.50488
3.51224
3.51838
3.52334
3.52993
3.53853
3.54579
3.55278
3.55993
3.56777
3.57585
3.58395
3.59207
3.59964
3.60705
3.61864
3.62697
3.6364
3.64689
3.65804
3.67091
3.68539
3.69988
3.71332
3.72621
3.7386
3.75307
3.77523
3.80289
3.83919
3.88548
3.94201
4.01086
4.09586
4.20059
4.32993
4.48957
4.68501
4.9259
5.20385
5.42955
5.59309
5.72513
5.84922
5.9774
6.1137
6.25734
6.40711