/*--------------------------------*- C++ -*----------------------------------*\
| =========                 |                                                 |
| \\      /  F ield         | OpenFOAM: The Open Source CFD Toolbox           |
|  \\    /   O peration     | Version:  v1706                                 |
|   \\  /    A nd           | Web:      www.OpenFOAM.com                      |
|    \\/     M anipulation  |                                                 |
\*---------------------------------------------------------------------------*/
FoamFile
{
    version     2.0;
    format      ascii;
    class       volScalarField;
    location    "3.8e-05";
    object      p;
}
// * * * * * * * * * * * * * * * * * * * * * * * * * * * * * * * * * * * * * //

dimensions      [1 -1 -2 0 0 0 0];


internalField   nonuniform List<scalar> 
30104
(
21.9139
21.9139
21.9139
21.9139
21.9139
21.9139
21.9139
21.9139
21.9139
21.9139
21.9139
21.9139
21.9139
21.9139
21.9139
21.9139
21.9139
21.9139
21.9139
21.9139
21.9139
21.9139
21.9139
21.9139
21.9139
21.9139
21.9139
21.9139
21.9139
21.9139
21.9139
21.9139
21.9139
21.9139
21.9139
21.9139
21.9139
21.9139
21.9139
21.9139
21.9139
21.9139
21.9139
21.9139
21.9139
21.9139
21.9139
21.9139
21.9139
21.9139
21.9139
21.9139
21.9139
21.9139
21.9139
21.9139
21.9139
21.9139
21.9139
21.9139
21.9139
21.9139
21.9139
21.9139
21.9139
21.9139
21.9139
21.9139
21.9139
21.9139
21.9139
21.9139
21.9139
21.9139
21.9139
21.9139
21.9139
21.9139
21.9139
21.9139
21.9139
21.9139
21.9139
21.9139
21.9139
21.9139
21.9139
21.9139
21.9139
21.9139
21.9139
21.9139
21.9139
21.9139
21.9139
21.9139
21.9139
21.9139
21.9139
21.9139
21.9139
21.9139
21.9139
21.9139
21.9139
21.9139
21.9139
21.9139
21.9139
21.9139
21.9139
21.9139
21.9139
21.9139
21.9139
21.9139
21.9139
21.9139
21.9139
21.9139
21.9139
21.9139
21.9139
21.9139
21.9139
21.9139
21.9139
21.9139
21.9139
21.9139
21.9139
21.9139
21.9139
21.9139
21.9139
21.9139
21.9139
21.9139
21.9139
21.9139
21.9139
21.9139
21.9139
21.9139
21.9139
21.9139
21.9139
21.9139
21.9139
21.9139
21.9139
21.9139
21.9139
21.9139
21.9139
21.9139
21.9139
21.9139
21.9139
21.9139
21.9139
21.9139
21.9139
21.9139
21.9139
21.9139
21.9139
21.9139
21.9139
21.9139
21.9139
21.9139
21.9139
21.9139
21.9139
21.9139
21.9139
21.9139
21.9139
21.9139
21.9139
21.9139
21.9139
21.9139
21.9139
21.9139
21.9139
21.9139
21.9139
21.9139
21.9139
21.9139
21.9139
21.9139
21.9139
21.9139
21.9139
21.9139
21.9139
21.9139
21.9139
21.9139
21.9139
21.9139
21.9139
21.9139
21.9139
21.9139
21.9139
21.9139
21.9139
21.9139
21.9139
21.9139
21.9139
21.9139
21.9139
21.9139
21.9139
21.9139
21.9139
21.9139
21.9139
21.9139
21.9139
21.9139
21.9139
21.9139
21.9139
21.9139
21.9139
21.9139
21.9139
21.9139
21.9139
21.9139
21.9139
21.9139
21.9139
21.9139
21.9139
21.9139
21.9139
21.9139
21.9139
21.9139
21.9139
21.9139
21.9139
21.9139
21.9139
21.9139
21.9139
21.9139
21.9139
21.9139
21.9139
21.9139
21.9139
21.9139
21.9139
21.9139
21.9139
21.9139
21.9139
21.9139
21.9139
21.9139
21.9139
21.9139
21.9139
21.9139
21.9139
21.9139
21.9139
21.9139
21.9139
21.9139
21.9139
21.9139
21.9139
21.9139
21.9139
21.9139
21.9139
21.9139
21.9139
21.9139
21.9139
21.9139
21.9139
21.9139
21.9139
21.9139
21.9139
21.9139
21.9139
21.9139
21.9139
21.9139
21.9139
21.9139
21.9139
21.9139
21.9139
21.9139
21.9139
21.9139
21.9139
21.9139
21.9139
21.9139
21.9139
21.9139
21.9139
21.9139
21.9139
21.9139
21.9139
21.9139
21.9139
21.9139
21.9139
21.9139
21.9139
21.9139
21.9139
21.9139
21.9139
21.9139
21.9139
21.9139
21.9139
21.9139
21.9139
21.9139
21.9139
21.9139
21.9139
21.9139
21.9139
21.9139
21.9139
21.9139
21.9139
21.9139
21.9139
21.9139
21.9139
21.9139
21.9139
21.9139
21.9139
21.9139
21.9139
21.9139
21.9139
21.9139
21.9139
21.9139
21.9139
21.9139
21.9139
21.9139
21.9139
21.9139
21.9139
21.9139
21.9139
21.9139
21.9139
21.9139
21.9139
21.9139
21.9139
21.9139
21.9139
21.9139
21.9139
21.9139
21.9139
21.9139
21.9139
21.9139
21.9139
21.9139
21.9139
21.9139
21.9139
21.9139
21.9139
21.9139
21.9139
21.9139
21.9139
21.9139
21.9139
21.9139
21.9139
21.9139
21.9139
21.9139
21.9139
21.9139
21.9139
21.9139
21.9139
21.9139
21.9139
21.9139
21.9139
21.9139
21.9139
21.9139
21.9139
21.9139
21.9139
21.9139
21.9139
21.9139
21.9139
21.9139
21.9139
21.9139
21.9139
21.9139
21.9139
21.9139
21.9139
21.9139
21.9139
21.9139
21.9139
21.9139
21.9139
21.9139
21.9139
21.9139
21.9139
21.9139
21.9139
21.9139
21.9139
21.9139
21.9139
21.9139
21.9139
21.9139
21.9139
21.9139
21.9139
21.9139
21.9139
21.9139
21.9139
21.9139
21.9139
21.9139
21.9139
21.9139
21.9139
21.9139
21.9139
21.9139
21.9139
21.9139
21.9139
21.9139
21.9139
21.9139
21.9139
21.9139
21.9139
21.9139
21.9139
21.9139
21.9139
21.9139
21.9139
21.9139
21.9139
21.9139
21.9139
21.9139
21.9139
21.9139
21.9139
21.9139
21.9139
21.9139
21.9139
21.9139
21.9139
21.9139
21.9139
21.9139
21.9139
21.9139
21.9139
21.9139
21.9139
21.9139
21.9139
21.9139
21.9139
21.9139
21.9139
21.9139
21.9139
21.9139
21.9139
21.9139
21.9139
21.9139
21.9139
21.9139
21.9139
21.9139
21.9139
21.9139
21.9139
21.9139
21.9139
21.9139
21.9139
21.9139
21.9139
21.9139
21.9139
21.9139
21.9139
21.9139
21.9139
21.9139
21.9139
21.9139
21.9139
21.9139
21.9139
21.9139
21.9139
21.9139
21.9139
21.9139
21.9139
21.9139
21.9139
21.9139
21.9139
21.9139
21.9139
21.9139
21.9139
21.9139
21.9139
21.9139
21.9139
21.9139
21.9139
21.9139
21.9139
21.9139
21.9139
21.9139
21.9139
21.9139
21.9139
21.9139
21.9139
21.9139
21.9139
21.9139
21.9139
21.9139
21.9139
21.9139
21.9139
21.9139
21.9139
21.9139
21.9139
21.9139
21.9139
21.9139
21.9139
21.9139
21.9139
21.9139
21.9139
21.9139
21.9139
21.9139
21.9139
21.9139
21.9139
21.9139
21.9139
21.9139
21.9139
21.9139
21.9139
21.9139
21.9139
21.9139
21.9139
21.9139
21.9139
21.9139
21.9139
21.9139
21.9139
21.9139
21.9139
21.9139
21.9139
21.9139
21.9139
21.9139
21.9139
21.9139
21.9139
21.9139
21.9139
21.9139
21.9139
21.9139
21.9139
21.9139
21.9139
21.9139
21.9139
21.9139
21.9139
21.9139
21.9139
21.9139
21.9139
21.9139
21.9139
21.9139
21.9139
21.9139
21.9139
21.9139
21.9139
21.9139
21.9139
21.9139
21.9139
21.9139
21.9139
21.9139
21.9139
21.9139
21.9139
21.9139
21.9139
21.9139
21.9139
21.9139
21.9139
21.9139
21.9139
21.9139
21.9139
21.9139
21.9139
21.9139
21.9139
21.9139
21.9139
21.9139
21.9139
21.9139
21.9139
21.9139
21.9139
21.9139
21.9139
21.9139
21.9139
21.9139
21.9139
21.9139
21.9139
21.9139
21.9139
21.9139
21.9139
21.9139
21.9139
21.9139
21.9139
21.9139
21.9139
21.9139
21.9139
21.9139
21.9139
21.9139
21.9139
21.9139
21.9139
21.9139
21.9139
21.9139
21.9139
21.9139
21.9139
21.9139
21.9139
21.9139
21.9139
21.9139
21.9139
21.9139
21.9139
21.9139
21.9139
21.9139
21.9139
21.9139
21.9139
21.9139
21.9139
21.9139
21.9139
21.9139
21.9139
21.9139
21.9139
21.9139
21.9139
21.9139
21.9139
21.9139
21.9139
21.9139
21.9139
21.9139
21.9139
21.9139
21.9139
21.9139
21.9139
21.9139
21.9139
21.9139
21.9139
21.9139
21.9139
21.9139
21.9139
21.9139
21.9139
21.9139
21.9139
21.9139
21.9139
21.9139
21.9139
21.9139
21.9139
21.9139
21.9139
21.9139
21.9139
21.9139
21.9139
21.9139
21.9139
21.9139
21.9139
21.9139
21.9139
21.9139
21.9139
21.9139
21.9139
21.9139
21.9139
21.9139
21.9139
21.9139
21.9139
21.9139
21.9139
21.9139
21.9139
21.9139
21.9139
21.9139
21.9139
21.9139
21.9139
21.9139
21.9139
21.9139
21.9139
21.9139
21.9139
21.9139
21.9139
21.9139
21.9139
21.9139
21.9139
21.9139
21.9139
21.9139
21.9139
21.9139
21.9139
21.9139
21.9139
21.9139
21.9139
21.9139
21.9139
21.9139
21.9139
21.9139
21.9139
21.9139
21.9139
21.9139
21.9139
21.9139
21.9139
21.9139
21.9139
21.9139
21.9139
21.9139
21.9139
21.9139
21.9139
21.9139
21.9139
21.9139
21.9139
21.9139
21.9139
21.9139
21.9139
21.9139
21.9139
21.9139
21.9139
21.9139
21.9139
21.9139
21.9139
21.9139
21.9139
21.9139
21.9139
21.9139
21.9139
21.9139
21.9139
21.9139
21.9139
21.9139
21.9139
21.9139
21.9139
21.9139
21.9139
21.9139
21.9139
21.9139
21.9139
21.9139
21.9139
21.9139
21.9139
21.9139
21.9139
21.9139
21.9139
21.9139
21.9139
21.9139
21.9139
21.9139
21.9139
21.9139
21.9139
21.9139
21.9139
21.9139
21.9139
21.9139
21.9139
21.9139
21.9139
21.9139
21.9139
21.9139
21.9139
21.9139
21.9139
21.9139
21.9139
21.9139
21.9139
21.9139
21.9139
21.9139
21.9139
21.9139
21.9139
21.9139
21.9139
21.9139
21.9139
21.9139
21.9139
21.9139
21.9139
21.9139
21.9139
21.9139
21.9139
21.9139
21.9139
21.9139
21.9139
21.9139
21.9139
21.9139
21.9139
21.9139
21.9139
21.9139
21.9139
21.9139
21.9139
21.9139
21.9139
21.9139
21.9139
21.9139
21.9139
21.9139
21.9139
21.9139
21.9139
21.9139
21.9139
21.9139
21.9139
21.9139
21.9139
21.9139
21.9139
21.9139
21.9139
21.9139
21.9139
21.9139
21.9139
21.9139
21.9139
21.9139
21.9139
21.9139
21.9139
21.9139
21.9139
21.9139
21.9139
21.9139
21.9139
21.9139
21.9139
21.9139
21.9139
21.9139
21.9139
21.9139
21.9139
21.9139
21.9139
21.9139
21.9139
21.9139
21.9139
21.9139
21.9139
21.9139
21.9139
21.9139
21.9139
21.9139
21.9139
21.9139
21.9139
21.9139
21.9139
21.9139
21.9139
21.9139
21.9139
21.9139
21.9139
21.9139
21.9139
21.9139
21.9139
21.9139
21.9139
21.9139
21.9139
21.9139
21.9139
21.9139
21.9139
21.9139
21.9139
21.9139
21.9139
21.9139
21.9139
21.9139
21.9139
21.9139
21.9139
21.9139
21.9139
21.9139
21.9139
21.9139
21.9139
21.9139
21.9139
21.9139
21.9139
21.9139
21.9139
21.9139
21.9139
21.9139
21.9139
21.9139
21.9139
21.9139
21.9139
21.9139
21.9139
21.9139
21.9139
21.9139
21.9139
21.9139
21.9139
21.9139
21.9139
21.9139
21.9139
21.9139
21.9139
21.9139
21.9139
21.9139
21.9139
21.9139
21.9139
21.9139
21.9139
21.9139
21.9139
21.9139
21.9139
21.9139
21.9139
21.9139
21.9139
21.9139
21.9139
21.9139
21.9139
21.9139
21.9139
21.9139
21.9139
21.9139
21.9139
21.9139
21.9139
21.9139
21.9139
21.9139
21.9139
21.9139
21.9139
21.9139
21.9139
21.9139
21.9139
21.9139
21.9139
21.9139
21.9139
21.9139
21.9139
21.9139
21.9139
21.9139
21.9139
21.9139
21.9139
21.9139
21.9139
21.9139
21.9139
21.9139
21.9139
21.9139
21.9139
21.9139
21.9139
21.9139
21.9139
21.9139
21.9139
21.9139
21.9139
21.9139
21.9139
21.9139
21.9139
21.9139
21.9139
21.9139
21.9139
21.9139
21.9139
21.9139
21.9139
21.9139
21.9139
21.9139
21.9139
21.9139
21.9139
21.9139
21.9139
21.9139
21.9139
21.9139
21.9139
21.9139
21.9139
21.9139
21.9139
21.9139
21.9139
21.9139
21.9139
21.9139
21.9139
21.9139
21.9139
21.9139
21.9139
21.9139
21.9139
21.9139
21.9139
21.9139
21.9139
21.9139
21.9139
21.9139
21.9139
21.9139
21.9139
21.9139
21.9139
21.9139
21.9139
21.9139
21.9139
21.9139
21.9139
21.9139
21.9139
21.9139
21.9139
21.9139
21.9139
21.9139
21.9139
21.9139
21.9139
21.9139
21.9139
21.9139
21.9139
21.9139
21.9139
21.9139
21.9139
21.9139
21.9139
21.9139
21.9139
21.9139
21.9139
21.9139
21.9139
21.9139
21.9139
21.9139
21.9139
21.9139
21.9139
21.9139
21.9139
21.9139
21.9139
21.9139
21.9139
21.9139
21.9139
21.9139
21.9139
21.9139
21.9139
21.9139
21.9139
21.9139
21.9139
21.9139
21.9139
21.9139
21.9139
21.9139
21.9139
21.9139
21.9139
21.9139
21.9139
21.9139
21.9139
21.9139
21.9139
21.9139
21.9139
21.9139
21.9139
21.9139
21.9139
21.9139
21.9139
21.9139
21.9139
21.9139
21.9139
21.9139
21.9139
21.9139
21.9139
21.9139
21.9139
21.9139
21.9139
21.9139
21.9139
21.9139
21.9139
21.9139
21.9139
21.9139
21.9139
21.9139
21.9139
21.9139
21.9139
21.9139
21.9139
21.9139
21.9139
21.9139
21.9139
21.9139
21.9139
21.9139
21.9139
21.9139
21.9139
21.9139
21.9139
21.9139
21.9139
21.9139
21.9139
21.9139
21.9139
21.9139
21.9139
21.9139
21.9139
21.9139
21.9139
21.9139
21.9139
21.9139
21.9139
21.9139
21.9139
21.9139
21.9139
21.9139
21.9139
21.9139
21.9139
21.9139
21.9139
21.9139
21.9139
21.9139
21.9139
21.9139
21.9139
21.9139
21.9139
21.9139
21.9139
21.9139
21.9139
21.9139
21.9139
21.9139
21.9139
21.9139
21.9139
21.9139
21.9139
21.9139
21.9139
21.9139
21.9139
21.9139
21.9139
21.9139
21.9139
21.9139
21.9139
21.9139
21.9139
21.9139
21.9139
21.9139
21.9139
21.9139
21.9139
21.9139
21.9139
21.9139
21.9139
21.9139
21.9139
21.9139
21.9139
21.9139
21.9139
21.9139
21.9139
21.9139
21.9139
21.9139
21.9139
21.9139
21.9139
21.9139
21.9139
21.9139
21.9139
21.9139
21.9139
21.9139
21.9139
21.9139
21.9139
21.9139
21.9139
21.9139
21.9139
21.9139
21.9139
21.9139
21.9139
21.9139
21.9139
21.9139
21.9139
21.9139
21.9139
21.9139
21.9139
21.9139
21.9139
21.9139
21.9139
21.9139
21.9139
21.9139
21.9139
21.9139
21.9139
21.9139
21.9139
21.9139
21.9139
21.9139
21.9139
21.9139
21.9139
21.9139
21.9139
21.9139
21.9139
21.9139
21.9139
21.9139
21.9139
21.9139
21.9139
21.9139
21.9139
21.9139
21.9139
21.9139
21.9139
21.9139
21.9139
21.9139
21.9139
21.9139
21.9139
21.9139
21.9139
21.9139
21.9139
21.9139
21.9139
21.9139
21.9139
21.9139
21.9139
21.9139
21.9139
21.9139
21.9139
21.9139
21.9139
21.9139
21.9139
21.9139
21.9139
21.9139
21.9139
21.9139
21.9139
21.9139
21.9139
21.9139
21.9139
21.9139
21.9139
21.9139
21.9139
21.9139
21.9139
21.9139
21.9139
21.9139
21.9139
21.9139
21.9139
21.9139
21.9139
21.9139
21.9139
21.9139
21.9139
21.9139
21.9139
21.9139
21.9139
21.9139
21.9139
21.9139
21.9139
21.9139
21.9139
21.9139
21.9139
21.9139
21.9139
21.9139
21.9139
21.9139
21.9139
21.9139
21.9139
21.9139
21.9139
21.9139
21.9139
21.9139
21.9139
21.9139
21.9139
21.9139
21.9139
21.9139
21.9139
21.9139
21.9139
21.9139
21.9139
21.9139
21.9139
21.9139
21.9139
21.9139
21.9139
21.9139
21.9139
21.9139
21.9139
21.9139
21.9139
21.9139
21.9139
21.9139
21.9139
21.9139
21.9139
21.9139
21.9139
21.9139
21.9139
21.9139
21.9139
21.9139
21.914
21.914
21.914
21.914
21.914
21.914
21.914
21.914
21.914
21.914
21.914
21.914
21.914
21.914
21.914
21.914
21.914
21.914
21.914
21.914
21.914
21.914
21.914
21.914
21.914
21.914
21.914
21.914
21.914
21.914
21.914
21.914
21.914
21.914
21.914
21.914
21.914
21.914
21.914
21.914
21.914
21.914
21.914
21.914
21.914
21.9139
21.9139
21.9139
21.9139
21.9139
21.9139
21.9139
21.9139
21.9139
21.9139
21.9139
21.9139
21.9139
21.9139
21.9139
21.9139
21.9139
21.9139
21.9139
21.9139
21.9139
21.9139
21.9139
21.9139
21.9139
21.9139
21.9139
21.9139
21.9139
21.9139
21.9139
21.9139
21.9139
21.9139
21.9139
21.9139
21.9139
21.9139
21.9139
21.9139
21.9139
21.9139
21.9139
21.9139
21.9139
21.9139
21.9139
21.9139
21.9139
21.9139
21.9139
21.9139
21.9139
21.9139
21.9139
21.9139
21.9139
21.9139
21.9139
21.9139
21.9139
21.9139
21.9139
21.9139
21.9139
21.9139
21.9139
21.9139
21.9139
21.9139
21.9139
21.9139
21.9139
21.9139
21.9139
21.9139
21.9139
21.9139
21.9139
21.9139
21.9139
21.9139
21.9139
21.9139
21.9139
21.9139
21.9139
21.9139
21.9139
21.9139
21.9139
21.9139
21.9139
21.9139
21.9139
21.9139
21.9139
21.9139
21.9139
21.9139
21.9139
21.9139
21.9139
21.9139
21.9139
21.9139
21.9139
21.9139
21.9139
21.9139
21.9139
21.9139
21.9139
21.9139
21.9139
21.9139
21.9139
21.9139
21.9139
21.9139
21.9139
21.9139
21.9139
21.9139
21.9139
21.9139
21.9139
21.9139
21.9139
21.9139
21.9139
21.9139
21.9139
21.9139
21.9139
21.9139
21.9139
21.9139
21.9139
21.9139
21.9139
21.9139
21.9139
21.9139
21.9139
21.9139
21.914
21.914
21.914
21.914
21.914
21.914
21.914
21.914
21.914
21.9141
21.9141
21.9141
21.9141
21.9142
21.9142
21.9142
21.9143
21.9143
21.9143
21.9143
21.9144
21.9144
21.9144
21.9144
21.9145
21.9145
21.9145
21.9146
21.9146
21.9147
21.9147
21.9147
21.9147
21.9147
21.9147
21.9147
21.9147
21.9147
21.9147
21.9147
21.9147
21.9146
21.9146
21.9146
21.9146
21.9146
21.9145
21.9145
21.9145
21.9145
21.9145
21.9144
21.9144
21.9144
21.9144
21.9144
21.9143
21.9143
21.9143
21.9143
21.9142
21.9142
21.9142
21.9142
21.9142
21.9141
21.9141
21.9141
21.9141
21.9141
21.9141
21.9141
21.914
21.914
21.914
21.914
21.914
21.914
21.914
21.914
21.914
21.9139
21.9139
21.9139
21.9139
21.9139
21.9139
21.9139
21.9139
21.9139
21.9139
21.9139
21.9139
21.9139
21.9139
21.9139
21.9139
21.9139
21.9139
21.9139
21.9139
21.9139
21.9139
21.9139
21.9139
21.9139
21.9139
21.9139
21.9139
21.9139
21.9139
21.9139
21.9139
21.9139
21.9139
21.9139
21.9139
21.9139
21.9139
21.9139
21.9139
21.9139
21.9139
21.9139
21.9139
21.9139
21.9139
21.9139
21.9139
21.9139
21.9139
21.9139
21.9139
21.9139
21.9139
21.9139
21.9139
21.9139
21.9139
21.9139
21.9139
21.9139
21.9139
21.9139
21.9139
21.9139
21.9139
21.9139
21.9139
21.9139
21.9139
21.9139
21.9139
21.9139
21.9139
21.9139
21.9139
21.9139
21.9139
21.9139
21.9139
21.9139
21.9139
21.9139
21.9139
21.9139
21.9139
21.9139
21.9139
21.9139
21.9139
21.9139
21.9139
21.9139
21.9139
21.9139
21.9139
21.9139
21.9139
21.9139
21.9139
21.9139
21.9139
21.9139
21.9139
21.9139
21.9139
21.9139
21.9139
21.9139
21.9139
21.9139
21.9139
21.914
21.914
21.914
21.914
21.914
21.914
21.914
21.914
21.9141
21.9141
21.9141
21.9141
21.9141
21.9142
21.9142
21.9143
21.9143
21.9144
21.9145
21.9145
21.9146
21.9147
21.9148
21.9149
21.9151
21.9152
21.9154
21.9156
21.9158
21.9161
21.9163
21.9165
21.9167
21.9169
21.917
21.9172
21.9173
21.9175
21.9177
21.9179
21.9181
21.9184
21.9186
21.9188
21.919
21.9191
21.9192
21.9193
21.9193
21.9193
21.9193
21.9192
21.9191
21.919
21.9189
21.9188
21.9186
21.9185
21.9184
21.9182
21.9181
21.918
21.9178
21.9177
21.9176
21.9174
21.9173
21.9172
21.917
21.9169
21.9168
21.9166
21.9165
21.9163
21.9162
21.9161
21.9159
21.9158
21.9157
21.9156
21.9155
21.9154
21.9153
21.9152
21.9151
21.915
21.9149
21.9148
21.9148
21.9147
21.9146
21.9145
21.9144
21.9144
21.9143
21.9142
21.9142
21.9141
21.9141
21.9141
21.914
21.914
21.914
21.914
21.914
21.914
21.914
21.9139
21.9139
21.9139
21.9139
21.9139
21.9139
21.9139
21.9139
21.9139
21.9139
21.9139
21.9139
21.9139
21.9139
21.9139
21.9139
21.9139
21.9139
21.9139
21.9139
21.9139
21.9139
21.9139
21.9139
21.9139
21.9139
21.9139
21.9139
21.9139
21.9139
21.9139
21.9139
21.9139
21.9139
21.9139
21.9139
21.9139
21.9139
21.9139
21.9139
21.9139
21.9139
21.9139
21.9139
21.9139
21.9139
21.9139
21.9139
21.9139
21.9139
21.9139
21.9139
21.9139
21.9139
21.9139
21.9139
21.9139
21.9139
21.9139
21.9139
21.9139
21.9139
21.9139
21.9139
21.9139
21.9139
21.9139
21.9139
21.9139
21.9139
21.9139
21.9139
21.9139
21.9139
21.9139
21.9139
21.9139
21.9139
21.9139
21.9139
21.9139
21.9139
21.9139
21.9139
21.9139
21.914
21.914
21.914
21.914
21.914
21.914
21.914
21.914
21.914
21.9141
21.9141
21.9141
21.9141
21.9142
21.9142
21.9142
21.9143
21.9143
21.9144
21.9145
21.9145
21.9146
21.9147
21.9148
21.9149
21.9151
21.9152
21.9154
21.9157
21.916
21.9163
21.9166
21.917
21.9174
21.9179
21.9183
21.9189
21.9195
21.9203
21.9212
21.9223
21.9235
21.9248
21.9262
21.9276
21.929
21.9303
21.9315
21.9327
21.9337
21.9347
21.9357
21.9367
21.938
21.9395
21.9412
21.9429
21.9446
21.946
21.9473
21.9483
21.949
21.9494
21.9496
21.9495
21.9493
21.9488
21.9482
21.9476
21.9468
21.946
21.9452
21.9443
21.9434
21.9426
21.9417
21.9408
21.9399
21.9391
21.9382
21.9373
21.9364
21.9355
21.9345
21.9336
21.9326
21.9316
21.9307
21.9298
21.9289
21.928
21.9272
21.9265
21.9257
21.925
21.9244
21.9237
21.9231
21.9225
21.9219
21.9213
21.9208
21.9202
21.9196
21.9191
21.9185
21.918
21.9175
21.917
21.9166
21.9162
21.9158
21.9156
21.9153
21.9151
21.9149
21.9148
21.9147
21.9145
21.9144
21.9143
21.9143
21.9142
21.9141
21.9141
21.9141
21.914
21.914
21.914
21.914
21.914
21.9139
21.9139
21.9139
21.9139
21.9139
21.9139
21.9139
21.9139
21.9139
21.9139
21.9139
21.9139
21.9139
21.9139
21.9139
21.9139
21.9139
21.9139
21.9139
21.9139
21.9139
21.9139
21.9139
21.9139
21.9139
21.9139
21.9139
21.9139
21.9139
21.9139
21.9139
21.9139
21.9139
21.9139
21.9139
21.9139
21.9139
21.9139
21.9139
21.9139
21.9139
21.9139
21.9139
21.9139
21.9139
21.9139
21.9139
21.9139
21.9139
21.9139
21.9139
21.9139
21.9139
21.9139
21.9139
21.9139
21.9139
21.9139
21.9139
21.914
21.914
21.914
21.914
21.914
21.914
21.914
21.914
21.914
21.914
21.9141
21.9141
21.9141
21.9141
21.9142
21.9142
21.9142
21.9143
21.9143
21.9144
21.9144
21.9145
21.9146
21.9147
21.9148
21.9149
21.915
21.9151
21.9153
21.9155
21.9157
21.9159
21.9162
21.9165
21.9169
21.9174
21.9179
21.9184
21.919
21.9196
21.9203
21.9211
21.9221
21.9233
21.9247
21.9264
21.9284
21.9306
21.933
21.9355
21.9382
21.9411
21.9444
21.9484
21.9535
21.9598
21.9671
21.9752
21.9839
21.9928
22.0017
22.0103
22.0186
22.0263
22.0335
22.0401
22.0462
22.0521
22.0584
22.0661
22.0752
22.0854
22.0958
22.1056
22.1143
22.1217
22.1275
22.1318
22.1344
22.1353
22.1348
22.1331
22.1304
22.1269
22.1227
22.1182
22.1133
22.1082
22.103
22.0978
22.0925
22.0871
22.0818
22.0765
22.0711
22.0658
22.0603
22.0548
22.0491
22.0434
22.0376
22.0319
22.0263
22.0209
22.0157
22.0107
22.0058
22.0012
21.9967
21.9924
21.9882
21.9841
21.9801
21.9762
21.9723
21.9684
21.9646
21.9608
21.957
21.9532
21.9494
21.9457
21.942
21.9384
21.935
21.9318
21.9291
21.9267
21.9248
21.9233
21.922
21.9209
21.9199
21.919
21.9182
21.9175
21.9168
21.9163
21.9158
21.9155
21.9152
21.915
21.9148
21.9146
21.9145
21.9144
21.9143
21.9142
21.9141
21.9141
21.914
21.914
21.914
21.914
21.914
21.9139
21.9139
21.9139
21.9139
21.9139
21.9139
21.9139
21.9139
21.9139
21.9139
21.9139
21.9139
21.9139
21.9139
21.9139
21.9139
21.9139
21.9139
21.9139
21.9139
21.9139
21.9139
21.9139
21.9139
21.9139
21.9139
21.9139
21.9139
21.9139
21.9139
21.9139
21.9139
21.9139
21.9139
21.9139
21.9139
21.914
21.914
21.914
21.914
21.914
21.914
21.914
21.914
21.9141
21.9141
21.9141
21.9141
21.9141
21.9142
21.9142
21.9142
21.9143
21.9143
21.9144
21.9144
21.9145
21.9146
21.9147
21.9148
21.9149
21.915
21.9152
21.9153
21.9155
21.9157
21.9159
21.9162
21.9165
21.9168
21.9172
21.9177
21.9183
21.9189
21.9196
21.9204
21.9212
21.9221
21.9231
21.9243
21.9257
21.9274
21.9294
21.9317
21.9342
21.9371
21.9402
21.9436
21.9472
21.9513
21.9561
21.9622
21.9698
21.9792
21.9902
22.0026
22.0164
22.0311
22.0466
22.0628
22.08
22.0998
22.1243
22.1552
22.1929
22.2369
22.2858
22.338
22.3917
22.4453
22.4977
22.5477
22.5947
22.6384
22.6785
22.7155
22.7508
22.7888
22.8365
22.8974
22.9674
23.0388
23.1055
23.1639
23.2124
23.2507
23.2786
23.2962
23.3028
23.3006
23.2906
23.274
23.2525
23.2273
23.1992
23.1691
23.1378
23.1056
23.0729
23.0396
23.006
22.972
22.9379
22.9035
22.8688
22.8334
22.797
22.7595
22.7217
22.6841
22.6474
22.6122
22.579
22.5478
22.5184
22.4906
22.4642
22.4386
22.4137
22.3892
22.3647
22.3402
22.3157
22.291
22.2663
22.2415
22.2166
22.1916
22.1667
22.1418
22.1172
22.0928
22.069
22.0467
22.0268
22.0101
21.9965
21.9854
21.9761
21.9682
21.9612
21.9548
21.949
21.9435
21.9384
21.9338
21.9299
21.9267
21.9243
21.9224
21.9209
21.9197
21.9187
21.9178
21.917
21.9163
21.9158
21.9154
21.9151
21.9149
21.9147
21.9146
21.9144
21.9143
21.9142
21.9142
21.9141
21.9141
21.914
21.914
21.914
21.914
21.914
21.9139
21.9139
21.9139
21.9139
21.9139
21.9139
21.9139
21.9139
21.9139
21.9139
21.9139
21.9139
21.9139
21.9139
21.9139
21.9139
21.9139
21.9139
21.9139
21.9139
21.9139
21.9139
21.9139
21.9139
21.9139
21.9139
21.9143
21.9143
21.9144
21.9144
21.9145
21.9145
21.9146
21.9147
21.9148
21.9149
21.915
21.9151
21.9152
21.9154
21.9156
21.9158
21.916
21.9163
21.9165
21.9169
21.9172
21.9176
21.9181
21.9187
21.9193
21.9201
21.921
21.9219
21.923
21.9241
21.9253
21.9268
21.9284
21.9304
21.9328
21.9355
21.9386
21.9422
21.9461
21.9503
21.9549
21.9599
21.9656
21.9725
21.9809
21.9912
22.0035
22.0175
22.0333
22.0504
22.0689
22.0885
22.1094
22.1327
22.1607
22.196
22.2405
22.2946
22.3584
22.4308
22.5106
22.5963
22.6864
22.7803
22.8795
22.994
23.143
23.3392
23.582
23.8622
24.1674
24.4859
24.8075
25.1238
25.4286
25.7177
25.988
26.2379
26.4672
26.6767
26.8712
27.0748
27.3304
27.6518
28.0108
28.3726
28.7098
29.0045
29.2499
29.4446
29.5865
29.6767
29.7057
29.6904
29.638
29.5522
29.4403
29.3089
29.1621
29.0049
28.842
28.6753
28.5053
28.332
28.1557
27.977
27.7967
27.6146
27.4303
27.242
27.0475
26.8477
26.6519
26.4634
26.2835
26.1133
25.9524
25.7989
25.6512
25.5079
25.3678
25.2294
25.0909
24.9511
24.8091
24.6645
24.5171
24.3666
24.2133
24.057
23.8979
23.7365
23.5733
23.4089
23.2442
23.0802
22.9183
22.765
22.6308
22.5212
22.4348
22.3664
22.3101
22.2616
22.2178
22.1772
22.139
22.1029
22.0693
22.0397
22.0154
21.9965
21.9821
21.9708
21.9616
21.9538
21.9469
21.9406
21.9351
21.9304
21.9268
21.9241
21.9221
21.9206
21.9194
21.9184
21.9175
21.9168
21.9161
21.9157
21.9153
21.9151
21.9149
21.9147
21.9146
21.9145
21.9144
21.9143
21.9142
21.9141
21.9141
21.9141
21.9141
21.914
21.914
21.914
21.914
21.914
21.914
21.914
21.914
21.9139
21.9139
21.9139
21.9139
21.9139
21.9139
21.9139
21.9139
21.9139
21.9139
21.9158
21.916
21.9163
21.9165
21.9168
21.9171
21.9175
21.9179
21.9183
21.9188
21.9194
21.9201
21.9209
21.9218
21.9228
21.924
21.9253
21.9266
21.9282
21.9298
21.9317
21.934
21.9366
21.9397
21.9432
21.9473
21.9519
21.957
21.9626
21.9687
21.9754
21.9832
21.9926
22.004
22.0178
22.034
22.0524
22.0729
22.0952
22.1192
22.1448
22.1725
22.2041
22.2423
22.2895
22.3467
22.4144
22.4922
22.5791
22.6743
22.7765
22.8852
23.0009
23.1291
23.2878
23.4979
23.7691
24.0997
24.4823
24.9077
25.3663
25.8491
26.3491
26.8604
27.3877
27.9856
28.7658
29.7809
31.0134
32.413
33.9216
35.4842
37.0532
38.5928
40.0769
41.4869
42.8093
44.0374
45.173
46.2215
47.1958
48.1812
49.5684
51.7506
54.3476
56.9573
59.3714
61.4866
63.2832
64.7766
65.9036
66.6919
67.1064
67.1711
66.9217
66.4627
65.8421
65.0863
64.2056
63.2278
62.2035
61.1492
60.0563
58.9264
57.7625
56.5734
55.3661
54.1422
52.9011
51.6304
50.3058
48.9337
47.7223
46.6502
45.6839
44.8088
44.0106
43.2691
42.5652
41.8813
41.2008
40.5119
39.8071
39.0801
38.3266
37.5455
36.7393
35.9101
35.0602
34.1901
33.299
32.3893
31.4657
30.5324
29.5918
28.6498
27.7162
26.8508
26.1355
25.5773
25.1381
24.7763
24.4614
24.1742
23.9042
23.646
23.3964
23.1549
22.9252
22.7218
22.5586
22.4363
22.3462
22.2772
22.2208
22.1715
22.1267
22.0855
22.0492
22.0198
21.9977
21.9817
21.9698
21.9605
21.9526
21.9457
21.9394
21.9339
21.9294
21.926
21.9236
21.9219
21.9206
21.9196
21.9187
21.9179
21.9172
21.9166
21.9161
21.9157
21.9154
21.9152
21.9151
21.915
21.9149
21.9148
21.9148
21.9147
21.9147
21.9146
21.9145
21.9139
21.9139
21.9139
21.9139
21.9139
21.9139
21.9139
21.9139
21.9139
21.9246
21.9259
21.9273
21.9289
21.9306
21.9324
21.9345
21.9368
21.9394
21.9424
21.9459
21.95
21.9547
21.96
21.9659
21.9724
21.9795
21.9873
21.996
22.0061
22.0181
22.0326
22.0499
22.0701
22.093
22.1184
22.1463
22.1765
22.2091
22.245
22.2867
22.337
22.3983
22.4716
22.5571
22.6545
22.7629
22.881
23.0078
23.1429
23.2884
23.4566
23.6689
23.9404
24.2738
24.664
25.1033
25.584
26.0986
26.6414
27.209
27.8012
28.4455
29.2386
30.2796
31.5945
33.1668
34.963
36.9414
39.0592
41.2817
43.5792
45.9324
48.3344
51.0046
55.2824
61.6956
69.7817
79.0214
89.0379
99.5485
110.291
121.038
131.661
142.08
152.176
161.866
171.101
179.68
187.485
194.714
201.03
205.915
209.788
213.123
215.972
218.156
219.924
221.29
222.206
222.727
222.792
222.5
222.066
221.374
220.469
219.417
218.19
216.957
215.826
214.68
213.482
212.23
210.893
209.482
208.003
206.447
204.829
203.122
201.299
199.364
197.012
194.185
191.025
187.663
184.066
180.105
175.805
171.286
166.585
161.619
156.282
150.611
144.651
138.437
131.955
125.153
118.118
110.838
103.363
95.7538
87.9849
80.2095
72.4982
64.8945
57.3827
50.6362
45.7891
42.4752
40.0856
38.1714
36.4844
34.9053
33.3887
31.9178
30.4837
29.0891
27.7591
26.6212
25.7602
25.133
24.6577
24.2705
23.9316
23.6196
23.3253
23.0472
22.7974
22.5966
22.4511
22.3496
22.2759
22.2177
22.1677
22.1226
22.0813
22.045
22.0159
21.9948
21.9802
21.9697
21.9616
21.9547
21.9486
21.943
21.938
21.9336
21.9299
21.927
21.9249
21.9235
21.9226
21.9219
21.9214
21.9209
21.9204
21.9201
21.9197
21.9194
21.9186
21.914
21.914
21.9666
21.9729
21.9798
21.9876
21.996
22.0052
22.0154
22.0268
22.04
22.0558
22.0746
22.0965
22.1216
22.1499
22.1812
22.2152
22.2521
22.2921
22.3365
22.3882
22.4501
22.5244
22.6123
22.7141
22.8297
22.9583
23.0992
23.2516
23.4157
23.5963
23.8104
24.08
24.4171
24.8218
25.2882
25.8082
26.3737
26.977
27.6122
28.2758
28.9777
29.7779
30.7837
32.04
33.5443
35.2738
37.1992
39.2893
41.5166
43.8615
46.3142
48.8771
51.5921
55.2734
61.1553
69.15
78.8772
90.0566
102.479
115.917
130.183
145.183
160.614
176.142
191.821
206.565
220.047
232.508
243.953
254.25
263.248
270.818
277.103
282.292
286.271
289.304
291.653
293.707
295.627
297.581
299.548
301.12
302.277
303.096
303.418
303.409
303.256
302.981
302.665
302.225
301.698
301.094
300.435
299.925
299.608
299.188
298.599
298.111
297.485
296.62
295.745
294.842
293.83
292.849
292
291.133
290.143
289.121
288.157
287.218
286.173
285.011
283.948
282.809
281.496
279.947
278.191
276.474
274.614
272.472
269.932
267.272
264.478
261.369
258.221
255.016
251.751
248.469
245.088
241.197
236.686
232.051
226.898
220.659
213.629
205.752
196.447
185.279
172.787
159.619
146.295
132.974
119.599
106.591
93.9448
81.4291
69.4314
58.1457
49.2809
43.6206
40.0347
37.4945
35.4308
33.5779
31.8259
30.1421
28.5313
27.0934
26.0004
25.2429
24.7068
24.2922
23.9394
23.6191
23.3204
23.0408
22.789
22.5878
22.4465
22.3523
22.2861
22.2343
22.1897
22.1491
22.1119
22.0783
22.0488
22.0239
22.0044
21.9911
21.9825
21.9768
21.9726
21.969
21.9658
21.9629
21.9603
21.958
21.956
21.95
22.1697
22.2017
22.2372
22.276
22.318
22.3633
22.4129
22.4689
22.5343
22.6119
22.7032
22.8093
22.9305
23.0666
23.2171
23.3813
23.5587
23.7505
23.964
24.2192
24.5363
24.9248
25.3842
25.9092
26.493
27.1287
27.8101
28.5328
29.2963
30.1229
31.0944
32.2981
33.7601
35.472
37.4104
39.5471
41.853
44.3021
46.8742
49.5677
52.3804
55.6219
60.6597
67.6819
76.3801
86.4623
97.7456
110.086
123.312
137.343
152.153
167.488
183.313
199.032
213.496
227.022
240.135
252.848
264.717
275.403
284.99
293.465
300.638
306.758
311.876
315.551
318.176
320.478
322.673
324.604
326.154
327.309
328.175
328.736
329.052
329.041
328.512
327.692
326.892
325.995
324.892
323.955
323.233
321.988
320.37
319.254
318.143
316.753
315.708
314.919
313.934
312.936
312.066
311.275
310.57
309.999
309.469
308.997
308.534
308.035
307.594
307.186
306.672
306.131
305.657
305.314
304.934
304.406
303.886
303.39
302.931
302.565
302.025
301.229
300.51
299.948
299.566
298.969
297.98
297.12
296.546
295.811
294.551
293.265
292.151
290.949
289.733
288.266
286.452
284.725
283.238
281.63
279.506
277.961
276.652
275.078
273.288
270.71
266.962
261.764
255.457
248.788
242.41
236.207
229.455
222.887
215.469
205.667
192.776
177.132
160.084
142.838
126.081
109.754
93.9124
79.0297
65.1731
53.1184
45.3355
40.7924
37.8904
35.6866
33.7615
31.9625
30.2535
28.6326
27.1671
26.0423
25.2913
24.7862
24.4088
24.0928
23.8074
23.5409
23.2922
23.0645
22.8618
22.6872
22.5466
22.4497
22.3905
22.3529