/*--------------------------------*- C++ -*----------------------------------*\
| =========                 |                                                 |
| \\      /  F ield         | OpenFOAM: The Open Source CFD Toolbox           |
|  \\    /   O peration     | Version:  v1706                                 |
|   \\  /    A nd           | Web:      www.OpenFOAM.com                      |
|    \\/     M anipulation  |                                                 |
\*---------------------------------------------------------------------------*/
FoamFile
{
    version     2.0;
    format      ascii;
    class       volScalarField;
    location    "3.8e-05";
    object      Tov;
}
// * * * * * * * * * * * * * * * * * * * * * * * * * * * * * * * * * * * * * //

dimensions      [0 0 0 1 0 0 0];


internalField   nonuniform List<scalar> 
30104
(
144.4
144.4
144.4
144.4
144.4
144.4
144.4
144.4
144.4
144.4
144.4
144.4
144.4
144.4
144.4
144.4
144.4
144.4
144.4
144.4
144.4
144.4
144.4
144.4
144.4
144.4
144.4
144.4
144.4
144.4
144.4
144.4
144.4
144.4
144.4
144.4
144.4
144.4
144.4
144.4
144.4
144.4
144.4
144.4
144.4
144.4
144.4
144.4
144.4
144.4
144.4
144.4
144.4
144.4
144.4
144.4
144.4
144.4
144.4
144.4
144.4
144.4
144.4
144.4
144.4
144.4
144.4
144.4
144.4
144.4
144.4
144.4
144.4
144.4
144.4
144.4
144.4
144.4
144.4
144.4
144.4
144.4
144.4
144.4
144.4
144.4
144.4
144.4
144.4
144.4
144.4
144.4
144.4
144.4
144.4
144.4
144.4
144.4
144.4
144.4
144.4
144.4
144.4
144.4
144.4
144.4
144.4
144.4
144.4
144.4
144.4
144.4
144.4
144.4
144.4
144.4
144.4
144.4
144.4
144.4
144.4
144.4
144.4
144.4
144.4
144.4
144.4
144.4
144.4
144.4
144.4
144.4
144.4
144.4
144.4
144.4
144.4
144.4
144.4
144.4
144.4
144.4
144.4
144.4
144.4
144.4
144.4
144.4
144.4
144.4
144.4
144.4
144.4
144.4
144.4
144.4
144.4
144.4
144.4
144.4
144.4
144.4
144.4
144.4
144.4
144.4
144.4
144.4
144.4
144.4
144.4
144.4
144.4
144.4
144.4
144.4
144.4
144.4
144.4
144.4
144.4
144.4
144.4
144.4
144.4
144.4
144.4
144.4
144.4
144.4
144.4
144.4
144.4
144.4
144.4
144.4
144.4
144.4
144.4
144.4
144.4
144.4
144.4
144.4
144.4
144.4
144.4
144.4
144.4
144.4
144.4
144.4
144.4
144.4
144.4
144.4
144.4
144.4
144.4
144.4
144.4
144.4
144.4
144.4
144.4
144.4
144.4
144.4
144.4
144.4
144.4
144.4
144.4
144.4
144.4
144.4
144.4
144.4
144.4
144.4
144.4
144.4
144.4
144.4
144.4
144.4
144.4
144.4
144.4
144.4
144.4
144.4
144.4
144.4
144.4
144.4
144.4
144.4
144.4
144.4
144.4
144.4
144.4
144.4
144.4
144.4
144.4
144.4
144.4
144.4
144.4
144.4
144.4
144.4
144.4
144.4
144.4
144.4
144.4
144.4
144.4
144.4
144.4
144.4
144.4
144.4
144.4
144.4
144.4
144.4
144.4
144.4
144.4
144.4
144.4
144.4
144.4
144.4
144.4
144.4
144.4
144.4
144.4
144.4
144.4
144.4
144.4
144.4
144.4
144.4
144.4
144.4
144.4
144.4
144.4
144.4
144.4
144.4
144.4
144.4
144.4
144.4
144.4
144.4
144.4
144.4
144.4
144.4
144.4
144.4
144.4
144.4
144.4
144.4
144.4
144.4
144.4
144.4
144.4
144.4
144.4
144.4
144.4
144.4
144.4
144.4
144.4
144.4
144.4
144.4
144.4
144.4
144.4
144.4
144.4
144.4
144.4
144.4
144.4
144.4
144.4
144.4
144.4
144.4
144.4
144.4
144.4
144.4
144.4
144.4
144.4
144.4
144.4
144.4
144.4
144.4
144.4
144.4
144.4
144.4
144.4
144.4
144.4
144.4
144.4
144.4
144.4
144.4
144.4
144.4
144.4
144.4
144.4
144.4
144.4
144.4
144.4
144.4
144.4
144.4
144.4
144.4
144.4
144.4
144.4
144.4
144.4
144.4
144.4
144.4
144.4
144.4
144.4
144.4
144.4
144.4
144.4
144.4
144.4
144.4
144.4
144.4
144.4
144.4
144.4
144.4
144.4
144.4
144.4
144.4
144.4
144.4
144.4
144.4
144.4
144.4
144.4
144.4
144.4
144.4
144.4
144.4
144.4
144.4
144.4
144.4
144.4
144.4
144.4
144.4
144.4
144.4
144.4
144.4
144.4
144.4
144.4
144.4
144.4
144.4
144.4
144.4
144.4
144.4
144.4
144.4
144.4
144.4
144.4
144.4
144.4
144.4
144.4
144.4
144.4
144.4
144.4
144.4
144.4
144.4
144.4
144.4
144.4
144.4
144.4
144.4
144.4
144.4
144.4
144.4
144.4
144.4
144.4
144.4
144.4
144.4
144.4
144.4
144.4
144.4
144.4
144.4
144.4
144.4
144.4
144.4
144.4
144.4
144.4
144.4
144.4
144.4
144.4
144.4
144.4
144.4
144.4
144.4
144.4
144.4
144.4
144.4
144.4
144.4
144.4
144.4
144.4
144.4
144.4
144.4
144.4
144.4
144.4
144.4
144.4
144.4
144.4
144.4
144.4
144.4
144.4
144.4
144.4
144.4
144.4
144.4
144.4
144.4
144.4
144.4
144.4
144.4
144.4
144.4
144.4
144.4
144.4
144.4
144.4
144.4
144.4
144.4
144.4
144.4
144.4
144.4
144.4
144.4
144.4
144.4
144.4
144.4
144.4
144.4
144.4
144.4
144.4
144.4
144.4
144.4
144.4
144.4
144.4
144.4
144.4
144.4
144.4
144.4
144.4
144.4
144.4
144.4
144.4
144.4
144.4
144.4
144.4
144.4
144.4
144.4
144.4
144.4
144.4
144.4
144.4
144.4
144.4
144.4
144.4
144.4
144.4
144.4
144.4
144.4
144.4
144.4
144.4
144.4
144.4
144.4
144.4
144.4
144.4
144.4
144.4
144.4
144.4
144.4
144.4
144.4
144.4
144.4
144.4
144.4
144.4
144.4
144.4
144.4
144.4
144.4
144.4
144.4
144.4
144.4
144.4
144.4
144.4
144.4
144.4
144.4
144.4
144.4
144.4
144.4
144.4
144.4
144.4
144.4
144.4
144.4
144.4
144.4
144.4
144.4
144.4
144.4
144.4
144.4
144.4
144.4
144.4
144.4
144.4
144.4
144.4
144.4
144.4
144.4
144.4
144.4
144.4
144.4
144.4
144.4
144.4
144.4
144.4
144.4
144.4
144.4
144.4
144.4
144.4
144.4
144.4
144.4
144.4
144.4
144.4
144.4
144.4
144.4
144.4
144.4
144.4
144.4
144.4
144.4
144.4
144.4
144.4
144.4
144.4
144.4
144.4
144.4
144.4
144.4
144.4
144.4
144.4
144.4
144.4
144.4
144.4
144.4
144.4
144.4
144.4
144.4
144.4
144.4
144.4
144.4
144.4
144.4
144.4
144.4
144.4
144.4
144.4
144.4
144.4
144.4
144.4
144.4
144.4
144.4
144.4
144.4
144.4
144.4
144.4
144.4
144.4
144.4
144.4
144.4
144.4
144.4
144.4
144.4
144.4
144.4
144.4
144.4
144.4
144.4
144.4
144.4
144.4
144.4
144.4
144.4
144.4
144.4
144.4
144.4
144.4
144.4
144.4
144.4
144.4
144.4
144.4
144.4
144.4
144.4
144.4
144.4
144.4
144.4
144.4
144.4
144.4
144.4
144.4
144.4
144.4
144.4
144.4
144.4
144.4
144.4
144.4
144.4
144.4
144.4
144.4
144.4
144.4
144.4
144.4
144.4
144.4
144.4
144.4
144.4
144.4
144.4
144.4
144.4
144.4
144.4
144.4
144.4
144.4
144.4
144.4
144.4
144.4
144.4
144.4
144.4
144.4
144.4
144.4
144.4
144.4
144.4
144.4
144.4
144.4
144.4
144.4
144.4
144.4
144.4
144.4
144.4
144.4
144.4
144.4
144.4
144.4
144.4
144.4
144.4
144.4
144.4
144.4
144.4
144.4
144.4
144.4
144.4
144.4
144.4
144.4
144.4
144.4
144.4
144.4
144.4
144.4
144.4
144.4
144.4
144.4
144.4
144.4
144.4
144.4
144.4
144.4
144.4
144.4
144.4
144.4
144.4
144.4
144.4
144.4
144.4
144.4
144.4
144.4
144.4
144.4
144.4
144.4
144.4
144.4
144.4
144.4
144.4
144.4
144.4
144.4
144.4
144.4
144.4
144.4
144.4
144.4
144.4
144.4
144.4
144.4
144.4
144.4
144.4
144.4
144.4
144.4
144.4
144.4
144.4
144.4
144.4
144.4
144.4
144.4
144.4
144.4
144.4
144.4
144.4
144.4
144.4
144.4
144.4
144.4
144.4
144.4
144.4
144.4
144.4
144.4
144.4
144.4
144.4
144.4
144.4
144.4
144.4
144.4
144.4
144.4
144.4
144.4
144.4
144.4
144.4
144.4
144.4
144.4
144.4
144.4
144.4
144.4
144.4
144.4
144.4
144.4
144.4
144.4
144.4
144.4
144.4
144.4
144.4
144.4
144.4
144.4
144.4
144.4
144.4
144.4
144.4
144.4
144.4
144.4
144.4
144.4
144.4
144.4
144.4
144.4
144.4
144.4
144.4
144.4
144.4
144.4
144.4
144.4
144.4
144.4
144.4
144.4
144.4
144.4
144.4
144.4
144.4
144.4
144.4
144.4
144.4
144.4
144.4
144.4
144.4
144.4
144.4
144.4
144.4
144.4
144.4
144.4
144.4
144.4
144.4
144.4
144.4
144.4
144.4
144.4
144.4
144.4
144.4
144.4
144.4
144.4
144.4
144.4
144.4
144.4
144.4
144.4
144.4
144.4
144.4
144.4
144.4
144.4
144.4
144.4
144.4
144.4
144.4
144.4
144.4
144.4
144.4
144.4
144.4
144.4
144.4
144.4
144.4
144.4
144.4
144.4
144.4
144.4
144.4
144.4
144.4
144.4
144.4
144.4
144.4
144.4
144.4
144.4
144.4
144.4
144.4
144.4
144.4
144.4
144.4
144.4
144.4
144.4
144.4
144.4
144.4
144.4
144.4
144.4
144.4
144.4
144.4
144.4
144.4
144.4
144.4
144.4
144.4
144.4
144.4
144.4
144.4
144.4
144.4
144.4
144.4
144.4
144.4
144.4
144.4
144.4
144.4
144.4
144.4
144.4
144.4
144.4
144.4
144.4
144.4
144.4
144.4
144.4
144.4
144.4
144.4
144.4
144.4
144.4
144.4
144.4
144.4
144.4
144.4
144.4
144.4
144.4
144.4
144.4
144.4
144.4
144.4
144.4
144.4
144.4
144.4
144.4
144.4
144.4
144.4
144.4
144.4
144.4
144.4
144.4
144.4
144.4
144.4
144.4
144.4
144.4
144.4
144.4
144.4
144.4
144.4
144.4
144.4
144.4
144.4
144.4
144.4
144.4
144.4
144.4
144.4
144.4
144.4
144.4
144.4
144.4
144.4
144.4
144.4
144.4
144.4
144.4
144.4
144.4
144.4
144.4
144.4
144.4
144.4
144.4
144.4
144.4
144.4
144.4
144.4
144.4
144.4
144.4
144.4
144.4
144.4
144.4
144.4
144.4
144.4
144.4
144.4
144.4
144.4
144.4
144.4
144.4
144.4
144.4
144.4
144.4
144.4
144.4
144.4
144.4
144.4
144.4
144.4
144.4
144.4
144.4
144.4
144.4
144.4
144.4
144.4
144.4
144.4
144.4
144.4
144.4
144.4
144.4
144.4
144.4
144.4
144.4
144.4
144.4
144.4
144.4
144.4
144.4
144.4
144.4
144.4
144.4
144.4
144.4
144.4
144.4
144.4
144.4
144.4
144.4
144.4
144.4
144.4
144.4
144.4
144.4
144.4
144.4
144.4
144.4
144.4
144.4
144.4
144.4
144.4
144.4
144.4
144.4
144.4
144.4
144.4
144.4
144.4
144.4
144.4
144.4
144.4
144.4
144.4
144.4
144.4
144.4
144.4
144.4
144.4
144.4
144.4
144.4
144.4
144.4
144.4
144.4
144.4
144.4
144.4
144.4
144.4
144.4
144.4
144.4
144.4
144.4
144.4
144.4
144.4
144.4
144.4
144.4
144.4
144.4
144.4
144.4
144.4
144.4
144.4
144.4
144.4
144.4
144.4
144.4
144.4
144.4
144.4
144.4
144.4
144.4
144.4
144.4
144.4
144.4
144.4
144.4
144.4
144.4
144.4
144.4
144.4
144.4
144.4
144.4
144.4
144.4
144.4
144.4
144.4
144.4
144.4
144.4
144.4
144.4
144.4
144.4
144.4
144.4
144.4
144.4
144.4
144.4
144.4
144.4
144.4
144.4
144.4
144.4
144.4
144.4
144.4
144.4
144.4
144.4
144.4
144.4
144.4
144.4
144.4
144.4
144.4
144.4
144.4
144.4
144.4
144.4
144.4
144.4
144.4
144.4
144.4
144.4
144.4
144.4
144.4
144.4
144.4
144.4
144.4
144.4
144.4
144.4
144.4
144.4
144.4
144.4
144.4
144.4
144.4
144.4
144.4
144.4
144.4
144.4
144.4
144.4
144.4
144.4
144.4
144.4
144.4
144.4
144.4
144.4
144.4
144.4
144.4
144.4
144.4
144.4
144.4
144.4
144.4
144.4
144.4
144.4
144.4
144.4
144.4
144.4
144.4
144.4
144.4
144.4
144.4
144.4
144.4
144.4
144.4
144.4
144.4
144.4
144.4
144.4
144.4
144.4
144.4
144.4
144.4
144.4
144.4
144.4
144.4
144.4
144.4
144.4
144.4
144.4
144.4
144.4
144.4
144.4
144.4
144.4
144.4
144.4
144.4
144.4
144.4
144.4
144.4
144.4
144.4
144.4
144.4
144.4
144.4
144.4
144.4
144.4
144.4
144.4
144.4
144.4
144.4
144.4
144.4
144.4
144.4
144.4
144.4
144.4
144.4
144.4
144.4
144.4
144.4
144.4
144.4
144.4
144.4
144.4
144.4
144.4
144.4
144.4
144.4
144.4
144.4
144.4
144.4
144.4
144.4
144.4
144.4
144.4
144.4
144.4
144.4
144.4
144.4
144.4
144.4
144.4
144.4
144.4
144.401
144.401
144.401
144.401
144.401
144.401
144.401
144.401
144.401
144.401
144.401
144.401
144.401
144.401
144.401
144.401
144.401
144.401
144.4
144.4
144.4
144.4
144.4
144.4
144.4
144.4
144.4
144.4
144.4
144.4
144.4
144.4
144.4
144.4
144.4
144.4
144.4
144.4
144.4
144.4
144.4
144.4
144.4
144.4
144.4
144.4
144.4
144.4
144.4
144.4
144.4
144.4
144.4
144.4
144.4
144.4
144.4
144.4
144.4
144.4
144.4
144.4
144.4
144.4
144.4
144.4
144.4
144.4
144.4
144.4
144.4
144.4
144.4
144.4
144.4
144.4
144.4
144.4
144.4
144.4
144.4
144.4
144.4
144.4
144.4
144.4
144.4
144.4
144.4
144.4
144.4
144.4
144.4
144.4
144.4
144.4
144.4
144.4
144.4
144.4
144.4
144.4
144.4
144.4
144.4
144.4
144.4
144.4
144.4
144.4
144.4
144.4
144.4
144.4
144.4
144.4
144.4
144.4
144.4
144.4
144.4
144.4
144.4
144.4
144.4
144.4
144.4
144.4
144.4
144.4
144.4
144.4
144.4
144.4
144.4
144.4
144.4
144.4
144.4
144.4
144.4
144.4
144.4
144.4
144.4
144.4
144.4
144.4
144.4
144.4
144.4
144.4
144.4
144.4
144.4
144.4
144.4
144.4
144.4
144.4
144.4
144.4
144.4
144.4
144.4
144.4
144.4
144.4
144.4
144.4
144.4
144.4
144.4
144.4
144.4
144.4
144.4
144.4
144.4
144.4
144.4
144.4
144.4
144.4
144.4
144.401
144.401
144.401
144.401
144.401
144.401
144.401
144.401
144.401
144.402
144.402
144.402
144.402
144.402
144.402
144.402
144.403
144.403
144.403
144.403
144.403
144.403
144.403
144.404
144.404
144.404
144.404
144.404
144.404
144.404
144.404
144.404
144.404
144.404
144.404
144.404
144.404
144.404
144.404
144.403
144.403
144.403
144.403
144.403
144.403
144.403
144.403
144.403
144.402
144.402
144.402
144.402
144.402
144.402
144.402
144.402
144.402
144.401
144.401
144.401
144.401
144.401
144.401
144.401
144.401
144.401
144.401
144.401
144.401
144.401
144.401
144.4
144.4
144.4
144.4
144.4
144.4
144.4
144.4
144.4
144.4
144.4
144.4
144.4
144.4
144.4
144.4
144.4
144.4
144.4
144.4
144.4
144.4
144.4
144.4
144.4
144.4
144.4
144.4
144.4
144.4
144.4
144.4
144.4
144.4
144.4
144.4
144.4
144.4
144.4
144.4
144.4
144.4
144.4
144.4
144.4
144.4
144.4
144.4
144.4
144.4
144.4
144.4
144.4
144.4
144.4
144.4
144.4
144.4
144.4
144.4
144.4
144.4
144.4
144.4
144.4
144.4
144.4
144.4
144.4
144.4
144.4
144.4
144.4
144.4
144.4
144.4
144.4
144.4
144.4
144.4
144.4
144.4
144.4
144.4
144.4
144.4
144.4
144.4
144.4
144.4
144.4
144.4
144.4
144.4
144.4
144.4
144.4
144.4
144.4
144.4
144.4
144.4
144.4
144.4
144.4
144.4
144.4
144.4
144.4
144.4
144.4
144.4
144.4
144.4
144.4
144.4
144.4
144.4
144.4
144.4
144.4
144.4
144.401
144.401
144.401
144.401
144.401
144.401
144.401
144.401
144.401
144.402
144.402
144.402
144.403
144.403
144.403
144.404
144.404
144.405
144.405
144.406
144.407
144.408
144.409
144.41
144.411
144.412
144.413
144.414
144.415
144.416
144.417
144.418
144.419
144.419
144.421
144.422
144.423
144.424
144.426
144.426
144.427
144.428
144.428
144.428
144.428
144.428
144.427
144.427
144.426
144.426
144.425
144.424
144.424
144.423
144.422
144.421
144.421
144.42
144.419
144.419
144.418
144.417
144.417
144.416
144.415
144.414
144.414
144.413
144.412
144.411
144.411
144.41
144.41
144.409
144.408
144.408
144.407
144.407
144.406
144.406
144.405
144.405
144.405
144.404
144.404
144.403
144.403
144.403
144.402
144.402
144.402
144.401
144.401
144.401
144.401
144.401
144.401
144.401
144.4
144.4
144.4
144.4
144.4
144.4
144.4
144.4
144.4
144.4
144.4
144.4
144.4
144.4
144.4
144.4
144.4
144.4
144.4
144.4
144.4
144.4
144.4
144.4
144.4
144.4
144.4
144.4
144.4
144.4
144.4
144.4
144.4
144.4
144.4
144.4
144.4
144.4
144.4
144.4
144.4
144.4
144.4
144.4
144.4
144.4
144.4
144.4
144.4
144.4
144.4
144.4
144.4
144.4
144.4
144.4
144.4
144.4
144.4
144.4
144.4
144.4
144.4
144.4
144.4
144.4
144.4
144.4
144.4
144.4
144.4
144.4
144.4
144.4
144.4
144.4
144.4
144.4
144.4
144.4
144.4
144.4
144.4
144.4
144.4
144.4
144.4
144.4
144.4
144.4
144.4
144.4
144.4
144.4
144.401
144.401
144.401
144.401
144.401
144.401
144.401
144.401
144.401
144.402
144.402
144.402
144.402
144.403
144.403
144.403
144.404
144.404
144.405
144.406
144.406
144.407
144.408
144.409
144.411
144.412
144.414
144.416
144.419
144.421
144.423
144.426
144.429
144.434
144.439
144.444
144.451
144.458
144.465
144.473
144.48
144.487
144.493
144.499
144.504
144.509
144.514
144.52
144.526
144.533
144.542
144.551
144.559
144.567
144.573
144.578
144.581
144.583
144.584
144.583
144.581
144.579
144.576
144.572
144.568
144.564
144.559
144.555
144.55
144.546
144.541
144.536
144.532
144.527
144.523
144.518
144.514
144.509
144.504
144.499
144.494
144.489
144.484
144.48
144.475
144.471
144.467
144.463
144.46
144.456
144.453
144.45
144.447
144.443
144.44
144.437
144.435
144.432
144.429
144.426
144.423
144.421
144.418
144.415
144.413
144.411
144.409
144.408
144.407
144.406
144.405
144.404
144.404
144.403
144.403
144.402
144.402
144.401
144.401
144.401
144.401
144.401
144.4
144.4
144.4
144.4
144.4
144.4
144.4
144.4
144.4
144.4
144.4
144.4
144.4
144.4
144.4
144.4
144.4
144.4
144.4
144.4
144.4
144.4
144.4
144.4
144.4
144.4
144.4
144.4
144.4
144.4
144.4
144.4
144.4
144.4
144.4
144.4
144.4
144.4
144.4
144.4
144.4
144.4
144.4
144.4
144.4
144.4
144.4
144.4
144.4
144.4
144.4
144.4
144.4
144.4
144.4
144.4
144.4
144.4
144.4
144.4
144.4
144.4
144.4
144.4
144.4
144.4
144.4
144.4
144.4
144.401
144.401
144.401
144.401
144.401
144.401
144.401
144.401
144.401
144.402
144.402
144.402
144.402
144.402
144.403
144.403
144.404
144.404
144.405
144.405
144.406
144.407
144.407
144.408
144.409
144.411
144.412
144.414
144.416
144.418
144.421
144.424
144.427
144.43
144.434
144.438
144.443
144.45
144.458
144.467
144.477
144.489
144.502
144.515
144.529
144.545
144.562
144.584
144.61
144.643
144.682
144.724
144.77
144.817
144.863
144.908
144.951
144.992
145.029
145.063
145.095
145.125
145.158
145.198
145.247
145.302
145.359
145.412
145.459
145.498
145.528
145.549
145.562
145.566
145.562
145.552
145.537
145.517
145.494
145.469
145.442
145.415
145.387
145.358
145.33
145.301
145.272
145.243
145.214
145.185
145.156
145.126
145.095
145.064
145.033
145.003
144.973
144.944
144.917
144.89
144.866
144.842
144.819
144.797
144.776
144.756
144.735
144.715
144.695
144.675
144.656
144.636
144.616
144.597
144.578
144.558
144.54
144.521
144.504
144.488
144.474
144.463
144.454
144.446
144.44
144.435
144.43
144.425
144.421
144.418
144.414
144.412
144.409
144.408
144.406
144.405
144.404
144.403
144.403
144.402
144.402
144.401
144.401
144.401
144.401
144.401
144.4
144.4
144.4
144.4
144.4
144.4
144.4
144.4
144.4
144.4
144.4
144.4
144.4
144.4
144.4
144.4
144.4
144.4
144.4
144.4
144.4
144.4
144.4
144.4
144.4
144.4
144.4
144.4
144.4
144.4
144.4
144.4
144.4
144.4
144.4
144.4
144.4
144.4
144.4
144.4
144.4
144.4
144.401
144.401
144.401
144.401
144.401
144.401
144.401
144.401
144.401
144.401
144.401
144.402
144.402
144.402
144.402
144.403
144.403
144.403
144.404
144.404
144.405
144.405
144.406
144.407
144.408
144.409
144.41
144.411
144.412
144.414
144.416
144.418
144.42
144.423
144.427
144.43
144.434
144.439
144.443
144.449
144.455
144.463
144.472
144.483
144.495
144.509
144.525
144.541
144.559
144.579
144.6
144.626
144.658
144.699
144.748
144.807
144.873
144.946
145.024
145.106
145.192
145.283
145.388
145.52
145.689
145.897
146.138
146.406
146.688
146.975
147.26
147.536
147.799
148.045
148.272
148.48
148.671
148.852
149.048
149.291
149.597
149.949
150.308
150.641
150.93
151.168
151.353
151.485
151.565
151.588
151.567
151.507
151.414
151.297
151.162
151.012
150.853
150.689
150.521
150.35
150.177
150.002
149.825
149.648
149.471
149.291
149.109
148.921
148.728
148.535
148.344
148.159
147.983
147.817
147.661
147.514
147.375
147.241
147.111
146.984
146.858
146.733
146.607
146.48
146.352
146.224
146.095
145.965
145.834
145.703
145.573
145.443
145.315
145.19
145.073
144.969
144.882
144.812
144.755
144.709
144.67
144.635
144.603
144.574
144.546
144.52
144.497
144.478
144.463
144.451
144.442
144.435
144.429
144.424
144.419
144.415
144.412
144.409
144.407
144.406
144.405
144.404
144.403
144.403
144.402
144.402
144.401
144.401
144.401
144.401
144.401
144.4
144.4
144.4
144.4
144.4
144.4
144.4
144.4
144.4
144.4
144.4
144.4
144.4
144.4
144.4
144.4
144.4
144.4
144.4
144.4
144.4
144.4
144.4
144.4
144.4
144.4
144.4
144.4
144.4
144.402
144.402
144.402
144.403
144.403
144.403
144.404
144.404
144.405
144.405
144.406
144.406
144.407
144.408
144.409
144.41
144.411
144.413
144.414
144.416
144.418
144.42
144.423
144.426
144.429
144.433
144.438
144.443
144.448
144.454
144.461
144.468
144.477
144.488
144.501
144.516
144.533
144.552
144.574
144.596
144.621
144.648
144.678
144.715
144.76
144.815
144.88
144.955
145.038
145.13
145.228
145.332
145.444
145.568
145.719
145.911
146.156
146.455
146.806
147.201
147.634
148.094
148.574
149.072
149.597
150.202
150.984
152.007
153.27
154.722
156.295
157.925
159.559
161.155
162.683
164.122
165.461
166.691
167.813
168.832
169.778
170.763
172.014
173.645
175.498
177.344
179.021
180.448
181.609
182.513
183.156
183.547
183.637
183.529
183.232
182.778
182.207
181.546
180.812
180.027
179.214
178.383
177.533
176.665
175.779
174.879
173.966
173.043
172.105
171.144
170.147
169.118
168.114
167.156
166.251
165.404
164.612
163.865
163.15
162.459
161.78
161.105
160.425
159.732
159.024
158.298
157.554
156.793
156.015
155.22
154.411
153.588
152.756
151.918
151.079
150.244
149.421
148.648
147.982
147.447
147.028
146.695
146.418
146.175
145.954
145.747
145.55
145.363
145.188
145.033
144.907
144.81
144.737
144.681
144.636
144.597
144.563
144.531
144.504
144.481
144.463
144.45
144.441
144.433
144.428
144.423
144.418
144.414
144.411
144.409
144.407
144.406
144.405
144.404
144.403
144.403
144.402
144.402
144.401
144.401
144.401
144.401
144.401
144.401
144.401
144.401
144.401
144.401
144.4
144.4
144.4
144.4
144.4
144.4
144.4
144.4
144.4
144.4
144.4
144.4
144.4
144.41
144.411
144.413
144.414
144.416
144.417
144.419
144.422
144.424
144.427
144.43
144.433
144.438
144.442
144.448
144.454
144.461
144.468
144.476
144.485
144.495
144.507
144.522
144.539
144.558
144.581
144.606
144.633
144.664
144.696
144.733
144.775
144.825
144.886
144.96
145.046
145.144
145.254
145.373
145.501
145.638
145.786
145.956
146.164
146.422
146.738
147.112
147.54
148.014
148.529
149.077
149.657
150.27
150.951
151.79
152.891
154.305
156.023
158.001
160.186
162.525
164.968
167.475
170.02
172.63
175.577
179.483
184.623
190.783
197.563
204.594
211.591
218.347
224.731
230.669
236.13
241.101
245.591
249.63
253.246
256.51
259.701
263.844
269.86
276.496
282.737
288.151
292.573
296.085
298.82
300.712
301.871
302.082
301.753
300.808
299.423
297.722
295.76
293.546
291.136
288.635
286.067
283.398
280.619
277.727
274.732
271.647
268.469
265.193
261.783
258.167
254.384
251.011
247.972
245.165
242.548
240.076
237.691
235.344
232.995
230.597
228.105
225.486
222.72
219.797
216.713
213.47
210.066
206.509
202.796
198.922
194.893
190.723
186.433
182.035
177.549
173.017
168.748
165.209
162.475
160.353
158.617
157.096
155.69
154.352
153.058
151.8
150.58
149.422
148.409
147.609
147.018
146.583
146.246
145.965
145.715
145.485
145.272
145.083
144.93
144.817
144.736
144.677
144.631
144.592
144.557
144.526
144.499
144.476
144.46
144.448
144.44
144.434
144.429
144.424
144.42
144.417
144.413
144.411
144.409
144.407
144.407
144.406
144.405
144.405
144.405
144.404
144.404
144.404
144.404
144.403
144.4
144.4
144.4
144.4
144.4
144.4
144.4
144.4
144.4
144.457
144.464
144.472
144.48
144.489
144.499
144.51
144.523
144.537
144.553
144.572
144.595
144.62
144.649
144.682
144.717
144.756
144.798
144.845
144.9
144.964
145.042
145.135
145.243
145.365
145.502
145.651
145.813
145.988
146.181
146.406
146.68
147.017
147.423
147.896
148.431
149.021
149.66
150.34
151.06
151.834
152.725
153.842
155.258
156.986
158.999
161.253
163.7
166.3
169.019
171.837
174.757
177.912
181.816
187.015
193.56
201.186
209.566
218.398
227.426
236.463
245.378
254.069
262.562
271.534
284.351
301.243
319.848
338.373
355.856
371.831
386.077
398.572
409.442
418.876
427.052
434.118
440.232
445.408
449.713
453.388
456.427
458.641
460.18
461.334
462.094
462.175
462.036
461.773
461.307
460.602
459.622
458.542
457.44
456.258
454.983
453.701
452.39
451.132
449.982
448.874
447.774
446.665
445.519
444.337
443.119
441.851
440.54
439.173
437.725
436.187
434.435
432.447
430.289
428.004
425.547
422.815
419.802
416.54
413.004
409.088
404.674
399.741
394.269
388.256
381.639
374.31
366.289
357.471
347.798
337.226
325.61
313.033
299.42
284.649
268.624
252.867
240.595
231.373
223.986
217.459
211.22
204.992
198.711
192.357
185.907
179.416
173.042
167.482
163.271
160.24
157.966
156.107
154.456
152.911
151.437
150.038
148.788
147.799
147.094
146.605
146.245
145.955
145.7
145.468
145.254
145.065
144.914
144.805
144.732
144.68
144.639
144.605
144.574
144.546
144.521
144.498
144.48
144.465
144.455
144.448
144.444
144.441
144.438
144.436
144.433
144.431
144.43
144.428
144.423
144.4
144.4
144.685
144.72
144.758
144.801
144.847
144.897
144.952
145.013
145.085
145.17
145.271
145.389
145.523
145.675
145.843
146.026
146.224
146.439
146.678
146.958
147.296
147.706
148.192
148.754
149.388
150.089
150.85
151.667
152.543
153.504
154.637
156.051
157.802
159.89
162.281
164.927
167.78
170.796
173.94
177.192
180.603
184.478
189.414
195.609
202.901
211.008
219.661
228.638
237.762
246.922
256.047
265.123
274.374
285.829
301.92
320.967
341.072
361.05
380.165
397.922
414.126
428.796
441.809
453.098
463.013
471.62
479.054
485.474
490.929
495.415
498.906
501.413
503.142
504.093
504.122
503.879
503.361
502.694
501.976
501.278
500.639
499.992
499.313
498.593
497.767
496.837
495.795
494.644
493.471
492.283
491.058
489.798
488.534
487.347
486.24
485.132
484
482.924
481.913
480.844
479.859
478.926
477.992
477.117
476.334
475.567
474.767
473.971
473.214
472.475
471.695
470.862
470.059
469.218
468.328
467.39
466.415
465.487
464.516
463.467
462.296
461.095
459.824
458.401
456.956
455.467
453.894
452.227
450.417
448.256
445.67
442.873
439.672
435.782
431.34
426.294
420.494
413.856
406.252
397.43
387.216
375.413
361.808
346.736
330.071
311.276
290.604
268.248
248.138
233.593
223.067
214.575
206.897
199.413
191.883
184.304
176.775
169.832
164.485
160.807
158.238
156.25
154.531
152.943
151.447
150.039
148.776
147.779
147.091
146.635
146.311
146.052
145.825
145.616
145.423
145.249
145.095
144.965
144.863
144.793
144.749
144.721
144.699
144.681
144.665
144.65
144.637
144.625
144.615
144.582
145.786
145.958
146.149
146.357
146.583
146.827
147.094
147.396
147.752
148.177
148.681
149.268
149.935
150.679
151.496
152.38
153.328
154.349
155.482
156.827
158.481
160.487
162.842
165.512
168.458
171.635
175.007
178.544
182.242
186.205
190.871
196.713
203.782
211.859
220.663
229.941
239.482
249.122
258.743
268.292
277.827
288.146
302.339
319.637
338.308
357.133
375.421
392.742
408.809
423.586
437.127
449.295
460.165
469.846
478.223
485.6
492.285
498.311
503.506
507.756
511.16
513.775
515.557
516.673
517.168
517.157
517.119
517.207
517.463
517.775
517.972
517.961
517.852
517.526
516.905
516.013
514.912
513.664
512.384
511.057
509.689
508.453
507.349
506.055
504.728
503.607
502.476
501.234
500.063
498.937
497.706
496.463
495.243
494.032
492.864
491.75
490.637
489.548
488.483
487.429
486.425
485.46
484.503
483.582
482.728
481.949
481.194
480.41
479.641
478.896
478.176
477.505
476.762
475.933
475.158
474.408
473.729
472.954
472.045
471.212
470.465
469.628
468.584
467.58
466.66
465.704
464.73
463.653
462.481
461.355
460.27
459.098
457.725
456.514
455.325
453.974
452.575
451.001
449.217
447.14
444.84
442.472
440.125
437.636
434.584
431.169
426.884
421.06
413.718
404.847
394.157
381.415
366.561
349.253
329.336
307.148
282.69
257.464
238.584
225.813
216.354
208.224
200.442
192.695
185.011
177.467
170.406
164.874
161.197
158.76
156.941
155.396
153.977
152.638
151.381
150.231
149.207
148.329
147.63
147.156
146.868
146.683
146.545
146.427
146.321
146.224
146.138
146.062
145.994
145.773
150.898
151.704
152.588
153.546
154.576
155.679
156.878
158.244
159.877
161.844
164.162
166.814
169.769
172.991
176.441
180.087
183.908
187.921
192.282
197.48
203.831
211.301
219.681
228.735
238.251
248.048
257.983
267.957
277.947
288.098
300.066
315.619
333.43
352.028
370.439
388.11
404.708
420.02
434.01
446.663
457.936
467.921
476.47
483.884
490.393
496.148
501.277
505.75
509.535
512.706
515.243
517.121
518.45
519.306
519.909
520.521
521.19
521.909
522.753
523.606
524.337
524.87
525.179
525.196
525.06
524.688
524.147
523.579
523.106
522.638
522.193
521.744
521.262
520.708
520.056
519.287
518.362
517.295
516.213
515.032
513.771
512.57
511.436
510.046
508.614
507.444
506.304
505.078
503.964
502.929
501.79
500.627
499.489
498.34
497.192
496.102
495.022
493.933
492.852
491.78
490.731
489.719
488.708
487.715
486.772
485.917
485.098
484.251
483.412
482.601
481.838
481.151
480.38
479.527
478.737
477.974
477.301
476.503
475.549
474.663
473.867
473.004
471.906
470.83
469.859
468.926
467.895
466.707
465.557
464.513
463.407
462.321
461.3
460.269
459.3
458.352
457.386
456.431
455.403
454.402
453.455
452.262
450.99
449.648
448.325
447.052
445.792
445.093
444.386
443.331
441.843
440.281
438.615
436.609
434.155
430.549
425.241
418.46
410.03
399.547
386.767
371.713
353.989
333.721
311.682
287.829
262.674
242.232
229.169
220.166
212.753
205.858
199.117
192.464
185.988
179.866
174.266
169.313
165.231
162.479
160.865
159.819
159.011
158.315
157.684
157.107
156.6
156.149
155.772
154.479
179.406
183.141
187.06
191.16
195.516
200.437
206.318
213.245
221.094
229.675
238.798
248.293
258.018
267.857
277.738
287.676
297.944
310.629
326.194
343.372
361.019
378.42
395.159
410.939
425.593
439.092
451.372
462.413
472.14
480.493
487.789
494.179
499.732
504.559
508.709
512.213
515.117
517.426
519.151
520.336
521.167
521.815
522.378
522.975
523.595
524.186
524.831
525.492
526.054
526.528
526.863
526.906
526.875
526.837
526.83
526.879
527.026
527.18
527.378
527.547
527.561
527.495
527.31
526.985
526.532
526.009
525.477
524.939
524.389
523.826
523.247
522.645
522.019
521.341
520.551
519.664
518.77
517.709
516.535
515.44
514.345
512.972
511.521
510.352
509.217
507.979
506.883
505.909
504.84
503.753
502.702
501.637
500.534
499.465
498.437
497.368
496.278
495.204
494.154
493.136
492.123
491.113
490.13
489.221
488.346
487.468
486.58
485.713
484.915
484.202
483.413
482.549
481.733
480.945
480.261
479.437
478.473
477.553
476.726
475.886
474.793
473.696
472.689
471.743
470.645
469.371
468.202
467.095
465.883
464.744
463.708
462.644
461.647
460.726
459.827
458.987
458.13
457.272
456.379
455.313
454.096
453.019
451.988
450.907
450.036
449.421
449.024
448.652
448.446
448.133
447.525
446.808
446.234
445.839
445.73
445.521
445.078
444.602
444.148
443.423
442.203
440.478
437.444
432.418
425.901
418.167
408.934
397.961
385.21
370.895
355.237
338.29
320.274
301.763
283.382
265.796
249.834
238.607
232.471
228.429
225.166
222.3
219.686
217.255
215.163
213.247
211.811
206.697
261.815
271.315
280.881
290.494
300.257
311.187
324.735
340.094
356.259
372.51
388.389
403.595
417.923
431.262
443.602
454.877
465.097
474.116
481.986
488.889
494.998
500.412
505.101
509.118
512.599
515.562
517.976
519.87
521.299
522.41
523.33
524.149
524.953
525.702
526.328
526.899
527.408
527.825
528.175
528.334
528.309
528.217
528.111
528.084
528.1
528.17
528.344
528.539
528.734
528.954
529.122
529.144
529.129
529.077
528.984
528.942
528.94
528.951
528.983
528.999
528.975
528.896
528.74
528.486
528.128
527.691
527.208
526.683
526.117
525.516
524.889
524.257
523.627
522.958
522.201
521.44
520.689
519.759
518.686
517.733
516.75
515.486
514.112
512.989
511.887
510.661
509.582
508.658
507.658
506.635
505.659
504.698
503.676
502.632
501.661
500.671
499.604
498.523
497.481
496.478
495.466
494.435
493.418
492.462
491.544
490.627
489.702
488.787
487.939
487.182
486.393
485.506
484.65
483.825
483.113
482.266
481.291
480.336
479.479
478.673
477.638
476.539
475.483
474.525
473.401
472.131
470.962
469.821
468.552
467.327
466.215
465.077