/*--------------------------------*- C++ -*----------------------------------*\
| =========                 |                                                 |
| \\      /  F ield         | OpenFOAM: The Open Source CFD Toolbox           |
|  \\    /   O peration     | Version:  v1706                                 |
|   \\  /    A nd           | Web:      www.OpenFOAM.com                      |
|    \\/     M anipulation  |                                                 |
\*---------------------------------------------------------------------------*/
FoamFile
{
    version     2.0;
    format      ascii;
    class       volVectorField;
    location    "3.8e-05";
    object      U;
}
// * * * * * * * * * * * * * * * * * * * * * * * * * * * * * * * * * * * * * //

dimensions      [0 1 -1 0 0 0 0];


internalField   nonuniform List<vector> 
30104
(
(1760 -6.48893e-11 2.02122e-15)
(1760 -6.46389e-11 5.7578e-15)
(1760 -6.47307e-11 4.85788e-15)
(1760 -6.47301e-11 3.27789e-15)
(1760 -6.42522e-11 5.08014e-15)
(1760 -6.42222e-11 3.66134e-15)
(1760 -6.4461e-11 8.11679e-16)
(1760 -6.48602e-11 1.09558e-15)
(1760 -6.52258e-11 4.48366e-15)
(1760 -6.5391e-11 6.34792e-15)
(1760 -6.55133e-11 4.34354e-15)
(1760 -6.52402e-11 2.95756e-15)
(1760 -6.52389e-11 8.85085e-16)
(1760 -6.55885e-11 3.10295e-15)
(1760 -6.57671e-11 4.92075e-15)
(1760 -6.61862e-11 5.13924e-15)
(1760 -6.60941e-11 4.54378e-15)
(1760 -6.93338e-11 1.37026e-15)
(1760 -6.36909e-11 3.76739e-15)
(1760 -5.75904e-11 3.19137e-15)
(1760 -5.24759e-11 2.79115e-15)
(1760 -4.33666e-11 2.47335e-15)
(1760 -3.58699e-11 2.51766e-15)
(1760 -2.8931e-11 1.47399e-15)
(1760 -2.33134e-11 3.17659e-15)
(1760 -2.19391e-11 3.10562e-15)
(1760 -2.02983e-11 1.75109e-15)
(1760 -1.69666e-11 2.26317e-15)
(1760 -1.32896e-11 1.66043e-15)
(1760 -7.86538e-12 4.92508e-15)
(1760 -4.43211e-12 3.07242e-15)
(1760 -4.40334e-12 6.60791e-16)
(1760 -6.88004e-12 1.67767e-15)
(1760 -1.14556e-11 2.13353e-15)
(1760 -1.59943e-11 2.16349e-15)
(1760 -2.22844e-11 4.19308e-15)
(1760 -3.20927e-11 1.3858e-15)
(1760 -4.54713e-11 3.80999e-15)
(1760 -6.02844e-11 4.67009e-15)
(1760 -7.28498e-11 1.71659e-15)
(1760 -8.47145e-11 1.96965e-15)
(1760 -9.46768e-11 1.78986e-15)
(1760 -1.05664e-10 2.3002e-15)
(1760 -1.15238e-10 2.10497e-15)
(1760 -1.21836e-10 2.52134e-15)
(1760 -1.29841e-10 2.4899e-15)
(1760 -1.37702e-10 3.14395e-15)
(1760 -1.47204e-10 8.86658e-16)
(1760 -1.53195e-10 3.32247e-15)
(1760 -1.54634e-10 3.8856e-15)
(1760 -1.52464e-10 2.43914e-15)
(1760 -1.46315e-10 1.36934e-15)
(1760 -1.31668e-10 7.74185e-16)
(1760 -1.08185e-10 4.03281e-15)
(1760 -9.24116e-11 1.13234e-15)
(1760 -8.26346e-11 2.02992e-15)
(1760 -5.63202e-11 2.73552e-15)
(1760 -2.45211e-11 1.35061e-15)
(1760 1.41139e-11 2.21483e-15)
(1760 3.66167e-11 1.47522e-15)
(1760 6.11101e-11 3.18089e-15)
(1760 8.04854e-11 3.4548e-15)
(1760 1.00608e-10 1.65056e-15)
(1760 1.27563e-10 2.0589e-15)
(1760 1.54983e-10 2.03432e-15)
(1760 1.63831e-10 2.69658e-15)
(1760 1.5642e-10 -6.19454e-17)
(1760 1.46943e-10 4.85211e-15)
(1760 1.306e-10 2.14235e-15)
(1760 1.11857e-10 6.45418e-16)
(1760 7.9824e-11 1.22216e-15)
(1760 2.9644e-11 3.49294e-15)
(1760 -4.03464e-11 -5.00204e-16)
(1760 -1.0341e-10 2.72389e-15)
(1760 -1.36212e-10 2.37151e-15)
(1760 -1.58832e-10 1.53325e-15)
(1760 -1.82477e-10 9.54633e-16)
(1760 -2.08476e-10 3.94501e-16)
(1760 -2.35926e-10 2.82899e-15)
(1760 -2.65278e-10 2.53491e-15)
(1760 -3.00406e-10 1.48741e-15)
(1760 -3.40116e-10 3.71188e-15)
(1760 -3.8813e-10 2.7823e-15)
(1760 -4.4613e-10 2.20692e-15)
(1760 -4.27909e-10 3.28731e-15)
(1760 -3.76227e-10 2.5929e-15)
(1760 -3.0542e-10 3.03151e-15)
(1760 -2.41107e-10 2.5897e-15)
(1760 -1.63745e-10 2.76194e-15)
(1760 -5.37838e-13 3.30977e-15)
(1760 2.91033e-10 1.91077e-15)
(1760 3.93493e-10 4.77364e-15)
(1760 4.35125e-10 4.89762e-15)
(1760 4.916e-10 4.61197e-15)
(1760 5.43956e-10 1.3462e-15)
(1760 5.81774e-10 6.87156e-16)
(1760 6.20284e-10 3.79962e-15)
(1760 6.75928e-10 1.89868e-15)
(1760 7.29066e-10 3.21291e-15)
(1760 7.63339e-10 2.12038e-15)
(1760 7.93309e-10 1.74958e-15)
(1760 8.37912e-10 5.16851e-15)
(1760 8.9293e-10 5.34814e-15)
(1760 9.39068e-10 3.9159e-15)
(1760 9.83625e-10 2.70759e-15)
(1760 1.04017e-09 3.13683e-15)
(1760 1.0904e-09 4.37853e-15)
(1760 1.12691e-09 4.05948e-15)
(1760 1.15906e-09 4.18989e-15)
(1760 1.19464e-09 5.14232e-15)
(1760 1.21238e-09 4.59617e-15)
(1760 1.21853e-09 9.88952e-16)
(1760 1.21687e-09 3.93277e-15)
(1760 1.2078e-09 2.10777e-15)
(1760 1.19534e-09 5.59108e-16)
(1760 1.17728e-09 3.84056e-15)
(1760 1.15959e-09 3.39355e-15)
(1760 1.13013e-09 3.4755e-15)
(1760 1.09639e-09 3.59282e-15)
(1760 1.05688e-09 2.65638e-15)
(1760 1.02613e-09 2.99137e-15)
(1760 9.95223e-10 2.62508e-15)
(1760 9.66302e-10 3.7181e-15)
(1760 9.39667e-10 2.14625e-15)
(1760 9.02114e-10 1.61789e-15)
(1760 8.67325e-10 3.98588e-15)
(1760 8.29712e-10 4.52723e-15)
(1760 7.96064e-10 3.62859e-15)
(1760 7.6051e-10 4.20065e-15)
(1760 7.28388e-10 3.58955e-15)
(1760 7.01251e-10 3.70274e-15)
(1760 6.62734e-10 2.12902e-15)
(1760 6.36056e-10 2.72292e-15)
(1760 6.06674e-10 3.59506e-15)
(1760 5.77529e-10 3.67027e-15)
(1760 5.46108e-10 3.73039e-15)
(1760 5.13457e-10 2.98915e-15)
(1760 4.80404e-10 3.86892e-15)
(1760 4.5e-10 1.74856e-15)
(1760 4.2366e-10 3.79872e-15)
(1760 3.81294e-10 4.48149e-15)
(1760 3.44243e-10 1.78007e-15)
(1760 3.13394e-10 1.13915e-15)
(1760 2.79382e-10 1.82771e-15)
(1760 2.5629e-10 2.23264e-15)
(1760 2.08184e-10 2.52022e-15)
(1760 1.48037e-11 2.00422e-15)
(1760 -1.87282e-10 1.504e-15)
(1760 -3.33729e-10 2.22997e-15)
(1760 -3.92634e-10 1.50847e-15)
(1760 -4.37207e-10 1.91814e-15)
(1760 -4.68533e-10 4.88986e-16)
(1760 -4.87544e-10 1.66152e-15)
(1760 -5.06272e-10 4.70352e-16)
(1760 -5.08488e-10 1.21381e-15)
(1760 -5.00581e-10 1.13513e-15)
(1760 -4.79621e-10 1.78312e-16)
(1760 -4.44488e-10 1.5583e-15)
(1760 -3.9797e-10 2.32147e-15)
(1760 -3.50588e-10 1.61963e-15)
(1760 -3.05722e-10 1.45567e-15)
(1760 -2.59481e-10 4.4054e-16)
(1760 -1.95563e-10 1.28374e-15)
(1760 -1.39148e-10 2.73008e-15)
(1760 -5.12249e-11 2.29795e-15)
(1760 3.80008e-11 6.14536e-16)
(1760 1.23783e-10 -5.5946e-16)
(1760 1.85656e-10 2.4973e-15)
(1760 2.15946e-10 8.81344e-16)
(1760 2.1465e-10 1.9128e-15)
(1760 2.07152e-10 1.74049e-15)
(1760 1.83581e-10 2.03472e-15)
(1760 1.47273e-10 2.85598e-15)
(1760 8.88953e-11 1.91022e-15)
(1760 3.22938e-11 2.31536e-15)
(1760 -4.2061e-11 1.51698e-15)
(1760 -1.08946e-10 1.29026e-15)
(1760 -1.5524e-10 6.49019e-16)
(1760 -1.85848e-10 1.84099e-15)
(1760 -1.93109e-10 2.79928e-16)
(1760 -1.87864e-10 1.31181e-15)
(1760 -1.71929e-10 1.15386e-15)
(1760 -1.50644e-10 1.25411e-15)
(1760 -1.12641e-10 2.95397e-15)
(1760 -6.53413e-11 8.64449e-16)
(1760 -1.77064e-11 1.29926e-15)
(1760 1.9859e-11 -5.87425e-16)
(1760 4.14528e-11 1.31612e-15)
(1760 4.38972e-11 1.44444e-15)
(1760 3.80058e-11 1.6565e-15)
(1760 1.26806e-11 1.01909e-15)
(1760 -1.02948e-11 1.08197e-15)
(1760 -4.60975e-11 4.69497e-16)
(1760 -8.46602e-11 1.99361e-15)
(1760 -1.12407e-10 1.4995e-15)
(1760 -1.28579e-10 4.47412e-16)
(1760 -1.26655e-10 1.07282e-15)
(1760 -1.19994e-10 7.23067e-17)
(1760 -1.09158e-10 8.34981e-16)
(1760 -9.37265e-11 1.35048e-15)
(1760 -6.94808e-11 1.21255e-15)
(1760 -4.24034e-11 5.43137e-16)
(1760 -1.9458e-11 1.59269e-15)
(1760 -7.59067e-12 6.58489e-16)
(1760 -1.25039e-12 1.68308e-15)
(1760 -1.7696e-12 1.80516e-15)
(1760 -4.71077e-12 1.2731e-15)
(1760 -7.03303e-12 1.17023e-15)
(1760 -1.14013e-11 1.22703e-15)
(1760 -2.0741e-11 1.09668e-15)
(1760 -1.96659e-10 1.30837e-14)
(1760 -1.9747e-10 1.42674e-14)
(1760 -1.9705e-10 1.09785e-14)
(1760 -1.97187e-10 1.08245e-14)
(1760 -1.96978e-10 1.18066e-14)
(1760 -1.96689e-10 1.05994e-14)
(1760 -1.9673e-10 8.93126e-15)
(1760 -1.95923e-10 1.22995e-14)
(1760 -1.96158e-10 1.48212e-14)
(1760 -1.95287e-10 1.15222e-14)
(1760 -1.95173e-10 1.2144e-14)
(1760 -1.95157e-10 1.42964e-14)
(1760 -1.94099e-10 1.5398e-14)
(1760 -1.94937e-10 1.48733e-14)
(1760 -1.95038e-10 1.60397e-14)
(1760 -1.93719e-10 1.44311e-14)
(1760 -1.9415e-10 1.12545e-14)
(1760 -1.76973e-10 4.13275e-15)
(1760 -1.88922e-10 6.85312e-15)
(1760 -2.03266e-10 1.01247e-14)
(1760 -2.1549e-10 9.94431e-15)
(1760 -2.31053e-10 9.16066e-15)
(1760 -2.44582e-10 9.64779e-15)
(1760 -2.59107e-10 8.00315e-15)
(1760 -2.67481e-10 9.35652e-15)
(1760 -2.75142e-10 9.94846e-15)
(1760 -2.79552e-10 7.39362e-15)
(1760 -2.88347e-10 5.13785e-15)
(1760 -2.99503e-10 6.96057e-15)
(1760 -3.10767e-10 7.15877e-15)
(1760 -3.17603e-10 5.97333e-15)
(1760 -3.19158e-10 4.5294e-15)
(1760 -3.12965e-10 4.6739e-15)
(1760 -3.03817e-10 5.61284e-15)
(1760 -2.91817e-10 6.46454e-15)
(1760 -2.68276e-10 9.8189e-15)
(1760 -2.40909e-10 8.92393e-15)
(1760 -2.13382e-10 9.52611e-15)
(1760 -1.67969e-10 9.50485e-15)
(1760 -1.1914e-10 8.89814e-15)
(1760 -8.52678e-11 8.84336e-15)
(1760 -5.53213e-11 8.0801e-15)
(1760 -2.70003e-11 7.79487e-15)
(1760 -3.35628e-12 7.58003e-15)
(1760 2.52941e-11 7.19598e-15)
(1760 5.21752e-11 6.98492e-15)
(1760 8.26224e-11 7.45661e-15)
(1760 1.10674e-10 6.41224e-15)
(1760 1.20494e-10 8.59583e-15)
(1760 1.16376e-10 8.62977e-15)
(1760 9.26137e-11 8.06303e-15)
(1760 5.61504e-11 5.29475e-15)
(1760 -1.03581e-11 7.37842e-15)
(1760 -9.46513e-11 8.76474e-15)
(1760 -1.29823e-10 6.33512e-15)
(1760 -1.58568e-10 6.84841e-15)
(1760 -1.90597e-10 8.73525e-15)
(1760 -2.60068e-10 8.01616e-15)
(1760 -3.29808e-10 1.02846e-14)
(1760 -3.80719e-10 7.91275e-15)
(1760 -4.25822e-10 6.79964e-15)
(1760 -4.70458e-10 1.05097e-14)
(1760 -5.15862e-10 8.47856e-15)
(1760 -5.58368e-10 5.29533e-15)
(1760 -6.10745e-10 5.34511e-15)
(1760 -6.55294e-10 7.81649e-15)
(1760 -6.70285e-10 5.14836e-15)
(1760 -6.44416e-10 7.48357e-15)
(1760 -5.99257e-10 7.78472e-15)
(1760 -5.58267e-10 8.0138e-15)
(1760 -4.69188e-10 7.88916e-15)
(1760 -3.44996e-10 6.00873e-15)
(1760 -1.63416e-10 6.48722e-15)
(1760 2.87949e-10 9.1832e-15)
(1760 4.59454e-10 9.06518e-15)
(1760 5.61378e-10 1.1292e-14)
(1760 6.71701e-10 9.48671e-15)
(1760 7.77601e-10 7.70451e-15)
(1760 8.91575e-10 8.57322e-15)
(1760 1.03907e-09 8.70783e-15)
(1760 1.20294e-09 8.42435e-15)
(1760 1.36589e-09 1.02848e-14)
(1760 1.55189e-09 1.02487e-14)
(1760 1.75268e-09 8.21685e-15)
(1760 1.92131e-09 7.37489e-15)
(1760 2.03618e-09 9.33595e-15)
(1760 2.15074e-09 8.41841e-15)
(1760 2.36936e-09 8.04889e-15)
(1760 2.60159e-09 7.84552e-15)
(1760 2.70044e-09 7.74878e-15)
(1760 2.81917e-09 7.24621e-15)
(1760 3.03871e-09 1.03554e-14)
(1760 3.28183e-09 8.54698e-15)
(1760 3.54571e-09 7.13186e-15)
(1760 3.80315e-09 6.06174e-15)
(1760 4.04985e-09 6.10761e-15)
(1760 4.29002e-09 6.39202e-15)
(1760 4.54181e-09 4.11752e-15)
(1760 4.78516e-09 5.40394e-15)
(1760 5.01897e-09 6.6074e-15)
(1760 5.25251e-09 7.82311e-15)
(1760 5.50672e-09 8.28453e-15)
(1760 5.79116e-09 8.03203e-15)
(1760 6.07739e-09 6.68092e-15)
(1760 6.39609e-09 6.22495e-15)
(1760 6.76424e-09 7.72317e-15)
(1760 7.11055e-09 8.08433e-15)
(1760 7.41336e-09 8.44883e-15)
(1760 7.68088e-09 8.42445e-15)
(1760 7.92593e-09 7.08103e-15)
(1760 8.1041e-09 7.37906e-15)
(1760 8.20082e-09 2.64351e-15)
(1760 8.24204e-09 7.37112e-15)
(1760 8.20111e-09 4.47335e-15)
(1760 8.10922e-09 4.80513e-15)
(1760 8.00653e-09 8.28986e-15)
(1760 7.86976e-09 5.46756e-15)
(1760 7.69108e-09 6.70283e-15)
(1760 7.51212e-09 5.48435e-15)
(1760 7.3111e-09 5.45076e-15)
(1760 7.09678e-09 7.15921e-15)
(1760 6.86951e-09 7.36052e-15)
(1760 6.64706e-09 6.82047e-15)
(1760 6.44601e-09 4.92837e-15)
(1760 6.23908e-09 6.94436e-15)
(1760 6.02261e-09 6.28845e-15)
(1760 5.81268e-09 6.30627e-15)
(1760 5.5969e-09 8.7863e-15)
(1760 5.38854e-09 1.03895e-14)
(1760 5.18065e-09 5.77452e-15)
(1760 4.98368e-09 6.82489e-15)
(1760 4.77655e-09 7.11197e-15)
(1760 4.57458e-09 5.01458e-15)
(1760 4.38401e-09 7.81423e-15)
(1760 4.18571e-09 9.267e-15)
(1760 3.98392e-09 6.9676e-15)
(1760 3.78883e-09 6.88453e-15)
(1760 3.59124e-09 5.71906e-15)
(1760 3.38527e-09 4.19281e-15)
(1760 3.18813e-09 8.45992e-15)
(1760 3.00531e-09 8.27747e-15)
(1760 2.80181e-09 5.35029e-15)
(1760 2.61214e-09 4.9762e-15)
(1760 2.40316e-09 4.85183e-15)
(1760 2.22685e-09 5.36556e-15)
(1760 1.96405e-09 4.86156e-15)
(1760 2.06441e-09 5.59203e-15)
(1760 2.1288e-09 6.69271e-15)
(1760 2.04663e-09 5.10989e-15)
(1760 1.84868e-09 5.91461e-15)
(1760 1.74535e-09 6.36089e-15)
(1760 1.61229e-09 6.98838e-15)
(1760 1.43265e-09 7.98515e-15)
(1760 1.27994e-09 6.53032e-15)
(1760 1.13846e-09 5.7975e-15)
(1760 1.00254e-09 6.43071e-15)
(1760 8.43491e-10 7.9095e-15)
(1760 7.02725e-10 7.94578e-15)
(1760 5.75335e-10 7.786e-15)
(1760 4.47023e-10 7.66772e-15)
(1760 3.56812e-10 7.17355e-15)
(1760 2.70852e-10 7.20366e-15)
(1760 8.68504e-11 6.62326e-15)
(1760 -1.64626e-10 5.39968e-15)
(1760 -5.05918e-10 6.28572e-15)
(1760 -6.54476e-10 5.27639e-15)
(1760 -7.45101e-10 4.06789e-15)
(1760 -8.03215e-10 4.0963e-15)
(1760 -7.94603e-10 4.05973e-15)
(1760 -7.3919e-10 4.90266e-15)
(1760 -6.598e-10 5.55635e-15)
(1760 -5.66801e-10 5.21845e-15)
(1760 -4.33769e-10 5.87296e-15)
(1760 -2.97137e-10 5.31868e-15)
(1760 -1.27644e-10 5.87347e-15)
(1760 6.14684e-11 6.48279e-15)
(1760 1.67541e-10 3.84675e-15)
(1760 2.08625e-10 5.59633e-15)
(1760 2.17894e-10 4.79148e-15)
(1760 1.78553e-10 4.63928e-15)
(1760 1.13136e-10 5.15021e-15)
(1760 3.12987e-11 3.89771e-15)
(1760 -4.53515e-11 3.76866e-15)
(1760 -1.66608e-10 5.75844e-15)
(1760 -2.74815e-10 6.79001e-15)
(1760 -3.44931e-10 5.03886e-15)
(1760 -3.83364e-10 4.83399e-15)
(1760 -3.96751e-10 5.13329e-15)
(1760 -3.67119e-10 1.81234e-15)
(1760 -3.2811e-10 3.51463e-15)
(1760 -2.8205e-10 4.27427e-15)
(1760 -2.14887e-10 3.15611e-15)
(1760 -1.18983e-10 3.99666e-15)
(1760 -5.24499e-11 3.885e-15)
(1760 -1.68574e-11 3.39721e-15)
(1760 -6.30402e-12 3.48594e-15)
(1760 -2.65815e-11 3.79374e-15)
(1760 -4.52238e-11 4.27104e-15)
(1760 -7.13524e-11 4.34015e-15)
(1760 -1.25218e-10 5.06042e-15)
(1760 -1.79609e-10 3.55976e-15)
(1760 -2.24359e-10 5.26855e-15)
(1760 -2.49983e-10 1.46136e-15)
(1760 -2.66306e-10 4.75653e-15)
(1760 -2.70992e-10 5.29476e-15)
(1760 -2.69255e-10 5.51965e-15)
(1760 -2.66068e-10 5.84608e-15)
(1760 -2.60631e-10 5.68097e-15)
(1760 -2.49032e-10 4.90551e-15)
(1760 -2.28528e-10 3.81121e-15)
(1760 -3.28945e-10 1.84024e-14)
(1760 -3.29031e-10 2.18028e-14)
(1760 -3.28392e-10 2.03222e-14)
(1760 -3.28912e-10 2.00217e-14)
(1760 -3.29474e-10 2.21698e-14)
(1760 -3.28525e-10 2.08175e-14)
(1760 -3.27819e-10 2.032e-14)
(1760 -3.26502e-10 2.04771e-14)
(1760 -3.25852e-10 2.08491e-14)
(1760 -3.26034e-10 2.02374e-14)
(1760 -3.25719e-10 2.03113e-14)
(1760 -3.26991e-10 2.37112e-14)
(1760 -3.26717e-10 1.75808e-14)
(1760 -3.26061e-10 1.73203e-14)
(1760 -3.27167e-10 2.27223e-14)
(1760 -3.27942e-10 2.12896e-14)
(1760 -3.02825e-10 1.24364e-14)
(1760 -2.71741e-10 1.37847e-14)
(1760 -2.44348e-10 1.35823e-14)
(1760 -2.10909e-10 1.40978e-14)
(1760 -1.96975e-10 1.41235e-14)
(1760 -1.80372e-10 1.36112e-14)
(1760 -1.6219e-10 1.17556e-14)
(1760 -1.41301e-10 1.63973e-14)
(1760 -1.25774e-10 1.30796e-14)
(1760 -1.09405e-10 1.31999e-14)
(1760 -9.20569e-11 1.454e-14)
(1760 -7.68456e-11 1.34921e-14)
(1760 -6.29695e-11 1.43408e-14)
(1760 -6.15554e-11 1.39842e-14)
(1760 -7.65082e-11 1.08738e-14)
(1760 -9.59173e-11 1.1143e-14)
(1760 -1.20092e-10 9.83856e-15)
(1760 -1.67482e-10 1.22849e-14)
(1760 -2.00343e-10 1.32993e-14)
(1760 -2.16792e-10 1.04983e-14)
(1760 -2.40183e-10 1.24705e-14)
(1760 -2.94136e-10 1.33576e-14)
(1760 -3.78077e-10 1.18239e-14)
(1760 -4.2018e-10 1.23265e-14)
(1760 -4.3603e-10 1.28245e-14)
(1760 -4.55093e-10 1.2145e-14)
(1760 -4.80057e-10 1.26476e-14)
(1760 -5.08539e-10 1.19408e-14)
(1760 -5.36267e-10 1.13428e-14)
(1760 -5.67342e-10 1.22852e-14)
(1760 -5.9704e-10 1.16462e-14)
(1760 -6.31727e-10 1.17904e-14)
(1760 -6.33005e-10 1.17942e-14)
(1760 -6.10705e-10 1.17593e-14)
(1760 -5.58468e-10 1.23683e-14)
(1760 -4.41254e-10 1.47778e-14)
(1760 -9.02413e-11 1.13825e-14)
(1760 1.19067e-10 1.38863e-14)
(1760 1.75791e-10 1.49154e-14)
(1760 2.62452e-10 1.42534e-14)
(1760 3.75946e-10 1.46554e-14)
(1760 4.78616e-10 1.68481e-14)
(1760 5.68593e-10 1.31314e-14)
(1760 6.57253e-10 1.48037e-14)
(1760 7.66837e-10 1.39699e-14)
(1760 8.84458e-10 1.44128e-14)
(1760 9.90184e-10 1.59264e-14)
(1760 1.12366e-09 1.59476e-14)
(1760 1.31338e-09 1.48158e-14)
(1760 1.47391e-09 1.32364e-14)
(1760 1.61654e-09 1.22071e-14)
(1760 1.77945e-09 1.28953e-14)
(1760 2.04576e-09 1.24903e-14)
(1760 2.40591e-09 1.1807e-14)
(1760 2.72619e-09 1.39681e-14)
(1760 2.86746e-09 1.5528e-14)
(1760 2.90003e-09 1.2791e-14)
(1760 3.18007e-09 1.28511e-14)
(1760 3.56595e-09 1.45586e-14)
(1760 3.97543e-09 1.40784e-14)
(1760 4.41724e-09 1.35485e-14)
(1760 4.92538e-09 1.30616e-14)
(1760 5.51158e-09 1.37654e-14)
(1760 6.14818e-09 1.35916e-14)
(1760 6.83493e-09 1.15102e-14)
(1760 7.57613e-09 1.08086e-14)
(1760 8.37458e-09 1.43517e-14)
(1760 9.25885e-09 1.22072e-14)
(1760 1.02755e-08 1.2317e-14)
(1760 1.148e-08 1.40947e-14)
(1760 1.28272e-08 1.17105e-14)
(1760 1.42515e-08 1.14746e-14)
(1760 1.59013e-08 1.32333e-14)
(1760 1.79418e-08 1.29978e-14)
(1760 2.02712e-08 1.10106e-14)
(1760 2.27346e-08 1.04591e-14)
(1760 2.5243e-08 1.28131e-14)
(1760 2.77123e-08 1.16953e-14)
(1760 3.00826e-08 1.08757e-14)
(1760 3.23312e-08 1.00071e-14)
(1760 3.44273e-08 1.03173e-14)
(1760 3.63608e-08 1.18517e-14)
(1760 3.82013e-08 1.25776e-14)
(1760 4.00713e-08 1.13858e-14)
(1760 4.20447e-08 1.10468e-14)
(1760 4.41365e-08 1.16812e-14)
(1760 4.62583e-08 1.03637e-14)
(1760 4.8281e-08 1.03542e-14)
(1760 5.00369e-08 9.54001e-15)
(1760 5.14188e-08 1.08688e-14)
(1760 5.2487e-08 1.27191e-14)
(1760 5.33334e-08 1.20426e-14)
(1760 5.39582e-08 9.50525e-15)
(1760 5.43136e-08 1.18436e-14)
(1760 5.44173e-08 8.77511e-15)
(1760 5.42287e-08 9.91351e-15)
(1760 5.36997e-08 9.07395e-15)
(1760 5.29048e-08 1.08899e-14)
(1760 5.19213e-08 1.0342e-14)
(1760 5.07552e-08 9.15399e-15)
(1760 4.94899e-08 9.40245e-15)
(1760 4.81833e-08 1.04841e-14)
(1760 4.68153e-08 8.67559e-15)
(1760 4.53935e-08 1.14985e-14)
(1760 4.39479e-08 1.17628e-14)
(1760 4.24797e-08 9.06817e-15)
(1760 4.10243e-08 8.17858e-15)
(1760 3.95881e-08 1.18102e-14)
(1760 3.81656e-08 1.02329e-14)
(1760 3.67701e-08 1.16473e-14)
(1760 3.5393e-08 1.17041e-14)
(1760 3.40383e-08 1.25506e-14)
(1760 3.26923e-08 9.37677e-15)
(1760 3.13598e-08 1.01733e-14)
(1760 3.00429e-08 1.04457e-14)
(1760 2.87221e-08 9.78474e-15)
(1760 2.74141e-08 9.93727e-15)
(1760 2.61021e-08 1.11312e-14)
(1760 2.47978e-08 9.93638e-15)
(1760 2.34853e-08 1.03659e-14)
(1760 2.21942e-08 1.0858e-14)
(1760 2.08945e-08 9.13964e-15)
(1760 1.96264e-08 1.00881e-14)
(1760 1.84132e-08 1.09011e-14)
(1760 1.72295e-08 9.79331e-15)
(1760 1.61089e-08 9.55802e-15)
(1760 1.49883e-08 8.21249e-15)
(1760 1.4014e-08 9.49357e-15)
(1760 1.29466e-08 7.8946e-15)
(1760 1.20406e-08 7.58434e-15)
(1760 1.12158e-08 8.96458e-15)
(1760 1.04763e-08 7.92747e-15)
(1760 9.73073e-09 1.11632e-14)
(1760 8.98048e-09 1.01496e-14)
(1760 8.1869e-09 9.6353e-15)
(1760 7.38521e-09 9.80088e-15)
(1760 6.65748e-09 9.78039e-15)
(1760 5.97256e-09 9.73667e-15)
(1760 5.3263e-09 1.12693e-14)
(1760 4.7155e-09 1.01612e-14)
(1760 4.13999e-09 9.62927e-15)
(1760 3.62242e-09 9.77755e-15)
(1760 3.09509e-09 1.00614e-14)
(1760 2.72603e-09 1.0135e-14)
(1760 2.24769e-09 8.91724e-15)
(1760 1.9182e-09 8.81147e-15)
(1760 2.01047e-09 1.0177e-14)
(1760 1.75695e-09 1.09695e-14)
(1760 1.43186e-09 1.02997e-14)
(1760 1.12862e-09 9.2933e-15)
(1760 8.70793e-10 1.06192e-14)
(1760 6.33412e-10 9.82176e-15)
(1760 3.97189e-10 1.03234e-14)
(1760 2.27437e-10 8.03566e-15)
(1760 1.1099e-10 7.9722e-15)
(1760 -1.14633e-10 9.45088e-15)
(1760 -3.49928e-10 9.17347e-15)
(1760 -6.71142e-10 1.02249e-14)
(1760 -8.24805e-10 7.33632e-15)
(1760 -8.41441e-10 7.295e-15)
(1760 -8.0498e-10 7.22787e-15)
(1760 -7.10228e-10 5.2476e-15)
(1760 -6.06044e-10 4.56446e-15)
(1760 -4.61661e-10 6.01545e-15)
(1760 -3.12328e-10 6.91431e-15)
(1760 -1.87185e-10 7.45591e-15)
(1760 -2.00436e-11 5.70283e-15)
(1760 6.24572e-11 6.84296e-15)
(1760 6.74615e-11 1.02337e-14)
(1760 3.82741e-11 8.46112e-15)
(1760 -9.02688e-12 7.12854e-15)
(1760 -8.4177e-11 8.8273e-15)
(1760 -1.57017e-10 9.08437e-15)
(1760 -2.25018e-10 7.68006e-15)
(1760 -3.33118e-10 6.17569e-15)
(1760 -4.17198e-10 5.21493e-15)
(1760 -4.60565e-10 7.05334e-15)
(1760 -4.56309e-10 6.58169e-15)
(1760 -4.45121e-10 5.43032e-15)
(1760 -4.21374e-10 4.64803e-15)
(1760 -3.83882e-10 4.90532e-15)
(1760 -3.13364e-10 5.24716e-15)
(1760 -2.37901e-10 5.87999e-15)
(1760 -1.93983e-10 5.82841e-15)
(1760 -1.59857e-10 7.58344e-15)
(1760 -1.4879e-10 9.09606e-15)
(1760 -1.39261e-10 6.93497e-15)
(1760 -1.39095e-10 6.42761e-15)
(1760 -1.47252e-10 7.76683e-15)
(1760 -1.59443e-10 6.35531e-15)
(1760 -1.76775e-10 5.75043e-15)
(1760 -1.95327e-10 6.92461e-15)
(1760 -2.05363e-10 7.40026e-15)
(1760 -4.66789e-10 2.8073e-14)
(1760 -4.68187e-10 2.66335e-14)
(1760 -4.68297e-10 2.50301e-14)
(1760 -4.68363e-10 2.91707e-14)
(1760 -4.68713e-10 2.89991e-14)
(1760 -4.69988e-10 2.45709e-14)
(1760 -4.69741e-10 2.70508e-14)
(1760 -4.67415e-10 2.70979e-14)
(1760 -4.63216e-10 2.57523e-14)
(1760 -4.5975e-10 2.70718e-14)
(1760 -4.54867e-10 3.10319e-14)
(1760 -4.52158e-10 2.95002e-14)
(1760 -4.50684e-10 2.73813e-14)
(1760 -4.48373e-10 2.71609e-14)
(1760 -4.47239e-10 2.74104e-14)
(1760 -4.4398e-10 2.68694e-14)
(1760 -3.91402e-10 1.87908e-14)
(1760 -4.28353e-10 1.76013e-14)
(1760 -5.10627e-10 1.8312e-14)
(1760 -5.58381e-10 1.78093e-14)
(1760 -5.74238e-10 1.9698e-14)
(1760 -5.92592e-10 2.08464e-14)
(1760 -6.15904e-10 1.71871e-14)
(1760 -6.30439e-10 1.74586e-14)
(1760 -6.52276e-10 1.98962e-14)
(1760 -6.72592e-10 2.05281e-14)
(1760 -6.99885e-10 1.85923e-14)
(1760 -7.26659e-10 1.92644e-14)
(1760 -7.51057e-10 1.72358e-14)
(1760 -7.70753e-10 1.76042e-14)
(1760 -7.57232e-10 1.91549e-14)
(1760 -7.30817e-10 1.79936e-14)
(1760 -6.75528e-10 1.77728e-14)
(1760 -5.21706e-10 1.70421e-14)
(1760 -2.80466e-10 1.71658e-14)
(1760 -2.46412e-10 1.89428e-14)
(1760 -1.50092e-10 2.03908e-14)
(1760 -2.83161e-11 2.13345e-14)
(1760 2.03848e-10 2.07372e-14)
(1760 3.5115e-10 1.93232e-14)
(1760 4.64266e-10 1.78337e-14)
(1760 5.7229e-10 1.84315e-14)
(1760 6.79719e-10 1.91879e-14)
(1760 7.8133e-10 1.87561e-14)
(1760 9.05023e-10 2.18738e-14)
(1760 1.05041e-09 2.03853e-14)
(1760 1.20973e-09 1.74339e-14)
(1760 1.38823e-09 2.01391e-14)
(1760 1.54424e-09 1.84156e-14)
(1760 1.73684e-09 1.85742e-14)
(1760 1.90777e-09 1.98776e-14)
(1760 1.96963e-09 1.96874e-14)
(1760 1.88802e-09 1.92205e-14)
(1760 1.96208e-09 2.03955e-14)
(1760 2.2654e-09 1.86093e-14)
(1760 2.64328e-09 1.6876e-14)
(1760 3.04885e-09 1.9112e-14)
(1760 3.45305e-09 1.79879e-14)
(1760 3.86742e-09 1.83983e-14)
(1760 4.31723e-09 1.94253e-14)
(1760 4.81392e-09 1.88575e-14)
(1760 5.36279e-09 1.85892e-14)
(1760 5.94688e-09 1.83188e-14)
(1760 6.62486e-09 1.77846e-14)
(1760 7.39438e-09 1.89468e-14)
(1760 8.24577e-09 1.59863e-14)
(1760 9.23733e-09 1.56625e-14)
(1760 1.03541e-08 1.84104e-14)
(1760 1.15113e-08 1.78546e-14)
(1760 1.26385e-08 1.71354e-14)
(1760 1.37792e-08 1.79974e-14)
(1760 1.51443e-08 1.82059e-14)
(1760 1.69798e-08 1.64246e-14)
(1760 1.91492e-08 1.71413e-14)
(1760 2.15156e-08 1.83428e-14)
(1760 2.42278e-08 1.83332e-14)
(1760 2.74665e-08 1.84045e-14)
(1760 3.13538e-08 1.75368e-14)
(1760 3.59061e-08 1.66182e-14)
(1760 4.10804e-08 1.72952e-14)
(1760 4.67973e-08 1.46674e-14)
(1760 5.29543e-08 1.48447e-14)
(1760 5.95625e-08 1.8639e-14)
(1760 6.678e-08 1.70951e-14)
(1760 7.48251e-08 1.68835e-14)
(1760 8.37731e-08 1.71988e-14)
(1760 9.36747e-08 1.65079e-14)
(1760 1.04597e-07 1.59164e-14)
(1760 1.16583e-07 1.63138e-14)
(1760 1.29423e-07 1.59834e-14)
(1760 1.42885e-07 1.62525e-14)
(1760 1.56915e-07 1.53077e-14)
(1760 1.71426e-07 1.61972e-14)
(1760 1.86192e-07 1.53111e-14)
(1760 2.00897e-07 1.58475e-14)
(1760 2.15227e-07 1.56195e-14)
(1760 2.29008e-07 1.72594e-14)
(1760 2.42318e-07 1.54569e-14)
(1760 2.55468e-07 1.53049e-14)
(1760 2.68992e-07 1.49516e-14)
(1760 2.83528e-07 1.62249e-14)
(1760 2.99752e-07 1.58828e-14)
(1760 3.18248e-07 1.45307e-14)
(1760 3.39104e-07 1.4247e-14)
(1760 3.61487e-07 1.29286e-14)
(1760 3.83848e-07 1.51551e-14)
(1760 4.04474e-07 1.66714e-14)
(1760 4.22132e-07 1.52654e-14)
(1760 4.36119e-07 1.4886e-14)
(1760 4.45911e-07 1.57875e-14)
(1760 4.51647e-07 1.40942e-14)
(1760 4.5389e-07 1.39847e-14)
(1760 4.52725e-07 1.31667e-14)
(1760 4.48543e-07 1.42024e-14)
(1760 4.42098e-07 1.50101e-14)
(1760 4.33919e-07 1.32028e-14)
(1760 4.24357e-07 1.37737e-14)
(1760 4.13733e-07 1.4169e-14)
(1760 4.02359e-07 1.31994e-14)
(1760 3.90568e-07 1.47365e-14)
(1760 3.78614e-07 1.39634e-14)
(1760 3.66591e-07 1.29588e-14)
(1760 3.54558e-07 1.41668e-14)
(1760 3.42527e-07 1.47492e-14)
(1760 3.30542e-07 1.36365e-14)
(1760 3.18652e-07 1.26414e-14)
(1760 3.06886e-07 1.39163e-14)
(1760 2.95211e-07 1.67333e-14)
(1760 2.83638e-07 1.34996e-14)
(1760 2.72116e-07 1.31004e-14)
(1760 2.60606e-07 1.38154e-14)
(1760 2.49071e-07 1.19194e-14)
(1760 2.37499e-07 1.29333e-14)
(1760 2.2584e-07 1.34548e-14)
(1760 2.14095e-07 1.40499e-14)
(1760 2.02264e-07 1.72233e-14)
(1760 1.90368e-07 1.48127e-14)
(1760 1.78384e-07 1.26556e-14)
(1760 1.66322e-07 1.36239e-14)
(1760 1.54187e-07 1.46359e-14)
(1760 1.41984e-07 1.32873e-14)
(1760 1.29877e-07 1.4025e-14)
(1760 1.17878e-07 1.17325e-14)
(1760 1.0632e-07 1.18772e-14)
(1760 9.5226e-08 1.456e-14)
(1760 8.49257e-08 1.26087e-14)
(1760 7.5707e-08 1.27737e-14)
(1760 6.76702e-08 1.18735e-14)
(1760 6.07928e-08 1.22445e-14)
(1760 5.48087e-08 1.21692e-14)
(1760 4.94185e-08 1.25744e-14)
(1760 4.44883e-08 1.21566e-14)
(1760 3.99364e-08 1.37101e-14)
(1760 3.56164e-08 1.37468e-14)
(1760 3.15263e-08 1.23292e-14)
(1760 2.76376e-08 1.27996e-14)
(1760 2.40175e-08 1.1144e-14)
(1760 2.07382e-08 1.20877e-14)
(1760 1.76969e-08 1.25776e-14)
(1760 1.51953e-08 1.31968e-14)
(1760 1.27747e-08 1.11229e-14)
(1760 1.09275e-08 1.39762e-14)
(1760 9.60815e-09 1.29208e-14)
(1760 8.50894e-09 1.35135e-14)
(1760 7.43275e-09 1.32886e-14)
(1760 6.34611e-09 1.23119e-14)
(1760 5.35162e-09 1.44391e-14)
(1760 4.46749e-09 1.15559e-14)
(1760 3.58103e-09 1.24423e-14)
(1760 2.94612e-09 1.08637e-14)
(1760 2.26263e-09 1.19854e-14)
(1760 1.67696e-09 1.10102e-14)
(1760 1.76004e-09 1.25185e-14)
(1760 1.43561e-09 1.36834e-14)
(1760 1.08676e-09 1.32814e-14)
(1760 8.1412e-10 1.23641e-14)
(1760 5.33728e-10 1.34457e-14)
(1760 3.062e-10 1.27133e-14)
(1760 1.59256e-10 1.31151e-14)
(1760 -7.17706e-11 1.11231e-14)
(1760 -2.97876e-10 1.12136e-14)
(1760 -6.36987e-10 1.22435e-14)
(1760 -8.27378e-10 9.8038e-15)
(1760 -8.97992e-10 9.24506e-15)
(1760 -8.9272e-10 9.59182e-15)
(1760 -8.22117e-10 7.12645e-15)
(1760 -7.19477e-10 1.10556e-14)
(1760 -5.74013e-10 9.4705e-15)
(1760 -4.88662e-10 9.61551e-15)
(1760 -3.33559e-10 1.15643e-14)
(1760 -1.55148e-10 1.10284e-14)
(1760 -8.59509e-11 1.00411e-14)
(1760 -6.40209e-11 1.11114e-14)
(1760 -7.32461e-11 1.02445e-14)
(1760 -1.12613e-10 9.45103e-15)
(1760 -1.64856e-10 9.0642e-15)
(1760 -2.48909e-10 9.73798e-15)
(1760 -3.46039e-10 9.55954e-15)
(1760 -4.30183e-10 8.32172e-15)
(1760 -4.80923e-10 8.59729e-15)
(1760 -5.2269e-10 9.65629e-15)
(1760 -5.67947e-10 8.94876e-15)
(1760 -5.7879e-10 8.36395e-15)
(1760 -5.73818e-10 8.33224e-15)
(1760 -5.58778e-10 9.07337e-15)
(1760 -5.43194e-10 9.97746e-15)
(1760 -5.23237e-10 9.67212e-15)
(1760 -5.04631e-10 9.08569e-15)
(1760 -4.89913e-10 8.36172e-15)
(1760 -5.93241e-10 3.37296e-14)
(1760 -5.9076e-10 3.48553e-14)
(1760 -5.88913e-10 3.88553e-14)
(1760 -5.87649e-10 3.90106e-14)
(1760 -5.86144e-10 3.50518e-14)
(1760 -5.87155e-10 3.43813e-14)
(1760 -5.90106e-10 3.62511e-14)
(1760 -5.95038e-10 3.62889e-14)
(1760 -5.99879e-10 3.5054e-14)
(1760 -6.03462e-10 3.79699e-14)
(1760 -6.0707e-10 3.87431e-14)
(1760 -6.07794e-10 3.58888e-14)
(1760 -6.09354e-10 3.67431e-14)
(1760 -6.1152e-10 3.44694e-14)
(1760 -6.15619e-10 3.27959e-14)
(1760 -1.31917e-10 2.78293e-14)
(1760 -6.35066e-11 2.66759e-14)
(1760 7.65296e-11 2.62042e-14)
(1760 2.47258e-10 2.53228e-14)
(1760 3.40707e-10 2.78114e-14)
(1760 4.21423e-10 2.57188e-14)
(1760 5.05338e-10 2.47348e-14)
(1760 5.93986e-10 2.67777e-14)
(1760 6.91873e-10 2.70848e-14)
(1760 7.96825e-10 2.81227e-14)
(1760 9.22547e-10 2.66945e-14)
(1760 1.06023e-09 2.64524e-14)
(1760 1.20157e-09 2.75651e-14)
(1760 1.36102e-09 2.83447e-14)
(1760 1.52718e-09 2.553e-14)
(1760 1.69509e-09 2.67936e-14)
(1760 1.82512e-09 2.77392e-14)
(1760 1.76978e-09 2.51242e-14)
(1760 1.80169e-09 2.5734e-14)
(1760 2.06627e-09 2.38055e-14)
(1760 2.38941e-09 2.27512e-14)
(1760 2.62331e-09 2.37556e-14)
(1760 2.88969e-09 2.32931e-14)
(1760 3.17628e-09 2.39879e-14)
(1760 3.51672e-09 2.32256e-14)
(1760 3.89977e-09 2.35296e-14)
(1760 4.31293e-09 2.43408e-14)
(1760 4.77773e-09 2.39144e-14)
(1760 5.30947e-09 2.50384e-14)
(1760 5.92393e-09 2.46738e-14)
(1760 6.64098e-09 2.3688e-14)
(1760 7.40872e-09 2.35732e-14)
(1760 8.32462e-09 2.35204e-14)
(1760 9.33932e-09 2.43841e-14)
(1760 1.03083e-08 2.39947e-14)
(1760 1.13151e-08 2.46297e-14)
(1760 1.26611e-08 2.44129e-14)
(1760 1.43693e-08 2.45051e-14)
(1760 1.61365e-08 2.33816e-14)
(1760 1.79027e-08 2.12637e-14)
(1760 1.97719e-08 2.12893e-14)
(1760 2.18499e-08 2.23267e-14)
(1760 2.41973e-08 2.29349e-14)
(1760 2.68157e-08 2.21174e-14)
(1760 2.97241e-08 2.07606e-14)
(1760 3.29814e-08 2.12403e-14)
(1760 3.67132e-08 2.17126e-14)
(1760 4.10598e-08 2.21243e-14)
(1760 4.61617e-08 2.27371e-14)
(1760 5.2232e-08 2.15662e-14)
(1760 5.94159e-08 2.29751e-14)
(1760 6.76447e-08 2.23728e-14)
(1760 7.68069e-08 2.31238e-14)
(1760 8.69441e-08 2.04951e-14)
(1760 9.82624e-08 2.10776e-14)
(1760 1.10887e-07 2.22033e-14)
(1760 1.24735e-07 2.23229e-14)
(1760 1.3995e-07 2.36093e-14)
(1760 1.57103e-07 2.03926e-14)
(1760 1.76689e-07 1.83203e-14)
(1760 1.98805e-07 2.18205e-14)
(1760 2.23386e-07 2.39436e-14)
(1760 2.50476e-07 2.00995e-14)
(1760 2.80239e-07 2.08149e-14)
(1760 3.13001e-07 2.16588e-14)
(1760 3.49282e-07 2.10598e-14)
(1760 3.89776e-07 2.16883e-14)
(1760 4.35418e-07 2.16197e-14)
(1760 4.87636e-07 2.11422e-14)
(1760 5.4871e-07 2.13307e-14)
(1760 6.21741e-07 2.06654e-14)
(1760 7.09556e-07 2.05439e-14)
(1760 8.1314e-07 1.99261e-14)
(1760 9.30799e-07 2.31229e-14)
(1760 1.05882e-06 2.13479e-14)
(1760 1.19283e-06 1.86154e-14)
(1760 1.32817e-06 1.9557e-14)
(1760 1.46029e-06 2.03519e-14)
(1760 1.58579e-06 2.10688e-14)