/*--------------------------------*- C++ -*----------------------------------*\
| =========                 |                                                 |
| \\      /  F ield         | OpenFOAM: The Open Source CFD Toolbox           |
|  \\    /   O peration     | Version:  v1706                                 |
|   \\  /    A nd           | Web:      www.OpenFOAM.com                      |
|    \\/     M anipulation  |                                                 |
\*---------------------------------------------------------------------------*/
FoamFile
{
    version     2.0;
    format      ascii;
    class       volScalarField;
    location    "3.8e-05";
    object      wallHeatFlux;
}
// * * * * * * * * * * * * * * * * * * * * * * * * * * * * * * * * * * * * * //

dimensions      [1 0 -3 0 0 0 0];


internalField   uniform 0;

boundaryField
{
    cone
    {
        type            calculated;
        value           nonuniform List<scalar> 
119
(
3740.64
3545.89
3412.86
3337.3
3315.47
3344.23
3421.54
3544.73
3710.24
3915.14
4156.03
4428.97
4729.55
5052.87
5393.66
5746.4
6105.5
6465.59
6821.72
7169.56
7505.6
7827.13
8132.32
8420.12
8690.17
8942.7
9178.39
9398.17
9603.13
9794.33
9972.73
10139.1
10294
10437.8
10570.6
10692.5
10803.3
10902.8
10990.4
11065.5
11127.6
11175.9
11209.8
11228.7
11231.9
11218.7
11188.7
11141.1
11075.6
10992.2
10890.9
10772.1
10636.7
10485.9
10321.6
10145.8
9961.02
9769.99
9575.41
9379.9
9185.8
8995.18
8809.76
8630.96
8459.89
8297.31
8143.64
7998.85
7862.49
7733.62
7610.86
7492.43
7376.23
7259.95
7141.12
7017.25
6886
6745.24
6593.29
6429.09
6252.37
6063.84
5865.3
5659.66
5450.78
5243.13
5041.62
4851.73
4679.66
4529.47
4404.95
4309.29
4244.27
4211.65
4212.3
4247.14
4316.19
4416.87
4545.97
4699.35
4871.82
5057.42
5249.67
5441.79
5626.83
5797.53
5946.44
6066.67
6152.72
6200.87
6210.1
6176.89
6100.09
5989.07
5856.4
5739.53
5697.41
5760.85
6122.03
)
;
    }
    inlet
    {
        type            calculated;
        value           uniform 0;
    }
    rWedge
    {
        type            wedge;
    }
    lWedge
    {
        type            wedge;
    }
    outlet
    {
        type            calculated;
        value           uniform 0;
    }
    procBoundary0to1
    {
        type            processor;
        value           uniform 0;
    }
    procBoundary0to2
    {
        type            processor;
        value           uniform 0;
    }
}


// ************************************************************************* //
