/*--------------------------------*- C++ -*----------------------------------*\
| =========                 |                                                 |
| \\      /  F ield         | OpenFOAM: The Open Source CFD Toolbox           |
|  \\    /   O peration     | Version:  v1706                                 |
|   \\  /    A nd           | Web:      www.OpenFOAM.com                      |
|    \\/     M anipulation  |                                                 |
\*---------------------------------------------------------------------------*/
FoamFile
{
    version     2.0;
    format      ascii;
    class       volScalarField;
    location    "2e-05";
    object      kappatr;
}
// * * * * * * * * * * * * * * * * * * * * * * * * * * * * * * * * * * * * * //

dimensions      [1 1 -3 -1 0 0 0];


internalField   nonuniform List<scalar> 
30038
(
0.014593
0.014593
0.014593
0.014593
0.014593
0.014593
0.014593
0.014593
0.014593
0.014593
0.014593
0.014593
0.014593
0.014593
0.014593
0.014593
0.014593
0.014593
0.014593
0.014593
0.014593
0.014593
0.014593
0.014593
0.014593
0.014593
0.014593
0.014593
0.014593
0.014593
0.014593
0.014593
0.014593
0.014593
0.014593
0.014593
0.014593
0.014593
0.014593
0.014593
0.014593
0.014593
0.014593
0.014593
0.014593
0.014593
0.014593
0.014593
0.014593
0.014593
0.014593
0.014593
0.014593
0.014593
0.014593
0.014593
0.014593
0.014593
0.014593
0.014593
0.014593
0.014593
0.014593
0.014593
0.014593
0.014593
0.014593
0.014593
0.014593
0.014593
0.014593
0.014593
0.014593
0.014593
0.014593
0.014593
0.014593
0.014593
0.014593
0.014593
0.014593
0.014593
0.014593
0.014593
0.014593
0.014593
0.014593
0.014593
0.014593
0.014593
0.014593
0.014593
0.014593
0.014593
0.014593
0.014593
0.014593
0.014593
0.014593
0.014593
0.014593
0.014593
0.014593
0.014593
0.014593
0.014593
0.014593
0.014593
0.014593
0.014593
0.014593
0.014593
0.014593
0.014593
0.014593
0.014593
0.014593
0.014593
0.014593
0.014593
0.014593
0.014593
0.014593
0.014593
0.014593
0.014593
0.014593
0.014593
0.014593
0.014593
0.014593
0.014593
0.014593
0.014593
0.014593
0.014593
0.014593
0.014593
0.014593
0.014593
0.014593
0.014593
0.014593
0.014593
0.014593
0.014593
0.014593
0.014593
0.014593
0.014593
0.014593
0.014593
0.014593
0.014593
0.014593
0.014593
0.014593
0.014593
0.014593
0.014593
0.014593
0.014593
0.014593
0.014593
0.014593
0.014593
0.014593
0.014593
0.014593
0.014593
0.014593
0.014593
0.014593
0.014593
0.014593
0.014593
0.014593
0.014593
0.014593
0.014593
0.014593
0.014593
0.014593
0.014593
0.014593
0.014593
0.014593
0.014593
0.014593
0.014593
0.014593
0.014593
0.014593
0.014593
0.014593
0.014593
0.014593
0.014593
0.014593
0.014593
0.014593
0.014593
0.014593
0.014593
0.014593
0.014593
0.014593
0.014593
0.014593
0.014593
0.014593
0.014593
0.014593
0.014593
0.014593
0.014593
0.014593
0.014593
0.014593
0.014593
0.014593
0.014593
0.014593
0.014593
0.014593
0.014593
0.014593
0.014593
0.014593
0.014593
0.014593
0.014593
0.014593
0.014593
0.014593
0.014593
0.014593
0.014593
0.014593
0.014593
0.014593
0.014593
0.014593
0.014593
0.014593
0.014593
0.014593
0.014593
0.014593
0.014593
0.014593
0.014593
0.014593
0.014593
0.014593
0.014593
0.014593
0.014593
0.014593
0.014593
0.014593
0.014593
0.014593
0.014593
0.014593
0.014593
0.014593
0.014593
0.014593
0.014593
0.014593
0.014593
0.014593
0.014593
0.014593
0.014593
0.014593
0.014593
0.014593
0.014593
0.014593
0.014593
0.014593
0.014593
0.014593
0.014593
0.014593
0.014593
0.014593
0.014593
0.014593
0.014593
0.014593
0.014593
0.014593
0.014593
0.014593
0.014593
0.014593
0.014593
0.014593
0.014593
0.014593
0.014593
0.014593
0.014593
0.014593
0.014593
0.014593
0.014593
0.014593
0.014593
0.014593
0.014593
0.014593
0.014593
0.014593
0.014593
0.014593
0.014593
0.014593
0.014593
0.014593
0.014593
0.014593
0.014593
0.014593
0.014593
0.014593
0.014593
0.014593
0.014593
0.014593
0.014593
0.014593
0.014593
0.014593
0.014593
0.014593
0.014593
0.014593
0.014593
0.014593
0.014593
0.014593
0.014593
0.014593
0.014593
0.014593
0.014593
0.014593
0.014593
0.014593
0.014593
0.014593
0.014593
0.014593
0.014593
0.014593
0.014593
0.014593
0.014593
0.014593
0.014593
0.014593
0.014593
0.014593
0.014593
0.014593
0.014593
0.014593
0.014593
0.014593
0.014593
0.014593
0.014593
0.014593
0.014593
0.014593
0.014593
0.014593
0.014593
0.014593
0.014593
0.014593
0.014593
0.014593
0.014593
0.014593
0.014593
0.014593
0.014593
0.014593
0.014593
0.014593
0.014593
0.014593
0.014593
0.014593
0.014593
0.014593
0.014593
0.014593
0.014593
0.014593
0.014593
0.014593
0.014593
0.014593
0.014593
0.014593
0.014593
0.014593
0.014593
0.014593
0.014593
0.014593
0.014593
0.014593
0.014593
0.014593
0.014593
0.014593
0.014593
0.014593
0.014593
0.014593
0.014593
0.014593
0.014593
0.014593
0.014593
0.014593
0.014593
0.014593
0.014593
0.014593
0.014593
0.014593
0.014593
0.014593
0.014593
0.014593
0.014593
0.014593
0.014593
0.014593
0.014593
0.014593
0.014593
0.014593
0.014593
0.014593
0.014593
0.014593
0.014593
0.014593
0.014593
0.014593
0.014593
0.014593
0.014593
0.014593
0.014593
0.014593
0.014593
0.014593
0.014593
0.014593
0.014593
0.014593
0.014593
0.014593
0.014593
0.014593
0.014593
0.014593
0.014593
0.014593
0.014593
0.014593
0.014593
0.014593
0.014593
0.014593
0.014593
0.014593
0.014593
0.014593
0.014593
0.014593
0.014593
0.014593
0.014593
0.014593
0.014593
0.014593
0.014593
0.014593
0.014593
0.014593
0.014593
0.014593
0.014593
0.014593
0.014593
0.014593
0.014593
0.014593
0.014593
0.014593
0.014593
0.014593
0.014593
0.014593
0.014593
0.014593
0.014593
0.014593
0.014593
0.014593
0.014593
0.014593
0.014593
0.014593
0.014593
0.014593
0.014593
0.014593
0.014593
0.014593
0.014593
0.014593
0.014593
0.014593
0.014593
0.014593
0.014593
0.014593
0.014593
0.014593
0.014593
0.014593
0.014593
0.014593
0.014593
0.014593
0.014593
0.014593
0.014593
0.014593
0.014593
0.014593
0.014593
0.014593
0.014593
0.014593
0.014593
0.014593
0.014593
0.014593
0.014593
0.014593
0.014593
0.014593
0.014593
0.014593
0.014593
0.014593
0.014593
0.014593
0.014593
0.014593
0.014593
0.014593
0.014593
0.014593
0.014593
0.014593
0.014593
0.014593
0.014593
0.014593
0.014593
0.014593
0.014593
0.014593
0.014593
0.014593
0.014593
0.014593
0.014593
0.014593
0.014593
0.014593
0.014593
0.014593
0.014593
0.014593
0.014593
0.014593
0.014593
0.014593
0.014593
0.014593
0.014593
0.014593
0.014593
0.014593
0.014593
0.014593
0.014593
0.014593
0.014593
0.014593
0.014593
0.014593
0.014593
0.014593
0.014593
0.014593
0.014593
0.014593
0.014593
0.014593
0.014593
0.014593
0.014593
0.014593
0.014593
0.014593
0.014593
0.014593
0.014593
0.014593
0.014593
0.014593
0.014593
0.014593
0.014593
0.014593
0.014593
0.014593
0.014593
0.014593
0.014593
0.014593
0.014593
0.014593
0.014593
0.014593
0.014593
0.014593
0.014593
0.014593
0.014593
0.014593
0.014593
0.014593
0.014593
0.014593
0.014593
0.014593
0.014593
0.014593
0.014593
0.014593
0.014593
0.014593
0.014593
0.014593
0.014593
0.014593
0.014593
0.014593
0.014593
0.014593
0.014593
0.014593
0.014593
0.014593
0.014593
0.014593
0.014593
0.014593
0.014593
0.014593
0.014593
0.014593
0.014593
0.014593
0.014593
0.014593
0.014593
0.014593
0.014593
0.014593
0.014593
0.014593
0.014593
0.014593
0.014593
0.014593
0.014593
0.014593
0.014593
0.014593
0.014593
0.014593
0.014593
0.014593
0.014593
0.014593
0.014593
0.014593
0.014593
0.014593
0.014593
0.014593
0.014593
0.014593
0.014593
0.014593
0.014593
0.014593
0.014593
0.014593
0.014593
0.014593
0.014593
0.014593
0.014593
0.014593
0.014593
0.014593
0.014593
0.014593
0.014593
0.014593
0.014593
0.014593
0.014593
0.014593
0.014593
0.014593
0.014593
0.014593
0.014593
0.014593
0.014593
0.014593
0.014593
0.014593
0.014593
0.014593
0.014593
0.014593
0.014593
0.014593
0.014593
0.014593
0.014593
0.014593
0.014593
0.014593
0.014593
0.014593
0.014593
0.014593
0.014593
0.014593
0.014593
0.014593
0.014593
0.014593
0.014593
0.014593
0.014593
0.014593
0.014593
0.014593
0.014593
0.014593
0.014593
0.014593
0.014593
0.014593
0.014593
0.014593
0.014593
0.014593
0.014593
0.014593
0.014593
0.014593
0.014593
0.014593
0.014593
0.014593
0.014593
0.014593
0.014593
0.014593
0.014593
0.014593
0.014593
0.014593
0.014593
0.014593
0.014593
0.014593
0.014593
0.014593
0.014593
0.014593
0.014593
0.014593
0.014593
0.014593
0.014593
0.014593
0.014593
0.014593
0.014593
0.014593
0.014593
0.014593
0.014593
0.014593
0.014593
0.014593
0.014593
0.014593
0.014593
0.014593
0.014593
0.014593
0.014593
0.014593
0.014593
0.014593
0.014593
0.014593
0.014593
0.014593
0.014593
0.014593
0.014593
0.014593
0.014593
0.014593
0.014593
0.014593
0.014593
0.014593
0.014593
0.014593
0.014593
0.014593
0.014593
0.014593
0.014593
0.014593
0.014593
0.014593
0.014593
0.014593
0.014593
0.014593
0.014593
0.014593
0.014593
0.014593
0.014593
0.014593
0.014593
0.014593
0.014593
0.014593
0.014593
0.014593
0.014593
0.014593
0.014593
0.014593
0.014593
0.014593
0.014593
0.014593
0.014593
0.014593
0.014593
0.014593
0.014593
0.014593
0.014593
0.014593
0.014593
0.014593
0.014593
0.014593
0.014593
0.014593
0.014593
0.014593
0.014593
0.014593
0.014593
0.014593
0.014593
0.014593
0.014593
0.014593
0.014593
0.014593
0.014593
0.014593
0.014593
0.014593
0.014593
0.014593
0.014593
0.014593
0.014593
0.014593
0.014593
0.014593
0.014593
0.014593
0.014593
0.014593
0.014593
0.014593
0.014593
0.014593
0.014593
0.014593
0.014593
0.014593
0.014593
0.014593
0.014593
0.014593
0.014593
0.014593
0.014593
0.014593
0.014593
0.014593
0.014593
0.014593
0.014593
0.014593
0.014593
0.014593
0.014593
0.014593
0.014593
0.014593
0.014593
0.014593
0.014593
0.014593
0.014593
0.014593
0.014593
0.014593
0.014593
0.014593
0.014593
0.014593
0.014593
0.014593
0.014593
0.014593
0.014593
0.014593
0.014593
0.014593
0.014593
0.014593
0.014593
0.014593
0.014593
0.014593
0.014593
0.014593
0.014593
0.014593
0.014593
0.014593
0.014593
0.014593
0.014593
0.014593
0.014593
0.014593
0.014593
0.014593
0.014593
0.014593
0.014593
0.014593
0.014593
0.014593
0.014593
0.014593
0.014593
0.014593
0.014593
0.014593
0.014593
0.014593
0.014593
0.014593
0.014593
0.014593
0.014593
0.014593
0.014593
0.014593
0.014593
0.014593
0.014593
0.014593
0.014593
0.014593
0.014593
0.014593
0.014593
0.014593
0.014593
0.014593
0.014593
0.014593
0.014593
0.014593
0.014593
0.014593
0.014593
0.014593
0.014593
0.014593
0.014593
0.014593
0.014593
0.014593
0.014593
0.014593
0.014593
0.014593
0.014593
0.014593
0.014593
0.014593
0.014593
0.014593
0.014593
0.014593
0.014593
0.014593
0.014593
0.014593
0.014593
0.014593
0.014593
0.014593
0.014593
0.014593
0.014593
0.014593
0.014593
0.014593
0.014593
0.014593
0.014593
0.014593
0.014593
0.014593
0.014593
0.014593
0.014593
0.014593
0.014593
0.014593
0.014593
0.014593
0.014593
0.014593
0.014593
0.014593
0.014593
0.014593
0.014593
0.014593
0.014593
0.014593
0.014593
0.014593
0.014593
0.014593
0.014593
0.014593
0.014593
0.014593
0.014593
0.014593
0.014593
0.014593
0.014593
0.014593
0.014593
0.014593
0.014593
0.014593
0.014593
0.014593
0.014593
0.014593
0.014593
0.014593
0.014593
0.014593
0.014593
0.014593
0.014593
0.014593
0.014593
0.014593
0.014593
0.014593
0.014593
0.014593
0.014593
0.014593
0.014593
0.014593
0.014593
0.014593
0.014593
0.014593
0.014593
0.014593
0.014593
0.014593
0.014593
0.014593
0.014593
0.014593
0.014593
0.014593
0.014593
0.014593
0.014593
0.014593
0.014593
0.014593
0.014593
0.014593
0.014593
0.014593
0.014593
0.014593
0.014593
0.014593
0.014593
0.014593
0.014593
0.014593
0.014593
0.014593
0.014593
0.014593
0.014593
0.014593
0.014593
0.014593
0.014593
0.014593
0.014593
0.014593
0.014593
0.014593
0.014593
0.014593
0.014593
0.014593
0.014593
0.014593
0.014593
0.014593
0.014593
0.014593
0.014593
0.014593
0.014593
0.014593
0.014593
0.014593
0.014593
0.014593
0.014593
0.014593
0.014593
0.014593
0.014593
0.014593
0.014593
0.014593
0.014593
0.014593
0.014593
0.014593
0.014593
0.014593
0.014593
0.014593
0.014593
0.014593
0.014593
0.014593
0.014593
0.014593
0.014593
0.014593
0.014593
0.014593
0.014593
0.014593
0.014593
0.014593
0.014593
0.014593
0.014593
0.014593
0.014593
0.014593
0.014593
0.014593
0.014593
0.014593
0.014593
0.014593
0.014593
0.014593
0.014593
0.014593
0.014593
0.014593
0.014593
0.014593
0.014593
0.014593
0.014593
0.014593
0.014593
0.014593
0.014593
0.014593
0.014593
0.014593
0.014593
0.014593
0.014593
0.014593
0.014593
0.014593
0.014593
0.014593
0.014593
0.014593
0.014593
0.014593
0.014593
0.014593
0.014593
0.014593
0.014593
0.014593
0.014593
0.014593
0.014593
0.014593
0.014593
0.014593
0.014593
0.014593
0.014593
0.014593
0.014593
0.014593
0.014593
0.014593
0.014593
0.014593
0.014593
0.014593
0.014593
0.014593
0.014593
0.014593
0.014593
0.014593
0.014593
0.014593
0.014593
0.014593
0.014593
0.014593
0.014593
0.014593
0.014593
0.014593
0.014593
0.014593
0.014593
0.014593
0.014593
0.014593
0.014593
0.014593
0.014593
0.014593
0.014593
0.014593
0.014593
0.014593
0.014593
0.014593
0.014593
0.014593
0.014593
0.014593
0.014593
0.014593
0.014593
0.014593
0.014593
0.014593
0.014593
0.014593
0.014593
0.014593
0.014593
0.014593
0.014593
0.014593
0.014593
0.014593
0.014593
0.014593
0.014593
0.014593
0.014593
0.014593
0.014593
0.014593
0.014593
0.014593
0.014593
0.014593
0.014593
0.014593
0.014593
0.014593
0.014593
0.014593
0.014593
0.014593
0.014593
0.014593
0.014593
0.014593
0.014593
0.014593
0.014593
0.014593
0.014593
0.014593
0.014593
0.014593
0.014593
0.014593
0.014593
0.014593
0.014593
0.014593
0.014593
0.014593
0.014593
0.014593
0.014593
0.014593
0.014593
0.014593
0.014593
0.014593
0.014593
0.014593
0.014593
0.014593
0.014593
0.014593
0.014593
0.014593
0.014593
0.014593
0.014593
0.014593
0.014593
0.014593
0.014593
0.014593
0.014593
0.014593
0.014593
0.014593
0.014593
0.014593
0.014593
0.014593
0.014593
0.014593
0.014593
0.014593
0.014593
0.014593
0.014593
0.014593
0.014593
0.014593
0.014593
0.014593
0.014593
0.014593
0.014593
0.014593
0.014593
0.014593
0.014593
0.014593
0.014593
0.014593
0.014593
0.014593
0.014593
0.014593
0.014593
0.014593
0.014593
0.014593
0.014593
0.014593
0.014593
0.014593
0.014593
0.014593
0.014593
0.014593
0.014593
0.014593
0.014593
0.014593
0.014593
0.014593
0.014593
0.014593
0.014593
0.014593
0.014593
0.014593
0.014593
0.014593
0.014593
0.014593
0.014593
0.014593
0.014593
0.014593
0.014593
0.014593
0.014593
0.014593
0.014593
0.014593
0.014593
0.014593
0.014593
0.014593
0.014593
0.0145931
0.0145931
0.014593
0.014593
0.014593
0.014593
0.014593
0.014593
0.014593
0.014593
0.014593
0.014593
0.014593
0.014593
0.014593
0.014593
0.014593
0.014593
0.014593
0.014593
0.014593
0.014593
0.014593
0.014593
0.014593
0.014593
0.014593
0.014593
0.014593
0.014593
0.014593
0.014593
0.014593
0.014593
0.014593
0.014593
0.014593
0.014593
0.014593
0.014593
0.014593
0.014593
0.014593
0.014593
0.014593
0.014593
0.0145931
0.0145931
0.0145931
0.0145932
0.0145934
0.0145937
0.014593
0.014593
0.014593
0.014593
0.014593
0.014593
0.014593
0.014593
0.014593
0.014593
0.014593
0.014593
0.014593
0.014593
0.014593
0.014593
0.014593
0.014593
0.014593
0.014593
0.014593
0.014593
0.014593
0.014593
0.014593
0.014593
0.014593
0.014593
0.014593
0.014593
0.014593
0.014593
0.014593
0.014593
0.014593
0.014593
0.014593
0.014593
0.014593
0.014593
0.014593
0.0145931
0.0145931
0.0145931
0.0145932
0.0145934
0.0145937
0.0145941
0.014595
0.0145965
0.014593
0.014593
0.014593
0.014593
0.014593
0.014593
0.014593
0.014593
0.014593
0.014593
0.014593
0.014593
0.014593
0.014593
0.014593
0.014593
0.014593
0.014593
0.014593
0.014593
0.014593
0.014593
0.014593
0.014593
0.014593
0.014593
0.014593
0.014593
0.014593
0.014593
0.014593
0.014593
0.014593
0.014593
0.014593
0.014593
0.014593
0.014593
0.0145931
0.0145931
0.0145932
0.0145933
0.0145934
0.0145937
0.0145942
0.014595
0.0145964
0.0145988
0.0146029
0.0146104
0.014593
0.014593
0.014593
0.014593
0.014593
0.014593
0.014593
0.014593
0.014593
0.014593
0.014593
0.014593
0.014593
0.014593
0.014593
0.014593
0.014593
0.014593
0.014593
0.014593
0.014593
0.014593
0.014593
0.014593
0.014593
0.014593
0.014593
0.014593
0.014593
0.014593
0.014593
0.014593
0.014593
0.014593
0.014593
0.0145931
0.0145931
0.0145932
0.0145933
0.0145935
0.0145938
0.0145943
0.0145951
0.0145966
0.014599
0.014603
0.0146099
0.0146215
0.0146416
0.0146778
0.014593
0.014593
0.014593
0.014593
0.014593
0.014593
0.014593
0.014593
0.014593
0.014593
0.014593
0.014593
0.014593
0.014593
0.014593
0.014593
0.014593
0.014593
0.014593
0.014593
0.014593
0.014593
0.014593
0.014593
0.014593
0.014593
0.014593
0.014593
0.014593
0.014593
0.014593
0.0145931
0.0145931
0.0145931
0.0145932
0.0145933
0.0145935
0.0145939
0.0145944
0.0145953
0.0145969
0.0145994
0.0146036
0.0146106
0.0146223
0.0146419
0.0146748
0.0147303
0.0148247
0.0149908
0.014593
0.014593
0.014593
0.014593
0.014593
0.014593
0.014593
0.014593
0.014593
0.014593
0.014593
0.014593
0.014593
0.014593
0.014593
0.014593
0.014593
0.014593
0.014593
0.014593
0.014593
0.014593
0.014593
0.014593
0.014593
0.014593
0.014593
0.014593
0.0145931
0.0145931
0.0145932
0.0145932
0.0145934
0.0145936
0.014594
0.0145946
0.0145956
0.0145973
0.0146
0.0146044
0.0146117
0.0146238
0.0146439
0.0146772
0.0147324
0.014824
0.0149757
0.0152257
0.0156357
0.0163117
0.014593
0.014593
0.014593
0.014593
0.014593
0.014593
0.014593
0.014593
0.014593
0.014593
0.014593
0.014593
0.014593
0.014593
0.014593
0.014593
0.014593
0.014593
0.014593
0.014593
0.014593
0.014593
0.014593
0.014593
0.0145931
0.0145931
0.0145931
0.0145932
0.0145933
0.0145935
0.0145937
0.0145942
0.0145949
0.014596
0.0145978
0.0146008
0.0146056
0.0146135
0.0146264
0.0146474
0.0146819
0.0147384
0.0148311
0.0149825
0.0152285
0.0156238
0.0162475
0.017206
0.0186301
0.0206699
0.014593
0.014593
0.014593
0.014593
0.014593
0.014593
0.014593
0.014593
0.014593
0.014593
0.014593
0.014593
0.014593
0.014593
0.014593
0.014593
0.014593
0.014593
0.014593
0.014593
0.014593
0.0145931
0.0145931
0.0145932
0.0145932
0.0145934
0.0145936
0.0145939
0.0145944
0.0145952
0.0145965
0.0145986
0.014602
0.0146074
0.014616
0.01463
0.0146526
0.0146892
0.0147485
0.0148446
0.0149997
0.0152486
0.0156436
0.0162592
0.0171934
0.0185602
0.0204709
0.0230081
0.0262075
0.0300485
0.014593
0.014593
0.014593
0.014593
0.014593
0.014593
0.014593
0.014593
0.014593
0.014593
0.014593
0.014593
0.014593
0.014593
0.014593
0.014593
0.014593
0.014593
0.0145931
0.0145931
0.0145931
0.0145932
0.0145933
0.0145935
0.0145937
0.0145941
0.0145947
0.0145957
0.0145973
0.0145997
0.0146036
0.0146097
0.0146195
0.0146351
0.0146599
0.0146998
0.0147636
0.0148656
0.0150283
0.015286
0.0156899
0.0163115
0.0172435
0.0185922
0.02046
0.0229202
0.0259955
0.0296513
0.0338067
0.038361
0.0432005
0.014593
0.014593
0.014593
0.014593
0.014593
0.014593
0.014593
0.014593
0.014593
0.014593
0.014593
0.014593
0.014593
0.014593
0.0145931
0.0145931
0.0145931
0.0145932
0.0145933
0.0145934
0.0145936
0.0145939
0.0145944
0.0145952
0.0145964
0.0145983
0.0146012
0.0146058
0.0146129
0.0146242
0.014642
0.0146701
0.0147145
0.0147847
0.0148956
0.0150702
0.0153433
0.0157654
0.0164062
0.0173542
0.0187089
0.0205643
0.0229866
0.0259947
0.0295549
0.0335885
0.0379914
0.0426525
0.0474688
0.052355
0.0572332
0.014593
0.014593
0.014593
0.014593
0.014593
0.014593
0.014593
0.014593
0.014593
0.014593
0.014593
0.0145931
0.0145931
0.0145931
0.0145932
0.0145932
0.0145934
0.0145935
0.0145938
0.0145942
0.0145949
0.0145959
0.0145974
0.0145997
0.0146032
0.0146088
0.0146173
0.0146307
0.0146515
0.0146839
0.0147346
0.0148137
0.0149371
0.0151289
0.0154246
0.0158751
0.016549
0.0175311
0.0189142
0.0207836
0.0231968
0.0261679
0.0296627
0.0336077
0.0379061
0.0424536
0.0471509
0.0519087
0.0566515
0.0613154
0.0658416
0.0701838
0.014593
0.014593
0.014593
0.014593
0.014593
0.014593
0.014593
0.0145931
0.0145931
0.0145931
0.0145932
0.0145932
0.0145933
0.0145935
0.0145938
0.0145941
0.0145947
0.0145955
0.0145968
0.0145987
0.0146016
0.0146061
0.014613
0.0146235
0.0146396
0.0146645
0.0147028
0.0147619
0.0148532
0.0149936
0.0152089
0.0155359
0.0160266
0.0167487
0.0177836
0.0192174
0.0211257
0.0235562
0.0265161
0.0299697
0.0338467
0.0380573
0.0425055
0.0470997
0.0517574
0.0564061
0.0609835
0.0654298
0.0696906
0.0737207
0.077477
0.0809266
0.014593
0.014593
0.014593
0.0145931
0.0145931
0.0145931
0.0145932
0.0145932
0.0145933
0.0145935
0.0145937
0.0145941
0.0145946
0.0145953
0.0145964
0.0145981
0.0146006
0.0146044
0.0146102
0.0146189
0.014632
0.014652
0.0146824
0.0147288
0.0147994
0.014907
0.0150703
0.0153169
0.015686
0.0162306
0.0170178
0.0181254
0.0196319
0.0216026
0.0240742
0.0270456
0.0304783
0.0343044
0.0384401
0.0427978
0.0472937
0.0518524
0.0564075
0.0609012
0.0652804
0.0694923
0.0734898
0.0772308
0.080669
0.0837513
0.0864213
0.088671
0.0145931
0.0145931
0.0145932
0.0145932
0.0145934
0.0145935
0.0145937
0.0145941
0.0145945
0.0145952
0.0145963
0.0145978
0.0146001
0.0146035
0.0146085
0.014616
0.0146273
0.0146442
0.0146695
0.0147075
0.0147648
0.014851
0.0149805
0.0151744
0.0154627
0.015887
0.0165016
0.017373
0.0185745
0.0201761
0.0222312
0.0247648
0.0277671
0.0311959
0.0349855
0.0390577
0.0433326
0.0477344
0.052195
0.0566539
0.061058
0.0653596
0.0695107
0.0734666
0.077187
0.0806323
0.0837549
0.0865019
0.0888306
0.0907268
0.0922045
0.0933363
0.0145934
0.0145935
0.0145938
0.0145941
0.0145946
0.0145953
0.0145963
0.0145978
0.0145999
0.0146031
0.0146077
0.0146146
0.0146246
0.0146395
0.0146616
0.0146944
0.014743
0.0148154
0.0149228
0.0150819
0.0153165
0.0156597
0.0161554
0.0168595
0.0178367
0.0191545
0.0208727
0.0230321
0.0256451
0.0286933
0.0321311
0.0358946
0.0399113
0.0441088
0.0484192
0.0527812
0.0571407
0.0614492
0.0656639
0.0697421
0.0736418
0.0773251
0.0807566
0.0838956
0.0866947
0.0891091
0.0911127
0.0927078
0.0939274
0.0948279
0.0954689
0.0959294
0.0145947
0.0145954
0.0145965
0.0145979
0.0146001
0.0146032
0.0146076
0.0146141
0.0146236
0.0146374
0.0146575
0.0146871
0.0147304
0.014794
0.0148872
0.0150237
0.0152229
0.0155118
0.0159266
0.0165142
0.0173305
0.0184372
0.0198941
0.0217493
0.0240297
0.0267355
0.02984
0.033295
0.037039
0.0410055
0.0451294
0.0493502
0.0536136
0.0578714
0.06208
0.0662003
0.0701949
0.0740251
0.0776552
0.0810523
0.0841821
0.0870035
0.0894733
0.0915597
0.0932534
0.0945739
0.0955651
0.0962823
0.0967847
0.0971282
0.0973557
0.0975115
0.0146006
0.0146037
0.0146082
0.0146147
0.014624
0.0146374
0.0146567
0.0146845
0.0147249
0.0147833
0.0148679
0.0149904
0.015167
0.0154206
0.0157816
0.0162898
0.0169936
0.0179481
0.0192094
0.0208276
0.0228371
0.0252509
0.0280575
0.0312233
0.0346988
0.0384258
0.0423437
0.0463948
0.0505259
0.0546893
0.0588422
0.0629459
0.0669651
0.0708668
0.0746159
0.078179
0.0815257
0.0846259
0.087444
0.0899404
0.0920812
0.0938505
0.0952559
0.0963294
0.0971188
0.0976789
0.0980648
0.0983196
0.0984821
0.0985793
0.0986247
0.0986512
0.0146395
0.0146588
0.0146863
0.0147256
0.0147818
0.0148621
0.0149769
0.0151405
0.0153726
0.0156998
0.0161564
0.0167846
0.0176333
0.018754
0.020195
0.0219936
0.0241702
0.0267238
0.029633
0.0328594
0.0363537
0.0400619
0.0439299
0.0479069
0.0519468
0.056008
0.060053
0.0640475
0.0679599
0.0717605
0.0754182
0.0789023
0.0821841
0.0852366
0.0880293
0.0905267
0.092696
0.0945159
0.0959856
0.0971276
0.0979824
0.0985975
0.0990243
0.0993093
0.0994899
0.099599
0.0996501
0.0996627
0.0996638
0.0996518
0.0996151
0.0147891
0.0148688
0.0149812
0.0151393
0.015361
0.0156698
0.0160963
0.0166778
0.0174578
0.0184829
0.0197981
0.0214405
0.0234335
0.0257828
0.0284755
0.0314824
0.0347629
0.0382695
0.0419533
0.0457668
0.0496661
0.0536115
0.0575672
0.0615003
0.0653808
0.0691804
0.0728726
0.0764299
0.079824
0.0830283
0.0860182
0.0887671
0.091244
0.0934172
0.0952638
0.0967776
0.0979728
0.0988807
0.0995435
0.100009
0.100325
0.100524
0.100642
0.100703
0.100713
0.100703
0.100686
0.100647
0.100579
0.100495
0.1004
0.0153836
0.0156872
0.0161013
0.0166597
0.0174014
0.0183685
0.0196017
0.0211361
0.0229952
0.025188
0.0277069
0.0305298
0.0336227
0.0369451
0.0404531
0.0441036
0.0478556
0.0516717
0.055518
0.0593638
0.0631808
0.0669424
0.0706237
0.0742009
0.0776497
0.0809441
0.0840597
0.0869738
0.0896631
0.0921001
0.0942558
0.0961075
0.0976446
0.0988746
0.0998226
0.100525
0.101025
0.101366
0.101583
0.101713
0.101781
0.101792
0.101774
0.101747
0.101706
0.101637
0.101548
0.101448
0.101334
0.101218
0.101103
0.0183977
0.0195868
0.0210554
0.0228255
0.0249065
0.0272937
0.0299693
0.0329051
0.036066
0.0394135
0.0429086
0.0465142
0.0501956
0.0539212
0.0576626
0.0613936
0.0650896
0.0687274
0.0722849
0.0757407
0.0790734
0.0822593
0.0852761
0.0881028
0.0907186
0.0930996
0.0952193
0.0970555
0.0985958
0.0998435
0.100818
0.101549
0.102075
0.102438
0.102672
0.102811
0.102883
0.102898
0.102876
0.102838
0.102788
0.102721
0.10263
0.102523
0.102403
0.102277
0.102148
0.10202
0.101893
0.101767
0.0249197
0.0272142
0.0297784
0.0325881
0.0356126
0.0388182
0.0421704
0.0456357
0.049183
0.0527833
0.0564104
0.0600403
0.0636507
0.0672204
0.0707292
0.0741574
0.0774859
0.0806956
0.0837651
0.086674
0.089403
0.0919335
0.0942441
0.0963113
0.098114
0.0996394
0.100888
0.101873
0.102621
0.103166
0.103545
0.103791
0.103938
0.104013
0.10403
0.104005
0.103956
0.103897
0.103826
0.103731
0.103619
0.103497
0.103362
0.103224
0.103085
0.102946
0.102807
0.102668
0.102531
0.102395
0.0355711
0.0386546
0.0418784
0.045213
0.0486305
0.0521051
0.0556131
0.0591327
0.0626439
0.0661276
0.0695656
0.0729401
0.0762336
0.0794292
0.0825095
0.0854554
0.0882481
0.0908702
0.0933047
0.0955327
0.097533
0.0992864
0.10078
0.102012
0.102994
0.103747
0.104301
0.104689
0.104943
0.105095
0.105172
0.105187
0.105161
0.105105
0.105033
0.104954
0.104858
0.104741
0.104612
0.104471
0.104323
0.104174
0.104025
0.103876
0.103727
0.103578
0.103429
0.10328
0.103133
0.102986
0.0485333
0.0518846
0.055272
0.0586763
0.0620793
0.0654644
0.0688152
0.0721159
0.0753508
0.0785044
0.0815616
0.0845066
0.0873222
0.0899914
0.0924983
0.0948275
0.0969621
0.0988831
0.100573
0.10202
0.103221
0.104186
0.104931
0.105484
0.105874
0.10613
0.106284
0.10636
0.106371
0.106343
0.106281
0.106197
0.106107
0.106006
0.105883
0.105746
0.105602
0.105446
0.105288
0.105128
0.104968
0.104809
0.104649
0.104491
0.104332
0.104173
0.104014
0.103855
0.103696
0.103538
0.0619617
0.0652393
0.0684909
0.0717026
0.0748603
0.0779503
0.0809589
0.0838725
0.0866769
0.0893561
0.0918951
0.0942795
0.0964951
0.0985268
0.100358
0.101972
0.103359
0.104516
0.105449
0.106175
0.106717
0.107102
0.107354
0.107506
0.107578
0.107585
0.107552
0.107482
0.107388
0.107286
0.107176
0.107049
0.106906
0.106754
0.106591
0.106422
0.106253
0.106084
0.105914
0.105745
0.105576
0.105407
0.105238
0.105069
0.104901
0.104732
0.104562
0.104392
0.104223
0.104053
0.0747765
0.077786
0.0807262
0.0835849
0.0863501
0.0890086
0.0915461
0.093949
0.0962041
0.0982989
0.10022
0.101951
0.103479
0.104794
0.105895
0.106786
0.107482
0.108004
0.108374
0.108616
0.108761
0.108827
0.108825
0.108786
0.108711
0.108606
0.108491
0.10837
0.108238
0.108086
0.107926
0.107758
0.107581
0.107401
0.107222
0.107042
0.106862
0.106682
0.106504
0.106326
0.106147
0.105969
0.10579
0.105612
0.105433
0.105253
0.105073
0.104892
0.104712
0.104531
0.0863685
0.0889808
0.0914888
0.0938795
0.0961408
0.098261
0.100229
0.102031
0.103655
0.105088
0.106322
0.107356
0.108194
0.10885
0.109342
0.10969
0.109918
0.110051
0.110105
0.110094
0.110048
0.109964
0.109847
0.109721
0.109589
0.109447
0.109289
0.109119
0.108944
0.108759
0.10857
0.108381
0.108191
0.108001
0.107812
0.107623
0.107434
0.107246
0.107058
0.106871
0.106683
0.106495
0.106306
0.106117
0.105928
0.105738
0.105547
0.105355
0.105164
0.104971
0.0984573
0.100438
0.102272
0.103951
0.10546
0.10679
0.107934
0.108893
0.109669
0.110276
0.110732
0.111051
0.111258
0.111374
0.111413
0.111392
0.111335
0.111239
0.111113
0.110976
0.110831
0.110678
0.110513
0.110335
0.110151
0.109959
0.10976
0.109561
0.109361
0.109161
0.108962
0.108763
0.108565
0.108367
0.108169
0.107972
0.107775
0.107577
0.10738
0.107182
0.106984
0.106786
0.106586
0.106386
0.106186
0.105984
0.105782
0.10558
0.105376
0.105966
0.107354
0.108575
0.109623
0.110499
0.111206
0.111758
0.11217
0.112453
0.112635
0.11273
0.11275
0.112718
0.112646
0.112539
0.112403
0.112252
0.112094
0.11193
0.111758
0.11157
0.111376
0.111177
0.11097
0.110761
0.110551
0.110342
0.110132
0.109923
0.109715
0.109507
0.1093
0.109094
0.108887
0.108681
0.108474
0.108267
0.108061
0.107853
0.107646
0.107438
0.107229
0.10702
0.106809
0.106598
0.106386
0.106173
0.10596
0.105745
0.11138
0.112166
0.112799
0.11329
0.11365
0.113896
0.114047
0.114118
0.114115
0.114069
0.113982
0.113861
0.113713
0.11355
0.11338
0.113204
0.113021
0.112825
0.112621
0.112414
0.112199
0.111979
0.11176
0.111541
0.111322
0.111103
0.110885
0.110668
0.110451
0.110235
0.110019
0.109803
0.109588
0.109372
0.109157
0.108941
0.108725
0.108508
0.108291
0.108074
0.107856
0.107637
0.107417
0.107197
0.106975
0.106752
0.106529
0.106304
0.106079
0.11517
0.115374
0.11549
0.11553
0.115508
0.115443
0.11534
0.115203
0.115044
0.114868
0.114686
0.114497
0.114303
0.114099
0.113885
0.113667
0.113445
0.113216
0.112987
0.112759
0.11253
0.112301
0.112074
0.111847
0.111621
0.111395
0.11117
0.110945
0.11072
0.110496
0.110271
0.110047
0.109823
0.109598
0.109373
0.109147
0.108921
0.108694
0.108467
0.108239
0.10801
0.10778
0.107549
0.107317
0.107084
0.106849
0.106614
0.106378
0.116968
0.116925
0.116839
0.116716
0.116565
0.116393
0.116205
0.116009
0.115808
0.115603
0.115389
0.115166
0.114938
0.114707
0.11447
0.114231
0.113994
0.113755
0.113517
0.11328
0.113044
0.112808
0.112573
0.112338
0.112104
0.111871
0.111638
0.111405
0.111171
0.110938
0.110705
0.110472
0.110238
0.110004
0.10977
0.109535
0.109299
0.109062
0.108825
0.108587
0.108348
0.108108
0.107866
0.107624
0.10738
0.107136
0.10689
0.106643
0.117945
0.117759
0.117557
0.117348
0.117136
0.116919
0.116694
0.116463
0.116225
0.115985
0.11574
0.115491
0.115244
0.114997
0.114749
0.114503
0.114257
0.114012
0.113768
0.113524
0.113281
0.113039
0.112797
0.112555
0.112313
0.112072
0.11183
0.111589
0.111347
0.111105
0.110862
0.11062
0.110376
0.110132
0.109888
0.109642
0.109396
0.109149
0.108901
0.108652
0.108401
0.10815
0.107897
0.107643
0.107388
0.107132
0.106874
0.118703
0.118478
0.11825
0.118014
0.117773
0.117526
0.117277
0.117023
0.116766
0.116509