/*--------------------------------*- C++ -*----------------------------------*\
| =========                 |                                                 |
| \\      /  F ield         | OpenFOAM: The Open Source CFD Toolbox           |
|  \\    /   O peration     | Version:  v1706                                 |
|   \\  /    A nd           | Web:      www.OpenFOAM.com                      |
|    \\/     M anipulation  |                                                 |
\*---------------------------------------------------------------------------*/
FoamFile
{
    version     2.0;
    format      ascii;
    class       volScalarField;
    location    "2e-05";
    object      p;
}
// * * * * * * * * * * * * * * * * * * * * * * * * * * * * * * * * * * * * * //

dimensions      [1 -1 -2 0 0 0 0];


internalField   nonuniform List<scalar> 
30038
(
21.9139
21.9139
21.9139
21.9139
21.9139
21.9139
21.9139
21.9139
21.9139
21.9139
21.9139
21.9139
21.9139
21.9139
21.9139
21.9139
21.9139
21.9139
21.9139
21.9139
21.9139
21.9139
21.9139
21.9139
21.9139
21.9139
21.9139
21.9139
21.9139
21.9139
21.9139
21.9139
21.9139
21.9139
21.9139
21.9139
21.9139
21.9139
21.9139
21.9139
21.9139
21.9139
21.9139
21.9139
21.9139
21.9139
21.9139
21.9139
21.9139
21.9139
21.9139
21.9139
21.9139
21.9139
21.9139
21.9139
21.9139
21.9139
21.9139
21.9139
21.9139
21.9139
21.9139
21.9139
21.9139
21.9139
21.9139
21.9139
21.9139
21.9139
21.9139
21.9139
21.9139
21.9139
21.9139
21.9139
21.9139
21.9139
21.9139
21.9139
21.9139
21.9139
21.9139
21.9139
21.9139
21.9139
21.9139
21.9139
21.9139
21.9139
21.9139
21.9139
21.9139
21.9139
21.9139
21.9139
21.9139
21.9139
21.9139
21.9139
21.9139
21.9139
21.9139
21.9139
21.9139
21.9139
21.9139
21.9139
21.9139
21.9139
21.9139
21.9139
21.9139
21.9139
21.9139
21.9139
21.9139
21.9139
21.9139
21.9139
21.9139
21.9139
21.9139
21.9139
21.9139
21.9139
21.9139
21.9139
21.9139
21.9139
21.9139
21.9139
21.9139
21.9139
21.9139
21.9139
21.9139
21.9139
21.9139
21.9139
21.9139
21.9139
21.9139
21.9139
21.9139
21.9139
21.9139
21.9139
21.9139
21.9139
21.9139
21.9139
21.9139
21.9139
21.9139
21.9139
21.9139
21.9139
21.9139
21.9139
21.9139
21.9139
21.9139
21.9139
21.9139
21.9139
21.9139
21.9139
21.9139
21.9139
21.9139
21.9139
21.9139
21.9139
21.9139
21.9139
21.9139
21.9139
21.9139
21.9139
21.9139
21.9139
21.9139
21.9139
21.9139
21.9139
21.9139
21.9139
21.9139
21.9139
21.9139
21.9139
21.9139
21.9139
21.9139
21.9139
21.9139
21.9139
21.9139
21.9139
21.9139
21.9139
21.9139
21.9139
21.9139
21.9139
21.9139
21.9139
21.9139
21.9139
21.9139
21.9139
21.9139
21.9139
21.9139
21.9139
21.9139
21.9139
21.9139
21.9139
21.9139
21.9139
21.9139
21.9139
21.9139
21.9139
21.9139
21.9139
21.9139
21.9139
21.9139
21.9139
21.9139
21.9139
21.9139
21.9139
21.9139
21.9139
21.9139
21.9139
21.9139
21.9139
21.9139
21.9139
21.9139
21.9139
21.9139
21.9139
21.9139
21.9139
21.9139
21.9139
21.9139
21.9139
21.9139
21.9139
21.9139
21.9139
21.9139
21.9139
21.9139
21.9139
21.9139
21.9139
21.9139
21.9139
21.9139
21.9139
21.9139
21.9139
21.9139
21.9139
21.9139
21.9139
21.9139
21.9139
21.9139
21.9139
21.9139
21.9139
21.9139
21.9139
21.9139
21.9139
21.9139
21.9139
21.9139
21.9139
21.9139
21.9139
21.9139
21.9139
21.9139
21.9139
21.9139
21.9139
21.9139
21.9139
21.9139
21.9139
21.9139
21.9139
21.9139
21.9139
21.9139
21.9139
21.9139
21.9139
21.9139
21.9139
21.9139
21.9139
21.9139
21.9139
21.9139
21.9139
21.9139
21.9139
21.9139
21.9139
21.9139
21.9139
21.9139
21.9139
21.9139
21.9139
21.9139
21.9139
21.9139
21.9139
21.9139
21.9139
21.9139
21.9139
21.9139
21.9139
21.9139
21.9139
21.9139
21.9139
21.9139
21.9139
21.9139
21.9139
21.9139
21.9139
21.9139
21.9139
21.9139
21.9139
21.9139
21.9139
21.9139
21.9139
21.9139
21.9139
21.9139
21.9139
21.9139
21.9139
21.9139
21.9139
21.9139
21.9139
21.9139
21.9139
21.9139
21.9139
21.9139
21.9139
21.9139
21.9139
21.9139
21.9139
21.9139
21.9139
21.9139
21.9139
21.9139
21.9139
21.9139
21.9139
21.9139
21.9139
21.9139
21.9139
21.9139
21.9139
21.9139
21.9139
21.9139
21.9139
21.9139
21.9139
21.9139
21.9139
21.9139
21.9139
21.9139
21.9139
21.9139
21.9139
21.9139
21.9139
21.9139
21.9139
21.9139
21.9139
21.9139
21.9139
21.9139
21.9139
21.9139
21.9139
21.9139
21.9139
21.9139
21.9139
21.9139
21.9139
21.9139
21.9139
21.9139
21.9139
21.9139
21.9139
21.9139
21.9139
21.9139
21.9139
21.9139
21.9139
21.9139
21.9139
21.9139
21.9139
21.9139
21.9139
21.9139
21.9139
21.9139
21.9139
21.9139
21.9139
21.9139
21.9139
21.9139
21.9139
21.9139
21.9139
21.9139
21.9139
21.9139
21.9139
21.9139
21.9139
21.9139
21.9139
21.9139
21.9139
21.9139
21.9139
21.9139
21.9139
21.9139
21.9139
21.9139
21.9139
21.9139
21.9139
21.9139
21.9139
21.9139
21.9139
21.9139
21.9139
21.9139
21.9139
21.9139
21.9139
21.9139
21.9139
21.9139
21.9139
21.9139
21.9139
21.9139
21.9139
21.9139
21.9139
21.9139
21.9139
21.9139
21.9139
21.9139
21.9139
21.9139
21.9139
21.9139
21.9139
21.9139
21.9139
21.9139
21.9139
21.9139
21.9139
21.9139
21.9139
21.9139
21.9139
21.9139
21.9139
21.9139
21.9139
21.9139
21.9139
21.9139
21.9139
21.9139
21.9139
21.9139
21.9139
21.9139
21.9139
21.9139
21.9139
21.9139
21.9139
21.9139
21.9139
21.9139
21.9139
21.9139
21.9139
21.9139
21.9139
21.9139
21.9139
21.9139
21.9139
21.9139
21.9139
21.9139
21.9139
21.9139
21.9139
21.9139
21.9139
21.9139
21.9139
21.9139
21.9139
21.9139
21.9139
21.9139
21.9139
21.9139
21.9139
21.9139
21.9139
21.9139
21.9139
21.9139
21.9139
21.9139
21.9139
21.9139
21.9139
21.9139
21.9139
21.9139
21.9139
21.9139
21.9139
21.9139
21.9139
21.9139
21.9139
21.9139
21.9139
21.9139
21.9139
21.9139
21.9139
21.9139
21.9139
21.9139
21.9139
21.9139
21.9139
21.9139
21.9139
21.9139
21.9139
21.9139
21.9139
21.9139
21.9139
21.9139
21.9139
21.9139
21.9139
21.9139
21.9139
21.9139
21.9139
21.9139
21.9139
21.9139
21.9139
21.9139
21.9139
21.9139
21.9139
21.9139
21.9139
21.9139
21.9139
21.9139
21.9139
21.9139
21.9139
21.9139
21.9139
21.9139
21.9139
21.9139
21.9139
21.9139
21.9139
21.9139
21.9139
21.9139
21.9139
21.9139
21.9139
21.9139
21.9139
21.9139
21.9139
21.9139
21.9139
21.9139
21.9139
21.9139
21.9139
21.9139
21.9139
21.9139
21.9139
21.9139
21.9139
21.9139
21.9139
21.9139
21.9139
21.9139
21.9139
21.9139
21.9139
21.9139
21.9139
21.9139
21.9139
21.9139
21.9139
21.9139
21.9139
21.9139
21.9139
21.9139
21.9139
21.9139
21.9139
21.9139
21.9139
21.9139
21.9139
21.9139
21.9139
21.9139
21.9139
21.9139
21.9139
21.9139
21.9139
21.9139
21.9139
21.9139
21.9139
21.9139
21.9139
21.9139
21.9139
21.9139
21.9139
21.9139
21.9139
21.9139
21.9139
21.9139
21.9139
21.9139
21.9139
21.9139
21.9139
21.9139
21.9139
21.9139
21.9139
21.9139
21.9139
21.9139
21.9139
21.9139
21.9139
21.9139
21.9139
21.9139
21.9139
21.9139
21.9139
21.9139
21.9139
21.9139
21.9139
21.9139
21.9139
21.9139
21.9139
21.9139
21.9139
21.9139
21.9139
21.9139
21.9139
21.9139
21.9139
21.9139
21.9139
21.9139
21.9139
21.9139
21.9139
21.9139
21.9139
21.9139
21.9139
21.9139
21.9139
21.9139
21.9139
21.9139
21.9139
21.9139
21.9139
21.9139
21.9139
21.9139
21.9139
21.9139
21.9139
21.9139
21.9139
21.9139
21.9139
21.9139
21.9139
21.9139
21.9139
21.9139
21.9139
21.9139
21.9139
21.9139
21.9139
21.9139
21.9139
21.9139
21.9139
21.9139
21.9139
21.9139
21.9139
21.9139
21.9139
21.9139
21.9139
21.9139
21.9139
21.9139
21.9139
21.9139
21.9139
21.9139
21.9139
21.9139
21.9139
21.9139
21.9139
21.9139
21.9139
21.9139
21.9139
21.9139
21.9139
21.9139
21.9139
21.9139
21.9139
21.9139
21.9139
21.9139
21.9139
21.9139
21.9139
21.9139
21.9139
21.9139
21.9139
21.9139
21.9139
21.9139
21.9139
21.9139
21.9139
21.9139
21.9139
21.9139
21.9139
21.9139
21.9139
21.9139
21.9139
21.9139
21.9139
21.9139
21.9139
21.9139
21.9139
21.9139
21.9139
21.9139
21.9139
21.9139
21.9139
21.9139
21.9139
21.9139
21.9139
21.9139
21.9139
21.9139
21.9139
21.9139
21.9139
21.9139
21.9139
21.9139
21.9139
21.9139
21.9139
21.9139
21.9139
21.9139
21.9139
21.9139
21.9139
21.9139
21.9139
21.9139
21.9139
21.9139
21.9139
21.9139
21.9139
21.9139
21.9139
21.9139
21.9139
21.9139
21.9139
21.9139
21.9139
21.9139
21.9139
21.9139
21.9139
21.9139
21.9139
21.9139
21.9139
21.9139
21.9139
21.9139
21.9139
21.9139
21.9139
21.9139
21.9139
21.9139
21.9139
21.9139
21.9139
21.9139
21.9139
21.9139
21.9139
21.9139
21.9139
21.9139
21.9139
21.9139
21.9139
21.9139
21.9139
21.9139
21.9139
21.9139
21.9139
21.9139
21.9139
21.9139
21.9139
21.9139
21.9139
21.9139
21.9139
21.9139
21.9139
21.9139
21.9139
21.9139
21.9139
21.9139
21.9139
21.9139
21.9139
21.9139
21.9139
21.9139
21.9139
21.9139
21.9139
21.9139
21.9139
21.9139
21.9139
21.9139
21.9139
21.9139
21.9139
21.9139
21.9139
21.9139
21.9139
21.9139
21.9139
21.9139
21.9139
21.9139
21.9139
21.9139
21.9139
21.9139
21.9139
21.9139
21.9139
21.9139
21.9139
21.9139
21.9139
21.9139
21.9139
21.9139
21.9139
21.9139
21.9139
21.9139
21.9139
21.9139
21.9139
21.9139
21.9139
21.9139
21.9139
21.9139
21.9139
21.9139
21.9139
21.9139
21.9139
21.9139
21.9139
21.9139
21.9139
21.9139
21.9139
21.9139
21.9139
21.9139
21.9139
21.9139
21.9139
21.9139
21.9139
21.9139
21.9139
21.9139
21.9139
21.9139
21.9139
21.9139
21.9139
21.9139
21.9139
21.9139
21.9139
21.9139
21.9139
21.9139
21.9139
21.9139
21.9139
21.9139
21.9139
21.9139
21.9139
21.9139
21.9139
21.9139
21.9139
21.9139
21.9139
21.9139
21.9139
21.9139
21.9139
21.9139
21.9139
21.9139
21.9139
21.9139
21.9139
21.9139
21.9139
21.9139
21.9139
21.9139
21.9139
21.9139
21.9139
21.9139
21.9139
21.9139
21.9139
21.9139
21.9139
21.9139
21.9139
21.9139
21.9139
21.9139
21.9139
21.9139
21.9139
21.9139
21.9139
21.9139
21.9139
21.9139
21.9139
21.9139
21.9139
21.9139
21.9139
21.9139
21.9139
21.9139
21.9139
21.9139
21.9139
21.9139
21.9139
21.9139
21.9139
21.9139
21.9139
21.9139
21.9139
21.9139
21.9139
21.9139
21.9139
21.9139
21.9139
21.9139
21.9139
21.9139
21.9139
21.9139
21.9139
21.9139
21.9139
21.9139
21.9139
21.9139
21.9139
21.9139
21.9139
21.9139
21.9139
21.9139
21.9139
21.9139
21.9139
21.9139
21.9139
21.9139
21.9139
21.9139
21.9139
21.9139
21.9139
21.9139
21.9139
21.9139
21.9139
21.9139
21.9139
21.9139
21.9139
21.9139
21.9139
21.9139
21.9139
21.9139
21.9139
21.9139
21.9139
21.9139
21.9139
21.9139
21.9139
21.9139
21.9139
21.9139
21.9139
21.9139
21.9139
21.9139
21.9139
21.9139
21.9139
21.9139
21.9139
21.9139
21.9139
21.9139
21.9139
21.9139
21.9139
21.9139
21.9139
21.9139
21.9139
21.9139
21.9139
21.9139
21.9139
21.9139
21.9139
21.9139
21.9139
21.9139
21.9139
21.9139
21.9139
21.9139
21.9139
21.9139
21.9139
21.9139
21.9139
21.9139
21.9139
21.9139
21.9139
21.9139
21.9139
21.9139
21.9139
21.9139
21.9139
21.9139
21.9139
21.9139
21.9139
21.9139
21.9139
21.9139
21.9139
21.9139
21.9139
21.9139
21.9139
21.9139
21.9139
21.9139
21.9139
21.9139
21.9139
21.9139
21.9139
21.9139
21.9139
21.9139
21.9139
21.9139
21.9139
21.9139
21.9139
21.9139
21.9139
21.9139
21.9139
21.9139
21.9139
21.9139
21.9139
21.9139
21.9139
21.9139
21.9139
21.9139
21.9139
21.9139
21.9139
21.9139
21.9139
21.9139
21.9139
21.9139
21.9139
21.9139
21.9139
21.9139
21.9139
21.9139
21.9139
21.9139
21.9139
21.9139
21.9139
21.9139
21.9139
21.9139
21.9139
21.9139
21.9139
21.9139
21.9139
21.9139
21.9139
21.9139
21.9139
21.9139
21.9139
21.9139
21.9139
21.9139
21.9139
21.9139
21.9139
21.9139
21.9139
21.9139
21.9139
21.9139
21.9139
21.9139
21.9139
21.9139
21.9139
21.9139
21.9139
21.9139
21.9139
21.9139
21.9139
21.9139
21.9139
21.9139
21.9139
21.9139
21.9139
21.9139
21.9139
21.9139
21.9139
21.9139
21.9139
21.9139
21.9139
21.9139
21.9139
21.9139
21.9139
21.9139
21.9139
21.9139
21.9139
21.9139
21.9139
21.9139
21.9139
21.9139
21.9139
21.9139
21.9139
21.9139
21.9139
21.9139
21.9139
21.9139
21.9139
21.9139
21.9139
21.9139
21.9139
21.9139
21.9139
21.9139
21.9139
21.9139
21.9139
21.9139
21.9139
21.9139
21.9139
21.9139
21.9139
21.9139
21.9139
21.9139
21.9139
21.9139
21.9139
21.9139
21.9139
21.9139
21.9139
21.9139
21.9139
21.9139
21.9139
21.9139
21.9139
21.9139
21.9139
21.9139
21.9139
21.9139
21.9139
21.9139
21.9139
21.9139
21.9139
21.9139
21.9139
21.9139
21.9139
21.9139
21.9139
21.9139
21.9139
21.9139
21.9139
21.9139
21.9139
21.9139
21.9139
21.9139
21.9139
21.9139
21.9139
21.9139
21.9139
21.9139
21.9139
21.9139
21.9139
21.9139
21.9139
21.9139
21.9139
21.9139
21.9139
21.9139
21.9139
21.9139
21.9139
21.9139
21.9139
21.9139
21.9139
21.9139
21.9139
21.9139
21.9139
21.9139
21.9139
21.9139
21.9139
21.9139
21.9139
21.9139
21.9139
21.9139
21.9139
21.9139
21.9139
21.9139
21.9139
21.9139
21.9139
21.9139
21.9139
21.9139
21.9139
21.9139
21.9139
21.9139
21.9139
21.9139
21.9139
21.9139
21.9139
21.9139
21.9139
21.9139
21.914
21.9139
21.9139
21.9139
21.9139
21.9139
21.9139
21.9139
21.9139
21.9139
21.9139
21.9139
21.9139
21.9139
21.9139
21.9139
21.9139
21.9139
21.9139
21.9139
21.9139
21.9139
21.9139
21.9139
21.9139
21.9139
21.9139
21.9139
21.9139
21.9139
21.9139
21.9139
21.9139
21.9139
21.9139
21.9139
21.9139
21.9139
21.9139
21.9139
21.9139
21.9139
21.9139
21.9139
21.9139
21.9139
21.9139
21.914
21.914
21.9141
21.9142
21.9139
21.9139
21.9139
21.9139
21.9139
21.9139
21.9139
21.9139
21.9139
21.9139
21.9139
21.9139
21.9139
21.9139
21.9139
21.9139
21.9139
21.9139
21.9139
21.9139
21.9139
21.9139
21.9139
21.9139
21.9139
21.9139
21.9139
21.9139
21.9139
21.9139
21.9139
21.9139
21.9139
21.9139
21.9139
21.9139
21.9139
21.9139
21.9139
21.9139
21.9139
21.9139
21.9139
21.914
21.914
21.9141
21.9142
21.9144
21.9147
21.9154
21.9139
21.9139
21.9139
21.9139
21.9139
21.9139
21.9139
21.9139
21.9139
21.9139
21.9139
21.9139
21.9139
21.9139
21.9139
21.9139
21.9139
21.9139
21.9139
21.9139
21.9139
21.9139
21.9139
21.9139
21.9139
21.9139
21.9139
21.9139
21.9139
21.9139
21.9139
21.9139
21.9139
21.9139
21.9139
21.9139
21.9139
21.9139
21.9139
21.9139
21.914
21.914
21.9141
21.9142
21.9144
21.9147
21.9153
21.9163
21.9181
21.9213
21.9139
21.9139
21.9139
21.9139
21.9139
21.9139
21.9139
21.9139
21.9139
21.9139
21.9139
21.9139
21.9139
21.9139
21.9139
21.9139
21.9139
21.9139
21.9139
21.9139
21.9139
21.9139
21.9139
21.9139
21.9139
21.9139
21.9139
21.9139
21.9139
21.9139
21.9139
21.9139
21.9139
21.9139
21.9139
21.9139
21.9139
21.914
21.914
21.9141
21.9142
21.9144
21.9148
21.9154
21.9164
21.9182
21.9211
21.9262
21.9349
21.951
21.9139
21.9139
21.9139
21.9139
21.9139
21.9139
21.9139
21.9139
21.9139
21.9139
21.9139
21.9139
21.9139
21.9139
21.9139
21.9139
21.9139
21.9139
21.9139
21.9139
21.9139
21.9139
21.9139
21.9139
21.9139
21.9139
21.9139
21.9139
21.9139
21.9139
21.9139
21.9139
21.9139
21.914
21.914
21.914
21.9141
21.9143
21.9145
21.9149
21.9156
21.9166
21.9185
21.9215
21.9266
21.9352
21.9498
21.9745
22.0171
22.0942
21.9139
21.9139
21.9139
21.9139
21.9139
21.9139
21.9139
21.9139
21.9139
21.9139
21.9139
21.9139
21.9139
21.9139
21.9139
21.9139
21.9139
21.9139
21.9139
21.9139
21.9139
21.9139
21.9139
21.9139
21.9139
21.9139
21.9139
21.9139
21.9139
21.9139
21.914
21.914
21.9141
21.9142
21.9143
21.9146
21.915
21.9157
21.9169
21.9189
21.9221
21.9274
21.9363
21.9512
21.976
22.0176
22.0877
22.2057
22.4067
22.7623
21.9139
21.9139
21.9139
21.9139
21.9139
21.9139
21.9139
21.9139
21.9139
21.9139
21.9139
21.9139
21.9139
21.9139
21.9139
21.9139
21.9139
21.9139
21.9139
21.9139
21.9139
21.9139
21.9139
21.9139
21.9139
21.9139
21.9139
21.914
21.914
21.9141
21.9142
21.9144
21.9147
21.9152
21.916
21.9173
21.9195
21.923
21.9287
21.9381
21.9537
21.9793
22.0219
22.0925
22.2098
22.4049
22.7291
23.2664
24.1561
25.6502
21.9139
21.9139
21.9139
21.9139
21.9139
21.9139
21.9139
21.9139
21.9139
21.9139
21.9139
21.9139
21.9139
21.9139
21.9139
21.9139
21.9139
21.9139
21.9139
21.9139
21.9139
21.9139
21.9139
21.914
21.914
21.9141
21.9141
21.9143
21.9145
21.9149
21.9155
21.9164
21.9179
21.9203
21.9242
21.9305
21.9407
21.9574
21.9846
22.0292
22.1023
22.2224
22.4196
22.743
23.2716
24.1289
25.5028
27.6643
30.9877
35.9982
21.9139
21.9139
21.9139
21.9139
21.9139
21.9139
21.9139
21.9139
21.9139
21.9139
21.9139
21.9139
21.9139
21.9139
21.9139
21.9139
21.9139
21.9139
21.9139
21.914
21.914
21.914
21.9141
21.9142
21.9144
21.9147
21.9151
21.9158
21.9169
21.9186
21.9214
21.9258
21.9329
21.9443
21.9627
21.9923
22.0402
22.1178
22.2437
22.4481
22.7792
23.3138
24.1704
25.526
27.6309
30.8146
35.4735
42.0393
50.9479
62.6875
21.9139
21.9139
21.9139
21.9139
21.9139
21.9139
21.9139
21.9139
21.9139
21.9139
21.9139
21.9139
21.9139
21.9139
21.9139
21.9139
21.9139
21.914
21.914
21.9141
21.9142
21.9143
21.9145
21.9149
21.9154
21.9163
21.9176
21.9197
21.9229
21.9281
21.9363
21.9493
21.9699
22.0029
22.0556
22.1401
22.2754
22.4924
22.8396
23.3933
24.2696
25.6391
27.7401
30.8818
35.431
41.7789
50.2978
61.3093
75.0867
91.8635
112.14
21.9139
21.9139
21.9139
21.9139
21.9139
21.9139
21.9139
21.9139
21.9139
21.9139
21.9139
21.9139
21.9139
21.914
21.914
21.9141
21.9141
21.9143
21.9145
21.9147
21.9152
21.9159
21.9169
21.9186
21.9211
21.925
21.9312
21.9409
21.956
21.9799
22.0175
22.0769
22.171
22.32
22.5559
22.9288
23.5158
24.4327
25.8469
27.9883
31.1504
35.6767
41.9293
50.2498
60.9275
74.1924
90.2339
109.232
131.428
157.069
187.263
21.9139
21.9139
21.9139
21.9139
21.9139
21.9139
21.9139
21.9139
21.9139
21.9139
21.914
21.914
21.9141
21.9141
21.9142
21.9144
21.9147
21.915
21.9156
21.9165
21.9179
21.9199
21.9231
21.928
21.9355
21.9472
21.9653
21.9935
22.0375
22.1061
22.2134
22.3812
22.6438
23.0536
23.6901
24.6708
26.1622
28.3885
31.6302
36.2096
42.4614
50.6976
61.1804
74.117
89.676
108.017
129.323
153.841
181.945
214.215
250.95
294.588
21.9139
21.9139
21.9139
21.9139
21.9139
21.9139
21.914
21.914
21.9141
21.9141
21.9142
21.9144
21.9146
21.915
21.9155
21.9163
21.9174
21.9192
21.9219
21.9259
21.9321
21.9416
21.956
21.9782
22.0123
22.0648
22.1459
22.2712
22.4647
22.7637
23.2242
23.9297
25.0011
26.606
28.9648
32.3469
37.0547
43.396
51.6531
62.0612
74.8049
90.0344
107.894
128.545
152.203
179.176
209.918
244.937
284.817
330.8
384.183
451.082
21.9139
21.914
21.914
21.914
21.9141
21.9141
21.9142
21.9144
21.9146
21.9149
21.9154
21.9161
21.9172
21.9188
21.9212
21.9247
21.93
21.9381
21.9502
21.9685
21.9962
22.0384
22.1027
22.2007
22.3502
22.5786
22.9266
23.4554
24.2539
25.448
27.2079
29.7514
33.3372
38.2479
44.7638
53.1366
63.5735
76.2357
91.2558
108.763
128.907
151.88
177.953
207.532
241.11
279.22
322.648
372.867
432.009
502.714
585.364
684.854
21.9141
21.9141
21.9143
21.9144
21.9146
21.915
21.9154
21.9161
21.9171
21.9186
21.9208
21.9241
21.9289
21.936
21.9466
21.9625
21.9862
22.0218
22.0752
22.1556
22.2767
22.4593
22.7345
23.1484
23.7683
24.6901
26.046
28.0098
30.7966
34.6541
39.8443
46.619
55.1996
65.7652
78.4553
93.3861
110.674
130.461
152.921
178.299
206.947
239.336
275.962
317.456
364.926
420.215
485.594
562.97
652.595
752.565
856.104
961.376
21.9147
21.915
21.9155
21.9162
21.9172
21.9187
21.9208
21.9239
21.9285
21.9351
21.9449
21.9593
21.9805
22.0119
22.0585
22.1276
22.2304
22.3834
22.6112
22.9499
23.4522
24.193
25.2767
26.8425
29.0678
32.1641
36.3661
41.9131
49.0277
57.8999
68.6814
81.4907
96.4291
113.602
133.141
155.212
180.038
207.929
239.33
274.726
314.662
359.994
412.231
473.433
545.629
629.825
724.946
827.129
930.013
1026.72
1109.79
1178.39
21.9175
21.919
21.9212
21.9243
21.9288
21.9353
21.9447
21.9584
21.9783
22.0073
22.0498
22.1121
22.2035
22.3377
22.5351
22.8251
23.2503
23.8713
24.7724
26.0672
27.9021
30.4568
33.9369
38.5612
44.5438
52.0768
61.3198
72.3986
85.4134
100.453
117.616
137.024
158.84
183.27
210.595
241.222
275.622
314.293
357.921
407.721
465.513
533.312
612.523
702.944
801.966
904.401
1003.62
1092.96
1167.52
1224.93
1265.22
1290.65
21.9298
21.9365
21.9459
21.9596
21.9791
22.0072
22.0478
22.1066
22.1916
22.3149
22.4939
22.7536
23.1298
23.6733
24.4542
25.5672
27.1353
29.3113
32.2741
36.2199
41.3477
47.8437
55.8689
65.5537
77.0005
90.2936
105.512
122.747
142.117
163.779
187.928
214.826
244.84
278.432
316.075
358.35
406.242
461.327
525.504
600.36
686.292
781.688
882.491
982.817
1076.12
1156.85
1221.73
1269.83
1301.88
1320.41
1329.34
1331.29
22.0115
22.0521
22.1101
22.1929
22.3114
22.4812
22.7244
23.0723
23.569
24.2747
25.2706
26.6623
28.5813
31.1837
34.6437
39.1426
44.8554
51.9388
60.5232
70.7122
82.5885
96.2238
111.69
129.077
148.499
170.11
194.1
220.714
250.288
283.266
320.1
361.31
407.703
460.629
521.84
592.979
674.828
766.508
864.954
965.066
1060.78
1146.31
1217.61
1272.53
1311.51
1335.92
1349.36
1353.64
1354.39
1355.12
1353.08
22.3264
22.4948
22.7328
23.0689
23.5428
24.208
25.1362
26.4201
28.1752
30.5387
33.6653
37.7185
42.8592
49.2354
56.9731
66.1744
76.92
89.2771
103.309
119.084
136.69
156.241
177.889
201.818
228.263
257.535
290.058
326.272
366.653
411.886
463.133
521.985
590.054
668.331
756.464
852.185
951.225
1048.06
1136.92
1213.24
1274.42
1319.83
1350.22
1367.85
1376.21
1377.75
1378.25
1377.44
1373.87
1366.8
1356.04
23.59
24.2437
25.1446
26.3761
28.0416
30.2635
33.1797
36.9368
41.6808
47.5481
54.657
63.1048
72.9689
84.3123
97.1913
111.664
127.799
145.684
165.434
187.201
211.166
237.555
266.661
298.887
334.662
374.43
418.789
468.749
525.745
591.316
666.555
751.47
844.396
941.802
1038.71
1129.67
1209.92
1276.29
1327.21
1363.24
1385.89
1398.07
1401.68
1402.07
1402.25
1399.8
1394.09
1385.43
1374.07
1360.88
1345.66
30.3233
33.1318
36.7181
41.2131
46.7399
53.4069
61.304
70.5035
81.0633
93.0344
106.467
121.419
137.959
156.177
176.192
198.154
222.243
248.678
277.741
309.812
345.308
384.653
428.384
477.39
532.971
596.572
669.312
751.413
841.66
937.128
1033.43
1125.48
1208.45
1278.81
1334.63
1375.89
1403.28
1418.92
1425.94
1426.97
1426.85
1425.47
1421.53
1414.34
1404.16
1392.05
1377.96
1362.89
1347.61
1331.42
46.7375
53.1237
60.6455
69.3684
79.345
90.6204
103.239
117.25
132.711
149.696
168.297
188.636
210.866
235.163
261.741
290.874
322.925
358.301
397.401
440.724
489.068
543.616
605.713
676.452
756.172
843.977
937.424
1032.64
1124.94
1209.62
1283.03
1342.91
1388.4
1420.16
1439.77
1449.96
1452.4
1452.23
1451.73
1448.68
1442.54
1433.88
1422.76
1409.74
1395.22
1380.11
1364.57
1348.75
1333.13
1316.94
79.0458
89.8098
101.809
115.087
129.695
145.693
163.158
182.189
202.911
225.477
250.063
276.879
306.193
338.356
373.76
412.785
455.901
503.84
557.691
618.698
687.899
765.679
851.342
942.812
1036.66
1128.58
1214.16
1289.65
1352.53
1401.63
1437.4
1460.63
1473.46
1478.4
1478.61
1477.92
1475.79
1471.09
1463.55
1453.42
1441.49
1427.6
1412.77
1397.47
1381.83
1366.08
1350.33
1334.54
1319.01
1302.99
128.746
143.965
160.525
178.507
198.014
219.177
242.149
267.104
294.25
323.852
356.254
391.83
430.944
474.041
521.813
575.271
635.563
703.648
779.903
863.744
953.368
1045.7
1136.81
1222.57
1299.24
1364.27
1416.33
1455.2
1481.57
1497.31
1504.71
1505.68
1504.84
1503.47
1499.57
1492.75
1483.85
1472.76
1459.86
1445.52
1430.59
1415.14
1399.43
1383.67
1367.9
1352.16
1336.51
1320.85
1305.45
1289.58
195.923
215.955
237.617
261.065
286.469
314.038
344.037
376.804
412.695
452.055
495.317
543.145
596.491
656.408
723.76
798.874
881.217
969.165
1059.93
1149.9
1235.26
1312.39
1378.76
1432.87
1474.14
1503.3
1521.72
1530.97
1533.38
1532.73
1531.41
1528.23
1522.5
1514.39
1504.09
1492.12
1478.33
1463.67
1448.52
1432.97
1417.29
1401.54
1385.78
1370.05
1354.38
1338.76
1323.22
1307.68
1292.39
1276.65
282.43
308.366
336.455
366.962
400.225
436.572
476.335
519.941
568.043
621.541
681.395
748.359
822.68
903.827
990.277
1079.46
1168.06
1252.54
1329.49
1396.4
1451.76
1494.88
1526.14
1546.66
1557.77
1561.86
1561.47
1559.86
1557.3
1552.37
1544.75
1535.39
1524.16
1511.18
1496.91
1482.1
1466.74
1451.12
1435.41
1419.66
1403.92
1388.22
1372.55
1356.92
1341.36
1325.83
1310.39
1294.95
1279.75
1264.13
392.885
426.772
463.716
504.038
548.168
596.761
650.667
710.748
777.634
851.467
931.679
1016.79
1104.41
1191.46
1274.66
1350.85
1417.61
1473.5
1517.71
1550.37
1572.58
1585.5
1590.71
1590.89
1589.3
1587.02
1582.59
1575.61
1566.81
1556.24
1544
1530.22
1515.69
1500.63
1485.17
1469.55
1453.83
1438.08
1422.35
1406.65
1390.98
1375.36
1359.79
1344.25
1328.77
1313.34
1297.98
1282.62
1267.5
1251.98
580.31
629.615
684.178
744.751
811.827
885.431
964.918
1048.82
1134.85
1220.18
1301.75
1376.67
1442.67
1498.4
1542.99
1576.48
1599.86
1614.03
1620.21
1621.18
1619.69
1617.06
1613.21
1606.91
1598.42
1588.49
1576.99
1563.72
1549.48
1534.69
1519.41
1503.87
1488.23
1472.52
1456.79
1441.07
1425.37
1409.71
1394.08
1378.49
1362.94
1347.44
1331.98
1316.58
1301.21
1285.93
1270.65
1255.6
1240.18
783.744
851.239
924.812
1003.72
1086.47
1170.88
1254.29
1333.9
1407.08
1471.75
1526.67
1570.98
1604.74
1628.7
1643.65
1650.73
1652.23
1650.8
1648.04
1644.45
1638.61
1630.29
1620.88
1609.91
1597.23
1583.37
1568.93
1553.89
1538.47
1522.89
1507.22
1491.5
1475.78
1460.07
1444.38
1428.72
1413.08
1397.48
1381.92
1366.39
1350.91
1335.47
1320.07
1304.73
1289.44
1274.23
1259.03
1244.05
1228.72
1048.27
1129.86
1212.54
1293.81
1371.12
1442.12
1504.94
1558.43
1601.86
1635.29
1659.32
1674.61
1682.27
1684.08
1682.74
1680.02
1676.25
1670.79
1662.88
1653.61
1643.11
1631.06
1617.49
1603.27
1588.47
1573.22
1557.77
1542.19
1526.51
1510.79
1495.07
1479.36
1463.67
1448.01
1432.37
1416.76
1401.18
1385.63
1370.11
1354.64
1339.21
1323.83
1308.5
1293.22
1277.99
1262.85
1247.72
1232.81
1217.58
1413.36
1481.76
1542.21
1593.71
1635.75
1668.28
1691.81
1707.03
1714.89
1716.88
1715.54
1712.78
1708.73
1703.52
1695.99
1686.74
1676.57
1665.03
1651.79
1637.81
1623.34
1608.25
1592.89
1577.37
1561.74
1546.07
1530.37
1514.67
1498.97
1483.27
1467.6
1451.95
1436.32
1420.72
1405.15
1389.61
1374.11
1358.64
1343.22
1327.84
1312.51
1297.24
1282.02
1266.86
1251.78
1236.73
1221.88
1206.74
1632.47
1672.63
1703.71
1726.26
1741.01
1748.68
1750.63
1749.2
1746.34
1742.03
1736.82
1729.58
1720.33
1710.37
1699.18
1686.35
1672.59
1658.38
1643.48
1628.24
1612.84
1597.28
1581.64
1565.96
1550.25
1534.55
1518.86
1503.17
1487.49
1471.83
1456.18
1440.56
1424.97
1409.4
1393.86
1378.36
1362.9
1347.48
1332.1
1316.77
1301.5
1286.28
1271.12
1256.02
1241.01
1226.03
1211.25
1196.2
1776.58
1783.72
1785.36
1783.76
1780.74
1776.23
1770.78
1763.72
1754.42
1744.55
1733.65
1721.23
1707.63
1693.61
1678.94
1663.82
1648.54
1633.07
1617.47
1601.83
1586.15
1570.46
1554.76
1539.05
1523.36
1507.68
1492
1476.35
1460.7
1445.08
1429.48
1413.92
1398.38
1382.87
1367.41
1351.98
1336.6
1321.27
1306
1290.77
1275.61
1260.51
1245.47
1230.52
1215.61
1200.9
1185.93
1819.24
1815.97
1811.24
1805.48
1798.42
1789.18
1779.25
1768.48
1756.43
1742.96
1729.08
1714.67
1699.68
1684.49
1669.11
1653.58
1637.99
1622.35
1606.67
1590.98
1575.27
1559.57
1543.87
1528.17
1512.48
1496.8
1481.14
1465.5
1449.87
1434.27
1418.69
1403.15
1387.64
1372.17
1356.74
1341.35
1326.01
1310.73
1295.5
1280.32
1265.21
1250.17
1235.2
1220.31
1205.46
1190.81
1175.93
1833.66
1824.54
1814.48
1803.72
1791.9
1778.61
1764.82
1750.66
1735.79
1720.68
1705.42
1689.96
1674.42
1658.82
1643.17
1627.5
1611.81
1596.11
1580.4
1564.69
1548.98
1533.27
1517.57
1501.89
1486.21
1470.56
1454.92
1439.31
1423.73
1408.17
1392.65
1377.17
1361.73
1346.33
1330.99
1315.69
1300.45
1285.26
1270.14
1255.09
1240.1
1225.18
1210.36
1195.57
1180.99
1166.19
1839.4
1827.69
1814.59
1800.88
1786.9
1772.18
1757.14
1742
1726.62
1711.13
1695.58
1679.97
1664.32
1648.65
1632.96
1617.26
1601.54
1585.82
1570.1
1554.38
1538.66
1522.94
1507.24
1491.55
1475.89
1460.24
1444.61
1429.01
1413.45
1397.91
1382.42
1366.96
1351.55
1336.19
1320.88
1305.62
1290.42
1275.29
1260.22
1245.21
1230.28
1215.42
1200.66
1185.94
1171.41
1156.7
1837.26
1823.37
1808.82
1793.87
1778.84
1763.55
1748.11
1732.63
1717.06
1701.44
1685.8
1670.13
1654.43
1638.73
1623
1607.27
1591.54
1575.79
1560.05
1544.32
1528.59
1512.87
1497.16
1481.47
1465.81
1450.16
1434.55
1418.96
1403.42
1387.9
1372.43
1357
1341.62
1326.3
1311.02
1295.81
1280.65
1265.56
1250.54
1235.58
1220.71
1205.9
1191.2
1176.54
1162.08
1147.44
1830.88
1815.93
1800.75
1785.38
1769.96
1754.45
1738.87
1723.26
1707.61
1691.93
1676.24
1660.52
1644.79
1629.04
1613.29
1597.53
1581.77
1566.01
1550.25
1534.5
1518.75
1503.03
1487.32
1471.63
1455.97
1440.33
1424.73
1409.16
1393.62
1378.13
1362.69
1347.29
1331.94
1316.64
1301.41
1286.23
1271.11
1256.07
1241.09
1226.19
1211.37
1196.62
1181.97
1167.38
1152.98
1138.42
1822.92
1807.56
1792.12
1776.58
1761.02
1745.41
1729.75
1714.07
1698.37
1682.64
1666.89
1651.14
1635.36
1619.59
1603.8
1588.01
1572.22
1556.44
1540.66
1524.9
1509.15
1493.41
1477.7
1462.01
1446.35
1430.73
1415.13
1399.58
1384.06
1368.59
1353.17
1337.8
1322.48
1307.22
1292.02
1276.88
1261.81
1246.81
1231.88
1217.02
1202.25
1187.56
1172.97
1158.44
1144.1
1129.62
1814.59
1799.07
1783.5
1767.88
1752.23
1736.55
1720.83
1705.09
1689.33
1673.56
1657.77
1641.96
1626.15
1610.34
1594.52
1578.71
1562.89
1547.09
1531.3
1515.52
1499.76
1484.02
1468.31
1452.62
1436.97
1421.35
1405.77
1390.23
1374.73
1359.28
1343.88
1328.54
1313.25
1298.02
1282.85
1267.75
1252.72
1237.76
1222.88
1208.08
1193.36
1178.73
1164.2
1149.73
1135.46
1121.05
1806.31
1790.69
1775.04
1759.34
1743.62
1727.88
1712.1
1696.31
1680.5
1664.67
1648.84
1632.99
1617.14
1601.29
1585.45
1569.6
1553.77
1537.95
1522.14
1506.35
1490.58
1474.84
1459.12
1443.44
1427.79
1412.18
1396.61
1381.09
1365.61
1350.18
1334.81
1319.49
1304.23
1289.04
1273.91
1258.84
1243.86
1228.94
1214.11
1199.36
1184.69
1170.12
1155.64
1141.23
1127.01
1112.68
1782.48
1766.75
1750.99
1735.2
1719.39
1703.56
1687.71
1671.85
1655.97
1640.09
1624.21
1608.32
1592.44
1576.56
1560.7
1544.84
1529
1513.18
1497.38
1481.61
1465.86
1450.15
1434.47
1418.83
1403.22
1387.67
1372.16
1356.7
1341.29
1325.94
1310.65
1295.43
1280.26
1265.17
1250.15
1235.2
1220.34
1205.55
1190.85
1176.23
1161.7
1147.28
1132.93
1118.76
1104.5
1774.43
1758.63
1742.8
1726.94
1711.07
1695.19
1679.28
1663.37
1647.45
1631.53
1615.61
1599.69
1583.78
1567.87
1551.98
1536.11
1520.25
1504.42
1488.61
1472.83
1457.08
1441.37
1425.69
1410.06
1394.47
1378.93
1363.43
1347.99
1332.61
1317.29
1302.03
1286.83
1271.71
1256.65
1241.67
1226.76
1211.93
1197.19
1182.53
1167.96
1153.47
1139.11
1124.81
1110.71
1096.52
1766.54
1750.66
1734.77
1718.85
1702.92
1686.98
1671.03
1655.07
1639.1
1623.14
1607.18
1591.23
1575.29
1559.36
1543.45
1527.56
1511.69
1495.85
1480.03
1464.25
1448.5
1432.79
1417.12
1401.49
1385.91
1370.38
1354.91
1339.49
1324.14
1308.84
1293.61
1278.45
1263.35
1248.32
1233.38
1218.5
1203.71
1189
1174.39
1159.87
1145.44
1131.13
1116.89
1102.85
1088.73
1742.85
1726.89
1710.91
1694.93
1678.93
1662.93
1646.93
1630.92
1614.93
1598.93
1582.95
1566.99
1551.03