/*--------------------------------*- C++ -*----------------------------------*\
| =========                 |                                                 |
| \\      /  F ield         | OpenFOAM: The Open Source CFD Toolbox           |
|  \\    /   O peration     | Version:  v1706                                 |
|   \\  /    A nd           | Web:      www.OpenFOAM.com                      |
|    \\/     M anipulation  |                                                 |
\*---------------------------------------------------------------------------*/
FoamFile
{
    version     2.0;
    format      ascii;
    class       volScalarField;
    location    "2e-05";
    object      Tt;
}
// * * * * * * * * * * * * * * * * * * * * * * * * * * * * * * * * * * * * * //

dimensions      [0 0 0 1 0 0 0];


internalField   nonuniform List<scalar> 
30038
(
144.4
144.4
144.4
144.4
144.4
144.4
144.4
144.4
144.4
144.4
144.4
144.4
144.4
144.4
144.4
144.4
144.4
144.4
144.4
144.4
144.4
144.4
144.4
144.4
144.4
144.4
144.4
144.4
144.4
144.4
144.4
144.4
144.4
144.4
144.4
144.4
144.4
144.4
144.4
144.4
144.4
144.4
144.4
144.4
144.4
144.4
144.4
144.4
144.4
144.4
144.4
144.4
144.4
144.4
144.4
144.4
144.4
144.4
144.4
144.4
144.4
144.4
144.4
144.4
144.4
144.4
144.4
144.4
144.4
144.4
144.4
144.4
144.4
144.4
144.4
144.4
144.4
144.4
144.4
144.4
144.4
144.4
144.4
144.4
144.4
144.4
144.4
144.4
144.4
144.4
144.4
144.4
144.4
144.4
144.4
144.4
144.4
144.4
144.4
144.4
144.4
144.4
144.4
144.4
144.4
144.4
144.4
144.4
144.4
144.4
144.4
144.4
144.4
144.4
144.4
144.4
144.4
144.4
144.4
144.4
144.4
144.4
144.4
144.4
144.4
144.4
144.4
144.4
144.4
144.4
144.4
144.4
144.4
144.4
144.4
144.4
144.4
144.4
144.4
144.4
144.4
144.4
144.4
144.4
144.4
144.4
144.4
144.4
144.4
144.4
144.4
144.4
144.4
144.4
144.4
144.4
144.4
144.4
144.4
144.4
144.4
144.4
144.4
144.4
144.4
144.4
144.4
144.4
144.4
144.4
144.4
144.4
144.4
144.4
144.4
144.4
144.4
144.4
144.4
144.4
144.4
144.4
144.4
144.4
144.4
144.4
144.4
144.4
144.4
144.4
144.4
144.4
144.4
144.4
144.4
144.4
144.4
144.4
144.4
144.4
144.4
144.4
144.4
144.4
144.4
144.4
144.4
144.4
144.4
144.4
144.4
144.4
144.4
144.4
144.4
144.4
144.4
144.4
144.4
144.4
144.4
144.4
144.4
144.4
144.4
144.4
144.4
144.4
144.4
144.4
144.4
144.4
144.4
144.4
144.4
144.4
144.4
144.4
144.4
144.4
144.4
144.4
144.4
144.4
144.4
144.4
144.4
144.4
144.4
144.4
144.4
144.4
144.4
144.4
144.4
144.4
144.4
144.4
144.4
144.4
144.4
144.4
144.4
144.4
144.4
144.4
144.4
144.4
144.4
144.4
144.4
144.4
144.4
144.4
144.4
144.4
144.4
144.4
144.4
144.4
144.4
144.4
144.4
144.4
144.4
144.4
144.4
144.4
144.4
144.4
144.4
144.4
144.4
144.4
144.4
144.4
144.4
144.4
144.4
144.4
144.4
144.4
144.4
144.4
144.4
144.4
144.4
144.4
144.4
144.4
144.4
144.4
144.4
144.4
144.4
144.4
144.4
144.4
144.4
144.4
144.4
144.4
144.4
144.4
144.4
144.4
144.4
144.4
144.4
144.4
144.4
144.4
144.4
144.4
144.4
144.4
144.4
144.4
144.4
144.4
144.4
144.4
144.4
144.4
144.4
144.4
144.4
144.4
144.4
144.4
144.4
144.4
144.4
144.4
144.4
144.4
144.4
144.4
144.4
144.4
144.4
144.4
144.4
144.4
144.4
144.4
144.4
144.4
144.4
144.4
144.4
144.4
144.4
144.4
144.4
144.4
144.4
144.4
144.4
144.4
144.4
144.4
144.4
144.4
144.4
144.4
144.4
144.4
144.4
144.4
144.4
144.4
144.4
144.4
144.4
144.4
144.4
144.4
144.4
144.4
144.4
144.4
144.4
144.4
144.4
144.4
144.4
144.4
144.4
144.4
144.4
144.4
144.4
144.4
144.4
144.4
144.4
144.4
144.4
144.4
144.4
144.4
144.4
144.4
144.4
144.4
144.4
144.4
144.4
144.4
144.4
144.4
144.4
144.4
144.4
144.4
144.4
144.4
144.4
144.4
144.4
144.4
144.4
144.4
144.4
144.4
144.4
144.4
144.4
144.4
144.4
144.4
144.4
144.4
144.4
144.4
144.4
144.4
144.4
144.4
144.4
144.4
144.4
144.4
144.4
144.4
144.4
144.4
144.4
144.4
144.4
144.4
144.4
144.4
144.4
144.4
144.4
144.4
144.4
144.4
144.4
144.4
144.4
144.4
144.4
144.4
144.4
144.4
144.4
144.4
144.4
144.4
144.4
144.4
144.4
144.4
144.4
144.4
144.4
144.4
144.4
144.4
144.4
144.4
144.4
144.4
144.4
144.4
144.4
144.4
144.4
144.4
144.4
144.4
144.4
144.4
144.4
144.4
144.4
144.4
144.4
144.4
144.4
144.4
144.4
144.4
144.4
144.4
144.4
144.4
144.4
144.4
144.4
144.4
144.4
144.4
144.4
144.4
144.4
144.4
144.4
144.4
144.4
144.4
144.4
144.4
144.4
144.4
144.4
144.4
144.4
144.4
144.4
144.4
144.4
144.4
144.4
144.4
144.4
144.4
144.4
144.4
144.4
144.4
144.4
144.4
144.4
144.4
144.4
144.4
144.4
144.4
144.4
144.4
144.4
144.4
144.4
144.4
144.4
144.4
144.4
144.4
144.4
144.4
144.4
144.4
144.4
144.4
144.4
144.4
144.4
144.4
144.4
144.4
144.4
144.4
144.4
144.4
144.4
144.4
144.4
144.4
144.4
144.4
144.4
144.4
144.4
144.4
144.4
144.4
144.4
144.4
144.4
144.4
144.4
144.4
144.4
144.4
144.4
144.4
144.4
144.4
144.4
144.4
144.4
144.4
144.4
144.4
144.4
144.4
144.4
144.4
144.4
144.4
144.4
144.4
144.4
144.4
144.4
144.4
144.4
144.4
144.4
144.4
144.4
144.4
144.4
144.4
144.4
144.4
144.4
144.4
144.4
144.4
144.4
144.4
144.4
144.4
144.4
144.4
144.4
144.4
144.4
144.4
144.4
144.4
144.4
144.4
144.4
144.4
144.4
144.4
144.4
144.4
144.4
144.4
144.4
144.4
144.4
144.4
144.4
144.4
144.4
144.4
144.4
144.4
144.4
144.4
144.4
144.4
144.4
144.4
144.4
144.4
144.4
144.4
144.4
144.4
144.4
144.4
144.4
144.4
144.4
144.4
144.4
144.4
144.4
144.4
144.4
144.4
144.4
144.4
144.4
144.4
144.4
144.4
144.4
144.4
144.4
144.4
144.4
144.4
144.4
144.4
144.4
144.4
144.4
144.4
144.4
144.4
144.4
144.4
144.4
144.4
144.4
144.4
144.4
144.4
144.4
144.4
144.4
144.4
144.4
144.4
144.4
144.4
144.4
144.4
144.4
144.4
144.4
144.4
144.4
144.4
144.4
144.4
144.4
144.4
144.4
144.4
144.4
144.4
144.4
144.4
144.4
144.4
144.4
144.4
144.4
144.4
144.4
144.4
144.4
144.4
144.4
144.4
144.4
144.4
144.4
144.4
144.4
144.4
144.4
144.4
144.4
144.4
144.4
144.4
144.4
144.4
144.4
144.4
144.4
144.4
144.4
144.4
144.4
144.4
144.4
144.4
144.4
144.4
144.4
144.4
144.4
144.4
144.4
144.4
144.4
144.4
144.4
144.4
144.4
144.4
144.4
144.4
144.4
144.4
144.4
144.4
144.4
144.4
144.4
144.4
144.4
144.4
144.4
144.4
144.4
144.4
144.4
144.4
144.4
144.4
144.4
144.4
144.4
144.4
144.4
144.4
144.4
144.4
144.4
144.4
144.4
144.4
144.4
144.4
144.4
144.4
144.4
144.4
144.4
144.4
144.4
144.4
144.4
144.4
144.4
144.4
144.4
144.4
144.4
144.4
144.4
144.4
144.4
144.4
144.4
144.4
144.4
144.4
144.4
144.4
144.4
144.4
144.4
144.4
144.4
144.4
144.4
144.4
144.4
144.4
144.4
144.4
144.4
144.4
144.4
144.4
144.4
144.4
144.4
144.4
144.4
144.4
144.4
144.4
144.4
144.4
144.4
144.4
144.4
144.4
144.4
144.4
144.4
144.4
144.4
144.4
144.4
144.4
144.4
144.4
144.4
144.4
144.4
144.4
144.4
144.4
144.4
144.4
144.4
144.4
144.4
144.4
144.4
144.4
144.4
144.4
144.4
144.4
144.4
144.4
144.4
144.4
144.4
144.4
144.4
144.4
144.4
144.4
144.4
144.4
144.4
144.4
144.4
144.4
144.4
144.4
144.4
144.4
144.4
144.4
144.4
144.4
144.4
144.4
144.4
144.4
144.4
144.4
144.4
144.4
144.4
144.4
144.4
144.4
144.4
144.4
144.4
144.4
144.4
144.4
144.4
144.4
144.4
144.4
144.4
144.4
144.4
144.4
144.4
144.4
144.4
144.4
144.4
144.4
144.4
144.4
144.4
144.4
144.4
144.4
144.4
144.4
144.4
144.4
144.4
144.4
144.4
144.4
144.4
144.4
144.4
144.4
144.4
144.4
144.4
144.4
144.4
144.4
144.4
144.4
144.4
144.4
144.4
144.4
144.4
144.4
144.4
144.4
144.4
144.4
144.4
144.4
144.4
144.4
144.4
144.4
144.4
144.4
144.4
144.4
144.4
144.4
144.4
144.4
144.4
144.4
144.4
144.4
144.4
144.4
144.4
144.4
144.4
144.4
144.4
144.4
144.4
144.4
144.4
144.4
144.4
144.4
144.4
144.4
144.4
144.4
144.4
144.4
144.4
144.4
144.4
144.4
144.4
144.4
144.4
144.4
144.4
144.4
144.4
144.4
144.4
144.4
144.4
144.4
144.4
144.4
144.4
144.4
144.4
144.4
144.4
144.4
144.4
144.4
144.4
144.4
144.4
144.4
144.4
144.4
144.4
144.4
144.4
144.4
144.4
144.4
144.4
144.4
144.4
144.4
144.4
144.4
144.4
144.4
144.4
144.4
144.4
144.4
144.4
144.4
144.4
144.4
144.4
144.4
144.4
144.4
144.4
144.4
144.4
144.4
144.4
144.4
144.4
144.4
144.4
144.4
144.4
144.4
144.4
144.4
144.4
144.4
144.4
144.4
144.4
144.4
144.4
144.4
144.4
144.4
144.4
144.4
144.4
144.4
144.4
144.4
144.4
144.4
144.4
144.4
144.4
144.4
144.4
144.4
144.4
144.4
144.4
144.4
144.4
144.4
144.4
144.4
144.4
144.4
144.4
144.4
144.4
144.4
144.4
144.4
144.4
144.4
144.4
144.4
144.4
144.4
144.4
144.4
144.4
144.4
144.4
144.4
144.4
144.4
144.4
144.4
144.4
144.4
144.4
144.4
144.4
144.4
144.4
144.4
144.4
144.4
144.4
144.4
144.4
144.4
144.4
144.4
144.4
144.4
144.4
144.4
144.4
144.4
144.4
144.4
144.4
144.4
144.4
144.4
144.4
144.4
144.4
144.4
144.4
144.4
144.4
144.4
144.4
144.4
144.4
144.4
144.4
144.4
144.4
144.4
144.4
144.4
144.4
144.4
144.4
144.4
144.4
144.4
144.4
144.4
144.4
144.4
144.4
144.4
144.4
144.4
144.4
144.4
144.4
144.4
144.4
144.4
144.4
144.4
144.4
144.4
144.4
144.4
144.4
144.4
144.4
144.4
144.4
144.4
144.4
144.4
144.4
144.4
144.4
144.4
144.4
144.4
144.4
144.4
144.4
144.4
144.4
144.4
144.4
144.4
144.4
144.4
144.4
144.4
144.4
144.4
144.4
144.4
144.4
144.4
144.4
144.4
144.4
144.4
144.4
144.4
144.4
144.4
144.4
144.4
144.4
144.4
144.4
144.4
144.4
144.4
144.4
144.4
144.4
144.4
144.4
144.4
144.4
144.4
144.4
144.4
144.4
144.4
144.4
144.4
144.4
144.4
144.4
144.4
144.4
144.4
144.4
144.4
144.4
144.4
144.4
144.4
144.4
144.4
144.4
144.4
144.4
144.4
144.4
144.4
144.4
144.4
144.4
144.4
144.4
144.4
144.4
144.4
144.4
144.4
144.4
144.4
144.4
144.4
144.4
144.4
144.4
144.4
144.4
144.4
144.4
144.4
144.4
144.4
144.4
144.4
144.4
144.4
144.4
144.4
144.4
144.4
144.4
144.4
144.4
144.4
144.4
144.4
144.4
144.4
144.4
144.4
144.4
144.4
144.4
144.4
144.4
144.4
144.4
144.4
144.4
144.4
144.4
144.4
144.4
144.4
144.4
144.4
144.4
144.4
144.4
144.4
144.4
144.4
144.4
144.4
144.4
144.4
144.4
144.4
144.4
144.4
144.4
144.4
144.4
144.4
144.4
144.4
144.4
144.4
144.4
144.4
144.4
144.4
144.4
144.4
144.4
144.4
144.4
144.4
144.4
144.4
144.4
144.4
144.4
144.4
144.4
144.4
144.4
144.4
144.4
144.4
144.4
144.4
144.4
144.4
144.4
144.4
144.4
144.4
144.4
144.4
144.4
144.4
144.4
144.4
144.4
144.4
144.4
144.4
144.4
144.4
144.4
144.4
144.4
144.4
144.4
144.4
144.4
144.4
144.4
144.4
144.4
144.4
144.4
144.4
144.4
144.4
144.4
144.4
144.4
144.4
144.4
144.4
144.4
144.401
144.401
144.402
144.4
144.4
144.4
144.4
144.4
144.4
144.4
144.4
144.4
144.4
144.4
144.4
144.4
144.4
144.4
144.4
144.4
144.4
144.4
144.4
144.4
144.4
144.4
144.4
144.4
144.4
144.4
144.4
144.4
144.4
144.4
144.4
144.4
144.4
144.4
144.4
144.4
144.4
144.4
144.4
144.4
144.4
144.4
144.4
144.401
144.401
144.402
144.403
144.405
144.409
144.4
144.4
144.4
144.4
144.4
144.4
144.4
144.4
144.4
144.4
144.4
144.4
144.4
144.4
144.4
144.4
144.4
144.4
144.4
144.4
144.4
144.4
144.4
144.4
144.4
144.4
144.4
144.4
144.4
144.4
144.4
144.4
144.4
144.4
144.4
144.4
144.4
144.4
144.4
144.4
144.4
144.401
144.401
144.402
144.403
144.405
144.409
144.415
144.426
144.447
144.4
144.4
144.4
144.4
144.4
144.4
144.4
144.4
144.4
144.4
144.4
144.4
144.4
144.4
144.4
144.4
144.4
144.4
144.4
144.4
144.4
144.4
144.4
144.4
144.4
144.4
144.4
144.4
144.4
144.4
144.4
144.4
144.4
144.4
144.4
144.4
144.4
144.4
144.401
144.401
144.402
144.403
144.406
144.41
144.416
144.427
144.445
144.477
144.532
144.633
144.4
144.4
144.4
144.4
144.4
144.4
144.4
144.4
144.4
144.4
144.4
144.4
144.4
144.4
144.4
144.4
144.4
144.4
144.4
144.4
144.4
144.4
144.4
144.4
144.4
144.4
144.4
144.4
144.4
144.4
144.4
144.4
144.4
144.4
144.401
144.401
144.401
144.402
144.404
144.406
144.41
144.417
144.429
144.448
144.48
144.534
144.626
144.781
145.05
145.535
144.4
144.4
144.4
144.4
144.4
144.4
144.4
144.4
144.4
144.4
144.4
144.4
144.4
144.4
144.4
144.4
144.4
144.4
144.4
144.4
144.4
144.4
144.4
144.4
144.4
144.4
144.4
144.4
144.4
144.4
144.4
144.401
144.401
144.402
144.403
144.404
144.407
144.412
144.419
144.431
144.452
144.485
144.541
144.635
144.791
145.054
145.495
146.239
147.506
149.743
144.4
144.4
144.4
144.4
144.4
144.4
144.4
144.4
144.4
144.4
144.4
144.4
144.4
144.4
144.4
144.4
144.4
144.4
144.4
144.4
144.4
144.4
144.4
144.4
144.4
144.4
144.4
144.4
144.401
144.401
144.402
144.403
144.405
144.408
144.413
144.422
144.435
144.457
144.493
144.553
144.65
144.812
145.081
145.526
146.266
147.497
149.54
152.922
158.512
167.84
144.4
144.4
144.4
144.4
144.4
144.4
144.4
144.4
144.4
144.4
144.4
144.4
144.4
144.4
144.4
144.4
144.4
144.4
144.4
144.4
144.4
144.4
144.4
144.4
144.401
144.401
144.402
144.402
144.404
144.406
144.41
144.416
144.425
144.44
144.465
144.504
144.569
144.674
144.846
145.127
145.589
146.347
147.591
149.631
152.961
158.349
166.949
180.392
200.854
231.128
144.4
144.4
144.4
144.4
144.4
144.4
144.4
144.4
144.4
144.4
144.4
144.4
144.4
144.4
144.4
144.4
144.4
144.4
144.4
144.4
144.401
144.401
144.401
144.402
144.403
144.405
144.408
144.412
144.419
144.43
144.447
144.475
144.52
144.592
144.708
144.895
145.197
145.688
146.483
147.774
149.864
153.233
158.62
167.112
180.214
199.837
228.126
267.142
318.531
383.194
144.4
144.4
144.4
144.4
144.4
144.4
144.4
144.4
144.4
144.4
144.4
144.4
144.4
144.4
144.4
144.4
144.4
144.4
144.401
144.401
144.402
144.403
144.404
144.406
144.41
144.415
144.423
144.436
144.457
144.49
144.541
144.623
144.754
144.962
145.296
145.829
146.685
148.056
150.249
153.741
159.254
167.838
180.923
200.303
227.963
265.765
315.055
376.364
449.347
533.035
625.872
144.4
144.4
144.4
144.4
144.4
144.4
144.4
144.4
144.4
144.4
144.4
144.4
144.4
144.4
144.401
144.401
144.402
144.402
144.403
144.405
144.408
144.412
144.419
144.429
144.445
144.47
144.509
144.571
144.666
144.817
145.055
145.431
146.026
146.969
148.46
150.817
154.52
160.291
169.156
182.495
202.003
229.535
266.805
315.043
374.712
445.434
526.108
615.17
710.862
811.499
915.323
144.4
144.4
144.4
144.4
144.4
144.4
144.4
144.4
144.4
144.4
144.4
144.401
144.401
144.401
144.402
144.403
144.405
144.407
144.411
144.416
144.425
144.438
144.458
144.489
144.537
144.611
144.725
144.904
145.182
145.616
146.296
147.358
149.02
151.61
155.627
161.801
171.149
185.013
205.005
232.849
270.11
317.883
376.562
445.778
524.512
611.297
704.437
802.165
902.772
1004.64
1106.14
1205.86
144.4
144.4
144.4
144.4
144.4
144.4
144.4
144.401
144.401
144.401
144.402
144.403
144.405
144.407
144.41
144.415
144.422
144.434
144.45
144.476
144.515
144.575
144.667
144.807
145.023
145.356
145.87
146.663
147.889
149.782
152.694
157.147
163.89
173.946
188.624
209.458
238.042
275.78
323.613
381.839
450.068
527.342
612.307
703.405
799.007
897.494
997.3
1096.81
1194.42
1288.7
1378.23
1461.8
144.4
144.4
144.4
144.401
144.401
144.401
144.402
144.403
144.404
144.407
144.41
144.414
144.421
144.431
144.446
144.468
144.502
144.553
144.63
144.746
144.922
145.189
145.597
146.218
147.166
148.613
150.817
154.162
159.202
166.714
177.732
193.538
215.586
245.333
284.006
332.377
390.622
458.313
534.525
618.004
707.323
800.992
897.524
995.482
1093.42
1189.83
1283.25
1372.31
1455.51
1531.18
1597.51
1653.97
144.401
144.402
144.402
144.403
144.405
144.407
144.41
144.414
144.421
144.43
144.444
144.464
144.495
144.54
144.608
144.708
144.859
145.084
145.423
145.933
146.702
147.86
149.605
152.227
156.147
161.964
170.487
182.764
200.047
223.7
255.029
295.071
344.415
403.104
470.654
546.164
628.465
716.247
808.152
902.827
998.949
1095.22
1190.25
1282.7
1371.26
1454.62
1531.26
1599.53
1658
1706.01
1743.67
1772.66
144.405
144.407
144.41
144.415
144.421
144.43
144.444
144.464
144.493
144.535
144.597
144.688
144.823
145.022
145.318
145.757
146.409
147.381
148.827
150.975
154.156
158.841
165.673
175.503
189.386
208.533
234.2
267.522
309.334
360.031
419.52
487.256
562.357
643.728
730.169
820.444
913.327
1007.61
1102.11
1195.61
1286.84
1374.58
1457.65
1534.74
1604.34
1665.02
1715.82
1756.54
1787.84
1811.05
1827.61
1839.54
144.423
144.432
144.446
144.466
144.495
144.536
144.596
144.682
144.809
144.994
145.264
145.659
146.24
147.093
148.347
150.188
152.884
156.817
162.511
170.663
182.159
198.051
219.486
247.588
283.299
327.239
379.61
440.185
508.368
583.293
663.938
749.206
837.98
929.148
1021.61
1114.3
1206.12
1295.9
1382.51
1464.87
1541.83
1612.07
1674.23
1727.2
1770.52
1804.49
1830.1
1848.69
1861.74
1870.67
1876.6
1880.66
144.501
144.543
144.604
144.69
144.814
144.993
145.252
145.625
146.166
146.95
148.088
149.738
152.127
155.573
160.515
167.538
177.392
190.985
209.342
233.516
264.468
302.927
349.294
403.583
465.451
534.258
609.165
689.22
773.429
860.781
950.275
1040.92
1131.73
1221.74
1309.9
1395.13
1476.44
1552.82
1623.11
1686.05
1740.51
1785.86
1822.1
1849.91
1870.42
1885.02
1895.09
1901.75
1906
1908.54
1909.73
1910.43
145.021
145.28
145.648
146.176
146.93
148.01
149.556
151.767
154.92
159.392
165.686
174.45
186.474
202.664
223.984
251.354
285.54
327.047
376.058
432.423
495.701
565.229
640.204
719.751
802.967
888.95
976.795
1065.61
1154.51
1242.61
1328.97
1412.6
1492.58
1567.98
1637.81
1700.92
1756.23
1802.99
1840.99
1870.65
1892.94
1909.01
1920.19
1927.67
1932.4
1935.27
1936.61
1936.94
1936.97
1936.66
1935.69
147.027
148.099
149.614
151.752
154.762
158.981
164.854
172.952
183.97
198.716
218.058
242.851
273.843
311.582
356.345
408.118
466.614
531.326
601.588
676.645
755.698
837.938
922.557
1008.74
1095.7
1182.62
1268.71
1353.12
1434.95
1513.34
1587.45
1656.39
1719.15
1774.72
1822.3
1861.54
1892.68
1916.43
1933.81
1946.05
1954.35
1959.59
1962.71
1964.32
1964.59
1964.32
1963.86
1962.84
1961.06
1958.83
1956.33
155.07
159.219
164.924
172.699
183.168
197.055
215.14
238.204
266.946
301.909
343.411
391.519
446.054
506.63
572.703
643.63
718.712
797.228
878.457
961.679
1046.17
1131.22
1216.09
1300.06
1382.38
1462.23
1538.8
1611.33
1679.02
1740.99
1796.29
1844.14
1884.11
1916.26
1941.13
1959.62
1972.81
1981.81
1987.55
1990.98
1992.8
1993.07
1992.6
1991.9
1990.8
1988.99
1986.64
1983.97
1980.98
1977.91
1974.87
197.479
214.919
236.976
264.288
297.359
336.508
381.838
433.239
490.409
552.903
620.176
691.622
766.607
844.488
924.626
1006.38
1089.11
1172.17
1254.9
1336.65
1416.74
1494.43
1568.97
1639.66
1705.79
1766.57
1821.14
1868.77
1908.96
1941.68
1967.33
1986.64
2000.57
2010.18
2016.4
2020.09
2021.99
2022.39
2021.81
2020.79
2019.49
2017.7
2015.28
2012.45
2009.27
2005.91
2002.5
1999.11
1995.75
1992.43
297.573
335.185
378.556
427.607
482.096
541.648
605.801
674.03
745.784
820.495
897.595
976.519
1056.7
1137.57
1218.54
1299.03
1378.44
1456.16
1531.51
1603.82
1672.44
1736.73
1795.98
1849.43
1896.36
1936.31
1969.17
1995.21
2015.03
2029.5
2039.59
2046.15
2050.06
2052.05
2052.52
2051.85
2050.55
2048.98
2047.09
2044.56
2041.57
2038.32
2034.74
2031.07
2027.37
2023.68
2019.98
2016.3
2012.66
2009.05
481.338
538.567
600.141
665.607
734.486
806.282
880.494
956.626
1034.18
1112.65
1191.53
1270.3
1348.42
1425.37
1500.57
1573.43
1643.31
1709.64
1771.83
1829.25
1881.2
1927.05
1966.33
1998.89
2024.94
2044.96
2059.74
2070.11
2076.89
2080.96
2083.02
2083.43
2082.72
2081.23
2079.31
2077.19
2074.62
2071.49
2068.04
2064.28
2060.34
2056.36
2052.39
2048.42
2044.44
2040.48
2036.52
2032.56
2028.63
2024.72
732.503
801.673
873.206
946.661
1021.6
1097.6
1174.2
1250.94
1327.36
1402.99
1477.32
1549.87
1620.06
1687.33
1751.17
1811.02
1866.33
1916.48
1960.87
1999.09
2030.97
2056.66
2076.56
2091.36
2101.83
2108.71
2112.85
2114.87
2115.19
2114.44
2112.76
2110.5
2108.08
2105.38
2102.07
2098.41
2094.54
2090.37
2086.12
2081.85
2077.58
2073.31
2069.05
2064.81
2060.58
2056.34
2052.1
2047.86
2043.63
2039.42
1018.99
1092.5
1166.73
1241.26
1315.7
1389.62
1462.59
1534.17
1603.9
1671.26
1735.75
1796.89
1854.19
1907.15
1955.2
1997.82
2034.63
2065.47
2090.45
2109.91
2124.49
2134.84
2141.64
2145.72
2147.68
2147.86
2146.98
2145.09
2142.56
2139.81
2136.86
2133.42
2129.56
2125.48
2121.1
2116.56
2112.01
2107.47
2102.92
2098.37
2093.84
2089.32
2084.8
2080.28
2075.77
2071.25
2066.73
2062.19
2057.66
2053.13
1313.71
1385.66
1456.91
1527.07
1595.73
1662.48
1726.85
1788.38
1846.64
1901.19
1951.56
1997.26
2037.82
2072.91
2102.39
2126.33
2145.08
2159.16
2169.17
2175.74
2179.66
2181.45
2181.39
2180.34
2178.29
2175.46
2172.34
2169.07
2165.51
2161.41
2157.06
2152.53
2147.75
2142.92
2138.07
2133.23
2128.38
2123.56
2118.76
2113.96
2109.17
2104.39
2099.6
2094.8
2090.01
2085.2
2080.38
2075.54
2070.71
2065.88
1596.19
1661.78
1725.39
1786.6
1845
1900.2
1951.8
1999.38
2042.51
2080.75
2113.84
2141.67
2164.3
2182.05
2195.4
2204.86
2211.04
2214.66
2216.13
2215.83
2214.59
2212.29
2209.12
2205.69
2202.11
2198.27
2193.96
2189.37
2184.63
2179.62
2174.49
2169.36
2164.24
2159.11
2153.99
2148.9
2143.81
2138.74
2133.68
2128.62
2123.57
2118.51
2113.44
2108.37
2103.28
2098.18
2093.07
2087.94
2082.81
2077.66
1905.33
1957.3
2005.78
2050.38
2090.71
2126.42
2157.28
2183.21
2204.27
2220.79
2233.19
2241.9
2247.55
2250.72
2251.78
2251.23
2249.65
2247.05
2243.6
2239.85
2235.9
2231.73
2227.25
2222.4
2217.38
2212.16
2206.76
2201.34
2195.93
2190.5
2185.09
2179.71
2174.35
2168.99
2163.65
2158.32
2152.99
2147.67
2142.34
2137.01
2131.68
2126.33
2120.97
2115.6
2110.21
2104.8
2099.37
2093.94
2088.49
2104.28
2141.63
2174.61
2203.03
2226.83
2246.13
2261.22
2272.47
2280.25
2285.22
2287.83
2288.38
2287.49
2285.53
2282.59
2278.85
2274.74
2270.42
2265.92
2261.22
2256.09
2250.78
2245.35
2239.7
2233.98
2228.29
2222.58
2216.87
2211.19
2205.54
2199.9
2194.28
2188.67
2183.07
2177.48
2171.89
2166.3
2160.71
2155.12
2149.51
2143.9
2138.27
2132.63
2126.97
2121.29
2115.59
2109.87
2104.14
2098.38
2250.86
2272.36
2289.73
2303.2
2313.1
2319.87
2324.02
2325.97
2325.88
2324.62
2322.23
2318.89
2314.84
2310.35
2305.68
2300.83
2295.81
2290.45
2284.85
2279.16
2273.27
2267.27
2261.28
2255.29
2249.3
2243.33
2237.39
2231.46
2225.55
2219.67
2213.79
2207.93
2202.08
2196.23
2190.38
2184.53
2178.68
2172.82
2166.95
2161.07
2155.18
2149.27
2143.35
2137.4
2131.43
2125.44
2119.42
2113.39
2107.34
2355.01
2360.64
2363.85
2364.96
2364.35
2362.56
2359.69
2355.92
2351.52
2346.66
2341.63
2336.42
2331.07
2325.46
2319.57
2313.58
2307.45
2301.18
2294.89
2288.63
2282.35
2276.08
2269.86
2263.65
2257.46
2251.3
2245.15
2239.01
2232.89
2226.77
2220.66
2214.56
2208.46
2202.35
2196.24
2190.12
2183.99
2177.85
2171.7
2165.53
2159.34
2153.13
2146.89
2140.64
2134.36
2128.05
2121.72
2115.37
2404.81
2403.64
2401.24
2397.83
2393.65
2388.86
2383.64
2378.21
2372.65
2366.97
2361.06
2354.9
2348.61
2342.23
2335.69
2329.1
2322.56
2316
2309.44
2302.93
2296.44
2289.97
2283.52
2277.1
2270.69
2264.3
2257.93
2251.56
2245.19
2238.83
2232.48
2226.12
2219.76
2213.39
2207.02
2200.64
2194.24
2187.83
2181.4
2174.95
2168.48
2161.99
2155.47
2148.92
2142.36
2135.76
2129.14
2122.49
2432.01
2426.82
2421.2
2415.4
2409.49
2403.47
2397.23
2390.79
2384.21
2377.56
2370.76
2363.89
2357.05
2350.23
2343.38
2336.59
2329.82
2323.06
2316.34
2309.64
2302.96
2296.3
2289.66
2283.03
2276.41
2269.8
2263.19
2256.58
2249.98
2243.37
2236.76
2230.14
2223.52
2216.88
2210.23
2203.56
2196.88
2190.18
2183.45
2176.7
2169.93
2163.13
2156.3
2149.45
2142.56
2135.66
2128.72
2453.15
2446.87
2440.51
2433.93
2427.22
2420.35
2413.41
2406.35
2399.21
2392.08
2384.99
2377.88
2370.79
2363.75
2356.72
2349.72
2342.75
2335.8
2328.87
2321.96
2315.07
2308.19
2301.32
2294.46
2287.61
2280.76
2273.91
2267.06
2260.21
2253.35
2246.49
2239.61
2232.73
2225.83
2218.91
2211.97
2205.02
2198.04
2191.04
2184.02
2176.97
2169.89
2162.78
2155.64
2148.48
2141.29
2134.06
2464.14
2456.99
2449.75
2442.43
2435.03
2427.62
2420.26
2412.88
2405.51
2398.2
2390.91
2383.63
2376.39
2369.18
2361.98
2354.81
2347.66
2340.52
2333.39
2326.28
2319.18
2312.08
2304.99
2297.91
2290.82
2283.73
2276.64
2269.53
2262.43
2255.31
2248.17
2241.03
2233.86
2226.68
2219.48
2212.26
2205.01
2197.74
2190.44
2183.11
2175.76
2168.37
2160.96
2153.51
2146.04
2138.53
2478.96
2471.3
2463.63
2455.99
2448.36
2440.72
2433.14
2425.58
2418.04
2410.53
2403.06
2395.6
2388.17
2380.76
2373.37
2365.99
2358.63
2351.28
2343.94
2336.6
2329.27
2321.95
2314.63
2307.3
2299.98
2292.64
2285.31
2277.96
2270.6
2263.22
2255.83
2248.43
2241.01
2233.56
2226.09
2218.6
2211.09
2203.55
2195.98
2188.38
2180.75
2173.09
2165.4
2157.68
2149.94
2142.15
2492.16
2484.27
2476.37
2468.53
2460.72
2452.91
2445.14
2437.41
2429.7
2422.01
2414.35
2406.7
2399.08
2391.47
2383.87
2376.29
2368.72
2361.15
2353.59
2346.03
2338.48
2330.92
2323.37
2315.81
2308.24
2300.66
2293.08
2285.48
2277.87
2270.25
2262.6
2254.94
2247.26
2239.55
2231.82
2224.07
2216.29
2208.48
2200.64
2192.77
2184.87
2176.94
2168.99
2160.99
2152.98
2144.93
2504.33
2496.27
2488.21
2480.19
2472.21
2464.25
2456.31
2448.4
2440.5
2432.63
2424.78
2416.94
2409.11
2401.3
2393.5
2385.71
2377.92
2370.14
2362.35
2354.57
2346.79
2339.01
2331.22
2323.42
2315.61
2307.8
2299.97
2292.12
2284.26
2276.39
2268.49
2260.57
2252.63
2244.67
2236.68
2228.66
2220.62
2212.54
2204.44
2196.31
2188.15
2179.95
2171.73
2163.48
2155.2
2146.88
2515.64
2507.41
2499.2
2491.02
2482.86
2474.73
2466.61
2458.52
2450.44
2442.38
2434.34
2426.3
2418.28
2410.26
2402.25
2394.25
2386.24
2378.24
2370.24
2362.23
2354.22
2346.21
2338.18
2330.15
2322.1
2314.05
2305.97
2297.88
2289.78
2281.65
2273.5
2265.33
2257.13
2248.91
2240.67
2232.39
2224.09
2215.76
2207.4
2199.01
2190.58
2182.13
2173.65
2165.14
2156.61
2148.02
2526.1
2517.71
2509.35
2500.99
2492.67
2484.36
2476.07
2467.79
2459.52
2451.27
2443.03
2434.79
2426.57
2418.35
2410.13
2401.91
2393.69
2385.47
2377.24
2369.01
2360.77
2352.53
2344.27
2336
2327.72
2319.42
2311.11
2302.77
2294.42
2286.05
2277.65
2269.23
2260.78
2252.31
2243.81
2235.28
2226.72
2218.14
2209.52
2200.88
2192.2
2183.49
2174.76
2165.99
2157.21
2148.39
2535.73
2527.18
2518.64
2510.12
2501.62
2493.13
2484.66
2476.19
2467.74
2459.29
2450.85
2442.42
2433.99
2425.56
2417.13
2408.7
2400.26
2391.82
2383.37
2374.92
2366.45
2357.98
2349.49
2340.98
2332.47
2323.93
2315.38
2306.8
2298.2
2289.59
2280.94
2272.28
2263.58
2254.86
2246.11
2237.34
2228.53
2219.69
2210.83
2201.93
2193
2184.05
2175.09
2166.09
2157.08
2148.03
2535.8
2527.09
2518.4
2509.72
2501.05
2492.39
2483.74
2475.09
2466.45
2457.81
2449.18
2440.54
2431.9
2423.26
2414.62
2405.96
2397.31
2388.64
2379.96
2371.27
2362.56
2353.84
2345.11
2336.35
2327.58
2318.79
2309.98
2301.14
2292.28
2283.4
2274.49
2265.55
2256.59
2247.59
2238.57
2229.51
2220.43
2211.33
2202.21
2193.05
2183.87
2174.67
2165.45
2156.21
2146.92
2543.57
2534.69
2525.82
2516.96
2508.11
2499.27
2490.42
2481.58
2472.75
2463.91
2455.07
2446.23
2437.38
2428.53
2419.67
2410.81
2401.93
2393.04
2384.14
2375.22
2366.29
2357.34
2348.38
2339.39
2330.39
2321.36
2312.32
2303.24
2294.15
2285.02
2275.87
2266.7
2257.49
2248.26
2239.01
2229.73
2220.42
2211.09
2201.74
2192.36
2182.95
2173.52
2164.06
2154.6
2145.09
2550.49
2541.44
2532.4
2523.35
2514.32
2505.28
2496.25
2487.22
2478.18
2469.14
2460.1
2451.06
2442
2432.94
2423.87
2414.79
2405.7
2396.59
2387.47
2378.33
2369.17
2360
2350.81
2341.6
2332.36
2323.1
2313.82
2304.52
2295.18
2285.83
2276.45
2267.05
2257.62
2248.17
2238.69
2229.19
2219.66
2210.1
2200.52
2190.91
2181.28
2171.63
2161.96
2152.27
2142.55
2547.34
2538.11
2528.89
2519.67
2510.45
2501.22
2491.99
2482.76
2473.53
2464.28
2455.03
2445.77
2436.5
2427.22
2417.93
2408.62
2399.29
2389.95
2380.59
2371.22
2361.82
2352.41
2342.97
2333.5
2324.02
2314.51
2304.99
2295.44
2285.86
2276.27
2266.65
2257
2247.33
2237.63
2227.9
2218.14
2208.37
2198.56
2188.74
2178.89
2169.03
2159.15
2149.26
2139.34
2552.39
2542.98
2533.58
2524.17
2514.76
2505.34
2495.92
2486.49
2477.06
2467.61
2458.16
2448.69
2439.22
2429.72
2420.22
2410.7
2401.16
2391.6
2382.03
2372.43
2362.81
2353.17
2343.52
2333.85
2324.15
2314.43
2304.69
2294.93
2285.15
2275.33
2265.49
2255.62
2245.73
2235.81
2225.86
2215.9
2205.91
2195.89
2185.86
2175.81
2165.75
2155.67
2145.59
2135.48
2556.59
2547
2537.41
2527.82
2518.22
2508.61
2499
2489.38
2479.74
2470.1
2460.44
2450.77
2441.09
2431.39
2421.68
2411.94
2402.19
2392.42
2382.64
2372.84
2363.02
2353.17
2343.31
2333.43
2323.53
2313.6
2303.64
2293.66
2283.66
2273.63
2263.57
2253.49
2243.39
2233.26
2223.11
2212.94
2202.75
2192.53
2182.3
2172.06
2161.8
2151.54
2141.27
2130.98
2559.94
2550.18
2540.41
2530.63
2520.84
2511.04
2501.24
2491.42
2481.59
2471.75
2461.89
2452.02
2442.13
2432.23
2422.31
2412.38
2402.43
2392.46
2382.48
2372.47
2362.45
2352.41
2342.33
2332.24
2322.13
2311.99
2301.82
2291.64
2281.43
2271.19
2260.93
2250.65
2240.34
2230.02
2219.67
2209.3
2198.91
2188.51
2178.09
2167.66
2157.22
2146.78
2136.33
2125.87
2552.51
2542.56
2532.59
2522.62
2512.64
2502.64
2492.63
2482.6
2472.56
2462.51
2452.45
2442.37
2432.28
2422.17
2412.04
2401.9
2391.73
2381.55
2371.34
2361.11
2350.86
2340.59
2330.29
2319.97
2309.63
2299.27
2288.88
2278.47
2268.04
2257.58
2247.1
2236.6
2226.08
2215.55
2204.99
2194.42
2183.83
2173.24
2162.63
2152.02
2141.41
2130.8
2120.18
2554.01
2543.87
2533.72
2523.56
2513.39
2503.21
2493.02
2482.81
2472.59
2462.35
2452.1
2441.84
2431.56
2421.25
2410.93
2400.58
2390.22
2379.84
2369.43
2359.01
2348.56
2338.09
2327.6
2317.08
2306.55
2295.99
2285.41
2274.81
2264.19
2253.54
2242.88
2232.19
2221.49
2210.77
2200.04
2189.29
2178.53
2167.77
2157
2146.23
2135.46
2124.69
2113.92
2554.67
2544.36
2534.04
2523.7
2513.35
2503
2492.63
2482.24
2471.84
2461.42
2450.97
2440.52
2430.04
2419.55
2409.03
2398.5
2387.94
2377.37
2366.77
2356.16
2345.52
2334.86
2324.18
2313.48
2302.76
2292.01
2281.25
2270.47
2259.66
2248.84
2238
2227.14
2216.26
2205.37
2194.47
2183.56
2172.64
2161.71
2150.78
2139.86
2128.94
2118.04
2107.13
2544.06
2533.57
2523.06
2512.54
2502
2491.45
2480.88
2470.29
2459.68
2449.06
2438.42
2427.76
2417.08
2406.38
2395.66
2384.92
2374.16
2363.38
2352.58
2341.76
2330.92
2320.06
2309.18
2298.28
2287.36
2276.42
2265.46
2254.48
2243.49
2232.48
2221.45
2210.41
2199.36
2188.3
2177.23
2166.16
2155.08
2144.01
2132.95
2121.89
2110.85
2099.82
2542.97
2532.3
2521.62
2510.93
2500.21
2489.48
2478.73
2467.97
2457.18
2446.38
2435.56
2424.72
2413.86
2402.98
2392.08
2381.17
2370.23
2359.27
2348.3
2337.3
2326.29
2315.26
2304.2
2293.13
2282.04
2270.94
2259.81
2248.67
2237.52
2226.35
2215.16
2203.97
2192.77
2181.56
2170.34
2159.12
2147.91
2136.7
2125.51
2114.33
2103.17
2092.01
2541.08
2530.25
2519.4
2508.53
2497.64
2486.74
2475.82
2464.88
2453.92
2442.95
2431.95
2420.94
2409.91
2398.86
2387.79
2376.71
2365.6
2354.48
2343.33
2332.17
2320.99
2309.79
2298.58
2287.34
2276.09
2264.83
2253.55
2242.25
2230.94
2219.62
2208.29
2196.95
2185.61
2174.26
2162.91
2151.56
2140.21
2128.88
2117.56
2106.27
2095
2083.74
2538.41
2527.41
2516.39
2505.36
2494.31
2483.24
2472.15
2461.05
2449.93
2438.79
2427.63
2416.45
2405.25
2394.04
2382.81
2371.56
2360.29
2349
2337.7
2326.38
2315.04
2303.68
2292.31
2280.93
2269.53
2258.11
2246.68
2235.24
2223.79
2212.33
2200.86
2189.39
2177.91
2166.43
2154.95
2143.48
2132.01
2120.57
2109.14