/*--------------------------------*- C++ -*----------------------------------*\
| =========                 |                                                 |
| \\      /  F ield         | OpenFOAM: The Open Source CFD Toolbox           |
|  \\    /   O peration     | Version:  v1706                                 |
|   \\  /    A nd           | Web:      www.OpenFOAM.com                      |
|    \\/     M anipulation  |                                                 |
\*---------------------------------------------------------------------------*/
FoamFile
{
    version     2.0;
    format      ascii;
    class       volVectorField;
    location    "2e-05";
    object      U;
}
// * * * * * * * * * * * * * * * * * * * * * * * * * * * * * * * * * * * * * //

dimensions      [0 1 -1 0 0 0 0];


internalField   nonuniform List<vector> 
30038
(
(2764.5 -3.80401e-11 1.36672e-14)
(2764.5 -3.34843e-11 -3.98137e-15)
(2764.5 -3.57733e-11 1.05796e-14)
(2764.5 -3.80627e-11 3.3764e-15)
(2764.5 -3.92286e-11 2.75128e-15)
(2764.5 -3.66677e-11 3.70929e-15)
(2764.5 -3.98616e-11 8.10723e-15)
(2764.5 -3.84351e-11 1.05513e-14)
(2764.5 -3.47409e-11 7.13813e-15)
(2764.5 -3.56551e-11 1.64596e-15)
(2764.5 -3.32593e-11 8.80564e-15)
(2764.5 -3.64235e-11 8.08033e-15)
(2764.5 -3.82646e-11 5.55492e-15)
(2764.5 -3.8285e-11 4.04354e-15)
(2764.5 -4.09551e-11 3.63106e-15)
(2764.5 -4.3535e-11 1.14908e-14)
(2764.5 -5.02122e-11 6.05561e-15)
(2764.5 -5.3564e-11 3.17361e-15)
(2764.5 -5.08738e-11 2.30745e-15)
(2764.5 -5.03937e-11 7.12257e-15)
(2764.5 -5.4191e-11 6.52074e-15)
(2764.5 -5.59734e-11 1.03558e-14)
(2764.5 -5.81922e-11 2.70422e-16)
(2764.5 -5.87817e-11 6.87971e-15)
(2764.5 -5.92078e-11 6.77498e-15)
(2764.5 -6.10579e-11 3.66187e-15)
(2764.5 -5.97962e-11 -6.8692e-17)
(2764.5 -5.99525e-11 6.43463e-15)
(2764.5 -6.59749e-11 1.01912e-14)
(2764.5 -6.61e-11 1.08323e-14)
(2764.5 -6.1815e-11 4.28567e-15)
(2764.5 -6.39336e-11 1.15108e-14)
(2764.5 -6.78548e-11 6.98175e-15)
(2764.5 -7.04821e-11 4.98861e-15)
(2764.5 -7.3424e-11 1.05647e-14)
(2764.5 -7.96611e-11 8.24363e-15)
(2764.5 -7.54488e-11 8.7134e-16)
(2764.5 -7.77627e-11 4.8945e-15)
(2764.5 -1.19037e-10 2.06404e-14)
(2764.5 -1.18275e-10 1.57224e-14)
(2764.5 -1.14738e-10 2.49613e-14)
(2764.5 -1.15268e-10 1.47734e-14)
(2764.5 -1.19718e-10 2.3795e-14)
(2764.5 -1.22102e-10 2.36167e-14)
(2764.5 -1.22212e-10 2.23268e-14)
(2764.5 -1.28418e-10 2.43993e-14)
(2764.5 -1.29254e-10 1.80782e-14)
(2764.5 -1.31828e-10 1.85166e-14)
(2764.5 -1.30999e-10 2.51414e-14)
(2764.5 -1.25911e-10 1.61702e-14)
(2764.5 -1.30998e-10 1.90449e-14)
(2764.5 -1.28242e-10 2.02361e-14)
(2764.5 -1.28527e-10 1.68239e-14)
(2764.5 -1.28612e-10 1.99633e-14)
(2764.5 -1.24349e-10 1.75415e-14)
(2764.5 -1.33842e-10 2.04081e-14)
(2764.5 -1.39251e-10 1.55398e-14)
(2764.5 -1.40513e-10 1.75589e-14)
(2764.5 -1.40057e-10 1.66076e-14)
(2764.5 -1.40856e-10 2.10236e-14)
(2764.5 -1.41212e-10 2.0962e-14)
(2764.5 -1.47689e-10 2.02706e-14)
(2764.5 -1.47209e-10 1.73673e-14)
(2764.5 -1.54327e-10 1.81208e-14)
(2764.5 -1.58831e-10 1.87587e-14)
(2764.5 -1.60565e-10 1.83104e-14)
(2764.5 -1.60561e-10 1.85419e-14)
(2764.5 -1.74185e-10 2.34281e-14)
(2764.5 -1.84046e-10 1.28854e-14)
(2764.5 -1.79298e-10 2.38889e-14)
(2764.5 -1.85348e-10 2.72777e-14)
(2764.5 -1.85945e-10 2.17781e-14)
(2764.5 -1.91335e-10 2.56759e-14)
(2764.5 -1.92658e-10 1.86096e-14)
(2764.5 -2.06286e-10 1.91779e-14)
(2764.5 -2.14268e-10 2.07619e-14)
(2764.5 -1.88044e-10 3.20495e-14)
(2764.5 -1.90371e-10 3.44518e-14)
(2764.5 -1.88455e-10 3.48847e-14)
(2764.5 -1.86904e-10 2.85563e-14)
(2764.5 -1.91681e-10 3.20723e-14)
(2764.5 -1.9642e-10 3.25792e-14)
(2764.5 -1.98492e-10 3.7027e-14)
(2764.5 -2.03386e-10 3.01613e-14)
(2764.5 -2.05129e-10 2.73489e-14)
(2764.5 -2.09339e-10 2.84815e-14)
(2764.5 -2.1611e-10 2.72907e-14)
(2764.5 -2.18115e-10 3.21015e-14)
(2764.5 -2.21065e-10 3.18844e-14)
(2764.5 -2.22351e-10 3.43057e-14)
(2764.5 -2.20966e-10 3.0345e-14)
(2764.5 -2.20019e-10 3.39658e-14)
(2764.5 -2.15967e-10 3.23215e-14)
(2764.5 -2.19158e-10 3.44404e-14)
(2764.5 -2.24097e-10 3.16831e-14)
(2764.5 -2.29592e-10 3.26357e-14)
(2764.5 -2.36869e-10 2.92235e-14)
(2764.5 -2.42183e-10 3.30723e-14)
(2764.5 -2.45075e-10 2.90788e-14)
(2764.5 -2.50999e-10 2.6987e-14)
(2764.5 -2.53384e-10 3.3492e-14)
(2764.5 -2.58935e-10 3.39499e-14)
(2764.5 -2.6207e-10 3.07298e-14)
(2764.5 -2.66406e-10 2.70705e-14)
(2764.5 -2.64187e-10 2.69288e-14)
(2764.5 -2.64084e-10 3.27725e-14)
(2764.5 -2.75898e-10 3.10093e-14)
(2764.5 -2.78494e-10 3.37194e-14)
(2764.5 -2.81543e-10 3.13361e-14)
(2764.5 -2.84673e-10 3.24122e-14)
(2764.5 -2.91543e-10 3.44158e-14)
(2764.5 -2.95378e-10 3.72597e-14)
(2764.5 -3.08301e-10 3.01509e-14)
(2764.5 -3.17905e-10 3.19509e-14)
(2764.5 -2.5334e-10 4.5227e-14)
(2764.5 -2.61951e-10 4.44896e-14)
(2764.5 -2.63807e-10 4.53336e-14)
(2764.5 -2.63355e-10 3.9577e-14)
(2764.5 -2.63879e-10 4.8272e-14)
(2764.5 -2.63963e-10 4.48568e-14)
(2764.5 -2.6327e-10 4.08573e-14)
(2764.5 -2.69662e-10 3.85151e-14)
(2764.5 -2.76803e-10 4.47297e-14)
(2764.5 -2.80303e-10 3.84913e-14)
(2764.5 -2.86137e-10 4.49132e-14)
(2764.5 -2.92852e-10 4.64015e-14)
(2764.5 -2.99035e-10 4.93275e-14)
(2764.5 -3.02004e-10 4.09144e-14)
(2764.5 -3.05523e-10 3.8761e-14)
(2764.5 -3.1056e-10 4.26138e-14)
(2764.5 -3.0966e-10 3.87642e-14)
(2764.5 -3.09496e-10 4.26142e-14)
(2764.5 -3.11213e-10 4.52693e-14)
(2764.5 -3.15184e-10 4.37414e-14)
(2764.5 -3.21195e-10 4.21182e-14)
(2764.5 -3.26852e-10 4.05003e-14)
(2764.5 -3.31062e-10 4.39701e-14)
(2764.5 -3.37809e-10 4.81958e-14)
(2764.5 -3.4159e-10 4.47521e-14)
(2764.5 -3.45935e-10 4.4874e-14)
(2764.5 -3.55079e-10 4.40726e-14)
(2764.5 -3.63212e-10 4.24463e-14)
(2764.5 -3.72364e-10 4.27836e-14)
(2764.5 -3.73368e-10 4.91829e-14)
(2764.5 -3.81643e-10 4.54289e-14)
(2764.5 -3.89293e-10 4.73348e-14)
(2764.5 -3.93697e-10 4.57406e-14)
(2764.5 -3.96584e-10 4.49743e-14)
(2764.5 -4.01517e-10 4.67688e-14)
(2764.5 -4.01943e-10 4.97592e-14)
(2764.5 -4.12943e-10 4.82255e-14)
(2764.5 -4.22851e-10 4.93364e-14)
(2764.5 -3.08985e-10 5.6538e-14)
(2764.5 -3.17145e-10 5.76767e-14)
(2764.5 -3.23643e-10 5.89781e-14)
(2764.5 -3.27365e-10 5.72518e-14)
(2764.5 -3.30689e-10 5.76511e-14)
(2764.5 -3.3226e-10 5.39083e-14)
(2764.5 -3.34144e-10 5.75224e-14)
(2764.5 -3.40338e-10 5.93144e-14)
(2764.5 -3.45111e-10 6.01313e-14)
(2764.5 -3.48053e-10 5.85983e-14)
(2764.5 -3.53533e-10 5.79295e-14)
(2764.5 -3.60858e-10 5.58e-14)
(2764.5 -3.66428e-10 5.54436e-14)
(2764.5 -3.71295e-10 5.17665e-14)
(2764.5 -3.75737e-10 5.06416e-14)
(2764.5 -3.84202e-10 5.69717e-14)
(2764.5 -3.89614e-10 6.19691e-14)
(2764.5 -3.93451e-10 5.97344e-14)
(2764.5 -3.95008e-10 5.26564e-14)
(2764.5 -3.97656e-10 5.90974e-14)
(2764.5 -4.02572e-10 5.64499e-14)
(2764.5 -4.08084e-10 4.90557e-14)
(2764.5 -4.13362e-10 5.94823e-14)
(2764.5 -4.19935e-10 5.71628e-14)
(2764.5 -4.26881e-10 5.80141e-14)
(2764.5 -4.31942e-10 5.93936e-14)
(2764.5 -4.38169e-10 6.45604e-14)
(2764.5 -4.45397e-10 5.78482e-14)
(2764.5 -4.54679e-10 4.82586e-14)
(2764.5 -4.61682e-10 4.78387e-14)
(2764.5 -4.7187e-10 5.35118e-14)
(2764.5 -4.81327e-10 6.42437e-14)
(2764.5 -4.89935e-10 6.0813e-14)
(2764.5 -4.96482e-10 5.72261e-14)
(2764.5 -5.05172e-10 5.73295e-14)
(2764.5 -5.09049e-10 5.82338e-14)
(2764.5 -5.19458e-10 6.11601e-14)
(2764.5 -5.32962e-10 6.24238e-14)
(2764.5 -3.67259e-10 7.23976e-14)
(2764.5 -3.72357e-10 7.38713e-14)
(2764.5 -3.81106e-10 7.0283e-14)
(2764.5 -3.88683e-10 6.25561e-14)
(2764.5 -3.96155e-10 6.33088e-14)
(2764.5 -4.01992e-10 6.66285e-14)
(2764.5 -4.0303e-10 6.20166e-14)
(2764.5 -4.07751e-10 7.05446e-14)
(2764.5 -4.12438e-10 7.55258e-14)
(2764.5 -4.14321e-10 7.16596e-14)
(2764.5 -4.17591e-10 7.23246e-14)
(2764.5 -4.25185e-10 7.01411e-14)
(2764.5 -4.33018e-10 6.92434e-14)
(2764.5 -4.39656e-10 6.95492e-14)
(2764.5 -4.46208e-10 6.87912e-14)
(2764.5 -4.53598e-10 6.79967e-14)
(2764.5 -4.6229e-10 7.26161e-14)
(2764.5 -4.67044e-10 7.14438e-14)
(2764.5 -4.70804e-10 6.40759e-14)
(2764.5 -4.74558e-10 6.8974e-14)
(2764.5 -4.79835e-10 7.07671e-14)
(2764.5 -4.82988e-10 7.32242e-14)
(2764.5 -4.9015e-10 7.32488e-14)
(2764.5 -4.9689e-10 6.77965e-14)
(2764.5 -5.06316e-10 6.54009e-14)
(2764.5 -5.14759e-10 6.75507e-14)
(2764.5 -5.20944e-10 7.89753e-14)
(2764.5 -5.27829e-10 6.74399e-14)
(2764.5 -5.35215e-10 7.06223e-14)
(2764.5 -5.41996e-10 7.70361e-14)
(2764.5 -5.52564e-10 6.87901e-14)
(2764.5 -5.64385e-10 6.87626e-14)
(2764.5 -5.76522e-10 6.90453e-14)
(2764.5 -5.85193e-10 7.45887e-14)
(2764.5 -5.95913e-10 7.6638e-14)
(2764.5 -6.03248e-10 6.7804e-14)
(2764.5 -6.13494e-10 6.82863e-14)
(2764.5 -6.27714e-10 7.31943e-14)
(2764.5 -4.30356e-10 7.99411e-14)
(2764.5 -4.35128e-10 7.56596e-14)
(2764.5 -4.40448e-10 7.95007e-14)
(2764.5 -4.48754e-10 8.49241e-14)
(2764.5 -4.58752e-10 8.13952e-14)
(2764.5 -4.67677e-10 7.79945e-14)
(2764.5 -4.72169e-10 7.9563e-14)
(2764.5 -4.75537e-10 8.65072e-14)
(2764.5 -4.78758e-10 7.58432e-14)
(2764.5 -4.83498e-10 8.21495e-14)
(2764.5 -4.89583e-10 8.54815e-14)
(2764.5 -4.94807e-10 8.16563e-14)
(2764.5 -5.01714e-10 8.1558e-14)
(2764.5 -5.09041e-10 7.9646e-14)
(2764.5 -5.15834e-10 7.64709e-14)
(2764.5 -5.22053e-10 8.09416e-14)
(2764.5 -5.29646e-10 7.85051e-14)
(2764.5 -5.36111e-10 8.47976e-14)
(2764.5 -5.42599e-10 8.12786e-14)
(2764.5 -5.49661e-10 8.32803e-14)
(2764.5 -5.5709e-10 8.37169e-14)
(2764.5 -5.60442e-10 8.19033e-14)
(2764.5 -5.68736e-10 8.07673e-14)
(2764.5 -5.76741e-10 8.44691e-14)
(2764.5 -5.82702e-10 8.30846e-14)
(2764.5 -5.91743e-10 8.32274e-14)
(2764.5 -6.00124e-10 8.9482e-14)
(2764.5 -6.05772e-10 7.92036e-14)
(2764.5 -6.13502e-10 7.71495e-14)
(2764.5 -6.22611e-10 8.1039e-14)
(2764.5 -6.30854e-10 8.20164e-14)
(2764.5 -6.41669e-10 8.05218e-14)
(2764.5 -6.5441e-10 8.26312e-14)
(2764.5 -6.65919e-10 8.56477e-14)
(2764.5 -6.77658e-10 9.09476e-14)
(2764.5 -6.86292e-10 8.61784e-14)
(2764.5 -6.96736e-10 8.43583e-14)
(2764.5 -7.10914e-10 8.76115e-14)
(2764.5 -4.87761e-10 9.55833e-14)
(2764.5 -4.92572e-10 9.38594e-14)
(2764.5 -5.01287e-10 9.34596e-14)
(2764.5 -5.11247e-10 9.79587e-14)
(2764.5 -5.20062e-10 9.78805e-14)
(2764.5 -5.27186e-10 9.09312e-14)
(2764.5 -5.36131e-10 9.1222e-14)
(2764.5 -5.43448e-10 9.40177e-14)
(2764.5 -5.47941e-10 9.65002e-14)
(2764.5 -5.52453e-10 9.67925e-14)
(2764.5 -5.56612e-10 9.05934e-14)
(2764.5 -5.60507e-10 9.35957e-14)
(2764.5 -5.66383e-10 9.0221e-14)
(2764.5 -5.75382e-10 9.41471e-14)
(2764.5 -5.84076e-10 9.06602e-14)
(2764.5 -5.90336e-10 9.55369e-14)
(2764.5 -5.97238e-10 9.80979e-14)
(2764.5 -6.02519e-10 9.7509e-14)
(2764.5 -6.08266e-10 9.45621e-14)
(2764.5 -6.18685e-10 9.89397e-14)
(2764.5 -6.27666e-10 9.08855e-14)
(2764.5 -6.32561e-10 9.74863e-14)
(2764.5 -6.3597e-10 9.26918e-14)
(2764.5 -6.4474e-10 9.3044e-14)
(2764.5 -6.53052e-10 9.03656e-14)
(2764.5 -6.61504e-10 9.59622e-14)
(2764.5 -6.71952e-10 9.38346e-14)
(2764.5 -6.78244e-10 9.12946e-14)
(2764.5 -6.87635e-10 9.70398e-14)
(2764.5 -7.00612e-10 9.87709e-14)
(2764.5 -7.1049e-10 1.02497e-13)
(2764.5 -7.19865e-10 9.97561e-14)
(2764.5 -7.28952e-10 1.0158e-13)
(2764.5 -7.39939e-10 9.75776e-14)
(2764.5 -7.52641e-10 9.67341e-14)
(2764.5 -7.6274e-10 1.0528e-13)
(2764.5 -7.79246e-10 1.00113e-13)
(2764.5 -7.97189e-10 9.58412e-14)
(2764.5 -5.45313e-10 1.07695e-13)
(2764.5 -5.49155e-10 1.06151e-13)
(2764.5 -5.52626e-10 1.13032e-13)
(2764.5 -5.62705e-10 1.10628e-13)
(2764.5 -5.70929e-10 1.09094e-13)
(2764.5 -5.78479e-10 1.0738e-13)
(2764.5 -5.85366e-10 1.13144e-13)
(2764.5 -5.93985e-10 1.09473e-13)
(2764.5 -6.04472e-10 1.09701e-13)
(2764.5 -6.15477e-10 1.08473e-13)
(2764.5 -6.22068e-10 1.00035e-13)
(2764.5 -6.24415e-10 1.08719e-13)
(2764.5 -6.26963e-10 1.0035e-13)
(2764.5 -6.32805e-10 1.06204e-13)
(2764.5 -6.44314e-10 1.0869e-13)
(2764.5 -6.52891e-10 1.08323e-13)
(2764.5 -6.55988e-10 1.09993e-13)
(2764.5 -6.59663e-10 1.04896e-13)
(2764.5 -6.64655e-10 1.05425e-13)
(2764.5 -6.72144e-10 1.06537e-13)
(2764.5 -6.84855e-10 1.0712e-13)
(2764.5 -6.94676e-10 1.06685e-13)
(2764.5 -6.99713e-10 1.05711e-13)
(2764.5 -7.05393e-10 1.02789e-13)
(2764.5 -7.11954e-10 1.06477e-13)
(2764.5 -7.22365e-10 1.07668e-13)
(2764.5 -7.34232e-10 1.10428e-13)
(2764.5 -7.4612e-10 1.06605e-13)
(2764.5 -7.54052e-10 1.08097e-13)
(2764.5 -7.61749e-10 1.07328e-13)
(2764.5 -7.7281e-10 1.10301e-13)
(2764.5 -7.84354e-10 1.10324e-13)
(2764.5 -7.95868e-10 1.12572e-13)
(2764.5 -8.03484e-10 1.09184e-13)
(2764.5 -8.12024e-10 1.15991e-13)
(2764.5 -8.26053e-10 1.15999e-13)
(2764.5 -8.35067e-10 1.11815e-13)
(2764.5 -8.47601e-10 1.10156e-13)
(2764.5 -8.67973e-10 1.08322e-13)
(2764.5 -6.03978e-10 1.23085e-13)
(2764.5 -6.07022e-10 1.16931e-13)
(2764.5 -6.09563e-10 1.15769e-13)
(2764.5 -6.17567e-10 1.23866e-13)
(2764.5 -6.23218e-10 1.23154e-13)
(2764.5 -6.26831e-10 1.23308e-13)
(2764.5 -6.32751e-10 1.27004e-13)
(2764.5 -6.44807e-10 1.19107e-13)
(2764.5 -6.56161e-10 1.17365e-13)
(2764.5 -6.67604e-10 1.14836e-13)
(2764.5 -6.76719e-10 1.19409e-13)
(2764.5 -6.80088e-10 1.16948e-13)
(2764.5 -6.80187e-10 1.09805e-13)
(2764.5 -6.86514e-10 1.21717e-13)
(2764.5 -6.98653e-10 1.19898e-13)
(2764.5 -7.0827e-10 1.20008e-13)
(2764.5 -7.15037e-10 1.12966e-13)
(2764.5 -7.20903e-10 1.19904e-13)
(2764.5 -7.27647e-10 1.18964e-13)
(2764.5 -7.33914e-10 1.20929e-13)
(2764.5 -7.45792e-10 1.17501e-13)
(2764.5 -7.58668e-10 1.16138e-13)
(2764.5 -7.68108e-10 1.15503e-13)
(2764.5 -7.78279e-10 1.17847e-13)
(2764.5 -7.85079e-10 1.22534e-13)
(2764.5 -7.94448e-10 1.20001e-13)
(2764.5 -8.06125e-10 1.22853e-13)
(2764.5 -8.17037e-10 1.18027e-13)
(2764.5 -8.25502e-10 1.15739e-13)
(2764.5 -8.35263e-10 1.22079e-13)
(2764.5 -8.45704e-10 1.23294e-13)
(2764.5 -8.56601e-10 1.23085e-13)
(2764.5 -8.69224e-10 1.23937e-13)
(2764.5 -8.80649e-10 1.22948e-13)
(2764.5 -8.90492e-10 1.25509e-13)
(2764.5 -9.01163e-10 1.23679e-13)
(2764.5 -9.12524e-10 1.18541e-13)
(2764.5 -9.25123e-10 1.24081e-13)
(2764.5 -9.43828e-10 1.25613e-13)
(2764.5 -6.543e-10 1.35025e-13)
(2764.5 -6.56888e-10 1.3957e-13)
(2764.5 -6.63318e-10 1.32567e-13)
(2764.5 -6.69997e-10 1.34618e-13)
(2764.5 -6.74142e-10 1.29464e-13)
(2764.5 -6.7618e-10 1.28911e-13)
(2764.5 -6.81921e-10 1.34941e-13)
(2764.5 -6.94026e-10 1.37114e-13)
(2764.5 -7.06579e-10 1.2834e-13)
(2764.5 -7.15408e-10 1.30411e-13)
(2764.5 -7.23836e-10 1.29529e-13)
(2764.5 -7.31625e-10 1.31569e-13)
(2764.5 -7.33921e-10 1.30438e-13)
(2764.5 -7.39413e-10 1.2328e-13)
(2764.5 -7.50099e-10 1.32669e-13)
(2764.5 -7.62142e-10 1.3733e-13)
(2764.5 -7.71664e-10 1.39226e-13)
(2764.5 -7.80196e-10 1.36764e-13)
(2764.5 -7.87597e-10 1.30028e-13)
(2764.5 -7.94807e-10 1.30143e-13)
(2764.5 -8.05332e-10 1.32952e-13)
(2764.5 -8.16564e-10 1.34477e-13)
(2764.5 -8.27134e-10 1.31666e-13)
(2764.5 -8.39448e-10 1.31554e-13)
(2764.5 -8.50565e-10 1.31303e-13)
(2764.5 -8.60592e-10 1.35897e-13)
(2764.5 -8.7175e-10 1.29632e-13)
(2764.5 -8.85284e-10 1.27294e-13)
(2764.5 -8.95699e-10 1.34066e-13)
(2764.5 -9.02286e-10 1.36934e-13)
(2764.5 -9.11937e-10 1.37934e-13)
(2764.5 -9.24751e-10 1.3349e-13)
(2764.5 -9.3752e-10 1.33411e-13)
(2764.5 -9.51745e-10 1.33271e-13)
(2764.5 -9.65065e-10 1.34387e-13)
(2764.5 -9.79156e-10 1.3424e-13)
(2764.5 -9.87919e-10 1.36309e-13)
(2764.5 -1.00503e-09 1.39037e-13)
(2764.5 -1.02509e-09 1.35536e-13)
(2764.5 -6.98442e-10 1.5059e-13)
(2764.5 -7.0375e-10 1.47106e-13)
(2764.5 -7.07583e-10 1.41121e-13)
(2764.5 -7.1313e-10 1.46996e-13)
(2764.5 -7.19492e-10 1.46552e-13)
(2764.5 -7.2476e-10 1.48533e-13)
(2764.5 -7.26776e-10 1.46475e-13)
(2764.5 -7.31753e-10 1.47701e-13)
(2764.5 -7.41951e-10 1.44702e-13)
(2764.5 -7.54274e-10 1.47565e-13)
(2764.5 -7.64329e-10 1.45903e-13)
(2764.5 -7.74343e-10 1.45674e-13)
(2764.5 -7.85383e-10 1.44891e-13)
(2764.5 -7.923e-10 1.38632e-13)
(2764.5 -7.98825e-10 1.44006e-13)
(2764.5 -8.05875e-10 1.47415e-13)
(2764.5 -8.15102e-10 1.43657e-13)
(2764.5 -8.21772e-10 1.44151e-13)
(2764.5 -8.32417e-10 1.45663e-13)
(2764.5 -8.41956e-10 1.4639e-13)
(2764.5 -8.5025e-10 1.39811e-13)
(2764.5 -8.6061e-10 1.40525e-13)
(2764.5 -8.72653e-10 1.41787e-13)
(2764.5 -8.84923e-10 1.38722e-13)
(2764.5 -8.94831e-10 1.39883e-13)
(2764.5 -9.07904e-10 1.493e-13)
(2764.5 -9.22525e-10 1.4524e-13)
(2764.5 -9.35138e-10 1.38517e-13)
(2764.5 -9.46693e-10 1.46019e-13)
(2764.5 -9.59357e-10 1.44936e-13)
(2764.5 -9.70455e-10 1.48007e-13)
(2764.5 -9.79287e-10 1.44824e-13)
(2764.5 -9.91577e-10 1.44473e-13)
(2764.5 -1.00367e-09 1.46557e-13)
(2764.5 -1.01811e-09 1.50755e-13)
(2764.5 -1.03079e-09 1.51932e-13)
(2764.5 -1.04668e-09 1.47967e-13)
(2764.5 -1.05645e-09 1.52147e-13)
(2764.5 -1.0786e-09 1.461e-13)
(2764.5 -1.09725e-09 1.47922e-13)
(2764.5 -7.44629e-10 1.62518e-13)
(2764.5 -7.53591e-10 1.62462e-13)
(2764.5 -7.60859e-10 1.64138e-13)
(2764.5 -7.65568e-10 1.5777e-13)
(2764.5 -7.68679e-10 1.59026e-13)
(2764.5 -7.72898e-10 1.59703e-13)
(2764.5 -7.81123e-10 1.61191e-13)
(2764.5 -7.89929e-10 1.61175e-13)
(2764.5 -7.99145e-10 1.58111e-13)
(2764.5 -8.0508e-10 1.62972e-13)
(2764.5 -8.13711e-10 1.54447e-13)
(2764.5 -8.23649e-10 1.55244e-13)
(2764.5 -8.35283e-10 1.55495e-13)
(2764.5 -8.46561e-10 1.5456e-13)
(2764.5 -8.55407e-10 1.55034e-13)
(2764.5 -8.64593e-10 1.56308e-13)
(2764.5 -8.75054e-10 1.54562e-13)
(2764.5 -8.81278e-10 1.49963e-13)
(2764.5 -8.87974e-10 1.54404e-13)
(2764.5 -8.9364e-10 1.50936e-13)
(2764.5 -8.97364e-10 1.53511e-13)
(2764.5 -9.06589e-10 1.56086e-13)
(2764.5 -9.21267e-10 1.59597e-13)
(2764.5 -9.37304e-10 1.58176e-13)
(2764.5 -9.49562e-10 1.54128e-13)
(2764.5 -9.59618e-10 1.5542e-13)
(2764.5 -9.74029e-10 1.54792e-13)
(2764.5 -9.88754e-10 1.55276e-13)
(2764.5 -1.00343e-09 1.54004e-13)
(2764.5 -1.01625e-09 1.5619e-13)
(2764.5 -1.02855e-09 1.58422e-13)
(2764.5 -1.03882e-09 1.58769e-13)
(2764.5 -1.05006e-09 1.58866e-13)
(2764.5 -1.06154e-09 1.59536e-13)
(2764.5 -1.07647e-09 1.64128e-13)
(2764.5 -1.08883e-09 1.56685e-13)
(2764.5 -1.1053e-09 1.56198e-13)
(2764.5 -1.11231e-09 1.61025e-13)
(2764.5 -1.13439e-09 1.59786e-13)
(2764.5 -1.14358e-09 1.5714e-13)
(2764.5 -7.95512e-10 1.76622e-13)
(2764.5 -8.02815e-10 1.71209e-13)
(2764.5 -8.10793e-10 1.70936e-13)
(2764.5 -8.18175e-10 1.72392e-13)
(2764.5 -8.22224e-10 1.75397e-13)
(2764.5 -8.2647e-10 1.79718e-13)
(2764.5 -8.36542e-10 1.73715e-13)
(2764.5 -8.49249e-10 1.66555e-13)
(2764.5 -8.59513e-10 1.70804e-13)
(2764.5 -8.63792e-10 1.76137e-13)
(2764.5 -8.66315e-10 1.676e-13)
(2764.5 -8.73175e-10 1.7421e-13)
(2764.5 -8.852e-10 1.75036e-13)
(2764.5 -9.00898e-10 1.70018e-13)
(2764.5 -9.15777e-10 1.71774e-13)
(2764.5 -9.26477e-10 1.65618e-13)
(2764.5 -9.37907e-10 1.62886e-13)
(2764.5 -9.46027e-10 1.64158e-13)
(2764.5 -9.52933e-10 1.65527e-13)
(2764.5 -9.58585e-10 1.64552e-13)
(2764.5 -9.58705e-10 1.75713e-13)
(2764.5 -9.60608e-10 1.71663e-13)
(2764.5 -9.68272e-10 1.68522e-13)
(2764.5 -9.80324e-10 1.68422e-13)
(2764.5 -9.9441e-10 1.69091e-13)
(2764.5 -1.00829e-09 1.67394e-13)
(2764.5 -1.02292e-09 1.68478e-13)
(2764.5 -1.03915e-09 1.61681e-13)
(2764.5 -1.05681e-09 1.74278e-13)
(2764.5 -1.07097e-09 1.7507e-13)
(2764.5 -1.08564e-09 1.679e-13)
(2764.5 -1.09495e-09 1.66e-13)
(2764.5 -1.10666e-09 1.63885e-13)
(2764.5 -1.11729e-09 1.6762e-13)
(2764.5 -1.13022e-09 1.72836e-13)
(2764.5 -1.1411e-09 1.73087e-13)
(2764.5 -1.15694e-09 1.7062e-13)
(2764.5 -1.16431e-09 1.69075e-13)
(2764.5 -1.18544e-09 1.76043e-13)
(2764.5 -1.19388e-09 1.83151e-13)
(2764.5 -8.47154e-10 1.89589e-13)
(2764.5 -8.53947e-10 1.89372e-13)
(2764.5 -8.60549e-10 1.9067e-13)
(2764.5 -8.66069e-10 1.85546e-13)
(2764.5 -8.69017e-10 1.84376e-13)
(2764.5 -8.76993e-10 1.88905e-13)
(2764.5 -8.88897e-10 1.91041e-13)
(2764.5 -9.03657e-10 1.80652e-13)
(2764.5 -9.13982e-10 1.81538e-13)
(2764.5 -9.2115e-10 1.8839e-13)
(2764.5 -9.23205e-10 1.80249e-13)
(2764.5 -9.24997e-10 1.87438e-13)
(2764.5 -9.32518e-10 1.84644e-13)
(2764.5 -9.43229e-10 1.78396e-13)
(2764.5 -9.58181e-10 1.82177e-13)
(2764.5 -9.75079e-10 1.83063e-13)
(2764.5 -9.93098e-10 1.76559e-13)
(2764.5 -1.00914e-09 1.77747e-13)
(2764.5 -1.01853e-09 1.79741e-13)
(2764.5 -1.02568e-09 1.82863e-13)
(2764.5 -1.02577e-09 1.86254e-13)
(2764.5 -1.02338e-09 1.78907e-13)
(2764.5 -1.02566e-09 1.82131e-13)
(2764.5 -1.03189e-09 1.8509e-13)
(2764.5 -1.04001e-09 1.7803e-13)
(2764.5 -1.05307e-09 1.84781e-13)
(2764.5 -1.06592e-09 1.78419e-13)
(2764.5 -1.08233e-09 1.77942e-13)
(2764.5 -1.10456e-09 1.8282e-13)
(2764.5 -1.12517e-09 1.76564e-13)
(2764.5 -1.14251e-09 1.80789e-13)
(2764.5 -1.1568e-09 1.8274e-13)
(2764.5 -1.16797e-09 1.82693e-13)
(2764.5 -1.17599e-09 1.76756e-13)
(2764.5 -1.18362e-09 1.83132e-13)
(2764.5 -1.1915e-09 1.82981e-13)
(2764.5 -1.20616e-09 1.83565e-13)
(2764.5 -1.21571e-09 1.84851e-13)
(2764.5 -1.23579e-09 1.84183e-13)
(2764.5 -1.24941e-09 1.7877e-13)
(2764.5 -9.0735e-10 2.0069e-13)
(2764.5 -9.0655e-10 2.01758e-13)
(2764.5 -9.10192e-10 1.99996e-13)
(2764.5 -9.15181e-10 2.00553e-13)
(2764.5 -9.20712e-10 1.99664e-13)
(2764.5 -9.31159e-10 1.93346e-13)
(2764.5 -9.41061e-10 1.96422e-13)
(2764.5 -9.51246e-10 1.96851e-13)
(2764.5 -9.60897e-10 1.97171e-13)
(2764.5 -9.67414e-10 1.97064e-13)
(2764.5 -9.73421e-10 1.93171e-13)
(2764.5 -9.78502e-10 1.96197e-13)
(2764.5 -9.84188e-10 1.91718e-13)
(2764.5 -9.91213e-10 1.90173e-13)
(2764.5 -1.00289e-09 1.93867e-13)
(2764.5 -1.01814e-09 1.94984e-13)
(2764.5 -1.03654e-09 1.94417e-13)
(2764.5 -1.05505e-09 1.94523e-13)
(2764.5 -1.07292e-09 1.90781e-13)
(2764.5 -1.08633e-09 1.91712e-13)
(2764.5 -1.09563e-09 1.92954e-13)
(2764.5 -1.09501e-09 1.91848e-13)
(2764.5 -1.09143e-09 1.91125e-13)
(2764.5 -1.09119e-09 1.91624e-13)
(2764.5 -1.09288e-09 1.905e-13)
(2764.5 -1.10177e-09 1.89489e-13)
(2764.5 -1.11402e-09 1.90577e-13)
(2764.5 -1.12833e-09 1.95043e-13)
(2764.5 -1.14742e-09 1.89204e-13)
(2764.5 -1.17229e-09 1.94219e-13)
(2764.5 -1.19557e-09 1.92697e-13)
(2764.5 -1.2132e-09 1.99731e-13)
(2764.5 -1.22787e-09 1.9518e-13)
(2764.5 -1.23919e-09 1.91562e-13)
(2764.5 -1.24479e-09 1.95149e-13)
(2764.5 -1.24788e-09 1.99592e-13)
(2764.5 -1.2586e-09 1.99266e-13)
(2764.5 -1.26689e-09 1.96704e-13)
(2764.5 -1.28665e-09 1.94619e-13)
(2764.5 -1.29772e-09 1.98681e-13)
(2764.5 -9.6634e-10 2.14006e-13)
(2764.5 -9.61715e-10 2.11422e-13)
(2764.5 -9.59277e-10 2.13397e-13)
(2764.5 -9.62353e-10 2.09762e-13)
(2764.5 -9.673e-10 2.07551e-13)
(2764.5 -9.73656e-10 2.14434e-13)
(2764.5 -9.82214e-10 2.16921e-13)
(2764.5 -9.92795e-10 2.10605e-13)
(2764.5 -1.00755e-09 2.09783e-13)
(2764.5 -1.01688e-09 2.12075e-13)
(2764.5 -1.02495e-09 2.08708e-13)
(2764.5 -1.03384e-09 2.10419e-13)
(2764.5 -1.04117e-09 2.05119e-13)
(2764.5 -1.04623e-09 2.03414e-13)
(2764.5 -1.05328e-09 2.10064e-13)
(2764.5 -1.06414e-09 2.04901e-13)
(2764.5 -1.0785e-09 2.02953e-13)
(2764.5 -1.09459e-09 2.09471e-13)
(2764.5 -1.11562e-09 2.09082e-13)
(2764.5 -1.13628e-09 2.03462e-13)
(2764.5 -1.1514e-09 2.03852e-13)
(2764.5 -1.15941e-09 1.97588e-13)
(2764.5 -1.15719e-09 2.03442e-13)
(2764.5 -1.15541e-09 2.0619e-13)
(2764.5 -1.1568e-09 2.09323e-13)
(2764.5 -1.15993e-09 2.09792e-13)
(2764.5 -1.16643e-09 2.0372e-13)
(2764.5 -1.17724e-09 2.04622e-13)
(2764.5 -1.19307e-09 2.01513e-13)
(2764.5 -1.21301e-09 2.0634e-13)
(2764.5 -1.23745e-09 2.0503e-13)
(2764.5 -1.25806e-09 2.02426e-13)
(2764.5 -1.27343e-09 2.04513e-13)
(2764.5 -1.28727e-09 2.08427e-13)
(2764.5 -1.29921e-09 2.01952e-13)
(2764.5 -1.30454e-09 2.04174e-13)
(2764.5 -1.31626e-09 2.05666e-13)
(2764.5 -1.32214e-09 2.03234e-13)
(2764.5 -1.33795e-09 2.03746e-13)
(2764.5 -1.34198e-09 2.07922e-13)
(2764.5 -1.0178e-09 2.31006e-13)
(2764.5 -1.01666e-09 2.28684e-13)
(2764.5 -1.01034e-09 2.26607e-13)
(2764.5 -1.0094e-09 2.21085e-13)
(2764.5 -1.01438e-09 2.25113e-13)
(2764.5 -1.0192e-09 2.2187e-13)
(2764.5 -1.02764e-09 2.24072e-13)
(2764.5 -1.03907e-09 2.24284e-13)
(2764.5 -1.05367e-09 2.28578e-13)
(2764.5 -1.0659e-09 2.24961e-13)
(2764.5 -1.07374e-09 2.167e-13)
(2764.5 -1.08033e-09 2.20971e-13)
(2764.5 -1.08969e-09 2.18454e-13)
(2764.5 -1.09804e-09 2.2149e-13)
(2764.5 -1.10424e-09 2.21503e-13)
(2764.5 -1.11314e-09 2.23749e-13)
(2764.5 -1.12528e-09 2.25625e-13)
(2764.5 -1.13836e-09 2.21494e-13)
(2764.5 -1.15912e-09 2.22575e-13)
(2764.5 -1.18276e-09 2.25392e-13)
(2764.5 -1.2021e-09 2.19739e-13)
(2764.5 -1.21632e-09 2.17571e-13)
(2764.5 -1.22597e-09 2.20119e-13)
(2764.5 -1.22348e-09 2.15748e-13)
(2764.5 -1.2205e-09 2.18387e-13)
(2764.5 -1.22309e-09 2.15438e-13)
(2764.5 -1.23074e-09 2.14248e-13)
(2764.5 -1.24203e-09 2.17686e-13)
(2764.5 -1.25608e-09 2.11394e-13)
(2764.5 -1.27342e-09 2.13718e-13)
(2764.5 -1.29047e-09 2.18189e-13)
(2764.5 -1.30842e-09 2.19202e-13)
(2764.5 -1.32337e-09 2.20802e-13)
(2764.5 -1.33657e-09 2.17035e-13)
(2764.5 -1.35239e-09 2.1557e-13)
(2764.5 -1.36436e-09 2.18136e-13)
(2764.5 -1.37589e-09 2.19508e-13)
(2764.5 -1.38197e-09 2.18965e-13)
(2764.5 -1.39693e-09 2.19511e-13)
(2764.5 -1.40292e-09 2.20802e-13)
(2764.5 -1.05371e-09 2.42199e-13)
(2764.5 -1.0634e-09 2.45178e-13)
(2764.5 -1.06832e-09 2.40553e-13)
(2764.5 -1.06594e-09 2.37872e-13)
(2764.5 -1.06432e-09 2.4267e-13)
(2764.5 -1.0673e-09 2.34283e-13)
(2764.5 -1.07033e-09 2.38551e-13)
(2764.5 -1.07356e-09 2.37576e-13)
(2764.5 -1.08052e-09 2.32893e-13)
(2764.5 -1.09242e-09 2.34916e-13)
(2764.5 -1.10516e-09 2.34074e-13)
(2764.5 -1.11536e-09 2.30853e-13)
(2764.5 -1.12302e-09 2.29499e-13)
(2764.5 -1.13063e-09 2.32305e-13)
(2764.5 -1.14015e-09 2.33581e-13)
(2764.5 -1.14958e-09 2.32147e-13)
(2764.5 -1.15952e-09 2.37513e-13)
(2764.5 -1.17296e-09 2.34138e-13)
(2764.5 -1.18714e-09 2.29766e-13)
(2764.5 -1.20775e-09 2.29196e-13)
(2764.5 -1.22817e-09 2.31445e-13)
(2764.5 -1.2459e-09 2.28997e-13)
(2764.5 -1.25939e-09 2.30995e-13)
(2764.5 -1.2748e-09 2.3208e-13)
(2764.5 -1.28711e-09 2.26206e-13)
(2764.5 -1.28979e-09 2.31956e-13)
(2764.5 -1.28941e-09 2.31916e-13)
(2764.5 -1.29037e-09 2.28259e-13)
(2764.5 -1.29806e-09 2.28451e-13)
(2764.5 -1.30913e-09 2.30959e-13)
(2764.5 -1.32548e-09 2.35569e-13)
(2764.5 -1.34337e-09 2.2603e-13)
(2764.5 -1.35896e-09 2.27453e-13)
(2764.5 -1.37312e-09 2.34716e-13)
(2764.5 -1.38681e-09 2.29676e-13)
(2764.5 -1.40227e-09 2.30462e-13)
(2764.5 -1.41717e-09 2.33175e-13)
(2764.5 -1.43297e-09 2.3494e-13)
(2764.5 -1.43966e-09 2.30251e-13)
(2764.5 -1.44986e-09 2.32905e-13)
(2764.5 -1.45722e-09 2.29576e-13)
(2764.5 -1.1041e-09 2.59469e-13)
(2764.5 -1.11409e-09 2.64333e-13)
(2764.5 -1.12024e-09 2.5335e-13)
(2764.5 -1.12473e-09 2.51801e-13)
(2764.5 -1.12599e-09 2.54424e-13)
(2764.5 -1.12856e-09 2.49805e-13)
(2764.5 -1.13004e-09 2.48121e-13)
(2764.5 -1.13141e-09 2.46498e-13)
(2764.5 -1.13441e-09 2.50015e-13)
(2764.5 -1.14026e-09 2.5135e-13)
(2764.5 -1.14852e-09 2.46878e-13)
(2764.5 -1.15714e-09 2.42846e-13)
(2764.5 -1.16712e-09 2.4621e-13)
(2764.5 -1.1745e-09 2.47222e-13)
(2764.5 -1.18445e-09 2.46046e-13)
(2764.5 -1.19596e-09 2.44312e-13)
(2764.5 -1.20641e-09 2.45823e-13)
(2764.5 -1.21696e-09 2.45009e-13)
(2764.5 -1.22695e-09 2.43915e-13)
(2764.5 -1.24487e-09 2.44181e-13)
(2764.5 -1.26536e-09 2.4169e-13)
(2764.5 -1.28399e-09 2.48219e-13)
(2764.5 -1.29855e-09 2.45046e-13)
(2764.5 -1.31565e-09 2.33224e-13)
(2764.5 -1.33163e-09 2.37887e-13)
(2764.5 -1.34099e-09 2.44641e-13)
(2764.5 -1.34424e-09 2.38071e-13)
(2764.5 -1.3441e-09 2.39211e-13)
(2764.5 -1.34539e-09 2.37787e-13)
(2764.5 -1.35249e-09 2.41484e-13)
(2764.5 -1.36649e-09 2.37848e-13)
(2764.5 -1.38469e-09 2.37964e-13)
(2764.5 -1.40257e-09 2.45215e-13)
(2764.5 -1.41924e-09 2.44621e-13)
(2764.5 -1.43314e-09 2.50325e-13)
(2764.5 -1.44826e-09 2.49079e-13)
(2764.5 -1.46172e-09 2.42768e-13)
(2764.5 -1.48014e-09 2.44423e-13)
(2764.5 -1.49174e-09 2.51345e-13)
(2764.5 -1.50496e-09 2.46927e-13)
(2764.5 -1.51239e-09 2.44025e-13)
(2764.5 -1.14481e-09 2.76463e-13)
(2764.5 -1.1533e-09 2.82165e-13)
(2764.5 -1.16372e-09 2.66471e-13)
(2764.5 -1.17318e-09 2.63833e-13)
(2764.5 -1.17914e-09 2.66721e-13)
(2764.5 -1.18273e-09 2.64273e-13)
(2764.5 -1.18532e-09 2.62319e-13)
(2764.5 -1.18854e-09 2.65034e-13)
(2764.5 -1.19075e-09 2.64231e-13)
(2764.5 -1.19287e-09 2.63876e-13)
(2764.5 -1.19674e-09 2.68136e-13)
(2764.5 -1.20018e-09 2.59142e-13)
(2764.5 -1.20676e-09 2.57775e-13)
(2764.5 -1.21593e-09 2.58023e-13)
(2764.5 -1.22139e-09 2.58924e-13)
(2764.5 -1.22787e-09 2.59646e-13)
(2764.5 -1.23838e-09 2.62547e-13)
(2764.5 -1.24991e-09 2.61703e-13)
(2764.5 -1.25904e-09 2.57626e-13)
(2764.5 -1.26462e-09 2.54024e-13)
(2764.5 -1.27751e-09 2.54012e-13)
(2764.5 -1.29879e-09 2.55318e-13)
(2764.5 -1.32078e-09 2.52595e-13)
(2764.5 -1.33576e-09 2.50688e-13)
(2764.5 -1.35025e-09 2.57113e-13)
(2764.5 -1.36451e-09 2.57802e-13)
(2764.5 -1.37576e-09 2.57189e-13)
(2764.5 -1.38464e-09 2.55638e-13)
(2764.5 -1.39144e-09 2.55329e-13)
(2764.5 -1.39445e-09 2.53082e-13)
(2764.5 -1.39628e-09 2.53264e-13)
(2764.5 -1.40613e-09 2.60766e-13)
(2764.5 -1.42368e-09 2.58635e-13)
(2764.5 -1.44301e-09 2.49945e-13)
(2764.5 -1.46064e-09 2.51675e-13)
(2764.5 -1.47486e-09 2.5396e-13)
(2764.5 -1.48886e-09 2.54389e-13)
(2764.5 -1.50176e-09 2.52358e-13)
(2764.5 -1.52143e-09 2.58532e-13)
(2764.5 -1.53521e-09 2.62195e-13)
(2764.5 -1.55525e-09 2.54298e-13)
(2764.5 -1.56651e-09 2.54963e-13)
(2764.5 -1.18253e-09 2.88111e-13)
(2764.5 -1.19215e-09 2.87347e-13)
(2764.5 -1.20271e-09 2.82357e-13)
(2764.5 -1.21354e-09 2.80802e-13)
(2764.5 -1.22475e-09 2.85479e-13)
(2764.5 -1.23052e-09 2.81985e-13)
(2764.5 -1.23357e-09 2.78494e-13)
(2764.5 -1.23734e-09 2.79257e-13)
(2764.5 -1.24236e-09 2.78443e-13)
(2764.5 -1.24717e-09 2.78438e-13)
(2764.5 -1.25167e-09 2.77894e-13)
(2764.5 -1.25405e-09 2.77561e-13)
(2764.5 -1.25446e-09 2.71026e-13)
(2764.5 -1.25885e-09 2.70259e-13)
(2764.5 -1.26782e-09 2.69223e-13)
(2764.5 -1.2734e-09 2.68319e-13)
(2764.5 -1.27648e-09 2.71376e-13)
(2764.5 -1.28222e-09 2.69815e-13)
(2764.5 -1.2917e-09 2.68807e-13)
(2764.5 -1.30388e-09 2.61998e-13)
(2764.5 -1.31539e-09 2.64635e-13)
(2764.5 -1.32768e-09 2.69371e-13)
(2764.5 -1.3417e-09 2.67857e-13)
(2764.5 -1.35978e-09 2.64742e-13)
(2764.5 -1.37484e-09 2.68944e-13)
(2764.5 -1.3885e-09 2.68246e-13)
(2764.5 -1.40329e-09 2.68384e-13)
(2764.5 -1.4161e-09 2.64594e-13)
(2764.5 -1.42409e-09 2.66516e-13)
(2764.5 -1.43276e-09 2.64163e-13)
(2764.5 -1.44304e-09 2.64272e-13)
(2764.5 -1.45006e-09 2.67464e-13)
(2764.5 -1.45851e-09 2.6582e-13)
(2764.5 -1.46951e-09 2.60137e-13)
(2764.5 -1.48536e-09 2.63463e-13)
(2764.5 -1.50133e-09 2.66121e-13)
(2764.5 -1.51837e-09 2.63882e-13)