/*--------------------------------*- C++ -*----------------------------------*\
| =========                 |                                                 |
| \\      /  F ield         | OpenFOAM: The Open Source CFD Toolbox           |
|  \\    /   O peration     | Version:  v1706                                 |
|   \\  /    A nd           | Web:      www.OpenFOAM.com                      |
|    \\/     M anipulation  |                                                 |
\*---------------------------------------------------------------------------*/
FoamFile
{
    version     2.0;
    format      ascii;
    class       volScalarField;
    location    "2e-05";
    object      wallHeatFlux;
}
// * * * * * * * * * * * * * * * * * * * * * * * * * * * * * * * * * * * * * //

dimensions      [1 0 -3 0 0 0 0];


internalField   uniform 0;

boundaryField
{
    cone
    {
        type            calculated;
        value           nonuniform List<scalar> 
153
(
551203
545644
540114
534610
529131
523676
518244
512836
507451
502090
496754
491442
486156
480896
475662
470455
465275
460124
455001
449907
444842
439807
434803
429829
424886
419975
415096
410250
405437
400658
395913
391203
386529
381892
377292
372733
368214
363739
359310
354930
350604
346335
342133
338003
333953
329974
326071
322057
318239
314994
312005
309228
306613
304129
301752
299465
297254
295110
293022
290984
288993
287042
285126
283242
281384
279550
277737
275943
274164
272400
270647
268905
267171
265443
263721
262003
260288
258575
256862
255150
253436
251721
250003
248283
246559
244831
243099
241362
239621
237874
236123
234366
232605
230837
229065
227288
225506
223719
221927
220131
218331
216528
214721
212911
211098
209282
207465
205646
203825
202004
200182
198361
196539
194718
192899
191081
189265
187452
185641
183834
182030
180230
178435
176645
174861
173082
171310
169545
167787
166037
164295
162562
160839
159125
157421
155729
154048
152378
150722
149078
147447
145831
144230
142643
141072
139517
137978
136457
134952
133466
131998
130549
129118
)
;
    }
    inlet
    {
        type            calculated;
        value           uniform 0;
    }
    rWedge
    {
        type            wedge;
    }
    lWedge
    {
        type            wedge;
    }
    outlet
    {
        type            calculated;
        value           nonuniform 0();
    }
    procBoundary2to0
    {
        type            processor;
        value           uniform 0;
    }
    procBoundary2to1
    {
        type            processor;
        value           uniform 0;
    }
    procBoundary2to3
    {
        type            processor;
        value           uniform 0;
    }
}


// ************************************************************************* //
