/*--------------------------------*- C++ -*----------------------------------*\
| =========                 |                                                 |
| \\      /  F ield         | OpenFOAM: The Open Source CFD Toolbox           |
|  \\    /   O peration     | Version:  v1706                                 |
|   \\  /    A nd           | Web:      www.OpenFOAM.com                      |
|    \\/     M anipulation  |                                                 |
\*---------------------------------------------------------------------------*/
FoamFile
{
    version     2.0;
    format      ascii;
    class       volScalarField;
    location    "3.3e-05";
    object      alpha;
}
// * * * * * * * * * * * * * * * * * * * * * * * * * * * * * * * * * * * * * //

dimensions      [1 -1 -1 0 0 0 0];


internalField   nonuniform List<scalar> 
30104
(
1.40967e-05
1.41037e-05
1.41116e-05
1.41205e-05
1.41306e-05
1.4142e-05
1.4155e-05
1.41697e-05
1.41862e-05
1.42045e-05
1.42248e-05
1.42471e-05
1.42715e-05
1.42985e-05
1.43286e-05
1.43625e-05
1.44006e-05
1.45654e-05
1.45048e-05
1.44525e-05
1.44048e-05
1.436e-05
1.43174e-05
1.42774e-05
1.42406e-05
1.42082e-05
1.41811e-05
1.41592e-05
1.41411e-05
1.41259e-05
1.41126e-05
1.41011e-05
1.40915e-05
1.40836e-05
1.40772e-05
1.40718e-05
1.40674e-05
1.40636e-05
1.40604e-05
1.40578e-05
1.40557e-05
1.4054e-05
1.40527e-05
1.40517e-05
1.40509e-05
1.40502e-05
1.40497e-05
1.40493e-05
1.4049e-05
1.40487e-05
1.40485e-05
1.40483e-05
1.40482e-05
1.40481e-05
1.4048e-05
1.4048e-05
1.40479e-05
1.40479e-05
1.40479e-05
1.40478e-05
1.40478e-05
1.40478e-05
1.40478e-05
1.40478e-05
1.40478e-05
1.40478e-05
1.40478e-05
1.40478e-05
1.40478e-05
1.40478e-05
1.40478e-05
1.40478e-05
1.40478e-05
1.40478e-05
1.40478e-05
1.40478e-05
1.40478e-05
1.40478e-05
1.40478e-05
1.40478e-05
1.40478e-05
1.40478e-05
1.40478e-05
1.40478e-05
1.40478e-05
1.40478e-05
1.40478e-05
1.40478e-05
1.40478e-05
1.40478e-05
1.40478e-05
1.40478e-05
1.40478e-05
1.40478e-05
1.40478e-05
1.40478e-05
1.40478e-05
1.40478e-05
1.40478e-05
1.40478e-05
1.40478e-05
1.40478e-05
1.40478e-05
1.40478e-05
1.40478e-05
1.40478e-05
1.40478e-05
1.40478e-05
1.40478e-05
1.40478e-05
1.40478e-05
1.40478e-05
1.40478e-05
1.40478e-05
1.40478e-05
1.40478e-05
1.40478e-05
1.40478e-05
1.40478e-05
1.40478e-05
1.40478e-05
1.40478e-05
1.40478e-05
1.40478e-05
1.40478e-05
1.40478e-05
1.40478e-05
1.40478e-05
1.40478e-05
1.40478e-05
1.40478e-05
1.40478e-05
1.40478e-05
1.40478e-05
1.40478e-05
1.40478e-05
1.40478e-05
1.40478e-05
1.40478e-05
1.40478e-05
1.40478e-05
1.40478e-05
1.40478e-05
1.40478e-05
1.40478e-05
1.40478e-05
1.40478e-05
1.40478e-05
1.40478e-05
1.40478e-05
1.40478e-05
1.40478e-05
1.40478e-05
1.40478e-05
1.40478e-05
1.40478e-05
1.40478e-05
1.40478e-05
1.40478e-05
1.40478e-05
1.40478e-05
1.40478e-05
1.40478e-05
1.40478e-05
1.40478e-05
1.40478e-05
1.40478e-05
1.40478e-05
1.40478e-05
1.40478e-05
1.40478e-05
1.40478e-05
1.40478e-05
1.40478e-05
1.40478e-05
1.40478e-05
1.40478e-05
1.40478e-05
1.40478e-05
1.40478e-05
1.40478e-05
1.40478e-05
1.40478e-05
1.40478e-05
1.40478e-05
1.40478e-05
1.40478e-05
1.40478e-05
1.40478e-05
1.40478e-05
1.40478e-05
1.40478e-05
1.40478e-05
1.40478e-05
1.40478e-05
1.40478e-05
1.40478e-05
1.40478e-05
1.40478e-05
1.40478e-05
1.40478e-05
1.40478e-05
1.40478e-05
1.40478e-05
1.40478e-05
1.40478e-05
1.40478e-05
1.40478e-05
1.40478e-05
1.40478e-05
1.43473e-05
1.43895e-05
1.44367e-05
1.44895e-05
1.45485e-05
1.46149e-05
1.46898e-05
1.47738e-05
1.48677e-05
1.49715e-05
1.50854e-05
1.52093e-05
1.53437e-05
1.54906e-05
1.56524e-05
1.58303e-05
1.60239e-05
1.71108e-05
1.6784e-05
1.65104e-05
1.62635e-05
1.60278e-05
1.57978e-05
1.55745e-05
1.53634e-05
1.51719e-05
1.50056e-05
1.48652e-05
1.47451e-05
1.46393e-05
1.45446e-05
1.44601e-05
1.43865e-05
1.43246e-05
1.42742e-05
1.42332e-05
1.41992e-05
1.41707e-05
1.41469e-05
1.41274e-05
1.41116e-05
1.40989e-05
1.40887e-05
1.40803e-05
1.40735e-05
1.40679e-05
1.40635e-05
1.40601e-05
1.40574e-05
1.40552e-05
1.40535e-05
1.40522e-05
1.40512e-05
1.40504e-05
1.40498e-05
1.40493e-05
1.40489e-05
1.40486e-05
1.40484e-05
1.40482e-05
1.40481e-05
1.4048e-05
1.4048e-05
1.40479e-05
1.40479e-05
1.40479e-05
1.40478e-05
1.40478e-05
1.40478e-05
1.40478e-05
1.40478e-05
1.40478e-05
1.40478e-05
1.40478e-05
1.40478e-05
1.40478e-05
1.40478e-05
1.40478e-05
1.40478e-05
1.40478e-05
1.40478e-05
1.40478e-05
1.40478e-05
1.40478e-05
1.40478e-05
1.40478e-05
1.40478e-05
1.40478e-05
1.40478e-05
1.40478e-05
1.40478e-05
1.40478e-05
1.40478e-05
1.40478e-05
1.40478e-05
1.40478e-05
1.40478e-05
1.40478e-05
1.40478e-05
1.40478e-05
1.40478e-05
1.40478e-05
1.40478e-05
1.40478e-05
1.40478e-05
1.40478e-05
1.40478e-05
1.40478e-05
1.40478e-05
1.40478e-05
1.40478e-05
1.40478e-05
1.40478e-05
1.40478e-05
1.40478e-05
1.40478e-05
1.40478e-05
1.40478e-05
1.40478e-05
1.40478e-05
1.40478e-05
1.40478e-05
1.40478e-05
1.40478e-05
1.40478e-05
1.40478e-05
1.40478e-05
1.40478e-05
1.40478e-05
1.40478e-05
1.40478e-05
1.40478e-05
1.40478e-05
1.40478e-05
1.40478e-05
1.40478e-05
1.40478e-05
1.40478e-05
1.40478e-05
1.40478e-05
1.40478e-05
1.40478e-05
1.40478e-05
1.40478e-05
1.40478e-05
1.40478e-05
1.40478e-05
1.40478e-05
1.40478e-05
1.40478e-05
1.40478e-05
1.40478e-05
1.40478e-05
1.40478e-05
1.40478e-05
1.40478e-05
1.40478e-05
1.40478e-05
1.40478e-05
1.40478e-05
1.40478e-05
1.40478e-05
1.40478e-05
1.40478e-05
1.40478e-05
1.40478e-05
1.40478e-05
1.40478e-05
1.40478e-05
1.40478e-05
1.40478e-05
1.40478e-05
1.40478e-05
1.40478e-05
1.40478e-05
1.40478e-05
1.40478e-05
1.40478e-05
1.40478e-05
1.40478e-05
1.40478e-05
1.40478e-05
1.40478e-05
1.40478e-05
1.40478e-05
1.40478e-05
1.40478e-05
1.40478e-05
1.40478e-05
1.40478e-05
1.40478e-05
1.40478e-05
1.40478e-05
1.40478e-05
1.40478e-05
1.40478e-05
1.40478e-05
1.40478e-05
1.40478e-05
1.40478e-05
1.40478e-05
1.40478e-05
1.40478e-05
1.40478e-05
1.40478e-05
1.40478e-05
1.40478e-05
1.40478e-05
1.40478e-05
1.40478e-05
1.50882e-05
1.52264e-05
1.53785e-05
1.55456e-05
1.57298e-05
1.59339e-05
1.6159e-05
1.64047e-05
1.66694e-05
1.69507e-05
1.72459e-05
1.75526e-05
1.78701e-05
1.8203e-05
1.8569e-05
1.89657e-05
2.11201e-05
2.08472e-05
2.05227e-05
2.01525e-05
1.9742e-05
1.92949e-05
1.88161e-05
1.83135e-05
1.78031e-05
1.73178e-05
1.69072e-05
1.65563e-05
1.62377e-05
1.59384e-05
1.56577e-05
1.54021e-05
1.51792e-05
1.49924e-05
1.48364e-05
1.47032e-05
1.45873e-05
1.44869e-05
1.44019e-05
1.43325e-05
1.42769e-05
1.42322e-05
1.41956e-05
1.41655e-05
1.4141e-05
1.41214e-05
1.41059e-05
1.40935e-05
1.40836e-05
1.40757e-05
1.40693e-05
1.40643e-05
1.40605e-05
1.40575e-05
1.40552e-05
1.40534e-05
1.4052e-05
1.40509e-05
1.40501e-05
1.40495e-05
1.40491e-05
1.40487e-05
1.40485e-05
1.40483e-05
1.40481e-05
1.4048e-05
1.4048e-05
1.40479e-05
1.40479e-05
1.40478e-05
1.40478e-05
1.40478e-05
1.40478e-05
1.40478e-05
1.40478e-05
1.40478e-05
1.40478e-05
1.40478e-05
1.40478e-05
1.40478e-05
1.40478e-05
1.40478e-05
1.40478e-05
1.40478e-05
1.40478e-05
1.40478e-05
1.40478e-05
1.40478e-05
1.40478e-05
1.40478e-05
1.40478e-05
1.40478e-05
1.40478e-05
1.40478e-05
1.40478e-05
1.40478e-05
1.40478e-05
1.40478e-05
1.40478e-05
1.40478e-05
1.40478e-05
1.40478e-05
1.40478e-05
1.40478e-05
1.40478e-05
1.40478e-05
1.40478e-05
1.40478e-05
1.40478e-05
1.40478e-05
1.40478e-05
1.40478e-05
1.40478e-05
1.40478e-05
1.40478e-05
1.40478e-05
1.40478e-05
1.40478e-05
1.40478e-05
1.40478e-05
1.40478e-05
1.40478e-05
1.40478e-05
1.40478e-05
1.40478e-05
1.40478e-05
1.40478e-05
1.40478e-05
1.40478e-05
1.40478e-05
1.40478e-05
1.40478e-05
1.40478e-05
1.40478e-05
1.40478e-05
1.40478e-05
1.40478e-05
1.40478e-05
1.40478e-05
1.40478e-05
1.40478e-05
1.40478e-05
1.40478e-05
1.40478e-05
1.40478e-05
1.40478e-05
1.40478e-05
1.40478e-05
1.40478e-05
1.40478e-05
1.40478e-05
1.40478e-05
1.40478e-05
1.40478e-05
1.40478e-05
1.40478e-05
1.40478e-05
1.40478e-05
1.40478e-05
1.40478e-05
1.40478e-05
1.40478e-05
1.40478e-05
1.40478e-05
1.40478e-05
1.40478e-05
1.40478e-05
1.40478e-05
1.40478e-05
1.40478e-05
1.40478e-05
1.40478e-05
1.40478e-05
1.40478e-05
1.40478e-05
1.40478e-05
1.40478e-05
1.40478e-05
1.40478e-05
1.40478e-05
1.40478e-05
1.40478e-05
1.40478e-05
1.40478e-05
1.40478e-05
1.40478e-05
1.40478e-05
1.40478e-05
1.40478e-05
1.40478e-05
1.40478e-05
1.40478e-05
1.40478e-05
1.40478e-05
1.40478e-05
1.40478e-05
1.40478e-05
1.40478e-05
1.40478e-05
1.40478e-05
1.40478e-05
1.40478e-05
1.40478e-05
1.40478e-05
1.40478e-05
1.40478e-05
1.40479e-05
1.40479e-05
1.40478e-05
1.70302e-05
1.7358e-05
1.77016e-05
1.80601e-05
1.84388e-05
1.88521e-05
1.92973e-05
1.97659e-05
2.02468e-05
2.07276e-05
2.11971e-05
2.16458e-05
2.20664e-05
2.24527e-05
2.2798e-05
2.31024e-05
2.23752e-05
2.231e-05
2.22384e-05
2.21585e-05
2.2066e-05
2.19548e-05
2.18164e-05
2.16392e-05
2.14107e-05
2.11192e-05
2.07553e-05
2.03254e-05
1.98404e-05
1.931e-05
1.87443e-05
1.81595e-05
1.75877e-05
1.70876e-05
1.66703e-05
1.63022e-05
1.59639e-05
1.56533e-05
1.5377e-05
1.51419e-05
1.49487e-05
1.47885e-05
1.46524e-05
1.45356e-05
1.44369e-05
1.43563e-05
1.42925e-05
1.4242e-05
1.42014e-05
1.41685e-05
1.4142e-05
1.4121e-05
1.41047e-05
1.40919e-05
1.40817e-05
1.40736e-05
1.40673e-05
1.40624e-05
1.40587e-05
1.4056e-05
1.40538e-05
1.40522e-05
1.40511e-05
1.40502e-05
1.40495e-05
1.4049e-05
1.40487e-05
1.40484e-05
1.40482e-05
1.40481e-05
1.4048e-05
1.40479e-05
1.40479e-05
1.40479e-05
1.40478e-05
1.40478e-05
1.40478e-05
1.40478e-05
1.40478e-05
1.40478e-05
1.40478e-05
1.40478e-05
1.40478e-05
1.40478e-05
1.40478e-05
1.40478e-05
1.40478e-05
1.40478e-05
1.40478e-05
1.40478e-05
1.40478e-05
1.40478e-05
1.40478e-05
1.40478e-05
1.40478e-05
1.40478e-05
1.40478e-05
1.40478e-05
1.40478e-05
1.40478e-05
1.40478e-05
1.40478e-05
1.40478e-05
1.40478e-05
1.40478e-05
1.40478e-05
1.40478e-05
1.40478e-05
1.40478e-05
1.40478e-05
1.40478e-05
1.40478e-05
1.40478e-05
1.40478e-05
1.40478e-05
1.40478e-05
1.40478e-05
1.40478e-05
1.40478e-05
1.40478e-05
1.40478e-05
1.40478e-05
1.40478e-05
1.40478e-05
1.40478e-05
1.40478e-05
1.40478e-05
1.40478e-05
1.40478e-05
1.40478e-05
1.40478e-05
1.40478e-05
1.40478e-05
1.40478e-05
1.40478e-05
1.40478e-05
1.40478e-05
1.40478e-05
1.40478e-05
1.40478e-05
1.40478e-05
1.40478e-05
1.40478e-05
1.40478e-05
1.40478e-05
1.40478e-05
1.40478e-05
1.40478e-05
1.40478e-05
1.40478e-05
1.40478e-05
1.40478e-05
1.40478e-05
1.40478e-05
1.40478e-05
1.40478e-05
1.40478e-05
1.40478e-05
1.40478e-05
1.40478e-05
1.40478e-05
1.40478e-05
1.40478e-05
1.40478e-05
1.40478e-05
1.40478e-05
1.40478e-05
1.40479e-05
1.40479e-05
1.40479e-05
1.40479e-05
1.40479e-05
1.40479e-05
1.40479e-05
1.40479e-05
1.40479e-05
1.40479e-05
1.40479e-05
1.40479e-05
1.40479e-05
1.40479e-05
1.40479e-05
1.40479e-05
1.40479e-05
1.40479e-05
1.40479e-05
1.40479e-05
1.40479e-05
1.40479e-05
1.40479e-05
1.40479e-05
1.40479e-05
1.40479e-05
1.4048e-05
1.4048e-05
1.4048e-05
1.4048e-05
1.4048e-05
1.4048e-05
1.4048e-05
1.4048e-05
1.4048e-05
1.4048e-05
1.4048e-05
1.4048e-05
1.4048e-05
1.4048e-05
1.40481e-05
1.4048e-05
2.06939e-05
2.12028e-05
2.16937e-05
2.21569e-05
2.25836e-05
2.29659e-05
2.33031e-05
2.35967e-05
2.38493e-05
2.40649e-05
2.42474e-05
2.44011e-05
2.45294e-05
2.46356e-05
2.47223e-05
2.27126e-05
2.2691e-05
2.267e-05
2.26485e-05
2.26244e-05
2.25959e-05
2.25613e-05
2.25189e-05
2.24681e-05
2.24105e-05
2.23435e-05
2.22624e-05
2.21593e-05
2.20228e-05
2.18407e-05
2.16019e-05
2.1296e-05
2.0911e-05
2.04485e-05
1.99201e-05
1.93375e-05
1.87145e-05
1.80762e-05
1.74695e-05
1.69598e-05
1.65318e-05
1.61502e-05
1.58018e-05
1.54899e-05
1.52225e-05
1.5003e-05
1.48242e-05
1.46746e-05
1.45477e-05
1.44413e-05
1.43553e-05
1.4288e-05
1.42355e-05
1.41937e-05
1.41603e-05
1.41339e-05
1.41135e-05
1.40977e-05
1.40855e-05
1.40759e-05
1.40686e-05
1.4063e-05
1.40589e-05
1.40559e-05
1.40537e-05
1.4052e-05
1.40508e-05
1.405e-05
1.40493e-05
1.40489e-05
1.40486e-05
1.40483e-05
1.40482e-05
1.40481e-05
1.4048e-05
1.40479e-05
1.40479e-05
1.40479e-05
1.40479e-05
1.40478e-05
1.40478e-05
1.40478e-05
1.40478e-05
1.40478e-05
1.40478e-05
1.40478e-05
1.40478e-05
1.40478e-05
1.40478e-05
1.40478e-05
1.40478e-05
1.40478e-05
1.40478e-05
1.40478e-05
1.40478e-05
1.40478e-05
1.40478e-05
1.40478e-05
1.40478e-05
1.40478e-05
1.40478e-05
1.40478e-05
1.40478e-05
1.40478e-05
1.40478e-05
1.40478e-05
1.40478e-05
1.40478e-05
1.40478e-05
1.40478e-05
1.40478e-05
1.40478e-05
1.40478e-05
1.40478e-05
1.40478e-05
1.40478e-05
1.40478e-05
1.40478e-05
1.40478e-05
1.40478e-05
1.40478e-05
1.40478e-05
1.40478e-05
1.40478e-05
1.40478e-05
1.40478e-05
1.40478e-05
1.40478e-05
1.40478e-05
1.40478e-05
1.40479e-05
1.40479e-05
1.40479e-05
1.40479e-05
1.40479e-05
1.40479e-05
1.40479e-05
1.40479e-05
1.40479e-05
1.40479e-05
1.40479e-05
1.40479e-05
1.40479e-05
1.40479e-05
1.40479e-05
1.40479e-05
1.40479e-05
1.40479e-05
1.40479e-05
1.40479e-05
1.40479e-05
1.40479e-05
1.40479e-05
1.40479e-05
1.40479e-05
1.40479e-05
1.40479e-05
1.40479e-05
1.4048e-05
1.4048e-05
1.4048e-05
1.4048e-05
1.4048e-05
1.4048e-05
1.4048e-05
1.4048e-05
1.4048e-05
1.4048e-05
1.4048e-05
1.4048e-05
1.40481e-05
1.40481e-05
1.40481e-05
1.40481e-05
1.40481e-05
1.40481e-05
1.40481e-05
1.40481e-05
1.40481e-05
1.40482e-05
1.40482e-05
1.40482e-05
1.40482e-05
1.40482e-05
1.40482e-05
1.40483e-05
1.40483e-05
1.40483e-05
1.40483e-05
1.40483e-05
1.40484e-05
1.40484e-05
1.40484e-05
1.40484e-05
1.40485e-05
1.40485e-05
1.40485e-05
1.40485e-05
1.40486e-05
1.40486e-05
1.40486e-05
1.40487e-05
1.40487e-05
1.40487e-05
1.40488e-05
1.40488e-05
1.40489e-05
1.40488e-05
2.38555e-05
2.41142e-05
2.43333e-05
2.45172e-05
2.46706e-05
2.47973e-05
2.49009e-05
2.49844e-05
2.50507e-05
2.51021e-05
2.51407e-05
2.51697e-05
2.51919e-05
2.52098e-05
2.52248e-05
2.52369e-05
2.28944e-05
2.28762e-05
2.28581e-05
2.2839e-05
2.28188e-05
2.27983e-05
2.27778e-05
2.27626e-05
2.27532e-05
2.27397e-05
2.27217e-05
2.2703e-05
2.2681e-05
2.26521e-05
2.26153e-05
2.25728e-05
2.25241e-05
2.24652e-05
2.23884e-05
2.22807e-05
2.21273e-05
2.19162e-05
2.16383e-05
2.12834e-05
2.08413e-05
2.03174e-05
1.97227e-05
1.90713e-05
1.83879e-05
1.77174e-05
1.71322e-05
1.66527e-05
1.62351e-05
1.58576e-05
1.5521e-05
1.52335e-05
1.49991e-05
1.48098e-05
1.4653e-05
1.45215e-05
1.44133e-05
1.4328e-05
1.42624e-05
1.42117e-05
1.4172e-05
1.41411e-05
1.41174e-05
1.40995e-05
1.4086e-05
1.40756e-05
1.40679e-05
1.40622e-05
1.40582e-05
1.40552e-05
1.40531e-05
1.40516e-05
1.40505e-05
1.40498e-05
1.40492e-05
1.40488e-05
1.40485e-05
1.40484e-05
1.40482e-05
1.40481e-05
1.4048e-05
1.4048e-05
1.4048e-05
1.40479e-05
1.40479e-05
1.40479e-05
1.40479e-05
1.40479e-05
1.40479e-05
1.40479e-05
1.40479e-05
1.40479e-05
1.40479e-05
1.40479e-05
1.40479e-05
1.40479e-05
1.40479e-05
1.40479e-05
1.40479e-05
1.40479e-05
1.40479e-05
1.40479e-05
1.40479e-05
1.40479e-05
1.40479e-05
1.40479e-05
1.40479e-05
1.40479e-05
1.40479e-05
1.40479e-05
1.40479e-05
1.40479e-05
1.40479e-05
1.40479e-05
1.40479e-05
1.40479e-05
1.40479e-05
1.40479e-05
1.40479e-05
1.40479e-05
1.40479e-05
1.40479e-05
1.40479e-05
1.40479e-05
1.4048e-05
1.4048e-05
1.4048e-05
1.4048e-05
1.4048e-05
1.4048e-05
1.4048e-05
1.4048e-05
1.4048e-05
1.4048e-05
1.4048e-05
1.4048e-05
1.4048e-05
1.4048e-05
1.4048e-05
1.40481e-05
1.40481e-05
1.40481e-05
1.40481e-05
1.40481e-05
1.40481e-05
1.40481e-05
1.40481e-05
1.40481e-05
1.40482e-05
1.40482e-05
1.40482e-05
1.40482e-05
1.40482e-05
1.40482e-05
1.40483e-05
1.40483e-05
1.40483e-05
1.40483e-05
1.40483e-05
1.40484e-05
1.40484e-05
1.40484e-05
1.40484e-05
1.40485e-05
1.40485e-05
1.40485e-05
1.40485e-05
1.40486e-05
1.40486e-05
1.40486e-05
1.40487e-05
1.40487e-05
1.40487e-05
1.40488e-05
1.40488e-05
1.40489e-05
1.40489e-05
1.4049e-05
1.4049e-05
1.40491e-05
1.40491e-05
1.40492e-05
1.40492e-05
1.40493e-05
1.40494e-05
1.40494e-05
1.40495e-05
1.40496e-05
1.40496e-05
1.40497e-05
1.40498e-05
1.40499e-05
1.405e-05
1.40501e-05
1.40502e-05
1.40503e-05
1.40504e-05
1.40505e-05
1.40506e-05
1.40507e-05
1.40508e-05
1.4051e-05
1.40511e-05
1.40512e-05
1.40514e-05
1.40515e-05
1.40517e-05
1.40519e-05
1.40517e-05
2.52464e-05
2.53011e-05
2.53423e-05
2.53734e-05
2.53979e-05
2.54178e-05
2.5434e-05
2.54471e-05
2.54568e-05
2.54632e-05
2.54638e-05
2.54615e-05
2.54567e-05
2.30331e-05
2.30144e-05
2.29957e-05
2.29772e-05
2.29584e-05
2.29391e-05
2.29213e-05
2.29086e-05
2.2899e-05
2.28875e-05
2.2875e-05
2.28628e-05
2.28517e-05
2.28418e-05
2.28351e-05
2.28316e-05
2.28233e-05
2.28141e-05
2.2804e-05
2.27894e-05
2.27687e-05
2.27427e-05
2.271e-05
2.26665e-05
2.26045e-05
2.25105e-05
2.23693e-05
2.21687e-05
2.18995e-05
2.15516e-05
2.11106e-05
2.05725e-05
1.9948e-05
1.92543e-05
1.85202e-05
1.77962e-05
1.7161e-05
1.66455e-05
1.61999e-05
1.58009e-05
1.54505e-05
1.5157e-05
1.4922e-05
1.47331e-05
1.45775e-05
1.44501e-05
1.43498e-05
1.42739e-05
1.42167e-05
1.41731e-05
1.41399e-05
1.41151e-05
1.40968e-05
1.40833e-05
1.40732e-05
1.4066e-05
1.40608e-05
1.40572e-05
1.40546e-05
1.40528e-05
1.40515e-05
1.40505e-05
1.40498e-05
1.40493e-05
1.4049e-05
1.40487e-05
1.40485e-05
1.40484e-05
1.40483e-05
1.40482e-05
1.40482e-05
1.40481e-05
1.40481e-05
1.40481e-05
1.40481e-05
1.4048e-05
1.4048e-05
1.4048e-05
1.4048e-05
1.4048e-05
1.4048e-05
1.4048e-05
1.40481e-05
1.40481e-05
1.40481e-05
1.40481e-05
1.40481e-05
1.40481e-05
1.40481e-05
1.40481e-05
1.40481e-05
1.40481e-05
1.40481e-05
1.40481e-05
1.40481e-05
1.40482e-05
1.40482e-05
1.40482e-05
1.40482e-05
1.40482e-05
1.40482e-05
1.40482e-05
1.40482e-05
1.40482e-05
1.40483e-05
1.40483e-05
1.40483e-05
1.40483e-05
1.40483e-05
1.40483e-05
1.40483e-05
1.40484e-05
1.40484e-05
1.40484e-05
1.40484e-05
1.40484e-05
1.40485e-05
1.40485e-05
1.40485e-05
1.40485e-05
1.40486e-05
1.40486e-05
1.40486e-05
1.40487e-05
1.40487e-05
1.40487e-05
1.40488e-05
1.40488e-05
1.40488e-05
1.40489e-05
1.40489e-05
1.4049e-05
1.4049e-05
1.40491e-05
1.40491e-05
1.40492e-05
1.40492e-05
1.40493e-05
1.40494e-05
1.40494e-05
1.40495e-05
1.40496e-05
1.40496e-05
1.40497e-05
1.40498e-05
1.40499e-05
1.405e-05
1.40501e-05
1.40502e-05
1.40503e-05
1.40504e-05
1.40505e-05
1.40506e-05
1.40507e-05
1.40508e-05
1.4051e-05
1.40511e-05
1.40512e-05
1.40514e-05
1.40515e-05
1.40517e-05
1.40519e-05
1.40521e-05
1.40522e-05
1.40524e-05
1.40526e-05
1.40529e-05
1.40531e-05
1.40533e-05
1.40536e-05
1.40538e-05
1.40541e-05
1.40544e-05
1.40547e-05
1.4055e-05
1.40553e-05
1.40556e-05
1.4056e-05
1.40563e-05
1.40567e-05
1.40571e-05
1.40575e-05
1.4058e-05
1.40584e-05
1.40589e-05
1.40594e-05
1.40599e-05
1.40605e-05
1.40611e-05
1.40617e-05
1.40623e-05
1.4063e-05
1.40624e-05
2.56478e-05
2.56549e-05
2.56563e-05
2.56544e-05
2.56503e-05
2.56446e-05
2.56385e-05
2.56328e-05
2.56267e-05
2.56221e-05
2.56184e-05
2.56145e-05
2.56089e-05
2.31604e-05
2.31394e-05
2.31186e-05
2.30985e-05
2.30787e-05
2.3059e-05
2.30409e-05
2.3026e-05
2.30137e-05
2.30031e-05
2.29934e-05
2.2984e-05
2.29749e-05
2.29668e-05
2.29614e-05
2.29564e-05
2.29509e-05
2.29474e-05
2.29474e-05
2.2949e-05
2.29536e-05
2.29608e-05
2.29625e-05
2.29635e-05
2.29634e-05
2.29607e-05
2.29542e-05
2.29423e-05
2.29219e-05
2.28874e-05
2.28289e-05
2.27337e-05
2.25881e-05
2.23802e-05
2.2099e-05
2.17303e-05
2.12552e-05
2.06667e-05
1.99786e-05
1.92143e-05
1.84134e-05
1.76433e-05
1.69961e-05
1.6467e-05
1.6006e-05
1.56001e-05
1.52567e-05
1.49817e-05
1.47655e-05
1.4592e-05
1.44528e-05
1.43456e-05
1.42663e-05
1.42081e-05
1.41649e-05
1.41329e-05
1.41096e-05
1.40927e-05
1.40804e-05
1.40714e-05
1.40651e-05
1.40605e-05
1.40573e-05
1.4055e-05
1.40533e-05
1.4052e-05
1.40511e-05
1.40504e-05
1.40499e-05
1.40495e-05
1.40492e-05
1.4049e-05
1.40489e-05
1.40488e-05
1.40487e-05
1.40487e-05
1.40486e-05
1.40486e-05
1.40486e-05
1.40486e-05
1.40486e-05
1.40486e-05
1.40486e-05
1.40486e-05
1.40486e-05
1.40486e-05
1.40487e-05
1.40487e-05
1.40487e-05
1.40487e-05
1.40488e-05
1.40488e-05
1.40488e-05
1.40489e-05
1.40489e-05
1.40489e-05
1.4049e-05
1.4049e-05
1.4049e-05
1.40491e-05
1.40491e-05
1.40491e-05
1.40492e-05
1.40492e-05
1.40493e-05
1.40493e-05
1.40493e-05
1.40494e-05
1.40494e-05
1.40495e-05
1.40495e-05
1.40496e-05
1.40497e-05
1.40497e-05
1.40498e-05
1.40499e-05
1.40499e-05
1.405e-05
1.40501e-05
1.40502e-05
1.40502e-05
1.40503e-05
1.40504e-05
1.40505e-05
1.40506e-05
1.40508e-05
1.40509e-05
1.4051e-05
1.40511e-05
1.40513e-05
1.40514e-05
1.40516e-05
1.40518e-05
1.40519e-05
1.40521e-05
1.40523e-05
1.40525e-05
1.40527e-05
1.40529e-05
1.40531e-05
1.40534e-05
1.40536e-05
1.40538e-05
1.40541e-05
1.40544e-05
1.40547e-05
1.4055e-05
1.40553e-05
1.40556e-05
1.4056e-05
1.40563e-05
1.40567e-05
1.40571e-05
1.40575e-05
1.4058e-05
1.40584e-05
1.40589e-05
1.40594e-05
1.406e-05
1.40605e-05
1.40611e-05
1.40617e-05
1.40623e-05
1.4063e-05
1.40637e-05
1.40644e-05
1.40652e-05
1.4066e-05
1.40669e-05
1.40678e-05
1.40688e-05
1.40698e-05
1.40708e-05
1.40719e-05
1.4073e-05
1.40742e-05
1.40755e-05
1.40768e-05
1.40782e-05
1.40796e-05
1.40811e-05
1.40826e-05
1.40842e-05
1.40859e-05
1.40876e-05
1.40895e-05
1.40914e-05
1.40935e-05
1.40957e-05
1.4098e-05
1.41005e-05
1.41032e-05
1.41013e-05
2.58243e-05
2.58187e-05
2.58143e-05
2.58107e-05
2.58067e-05
2.58007e-05
2.57924e-05
2.57824e-05
2.57714e-05
2.57596e-05
2.57489e-05
2.574e-05
2.57324e-05
2.57253e-05
2.32932e-05
2.32692e-05
2.32458e-05
2.3223e-05
2.32007e-05
2.31791e-05
2.31592e-05
2.31416e-05
2.31266e-05
2.31139e-05
2.31029e-05
2.30927e-05
2.30825e-05
2.30733e-05
2.30656e-05
2.30594e-05
2.30547e-05
2.30528e-05
2.30532e-05
2.3055e-05
2.30594e-05
2.30644e-05
2.30695e-05
2.30765e-05
2.30863e-05
2.30995e-05
2.3117e-05
2.3133e-05
2.31458e-05
2.31573e-05
2.31678e-05
2.31761e-05
2.31777e-05
2.31737e-05
2.31579e-05
2.31208e-05
2.30526e-05
2.29417e-05
2.2774e-05
2.25353e-05
2.22095e-05
2.17757e-05
2.12123e-05
2.05196e-05
1.97191e-05
1.88493e-05
1.79787e-05
1.72126e-05
1.66032e-05
1.60877e-05
1.56408e-05
1.52668e-05
1.49719e-05
1.47447e-05
1.45664e-05
1.44277e-05
1.43246e-05
1.42505e-05
1.4197e-05
1.41577e-05
1.41288e-05
1.41079e-05
1.40926e-05
1.40813e-05
1.4073e-05
1.4067e-05
1.40626e-05
1.40594e-05
1.4057e-05
1.40552e-05
1.40539e-05
1.40529e-05
1.40522e-05
1.40516e-05
1.40512e-05
1.40509e-05
1.40507e-05
1.40505e-05
1.40504e-05
1.40503e-05
1.40503e-05
1.40503e-05
1.40503e-05
1.40503e-05
1.40503e-05
1.40504e-05
1.40504e-05
1.40505e-05
1.40506e-05
1.40507e-05
1.40507e-05
1.40508e-05
1.40509e-05
1.4051e-05
1.40511e-05
1.40512e-05
1.40513e-05
1.40514e-05
1.40516e-05
1.40517e-05
1.40518e-05
1.40519e-05
1.4052e-05
1.40522e-05
1.40523e-05
1.40524e-05
1.40526e-05
1.40527e-05
1.40529e-05
1.40531e-05
1.40532e-05
1.40534e-05
1.40536e-05
1.40538e-05
1.4054e-05
1.40542e-05
1.40544e-05
1.40547e-05
1.40549e-05
1.40552e-05
1.40555e-05
1.40558e-05
1.40561e-05
1.40564e-05
1.40568e-05
1.40571e-05
1.40575e-05
1.40579e-05
1.40584e-05
1.40588e-05
1.40593e-05
1.40598e-05
1.40603e-05
1.40609e-05
1.40615e-05
1.40621e-05
1.40627e-05
1.40634e-05
1.40641e-05
1.40649e-05
1.40656e-05
1.40664e-05
1.40673e-05
1.40681e-05
1.4069e-05
1.407e-05
1.4071e-05
1.40721e-05
1.40732e-05
1.40744e-05
1.40757e-05
1.4077e-05
1.40784e-05
1.40798e-05
1.40814e-05
1.4083e-05
1.40847e-05
1.40864e-05
1.40883e-05
1.40902e-05
1.40922e-05
1.40943e-05
1.40965e-05
1.40988e-05
1.41012e-05
1.41037e-05
1.41064e-05
1.41092e-05
1.41122e-05
1.41153e-05
1.41187e-05
1.41222e-05
1.41259e-05
1.41298e-05
1.4134e-05
1.41383e-05
1.41428e-05
1.41474e-05
1.41523e-05
1.41574e-05
1.41626e-05
1.41681e-05
1.41739e-05
1.418e-05
1.41864e-05
1.41931e-05
1.42002e-05
1.42076e-05
1.42155e-05
1.42238e-05
1.42326e-05
1.42431e-05
1.42379e-05
2.59632e-05
2.59514e-05
2.59404e-05
2.59311e-05
2.5923e-05
2.59148e-05
2.59059e-05
2.58958e-05
2.58846e-05
2.58727e-05
2.58606e-05
2.58493e-05
2.58394e-05
2.58312e-05
2.34308e-05
2.34044e-05
2.33787e-05
2.33538e-05
2.33296e-05
2.33065e-05
2.3285e-05
2.32652e-05
2.32475e-05
2.32317e-05
2.32174e-05
2.32041e-05
2.31915e-05
2.31799e-05
2.31696e-05
2.3161e-05
2.31543e-05
2.31497e-05
2.31472e-05
2.31472e-05
2.31486e-05
2.31518e-05
2.31568e-05
2.31638e-05
2.31734e-05
2.3186e-05
2.32009e-05
2.32167e-05
2.32339e-05
2.32536e-05
2.32765e-05
2.33029e-05
2.33293e-05
2.33527e-05
2.33751e-05
2.33973e-05
2.34192e-05
2.34359e-05
2.34412e-05
2.34377e-05
2.34187e-05
2.33713e-05
2.3283e-05
2.3138e-05
2.2918e-05
2.26031e-05
2.21696e-05
2.15907e-05
2.08562e-05
1.99893e-05
1.90361e-05
1.80796e-05
1.72435e-05
1.65895e-05
1.60455e-05
1.55839e-05
1.52089e-05
1.49223e-05
1.47053e-05
1.45376e-05
1.44099e-05
1.43166e-05
1.42496e-05
1.42005e-05
1.41637e-05
1.41361e-05
1.41157e-05
1.41005e-05
1.40891e-05
1.40804e-05
1.4074e-05
1.40692e-05
1.40657e-05
1.4063e-05
1.4061e-05
1.40594e-05
1.40583e-05
1.40574e-05
1.40567e-05
1.40562e-05
1.40559e-05
1.40557e-05
1.40555e-05
1.40555e-05
1.40555e-05
1.40556e-05
1.40557e-05
1.40559e-05
1.40561e-05
1.40563e-05
1.40566e-05
1.40568e-05
1.40571e-05
1.40574e-05
1.40577e-05
1.40581e-05
1.40584e-05
1.40587e-05
1.40591e-05
1.40594e-05
1.40598e-05
1.40602e-05
1.40606e-05
1.4061e-05
1.40614e-05
1.40619e-05
1.40623e-05
1.40628e-05
1.40633e-05
1.40638e-05
1.40643e-05
1.40649e-05
1.40655e-05
1.40661e-05
1.40668e-05
1.40675e-05
1.40682e-05
1.40689e-05
1.40697e-05
1.40705e-05
1.40714e-05
1.40723e-05
1.40733e-05
1.40743e-05
1.40754e-05
1.40766e-05
1.40778e-05
1.40791e-05
1.40804e-05
1.40819e-05
1.40834e-05
1.40851e-05
1.40868e-05
1.40886e-05
1.40905e-05
1.40926e-05
1.40947e-05
1.40969e-05
1.40992e-05
1.41016e-05
1.41041e-05
1.41067e-05
1.41095e-05
1.41123e-05
1.41153e-05
1.41184e-05
1.41217e-05
1.41252e-05
1.41288e-05
1.41327e-05
1.41367e-05
1.4141e-05
1.41456e-05
1.41504e-05
1.41555e-05
1.41608e-05
1.41664e-05
1.41723e-05
1.41784e-05
1.41849e-05
1.41916e-05
1.41985e-05
1.42058e-05
1.42134e-05
1.42214e-05
1.42298e-05
1.42387e-05
1.42482e-05
1.42582e-05
1.42689e-05
1.42801e-05
1.4292e-05
1.43046e-05
1.43179e-05
1.43319e-05
1.43466e-05
1.43623e-05
1.43788e-05
1.43962e-05
1.44143e-05
1.44332e-05
1.44527e-05
1.44727e-05
1.44931e-05
1.45141e-05
1.45358e-05
1.45584e-05
1.45821e-05
1.46071e-05
1.46338e-05
1.46618e-05
1.46978e-05
1.46872e-05
2.60742e-05
2.60616e-05
2.60489e-05
2.6037e-05
2.60267e-05
2.60179e-05
2.601e-05
2.60023e-05
2.59943e-05
2.59857e-05
2.59766e-05
2.59674e-05
2.59585e-05
2.59506e-05
2.35726e-05
2.35444e-05
2.3517e-05
2.34905e-05
2.3465e-05
2.34406e-05
2.34175e-05
2.33958e-05
2.33757e-05
2.3357e-05
2.33395e-05
2.33232e-05
2.33079e-05
2.32936e-05
2.32804e-05
2.32686e-05
2.32583e-05
2.32499e-05
2.32435e-05
2.32393e-05
2.32374e-05
2.32377e-05
2.32395e-05
2.32434e-05
2.32497e-05
2.32586e-05
2.32702e-05
2.32843e-05
2.3301e-05
2.33205e-05
2.33428e-05
2.33672e-05
2.33934e-05
2.34213e-05
2.34514e-05
2.34845e-05
2.35208e-05
2.35572e-05
2.3589e-05
2.36203e-05
2.36518e-05
2.36824e-05
2.37102e-05
2.37284e-05
2.37311e-05
2.37219e-05
2.36865e-05
2.36084e-05
2.34692e-05
2.3246e-05
2.29135e-05
2.24426e-05
2.18027e-05
2.09849e-05
2.00231e-05
1.89844e-05
1.79789e-05
1.71449e-05
1.65042e-05
1.59753e-05
1.55343e-05
1.51839e-05
1.49194e-05
1.47185e-05
1.45609e-05
1.44387e-05
1.43473e-05
1.42803e-05
1.42305e-05
1.41924e-05
1.41631e-05
1.41409e-05
1.41242e-05
1.41115e-05
1.41017e-05
1.4094e-05
1.4088e-05
1.40833e-05
1.40798e-05
1.40771e-05
1.40751e-05
1.40737e-05
1.40726e-05
1.4072e-05
1.40716e-05
1.40715e-05
1.40716e-05
1.40719e-05
1.40723e-05
1.40729e-05
1.40735e-05
1.40743e-05
1.40751e-05
1.40759e-05
1.40769e-05
1.40778e-05
1.40788e-05
1.40799e-05
1.40809e-05
1.4082e-05
1.40832e-05
1.40844e-05
1.40856e-05
1.40868e-05
1.40881e-05
1.40895e-05
1.40909e-05
1.40923e-05
1.40939e-05
1.40955e-05
1.40972e-05
1.40989e-05
1.41008e-05
1.41027e-05
1.41048e-05
1.41069e-05
1.41092e-05
1.41116e-05
1.41141e-05
1.41167e-05
1.41194e-05
1.41222e-05
1.41252e-05
1.41284e-05
1.41317e-05
1.41352e-05
1.4139e-05
1.41429e-05
1.41471e-05
1.41515e-05
1.41562e-05
1.41612e-05
1.41665e-05
1.41721e-05
1.4178e-05
1.41843e-05
1.41909e-05
1.41978e-05
1.42051e-05
1.42127e-05
1.42206e-05
1.42288e-05
1.42373e-05
1.42462e-05
1.42555e-05
1.42653e-05
1.42755e-05
1.42862e-05
1.42976e-05
1.43096e-05
1.43223e-05
1.43357e-05
1.435e-05
1.43652e-05
1.43813e-05
1.43983e-05
1.44163e-05
1.44352e-05
1.4455e-05
1.44758e-05
1.44973e-05
1.45197e-05
1.45429e-05
1.45669e-05
1.45919e-05
1.46178e-05
1.46448e-05
1.4673e-05
1.47024e-05
1.47334e-05
1.4766e-05
1.48006e-05
1.48374e-05
1.48765e-05
1.49182e-05
1.49624e-05
1.50092e-05
1.50584e-05
1.51097e-05
1.51631e-05
1.52183e-05
1.5275e-05
1.53329e-05
1.5392e-05
1.54525e-05
1.55146e-05
1.55785e-05
1.56447e-05
1.57126e-05
1.5784e-05
1.58552e-05
1.59486e-05
1.5944e-05
2.61809e-05
2.61716e-05
2.61618e-05
2.6152e-05
2.61425e-05
2.61341e-05
2.61268e-05
2.61203e-05
2.61143e-05
2.61083e-05
2.6102e-05
2.60955e-05
2.60889e-05
2.37176e-05
2.3688e-05
2.36595e-05
2.36319e-05
2.36052e-05
2.35796e-05
2.3555e-05
2.35314e-05
2.3509e-05
2.34877e-05
2.34675e-05
2.34483e-05
2.34302e-05
2.3413e-05
2.33968e-05
2.33818e-05
2.3368e-05
2.33558e-05
2.33455e-05
2.3337e-05
2.33305e-05
2.33259e-05
2.33235e-05
2.33235e-05
2.33253e-05
2.33297e-05
2.33369e-05
2.33471e-05
2.33601e-05
2.33758e-05
2.33941e-05
2.3415e-05
2.34387e-05
2.34651e-05
2.34944e-05
2.35259e-05
2.35588e-05
2.35931e-05
2.36287e-05
2.36662e-05
2.37063e-05
2.37491e-05
2.37939e-05
2.38375e-05
2.38759e-05
2.39152e-05
2.39568e-05
2.39983e-05
2.40322e-05
2.4047e-05
2.4043e-05
2.4013e-05
2.39325e-05
2.37775e-05
2.35193e-05
2.31305e-05
2.25838e-05
2.18573e-05
2.09621e-05
1.99506e-05
1.8904e-05
1.79328e-05
1.7151e-05
1.65551e-05
1.60588e-05
1.56389e-05
1.52977e-05
1.50336e-05
1.48321e-05
1.46724e-05
1.45444e-05
1.44447e-05
1.43693e-05
1.43129e-05
1.42699e-05
1.4236e-05
1.42089e-05
1.41872e-05
1.41701e-05
1.41567e-05
1.41462e-05
1.41381e-05
1.41319e-05
1.41272e-05
1.41238e-05
1.41216e-05
1.41204e-05
1.41201e-05
1.41203e-05
1.41212e-05
1.41225e-05
1.41243e-05
1.41264e-05
1.41288e-05
1.41314e-05
1.41342e-05
1.41372e-05
1.41403e-05
1.41435e-05
1.41469e-05
1.41503e-05
1.41539e-05
1.41575e-05
1.41613e-05
1.41652e-05
1.41692e-05
1.41734e-05
1.41778e-05
1.41824e-05
1.41871e-05
1.41921e-05
1.41973e-05
1.42028e-05
1.42086e-05
1.42147e-05
1.42211e-05
1.42279e-05
1.4235e-05
1.42424e-05
1.42502e-05
1.42584e-05
1.42669e-05
1.42758e-05
1.42851e-05
1.4295e-05
1.43053e-05
1.43162e-05
1.43277e-05
1.43399e-05
1.43528e-05
1.43665e-05
1.43811e-05
1.43966e-05
1.4413e-05
1.44305e-05
1.44491e-05
1.44688e-05
1.44897e-05
1.45116e-05
1.45346e-05
1.45585e-05
1.45832e-05
1.46086e-05
1.46349e-05
1.4662e-05
1.46901e-05