/*--------------------------------*- C++ -*----------------------------------*\
| =========                 |                                                 |
| \\      /  F ield         | OpenFOAM: The Open Source CFD Toolbox           |
|  \\    /   O peration     | Version:  v1706                                 |
|   \\  /    A nd           | Web:      www.OpenFOAM.com                      |
|    \\/     M anipulation  |                                                 |
\*---------------------------------------------------------------------------*/
FoamFile
{
    version     2.0;
    format      ascii;
    class       volScalarField;
    location    "3.3e-05";
    object      kappatr;
}
// * * * * * * * * * * * * * * * * * * * * * * * * * * * * * * * * * * * * * //

dimensions      [1 1 -3 -1 0 0 0];


internalField   nonuniform List<scalar> 
30104
(
0.0146439
0.0146511
0.0146593
0.0146685
0.014679
0.0146909
0.0147044
0.0147196
0.0147368
0.0147558
0.0147769
0.0148001
0.0148254
0.0148535
0.0148848
0.0149199
0.0149595
0.0151308
0.0150678
0.0150134
0.0149639
0.0149173
0.0148731
0.0148315
0.0147933
0.0147596
0.0147315
0.0147087
0.01469
0.0146741
0.0146603
0.0146484
0.0146384
0.0146302
0.0146235
0.014618
0.0146134
0.0146095
0.0146062
0.0146034
0.0146012
0.0145995
0.0145981
0.0145971
0.0145962
0.0145955
0.014595
0.0145946
0.0145942
0.0145939
0.0145937
0.0145936
0.0145934
0.0145933
0.0145932
0.0145932
0.0145931
0.0145931
0.0145931
0.0145931
0.014593
0.014593
0.014593
0.014593
0.014593
0.014593
0.014593
0.014593
0.014593
0.014593
0.014593
0.014593
0.014593
0.014593
0.014593
0.014593
0.014593
0.014593
0.014593
0.014593
0.014593
0.014593
0.014593
0.014593
0.014593
0.014593
0.014593
0.014593
0.014593
0.014593
0.014593
0.014593
0.014593
0.014593
0.014593
0.014593
0.014593
0.014593
0.014593
0.014593
0.014593
0.014593
0.014593
0.014593
0.014593
0.014593
0.014593
0.014593
0.014593
0.014593
0.014593
0.014593
0.014593
0.014593
0.014593
0.014593
0.014593
0.014593
0.014593
0.014593
0.014593
0.014593
0.014593
0.014593
0.014593
0.014593
0.014593
0.014593
0.014593
0.014593
0.014593
0.014593
0.014593
0.014593
0.014593
0.014593
0.014593
0.014593
0.014593
0.014593
0.014593
0.014593
0.014593
0.014593
0.014593
0.014593
0.014593
0.014593
0.014593
0.014593
0.014593
0.014593
0.014593
0.014593
0.014593
0.014593
0.014593
0.014593
0.014593
0.014593
0.014593
0.014593
0.014593
0.014593
0.014593
0.014593
0.014593
0.014593
0.014593
0.014593
0.014593
0.014593
0.014593
0.014593
0.014593
0.014593
0.014593
0.014593
0.014593
0.014593
0.014593
0.014593
0.014593
0.014593
0.014593
0.014593
0.014593
0.014593
0.014593
0.014593
0.014593
0.014593
0.014593
0.014593
0.014593
0.014593
0.014593
0.014593
0.014593
0.014593
0.014593
0.014593
0.014593
0.014593
0.014593
0.014593
0.014593
0.014593
0.014593
0.014593
0.0149041
0.014948
0.014997
0.0150518
0.0151132
0.0151822
0.0152599
0.0153472
0.0154447
0.0155526
0.0156709
0.0157996
0.0159392
0.0160918
0.0162599
0.0164447
0.0166458
0.0177749
0.0174354
0.0171512
0.0168947
0.0166498
0.0164109
0.016179
0.0159597
0.0157608
0.015588
0.0154422
0.0153174
0.0152075
0.0151091
0.0150213
0.0149449
0.0148806
0.0148282
0.0147856
0.0147503
0.0147207
0.014696
0.0146757
0.0146593
0.0146461
0.0146355
0.0146268
0.0146197
0.0146139
0.0146094
0.0146058
0.0146029
0.0146007
0.014599
0.0145976
0.0145965
0.0145957
0.0145951
0.0145946
0.0145942
0.0145939
0.0145936
0.0145935
0.0145934
0.0145933
0.0145932
0.0145931
0.0145931
0.0145931
0.0145931
0.014593
0.014593
0.014593
0.014593
0.014593
0.014593
0.014593
0.014593
0.014593
0.014593
0.014593
0.014593
0.014593
0.014593
0.014593
0.014593
0.014593
0.014593
0.014593
0.014593
0.014593
0.014593
0.014593
0.014593
0.014593
0.014593
0.014593
0.014593
0.014593
0.014593
0.014593
0.014593
0.014593
0.014593
0.014593
0.014593
0.014593
0.014593
0.014593
0.014593
0.014593
0.014593
0.014593
0.014593
0.014593
0.014593
0.014593
0.014593
0.014593
0.014593
0.014593
0.014593
0.014593
0.014593
0.014593
0.014593
0.014593
0.014593
0.014593
0.014593
0.014593
0.014593
0.014593
0.014593
0.014593
0.014593
0.014593
0.014593
0.014593
0.014593
0.014593
0.014593
0.014593
0.014593
0.014593
0.014593
0.014593
0.014593
0.014593
0.014593
0.014593
0.014593
0.014593
0.014593
0.014593
0.014593
0.014593
0.014593
0.014593
0.014593
0.014593
0.014593
0.014593
0.014593
0.014593
0.014593
0.014593
0.014593
0.014593
0.014593
0.014593
0.014593
0.014593
0.014593
0.014593
0.014593
0.014593
0.014593
0.014593
0.014593
0.014593
0.014593
0.014593
0.014593
0.014593
0.014593
0.014593
0.014593
0.014593
0.014593
0.014593
0.014593
0.014593
0.014593
0.014593
0.014593
0.014593
0.014593
0.014593
0.014593
0.014593
0.014593
0.014593
0.014593
0.014593
0.014593
0.014593
0.014593
0.014593
0.014593
0.014593
0.014593
0.014593
0.0156738
0.0158173
0.0159754
0.0161489
0.0163403
0.0165523
0.0167861
0.0170414
0.0173164
0.0176086
0.0179153
0.0182339
0.0185637
0.0189095
0.0192897
0.0197018
0.0219398
0.0216563
0.0213192
0.0209347
0.0205082
0.0200438
0.0195464
0.0190243
0.018494
0.01799
0.0175634
0.0171989
0.0168679
0.016557
0.0162654
0.0159999
0.0157683
0.0155742
0.0154122
0.0152738
0.0151535
0.0150492
0.0149609
0.0148887
0.014831
0.0147846
0.0147466
0.0147153
0.0146898
0.0146694
0.0146533
0.0146405
0.0146303
0.014622
0.0146153
0.0146102
0.0146062
0.0146031
0.0146007
0.0145988
0.0145974
0.0145963
0.0145954
0.0145948
0.0145943
0.014594
0.0145937
0.0145935
0.0145934
0.0145933
0.0145932
0.0145931
0.0145931
0.0145931
0.014593
0.014593
0.014593
0.014593
0.014593
0.014593
0.014593
0.014593
0.014593
0.014593
0.014593
0.014593
0.014593
0.014593
0.014593
0.014593
0.014593
0.014593
0.014593
0.014593
0.014593
0.014593
0.014593
0.014593
0.014593
0.014593
0.014593
0.014593
0.014593
0.014593
0.014593
0.014593
0.014593
0.014593
0.014593
0.014593
0.014593
0.014593
0.014593
0.014593
0.014593
0.014593
0.014593
0.014593
0.014593
0.014593
0.014593
0.014593
0.014593
0.014593
0.014593
0.014593
0.014593
0.014593
0.014593
0.014593
0.014593
0.014593
0.014593
0.014593
0.014593
0.014593
0.014593
0.014593
0.014593
0.014593
0.014593
0.014593
0.014593
0.014593
0.014593
0.014593
0.014593
0.014593
0.014593
0.014593
0.014593
0.014593
0.014593
0.014593
0.014593
0.014593
0.014593
0.014593
0.014593
0.014593
0.014593
0.014593
0.014593
0.014593
0.014593
0.014593
0.014593
0.014593
0.014593
0.014593
0.014593
0.014593
0.014593
0.014593
0.014593
0.014593
0.014593
0.014593
0.014593
0.014593
0.014593
0.014593
0.014593
0.014593
0.014593
0.014593
0.014593
0.014593
0.014593
0.014593
0.014593
0.014593
0.014593
0.014593
0.014593
0.014593
0.014593
0.014593
0.014593
0.0145931
0.0145931
0.0145931
0.0145931
0.0145931
0.0145931
0.0145931
0.0145931
0.0145931
0.0145931
0.0145931
0.0145931
0.0145931
0.0145931
0.0176912
0.0180317
0.0183887
0.0187611
0.0191544
0.0195838
0.0200462
0.0205331
0.0210326
0.0215321
0.0220198
0.0224859
0.0229228
0.0233241
0.0236828
0.0239991
0.0232436
0.0231759
0.0231015
0.0230185
0.0229224
0.0228069
0.0226631
0.022479
0.0222417
0.0219389
0.0215609
0.0211143
0.0206104
0.0200594
0.0194718
0.0188643
0.0182703
0.0177508
0.0173173
0.0169349
0.0165835
0.0162609
0.0159738
0.0157296
0.0155289
0.0153625
0.015221
0.0150997
0.0149972
0.0149135
0.0148472
0.0147948
0.0147526
0.0147184
0.0146908
0.0146691
0.0146521
0.0146388
0.0146282
0.0146198
0.0146132
0.0146082
0.0146044
0.0146015
0.0145993
0.0145976
0.0145964
0.0145955
0.0145948
0.0145943
0.0145939
0.0145936
0.0145935
0.0145933
0.0145932
0.0145932
0.0145931
0.0145931
0.0145931
0.0145931
0.014593
0.014593
0.014593
0.014593
0.014593
0.014593
0.014593
0.014593
0.014593
0.014593
0.014593
0.014593
0.014593
0.014593
0.014593
0.014593
0.014593
0.014593
0.014593
0.014593
0.014593
0.014593
0.014593
0.014593
0.014593
0.014593
0.014593
0.014593
0.014593
0.014593
0.014593
0.014593
0.014593
0.014593
0.014593
0.014593
0.014593
0.014593
0.014593
0.014593
0.014593
0.014593
0.014593
0.014593
0.014593
0.014593
0.014593
0.014593
0.014593
0.014593
0.014593
0.014593
0.014593
0.014593
0.014593
0.014593
0.014593
0.014593
0.014593
0.014593
0.014593
0.014593
0.014593
0.014593
0.014593
0.014593
0.014593
0.014593
0.014593
0.014593
0.014593
0.014593
0.014593
0.014593
0.014593
0.014593
0.014593
0.014593
0.014593
0.014593
0.014593
0.0145931
0.0145931
0.0145931
0.0145931
0.0145931
0.0145931
0.0145931
0.0145931
0.0145931
0.0145931
0.0145931
0.0145931
0.0145931
0.0145931
0.0145931
0.0145931
0.0145931
0.0145931
0.0145931
0.0145931
0.0145931
0.0145931
0.0145931
0.0145931
0.0145931
0.0145931
0.0145931
0.0145931
0.0145931
0.0145931
0.0145931
0.0145931
0.0145932
0.0145932
0.0145932
0.0145932
0.0145932
0.0145932
0.0145932
0.0145932
0.0145932
0.0145932
0.0145932
0.0145932
0.0145932
0.0145932
0.0145932
0.0145933
0.0145933
0.0145933
0.0145933
0.0145933
0.0214971
0.0220257
0.0225356
0.0230168
0.0234601
0.0238573
0.0242076
0.0245125
0.024775
0.0249989
0.0251885
0.0253481
0.0254814
0.0255917
0.0256818
0.0235941
0.0235716
0.0235499
0.0235275
0.0235025
0.0234728
0.0234369
0.0233929
0.0233401
0.0232803
0.0232106
0.0231265
0.0230193
0.0228776
0.0226883
0.0224404
0.0221225
0.0217226
0.0212421
0.0206932
0.020088
0.0194408
0.0187777
0.0181475
0.017618
0.0171734
0.016777
0.0164151
0.0160911
0.0158133
0.0155853
0.0153995
0.0152442
0.0151123
0.0150018
0.0149125
0.0148426
0.014788
0.0147446
0.0147099
0.0146825
0.0146612
0.0146449
0.0146322
0.0146223
0.0146146
0.0146088
0.0146046
0.0146015
0.0145991
0.0145974
0.0145962
0.0145953
0.0145946
0.0145941
0.0145938
0.0145936
0.0145934
0.0145933
0.0145932
0.0145932
0.0145931
0.0145931
0.0145931
0.0145931
0.0145931
0.014593
0.014593
0.014593
0.014593
0.014593
0.014593
0.014593
0.014593
0.014593
0.014593
0.014593
0.014593
0.014593
0.014593
0.014593
0.014593
0.014593
0.014593
0.014593
0.014593
0.014593
0.014593
0.014593
0.014593
0.014593
0.014593
0.014593
0.014593
0.014593
0.014593
0.014593
0.014593
0.014593
0.014593
0.014593
0.014593
0.0145931
0.0145931
0.0145931
0.0145931
0.0145931
0.0145931
0.0145931
0.0145931
0.0145931
0.0145931
0.0145931
0.0145931
0.0145931
0.0145931
0.0145931
0.0145931
0.0145931
0.0145931
0.0145931
0.0145931
0.0145931
0.0145931
0.0145931
0.0145931
0.0145931
0.0145931
0.0145931
0.0145931
0.0145931
0.0145931
0.0145931
0.0145931
0.0145931
0.0145931
0.0145931
0.0145931
0.0145932
0.0145932
0.0145932
0.0145932
0.0145932
0.0145932
0.0145932
0.0145932
0.0145932
0.0145932
0.0145932
0.0145932
0.0145932
0.0145932
0.0145932
0.0145933
0.0145933
0.0145933
0.0145933
0.0145933
0.0145933
0.0145933
0.0145933
0.0145933
0.0145934
0.0145934
0.0145934
0.0145934
0.0145934
0.0145934
0.0145935
0.0145935
0.0145935
0.0145935
0.0145935
0.0145936
0.0145936
0.0145936
0.0145936
0.0145936
0.0145937
0.0145937
0.0145937
0.0145938
0.0145938
0.0145938
0.0145938
0.0145939
0.0145939
0.014594
0.014594
0.014594
0.0145941
0.0145941
0.0145941
0.0247814
0.0250502
0.0252777
0.0254688
0.0256281
0.0257597
0.0258673
0.0259541
0.026023
0.0260763
0.0261165
0.0261466
0.0261696
0.0261883
0.0262038
0.0262164
0.023783
0.023764
0.0237452
0.0237254
0.0237045
0.0236831
0.0236619
0.0236461
0.0236363
0.0236223
0.0236036
0.0235842
0.0235613
0.0235313
0.0234931
0.0234488
0.0233983
0.0233371
0.0232573
0.0231455
0.0229861
0.0227668
0.0224782
0.0221095
0.0216502
0.0211059
0.0204882
0.0198115
0.0191016
0.0184051
0.0177971
0.017299
0.0168652
0.0164731
0.0161234
0.0158247
0.0155812
0.0153846
0.0152217
0.0150851
0.0149727
0.0148841
0.014816
0.0147633
0.0147221
0.0146899
0.0146653
0.0146467
0.0146326
0.0146219
0.0146139
0.014608
0.0146038
0.0146007
0.0145985
0.014597
0.0145959
0.0145951
0.0145945
0.0145941
0.0145938
0.0145936
0.0145935
0.0145934
0.0145933
0.0145932
0.0145932
0.0145932
0.0145931
0.0145931
0.0145931
0.0145931
0.0145931
0.0145931
0.0145931
0.0145931
0.0145931
0.0145931
0.0145931
0.0145931
0.0145931
0.0145931
0.0145931
0.0145931
0.0145931
0.0145931
0.0145931
0.0145931
0.0145931
0.0145931
0.0145931
0.0145931
0.0145931
0.0145931
0.0145931
0.0145931
0.0145931
0.0145931
0.0145931
0.0145931
0.0145931
0.0145931
0.0145932
0.0145932
0.0145932
0.0145932
0.0145932
0.0145932
0.0145932
0.0145932
0.0145932
0.0145932
0.0145932
0.0145932
0.0145932
0.0145932
0.0145932
0.0145932
0.0145932
0.0145932
0.0145933
0.0145933
0.0145933
0.0145933
0.0145933
0.0145933
0.0145933
0.0145933
0.0145933
0.0145934
0.0145934
0.0145934
0.0145934
0.0145934
0.0145934
0.0145934
0.0145935
0.0145935
0.0145935
0.0145935
0.0145935
0.0145936
0.0145936
0.0145936
0.0145936
0.0145937
0.0145937
0.0145937
0.0145937
0.0145938
0.0145938
0.0145938
0.0145939
0.0145939
0.0145939
0.014594
0.014594
0.014594
0.0145941
0.0145941
0.0145942
0.0145942
0.0145943
0.0145943
0.0145944
0.0145944
0.0145945
0.0145946
0.0145946
0.0145947
0.0145948
0.0145949
0.0145949
0.014595
0.0145951
0.0145952
0.0145953
0.0145954
0.0145955
0.0145956
0.0145957
0.0145958
0.0145959
0.014596
0.0145962
0.0145963
0.0145964
0.0145966
0.0145967
0.0145969
0.0145971
0.0145972
0.0145971
0.0262262
0.0262831
0.0263259
0.0263582
0.0263837
0.0264043
0.0264211
0.0264347
0.0264449
0.0264514
0.0264521
0.0264497
0.0264447
0.023927
0.0239076
0.0238882
0.023869
0.0238495
0.0238294
0.0238109
0.0237977
0.0237878
0.0237758
0.0237629
0.0237502
0.0237386
0.0237284
0.0237214
0.0237177
0.0237091
0.0236995
0.023689
0.0236739
0.0236524
0.0236254
0.0235914
0.0235463
0.0234818
0.0233841
0.0232375
0.0230291
0.0227495
0.0223881
0.02193
0.0213709
0.0207223
0.0200016
0.019239
0.0184869
0.0178271
0.0172915
0.0168286
0.0164142
0.0160501
0.0157453
0.0155012
0.0153049
0.0151433
0.015011
0.0149068
0.0148278
0.0147685
0.0147232
0.0146887
0.014663
0.0146439
0.0146299
0.0146195
0.0146119
0.0146066
0.0146028
0.0146001
0.0145982
0.0145968
0.0145958
0.0145951
0.0145946
0.0145942
0.014594
0.0145938
0.0145936
0.0145935
0.0145934
0.0145934
0.0145934
0.0145933
0.0145933
0.0145933
0.0145933
0.0145933
0.0145933
0.0145933
0.0145933
0.0145933
0.0145933
0.0145933
0.0145933
0.0145933
0.0145933
0.0145933
0.0145933
0.0145933
0.0145933
0.0145933
0.0145934
0.0145934
0.0145934
0.0145934
0.0145934
0.0145934
0.0145934
0.0145934
0.0145934
0.0145934
0.0145935
0.0145935
0.0145935
0.0145935
0.0145935
0.0145935
0.0145935
0.0145936
0.0145936
0.0145936
0.0145936
0.0145936
0.0145936
0.0145937
0.0145937
0.0145937
0.0145937
0.0145938
0.0145938
0.0145938
0.0145938
0.0145939
0.0145939
0.0145939
0.014594
0.014594
0.0145941
0.0145941
0.0145941
0.0145942
0.0145942
0.0145943
0.0145943
0.0145944
0.0145944
0.0145945
0.0145946
0.0145946
0.0145947
0.0145948
0.0145948
0.0145949
0.014595
0.0145951
0.0145952
0.0145953
0.0145954
0.0145955
0.0145956
0.0145957
0.0145958
0.0145959
0.014596
0.0145962
0.0145963
0.0145964
0.0145966
0.0145967
0.0145969
0.0145971
0.0145973
0.0145974
0.0145976
0.0145978
0.0145981
0.0145983
0.0145985
0.0145988
0.014599
0.0145993
0.0145996
0.0145999
0.0146002
0.0146005
0.0146008
0.0146012
0.0146015
0.0146019
0.0146023
0.0146027
0.0146031
0.0146036
0.014604
0.0146046
0.0146051
0.0146056
0.0146062
0.0146068
0.0146074
0.0146081
0.0146088
0.0146082
0.0266432
0.0266506
0.026652
0.0266501
0.0266458
0.0266399
0.0266335
0.0266277
0.0266214
0.0266165
0.0266127
0.0266086
0.0266028
0.0240593
0.0240375
0.0240159
0.023995
0.0239744
0.023954
0.0239352
0.0239197
0.0239069
0.0238959
0.0238858
0.0238761
0.0238666
0.0238582
0.0238525
0.0238473
0.0238416
0.023838
0.023838
0.0238397
0.0238445
0.0238519
0.0238537
0.0238548
0.0238546
0.0238518
0.0238451
0.0238327
0.0238115
0.0237756
0.0237149
0.023616
0.0234648
0.0232488
0.0229567
0.0225737
0.0220801
0.0214688
0.020754
0.01996
0.0191281
0.0183281
0.0176557
0.0171061
0.0166273
0.0162056
0.0158488
0.0155631
0.0153386
0.0151583
0.0150138
0.0149023
0.01482
0.0147596
0.0147147
0.0146814
0.0146572
0.0146397
0.0146269
0.0146176
0.0146109
0.0146063
0.0146029
0.0146005
0.0145987
0.0145974
0.0145964
0.0145957
0.0145952
0.0145948
0.0145945
0.0145943
0.0145942
0.0145941
0.014594
0.0145939
0.0145939
0.0145939
0.0145938
0.0145938
0.0145938
0.0145938
0.0145938
0.0145939
0.0145939
0.0145939
0.0145939
0.0145939
0.014594
0.014594
0.014594
0.0145941
0.0145941
0.0145941
0.0145942
0.0145942
0.0145942
0.0145943
0.0145943
0.0145943
0.0145944
0.0145944
0.0145944
0.0145945
0.0145945
0.0145946
0.0145946
0.0145947
0.0145947
0.0145948
0.0145948
0.0145949
0.014595
0.014595
0.0145951
0.0145952
0.0145952
0.0145953
0.0145954
0.0145955
0.0145956
0.0145957
0.0145958
0.0145959
0.014596
0.0145961
0.0145962
0.0145963
0.0145965
0.0145966
0.0145968
0.014597
0.0145971
0.0145973
0.0145975
0.0145977
0.0145979
0.0145981
0.0145983
0.0145985
0.0145988
0.014599
0.0145993
0.0145996
0.0145999
0.0146002
0.0146005
0.0146008
0.0146011
0.0146015
0.0146019
0.0146023
0.0146027
0.0146031
0.0146036
0.0146041
0.0146046
0.0146051
0.0146056
0.0146062
0.0146068
0.0146074
0.0146081
0.0146088
0.0146095
0.0146103
0.0146111
0.014612
0.0146129
0.0146138
0.0146148
0.0146158
0.0146169
0.014618
0.0146192
0.0146205
0.0146218
0.0146231
0.0146246
0.0146261
0.0146276
0.0146292
0.0146309
0.0146326
0.0146344
0.0146363
0.0146383
0.0146405
0.0146428
0.0146452
0.0146477
0.0146506
0.0146486
0.0268265
0.0268208
0.0268162
0.0268125
0.0268083
0.026802
0.0267935
0.0267831
0.0267716
0.0267594
0.0267482
0.026739
0.0267311
0.0267237
0.0241972
0.0241723
0.024148
0.0241243
0.0241011
0.0240787
0.0240581
0.0240398
0.0240241
0.024011
0.0239996
0.0239889
0.0239784
0.0239688
0.0239608
0.0239543
0.0239495
0.0239475
0.0239479
0.0239498
0.0239544
0.0239595
0.0239649
0.0239721
0.0239824
0.023996
0.0240142
0.0240308
0.0240442
0.024056
0.0240669
0.0240756
0.0240773
0.0240732
0.0240567
0.0240181
0.0239473
0.0238321
0.0236579
0.02341
0.0230715
0.0226209
0.0220355
0.021316
0.0204845
0.0195809
0.0186764
0.0178807
0.0172476
0.0167121
0.0162478
0.0158594
0.015553
0.015317
0.0151317
0.0149877
0.0148806
0.0148036
0.014748
0.0147071
0.0146772
0.0146554
0.0146396
0.0146279
0.0146192
0.0146129
0.0146084
0.014605
0.0146026
0.0146007
0.0145994
0.0145983
0.0145976
0.014597
0.0145965
0.0145962
0.014596
0.0145958
0.0145957
0.0145956
0.0145956
0.0145956
0.0145956
0.0145956
0.0145956
0.0145957
0.0145958
0.0145958
0.0145959
0.014596
0.0145961
0.0145962
0.0145963
0.0145964
0.0145965
0.0145966
0.0145967
0.0145968
0.0145969
0.014597
0.0145972
0.0145973
0.0145974
0.0145976
0.0145977
0.0145978
0.014598
0.0145981
0.0145983
0.0145985
0.0145987
0.0145988
0.014599
0.0145992
0.0145995
0.0145997
0.0145999
0.0146002
0.0146004
0.0146007
0.014601
0.0146013
0.0146016
0.014602
0.0146023
0.0146027
0.0146031
0.0146035
0.014604
0.0146045
0.014605
0.0146055
0.014606
0.0146066
0.0146072
0.0146079
0.0146085
0.0146092
0.01461
0.0146107
0.0146115
0.0146124
0.0146132
0.0146141
0.0146151
0.0146161
0.0146171
0.0146183
0.0146194
0.0146207
0.014622
0.0146233
0.0146248
0.0146263
0.0146279
0.0146296
0.0146313
0.0146331
0.0146351
0.014637
0.0146391
0.0146413
0.0146436
0.014646
0.0146485
0.0146511
0.0146539
0.0146568
0.0146599
0.0146632
0.0146666
0.0146703
0.0146742
0.0146782
0.0146825
0.014687
0.0146917
0.0146965
0.0147016
0.0147068
0.0147123
0.014718
0.014724
0.0147303
0.0147369
0.0147439
0.0147513
0.0147591
0.0147672
0.0147759
0.014785
0.0147959
0.0147905
0.0269709
0.0269586
0.0269472
0.0269375
0.0269291
0.0269206
0.0269113
0.0269008
0.0268892
0.0268768
0.0268643
0.0268525
0.0268423
0.0268337
0.0243402
0.0243127
0.0242861
0.0242602
0.0242351
0.0242111
0.0241887
0.0241682
0.0241498
0.0241334
0.0241185
0.0241047
0.0240916
0.0240795
0.0240688
0.0240599
0.024053
0.0240481
0.0240455
0.0240456
0.0240471
0.0240504
0.0240555
0.0240628
0.0240728
0.0240859
0.0241014
0.0241178
0.0241356
0.0241561
0.0241799
0.0242073
0.0242347
0.0242591
0.0242824
0.0243054
0.0243281
0.0243455
0.024351
0.0243473
0.0243277
0.0242784
0.0241866
0.024036
0.0238074
0.0234804
0.02303
0.0224286
0.0216657
0.0207651
0.019775
0.0187813
0.0179128
0.0172333
0.0166683
0.0161888
0.0157992
0.0155015
0.0152761
0.0151018
0.0149692
0.0148722
0.0148027
0.0147517
0.0147134
0.0146848
0.0146636
0.0146478
0.0146359
0.0146269
0.0146202
0.0146152
0.0146116
0.0146088
0.0146067
0.0146051
0.0146039
0.014603
0.0146023
0.0146018
0.0146014
0.0146012
0.0146011
0.014601
0.014601
0.0146011
0.0146012
0.0146014
0.0146016
0.0146019
0.0146021
0.0146024
0.0146027
0.014603
0.0146033
0.0146037
0.014604
0.0146044
0.0146047
0.0146051
0.0146055
0.0146059
0.0146063
0.0146067
0.0146072
0.0146076
0.0146081
0.0146086
0.0146091
0.0146096
0.0146102
0.0146108
0.0146114
0.0146121
0.0146127
0.0146134
0.0146142
0.014615
0.0146158
0.0146166
0.0146175
0.0146185
0.0146195
0.0146206
0.0146217
0.0146229
0.0146242
0.0146255
0.0146269
0.0146284
0.01463
0.0146317
0.0146335
0.0146354
0.0146374
0.0146395
0.0146417
0.014644
0.0146464
0.0146489
0.0146515
0.0146542
0.0146571
0.01466
0.0146631
0.0146664
0.0146698
0.0146734
0.0146772
0.0146812
0.0146854
0.0146899
0.0146946
0.0146996
0.0147049
0.0147104
0.0147162
0.0147223
0.0147287
0.0147354
0.0147424
0.0147496
0.0147571
0.0147651
0.0147734
0.0147821
0.0147914
0.0148012
0.0148116
0.0148227
0.0148344
0.0148467
0.0148598
0.0148736
0.0148881
0.0149035
0.0149197
0.0149369
0.0149549
0.0149738
0.0149934
0.0150136
0.0150344
0.0150556
0.0150774
0.0150999
0.0151234
0.015148
0.015174
0.0152017
0.0152309
0.0152682
0.0152573
0.0270862
0.0270731
0.0270599
0.0270475
0.0270368
0.0270277
0.0270195
0.0270115
0.0270031
0.0269942
0.0269848
0.0269752
0.026966
0.0269578
0.0244875
0.0244582
0.0244297
0.0244022
0.0243757
0.0243503
0.0243264
0.0243039
0.0242829
0.0242635
0.0242454
0.0242284
0.0242125
0.0241976
0.0241839
0.0241717
0.024161
0.0241522
0.0241456
0.0241412
0.0241393
0.0241396
0.0241414
0.0241455
0.0241521
0.0241614
0.0241733
0.024188
0.0242054
0.0242256
0.0242487
0.0242741
0.0243014
0.0243303
0.0243616
0.024396
0.0244337
0.0244715
0.0245045
0.024537
0.0245698
0.0246015
0.0246304
0.0246493
0.0246522
0.0246426
0.0246058
0.0245246
0.0243801
0.0241482
0.0238028
0.0233136
0.0226489
0.0217993
0.0208002
0.0197213
0.0186767
0.0178103
0.0171447
0.0165953
0.0161372
0.0157732
0.0154985
0.0152897
0.015126
0.0149991
0.0149041
0.0148346
0.0147828
0.0147432
0.0147128
0.0146898
0.0146724
0.0146592
0.014649
0.014641
0.0146347
0.0146299
0.0146263
0.0146235
0.0146214
0.0146199
0.0146188
0.0146182
0.0146178
0.0146177
0.0146178
0.014618
0.0146185
0.0146191
0.0146197
0.0146205
0.0146213
0.0146222
0.0146232
0.0146242
0.0146253
0.0146263
0.0146274
0.0146286
0.0146298
0.014631
0.0146323
0.0146336
0.0146349
0.0146363
0.0146378
0.0146393
0.0146409
0.0146425
0.0146443
0.0146461
0.0146481
0.0146501
0.0146522
0.0146545
0.0146568
0.0146593
0.0146619
0.0146646
0.0146674
0.0146704
0.0146735
0.0146768
0.0146802
0.0146839
0.0146877
0.0146918
0.0146961
0.0147007
0.0147056
0.0147108
0.0147163
0.0147221
0.0147283
0.0147348
0.0147417
0.0147489
0.0147564
0.0147643
0.0147725
0.014781
0.0147899
0.0147992
0.0148088
0.0148189
0.0148295
0.0148407
0.0148525
0.0148649
0.0148781
0.0148921
0.014907
0.0149228
0.0149395
0.0149572
0.0149758
0.0149955
0.0150161
0.0150376
0.01506
0.0150833
0.0151073
0.0151323
0.0151582
0.0151851
0.0152132
0.0152424
0.0152731
0.0153052
0.0153391
0.0153751
0.0154132
0.0154539
0.0154972
0.0155431
0.0155917
0.0156428
0.0156961
0.0157516
0.0158089
0.0158678
0.015928
0.0159894
0.0160522
0.0161167
0.0161831
0.0162519
0.0163224
0.0163966
0.0164706
0.0165676
0.0165628
0.027197
0.0271873
0.0271772
0.027167
0.0271572
0.0271484
0.0271408
0.0271341
0.0271278
0.0271216
0.0271151
0.0271083
0.0271014
0.0246381
0.0246074
0.0245778
0.0245491
0.0245214
0.0244947
0.0244692
0.0244447
0.0244214
0.0243993
0.0243783
0.0243584
0.0243395
0.0243217
0.0243049
0.0242893
0.024275
0.0242623
0.0242516
0.0242427
0.024236
0.0242312
0.0242287
0.0242288
0.0242306
0.0242352
0.0242427
0.0242532
0.0242667
0.0242831
0.024302
0.0243237
0.0243484
0.0243759
0.0244062
0.024439
0.0244732
0.0245088
0.0245458
0.0245847
0.0246264
0.0246708
0.0247174
0.0247627
0.0248026
0.0248434
0.0248866
0.0249297
0.024965
0.0249803
0.0249762
0.024945
0.0248613
0.0247003
0.0244321
0.0240283
0.0234603
0.0227057
0.0217756
0.020725
0.0196377
0.0186288
0.0178167
0.0171976
0.0166821
0.0162459
0.0158914
0.0156171
0.0154077
0.0152418
0.0151089
0.0150053
0.014927
0.0148684
0.0148238
0.0147886
0.0147603
0.0147378
0.0147201
0.0147061
0.0146953
0.0146869
0.0146804
0.0146755
0.014672
0.0146696
0.0146684
0.0146681
0.0146684
0.0146692
0.0146706
0.0146725
0.0146747
0.0146772
0.0146799
0.0146828
0.0146859
0.0146891
0.0146925
0.014696
0.0146995
0.0147032
0.014707
0.0147109
0.014715
0.0147192
0.0147235
0.0147281
0.0147328
0.0147377
0.0147429
0.0147484
0.0147541
0.0147601
0.0147664
0.0147731
0.0147801
0.0147875
0.0147952
0.0148033
0.0148118
0.0148206
0.0148299
0.0148396
0.0148498
0.0148605
0.0148718
0.0148838
0.0148965
0.0149099
0.0149241
0.0149392
0.0149553
0.0149724
0.0149906
0.0150099
0.0150304
0.015052
0.0150748
0.0150987
0.0151235
0.0151492
0.0151756
0.0152029
0.015231
0.0152602
0.0152905
0.015322
0.0153549
0.0153893
0.0154255
0.0154636
0.0155037
0.0155462
0.0155911
0.0156387
0.0156891
0.0157423
0.0157983
0.015857
0.0159181
0.0159813
0.0160458
0.0161114
0.0161783
0.0162468
0.016317
0.0163896
0.0164647
0.0165429
0.0166244
0.0167092
0.0167974
0.0168887
0.016983
0.0170809
0.0171832
0.0172913
0.0174063
0.0175291
0.0176598
0.0177968
0.0179343
0.0180693
0.0181982
0.0183207
0.018434
0.0185418
0.018641
0.0187378
0.0188286
0.0189347
0.0189648
0.0273181
0.0273108
0.0273034
0.0272958
0.0272882
0.0272809
0.0272742
0.0272684
0.0272633
0.0272587
0.0272544
0.0272502
0.0272459
0.024728
0.0246983
0.0246695
0.0246414
0.0246142
0.0245878
0.0245622
0.0245376
0.024514
0.0244913
0.0244696
0.0244488
0.0244288
0.0244097
0.0243918
0.0243753
0.0243603
0.024347
0.0243354
0.0243256
0.0243179
0.0243125
0.0243094
0.0243093
0.0243111
0.0243158
0.0243235
0.0243342
0.0243476
0.0243639
0.0243831
0.0244052
0.0244298
0.0244567
0.0244864
0.0245183
0.0245522
0.0245884
0.0246276
0.0246695
0.0247131
0.0247575
0.0248036
0.0248539
0.0249089
0.0249665
0.0250229
0.0250766
0.0251302
0.025188
0.0252445
0.0252875
0.025303
0.0252948
0.0252478
0.0251337
0.0249308
0.0246182
0.0241725
0.0235747
0.0228182
0.0219235
0.0209403
0.0199311
0.0189758
0.0181632
0.0175428
0.0170397
0.0166067
0.0162407
0.0159438
0.0157113
0.0155313
0.0153871
0.0152671
0.0151674
0.0150861
0.015021
0.0149696
0.0149293
0.0148978
0.0148729
0.0148533
0.0148385
0.0148279
0.0148212
0.0148175
0.0148167
0.0148176
0.0148203
0.0148247
0.0148304
0.0148371
0.0148447
0.014853
0.0148619
0.0148713
0.0148811
0.0148913
0.0149019
0.0149128
0.014924
0.0149356
0.0149476
0.0149599
0.0149728
0.0149861
0.0150001
0.0150147
0.0150301
0.0150462
0.0150632
0.0150812
0.0151002
0.0151203
0.0151414
0.0151637
0.0151869
0.0152111
0.0152362
0.0152623
0.0152893
0.0153175
0.0153468
0.0153773
0.0154093
0.0154427
0.0154777
0.0155145
0.0155533
0.0155942
0.0156375
0.0156832
0.0157316
0.0157829
0.015837
0.0158939
0.0159537
0.0160161
0.0160807
0.0161468
0.0162142
0.0162829
0.016353
0.0164244
0.0164975
0.0165722
0.016649
0.0167282
0.0168101
0.0168952
0.0169839
0.0170765
0.0171733
0.0172743
0.0173797
0.0174894
0.0176033
0.0177216
0.0178441
0.0179686
0.0180925
0.0182154
0.0183368
0.0184557
0.0185704
0.018679
0.0187798
0.0188721
0.0189565
0.0190352
0.019111
0.019187
0.019265
0.0193449
0.019425
0.0195025
0.01957
0.019622
0.0196591
0.0196855
0.0197043
0.0197194
0.0197337
0.0197506
0.0197718
0.0198002
0.0198324
0.0198707
0.0199194
0.0199315
0.0274431
0.0274376
0.0274323
0.0274271
0.0274219
0.0274171
0.0274128
0.0274091
0.0274061
0.0274036
0.0274015
0.0273996
0.0248771
0.0248464
0.0248162
0.0247866
0.0247576
0.0247292
0.0247015
0.0246745
0.0246483
0.0246229
0.0245983
0.0245744
0.0245512
0.0245286
0.024507
0.0244865
0.0244672
0.0244492
0.0244327
0.0244178
0.0244048
0.0243937
0.0243849
0.0243783
0.024374
0.024373
0.024374
0.0243773
0.0243837
0.0243927
0.0244044
0.024419
0.0244365
0.0244572
0.0244816
0.024509
0.024539
0.0245715
0.0246064
0.0246436
0.0246829
0.0247249
0.02477
0.0248185
0.0248694
0.024921
0.0249739
0.0250294
0.0250884
0.0251501
0.0252108
0.0252686
0.0253292
0.0253952
0.0254595
0.0255101
0.0255385
0.0255405
0.0255182
0.0254471
0.0253124
0.0251035
0.0248091
0.0244157
0.0239039
0.0232598
0.0224948
0.0216452
0.0207559
0.0198776
0.0190667
0.0183735
0.0178265
0.0173997
0.0170305
0.016704
0.0164199
0.0161778
0.0159755
0.0158094
0.0156749
0.015566
0.0154757
0.0154013
0.0153423
0.0152977
0.0152659
0.0152454
0.0152345
0.0152318
0.0152344
0.0152425
0.0152553
0.015272
0.0152916
0.0153136
0.0153374
0.0153629
0.0153895
0.0154173
0.0154459
0.0154754
0.0155057
0.0155367
0.0155687
0.0156015
0.0156353
0.0156701
0.0157061
0.0157436
0.0157826
0.0158234
0.0158662
0.0159113
0.0159587
0.0160087
0.0160613
0.0161164
0.0161737
0.0162328
0.0162934
0.0163558
0.0164198
0.0164856
0.0165533
0.0166229
0.0166945
0.0167683
0.0168444
0.016923
0.0170044
0.0170888
0.0171766
0.0172681
0.0173636
0.0174634
0.0175679
0.017677
0.0177907
0.0179086
0.0180274
0.0181445
0.0182591
0.0183711
0.0184803
0.0185863
0.0186892
0.0187885
0.018884
0.0189752
0.0190616
0.0191429
0.0192188
0.0192897
0.0193561
0.0194186
0.019478
0.0195347
0.0195885
0.019639
0.0196855
0.019727
0.0197622
0.0197899
0.0198107
0.0198263
0.0198393
0.0198522
0.0198678
0.0198885
0.0199154
0.0199472
0.0199807
0.0200091
0.0200265
0.0200334
0.020031
0.0200229
0.0200138
0.0200083
0.0200036
0.0200031
0.0200099
0.0200256
0.0200478
0.0200723
0.0200977
0.0201186
0.0201331
0.0201419
0.0201362
0.0275841
0.0275803
0.0275769
0.0275738
0.0275709
0.0275684
0.0275662
0.0275644
0.0275632
0.0275626
0.0250206
0.0249885
0.0249569
0.0249255
0.0248946
0.0248641
0.0248341
0.0248047
0.0247759
0.0247478
0.0247202
0.0246931
0.0246664
0.0246402
0.0246147
0.02459
0.0245662
0.0245435
0.0245219
0.0245017
0.0244831
0.0244661
0.024451
0.0244377
0.0244265
0.0244178
0.0244111
0.0244063
0.024405
0.0244061
0.0244097
0.0244169
0.0244277
0.0244419
0.0244591
0.0244792
0.0245022
0.0245277
0.0245557
0.0245863
0.0246197
0.0246565
0.024696
0.0247367
0.0247791
0.0248247
0.0248737
0.0249261
0.0249807
0.0250367
0.0250949
0.0251574
0.0252234
0.0252911
0.0253558
0.0254116
0.0254593
0.0255052
0.0255511
0.0255939
0.0256278
0.0256468
0.0256475
0.0256279
0.0255665
0.0254536
0.0252834
0.0250497
0.0247466
0.0243698
0.0239168
0.0233872
0.0227859
0.0221375
0.0214681
0.020794