/*--------------------------------*- C++ -*----------------------------------*\
| =========                 |                                                 |
| \\      /  F ield         | OpenFOAM: The Open Source CFD Toolbox           |
|  \\    /   O peration     | Version:  v1706                                 |
|   \\  /    A nd           | Web:      www.OpenFOAM.com                      |
|    \\/     M anipulation  |                                                 |
\*---------------------------------------------------------------------------*/
FoamFile
{
    version     2.0;
    format      ascii;
    class       volScalarField;
    location    "3.3e-05";
    object      Mach;
}
// * * * * * * * * * * * * * * * * * * * * * * * * * * * * * * * * * * * * * //

dimensions      [0 0 0 0 0 0 0];


internalField   nonuniform List<scalar> 
30104
(
3.98249
3.98069
3.97868
3.97642
3.97388
3.97104
3.96784
3.96423
3.96017
3.95562
3.95054
3.9449
3.93866
3.9317
3.9239
3.91518
3.90551
3.87283
3.88814
3.90129
3.91309
3.9239
3.93387
3.94288
3.9507
3.95729
3.96285
3.96768
3.97192
3.97562
3.97888
3.98175
3.98424
3.98633
3.98802
3.98939
3.99049
3.99137
3.99206
3.99261
3.99306
3.99344
3.99375
3.994
3.99421
3.99438
3.99452
3.99463
3.99471
3.99477
3.99482
3.99485
3.99488
3.9949
3.99492
3.99494
3.99495
3.99496
3.99496
3.99497
3.99497
3.99497
3.99497
3.99497
3.99498
3.99498
3.99498
3.99498
3.99498
3.99498
3.99498
3.99498
3.99498
3.99498
3.99498
3.99498
3.99498
3.99498
3.99498
3.99498
3.99498
3.99498
3.99498
3.99498
3.99498
3.99498
3.99498
3.99498
3.99498
3.99498
3.99498
3.99498
3.99498
3.99498
3.99498
3.99498
3.99498
3.99498
3.99498
3.99498
3.99498
3.99498
3.99498
3.99498
3.99498
3.99498
3.99498
3.99498
3.99498
3.99498
3.99498
3.99498
3.99498
3.99498
3.99498
3.99498
3.99498
3.99498
3.99498
3.99498
3.99498
3.99498
3.99498
3.99498
3.99498
3.99498
3.99498
3.99498
3.99498
3.99498
3.99498
3.99498
3.99498
3.99498
3.99498
3.99498
3.99498
3.99498
3.99498
3.99498
3.99498
3.99498
3.99498
3.99498
3.99498
3.99498
3.99498
3.99498
3.99498
3.99498
3.99498
3.99498
3.99498
3.99498
3.99498
3.99498
3.99498
3.99498
3.99498
3.99498
3.99498
3.99498
3.99498
3.99498
3.99498
3.99498
3.99498
3.99498
3.99498
3.99498
3.99498
3.99498
3.99498
3.99498
3.99498
3.99498
3.99498
3.99498
3.99498
3.99498
3.99498
3.99498
3.99498
3.99498
3.99498
3.99498
3.99498
3.99498
3.99498
3.99498
3.99498
3.99498
3.99498
3.99498
3.99498
3.99498
3.99498
3.99498
3.99498
3.99498
3.99498
3.99498
3.99498
3.99498
3.99498
3.99498
3.99498
3.99498
3.99498
3.99498
3.9183
3.90772
3.89589
3.88268
3.86787
3.85124
3.83259
3.81184
3.789
3.76417
3.73755
3.70923
3.67912
3.64687
3.61166
3.57298
3.53083
3.36541
3.42095
3.47015
3.51737
3.56439
3.61146
3.65827
3.70399
3.74642
3.783
3.8136
3.83996
3.86334
3.88421
3.90251
3.91815
3.93126
3.94221
3.95144
3.9593
3.96602
3.97172
3.97645
3.98026
3.98329
3.98569
3.98761
3.98913
3.99034
3.99131
3.99209
3.99272
3.99322
3.99363
3.99395
3.9942
3.99439
3.99453
3.99464
3.99472
3.99479
3.99483
3.99487
3.9949
3.99492
3.99494
3.99495
3.99496
3.99496
3.99497
3.99497
3.99497
3.99497
3.99498
3.99498
3.99498
3.99498
3.99498
3.99498
3.99498
3.99498
3.99498
3.99498
3.99498
3.99498
3.99498
3.99498
3.99498
3.99498
3.99498
3.99498
3.99498
3.99498
3.99498
3.99498
3.99498
3.99498
3.99498
3.99498
3.99498
3.99498
3.99498
3.99498
3.99498
3.99498
3.99498
3.99498
3.99498
3.99498
3.99498
3.99498
3.99498
3.99498
3.99498
3.99498
3.99498
3.99498
3.99498
3.99498
3.99498
3.99498
3.99498
3.99498
3.99498
3.99498
3.99498
3.99498
3.99498
3.99498
3.99498
3.99498
3.99498
3.99498
3.99498
3.99498
3.99498
3.99498
3.99498
3.99498
3.99498
3.99498
3.99498
3.99498
3.99498
3.99498
3.99498
3.99498
3.99498
3.99498
3.99498
3.99498
3.99498
3.99498
3.99498
3.99498
3.99498
3.99498
3.99498
3.99498
3.99498
3.99498
3.99498
3.99498
3.99498
3.99498
3.99498
3.99498
3.99498
3.99498
3.99498
3.99498
3.99498
3.99498
3.99498
3.99498
3.99498
3.99498
3.99498
3.99498
3.99498
3.99498
3.99498
3.99498
3.99498
3.99498
3.99498
3.99498
3.99498
3.99498
3.99498
3.99498
3.99498
3.99498
3.99498
3.99498
3.99498
3.99498
3.99498
3.99498
3.99497
3.99497
3.99497
3.99497
3.99497
3.99497
3.99497
3.99497
3.99497
3.99497
3.99497
3.99497
3.99497
3.99497
3.73675
3.70459
3.66987
3.63253
3.59217
3.5481
3.49992
3.44776
3.39223
3.33427
3.27479
3.21474
3.15431
3.09252
3.02701
2.95833
2.79257
2.83212
2.8781
2.92982
2.98738
3.05124
3.12151
3.19733
3.27589
3.35197
3.41872
3.47969
3.53843
3.59598
3.65198
3.70468
3.75122
3.79026
3.82326
3.85185
3.87673
3.89802
3.91584
3.93051
3.94257
3.95255
3.96089
3.96787
3.97362
3.97824
3.98188
3.98473
3.98697
3.98872
3.99011
3.9912
3.99206
3.99274
3.99327
3.9937
3.99403
3.99428
3.99446
3.99459
3.99469
3.99477
3.99483
3.99487
3.9949
3.99492
3.99494
3.99495
3.99496
3.99496
3.99497
3.99497
3.99497
3.99497
3.99497
3.99498
3.99498
3.99498
3.99498
3.99498
3.99498
3.99498
3.99498
3.99498
3.99498
3.99498
3.99498
3.99498
3.99498
3.99498
3.99498
3.99498
3.99498
3.99498
3.99498
3.99498
3.99498
3.99498
3.99498
3.99498
3.99498
3.99498
3.99498
3.99498
3.99498
3.99498
3.99498
3.99498
3.99498
3.99498
3.99498
3.99498
3.99498
3.99498
3.99498
3.99498
3.99498
3.99498
3.99498
3.99498
3.99498
3.99498
3.99498
3.99498
3.99498
3.99498
3.99498
3.99498
3.99498
3.99498
3.99498
3.99498
3.99498
3.99498
3.99498
3.99498
3.99498
3.99498
3.99498
3.99498
3.99498
3.99498
3.99498
3.99498
3.99498
3.99498
3.99498
3.99498
3.99498
3.99498
3.99497
3.99497
3.99497
3.99497
3.99497
3.99497
3.99497
3.99497
3.99497
3.99497
3.99497
3.99497
3.99497
3.99497
3.99497
3.99497
3.99497
3.99497
3.99497
3.99497
3.99497
3.99497
3.99497
3.99497
3.99497
3.99497
3.99497
3.99497
3.99497
3.99497
3.99497
3.99497
3.99497
3.99497
3.99497
3.99497
3.99497
3.99497
3.99497
3.99497
3.99497
3.99497
3.99497
3.99497
3.99497
3.99497
3.99497
3.99496
3.99496
3.99496
3.99496
3.99496
3.99496
3.99496
3.99496
3.99496
3.99496
3.99496
3.99496
3.31916
3.2539
3.18742
3.11996
3.05066
2.97775
2.9019
2.82481
2.74844
2.67457
2.60461
2.53961
2.48021
2.42704
2.38081
2.3411
2.66552
2.67425
2.68375
2.6946
2.70755
2.72344
2.74321
2.76785
2.79836
2.83597
2.88223
2.93688
2.99983
3.0713
3.15074
3.23571
3.32122
3.39891
3.46823
3.53376
3.59721
3.65809
3.71402
3.76212
3.80197
3.83555
3.86431
3.8888
3.90924
3.92601
3.93963
3.95074
3.95989
3.96746
3.97364
3.97853
3.98232
3.98523
3.98749
3.98923
3.99059
3.99165
3.99247
3.99311
3.99361
3.99398
3.99426
3.99446
3.9946
3.99471
3.99478
3.99484
3.99488
3.99491
3.99493
3.99494
3.99495
3.99496
3.99496
3.99497
3.99497
3.99497
3.99497
3.99497
3.99497
3.99497
3.99497
3.99498
3.99498
3.99498
3.99498
3.99498
3.99498
3.99498
3.99498
3.99498
3.99498
3.99498
3.99498
3.99498
3.99498
3.99498
3.99498
3.99498
3.99498
3.99498
3.99498
3.99498
3.99497
3.99497
3.99497
3.99497
3.99497
3.99497
3.99497
3.99497
3.99497
3.99497
3.99497
3.99497
3.99497
3.99497
3.99497
3.99497
3.99497
3.99497
3.99497
3.99497
3.99497
3.99497
3.99497
3.99497
3.99497
3.99497
3.99497
3.99497
3.99497
3.99497
3.99497
3.99497
3.99497
3.99497
3.99497
3.99497
3.99497
3.99497
3.99497
3.99497
3.99497
3.99497
3.99497
3.99497
3.99497
3.99497
3.99497
3.99497
3.99497
3.99497
3.99497
3.99497
3.99497
3.99497
3.99497
3.99496
3.99496
3.99496
3.99496
3.99496
3.99496
3.99496
3.99496
3.99496
3.99496
3.99496
3.99496
3.99496
3.99496
3.99496
3.99496
3.99495
3.99495
3.99495
3.99495
3.99495
3.99495
3.99495
3.99495
3.99495
3.99495
3.99494
3.99494
3.99494
3.99494
3.99494
3.99494
3.99494
3.99494
3.99493
3.99493
3.99493
3.99493
3.99493
3.99492
3.99492
3.99492
3.99492
3.99492
3.99491
3.99491
3.99491
3.99491
3.9949
3.99491
2.6788
2.6025
2.53111
2.46558
2.4068
2.35555
2.31145
2.27392
2.24227
2.2158
2.19381
2.17562
2.16063
2.14839
2.1386
2.647
2.65162
2.65643
2.66185
2.66776
2.67382
2.6799
2.68611
2.69269
2.70009
2.70908
2.72
2.73361
2.75104
2.77339
2.80164
2.83723
2.88241
2.93798
3.00387
3.08008
3.16537
3.25609
3.34566
3.42509
3.49714
3.56583
3.63193
3.69365
3.74771
3.79246
3.82947
3.86071
3.88704
3.90888
3.92667
3.94098
3.95252
3.96192
3.9696
3.97572
3.98045
3.98403
3.98673
3.98877
3.99034
3.99154
3.99245
3.99314
3.99366
3.99404
3.99431
3.9945
3.99464
3.99473
3.9948
3.99485
3.99489
3.99491
3.99493
3.99494
3.99495
3.99496
3.99496
3.99496
3.99497
3.99497
3.99497
3.99497
3.99497
3.99497
3.99497
3.99497
3.99497
3.99497
3.99497
3.99497
3.99497
3.99497
3.99497
3.99497
3.99497
3.99497
3.99497
3.99497
3.99497
3.99497
3.99497
3.99497
3.99497
3.99497
3.99497
3.99497
3.99497
3.99497
3.99497
3.99497
3.99497
3.99497
3.99497
3.99497
3.99497
3.99497
3.99497
3.99497
3.99496
3.99496
3.99496
3.99496
3.99496
3.99496
3.99496
3.99496
3.99496
3.99496
3.99496
3.99496
3.99496
3.99496
3.99496
3.99496
3.99496
3.99496
3.99496
3.99495
3.99495
3.99495
3.99495
3.99495
3.99495
3.99495
3.99495
3.99495
3.99495
3.99494
3.99494
3.99494
3.99494
3.99494
3.99494
3.99494
3.99494
3.99493
3.99493
3.99493
3.99493
3.99493
3.99492
3.99492
3.99492
3.99492
3.99492
3.99491
3.99491
3.99491
3.99491
3.9949
3.9949
3.9949
3.99489
3.99489
3.99489
3.99488
3.99488
3.99488
3.99487
3.99487
3.99486
3.99486
3.99485
3.99485
3.99484
3.99484
3.99483
3.99483
3.99482
3.99481
3.99481
3.9948
3.99479
3.99479
3.99478
3.99477
3.99476
3.99476
3.99475
3.99474
3.99473
3.99472
3.99471
3.9947
3.99469
3.9947
2.23853
2.20621
2.17935
2.15714
2.13887
2.12397
2.112
2.10252
2.09516
2.08955
2.08545
2.08255
2.0805
2.07897
2.07787
2.07712
2.63693
2.64259
2.64812
2.65308
2.65771
2.66199
2.66612
2.67089
2.67515
2.67806
2.68274
2.68811
2.69322
2.69797
2.70251
2.70733
2.71331
2.72111
2.73113
2.74411
2.76119
2.78359
2.81281
2.85111
2.90116
2.96345
3.03779
3.12329
3.21695
3.31287
3.40132
3.47963
3.55317
3.62376
3.68973
3.74751
3.79506
3.83391
3.86624
3.89314
3.91518
3.93289
3.94695
3.95816
3.96717
3.9743
3.97973
3.98375
3.98669
3.98887
3.99051
3.99173
3.99264
3.99331
3.9938
3.99414
3.99438
3.99454
3.99466
3.99474
3.9948
3.99485
3.99488
3.9949
3.99492
3.99493
3.99494
3.99494
3.99495
3.99495
3.99495
3.99495
3.99496
3.99496
3.99496
3.99496
3.99496
3.99496
3.99496
3.99496
3.99496
3.99496
3.99495
3.99495
3.99495
3.99495
3.99495
3.99495
3.99495
3.99495
3.99495
3.99495
3.99495
3.99495
3.99495
3.99495
3.99495
3.99494
3.99494
3.99494
3.99494
3.99494
3.99494
3.99494
3.99494
3.99494
3.99494
3.99493
3.99493
3.99493
3.99493
3.99493
3.99493
3.99493
3.99492
3.99492
3.99492
3.99492
3.99492
3.99491
3.99491
3.99491
3.99491
3.99491
3.9949
3.9949
3.9949
3.99489
3.99489
3.99489
3.99488
3.99488
3.99488
3.99487
3.99487
3.99486
3.99486
3.99485
3.99485
3.99484
3.99484
3.99483
3.99483
3.99482
3.99482
3.99481
3.9948
3.99479
3.99479
3.99478
3.99477
3.99476
3.99475
3.99474
3.99474
3.99473
3.99471
3.9947
3.99469
3.99468
3.99467
3.99466
3.99464
3.99463
3.99461
3.9946
3.99458
3.99457
3.99455
3.99453
3.99451
3.99449
3.99447
3.99445
3.99443
3.99441
3.99438
3.99436
3.99433
3.99431
3.99428
3.99425
3.99421
3.99418
3.99415
3.99411
3.99407
3.99403
3.99399
3.99395
3.99391
3.99386
3.9939
2.0682
2.06207
2.05752
2.0542
2.05172
2.04981
2.04836
2.04736
2.04678
2.04666
2.04714
2.04815
2.04947
2.62368
2.62899
2.63443
2.63983
2.64497
2.65003
2.65535
2.6606
2.66574
2.67068
2.67494
2.67877
2.68228
2.68547
2.68857
2.69116
2.69359
2.69728
2.70073
2.70338
2.70553
2.70803
2.71174
2.71727
2.72501
2.73547
2.74962
2.76887
2.79508
2.83069
2.87887
2.94109
3.01689
3.10532
3.20348
3.30534
3.40052
3.48438
3.56284
3.63769
3.70648
3.76522
3.81266
3.85109
3.88261
3.9083
3.92883
3.94489
3.9574
3.96721
3.97477
3.98037
3.98439
3.98726
3.98935
3.9909
3.99203
3.99285
3.99344
3.99387
3.99416
3.99437
3.99451
3.99462
3.9947
3.99476
3.9948
3.99484
3.99486
3.99488
3.99489
3.99489
3.9949
3.9949
3.99491
3.99491
3.99491
3.99491
3.99491
3.99491
3.99491
3.99491
3.99491
3.99491
3.9949
3.9949
3.9949
3.9949
3.9949
3.99489
3.99489
3.99489
3.99489
3.99488
3.99488
3.99488
3.99488
3.99487
3.99487
3.99487
3.99486
3.99486
3.99486
3.99485
3.99485
3.99485
3.99484
3.99484
3.99484
3.99483
3.99483
3.99482
3.99482
3.99481
3.99481
3.9948
3.9948
3.99479
3.99478
3.99478
3.99477
3.99476
3.99475
3.99474
3.99474
3.99473
3.99472
3.9947
3.99469
3.99468
3.99467
3.99466
3.99464
3.99463
3.99462
3.9946
3.99458
3.99457
3.99455
3.99453
3.99451
3.9945
3.99448
3.99445
3.99443
3.99441
3.99439
3.99436
3.99433
3.99431
3.99428
3.99425
3.99422
3.99419
3.99415
3.99412
3.99408
3.99404
3.994
3.99396
3.99391
3.99387
3.99382
3.99377
3.99371
3.99365
3.99359
3.99353
3.99347
3.9934
3.99333
3.99325
3.99318
3.9931
3.99301
3.99292
3.99283
3.99273
3.99263
3.99253
3.99242
3.99231
3.99219
3.99207
3.99194
3.99181
3.99166
3.99151
3.99135
3.99119
3.99102
3.99084
3.99099
2.02052
2.02015
2.02043
2.02123
2.02224
2.02327
2.02436
2.02567
2.02646
2.02757
2.02858
2.02966
2.03096
2.61105
2.61638
2.62162
2.62676
2.63172
2.63668
2.64169
2.64676
2.65212
2.65772
2.66308
2.66796
2.67231
2.67616
2.67992
2.68369
2.68698
2.68963
2.69164
2.69328
2.69491
2.69601
2.69707
2.69897
2.70037
2.70098
2.70156
2.70286
2.70547
2.70987
2.71651
2.72586
2.739
2.75772
2.78433
2.82162
2.87287
2.93978
3.02181
3.11777
3.22397
3.33268
3.43133
3.51964
3.60286
3.68051
3.74819
3.80284
3.84597
3.88052
3.90823
3.93006
3.9468
3.95952
3.96922
3.97643
3.98159
3.9852
3.98777
3.98966
3.99104
3.99206
3.9928
3.99335
3.99374
3.99403
3.99422
3.99437
3.99448
3.99456
3.99462
3.99467
3.9947
3.99472
3.99474
3.99475
3.99476
3.99477
3.99477
3.99477
3.99477
3.99477
3.99476
3.99476
3.99475
3.99475
3.99474
3.99474
3.99473
3.99472
3.99471
3.99471
3.9947
3.99469
3.99468
3.99467
3.99466
3.99466
3.99465
3.99464
3.99463
3.99462
3.99461
3.9946
3.99458
3.99457
3.99456
3.99455
3.99453
3.99452
3.99451
3.99449
3.99447
3.99446
3.99444
3.99442
3.9944
3.99438
3.99436
3.99434
3.99431
3.99429
3.99426
3.99423
3.9942
3.99417
3.99414
3.99411
3.99407
3.99403
3.99399
3.99395
3.9939
3.99386
3.99381
3.99376
3.99371
3.99365
3.9936
3.99354
3.99347
3.99341
3.99334
3.99327
3.99319
3.99311
3.99303
3.99294
3.99285
3.99276
3.99265
3.99255
3.99244
3.99232
3.9922
3.99207
3.99194
3.9918
3.99166
3.99151
3.99135
3.99119
3.99101
3.99083
3.99064
3.99045
3.99024
3.99002
3.98979
3.98954
3.98928
3.98902
3.98873
3.98844
3.98814
3.98782
3.98749
3.98715
3.98679
3.98641
3.98601
3.98558
3.98513
3.98465
3.98416
3.98364
3.9831
3.98253
3.98194
3.98131
3.98066
3.9799
3.98034
1.99934
2.00011
2.00103
2.00189
2.0028
2.0041
2.00575
2.00754
2.00934
2.01131
2.01329
2.01498
2.01632
2.01768
2.59735
2.6028
2.6081
2.61326
2.61833
2.62338
2.6285
2.63379
2.63923
2.64465
2.64981
2.65454
2.65888
2.66315
2.66757
2.67212
2.67646
2.68025
2.68343
2.6862
2.68882
2.69114
2.69287
2.69401
2.69457
2.69487
2.69515
2.6946
2.69477
2.69497
2.69467
2.69431
2.69459
2.69563
2.69803
2.70237
2.70909
2.71894
2.73343
2.75481
2.7858
2.82967
2.89009
2.96824
3.06348
3.17327
3.29074
3.40285
3.50109
3.59201
3.67604
3.74862
3.80627
3.85076
3.88567
3.91316
3.93431
3.95011
3.96191
3.97076
3.97722
3.9818
3.98505
3.98742
3.9892
3.99054
3.99153
3.99228
3.99284
3.99325
3.99355
3.99377
3.99392
3.99404
3.99413
3.9942
3.99424
3.99428
3.9943
3.99432
3.99433
3.99433
3.99432
3.99432
3.9943
3.99429
3.99427
3.99425
3.99423
3.99421
3.99419
3.99416
3.99414
3.99411
3.99408
3.99406
3.99403
3.994
3.99397
3.99394
3.99391
3.99387
3.99384
3.9938
3.99377
3.99373
3.99369
3.99365
3.99361
3.99356
3.99352
3.99347
3.99342
3.99337
3.99331
3.99326
3.99319
3.99313
3.99306
3.99299
3.99292
3.99284
3.99275
3.99266
3.99257
3.99247
3.99236
3.99225
3.99213
3.992
3.99187
3.99173
3.99159
3.99143
3.99127
3.9911
3.99092
3.99074
3.99055
3.99035
3.99014
3.98992
3.9897
3.98946
3.98921
3.98895
3.98867
3.98838
3.98808
3.98776
3.98743
3.98707
3.9867
3.98631
3.98591
3.98548
3.98503
3.98456
3.98407
3.98356
3.98302
3.98246
3.98186
3.98124
3.98057
3.97987
3.97913
3.97834
3.97752
3.97665
3.97574
3.97478
3.97377
3.97271
3.97159
3.97042
3.96919
3.96791
3.96657
3.96518
3.96374
3.96224
3.96069
3.95908
3.95741
3.95565
3.95378
3.95181
3.94971
3.94746
3.94516
3.94237
3.94356
1.98315
1.98501
1.98687
1.98842
1.98965
1.99087
1.99233
1.99394
1.99566
1.99752
1.99938
2.00119
2.00291
2.00449
2.58212
2.58768
2.59313
2.59849
2.60382
2.60917
2.6146
2.62011
2.62562
2.63098
2.63611
2.64099
2.64572
2.65049
2.65528
2.65994
2.66427
2.66819
2.67181
2.67536
2.67892
2.6823
2.68529
2.68778
2.68984
2.69153
2.69275
2.6934
2.69356
2.69333
2.69287
2.69224
2.69097
2.68993
2.68928
2.68866
2.68822
2.6882
2.68893
2.6904
2.69325
2.69834
2.7065
2.71903
2.73802
2.7662
2.80711
2.86508
2.94316
3.04109
3.15643
3.28167
3.40204
3.50676
3.60231
3.68842
3.76027
3.81554
3.85752
3.89026
3.91585
3.9353
3.9498
3.96075
3.96911
3.97533
3.97984
3.9831
3.98552
3.98737
3.98879
3.98987
3.99068
3.99129
3.99177
3.99213
3.99241
3.9926
3.99275
3.99284
3.99291
3.99294
3.99296
3.99296
3.99294
3.99291
3.99288
3.99283
3.99277
3.99271
3.99264
3.99257
3.99249
3.99241
3.99233
3.99225
3.99216
3.99207
3.99198
3.99188
3.99178
3.99168
3.99157
3.99146
3.99135
3.99123
3.99111
3.99098
3.99085
3.99071
3.99056
3.9904
3.99024
3.99007
3.98989
3.98971
3.98951
3.9893
3.98909
3.98886
3.98862
3.98837
3.98811
3.98783
3.98754
3.98722
3.98689
3.98654
3.98617
3.98578
3.98537
3.98493
3.98447
3.98398
3.98347
3.98294
3.98238
3.98179
3.98118
3.98054
3.97987
3.97917
3.97844
3.97767
3.97687
3.97602
3.97512
3.97418
3.97318
3.97212
3.97101
3.96983
3.96859
3.96728
3.9659
3.96445
3.96293
3.96134
3.95968
3.95795
3.95614
3.95426
3.9523
3.95026
3.94811
3.94587
3.94351
3.94102
3.93839
3.93562
3.93267
3.92955
3.92624
3.92274
3.91906
3.9152
3.91117
3.90698
3.90262
3.89809
3.89336
3.88841
3.88322
3.87777
3.87211
3.8662
3.86009
3.85369
3.84705
3.84
3.83282
3.82372
3.82544
1.96984
1.97157
1.9733
1.975
1.97658
1.978
1.97934
1.98072
1.98218
1.98374
1.98539
1.98711
1.98884
1.99051
2.56557
2.57126
2.57688
2.58246
2.58805
2.59367
2.59933
2.60501
2.61062
2.61611
2.62147
2.62674
2.63197
2.63717
2.64225
2.64708
2.65164
2.656
2.66028
2.66454
2.66863
2.67237
2.67574
2.67871
2.68143
2.68396
2.68628
2.68827
2.68988
2.69112
2.69201
2.69251
2.69235
2.69182
2.69114
2.69047
2.68988
2.68871
2.68725
2.68648
2.68583
2.68535
2.68513
2.68534
2.68623
2.68781
2.69125
2.69779
2.70884
2.72663
2.7541
2.79526
2.85516
2.93746
3.0417
3.16419
3.29489
3.41597
3.51987
3.61335
3.69569
3.76276
3.81376
3.85279
3.8838
3.90853
3.9277
3.94223
3.95335
3.96202
3.9687
3.97372
3.97741
3.98016
3.98225
3.98389
3.98519
3.98621
3.987
3.98759
3.98803
3.98835
3.98858
3.98872
3.98878
3.98877
3.98872
3.98863
3.9885
3.98834
3.98816
3.98795
3.98773
3.98749
3.98724
3.98698
3.98671
3.98643
3.98614
3.98585
3.98554
3.98523
3.9849
3.98457
3.98422
3.98386
3.98348
3.98309
3.98268
3.98226
3.98181
3.98134
3.98085
3.98034
3.9798
3.97923
3.97863
3.97801
3.97736
3.97667
3.97595
3.97518
3.97438
3.97353
3.97264
3.97169
3.97068
3.96961
3.96848
3.96728
3.966
3.96465
3.96321
3.96169
3.96008
3.95838
3.9566
3.95473
3.95277
3.95074
3.94863
3.94643
3.94416
3.94178
3.93931
3.93672
3.93401
3.93117
3.92817
3.92502
3.92169
3.91817
3.91445
3.91052
3.90636
3.90197
3.89735
3.89249
3.88741
3.88211
3.8766
3.87089
3.86497
3.85882
3.85241
3.84569
3.83864
3.83121
3.82341
3.81521
3.80661
3.79758
3.78809
3.7781
3.76757
3.75646
3.74476
3.73246
3.71963
3.70636
3.69276
3.67894
3.66496
3.65082
3.63646
3.62186
3.60693
3.59163
3.57596
3.55946
3.54357
3.52272
3.52121
1.9567
1.95814
1.95965
1.96122
1.96279
1.96427
1.96563
1.96693
1.96823
1.96956
1.97096
1.97244
1.97399
2.54794
2.55375
2.55953
2.56532
2.57111
2.57693
2.58277
2.58858
2.59435
2.60005
2.60572
2.61136
2.61699
2.62254
2.62793
2.63313
2.63817
2.64314
2.64808
2.6529
2.65747
2.66171
2.66562
2.66928
2.67282
2.67616
2.67918
2.68182
2.6841
2.68609
2.68778
2.68913
2.69022
2.69111
2.69176
2.692
2.69193
2.6916
2.69112
2.69059
2.69005
2.68956
2.68905
2.68781
2.68605
2.68491
2.6838
2.68268
2.68162
2.6809
2.68046
2.68137
2.68568
2.69519
2.71242
2.74055
2.78397
2.84775
2.93429
3.04182
3.16497
3.29249
3.40758
3.50491
3.59274
3.67126
3.7369
3.78814
3.82744
3.85887
3.88448
3.90499
3.92099
3.93331
3.94293
3.95065
3.95691
3.9619
3.96581
3.96881
3.97109
3.97281
3.97409
3.97502
3.97565
3.97603
3.97621
3.97617
3.976
3.9757
3.97529
3.97479
3.97421
3.97357
3.97288
3.97214
3.97136
3.97055
3.96971
3.96884
3.96794
3.967
3.96604
3.96505
3.96402
3.96295
3.96184
3.96068
3.95947
3.95819
3.95685
3.95545
3.95396
3.95241
3.95077
3.94904
3.94723
3.94533
3.94334
3.94126
3.9391
3.93684
3.93447
3.93199
3.92938
3.92665
3.92376
3.92072
3.91751
3.91411
3.91052
3.90671
3.90268
3.8984
3.89388
3.88911
3.88407
3.87878
3.87324
3.86745
3.86142
3.85518
3.84873
3.84206
3.83514
3.82797
3.82051
3.81273
3.8046
3.79608
3.78713
3.7777
3.76778
3.75733
3.74632
3.73475
3.7226
3.70988
3.6966
3.68281
3.66859
3.65402
3.63923
3.62424
3.60902
3.59354
3.57772
3.56151
3.54485
3.52769
3.50999
3.49171
3.47277
3.45312
3.43266
3.41131
3.38899
3.36561
3.34117
3.31578
3.2897
3.26347
3.238
3.21339
3.18971
3.16659
3.14452
3.12252
3.10247
3.0816
3.0644
3.04382
3.0364
1.94303
1.94425
1.94551
1.94684
1.94822
1.94959
1.95093
1.95221
1.95345
1.95466
1.9559
1.95718
1.95853
2.54122
2.54715
2.55311
2.55908
2.56505
2.57101
2.57696
2.58291
2.58886
2.59483
2.60077
2.60663
2.61237
2.618
2.62356
2.62908
2.63455
2.63987
2.64499
2.64986
2.65453
2.65903
2.66333
2.66734
2.67106
2.67445
2.67755
2.68038
2.68289
2.68503
2.68686
2.68842
2.68972
2.6908
2.69156
2.69195
2.69211
2.6921
2.69193
2.69159
2.69109
2.69034
2.68938
2.68831
2.68717
2.68558
2.68312
2.68005
2.67672
2.6738
2.67086
2.66781
2.66477
2.66158
2.66001
2.66231
2.67015
2.68602
2.71361
2.75676
2.81896
2.90112
3.00105
3.11446
3.23331
3.34561
3.43993
3.52259
3.59812
3.66475
3.72014
3.76395
3.79805
3.8256
3.84875
3.86821
3.88436
3.89757
3.9082
3.91665
3.92331
3.92855
3.93263
3.93566
3.93775
3.93906
3.93957
3.93946
3.93895
3.93803
3.93675
3.93519
3.93339
3.93141
3.92927
3.927
3.92462
3.92215
3.9196
3.91696
3.91424
3.91145
3.90856
3.90558
3.90249
3.89929
3.89597
3.8925
3.88889
3.88511
3.88114
3.87696
3.87257
3.86795
3.8631
3.85799
3.85265
3.84706
3.84125
3.83521
3.82893
3.82239
3.81557
3.80846
3.80102
3.79324
3.78508
3.77653
3.76754
3.75809
3.74813
3.73763
3.72657
3.71491
3.70264
3.68977
3.67632
3.66234
3.6479
3.63314
3.61815
3.60298
3.58761
3.57202
3.55621
3.54012
3.52371
3.50693
3.48972
3.47199
3.45368
3.4347
3.41501
3.39456
3.37331
3.35126
3.32841
3.30482
3.28056
3.25576
3.23105
3.20693
3.18353
3.16094
3.13925
3.11849
3.09863
3.07964
3.0615
3.04423
3.02787
3.01241
2.99788
2.98444
2.97234
2.96162
2.95214
2.94353
2.9355
2.92776
2.92062
2.91391
2.90795
2.90214
2.89671
2.89155
2.88682
2.88281
2.87919
2.87547
2.8776
1.92966
1.93076
1.93189
1.93305
1.93425
1.93547
1.93667
1.93785
1.939
1.94015
1.9413
1.9425
2.52197
2.52803
2.5341
2.54019
2.5463
2.55242
2.55856
2.56473
2.57094
2.57717
2.58338
2.58954
2.59563
2.60168
2.60769
2.61368
2.61961
2.62542
2.63108
2.6366
2.64198
2.64721
2.65221
2.65696
2.66144
2.66561
2.66958
2.67325
2.67655
2.67951
2.68217
2.68451
2.68648
2.68805
2.68918
2.68995
2.69044
2.69067
2.69064
2.69039
2.68984
2.68898
2.68795
2.68667
2.68494
2.68295
2.68092
2.67874
2.67642
2.6737
2.67011
2.66581
2.66069
2.65522
2.64975
2.64406
2.63834
2.63267
2.62736
2.62447
2.62534
2.63147
2.64492
2.66806
2.70379
2.75477
2.82188
2.90358
2.99729
3.09853
3.20069
3.29617
3.37792
3.44611
3.50851
3.56629
3.61839
3.66391
3.70244
3.73408
3.7595
3.78002
3.79695
3.81077
3.82162
3.82965
3.8351
3.83843
3.83985
3.83951
3.83808
3.83555
3.83208
3.82786
3.82303
3.81771
3.81199
3.80594
3.79962
3.79306
3.7863
3.77937
3.77226
3.76498
3.75751
3.74982
3.74187
3.73364
3.72509
3.71621
3.70696
3.69729
3.68717
3.67657
3.66545
3.65379
3.64161
3.62895
3.61592
3.6026
3.58899
3.57508
3.56087
3.54634
3.53148
3.51628
3.50071
3.48475
3.46837
3.45153
3.43417
3.41626
3.39774
3.37854
3.35863
3.33795
3.31652
3.29435
3.27152
3.24816
3.22495
3.20224
3.1801
3.15858
3.13772
3.11759
3.09822
3.07966
3.06197
3.04515
3.02924
3.01422
3.00011
2.9869
2.97459
2.96319
2.9527
2.94315
2.93455
2.92687
2.91995
2.9136
2.9077
2.90215
2.89691
2.89205
2.88756
2.88332
2.87932
2.87571
2.87273
2.87051
2.86889
2.86744
2.86558
2.86386
2.86151
2.85944
2.85771
2.85651
2.85463
2.85297
2.85195
2.85125
2.85078
2.85068
2.85067
2.8508
2.85063
2.84995
2.84909
1.91436
1.91536
1.91635
1.91736
1.91839
1.91945
1.92052
1.9216
1.92267
1.92374
2.50179
2.50794
2.51412
2.52033
2.52656
2.53284
2.53916
2.54553
2.55195
2.5584
2.56485
2.57129
2.57771
2.58412
2.59052
2.5969
2.60323
2.60949
2.61568
2.62177
2.62775
2.63359
2.63923
2.64466
2.64987
2.65484
2.65957
2.66403
2.66808
2.67181
2.67514
2.67801
2.68045
2.68255
2.68432
2.68572
2.68677
2.68747
2.6878
2.68773
2.68729
2.6865
2.68526
2.6837
2.68212
2.6804
2.67828
2.67563
2.67238
2.66885
2.66514
2.66099
2.65649
2.65177
2.64638
2.64019
2.63404
2.62801
2.62072
2.61308
2.60548
2.59832
2.59192
2.58658
2.58341
2.58304
2.58631
2.59439
2.60867
2.63038
2.66085
2.70139
2.75266
2.81335
2.88157
2.95589
3.03426
3.114
3.19202
3.26504
3.32981
3.38389
3.43094
3.47341
3.5106
3.54168
3.56638
3.58478
3.5974
3.6054
3.60843
3.60762
3.60434
3.59866
3.59089
3.58159
3.57105
3.55961
3.54749
3.53485
3.52185
3.50857
3.49509
3.48148
3.46775
3.45389
3.43988
3.42568
3.41124
3.39655
3.38154
3.36617
3.35038
3.3341
3.31724
3.29972
3.28145
3.26238
3.24269
3.22296
3.20335
3.18391
3.16467
3.14568
3.12701
3.1087
3.09083
3.07345
3.05662
3.04039
3.02484
3.01
2.99595
2.98272
2.97036
2.9589
2.94835
2.93869
2.92987
2.92184
2.9144
2.90749
2.90111
2.89524
2.88987
2.88497
2.88051
2.87643
2.8727
2.86927
2.86612
2.86325
2.86064
2.85831
2.85625
2.85444
2.85281
2.85129
2.84983
2.84839
2.84705
2.84581
2.84471
2.84367
2.8426
2.84172
2.84119
2.84105
2.8413
2.84172
2.8419
2.84161
2.84105
2.83985
2.83878
2.83804
2.83754
2.83737
2.83681
2.83685
2.8375
2.83838
2.83921
2.83965
2.83948
2.8389
2.83803
2.83677
2.83549
2.83469
2.83497
1.89938
1.90026
1.90115
1.90204
1.90296
1.90389
1.90484
1.90581
1.90678
2.48687
2.49314
2.49945
2.50582
2.51224
2.51872
2.52526
2.53186
2.5385
2.54517
2.55185
2.55854
2.56525
2.57197
2.57868
2.58537
2.59203
2.59865
2.60522
2.6117
2.61805
2.62424
2.63028
2.63614
2.64179
2.64719
2.65226
2.6569
2.66112
2.66496
2.66848
2.67181
2.67469
2.67708
2.67906
2.68063
2.68176
2.68247
2.68275
2.68263
2.68209
2.68129
2.68028
2.67887
2.67702
2.67477
2.67224
2.66947
2.6663
2.66267
2.65861
2.65417
2.64928
2.64389
2.63801
2.63157
2.62426
2.61638
2.60866
2.60124
2.59422
2.58676
2.57946
2.57227
2.56487
2.55801
2.55159
2.54576
2.54128
2.53854
2.53807
2.54046
2.54646
2.55657
2.57113
2.5905
2.61512
2.64556
2.68241
2.7261
2.77594
2.83049
2.88819
2.94713
3.00471
3.05818
3.10521
3.14434
3.17465
3.19607
3.21014
3.21746
3.21813
3.21434
3.20749
3.19737
3.18499
3.17113
3.15626
3.14077
3.12496
3.10907
3.09333
3.07792
3.06297
3.04853
3.03462
3.02121
3.0083
2.99591
2.98405
2.97275
2.96204
2.95195
2.94252
2.93377
2.92568
2.91813
2.91094
2.90411
2.89762
2.89149
2.88573
2.88034
2.8753
2.87061
2.86627
2.86225
2.85856
2.85519
2.85214
2.84938
2.84686
2.84457
2.84246
2.8405
2.83868
2.83697
2.83541
2.83402
2.8328
2.83174
2.83081
2.82999
2.82926
2.8286
2.82801
2.82749
2.82706
2.82672
2.82649
2.82635
2.82627
2.82619
2.82606
2.8259
2.82571
2.8255
2.82533
2.8253
2.82514
2.82508
2.82529
2.82581
2.82649
2.82713
2.82753
2.82754
2.82762
2.8273
2.82698
2.82683
2.82667
2.82649
2.82651
2.82658
2.82654
2.82682
2.82717
2.82728
2.82708
2.82664
2.82624
2.82608
2.826
2.82613
2.82653
2.82707
2.8276
2.82834
1.88292
1.88371
2.46474
2.4711
2.47752
2.484
2.49054
2.49717
2.50386
2.51061
2.51742
2.52426
2.53114
2.53806
2.54501
2.55199
2.55898
2.56597
2.57295
2.57992
2.58688
2.59377
2.60055
2.60722
2.61376
2.62012
2.62621
2.63197
2.63741
2.64257
2.64751
2.65226
2.65663
2.6605
2.6639
2.66678
2.66929
2.67137
2.67298
2.67415
2.67492
2.6753
2.67533
2.67499
2.67422
2.6731
2.67171
2.67008
2.66812
2.66579
2.66306
2.65997
2.65657
2.65277
2.64846
2.64353
2.63797
2.63174
2.62488
2.61746
2.60961
2.60164
2.59352
2.58535
2.57712
2.56865
2.56047
2.55323
2.547
2.54002
2.53369
2.52812
2.52289
2.51773
2.51345
2.51055
2.5091
2.50923
2.51108
2.51482
2.52063
2.52868
2.5393
2.55286
2.56969
2.5901
2.6141
2.64111
2.67056
2.70162
2.73313
2.7638
2.79219
2.81678
2.83711
2.85319
2.86512
2.87366
2.87853
2.88022
2.88022
2.87888
2.87672
2.87379
2.87043
2.86683
2.8631
2.85935
2.85563
2.85203
2.84863
2.84548
2.84256
2.83988
2.83742
2.83512
2.83292
2.8308
2.82875
2.82679
2.82495
2.82325
2.82176
2.82042
2.8192
2.81808
2.81706
2.81616
2.81536
2.81469
2.81412
2.81362
2.8132
2.81283
2.81248
2.81215
2.81184
2.81156
2.81131
2.81113
2.81101
2.81094
2.81091
2.8109
2.81093
2.81098
2.81106
2.81117
2.81132
2.8115
2.81173
2.81198
2.81221
2.8124
2.81258
2.81273
2.81279
2.81286
2.81297
2.81314
2.81336
2.81361
2.81383
2.81418
2.81468
2.81516
2.81548
2.81569
2.81604
2.81626
2.81638
2.81645
2.8165
2.81655
2.81664
2.81683
2.81706
2.81721
2.81745
2.81767
2.81773
2.81765
2.81745
2.81748
2.81769
2.81793
2.81836
2.81892
2.81949
2.81992
2.82013
2.82076
2.4415
2.44794
2.45445
2.46103
2.46768
2.47442
2.48124
2.48813
2.49507
2.50207
2.50911
2.5162
2.52335
2.53055
2.53778
2.54503
2.55228
2.55953
2.56677
2.57397
2.58107
2.58801
2.59475
2.60134
2.60777
2.61403
2.62015
2.62615
2.63185
2.63709
2.64186
2.64619
2.6501
2.65357
2.65661
2.65922
2.66134
2.66306
2.66442
2.66539
2.66595
2.66612
2.66594
2.66549
2.66479
2.66382
2.66252
2.66086
2.65889
2.65661
2.65402
2.65097
2.64737
2.64317
2.63838
2.633
2.62695
2.62007
2.61261
2.60495
2.59705
2.58892
2.58069
2.57268
2.56503
2.55732
2.54983
2.54276
2.53575
2.52898
2.52264
2.51733
2.51266
2.50878
2.50633
2.50494
2.5046
2.50521
2.50648
2.50793
2.50999
2.51307
2.51732
2.52288
2.52992
2.53875
2.54962
2.56256
2.5777
2.59507
2.6145
2.63575
2.6583
2.68135
2.70393
2.72502
2.7437
2.75971
2.77293
2.7834
2.79139
2.79724
2.80137
2.8042
2.80612
2.80704
2.80759
2.80785
2.80781
2.80756
2.80716
2.80664
2.80604
2.80539
2.8047
2.80404
2.80348
2.80301
2.80258
2.80207
2.80161
2.80122
2.80088
2.80061
2.8004
2.80025
2.80015
2.80007
2.80002
2.79999
2.79998
2.79998
2.79997
2.79998
2.8
2.80005
2.80013
2.80022
2.80032
2.80043
2.80055
2.80069
2.80083
2.80098
2.80115
2.80134
2.80154
2.80174
2.80191
2.80208
2.80226
2.8024
2.80252
2.80264
2.80277
2.80295
2.80319
2.80349
2.80379
2.8041
2.80442
2.80477
2.80508
2.80522
2.80548
2.80577
2.80595
2.80608
2.80619
2.80631
2.80646
2.80667
2.80698
2.80727
2.80759
2.80789
2.80817
2.80838
2.80846
2.80861
2.80891
2.8091
2.80933
2.80966
2.81009
2.81051
2.81086
2.81111