/*--------------------------------*- C++ -*----------------------------------*\
| =========                 |                                                 |
| \\      /  F ield         | OpenFOAM: The Open Source CFD Toolbox           |
|  \\    /   O peration     | Version:  v1706                                 |
|   \\  /    A nd           | Web:      www.OpenFOAM.com                      |
|    \\/     M anipulation  |                                                 |
\*---------------------------------------------------------------------------*/
FoamFile
{
    version     2.0;
    format      ascii;
    class       volScalarField;
    location    "3.3e-05";
    object      mu;
}
// * * * * * * * * * * * * * * * * * * * * * * * * * * * * * * * * * * * * * //

dimensions      [1 -1 -1 0 0 0 0];


internalField   nonuniform List<scalar> 
30104
(
1.03871e-05
1.03922e-05
1.0398e-05
1.04046e-05
1.0412e-05
1.04204e-05
1.043e-05
1.04408e-05
1.0453e-05
1.04665e-05
1.04815e-05
1.04979e-05
1.05159e-05
1.05358e-05
1.0558e-05
1.05829e-05
1.0611e-05
1.07324e-05
1.06878e-05
1.06492e-05
1.06141e-05
1.0581e-05
1.05496e-05
1.05202e-05
1.04931e-05
1.04692e-05
1.04492e-05
1.04331e-05
1.04198e-05
1.04085e-05
1.03987e-05
1.03903e-05
1.03832e-05
1.03774e-05
1.03726e-05
1.03687e-05
1.03654e-05
1.03627e-05
1.03603e-05
1.03584e-05
1.03568e-05
1.03556e-05
1.03547e-05
1.03539e-05
1.03533e-05
1.03528e-05
1.03524e-05
1.03521e-05
1.03519e-05
1.03517e-05
1.03515e-05
1.03514e-05
1.03513e-05
1.03512e-05
1.03512e-05
1.03511e-05
1.03511e-05
1.03511e-05
1.03511e-05
1.0351e-05
1.0351e-05
1.0351e-05
1.0351e-05
1.0351e-05
1.0351e-05
1.0351e-05
1.0351e-05
1.0351e-05
1.0351e-05
1.0351e-05
1.0351e-05
1.0351e-05
1.0351e-05
1.0351e-05
1.0351e-05
1.0351e-05
1.0351e-05
1.0351e-05
1.0351e-05
1.0351e-05
1.0351e-05
1.0351e-05
1.0351e-05
1.0351e-05
1.0351e-05
1.0351e-05
1.0351e-05
1.0351e-05
1.0351e-05
1.0351e-05
1.0351e-05
1.0351e-05
1.0351e-05
1.0351e-05
1.0351e-05
1.0351e-05
1.0351e-05
1.0351e-05
1.0351e-05
1.0351e-05
1.0351e-05
1.0351e-05
1.0351e-05
1.0351e-05
1.0351e-05
1.0351e-05
1.0351e-05
1.0351e-05
1.0351e-05
1.0351e-05
1.0351e-05
1.0351e-05
1.0351e-05
1.0351e-05
1.0351e-05
1.0351e-05
1.0351e-05
1.0351e-05
1.0351e-05
1.0351e-05
1.0351e-05
1.0351e-05
1.0351e-05
1.0351e-05
1.0351e-05
1.0351e-05
1.0351e-05
1.0351e-05
1.0351e-05
1.0351e-05
1.0351e-05
1.0351e-05
1.0351e-05
1.0351e-05
1.0351e-05
1.0351e-05
1.0351e-05
1.0351e-05
1.0351e-05
1.0351e-05
1.0351e-05
1.0351e-05
1.0351e-05
1.0351e-05
1.0351e-05
1.0351e-05
1.0351e-05
1.0351e-05
1.0351e-05
1.0351e-05
1.0351e-05
1.0351e-05
1.0351e-05
1.0351e-05
1.0351e-05
1.0351e-05
1.0351e-05
1.0351e-05
1.0351e-05
1.0351e-05
1.0351e-05
1.0351e-05
1.0351e-05
1.0351e-05
1.0351e-05
1.0351e-05
1.0351e-05
1.0351e-05
1.0351e-05
1.0351e-05
1.0351e-05
1.0351e-05
1.0351e-05
1.0351e-05
1.0351e-05
1.0351e-05
1.0351e-05
1.0351e-05
1.0351e-05
1.0351e-05
1.0351e-05
1.0351e-05
1.0351e-05
1.0351e-05
1.0351e-05
1.0351e-05
1.0351e-05
1.0351e-05
1.0351e-05
1.0351e-05
1.0351e-05
1.0351e-05
1.0351e-05
1.0351e-05
1.0351e-05
1.0351e-05
1.0351e-05
1.0351e-05
1.0351e-05
1.0351e-05
1.0351e-05
1.0351e-05
1.0351e-05
1.0351e-05
1.0351e-05
1.0351e-05
1.0351e-05
1.0351e-05
1.0351e-05
1.0351e-05
1.05717e-05
1.06028e-05
1.06376e-05
1.06764e-05
1.072e-05
1.07689e-05
1.0824e-05
1.0886e-05
1.09551e-05
1.10316e-05
1.11156e-05
1.12068e-05
1.13059e-05
1.14141e-05
1.15333e-05
1.16644e-05
1.18071e-05
1.2608e-05
1.23672e-05
1.21656e-05
1.19836e-05
1.18099e-05
1.16405e-05
1.1476e-05
1.13204e-05
1.11793e-05
1.10568e-05
1.09533e-05
1.08648e-05
1.07868e-05
1.07171e-05
1.06548e-05
1.06006e-05
1.0555e-05
1.05178e-05
1.04876e-05
1.04626e-05
1.04416e-05
1.0424e-05
1.04096e-05
1.0398e-05
1.03887e-05
1.03811e-05
1.0375e-05
1.03699e-05
1.03659e-05
1.03626e-05
1.03601e-05
1.03581e-05
1.03565e-05
1.03552e-05
1.03543e-05
1.03535e-05
1.03529e-05
1.03525e-05
1.03521e-05
1.03518e-05
1.03516e-05
1.03515e-05
1.03513e-05
1.03512e-05
1.03512e-05
1.03511e-05
1.03511e-05
1.03511e-05
1.0351e-05
1.0351e-05
1.0351e-05
1.0351e-05
1.0351e-05
1.0351e-05
1.0351e-05
1.0351e-05
1.0351e-05
1.0351e-05
1.0351e-05
1.0351e-05
1.0351e-05
1.0351e-05
1.0351e-05
1.0351e-05
1.0351e-05
1.0351e-05
1.0351e-05
1.0351e-05
1.0351e-05
1.0351e-05
1.0351e-05
1.0351e-05
1.0351e-05
1.0351e-05
1.0351e-05
1.0351e-05
1.0351e-05
1.0351e-05
1.0351e-05
1.0351e-05
1.0351e-05
1.0351e-05
1.0351e-05
1.0351e-05
1.0351e-05
1.0351e-05
1.0351e-05
1.0351e-05
1.0351e-05
1.0351e-05
1.0351e-05
1.0351e-05
1.0351e-05
1.0351e-05
1.0351e-05
1.0351e-05
1.0351e-05
1.0351e-05
1.0351e-05
1.0351e-05
1.0351e-05
1.0351e-05
1.0351e-05
1.0351e-05
1.0351e-05
1.0351e-05
1.0351e-05
1.0351e-05
1.0351e-05
1.0351e-05
1.0351e-05
1.0351e-05
1.0351e-05
1.0351e-05
1.0351e-05
1.0351e-05
1.0351e-05
1.0351e-05
1.0351e-05
1.0351e-05
1.0351e-05
1.0351e-05
1.0351e-05
1.0351e-05
1.0351e-05
1.0351e-05
1.0351e-05
1.0351e-05
1.0351e-05
1.0351e-05
1.0351e-05
1.0351e-05
1.0351e-05
1.0351e-05
1.0351e-05
1.0351e-05
1.0351e-05
1.0351e-05
1.0351e-05
1.0351e-05
1.0351e-05
1.0351e-05
1.0351e-05
1.0351e-05
1.0351e-05
1.0351e-05
1.0351e-05
1.0351e-05
1.0351e-05
1.0351e-05
1.0351e-05
1.0351e-05
1.0351e-05
1.0351e-05
1.0351e-05
1.0351e-05
1.0351e-05
1.0351e-05
1.0351e-05
1.0351e-05
1.0351e-05
1.0351e-05
1.0351e-05
1.0351e-05
1.0351e-05
1.0351e-05
1.0351e-05
1.0351e-05
1.0351e-05
1.0351e-05
1.0351e-05
1.0351e-05
1.0351e-05
1.0351e-05
1.0351e-05
1.0351e-05
1.0351e-05
1.0351e-05
1.0351e-05
1.0351e-05
1.0351e-05
1.0351e-05
1.0351e-05
1.0351e-05
1.0351e-05
1.0351e-05
1.0351e-05
1.0351e-05
1.0351e-05
1.0351e-05
1.0351e-05
1.0351e-05
1.0351e-05
1.11176e-05
1.12194e-05
1.13315e-05
1.14546e-05
1.15904e-05
1.17407e-05
1.19066e-05
1.20877e-05
1.22827e-05
1.249e-05
1.27075e-05
1.29335e-05
1.31674e-05
1.34128e-05
1.36824e-05
1.39747e-05
1.55622e-05
1.53611e-05
1.5122e-05
1.48492e-05
1.45467e-05
1.42173e-05
1.38645e-05
1.34941e-05
1.31181e-05
1.27605e-05
1.2458e-05
1.21994e-05
1.19646e-05
1.17441e-05
1.15373e-05
1.13489e-05
1.11847e-05
1.1047e-05
1.09321e-05
1.08339e-05
1.07486e-05
1.06746e-05
1.0612e-05
1.05608e-05
1.05198e-05
1.04869e-05
1.04599e-05
1.04377e-05
1.04197e-05
1.04052e-05
1.03938e-05
1.03847e-05
1.03774e-05
1.03715e-05
1.03668e-05
1.03632e-05
1.03603e-05
1.03581e-05
1.03564e-05
1.03551e-05
1.03541e-05
1.03533e-05
1.03527e-05
1.03523e-05
1.03519e-05
1.03517e-05
1.03515e-05
1.03514e-05
1.03513e-05
1.03512e-05
1.03511e-05
1.03511e-05
1.03511e-05
1.0351e-05
1.0351e-05
1.0351e-05
1.0351e-05
1.0351e-05
1.0351e-05
1.0351e-05
1.0351e-05
1.0351e-05
1.0351e-05
1.0351e-05
1.0351e-05
1.0351e-05
1.0351e-05
1.0351e-05
1.0351e-05
1.0351e-05
1.0351e-05
1.0351e-05
1.0351e-05
1.0351e-05
1.0351e-05
1.0351e-05
1.0351e-05
1.0351e-05
1.0351e-05
1.0351e-05
1.0351e-05
1.0351e-05
1.0351e-05
1.0351e-05
1.0351e-05
1.0351e-05
1.0351e-05
1.0351e-05
1.0351e-05
1.0351e-05
1.0351e-05
1.0351e-05
1.0351e-05
1.0351e-05
1.0351e-05
1.0351e-05
1.0351e-05
1.0351e-05
1.0351e-05
1.0351e-05
1.0351e-05
1.0351e-05
1.0351e-05
1.0351e-05
1.0351e-05
1.0351e-05
1.0351e-05
1.0351e-05
1.0351e-05
1.0351e-05
1.0351e-05
1.0351e-05
1.0351e-05
1.0351e-05
1.0351e-05
1.0351e-05
1.0351e-05
1.0351e-05
1.0351e-05
1.0351e-05
1.0351e-05
1.0351e-05
1.0351e-05
1.0351e-05
1.0351e-05
1.0351e-05
1.0351e-05
1.0351e-05
1.0351e-05
1.0351e-05
1.0351e-05
1.0351e-05
1.0351e-05
1.0351e-05
1.0351e-05
1.0351e-05
1.0351e-05
1.0351e-05
1.0351e-05
1.0351e-05
1.0351e-05
1.0351e-05
1.0351e-05
1.0351e-05
1.0351e-05
1.0351e-05
1.0351e-05
1.0351e-05
1.0351e-05
1.0351e-05
1.0351e-05
1.0351e-05
1.0351e-05
1.0351e-05
1.0351e-05
1.0351e-05
1.0351e-05
1.0351e-05
1.0351e-05
1.0351e-05
1.0351e-05
1.0351e-05
1.0351e-05
1.0351e-05
1.0351e-05
1.0351e-05
1.0351e-05
1.0351e-05
1.0351e-05
1.0351e-05
1.0351e-05
1.0351e-05
1.0351e-05
1.0351e-05
1.0351e-05
1.0351e-05
1.0351e-05
1.0351e-05
1.0351e-05
1.0351e-05
1.0351e-05
1.0351e-05
1.0351e-05
1.0351e-05
1.0351e-05
1.0351e-05
1.0351e-05
1.0351e-05
1.0351e-05
1.0351e-05
1.0351e-05
1.0351e-05
1.0351e-05
1.25486e-05
1.27901e-05
1.30433e-05
1.33075e-05
1.35865e-05
1.3891e-05
1.4219e-05
1.45644e-05
1.49187e-05
1.5273e-05
1.56189e-05
1.59496e-05
1.62594e-05
1.65441e-05
1.67985e-05
1.70228e-05
1.6487e-05
1.6439e-05
1.63862e-05
1.63273e-05
1.62592e-05
1.61772e-05
1.60752e-05
1.59447e-05
1.57763e-05
1.55615e-05
1.52934e-05
1.49766e-05
1.46192e-05
1.42284e-05
1.38116e-05
1.33807e-05
1.29594e-05
1.25909e-05
1.22834e-05
1.20121e-05
1.17629e-05
1.1534e-05
1.13304e-05
1.11572e-05
1.10148e-05
1.08968e-05
1.07965e-05
1.07104e-05
1.06377e-05
1.05783e-05
1.05313e-05
1.04941e-05
1.04642e-05
1.04399e-05
1.04204e-05
1.0405e-05
1.03929e-05
1.03835e-05
1.0376e-05
1.037e-05
1.03653e-05
1.03618e-05
1.03591e-05
1.0357e-05
1.03555e-05
1.03543e-05
1.03534e-05
1.03528e-05
1.03523e-05
1.03519e-05
1.03516e-05
1.03515e-05
1.03513e-05
1.03512e-05
1.03512e-05
1.03511e-05
1.03511e-05
1.03511e-05
1.0351e-05
1.0351e-05
1.0351e-05
1.0351e-05
1.0351e-05
1.0351e-05
1.0351e-05
1.0351e-05
1.0351e-05
1.0351e-05
1.0351e-05
1.0351e-05
1.0351e-05
1.0351e-05
1.0351e-05
1.0351e-05
1.0351e-05
1.0351e-05
1.0351e-05
1.0351e-05
1.0351e-05
1.0351e-05
1.0351e-05
1.0351e-05
1.0351e-05
1.0351e-05
1.0351e-05
1.0351e-05
1.0351e-05
1.0351e-05
1.0351e-05
1.0351e-05
1.0351e-05
1.0351e-05
1.0351e-05
1.0351e-05
1.0351e-05
1.0351e-05
1.0351e-05
1.0351e-05
1.0351e-05
1.0351e-05
1.0351e-05
1.0351e-05
1.0351e-05
1.0351e-05
1.0351e-05
1.0351e-05
1.0351e-05
1.0351e-05
1.0351e-05
1.0351e-05
1.0351e-05
1.0351e-05
1.0351e-05
1.0351e-05
1.0351e-05
1.0351e-05
1.0351e-05
1.0351e-05
1.0351e-05
1.0351e-05
1.0351e-05
1.0351e-05
1.0351e-05
1.0351e-05
1.0351e-05
1.0351e-05
1.0351e-05
1.0351e-05
1.0351e-05
1.0351e-05
1.0351e-05
1.0351e-05
1.0351e-05
1.0351e-05
1.0351e-05
1.0351e-05
1.0351e-05
1.0351e-05
1.0351e-05
1.0351e-05
1.0351e-05
1.0351e-05
1.0351e-05
1.0351e-05
1.0351e-05
1.0351e-05
1.0351e-05
1.0351e-05
1.0351e-05
1.0351e-05
1.0351e-05
1.0351e-05
1.0351e-05
1.03511e-05
1.03511e-05
1.03511e-05
1.03511e-05
1.03511e-05
1.03511e-05
1.03511e-05
1.03511e-05
1.03511e-05
1.03511e-05
1.03511e-05
1.03511e-05
1.03511e-05
1.03511e-05
1.03511e-05
1.03511e-05
1.03511e-05
1.03511e-05
1.03511e-05
1.03511e-05
1.03511e-05
1.03511e-05
1.03511e-05
1.03511e-05
1.03511e-05
1.03511e-05
1.03511e-05
1.03511e-05
1.03511e-05
1.03511e-05
1.03512e-05
1.03512e-05
1.03512e-05
1.03512e-05
1.03512e-05
1.03512e-05
1.03512e-05
1.03512e-05
1.03512e-05
1.03512e-05
1.52482e-05
1.56231e-05
1.59848e-05
1.63261e-05
1.66405e-05
1.69223e-05
1.71707e-05
1.7387e-05
1.75732e-05
1.7732e-05
1.78665e-05
1.79797e-05
1.80743e-05
1.81525e-05
1.82164e-05
1.67356e-05
1.67197e-05
1.67042e-05
1.66883e-05
1.66706e-05
1.66496e-05
1.66241e-05
1.65929e-05
1.65555e-05
1.6513e-05
1.64636e-05
1.64039e-05
1.63279e-05
1.62273e-05
1.60931e-05
1.59172e-05
1.56918e-05
1.54081e-05
1.50673e-05
1.4678e-05
1.42487e-05
1.37896e-05
1.33193e-05
1.28723e-05
1.24967e-05
1.21813e-05
1.19001e-05
1.16434e-05
1.14136e-05
1.12166e-05
1.10549e-05
1.09231e-05
1.08129e-05
1.07193e-05
1.0641e-05
1.05776e-05
1.0528e-05
1.04893e-05
1.04585e-05
1.04339e-05
1.04145e-05
1.03994e-05
1.03878e-05
1.03788e-05
1.03717e-05
1.03663e-05
1.03622e-05
1.03592e-05
1.0357e-05
1.03553e-05
1.03541e-05
1.03532e-05
1.03526e-05
1.03521e-05
1.03518e-05
1.03516e-05
1.03514e-05
1.03513e-05
1.03512e-05
1.03512e-05
1.03511e-05
1.03511e-05
1.03511e-05
1.03511e-05
1.0351e-05
1.0351e-05
1.0351e-05
1.0351e-05
1.0351e-05
1.0351e-05
1.0351e-05
1.0351e-05
1.0351e-05
1.0351e-05
1.0351e-05
1.0351e-05
1.0351e-05
1.0351e-05
1.0351e-05
1.0351e-05
1.0351e-05
1.0351e-05
1.0351e-05
1.0351e-05
1.0351e-05
1.0351e-05
1.0351e-05
1.0351e-05
1.0351e-05
1.0351e-05
1.0351e-05
1.0351e-05
1.0351e-05
1.0351e-05
1.0351e-05
1.0351e-05
1.0351e-05
1.0351e-05
1.0351e-05
1.0351e-05
1.0351e-05
1.0351e-05
1.0351e-05
1.0351e-05
1.0351e-05
1.0351e-05
1.0351e-05
1.0351e-05
1.0351e-05
1.0351e-05
1.0351e-05
1.0351e-05
1.0351e-05
1.0351e-05
1.0351e-05
1.0351e-05
1.0351e-05
1.03511e-05
1.03511e-05
1.03511e-05
1.03511e-05
1.03511e-05
1.03511e-05
1.03511e-05
1.03511e-05
1.03511e-05
1.03511e-05
1.03511e-05
1.03511e-05
1.03511e-05
1.03511e-05
1.03511e-05
1.03511e-05
1.03511e-05
1.03511e-05
1.03511e-05
1.03511e-05
1.03511e-05
1.03511e-05
1.03511e-05
1.03511e-05
1.03511e-05
1.03511e-05
1.03511e-05
1.03511e-05
1.03511e-05
1.03511e-05
1.03511e-05
1.03512e-05
1.03512e-05
1.03512e-05
1.03512e-05
1.03512e-05
1.03512e-05
1.03512e-05
1.03512e-05
1.03512e-05
1.03512e-05
1.03512e-05
1.03512e-05
1.03512e-05
1.03512e-05
1.03513e-05
1.03513e-05
1.03513e-05
1.03513e-05
1.03513e-05
1.03513e-05
1.03513e-05
1.03513e-05
1.03513e-05
1.03514e-05
1.03514e-05
1.03514e-05
1.03514e-05
1.03514e-05
1.03514e-05
1.03515e-05
1.03515e-05
1.03515e-05
1.03515e-05
1.03515e-05
1.03516e-05
1.03516e-05
1.03516e-05
1.03516e-05
1.03516e-05
1.03517e-05
1.03517e-05
1.03517e-05
1.03518e-05
1.03518e-05
1.03517e-05
1.75777e-05
1.77684e-05
1.79298e-05
1.80653e-05
1.81783e-05
1.82717e-05
1.8348e-05
1.84096e-05
1.84584e-05
1.84963e-05
1.85247e-05
1.85461e-05
1.85625e-05
1.85757e-05
1.85867e-05
1.85956e-05
1.68696e-05
1.68561e-05
1.68428e-05
1.68287e-05
1.68139e-05
1.67987e-05
1.67837e-05
1.67725e-05
1.67655e-05
1.67556e-05
1.67423e-05
1.67285e-05
1.67123e-05
1.6691e-05
1.66639e-05
1.66326e-05
1.65967e-05
1.65533e-05
1.64967e-05
1.64174e-05
1.63043e-05
1.61488e-05
1.5944e-05
1.56825e-05
1.53568e-05
1.49707e-05
1.45325e-05
1.40526e-05
1.3549e-05
1.30549e-05
1.26237e-05
1.22704e-05
1.19627e-05
1.16846e-05
1.14366e-05
1.12247e-05
1.10519e-05
1.09125e-05
1.07969e-05
1.07e-05
1.06204e-05
1.05575e-05
1.05092e-05
1.04718e-05
1.04426e-05
1.04197e-05
1.04023e-05
1.03891e-05
1.03791e-05
1.03715e-05
1.03658e-05
1.03616e-05
1.03586e-05
1.03565e-05
1.03549e-05
1.03538e-05
1.0353e-05
1.03525e-05
1.0352e-05
1.03518e-05
1.03516e-05
1.03514e-05
1.03513e-05
1.03512e-05
1.03512e-05
1.03512e-05
1.03511e-05
1.03511e-05
1.03511e-05
1.03511e-05
1.03511e-05
1.03511e-05
1.03511e-05
1.03511e-05
1.03511e-05
1.03511e-05
1.03511e-05
1.03511e-05
1.03511e-05
1.03511e-05
1.03511e-05
1.03511e-05
1.03511e-05
1.03511e-05
1.03511e-05
1.03511e-05
1.03511e-05
1.03511e-05
1.03511e-05
1.03511e-05
1.03511e-05
1.03511e-05
1.03511e-05
1.03511e-05
1.03511e-05
1.03511e-05
1.03511e-05
1.03511e-05
1.03511e-05
1.03511e-05
1.03511e-05
1.03511e-05
1.03511e-05
1.03511e-05
1.03511e-05
1.03511e-05
1.03511e-05
1.03511e-05
1.03511e-05
1.03511e-05
1.03511e-05
1.03511e-05
1.03511e-05
1.03511e-05
1.03511e-05
1.03512e-05
1.03512e-05
1.03512e-05
1.03512e-05
1.03512e-05
1.03512e-05
1.03512e-05
1.03512e-05
1.03512e-05
1.03512e-05
1.03512e-05
1.03512e-05
1.03512e-05
1.03512e-05
1.03512e-05
1.03513e-05
1.03513e-05
1.03513e-05
1.03513e-05
1.03513e-05
1.03513e-05
1.03513e-05
1.03513e-05
1.03514e-05
1.03514e-05
1.03514e-05
1.03514e-05
1.03514e-05
1.03514e-05
1.03514e-05
1.03515e-05
1.03515e-05
1.03515e-05
1.03515e-05
1.03515e-05
1.03516e-05
1.03516e-05
1.03516e-05
1.03516e-05
1.03517e-05
1.03517e-05
1.03517e-05
1.03517e-05
1.03518e-05
1.03518e-05
1.03518e-05
1.03519e-05
1.03519e-05
1.03519e-05
1.0352e-05
1.0352e-05
1.03521e-05
1.03521e-05
1.03522e-05
1.03522e-05
1.03523e-05
1.03523e-05
1.03524e-05
1.03524e-05
1.03525e-05
1.03525e-05
1.03526e-05
1.03527e-05
1.03528e-05
1.03528e-05
1.03529e-05
1.0353e-05
1.03531e-05
1.03531e-05
1.03532e-05
1.03533e-05
1.03534e-05
1.03535e-05
1.03537e-05
1.03538e-05
1.03539e-05
1.0354e-05
1.03539e-05
1.86026e-05
1.86429e-05
1.86733e-05
1.86962e-05
1.87143e-05
1.87289e-05
1.87408e-05
1.87505e-05
1.87577e-05
1.87623e-05
1.87628e-05
1.87611e-05
1.87575e-05
1.69717e-05
1.6958e-05
1.69442e-05
1.69306e-05
1.69168e-05
1.69025e-05
1.68894e-05
1.688e-05
1.6873e-05
1.68645e-05
1.68553e-05
1.68463e-05
1.68381e-05
1.68308e-05
1.68259e-05
1.68233e-05
1.68172e-05
1.68104e-05
1.68029e-05
1.67922e-05
1.67769e-05
1.67578e-05
1.67337e-05
1.67017e-05
1.66559e-05
1.65867e-05
1.64826e-05
1.63348e-05
1.61365e-05
1.58802e-05
1.55552e-05
1.51587e-05
1.46986e-05
1.41874e-05
1.36465e-05
1.3113e-05
1.2645e-05
1.22651e-05
1.19368e-05
1.16428e-05
1.13846e-05
1.11683e-05
1.09952e-05
1.0856e-05
1.07413e-05
1.06475e-05
1.05735e-05
1.05176e-05
1.04755e-05
1.04433e-05
1.04189e-05
1.04006e-05
1.03871e-05
1.03771e-05
1.03698e-05
1.03644e-05
1.03606e-05
1.03579e-05
1.0356e-05
1.03547e-05
1.03537e-05
1.0353e-05
1.03525e-05
1.03521e-05
1.03519e-05
1.03517e-05
1.03515e-05
1.03514e-05
1.03514e-05
1.03513e-05
1.03513e-05
1.03512e-05
1.03512e-05
1.03512e-05
1.03512e-05
1.03512e-05
1.03512e-05
1.03512e-05
1.03512e-05
1.03512e-05
1.03512e-05
1.03512e-05
1.03512e-05
1.03512e-05
1.03512e-05
1.03512e-05
1.03512e-05
1.03512e-05
1.03512e-05
1.03512e-05
1.03512e-05
1.03512e-05
1.03513e-05
1.03513e-05
1.03513e-05
1.03513e-05
1.03513e-05
1.03513e-05
1.03513e-05
1.03513e-05
1.03513e-05
1.03513e-05
1.03513e-05
1.03513e-05
1.03513e-05
1.03514e-05
1.03514e-05
1.03514e-05
1.03514e-05
1.03514e-05
1.03514e-05
1.03514e-05
1.03514e-05
1.03515e-05
1.03515e-05
1.03515e-05
1.03515e-05
1.03515e-05
1.03515e-05
1.03516e-05
1.03516e-05
1.03516e-05
1.03516e-05
1.03516e-05
1.03517e-05
1.03517e-05
1.03517e-05
1.03517e-05
1.03518e-05
1.03518e-05
1.03518e-05
1.03519e-05
1.03519e-05
1.03519e-05
1.0352e-05
1.0352e-05
1.03521e-05
1.03521e-05
1.03522e-05
1.03522e-05
1.03523e-05
1.03523e-05
1.03524e-05
1.03524e-05
1.03525e-05
1.03525e-05
1.03526e-05
1.03527e-05
1.03527e-05
1.03528e-05
1.03529e-05
1.0353e-05
1.03531e-05
1.03532e-05
1.03532e-05
1.03533e-05
1.03534e-05
1.03535e-05
1.03537e-05
1.03538e-05
1.03539e-05
1.0354e-05
1.03542e-05
1.03543e-05
1.03544e-05
1.03546e-05
1.03547e-05
1.03549e-05
1.03551e-05
1.03553e-05
1.03555e-05
1.03557e-05
1.03559e-05
1.03561e-05
1.03563e-05
1.03565e-05
1.03568e-05
1.0357e-05
1.03573e-05
1.03576e-05
1.03579e-05
1.03582e-05
1.03585e-05
1.03588e-05
1.03592e-05
1.03596e-05
1.036e-05
1.03604e-05
1.03608e-05
1.03612e-05
1.03617e-05
1.03622e-05
1.03618e-05
1.88983e-05
1.89036e-05
1.89046e-05
1.89033e-05
1.89002e-05
1.8896e-05
1.88915e-05
1.88874e-05
1.88829e-05
1.88794e-05
1.88767e-05
1.88738e-05
1.88697e-05
1.70656e-05
1.70501e-05
1.70348e-05
1.70199e-05
1.70054e-05
1.69909e-05
1.69775e-05
1.69666e-05
1.69574e-05
1.69496e-05
1.69425e-05
1.69356e-05
1.69289e-05
1.69229e-05
1.69189e-05
1.69152e-05
1.69112e-05
1.69086e-05
1.69086e-05
1.69098e-05
1.69132e-05
1.69185e-05
1.69197e-05
1.69205e-05
1.69204e-05
1.69184e-05
1.69136e-05
1.69048e-05
1.68898e-05
1.68644e-05
1.68213e-05
1.67511e-05
1.66438e-05
1.64907e-05
1.62835e-05
1.60118e-05
1.56617e-05
1.52281e-05
1.47211e-05
1.41579e-05
1.35678e-05
1.30004e-05
1.25234e-05
1.21336e-05
1.17939e-05
1.14948e-05
1.12418e-05
1.10391e-05
1.08799e-05
1.0752e-05
1.06495e-05
1.05704e-05
1.0512e-05
1.04692e-05
1.04373e-05
1.04137e-05
1.03965e-05
1.03841e-05
1.0375e-05
1.03684e-05
1.03637e-05
1.03604e-05
1.0358e-05
1.03563e-05
1.0355e-05
1.03541e-05
1.03534e-05
1.03529e-05
1.03525e-05
1.03523e-05
1.03521e-05
1.03519e-05
1.03518e-05
1.03517e-05
1.03517e-05
1.03517e-05
1.03516e-05
1.03516e-05
1.03516e-05
1.03516e-05
1.03516e-05
1.03516e-05
1.03516e-05
1.03516e-05
1.03516e-05
1.03516e-05
1.03517e-05
1.03517e-05
1.03517e-05
1.03517e-05
1.03517e-05
1.03517e-05
1.03518e-05
1.03518e-05
1.03518e-05
1.03518e-05
1.03519e-05
1.03519e-05
1.03519e-05
1.03519e-05
1.0352e-05
1.0352e-05
1.0352e-05
1.03521e-05
1.03521e-05
1.03521e-05
1.03522e-05
1.03522e-05
1.03522e-05
1.03523e-05
1.03523e-05
1.03523e-05
1.03524e-05
1.03524e-05
1.03525e-05
1.03525e-05
1.03526e-05
1.03526e-05
1.03527e-05
1.03527e-05
1.03528e-05
1.03529e-05
1.0353e-05
1.0353e-05
1.03531e-05
1.03532e-05
1.03533e-05
1.03534e-05
1.03535e-05
1.03536e-05
1.03537e-05
1.03538e-05
1.03539e-05
1.0354e-05
1.03542e-05
1.03543e-05
1.03545e-05
1.03546e-05
1.03548e-05
1.03549e-05
1.03551e-05
1.03553e-05
1.03555e-05
1.03557e-05
1.03559e-05
1.03561e-05
1.03563e-05
1.03565e-05
1.03568e-05
1.0357e-05
1.03573e-05
1.03576e-05
1.03579e-05
1.03582e-05
1.03585e-05
1.03589e-05
1.03592e-05
1.03596e-05
1.036e-05
1.03604e-05
1.03608e-05
1.03612e-05
1.03617e-05
1.03622e-05
1.03627e-05
1.03633e-05
1.03638e-05
1.03644e-05
1.03651e-05
1.03658e-05
1.03665e-05
1.03672e-05
1.0368e-05
1.03688e-05
1.03696e-05
1.03705e-05
1.03714e-05
1.03724e-05
1.03734e-05
1.03745e-05
1.03755e-05
1.03767e-05
1.03779e-05
1.03791e-05
1.03804e-05
1.03817e-05
1.03832e-05
1.03847e-05
1.03863e-05
1.0388e-05
1.03898e-05
1.03918e-05
1.03905e-05
1.90284e-05
1.90243e-05
1.90211e-05
1.90184e-05
1.90155e-05
1.9011e-05
1.90049e-05
1.89976e-05
1.89894e-05
1.89808e-05
1.89729e-05
1.89663e-05
1.89607e-05
1.89555e-05
1.71634e-05
1.71457e-05
1.71285e-05
1.71117e-05
1.70952e-05
1.70794e-05
1.70647e-05
1.70517e-05
1.70406e-05
1.70313e-05
1.70232e-05
1.70156e-05
1.70082e-05
1.70014e-05
1.69957e-05
1.69911e-05
1.69877e-05
1.69863e-05
1.69865e-05
1.69879e-05
1.69911e-05
1.69948e-05
1.69986e-05
1.70037e-05
1.7011e-05
1.70207e-05
1.70336e-05
1.70454e-05
1.70548e-05
1.70633e-05
1.7071e-05
1.70772e-05
1.70783e-05
1.70754e-05
1.70637e-05
1.70363e-05
1.69861e-05
1.69044e-05
1.67809e-05
1.6605e-05
1.63649e-05
1.60453e-05
1.56301e-05
1.51197e-05
1.45299e-05
1.3889e-05
1.32474e-05
1.2683e-05
1.22339e-05
1.18541e-05
1.15248e-05
1.12492e-05
1.10319e-05
1.08645e-05
1.07331e-05
1.0631e-05
1.0555e-05
1.05004e-05
1.0461e-05
1.0432e-05
1.04107e-05
1.03953e-05
1.0384e-05
1.03757e-05
1.03696e-05
1.03651e-05
1.03619e-05
1.03595e-05
1.03578e-05
1.03565e-05
1.03555e-05
1.03548e-05
1.03542e-05
1.03538e-05
1.03535e-05
1.03533e-05
1.03531e-05
1.0353e-05
1.03529e-05
1.03529e-05
1.03528e-05
1.03528e-05
1.03528e-05
1.03528e-05
1.03529e-05
1.03529e-05
1.0353e-05
1.0353e-05
1.03531e-05
1.03531e-05
1.03532e-05
1.03532e-05
1.03533e-05
1.03534e-05
1.03535e-05
1.03535e-05
1.03536e-05
1.03537e-05
1.03538e-05
1.03539e-05
1.03539e-05
1.0354e-05
1.03541e-05
1.03542e-05
1.03543e-05
1.03544e-05
1.03545e-05
1.03546e-05
1.03548e-05
1.03549e-05
1.0355e-05
1.03551e-05
1.03553e-05
1.03554e-05
1.03556e-05
1.03557e-05
1.03559e-05
1.03561e-05
1.03563e-05
1.03565e-05
1.03567e-05
1.03569e-05
1.03571e-05
1.03574e-05
1.03576e-05
1.03579e-05
1.03582e-05
1.03585e-05
1.03588e-05
1.03591e-05
1.03595e-05
1.03599e-05
1.03603e-05
1.03607e-05
1.03611e-05
1.03616e-05
1.0362e-05
1.03625e-05
1.0363e-05
1.03636e-05
1.03641e-05
1.03647e-05
1.03653e-05
1.0366e-05
1.03667e-05
1.03674e-05
1.03681e-05
1.03689e-05
1.03697e-05
1.03706e-05
1.03715e-05
1.03725e-05
1.03735e-05
1.03746e-05
1.03758e-05
1.03769e-05
1.03782e-05
1.03795e-05
1.03808e-05
1.03822e-05
1.03837e-05
1.03853e-05
1.03869e-05
1.03886e-05
1.03904e-05
1.03922e-05
1.03942e-05
1.03963e-05
1.03984e-05
1.04008e-05
1.04032e-05
1.04058e-05
1.04086e-05
1.04115e-05
1.04145e-05
1.04177e-05
1.0421e-05
1.04244e-05
1.0428e-05
1.04317e-05
1.04356e-05
1.04397e-05
1.04439e-05
1.04484e-05
1.04531e-05
1.04581e-05
1.04633e-05
1.04688e-05
1.04746e-05
1.04807e-05
1.04872e-05
1.04949e-05
1.04911e-05
1.91308e-05
1.91221e-05
1.9114e-05
1.91071e-05
1.91011e-05
1.90951e-05
1.90885e-05
1.90811e-05
1.90729e-05
1.90641e-05
1.90552e-05
1.90468e-05
1.90396e-05
1.90335e-05
1.72648e-05
1.72453e-05
1.72264e-05
1.7208e-05
1.71902e-05
1.71732e-05
1.71573e-05
1.71428e-05
1.71298e-05
1.71181e-05
1.71076e-05
1.70978e-05
1.70885e-05
1.70799e-05
1.70723e-05
1.7066e-05
1.70611e-05
1.70577e-05
1.70558e-05
1.70558e-05
1.70569e-05
1.70592e-05
1.70629e-05
1.70681e-05
1.70751e-05
1.70844e-05
1.70954e-05
1.7107e-05
1.71197e-05
1.71342e-05
1.71511e-05
1.71705e-05
1.719e-05
1.72073e-05
1.72238e-05
1.72401e-05
1.72563e-05
1.72686e-05
1.72725e-05
1.72699e-05
1.72559e-05
1.7221e-05
1.71559e-05
1.7049e-05
1.68869e-05
1.6655e-05
1.63355e-05
1.59089e-05
1.53677e-05
1.47289e-05
1.40266e-05
1.33218e-05
1.27058e-05
1.22238e-05
1.1823e-05
1.14829e-05
1.12066e-05
1.09954e-05
1.08355e-05
1.07119e-05
1.06178e-05
1.05491e-05
1.04997e-05
1.04636e-05
1.04364e-05
1.04161e-05
1.04011e-05
1.03899e-05
1.03814e-05
1.0375e-05
1.03703e-05
1.03668e-05
1.03642e-05
1.03622e-05
1.03607e-05
1.03596e-05
1.03587e-05
1.03581e-05
1.03576e-05
1.03572e-05
1.0357e-05
1.03568e-05
1.03567e-05
1.03567e-05
1.03567e-05
1.03568e-05
1.03568e-05
1.0357e-05
1.03571e-05
1.03573e-05
1.03575e-05
1.03577e-05
1.03579e-05
1.03581e-05
1.03583e-05
1.03586e-05
1.03588e-05
1.03591e-05
1.03593e-05
1.03596e-05
1.03599e-05
1.03601e-05
1.03604e-05
1.03607e-05
1.0361e-05
1.03614e-05
1.03617e-05
1.03621e-05
1.03624e-05
1.03628e-05
1.03632e-05
1.03636e-05
1.03641e-05
1.03645e-05
1.0365e-05
1.03655e-05
1.0366e-05
1.03666e-05
1.03672e-05
1.03678e-05
1.03684e-05
1.03691e-05
1.03698e-05
1.03706e-05
1.03714e-05
1.03722e-05
1.03731e-05
1.03741e-05
1.03751e-05
1.03761e-05
1.03773e-05
1.03785e-05
1.03797e-05
1.03811e-05
1.03825e-05
1.0384e-05
1.03855e-05
1.03872e-05
1.03889e-05
1.03907e-05
1.03925e-05
1.03944e-05
1.03964e-05
1.03985e-05
1.04007e-05
1.0403e-05
1.04055e-05
1.0408e-05
1.04107e-05
1.04135e-05
1.04165e-05
1.04197e-05
1.04231e-05
1.04266e-05
1.04303e-05
1.04343e-05
1.04384e-05
1.04427e-05
1.04473e-05
1.0452e-05
1.04569e-05
1.04621e-05
1.04674e-05
1.0473e-05
1.04789e-05
1.04851e-05
1.04917e-05
1.04987e-05
1.05061e-05
1.05139e-05
1.05222e-05
1.0531e-05
1.05402e-05
1.055e-05
1.05603e-05
1.05712e-05
1.05827e-05
1.05949e-05
1.06077e-05
1.06211e-05
1.0635e-05
1.06494e-05
1.06641e-05
1.06791e-05
1.06946e-05
1.07106e-05
1.07272e-05
1.07447e-05
1.07631e-05
1.07828e-05
1.08035e-05
1.08299e-05
1.08222e-05
1.92126e-05
1.92033e-05
1.91939e-05
1.91851e-05
1.91776e-05
1.91711e-05
1.91652e-05
1.91596e-05
1.91537e-05
1.91473e-05
1.91407e-05
1.91338e-05
1.91273e-05
1.91215e-05
1.73693e-05
1.73485e-05
1.73283e-05
1.73088e-05
1.729e-05
1.7272e-05
1.7255e-05
1.7239e-05
1.72242e-05
1.72104e-05
1.71976e-05
1.71855e-05
1.71742e-05
1.71637e-05
1.7154e-05
1.71453e-05
1.71377e-05
1.71315e-05
1.71268e-05
1.71237e-05
1.71223e-05
1.71225e-05
1.71238e-05
1.71267e-05
1.71314e-05
1.71379e-05
1.71464e-05
1.71569e-05
1.71692e-05
1.71835e-05
1.71999e-05
1.72179e-05
1.72373e-05
1.72578e-05
1.728e-05
1.73044e-05
1.73311e-05
1.7358e-05
1.73814e-05
1.74044e-05
1.74276e-05
1.74502e-05
1.74706e-05
1.74841e-05
1.74861e-05
1.74793e-05
1.74532e-05
1.73956e-05
1.72931e-05
1.71286e-05
1.68836e-05
1.65366e-05
1.60651e-05
1.54625e-05
1.47539e-05
1.39885e-05
1.32476e-05
1.26331e-05
1.2161e-05
1.17713e-05
1.14463e-05
1.11881e-05
1.09932e-05
1.08452e-05
1.07291e-05
1.0639e-05
1.05717e-05
1.05223e-05
1.04856e-05
1.04576e-05
1.0436e-05
1.04196e-05
1.04073e-05
1.0398e-05
1.03907e-05
1.0385e-05
1.03806e-05
1.03772e-05
1.03746e-05
1.03726e-05
1.03712e-05
1.03701e-05
1.03693e-05
1.03688e-05
1.03686e-05
1.03685e-05
1.03686e-05
1.03688e-05
1.03691e-05
1.03695e-05
1.037e-05
1.03705e-05
1.03711e-05
1.03717e-05
1.03724e-05
1.03731e-05
1.03739e-05
1.03746e-05
1.03754e-05
1.03762e-05
1.03771e-05
1.0378e-05
1.03788e-05
1.03798e-05
1.03807e-05
1.03817e-05
1.03828e-05
1.03838e-05
1.0385e-05
1.03861e-05
1.03874e-05
1.03887e-05
1.03901e-05
1.03915e-05
1.0393e-05
1.03946e-05
1.03963e-05
1.0398e-05
1.03998e-05
1.04018e-05
1.04038e-05
1.04059e-05
1.04081e-05
1.04104e-05
1.04129e-05
1.04154e-05
1.04182e-05
1.04211e-05
1.04242e-05
1.04274e-05
1.04309e-05
1.04345e-05
1.04384e-05
1.04426e-05
1.0447e-05
1.04516e-05
1.04564e-05
1.04615e-05
1.04669e-05
1.04725e-05
1.04783e-05
1.04844e-05
1.04907e-05
1.04972e-05
1.05041e-05
1.05113e-05
1.05188e-05
1.05267e-05
1.05351e-05
1.05439e-05
1.05532e-05
1.05632e-05
1.05737e-05
1.05849e-05
1.05968e-05
1.06093e-05
1.06225e-05
1.06365e-05
1.06511e-05
1.06664e-05
1.06823e-05
1.06987e-05
1.07158e-05
1.07335e-05
1.07519e-05
1.0771e-05
1.07909e-05
1.08117e-05
1.08334e-05
1.08562e-05
1.08802e-05
1.09057e-05
1.09328e-05
1.09616e-05
1.09923e-05
1.10249e-05
1.10594e-05
1.10956e-05
1.11335e-05
1.11728e-05
1.12135e-05
1.12552e-05
1.12979e-05
1.13415e-05
1.1386e-05
1.14318e-05
1.14789e-05
1.15277e-05
1.15777e-05
1.16303e-05
1.16828e-05
1.17516e-05
1.17482e-05
1.92912e-05
1.92843e-05
1.92771e-05
1.92699e-05
1.92629e-05
1.92567e-05
1.92513e-05
1.92466e-05
1.92421e-05
1.92377e-05
1.92331e-05
1.92283e-05
1.92234e-05
1.74761e-05
1.74543e-05
1.74333e-05
1.7413e-05
1.73933e-05
1.73744e-05
1.73563e-05
1.73389e-05
1.73224e-05
1.73067e-05
1.72918e-05
1.72777e-05
1.72643e-05
1.72517e-05
1.72398e-05
1.72287e-05
1.72185e-05
1.72096e-05
1.72019e-05
1.71957e-05
1.71909e-05
1.71875e-05
1.71857e-05
1.71858e-05
1.71871e-05
1.71903e-05
1.71956e-05
1.72031e-05
1.72127e-05
1.72243e-05
1.72377e-05
1.72531e-05
1.72706e-05
1.72901e-05
1.73116e-05
1.73349e-05
1.73591e-05
1.73844e-05
1.74106e-05
1.74383e-05
1.74678e-05
1.74993e-05
1.75324e-05
1.75645e-05
1.75928e-05
1.76217e-05
1.76524e-05
1.7683e-05
1.7708e-05
1.77188e-05
1.77159e-05
1.76938e-05
1.76345e-05
1.75202e-05
1.733e-05
1.70436e-05
1.66407e-05
1.61054e-05
1.54457e-05
1.47005e-05
1.39292e-05
1.32136e-05
1.26376e-05
1.21985e-05
1.18328e-05
1.15234e-05
1.1272e-05
1.10774e-05
1.09289e-05
1.08112e-05
1.07169e-05
1.06435e-05
1.05879e-05
1.05464e-05
1.05147e-05
1.04897e-05
1.04697e-05
1.04537e-05
1.04411e-05
1.04313e-05
1.04235e-05
1.04176e-05
1.0413e-05
1.04095e-05
1.0407e-05
1.04054e-05
1.04045e-05
1.04043e-05
1.04044e-05
1.04051e-05
1.04061e-05
1.04074e-05
1.04089e-05
1.04107e-05
1.04126e-05
1.04147e-05
1.04169e-05
1.04192e-05
1.04216e-05
1.0424e-05
1.04266e-05
1.04292e-05
1.04319e-05
1.04346e-05
1.04375e-05
1.04405e-05
1.04436e-05
1.04468e-05
1.04502e-05
1.04537e-05
1.04573e-05
1.04612e-05
1.04652e-05
1.04695e-05
1.0474e-05
1.04787e-05
1.04837e-05
1.04889e-05
1.04944e-05
1.05002e-05
1.05062e-05
1.05124e-05
1.0519e-05
1.05259e-05
1.05331e-05
1.05407e-05
1.05488e-05
1.05573e-05
1.05662e-05
1.05758e-05
1.05859e-05
1.05966e-05
1.0608e-05
1.06201e-05
1.0633e-05
1.06467e-05
1.06613e-05
1.06766e-05
1.06928e-05
1.07097e-05
1.07273e-05
1.07455e-05
1.07642e-05
1.07836e-05
1.08036e-05
1.08243e-05
1.08457e-05
1.08681e-05
1.08914e-05
1.09158e-05
1.09415e-05
1.09685e-05
1.0997e-05
1.10271e-05
1.1059e-05
1.10928e-05
1.11285e-05
1.11662e-05
1.1206e-05
1.12476e-05
1.12909e-05
1.13357e-05
1.13815e-05
1.1428e-05
1.14755e-05
1.1524e-05
1.15739e-05
1.16253e-05
1.16786e-05
1.17341e-05
1.17919e-05
1.18521e-05
1.19146e-05
1.19793e-05
1.20463e-05
1.21157e-05
1.21883e-05
1.22649e-05
1.23465e-05
1.24336e-05
1.25263e-05
1.26235e-05
1.2721e-05
1.28168e-05
1.29082e-05
1.29951e-05
1.30755e-05
1.31519e-05
1.32223e-05
1.3291e-05