/*--------------------------------*- C++ -*----------------------------------*\
| =========                 |                                                 |
| \\      /  F ield         | OpenFOAM: The Open Source CFD Toolbox           |
|  \\    /   O peration     | Version:  v1706                                 |
|   \\  /    A nd           | Web:      www.OpenFOAM.com                      |
|    \\/     M anipulation  |                                                 |
\*---------------------------------------------------------------------------*/
FoamFile
{
    version     2.0;
    format      ascii;
    class       volScalarField;
    location    "3.3e-05";
    object      rho;
}
// * * * * * * * * * * * * * * * * * * * * * * * * * * * * * * * * * * * * * //

dimensions      [1 -3 0 0 0 0 0];


internalField   nonuniform List<scalar> 
30104
(
0.000512453
0.000512609
0.000512792
0.000513005
0.000513257
0.000513554
0.000513901
0.000514297
0.000514738
0.000515217
0.000515723
0.000516247
0.000516789
0.000517352
0.000517963
0.00051867
0.000519531
0.000526897
0.00052583
0.000524569
0.000523193
0.000521767
0.000520341
0.000518919
0.000517478
0.0005161
0.000514978
0.000514193
0.000513662
0.000513265
0.00051294
0.00051268
0.000512487
0.000512336
0.0005122
0.00051207
0.000511946
0.000511827
0.000511713
0.00051161
0.000511528
0.000511471
0.000511433
0.000511407
0.000511389
0.000511375
0.000511365
0.000511356
0.000511348
0.00051134
0.000511332
0.000511325
0.00051132
0.000511317
0.000511315
0.000511314
0.000511313
0.000511312
0.000511312
0.000511311
0.000511311
0.00051131
0.00051131
0.00051131
0.00051131
0.00051131
0.000511309
0.000511309
0.000511309
0.000511309
0.000511309
0.000511309
0.000511309
0.000511309
0.000511309
0.000511309
0.000511309
0.000511309
0.000511309
0.000511309
0.000511309
0.000511309
0.000511309
0.000511309
0.000511309
0.000511309
0.000511309
0.000511309
0.000511309
0.000511309
0.000511309
0.000511309
0.000511309
0.000511309
0.000511309
0.000511309
0.000511309
0.000511309
0.000511309
0.000511309
0.000511309
0.000511309
0.000511309
0.000511309
0.000511309
0.000511309
0.000511309
0.000511309
0.000511309
0.000511309
0.000511309
0.000511309
0.000511309
0.000511309
0.000511309
0.000511309
0.000511309
0.000511309
0.000511309
0.000511309
0.000511309
0.000511309
0.000511309
0.000511309
0.000511309
0.000511309
0.000511309
0.000511309
0.000511309
0.000511309
0.000511309
0.000511309
0.000511309
0.000511309
0.000511309
0.000511309
0.000511309
0.000511309
0.000511309
0.000511309
0.000511309
0.000511309
0.000511309
0.000511309
0.000511309
0.000511309
0.000511309
0.000511309
0.000511309
0.000511309
0.000511309
0.000511309
0.000511309
0.000511309
0.000511309
0.000511309
0.000511309
0.000511309
0.000511309
0.000511309
0.000511309
0.000511309
0.000511309
0.000511309
0.000511309
0.000511309
0.000511309
0.000511309
0.000511309
0.000511309
0.000511309
0.000511309
0.000511309
0.000511309
0.000511309
0.000511309
0.000511309
0.000511309
0.000511309
0.000511309
0.000511309
0.000511309
0.000511309
0.000511309
0.000511309
0.000511309
0.000511309
0.000511309
0.000511309
0.000511309
0.000511309
0.000511309
0.000511309
0.000511309
0.000511309
0.000511309
0.000511309
0.000511309
0.000511309
0.000511309
0.000511309
0.000511309
0.000511309
0.000511309
0.000511309
0.000511309
0.000511309
0.000511309
0.000511309
0.000511309
0.000517502
0.000518409
0.000519411
0.000520516
0.000521738
0.000523111
0.00052469
0.000526539
0.00052872
0.000531274
0.000534231
0.000537591
0.000541364
0.000545586
0.000550221
0.000555205
0.00056048
0.000624703
0.000604841
0.000591443
0.000581078
0.000572033
0.000563673
0.000555928
0.000549198
0.000543799
0.000539374
0.000535434
0.000531828
0.000528576
0.000525678
0.00052307
0.000520737
0.000518768
0.000517233
0.000516076
0.000515175
0.000514448
0.000513862
0.000513393
0.000513012
0.000512695
0.000512431
0.000512206
0.000512013
0.000511848
0.000511717
0.000511618
0.000511546
0.000511493
0.000511452
0.000511422
0.000511398
0.000511379
0.000511363
0.00051135
0.000511339
0.00051133
0.000511324
0.00051132
0.000511317
0.000511315
0.000511314
0.000511313
0.000511312
0.000511311
0.00051131
0.00051131
0.00051131
0.00051131
0.00051131
0.00051131
0.00051131
0.000511309
0.000511309
0.000511309
0.000511309
0.000511309
0.000511309
0.000511309
0.000511309
0.000511309
0.000511309
0.000511309
0.000511309
0.000511309
0.000511309
0.000511309
0.000511309
0.000511309
0.000511309
0.000511309
0.000511309
0.000511309
0.000511309
0.000511309
0.000511309
0.000511309
0.000511309
0.000511309
0.000511309
0.000511309
0.000511309
0.000511309
0.000511309
0.000511309
0.000511309
0.000511309
0.000511309
0.000511309
0.000511309
0.000511309
0.000511309
0.000511309
0.000511309
0.000511309
0.000511309
0.000511309
0.000511309
0.000511309
0.000511309
0.000511309
0.000511309
0.000511309
0.000511309
0.000511309
0.000511309
0.000511309
0.000511309
0.000511309
0.000511309
0.000511309
0.000511309
0.000511309
0.000511309
0.000511309
0.000511309
0.000511309
0.000511309
0.000511309
0.000511309
0.000511309
0.000511309
0.000511309
0.000511309
0.000511309
0.000511309
0.000511309
0.000511309
0.000511309
0.000511309
0.000511309
0.000511309
0.000511309
0.000511309
0.000511309
0.000511309
0.000511309
0.000511309
0.000511309
0.000511309
0.000511309
0.000511309
0.000511309
0.000511309
0.000511309
0.000511309
0.000511309
0.000511309
0.000511309
0.00051131
0.00051131
0.00051131
0.00051131
0.00051131
0.00051131
0.00051131
0.00051131
0.00051131
0.00051131
0.00051131
0.00051131
0.00051131
0.00051131
0.00051131
0.00051131
0.00051131
0.00051131
0.00051131
0.00051131
0.00051131
0.00051131
0.00051131
0.00051131
0.00051131
0.00051131
0.00051131
0.00051131
0.00051131
0.00051131
0.00051131
0.00051131
0.00051131
0.00051131
0.00051131
0.00051131
0.00051131
0.00051131
0.00051131
0.00051131
0.000532274
0.00053552
0.000539261
0.000543541
0.00054842
0.000553892
0.000559915
0.000566451
0.000573513
0.000581199
0.000589663
0.000599106
0.000609683
0.000621684
0.000637177
0.00065712
0.00110322
0.00104957
0.000990265
0.00092917
0.000868889
0.000810929
0.000756527
0.000706845
0.000663112
0.000628273
0.000605061
0.00058921
0.000576811
0.000566196
0.000557071
0.000549644
0.000543689
0.00053859
0.000534035
0.00053001
0.000526493
0.000523402
0.000520744
0.000518614
0.00051702
0.000515832
0.000514918
0.000514202
0.00051364
0.000513193
0.000512827
0.000512521
0.000512261
0.000512039
0.000511854
0.000511712
0.000511608
0.000511535
0.000511482
0.000511442
0.000511413
0.000511389
0.00051137
0.000511354
0.000511341
0.000511331
0.000511324
0.00051132
0.000511317
0.000511315
0.000511314
0.000511312
0.000511312
0.000511311
0.00051131
0.00051131
0.00051131
0.00051131
0.00051131
0.00051131
0.00051131
0.00051131
0.000511309
0.000511309
0.000511309
0.000511309
0.000511309
0.000511309
0.000511309
0.000511309
0.000511309
0.000511309
0.000511309
0.000511309
0.000511309
0.000511309
0.000511309
0.000511309
0.000511309
0.000511309
0.000511309
0.000511309
0.000511309
0.000511309
0.000511309
0.000511309
0.000511309
0.000511309
0.000511309
0.000511309
0.000511309
0.000511309
0.000511309
0.000511309
0.000511309
0.000511309
0.000511309
0.000511309
0.000511309
0.000511309
0.000511309
0.000511309
0.000511309
0.000511309
0.000511309
0.000511309
0.00051131
0.00051131
0.00051131
0.00051131
0.00051131
0.00051131
0.00051131
0.00051131
0.00051131
0.00051131
0.00051131
0.00051131
0.00051131
0.00051131
0.00051131
0.00051131
0.00051131
0.00051131
0.00051131
0.00051131
0.00051131
0.00051131
0.00051131
0.00051131
0.00051131
0.00051131
0.00051131
0.00051131
0.00051131
0.00051131
0.00051131
0.00051131
0.00051131
0.00051131
0.00051131
0.00051131
0.00051131
0.00051131
0.00051131
0.00051131
0.00051131
0.00051131
0.00051131
0.00051131
0.00051131
0.00051131
0.00051131
0.00051131
0.00051131
0.00051131
0.00051131
0.00051131
0.00051131
0.00051131
0.00051131
0.00051131
0.00051131
0.00051131
0.00051131
0.00051131
0.00051131
0.000511311
0.000511311
0.000511311
0.000511311
0.000511311
0.000511311
0.000511311
0.000511311
0.000511311
0.000511311
0.000511311
0.000511311
0.000511311
0.000511311
0.000511311
0.000511311
0.000511311
0.000511311
0.000511312
0.000511312
0.000511312
0.000511312
0.000511312
0.000511312
0.000511312
0.000511312
0.000580813
0.000589999
0.000600245
0.000611717
0.000624923
0.000641913
0.000663805
0.000691176
0.000724166
0.000762585
0.000806029
0.000853997
0.000905952
0.000961138
0.00101703
0.0010723
0.00142845
0.00140295
0.00137444
0.00134322
0.00130935
0.00127246
0.00123166
0.00118567
0.00113345
0.00107384
0.00100586
0.000934216
0.000863998
0.000798198
0.000738345
0.000685472
0.000641971
0.000611819
0.000592158
0.000577614
0.000565706
0.000555907
0.000548178
0.000541986
0.000536685
0.000532046
0.000528022
0.000524519
0.000521502
0.000519065
0.000517251
0.000515928
0.000514936
0.000514175
0.00051359
0.000513132
0.000512759
0.000512448
0.000512182
0.000511957
0.000511777
0.000511646
0.000511555
0.000511492
0.000511448
0.000511415
0.00051139
0.000511369
0.000511352
0.000511338
0.000511329
0.000511323
0.000511319
0.000511316
0.000511315
0.000511313
0.000511312
0.000511311
0.000511311
0.00051131
0.00051131
0.00051131
0.00051131
0.00051131
0.00051131
0.00051131
0.00051131
0.00051131
0.00051131
0.00051131
0.00051131
0.00051131
0.00051131
0.00051131
0.00051131
0.00051131
0.00051131
0.00051131
0.00051131
0.00051131
0.00051131
0.00051131
0.00051131
0.00051131
0.00051131
0.00051131
0.00051131
0.00051131
0.00051131
0.00051131
0.00051131
0.00051131
0.00051131
0.00051131
0.00051131
0.00051131
0.00051131
0.00051131
0.00051131
0.00051131
0.00051131
0.00051131
0.00051131
0.00051131
0.00051131
0.00051131
0.00051131
0.00051131
0.00051131
0.00051131
0.00051131
0.00051131
0.00051131
0.00051131
0.00051131
0.00051131
0.00051131
0.00051131
0.00051131
0.00051131
0.00051131
0.00051131
0.00051131
0.00051131
0.00051131
0.00051131
0.00051131
0.00051131
0.00051131
0.000511311
0.000511311
0.000511311
0.000511311
0.000511311
0.000511311
0.000511311
0.000511311
0.000511311
0.000511311
0.000511311
0.000511311
0.000511311
0.000511311
0.000511311
0.000511311
0.000511311
0.000511311
0.000511312
0.000511312
0.000511312
0.000511312
0.000511312
0.000511312
0.000511312
0.000511312
0.000511312
0.000511312
0.000511313
0.000511313
0.000511313
0.000511313
0.000511313
0.000511313
0.000511313
0.000511313
0.000511314
0.000511314
0.000511314
0.000511314
0.000511314
0.000511315
0.000511315
0.000511315
0.000511315
0.000511315
0.000511316
0.000511316
0.000511316
0.000511316
0.000511317
0.000511317
0.000511317
0.000511317
0.000511318
0.000511318
0.000511318
0.000511319
0.000511319
0.000511319
0.00051132
0.00051132
0.000511321
0.000511321
0.000744783
0.000787969
0.000836693
0.000890413
0.000948115
0.00100726
0.00106631
0.00112422
0.00118023
0.00123374
0.00128432
0.00133165
0.00137553
0.00141595
0.00145264
0.0015127
0.0015096
0.00150481
0.00149769
0.00148791
0.00147544
0.00146036
0.00144253
0.00142207
0.00139916
0.0013725
0.00134137
0.00130519
0.00126294
0.00121355
0.00115656
0.00109167
0.00101794
0.000939401
0.000862637
0.000791535
0.000727814
0.000672912
0.000630223
0.000602524
0.000584183
0.000570238
0.000558989
0.000550156
0.000543274
0.000537557
0.000532589
0.000528271
0.000524519
0.000521315
0.000518776
0.000516929
0.000515611
0.000514639
0.000513909
0.000513355
0.000512919
0.000512561
0.000512257
0.000512
0.000511795
0.000511648
0.00051155
0.000511486
0.000511441
0.000511409
0.000511384
0.000511363
0.000511346
0.000511334
0.000511326
0.000511321
0.000511318
0.000511316
0.000511315
0.000511314
0.000511313
0.000511312
0.000511311
0.000511311
0.000511311
0.000511311
0.000511311
0.000511311
0.00051131
0.00051131
0.00051131
0.00051131
0.00051131
0.00051131
0.00051131
0.00051131
0.00051131
0.00051131
0.00051131
0.00051131
0.00051131
0.00051131
0.00051131
0.00051131
0.00051131
0.00051131
0.000511311
0.000511311
0.000511311
0.000511311
0.000511311
0.000511311
0.000511311
0.000511311
0.000511311
0.000511311
0.000511311
0.000511311
0.000511311
0.000511311
0.000511311
0.000511311
0.000511311
0.000511311
0.000511311
0.000511311
0.000511311
0.000511311
0.000511311
0.000511311
0.000511312
0.000511312
0.000511312
0.000511312
0.000511312
0.000511312
0.000511312
0.000511312
0.000511312
0.000511312
0.000511312
0.000511312
0.000511313
0.000511313
0.000511313
0.000511313
0.000511313
0.000511313
0.000511313
0.000511314
0.000511314
0.000511314
0.000511314
0.000511314
0.000511314
0.000511315
0.000511315
0.000511315
0.000511315
0.000511315
0.000511316
0.000511316
0.000511316
0.000511316
0.000511317
0.000511317
0.000511317
0.000511318
0.000511318
0.000511318
0.000511319
0.000511319
0.000511319
0.00051132
0.00051132
0.000511321
0.000511321
0.000511322
0.000511322
0.000511323
0.000511323
0.000511324
0.000511324
0.000511325
0.000511325
0.000511326
0.000511327
0.000511327
0.000511328
0.000511329
0.00051133
0.00051133
0.000511331
0.000511332
0.000511333
0.000511334
0.000511335
0.000511336
0.000511337
0.000511338
0.000511339
0.000511341
0.000511342
0.000511343
0.000511345
0.000511346
0.000511347
0.000511349
0.00051135
0.000511352
0.000511354
0.000511355
0.00113933
0.0011983
0.0012545
0.00130738
0.0013566
0.00140195
0.00144302
0.00147957
0.00151154
0.00153908
0.00156241
0.00158191
0.00159818
0.00161202
0.00162401
0.00163443
0.00151076
0.0015084
0.00150579
0.00150345
0.00150167
0.00150063
0.00150037
0.00150142
0.00150346
0.00150246
0.00149806
0.00149054
0.0014801
0.00146651
0.00145015
0.00143191
0.00141089
0.00138495
0.00135254
0.00131238
0.00126356
0.00120598
0.00114028
0.00106673
0.000985498
0.000902692
0.000824226
0.000753103
0.000691112
0.000641151
0.000607302
0.000586127
0.000570928
0.000559004
0.000549775
0.000542669
0.000536801
0.000531693
0.00052723
0.000523363
0.000520165
0.000517765
0.00051609
0.000514914
0.000514066
0.000513443
0.000512963
0.000512572
0.000512243
0.000511967
0.000511756
0.000511615
0.000511526
0.000511469
0.00051143
0.0005114
0.000511376
0.000511356
0.000511342
0.000511332
0.000511326
0.000511322
0.00051132
0.000511318
0.000511317
0.000511315
0.000511314
0.000511313
0.000511313
0.000511313
0.000511313
0.000511313
0.000511312
0.000511312
0.000511312
0.000511312
0.000511312
0.000511312
0.000511312
0.000511312
0.000511312
0.000511313
0.000511313
0.000511313
0.000511313
0.000511313
0.000511313
0.000511313
0.000511313
0.000511313
0.000511313
0.000511313
0.000511314
0.000511314
0.000511314
0.000511314
0.000511314
0.000511314
0.000511314
0.000511314
0.000511315
0.000511315
0.000511315
0.000511315
0.000511315
0.000511315
0.000511315
0.000511316
0.000511316
0.000511316
0.000511316
0.000511316
0.000511317
0.000511317
0.000511317
0.000511317
0.000511318
0.000511318
0.000511318
0.000511319
0.000511319
0.000511319
0.00051132
0.00051132
0.00051132
0.000511321
0.000511321
0.000511322
0.000511322
0.000511323
0.000511323
0.000511324
0.000511324
0.000511325
0.000511326
0.000511326
0.000511327
0.000511328
0.000511329
0.000511329
0.00051133
0.000511331
0.000511332
0.000511333
0.000511334
0.000511335
0.000511336
0.000511337
0.000511338
0.000511339
0.00051134
0.000511342
0.000511343
0.000511344
0.000511346
0.000511347
0.000511349
0.00051135
0.000511352
0.000511354
0.000511356
0.000511358
0.00051136
0.000511362
0.000511364
0.000511367
0.000511369
0.000511372
0.000511375
0.000511377
0.00051138
0.000511383
0.000511386
0.00051139
0.000511393
0.000511397
0.000511401
0.000511405
0.00051141
0.000511414
0.000511418
0.000511422
0.000511427
0.000511431
0.000511436
0.000511441
0.000511447
0.000511453
0.00051146
0.000511467
0.000511473
0.000511481
0.000511485
0.00151916
0.00154808
0.00157236
0.00159251
0.00160932
0.00162353
0.00163561
0.00164603
0.00165488
0.00166224
0.001668
0.00167188
0.00167424
0.00150224
0.00150135
0.00150012
0.00149919
0.00149885
0.00149884
0.00149923
0.00150102
0.00150347
0.00150463
0.00150526
0.00150594
0.00150717
0.00150933
0.00151228
0.00151342
0.00151162
0.00150676
0.00149859
0.00148715
0.00147329
0.00145781
0.00143962
0.00141626
0.00138523
0.00134484
0.00129457
0.00123492
0.001167
0.00109165
0.00100835
0.000920941
0.000836677
0.000760026
0.000693541
0.000640339
0.000604539
0.000582734
0.000567424
0.000555711
0.000546835
0.000539939
0.000534116
0.000529007
0.000524559
0.000520852
0.00051806
0.000516153
0.000514876
0.000513996
0.000513364
0.000512878
0.000512478
0.000512143
0.000511877
0.000511692
0.000511577
0.000511506
0.000511459
0.000511425
0.000511398
0.000511376
0.000511358
0.000511344
0.000511336
0.000511331
0.000511328
0.000511326
0.000511324
0.000511323
0.000511321
0.00051132
0.000511319
0.000511319
0.000511318
0.000511318
0.000511318
0.000511318
0.000511319
0.000511319
0.000511319
0.000511319
0.000511319
0.00051132
0.00051132
0.00051132
0.00051132
0.000511321
0.000511321
0.000511321
0.000511322
0.000511322
0.000511322
0.000511323
0.000511323
0.000511323
0.000511324
0.000511324
0.000511325
0.000511325
0.000511326
0.000511326
0.000511327
0.000511327
0.000511328
0.000511328
0.000511329
0.000511329
0.00051133
0.000511331
0.000511331
0.000511332
0.000511333
0.000511333
0.000511334
0.000511335
0.000511336
0.000511337
0.000511338
0.000511339
0.00051134
0.000511341
0.000511343
0.000511344
0.000511345
0.000511347
0.000511348
0.00051135
0.000511352
0.000511353
0.000511355
0.000511357
0.000511359
0.000511361
0.000511363
0.000511365
0.000511368
0.00051137
0.000511372
0.000511375
0.000511378
0.000511381
0.000511384
0.000511387
0.000511391
0.000511394
0.000511398
0.000511402
0.000511406
0.00051141
0.000511415
0.000511419
0.000511424
0.000511429
0.000511435
0.00051144
0.000511446
0.000511452
0.000511459
0.000511465
0.000511472
0.00051148
0.000511487
0.000511495
0.000511503
0.000511511
0.000511519
0.000511528
0.000511538
0.000511548
0.000511559
0.00051157
0.000511582
0.000511595
0.000511607
0.00051162
0.000511633
0.000511646
0.00051166
0.000511675
0.000511692
0.00051171
0.00051173
0.000511751
0.000511773
0.000511796
0.000511819
0.000511842
0.000511866
0.00051189
0.000511915
0.000511945
0.000511968
0.00166133
0.00166901
0.00167479
0.00167863
0.00168073
0.00168174
0.00168209
0.00168214
0.00168173
0.00168138
0.00168155
0.00168209
0.00168268
0.00148784
0.00148806
0.00148825
0.00148884
0.00148995
0.0014913
0.00149308
0.00149556
0.00149817
0.00150044
0.00150243
0.00150438
0.00150668
0.0015097
0.00151317
0.0015157
0.00151754
0.00151953
0.0015221
0.00152533
0.00152873
0.00152981
0.00152826
0.0015238
0.00151613
0.0015059
0.00149405
0.00148032
0.00146304
0.00143943
0.00140656
0.00136304
0.00130915
0.00124588
0.00117429
0.00109478
0.00100653
0.000913391
0.000824012
0.000743878
0.000676209
0.000624927
0.000592961
0.000573337
0.000559414
0.000549092
0.000541311
0.000534923
0.000529331
0.000524468
0.000520502
0.000517638
0.000515777
0.000514582
0.00051378
0.000513198
0.000512737
0.000512354
0.000512041
0.000511811
0.000511662
0.000511571
0.000511512
0.000511472
0.000511441
0.000511415
0.000511393
0.000511375
0.000511362
0.000511353
0.000511348
0.000511344
0.000511342
0.000511341
0.00051134
0.000511339
0.000511339
0.000511339
0.000511338
0.000511338
0.000511338
0.000511339
0.000511339
0.00051134
0.000511341
0.000511342
0.000511343
0.000511344
0.000511345
0.000511346
0.000511347
0.000511348
0.000511349
0.00051135
0.000511352
0.000511353
0.000511354
0.000511356
0.000511357
0.000511359
0.00051136
0.000511362
0.000511363
0.000511365
0.000511366
0.000511368
0.00051137
0.000511372
0.000511374
0.000511376
0.000511378
0.00051138
0.000511382
0.000511385
0.000511387
0.00051139
0.000511393
0.000511396
0.000511399
0.000511402
0.000511406
0.00051141
0.000511414
0.000511418
0.000511422
0.000511427
0.000511432
0.000511437
0.000511443
0.000511449
0.000511455
0.000511462
0.000511468
0.000511476
0.000511483
0.000511491
0.000511499
0.000511508
0.000511517
0.000511526
0.000511536
0.000511546
0.000511557
0.000511568
0.000511579
0.000511591
0.000511604
0.000511616
0.00051163
0.000511644
0.000511659
0.000511674
0.00051169
0.000511707
0.000511725
0.000511744
0.000511763
0.000511784
0.000511805
0.000511827
0.000511851
0.000511876
0.000511902
0.00051193
0.000511961
0.000511993
0.000512027
0.000512064
0.000512102
0.000512141
0.000512181
0.000512222
0.000512265
0.00051231
0.000512358
0.000512409
0.000512465
0.000512524
0.000512587
0.000512652
0.000512718
0.000512784
0.00051285
0.000512917
0.000512985
0.000513058
0.000513136
0.000513222
0.000513315
0.000513416
0.000513519
0.000513638
0.000513728
0.00168803
0.00168771
0.00168746
0.00168767
0.00168827
0.00168858
0.00168836
0.00168776
0.00168667
0.00168493
0.00168289
0.00168098
0.00167966
0.00167885
0.00147242
0.0014734
0.00147457
0.00147609
0.00147798
0.00148018
0.00148272
0.00148554
0.00148852
0.0014917
0.00149505
0.00149851
0.00150207
0.00150574
0.00150925
0.00151234
0.00151526
0.00151838
0.00152192
0.00152585
0.00152963
0.00153241
0.00153482
0.00153752
0.00154075
0.00154428
0.00154687
0.00154672
0.00154457
0.0015396
0.00153233
0.00152343
0.00151238
0.0014981
0.00147861
0.00145109
0.00141314
0.00136403
0.00130426
0.00123449
0.0011553
0.00106673
0.000968894
0.000869514
0.000777889
0.000699213
0.000637604
0.000597399
0.000574413
0.000559336
0.000548578
0.000540553
0.000533937
0.000528136
0.000523202
0.000519417
0.00051689
0.000515322
0.000514322
0.000513637
0.000513118
0.000512693
0.000512335
0.000512048
0.000511842
0.000511708
0.000511622
0.000511566
0.000511527
0.000511497
0.000511473
0.000511452
0.000511434
0.000511419
0.000511409
0.000511402
0.000511398
0.000511396
0.000511395
0.000511395
0.000511396
0.000511397
0.000511399
0.000511401
0.000511404
0.000511406
0.000511409
0.000511412
0.000511415
0.000511418
0.000511421
0.000511425
0.000511428
0.000511432
0.000511436
0.00051144
0.000511444
0.000511448
0.000511452
0.000511457
0.000511461
0.000511466
0.000511471
0.000511476
0.000511482
0.000511487
0.000511493
0.000511499
0.000511506
0.000511512
0.000511519
0.000511527
0.000511535
0.000511543
0.000511552
0.000511561
0.00051157
0.00051158
0.000511591
0.000511602
0.000511614
0.000511626
0.000511639
0.000511652
0.000511667
0.000511682
0.000511698
0.000511714
0.000511732
0.00051175
0.00051177
0.00051179
0.000511812
0.000511834
0.000511857
0.000511882
0.000511907
0.000511934
0.000511962
0.000511991
0.000512023
0.000512055
0.00051209
0.000512127
0.000512165
0.000512206
0.000512248
0.000512294
0.000512341
0.000512392
0.000512446
0.000512502
0.000512561
0.000512624
0.000512689
0.000512757
0.000512828
0.000512903
0.000512981
0.000513063
0.00051315
0.000513241
0.000513336
0.000513434
0.000513537
0.000513642
0.000513751
0.000513864
0.000513983
0.00051411
0.000514246
0.000514392
0.000514548
0.000514714
0.000514887
0.000515065
0.000515246
0.000515429
0.000515618
0.000515815
0.000516026
0.000516254
0.000516503
0.000516776
0.000517072
0.000517391
0.000517727
0.000518077
0.000518434
0.000518807
0.000519178
0.000519603
0.000520003
0.00169252
0.00169077
0.00168868
0.00168673
0.00168535
0.00168415
0.00168292
0.00168151
0.00167983
0.00167781
0.00167552
0.00167303
0.00167054
0.00166837
0.00145678
0.00145841
0.00146033
0.00146256
0.00146508
0.00146789
0.00147093
0.00147414
0.00147756
0.00148127
0.00148526
0.00148944
0.00149367
0.00149775
0.0015016
0.00150542
0.00150944
0.00151373
0.00151817
0.00152249
0.00152639
0.00152981
0.00153313
0.00153667
0.00154046
0.00154427
0.00154754
0.00155043
0.00155343
0.00155667
0.00156
0.00156238
0.00156257
0.00156125
0.00155783
0.0015527
0.00154628
0.00153766
0.00152551
0.00150832
0.001484
0.00144993
0.00140402
0.00134565
0.00127505
0.00119272
0.00109931
0.000995326
0.000887024
0.000786477
0.0007009
0.000635139
0.000593426
0.000570641
0.000556273
0.000546212
0.000538579
0.000532133
0.000526533
0.00052198
0.0005187
0.000516592
0.000515269
0.000514394
0.000513771
0.000513286
0.000512882
0.000512537
0.000512254
0.00051204
0.000511894
0.000511797
0.000511733
0.00051169
0.00051166
0.000511639
0.000511622
0.000511609
0.000511598
0.00051159
0.000511585
0.000511582
0.000511582
0.000511584
0.000511588
0.000511593
0.0005116
0.000511609
0.000511618
0.000511628
0.000511639
0.00051165
0.000511662
0.000511674
0.000511687
0.0005117
0.000511713
0.000511727
0.000511741
0.000511755
0.00051177
0.000511785
0.000511801
0.000511817
0.000511834
0.000511851
0.00051187
0.000511889
0.000511908
0.000511928
0.000511949
0.000511971
0.000511994
0.000512018
0.000512043
0.000512069
0.000512097
0.000512126
0.000512157
0.00051219
0.000512225
0.000512263
0.000512302
0.000512344
0.000512389
0.000512437
0.000512488
0.000512542
0.000512599
0.00051266
0.000512724
0.000512793
0.000512865
0.000512941
0.000513022
0.000513107
0.000513197
0.000513291
0.000513389
0.000513491
0.000513597
0.000513707
0.000513821
0.000513941
0.000514066
0.000514198
0.000514336
0.000514481
0.000514633
0.000514792
0.00051496
0.000515135
0.00051532
0.000515514
0.00051572
0.000515936
0.000516164
0.000516405
0.000516657
0.000516922
0.000517199
0.00051749
0.000517796
0.00051812
0.000518466
0.000518839
0.000519242
0.000519678
0.000520148
0.000520648
0.000521175
0.000521723
0.000522289
0.000522875
0.000523488
0.000524139
0.00052484
0.000525601
0.000526423
0.000527303
0.000528227
0.000529177
0.000530134
0.000531087
0.000532041
0.00053301
0.000534022
0.000535099
0.000536267
0.000537561
0.000538913
0.000540488
0.000542196
0.00168499
0.00168275
0.00168028
0.0016776
0.00167495
0.00167257
0.00167052
0.00166868
0.0016669
0.00166505
0.00166308
0.00166094
0.00165866
0.00165639
0.00144115
0.00144335
0.00144586
0.00144865
0.00145169
0.00145496
0.00145841
0.00146204
0.0014659
0.00147003
0.00147443
0.001479
0.00148359
0.00148803
0.00149235
0.00149674
0.00150136
0.00150619
0.00151104
0.00151567
0.00152
0.00152423
0.00152853
0.00153293
0.00153729
0.00154133
0.001545
0.00154857
0.00155224
0.00155596
0.00155938
0.00156228
0.00156522
0.00156829
0.00157133
0.00157424
0.00157651
0.00157698
0.00157586
0.00157329
0.00156959
0.00156468
0.00155776
0.00154711
0.0015309
0.0015073
0.00147377
0.00142758
0.00136723
0.00129242
0.00120364
0.00110211
0.000989744
0.000874519
0.000770127
0.000684363
0.000622127
0.000585661
0.00056613
0.000553584
0.000544635
0.000537667
0.000531688
0.000526513
0.000522326
0.000519268
0.000517233
0.000515913
0.00051502
0.000514384
0.000513904
0.000513515
0.000513187
0.000512908
0.000512676
0.000512492
0.000512356
0.00051226
0.000512195
0.000512154
0.000512129
0.000512118
0.000512117
0.000512123
0.000512134
0.000512149
0.000512167
0.000512189
0.000512213
0.00051224
0.000512269
0.0005123
0.000512333
0.000512367
0.000512402
0.000512439
0.000512477
0.000512517
0.000512558
0.0005126
0.000512645
0.000512691
0.000512738
0.000512788
0.000512839
0.000512892
0.000512948
0.000513007
0.000513069
0.000513134
0.000513203
0.000513276
0.000513352
0.000513432
0.000513517
0.000513607
0.000513701
0.0005138
0.000513904
0.000514012
0.000514126
0.000514245
0.00051437
0.000514502
0.000514641
0.000514788
0.000514943
0.000515106
0.00051528
0.000515463
0.000515657
0.000515862
0.000516079
0.000516308
0.000516548
0.0005168
0.000517065
0.000517341
0.000517632
0.000517937
0.00051826
0.0005186
0.00051896
0.000519341
0.000519742
0.000520167
0.000520618
0.000521095
0.000521604
0.000522147
0.000522727
0.000523346
0.000524007
0.00052471
0.000525454
0.00052624
0.000527066
0.000527934
0.000528845
0.000529801
0.000530804
0.000531857
0.000532963
0.000534126
0.000535343
0.000536611
0.000537922
0.000539276
0.000540676
0.00054214
0.000543693
0.000545367
0.000547193
0.000549191
0.000551364
0.000553691
0.000556133
0.000558642
0.000561181
0.000563755
0.000566405
0.000569194
0.000572193
0.000575466
0.000579076
0.000583058
0.000587418
0.000592168
0.000597177
0.000602655
0.000608148
0.000614033
0.000622384
0.00167115
0.00166907
0.00166691
0.00166462
0.0016622
0.00165982
0.00165759
0.00165553
0.00165362
0.00165178
0.00164994
0.00164802
0.001646
0.00142558
0.00142829
0.00143129
0.00143454
0.00143801
0.00144168
0.00144551
0.00144952
0.00145376
0.00145822
0.00146291
0.00146774
0.00147259
0.00147739
0.00148218
0.00148705
0.00149207
0.0014972
0.00150231
0.00150727
0.0015121
0.00151692
0.00152179
0.00152665
0.00153134
0.00153578
0.00154012
0.00154448
0.00154884
0.00155298
0.00155672
0.00156027
0.00156384
0.00156747
0.00157114
0.00157463
0.00157776
0.00158083
0.00158393
0.00158705
0.00159031
0.0015936
0.00159628
0.00159693
0.00159582
0.00159339
0.00158998
0.00158465
0.00157496
0.00155808
0.00153174
0.00149394
0.0014422
0.00137475
0.00129133
0.00119309
0.00108274
0.000964338
0.000848864
0.00074901
0.000670333
0.000615404
0.000583849
0.000566581
0.000554966
0.000546477
0.000539908
0.000534318
0.000529389
0.000525242
0.000521997
0.000519645
0.000518035
0.000516938
0.000516164
0.0005156
0.00051518
0.000514857
0.000514598
0.000514382
0.000514202
0.000514057
0.000513948
0.000513873
0.00051383
0.000513818
0.000513829
0.000513859
0.000513911
0.000513979
0.000514059
0.00051415
0.000514249
0.000514356
0.000514469
0.000514588
0.000514711
0.000514839
0.000514969
0.000515104
0.000515241
0.000515383
0.000515529
0.00051568
0.000515838
0.000516002
0.000516174
0.000516351
0.000516535
0.000516726
0.000516925
0.000517132
0.00051735
0.000517579
0.000517819
0.00051807
0.000518334
0.00051861
0.000518902
0.000519211
0.000519539
0.000519886
0.000520255
0.000520646
0.000521063
0.000521508
0.000521982
0.000522488
0.000523029
0.000523608
0.000524226
0.000524888
0.000525594
0.000526348
0.000527152
0.000528009
0.000528921
0.00052989
0.000530913
0.000531986
0.000533103
0.000534261
0.000535458
0.000536701
0.000537994
0.000539345
0.000540763
0.000542254
0.000543825
0.000545482
0.000547231
0.000549077
0.00055103
0.000553103
0.00055531
0.000557666
0.000560183
0.000562867
0.00056572
0.000568737
0.000571909
0.000575229
0.000578693
0.00058231
0.00058611
0.000590156
0.000594531
0.000599333
0.00060465
0.000610548
0.000617049
0.000624117
0.000631675
0.000639642
0.000648004
0.000656867
0.000666474
0.000677167
0.000689329
0.000703277
0.000719063
0.000736355
0.000754321
0.000772401
0.000789938
0.000806835
0.000822702
0.000838249
0.000853188
0.000868541
0.000884538
0.000899506
0.000926679
0.00165725
0.00165518
0.00165315
0.00165109
0.00164897