/*--------------------------------*- C++ -*----------------------------------*\
| =========                 |                                                 |
| \\      /  F ield         | OpenFOAM: The Open Source CFD Toolbox           |
|  \\    /   O peration     | Version:  v1706                                 |
|   \\  /    A nd           | Web:      www.OpenFOAM.com                      |
|    \\/     M anipulation  |                                                 |
\*---------------------------------------------------------------------------*/
FoamFile
{
    version     2.0;
    format      ascii;
    class       volScalarField;
    location    "3.3e-05";
    object      wallHeatFlux;
}
// * * * * * * * * * * * * * * * * * * * * * * * * * * * * * * * * * * * * * //

dimensions      [1 0 -3 0 0 0 0];


internalField   uniform 0;

boundaryField
{
    cone
    {
        type            calculated;
        value           nonuniform List<scalar> 
119
(
-1227.09
-1245.94
-1263.02
-1278.45
-1292.37
-1304.95
-1316.38
-1326.83
-1336.48
-1345.46
-1353.92
-1361.98
-1369.74
-1377.27
-1384.63
-1391.88
-1399.05
-1406.16
-1413.22
-1420.23
-1427.18
-1434.04
-1440.78
-1447.37
-1453.76
-1459.88
-1465.69
-1471.1
-1476.05
-1480.45
-1484.25
-1487.35
-1489.66
-1491.14
-1491.7
-1491.3
-1489.88
-1487.41
-1483.85
-1479.2
-1473.44
-1466.57
-1458.63
-1449.62
-1439.58
-1428.55
-1416.56
-1403.66
-1389.88
-1375.28
-1359.87
-1343.7
-1326.78
-1309.14
-1290.79
-1271.74
-1251.99
-1231.55
-1210.41
-1188.56
-1166.01
-1142.75
-1118.79
-1094.11
-1068.72
-1042.62
-1015.83
-988.331
-960.146
-931.275
-901.723
-871.493
-840.583
-808.993
-776.714
-743.737
-710.044
-675.618
-640.432
-604.46
-567.671
-530.033
-491.52
-452.117
-411.819
-370.645
-328.633
-285.85
-242.383
-198.338
-153.857
-109.149
-64.5369
-20.4857
22.411
63.5065
102.323
138.79
173.403
207.186
241.428
277.328
315.658
356.558
399.534
443.669
487.944
531.502
573.771
614.438
653.291
690.136
724.853
757.179
787.52
818.332
857.821
914.363
1004.31
)
;
    }
    inlet
    {
        type            calculated;
        value           uniform 0;
    }
    rWedge
    {
        type            wedge;
    }
    lWedge
    {
        type            wedge;
    }
    outlet
    {
        type            calculated;
        value           uniform 0;
    }
    procBoundary0to1
    {
        type            processor;
        value           uniform 0;
    }
    procBoundary0to2
    {
        type            processor;
        value           uniform 0;
    }
}


// ************************************************************************* //
