/*--------------------------------*- C++ -*----------------------------------*\
| =========                 |                                                 |
| \\      /  F ield         | OpenFOAM: The Open Source CFD Toolbox           |
|  \\    /   O peration     | Version:  v1706                                 |
|   \\  /    A nd           | Web:      www.OpenFOAM.com                      |
|    \\/     M anipulation  |                                                 |
\*---------------------------------------------------------------------------*/
FoamFile
{
    version     2.0;
    format      ascii;
    class       volScalarField;
    location    "1.2e-05";
    object      wallHeatFlux;
}
// * * * * * * * * * * * * * * * * * * * * * * * * * * * * * * * * * * * * * //

dimensions      [1 0 -3 0 0 0 0];


internalField   uniform 0;

boundaryField
{
    cone
    {
        type            calculated;
        value           nonuniform List<scalar> 
147
(
24708
24702.7
24692.6
24682.6
24669.4
24654
24635.8
24615
24591.2
24564.1
24533.6
24500.3
24464.9
24427.4
24387.6
24345.2
24300.3
24252.7
24202.6
24149.8
24094.4
24036.4
23975.8
23912.6
23846.9
23778.6
23707.7
23634.4
23558.5
23480.2
23399.5
23316.3
23230.7
23142.7
23052.4
22959.7
22864.7
22767.4
22667.8
22566
22461.9
22355.6
22247
22136.3
22023.5
21908.5
21791.5
21672.4
21551.3
21428.3
21303.3
21176.4
21047.8
20917.3
20785.1
20651.2
20515.7
20378.5
20239.9
20099.8
19958.4
19815.5
19671.4
19526
19379.5
19231.9
19083.2
18933.6
18783
18631.6
18479.5
18326.6
18173.2
18019.2
17864.8
17710
17555
17399.9
17244.7
17089.5
16934.5
16779.8
16625.5
16471.7
16318.5
16166
16014.3
15863.7
15714
15565.6
15418.4
15272.7
15128.5
14985.9
14845
14706.1
14569.1
14434.1
14301.4
14171
14043
13917.6
13794.8
13674.7
13557.4
13443.1
13331.9
13223.7
13118.8
13017.2
12919
12824.3
12733.1
12645.5
12561.7
12481.7
12405.4
12333.1
12264.8
12200.5
12140.3
12084.2
12032.2
11984.5
11941.1
11901.9
11867.1
11836.6
11810.6
11789.1
11772.2
11760.1
11752.6
11749.7
11751.3
11757.5
11768.2
11783.4
11803.3
11827.7
11856.7
11890.2
11928.1
11970.3
12017.1
12068.5
24730.3
)
;
    }
    inlet
    {
        type            calculated;
        value           uniform 0;
    }
    rWedge
    {
        type            wedge;
    }
    lWedge
    {
        type            wedge;
    }
    outlet
    {
        type            calculated;
        value           nonuniform 0();
    }
    procBoundary3to2
    {
        type            processor;
        value           uniform 0;
    }
}


// ************************************************************************* //
