/*--------------------------------*- C++ -*----------------------------------*\
| =========                 |                                                 |
| \\      /  F ield         | OpenFOAM: The Open Source CFD Toolbox           |
|  \\    /   O peration     | Version:  v1706                                 |
|   \\  /    A nd           | Web:      www.OpenFOAM.com                      |
|    \\/     M anipulation  |                                                 |
\*---------------------------------------------------------------------------*/
FoamFile
{
    version     2.0;
    format      ascii;
    class       volScalarField;
    location    "1.8e-05";
    object      alpha;
}
// * * * * * * * * * * * * * * * * * * * * * * * * * * * * * * * * * * * * * //

dimensions      [1 -1 -1 0 0 0 0];


internalField   nonuniform List<scalar> 
30104
(
1.40478e-05
1.40478e-05
1.40478e-05
1.40478e-05
1.40478e-05
1.40478e-05
1.40478e-05
1.40478e-05
1.40479e-05
1.40479e-05
1.40479e-05
1.40479e-05
1.40479e-05
1.40479e-05
1.40479e-05
1.40479e-05
1.40479e-05
1.4048e-05
1.4048e-05
1.4048e-05
1.4048e-05
1.4048e-05
1.4048e-05
1.4048e-05
1.4048e-05
1.4048e-05
1.4048e-05
1.4048e-05
1.4048e-05
1.4048e-05
1.4048e-05
1.4048e-05
1.4048e-05
1.4048e-05
1.4048e-05
1.4048e-05
1.4048e-05
1.4048e-05
1.4048e-05
1.4048e-05
1.4048e-05
1.4048e-05
1.4048e-05
1.4048e-05
1.4048e-05
1.4048e-05
1.4048e-05
1.40481e-05
1.40481e-05
1.40481e-05
1.40481e-05
1.40481e-05
1.40481e-05
1.40481e-05
1.40481e-05
1.40481e-05
1.40481e-05
1.40481e-05
1.40481e-05
1.40481e-05
1.40481e-05
1.40481e-05
1.40481e-05
1.40481e-05
1.40481e-05
1.40481e-05
1.40481e-05
1.40481e-05
1.40481e-05
1.40481e-05
1.40481e-05
1.40481e-05
1.40482e-05
1.40482e-05
1.40482e-05
1.40482e-05
1.40482e-05
1.40482e-05
1.40482e-05
1.40482e-05
1.40482e-05
1.40482e-05
1.40482e-05
1.40482e-05
1.40482e-05
1.40482e-05
1.40482e-05
1.40482e-05
1.40482e-05
1.40482e-05
1.40482e-05
1.40483e-05
1.40483e-05
1.40483e-05
1.40483e-05
1.40483e-05
1.40483e-05
1.40483e-05
1.40483e-05
1.40483e-05
1.40483e-05
1.40483e-05
1.40483e-05
1.40483e-05
1.40483e-05
1.40483e-05
1.40484e-05
1.40484e-05
1.40484e-05
1.40484e-05
1.40484e-05
1.40484e-05
1.40484e-05
1.40484e-05
1.40484e-05
1.40484e-05
1.40484e-05
1.40485e-05
1.40485e-05
1.40485e-05
1.40485e-05
1.40485e-05
1.40485e-05
1.40485e-05
1.40485e-05
1.40485e-05
1.40485e-05
1.40486e-05
1.40486e-05
1.40486e-05
1.40486e-05
1.40486e-05
1.40486e-05
1.40486e-05
1.40486e-05
1.40486e-05
1.40487e-05
1.40487e-05
1.40487e-05
1.40487e-05
1.40487e-05
1.40487e-05
1.40487e-05
1.40487e-05
1.40488e-05
1.40488e-05
1.40488e-05
1.40488e-05
1.40488e-05
1.40488e-05
1.40488e-05
1.40489e-05
1.40489e-05
1.40489e-05
1.40489e-05
1.40489e-05
1.40489e-05
1.40489e-05
1.4049e-05
1.4049e-05
1.4049e-05
1.4049e-05
1.4049e-05
1.4049e-05
1.40491e-05
1.40491e-05
1.40491e-05
1.40491e-05
1.40491e-05
1.40492e-05
1.40492e-05
1.40492e-05
1.40492e-05
1.40492e-05
1.40493e-05
1.40493e-05
1.40493e-05
1.40493e-05
1.40493e-05
1.40494e-05
1.40494e-05
1.40494e-05
1.40494e-05
1.40495e-05
1.40495e-05
1.40495e-05
1.40495e-05
1.40496e-05
1.40496e-05
1.40496e-05
1.40496e-05
1.40497e-05
1.40497e-05
1.40497e-05
1.40497e-05
1.40498e-05
1.40498e-05
1.40498e-05
1.40499e-05
1.40499e-05
1.40499e-05
1.405e-05
1.405e-05
1.405e-05
1.40501e-05
1.40501e-05
1.40502e-05
1.40502e-05
1.40502e-05
1.40499e-05
1.40479e-05
1.4048e-05
1.4048e-05
1.4048e-05
1.4048e-05
1.40481e-05
1.40481e-05
1.40481e-05
1.40482e-05
1.40482e-05
1.40482e-05
1.40483e-05
1.40483e-05
1.40484e-05
1.40484e-05
1.40485e-05
1.40485e-05
1.40489e-05
1.40489e-05
1.40489e-05
1.40489e-05
1.4049e-05
1.4049e-05
1.4049e-05
1.4049e-05
1.4049e-05
1.4049e-05
1.40491e-05
1.40491e-05
1.40491e-05
1.40491e-05
1.40492e-05
1.40492e-05
1.40492e-05
1.40492e-05
1.40493e-05
1.40493e-05
1.40493e-05
1.40493e-05
1.40494e-05
1.40494e-05
1.40494e-05
1.40494e-05
1.40495e-05
1.40495e-05
1.40495e-05
1.40495e-05
1.40496e-05
1.40496e-05
1.40496e-05
1.40496e-05
1.40497e-05
1.40497e-05
1.40497e-05
1.40498e-05
1.40498e-05
1.40498e-05
1.40498e-05
1.40499e-05
1.40499e-05
1.40499e-05
1.405e-05
1.405e-05
1.405e-05
1.40501e-05
1.40501e-05
1.40501e-05
1.40502e-05
1.40502e-05
1.40502e-05
1.40503e-05
1.40503e-05
1.40503e-05
1.40504e-05
1.40504e-05
1.40505e-05
1.40505e-05
1.40505e-05
1.40506e-05
1.40506e-05
1.40507e-05
1.40507e-05
1.40507e-05
1.40508e-05
1.40508e-05
1.40509e-05
1.40509e-05
1.4051e-05
1.4051e-05
1.40511e-05
1.40511e-05
1.40512e-05
1.40512e-05
1.40513e-05
1.40513e-05
1.40514e-05
1.40514e-05
1.40515e-05
1.40515e-05
1.40516e-05
1.40517e-05
1.40517e-05
1.40518e-05
1.40518e-05
1.40519e-05
1.4052e-05
1.4052e-05
1.40521e-05
1.40522e-05
1.40522e-05
1.40523e-05
1.40524e-05
1.40524e-05
1.40525e-05
1.40526e-05
1.40526e-05
1.40527e-05
1.40528e-05
1.40529e-05
1.4053e-05
1.4053e-05
1.40531e-05
1.40532e-05
1.40533e-05
1.40534e-05
1.40535e-05
1.40536e-05
1.40536e-05
1.40537e-05
1.40538e-05
1.40539e-05
1.4054e-05
1.40541e-05
1.40542e-05
1.40543e-05
1.40544e-05
1.40545e-05
1.40546e-05
1.40547e-05
1.40548e-05
1.4055e-05
1.40551e-05
1.40552e-05
1.40553e-05
1.40554e-05
1.40555e-05
1.40556e-05
1.40558e-05
1.40559e-05
1.4056e-05
1.40562e-05
1.40563e-05
1.40564e-05
1.40566e-05
1.40567e-05
1.40568e-05
1.4057e-05
1.40571e-05
1.40573e-05
1.40575e-05
1.40576e-05
1.40578e-05
1.4058e-05
1.40581e-05
1.40583e-05
1.40585e-05
1.40587e-05
1.40589e-05
1.40591e-05
1.40593e-05
1.40595e-05
1.40597e-05
1.40599e-05
1.40601e-05
1.40603e-05
1.40605e-05
1.40607e-05
1.40609e-05
1.40612e-05
1.40614e-05
1.40616e-05
1.40618e-05
1.40621e-05
1.40623e-05
1.40625e-05
1.40628e-05
1.4063e-05
1.40633e-05
1.40635e-05
1.40638e-05
1.4064e-05
1.40643e-05
1.40645e-05
1.40648e-05
1.40651e-05
1.40654e-05
1.40656e-05
1.40659e-05
1.40662e-05
1.40665e-05
1.40669e-05
1.40672e-05
1.40675e-05
1.40678e-05
1.40682e-05
1.40685e-05
1.40689e-05
1.40693e-05
1.40693e-05
1.40676e-05
1.40483e-05
1.40483e-05
1.40484e-05
1.40485e-05
1.40485e-05
1.40486e-05
1.40487e-05
1.40488e-05
1.40489e-05
1.4049e-05
1.40492e-05
1.40493e-05
1.40494e-05
1.40496e-05
1.40498e-05
1.40499e-05
1.40515e-05
1.40516e-05
1.40517e-05
1.40517e-05
1.40518e-05
1.40518e-05
1.40519e-05
1.4052e-05
1.40521e-05
1.40521e-05
1.40522e-05
1.40523e-05
1.40524e-05
1.40524e-05
1.40525e-05
1.40526e-05
1.40527e-05
1.40528e-05
1.40529e-05
1.4053e-05
1.40531e-05
1.40532e-05
1.40533e-05
1.40534e-05
1.40535e-05
1.40536e-05
1.40537e-05
1.40538e-05
1.40539e-05
1.4054e-05
1.40541e-05
1.40542e-05
1.40543e-05
1.40544e-05
1.40545e-05
1.40546e-05
1.40548e-05
1.40549e-05
1.4055e-05
1.40551e-05
1.40552e-05
1.40553e-05
1.40555e-05
1.40556e-05
1.40557e-05
1.40558e-05
1.4056e-05
1.40561e-05
1.40562e-05
1.40564e-05
1.40565e-05
1.40566e-05
1.40568e-05
1.40569e-05
1.40571e-05
1.40572e-05
1.40574e-05
1.40575e-05
1.40577e-05
1.40579e-05
1.4058e-05
1.40582e-05
1.40584e-05
1.40585e-05
1.40587e-05
1.40589e-05
1.40591e-05
1.40593e-05
1.40595e-05
1.40596e-05
1.40598e-05
1.406e-05
1.40603e-05
1.40605e-05
1.40607e-05
1.40609e-05
1.40611e-05
1.40613e-05
1.40616e-05
1.40618e-05
1.4062e-05
1.40623e-05
1.40625e-05
1.40627e-05
1.4063e-05
1.40633e-05
1.40635e-05
1.40638e-05
1.4064e-05
1.40643e-05
1.40646e-05
1.40649e-05
1.40652e-05
1.40655e-05
1.40658e-05
1.40661e-05
1.40664e-05
1.40667e-05
1.4067e-05
1.40674e-05
1.40677e-05
1.40681e-05
1.40684e-05
1.40688e-05
1.40692e-05
1.40695e-05
1.40699e-05
1.40703e-05
1.40707e-05
1.40711e-05
1.40716e-05
1.4072e-05
1.40724e-05
1.40729e-05
1.40733e-05
1.40738e-05
1.40742e-05
1.40747e-05
1.40752e-05
1.40757e-05
1.40762e-05
1.40767e-05
1.40772e-05
1.40777e-05
1.40782e-05
1.40788e-05
1.40793e-05
1.40799e-05
1.40804e-05
1.4081e-05
1.40816e-05
1.40822e-05
1.40828e-05
1.40834e-05
1.4084e-05
1.40846e-05
1.40853e-05
1.40859e-05
1.40866e-05
1.40873e-05
1.4088e-05
1.40888e-05
1.40895e-05
1.40903e-05
1.4091e-05
1.40919e-05
1.40927e-05
1.40935e-05
1.40944e-05
1.40953e-05
1.40961e-05
1.40971e-05
1.4098e-05
1.4099e-05
1.40999e-05
1.41009e-05
1.4102e-05
1.4103e-05
1.41041e-05
1.41051e-05
1.41062e-05
1.41073e-05
1.41085e-05
1.41096e-05
1.41108e-05
1.41119e-05
1.41131e-05
1.41143e-05
1.41155e-05
1.41167e-05
1.4118e-05
1.41192e-05
1.41205e-05
1.41218e-05
1.41231e-05
1.41244e-05
1.41258e-05
1.41272e-05
1.41286e-05
1.413e-05
1.41315e-05
1.4133e-05
1.41345e-05
1.41361e-05
1.41377e-05
1.41394e-05
1.41411e-05
1.41429e-05
1.41447e-05
1.41465e-05
1.41485e-05
1.41495e-05
1.41432e-05
1.40491e-05
1.40493e-05
1.40495e-05
1.40496e-05
1.40499e-05
1.40501e-05
1.40503e-05
1.40506e-05
1.40509e-05
1.40512e-05
1.40516e-05
1.40519e-05
1.40523e-05
1.40527e-05
1.40532e-05
1.40536e-05
1.40588e-05
1.4059e-05
1.40591e-05
1.40593e-05
1.40595e-05
1.40598e-05
1.406e-05
1.40602e-05
1.40604e-05
1.40606e-05
1.40609e-05
1.40611e-05
1.40614e-05
1.40617e-05
1.40619e-05
1.40622e-05
1.40625e-05
1.40628e-05
1.40631e-05
1.40634e-05
1.40637e-05
1.4064e-05
1.40643e-05
1.40647e-05
1.4065e-05
1.40653e-05
1.40657e-05
1.4066e-05
1.40664e-05
1.40667e-05
1.40671e-05
1.40675e-05
1.40678e-05
1.40682e-05
1.40686e-05
1.4069e-05
1.40693e-05
1.40697e-05
1.40701e-05
1.40705e-05
1.40709e-05
1.40713e-05
1.40718e-05
1.40722e-05
1.40726e-05
1.40731e-05
1.40735e-05
1.4074e-05
1.40744e-05
1.40749e-05
1.40754e-05
1.40759e-05
1.40764e-05
1.40769e-05
1.40774e-05
1.40779e-05
1.40785e-05
1.4079e-05
1.40796e-05
1.40802e-05
1.40808e-05
1.40814e-05
1.4082e-05
1.40826e-05
1.40832e-05
1.40839e-05
1.40846e-05
1.40852e-05
1.40859e-05
1.40866e-05
1.40874e-05
1.40881e-05
1.40889e-05
1.40896e-05
1.40904e-05
1.40912e-05
1.4092e-05
1.40929e-05
1.40937e-05
1.40946e-05
1.40955e-05
1.40964e-05
1.40973e-05
1.40982e-05
1.40992e-05
1.41001e-05
1.41011e-05
1.41021e-05
1.41031e-05
1.41042e-05
1.41052e-05
1.41063e-05
1.41074e-05
1.41085e-05
1.41096e-05
1.41107e-05
1.41119e-05
1.41131e-05
1.41144e-05
1.41156e-05
1.41169e-05
1.41182e-05
1.41196e-05
1.4121e-05
1.41224e-05
1.41238e-05
1.41253e-05
1.41268e-05
1.41284e-05
1.413e-05
1.41316e-05
1.41333e-05
1.4135e-05
1.41367e-05
1.41385e-05
1.41403e-05
1.41422e-05
1.41441e-05
1.4146e-05
1.4148e-05
1.415e-05
1.4152e-05
1.41541e-05
1.41562e-05
1.41583e-05
1.41604e-05
1.41626e-05
1.41649e-05
1.41671e-05
1.41694e-05
1.41718e-05
1.41741e-05
1.41766e-05
1.4179e-05
1.41815e-05
1.41841e-05
1.41867e-05
1.41894e-05
1.41921e-05
1.41949e-05
1.41978e-05
1.42008e-05
1.42038e-05
1.42069e-05
1.42101e-05
1.42134e-05
1.42167e-05
1.42202e-05
1.42238e-05
1.42275e-05
1.42313e-05
1.42352e-05
1.42392e-05
1.42434e-05
1.42476e-05
1.4252e-05
1.42565e-05
1.42612e-05
1.42659e-05
1.42708e-05
1.42757e-05
1.42808e-05
1.4286e-05
1.42912e-05
1.42966e-05
1.4302e-05
1.43075e-05
1.43131e-05
1.43187e-05
1.43244e-05
1.43301e-05
1.43359e-05
1.43417e-05
1.43476e-05
1.43535e-05
1.43595e-05
1.43655e-05
1.43716e-05
1.43778e-05
1.43841e-05
1.43904e-05
1.43969e-05
1.44035e-05
1.44101e-05
1.4417e-05
1.44239e-05
1.4431e-05
1.44383e-05
1.44458e-05
1.44534e-05
1.44612e-05
1.44673e-05
1.44465e-05
1.40512e-05
1.40517e-05
1.40521e-05
1.40526e-05
1.40532e-05
1.40537e-05
1.40544e-05
1.40551e-05
1.40558e-05
1.40567e-05
1.40575e-05
1.40585e-05
1.40595e-05
1.40605e-05
1.40617e-05
1.40779e-05
1.40784e-05
1.4079e-05
1.40796e-05
1.40802e-05
1.40808e-05
1.40814e-05
1.4082e-05
1.40827e-05
1.40834e-05
1.40841e-05
1.40849e-05
1.40856e-05
1.40864e-05
1.40872e-05
1.40881e-05
1.40889e-05
1.40898e-05
1.40907e-05
1.40916e-05
1.40926e-05
1.40935e-05
1.40945e-05
1.40955e-05
1.40966e-05
1.40976e-05
1.40987e-05
1.40997e-05
1.41008e-05
1.4102e-05
1.41031e-05
1.41042e-05
1.41054e-05
1.41066e-05
1.41077e-05
1.4109e-05
1.41102e-05
1.41114e-05
1.41127e-05
1.4114e-05
1.41153e-05
1.41166e-05
1.4118e-05
1.41194e-05
1.41208e-05
1.41222e-05
1.41237e-05
1.41252e-05
1.41267e-05
1.41283e-05
1.41299e-05
1.41315e-05
1.41331e-05
1.41348e-05
1.41365e-05
1.41383e-05
1.41401e-05
1.41419e-05
1.41437e-05
1.41456e-05
1.41475e-05
1.41495e-05
1.41515e-05
1.41536e-05
1.41556e-05
1.41578e-05
1.416e-05
1.41622e-05
1.41645e-05
1.41669e-05
1.41693e-05
1.41717e-05
1.41742e-05
1.41768e-05
1.41795e-05
1.41822e-05
1.41849e-05
1.41878e-05
1.41907e-05
1.41936e-05
1.41966e-05
1.41997e-05
1.42029e-05
1.42061e-05
1.42093e-05
1.42127e-05
1.42161e-05
1.42195e-05
1.42231e-05
1.42267e-05
1.42303e-05
1.42341e-05
1.42379e-05
1.42418e-05
1.42457e-05
1.42498e-05
1.42539e-05
1.42581e-05
1.42624e-05
1.42668e-05
1.42713e-05
1.42759e-05
1.42807e-05
1.42855e-05
1.42905e-05
1.42956e-05
1.43008e-05
1.43062e-05
1.43117e-05
1.43174e-05
1.43232e-05
1.43292e-05
1.43353e-05
1.43417e-05
1.43481e-05
1.43548e-05
1.43616e-05
1.43686e-05
1.43758e-05
1.43831e-05
1.43906e-05
1.43983e-05
1.44061e-05
1.4414e-05
1.44221e-05
1.44303e-05
1.44387e-05
1.44471e-05
1.44557e-05
1.44644e-05
1.44732e-05
1.4482e-05
1.4491e-05
1.45002e-05
1.45094e-05
1.45188e-05
1.45284e-05
1.45381e-05
1.4548e-05
1.45581e-05
1.45684e-05
1.45789e-05
1.45896e-05
1.46007e-05
1.46119e-05
1.46235e-05
1.46354e-05
1.46476e-05
1.46601e-05
1.4673e-05
1.46863e-05
1.47e-05
1.47141e-05
1.47286e-05
1.47436e-05
1.4759e-05
1.47749e-05
1.47913e-05
1.48082e-05
1.48256e-05
1.48435e-05
1.48619e-05
1.48808e-05
1.49002e-05
1.492e-05
1.49403e-05
1.49611e-05
1.49822e-05
1.50037e-05
1.50256e-05
1.50477e-05
1.50701e-05
1.50926e-05
1.51153e-05
1.5138e-05
1.51609e-05
1.51839e-05
1.5207e-05
1.52303e-05
1.52537e-05
1.52773e-05
1.5301e-05
1.5325e-05
1.53491e-05
1.53735e-05
1.53982e-05
1.54232e-05
1.54486e-05
1.54742e-05
1.55008e-05
1.55267e-05
1.55542e-05
1.55064e-05
1.40556e-05
1.40565e-05
1.40576e-05
1.40587e-05
1.40599e-05
1.40613e-05
1.40628e-05
1.40644e-05
1.40662e-05
1.40681e-05
1.40701e-05
1.40722e-05
1.40746e-05
1.4077e-05
1.40797e-05
1.40825e-05
1.41269e-05
1.41284e-05
1.413e-05
1.41316e-05
1.41332e-05
1.4135e-05
1.41367e-05
1.41386e-05
1.41405e-05
1.41424e-05
1.41444e-05
1.41465e-05
1.41487e-05
1.4151e-05
1.41533e-05
1.41557e-05
1.41581e-05
1.41607e-05
1.41633e-05
1.4166e-05
1.41687e-05
1.41715e-05
1.41744e-05
1.41774e-05
1.41804e-05
1.41834e-05
1.41865e-05
1.41897e-05
1.41929e-05
1.41962e-05
1.41995e-05
1.42029e-05
1.42063e-05
1.42097e-05
1.42133e-05
1.42169e-05
1.42205e-05
1.42242e-05
1.4228e-05
1.42318e-05
1.42358e-05
1.42398e-05
1.42438e-05
1.4248e-05
1.42523e-05
1.42566e-05
1.42611e-05
1.42656e-05
1.42702e-05
1.4275e-05
1.42798e-05
1.42848e-05
1.42898e-05
1.4295e-05
1.43002e-05
1.43056e-05
1.43111e-05
1.43166e-05
1.43223e-05
1.43282e-05
1.43341e-05
1.43402e-05
1.43464e-05
1.43527e-05
1.43592e-05
1.43659e-05
1.43727e-05
1.43796e-05
1.43868e-05
1.43941e-05
1.44015e-05
1.44092e-05
1.44171e-05
1.44251e-05
1.44334e-05
1.44419e-05
1.44506e-05
1.44595e-05
1.44686e-05
1.4478e-05
1.44876e-05
1.44975e-05
1.45075e-05
1.45179e-05
1.45284e-05
1.45392e-05
1.45502e-05
1.45614e-05
1.45728e-05
1.45845e-05
1.45963e-05
1.46083e-05
1.46205e-05
1.46329e-05
1.46454e-05
1.46582e-05
1.46712e-05
1.46843e-05
1.46977e-05
1.47114e-05
1.47253e-05
1.47396e-05
1.47541e-05
1.47689e-05
1.47841e-05
1.47997e-05
1.48156e-05
1.4832e-05
1.48488e-05
1.4866e-05
1.48837e-05
1.49019e-05
1.49206e-05
1.49399e-05
1.49596e-05
1.49799e-05
1.50008e-05
1.50222e-05
1.50442e-05
1.50668e-05
1.50899e-05
1.51136e-05
1.51378e-05
1.51627e-05
1.5188e-05
1.52139e-05
1.52402e-05
1.5267e-05
1.52942e-05
1.53218e-05
1.53497e-05
1.53778e-05
1.54061e-05
1.54346e-05
1.54634e-05
1.54924e-05
1.55217e-05
1.55512e-05
1.55811e-05
1.56112e-05
1.56417e-05
1.56725e-05
1.57037e-05
1.57353e-05
1.57673e-05
1.57999e-05
1.58331e-05
1.58669e-05
1.59013e-05
1.59366e-05
1.59726e-05
1.60096e-05
1.60476e-05
1.60867e-05
1.61269e-05
1.61684e-05
1.62112e-05
1.62555e-05
1.63013e-05
1.63486e-05
1.63975e-05
1.64481e-05
1.65004e-05
1.65543e-05
1.661e-05
1.66673e-05
1.67262e-05
1.67867e-05
1.68486e-05
1.69119e-05
1.69766e-05
1.70423e-05
1.7109e-05
1.71753e-05
1.72413e-05
1.73067e-05
1.73717e-05
1.74359e-05
1.74996e-05
1.75623e-05
1.76246e-05
1.76857e-05
1.77462e-05
1.78057e-05
1.78642e-05
1.79221e-05
1.79781e-05
1.80346e-05
1.80875e-05
1.81427e-05
1.81922e-05
1.82538e-05
1.82222e-05
1.40671e-05
1.40694e-05
1.4072e-05
1.40748e-05
1.40779e-05
1.40812e-05
1.40848e-05
1.40887e-05
1.4093e-05
1.40976e-05
1.41025e-05
1.41077e-05
1.41133e-05
1.42487e-05
1.42528e-05
1.42569e-05
1.42612e-05
1.42656e-05
1.42701e-05
1.42748e-05
1.42797e-05
1.42847e-05
1.42899e-05
1.42953e-05
1.43009e-05
1.43067e-05
1.43127e-05
1.43189e-05
1.43253e-05
1.43319e-05
1.43387e-05
1.43457e-05
1.43529e-05
1.43604e-05
1.4368e-05
1.43758e-05
1.43839e-05
1.43921e-05
1.44005e-05
1.4409e-05
1.44177e-05
1.44266e-05
1.44356e-05
1.44448e-05
1.44542e-05
1.44636e-05
1.44733e-05
1.44831e-05
1.44931e-05
1.45033e-05
1.45136e-05
1.45241e-05
1.45349e-05
1.45458e-05
1.4557e-05
1.45684e-05
1.458e-05
1.4592e-05
1.46041e-05
1.46166e-05
1.46293e-05
1.46424e-05
1.46557e-05
1.46693e-05
1.46833e-05
1.46975e-05
1.47121e-05
1.47269e-05
1.47421e-05
1.47575e-05
1.47732e-05
1.47892e-05
1.48055e-05
1.4822e-05
1.48388e-05
1.48559e-05
1.48733e-05
1.4891e-05
1.49091e-05
1.49275e-05
1.49462e-05
1.49654e-05
1.4985e-05
1.5005e-05
1.50255e-05
1.50464e-05
1.50679e-05
1.50898e-05
1.51123e-05
1.51354e-05
1.51591e-05
1.51833e-05
1.52081e-05
1.52336e-05
1.52596e-05
1.52863e-05
1.53137e-05
1.53416e-05
1.53702e-05
1.53994e-05
1.54293e-05
1.54597e-05
1.54907e-05
1.55222e-05
1.55543e-05
1.55869e-05
1.56198e-05
1.56532e-05
1.56869e-05
1.57209e-05
1.57553e-05
1.57902e-05
1.58254e-05
1.58611e-05
1.58972e-05
1.59337e-05
1.59708e-05
1.60083e-05
1.60464e-05
1.60851e-05
1.61243e-05
1.61642e-05
1.62048e-05
1.6246e-05
1.62881e-05
1.6331e-05
1.63748e-05
1.64196e-05
1.64654e-05
1.65123e-05
1.65603e-05
1.66095e-05
1.666e-05
1.67118e-05
1.67649e-05
1.68193e-05
1.6875e-05
1.69321e-05
1.69904e-05
1.70499e-05
1.71105e-05
1.71722e-05
1.72349e-05
1.72985e-05
1.73621e-05
1.74253e-05
1.74879e-05
1.75499e-05
1.76112e-05
1.76719e-05
1.77319e-05
1.77911e-05
1.78497e-05
1.79074e-05
1.79645e-05
1.80207e-05
1.80762e-05
1.8131e-05
1.8185e-05
1.82381e-05
1.82905e-05
1.8342e-05
1.83926e-05
1.84422e-05
1.84908e-05
1.85382e-05
1.85844e-05
1.86293e-05
1.86729e-05
1.8715e-05
1.87555e-05
1.87945e-05
1.88319e-05
1.88676e-05
1.89017e-05
1.89341e-05
1.8965e-05
1.89942e-05
1.90219e-05
1.90482e-05
1.90729e-05
1.90964e-05
1.91185e-05
1.91393e-05
1.9159e-05
1.91774e-05
1.91952e-05
1.92121e-05
1.92285e-05
1.92441e-05
1.92594e-05
1.92737e-05
1.92882e-05
1.93014e-05
1.9315e-05
1.93271e-05
1.93399e-05
1.93511e-05
1.93629e-05
1.93734e-05
1.93839e-05
1.93943e-05
1.94028e-05
1.94129e-05
1.94222e-05
1.94015e-05
1.40947e-05
1.41004e-05
1.41065e-05
1.41133e-05
1.41206e-05
1.41286e-05
1.41373e-05
1.41467e-05
1.41568e-05
1.41676e-05
1.41792e-05
1.41915e-05
1.42046e-05
1.45355e-05
1.45455e-05
1.45559e-05
1.45665e-05
1.45775e-05
1.45888e-05
1.46004e-05
1.46125e-05
1.4625e-05
1.46379e-05
1.46513e-05
1.46651e-05
1.46794e-05
1.46943e-05
1.47096e-05
1.47254e-05
1.47418e-05
1.47587e-05
1.47761e-05
1.47941e-05
1.48125e-05
1.48315e-05
1.48509e-05
1.48709e-05
1.48912e-05
1.4912e-05
1.49332e-05
1.49548e-05
1.49767e-05
1.4999e-05
1.50215e-05
1.50444e-05
1.50675e-05
1.5091e-05
1.51147e-05
1.51388e-05
1.51632e-05
1.51879e-05
1.5213e-05
1.52385e-05
1.52644e-05
1.52908e-05
1.53177e-05
1.53451e-05
1.5373e-05
1.54015e-05
1.54306e-05
1.54603e-05
1.54906e-05
1.55215e-05
1.55531e-05
1.55854e-05
1.56183e-05
1.56518e-05
1.5686e-05
1.57208e-05
1.57562e-05
1.57922e-05
1.58288e-05
1.58659e-05
1.59034e-05
1.59414e-05
1.59799e-05
1.60188e-05
1.60581e-05
1.60979e-05
1.61383e-05
1.61791e-05
1.62205e-05
1.62624e-05
1.63049e-05
1.6348e-05
1.63916e-05
1.64359e-05
1.64808e-05
1.65264e-05
1.65727e-05
1.66197e-05
1.66675e-05
1.6716e-05
1.67655e-05
1.68158e-05
1.6867e-05
1.69192e-05
1.69724e-05
1.70266e-05
1.70818e-05
1.7138e-05
1.71951e-05
1.72532e-05
1.73121e-05
1.73717e-05
1.74321e-05
1.74931e-05
1.75541e-05
1.76144e-05
1.76741e-05
1.77329e-05
1.7791e-05
1.78482e-05
1.79045e-05
1.79598e-05
1.80142e-05
1.80676e-05
1.81201e-05
1.81717e-05
1.82224e-05
1.82722e-05
1.83213e-05
1.83695e-05
1.84169e-05
1.84635e-05
1.85092e-05
1.85542e-05
1.85982e-05
1.86413e-05
1.86833e-05
1.87242e-05
1.87638e-05
1.88022e-05
1.88392e-05
1.88748e-05
1.89088e-05
1.89414e-05
1.89724e-05
1.90018e-05
1.90298e-05
1.90563e-05
1.90813e-05
1.9105e-05
1.91274e-05
1.91487e-05
1.91692e-05
1.9189e-05
1.9208e-05
1.92264e-05
1.92443e-05
1.92616e-05
1.92783e-05
1.92946e-05
1.93103e-05
1.93254e-05
1.93399e-05
1.93538e-05
1.93669e-05
1.93794e-05
1.9391e-05
1.94018e-05
1.94118e-05
1.94209e-05
1.94293e-05
1.94368e-05
1.94436e-05
1.94497e-05
1.94553e-05
1.94603e-05
1.9465e-05
1.94694e-05
1.94735e-05
1.94775e-05
1.94815e-05
1.94854e-05
1.94894e-05
1.94935e-05
1.94977e-05
1.95021e-05
1.95065e-05
1.95111e-05
1.95157e-05
1.95206e-05
1.95253e-05
1.95302e-05
1.9535e-05
1.95399e-05
1.95447e-05
1.95495e-05
1.9554e-05
1.95585e-05
1.95628e-05
1.95668e-05
1.95708e-05
1.95743e-05
1.95778e-05
1.95806e-05
1.95838e-05
1.95858e-05
1.95888e-05
1.959e-05
1.95928e-05
1.95933e-05
1.95954e-05
1.95965e-05
1.95921e-05
1.41479e-05
1.416e-05
1.41732e-05
1.41877e-05
1.42035e-05
1.42206e-05
1.42391e-05
1.4259e-05
1.42805e-05
1.43036e-05
1.43282e-05
1.43545e-05
1.43825e-05
1.4412e-05
1.51566e-05
1.51788e-05
1.52015e-05
1.52247e-05
1.52486e-05
1.5273e-05
1.52981e-05
1.53239e-05
1.53505e-05
1.53778e-05
1.5406e-05
1.54351e-05
1.5465e-05
1.54958e-05
1.55276e-05
1.55604e-05
1.55941e-05
1.56288e-05
1.56644e-05
1.5701e-05
1.57386e-05
1.57771e-05
1.58165e-05
1.58567e-05
1.58978e-05
1.59396e-05
1.59821e-05
1.60253e-05
1.60691e-05
1.61134e-05
1.61581e-05
1.62031e-05
1.62485e-05
1.62941e-05
1.634e-05
1.63861e-05
1.64326e-05
1.64793e-05
1.65263e-05
1.65736e-05
1.66212e-05
1.66693e-05
1.67177e-05
1.67666e-05
1.68159e-05
1.68657e-05
1.6916e-05
1.69668e-05
1.70182e-05
1.70702e-05
1.71229e-05
1.71761e-05
1.723e-05
1.72845e-05
1.73396e-05
1.73953e-05
1.74516e-05
1.75084e-05
1.75657e-05
1.76234e-05
1.76814e-05
1.7739e-05
1.77959e-05
1.78521e-05
1.79075e-05
1.79621e-05
1.80158e-05
1.80684e-05
1.81201e-05
1.81707e-05
1.82203e-05
1.82689e-05
1.83165e-05
1.8363e-05
1.84086e-05
1.84533e-05
1.84971e-05
1.85399e-05
1.85819e-05
1.8623e-05
1.86631e-05
1.87022e-05
1.87403e-05
1.87774e-05
1.88131e-05
1.88476e-05
1.88807e-05
1.89124e-05
1.89425e-05
1.89712e-05
1.89983e-05
1.90239e-05
1.90481e-05
1.90707e-05
1.90923e-05
1.91129e-05
1.91326e-05
1.91517e-05
1.91701e-05
1.9188e-05
1.92056e-05
1.92228e-05
1.92397e-05
1.92563e-05
1.92726e-05
1.92887e-05
1.93042e-05
1.93194e-05
1.9334e-05
1.93479e-05
1.93611e-05
1.93736e-05
1.93851e-05
1.93958e-05
1.94056e-05
1.94145e-05
1.94226e-05
1.943e-05
1.94366e-05
1.94428e-05
1.94484e-05
1.94537e-05
1.94588e-05
1.94638e-05
1.94686e-05
1.94735e-05
1.94784e-05
1.94834e-05
1.94885e-05
1.94936e-05
1.94989e-05
1.95042e-05
1.95095e-05
1.95148e-05
1.95201e-05
1.95252e-05
1.95303e-05
1.95351e-05
1.95397e-05
1.9544e-05
1.95479e-05
1.95515e-05
1.95548e-05
1.95576e-05
1.95602e-05
1.95624e-05
1.95642e-05
1.95658e-05
1.95672e-05
1.95685e-05
1.95695e-05
1.95705e-05
1.95715e-05
1.95725e-05
1.95735e-05
1.95746e-05
1.95758e-05
1.95771e-05
1.95785e-05
1.95801e-05
1.95818e-05
1.95836e-05
1.95856e-05
1.95876e-05
1.95897e-05
1.95918e-05
1.9594e-05
1.95961e-05
1.95982e-05
1.96002e-05
1.96021e-05
1.96039e-05
1.96056e-05
1.96072e-05
1.96087e-05
1.961e-05
1.96113e-05
1.96124e-05
1.96135e-05
1.96144e-05
1.96153e-05
1.9616e-05
1.9617e-05
1.96175e-05
1.96184e-05
1.96188e-05
1.96197e-05
1.96201e-05
1.96211e-05
1.96215e-05
1.96224e-05
1.96233e-05
1.96225e-05
1.42818e-05
1.43093e-05
1.43394e-05
1.43721e-05
1.44075e-05
1.44457e-05
1.44869e-05
1.45309e-05
1.4578e-05
1.4628e-05
1.4681e-05
1.47369e-05
1.47955e-05
1.48567e-05
1.62825e-05
1.63218e-05
1.63616e-05
1.64022e-05
1.64434e-05
1.64853e-05
1.6528e-05
1.65716e-05
1.66161e-05
1.66614e-05
1.67078e-05
1.67551e-05
1.68033e-05
1.68526e-05
1.69029e-05
1.69542e-05
1.70064e-05
1.70596e-05
1.71136e-05
1.71685e-05
1.72242e-05
1.72806e-05
1.73377e-05
1.73952e-05
1.74533e-05
1.75118e-05
1.75705e-05
1.76295e-05
1.76885e-05
1.77476e-05
1.78065e-05
1.78647e-05
1.79219e-05
1.79781e-05
1.80331e-05
1.8087e-05
1.81396e-05
1.8191e-05
1.8241e-05
1.82897e-05
1.83371e-05
1.83831e-05
1.84279e-05
1.84714e-05
1.85136e-05
1.85547e-05
1.85947e-05
1.86336e-05
1.86714e-05
1.87082e-05
1.87439e-05
1.87786e-05
1.88122e-05
1.88446e-05
1.88759e-05
1.89059e-05
1.89347e-05
1.89621e-05
1.89882e-05
1.90129e-05
1.90363e-05
1.90586e-05
1.90798e-05
1.91001e-05
1.91196e-05
1.91382e-05
1.91562e-05
1.91735e-05
1.91904e-05
1.92069e-05
1.92229e-05
1.92386e-05
1.92539e-05
1.92688e-05
1.92833e-05
1.92973e-05
1.93106e-05
1.93234e-05
1.93355e-05
1.93467e-05
1.93572e-05
1.93669e-05
1.93758e-05
1.93838e-05
1.93914e-05
1.93984e-05
1.94047e-05
1.94108e-05
1.94166e-05
1.94223e-05
1.94278e-05
1.94335e-05
1.94391e-05
1.94449e-05
1.94509e-05
1.9457e-05
1.94632e-05
1.94697e-05
1.94761e-05
1.94825e-05
1.9489e-05
1.94952e-05
1.95012e-05
1.95069e-05
1.95123e-05
1.95171e-05
1.95215e-05
1.95256e-05
1.9529e-05
1.95321e-05
1.95348e-05
1.95371e-05
1.95392e-05
1.9541e-05
1.95428e-05
1.95445e-05
1.95461e-05
1.95478e-05
1.95495e-05
1.95513e-05
1.95533e-05
1.95555e-05
1.95578e-05
1.95603e-05
1.95629e-05
1.95656e-05
1.95684e-05
1.95713e-05
1.95742e-05
1.95771e-05
1.95799e-05
1.95825e-05
1.9585e-05
1.95873e-05
1.95894e-05
1.95913e-05
1.9593e-05
1.95944e-05
1.95956e-05
1.95967e-05
1.95975e-05
1.95982e-05
1.95987e-05
1.95992e-05
1.95995e-05
1.95998e-05
1.96001e-05
1.96003e-05
1.96005e-05
1.96008e-05
1.96012e-05
1.96016e-05
1.96021e-05
1.96027e-05
1.96034e-05
1.96042e-05
1.96052e-05
1.96062e-05
1.96073e-05
1.96086e-05
1.96099e-05
1.96112e-05
1.96127e-05
1.96141e-05
1.96157e-05
1.96172e-05
1.96187e-05
1.96202e-05
1.96218e-05
1.96233e-05
1.96247e-05
1.96261e-05
1.96275e-05
1.96288e-05
1.96301e-05
1.96313e-05
1.96325e-05
1.96335e-05
1.96345e-05
1.96354e-05
1.96364e-05
1.96372e-05
1.96381e-05
1.96388e-05
1.96397e-05
1.96404e-05
1.96413e-05
1.96422e-05
1.96432e-05
1.96441e-05
1.96452e-05
1.96468e-05
1.96466e-05
1.45775e-05
1.46372e-05
1.47018e-05
1.47711e-05
1.48452e-05
1.49241e-05
1.50077e-05
1.50961e-05
1.51891e-05
1.52869e-05
1.53892e-05
1.54957e-05
1.56059e-05
1.57191e-05
1.7814e-05
1.78611e-05
1.7908e-05
1.79545e-05
1.80006e-05
1.80463e-05
1.80917e-05
1.81366e-05
1.81811e-05
1.82252e-05
1.82686e-05
1.83116e-05
1.83539e-05
1.83956e-05
1.84367e-05
1.8477e-05
1.85166e-05
1.85556e-05
1.85938e-05
1.86311e-05
1.86676e-05
1.87034e-05
1.87384e-05
1.87725e-05
1.88056e-05
1.88377e-05
1.88688e-05
1.88988e-05
1.89278e-05
1.89555e-05
1.89821e-05
1.90076e-05
1.90321e-05
1.90556e-05
1.9078e-05
1.90994e-05
1.91198e-05
1.91393e-05
1.91579e-05
1.91757e-05
1.91927e-05
1.9209e-05
1.92246e-05
1.92396e-05
1.9254e-05
1.92678e-05
1.9281e-05
1.92935e-05
1.93054e-05
1.93166e-05
1.93271e-05
1.93369e-05
1.93461e-05
1.93547e-05
1.93626e-05
1.937e-05
1.9377e-05
1.93836e-05
1.93898e-05
1.93959e-05
1.94018e-05
1.94077e-05
1.94135e-05
1.94194e-05
1.94253e-05
1.94313e-05
1.94373e-05
1.94433e-05
1.94493e-05
1.94551e-05
1.94608e-05
1.94663e-05
1.94713e-05
1.94761e-05
1.94805e-05
1.94844e-05
1.9488e-05
1.94914e-05
1.94943e-05
1.9497e-05
1.94996e-05
1.95021e-05
1.95044e-05
1.95069e-05
1.95093e-05
1.95119e-05
1.95147e-05
1.95176e-05
1.95207e-05
1.9524e-05
1.95276e-05
1.95312e-05
1.95349e-05
1.95389e-05
1.95426e-05
1.95464e-05
1.95501e-05
1.95535e-05
1.95567e-05
1.95598e-05
1.95624e-05
1.95647e-05
1.95669e-05
1.95687e-05
1.95702e-05
1.95715e-05
1.95727e-05
1.95736e-05
1.95744e-05
1.95751e-05
1.95758e-05
1.95765e-05
1.95772e-05
1.9578e-05
1.95788e-05
1.95797e-05
1.95808e-05
1.9582e-05
1.95834e-05
1.95848e-05
1.95864e-05
1.9588e-05
1.95898e-05
1.95915e-05
1.95933e-05
1.95951e-05
1.95969e-05
1.95987e-05
1.96004e-05
1.9602e-05
1.96035e-05
1.96049e-05
1.96063e-05
1.96075e-05
1.96086e-05
1.96096e-05
1.96105e-05
1.96113e-05
1.9612e-05
1.96126e-05
1.96132e-05
1.96137e-05
1.96141e-05
1.96145e-05
1.9615e-05
1.96154e-05
1.96159e-05
1.96165e-05
1.96171e-05
1.96178e-05
1.96186e-05
1.96195e-05
1.96205e-05
1.96217e-05
1.96229e-05
1.96242e-05
1.96255e-05
1.9627e-05
1.96285e-05
1.96301e-05
1.96317e-05
1.96333e-05
1.9635e-05
1.96367e-05
1.96384e-05
1.96401e-05
1.96418e-05
1.96435e-05
1.96452e-05
1.96468e-05
1.96484e-05
1.96499e-05
1.96515e-05
1.9653e-05
1.96544e-05
1.96557e-05
1.96571e-05
1.96584e-05
1.96597e-05
1.9661e-05
1.96623e-05
1.96636e-05
1.96649e-05
1.96663e-05
1.96677e-05
1.96692e-05
1.96707e-05
1.96723e-05
1.9674e-05
1.96758e-05
1.96776e-05
1.96804e-05
1.96803e-05
1.51843e-05
1.53011e-05
1.54253e-05
1.55568e-05
1.56951e-05
1.58395e-05
1.59891e-05
1.61433e-05
1.63014e-05
1.64627e-05
1.66264e-05
1.67913e-05
1.69564e-05
1.89395e-05
1.89601e-05
1.89801e-05
1.89995e-05
1.90182e-05
1.90364e-05
1.9054e-05
1.9071e-05
1.90875e-05
1.91035e-05
1.9119e-05
1.91341e-05
1.91488e-05
1.9163e-05
1.91769e-05
1.91905e-05
1.92036e-05
1.92162e-05
1.92285e-05
1.92405e-05
1.92521e-05
1.92633e-05
1.92739e-05
1.92841e-05
1.92939e-05
1.93034e-05
1.93126e-05
1.93215e-05
1.93299e-05
1.9338e-05
1.93459e-05
1.93534e-05
1.93608e-05
1.9368e-05
1.9375e-05
1.9382e-05
1.93889e-05
1.93957e-05
1.94023e-05
1.94089e-05
1.94153e-05
1.94215e-05
1.94275e-05
1.94331e-05
1.94384e-05
1.94433e-05
1.94479e-05
1.94521e-05
1.94561e-05
1.94597e-05
1.94631e-05
1.94664e-05
1.94695e-05
1.94724e-05
1.94754e-05
1.94784e-05
1.94815e-05
1.94846e-05
1.94879e-05
1.94913e-05
1.94947e-05
1.94984e-05
1.9502e-05
1.95056e-05
1.95093e-05
1.95127e-05
1.95161e-05
1.95194e-05
1.95222e-05
1.95249e-05
1.95274e-05
1.95295e-05
1.95314e-05
1.95333e-05
1.95348e-05
1.95362e-05
1.95376e-05
1.95389e-05
1.95402e-05
1.95416e-05
1.9543e-05
1.95445e-05
1.95462e-05
1.9548e-05
1.95498e-05
1.95519e-05
1.95542e-05
1.95565e-05
1.95588e-05
1.95614e-05
1.95638e-05
1.95661e-05
1.95687e-05
1.9571e-05
1.9573e-05
1.95753e-05
1.95773e-05
1.95789e-05
1.95807e-05
1.95823e-05
1.95834e-05
1.95846e-05
1.95858e-05
1.95866e-05
1.95874e-05
1.95883e-05
1.9589e-05
1.95896e-05
1.95904e-05
1.95912e-05
1.9592e-05
1.95929e-05
1.95939e-05
1.9595e-05
1.95962e-05
1.95976e-05
1.9599e-05
1.96005e-05
1.96021e-05
1.96038e-05
1.96055e-05
1.96072e-05
1.9609e-05
1.96108e-05
1.96125e-05
1.96142e-05
1.96158e-05
1.96174e-05
1.96189e-05
1.96203e-05
1.96216e-05
1.96229e-05
1.9624e-05
1.96251e-05
1.96261e-05
1.9627e-05
1.96279e-05
1.96287e-05
1.96295e-05
1.96302e-05
1.9631e-05
1.96317e-05
1.96325e-05
1.96334e-05
1.96343e-05
1.96352e-05
1.96363e-05
1.96374e-05
1.96386e-05
1.964e-05
1.96414e-05