/*--------------------------------*- C++ -*----------------------------------*\
| =========                 |                                                 |
| \\      /  F ield         | OpenFOAM: The Open Source CFD Toolbox           |
|  \\    /   O peration     | Version:  v1706                                 |
|   \\  /    A nd           | Web:      www.OpenFOAM.com                      |
|    \\/     M anipulation  |                                                 |
\*---------------------------------------------------------------------------*/
FoamFile
{
    version     2.0;
    format      ascii;
    class       volScalarField;
    location    "1.8e-05";
    object      Mach;
}
// * * * * * * * * * * * * * * * * * * * * * * * * * * * * * * * * * * * * * //

dimensions      [0 0 0 0 0 0 0];


internalField   nonuniform List<scalar> 
30104
(
3.99497
3.99497
3.99497
3.99497
3.99497
3.99496
3.99496
3.99496
3.99496
3.99496
3.99496
3.99495
3.99495
3.99495
3.99495
3.99495
3.99494
3.99493
3.99493
3.99493
3.99493
3.99493
3.99493
3.99493
3.99493
3.99493
3.99493
3.99493
3.99492
3.99492
3.99492
3.99492
3.99492
3.99492
3.99492
3.99492
3.99492
3.99492
3.99492
3.99491
3.99491
3.99491
3.99491
3.99491
3.99491
3.99491
3.99491
3.99491
3.99491
3.9949
3.9949
3.9949
3.9949
3.9949
3.9949
3.9949
3.9949
3.9949
3.9949
3.99489
3.99489
3.99489
3.99489
3.99489
3.99489
3.99489
3.99489
3.99489
3.99488
3.99488
3.99488
3.99488
3.99488
3.99488
3.99488
3.99488
3.99487
3.99487
3.99487
3.99487
3.99487
3.99487
3.99487
3.99486
3.99486
3.99486
3.99486
3.99486
3.99486
3.99485
3.99485
3.99485
3.99485
3.99485
3.99485
3.99484
3.99484
3.99484
3.99484
3.99484
3.99483
3.99483
3.99483
3.99483
3.99483
3.99482
3.99482
3.99482
3.99482
3.99482
3.99481
3.99481
3.99481
3.99481
3.9948
3.9948
3.9948
3.9948
3.99479
3.99479
3.99479
3.99479
3.99478
3.99478
3.99478
3.99478
3.99477
3.99477
3.99477
3.99477
3.99476
3.99476
3.99476
3.99475
3.99475
3.99475
3.99474
3.99474
3.99474
3.99473
3.99473
3.99473
3.99472
3.99472
3.99472
3.99471
3.99471
3.99471
3.9947
3.9947
3.99469
3.99469
3.99468
3.99468
3.99468
3.99467
3.99467
3.99466
3.99466
3.99465
3.99465
3.99464
3.99464
3.99463
3.99462
3.99462
3.99461
3.99461
3.9946
3.9946
3.99459
3.99458
3.99458
3.99457
3.99457
3.99456
3.99455
3.99455
3.99454
3.99453
3.99453
3.99452
3.99451
3.99451
3.9945
3.99449
3.99449
3.99448
3.99447
3.99447
3.99446
3.99445
3.99444
3.99444
3.99443
3.99442
3.99441
3.99441
3.9944
3.99439
3.99438
3.99437
3.99436
3.99436
3.99435
3.99434
3.99433
3.99432
3.99433
3.99442
3.99494
3.99493
3.99492
3.99492
3.99491
3.9949
3.9949
3.99489
3.99488
3.99487
3.99486
3.99485
3.99483
3.99482
3.99481
3.99479
3.99478
3.99468
3.99468
3.99468
3.99467
3.99467
3.99466
3.99466
3.99465
3.99465
3.99464
3.99464
3.99463
3.99462
3.99462
3.99461
3.99461
3.9946
3.99459
3.99459
3.99458
3.99457
3.99457
3.99456
3.99455
3.99455
3.99454
3.99453
3.99452
3.99452
3.99451
3.9945
3.99449
3.99449
3.99448
3.99447
3.99446
3.99446
3.99445
3.99444
3.99443
3.99443
3.99442
3.99441
3.9944
3.99439
3.99438
3.99438
3.99437
3.99436
3.99435
3.99434
3.99433
3.99432
3.99431
3.9943
3.99429
3.99428
3.99427
3.99426
3.99425
3.99424
3.99423
3.99422
3.99421
3.9942
3.99418
3.99417
3.99416
3.99415
3.99414
3.99412
3.99411
3.9941
3.99408
3.99407
3.99406
3.99404
3.99403
3.99402
3.994
3.99399
3.99397
3.99396
3.99394
3.99392
3.99391
3.99389
3.99388
3.99386
3.99384
3.99382
3.99381
3.99379
3.99377
3.99375
3.99373
3.99371
3.99369
3.99367
3.99365
3.99363
3.99361
3.99358
3.99356
3.99354
3.99352
3.99349
3.99347
3.99344
3.99342
3.99339
3.99337
3.99334
3.99332
3.99329
3.99326
3.99323
3.99321
3.99318
3.99315
3.99312
3.99309
3.99306
3.99303
3.993
3.99297
3.99294
3.99291
3.99287
3.99284
3.99281
3.99277
3.99274
3.9927
3.99267
3.99263
3.99259
3.99255
3.99252
3.99248
3.99244
3.9924
3.99235
3.99231
3.99227
3.99223
3.99218
3.99214
3.99209
3.99204
3.992
3.99195
3.9919
3.99185
3.9918
3.99175
3.99169
3.99164
3.99159
3.99153
3.99148
3.99142
3.99136
3.9913
3.99124
3.99118
3.99112
3.99105
3.99099
3.99092
3.99085
3.99079
3.99072
3.99064
3.99057
3.99049
3.99042
3.99034
3.99026
3.99017
3.99009
3.99
3.98991
3.98982
3.98972
3.98963
3.98953
3.98943
3.98932
3.98922
3.9891
3.98908
3.98951
3.99485
3.99483
3.99481
3.99479
3.99477
3.99475
3.99472
3.9947
3.99467
3.99464
3.9946
3.99457
3.99453
3.99449
3.99444
3.9944
3.99398
3.99396
3.99394
3.99393
3.99391
3.99389
3.99388
3.99386
3.99384
3.99382
3.9938
3.99378
3.99375
3.99373
3.99371
3.99369
3.99366
3.99364
3.99361
3.99359
3.99356
3.99354
3.99351
3.99348
3.99346
3.99343
3.9934
3.99337
3.99335
3.99332
3.99329
3.99326
3.99323
3.9932
3.99317
3.99314
3.99311
3.99308
3.99305
3.99302
3.99299
3.99296
3.99293
3.99289
3.99286
3.99283
3.99279
3.99276
3.99272
3.99268
3.99265
3.99261
3.99257
3.99253
3.99249
3.99245
3.99241
3.99237
3.99232
3.99228
3.99224
3.99219
3.99214
3.9921
3.99205
3.992
3.99195
3.9919
3.99185
3.99179
3.99174
3.99168
3.99163
3.99157
3.99151
3.99146
3.9914
3.99133
3.99127
3.99121
3.99115
3.99108
3.99102
3.99095
3.99088
3.99081
3.99074
3.99067
3.9906
3.99052
3.99045
3.99037
3.99029
3.99021
3.99013
3.99005
3.98997
3.98988
3.98979
3.9897
3.98961
3.98952
3.98942
3.98933
3.98923
3.98913
3.98902
3.98892
3.98881
3.9887
3.98859
3.98848
3.98836
3.98825
3.98813
3.98801
3.98789
3.98776
3.98763
3.98751
3.98737
3.98724
3.98711
3.98697
3.98683
3.98669
3.98654
3.98639
3.98624
3.98609
3.98593
3.98577
3.98561
3.98544
3.98527
3.9851
3.98492
3.98474
3.98455
3.98436
3.98416
3.98396
3.98375
3.98354
3.98332
3.98309
3.98287
3.98263
3.98239
3.98214
3.98189
3.98163
3.98137
3.9811
3.98083
3.98055
3.98027
3.97998
3.97969
3.97939
3.97909
3.97878
3.97847
3.97816
3.97784
3.97752
3.97719
3.97687
3.97653
3.9762
3.97586
3.97551
3.97516
3.97481
3.97445
3.97409
3.97372
3.97335
3.97297
3.97258
3.97219
3.97179
3.97138
3.97096
3.97054
3.9701
3.96966
3.96921
3.96874
3.96827
3.96778
3.96749
3.96921
3.99461
3.99457
3.99452
3.99447
3.99441
3.99435
3.99428
3.99421
3.99413
3.99404
3.99395
3.99385
3.99375
3.99363
3.99351
3.99339
3.99204
3.99199
3.99194
3.99189
3.99184
3.99178
3.99172
3.99166
3.9916
3.99154
3.99148
3.99141
3.99134
3.99127
3.9912
3.99112
3.99105
3.99097
3.99089
3.99081
3.99072
3.99064
3.99055
3.99046
3.99037
3.99028
3.99019
3.9901
3.99
3.98991
3.98981
3.98971
3.98961
3.98951
3.98941
3.98931
3.98921
3.9891
3.989
3.98889
3.98878
3.98867
3.98855
3.98844
3.98832
3.9882
3.98808
3.98796
3.98783
3.9877
3.98757
3.98744
3.98731
3.98717
3.98703
3.98689
3.98674
3.98659
3.98644
3.98629
3.98613
3.98597
3.98581
3.98565
3.98548
3.9853
3.98513
3.98495
3.98476
3.98457
3.98438
3.98419
3.98399
3.98378
3.98358
3.98336
3.98315
3.98293
3.9827
3.98247
3.98224
3.982
3.98176
3.98151
3.98126
3.981
3.98074
3.98047
3.9802
3.97992
3.97964
3.97935
3.97905
3.97875
3.97844
3.97813
3.97781
3.97748
3.97714
3.9768
3.97645
3.97609
3.97572
3.97535
3.97496
3.97456
3.97416
3.97375
3.97332
3.97289
3.97244
3.97199
3.97153
3.97105
3.97057
3.97007
3.96957
3.96905
3.96853
3.968
3.96746
3.96691
3.96635
3.96579
3.96521
3.96463
3.96404
3.96344
3.96283
3.96221
3.96158
3.96094
3.96029
3.95963
3.95896
3.95827
3.95757
3.95685
3.95612
3.95537
3.95461
3.95383
3.95303
3.95221
3.95137
3.95051
3.94962
3.94872
3.94779
3.94684
3.94587
3.94487
3.94384
3.94279
3.94172
3.94062
3.93949
3.93834
3.93716
3.93595
3.93472
3.93345
3.93217
3.93085
3.92952
3.92815
3.92677
3.92536
3.92392
3.92247
3.92099
3.91949
3.91798
3.91644
3.91487
3.91329
3.91167
3.91003
3.90836
3.90667
3.90493
3.90317
3.90136
3.89952
3.89763
3.8957
3.89372
3.89169
3.8896
3.88751
3.88525
3.88337
3.88853
3.99403
3.99392
3.9938
3.99366
3.99351
3.99335
3.99317
3.99298
3.99278
3.99256
3.99232
3.99207
3.9918
3.99151
3.9912
3.98695
3.9868
3.98665
3.9865
3.98634
3.98617
3.986
3.98583
3.98564
3.98546
3.98526
3.98506
3.98486
3.98464
3.98442
3.9842
3.98397
3.98373
3.98348
3.98324
3.98298
3.98272
3.98246
3.98219
3.98191
3.98163
3.98135
3.98107
3.98078
3.98048
3.98019
3.97988
3.97958
3.97927
3.97896
3.97864
3.97831
3.97799
3.97765
3.97731
3.97696
3.97661
3.97625
3.97589
3.97552
3.97514
3.97475
3.97435
3.97395
3.97354
3.97312
3.97269
3.97225
3.9718
3.97135
3.97088
3.9704
3.96992
3.96942
3.96892
3.9684
3.96787
3.96733
3.96677
3.96621
3.96563
3.96504
3.96443
3.96381
3.96318
3.96253
3.96187
3.96119
3.9605
3.95979
3.95906
3.95832
3.95756
3.95678
3.95599
3.95518
3.95436
3.95352
3.95266
3.95178
3.95089
3.94999
3.94906
3.94813
3.94717
3.9462
3.94521
3.94421
3.94319
3.94214
3.94108
3.94
3.93889
3.93776
3.93661
3.93543
3.93422
3.93298
3.93171
3.93041
3.92907
3.92771
3.9263
3.92486
3.92339
3.92188
3.92032
3.91873
3.91711
3.91544
3.91373
3.91198
3.91019
3.90837
3.9065
3.90459
3.90265
3.90067
3.89865
3.8966
3.8945
3.89238
3.89022
3.88803
3.8858
3.88355
3.88125
3.87893
3.87657
3.87416
3.87172
3.86923
3.8667
3.86411
3.86147
3.85878
3.85602
3.85319
3.8503
3.84734
3.84429
3.84116
3.83795
3.83464
3.83123
3.82773
3.82412
3.8204
3.81658
3.81264
3.80859
3.80443
3.80015
3.79576
3.79125
3.78664
3.78191
3.77708
3.77216
3.76713
3.76202
3.75682
3.75155
3.74621
3.74081
3.73537
3.72989
3.72439
3.71889
3.71336
3.70782
3.70227
3.6967
3.69111
3.68549
3.67986
3.6742
3.66851
3.66278
3.65701
3.65119
3.64531
3.63937
3.63337
3.62721
3.62134
3.61492
3.62562
3.99285
3.99259
3.9923
3.99199
3.99165
3.99128
3.99088
3.99044
3.98997
3.98946
3.98891
3.98832
3.98769
3.98702
3.98631
3.98556
3.9739
3.97349
3.97308
3.97265
3.97221
3.97175
3.97128
3.97079
3.97029
3.96977
3.96923
3.96867
3.96809
3.9675
3.96688
3.96625
3.9656
3.96492
3.96423
3.96352
3.9628
3.96205
3.96129
3.96052
3.95972
3.95892
3.95809
3.95725
3.9564
3.95554
3.95466
3.95376
3.95285
3.95193
3.95099
3.95004
3.94907
3.94809
3.94708
3.94606
3.94502
3.94396
3.94287
3.94177
3.94064
3.93949
3.93831
3.93711
3.93588
3.93463
3.93335
3.93205
3.93072
3.92936
3.92798
3.92657
3.92513
3.92367
3.92218
3.92066
3.91911
3.91753
3.91592
3.91427
3.91259
3.91087
3.90912
3.90732
3.90548
3.9036
3.90167
3.8997
3.89768
3.8956
3.89348
3.89131
3.88908
3.8868
3.88446
3.88207
3.87962
3.87712
3.87456
3.87195
3.86928
3.86655
3.86377
3.86093
3.85803
3.85508
3.85208
3.84903
3.84592
3.84276
3.83955
3.83628
3.83295
3.82957
3.82612
3.8226
3.81902
3.81536
3.81163
3.80782
3.80393
3.79994
3.79587
3.79169
3.78742
3.78303
3.77854
3.77392
3.76919
3.76434
3.75936
3.75425
3.74901
3.74364
3.73815
3.73253
3.72678
3.72092
3.71493
3.70884
3.70264
3.69634
3.68995
3.68348
3.67694
3.67035
3.66371
3.65705
3.65035
3.64362
3.63685
3.63004
3.62319
3.6163
3.60935
3.60235
3.59528
3.58815
3.58094
3.57364
3.56625
3.55876
3.55115
3.54341
3.53552
3.52748
3.51927
3.51087
3.50227
3.49344
3.48439
3.47509
3.46553
3.4557
3.44558
3.43518
3.42448
3.41349
3.4022
3.39063
3.37878
3.36665
3.35428
3.34166
3.32884
3.31581
3.30261
3.28926
3.27584
3.26253
3.24936
3.23633
3.22347
3.21076
3.19821
3.18586
3.17364
3.1617
3.14984
3.13833
3.12687
3.11578
3.10485
3.094
3.08395
3.07296
3.06458
3.05271
3.05658
3.98971
3.98907
3.98838
3.98761
3.98678
3.98587
3.98489
3.98382
3.98267
3.98143
3.98011
3.97869
3.97719
3.94189
3.94082
3.93972
3.93858
3.93741
3.9362
3.93495
3.93365
3.93231
3.93092
3.92949
3.928
3.92646
3.92488
3.92323
3.92154
3.91979
3.91799
3.91614
3.91424
3.91229
3.91029
3.90825
3.90616
3.90402
3.90185
3.89964
3.89739
3.8951
3.89278
3.89043
3.88804
3.88562
3.88316
3.88066
3.87813
3.87555
3.87292
3.87025
3.86753
3.86476
3.86194
3.85905
3.85611
3.8531
3.85003
3.84689
3.84368
3.84041
3.83706
3.83364
3.83015
3.82659
3.82295
3.81924
3.81546
3.8116
3.80768
3.80368
3.79961
3.79547
3.79125
3.78696
3.78259
3.77814
3.7736
3.76898
3.76427
3.75946
3.75455
3.74955
3.74444
3.73922
3.73389
3.72844
3.72288
3.71719
3.71137
3.70543
3.69935
3.69313
3.68679
3.6803
3.67369
3.66694
3.66007
3.65307
3.64595
3.63872
3.63139
3.62396
3.61644
3.60884
3.60119
3.59348
3.58572
3.57791
3.57004
3.5621
3.5541
3.54603
3.53789
3.52966
3.52134
3.51292
3.5044
3.49577
3.48702
3.47814
3.46911
3.45994
3.45061
3.4411
3.43141
3.42153
3.41145
3.40116
3.39065
3.37991
3.36895
3.35776
3.34634
3.33471
3.32285
3.3108
3.29855
3.28614
3.27356
3.26086
3.24803
3.23512
3.22228
3.20961
3.1971
3.18476
3.1726
3.16063
3.14885
3.13727
3.1259
3.11474
3.10381
3.09309
3.08261
3.07237
3.06237
3.05262
3.04312
3.03388
3.02489
3.01616
3.00769
2.99949
2.99153
2.98385
2.97641
2.96923
2.96228
2.95558
2.94911
2.94288
2.93686
2.93108
2.9255
2.92015
2.91501
2.91008
2.90537
2.90085
2.89656
2.89244
2.88858
2.88484
2.88134
2.87788
2.87469
2.87152
2.86861
2.86572
2.86307
2.86048
2.85805
2.85577
2.85352
2.85159
2.8495
2.84792
2.846
2.84475
2.84305
2.84209
2.84046
2.84324
3.98217
3.98064
3.97897
3.97715
3.97516
3.97301
3.97069
3.96818
3.96549
3.96259
3.95949
3.95619
3.95268
3.86758
3.865
3.86235
3.85963
3.85682
3.85393
3.85095
3.84787
3.84469
3.84141
3.83801
3.8345
3.83088
3.82713
3.82326
3.81928
3.81516
3.81093
3.80657
3.8021
3.79751
3.7928
3.78798
3.78306
3.77803
3.77291
3.7677
3.7624
3.75702
3.75157
3.74604
3.74045
3.73479
3.72906
3.72327
3.7174
3.71146
3.70544
3.69934
3.69315
3.68687
3.68049
3.67401
3.66742
3.66071
3.65389
3.64695
3.63988
3.63268
3.62535
3.6179
3.61031
3.60261
3.59477
3.58682
3.57876
3.57058
3.56231
3.55394
3.54549
3.53697
3.52839
3.51975
3.51104
3.50226
3.4934
3.48447
3.47546
3.46636
3.45716
3.44788
3.43849
3.429
3.41939
3.40966
3.39981
3.38982
3.3797
3.36943
3.35901
3.34844
3.3377
3.3268
3.31573
3.30451
3.29312
3.28158
3.2699
3.25809
3.24616
3.23413
3.22202
3.20985
3.19763
3.18549
3.17351
3.1617
3.15006
3.13861
3.12734
3.11627
3.1054
3.09473
3.08427
3.07404
3.06402
3.05424
3.04469
3.03538
3.02632
3.01752
3.00897
3.00069
2.99268
2.98494
2.97747
2.97028
2.96336
2.9567
2.95031
2.94418
2.9383
2.93266
2.92725
2.92207
2.91711
2.91237
2.90784
2.90351
2.89938
2.89545
2.89169
2.88806
2.88458
2.88123
2.87802
2.87495
2.872
2.86919
2.8665
2.86393
2.86148
2.85914
2.85691
2.85478
2.85276
2.85083
2.84898
2.84723
2.84555
2.84394
2.8424
2.84093
2.83952
2.83816
2.83687
2.83562
2.83443
2.83328
2.83219
2.83112
2.83011
2.82913
2.8282
2.82731
2.82645
2.82563
2.82486
2.82413
2.82345
2.82282
2.82224
2.82173
2.82126
2.82087
2.82053
2.82027
2.82005
2.81992
2.81982
2.8198
2.8198
2.81991
2.81998
2.8202
2.82031
2.82062
2.82075
2.8211
2.82126
2.82168
2.82175
2.82293
3.96778
3.96453
3.96097
3.9571
3.95288
3.9483
3.94335
3.93801
3.93229
3.92617
3.91966
3.91275
3.90546
3.89779
3.71438
3.70899
3.70347
3.69782
3.69202
3.68607
3.67996
3.67369
3.66723
3.6606
3.65377
3.64676
3.63954
3.63213
3.62451
3.61669
3.60867
3.60046
3.59205
3.58346
3.57468
3.56574
3.55664
3.54739
3.538
3.5285
3.51888
3.50917
3.49939
3.48956
3.47968
3.46979
3.45987
3.44994
3.43999
3.43003
3.42004
3.41003
3.39998
3.3899
3.37978
3.3696
3.35936
3.34906
3.33868
3.32822
3.31767
3.30703
3.2963
3.28547
3.27454
3.26352
3.25241
3.24121
3.22993
3.21858
3.20718
3.19574
3.18426
3.17277
3.16131
3.14999
3.13883
3.12785
3.11706
3.10645
3.09603
3.08582
3.07581
3.06602
3.05643
3.04707
3.03793
3.02902
3.02034
3.01191
3.00371
2.99577
2.98807
2.98063
2.97346
2.96655
2.9599
2.95352
2.94741
2.94154
2.93592
2.93056
2.92543
2.92052
2.91584
2.91138
2.90711
2.90305
2.89916
2.89542
2.89181
2.88834
2.88502
2.88183
2.87877
2.87583
2.87304
2.87036
2.86779
2.86536
2.86304
2.86082
2.8587
2.85668
2.85475
2.8529
2.85113
2.84942
2.84777
2.84617
2.84462
2.84312
2.84167
2.84027
2.83891
2.83759
2.83632
2.8351
2.83391
2.83277
2.83167
2.83061
2.8296
2.82862
2.82769
2.8268
2.82596
2.82516
2.8244
2.82368
2.82301
2.82237
2.82178
2.82122
2.82069
2.8202
2.81974
2.81932
2.81891
2.81854
2.81818
2.81786
2.81755
2.81727
2.817
2.81676
2.81653
2.81632
2.81613
2.81596
2.81582
2.81569
2.8156
2.81552
2.81548
2.81547
2.81549
2.81553
2.81562
2.81572
2.81586
2.816
2.81619
2.81636
2.81657
2.81674
2.81697
2.81711
2.81734
2.81743
2.81764
2.81767
2.81786
2.81784
2.81798
2.81791
2.81803
2.81791
2.81799
2.81784
2.81788
2.8177
2.81769
2.81749
2.81744
2.81716
2.81726
3.93184
3.9245
3.91653
3.9079
3.8986
3.88863
3.87798
3.86662
3.85454
3.84174
3.82821
3.81398
3.79911
3.78366
3.45457
3.44589
3.4371
3.42818
3.41914
3.40995
3.40061
3.39112
3.38147
3.37164
3.36164
3.35147
3.34113
3.33061
3.31992
3.30907
3.29806
3.28689
3.27559
3.26417
3.25263
3.241
3.2293
3.21754
3.20574
3.19393
3.18213
3.17037
3.15866
3.14702
3.13548
3.12417
3.11309
3.10227
3.0917
3.08141
3.07139
3.06164
3.05216
3.04295
3.03401
3.02533
3.01691
3.00875
3.00084
2.99318
2.98578
2.97862
2.97171
2.96506
2.95865
2.9525
2.9466
2.94094
2.93553
2.93035
2.92541
2.92069
2.91619
2.91189
2.90779
2.90385
2.90005
2.8964
2.8929
2.88953
2.8863
2.8832
2.88022
2.87739
2.87467
2.87208
2.86961
2.86726
2.86501
2.86287
2.86083
2.85888
2.857
2.8552
2.85347
2.85179
2.85016
2.84859
2.84708
2.84559
2.84416
2.84279
2.84146
2.84017
2.83894
2.83774
2.8366
2.8355
2.83444
2.83344
2.83247
2.83154
2.83066
2.82982
2.829
2.82823
2.82749
2.82678
2.82609
2.82542
2.82477
2.82414
2.82352
2.82293
2.82236
2.8218
2.82126
2.82075
2.82025
2.81977
2.81931
2.81887
2.81844
2.81803
2.81763
2.81726
2.8169
2.81657
2.81626
2.81598
2.81572
2.8155
2.81531
2.81514
2.815
2.81488
2.81479
2.8147
2.81463
2.81457
2.81452
2.81447
2.81442
2.81439
2.81435
2.81432
2.81429
2.81428
2.81426
2.81426
2.81426
2.81427
2.81429
2.81431
2.81434
2.81437
2.81441
2.81445
2.81449
2.81453
2.81458
2.81462
2.81466
2.81468
2.81472
2.81472
2.81474
2.81471
2.81472
2.81467
2.81466
2.81458
2.81456
2.81446
2.81443
2.81431
2.81429
2.81415
2.81412
2.81396
2.81393
2.81374
2.81369
2.81349
2.81342
2.8132
2.81312
2.81287
2.81276
2.81249
2.81236
2.81206
2.8119
2.81159
2.8114
2.81101
2.81101
3.85422
3.8389
3.82243
3.8048
3.78603
3.76617
3.74526
3.72336
3.70049
3.67673
3.65215
3.62692
3.60116
3.57505
3.13857
3.12925
3.11997
3.11075
3.10159
3.0925
3.08348
3.07453
3.06567
3.0569
3.04823
3.03968
3.03124
3.02294
3.01479
3.00679
2.99896
2.99131
2.98387
2.97664
2.96962
2.96282
2.95627
2.94998
2.94394
2.93817
2.93266
2.9274
2.92241
2.91768
2.91319
2.9089
2.90482
2.90092
2.89721
2.89367
2.89029
2.88708
2.88401
2.88109
2.87831
2.87566
2.87314
2.87073
2.86845
2.86627
2.86418
2.86219
2.86028
2.85846
2.8567
2.855
2.85336
2.85178
2.85024
2.84876
2.84734
2.84596
2.84464
2.84337
2.84215
2.84098
2.83987
2.83881
2.83779
2.83682
2.8359
2.83501
2.83417
2.83336
2.83258
2.83183
2.8311
2.8304
2.8297
2.82902
2.82836
2.82771
2.82708
2.82647
2.82588
2.8253
2.82473
2.82418
2.82366
2.82316
2.82265
2.82218
2.82175
2.8213
2.82089
2.82054
2.82018
2.81983
2.81953
2.81922
2.81892
2.81863
2.81834
2.81805
2.81771
2.81742
2.81714
2.81678
2.81648
2.81621
2.81591
2.81563
2.81539
2.81515
2.81492
2.81471
2.81452
2.81435
2.81419
2.81405
2.81393
2.81383
2.81373
2.81366
2.81359
2.81353
2.81348
2.81343
2.81338
2.81333
2.81328
2.81323
2.81317
2.81311
2.81306
2.813
2.81293
2.81288
2.81283
2.81279
2.81275
2.81272
2.8127
2.81268
2.81267
2.81267
2.81266
2.81266
2.81266
2.81266
2.81265
2.81264
2.81263
2.81261
2.81259
2.81255
2.81252
2.81247
2.81243
2.81236
2.8123
2.81221
2.81214
2.81203
2.81194
2.81181
2.81171
2.81156
2.81145
2.81127
2.81114
2.81094
2.81079
2.81055
2.81037
2.81011
2.8099
2.80961
2.80935
2.80905
2.80877
2.80847
2.80818
2.80786
2.80755
2.80722
2.80689
2.80654
2.80619
2.80582
2.80544
2.80505
2.80464
2.80422
2.80379
2.80325
2.80316
3.70105
3.67249
3.6425
3.61121
3.57883
3.54553
3.51149
3.47687
3.44176
3.4062
3.37035
3.33456
3.29921
2.92516
2.92123
2.91742
2.9137
2.91009
2.90657
2.90314
2.8998
2.89656
2.89341
2.89035
2.88738
2.88452
2.88175
2.87908
2.87651
2.87406
2.87172
2.86945
2.86726
2.86519
2.86322
2.86132
2.85948
2.85771
2.856
2.85437
2.8528
2.85129
2.84985
2.84846
2.84714
2.84587
2.84467
2.84352
2.84242
2.84138
2.84038
2.83943
2.83852
2.83765
2.83681
2.83601
2.83522
2.83447
2.83373
2.83301
2.83232
2.83164
2.83098
2.83033
2.82971
2.82911
2.82853
2.82796
2.82741
2.8269
2.82641
2.82593
2.82548
2.82506
2.82466
2.82428
2.82391
2.82356
2.82322
2.82289
2.82255
2.82221
2.82189
2.82153
2.82116
2.82085
2.82051
2.82015
2.81985
2.81954
2.81923
2.81894
2.81867
2.81841
2.81817
2.81792
2.8177
2.8175
2.81728
2.81706
2.81687
2.81668
2.81644
2.81619
2.81599
2.81577
2.81543
2.81522
2.81502
2.81467
2.81444
2.81429
2.814
2.81376
2.81366
2.81346
2.81326
2.81315
2.81304
2.81289
2.81278
2.81269
2.81259
2.81251
2.81242
2.81234
2.81227
2.81221
2.81214
2.81208
2.81202
2.81196
2.8119
2.81185
2.8118
2.81174
2.8117
2.81165
2.81161
2.81157
2.81154
2.81151
2.81147
2.81143
2.81138
2.81133
2.81128
2.81122
2.81115
2.81108
2.81099
2.81091
2.81082
2.81072
2.8106
2.81049
2.81035
2.81023
2.81007
2.80994
2.80976
2.80961
2.80942
2.80925
2.80903
2.80884
2.8086
2.80839
2.80813
2.80789
2.80761
2.80735
2.80705
2.80677
2.80644
2.80614
2.80578
2.80545
2.80508
2.80472
2.80433
2.80393
2.80352
2.8031
2.80266
2.80221
2.80176
2.8013
2.80083
2.80034
2.79984
2.79932
2.79878
2.79824
2.79767
2.79708
2.79648
2.79586
2.79522
2.79456
2.79388
2.79318
2.79245
2.79171
2.79085
2.7906
3.44255
3.39944
3.3555
3.3111
3.26677
3.22301
3.18018
3.13851
3.09811
3.05892
3.02071
2.98402
2.94944
2.85185
2.85074
2.84966
2.8486
2.84756
2.84654
2.84554
2.84457
2.84361
2.84268
2.84178
2.84091
2.84005
2.83921
2.8384
2.83762
2.83687
2.83614
2.83544
2.83475
2.83406
2.83341
2.8328
2.83222
2.83165
2.83109
2.83056
2.83005
2.82957
2.82911
2.82868
2.82827
2.82788
2.82751
2.82716
2.82682
2.82648
2.82615
2.82581
2.82548
2.82514
2.8248
2.82446
2.82413
2.82379
2.82347
2.82316
2.82286
2.82256
2.82226
2.822
2.82175
2.82148
2.82122
2.821
2.82076
2.82048
2.82023
2.81997
2.81965
2.81939
2.81909
2.8187
2.81846
2.81816
2.81777
2.81753
2.81728
2.81693
2.8167
2.81648
2.81621
2.816
2.81578
2.81557
2.81537
2.81517
2.81496
2.81478
2.81458
2.81437
2.81418
2.814
2.81379
2.81356
2.81339
2.81323
2.81298
2.81279
2.81267
2.81247
2.81224
2.81218
2.81202
2.81179
2.81174
2.81163
2.81142
2.81135
2.8113
2.81113
2.81104
2.81099
2.81087
2.81079
2.81073
2.81064
2.81055
2.81049
2.81042
2.81033
2.81026
2.81019
2.81011
2.81002
2.80994
2.80986
2.80976
2.80965
2.80955
2.80943
2.8093
2.80916
2.809
2.80883
2.80865
2.80846
2.80826
2.80807
2.80786
2.80766
2.80745
2.80724
2.80701
2.8068
2.80655
2.80633
2.80607
2.80583
2.80555
2.8053
2.805
2.80472
2.8044
2.80411
2.80376
2.80343
2.80305
2.80269
2.80229
2.8019
2.80148
2.80104
2.80059
2.80013
2.79965
2.79915
2.79864
2.79811
2.79756
2.79699
2.79641
2.7958
2.79518
2.79454
2.79389
2.79321
2.79252
2.7918
2.79107
2.79032
2.78954
2.78874
2.78792
2.78707
2.7862
2.78529
2.78436
2.7834
2.78242
2.7814
2.78035
2.77927
2.77815
2.777
2.77582
2.7746
2.77334
2.77205
2.7706
2.77018
3.04605
2.99808
2.95163
2.90753
2.86643
2.82878
2.79486
2.76487
2.73896
2.71716
2.69905
2.6842
2.8313
2.83097
2.83064
2.8303
2.82996
2.8296
2.82924
2.82888
2.82853
2.82818
2.82783
2.82749
2.82716
2.82685
2.82656
2.82631
2.82609
2.82588
2.82568
2.82554
2.82535
2.82504
2.82481
2.8246
2.82442
2.82426
2.82406
2.82383
2.8236
2.82338
2.82315
2.82291
2.82265
2.82237
2.82209
2.82179
2.82147
2.82115
2.82085
2.82052
2.8202
2.81991
2.81962
2.81932
2.81904
2.81879
2.81852
2.81827
2.81803
2.81778
2.81754
2.81731
2.81708
2.8168
2.81658
2.81636
2.81608
2.81586
2.81564
2.81539
2.81521
2.81497
2.81472
2.81459
2.81438
2.81414
2.81402
2.81383
2.81364
2.81349
2.81332
2.81316
2.813
2.81282
2.81266
2.81252
2.81233
2.81215
2.81201
2.81184
2.81164
2.81148
2.81134
2.81116
2.81094
2.81084
2.81072
2.81048
2.81035
2.81031
2.81011
2.80994
2.80993
2.80977
2.80957
2.80955
2.80941
2.80921
2.80917
2.80902
2.80883
2.80875
2.80863
2.80842
2.80828
2.80817
2.80796
2.80777
2.80762
2.80743
2.80721
2.80699
2.80678
2.80655
2.80628
2.80602
2.80577
2.8055
2.80521
2.80493
2.80464
2.80434
2.80404
2.80374
2.80343
2.80312
2.80281
2.80248
2.80215
2.8018
2.80144
2.80108
2.8007
2.8003
2.7999
2.79948
2.79905
2.7986
2.79814
2.79766
2.79716
2.79664
2.79611
2.79556
2.79499
2.79439
2.79378
2.79314
2.79248
2.7918
2.7911
2.79037
2.78962
2.78885
2.78805
2.78722
2.78637
2.78549
2.78459
2.78366
2.7827
2.78171
2.78069
2.77964
2.77856
2.77745
2.77631
2.77513
2.77392
2.77268
2.77139
2.77007
2.7687
2.7673
2.76585
2.76436
2.76283
2.76125
2.75962
2.75795
2.75622
2.75445
2.75262
2.75074
2.74879
2.7468
2.74473
2.74263
2.74047
2.73813
2.7375
2.71051
2.67943
2.65331
2.6317
2.61414
2.60019
2.58939
2.58138
2.57585
2.57246
2.82428
2.82417
2.82406
2.82393
2.82379
2.82363
2.82344
2.82324
2.82299
2.82274
2.82249
2.82223
2.82195
2.82165
2.82134
2.82102
2.8207
2.82038
2.82008
2.81978
2.81948
2.81929
2.81917
2.81896
2.81871
2.8185
2.81836
2.81818
2.81801
2.81785
2.81768
2.81752
2.81736
2.81719
2.81703
2.81687
2.8167
2.81654
2.81638
2.8162
2.81604
2.81587
2.81569
2.81552
2.81535
2.81517
2.81499
2.81482
2.81465
2.81442
2.81423
2.81405
2.81381
2.81358
2.81342
2.81321
2.81294
2.81281
2.81261
2.81239
2.81226
2.81201
2.81184
2.81173
2.8115
2.81134
2.81122
2.81101
2.81086
2.81072
2.81052
2.81037
2.81022
2.81002
2.80986
2.80972
2.80952
2.80933
2.8092
2.80905
2.80883
2.80869
2.80858
2.80838
2.80815
2.80805
2.80789
2.80762
2.80743
2.8073
2.807
2.80674
2.80662
2.80632
2.80604
2.80591
2.80562
2.80531
2.80518
2.80487
2.80454
2.80436
2.80406
2.80371
2.80344
2.80318
2.8028
2.80244
2.80215
2.8018
2.8014
2.80103
2.80067
2.80027
2.79987
2.79947
2.79905
2.79862
2.79818
2.79774
2.79728
2.79681
2.79634
2.79585
2.79534
2.79483
2.79429
2.79374
2.79316
2.79257
2.79196
2.79133
2.79067
2.78999
2.78929
2.78857
2.78782
2.78704
2.78624
2.78541
2.78456
2.78367
2.78275
2.78181
2.78083
2.77982
2.77878
2.77771
2.7766
2.77546
2.77428
2.77306
2.77181
2.77052
2.76919
2.76782
2.76641
2.76495
2.76346
2.76192
2.76033
2.7587
2.75702
2.75529
2.75352
2.75169
2.74981
2.74787
2.74588
2.74383
2.74172
2.73955
2.73732
2.73503
2.73267
2.73025
2.72776
2.7252
2.72256
2.71986
2.71707
2.71421
2.71126
2.70824
2.70512
2.70193
2.69864
2.69534
2.69196
2.68848
2.68771
2.51782
2.5123
2.509
2.50758
2.50781
2.50918
2.51161
2.51487
2.51876
2.81753
2.81755
2.81755
2.81752
2.81747
2.8174
2.8173
2.8172
2.81709
2.81696
2.81683
2.8167
2.81657
2.81644
2.81632
2.81619
2.81604
2.81588
2.81573
2.81559
2.81545
2.81528
2.8151
2.81499
2.81492
2.81477
2.81455
2.81441
2.81431
2.81415
2.814
2.81384
2.81369
2.81355
2.8134
2.81325
2.81311
2.81296
2.81281
2.81267
2.81251
2.81236
2.81222
2.81206
2.81187
2.81171
2.81155
2.81134
2.81112
2.81096
2.81078
2.81051
2.81035
2.81023
2.80995
2.80976
2.80966
2.80939
2.80924
2.8091
2.80884
2.80874
2.80854
2.8083
2.8082
2.80801
2.80777
2.80764
2.80746
2.80721
2.80706
2.80689
2.80661
2.80641
2.80624
2.80596
2.8057
2.80549
2.80522
2.80488
2.80461
2.80437
2.804
2.80365
2.80342
2.80309
2.80271
2.80242
2.80212
2.80173
2.80142
2.80111
2.8007
2.80036
2.80002
2.7996
2.7992
2.79882
2.79839
2.79793
2.79752
2.79705
2.79657
2.79609
2.7956
2.79508
2.79455
2.79402
2.79347
2.7929
2.79232
2.79172
2.79111
2.79048
2.78983
2.78917
2.78848
2.78778
2.78706
2.78631
2.78554
2.78475
2.78394
2.78309
2.78222
2.78132
2.78039
2.77943
2.77844
2.77742
2.77636
2.77527
2.77414
2.77297
2.77177
2.77053
2.76924
2.76792
2.76656
2.76515
2.7637
2.7622
2.76066
2.75907
2.75743
2.75574
2.75401
2.75222
2.75037
2.74848
2.74653
2.74452
2.74245
2.74033
2.73814
2.73589
2.73358
2.73121
2.72876
2.72626
2.72368
2.72103
2.71831
2.71551
2.71264
2.70969
2.70666
2.70355
2.70036
2.69708
2.69371
2.69026
2.68672
2.68308
2.67935
2.67552
2.6716
2.66757
2.66344
2.6592
2.65486
2.65039
2.64582
2.64113
2.63637
2.63149
2.62668
2.62179
2.61715
2.61646
2.45632
2.45937
2.8132
2.81329
2.81335
2.81338
2.81337
2.81334
2.81329
2.81321
2.81312
2.81301
2.81289
2.81275
2.81261
2.81245
2.81229
2.81211
2.81193
2.81176
2.81159
2.81142
2.81125
2.81113
2.81101
2.81087
2.8107
2.81057
2.81048
2.81043
2.81027
2.81014
2.81007
2.80995
2.80983
2.80972
2.80959
2.80948
2.80936
2.80923
2.80911
2.80899
2.80883
2.80869
2.80857
2.80838
2.80819
2.80804
2.80787
2.8076
2.80743
2.8073
2.80706
2.8068
2.80666
2.80649
2.80622
2.80603
2.80589
2.80561
2.80546
2.80525
2.80495
2.80481
2.80454
2.80423
2.80406
2.80374
2.80341
2.80319
2.80285
2.80247
2.80218
2.80184
2.80144
2.8011
2.80075
2.80034
2.79992
2.79959
2.79916
2.79874
2.79834
2.79793
2.7975
2.79705
2.79662
2.79617
2.79569
2.79523
2.79474
2.79423
2.79373
2.79319
2.79264
2.79208
2.79149
2.79089
2.79027
2.78963
2.78897
2.7883
2.7876
2.78688
2.78615
2.78539
2.78461
2.78381
2.78299
2.78215
2.78128
2.78038
2.77946
2.77851
2.77753
2.77653
2.77549
2.77442
2.77332
2.77218
2.77101
2.7698
2.76856
2.76727
2.76595
2.76458
2.76317
2.76172
2.76023
2.75868
2.75709
2.75545
2.75376
2.75202
2.75022
2.74837
2.74647
2.74451
2.74248
2.7404
2.73826
2.73606
2.73379
2.73146
2.72906
2.72659
2.72405
2.72144
2.71876
2.71601
2.71318
2.71027
2.70729
2.70422
2.70107
2.69784
2.69452
2.69112
2.68763
2.68405
2.68038
2.67661
2.67275
2.66879
2.66473
2.66057
2.65631
2.65194
2.64747
2.64289
2.6382
2.63339
2.62848
2.62344
2.61829
2.61302
2.60763
2.60211
2.59646
2.59069
2.58479
2.57874
2.57257
2.56624
2.55981
2.55322
2.54663
2.53992
2.53347
2.52695
2.52143
2.52127
2.80802
2.80816
2.80827
2.80836
2.80842
2.80845
2.80846
2.80844
2.8084
2.80834
2.80827
2.80817
2.80807
2.80796
2.80784
2.80772
2.80758
2.80745
2.80732
2.80719
2.80707
2.80694
2.8068
2.80668
2.80656
2.80645
2.80634
2.80619
2.80607
2.806
2.80587
2.8057
2.80559
2.80548
2.80531
2.8052
2.80504
2.80487
2.80475
2.80459
2.80439
2.80424
2.80409
2.80384
2.80363
2.80348
2.80325
2.80298
2.80275
2.80259
2.80233
2.80202
2.80182
2.80156
2.80122
2.80096
2.80064
2.80027
2.79996
2.79957
2.79921
2.79885
2.79843
2.79803
2.79764
2.79721
2.79676
2.79634
2.79588
2.79542
2.79495
2.79447
2.79396
2.79347
2.79295
2.79242
2.79188
2.79133
2.79077
2.79019
2.78959
2.78899
2.78836
2.78771
2.78705
2.78637
2.78566
2.78494
2.78419
2.78341
2.78262
2.78179
2.78094
2.78007
2.77916
2.77824
2.77728
2.77629
2.77528
2.77423
2.77315
2.77205
2.77091
2.76973
2.76852
2.76728
2.766
2.76468
2.76332
2.76192
2.76048
2.759
2.75747
2.7559
2.75427
2.7526
2.75088
2.74911
2.74729
2.74541
2.74347
2.74148
2.73943
2.73732
2.73515
2.73292
2.73062
2.72826
2.72583
2.72333
2.72076
2.71812
2.7154
2.71261
2.70974
2.70679
2.70376
2.70064
2.69745
2.69417
2.6908
2.68734
2.68379
2.68016
2.67642
2.67259
2.66867
2.66465
2.66052
2.6563
2.65197
2.64753
2.64299
2.63834
2.63358
2.62871
2.62373
2.61863
2.61341
2.60807
2.60262
2.59704
2.59134
2.58551
2.57956
2.57348
2.56727
2.56093
2.55445
2.54784
2.54109
2.53421
2.52718
2.52002
2.51271
2.50526
2.49766
2.48991
2.48202
2.47396
2.46575
2.45739
2.44894
2.44037
2.43189
2.42339
2.41541
2.40741
2.40159
2.40257
2.80299
2.80318
2.80333
2.80344
2.80352
2.80357
2.80358
2.80357