/*--------------------------------*- C++ -*----------------------------------*\
| =========                 |                                                 |
| \\      /  F ield         | OpenFOAM: The Open Source CFD Toolbox           |
|  \\    /   O peration     | Version:  v1706                                 |
|   \\  /    A nd           | Web:      www.OpenFOAM.com                      |
|    \\/     M anipulation  |                                                 |
\*---------------------------------------------------------------------------*/
FoamFile
{
    version     2.0;
    format      ascii;
    class       volScalarField;
    location    "1.8e-05";
    object      mu;
}
// * * * * * * * * * * * * * * * * * * * * * * * * * * * * * * * * * * * * * //

dimensions      [1 -1 -1 0 0 0 0];


internalField   nonuniform List<scalar> 
30104
(
1.0351e-05
1.0351e-05
1.0351e-05
1.0351e-05
1.0351e-05
1.0351e-05
1.0351e-05
1.0351e-05
1.0351e-05
1.03511e-05
1.03511e-05
1.03511e-05
1.03511e-05
1.03511e-05
1.03511e-05
1.03511e-05
1.03511e-05
1.03511e-05
1.03511e-05
1.03511e-05
1.03511e-05
1.03511e-05
1.03511e-05
1.03511e-05
1.03511e-05
1.03511e-05
1.03511e-05
1.03511e-05
1.03511e-05
1.03511e-05
1.03512e-05
1.03512e-05
1.03512e-05
1.03512e-05
1.03512e-05
1.03512e-05
1.03512e-05
1.03512e-05
1.03512e-05
1.03512e-05
1.03512e-05
1.03512e-05
1.03512e-05
1.03512e-05
1.03512e-05
1.03512e-05
1.03512e-05
1.03512e-05
1.03512e-05
1.03512e-05
1.03512e-05
1.03512e-05
1.03512e-05
1.03512e-05
1.03512e-05
1.03512e-05
1.03512e-05
1.03512e-05
1.03512e-05
1.03512e-05
1.03512e-05
1.03512e-05
1.03512e-05
1.03512e-05
1.03512e-05
1.03512e-05
1.03513e-05
1.03513e-05
1.03513e-05
1.03513e-05
1.03513e-05
1.03513e-05
1.03513e-05
1.03513e-05
1.03513e-05
1.03513e-05
1.03513e-05
1.03513e-05
1.03513e-05
1.03513e-05
1.03513e-05
1.03513e-05
1.03513e-05
1.03513e-05
1.03513e-05
1.03513e-05
1.03513e-05
1.03513e-05
1.03513e-05
1.03513e-05
1.03513e-05
1.03513e-05
1.03513e-05
1.03514e-05
1.03514e-05
1.03514e-05
1.03514e-05
1.03514e-05
1.03514e-05
1.03514e-05
1.03514e-05
1.03514e-05
1.03514e-05
1.03514e-05
1.03514e-05
1.03514e-05
1.03514e-05
1.03514e-05
1.03514e-05
1.03514e-05
1.03514e-05
1.03515e-05
1.03515e-05
1.03515e-05
1.03515e-05
1.03515e-05
1.03515e-05
1.03515e-05
1.03515e-05
1.03515e-05
1.03515e-05
1.03515e-05
1.03515e-05
1.03515e-05
1.03515e-05
1.03515e-05
1.03516e-05
1.03516e-05
1.03516e-05
1.03516e-05
1.03516e-05
1.03516e-05
1.03516e-05
1.03516e-05
1.03516e-05
1.03516e-05
1.03516e-05
1.03516e-05
1.03517e-05
1.03517e-05
1.03517e-05
1.03517e-05
1.03517e-05
1.03517e-05
1.03517e-05
1.03517e-05
1.03517e-05
1.03517e-05
1.03518e-05
1.03518e-05
1.03518e-05
1.03518e-05
1.03518e-05
1.03518e-05
1.03518e-05
1.03518e-05
1.03518e-05
1.03519e-05
1.03519e-05
1.03519e-05
1.03519e-05
1.03519e-05
1.03519e-05
1.03519e-05
1.03519e-05
1.0352e-05
1.0352e-05
1.0352e-05
1.0352e-05
1.0352e-05
1.0352e-05
1.0352e-05
1.03521e-05
1.03521e-05
1.03521e-05
1.03521e-05
1.03521e-05
1.03521e-05
1.03522e-05
1.03522e-05
1.03522e-05
1.03522e-05
1.03522e-05
1.03522e-05
1.03523e-05
1.03523e-05
1.03523e-05
1.03523e-05
1.03523e-05
1.03523e-05
1.03524e-05
1.03524e-05
1.03524e-05
1.03524e-05
1.03524e-05
1.03525e-05
1.03525e-05
1.03525e-05
1.03525e-05
1.03526e-05
1.03526e-05
1.03526e-05
1.03526e-05
1.03527e-05
1.03527e-05
1.03527e-05
1.03527e-05
1.03528e-05
1.03528e-05
1.03525e-05
1.03511e-05
1.03511e-05
1.03511e-05
1.03512e-05
1.03512e-05
1.03512e-05
1.03512e-05
1.03512e-05
1.03513e-05
1.03513e-05
1.03513e-05
1.03514e-05
1.03514e-05
1.03514e-05
1.03515e-05
1.03515e-05
1.03516e-05
1.03518e-05
1.03518e-05
1.03518e-05
1.03518e-05
1.03519e-05
1.03519e-05
1.03519e-05
1.03519e-05
1.03519e-05
1.03519e-05
1.03519e-05
1.0352e-05
1.0352e-05
1.0352e-05
1.0352e-05
1.0352e-05
1.0352e-05
1.03521e-05
1.03521e-05
1.03521e-05
1.03521e-05
1.03521e-05
1.03522e-05
1.03522e-05
1.03522e-05
1.03522e-05
1.03522e-05
1.03523e-05
1.03523e-05
1.03523e-05
1.03523e-05
1.03523e-05
1.03524e-05
1.03524e-05
1.03524e-05
1.03524e-05
1.03524e-05
1.03525e-05
1.03525e-05
1.03525e-05
1.03525e-05
1.03525e-05
1.03526e-05
1.03526e-05
1.03526e-05
1.03526e-05
1.03527e-05
1.03527e-05
1.03527e-05
1.03527e-05
1.03528e-05
1.03528e-05
1.03528e-05
1.03528e-05
1.03529e-05
1.03529e-05
1.03529e-05
1.03529e-05
1.0353e-05
1.0353e-05
1.0353e-05
1.03531e-05
1.03531e-05
1.03531e-05
1.03531e-05
1.03532e-05
1.03532e-05
1.03532e-05
1.03533e-05
1.03533e-05
1.03534e-05
1.03534e-05
1.03534e-05
1.03535e-05
1.03535e-05
1.03535e-05
1.03536e-05
1.03536e-05
1.03536e-05
1.03537e-05
1.03537e-05
1.03538e-05
1.03538e-05
1.03539e-05
1.03539e-05
1.03539e-05
1.0354e-05
1.0354e-05
1.03541e-05
1.03541e-05
1.03542e-05
1.03542e-05
1.03543e-05
1.03543e-05
1.03544e-05
1.03544e-05
1.03545e-05
1.03545e-05
1.03546e-05
1.03546e-05
1.03547e-05
1.03548e-05
1.03548e-05
1.03549e-05
1.03549e-05
1.0355e-05
1.03551e-05
1.03551e-05
1.03552e-05
1.03553e-05
1.03553e-05
1.03554e-05
1.03555e-05
1.03555e-05
1.03556e-05
1.03557e-05
1.03557e-05
1.03558e-05
1.03559e-05
1.0356e-05
1.0356e-05
1.03561e-05
1.03562e-05
1.03563e-05
1.03564e-05
1.03564e-05
1.03565e-05
1.03566e-05
1.03567e-05
1.03568e-05
1.03569e-05
1.0357e-05
1.03571e-05
1.03572e-05
1.03573e-05
1.03574e-05
1.03575e-05
1.03576e-05
1.03577e-05
1.03578e-05
1.03579e-05
1.0358e-05
1.03581e-05
1.03582e-05
1.03584e-05
1.03585e-05
1.03586e-05
1.03588e-05
1.03589e-05
1.0359e-05
1.03592e-05
1.03593e-05
1.03595e-05
1.03596e-05
1.03597e-05
1.03599e-05
1.03601e-05
1.03602e-05
1.03604e-05
1.03605e-05
1.03607e-05
1.03609e-05
1.0361e-05
1.03612e-05
1.03614e-05
1.03615e-05
1.03617e-05
1.03619e-05
1.0362e-05
1.03622e-05
1.03624e-05
1.03626e-05
1.03628e-05
1.0363e-05
1.03632e-05
1.03633e-05
1.03635e-05
1.03637e-05
1.0364e-05
1.03642e-05
1.03644e-05
1.03646e-05
1.03648e-05
1.03651e-05
1.03653e-05
1.03655e-05
1.03658e-05
1.0366e-05
1.03663e-05
1.03665e-05
1.03668e-05
1.03669e-05
1.03656e-05
1.03514e-05
1.03514e-05
1.03514e-05
1.03515e-05
1.03516e-05
1.03516e-05
1.03517e-05
1.03518e-05
1.03518e-05
1.03519e-05
1.0352e-05
1.03521e-05
1.03522e-05
1.03523e-05
1.03525e-05
1.03526e-05
1.03538e-05
1.03538e-05
1.03539e-05
1.03539e-05
1.03539e-05
1.0354e-05
1.0354e-05
1.03541e-05
1.03541e-05
1.03542e-05
1.03543e-05
1.03543e-05
1.03544e-05
1.03544e-05
1.03545e-05
1.03546e-05
1.03546e-05
1.03547e-05
1.03548e-05
1.03548e-05
1.03549e-05
1.0355e-05
1.0355e-05
1.03551e-05
1.03552e-05
1.03553e-05
1.03553e-05
1.03554e-05
1.03555e-05
1.03556e-05
1.03556e-05
1.03557e-05
1.03558e-05
1.03559e-05
1.0356e-05
1.03561e-05
1.03561e-05
1.03562e-05
1.03563e-05
1.03564e-05
1.03565e-05
1.03566e-05
1.03567e-05
1.03567e-05
1.03568e-05
1.03569e-05
1.0357e-05
1.03571e-05
1.03572e-05
1.03573e-05
1.03574e-05
1.03575e-05
1.03576e-05
1.03577e-05
1.03579e-05
1.0358e-05
1.03581e-05
1.03582e-05
1.03583e-05
1.03584e-05
1.03585e-05
1.03587e-05
1.03588e-05
1.03589e-05
1.03591e-05
1.03592e-05
1.03593e-05
1.03595e-05
1.03596e-05
1.03597e-05
1.03599e-05
1.036e-05
1.03602e-05
1.03603e-05
1.03605e-05
1.03607e-05
1.03608e-05
1.0361e-05
1.03611e-05
1.03613e-05
1.03615e-05
1.03617e-05
1.03618e-05
1.0362e-05
1.03622e-05
1.03624e-05
1.03626e-05
1.03628e-05
1.0363e-05
1.03632e-05
1.03634e-05
1.03636e-05
1.03638e-05
1.0364e-05
1.03643e-05
1.03645e-05
1.03647e-05
1.0365e-05
1.03652e-05
1.03654e-05
1.03657e-05
1.03659e-05
1.03662e-05
1.03665e-05
1.03668e-05
1.0367e-05
1.03673e-05
1.03676e-05
1.03679e-05
1.03682e-05
1.03685e-05
1.03688e-05
1.03692e-05
1.03695e-05
1.03698e-05
1.03702e-05
1.03705e-05
1.03709e-05
1.03712e-05
1.03716e-05
1.03719e-05
1.03723e-05
1.03727e-05
1.03731e-05
1.03734e-05
1.03738e-05
1.03742e-05
1.03746e-05
1.03751e-05
1.03755e-05
1.03759e-05
1.03763e-05
1.03768e-05
1.03772e-05
1.03777e-05
1.03781e-05
1.03786e-05
1.03791e-05
1.03796e-05
1.03801e-05
1.03807e-05
1.03812e-05
1.03817e-05
1.03823e-05
1.03829e-05
1.03835e-05
1.03841e-05
1.03847e-05
1.03853e-05
1.0386e-05
1.03866e-05
1.03873e-05
1.0388e-05
1.03887e-05
1.03894e-05
1.03902e-05
1.03909e-05
1.03917e-05
1.03925e-05
1.03933e-05
1.03941e-05
1.03949e-05
1.03957e-05
1.03965e-05
1.03974e-05
1.03983e-05
1.03991e-05
1.04e-05
1.04009e-05
1.04018e-05
1.04027e-05
1.04036e-05
1.04046e-05
1.04055e-05
1.04065e-05
1.04075e-05
1.04085e-05
1.04095e-05
1.04105e-05
1.04116e-05
1.04127e-05
1.04138e-05
1.04149e-05
1.04161e-05
1.04173e-05
1.04185e-05
1.04198e-05
1.04211e-05
1.04224e-05
1.04238e-05
1.04252e-05
1.04259e-05
1.04213e-05
1.0352e-05
1.03521e-05
1.03522e-05
1.03524e-05
1.03525e-05
1.03527e-05
1.03529e-05
1.03531e-05
1.03533e-05
1.03535e-05
1.03538e-05
1.0354e-05
1.03543e-05
1.03546e-05
1.0355e-05
1.03553e-05
1.03591e-05
1.03592e-05
1.03594e-05
1.03595e-05
1.03597e-05
1.03598e-05
1.036e-05
1.03601e-05
1.03603e-05
1.03605e-05
1.03607e-05
1.03608e-05
1.0361e-05
1.03612e-05
1.03614e-05
1.03616e-05
1.03618e-05
1.03621e-05
1.03623e-05
1.03625e-05
1.03627e-05
1.0363e-05
1.03632e-05
1.03634e-05
1.03637e-05
1.03639e-05
1.03642e-05
1.03644e-05
1.03647e-05
1.0365e-05
1.03652e-05
1.03655e-05
1.03658e-05
1.0366e-05
1.03663e-05
1.03666e-05
1.03669e-05
1.03672e-05
1.03675e-05
1.03678e-05
1.03681e-05
1.03684e-05
1.03687e-05
1.0369e-05
1.03693e-05
1.03696e-05
1.037e-05
1.03703e-05
1.03706e-05
1.0371e-05
1.03713e-05
1.03717e-05
1.03721e-05
1.03725e-05
1.03728e-05
1.03732e-05
1.03736e-05
1.0374e-05
1.03744e-05
1.03749e-05
1.03753e-05
1.03757e-05
1.03762e-05
1.03767e-05
1.03771e-05
1.03776e-05
1.03781e-05
1.03786e-05
1.03791e-05
1.03796e-05
1.03802e-05
1.03807e-05
1.03813e-05
1.03818e-05
1.03824e-05
1.0383e-05
1.03836e-05
1.03842e-05
1.03848e-05
1.03855e-05
1.03861e-05
1.03868e-05
1.03875e-05
1.03882e-05
1.03889e-05
1.03896e-05
1.03903e-05
1.0391e-05
1.03918e-05
1.03925e-05
1.03933e-05
1.03941e-05
1.03949e-05
1.03957e-05
1.03965e-05
1.03974e-05
1.03983e-05
1.03991e-05
1.04001e-05
1.0401e-05
1.04019e-05
1.04029e-05
1.04039e-05
1.04049e-05
1.0406e-05
1.0407e-05
1.04081e-05
1.04092e-05
1.04104e-05
1.04116e-05
1.04128e-05
1.0414e-05
1.04153e-05
1.04165e-05
1.04179e-05
1.04192e-05
1.04206e-05
1.0422e-05
1.04234e-05
1.04248e-05
1.04263e-05
1.04278e-05
1.04293e-05
1.04309e-05
1.04324e-05
1.0434e-05
1.04356e-05
1.04373e-05
1.04389e-05
1.04406e-05
1.04424e-05
1.04441e-05
1.04459e-05
1.04477e-05
1.04496e-05
1.04514e-05
1.04534e-05
1.04553e-05
1.04574e-05
1.04594e-05
1.04615e-05
1.04637e-05
1.04659e-05
1.04682e-05
1.04706e-05
1.0473e-05
1.04755e-05
1.04781e-05
1.04807e-05
1.04834e-05
1.04862e-05
1.04891e-05
1.04921e-05
1.04951e-05
1.04983e-05
1.05015e-05
1.05048e-05
1.05082e-05
1.05117e-05
1.05153e-05
1.0519e-05
1.05227e-05
1.05265e-05
1.05304e-05
1.05343e-05
1.05383e-05
1.05424e-05
1.05465e-05
1.05506e-05
1.05548e-05
1.0559e-05
1.05633e-05
1.05676e-05
1.05719e-05
1.05762e-05
1.05807e-05
1.05851e-05
1.05896e-05
1.05942e-05
1.05988e-05
1.06035e-05
1.06082e-05
1.06131e-05
1.0618e-05
1.0623e-05
1.06281e-05
1.06334e-05
1.06387e-05
1.06442e-05
1.06499e-05
1.06557e-05
1.06601e-05
1.06448e-05
1.03535e-05
1.03538e-05
1.03542e-05
1.03546e-05
1.0355e-05
1.03554e-05
1.03559e-05
1.03564e-05
1.03569e-05
1.03575e-05
1.03582e-05
1.03589e-05
1.03596e-05
1.03604e-05
1.03612e-05
1.03732e-05
1.03736e-05
1.0374e-05
1.03744e-05
1.03749e-05
1.03753e-05
1.03758e-05
1.03762e-05
1.03767e-05
1.03772e-05
1.03778e-05
1.03783e-05
1.03789e-05
1.03795e-05
1.03801e-05
1.03807e-05
1.03813e-05
1.0382e-05
1.03826e-05
1.03833e-05
1.0384e-05
1.03847e-05
1.03854e-05
1.03862e-05
1.03869e-05
1.03877e-05
1.03885e-05
1.03893e-05
1.03901e-05
1.03909e-05
1.03917e-05
1.03926e-05
1.03934e-05
1.03943e-05
1.03952e-05
1.03961e-05
1.0397e-05
1.03979e-05
1.03988e-05
1.03998e-05
1.04008e-05
1.04017e-05
1.04027e-05
1.04038e-05
1.04048e-05
1.04059e-05
1.04069e-05
1.0408e-05
1.04092e-05
1.04103e-05
1.04115e-05
1.04127e-05
1.04139e-05
1.04151e-05
1.04164e-05
1.04177e-05
1.0419e-05
1.04203e-05
1.04217e-05
1.04231e-05
1.04245e-05
1.04259e-05
1.04274e-05
1.04289e-05
1.04305e-05
1.04321e-05
1.04337e-05
1.04353e-05
1.0437e-05
1.04387e-05
1.04405e-05
1.04423e-05
1.04442e-05
1.04461e-05
1.0448e-05
1.045e-05
1.04521e-05
1.04541e-05
1.04563e-05
1.04585e-05
1.04607e-05
1.04629e-05
1.04653e-05
1.04676e-05
1.047e-05
1.04725e-05
1.0475e-05
1.04776e-05
1.04802e-05
1.04828e-05
1.04855e-05
1.04883e-05
1.04911e-05
1.04939e-05
1.04968e-05
1.04998e-05
1.05029e-05
1.0506e-05
1.05091e-05
1.05124e-05
1.05157e-05
1.05191e-05
1.05226e-05
1.05262e-05
1.05298e-05
1.05336e-05
1.05374e-05
1.05414e-05
1.05455e-05
1.05496e-05
1.05539e-05
1.05583e-05
1.05629e-05
1.05675e-05
1.05723e-05
1.05772e-05
1.05823e-05
1.05874e-05
1.05927e-05
1.05981e-05
1.06036e-05
1.06093e-05
1.0615e-05
1.06209e-05
1.06268e-05
1.06329e-05
1.0639e-05
1.06453e-05
1.06516e-05
1.0658e-05
1.06644e-05
1.0671e-05
1.06776e-05
1.06843e-05
1.06911e-05
1.06981e-05
1.07051e-05
1.07123e-05
1.07196e-05
1.0727e-05
1.07346e-05
1.07423e-05
1.07503e-05
1.07584e-05
1.07667e-05
1.07752e-05
1.0784e-05
1.0793e-05
1.08022e-05
1.08117e-05
1.08215e-05
1.08316e-05
1.0842e-05
1.08527e-05
1.08637e-05
1.08751e-05
1.08868e-05
1.08989e-05
1.09113e-05
1.09241e-05
1.09373e-05
1.09509e-05
1.09648e-05
1.09791e-05
1.09937e-05
1.10087e-05
1.1024e-05
1.10395e-05
1.10554e-05
1.10715e-05
1.10878e-05
1.11043e-05
1.11209e-05
1.11376e-05
1.11543e-05
1.11712e-05
1.11881e-05
1.12052e-05
1.12223e-05
1.12396e-05
1.12569e-05
1.12744e-05
1.12921e-05
1.13099e-05
1.13279e-05
1.1346e-05
1.13645e-05
1.13832e-05
1.1402e-05
1.14216e-05
1.14407e-05
1.1461e-05
1.14258e-05
1.03567e-05
1.03574e-05
1.03582e-05
1.0359e-05
1.036e-05
1.0361e-05
1.03621e-05
1.03633e-05
1.03645e-05
1.03659e-05
1.03674e-05
1.0369e-05
1.03707e-05
1.03726e-05
1.03745e-05
1.03766e-05
1.04093e-05
1.04104e-05
1.04116e-05
1.04127e-05
1.0414e-05
1.04152e-05
1.04165e-05
1.04179e-05
1.04193e-05
1.04207e-05
1.04222e-05
1.04238e-05
1.04254e-05
1.0427e-05
1.04287e-05
1.04305e-05
1.04323e-05
1.04342e-05
1.04361e-05
1.04381e-05
1.04401e-05
1.04422e-05
1.04443e-05
1.04465e-05
1.04487e-05
1.04509e-05
1.04532e-05
1.04556e-05
1.04579e-05
1.04603e-05
1.04628e-05
1.04653e-05
1.04678e-05
1.04703e-05
1.04729e-05
1.04756e-05
1.04783e-05
1.0481e-05
1.04838e-05
1.04866e-05
1.04895e-05
1.04925e-05
1.04955e-05
1.04985e-05
1.05017e-05
1.05049e-05
1.05082e-05
1.05115e-05
1.05149e-05
1.05184e-05
1.0522e-05
1.05256e-05
1.05293e-05
1.05331e-05
1.0537e-05
1.0541e-05
1.0545e-05
1.05491e-05
1.05533e-05
1.05576e-05
1.0562e-05
1.05665e-05
1.0571e-05
1.05757e-05
1.05805e-05
1.05854e-05
1.05904e-05
1.05955e-05
1.06008e-05
1.06062e-05
1.06117e-05
1.06173e-05
1.06231e-05
1.0629e-05
1.06351e-05
1.06414e-05
1.06478e-05
1.06544e-05
1.06611e-05
1.0668e-05
1.06751e-05
1.06823e-05
1.06898e-05
1.06974e-05
1.07051e-05
1.07131e-05
1.07212e-05
1.07295e-05
1.07379e-05
1.07465e-05
1.07552e-05
1.0764e-05
1.0773e-05
1.07821e-05
1.07914e-05
1.08008e-05
1.08103e-05
1.082e-05
1.08299e-05
1.084e-05
1.08502e-05
1.08607e-05
1.08714e-05
1.08824e-05
1.08936e-05
1.0905e-05
1.09168e-05
1.09288e-05
1.09412e-05
1.09539e-05
1.0967e-05
1.09804e-05
1.09942e-05
1.10083e-05
1.10229e-05
1.10378e-05
1.10532e-05
1.1069e-05
1.10852e-05
1.11018e-05
1.11189e-05
1.11363e-05
1.11542e-05
1.11725e-05
1.11912e-05
1.12102e-05
1.12296e-05
1.12494e-05
1.12694e-05
1.12898e-05
1.13103e-05
1.1331e-05
1.13519e-05
1.13729e-05
1.13941e-05
1.14155e-05
1.1437e-05
1.14588e-05
1.14808e-05
1.1503e-05
1.15254e-05
1.15481e-05
1.15711e-05
1.15944e-05
1.1618e-05
1.16421e-05
1.16665e-05
1.16914e-05
1.17168e-05
1.17427e-05
1.17693e-05
1.17966e-05
1.18245e-05
1.18533e-05
1.1883e-05
1.19136e-05
1.19451e-05
1.19777e-05
1.20115e-05
1.20463e-05
1.20824e-05
1.21197e-05
1.21582e-05
1.21979e-05
1.22389e-05
1.22812e-05
1.23246e-05
1.23691e-05
1.24148e-05
1.24614e-05
1.2509e-05
1.25575e-05
1.26066e-05
1.26555e-05
1.27041e-05
1.27523e-05
1.28002e-05
1.28475e-05
1.28945e-05
1.29407e-05
1.29865e-05
1.30316e-05
1.30762e-05
1.312e-05
1.31631e-05
1.32058e-05
1.3247e-05
1.32887e-05
1.33276e-05
1.33683e-05
1.34048e-05
1.34502e-05
1.34269e-05
1.03652e-05
1.03669e-05
1.03688e-05
1.03709e-05
1.03732e-05
1.03756e-05
1.03783e-05
1.03812e-05
1.03843e-05
1.03877e-05
1.03913e-05
1.03952e-05
1.03993e-05
1.04991e-05
1.0502e-05
1.05051e-05
1.05082e-05
1.05115e-05
1.05148e-05
1.05183e-05
1.05219e-05
1.05256e-05
1.05294e-05
1.05334e-05
1.05375e-05
1.05418e-05
1.05462e-05
1.05507e-05
1.05554e-05
1.05603e-05
1.05653e-05
1.05705e-05
1.05759e-05
1.05813e-05
1.0587e-05
1.05927e-05
1.05986e-05
1.06047e-05
1.06109e-05
1.06172e-05
1.06236e-05
1.06301e-05
1.06368e-05
1.06435e-05
1.06504e-05
1.06574e-05
1.06645e-05
1.06718e-05
1.06791e-05
1.06866e-05
1.06942e-05
1.0702e-05
1.07099e-05
1.0718e-05
1.07262e-05
1.07346e-05
1.07432e-05
1.0752e-05
1.07609e-05
1.07701e-05
1.07795e-05
1.07891e-05
1.07989e-05
1.0809e-05
1.08193e-05
1.08298e-05
1.08405e-05
1.08514e-05
1.08626e-05
1.0874e-05
1.08855e-05
1.08973e-05
1.09093e-05
1.09215e-05
1.09338e-05
1.09464e-05
1.09593e-05
1.09723e-05
1.09856e-05
1.09992e-05
1.1013e-05
1.10271e-05
1.10416e-05
1.10563e-05
1.10714e-05
1.10868e-05
1.11026e-05
1.11188e-05
1.11354e-05
1.11524e-05
1.11698e-05
1.11877e-05
1.1206e-05
1.12247e-05
1.12439e-05
1.12636e-05
1.12838e-05
1.13044e-05
1.13254e-05
1.1347e-05
1.13689e-05
1.13913e-05
1.14142e-05
1.14374e-05
1.14611e-05
1.14851e-05
1.15094e-05
1.15339e-05
1.15587e-05
1.15838e-05
1.16092e-05
1.16349e-05
1.16608e-05
1.16871e-05
1.17137e-05
1.17406e-05
1.17679e-05
1.17956e-05
1.18237e-05
1.18522e-05
1.18811e-05
1.19105e-05
1.19404e-05
1.19708e-05
1.20018e-05
1.20334e-05
1.20657e-05
1.20986e-05
1.21324e-05
1.21669e-05
1.22023e-05
1.22386e-05
1.22758e-05
1.2314e-05
1.23531e-05
1.23932e-05
1.24342e-05
1.24763e-05
1.25192e-05
1.25631e-05
1.26077e-05
1.26532e-05
1.26994e-05
1.27463e-05
1.27932e-05
1.28397e-05
1.28858e-05
1.29315e-05
1.29767e-05
1.30214e-05
1.30656e-05
1.31093e-05
1.31524e-05
1.3195e-05
1.3237e-05
1.32784e-05
1.33193e-05
1.33597e-05
1.33994e-05
1.34386e-05
1.34772e-05
1.35152e-05
1.35524e-05
1.3589e-05
1.36248e-05
1.36597e-05
1.36938e-05
1.37269e-05
1.3759e-05
1.379e-05
1.38199e-05
1.38486e-05
1.38761e-05
1.39025e-05
1.39276e-05
1.39515e-05
1.39742e-05
1.39957e-05
1.40161e-05
1.40355e-05
1.40537e-05
1.4071e-05
1.40873e-05
1.41027e-05
1.41171e-05
1.41308e-05
1.41438e-05
1.41563e-05
1.41684e-05
1.41798e-05
1.41911e-05
1.42017e-05
1.42123e-05
1.42221e-05
1.42321e-05
1.4241e-05
1.42504e-05
1.42587e-05
1.42674e-05
1.42752e-05
1.42828e-05
1.42905e-05
1.42968e-05
1.43043e-05
1.43111e-05
1.42958e-05
1.03856e-05
1.03897e-05
1.03943e-05
1.03993e-05
1.04047e-05
1.04106e-05
1.0417e-05
1.04239e-05
1.04313e-05
1.04393e-05
1.04478e-05
1.04569e-05
1.04666e-05
1.07104e-05
1.07178e-05
1.07254e-05
1.07332e-05
1.07413e-05
1.07496e-05
1.07582e-05
1.07671e-05
1.07763e-05
1.07858e-05
1.07957e-05
1.08059e-05
1.08164e-05
1.08273e-05
1.08386e-05
1.08503e-05
1.08624e-05
1.08748e-05
1.08877e-05
1.09009e-05
1.09145e-05
1.09285e-05
1.09428e-05
1.09575e-05
1.09725e-05
1.09878e-05
1.10034e-05
1.10193e-05
1.10355e-05
1.10519e-05
1.10685e-05
1.10853e-05
1.11024e-05
1.11197e-05
1.11372e-05
1.11549e-05
1.11729e-05
1.11911e-05
1.12096e-05
1.12284e-05
1.12475e-05
1.12669e-05
1.12867e-05
1.13069e-05
1.13275e-05
1.13485e-05
1.13699e-05
1.13918e-05
1.14141e-05
1.14369e-05
1.14602e-05
1.1484e-05
1.15082e-05
1.15329e-05
1.15581e-05
1.15837e-05
1.16098e-05
1.16363e-05
1.16633e-05
1.16906e-05
1.17183e-05
1.17463e-05
1.17746e-05
1.18033e-05
1.18323e-05
1.18616e-05
1.18914e-05
1.19214e-05
1.19519e-05
1.19828e-05
1.20141e-05
1.20459e-05
1.2078e-05
1.21107e-05
1.21438e-05
1.21774e-05
1.22115e-05
1.22461e-05
1.22813e-05
1.23171e-05
1.23535e-05
1.23906e-05
1.24283e-05
1.24668e-05
1.2506e-05
1.25459e-05
1.25866e-05
1.2628e-05
1.26701e-05
1.27129e-05
1.27563e-05
1.28002e-05
1.28447e-05
1.28897e-05
1.29346e-05
1.2979e-05
1.3023e-05
1.30664e-05
1.31092e-05
1.31513e-05
1.31928e-05
1.32335e-05
1.32736e-05
1.3313e-05
1.33517e-05
1.33897e-05
1.3427e-05
1.34638e-05
1.34999e-05
1.35354e-05
1.35703e-05
1.36047e-05
1.36384e-05
1.36715e-05
1.37039e-05
1.37357e-05
1.37666e-05
1.37968e-05
1.3826e-05
1.38543e-05
1.38815e-05
1.39077e-05
1.39328e-05
1.39568e-05
1.39796e-05
1.40014e-05
1.40219e-05
1.40415e-05
1.40599e-05
1.40774e-05
1.40939e-05
1.41096e-05
1.41247e-05
1.41392e-05
1.41533e-05
1.41669e-05
1.418e-05
1.41927e-05
1.42051e-05
1.4217e-05
1.42286e-05
1.42398e-05
1.42505e-05
1.42607e-05
1.42704e-05
1.42795e-05
1.42881e-05
1.42961e-05
1.43034e-05
1.43102e-05
1.43163e-05
1.43219e-05
1.43269e-05
1.43314e-05
1.43355e-05
1.43392e-05
1.43426e-05
1.43458e-05
1.43489e-05
1.43518e-05
1.43548e-05
1.43577e-05
1.43606e-05
1.43637e-05
1.43667e-05
1.43699e-05
1.43732e-05
1.43766e-05
1.438e-05
1.43836e-05
1.43871e-05
1.43907e-05
1.43942e-05
1.43979e-05
1.44013e-05
1.44049e-05
1.44082e-05
1.44115e-05
1.44147e-05
1.44177e-05
1.44206e-05
1.44231e-05
1.44258e-05
1.44278e-05
1.44302e-05
1.44317e-05
1.44338e-05
1.44347e-05
1.44368e-05
1.44372e-05
1.44387e-05
1.44395e-05
1.44363e-05
1.04247e-05
1.04337e-05
1.04434e-05
1.04541e-05
1.04657e-05
1.04783e-05
1.0492e-05
1.05067e-05
1.05225e-05
1.05395e-05
1.05577e-05
1.0577e-05
1.05976e-05
1.06194e-05
1.1168e-05
1.11844e-05
1.12011e-05
1.12182e-05
1.12358e-05
1.12538e-05
1.12723e-05
1.12913e-05
1.13109e-05
1.1331e-05
1.13518e-05
1.13732e-05
1.13953e-05
1.1418e-05
1.14414e-05
1.14655e-05
1.14904e-05
1.15159e-05
1.15422e-05
1.15692e-05
1.15969e-05
1.16252e-05
1.16542e-05
1.16839e-05
1.17141e-05
1.17449e-05
1.17763e-05
1.18081e-05
1.18404e-05
1.1873e-05
1.1906e-05
1.19391e-05
1.19726e-05
1.20062e-05
1.204e-05
1.2074e-05
1.21082e-05
1.21426e-05
1.21772e-05
1.22121e-05
1.22472e-05
1.22826e-05
1.23183e-05
1.23543e-05
1.23906e-05
1.24273e-05
1.24644e-05
1.25019e-05
1.25398e-05
1.25781e-05
1.26168e-05
1.26561e-05
1.26958e-05
1.27359e-05
1.27765e-05
1.28176e-05
1.28591e-05
1.29009e-05
1.29432e-05
1.29857e-05
1.30284e-05
1.30708e-05
1.31128e-05
1.31542e-05
1.3195e-05
1.32352e-05
1.32748e-05
1.33136e-05
1.33517e-05
1.3389e-05
1.34255e-05
1.34613e-05
1.34963e-05
1.35306e-05
1.35642e-05
1.35972e-05
1.36294e-05
1.3661e-05
1.36919e-05
1.37222e-05
1.37517e-05
1.37806e-05
1.38087e-05
1.38359e-05
1.38623e-05
1.38877e-05
1.39121e-05
1.39354e-05
1.39576e-05
1.39788e-05
1.39988e-05
1.40176e-05
1.40354e-05
1.40521e-05
1.4068e-05
1.40832e-05
1.40977e-05
1.41117e-05
1.41254e-05
1.41386e-05
1.41515e-05
1.41642e-05
1.41766e-05
1.41888e-05
1.42009e-05
1.42127e-05
1.42242e-05
1.42353e-05
1.42461e-05
1.42564e-05
1.42661e-05
1.42753e-05
1.42838e-05
1.42917e-05
1.42989e-05
1.43055e-05
1.43114e-05
1.43168e-05
1.43217e-05
1.43262e-05
1.43304e-05
1.43343e-05
1.43381e-05
1.43417e-05
1.43453e-05
1.43489e-05
1.43525e-05
1.43562e-05
1.43599e-05
1.43637e-05
1.43676e-05
1.43715e-05
1.43754e-05
1.43793e-05
1.43832e-05
1.4387e-05
1.43907e-05
1.43943e-05
1.43977e-05
1.44008e-05
1.44037e-05
1.44064e-05
1.44088e-05
1.44109e-05
1.44128e-05
1.44144e-05
1.44157e-05
1.44169e-05
1.4418e-05
1.44189e-05
1.44197e-05
1.44204e-05
1.44211e-05
1.44218e-05
1.44226e-05
1.44234e-05
1.44242e-05
1.44252e-05
1.44263e-05
1.44274e-05
1.44287e-05
1.44301e-05
1.44315e-05
1.4433e-05
1.44345e-05
1.44361e-05
1.44376e-05
1.44392e-05
1.44407e-05
1.44422e-05
1.44436e-05
1.4445e-05
1.44462e-05
1.44474e-05
1.44485e-05
1.44495e-05
1.44504e-05
1.44512e-05
1.4452e-05
1.44527e-05
1.44534e-05
1.44539e-05
1.44546e-05
1.4455e-05
1.44557e-05
1.4456e-05
1.44566e-05
1.44569e-05
1.44576e-05
1.44579e-05
1.44586e-05
1.44593e-05
1.44587e-05
1.05234e-05
1.05437e-05
1.05659e-05
1.059e-05
1.06161e-05
1.06442e-05
1.06745e-05
1.0707e-05
1.07417e-05
1.07785e-05
1.08176e-05
1.08587e-05
1.09019e-05
1.09471e-05
1.19977e-05
1.20266e-05
1.20559e-05
1.20858e-05
1.21162e-05
1.21471e-05
1.21786e-05
1.22107e-05
1.22434e-05
1.22769e-05
1.2311e-05
1.23458e-05
1.23814e-05
1.24177e-05
1.24548e-05
1.24926e-05
1.2531e-05
1.25702e-05
1.261e-05
1.26505e-05
1.26915e-05
1.27331e-05
1.27751e-05
1.28175e-05
1.28603e-05
1.29034e-05
1.29467e-05
1.29901e-05
1.30336e-05
1.30772e-05
1.31206e-05
1.31635e-05
1.32056e-05
1.3247e-05
1.32876e-05
1.33273e-05
1.3366e-05
1.34039e-05
1.34407e-05
1.34766e-05
1.35115e-05
1.35455e-05
1.35784e-05
1.36105e-05
1.36416e-05
1.36719e-05
1.37014e-05
1.373e-05
1.37579e-05
1.3785e-05
1.38113e-05
1.38369e-05
1.38616e-05
1.38855e-05
1.39085e-05
1.39307e-05
1.39519e-05
1.39721e-05
1.39913e-05
1.40095e-05
1.40268e-05
1.40432e-05
1.40588e-05
1.40738e-05
1.40881e-05
1.41019e-05
1.41151e-05
1.41279e-05
1.41403e-05
1.41524e-05
1.41642e-05
1.41758e-05
1.41871e-05
1.41981e-05
1.42087e-05
1.42191e-05
1.42289e-05
1.42383e-05
1.42472e-05
1.42555e-05
1.42632e-05
1.42704e-05
1.42769e-05
1.42828e-05
1.42884e-05
1.42935e-05
1.42982e-05
1.43027e-05
1.4307e-05
1.43111e-05
1.43153e-05
1.43194e-05
1.43236e-05
1.43278e-05
1.43322e-05
1.43367e-05
1.43413e-05
1.43461e-05
1.43508e-05
1.43556e-05
1.43603e-05
1.43649e-05
1.43693e-05
1.43735e-05
1.43775e-05
1.4381e-05
1.43843e-05
1.43873e-05
1.43898e-05
1.4392e-05
1.4394e-05
1.43958e-05
1.43973e-05
1.43987e-05
1.43999e-05
1.44012e-05
1.44024e-05
1.44036e-05
1.44049e-05
1.44063e-05
1.44077e-05
1.44093e-05
1.4411e-05
1.44128e-05
1.44148e-05
1.44168e-05
1.44189e-05
1.4421e-05
1.44231e-05
1.44252e-05
1.44273e-05
1.44292e-05
1.44311e-05
1.44328e-05
1.44343e-05
1.44357e-05
1.44369e-05
1.4438e-05
1.44389e-05
1.44397e-05
1.44403e-05
1.44408e-05
1.44412e-05
1.44415e-05
1.44418e-05
1.4442e-05
1.44421e-05
1.44423e-05
1.44425e-05
1.44427e-05
1.4443e-05
1.44433e-05
1.44436e-05
1.44441e-05
1.44446e-05
1.44452e-05
1.44459e-05
1.44467e-05
1.44475e-05
1.44484e-05
1.44494e-05
1.44504e-05
1.44514e-05
1.44525e-05
1.44536e-05
1.44548e-05
1.44559e-05
1.4457e-05
1.44582e-05
1.44592e-05
1.44603e-05
1.44614e-05
1.44624e-05
1.44633e-05
1.44643e-05
1.44652e-05
1.4466e-05
1.44668e-05
1.44676e-05
1.44682e-05
1.44689e-05
1.44695e-05
1.44702e-05
1.44707e-05
1.44713e-05
1.44719e-05
1.44726e-05
1.44732e-05
1.44739e-05
1.44746e-05
1.44754e-05
1.44766e-05
1.44765e-05
1.07413e-05
1.07853e-05
1.08329e-05
1.0884e-05
1.09386e-05
1.09967e-05
1.10583e-05
1.11234e-05
1.1192e-05
1.1264e-05
1.13394e-05
1.14179e-05
1.14991e-05
1.15825e-05
1.31261e-05
1.31608e-05
1.31953e-05
1.32296e-05
1.32636e-05
1.32973e-05
1.33307e-05
1.33638e-05
1.33966e-05
1.34291e-05
1.34611e-05
1.34927e-05
1.35239e-05
1.35547e-05
1.35849e-05
1.36146e-05
1.36438e-05
1.36725e-05
1.37007e-05
1.37282e-05
1.37551e-05
1.37814e-05
1.38072e-05
1.38323e-05
1.38567e-05
1.38804e-05
1.39033e-05
1.39255e-05
1.39468e-05
1.39672e-05
1.39868e-05
1.40056e-05
1.40237e-05
1.40409e-05
1.40575e-05
1.40732e-05
1.40883e-05
1.41026e-05
1.41163e-05
1.41294e-05
1.4142e-05
1.4154e-05
1.41655e-05
1.41766e-05
1.41872e-05
1.41973e-05
1.4207e-05
1.42163e-05
1.4225e-05
1.42333e-05
1.4241e-05
1.42483e-05
1.4255e-05
1.42613e-05
1.42672e-05
1.42726e-05
1.42778e-05
1.42826e-05
1.42872e-05
1.42917e-05
1.42961e-05
1.43004e-05
1.43047e-05
1.4309e-05
1.43134e-05
1.43178e-05
1.43222e-05
1.43267e-05
1.43311e-05
1.43354e-05
1.43396e-05
1.43436e-05
1.43473e-05
1.43508e-05
1.43541e-05
1.43569e-05
1.43596e-05
1.43621e-05
1.43642e-05
1.43662e-05
1.43681e-05
1.43699e-05
1.43717e-05
1.43735e-05
1.43753e-05
1.43772e-05
1.43792e-05
1.43814e-05
1.43837e-05
1.43861e-05
1.43888e-05
1.43914e-05
1.43942e-05
1.43971e-05
1.43998e-05
1.44026e-05
1.44053e-05
1.44079e-05
1.44102e-05
1.44125e-05
1.44144e-05
1.44161e-05
1.44177e-05
1.44191e-05
1.44201e-05
1.44211e-05
1.4422e-05
1.44226e-05
1.44232e-05
1.44238e-05
1.44243e-05
1.44248e-05
1.44253e-05
1.44259e-05
1.44265e-05
1.44272e-05
1.4428e-05
1.44289e-05
1.44298e-05
1.44309e-05
1.44321e-05
1.44333e-05
1.44346e-05
1.44359e-05
1.44372e-05
1.44385e-05
1.44398e-05
1.44411e-05
1.44424e-05
1.44436e-05
1.44447e-05
1.44458e-05
1.44467e-05
1.44476e-05
1.44485e-05
1.44492e-05
1.44499e-05
1.44505e-05
1.4451e-05
1.44514e-05
1.44518e-05
1.44522e-05
1.44525e-05
1.44528e-05
1.44531e-05
1.44535e-05
1.44538e-05
1.44543e-05
1.44547e-05
1.44552e-05
1.44558e-05
1.44565e-05
1.44572e-05
1.44581e-05
1.44589e-05
1.44599e-05
1.44609e-05
1.4462e-05
1.44631e-05
1.44643e-05
1.44655e-05
1.44667e-05
1.44679e-05
1.44691e-05
1.44704e-05
1.44716e-05
1.44729e-05
1.44741e-05
1.44754e-05
1.44766e-05
1.44778e-05
1.44789e-05
1.44801e-05
1.44811e-05
1.44822e-05
1.44832e-05
1.44842e-05
1.44851e-05
1.44861e-05
1.44871e-05
1.4488e-05
1.4489e-05
1.449e-05
1.4491e-05
1.4492e-05
1.44931e-05
1.44942e-05
1.44954e-05
1.44966e-05
1.4498e-05
1.44993e-05
1.45013e-05
1.45013e-05
1.11884e-05
1.12745e-05
1.1366e-05
1.14629e-05
1.15648e-05
1.16712e-05
1.17815e-05
1.18951e-05
1.20116e-05
1.21304e-05
1.2251e-05
1.23726e-05
1.24942e-05
1.39554e-05
1.39706e-05
1.39854e-05
1.39996e-05
1.40134e-05
1.40268e-05
1.40398e-05
1.40523e-05
1.40645e-05
1.40763e-05
1.40877e-05
1.40988e-05
1.41096e-05
1.41201e-05
1.41303e-05
1.41403e-05
1.415e-05
1.41593e-05
1.41684e-05
1.41772e-05
1.41858e-05
1.4194e-05
1.42018e-05
1.42093e-05
1.42166e-05
1.42236e-05
1.42304e-05
1.42369e-05
1.42431e-05
1.42491e-05
1.42548e-05
1.42604e-05
1.42658e-05
1.42711e-05
1.42763e-05
1.42815e-05
1.42865e-05
1.42915e-05
1.42965e-05
1.43013e-05
1.4306e-05
1.43106e-05
1.4315e-05
1.43191e-05
1.4323e-05
1.43266e-05
1.433e-05
1.43332e-05
1.4336e-05
1.43387e-05
1.43413e-05
1.43436e-05
1.43459e-05
1.43481e-05
1.43503e-05
1.43525e-05
1.43548e-05
1.43571e-05
1.43595e-05
1.4362e-05
1.43645e-05
1.43672e-05
1.43699e-05
1.43726e-05
1.43753e-05
1.43778e-05
1.43803e-05
1.43827e-05
1.43848e-05
1.43868e-05
1.43886e-05
1.43901e-05
1.43916e-05
1.43929e-05
1.4394e-05
1.43951e-05
1.43962e-05
1.43971e-05
1.4398e-05
1.43991e-05
1.44001e-05
1.44012e-05
1.44024e-05
1.44038e-05
1.44051e-05
1.44067e-05
1.44084e-05
1.441e-05
1.44118e-05
1.44137e-05
1.44154e-05
1.44171e-05
1.4419e-05
1.44207e-05
1.44222e-05
1.44239e-05
1.44254e-05
1.44265e-05
1.44279e-05
1.44291e-05
1.44299e-05
1.44308e-05
1.44317e-05
1.44322e-05
1.44328e-05
1.44335e-05
1.4434e-05
1.44345e-05
1.4435e-05
1.44356e-05
1.44362e-05
1.44369e-05
1.44376e-05
1.44384e-05
1.44393e-05
1.44403e-05
1.44414e-05
1.44425e-05
1.44437e-05
1.44449e-05
1.44462e-05
1.44474e-05
1.44487e-05
1.445e-05
1.44513e-05
1.44525e-05
1.44537e-05
1.44549e-05
1.4456e-05
1.44571e-05
1.4458e-05
1.4459e-05
1.44598e-05
1.44606e-05
1.44613e-05
1.4462e-05
1.44626e-05
1.44632e-05
1.44638e-05
1.44644e-05
1.44649e-05
1.44655e-05
1.44661e-05
1.44667e-05
1.44673e-05
1.44681e-05
1.44688e-05
1.44697e-05
1.44706e-05