/*--------------------------------*- C++ -*----------------------------------*\
| =========                 |                                                 |
| \\      /  F ield         | OpenFOAM: The Open Source CFD Toolbox           |
|  \\    /   O peration     | Version:  v1706                                 |
|   \\  /    A nd           | Web:      www.OpenFOAM.com                      |
|    \\/     M anipulation  |                                                 |
\*---------------------------------------------------------------------------*/
FoamFile
{
    version     2.0;
    format      ascii;
    class       volScalarField;
    location    "1.8e-05";
    object      p;
}
// * * * * * * * * * * * * * * * * * * * * * * * * * * * * * * * * * * * * * //

dimensions      [1 -1 -2 0 0 0 0];


internalField   nonuniform List<scalar> 
30104
(
21.914
21.914
21.914
21.914
21.914
21.9141
21.9141
21.9141
21.9141
21.9141
21.9142
21.9142
21.9142
21.9142
21.9143
21.9143
21.9143
21.9145
21.9145
21.9145
21.9145
21.9145
21.9145
21.9145
21.9146
21.9146
21.9146
21.9146
21.9146
21.9146
21.9146
21.9146
21.9146
21.9147
21.9147
21.9147
21.9147
21.9147
21.9147
21.9147
21.9147
21.9148
21.9148
21.9148
21.9148
21.9148
21.9148
21.9148
21.9148
21.9149
21.9149
21.9149
21.9149
21.9149
21.9149
21.9149
21.915
21.915
21.915
21.915
21.915
21.915
21.915
21.9151
21.9151
21.9151
21.9151
21.9151
21.9151
21.9152
21.9152
21.9152
21.9152
21.9152
21.9152
21.9153
21.9153
21.9153
21.9153
21.9153
21.9153
21.9154
21.9154
21.9154
21.9154
21.9154
21.9155
21.9155
21.9155
21.9155
21.9155
21.9156
21.9156
21.9156
21.9156
21.9156
21.9157
21.9157
21.9157
21.9157
21.9158
21.9158
21.9158
21.9158
21.9159
21.9159
21.9159
21.916
21.916
21.916
21.9161
21.9161
21.9161
21.9162
21.9162
21.9162
21.9163
21.9163
21.9163
21.9164
21.9164
21.9164
21.9165
21.9165
21.9165
21.9166
21.9166
21.9167
21.9167
21.9168
21.9168
21.9168
21.9169
21.9169
21.917
21.917
21.9171
21.9171
21.9172
21.9172
21.9173
21.9173
21.9174
21.9174
21.9174
21.9175
21.9175
21.9176
21.9177
21.9177
21.9178
21.9178
21.9179
21.9179
21.918
21.918
21.9181
21.9181
21.9182
21.9183
21.9183
21.9184
21.9184
21.9185
21.9185
21.9186
21.9187
21.9187
21.9188
21.9189
21.9189
21.919
21.9191
21.9191
21.9192
21.9193
21.9193
21.9194
21.9195
21.9196
21.9196
21.9197
21.9198
21.9199
21.92
21.9201
21.9202
21.9203
21.9204
21.9204
21.9205
21.9207
21.9208
21.9209
21.921
21.9211
21.9212
21.9214
21.9215
21.9216
21.9218
21.9219
21.922
21.9222
21.9224
21.9225
21.9227
21.9229
21.9229
21.922
21.9144
21.9145
21.9145
21.9146
21.9147
21.9148
21.9149
21.915
21.9151
21.9152
21.9154
21.9155
21.9157
21.9158
21.916
21.9162
21.9164
21.9179
21.9179
21.918
21.9181
21.9181
21.9182
21.9182
21.9183
21.9184
21.9185
21.9185
21.9186
21.9187
21.9188
21.9189
21.9189
21.919
21.9191
21.9192
21.9193
21.9194
21.9195
21.9196
21.9197
21.9198
21.9199
21.92
21.9201
21.9202
21.9203
21.9204
21.9205
21.9206
21.9207
21.9208
21.9209
21.921
21.9211
21.9212
21.9213
21.9214
21.9215
21.9216
21.9217
21.9218
21.9219
21.9221
21.9222
21.9223
21.9224
21.9225
21.9227
21.9228
21.9229
21.9231
21.9232
21.9233
21.9235
21.9236
21.9238
21.9239
21.9241
21.9242
21.9244
21.9246
21.9247
21.9249
21.9251
21.9252
21.9254
21.9256
21.9258
21.926
21.9261
21.9263
21.9265
21.9267
21.9269
21.9271
21.9273
21.9275
21.9277
21.928
21.9282
21.9284
21.9286
21.9288
21.9291
21.9293
21.9295
21.9298
21.93
21.9303
21.9305
21.9308
21.931
21.9313
21.9316
21.9319
21.9321
21.9324
21.9327
21.933
21.9333
21.9336
21.9339
21.9343
21.9346
21.9349
21.9352
21.9356
21.9359
21.9363
21.9366
21.937
21.9373
21.9377
21.9381
21.9384
21.9388
21.9392
21.9396
21.94
21.9404
21.9408
21.9413
21.9417
21.9421
21.9426
21.943
21.9435
21.944
21.9445
21.9449
21.9455
21.946
21.9465
21.947
21.9476
21.9481
21.9487
21.9493
21.9499
21.9505
21.9512
21.9518
21.9525
21.9532
21.9539
21.9546
21.9554
21.9561
21.9569
21.9577
21.9585
21.9593
21.9601
21.9609
21.9618
21.9626
21.9635
21.9644
21.9652
21.9661
21.967
21.968
21.9689
21.9698
21.9708
21.9717
21.9727
21.9737
21.9747
21.9757
21.9767
21.9778
21.9788
21.9799
21.981
21.9821
21.9832
21.9844
21.9856
21.9868
21.988
21.9892
21.9905
21.9918
21.9931
21.9944
21.9958
21.9965
21.9922
21.9155
21.9157
21.9159
21.9161
21.9164
21.9167
21.917
21.9173
21.9177
21.9181
21.9185
21.919
21.9195
21.92
21.9206
21.9212
21.9276
21.9279
21.9281
21.9283
21.9285
21.9288
21.929
21.9293
21.9295
21.9298
21.9301
21.9304
21.9307
21.931
21.9313
21.9316
21.9319
21.9323
21.9326
21.933
21.9333
21.9337
21.934
21.9344
21.9348
21.9352
21.9356
21.9359
21.9363
21.9367
21.9371
21.9375
21.938
21.9384
21.9388
21.9392
21.9396
21.9401
21.9405
21.9409
21.9414
21.9418
21.9423
21.9428
21.9432
21.9437
21.9442
21.9447
21.9452
21.9457
21.9462
21.9468
21.9473
21.9479
21.9484
21.949
21.9495
21.9501
21.9507
21.9513
21.9519
21.9525
21.9532
21.9538
21.9545
21.9551
21.9558
21.9565
21.9572
21.9579
21.9587
21.9594
21.9602
21.961
21.9618
21.9626
21.9634
21.9642
21.9651
21.9659
21.9668
21.9677
21.9686
21.9695
21.9705
21.9714
21.9724
21.9734
21.9744
21.9755
21.9766
21.9777
21.9788
21.9799
21.9811
21.9823
21.9835
21.9847
21.986
21.9873
21.9886
21.9899
21.9913
21.9927
21.9941
21.9956
21.9971
21.9986
22.0001
22.0017
22.0033
22.005
22.0067
22.0084
22.0101
22.0119
22.0137
22.0156
22.0174
22.0193
22.0212
22.0232
22.0252
22.0272
22.0292
22.0313
22.0334
22.0355
22.0377
22.0398
22.0421
22.0444
22.0467
22.049
22.0515
22.0539
22.0564
22.059
22.0617
22.0643
22.0671
22.0699
22.0728
22.0757
22.0787
22.0817
22.0848
22.088
22.0912
22.0945
22.0979
22.1013
22.1048
22.1083
22.1119
22.1156
22.1193
22.1231
22.127
22.131
22.135
22.1391
22.1433
22.1475
22.1519
22.1563
22.1607
22.1653
22.1699
22.1746
22.1794
22.1843
22.1893
22.1943
22.1995
22.2048
22.2102
22.2157
22.2213
22.2271
22.233
22.2391
22.2453
22.2518
22.2584
22.2652
22.2723
22.2796
22.2871
22.2949
22.3029
22.3104
22.296
21.9183
21.9188
21.9194
21.9201
21.9208
21.9215
21.9224
21.9233
21.9243
21.9254
21.9266
21.9278
21.9292
21.9306
21.9321
21.9337
21.9545
21.9552
21.9559
21.9566
21.9574
21.9582
21.959
21.9598
21.9607
21.9616
21.9625
21.9635
21.9644
21.9654
21.9665
21.9675
21.9686
21.9697
21.9709
21.972
21.9732
21.9744
21.9756
21.9769
21.9781
21.9794
21.9807
21.9819
21.9833
21.9846
21.9859
21.9872
21.9886
21.99
21.9914
21.9928
21.9942
21.9957
21.9971
21.9986
22.0002
22.0017
22.0033
22.0049
22.0065
22.0081
22.0098
22.0115
22.0133
22.0151
22.0169
22.0187
22.0206
22.0226
22.0245
22.0266
22.0286
22.0307
22.0329
22.0351
22.0374
22.0397
22.042
22.0444
22.0469
22.0494
22.052
22.0546
22.0573
22.06
22.0628
22.0656
22.0685
22.0715
22.0745
22.0776
22.0807
22.084
22.0872
22.0906
22.094
22.0975
22.101
22.1046
22.1083
22.112
22.1158
22.1197
22.1236
22.1275
22.1316
22.1357
22.1398
22.1441
22.1484
22.1528
22.1574
22.162
22.1667
22.1715
22.1765
22.1815
22.1867
22.192
22.1975
22.203
22.2087
22.2146
22.2205
22.2266
22.2329
22.2392
22.2457
22.2524
22.2591
22.266
22.273
22.2802
22.2874
22.2949
22.3024
22.3101
22.318
22.326
22.3341
22.3424
22.3509
22.3595
22.3683
22.3773
22.3864
22.3958
22.4053
22.4151
22.4251
22.4353
22.4457
22.4564
22.4674
22.4786
22.4902
22.502
22.5142
22.5268
22.5397
22.553
22.5667
22.5809
22.5955
22.6106
22.6261
22.6422
22.6587
22.6758
22.6934
22.7115
22.7301
22.7492
22.7688
22.7889
22.8094
22.8304
22.8518
22.8735
22.8956
22.918
22.9407
22.9636
22.9868
23.0103
23.034
23.0579
23.082
23.1063
23.131
23.1559
23.1812
23.2067
23.2327
23.2591
23.2859
23.3131
23.3409
23.3692
23.398
23.4275
23.4576
23.4884
23.5199
23.5522
23.5844
23.6213
23.5708
21.9253
21.9267
21.9282
21.9299
21.9318
21.9338
21.936
21.9383
21.9409
21.9437
21.9467
21.9499
21.9534
21.9571
21.9611
22.0263
22.0283
22.0304
22.0325
22.0348
22.0371
22.0394
22.0419
22.0444
22.047
22.0497
22.0525
22.0554
22.0583
22.0614
22.0645
22.0678
22.0711
22.0745
22.078
22.0816
22.0852
22.089
22.0928
22.0967
22.1007
22.1047
22.1088
22.113
22.1172
22.1216
22.1259
22.1304
22.1349
22.1395
22.1442
22.1489
22.1537
22.1586
22.1635
22.1686
22.1737
22.1789
22.1843
22.1897
22.1953
22.201
22.2068
22.2127
22.2187
22.2248
22.2311
22.2375
22.244
22.2506
22.2573
22.2642
22.2712
22.2783
22.2855
22.2929
22.3004
22.3081
22.316
22.324
22.3322
22.3407
22.3493
22.3581
22.3671
22.3764
22.3858
22.3955
22.4055
22.4157
22.4261
22.4367
22.4476
22.4587
22.4701
22.4817
22.4935
22.5056
22.518
22.5306
22.5435
22.5567
22.5702
22.5839
22.598
22.6125
22.6272
22.6423
22.6578
22.6736
22.6898
22.7064
22.7235
22.7409
22.7588
22.7771
22.7959
22.8152
22.835
22.8553
22.8761
22.8975
22.9194
22.942
22.9652
22.9891
23.0136
23.0389
23.0648
23.0915
23.1189
23.1471
23.176
23.2057
23.2361
23.2672
23.299
23.3314
23.3645
23.3982
23.4324
23.4672
23.5025
23.5384
23.5747
23.6116
23.649
23.687
23.7256
23.765
23.805
23.8459
23.8877
23.9304
23.974
24.0188
24.0646
24.1116
24.1599
24.2094
24.2603
24.3126
24.3663
24.4216
24.4784
24.5368
24.5968
24.6586
24.7221
24.7874
24.8546
24.9237
24.9948
25.0679
25.143
25.2203
25.2997
25.3812
25.465
25.5509
25.6391
25.7294
25.8218
25.9163
26.013
26.1115
26.212
26.3141
26.4181
26.5238
26.6314
26.7409
26.8525
26.9662
27.0822
27.2007
27.3218
27.4459
27.5727
27.7034
27.8371
27.9755
28.1181
28.2645
28.4207
28.5716
28.7498
28.7104
21.9396
21.9427
21.9462
21.9501
21.9543
21.959
21.9641
21.9696
21.9756
21.9821
21.9891
21.9966
22.0045
22.0131
22.0222
22.0319
22.2108
22.2167
22.2227
22.2289
22.2354
22.242
22.2489
22.2561
22.2634
22.2711
22.279
22.2871
22.2956
22.3043
22.3133
22.3226
22.3322
22.3421
22.3523
22.3627
22.3734
22.3844
22.3955
22.407
22.4186
22.4305
22.4425
22.4548
22.4672
22.4798
22.4926
22.5056
22.5188
22.5322
22.5458
22.5596
22.5737
22.5881
22.6027
22.6176
22.6328
22.6484
22.6643
22.6805
22.6971
22.714
22.7314
22.7491
22.7672
22.7857
22.8047
22.8241
22.8439
22.8642
22.8849
22.9062
22.928
22.9503
22.9732
22.9966
23.0207
23.0453
23.0706
23.0966
23.1232
23.1506
23.1786
23.2074
23.2369
23.2672
23.2983
23.3302
23.363
23.3966
23.431
23.4665
23.5028
23.5402
23.5785
23.618
23.6584
23.7
23.7426
23.7863
23.8311
23.877
23.9239
23.9718
24.0207
24.0704
24.1211
24.1727
24.2251
24.2784
24.3325
24.3877
24.4439
24.5011
24.5596
24.6194
24.6805
24.7432
24.8075
24.8736
24.9415
25.0114
25.0833
25.1574
25.2338
25.3126
25.3937
25.4774
25.5635
25.6523
25.7437
25.8378
25.9345
26.034
26.1363
26.2413
26.3492
26.46
26.5736
26.6902
26.8098
26.9323
27.0578
27.1864
27.318
27.4525
27.59
27.7302
27.8733
28.0195
28.1688
28.3214
28.4773
28.6369
28.8003
28.9676
29.1392
29.3154
29.4964
29.6827
29.8748
30.0731
30.2783
30.4912
30.7123
30.9426
31.183
31.4344
31.6979
31.9746
32.2654
32.5717
32.8943
33.2347
33.5937
33.9725
34.3719
34.7929
35.2359
35.7018
36.1908
36.7032
37.2389
37.7978
38.3795
38.9832
39.6087
40.2542
40.9179
41.5896
42.2703
42.9558
43.6502
44.3471
45.0528
45.7592
46.4741
47.1889
47.9103
48.6338
49.3583
50.0924
50.8141
51.5618
52.2734
53.0336
53.7401
54.4909
55.0847
21.9776
21.9855
21.9942
22.0038
22.0142
22.0255
22.0379
22.0512
22.0657
22.0814
22.0984
22.1168
22.1365
22.6815
22.6974
22.7138
22.7306
22.748
22.7659
22.7844
22.8036
22.8235
22.8441
22.8654
22.8875
22.9104
22.9342
22.9587
22.9842
23.0104
23.0376
23.0656
23.0944
23.1242
23.1547
23.1861
23.2184
23.2514
23.2853
23.3199
23.3554
23.3916
23.4286
23.4664
23.505
23.5444
23.5846
23.6256
23.6675
23.7102
23.7538
23.7984
23.8439
23.8905
23.9381
23.9868
24.0367
24.0878
24.1402
24.1939
24.249
24.3055
24.3634
24.4229
24.4838
24.5463
24.6103
24.6757
24.7427
24.8111
24.8809
24.9521
25.0247
25.0987
25.1741
25.2511
25.3297
25.41
25.4921
25.5762
25.6623
25.7506
25.8412
25.9343
26.03
26.1286
26.23
26.3345
26.4422
26.5531
26.6674
26.7851
26.9063
27.0311
27.1594
27.2914
27.427
27.5663
27.7095
27.8565
28.0074
28.1624
28.3215
28.4849
28.6526
28.8249
29.0016
29.183
29.3691
29.5601
29.7564
29.9582
30.1657
30.3791
30.5987
30.8247
31.0574
31.297
31.5439
31.7985
32.0611
32.3323
32.6127
32.9031
33.2041
33.5166
33.8417
34.1803
34.5336
34.9026
35.2886
35.6924
36.1154
36.5583
37.022
37.5072
38.0146
38.5443
39.0967
39.6716
40.2688
40.888
41.5286
42.1894
42.8628
43.5445
44.234
44.9312
45.6357
46.3474
47.0663
47.7923
48.5258
49.2667
50.0155
50.7721
51.5369
52.3096
53.0903
53.8781
54.6725
55.4721
56.2756
57.0807
57.8856
58.6873
59.4831
60.27
61.0448
61.8045
62.5459
63.2667
63.9638
64.6359
65.2804
65.8976
66.4851
67.0446
67.5744
68.0772
68.5521
69.0021
69.4274
69.8305
70.2135
70.5789
70.9377
71.2868
71.6352
71.9731
72.3156
72.6451
72.9847
73.3069
73.6446
73.9598
74.2936
74.6027
74.9272
75.2337
75.5393
75.8515
76.1208
76.4533
76.6693
76.9307
22.0694
22.0883
22.1092
22.1321
22.1574
22.185
22.2151
22.2478
22.2831
22.321
22.3616
22.4049
22.451
23.8303
23.8728
23.9166
23.9619
24.0088
24.0574
24.1077
24.16
24.2142
24.2705
24.3289
24.3896
24.4527
24.5181
24.586
24.6564
24.7293
24.8047
24.8828
24.9634
25.0466
25.1323
25.2206
25.3112
25.4042
25.4995
25.597
25.6965
25.7979
25.9012
26.0063
26.1133
26.2221
26.3328
26.4455
26.5603
26.6773
26.7967
26.9187
27.0434
27.171
27.3018
27.4359
27.5736
27.715
27.8604
28.0098
28.1635
28.3215
28.484
28.651
28.8228
28.9992
29.1805
29.3667
29.558
29.7546
29.9565
30.164
30.3774
30.5966
30.8219
31.0535
31.292
31.5375
31.7905
32.0514
32.3203
32.5978
32.884
33.1794
33.4841
33.7986
34.1232
34.4584
34.8045
35.1624
35.5327
35.9162
36.3136
36.7263
37.1553
37.6012
38.0655
38.5493
39.0533
39.5781
40.1246
40.6928
41.2829
41.8947
42.5274
43.1804
43.8527
44.5371
45.2286
45.9263
46.6289
47.3359
48.0472
48.7621
49.4805
50.2027
50.9293
51.6608
52.3976
53.1402
53.8894
54.6459
55.4094
56.1793
56.9553
57.7365
58.5209
59.3061
60.0896
60.8685
61.6394
62.3987
63.1429
63.8688
64.5733
65.254
65.9088
66.5364
67.1361
67.7078
68.2521
68.7701
69.263
69.7331
70.1886
70.6341
71.0711
71.5008
71.9241
72.3416
72.7533
73.1593
73.5586
73.9506
74.3333
74.706
75.0659
75.4123
75.7424
76.0558
76.35
76.6256
76.8809
77.1173
77.3343
77.5342
77.7176
77.8875
78.0451
78.1935
78.3348
78.4712
78.6053
78.7383
78.8729
79.009
79.1494
79.2926
79.4419
79.5942
79.7532
79.9143
80.0819
80.2499
80.4235
80.5951
80.7708
80.9422
81.1149
81.2817
81.446
81.6041
81.7549
81.9013
82.0338
82.167
82.2774
82.3976
82.4835
82.5919
82.6533
82.7517
82.7915
82.8788
82.9073
82.9524
22.2462
22.2877
22.3334
22.3835
22.438
22.4972
22.5614
22.6311
22.7065
22.7882
22.8767
22.9722
23.0748
23.1845
26.6247
26.7334
26.845
26.9598
27.0781
27.2001
27.3262
27.4565
27.5915
27.7313
27.8762
28.0266
28.1827
28.3448
28.5131
28.6879
28.8694
29.0578
29.2532
29.4557
29.6655
29.8826
30.1071
30.3388
30.5779
30.8241
31.0776
31.3385
31.6066
31.882
32.1646
32.4542
32.7511
33.0553
33.367
33.6867
34.0145
34.3509
34.6963
35.051
35.4155
35.7903
36.1759
36.5728
36.9816
37.4028
37.8372
38.2852
38.7477
39.2258
39.7199
40.231
40.7601
41.3081
41.8752
42.462
43.0691
43.6963
44.3433
45.0095
45.6924
46.3849
47.0843
47.7899
48.5007
49.2154
49.9334
50.6538
51.376
52.0998
52.8251
53.5522
54.2818
55.0138
55.7487
56.4878
57.23
57.9739
58.7208
59.4697
60.2155
60.9571
61.6945
62.4218
63.1337
63.8305
64.5087
65.1626
65.7917
66.3955
66.9713
67.5203
68.0437
68.5421
69.0238
69.4944
69.9554
70.4105
70.8617
71.3085
71.754
72.1999
72.6428
73.0824
73.5198
73.9512
74.3724
74.782
75.1775
75.5542
75.9099
76.243
76.5511
76.8335
77.0907
77.3238
77.5337
77.7233
77.8958
78.0541
78.2017
78.3418
78.4777
78.612
78.747
78.8844
79.0255
79.1711
79.3214
79.4761
79.635
79.7968
79.9607
80.1248
80.2879
80.4481
80.6042
80.7543
80.8975
81.0324
81.1587
81.2755
81.3831
81.4814
81.571
81.6528
81.7274
81.7964
81.8601
81.9207
81.9783
82.0351
82.0908
82.1474
82.2045
82.264
82.3246
82.3883
82.4532
82.5213
82.5899
82.661
82.7315
82.8034
82.873
82.9424
83.008
83.0717
83.1304
83.1856
83.2354
83.2803
83.3204
83.3545
83.3856
83.4098
83.4334
83.4493
83.4675
83.4772
83.4916
83.4971
83.5095
83.5122
83.5237
83.5251
83.5368
83.5379
83.5509
83.5532
83.5672
83.5747
83.5784
22.6989
22.7944
22.8994
23.015
23.142
23.2809
23.4321
23.596
23.7727
23.9623
24.1645
24.3791
24.6064
24.8471
32.89
33.1525
33.4237
33.7041
33.9944
34.2953
34.6077
34.9322
35.2697
35.6209
35.9867
36.3679
36.7651
37.1789
37.6101
38.0592
38.5262
39.0116
39.516
40.0401
40.5836
41.1459
41.727
42.3275
42.9477
43.5874
44.2458
44.9222
45.6161
46.3266
47.0514
47.7834
48.52
49.2601
50.0026
50.7464
51.4902
52.2331
52.9742
53.713
54.4489
55.1817
55.9114
56.6382
57.3621
58.083
58.8012
59.5172
60.2296
60.9364
61.6377
62.3328
63.0167
63.687
64.3437
64.9835
65.602
66.1983
66.7719
67.3215
67.8486
68.3593
68.8566
69.3415
69.8151
70.2798
70.7365
71.1866
71.6329
72.0744
72.5106
72.9429
73.368
73.7827
74.1873
74.5774
74.9484
75.3016
75.6339
75.9394
76.2224
76.4859
76.7232
76.9379
77.1408
77.3291
77.5021
77.6706
77.8374
78.0004
78.1655
78.3359
78.5091
78.688
78.8737
79.0619
79.2539
79.4492
79.6406
79.8292
80.0146
80.1886
80.3518
80.5063
80.6458
80.769
80.8809
80.9806
81.0659
81.1406
81.2085
81.2699
81.3262
81.3802
81.4339
81.4885
81.5452
81.605
81.6688
81.737
81.81
81.8876
81.9694
82.0549
82.1431
82.2331
82.3234
82.4128
82.4999
82.5835
82.6622
82.7352
82.8018
82.8615
82.9142
82.9602
82.9994
83.0329
83.0605
83.0838
83.1026
83.1184
83.1309
83.1421
83.1511
83.1598
83.1676
83.1759
83.1842
83.1937
83.2037
83.2153
83.2278
83.2419
83.2569
83.2734
83.2908
83.3093
83.3284
83.3483
83.3686
83.3894
83.4103
83.4313
83.4526
83.4735
83.4946
83.5149
83.5355
83.5546
83.5741
83.5913
83.6093
83.6241
83.6403
83.6523
83.6661
83.6749
83.6861
83.6924
83.7013
83.7058
83.7133
83.7169
83.7236
83.7273
83.7343
83.7392
83.7474
83.7543
83.7641
83.7773
83.7778
23.736
23.9577
24.1997
24.4622
24.7456
25.0511
25.3803
25.735
26.1175
26.5307
26.977
27.4569
27.9694
28.512
46.78
47.3858
48.0008
48.6238
49.2548
49.8941
50.5416
51.1969
51.8599
52.5303
53.2072
53.8898
54.5781
55.2716
55.9687
56.6691
57.374
58.0833
58.7942
59.5036
60.2121
60.9216
61.631
62.3358
63.0319
63.7173
64.3906
65.0501
65.6932
66.3175
66.9226
67.5123
68.0868
68.6452
69.1871
69.7122
70.221
70.7146
71.193
71.6575
72.1091
72.5477
72.973
73.3853
73.7836
74.1666
74.5334
74.882
75.2105
75.5207
75.8119
76.0803
76.33
76.5661
76.7852
76.9887
77.1844
77.3739
77.5576
77.7391
77.9204
78.1034
78.2879
78.4724
78.6594
78.8469
79.0315
79.2149
79.3929
79.5608
79.7216
79.871
80.0052
80.1302
80.2434
80.3419
80.4326
80.5172
80.5928
80.6651
80.738
80.8087
80.8808
80.9591
81.0396
81.1226
81.2149
81.3132
81.4103
81.5136
81.6238
81.7284
81.8313
81.9372
82.033
82.1212
82.2071
82.279
82.3407
82.4007
82.4457
82.4803
82.5161
82.5429
82.5606
82.5796
82.5969
82.6103
82.624
82.6397
82.6561
82.6739
82.6946
82.718
82.7438
82.7722
82.8033
82.8366
82.8713
82.9073
82.9437
82.9801
83.0157
83.05
83.0829
83.1138
83.1426
83.1693
83.1938
83.2163
83.2366
83.2553
83.2719
83.2868
83.2998
83.3112
83.3209
83.329
83.3354
83.3411
83.3454
83.349
83.3522
83.3556
83.3588
83.3627
83.3671
83.3727
83.3791
83.3869
83.3958
83.4062
83.4177
83.4306
83.4446
83.4598
83.4759
83.4928
83.5104
83.5284
83.547
83.5655
83.5846
83.6028
83.6218
83.6396
83.658
83.6748
83.6926
83.708
83.7247
83.7383
83.7538
83.7656
83.7788
83.7883
83.7988
83.8068
83.8152
83.822
83.8291
83.8354
83.842
83.8486
83.8557
83.8633
83.8717
83.8812
83.8915
83.9033
83.9157
83.9354
83.9306
26.0193
26.4954
27.0185
27.5927
28.2197
28.8993
29.6303
30.4121
31.2445
32.1244
33.0472
34.0113
35.0184
65.3724
65.8728
66.3677
66.8578
67.3427
67.8223
68.2966
68.7659
69.2301
69.6888
70.1424
70.5913
71.0345
71.471
71.9019
72.3268
72.741
73.1396
73.5243
73.9005
74.2663
74.6126
74.9345
75.2372
75.5267
75.8043
76.0682
76.3173
76.5527
76.7772
76.9928
77.2014
77.4045
77.6034
77.7987
77.9917
78.1829
78.3707
78.5551
78.7359
78.9097
79.0752
79.2334
79.382
79.5185
79.6458
79.7649
79.8739
79.9759
80.0739
80.1668
80.2573
80.3485
80.4383
80.5291
80.6256
80.7236
80.8222
80.9251
81.029
81.1329
81.2363
81.3343
81.4302
81.5222
81.6023
81.677
81.7451
81.799
81.8488
81.894
81.9278
81.9607
81.9923
82.0178
82.0443
82.0735
82.1008
82.1302
82.165
82.2005
82.2366
82.2789
82.324
82.366
82.4116
82.4613
82.5035
82.5449
82.5921
82.6281
82.6589
82.6992
82.7278
82.7486
82.78
82.8034
82.8169
82.8395
82.859
82.8674
82.8814
82.8971
82.905
82.9143
82.9274
82.9381
82.9484
82.9619
82.9766
82.9913
83.0078
83.0264
83.046
83.0664
83.0884
83.1115
83.135
83.1589
83.1832
83.2074
83.2312
83.2543
83.2766
83.2978
83.3177
83.3361
83.3532
83.369
83.3827
83.395
83.4058
83.415
83.423
83.4297
83.4352
83.4401
83.4439
83.4472
83.4505
83.4537
83.4566
83.4604
83.4646
83.4696
83.4755
83.4828
83.4911
83.5009
83.5119
83.5244
83.5379
83.5527
83.5685
83.5855
83.603
83.6216
83.6402
83.6598
83.679
83.699
83.7179
83.7378
83.7558
83.775
83.7918
83.8094
83.8248
83.8404
83.8539
83.8671
83.8785
83.889
83.8984
83.907
83.9152
83.9227
83.9303
83.9374
83.945
83.9525
83.9609
83.9695
83.9793
83.9896
84.0013
84.0137
84.0277
84.0424
84.0588
84.0753
84.1013
84.0819
30.937
31.9639
33.0646
34.235
35.4763
36.7939
38.195
39.6857
41.2729
42.9827
44.8593
46.8911
49.0398
76.8771
77.0676
77.2493
77.4227
77.588
77.745
77.8935
78.0344
78.1685
78.2951
78.414
78.5264
78.6324
78.7304
78.8227
78.9158
79.0119
79.104
79.1872
79.2716
79.3672
79.4686
79.5666
79.6595
79.7522
79.849
79.9503
80.0544
80.1606
80.2694
80.3805
80.4924
80.6047
80.7164
80.8242
80.927
81.0256
81.1161
81.1976
81.274
81.3435
81.4035
81.4595
81.5135
81.561
81.6051
81.6511
81.6943
81.7343
81.7783
81.8236
81.8657
81.9107
81.9578
81.9997
82.0419
82.0845
82.1221
82.159
82.1913
82.2223
82.2557
82.2763
82.2967
82.323
82.3383
82.353
82.3737
82.3874
82.4005
82.4188
82.4345
82.4502
82.4708
82.4918
82.5123
82.5375
82.5651
82.5905
82.6191
82.6527
82.6818
82.7104
82.7471
82.779
82.8032
82.8359
82.8698
82.8884
82.9116
82.9433
82.9566
82.9712
82.9967
83.0071
83.0159
83.0351
83.0438
83.0491
83.0633
83.0729
83.0782
83.0896
83.102
83.1108
83.1224
83.1376
83.1514
83.1654
83.1826
83.2011
83.2189
83.2378
83.2585
83.2794
83.2996
83.3202
83.341
83.361
83.3803
83.399
83.4169
83.4338
83.4496
83.464
83.477
83.4887
83.4987
83.5078
83.5158
83.5227
83.5288
83.5342
83.5388
83.5434
83.5474
83.5517
83.5563
83.5614
83.5668
83.5737
83.5811
83.5902
83.6
83.6119
83.6242
83.6386
83.6532
83.6699
83.6865
83.7047
83.7228
83.7421
83.761
83.7808
83.7999
83.8195
83.8382
83.857
83.8747
83.8922
83.9083
83.9239
83.9383
83.9517
83.9641
83.9753
83.9857
83.9951
84.0039
84.0121
84.0204
84.0283
84.0365
84.0448
84.0536
84.0627
84.0727
84.0834
84.095
84.1075
84.1211
84.1357
84.1514
84.1681
84.1858
84.2044
84.2241
84.2428
84.2763
84.218
42.5246
44.6896
47.0916
49.7015
52.4736
55.3575
58.3002
61.2475
64.1302
66.8654
69.4276
71.8116
80.2609
80.3254
80.3873
80.446
80.5017
80.5547
80.6058
80.6556
80.7039
80.7506
80.7966
80.8426
80.888
80.9333
80.9801
81.0279
81.071
81.1069
81.1427
81.1876
81.2271
81.2413
81.2552
81.278
81.3099
81.3455
81.3791
81.4132
81.4496
81.4886
81.5287
81.5696
81.6115
81.6526
81.6921
81.7323
81.7709
81.8061
81.8418
81.8774
81.9084
81.9391
81.9722
82.0012
82.0275
82.0579
82.0883
82.1137
82.1432
82.1781
82.2065
82.2342
82.2707
82.3013
82.3259
82.358
82.3886
82.4119
82.4381
82.4607
82.4841
82.5074
82.5201
82.537
82.5566
82.5676
82.5821
82.5998
82.6123
82.6278
82.6468
82.663
82.6816
82.7045
82.7252
82.747
82.7743
82.7992
82.8223
82.8521
82.8811
82.9022
82.928
82.9616
82.981
82.9981
83.0281
83.0489
83.0596
83.0802
83.1008
83.1075
83.1214
83.1384
83.1427
83.1526
83.167
83.1707
83.1781
83.1927
83.1989
83.206
83.2217
83.233
83.2424
83.2581
83.2752
83.2892
83.3051
83.3251
83.3444
83.3626
83.3823
83.4036
83.4239
83.443
83.4626
83.4821
83.5
83.5171
83.5332
83.5481
83.5616
83.5737
83.5844
83.5938
83.6024
83.61
83.6168
83.623
83.6287
83.6341
83.6392
83.6444
83.6498
83.6558
83.6623
83.6697
83.6781
83.6876
83.6984
83.7104
83.7236
83.738
83.7536
83.7699
83.7872
83.8051
83.8237
83.8425
83.8617
83.8809
83.9
83.9188
83.9374
83.9553
83.9727
83.9893
84.005
84.0199
84.0338
84.0468
84.0589
84.0701
84.0805
84.0903
84.0995
84.1084
84.1171
84.1258
84.1347
84.1439
84.1535
84.1636
84.1745
84.1861
84.1985
84.2118
84.226
84.2411
84.2572
84.274
84.2918
84.3101
84.3295
84.349
84.3697
84.3894
84.4063
84.4439
84.311
63.277
66.7727
70.1132
73.2591
76.1837
78.8664
81.298
83.4803
85.4082
87.068
81.8957
81.898
81.8983
81.8986
81.8987
81.8979
81.8955
81.8915
81.885
81.8755
81.8655
81.8549
81.8424
81.8275
81.81
81.7894
81.7675
81.7487
81.7335
81.7157
81.6959
81.6919
81.702
81.7145
81.7181
81.7205
81.7344
81.7595
81.7873
81.8152
81.8443
81.8747
81.9066
81.9378
81.9691
82.0024
82.034
82.0647
82.0981
82.1302
82.1599
82.1929
82.2261
82.2543
82.2851
82.3203
82.3491
82.3765
82.4127
82.4422
82.4636
82.4942
82.5275
82.545
82.5667
82.5992
82.616
82.6328
82.6555
82.6705
82.6896
82.7046
82.7144
82.7323
82.7462
82.7558
82.7729
82.7882
82.8005
82.8189
82.837
82.8526
82.8736
82.8956
82.9137
82.9364
82.9628
82.982
83.0026
83.0325
83.0536
83.0694
83.0941
83.1214
83.1334
83.1483
83.1741
83.1872
83.1959
83.2149
83.2281
83.2329
83.2471
83.259
83.2622
83.2747
83.2869
83.2905
83.3028
83.3178
83.3248
83.3367
83.3562
83.3684
83.3806
83.4015
83.4206
83.4351
83.4537
83.4766
83.4953
83.513
83.5331
83.5532
83.5711
83.5881
83.6052
83.6211
83.6355
83.6488
83.661
83.672
83.6819
83.6908
83.6988
83.7063
83.7132
83.7197
83.7257
83.7317
83.7377
83.744
83.7507
83.758
83.7661
83.7751
83.7852
83.7964
83.8087
83.8222
83.8368
83.8523
83.8687
83.8859
83.9037
83.922
83.9406
83.9594
83.9782
83.9969
84.0153
84.0333
84.0508
84.0676
84.0837
84.099
84.1135
84.1271
84.1399
84.1519
84.1631
84.1738
84.1839
84.1937
84.2031
84.2125
84.2219
84.2315
84.2414
84.2517
84.2625
84.274
84.2862
84.2991
84.3128
84.3274
84.3428
84.3588
84.3756
84.393
84.411
84.4293
84.4486
84.4676
84.4879
84.5066
84.5267
84.5414
84.5499
84.5807
84.3234
88.6907
90.7678
92.5174
93.9551
95.0889
95.9714
96.626
97.0849
97.405
82.2984
82.2906
82.283
82.2756
82.2681
82.2599
82.2505
82.2398
82.2278
82.2149
82.201
82.1866
82.1722
82.1583
82.1454
82.1335
82.122
82.1111
82.1011
82.093
82.089
82.0858
82.0825
82.0861
82.0977
82.1129
82.1197
82.1271
82.143
82.1613
82.1797
82.1992
82.2188
82.2412
82.2654
82.2889
82.3155
82.345
82.3723
82.4016
82.4352
82.465
82.4933
82.5285
82.56
82.5839
82.6149
82.6482
82.666
82.6861
82.7196
82.7395
82.7518
82.7765
82.7983
82.8078
82.8264
82.8412
82.8508
82.8678
82.8773
82.8878
82.9051
82.914
82.9253
82.9437
82.9556
82.9692
82.9899
83.0053
83.0213
83.045
83.0638
83.0804
83.105
83.1291
83.1443
83.1647
83.1936
83.2096
83.223
83.2467
83.2671
83.2771
83.2917
83.3108
83.3215
83.33
83.3444
83.354
83.3601
83.3729
83.3827
83.389
83.4026
83.4144
83.4222
83.4377
83.453
83.464
83.4807
83.4994
83.5148
83.5312
83.5517
83.5711
83.5878
83.6067
83.6268
83.6451
83.662
83.6793
83.696
83.7114
83.7255
83.7387
83.7508
83.7619
83.772
83.7812
83.7897
83.7975
83.8049
83.8119
83.8186
83.8252
83.8318
83.8386
83.8459
83.8538
83.8623
83.8718
83.8821
83.8935
83.906
83.9194
83.9339
83.9492
83.9654
83.9822
83.9997
84.0175
84.0357
84.054
84.0723
84.0905
84.1085
84.126
84.143
84.1595
84.1752
84.1902
84.2045
84.218
84.2307
84.2427
84.2541
84.265
84.2754
84.2855
84.2955
84.3053
84.3153
84.3254
84.3359
84.3467
84.358
84.37
84.3825
84.3957
84.4096
84.4242
84.4395
84.4555
84.472
84.489
84.5063
84.524
84.5418
84.5601
84.5782
84.5972
84.6152
84.6345
84.6493
84.6644
84.6656
84.6544
84.6548
84.2114
100.906
101.42
82.8189
82.805
82.7901
82.7741
82.7568
82.738
82.7176
82.6957
82.6725
82.6488
82.6246
82.6001
82.5755
82.5508
82.526
82.502
82.4806
82.4621
82.4451
82.4283
82.4138
82.4065
82.4042
82.4018
82.3985
82.3986
82.4037
82.4143
82.4234
82.4301
82.4429
82.4588
82.474
82.493
82.5133
82.5343
82.5604
82.5872
82.6124
82.6431
82.6747
82.7007
82.7312
82.7658
82.7882
82.8102
82.8438
82.8659
82.879
82.9008
82.9277
82.9391
82.9506
82.9715
82.9837
82.9919
83.0075
83.0168
83.0268
83.0402
83.0472
83.0601
83.0745
83.0826
83.0977
83.1154
83.1263
83.143
83.1645
83.1785
83.1958
83.2205
83.2376
83.2537
83.2787
83.2989
83.3134
83.3332
83.3541
83.3689
83.3816
83.3984
83.4134
83.4237
83.4348
83.4468
83.4569
83.4655
83.4755
83.4851
83.4942
83.5051
83.5161
83.527
83.5397
83.5534
83.5667
83.5818
83.5982
83.6141
83.6311
83.6492
83.6669
83.6846
83.7029
83.7212
83.7384
83.7555
83.7723
83.7883
83.8033
83.8173
83.8304
83.8426
83.8537
83.8639
83.8733
83.8821
83.8902
83.8978
83.9051
83.9122
83.9192
83.9262
83.9333
83.9409
83.949
83.9578
83.9673
83.9777
83.9891
84.0013
84.0146
84.0287
84.0437
84.0594
84.0758
84.0927
84.11
84.1276
84.1454
84.1632
84.1808
84.1982
84.2153
84.2319
84.248
84.2635
84.2783
84.2924
84.3058
84.3186
84.3307
84.3422
84.3533
84.364
84.3744
84.3847
84.3949
84.4052
84.4157
84.4265
84.4376
84.4493
84.4614
84.4741
84.4874
84.5013
84.5158
84.5309
84.5465
84.5625
84.5788
84.5955
84.6123
84.6292
84.646
84.6629
84.6796
84.6968
84.7135
84.731
84.7464
84.762
84.7683
84.7703
84.7449
84.6966
84.6297
83.9379
83.2261
83.2057
83.1853
83.1642
83.1423
83.1196
83.0961
83.072
83.0473
83.0219
82.9961
82.9705
82.9452
82.9204
82.8967
82.8746
82.8541
82.8344
82.8158
82.7994
82.7854
82.7719
82.7605
82.7525
82.7455
82.7401
82.7372
82.7332
82.7316
82.7386
82.7471
82.7526
82.762
82.7772
82.7915
82.8085
82.8308
82.8511
82.8734
82.903
82.9272
82.9487
82.9802
83.0068
83.0225
83.0439
83.073
83.088
83.0993
83.1188
83.1365
83.145
83.1566
83.1716
83.1807
83.1894
83.2012
83.2088
83.2192
83.2302
83.2378
83.2516
83.2648
83.2745
83.2908
83.307
83.3193
83.3371
83.3555
83.3704
83.3881
83.4075
83.4244
83.4403
83.4584
83.4751
83.4893
83.5035
83.5174
83.5304
83.5416
83.552
83.5629
83.5727
83.5812
83.5901
83.5996
83.6087
83.618
83.6283
83.639
83.6504
83.6627
83.6758
83.6895
83.7042
83.7197
83.7354
83.7518
83.7687
83.7856
83.8026
83.8195
83.8362
83.8525
83.8684
83.8837
83.8981
83.9118
83.9248
83.9368
83.9479
83.9581
83.9677
83.9765
83.9847
83.9925
83.9999
84.0071
84.0142
84.0213
84.0285
84.0361
84.0442
84.0528
84.0621
84.0723
84.0833
84.0952
84.1079
84.1215
84.136
84.1511
84.1668
84.1831
84.1998
84.2168
84.2339
84.251
84.2681
84.285
84.3015
84.3177
84.3334
84.3485
84.3631
84.377
84.3904
84.4031
84.4153
84.427
84.4382
84.4491
84.4597
84.4702
84.4806
84.4911
84.5018
84.5127
84.5239
84.5356
84.5478
84.5604
84.5736
84.5872
84.6014
84.616
84.631
84.6464
84.662
84.6778
84.6937
84.7096
84.7253
84.7409
84.7564
84.7716
84.7869
84.8021
84.8177
84.833
84.8483
84.8595
84.8666
84.857
84.8324
84.7642
84.656
84.4762
83.4898
83.7405
83.7142
83.6867
83.6584
83.6294
83.5998
83.5696
83.5389
83.508
83.4771
83.4467
83.417
83.3878