/*--------------------------------*- C++ -*----------------------------------*\
| =========                 |                                                 |
| \\      /  F ield         | OpenFOAM: The Open Source CFD Toolbox           |
|  \\    /   O peration     | Version:  v1706                                 |
|   \\  /    A nd           | Web:      www.OpenFOAM.com                      |
|    \\/     M anipulation  |                                                 |
\*---------------------------------------------------------------------------*/
FoamFile
{
    version     2.0;
    format      ascii;
    class       volScalarField;
    location    "1.8e-05";
    object      rho;
}
// * * * * * * * * * * * * * * * * * * * * * * * * * * * * * * * * * * * * * //

dimensions      [1 -3 0 0 0 0 0];


internalField   nonuniform List<scalar> 
30104
(
0.00051131
0.00051131
0.00051131
0.00051131
0.000511311
0.000511311
0.000511311
0.000511311
0.000511311
0.000511311
0.000511312
0.000511312
0.000511312
0.000511312
0.000511313
0.000511313
0.000511313
0.000511315
0.000511315
0.000511315
0.000511315
0.000511315
0.000511315
0.000511315
0.000511316
0.000511316
0.000511316
0.000511316
0.000511316
0.000511316
0.000511316
0.000511316
0.000511316
0.000511316
0.000511317
0.000511317
0.000511317
0.000511317
0.000511317
0.000511317
0.000511317
0.000511317
0.000511318
0.000511318
0.000511318
0.000511318
0.000511318
0.000511318
0.000511318
0.000511318
0.000511319
0.000511319
0.000511319
0.000511319
0.000511319
0.000511319
0.000511319
0.00051132
0.00051132
0.00051132
0.00051132
0.00051132
0.00051132
0.000511321
0.000511321
0.000511321
0.000511321
0.000511321
0.000511321
0.000511321
0.000511322
0.000511322
0.000511322
0.000511322
0.000511322
0.000511322
0.000511322
0.000511323
0.000511323
0.000511323
0.000511323
0.000511323
0.000511323
0.000511324
0.000511324
0.000511324
0.000511324
0.000511324
0.000511325
0.000511325
0.000511325
0.000511325
0.000511325
0.000511326
0.000511326
0.000511326
0.000511326
0.000511326
0.000511327
0.000511327
0.000511327
0.000511327
0.000511328
0.000511328
0.000511328
0.000511329
0.000511329
0.000511329
0.000511329
0.00051133
0.00051133
0.00051133
0.000511331
0.000511331
0.000511331
0.000511332
0.000511332
0.000511332
0.000511333
0.000511333
0.000511334
0.000511334
0.000511334
0.000511335
0.000511335
0.000511336
0.000511336
0.000511337
0.000511337
0.000511337
0.000511338
0.000511338
0.000511339
0.000511339
0.00051134
0.00051134
0.000511341
0.000511341
0.000511342
0.000511342
0.000511343
0.000511343
0.000511344
0.000511344
0.000511345
0.000511345
0.000511346
0.000511346
0.000511347
0.000511347
0.000511348
0.000511348
0.000511349
0.000511349
0.00051135
0.00051135
0.000511351
0.000511352
0.000511352
0.000511353
0.000511353
0.000511354
0.000511354
0.000511355
0.000511355
0.000511356
0.000511356
0.000511357
0.000511357
0.000511358
0.000511358
0.000511359
0.000511359
0.00051136
0.00051136
0.000511361
0.000511362
0.000511362
0.000511363
0.000511364
0.000511365
0.000511365
0.000511366
0.000511367
0.000511368
0.000511369
0.00051137
0.000511371
0.000511372
0.000511373
0.000511374
0.000511375
0.000511376
0.000511377
0.000511378
0.00051138
0.000511381
0.000511383
0.000511384
0.000511386
0.000511387
0.000511389
0.000511391
0.000511392
0.000511394
0.000511396
0.000511398
0.0005114
0.000511402
0.000511398
0.000511314
0.000511314
0.000511315
0.000511315
0.000511316
0.000511317
0.000511318
0.000511319
0.00051132
0.000511321
0.000511322
0.000511324
0.000511325
0.000511326
0.000511328
0.00051133
0.000511331
0.000511348
0.000511348
0.000511349
0.00051135
0.00051135
0.000511351
0.000511352
0.000511352
0.000511353
0.000511354
0.000511355
0.000511355
0.000511356
0.000511357
0.000511358
0.000511359
0.00051136
0.00051136
0.000511361
0.000511362
0.000511363
0.000511364
0.000511365
0.000511366
0.000511367
0.000511368
0.000511369
0.00051137
0.000511371
0.000511372
0.000511373
0.000511374
0.000511375
0.000511376
0.000511377
0.000511378
0.000511379
0.00051138
0.000511381
0.000511382
0.000511383
0.000511384
0.000511385
0.000511386
0.000511387
0.000511388
0.000511389
0.000511391
0.000511392
0.000511393
0.000511394
0.000511396
0.000511397
0.000511398
0.0005114
0.000511401
0.000511402
0.000511404
0.000511405
0.000511407
0.000511408
0.00051141
0.000511412
0.000511413
0.000511415
0.000511417
0.000511418
0.00051142
0.000511422
0.000511424
0.000511425
0.000511427
0.000511429
0.000511431
0.000511433
0.000511435
0.000511437
0.000511439
0.000511441
0.000511443
0.000511445
0.000511448
0.00051145
0.000511452
0.000511454
0.000511457
0.000511459
0.000511461
0.000511464
0.000511466
0.000511468
0.000511471
0.000511473
0.000511476
0.000511479
0.000511481
0.000511484
0.000511487
0.000511489
0.000511492
0.000511495
0.000511498
0.000511501
0.000511504
0.000511507
0.000511511
0.000511514
0.000511517
0.00051152
0.000511524
0.000511527
0.00051153
0.000511534
0.000511537
0.000511541
0.000511544
0.000511548
0.000511552
0.000511555
0.000511559
0.000511563
0.000511567
0.000511571
0.000511576
0.00051158
0.000511584
0.000511589
0.000511593
0.000511598
0.000511602
0.000511607
0.000511612
0.000511617
0.000511622
0.000511628
0.000511633
0.000511638
0.000511644
0.00051165
0.000511655
0.000511661
0.000511668
0.000511674
0.000511681
0.000511687
0.000511694
0.000511701
0.000511709
0.000511716
0.000511724
0.000511732
0.00051174
0.000511748
0.000511756
0.000511765
0.000511774
0.000511783
0.000511792
0.000511801
0.00051181
0.00051182
0.000511829
0.000511839
0.000511848
0.000511858
0.000511868
0.000511878
0.000511888
0.000511899
0.000511909
0.00051192
0.00051193
0.000511941
0.000511952
0.000511963
0.000511975
0.000511986
0.000511998
0.00051201
0.000512022
0.000512034
0.000512046
0.000512059
0.000512071
0.000512084
0.000512097
0.000512109
0.000512123
0.000512136
0.000512149
0.000512162
0.000512178
0.00051216
0.000511323
0.000511325
0.000511326
0.000511329
0.000511331
0.000511333
0.000511336
0.000511339
0.000511342
0.000511346
0.00051135
0.000511354
0.000511358
0.000511363
0.000511368
0.000511374
0.000511446
0.000511448
0.00051145
0.000511452
0.000511455
0.000511457
0.000511459
0.000511462
0.000511465
0.000511467
0.00051147
0.000511473
0.000511476
0.000511479
0.000511482
0.000511485
0.000511489
0.000511492
0.000511496
0.000511499
0.000511503
0.000511506
0.00051151
0.000511514
0.000511518
0.000511521
0.000511525
0.000511529
0.000511533
0.000511538
0.000511542
0.000511546
0.00051155
0.000511554
0.000511559
0.000511563
0.000511567
0.000511572
0.000511576
0.000511581
0.000511585
0.00051159
0.000511595
0.000511599
0.000511604
0.000511609
0.000511614
0.000511619
0.000511625
0.00051163
0.000511635
0.000511641
0.000511646
0.000511652
0.000511657
0.000511663
0.000511669
0.000511675
0.000511681
0.000511687
0.000511693
0.000511699
0.000511705
0.000511712
0.000511719
0.000511725
0.000511732
0.000511739
0.000511747
0.000511754
0.000511761
0.000511769
0.000511777
0.000511784
0.000511792
0.0005118
0.000511809
0.000511817
0.000511826
0.000511834
0.000511843
0.000511852
0.000511861
0.000511871
0.000511881
0.000511891
0.000511901
0.000511911
0.000511922
0.000511933
0.000511944
0.000511956
0.000511967
0.000511979
0.000511992
0.000512004
0.000512017
0.00051203
0.000512043
0.000512057
0.000512071
0.000512085
0.000512099
0.000512114
0.000512129
0.000512144
0.00051216
0.000512176
0.000512192
0.000512208
0.000512225
0.000512243
0.000512261
0.000512279
0.000512297
0.000512316
0.000512335
0.000512355
0.000512374
0.000512394
0.000512415
0.000512435
0.000512456
0.000512478
0.000512499
0.000512521
0.000512543
0.000512565
0.000512588
0.000512612
0.000512635
0.000512659
0.000512684
0.000512709
0.000512734
0.000512761
0.000512787
0.000512814
0.000512842
0.000512871
0.000512899
0.000512929
0.000512959
0.000512989
0.00051302
0.000513051
0.000513083
0.000513116
0.000513148
0.000513181
0.000513215
0.000513249
0.000513284
0.000513319
0.000513354
0.00051339
0.000513427
0.000513465
0.000513503
0.000513542
0.000513582
0.000513623
0.000513664
0.000513707
0.00051375
0.000513795
0.000513841
0.000513887
0.000513935
0.000513984
0.000514034
0.000514085
0.000514138
0.000514192
0.000514247
0.000514304
0.000514362
0.000514421
0.000514483
0.000514546
0.000514611
0.000514678
0.000514747
0.000514818
0.000514892
0.000514969
0.000515048
0.000515129
0.000515214
0.000515302
0.00051539
0.000515516
0.000515489
0.000511346
0.000511351
0.000511356
0.000511362
0.000511368
0.000511375
0.000511383
0.000511391
0.0005114
0.00051141
0.00051142
0.000511432
0.000511444
0.000511456
0.00051147
0.000511485
0.000511716
0.000511723
0.000511731
0.000511738
0.000511746
0.000511755
0.000511763
0.000511772
0.000511781
0.00051179
0.000511799
0.000511809
0.000511819
0.00051183
0.00051184
0.000511851
0.000511862
0.000511874
0.000511886
0.000511898
0.00051191
0.000511922
0.000511935
0.000511947
0.00051196
0.000511973
0.000511986
0.000511999
0.000512012
0.000512026
0.000512039
0.000512053
0.000512066
0.00051208
0.000512094
0.000512108
0.000512123
0.000512138
0.000512152
0.000512168
0.000512183
0.000512199
0.000512214
0.000512231
0.000512247
0.000512264
0.000512281
0.000512298
0.000512316
0.000512334
0.000512353
0.000512372
0.000512391
0.000512411
0.000512431
0.000512452
0.000512474
0.000512496
0.000512518
0.000512541
0.000512565
0.000512589
0.000512614
0.000512639
0.000512665
0.000512691
0.000512718
0.000512746
0.000512774
0.000512802
0.000512832
0.000512861
0.000512892
0.000512923
0.000512954
0.000512987
0.00051302
0.000513054
0.000513088
0.000513123
0.000513159
0.000513196
0.000513233
0.000513271
0.000513309
0.000513348
0.000513388
0.000513428
0.000513469
0.00051351
0.000513552
0.000513595
0.000513638
0.000513683
0.000513728
0.000513773
0.00051382
0.000513868
0.000513917
0.000513967
0.000514018
0.000514071
0.000514125
0.00051418
0.000514236
0.000514294
0.000514353
0.000514414
0.000514475
0.000514538
0.000514602
0.000514667
0.000514733
0.000514801
0.00051487
0.00051494
0.000515011
0.000515083
0.000515157
0.000515232
0.000515308
0.000515386
0.000515466
0.000515548
0.000515631
0.000515716
0.000515804
0.000515893
0.000515985
0.000516079
0.000516175
0.000516274
0.000516375
0.000516479
0.000516585
0.000516694
0.000516806
0.000516921
0.000517038
0.000517159
0.000517284
0.000517411
0.000517543
0.000517679
0.000517818
0.000517963
0.000518111
0.000518265
0.000518424
0.000518589
0.000518758
0.000518934
0.000519115
0.000519302
0.000519495
0.000519693
0.000519897
0.000520106
0.000520321
0.000520541
0.000520765
0.000520994
0.000521226
0.000521463
0.000521702
0.000521945
0.000522191
0.000522439
0.000522689
0.000522942
0.000523198
0.000523456
0.000523716
0.000523979
0.000524246
0.000524515
0.000524789
0.000525066
0.000525348
0.000525635
0.000525926
0.000526223
0.000526525
0.000526833
0.000527147
0.000527467
0.000527794
0.000528127
0.000528468
0.000528816
0.000529149
0.000529679
0.000529574
0.000511406
0.000511418
0.000511432
0.000511447
0.000511463
0.000511481
0.0005115
0.000511521
0.000511544
0.000511569
0.000511596
0.000511626
0.000511658
0.000511692
0.000511729
0.000512447
0.000512468
0.00051249
0.000512512
0.000512534
0.000512558
0.000512582
0.000512607
0.000512633
0.00051266
0.000512688
0.000512716
0.000512746
0.000512776
0.000512807
0.000512839
0.000512872
0.000512906
0.000512941
0.000512977
0.000513013
0.000513051
0.000513089
0.000513128
0.000513168
0.000513209
0.000513251
0.000513293
0.000513336
0.00051338
0.000513425
0.000513471
0.000513517
0.000513564
0.000513612
0.00051366
0.00051371
0.00051376
0.00051381
0.000513862
0.000513915
0.000513968
0.000514023
0.000514078
0.000514135
0.000514193
0.000514252
0.000514313
0.000514375
0.000514437
0.000514502
0.000514567
0.000514633
0.000514701
0.00051477
0.00051484
0.000514911
0.000514983
0.000515057
0.000515132
0.000515208
0.000515286
0.000515365
0.000515446
0.000515528
0.000515613
0.000515699
0.000515788
0.000515879
0.000515971
0.000516067
0.000516164
0.000516264
0.000516366
0.000516471
0.000516577
0.000516687
0.000516798
0.000516912
0.000517028
0.000517146
0.000517267
0.000517391
0.000517517
0.000517646
0.000517779
0.000517914
0.000518053
0.000518195
0.000518342
0.000518492
0.000518647
0.000518805
0.000518969
0.000519137
0.000519309
0.000519487
0.000519669
0.000519856
0.000520048
0.000520245
0.000520447
0.000520654
0.000520866
0.000521084
0.000521308
0.000521537
0.000521773
0.000522015
0.000522264
0.000522519
0.000522782
0.000523052
0.00052333
0.000523616
0.00052391
0.000524212
0.000524522
0.00052484
0.000525165
0.000525498
0.000525838
0.000526185
0.000526539
0.000526898
0.000527264
0.000527635
0.000528011
0.000528393
0.00052878
0.000529173
0.000529573
0.000529979
0.000530393
0.000530814
0.000531245
0.000531685
0.000532135
0.000532596
0.000533069
0.000533554
0.000534051
0.000534562
0.000535086
0.000535624
0.000536177
0.000536744
0.000537326
0.000537922
0.000538533
0.000539159
0.000539799
0.000540455
0.000541126
0.000541812
0.000542514
0.000543231
0.000543965
0.000544716
0.000545484
0.00054627
0.000547074
0.000547898
0.00054874
0.000549603
0.000550486
0.000551391
0.000552317
0.000553266
0.000554237
0.000555232
0.000556251
0.000557294
0.000558364
0.000559459
0.000560584
0.000561737
0.000562922
0.000564139
0.000565392
0.000566683
0.000568012
0.000569386
0.000570803
0.000572276
0.000573796
0.000575385
0.000577035
0.000578744
0.000580593
0.00058236
0.000584596
0.000586226
0.000511527
0.000511554
0.000511585
0.000511618
0.000511656
0.000511697
0.000511742
0.000511792
0.000511846
0.000511905
0.000511968
0.000512036
0.000512108
0.000512185
0.000512267
0.000512356
0.000514323
0.000514384
0.000514448
0.000514513
0.000514581
0.000514651
0.000514723
0.000514798
0.000514875
0.000514955
0.000515038
0.000515124
0.000515213
0.000515304
0.000515399
0.000515496
0.000515597
0.0005157
0.000515806
0.000515915
0.000516026
0.000516141
0.000516257
0.000516376
0.000516496
0.000516619
0.000516743
0.00051687
0.000516998
0.000517127
0.000517258
0.000517391
0.000517526
0.000517663
0.000517802
0.000517944
0.000518088
0.000518235
0.000518385
0.000518538
0.000518694
0.000518853
0.000519016
0.000519182
0.000519353
0.000519526
0.000519704
0.000519886
0.000520072
0.000520262
0.000520456
0.000520655
0.000520859
0.000521068
0.000521283
0.000521503
0.000521729
0.000521962
0.000522201
0.000522447
0.0005227
0.000522961
0.000523229
0.000523505
0.000523789
0.000524081
0.000524381
0.000524689
0.000525006
0.00052533
0.000525663
0.000526005
0.000526355
0.000526715
0.000527084
0.000527462
0.00052785
0.000528249
0.000528659
0.00052908
0.000529512
0.000529956
0.000530411
0.000530878
0.000531357
0.000531846
0.000532347
0.000532858
0.000533378
0.000533908
0.000534447
0.000534994
0.000535551
0.000536115
0.00053669
0.000537274
0.000537869
0.000538476
0.000539096
0.00053973
0.00054038
0.000541047
0.000541732
0.000542437
0.000543163
0.000543912
0.000544684
0.00054548
0.000546301
0.000547148
0.00054802
0.000548919
0.000549844
0.000550795
0.000551772
0.000552775
0.000553804
0.000554859
0.000555939
0.000557045
0.000558178
0.000559338
0.000560525
0.00056174
0.000562985
0.00056426
0.000565568
0.000566908
0.000568282
0.000569693
0.000571141
0.000572628
0.000574155
0.000575724
0.000577336
0.000578995
0.000580701
0.000582457
0.000584265
0.000586128
0.00058805
0.000590034
0.000592085
0.000594209
0.000596411
0.000598698
0.00060108
0.000603565
0.000606163
0.000608887
0.000611746
0.000614756
0.000617928
0.000621278
0.000624818
0.000628564
0.000632528
0.000636725
0.000641165
0.000645862
0.000650824
0.00065606
0.000661574
0.000667373
0.000673455
0.00067982
0.000686464
0.000693378
0.000700555
0.000707979
0.000715642
0.000723515
0.000731576
0.000739705
0.000747923
0.000756173
0.000764511
0.000772856
0.00078129
0.00078971
0.000798218
0.000806709
0.000815268
0.000823842
0.000832416
0.000841107
0.000849636
0.000858484
0.000866892
0.000875877
0.000884283
0.000892548
0.000904385
0.000511849
0.000511919
0.000511996
0.00051208
0.000512172
0.000512272
0.00051238
0.000512498
0.000512627
0.000512768
0.000512922
0.00051309
0.000513272
0.000519171
0.000519336
0.000519506
0.000519681
0.000519862
0.000520048
0.00052024
0.00052044
0.000520646
0.000520859
0.00052108
0.000521309
0.000521546
0.000521792
0.000522046
0.000522309
0.000522581
0.000522862
0.000523151
0.000523449
0.000523756
0.000524072
0.000524397
0.000524731
0.000525073
0.000525424
0.000525785
0.000526154
0.000526533
0.000526921
0.000527318
0.000527725
0.000528141
0.000528566
0.000529001
0.000529445
0.0005299
0.000530364
0.000530839
0.000531324
0.00053182
0.000532328
0.000532848
0.00053338
0.000533925
0.000534484
0.000535057
0.000535644
0.000536247
0.000536865
0.0005375
0.000538151
0.000538818
0.000539501
0.000540199
0.000540914
0.000541643
0.000542387
0.000543145
0.000543918
0.000544705
0.000545508
0.000546326
0.000547161
0.000548014
0.000548886
0.000549779
0.000550694
0.000551633
0.000552598
0.00055359
0.000554612
0.000555665
0.000556751
0.000557871
0.000559025
0.000560216
0.000561442
0.000562706
0.000564006
0.000565343
0.000566716
0.000568127
0.000569575
0.00057106
0.000572584
0.000574148
0.000575753
0.000577401
0.000579094
0.000580836
0.000582631
0.00058448
0.000586387
0.000588356
0.00059039
0.000592493
0.000594667
0.000596916
0.000599244
0.000601651
0.000604142
0.000606718
0.000609384
0.00061214
0.000614991
0.000617943
0.000620999
0.000624166
0.000627452
0.000630866
0.000634417
0.000638118
0.00064198
0.000646018
0.000650245
0.000654675
0.000659322
0.0006642
0.000669321
0.000674695
0.000680333
0.00068624
0.000692422
0.000698879
0.000705611
0.000712615
0.000719882
0.000727405
0.000735171
0.000743161
0.000751285
0.000759497
0.000767793
0.000776171
0.00078463
0.000793169
0.000801789
0.000810492
0.000819284
0.000828166
0.000837146
0.000846224
0.000855407
0.000864689
0.000874073
0.000883547
0.000893105
0.000902728
0.000912398
0.000922086
0.000931768
0.000941404
0.000950961
0.000960399
0.000969677
0.000978758
0.000987602
0.000996179
0.00100445
0.0010124
0.00102001
0.00102726
0.00103414
0.00104067
0.00104682
0.00105265
0.00105812
0.0010633
0.00106818
0.0010728
0.00107719
0.00108138
0.00108551
0.00108956
0.00109362
0.00109758
0.00110161
0.00110552
0.00110956
0.00111343
0.00111749
0.00112132
0.00112538
0.00112917
0.00113315
0.00113695
0.00114073
0.00114461
0.001148
0.0011522
0.0011547
0.00116031
0.000512627
0.000512791
0.000512973
0.000513175
0.000513399
0.000513647
0.000513918
0.000514215
0.000514536
0.000514881
0.000515249
0.000515641
0.000516059
0.000530989
0.00053144
0.000531906
0.000532389
0.00053289
0.000533409
0.000533949
0.000534509
0.000535092
0.000535697
0.000536326
0.00053698
0.000537659
0.000538364
0.000539095
0.000539853
0.000540637
0.000541449
0.000542288
0.000543155
0.000544049
0.000544969
0.000545915
0.000546887
0.000547883
0.000548903
0.000549944
0.000551006
0.000552088
0.000553188
0.000554307
0.000555445
0.000556603
0.000557781
0.00055898
0.000560202
0.000561449
0.000562722
0.000564023
0.000565355
0.000566721
0.000568122
0.000569561
0.00057104
0.000572561
0.000574126
0.000575737
0.000577395
0.000579101
0.000580856
0.00058266
0.000584516
0.000586422
0.000588381
0.000590395
0.000592465
0.000594595
0.000596787
0.000599047
0.000601378
0.000603785
0.000606273
0.000608846
0.00061151
0.000614269
0.000617128
0.000620092
0.000623164
0.000626349
0.000629649
0.000633069
0.000636612
0.000640279
0.000644077
0.00064801
0.000652082
0.000656302
0.000660682
0.000665228
0.00066995
0.000674868
0.000679992
0.000685331
0.000690904
0.000696725
0.0007028
0.000709138
0.000715747
0.000722627
0.000729775
0.000737187
0.000744849
0.000752749
0.000760868
0.000769119
0.000777444
0.000785835
0.000794277
0.000802764
0.000811297
0.000819871
0.000828484
0.000837147
0.000845869
0.000854656
0.000863518
0.000872463
0.000881502
0.000890643
0.000899883
0.000909212
0.000918626
0.000928112
0.000937641
0.000947181
0.000956696
0.000966151
0.000975497
0.000984688
0.000993681
0.00100243
0.00101091
0.00101907
0.00102691
0.00103439
0.00104153
0.00104831
0.00105475
0.00106086
0.00106667
0.00107221
0.00107759
0.00108286
0.00108804
0.00109315
0.0010982
0.00110319
0.00110812
0.00111299
0.00111779
0.00112251
0.00112713
0.00113163
0.00113598
0.00114017
0.00114416
0.00114796
0.00115153
0.00115489
0.00115799
0.00116088
0.00116354
0.00116599
0.00116825
0.00117035
0.00117231
0.00117415
0.00117592
0.00117763
0.00117931
0.00118099
0.00118268
0.00118439
0.00118616
0.00118796
0.00118984
0.00119175
0.00119375
0.00119578
0.00119789
0.00120001
0.00120219
0.00120436
0.00120657
0.00120874
0.00121092
0.00121303
0.0012151
0.0012171
0.001219
0.00122086
0.00122254
0.00122422
0.00122563
0.00122715
0.00122825
0.00122962
0.00123043
0.00123166
0.0012322
0.00123332
0.00123365
0.00123469
0.000514121
0.000514487
0.000514891
0.000515335
0.000515817
0.00051634
0.000516907
0.000517524
0.000518195
0.00051893
0.000519735
0.000520615
0.000521571
0.000522603
0.000560668
0.000561844
0.000563053
0.000564296
0.000565577
0.000566899
0.000568265
0.000569677
0.00057114
0.000572656
0.000574229
0.00057586
0.000577555
0.000579316
0.000581145
0.000583047
0.000585024
0.000587078
0.00058921
0.000591421
0.000593713
0.000596089
0.000598548
0.000601091
0.000603715
0.000606422
0.000609213
0.000612091
0.000615057
0.000618113
0.000621261
0.000624502
0.000627839
0.000631274
0.000634812
0.000638455
0.000642209
0.000646078
0.000650067
0.00065418
0.000658424
0.000662803
0.000667324
0.000671991
0.000676811
0.000681791
0.000686938
0.000692259
0.000697764
0.000703467
0.000709373
0.000715493
0.000721844
0.000728433
0.000735263
0.000742341
0.000749675
0.000757259
0.000765086
0.000773144
0.000781398
0.000789761
0.000798204
0.000806718
0.000815291
0.000823908
0.000832562
0.000841245
0.000849948
0.000858675
0.000867424
0.000876203
0.000885024
0.000893884
0.000902791
0.000911764
0.000920789
0.000929845
0.000938948
0.000948083
0.000957183
0.000966231
0.000975227
0.000984093
0.000992761
0.00100123
0.00100946
0.00101739
0.001025
0.00103229
0.00103923
0.00104584
0.00105214
0.00105814
0.00106394
0.00106964
0.00107523
0.00108077
0.00108628
0.00109175
0.00109721
0.00110269
0.00110814
0.00111354
0.00111892
0.00112422
0.00112939
0.00113441
0.00113924
0.00114384
0.00114816
0.00115219
0.00115592
0.00115931
0.0011624
0.00116519
0.00116769
0.00116995
0.001172
0.00117388
0.00117563
0.0011773
0.00117893
0.00118054
0.00118217
0.00118383
0.00118554
0.00118732
0.00118915
0.00119105
0.001193
0.00119498
0.00119699
0.00119901
0.00120101
0.00120298
0.00120489
0.00120673
0.00120849
0.00121014
0.0012117
0.00121314
0.00121447
0.00121569
0.00121682
0.00121785
0.00121881
0.0012197
0.00122053
0.00122133
0.0012221
0.00122286
0.00122361
0.00122437
0.00122514
0.00122593
0.00122674
0.00122757
0.00122842
0.0012293
0.00123018
0.00123108
0.00123197
0.00123286
0.00123372
0.00123457
0.00123537
0.00123614
0.00123683
0.00123748
0.00123806
0.00123857
0.00123902
0.00123939
0.00123973
0.00123997
0.00124022
0.00124036
0.00124053
0.0012406
0.00124074
0.00124075
0.00124086
0.00124085
0.00124095
0.00124093
0.00124103
0.00124101
0.00124113
0.00124112
0.00124126
0.00124129
0.00124141
0.000517964
0.000518792
0.00051971
0.000520733
0.00052187
0.000523128
0.000524511
0.00052602
0.000527654
0.000529408
0.000531277
0.000533256
0.000535354
0.000537583
0.000628718
0.000631678
0.00063475
0.00063794
0.000641258
0.000644713
0.000648313
0.000652069
0.00065599
0.000660086
0.000664368
0.000668847
0.000673528
0.00067842
0.000683533
0.00068887
0.000694432
0.000700222
0.000706252
0.000712527
0.000719044
0.000725794
0.000732775
0.000739998
0.000747466
0.000755177
0.000763122
0.000771289
0.000779672
0.000788257
0.000797009
0.000805846
0.000814737
0.00082367
0.000832635
0.000841617
0.000850604
0.000859583
0.000868546
0.000877487
0.000886402
0.000895288
0.000904147
0.000912983
0.000921798
0.000930587
0.000939355
0.000948108
0.000956828
0.000965485
0.00097408
0.000982601
0.000990984
0.000999194
0.00100723
0.00101506
0.00102261
0.00102989
0.00103688
0.00104357
0.00104999
0.00105622
0.0010623
0.00106825
0.00107406
0.00107979
0.00108542
0.00109099
0.00109652
0.00110201
0.00110743
0.0011128
0.00111808
0.00112322
0.00112823
0.00113305
0.00113762
0.00114196
0.00114603
0.00114976
0.0011532
0.00115639
0.00115926
0.00116185
0.0011643
0.00116658
0.00116867
0.00117071
0.00117275
0.00117474
0.00117677
0.00117888
0.00118102
0.00118323
0.00118554
0.00118786
0.00119023
0.00119263
0.00119497
0.00119726
0.00119951
0.0012016
0.00120354
0.00120538
0.00120702
0.00120846
0.00120976
0.00121091
0.00121189
0.00121275
0.00121354
0.00121426
0.00121493
0.00121558
0.00121623
0.00121691
0.00121762
0.00121837
0.00121918
0.00122004
0.00122096
0.00122194
0.00122296
0.00122403
0.00122513
0.00122624
0.00122734
0.00122843
0.00122948
0.00123049
0.00123142
0.00123228
0.00123306
0.00123375
0.00123436
0.00123488
0.00123532
0.0012357
0.00123601
0.00123626
0.00123647
0.00123665
0.00123679
0.00123691
0.00123702
0.00123712
0.00123722
0.00123732
0.00123743
0.00123754
0.00123766
0.0012378
0.00123794
0.0012381
0.00123826
0.00123844
0.00123862
0.0012388
0.00123899
0.00123918
0.00123937
0.00123957
0.00123976
0.00123994
0.00124013
0.00124031
0.00124049
0.00124066
0.00124084
0.001241
0.00124116
0.00124129
0.00124144
0.00124155
0.00124168
0.00124176
0.00124186
0.00124191
0.00124198
0.001242
0.00124205
0.00124205
0.00124208
0.00124207
0.0012421
0.00124209
0.00124211
0.00124212
0.00124215
0.00124218
0.00124223
0.00124229
0.00124231
0.000526871
0.000528866
0.000531048
0.000533411
0.000535959
0.000538709
0.000541687
0.000544924
0.000548456
0.00055233
0.000556586
0.000561238
0.00056627
0.000571651
0.000791951
0.000799349
0.00080686
0.000814469
0.000822182
0.000829999
0.00083792
0.000845941
0.000854061
0.000862277
0.000870576
0.00087895
0.0008874
0.000895919
0.000904489
0.000913106
0.000921786
0.000930532
0.000939305
0.000948062
0.000956812
0.000965583
0.000974359
0.00098308
0.000991689
0.00100016
0.00100848
0.00101661
0.00102454
0.00103223
0.00103967
0.00104693
0.001054
0.00106087
0.00106754
0.00107401
0.00108029
0.00108638
0.0010923
0.00109805
0.00110364
0.00110908
0.00111435
0.00111947
0.0011244
0.00112914
0.00113368
0.00113798
0.00114202
0.00114583
0.0011494
0.00115268
0.00115572
0.00115859
0.00116126
0.00116374
0.00116613
0.00116846
0.00117072
0.00117296
0.00117521
0.00117749
0.00117979
0.00118209
0.00118442
0.00118675
0.00118903
0.00119129
0.00119347
0.00119551
0.00119745
0.00119924
0.00120084
0.00120231
0.00120364
0.00120479
0.00120585
0.00120683
0.00120772
0.00120858
0.00120945
0.00121031
0.00121119
0.00121215
0.00121315
0.00121418
0.00121533
0.00121655
0.00121775
0.00121901
0.00122035
0.00122162
0.00122284
0.00122409
0.0012252
0.0012262
0.00122716
0.00122795
0.0012286
0.00122923
0.00122968
0.00123
0.00123034
0.00123059
0.00123073
0.0012309
0.00123106
0.00123118
0.00123132
0.00123148
0.00123167
0.00123188
0.00123213
0.00123241
0.00123272
0.00123307
0.00123344
0.00123383
0.00123424
0.00123465
0.00123506
0.00123546
0.00123584
0.0012362
0.00123654
0.00123684
0.00123712
0.00123737
0.00123759
0.00123778
0.00123796
0.00123811
0.00123824
0.00123836
0.00123846
0.00123854
0.00123861
0.00123866
0.0012387
0.00123873
0.00123874
0.00123876
0.00123877
0.00123878
0.00123879
0.00123881
0.00123883
0.00123887
0.00123891
0.00123896
0.00123903
0.00123911
0.00123919
0.00123929
0.0012394
0.00123951
0.00123963
0.00123976
0.00123989
0.00124002
0.00124016
0.0012403
0.00124044
0.00124056
0.0012407
0.00124082
0.00124095
0.00124105
0.00124117
0.00124126
0.00124137
0.00124144
0.00124154
0.00124159
0.00124166
0.00124169
0.00124173
0.00124173
0.00124175
0.00124174
0.00124173
0.00124171
0.0012417
0.00124168
0.00124166
0.00124165
0.00124165
0.00124165
0.00124166
0.00124168
0.00124171
0.00124176
0.0012417
0.000546644
0.000550921
0.0005557
0.000561043
0.000566978
0.000573499
0.000580586
0.000588232
0.00059643
0.000605124
0.000614243
0.000623784
0.000633823
0.00101868
0.00102496
0.00103119
0.00103737
0.0010435
0.00104958
0.0010556
0.00106157
0.00106748
0.00107334
0.00107914
0.00108488
0.00109056
0.00109616
0.00110169
0.00110714
0.00111245
0.00111755
0.00112246
0.00112725
0.0011319
0.00113629
0.00114034
0.00114413
0.00114774
0.00115119
0.00115445
0.00115751
0.0011604
0.00116314
0.00116577
0.00116831
0.00117078
0.0011732
0.00117557
0.00117792
0.00118024
0.00118251
0.00118474
0.00118692
0.00118901
0.00119099
0.00119288
0.00119465
0.00119627
0.00119777
0.00119917
0.00120046
0.00120166
0.00120283
0.00120394
0.00120503
0.00120614
0.00120724
0.00120835
0.00120954
0.00121076
0.00121198
0.00121324
0.00121452
0.00121578
0.00121703
0.00121819
0.00121932
0.00122038
0.00122129
0.00122212
0.00122287
0.00122343
0.00122395
0.00122441
0.00122474
0.00122506
0.00122538
0.00122563
0.00122591
0.00122622
0.00122652
0.00122685
0.00122725
0.00122766
0.00122808
0.00122857
0.00122909
0.00122955
0.00123006
0.00123061
0.00123105
0.00123146
0.00123195
0.00123228
0.00123254
0.00123292
0.00123316
0.00123329
0.00123356
0.00123374
0.00123381
0.00123399
0.00123414
0.00123417
0.00123428
0.00123441
0.00123446
0.00123453
0.00123465
0.00123475
0.00123485
0.00123498
0.00123514
0.00123529
0.00123545
0.00123564
0.00123584
0.00123604
0.00123626
0.00123648
0.0012367
0.00123692
0.00123714
0.00123735
0.00123756
0.00123775
0.00123793
0.0012381
0.00123825
0.00123839
0.00123851
0.00123861
0.00123869
0.00123876
0.00123882
0.00123886
0.00123888
0.0012389
0.0012389
0.0012389
0.00123889
0.00123887
0.00123885
0.00123884
0.00123882
0.0012388
0.00123879
0.00123879
0.0012388
0.00123882
0.00123885
0.00123888
0.00123893
0.001239
0.00123907
0.00123915
0.00123924
0.00123934
0.00123944
0.00123955
0.00123966
0.00123977
0.00123988
0.00124
0.0012401
0.00124021
0.0012403
0.0012404
0.00124047
0.00124055
0.00124059
0.00124065
0.00124067
0.00124069
0.00124068
0.00124066
0.00124063
0.00124058
0.00124052
0.00124046
0.00124039
0.00124031
0.00124023
0.00124015
0.00124007
0.00123999
0.00123992
0.00123984
0.00123978
0.00123972
0.00123967
0.00123962
0.00123958
0.00123955
0.00123952
0.00123925
0.000591183
0.00060105
0.000611642
0.000622914
0.000634923
0.000647811
0.000661733
0.000676814
0.000693174
0.000711205
0.000731523
0.000754
0.000778139
0.00116319
0.00116569