/*--------------------------------*- C++ -*----------------------------------*\
| =========                 |                                                 |
| \\      /  F ield         | OpenFOAM: The Open Source CFD Toolbox           |
|  \\    /   O peration     | Version:  v1706                                 |
|   \\  /    A nd           | Web:      www.OpenFOAM.com                      |
|    \\/     M anipulation  |                                                 |
\*---------------------------------------------------------------------------*/
FoamFile
{
    version     2.0;
    format      ascii;
    class       volScalarField;
    location    "1.8e-05";
    object      Tt;
}
// * * * * * * * * * * * * * * * * * * * * * * * * * * * * * * * * * * * * * //

dimensions      [0 0 0 1 0 0 0];


internalField   nonuniform List<scalar> 
30104
(
144.4
144.4
144.4
144.401
144.401
144.401
144.401
144.401
144.401
144.401
144.401
144.401
144.401
144.401
144.402
144.402
144.402
144.402
144.402
144.402
144.402
144.402
144.403
144.403
144.403
144.403
144.403
144.403
144.403
144.403
144.403
144.403
144.403
144.403
144.403
144.403
144.403
144.403
144.403
144.403
144.403
144.403
144.403
144.403
144.403
144.404
144.404
144.404
144.404
144.404
144.404
144.404
144.404
144.404
144.404
144.404
144.404
144.404
144.404
144.404
144.404
144.404
144.404
144.405
144.405
144.405
144.405
144.405
144.405
144.405
144.405
144.405
144.405
144.405
144.405
144.405
144.405
144.405
144.405
144.406
144.406
144.406
144.406
144.406
144.406
144.406
144.406
144.406
144.406
144.406
144.406
144.406
144.407
144.407
144.407
144.407
144.407
144.407
144.407
144.407
144.407
144.407
144.407
144.408
144.408
144.408
144.408
144.408
144.408
144.408
144.408
144.408
144.409
144.409
144.409
144.409
144.409
144.409
144.409
144.409
144.41
144.41
144.41
144.41
144.41
144.41
144.41
144.411
144.411
144.411
144.411
144.411
144.411
144.412
144.412
144.412
144.412
144.412
144.412
144.413
144.413
144.413
144.413
144.413
144.413
144.414
144.414
144.414
144.414
144.414
144.415
144.415
144.415
144.415
144.415
144.416
144.416
144.416
144.416
144.417
144.417
144.417
144.417
144.417
144.418
144.418
144.418
144.419
144.419
144.419
144.419
144.42
144.42
144.42
144.42
144.421
144.421
144.421
144.422
144.422
144.422
144.423
144.423
144.423
144.424
144.424
144.424
144.425
144.425
144.425
144.426
144.426
144.426
144.427
144.427
144.428
144.428
144.428
144.429
144.429
144.43
144.43
144.431
144.431
144.432
144.432
144.433
144.433
144.433
144.429
144.402
144.402
144.403
144.403
144.403
144.404
144.404
144.405
144.405
144.406
144.406
144.407
144.407
144.408
144.409
144.41
144.41
144.415
144.416
144.416
144.416
144.416
144.416
144.417
144.417
144.417
144.418
144.418
144.418
144.418
144.419
144.419
144.419
144.42
144.42
144.42
144.421
144.421
144.421
144.422
144.422
144.422
144.423
144.423
144.424
144.424
144.424
144.425
144.425
144.425
144.426
144.426
144.427
144.427
144.427
144.428
144.428
144.429
144.429
144.429
144.43
144.43
144.431
144.431
144.432
144.432
144.432
144.433
144.433
144.434
144.434
144.435
144.435
144.436
144.436
144.437
144.438
144.438
144.439
144.439
144.44
144.44
144.441
144.442
144.442
144.443
144.444
144.444
144.445
144.446
144.446
144.447
144.448
144.448
144.449
144.45
144.451
144.451
144.452
144.453
144.454
144.455
144.455
144.456
144.457
144.458
144.459
144.46
144.461
144.461
144.462
144.463
144.464
144.465
144.466
144.467
144.468
144.47
144.471
144.472
144.473
144.474
144.475
144.476
144.478
144.479
144.48
144.481
144.483
144.484
144.485
144.487
144.488
144.489
144.491
144.492
144.494
144.495
144.496
144.498
144.499
144.501
144.503
144.504
144.506
144.507
144.509
144.511
144.513
144.514
144.516
144.518
144.52
144.522
144.524
144.526
144.528
144.53
144.532
144.534
144.537
144.539
144.541
144.544
144.546
144.549
144.551
144.554
144.556
144.559
144.562
144.565
144.568
144.57
144.573
144.576
144.579
144.582
144.586
144.589
144.592
144.595
144.598
144.601
144.605
144.608
144.611
144.615
144.618
144.622
144.625
144.629
144.633
144.636
144.64
144.644
144.648
144.652
144.656
144.66
144.665
144.669
144.674
144.678
144.683
144.688
144.693
144.698
144.699
144.675
144.407
144.408
144.408
144.409
144.41
144.412
144.413
144.414
144.416
144.417
144.419
144.421
144.423
144.425
144.427
144.43
144.452
144.453
144.454
144.455
144.455
144.456
144.457
144.458
144.459
144.46
144.461
144.462
144.463
144.465
144.466
144.467
144.468
144.469
144.471
144.472
144.473
144.475
144.476
144.477
144.479
144.48
144.482
144.483
144.485
144.486
144.487
144.489
144.491
144.492
144.494
144.495
144.497
144.498
144.5
144.501
144.503
144.505
144.506
144.508
144.51
144.512
144.514
144.515
144.517
144.519
144.521
144.523
144.525
144.527
144.529
144.531
144.533
144.535
144.538
144.54
144.542
144.544
144.547
144.549
144.552
144.554
144.557
144.559
144.562
144.565
144.567
144.57
144.573
144.576
144.579
144.582
144.585
144.588
144.591
144.594
144.598
144.601
144.604
144.608
144.611
144.615
144.618
144.622
144.626
144.629
144.633
144.637
144.641
144.645
144.65
144.654
144.658
144.663
144.667
144.672
144.677
144.682
144.686
144.692
144.697
144.702
144.707
144.713
144.718
144.724
144.73
144.736
144.742
144.748
144.754
144.761
144.767
144.774
144.781
144.787
144.794
144.801
144.808
144.816
144.823
144.83
144.838
144.845
144.853
144.861
144.869
144.877
144.885
144.894
144.903
144.911
144.92
144.93
144.939
144.949
144.959
144.969
144.979
144.99
145.001
145.012
145.023
145.035
145.047
145.059
145.072
145.084
145.097
145.111
145.124
145.138
145.152
145.167
145.181
145.196
145.212
145.227
145.243
145.258
145.274
145.291
145.307
145.324
145.341
145.358
145.375
145.392
145.41
145.428
145.446
145.465
145.484
145.503
145.522
145.542
145.563
145.584
145.605
145.627
145.649
145.673
145.696
145.721
145.746
145.772
145.8
145.813
145.726
144.418
144.421
144.423
144.426
144.429
144.432
144.435
144.439
144.443
144.448
144.452
144.457
144.463
144.468
144.475
144.481
144.552
144.555
144.558
144.56
144.563
144.566
144.569
144.572
144.575
144.578
144.582
144.585
144.589
144.592
144.596
144.6
144.604
144.608
144.612
144.617
144.621
144.625
144.63
144.634
144.639
144.644
144.648
144.653
144.658
144.663
144.668
144.673
144.678
144.683
144.688
144.694
144.699
144.704
144.71
144.715
144.721
144.727
144.733
144.739
144.745
144.751
144.757
144.763
144.77
144.776
144.783
144.79
144.797
144.804
144.811
144.819
144.826
144.834
144.842
144.85
144.858
144.866
144.875
144.883
144.892
144.901
144.91
144.92
144.93
144.939
144.949
144.96
144.97
144.981
144.992
145.003
145.014
145.026
145.038
145.05
145.062
145.075
145.087
145.1
145.113
145.127
145.14
145.154
145.168
145.183
145.197
145.212
145.227
145.243
145.258
145.274
145.291
145.307
145.325
145.342
145.36
145.378
145.397
145.416
145.436
145.456
145.477
145.498
145.52
145.542
145.564
145.588
145.611
145.636
145.66
145.686
145.712
145.738
145.765
145.792
145.82
145.848
145.877
145.906
145.935
145.966
145.996
146.027
146.059
146.091
146.123
146.156
146.19
146.224
146.259
146.295
146.331
146.369
146.407
146.446
146.486
146.527
146.569
146.612
146.657
146.702
146.749
146.798
146.848
146.899
146.952
147.007
147.063
147.121
147.18
147.242
147.304
147.369
147.435
147.503
147.572
147.643
147.715
147.788
147.863
147.939
148.016
148.094
148.172
148.252
148.332
148.412
148.494
148.576
148.659
148.742
148.827
148.912
148.999
149.087
149.176
149.266
149.358
149.452
149.547
149.645
149.744
149.846
149.951
150.058
150.168
150.253
149.961
144.448
144.454
144.46
144.467
144.474
144.483
144.491
144.501
144.512
144.523
144.535
144.548
144.562
144.577
144.592
144.818
144.826
144.833
144.841
144.849
144.858
144.866
144.875
144.885
144.894
144.904
144.915
144.925
144.936
144.947
144.959
144.971
144.983
144.996
145.008
145.022
145.035
145.049
145.063
145.077
145.092
145.106
145.121
145.137
145.152
145.168
145.184
145.2
145.216
145.233
145.249
145.266
145.284
145.301
145.319
145.338
145.356
145.375
145.394
145.414
145.434
145.454
145.475
145.496
145.518
145.54
145.563
145.586
145.609
145.633
145.657
145.682
145.707
145.733
145.759
145.786
145.813
145.841
145.869
145.899
145.928
145.959
145.99
146.022
146.055
146.088
146.122
146.158
146.193
146.23
146.268
146.306
146.346
146.386
146.427
146.469
146.512
146.556
146.601
146.646
146.693
146.74
146.788
146.838
146.888
146.939
146.991
147.044
147.098
147.153
147.21
147.267
147.326
147.386
147.447
147.51
147.575
147.641
147.708
147.778
147.849
147.922
147.997
148.074
148.153
148.235
148.319
148.404
148.493
148.583
148.677
148.772
148.87
148.97
149.073
149.178
149.285
149.394
149.506
149.619
149.734
149.851
149.97
150.09
150.211
150.334
150.459
150.585
150.713
150.843
150.975
151.109
151.246
151.385
151.527
151.671
151.819
151.971
152.126
152.284
152.447
152.614
152.786
152.963
153.145
153.332
153.525
153.723
153.928
154.14
154.357
154.582
154.814
155.052
155.298
155.551
155.812
156.079
156.354
156.635
156.923
157.217
157.518
157.823
158.134
158.449
158.767
159.088
159.41
159.734
160.061
160.389
160.719
161.051
161.386
161.723
162.063
162.406
162.751
163.102
163.455
163.814
164.178
164.546
164.928
165.3
165.695
165.008
144.508
144.521
144.535
144.551
144.568
144.587
144.608
144.63
144.655
144.681
144.709
144.739
144.771
144.806
144.842
144.881
145.499
145.52
145.542
145.564
145.587
145.611
145.635
145.661
145.687
145.714
145.743
145.772
145.802
145.833
145.865
145.899
145.933
145.968
146.005
146.042
146.08
146.119
146.159
146.2
146.242
146.285
146.328
146.372
146.417
146.463
146.509
146.556
146.603
146.652
146.701
146.751
146.801
146.853
146.906
146.959
147.014
147.07
147.127
147.185
147.244
147.305
147.367
147.43
147.495
147.561
147.629
147.698
147.768
147.84
147.914
147.988
148.065
148.143
148.223
148.304
148.387
148.472
148.559
148.648
148.738
148.831
148.926
149.024
149.123
149.226
149.33
149.438
149.548
149.661
149.776
149.895
150.017
150.142
150.27
150.402
150.536
150.674
150.816
150.961
151.109
151.26
151.415
151.573
151.733
151.897
152.063
152.232
152.404
152.578
152.755
152.935
153.117
153.303
153.492
153.685
153.882
154.082
154.287
154.497
154.712
154.932
155.157
155.389
155.626
155.87
156.121
156.379
156.644
156.916
157.196
157.484
157.78
158.085
158.397
158.718
159.047
159.385
159.73
160.084
160.445
160.814
161.191
161.574
161.963
162.358
162.757
163.159
163.565
163.975
164.388
164.805
165.226
165.651
166.08
166.514
166.953
167.398
167.848
168.304
168.768
169.239
169.719
170.208
170.708
171.219
171.743
172.28
172.832
173.4
173.986
174.591
175.216
175.862
176.53
177.223
177.939
178.681
179.448
180.241
181.06
181.904
182.773
183.666
184.581
185.519
186.477
187.454
188.445
189.434
190.419
191.396
192.368
193.329
194.286
195.228
196.164
197.085
197.998
198.896
199.779
200.656
201.504
202.361
203.164
204.004
204.757
205.695
205.215
144.667
144.699
144.735
144.774
144.817
144.863
144.913
144.968
145.027
145.09
145.158
145.231
145.309
147.195
147.251
147.309
147.369
147.43
147.493
147.559
147.627
147.697
147.77
147.845
147.923
148.003
148.087
148.173
148.263
148.355
148.45
148.549
148.65
148.754
148.861
148.97
149.082
149.197
149.315
149.434
149.556
149.681
149.807
149.936
150.067
150.2
150.335
150.473
150.613
150.755
150.901
151.048
151.199
151.353
151.51
151.67
151.834
152.002
152.173
152.348
152.528
152.711
152.899
153.091
153.287
153.488
153.694
153.903
154.117
154.335
154.557
154.782
155.012
155.246
155.484
155.726
155.972
156.223
156.479
156.74
157.006
157.278
157.556
157.84
158.131
158.429
158.734
159.046
159.367
159.695
160.032
160.378
160.732
161.095
161.468
161.849
162.24
162.64
163.05
163.468
163.896
164.332
164.778
165.231
165.692
166.161
166.636
167.117
167.603
168.095
168.592
169.096
169.606
170.122
170.646
171.176
171.714
172.26
172.814
173.376
173.948
174.529
175.121
175.724
176.339
176.966
177.608
178.264
178.935
179.624
180.33
181.054
181.798
182.561
183.345
184.149
184.974
185.819
186.683
187.567
188.469
189.387
190.322
191.272
192.224
193.169
194.108
195.039
195.962
196.875
197.78
198.674
199.558
200.432
201.296
202.149
202.991
203.823
204.644
205.454
206.252
207.038
207.81
208.569
209.312
210.039
210.748
211.437
212.106
212.753
213.377
213.978
214.554
215.105
215.631
216.133
216.609
217.062
217.49
217.897
218.281
218.644
218.987
219.31
219.615
219.902
220.177
220.44
220.695
220.936
221.174
221.397
221.621
221.826
222.038
222.227
222.426
222.6
222.784
222.948
223.111
223.273
223.405
223.564
223.708
223.386
145.051
145.129
145.214
145.308
145.41
145.521
145.642
145.772
145.912
146.062
146.224
146.395
146.578
151.208
151.349
151.494
151.644
151.798
151.956
152.121
152.29
152.466
152.648
152.836
153.031
153.233
153.441
153.658
153.881
154.112
154.351
154.597
154.85
155.111
155.379
155.654
155.936
156.225
156.519
156.82
157.126
157.437
157.753
158.074
158.399
158.728
159.061
159.399
159.742
160.09
160.443
160.801
161.165
161.536
161.913
162.297
162.689
163.089
163.497
163.914
164.34
164.776
165.22
165.675
166.139
166.612
167.096
167.588
168.091
168.602
169.123
169.652
170.19
170.735
171.286
171.844
172.409
172.982
173.562
174.149
174.745
175.349
175.961
176.583
177.213
177.853
178.502
179.162
179.831
180.512
181.204
181.908
182.624
183.354
184.097
184.856
185.629
186.417
187.222
188.042
188.878
189.73
190.596
191.475
192.367
193.271
194.186
195.101
196.009
196.907
197.795
198.671
199.535
200.387
201.224
202.049
202.86
203.658
204.442
205.214
205.974
206.721
207.457
208.182
208.894
209.595
210.284
210.959
211.62
212.265
212.894
213.505
214.096
214.666
215.215
215.741
216.243
216.723
217.178
217.611
218.021
218.41
218.777
219.124
219.455
219.773
220.079
220.375
220.661
220.938
221.207
221.467
221.719
221.963
222.199
222.425
222.641
222.846
223.039
223.221
223.39
223.546
223.688
223.818
223.936
224.042
224.138
224.225
224.304
224.376
224.444
224.509
224.571
224.633
224.695
224.757
224.821
224.886
224.954
225.023
225.095
225.167
225.242
225.316
225.393
225.468
225.544
225.618
225.693
225.764
225.834
225.901
225.964
226.026
226.08
226.136
226.18
226.23
226.261
226.307
226.327
226.37
226.379
226.412
226.429
226.361
145.788
145.956
146.141
146.342
146.561
146.799
147.057
147.335
147.634
147.956
148.3
148.668
149.058
149.471
159.997
160.313
160.637
160.968
161.308
161.658
162.016
162.386
162.766
163.158
163.561
163.978
164.407
164.85
165.307
165.778
166.263
166.762
167.276
167.805
168.347
168.903
169.473
170.055
170.65
171.257
171.874
172.502
173.139
173.784
174.436
175.093
175.755
176.422
177.094
177.77
178.451
179.137
179.828
180.524
181.225
181.933
182.648
183.369
184.098
184.835
185.581
186.335
187.098
187.871
188.654
189.446
190.25
191.063
191.887
192.72
193.564
194.416
195.276
196.144
197.017
197.885
198.744
199.593
200.432
201.258
202.072
202.872
203.657
204.427
205.182
205.922
206.648
207.359
208.055
208.739
209.409
210.065
210.708
211.34
211.955
212.556
213.143
213.713
214.263
214.795
215.307
215.796
216.262
216.705
217.125
217.521
217.895
218.247
218.58
218.899
219.205
219.501
219.787
220.065
220.337
220.605
220.867
221.124
221.378
221.627
221.87
222.105
222.332
222.549
222.755
222.949
223.129
223.296
223.449
223.588
223.715
223.829
223.933
224.029
224.117
224.2
224.28
224.357
224.433
224.508
224.585
224.663
224.742
224.822
224.903
224.986
225.069
225.152
225.234
225.315
225.393
225.469
225.54
225.607
225.669
225.726
225.776
225.821
225.861
225.895
225.925
225.95
225.972
225.991
226.008
226.024
226.038
226.054
226.069
226.087
226.105
226.125
226.147
226.172
226.199
226.227
226.257
226.289
226.322
226.355
226.388
226.422
226.454
226.486
226.516
226.544
226.571
226.595
226.619
226.639
226.66
226.676
226.694
226.708
226.723
226.734
226.748
226.757
226.771
226.778
226.792
226.798
226.812
226.819
226.833
226.848
226.835
147.651
148.035
148.455
148.911
149.407
149.942
150.518
151.136
151.796
152.5
153.246
154.033
154.86
155.726
176.254
176.828
177.412
178.006
178.61
179.226
179.854
180.495
181.149
181.817
182.501
183.199
183.912
184.641
185.386
186.146
186.921
187.711
188.515
189.333
190.163
191.005
191.857
192.719
193.589
194.466
195.348
196.234
197.123
198.013
198.902
199.782
200.648
201.499
202.334
203.152
203.952
204.734
205.496
206.239
206.962
207.665
208.349
209.015
209.663
210.292
210.905
211.503
212.084
212.649
213.198
213.733
214.25
214.749
215.232
215.697
216.141
216.565
216.969
217.352
217.713
218.058
218.387
218.702
219.003
219.293
219.571
219.841
220.103
220.358
220.606
220.85
221.088
221.319
221.545
221.762
221.97
222.169
222.357
222.532
222.695
222.847
222.985
223.111
223.229
223.337
223.436
223.531
223.622
223.71
223.797
223.884
223.972
224.062
224.155
224.25
224.347
224.448
224.548
224.648
224.749
224.846
224.939
225.029
225.112
225.188
225.258
225.32
225.375
225.422
225.464
225.501
225.534
225.563
225.59
225.616
225.642
225.667
225.695
225.723
225.754
225.788
225.824
225.862
225.903
225.946
225.99
226.035
226.08
226.125
226.168
226.209
226.249
226.285
226.318
226.347
226.373
226.396
226.415
226.432
226.445
226.456
226.464
226.471
226.476
226.481
226.485
226.488
226.492
226.497
226.502
226.508
226.516
226.526
226.537
226.55
226.564
226.58
226.598
226.617
226.637
226.659
226.681
226.704
226.728
226.751
226.775
226.799
226.823
226.846
226.869
226.891
226.913
226.933
226.954
226.972
226.991
227.006
227.023
227.037
227.052
227.064
227.078
227.089
227.103
227.115
227.129
227.142
227.157
227.172
227.189
227.214
227.212
151.787
152.627
153.535
154.513
155.56
156.677
157.863
159.118
160.443
161.838
163.302
164.83
166.414
168.046
199.019
199.73
200.439
201.143
201.842
202.536
203.225
203.908
204.585
205.255
205.918
206.573
207.219
207.857
208.484
209.101
209.709
210.306
210.892
211.465
212.026
212.575
213.114
213.639
214.149
214.644
215.124
215.587
216.034
216.463
216.874
217.269
217.648
218.011
218.359
218.691
219.007
219.309
219.598
219.873
220.137
220.39
220.633
220.866
221.09
221.304
221.509
221.704
221.889
222.063
222.228
222.38
222.523
222.657
222.781
222.896
223.004
223.107
223.205
223.299
223.391
223.482
223.573
223.664
223.757
223.85
223.943
224.037
224.131
224.221
224.31
224.395
224.474
224.549
224.618
224.679
224.735
224.787
224.833
224.876
224.916
224.954
224.991
225.03
225.068
225.107
225.151
225.197
225.244
225.296
225.352
225.408
225.466
225.528
225.587
225.645
225.703
225.757
225.806
225.855
225.896
225.932
225.966
225.995
226.017
226.039
226.057
226.071
226.083
226.095
226.106
226.116
226.127
226.139
226.152
226.167
226.184
226.203
226.223
226.246
226.27
226.296
226.323
226.351
226.379
226.407
226.435
226.462
226.489
226.514
226.538
226.56
226.581
226.601
226.618
226.634
226.648
226.661
226.671
226.681
226.689
226.697
226.704
226.711
226.717
226.724
226.732
226.741
226.751
226.762
226.774
226.789
226.804
226.821
226.84
226.86
226.882
226.904
226.928
226.953
226.978
227.004
227.03
227.056
227.083
227.109
227.136
227.162
227.188
227.213
227.239
227.263
227.288
227.31
227.333
227.354
227.375
227.396
227.416
227.436
227.457
227.477
227.498
227.519
227.541
227.564
227.588
227.613
227.639
227.667
227.696
227.739
227.737
160.37
162.036
163.814
165.703
167.694
169.78
171.95
174.193
176.5
178.863
181.27
183.704
186.149
216.217
216.536
216.845
217.144
217.434
217.715
217.987
218.251
218.507
218.755
218.996
219.23
219.457
219.678
219.893
220.104
220.308
220.504
220.694
220.88
221.062
221.236
221.401
221.559
221.711
221.86
222.003
222.14
222.272
222.399
222.52
222.638
222.753
222.865
222.974
223.083
223.19
223.295
223.399
223.502
223.602
223.698
223.791
223.879
223.961
224.038
224.11
224.176
224.237
224.294
224.347
224.398
224.446
224.492
224.539
224.586
224.633
224.682
224.733
224.786
224.84
224.896
224.952
225.009
225.067
225.12
225.173
225.224
225.268
225.31
225.35
225.382
225.413
225.442
225.465
225.488
225.51
225.53
225.55
225.572
225.593
225.616
225.643
225.671
225.7
225.732
225.768
225.803
225.84
225.88
225.917
225.953
225.994
226.029
226.061
226.097
226.128
226.153
226.182
226.207
226.224
226.243
226.262
226.274
226.287
226.3
226.311
226.321
226.333
226.346
226.358
226.372
226.388
226.405
226.424
226.445
226.467
226.491
226.516
226.542
226.569
226.596
226.624
226.651
226.678
226.704
226.73
226.754
226.778
226.8
226.821
226.84
226.858
226.875
226.891
226.905
226.919
226.931
226.943
226.955
226.967
226.979
226.991
227.004
227.018
227.033
227.05
227.067
227.087
227.107
227.13
227.154
227.179
227.206
227.234
227.263
227.293
227.324
227.356
227.388
227.421
227.453
227.487
227.52
227.554
227.587
227.62
227.653
227.686
227.719
227.751
227.783
227.815
227.847
227.879
227.912
227.944
227.978
228.012
228.047
228.082
228.119
228.158
228.198
228.239
228.282
228.327
228.375
228.424
228.475
228.527
228.602
228.599
176.314
179.176
182.136
185.172
188.256
191.363
194.471
197.559
200.611
203.625
206.612
209.532
212.336
222.677
222.751
222.819
222.883
222.942
222.998
223.049
223.097
223.143
223.186
223.226
223.265
223.302
223.337
223.371
223.406
223.444
223.482
223.518
223.557
223.601
223.648
223.695
223.742
223.789
223.84
223.893
223.949
224.007
224.068
224.131
224.197
224.264
224.333
224.403
224.471
224.539
224.604
224.665
224.723
224.778
224.826
224.871
224.913
224.951
224.985
225.018
225.049
225.078
225.108
225.138
225.167
225.199
225.233
225.266
225.302
225.339
225.375
225.412
225.449
225.485
225.522
225.553
225.584
225.616
225.642
225.665
225.691
225.711
225.729
225.75
225.767
225.784
225.803
225.822
225.841
225.863
225.887
225.911
225.938
225.968
225.997
226.029
226.064
226.098
226.13
226.166
226.203
226.233
226.264
226.299
226.324
226.349
226.378
226.398
226.416
226.439
226.455
226.468
226.486
226.5
226.511
226.526
226.542
226.555
226.571
226.59
226.608
226.627
226.649
226.673
226.697
226.723
226.751
226.78
226.809
226.839
226.869
226.899
226.929
226.958
226.987
227.015
227.041
227.067
227.091
227.114
227.136
227.158
227.178
227.198
227.218
227.237
227.256
227.275
227.294
227.314
227.334
227.356
227.378
227.401
227.426
227.453
227.48
227.511
227.542
227.575
227.609
227.646
227.683
227.722
227.762
227.804
227.846
227.89
227.934
227.979
228.024
228.07
228.117
228.164
228.211
228.259
228.308
228.356
228.406
228.455
228.505
228.556
228.607
228.66
228.714
228.769
228.825
228.883
228.943
229.004
229.068
229.134
229.203
229.274
229.348
229.424
229.504
229.586
229.671
229.76
229.852
229.944
230.074
230.067
204.351
208.089
211.782
215.363
218.769
221.951
224.868
227.492
229.801
231.777
233.442
234.824
224.322
224.331
224.339
224.345
224.351
224.355
224.358
224.362
224.365
224.368
224.373
224.378
224.384
224.391
224.4
224.411
224.422
224.434
224.445
224.46
224.477
224.489
224.503
224.521
224.542
224.567
224.594
224.626
224.662
224.7
224.741
224.785
224.83
224.876
224.922
224.969
225.014
225.057
225.098
225.138
225.174
225.209
225.243
225.273
225.302
225.331
225.36
225.386
225.414
225.445
225.474
225.504
225.538
225.57
225.602
225.637
225.671
225.703
225.736
225.766
225.796
225.826
225.849
225.874
225.899
225.917
225.938
225.959
225.976
225.995
226.016
226.035
226.056
226.08
226.103
226.128
226.156
226.185
226.214
226.247
226.281
226.312
226.346
226.383
226.414
226.444
226.48
226.51
226.535
226.565
226.594
226.615
226.639
226.664
226.681
226.701
226.723
226.739
226.756
226.778
226.795
226.813
226.836
226.858
226.879
226.905
226.932
226.958
226.987
227.018
227.049
227.081
227.114
227.148
227.182
227.215
227.25
227.284
227.318
227.351
227.384
227.416
227.448
227.478
227.508
227.538
227.568
227.597
227.626
227.656
227.685
227.715
227.746
227.777
227.809
227.843
227.877
227.914
227.952
227.991
228.033
228.077
228.122
228.17
228.22
228.271
228.324
228.379
228.436
228.495
228.555
228.617
228.68
228.744
228.81
228.877
228.945
229.015
229.086
229.157
229.23
229.305
229.38
229.457
229.536
229.616
229.697
229.781
229.867
229.955
230.045
230.138
230.234
230.333
230.436
230.541
230.65
230.763
230.88
231
231.125
231.254
231.387
231.525
231.667
231.814
231.965
232.12
232.274
232.484
232.465
231.772
234.555
236.925
238.909
240.54
241.855
242.896
243.7
244.298
244.714
225.115
225.101
225.085
225.07
225.055
225.04
225.026
225.012
224.997
224.982
224.969
224.956
224.944
224.933
224.922
224.911
224.901
224.893
224.887
224.882
224.879
224.881
224.892
224.907
224.922
224.938
224.961
224.991
225.023
225.058
225.094
225.133
225.172
225.211
225.25
225.289
225.326
225.363
225.399
225.434
225.467
225.501
225.535
225.566
225.598
225.632
225.663
225.694
225.729
225.762
225.792
225.827
225.862
225.891
225.923
225.958
225.987
226.014
226.044
226.069
226.096
226.12
226.14
226.164
226.185
226.204
226.227
226.249
226.269
226.294
226.318
226.342
226.37
226.399
226.428
226.459
226.493
226.525
226.558
226.596
226.63
226.662
226.699
226.736
226.766
226.797
226.832
226.862
226.886
226.917
226.945
226.966
226.992
227.019
227.039
227.064
227.091
227.113
227.14
227.169
227.195
227.224
227.258
227.289
227.321
227.359
227.396
227.432
227.471
227.513
227.554
227.594
227.637
227.68
227.723
227.766
227.809
227.852
227.895
227.938
227.981
228.024
228.067
228.11
228.154
228.198
228.242
228.288
228.334
228.381
228.429
228.479
228.53
228.583
228.638
228.695
228.755
228.817
228.881
228.948
229.018
229.09
229.164
229.241
229.321
229.403
229.487
229.574
229.664
229.755
229.849
229.945
230.043
230.143
230.246
230.351
230.458
230.567
230.678
230.792
230.909
231.028
231.15
231.274
231.402
231.534
231.668
231.807
231.95
232.096
232.247
232.403
232.563
232.729
232.899
233.075
233.256
233.443
233.635
233.833
234.037
234.247
234.464
234.686
234.916
235.15
235.391
235.633
235.872
236.177
236.127
248.987
249.579
249.969
250.179
250.206
250.147
249.995
249.759
249.464
225.508
225.488
225.468
225.448
225.43
225.412
225.395
225.377
225.36
225.344
225.329
225.316
225.303
225.293
225.284
225.278
225.273
225.271
225.272
225.275
225.279
225.288
225.299
225.314
225.336
225.362
225.385
225.409
225.438
225.468
225.499
225.53
225.561
225.593
225.626
225.657
225.69
225.723
225.756
225.79
225.825
225.859
225.893
225.93
225.966
225.999
226.035
226.072
226.103
226.136
226.173
226.205
226.233
226.266
226.297
226.322
226.352
226.378
226.402
226.429
226.452
226.475
226.501
226.524
226.548
226.577
226.602
226.63
226.662
226.692
226.723
226.759
226.793
226.828
226.866
226.905
226.94
226.978
227.02
227.056
227.089
227.129
227.166
227.198
227.232
227.268
227.301
227.331
227.365
227.398
227.428
227.462
227.496
227.528
227.565
227.602
227.638
227.678
227.72
227.76
227.805
227.852
227.898
227.946
227.997
228.049
228.101
228.155
228.211
228.267
228.323
228.381
228.439
228.498
228.558
228.618
228.678
228.74
228.802
228.865
228.928
228.993
229.059
229.127
229.195
229.266
229.338
229.413
229.489
229.568
229.65
229.734
229.821
229.912
230.006
230.103
230.203
230.307
230.414
230.524
230.639
230.756
230.877
231.001
231.129
231.26
231.394
231.532
231.673
231.818
231.965
232.117
232.271
232.43
232.591
232.757
232.926
233.1
233.277
233.459
233.646
233.837
234.034
234.235
234.442
234.655
234.873
235.098
235.329
235.566
235.81
236.061
236.319
236.584
236.856
237.135
237.422
237.717
238.019
238.329
238.646
238.972
239.306
239.648
239.994
240.346
240.693
241.031
241.424
241.309
254.477
254.257
225.992
225.969
225.946
225.922
225.899
225.877
225.854
225.832
225.81
225.79
225.77
225.752
225.736
225.721
225.707
225.696
225.689
225.685
225.684
225.684
225.687
225.695
225.708
225.722
225.739
225.757
225.779
225.803
225.828
225.852
225.879
225.908
225.936
225.966
225.996
226.027
226.06
226.095
226.129
226.166
226.204
226.24
226.278
226.319
226.355
226.392
226.432
226.469
226.501
226.537
226.574
226.605
226.634
226.668
226.699
226.725
226.756
226.785
226.812
226.843
226.87
226.9
226.932
226.961
226.994
227.029
227.062
227.098
227.138
227.174
227.213
227.256
227.297
227.337
227.383
227.426
227.467
227.512
227.557
227.599
227.641
227.685
227.729
227.771
227.813
227.857
227.901
227.944
227.988
228.034
228.08
228.128
228.178
228.228
228.281
228.336
228.392
228.451
228.512
228.574
228.638
228.705
228.773
228.843
228.915
228.989
229.064
229.14
229.219
229.298
229.379
229.461
229.545
229.63
229.717
229.805
229.894
229.985
230.079
230.174
230.271
230.371
230.473
230.578
230.685
230.796
230.909
231.027
231.147
231.272
231.401
231.534
231.671
231.812
231.958
232.108
232.263
232.423
232.587
232.755
232.929
233.106
233.289
233.476
233.668
233.864
234.065
234.271
234.481
234.697
234.917
235.142
235.373
235.609
235.85
236.097
236.349
236.608
236.873
237.145
237.423
237.708
238
238.3
238.607
238.922
239.245
239.576
239.915
240.262
240.618
240.983
241.356
241.737
242.128
242.527
242.936
243.353
243.78
244.216
244.661
245.116
245.578
246.048
246.519
246.99
247.442
247.875
248.308
248.076
226.467
226.44
226.414
226.389
226.363
226.339
226.315
226.291
226.269
226.249
226.229
226.212
226.197
226.184
226.173
226.166
226.161
226.159
226.16
226.163
226.169
226.177
226.187
226.201
226.216
226.233
226.251
226.27
226.29
226.313
226.339
226.364
226.39
226.421
226.451
226.483
226.518
226.553
226.59
226.63
226.67
226.709
226.753
226.795
226.834
226.875
226.919
226.958
226.992
227.031
227.07
227.104
227.138
227.175
227.209
227.242
227.278
227.311
227.346
227.382
227.417
227.456
227.495
227.534
227.577
227.621
227.664
227.711
227.759
227.807
227.857
227.909
227.96
228.012
228.067
228.121
228.174
228.229
228.285
228.341
228.396
228.453
228.511
228.569
228.627
228.688
228.749
228.812
228.877
228.944
229.013
229.083
229.157
229.233
229.311
229.392
229.475
229.561
229.649
229.74
229.834
229.93
230.028
230.129
230.232
230.338
230.446
230.556
230.668
230.783
230.9
231.019
231.141
231.265
231.392
231.522
231.654
231.79
231.929
232.072
232.218
232.368
232.522
232.68
232.843
233.01
233.182
233.359
233.541
233.728
233.921
234.12
234.324
234.534
234.75
234.971
235.199
235.432
235.671
235.916
236.168
236.425
236.688
236.957
237.232
237.513
237.801
238.094
238.395
238.701
239.015
239.335
239.662
239.996
240.338
240.687
241.044
241.409
241.782
242.164
242.554
242.952
243.36
243.776
244.202
244.637
245.081
245.534
245.997
246.469
246.951
247.442
247.943
248.453
248.973
249.502
250.04
250.589
251.147
251.715
252.293
252.879
253.47
254.064
254.648
255.22
255.752
256.251
256.631
256.222
227.045
227.017
226.988