/*--------------------------------*- C++ -*----------------------------------*\
| =========                 |                                                 |
| \\      /  F ield         | OpenFOAM: The Open Source CFD Toolbox           |
|  \\    /   O peration     | Version:  v1706                                 |
|   \\  /    A nd           | Web:      www.OpenFOAM.com                      |
|    \\/     M anipulation  |                                                 |
\*---------------------------------------------------------------------------*/
FoamFile
{
    version     2.0;
    format      ascii;
    class       volScalarField;
    location    "1.8e-05";
    object      wallHeatFlux;
}
// * * * * * * * * * * * * * * * * * * * * * * * * * * * * * * * * * * * * * //

dimensions      [1 0 -3 0 0 0 0];


internalField   uniform 0;

boundaryField
{
    cone
    {
        type            calculated;
        value           nonuniform List<scalar> 
119
(
15011.2
15284.4
15567
15859.8
16163.2
16478
16804.8
17144.2
17497.1
17864
18245.8
18643.1
19056.5
19486.7
19933.9
20398.5
20880.2
21378.5
21892.4
22419.9
22958.3
23503.4
24049.5
24588.9
25111.7
25605.1
26053.3
26437.3
26735.1
26922.3
26972.8
26860.6
26562.6
26062.7
25360.5
24447.7
23329.5
22026.1
20567.9
18994.3
17349.2
15674.8
14011.2
12393.5
10850.2
9402.28
8063.61
6841.56
5738.12
4751.1
3875.06
3103.02
2426.56
1836.6
1324.23
880.719
497.729
167.642
-116.389
-360.455
-569.937
-749.549
-903.395
-1035.03
-1147.55
-1243.61
-1325.5
-1395.2
-1454.44
-1504.68
-1547.2
-1583.11
-1613.36
-1638.77
-1660.07
-1677.86
-1692.68
-1704.98
-1715.16
-1723.56
-1730.46
-1736.11
-1740.73
-1744.48
-1747.53
-1750
-1751.99
-1753.61
-1754.94
-1756.02
-1756.93
-1757.71
-1758.38
-1758.98
-1759.51
-1760
-1760.43
-1760.81
-1761.14
-1761.4
-1761.6
-1761.74
-1761.84
-1761.92
-1762.04
-1762.26
-1762.67
-1763.43
-1764.72
-1766.81
-1770.08
-1775.06
-1782.51
-1793.47
-1809.59
-1833.73
-1870.9
-1929.6
-2015.52
)
;
    }
    inlet
    {
        type            calculated;
        value           uniform 0;
    }
    rWedge
    {
        type            wedge;
    }
    lWedge
    {
        type            wedge;
    }
    outlet
    {
        type            calculated;
        value           uniform 0;
    }
    procBoundary0to1
    {
        type            processor;
        value           uniform 0;
    }
    procBoundary0to2
    {
        type            processor;
        value           uniform 0;
    }
}


// ************************************************************************* //
