/*--------------------------------*- C++ -*----------------------------------*\
| =========                 |                                                 |
| \\      /  F ield         | OpenFOAM: The Open Source CFD Toolbox           |
|  \\    /   O peration     | Version:  v1706                                 |
|   \\  /    A nd           | Web:      www.OpenFOAM.com                      |
|    \\/     M anipulation  |                                                 |
\*---------------------------------------------------------------------------*/
FoamFile
{
    version     2.0;
    format      ascii;
    class       volScalarField;
    location    "1.1e-05";
    object      kappave;
}
// * * * * * * * * * * * * * * * * * * * * * * * * * * * * * * * * * * * * * //

dimensions      [1 1 -3 -1 0 0 0];


internalField   nonuniform List<scalar> 
30038
(
1.46038e-10
1.46038e-10
1.46038e-10
1.46038e-10
1.46038e-10
1.46038e-10
1.46038e-10
1.46038e-10
1.46038e-10
1.46038e-10
1.46038e-10
1.46038e-10
1.46038e-10
1.46038e-10
1.46038e-10
1.46038e-10
1.46038e-10
1.46038e-10
1.46038e-10
1.46038e-10
1.46038e-10
1.46038e-10
1.46038e-10
1.46038e-10
1.46038e-10
1.46038e-10
1.46038e-10
1.46038e-10
1.46038e-10
1.46038e-10
1.46038e-10
1.46038e-10
1.46038e-10
1.46038e-10
1.46038e-10
1.46038e-10
1.46038e-10
1.46038e-10
1.46038e-10
1.46038e-10
1.46038e-10
1.46038e-10
1.46038e-10
1.46038e-10
1.46038e-10
1.46038e-10
1.46038e-10
1.46038e-10
1.46038e-10
1.46038e-10
1.46038e-10
1.46038e-10
1.46038e-10
1.46038e-10
1.46038e-10
1.46038e-10
1.46038e-10
1.46038e-10
1.46038e-10
1.46038e-10
1.46038e-10
1.46038e-10
1.46038e-10
1.46038e-10
1.46038e-10
1.46038e-10
1.46038e-10
1.46038e-10
1.46038e-10
1.46038e-10
1.46038e-10
1.46038e-10
1.46038e-10
1.46038e-10
1.46038e-10
1.46038e-10
1.46038e-10
1.46038e-10
1.46038e-10
1.46038e-10
1.46038e-10
1.46038e-10
1.46038e-10
1.46038e-10
1.46038e-10
1.46038e-10
1.46038e-10
1.46038e-10
1.46038e-10
1.46038e-10
1.46038e-10
1.46038e-10
1.46038e-10
1.46038e-10
1.46038e-10
1.46038e-10
1.46038e-10
1.46038e-10
1.46038e-10
1.46038e-10
1.46038e-10
1.46038e-10
1.46038e-10
1.46038e-10
1.46038e-10
1.46038e-10
1.46038e-10
1.46038e-10
1.46038e-10
1.46038e-10
1.46038e-10
1.46038e-10
1.46038e-10
1.46038e-10
1.46038e-10
1.46038e-10
1.46038e-10
1.46038e-10
1.46038e-10
1.46038e-10
1.46038e-10
1.46038e-10
1.46038e-10
1.46038e-10
1.46038e-10
1.46038e-10
1.46038e-10
1.46038e-10
1.46038e-10
1.46038e-10
1.46038e-10
1.46038e-10
1.46038e-10
1.46038e-10
1.46038e-10
1.46038e-10
1.46038e-10
1.46038e-10
1.46038e-10
1.46038e-10
1.46038e-10
1.46038e-10
1.46038e-10
1.46038e-10
1.46038e-10
1.46038e-10
1.46038e-10
1.46038e-10
1.46038e-10
1.46038e-10
1.46038e-10
1.46038e-10
1.46038e-10
1.46038e-10
1.46038e-10
1.46038e-10
1.46038e-10
1.46038e-10
1.46038e-10
1.46038e-10
1.46038e-10
1.46038e-10
1.46038e-10
1.46038e-10
1.46038e-10
1.46038e-10
1.46038e-10
1.46038e-10
1.46038e-10
1.46038e-10
1.46038e-10
1.46038e-10
1.46038e-10
1.46038e-10
1.46038e-10
1.46038e-10
1.46038e-10
1.46038e-10
1.46038e-10
1.46038e-10
1.46038e-10
1.46038e-10
1.46038e-10
1.46038e-10
1.46038e-10
1.46038e-10
1.46038e-10
1.46038e-10
1.46038e-10
1.46038e-10
1.46038e-10
1.46038e-10
1.46038e-10
1.46038e-10
1.46038e-10
1.46038e-10
1.46038e-10
1.46038e-10
1.46038e-10
1.46038e-10
1.46038e-10
1.46038e-10
1.46038e-10
1.46038e-10
1.46038e-10
1.46038e-10
1.46038e-10
1.46038e-10
1.46038e-10
1.46038e-10
1.46038e-10
1.46038e-10
1.46038e-10
1.46038e-10
1.46038e-10
1.46038e-10
1.46038e-10
1.46038e-10
1.46038e-10
1.46038e-10
1.46038e-10
1.46038e-10
1.46038e-10
1.46038e-10
1.46038e-10
1.46038e-10
1.46038e-10
1.46038e-10
1.46038e-10
1.46038e-10
1.46038e-10
1.46038e-10
1.46038e-10
1.46038e-10
1.46038e-10
1.46038e-10
1.46038e-10
1.46038e-10
1.46038e-10
1.46038e-10
1.46038e-10
1.46038e-10
1.46038e-10
1.46038e-10
1.46038e-10
1.46038e-10
1.46038e-10
1.46038e-10
1.46038e-10
1.46038e-10
1.46038e-10
1.46038e-10
1.46038e-10
1.46038e-10
1.46038e-10
1.46038e-10
1.46038e-10
1.46038e-10
1.46038e-10
1.46038e-10
1.46038e-10
1.46038e-10
1.46038e-10
1.46038e-10
1.46038e-10
1.46038e-10
1.46038e-10
1.46038e-10
1.46038e-10
1.46038e-10
1.46038e-10
1.46038e-10
1.46038e-10
1.46038e-10
1.46038e-10
1.46038e-10
1.46038e-10
1.46038e-10
1.46038e-10
1.46038e-10
1.46038e-10
1.46038e-10
1.46038e-10
1.46038e-10
1.46038e-10
1.46038e-10
1.46038e-10
1.46038e-10
1.46038e-10
1.46038e-10
1.46038e-10
1.46038e-10
1.46038e-10
1.46038e-10
1.46038e-10
1.46038e-10
1.46038e-10
1.46038e-10
1.46038e-10
1.46038e-10
1.46038e-10
1.46038e-10
1.46038e-10
1.46038e-10
1.46038e-10
1.46038e-10
1.46038e-10
1.46038e-10
1.46038e-10
1.46038e-10
1.46038e-10
1.46038e-10
1.46038e-10
1.46038e-10
1.46038e-10
1.46038e-10
1.46038e-10
1.46038e-10
1.46038e-10
1.46038e-10
1.46038e-10
1.46038e-10
1.46038e-10
1.46038e-10
1.46038e-10
1.46038e-10
1.46038e-10
1.46038e-10
1.46038e-10
1.46038e-10
1.46038e-10
1.46038e-10
1.46038e-10
1.46038e-10
1.46038e-10
1.46038e-10
1.46038e-10
1.46038e-10
1.46038e-10
1.46038e-10
1.46038e-10
1.46038e-10
1.46038e-10
1.46038e-10
1.46038e-10
1.46038e-10
1.46038e-10
1.46038e-10
1.46038e-10
1.46038e-10
1.46038e-10
1.46038e-10
1.46038e-10
1.46038e-10
1.46038e-10
1.46038e-10
1.46038e-10
1.46038e-10
1.46038e-10
1.46038e-10
1.46038e-10
1.46038e-10
1.46038e-10
1.46038e-10
1.46038e-10
1.46038e-10
1.46038e-10
1.46038e-10
1.46038e-10
1.46038e-10
1.46038e-10
1.46038e-10
1.46038e-10
1.46038e-10
1.46038e-10
1.46038e-10
1.46038e-10
1.46038e-10
1.46038e-10
1.46038e-10
1.46038e-10
1.46038e-10
1.46038e-10
1.46038e-10
1.46038e-10
1.46038e-10
1.46038e-10
1.46038e-10
1.46038e-10
1.46038e-10
1.46038e-10
1.46038e-10
1.46038e-10
1.46038e-10
1.46038e-10
1.46038e-10
1.46038e-10
1.46038e-10
1.46038e-10
1.46038e-10
1.46038e-10
1.46038e-10
1.46038e-10
1.46038e-10
1.46038e-10
1.46038e-10
1.46038e-10
1.46038e-10
1.46038e-10
1.46038e-10
1.46038e-10
1.46038e-10
1.46038e-10
1.46038e-10
1.46038e-10
1.46038e-10
1.46038e-10
1.46038e-10
1.46038e-10
1.46038e-10
1.46038e-10
1.46038e-10
1.46038e-10
1.46038e-10
1.46038e-10
1.46038e-10
1.46038e-10
1.46038e-10
1.46038e-10
1.46038e-10
1.46038e-10
1.46038e-10
1.46038e-10
1.46038e-10
1.46038e-10
1.46038e-10
1.46038e-10
1.46038e-10
1.46038e-10
1.46038e-10
1.46038e-10
1.46038e-10
1.46038e-10
1.46038e-10
1.46038e-10
1.46038e-10
1.46038e-10
1.46038e-10
1.46038e-10
1.46038e-10
1.46038e-10
1.46038e-10
1.46038e-10
1.46038e-10
1.46038e-10
1.46038e-10
1.46038e-10
1.46038e-10
1.46038e-10
1.46038e-10
1.46038e-10
1.46038e-10
1.46038e-10
1.46038e-10
1.46038e-10
1.46038e-10
1.46038e-10
1.46038e-10
1.46038e-10
1.46038e-10
1.46038e-10
1.46038e-10
1.46038e-10
1.46038e-10
1.46038e-10
1.46038e-10
1.46038e-10
1.46038e-10
1.46038e-10
1.46038e-10
1.46038e-10
1.46038e-10
1.46038e-10
1.46038e-10
1.46038e-10
1.46038e-10
1.46038e-10
1.46038e-10
1.46038e-10
1.46038e-10
1.46038e-10
1.46038e-10
1.46038e-10
1.46038e-10
1.46038e-10
1.46038e-10
1.46038e-10
1.46038e-10
1.46038e-10
1.46038e-10
1.46038e-10
1.46038e-10
1.46038e-10
1.46038e-10
1.46038e-10
1.46038e-10
1.46038e-10
1.46038e-10
1.46038e-10
1.46038e-10
1.46038e-10
1.46038e-10
1.46038e-10
1.46038e-10
1.46038e-10
1.46038e-10
1.46038e-10
1.46038e-10
1.46038e-10
1.46038e-10
1.46038e-10
1.46038e-10
1.46038e-10
1.46038e-10
1.46038e-10
1.46038e-10
1.46038e-10
1.46038e-10
1.46038e-10
1.46038e-10
1.46038e-10
1.46038e-10
1.46038e-10
1.46038e-10
1.46038e-10
1.46038e-10
1.46038e-10
1.46038e-10
1.46038e-10
1.46038e-10
1.46038e-10
1.46038e-10
1.46038e-10
1.46038e-10
1.46038e-10
1.46038e-10
1.46038e-10
1.46038e-10
1.46038e-10
1.46038e-10
1.46038e-10
1.46038e-10
1.46038e-10
1.46038e-10
1.46038e-10
1.46038e-10
1.46038e-10
1.46038e-10
1.46038e-10
1.46038e-10
1.46038e-10
1.46038e-10
1.46038e-10
1.46038e-10
1.46038e-10
1.46038e-10
1.46038e-10
1.46038e-10
1.46038e-10
1.46038e-10
1.46038e-10
1.46038e-10
1.46038e-10
1.46038e-10
1.46038e-10
1.46038e-10
1.46038e-10
1.46038e-10
1.46038e-10
1.46038e-10
1.46038e-10
1.46038e-10
1.46038e-10
1.46038e-10
1.46038e-10
1.46038e-10
1.46038e-10
1.46038e-10
1.46038e-10
1.46038e-10
1.46038e-10
1.46038e-10
1.46038e-10
1.46038e-10
1.46038e-10
1.46038e-10
1.46038e-10
1.46038e-10
1.46038e-10
1.46038e-10
1.46038e-10
1.46038e-10
1.46038e-10
1.46038e-10
1.46038e-10
1.46038e-10
1.46038e-10
1.46038e-10
1.46038e-10
1.46038e-10
1.46038e-10
1.46038e-10
1.46038e-10
1.46038e-10
1.46038e-10
1.46038e-10
1.46038e-10
1.46038e-10
1.46038e-10
1.46038e-10
1.46038e-10
1.46038e-10
1.46038e-10
1.46038e-10
1.46038e-10
1.46038e-10
1.46038e-10
1.46038e-10
1.46038e-10
1.46038e-10
1.46038e-10
1.46038e-10
1.46038e-10
1.46038e-10
1.46038e-10
1.46038e-10
1.46038e-10
1.46038e-10
1.46038e-10
1.46038e-10
1.46038e-10
1.46038e-10
1.46038e-10
1.46038e-10
1.46038e-10
1.46038e-10
1.46038e-10
1.46038e-10
1.46038e-10
1.46038e-10
1.46038e-10
1.46038e-10
1.46038e-10
1.46038e-10
1.46038e-10
1.46038e-10
1.46038e-10
1.46038e-10
1.46038e-10
1.46038e-10
1.46038e-10
1.46038e-10
1.46038e-10
1.46038e-10
1.46038e-10
1.46038e-10
1.46038e-10
1.46038e-10
1.46038e-10
1.46038e-10
1.46038e-10
1.46038e-10
1.46038e-10
1.46038e-10
1.46038e-10
1.46038e-10
1.46038e-10
1.46038e-10
1.46038e-10
1.46038e-10
1.46038e-10
1.46038e-10
1.46038e-10
1.46038e-10
1.46038e-10
1.46038e-10
1.46038e-10
1.46038e-10
1.46038e-10
1.46038e-10
1.46038e-10
1.46038e-10
1.46038e-10
1.46038e-10
1.46038e-10
1.46038e-10
1.46038e-10
1.46038e-10
1.46038e-10
1.46038e-10
1.46038e-10
1.46038e-10
1.46038e-10
1.46038e-10
1.46038e-10
1.46038e-10
1.46038e-10
1.46038e-10
1.46038e-10
1.46038e-10
1.46038e-10
1.46038e-10
1.46038e-10
1.46038e-10
1.46038e-10
1.46038e-10
1.46038e-10
1.46038e-10
1.46038e-10
1.46038e-10
1.46038e-10
1.46038e-10
1.46038e-10
1.46038e-10
1.46038e-10
1.46038e-10
1.46038e-10
1.46038e-10
1.46038e-10
1.46038e-10
1.46038e-10
1.46038e-10
1.46038e-10
1.46038e-10
1.46038e-10
1.46038e-10
1.46038e-10
1.46038e-10
1.46038e-10
1.46038e-10
1.46038e-10
1.46038e-10
1.46038e-10
1.46038e-10
1.46038e-10
1.46038e-10
1.46038e-10
1.46038e-10
1.46038e-10
1.46038e-10
1.46038e-10
1.46038e-10
1.46038e-10
1.46038e-10
1.46038e-10
1.46038e-10
1.46038e-10
1.46038e-10
1.46038e-10
1.46038e-10
1.46038e-10
1.46038e-10
1.46038e-10
1.46038e-10
1.46038e-10
1.46038e-10
1.46038e-10
1.46038e-10
1.46038e-10
1.46038e-10
1.46038e-10
1.46038e-10
1.46038e-10
1.46038e-10
1.46038e-10
1.46038e-10
1.46038e-10
1.46038e-10
1.46038e-10
1.46038e-10
1.46038e-10
1.46038e-10
1.46038e-10
1.46038e-10
1.46038e-10
1.46038e-10
1.46038e-10
1.46038e-10
1.46038e-10
1.46038e-10
1.46038e-10
1.46038e-10
1.46038e-10
1.46038e-10
1.46038e-10
1.46038e-10
1.46038e-10
1.46038e-10
1.46038e-10
1.46038e-10
1.46038e-10
1.46038e-10
1.46038e-10
1.46038e-10
1.46038e-10
1.46038e-10
1.46038e-10
1.46038e-10
1.46038e-10
1.46038e-10
1.46038e-10
1.46038e-10
1.46038e-10
1.46038e-10
1.46038e-10
1.46038e-10
1.46038e-10
1.46038e-10
1.46038e-10
1.46038e-10
1.46038e-10
1.46038e-10
1.46038e-10
1.46038e-10
1.46038e-10
1.46038e-10
1.46038e-10
1.46038e-10
1.46038e-10
1.46038e-10
1.46038e-10
1.46038e-10
1.46038e-10
1.46038e-10
1.46038e-10
1.46038e-10
1.46038e-10
1.46038e-10
1.46038e-10
1.46038e-10
1.46038e-10
1.46038e-10
1.46038e-10
1.46038e-10
1.46038e-10
1.46038e-10
1.46038e-10
1.46038e-10
1.46038e-10
1.46038e-10
1.46038e-10
1.46038e-10
1.46038e-10
1.46038e-10
1.46038e-10
1.46038e-10
1.46038e-10
1.46038e-10
1.46038e-10
1.46038e-10
1.46038e-10
1.46038e-10
1.46038e-10
1.46038e-10
1.46038e-10
1.46038e-10
1.46038e-10
1.46038e-10
1.46038e-10
1.46038e-10
1.46038e-10
1.46038e-10
1.46038e-10
1.46038e-10
1.46038e-10
1.46038e-10
1.46038e-10
1.46038e-10
1.46038e-10
1.46038e-10
1.46038e-10
1.46038e-10
1.46038e-10
1.46038e-10
1.46038e-10
1.46038e-10
1.46038e-10
1.46038e-10
1.46038e-10
1.46038e-10
1.46038e-10
1.46038e-10
1.46038e-10
1.46038e-10
1.46038e-10
1.46038e-10
1.46038e-10
1.46038e-10
1.46038e-10
1.46038e-10
1.46038e-10
1.46038e-10
1.46038e-10
1.46038e-10
1.46038e-10
1.46038e-10
1.46038e-10
1.46038e-10
1.46038e-10
1.46038e-10
1.46038e-10
1.46038e-10
1.46038e-10
1.46038e-10
1.46038e-10
1.46038e-10
1.46038e-10
1.46038e-10
1.46038e-10
1.46038e-10
1.46038e-10
1.46038e-10
1.46038e-10
1.46038e-10
1.46038e-10
1.46038e-10
1.46038e-10
1.46038e-10
1.46038e-10
1.46038e-10
1.46038e-10
1.46038e-10
1.46038e-10
1.46038e-10
1.46038e-10
1.46038e-10
1.46038e-10
1.46038e-10
1.46038e-10
1.46038e-10
1.46038e-10
1.46038e-10
1.46038e-10
1.46038e-10
1.46038e-10
1.46038e-10
1.46038e-10
1.46038e-10
1.46038e-10
1.46038e-10
1.46038e-10
1.46038e-10
1.46038e-10
1.46038e-10
1.46038e-10
1.46038e-10
1.46038e-10
1.46038e-10
1.46038e-10
1.46038e-10
1.46038e-10
1.46038e-10
1.46038e-10
1.46038e-10
1.46038e-10
1.46038e-10
1.46038e-10
1.46038e-10
1.46038e-10
1.46038e-10
1.46038e-10
1.46038e-10
1.46038e-10
1.46038e-10
1.46038e-10
1.46038e-10
1.46038e-10
1.46038e-10
1.46038e-10
1.46038e-10
1.46038e-10
1.46038e-10
1.46038e-10
1.46038e-10
1.46038e-10
1.46038e-10
1.46038e-10
1.46038e-10
1.46038e-10
1.46038e-10
1.46038e-10
1.46038e-10
1.46038e-10
1.46038e-10
1.46038e-10
1.46038e-10
1.46038e-10
1.46038e-10
1.46038e-10
1.46038e-10
1.46038e-10
1.46038e-10
1.46038e-10
1.46038e-10
1.46038e-10
1.46038e-10
1.46038e-10
1.46038e-10
1.46038e-10
1.46038e-10
1.46038e-10
1.46038e-10
1.46038e-10
1.46038e-10
1.46038e-10
1.46038e-10
1.46038e-10
1.46038e-10
1.46038e-10
1.46038e-10
1.46038e-10
1.46038e-10
1.46038e-10
1.46038e-10
1.46038e-10
1.46038e-10
1.46038e-10
1.46038e-10
1.46038e-10
1.46038e-10
1.46038e-10
1.46038e-10
1.46038e-10
1.46038e-10
1.46038e-10
1.46038e-10
1.46038e-10
1.46038e-10
1.46038e-10
1.46038e-10
1.46038e-10
1.46038e-10
1.46038e-10
1.46038e-10
1.46038e-10
1.46038e-10
1.46038e-10
1.46038e-10
1.46038e-10
1.46038e-10
1.46038e-10
1.46038e-10
1.46038e-10
1.46038e-10
1.46038e-10
1.46038e-10
1.46038e-10
1.46038e-10
1.46038e-10
1.46038e-10
1.46038e-10
1.46038e-10
1.46038e-10
1.46038e-10
1.46038e-10
1.46038e-10
1.46038e-10
1.46038e-10
1.46038e-10
1.46038e-10
1.46038e-10
1.46038e-10
1.46038e-10
1.46038e-10
1.46038e-10
1.46038e-10
1.46038e-10
1.46038e-10
1.46038e-10
1.46038e-10
1.46038e-10
1.46038e-10
1.46038e-10
1.46038e-10
1.46038e-10
1.46038e-10
1.46038e-10
1.46038e-10
1.46038e-10
1.46038e-10
1.46038e-10
1.46038e-10
1.46038e-10
1.46038e-10
1.46038e-10
1.46038e-10
1.46038e-10
1.46038e-10
1.46038e-10
1.46038e-10
1.46038e-10
1.46038e-10
1.46038e-10
1.46038e-10
1.46038e-10
1.46038e-10
1.46038e-10
1.46038e-10
1.46038e-10
1.46038e-10
1.46038e-10
1.46038e-10
1.46038e-10
1.46038e-10
1.46038e-10
1.46038e-10
1.46038e-10
1.46038e-10
1.46038e-10
1.46038e-10
1.46038e-10
1.46038e-10
1.46038e-10
1.46038e-10
1.46038e-10
1.46038e-10
1.46038e-10
1.46038e-10
1.46038e-10
1.46038e-10
1.46038e-10
1.46038e-10
1.46038e-10
1.46038e-10
1.46038e-10
1.46038e-10
1.46038e-10
1.46038e-10
1.46038e-10
1.46038e-10
1.46038e-10
1.46038e-10
1.46038e-10
1.46038e-10
1.46038e-10
1.46038e-10
1.46038e-10
1.46038e-10
1.46038e-10
1.46038e-10
1.46038e-10
1.46038e-10
1.46038e-10
1.46038e-10
1.46038e-10
1.46038e-10
1.46038e-10
1.46038e-10
1.46038e-10
1.46038e-10
1.46038e-10
1.46038e-10
1.46038e-10
1.46038e-10
1.46038e-10
1.46038e-10
1.46038e-10
1.46038e-10
1.46038e-10
1.46038e-10
1.46038e-10
1.46038e-10
1.46038e-10
1.46038e-10
1.46038e-10
1.46038e-10
1.46038e-10
1.46038e-10
1.46038e-10
1.46038e-10
1.46038e-10
1.46038e-10
1.46038e-10
1.46038e-10
1.46038e-10
1.46038e-10
1.46038e-10
1.46038e-10
1.46038e-10
1.46039e-10
1.4604e-10
1.46044e-10
1.46038e-10
1.46038e-10
1.46038e-10
1.46038e-10
1.46038e-10
1.46038e-10
1.46038e-10
1.46038e-10
1.46038e-10
1.46038e-10
1.46038e-10
1.46038e-10
1.46038e-10
1.46038e-10
1.46038e-10
1.46038e-10
1.46038e-10
1.46038e-10
1.46038e-10
1.46038e-10
1.46038e-10
1.46038e-10
1.46038e-10
1.46038e-10
1.46038e-10
1.46038e-10
1.46038e-10
1.46038e-10
1.46038e-10
1.46038e-10
1.46038e-10
1.46038e-10
1.46038e-10
1.46038e-10
1.46038e-10
1.46038e-10
1.46038e-10
1.46038e-10
1.46038e-10
1.46038e-10
1.46038e-10
1.46038e-10
1.46038e-10
1.46038e-10
1.46039e-10
1.4604e-10
1.46043e-10
1.4605e-10
1.46063e-10
1.461e-10
1.46038e-10
1.46038e-10
1.46038e-10
1.46038e-10
1.46038e-10
1.46038e-10
1.46038e-10
1.46038e-10
1.46038e-10
1.46038e-10
1.46038e-10
1.46038e-10
1.46038e-10
1.46038e-10
1.46038e-10
1.46038e-10
1.46038e-10
1.46038e-10
1.46038e-10
1.46038e-10
1.46038e-10
1.46038e-10
1.46038e-10
1.46038e-10
1.46038e-10
1.46038e-10
1.46038e-10
1.46038e-10
1.46038e-10
1.46038e-10
1.46038e-10
1.46038e-10
1.46038e-10
1.46038e-10
1.46038e-10
1.46038e-10
1.46038e-10
1.46038e-10
1.46038e-10
1.46038e-10
1.46038e-10
1.46039e-10
1.46041e-10
1.46044e-10
1.4605e-10
1.46064e-10
1.46092e-10
1.46152e-10
1.46284e-10
1.46627e-10
1.46038e-10
1.46038e-10
1.46038e-10
1.46038e-10
1.46038e-10
1.46038e-10
1.46038e-10
1.46038e-10
1.46038e-10
1.46038e-10
1.46038e-10
1.46038e-10
1.46038e-10
1.46038e-10
1.46038e-10
1.46038e-10
1.46038e-10
1.46038e-10
1.46038e-10
1.46038e-10
1.46038e-10
1.46038e-10
1.46038e-10
1.46038e-10
1.46038e-10
1.46038e-10
1.46038e-10
1.46038e-10
1.46038e-10
1.46038e-10
1.46038e-10
1.46038e-10
1.46038e-10
1.46038e-10
1.46038e-10
1.46038e-10
1.46038e-10
1.46039e-10
1.46039e-10
1.46041e-10
1.46044e-10
1.46051e-10
1.46065e-10
1.46095e-10
1.46156e-10
1.46283e-10
1.46552e-10
1.4712e-10
1.48366e-10
1.51525e-10
1.46038e-10
1.46038e-10
1.46038e-10
1.46038e-10
1.46038e-10
1.46038e-10
1.46038e-10
1.46038e-10
1.46038e-10
1.46038e-10
1.46038e-10
1.46038e-10
1.46038e-10
1.46038e-10
1.46038e-10
1.46038e-10
1.46038e-10
1.46038e-10
1.46038e-10
1.46038e-10
1.46038e-10
1.46038e-10
1.46038e-10
1.46038e-10
1.46038e-10
1.46038e-10
1.46038e-10
1.46038e-10
1.46038e-10
1.46038e-10
1.46038e-10
1.46038e-10
1.46038e-10
1.46038e-10
1.46039e-10
1.4604e-10
1.46042e-10
1.46045e-10
1.46053e-10
1.46068e-10
1.461e-10
1.46165e-10
1.46298e-10
1.46572e-10
1.47142e-10
1.48332e-10
1.50826e-10
1.56092e-10
1.67487e-10
1.95443e-10
1.46038e-10
1.46038e-10
1.46038e-10
1.46038e-10
1.46038e-10
1.46038e-10
1.46038e-10
1.46038e-10
1.46038e-10
1.46038e-10
1.46038e-10
1.46038e-10
1.46038e-10
1.46038e-10
1.46038e-10
1.46038e-10
1.46038e-10
1.46038e-10
1.46038e-10
1.46038e-10
1.46038e-10
1.46038e-10
1.46038e-10
1.46038e-10
1.46038e-10
1.46038e-10
1.46038e-10
1.46038e-10
1.46038e-10
1.46038e-10
1.46038e-10
1.46039e-10
1.4604e-10
1.46042e-10
1.46047e-10
1.46055e-10
1.46073e-10
1.46108e-10
1.46179e-10
1.46322e-10
1.46613e-10
1.47208e-10
1.48428e-10
1.50944e-10
1.56147e-10
1.66937e-10
1.89332e-10
2.35829e-10
3.33434e-10
5.58534e-10
1.46038e-10
1.46038e-10
1.46038e-10
1.46038e-10
1.46038e-10
1.46038e-10
1.46038e-10
1.46038e-10
1.46038e-10
1.46038e-10
1.46038e-10
1.46038e-10
1.46038e-10
1.46038e-10
1.46038e-10
1.46038e-10
1.46038e-10
1.46038e-10
1.46038e-10
1.46038e-10
1.46038e-10
1.46038e-10
1.46038e-10
1.46038e-10
1.46038e-10
1.46038e-10
1.46038e-10
1.46039e-10
1.46039e-10
1.46041e-10
1.46043e-10
1.46049e-10
1.46059e-10
1.4608e-10
1.4612e-10
1.462e-10
1.46359e-10
1.46678e-10
1.47319e-10
1.48613e-10
1.51239e-10
1.56584e-10
1.67486e-10
1.89731e-10
2.35011e-10
3.26696e-10
5.11214e-10
8.81473e-10
1.63222e-09
3.27019e-09
1.46038e-10
1.46038e-10
1.46038e-10
1.46038e-10
1.46038e-10
1.46038e-10
1.46038e-10
1.46038e-10
1.46038e-10
1.46038e-10
1.46038e-10
1.46038e-10
1.46038e-10
1.46038e-10
1.46038e-10
1.46038e-10
1.46038e-10
1.46038e-10
1.46038e-10
1.46038e-10
1.46038e-10
1.46038e-10
1.46038e-10
1.46038e-10
1.46039e-10
1.4604e-10
1.46042e-10
1.46045e-10
1.46052e-10
1.46064e-10
1.46089e-10
1.46137e-10
1.4623e-10
1.46413e-10
1.46773e-10
1.47487e-10
1.48906e-10
1.51739e-10
1.57412e-10
1.68799e-10
1.91659e-10
2.37439e-10
3.28639e-10
5.09161e-10
8.64689e-10
1.56376e-09
2.94195e-09
5.67722e-09
1.11745e-08
2.26289e-08
1.46038e-10
1.46038e-10
1.46038e-10
1.46038e-10
1.46038e-10
1.46038e-10
1.46038e-10
1.46038e-10
1.46038e-10
1.46038e-10
1.46038e-10
1.46038e-10
1.46038e-10
1.46038e-10
1.46038e-10
1.46038e-10
1.46038e-10
1.46038e-10
1.46038e-10
1.46038e-10
1.46039e-10
1.46039e-10
1.4604e-10
1.46043e-10
1.46047e-10
1.46056e-10
1.46072e-10
1.46102e-10
1.46161e-10
1.46273e-10
1.4649e-10
1.46911e-10
1.47732e-10
1.49338e-10
1.52495e-10
1.58716e-10
1.71002e-10
1.95266e-10
2.43064e-10
3.36745e-10
5.19246e-10
8.73097e-10
1.55806e-09
2.88641e-09
5.47383e-09
1.05351e-08
2.04269e-08
3.95228e-08
7.54483e-08
1.40891e-07
1.46038e-10
1.46038e-10
1.46038e-10
1.46038e-10
1.46038e-10
1.46038e-10
1.46038e-10
1.46038e-10
1.46038e-10
1.46038e-10
1.46038e-10
1.46038e-10
1.46038e-10
1.46038e-10
1.46038e-10
1.46038e-10
1.46038e-10
1.46039e-10
1.4604e-10
1.46042e-10
1.46045e-10
1.46051e-10
1.46062e-10
1.46083e-10
1.46122e-10
1.46196e-10
1.46336e-10
1.46601e-10
1.47109e-10
1.48084e-10
1.49962e-10
1.53593e-10
1.60638e-10
1.74325e-10
2.00913e-10
2.5242e-10
3.51709e-10
5.42022e-10
9.05277e-10
1.59773e-09
2.92028e-09
5.45702e-09
1.03429e-08
1.97472e-08
3.76377e-08
7.07301e-08
1.29275e-07
2.27248e-07
3.82166e-07
6.14973e-07
1.46038e-10
1.46038e-10
1.46038e-10
1.46038e-10
1.46038e-10
1.46038e-10
1.46038e-10
1.46038e-10
1.46038e-10
1.46038e-10
1.46038e-10
1.46038e-10
1.46038e-10
1.46039e-10
1.46039e-10
1.46041e-10
1.46043e-10
1.46048e-10
1.46056e-10
1.46071e-10
1.46099e-10
1.46151e-10
1.46247e-10
1.46427e-10
1.46763e-10
1.47395e-10
1.48589e-10
1.50855e-10
1.55169e-10
1.63403e-10
1.79141e-10
2.09205e-10
2.66464e-10
3.74986e-10
5.79603e-10
9.64022e-10
1.68568e-09
3.04333e-09
5.60841e-09
1.04751e-08
1.97076e-08
3.70449e-08
6.87868e-08
1.24539e-07
2.17364e-07
3.63106e-07
5.79221e-07
8.83714e-07
1.29553e-06
1.83482e-06
1.46038e-10
1.46038e-10
1.46038e-10
1.46038e-10
1.46038e-10
1.46038e-10
1.46038e-10
1.46038e-10
1.46038e-10
1.46039e-10
1.46039e-10
1.4604e-10
1.46042e-10
1.46046e-10
1.46053e-10
1.46065e-10
1.46086e-10
1.46125e-10
1.46196e-10
1.46325e-10
1.46562e-10
1.47e-10
1.47812e-10
1.49323e-10
1.52145e-10
1.57432e-10
1.67363e-10
1.86033e-10
2.21094e-10
2.86721e-10
4.08983e-10
6.35699e-10
1.05491e-09
1.82993e-09
3.26631e-09
5.94001e-09
1.09375e-08
2.02795e-08
3.75815e-08
6.88877e-08
1.23391e-07
2.13622e-07
3.54874e-07
5.64024e-07
8.58276e-07
1.25413e-06
1.76701e-06
2.4111e-06
3.20135e-06
4.15593e-06
1.46038e-10
1.46038e-10
1.46038e-10
1.46038e-10
1.46038e-10
1.46039e-10
1.46039e-10
1.4604e-10
1.46042e-10
1.46045e-10
1.46051e-10
1.46061e-10
1.46078e-10
1.46109e-10
1.46165e-10
1.46264e-10
1.46443e-10
1.46768e-10
1.47357e-10
1.48433e-10
1.50404e-10
1.54029e-10
1.60715e-10
1.73068e-10
1.95904e-10
2.38048e-10
3.15554e-10
4.57449e-10
7.16201e-10
1.1871e-09
2.04453e-09
3.61028e-09
6.48217e-09
1.17709e-08
2.15101e-08
3.92858e-08
7.10202e-08
1.25653e-07
2.15337e-07
3.54938e-07
5.60954e-07
8.50292e-07
1.23927e-06
1.74294e-06
2.37485e-06
3.14606e-06
4.06601e-06
5.14252e-06
6.38425e-06
7.80699e-06
1.46038e-10
1.46039e-10
1.46039e-10
1.4604e-10
1.46042e-10
1.46045e-10
1.4605e-10
1.46059e-10
1.46074e-10
1.461e-10
1.46147e-10
1.46228e-10
1.46372e-10
1.46629e-10
1.47085e-10
1.47903e-10
1.49374e-10
1.52026e-10
1.56829e-10
1.65544e-10
1.81384e-10
2.10164e-10
2.62343e-10
3.56595e-10
5.26142e-10
8.30188e-10
1.37484e-09
2.35173e-09
4.1097e-09
7.28756e-09
1.30537e-08
2.35114e-08
4.23058e-08
7.53618e-08
1.31512e-07
2.22671e-07
3.63365e-07
5.6974e-07
8.58401e-07
1.24548e-06
1.74593e-06
2.3733e-06
3.13909e-06
4.05245e-06
5.12047e-06
6.34726e-06
7.73162e-06
9.26707e-06
1.09494e-05
1.28049e-05
1.46042e-10
1.46045e-10
1.4605e-10
1.46058e-10
1.46072e-10
1.46096e-10
1.46137e-10
1.46209e-10
1.46333e-10
1.46548e-10
1.46926e-10
1.47589e-10
1.48759e-10
1.5083e-10
1.5451e-10
1.61067e-10
1.72775e-10
1.93696e-10
2.3104e-10
2.97525e-10
4.15455e-10
6.23903e-10
9.91566e-10
1.63998e-09
2.78582e-09
4.81828e-09
8.43975e-09
1.4914e-08
2.64744e-08
4.6915e-08
8.22832e-08
1.41441e-07
2.3619e-07
3.80805e-07
5.91109e-07
8.83388e-07
1.27349e-06
1.77623e-06
2.40501e-06
3.17163e-06
4.08542e-06
5.15389e-06
6.3819e-06
7.77028e-06
9.31339e-06
1.10005e-05
1.28192e-05
1.47607e-05
1.68252e-05
1.9065e-05
1.46059e-10
1.46072e-10
1.46096e-10
1.46135e-10
1.46201e-10
1.46315e-10
1.46509e-10
1.46841e-10
1.47415e-10
1.48407e-10
1.50131e-10
1.53138e-10
1.58398e-10
1.6762e-10
1.83814e-10
2.12248e-10
2.62089e-10
3.49191e-10
5.00899e-10
7.64436e-10
1.22176e-09
2.01605e-09
3.39937e-09
5.81842e-09
1.00674e-08
1.75507e-08
3.06997e-08
5.35517e-08
9.23933e-08
1.56242e-07
2.56899e-07
4.08469e-07
6.2647e-07
9.26843e-07
1.32509e-06
1.83578e-06
2.47213e-06
3.24592e-06
4.16681e-06
5.24234e-06
6.47797e-06
7.87607e-06
9.43348e-06
1.11409e-05
1.29857e-05
1.49552e-05
1.70409e-05
1.9236e-05
2.15395e-05
2.3956e-05
2.65545e-05
1.46205e-10
1.46315e-10
1.465e-10
1.46812e-10
1.47341e-10
1.48238e-10
1.49767e-10
1.52385e-10
1.56881e-10
1.64621e-10
1.77971e-10
2.01011e-10
2.40737e-10
3.09079e-10
4.26302e-10
6.26816e-10
9.69266e-10
1.55417e-09
2.55504e-09
4.27344e-09
7.23664e-09
1.23675e-08
2.12669e-08
3.6644e-08
6.2881e-08
1.06619e-07
1.77143e-07
2.86351e-07
4.48227e-07
6.78006e-07
9.91253e-07
1.4031e-06
1.92774e-06
2.57814e-06
3.36586e-06
4.30082e-06
5.3905e-06
6.64072e-06
8.05462e-06
9.63113e-06
1.13629e-05
1.3238e-05
1.5243e-05
1.73665e-05
1.96003e-05
2.19394e-05
2.43813e-05
2.69232e-05
2.95667e-05
3.23191e-05
3.52566e-05
1.46834e-10
1.47351e-10
1.48215e-10
1.4966e-10
1.52087e-10
1.5618e-10
1.63097e-10
1.74814e-10
1.9468e-10
2.28352e-10
2.8533e-10
3.81505e-10
5.43428e-10
8.15562e-10
1.27275e-09
2.04175e-09
3.33874e-09
5.53474e-09
9.26936e-09
1.5643e-08
2.65246e-08
4.49949e-08
7.58919e-08
1.26323e-07
2.05937e-07
3.26793e-07
5.02793e-07
7.48881e-07
1.08022e-06
1.51149e-06
2.05647e-06
2.72779e-06
3.53672e-06
4.4931e-06
5.60452e-06
6.8768e-06
8.3135e-06
9.91503e-06
1.16761e-05
1.35859e-05
1.56307e-05
1.77975e-05
2.00765e-05
2.24604e-05
2.49449e-05
2.7527e-05
3.02057e-05
3.29805e-05
3.58493e-05
3.88143e-05
4.18941e-05
4.51688e-05
1.5218e-10
1.56144e-10
1.62724e-10
1.73666e-10
1.91888e-10
2.22231e-10
2.72704e-10
3.56485e-10
4.95242e-10
7.24658e-10
1.10375e-09
1.73068e-09
2.76977e-09
4.49794e-09
7.38431e-09
1.22253e-08
2.03652e-08
3.40312e-08
5.67874e-08
9.40439e-08
1.53476e-07
2.4517e-07
3.81379e-07
5.75928e-07
8.43446e-07
1.19864e-06
1.65569e-06
2.22789e-06
2.92744e-06
3.76525e-06
4.7509e-06
5.8921e-06
7.19446e-06
8.6619e-06
1.02955e-05
1.20918e-05
1.40413e-05
1.61309e-05
1.83465e-05
2.06762e-05
2.31112e-05
2.56454e-05
2.82759e-05
3.09987e-05
3.38136e-05
3.67196e-05
3.97148e-05
4.28049e-05
4.59955e-05
4.92768e-05
5.26522e-05
5.62195e-05
1.9205e-10
2.21109e-10
2.68595e-10
3.46064e-10
4.72207e-10
6.77296e-10
1.01056e-09
1.55246e-09
2.43533e-09
3.87816e-09
6.24545e-09
1.01463e-08
1.65968e-08
2.72739e-08
4.48774e-08
7.35813e-08
1.19485e-07
1.90913e-07
2.98425e-07
4.54464e-07
6.72741e-07
9.67528e-07
1.35302e-06
1.84285e-06
2.44974e-06
3.1854e-06
4.0603e-06
5.08369e-06
6.26321e-06
7.60431e-06
9.11092e-06
1.07845e-05
1.26228e-05
1.46182e-05
1.67579e-05
1.90276e-05
2.14138e-05
2.39065e-05
2.64976e-05
2.91822e-05
3.19569e-05
3.48196e-05
3.77706e-05
4.08059e-05
4.39264e-05
4.71429e-05
5.0452e-05
5.38384e-05
5.73097e-05
6.08673e-05
6.45221e-05
6.83723e-05
4.69722e-10
6.6404e-10
9.74474e-10
1.47077e-09
2.26565e-09
3.54244e-09
5.60101e-09
8.93408e-09
1.4352e-08
2.3179e-08
3.75423e-08
6.07523e-08
9.77286e-08
1.55362e-07
2.42676e-07
3.70687e-07
5.5198e-07
8.00083e-07
1.12884e-06
1.55187e-06
2.0822e-06
2.73194e-06
3.51221e-06
4.43303e-06
5.50319e-06
6.73011e-06
8.11909e-06
9.67386e-06
1.13961e-05
1.32844e-05
1.53324e-05
1.75283e-05
1.98579e-05
2.23068e-05
2.4863e-05
2.75173e-05
3.02632e-05
3.30973e-05
3.60148e-05
3.90156e-05
4.2099e-05
4.52612e-05
4.85096e-05
5.185e-05
5.52688e-05
5.87651e-05
6.23405e-05
6.5994e-05
6.97305e-05
7.35556e-05
7.74838e-05
8.1609e-05
2.22726e-09
3.42382e-09
5.3201e-09
8.33771e-09
1.31592e-08
2.08859e-08
3.32718e-08
5.30431e-08
8.42768e-08
1.32767e-07
2.06264e-07
3.14482e-07
4.6883e-07
6.81929e-07
9.67028e-07
1.33745e-06
1.80618e-06
2.38556e-06
3.08705e-06
3.92113e-06
4.89729e-06
6.02384e-06
7.30783e-06
8.75439e-06
1.03669e-05
1.21472e-05
1.40941e-05
1.62025e-05
1.84616e-05
2.08574e-05
2.33748e-05
2.60006e-05
2.87247e-05
3.1539e-05
3.44378e-05
3.74175e-05
4.04759e-05
4.36133e-05
4.68243e-05
5.01122e-05
5.34869e-05
5.69427e-05
6.04712e-05
6.40723e-05
6.77484e-05
7.14987e-05
7.53285e-05
7.92405e-05
8.32363e-05
8.73177e-05
9.14998e-05
9.58774e-05
1.27826e-08
1.99424e-08
3.12384e-08
4.90148e-08
7.67719e-08
1.19509e-07
1.83989e-07
2.78828e-07
4.14353e-07
6.02234e-07
8.54987e-07
1.18546e-06
1.60636e-06
2.12995e-06
2.76786e-06
3.53083e-06
4.42868e-06
5.47029e-06
6.66345e-06
8.01476e-06
9.52914e-06
1.12096e-05
1.30578e-05
1.50727e-05
1.725e-05
1.95798e-05
2.20485e-05
2.46408e-05
2.73428e-05
3.01428e-05
3.30312e-05
3.60016e-05
3.90505e-05
4.21732e-05
4.53687e-05
4.86365e-05
5.19736e-05
5.5387e-05
5.88809e-05
6.24481e-05
6.60816e-05
6.97834e-05
7.35551e-05
7.73982e-05
8.13176e-05
8.53153e-05
8.93911e-05
9.35452e-05
9.77789e-05
0.000102094
0.000106506
0.000111109
7.39338e-08
1.135e-07
1.72677e-07
2.59222e-07
3.82538e-07
5.53403e-07
7.83562e-07
1.08525e-06
1.47077e-06
1.95214e-06
2.54085e-06
3.24773e-06
4.0828e-06
5.05517e-06
6.17309e-06
7.44376e-06
8.87327e-06
1.04662e-05
1.22252e-05
1.41516e-05
1.62445e-05
1.84998e-05
2.09085e-05
2.34576e-05
2.61317e-05
2.89158e-05
3.17975e-05
3.47666e-05
3.78154e-05
4.09385e-05
4.41313e-05
4.73921e-05
5.07221e-05
5.41147e-05
5.75731e-05
6.11095e-05
6.47182e-05
6.83884e-05
7.21209e-05
7.59203e-05
7.97837e-05
8.37158e-05
8.772e-05
9.17975e-05
9.5948e-05
0.000100173
0.000104472
0.000108844
0.00011329
0.000117812
0.000122426
0.000127225
5.30742e-07
7.46819e-07
1.02969e-06
1.39113e-06
1.84277e-06
2.39583e-06
3.061e-06
3.84829e-06
4.76697e-06
5.82541e-06
7.03119e-06
8.39089e-06
9.91007e-06
1.15929e-05
1.34415e-05
1.54569e-05
1.7638e-05
1.9981e-05
2.24774e-05
2.51146e-05
2.78772e-05
3.07501e-05
3.372e-05
3.67757e-05
3.99077e-05
4.31108e-05
4.63803e-05
4.97122e-05
5.31075e-05
5.65624e-05
6.00741e-05
6.36564e-05
6.73078e-05
7.10206e-05
7.47889e-05
7.86176e-05
8.25062e-05
8.64554e-05
9.04711e-05
9.45552e-05
9.87072e-05
0.000102927
0.000107217
0.000111575
0.000116002
0.000120497
0.00012506
0.00012969
0.000134389
0.000139174
0.000144137
1.79636e-06
2.32658e-06
2.96382e-06
3.71792e-06
4.59806e-06
5.61271e-06
6.76951e-06
8.07535e-06
9.53617e-06
1.1157e-05
1.29413e-05
1.4891e-05
1.70066e-05
1.92866e-05
2.17274e-05
2.43207e-05
2.7054e-05
2.99124e-05
3.28804e-05
3.59442e-05
3.90916e-05
4.23129e-05
4.5602e-05
4.89528e-05
5.23602e-05
5.58261e-05
5.93478e-05