/*--------------------------------*- C++ -*----------------------------------*\
| =========                 |                                                 |
| \\      /  F ield         | OpenFOAM: The Open Source CFD Toolbox           |
|  \\    /   O peration     | Version:  v1706                                 |
|   \\  /    A nd           | Web:      www.OpenFOAM.com                      |
|    \\/     M anipulation  |                                                 |
\*---------------------------------------------------------------------------*/
FoamFile
{
    version     2.0;
    format      ascii;
    class       volScalarField;
    location    "1.1e-05";
    object      kappatr;
}
// * * * * * * * * * * * * * * * * * * * * * * * * * * * * * * * * * * * * * //

dimensions      [1 1 -3 -1 0 0 0];


internalField   nonuniform List<scalar> 
30038
(
0.014593
0.014593
0.014593
0.014593
0.014593
0.014593
0.014593
0.014593
0.014593
0.014593
0.014593
0.014593
0.014593
0.014593
0.014593
0.014593
0.014593
0.014593
0.014593
0.014593
0.014593
0.014593
0.014593
0.014593
0.014593
0.014593
0.014593
0.014593
0.014593
0.014593
0.014593
0.014593
0.014593
0.014593
0.014593
0.014593
0.014593
0.014593
0.014593
0.014593
0.014593
0.014593
0.014593
0.014593
0.014593
0.014593
0.014593
0.014593
0.014593
0.014593
0.014593
0.014593
0.014593
0.014593
0.014593
0.014593
0.014593
0.014593
0.014593
0.014593
0.014593
0.014593
0.014593
0.014593
0.014593
0.014593
0.014593
0.014593
0.014593
0.014593
0.014593
0.014593
0.014593
0.014593
0.014593
0.014593
0.014593
0.014593
0.014593
0.014593
0.014593
0.014593
0.014593
0.014593
0.014593
0.014593
0.014593
0.014593
0.014593
0.014593
0.014593
0.014593
0.014593
0.014593
0.014593
0.014593
0.014593
0.014593
0.014593
0.014593
0.014593
0.014593
0.014593
0.014593
0.014593
0.014593
0.014593
0.014593
0.014593
0.014593
0.014593
0.014593
0.014593
0.014593
0.014593
0.014593
0.014593
0.014593
0.014593
0.014593
0.014593
0.014593
0.014593
0.014593
0.014593
0.014593
0.014593
0.014593
0.014593
0.014593
0.014593
0.014593
0.014593
0.014593
0.014593
0.014593
0.014593
0.014593
0.014593
0.014593
0.014593
0.014593
0.014593
0.014593
0.014593
0.014593
0.014593
0.014593
0.014593
0.014593
0.014593
0.014593
0.014593
0.014593
0.014593
0.014593
0.014593
0.014593
0.014593
0.014593
0.014593
0.014593
0.014593
0.014593
0.014593
0.014593
0.014593
0.014593
0.014593
0.014593
0.014593
0.014593
0.014593
0.014593
0.014593
0.014593
0.014593
0.014593
0.014593
0.014593
0.014593
0.014593
0.014593
0.014593
0.014593
0.014593
0.014593
0.014593
0.014593
0.014593
0.014593
0.014593
0.014593
0.014593
0.014593
0.014593
0.014593
0.014593
0.014593
0.014593
0.014593
0.014593
0.014593
0.014593
0.014593
0.014593
0.014593
0.014593
0.014593
0.014593
0.014593
0.014593
0.014593
0.014593
0.014593
0.014593
0.014593
0.014593
0.014593
0.014593
0.014593
0.014593
0.014593
0.014593
0.014593
0.014593
0.014593
0.014593
0.014593
0.014593
0.014593
0.014593
0.014593
0.014593
0.014593
0.014593
0.014593
0.014593
0.014593
0.014593
0.014593
0.014593
0.014593
0.014593
0.014593
0.014593
0.014593
0.014593
0.014593
0.014593
0.014593
0.014593
0.014593
0.014593
0.014593
0.014593
0.014593
0.014593
0.014593
0.014593
0.014593
0.014593
0.014593
0.014593
0.014593
0.014593
0.014593
0.014593
0.014593
0.014593
0.014593
0.014593
0.014593
0.014593
0.014593
0.014593
0.014593
0.014593
0.014593
0.014593
0.014593
0.014593
0.014593
0.014593
0.014593
0.014593
0.014593
0.014593
0.014593
0.014593
0.014593
0.014593
0.014593
0.014593
0.014593
0.014593
0.014593
0.014593
0.014593
0.014593
0.014593
0.014593
0.014593
0.014593
0.014593
0.014593
0.014593
0.014593
0.014593
0.014593
0.014593
0.014593
0.014593
0.014593
0.014593
0.014593
0.014593
0.014593
0.014593
0.014593
0.014593
0.014593
0.014593
0.014593
0.014593
0.014593
0.014593
0.014593
0.014593
0.014593
0.014593
0.014593
0.014593
0.014593
0.014593
0.014593
0.014593
0.014593
0.014593
0.014593
0.014593
0.014593
0.014593
0.014593
0.014593
0.014593
0.014593
0.014593
0.014593
0.014593
0.014593
0.014593
0.014593
0.014593
0.014593
0.014593
0.014593
0.014593
0.014593
0.014593
0.014593
0.014593
0.014593
0.014593
0.014593
0.014593
0.014593
0.014593
0.014593
0.014593
0.014593
0.014593
0.014593
0.014593
0.014593
0.014593
0.014593
0.014593
0.014593
0.014593
0.014593
0.014593
0.014593
0.014593
0.014593
0.014593
0.014593
0.014593
0.014593
0.014593
0.014593
0.014593
0.014593
0.014593
0.014593
0.014593
0.014593
0.014593
0.014593
0.014593
0.014593
0.014593
0.014593
0.014593
0.014593
0.014593
0.014593
0.014593
0.014593
0.014593
0.014593
0.014593
0.014593
0.014593
0.014593
0.014593
0.014593
0.014593
0.014593
0.014593
0.014593
0.014593
0.014593
0.014593
0.014593
0.014593
0.014593
0.014593
0.014593
0.014593
0.014593
0.014593
0.014593
0.014593
0.014593
0.014593
0.014593
0.014593
0.014593
0.014593
0.014593
0.014593
0.014593
0.014593
0.014593
0.014593
0.014593
0.014593
0.014593
0.014593
0.014593
0.014593
0.014593
0.014593
0.014593
0.014593
0.014593
0.014593
0.014593
0.014593
0.014593
0.014593
0.014593
0.014593
0.014593
0.014593
0.014593
0.014593
0.014593
0.014593
0.014593
0.014593
0.014593
0.014593
0.014593
0.014593
0.014593
0.014593
0.014593
0.014593
0.014593
0.014593
0.014593
0.014593
0.014593
0.014593
0.014593
0.014593
0.014593
0.014593
0.014593
0.014593
0.014593
0.014593
0.014593
0.014593
0.014593
0.014593
0.014593
0.014593
0.014593
0.014593
0.014593
0.014593
0.014593
0.014593
0.014593
0.014593
0.014593
0.014593
0.014593
0.014593
0.014593
0.014593
0.014593
0.014593
0.014593
0.014593
0.014593
0.014593
0.014593
0.014593
0.014593
0.014593
0.014593
0.014593
0.014593
0.014593
0.014593
0.014593
0.014593
0.014593
0.014593
0.014593
0.014593
0.014593
0.014593
0.014593
0.014593
0.014593
0.014593
0.014593
0.014593
0.014593
0.014593
0.014593
0.014593
0.014593
0.014593
0.014593
0.014593
0.014593
0.014593
0.014593
0.014593
0.014593
0.014593
0.014593
0.014593
0.014593
0.014593
0.014593
0.014593
0.014593
0.014593
0.014593
0.014593
0.014593
0.014593
0.014593
0.014593
0.014593
0.014593
0.014593
0.014593
0.014593
0.014593
0.014593
0.014593
0.014593
0.014593
0.014593
0.014593
0.014593
0.014593
0.014593
0.014593
0.014593
0.014593
0.014593
0.014593
0.014593
0.014593
0.014593
0.014593
0.014593
0.014593
0.014593
0.014593
0.014593
0.014593
0.014593
0.014593
0.014593
0.014593
0.014593
0.014593
0.014593
0.014593
0.014593
0.014593
0.014593
0.014593
0.014593
0.014593
0.014593
0.014593
0.014593
0.014593
0.014593
0.014593
0.014593
0.014593
0.014593
0.014593
0.014593
0.014593
0.014593
0.014593
0.014593
0.014593
0.014593
0.014593
0.014593
0.014593
0.014593
0.014593
0.014593
0.014593
0.014593
0.014593
0.014593
0.014593
0.014593
0.014593
0.014593
0.014593
0.014593
0.014593
0.014593
0.014593
0.014593
0.014593
0.014593
0.014593
0.014593
0.014593
0.014593
0.014593
0.014593
0.014593
0.014593
0.014593
0.014593
0.014593
0.014593
0.014593
0.014593
0.014593
0.014593
0.014593
0.014593
0.014593
0.014593
0.014593
0.014593
0.014593
0.014593
0.014593
0.014593
0.014593
0.014593
0.014593
0.014593
0.014593
0.014593
0.014593
0.014593
0.014593
0.014593
0.014593
0.014593
0.014593
0.014593
0.014593
0.014593
0.014593
0.014593
0.014593
0.014593
0.014593
0.014593
0.014593
0.014593
0.014593
0.014593
0.014593
0.014593
0.014593
0.014593
0.014593
0.014593
0.014593
0.014593
0.014593
0.014593
0.014593
0.014593
0.014593
0.014593
0.014593
0.014593
0.014593
0.014593
0.014593
0.014593
0.014593
0.014593
0.014593
0.014593
0.014593
0.014593
0.014593
0.014593
0.014593
0.014593
0.014593
0.014593
0.014593
0.014593
0.014593
0.014593
0.014593
0.014593
0.014593
0.014593
0.014593
0.014593
0.014593
0.014593
0.014593
0.014593
0.014593
0.014593
0.014593
0.014593
0.014593
0.014593
0.014593
0.014593
0.014593
0.014593
0.014593
0.014593
0.014593
0.014593
0.014593
0.014593
0.014593
0.014593
0.014593
0.014593
0.014593
0.014593
0.014593
0.014593
0.014593
0.014593
0.014593
0.014593
0.014593
0.014593
0.014593
0.014593
0.014593
0.014593
0.014593
0.014593
0.014593
0.014593
0.014593
0.014593
0.014593
0.014593
0.014593
0.014593
0.014593
0.014593
0.014593
0.014593
0.014593
0.014593
0.014593
0.014593
0.014593
0.014593
0.014593
0.014593
0.014593
0.014593
0.014593
0.014593
0.014593
0.014593
0.014593
0.014593
0.014593
0.014593
0.014593
0.014593
0.014593
0.014593
0.014593
0.014593
0.014593
0.014593
0.014593
0.014593
0.014593
0.014593
0.014593
0.014593
0.014593
0.014593
0.014593
0.014593
0.014593
0.014593
0.014593
0.014593
0.014593
0.014593
0.014593
0.014593
0.014593
0.014593
0.014593
0.014593
0.014593
0.014593
0.014593
0.014593
0.014593
0.014593
0.014593
0.014593
0.014593
0.014593
0.014593
0.014593
0.014593
0.014593
0.014593
0.014593
0.014593
0.014593
0.014593
0.014593
0.014593
0.014593
0.014593
0.014593
0.014593
0.014593
0.014593
0.014593
0.014593
0.014593
0.014593
0.014593
0.014593
0.014593
0.014593
0.014593
0.014593
0.014593
0.014593
0.014593
0.014593
0.014593
0.014593
0.014593
0.014593
0.014593
0.014593
0.014593
0.014593
0.014593
0.014593
0.014593
0.014593
0.014593
0.014593
0.014593
0.014593
0.014593
0.014593
0.014593
0.014593
0.014593
0.014593
0.014593
0.014593
0.014593
0.014593
0.014593
0.014593
0.014593
0.014593
0.014593
0.014593
0.014593
0.014593
0.014593
0.014593
0.014593
0.014593
0.014593
0.014593
0.014593
0.014593
0.014593
0.014593
0.014593
0.014593
0.014593
0.014593
0.014593
0.014593
0.014593
0.014593
0.014593
0.014593
0.014593
0.014593
0.014593
0.014593
0.014593
0.014593
0.014593
0.014593
0.014593
0.014593
0.014593
0.014593
0.014593
0.014593
0.014593
0.014593
0.014593
0.014593
0.014593
0.014593
0.014593
0.014593
0.014593
0.014593
0.014593
0.014593
0.014593
0.014593
0.014593
0.014593
0.014593
0.014593
0.014593
0.014593
0.014593
0.014593
0.014593
0.014593
0.014593
0.014593
0.014593
0.014593
0.014593
0.014593
0.014593
0.014593
0.014593
0.014593
0.014593
0.014593
0.014593
0.014593
0.014593
0.014593
0.014593
0.014593
0.014593
0.014593
0.014593
0.014593
0.014593
0.014593
0.014593
0.014593
0.014593
0.014593
0.014593
0.014593
0.014593
0.014593
0.014593
0.014593
0.014593
0.014593
0.014593
0.014593
0.014593
0.014593
0.014593
0.014593
0.014593
0.014593
0.014593
0.014593
0.014593
0.014593
0.014593
0.014593
0.014593
0.014593
0.014593
0.014593
0.014593
0.014593
0.014593
0.014593
0.014593
0.014593
0.014593
0.014593
0.014593
0.014593
0.014593
0.014593
0.014593
0.014593
0.014593
0.014593
0.014593
0.014593
0.014593
0.014593
0.014593
0.014593
0.014593
0.014593
0.014593
0.014593
0.014593
0.014593
0.014593
0.014593
0.014593
0.014593
0.014593
0.014593
0.014593
0.014593
0.014593
0.014593
0.014593
0.014593
0.014593
0.014593
0.014593
0.014593
0.014593
0.014593
0.014593
0.014593
0.014593
0.014593
0.014593
0.014593
0.014593
0.014593
0.014593
0.014593
0.014593
0.014593
0.014593
0.014593
0.014593
0.014593
0.014593
0.014593
0.014593
0.014593
0.014593
0.014593
0.014593
0.014593
0.014593
0.014593
0.014593
0.014593
0.014593
0.014593
0.014593
0.014593
0.014593
0.014593
0.014593
0.014593
0.014593
0.014593
0.014593
0.014593
0.014593
0.014593
0.014593
0.014593
0.014593
0.014593
0.014593
0.014593
0.014593
0.014593
0.014593
0.014593
0.014593
0.014593
0.014593
0.014593
0.014593
0.014593
0.014593
0.014593
0.014593
0.014593
0.014593
0.014593
0.014593
0.014593
0.014593
0.014593
0.014593
0.014593
0.014593
0.014593
0.014593
0.014593
0.014593
0.014593
0.014593
0.014593
0.014593
0.014593
0.014593
0.014593
0.014593
0.014593
0.014593
0.014593
0.014593
0.014593
0.014593
0.014593
0.014593
0.014593
0.014593
0.014593
0.014593
0.014593
0.014593
0.014593
0.014593
0.014593
0.014593
0.014593
0.014593
0.014593
0.014593
0.014593
0.014593
0.014593
0.014593
0.014593
0.014593
0.014593
0.014593
0.014593
0.014593
0.014593
0.014593
0.014593
0.014593
0.014593
0.014593
0.014593
0.014593
0.014593
0.014593
0.014593
0.014593
0.014593
0.014593
0.014593
0.014593
0.014593
0.014593
0.014593
0.014593
0.014593
0.014593
0.014593
0.014593
0.014593
0.014593
0.014593
0.014593
0.014593
0.014593
0.014593
0.014593
0.014593
0.014593
0.014593
0.014593
0.014593
0.014593
0.014593
0.014593
0.014593
0.014593
0.014593
0.0145931
0.0145931
0.0145932
0.014593
0.014593
0.014593
0.014593
0.014593
0.014593
0.014593
0.014593
0.014593
0.014593
0.014593
0.014593
0.014593
0.014593
0.014593
0.014593
0.014593
0.014593
0.014593
0.014593
0.014593
0.014593
0.014593
0.014593
0.014593
0.014593
0.014593
0.014593
0.014593
0.014593
0.014593
0.014593
0.014593
0.014593
0.014593
0.014593
0.014593
0.014593
0.014593
0.014593
0.014593
0.014593
0.014593
0.014593
0.0145931
0.0145931
0.0145932
0.0145934
0.0145937
0.0145944
0.014593
0.014593
0.014593
0.014593
0.014593
0.014593
0.014593
0.014593
0.014593
0.014593
0.014593
0.014593
0.014593
0.014593
0.014593
0.014593
0.014593
0.014593
0.014593
0.014593
0.014593
0.014593
0.014593
0.014593
0.014593
0.014593
0.014593
0.014593
0.014593
0.014593
0.014593
0.014593
0.014593
0.014593
0.014593
0.014593
0.014593
0.014593
0.014593
0.014593
0.014593
0.0145931
0.0145931
0.0145932
0.0145934
0.0145937
0.0145942
0.0145952
0.0145971
0.0146007
0.014593
0.014593
0.014593
0.014593
0.014593
0.014593
0.014593
0.014593
0.014593
0.014593
0.014593
0.014593
0.014593
0.014593
0.014593
0.014593
0.014593
0.014593
0.014593
0.014593
0.014593
0.014593
0.014593
0.014593
0.014593
0.014593
0.014593
0.014593
0.014593
0.014593
0.014593
0.014593
0.014593
0.014593
0.014593
0.014593
0.014593
0.014593
0.0145931
0.0145931
0.0145932
0.0145934
0.0145937
0.0145942
0.0145951
0.0145968
0.0145999
0.0146055
0.0146159
0.0146362
0.014593
0.014593
0.014593
0.014593
0.014593
0.014593
0.014593
0.014593
0.014593
0.014593
0.014593
0.014593
0.014593
0.014593
0.014593
0.014593
0.014593
0.014593
0.014593
0.014593
0.014593
0.014593
0.014593
0.014593
0.014593
0.014593
0.014593
0.014593
0.014593
0.014593
0.014593
0.014593
0.014593
0.014593
0.014593
0.0145931
0.0145931
0.0145932
0.0145934
0.0145937
0.0145942
0.0145951
0.0145968
0.0145997
0.0146049
0.0146144
0.0146314
0.0146621
0.0147185
0.0148266
0.014593
0.014593
0.014593
0.014593
0.014593
0.014593
0.014593
0.014593
0.014593
0.014593
0.014593
0.014593
0.014593
0.014593
0.014593
0.014593
0.014593
0.014593
0.014593
0.014593
0.014593
0.014593
0.014593
0.014593
0.014593
0.014593
0.014593
0.014593
0.014593
0.014593
0.014593
0.0145931
0.0145931
0.0145931
0.0145932
0.0145934
0.0145937
0.0145943
0.0145952
0.0145968
0.0145997
0.0146048
0.0146138
0.0146298
0.0146583
0.0147093
0.0148001
0.0149622
0.0152513
0.0157743
0.014593
0.014593
0.014593
0.014593
0.014593
0.014593
0.014593
0.014593
0.014593
0.014593
0.014593
0.014593
0.014593
0.014593
0.014593
0.014593
0.014593
0.014593
0.014593
0.014593
0.014593
0.014593
0.014593
0.014593
0.014593
0.014593
0.014593
0.014593
0.0145931
0.0145931
0.0145932
0.0145933
0.0145935
0.0145938
0.0145943
0.0145953
0.014597
0.0145999
0.0146049
0.0146138
0.0146293
0.0146566
0.0147048
0.0147895
0.0149385
0.0151983
0.0156461
0.0164006
0.0176319
0.0195636
0.014593
0.014593
0.014593
0.014593
0.014593
0.014593
0.014593
0.014593
0.014593
0.014593
0.014593
0.014593
0.014593
0.014593
0.014593
0.014593
0.014593
0.014593
0.014593
0.014593
0.014593
0.014593
0.014593
0.014593
0.014593
0.0145931
0.0145931
0.0145932
0.0145933
0.0145935
0.0145939
0.0145945
0.0145955
0.0145972
0.0146002
0.0146054
0.0146143
0.0146298
0.0146566
0.0147034
0.0147847
0.0149257
0.015169
0.0155834
0.0162746
0.0173889
0.0191021
0.0215832
0.0249476
0.029214
0.014593
0.014593
0.014593
0.014593
0.014593
0.014593
0.014593
0.014593
0.014593
0.014593
0.014593
0.014593
0.014593
0.014593
0.014593
0.014593
0.014593
0.014593
0.014593
0.014593
0.014593
0.0145931
0.0145931
0.0145931
0.0145932
0.0145934
0.0145936
0.014594
0.0145946
0.0145957
0.0145976
0.0146008
0.0146062
0.0146154
0.0146312
0.0146583
0.0147049
0.0147848
0.0149219
0.0151555
0.0155491
0.0161993
0.0172402
0.0188336
0.0211378
0.0242593
0.0282147
0.032924
0.0382428
0.0439856
0.014593
0.014593
0.014593
0.014593
0.014593
0.014593
0.014593
0.014593
0.014593
0.014593
0.014593
0.014593
0.014593
0.014593
0.014593
0.014593
0.014593
0.014593
0.0145931
0.0145931
0.0145932
0.0145933
0.0145934
0.0145937
0.0145941
0.0145949
0.0145961
0.0145982
0.0146016
0.0146074
0.0146172
0.0146338
0.0146618
0.0147094
0.0147901
0.0149266
0.0151565
0.0155394
0.0161652
0.0171582
0.0186692
0.0208478
0.0238004
0.0275517
0.0320347
0.0371112
0.0426097
0.0483597
0.0542177
0.0600474
0.014593
0.014593
0.014593
0.014593
0.014593
0.014593
0.014593
0.014593
0.014593
0.014593
0.014593
0.014593
0.014593
0.014593
0.0145931
0.0145931
0.0145931
0.0145932
0.0145933
0.0145935
0.0145938
0.0145944
0.0145952
0.0145966
0.014599
0.0146028
0.0146092
0.0146199
0.0146377
0.0146674
0.0147172
0.0148007
0.0149402
0.0151721
0.0155534
0.0161694
0.0171365
0.0185956
0.0206874
0.0235146
0.0271074
0.0314113
0.0363036
0.0416253
0.047212
0.0529145
0.0586068
0.0641775
0.0695324
0.0746082
0.014593
0.014593
0.014593
0.014593
0.014593
0.014593
0.014593
0.014593
0.014593
0.014593
0.014593
0.0145931
0.0145931
0.0145932
0.0145933
0.0145934
0.0145936
0.014594
0.0145947
0.0145957
0.0145973
0.0146
0.0146044
0.0146117
0.0146235
0.0146431
0.0146755
0.014729
0.0148175
0.0149635
0.0152031
0.0155918
0.0162117
0.0171731
0.018608
0.0206476
0.0233885
0.0268613
0.0310199
0.0357543
0.0409192
0.0463612
0.0519381
0.0575283
0.0630251
0.0683301
0.0733635
0.0780586
0.0823304
0.0861079
0.014593
0.014593
0.014593
0.014593
0.014593
0.014593
0.014593
0.0145931
0.0145931
0.0145931
0.0145932
0.0145933
0.0145935
0.0145938
0.0145943
0.0145951
0.0145963
0.0145983
0.0146015
0.0146067
0.014615
0.0146286
0.0146507
0.0146868
0.0147457
0.0148419
0.0149984
0.0152518
0.0156573
0.0162947
0.0172697
0.0187062
0.0207255
0.0234157
0.0268045
0.0308496
0.0354509
0.040475
0.0457799
0.0512328
0.056718
0.0621374
0.0673984
0.0724203
0.0771354
0.0814748
0.0853489
0.0886688
0.0913727
0.0935017
0.014593
0.014593
0.014593
0.0145931
0.0145931
0.0145931
0.0145932
0.0145933
0.0145935
0.0145937
0.0145941
0.0145947
0.0145957
0.0145972
0.0145997
0.0146035
0.0146097
0.0146196
0.0146356
0.0146611
0.0147024
0.0147688
0.0148758
0.0150476
0.0153218
0.0157542
0.0164235
0.0174315
0.0188945
0.0209234
0.0235959
0.0269338
0.0308956
0.035388
0.0402882
0.0454654
0.0507961
0.0561717
0.0615008
0.0666998
0.07169
0.0764056
0.0807866
0.0847604
0.088239
0.09115
0.0934665
0.0952292
0.0965118
0.0974416
0.0145931
0.0145931
0.0145931
0.0145932
0.0145933
0.0145934
0.0145936
0.014594
0.0145945
0.0145953
0.0145965
0.0145985
0.0146016
0.0146064
0.014614
0.014626
0.0146451
0.0146754
0.0147237
0.0148004
0.0149223
0.0151153
0.0154186
0.0158895
0.0166063
0.0176675
0.0191816
0.0212483
0.0239335
0.0272507
0.0311567
0.0355629
0.0403555
0.0454142
0.0506254
0.0558884
0.0611177
0.0662386
0.0711777
0.0758703
0.080261
0.0842909
0.0878838
0.0909619
0.0934782
0.095438
0.0969003
0.0979502
0.0986888
0.099197
0.0995601
0.0145933
0.0145934
0.0145936
0.0145939
0.0145943
0.014595
0.0145961
0.0145978
0.0146003
0.0146043
0.0146104
0.01462
0.014635
0.0146584
0.0146952
0.0147529
0.0148436
0.0149856
0.0152072
0.01555
0.0160732
0.0168552
0.017991
0.0195811
0.0217126
0.0244381
0.0277612
0.0316354
0.0359753
0.040675
0.0456245
0.05072
0.0558694
0.0609931
0.0660235
0.0708947
0.0755441
0.0799186
0.0839678
0.0876289
0.0908282
0.093507
0.0956469
0.0972803
0.0984779
0.099328
0.0999189
0.100322
0.100601
0.100793
0.100927
0.0145939
0.0145943
0.0145949
0.0145959
0.0145974
0.0145996
0.014603
0.0146082
0.0146162
0.0146286
0.0146476
0.0146771
0.0147227
0.0147935
0.014903
0.0150722
0.015332
0.0157272
0.0163192
0.0171867
0.0184203
0.0201113
0.022333
0.0251235
0.0284754
0.0323378
0.036628
0.0412476
0.0460962
0.0510798
0.0561148
0.0611285
0.0660586
0.0708473
0.0754356
0.0797721
0.0838117
0.0875029
0.0907806
0.0935817
0.0958719
0.0976608
0.0990012
0.0999684
0.100647
0.101112
0.10143
0.101645
0.101786
0.101878
0.101955
0.10202
0.0145972
0.0145992
0.0146023
0.014607
0.014614
0.0146247
0.014641
0.0146658
0.0147037
0.0147616
0.0148502
0.0149854
0.0151911
0.0155018
0.0159657
0.0166467
0.0176227
0.0189792
0.020796
0.0231313
0.0260077
0.0294066
0.0332728
0.0375262
0.0420753
0.0468293
0.0517039
0.0566237
0.0615232
0.0663455
0.0710391
0.075551
0.0798317
0.0838388
0.0875289
0.0908467
0.0937312
0.0961387
0.0980609
0.0995309
0.100612
0.10138
0.101913
0.102274
0.102517
0.102677
0.102777
0.102842
0.1029
0.102931
0.102924
0.102905
0.014613
0.0146227
0.0146373
0.0146593
0.0146923
0.0147421
0.0148173
0.0149306
0.0151009
0.0153558
0.0157338
0.016287
0.017081
0.0181919
0.0196974
0.021664
0.0241333
0.027112
0.030571
0.0344514
0.0386761
0.043161
0.0478244
0.0525915
0.0573953
0.062177
0.0668851
0.0714738
0.075896
0.0801049
0.0840599
0.0877233
0.0910487
0.0939808
0.0964714
0.0984997
0.100082
0.101269
0.102125
0.102725
0.103134
0.103408
0.103589
0.103699
0.103762
0.103809
0.103846
0.10384
0.103817
0.103778
0.103726
0.103673
0.0146866
0.0147316
0.0147984
0.0148979
0.0150457
0.0152644
0.0155856
0.0160525
0.0167206
0.0176559
0.0189303
0.020611
0.0227489
0.0253679
0.0284597
0.0319858
0.0358852
0.0400848
0.0445081
0.0490825
0.0537422
0.0584283
0.0630887
0.067677
0.0721521
0.0764726
0.0805953
0.0844816
0.0880972
0.0914031
0.0943506
0.0968917
0.0989979
0.100672
0.10195
0.102887
0.103553
0.104012
0.104317
0.104517
0.104643
0.104711
0.104748
0.10478
0.104783
0.104759
0.104716
0.104657
0.104592
0.104527
0.104463
0.104402
0.0150165
0.0152127
0.0154978
0.0159084
0.0164917
0.0173055
0.0184141
0.0198815
0.0217615
0.0240875
0.0268657
0.0300745
0.0336683
0.037586
0.0417594
0.0461201
0.0506044
0.0551551
0.0597209
0.0642558
0.0687188
0.0730726
0.0772811
0.0813049
0.0851078
0.0886577
0.0919215
0.0948569
0.0974187
0.0995739
0.101316
0.102668
0.103677
0.104404
0.104908
0.105248
0.105469
0.105609
0.105683
0.105716
0.105736
0.105742
0.105719
0.105674
0.105614
0.105542
0.105466
0.10539
0.105315
0.10524
0.105167
0.105096
0.0163636
0.0170974
0.0180925
0.019408
0.0210962
0.0231945
0.0257181
0.0286572
0.0319791
0.0356344
0.039564
0.0437057
0.0479994
0.05239
0.0568283
0.0612701
0.065675
0.0700069
0.0742326
0.0783201
0.0822339
0.0859402
0.0894091
0.0926115
0.0955111
0.0980664
0.100243
0.102029
0.103436
0.104504
0.105282
0.10583
0.106202
0.106444
0.106594
0.106679
0.106713
0.106721
0.10672
0.106702
0.106655
0.106591
0.106514
0.106429
0.106342
0.106257
0.106172
0.106087
0.106003
0.105918
0.105835
0.105753
0.0206982
0.0226292
0.0249563
0.0276775
0.0307695
0.0341928
0.0378969
0.0418268
0.0459273
0.0501465
0.0544376
0.0587586
0.0630718
0.067342
0.0715374
0.0756283
0.0795865
0.0833802
0.086978
0.0903523
0.0934768
0.0963203
0.0988455
0.101019
0.102824
0.104267
0.105376
0.106197
0.106781
0.107181
0.107443
0.107605
0.107698
0.107734
0.107733
0.107723
0.107703
0.107655
0.107586
0.107507
0.107416
0.10732
0.107223
0.107128
0.107032
0.106938
0.106843
0.106749
0.106654
0.106559
0.106465
0.106371
0.0332246
0.0367297
0.0404642
0.0443785
0.0484251
0.0525601
0.0567441
0.0609418
0.0651209
0.0692512
0.0733043
0.0772541
0.0810753
0.0847398
0.0882185
0.0914858
0.0945181
0.0972881
0.0997628
0.101911
0.103712
0.105169
0.106304
0.107155
0.107766
0.10819
0.10847
0.108641
0.108739
0.10878
0.108774
0.108754
0.108725
0.108678
0.108605
0.10852
0.108424
0.108319
0.108212
0.108107
0.108002
0.107896
0.107792
0.107688
0.107583
0.107479
0.107374
0.107268
0.107162
0.107056
0.10695
0.0472193
0.0511971
0.0552365
0.0593046
0.0633719
0.0674108
0.0713951
0.0753
0.0791024
0.0827797
0.0863066
0.0896566
0.0928061
0.0957336
0.0984153
0.100822
0.102923
0.104701
0.106153
0.107296
0.108162
0.108792
0.109233
0.109525
0.109704
0.109806
0.109849
0.109838
0.109811
0.109772
0.109719
0.109643
0.109553
0.109453
0.109341
0.109225
0.109109
0.108993
0.108877
0.108763
0.108649
0.108535
0.108421
0.108306
0.108191
0.108076
0.10796
0.107843
0.107726
0.107608
0.10749
0.0621117
0.0660407
0.0699329
0.0737651
0.0775159
0.0811647
0.0846914
0.088073
0.0912855
0.0943075
0.0971193
0.0996994
0.102022
0.10406
0.105795
0.107223
0.108357
0.109225
0.109863
0.110312
0.110611
0.110796
0.110899
0.11094
0.11093
0.110894
0.110843
0.110781
0.110706
0.110608
0.110501
0.110383
0.110258
0.110132
0.110007
0.109881
0.109756
0.109632
0.109508
0.109384
0.109261
0.109137
0.109012
0.108887
0.108762
0.108635
0.108508
0.10838
0.108251
0.108121
0.107991
0.0799415
0.0834309
0.0868007
0.09003
0.0930971
0.0959824
0.0986683
0.101135
0.10336
0.105319
0.106995
0.108382
0.109492
0.110348
0.110982
0.111431
0.111732
0.111918
0.112019
0.112057
0.112045
0.112001
0.111938
0.111867
0.111786
0.111682
0.111568
0.111446
0.111313
0.111177
0.111041
0.110906
0.110771
0.110636
0.110503
0.11037
0.110237
0.110103
0.10997
0.109836
0.109701
0.109566
0.109431
0.109294
0.109156
0.109017
0.108878
0.108737
0.108596
0.108454
0.0921664
0.0950807
0.0978213
0.100372
0.102716
0.104832
0.106698
0.108299
0.109631
0.110703
0.111533
0.112152
0.112593
0.112889
0.11307
0.113168
0.113201
0.113184
0.113132
0.11306
0.112977
0.112886
0.112779
0.112656
0.112527
0.112387
0.112242
0.112097
0.111952
0.111807
0.111662
0.111519
0.111376
0.111233
0.11109
0.110948
0.110805
0.110662
0.110518
0.110374
0.110229
0.110083
0.109936
0.109788
0.109639
0.109489
0.109337
0.109185
0.109032
0.108878
0.102222
0.104434
0.10643
0.108192
0.109706
0.110969
0.111988
0.112781
0.113375
0.113798
0.114081
0.114255
0.114345
0.114368
0.114345
0.114288
0.114204
0.114108
0.114008
0.113896
0.113765
0.113626
0.113481
0.113328
0.113172
0.113017
0.112863
0.112708
0.112555
0.112402
0.11225
0.112098
0.111946
0.111794
0.111642
0.11149
0.111337
0.111183
0.111029
0.110874
0.110718
0.110561
0.110403
0.110244
0.110084
0.109922
0.109759
0.109595
0.10943
0.109264
0.109791
0.111207
0.112389
0.113345
0.11409
0.114649
0.115047
0.115311
0.115472
0.11555
0.115561
0.115532
0.115465
0.115369
0.115263
0.115151
0.11503
0.114892
0.114745
0.114594
0.114432
0.114267
0.114103
0.113938
0.113774
0.11361
0.113448
0.113286
0.113125
0.112964
0.112803
0.112642
0.11248
0.112319
0.112157
0.111995
0.111832
0.111668
0.111503
0.111337
0.11117
0.111002
0.110833
0.110662
0.110491
0.110317
0.110143
0.109967
0.109791
0.109613
0.114769
0.115457
0.115972
0.116337
0.116577
0.11672
0.116783
0.11678
0.116741
0.116664
0.116557
0.11644
0.116316
0.116183
0.116039
0.115883
0.115722
0.115554
0.11538
0.115206
0.115032
0.114858
0.114685
0.114513
0.114341
0.11417
0.114
0.11383
0.11366
0.11349
0.11332
0.11315
0.112979
0.112808
0.112636
0.112463
0.11229
0.112115
0.11194
0.111763
0.111585
0.111406
0.111226
0.111044
0.11086
0.110676
0.11049
0.110302
0.110114
0.109924
0.117667
0.117878
0.117997
0.118041
0.118025
0.117972
0.117884
0.117764
0.117635
0.117499
0.117356
0.117206
0.117039
0.116868
0.116693
0.116511
0.116326
0.116144
0.11596
0.115777
0.115595
0.115415
0.115234
0.115055
0.114876
0.114697
0.114518
0.114339
0.114161
0.113982
0.113802
0.113622
0.113442
0.11326
0.113078
0.112895
0.112711
0.112526
0.11234
0.112152
0.111963
0.111773
0.111581
0.111388
0.111193
0.110997
0.110799
0.1106
0.110399
0.110198
0.119323
0.119292
0.119224
0.119122
0.118991
0.11885
0.118702
0.118547
0.118385
0.118212
0.118032
0.117849
0.117659
0.117464
0.117272
0.11708
0.116887
0.116696
0.116506
0.116316
0.116127
0.115939
0.115751
0.115564
0.115376
0.115189
0.115001
0.114814
0.114626
0.114437
0.114248
0.114059
0.113868
0.113677
0.113484
0.113291
0.113096
0.1129
0.112703
0.112504
0.112304
0.112103
0.1119
0.111695
0.111488
0.111281
0.111071
0.11086
0.110649
0.110435
0.120235
0.120081
0.119922
0.119754
0.119582
0.119401
0.119211
0.119018
0.118821
0.118618
0.118416
0.118215
0.118013
0.117812
0.117613
0.117414
0.117216
0.117019
0.116822
0.116626
0.11643
0.116234
0.116038
0.115842
0.115646
0.11545
0.115253
0.115056
0.114858
0.114659
0.114459
0.114259
0.114057
0.113854
0.11365
0.113445
0.113238
0.11303
0.11282
0.112609
0.112396
0.112182
0.111965
0.111748
0.111528
0.111307
0.111085
0.110861
0.110636
0.120978
0.120795
0.120604
0.120405
0.120202
0.119997
0.119786
0.119574
0.119365
0.119154
0.118944
0.118735
0.118528
0.11832
0.118114
0.117909
0.117704
0.117499
0.117295
0.117091
0.116887
0.116683
0.116479
0.116274
0.116069
0.115863
0.115657
0.11545
0.115243
0.115034
0.114825
0.114614
0.114402
0.114188
0.113974
0.113758
0.11354
0.113321
0.1131
0.112877
0.112653
0.112427
0.1122
0.11197
0.11174
0.111507
0.111273
0.111038
0.110802
0.121613
0.121401
0.121186
0.120967
0.120747
0.120528
0.120309
0.120089
0.119872
0.119656
0.11944
0.119225
0.119011
0.118797
0.118584
0.118372
0.118159
0.117947
0.117735
0.117523
0.11731
0.117098
0.116885
0.116671
0.116457
0.116242
0.116027
0.11581
0.115593
0.115374
0.115154
0.114933
0.114711
0.114487
0.114261
0.114034
0.113806
0.113575
0.113343
0.11311
0.112874
0.112637
0.112398
0.112158
0.111915
0.111672
0.111426
0.11118
0.110932
0.121931
0.121703
0.121477
0.121248
0.121022
0.120798
0.120573
0.120349
0.120127
0.119905
0.119683
0.119462
0.119242
0.119022
0.118801
0.118581
0.118361
0.118141
0.117921
0.1177
0.117478
0.117256
0.117034
0.11681
0.116586
0.116361
0.116135
0.115907
0.115678
0.115448
0.115217
0.114984
0.114749
0.114513
0.114275
0.114036
0.113795
0.113551
0.113307
0.11306
0.112811
0.112561
0.112309
0.112056
0.111801
0.111544
0.111286
0.111027
0.122419
0.122184
0.121951
0.121718
0.121486
0.121255
0.121025
0.120795
0.120567
0.120338
0.12011
0.119882
0.119654
0.119426
0.119198
0.11897
0.118742
0.118514
0.118285
0.118055
0.117825
0.117594
0.117362
0.117129
0.116895
0.11666
0.116424
0.116187
0.115948
0.115707
0.115465
0.115222
0.114977
0.11473
0.114481
0.114231
0.113978
0.113724
0.113468
0.11321
0.112951
0.112689
0.112426
0.112161
0.111895
0.111627
0.111358
0.111088
0.122635
0.122396
0.122157
0.12192
0.121683
0.121446
0.12121
0.120975
0.120739
0.120504
0.120269
0.120033
0.119798
0.119562
0.119326
0.119089
0.118852
0.118615
0.118376
0.118137
0.117897
0.117656
0.117413
0.11717
0.116925
0.116679
0.116431
0.116182
0.115931
0.115679
0.115425
0.115169
0.114911
0.114652
0.11439
0.114127
0.113862
0.113595
0.113326
0.113055
0.112782
0.112508
0.112232
0.111955
0.111676
0.111396
0.111114
0.123055
0.12281
0.122566
0.122323
0.122079
0.121836
0.121594
0.121351
0.121108
0.120866
0.120623
0.12038
0.120136
0.119893
0.119648
0.119403
0.119158
0.118911
0.118664
0.118415
0.118166
0.117915
0.117663
0.11741
0.117155