/*--------------------------------*- C++ -*----------------------------------*\
| =========                 |                                                 |
| \\      /  F ield         | OpenFOAM: The Open Source CFD Toolbox           |
|  \\    /   O peration     | Version:  v1706                                 |
|   \\  /    A nd           | Web:      www.OpenFOAM.com                      |
|    \\/     M anipulation  |                                                 |
\*---------------------------------------------------------------------------*/
FoamFile
{
    version     2.0;
    format      ascii;
    class       volScalarField;
    location    "1.1e-05";
    object      Mach;
}
// * * * * * * * * * * * * * * * * * * * * * * * * * * * * * * * * * * * * * //

dimensions      [0 0 0 0 0 0 0];


internalField   nonuniform List<scalar> 
30038
(
11.2859
11.2859
11.2859
11.2859
11.2859
11.2859
11.2859
11.2859
11.2859
11.2859
11.2859
11.2859
11.2859
11.2859
11.2859
11.2859
11.2859
11.2859
11.2859
11.2859
11.2859
11.2859
11.2859
11.2859
11.2859
11.2859
11.2859
11.2859
11.2859
11.2859
11.2859
11.2859
11.2859
11.2859
11.2859
11.2859
11.2859
11.2859
11.2859
11.2859
11.2859
11.2859
11.2859
11.2859
11.2859
11.2859
11.2859
11.2859
11.2859
11.2859
11.2859
11.2859
11.2859
11.2859
11.2859
11.2859
11.2859
11.2859
11.2859
11.2859
11.2859
11.2859
11.2859
11.2859
11.2859
11.2859
11.2859
11.2859
11.2859
11.2859
11.2859
11.2859
11.2859
11.2859
11.2859
11.2859
11.2859
11.2859
11.2859
11.2859
11.2859
11.2859
11.2859
11.2859
11.2859
11.2859
11.2859
11.2859
11.2859
11.2859
11.2859
11.2859
11.2859
11.2859
11.2859
11.2859
11.2859
11.2859
11.2859
11.2859
11.2859
11.2859
11.2859
11.2859
11.2859
11.2859
11.2859
11.2859
11.2859
11.2859
11.2859
11.2859
11.2859
11.2859
11.2859
11.2859
11.2859
11.2859
11.2859
11.2859
11.2859
11.2859
11.2859
11.2859
11.2859
11.2859
11.2859
11.2859
11.2859
11.2859
11.2859
11.2859
11.2859
11.2859
11.2859
11.2859
11.2859
11.2859
11.2859
11.2859
11.2859
11.2859
11.2859
11.2859
11.2859
11.2859
11.2859
11.2859
11.2859
11.2859
11.2859
11.2859
11.2859
11.2859
11.2859
11.2859
11.2859
11.2859
11.2859
11.2859
11.2859
11.2859
11.2859
11.2859
11.2859
11.2859
11.2859
11.2859
11.2859
11.2859
11.2859
11.2859
11.2859
11.2859
11.2859
11.2859
11.2859
11.2859
11.2859
11.2859
11.2859
11.2859
11.2859
11.2859
11.2859
11.2859
11.2859
11.2859
11.2859
11.2859
11.2859
11.2859
11.2859
11.2859
11.2859
11.2859
11.2859
11.2859
11.2859
11.2859
11.2859
11.2859
11.2859
11.2859
11.2859
11.2859
11.2859
11.2859
11.2859
11.2859
11.2859
11.2859
11.2859
11.2859
11.2859
11.2859
11.2859
11.2859
11.2859
11.2859
11.2859
11.2859
11.2859
11.2859
11.2859
11.2859
11.2859
11.2859
11.2859
11.2859
11.2859
11.2859
11.2859
11.2859
11.2859
11.2859
11.2859
11.2859
11.2859
11.2859
11.2859
11.2859
11.2859
11.2859
11.2859
11.2859
11.2859
11.2859
11.2859
11.2859
11.2859
11.2859
11.2859
11.2859
11.2859
11.2859
11.2859
11.2859
11.2859
11.2859
11.2859
11.2859
11.2859
11.2859
11.2859
11.2859
11.2859
11.2859
11.2859
11.2859
11.2859
11.2859
11.2859
11.2859
11.2859
11.2859
11.2859
11.2859
11.2859
11.2859
11.2859
11.2859
11.2859
11.2859
11.2859
11.2859
11.2859
11.2859
11.2859
11.2859
11.2859
11.2859
11.2859
11.2859
11.2859
11.2859
11.2859
11.2859
11.2859
11.2859
11.2859
11.2859
11.2859
11.2859
11.2859
11.2859
11.2859
11.2859
11.2859
11.2859
11.2859
11.2859
11.2859
11.2859
11.2859
11.2859
11.2859
11.2859
11.2859
11.2859
11.2859
11.2859
11.2859
11.2859
11.2859
11.2859
11.2859
11.2859
11.2859
11.2859
11.2859
11.2859
11.2859
11.2859
11.2859
11.2859
11.2859
11.2859
11.2859
11.2859
11.2859
11.2859
11.2859
11.2859
11.2859
11.2859
11.2859
11.2859
11.2859
11.2859
11.2859
11.2859
11.2859
11.2859
11.2859
11.2859
11.2859
11.2859
11.2859
11.2859
11.2859
11.2859
11.2859
11.2859
11.2859
11.2859
11.2859
11.2859
11.2859
11.2859
11.2859
11.2859
11.2859
11.2859
11.2859
11.2859
11.2859
11.2859
11.2859
11.2859
11.2859
11.2859
11.2859
11.2859
11.2859
11.2859
11.2859
11.2859
11.2859
11.2859
11.2859
11.2859
11.2859
11.2859
11.2859
11.2859
11.2859
11.2859
11.2859
11.2859
11.2859
11.2859
11.2859
11.2859
11.2859
11.2859
11.2859
11.2859
11.2859
11.2859
11.2859
11.2859
11.2859
11.2859
11.2859
11.2859
11.2859
11.2859
11.2859
11.2859
11.2859
11.2859
11.2859
11.2859
11.2859
11.2859
11.2859
11.2859
11.2859
11.2859
11.2859
11.2859
11.2859
11.2859
11.2859
11.2859
11.2859
11.2859
11.2859
11.2859
11.2859
11.2859
11.2859
11.2859
11.2859
11.2859
11.2859
11.2859
11.2859
11.2859
11.2859
11.2859
11.2859
11.2859
11.2859
11.2859
11.2859
11.2859
11.2859
11.2859
11.2859
11.2859
11.2859
11.2859
11.2859
11.2859
11.2859
11.2859
11.2859
11.2859
11.2859
11.2859
11.2859
11.2859
11.2859
11.2859
11.2859
11.2859
11.2859
11.2859
11.2859
11.2859
11.2859
11.2859
11.2859
11.2859
11.2859
11.2859
11.2859
11.2859
11.2859
11.2859
11.2859
11.2859
11.2859
11.2859
11.2859
11.2859
11.2859
11.2859
11.2859
11.2859
11.2859
11.2859
11.2859
11.2859
11.2859
11.2859
11.2859
11.2859
11.2859
11.2859
11.2859
11.2859
11.2859
11.2859
11.2859
11.2859
11.2859
11.2859
11.2859
11.2859
11.2859
11.2859
11.2859
11.2859
11.2859
11.2859
11.2859
11.2859
11.2859
11.2859
11.2859
11.2859
11.2859
11.2859
11.2859
11.2859
11.2859
11.2859
11.2859
11.2859
11.2859
11.2859
11.2859
11.2859
11.2859
11.2859
11.2859
11.2859
11.2859
11.2859
11.2859
11.2859
11.2859
11.2859
11.2859
11.2859
11.2859
11.2859
11.2859
11.2859
11.2859
11.2859
11.2859
11.2859
11.2859
11.2859
11.2859
11.2859
11.2859
11.2859
11.2859
11.2859
11.2859
11.2859
11.2859
11.2859
11.2859
11.2859
11.2859
11.2859
11.2859
11.2859
11.2859
11.2859
11.2859
11.2859
11.2859
11.2859
11.2859
11.2859
11.2859
11.2859
11.2859
11.2859
11.2859
11.2859
11.2859
11.2859
11.2859
11.2859
11.2859
11.2859
11.2859
11.2859
11.2859
11.2859
11.2859
11.2859
11.2859
11.2859
11.2859
11.2859
11.2859
11.2859
11.2859
11.2859
11.2859
11.2859
11.2859
11.2859
11.2859
11.2859
11.2859
11.2859
11.2859
11.2859
11.2859
11.2859
11.2859
11.2859
11.2859
11.2859
11.2859
11.2859
11.2859
11.2859
11.2859
11.2859
11.2859
11.2859
11.2859
11.2859
11.2859
11.2859
11.2859
11.2859
11.2859
11.2859
11.2859
11.2859
11.2859
11.2859
11.2859
11.2859
11.2859
11.2859
11.2859
11.2859
11.2859
11.2859
11.2859
11.2859
11.2859
11.2859
11.2859
11.2859
11.2859
11.2859
11.2859
11.2859
11.2859
11.2859
11.2859
11.2859
11.2859
11.2859
11.2859
11.2859
11.2859
11.2859
11.2859
11.2859
11.2859
11.2859
11.2859
11.2859
11.2859
11.2859
11.2859
11.2859
11.2859
11.2859
11.2859
11.2859
11.2859
11.2859
11.2859
11.2859
11.2859
11.2859
11.2859
11.2859
11.2859
11.2859
11.2859
11.2859
11.2859
11.2859
11.2859
11.2859
11.2859
11.2859
11.2859
11.2859
11.2859
11.2859
11.2859
11.2859
11.2859
11.2859
11.2859
11.2859
11.2859
11.2859
11.2859
11.2859
11.2859
11.2859
11.2859
11.2859
11.2859
11.2859
11.2859
11.2859
11.2859
11.2859
11.2859
11.2859
11.2859
11.2859
11.2859
11.2859
11.2859
11.2859
11.2859
11.2859
11.2859
11.2859
11.2859
11.2859
11.2859
11.2859
11.2859
11.2859
11.2859
11.2859
11.2859
11.2859
11.2859
11.2859
11.2859
11.2859
11.2859
11.2859
11.2859
11.2859
11.2859
11.2859
11.2859
11.2859
11.2859
11.2859
11.2859
11.2859
11.2859
11.2859
11.2859
11.2859
11.2859
11.2859
11.2859
11.2859
11.2859
11.2859
11.2859
11.2859
11.2859
11.2859
11.2859
11.2859
11.2859
11.2859
11.2859
11.2859
11.2859
11.2859
11.2859
11.2859
11.2859
11.2859
11.2859
11.2859
11.2859
11.2859
11.2859
11.2859
11.2859
11.2859
11.2859
11.2859
11.2859
11.2859
11.2859
11.2859
11.2859
11.2859
11.2859
11.2859
11.2859
11.2859
11.2859
11.2859
11.2859
11.2859
11.2859
11.2859
11.2859
11.2859
11.2859
11.2859
11.2859
11.2859
11.2859
11.2859
11.2859
11.2859
11.2859
11.2859
11.2859
11.2859
11.2859
11.2859
11.2859
11.2859
11.2859
11.2859
11.2859
11.2859
11.2859
11.2859
11.2859
11.2859
11.2859
11.2859
11.2859
11.2859
11.2859
11.2859
11.2859
11.2859
11.2859
11.2859
11.2859
11.2859
11.2859
11.2859
11.2859
11.2859
11.2859
11.2859
11.2859
11.2859
11.2859
11.2859
11.2859
11.2859
11.2859
11.2859
11.2859
11.2859
11.2859
11.2859
11.2859
11.2859
11.2859
11.2859
11.2859
11.2859
11.2859
11.2859
11.2859
11.2859
11.2859
11.2859
11.2859
11.2859
11.2859
11.2859
11.2859
11.2859
11.2859
11.2859
11.2859
11.2859
11.2859
11.2859
11.2859
11.2859
11.2859
11.2859
11.2859
11.2859
11.2859
11.2859
11.2859
11.2859
11.2859
11.2859
11.2859
11.2859
11.2859
11.2859
11.2859
11.2859
11.2859
11.2859
11.2859
11.2859
11.2859
11.2859
11.2859
11.2859
11.2859
11.2859
11.2859
11.2859
11.2859
11.2859
11.2859
11.2859
11.2859
11.2859
11.2859
11.2859
11.2859
11.2859
11.2859
11.2859
11.2859
11.2859
11.2859
11.2859
11.2859
11.2859
11.2859
11.2859
11.2859
11.2859
11.2859
11.2859
11.2859
11.2859
11.2859
11.2859
11.2859
11.2859
11.2859
11.2859
11.2859
11.2859
11.2859
11.2859
11.2859
11.2859
11.2859
11.2859
11.2859
11.2859
11.2859
11.2859
11.2859
11.2859
11.2859
11.2859
11.2859
11.2859
11.2859
11.2859
11.2859
11.2859
11.2859
11.2859
11.2859
11.2859
11.2859
11.2859
11.2859
11.2859
11.2859
11.2859
11.2859
11.2859
11.2859
11.2859
11.2859
11.2859
11.2859
11.2859
11.2859
11.2859
11.2859
11.2859
11.2859
11.2859
11.2859
11.2859
11.2859
11.2859
11.2859
11.2859
11.2859
11.2859
11.2859
11.2859
11.2859
11.2859
11.2859
11.2859
11.2859
11.2859
11.2859
11.2859
11.2859
11.2859
11.2859
11.2859
11.2859
11.2859
11.2859
11.2859
11.2859
11.2859
11.2859
11.2859
11.2859
11.2859
11.2859
11.2859
11.2859
11.2859
11.2859
11.2859
11.2859
11.2859
11.2859
11.2859
11.2859
11.2859
11.2859
11.2859
11.2859
11.2859
11.2859
11.2859
11.2859
11.2859
11.2859
11.2859
11.2859
11.2859
11.2859
11.2859
11.2859
11.2859
11.2859
11.2859
11.2859
11.2859
11.2859
11.2859
11.2859
11.2859
11.2859
11.2859
11.2859
11.2859
11.2859
11.2859
11.2859
11.2859
11.2859
11.2859
11.2859
11.2859
11.2859
11.2859
11.2859
11.2859
11.2859
11.2859
11.2859
11.2859
11.2859
11.2859
11.2859
11.2859
11.2859
11.2859
11.2859
11.2859
11.2859
11.2859
11.2859
11.2859
11.2859
11.2859
11.2859
11.2859
11.2859
11.2859
11.2859
11.2859
11.2859
11.2859
11.2859
11.2859
11.2859
11.2859
11.2859
11.2859
11.2859
11.2859
11.2859
11.2859
11.2859
11.2859
11.2859
11.2859
11.2859
11.2859
11.2859
11.2859
11.2859
11.2859
11.2859
11.2859
11.2859
11.2859
11.2859
11.2859
11.2859
11.2859
11.2859
11.2859
11.2859
11.2859
11.2859
11.2859
11.2859
11.2859
11.2859
11.2859
11.2859
11.2859
11.2859
11.2859
11.2859
11.2859
11.2859
11.2859
11.2859
11.2859
11.2859
11.2859
11.2859
11.2859
11.2859
11.2859
11.2859
11.2859
11.2859
11.2859
11.2859
11.2859
11.2859
11.2859
11.2859
11.2859
11.2858
11.2858
11.2859
11.2859
11.2859
11.2859
11.2859
11.2859
11.2859
11.2859
11.2859
11.2859
11.2859
11.2859
11.2859
11.2859
11.2859
11.2859
11.2859
11.2859
11.2859
11.2859
11.2859
11.2859
11.2859
11.2859
11.2859
11.2859
11.2859
11.2859
11.2859
11.2859
11.2859
11.2859
11.2859
11.2859
11.2859
11.2859
11.2859
11.2859
11.2859
11.2859
11.2859
11.2859
11.2859
11.2859
11.2859
11.2858
11.2858
11.2858
11.2858
11.2857
11.2859
11.2859
11.2859
11.2859
11.2859
11.2859
11.2859
11.2859
11.2859
11.2859
11.2859
11.2859
11.2859
11.2859
11.2859
11.2859
11.2859
11.2859
11.2859
11.2859
11.2859
11.2859
11.2859
11.2859
11.2859
11.2859
11.2859
11.2859
11.2859
11.2859
11.2859
11.2859
11.2859
11.2859
11.2859
11.2859
11.2859
11.2859
11.2859
11.2859
11.2859
11.2859
11.2858
11.2858
11.2858
11.2858
11.2857
11.2856
11.2855
11.2851
11.2859
11.2859
11.2859
11.2859
11.2859
11.2859
11.2859
11.2859
11.2859
11.2859
11.2859
11.2859
11.2859
11.2859
11.2859
11.2859
11.2859
11.2859
11.2859
11.2859
11.2859
11.2859
11.2859
11.2859
11.2859
11.2859
11.2859
11.2859
11.2859
11.2859
11.2859
11.2859
11.2859
11.2859
11.2859
11.2859
11.2859
11.2859
11.2859
11.2858
11.2858
11.2858
11.2858
11.2857
11.2857
11.2855
11.2852
11.2846
11.2836
11.2816
11.2859
11.2859
11.2859
11.2859
11.2859
11.2859
11.2859
11.2859
11.2859
11.2859
11.2859
11.2859
11.2859
11.2859
11.2859
11.2859
11.2859
11.2859
11.2859
11.2859
11.2859
11.2859
11.2859
11.2859
11.2859
11.2859
11.2859
11.2859
11.2859
11.2859
11.2859
11.2859
11.2859
11.2859
11.2859
11.2859
11.2858
11.2858
11.2858
11.2858
11.2857
11.2857
11.2855
11.2852
11.2847
11.2838
11.2821
11.279
11.2733
11.2623
11.2859
11.2859
11.2859
11.2859
11.2859
11.2859
11.2859
11.2859
11.2859
11.2859
11.2859
11.2859
11.2859
11.2859
11.2859
11.2859
11.2859
11.2859
11.2859
11.2859
11.2859
11.2859
11.2859
11.2859
11.2859
11.2859
11.2859
11.2859
11.2859
11.2859
11.2859
11.2859
11.2859
11.2858
11.2858
11.2858
11.2858
11.2857
11.2856
11.2855
11.2852
11.2847
11.2838
11.2822
11.2793
11.2742
11.2649
11.2482
11.2177
11.1599
11.2859
11.2859
11.2859
11.2859
11.2859
11.2859
11.2859
11.2859
11.2859
11.2859
11.2859
11.2859
11.2859
11.2859
11.2859
11.2859
11.2859
11.2859
11.2859
11.2859
11.2859
11.2859
11.2859
11.2859
11.2859
11.2859
11.2859
11.2859
11.2859
11.2858
11.2858
11.2858
11.2858
11.2858
11.2857
11.2856
11.2855
11.2852
11.2847
11.2838
11.2822
11.2794
11.2745
11.2657
11.2502
11.2227
11.174
11.0884
10.9393
10.6818
11.2859
11.2859
11.2859
11.2859
11.2859
11.2859
11.2859
11.2859
11.2859
11.2859
11.2859
11.2859
11.2859
11.2859
11.2859
11.2859
11.2859
11.2859
11.2859
11.2859
11.2859
11.2859
11.2859
11.2859
11.2859
11.2859
11.2858
11.2858
11.2858
11.2858
11.2858
11.2857
11.2856
11.2854
11.2851
11.2846
11.2837
11.2821
11.2793
11.2745
11.266
11.2512
11.2251
11.1796
11.1008
10.9663
10.7435
10.3911
9.86937
9.16297
11.2859
11.2859
11.2859
11.2859
11.2859
11.2859
11.2859
11.2859
11.2859
11.2859
11.2859
11.2859
11.2859
11.2859
11.2859
11.2859
11.2859
11.2859
11.2859
11.2859
11.2859
11.2859
11.2859
11.2858
11.2858
11.2858
11.2858
11.2858
11.2857
11.2856
11.2854
11.2851
11.2845
11.2835
11.2819
11.2791
11.2742
11.2658
11.2512
11.2259
11.1822
11.1075
10.9814
10.7741
10.448
9.96784
9.32086
8.5365
7.68005
6.83256
11.2859
11.2859
11.2859
11.2859
11.2859
11.2859
11.2859
11.2859
11.2859
11.2859
11.2859
11.2859
11.2859
11.2859
11.2859
11.2859
11.2859
11.2859
11.2859
11.2858
11.2858
11.2858
11.2858
11.2858
11.2857
11.2857
11.2855
11.2853
11.285
11.2844
11.2833
11.2816
11.2786
11.2736
11.265
11.2502
11.2251
11.1821
11.1095
10.9883
10.7909
10.4825
10.0291
9.41603
8.66622
7.8403
7.01241
6.242
5.55716
4.97031
11.2859
11.2859
11.2859
11.2859
11.2859
11.2859
11.2859
11.2859
11.2859
11.2859
11.2859
11.2859
11.2859
11.2859
11.2859
11.2859
11.2858
11.2858
11.2858
11.2858
11.2858
11.2857
11.2856
11.2855
11.2852
11.2848
11.2842
11.283
11.2811
11.2779
11.2726
11.2636
11.2483
11.2226
11.1794
11.107
10.9878
10.7957
10.4982
10.0632
9.47546
8.75329
7.95085
7.13801
6.37346
5.69068
5.09953
4.59603
4.1674
3.80627
11.2859
11.2859
11.2859
11.2859
11.2859
11.2859
11.2859
11.2859
11.2859
11.2859
11.2859
11.2859
11.2858
11.2858
11.2858
11.2858
11.2858
11.2858
11.2857
11.2856
11.2854
11.2851
11.2846
11.2839
11.2826
11.2805
11.277
11.2712
11.2615
11.2453
11.2184
11.1737
11.0999
10.9799
10.7889
10.4964
10.0724
9.5024
8.80238
8.02152
7.22497
6.4695
5.78938
5.1967
4.68907
4.25741
3.89061
3.57894
3.31146
3.08479
11.2859
11.2859
11.2859
11.2859
11.2859
11.2859
11.2859
11.2859
11.2858
11.2858
11.2858
11.2858
11.2858
11.2858
11.2857
11.2856
11.2855
11.2853
11.2849
11.2844
11.2835
11.282
11.2796
11.2756
11.2692
11.2585
11.2409
11.2121
11.1647
11.0877
10.964
10.7701
10.477
10.0572
9.49802
8.81481
8.05333
7.2743
6.53154
5.85865
5.26868
4.76058
4.32642
3.95614
3.64
3.36975
3.13834
2.94115
2.77363
2.63539
11.2859
11.2859
11.2859
11.2859
11.2859
11.2858
11.2858
11.2858
11.2858
11.2858
11.2857
11.2857
11.2856
11.2854
11.2851
11.2847
11.284
11.283
11.2812
11.2784
11.2738
11.2664
11.2544
11.2348
11.2031
11.1518
11.0695
10.9393
10.7383
10.4392
10.0173
9.46249
8.79111
8.04673
7.286
6.55905
5.8977
5.31497
4.81061
4.37759
4.00659
3.68847
3.41528
3.18039
2.97872
2.80681
2.66265
2.54541
2.45303
2.38303
11.2859
11.2858
11.2858
11.2858
11.2858
11.2858
11.2858
11.2857
11.2856
11.2855
11.2853
11.2849
11.2844
11.2835
11.2822
11.2801
11.2767
11.2713
11.2626
11.2487
11.2264
11.1908
11.1339
11.0439
10.904
10.6916
10.3812
9.95119
9.39509
8.73127
8.00209
7.26033
6.55195
5.90609
5.33485
4.83826
4.40997
4.04138
3.72394
3.45006
3.2135
3.00919
2.83353
2.68427
2.56032
2.46085
2.38419
2.32757
2.28697
2.25803
11.2858
11.2858
11.2858
11.2858
11.2857
11.2856
11.2855
11.2853
11.285
11.2846
11.2839
11.2828
11.2812
11.2785
11.2744
11.2678
11.2574
11.241
11.215
11.1739
11.1094
11.0091
10.8556
10.6271
10.3001
9.8565
9.29435
8.63486
7.91973
7.1979
6.5107
5.88392
5.32806
4.84301
4.42289
4.05975
3.74558
3.47329
3.237
3.03186
2.85423
2.70169
2.57295
2.46737
2.384
2.32082
2.27476
2.2422
2.21956
2.20395
2.19265
11.2857
11.2856
11.2855
11.2854
11.2851
11.2847
11.2842
11.2832
11.2818
11.2797
11.2763
11.2711
11.2629
11.2502
11.2303
11.1993
11.1509
11.0762
10.962
10.7907
10.5411
10.192
9.72999
9.15821
8.50119
7.80001
7.0996
6.43624
5.83184
5.29493
4.82489
4.41612
4.06123
3.75282
3.48432
3.25019
3.04593
2.86799
2.71389
2.58216
2.47215
2.38329
2.31431
2.26288
2.22587
2.19996
2.18202
2.16967
2.16104
2.15519
2.15108
11.2854
11.2852
11.2848
11.2843
11.2835
11.2822
11.2804
11.2775
11.2732
11.2664
11.2561
11.2401
11.2155
11.1776
11.1195
11.0313
10.899
10.7047
10.4284
10.0521
9.56779
8.98434
8.32959
7.64359
6.96675
6.33002
5.75113
5.2364
4.78444
4.38988
4.04582
3.74547
3.48277
3.2526
3.05085
2.87413
2.72
2.58689
2.47405
2.38113
2.30737
2.25113
2.20982
2.18044
2.16002
2.14598
2.13645
2.12972
2.12535
2.12256
2.12115
2.12008
11.2836
11.2824
11.2808
11.2782
11.2744
11.2685
11.2597
11.2462
11.2257
11.1946
11.1474
11.0763
10.9703
10.8145
10.5914
10.2826
9.87467
9.36571
8.7706
8.11987
7.45166
6.8013
6.19411
5.64364
5.15389
4.7227
4.34482
4.01387
3.72362
3.46856
3.24404
3.04627
2.87217
2.71937
2.58631
2.47216
2.37659
2.29918
2.23887
2.19367
2.161
2.13803
2.12216
2.11127
2.10396
2.09903
2.09615
2.09409
2.09365
2.09315
2.09329
2.0938
11.2749
11.2696
11.2617
11.2498
11.2319
11.2051
11.1649
11.1051
11.0165
10.8871
10.7016
10.4431
10.0964
9.65364
9.1199
8.51561
7.87273
7.22627
6.60586
6.03116
5.51169
5.0493
4.64111
4.282
3.96607
3.68769
3.4419
3.22451
3.03208
2.86185
2.71162
2.57988
2.46572
2.36882
2.28898
2.22554
2.17704
2.1413
2.11581
2.0981
2.08602
2.07791
2.07238
2.06886
2.06702
2.06615
2.06599
2.06619
2.06699
2.06804
2.06908
2.07018
11.235
11.2107
11.175
11.1222
11.045
10.9331
10.7735
10.5509
10.2505
9.86165
9.3833
8.82765
8.21942
7.59017
6.97045
6.38378
5.84437
5.35811
4.92496
4.54152
4.2028
3.90344
3.63839
3.40323
3.19424
3.00836
2.84312
2.69655
2.56722
2.45422
2.35722
2.27611
2.21049
2.15937
2.12102
2.09328
2.07377
2.06037
2.05132
2.04537
2.04156
2.03949
2.03826
2.03851
2.03877
2.03944
2.04069
2.04215
2.04345
2.04512
2.04678
2.04825
11.0602
10.9593
10.8166
10.6185
10.3512
10.0034
9.57063
9.05952
8.48841
7.88417
7.27584
6.68839
6.13917
5.63747
5.18608
4.78353
4.42604
4.1089
3.82726
3.57666
3.35323
3.15369
2.97537
2.8161
2.67414
2.54817
2.43735
2.34131
2.25997
2.19317
2.14024
2.09985
2.07011
2.04893
2.03429
2.02445
2.01796
2.01377
2.01134
2.01029
2.01014
2.01075
2.01149
2.01293
2.01459
2.01623
2.01799
2.01997
2.02187
2.02377
2.02564
2.02733
10.4086
10.0898
9.69179
9.21769
8.68118
8.10468
7.51447
6.9351
6.38534
5.87679
5.41457
4.9991
4.62787
4.29701
4.00214
3.73899
3.50364
3.29275
3.1035
2.93357
2.78108
2.64452
2.52273
2.41494
2.32078
2.24021
2.17315
2.1192
2.07735
2.04607
2.02352
2.00775
1.99705
1.98999
1.98556
1.98299
1.98182
1.98149
1.98235
1.98336
1.98462
1.9865
1.98848
1.99029
1.99255
1.9948
1.99699
1.99918
2.00132
2.0034
2.00546
2.00734
8.80137
8.25163
7.68266
7.11746
6.5748
6.06734
5.60176
5.17997
4.80071
4.46093
4.15685
3.88452
3.64022
3.4206
3.22281
3.04444
2.88353
2.73847
2.60798
2.49105
2.38701
2.29552
2.21654
2.15007
2.09588
2.05325
2.0209
1.99725
1.98052
1.96911
1.96164
1.95692
1.95413
1.95279
1.95265
1.95331
1.95461
1.95596
1.95802
1.96027
1.96245
1.96472
1.96724
1.96967
1.97214
1.9746
1.977
1.97936
1.98168
1.98394
1.98618
1.98825
6.20271
5.74076
5.31926
4.93791
4.59444
4.28564
4.008
3.75805
3.53263
3.32891
3.14449
2.97738
2.82593
2.68879
2.56489
2.45339
2.3537
2.26553
2.18885
2.12372
2.07002
2.02724
1.99434
1.96997
1.95257
1.94058
1.93267
1.92766
1.92481
1.92354
1.92335
1.92391
1.92542
1.92721
1.92906
1.93155
1.93403
1.9364
1.93917
1.94195
1.94467
1.94739
1.95007
1.95272
1.95532
1.95789
1.96042
1.96292
1.96536
1.96777
1.97004
4.69238
4.3836
4.10477
3.85279
3.62471
3.41788
3.22996
3.05898
2.9033
2.76157
2.63268
2.51576
2.4101
2.31523
2.23092
2.15714
2.09401
2.04146
1.99913
1.96619
1.9415
1.92369
1.91129
1.90309
1.898
1.89505
1.89372
1.89346
1.89425
1.89571
1.89776
1.89974
1.90242
1.90525
1.90792
1.91072
1.91375
1.91671
1.9197
1.92267
1.9256
1.92848
1.93133
1.93414
1.93691
1.93965
1.94235
1.94501
1.94763
1.95021
1.95266
3.69341
3.48637
3.29757
3.12512
2.96743
2.82318
2.69128
2.57083
2.46113
2.36163
2.27195
2.19191
2.12154
2.06093
2.0101
1.96878
1.93632
1.91172
1.89379
1.88123
1.87286
1.86767
1.86468
1.86343
1.86342
1.86419
1.86567
1.86782
1.87039
1.87282
1.87592
1.87891
1.88181
1.8851
1.88839
1.8916
1.89483
1.89802
1.90117
1.90429
1.90737
1.91041
1.91342
1.91639
1.91933
1.92223
1.92509
1.92792
1.9307
1.93345
1.93606
2.87099
2.73801
2.61589
2.50394
2.40162
2.30848
2.22426
2.14883
2.08223
2.0246
1.97597
1.93615
1.90461
1.8805
1.86278
1.8503
1.84193
1.83675
1.83384
1.83267
1.83277
1.83361
1.83528
1.83756
1.84033
1.84294
1.84625
1.84959
1.85273
1.85608
1.85962
1.86306
1.86655
1.87002
1.87344
1.87682
1.88016
1.88346
1.88673
1.88996
1.89316
1.89632
1.89945
1.90254
1.9056
1.90862
1.91161
1.91454
1.91744
1.9202
2.43277
2.33785
2.25119
2.17261
2.10202
2.0395
1.98521
1.93919
1.90128
1.87107
1.84781
1.8306
1.81843
1.81024
1.80519
1.80248
1.80141
1.80167
1.80272
1.80457
1.80691
1.8098
1.81282
1.8161
1.81978
1.82323
1.82664
1.83044
1.83419
1.83789
1.84161
1.84528
1.84891
1.85251
1.85607
1.85959
1.86308
1.86653
1.86994
1.87333
1.87667
1.87999
1.88327
1.88651
1.88972
1.89289
1.89602
1.8991
1.90214
1.90505
2.11747
2.05188
1.99368
1.943
1.8999
1.86427
1.83573
1.81367
1.79724
1.7856
1.77777
1.77297
1.77049
1.76964
1.77011
1.77146
1.7734
1.77594
1.77896
1.78249
1.78569
1.78956
1.79334
1.79699
1.80093
1.80493
1.80884
1.8128
1.81673
1.82062
1.82447
1.82828
1.83205
1.83578
1.83947
1.84313
1.84676
1.85035
1.85391
1.85744
1.86093
1.86439
1.86781
1.8712
1.87455
1.87786
1.88112
1.88434
1.88751
1.89055
1.89826
1.85834
1.82526
1.7987
1.7781
1.76273
1.75183
1.74454
1.74011
1.73795
1.73739
1.73808
1.7397
1.74182
1.7446
1.74777
1.75149
1.755
1.759
1.76318
1.76705
1.77105
1.77529
1.77946
1.78364
1.78783
1.79195
1.79604
1.80009
1.8041
1.80807
1.81201
1.81591
1.81978
1.82361
1.8274
1.83117
1.8349
1.8386
1.84226
1.84589
1.84948
1.85304
1.85656
1.86004
1.86348
1.86687
1.87021
1.8735
1.87666
1.76012
1.74121
1.72711
1.71714
1.71055
1.70663
1.70487
1.70469
1.70563
1.70755
1.70994
1.71295
1.71628
1.7201
1.72411
1.72809
1.73253
1.73671
1.74084
1.74533
1.74978
1.75415
1.75855
1.76291
1.76724
1.77154
1.77579
1.78
1.78416
1.7883
1.7924
1.79646
1.80049
1.80449
1.80845
1.81237
1.81627
1.82013
1.82396
1.82775
1.83151
1.83523
1.83892
1.84256
1.84616
1.84972
1.85323
1.85668
1.86009
1.86336
1.6816
1.67582
1.67253
1.67126
1.67149
1.67277
1.675
1.67774
1.68091
1.68449
1.68851
1.69294
1.69694
1.70155
1.7061
1.71045
1.71506
1.71972
1.7243
1.72894
1.73356
1.73812
1.74263
1.74711
1.75155
1.75596
1.76032
1.76465
1.76893
1.77319
1.77741
1.78159
1.78575
1.78987
1.79395
1.798
1.80202
1.80601
1.80996
1.81387
1.81775
1.82159
1.8254
1.82916
1.83287
1.83654
1.84016
1.84371
1.84722
1.85059
1.63716
1.63785
1.63952
1.64207
1.64516
1.64856
1.65239
1.65658
1.66118
1.66561
1.67035
1.67522
1.67976
1.68445
1.68938
1.69421
1.69904
1.70387
1.70864
1.71339
1.71811
1.72278
1.7274
1.73199
1.73653
1.74105
1.74552
1.74996
1.75436
1.75873
1.76307
1.76737
1.77164
1.77588
1.78009
1.78426
1.78839
1.79249
1.79656
1.80059
1.80458
1.80853
1.81245
1.81631
1.82013
1.8239
1.82762
1.83127
1.83487
1.83833
1.61224
1.61591
1.61999
1.6244
1.6292
1.63399
1.6388
1.6439
1.64878
1.6536
1.65876
1.66383
1.66884
1.67389
1.67889
1.68386
1.68878
1.69367
1.69851
1.70332
1.70809
1.71282
1.71751
1.72216
1.72678
1.73136
1.73591
1.74043
1.74491
1.74935
1.75377
1.75815
1.7625
1.76682
1.7711
1.77534
1.77955
1.78373
1.78787
1.79196
1.79602
1.80003
1.804
1.80791
1.81177
1.81558
1.81931
1.82299
1.82653
1.59197
1.59702
1.60203
1.60709
1.61237
1.61754
1.62256
1.62786
1.63315
1.63835
1.64362
1.64886
1.65403
1.65917
1.66427
1.66933
1.67434
1.67932
1.68426
1.68916
1.69403
1.69885
1.70364
1.7084
1.71312
1.71781
1.72246
1.72708
1.73167
1.73622
1.74075
1.74523
1.74969
1.75411
1.75849
1.76284
1.76715
1.77143
1.77567
1.77986
1.78401
1.78811
1.79217
1.79617
1.80012
1.804
1.80781
1.81156
1.81516
1.57516
1.58064
1.58603
1.59129
1.59671
1.60224
1.60765
1.6131
1.61854
1.62391
1.62926
1.63458
1.63985
1.64507
1.65026
1.6554
1.66051
1.66557
1.6706
1.6756
1.68056
1.68548
1.69037
1.69523
1.70005
1.70483
1.70959
1.71431
1.71899
1.72365
1.72827
1.73286
1.73741
1.74193
1.74641
1.75085
1.75526
1.75963
1.76396
1.76824
1.77248
1.77666
1.7808
1.78488
1.7889
1.79285
1.79673
1.80053
1.80419
1.56536
1.57108
1.57671
1.58234
1.58798
1.59356
1.59911
1.60462
1.61009
1.61552
1.6209
1.62625
1.63156
1.63683
1.64206
1.64725
1.6524
1.65752
1.66261
1.66766
1.67268
1.67766
1.68261
1.68752
1.6924
1.69725
1.70206
1.70685
1.71159
1.71631
1.72099
1.72563
1.73024
1.73481
1.73935
1.74384
1.74829
1.7527
1.75707
1.76138
1.76565
1.76986
1.774
1.77809
1.7821
1.78603
1.78988
1.79359
1.55136
1.55719
1.56298
1.56871
1.57442
1.58009
1.58571
1.59129
1.59683
1.60233
1.60779
1.61322
1.61861
1.62396
1.62927
1.63454
1.63978
1.64499
1.65016
1.6553
1.6604
1.66547
1.67051
1.67551
1.68048
1.68542
1.69032
1.69519
1.70003
1.70483
1.7096
1.71433
1.71902
1.72367
1.72829
1.73286
1.7374
1.74188
1.74632
1.7507
1.75503
1.7593
1.76351
1.76765
1.77171
1.77569
1.77958
1.78332
1.54399
1.54985
1.55566
1.56143
1.56716
1.57285
1.5785
1.58411
1.58969
1.59522
1.60072
1.60619
1.61162
1.61701
1.62236
1.62768
1.63297
1.63823
1.64345
1.64863
1.65379
1.65891
1.66399
1.66905
1.67407
1.67905
1.68401
1.68892
1.6938
1.69865
1.70346
1.70823
1.71296
1.71765
1.7223
1.7269
1.73145
1.73596
1.7404
1.74479
1.74912
1.75338
1.75756
1.76167
1.76568
1.7696
1.77337
1.53134
1.53725
1.54313
1.54896
1.55476
1.56051
1.56623
1.57191
1.57756
1.58316
1.58874
1.59428
1.59978
1.60525
1.61068
1.61608
1.62144
1.62677
1.63207
1.63734
1.64257
1.64777
1.65293
1.65806
1.66316
1.66823
1.67325
1.67825
1.6832
1.68812
1.69301
1.69785
1.70265
1.70741
1.71212
1.71678
1.72139
1.72595
1.73046
1.7349
1.73927
1.74357
1.74779
1.75193
1.75596
1.7599
1.76367
1.52516
1.53109
1.53699
1.54285
1.54867
1.55446
1.5602
1.56592
1.57159
1.57724
1.58284
1.58842
1.59396
1.59946
1.60493
1.61037
1.61578
1.62115
1.62649
1.63179
1.63707
1.6423
1.64751
1.65268
1.65781
1.66291
1.66797
1.673
1.67799
1.68293
1.68784
1.6927
1.69752
1.70229
1.70701
1.71168
1.71629
1.72084
1.72532
1.72973
1.73406
1.7383
1.74246
1.7465
1.75045
1.75422
1.51355
1.51954
1.5255
1.53142
1.5373
1.54315
1.54896
1.55474
1.56048
1.56619
1.57187
1.57751
1.58312
1.58869
1.59423
1.59974
1.60521
1.61065
1.61606
1.62143
1.62677
1.63208
1.63735
1.64259
1.64779
1.65295
1.65808
1.66316
1.66821
1.67322
1.67818
1.6831
1.68797
1.69279
1.69756
1.70228
1.70692
1.71151
1.71602
1.72045
1.72481
1.72906
1.73323
1.73728
1.74123
1.74499
1.5024
1.50845
1.51446
1.52044
1.52638
1.53229
1.53817
1.54401
1.54981
1.55558
1.56132
1.56703
1.5727
1.57833
1.58394
1.58951
1.59505
1.60055
1.60602
1.61146
1.61686
1.62223
1.62756
1.63286
1.63812
1.64334
1.64853
1.65367
1.65878
1.66383
1.66885
1.67382
1.67874
1.6836
1.6884
1.69315
1.69783
1.70244
1.70697
1.71142
1.71579
1.72006
1.72423
1.72828
1.73222
1.73597
1.49168
1.49779
1.50385
1.50989
1.51589
1.52186
1.52779
1.53368
1.53955
1.54538
1.55118
1.55694
1.56267
1.56837
1.57403
1.57967
1.58526
1.59083
1.59636
1.60185
1.60731
1.61274
1.61813
1.62348
1.62879
1.63407
1.6393
1.6445
1.64965
1.65476
1.65981
1.66482
1.66977
1.67467
1.6795
1.68427
1.68898
1.69361
1.69816
1.70263
1.707
1.71128
1.71544
1.71948
1.72339
1.72712
1.48138
1.48753
1.49365
1.49974
1.5058
1.51182
1.5178
1.52375
1.52967
1.53556
1.54141
1.54723
1.55302
1.55877
1.56449
1.57018
1.57583
1.58145
1.58703
1.59258
1.59809
1.60357
1.60901
1.61441
1.61977
1.6251
1.63038
1.63562
1.64081
1.64595
1.65104
1.65608
1.66106
1.66598
1.67084
1.67564
1.68036
1.685
1.68957
1.69404
1.69841
1.70268
1.70683
1.71084
1.71473
1.71842
1.47146
1.47767
1.48384
1.48998
1.49608
1.50215
1.50819
1.51419
1.52016
1.5261
1.532
1.53788
1.54371
1.54952
1.55529
1.56102
1.56673
1.57239
1.57803
1.58362
1.58918
1.59471
1.60019
1.60564
1.61104
1.6164
1.62172
1.62699
1.63221
1.63738
1.64251
1.64757
1.65258
1.65752
1.6624
1.66721
1.67195
1.6766
1.68116
1.68563
1.68999
1.69424
1.69837
1.70236
1.70621
1.70985
1.46192
1.46817
1.47439
1.48057
1.48672
1.49284
1.49892
1.50497
1.51099
1.51698
1.52293
1.52885
1.53473
1.54058
1.5464
1.55218
1.55793
1.56364
1.56932
1.57496
1.58056
1.58612
1.59165
1.59713
1.60256
1.60796
1.6133
1.6186
1.62385
1.62905
1.6342
1.63929
1.64431
1.64927
1.65416
1.65898
1.66372
1.66837
1.67292
1.67738
1.68173
1.68595
1.69005
1.694
1.6978
1.70139
1.45901
1.46527
1.4715
1.4777
1.48386
1.48998
1.49608
1.50214
1.50817
1.51417
1.52013
1.52605
1.53195
1.53781
1.54363
1.54942
1.55517
1.56088
1.56656
1.57219
1.57779
1.58334
1.58885
1.59432
1.59974
1.60512
1.61044
1.61572
1.62094
1.6261
1.6312
1.63624
1.64121
1.6461
1.65092
1.65565
1.66029
1.66484
1.66927
1.67359
1.67779
1.68185
1.68575
1.6895
1.69302
1.45018
1.45648
1.46275
1.46898
1.47518
1.48135
1.48749
1.49359
1.49966
1.50569
1.51169
1.51766
1.52359
1.52949
1.53534
1.54117
1.54695
1.55269
1.55839
1.56406
1.56968
1.57526
1.5808
1.5863
1.59174
1.59714
1.60248
1.60777
1.61301
1.61818
1.62329
1.62833
1.6333
1.6382
1.64301
1.64773
1.65235
1.65688
1.66129
1.66557
1.66973
1.67374
1.67759
1.68127
1.68472
1.44165
1.44799
1.45429
1.46056
1.4668
1.473
1.47918
1.48532
1.49142
1.49749
1.50352
1.50952
1.51548
1.5214
1.52729
1.53314
1.53895
1.54472
1.55045
1.55615
1.56179
1.5674
1.57296
1.57847
1.58393
1.58935
1.5947
1.6
1.60525
1.61042
1.61554
1.62058
1.62554
1.63043
1.63522
1.63993
1.64453
1.64902
1.6534
1.65765
1.66176
1.66571
1.6695
1.67311
1.67647
1.43977
1.44611
1.45242
1.45869
1.46492
1.47113
1.47729
1.48343
1.48952
1.49558
1.50161
1.5076
1.51355
1.51946
1.52534
1.53117
1.53697