/*--------------------------------*- C++ -*----------------------------------*\
| =========                 |                                                 |
| \\      /  F ield         | OpenFOAM: The Open Source CFD Toolbox           |
|  \\    /   O peration     | Version:  v1706                                 |
|   \\  /    A nd           | Web:      www.OpenFOAM.com                      |
|    \\/     M anipulation  |                                                 |
\*---------------------------------------------------------------------------*/
FoamFile
{
    version     2.0;
    format      ascii;
    class       volScalarField;
    location    "1.1e-05";
    object      p;
}
// * * * * * * * * * * * * * * * * * * * * * * * * * * * * * * * * * * * * * //

dimensions      [1 -1 -2 0 0 0 0];


internalField   nonuniform List<scalar> 
30038
(
21.9139
21.9139
21.9139
21.9139
21.9139
21.9139
21.9139
21.9139
21.9139
21.9139
21.9139
21.9139
21.9139
21.9139
21.9139
21.9139
21.9139
21.9139
21.9139
21.9139
21.9139
21.9139
21.9139
21.9139
21.9139
21.9139
21.9139
21.9139
21.9139
21.9139
21.9139
21.9139
21.9139
21.9139
21.9139
21.9139
21.9139
21.9139
21.9139
21.9139
21.9139
21.9139
21.9139
21.9139
21.9139
21.9139
21.9139
21.9139
21.9139
21.9139
21.9139
21.9139
21.9139
21.9139
21.9139
21.9139
21.9139
21.9139
21.9139
21.9139
21.9139
21.9139
21.9139
21.9139
21.9139
21.9139
21.9139
21.9139
21.9139
21.9139
21.9139
21.9139
21.9139
21.9139
21.9139
21.9139
21.9139
21.9139
21.9139
21.9139
21.9139
21.9139
21.9139
21.9139
21.9139
21.9139
21.9139
21.9139
21.9139
21.9139
21.9139
21.9139
21.9139
21.9139
21.9139
21.9139
21.9139
21.9139
21.9139
21.9139
21.9139
21.9139
21.9139
21.9139
21.9139
21.9139
21.9139
21.9139
21.9139
21.9139
21.9139
21.9139
21.9139
21.9139
21.9139
21.9139
21.9139
21.9139
21.9139
21.9139
21.9139
21.9139
21.9139
21.9139
21.9139
21.9139
21.9139
21.9139
21.9139
21.9139
21.9139
21.9139
21.9139
21.9139
21.9139
21.9139
21.9139
21.9139
21.9139
21.9139
21.9139
21.9139
21.9139
21.9139
21.9139
21.9139
21.9139
21.9139
21.9139
21.9139
21.9139
21.9139
21.9139
21.9139
21.9139
21.9139
21.9139
21.9139
21.9139
21.9139
21.9139
21.9139
21.9139
21.9139
21.9139
21.9139
21.9139
21.9139
21.9139
21.9139
21.9139
21.9139
21.9139
21.9139
21.9139
21.9139
21.9139
21.9139
21.9139
21.9139
21.9139
21.9139
21.9139
21.9139
21.9139
21.9139
21.9139
21.9139
21.9139
21.9139
21.9139
21.9139
21.9139
21.9139
21.9139
21.9139
21.9139
21.9139
21.9139
21.9139
21.9139
21.9139
21.9139
21.9139
21.9139
21.9139
21.9139
21.9139
21.9139
21.9139
21.9139
21.9139
21.9139
21.9139
21.9139
21.9139
21.9139
21.9139
21.9139
21.9139
21.9139
21.9139
21.9139
21.9139
21.9139
21.9139
21.9139
21.9139
21.9139
21.9139
21.9139
21.9139
21.9139
21.9139
21.9139
21.9139
21.9139
21.9139
21.9139
21.9139
21.9139
21.9139
21.9139
21.9139
21.9139
21.9139
21.9139
21.9139
21.9139
21.9139
21.9139
21.9139
21.9139
21.9139
21.9139
21.9139
21.9139
21.9139
21.9139
21.9139
21.9139
21.9139
21.9139
21.9139
21.9139
21.9139
21.9139
21.9139
21.9139
21.9139
21.9139
21.9139
21.9139
21.9139
21.9139
21.9139
21.9139
21.9139
21.9139
21.9139
21.9139
21.9139
21.9139
21.9139
21.9139
21.9139
21.9139
21.9139
21.9139
21.9139
21.9139
21.9139
21.9139
21.9139
21.9139
21.9139
21.9139
21.9139
21.9139
21.9139
21.9139
21.9139
21.9139
21.9139
21.9139
21.9139
21.9139
21.9139
21.9139
21.9139
21.9139
21.9139
21.9139
21.9139
21.9139
21.9139
21.9139
21.9139
21.9139
21.9139
21.9139
21.9139
21.9139
21.9139
21.9139
21.9139
21.9139
21.9139
21.9139
21.9139
21.9139
21.9139
21.9139
21.9139
21.9139
21.9139
21.9139
21.9139
21.9139
21.9139
21.9139
21.9139
21.9139
21.9139
21.9139
21.9139
21.9139
21.9139
21.9139
21.9139
21.9139
21.9139
21.9139
21.9139
21.9139
21.9139
21.9139
21.9139
21.9139
21.9139
21.9139
21.9139
21.9139
21.9139
21.9139
21.9139
21.9139
21.9139
21.9139
21.9139
21.9139
21.9139
21.9139
21.9139
21.9139
21.9139
21.9139
21.9139
21.9139
21.9139
21.9139
21.9139
21.9139
21.9139
21.9139
21.9139
21.9139
21.9139
21.9139
21.9139
21.9139
21.9139
21.9139
21.9139
21.9139
21.9139
21.9139
21.9139
21.9139
21.9139
21.9139
21.9139
21.9139
21.9139
21.9139
21.9139
21.9139
21.9139
21.9139
21.9139
21.9139
21.9139
21.9139
21.9139
21.9139
21.9139
21.9139
21.9139
21.9139
21.9139
21.9139
21.9139
21.9139
21.9139
21.9139
21.9139
21.9139
21.9139
21.9139
21.9139
21.9139
21.9139
21.9139
21.9139
21.9139
21.9139
21.9139
21.9139
21.9139
21.9139
21.9139
21.9139
21.9139
21.9139
21.9139
21.9139
21.9139
21.9139
21.9139
21.9139
21.9139
21.9139
21.9139
21.9139
21.9139
21.9139
21.9139
21.9139
21.9139
21.9139
21.9139
21.9139
21.9139
21.9139
21.9139
21.9139
21.9139
21.9139
21.9139
21.9139
21.9139
21.9139
21.9139
21.9139
21.9139
21.9139
21.9139
21.9139
21.9139
21.9139
21.9139
21.9139
21.9139
21.9139
21.9139
21.9139
21.9139
21.9139
21.9139
21.9139
21.9139
21.9139
21.9139
21.9139
21.9139
21.9139
21.9139
21.9139
21.9139
21.9139
21.9139
21.9139
21.9139
21.9139
21.9139
21.9139
21.9139
21.9139
21.9139
21.9139
21.9139
21.9139
21.9139
21.9139
21.9139
21.9139
21.9139
21.9139
21.9139
21.9139
21.9139
21.9139
21.9139
21.9139
21.9139
21.9139
21.9139
21.9139
21.9139
21.9139
21.9139
21.9139
21.9139
21.9139
21.9139
21.9139
21.9139
21.9139
21.9139
21.9139
21.9139
21.9139
21.9139
21.9139
21.9139
21.9139
21.9139
21.9139
21.9139
21.9139
21.9139
21.9139
21.9139
21.9139
21.9139
21.9139
21.9139
21.9139
21.9139
21.9139
21.9139
21.9139
21.9139
21.9139
21.9139
21.9139
21.9139
21.9139
21.9139
21.9139
21.9139
21.9139
21.9139
21.9139
21.9139
21.9139
21.9139
21.9139
21.9139
21.9139
21.9139
21.9139
21.9139
21.9139
21.9139
21.9139
21.9139
21.9139
21.9139
21.9139
21.9139
21.9139
21.9139
21.9139
21.9139
21.9139
21.9139
21.9139
21.9139
21.9139
21.9139
21.9139
21.9139
21.9139
21.9139
21.9139
21.9139
21.9139
21.9139
21.9139
21.9139
21.9139
21.9139
21.9139
21.9139
21.9139
21.9139
21.9139
21.9139
21.9139
21.9139
21.9139
21.9139
21.9139
21.9139
21.9139
21.9139
21.9139
21.9139
21.9139
21.9139
21.9139
21.9139
21.9139
21.9139
21.9139
21.9139
21.9139
21.9139
21.9139
21.9139
21.9139
21.9139
21.9139
21.9139
21.9139
21.9139
21.9139
21.9139
21.9139
21.9139
21.9139
21.9139
21.9139
21.9139
21.9139
21.9139
21.9139
21.9139
21.9139
21.9139
21.9139
21.9139
21.9139
21.9139
21.9139
21.9139
21.9139
21.9139
21.9139
21.9139
21.9139
21.9139
21.9139
21.9139
21.9139
21.9139
21.9139
21.9139
21.9139
21.9139
21.9139
21.9139
21.9139
21.9139
21.9139
21.9139
21.9139
21.9139
21.9139
21.9139
21.9139
21.9139
21.9139
21.9139
21.9139
21.9139
21.9139
21.9139
21.9139
21.9139
21.9139
21.9139
21.9139
21.9139
21.9139
21.9139
21.9139
21.9139
21.9139
21.9139
21.9139
21.9139
21.9139
21.9139
21.9139
21.9139
21.9139
21.9139
21.9139
21.9139
21.9139
21.9139
21.9139
21.9139
21.9139
21.9139
21.9139
21.9139
21.9139
21.9139
21.9139
21.9139
21.9139
21.9139
21.9139
21.9139
21.9139
21.9139
21.9139
21.9139
21.9139
21.9139
21.9139
21.9139
21.9139
21.9139
21.9139
21.9139
21.9139
21.9139
21.9139
21.9139
21.9139
21.9139
21.9139
21.9139
21.9139
21.9139
21.9139
21.9139
21.9139
21.9139
21.9139
21.9139
21.9139
21.9139
21.9139
21.9139
21.9139
21.9139
21.9139
21.9139
21.9139
21.9139
21.9139
21.9139
21.9139
21.9139
21.9139
21.9139
21.9139
21.9139
21.9139
21.9139
21.9139
21.9139
21.9139
21.9139
21.9139
21.9139
21.9139
21.9139
21.9139
21.9139
21.9139
21.9139
21.9139
21.9139
21.9139
21.9139
21.9139
21.9139
21.9139
21.9139
21.9139
21.9139
21.9139
21.9139
21.9139
21.9139
21.9139
21.9139
21.9139
21.9139
21.9139
21.9139
21.9139
21.9139
21.9139
21.9139
21.9139
21.9139
21.9139
21.9139
21.9139
21.9139
21.9139
21.9139
21.9139
21.9139
21.9139
21.9139
21.9139
21.9139
21.9139
21.9139
21.9139
21.9139
21.9139
21.9139
21.9139
21.9139
21.9139
21.9139
21.9139
21.9139
21.9139
21.9139
21.9139
21.9139
21.9139
21.9139
21.9139
21.9139
21.9139
21.9139
21.9139
21.9139
21.9139
21.9139
21.9139
21.9139
21.9139
21.9139
21.9139
21.9139
21.9139
21.9139
21.9139
21.9139
21.9139
21.9139
21.9139
21.9139
21.9139
21.9139
21.9139
21.9139
21.9139
21.9139
21.9139
21.9139
21.9139
21.9139
21.9139
21.9139
21.9139
21.9139
21.9139
21.9139
21.9139
21.9139
21.9139
21.9139
21.9139
21.9139
21.9139
21.9139
21.9139
21.9139
21.9139
21.9139
21.9139
21.9139
21.9139
21.9139
21.9139
21.9139
21.9139
21.9139
21.9139
21.9139
21.9139
21.9139
21.9139
21.9139
21.9139
21.9139
21.9139
21.9139
21.9139
21.9139
21.9139
21.9139
21.9139
21.9139
21.9139
21.9139
21.9139
21.9139
21.9139
21.9139
21.9139
21.9139
21.9139
21.9139
21.9139
21.9139
21.9139
21.9139
21.9139
21.9139
21.9139
21.9139
21.9139
21.9139
21.9139
21.9139
21.9139
21.9139
21.9139
21.9139
21.9139
21.9139
21.9139
21.9139
21.9139
21.9139
21.9139
21.9139
21.9139
21.9139
21.9139
21.9139
21.9139
21.9139
21.9139
21.9139
21.9139
21.9139
21.9139
21.9139
21.9139
21.9139
21.9139
21.9139
21.9139
21.9139
21.9139
21.9139
21.9139
21.9139
21.9139
21.9139
21.9139
21.9139
21.9139
21.9139
21.9139
21.9139
21.9139
21.9139
21.9139
21.9139
21.9139
21.9139
21.9139
21.9139
21.9139
21.9139
21.9139
21.9139
21.9139
21.9139
21.9139
21.9139
21.9139
21.9139
21.9139
21.9139
21.9139
21.9139
21.9139
21.9139
21.9139
21.9139
21.9139
21.9139
21.9139
21.9139
21.9139
21.9139
21.9139
21.9139
21.9139
21.9139
21.9139
21.9139
21.9139
21.9139
21.9139
21.9139
21.9139
21.9139
21.9139
21.9139
21.9139
21.9139
21.9139
21.9139
21.9139
21.9139
21.9139
21.9139
21.9139
21.9139
21.9139
21.9139
21.9139
21.9139
21.9139
21.9139
21.9139
21.9139
21.9139
21.9139
21.9139
21.9139
21.9139
21.9139
21.9139
21.9139
21.9139
21.9139
21.9139
21.9139
21.9139
21.9139
21.9139
21.9139
21.9139
21.9139
21.9139
21.9139
21.9139
21.9139
21.9139
21.9139
21.9139
21.9139
21.9139
21.9139
21.9139
21.9139
21.9139
21.9139
21.9139
21.9139
21.9139
21.9139
21.9139
21.9139
21.9139
21.9139
21.9139
21.9139
21.9139
21.9139
21.9139
21.9139
21.9139
21.9139
21.9139
21.9139
21.9139
21.9139
21.9139
21.9139
21.9139
21.9139
21.9139
21.9139
21.9139
21.9139
21.9139
21.9139
21.9139
21.9139
21.9139
21.9139
21.9139
21.9139
21.9139
21.9139
21.9139
21.9139
21.9139
21.9139
21.9139
21.9139
21.9139
21.9139
21.9139
21.9139
21.9139
21.9139
21.9139
21.9139
21.9139
21.9139
21.9139
21.9139
21.9139
21.9139
21.9139
21.9139
21.9139
21.9139
21.9139
21.9139
21.9139
21.9139
21.9139
21.9139
21.9139
21.9139
21.9139
21.9139
21.9139
21.9139
21.9139
21.9139
21.9139
21.9139
21.9139
21.9139
21.9139
21.9139
21.9139
21.9139
21.9139
21.9139
21.9139
21.9139
21.9139
21.9139
21.9139
21.9139
21.9139
21.9139
21.9139
21.9139
21.9139
21.9139
21.9139
21.9139
21.9139
21.9139
21.9139
21.9139
21.914
21.9139
21.9139
21.9139
21.9139
21.9139
21.9139
21.9139
21.9139
21.9139
21.9139
21.9139
21.9139
21.9139
21.9139
21.9139
21.9139
21.9139
21.9139
21.9139
21.9139
21.9139
21.9139
21.9139
21.9139
21.9139
21.9139
21.9139
21.9139
21.9139
21.9139
21.9139
21.9139
21.9139
21.9139
21.9139
21.9139
21.9139
21.9139
21.9139
21.9139
21.9139
21.9139
21.9139
21.9139
21.9139
21.9139
21.914
21.914
21.9142
21.9144
21.9139
21.9139
21.9139
21.9139
21.9139
21.9139
21.9139
21.9139
21.9139
21.9139
21.9139
21.9139
21.9139
21.9139
21.9139
21.9139
21.9139
21.9139
21.9139
21.9139
21.9139
21.9139
21.9139
21.9139
21.9139
21.9139
21.9139
21.9139
21.9139
21.9139
21.9139
21.9139
21.9139
21.9139
21.9139
21.9139
21.9139
21.9139
21.9139
21.9139
21.9139
21.9139
21.9139
21.914
21.914
21.9141
21.9143
21.9147
21.9154
21.9168
21.9139
21.9139
21.9139
21.9139
21.9139
21.9139
21.9139
21.9139
21.9139
21.9139
21.9139
21.9139
21.9139
21.9139
21.9139
21.9139
21.9139
21.9139
21.9139
21.9139
21.9139
21.9139
21.9139
21.9139
21.9139
21.9139
21.9139
21.9139
21.9139
21.9139
21.9139
21.9139
21.9139
21.9139
21.9139
21.9139
21.9139
21.9139
21.9139
21.9139
21.914
21.914
21.9141
21.9143
21.9147
21.9153
21.9165
21.9186
21.9225
21.9304
21.9139
21.9139
21.9139
21.9139
21.9139
21.9139
21.9139
21.9139
21.9139
21.9139
21.9139
21.9139
21.9139
21.9139
21.9139
21.9139
21.9139
21.9139
21.9139
21.9139
21.9139
21.9139
21.9139
21.9139
21.9139
21.9139
21.9139
21.9139
21.9139
21.9139
21.9139
21.9139
21.9139
21.9139
21.9139
21.9139
21.9139
21.914
21.914
21.9142
21.9144
21.9147
21.9153
21.9164
21.9184
21.922
21.9285
21.9404
21.9624
22.0056
21.9139
21.9139
21.9139
21.9139
21.9139
21.9139
21.9139
21.9139
21.9139
21.9139
21.9139
21.9139
21.9139
21.9139
21.9139
21.9139
21.9139
21.9139
21.9139
21.9139
21.9139
21.9139
21.9139
21.9139
21.9139
21.9139
21.9139
21.9139
21.9139
21.9139
21.9139
21.9139
21.9139
21.914
21.914
21.9141
21.9142
21.9144
21.9147
21.9154
21.9165
21.9184
21.9219
21.9281
21.9392
21.9592
21.9952
22.0604
22.1801
22.4102
21.9139
21.9139
21.9139
21.9139
21.9139
21.9139
21.9139
21.9139
21.9139
21.9139
21.9139
21.9139
21.9139
21.9139
21.9139
21.9139
21.9139
21.9139
21.9139
21.9139
21.9139
21.9139
21.9139
21.9139
21.9139
21.9139
21.9139
21.9139
21.9139
21.9139
21.914
21.914
21.9141
21.9142
21.9144
21.9148
21.9154
21.9166
21.9185
21.922
21.9281
21.9389
21.958
21.9919
22.0524
22.1603
22.3534
22.6987
23.3185
24.4558
21.9139
21.9139
21.9139
21.9139
21.9139
21.9139
21.9139
21.9139
21.9139
21.9139
21.9139
21.9139
21.9139
21.9139
21.9139
21.9139
21.9139
21.9139
21.9139
21.9139
21.9139
21.9139
21.9139
21.9139
21.9139
21.9139
21.9139
21.914
21.914
21.9141
21.9142
21.9145
21.9149
21.9155
21.9167
21.9188
21.9223
21.9284
21.9391
21.9579
21.9908
22.0487
22.1507
22.3306
22.6476
23.2041
24.1729
25.835
28.6263
33.217
21.9139
21.9139
21.9139
21.9139
21.9139
21.9139
21.9139
21.9139
21.9139
21.9139
21.9139
21.9139
21.9139
21.9139
21.9139
21.9139
21.9139
21.9139
21.9139
21.9139
21.9139
21.9139
21.9139
21.9139
21.914
21.914
21.9141
21.9143
21.9145
21.915
21.9157
21.917
21.9191
21.9228
21.9292
21.9401
21.959
21.9917
22.0486
22.1476
22.3199
22.6199
23.1402
24.0353
25.5526
28.0643
32.0836
38.2436
47.2455
59.8523
21.9139
21.9139
21.9139
21.9139
21.9139
21.9139
21.9139
21.9139
21.9139
21.9139
21.9139
21.9139
21.9139
21.9139
21.9139
21.9139
21.9139
21.9139
21.9139
21.9139
21.914
21.914
21.9141
21.9142
21.9143
21.9146
21.9151
21.916
21.9174
21.9197
21.9237
21.9304
21.9418
21.9614
21.9948
22.0521
22.1506
22.3201
22.6114
23.1105
23.9594
25.3836
27.7203
31.4336
37.0947
45.3218
56.6999
71.7357
90.8311
114.653
21.9139
21.9139
21.9139
21.9139
21.9139
21.9139
21.9139
21.9139
21.9139
21.9139
21.9139
21.9139
21.9139
21.9139
21.9139
21.9139
21.9139
21.914
21.914
21.9141
21.9142
21.9144
21.9148
21.9154
21.9163
21.9179
21.9205
21.9248
21.9322
21.9444
21.9651
22.0001
22.0594
22.16
22.3309
22.621
23.1121
23.9372
25.306
27.5298
31.0355
36.3499
44.0461
54.6682
68.6741
86.4255
108.224
134.434
165.506
202.922
21.9139
21.9139
21.9139
21.9139
21.9139
21.9139
21.9139
21.9139
21.9139
21.9139
21.9139
21.9139
21.9139
21.914
21.914
21.9141
21.9142
21.9143
21.9146
21.915
21.9157
21.9168
21.9186
21.9216
21.9265
21.9346
21.9481
21.9707
22.0082
22.0711
22.1765
22.3532
22.6495
23.1445
23.9662
25.3129
27.4765
30.8541
35.9347
43.2514
53.3135
66.5522
83.3077
103.855
128.47
157.537
191.64
231.535
277.663
334.588
21.9139
21.9139
21.9139
21.9139
21.9139
21.9139
21.9139
21.9139
21.9139
21.914
21.914
21.914
21.9141
21.9142
21.9144
21.9148
21.9153
21.9161
21.9174
21.9196
21.923
21.9287
21.938
21.9533
21.9784
22.0197
22.0881
22.2012
22.3886
22.6987
23.2102
24.0481
25.404
27.5555
30.8763
35.8225
42.8902
52.5536
65.2149
81.1911
100.739
124.098
151.572
183.653
220.967
264.198
314.516
374.78
447.88
542.85
21.9139
21.9139
21.9139
21.9139
21.9139
21.9139
21.914
21.914
21.9141
21.9142
21.9144
21.9146
21.915
21.9157
21.9167
21.9183
21.9209
21.9251
21.9318
21.9427
21.9604
21.989
22.0357
22.1118
22.2363
22.4399
22.7724
23.3137
24.1886
25.5849
27.7707
31.101
36.0036
42.9391
52.3458
64.5945
79.9762
98.7274
121.064
147.246
177.669
212.947
253.697
300.763
355.933
422.435
503.904
603.111
717.252
847.269
21.9139
21.9139
21.914
21.914
21.9141
21.9142
21.9143
21.9145
21.9149
21.9154
21.9162
21.9175
21.9196
21.9228
21.9279
21.9361
21.9492
21.9701
22.0036
22.0576
22.1445
22.2849
22.5114
22.8767
23.4631
24.3976
25.8674
28.1346
31.5392
36.4837
43.395
52.6753
64.6623
79.6207
97.7647
119.296
144.439
173.521
207.078
245.739
290.174
341.582
402.475
476.369
566.357
673.216
793.187
918.792
1037.65
1144.94
21.914
21.9141
21.9141
21.9143
21.9145
21.9148
21.9152
21.9159
21.917
21.9187
21.9213
21.9255
21.9319
21.9421
21.9581
21.9835
22.0237
22.0876
22.1893
22.3514
22.6095
23.0202
23.6702
24.6907
26.2709
28.6696
32.2145
37.2847
44.2742
53.5486
65.4117
80.0999
97.8041
118.708
143.014
171.001
203.114
239.991
282.241
330.73
387.287
454.979
537.147
635.71
749.326
872.148
995.015
1107.33
1201.77
1273.45
1324.17
21.9144
21.9147
21.9151
21.9158
21.9167
21.9182
21.9205
21.9239
21.9293
21.9376
21.9506
21.9708
22.0023
22.0516
22.1291
22.2509
22.4424
22.7435
23.2158
23.9523
25.0904
26.8237
29.4092
33.1638
38.4437
45.6098
54.9902
66.8539
81.4078
98.8212
119.26
142.913
170.029
200.983
236.373
276.808
322.977
376.164
438.891
514.399
605.288
711.808
830.325
953.314
1070.97
1174.34
1257.49
1318.81
1359.51
1383.46
1395.08
21.9157
21.9166
21.9179
21.92
21.9231
21.9278
21.9349
21.9459
21.9628
21.9888
22.0289
22.0909
22.187
22.3362
22.5678
22.927
23.482
24.3342
25.6291
27.5657
30.4007
34.4395
40.0146
47.4531
57.0446
69.0231
83.5675
100.826
120.95
144.12
170.557
200.594
234.747
273.649
317.903
368.448
427.257
497.281
581.405
680.916
794.002
914.922
1035.14
1145.23
1238.18
1309.84
1361.03
1392.77
1411.2
1418.01
1420.7
1423.19
21.9227
21.927
21.9335
21.9433
21.9581
21.9806
22.0148
22.067
22.1467
22.2688
22.4558
22.7421
23.1798
23.8457
24.8512
26.3514
28.5519
31.7076
36.1114
42.0699
49.8746
59.7767
71.9753
86.6233
103.85
123.792
146.62
172.543
201.857
235.01
272.635
315.305
363.77
419.514
485.107
563.446
656.461
763.676
881.121
1001.55
1116.06
1216.58
1298.09
1358.74
1399.94
1424.15
1437.05
1440.52
1443.41
1444.01
1441.26
1433.92
21.9559
21.9764
22.007
22.0531
22.1226
22.2275
22.3859
22.6253
22.9868
23.531
24.3454
25.553
27.3195
29.8559
33.414
38.2701
44.7023
52.9646
63.2695
75.7833
90.6343
107.935
127.812
150.427
175.983
204.751
237.129
273.715
315.093
361.892
415.234
477.285
550.807
638.066
739.511
852.632
971.573
1088.35
1194.61
1284.23
1353.81
1403.79
1435.72
1453.88
1461.36
1463.54
1465.97
1464.74
1459.87
1451.33
1440.14
1426.1
22.1105
22.205
22.3459
22.5559
22.8689
23.3344
24.0236
25.0367
26.5095
28.6176
31.5756
35.6275
41.029
48.0253
56.8318
67.6239
80.5369
95.6784
113.148
133.065
155.586
180.911
209.291
241.09
276.851
317.176
362.626
414.09
473.346
542.937
625.253
721.352
829.839
946.224
1063.47
1173.54
1269.49
1347.26
1405.36
1445.11
1468.86
1481.52
1485.05
1486.96
1487.81
1485.1
1478.54
1468.54
1456.43
1442.29
1427.67
1412.01
22.8064
23.2233
23.8334
24.7206
25.999
27.8172
30.3588
33.8372
38.4829
44.5251
52.1733
61.6041
72.9578
86.3438
101.853
119.576
139.627
162.161
187.375
215.504
246.889
282.024
321.518
365.895
415.896
472.968
539.405
617.586
708.938
812.871
926.045
1042.44
1154.63
1255.45
1339.89
1405.38
1452.45
1482.84
1499.94
1507.02
1508.93
1510.87
1509.46
1504.58
1496.51
1485.69
1472.77
1458.36
1443.51
1428.28
1413.25
1397.58
25.7139
27.3444
29.6077
32.691
36.7997
42.1437
48.9204
57.3015
67.4266
79.4059
93.3275
109.27
127.319
147.586
170.226
195.435
223.439
254.558
289.254
328.128
371.682
420.555
475.942
539.89
614.69
701.956
801.663
911.375
1026.08
1139.01
1243.1
1332.74
1404.86
1458.65
1495.33
1517.32
1528.78
1531.85
1533.17
1533.64
1530.63
1524.14
1514.6
1503.01
1489.26
1474.65
1459.69
1444.49
1429.32
1414.13
1399.27
1383.86
35.8024
40.6572
46.8022
54.3995
63.5833
74.4604
87.1162
101.624
118.054
136.49
157.046
179.878
205.182
233.18
264.176
298.604
337.049
380.003
428.03
482.143
544.167
616.268
700.123
796.076
902.368
1014.85
1127.46
1233.5
1327.13
1404.61
1464.22
1506.77
1534.2
1549.38
1555.15
1556.64
1558.02
1556.08
1550.92
1542.96
1532.47
1519.95
1505.87
1491.26
1476.19
1460.97
1445.79
1430.66
1415.65
1400.67
1386
1370.8
71.206
82.877
96.2467
111.379
128.341
147.219
168.131
191.236
216.731
244.834
275.836
310.153
348.345
390.901
438.333
491.524
552.11
622.116
703.21
795.94
899.044
1009.07
1120.66
1227.55
1323.86
1405.45
1470.18
1518.06
1550.36
1569.4
1578.68
1580.99
1581.83
1581.5
1577.91
1571.22
1561.85
1550.5
1537.05
1522.7
1507.94
1492.85
1477.7
1462.55
1447.45
1432.43
1417.48
1402.64
1387.82
1373.3
1358.26
122.753
140.286
159.655
180.985
204.44
230.215
258.524
289.651
324.003
362.116
404.468
451.534
504.115
563.686
632.134
711.064
801.12
901.377
1008.92
1119.02
1225.89
1323.79
1408.41
1477.25
1529.47
1566.24
1589.46
1601.77
1605.84
1606.77
1607.31
1604.57
1598.84
1590.76
1580.42
1568.14
1554.29
1539.88
1524.95
1509.82
1494.68
1479.55
1464.48
1449.48
1434.54
1419.67
1404.87
1390.16
1375.46
1361.05
1346.15
195.768
219.644
245.783
274.396
305.765
340.293
378.5
420.839
467.756
519.998
578.928
646.298
723.615
811.537
909.34
1014.52
1122.86
1229.05
1327.62
1414.24
1486.07
1541.94
1582.64
1609.5
1624.58
1631.2
1632.54
1632.75
1631.36
1626.99
1619.81
1610.35
1599.1
1585.83
1571.69
1557.11
1542.15
1527.07
1511.95
1496.84
1481.79
1466.79
1451.86
1436.98
1422.16
1407.41
1392.71
1378.11
1363.52
1349.2
1334.43
324.362
359.209
397.678
440.186
487.156
539.309
597.935
664.661
740.87
827.169
922.93
1025.94
1132.39
1237.42
1335.91
1423.52
1497.37
1556.1
1599.88
1629.84
1647.86
1656.82
1658.92
1659.1
1658.63
1654.91
1648.36
1640
1629.66
1617.37
1603.67
1589.44
1574.65
1559.61
1544.55
1529.46
1514.39
1499.36
1484.38
1469.44
1454.56
1439.72
1424.94
1410.22
1395.56
1380.95
1366.44
1351.95
1337.72
1323.08
462.712
509.932
562.242
620.885
687.367
762.921
848.057
942.168
1043.24
1147.77
1251.29
1349.05
1436.82
1511.81
1572.44
1618.47
1651.05
1671.76
1682.47
1686.01
1686.38
1685.97
1683.14
1677.58
1669.87
1660.21
1648.85
1635.61
1621.68
1607.24
1592.39
1577.4
1562.33
1547.25
1532.21
1517.2
1502.23
1487.3
1472.4
1457.56
1442.75
1428
1413.29
1398.65
1384.07
1369.55
1355.12
1340.73
1326.59
1312.07
648.02
714.633
789.946
874.333
967.155
1066.49
1169.11
1270.84
1367.34
1454.56
1529.81
1591.47
1639.08
1673.59
1696.26
1708.7
1713.8
1714.43
1713.71
1711.75
1706.91
1699.59
1690.78
1680.14
1667.66
1654.06
1639.96
1625.27
1610.38
1595.41
1580.37
1565.33
1550.31
1535.31
1520.34
1505.41
1490.52
1475.66
1460.83
1446.05
1431.31
1416.62
1401.99
1387.42
1372.92
1358.48
1344.14
1329.84
1315.8
1301.4
906.186
998.026
1095.82
1196.51
1296.24
1390.99
1477.01
1551.7
1613.6
1662.04
1697.73
1721.88
1735.98
1742.03
1743.11
1742.47
1740.87
1736.57
1729.69
1721.36
1711.39
1699.67
1686.52
1672.73
1658.35
1643.58
1628.68
1613.69
1598.68
1583.67
1568.68
1553.7
1538.74
1523.81
1508.9
1494.03
1479.19
1464.38
1449.61
1434.88
1420.2
1405.58
1391.01
1376.51
1362.09
1347.73
1333.49
1319.28
1305.33
1291.05
1230.06
1327.57
1420.14
1504.36
1577.79
1639.12
1687.63
1723.77
1748.91
1764.11
1770.95
1772.69
1772.16
1770.27
1766.63
1760.35
1752.23
1742.86
1731.87
1719.08
1705.54
1691.48
1676.91
1662.15
1647.27
1632.29
1617.29
1602.29
1587.31
1572.36
1557.41
1542.48
1527.57
1512.68
1497.82
1482.98
1468.19
1453.42
1438.7
1424.03
1409.41
1394.85
1380.35
1365.92
1351.57
1337.3
1323.14
1309.02
1295.17
1281.01
1536.68
1608.22
1668.23
1716.08
1752.1
1777.57
1793.36
1800.85
1802.93
1802.48
1800.39
1797.21
1791.42
1783.35
1774.42
1763.93
1751.68
1738.51
1724.84
1710.47
1695.79
1680.99
1666.08
1651.15
1636.19
1621.22
1606.25
1591.29
1576.35
1561.42
1546.51
1531.61
1516.73
1501.87
1487.04
1472.24
1457.48
1442.77
1428.09
1413.47
1398.91
1384.41
1369.98
1355.62
1341.35
1327.16
1313.08
1299.06
1285.3
1271.26
1747.52
1782.82
1808.03
1823.94
1831.78
1834.01
1833.63
1831.6
1828.16
1822.86
1814.93
1806.22
1796.28
1784.6
1771.65
1758.18
1744.07
1729.58
1714.95
1700.14
1685.24
1670.3
1655.36
1640.42
1625.47
1610.53
1595.58
1580.65
1565.72
1550.81
1535.91
1521.04
1506.18
1491.35
1476.55
1461.79
1447.07
1432.39
1417.77
1403.2
1388.69
1374.25
1359.89
1345.6
1331.41
1317.3
1303.31
1289.39
1275.71
1261.8
1863.75
1866.03
1865.57
1863.53
1859.82
1854.84
1847.26
1838.37
1828.74
1817.66
1804.94
1791.74
1777.95
1763.6
1749.06
1734.34
1719.53
1704.67
1689.77
1674.84
1659.91
1644.97
1630.03
1615.1
1600.16
1585.23
1570.3
1555.38
1540.48
1525.6
1510.74
1495.9
1481.1
1466.33
1451.6
1436.92
1422.29
1407.72
1393.2
1378.75
1364.37
1350.08
1335.86
1321.74
1307.72
1293.81
1279.98
1266.4
1252.6
1896.17
1892.24
1887.2
1880.01
1871.05
1861.57
1850.84
1838.41
1825.39
1811.97
1797.8
1783.38
1768.8
1754.06
1739.25
1724.4
1709.51
1694.62
1679.7
1664.77
1649.83
1634.89
1619.95
1605.01
1590.07
1575.14
1560.21
1545.3
1530.41
1515.54
1500.7
1485.89
1471.11
1456.38
1441.68
1427.04
1412.45
1397.93
1383.46
1369.07
1354.76
1340.53
1326.38
1312.34
1298.39
1284.58
1270.84
1257.35
1243.67
1913.19
1904.18
1894.71
1884.28
1872.23
1859.32
1846.11
1832.14
1817.84
1803.43
1788.8
1774.07
1759.28
1744.44
1729.57
1714.68
1699.78
1684.86
1669.93
1654.99
1640.03
1625.08
1610.13
1595.18
1580.24
1565.3
1550.38
1535.47
1520.59
1505.74
1490.91
1476.12
1461.37
1446.67
1432.01
1417.41
1402.87
1388.39
1373.98
1359.65
1345.39
1331.23
1317.16
1303.19
1289.33
1275.59
1261.95
1248.55
1234.98
1906.3
1893.48
1880.43
1866.74
1852.55
1838.26
1823.74
1809.07
1794.37
1779.59
1764.78
1749.93
1735.05
1720.15
1705.24
1690.31
1675.37
1660.41
1645.45
1630.48
1615.51
1600.54
1585.58
1570.63
1555.7
1540.78
1525.88
1511.01
1496.17
1481.37
1466.6
1451.88
1437.21
1422.59
1408.02
1393.53
1379.1
1364.74
1350.46
1336.27
1322.17
1308.17
1294.28
1280.5
1266.85
1253.3
1239.99
1226.54
1901.54
1887.46
1873.28
1858.9
1844.33
1829.7
1814.99
1800.22
1785.42
1770.59
1755.72
1740.84
1725.92
1710.99
1696.04
1681.08
1666.11
1651.13
1636.14
1621.15
1606.16
1591.18
1576.21
1561.26
1546.32
1531.4
1516.51
1501.66
1486.83
1472.05
1457.31
1442.62
1427.98
1413.39
1398.87
1384.42
1370.04
1355.73
1341.52
1327.39
1313.35
1299.42
1285.61
1271.91
1258.35
1244.89
1231.68
1218.35
1879.79
1865.24
1850.62
1835.91
1821.17
1806.39
1791.55
1776.7
1761.82
1746.91
1731.97
1717.02
1702.04
1687.06
1672.06
1657.05
1642.04
1627.03
1612.02
1597.02
1582.03
1567.05
1552.09
1537.16
1522.25
1507.37
1492.52
1477.72
1462.96
1448.24
1433.58
1418.97
1404.42
1389.95
1375.54
1361.2
1346.95
1332.79
1318.73
1304.76
1290.9
1277.16
1263.55
1250.08
1236.71
1223.6
1210.39
1871.84
1857.16
1842.43
1827.65
1812.84
1797.99
1783.1
1768.19
1753.25
1738.29
1723.31
1708.31
1693.29
1678.27
1663.24
1648.2
1633.16
1618.13
1603.1
1588.09
1573.08
1558.1
1543.14
1528.21
1513.31
1498.44
1483.61
1468.82
1454.08
1439.39
1424.76
1410.18
1395.67
1381.24
1366.87
1352.59
1338.39
1324.29
1310.29
1296.39
1282.61
1268.95
1255.42
1242.04
1228.77
1215.75
1202.65
1849.23
1834.43
1819.58
1804.7
1789.79
1774.84
1759.87
1744.87
1729.86
1714.83
1699.78
1684.73
1669.66
1654.6
1639.53
1624.47
1609.42
1594.38
1579.35
1564.34
1549.35
1534.39
1519.47
1504.57
1489.71
1474.9
1460.13
1445.41
1430.75
1416.15
1401.61
1387.13
1372.74
1358.42
1344.19
1330.05
1316.01
1302.07
1288.25
1274.54
1260.96
1247.51
1234.21
1221.03
1208.1
1195.1
1841.48
1826.6
1811.68
1796.73
1781.75
1766.74
1751.71
1736.66
1721.6
1706.52
1691.43
1676.34
1661.24
1646.14
1631.05
1615.97
1600.9
1585.84
1570.8
1555.79
1540.8
1525.84
1510.92
1496.03
1481.19
1466.39
1451.64
1436.95
1422.31
1407.74
1393.23
1378.8
1364.45
1350.18
1336
1321.92
1307.94
1294.07
1280.31
1266.67
1253.16
1239.78
1226.56
1213.47
1200.64
1187.77
1833.88
1818.93
1803.94
1788.92
1773.87
1758.8
1743.72
1728.62
1713.5
1698.38
1683.25
1668.12
1652.99
1637.87
1622.75
1607.65
1592.56
1577.49
1562.45
1547.43
1532.44
1517.48
1502.56
1487.69
1472.86
1458.07
1443.35
1428.68
1414.07
1399.53
1385.07
1370.68
1356.37
1342.16
1328.03
1314
1300.07
1286.25
1272.55
1258.98
1245.54
1232.25
1219.12
1206.13
1193.39
1180.63
1826.43
1811.4
1796.34
1781.25
1766.14
1751.02
1735.88
1720.72
1705.56
1690.4
1675.23
1660.07
1644.91
1629.76
1614.62
1599.5
1584.4
1569.32
1554.27
1539.25
1524.26
1509.31
1494.39
1479.53
1464.71
1449.95
1435.25
1420.61
1406.03
1391.53
1377.11
1362.76
1348.49
1334.31
1320.23
1306.25
1292.37
1278.62
1264.98
1251.48
1238.13
1224.92
1211.88
1198.98
1186.34
1173.7
1819.1
1804
1788.87
1773.72
1758.56
1743.37
1728.18
1712.98
1697.78
1682.58
1667.38
1652.18
1636.99
1621.82
1606.67
1591.53
1576.41
1561.33
1546.27
1531.24
1516.26
1501.31
1486.41
1471.56
1456.76
1442.03
1427.35
1412.74
1398.19
1383.72
1369.32
1355
1340.77
1326.64
1312.6
1298.68
1284.86
1271.17
1257.61
1244.18
1230.9
1217.78
1204.83
1192.02
1179.49
1166.96
1811.91
1796.74
1781.54
1766.33
1751.11
1735.88
1720.64
1705.39
1690.15
1674.91
1659.68
1644.45
1629.24
1614.05
1598.87
1583.72
1568.6
1553.5
1538.44
1523.42
1508.44
1493.5
1478.62
1463.78
1449.01
1434.28
1419.62
1405.03
1390.51
1376.06
1361.69
1347.42
1333.23
1319.15
1305.17
1291.3
1277.54
1263.91
1250.42
1237.07
1223.86
1210.82
1197.96
1185.25
1172.81
1160.4
1804.83
1789.6
1774.34
1759.08
1743.8
1728.52
1713.23
1697.95
1682.67
1667.4
1652.13
1636.88
1621.65
1606.43
1591.24
1576.08
1560.95
1545.85
1530.79
1515.78
1500.81
1485.88
1471
1456.17
1441.41
1426.7
1412.06
1397.49
1382.99
1368.58
1354.25
1340.02
1325.88
1311.84
1297.91
1284.09
1270.4
1256.84
1243.41
1230.13
1217
1204.04
1191.27
1178.66
1166.32
1154.03
1782.59
1767.28
1751.95
1736.63
1721.3
1705.97
1690.65
1675.33
1660.03
1644.74
1629.46
1614.21
1598.98
1583.78
1568.61
1553.48
1538.38
1523.32
1508.3
1493.33
1478.4
1463.53
1448.71
1433.96
1419.27
1404.66
1390.12
1375.65
1361.28
1346.99
1332.79
1318.69
1304.7
1290.82
1277.06
1263.43
1249.93
1236.57
1223.36
1210.32
1197.44
1184.76
1172.24
1160
1147.82
1775.7
1760.33
1744.96
1729.59
1714.22
1698.85
1683.49
1668.15
1652.81
1637.5
1622.21
1606.94
1591.7
1576.49
1561.31
1546.16
1531.06
1515.99
1500.97
1485.99
1471.08
1456.22
1441.42
1426.68
1412.02
1397.43
1382.92
1368.48
1354.14
1339.89
1325.73
1311.68
1297.74
1283.91
1270.2
1256.63
1243.19
1229.9
1216.76
1203.8
1191
1178.41
1165.99
1153.85
1141.78
1768.93
1753.52
1738.1
1722.68
1707.28
1691.87
1676.49
1661.11
1645.76
1630.42
1615.11
1599.82
1584.56
1569.33
1554.14
1538.98
1523.87
1508.8
1493.79
1478.82
1463.91
1449.07
1434.29
1419.57
1404.93
1390.36
1375.88
1361.48
1347.17
1332.95
1318.84
1304.83
1290.93
1277.16
1263.51
1249.99
1236.61
1223.39
1210.33
1197.44
1184.73
1172.22
1159.9
1147.86
1135.91
1746.84
1731.38
1715.92
1700.48
1685.05
1669.63
1654.22
1638.84
1623.48
1608.14
1592.83
1577.55
1562.31
1547.11
1531.95
1516.84
1501.77
1486.76
1471.81