/*--------------------------------*- C++ -*----------------------------------*\
| =========                 |                                                 |
| \\      /  F ield         | OpenFOAM: The Open Source CFD Toolbox           |
|  \\    /   O peration     | Version:  v1706                                 |
|   \\  /    A nd           | Web:      www.OpenFOAM.com                      |
|    \\/     M anipulation  |                                                 |
\*---------------------------------------------------------------------------*/
FoamFile
{
    version     2.0;
    format      ascii;
    class       volScalarField;
    location    "1.1e-05";
    object      Tov;
}
// * * * * * * * * * * * * * * * * * * * * * * * * * * * * * * * * * * * * * //

dimensions      [0 0 0 1 0 0 0];


internalField   nonuniform List<scalar> 
30038
(
144.4
144.4
144.4
144.4
144.4
144.4
144.4
144.4
144.4
144.4
144.4
144.4
144.4
144.4
144.4
144.4
144.4
144.4
144.4
144.4
144.4
144.4
144.4
144.4
144.4
144.4
144.4
144.4
144.4
144.4
144.4
144.4
144.4
144.4
144.4
144.4
144.4
144.4
144.4
144.4
144.4
144.4
144.4
144.4
144.4
144.4
144.4
144.4
144.4
144.4
144.4
144.4
144.4
144.4
144.4
144.4
144.4
144.4
144.4
144.4
144.4
144.4
144.4
144.4
144.4
144.4
144.4
144.4
144.4
144.4
144.4
144.4
144.4
144.4
144.4
144.4
144.4
144.4
144.4
144.4
144.4
144.4
144.4
144.4
144.4
144.4
144.4
144.4
144.4
144.4
144.4
144.4
144.4
144.4
144.4
144.4
144.4
144.4
144.4
144.4
144.4
144.4
144.4
144.4
144.4
144.4
144.4
144.4
144.4
144.4
144.4
144.4
144.4
144.4
144.4
144.4
144.4
144.4
144.4
144.4
144.4
144.4
144.4
144.4
144.4
144.4
144.4
144.4
144.4
144.4
144.4
144.4
144.4
144.4
144.4
144.4
144.4
144.4
144.4
144.4
144.4
144.4
144.4
144.4
144.4
144.4
144.4
144.4
144.4
144.4
144.4
144.4
144.4
144.4
144.4
144.4
144.4
144.4
144.4
144.4
144.4
144.4
144.4
144.4
144.4
144.4
144.4
144.4
144.4
144.4
144.4
144.4
144.4
144.4
144.4
144.4
144.4
144.4
144.4
144.4
144.4
144.4
144.4
144.4
144.4
144.4
144.4
144.4
144.4
144.4
144.4
144.4
144.4
144.4
144.4
144.4
144.4
144.4
144.4
144.4
144.4
144.4
144.4
144.4
144.4
144.4
144.4
144.4
144.4
144.4
144.4
144.4
144.4
144.4
144.4
144.4
144.4
144.4
144.4
144.4
144.4
144.4
144.4
144.4
144.4
144.4
144.4
144.4
144.4
144.4
144.4
144.4
144.4
144.4
144.4
144.4
144.4
144.4
144.4
144.4
144.4
144.4
144.4
144.4
144.4
144.4
144.4
144.4
144.4
144.4
144.4
144.4
144.4
144.4
144.4
144.4
144.4
144.4
144.4
144.4
144.4
144.4
144.4
144.4
144.4
144.4
144.4
144.4
144.4
144.4
144.4
144.4
144.4
144.4
144.4
144.4
144.4
144.4
144.4
144.4
144.4
144.4
144.4
144.4
144.4
144.4
144.4
144.4
144.4
144.4
144.4
144.4
144.4
144.4
144.4
144.4
144.4
144.4
144.4
144.4
144.4
144.4
144.4
144.4
144.4
144.4
144.4
144.4
144.4
144.4
144.4
144.4
144.4
144.4
144.4
144.4
144.4
144.4
144.4
144.4
144.4
144.4
144.4
144.4
144.4
144.4
144.4
144.4
144.4
144.4
144.4
144.4
144.4
144.4
144.4
144.4
144.4
144.4
144.4
144.4
144.4
144.4
144.4
144.4
144.4
144.4
144.4
144.4
144.4
144.4
144.4
144.4
144.4
144.4
144.4
144.4
144.4
144.4
144.4
144.4
144.4
144.4
144.4
144.4
144.4
144.4
144.4
144.4
144.4
144.4
144.4
144.4
144.4
144.4
144.4
144.4
144.4
144.4
144.4
144.4
144.4
144.4
144.4
144.4
144.4
144.4
144.4
144.4
144.4
144.4
144.4
144.4
144.4
144.4
144.4
144.4
144.4
144.4
144.4
144.4
144.4
144.4
144.4
144.4
144.4
144.4
144.4
144.4
144.4
144.4
144.4
144.4
144.4
144.4
144.4
144.4
144.4
144.4
144.4
144.4
144.4
144.4
144.4
144.4
144.4
144.4
144.4
144.4
144.4
144.4
144.4
144.4
144.4
144.4
144.4
144.4
144.4
144.4
144.4
144.4
144.4
144.4
144.4
144.4
144.4
144.4
144.4
144.4
144.4
144.4
144.4
144.4
144.4
144.4
144.4
144.4
144.4
144.4
144.4
144.4
144.4
144.4
144.4
144.4
144.4
144.4
144.4
144.4
144.4
144.4
144.4
144.4
144.4
144.4
144.4
144.4
144.4
144.4
144.4
144.4
144.4
144.4
144.4
144.4
144.4
144.4
144.4
144.4
144.4
144.4
144.4
144.4
144.4
144.4
144.4
144.4
144.4
144.4
144.4
144.4
144.4
144.4
144.4
144.4
144.4
144.4
144.4
144.4
144.4
144.4
144.4
144.4
144.4
144.4
144.4
144.4
144.4
144.4
144.4
144.4
144.4
144.4
144.4
144.4
144.4
144.4
144.4
144.4
144.4
144.4
144.4
144.4
144.4
144.4
144.4
144.4
144.4
144.4
144.4
144.4
144.4
144.4
144.4
144.4
144.4
144.4
144.4
144.4
144.4
144.4
144.4
144.4
144.4
144.4
144.4
144.4
144.4
144.4
144.4
144.4
144.4
144.4
144.4
144.4
144.4
144.4
144.4
144.4
144.4
144.4
144.4
144.4
144.4
144.4
144.4
144.4
144.4
144.4
144.4
144.4
144.4
144.4
144.4
144.4
144.4
144.4
144.4
144.4
144.4
144.4
144.4
144.4
144.4
144.4
144.4
144.4
144.4
144.4
144.4
144.4
144.4
144.4
144.4
144.4
144.4
144.4
144.4
144.4
144.4
144.4
144.4
144.4
144.4
144.4
144.4
144.4
144.4
144.4
144.4
144.4
144.4
144.4
144.4
144.4
144.4
144.4
144.4
144.4
144.4
144.4
144.4
144.4
144.4
144.4
144.4
144.4
144.4
144.4
144.4
144.4
144.4
144.4
144.4
144.4
144.4
144.4
144.4
144.4
144.4
144.4
144.4
144.4
144.4
144.4
144.4
144.4
144.4
144.4
144.4
144.4
144.4
144.4
144.4
144.4
144.4
144.4
144.4
144.4
144.4
144.4
144.4
144.4
144.4
144.4
144.4
144.4
144.4
144.4
144.4
144.4
144.4
144.4
144.4
144.4
144.4
144.4
144.4
144.4
144.4
144.4
144.4
144.4
144.4
144.4
144.4
144.4
144.4
144.4
144.4
144.4
144.4
144.4
144.4
144.4
144.4
144.4
144.4
144.4
144.4
144.4
144.4
144.4
144.4
144.4
144.4
144.4
144.4
144.4
144.4
144.4
144.4
144.4
144.4
144.4
144.4
144.4
144.4
144.4
144.4
144.4
144.4
144.4
144.4
144.4
144.4
144.4
144.4
144.4
144.4
144.4
144.4
144.4
144.4
144.4
144.4
144.4
144.4
144.4
144.4
144.4
144.4
144.4
144.4
144.4
144.4
144.4
144.4
144.4
144.4
144.4
144.4
144.4
144.4
144.4
144.4
144.4
144.4
144.4
144.4
144.4
144.4
144.4
144.4
144.4
144.4
144.4
144.4
144.4
144.4
144.4
144.4
144.4
144.4
144.4
144.4
144.4
144.4
144.4
144.4
144.4
144.4
144.4
144.4
144.4
144.4
144.4
144.4
144.4
144.4
144.4
144.4
144.4
144.4
144.4
144.4
144.4
144.4
144.4
144.4
144.4
144.4
144.4
144.4
144.4
144.4
144.4
144.4
144.4
144.4
144.4
144.4
144.4
144.4
144.4
144.4
144.4
144.4
144.4
144.4
144.4
144.4
144.4
144.4
144.4
144.4
144.4
144.4
144.4
144.4
144.4
144.4
144.4
144.4
144.4
144.4
144.4
144.4
144.4
144.4
144.4
144.4
144.4
144.4
144.4
144.4
144.4
144.4
144.4
144.4
144.4
144.4
144.4
144.4
144.4
144.4
144.4
144.4
144.4
144.4
144.4
144.4
144.4
144.4
144.4
144.4
144.4
144.4
144.4
144.4
144.4
144.4
144.4
144.4
144.4
144.4
144.4
144.4
144.4
144.4
144.4
144.4
144.4
144.4
144.4
144.4
144.4
144.4
144.4
144.4
144.4
144.4
144.4
144.4
144.4
144.4
144.4
144.4
144.4
144.4
144.4
144.4
144.4
144.4
144.4
144.4
144.4
144.4
144.4
144.4
144.4
144.4
144.4
144.4
144.4
144.4
144.4
144.4
144.4
144.4
144.4
144.4
144.4
144.4
144.4
144.4
144.4
144.4
144.4
144.4
144.4
144.4
144.4
144.4
144.4
144.4
144.4
144.4
144.4
144.4
144.4
144.4
144.4
144.4
144.4
144.4
144.4
144.4
144.4
144.4
144.4
144.4
144.4
144.4
144.4
144.4
144.4
144.4
144.4
144.4
144.4
144.4
144.4
144.4
144.4
144.4
144.4
144.4
144.4
144.4
144.4
144.4
144.4
144.4
144.4
144.4
144.4
144.4
144.4
144.4
144.4
144.4
144.4
144.4
144.4
144.4
144.4
144.4
144.4
144.4
144.4
144.4
144.4
144.4
144.4
144.4
144.4
144.4
144.4
144.4
144.4
144.4
144.4
144.4
144.4
144.4
144.4
144.4
144.4
144.4
144.4
144.4
144.4
144.4
144.4
144.4
144.4
144.4
144.4
144.4
144.4
144.4
144.4
144.4
144.4
144.4
144.4
144.4
144.4
144.4
144.4
144.4
144.4
144.4
144.4
144.4
144.4
144.4
144.4
144.4
144.4
144.4
144.4
144.4
144.4
144.4
144.4
144.4
144.4
144.4
144.4
144.4
144.4
144.4
144.4
144.4
144.4
144.4
144.4
144.4
144.4
144.4
144.4
144.4
144.4
144.4
144.4
144.4
144.4
144.4
144.4
144.4
144.4
144.4
144.4
144.4
144.4
144.4
144.4
144.4
144.4
144.4
144.4
144.4
144.4
144.4
144.4
144.4
144.4
144.4
144.4
144.4
144.4
144.4
144.4
144.4
144.4
144.4
144.4
144.4
144.4
144.4
144.4
144.4
144.4
144.4
144.4
144.4
144.4
144.4
144.4
144.4
144.4
144.4
144.4
144.4
144.4
144.4
144.4
144.4
144.4
144.4
144.4
144.4
144.4
144.4
144.4
144.4
144.4
144.4
144.4
144.4
144.4
144.4
144.4
144.4
144.4
144.4
144.4
144.4
144.4
144.4
144.4
144.4
144.4
144.4
144.4
144.4
144.4
144.4
144.4
144.4
144.4
144.4
144.4
144.4
144.4
144.4
144.4
144.4
144.4
144.4
144.4
144.4
144.4
144.4
144.4
144.4
144.4
144.4
144.4
144.4
144.4
144.4
144.4
144.4
144.4
144.4
144.4
144.4
144.4
144.4
144.401
144.4
144.4
144.4
144.4
144.4
144.4
144.4
144.4
144.4
144.4
144.4
144.4
144.4
144.4
144.4
144.4
144.4
144.4
144.4
144.4
144.4
144.4
144.4
144.4
144.4
144.4
144.4
144.4
144.4
144.4
144.4
144.4
144.4
144.4
144.4
144.4
144.4
144.4
144.4
144.4
144.4
144.4
144.4
144.4
144.4
144.4
144.4
144.401
144.402
144.403
144.4
144.4
144.4
144.4
144.4
144.4
144.4
144.4
144.4
144.4
144.4
144.4
144.4
144.4
144.4
144.4
144.4
144.4
144.4
144.4
144.4
144.4
144.4
144.4
144.4
144.4
144.4
144.4
144.4
144.4
144.4
144.4
144.4
144.4
144.4
144.4
144.4
144.4
144.4
144.4
144.4
144.4
144.4
144.4
144.401
144.402
144.403
144.405
144.409
144.418
144.4
144.4
144.4
144.4
144.4
144.4
144.4
144.4
144.4
144.4
144.4
144.4
144.4
144.4
144.4
144.4
144.4
144.4
144.4
144.4
144.4
144.4
144.4
144.4
144.4
144.4
144.4
144.4
144.4
144.4
144.4
144.4
144.4
144.4
144.4
144.4
144.4
144.4
144.4
144.4
144.4
144.401
144.402
144.403
144.405
144.409
144.416
144.429
144.454
144.503
144.4
144.4
144.4
144.4
144.4
144.4
144.4
144.4
144.4
144.4
144.4
144.4
144.4
144.4
144.4
144.4
144.4
144.4
144.4
144.4
144.4
144.4
144.4
144.4
144.4
144.4
144.4
144.4
144.4
144.4
144.4
144.4
144.4
144.4
144.4
144.4
144.4
144.401
144.401
144.402
144.403
144.405
144.409
144.416
144.428
144.451
144.492
144.567
144.705
144.978
144.4
144.4
144.4
144.4
144.4
144.4
144.4
144.4
144.4
144.4
144.4
144.4
144.4
144.4
144.4
144.4
144.4
144.4
144.4
144.4
144.4
144.4
144.4
144.4
144.4
144.4
144.4
144.4
144.4
144.4
144.4
144.4
144.4
144.4
144.401
144.401
144.402
144.403
144.405
144.409
144.416
144.428
144.45
144.489
144.56
144.685
144.912
145.324
146.079
147.529
144.4
144.4
144.4
144.4
144.4
144.4
144.4
144.4
144.4
144.4
144.4
144.4
144.4
144.4
144.4
144.4
144.4
144.4
144.4
144.4
144.4
144.4
144.4
144.4
144.4
144.4
144.4
144.4
144.4
144.4
144.4
144.401
144.401
144.402
144.403
144.406
144.41
144.417
144.429
144.451
144.489
144.557
144.678
144.892
145.273
145.955
147.174
149.354
153.262
160.401
144.4
144.4
144.4
144.4
144.4
144.4
144.4
144.4
144.4
144.4
144.4
144.4
144.4
144.4
144.4
144.4
144.4
144.4
144.4
144.4
144.4
144.4
144.4
144.4
144.4
144.4
144.4
144.4
144.401
144.401
144.402
144.404
144.406
144.41
144.418
144.431
144.453
144.492
144.559
144.677
144.885
145.251
145.895
147.032
149.034
152.544
158.642
169.059
186.421
214.524
144.4
144.4
144.4
144.4
144.4
144.4
144.4
144.4
144.4
144.4
144.4
144.4
144.4
144.4
144.4
144.4
144.4
144.4
144.4
144.4
144.4
144.4
144.4
144.4
144.401
144.401
144.401
144.402
144.404
144.407
144.411
144.419
144.433
144.456
144.496
144.565
144.685
144.891
145.251
145.876
146.966
148.862
152.146
157.785
167.307
182.96
207.717
244.969
297.928
368.772
144.4
144.4
144.4
144.4
144.4
144.4
144.4
144.4
144.4
144.4
144.4
144.4
144.4
144.4
144.4
144.4
144.4
144.4
144.4
144.4
144.4
144.401
144.401
144.402
144.403
144.405
144.408
144.413
144.422
144.437
144.462
144.504
144.576
144.7
144.911
145.273
145.897
146.968
148.81
151.964
157.316
166.263
180.849
203.783
238.164
286.875
351.827
433.434
530.666
641.126
144.4
144.4
144.4
144.4
144.4
144.4
144.4
144.4
144.4
144.4
144.4
144.4
144.4
144.4
144.4
144.4
144.4
144.4
144.401
144.401
144.402
144.403
144.406
144.409
144.415
144.425
144.442
144.469
144.515
144.593
144.724
144.945
145.32
145.957
147.039
148.874
151.978
157.184
165.79
179.689
201.383
233.761
279.566
340.701
417.687
509.553
614.167
728.773
850.573
976.475
144.4
144.4
144.4
144.4
144.4
144.4
144.4
144.4
144.4
144.4
144.4
144.4
144.4
144.4
144.401
144.401
144.402
144.403
144.404
144.407
144.411
144.418
144.43
144.448
144.479
144.531
144.617
144.759
144.997
145.395
146.062
147.181
149.057
152.188
157.375
165.848
179.381
200.311
231.333
275.04
333.298
406.738
494.622
595.066
705.491
823.053
944.941
1068.34
1190.56
1309.52
144.4
144.4
144.4
144.4
144.4
144.4
144.4
144.4
144.4
144.4
144.401
144.401
144.401
144.402
144.403
144.405
144.409
144.414
144.422
144.436
144.458
144.494
144.553
144.649
144.808
145.07
145.503
146.22
147.407
149.371
152.608
157.9
166.434
179.899
200.491
230.732
273.048
329.214
399.902
484.532
581.462
688.36
802.59
921.513
1042.49
1162.82
1280.08
1392.04
1496
1589.53
144.4
144.4
144.4
144.4
144.4
144.4
144.4
144.401
144.401
144.402
144.403
144.404
144.407
144.411
144.418
144.428
144.444
144.471
144.513
144.582
144.694
144.876
145.172
145.654
146.444
147.734
149.842
153.268
158.795
167.585
181.266
201.922
231.909
273.477
328.273
396.938
478.983
572.946
676.719
787.892
904.007
1022.68
1141.44
1257.88
1369.83
1475.01
1570.61
1653.76
1722.3
1776.78
144.4
144.4
144.4
144.401
144.401
144.402
144.403
144.404
144.406
144.409
144.415
144.423
144.436
144.456
144.489
144.541
144.623
144.756
144.969
145.311
145.863
146.753
148.19
150.506
154.219
160.124
169.376
183.563
204.671
234.904
276.323
330.414
397.737
477.834
569.374
670.441
778.825
892.258
1008.54
1125.47
1240.76
1352.33
1458.19
1555.98
1642.92
1716.62
1775.86
1821.29
1854.54
1878.74
144.401
144.401
144.402
144.402
144.404
144.405
144.408
144.413
144.42
144.43
144.447
144.473
144.514
144.579
144.681
144.841
145.097
145.502
146.148
147.177
148.815
151.419
155.536
161.983
171.927
186.927
208.883
239.846
281.679
335.677
402.285
481.027
570.658
669.42
775.288
886.177
1000.06
1114.96
1228.78
1339.54
1445.38
1544.33
1633.98
1711.82
1776.15
1826.68
1864.62
1891.99
1911.31
1924.62
1934.15
144.403
144.405
144.408
144.412
144.418
144.427
144.442
144.464
144.498
144.551
144.633
144.761
144.961
145.275
145.767
146.54
147.757
149.669
152.664
157.329
164.517
175.416
191.565
214.78
246.951
289.731
344.202
410.66
488.58
576.773
673.612
777.247
885.767
997.303
1110.06
1222.18
1331.76
1437.04
1536.33
1627.57
1708.41
1776.88
1832.07
1874.5
1905.77
1928.05
1943.57
1954.18
1961.53
1966.58
1970.1
144.411
144.417
144.426
144.438
144.458
144.488
144.533
144.603
144.71
144.875
145.13
145.524
146.136
147.084
148.556
150.837
154.358
159.754
167.926
180.09
197.764
222.673
256.532
300.764
356.221
423.029
500.598
587.773
683.039
784.707
891.029
1000.29
1110.86
1221.07
1329.17
1433.48
1532.46
1624.4
1707.19
1778.78
1837.89
1884.41
1919.46
1944.86
1962.71
1975
1983.39
1989.08
1992.81
1995.24
1997.27
1998.98
144.456
144.483
144.524
144.587
144.681
144.824
145.041
145.373
145.881
146.657
147.846
149.666
152.446
156.67
163.033
172.491
186.287
205.91
232.973
268.998
315.155
372.053
439.643
517.259
603.77
697.762
797.691
901.968
1009.03
1117.38
1225.54
1331.91
1434.92
1533.13
1625.04
1708.86
1782.61
1844.79
1894.84
1933.34
1961.78
1982.06
1996.17
2005.72
2012.16
2016.41
2019.04
2020.78
2022.3
2023.12
2022.92
2022.41
144.667
144.797
144.992
145.286
145.728
146.395
147.403
148.927
151.226
154.682
159.845
167.479
178.597
194.459
216.504
246.205
284.859
333.369
392.097
460.819
538.795
624.921
717.877
816.254
918.617
1023.55
1129.68
1235.69
1340.13
1441.56
1538.59
1629.91
1713.99
1789.02
1853.42
1906.29
1947.82
1979.1
2001.77
2017.67
2028.54
2035.82
2040.64
2043.57
2045.24
2046.5
2047.46
2047.31
2046.68
2045.62
2044.23
2042.82
145.652
146.254
147.151
148.488
150.48
153.439
157.815
164.231
173.526
186.762
205.194
230.177
263.006
304.723
355.954
416.817
486.926
565.488
651.426
743.518
840.485
941.035
1043.89
1147.8
1251.56
1353.91
1453.49
1549.03
1639.31
1723
1798.54
1864.33
1919.32
1963.34
1997.1
2021.98
2039.68
2051.91
2060.05
2065.4
2068.75
2070.55
2071.55
2072.37
2072.46
2071.8
2070.65
2069.07
2067.33
2065.56
2063.86
2062.21
150.085
152.739
156.616
162.243
170.327
181.774
197.674
219.243
247.703
284.128
329.284
383.516
446.719
518.374
597.65
683.515
774.847
870.488
969.281
1070.07
1171.74
1273.19
1373.29
1470.82
1564.56
1653.41
1736.22
1811.59
1878.04
1934.42
1980.31
2016.12
2042.98
2062.35
2075.83
2084.92
2090.85
2094.58
2096.56
2097.45
2097.98
2098.12
2097.5
2096.29
2094.68
2092.73
2090.69
2088.63
2086.61
2084.6
2082.64
2080.72
168.543
178.828
193.026
212.218
237.528
269.991
310.422
359.296
416.699
482.332
555.58
635.603
721.427
812.028
906.369
1003.42
1102.14
1201.52
1300.58
1398.3
1493.57
1585.28
1672.38
1753.85
1828.49
1894.92
1952.01
1999.16
2036.54
2065
2085.82
2100.5
2110.51
2117
2121.03
2123.31
2124.22
2124.42
2124.39
2123.89
2122.63
2120.89
2118.81
2116.52
2114.18
2111.87
2109.58
2107.28
2105.01
2102.74
2100.5
2098.28
231.495
261.139
298.063
342.799
395.542
456.15
524.177
598.953
679.656
765.384
855.216
948.229
1043.5
1140.12
1237.16
1333.74
1428.95
1521.78
1611.2
1696.26
1776.03
1849.45
1915.29
1972.45
2020.25
2058.66
2088.32
2110.34
2126.05
2136.83
2143.89
2148.25
2150.77
2151.73
2151.69
2151.42
2150.85
2149.55
2147.7
2145.55
2143.08
2140.49
2137.87
2135.29
2132.7
2130.13
2127.59
2125.03
2122.48
2119.91
2117.37
2114.83
438.782
502.477
572.733
648.863
730.089
815.593
904.554
996.157
1089.59
1184.02
1278.64
1372.63
1465.19
1555.41
1642.33
1725.08
1802.82
1874.6
1939.35
1996
2043.86
2082.77
2113.22
2136.1
2152.61
2164.05
2171.62
2176.24
2178.89
2179.99
2179.82
2179.27
2178.48
2177.2
2175.23
2172.92
2170.29
2167.44
2164.54
2161.69
2158.84
2155.98
2153.15
2150.32
2147.49
2144.66
2141.81
2138.96
2136.09
2133.22
2130.36
705.625
787.138
872.224
960.157
1050.22
1141.69
1233.83
1325.91
1417.21
1506.98
1594.4
1678.62
1758.81
1834.22
1904.01
1967.21
2022.84
2070.23
2109.13
2139.9
2163.28
2180.33
2192.28
2200.2
2205.06
2207.82
2208.98
2208.7
2207.93
2206.86
2205.42
2203.36
2200.89
2198.16
2195.12
2191.97
2188.8
2185.65
2182.5
2179.39
2176.29
2173.19
2170.09
2166.99
2163.87
2160.74
2157.59
2154.42
2151.23
2148.05
2144.86
1022.09
1110.44
1199.8
1289.51
1378.92
1467.37
1554.2
1638.66
1719.97
1797.38
1870.19
1937.66
1998.92
2053.08
2099.5
2137.9
2168.54
2192.06
2209.38
2221.59
2229.74
2234.76
2237.58
2238.69
2238.39
2237.42
2236
2234.31
2232.26
2229.59
2226.64
2223.42
2220.01
2216.57
2213.15
2209.74
2206.33
2202.95
2199.56
2196.19
2192.82
2189.45
2186.06
2182.66
2179.25
2175.81
2172.35
2168.87
2165.36
2161.85
2158.33
1437.56
1523.01
1606.75
1688.07
1766.26
1840.65
1910.61
1975.47
2034.44
2086.73
2131.73
2169.19
2199.29
2222.56
2239.84
2252.1
2260.32
2265.4
2268.16
2269.2
2268.84
2267.65
2265.91
2263.96
2261.72
2258.89
2255.74
2252.4
2248.77
2245.05
2241.32
2237.62
2233.92
2230.25
2226.61
2222.96
2219.32
2215.68
2212.04
2208.38
2204.72
2201.04
2197.34
2193.61
2189.86
2186.09
2182.29
2178.46
2174.63
2170.77
1742.43
1817.31
1888.47
1955.34
2017.32
2073.69
2123.74
2166.94
2203.04
2232.2
2254.87
2271.8
2283.87
2291.98
2296.97
2299.63
2300.53
2300.05
2298.64
2296.63
2294.34
2291.84
2288.89
2285.52
2281.96
2278.13
2274.14
2270.15
2266.18
2262.2
2258.23
2254.3
2250.37
2246.46
2242.56
2238.66
2234.75
2230.83
2226.9
2222.96
2218.99
2215.01
2211
2206.97
2202.9
2198.81
2194.69
2190.54
2186.38
2182.2
2004.18
2063.02
2116.51
2164.01
2205.04
2239.43
2267.27
2289.01
2305.31
2316.97
2324.75
2329.53
2332
2332.65
2332.01
2330.41
2328.1
2325.44
2322.66
2319.58
2315.95
2312.13
2308.14
2303.9
2299.62
2295.36
2291.1
2286.84
2282.63
2278.44
2274.25
2270.07
2265.9
2261.73
2257.56
2253.39
2249.2
2244.99
2240.77
2236.53
2232.26
2227.97
2223.66
2219.31
2214.93
2210.52
2206.08
2201.61
2197.12
2192.6
2207.35
2245.92
2278.25
2304.47
2324.97
2340.38
2351.37
2358.66
2363.11
2365.28
2365.58
2364.74
2362.9
2360.24
2357.28
2354.19
2350.83
2347
2342.94
2338.75
2334.29
2329.72
2325.18
2320.64
2316.1
2311.59
2307.11
2302.65
2298.2
2293.77
2289.34
2284.91
2280.48
2276.04
2271.6
2267.14
2262.66
2258.16
2253.65
2249.1
2244.53
2239.93
2235.31
2230.64
2225.95
2221.22
2216.46
2211.66
2206.85
2202
2343.69
2362.7
2376.95
2387.06
2393.72
2397.67
2399.42
2399.33
2398.24
2396.1
2393.1
2389.85
2386.4
2382.71
2378.72
2374.38
2369.91
2365.25
2360.42
2355.59
2350.78
2345.97
2341.17
2336.41
2331.67
2326.94
2322.24
2317.54
2312.86
2308.17
2303.49
2298.79
2294.09
2289.38
2284.65
2279.9
2275.14
2270.34
2265.53
2260.68
2255.8
2250.89
2245.95
2240.97
2235.96
2230.91
2225.82
2220.7
2215.56
2210.38
2424
2429.88
2433.2
2434.39
2433.94
2432.48
2429.99
2426.66
2423.05
2419.26
2415.26
2411.07
2406.42
2401.66
2396.8
2391.71
2386.59
2381.52
2376.42
2371.33
2366.29
2361.28
2356.28
2351.31
2346.35
2341.39
2336.45
2331.51
2326.57
2321.63
2316.67
2311.71
2306.73
2301.74
2296.72
2291.68
2286.62
2281.53
2276.41
2271.26
2266.07
2260.85
2255.59
2250.29
2244.96
2239.59
2234.18
2228.74
2223.28
2217.77
2470.18
2469.32
2467.4
2464.52
2460.87
2456.9
2452.77
2448.41
2443.9
2439.06
2434.02
2428.91
2423.59
2418.17
2412.81
2407.45
2402.08
2396.76
2391.48
2386.19
2380.94
2375.72
2370.5
2365.3
2360.11
2354.92
2349.72
2344.53
2339.33
2334.12
2328.9
2323.65
2318.4
2313.11
2307.81
2302.48
2297.12
2291.73
2286.3
2280.84
2275.34
2269.81
2264.23
2258.62
2252.97
2247.28
2241.55
2235.79
2230
2224.17
2495.68
2491.34
2486.86
2482.16
2477.32
2472.25
2466.91
2461.5
2455.98
2450.3
2444.65
2439.03
2433.39
2427.78
2422.21
2416.66
2411.15
2405.65
2400.17
2394.71
2389.25
2383.81
2378.38
2372.94
2367.5
2362.05
2356.59
2351.13
2345.65
2340.15
2334.63
2329.08
2323.51
2317.92
2312.29
2306.63
2300.93
2295.2
2289.43
2283.62
2277.77
2271.88
2265.95
2259.98
2253.97
2247.93
2241.84
2235.73
2229.58
2516.46
2511.3
2505.94
2500.34
2494.64
2488.87
2482.94
2477
2471.12
2465.22
2459.32
2453.49
2447.67
2441.88
2436.12
2430.38
2424.65
2418.95
2413.25
2407.56
2401.88
2396.2
2390.51
2384.83
2379.13
2373.42
2367.7
2361.97
2356.21
2350.43
2344.63
2338.8
2332.94
2327.04
2321.12
2315.15
2309.15
2303.12
2297.04
2290.91
2284.75
2278.55
2272.3
2266.01
2259.69
2253.32
2246.92
2240.49
2234.02
2534.26
2528.28
2522.23
2516.06
2509.84
2503.69
2497.53
2491.36
2485.26
2479.19
2473.12
2467.1
2461.09
2455.11
2449.15
2443.2
2437.26
2431.34
2425.41
2419.49
2413.57
2407.64
2401.71
2395.77
2389.81
2383.84
2377.85
2371.84
2365.81
2359.75
2353.66
2347.54
2341.38
2335.19
2328.97
2322.7
2316.4
2310.05
2303.66
2297.23
2290.75
2284.23
2277.67
2271.07
2264.42
2257.75
2251.03
2244.29
2237.51
2543.15
2536.72
2530.31
2523.88
2517.5
2511.17
2504.84
2498.56
2492.3
2486.06
2479.85
2473.65
2467.46
2461.29
2455.13
2448.97
2442.81
2436.66
2430.49
2424.33
2418.15
2411.97
2405.77
2399.55
2393.31
2387.04
2380.76
2374.44
2368.1
2361.72
2355.31
2348.86
2342.37
2335.84
2329.27
2322.66
2316
2309.31
2302.56
2295.77
2288.94
2282.07
2275.15
2268.2
2261.21
2254.18
2247.14
2240.04
2556.84
2550.19
2543.6
2537.02
2530.48
2523.97
2517.47
2511.01
2504.56
2498.13
2491.72
2485.31
2478.92
2472.53
2466.14
2459.75
2453.36
2446.97
2440.56
2434.15
2427.72
2421.28
2414.81
2408.32
2401.81
2395.28
2388.71
2382.11
2375.48
2368.81
2362.1
2355.36
2348.57
2341.74
2334.87
2327.95
2320.99
2313.99
2306.93
2299.84
2292.7
2285.51
2278.29
2271.02
2263.73
2256.39
2249.04
2241.64
2562.82
2556.06
2549.33
2542.61
2535.92
2529.25
2522.59
2515.95
2509.32
2502.7
2496.08
2489.47
2482.85
2476.24
2469.62
2462.99
2456.35
2449.7
2443.03
2436.34
2429.64
2422.91
2416.15
2409.37
2402.55
2395.7
2388.82
2381.9
2374.94
2367.94
2360.9
2353.81
2346.68
2339.51
2332.29
2325.02
2317.71
2310.35
2302.94
2295.5
2288.01
2280.47
2272.91
2265.3
2257.67
2250.01
2242.31
2574.61
2567.69
2560.78
2553.88
2547.01
2540.15
2533.29
2526.45
2519.61
2512.78
2505.94
2499.11
2492.26
2485.42
2478.56
2471.69
2464.8
2457.9
2450.97
2444.03
2437.05
2430.06
2423.03
2415.97
2408.87
2401.74
2394.57
2387.36
2380.11
2372.82
2365.48
2358.1
2350.67
2343.19
2335.67
2328.1
2320.48
2312.82
2305.11
2297.36
2289.56
2281.72
2273.85
2265.96
2258.04
2250.11
2242.14
2578.46
2571.37
2564.29
2557.23
2550.17
2543.11
2536.06
2529.01
2521.95
2514.9
2507.83
2500.76
2493.67
2486.57
2479.45
2472.31
2465.16
2457.97
2450.76
2443.52
2436.26
2428.95
2421.61
2414.24
2406.82
2399.37
2391.87
2384.33
2376.74
2369.11
2361.43
2353.7
2345.93
2338.1
2330.23
2322.31
2314.35
2306.33
2298.28
2290.19
2282.08
2273.93
2265.76
2257.56
2249.35
2241.1
2588.37
2581.09
2573.82
2566.56
2559.29
2552.03
2544.77
2537.5
2530.22
2522.93
2515.64
2508.33
2501
2493.65
2486.29
2478.89
2471.48
2464.03
2456.56
2449.05
2441.51
2433.93
2426.32
2418.66
2410.96
2403.22
2395.44
2387.6
2379.72
2371.8
2363.82
2355.8
2347.73
2339.6
2331.43
2323.21
2314.96
2306.67
2298.33
2289.97
2281.57
2273.15
2264.69
2256.21
2247.72
2239.19
2597.41
2589.94
2582.47
2575
2567.53
2560.05
2552.57
2545.08
2537.57
2530.06
2522.52
2514.97
2507.4
2499.81
2492.19
2484.54
2476.87
2469.16
2461.42
2453.64
2445.83
2437.97
2430.08
2422.14
2414.16
2406.13
2398.06
2389.94
2381.77
2373.55
2365.28
2356.96
2348.59
2340.18
2331.74
2323.24
2314.71
2306.14
2297.53
2288.88
2280.2
2271.49
2262.76
2254
2245.24
2236.45
2605.57
2597.9
2590.22
2582.54
2574.86
2567.17
2559.46
2551.74
2544.01
2536.26
2528.49
2520.69
2512.88
2505.03
2497.16
2489.26
2481.32
2473.35
2465.34
2457.29
2449.21
2441.08
2432.91
2424.69
2416.42
2408.11
2399.76
2391.34
2382.88
2374.37
2365.83
2357.23
2348.59
2339.91
2331.18
2322.41
2313.59
2304.74
2295.84
2286.92
2277.96
2268.98
2259.98
2250.96
2241.94
2232.89
2612.84
2604.96
2597.08
2589.19
2581.29
2573.38
2565.45
2557.5
2549.53
2541.54
2533.53
2525.49
2517.43
2509.33
2501.2
2493.04
2484.84
2476.61
2468.33
2460.02
2451.66
2443.25
2434.8
2426.31
2417.76
2409.16
2400.52
2391.84
2383.11
2374.33
2365.51
2356.64
2347.73
2338.76
2329.75
2320.7
2311.61
2302.47
2293.31
2284.11
2274.88
2265.64
2256.38
2247.11
2237.83
2228.53
2619.22
2611.13
2603.04
2594.94
2586.82
2578.68
2570.52
2562.34
2554.14
2545.91
2537.66
2529.37
2521.06
2512.71
2504.32
2495.9
2487.44
2478.94
2470.4
2461.81
2453.18
2444.5
2435.77
2427
2418.19
2409.33
2400.42
2391.47
2382.48
2373.43
2364.33
2355.18
2345.99
2336.74
2327.46
2318.13
2308.77
2299.37
2289.94
2280.48
2271
2261.5
2251.99
2242.47
2232.95
2223.41
2624.7
2616.41
2608.1
2599.78
2591.44
2583.07
2574.68
2566.27
2557.83
2549.36
2540.86
2532.33
2523.77
2515.16
2506.52
2497.84
2489.12
2480.36
2471.54
2462.69
2453.79
2444.85
2435.87
2426.84
2417.76
2408.64
2399.47
2390.24
2380.97
2371.64
2362.27
2352.85
2343.39
2333.88
2324.32
2314.73
2305.11
2295.45
2285.76
2276.05
2266.32
2256.57
2246.82
2237.06
2227.31
2217.55
2620.78
2612.26
2603.72
2595.15
2586.56
2577.94
2569.29
2560.61
2551.9
2543.16
2534.37
2525.56
2516.7
2507.8
2498.86
2489.88
2480.86
2471.8
2462.69
2453.54
2444.35
2435.11
2425.81
2416.47
2407.08
2397.63
2388.14
2378.59
2369
2359.37
2349.68
2339.95
2330.18
2320.37
2310.52
2300.64
2290.73
2280.8
2270.84
2260.87
2250.89
2240.9
2230.92
2220.95
2210.97
2624.26
2615.52
2606.75
2597.95
2589.13
2580.28
2571.39
2562.48
2553.52
2544.53
2535.5
2526.43
2517.33
2508.19
2499
2489.77
2480.51
2471.2
2461.84
2452.43
2442.97
2433.47
2423.91
2414.3
2404.64
2394.94
2385.18
2375.38
2365.53
2355.63
2345.69
2335.71
2325.68
2315.62
2305.53
2295.4
2285.25
2275.07
2264.88
2254.68
2244.47
2234.26
2224.06
2213.88
2203.69
2626.83
2617.87
2608.87
2599.85
2590.8
2581.71
2572.59
2563.43
2554.24
2545.01
2535.75
2526.44
2517.1
2507.72
2498.29
2488.82
2479.3
2469.73
2460.11
2450.44
2440.73
2430.96
2421.15
2411.28
2401.37
2391.41
2381.4
2371.34
2361.24
2351.09
2340.9
2330.67
2320.4
2310.1
2299.76
2289.4
2279.02
2268.61
2258.19
2247.77
2237.34
2226.92
2216.52
2206.13
2195.74
2619.32
2610.1
2600.84
2591.56
2582.25
2572.9
2563.51
2554.09
2544.63
2535.14
2525.6
2516.01
2506.38
2496.7
2486.98
2477.21
2467.39
2457.52
2447.6
2437.63
2427.62
2417.55
2407.44
2397.27
2387.06
2376.81
2366.5
2356.16
2345.77
2335.33
2324.87
2314.36
2303.82
2293.26
2282.67
2272.06
2261.43
2250.8
2240.16
2229.53
2218.91
2208.3
2197.72
2187.15
2619.87
2610.44
2600.97
2591.46
2581.93
2572.36
2562.75
2553.1
2543.4
2533.66
2523.88
2514.05
2504.17
2494.25
2484.28
2474.27
2464.2
2454.09
2443.92
2433.71
2423.45
2413.14
2402.78
2392.38
2381.92
2371.43
2360.89
2350.3
2339.68
2329.01
2318.32
2307.58
2296.82
2286.04
2275.23
2264.41
2253.57
2242.73
2231.89
2221.06
2210.25
2199.45
2188.69
2177.93
2619.57
2609.92
2600.24
2590.52
2580.75
2570.95
2561.11
2551.22
2541.29
2531.31
2521.29
2511.22
2501.11
2490.95
2480.74
2470.49
2460.18
2449.83
2439.43
2428.98
2418.48
2407.93
2397.34
2386.7
2376.01
2365.28
2354.51
2343.7
2332.85
2321.96
2311.05
2300.1
2289.12
2278.12
2267.1
2256.08
2245.04
2234
2222.97
2211.95
2200.96
2189.99
2179.05
2168.13
2618.41
2608.54
2598.64
2588.69
2578.7
2568.67
2558.6
2548.48
2538.32
2528.11
2517.86
2507.56
2497.22
2486.82
2476.38
2465.89
2455.36
2444.77
2434.14
2423.45
2412.73
2401.95
2391.13
2380.26
2369.35
2358.4
2347.41
2336.38
2325.31
2314.21
2303.08
2291.92
2280.74
2269.53
2258.32
2247.1
2235.87
2224.65
2213.43
2202.24
2191.07
2179.94
2168.85
2157.77
2606.3
2596.17
2586
2575.79
2565.54
2555.24
2544.9
2534.51
2524.08
2513.6
2503.08
2492.5
2481.88
2471.22
2460.5
2449.74
2438.93
2428.07
2417.16
2406.21
2395.21
2384.17
2373.09
2361.96
2350.79
2339.59
2328.35
2317.07
2305.77
2294.43
2283.07
2271.7
2260.3
2248.9
2237.49
2226.09
2214.69
2203.31
2191.95
2180.62
2169.34
2158.09
2146.87
2603.19
2592.85
2582.47
2572.04
2561.57
2551.05
2540.49
2529.89
2519.23
2508.53
2497.79
2487
2476.15
2465.27
2454.33
2443.35
2432.32
2421.24
2410.12
2398.96
2387.75
2376.49
2365.2
2353.86
2342.49
2331.08
2319.64
2308.17
2296.67
2285.14
2273.59
2262.03
2250.46
2238.88
2227.3
2215.72
2204.16
2192.62
2181.11
2169.63
2158.2
2146.82
2135.46
2599.25
2588.7
2578.1
2567.46
2556.78
2546.05
2535.28
2524.45
2513.59
2502.67
2491.71
2480.71
2469.65
2458.55
2447.41
2436.21
2424.97
2413.69
2402.36
2390.99
2379.57
2368.11
2356.62
2345.09
2333.52
2321.91
2310.28
2298.62
2286.93
2275.23
2263.5
2251.77
2240.02
2228.28
2216.53
2204.8
2193.09
2181.4
2169.74
2158.12
2146.55
2135.04
2123.56
2583.73
2572.92
2562.08
2551.18
2540.25
2529.27
2518.24
2507.16
2496.04
2484.87
2473.66
2462.4
2451.09
2439.74
2428.34
2416.9
2405.42
2393.89
2382.32
2370.71
2359.06
2347.37
2335.65
2323.9
2312.11
2300.3
2288.46
2276.6
2264.72
2252.83
2240.93
2229.03
2217.12
2205.23
2193.35
2181.49
2169.65
2157.86
2146.11
2134.42
2122.78
2111.19
2577.95
2566.95
2555.9
2544.8
2533.67
2522.48
2511.25
2499.98
2488.65
2477.29
2465.87
2454.41
2442.91
2431.36
2419.77
2408.14
2396.46
2384.74
2372.99
2361.19
2349.36
2337.49
2325.59
2313.66
2301.7
2289.72
2277.72
2265.69
2253.65
2241.6
2229.55
2217.49
2205.44
2193.4
2181.38
2169.38
2157.42
2145.5
2133.63
2121.82
2110.08
2098.37
2571.38
2560.19
2548.94
2537.65
2526.32
2514.94
2503.52
2492.05
2480.54
2468.98
2457.37
2445.72
2434.03
2422.3
2410.52
2398.71
2386.85
2374.95
2363.01
2351.04
2339.04
2327
2314.93