/*--------------------------------*- C++ -*----------------------------------*\
| =========                 |                                                 |
| \\      /  F ield         | OpenFOAM: The Open Source CFD Toolbox           |
|  \\    /   O peration     | Version:  v1706                                 |
|   \\  /    A nd           | Web:      www.OpenFOAM.com                      |
|    \\/     M anipulation  |                                                 |
\*---------------------------------------------------------------------------*/
FoamFile
{
    version     2.0;
    format      ascii;
    class       volScalarField;
    location    "1.1e-05";
    object      Tv;
}
// * * * * * * * * * * * * * * * * * * * * * * * * * * * * * * * * * * * * * //

dimensions      [0 0 0 1 0 0 0];


internalField   nonuniform List<scalar> 
30038
(
144.4
144.4
144.4
144.4
144.4
144.4
144.4
144.4
144.4
144.4
144.4
144.4
144.4
144.4
144.4
144.4
144.4
144.4
144.4
144.4
144.4
144.4
144.4
144.4
144.4
144.4
144.4
144.4
144.4
144.4
144.4
144.4
144.4
144.4
144.4
144.4
144.4
144.4
144.4
144.4
144.4
144.4
144.4
144.4
144.4
144.4
144.4
144.4
144.4
144.4
144.4
144.4
144.4
144.4
144.4
144.4
144.4
144.4
144.4
144.4
144.4
144.4
144.4
144.4
144.4
144.4
144.4
144.4
144.4
144.4
144.4
144.4
144.4
144.4
144.4
144.4
144.4
144.4
144.4
144.4
144.4
144.4
144.4
144.4
144.4
144.4
144.4
144.4
144.4
144.4
144.4
144.4
144.4
144.4
144.4
144.4
144.4
144.4
144.4
144.4
144.4
144.4
144.4
144.4
144.4
144.4
144.4
144.4
144.4
144.4
144.4
144.4
144.4
144.4
144.4
144.4
144.4
144.4
144.4
144.4
144.4
144.4
144.4
144.4
144.4
144.4
144.4
144.4
144.4
144.4
144.4
144.4
144.4
144.4
144.4
144.4
144.4
144.4
144.4
144.4
144.4
144.4
144.4
144.4
144.4
144.4
144.4
144.4
144.4
144.4
144.4
144.4
144.4
144.4
144.4
144.4
144.4
144.4
144.4
144.4
144.4
144.4
144.4
144.4
144.4
144.4
144.4
144.4
144.4
144.4
144.4
144.4
144.4
144.4
144.4
144.4
144.4
144.4
144.4
144.4
144.4
144.4
144.4
144.4
144.4
144.4
144.4
144.4
144.4
144.4
144.4
144.4
144.4
144.4
144.4
144.4
144.4
144.4
144.4
144.4
144.4
144.4
144.4
144.4
144.4
144.4
144.4
144.4
144.4
144.4
144.4
144.4
144.4
144.4
144.4
144.4
144.4
144.4
144.4
144.4
144.4
144.4
144.4
144.4
144.4
144.4
144.4
144.4
144.4
144.4
144.4
144.4
144.4
144.4
144.4
144.4
144.4
144.4
144.4
144.4
144.4
144.4
144.4
144.4
144.4
144.4
144.4
144.4
144.4
144.4
144.4
144.4
144.4
144.4
144.4
144.4
144.4
144.4
144.4
144.4
144.4
144.4
144.4
144.4
144.4
144.4
144.4
144.4
144.4
144.4
144.4
144.4
144.4
144.4
144.4
144.4
144.4
144.4
144.4
144.4
144.4
144.4
144.4
144.4
144.4
144.4
144.4
144.4
144.4
144.4
144.4
144.4
144.4
144.4
144.4
144.4
144.4
144.4
144.4
144.4
144.4
144.4
144.4
144.4
144.4
144.4
144.4
144.4
144.4
144.4
144.4
144.4
144.4
144.4
144.4
144.4
144.4
144.4
144.4
144.4
144.4
144.4
144.4
144.4
144.4
144.4
144.4
144.4
144.4
144.4
144.4
144.4
144.4
144.4
144.4
144.4
144.4
144.4
144.4
144.4
144.4
144.4
144.4
144.4
144.4
144.4
144.4
144.4
144.4
144.4
144.4
144.4
144.4
144.4
144.4
144.4
144.4
144.4
144.4
144.4
144.4
144.4
144.4
144.4
144.4
144.4
144.4
144.4
144.4
144.4
144.4
144.4
144.4
144.4
144.4
144.4
144.4
144.4
144.4
144.4
144.4
144.4
144.4
144.4
144.4
144.4
144.4
144.4
144.4
144.4
144.4
144.4
144.4
144.4
144.4
144.4
144.4
144.4
144.4
144.4
144.4
144.4
144.4
144.4
144.4
144.4
144.4
144.4
144.4
144.4
144.4
144.4
144.4
144.4
144.4
144.4
144.4
144.4
144.4
144.4
144.4
144.4
144.4
144.4
144.4
144.4
144.4
144.4
144.4
144.4
144.4
144.4
144.4
144.4
144.4
144.4
144.4
144.4
144.4
144.4
144.4
144.4
144.4
144.4
144.4
144.4
144.4
144.4
144.4
144.4
144.4
144.4
144.4
144.4
144.4
144.4
144.4
144.4
144.4
144.4
144.4
144.4
144.4
144.4
144.4
144.4
144.4
144.4
144.4
144.4
144.4
144.4
144.4
144.4
144.4
144.4
144.4
144.4
144.4
144.4
144.4
144.4
144.4
144.4
144.4
144.4
144.4
144.4
144.4
144.4
144.4
144.4
144.4
144.4
144.4
144.4
144.4
144.4
144.4
144.4
144.4
144.4
144.4
144.4
144.4
144.4
144.4
144.4
144.4
144.4
144.4
144.4
144.4
144.4
144.4
144.4
144.4
144.4
144.4
144.4
144.4
144.4
144.4
144.4
144.4
144.4
144.4
144.4
144.4
144.4
144.4
144.4
144.4
144.4
144.4
144.4
144.4
144.4
144.4
144.4
144.4
144.4
144.4
144.4
144.4
144.4
144.4
144.4
144.4
144.4
144.4
144.4
144.4
144.4
144.4
144.4
144.4
144.4
144.4
144.4
144.4
144.4
144.4
144.4
144.4
144.4
144.4
144.4
144.4
144.4
144.4
144.4
144.4
144.4
144.4
144.4
144.4
144.4
144.4
144.4
144.4
144.4
144.4
144.4
144.4
144.4
144.4
144.4
144.4
144.4
144.4
144.4
144.4
144.4
144.4
144.4
144.4
144.4
144.4
144.4
144.4
144.4
144.4
144.4
144.4
144.4
144.4
144.4
144.4
144.4
144.4
144.4
144.4
144.4
144.4
144.4
144.4
144.4
144.4
144.4
144.4
144.4
144.4
144.4
144.4
144.4
144.4
144.4
144.4
144.4
144.4
144.4
144.4
144.4
144.4
144.4
144.4
144.4
144.4
144.4
144.4
144.4
144.4
144.4
144.4
144.4
144.4
144.4
144.4
144.4
144.4
144.4
144.4
144.4
144.4
144.4
144.4
144.4
144.4
144.4
144.4
144.4
144.4
144.4
144.4
144.4
144.4
144.4
144.4
144.4
144.4
144.4
144.4
144.4
144.4
144.4
144.4
144.4
144.4
144.4
144.4
144.4
144.4
144.4
144.4
144.4
144.4
144.4
144.4
144.4
144.4
144.4
144.4
144.4
144.4
144.4
144.4
144.4
144.4
144.4
144.4
144.4
144.4
144.4
144.4
144.4
144.4
144.4
144.4
144.4
144.4
144.4
144.4
144.4
144.4
144.4
144.4
144.4
144.4
144.4
144.4
144.4
144.4
144.4
144.4
144.4
144.4
144.4
144.4
144.4
144.4
144.4
144.4
144.4
144.4
144.4
144.4
144.4
144.4
144.4
144.4
144.4
144.4
144.4
144.4
144.4
144.4
144.4
144.4
144.4
144.4
144.4
144.4
144.4
144.4
144.4
144.4
144.4
144.4
144.4
144.4
144.4
144.4
144.4
144.4
144.4
144.4
144.4
144.4
144.4
144.4
144.4
144.4
144.4
144.4
144.4
144.4
144.4
144.4
144.4
144.4
144.4
144.4
144.4
144.4
144.4
144.4
144.4
144.4
144.4
144.4
144.4
144.4
144.4
144.4
144.4
144.4
144.4
144.4
144.4
144.4
144.4
144.4
144.4
144.4
144.4
144.4
144.4
144.4
144.4
144.4
144.4
144.4
144.4
144.4
144.4
144.4
144.4
144.4
144.4
144.4
144.4
144.4
144.4
144.4
144.4
144.4
144.4
144.4
144.4
144.4
144.4
144.4
144.4
144.4
144.4
144.4
144.4
144.4
144.4
144.4
144.4
144.4
144.4
144.4
144.4
144.4
144.4
144.4
144.4
144.4
144.4
144.4
144.4
144.4
144.4
144.4
144.4
144.4
144.4
144.4
144.4
144.4
144.4
144.4
144.4
144.4
144.4
144.4
144.4
144.4
144.4
144.4
144.4
144.4
144.4
144.4
144.4
144.4
144.4
144.4
144.4
144.4
144.4
144.4
144.4
144.4
144.4
144.4
144.4
144.4
144.4
144.4
144.4
144.4
144.4
144.4
144.4
144.4
144.4
144.4
144.4
144.4
144.4
144.4
144.4
144.4
144.4
144.4
144.4
144.4
144.4
144.4
144.4
144.4
144.4
144.4
144.4
144.4
144.4
144.4
144.4
144.4
144.4
144.4
144.4
144.4
144.4
144.4
144.4
144.4
144.4
144.4
144.4
144.4
144.4
144.4
144.4
144.4
144.4
144.4
144.4
144.4
144.4
144.4
144.4
144.4
144.4
144.4
144.4
144.4
144.4
144.4
144.4
144.4
144.4
144.4
144.4
144.4
144.4
144.4
144.4
144.4
144.4
144.4
144.4
144.4
144.4
144.4
144.4
144.4
144.4
144.4
144.4
144.4
144.4
144.4
144.4
144.4
144.4
144.4
144.4
144.4
144.4
144.4
144.4
144.4
144.4
144.4
144.4
144.4
144.4
144.4
144.4
144.4
144.4
144.4
144.4
144.4
144.4
144.4
144.4
144.4
144.4
144.4
144.4
144.4
144.4
144.4
144.4
144.4
144.4
144.4
144.4
144.4
144.4
144.4
144.4
144.4
144.4
144.4
144.4
144.4
144.4
144.4
144.4
144.4
144.4
144.4
144.4
144.4
144.4
144.4
144.4
144.4
144.4
144.4
144.4
144.4
144.4
144.4
144.4
144.4
144.4
144.4
144.4
144.4
144.4
144.4
144.4
144.4
144.4
144.4
144.4
144.4
144.4
144.4
144.4
144.4
144.4
144.4
144.4
144.4
144.4
144.4
144.4
144.4
144.4
144.4
144.4
144.4
144.4
144.4
144.4
144.4
144.4
144.4
144.4
144.4
144.4
144.4
144.4
144.4
144.4
144.4
144.4
144.4
144.4
144.4
144.4
144.4
144.4
144.4
144.4
144.4
144.4
144.4
144.4
144.4
144.4
144.4
144.4
144.4
144.4
144.4
144.4
144.4
144.4
144.4
144.4
144.4
144.4
144.4
144.4
144.4
144.4
144.4
144.4
144.4
144.4
144.4
144.4
144.4
144.4
144.4
144.4
144.4
144.4
144.4
144.4
144.4
144.4
144.4
144.4
144.4
144.4
144.4
144.4
144.4
144.4
144.4
144.4
144.4
144.4
144.4
144.4
144.4
144.4
144.4
144.4
144.4
144.4
144.4
144.4
144.4
144.4
144.4
144.4
144.4
144.4
144.4
144.4
144.4
144.4
144.4
144.4
144.4
144.4
144.4
144.4
144.4
144.4
144.4
144.4
144.4
144.4
144.4
144.4
144.4
144.4
144.4
144.4
144.4
144.4
144.4
144.4
144.4
144.4
144.4
144.4
144.4
144.4
144.4
144.4
144.4
144.4
144.4
144.4
144.4
144.4
144.4
144.4
144.4
144.4
144.4
144.4
144.4
144.4
144.4
144.4
144.4
144.4
144.4
144.4
144.4
144.4
144.4
144.4
144.4
144.4
144.4
144.4
144.4
144.4
144.4
144.4
144.4
144.4
144.4
144.4
144.4
144.4
144.4
144.4
144.4
144.4
144.4
144.4
144.4
144.401
144.401
144.403
144.4
144.4
144.4
144.4
144.4
144.4
144.4
144.4
144.4
144.4
144.4
144.4
144.4
144.4
144.4
144.4
144.4
144.4
144.4
144.4
144.4
144.4
144.4
144.4
144.4
144.4
144.4
144.4
144.4
144.4
144.4
144.4
144.4
144.4
144.4
144.4
144.4
144.4
144.4
144.4
144.4
144.4
144.4
144.4
144.401
144.401
144.402
144.405
144.411
144.427
144.4
144.4
144.4
144.4
144.4
144.4
144.4
144.4
144.4
144.4
144.4
144.4
144.4
144.4
144.4
144.4
144.4
144.4
144.4
144.4
144.4
144.4
144.4
144.4
144.4
144.4
144.4
144.4
144.4
144.4
144.4
144.4
144.4
144.4
144.4
144.4
144.4
144.4
144.4
144.4
144.4
144.401
144.401
144.403
144.405
144.411
144.423
144.449
144.505
144.646
144.4
144.4
144.4
144.4
144.4
144.4
144.4
144.4
144.4
144.4
144.4
144.4
144.4
144.4
144.4
144.4
144.4
144.4
144.4
144.4
144.4
144.4
144.4
144.4
144.4
144.4
144.4
144.4
144.4
144.4
144.4
144.4
144.4
144.4
144.4
144.4
144.4
144.4
144.401
144.401
144.403
144.406
144.412
144.424
144.45
144.504
144.615
144.845
145.321
146.377
144.4
144.4
144.4
144.4
144.4
144.4
144.4
144.4
144.4
144.4
144.4
144.4
144.4
144.4
144.4
144.4
144.4
144.4
144.4
144.4
144.4
144.4
144.4
144.4
144.4
144.4
144.4
144.4
144.4
144.4
144.4
144.4
144.4
144.4
144.4
144.401
144.402
144.403
144.406
144.413
144.426
144.453
144.508
144.62
144.848
145.3
146.159
147.683
150.153
153.985
144.4
144.4
144.4
144.4
144.4
144.4
144.4
144.4
144.4
144.4
144.4
144.4
144.4
144.4
144.4
144.4
144.4
144.4
144.4
144.4
144.4
144.4
144.4
144.4
144.4
144.4
144.4
144.4
144.4
144.4
144.4
144.4
144.401
144.402
144.404
144.407
144.415
144.429
144.458
144.516
144.634
144.867
145.322
146.174
147.66
150.008
153.317
157.53
162.539
168.495
144.4
144.4
144.4
144.4
144.4
144.4
144.4
144.4
144.4
144.4
144.4
144.4
144.4
144.4
144.4
144.4
144.4
144.4
144.4
144.4
144.4
144.4
144.4
144.4
144.4
144.4
144.4
144.4
144.401
144.401
144.402
144.404
144.409
144.417
144.433
144.466
144.53
144.656
144.903
145.376
146.244
147.734
150.053
153.291
157.386
162.198
167.587
173.441
179.687
186.394
144.4
144.4
144.4
144.4
144.4
144.4
144.4
144.4
144.4
144.4
144.4
144.4
144.4
144.4
144.4
144.4
144.4
144.4
144.4
144.4
144.4
144.4
144.4
144.4
144.4
144.401
144.402
144.403
144.406
144.411
144.421
144.44
144.477
144.549
144.69
144.959
145.464
146.374
147.9
150.233
153.444
157.472
162.183
167.448
173.156
179.205
185.488
191.884
198.289
204.671
144.4
144.4
144.4
144.4
144.4
144.4
144.4
144.4
144.4
144.4
144.4
144.4
144.4
144.4
144.4
144.4
144.4
144.4
144.4
144.4
144.4
144.401
144.401
144.402
144.404
144.407
144.413
144.426
144.449
144.493
144.577
144.738
145.041
145.596
146.571
148.168
150.552
153.775
157.768
162.408
167.576
173.171
179.101
185.262
191.539
197.806
203.949
209.881
215.566
221.02
144.4
144.4
144.4
144.4
144.4
144.4
144.4
144.4
144.4
144.4
144.4
144.4
144.4
144.4
144.4
144.4
144.4
144.4
144.401
144.402
144.403
144.405
144.409
144.418
144.433
144.462
144.516
144.617
144.807
145.156
145.783
146.853
148.554
151.024
154.291
158.279
162.873
167.964
173.464
179.287
185.34
191.514
197.691
203.759
209.626
215.233
220.552
225.586
230.368
234.949
144.4
144.4
144.4
144.4
144.4
144.4
144.4
144.4
144.4
144.4
144.4
144.4
144.4
144.4
144.401
144.401
144.402
144.404
144.407
144.413
144.424
144.444
144.481
144.549
144.675
144.905
145.319
146.042
147.239
149.079
151.668
155.007
159.014
163.582
168.616
174.034
179.762
185.713
191.785
197.869
203.857
209.66
215.218
220.498
225.495
230.219
234.695
238.954
243.042
247.012
144.4
144.4
144.4
144.4
144.4
144.4
144.4
144.4
144.4
144.4
144.401
144.401
144.402
144.403
144.406
144.41
144.418
144.433
144.46
144.509
144.597
144.758
145.045
145.548
146.399
147.758
149.77
152.506
155.939
159.985
164.545
169.536
174.888
180.531
186.385
192.357
198.342
204.24
209.966
215.461
220.691
225.649
230.341
234.787
239.012
243.042
246.905
250.628
254.253
257.838
144.4
144.4
144.4
144.4
144.4
144.4
144.401
144.401
144.402
144.403
144.405
144.409
144.415
144.427
144.448
144.485
144.551
144.67
144.879
145.246
145.87
146.887
148.447
150.663
153.566
157.109
161.207
165.772
170.733
176.029
181.597
187.36
193.232
199.114
204.914
210.55
215.967
221.132
226.035
230.682
235.089
239.279
243.278
247.109
250.794
254.357
257.818
261.194
264.516
267.849
144.4
144.4
144.401
144.401
144.402
144.403
144.405
144.408
144.413
144.423
144.44
144.471
144.524
144.617
144.779
145.06
145.537
146.322
147.55
149.349
151.793
154.877
158.538
162.696
167.276
172.218
177.467
182.966
188.643
194.415
200.19
205.882
211.417
216.742
221.826
226.659
231.246
235.602
239.747
243.704
247.496
251.146
254.672
258.095
261.43
264.691
267.886
271.023
274.113
277.223
144.401
144.402
144.403
144.404
144.407
144.413
144.421
144.437
144.463
144.508
144.585
144.719
144.947
145.331
145.962
146.958
148.443
150.514
153.2
156.468
160.25
164.471
169.072
174.002
179.211
184.646
190.238
195.908
201.572
207.149
212.571
217.79
222.779
227.528
232.041
236.333
240.42
244.325
248.07
251.675
255.16
258.541
261.835
265.055
268.21
271.306
274.345
277.325
280.242
283.101
285.972
144.408
144.413
144.421
144.435
144.459
144.5
144.569
144.686
144.882
145.209
145.741
146.58
147.842
149.628
151.99
154.922
158.369
162.266
166.552
171.176
176.098
181.271
186.644
192.151
197.717
203.262
208.714
214.012
219.113
223.994
228.645
233.071
237.285
241.304
245.147
248.836
252.388
255.824
259.157
262.405
265.58
268.691
271.746
274.746
277.69
280.576
283.397
286.151
288.838
291.466
294.103
144.436
144.46
144.499
144.564
144.673
144.852
145.146
145.619
146.359
147.471
149.053
151.168
153.827
156.992
160.606
164.61
168.956
173.605
178.519
183.658
188.968
194.386
199.841
205.261
210.579
215.741
220.712
225.471
230.011
234.338
238.463
242.402
246.174
249.797
253.289
256.668
259.949
263.145
266.27
269.334
272.342
275.299
278.204
281.054
283.845
286.572
289.232
291.827
294.358
296.827
299.247
301.679
144.677
144.851
145.13
145.574
146.26
147.281
148.73
150.671
153.123
156.063
159.44
163.201
167.302
171.703
176.374
181.281
186.381
191.624
196.947
202.284
207.567
212.74
217.756
222.585
227.21
231.627
235.843
239.868
243.717
247.407
250.956
254.381
257.696
260.918
264.058
267.129
270.14
273.098
276.007
278.868
281.678
284.433
287.129
289.761
292.329
294.834
297.277
299.663
301.994
304.274
306.515
308.773
146.266
147.247
148.623
150.455
152.766
155.537
158.727
162.288
166.178
170.363
174.813
179.502
184.395
189.45
194.617
199.834
205.041
210.178
215.194
220.052
224.727
229.207
233.491
237.585
241.499
245.249
248.849
252.316
255.665
258.911
262.068
265.146
268.158
271.113
274.017
276.874
279.687
282.452
285.167
287.827
290.427
292.965
295.441
297.856
300.213
302.517
304.768
306.973
309.133
311.253
313.342
315.449
152.729
155.387
158.438
161.841
165.558
169.557
173.814
178.304
183.001
187.871
192.871
197.948
203.047
208.11
213.086
217.934
222.622
227.133
231.458
235.598
239.561
243.356
246.998
250.501
253.878
257.145
260.315
263.401
266.413
269.362
272.255
275.101
277.903
280.664
283.381
286.051
288.669
291.233
293.737
296.181
298.565
300.892
303.166
305.388
307.561
309.691
311.78
313.83
315.844
317.825
319.782
321.76
165.421
169.267
173.357
177.673
182.192
186.885
191.718
196.644
201.615
206.577
211.481
216.283
220.95
225.458
229.795
233.956
237.944
241.767
245.436
248.962
252.359
255.641
258.82
261.909
264.918
267.859
270.74
273.569
276.354
279.097
281.801
284.465
287.087
289.661
292.183
294.649
297.057
299.408
301.703
303.943
306.133
308.275
310.372
312.428
314.446
316.427
318.375
320.292
322.179
324.041
325.883
327.746
181.958
186.489
191.16
195.934
200.766
205.609
210.415
215.142
219.755
224.229
228.547
232.702
236.691
240.521
244.198
247.733
251.137
254.423
257.604
260.689
263.691
266.62
269.486
272.295
275.056
277.776
280.457
283.101
285.709
288.278
290.803
293.28
295.705
298.074
300.388
302.646
304.851
307.006
309.114
311.177
313.199
315.183
317.131
319.044
320.927
322.78
324.607
326.407
328.184
329.94
331.68
333.441
200.514
205.225
209.915
214.543
219.076
223.487
227.758
231.877
235.843
239.655
243.319
246.845
250.242
253.519
256.69
259.764
262.751
265.662
268.507
271.293
274.027
276.717
279.368
281.984
284.566
287.115
289.627
292.1
294.528
296.907
299.233
301.506
303.726
305.893
308.011
310.082
312.109
314.095
316.043
317.955
319.833
321.68
323.499
325.289
327.055
328.797
330.516
332.214
333.892
335.552
337.2
338.868
223.264
227.46
231.518
235.433
239.204
242.834
246.331
249.702
252.956
256.103
259.154
262.118
265.003
267.82
270.577
273.28
275.936
278.552
281.132
283.68
286.197
288.683
291.136
293.553
295.928
298.257
300.538
302.767
304.944
307.071
309.148
311.181
313.169
315.117
317.027
318.902
320.743
322.553
324.335
326.089
327.818
329.523
331.206
332.869
334.511
336.135
337.74
339.328
340.901
342.464
344.045
239.198
242.772
246.218
249.544
252.758
255.868
258.883
261.811
264.662
267.443
270.163
272.828
275.446
278.022
280.561
283.067
285.544
287.994
290.415
292.806
295.163
297.482
299.759
301.99
304.171
306.303
308.387
310.422
312.412
314.36
316.267
318.138
319.973
321.775
323.547
325.29
327.006
328.697
330.365
332.011
333.637
335.242
336.829
338.399
339.951
341.487
343.008
344.513
346.004
347.487
348.987
252.949
256.006
258.97
261.851
264.656
267.392
270.067
272.687
275.259
277.79
280.282
282.743
285.174
287.578
289.958
292.311
294.637
296.933
299.193
301.413
303.591
305.722
307.806
309.843
311.832
313.778
315.683
317.548
319.376
321.17
322.932
324.663
326.366
328.043
329.695
331.324
332.931
334.518
336.086
337.636
339.168
340.684
342.183
343.668
345.137
346.593
348.034
349.461
350.876
352.283
353.706
267.681
270.302
272.869
275.389
277.867
280.308
282.717
285.096
287.45
289.78
292.088
294.372
296.631
298.862
301.061
303.222
305.343
307.42
309.453
311.439
313.382
315.281
317.14
318.96
320.744
322.495
324.214
325.903
327.565
329.2
330.812
332.4
333.968
335.515
337.044
338.555
340.049
341.526
342.989
344.436
345.869
347.288
348.694
350.086
351.465
352.832
354.186
355.528
356.864
358.213
278.266
280.649
283
285.322
287.62
289.895
292.149
294.384
296.597
298.787
300.951
303.086
305.185
307.247
309.268
311.245
313.18
315.071
316.921
318.731
320.505
322.243
323.948
325.622
327.268
328.886
330.479
332.048
333.595
335.121
336.628
338.116
339.587
341.042
342.48
343.904
345.314
346.709
348.091
349.46
350.816
352.16
353.491
354.811
356.118
357.413
358.697
359.97
361.237
362.516
288.097
290.312
292.507
294.685
296.844
298.985
301.105
303.2
305.268
307.303
309.303
311.264
313.185
315.064
316.902
318.7
320.46
322.184
323.873
325.531
327.159
328.759
330.332
331.881
333.406
334.91
336.393
337.858
339.304
340.734
342.148
343.546
344.93
346.3
347.657
349.001
350.333
351.652
352.959
354.254
355.538
356.811
358.072
359.322
360.56
361.788
363.005
364.211
365.411
366.623
297.385
299.469
301.535
303.583
305.608
307.607
309.576
311.511
313.41
315.271
317.092
318.874
320.618
322.325
323.997
325.636
327.244
328.824
330.376
331.902
333.405
334.886
336.345
337.784
339.205
340.609
341.996
343.368
344.725
346.068
347.398
348.715
350.02
351.312
352.593
353.863
355.121
356.369
357.605
358.831
360.047
361.251
362.445
363.629
364.802
365.964
367.116
368.258
369.394
370.54
306.22
308.173
310.102
312.002
313.87
315.705
317.503
319.264
320.988
322.674
324.326
325.945
327.531
329.088
330.618
332.12
333.599
335.054
336.487
337.9
339.294
340.671
342.03
343.374
344.702
346.017
347.318
348.607
349.883
351.147
352.4
353.642
354.873
356.093
357.303
358.503
359.692
360.872
362.042
363.201
364.351
365.49
366.62
367.74
368.849
369.949
371.038
372.118
373.192
374.275
314.581
316.38
318.148
319.881
321.579
323.242
324.87
326.464
328.027
329.559
331.063
332.54
333.992
335.421
336.826
338.212
339.577
340.924
342.254
343.568
344.867
346.152
347.423
348.681
349.927
351.161
352.384
353.596
354.797
355.989
357.17
358.341
359.503
360.656
361.799
362.932
364.056
365.171
366.277
367.373
368.459
369.537
370.604
371.662
372.711
373.749
374.778
375.798
376.811
377.833
322.404
324.037
325.637
327.204
328.739
330.244
331.719
333.168
334.592
335.991
337.367
338.723
340.058
341.375
342.674
343.957
345.224
346.477
347.716
348.942
350.156
351.358
352.549
353.73
354.9
356.06
357.211
358.352
359.485
360.608
361.722
362.827
363.923
365.011
366.09
367.161
368.222
369.275
370.319
371.354
372.38
373.397
374.404
375.403
376.392
377.371
378.341
379.302
380.258
381.219
331.148
332.593
334.011
335.403
336.771
338.116
339.439
340.743
342.027
343.294
344.544
345.778
346.997
348.203
349.396
350.576
351.745
352.902
354.049
355.186
356.314
357.432
358.541
359.641
360.733
361.816
362.891
363.957
365.016
366.066
367.108
368.143
369.169
370.187
371.196
372.198
373.191
374.175
375.151
376.119
377.077
378.027
378.967
379.899
380.821
381.734
382.638
383.536
384.439
337.766
339.077
340.366
341.635
342.885
344.118
345.333
346.532
347.717
348.887
350.045
351.19
352.323
353.446
354.558
355.66
356.753
357.836
358.911
359.977
361.036
362.086
363.128
364.163
365.19
366.21
367.222
368.226
369.223
370.213
371.195
372.17
373.137
374.096
375.047
375.99
376.926
377.853
378.772
379.682
380.584
381.477
382.362
383.237
384.103
384.961
385.809
386.652
387.499
343.954
345.15
346.328
347.491
348.639
349.772
350.893
352.001
353.098
354.184
355.259
356.325
357.381
358.428
359.467
360.498
361.521
362.537
363.545
364.545
365.539
366.526
367.505
368.478
369.444
370.403
371.355
372.301
373.239
374.171
375.095
376.012
376.922
377.824
378.719
379.606
380.486
381.357
382.221
383.076
383.923
384.761
385.591
386.412
387.224
388.027
388.822
389.61
390.402
350.862
351.944
353.014
354.072
355.119
356.156
357.184
358.202
359.212
360.213
361.207
362.193
363.172
364.143
365.108
366.067
367.018
367.964
368.903
369.835
370.762
371.682
372.596
373.504
374.405
375.3
376.189
377.071
377.946
378.814
379.676
380.531
381.378
382.219
383.052
383.877
384.694
385.504
386.306
387.099
387.884
388.661
389.429
390.188
390.939
391.68
392.416
393.154
356.256
357.253
358.241
359.219
360.19
361.152
362.107
363.054
363.994
364.928
365.856
366.777
367.692
368.601
369.504
370.402
371.293
372.18
373.06
373.935
374.804
375.668
376.525
377.377
378.223
379.063
379.897
380.725
381.546
382.361
383.169
383.97
384.764
385.552
386.332
387.104
387.87
388.627
389.377
390.118
390.851
391.576
392.293
393
393.699
394.39
395.074
395.759
362.285
363.2
364.107
365.008
365.902
366.79
367.672
368.549
369.42
370.286
371.146
372.002
372.852
373.697
374.537
375.372
376.202
377.027
377.847
378.661
379.47
380.274
381.072
381.865
382.651
383.432
384.207
384.976
385.739
386.495
387.245
387.987
388.723
389.452
390.174
390.888
391.595
392.293
392.984
393.667
394.341
395.008
395.665
396.314
396.954
397.588
398.223
367.066
367.914
368.756
369.593
370.424
371.251
372.073
372.89
373.702
374.51
375.314
376.113
376.907
377.697
378.483
379.264
380.04
380.811
381.578
382.339
383.096
383.848
384.594
385.335
386.071
386.801
387.525
388.243
388.955
389.661
390.36
391.053
391.739
392.418
393.09
393.754
394.411
395.061
395.702
396.336
396.961
397.578
398.187
398.787
399.379
399.964
400.549
372.401
373.183
373.96
374.734
375.503
376.268
377.029
377.786
378.54
379.289
380.034
380.776
381.513
382.246
382.975
383.699
384.42
385.135
385.846
386.552
387.254
387.95
388.641
389.327
390.007
390.682
391.351
392.014
392.671
393.321
393.966
394.603
395.233
395.857
396.473
397.082
397.684
398.277
398.863
399.441
400.01
400.571
401.123
401.667
402.205
402.741
376.676
377.402
378.123
378.842
379.557
380.268
380.977
381.681
382.383
383.08
383.774
384.465
385.151
385.834
386.513
387.188
387.859
388.525
389.187
389.845
390.497
391.145
391.788
392.426
393.058
393.685
394.306
394.921
395.531
396.134
396.73
397.321
397.904
398.48
399.05
399.612
400.167
400.713
401.253
401.784
402.306
402.821
403.327
403.824
404.315
404.805
380.751
381.423
382.093
382.759
383.423
384.083
384.741
385.396
386.047
386.695
387.34
387.982
388.62
389.254
389.885
390.512
391.135
391.754
392.368
392.978
393.584
394.185
394.781
395.371
395.957
396.537
397.112
397.681
398.244
398.801
399.352
399.896
400.434
400.964
401.488
402.005
402.514
403.015
403.509
403.994
404.472
404.941
405.402
405.854
406.3
406.743
384.635
385.257
385.877
386.494
387.108
387.72
388.33
388.936
389.54
390.14
390.738
391.332
391.924
392.511
393.096
393.676
394.253
394.826
395.394
395.958
396.518
397.073
397.624
398.169
398.71
399.245
399.775
400.299
400.817
401.329
401.835
402.334
402.827
403.313
403.793
404.265
404.729
405.187
405.636
406.077
406.511
406.936
407.352
407.761
408.162
408.561
388.338
388.912
389.484
390.054
390.622
391.187
391.75
392.31
392.867
393.422
393.974
394.523
395.069
395.612
396.151
396.686
397.218
397.746
398.27
398.79
399.306
399.817
400.323
400.824
401.321
401.812
402.298
402.778
403.252
403.721
404.183
404.639
405.089
405.532
405.968
406.396
406.818
407.232
407.638
408.037
408.427
408.809
409.183
409.549
409.907
410.262
391.867
392.395
392.922
393.446
393.968
394.489
395.007
395.522
396.036
396.546
397.054
397.559
398.061
398.56
399.055
399.547
400.036
400.521
401.001
401.478
401.951
402.419
402.882
403.341
403.794
404.243
404.686
405.124
405.556
405.982
406.402
406.816
407.223
407.623
408.017
408.404
408.783
409.156
409.52
409.877
410.225
410.565
410.897
411.221
411.537
411.85
395.229
395.713
396.195
396.676
397.155
397.632
398.107
398.58
399.05
399.518
399.983
400.445
400.905
401.361
401.814
402.264
402.711
403.153
403.592
404.027
404.458
404.884
405.306
405.723
406.135
406.542
406.944
407.34
407.731
408.115
408.494
408.867
409.233
409.593
409.945
410.291
410.63
410.961
411.285
411.601
411.908
412.208
412.499
412.782
413.058
413.329
398.871
399.312
399.75
400.187
400.622
401.055
401.486
401.915
402.341
402.765
403.187
403.605
404.02
404.433
404.841
405.247
405.649
406.047
406.441
406.831
407.217
407.598
407.975
408.346
408.713
409.075
409.431
409.781
410.126
410.465
410.797
411.124
411.443
411.756
412.062
412.361
412.653
412.937
413.213
413.481
413.741
413.993
414.236
414.472
414.703
401.876
402.275
402.673
403.07
403.464
403.857
404.248
404.636
405.023
405.406
405.788
406.166
406.542
406.914
407.283
407.649
408.011
408.37
408.725
409.075
409.421
409.763
410.101
410.433
410.761
411.083
411.4
411.712
412.018
412.317
412.611
412.899
413.18
413.454
413.721
413.981
414.234
414.48
414.717
414.947
415.168
415.381
415.586
415.783
415.975
404.732
405.092
405.451
405.808
406.163
406.517
406.869
407.218
407.566
407.911
408.253
408.593
408.93
409.264
409.594
409.922
410.245
410.566
410.882
411.194
411.502
411.806
412.105
412.399
412.689
412.973
413.253
413.526
413.794
414.056
414.312
414.562
414.805
415.042
415.271
415.494
415.709
415.917
416.117
416.309
416.493
416.668
416.835
416.995
417.148
407.766
408.087
408.406
408.723
409.039
409.353
409.665
409.975
410.282
410.587
410.889
411.189
411.485
411.778
412.068
412.355
412.638
412.917
413.192
413.463
413.729
413.992
414.249
414.502
414.749
414.991
415.228
415.459
415.685
415.904
416.117
416.324
416.524
416.717
416.903
417.082
417.253
417.416
417.572
417.719
417.858
417.988
418.111
418.227
410.302
410.586
410.869
411.15
411.429
411.706
411.981
412.254
412.525
412.794
413.059
413.323
413.583
413.84
414.093
414.344
414.59
414.833
415.072
415.307
415.538
415.764
415.986
416.202
416.414
416.621
416.822
417.017
417.207
417.391
417.568
417.739
417.903
418.061
418.211
418.355
418.49
418.618
418.738
418.85
418.953
419.048
419.135
419.215
412.705
412.954
413.2
413.446
413.689
413.931
414.171
414.409
414.644
414.877
415.108
415.336
415.56
415.782
416.001
416.216
416.428
416.636
416.84
417.04
417.235
417.427
417.613
417.795
417.972
418.144
418.31
418.471
418.626
418.775
418.918
419.055
419.184
419.307
419.423
419.532
419.633
419.727
419.812
419.889
419.958
420.018
420.07
420.115
414.979
415.193
415.405
415.616
415.825
416.033
416.238
416.442
416.643
416.842
417.038
417.232
417.422
417.61
417.795
417.976
418.153
418.327
418.497
418.663
418.825
418.983
419.136
419.284
419.427
419.565
419.698
419.825
419.946
420.062
420.171
420.274
420.37
420.459
420.542
420.617
420.685
420.744
420.796
420.84
420.875
420.901
420.919
420.929
417.308
417.487
417.665
417.841
418.015
418.187
418.357
418.525
418.691
418.854
419.014
419.172
419.327
419.478
419.626
419.771
419.912
420.049
420.182
420.311
420.436
420.556
420.671
420.782
420.887
420.987
421.082
421.17
421.253
421.33
421.4
421.464
421.521
421.571
421.613
421.648
421.675
421.694
421.706
421.707
421.7
421.685
421.663
419.304
419.451
419.596
419.739
419.881
420.021
420.159
420.295
420.428
420.559
420.688
420.814
420.936
421.056
421.172
421.284
421.393
421.499
421.6
421.697
421.79
421.878
421.962
422.041
422.114
422.183
422.245
422.302
422.353
422.398
422.437
422.469
422.494
422.512
422.524
422.526
422.521
422.509
422.488
422.458
422.42
422.372
422.317
421.184
421.299
421.413
421.525
421.636
421.745
421.851
421.956
422.058
422.158
422.256
422.35
422.442
422.53
422.615
422.697
422.775
422.849
422.92
422.986
423.048
423.106
423.158
423.206
423.249
423.287
423.319
423.345
423.365
423.38
423.388
423.389
423.383
423.37
423.351
423.323
423.288
423.244
423.192
423.131
423.061
422.983
422.896
423.036
423.12
423.202
423.282
423.361
423.437
423.512
423.584
423.654
423.721
423.786
423.847
423.906
423.961
424.012
424.06
424.105
424.145
424.182
424.214
424.241
424.264
424.282
424.295
424.304
424.305
424.301
424.292
424.277
424.255
424.226
424.191
424.148
424.099
424.041
423.975
423.902
423.82
423.729
423.629
423.519
423.401
424.666
424.72
424.773
424.824
424.874
424.921
424.966
425.009
425.05
425.088
425.124
425.156
425.185
425.211
425.234
425.253
425.268
425.28
425.288
425.291
425.289
425.282
425.272
425.256
425.235
425.208
425.176
425.137
425.093
425.042
424.985
424.92
424.848
424.77
424.683
424.588
424.485
424.374
424.253
424.124
423.985
423.837
426.192
426.218
426.243
426.265
426.286
426.306
426.323
426.337
426.35
426.36
426.367
426.372
426.372
426.37
426.364
426.355
426.343