/*--------------------------------*- C++ -*----------------------------------*\
| =========                 |                                                 |
| \\      /  F ield         | OpenFOAM: The Open Source CFD Toolbox           |
|  \\    /   O peration     | Version:  v1706                                 |
|   \\  /    A nd           | Web:      www.OpenFOAM.com                      |
|    \\/     M anipulation  |                                                 |
\*---------------------------------------------------------------------------*/
FoamFile
{
    version     2.0;
    format      ascii;
    class       volVectorField;
    location    "1.1e-05";
    object      U;
}
// * * * * * * * * * * * * * * * * * * * * * * * * * * * * * * * * * * * * * //

dimensions      [0 1 -1 0 0 0 0];


internalField   nonuniform List<vector> 
30038
(
(2764.5 -3.7002e-11 8.45364e-15)
(2764.5 -3.49774e-11 2.83494e-15)
(2764.5 -3.59195e-11 9.41012e-15)
(2764.5 -3.6333e-11 1.59682e-16)
(2764.5 -3.76166e-11 6.58523e-15)
(2764.5 -3.79683e-11 3.84887e-15)
(2764.5 -3.89012e-11 6.29953e-15)
(2764.5 -3.74618e-11 1.07522e-14)
(2764.5 -3.53776e-11 8.30498e-15)
(2764.5 -3.63298e-11 9.17326e-16)
(2764.5 -3.54014e-11 9.16313e-15)
(2764.5 -3.75467e-11 9.53214e-15)
(2764.5 -3.66222e-11 5.74959e-15)
(2764.5 -3.76529e-11 3.2331e-15)
(2764.5 -4.31095e-11 2.05843e-15)
(2764.5 -4.38944e-11 1.03618e-14)
(2764.5 -4.75831e-11 7.96925e-15)
(2764.5 -4.77748e-11 3.14724e-15)
(2764.5 -4.51405e-11 1.04378e-15)
(2764.5 -5.01935e-11 8.55565e-15)
(2764.5 -5.24071e-11 7.80517e-15)
(2764.5 -5.14832e-11 1.01248e-14)
(2764.5 -5.4152e-11 -2.73187e-15)
(2764.5 -5.51138e-11 6.85077e-15)
(2764.5 -5.57743e-11 6.66636e-15)
(2764.5 -5.73108e-11 4.02553e-15)
(2764.5 -5.60329e-11 1.25834e-15)
(2764.5 -5.70295e-11 6.46522e-15)
(2764.5 -5.90779e-11 1.04057e-14)
(2764.5 -6.29031e-11 9.47353e-15)
(2764.5 -6.15509e-11 4.35779e-15)
(2764.5 -6.6159e-11 1.1498e-14)
(2764.5 -7.0343e-11 7.0879e-15)
(2764.5 -7.29527e-11 4.92757e-15)
(2764.5 -7.4946e-11 1.0553e-14)
(2764.5 -7.83868e-11 9.04775e-15)
(2764.5 -7.69227e-11 6.40681e-16)
(2764.5 -8.00708e-11 4.65604e-15)
(2764.5 -1.17714e-10 2.20026e-14)
(2764.5 -1.17597e-10 1.8523e-14)
(2764.5 -1.17305e-10 2.22519e-14)
(2764.5 -1.16821e-10 1.51529e-14)
(2764.5 -1.20369e-10 2.41227e-14)
(2764.5 -1.16804e-10 2.31196e-14)
(2764.5 -1.19093e-10 2.32064e-14)
(2764.5 -1.2732e-10 2.49148e-14)
(2764.5 -1.26952e-10 1.7239e-14)
(2764.5 -1.29887e-10 1.90441e-14)
(2764.5 -1.29616e-10 2.54982e-14)
(2764.5 -1.29669e-10 1.70605e-14)
(2764.5 -1.35552e-10 1.65927e-14)
(2764.5 -1.27156e-10 1.79537e-14)
(2764.5 -1.27245e-10 1.68381e-14)
(2764.5 -1.31857e-10 2.04829e-14)
(2764.5 -1.30346e-10 1.91351e-14)
(2764.5 -1.36083e-10 1.97941e-14)
(2764.5 -1.38381e-10 1.52547e-14)
(2764.5 -1.39038e-10 1.95089e-14)
(2764.5 -1.44991e-10 1.6186e-14)
(2764.5 -1.47013e-10 1.87064e-14)
(2764.5 -1.49112e-10 2.05945e-14)
(2764.5 -1.56231e-10 2.07019e-14)
(2764.5 -1.56465e-10 1.76391e-14)
(2764.5 -1.6221e-10 1.88902e-14)
(2764.5 -1.6337e-10 1.93189e-14)
(2764.5 -1.64287e-10 1.8073e-14)
(2764.5 -1.62879e-10 1.77137e-14)
(2764.5 -1.69548e-10 2.35259e-14)
(2764.5 -1.73788e-10 1.22818e-14)
(2764.5 -1.71699e-10 2.27102e-14)
(2764.5 -1.78087e-10 2.79917e-14)
(2764.5 -1.78203e-10 2.15897e-14)
(2764.5 -1.84625e-10 2.59096e-14)
(2764.5 -1.88225e-10 1.86555e-14)
(2764.5 -2.01543e-10 1.90995e-14)
(2764.5 -2.08173e-10 2.11861e-14)
(2764.5 -1.88236e-10 3.33393e-14)
(2764.5 -1.90107e-10 3.48958e-14)
(2764.5 -1.87533e-10 3.58553e-14)
(2764.5 -1.90772e-10 2.79759e-14)
(2764.5 -1.96675e-10 3.16131e-14)
(2764.5 -2.00052e-10 3.37383e-14)
(2764.5 -1.97815e-10 3.56859e-14)
(2764.5 -2.05436e-10 2.85948e-14)
(2764.5 -2.08497e-10 2.76769e-14)
(2764.5 -2.11567e-10 3.09537e-14)
(2764.5 -2.11604e-10 2.81224e-14)
(2764.5 -2.12759e-10 3.13581e-14)
(2764.5 -2.2028e-10 3.08586e-14)
(2764.5 -2.23342e-10 3.34596e-14)
(2764.5 -2.17868e-10 3.10439e-14)
(2764.5 -2.21574e-10 3.53818e-14)
(2764.5 -2.22612e-10 3.36448e-14)
(2764.5 -2.23724e-10 3.5305e-14)
(2764.5 -2.24859e-10 3.28752e-14)
(2764.5 -2.29926e-10 3.28244e-14)
(2764.5 -2.34912e-10 2.86701e-14)
(2764.5 -2.39883e-10 3.19684e-14)
(2764.5 -2.42484e-10 2.88189e-14)
(2764.5 -2.53088e-10 2.702e-14)
(2764.5 -2.5921e-10 3.22223e-14)
(2764.5 -2.64769e-10 3.40946e-14)
(2764.5 -2.72106e-10 3.09411e-14)
(2764.5 -2.77252e-10 2.68114e-14)
(2764.5 -2.77147e-10 2.72463e-14)
(2764.5 -2.75616e-10 3.22196e-14)
(2764.5 -2.778e-10 3.00631e-14)
(2764.5 -2.76807e-10 3.39047e-14)
(2764.5 -2.81286e-10 3.20174e-14)
(2764.5 -2.83736e-10 3.26974e-14)
(2764.5 -2.8924e-10 3.37579e-14)
(2764.5 -2.89628e-10 3.64715e-14)
(2764.5 -3.03591e-10 3.02923e-14)
(2764.5 -3.14369e-10 3.21361e-14)
(2764.5 -2.50275e-10 4.52651e-14)
(2764.5 -2.5913e-10 4.44143e-14)
(2764.5 -2.63347e-10 4.36921e-14)
(2764.5 -2.68297e-10 3.99371e-14)
(2764.5 -2.70245e-10 4.8095e-14)
(2764.5 -2.71778e-10 4.42436e-14)
(2764.5 -2.70551e-10 3.98219e-14)
(2764.5 -2.74e-10 3.81904e-14)
(2764.5 -2.79837e-10 4.49283e-14)
(2764.5 -2.81938e-10 4.13068e-14)
(2764.5 -2.85657e-10 4.55416e-14)
(2764.5 -2.853e-10 4.53943e-14)
(2764.5 -2.91313e-10 4.90477e-14)
(2764.5 -2.98527e-10 4.13473e-14)
(2764.5 -2.98932e-10 3.9915e-14)
(2764.5 -3.03143e-10 4.28103e-14)
(2764.5 -3.0762e-10 3.83104e-14)
(2764.5 -3.10341e-10 4.32378e-14)
(2764.5 -3.11453e-10 4.54632e-14)
(2764.5 -3.14483e-10 4.4231e-14)
(2764.5 -3.19612e-10 4.14018e-14)
(2764.5 -3.24696e-10 3.98886e-14)
(2764.5 -3.25167e-10 4.37584e-14)
(2764.5 -3.31306e-10 4.63903e-14)
(2764.5 -3.38139e-10 4.33293e-14)
(2764.5 -3.46797e-10 4.5557e-14)
(2764.5 -3.5703e-10 4.54201e-14)
(2764.5 -3.67366e-10 4.17092e-14)
(2764.5 -3.78197e-10 4.11637e-14)
(2764.5 -3.85043e-10 4.89551e-14)
(2764.5 -3.92136e-10 4.6058e-14)
(2764.5 -3.94897e-10 4.77621e-14)
(2764.5 -3.99922e-10 4.60005e-14)
(2764.5 -4.01544e-10 4.32889e-14)
(2764.5 -4.09051e-10 4.49833e-14)
(2764.5 -4.1047e-10 4.978e-14)
(2764.5 -4.19378e-10 4.83317e-14)
(2764.5 -4.29576e-10 4.90325e-14)
(2764.5 -3.04492e-10 5.54161e-14)
(2764.5 -3.16702e-10 5.58368e-14)
(2764.5 -3.2263e-10 5.68547e-14)
(2764.5 -3.29221e-10 5.69344e-14)
(2764.5 -3.37828e-10 5.75808e-14)
(2764.5 -3.39518e-10 5.47664e-14)
(2764.5 -3.40317e-10 5.6197e-14)
(2764.5 -3.42576e-10 5.79476e-14)
(2764.5 -3.53243e-10 6.17151e-14)
(2764.5 -3.57562e-10 5.95638e-14)
(2764.5 -3.64516e-10 5.82613e-14)
(2764.5 -3.69436e-10 5.69338e-14)
(2764.5 -3.69988e-10 5.6095e-14)
(2764.5 -3.75284e-10 4.96851e-14)
(2764.5 -3.80597e-10 5.03836e-14)
(2764.5 -3.85567e-10 5.60038e-14)
(2764.5 -3.92331e-10 6.24377e-14)
(2764.5 -3.95767e-10 5.95473e-14)
(2764.5 -3.97137e-10 5.22776e-14)
(2764.5 -3.97674e-10 5.98168e-14)
(2764.5 -3.99401e-10 5.75336e-14)
(2764.5 -4.04546e-10 4.8348e-14)
(2764.5 -4.10484e-10 5.82254e-14)
(2764.5 -4.15235e-10 5.62998e-14)
(2764.5 -4.21019e-10 5.92667e-14)
(2764.5 -4.27715e-10 6.21815e-14)
(2764.5 -4.37269e-10 6.30416e-14)
(2764.5 -4.44808e-10 5.49461e-14)
(2764.5 -4.55478e-10 5.15384e-14)
(2764.5 -4.68367e-10 5.05164e-14)
(2764.5 -4.8069e-10 5.23554e-14)
(2764.5 -4.89211e-10 6.17875e-14)
(2764.5 -4.96281e-10 6.04552e-14)
(2764.5 -4.98869e-10 5.86949e-14)
(2764.5 -5.02442e-10 5.74829e-14)
(2764.5 -5.04586e-10 5.77851e-14)
(2764.5 -5.14777e-10 6.19112e-14)
(2764.5 -5.29514e-10 6.24066e-14)
(2764.5 -3.59436e-10 7.01637e-14)
(2764.5 -3.67915e-10 7.1667e-14)
(2764.5 -3.77194e-10 6.92076e-14)
(2764.5 -3.84015e-10 6.25271e-14)
(2764.5 -3.93959e-10 6.49833e-14)
(2764.5 -4.01566e-10 6.67283e-14)
(2764.5 -4.06994e-10 5.95043e-14)
(2764.5 -4.09818e-10 7.27904e-14)
(2764.5 -4.16954e-10 7.81285e-14)
(2764.5 -4.28001e-10 7.17814e-14)
(2764.5 -4.34349e-10 7.17428e-14)
(2764.5 -4.44943e-10 6.97635e-14)
(2764.5 -4.49719e-10 6.8402e-14)
(2764.5 -4.52543e-10 6.86575e-14)
(2764.5 -4.55779e-10 6.85219e-14)
(2764.5 -4.60167e-10 6.78847e-14)
(2764.5 -4.6703e-10 7.31741e-14)
(2764.5 -4.71898e-10 7.14394e-14)
(2764.5 -4.75258e-10 6.49918e-14)
(2764.5 -4.79306e-10 6.87708e-14)
(2764.5 -4.814e-10 7.09836e-14)
(2764.5 -4.83984e-10 7.36549e-14)
(2764.5 -4.88623e-10 7.37557e-14)
(2764.5 -4.9245e-10 6.79991e-14)
(2764.5 -4.98248e-10 6.65784e-14)
(2764.5 -5.04069e-10 6.8883e-14)
(2764.5 -5.1225e-10 7.69179e-14)
(2764.5 -5.2185e-10 6.84769e-14)
(2764.5 -5.31824e-10 7.19783e-14)
(2764.5 -5.41154e-10 7.54028e-14)
(2764.5 -5.53424e-10 6.82658e-14)
(2764.5 -5.6533e-10 6.91875e-14)
(2764.5 -5.78632e-10 6.91555e-14)
(2764.5 -5.90206e-10 7.47139e-14)
(2764.5 -5.97545e-10 7.6243e-14)
(2764.5 -6.04209e-10 6.8364e-14)
(2764.5 -6.11173e-10 6.83909e-14)
(2764.5 -6.23952e-10 7.2347e-14)
(2764.5 -4.24048e-10 7.947e-14)
(2764.5 -4.30314e-10 7.48579e-14)
(2764.5 -4.3733e-10 7.87222e-14)
(2764.5 -4.46275e-10 8.49952e-14)
(2764.5 -4.55097e-10 8.34985e-14)
(2764.5 -4.6412e-10 7.88014e-14)
(2764.5 -4.69105e-10 7.89871e-14)
(2764.5 -4.72038e-10 8.71127e-14)
(2764.5 -4.77922e-10 7.63863e-14)
(2764.5 -4.88483e-10 8.16295e-14)
(2764.5 -4.9767e-10 8.36964e-14)
(2764.5 -5.05401e-10 8.09843e-14)
(2764.5 -5.12387e-10 8.07618e-14)
(2764.5 -5.18189e-10 7.95761e-14)
(2764.5 -5.22744e-10 7.62816e-14)
(2764.5 -5.27976e-10 8.14243e-14)
(2764.5 -5.36519e-10 7.95263e-14)
(2764.5 -5.43256e-10 8.51134e-14)
(2764.5 -5.49693e-10 8.13142e-14)
(2764.5 -5.56467e-10 8.30272e-14)
(2764.5 -5.59935e-10 8.43952e-14)
(2764.5 -5.61949e-10 8.30839e-14)
(2764.5 -5.6534e-10 8.0823e-14)
(2764.5 -5.67248e-10 8.42287e-14)
(2764.5 -5.74531e-10 8.21962e-14)
(2764.5 -5.82251e-10 8.25528e-14)
(2764.5 -5.88629e-10 8.92126e-14)
(2764.5 -5.95449e-10 7.9813e-14)
(2764.5 -6.03699e-10 7.67694e-14)
(2764.5 -6.1873e-10 8.15774e-14)
(2764.5 -6.35386e-10 8.20216e-14)
(2764.5 -6.50203e-10 7.84294e-14)
(2764.5 -6.65031e-10 8.17598e-14)
(2764.5 -6.77295e-10 8.62044e-14)
(2764.5 -6.86167e-10 9.05511e-14)
(2764.5 -6.9445e-10 8.62026e-14)
(2764.5 -7.04186e-10 8.46608e-14)
(2764.5 -7.17311e-10 8.72662e-14)
(2764.5 -4.81539e-10 9.44952e-14)
(2764.5 -4.85101e-10 9.31366e-14)
(2764.5 -4.90474e-10 9.32093e-14)
(2764.5 -4.99373e-10 9.74382e-14)
(2764.5 -5.08e-10 9.99336e-14)
(2764.5 -5.1986e-10 9.07983e-14)
(2764.5 -5.30369e-10 9.07551e-14)
(2764.5 -5.32637e-10 9.37705e-14)
(2764.5 -5.35145e-10 9.65551e-14)
(2764.5 -5.42185e-10 9.54294e-14)
(2764.5 -5.52707e-10 8.9765e-14)
(2764.5 -5.62556e-10 9.34419e-14)
(2764.5 -5.72285e-10 9.0514e-14)
(2764.5 -5.79284e-10 9.49202e-14)
(2764.5 -5.83805e-10 9.11475e-14)
(2764.5 -5.91794e-10 9.57957e-14)
(2764.5 -6.00049e-10 9.86036e-14)
(2764.5 -6.08101e-10 9.7657e-14)
(2764.5 -6.17318e-10 9.48373e-14)
(2764.5 -6.26212e-10 9.82094e-14)
(2764.5 -6.37193e-10 9.15786e-14)
(2764.5 -6.44234e-10 9.80708e-14)
(2764.5 -6.47809e-10 9.25317e-14)
(2764.5 -6.50655e-10 9.23805e-14)
(2764.5 -6.53961e-10 8.87405e-14)
(2764.5 -6.61102e-10 9.5602e-14)
(2764.5 -6.66621e-10 9.49338e-14)
(2764.5 -6.74545e-10 9.23555e-14)
(2764.5 -6.80542e-10 9.70355e-14)
(2764.5 -6.9032e-10 9.82237e-14)
(2764.5 -7.04323e-10 1.01473e-13)
(2764.5 -7.1677e-10 9.89723e-14)
(2764.5 -7.30749e-10 1.01355e-13)
(2764.5 -7.45913e-10 9.69551e-14)
(2764.5 -7.58674e-10 9.62735e-14)
(2764.5 -7.69664e-10 1.0546e-13)
(2764.5 -7.84656e-10 9.96139e-14)
(2764.5 -8.00655e-10 9.41541e-14)
(2764.5 -5.33509e-10 1.06333e-13)
(2764.5 -5.4054e-10 1.06072e-13)
(2764.5 -5.41744e-10 1.12877e-13)
(2764.5 -5.45051e-10 1.10471e-13)
(2764.5 -5.51896e-10 1.08959e-13)
(2764.5 -5.60223e-10 1.07901e-13)
(2764.5 -5.70513e-10 1.13593e-13)
(2764.5 -5.82516e-10 1.09213e-13)
(2764.5 -5.92954e-10 1.09229e-13)
(2764.5 -5.97112e-10 1.08664e-13)
(2764.5 -6.00837e-10 9.90173e-14)
(2764.5 -6.06381e-10 1.08558e-13)
(2764.5 -6.15523e-10 1.00047e-13)
(2764.5 -6.26701e-10 1.06492e-13)
(2764.5 -6.37177e-10 1.09299e-13)
(2764.5 -6.41769e-10 1.08376e-13)
(2764.5 -6.47914e-10 1.10881e-13)
(2764.5 -6.57495e-10 1.04874e-13)
(2764.5 -6.68413e-10 1.0527e-13)
(2764.5 -6.78275e-10 1.06096e-13)
(2764.5 -6.89684e-10 1.06736e-13)
(2764.5 -7.01943e-10 1.06726e-13)
(2764.5 -7.15139e-10 1.05287e-13)
(2764.5 -7.22183e-10 1.02665e-13)
(2764.5 -7.27228e-10 1.06381e-13)
(2764.5 -7.31536e-10 1.07878e-13)
(2764.5 -7.3854e-10 1.11192e-13)
(2764.5 -7.44417e-10 1.06551e-13)
(2764.5 -7.48459e-10 1.07562e-13)
(2764.5 -7.52638e-10 1.06281e-13)
(2764.5 -7.58006e-10 1.09341e-13)
(2764.5 -7.71156e-10 1.09499e-13)
(2764.5 -7.82922e-10 1.11942e-13)
(2764.5 -7.94894e-10 1.08859e-13)
(2764.5 -8.08432e-10 1.15413e-13)
(2764.5 -8.24567e-10 1.15634e-13)
(2764.5 -8.35539e-10 1.11835e-13)
(2764.5 -8.51473e-10 1.09726e-13)
(2764.5 -8.73628e-10 1.09452e-13)
(2764.5 -5.8765e-10 1.22085e-13)
(2764.5 -5.93958e-10 1.16808e-13)
(2764.5 -5.9993e-10 1.16993e-13)
(2764.5 -6.03887e-10 1.22979e-13)
(2764.5 -6.09507e-10 1.22826e-13)
(2764.5 -6.16633e-10 1.22915e-13)
(2764.5 -6.27015e-10 1.26499e-13)
(2764.5 -6.35589e-10 1.18266e-13)
(2764.5 -6.46922e-10 1.1698e-13)
(2764.5 -6.5589e-10 1.14219e-13)
(2764.5 -6.62392e-10 1.19932e-13)
(2764.5 -6.67238e-10 1.16026e-13)
(2764.5 -6.72124e-10 1.10702e-13)
(2764.5 -6.81337e-10 1.21331e-13)
(2764.5 -6.9215e-10 1.19501e-13)
(2764.5 -7.00949e-10 1.19933e-13)
(2764.5 -7.08492e-10 1.12504e-13)
(2764.5 -7.13978e-10 1.20014e-13)
(2764.5 -7.23516e-10 1.187e-13)
(2764.5 -7.33219e-10 1.20898e-13)
(2764.5 -7.49111e-10 1.17188e-13)
(2764.5 -7.63405e-10 1.16099e-13)
(2764.5 -7.75677e-10 1.1614e-13)
(2764.5 -7.85552e-10 1.18529e-13)
(2764.5 -7.9421e-10 1.2262e-13)
(2764.5 -8.01683e-10 1.20584e-13)
(2764.5 -8.0935e-10 1.23113e-13)
(2764.5 -8.16618e-10 1.1788e-13)
(2764.5 -8.20965e-10 1.1496e-13)
(2764.5 -8.26916e-10 1.20919e-13)
(2764.5 -8.3259e-10 1.22368e-13)
(2764.5 -8.4239e-10 1.22618e-13)
(2764.5 -8.55287e-10 1.24119e-13)
(2764.5 -8.72055e-10 1.23372e-13)
(2764.5 -8.86063e-10 1.2545e-13)
(2764.5 -9.00484e-10 1.23726e-13)
(2764.5 -9.11814e-10 1.18691e-13)
(2764.5 -9.23327e-10 1.23744e-13)
(2764.5 -9.43405e-10 1.25783e-13)
(2764.5 -6.46373e-10 1.33634e-13)
(2764.5 -6.5069e-10 1.37971e-13)
(2764.5 -6.54251e-10 1.32461e-13)
(2764.5 -6.56041e-10 1.34072e-13)
(2764.5 -6.59586e-10 1.29012e-13)
(2764.5 -6.68101e-10 1.28996e-13)
(2764.5 -6.77357e-10 1.3446e-13)
(2764.5 -6.88944e-10 1.35544e-13)
(2764.5 -7.01972e-10 1.27755e-13)
(2764.5 -7.13993e-10 1.298e-13)
(2764.5 -7.2076e-10 1.29339e-13)
(2764.5 -7.29139e-10 1.31295e-13)
(2764.5 -7.35888e-10 1.29648e-13)
(2764.5 -7.42071e-10 1.24025e-13)
(2764.5 -7.51131e-10 1.32005e-13)
(2764.5 -7.56336e-10 1.36292e-13)
(2764.5 -7.65365e-10 1.39089e-13)
(2764.5 -7.73852e-10 1.37486e-13)
(2764.5 -7.83011e-10 1.30269e-13)
(2764.5 -7.91637e-10 1.30291e-13)
(2764.5 -8.02668e-10 1.33628e-13)
(2764.5 -8.15365e-10 1.34947e-13)
(2764.5 -8.27548e-10 1.31824e-13)
(2764.5 -8.37698e-10 1.32378e-13)
(2764.5 -8.48002e-10 1.32202e-13)
(2764.5 -8.59061e-10 1.3653e-13)
(2764.5 -8.70869e-10 1.29907e-13)
(2764.5 -8.81745e-10 1.27416e-13)
(2764.5 -8.88011e-10 1.33373e-13)
(2764.5 -8.94109e-10 1.36027e-13)
(2764.5 -9.05501e-10 1.38155e-13)
(2764.5 -9.19787e-10 1.33821e-13)
(2764.5 -9.31073e-10 1.33957e-13)
(2764.5 -9.45276e-10 1.33581e-13)
(2764.5 -9.58478e-10 1.34397e-13)
(2764.5 -9.71078e-10 1.34303e-13)
(2764.5 -9.81971e-10 1.3559e-13)
(2764.5 -9.93249e-10 1.38924e-13)
(2764.5 -1.01041e-09 1.35822e-13)
(2764.5 -6.96538e-10 1.49604e-13)
(2764.5 -7.01615e-10 1.46487e-13)
(2764.5 -7.09051e-10 1.40988e-13)
(2764.5 -7.15285e-10 1.45691e-13)
(2764.5 -7.15416e-10 1.45262e-13)
(2764.5 -7.14089e-10 1.47866e-13)
(2764.5 -7.19442e-10 1.45942e-13)
(2764.5 -7.25389e-10 1.46574e-13)
(2764.5 -7.37342e-10 1.43791e-13)
(2764.5 -7.54548e-10 1.46799e-13)
(2764.5 -7.71417e-10 1.45525e-13)
(2764.5 -7.86209e-10 1.45879e-13)
(2764.5 -7.93768e-10 1.44962e-13)
(2764.5 -8.0312e-10 1.37918e-13)
(2764.5 -8.07682e-10 1.44186e-13)
(2764.5 -8.13005e-10 1.47442e-13)
(2764.5 -8.16999e-10 1.44046e-13)
(2764.5 -8.20936e-10 1.44751e-13)
(2764.5 -8.26837e-10 1.45531e-13)
(2764.5 -8.35947e-10 1.46529e-13)
(2764.5 -8.46581e-10 1.39716e-13)
(2764.5 -8.56906e-10 1.408e-13)
(2764.5 -8.69571e-10 1.4184e-13)
(2764.5 -8.82255e-10 1.40101e-13)
(2764.5 -8.93828e-10 1.40885e-13)
(2764.5 -9.07551e-10 1.4989e-13)
(2764.5 -9.22925e-10 1.46129e-13)
(2764.5 -9.37161e-10 1.38925e-13)
(2764.5 -9.51197e-10 1.46012e-13)
(2764.5 -9.60118e-10 1.44628e-13)
(2764.5 -9.68214e-10 1.48224e-13)
(2764.5 -9.78565e-10 1.44952e-13)
(2764.5 -9.90164e-10 1.44373e-13)
(2764.5 -1.00141e-09 1.47174e-13)
(2764.5 -1.01374e-09 1.51242e-13)
(2764.5 -1.02544e-09 1.5213e-13)
(2764.5 -1.041e-09 1.48481e-13)
(2764.5 -1.04897e-09 1.51421e-13)
(2764.5 -1.06297e-09 1.46774e-13)
(2764.5 -1.07808e-09 1.4899e-13)
(2764.5 -7.56318e-10 1.62417e-13)
(2764.5 -7.58853e-10 1.6303e-13)
(2764.5 -7.63616e-10 1.63247e-13)
(2764.5 -7.72392e-10 1.56688e-13)
(2764.5 -7.77013e-10 1.58677e-13)
(2764.5 -7.76878e-10 1.58547e-13)
(2764.5 -7.7817e-10 1.60004e-13)
(2764.5 -7.79152e-10 1.59798e-13)
(2764.5 -7.8505e-10 1.57393e-13)
(2764.5 -7.98094e-10 1.61733e-13)
(2764.5 -8.14285e-10 1.54625e-13)
(2764.5 -8.35894e-10 1.5575e-13)
(2764.5 -8.52458e-10 1.5562e-13)
(2764.5 -8.64933e-10 1.54341e-13)
(2764.5 -8.77954e-10 1.55312e-13)
(2764.5 -8.83438e-10 1.57182e-13)
(2764.5 -8.85583e-10 1.54528e-13)
(2764.5 -8.89104e-10 1.48628e-13)
(2764.5 -8.91662e-10 1.5295e-13)
(2764.5 -8.97157e-10 1.51296e-13)
(2764.5 -9.04965e-10 1.53787e-13)
(2764.5 -9.15289e-10 1.56969e-13)
(2764.5 -9.25909e-10 1.59911e-13)
(2764.5 -9.37102e-10 1.58961e-13)
(2764.5 -9.51037e-10 1.54449e-13)
(2764.5 -9.69159e-10 1.56098e-13)
(2764.5 -9.88103e-10 1.5527e-13)
(2764.5 -1.00391e-09 1.55514e-13)
(2764.5 -1.01818e-09 1.54803e-13)
(2764.5 -1.0299e-09 1.56338e-13)
(2764.5 -1.04158e-09 1.58597e-13)
(2764.5 -1.05116e-09 1.58916e-13)
(2764.5 -1.05817e-09 1.59049e-13)
(2764.5 -1.06519e-09 1.60861e-13)
(2764.5 -1.07414e-09 1.65296e-13)
(2764.5 -1.08564e-09 1.56951e-13)
(2764.5 -1.10503e-09 1.5665e-13)
(2764.5 -1.1166e-09 1.60357e-13)
(2764.5 -1.12964e-09 1.60112e-13)
(2764.5 -1.14452e-09 1.57016e-13)
(2764.5 -8.12586e-10 1.76539e-13)
(2764.5 -8.1067e-10 1.70656e-13)
(2764.5 -8.14994e-10 1.7053e-13)
(2764.5 -8.22213e-10 1.72624e-13)
(2764.5 -8.30452e-10 1.74561e-13)
(2764.5 -8.35166e-10 1.78615e-13)
(2764.5 -8.36601e-10 1.73221e-13)
(2764.5 -8.366e-10 1.65446e-13)
(2764.5 -8.41571e-10 1.71137e-13)
(2764.5 -8.49093e-10 1.75451e-13)
(2764.5 -8.59857e-10 1.67653e-13)
(2764.5 -8.79096e-10 1.73825e-13)
(2764.5 -8.98804e-10 1.75335e-13)
(2764.5 -9.15267e-10 1.70322e-13)
(2764.5 -9.32746e-10 1.72201e-13)
(2764.5 -9.44845e-10 1.64677e-13)
(2764.5 -9.51542e-10 1.61961e-13)
(2764.5 -9.56512e-10 1.64332e-13)
(2764.5 -9.59536e-10 1.65664e-13)
(2764.5 -9.6537e-10 1.64382e-13)
(2764.5 -9.71517e-10 1.76148e-13)
(2764.5 -9.78386e-10 1.7297e-13)
(2764.5 -9.89561e-10 1.69119e-13)
(2764.5 -1.0005e-09 1.69059e-13)
(2764.5 -1.01133e-09 1.69577e-13)
(2764.5 -1.0257e-09 1.6786e-13)
(2764.5 -1.04346e-09 1.69245e-13)
(2764.5 -1.05822e-09 1.6295e-13)
(2764.5 -1.07139e-09 1.74666e-13)
(2764.5 -1.08387e-09 1.74909e-13)
(2764.5 -1.09821e-09 1.69023e-13)
(2764.5 -1.11321e-09 1.67498e-13)
(2764.5 -1.12353e-09 1.6536e-13)
(2764.5 -1.13129e-09 1.68306e-13)
(2764.5 -1.13958e-09 1.72655e-13)
(2764.5 -1.14544e-09 1.72992e-13)
(2764.5 -1.1595e-09 1.70496e-13)
(2764.5 -1.17252e-09 1.68744e-13)
(2764.5 -1.18936e-09 1.73715e-13)
(2764.5 -1.19334e-09 1.92005e-13)
(2764.5 -8.77843e-10 1.88957e-13)
(2764.5 -8.71429e-10 1.89306e-13)
(2764.5 -8.71432e-10 1.90496e-13)
(2764.5 -8.74495e-10 1.86007e-13)
(2764.5 -8.80638e-10 1.83949e-13)
(2764.5 -8.87557e-10 1.88456e-13)
(2764.5 -8.95055e-10 1.92754e-13)
(2764.5 -8.94336e-10 1.80049e-13)
(2764.5 -8.92168e-10 1.81302e-13)
(2764.5 -8.95976e-10 1.87552e-13)
(2764.5 -9.03357e-10 1.81187e-13)
(2764.5 -9.19202e-10 1.87505e-13)
(2764.5 -9.39637e-10 1.85117e-13)
(2764.5 -9.59979e-10 1.78913e-13)
(2764.5 -9.8082e-10 1.82291e-13)
(2764.5 -9.98876e-10 1.82655e-13)
(2764.5 -1.01057e-09 1.76248e-13)
(2764.5 -1.02059e-09 1.78068e-13)
(2764.5 -1.02555e-09 1.80279e-13)
(2764.5 -1.03049e-09 1.83018e-13)
(2764.5 -1.03496e-09 1.86981e-13)
(2764.5 -1.03935e-09 1.80262e-13)
(2764.5 -1.04446e-09 1.83297e-13)
(2764.5 -1.05221e-09 1.8608e-13)
(2764.5 -1.06327e-09 1.77838e-13)
(2764.5 -1.07575e-09 1.85839e-13)
(2764.5 -1.0881e-09 1.79611e-13)
(2764.5 -1.10125e-09 1.7922e-13)
(2764.5 -1.11441e-09 1.8306e-13)
(2764.5 -1.13057e-09 1.77269e-13)
(2764.5 -1.14852e-09 1.81354e-13)
(2764.5 -1.16815e-09 1.83557e-13)
(2764.5 -1.18391e-09 1.83205e-13)
(2764.5 -1.19406e-09 1.76607e-13)
(2764.5 -1.20317e-09 1.82851e-13)
(2764.5 -1.20869e-09 1.82652e-13)
(2764.5 -1.21624e-09 1.82861e-13)
(2764.5 -1.22383e-09 1.8437e-13)
(2764.5 -1.24211e-09 1.83357e-13)
(2764.5 -1.24791e-09 1.80276e-13)
(2764.5 -9.46876e-10 2.00081e-13)
(2764.5 -9.3832e-10 2.01924e-13)
(2764.5 -9.31568e-10 1.99832e-13)
(2764.5 -9.29992e-10 2.00375e-13)
(2764.5 -9.33929e-10 1.99959e-13)
(2764.5 -9.37784e-10 1.93924e-13)
(2764.5 -9.43161e-10 1.96069e-13)
(2764.5 -9.51866e-10 1.96544e-13)
(2764.5 -9.52644e-10 1.97309e-13)
(2764.5 -9.54672e-10 1.97176e-13)
(2764.5 -9.59777e-10 1.94128e-13)
(2764.5 -9.68334e-10 1.96649e-13)
(2764.5 -9.82276e-10 1.92221e-13)
(2764.5 -1.0005e-09 1.89942e-13)
(2764.5 -1.0211e-09 1.93911e-13)
(2764.5 -1.04152e-09 1.94802e-13)
(2764.5 -1.06229e-09 1.94663e-13)
(2764.5 -1.07892e-09 1.95639e-13)
(2764.5 -1.08961e-09 1.90879e-13)
(2764.5 -1.09608e-09 1.9193e-13)
(2764.5 -1.09888e-09 1.93431e-13)
(2764.5 -1.09807e-09 1.92284e-13)
(2764.5 -1.09795e-09 1.91072e-13)
(2764.5 -1.10085e-09 1.9194e-13)
(2764.5 -1.10977e-09 1.91047e-13)
(2764.5 -1.12499e-09 1.90342e-13)
(2764.5 -1.13903e-09 1.91367e-13)
(2764.5 -1.15062e-09 1.95266e-13)
(2764.5 -1.16321e-09 1.88317e-13)
(2764.5 -1.17826e-09 1.94448e-13)
(2764.5 -1.1971e-09 1.92958e-13)
(2764.5 -1.21951e-09 2.00413e-13)
(2764.5 -1.23806e-09 1.95989e-13)
(2764.5 -1.25155e-09 1.90683e-13)
(2764.5 -1.26115e-09 1.94589e-13)
(2764.5 -1.26683e-09 1.98689e-13)
(2764.5 -1.27432e-09 1.9903e-13)
(2764.5 -1.28002e-09 1.97848e-13)
(2764.5 -1.29787e-09 1.94782e-13)
(2764.5 -1.30687e-09 1.99066e-13)
(2764.5 -1.0082e-09 2.14343e-13)
(2764.5 -1.01039e-09 2.12041e-13)
(2764.5 -1.00254e-09 2.13095e-13)
(2764.5 -9.94305e-10 2.09861e-13)
(2764.5 -9.92055e-10 2.08865e-13)
(2764.5 -9.95739e-10 2.13796e-13)
(2764.5 -9.96301e-10 2.1743e-13)
(2764.5 -1.00287e-09 2.10578e-13)
(2764.5 -1.00927e-09 2.09706e-13)
(2764.5 -1.01201e-09 2.11854e-13)
(2764.5 -1.01277e-09 2.0914e-13)
(2764.5 -1.01792e-09 2.1085e-13)
(2764.5 -1.0264e-09 2.05013e-13)
(2764.5 -1.04159e-09 2.03104e-13)
(2764.5 -1.0592e-09 2.1033e-13)
(2764.5 -1.07945e-09 2.04802e-13)
(2764.5 -1.10199e-09 2.03577e-13)
(2764.5 -1.12374e-09 2.10297e-13)
(2764.5 -1.13945e-09 2.08726e-13)
(2764.5 -1.14592e-09 2.02954e-13)
(2764.5 -1.14934e-09 2.03903e-13)
(2764.5 -1.15109e-09 1.97618e-13)
(2764.5 -1.15296e-09 2.03065e-13)
(2764.5 -1.15474e-09 2.06845e-13)
(2764.5 -1.16017e-09 2.09892e-13)
(2764.5 -1.17134e-09 2.09849e-13)
(2764.5 -1.18483e-09 2.03891e-13)
(2764.5 -1.19681e-09 2.04785e-13)
(2764.5 -1.211e-09 2.01533e-13)
(2764.5 -1.23043e-09 2.07377e-13)
(2764.5 -1.24679e-09 2.05397e-13)
(2764.5 -1.26624e-09 2.03228e-13)
(2764.5 -1.28384e-09 2.05083e-13)
(2764.5 -1.29767e-09 2.08556e-13)
(2764.5 -1.31233e-09 2.02546e-13)
(2764.5 -1.32081e-09 2.04211e-13)
(2764.5 -1.33071e-09 2.06217e-13)
(2764.5 -1.33869e-09 2.04249e-13)
(2764.5 -1.35674e-09 2.04198e-13)
(2764.5 -1.36304e-09 2.07333e-13)
(2764.5 -1.05028e-09 2.30913e-13)
(2764.5 -1.0612e-09 2.28686e-13)
(2764.5 -1.06725e-09 2.26821e-13)
(2764.5 -1.06459e-09 2.21626e-13)
(2764.5 -1.05927e-09 2.25623e-13)
(2764.5 -1.05901e-09 2.21324e-13)
(2764.5 -1.0587e-09 2.23786e-13)
(2764.5 -1.05884e-09 2.2382e-13)
(2764.5 -1.06313e-09 2.28064e-13)
(2764.5 -1.06643e-09 2.24626e-13)
(2764.5 -1.0671e-09 2.18582e-13)
(2764.5 -1.06823e-09 2.21806e-13)
(2764.5 -1.07551e-09 2.18594e-13)
(2764.5 -1.09049e-09 2.21215e-13)
(2764.5 -1.10363e-09 2.21375e-13)
(2764.5 -1.11968e-09 2.23576e-13)
(2764.5 -1.14126e-09 2.26724e-13)
(2764.5 -1.16427e-09 2.21665e-13)
(2764.5 -1.18246e-09 2.22166e-13)
(2764.5 -1.18941e-09 2.24772e-13)
(2764.5 -1.19125e-09 2.2027e-13)
(2764.5 -1.1928e-09 2.17408e-13)
(2764.5 -1.20077e-09 2.19555e-13)
(2764.5 -1.20948e-09 2.15829e-13)
(2764.5 -1.21803e-09 2.18192e-13)
(2764.5 -1.22491e-09 2.15727e-13)
(2764.5 -1.23464e-09 2.14943e-13)
(2764.5 -1.24771e-09 2.18187e-13)
(2764.5 -1.26022e-09 2.13333e-13)
(2764.5 -1.27985e-09 2.14401e-13)
(2764.5 -1.30018e-09 2.17361e-13)
(2764.5 -1.31822e-09 2.20188e-13)
(2764.5 -1.33939e-09 2.2157e-13)
(2764.5 -1.35623e-09 2.17492e-13)
(2764.5 -1.3734e-09 2.15687e-13)
(2764.5 -1.38559e-09 2.18118e-13)
(2764.5 -1.39645e-09 2.2014e-13)
(2764.5 -1.40098e-09 2.19431e-13)
(2764.5 -1.41627e-09 2.19493e-13)
(2764.5 -1.42075e-09 2.20868e-13)
(2764.5 -1.07151e-09 2.42251e-13)
(2764.5 -1.08658e-09 2.46363e-13)
(2764.5 -1.10027e-09 2.41355e-13)
(2764.5 -1.11468e-09 2.38172e-13)
(2764.5 -1.12227e-09 2.4182e-13)
(2764.5 -1.12661e-09 2.34801e-13)
(2764.5 -1.1269e-09 2.38693e-13)
(2764.5 -1.12496e-09 2.39265e-13)
(2764.5 -1.12401e-09 2.3303e-13)
(2764.5 -1.12796e-09 2.35558e-13)
(2764.5 -1.12923e-09 2.34511e-13)
(2764.5 -1.13033e-09 2.31352e-13)
(2764.5 -1.13004e-09 2.30498e-13)
(2764.5 -1.13637e-09 2.32637e-13)
(2764.5 -1.14614e-09 2.33874e-13)
(2764.5 -1.1535e-09 2.31512e-13)
(2764.5 -1.16138e-09 2.38514e-13)
(2764.5 -1.17824e-09 2.34764e-13)
(2764.5 -1.20224e-09 2.28964e-13)
(2764.5 -1.22419e-09 2.29042e-13)
(2764.5 -1.23846e-09 2.31746e-13)
(2764.5 -1.24687e-09 2.29284e-13)
(2764.5 -1.25209e-09 2.29825e-13)
(2764.5 -1.2601e-09 2.32116e-13)
(2764.5 -1.26911e-09 2.25688e-13)
(2764.5 -1.27889e-09 2.3209e-13)
(2764.5 -1.28483e-09 2.32453e-13)
(2764.5 -1.28985e-09 2.28512e-13)
(2764.5 -1.29982e-09 2.28618e-13)
(2764.5 -1.31249e-09 2.31902e-13)
(2764.5 -1.32304e-09 2.35119e-13)
(2764.5 -1.34243e-09 2.26229e-13)
(2764.5 -1.36202e-09 2.2834e-13)
(2764.5 -1.38447e-09 2.35106e-13)
(2764.5 -1.40477e-09 2.29416e-13)
(2764.5 -1.42085e-09 2.29802e-13)
(2764.5 -1.43177e-09 2.34157e-13)
(2764.5 -1.45046e-09 2.35694e-13)
(2764.5 -1.46425e-09 2.30027e-13)
(2764.5 -1.48038e-09 2.33127e-13)
(2764.5 -1.48897e-09 2.31392e-13)
(2764.5 -1.11047e-09 2.61835e-13)
(2764.5 -1.12342e-09 2.62869e-13)
(2764.5 -1.1379e-09 2.50993e-13)
(2764.5 -1.15401e-09 2.50662e-13)
(2764.5 -1.1657e-09 2.54073e-13)
(2764.5 -1.17617e-09 2.50149e-13)
(2764.5 -1.1819e-09 2.49307e-13)
(2764.5 -1.18061e-09 2.47376e-13)
(2764.5 -1.17884e-09 2.49381e-13)
(2764.5 -1.18283e-09 2.51771e-13)
(2764.5 -1.18622e-09 2.46555e-13)
(2764.5 -1.18807e-09 2.45016e-13)
(2764.5 -1.18583e-09 2.47073e-13)
(2764.5 -1.18921e-09 2.47267e-13)
(2764.5 -1.19673e-09 2.44751e-13)
(2764.5 -1.20225e-09 2.42964e-13)
(2764.5 -1.20725e-09 2.4788e-13)
(2764.5 -1.22089e-09 2.44943e-13)
(2764.5 -1.23877e-09 2.43151e-13)
(2764.5 -1.25873e-09 2.43696e-13)
(2764.5 -1.27404e-09 2.41257e-13)
(2764.5 -1.28633e-09 2.47141e-13)
(2764.5 -1.30069e-09 2.47646e-13)
(2764.5 -1.3154e-09 2.32352e-13)
(2764.5 -1.32868e-09 2.36165e-13)
(2764.5 -1.33859e-09 2.46464e-13)
(2764.5 -1.34282e-09 2.38372e-13)
(2764.5 -1.34182e-09 2.38837e-13)
(2764.5 -1.3441e-09 2.38243e-13)
(2764.5 -1.35522e-09 2.41616e-13)
(2764.5 -1.36579e-09 2.38047e-13)
(2764.5 -1.37883e-09 2.39695e-13)
(2764.5 -1.39717e-09 2.46169e-13)
(2764.5 -1.41858e-09 2.44202e-13)
(2764.5 -1.44003e-09 2.48756e-13)
(2764.5 -1.46114e-09 2.49845e-13)
(2764.5 -1.47879e-09 2.44524e-13)
(2764.5 -1.49837e-09 2.43851e-13)
(2764.5 -1.5143e-09 2.52513e-13)
(2764.5 -1.53565e-09 2.47284e-13)
(2764.5 -1.53872e-09 2.44145e-13)
(2764.5 -1.13781e-09 2.74219e-13)
(2764.5 -1.14727e-09 2.77855e-13)
(2764.5 -1.15804e-09 2.64884e-13)
(2764.5 -1.1721e-09 2.63617e-13)
(2764.5 -1.18977e-09 2.67442e-13)
(2764.5 -1.20393e-09 2.65787e-13)
(2764.5 -1.21535e-09 2.62869e-13)
(2764.5 -1.22353e-09 2.65732e-13)
(2764.5 -1.22742e-09 2.63434e-13)
(2764.5 -1.22935e-09 2.66854e-13)
(2764.5 -1.23227e-09 2.6826e-13)
(2764.5 -1.23462e-09 2.58042e-13)
(2764.5 -1.23585e-09 2.58242e-13)
(2764.5 -1.23571e-09 2.58464e-13)
(2764.5 -1.2362e-09 2.58663e-13)
(2764.5 -1.24055e-09 2.585e-13)
(2764.5 -1.2446e-09 2.66839e-13)
(2764.5 -1.2495e-09 2.60412e-13)
(2764.5 -1.26074e-09 2.537e-13)
(2764.5 -1.27643e-09 2.52999e-13)
(2764.5 -1.29489e-09 2.5279e-13)
(2764.5 -1.31139e-09 2.55193e-13)
(2764.5 -1.32389e-09 2.55165e-13)
(2764.5 -1.33675e-09 2.53394e-13)
(2764.5 -1.35422e-09 2.54877e-13)
(2764.5 -1.37232e-09 2.57544e-13)
(2764.5 -1.38549e-09 2.57391e-13)
(2764.5 -1.39314e-09 2.55232e-13)
(2764.5 -1.39372e-09 2.55488e-13)
(2764.5 -1.39608e-09 2.53216e-13)
(2764.5 -1.4034e-09 2.53321e-13)
(2764.5 -1.41502e-09 2.6187e-13)
(2764.5 -1.42562e-09 2.59679e-13)
(2764.5 -1.43836e-09 2.49021e-13)
(2764.5 -1.45713e-09 2.51043e-13)
(2764.5 -1.47878e-09 2.53815e-13)
(2764.5 -1.50283e-09 2.55147e-13)
(2764.5 -1.51936e-09 2.52325e-13)
(2764.5 -1.53691e-09 2.587e-13)
(2764.5 -1.55e-09 2.61341e-13)
(2764.5 -1.54096e-09 2.5379e-13)
(2764.5 -1.53313e-09 2.53915e-13)
(2764.5 -1.1654e-09 2.83789e-13)
(2764.5 -1.1784e-09 2.8456e-13)
(2764.5 -1.18809e-09 2.81174e-13)
(2764.5 -1.19892e-09 2.81863e-13)
(2764.5 -1.2145e-09 2.86219e-13)
(2764.5 -1.22962e-09 2.82295e-13)
(2764.5 -1.24252e-09 2.79547e-13)
(2764.5 -1.25373e-09 2.79974e-13)
(2764.5 -1.26311e-09 2.78221e-13)
(2764.5 -1.26947e-09 2.77558e-13)
(2764.5 -1.27657e-09 2.79094e-13)
(2764.5 -1.28166e-09 2.77837e-13)
(2764.5 -1.2839e-09 2.7148e-13)
(2764.5 -1.28458e-09 2.69326e-13)
(2764.5 -1.28574e-09 2.72157e-13)
(2764.5 -1.28814e-09 2.68871e-13)
(2764.5 -1.29137e-09 2.71918e-13)
(2764.5 -1.29284e-09 2.68501e-13)
(2764.5 -1.29844e-09 2.65783e-13)
(2764.5 -1.30791e-09 2.64045e-13)
(2764.5 -1.32232e-09 2.62474e-13)
(2764.5 -1.33957e-09 2.69828e-13)
(2764.5 -1.35278e-09 2.71108e-13)
(2764.5 -1.36472e-09 2.65777e-13)
(2764.5 -1.37777e-09 2.66981e-13)
(2764.5 -1.3932e-09 2.67377e-13)
(2764.5 -1.41226e-09 2.67563e-13)
(2764.5 -1.42703e-09 2.63179e-13)
(2764.5 -1.43609e-09 2.65672e-13)
(2764.5 -1.44024e-09 2.63076e-13)
(2764.5 -1.44432e-09 2.63065e-13)
(2764.5 -1.4502e-09 2.66354e-13)
(2764.5 -1.46145e-09 2.65897e-13)
(2764.5 -1.47608e-09 2.60541e-13)
(2764.5 -1.49271e-09 2.63711e-13)
(2764.5 -1.50576e-09 2.64821e-13)
(2764.5 -1.52696e-09 2.62635e-13)
(2764.5 -1.53125e-09 2.66935e-13)