/*--------------------------------*- C++ -*----------------------------------*\
| =========                 |                                                 |
| \\      /  F ield         | OpenFOAM: The Open Source CFD Toolbox           |
|  \\    /   O peration     | Version:  v1706                                 |
|   \\  /    A nd           | Web:      www.OpenFOAM.com                      |
|    \\/     M anipulation  |                                                 |
\*---------------------------------------------------------------------------*/
FoamFile
{
    version     2.0;
    format      ascii;
    class       volScalarField;
    location    "1.1e-05";
    object      wallHeatFlux;
}
// * * * * * * * * * * * * * * * * * * * * * * * * * * * * * * * * * * * * * //

dimensions      [1 0 -3 0 0 0 0];


internalField   uniform 0;

boundaryField
{
    cone
    {
        type            calculated;
        value           nonuniform List<scalar> 
153
(
445631
440083
434558
429056
423576
418119
412684
407273
401885
396522
391183
385868
380579
375316
370079
364869
359686
354531
349404
344306
339237
334195
329182
324199
319244
314318
309422
304555
299717
294907
290125
285372
280647
275950
271280
266637
262019
257427
252860
248311
243776
239253
234732
230223
225730
221228
216696
211967
207108
202435
197983
193726
189623
185650
181793
178042
174392
170840
167384
164021
160752
157575
154490
151495
148591
145777
143050
140412
137860
135395
133017
130726
128525
126414
124399
122482
120669
118966
117377
115909
114565
113349
112262
111300
110457
109723
109079
108502
107963
107428
106855
106207
105448
104537
103434
102111
100550
98748.8
96717.4
94482.9
92087.9
89588.7
87052.2
84551.2
82157.7
79937.2
77945
76218.2
74780.6
73654.3
72856.9
72401.4
72303.8
72572.6
73210.8
74203.1
75525
77145.6
79028
81128.3
83395.7
85774.6
88207.9
90640
93023
95320.1
97508.5
99580.3
101540
103403
105197
106957
108719
110529
112438
114492
116729
119187
121906
124923
128261
131921
135880
140090
144476
148935
153332
157527
161359
164643
167205
168870
169446
)
;
    }
    inlet
    {
        type            calculated;
        value           uniform 0;
    }
    rWedge
    {
        type            wedge;
    }
    lWedge
    {
        type            wedge;
    }
    outlet
    {
        type            calculated;
        value           nonuniform 0();
    }
    procBoundary2to0
    {
        type            processor;
        value           uniform 0;
    }
    procBoundary2to1
    {
        type            processor;
        value           uniform 0;
    }
    procBoundary2to3
    {
        type            processor;
        value           uniform 0;
    }
}


// ************************************************************************* //
