/*--------------------------------*- C++ -*----------------------------------*\
| =========                 |                                                 |
| \\      /  F ield         | OpenFOAM: The Open Source CFD Toolbox           |
|  \\    /   O peration     | Version:  v1706                                 |
|   \\  /    A nd           | Web:      www.OpenFOAM.com                      |
|    \\/     M anipulation  |                                                 |
\*---------------------------------------------------------------------------*/
FoamFile
{
    version     2.0;
    format      ascii;
    class       volScalarField;
    location    "1.3e-05";
    object      alpha;
}
// * * * * * * * * * * * * * * * * * * * * * * * * * * * * * * * * * * * * * //

dimensions      [1 -1 -1 0 0 0 0];


internalField   nonuniform List<scalar> 
29871
(
1.40536e-05
1.40534e-05
1.40533e-05
1.40532e-05
1.4053e-05
1.40529e-05
1.40527e-05
1.40525e-05
1.40524e-05
1.40522e-05
1.40521e-05
1.40519e-05
1.40517e-05
1.40516e-05
1.40514e-05
1.40513e-05
1.40511e-05
1.4051e-05
1.40509e-05
1.40508e-05
1.40506e-05
1.40505e-05
1.40504e-05
1.40503e-05
1.40502e-05
1.40501e-05
1.405e-05
1.405e-05
1.40499e-05
1.40498e-05
1.40498e-05
1.40497e-05
1.40497e-05
1.40497e-05
1.40496e-05
1.40496e-05
1.40496e-05
1.40496e-05
1.40496e-05
1.40496e-05
1.40496e-05
1.40496e-05
1.40496e-05
1.40496e-05
1.40496e-05
1.40496e-05
1.40496e-05
1.40496e-05
1.40497e-05
1.40497e-05
1.40497e-05
1.40497e-05
1.40497e-05
1.40498e-05
1.40498e-05
1.40498e-05
1.40498e-05
1.40498e-05
1.40499e-05
1.40499e-05
1.40499e-05
1.40499e-05
1.405e-05
1.405e-05
1.405e-05
1.405e-05
1.40501e-05
1.40501e-05
1.40501e-05
1.40502e-05
1.40502e-05
1.40502e-05
1.40502e-05
1.40503e-05
1.40503e-05
1.40503e-05
1.40504e-05
1.40504e-05
1.40504e-05
1.40504e-05
1.40505e-05
1.40505e-05
1.40505e-05
1.40506e-05
1.40506e-05
1.40506e-05
1.40506e-05
1.40507e-05
1.40507e-05
1.40507e-05
1.40508e-05
1.40508e-05
1.40508e-05
1.40508e-05
1.40509e-05
1.40509e-05
1.40509e-05
1.40509e-05
1.4051e-05
1.4051e-05
1.4051e-05
1.4051e-05
1.40511e-05
1.40511e-05
1.40511e-05
1.40814e-05
1.40807e-05
1.40799e-05
1.40791e-05
1.40783e-05
1.40774e-05
1.40765e-05
1.40756e-05
1.40747e-05
1.40738e-05
1.40729e-05
1.4072e-05
1.40711e-05
1.40702e-05
1.40693e-05
1.40685e-05
1.40676e-05
1.40668e-05
1.40661e-05
1.40653e-05
1.40646e-05
1.4064e-05
1.40634e-05
1.40628e-05
1.40622e-05
1.40617e-05
1.40613e-05
1.40608e-05
1.40604e-05
1.40601e-05
1.40598e-05
1.40595e-05
1.40593e-05
1.40591e-05
1.40589e-05
1.40588e-05
1.40587e-05
1.40586e-05
1.40586e-05
1.40586e-05
1.40586e-05
1.40586e-05
1.40586e-05
1.40587e-05
1.40587e-05
1.40588e-05
1.40589e-05
1.4059e-05
1.40591e-05
1.40593e-05
1.40594e-05
1.40595e-05
1.40597e-05
1.40598e-05
1.40599e-05
1.40601e-05
1.40602e-05
1.40604e-05
1.40605e-05
1.40607e-05
1.40609e-05
1.4061e-05
1.40612e-05
1.40614e-05
1.40615e-05
1.40617e-05
1.40619e-05
1.40621e-05
1.40623e-05
1.40625e-05
1.40627e-05
1.40629e-05
1.40631e-05
1.40633e-05
1.40635e-05
1.40637e-05
1.40639e-05
1.40641e-05
1.40643e-05
1.40645e-05
1.40647e-05
1.40649e-05
1.40651e-05
1.40653e-05
1.40655e-05
1.40657e-05
1.40659e-05
1.40661e-05
1.40663e-05
1.40665e-05
1.40667e-05
1.40669e-05
1.40671e-05
1.40673e-05
1.40675e-05
1.40677e-05
1.40679e-05
1.40681e-05
1.40683e-05
1.40685e-05
1.40687e-05
1.40689e-05
1.40691e-05
1.40693e-05
1.40695e-05
1.41509e-05
1.41489e-05
1.41467e-05
1.41445e-05
1.41421e-05
1.41396e-05
1.41371e-05
1.41345e-05
1.41318e-05
1.41292e-05
1.41265e-05
1.41238e-05
1.41211e-05
1.41185e-05
1.41159e-05
1.41133e-05
1.41108e-05
1.41084e-05
1.4106e-05
1.41037e-05
1.41016e-05
1.40995e-05
1.40975e-05
1.40956e-05
1.40939e-05
1.40922e-05
1.40907e-05
1.40893e-05
1.40881e-05
1.40869e-05
1.40859e-05
1.4085e-05
1.40842e-05
1.40836e-05
1.4083e-05
1.40825e-05
1.40822e-05
1.40819e-05
1.40818e-05
1.40817e-05
1.40817e-05
1.40817e-05
1.40818e-05
1.4082e-05
1.40822e-05
1.40825e-05
1.40828e-05
1.40831e-05
1.40835e-05
1.40839e-05
1.40843e-05
1.40847e-05
1.40852e-05
1.40857e-05
1.40861e-05
1.40866e-05
1.40871e-05
1.40877e-05
1.40882e-05
1.40887e-05
1.40893e-05
1.40899e-05
1.40904e-05
1.4091e-05
1.40916e-05
1.40922e-05
1.40928e-05
1.40935e-05
1.40941e-05
1.40948e-05
1.40954e-05
1.40961e-05
1.40968e-05
1.40975e-05
1.40982e-05
1.40989e-05
1.40997e-05
1.41004e-05
1.41012e-05
1.41019e-05
1.41027e-05
1.41034e-05
1.41042e-05
1.41049e-05
1.41057e-05
1.41064e-05
1.41072e-05
1.41079e-05
1.41086e-05
1.41094e-05
1.41101e-05
1.41109e-05
1.41116e-05
1.41124e-05
1.41131e-05
1.41139e-05
1.41146e-05
1.41154e-05
1.41161e-05
1.41169e-05
1.41177e-05
1.41184e-05
1.41192e-05
1.412e-05
1.41208e-05
1.41217e-05
1.43096e-05
1.43046e-05
1.42992e-05
1.42935e-05
1.42875e-05
1.42814e-05
1.4275e-05
1.42685e-05
1.42619e-05
1.42552e-05
1.42485e-05
1.42418e-05
1.42351e-05
1.42285e-05
1.42219e-05
1.42155e-05
1.42093e-05
1.42032e-05
1.41973e-05
1.41917e-05
1.41863e-05
1.41811e-05
1.41762e-05
1.41716e-05
1.41673e-05
1.41633e-05
1.41596e-05
1.41562e-05
1.41531e-05
1.41503e-05
1.41478e-05
1.41457e-05
1.41438e-05
1.41422e-05
1.41409e-05
1.41399e-05
1.41391e-05
1.41386e-05
1.41384e-05
1.41383e-05
1.41384e-05
1.41387e-05
1.41391e-05
1.41397e-05
1.41404e-05
1.41412e-05
1.41422e-05
1.41432e-05
1.41444e-05
1.41456e-05
1.41468e-05
1.41481e-05
1.41495e-05
1.41509e-05
1.41523e-05
1.41538e-05
1.41553e-05
1.41568e-05
1.41584e-05
1.41599e-05
1.41616e-05
1.41632e-05
1.41649e-05
1.41666e-05
1.41683e-05
1.41701e-05
1.4172e-05
1.41738e-05
1.41758e-05
1.41777e-05
1.41797e-05
1.41817e-05
1.41838e-05
1.41859e-05
1.41881e-05
1.41903e-05
1.41925e-05
1.41948e-05
1.4197e-05
1.41993e-05
1.42016e-05
1.4204e-05
1.42063e-05
1.42087e-05
1.4211e-05
1.42134e-05
1.42157e-05
1.42181e-05
1.42204e-05
1.42228e-05
1.42251e-05
1.42275e-05
1.42299e-05
1.42322e-05
1.42346e-05
1.4237e-05
1.42394e-05
1.42418e-05
1.42443e-05
1.42467e-05
1.42492e-05
1.42517e-05
1.42543e-05
1.42568e-05
1.42595e-05
1.42621e-05
1.46588e-05
1.46482e-05
1.46369e-05
1.46248e-05
1.46121e-05
1.45989e-05
1.45852e-05
1.45711e-05
1.45567e-05
1.45421e-05
1.45273e-05
1.45124e-05
1.44975e-05
1.44827e-05
1.4468e-05
1.44535e-05
1.44392e-05
1.44253e-05
1.44118e-05
1.43986e-05
1.4386e-05
1.43739e-05
1.43624e-05
1.43514e-05
1.43411e-05
1.43315e-05
1.43226e-05
1.43144e-05
1.43069e-05
1.43001e-05
1.42941e-05
1.42888e-05
1.42843e-05
1.42804e-05
1.42772e-05
1.42747e-05
1.42728e-05
1.42716e-05
1.42709e-05
1.42708e-05
1.42711e-05
1.42717e-05
1.42729e-05
1.42744e-05
1.42763e-05
1.42785e-05
1.4281e-05
1.42837e-05
1.42866e-05
1.42897e-05
1.4293e-05
1.42964e-05
1.42999e-05
1.43035e-05
1.43072e-05
1.4311e-05
1.43149e-05
1.43189e-05
1.43229e-05
1.43271e-05
1.43312e-05
1.43355e-05
1.43399e-05
1.43444e-05
1.43489e-05
1.43536e-05
1.43584e-05
1.43633e-05
1.43683e-05
1.43734e-05
1.43786e-05
1.4384e-05
1.43895e-05
1.43951e-05
1.44008e-05
1.44066e-05
1.44126e-05
1.44186e-05
1.44248e-05
1.4431e-05
1.44373e-05
1.44437e-05
1.44501e-05
1.44566e-05
1.44631e-05
1.44696e-05
1.44762e-05
1.44828e-05
1.44894e-05
1.4496e-05
1.45026e-05
1.45092e-05
1.45159e-05
1.45225e-05
1.45292e-05
1.45359e-05
1.45427e-05
1.45494e-05
1.45563e-05
1.45632e-05
1.45702e-05
1.45773e-05
1.45844e-05
1.45917e-05
1.4599e-05
1.46065e-05
1.4614e-05
1.53272e-05
1.53059e-05
1.52831e-05
1.5259e-05
1.52337e-05
1.52073e-05
1.518e-05
1.51519e-05
1.51232e-05
1.5094e-05
1.50645e-05
1.50348e-05
1.50051e-05
1.49756e-05
1.49462e-05
1.49173e-05
1.48889e-05
1.48611e-05
1.48341e-05
1.4808e-05
1.47828e-05
1.47587e-05
1.47358e-05
1.47141e-05
1.46937e-05
1.46746e-05
1.4657e-05
1.46408e-05
1.46262e-05
1.4613e-05
1.46014e-05
1.45913e-05
1.45828e-05
1.45757e-05
1.45702e-05
1.45661e-05
1.45634e-05
1.4562e-05
1.4562e-05
1.45627e-05
1.45644e-05
1.45672e-05
1.45709e-05
1.45755e-05
1.45808e-05
1.45867e-05
1.45932e-05
1.46003e-05
1.46077e-05
1.46156e-05
1.46237e-05
1.46322e-05
1.46409e-05
1.46498e-05
1.46589e-05
1.46682e-05
1.46777e-05
1.46873e-05
1.4697e-05
1.4707e-05
1.47171e-05
1.47273e-05
1.47378e-05
1.47485e-05
1.47594e-05
1.47705e-05
1.47819e-05
1.47936e-05
1.48056e-05
1.48178e-05
1.48303e-05
1.48432e-05
1.48563e-05
1.48698e-05
1.48835e-05
1.48976e-05
1.49119e-05
1.49265e-05
1.49414e-05
1.49565e-05
1.49719e-05
1.49874e-05
1.50032e-05
1.50191e-05
1.50351e-05
1.50512e-05
1.50674e-05
1.50837e-05
1.51e-05
1.51163e-05
1.51326e-05
1.5149e-05
1.51653e-05
1.51817e-05
1.51981e-05
1.52146e-05
1.5231e-05
1.52476e-05
1.52643e-05
1.5281e-05
1.52979e-05
1.53149e-05
1.53321e-05
1.53495e-05
1.53671e-05
1.53849e-05
1.54029e-05
1.64989e-05
1.64713e-05
1.6441e-05
1.64082e-05
1.63731e-05
1.63359e-05
1.62966e-05
1.62555e-05
1.62128e-05
1.61686e-05
1.61231e-05
1.60766e-05
1.60292e-05
1.59811e-05
1.59325e-05
1.58837e-05
1.58347e-05
1.57859e-05
1.57375e-05
1.56896e-05
1.56425e-05
1.55965e-05
1.55517e-05
1.55085e-05
1.54669e-05
1.54273e-05
1.53898e-05
1.53546e-05
1.5322e-05
1.52919e-05
1.52645e-05
1.524e-05
1.52183e-05
1.51995e-05
1.51836e-05
1.51706e-05
1.51605e-05
1.51531e-05
1.51484e-05
1.51466e-05
1.51472e-05
1.51493e-05
1.51538e-05
1.51603e-05
1.51686e-05
1.51787e-05
1.51902e-05
1.52032e-05
1.52172e-05
1.52323e-05
1.52483e-05
1.5265e-05
1.52823e-05
1.53002e-05
1.53184e-05
1.5337e-05
1.53559e-05
1.5375e-05
1.53944e-05
1.5414e-05
1.54338e-05
1.54539e-05
1.54743e-05
1.5495e-05
1.55159e-05
1.55372e-05
1.55589e-05
1.55809e-05
1.56034e-05
1.56263e-05
1.56498e-05
1.56737e-05
1.56981e-05
1.57231e-05
1.57487e-05
1.57748e-05
1.58014e-05
1.58287e-05
1.58564e-05
1.58847e-05
1.59135e-05
1.59427e-05
1.59724e-05
1.60025e-05
1.6033e-05
1.60638e-05
1.60949e-05
1.61262e-05
1.61577e-05
1.61893e-05
1.62211e-05
1.62528e-05
1.62845e-05
1.63162e-05
1.63477e-05
1.63791e-05
1.64104e-05
1.64416e-05
1.64727e-05
1.65037e-05
1.65347e-05
1.65656e-05
1.65965e-05
1.66275e-05
1.66585e-05
1.66896e-05
1.67209e-05
1.67523e-05
1.67839e-05
1.68157e-05
1.7879e-05
1.78415e-05
1.78011e-05
1.7758e-05
1.77122e-05
1.76641e-05
1.76136e-05
1.7561e-05
1.75065e-05
1.74501e-05
1.73922e-05
1.7333e-05
1.72726e-05
1.72114e-05
1.71494e-05
1.70871e-05
1.70245e-05
1.69619e-05
1.68996e-05
1.68378e-05
1.6777e-05
1.67172e-05
1.6659e-05
1.66024e-05
1.65479e-05
1.64957e-05
1.64462e-05
1.63995e-05
1.63561e-05
1.63163e-05
1.62803e-05
1.62483e-05
1.62206e-05
1.61974e-05
1.61786e-05
1.61643e-05
1.61543e-05
1.61487e-05
1.61485e-05
1.6151e-05
1.61567e-05
1.61664e-05
1.61793e-05
1.61951e-05
1.62135e-05
1.62343e-05
1.62573e-05
1.62821e-05
1.63085e-05
1.63361e-05
1.63649e-05
1.63945e-05
1.64249e-05
1.64558e-05
1.64872e-05
1.65189e-05
1.65509e-05
1.6583e-05
1.66153e-05
1.66477e-05
1.66803e-05
1.67129e-05
1.67458e-05
1.67788e-05
1.6812e-05
1.68455e-05
1.68792e-05
1.69133e-05
1.69477e-05
1.69825e-05
1.70178e-05
1.70535e-05
1.70897e-05
1.71264e-05
1.71635e-05
1.72012e-05
1.72394e-05
1.7278e-05
1.73171e-05
1.73567e-05
1.73966e-05
1.7437e-05
1.74777e-05
1.75188e-05
1.75602e-05
1.76018e-05
1.76436e-05
1.76856e-05
1.77276e-05
1.77698e-05
1.78119e-05
1.78539e-05
1.78959e-05
1.79376e-05
1.79787e-05
1.80192e-05
1.80591e-05
1.80983e-05
1.81368e-05
1.81747e-05
1.82119e-05
1.82485e-05
1.82844e-05
1.83197e-05
1.83544e-05
1.83886e-05
1.84222e-05
1.84552e-05
1.84878e-05
1.85198e-05
1.8921e-05
1.88853e-05
1.88484e-05
1.88102e-05
1.87709e-05
1.87307e-05
1.86893e-05
1.86467e-05
1.86031e-05
1.85583e-05
1.85123e-05
1.84651e-05
1.84167e-05
1.83669e-05
1.83158e-05
1.82634e-05
1.82098e-05
1.81554e-05
1.81004e-05
1.80452e-05
1.79901e-05
1.79357e-05
1.78824e-05
1.78308e-05
1.77813e-05
1.77345e-05
1.76905e-05
1.76499e-05
1.76131e-05
1.75805e-05
1.75522e-05
1.75284e-05
1.75093e-05
1.74949e-05
1.74852e-05
1.74807e-05
1.74813e-05
1.74856e-05
1.74941e-05
1.75072e-05
1.75246e-05
1.75454e-05
1.75694e-05
1.75963e-05
1.76257e-05
1.76572e-05
1.76904e-05
1.7725e-05
1.77607e-05
1.77973e-05
1.78343e-05
1.78716e-05
1.79088e-05
1.79458e-05
1.79826e-05
1.80189e-05
1.80547e-05
1.80897e-05
1.81241e-05
1.81579e-05
1.81911e-05
1.82238e-05
1.8256e-05
1.82878e-05
1.83193e-05
1.83505e-05
1.83815e-05
1.84121e-05
1.84426e-05
1.84728e-05
1.85029e-05
1.85328e-05
1.85624e-05
1.85919e-05
1.86212e-05
1.86502e-05
1.86791e-05
1.87077e-05
1.8736e-05
1.87641e-05
1.87918e-05
1.88192e-05
1.88463e-05
1.88728e-05
1.88989e-05
1.89245e-05
1.89496e-05
1.8974e-05
1.89977e-05
1.90207e-05
1.9043e-05
1.90646e-05
1.90853e-05
1.91052e-05
1.91245e-05
1.91431e-05
1.9161e-05
1.91781e-05
1.91946e-05
1.92105e-05
1.92257e-05
1.92402e-05
1.92542e-05
1.92676e-05
1.92804e-05
1.92927e-05
1.93045e-05
1.93158e-05
1.93267e-05
1.93371e-05
1.93261e-05
1.92937e-05
1.92615e-05
1.92296e-05
1.91977e-05
1.91656e-05
1.91339e-05
1.91027e-05
1.9072e-05
1.90417e-05
1.90116e-05
1.89821e-05
1.89532e-05
1.8925e-05
1.88976e-05
1.88709e-05
1.88449e-05
1.88196e-05
1.87949e-05
1.8771e-05
1.87481e-05
1.87261e-05
1.87051e-05
1.86851e-05
1.86661e-05
1.86485e-05
1.86327e-05
1.86187e-05
1.86072e-05
1.85987e-05
1.85938e-05
1.85931e-05
1.85953e-05
1.86015e-05
1.86115e-05
1.86247e-05
1.86395e-05
1.86589e-05
1.86809e-05
1.87049e-05
1.87306e-05
1.87573e-05
1.87848e-05
1.88128e-05
1.88405e-05
1.88677e-05
1.88944e-05
1.89204e-05
1.89453e-05
1.89691e-05
1.89918e-05
1.90133e-05
1.90337e-05
1.90529e-05
1.90711e-05
1.90884e-05
1.91048e-05
1.91205e-05
1.91355e-05
1.915e-05
1.91639e-05
1.91772e-05
1.91901e-05
1.92024e-05
1.92143e-05
1.92257e-05
1.92368e-05
1.92475e-05
1.92578e-05
1.92679e-05
1.92777e-05
1.92872e-05
1.92966e-05
1.93057e-05
1.93146e-05
1.93234e-05
1.93319e-05
1.93403e-05
1.93485e-05
1.93566e-05
1.93646e-05
1.93723e-05
1.93799e-05
1.93874e-05
1.93948e-05
1.94021e-05
1.94092e-05
1.94163e-05
1.94234e-05
1.94304e-05
1.94374e-05
1.94443e-05
1.94511e-05
1.94578e-05
1.94645e-05
1.94711e-05
1.94775e-05
1.94838e-05
1.949e-05
1.94959e-05
1.95017e-05
1.95073e-05
1.95127e-05
1.95179e-05
1.95228e-05
1.95276e-05
1.95321e-05
1.95364e-05
1.95406e-05
1.95446e-05
1.94684e-05
1.94381e-05
1.94092e-05
1.93804e-05
1.93519e-05
1.93246e-05
1.92986e-05
1.92729e-05
1.92478e-05
1.92237e-05
1.92007e-05
1.91784e-05
1.91567e-05
1.91359e-05
1.91162e-05
1.90976e-05
1.90802e-05
1.90644e-05
1.90504e-05
1.90386e-05
1.90289e-05
1.90217e-05
1.90169e-05
1.90154e-05
1.90162e-05
1.90192e-05
1.90242e-05
1.90308e-05
1.90404e-05
1.90537e-05
1.90684e-05
1.90847e-05
1.91027e-05
1.91229e-05
1.91435e-05
1.91644e-05
1.91851e-05
1.92084e-05
1.92326e-05
1.92553e-05
1.92774e-05
1.92996e-05
1.93206e-05
1.93401e-05
1.93585e-05
1.93756e-05
1.93912e-05
1.94056e-05
1.94188e-05
1.94308e-05
1.94416e-05
1.94513e-05
1.94601e-05
1.94679e-05
1.94748e-05
1.94808e-05
1.94858e-05
1.94901e-05
1.94936e-05
1.94965e-05
1.94988e-05
1.95008e-05
1.95023e-05
1.95037e-05
1.95048e-05
1.95059e-05
1.95068e-05
1.95077e-05
1.95086e-05
1.95096e-05
1.95105e-05
1.95115e-05
1.95125e-05
1.95136e-05
1.95147e-05
1.9516e-05
1.95173e-05
1.95188e-05
1.95204e-05
1.95221e-05
1.95239e-05
1.9526e-05
1.95282e-05
1.95305e-05
1.95331e-05
1.95359e-05
1.95389e-05
1.9542e-05
1.95454e-05
1.95488e-05
1.95525e-05
1.95562e-05
1.956e-05
1.95639e-05
1.95678e-05
1.95717e-05
1.95756e-05
1.95794e-05
1.9583e-05
1.95866e-05
1.95901e-05
1.95933e-05
1.95965e-05
1.95994e-05
1.96022e-05
1.96049e-05
1.96074e-05
1.96097e-05
1.96119e-05
1.96139e-05
1.95593e-05
1.95277e-05
1.94975e-05
1.94689e-05
1.94401e-05
1.94112e-05
1.93852e-05
1.93598e-05
1.93342e-05
1.93106e-05
1.92894e-05
1.92683e-05
1.92473e-05
1.92288e-05
1.92123e-05
1.91972e-05
1.91838e-05
1.91724e-05
1.91627e-05
1.91552e-05
1.91497e-05
1.9147e-05
1.91458e-05
1.91464e-05
1.9149e-05
1.91539e-05
1.91614e-05
1.91706e-05
1.91814e-05
1.91955e-05
1.92127e-05
1.92318e-05
1.92527e-05
1.92747e-05
1.92973e-05
1.93208e-05
1.93445e-05
1.93673e-05
1.93907e-05
1.94137e-05
1.94352e-05
1.94562e-05
1.94749e-05
1.94919e-05
1.95084e-05
1.95234e-05
1.95355e-05
1.95468e-05
1.95577e-05
1.95666e-05
1.95739e-05
1.95806e-05
1.95861e-05
1.95903e-05
1.95934e-05
1.95958e-05
1.95976e-05
1.95989e-05
1.95996e-05
1.95997e-05
1.95996e-05
1.95993e-05
1.95988e-05
1.95981e-05
1.95973e-05
1.95964e-05
1.95954e-05
1.95945e-05
1.95935e-05
1.95925e-05
1.95915e-05
1.95906e-05
1.95897e-05
1.95889e-05
1.95881e-05
1.95875e-05
1.95869e-05
1.95865e-05
1.95862e-05
1.95861e-05
1.95862e-05
1.95864e-05
1.95867e-05
1.95872e-05
1.95879e-05
1.95889e-05
1.95901e-05
1.95914e-05
1.95929e-05
1.95946e-05
1.95966e-05
1.95987e-05
1.9601e-05
1.96034e-05
1.96059e-05
1.96086e-05
1.96113e-05
1.96141e-05
1.96169e-05
1.96198e-05
1.96226e-05
1.96254e-05
1.96282e-05
1.96309e-05
1.96335e-05
1.9636e-05
1.96385e-05
1.96408e-05
1.96431e-05
1.96452e-05
1.96473e-05
1.96028e-05
1.95711e-05
1.95418e-05
1.95142e-05
1.94856e-05
1.94575e-05
1.94327e-05
1.94082e-05
1.93831e-05
1.93612e-05
1.93412e-05
1.93206e-05
1.92999e-05
1.92819e-05
1.92655e-05
1.92506e-05
1.92376e-05
1.92265e-05
1.92172e-05
1.92103e-05
1.92059e-05
1.92047e-05
1.92055e-05
1.92083e-05
1.92136e-05
1.92214e-05
1.92314e-05
1.92433e-05
1.92566e-05
1.92716e-05
1.92885e-05
1.9307e-05
1.93267e-05
1.93466e-05
1.93672e-05
1.93888e-05
1.94087e-05
1.94288e-05
1.94504e-05
1.94701e-05
1.94889e-05
1.95078e-05
1.95246e-05
1.95394e-05
1.95544e-05
1.9568e-05
1.95796e-05
1.959e-05
1.95998e-05
1.96086e-05
1.96161e-05
1.96226e-05
1.96281e-05
1.96326e-05
1.96364e-05
1.96395e-05
1.96419e-05
1.96437e-05
1.96448e-05
1.96452e-05
1.9645e-05
1.96446e-05
1.96437e-05
1.96426e-05
1.96413e-05
1.96397e-05
1.9638e-05
1.96363e-05
1.96344e-05
1.96326e-05
1.96309e-05
1.96291e-05
1.96275e-05
1.9626e-05
1.96246e-05
1.96234e-05
1.96223e-05
1.96214e-05
1.96208e-05
1.96203e-05
1.96201e-05
1.96202e-05
1.96204e-05
1.96207e-05
1.96214e-05
1.96224e-05
1.96236e-05
1.96249e-05
1.96264e-05
1.96282e-05
1.96302e-05
1.96324e-05
1.96347e-05
1.96371e-05
1.96397e-05
1.96424e-05
1.96452e-05
1.96481e-05
1.9651e-05
1.96539e-05
1.96569e-05
1.96599e-05
1.96629e-05
1.96658e-05
1.96687e-05
1.96715e-05
1.96743e-05
1.9677e-05
1.96795e-05
1.96821e-05
1.96846e-05
1.96869e-05
1.96892e-05
1.96389e-05
1.96078e-05
1.958e-05
1.95531e-05
1.95248e-05
1.94985e-05
1.94748e-05
1.94504e-05
1.94269e-05
1.94059e-05
1.93867e-05
1.93667e-05
1.93472e-05
1.93301e-05
1.93144e-05
1.93006e-05
1.92889e-05
1.92789e-05
1.92705e-05
1.92638e-05
1.92594e-05
1.92582e-05
1.9259e-05
1.92614e-05
1.9266e-05
1.92727e-05
1.92814e-05
1.9292e-05
1.9304e-05
1.93177e-05
1.93332e-05
1.93503e-05
1.93683e-05
1.93869e-05
1.94058e-05
1.94249e-05
1.94433e-05
1.94618e-05
1.94816e-05
1.94988e-05
1.9515e-05
1.95319e-05
1.95477e-05
1.95618e-05
1.95752e-05
1.95879e-05
1.95995e-05
1.96103e-05
1.96202e-05
1.96295e-05
1.96381e-05
1.96455e-05
1.96514e-05
1.96566e-05
1.96611e-05
1.96649e-05
1.96679e-05
1.96703e-05
1.9672e-05
1.9673e-05
1.96736e-05
1.96737e-05
1.96736e-05
1.96731e-05
1.96723e-05
1.96713e-05
1.96701e-05
1.96687e-05
1.96672e-05
1.96656e-05
1.96641e-05
1.96626e-05
1.96612e-05
1.96599e-05
1.96588e-05
1.96578e-05
1.9657e-05
1.96565e-05
1.96561e-05
1.96561e-05
1.96562e-05
1.96565e-05
1.96572e-05
1.9658e-05
1.9659e-05
1.96603e-05
1.96619e-05
1.96635e-05
1.96654e-05
1.96675e-05
1.96697e-05
1.96721e-05
1.96746e-05
1.96773e-05
1.96801e-05
1.9683e-05
1.9686e-05
1.96891e-05
1.96923e-05
1.96956e-05
1.96989e-05
1.97022e-05
1.97056e-05
1.9709e-05
1.97123e-05
1.97156e-05
1.97189e-05
1.97222e-05
1.97253e-05
1.97284e-05
1.97315e-05
1.97345e-05
1.97374e-05
1.97381e-05
1.97087e-05
1.96783e-05
1.96487e-05
1.96221e-05
1.95955e-05
1.95681e-05
1.95433e-05
1.95203e-05
1.94962e-05
1.94742e-05
1.94535e-05
1.94341e-05
1.94154e-05
1.93973e-05
1.93808e-05
1.93662e-05
1.93535e-05
1.93427e-05
1.93334e-05
1.93259e-05
1.93202e-05
1.93165e-05
1.93152e-05
1.93156e-05
1.93173e-05
1.93209e-05
1.93263e-05
1.93336e-05
1.93425e-05
1.93527e-05
1.93642e-05
1.93771e-05
1.93913e-05
1.94063e-05
1.94219e-05
1.94379e-05
1.9454e-05
1.94697e-05
1.94858e-05
1.95032e-05
1.95186e-05
1.95329e-05
1.95482e-05
1.95633e-05
1.95768e-05
1.95895e-05
1.96019e-05
1.96137e-05
1.9625e-05
1.96357e-05
1.96459e-05
1.96555e-05
1.96641e-05
1.96712e-05
1.96776e-05
1.96835e-05
1.96889e-05
1.96935e-05
1.96974e-05
1.97005e-05
1.9703e-05
1.97049e-05
1.97063e-05
1.97073e-05
1.97079e-05
1.9708e-05
1.97078e-05
1.97074e-05
1.97067e-05
1.97059e-05
1.97049e-05
1.9704e-05
1.9703e-05
1.97021e-05
1.97014e-05
1.97007e-05
1.97002e-05
1.96999e-05
1.96999e-05
1.97e-05
1.97004e-05
1.9701e-05
1.97019e-05
1.9703e-05
1.97043e-05
1.97059e-05
1.97076e-05
1.97096e-05
1.97117e-05
1.9714e-05
1.97164e-05
1.97191e-05
1.97219e-05
1.97248e-05
1.9728e-05
1.97313e-05
1.97347e-05
1.97383e-05
1.9742e-05
1.97458e-05
1.97497e-05
1.97537e-05
1.97578e-05
1.97619e-05
1.97661e-05
1.97703e-05
1.97745e-05
1.97787e-05
1.97829e-05
1.9787e-05
1.97911e-05
1.97952e-05
1.97993e-05
1.98034e-05
1.97854e-05
1.97563e-05
1.97265e-05
1.96989e-05
1.96733e-05
1.96466e-05
1.96207e-05
1.95968e-05
1.9574e-05
1.95512e-05
1.95301e-05
1.95097e-05
1.94906e-05
1.94729e-05
1.94562e-05
1.94406e-05
1.94267e-05
1.94147e-05
1.94043e-05
1.93956e-05
1.93884e-05
1.93829e-05
1.93792e-05
1.93778e-05
1.9378e-05
1.93794e-05
1.93822e-05
1.93864e-05
1.93921e-05
1.9399e-05
1.94071e-05
1.94164e-05
1.94267e-05
1.94379e-05
1.945e-05
1.94627e-05
1.94759e-05
1.94892e-05
1.95025e-05
1.95162e-05
1.95313e-05
1.95446e-05
1.95572e-05
1.9571e-05
1.95851e-05
1.95977e-05
1.96099e-05
1.9622e-05
1.96339e-05
1.96457e-05
1.96572e-05
1.96684e-05
1.96793e-05
1.96892e-05
1.96975e-05
1.97053e-05
1.97129e-05
1.97201e-05
1.97265e-05
1.97321e-05
1.9737e-05
1.97412e-05
1.97447e-05
1.97476e-05
1.97498e-05
1.97515e-05
1.97527e-05
1.97535e-05
1.9754e-05
1.97542e-05
1.97542e-05
1.9754e-05
1.97538e-05
1.97536e-05
1.97535e-05
1.97535e-05
1.97535e-05
1.97538e-05
1.97543e-05
1.9755e-05
1.9756e-05
1.97572e-05
1.97586e-05
1.97603e-05
1.97622e-05
1.97643e-05
1.97667e-05
1.97692e-05
1.9772e-05
1.97749e-05
1.9778e-05
1.97813e-05
1.97848e-05
1.97884e-05
1.97923e-05
1.97964e-05
1.98006e-05
1.9805e-05
1.98096e-05
1.98144e-05
1.98192e-05
1.98243e-05
1.98294e-05
1.98347e-05
1.98401e-05
1.98455e-05
1.9851e-05
1.98566e-05
1.98622e-05
1.98678e-05
1.98735e-05
1.98792e-05
1.98848e-05
1.98905e-05
1.98962e-05
1.99019e-05
2.00573e-05
2.00257e-05
1.99954e-05
1.99634e-05
1.99322e-05
1.99027e-05
1.98725e-05
1.9844e-05
1.98153e-05
1.9787e-05
1.97609e-05
1.97362e-05
1.97098e-05
1.96851e-05
1.9662e-05
1.96398e-05
1.96184e-05
1.95978e-05
1.95781e-05
1.95598e-05
1.95429e-05
1.95272e-05
1.95126e-05
1.94992e-05
1.94875e-05
1.94773e-05
1.94687e-05
1.94615e-05
1.94558e-05
1.94518e-05
1.94494e-05
1.9449e-05
1.94496e-05
1.94513e-05
1.94543e-05
1.94585e-05
1.94637e-05
1.94699e-05
1.9477e-05
1.94849e-05
1.94936e-05
1.9503e-05
1.95129e-05
1.95234e-05
1.95341e-05
1.95451e-05
1.95566e-05
1.95692e-05
1.95807e-05
1.95919e-05
1.96043e-05
1.96174e-05
1.96294e-05
1.9641e-05
1.96528e-05
1.96648e-05
1.96771e-05
1.96894e-05
1.97016e-05
1.97137e-05
1.9725e-05
1.97348e-05
1.97442e-05
1.97535e-05
1.97624e-05
1.97706e-05
1.97781e-05
1.97848e-05
1.97907e-05
1.9796e-05
1.98005e-05
1.98044e-05
1.98077e-05
1.98104e-05
1.98126e-05
1.98144e-05
1.98159e-05
1.98171e-05
1.98182e-05
1.98192e-05
1.98201e-05
1.98211e-05
1.98222e-05
1.98235e-05
1.98249e-05
1.98265e-05
1.98284e-05
1.98305e-05
1.98329e-05
1.98355e-05
1.98384e-05
1.98415e-05
1.98449e-05
1.98485e-05
1.98523e-05
1.98563e-05
1.98605e-05
1.98649e-05
1.98696e-05
1.98744e-05
1.98794e-05
1.98847e-05
1.98902e-05
1.98959e-05
1.99017e-05
1.99078e-05
1.99141e-05
1.99206e-05
1.99273e-05
1.99341e-05
1.99411e-05
1.99482e-05
1.99555e-05
1.99629e-05
1.99703e-05
1.99779e-05
1.99856e-05
1.99933e-05
2.0001e-05
2.00088e-05
2.00167e-05
2.00246e-05
2.00327e-05
2.01213e-05
2.00916e-05
2.00618e-05
2.00302e-05
2.00007e-05
1.99723e-05
1.99435e-05
1.99161e-05
1.98882e-05
1.98618e-05
1.9837e-05
1.98129e-05
1.97876e-05
1.97642e-05
1.97421e-05
1.97207e-05
1.96999e-05
1.96801e-05
1.96615e-05
1.9644e-05
1.96278e-05
1.96128e-05
1.95989e-05
1.9586e-05
1.95745e-05
1.95643e-05
1.95555e-05
1.95481e-05
1.95419e-05
1.95372e-05
1.95339e-05
1.9532e-05
1.95315e-05
1.9532e-05
1.95333e-05
1.95357e-05
1.9539e-05
1.95431e-05
1.9548e-05
1.95535e-05
1.95597e-05
1.95666e-05
1.9574e-05
1.95819e-05
1.95902e-05
1.95991e-05
1.96086e-05
1.96188e-05
1.96287e-05
1.96389e-05
1.96501e-05
1.96625e-05
1.96741e-05
1.96853e-05
1.9697e-05
1.97093e-05
1.97222e-05
1.97354e-05
1.97487e-05
1.97622e-05
1.97746e-05
1.97861e-05
1.97973e-05
1.98086e-05
1.98196e-05
1.983e-05
1.98397e-05
1.98487e-05
1.98569e-05
1.98644e-05
1.98711e-05
1.98771e-05
1.98825e-05
1.98872e-05
1.98913e-05
1.9895e-05
1.98982e-05
1.99012e-05
1.99039e-05
1.99065e-05
1.9909e-05
1.99116e-05
1.99143e-05
1.99171e-05
1.992e-05
1.99232e-05
1.99267e-05
1.99304e-05
1.99344e-05
1.99386e-05
1.99432e-05
1.9948e-05
1.9953e-05
1.99583e-05
1.99639e-05
1.99697e-05
1.99757e-05
1.9982e-05
1.99884e-05
1.99951e-05
2.00021e-05
2.00092e-05
2.00166e-05
2.00243e-05
2.00322e-05
2.00403e-05
2.00487e-05
2.00573e-05
2.00661e-05
2.00752e-05
2.00845e-05
2.00939e-05
2.01036e-05
2.01134e-05
2.01234e-05
2.01335e-05
2.01437e-05
2.01541e-05
2.01645e-05
2.01751e-05
2.01857e-05
2.01965e-05
2.02074e-05
2.01997e-05
2.01716e-05
2.01426e-05
2.01122e-05
2.00846e-05
2.00574e-05
2.00299e-05
2.00039e-05
1.99776e-05
1.99527e-05
1.99292e-05
1.9906e-05
1.98826e-05
1.98605e-05
1.98394e-05
1.98186e-05
1.97986e-05
1.97798e-05
1.97621e-05
1.97455e-05
1.97299e-05
1.97154e-05
1.9702e-05
1.96895e-05
1.96781e-05
1.96678e-05
1.96588e-05
1.96509e-05
1.96441e-05
1.96385e-05
1.96341e-05
1.96309e-05
1.96288e-05
1.96277e-05
1.96276e-05
1.96281e-05
1.96294e-05
1.96315e-05
1.96342e-05
1.96375e-05
1.96414e-05
1.96459e-05
1.96511e-05
1.96568e-05
1.9663e-05
1.967e-05
1.96776e-05
1.96859e-05
1.96945e-05
1.97037e-05
1.97139e-05
1.97255e-05
1.97369e-05
1.97478e-05
1.97595e-05
1.97722e-05
1.97858e-05
1.98001e-05
1.98148e-05
1.98296e-05
1.98435e-05
1.9857e-05
1.98706e-05
1.98843e-05
1.98978e-05
1.99109e-05
1.99233e-05
1.9935e-05
1.9946e-05
1.99562e-05
1.99657e-05
1.99743e-05
1.99822e-05
1.99894e-05
1.99959e-05
2.00019e-05
2.00074e-05
2.00125e-05
2.00173e-05
2.0022e-05
2.00266e-05
2.00312e-05
2.00358e-05
2.00406e-05
2.00456e-05
2.00508e-05
2.00563e-05
2.0062e-05
2.00681e-05
2.00745e-05
2.00811e-05
2.00881e-05
2.00953e-05
2.01029e-05
2.01107e-05
2.01187e-05
2.0127e-05
2.01356e-05
2.01444e-05
2.01535e-05
2.01629e-05
2.01724e-05
2.01823e-05
2.01925e-05
2.02029e-05
2.02136e-05
2.02246e-05
2.02359e-05
2.02474e-05
2.02592e-05
2.02713e-05
2.02837e-05
2.02962e-05
2.0309e-05
2.03221e-05
2.03352e-05
2.03486e-05
2.03622e-05
2.03758e-05
2.03897e-05
2.04037e-05
2.04178e-05
2.04321e-05
2.02946e-05
2.02679e-05
2.024e-05
2.02114e-05
2.0186e-05
2.01602e-05
2.01341e-05
2.011e-05
2.00857e-05
2.00622e-05
2.00399e-05
2.00181e-05
1.99967e-05
1.99761e-05
1.99559e-05
1.99361e-05
1.99172e-05
1.98993e-05
1.98825e-05
1.98667e-05
1.98517e-05
1.98377e-05
1.98246e-05
1.98123e-05
1.9801e-05
1.97907e-05
1.97813e-05
1.97729e-05
1.97654e-05
1.9759e-05
1.97535e-05
1.9749e-05
1.97454e-05
1.97427e-05
1.97409e-05
1.97397e-05
1.97392e-05
1.97394e-05
1.97401e-05
1.97414e-05
1.97433e-05
1.97458e-05
1.9749e-05
1.97528e-05
1.97573e-05
1.97625e-05
1.97686e-05
1.97753e-05
1.97829e-05
1.97913e-05
1.98008e-05
1.98117e-05
1.98231e-05
1.98339e-05
1.98459e-05
1.98592e-05
1.98738e-05
1.98895e-05
1.99059e-05
1.99222e-05
1.99381e-05
1.9954e-05
1.99704e-05
1.99869e-05
2.00034e-05
2.00195e-05
2.00351e-05
2.005e-05
2.00642e-05
2.00777e-05
2.00902e-05
2.0102e-05
2.01129e-05
2.0123e-05
2.01323e-05
2.0141e-05
2.01492e-05
2.01569e-05
2.01643e-05
2.01714e-05
2.01785e-05
2.01855e-05
2.01925e-05
2.01998e-05
2.02072e-05
2.02148e-05
2.02228e-05
2.02311e-05
2.02397e-05
2.02486e-05
2.02578e-05
2.02674e-05
2.02773e-05
2.02875e-05
2.0298e-05
2.03088e-05
2.03199e-05
2.03312e-05
2.03428e-05
2.03547e-05
2.03669e-05
2.03794e-05
2.03922e-05
2.04053e-05
2.04187e-05
2.04324e-05
2.04465e-05
2.04609e-05
2.04756e-05
2.04906e-05
2.0506e-05
2.05216e-05
2.05376e-05
2.05537e-05
2.05702e-05
2.05869e-05
2.06038e-05
2.06209e-05
2.06382e-05
2.06557e-05
2.06733e-05
2.06912e-05
2.07092e-05
2.07274e-05
2.07458e-05
2.04076e-05
2.03825e-05
2.03562e-05
2.03301e-05
2.03068e-05
2.02827e-05
2.02584e-05
2.02364e-05
2.02142e-05
2.01923e-05
2.01716e-05
2.01516e-05
2.0132e-05
2.01128e-05
2.00939e-05
2.00754e-05
2.00576e-05
2.00408e-05
2.0025e-05
2.001e-05
1.99957e-05
1.99822e-05
1.99694e-05
1.99573e-05
1.99461e-05
1.99356e-05
1.9926e-05
1.99171e-05
1.9909e-05
1.99018e-05
1.98953e-05
1.98896e-05
1.98848e-05
1.98806e-05
1.98772e-05
1.98745e-05
1.98723e-05
1.98708e-05
1.98698e-05
1.98695e-05
1.98697e-05
1.98705e-05
1.9872e-05
1.98742e-05
1.98772e-05
1.98811e-05
1.98858e-05
1.98915e-05
1.98983e-05
1.99061e-05
1.99152e-05
1.99259e-05
1.99374e-05
1.99486e-05
1.99612e-05
1.99757e-05
1.99917e-05
2.00091e-05
2.00275e-05
2.00457e-05
2.0064e-05
2.00828e-05
2.01023e-05
2.01221e-05
2.0142e-05
2.01615e-05
2.01807e-05
2.01992e-05
2.0217e-05
2.0234e-05
2.02501e-05
2.02653e-05
2.02796e-05
2.02929e-05
2.03054e-05
2.03172e-05
2.03284e-05
2.0339e-05
2.03493e-05
2.03592e-05
2.03691e-05
2.03789e-05
2.03888e-05
2.03988e-05
2.0409e-05
2.04195e-05
2.04304e-05
2.04415e-05
2.0453e-05
2.04649e-05
2.04771e-05
2.04897e-05
2.05026e-05
2.05158e-05
2.05293e-05
2.05431e-05
2.05573e-05
2.05717e-05
2.05865e-05
2.06015e-05
2.06168e-05
2.06325e-05
2.06485e-05
2.06648e-05
2.06815e-05
2.06986e-05
2.0716e-05
2.07338e-05
2.07519e-05
2.07704e-05
2.07892e-05
2.08084e-05
2.08279e-05
2.08477e-05
2.08678e-05
2.08881e-05
2.09087e-05
2.09295e-05
2.09505e-05
2.09717e-05
2.09931e-05
2.10147e-05
2.10365e-05
2.10585e-05
2.10807e-05
2.05406e-05
2.05174e-05
2.04931e-05
2.04701e-05
2.04489e-05
2.04267e-05
2.04046e-05
2.03849e-05
2.0365e-05
2.0345e-05
2.03262e-05
2.0308e-05
2.02903e-05
2.02725e-05
2.02553e-05
2.02384e-05
2.02219e-05
2.02062e-05
2.01915e-05
2.01775e-05
2.0164e-05
2.0151e-05
2.01386e-05
2.01269e-05
2.01157e-05
2.01053e-05
2.00954e-05
2.00863e-05
2.00777e-05
2.00698e-05
2.00626e-05
2.00559e-05
2.005e-05
2.00446e-05
2.00399e-05
2.00358e-05
2.00323e-05
2.00293e-05
2.00269e-05
2.0025e-05
2.00238e-05
2.00234e-05
2.00237e-05
2.00246e-05
2.00265e-05
2.00293e-05
2.00332e-05
2.00382e-05
2.00445e-05
2.00522e-05
2.00613e-05
2.00722e-05
2.00841e-05
2.00962e-05
2.01101e-05
2.01262e-05
2.01441e-05
2.01638e-05
2.01843e-05
2.02049e-05
2.02261e-05
2.02483e-05
2.02713e-05
2.02947e-05
2.03183e-05
2.03416e-05
2.03646e-05
2.0387e-05
2.04087e-05
2.04295e-05
2.04493e-05
2.04681e-05
2.04859e-05
2.05027e-05
2.05186e-05