/*--------------------------------*- C++ -*----------------------------------*\
| =========                 |                                                 |
| \\      /  F ield         | OpenFOAM: The Open Source CFD Toolbox           |
|  \\    /   O peration     | Version:  v1706                                 |
|   \\  /    A nd           | Web:      www.OpenFOAM.com                      |
|    \\/     M anipulation  |                                                 |
\*---------------------------------------------------------------------------*/
FoamFile
{
    version     2.0;
    format      ascii;
    class       volScalarField;
    location    "1.3e-05";
    object      kappave;
}
// * * * * * * * * * * * * * * * * * * * * * * * * * * * * * * * * * * * * * //

dimensions      [1 1 -3 -1 0 0 0];


internalField   nonuniform List<scalar> 
29871
(
1.46098e-10
1.46096e-10
1.46095e-10
1.46093e-10
1.46092e-10
1.4609e-10
1.46089e-10
1.46087e-10
1.46085e-10
1.46084e-10
1.46082e-10
1.4608e-10
1.46079e-10
1.46077e-10
1.46076e-10
1.46074e-10
1.46073e-10
1.46071e-10
1.4607e-10
1.46069e-10
1.46067e-10
1.46066e-10
1.46065e-10
1.46064e-10
1.46063e-10
1.46062e-10
1.46061e-10
1.4606e-10
1.4606e-10
1.46059e-10
1.46059e-10
1.46058e-10
1.46058e-10
1.46057e-10
1.46057e-10
1.46057e-10
1.46057e-10
1.46056e-10
1.46056e-10
1.46056e-10
1.46056e-10
1.46056e-10
1.46056e-10
1.46056e-10
1.46057e-10
1.46057e-10
1.46057e-10
1.46057e-10
1.46057e-10
1.46057e-10
1.46058e-10
1.46058e-10
1.46058e-10
1.46058e-10
1.46058e-10
1.46059e-10
1.46059e-10
1.46059e-10
1.46059e-10
1.4606e-10
1.4606e-10
1.4606e-10
1.4606e-10
1.46061e-10
1.46061e-10
1.46061e-10
1.46061e-10
1.46062e-10
1.46062e-10
1.46062e-10
1.46063e-10
1.46063e-10
1.46063e-10
1.46063e-10
1.46064e-10
1.46064e-10
1.46064e-10
1.46065e-10
1.46065e-10
1.46065e-10
1.46066e-10
1.46066e-10
1.46066e-10
1.46066e-10
1.46067e-10
1.46067e-10
1.46067e-10
1.46068e-10
1.46068e-10
1.46068e-10
1.46068e-10
1.46069e-10
1.46069e-10
1.46069e-10
1.4607e-10
1.4607e-10
1.4607e-10
1.4607e-10
1.46071e-10
1.46071e-10
1.46071e-10
1.46072e-10
1.46072e-10
1.46072e-10
1.46072e-10
1.46387e-10
1.4638e-10
1.46372e-10
1.46363e-10
1.46354e-10
1.46345e-10
1.46336e-10
1.46327e-10
1.46317e-10
1.46308e-10
1.46298e-10
1.46289e-10
1.4628e-10
1.4627e-10
1.46261e-10
1.46253e-10
1.46244e-10
1.46236e-10
1.46228e-10
1.4622e-10
1.46213e-10
1.46206e-10
1.462e-10
1.46193e-10
1.46188e-10
1.46182e-10
1.46178e-10
1.46173e-10
1.46169e-10
1.46166e-10
1.46162e-10
1.4616e-10
1.46157e-10
1.46155e-10
1.46153e-10
1.46152e-10
1.46151e-10
1.4615e-10
1.4615e-10
1.4615e-10
1.4615e-10
1.4615e-10
1.4615e-10
1.46151e-10
1.46152e-10
1.46152e-10
1.46153e-10
1.46155e-10
1.46156e-10
1.46157e-10
1.46158e-10
1.4616e-10
1.46161e-10
1.46163e-10
1.46164e-10
1.46166e-10
1.46167e-10
1.46169e-10
1.4617e-10
1.46172e-10
1.46174e-10
1.46175e-10
1.46177e-10
1.46179e-10
1.46181e-10
1.46183e-10
1.46184e-10
1.46186e-10
1.46188e-10
1.4619e-10
1.46192e-10
1.46194e-10
1.46196e-10
1.46198e-10
1.46201e-10
1.46203e-10
1.46205e-10
1.46207e-10
1.46209e-10
1.46211e-10
1.46213e-10
1.46216e-10
1.46218e-10
1.4622e-10
1.46222e-10
1.46224e-10
1.46226e-10
1.46228e-10
1.4623e-10
1.46232e-10
1.46234e-10
1.46237e-10
1.46239e-10
1.46241e-10
1.46243e-10
1.46245e-10
1.46247e-10
1.46249e-10
1.46251e-10
1.46253e-10
1.46255e-10
1.46257e-10
1.46259e-10
1.46262e-10
1.46264e-10
1.4711e-10
1.47089e-10
1.47066e-10
1.47043e-10
1.47018e-10
1.46992e-10
1.46966e-10
1.46939e-10
1.46911e-10
1.46884e-10
1.46856e-10
1.46828e-10
1.468e-10
1.46773e-10
1.46745e-10
1.46719e-10
1.46693e-10
1.46667e-10
1.46643e-10
1.46619e-10
1.46597e-10
1.46575e-10
1.46554e-10
1.46535e-10
1.46517e-10
1.465e-10
1.46484e-10
1.4647e-10
1.46457e-10
1.46445e-10
1.46434e-10
1.46425e-10
1.46417e-10
1.4641e-10
1.46404e-10
1.46399e-10
1.46395e-10
1.46393e-10
1.46391e-10
1.4639e-10
1.4639e-10
1.4639e-10
1.46391e-10
1.46393e-10
1.46395e-10
1.46398e-10
1.46401e-10
1.46405e-10
1.46409e-10
1.46413e-10
1.46417e-10
1.46422e-10
1.46426e-10
1.46431e-10
1.46436e-10
1.46442e-10
1.46447e-10
1.46452e-10
1.46458e-10
1.46463e-10
1.46469e-10
1.46475e-10
1.46481e-10
1.46487e-10
1.46493e-10
1.46499e-10
1.46506e-10
1.46513e-10
1.46519e-10
1.46526e-10
1.46533e-10
1.4654e-10
1.46547e-10
1.46555e-10
1.46562e-10
1.4657e-10
1.46577e-10
1.46585e-10
1.46592e-10
1.466e-10
1.46608e-10
1.46616e-10
1.46624e-10
1.46631e-10
1.46639e-10
1.46647e-10
1.46655e-10
1.46663e-10
1.4667e-10
1.46678e-10
1.46686e-10
1.46694e-10
1.46701e-10
1.46709e-10
1.46717e-10
1.46724e-10
1.46732e-10
1.4674e-10
1.46748e-10
1.46756e-10
1.46764e-10
1.46772e-10
1.4678e-10
1.46789e-10
1.46797e-10
1.46806e-10
1.4876e-10
1.48707e-10
1.48651e-10
1.48592e-10
1.4853e-10
1.48466e-10
1.484e-10
1.48332e-10
1.48264e-10
1.48194e-10
1.48124e-10
1.48055e-10
1.47985e-10
1.47916e-10
1.47848e-10
1.47782e-10
1.47717e-10
1.47653e-10
1.47592e-10
1.47534e-10
1.47477e-10
1.47424e-10
1.47373e-10
1.47325e-10
1.4728e-10
1.47238e-10
1.472e-10
1.47164e-10
1.47132e-10
1.47103e-10
1.47078e-10
1.47055e-10
1.47036e-10
1.47019e-10
1.47006e-10
1.46995e-10
1.46987e-10
1.46982e-10
1.46979e-10
1.46979e-10
1.4698e-10
1.46982e-10
1.46987e-10
1.46993e-10
1.47001e-10
1.47009e-10
1.47019e-10
1.4703e-10
1.47042e-10
1.47054e-10
1.47067e-10
1.47081e-10
1.47095e-10
1.47109e-10
1.47124e-10
1.4714e-10
1.47155e-10
1.47171e-10
1.47187e-10
1.47204e-10
1.4722e-10
1.47237e-10
1.47255e-10
1.47273e-10
1.47291e-10
1.4731e-10
1.47329e-10
1.47348e-10
1.47368e-10
1.47388e-10
1.47409e-10
1.4743e-10
1.47452e-10
1.47474e-10
1.47496e-10
1.47519e-10
1.47542e-10
1.47566e-10
1.47589e-10
1.47613e-10
1.47637e-10
1.47661e-10
1.47686e-10
1.4771e-10
1.47735e-10
1.47759e-10
1.47783e-10
1.47808e-10
1.47832e-10
1.47857e-10
1.47881e-10
1.47906e-10
1.47931e-10
1.47955e-10
1.4798e-10
1.48005e-10
1.4803e-10
1.48055e-10
1.4808e-10
1.48106e-10
1.48132e-10
1.48158e-10
1.48184e-10
1.48211e-10
1.48238e-10
1.48266e-10
1.5239e-10
1.5228e-10
1.52162e-10
1.52036e-10
1.51904e-10
1.51767e-10
1.51624e-10
1.51478e-10
1.51328e-10
1.51176e-10
1.51022e-10
1.50867e-10
1.50713e-10
1.50559e-10
1.50406e-10
1.50255e-10
1.50107e-10
1.49962e-10
1.49822e-10
1.49685e-10
1.49554e-10
1.49428e-10
1.49308e-10
1.49194e-10
1.49087e-10
1.48987e-10
1.48894e-10
1.48809e-10
1.48731e-10
1.48661e-10
1.48598e-10
1.48543e-10
1.48496e-10
1.48456e-10
1.48423e-10
1.48397e-10
1.48377e-10
1.48364e-10
1.48357e-10
1.48356e-10
1.48359e-10
1.48366e-10
1.48378e-10
1.48394e-10
1.48413e-10
1.48436e-10
1.48462e-10
1.4849e-10
1.4852e-10
1.48553e-10
1.48587e-10
1.48622e-10
1.48659e-10
1.48696e-10
1.48735e-10
1.48774e-10
1.48815e-10
1.48856e-10
1.48898e-10
1.48941e-10
1.48984e-10
1.49029e-10
1.49074e-10
1.49121e-10
1.49168e-10
1.49217e-10
1.49266e-10
1.49317e-10
1.49369e-10
1.49422e-10
1.49477e-10
1.49533e-10
1.4959e-10
1.49648e-10
1.49708e-10
1.49768e-10
1.4983e-10
1.49893e-10
1.49957e-10
1.50021e-10
1.50087e-10
1.50153e-10
1.5022e-10
1.50287e-10
1.50355e-10
1.50423e-10
1.50491e-10
1.5056e-10
1.50628e-10
1.50697e-10
1.50766e-10
1.50835e-10
1.50904e-10
1.50973e-10
1.51042e-10
1.51112e-10
1.51182e-10
1.51253e-10
1.51324e-10
1.51396e-10
1.51468e-10
1.51542e-10
1.51616e-10
1.51692e-10
1.51768e-10
1.51846e-10
1.51924e-10
1.59338e-10
1.59116e-10
1.5888e-10
1.58629e-10
1.58366e-10
1.58092e-10
1.57808e-10
1.57516e-10
1.57218e-10
1.56914e-10
1.56607e-10
1.56299e-10
1.5599e-10
1.55683e-10
1.55378e-10
1.55077e-10
1.54781e-10
1.54493e-10
1.54212e-10
1.5394e-10
1.53679e-10
1.53428e-10
1.5319e-10
1.52964e-10
1.52752e-10
1.52554e-10
1.52371e-10
1.52203e-10
1.5205e-10
1.51914e-10
1.51793e-10
1.51688e-10
1.51599e-10
1.51526e-10
1.51469e-10
1.51426e-10
1.51398e-10
1.51383e-10
1.51383e-10
1.5139e-10
1.51408e-10
1.51438e-10
1.51476e-10
1.51524e-10
1.51578e-10
1.5164e-10
1.51708e-10
1.51781e-10
1.51859e-10
1.5194e-10
1.52025e-10
1.52113e-10
1.52204e-10
1.52296e-10
1.52391e-10
1.52487e-10
1.52586e-10
1.52686e-10
1.52787e-10
1.5289e-10
1.52995e-10
1.53102e-10
1.53211e-10
1.53322e-10
1.53435e-10
1.53551e-10
1.5367e-10
1.53791e-10
1.53915e-10
1.54043e-10
1.54173e-10
1.54306e-10
1.54443e-10
1.54583e-10
1.54726e-10
1.54872e-10
1.55021e-10
1.55173e-10
1.55328e-10
1.55485e-10
1.55644e-10
1.55806e-10
1.5597e-10
1.56135e-10
1.56301e-10
1.56469e-10
1.56637e-10
1.56806e-10
1.56976e-10
1.57146e-10
1.57315e-10
1.57485e-10
1.57655e-10
1.57826e-10
1.57996e-10
1.58167e-10
1.58339e-10
1.58511e-10
1.58684e-10
1.58858e-10
1.59033e-10
1.5921e-10
1.59389e-10
1.5957e-10
1.59753e-10
1.59938e-10
1.60125e-10
1.71519e-10
1.71232e-10
1.70917e-10
1.70576e-10
1.70212e-10
1.69824e-10
1.69416e-10
1.68989e-10
1.68544e-10
1.68085e-10
1.67613e-10
1.67129e-10
1.66636e-10
1.66136e-10
1.65631e-10
1.65123e-10
1.64614e-10
1.64107e-10
1.63603e-10
1.63106e-10
1.62616e-10
1.62138e-10
1.61672e-10
1.61222e-10
1.60791e-10
1.60379e-10
1.59989e-10
1.59623e-10
1.59284e-10
1.58971e-10
1.58687e-10
1.58432e-10
1.58206e-10
1.58011e-10
1.57846e-10
1.5771e-10
1.57605e-10
1.57528e-10
1.57479e-10
1.5746e-10
1.57467e-10
1.57489e-10
1.57535e-10
1.57603e-10
1.5769e-10
1.57794e-10
1.57914e-10
1.58049e-10
1.58195e-10
1.58352e-10
1.58518e-10
1.58692e-10
1.58872e-10
1.59057e-10
1.59247e-10
1.5944e-10
1.59636e-10
1.59835e-10
1.60036e-10
1.6024e-10
1.60447e-10
1.60656e-10
1.60867e-10
1.61082e-10
1.613e-10
1.61521e-10
1.61746e-10
1.61976e-10
1.6221e-10
1.62448e-10
1.62691e-10
1.6294e-10
1.63194e-10
1.63454e-10
1.6372e-10
1.63991e-10
1.64268e-10
1.64551e-10
1.6484e-10
1.65134e-10
1.65433e-10
1.65737e-10
1.66046e-10
1.66359e-10
1.66676e-10
1.66996e-10
1.67319e-10
1.67645e-10
1.67972e-10
1.68301e-10
1.68631e-10
1.68961e-10
1.6929e-10
1.69619e-10
1.69947e-10
1.70274e-10
1.70599e-10
1.70923e-10
1.71246e-10
1.71569e-10
1.71891e-10
1.72212e-10
1.72534e-10
1.72856e-10
1.73178e-10
1.73502e-10
1.73827e-10
1.74153e-10
1.74482e-10
1.74812e-10
1.85866e-10
1.85476e-10
1.85056e-10
1.84608e-10
1.84133e-10
1.83632e-10
1.83107e-10
1.8256e-10
1.81993e-10
1.81408e-10
1.80806e-10
1.8019e-10
1.79563e-10
1.78926e-10
1.78282e-10
1.77633e-10
1.76983e-10
1.76332e-10
1.75684e-10
1.75042e-10
1.74409e-10
1.73789e-10
1.73183e-10
1.72595e-10
1.72029e-10
1.71486e-10
1.70971e-10
1.70486e-10
1.70035e-10
1.69621e-10
1.69246e-10
1.68914e-10
1.68626e-10
1.68384e-10
1.68189e-10
1.6804e-10
1.67936e-10
1.67879e-10
1.67876e-10
1.67902e-10
1.67962e-10
1.68062e-10
1.68196e-10
1.6836e-10
1.68552e-10
1.68769e-10
1.69007e-10
1.69265e-10
1.69539e-10
1.69827e-10
1.70126e-10
1.70434e-10
1.70749e-10
1.71071e-10
1.71397e-10
1.71727e-10
1.72059e-10
1.72393e-10
1.72729e-10
1.73066e-10
1.73404e-10
1.73744e-10
1.74085e-10
1.74429e-10
1.74774e-10
1.75122e-10
1.75473e-10
1.75827e-10
1.76185e-10
1.76547e-10
1.76913e-10
1.77285e-10
1.77661e-10
1.78042e-10
1.78428e-10
1.7882e-10
1.79217e-10
1.79618e-10
1.80025e-10
1.80436e-10
1.80852e-10
1.81271e-10
1.81695e-10
1.82122e-10
1.82552e-10
1.82984e-10
1.83419e-10
1.83855e-10
1.84293e-10
1.8473e-10
1.85168e-10
1.85605e-10
1.86042e-10
1.86475e-10
1.86903e-10
1.87324e-10
1.87738e-10
1.88146e-10
1.88547e-10
1.8894e-10
1.89327e-10
1.89707e-10
1.90081e-10
1.90448e-10
1.90809e-10
1.91164e-10
1.91513e-10
1.91857e-10
1.92195e-10
1.92528e-10
1.96698e-10
1.96327e-10
1.95944e-10
1.95546e-10
1.95139e-10
1.9472e-10
1.9429e-10
1.93847e-10
1.93393e-10
1.92928e-10
1.9245e-10
1.91959e-10
1.91455e-10
1.90938e-10
1.90407e-10
1.89862e-10
1.89305e-10
1.88739e-10
1.88167e-10
1.87593e-10
1.87021e-10
1.86456e-10
1.85901e-10
1.85365e-10
1.84851e-10
1.84364e-10
1.83907e-10
1.83484e-10
1.83102e-10
1.82763e-10
1.82469e-10
1.82222e-10
1.82023e-10
1.81873e-10
1.81772e-10
1.81725e-10
1.81731e-10
1.81776e-10
1.81865e-10
1.82001e-10
1.82182e-10
1.82398e-10
1.82648e-10
1.82927e-10
1.83233e-10
1.8356e-10
1.83905e-10
1.84265e-10
1.84637e-10
1.85016e-10
1.85401e-10
1.85789e-10
1.86176e-10
1.86561e-10
1.86943e-10
1.87321e-10
1.87692e-10
1.88057e-10
1.88414e-10
1.88765e-10
1.8911e-10
1.8945e-10
1.89785e-10
1.90116e-10
1.90444e-10
1.90768e-10
1.9109e-10
1.91409e-10
1.91725e-10
1.9204e-10
1.92352e-10
1.92662e-10
1.92971e-10
1.93277e-10
1.93582e-10
1.93884e-10
1.94184e-10
1.94481e-10
1.94776e-10
1.95067e-10
1.95355e-10
1.9564e-10
1.95922e-10
1.96198e-10
1.96469e-10
1.96735e-10
1.96995e-10
1.97249e-10
1.97496e-10
1.97735e-10
1.97967e-10
1.98191e-10
1.98406e-10
1.98614e-10
1.98814e-10
1.99007e-10
1.99193e-10
1.99372e-10
1.99543e-10
1.99708e-10
1.99866e-10
2.00017e-10
2.00162e-10
2.00301e-10
2.00435e-10
2.00563e-10
2.00685e-10
2.00803e-10
2.00916e-10
2.01024e-10
2.00909e-10
2.00573e-10
2.00238e-10
1.99907e-10
1.99575e-10
1.99241e-10
1.98912e-10
1.98588e-10
1.98269e-10
1.97953e-10
1.97641e-10
1.97334e-10
1.97033e-10
1.9674e-10
1.96455e-10
1.96178e-10
1.95907e-10
1.95644e-10
1.95388e-10
1.9514e-10
1.94901e-10
1.94672e-10
1.94454e-10
1.94246e-10
1.94049e-10
1.93866e-10
1.93701e-10
1.93556e-10
1.93436e-10
1.93348e-10
1.93297e-10
1.9329e-10
1.93313e-10
1.93377e-10
1.93481e-10
1.93618e-10
1.93772e-10
1.93974e-10
1.94202e-10
1.94452e-10
1.94719e-10
1.94997e-10
1.95283e-10
1.95574e-10
1.95862e-10
1.96145e-10
1.96422e-10
1.96692e-10
1.96951e-10
1.97199e-10
1.97435e-10
1.97658e-10
1.9787e-10
1.9807e-10
1.98259e-10
1.98438e-10
1.98609e-10
1.98772e-10
1.98929e-10
1.99079e-10
1.99223e-10
1.99362e-10
1.99496e-10
1.99624e-10
1.99747e-10
1.99866e-10
1.99981e-10
2.00092e-10
2.002e-10
2.00305e-10
2.00407e-10
2.00506e-10
2.00603e-10
2.00698e-10
2.0079e-10
2.00881e-10
2.00971e-10
2.01058e-10
2.01143e-10
2.01227e-10
2.0131e-10
2.0139e-10
2.01469e-10
2.01547e-10
2.01624e-10
2.01699e-10
2.01774e-10
2.01848e-10
2.01921e-10
2.01994e-10
2.02067e-10
2.02138e-10
2.02209e-10
2.02279e-10
2.02348e-10
2.02417e-10
2.02484e-10
2.02549e-10
2.02613e-10
2.02676e-10
2.02736e-10
2.02794e-10
2.0285e-10
2.02903e-10
2.02955e-10
2.03004e-10
2.03051e-10
2.03096e-10
2.03139e-10
2.03181e-10
2.02389e-10
2.02074e-10
2.01774e-10
2.01475e-10
2.01178e-10
2.00895e-10
2.00624e-10
2.00356e-10
2.00096e-10
1.99845e-10
1.99606e-10
1.99374e-10
1.99148e-10
1.98933e-10
1.98728e-10
1.98534e-10
1.98354e-10
1.98189e-10
1.98044e-10
1.97921e-10
1.9782e-10
1.97745e-10
1.97696e-10
1.9768e-10
1.97688e-10
1.97719e-10
1.97772e-10
1.9784e-10
1.9794e-10
1.98078e-10
1.98231e-10
1.984e-10
1.98587e-10
1.98798e-10
1.99012e-10
1.99229e-10
1.99444e-10
1.99686e-10
1.99938e-10
2.00174e-10
2.00404e-10
2.00634e-10
2.00853e-10
2.01056e-10
2.01247e-10
2.01425e-10
2.01587e-10
2.01736e-10
2.01873e-10
2.01998e-10
2.0211e-10
2.02212e-10
2.02303e-10
2.02384e-10
2.02456e-10
2.02518e-10
2.0257e-10
2.02614e-10
2.02651e-10
2.02681e-10
2.02705e-10
2.02726e-10
2.02742e-10
2.02756e-10
2.02768e-10
2.02779e-10
2.02788e-10
2.02798e-10
2.02807e-10
2.02817e-10
2.02827e-10
2.02837e-10
2.02847e-10
2.02859e-10
2.02871e-10
2.02884e-10
2.02898e-10
2.02913e-10
2.0293e-10
2.02947e-10
2.02967e-10
2.02988e-10
2.03011e-10
2.03035e-10
2.03061e-10
2.0309e-10
2.03122e-10
2.03155e-10
2.03189e-10
2.03225e-10
2.03263e-10
2.03302e-10
2.03342e-10
2.03382e-10
2.03423e-10
2.03463e-10
2.03503e-10
2.03543e-10
2.03581e-10
2.03618e-10
2.03654e-10
2.03688e-10
2.03721e-10
2.03751e-10
2.03781e-10
2.03808e-10
2.03834e-10
2.03858e-10
2.03881e-10
2.03902e-10
2.03334e-10
2.03005e-10
2.02692e-10
2.02395e-10
2.02095e-10
2.01795e-10
2.01524e-10
2.0126e-10
2.00994e-10
2.00748e-10
2.00528e-10
2.00309e-10
2.00091e-10
1.99899e-10
1.99727e-10
1.9957e-10
1.9943e-10
1.99312e-10
1.99211e-10
1.99133e-10
1.99076e-10
1.99048e-10
1.99035e-10
1.99042e-10
1.99069e-10
1.99119e-10
1.99197e-10
1.99294e-10
1.99405e-10
1.99552e-10
1.99731e-10
1.9993e-10
2.00147e-10
2.00376e-10
2.0061e-10
2.00854e-10
2.01101e-10
2.01339e-10
2.01581e-10
2.01821e-10
2.02044e-10
2.02263e-10
2.02457e-10
2.02634e-10
2.02805e-10
2.02961e-10
2.03087e-10
2.03204e-10
2.03318e-10
2.0341e-10
2.03486e-10
2.03555e-10
2.03613e-10
2.03656e-10
2.03689e-10
2.03714e-10
2.03733e-10
2.03745e-10
2.03753e-10
2.03754e-10
2.03753e-10
2.0375e-10
2.03744e-10
2.03737e-10
2.03729e-10
2.0372e-10
2.0371e-10
2.037e-10
2.03689e-10
2.03679e-10
2.03669e-10
2.03659e-10
2.0365e-10
2.03641e-10
2.03634e-10
2.03627e-10
2.03621e-10
2.03617e-10
2.03614e-10
2.03613e-10
2.03614e-10
2.03616e-10
2.03619e-10
2.03624e-10
2.03632e-10
2.03642e-10
2.03654e-10
2.03668e-10
2.03683e-10
2.03701e-10
2.03722e-10
2.03744e-10
2.03767e-10
2.03792e-10
2.03819e-10
2.03846e-10
2.03875e-10
2.03904e-10
2.03933e-10
2.03963e-10
2.03992e-10
2.04021e-10
2.0405e-10
2.04078e-10
2.04106e-10
2.04132e-10
2.04157e-10
2.04182e-10
2.04205e-10
2.04227e-10
2.04249e-10
2.03787e-10
2.03457e-10
2.03153e-10
2.02865e-10
2.02568e-10
2.02275e-10
2.02018e-10
2.01763e-10
2.01502e-10
2.01275e-10
2.01066e-10
2.00852e-10
2.00637e-10
2.00451e-10
2.0028e-10
2.00125e-10
1.9999e-10
1.99874e-10
1.99778e-10
1.99706e-10
1.9966e-10
1.99647e-10
1.99656e-10
1.99685e-10
1.9974e-10
1.99821e-10
1.99925e-10
2.00049e-10
2.00187e-10
2.00343e-10
2.00518e-10
2.00712e-10
2.00916e-10
2.01123e-10
2.01337e-10
2.01562e-10
2.01769e-10
2.01978e-10
2.02202e-10
2.02407e-10
2.02602e-10
2.02799e-10
2.02973e-10
2.03128e-10
2.03283e-10
2.03424e-10
2.03545e-10
2.03653e-10
2.03756e-10
2.03846e-10
2.03925e-10
2.03992e-10
2.04049e-10
2.04096e-10
2.04136e-10
2.04168e-10
2.04193e-10
2.04212e-10
2.04223e-10
2.04227e-10
2.04225e-10
2.0422e-10
2.04212e-10
2.042e-10
2.04186e-10
2.0417e-10
2.04153e-10
2.04134e-10
2.04115e-10
2.04096e-10
2.04078e-10
2.0406e-10
2.04043e-10
2.04027e-10
2.04013e-10
2.04e-10
2.03989e-10
2.0398e-10
2.03973e-10
2.03968e-10
2.03967e-10
2.03967e-10
2.03969e-10
2.03973e-10
2.0398e-10
2.0399e-10
2.04002e-10
2.04016e-10
2.04032e-10
2.04051e-10
2.04072e-10
2.04094e-10
2.04118e-10
2.04143e-10
2.0417e-10
2.04199e-10
2.04227e-10
2.04257e-10
2.04287e-10
2.04318e-10
2.04349e-10
2.0438e-10
2.04411e-10
2.04441e-10
2.04471e-10
2.04501e-10
2.04529e-10
2.04557e-10
2.04584e-10
2.0461e-10
2.04636e-10
2.04661e-10
2.04685e-10
2.04162e-10
2.03838e-10
2.03549e-10
2.03269e-10
2.02976e-10
2.02703e-10
2.02456e-10
2.02203e-10
2.01958e-10
2.01739e-10
2.01539e-10
2.01332e-10
2.01129e-10
2.00951e-10
2.00788e-10
2.00645e-10
2.00523e-10
2.00419e-10
2.00332e-10
2.00263e-10
2.00216e-10
2.00204e-10
2.00212e-10
2.00237e-10
2.00285e-10
2.00355e-10
2.00446e-10
2.00555e-10
2.0068e-10
2.00822e-10
2.00983e-10
2.01161e-10
2.01349e-10
2.01541e-10
2.01739e-10
2.01937e-10
2.02128e-10
2.0232e-10
2.02527e-10
2.02706e-10
2.02873e-10
2.03049e-10
2.03214e-10
2.0336e-10
2.03499e-10
2.03631e-10
2.03753e-10
2.03864e-10
2.03968e-10
2.04064e-10
2.04153e-10
2.0423e-10
2.04292e-10
2.04345e-10
2.04392e-10
2.04432e-10
2.04464e-10
2.04488e-10
2.04505e-10
2.04517e-10
2.04523e-10
2.04524e-10
2.04522e-10
2.04517e-10
2.04509e-10
2.04498e-10
2.04486e-10
2.04471e-10
2.04456e-10
2.0444e-10
2.04424e-10
2.04408e-10
2.04394e-10
2.0438e-10
2.04368e-10
2.04358e-10
2.0435e-10
2.04344e-10
2.04341e-10
2.0434e-10
2.04341e-10
2.04345e-10
2.04351e-10
2.0436e-10
2.04371e-10
2.04384e-10
2.044e-10
2.04418e-10
2.04437e-10
2.04458e-10
2.04482e-10
2.04507e-10
2.04533e-10
2.04561e-10
2.0459e-10
2.04621e-10
2.04652e-10
2.04684e-10
2.04717e-10
2.04751e-10
2.04785e-10
2.0482e-10
2.04855e-10
2.0489e-10
2.04925e-10
2.04959e-10
2.04993e-10
2.05027e-10
2.0506e-10
2.05092e-10
2.05124e-10
2.05155e-10
2.05186e-10
2.05193e-10
2.04887e-10
2.04571e-10
2.04264e-10
2.03987e-10
2.0371e-10
2.03426e-10
2.03168e-10
2.02929e-10
2.02678e-10
2.02449e-10
2.02234e-10
2.02033e-10
2.01838e-10
2.01651e-10
2.01478e-10
2.01326e-10
2.01195e-10
2.01082e-10
2.00986e-10
2.00908e-10
2.00849e-10
2.0081e-10
2.00797e-10
2.00801e-10
2.00818e-10
2.00855e-10
2.00912e-10
2.00988e-10
2.0108e-10
2.01186e-10
2.01306e-10
2.0144e-10
2.01587e-10
2.01743e-10
2.01905e-10
2.02072e-10
2.0224e-10
2.02403e-10
2.0257e-10
2.02751e-10
2.02911e-10
2.0306e-10
2.03219e-10
2.03376e-10
2.03516e-10
2.03649e-10
2.03777e-10
2.039e-10
2.04017e-10
2.04128e-10
2.04234e-10
2.04335e-10
2.04424e-10
2.04497e-10
2.04564e-10
2.04626e-10
2.04682e-10
2.0473e-10
2.0477e-10
2.04802e-10
2.04828e-10
2.04848e-10
2.04862e-10
2.04873e-10
2.04879e-10
2.0488e-10
2.04878e-10
2.04874e-10
2.04867e-10
2.04858e-10
2.04848e-10
2.04838e-10
2.04828e-10
2.04819e-10
2.04811e-10
2.04804e-10
2.04799e-10
2.04796e-10
2.04796e-10
2.04797e-10
2.04801e-10
2.04808e-10
2.04817e-10
2.04828e-10
2.04842e-10
2.04858e-10
2.04876e-10
2.04896e-10
2.04918e-10
2.04942e-10
2.04968e-10
2.04995e-10
2.05024e-10
2.05054e-10
2.05087e-10
2.05122e-10
2.05158e-10
2.05194e-10
2.05233e-10
2.05273e-10
2.05314e-10
2.05355e-10
2.05398e-10
2.0544e-10
2.05484e-10
2.05527e-10
2.05571e-10
2.05615e-10
2.05658e-10
2.05701e-10
2.05744e-10
2.05787e-10
2.05829e-10
2.05871e-10
2.05684e-10
2.05382e-10
2.05072e-10
2.04786e-10
2.0452e-10
2.04241e-10
2.03973e-10
2.03724e-10
2.03487e-10
2.0325e-10
2.0303e-10
2.02819e-10
2.0262e-10
2.02436e-10
2.02262e-10
2.02101e-10
2.01956e-10
2.01831e-10
2.01723e-10
2.01632e-10
2.01557e-10
2.01501e-10
2.01462e-10
2.01447e-10
2.0145e-10
2.01464e-10
2.01493e-10
2.01537e-10
2.01596e-10
2.01668e-10
2.01752e-10
2.01848e-10
2.01955e-10
2.02072e-10
2.02198e-10
2.0233e-10
2.02467e-10
2.02605e-10
2.02743e-10
2.02886e-10
2.03043e-10
2.03182e-10
2.03312e-10
2.03456e-10
2.03602e-10
2.03733e-10
2.0386e-10
2.03986e-10
2.0411e-10
2.04232e-10
2.04352e-10
2.04468e-10
2.04581e-10
2.04684e-10
2.04771e-10
2.04852e-10
2.04931e-10
2.05006e-10
2.05072e-10
2.05131e-10
2.05181e-10
2.05225e-10
2.05261e-10
2.05291e-10
2.05314e-10
2.05332e-10
2.05345e-10
2.05353e-10
2.05358e-10
2.0536e-10
2.0536e-10
2.05359e-10
2.05357e-10
2.05354e-10
2.05353e-10
2.05353e-10
2.05353e-10
2.05356e-10
2.05362e-10
2.05369e-10
2.05379e-10
2.05391e-10
2.05406e-10
2.05423e-10
2.05443e-10
2.05465e-10
2.0549e-10
2.05516e-10
2.05545e-10
2.05576e-10
2.05608e-10
2.05642e-10
2.05678e-10
2.05716e-10
2.05756e-10
2.05799e-10
2.05843e-10
2.05889e-10
2.05936e-10
2.05986e-10
2.06037e-10
2.06089e-10
2.06142e-10
2.06197e-10
2.06253e-10
2.0631e-10
2.06367e-10
2.06425e-10
2.06483e-10
2.06542e-10
2.06601e-10
2.06659e-10
2.06718e-10
2.06777e-10
2.06837e-10
2.06896e-10
2.08511e-10
2.08183e-10
2.07868e-10
2.07535e-10
2.0721e-10
2.06904e-10
2.06591e-10
2.06294e-10
2.05995e-10
2.05701e-10
2.0543e-10
2.05173e-10
2.04899e-10
2.04642e-10
2.04402e-10
2.04171e-10
2.03948e-10
2.03735e-10
2.0353e-10
2.03339e-10
2.03164e-10
2.03001e-10
2.02848e-10
2.0271e-10
2.02588e-10
2.02482e-10
2.02392e-10
2.02317e-10
2.02259e-10
2.02216e-10
2.02192e-10
2.02188e-10
2.02194e-10
2.02212e-10
2.02243e-10
2.02286e-10
2.0234e-10
2.02405e-10
2.02479e-10
2.02561e-10
2.02651e-10
2.02749e-10
2.02852e-10
2.02961e-10
2.03072e-10
2.03186e-10
2.03306e-10
2.03437e-10
2.03556e-10
2.03673e-10
2.03802e-10
2.03939e-10
2.04063e-10
2.04183e-10
2.04306e-10
2.04431e-10
2.04559e-10
2.04687e-10
2.04813e-10
2.0494e-10
2.05056e-10
2.05159e-10
2.05257e-10
2.05353e-10
2.05445e-10
2.05531e-10
2.05608e-10
2.05678e-10
2.0574e-10
2.05794e-10
2.05842e-10
2.05882e-10
2.05916e-10
2.05944e-10
2.05967e-10
2.05986e-10
2.06002e-10
2.06015e-10
2.06026e-10
2.06036e-10
2.06046e-10
2.06056e-10
2.06067e-10
2.0608e-10
2.06095e-10
2.06112e-10
2.06132e-10
2.06154e-10
2.06178e-10
2.06205e-10
2.06235e-10
2.06268e-10
2.06303e-10
2.0634e-10
2.0638e-10
2.06422e-10
2.06466e-10
2.06512e-10
2.0656e-10
2.0661e-10
2.06662e-10
2.06717e-10
2.06774e-10
2.06833e-10
2.06894e-10
2.06957e-10
2.07023e-10
2.0709e-10
2.07159e-10
2.0723e-10
2.07303e-10
2.07377e-10
2.07453e-10
2.07529e-10
2.07607e-10
2.07686e-10
2.07765e-10
2.07845e-10
2.07926e-10
2.08007e-10
2.08089e-10
2.08172e-10
2.08255e-10
2.09176e-10
2.08868e-10
2.08558e-10
2.0823e-10
2.07923e-10
2.07628e-10
2.07328e-10
2.07043e-10
2.06753e-10
2.06478e-10
2.06221e-10
2.05971e-10
2.05708e-10
2.05464e-10
2.05234e-10
2.05012e-10
2.04796e-10
2.0459e-10
2.04396e-10
2.04215e-10
2.04046e-10
2.0389e-10
2.03745e-10
2.03612e-10
2.03492e-10
2.03386e-10
2.03295e-10
2.03217e-10
2.03154e-10
2.03104e-10
2.0307e-10
2.0305e-10
2.03046e-10
2.0305e-10
2.03064e-10
2.03089e-10
2.03123e-10
2.03166e-10
2.03217e-10
2.03274e-10
2.03339e-10
2.0341e-10
2.03487e-10
2.03569e-10
2.03656e-10
2.03748e-10
2.03847e-10
2.03953e-10
2.04056e-10
2.04162e-10
2.04278e-10
2.04407e-10
2.04528e-10
2.04644e-10
2.04766e-10
2.04894e-10
2.05027e-10
2.05165e-10
2.05304e-10
2.05443e-10
2.05573e-10
2.05692e-10
2.05809e-10
2.05926e-10
2.0604e-10
2.06148e-10
2.06249e-10
2.06342e-10
2.06428e-10
2.06506e-10
2.06576e-10
2.06638e-10
2.06694e-10
2.06743e-10
2.06786e-10
2.06824e-10
2.06857e-10
2.06888e-10
2.06916e-10
2.06943e-10
2.0697e-10
2.06997e-10
2.07024e-10
2.07053e-10
2.07084e-10
2.07118e-10
2.07153e-10
2.07192e-10
2.07233e-10
2.07277e-10
2.07325e-10
2.07375e-10
2.07427e-10
2.07482e-10
2.0754e-10
2.076e-10
2.07663e-10
2.07728e-10
2.07795e-10
2.07865e-10
2.07937e-10
2.08012e-10
2.08089e-10
2.08168e-10
2.0825e-10
2.08335e-10
2.08422e-10
2.08511e-10
2.08603e-10
2.08697e-10
2.08794e-10
2.08892e-10
2.08992e-10
2.09094e-10
2.09198e-10
2.09303e-10
2.0941e-10
2.09517e-10
2.09626e-10
2.09736e-10
2.09847e-10
2.09959e-10
2.10072e-10
2.09992e-10
2.097e-10
2.09398e-10
2.09082e-10
2.08796e-10
2.08512e-10
2.08227e-10
2.07956e-10
2.07683e-10
2.07424e-10
2.0718e-10
2.06938e-10
2.06695e-10
2.06465e-10
2.06246e-10
2.0603e-10
2.05822e-10
2.05627e-10
2.05443e-10
2.0527e-10
2.05108e-10
2.04957e-10
2.04817e-10
2.04688e-10
2.04569e-10
2.04463e-10
2.04368e-10
2.04286e-10
2.04216e-10
2.04158e-10
2.04112e-10
2.04078e-10
2.04057e-10
2.04045e-10
2.04044e-10
2.0405e-10
2.04063e-10
2.04084e-10
2.04112e-10
2.04147e-10
2.04188e-10
2.04235e-10
2.04288e-10
2.04347e-10
2.04413e-10
2.04485e-10
2.04564e-10
2.0465e-10
2.0474e-10
2.04835e-10
2.04942e-10
2.05062e-10
2.0518e-10
2.05294e-10
2.05415e-10
2.05547e-10
2.05688e-10
2.05837e-10
2.05991e-10
2.06144e-10
2.06289e-10
2.06429e-10
2.06571e-10
2.06713e-10
2.06854e-10
2.06989e-10
2.07118e-10
2.0724e-10
2.07354e-10
2.07461e-10
2.07559e-10
2.07649e-10
2.07731e-10
2.07806e-10
2.07873e-10
2.07935e-10
2.07992e-10
2.08046e-10
2.08096e-10
2.08144e-10
2.08192e-10
2.0824e-10
2.08288e-10
2.08338e-10
2.0839e-10
2.08444e-10
2.08501e-10
2.08561e-10
2.08624e-10
2.0869e-10
2.08759e-10
2.08831e-10
2.08907e-10
2.08985e-10
2.09066e-10
2.0915e-10
2.09236e-10
2.09325e-10
2.09417e-10
2.09511e-10
2.09609e-10
2.09708e-10
2.09811e-10
2.09916e-10
2.10025e-10
2.10136e-10
2.1025e-10
2.10368e-10
2.10488e-10
2.10611e-10
2.10736e-10
2.10865e-10
2.10995e-10
2.11128e-10
2.11264e-10
2.11401e-10
2.1154e-10
2.1168e-10
2.11823e-10
2.11967e-10
2.12112e-10
2.12259e-10
2.12407e-10
2.10978e-10
2.107e-10
2.10411e-10
2.10114e-10
2.09849e-10
2.09581e-10
2.0931e-10
2.09059e-10
2.08807e-10
2.08562e-10
2.0833e-10
2.08104e-10
2.07882e-10
2.07667e-10
2.07457e-10
2.07251e-10
2.07054e-10
2.06869e-10
2.06694e-10
2.0653e-10
2.06374e-10
2.06228e-10
2.06092e-10
2.05965e-10
2.05847e-10
2.05739e-10
2.05642e-10
2.05554e-10
2.05477e-10
2.0541e-10
2.05353e-10
2.05306e-10
2.05269e-10
2.05241e-10
2.05222e-10
2.05209e-10
2.05205e-10
2.05207e-10
2.05214e-10
2.05227e-10
2.05247e-10
2.05273e-10
2.05306e-10
2.05345e-10
2.05392e-10
2.05447e-10
2.0551e-10
2.0558e-10
2.05658e-10
2.05746e-10
2.05844e-10
2.05958e-10
2.06076e-10
2.06189e-10
2.06313e-10
2.06452e-10
2.06604e-10
2.06767e-10
2.06937e-10
2.07107e-10
2.07272e-10
2.07438e-10
2.07607e-10
2.0778e-10
2.07951e-10
2.08118e-10
2.0828e-10
2.08435e-10
2.08583e-10
2.08723e-10
2.08854e-10
2.08976e-10
2.09089e-10
2.09194e-10
2.09291e-10
2.09382e-10
2.09466e-10
2.09547e-10
2.09623e-10
2.09698e-10
2.09771e-10
2.09844e-10
2.09917e-10
2.09992e-10
2.10069e-10
2.10149e-10
2.10232e-10
2.10318e-10
2.10407e-10
2.105e-10
2.10596e-10
2.10696e-10
2.10799e-10
2.10905e-10
2.11014e-10
2.11126e-10
2.11241e-10
2.11359e-10
2.1148e-10
2.11603e-10
2.1173e-10
2.1186e-10
2.11993e-10
2.12129e-10
2.12268e-10
2.12411e-10
2.12557e-10
2.12707e-10
2.1286e-10
2.13016e-10
2.13176e-10
2.13338e-10
2.13504e-10
2.13672e-10
2.13843e-10
2.14017e-10
2.14192e-10
2.1437e-10
2.1455e-10
2.14732e-10
2.14915e-10
2.15101e-10
2.15288e-10
2.15477e-10
2.15668e-10
2.12154e-10
2.11892e-10
2.11619e-10
2.11348e-10
2.11106e-10
2.10854e-10
2.10602e-10
2.10373e-10
2.10143e-10
2.09915e-10
2.097e-10
2.09492e-10
2.09288e-10
2.09088e-10
2.08892e-10
2.087e-10
2.08515e-10
2.0834e-10
2.08175e-10
2.0802e-10
2.07871e-10
2.0773e-10
2.07597e-10
2.07472e-10
2.07355e-10
2.07246e-10
2.07146e-10
2.07054e-10
2.0697e-10
2.06895e-10
2.06827e-10
2.06768e-10
2.06718e-10
2.06675e-10
2.06639e-10
2.0661e-10
2.06588e-10
2.06572e-10
2.06562e-10
2.06558e-10
2.06561e-10
2.06569e-10
2.06585e-10
2.06608e-10
2.06639e-10
2.06679e-10
2.06729e-10
2.06788e-10
2.06858e-10
2.0694e-10
2.07034e-10
2.07145e-10
2.07265e-10
2.07381e-10
2.07513e-10
2.07663e-10
2.0783e-10
2.08011e-10
2.08201e-10
2.08391e-10
2.08581e-10
2.08777e-10
2.08979e-10
2.09185e-10
2.09391e-10
2.09595e-10
2.09794e-10
2.09987e-10
2.10172e-10
2.10348e-10
2.10516e-10
2.10674e-10
2.10822e-10
2.10961e-10
2.11091e-10
2.11213e-10
2.11329e-10
2.1144e-10
2.11546e-10
2.1165e-10
2.11753e-10
2.11855e-10
2.11957e-10
2.12061e-10
2.12168e-10
2.12277e-10
2.1239e-10
2.12506e-10
2.12625e-10
2.12748e-10
2.12875e-10
2.13006e-10
2.1314e-10
2.13277e-10
2.13418e-10
2.13562e-10
2.13709e-10
2.13859e-10
2.14012e-10
2.14168e-10
2.14328e-10
2.14491e-10
2.14657e-10
2.14827e-10
2.15001e-10
2.15178e-10
2.15359e-10
2.15544e-10
2.15732e-10
2.15924e-10
2.1612e-10
2.1632e-10
2.16522e-10
2.16728e-10
2.16937e-10
2.17148e-10
2.17362e-10
2.17578e-10
2.17797e-10
2.18017e-10
2.1824e-10
2.18464e-10
2.18691e-10
2.18919e-10
2.1915e-10
2.13536e-10
2.13295e-10
2.13042e-10
2.12803e-10
2.12583e-10
2.12352e-10
2.12122e-10
2.11918e-10
2.1171e-10
2.11503e-10
2.11307e-10
2.11118e-10
2.10934e-10
2.10749e-10
2.1057e-10
2.10395e-10
2.10223e-10
2.1006e-10
2.09907e-10
2.09761e-10
2.09621e-10
2.09486e-10
2.09357e-10
2.09235e-10
2.09119e-10
2.0901e-10
2.08908e-10
2.08812e-10
2.08724e-10
2.08642e-10
2.08566e-10
2.08497e-10
2.08435e-10
2.0838e-10
2.08331e-10
2.08288e-10
2.08251e-10
2.0822e-10
2.08195e-10
2.08176e-10
2.08163e-10
2.08159e-10
2.08162e-10
2.08172e-10
2.08191e-10
2.0822e-10
2.08261e-10
2.08313e-10
2.08379e-10
2.08458e-10
2.08552e-10
2.08666e-10
2.0879e-10
2.08915e-10
2.0906e-10
2.09227e-10
2.09414e-10
2.09618e-10
2.09831e-10
2.10046e-10
2.10267e-10
2.10497e-10
2.10736e-10
2.1098e-10
2.11224e-10
2.11467e-10
2.11706e-10
2.11939e-10
2.12164e-10
2.1238e-10
2.12586e-10
2.12782e-10
2.12967e-10
2.13141e-10
2.13306e-10
2.13463e-10
2.13612e-10
2.13755e-10
2.13894e-10