/*--------------------------------*- C++ -*----------------------------------*\
| =========                 |                                                 |
| \\      /  F ield         | OpenFOAM: The Open Source CFD Toolbox           |
|  \\    /   O peration     | Version:  v1706                                 |
|   \\  /    A nd           | Web:      www.OpenFOAM.com                      |
|    \\/     M anipulation  |                                                 |
\*---------------------------------------------------------------------------*/
FoamFile
{
    version     2.0;
    format      ascii;
    class       volScalarField;
    location    "1.3e-05";
    object      Mach;
}
// * * * * * * * * * * * * * * * * * * * * * * * * * * * * * * * * * * * * * //

dimensions      [0 0 0 0 0 0 0];


internalField   nonuniform List<scalar> 
29871
(
3.99345
3.99349
3.99353
3.99357
3.99361
3.99365
3.99369
3.99373
3.99377
3.99382
3.99386
3.9939
3.99394
3.99398
3.99402
3.99406
3.9941
3.99413
3.99417
3.9942
3.99423
3.99426
3.99429
3.99432
3.99434
3.99437
3.99439
3.9944
3.99442
3.99444
3.99445
3.99446
3.99447
3.99448
3.99449
3.99449
3.9945
3.9945
3.9945
3.9945
3.9945
3.9945
3.9945
3.9945
3.9945
3.99449
3.99449
3.99448
3.99448
3.99447
3.99447
3.99446
3.99446
3.99445
3.99445
3.99444
3.99443
3.99443
3.99442
3.99442
3.99441
3.9944
3.9944
3.99439
3.99438
3.99438
3.99437
3.99436
3.99435
3.99435
3.99434
3.99433
3.99432
3.99431
3.99431
3.9943
3.99429
3.99428
3.99427
3.99427
3.99426
3.99425
3.99424
3.99424
3.99423
3.99422
3.99421
3.9942
3.9942
3.99419
3.99418
3.99418
3.99417
3.99416
3.99415
3.99415
3.99414
3.99413
3.99413
3.99412
3.99411
3.9941
3.9941
3.99409
3.99408
3.98628
3.98648
3.98669
3.9869
3.98712
3.98735
3.98758
3.98782
3.98806
3.98829
3.98853
3.98876
3.989
3.98922
3.98945
3.98966
3.98987
3.99008
3.99027
3.99046
3.99064
3.9908
3.99096
3.99111
3.99125
3.99138
3.9915
3.9916
3.9917
3.99179
3.99186
3.99193
3.99199
3.99203
3.99207
3.9921
3.99212
3.99214
3.99214
3.99214
3.99214
3.99213
3.99212
3.99211
3.99208
3.99206
3.99203
3.992
3.99197
3.99194
3.99191
3.99187
3.99183
3.9918
3.99176
3.99172
3.99168
3.99164
3.99159
3.99155
3.99151
3.99146
3.99142
3.99137
3.99133
3.99128
3.99123
3.99118
3.99113
3.99108
3.99103
3.99098
3.99093
3.99087
3.99082
3.99077
3.99071
3.99066
3.9906
3.99055
3.9905
3.99044
3.99039
3.99033
3.99028
3.99023
3.99017
3.99012
3.99007
3.99001
3.98996
3.98991
3.98986
3.9898
3.98975
3.9897
3.98965
3.98959
3.98954
3.98948
3.98943
3.98937
3.98932
3.98926
3.9892
3.96828
3.96882
3.96941
3.97001
3.97065
3.9713
3.97198
3.97266
3.97336
3.97406
3.97477
3.97547
3.97617
3.97686
3.97754
3.97821
3.97885
3.97948
3.98009
3.98067
3.98123
3.98176
3.98226
3.98272
3.98316
3.98357
3.98395
3.98429
3.9846
3.98488
3.98513
3.98534
3.98553
3.98569
3.98582
3.98592
3.986
3.98606
3.98609
3.9861
3.98608
3.98606
3.98603
3.98598
3.98591
3.98584
3.98575
3.98565
3.98555
3.98544
3.98532
3.9852
3.98508
3.98495
3.98482
3.98469
3.98455
3.98441
3.98427
3.98412
3.98398
3.98383
3.98367
3.98352
3.98336
3.9832
3.98303
3.98286
3.98269
3.98251
3.98234
3.98215
3.98197
3.98178
3.98159
3.9814
3.9812
3.98101
3.98081
3.98061
3.98041
3.98021
3.98001
3.97981
3.97962
3.97942
3.97922
3.97902
3.97882
3.97863
3.97843
3.97824
3.97804
3.97784
3.97765
3.97745
3.97725
3.97705
3.97685
3.97665
3.97644
3.97624
3.97603
3.97582
3.97561
3.97539
3.92803
3.92938
3.9308
3.9323
3.93386
3.93547
3.93711
3.9388
3.9405
3.94221
3.94394
3.94565
3.94736
3.94904
3.9507
3.95232
3.9539
3.95544
3.95692
3.95835
3.95971
3.96101
3.96223
3.96339
3.96446
3.96546
3.96638
3.96722
3.96797
3.96865
3.96924
3.96975
3.97018
3.97054
3.97083
3.97104
3.9712
3.97128
3.97131
3.97128
3.97121
3.97113
3.97099
3.97081
3.97059
3.97035
3.97008
3.96979
3.96948
3.96915
3.96881
3.96846
3.9681
3.96772
3.96734
3.96695
3.96656
3.96615
3.96574
3.96532
3.96489
3.96445
3.96401
3.96355
3.96308
3.96261
3.96212
3.96163
3.96112
3.9606
3.96007
3.95954
3.95899
3.95843
3.95787
3.95729
3.95671
3.95612
3.95553
3.95493
3.95433
3.95373
3.95312
3.95251
3.9519
3.95129
3.95069
3.95008
3.94947
3.94886
3.94824
3.94763
3.94702
3.9464
3.94578
3.94516
3.94453
3.9439
3.94326
3.94261
3.94196
3.94129
3.94062
3.93994
3.93925
3.93855
3.8406
3.84338
3.84635
3.84948
3.85276
3.85617
3.85969
3.8633
3.86698
3.87071
3.87448
3.87826
3.88203
3.88578
3.88949
3.89314
3.89671
3.90019
3.90356
3.90682
3.90994
3.91292
3.91575
3.91842
3.92092
3.92324
3.92539
3.92735
3.92914
3.93073
3.93215
3.93338
3.93442
3.9353
3.93599
3.93652
3.93689
3.93711
3.93718
3.9371
3.93691
3.93669
3.93634
3.93587
3.93531
3.93468
3.93399
3.93324
3.93243
3.93159
3.93071
3.92979
3.92885
3.92789
3.9269
3.92589
3.92486
3.92382
3.92276
3.92168
3.92058
3.91946
3.91831
3.91714
3.91595
3.91473
3.91348
3.91221
3.9109
3.90957
3.9082
3.9068
3.90537
3.90392
3.90243
3.90092
3.89938
3.89781
3.89623
3.89462
3.893
3.89137
3.88972
3.88806
3.8864
3.88472
3.88305
3.88137
3.87969
3.87801
3.87632
3.87464
3.87295
3.87126
3.86956
3.86786
3.86614
3.86442
3.86268
3.86093
3.85916
3.85737
3.85555
3.85372
3.85186
3.84998
3.84807
3.6831
3.68837
3.69396
3.69984
3.70599
3.71236
3.71893
3.72567
3.73254
3.73951
3.74654
3.75361
3.76067
3.76771
3.77468
3.78156
3.78831
3.79492
3.80134
3.80756
3.81354
3.81926
3.8247
3.82984
3.83465
3.83911
3.84322
3.84696
3.85032
3.85329
3.85587
3.85807
3.85989
3.86134
3.86242
3.86316
3.86354
3.86362
3.86338
3.86284
3.86227
3.86141
3.86028
3.85895
3.85745
3.8558
3.85403
3.85215
3.85017
3.84812
3.846
3.84382
3.84159
3.83932
3.83701
3.83467
3.83228
3.82986
3.8274
3.82491
3.82236
3.81978
3.81714
3.81445
3.81171
3.8089
3.80604
3.8031
3.8001
3.79704
3.7939
3.79069
3.78741
3.78407
3.78066
3.77718
3.77365
3.77006
3.76641
3.76272
3.75899
3.75522
3.75142
3.74759
3.74375
3.73989
3.73602
3.73214
3.72827
3.72439
3.72051
3.71664
3.71276
3.70888
3.705
3.7011
3.69719
3.69326
3.68931
3.68534
3.68133
3.67728
3.6732
3.66907
3.66489
3.66066
3.65638
3.42356
3.4302
3.43737
3.44505
3.45321
3.46182
3.47085
3.48025
3.48999
3.50004
3.51035
3.52088
3.53159
3.54243
3.55336
3.56432
3.57527
3.58617
3.59696
3.60758
3.618
3.62815
3.63798
3.64746
3.65652
3.66513
3.67325
3.68083
3.68785
3.69428
3.70008
3.70523
3.70972
3.71354
3.71668
3.71915
3.72097
3.72211
3.72261
3.72247
3.72176
3.72053
3.71924
3.7173
3.71488
3.7121
3.70899
3.70561
3.70198
3.69816
3.69416
3.69002
3.68576
3.6814
3.67696
3.67246
3.6679
3.66329
3.65864
3.65395
3.64921
3.64442
3.63958
3.63469
3.62973
3.62469
3.61958
3.61439
3.6091
3.60371
3.59822
3.59262
3.58691
3.58109
3.57516
3.56912
3.56296
3.5567
3.55034
3.54388
3.53733
3.53069
3.52399
3.51722
3.51039
3.50352
3.49662
3.4897
3.48277
3.47583
3.46891
3.462
3.45513
3.4483
3.44151
3.43475
3.42804
3.42137
3.41472
3.4081
3.4015
3.39491
3.38833
3.38175
3.37516
3.36856
3.36193
3.35528
3.3486
3.34189
3.15196
3.16044
3.1694
3.17882
3.18868
3.19897
3.20964
3.22068
3.23206
3.24373
3.25566
3.26781
3.28015
3.29264
3.30523
3.3179
3.33061
3.34329
3.3559
3.36839
3.38069
3.39274
3.40447
3.41581
3.42669
3.43704
3.44678
3.45584
3.46414
3.47162
3.47823
3.48391
3.48864
3.49242
3.49522
3.49706
3.49795
3.49789
3.49685
3.49503
3.49223
3.48964
3.486
3.48163
3.47672
3.47136
3.46562
3.45957
3.45326
3.44675
3.44008
3.4333
3.42644
3.41953
3.41259
3.40564
3.39869
3.39175
3.38481
3.37788
3.37094
3.364
3.35704
3.35004
3.34301
3.33593
3.3288
3.3216
3.31433
3.30697
3.29954
3.29202
3.28441
3.27671
3.26893
3.26106
3.25311
3.24509
3.237
3.22885
3.22064
3.2124
3.20411
3.19581
3.18749
3.17917
3.17086
3.16258
3.15432
3.14612
3.13796
3.12987
3.12185
3.11394
3.10617
3.09856
3.09109
3.08378
3.07661
3.06959
3.06271
3.05596
3.04935
3.04286
3.03649
3.03023
3.0241
3.01807
3.01216
3.00636
2.96391
2.97211
2.98045
2.98897
2.99769
3.00656
3.01558
3.02474
3.03405
3.04348
3.05304
3.06273
3.07255
3.08248
3.09251
3.10264
3.11284
3.12306
3.13324
3.14332
3.15323
3.16289
3.17221
3.18111
3.1895
3.19733
3.20452
3.211
3.21667
3.22148
3.22537
3.2283
3.23024
3.23117
3.23109
3.22997
3.22793
3.22508
3.22067
3.21677
3.21186
3.20603
3.19967
3.19286
3.18569
3.17823
3.17057
3.16279
3.15494
3.14708
3.13926
3.13151
3.12388
3.11638
3.10901
3.10176
3.09468
3.08774
3.08095
3.07429
3.06775
3.06131
3.05496
3.04869
3.04248
3.03634
3.03026
3.02422
3.01824
3.0123
3.00641
3.00057
2.99479
2.98907
2.98342
2.97784
2.97235
2.96695
2.96165
2.95647
2.95141
2.94647
2.94167
2.93703
2.93253
2.92819
2.924
2.91997
2.91609
2.91237
2.90879
2.90536
2.90208
2.89891
2.89586
2.89292
2.89008
2.88733
2.88468
2.88212
2.87965
2.87726
2.87495
2.87271
2.87055
2.86845
2.86643
2.86446
2.86256
2.86071
2.89297
2.90058
2.90816
2.91566
2.9231
2.93048
2.93774
2.94484
2.95181
2.95867
2.96538
2.97188
2.97816
2.98425
2.99013
2.99582
3.0013
3.00653
3.0115
3.01615
3.02046
3.0244
3.02793
3.03102
3.03361
3.03565
3.03712
3.03801
3.03821
3.03755
3.03602
3.03363
3.0305
3.02652
3.02174
3.01622
3.00997
3.00513
2.9985
2.99147
2.98441
2.97728
2.97015
2.96312
2.95627
2.94967
2.94336
2.93738
2.93175
2.92648
2.92155
2.91695
2.91267
2.90869
2.90501
2.9016
2.89842
2.89545
2.89267
2.89005
2.88758
2.88523
2.88298
2.88082
2.87872
2.87668
2.87468
2.87272
2.87079
2.86888
2.86701
2.86516
2.86334
2.86155
2.8598
2.85808
2.8564
2.85475
2.85315
2.85158
2.85006
2.84858
2.84715
2.84575
2.84439
2.84308
2.84181
2.84059
2.83941
2.83826
2.83717
2.83611
2.8351
2.83412
2.83318
2.83228
2.83141
2.83057
2.82977
2.82899
2.82824
2.82752
2.82682
2.82614
2.82549
2.82486
2.82425
2.82366
2.82308
2.82253
2.87144
2.87899
2.8862
2.89305
2.89996
2.9067
2.91313
2.91935
2.92529
2.93093
2.93641
2.94168
2.9467
2.9514
2.95575
2.95975
2.96337
2.96656
2.96924
2.97139
2.97295
2.97387
2.97415
2.97373
2.97272
2.97101
2.96866
2.96559
2.96299
2.95911
2.95425
2.94894
2.94301
2.93667
2.92959
2.92245
2.91534
2.90883
2.90177
2.89438
2.88759
2.88118
2.87505
2.86927
2.86396
2.85913
2.85474
2.85077
2.84725
2.84415
2.84144
2.83908
2.83705
2.83535
2.83392
2.83273
2.83173
2.83088
2.83016
2.82953
2.82897
2.82847
2.828
2.82756
2.82714
2.82672
2.8263
2.82588
2.82546
2.82503
2.82458
2.82414
2.82368
2.82322
2.82276
2.8223
2.82184
2.82138
2.82092
2.82048
2.82005
2.81962
2.81922
2.81884
2.81847
2.8181
2.81776
2.81745
2.81717
2.8169
2.81664
2.81641
2.8162
2.816
2.81581
2.81564
2.81547
2.8153
2.81514
2.81498
2.81481
2.81465
2.81448
2.81431
2.81414
2.81397
2.8138
2.81363
2.81345
2.81328
2.85413
2.86123
2.86901
2.87611
2.88249
2.88918
2.89628
2.9021
2.90761
2.9137
2.91938
2.92396
2.92864
2.93372
2.9382
2.94212
2.94562
2.9488
2.95126
2.9534
2.95466
2.95565
2.9552
2.95455
2.95317
2.95096
2.94822
2.94457
2.94028
2.93617
2.93104
2.9252
2.91887
2.91222
2.9053
2.89816
2.89086
2.88365
2.87666
2.86976
2.86325
2.85717
2.8509
2.8455
2.84073
2.83597
2.83152
2.82806
2.82494
2.82178
2.81929
2.81737
2.8156
2.81411
2.81295
2.81207
2.8114
2.81091
2.81056
2.81036
2.81025
2.81023
2.81028
2.81038
2.81051
2.81065
2.8108
2.81094
2.81106
2.81116
2.81124
2.8113
2.81134
2.81135
2.81135
2.81134
2.81131
2.81128
2.81124
2.81118
2.81113
2.81109
2.81102
2.81096
2.81092
2.81087
2.81079
2.81071
2.81064
2.81055
2.81045
2.81033
2.81019
2.81005
2.8099
2.80973
2.80955
2.80936
2.80916
2.80896
2.80875
2.80854
2.80832
2.8081
2.80788
2.80765
2.80743
2.8072
2.80696
2.80674
2.8065
2.84596
2.85294
2.86091
2.86788
2.87416
2.88101
2.88801
2.8937
2.89949
2.90561
2.91086
2.91483
2.91927
2.92362
2.9272
2.93061
2.93366
2.93619
2.93835
2.94009
2.9413
2.94192
2.94198
2.94147
2.9403
2.93842
2.93582
2.93249
2.92851
2.92395
2.91879
2.91311
2.90696
2.90051
2.89412
2.88752
2.88018
2.87365
2.86705
2.85998
2.85402
2.84838
2.84244
2.83722
2.83288
2.8283
2.82419
2.82062
2.81747
2.8145
2.812
2.8099
2.80813
2.80666
2.80555
2.80473
2.80414
2.80377
2.80359
2.80357
2.80363
2.80379
2.80402
2.80429
2.80456
2.80483
2.80508
2.80531
2.80551
2.80567
2.8058
2.80589
2.80594
2.80596
2.80596
2.80592
2.80586
2.80577
2.80567
2.80555
2.8054
2.80526
2.80511
2.80494
2.80479
2.80466
2.80448
2.80431
2.80416
2.80401
2.80388
2.80373
2.80359
2.80346
2.80332
2.80317
2.80302
2.80286
2.8027
2.80253
2.80236
2.80218
2.80199
2.80179
2.80158
2.80137
2.80115
2.80091
2.80065
2.80041
2.80015
2.79983
2.79955
2.83866
2.8457
2.85342
2.86
2.86614
2.873
2.87943
2.88472
2.89067
2.89612
2.90135
2.90515
2.90969
2.91378
2.91734
2.92076
2.92372
2.92608
2.92778
2.92889
2.92952
2.9296
2.92923
2.92837
2.92699
2.92505
2.92258
2.91962
2.91622
2.91236
2.90802
2.90324
2.89807
2.89263
2.88705
2.88124
2.87515
2.86927
2.86336
2.85643
2.85085
2.84571
2.84011
2.83515
2.8307
2.82641
2.82244
2.81885
2.81553
2.81253
2.80992
2.80759
2.8056
2.804
2.80267
2.80156
2.80066
2.79997
2.79947
2.79913
2.79892
2.79884
2.79884
2.7989
2.799
2.79913
2.79926
2.7994
2.79953
2.79964
2.79974
2.7998
2.79985
2.79986
2.79985
2.79982
2.79976
2.79968
2.79957
2.79945
2.79932
2.79918
2.79902
2.79884
2.79868
2.79851
2.79831
2.79811
2.7979
2.79769
2.79747
2.7972
2.79693
2.79669
2.7964
2.79611
2.79582
2.79553
2.79524
2.79494
2.79464
2.79433
2.79401
2.79369
2.79334
2.79298
2.79264
2.79225
2.79183
2.79145
2.79102
2.79057
2.79013
2.81695
2.82435
2.8311
2.83834
2.84558
2.85171
2.858
2.86454
2.87049
2.87557
2.88133
2.88623
2.89101
2.89536
2.89949
2.9032
2.90667
2.90974
2.91233
2.91446
2.91618
2.91742
2.918
2.91784
2.91713
2.916
2.91447
2.91249
2.9101
2.90731
2.90414
2.90056
2.89658
2.89225
2.88764
2.88283
2.8779
2.87286
2.86775
2.86272
2.85766
2.85152
2.84646
2.84187
2.83693
2.83226
2.82807
2.82404
2.8202
2.8166
2.8132
2.81006
2.80727
2.80468
2.80238
2.80047
2.79881
2.79738
2.79619
2.79524
2.7945
2.79397
2.7936
2.79338
2.79327
2.79323
2.79325
2.7933
2.79336
2.79343
2.79348
2.79351
2.79351
2.79348
2.79341
2.7933
2.79315
2.79296
2.79275
2.79251
2.79226
2.79198
2.79169
2.79138
2.79105
2.79072
2.79037
2.79001
2.78964
2.78926
2.78888
2.78849
2.78809
2.78768
2.78728
2.7869
2.78649
2.78606
2.78567
2.78526
2.78481
2.78437
2.78392
2.78344
2.78296
2.78248
2.78195
2.78142
2.78088
2.78031
2.77972
2.77912
2.77849
2.77785
2.77719
2.8085
2.81548
2.82211
2.82936
2.8361
2.8418
2.84826
2.85438
2.85981
2.86513
2.87037
2.87501
2.87956
2.88389
2.8878
2.89133
2.89451
2.89726
2.89958
2.90149
2.903
2.90406
2.90461
2.90463
2.90418
2.90327
2.90181
2.89988
2.89755
2.89489
2.89191
2.88863
2.88505
2.88123
2.87719
2.87298
2.86868
2.86431
2.85986
2.85544
2.85103
2.84554
2.84093
2.83668
2.83207
2.8276
2.82361
2.81977
2.81604
2.81247
2.80906
2.80588
2.80297
2.80021
2.7977
2.79561
2.79377
2.79213
2.79072
2.78955
2.78858
2.78779
2.78715
2.78661
2.78618
2.78584
2.78558
2.78536
2.78517
2.785
2.78484
2.78466
2.78446
2.78424
2.78399
2.78372
2.78342
2.78309
2.78273
2.78234
2.78193
2.78149
2.78103
2.78055
2.78004
2.77953
2.77899
2.77844
2.77788
2.77731
2.77673
2.77614
2.77555
2.77495
2.77435
2.77374
2.77311
2.77247
2.77183
2.77118
2.7705
2.76981
2.76911
2.76838
2.76764
2.76688
2.76609
2.76528
2.76444
2.76358
2.76269
2.76178
2.76084
2.75987
2.75888
2.75787
2.7453
2.7538
2.76124
2.76829
2.77625
2.78355
2.79045
2.79789
2.80443
2.81123
2.81802
2.82425
2.82975
2.83601
2.84173
2.84706
2.85226
2.85707
2.8616
2.86597
2.87004
2.87372
2.87705
2.88
2.88255
2.88469
2.88644
2.8878
2.88873
2.88922
2.88926
2.88884
2.88804
2.88687
2.88531
2.88339
2.88114
2.87862
2.87582
2.87277
2.86949
2.86601
2.86238
2.85863
2.85482
2.85095
2.84708
2.8432
2.83848
2.83429
2.83032
2.826
2.8216
2.81772
2.81398
2.8103
2.80674
2.80326
2.79997
2.79692
2.79394
2.79122
2.78886
2.78668
2.78468
2.78288
2.7813
2.77994
2.77876
2.77776
2.77691
2.77619
2.77557
2.77502
2.77454
2.7741
2.77368
2.77326
2.77285
2.77243
2.77198
2.77151
2.77101
2.77048
2.76992
2.76932
2.76869
2.76803
2.76734
2.76662
2.76588
2.76511
2.76432
2.76351
2.76267
2.76182
2.76096
2.76008
2.75919
2.75828
2.75736
2.75643
2.75548
2.75452
2.75354
2.75255
2.75153
2.7505
2.74945
2.74837
2.74727
2.74614
2.74498
2.74379
2.74257
2.74131
2.74003
2.7387
2.73734
2.73594
2.73451
2.73304
2.73153
2.73441
2.74255
2.7495
2.75634
2.76422
2.77094
2.77778
2.7847
2.79087
2.79761
2.80397
2.80963
2.81508
2.82096
2.82634
2.8314
2.83626
2.84098
2.84537
2.84945
2.85322
2.85667
2.85978
2.86255
2.86495
2.86697
2.86862
2.86989
2.87078
2.87127
2.87136
2.87105
2.87036
2.86935
2.86804
2.86642
2.86452
2.86238
2.86
2.85742
2.85465
2.85171
2.84863
2.84544
2.84216
2.83877
2.83538
2.83198
2.82813
2.82433
2.82063
2.81676
2.81254
2.80877
2.80515
2.80153
2.79794
2.79438
2.79097
2.7877
2.78445
2.78149
2.77884
2.77634
2.77398
2.77182
2.76986
2.76811
2.76655
2.76516
2.76392
2.76281
2.7618
2.76088
2.76003
2.75922
2.75845
2.75769
2.75693
2.75617
2.75538
2.75458
2.75374
2.75287
2.75196
2.75101
2.75003
2.74901
2.74796
2.74687
2.74576
2.74461
2.74343
2.74222
2.74098
2.73972
2.73844
2.73714
2.73581
2.73447
2.7331
2.73171
2.7303
2.72887
2.72742
2.72595
2.72445
2.72292
2.72136
2.71978
2.71816
2.7165
2.7148
2.71307
2.71129
2.70947
2.70761
2.7057
2.70374
2.70173
2.69967
2.69757
2.69541
2.72111
2.72854
2.73511
2.74175
2.74929
2.75545
2.76204
2.76855
2.77435
2.78064
2.78659
2.7919
2.79723
2.80263
2.8076
2.81229
2.81696
2.82143
2.82558
2.8294
2.8329
2.83611
2.83901
2.8416
2.84386
2.84579
2.84737
2.84861
2.8495
2.85003
2.85021
2.85004
2.84953
2.84873
2.84763
2.8463
2.84473
2.84294
2.84096
2.8388
2.83648
2.83401
2.8314
2.82869
2.82585
2.8229
2.81992
2.81692
2.81367
2.81027
2.80684
2.80333
2.79933
2.79564
2.79214
2.78858
2.78497
2.78137
2.77785
2.77434
2.77088
2.76772
2.76476
2.7619
2.75915
2.75656
2.75416
2.75195
2.7499
2.74801
2.74627
2.74465
2.74313
2.74171
2.74035
2.73906
2.7378
2.73656
2.73533
2.7341
2.73285
2.73158
2.73028
2.72895
2.72758
2.72616
2.72471
2.72321
2.72168
2.7201
2.71848
2.71682
2.71513
2.7134
2.71163
2.70983
2.708
2.70614
2.70425
2.70234
2.70039
2.69842
2.69641
2.69438
2.69232
2.69023
2.6881
2.68594
2.68374
2.6815
2.67922
2.6769
2.67452
2.6721
2.66962
2.66709
2.6645
2.66185
2.65915
2.65638
2.65355
2.65066
2.64771
2.70471
2.71133
2.71751
2.72396
2.7309
2.73656
2.74272
2.7489
2.75423
2.75993
2.76542
2.77048
2.7755
2.78037
2.78492
2.78934
2.7937
2.79784
2.80168
2.80521
2.80845
2.81142
2.81411
2.81652
2.81865
2.82047
2.82199
2.82321
2.82411
2.82469
2.82497
2.82494
2.82462
2.82402
2.82317
2.8221
2.82081
2.81932
2.81768
2.81587
2.81392
2.81183
2.80961
2.80727
2.8048
2.80221
2.79958
2.79689
2.79402
2.79094
2.78776
2.78457
2.78085
2.77722
2.77381
2.77028
2.76664
2.76297
2.75932
2.75555
2.7519
2.74848
2.74516
2.74188
2.73868
2.73561
2.73268
2.7299
2.72727
2.72477
2.72241
2.72016
2.71802
2.71597
2.71399
2.71208
2.7102
2.70836
2.70653
2.7047
2.70286
2.701
2.69911
2.69719
2.69523
2.69322
2.69117
2.68907
2.68692
2.68472
2.68248
2.68019
2.67785
2.67547
2.67305
2.67058
2.66808
2.66553
2.66296
2.66034
2.65769
2.655
2.65228
2.64952
2.64672
2.64388
2.641
2.63808
2.63511
2.63209
2.62902
2.62589
2.62271
2.61946
2.61616
2.61279
2.60935
2.60584
2.60226
2.59861
2.59489
2.59109
2.58723
2.58329
2.57928
2.68453
2.69044
2.69613
2.70233
2.70851
2.71367
2.71936
2.7251
2.72991
2.73499
2.74
2.74469
2.74924
2.75358
2.75777
2.76187
2.76582
2.76957
2.77305
2.77626
2.77922
2.78193
2.7844
2.78662
2.78858
2.79028
2.79171
2.79288
2.79377
2.79439
2.79474
2.79482
2.79465
2.79423
2.79358
2.79272
2.79167
2.79044
2.78906
2.78752
2.78585
2.78405
2.78213
2.78008
2.7779
2.77559
2.77321
2.77075
2.76812
2.76527
2.76229
2.75931
2.75584
2.75227
2.74888
2.74532
2.74161
2.73784
2.73396
2.72993
2.72606
2.72231
2.71856
2.71481
2.71109
2.70746
2.70392
2.70049
2.69718
2.69399
2.6909
2.68792
2.68504
2.68224
2.67953
2.67688
2.67427
2.6717
2.66915
2.66661
2.66405
2.66148
2.65889
2.65626
2.65358
2.65087
2.6481
2.64527
2.6424
2.63946
2.63648
2.63344
2.63035
2.6272
2.62401
2.62077
2.61748
2.61415
2.61077
2.60735
2.60389
2.60038
2.59684
2.59324
2.58961
2.58592
2.58219
2.5784
2.57456
2.57067
2.56671
2.56269
2.55861
2.55445
2.55023
2.54593
2.54155
2.5371
2.53257
2.52795
2.52326
2.51848
2.51363
2.5087
2.50368
2.66003
2.66533
2.67043
2.67623
2.68154
2.68618
2.69136
2.69651
2.70076
2.70524
2.70972
2.71393
2.71793
2.72172
2.72554
2.7292
2.73268
2.73601
2.7391
2.74193
2.74455
2.74697
2.74917
2.75116
2.75292
2.75445
2.75576
2.75683
2.75767
2.75827
2.75863
2.75877
2.75868
2.75838
2.75787
2.75717
2.75629
2.75525
2.75406
2.75272
2.75125
2.74965
2.74792
2.74608
2.7441
2.74199
2.73978
2.73747
2.73497
2.73225
2.72938
2.72654
2.72317
2.71964
2.71621
2.71253
2.70868
2.70472
2.70052
2.69625
2.69208
2.68791
2.68367
2.67938
2.67508
2.67082
2.6666
2.66245
2.65838
2.6544
2.65051
2.64671
2.643
2.63938
2.63583
2.63234
2.62891
2.62552
2.62215
2.61879
2.61543
2.61205
2.60865
2.60522
2.60174
2.59821
2.59463
2.59099
2.58729
2.58354
2.57972
2.57585
2.57192
2.56793
2.56389
2.55979
2.55564
2.55145
2.5472
2.54291
2.53857
2.53418
2.52974
2.52525
2.52072
2.51613
2.51149
2.50679
2.50203
2.49721
2.49232
2.48736
2.48234
2.47723
2.47205
2.46679
2.46145
2.45602
2.45051
2.44492
2.43923
2.43347
2.42762
2.42168
2.41567
2.62572
2.63075
2.63543
2.63992
2.64505
2.6495
2.65356
2.65816
2.66261
2.66624
2.67011
2.674
2.67762
2.68106
2.68429
2.68762
2.69076
2.69372
2.69658
2.69924
2.70165
2.70386
2.70592
2.7078
2.7095
2.711
2.71232
2.71343
2.71435
2.71506
2.71558
2.71589
2.71601
2.71593
2.71566
2.71521
2.71459
2.71381
2.71287
2.7118
2.71058
2.70923
2.70776
2.70614
2.7044
2.70253
2.70054
2.69842
2.69616
2.69371
2.69102
2.68818
2.6854
2.68196
2.67843
2.67485
2.67098
2.66691
2.66265
2.65809
2.65353
2.64897
2.64431
2.63952
2.63463
2.62969
2.62473
2.61977
2.61485
2.60997
2.60515
2.6004
2.59573
2.59114
2.58663
2.58219
2.57782
2.5735
2.56922
2.56497
2.56074
2.55651
2.55226
2.54799
2.54369
2.53934
2.53495
2.5305
2.52599
2.52142
2.51679
2.5121
2.50734
2.50253
2.49766
2.49274
2.48775
2.48272
2.47763
2.47249
2.46731
2.46207
2.45678
2.45144
2.44605
2.44061
2.43512
2.42956
2.42395
2.41828
2.41254
2.40673
2.40086
2.3949
2.38887
2.38276
2.37657
2.37029
2.36393
2.35748
2.35094
2.34432
2.33761
2.33082
2.32394
2.31699
2.59203
2.59625
2.60023
2.60409
2.60832
2.61197
2.61538
2.6193
2.62292
2.62591
2.62914
2.63241
2.63535
2.63816
2.64082
2.64355
2.64613
2.64846
2.65081
2.65301
2.65495
2.6567
2.65833
2.65982
2.66116
2.66234
2.66336
2.66422
2.66491
2.66543
2.66578
2.66596
2.66598
2.66582
2.66551
2.66504
2.66442
2.66365
2.66274
2.66169
2.66051
2.65921
2.65777
2.65619
2.65447
2.65263
2.65066
2.64854
2.64626
2.64377
2.64102
2.63815
2.6353
2.63167
2.62805
2.62422
2.62008
2.61573
2.61105
2.60615
2.60122
2.59618
2.59096
2.58556
2.58004
2.57441
2.56873
2.56301
2.55728
2.55158
2.5459
2.54028
2.53473
2.52925
2.52384
2.5185
2.51322
2.508
2.50282
2.49768
2.49255
2.48743
2.48229
2.47714
2.47195
2.46673
2.46145
2.45612
2.45073
2.44529
2.43978
2.43421
2.42859
2.4229
2.41716
2.41137
2.40552
2.39962
2.39367
2.38766
2.38161
2.37551
2.36937
2.36317
2.35692
2.35062
2.34427
2.33786
2.33139
2.32486
2.31827
2.31161
2.30487
2.29807
2.29119
2.28422
2.27718
2.27006
2.26285
2.25555
2.24818
2.24071
2.23317
2.22555
2.21785
2.21007
2.20221
2.19428
2.55274
2.55616
2.55936
2.56252
2.56576
2.56865
2.57136
2.57444
2.57718
2.57951
2.58202
2.58464
2.58684
2.58891
2.59099
2.59306
2.59506
2.59667
2.59841
2.60017
2.60158
2.60281
2.60394
2.60497
2.60589
2.60668
2.60735
2.60788
2.60827
2.60852
2.60863
2.60861
2.60844
2.60813
2.60769
2.60712
2.60641
2.60557
2.6046
2.60351
2.60229
2.60095
2.59947
2.59784
2.59608
2.5942
2.59216
2.58996
2.58757
2.58496
2.58209
2.57915
2.57599
2.57216
2.56835
2.5642
2.55974
2.55502
2.54989
2.54462
2.53925
2.53367
2.52785
2.52183
2.51564
2.50933
2.50292
2.49644
2.48993
2.48342
2.47692
2.47046
2.46406
2.45772
2.45144
2.44523
2.43909
2.433
2.42695
2.42094
2.41495
2.40896
2.40297
2.39696
2.39092
2.38484
2.37872
2.37255
2.36632
2.36004
2.35371
2.34732
2.34087
2.33437
2.32782
2.32122
2.31457
2.30787
2.30113
2.29434
2.2875
2.28062
2.2737
2.26673
2.25971
2.25264
2.24553
2.23836
2.23114
2.22385
2.21651
2.20911
2.20163
2.19409
2.18647
2.17878
2.17101
2.16316
2.15524
2.14724
2.13915
2.13099
2.12276
2.11445
2.10607
2.09762
2.0891
2.08052
2.50767
2.51024
2.51263
2.51498
2.51727
2.51936
2.52133
2.52347
2.52534
2.52697
2.5287
2.53053
2.53199
2.53332
2.5347
2.53611
2.53754
2.5384
2.53937
2.54066
2.54151
2.54217
2.54278
2.5433
2.54373
2.54408
2.54433
2.54448
2.54451
2.54443
2.54423
2.54393
2.54351
2.54298
2.54234
2.54159
2.54072
2.53974
2.53864
2.53743
2.5361
2.53465
2.53306
2.53132
2.52946
2.52745
2.52528
2.52292
2.52036
2.51755
2.51451
2.51145
2.50775
2.5038
2.49966
2.49516
2.49037
2.48517
2.47964
2.47397
2.46809
2.46195
2.45553
2.44889
2.44207
2.43509
2.42799
2.4208
2.41357
2.40631
2.39905
2.39183
2.38464
2.37752
2.37045
2.36345
2.35651
2.34962
2.34278
2.33597
2.32918
2.3224
2.31562
2.30882
2.302
2.29515
2.28826
2.28132
2.27434
2.26732
2.26024
2.25312
2.24594
2.23873
2.23146
2.22416
2.21681
2.20942
2.20199
2.19452
2.18701
2.17946
2.17188
2.16426
2.15659
2.14888
2.14113
2.13333
2.12548
2.11758
2.10963
2.10161
2.09353
2.08539
2.07719
2.06891
2.06056
2.05214
2.04366
2.0351
2.02647
2.01777
2.009
2.00017
1.99128
1.98232
1.97331
1.96424
2.45682
2.45849
2.46002
2.4615
2.46289
2.46414
2.46531
2.4665
2.46752
2.4684
2.46932
2.47027
2.47098
2.47157
2.47218
2.47294
2.47368
2.47377
2.47408
2.47484
2.47499
2.47503
2.47518
2.47516
2.47504
2.4749
2.47471
2.47442
2.47404
2.47357
2.47302
2.47239
2.47167
2.47086
2.46996
2.46897
2.46789
2.46671
2.46542
2.46404
2.46254
2.46091
2.45916
2.45726
2.45524
2.45305
2.45067
2.4481
2.44531
2.44226
2.43905
2.43565
2.43147
2.42731
2.42281
2.41796
2.41278
2.40712
2.40121
2.39511
2.38872
2.38202
2.37504
2.36783
2.36041
2.35283
2.34512
2.3373
2.32943
2.32152
2.31361
2.30572
2.29786
2.29005
2.2823
2.27461
2.26698
2.2594
2.25186
2.24436
2.23688
2.22941
2.22194
2.21446
2.20696
2.19944
2.19188
2.18429
2.17667
2.16901
2.1613
2.15356
2.14578
2.13797
2.13011
2.12223
2.1143
2.10635
2.09837
2.09035
2.0823
2.07422
2.06611
2.05797
2.0498
2.04159
2.03334
2.02505
2.01673
2.00835
1.99993
1.99145
1.98292
1.97433
1.96568
1.95698
1.94821
1.93937
1.93048
1.92152
1.9125
1.90342
1.89429
1.8851
1.87586
1.86657
1.85723
1.84785
1.83842
2.40114
2.40179
2.40236
2.40286
2.40326
2.40358
2.40386
2.40405
2.40414
2.40423
2.4043
2.40425
2.40409
2.40395
2.404
2.40391
2.4033
2.403
2.40324
2.40258
2.40197
2.40175
2.40117
2.40046
2.3998
2.39914
2.39839
2.39758
2.3967
2.39576
2.39476
2.3937
2.39258
2.39139
2.39012
2.38878
2.38735
2.38584
2.38423
2.38252
2.38068
2.37872
2.37663
2.37439
2.37198
2.36937
2.36654
2.36348
2.36018
2.35676
2.35273
2.3484
2.34389
2.33903
2.33382
2.32821
2.32215
2.31588
2.30933
2.30246
2.29526
2.28779
2.28008
2.27216
2.26406
2.25583
2.24749
2.23909
2.23065
2.2222
2.21376
2.20536
2.19699
2.18868
2.18043
2.17222
2.16407
2.15596
2.14788
2.13982
2.13178
2.12375
2.11571
2.10765
2.09958
2.09149
2.08338
2.07523
2.06706
2.05886
2.05064
2.04238
2.0341
2.02579
2.01745
2.0091
2.00072
1.99231
1.98389
1.97544
1.96697
1.95847
1.94996
1.94141
1.93284
1.92425
1.91561
1.90695
1.89824
1.8895
1.88071
1.87187
1.86299
1.85405
1.84506
1.83601
1.82692
1.81776
1.80856
1.79931
1.79001
1.78066
1.77127
1.76184
1.75236
1.74286
1.73331
1.72374
2.3386
2.33836
2.33805
2.33766
2.3372
2.33667
2.33609
2.33544
2.33473
2.334
2.33325
2.33242
2.33151
2.33066
2.32994
2.32901
2.32782
2.32686
2.32646
2.32515
2.32384
2.32331
2.3222
2.32083
2.31964
2.31852
2.31732
2.31606
2.31476
2.31343
2.31205
2.31064
2.30918
2.30768
2.30612
2.30449
2.3028
2.30104
2.29918
2.29722
2.29515
2.29297
2.29064
2.28816
2.2855
2.28262
2.27952
2.27618
2.27267
2.26881
2.26436
2.25983
2.25496
2.24974
2.24417
2.23815
2.23177
2.22514
2.21819
2.2109
2.20329
2.19541
2.18728
2.17895
2.17045
2.16181
2.15307
2.14426
2.13542
2.12655
2.1177
2.10887
2.10008
2.09134
2.08265
2.074
2.0654
2.05685
2.04832
2.03982
2.03133
2.02286
2.01438
2.0059
1.99742
1.98892
1.98041
1.97188
1.96333
1.95476
1.94618
1.93758
1.92896
1.92033
1.91169
1.90302
1.89435
1.88566
1.87696
1.86825
1.85952
1.85078
1.84202
1.83325
1.82445
1.81564
1.8068
1.79793
1.78903
1.7801
1.77114
1.76213
1.75308
1.74399
1.73486
1.72568
1.71645
1.70718
1.69787
1.68852
1.67913
1.6697
1.66023
1.65074
1.64122
1.63167
1.6221
1.61251
2.27035
2.26917
2.26793
2.26662
2.26526
2.26386
2.26241
2.26092
2.25941
2.25788
2.2563
2.25467
2.2531
2.25162
2.25001
2.24822
2.24663
2.24548
2.24371
2.24168
2.24067
2.23914
2.23716
2.23549
2.23392
2.23228
2.23059
2.22888
2.22716
2.22542
2.22365
2.22187
2.22005
2.21819
2.21628
2.21431
2.21228
2.21016
2.20795
2.20565
2.20321
2.20064
2.1979
2.19498
2.19183
2.18844
2.18486
2.18109
2.17669
2.17209
2.16723
2.16203
2.15647
2.15057
2.1442
2.13754
2.1306
2.12331
2.11568
2.10775
2.09956
2.09113
2.0825
2.0737
2.06477
2.05575
2.04665
2.03752
2.02837
2.01922
2.0101
2.001
1.99195
1.98295
1.97398
1.96506
1.95618
1.94733
1.93851
1.9297
1.92091
1.91213
1.90335
1.89457
1.88579
1.87701
1.86822
1.85942
1.85062
1.8418
1.83299
1.82416
1.81533
1.80649
1.79765
1.7888
1.77996
1.7711
1.76225
1.75339
1.74452
1.73565
1.72677
1.71787
1.70896
1.70003
1.69108
1.68211
1.6731
1.66407
1.65501
1.64592
1.63679
1.62763
1.61843
1.6092
1.59994
1.59065
1.58132
1.57197
1.56258
1.55316
1.54371
1.53425
1.52477
1.51529
1.50579
2.1965
2.19443
2.19232
2.19017
2.18799
2.18578
2.18355
2.18131
2.17906
2.17677
2.17447
2.17223
2.17006
2.16781
2.16544
2.16326
2.1614
2.15916
2.15652
2.15507
2.15303
2.15056
2.14845
2.14645
2.14439
2.1423
2.14022
2.13813
2.13605
2.13396
2.13186
2.12973
2.12759
2.1254
2.12317
2.12087
2.1185
2.11605
2.11349
2.11081
2.10799
2.105
2.1018
2.09838
2.09474
2.09096
2.08676
2.08211
2.07727
2.0721
2.0666
2.06075
2.05457
2.04794
2.04104
2.03383
2.02628
2.01841
2.01025
2.00184
1.9932
1.98438
1.97539
1.96628
1.95708
1.94781
1.9385
1.92917
1.91985
1.91054
1.90126
1.89201
1.88281
1.87364
1.86451
1.85542
1.84636
1.83733
1.82832
1.81933
1.81036
1.8014
1.79244
1.7835
1.77455
1.76562
1.75668
1.74775
1.73882
1.7299
1.72098
1.71206
1.70314
1.69422
1.68531
1.6764
1.6675
1.6586
1.64971
1.64082
1.63194
1.62305
1.61417
1.60527
1.59637
1.58745
1.5785
1.56954
1.56054
1.55151
1.54247
1.5334
1.52431
1.51519
1.50606
1.4969
1.48773
1.47855
1.46936
1.46016
1.45095
1.44173
1.43251
1.42328
1.41406
1.40484
1.39563
1.38643
2.12085
2.11802
2.11516
2.11227
2.10937
2.10646
2.10354
2.10062
2.09771
2.09478
2.09187
2.08901
2.08622
2.0834
2.08048
2.07779
2.07529
2.07253
2.06943
2.0676
2.06494
2.06213
2.05964
2.05723
2.05478
2.05234
2.04992
2.04752
2.04512
2.04273
2.04034
2.03794
2.03553
2.03308
2.0306
2.02806
2.02545
2.02276
2.01997
2.01705
2.01399
2.01074
2.00729
2.00362
1.99979
1.99573
1.99117
1.98636
1.98126