/*--------------------------------*- C++ -*----------------------------------*\
| =========                 |                                                 |
| \\      /  F ield         | OpenFOAM: The Open Source CFD Toolbox           |
|  \\    /   O peration     | Version:  v1706                                 |
|   \\  /    A nd           | Web:      www.OpenFOAM.com                      |
|    \\/     M anipulation  |                                                 |
\*---------------------------------------------------------------------------*/
FoamFile
{
    version     2.0;
    format      ascii;
    class       volScalarField;
    location    "1.3e-05";
    object      rho;
}
// * * * * * * * * * * * * * * * * * * * * * * * * * * * * * * * * * * * * * //

dimensions      [1 -3 0 0 0 0 0];


internalField   nonuniform List<scalar> 
29871
(
0.00051149
0.000511486
0.000511482
0.000511478
0.000511473
0.000511469
0.000511464
0.000511459
0.000511454
0.000511449
0.000511445
0.00051144
0.000511435
0.000511431
0.000511426
0.000511422
0.000511418
0.000511414
0.00051141
0.000511406
0.000511402
0.000511398
0.000511395
0.000511392
0.000511389
0.000511386
0.000511383
0.00051138
0.000511378
0.000511376
0.000511374
0.000511373
0.000511371
0.00051137
0.000511369
0.000511368
0.000511368
0.000511367
0.000511367
0.000511367
0.000511367
0.000511367
0.000511367
0.000511367
0.000511368
0.000511368
0.000511369
0.000511369
0.00051137
0.00051137
0.000511371
0.000511371
0.000511372
0.000511373
0.000511374
0.000511374
0.000511375
0.000511376
0.000511377
0.000511377
0.000511378
0.000511379
0.00051138
0.000511381
0.000511382
0.000511382
0.000511383
0.000511384
0.000511385
0.000511386
0.000511387
0.000511388
0.000511389
0.00051139
0.000511391
0.000511391
0.000511392
0.000511393
0.000511394
0.000511395
0.000511396
0.000511397
0.000511398
0.000511399
0.0005114
0.000511401
0.000511402
0.000511403
0.000511404
0.000511404
0.000511405
0.000511406
0.000511407
0.000511408
0.000511409
0.00051141
0.000511411
0.000511412
0.000511413
0.000511414
0.000511416
0.000511417
0.000511418
0.000511419
0.00051142
0.000512451
0.000512428
0.000512404
0.000512378
0.000512352
0.000512324
0.000512295
0.000512265
0.000512235
0.000512204
0.000512173
0.000512142
0.000512111
0.000512081
0.000512051
0.000512021
0.000511993
0.000511965
0.000511939
0.000511914
0.000511889
0.000511867
0.000511845
0.000511825
0.000511806
0.000511789
0.000511773
0.000511758
0.000511744
0.000511732
0.000511721
0.000511711
0.000511702
0.000511695
0.000511689
0.000511684
0.00051168
0.000511677
0.000511675
0.000511674
0.000511674
0.000511674
0.000511675
0.000511677
0.000511679
0.000511682
0.000511685
0.000511689
0.000511693
0.000511697
0.000511702
0.000511707
0.000511712
0.000511717
0.000511722
0.000511727
0.000511733
0.000511738
0.000511744
0.000511749
0.000511755
0.000511761
0.000511767
0.000511773
0.000511779
0.000511786
0.000511792
0.000511799
0.000511805
0.000511812
0.000511819
0.000511826
0.000511833
0.000511841
0.000511848
0.000511855
0.000511863
0.00051187
0.000511878
0.000511886
0.000511893
0.000511901
0.000511908
0.000511916
0.000511923
0.000511931
0.000511938
0.000511946
0.000511953
0.00051196
0.000511968
0.000511975
0.000511982
0.000511989
0.000511996
0.000512004
0.000512011
0.000512018
0.000512025
0.000512032
0.00051204
0.000512047
0.000512054
0.000512062
0.000512069
0.000514904
0.000514843
0.000514777
0.000514706
0.000514631
0.000514553
0.000514471
0.000514386
0.0005143
0.000514212
0.000514122
0.000514033
0.000513943
0.000513853
0.000513764
0.000513676
0.000513589
0.000513504
0.00051342
0.000513339
0.000513261
0.000513185
0.000513113
0.000513044
0.000512978
0.000512917
0.00051286
0.000512807
0.000512759
0.000512715
0.000512676
0.000512641
0.000512611
0.000512585
0.000512563
0.000512544
0.00051253
0.000512518
0.000512511
0.000512506
0.000512504
0.000512505
0.000512508
0.000512513
0.00051252
0.000512529
0.000512539
0.000512551
0.000512563
0.000512577
0.000512592
0.000512608
0.000512625
0.000512642
0.00051266
0.000512678
0.000512697
0.000512716
0.000512736
0.000512756
0.000512777
0.000512798
0.00051282
0.000512841
0.000512864
0.000512887
0.00051291
0.000512933
0.000512957
0.000512981
0.000513006
0.000513031
0.000513057
0.000513083
0.000513109
0.000513135
0.000513162
0.000513189
0.000513216
0.000513243
0.00051327
0.000513298
0.000513325
0.000513353
0.00051338
0.000513408
0.000513435
0.000513463
0.00051349
0.000513517
0.000513545
0.000513572
0.0005136
0.000513628
0.000513656
0.000513684
0.000513712
0.000513741
0.00051377
0.000513799
0.000513829
0.000513859
0.000513889
0.00051392
0.000513951
0.000513983
0.000520998
0.000520835
0.000520658
0.000520467
0.000520264
0.00052005
0.000519826
0.000519594
0.000519355
0.000519112
0.000518864
0.000518615
0.000518365
0.000518116
0.000517871
0.000517629
0.000517392
0.000517162
0.00051694
0.000516726
0.000516521
0.000516326
0.00051614
0.000515965
0.0005158
0.000515645
0.000515501
0.000515367
0.000515244
0.000515132
0.000515031
0.00051494
0.000514861
0.000514792
0.000514735
0.000514688
0.000514651
0.000514623
0.000514606
0.000514596
0.000514595
0.000514601
0.000514613
0.00051463
0.000514653
0.000514681
0.000514714
0.000514752
0.000514793
0.000514838
0.000514886
0.000514937
0.000514989
0.000515044
0.0005151
0.000515158
0.000515216
0.000515276
0.000515337
0.000515399
0.000515462
0.000515526
0.000515591
0.000515658
0.000515726
0.000515796
0.000515867
0.00051594
0.000516015
0.000516091
0.000516169
0.000516248
0.000516329
0.000516412
0.000516496
0.000516581
0.000516668
0.000516756
0.000516844
0.000516934
0.000517025
0.000517116
0.000517207
0.000517299
0.000517392
0.000517484
0.000517577
0.00051767
0.000517763
0.000517855
0.000517948
0.000518041
0.000518135
0.000518228
0.000518322
0.000518416
0.000518511
0.000518606
0.000518702
0.000518799
0.000518897
0.000518995
0.000519095
0.000519196
0.000519298
0.000519401
0.000534954
0.000534611
0.000534232
0.000533821
0.00053338
0.000532912
0.000532422
0.000531913
0.000531386
0.000530845
0.000530294
0.000529735
0.000529171
0.000528603
0.000528035
0.000527469
0.000526907
0.000526352
0.000525807
0.000525273
0.000524753
0.00052425
0.000523767
0.000523305
0.000522869
0.000522459
0.000522077
0.000521725
0.000521402
0.00052111
0.000520848
0.000520616
0.000520413
0.000520239
0.000520091
0.000519969
0.000519875
0.000519802
0.000519756
0.000519735
0.000519729
0.000519743
0.000519774
0.000519822
0.000519885
0.000519962
0.00052005
0.00052015
0.000520259
0.000520377
0.000520502
0.000520633
0.00052077
0.000520912
0.000521058
0.000521209
0.000521364
0.000521524
0.000521687
0.000521854
0.000522026
0.000522202
0.000522382
0.000522566
0.000522755
0.000522948
0.000523146
0.000523348
0.000523556
0.000523768
0.000523984
0.000524206
0.000524432
0.000524663
0.000524898
0.000525137
0.00052538
0.000525627
0.000525877
0.000526131
0.000526387
0.000526646
0.000526907
0.00052717
0.000527434
0.000527701
0.000527968
0.000528237
0.000528508
0.000528779
0.000529052
0.000529327
0.000529603
0.000529881
0.000530162
0.000530445
0.000530732
0.000531021
0.000531315
0.000531612
0.000531914
0.000532221
0.000532532
0.00053285
0.000533173
0.000533502
0.000533838
0.000567159
0.000566298
0.000565348
0.000564317
0.000563211
0.000562037
0.000560805
0.000559523
0.000558201
0.00055685
0.000555476
0.000554091
0.000552704
0.000551324
0.00054996
0.000548618
0.000547305
0.000546027
0.00054479
0.000543598
0.000542453
0.000541358
0.000540314
0.000539322
0.000538384
0.000537499
0.000536671
0.000535901
0.000535191
0.000534543
0.00053396
0.000533444
0.000532992
0.000532605
0.000532289
0.000532041
0.000531847
0.000531716
0.000531651
0.000531629
0.000531658
0.000531727
0.000531836
0.000531984
0.000532168
0.000532387
0.000532637
0.000532915
0.000533218
0.000533544
0.000533892
0.000534258
0.000534642
0.00053504
0.000535451
0.000535873
0.000536306
0.000536748
0.000537199
0.000537658
0.000538127
0.000538605
0.000539093
0.000539591
0.0005401
0.000540621
0.000541155
0.000541702
0.000542263
0.000542839
0.000543429
0.000544035
0.000544656
0.000545294
0.000545946
0.000546615
0.000547299
0.000547998
0.000548711
0.000549439
0.000550179
0.000550933
0.000551697
0.000552472
0.000553256
0.000554048
0.000554848
0.000555655
0.000556467
0.000557284
0.000558107
0.000558934
0.000559767
0.000560606
0.000561451
0.000562302
0.000563161
0.000564028
0.000564904
0.000565791
0.000566689
0.000567599
0.000568523
0.000569461
0.000570415
0.000571384
0.000572369
0.000637681
0.000636435
0.000634998
0.000633371
0.000631568
0.0006296
0.000627481
0.000625225
0.000622852
0.000620374
0.000617802
0.000615146
0.000612421
0.000609641
0.000606818
0.000603961
0.000601082
0.000598195
0.000595316
0.00059246
0.000589642
0.000586876
0.000584179
0.000581569
0.000579064
0.000576681
0.000574433
0.000572333
0.000570389
0.000568606
0.000566984
0.000565524
0.000564224
0.000563076
0.000562078
0.000561233
0.000560543
0.000559985
0.000559548
0.000559283
0.000559162
0.000559131
0.000559222
0.000559417
0.000559718
0.00056012
0.000560614
0.000561192
0.000561845
0.000562565
0.000563344
0.000564174
0.000565047
0.000565954
0.000566892
0.000567857
0.000568846
0.000569859
0.000570896
0.000571956
0.00057304
0.00057415
0.000575287
0.000576451
0.000577644
0.000578869
0.000580126
0.000581417
0.000582745
0.00058411
0.000585514
0.000586958
0.000588446
0.000589976
0.000591551
0.00059317
0.000594834
0.000596543
0.000598296
0.000600092
0.000601929
0.000603807
0.000605722
0.000607673
0.000609656
0.000611669
0.00061371
0.000615777
0.000617868
0.000619982
0.000622118
0.000624275
0.000626453
0.000628653
0.000630874
0.000633118
0.000635386
0.00063768
0.000640004
0.000642359
0.00064475
0.000647178
0.000649648
0.000652163
0.000654727
0.000657344
0.000660016
0.000662749
0.000665546
0.000668413
0.000783151
0.000780056
0.000776496
0.000772524
0.00076815
0.000763403
0.000758331
0.000752969
0.000747342
0.000741497
0.000735493
0.000729386
0.000723217
0.000717027
0.000710864
0.000704768
0.000698772
0.000692897
0.00068716
0.000681581
0.000676177
0.000670962
0.000665943
0.000661117
0.000656481
0.000652039
0.000647803
0.000643783
0.000639991
0.000636451
0.00063319
0.00063023
0.000627589
0.000625294
0.000623351
0.000621734
0.00062043
0.000619473
0.000618916
0.000618651
0.00061862
0.000618851
0.00061932
0.000620015
0.000620923
0.000622037
0.000623344
0.000624828
0.000626467
0.000628244
0.000630149
0.000632175
0.000634317
0.000636569
0.000638924
0.000641373
0.000643907
0.00064652
0.000649205
0.000651956
0.000654771
0.000657646
0.00066058
0.000663575
0.000666632
0.000669756
0.000672952
0.000676224
0.000679578
0.00068302
0.000686555
0.000690189
0.000693926
0.000697769
0.000701725
0.000705796
0.000709985
0.000714296
0.000718731
0.000723294
0.000727986
0.000732808
0.000737762
0.000742853
0.000748084
0.000753453
0.000758958
0.000764599
0.000770373
0.000776275
0.000782298
0.000788435
0.000794677
0.000800985
0.000807324
0.000813688
0.000820073
0.000826475
0.00083289
0.000839316
0.000845754
0.000852201
0.00085866
0.000865132
0.000871619
0.000878122
0.000884643
0.000891183
0.00089774
0.000904313
0.000987291
0.000983105
0.000978627
0.000973744
0.000968549
0.00096308
0.00095726
0.000951063
0.000944535
0.000937698
0.000930517
0.000922951
0.000914994
0.000906647
0.000897907
0.000888783
0.000879321
0.000869597
0.000859717
0.000849775
0.000839861
0.000830075
0.000820528
0.000811365
0.000802709
0.000794609
0.000787084
0.000780176
0.000773933
0.000768349
0.000763374
0.000758991
0.000755209
0.000751977
0.000749245
0.000747122
0.000745695
0.000744795
0.000744335
0.000744583
0.00074539
0.000746704
0.000748532
0.000750858
0.000753665
0.00075692
0.00076058
0.000764614
0.000769
0.000773706
0.000778686
0.000783884
0.00078925
0.000794739
0.000800323
0.000805977
0.000811665
0.000817369
0.000823089
0.000828833
0.000834609
0.000840427
0.000846298
0.000852229
0.000858228
0.000864299
0.000870446
0.000876671
0.000882975
0.00088936
0.000895827
0.000902375
0.000909003
0.000915711
0.000922495
0.000929349
0.000936267
0.000943245
0.000950273
0.00095733
0.000964408
0.000971499
0.000978577
0.000985605
0.000992558
0.000999419
0.00100616
0.00101277
0.0010192
0.00102545
0.0010315
0.00103734
0.00104297
0.00104842
0.0010537
0.00105883
0.0010638
0.00106862
0.0010733
0.00107783
0.00108224
0.00108651
0.00109066
0.00109469
0.0010986
0.0011024
0.00110608
0.00110966
0.00111313
0.0011165
0.00111976
0.00111555
0.00111103
0.00110652
0.00110178
0.00109668
0.0010914
0.0010861
0.00108076
0.00107527
0.00106964
0.001064
0.00105843
0.00105295
0.00104759
0.00104235
0.00103719
0.00103205
0.00102688
0.00102165
0.00101636
0.00101098
0.00100549
0.000999781
0.000993753
0.000987542
0.000981358
0.000975244
0.000969271
0.000963646
0.000958628
0.000954394
0.000950999
0.000948552
0.000947209
0.00094668
0.000946473
0.000947212
0.000948871
0.000951342
0.00095448
0.000958026
0.000961988
0.000966385
0.000971096
0.000976041
0.000981203
0.000986505
0.000991847
0.000997187
0.00100251
0.00100781
0.00101309
0.00101834
0.00102357
0.00102878
0.001034
0.00103922
0.00104444
0.00104963
0.00105478
0.00105987
0.00106488
0.00106978
0.00107458
0.00107927
0.00108385
0.00108832
0.00109269
0.00109696
0.00110113
0.00110521
0.00110918
0.00111306
0.00111684
0.0011205
0.00112406
0.00112749
0.0011308
0.00113398
0.00113705
0.00113997
0.00114276
0.00114545
0.00114806
0.00115056
0.00115299
0.00115534
0.00115766
0.00115995
0.00116221
0.00116445
0.00116667
0.00116888
0.00117109
0.00117328
0.00117546
0.00117761
0.00117974
0.00118184
0.00118391
0.00118593
0.0011879
0.00118983
0.00119171
0.00119353
0.00119531
0.00119705
0.00119874
0.00120039
0.0011792
0.0011761
0.00117345
0.00117069
0.00116763
0.00116472
0.00116212
0.00115944
0.00115641
0.00115306
0.0011499
0.00114681
0.00114345
0.00113975
0.00113576
0.00113155
0.00112725
0.00112303
0.00111905
0.00111536
0.00111195
0.00110901
0.00110651
0.0011045
0.00110339
0.00110297
0.00110271
0.00110232
0.00110246
0.00110344
0.00110445
0.00110527
0.00110626
0.00110792
0.00110962
0.00111085
0.00111177
0.00111359
0.00111639
0.00111913
0.00112182
0.00112496
0.00112821
0.0011313
0.00113445
0.00113772
0.00114092
0.00114404
0.00114717
0.00115028
0.0011533
0.00115628
0.00115918
0.00116199
0.00116463
0.00116707
0.00116932
0.00117137
0.00117324
0.00117494
0.00117652
0.00117798
0.00117937
0.00118072
0.00118203
0.00118334
0.00118464
0.00118592
0.00118721
0.00118848
0.00118973
0.00119098
0.00119221
0.00119343
0.00119463
0.00119581
0.00119698
0.00119815
0.00119933
0.00120051
0.00120168
0.00120289
0.00120413
0.00120536
0.00120661
0.00120791
0.00120925
0.00121061
0.00121196
0.00121332
0.00121469
0.00121604
0.00121739
0.0012187
0.00121998
0.00122121
0.00122239
0.00122352
0.00122459
0.00122559
0.00122653
0.00122741
0.00122822
0.00122898
0.00122968
0.00123032
0.00123092
0.00123146
0.00123195
0.00123241
0.0011856
0.00118232
0.00117949
0.00117741
0.0011749
0.00117196
0.00117019
0.0011686
0.00116631
0.0011645
0.00116384
0.00116298
0.00116145
0.00116024
0.00115961
0.00115934
0.00115927
0.0011593
0.00115921
0.00115917
0.00115916
0.00115944
0.00115963
0.00115963
0.00115956
0.00115957
0.00116002
0.00116067
0.00116117
0.00116221
0.001164
0.00116639
0.00116934
0.00117275
0.00117626
0.00117997
0.00118361
0.00118672
0.00118999
0.00119341
0.00119658
0.00119991
0.00120248
0.00120454
0.00120683
0.00120897
0.00121015
0.00121136
0.00121291
0.001214
0.00121472
0.00121554
0.00121625
0.00121669
0.00121697
0.00121723
0.00121753
0.00121786
0.00121823
0.00121866
0.00121913
0.00121967
0.00122026
0.00122088
0.00122153
0.00122217
0.0012228
0.00122341
0.001224
0.00122455
0.00122507
0.00122555
0.001226
0.00122642
0.0012268
0.00122715
0.00122748
0.0012278
0.00122809
0.00122833
0.00122854
0.00122881
0.00122904
0.00122918
0.00122933
0.00122953
0.00122973
0.00122989
0.00123004
0.00123022
0.00123041
0.00123062
0.00123083
0.00123106
0.00123132
0.00123159
0.00123188
0.0012322
0.00123252
0.00123287
0.00123321
0.00123357
0.00123391
0.00123426
0.00123459
0.0012349
0.0012352
0.00123548
0.00123573
0.00123596
0.00123619
0.001184
0.00118059
0.00117805
0.00117627
0.00117378
0.00117098
0.0011696
0.00116817
0.00116588
0.00116451
0.00116434
0.00116383
0.00116264
0.00116203
0.00116188
0.00116197
0.00116239
0.00116307
0.00116382
0.0011647
0.00116586
0.00116736
0.00116926
0.00117156
0.00117426
0.0011773
0.00118067
0.00118427
0.00118777
0.00119106
0.00119423
0.00119755
0.00120105
0.00120434
0.00120774
0.00121147
0.00121413
0.00121666
0.00121986
0.00122246
0.00122475
0.00122739
0.00122924
0.00123034
0.00123177
0.0012331
0.00123386
0.0012344
0.00123509
0.00123564
0.00123593
0.00123611
0.00123628
0.00123646
0.00123669
0.00123696
0.00123719
0.00123738
0.00123749
0.00123755
0.00123753
0.00123746
0.00123736
0.00123722
0.00123706
0.00123688
0.00123668
0.00123648
0.00123626
0.00123605
0.00123583
0.0012356
0.00123538
0.00123515
0.00123492
0.0012347
0.00123447
0.00123426
0.00123406
0.00123385
0.00123366
0.00123351
0.00123337
0.00123319
0.00123304
0.00123299
0.00123293
0.00123284
0.00123279
0.00123279
0.00123282
0.00123286
0.00123293
0.00123303
0.00123317
0.00123332
0.00123351
0.00123371
0.00123393
0.00123417
0.00123442
0.00123468
0.00123494
0.00123519
0.00123544
0.00123566
0.00123588
0.00123609
0.00123626
0.00123642
0.00123659
0.00123671
0.0012368
0.00117874
0.00117535
0.00117344
0.00117199
0.00116954
0.0011674
0.00116649
0.00116509
0.00116324
0.00116242
0.00116258
0.00116223
0.00116135
0.00116104
0.00116105
0.00116133
0.00116207
0.00116324
0.00116467
0.00116629
0.0011681
0.00117019
0.00117262
0.00117541
0.00117852
0.00118194
0.00118564
0.00118956
0.00119356
0.00119762
0.00120182
0.0012062
0.0012106
0.00121488
0.00121913
0.00122319
0.00122655
0.00122986
0.00123383
0.00123634
0.00123812
0.00124028
0.00124211
0.00124316
0.00124399
0.00124471
0.00124517
0.00124539
0.00124552
0.00124563
0.00124569
0.00124562
0.00124531
0.00124487
0.00124442
0.00124397
0.00124351
0.00124303
0.00124256
0.00124209
0.00124165
0.00124122
0.0012408
0.0012404
0.00124002
0.00123964
0.00123927
0.00123891
0.00123856
0.00123822
0.00123789
0.00123756
0.00123723
0.0012369
0.00123658
0.00123626
0.00123595
0.00123565
0.00123535
0.00123506
0.00123477
0.00123451
0.00123427
0.00123402
0.00123376
0.00123358
0.00123342
0.00123326
0.0012331
0.00123301
0.00123298
0.00123296
0.00123295
0.00123299
0.00123307
0.00123317
0.0012333
0.00123345
0.00123362
0.0012338
0.001234
0.00123421
0.00123441
0.00123461
0.00123481
0.00123499
0.00123516
0.00123533
0.00123543
0.00123555
0.00123565
0.0012357
0.00123575
0.00117579
0.00117383
0.0011711
0.00116822
0.00116688
0.00116547
0.00116325
0.00116193
0.00116132
0.00115995
0.00115879
0.00115842
0.00115859
0.0011586
0.00115845
0.00115846
0.00115871
0.0011594
0.00116059
0.00116217
0.00116398
0.00116599
0.00116828
0.00117091
0.00117384
0.00117704
0.00118051
0.00118423
0.00118819
0.00119232
0.00119653
0.00120078
0.00120511
0.00120949
0.0012138
0.00121799
0.00122212
0.00122594
0.00122913
0.00123235
0.00123617
0.0012387
0.00124039
0.00124242
0.00124446
0.00124568
0.0012465
0.00124711
0.0012475
0.00124767
0.00124771
0.00124774
0.0012478
0.00124776
0.0012474
0.00124683
0.00124625
0.00124571
0.00124516
0.0012446
0.00124402
0.00124344
0.00124287
0.00124231
0.00124177
0.00124124
0.00124074
0.00124024
0.00123977
0.00123932
0.00123889
0.00123847
0.00123807
0.00123769
0.00123731
0.00123694
0.00123658
0.00123622
0.00123587
0.00123552
0.00123518
0.00123484
0.00123451
0.00123419
0.00123389
0.00123358
0.00123328
0.00123301
0.00123278
0.00123255
0.00123232
0.00123214
0.00123201
0.00123187
0.00123175
0.0012317
0.00123169
0.00123168
0.00123169
0.00123175
0.00123183
0.00123191
0.00123202
0.00123213
0.00123224
0.00123236
0.00123246
0.00123253
0.00123262
0.00123267
0.00123269
0.00123271
0.0012327
0.00123266
0.0012326
0.00116748
0.00116547
0.00116264
0.00116061
0.00115967
0.00115811
0.00115637
0.00115556
0.00115498
0.00115406
0.0011535
0.00115336
0.00115345
0.00115385
0.00115436
0.00115489
0.00115561
0.00115669
0.00115824
0.00116017
0.00116238
0.00116483
0.00116752
0.00117044
0.00117363
0.0011771
0.00118087
0.00118488
0.00118908
0.00119341
0.0011978
0.0012022
0.00120661
0.00121099
0.00121526
0.00121943
0.00122348
0.00122719
0.0012304
0.0012336
0.00123732
0.00123977
0.00124143
0.00124343
0.00124548
0.00124671
0.0012475
0.00124806
0.00124841
0.00124855
0.00124856
0.00124856
0.00124864
0.00124859
0.0012482
0.00124753
0.00124686
0.00124622
0.00124558
0.00124492
0.00124425
0.00124357
0.00124292
0.00124227
0.00124164
0.00124101
0.00124041
0.00123983
0.00123927
0.00123874
0.00123823
0.00123774
0.00123727
0.00123681
0.00123636
0.00123592
0.00123547
0.00123503
0.0012346
0.00123417
0.00123374
0.00123332
0.00123289
0.00123247
0.00123206
0.00123165
0.00123125
0.00123086
0.00123049
0.00123013
0.00122979
0.00122947
0.00122919
0.00122893
0.00122869
0.00122851
0.00122836
0.00122823
0.00122813
0.00122806
0.00122801
0.00122797
0.00122794
0.00122792
0.0012279
0.00122789
0.00122786
0.00122781
0.00122775
0.00122767
0.00122757
0.00122745
0.0012273
0.00122713
0.00122694
0.00122673
0.00117753
0.0011744
0.00117215
0.00116891
0.00116571
0.00116338
0.0011609
0.00115901
0.00115679
0.00115427
0.00115296
0.00115223
0.00115068
0.00114933
0.00114866
0.00114821
0.00114789
0.00114781
0.00114783
0.00114806
0.00114869
0.00114962
0.00115069
0.00115192
0.00115342
0.00115527
0.00115748
0.00116
0.00116278
0.00116581
0.00116906
0.00117254
0.00117625
0.00118018
0.00118431
0.00118862
0.00119303
0.0011975
0.00120198
0.00120645
0.00121086
0.00121515
0.00121932
0.00122335
0.00122703
0.00123032
0.0012336
0.00123717
0.00123963
0.00124139
0.00124343
0.00124561
0.00124696
0.00124777
0.00124833
0.00124866
0.00124878
0.00124877
0.00124875
0.00124881
0.00124874
0.00124828
0.00124754
0.00124677
0.00124602
0.00124527
0.00124449
0.00124369
0.00124287
0.00124205
0.00124122
0.0012404
0.0012396
0.00123883
0.00123809
0.00123738
0.00123671
0.00123606
0.00123544
0.00123484
0.00123426
0.00123369
0.00123313
0.00123258
0.00123203
0.00123149
0.00123094
0.0012304
0.00122985
0.0012293
0.00122875
0.0012282
0.00122766
0.00122712
0.00122658
0.00122606
0.00122556
0.00122507
0.00122461
0.00122418
0.00122377
0.0012234
0.00122306
0.00122275
0.00122247
0.00122221
0.00122197
0.00122175
0.00122155
0.00122136
0.00122118
0.00122099
0.0012208
0.00122061
0.0012204
0.00122017
0.00121992
0.00121965
0.00121936
0.00121904
0.0012187
0.00121833
0.00121793
0.00116781
0.00116529
0.00116293
0.0011594
0.00115661
0.00115445
0.00115223
0.00115042
0.00114814
0.00114613
0.00114525
0.00114458
0.00114319
0.00114214
0.00114163
0.00114145
0.00114145
0.00114159
0.00114192
0.00114246
0.00114331
0.00114449
0.00114592
0.00114757
0.00114944
0.0011516
0.00115405
0.00115678
0.00115979
0.00116305
0.00116654
0.00117024
0.00117413
0.0011782
0.00118245
0.00118683
0.00119131
0.00119583
0.00120037
0.00120487
0.00120929
0.00121359
0.00121777
0.00122177
0.00122547
0.0012289
0.00123228
0.0012356
0.00123814
0.00124013
0.00124224
0.00124459
0.00124619
0.00124706
0.00124764
0.00124799
0.00124813
0.00124813
0.00124813
0.00124816
0.00124801
0.00124743
0.00124656
0.00124564
0.00124471
0.00124376
0.00124276
0.00124172
0.00124065
0.00123958
0.00123851
0.00123747
0.00123645
0.00123547
0.00123452
0.00123362
0.00123276
0.00123194
0.00123115
0.00123039
0.00122966
0.00122895
0.00122825
0.00122756
0.00122687
0.00122617
0.00122548
0.00122478
0.00122408
0.00122337
0.00122266
0.00122195
0.00122124
0.00122054
0.00121984
0.00121915
0.00121848
0.00121783
0.0012172
0.00121659
0.00121601
0.00121545
0.00121492
0.00121442
0.00121394
0.00121349
0.00121305
0.00121263
0.00121223
0.00121184
0.00121145
0.00121106
0.00121067
0.00121026
0.00120985
0.00120942
0.00120896
0.00120848
0.00120798
0.00120744
0.00120688
0.00120629
0.00120567
0.00115835
0.00115615
0.00115358
0.00114995
0.00114762
0.00114556
0.00114342
0.00114171
0.00113968
0.00113801
0.00113725
0.00113656
0.00113553
0.00113482
0.00113454
0.00113451
0.0011346
0.00113492
0.00113552
0.00113636
0.00113746
0.00113883
0.00114049
0.0011424
0.00114456
0.00114695
0.0011496
0.00115251
0.00115566
0.00115906
0.00116269
0.00116651
0.0011705
0.00117466
0.00117895
0.00118336
0.00118786
0.00119239
0.00119693
0.00120143
0.00120585
0.00121017
0.00121436
0.00121836
0.00122213
0.0012257
0.00122915
0.00123235
0.00123501
0.00123724
0.00123945
0.00124197
0.00124388
0.00124483
0.00124543
0.0012458
0.00124596
0.001246
0.00124602
0.001246
0.00124567
0.00124491
0.0012439
0.0012428
0.00124165
0.00124045
0.00123918
0.00123786
0.00123651
0.00123516
0.00123382
0.0012325
0.00123122
0.00122999
0.0012288
0.00122767
0.00122659
0.00122556
0.00122457
0.00122363
0.00122271
0.00122181
0.00122093
0.00122005
0.00121918
0.00121831
0.00121743
0.00121655
0.00121566
0.00121476
0.00121386
0.00121296
0.00121206
0.00121116
0.00121027
0.00120939
0.00120852
0.00120767
0.00120683
0.00120601
0.00120522
0.00120444
0.00120369
0.00120297
0.00120226
0.00120158
0.00120092
0.00120027
0.00119963
0.00119901
0.00119838
0.00119776
0.00119713
0.00119649
0.00119584
0.00119517
0.00119447
0.00119375
0.00119299
0.00119221
0.00119139
0.00119055
0.00118967
0.001149
0.00114686
0.00114401
0.00114053
0.00113859
0.00113657
0.00113437
0.00113285
0.00113119
0.00112968
0.00112882
0.00112817
0.00112753
0.00112717
0.00112708
0.00112711
0.00112727
0.00112771
0.00112848
0.00112953
0.00113083
0.00113237
0.00113417
0.00113623
0.00113854
0.00114109
0.00114387
0.00114688
0.00115013
0.00115359
0.00115727
0.00116114
0.00116517
0.00116935
0.00117365
0.00117805
0.00118253
0.00118704
0.00119156
0.00119605
0.00120048
0.00120482
0.00120903
0.00121307
0.00121693
0.00122062
0.00122412
0.00122734
0.00123015
0.00123256
0.00123488
0.00123753
0.00123971
0.00124072
0.00124132
0.0012417
0.00124188
0.00124195
0.00124198
0.00124184
0.00124129
0.00124034
0.00123916
0.00123786
0.00123647
0.00123498
0.00123341
0.00123178
0.00123012
0.00122845
0.0012268
0.00122517
0.0012236
0.00122207
0.00122061
0.00121922
0.00121789
0.00121662
0.0012154
0.00121423
0.00121308
0.00121197
0.00121087
0.00120978
0.00120869
0.0012076
0.00120651
0.00120542
0.00120431
0.0012032
0.00120209
0.00120097
0.00119985
0.00119873
0.00119762
0.00119651
0.00119542
0.00119433
0.00119326
0.00119221
0.00119118
0.00119016
0.00118917
0.0011882
0.00118725
0.00118632
0.00118541
0.00118451
0.00118362
0.00118275
0.00118187
0.00118099
0.00118011
0.00117922
0.0011783
0.00117737
0.00117642
0.00117543
0.00117442
0.00117337
0.00117229
0.00117117
0.00117003
0.00116885
0.00116764
0.00113951
0.00113729
0.00113416
0.00113102
0.00112933
0.00112731
0.00112506
0.00112374
0.00112234
0.00112092
0.00111998
0.00111937
0.001119
0.00111888
0.0011189
0.00111901
0.00111926
0.00111976
0.0011206
0.00112175
0.00112317
0.00112482
0.0011267
0.00112883
0.0011312
0.00113381
0.00113664
0.0011397
0.00114296
0.00114644
0.00115011
0.00115397
0.00115799
0.00116215
0.00116642
0.00117079
0.00117523
0.00117972
0.00118421
0.00118869
0.00119311
0.00119747
0.00120171
0.00120581
0.00120975
0.00121352
0.0012171
0.00122039
0.00122332
0.00122588
0.00122832
0.0012311
0.00123342
0.00123445
0.00123504
0.00123541
0.0012356
0.00123568
0.00123567
0.00123537
0.00123458
0.00123342
0.00123203
0.00123049
0.00122882
0.00122702
0.00122512
0.00122316
0.00122116
0.00121915
0.00121716
0.00121521
0.00121331
0.00121149
0.00120973
0.00120805
0.00120644
0.00120491
0.00120343
0.00120199
0.0012006
0.00119924
0.0011979
0.00119657
0.00119525
0.00119393
0.00119261
0.00119128
0.00118994
0.0011886
0.00118725
0.00118589
0.00118454
0.00118318
0.00118183
0.00118048
0.00117915
0.00117782
0.00117651
0.00117521
0.00117393
0.00117267
0.00117143
0.00117021
0.00116902
0.00116784
0.00116667
0.00116553
0.00116439
0.00116326
0.00116213
0.001161
0.00115987
0.00115872
0.00115756
0.00115637
0.00115516
0.00115392
0.00115266
0.00115136
0.00115002
0.00114866
0.00114726
0.00114583
0.00114438
0.00112969
0.00112729
0.00112399
0.0011213
0.00111972
0.00111761
0.0011154
0.00111421
0.00111293
0.00111157
0.00111062
0.00111005
0.00110979
0.00110973
0.00110982
0.00111004
0.00111034
0.00111084
0.00111168
0.00111285
0.00111431
0.00111599
0.0011179
0.00112003
0.00112239
0.00112499
0.0011278
0.00113083
0.00113407
0.0011375
0.00114113
0.00114493
0.00114889
0.001153
0.00115722
0.00116154
0.00116593
0.00117037
0.00117483
0.00117929
0.00118371
0.00118807
0.00119233
0.00119648
0.00120048
0.00120433
0.00120796
0.00121133
0.00121436
0.00121703
0.00121959
0.0012225
0.00122478
0.00122576
0.00122633
0.0012267
0.00122687
0.00122693
0.00122683
0.0012263
0.00122526
0.00122387
0.00122225
0.00122044
0.00121847
0.00121634
0.00121411
0.0012118
0.00120946
0.0012071
0.00120477
0.00120249
0.00120027
0.00119813
0.00119607
0.0011941
0.00119221
0.0011904
0.00118865
0.00118695
0.0011853
0.00118369
0.0011821
0.00118053
0.00117896
0.0011774
0.00117584
0.00117427
0.00117269
0.00117111
0.00116952
0.00116793
0.00116633
0.00116474
0.00116315
0.00116157
0.00116
0.00115844
0.00115689
0.00115536
0.00115385
0.00115236
0.00115089
0.00114944
0.00114801
0.0011466
0.00114521
0.00114383
0.00114247
0.00114111
0.00113976
0.00113841
0.00113704
0.00113567
0.00113429
0.00113288
0.00113145
0.00112999
0.00112851
0.001127
0.00112545
0.00112388
0.00112228
0.00112065
0.00111899
0.00112185
0.00111941
0.0011168
0.0011135
0.00111122
0.0011096
0.00110738
0.00110525
0.00110414
0.00110287
0.00110151
0.0011006
0.00110005
0.00109975
0.00109965
0.00109977
0.00110007
0.00110038
0.00110081
0.00110158
0.00110272
0.00110415
0.00110581
0.00110767
0.00110975
0.00111206
0.00111458
0.00111732
0.00112028
0.00112343
0.00112679
0.00113033
0.00113405
0.00113793
0.00114195
0.00114609
0.00115034
0.00115467
0.00115905
0.00116347
0.00116789
0.00117229
0.00117664
0.00118091
0.00118508
0.00118912
0.00119301
0.00119668
0.0012001
0.00120319
0.00120592
0.0012086
0.00121161
0.00121365
0.00121453
0.00121509
0.00121543
0.00121557
0.00121558
0.00121531
0.0012145
0.00121322
0.00121159
0.00120972
0.00120763
0.00120534
0.0012029
0.00120034
0.0011977
0.00119502
0.00119234
0.00118969
0.0011871
0.00118458
0.00118214
0.0011798
0.00117755
0.0011754
0.00117332
0.00117131
0.00116937
0.00116747
0.00116562
0.00116379
0.00116198
0.00116018
0.00115839
0.00115659