/*--------------------------------*- C++ -*----------------------------------*\
| =========                 |                                                 |
| \\      /  F ield         | OpenFOAM: The Open Source CFD Toolbox           |
|  \\    /   O peration     | Version:  v1706                                 |
|   \\  /    A nd           | Web:      www.OpenFOAM.com                      |
|    \\/     M anipulation  |                                                 |
\*---------------------------------------------------------------------------*/
FoamFile
{
    version     2.0;
    format      ascii;
    class       volScalarField;
    location    "1.3e-05";
    object      Tt;
}
// * * * * * * * * * * * * * * * * * * * * * * * * * * * * * * * * * * * * * //

dimensions      [0 0 0 1 0 0 0];


internalField   nonuniform List<scalar> 
29871
(
144.48
144.478
144.477
144.475
144.472
144.47
144.468
144.466
144.464
144.461
144.459
144.457
144.455
144.453
144.451
144.449
144.447
144.445
144.443
144.441
144.44
144.438
144.436
144.435
144.434
144.433
144.431
144.43
144.429
144.429
144.428
144.427
144.427
144.426
144.426
144.425
144.425
144.425
144.425
144.425
144.425
144.425
144.425
144.425
144.425
144.425
144.426
144.426
144.426
144.426
144.426
144.427
144.427
144.427
144.428
144.428
144.428
144.429
144.429
144.429
144.43
144.43
144.43
144.431
144.431
144.431
144.432
144.432
144.432
144.433
144.433
144.434
144.434
144.434
144.435
144.435
144.436
144.436
144.436
144.437
144.437
144.438
144.438
144.438
144.439
144.439
144.44
144.44
144.44
144.441
144.441
144.441
144.442
144.442
144.443
144.443
144.443
144.444
144.444
144.444
144.445
144.445
144.446
144.446
144.446
144.867
144.857
144.846
144.835
144.823
144.811
144.799
144.786
144.774
144.761
144.748
144.736
144.723
144.711
144.699
144.687
144.676
144.665
144.654
144.644
144.634
144.625
144.616
144.608
144.6
144.593
144.587
144.581
144.576
144.571
144.567
144.563
144.56
144.557
144.555
144.553
144.551
144.55
144.55
144.55
144.55
144.55
144.55
144.551
144.552
144.553
144.554
144.556
144.558
144.559
144.561
144.563
144.565
144.567
144.569
144.571
144.573
144.575
144.577
144.579
144.582
144.584
144.586
144.588
144.591
144.593
144.596
144.598
144.601
144.604
144.606
144.609
144.612
144.615
144.617
144.62
144.623
144.626
144.629
144.632
144.635
144.637
144.64
144.643
144.646
144.649
144.652
144.654
144.657
144.66
144.663
144.665
144.668
144.671
144.674
144.676
144.679
144.682
144.685
144.687
144.69
144.693
144.696
144.699
144.702
145.834
145.806
145.776
145.744
145.711
145.677
145.641
145.605
145.568
145.531
145.494
145.457
145.419
145.383
145.346
145.311
145.276
145.242
145.209
145.177
145.147
145.118
145.091
145.065
145.04
145.018
144.997
144.977
144.96
144.944
144.93
144.917
144.906
144.897
144.889
144.883
144.878
144.874
144.872
144.871
144.87
144.871
144.872
144.875
144.878
144.881
144.885
144.89
144.895
144.901
144.907
144.913
144.919
144.926
144.932
144.939
144.946
144.954
144.961
144.968
144.976
144.984
144.992
145
145.008
145.017
145.025
145.034
145.043
145.052
145.061
145.071
145.081
145.09
145.1
145.11
145.12
145.131
145.141
145.151
145.162
145.172
145.183
145.193
145.204
145.214
145.224
145.235
145.245
145.255
145.266
145.276
145.286
145.297
145.307
145.317
145.328
145.338
145.349
145.36
145.37
145.381
145.392
145.403
145.415
145.426
148.047
147.977
147.901
147.822
147.739
147.653
147.564
147.474
147.381
147.288
147.194
147.101
147.007
146.915
146.824
146.735
146.647
146.563
146.481
146.402
146.326
146.255
146.186
146.122
146.062
146.006
145.954
145.907
145.864
145.825
145.791
145.76
145.734
145.712
145.694
145.68
145.669
145.662
145.658
145.658
145.659
145.662
145.668
145.677
145.687
145.698
145.712
145.726
145.742
145.758
145.776
145.794
145.813
145.832
145.852
145.873
145.893
145.915
145.936
145.958
145.981
146.004
146.027
146.051
146.075
146.1
146.126
146.152
146.178
146.205
146.233
146.262
146.291
146.32
146.35
146.381
146.412
146.443
146.475
146.507
146.539
146.571
146.604
146.636
146.669
146.702
146.735
146.768
146.801
146.833
146.866
146.899
146.932
146.965
146.998
147.032
147.065
147.099
147.133
147.167
147.202
147.237
147.272
147.308
147.345
147.382
152.947
152.798
152.639
152.469
152.291
152.105
151.912
151.714
151.512
151.306
151.098
150.889
150.68
150.472
150.266
150.063
149.863
149.668
149.478
149.294
149.117
148.947
148.786
148.633
148.489
148.354
148.229
148.114
148.009
147.915
147.831
147.757
147.693
147.638
147.594
147.559
147.532
147.515
147.505
147.504
147.507
147.517
147.532
147.554
147.58
147.61
147.645
147.683
147.723
147.767
147.812
147.86
147.909
147.96
148.011
148.065
148.119
148.174
148.231
148.288
148.347
148.407
148.468
148.53
148.594
148.659
148.726
148.794
148.864
148.936
149.009
149.084
149.161
149.239
149.319
149.401
149.484
149.569
149.655
149.742
149.83
149.92
150.01
150.1
150.192
150.283
150.376
150.468
150.561
150.653
150.746
150.839
150.932
151.026
151.12
151.214
151.309
151.404
151.501
151.598
151.696
151.795
151.896
151.998
152.101
152.206
152.313
162.442
162.138
161.813
161.468
161.107
160.731
160.341
159.941
159.532
159.117
158.697
158.275
157.853
157.432
157.016
156.605
156.203
155.809
155.427
155.057
154.701
154.36
154.036
153.73
153.441
153.172
152.924
152.696
152.489
152.303
152.139
151.997
151.877
151.777
151.699
151.641
151.602
151.582
151.582
151.592
151.616
151.655
151.707
151.771
151.845
151.928
152.02
152.118
152.223
152.334
152.449
152.568
152.69
152.816
152.944
153.075
153.208
153.343
153.481
153.621
153.763
153.908
154.056
154.207
154.361
154.518
154.679
154.844
155.013
155.186
155.363
155.545
155.731
155.921
156.116
156.315
156.518
156.725
156.936
157.151
157.368
157.589
157.813
158.038
158.266
158.495
158.726
158.957
159.189
159.422
159.655
159.888
160.121
160.355
160.589
160.823
161.059
161.296
161.533
161.773
162.014
162.258
162.504
162.753
163.005
163.26
163.518
179.441
179.036
178.592
178.112
177.598
177.053
176.479
175.878
175.255
174.61
173.948
173.27
172.58
171.881
171.176
170.468
169.759
169.052
168.351
167.66
166.981
166.317
165.672
165.049
164.452
163.883
163.344
162.84
162.371
161.94
161.548
161.197
160.887
160.618
160.39
160.204
160.058
159.952
159.884
159.858
159.866
159.896
159.959
160.051
160.169
160.312
160.477
160.661
160.862
161.077
161.305
161.544
161.791
162.046
162.307
162.573
162.843
163.117
163.395
163.676
163.961
164.249
164.542
164.838
165.139
165.445
165.757
166.074
166.398
166.728
167.066
167.411
167.764
168.124
168.493
168.87
169.256
169.65
170.051
170.461
170.878
171.303
171.734
172.171
172.614
173.063
173.515
173.971
174.43
174.892
175.355
175.819
176.283
176.746
177.208
177.668
178.127
178.585
179.041
179.497
179.952
180.407
180.863
181.319
181.776
182.235
182.696
183.16
183.627
184.097
200.019
199.453
198.844
198.194
197.506
196.781
196.022
195.232
194.414
193.569
192.703
191.817
190.915
190.001
189.078
188.149
187.219
186.289
185.365
184.451
183.55
182.667
181.807
180.973
180.17
179.403
178.674
177.989
177.352
176.767
176.239
175.771
175.365
175.024
174.748
174.538
174.391
174.309
174.304
174.34
174.423
174.563
174.75
174.979
175.248
175.552
175.887
176.249
176.634
177.039
177.46
177.894
178.339
178.792
179.253
179.719
180.189
180.662
181.137
181.615
182.095
182.577
183.062
183.55
184.041
184.536
185.036
185.54
186.051
186.568
187.091
187.622
188.16
188.706
189.259
189.821
190.39
190.967
191.551
192.142
192.741
193.345
193.956
194.572
195.193
195.818
196.447
197.079
197.713
198.348
198.984
199.619
200.254
200.885
201.508
202.122
202.727
203.323
203.909
204.485
205.051
205.608
206.156
206.695
207.225
207.746
208.26
208.766
209.264
209.755
215.944
215.393
214.825
214.237
213.634
213.015
212.379
211.725
211.056
210.369
209.666
208.944
208.203
207.443
206.663
205.864
205.049
204.22
203.384
202.546
201.711
200.887
200.08
199.299
198.551
197.844
197.18
196.568
196.013
195.521
195.095
194.736
194.448
194.23
194.082
194.013
194.021
194.084
194.211
194.406
194.666
194.977
195.337
195.74
196.181
196.654
197.154
197.676
198.214
198.765
199.324
199.887
200.45
201.011
201.567
202.118
202.661
203.193
203.716
204.23
204.735
205.233
205.724
206.209
206.69
207.166
207.639
208.108
208.573
209.036
209.496
209.954
210.408
210.86
211.31
211.756
212.199
212.639
213.075
213.506
213.933
214.356
214.772
215.183
215.585
215.981
216.367
216.745
217.112
217.468
217.813
218.147
218.468
218.777
219.076
219.364
219.642
219.908
220.165
220.411
220.647
220.873
221.09
221.298
221.498
221.689
221.872
222.049
222.218
222.38
222.22
221.718
221.217
220.723
220.227
219.731
219.24
218.757
218.282
217.812
217.348
216.891
216.445
216.01
215.586
215.175
214.773
214.383
214.003
213.635
213.282
212.942
212.619
212.312
212.019
211.748
211.505
211.289
211.111
210.979
210.903
210.891
210.924
211.018
211.169
211.371
211.597
211.894
212.23
212.598
212.993
213.404
213.827
214.257
214.684
215.104
215.516
215.916
216.302
216.67
217.021
217.354
217.669
217.967
218.249
218.516
218.77
219.014
219.247
219.471
219.687
219.894
220.094
220.285
220.47
220.648
220.82
220.986
221.147
221.303
221.456
221.604
221.749
221.891
222.03
222.167
222.3
222.431
222.559
222.685
222.808
222.929
223.047
223.164
223.279
223.393
223.504
223.615
223.725
223.834
223.943
224.05
224.157
224.262
224.366
224.468
224.569
224.667
224.763
224.856
224.947
225.034
225.118
225.199
225.276
225.35
225.421
225.488
225.553
225.615
224.437
223.965
223.515
223.068
222.623
222.2
221.795
221.395
221.006
220.631
220.275
219.928
219.591
219.27
218.964
218.676
218.406
218.161
217.945
217.761
217.61
217.499
217.424
217.399
217.412
217.457
217.534
217.635
217.781
217.987
218.213
218.465
218.742
219.055
219.374
219.697
220.018
220.378
220.753
221.107
221.449
221.794
222.121
222.425
222.711
222.978
223.22
223.444
223.65
223.837
224.006
224.158
224.295
224.417
224.525
224.618
224.698
224.764
224.819
224.864
224.902
224.932
224.957
224.978
224.996
225.012
225.027
225.042
225.056
225.07
225.085
225.1
225.116
225.133
225.151
225.17
225.191
225.214
225.239
225.266
225.295
225.326
225.361
225.397
225.437
225.48
225.527
225.576
225.628
225.683
225.739
225.798
225.857
225.918
225.979
226.04
226.1
226.159
226.217
226.272
226.326
226.378
226.427
226.473
226.517
226.558
226.597
226.633
226.667
226.7
225.856
225.362
224.89
224.445
223.996
223.546
223.141
222.747
222.348
221.98
221.65
221.325
220.998
220.71
220.453
220.219
220.01
219.833
219.682
219.565
219.48
219.437
219.418
219.427
219.467
219.542
219.657
219.8
219.966
220.184
220.449
220.746
221.069
221.411
221.761
222.126
222.495
222.85
223.213
223.572
223.907
224.234
224.526
224.791
225.048
225.283
225.472
225.649
225.819
225.959
226.072
226.177
226.264
226.33
226.379
226.416
226.445
226.464
226.476
226.478
226.476
226.471
226.463
226.453
226.44
226.426
226.411
226.396
226.381
226.365
226.35
226.335
226.322
226.309
226.297
226.287
226.278
226.272
226.268
226.266
226.267
226.27
226.276
226.283
226.294
226.309
226.327
226.348
226.371
226.398
226.429
226.462
226.497
226.535
226.575
226.616
226.658
226.702
226.746
226.79
226.835
226.879
226.922
226.964
227.005
227.045
227.083
227.12
227.155
227.188
227.221
226.535
226.039
225.582
225.151
224.705
224.266
223.88
223.499
223.108
222.767
222.455
222.136
221.814
221.534
221.279
221.047
220.845
220.672
220.528
220.42
220.35
220.331
220.343
220.386
220.467
220.587
220.742
220.926
221.132
221.364
221.626
221.914
222.22
222.529
222.849
223.185
223.495
223.808
224.143
224.452
224.744
225.039
225.302
225.533
225.767
225.979
226.161
226.323
226.478
226.614
226.732
226.834
226.92
226.991
227.05
227.099
227.137
227.165
227.183
227.188
227.186
227.179
227.166
227.149
227.128
227.103
227.077
227.05
227.021
226.993
226.965
226.938
226.913
226.889
226.867
226.848
226.831
226.818
226.807
226.8
226.797
226.797
226.8
226.806
226.817
226.832
226.85
226.871
226.895
226.923
226.954
226.988
227.023
227.062
227.102
227.145
227.188
227.233
227.278
227.324
227.371
227.417
227.464
227.509
227.555
227.599
227.642
227.684
227.724
227.764
227.803
227.84
227.876
227.099
226.612
226.177
225.757
225.317
224.906
224.536
224.157
223.79
223.462
223.162
222.852
222.549
222.282
222.038
221.823
221.641
221.485
221.354
221.25
221.18
221.162
221.173
221.21
221.28
221.384
221.519
221.682
221.869
222.081
222.321
222.587
222.867
223.155
223.45
223.748
224.034
224.322
224.631
224.9
225.151
225.415
225.663
225.882
226.091
226.29
226.473
226.64
226.796
226.941
227.075
227.191
227.284
227.365
227.436
227.495
227.544
227.58
227.607
227.624
227.633
227.634
227.632
227.625
227.613
227.597
227.577
227.556
227.532
227.508
227.484
227.461
227.439
227.419
227.401
227.386
227.374
227.365
227.36
227.358
227.36
227.366
227.375
227.388
227.404
227.424
227.448
227.474
227.503
227.535
227.571
227.609
227.647
227.689
227.733
227.779
227.825
227.874
227.924
227.975
228.026
228.079
228.131
228.184
228.236
228.288
228.339
228.39
228.439
228.488
228.537
228.583
228.629
228.649
228.189
227.714
227.251
226.834
226.419
225.991
225.604
225.245
224.869
224.525
224.203
223.901
223.609
223.328
223.07
222.842
222.645
222.476
222.332
222.214
222.125
222.067
222.046
222.052
222.078
222.133
222.218
222.33
222.467
222.626
222.805
223.005
223.225
223.458
223.701
223.95
224.201
224.446
224.696
224.968
225.209
225.431
225.67
225.906
226.116
226.316
226.509
226.694
226.87
227.037
227.196
227.348
227.482
227.593
227.693
227.786
227.871
227.943
228.004
228.053
228.092
228.122
228.143
228.159
228.168
228.17
228.167
228.161
228.15
228.137
228.122
228.107
228.092
228.079
228.066
228.056
228.048
228.044
228.043
228.045
228.051
228.061
228.074
228.091
228.112
228.136
228.163
228.194
228.227
228.262
228.301
228.342
228.386
228.431
228.481
228.533
228.586
228.642
228.7
228.76
228.821
228.884
228.947
229.011
229.077
229.143
229.208
229.274
229.339
229.404
229.469
229.534
229.597
229.661
229.389
228.934
228.467
228.035
227.635
227.217
226.812
226.438
226.082
225.726
225.396
225.079
224.779
224.504
224.244
224.001
223.784
223.595
223.434
223.297
223.185
223.1
223.042
223.018
223.022
223.044
223.086
223.152
223.239
223.347
223.473
223.616
223.776
223.952
224.139
224.337
224.543
224.75
224.957
225.17
225.406
225.615
225.81
226.025
226.245
226.443
226.633
226.822
227.009
227.193
227.373
227.547
227.718
227.873
228.004
228.126
228.245
228.357
228.458
228.546
228.622
228.688
228.743
228.788
228.823
228.85
228.869
228.882
228.889
228.892
228.892
228.89
228.887
228.884
228.881
228.881
228.882
228.886
228.894
228.905
228.92
228.938
228.96
228.986
229.016
229.05
229.086
229.126
229.169
229.215
229.264
229.315
229.37
229.427
229.487
229.551
229.617
229.686
229.758
229.832
229.909
229.988
230.068
230.151
230.235
230.321
230.407
230.494
230.582
230.67
230.759
230.848
230.937
231.026
231.115
231.205
233.661
233.163
232.686
232.184
231.692
231.229
230.756
230.307
229.858
229.413
229.005
228.618
228.205
227.818
227.457
227.109
226.774
226.453
226.145
225.858
225.595
225.35
225.121
224.913
224.729
224.57
224.435
224.323
224.234
224.171
224.134
224.127
224.136
224.162
224.208
224.273
224.354
224.45
224.561
224.684
224.819
224.965
225.12
225.283
225.449
225.621
225.801
225.997
226.177
226.351
226.546
226.751
226.937
227.118
227.303
227.491
227.683
227.875
228.066
228.256
228.432
228.586
228.734
228.879
229.018
229.147
229.264
229.369
229.463
229.545
229.616
229.677
229.729
229.771
229.806
229.835
229.858
229.877
229.894
229.909
229.924
229.94
229.957
229.976
229.998
230.024
230.053
230.086
230.123
230.164
230.209
230.258
230.311
230.367
230.426
230.49
230.556
230.625
230.697
230.773
230.852
230.934
231.02
231.109
231.201
231.297
231.395
231.497
231.602
231.709
231.818
231.93
232.044
232.16
232.278
232.397
232.517
232.638
232.76
232.883
233.006
233.131
233.257
234.667
234.199
233.73
233.234
232.768
232.322
231.869
231.438
231
230.585
230.196
229.819
229.422
229.054
228.708
228.373
228.047
227.738
227.446
227.172
226.919
226.685
226.466
226.265
226.085
225.926
225.788
225.672
225.576
225.502
225.449
225.419
225.412
225.419
225.44
225.477
225.528
225.592
225.667
225.754
225.85
225.957
226.072
226.196
226.326
226.465
226.613
226.772
226.927
227.085
227.261
227.454
227.636
227.811
227.994
228.186
228.387
228.594
228.803
229.013
229.209
229.388
229.564
229.741
229.913
230.076
230.228
230.369
230.498
230.616
230.722
230.817
230.9
230.974
231.039
231.096
231.147
231.194
231.236
231.277
231.317
231.357
231.399
231.443
231.489
231.54
231.594
231.652
231.714
231.781
231.852
231.927
232.006
232.09
232.177
232.268
232.362
232.46
232.562
232.667
232.776
232.889
233.005
233.125
233.249
233.377
233.509
233.644
233.783
233.925
234.071
234.22
234.372
234.526
234.683
234.843
235.004
235.167
235.332
235.498
235.666
235.836
236.008
235.903
235.459
235.002
234.522
234.088
233.659
233.227
232.818
232.404
232.012
231.642
231.278
230.91
230.563
230.231
229.906
229.592
229.297
229.02
228.759
228.515
228.288
228.077
227.881
227.703
227.542
227.4
227.276
227.17
227.083
227.014
226.963
226.93
226.912
226.911
226.919
226.939
226.97
227.012
227.064
227.125
227.196
227.276
227.365
227.463
227.572
227.691
227.82
227.954
228.098
228.258
228.438
228.617
228.788
228.971
229.169
229.381
229.605
229.836
230.068
230.287
230.498
230.711
230.927
231.139
231.343
231.538
231.722
231.895
232.056
232.205
232.341
232.465
232.578
232.681
232.774
232.861
232.941
233.017
233.091
233.163
233.235
233.308
233.383
233.461
233.543
233.629
233.72
233.815
233.915
234.019
234.129
234.243
234.361
234.484
234.611
234.742
234.877
235.016
235.158
235.305
235.457
235.612
235.772
235.936
236.105
236.278
236.456
236.639
236.825
237.016
237.211
237.409
237.611
237.817
238.025
238.237
238.451
238.667
238.886
239.107
239.331
239.557
237.4
236.978
236.538
236.087
235.685
235.278
234.866
234.486
234.103
233.732
233.381
233.039
232.702
232.377
232.059
231.748
231.45
231.17
230.906
230.657
230.422
230.202
229.996
229.804
229.626
229.464
229.316
229.184
229.068
228.966
228.88
228.809
228.753
228.71
228.681
228.663
228.655
228.658
228.668
228.689
228.718
228.758
228.807
228.866
228.937
229.019
229.113
229.219
229.337
229.468
229.617
229.787
229.966
230.136
230.323
230.532
230.76
231.006
231.263
231.519
231.768
232.019
232.275
232.536
232.794
233.048
233.293
233.528
233.752
233.963
234.162
234.347
234.519
234.678
234.825
234.963
235.091
235.213
235.329
235.442
235.552
235.663
235.774
235.888
236.005
236.126
236.251
236.382
236.517
236.658
236.804
236.955
237.111
237.272
237.438
237.608
237.783
237.962
238.146
238.334
238.526
238.724
238.926
239.133
239.345
239.562
239.785
240.013
240.246
240.484
240.727
240.975
241.228
241.485
241.746
242.011
242.279
242.551
242.825
243.103
243.384
243.667
243.954
244.244
244.537
239.187
238.789
238.373
237.96
237.592
237.21
236.825
236.478
236.128
235.782
235.455
235.139
234.83
234.527
234.229
233.938
233.658
233.392
233.143
232.907
232.682
232.469
232.267
232.078
231.901
231.736
231.584
231.445
231.318
231.204
231.102
231.013
230.936
230.871
230.818
230.774
230.741
230.716
230.7
230.695
230.698
230.711
230.734
230.768
230.815
230.876
230.95
231.04
231.145
231.268
231.41
231.577
231.758
231.934
232.132
232.358
232.61
232.884
233.172
233.458
233.746
234.042
234.349
234.661
234.973
235.282
235.584
235.876
236.158
236.426
236.681
236.92
237.146
237.357
237.555
237.741
237.918
238.086
238.248
238.406
238.562
238.717
238.873
239.031
239.193
239.36
239.531
239.707
239.89
240.077
240.271
240.47
240.674
240.883
241.098
241.317
241.542
241.771
242.004
242.243
242.487
242.735
242.989
243.249
243.514
243.785
244.062
244.345
244.634
244.928
245.228
245.534
245.845
246.16
246.48
246.804
247.133
247.465
247.8
248.139
248.482
248.827
249.176
249.528
249.883
241.294
240.925
240.541
240.174
239.839
239.487
239.137
238.824
238.509
238.193
237.894
237.607
237.326
237.046
236.773
236.507
236.246
235.998
235.765
235.544
235.331
235.126
234.93
234.745
234.569
234.404
234.249
234.104
233.969
233.845
233.73
233.626
233.532
233.448
233.373
233.308
233.252
233.205
233.167
233.138
233.119
233.113
233.117
233.131
233.16
233.204
233.265
233.344
233.443
233.562
233.705
233.876
234.064
234.253
234.472
234.724
235.007
235.316
235.639
235.965
236.3
236.649
237.012
237.382
237.754
238.123
238.487
238.842
239.185
239.514
239.828
240.127
240.409
240.675
240.927
241.166
241.394
241.613
241.825
242.032
242.237
242.441
242.646
242.853
243.065
243.281
243.502
243.729
243.962
244.201
244.445
244.695
244.951
245.212
245.478
245.75
246.026
246.308
246.594
246.885
247.182
247.484
247.792
248.106
248.426
248.752
249.085
249.423
249.768
250.119
250.476
250.838
251.207
251.58
251.957
252.34
252.726
253.116
253.51
253.907
254.307
254.711
255.117
255.527
255.94
244.074
243.745
243.413
243.068
242.751
242.451
242.134
241.824
241.55
241.269
240.987
240.722
240.467
240.214
239.961
239.715
239.478
239.239
239.01
238.796
238.592
238.394
238.2
238.013
237.834
237.662
237.499
237.343
237.196
237.056
236.925
236.801
236.686
236.578
236.479
236.389
236.306
236.233
236.167
236.111
236.065
236.029
236.006
235.997
236.001
236.017
236.051
236.105
236.18
236.28
236.404
236.554
236.739
236.939
237.151
237.4
237.688
238.011
238.363
238.725
239.098
239.489
239.898
240.322
240.754
241.189
241.623
242.051
242.469
242.875
243.266
243.641
243.998
244.337
244.659
244.965
245.257
245.537
245.807
246.07
246.327
246.582
246.837
247.092
247.351
247.613
247.88
248.153
248.431
248.715
249.005
249.3
249.602
249.909
250.221
250.538
250.86
251.187
251.519
251.857
252.199
252.547
252.9
253.259
253.625
253.996
254.374
254.758
255.148
255.544
255.947
256.356
256.77
257.189
257.614
258.043
258.476
258.913
259.353
259.796
260.243
260.692
261.144
261.598
262.055
262.515
246.847
246.559
246.267
245.971
245.703
245.441
245.165
244.902
244.667
244.423
244.178
243.951
243.73
243.509
243.285
243.069
242.863
242.65
242.441
242.25
242.067
241.885
241.706
241.531
241.361
241.197
241.038
240.886
240.739
240.598
240.463
240.334
240.211
240.095
239.986
239.884
239.789
239.703
239.625
239.556
239.498
239.451
239.417
239.4
239.4
239.411
239.443
239.497
239.578
239.686
239.822
239.989
240.196
240.415
240.662
240.952
241.285
241.655
242.052
242.462
242.891
243.342
243.814
244.301
244.797
245.296
245.794
246.284
246.764
247.231
247.68
248.111
248.523
248.916
249.29
249.647
249.989
250.318
250.636
250.947
251.253
251.556
251.859
252.163
252.469
252.78
253.096
253.416
253.742
254.074
254.411
254.754
255.102
255.455
255.814
256.176
256.544
256.916
257.293
257.675
258.062
258.454
258.851
259.254
259.663
260.078
260.499
260.925
261.358
261.797
262.242
262.692
263.147
263.607
264.071
264.539
265.01
265.485
265.962
266.441
266.923
267.406
267.891
268.378
268.866
269.356
269.848
270.342
249.985
249.742
249.497
249.255
249.034
248.813
248.584
248.371
248.175
247.971
247.766
247.579
247.396
247.208
247.018
246.831
246.659
246.475
246.288
246.121
245.962
245.799
245.637
245.478
245.322
245.168
245.017
244.87
244.727
244.589
244.454
244.324
244.198
244.078
243.963
243.854
243.752
243.658
243.572
243.497
243.432
243.381
243.344
243.326
243.327
243.341
243.379
243.443
243.537
243.662
243.819
244.013
244.248
244.497
244.79
245.129
245.513
245.936
246.381
246.844
247.333
247.847
248.382
248.931
249.489
250.048
250.604
251.152
251.687
252.206
252.706
253.186
253.645
254.084
254.502
254.903
255.287
255.658
256.019
256.372
256.72
257.065
257.41
257.757
258.105
258.458
258.815
259.176
259.543
259.915
260.291
260.673
261.059
261.45
261.844
262.243
262.647
263.054
263.465
263.881
264.301
264.726
265.156
265.591
266.031
266.477
266.928
267.385
267.847
268.314
268.786
269.263
269.744
270.229
270.717
271.208
271.701
272.196
272.692
273.19
273.688
274.187
274.686
275.185
275.685
276.186
276.686
277.188
253.481
253.287
253.093
252.906
252.732
252.556
252.378
252.215
252.06
251.897
251.736
251.59
251.446
251.294
251.139
250.983
250.846
250.694
250.526
250.385
250.251
250.108
249.967
249.828
249.688
249.547
249.406
249.268
249.132
248.998
248.867
248.739
248.614
248.493
248.377
248.266
248.162
248.065
247.978
247.901
247.836
247.786
247.754
247.743
247.749
247.775
247.828
247.911
248.028
248.178
248.365
248.597
248.861
249.156
249.501
249.895
250.334
250.809
251.304
251.824
252.372
252.947
253.541
254.147
254.759
255.37
255.975
256.569
257.148
257.709
258.248
258.765
259.26
259.732
260.184
260.617
261.034
261.438
261.831
262.217
262.597
262.975
263.352
263.731
264.112
264.496
264.883
265.275
265.671
266.071
266.475
266.883
267.295
267.71
268.129
268.551
268.976
269.405
269.837
270.273
270.712
271.155
271.603
272.055
272.511
272.972
273.437
273.907
274.382
274.861
275.343
275.829
276.318
276.81
277.303
277.798
278.293
278.789
279.285
279.78
280.275
280.768
281.26
281.751
282.241
282.73
283.217
283.703
257.314
257.17
257.029
256.896
256.77
256.643
256.516
256.401
256.287
256.169
256.053
255.947
255.841
255.726
255.608
255.486
255.383
255.257
255.112
254.998
254.889
254.762
254.645
254.53
254.408
254.28
254.151
254.023
253.896
253.77
253.644
253.521
253.4
253.281
253.167
253.059
252.957
252.863
252.779
252.707
252.648
252.607
252.586
252.587
252.607
252.653
252.729
252.84
252.987
253.171
253.396
253.672
253.972
254.323
254.723
255.172
255.666
256.19
256.736
257.311
257.915
258.543
259.187
259.839
260.493
261.143
261.784
262.411
263.019
263.606
264.17
264.709
265.225
265.718
266.189
266.642
267.078
267.501
267.914
268.32
268.72
269.118
269.516
269.914
270.313
270.715
271.12
271.528
271.939
272.353
272.77
273.189
273.612
274.037
274.464
274.893
275.325
275.759
276.196
276.635
277.077
277.522
277.97
278.421
278.877
279.335
279.798
280.263
280.732
281.204
281.678
282.155
282.632
283.111
283.59
284.069
284.547
285.023
285.497
285.97
286.439
286.906
287.37
287.831
288.289
288.745
289.197
289.646
290.092
261.352
261.264
261.183
261.105
261.026
260.95
260.879
260.808
260.734
260.661
260.594
260.523
260.445
260.363
260.279
260.204
260.1
259.98
259.895
259.805
259.691
259.6
259.514
259.409
259.292
259.173
259.057
258.939
258.822
258.704
258.587
258.471
258.359
258.25
258.147
258.051
257.965
257.889
257.827
257.782
257.755
257.753
257.769
257.812
257.886
257.994
258.139
258.323
258.548
258.82
259.135
259.488
259.893
260.348
260.849
261.394
261.962
262.556
263.18
263.83
264.499
265.179
265.862
266.544
267.217
267.877
268.519
269.14
269.736
270.307
270.853
271.374
271.871
272.347
272.804
273.245
273.674
274.092
274.503
274.91
275.313
275.716
276.118
276.521
276.926
277.332
277.741
278.151
278.563
278.977
279.392
279.809
280.227
280.646
281.066
281.487
281.91
282.334
282.759
283.187
283.616
284.048
284.482
284.918
285.357
285.798
286.241
286.686
287.133
287.581
288.029
288.476
288.923
289.369
289.812
290.252
290.69
291.123
291.553
291.978
292.398
292.814
293.226
293.632
294.034
294.431
294.823
295.21
265.776
265.739
265.706
265.674
265.643
265.613
265.585
265.555
265.522
265.489
265.457
265.419
265.375
265.326
265.276
265.223
265.143
265.047
264.989
264.914
264.811
264.744
264.684
264.594
264.485
264.377
264.271
264.164
264.054
263.944
263.834
263.726
263.621
263.521
263.427
263.341
263.266
263.204
263.158
263.13
263.127
263.143
263.185
263.258
263.366
263.51
263.695
263.921
264.192
264.514
264.871
265.278
265.735
266.239
266.789
267.375
267.981
268.614
269.275
269.957
270.652
271.352
272.051
272.742
273.42
274.081
274.72
275.334
275.923
276.484
277.019
277.528
278.014
278.479
278.926
279.357
279.775
280.185
280.586
280.983
281.377
281.769
282.161
282.552
282.943
283.335
283.728
284.121
284.515
284.909
285.304
285.698
286.093
286.487
286.882
287.276
287.671
288.066
288.461
288.858
289.255
289.654
290.053
290.454
290.857
291.26
291.664
292.068
292.473
292.877
293.279
293.679
294.077
294.471
294.862
295.247
295.627
296.002
296.371
296.734
297.09
297.44
297.784
298.122
298.453
298.777
299.095
299.407
270.38
270.393
270.405
270.416
270.428
270.438
270.445
270.449
270.451
270.449
270.441
270.424
270.403
270.38
270.346
270.291
270.218
270.177
270.117
270.023
269.97
269.932
269.853
269.752
269.654
269.557
269.457
269.356
269.253
269.152
269.052
268.956
268.866
268.784
268.712
268.652
268.607
268.581
268.579
268.596
268.64
268.715
268.824
268.969
269.154
269.381
269.652
269.975
270.338
270.743
271.199
271.701
272.247
272.835
273.451
274.086
274.747
275.429
276.126
276.829
277.532
278.227
278.909
279.574
280.217
280.835
281.426
281.99
282.525
283.033
283.516
283.975
284.414
284.835
285.241
285.636
286.021
286.399
286.771
287.14
287.507
287.872
288.235
288.598
288.961
289.322
289.683
290.043
290.402
290.761
291.118
291.473
291.828
292.182
292.534
292.886
293.238
293.588
293.939
294.29
294.64
294.991
295.342
295.693
296.043
296.393
296.742
297.088
297.433
297.775
298.113
298.446
298.774
299.097
299.413
299.721
300.023
300.316
300.602
300.879
301.148
301.409
301.663
301.909
302.147
302.377
302.599
275.159
275.21
275.259
275.305
275.348
275.387
275.421
275.45
275.473
275.488
275.495
275.494
275.489
275.472
275.436
275.382
275.351
275.303
275.214
275.173
275.146
275.072
274.978
274.889
274.798
274.705
274.61
274.515
274.422
274.332
274.246
274.168
274.1
274.044
274.003
273.98
273.98
274
274.047
274.124
274.234
274.381
274.567
274.793
275.063
275.382
275.749
276.153
276.603
277.099
277.637
278.214
278.828
279.462
280.113
280.785
281.473
282.167
282.86
283.546
284.22
284.875
285.509
286.117
286.698
287.25
287.773
288.267
288.734
289.176
289.596
289.995
290.378
290.746
291.102
291.45
291.79
292.124
292.454
292.781
293.106
293.428
293.749
294.067
294.384
294.698
295.011
295.322
295.63
295.936
296.24
296.541
296.841
297.139
297.435
297.729
298.023
298.315
298.607
298.897
299.187
299.475
299.762
300.048
300.331
300.612
300.889
301.161
301.429
301.691
301.947
302.197
302.439
302.673
302.898
303.115
303.323
303.522
303.712
303.892
304.061
304.22
304.369
304.511
304.643
304.767
304.882
304.988
279.917
279.999
280.077
280.151
280.22
280.282
280.339
280.388
280.429
280.46
280.482
280.496
280.5
280.492
280.468
280.43
280.402
280.358
280.27
280.246
280.214
280.139
280.052
279.969
279.883
279.794
279.705
279.617
279.532
279.452
279.378
279.314
279.262
279.225
279.206
279.208
279.231
279.281
279.36
279.472