/*--------------------------------*- C++ -*----------------------------------*\
| =========                 |                                                 |
| \\      /  F ield         | OpenFOAM: The Open Source CFD Toolbox           |
|  \\    /   O peration     | Version:  v1706                                 |
|   \\  /    A nd           | Web:      www.OpenFOAM.com                      |
|    \\/     M anipulation  |                                                 |
\*---------------------------------------------------------------------------*/
FoamFile
{
    version     2.0;
    format      ascii;
    class       volScalarField;
    location    "1.3e-05";
    object      wallHeatFlux;
}
// * * * * * * * * * * * * * * * * * * * * * * * * * * * * * * * * * * * * * //

dimensions      [1 0 -3 0 0 0 0];


internalField   uniform 0;

boundaryField
{
    cone
    {
        type            calculated;
        value           nonuniform List<scalar> 
181
(
13821.4
14036.6
14251.7
14466.2
14679.9
14892.6
15104.2
15314.4
15523.4
15731.2
15938
16144
16349.6
16555.3
16761.5
16968.8
17177.6
17388.7
17602.6
17819.9
18041.1
18266.8
18497.4
18733.5
18975.3
19223.2
19477.6
19738.6
20006.4
20281.1
20562.7
20851.2
21146.5
21448.5
21756.8
22071.1
22391.1
22716
23045.3
23378.2
23713.7
24050.6
24387.7
24723.3
25055.6
25382.6
25701.7
26010.3
26305.2
26582.9
26839.6
27071.1
27272.7
27439.4
27566.2
27647.6
27678.2
27652.5
27565.4
27412.5
27190.1
26896.5
26533.1
26094.4
25578.7
24987.1
24322
23587.1
22787.8
21930.3
21022
20071.3
19087.5
18080.1
17058.1
16030
15004.4
13989
12991.1
12016.9
11071.8
10160.3
9285.9
8451.31
7658.39
6908.28
6201.46
5537.8
4916.69
4337.07
3797.94
3297.73
2834.67
2406.87
2012.52
1649.63
1316.22
1010.27
729.855
473.106
238.249
23.6051
-172.418
-351.31
-514.465
-663.181
-798.665
-922.03
-1034.31
-1136.44
-1229.3
-1313.69
-1390.35
-1459.93
-1523.07
-1580.32
-1632.19
-1679.16
-1721.66
-1760.08
-1794.79
-1826.11
-1854.34
-1879.77
-1902.64
-1923.2
-1941.65
-1958.18
-1972.98
-1986.21
-1998.02
-2008.54
-2017.91
-2026.23
-2033.61
-2040.14
-2045.91
-2051.01
-2055.49
-2059.43
-2062.87
-2065.89
-2068.52
-2070.81
-2072.79
-2074.5
-2075.97
-2077.23
-2078.3
-2079.21
-2079.98
-2080.62
-2081.14
-2081.57
-2081.92
-2082.19
-2082.39
-2082.54
-2082.64
-2082.7
-2082.71
-2082.7
-2082.66
-2082.6
-2082.51
-2082.41
-2082.29
-2082.16
-2082.02
-2081.87
-2081.71
-2081.55
-2081.38
-2081.2
-2081.03
-2080.85
-2080.66
-2080.48
-2080.29
-2080.11
-2079.92
)
;
    }
    inlet
    {
        type            calculated;
        value           uniform 0;
    }
    rWedge
    {
        type            wedge;
    }
    lWedge
    {
        type            wedge;
    }
    outlet
    {
        type            calculated;
        value           nonuniform 0();
    }
    procBoundary1to0
    {
        type            processor;
        value           uniform 0;
    }
    procBoundary1to2
    {
        type            processor;
        value           uniform 0;
    }
}


// ************************************************************************* //
