/*--------------------------------*- C++ -*----------------------------------*\
| =========                 |                                                 |
| \\      /  F ield         | OpenFOAM: The Open Source CFD Toolbox           |
|  \\    /   O peration     | Version:  v1706                                 |
|   \\  /    A nd           | Web:      www.OpenFOAM.com                      |
|    \\/     M anipulation  |                                                 |
\*---------------------------------------------------------------------------*/
FoamFile
{
    version     2.0;
    format      ascii;
    class       volScalarField;
    location    "1.2e-05";
    object      kappave;
}
// * * * * * * * * * * * * * * * * * * * * * * * * * * * * * * * * * * * * * //

dimensions      [1 1 -3 -1 0 0 0];


internalField   nonuniform List<scalar> 
30104
(
1.46149e-10
1.46148e-10
1.46146e-10
1.46145e-10
1.46143e-10
1.46141e-10
1.46139e-10
1.46137e-10
1.46135e-10
1.46133e-10
1.4613e-10
1.46128e-10
1.46125e-10
1.46122e-10
1.4612e-10
1.46117e-10
1.46114e-10
1.46099e-10
1.46099e-10
1.461e-10
1.461e-10
1.46101e-10
1.46101e-10
1.46102e-10
1.46102e-10
1.46103e-10
1.46103e-10
1.46104e-10
1.46104e-10
1.46105e-10
1.46105e-10
1.46106e-10
1.46106e-10
1.46107e-10
1.46107e-10
1.46108e-10
1.46108e-10
1.46109e-10
1.46109e-10
1.4611e-10
1.46111e-10
1.46111e-10
1.46112e-10
1.46112e-10
1.46113e-10
1.46114e-10
1.46114e-10
1.46115e-10
1.46115e-10
1.46116e-10
1.46117e-10
1.46117e-10
1.46118e-10
1.46119e-10
1.46119e-10
1.4612e-10
1.46121e-10
1.46121e-10
1.46122e-10
1.46123e-10
1.46124e-10
1.46124e-10
1.46125e-10
1.46126e-10
1.46126e-10
1.46127e-10
1.46128e-10
1.46129e-10
1.4613e-10
1.4613e-10
1.46131e-10
1.46132e-10
1.46133e-10
1.46134e-10
1.46135e-10
1.46135e-10
1.46136e-10
1.46137e-10
1.46138e-10
1.46139e-10
1.4614e-10
1.46141e-10
1.46142e-10
1.46143e-10
1.46144e-10
1.46145e-10
1.46146e-10
1.46147e-10
1.46148e-10
1.46149e-10
1.4615e-10
1.46151e-10
1.46152e-10
1.46153e-10
1.46154e-10
1.46155e-10
1.46156e-10
1.46158e-10
1.46159e-10
1.4616e-10
1.46161e-10
1.46162e-10
1.46163e-10
1.46164e-10
1.46166e-10
1.46167e-10
1.46168e-10
1.46169e-10
1.4617e-10
1.46171e-10
1.46173e-10
1.46174e-10
1.46175e-10
1.46176e-10
1.46177e-10
1.46178e-10
1.4618e-10
1.46181e-10
1.46182e-10
1.46183e-10
1.46184e-10
1.46186e-10
1.46187e-10
1.46188e-10
1.46189e-10
1.4619e-10
1.46192e-10
1.46193e-10
1.46194e-10
1.46196e-10
1.46197e-10
1.46198e-10
1.462e-10
1.46201e-10
1.46203e-10
1.46204e-10
1.46205e-10
1.46207e-10
1.46209e-10
1.4621e-10
1.46212e-10
1.46213e-10
1.46215e-10
1.46217e-10
1.46218e-10
1.4622e-10
1.46222e-10
1.46224e-10
1.46226e-10
1.46228e-10
1.4623e-10
1.46232e-10
1.46234e-10
1.46236e-10
1.46238e-10
1.4624e-10
1.46242e-10
1.46244e-10
1.46247e-10
1.46249e-10
1.46251e-10
1.46254e-10
1.46256e-10
1.46259e-10
1.46261e-10
1.46263e-10
1.46266e-10
1.46268e-10
1.46271e-10
1.46273e-10
1.46276e-10
1.46278e-10
1.46281e-10
1.46284e-10
1.46286e-10
1.46289e-10
1.46291e-10
1.46294e-10
1.46296e-10
1.46299e-10
1.46301e-10
1.46304e-10
1.46306e-10
1.46309e-10
1.46311e-10
1.46314e-10
1.46316e-10
1.46319e-10
1.46321e-10
1.46324e-10
1.46326e-10
1.46329e-10
1.46331e-10
1.46334e-10
1.46337e-10
1.46339e-10
1.46342e-10
1.46345e-10
1.46347e-10
1.4635e-10
1.46353e-10
1.46356e-10
1.46358e-10
1.46361e-10
1.46364e-10
1.46367e-10
1.4637e-10
1.46373e-10
1.4637e-10
1.46324e-10
1.46668e-10
1.46662e-10
1.46655e-10
1.46647e-10
1.46639e-10
1.46629e-10
1.46618e-10
1.46607e-10
1.46595e-10
1.46582e-10
1.46568e-10
1.46554e-10
1.4654e-10
1.46526e-10
1.46511e-10
1.46496e-10
1.46481e-10
1.46433e-10
1.46437e-10
1.46441e-10
1.46444e-10
1.46448e-10
1.46452e-10
1.46456e-10
1.46459e-10
1.46463e-10
1.46467e-10
1.46472e-10
1.46476e-10
1.4648e-10
1.46484e-10
1.46488e-10
1.46493e-10
1.46497e-10
1.46501e-10
1.46506e-10
1.46511e-10
1.46515e-10
1.4652e-10
1.46525e-10
1.46529e-10
1.46534e-10
1.46539e-10
1.46544e-10
1.46549e-10
1.46554e-10
1.46559e-10
1.46564e-10
1.46569e-10
1.46575e-10
1.4658e-10
1.46585e-10
1.46591e-10
1.46596e-10
1.46602e-10
1.46607e-10
1.46613e-10
1.46618e-10
1.46624e-10
1.4663e-10
1.46635e-10
1.46641e-10
1.46647e-10
1.46653e-10
1.46659e-10
1.46665e-10
1.46671e-10
1.46677e-10
1.46683e-10
1.46689e-10
1.46696e-10
1.46702e-10
1.46709e-10
1.46715e-10
1.46722e-10
1.46729e-10
1.46735e-10
1.46742e-10
1.46749e-10
1.46757e-10
1.46764e-10
1.46771e-10
1.46779e-10
1.46786e-10
1.46794e-10
1.46802e-10
1.4681e-10
1.46818e-10
1.46826e-10
1.46834e-10
1.46843e-10
1.46851e-10
1.4686e-10
1.46869e-10
1.46878e-10
1.46887e-10
1.46896e-10
1.46905e-10
1.46915e-10
1.46924e-10
1.46934e-10
1.46944e-10
1.46953e-10
1.46963e-10
1.46974e-10
1.46984e-10
1.46994e-10
1.47004e-10
1.47015e-10
1.47025e-10
1.47036e-10
1.47047e-10
1.47058e-10
1.47068e-10
1.47079e-10
1.4709e-10
1.47101e-10
1.47113e-10
1.47124e-10
1.47135e-10
1.47147e-10
1.47158e-10
1.4717e-10
1.47182e-10
1.47194e-10
1.47206e-10
1.47218e-10
1.4723e-10
1.47242e-10
1.47255e-10
1.47268e-10
1.47281e-10
1.47294e-10
1.47308e-10
1.47321e-10
1.47335e-10
1.47349e-10
1.47364e-10
1.47378e-10
1.47393e-10
1.47408e-10
1.47424e-10
1.4744e-10
1.47456e-10
1.47472e-10
1.47489e-10
1.47506e-10
1.47524e-10
1.47542e-10
1.4756e-10
1.47579e-10
1.47598e-10
1.47617e-10
1.47637e-10
1.47657e-10
1.47678e-10
1.47699e-10
1.4772e-10
1.47742e-10
1.47764e-10
1.47787e-10
1.47809e-10
1.47833e-10
1.47856e-10
1.4788e-10
1.47904e-10
1.47929e-10
1.47953e-10
1.47978e-10
1.48004e-10
1.48029e-10
1.48055e-10
1.4808e-10
1.48106e-10
1.48132e-10
1.48158e-10
1.48185e-10
1.48211e-10
1.48237e-10
1.48263e-10
1.48289e-10
1.48316e-10
1.48342e-10
1.48368e-10
1.48394e-10
1.4842e-10
1.48447e-10
1.48473e-10
1.48499e-10
1.48526e-10
1.48552e-10
1.48579e-10
1.48606e-10
1.48632e-10
1.48659e-10
1.48687e-10
1.48714e-10
1.48742e-10
1.48769e-10
1.48798e-10
1.48826e-10
1.48855e-10
1.48884e-10
1.48913e-10
1.48943e-10
1.48973e-10
1.49004e-10
1.49037e-10
1.49034e-10
1.48809e-10
1.47905e-10
1.47889e-10
1.47869e-10
1.47847e-10
1.47822e-10
1.47794e-10
1.47763e-10
1.4773e-10
1.47694e-10
1.47657e-10
1.47618e-10
1.47578e-10
1.47536e-10
1.47494e-10
1.4745e-10
1.47406e-10
1.47385e-10
1.47399e-10
1.47413e-10
1.47428e-10
1.47442e-10
1.47457e-10
1.47472e-10
1.47487e-10
1.47502e-10
1.47517e-10
1.47533e-10
1.47549e-10
1.47565e-10
1.47581e-10
1.47598e-10
1.47615e-10
1.47632e-10
1.47649e-10
1.47666e-10
1.47684e-10
1.47702e-10
1.4772e-10
1.47738e-10
1.47757e-10
1.47776e-10
1.47795e-10
1.47815e-10
1.47834e-10
1.47854e-10
1.47874e-10
1.47895e-10
1.47915e-10
1.47936e-10
1.47957e-10
1.47979e-10
1.48e-10
1.48022e-10
1.48044e-10
1.48067e-10
1.48089e-10
1.48112e-10
1.48135e-10
1.48159e-10
1.48182e-10
1.48206e-10
1.4823e-10
1.48255e-10
1.48279e-10
1.48304e-10
1.4833e-10
1.48355e-10
1.48381e-10
1.48408e-10
1.48434e-10
1.48461e-10
1.48489e-10
1.48517e-10
1.48545e-10
1.48574e-10
1.48603e-10
1.48632e-10
1.48662e-10
1.48693e-10
1.48724e-10
1.48756e-10
1.48788e-10
1.4882e-10
1.48854e-10
1.48887e-10
1.48922e-10
1.48957e-10
1.48992e-10
1.49028e-10
1.49065e-10
1.49102e-10
1.4914e-10
1.49179e-10
1.49218e-10
1.49258e-10
1.49299e-10
1.4934e-10
1.49382e-10
1.49424e-10
1.49467e-10
1.49511e-10
1.49556e-10
1.49601e-10
1.49646e-10
1.49692e-10
1.49739e-10
1.49786e-10
1.49833e-10
1.49882e-10
1.4993e-10
1.49979e-10
1.50028e-10
1.50078e-10
1.50128e-10
1.50178e-10
1.50229e-10
1.50279e-10
1.50331e-10
1.50382e-10
1.50434e-10
1.50486e-10
1.50538e-10
1.50591e-10
1.50644e-10
1.50698e-10
1.50752e-10
1.50806e-10
1.50861e-10
1.50917e-10
1.50973e-10
1.5103e-10
1.51087e-10
1.51145e-10
1.51204e-10
1.51264e-10
1.51325e-10
1.51386e-10
1.51449e-10
1.51512e-10
1.51576e-10
1.51642e-10
1.51709e-10
1.51777e-10
1.51846e-10
1.51917e-10
1.51989e-10
1.52062e-10
1.52138e-10
1.52214e-10
1.52293e-10
1.52373e-10
1.52454e-10
1.52538e-10
1.52624e-10
1.52711e-10
1.528e-10
1.52892e-10
1.52985e-10
1.53081e-10
1.53178e-10
1.53278e-10
1.5338e-10
1.53484e-10
1.5359e-10
1.53699e-10
1.53809e-10
1.53922e-10
1.54037e-10
1.54154e-10
1.54273e-10
1.54393e-10
1.54516e-10
1.54641e-10
1.54767e-10
1.54895e-10
1.55024e-10
1.55155e-10
1.55287e-10
1.5542e-10
1.55553e-10
1.55688e-10
1.55822e-10
1.55956e-10
1.56091e-10
1.56226e-10
1.56361e-10
1.56496e-10
1.56631e-10
1.56766e-10
1.56901e-10
1.57036e-10
1.57172e-10
1.57307e-10
1.57443e-10
1.57579e-10
1.57715e-10
1.57852e-10
1.57989e-10
1.58126e-10
1.58264e-10
1.58402e-10
1.58541e-10
1.5868e-10
1.58821e-10
1.58962e-10
1.59106e-10
1.59248e-10
1.59334e-10
1.58736e-10
1.50671e-10
1.50631e-10
1.50584e-10
1.50529e-10
1.50467e-10
1.50399e-10
1.50324e-10
1.50244e-10
1.50158e-10
1.50068e-10
1.49974e-10
1.49877e-10
1.49776e-10
1.49673e-10
1.49569e-10
1.49463e-10
1.49907e-10
1.49951e-10
1.49996e-10
1.50042e-10
1.50089e-10
1.50136e-10
1.50184e-10
1.50232e-10
1.50281e-10
1.50331e-10
1.50382e-10
1.50434e-10
1.50486e-10
1.50539e-10
1.50593e-10
1.50648e-10
1.50704e-10
1.50761e-10
1.50818e-10
1.50877e-10
1.50936e-10
1.50997e-10
1.51058e-10
1.51121e-10
1.51184e-10
1.51248e-10
1.51314e-10
1.5138e-10
1.51447e-10
1.51515e-10
1.51585e-10
1.51655e-10
1.51726e-10
1.51798e-10
1.51871e-10
1.51945e-10
1.5202e-10
1.52095e-10
1.52172e-10
1.52249e-10
1.52328e-10
1.52407e-10
1.52486e-10
1.52567e-10
1.52648e-10
1.52731e-10
1.52813e-10
1.52897e-10
1.52981e-10
1.53066e-10
1.53152e-10
1.53238e-10
1.53326e-10
1.53414e-10
1.53503e-10
1.53593e-10
1.53684e-10
1.53777e-10
1.5387e-10
1.53964e-10
1.5406e-10
1.54157e-10
1.54255e-10
1.54355e-10
1.54456e-10
1.54558e-10
1.54662e-10
1.54768e-10
1.54875e-10
1.54985e-10
1.55096e-10
1.55209e-10
1.55324e-10
1.5544e-10
1.5556e-10
1.55681e-10
1.55804e-10
1.5593e-10
1.56058e-10
1.56188e-10
1.56321e-10
1.56457e-10
1.56594e-10
1.56735e-10
1.56878e-10
1.57023e-10
1.57171e-10
1.57321e-10
1.57474e-10
1.57629e-10
1.57786e-10
1.57946e-10
1.58109e-10
1.58273e-10
1.5844e-10
1.58609e-10
1.58779e-10
1.58952e-10
1.59127e-10
1.59304e-10
1.59483e-10
1.59663e-10
1.59845e-10
1.60028e-10
1.60212e-10
1.60397e-10
1.60583e-10
1.60771e-10
1.60959e-10
1.61148e-10
1.61338e-10
1.6153e-10
1.61722e-10
1.61916e-10
1.62111e-10
1.62307e-10
1.62505e-10
1.62704e-10
1.62905e-10
1.63108e-10
1.63312e-10
1.63518e-10
1.63726e-10
1.63936e-10
1.64148e-10
1.64363e-10
1.6458e-10
1.648e-10
1.65023e-10
1.65249e-10
1.65478e-10
1.65711e-10
1.65948e-10
1.66189e-10
1.66434e-10
1.66684e-10
1.66938e-10
1.67198e-10
1.67462e-10
1.67732e-10
1.68008e-10
1.6829e-10
1.68578e-10
1.68873e-10
1.69174e-10
1.69482e-10
1.69797e-10
1.70119e-10
1.70448e-10
1.70785e-10
1.71129e-10
1.7148e-10
1.71839e-10
1.72206e-10
1.7258e-10
1.72961e-10
1.7335e-10
1.73747e-10
1.7415e-10
1.74561e-10
1.74979e-10
1.75404e-10
1.75835e-10
1.76274e-10
1.7672e-10
1.77169e-10
1.77617e-10
1.78063e-10
1.78507e-10
1.78949e-10
1.79389e-10
1.79828e-10
1.80263e-10
1.80698e-10
1.81129e-10
1.81559e-10
1.81986e-10
1.82412e-10
1.82834e-10
1.83256e-10
1.83673e-10
1.84092e-10
1.84503e-10
1.84918e-10
1.85322e-10
1.85735e-10
1.86131e-10
1.86543e-10
1.86928e-10
1.87342e-10
1.87715e-10
1.88145e-10
1.87661e-10
1.5632e-10
1.56231e-10
1.56127e-10
1.56007e-10
1.55873e-10
1.55725e-10
1.55565e-10
1.55392e-10
1.55209e-10
1.55016e-10
1.54815e-10
1.54606e-10
1.54391e-10
1.54171e-10
1.53947e-10
1.56044e-10
1.56166e-10
1.56289e-10
1.56414e-10
1.5654e-10
1.56668e-10
1.56797e-10
1.56927e-10
1.57059e-10
1.57193e-10
1.57329e-10
1.57466e-10
1.57605e-10
1.57745e-10
1.57888e-10
1.58033e-10
1.58179e-10
1.58328e-10
1.58479e-10
1.58632e-10
1.58787e-10
1.58944e-10
1.59104e-10
1.59266e-10
1.59431e-10
1.59598e-10
1.59768e-10
1.5994e-10
1.60114e-10
1.60292e-10
1.60471e-10
1.60654e-10
1.60839e-10
1.61026e-10
1.61216e-10
1.61409e-10
1.61605e-10
1.61802e-10
1.62003e-10
1.62206e-10
1.62411e-10
1.62619e-10
1.62829e-10
1.63042e-10
1.63257e-10
1.63474e-10
1.63693e-10
1.63914e-10
1.64138e-10
1.64362e-10
1.64589e-10
1.64817e-10
1.65047e-10
1.65278e-10
1.65512e-10
1.65748e-10
1.65985e-10
1.66225e-10
1.66467e-10
1.66712e-10
1.66958e-10
1.67208e-10
1.6746e-10
1.67714e-10
1.67972e-10
1.68233e-10
1.68496e-10
1.68763e-10
1.69034e-10
1.69307e-10
1.69585e-10
1.69866e-10
1.70151e-10
1.70441e-10
1.70734e-10
1.71032e-10
1.71335e-10
1.71642e-10
1.71954e-10
1.7227e-10
1.72592e-10
1.72919e-10
1.73251e-10
1.73588e-10
1.73931e-10
1.74279e-10
1.74632e-10
1.7499e-10
1.75354e-10
1.75722e-10
1.76095e-10
1.76474e-10
1.76857e-10
1.77244e-10
1.77636e-10
1.78032e-10
1.78432e-10
1.78836e-10
1.79244e-10
1.79656e-10
1.8007e-10
1.80489e-10
1.8091e-10
1.81335e-10
1.81761e-10
1.82185e-10
1.82606e-10
1.83024e-10
1.8344e-10
1.83852e-10
1.84261e-10
1.84666e-10
1.85069e-10
1.85467e-10
1.85862e-10
1.86254e-10
1.86641e-10
1.87025e-10
1.87405e-10
1.87781e-10
1.88154e-10
1.88522e-10
1.88886e-10
1.89247e-10
1.89603e-10
1.89956e-10
1.90304e-10
1.90649e-10
1.90989e-10
1.91325e-10
1.91658e-10
1.91985e-10
1.92309e-10
1.92629e-10
1.92944e-10
1.93254e-10
1.9356e-10
1.93861e-10
1.94158e-10
1.9445e-10
1.94737e-10
1.95019e-10
1.95296e-10
1.95567e-10
1.95834e-10
1.96095e-10
1.96351e-10
1.96602e-10
1.96848e-10
1.97088e-10
1.97323e-10
1.97553e-10
1.97778e-10
1.97998e-10
1.98213e-10
1.98423e-10
1.98628e-10
1.98828e-10
1.99024e-10
1.99215e-10
1.99401e-10
1.99582e-10
1.99758e-10
1.9993e-10
2.00095e-10
2.00257e-10
2.00414e-10
2.00569e-10
2.0072e-10
2.00867e-10
2.01011e-10
2.01152e-10
2.01289e-10
2.01423e-10
2.01552e-10
2.01677e-10
2.01798e-10
2.01914e-10
2.02025e-10
2.0213e-10
2.02231e-10
2.02324e-10
2.02414e-10
2.02494e-10
2.02574e-10
2.0264e-10
2.02711e-10
2.0276e-10
2.02827e-10
2.02855e-10
2.02919e-10
2.02907e-10
2.02626e-10
1.66501e-10
1.66354e-10
1.6618e-10
1.6598e-10
1.65755e-10
1.65505e-10
1.65233e-10
1.64939e-10
1.64625e-10
1.64293e-10
1.63944e-10
1.6358e-10
1.63203e-10
1.62814e-10
1.62415e-10
1.62008e-10
1.68403e-10
1.6866e-10
1.68919e-10
1.6918e-10
1.69443e-10
1.69707e-10
1.69974e-10
1.70243e-10
1.70515e-10
1.70788e-10
1.71064e-10
1.71343e-10
1.71624e-10
1.71908e-10
1.72195e-10
1.72485e-10
1.72778e-10
1.73074e-10
1.73374e-10
1.73677e-10
1.73984e-10
1.74294e-10
1.74608e-10
1.74926e-10
1.75249e-10
1.75575e-10
1.75905e-10
1.7624e-10
1.76579e-10
1.76923e-10
1.77271e-10
1.77623e-10
1.7798e-10
1.78342e-10
1.78707e-10
1.79077e-10
1.79451e-10
1.79829e-10
1.80211e-10
1.80596e-10
1.80985e-10
1.81377e-10
1.81773e-10
1.82171e-10
1.82571e-10
1.82974e-10
1.83379e-10
1.83785e-10
1.84193e-10
1.84601e-10
1.85006e-10
1.85408e-10
1.85808e-10
1.86204e-10
1.86596e-10
1.86985e-10
1.87369e-10
1.8775e-10
1.88126e-10
1.88497e-10
1.88864e-10
1.89226e-10
1.89583e-10
1.89935e-10
1.90283e-10
1.90625e-10
1.90961e-10
1.91293e-10
1.91619e-10
1.91941e-10
1.92256e-10
1.92567e-10
1.92872e-10
1.93172e-10
1.93467e-10
1.93757e-10
1.94041e-10
1.9432e-10
1.94594e-10
1.94863e-10
1.95126e-10
1.95385e-10
1.95638e-10
1.95886e-10
1.96129e-10
1.96367e-10
1.96599e-10
1.96827e-10
1.97049e-10
1.97266e-10
1.97478e-10
1.97685e-10
1.97888e-10
1.98085e-10
1.98278e-10
1.98466e-10
1.9865e-10
1.98829e-10
1.99004e-10
1.99175e-10
1.99342e-10
1.99505e-10
1.99664e-10
1.99819e-10
1.9997e-10
2.00118e-10
2.00264e-10
2.00408e-10
2.0055e-10
2.00689e-10
2.00825e-10
2.0096e-10
2.01092e-10
2.01222e-10
2.01349e-10
2.01474e-10
2.01596e-10
2.01716e-10
2.01833e-10
2.01947e-10
2.02058e-10
2.02166e-10
2.0227e-10
2.02372e-10
2.0247e-10
2.02564e-10
2.02654e-10
2.02741e-10
2.02823e-10
2.02902e-10
2.02977e-10
2.03047e-10
2.03114e-10
2.03177e-10
2.03235e-10
2.0329e-10
2.03342e-10
2.03389e-10
2.03433e-10
2.03474e-10
2.03512e-10
2.03547e-10
2.03579e-10
2.03609e-10
2.03637e-10
2.03662e-10
2.03686e-10
2.03709e-10
2.0373e-10
2.0375e-10
2.0377e-10
2.03788e-10
2.03806e-10
2.03823e-10
2.03839e-10
2.03856e-10
2.03871e-10
2.03887e-10
2.03902e-10
2.03917e-10
2.03931e-10
2.03946e-10
2.03961e-10
2.03975e-10
2.0399e-10
2.04004e-10
2.04019e-10
2.04034e-10
2.0405e-10
2.04065e-10
2.04084e-10
2.04104e-10
2.04124e-10
2.04143e-10
2.04161e-10
2.04178e-10
2.04193e-10
2.04208e-10
2.04222e-10
2.04234e-10
2.04247e-10
2.04258e-10
2.0427e-10
2.04281e-10
2.04293e-10
2.04304e-10
2.04317e-10
2.04328e-10
2.04343e-10
2.04355e-10
2.04373e-10
2.04381e-10
2.0429e-10
1.80624e-10
1.80378e-10
1.80099e-10
1.79788e-10
1.79445e-10
1.79072e-10
1.7867e-10
1.7824e-10
1.77784e-10
1.77303e-10
1.768e-10
1.76276e-10
1.75733e-10
1.86707e-10
1.87079e-10
1.8745e-10
1.87818e-10
1.88183e-10
1.88546e-10
1.88906e-10
1.89263e-10
1.89617e-10
1.89966e-10
1.90313e-10
1.90655e-10
1.90993e-10
1.91326e-10
1.91655e-10
1.9198e-10
1.92299e-10
1.92614e-10
1.92924e-10
1.93228e-10
1.93527e-10
1.93821e-10
1.94109e-10
1.94391e-10
1.94668e-10
1.9494e-10
1.95205e-10
1.95465e-10
1.95719e-10
1.95967e-10
1.9621e-10
1.96446e-10
1.96677e-10
1.96902e-10
1.97121e-10
1.97334e-10
1.97541e-10
1.97743e-10
1.97938e-10
1.98129e-10
1.98313e-10
1.98492e-10
1.98665e-10
1.98833e-10
1.98996e-10
1.99153e-10
1.99305e-10
1.99453e-10
1.99595e-10
1.99732e-10
1.99866e-10
1.99996e-10
2.00123e-10
2.00248e-10
2.00369e-10
2.00487e-10
2.00603e-10
2.00716e-10
2.00827e-10
2.00936e-10
2.01043e-10
2.01148e-10
2.01251e-10
2.01352e-10
2.01452e-10
2.0155e-10
2.01647e-10
2.01742e-10
2.01836e-10
2.01929e-10
2.02019e-10
2.02109e-10
2.02197e-10
2.02283e-10
2.02367e-10
2.0245e-10
2.02531e-10
2.02611e-10
2.02688e-10
2.02764e-10
2.02838e-10
2.0291e-10
2.0298e-10
2.03048e-10
2.03114e-10
2.03178e-10
2.0324e-10
2.033e-10
2.03358e-10
2.03414e-10
2.03468e-10
2.0352e-10
2.0357e-10
2.03619e-10
2.03665e-10
2.0371e-10
2.03753e-10
2.03794e-10
2.03833e-10
2.03871e-10
2.03907e-10
2.03942e-10
2.03975e-10
2.04006e-10
2.04035e-10
2.04063e-10
2.04089e-10
2.04114e-10
2.04137e-10
2.04159e-10
2.04179e-10
2.04198e-10
2.04215e-10
2.04232e-10
2.04247e-10
2.04261e-10
2.04275e-10
2.04288e-10
2.043e-10
2.04312e-10
2.04324e-10
2.04336e-10
2.04348e-10
2.04359e-10
2.04371e-10
2.04382e-10
2.04394e-10
2.04406e-10
2.04418e-10
2.0443e-10
2.04442e-10
2.04454e-10
2.04467e-10
2.04481e-10
2.04495e-10
2.04509e-10
2.04523e-10
2.04536e-10
2.0455e-10
2.04565e-10
2.0458e-10
2.04595e-10
2.04611e-10
2.04627e-10
2.04645e-10
2.04663e-10
2.04682e-10
2.04702e-10
2.04723e-10
2.04746e-10
2.04769e-10
2.04793e-10
2.04819e-10
2.04845e-10
2.04873e-10
2.04902e-10
2.04932e-10
2.04964e-10
2.04995e-10
2.05027e-10
2.0506e-10
2.05093e-10
2.05126e-10
2.0516e-10
2.05194e-10
2.05228e-10
2.05262e-10
2.05297e-10
2.05331e-10
2.05366e-10
2.05399e-10
2.05426e-10
2.05452e-10
2.05478e-10
2.05503e-10
2.05528e-10
2.05553e-10
2.05578e-10
2.05603e-10
2.05628e-10
2.05654e-10
2.05681e-10
2.0571e-10
2.05739e-10
2.0577e-10
2.05803e-10
2.05838e-10
2.05874e-10
2.05913e-10
2.05954e-10
2.05996e-10
2.06048e-10
2.06003e-10
1.94584e-10
1.94257e-10
1.93906e-10
1.93533e-10
1.93138e-10
1.92721e-10
1.92284e-10
1.91824e-10
1.91345e-10
1.90845e-10
1.90325e-10
1.89783e-10
1.89223e-10
1.99554e-10
1.99693e-10
1.99829e-10
1.99961e-10
2.00089e-10
2.00213e-10
2.00333e-10
2.0045e-10
2.00564e-10
2.00675e-10
2.00782e-10
2.00887e-10
2.00989e-10
2.01088e-10
2.01185e-10
2.01279e-10
2.01371e-10
2.01461e-10
2.01549e-10
2.01635e-10
2.01718e-10
2.01801e-10
2.01881e-10
2.0196e-10
2.02037e-10
2.02112e-10
2.02186e-10
2.02259e-10
2.0233e-10
2.024e-10
2.02468e-10
2.02535e-10
2.026e-10
2.02664e-10
2.02727e-10
2.02788e-10
2.02848e-10
2.02907e-10
2.02964e-10
2.0302e-10
2.03075e-10
2.03128e-10
2.0318e-10
2.03231e-10
2.03281e-10
2.0333e-10
2.03378e-10
2.03424e-10
2.0347e-10
2.03514e-10
2.03558e-10
2.03601e-10
2.03642e-10
2.03683e-10
2.03723e-10
2.03762e-10
2.038e-10
2.03837e-10
2.03873e-10
2.03907e-10
2.03941e-10
2.03973e-10
2.04005e-10
2.04034e-10
2.04063e-10
2.0409e-10
2.04117e-10
2.04141e-10
2.04165e-10
2.04187e-10
2.04209e-10
2.04229e-10
2.04249e-10
2.04268e-10
2.04286e-10
2.04304e-10
2.04321e-10
2.04338e-10
2.04354e-10
2.04371e-10
2.04387e-10
2.04403e-10
2.0442e-10
2.04436e-10
2.04452e-10
2.04469e-10
2.04485e-10
2.04502e-10
2.04518e-10
2.04535e-10
2.04551e-10
2.04568e-10
2.04585e-10
2.04602e-10
2.0462e-10
2.04637e-10
2.04655e-10
2.04673e-10
2.04691e-10
2.0471e-10
2.04728e-10
2.04747e-10
2.04766e-10
2.04786e-10
2.04806e-10
2.04826e-10
2.04846e-10
2.04867e-10
2.04888e-10
2.04908e-10
2.04929e-10
2.0495e-10
2.04972e-10
2.04994e-10
2.05017e-10
2.0504e-10
2.05064e-10
2.05087e-10
2.0511e-10
2.05133e-10
2.05156e-10
2.05179e-10
2.05201e-10
2.05224e-10
2.05246e-10
2.05268e-10
2.05289e-10
2.05311e-10
2.05333e-10
2.05355e-10
2.05377e-10
2.05399e-10
2.05422e-10
2.05443e-10
2.05466e-10
2.05489e-10
2.05513e-10
2.05539e-10
2.05565e-10
2.05593e-10
2.05622e-10
2.05652e-10
2.05684e-10
2.05717e-10
2.05752e-10
2.05787e-10
2.05824e-10
2.05863e-10
2.05902e-10
2.05941e-10
2.05982e-10
2.06023e-10
2.06065e-10
2.06108e-10
2.0615e-10
2.06192e-10
2.06234e-10
2.06277e-10
2.06321e-10
2.06366e-10
2.06412e-10
2.06459e-10
2.06507e-10
2.06554e-10
2.06603e-10
2.06651e-10
2.06699e-10
2.06747e-10
2.06795e-10
2.06842e-10
2.06889e-10
2.06936e-10
2.06984e-10
2.07034e-10
2.07085e-10
2.07139e-10
2.07194e-10
2.07251e-10
2.07311e-10
2.07373e-10
2.07437e-10
2.07504e-10
2.07573e-10
2.07645e-10
2.07721e-10
2.07798e-10
2.07879e-10
2.07961e-10
2.08048e-10
2.08135e-10
2.08223e-10
2.08327e-10
2.08259e-10
2.01585e-10
2.01257e-10
2.00921e-10
2.00575e-10
2.00226e-10
1.99875e-10
1.99517e-10
1.99155e-10
1.98794e-10
1.98429e-10
1.98059e-10
1.97689e-10
1.9732e-10
1.96948e-10
2.03051e-10
2.03098e-10
2.03145e-10
2.03191e-10
2.03236e-10
2.0328e-10
2.03323e-10
2.03366e-10
2.03408e-10
2.03449e-10
2.03489e-10
2.03529e-10
2.03568e-10
2.03606e-10
2.03643e-10
2.03679e-10
2.03715e-10
2.0375e-10
2.03784e-10
2.03817e-10
2.03849e-10
2.03879e-10
2.03909e-10
2.03938e-10
2.03966e-10
2.03993e-10
2.04019e-10
2.04044e-10
2.04068e-10
2.04091e-10
2.04112e-10
2.04134e-10
2.04154e-10
2.04173e-10
2.04192e-10
2.0421e-10
2.04228e-10
2.04245e-10
2.04262e-10
2.04279e-10
2.04295e-10
2.04311e-10
2.04327e-10
2.04343e-10
2.04359e-10
2.04376e-10
2.04392e-10
2.04408e-10
2.04425e-10
2.04442e-10
2.04459e-10
2.04476e-10
2.04494e-10
2.04512e-10
2.0453e-10
2.04548e-10
2.04567e-10
2.04586e-10
2.04605e-10
2.04624e-10
2.04643e-10
2.04662e-10
2.04682e-10
2.04702e-10
2.04721e-10
2.04741e-10
2.04761e-10
2.04781e-10
2.04801e-10
2.04821e-10
2.04841e-10
2.04861e-10
2.04882e-10
2.04902e-10
2.04923e-10
2.04944e-10
2.04965e-10
2.04987e-10
2.05009e-10
2.05031e-10
2.05053e-10
2.05075e-10
2.05097e-10
2.05119e-10
2.05141e-10
2.05163e-10
2.05186e-10
2.05208e-10
2.05231e-10
2.05253e-10
2.05276e-10
2.053e-10
2.05324e-10
2.05348e-10
2.05372e-10
2.05397e-10
2.05423e-10
2.05449e-10
2.05476e-10
2.05503e-10
2.05531e-10
2.05559e-10
2.05588e-10
2.05617e-10
2.05647e-10
2.05677e-10
2.05708e-10
2.05739e-10
2.0577e-10
2.05802e-10
2.05835e-10
2.05868e-10
2.05901e-10
2.05933e-10
2.05965e-10
2.05996e-10
2.06028e-10
2.06061e-10
2.06093e-10
2.06126e-10
2.0616e-10
2.06194e-10
2.06228e-10
2.06262e-10
2.06297e-10
2.06333e-10
2.06369e-10
2.06406e-10
2.06444e-10
2.06483e-10
2.06522e-10
2.06563e-10
2.06605e-10
2.06648e-10
2.06693e-10
2.0674e-10
2.06789e-10
2.0684e-10
2.06893e-10
2.06947e-10
2.07004e-10
2.07062e-10
2.07121e-10
2.07183e-10
2.07246e-10
2.0731e-10
2.07376e-10
2.07443e-10
2.07511e-10
2.07581e-10
2.07652e-10
2.07725e-10
2.07799e-10
2.07874e-10
2.07951e-10
2.0803e-10
2.0811e-10
2.08192e-10
2.08275e-10
2.08358e-10
2.08443e-10
2.08529e-10
2.08616e-10
2.08704e-10
2.08793e-10
2.08883e-10
2.08975e-10
2.09068e-10
2.09163e-10
2.0926e-10
2.0936e-10
2.09462e-10
2.09568e-10
2.09677e-10
2.09789e-10
2.09904e-10
2.10023e-10
2.10145e-10
2.1027e-10
2.10399e-10
2.10531e-10
2.10667e-10
2.10806e-10
2.10948e-10
2.11094e-10
2.11243e-10
2.11396e-10
2.11551e-10
2.11711e-10
2.11869e-10
2.12027e-10
2.12185e-10
2.12047e-10
2.04062e-10
2.03724e-10
2.03381e-10
2.03043e-10
2.02711e-10
2.02375e-10
2.02044e-10
2.01722e-10
2.01397e-10
2.01074e-10
2.00763e-10
2.00454e-10
2.00147e-10
1.99849e-10
2.04123e-10
2.04142e-10
2.0416e-10
2.04178e-10
2.04196e-10
2.04213e-10
2.0423e-10
2.04247e-10
2.04264e-10
2.04281e-10
2.04298e-10
2.04315e-10
2.04331e-10
2.04348e-10
2.04365e-10
2.04382e-10
2.04399e-10
2.04416e-10
2.04433e-10
2.0445e-10
2.04467e-10
2.04484e-10
2.04501e-10
2.04518e-10
2.04536e-10
2.04553e-10
2.04571e-10
2.04588e-10
2.04606e-10
2.04623e-10
2.04641e-10
2.04659e-10
2.04677e-10
2.04695e-10
2.04714e-10
2.04732e-10
2.04751e-10
2.0477e-10
2.04789e-10
2.04808e-10
2.04828e-10
2.04848e-10
2.04869e-10
2.0489e-10
2.04912e-10
2.04934e-10
2.04956e-10
2.04978e-10
2.05001e-10
2.05024e-10
2.05047e-10
2.05071e-10
2.05094e-10
2.05118e-10
2.05142e-10
2.05166e-10
2.05191e-10
2.05216e-10
2.0524e-10
2.05265e-10
2.05291e-10
2.05316e-10
2.05342e-10
2.05368e-10
2.05394e-10
2.0542e-10
2.05447e-10
2.05474e-10
2.05501e-10
2.05529e-10
2.05557e-10
2.05585e-10
2.05614e-10
2.05643e-10
2.05672e-10
2.05701e-10
2.0573e-10
2.05759e-10
2.05788e-10
2.05818e-10
2.05848e-10
2.05878e-10
2.05909e-10
2.0594e-10
2.05972e-10
2.06004e-10
2.06036e-10
2.06069e-10
2.06103e-10
2.06138e-10
2.06173e-10
2.06209e-10
2.06246e-10
2.06284e-10
2.06322e-10
2.06362e-10
2.06402e-10
2.06443e-10
2.06485e-10
2.06528e-10
2.06572e-10
2.06617e-10
2.06663e-10
2.06709e-10
2.06757e-10
2.06805e-10
2.06855e-10
2.06905e-10
2.06956e-10
2.07008e-10
2.07062e-10
2.07116e-10
2.0717e-10
2.07226e-10
2.07283e-10
2.07342e-10
2.07401e-10
2.07461e-10
2.07521e-10
2.07583e-10
2.07646e-10
2.0771e-10
2.07776e-10
2.07843e-10
2.07911e-10
2.07981e-10
2.08052e-10
2.08126e-10
2.08201e-10
2.08279e-10
2.08358e-10
2.0844e-10
2.08525e-10
2.08612e-10
2.08701e-10
2.08793e-10
2.08887e-10
2.08983e-10
2.09082e-10
2.09183e-10
2.09286e-10
2.09392e-10
2.09499e-10
2.09609e-10
2.09721e-10
2.09835e-10
2.09951e-10
2.10069e-10
2.10189e-10
2.10312e-10
2.10437e-10
2.10564e-10
2.10694e-10
2.10826e-10
2.10961e-10
2.11097e-10
2.11236e-10
2.11377e-10
2.1152e-10
2.11665e-10
2.11812e-10
2.11963e-10
2.12115e-10
2.12271e-10
2.1243e-10
2.12591e-10
2.12757e-10
2.12926e-10
2.13099e-10
2.13275e-10
2.13456e-10
2.13641e-10
2.1383e-10
2.14023e-10
2.1422e-10
2.14421e-10
2.14626e-10
2.14834e-10
2.15047e-10
2.15264e-10
2.15484e-10
2.15708e-10
2.15936e-10
2.16168e-10
2.16403e-10
2.16642e-10
2.16886e-10
2.17131e-10
2.17379e-10
2.17618e-10
2.17855e-10
2.18014e-10
2.17736e-10
2.04819e-10
2.04469e-10
2.04126e-10
2.03795e-10
2.03459e-10
2.03127e-10
2.02808e-10
2.02487e-10
2.02173e-10
2.01888e-10
2.01601e-10
2.01313e-10
2.01056e-10
2.00815e-10
2.04582e-10
2.04601e-10
2.04621e-10
2.0464e-10
2.04659e-10
2.04679e-10
2.04698e-10
2.04718e-10
2.04738e-10
2.04758e-10
2.04779e-10
2.04799e-10
2.04819e-10
2.04839e-10
2.0486e-10
2.0488e-10
2.04901e-10
2.04921e-10
2.04942e-10
2.04963e-10
2.04984e-10
2.05005e-10
2.05026e-10
2.05048e-10
2.05069e-10
2.05092e-10
2.05114e-10
2.05137e-10
2.0516e-10
2.05184e-10
2.05208e-10
2.05232e-10
2.05257e-10
2.05282e-10
2.05308e-10
2.05334e-10
2.0536e-10
2.05388e-10
2.05415e-10
2.05443e-10
2.05472e-10
2.055e-10
2.05529e-10
2.05558e-10
2.05587e-10
2.05617e-10
2.05646e-10
2.05677e-10
2.05707e-10
2.05738e-10
2.05769e-10
2.05801e-10
2.05833e-10
2.05865e-10
2.05897e-10
2.0593e-10
2.05963e-10
2.05997e-10
2.06031e-10
2.06066e-10
2.06101e-10
2.06136e-10
2.06172e-10
2.06209e-10
2.06246e-10
2.06284e-10
2.06323e-10
2.06362e-10
2.06402e-10
2.06444e-10
2.06485e-10
2.06528e-10
2.06572e-10
2.06616e-10
2.06661e-10
2.06707e-10
2.06754e-10
2.06802e-10
2.06851e-10
2.06901e-10
2.06951e-10
2.07003e-10
2.07055e-10
2.07109e-10
2.07164e-10
2.07219e-10
2.07276e-10
2.07334e-10
2.07393e-10
2.07454e-10
2.07516e-10
2.07579e-10
2.07644e-10
2.0771e-10
2.07777e-10
2.07846e-10
2.07917e-10
2.07988e-10
2.08061e-10
2.08135e-10
2.08211e-10
2.08289e-10
2.08367e-10
2.08448e-10
2.0853e-10
2.08613e-10
2.08698e-10
2.08785e-10
2.08874e-10
2.08964e-10
2.09056e-10
2.09149e-10
2.09245e-10
2.09342e-10
2.09442e-10
2.09543e-10
2.09645e-10
2.0975e-10
2.09857e-10
2.09966e-10
2.10077e-10
2.10191e-10
2.10307e-10
2.10426e-10
2.10547e-10
2.10671e-10
2.10799e-10
2.10929e-10
2.11062e-10
2.11198e-10
2.11337e-10
2.1148e-10
2.11625e-10
2.11773e-10
2.11925e-10
2.12079e-10
2.12236e-10
2.12396e-10
2.12559e-10
2.12725e-10
2.12894e-10
2.13066e-10
2.1324e-10
2.13417e-10
2.13598e-10
2.13781e-10
2.13967e-10
2.14157e-10
2.14349e-10
2.14544e-10
2.14743e-10
2.14944e-10
2.15149e-10
2.15357e-10
2.15567e-10
2.15781e-10
2.15999e-10
2.1622e-10
2.16444e-10
2.16672e-10
2.16904e-10
2.1714e-10
2.1738e-10
2.17624e-10
2.17873e-10
2.18125e-10
2.18382e-10
2.18644e-10
2.18909e-10
2.1918e-10
2.19454e-10
2.19732e-10
2.20015e-10
2.20301e-10
2.20592e-10
2.20887e-10
2.21185e-10
2.21488e-10
2.21794e-10
2.22104e-10
2.22417e-10
2.22735e-10
2.23056e-10
2.23381e-10
2.23711e-10
2.24044e-10
2.24381e-10
2.24715e-10
2.25043e-10
2.25342e-10
2.25646e-10
2.2568e-10
2.25186e-10
2.05345e-10
2.04987e-10
2.04647e-10
2.0432e-10
2.03983e-10
2.03655e-10
2.03342e-10
2.03024e-10
2.0272e-10
2.02446e-10
2.02167e-10
2.0189e-10
2.01642e-10
2.051e-10
2.05125e-10
2.0515e-10
2.05175e-10
2.052e-10
2.05226e-10
2.05252e-10
2.05277e-10
2.05303e-10
2.05328e-10
2.05354e-10
2.0538e-10
2.05406e-10
2.05432e-10
2.05459e-10
2.05485e-10
2.05512e-10
2.05539e-10
2.05567e-10
2.05595e-10
2.05623e-10
2.05652e-10
2.05681e-10
2.05711e-10
2.05741e-10
2.05771e-10
2.05803e-10
2.05834e-10
2.05867e-10
2.059e-10
2.05934e-10
2.05969e-10
2.06004e-10
2.06041e-10
2.06078e-10
2.06115e-10
2.06154e-10
2.06193e-10
2.06233e-10
2.06274e-10
2.06315e-10
2.06357e-10
2.064e-10
2.06443e-10
2.06487e-10
2.06532e-10
2.06577e-10
2.06623e-10
2.0667e-10
2.06717e-10
2.06765e-10
2.06814e-10
2.06863e-10
2.06913e-10
2.06964e-10
2.07015e-10
2.07068e-10
2.07121e-10
2.07175e-10
2.07231e-10
2.07287e-10
2.07344e-10
2.07403e-10
2.07462e-10
2.07523e-10
2.07585e-10
2.07649e-10
2.07713e-10
2.0778e-10
2.07847e-10
2.07916e-10
2.07986e-10
2.08058e-10
2.08131e-10
2.08206e-10
2.08283e-10
2.08361e-10
2.08441e-10
2.08522e-10
2.08604e-10
2.08689e-10
2.08775e-10
2.08863e-10
2.08952e-10
2.09043e-10
2.09136e-10
2.09231e-10
2.09328e-10
2.09427e-10
2.09528e-10
2.09631e-10
2.09735e-10
2.09842e-10
2.09951e-10
2.10062e-10
2.10174e-10
2.10289e-10
2.10406e-10
2.10525e-10
2.10646e-10
2.1077e-10
2.10895e-10
2.11023e-10
2.11153e-10
2.11286e-10
2.1142e-10
2.11558e-10
2.11697e-10
2.1184e-10
2.11985e-10
2.12132e-10
2.12282e-10
2.12435e-10
2.12591e-10
2.12749e-10
2.1291e-10
2.13075e-10
2.13242e-10
2.13413e-10
2.13587e-10
2.13764e-10
2.13945e-10
2.14129e-10
2.14317e-10
2.14508e-10
2.14703e-10
2.14901e-10
2.15104e-10
2.15309e-10
2.15519e-10
2.15731e-10
2.15948e-10
2.16167e-10
2.1639e-10
2.16617e-10
2.16847e-10
2.1708e-10
2.17316e-10
2.17556e-10
2.17799e-10
2.18046e-10
2.18296e-10
2.18549e-10
2.18806e-10
2.19066e-10
2.19329e-10