/*--------------------------------*- C++ -*----------------------------------*\
| =========                 |                                                 |
| \\      /  F ield         | OpenFOAM: The Open Source CFD Toolbox           |
|  \\    /   O peration     | Version:  v1706                                 |
|   \\  /    A nd           | Web:      www.OpenFOAM.com                      |
|    \\/     M anipulation  |                                                 |
\*---------------------------------------------------------------------------*/
FoamFile
{
    version     2.0;
    format      ascii;
    class       volScalarField;
    location    "1.2e-05";
    object      mu;
}
// * * * * * * * * * * * * * * * * * * * * * * * * * * * * * * * * * * * * * //

dimensions      [1 -1 -1 0 0 0 0];


internalField   nonuniform List<scalar> 
30104
(
1.03589e-05
1.03588e-05
1.03587e-05
1.03586e-05
1.03585e-05
1.03583e-05
1.03582e-05
1.03581e-05
1.03579e-05
1.03577e-05
1.03576e-05
1.03574e-05
1.03572e-05
1.0357e-05
1.03568e-05
1.03566e-05
1.03564e-05
1.03553e-05
1.03554e-05
1.03554e-05
1.03554e-05
1.03555e-05
1.03555e-05
1.03555e-05
1.03556e-05
1.03556e-05
1.03556e-05
1.03557e-05
1.03557e-05
1.03557e-05
1.03558e-05
1.03558e-05
1.03559e-05
1.03559e-05
1.03559e-05
1.0356e-05
1.0356e-05
1.0356e-05
1.03561e-05
1.03561e-05
1.03562e-05
1.03562e-05
1.03562e-05
1.03563e-05
1.03563e-05
1.03564e-05
1.03564e-05
1.03565e-05
1.03565e-05
1.03566e-05
1.03566e-05
1.03566e-05
1.03567e-05
1.03567e-05
1.03568e-05
1.03568e-05
1.03569e-05
1.03569e-05
1.0357e-05
1.0357e-05
1.03571e-05
1.03571e-05
1.03572e-05
1.03572e-05
1.03573e-05
1.03573e-05
1.03574e-05
1.03575e-05
1.03575e-05
1.03576e-05
1.03576e-05
1.03577e-05
1.03577e-05
1.03578e-05
1.03579e-05
1.03579e-05
1.0358e-05
1.03581e-05
1.03581e-05
1.03582e-05
1.03582e-05
1.03583e-05
1.03584e-05
1.03585e-05
1.03585e-05
1.03586e-05
1.03587e-05
1.03587e-05
1.03588e-05
1.03589e-05
1.0359e-05
1.0359e-05
1.03591e-05
1.03592e-05
1.03593e-05
1.03593e-05
1.03594e-05
1.03595e-05
1.03596e-05
1.03597e-05
1.03597e-05
1.03598e-05
1.03599e-05
1.036e-05
1.03601e-05
1.03601e-05
1.03602e-05
1.03603e-05
1.03604e-05
1.03605e-05
1.03606e-05
1.03606e-05
1.03607e-05
1.03608e-05
1.03609e-05
1.0361e-05
1.03611e-05
1.03611e-05
1.03612e-05
1.03613e-05
1.03614e-05
1.03615e-05
1.03616e-05
1.03617e-05
1.03617e-05
1.03618e-05
1.03619e-05
1.0362e-05
1.03621e-05
1.03622e-05
1.03623e-05
1.03624e-05
1.03625e-05
1.03626e-05
1.03627e-05
1.03628e-05
1.03629e-05
1.0363e-05
1.03631e-05
1.03632e-05
1.03633e-05
1.03635e-05
1.03636e-05
1.03637e-05
1.03638e-05
1.03639e-05
1.03641e-05
1.03642e-05
1.03643e-05
1.03645e-05
1.03646e-05
1.03648e-05
1.03649e-05
1.0365e-05
1.03652e-05
1.03653e-05
1.03655e-05
1.03657e-05
1.03658e-05
1.0366e-05
1.03661e-05
1.03663e-05
1.03665e-05
1.03667e-05
1.03668e-05
1.0367e-05
1.03672e-05
1.03674e-05
1.03675e-05
1.03677e-05
1.03679e-05
1.03681e-05
1.03682e-05
1.03684e-05
1.03686e-05
1.03688e-05
1.0369e-05
1.03692e-05
1.03693e-05
1.03695e-05
1.03697e-05
1.03699e-05
1.037e-05
1.03702e-05
1.03704e-05
1.03706e-05
1.03708e-05
1.03709e-05
1.03711e-05
1.03713e-05
1.03715e-05
1.03716e-05
1.03718e-05
1.0372e-05
1.03722e-05
1.03724e-05
1.03726e-05
1.03727e-05
1.03729e-05
1.03731e-05
1.03733e-05
1.03735e-05
1.03737e-05
1.03739e-05
1.03742e-05
1.03744e-05
1.03746e-05
1.03748e-05
1.03745e-05
1.03713e-05
1.03957e-05
1.03953e-05
1.03948e-05
1.03942e-05
1.03936e-05
1.03929e-05
1.03921e-05
1.03913e-05
1.03905e-05
1.03896e-05
1.03886e-05
1.03876e-05
1.03866e-05
1.03856e-05
1.03845e-05
1.03835e-05
1.03824e-05
1.0379e-05
1.03793e-05
1.03796e-05
1.03798e-05
1.03801e-05
1.03804e-05
1.03806e-05
1.03809e-05
1.03812e-05
1.03815e-05
1.03818e-05
1.0382e-05
1.03823e-05
1.03826e-05
1.03829e-05
1.03832e-05
1.03836e-05
1.03839e-05
1.03842e-05
1.03845e-05
1.03848e-05
1.03852e-05
1.03855e-05
1.03858e-05
1.03862e-05
1.03865e-05
1.03869e-05
1.03872e-05
1.03876e-05
1.0388e-05
1.03883e-05
1.03887e-05
1.03891e-05
1.03894e-05
1.03898e-05
1.03902e-05
1.03906e-05
1.0391e-05
1.03914e-05
1.03918e-05
1.03921e-05
1.03925e-05
1.03929e-05
1.03934e-05
1.03938e-05
1.03942e-05
1.03946e-05
1.0395e-05
1.03954e-05
1.03959e-05
1.03963e-05
1.03967e-05
1.03972e-05
1.03976e-05
1.03981e-05
1.03985e-05
1.0399e-05
1.03995e-05
1.04e-05
1.04005e-05
1.04009e-05
1.04014e-05
1.0402e-05
1.04025e-05
1.0403e-05
1.04035e-05
1.04041e-05
1.04046e-05
1.04052e-05
1.04057e-05
1.04063e-05
1.04069e-05
1.04075e-05
1.04081e-05
1.04087e-05
1.04093e-05
1.04099e-05
1.04105e-05
1.04112e-05
1.04118e-05
1.04125e-05
1.04132e-05
1.04138e-05
1.04145e-05
1.04152e-05
1.04159e-05
1.04166e-05
1.04173e-05
1.04181e-05
1.04188e-05
1.04195e-05
1.04203e-05
1.0421e-05
1.04218e-05
1.04225e-05
1.04233e-05
1.04241e-05
1.04248e-05
1.04256e-05
1.04264e-05
1.04272e-05
1.0428e-05
1.04288e-05
1.04296e-05
1.04304e-05
1.04313e-05
1.04321e-05
1.04329e-05
1.04338e-05
1.04346e-05
1.04355e-05
1.04364e-05
1.04373e-05
1.04382e-05
1.04391e-05
1.04401e-05
1.0441e-05
1.0442e-05
1.0443e-05
1.0444e-05
1.0445e-05
1.0446e-05
1.04471e-05
1.04481e-05
1.04492e-05
1.04504e-05
1.04515e-05
1.04527e-05
1.04539e-05
1.04551e-05
1.04563e-05
1.04576e-05
1.04589e-05
1.04602e-05
1.04616e-05
1.04629e-05
1.04644e-05
1.04658e-05
1.04672e-05
1.04687e-05
1.04703e-05
1.04718e-05
1.04734e-05
1.0475e-05
1.04766e-05
1.04782e-05
1.04799e-05
1.04816e-05
1.04833e-05
1.0485e-05
1.04868e-05
1.04886e-05
1.04903e-05
1.04921e-05
1.0494e-05
1.04958e-05
1.04976e-05
1.04995e-05
1.05013e-05
1.05032e-05
1.0505e-05
1.05069e-05
1.05087e-05
1.05106e-05
1.05125e-05
1.05143e-05
1.05162e-05
1.0518e-05
1.05199e-05
1.05217e-05
1.05236e-05
1.05255e-05
1.05273e-05
1.05292e-05
1.05311e-05
1.0533e-05
1.05349e-05
1.05368e-05
1.05388e-05
1.05407e-05
1.05427e-05
1.05446e-05
1.05466e-05
1.05486e-05
1.05507e-05
1.05527e-05
1.05548e-05
1.05569e-05
1.05591e-05
1.05612e-05
1.05636e-05
1.05634e-05
1.05474e-05
1.04833e-05
1.04822e-05
1.04808e-05
1.04792e-05
1.04775e-05
1.04755e-05
1.04733e-05
1.04709e-05
1.04684e-05
1.04658e-05
1.0463e-05
1.04602e-05
1.04572e-05
1.04542e-05
1.04511e-05
1.0448e-05
1.04465e-05
1.04475e-05
1.04485e-05
1.04495e-05
1.04505e-05
1.04516e-05
1.04526e-05
1.04537e-05
1.04548e-05
1.04559e-05
1.0457e-05
1.04581e-05
1.04593e-05
1.04604e-05
1.04616e-05
1.04628e-05
1.0464e-05
1.04652e-05
1.04664e-05
1.04677e-05
1.0469e-05
1.04702e-05
1.04715e-05
1.04729e-05
1.04742e-05
1.04756e-05
1.04769e-05
1.04783e-05
1.04797e-05
1.04812e-05
1.04826e-05
1.04841e-05
1.04856e-05
1.04871e-05
1.04886e-05
1.04901e-05
1.04917e-05
1.04932e-05
1.04948e-05
1.04964e-05
1.0498e-05
1.04997e-05
1.05013e-05
1.0503e-05
1.05047e-05
1.05064e-05
1.05081e-05
1.05099e-05
1.05117e-05
1.05135e-05
1.05153e-05
1.05171e-05
1.0519e-05
1.05209e-05
1.05228e-05
1.05247e-05
1.05267e-05
1.05287e-05
1.05307e-05
1.05328e-05
1.05349e-05
1.0537e-05
1.05392e-05
1.05414e-05
1.05436e-05
1.05459e-05
1.05482e-05
1.05506e-05
1.0553e-05
1.05554e-05
1.05579e-05
1.05604e-05
1.0563e-05
1.05656e-05
1.05682e-05
1.05709e-05
1.05736e-05
1.05764e-05
1.05793e-05
1.05821e-05
1.05851e-05
1.0588e-05
1.0591e-05
1.05941e-05
1.05972e-05
1.06004e-05
1.06035e-05
1.06068e-05
1.061e-05
1.06133e-05
1.06167e-05
1.062e-05
1.06234e-05
1.06269e-05
1.06303e-05
1.06338e-05
1.06374e-05
1.06409e-05
1.06445e-05
1.0648e-05
1.06517e-05
1.06553e-05
1.06589e-05
1.06626e-05
1.06663e-05
1.067e-05
1.06738e-05
1.06775e-05
1.06813e-05
1.06851e-05
1.0689e-05
1.06929e-05
1.06968e-05
1.07008e-05
1.07048e-05
1.07089e-05
1.0713e-05
1.07172e-05
1.07214e-05
1.07257e-05
1.07301e-05
1.07345e-05
1.0739e-05
1.07436e-05
1.07482e-05
1.0753e-05
1.07578e-05
1.07627e-05
1.07677e-05
1.07728e-05
1.0778e-05
1.07834e-05
1.07888e-05
1.07943e-05
1.08e-05
1.08058e-05
1.08117e-05
1.08178e-05
1.0824e-05
1.08303e-05
1.08368e-05
1.08434e-05
1.08502e-05
1.08571e-05
1.08642e-05
1.08714e-05
1.08788e-05
1.08863e-05
1.0894e-05
1.09019e-05
1.09098e-05
1.0918e-05
1.09263e-05
1.09347e-05
1.09433e-05
1.09519e-05
1.09608e-05
1.09697e-05
1.09788e-05
1.0988e-05
1.09972e-05
1.10066e-05
1.1016e-05
1.10255e-05
1.1035e-05
1.10445e-05
1.1054e-05
1.10636e-05
1.10731e-05
1.10827e-05
1.10922e-05
1.11018e-05
1.11114e-05
1.1121e-05
1.11306e-05
1.11402e-05
1.11498e-05
1.11594e-05
1.11691e-05
1.11787e-05
1.11884e-05
1.11981e-05
1.12078e-05
1.12176e-05
1.12274e-05
1.12372e-05
1.12471e-05
1.12571e-05
1.1267e-05
1.12773e-05
1.12873e-05
1.12935e-05
1.1251e-05
1.06794e-05
1.06766e-05
1.06732e-05
1.06693e-05
1.0665e-05
1.06601e-05
1.06548e-05
1.06491e-05
1.06431e-05
1.06367e-05
1.063e-05
1.06231e-05
1.0616e-05
1.06087e-05
1.06013e-05
1.05938e-05
1.06252e-05
1.06284e-05
1.06316e-05
1.06348e-05
1.06381e-05
1.06415e-05
1.06449e-05
1.06483e-05
1.06518e-05
1.06553e-05
1.06589e-05
1.06626e-05
1.06663e-05
1.06701e-05
1.06739e-05
1.06778e-05
1.06817e-05
1.06858e-05
1.06898e-05
1.0694e-05
1.06982e-05
1.07025e-05
1.07068e-05
1.07113e-05
1.07158e-05
1.07203e-05
1.07249e-05
1.07296e-05
1.07344e-05
1.07393e-05
1.07442e-05
1.07491e-05
1.07542e-05
1.07593e-05
1.07645e-05
1.07697e-05
1.0775e-05
1.07804e-05
1.07858e-05
1.07913e-05
1.07968e-05
1.08024e-05
1.08081e-05
1.08138e-05
1.08196e-05
1.08254e-05
1.08313e-05
1.08372e-05
1.08431e-05
1.08492e-05
1.08552e-05
1.08614e-05
1.08676e-05
1.08738e-05
1.08801e-05
1.08865e-05
1.0893e-05
1.08995e-05
1.09061e-05
1.09128e-05
1.09196e-05
1.09265e-05
1.09334e-05
1.09405e-05
1.09477e-05
1.09549e-05
1.09623e-05
1.09698e-05
1.09774e-05
1.09851e-05
1.0993e-05
1.1001e-05
1.10092e-05
1.10175e-05
1.10259e-05
1.10345e-05
1.10432e-05
1.10522e-05
1.10612e-05
1.10705e-05
1.10799e-05
1.10895e-05
1.10993e-05
1.11092e-05
1.11193e-05
1.11296e-05
1.11401e-05
1.11507e-05
1.11616e-05
1.11726e-05
1.11837e-05
1.11951e-05
1.12066e-05
1.12182e-05
1.123e-05
1.1242e-05
1.12541e-05
1.12664e-05
1.12788e-05
1.12913e-05
1.1304e-05
1.13168e-05
1.13296e-05
1.13426e-05
1.13557e-05
1.13688e-05
1.1382e-05
1.13953e-05
1.14086e-05
1.1422e-05
1.14355e-05
1.14491e-05
1.14627e-05
1.14764e-05
1.14903e-05
1.15042e-05
1.15182e-05
1.15323e-05
1.15466e-05
1.15609e-05
1.15754e-05
1.159e-05
1.16047e-05
1.16196e-05
1.16346e-05
1.16499e-05
1.16653e-05
1.16809e-05
1.16967e-05
1.17127e-05
1.17289e-05
1.17455e-05
1.17622e-05
1.17793e-05
1.17967e-05
1.18144e-05
1.18324e-05
1.18508e-05
1.18696e-05
1.18887e-05
1.19083e-05
1.19282e-05
1.19487e-05
1.19695e-05
1.19909e-05
1.20127e-05
1.2035e-05
1.20578e-05
1.20812e-05
1.2105e-05
1.21294e-05
1.21543e-05
1.21798e-05
1.22058e-05
1.22323e-05
1.22593e-05
1.22869e-05
1.2315e-05
1.23436e-05
1.23727e-05
1.24023e-05
1.24324e-05
1.2463e-05
1.24941e-05
1.25257e-05
1.25576e-05
1.25893e-05
1.26209e-05
1.26524e-05
1.26837e-05
1.27149e-05
1.2746e-05
1.27769e-05
1.28077e-05
1.28382e-05
1.28687e-05
1.2899e-05
1.29292e-05
1.29591e-05
1.2989e-05
1.30186e-05
1.30482e-05
1.30773e-05
1.31068e-05
1.31354e-05
1.31647e-05
1.31928e-05
1.3222e-05
1.32493e-05
1.32786e-05
1.33051e-05
1.33356e-05
1.33012e-05
1.10798e-05
1.10735e-05
1.10661e-05
1.10576e-05
1.10481e-05
1.10377e-05
1.10263e-05
1.10141e-05
1.10011e-05
1.09874e-05
1.09731e-05
1.09583e-05
1.09431e-05
1.09275e-05
1.09116e-05
1.10602e-05
1.10689e-05
1.10776e-05
1.10865e-05
1.10954e-05
1.11044e-05
1.11136e-05
1.11228e-05
1.11322e-05
1.11417e-05
1.11513e-05
1.1161e-05
1.11709e-05
1.11808e-05
1.11909e-05
1.12012e-05
1.12116e-05
1.12221e-05
1.12328e-05
1.12437e-05
1.12547e-05
1.12658e-05
1.12771e-05
1.12886e-05
1.13003e-05
1.13122e-05
1.13242e-05
1.13364e-05
1.13487e-05
1.13613e-05
1.1374e-05
1.1387e-05
1.14001e-05
1.14134e-05
1.14269e-05
1.14405e-05
1.14544e-05
1.14684e-05
1.14826e-05
1.1497e-05
1.15115e-05
1.15263e-05
1.15412e-05
1.15563e-05
1.15715e-05
1.15869e-05
1.16024e-05
1.16181e-05
1.16339e-05
1.16498e-05
1.16659e-05
1.1682e-05
1.16983e-05
1.17148e-05
1.17313e-05
1.1748e-05
1.17649e-05
1.17819e-05
1.1799e-05
1.18163e-05
1.18338e-05
1.18515e-05
1.18694e-05
1.18874e-05
1.19057e-05
1.19242e-05
1.19428e-05
1.19618e-05
1.19809e-05
1.20003e-05
1.202e-05
1.20399e-05
1.20602e-05
1.20807e-05
1.21015e-05
1.21226e-05
1.2144e-05
1.21658e-05
1.21879e-05
1.22103e-05
1.22331e-05
1.22563e-05
1.22799e-05
1.23038e-05
1.2328e-05
1.23527e-05
1.23777e-05
1.24031e-05
1.24289e-05
1.2455e-05
1.24815e-05
1.25083e-05
1.25354e-05
1.25629e-05
1.25907e-05
1.26187e-05
1.26471e-05
1.26757e-05
1.27046e-05
1.27338e-05
1.27632e-05
1.27929e-05
1.28227e-05
1.28528e-05
1.2883e-05
1.29131e-05
1.29429e-05
1.29726e-05
1.3002e-05
1.30312e-05
1.30602e-05
1.3089e-05
1.31175e-05
1.31457e-05
1.31737e-05
1.32015e-05
1.32289e-05
1.32561e-05
1.32831e-05
1.33098e-05
1.33361e-05
1.33622e-05
1.33881e-05
1.34136e-05
1.34389e-05
1.34639e-05
1.34886e-05
1.3513e-05
1.35371e-05
1.3561e-05
1.35845e-05
1.36077e-05
1.36307e-05
1.36533e-05
1.36756e-05
1.36977e-05
1.37193e-05
1.37407e-05
1.37617e-05
1.37824e-05
1.38028e-05
1.38227e-05
1.38424e-05
1.38616e-05
1.38805e-05
1.3899e-05
1.39172e-05
1.3935e-05
1.39524e-05
1.39694e-05
1.39861e-05
1.40024e-05
1.40183e-05
1.40339e-05
1.40491e-05
1.4064e-05
1.40786e-05
1.40928e-05
1.41066e-05
1.41201e-05
1.41333e-05
1.41462e-05
1.41587e-05
1.41708e-05
1.41826e-05
1.4194e-05
1.42052e-05
1.42161e-05
1.42268e-05
1.42373e-05
1.42475e-05
1.42574e-05
1.42672e-05
1.42766e-05
1.42858e-05
1.42947e-05
1.43033e-05
1.43115e-05
1.43193e-05
1.43268e-05
1.43339e-05
1.43405e-05
1.43469e-05
1.43526e-05
1.43583e-05
1.43629e-05
1.4368e-05
1.43714e-05
1.43762e-05
1.43781e-05
1.43827e-05
1.43818e-05
1.43619e-05
1.18014e-05
1.1791e-05
1.17787e-05
1.17645e-05
1.17485e-05
1.17308e-05
1.17115e-05
1.16907e-05
1.16685e-05
1.16449e-05
1.16202e-05
1.15944e-05
1.15676e-05
1.15401e-05
1.15118e-05
1.1483e-05
1.19362e-05
1.19544e-05
1.19728e-05
1.19913e-05
1.20099e-05
1.20287e-05
1.20476e-05
1.20667e-05
1.20859e-05
1.21053e-05
1.21249e-05
1.21446e-05
1.21646e-05
1.21847e-05
1.2205e-05
1.22256e-05
1.22463e-05
1.22673e-05
1.22886e-05
1.231e-05
1.23318e-05
1.23538e-05
1.2376e-05
1.23986e-05
1.24214e-05
1.24446e-05
1.2468e-05
1.24917e-05
1.25158e-05
1.25401e-05
1.25648e-05
1.25898e-05
1.26151e-05
1.26407e-05
1.26666e-05
1.26928e-05
1.27193e-05
1.27461e-05
1.27731e-05
1.28005e-05
1.2828e-05
1.28558e-05
1.28839e-05
1.29121e-05
1.29405e-05
1.2969e-05
1.29977e-05
1.30265e-05
1.30554e-05
1.30843e-05
1.3113e-05
1.31416e-05
1.31699e-05
1.31979e-05
1.32257e-05
1.32533e-05
1.32805e-05
1.33075e-05
1.33341e-05
1.33605e-05
1.33865e-05
1.34121e-05
1.34375e-05
1.34624e-05
1.3487e-05
1.35113e-05
1.35352e-05
1.35587e-05
1.35818e-05
1.36045e-05
1.36269e-05
1.36489e-05
1.36706e-05
1.36919e-05
1.37127e-05
1.37333e-05
1.37534e-05
1.37732e-05
1.37926e-05
1.38117e-05
1.38304e-05
1.38487e-05
1.38666e-05
1.38842e-05
1.39014e-05
1.39183e-05
1.39348e-05
1.39509e-05
1.39666e-05
1.3982e-05
1.39971e-05
1.40117e-05
1.40261e-05
1.40401e-05
1.40537e-05
1.40671e-05
1.40801e-05
1.40928e-05
1.41052e-05
1.41173e-05
1.41292e-05
1.41407e-05
1.4152e-05
1.4163e-05
1.41737e-05
1.41842e-05
1.41945e-05
1.42047e-05
1.42147e-05
1.42246e-05
1.42343e-05
1.42438e-05
1.42532e-05
1.42624e-05
1.42714e-05
1.42803e-05
1.42889e-05
1.42974e-05
1.43057e-05
1.43138e-05
1.43217e-05
1.43293e-05
1.43367e-05
1.43439e-05
1.43508e-05
1.43575e-05
1.43639e-05
1.43701e-05
1.43759e-05
1.43815e-05
1.43868e-05
1.43918e-05
1.43965e-05
1.44009e-05
1.44051e-05
1.4409e-05
1.44126e-05
1.4416e-05
1.44191e-05
1.4422e-05
1.44247e-05
1.44272e-05
1.44295e-05
1.44316e-05
1.44335e-05
1.44354e-05
1.44371e-05
1.44387e-05
1.44402e-05
1.44416e-05
1.4443e-05
1.44443e-05
1.44455e-05
1.44468e-05
1.44479e-05
1.44491e-05
1.44502e-05
1.44513e-05
1.44523e-05
1.44534e-05
1.44544e-05
1.44555e-05
1.44565e-05
1.44575e-05
1.44586e-05
1.44596e-05
1.44607e-05
1.44617e-05
1.44628e-05
1.4464e-05
1.44652e-05
1.44667e-05
1.44681e-05
1.44695e-05
1.44707e-05
1.44719e-05
1.4473e-05
1.4474e-05
1.4475e-05
1.44759e-05
1.44768e-05
1.44776e-05
1.44785e-05
1.44792e-05
1.44801e-05
1.44809e-05
1.44818e-05
1.44826e-05
1.44836e-05
1.44845e-05
1.44858e-05
1.44864e-05
1.44799e-05
1.28025e-05
1.2785e-05
1.27652e-05
1.27432e-05
1.27189e-05
1.26925e-05
1.2664e-05
1.26335e-05
1.26011e-05
1.25671e-05
1.25314e-05
1.24943e-05
1.24558e-05
1.32336e-05
1.326e-05
1.32862e-05
1.33123e-05
1.33382e-05
1.3364e-05
1.33895e-05
1.34148e-05
1.34398e-05
1.34646e-05
1.34892e-05
1.35134e-05
1.35374e-05
1.3561e-05
1.35843e-05
1.36073e-05
1.363e-05
1.36523e-05
1.36742e-05
1.36958e-05
1.3717e-05
1.37378e-05
1.37582e-05
1.37783e-05
1.37979e-05
1.38171e-05
1.38359e-05
1.38544e-05
1.38724e-05
1.389e-05
1.39071e-05
1.39239e-05
1.39403e-05
1.39562e-05
1.39717e-05
1.39868e-05
1.40015e-05
1.40158e-05
1.40297e-05
1.40431e-05
1.40562e-05
1.40689e-05
1.40812e-05
1.40931e-05
1.41046e-05
1.41158e-05
1.41266e-05
1.4137e-05
1.41471e-05
1.41568e-05
1.41663e-05
1.41755e-05
1.41845e-05
1.41933e-05
1.42019e-05
1.42103e-05
1.42185e-05
1.42265e-05
1.42344e-05
1.42421e-05
1.42497e-05
1.42571e-05
1.42645e-05
1.42716e-05
1.42787e-05
1.42857e-05
1.42925e-05
1.42993e-05
1.43059e-05
1.43125e-05
1.43189e-05
1.43253e-05
1.43315e-05
1.43376e-05
1.43436e-05
1.43495e-05
1.43552e-05
1.43608e-05
1.43664e-05
1.43717e-05
1.4377e-05
1.43821e-05
1.4387e-05
1.43919e-05
1.43965e-05
1.44011e-05
1.44055e-05
1.44097e-05
1.44138e-05
1.44178e-05
1.44216e-05
1.44253e-05
1.44289e-05
1.44323e-05
1.44356e-05
1.44387e-05
1.44418e-05
1.44447e-05
1.44475e-05
1.44502e-05
1.44527e-05
1.44552e-05
1.44575e-05
1.44597e-05
1.44618e-05
1.44638e-05
1.44657e-05
1.44674e-05
1.4469e-05
1.44706e-05
1.4472e-05
1.44733e-05
1.44746e-05
1.44757e-05
1.44768e-05
1.44778e-05
1.44788e-05
1.44797e-05
1.44806e-05
1.44814e-05
1.44823e-05
1.44831e-05
1.44839e-05
1.44848e-05
1.44856e-05
1.44864e-05
1.44872e-05
1.44881e-05
1.44889e-05
1.44898e-05
1.44906e-05
1.44915e-05
1.44924e-05
1.44934e-05
1.44944e-05
1.44954e-05
1.44963e-05
1.44973e-05
1.44983e-05
1.44993e-05
1.45004e-05
1.45015e-05
1.45026e-05
1.45038e-05
1.4505e-05
1.45063e-05
1.45077e-05
1.45091e-05
1.45106e-05
1.45122e-05
1.45138e-05
1.45155e-05
1.45173e-05
1.45192e-05
1.45212e-05
1.45232e-05
1.45254e-05
1.45276e-05
1.45298e-05
1.45321e-05
1.45344e-05
1.45368e-05
1.45391e-05
1.45415e-05
1.45439e-05
1.45463e-05
1.45488e-05
1.45512e-05
1.45537e-05
1.45561e-05
1.45584e-05
1.45604e-05
1.45622e-05
1.45641e-05
1.45659e-05
1.45676e-05
1.45694e-05
1.45711e-05
1.45729e-05
1.45747e-05
1.45766e-05
1.45785e-05
1.45805e-05
1.45826e-05
1.45848e-05
1.45871e-05
1.45896e-05
1.45922e-05
1.45949e-05
1.45978e-05
1.46008e-05
1.46045e-05
1.46013e-05
1.37919e-05
1.37687e-05
1.37439e-05
1.37174e-05
1.36894e-05
1.36599e-05
1.36289e-05
1.35963e-05
1.35623e-05
1.35269e-05
1.349e-05
1.34516e-05
1.34119e-05
1.41442e-05
1.41541e-05
1.41637e-05
1.4173e-05
1.41821e-05
1.41909e-05
1.41994e-05
1.42077e-05
1.42158e-05
1.42236e-05
1.42312e-05
1.42387e-05
1.42459e-05
1.42529e-05
1.42598e-05
1.42665e-05
1.4273e-05
1.42793e-05
1.42856e-05
1.42916e-05
1.42976e-05
1.43034e-05
1.43091e-05
1.43147e-05
1.43202e-05
1.43255e-05
1.43308e-05
1.43359e-05
1.43409e-05
1.43459e-05
1.43507e-05
1.43554e-05
1.43601e-05
1.43646e-05
1.43691e-05
1.43734e-05
1.43777e-05
1.43818e-05
1.43859e-05
1.43898e-05
1.43937e-05
1.43975e-05
1.44012e-05
1.44048e-05
1.44084e-05
1.44118e-05
1.44152e-05
1.44185e-05
1.44217e-05
1.44249e-05
1.4428e-05
1.4431e-05
1.4434e-05
1.44369e-05
1.44397e-05
1.44424e-05
1.44451e-05
1.44477e-05
1.44503e-05
1.44527e-05
1.44551e-05
1.44574e-05
1.44596e-05
1.44618e-05
1.44638e-05
1.44657e-05
1.44676e-05
1.44693e-05
1.4471e-05
1.44726e-05
1.44741e-05
1.44756e-05
1.4477e-05
1.44783e-05
1.44796e-05
1.44808e-05
1.44821e-05
1.44832e-05
1.44844e-05
1.44856e-05
1.44868e-05
1.44879e-05
1.44891e-05
1.44902e-05
1.44914e-05
1.44925e-05
1.44937e-05
1.44949e-05
1.4496e-05
1.44972e-05
1.44984e-05
1.44996e-05
1.45008e-05
1.4502e-05
1.45032e-05
1.45045e-05
1.45057e-05
1.4507e-05
1.45083e-05
1.45096e-05
1.45109e-05
1.45123e-05
1.45136e-05
1.4515e-05
1.45164e-05
1.45179e-05
1.45193e-05
1.45208e-05
1.45222e-05
1.45237e-05
1.45252e-05
1.45267e-05
1.45282e-05
1.45298e-05
1.45314e-05
1.45331e-05
1.45347e-05
1.45364e-05
1.4538e-05
1.45396e-05
1.45413e-05
1.45429e-05
1.45445e-05
1.4546e-05
1.45476e-05
1.45492e-05
1.45507e-05
1.45522e-05
1.45538e-05
1.45553e-05
1.45569e-05
1.45585e-05
1.45601e-05
1.45616e-05
1.45632e-05
1.45649e-05
1.45666e-05
1.45684e-05
1.45703e-05
1.45722e-05
1.45743e-05
1.45764e-05
1.45787e-05
1.4581e-05
1.45835e-05
1.4586e-05
1.45886e-05
1.45913e-05
1.45941e-05
1.45969e-05
1.45998e-05
1.46027e-05
1.46057e-05
1.46087e-05
1.46117e-05
1.46147e-05
1.46177e-05
1.46207e-05
1.46238e-05
1.4627e-05
1.46303e-05
1.46336e-05
1.4637e-05
1.46404e-05
1.46438e-05
1.46472e-05
1.46506e-05
1.4654e-05
1.46574e-05
1.46608e-05
1.46641e-05
1.46674e-05
1.46708e-05
1.46744e-05
1.4678e-05
1.46818e-05
1.46857e-05
1.46897e-05
1.4694e-05
1.46984e-05
1.47029e-05
1.47077e-05
1.47126e-05
1.47177e-05
1.4723e-05
1.47285e-05
1.47342e-05
1.47401e-05
1.47462e-05
1.47524e-05
1.47587e-05
1.4766e-05
1.47612e-05
1.42881e-05
1.42649e-05
1.42411e-05
1.42166e-05
1.41918e-05
1.41669e-05
1.41416e-05
1.41159e-05
1.40903e-05
1.40645e-05
1.40382e-05
1.4012e-05
1.39858e-05
1.39595e-05
1.4392e-05
1.43954e-05
1.43987e-05
1.4402e-05
1.44051e-05
1.44083e-05
1.44113e-05
1.44144e-05
1.44173e-05
1.44202e-05
1.44231e-05
1.44259e-05
1.44287e-05
1.44314e-05
1.4434e-05
1.44366e-05
1.44391e-05
1.44416e-05
1.4444e-05
1.44463e-05
1.44486e-05
1.44508e-05
1.44529e-05
1.44549e-05
1.44569e-05
1.44588e-05
1.44607e-05
1.44624e-05
1.44641e-05
1.44657e-05
1.44673e-05
1.44688e-05
1.44702e-05
1.44716e-05
1.44729e-05
1.44742e-05
1.44755e-05
1.44767e-05
1.44779e-05
1.44791e-05
1.44802e-05
1.44814e-05
1.44825e-05
1.44836e-05
1.44848e-05
1.44859e-05
1.44871e-05
1.44882e-05
1.44894e-05
1.44906e-05
1.44918e-05
1.44931e-05
1.44943e-05
1.44956e-05
1.44969e-05
1.44982e-05
1.44995e-05
1.45008e-05
1.45022e-05
1.45035e-05
1.45049e-05
1.45063e-05
1.45076e-05
1.4509e-05
1.45104e-05
1.45118e-05
1.45133e-05
1.45147e-05
1.45161e-05
1.45175e-05
1.45189e-05
1.45204e-05
1.45218e-05
1.45232e-05
1.45247e-05
1.45262e-05
1.45277e-05
1.45293e-05
1.45308e-05
1.45324e-05
1.45339e-05
1.45355e-05
1.4537e-05
1.45386e-05
1.45402e-05
1.45418e-05
1.45433e-05
1.45449e-05
1.45465e-05
1.45482e-05
1.45498e-05
1.45514e-05
1.45531e-05
1.45548e-05
1.45566e-05
1.45584e-05
1.45602e-05
1.4562e-05
1.45639e-05
1.45659e-05
1.45678e-05
1.45698e-05
1.45719e-05
1.45739e-05
1.4576e-05
1.45782e-05
1.45803e-05
1.45825e-05
1.45848e-05
1.45871e-05
1.45894e-05
1.45917e-05
1.4594e-05
1.45963e-05
1.45986e-05
1.46008e-05
1.46031e-05
1.46054e-05
1.46077e-05
1.461e-05
1.46124e-05
1.46148e-05
1.46172e-05
1.46197e-05
1.46221e-05
1.46247e-05
1.46272e-05
1.46299e-05
1.46325e-05
1.46353e-05
1.46381e-05
1.4641e-05
1.46439e-05
1.4647e-05
1.46502e-05
1.46536e-05
1.4657e-05
1.46606e-05
1.46643e-05
1.46682e-05
1.46722e-05
1.46763e-05
1.46805e-05
1.46849e-05
1.46894e-05
1.46939e-05
1.46986e-05
1.47033e-05
1.47082e-05
1.47131e-05
1.47182e-05
1.47233e-05
1.47285e-05
1.47339e-05
1.47393e-05
1.47449e-05
1.47506e-05
1.47564e-05
1.47623e-05
1.47682e-05
1.47742e-05
1.47803e-05
1.47865e-05
1.47927e-05
1.4799e-05
1.48054e-05
1.48119e-05
1.48185e-05
1.48253e-05
1.48321e-05
1.48392e-05
1.48465e-05
1.4854e-05
1.48617e-05
1.48696e-05
1.48778e-05
1.48862e-05
1.48948e-05
1.49037e-05
1.49129e-05
1.49223e-05
1.49319e-05
1.49417e-05
1.49518e-05
1.49622e-05
1.49727e-05
1.49835e-05
1.49945e-05
1.50058e-05
1.5017e-05
1.50283e-05
1.50394e-05
1.50297e-05
1.44637e-05
1.44398e-05
1.44154e-05
1.43915e-05
1.4368e-05
1.43441e-05
1.43207e-05
1.42978e-05
1.42748e-05
1.42519e-05
1.42299e-05
1.4208e-05
1.41862e-05
1.41651e-05
1.44681e-05
1.44694e-05
1.44707e-05
1.44719e-05
1.44732e-05
1.44744e-05
1.44756e-05
1.44768e-05
1.4478e-05
1.44792e-05
1.44804e-05
1.44816e-05
1.44828e-05
1.4484e-05
1.44852e-05
1.44864e-05
1.44876e-05
1.44888e-05
1.449e-05
1.44912e-05
1.44924e-05
1.44936e-05
1.44948e-05
1.44961e-05
1.44973e-05
1.44985e-05
1.44998e-05
1.4501e-05
1.45022e-05
1.45035e-05
1.45048e-05
1.4506e-05
1.45073e-05
1.45086e-05
1.45099e-05
1.45112e-05
1.45125e-05
1.45139e-05
1.45152e-05
1.45166e-05
1.4518e-05
1.45194e-05
1.45209e-05
1.45224e-05
1.45239e-05
1.45255e-05
1.4527e-05
1.45286e-05
1.45303e-05
1.45319e-05
1.45335e-05
1.45352e-05
1.45369e-05
1.45386e-05
1.45403e-05
1.4542e-05
1.45437e-05
1.45455e-05
1.45472e-05
1.4549e-05
1.45508e-05
1.45526e-05
1.45544e-05
1.45563e-05
1.45581e-05
1.456e-05
1.45619e-05
1.45638e-05
1.45657e-05
1.45677e-05
1.45696e-05
1.45717e-05
1.45737e-05
1.45758e-05
1.45778e-05
1.45799e-05
1.45819e-05
1.4584e-05
1.45861e-05
1.45882e-05
1.45903e-05
1.45924e-05
1.45946e-05
1.45968e-05
1.45991e-05
1.46013e-05
1.46036e-05
1.4606e-05
1.46084e-05
1.46108e-05
1.46133e-05
1.46159e-05
1.46185e-05
1.46212e-05
1.46239e-05
1.46267e-05
1.46296e-05
1.46325e-05
1.46355e-05
1.46385e-05
1.46416e-05
1.46448e-05
1.4648e-05
1.46513e-05
1.46547e-05
1.46581e-05
1.46616e-05
1.46652e-05
1.46688e-05
1.46725e-05
1.46763e-05
1.46801e-05
1.4684e-05
1.4688e-05
1.4692e-05
1.46962e-05
1.47003e-05
1.47046e-05
1.47089e-05
1.47133e-05
1.47178e-05
1.47223e-05
1.47269e-05
1.47317e-05
1.47365e-05
1.47415e-05
1.47465e-05
1.47517e-05
1.47571e-05
1.47626e-05
1.47682e-05
1.4774e-05
1.478e-05
1.47862e-05
1.47925e-05
1.4799e-05
1.48057e-05
1.48125e-05
1.48195e-05
1.48267e-05
1.4834e-05
1.48415e-05
1.48491e-05
1.48569e-05
1.48648e-05
1.48729e-05
1.48811e-05
1.48895e-05
1.4898e-05
1.49067e-05
1.49156e-05
1.49246e-05
1.49338e-05
1.49431e-05
1.49527e-05
1.49624e-05
1.49722e-05
1.49822e-05
1.49923e-05
1.50026e-05
1.5013e-05
1.50237e-05
1.50345e-05
1.50455e-05
1.50568e-05
1.50683e-05
1.508e-05
1.5092e-05
1.51042e-05
1.51167e-05
1.51296e-05
1.51427e-05
1.5156e-05
1.51697e-05
1.51837e-05
1.51979e-05
1.52124e-05
1.52272e-05
1.52423e-05
1.52577e-05
1.52733e-05
1.52892e-05
1.53053e-05
1.53217e-05
1.53385e-05
1.53554e-05
1.53727e-05
1.539e-05
1.54076e-05
1.54245e-05
1.54413e-05
1.54526e-05
1.54329e-05
1.45174e-05
1.44926e-05
1.44683e-05
1.44448e-05
1.4421e-05
1.43974e-05
1.43748e-05
1.43521e-05
1.43298e-05
1.43096e-05
1.42893e-05
1.42689e-05
1.42507e-05
1.42335e-05
1.45006e-05
1.45019e-05
1.45033e-05
1.45047e-05
1.4506e-05
1.45074e-05
1.45088e-05
1.45102e-05
1.45116e-05
1.45131e-05
1.45145e-05
1.45159e-05
1.45174e-05
1.45188e-05
1.45202e-05
1.45217e-05
1.45231e-05
1.45246e-05
1.45261e-05
1.45275e-05
1.4529e-05
1.45305e-05
1.4532e-05
1.45336e-05
1.45351e-05
1.45367e-05
1.45383e-05
1.45399e-05
1.45415e-05
1.45432e-05
1.45449e-05
1.45466e-05
1.45484e-05
1.45502e-05
1.4552e-05
1.45538e-05
1.45557e-05
1.45577e-05
1.45596e-05
1.45616e-05
1.45636e-05
1.45657e-05
1.45677e-05
1.45697e-05
1.45718e-05
1.45739e-05
1.4576e-05
1.45782e-05
1.45803e-05
1.45825e-05
1.45847e-05
1.4587e-05
1.45892e-05
1.45915e-05
1.45938e-05
1.45961e-05
1.45985e-05
1.46009e-05
1.46033e-05
1.46057e-05
1.46082e-05
1.46107e-05
1.46133e-05
1.46159e-05
1.46185e-05
1.46212e-05
1.46239e-05
1.46267e-05
1.46296e-05
1.46325e-05
1.46355e-05
1.46385e-05
1.46416e-05
1.46447e-05
1.46479e-05
1.46512e-05
1.46545e-05
1.46579e-05
1.46614e-05
1.46649e-05
1.46685e-05
1.46722e-05
1.46759e-05
1.46797e-05
1.46835e-05
1.46875e-05
1.46915e-05
1.46956e-05
1.46998e-05
1.47041e-05
1.47085e-05
1.4713e-05
1.47176e-05
1.47223e-05
1.47271e-05
1.47319e-05
1.47369e-05
1.4742e-05
1.47472e-05
1.47524e-05
1.47578e-05
1.47633e-05
1.47689e-05
1.47746e-05
1.47804e-05
1.47863e-05
1.47923e-05
1.47985e-05
1.48047e-05
1.48111e-05
1.48176e-05
1.48243e-05
1.48311e-05
1.4838e-05
1.4845e-05
1.48522e-05
1.48595e-05
1.48669e-05
1.48745e-05
1.48822e-05
1.48901e-05
1.48981e-05
1.49063e-05
1.49148e-05
1.49234e-05
1.49322e-05
1.49412e-05
1.49504e-05
1.49598e-05
1.49695e-05
1.49794e-05
1.49895e-05
1.49998e-05
1.50103e-05
1.5021e-05
1.50319e-05
1.50431e-05
1.50544e-05
1.5066e-05
1.50778e-05
1.50897e-05
1.51019e-05
1.51142e-05
1.51268e-05
1.51396e-05
1.51526e-05
1.51658e-05
1.51792e-05
1.51928e-05
1.52067e-05
1.52207e-05
1.5235e-05
1.52495e-05
1.52642e-05
1.52792e-05
1.52944e-05
1.53098e-05
1.53254e-05
1.53413e-05
1.53575e-05
1.53739e-05
1.53907e-05
1.54077e-05
1.5425e-05
1.54426e-05
1.54605e-05
1.54787e-05
1.54972e-05
1.55161e-05
1.55352e-05
1.55547e-05
1.55744e-05
1.55944e-05
1.56147e-05
1.56353e-05
1.56562e-05
1.56774e-05
1.56988e-05
1.57205e-05
1.57425e-05
1.57647e-05
1.57872e-05
1.581e-05
1.5833e-05
1.58564e-05
1.588e-05
1.59039e-05
1.59275e-05
1.59508e-05
1.5972e-05
1.59936e-05
1.5996e-05
1.59609e-05
1.45547e-05
1.45293e-05
1.45052e-05
1.4482e-05
1.44581e-05
1.44348e-05
1.44127e-05
1.43901e-05
1.43686e-05
1.43492e-05
1.43294e-05
1.43097e-05
1.42922e-05
1.45373e-05
1.4539e-05
1.45408e-05
1.45426e-05
1.45444e-05
1.45462e-05
1.4548e-05
1.45498e-05
1.45516e-05
1.45534e-05
1.45553e-05
1.45571e-05
1.4559e-05
1.45608e-05
1.45627e-05
1.45646e-05
1.45665e-05
1.45684e-05
1.45704e-05
1.45724e-05
1.45744e-05
1.45764e-05
1.45785e-05
1.45806e-05
1.45827e-05
1.45849e-05
1.45871e-05
1.45893e-05
1.45916e-05
1.4594e-05
1.45964e-05
1.45989e-05
1.46014e-05
1.4604e-05
1.46066e-05
1.46093e-05
1.4612e-05
1.46148e-05
1.46176e-05
1.46205e-05
1.46234e-05
1.46264e-05
1.46294e-05
1.46325e-05
1.46356e-05
1.46388e-05
1.4642e-05
1.46453e-05
1.46486e-05
1.46519e-05
1.46553e-05
1.46588e-05
1.46622e-05
1.46658e-05
1.46694e-05
1.4673e-05
1.46768e-05
1.46805e-05
1.46844e-05
1.46883e-05
1.46923e-05
1.46963e-05
1.47005e-05
1.47047e-05
1.4709e-05
1.47134e-05
1.47179e-05
1.47225e-05
1.47272e-05
1.4732e-05
1.47369e-05
1.47419e-05
1.47469e-05
1.47521e-05
1.47575e-05
1.47629e-05
1.47684e-05
1.47741e-05
1.47798e-05
1.47857e-05
1.47916e-05
1.47977e-05
1.4804e-05
1.48103e-05
1.48168e-05
1.48234e-05
1.48301e-05
1.4837e-05
1.4844e-05
1.48511e-05
1.48584e-05
1.48658e-05
1.48734e-05
1.48811e-05
1.4889e-05
1.4897e-05
1.49051e-05
1.49134e-05
1.49218e-05
1.49304e-05
1.49391e-05
1.4948e-05
1.49571e-05
1.49663e-05
1.49757e-05
1.49853e-05
1.4995e-05
1.50049e-05
1.5015e-05
1.50252e-05
1.50357e-05
1.50463e-05
1.50572e-05
1.50682e-05
1.50794e-05
1.50909e-05
1.51025e-05
1.51144e-05
1.51265e-05
1.51388e-05
1.51514e-05
1.51642e-05
1.51772e-05
1.51905e-05
1.52041e-05
1.52179e-05
1.5232e-05
1.52463e-05
1.52609e-05
1.52757e-05
1.52908e-05
1.53061e-05
1.53217e-05
1.53375e-05
1.53536e-05
1.53699e-05
1.53864e-05
1.54032e-05
1.54202e-05
1.54374e-05
1.54549e-05
1.54726e-05
1.54905e-05
1.55087e-05
1.55272e-05
1.55458e-05
1.55648e-05
1.55839e-05
1.56034e-05
1.5623e-05
1.56429e-05