/*--------------------------------*- C++ -*----------------------------------*\
| =========                 |                                                 |
| \\      /  F ield         | OpenFOAM: The Open Source CFD Toolbox           |
|  \\    /   O peration     | Version:  v1706                                 |
|   \\  /    A nd           | Web:      www.OpenFOAM.com                      |
|    \\/     M anipulation  |                                                 |
\*---------------------------------------------------------------------------*/
FoamFile
{
    version     2.0;
    format      ascii;
    class       volScalarField;
    location    "1.2e-05";
    object      rho;
}
// * * * * * * * * * * * * * * * * * * * * * * * * * * * * * * * * * * * * * //

dimensions      [1 -3 0 0 0 0 0];


internalField   nonuniform List<scalar> 
30104
(
0.00051165
0.000511648
0.000511644
0.000511641
0.000511636
0.000511631
0.000511625
0.000511619
0.000511612
0.000511605
0.000511598
0.00051159
0.000511582
0.000511573
0.000511565
0.000511556
0.000511547
0.000511507
0.000511508
0.000511509
0.00051151
0.000511512
0.000511513
0.000511514
0.000511515
0.000511517
0.000511518
0.000511519
0.00051152
0.000511521
0.000511523
0.000511524
0.000511525
0.000511526
0.000511528
0.000511529
0.00051153
0.000511532
0.000511533
0.000511534
0.000511536
0.000511537
0.000511539
0.000511541
0.000511542
0.000511544
0.000511546
0.000511547
0.000511549
0.000511551
0.000511553
0.000511555
0.000511558
0.00051156
0.000511562
0.000511565
0.000511567
0.00051157
0.000511572
0.000511575
0.000511578
0.000511581
0.000511584
0.000511587
0.00051159
0.000511593
0.000511597
0.0005116
0.000511603
0.000511607
0.00051161
0.000511614
0.000511618
0.000511622
0.000511626
0.00051163
0.000511634
0.000511638
0.000511642
0.000511646
0.00051165
0.000511654
0.000511659
0.000511663
0.000511667
0.000511672
0.000511676
0.000511681
0.000511685
0.00051169
0.000511694
0.000511699
0.000511703
0.000511708
0.000511712
0.000511717
0.000511721
0.000511725
0.00051173
0.000511734
0.000511738
0.000511743
0.000511747
0.000511751
0.000511755
0.000511759
0.000511763
0.000511766
0.00051177
0.000511774
0.000511777
0.000511781
0.000511785
0.000511788
0.000511791
0.000511795
0.000511798
0.000511801
0.000511805
0.000511808
0.000511811
0.000511815
0.000511818
0.000511821
0.000511825
0.000511828
0.000511832
0.000511835
0.000511839
0.000511843
0.000511847
0.000511851
0.000511854
0.000511858
0.000511863
0.000511867
0.000511871
0.000511875
0.00051188
0.000511885
0.000511889
0.000511894
0.000511899
0.000511904
0.000511909
0.000511914
0.00051192
0.000511925
0.000511931
0.000511937
0.000511943
0.000511949
0.000511955
0.000511961
0.000511968
0.000511974
0.000511981
0.000511988
0.000511995
0.000512003
0.00051201
0.000512018
0.000512025
0.000512033
0.000512041
0.00051205
0.000512058
0.000512066
0.000512075
0.000512084
0.000512093
0.000512102
0.000512111
0.00051212
0.000512129
0.000512138
0.000512147
0.000512157
0.000512166
0.000512176
0.000512185
0.000512195
0.000512204
0.000512214
0.000512223
0.000512233
0.000512243
0.000512252
0.000512262
0.000512272
0.000512282
0.000512292
0.000512302
0.000512312
0.000512323
0.000512334
0.000512344
0.000512355
0.000512367
0.000512378
0.00051239
0.000512402
0.000512415
0.000512428
0.000512441
0.000512455
0.000512469
0.000512483
0.000512492
0.000512431
0.000513309
0.000513296
0.000513279
0.000513258
0.000513235
0.000513208
0.000513178
0.000513146
0.000513111
0.000513074
0.000513035
0.000512994
0.000512951
0.000512908
0.000512863
0.000512817
0.000512771
0.000512622
0.000512634
0.000512647
0.000512661
0.000512674
0.000512688
0.000512702
0.000512716
0.000512731
0.000512746
0.000512761
0.000512776
0.000512792
0.000512808
0.000512824
0.00051284
0.000512857
0.000512874
0.000512892
0.000512909
0.000512927
0.000512945
0.000512964
0.000512982
0.000513001
0.00051302
0.00051304
0.000513059
0.000513079
0.000513099
0.000513119
0.000513139
0.000513159
0.00051318
0.0005132
0.000513221
0.000513242
0.000513263
0.000513284
0.000513305
0.000513326
0.000513347
0.000513368
0.000513389
0.000513411
0.000513432
0.000513453
0.000513475
0.000513497
0.000513518
0.00051354
0.000513562
0.000513584
0.000513606
0.000513628
0.000513651
0.000513674
0.000513696
0.000513719
0.000513743
0.000513766
0.00051379
0.000513814
0.000513839
0.000513863
0.000513888
0.000513914
0.00051394
0.000513966
0.000513992
0.000514019
0.000514046
0.000514074
0.000514102
0.00051413
0.000514159
0.000514188
0.000514218
0.000514248
0.000514279
0.00051431
0.000514341
0.000514373
0.000514406
0.000514439
0.000514473
0.000514507
0.000514542
0.000514577
0.000514613
0.000514649
0.000514687
0.000514724
0.000514763
0.000514802
0.000514841
0.000514881
0.000514922
0.000514964
0.000515006
0.000515049
0.000515093
0.000515138
0.000515183
0.000515229
0.000515276
0.000515324
0.000515372
0.000515422
0.000515472
0.000515523
0.000515575
0.000515628
0.000515682
0.000515737
0.000515793
0.00051585
0.000515908
0.000515968
0.000516028
0.00051609
0.000516153
0.000516218
0.000516283
0.00051635
0.000516419
0.000516489
0.00051656
0.000516633
0.000516707
0.000516783
0.00051686
0.000516939
0.00051702
0.000517101
0.000517185
0.000517269
0.000517355
0.000517442
0.000517531
0.000517621
0.000517711
0.000517803
0.000517896
0.00051799
0.000518084
0.00051818
0.000518275
0.000518372
0.000518469
0.000518566
0.000518663
0.000518761
0.000518859
0.000518957
0.000519055
0.000519153
0.000519252
0.00051935
0.000519448
0.000519546
0.000519645
0.000519743
0.000519842
0.000519941
0.000520041
0.000520141
0.000520241
0.000520343
0.000520445
0.000520549
0.000520653
0.000520759
0.000520866
0.000520974
0.000521084
0.000521195
0.000521309
0.000521424
0.000521541
0.00052166
0.000521781
0.000521904
0.000522029
0.000522157
0.000522287
0.000522419
0.000522554
0.000522691
0.00052283
0.000522972
0.000523127
0.000522905
0.000517521
0.000517487
0.000517442
0.000517386
0.000517318
0.00051724
0.000517151
0.000517053
0.000516946
0.00051683
0.000516708
0.000516579
0.000516444
0.000516305
0.000516163
0.000516017
0.000516061
0.000516113
0.000516165
0.000516217
0.00051627
0.000516323
0.000516377
0.000516431
0.000516486
0.000516541
0.000516597
0.000516653
0.00051671
0.000516768
0.000516826
0.000516885
0.000516944
0.000517004
0.000517065
0.000517126
0.000517188
0.000517251
0.000517315
0.000517379
0.000517445
0.000517511
0.000517578
0.000517646
0.000517715
0.000517786
0.000517857
0.000517929
0.000518003
0.000518077
0.000518153
0.00051823
0.000518309
0.000518389
0.000518471
0.000518554
0.000518638
0.000518725
0.000518813
0.000518902
0.000518994
0.000519087
0.000519183
0.00051928
0.000519379
0.000519481
0.000519584
0.00051969
0.000519798
0.000519908
0.00052002
0.000520135
0.000520252
0.000520371
0.000520493
0.000520617
0.000520744
0.000520873
0.000521005
0.000521139
0.000521276
0.000521415
0.000521556
0.000521701
0.000521847
0.000521996
0.000522148
0.000522302
0.000522459
0.000522618
0.000522779
0.000522943
0.00052311
0.000523278
0.000523449
0.000523622
0.000523798
0.000523976
0.000524155
0.000524337
0.000524521
0.000524706
0.000524894
0.000525083
0.000525273
0.000525465
0.000525658
0.000525852
0.000526047
0.000526243
0.00052644
0.000526638
0.000526837
0.000527036
0.000527236
0.000527438
0.000527639
0.000527842
0.000528047
0.000528252
0.000528459
0.000528667
0.000528878
0.00052909
0.000529305
0.000529522
0.000529742
0.000529965
0.000530191
0.000530421
0.000530655
0.000530892
0.000531134
0.000531379
0.00053163
0.000531885
0.000532145
0.000532411
0.000532681
0.000532957
0.000533239
0.000533526
0.00053382
0.000534119
0.000534425
0.000534737
0.000535055
0.00053538
0.000535712
0.000536051
0.000536396
0.000536749
0.000537108
0.000537476
0.00053785
0.000538232
0.000538622
0.000539019
0.000539425
0.000539838
0.000540259
0.000540689
0.000541127
0.000541573
0.000542028
0.000542491
0.000542962
0.000543442
0.00054393
0.000544427
0.000544932
0.000545446
0.000545967
0.000546497
0.000547035
0.000547581
0.000548134
0.000548695
0.000549264
0.00054984
0.000550423
0.000551013
0.00055161
0.000552214
0.000552825
0.000553443
0.000554068
0.0005547
0.00055534
0.000555986
0.000556641
0.000557302
0.000557973
0.000558652
0.000559341
0.000560038
0.000560747
0.000561465
0.000562198
0.000562941
0.0005637
0.000564473
0.000565262
0.000566072
0.000566892
0.000567754
0.00056857
0.000569766
0.000569499
0.000527577
0.00052749
0.000527373
0.000527229
0.000527057
0.000526858
0.000526636
0.00052639
0.000526124
0.000525839
0.000525536
0.000525218
0.000524886
0.000524542
0.000524187
0.000523825
0.000525404
0.000525581
0.000525761
0.000525945
0.000526132
0.000526324
0.000526519
0.000526719
0.000526922
0.00052713
0.000527343
0.000527559
0.000527781
0.000528007
0.000528237
0.000528473
0.000528713
0.000528958
0.000529208
0.000529463
0.000529723
0.000529988
0.000530258
0.000530533
0.000530813
0.000531098
0.000531387
0.000531682
0.000531981
0.000532286
0.000532594
0.000532908
0.000533225
0.000533547
0.000533874
0.000534204
0.000534537
0.000534875
0.000535216
0.00053556
0.000535908
0.000536258
0.000536611
0.000536967
0.000537326
0.000537687
0.00053805
0.000538416
0.000538785
0.000539156
0.00053953
0.000539906
0.000540286
0.000540669
0.000541055
0.000541445
0.000541838
0.000542236
0.000542638
0.000543044
0.000543455
0.000543872
0.000544294
0.000544722
0.000545157
0.000545598
0.000546046
0.000546501
0.000546964
0.000547436
0.000547916
0.000548405
0.000548903
0.000549412
0.00054993
0.000550459
0.000550998
0.000551549
0.000552112
0.000552686
0.000553273
0.000553873
0.000554485
0.000555111
0.00055575
0.000556402
0.000557069
0.00055775
0.000558446
0.000559156
0.000559881
0.000560621
0.000561377
0.000562148
0.000562935
0.000563738
0.000564557
0.000565393
0.000566247
0.000567118
0.000568006
0.000568913
0.000569839
0.000570783
0.000571747
0.00057273
0.000573734
0.000574758
0.000575803
0.00057687
0.000577959
0.00057907
0.000580205
0.000581365
0.000582548
0.000583758
0.000584994
0.000586258
0.000587549
0.000588871
0.000590223
0.000591607
0.000593025
0.000594478
0.000595968
0.000597498
0.000599068
0.000600681
0.000602341
0.000604048
0.000605806
0.000607618
0.000609486
0.000611414
0.000613404
0.000615459
0.000617584
0.00061978
0.00062205
0.000624399
0.000626829
0.000629342
0.000631942
0.000634632
0.000637413
0.000640288
0.00064326
0.00064633
0.000649499
0.00065277
0.000656142
0.000659618
0.000663197
0.000666881
0.000670668
0.000674559
0.000678554
0.000682651
0.000686851
0.000691152
0.000695553
0.000700053
0.000704651
0.000709345
0.000714135
0.000718999
0.000723896
0.000728825
0.000733786
0.000738784
0.000743815
0.000748889
0.000753998
0.000759157
0.000764352
0.000769606
0.000774895
0.000780257
0.000785646
0.000791128
0.000796621
0.000802238
0.000807834
0.000813603
0.000819294
0.000825233
0.000831008
0.00083714
0.00084297
0.000849332
0.000855258
0.000861508
0.000869412
0.000550565
0.000550354
0.000550075
0.000549727
0.00054931
0.000548827
0.000548278
0.000547668
0.000547003
0.000546287
0.000545528
0.000544729
0.000543898
0.000543041
0.000542164
0.000552024
0.000552609
0.000553202
0.000553802
0.000554409
0.000555023
0.000555645
0.000556275
0.000556912
0.000557557
0.000558211
0.000558872
0.000559542
0.000560221
0.000560909
0.000561606
0.000562313
0.000563029
0.000563755
0.000564492
0.000565239
0.000565998
0.000566767
0.000567548
0.000568342
0.000569148
0.000569966
0.000570798
0.000571643
0.000572503
0.000573377
0.000574266
0.000575171
0.000576091
0.000577029
0.000577984
0.000578956
0.000579947
0.000580958
0.000581989
0.000583041
0.000584114
0.000585211
0.000586331
0.000587476
0.000588647
0.000589845
0.000591071
0.000592326
0.000593612
0.000594929
0.000596279
0.000597664
0.000599085
0.000600543
0.000602039
0.000603577
0.000605156
0.000606779
0.000608447
0.000610163
0.000611927
0.000613741
0.000615608
0.000617529
0.000619505
0.00062154
0.000623635
0.000625791
0.000628011
0.000630298
0.000632652
0.000635077
0.000637574
0.000640146
0.000642796
0.000645524
0.000648334
0.000651228
0.000654208
0.000657276
0.000660434
0.000663683
0.000667025
0.000670462
0.000673993
0.00067762
0.000681343
0.000685162
0.000689076
0.000693084
0.000697186
0.000701381
0.000705667
0.000710041
0.000714504
0.000719052
0.000723685
0.0007284
0.000733196
0.00073807
0.00074302
0.000748045
0.000753142
0.000758296
0.000763476
0.000768676
0.000773898
0.000779142
0.000784408
0.000789698
0.000795013
0.000800353
0.00080572
0.000811116
0.000816542
0.000822
0.000827493
0.000833021
0.000838586
0.000844191
0.000849836
0.000855522
0.000861252
0.000867024
0.000872841
0.000878701
0.000884605
0.000890552
0.00089654
0.000902567
0.000908631
0.000914728
0.000920856
0.00092701
0.000933186
0.000939378
0.00094558
0.000951786
0.00095799
0.000964185
0.000970365
0.000976521
0.000982647
0.000988736
0.000994782
0.00100078
0.00100672
0.00101259
0.00101841
0.00102414
0.00102981
0.00103539
0.00104089
0.00104631
0.00105164
0.00105688
0.00106203
0.00106709
0.00107206
0.00107693
0.00108172
0.00108642
0.00109103
0.00109556
0.00110002
0.00110445
0.00110887
0.00111326
0.00111764
0.00112198
0.00112631
0.00113061
0.00113488
0.00113911
0.00114329
0.00114742
0.00115148
0.00115547
0.00115937
0.00116321
0.00116691
0.00117056
0.00117403
0.00117749
0.00118067
0.00118397
0.0011868
0.00118998
0.00119237
0.00119573
0.00119713
0.00120104
0.000602595
0.00060223
0.000601701
0.000601015
0.000600175
0.000599189
0.000598063
0.000596808
0.000595433
0.000593945
0.000592353
0.000590663
0.000588888
0.000587037
0.00058512
0.000583143
0.000618469
0.000620128
0.000621824
0.000623559
0.000625335
0.000627153
0.000629016
0.000630926
0.000632885
0.000634896
0.00063696
0.000639081
0.000641261
0.000643502
0.000645807
0.000648179
0.00065062
0.000653134
0.000655724
0.000658391
0.000661139
0.000663971
0.00066689
0.000669898
0.000672999
0.000676194
0.000679488
0.000682881
0.000686377
0.000689978
0.000693686
0.000697502
0.000701429
0.000705466
0.000709616
0.000713878
0.000718252
0.000722739
0.000727336
0.000732044
0.000736858
0.000741778
0.000746799
0.000751919
0.000757133
0.000762436
0.000767823
0.000773289
0.000778828
0.00078442
0.000790039
0.00079568
0.000801338
0.000807012
0.000812696
0.000818388
0.000824085
0.000829783
0.000835482
0.000841177
0.000846869
0.000852554
0.000858233
0.000863904
0.000869567
0.000875221
0.000880867
0.000886503
0.000892131
0.000897749
0.000903358
0.000908957
0.000914547
0.000920126
0.000925694
0.00093125
0.000936793
0.000942321
0.000947832
0.000953324
0.000958795
0.000964242
0.000969662
0.000975052
0.000980408
0.000985728
0.000991009
0.000996246
0.00100144
0.00100658
0.00101167
0.00101671
0.00102169
0.00102662
0.0010315
0.00103632
0.00104109
0.0010458
0.00105047
0.00105508
0.00105965
0.00106417
0.00106864
0.00107307
0.00107747
0.00108187
0.00108628
0.0010907
0.00109512
0.00109955
0.00110398
0.00110841
0.00111283
0.00111725
0.00112165
0.00112603
0.00113039
0.00113471
0.001139
0.00114324
0.00114742
0.00115155
0.0011556
0.00115958
0.00116347
0.00116726
0.00117096
0.00117454
0.00117801
0.00118135
0.00118457
0.00118766
0.00119062
0.00119343
0.00119612
0.00119866
0.00120107
0.00120334
0.00120547
0.00120748
0.00120936
0.00121111
0.00121275
0.00121429
0.00121572
0.00121705
0.0012183
0.00121946
0.00122055
0.00122158
0.00122254
0.00122344
0.0012243
0.00122511
0.00122587
0.0012266
0.0012273
0.00122797
0.00122862
0.00122925
0.00122987
0.00123048
0.00123108
0.00123167
0.00123226
0.00123284
0.00123343
0.00123401
0.0012346
0.00123519
0.00123581
0.00123648
0.00123711
0.00123771
0.00123827
0.00123879
0.00123929
0.00123973
0.00124016
0.00124056
0.00124095
0.0012413
0.00124166
0.00124198
0.00124233
0.00124264
0.00124299
0.00124329
0.00124366
0.00124397
0.00124436
0.00124466
0.0012447
0.000707882
0.000706985
0.000705714
0.000704118
0.000702204
0.000699968
0.000697422
0.000694585
0.000691472
0.000688108
0.000684534
0.000680784
0.000676881
0.000804667
0.000810372
0.000816128
0.000821931
0.000827777
0.000833661
0.000839578
0.000845524
0.000851494
0.000857482
0.000863484
0.000869493
0.000875506
0.000881517
0.000887521
0.000893513
0.000899488
0.000905441
0.000911368
0.000917264
0.000923124
0.000928944
0.000934721
0.000940448
0.000946124
0.000951743
0.000957302
0.000962798
0.000968226
0.000973583
0.000978867
0.000984073
0.0009892
0.000994245
0.000999206
0.00100408
0.00100887
0.00101357
0.00101817
0.00102269
0.00102712
0.00103147
0.00103572
0.0010399
0.00104399
0.001048
0.00105193
0.0010558
0.0010596
0.00106336
0.0010671
0.00107082
0.00107453
0.00107823
0.00108193
0.00108563
0.00108933
0.00109303
0.00109674
0.00110045
0.00110417
0.0011079
0.00111164
0.00111538
0.00111913
0.00112288
0.00112663
0.00113037
0.0011341
0.00113782
0.00114152
0.00114519
0.00114883
0.00115243
0.00115598
0.00115949
0.00116294
0.00116634
0.00116966
0.00117292
0.0011761
0.0011792
0.00118222
0.00118515
0.00118799
0.00119074
0.0011934
0.00119596
0.00119843
0.0012008
0.00120308
0.00120526
0.00120735
0.00120935
0.00121126
0.00121309
0.00121483
0.00121648
0.00121806
0.00121955
0.00122097
0.00122231
0.00122357
0.00122476
0.00122588
0.00122693
0.00122791
0.00122882
0.00122966
0.00123044
0.00123115
0.0012318
0.0012324
0.00123294
0.00123344
0.00123389
0.00123431
0.00123469
0.00123505
0.00123538
0.0012357
0.001236
0.00123629
0.00123657
0.00123684
0.0012371
0.00123737
0.00123763
0.00123789
0.00123815
0.00123841
0.00123867
0.00123896
0.00123925
0.00123954
0.00123983
0.00124011
0.0012404
0.00124069
0.00124099
0.0012413
0.00124161
0.00124193
0.00124226
0.00124261
0.00124296
0.00124332
0.00124369
0.00124407
0.00124445
0.00124484
0.00124522
0.0012456
0.00124598
0.00124636
0.00124674
0.00124713
0.0012475
0.00124787
0.00124823
0.00124857
0.00124891
0.00124923
0.00124953
0.00124982
0.00125008
0.00125032
0.00125053
0.00125072
0.00125088
0.00125097
0.00125094
0.00125087
0.00125078
0.00125066
0.00125052
0.00125036
0.00125018
0.00125
0.0012498
0.0012496
0.0012494
0.0012492
0.00124899
0.00124879
0.0012486
0.00124842
0.00124823
0.00124807
0.00124791
0.00124777
0.0012476
0.00124689
0.000915028
0.00091263
0.000909742
0.000906319
0.000902372
0.000897975
0.00089312
0.000887787
0.00088204
0.000875919
0.000869374
0.000862384
0.000855004
0.00106118
0.00106492
0.00106861
0.00107223
0.0010758
0.00107932
0.00108279
0.00108621
0.00108959
0.00109293
0.00109624
0.0010995
0.00110274
0.00110594
0.00110912
0.00111227
0.0011154
0.0011185
0.00112158
0.00112464
0.00112768
0.0011307
0.00113369
0.00113667
0.00113962
0.00114255
0.00114545
0.00114834
0.00115119
0.00115402
0.00115683
0.00115961
0.00116236
0.00116508
0.00116777
0.00117043
0.00117305
0.00117565
0.00117821
0.00118074
0.00118324
0.0011857
0.00118812
0.00119051
0.00119287
0.00119518
0.00119746
0.00119969
0.00120189
0.00120403
0.00120614
0.00120819
0.00121018
0.00121212
0.00121399
0.0012158
0.00121754
0.00121921
0.0012208
0.00122231
0.00122373
0.00122508
0.00122634
0.00122752
0.00122861
0.00122962
0.00123054
0.00123139
0.00123216
0.00123285
0.00123348
0.00123404
0.00123454
0.00123499
0.0012354
0.00123576
0.00123608
0.00123638
0.00123665
0.0012369
0.00123713
0.00123735
0.00123757
0.00123777
0.00123797
0.00123817
0.00123836
0.00123856
0.00123876
0.00123896
0.00123917
0.00123938
0.0012396
0.00123983
0.00124007
0.00124032
0.00124058
0.00124084
0.00124112
0.00124141
0.0012417
0.001242
0.00124231
0.00124262
0.00124294
0.00124326
0.00124358
0.00124389
0.00124419
0.00124449
0.00124478
0.00124506
0.00124533
0.00124559
0.00124584
0.00124609
0.00124632
0.00124654
0.00124674
0.00124691
0.00124707
0.00124721
0.00124732
0.00124741
0.00124748
0.00124753
0.00124756
0.00124757
0.00124757
0.00124756
0.00124753
0.00124749
0.00124743
0.00124735
0.00124727
0.00124719
0.00124711
0.00124705
0.00124698
0.00124693
0.00124688
0.00124684
0.00124681
0.00124679
0.00124677
0.00124675
0.00124674
0.00124674
0.00124673
0.00124672
0.00124671
0.00124671
0.00124671
0.00124671
0.00124672
0.00124671
0.00124669
0.00124666
0.00124661
0.00124655
0.00124646
0.00124636
0.00124623
0.00124608
0.00124589
0.00124568
0.00124542
0.00124512
0.00124479
0.00124441
0.00124398
0.00124353
0.00124307
0.00124261
0.00124214
0.00124166
0.00124119
0.00124071
0.00124023
0.00123976
0.00123929
0.00123881
0.00123835
0.00123788
0.00123742
0.00123695
0.00123649
0.00123601
0.00123555
0.00123505
0.00123455
0.00123402
0.0012321
0.00108693
0.00108412
0.001081
0.00107737
0.0010734
0.00106927
0.00106475
0.00105993
0.00105505
0.00104995
0.00104446
0.00103882
0.00103318
0.0010274
0.00118375
0.00118591
0.00118805
0.00119018
0.00119228
0.00119437
0.00119642
0.00119845
0.00120045
0.00120242
0.00120434
0.00120623
0.00120807
0.00120986
0.00121161
0.00121329
0.00121492
0.00121649
0.001218
0.00121945
0.00122083
0.00122214
0.00122338
0.00122456
0.00122567
0.00122671
0.00122769
0.00122861
0.00122946
0.00123026
0.00123099
0.00123168
0.00123231
0.00123289
0.00123343
0.00123393
0.00123439
0.00123481
0.0012352
0.00123556
0.0012359
0.00123621
0.0012365
0.00123678
0.00123703
0.00123728
0.00123752
0.00123775
0.00123797
0.00123818
0.00123839
0.0012386
0.00123881
0.00123901
0.00123922
0.00123942
0.00123963
0.00123983
0.00124004
0.00124025
0.00124047
0.00124068
0.0012409
0.00124112
0.00124134
0.00124156
0.00124178
0.00124199
0.0012422
0.0012424
0.0012426
0.00124279
0.00124297
0.00124315
0.00124332
0.00124348
0.00124364
0.0012438
0.00124395
0.0012441
0.00124423
0.00124436
0.00124447
0.00124458
0.00124468
0.00124477
0.00124485
0.00124492
0.00124499
0.00124505
0.00124511
0.00124517
0.00124522
0.00124527
0.00124532
0.00124537
0.00124541
0.00124546
0.0012455
0.00124555
0.00124558
0.00124562
0.00124565
0.00124568
0.0012457
0.00124571
0.00124572
0.00124573
0.00124574
0.00124575
0.00124577
0.00124578
0.00124578
0.00124578
0.00124576
0.00124572
0.00124566
0.00124559
0.00124549
0.00124537
0.00124523
0.00124508
0.0012449
0.00124471
0.0012445
0.00124427
0.00124404
0.00124379
0.00124353
0.00124327
0.00124299
0.00124272
0.00124243
0.00124216
0.00124189
0.00124163
0.00124137
0.00124112
0.00124087
0.00124063
0.00124039
0.00124015
0.00123991
0.00123966
0.00123941
0.00123915
0.00123888
0.0012386
0.0012383
0.00123798
0.00123765
0.0012373
0.00123692
0.00123652
0.00123609
0.00123563
0.00123515
0.00123464
0.0012341
0.00123354
0.00123295
0.00123232
0.00123166
0.00123097
0.00123026
0.00122951
0.00122874
0.00122795
0.00122713
0.00122631
0.00122548
0.00122465
0.00122382
0.00122298
0.00122214
0.00122129
0.00122044
0.00121958
0.00121872
0.00121784
0.00121695
0.00121605
0.00121514
0.0012142
0.00121326
0.00121227
0.00121129
0.00121025
0.00120924
0.00120812
0.00120698
0.00120571
0.00120146
0.00118814
0.00118522
0.00118172
0.00117818
0.00117488
0.00117123
0.00116749
0.00116406
0.00116019
0.0011558
0.00115159
0.00114731
0.00114252
0.00113744
0.00123277
0.00123324
0.00123368
0.00123408
0.00123445
0.00123478
0.00123509
0.00123537
0.00123563
0.00123586
0.00123608
0.00123629
0.00123648
0.00123666
0.00123683
0.001237
0.00123716
0.00123731
0.00123747
0.00123762
0.00123777
0.00123792
0.00123808
0.00123824
0.0012384
0.00123856
0.00123872
0.00123889
0.00123906
0.00123923
0.0012394
0.00123958
0.00123975
0.00123992
0.0012401
0.00124026
0.00124043
0.0012406
0.00124076
0.00124092
0.00124107
0.00124123
0.00124139
0.00124154
0.00124169
0.00124183
0.00124197
0.00124211
0.00124223
0.00124236
0.00124247
0.00124258
0.00124267
0.00124277
0.00124285
0.00124293
0.001243
0.00124306
0.00124312
0.00124317
0.00124322
0.00124326
0.00124329
0.00124332
0.00124334
0.00124336
0.00124338
0.0012434
0.00124342
0.00124343
0.00124345
0.00124347
0.0012435
0.00124352
0.00124354
0.00124356
0.00124358
0.00124358
0.00124357
0.00124355
0.00124352
0.00124348
0.00124343
0.00124336
0.00124329
0.00124322
0.00124313
0.00124304
0.00124294
0.00124283
0.00124272
0.00124261
0.00124249
0.00124237
0.00124224
0.00124211
0.00124198
0.00124184
0.0012417
0.00124155
0.00124139
0.00124123
0.00124106
0.00124088
0.00124069
0.0012405
0.00124029
0.00124007
0.00123984
0.00123959
0.00123933
0.00123904
0.00123873
0.00123839
0.00123804
0.00123766
0.00123727
0.00123686
0.00123643
0.00123599
0.00123553
0.00123506
0.00123457
0.00123408
0.00123358
0.00123307
0.00123256
0.00123204
0.00123152
0.001231
0.00123047
0.00122994
0.00122942
0.00122889
0.00122836
0.00122782
0.00122727
0.00122671
0.00122614
0.00122556
0.00122496
0.00122434
0.00122369
0.00122303
0.00122234
0.00122163
0.00122088
0.00122011
0.00121932
0.00121849
0.00121764
0.00121675
0.00121584
0.0012149
0.00121392
0.00121292
0.00121189
0.00121083
0.00120975
0.00120863
0.00120749
0.00120632
0.00120514
0.00120393
0.00120271
0.00120147
0.00120022
0.00119895
0.00119768
0.0011964
0.0011951
0.00119379
0.00119247
0.00119113
0.00118977
0.0011884
0.001187
0.00118558
0.00118413
0.00118266
0.00118116
0.00117963
0.00117807
0.00117648
0.00117487
0.00117321
0.00117156
0.00116983
0.00116811
0.00116621
0.00116418
0.00116178
0.00115408
0.0011998
0.00119626
0.00119298
0.00119029
0.00118733
0.00118437
0.00118186
0.00117891
0.00117599
0.00117421
0.00117218
0.00116945
0.00116784
0.00116671
0.00123807
0.00123823
0.00123838
0.00123853
0.00123867
0.00123881
0.00123894
0.00123906
0.00123918
0.00123929
0.0012394
0.0012395
0.00123959
0.00123967
0.00123975
0.00123982
0.00123989
0.00123996
0.00124002
0.00124007
0.00124012
0.00124018
0.00124023
0.00124028
0.00124032
0.00124037
0.00124042
0.00124047
0.00124052
0.00124056
0.00124061
0.00124067
0.00124072
0.00124077
0.00124083
0.00124089
0.00124095
0.00124101
0.00124108
0.00124114
0.00124121
0.00124127
0.00124133
0.00124138
0.00124142
0.00124145
0.00124147
0.00124148
0.00124148
0.00124147
0.00124145
0.00124142
0.00124139
0.00124134
0.00124128
0.00124121
0.00124113
0.00124105
0.00124096
0.00124086
0.00124075
0.00124064
0.00124053
0.0012404
0.00124028
0.00124015
0.00124002
0.00123988
0.00123974
0.0012396
0.00123945
0.00123929
0.00123912
0.00123895
0.00123876
0.00123856
0.00123835
0.00123813
0.0012379
0.00123766
0.00123741
0.00123716
0.00123689
0.00123662
0.00123633
0.00123604
0.00123575
0.00123544
0.00123513
0.0012348
0.00123447
0.00123413
0.00123378
0.00123342
0.00123305
0.00123267
0.00123228
0.00123187
0.00123145
0.00123102
0.00123057
0.0012301
0.00122962
0.00122912
0.0012286
0.00122807
0.00122751
0.00122693
0.00122633
0.00122571
0.00122506
0.0012244
0.00122372
0.00122302
0.0012223
0.00122157
0.00122082
0.00122006
0.00121928
0.00121849
0.00121769
0.00121688
0.00121606
0.00121523
0.00121439
0.00121354
0.00121268
0.00121182
0.00121094
0.00121005
0.00120915
0.00120823
0.0012073
0.00120635
0.00120537
0.00120438
0.00120335
0.00120231
0.00120123
0.00120013
0.001199
0.00119783
0.00119664
0.00119541
0.00119416
0.00119288
0.00119156
0.00119021
0.00118884
0.00118744
0.001186
0.00118454
0.00118305
0.00118153
0.00117999
0.00117842
0.00117683
0.00117521
0.00117357
0.00117192
0.00117024
0.00116855
0.00116684
0.00116512
0.00116338
0.00116162
0.00115985
0.00115806
0.00115625
0.00115442
0.00115257
0.0011507
0.00114881
0.00114689
0.00114495
0.00114298
0.00114099
0.00113898
0.00113694
0.00113487
0.00113279
0.00113068
0.00112855
0.00112639
0.00112423
0.00112205
0.00111986
0.0011176
0.00111528
0.00111268
0.00110962
0.00110586
0.00109411
0.00119936
0.00119563
0.00119245
0.00118994
0.00118697
0.0011841
0.00118176
0.00117878
0.00117601
0.00117455
0.00117264
0.00117019
0.00116908
0.00123864
0.0012387
0.00123876
0.00123883
0.00123889
0.00123895
0.001239
0.00123905
0.0012391
0.00123913
0.00123915
0.00123917
0.00123918
0.00123918
0.00123918
0.00123917
0.00123915
0.00123913
0.0012391
0.00123906
0.00123902
0.00123898
0.00123894
0.00123889
0.00123884
0.00123879
0.00123873
0.00123868
0.00123862
0.00123857
0.00123851
0.00123845
0.0012384
0.00123834
0.00123828
0.00123821
0.00123814
0.00123807
0.00123799
0.00123789
0.00123779
0.00123768
0.00123755
0.00123742
0.00123727
0.00123712
0.00123695
0.00123678
0.00123659
0.00123639
0.00123618
0.00123596
0.00123573
0.00123549
0.00123524
0.00123498
0.00123471
0.00123443
0.00123414
0.00123385
0.00123354
0.00123323
0.0012329
0.00123257
0.00123223
0.00123189
0.00123153
0.00123116
0.00123079
0.0012304
0.00123
0.00122959
0.00122917
0.00122873
0.00122829
0.00122784
0.00122738
0.00122691
0.00122642
0.00122593
0.00122542
0.00122491
0.00122438
0.00122383
0.00122328
0.00122271
0.00122212
0.00122152
0.00122091
0.00122028
0.00121963
0.00121896
0.00121828
0.00121757
0.00121685
0.00121611
0.00121534
0.00121456
0.00121376
0.00121293
0.00121209
0.00121122
0.00121033
0.00120942
0.00120849
0.00120754
0.00120656
0.00120557
0.00120456
0.00120352
0.00120247
0.0012014
0.00120031
0.0011992
0.00119808
0.00119694
0.00119579
0.00119462
0.00119344
0.00119224
0.00119103
0.00118981
0.00118857
0.00118731
0.00118604
0.00118474
0.00118343
0.0011821
0.00118074
0.00117936
0.00117796
0.00117653
0.00117507
0.00117358
0.00117206
0.00117051
0.00116893
0.00116732
0.00116568
0.00116401
0.00116231
0.00116058
0.00115882
0.00115703
0.00115522
0.00115338
0.00115151
0.00114962
0.00114771
0.00114577
0.00114381
0.00114183
0.00113983
0.00113781
0.00113578
0.00113373
0.00113167
0.0011296
0.00112751
0.00112541
0.0011233
0.00112117
0.00111904
0.00111689
0.00111473
0.00111255
0.00111037
0.00110816
0.00110595
0.00110372
0.00110147
0.00109921
0.00109694
0.00109465
0.00109235
0.00109003
0.0010877
0.00108536
0.001083
0.00108063
0.00107826
0.00107587
0.00107348
0.00107109
0.0010687
0.0010663
0.00106387
0.00106132
0.00105855
0.00105524
0.00105112
0.00104579
0.00102985
0.00119446
0.00119038
0.00118781
0.00118563
0.00118259
0.00118009
0.001178
0.00117506
0.00117287
0.00117173
0.00116986
0.00116783
0.00116708
0.0012368
0.00123674
0.00123668
0.0012366
0.00123652
0.00123643
0.00123632
0.00123621
0.0012361
0.00123597
0.00123584
0.0012357
0.00123556
0.00123541
0.00123525
0.00123509
0.00123493
0.00123475
0.00123458
0.0012344
0.00123422
0.00123403
0.00123384
0.00123365
0.00123345
0.00123325
0.00123305
0.00123284
0.00123262
0.0012324
0.00123217
0.00123193
0.00123168
0.00123143
0.00123116
0.00123088
0.00123058
0.00123028
0.00122997
0.00122964
0.0012293
0.00122895
0.00122858
0.00122821
0.00122782
0.00122741
0.00122699
0.00122656
0.00122612
0.00122566
0.00122519
0.00122471
0.00122421
0.0012237
0.00122318
0.00122265
0.0012221
0.00122155
0.00122098
0.00122039