/*--------------------------------*- C++ -*----------------------------------*\
| =========                 |                                                 |
| \\      /  F ield         | OpenFOAM: The Open Source CFD Toolbox           |
|  \\    /   O peration     | Version:  v1706                                 |
|   \\  /    A nd           | Web:      www.OpenFOAM.com                      |
|    \\/     M anipulation  |                                                 |
\*---------------------------------------------------------------------------*/
FoamFile
{
    version     2.0;
    format      ascii;
    class       volScalarField;
    location    "1.2e-05";
    object      Tt;
}
// * * * * * * * * * * * * * * * * * * * * * * * * * * * * * * * * * * * * * //

dimensions      [0 0 0 1 0 0 0];


internalField   nonuniform List<scalar> 
30104
(
144.548
144.547
144.545
144.543
144.541
144.538
144.536
144.533
144.53
144.527
144.524
144.52
144.517
144.513
144.51
144.506
144.502
144.481
144.482
144.483
144.483
144.484
144.485
144.485
144.486
144.487
144.487
144.488
144.489
144.489
144.49
144.491
144.491
144.492
144.493
144.494
144.494
144.495
144.496
144.497
144.497
144.498
144.499
144.5
144.5
144.501
144.502
144.503
144.504
144.505
144.505
144.506
144.507
144.508
144.509
144.51
144.511
144.512
144.513
144.514
144.515
144.516
144.516
144.517
144.518
144.52
144.521
144.522
144.523
144.524
144.525
144.526
144.527
144.528
144.529
144.53
144.532
144.533
144.534
144.535
144.536
144.538
144.539
144.54
144.542
144.543
144.544
144.546
144.547
144.548
144.55
144.551
144.553
144.554
144.556
144.557
144.559
144.56
144.562
144.563
144.565
144.566
144.568
144.569
144.571
144.572
144.574
144.575
144.577
144.578
144.58
144.582
144.583
144.585
144.586
144.588
144.589
144.591
144.593
144.594
144.596
144.597
144.599
144.601
144.602
144.604
144.606
144.607
144.609
144.611
144.613
144.614
144.616
144.618
144.62
144.622
144.624
144.626
144.628
144.63
144.632
144.635
144.637
144.639
144.641
144.644
144.646
144.649
144.651
144.654
144.656
144.659
144.662
144.665
144.667
144.67
144.673
144.676
144.679
144.682
144.685
144.688
144.692
144.695
144.698
144.701
144.705
144.708
144.711
144.715
144.718
144.722
144.725
144.728
144.732
144.735
144.739
144.742
144.745
144.749
144.752
144.755
144.759
144.762
144.765
144.769
144.772
144.775
144.779
144.782
144.786
144.789
144.792
144.796
144.799
144.803
144.806
144.81
144.813
144.817
144.821
144.825
144.828
144.832
144.836
144.84
144.844
144.848
144.844
144.783
145.242
145.234
145.225
145.215
145.203
145.19
145.176
145.16
145.144
145.127
145.109
145.091
145.072
145.052
145.032
145.012
144.992
144.928
144.933
144.938
144.943
144.948
144.953
144.958
144.963
144.969
144.974
144.979
144.985
144.99
144.996
145.002
145.008
145.013
145.019
145.025
145.031
145.038
145.044
145.05
145.057
145.063
145.07
145.076
145.083
145.09
145.096
145.103
145.11
145.117
145.124
145.131
145.139
145.146
145.153
145.161
145.168
145.175
145.183
145.191
145.198
145.206
145.214
145.222
145.23
145.238
145.246
145.254
145.262
145.27
145.279
145.288
145.296
145.305
145.314
145.323
145.332
145.341
145.351
145.36
145.37
145.38
145.39
145.4
145.41
145.421
145.431
145.442
145.453
145.464
145.476
145.487
145.499
145.51
145.522
145.534
145.547
145.559
145.572
145.585
145.597
145.611
145.624
145.637
145.651
145.664
145.678
145.692
145.706
145.72
145.734
145.749
145.763
145.778
145.792
145.807
145.822
145.837
145.852
145.867
145.882
145.898
145.914
145.929
145.945
145.961
145.978
145.994
146.011
146.028
146.045
146.062
146.08
146.098
146.116
146.135
146.154
146.173
146.192
146.212
146.233
146.253
146.275
146.296
146.318
146.341
146.364
146.387
146.411
146.436
146.461
146.486
146.512
146.539
146.566
146.594
146.622
146.65
146.68
146.709
146.739
146.77
146.801
146.833
146.865
146.897
146.93
146.963
146.997
147.031
147.065
147.099
147.134
147.168
147.203
147.238
147.273
147.309
147.344
147.379
147.414
147.449
147.485
147.52
147.555
147.59
147.626
147.661
147.696
147.732
147.767
147.803
147.839
147.875
147.911
147.948
147.985
148.022
148.059
148.097
148.135
148.174
148.213
148.253
148.293
148.333
148.375
148.419
148.415
148.112
146.899
146.877
146.851
146.821
146.787
146.75
146.709
146.664
146.617
146.567
146.515
146.461
146.405
146.348
146.29
146.231
146.201
146.22
146.239
146.258
146.278
146.297
146.317
146.337
146.358
146.378
146.399
146.421
146.442
146.464
146.486
146.509
146.531
146.555
146.578
146.602
146.626
146.65
146.675
146.7
146.725
146.751
146.777
146.803
146.83
146.857
146.884
146.912
146.94
146.968
146.997
147.026
147.055
147.085
147.115
147.145
147.176
147.207
147.238
147.27
147.302
147.334
147.367
147.4
147.434
147.468
147.502
147.537
147.573
147.608
147.645
147.682
147.719
147.757
147.795
147.835
147.874
147.915
147.956
147.997
148.04
148.083
148.127
148.171
148.217
148.263
148.31
148.358
148.406
148.456
148.506
148.557
148.609
148.662
148.715
148.77
148.826
148.882
148.939
148.997
149.056
149.116
149.176
149.238
149.3
149.362
149.426
149.49
149.555
149.62
149.686
149.752
149.819
149.887
149.954
150.023
150.091
150.16
150.23
150.3
150.37
150.441
150.512
150.584
150.656
150.729
150.803
150.877
150.952
151.028
151.105
151.182
151.261
151.34
151.421
151.503
151.586
151.67
151.756
151.843
151.932
152.023
152.115
152.208
152.304
152.402
152.501
152.603
152.707
152.813
152.921
153.032
153.145
153.261
153.38
153.501
153.625
153.752
153.881
154.014
154.149
154.288
154.429
154.573
154.721
154.871
155.024
155.18
155.339
155.501
155.666
155.833
156.002
156.174
156.349
156.525
156.703
156.883
157.065
157.247
157.431
157.614
157.798
157.982
158.167
158.351
158.536
158.721
158.906
159.091
159.276
159.462
159.648
159.834
160.021
160.208
160.396
160.583
160.772
160.961
161.151
161.342
161.534
161.728
161.921
162.119
162.315
162.434
161.61
150.621
150.567
150.504
150.43
150.346
150.254
150.154
150.046
149.931
149.809
149.683
149.551
149.416
149.278
149.137
148.994
149.588
149.648
149.709
149.771
149.833
149.897
149.961
150.027
150.093
150.161
150.229
150.299
150.369
150.441
150.514
150.588
150.663
150.74
150.818
150.897
150.977
151.059
151.142
151.226
151.311
151.398
151.487
151.576
151.667
151.759
151.853
151.948
152.044
152.142
152.241
152.341
152.442
152.544
152.648
152.753
152.859
152.966
153.075
153.184
153.294
153.406
153.518
153.631
153.746
153.861
153.977
154.095
154.214
154.333
154.455
154.577
154.701
154.826
154.953
155.081
155.212
155.343
155.477
155.613
155.75
155.89
156.031
156.176
156.322
156.471
156.622
156.776
156.933
157.093
157.255
157.421
157.589
157.761
157.936
158.114
158.296
158.481
158.669
158.861
159.057
159.256
159.458
159.664
159.873
160.086
160.302
160.522
160.744
160.97
161.199
161.431
161.666
161.904
162.145
162.388
162.634
162.883
163.133
163.386
163.64
163.896
164.153
164.411
164.671
164.933
165.196
165.461
165.727
165.996
166.266
166.538
166.812
167.089
167.367
167.648
167.932
168.218
168.507
168.799
169.094
169.393
169.696
170.002
170.313
170.628
170.948
171.273
171.604
171.94
172.283
172.632
172.988
173.351
173.721
174.1
174.487
174.882
175.286
175.7
176.123
176.556
176.999
177.452
177.916
178.391
178.876
179.373
179.88
180.398
180.928
181.468
182.02
182.582
183.155
183.739
184.333
184.938
185.553
186.178
186.814
187.457
188.098
188.737
189.373
190.008
190.64
191.27
191.897
192.522
193.144
193.764
194.38
194.996
195.606
196.217
196.82
197.427
198.023
198.627
199.213
199.814
200.39
200.99
201.551
202.155
202.7
203.328
202.62
158.298
158.177
158.034
157.871
157.688
157.487
157.268
157.033
156.783
156.521
156.246
155.962
155.669
155.37
155.065
157.915
158.082
158.251
158.421
158.594
158.769
158.945
159.124
159.305
159.488
159.674
159.862
160.052
160.245
160.441
160.64
160.841
161.045
161.252
161.463
161.676
161.892
162.112
162.336
162.562
162.792
163.026
163.263
163.504
163.748
163.996
164.248
164.503
164.762
165.025
165.292
165.562
165.836
166.114
166.395
166.679
166.968
167.259
167.554
167.853
168.154
168.459
168.767
169.077
169.39
169.705
170.023
170.343
170.667
170.993
171.322
171.653
171.989
172.327
172.669
173.014
173.363
173.716
174.073
174.435
174.8
175.17
175.545
175.925
176.31
176.701
177.097
177.499
177.906
178.32
178.741
179.168
179.601
180.042
180.49
180.946
181.409
181.88
182.358
182.844
183.338
183.84
184.35
184.867
185.392
185.924
186.464
187.011
187.565
188.125
188.692
189.265
189.845
190.43
191.021
191.617
192.219
192.825
193.437
194.052
194.664
195.273
195.878
196.48
197.077
197.67
198.259
198.843
199.422
199.997
200.567
201.131
201.691
202.246
202.795
203.339
203.877
204.411
204.938
205.461
205.977
206.489
206.994
207.494
207.988
208.477
208.96
209.436
209.907
210.371
210.829
211.281
211.726
212.165
212.596
213.021
213.438
213.848
214.25
214.646
215.033
215.413
215.785
216.15
216.507
216.857
217.199
217.534
217.861
218.181
218.494
218.8
219.098
219.39
219.675
219.952
220.223
220.486
220.742
220.99
221.231
221.467
221.698
221.923
222.144
222.36
222.57
222.776
222.976
223.17
223.357
223.539
223.712
223.879
224.037
224.188
224.328
224.463
224.584
224.704
224.803
224.91
224.984
225.084
225.127
225.224
225.206
224.784
172.381
172.177
171.934
171.655
171.341
170.994
170.614
170.205
169.768
169.306
168.822
168.316
167.792
167.252
166.7
166.136
175.037
175.399
175.763
176.129
176.499
176.872
177.248
177.627
178.01
178.396
178.785
179.179
179.576
179.978
180.384
180.794
181.209
181.629
182.054
182.484
182.919
183.36
183.807
184.259
184.718
185.183
185.654
186.131
186.615
187.106
187.603
188.107
188.618
189.135
189.659
190.19
190.726
191.269
191.818
192.373
192.933
193.498
194.068
194.643
195.221
195.803
196.389
196.977
197.568
198.16
198.749
199.334
199.914
200.491
201.062
201.629
202.19
202.745
203.295
203.838
204.375
204.905
205.429
205.945
206.455
206.957
207.452
207.939
208.419
208.892
209.357
209.815
210.265
210.708
211.143
211.57
211.991
212.403
212.809
213.206
213.597
213.98
214.355
214.723
215.083
215.436
215.781
216.119
216.449
216.772
217.088
217.396
217.697
217.991
218.278
218.558
218.832
219.1
219.361
219.616
219.865
220.109
220.346
220.577
220.802
221.024
221.243
221.457
221.669
221.877
222.081
222.283
222.48
222.674
222.865
223.052
223.235
223.415
223.59
223.761
223.927
224.089
224.246
224.398
224.545
224.687
224.822
224.952
225.077
225.195
225.307
225.413
225.514
225.608
225.696
225.779
225.856
225.928
225.995
226.056
226.113
226.166
226.214
226.259
226.301
226.34
226.376
226.41
226.442
226.472
226.501
226.529
226.556
226.581
226.606
226.63
226.654
226.677
226.7
226.722
226.744
226.766
226.788
226.81
226.832
226.854
226.876
226.899
226.922
226.946
226.973
227.004
227.034
227.062
227.089
227.114
227.138
227.16
227.18
227.199
227.218
227.236
227.254
227.27
227.288
227.304
227.324
227.341
227.363
227.381
227.408
227.42
227.283
192.429
192.075
191.675
191.228
190.737
190.203
189.627
189.012
188.359
187.672
186.953
186.205
185.432
201.222
201.765
202.306
202.843
203.377
203.908
204.435
204.957
205.475
205.988
206.496
206.998
207.495
207.985
208.47
208.947
209.418
209.882
210.338
210.787
211.229
211.663
212.089
212.507
212.916
213.318
213.712
214.097
214.473
214.842
215.201
215.552
215.895
216.229
216.555
216.872
217.18
217.48
217.772
218.055
218.33
218.597
218.855
219.106
219.349
219.584
219.811
220.03
220.243
220.448
220.648
220.843
221.033
221.218
221.4
221.577
221.75
221.919
222.085
222.248
222.408
222.565
222.719
222.871
223.021
223.168
223.313
223.455
223.596
223.734
223.87
224.004
224.136
224.265
224.392
224.517
224.638
224.758
224.874
224.988
225.099
225.207
225.312
225.415
225.514
225.61
225.703
225.793
225.881
225.965
226.046
226.124
226.199
226.272
226.342
226.409
226.474
226.536
226.595
226.652
226.707
226.759
226.808
226.855
226.899
226.941
226.981
227.018
227.053
227.086
227.116
227.144
227.171
227.195
227.218
227.24
227.26
227.28
227.299
227.317
227.335
227.352
227.37
227.387
227.405
227.422
227.44
227.458
227.476
227.494
227.512
227.53
227.55
227.571
227.592
227.612
227.633
227.654
227.675
227.696
227.719
227.742
227.765
227.79
227.816
227.844
227.872
227.902
227.934
227.968
228.003
228.039
228.077
228.117
228.158
228.202
228.248
228.295
228.342
228.391
228.439
228.489
228.539
228.59
228.641
228.692
228.744
228.796
228.848
228.9
228.95
228.991
229.031
229.07
229.108
229.146
229.183
229.22
229.258
229.296
229.335
229.376
229.418
229.463
229.51
229.559
229.611
229.666
229.724
229.785
229.849
229.927
229.859
212.806
212.323
211.806
211.256
210.673
210.06
209.417
208.741
208.036
207.303
206.54
205.747
204.926
220.181
220.389
220.592
220.789
220.98
221.166
221.346
221.521
221.692
221.857
222.018
222.175
222.327
222.476
222.621
222.762
222.9
223.034
223.166
223.294
223.42
223.543
223.664
223.782
223.897
224.011
224.122
224.23
224.337
224.441
224.544
224.644
224.742
224.838
224.932
225.024
225.114
225.202
225.289
225.373
225.455
225.535
225.614
225.69
225.765
225.838
225.91
225.98
226.048
226.115
226.181
226.245
226.308
226.369
226.429
226.488
226.545
226.6
226.654
226.707
226.757
226.806
226.853
226.898
226.941
226.982
227.022
227.059
227.095
227.128
227.161
227.192
227.221
227.249
227.277
227.303
227.329
227.355
227.38
227.405
227.429
227.454
227.478
227.503
227.527
227.552
227.576
227.601
227.626
227.651
227.676
227.701
227.727
227.753
227.779
227.805
227.832
227.859
227.886
227.914
227.942
227.97
227.999
228.029
228.058
228.089
228.119
228.15
228.181
228.212
228.244
228.276
228.308
228.341
228.376
228.411
228.446
228.481
228.516
228.551
228.586
228.62
228.654
228.687
228.72
228.753
228.786
228.819
228.851
228.884
228.918
228.951
228.985
229.018
229.052
229.087
229.123
229.161
229.201
229.243
229.286
229.332
229.38
229.429
229.481
229.535
229.591
229.648
229.707
229.767
229.828
229.89
229.954
230.018
230.082
230.145
230.208
230.273
230.339
230.407
230.477
230.547
230.619
230.691
230.763
230.836
230.909
230.982
231.054
231.125
231.196
231.266
231.339
231.415
231.492
231.572
231.656
231.742
231.832
231.925
232.022
232.123
232.228
232.337
232.45
232.567
232.689
232.814
232.944
233.076
233.21
233.366
233.263
223.229
222.738
222.236
221.72
221.198
220.675
220.141
219.602
219.063
218.52
217.97
217.419
216.87
216.319
225.419
225.491
225.561
225.629
225.697
225.763
225.828
225.892
225.955
226.017
226.078
226.137
226.196
226.253
226.309
226.364
226.417
226.47
226.521
226.57
226.618
226.665
226.71
226.753
226.795
226.836
226.875
226.912
226.948
226.983
227.016
227.047
227.078
227.107
227.136
227.163
227.19
227.216
227.241
227.266
227.291
227.315
227.339
227.363
227.387
227.411
227.436
227.461
227.486
227.511
227.537
227.563
227.589
227.616
227.644
227.671
227.699
227.727
227.756
227.784
227.813
227.842
227.872
227.901
227.931
227.961
227.991
228.021
228.051
228.081
228.112
228.142
228.172
228.203
228.234
228.265
228.298
228.33
228.363
228.396
228.429
228.463
228.496
228.529
228.562
228.596
228.629
228.663
228.697
228.732
228.766
228.802
228.837
228.874
228.911
228.948
228.987
229.026
229.066
229.107
229.149
229.192
229.235
229.279
229.324
229.369
229.415
229.462
229.509
229.558
229.607
229.656
229.706
229.755
229.802
229.85
229.898
229.947
229.996
230.046
230.097
230.147
230.199
230.251
230.304
230.357
230.412
230.468
230.525
230.583
230.643
230.704
230.767
230.832
230.901
230.971
231.045
231.122
231.201
231.283
231.368
231.455
231.546
231.638
231.733
231.83
231.93
232.031
232.134
232.24
232.347
232.456
232.568
232.682
232.798
232.917
233.039
233.162
233.287
233.414
233.543
233.673
233.804
233.937
234.072
234.209
234.347
234.488
234.632
234.779
234.93
235.085
235.245
235.41
235.58
235.755
235.934
236.12
236.31
236.505
236.706
236.912
237.123
237.339
237.561
237.787
238.019
238.255
238.498
238.738
238.979
239.219
239.009
226.947
226.441
225.925
225.418
224.92
224.417
223.92
223.438
222.951
222.468
222.003
221.541
221.083
220.637
227.032
227.06
227.088
227.114
227.141
227.167
227.193
227.219
227.244
227.269
227.294
227.32
227.345
227.37
227.395
227.421
227.446
227.472
227.497
227.523
227.549
227.574
227.6
227.626
227.652
227.678
227.705
227.731
227.757
227.784
227.811
227.838
227.865
227.892
227.92
227.947
227.975
228.004
228.032
228.062
228.091
228.122
228.153
228.185
228.217
228.25
228.283
228.317
228.351
228.386
228.421
228.456
228.492
228.528
228.564
228.6
228.637
228.674
228.712
228.75
228.788
228.826
228.865
228.904
228.943
228.983
229.023
229.063
229.104
229.146
229.188
229.231
229.274
229.318
229.362
229.406
229.449
229.492
229.536
229.581
229.626
229.672
229.718
229.765
229.813
229.861
229.91
229.96
230.011
230.063
230.116
230.17
230.226
230.283
230.341
230.4
230.461
230.523
230.587
230.652
230.718
230.785
230.854
230.924
230.996
231.069
231.143
231.219
231.297
231.376
231.456
231.537
231.62
231.704
231.79
231.878
231.967
232.058
232.15
232.243
232.338
232.435
232.534
232.635
232.738
232.844
232.952
233.063
233.177
233.294
233.414
233.538
233.666
233.797
233.932
234.071
234.213
234.359
234.509
234.662
234.818
234.978
235.141
235.307
235.477
235.649
235.825
236.004
236.187
236.373
236.563
236.756
236.953
237.154
237.358
237.565
237.776
237.99
238.207
238.428
238.653
238.881
239.114
239.35
239.592
239.839
240.09
240.348
240.611
240.881
241.156
241.438
241.727
242.021
242.322
242.629
242.942
243.261
243.586
243.918
244.255
244.598
244.947
245.302
245.663
246.029
246.404
246.78
247.161
247.526
247.891
248.137
247.71
228.088
227.561
227.046
226.548
226.044
225.545
225.066
224.585
224.114
223.686
223.257
222.826
222.441
222.08
227.722
227.751
227.78
227.809
227.838
227.867
227.896
227.926
227.956
227.987
228.017
228.048
228.078
228.109
228.139
228.17
228.201
228.231
228.263
228.294
228.325
228.357
228.389
228.422
228.455
228.488
228.522
228.556
228.591
228.626
228.662
228.699
228.736
228.774
228.813
228.852
228.892
228.933
228.975
229.017
229.06
229.103
229.146
229.189
229.233
229.278
229.323
229.368
229.415
229.461
229.508
229.555
229.603
229.652
229.701
229.75
229.8
229.851
229.902
229.954
230.007
230.06
230.114
230.17
230.226
230.283
230.341
230.401
230.462
230.524
230.587
230.651
230.717
230.784
230.851
230.921
230.992
231.064
231.138
231.213
231.289
231.367
231.446
231.527
231.609
231.693
231.779
231.867
231.956
232.048
232.141
232.237
232.335
232.434
232.536
232.64
232.746
232.854
232.965
233.077
233.192
233.309
233.428
233.549
233.673
233.799
233.928
234.06
234.193
234.33
234.469
234.611
234.756
234.903
235.054
235.207
235.363
235.521
235.683
235.848
236.017
236.189
236.365
236.546
236.73
236.918
237.112
237.309
237.511
237.718
237.93
238.146
238.367
238.593
238.823
239.058
239.297
239.541
239.789
240.042
240.299
240.561
240.827
241.097
241.372
241.652
241.936
242.225
242.519
242.817
243.121
243.429
243.742
244.06
244.382
244.71
245.043
245.382
245.726
246.075
246.431
246.793
247.161
247.536
247.918
248.306
248.701
249.104
249.513
249.928
250.351
250.78
251.215
251.658
252.106
252.561
253.022
253.489
253.963
254.442
254.928
255.419
255.917
256.421
256.933
257.45
257.972
258.491
259.001
259.466
259.939
259.993
259.225
228.88
228.342
227.828
227.336
226.831
226.337
225.867
225.39
224.933
224.522
224.105
223.688
223.317
228.5
228.537
228.575
228.613
228.651
228.69
228.728
228.767
228.805
228.843
228.882
228.921
228.961
229
229.04
229.08
229.121
229.162
229.203
229.245
229.288
229.331
229.375
229.419
229.464
229.511
229.558
229.606
229.655
229.705
229.756
229.808
229.862
229.916
229.972
230.029
230.087
230.146
230.206
230.267
230.329
230.392
230.457
230.523
230.589
230.657
230.725
230.794
230.865
230.936
231.008
231.082
231.156
231.231
231.308
231.386
231.465
231.545
231.627
231.71
231.795
231.882
231.97
232.06
232.152
232.246
232.341
232.439
232.539
232.641
232.745
232.851
232.96
233.071
233.184
233.3
233.418
233.538
233.661
233.786
233.914
234.044
234.177
234.312
234.45
234.591
234.735
234.882
235.031
235.184
235.34
235.499
235.66
235.825
235.993
236.164
236.339
236.516
236.697
236.88
237.068
237.258
237.452
237.65
237.851
238.056
238.265
238.477
238.694
238.914
239.139
239.367
239.6
239.837
240.078
240.324
240.574
240.829
241.09
241.355
241.625
241.901
242.182
242.469
242.762
243.06
243.363
243.672
243.987
244.307
244.633
244.964
245.301
245.643
245.99
246.342
246.7
247.063
247.431
247.805
248.184
248.568
248.958
249.353
249.753
250.159
250.57
250.987
251.41
251.838
252.272
252.711
253.157
253.608
254.066
254.53
255
255.477
255.96
256.45
256.947
257.45
257.96
258.476
258.999
259.529
260.064
260.606
261.154
261.707
262.267
262.831
263.402
263.977
264.558
265.144
265.735
266.33
266.93
267.535
268.145
268.759
269.378
270.003
270.634
271.266
271.894
272.5
273.065
273.535
273.901
273.738
272.423
229.44
228.896
228.404
227.92
227.413
226.935
226.479
226.01
225.576
225.181
224.771
224.382
224.032
229.586
229.637
229.688
229.739
229.792
229.845
229.899
229.954
230.009
230.065
230.122
230.18
230.238
230.297
230.358
230.419
230.482
230.545
230.61
230.676
230.743
230.812
230.882
230.953
231.027
231.101
231.177
231.255
231.335
231.416
231.499
231.584
231.67
231.758
231.847
231.938
232.031
232.125
232.221
232.319
232.419
232.52
232.622
232.727
232.833
232.94
233.049
233.161
233.273
233.388
233.505
233.624
233.745
233.868
233.994
234.121
234.252
234.384
234.52
234.658
234.799
234.942
235.089
235.238
235.391
235.547
235.705
235.867
236.032
236.201
236.372
236.548
236.726
236.908
237.093
237.282
237.475
237.671
237.871
238.074
238.281
238.492
238.707
238.926
239.149
239.375
239.606
239.841
240.08
240.322
240.569
240.82
241.076
241.335
241.599
241.867
242.139
242.416
242.697
242.982
243.273
243.568
243.868
244.172
244.482
244.797
245.117
245.443
245.773
246.11
246.451
246.799
247.152
247.511
247.876
248.246
248.623
249.006
249.395
249.79
250.191
250.597
251.01
251.429
251.853
252.283
252.719
253.16
253.606
254.059
254.516
254.979
255.447
255.92
256.399
256.883
257.372
257.867
258.367
258.872
259.383
259.899
260.42
260.947
261.479
262.016
262.559
263.108
263.662
264.221
264.787
265.357
265.933
266.515
267.102
267.694
268.291
268.893
269.499
270.11
270.726
271.345
271.968
272.594
273.224
273.856
274.491
275.129
275.768
276.41
277.053
277.698
278.343
278.989
279.636
280.283
280.931
281.579
282.227
282.875
283.526
284.177
284.826
285.465
286.077
286.63
287.094
287.418
287.424
286.985
285.124
229.483
229.012
228.531
228.029
227.573
227.126
226.675
226.264
225.876
225.47
225.104
224.766
231.008
231.082
231.158
231.234
231.312
231.391
231.472
231.553
231.636
231.721
231.807
231.894
231.983
232.073
232.165
232.259
232.355
232.453
232.552
232.654
232.757
232.863
232.971
233.081
233.194
233.308
233.425
233.544
233.665
233.789
233.915
234.043
234.173
234.306
234.441
234.578
234.718
234.86
235.005
235.152
235.301
235.453
235.607
235.763
235.923
236.085
236.249
236.417
236.587
236.761
236.937
237.117
237.3
237.486
237.676
237.869
238.066
238.266
238.47
238.678
238.889
239.104
239.324
239.547
239.775
240.006
240.242
240.482
240.727
240.975
241.228
241.486
241.747
242.014
242.285
242.56
242.84
243.125
243.414
243.708
244.006
244.309
244.617
244.93
245.247
245.57
245.897
246.228
246.565
246.907
247.253
247.605
247.961
248.322
248.689
249.06
249.437
249.818
250.205
250.598
250.995
251.398
251.807
252.222
252.642
253.068
253.499
253.937
254.38
254.83
255.285
255.746
256.213
256.686
257.164
257.648
258.138
258.633
259.133
259.639
260.15
260.666
261.187
261.713
262.244
262.779
263.319
263.863
264.412
264.966
265.524
266.086
266.652
267.222
267.797
268.376
268.959
269.546
270.137
270.731
271.33
271.932
272.538
273.147
273.76
274.376
274.995
275.617
276.241
276.868
277.497
278.128
278.761
279.395
280.029
280.664
281.3
281.935
282.569
283.202
283.834
284.465
285.093
285.719
286.342
286.963
287.58
288.194
288.804
289.411
290.014
290.613
291.208
291.799
292.385
292.967
293.543
294.115
294.683
295.247
295.807
296.36
296.898
297.404
297.847
298.199
298.39
298.366
298.054
297.221
295.035
230.236
229.78
229.3
228.817
228.383
227.943
227.518
227.125
226.736
226.345
233.047
233.156
233.267
233.379
233.494
233.61
233.729
233.85
233.972
234.097
234.225
234.354
234.486
234.62
234.757
234.897
235.039
235.184
235.331
235.481
235.635
235.791
235.95
236.111
236.276
236.444
236.614
236.788
236.964
237.144
237.326
237.512
237.701
237.892
238.087
238.285
238.486
238.69
238.897
239.108
239.322
239.54
239.761
239.985
240.214
240.446
240.681
240.921
241.165
241.412
241.664
241.92
242.18
242.444
242.713
242.986
243.264
243.546
243.833
244.124
244.421
244.722
245.028
245.338
245.654
245.974
246.3
246.631
246.966
247.307
247.652
248.003
248.359
248.72
249.086
249.457
249.833
250.215
250.601
250.992
251.388
251.79
252.196
252.607
253.024
253.445
253.872
254.303
254.74
255.182
255.628
256.08
256.537
256.999
257.465
257.937
258.414
258.896
259.383
259.875
260.372
260.875
261.382
261.895
262.413
262.936
263.464
263.997
264.535
265.077
265.625
266.176
266.732
267.292
267.857
268.425
268.996
269.572
270.151
270.733
271.318
271.906
272.497
273.091
273.687
274.286
274.888
275.491
276.096
276.704
277.313
277.923
278.535
279.149
279.763
280.378
280.994
281.61
282.226
282.842
283.457
284.072
284.685
285.297
285.907
286.515
287.121
287.723
288.322
288.918
289.51
290.098
290.681
291.259
291.833
292.401
292.964
293.521
294.072
294.617
295.154
295.685
296.208
296.723
297.23
297.728
298.217
298.697
299.166
299.625
300.072
300.508
300.932
301.345
301.749
302.143
302.527
302.902
303.268
303.625
303.972
304.302
304.599
304.84
304.971
304.968
304.798
304.41
303.67
302.48
300.381
230.767
230.292
229.84
229.425
228.997
228.593
228.213
227.832
227.464
236.029
236.187
236.348
236.511
236.677
236.846
237.018
237.193
237.37
237.551
237.736
237.923
238.114
238.308
238.505
238.706
238.91
239.118
239.329
239.544
239.762
239.984
240.21
240.439
240.671
240.908
241.148
241.391
241.639
241.89
242.144
242.403
242.666
242.932
243.202
243.476
243.754
244.037
244.323
244.614
244.909
245.208
245.512
245.82
246.133
246.45
246.772
247.098
247.429
247.765
248.106
248.452
248.803
249.158
249.519
249.884
250.255
250.631
251.011
251.397
251.788
252.185
252.586
252.993
253.404
253.821
254.243
254.67
255.103
255.54
255.982
256.429
256.881
257.338
257.799
258.266
258.737
259.212
259.692
260.177
260.666
261.16
261.658
262.161
262.668
263.179
263.694
264.214
264.738
265.266
265.798
266.334
266.874
267.418
267.966
268.517
269.072
269.631
270.193
270.759
271.328
271.9
272.476
273.055
273.637
274.221
274.809
275.398
275.99
276.583
277.178
277.775
278.372
278.971
279.57
280.17
280.769
281.369
281.969
282.569
283.167
283.765
284.362
284.957
285.55
286.142
286.731
287.318
287.901
288.482
289.059
289.632
290.202
290.766
291.327
291.882
292.433
292.978
293.518
294.052
294.58
295.102
295.617
296.125
296.625
297.117
297.6
298.075
298.54
298.996
299.44
299.874
300.297
300.708
301.106
301.492
301.868
302.233
302.588
302.932
303.265
303.587
303.896
304.192
304.475
304.743
304.996
305.232
305.45
305.649
305.825
305.978
306.11
306.226
306.323
306.404
306.468
306.521
306.561
306.585
306.586
306.543
306.43
306.205
305.86
305.347
304.671
303.71
302.354
300.608
232.011
231.554
239.837
240.052
240.272
240.494
240.721
240.951
241.184
241.422
241.663
241.908
242.157
242.41
242.667
242.927
243.192
243.461
243.734
244.011
244.292
244.577
244.866
245.159
245.456
245.758
246.063
246.373
246.687
247.005
247.327
247.654
247.985
248.32
248.659
249.003
249.352
249.704
250.062
250.424
250.79
251.161
251.537
251.918
252.303
252.693
253.088
253.488
253.892
254.302
254.716
255.135
255.559
255.987
256.421
256.86
257.303
257.751
258.204
258.662
259.124
259.592
260.064
260.54
261.022
261.507
261.998
262.492
262.991
263.494
264.001
264.512
265.027
265.546
266.069
266.595
267.124
267.657
268.193
268.733
269.276
269.821
270.37
270.922
271.476
272.033
272.593
273.155
273.72
274.287
274.857
275.428
276.002
276.577
277.154
277.732
278.311
278.892
279.474
280.056
280.64
281.223
281.807
282.392
282.975
283.559
284.141
284.723
285.303
285.881
286.458
287.032
287.603
288.171
288.736
289.297
289.853
290.406
290.954
291.497
292.034
292.567
293.094
293.615
294.13
294.639
295.141
295.638
296.127
296.609
297.084
297.551
298.009
298.459
298.9
299.331
299.752
300.163
300.562
300.949
301.324
301.687
302.039
302.38
302.71
303.03
303.338
303.635
303.92
304.192
304.45
304.695
304.924
305.137
305.333
305.509
305.664
305.796
305.909
306.005
306.085
306.15
306.201
306.236
306.258
306.265
306.26
306.242
306.212
306.173
306.127
306.077
306.026
305.977
305.924
305.856
305.775
305.683
305.581
305.468
305.345
305.205
305.038
304.817
304.522
304.102
303.558
302.84
301.948
300.824
299.338
298.32
244.645
244.926
245.211
245.501
245.794
246.092
246.393
246.699
247.01
247.324
247.643
247.966
248.294
248.626
248.962
249.302
249.647
249.996
250.349
250.707
251.068
251.435
251.805
252.18
252.559
252.942
253.33
253.722
254.118
254.519
254.924
255.333
255.747
256.166
256.588
257.015
257.447
257.883
258.323
258.768
259.217
259.671
260.129
260.591
261.058
261.529
262.004
262.483
262.967
263.455
263.946
264.442
264.942
265.446
265.953
266.464
266.979
267.498
268.02
268.545
269.074
269.605
270.14
270.678
271.218
271.761
272.306
272.854
273.404
273.956
274.51
275.066
275.623
276.182
276.742
277.303
277.866
278.429
278.993
279.558
280.124
280.69
281.257
281.823
282.389
282.956
283.521
284.086
284.65
285.213
285.775
286.335
286.892
287.448
288.001
288.551
289.098
289.642
290.182
290.718
291.25
291.777
292.299
292.816
293.327
293.832
294.331
294.823
295.309
295.788
296.26
296.724
297.181
297.631
298.072
298.504
298.928
299.342
299.747
300.142
300.526
300.899
301.26
301.61
301.947
302.272
302.588
302.893
303.187
303.471
303.743
304.003
304.251
304.486
304.707
304.913
305.102
305.274
305.427
305.557
305.666
305.759
305.836
305.898
305.947
305.981
306.001
306.008
306.003
305.985
305.957
305.921
305.879
305.833
305.788
305.748
305.7
305.642
305.57
305.483
305.381
305.265
305.136
304.993
304.837
304.668
304.486
304.291
304.083
303.859
303.617
303.355
303.075
302.781
302.474
302.154
301.823
301.483
301.133
300.767
300.368
299.909
299.364
298.712
297.935
296.995
295.91
294.653
293.24
292.921
250.424
250.771
251.124
251.48
251.841
252.207
252.576
252.95
253.328
253.711
254.097
254.488