/*--------------------------------*- C++ -*----------------------------------*\
| =========                 |                                                 |
| \\      /  F ield         | OpenFOAM: The Open Source CFD Toolbox           |
|  \\    /   O peration     | Version:  v1706                                 |
|   \\  /    A nd           | Web:      www.OpenFOAM.com                      |
|    \\/     M anipulation  |                                                 |
\*---------------------------------------------------------------------------*/
FoamFile
{
    version     2.0;
    format      ascii;
    class       volScalarField;
    location    "1.2e-05";
    object      wallHeatFlux;
}
// * * * * * * * * * * * * * * * * * * * * * * * * * * * * * * * * * * * * * //

dimensions      [1 0 -3 0 0 0 0];


internalField   uniform 0;

boundaryField
{
    cone
    {
        type            calculated;
        value           nonuniform List<scalar> 
119
(
-2162.43
-2162.21
-2162
-2161.79
-2161.59
-2161.38
-2161.18
-2160.98
-2160.79
-2160.59
-2160.39
-2160.2
-2160
-2159.81
-2159.61
-2159.42
-2159.23
-2159.04
-2158.84
-2158.65
-2158.46
-2158.27
-2158.09
-2157.9
-2157.71
-2157.52
-2157.34
-2157.15
-2156.97
-2156.78
-2156.6
-2156.41
-2156.23
-2156.05
-2155.86
-2155.68
-2155.5
-2155.32
-2155.14
-2154.96
-2154.78
-2154.61
-2154.43
-2154.25
-2154.08
-2153.9
-2153.72
-2153.55
-2153.37
-2153.2
-2153.03
-2152.86
-2152.68
-2152.51
-2152.34
-2152.17
-2152
-2151.83
-2151.66
-2151.49
-2151.33
-2151.16
-2150.99
-2150.82
-2150.66
-2150.49
-2150.33
-2150.16
-2150
-2149.84
-2149.68
-2149.51
-2149.35
-2149.19
-2149.03
-2148.87
-2148.71
-2148.55
-2148.39
-2148.24
-2148.08
-2147.92
-2147.76
-2147.61
-2147.45
-2147.3
-2147.14
-2146.99
-2146.84
-2146.69
-2146.54
-2146.39
-2146.25
-2146.12
-2146
-2145.91
-2145.84
-2145.82
-2145.86
-2145.96
-2146.14
-2146.39
-2146.71
-2147.06
-2147.43
-2147.79
-2148.14
-2148.53
-2149.07
-2149.98
-2151.62
-2154.55
-2159.68
-2168.36
-2182.66
-2205.92
-2244.64
-2309.83
-2409.12
)
;
    }
    inlet
    {
        type            calculated;
        value           uniform 0;
    }
    rWedge
    {
        type            wedge;
    }
    lWedge
    {
        type            wedge;
    }
    outlet
    {
        type            calculated;
        value           uniform 0;
    }
    procBoundary0to1
    {
        type            processor;
        value           uniform 0;
    }
    procBoundary0to2
    {
        type            processor;
        value           uniform 0;
    }
}


// ************************************************************************* //
