/*--------------------------------*- C++ -*----------------------------------*\
| =========                 |                                                 |
| \\      /  F ield         | OpenFOAM: The Open Source CFD Toolbox           |
|  \\    /   O peration     | Version:  v1706                                 |
|   \\  /    A nd           | Web:      www.OpenFOAM.com                      |
|    \\/     M anipulation  |                                                 |
\*---------------------------------------------------------------------------*/
FoamFile
{
    version     2.0;
    format      ascii;
    class       volScalarField;
    location    "3.9e-05";
    object      alpha;
}
// * * * * * * * * * * * * * * * * * * * * * * * * * * * * * * * * * * * * * //

dimensions      [1 -1 -1 0 0 0 0];


internalField   nonuniform List<scalar> 
29871
(
1.40847e-05
1.40901e-05
1.40961e-05
1.4103e-05
1.41109e-05
1.41198e-05
1.413e-05
1.41416e-05
1.41549e-05
1.41701e-05
1.41871e-05
1.4206e-05
1.42269e-05
1.42501e-05
1.42759e-05
1.43051e-05
1.43385e-05
1.43767e-05
1.44199e-05
1.44682e-05
1.45214e-05
1.45791e-05
1.46411e-05
1.47079e-05
1.47813e-05
1.48637e-05
1.49555e-05
1.50555e-05
1.51623e-05
1.52745e-05
1.53909e-05
1.55102e-05
1.56309e-05
1.57517e-05
1.5871e-05
1.59884e-05
1.61062e-05
1.62395e-05
1.64073e-05
1.65997e-05
1.68037e-05
1.70095e-05
1.72098e-05
1.74002e-05
1.7578e-05
1.7742e-05
1.78921e-05
1.80289e-05
1.81531e-05
1.82651e-05
1.83653e-05
1.84537e-05
1.85302e-05
1.85946e-05
1.86473e-05
1.8689e-05
1.87207e-05
1.87432e-05
1.87578e-05
1.87657e-05
1.87656e-05
1.87622e-05
1.87559e-05
1.87474e-05
1.87354e-05
1.87218e-05
1.87082e-05
1.86928e-05
1.86751e-05
1.86555e-05
1.86339e-05
1.86105e-05
1.85857e-05
1.85588e-05
1.85293e-05
1.84985e-05
1.84661e-05
1.84313e-05
1.83947e-05
1.83574e-05
1.83188e-05
1.82785e-05
1.82368e-05
1.8194e-05
1.81495e-05
1.81038e-05
1.80571e-05
1.80096e-05
1.79611e-05
1.79119e-05
1.7862e-05
1.78115e-05
1.77603e-05
1.77086e-05
1.76565e-05
1.76042e-05
1.75517e-05
1.7499e-05
1.74459e-05
1.73925e-05
1.73385e-05
1.7284e-05
1.72288e-05
1.7173e-05
1.71166e-05
1.4277e-05
1.43101e-05
1.43475e-05
1.43895e-05
1.44367e-05
1.44898e-05
1.45498e-05
1.46181e-05
1.46957e-05
1.47835e-05
1.48818e-05
1.49908e-05
1.51105e-05
1.52414e-05
1.53855e-05
1.55464e-05
1.57258e-05
1.59237e-05
1.61386e-05
1.63682e-05
1.66099e-05
1.6861e-05
1.71194e-05
1.73852e-05
1.76668e-05
1.79877e-05
1.83442e-05
1.87259e-05
1.91206e-05
1.95165e-05
1.99032e-05
2.02725e-05
2.06185e-05
2.09372e-05
2.12264e-05
2.14861e-05
2.17167e-05
2.19166e-05
2.20834e-05
2.22193e-05
2.23272e-05
2.24104e-05
2.24718e-05
2.25144e-05
2.25419e-05
2.25591e-05
2.25706e-05
2.25796e-05
2.25877e-05
2.25954e-05
2.26028e-05
2.26092e-05
2.26148e-05
2.26167e-05
2.26148e-05
2.26105e-05
2.26031e-05
2.25918e-05
2.25765e-05
2.25576e-05
2.25354e-05
2.25108e-05
2.24843e-05
2.24563e-05
2.24281e-05
2.24014e-05
2.23745e-05
2.2347e-05
2.23195e-05
2.22928e-05
2.22664e-05
2.224e-05
2.22139e-05
2.21874e-05
2.21602e-05
2.21324e-05
2.21043e-05
2.2075e-05
2.20457e-05
2.20164e-05
2.19864e-05
2.19558e-05
2.19253e-05
2.18939e-05
2.18614e-05
2.1829e-05
2.17963e-05
2.1763e-05
2.17295e-05
2.1696e-05
2.16625e-05
2.16291e-05
2.15959e-05
2.15629e-05
2.15302e-05
2.14978e-05
2.14658e-05
2.14341e-05
2.14028e-05
2.13717e-05
2.13409e-05
2.13102e-05
2.12797e-05
2.12494e-05
2.12194e-05
1.47584e-05
1.48576e-05
1.49695e-05
1.50947e-05
1.52335e-05
1.53867e-05
1.55562e-05
1.57452e-05
1.59563e-05
1.61901e-05
1.64455e-05
1.67203e-05
1.70121e-05
1.73181e-05
1.76372e-05
1.79723e-05
1.83446e-05
1.87566e-05
1.91988e-05
1.96584e-05
2.01219e-05
2.05767e-05
2.10125e-05
2.14216e-05
2.17988e-05
2.21391e-05
2.24368e-05
2.26943e-05
2.29154e-05
2.31045e-05
2.32663e-05
2.34044e-05
2.35216e-05
2.36191e-05
2.36974e-05
2.37565e-05
2.37981e-05
2.38259e-05
2.38438e-05
2.38548e-05
2.38585e-05
2.38564e-05
2.38502e-05
2.38381e-05
2.38186e-05
2.37909e-05
2.37564e-05
2.37179e-05
2.36776e-05
2.36371e-05
2.35974e-05
2.35594e-05
2.35237e-05
2.34906e-05
2.34599e-05
2.34311e-05
2.34038e-05
2.33773e-05
2.3351e-05
2.3324e-05
2.32959e-05
2.3266e-05
2.32344e-05
2.32011e-05
2.31658e-05
2.3129e-05
2.30913e-05
2.30532e-05
2.30147e-05
2.29757e-05
2.29369e-05
2.28992e-05
2.28611e-05
2.28229e-05
2.27878e-05
2.27541e-05
2.27152e-05
2.26805e-05
2.26492e-05
2.26165e-05
2.25795e-05
2.2546e-05
2.25158e-05
2.24833e-05
2.24494e-05
2.24183e-05
2.23877e-05
2.2356e-05
2.23245e-05
2.22938e-05
2.22631e-05
2.22326e-05
2.22023e-05
2.21725e-05
2.21432e-05
2.21142e-05
2.20858e-05
2.20577e-05
2.203e-05
2.20028e-05
2.19759e-05
2.19495e-05
2.19234e-05
2.18977e-05
2.18723e-05
2.18472e-05
1.61891e-05
1.64536e-05
1.67412e-05
1.70493e-05
1.73754e-05
1.77176e-05
1.80773e-05
1.84698e-05
1.89024e-05
1.93677e-05
1.98532e-05
2.03453e-05
2.08306e-05
2.1298e-05
2.17386e-05
2.21454e-05
2.25094e-05
2.28295e-05
2.31076e-05
2.33467e-05
2.35507e-05
2.37234e-05
2.38686e-05
2.39895e-05
2.40885e-05
2.41676e-05
2.42284e-05
2.42726e-05
2.43028e-05
2.43228e-05
2.43369e-05
2.43487e-05
2.43598e-05
2.43705e-05
2.438e-05
2.43844e-05
2.43819e-05
2.43742e-05
2.43616e-05
2.43456e-05
2.43268e-05
2.43063e-05
2.42855e-05
2.42656e-05
2.42473e-05
2.42288e-05
2.42073e-05
2.41807e-05
2.41489e-05
2.41132e-05
2.4075e-05
2.40355e-05
2.39961e-05
2.39575e-05
2.39203e-05
2.3885e-05
2.38514e-05
2.38195e-05
2.37886e-05
2.37581e-05
2.37273e-05
2.36954e-05
2.36618e-05
2.3626e-05
2.35877e-05
2.3547e-05
2.3504e-05
2.34593e-05
2.34132e-05
2.33656e-05
2.33176e-05
2.32702e-05
2.32223e-05
2.31737e-05
2.31282e-05
2.30846e-05
2.30358e-05
2.29913e-05
2.29507e-05
2.29088e-05
2.28624e-05
2.28199e-05
2.2781e-05
2.27402e-05
2.26979e-05
2.26587e-05
2.26203e-05
2.25813e-05
2.25425e-05
2.25046e-05
2.24672e-05
2.24301e-05
2.23935e-05
2.23575e-05
2.23222e-05
2.22876e-05
2.22536e-05
2.22201e-05
2.21871e-05
2.21548e-05
2.21231e-05
2.20922e-05
2.20619e-05
2.20324e-05
2.20036e-05
2.19755e-05
1.87518e-05
1.92129e-05
1.97017e-05
2.02057e-05
2.07111e-05
2.1205e-05
2.16764e-05
2.21163e-05
2.25151e-05
2.28684e-05
2.31771e-05
2.34438e-05
2.36721e-05
2.3866e-05
2.40297e-05
2.41671e-05
2.42811e-05
2.43745e-05
2.44497e-05
2.45092e-05
2.45549e-05
2.45887e-05
2.46137e-05
2.46332e-05
2.46495e-05
2.46634e-05
2.46749e-05
2.46836e-05
2.46871e-05
2.4685e-05
2.46785e-05
2.46681e-05
2.46558e-05
2.46432e-05
2.46323e-05
2.46247e-05
2.46214e-05
2.46211e-05
2.46196e-05
2.46141e-05
2.46032e-05
2.45874e-05
2.4568e-05
2.45465e-05
2.45247e-05
2.45045e-05
2.44869e-05
2.44699e-05
2.44506e-05
2.44272e-05
2.43994e-05
2.43678e-05
2.4333e-05
2.42963e-05
2.42586e-05
2.42207e-05
2.41832e-05
2.41465e-05
2.41109e-05
2.40761e-05
2.4042e-05
2.40082e-05
2.39739e-05
2.39388e-05
2.39022e-05
2.38638e-05
2.38233e-05
2.37805e-05
2.37356e-05
2.36888e-05
2.36402e-05
2.359e-05
2.35388e-05
2.34876e-05
2.34348e-05
2.33831e-05
2.33327e-05
2.328e-05
2.32298e-05
2.31828e-05
2.31345e-05
2.30802e-05
2.30314e-05
2.29868e-05
2.294e-05
2.28903e-05
2.28447e-05
2.28016e-05
2.27569e-05
2.27119e-05
2.26688e-05
2.26269e-05
2.25855e-05
2.25446e-05
2.25041e-05
2.24646e-05
2.24264e-05
2.23887e-05
2.23514e-05
2.23146e-05
2.22787e-05
2.22435e-05
2.2209e-05
2.21752e-05
2.21422e-05
2.21101e-05
2.20788e-05
2.26945e-05
2.30498e-05
2.33596e-05
2.36267e-05
2.38545e-05
2.40475e-05
2.421e-05
2.43456e-05
2.44577e-05
2.45493e-05
2.46232e-05
2.46818e-05
2.47272e-05
2.47617e-05
2.47884e-05
2.48107e-05
2.483e-05
2.48468e-05
2.4861e-05
2.48723e-05
2.48803e-05
2.4883e-05
2.48817e-05
2.48781e-05
2.4873e-05
2.48672e-05
2.48618e-05
2.4857e-05
2.48528e-05
2.48498e-05
2.48462e-05
2.484e-05
2.48301e-05
2.48171e-05
2.48035e-05
2.47907e-05
2.47807e-05
2.47757e-05
2.47731e-05
2.47697e-05
2.47633e-05
2.47529e-05
2.47385e-05
2.47209e-05
2.47013e-05
2.46809e-05
2.46612e-05
2.46433e-05
2.46267e-05
2.46097e-05
2.45908e-05
2.45692e-05
2.45446e-05
2.45173e-05
2.44879e-05
2.4457e-05
2.44251e-05
2.43928e-05
2.43605e-05
2.43282e-05
2.42961e-05
2.42641e-05
2.42319e-05
2.41989e-05
2.4165e-05
2.41295e-05
2.40921e-05
2.40526e-05
2.40106e-05
2.39663e-05
2.39196e-05
2.38707e-05
2.38196e-05
2.3767e-05
2.37131e-05
2.36586e-05
2.36041e-05
2.35482e-05
2.34935e-05
2.34419e-05
2.33872e-05
2.33284e-05
2.32747e-05
2.32241e-05
2.31735e-05
2.31153e-05
2.30618e-05
2.30127e-05
2.29642e-05
2.29116e-05
2.28606e-05
2.28135e-05
2.27682e-05
2.27215e-05
2.26732e-05
2.26282e-05
2.25855e-05
2.25424e-05
2.24987e-05
2.2456e-05
2.24148e-05
2.23745e-05
2.23346e-05
2.22955e-05
2.22574e-05
2.22205e-05
2.21845e-05
2.41528e-05
2.43218e-05
2.44625e-05
2.45785e-05
2.46733e-05
2.47499e-05
2.48108e-05
2.48582e-05
2.48948e-05
2.49239e-05
2.49484e-05
2.49697e-05
2.49882e-05
2.50037e-05
2.5016e-05
2.50246e-05
2.50289e-05
2.50289e-05
2.50275e-05
2.50252e-05
2.50227e-05
2.50203e-05
2.50183e-05
2.50172e-05
2.50175e-05
2.50171e-05
2.50146e-05
2.50092e-05
2.50015e-05
2.49928e-05
2.4984e-05
2.49754e-05
2.49694e-05
2.49645e-05
2.49593e-05
2.49521e-05
2.49426e-05
2.4931e-05
2.49183e-05
2.49061e-05
2.4896e-05
2.48889e-05
2.48846e-05
2.48808e-05
2.48757e-05
2.48681e-05
2.48576e-05
2.48444e-05
2.48291e-05
2.48126e-05
2.47963e-05
2.47811e-05
2.47667e-05
2.47522e-05
2.4737e-05
2.47201e-05
2.47008e-05
2.46792e-05
2.46556e-05
2.46302e-05
2.46034e-05
2.45759e-05
2.4548e-05
2.45195e-05
2.4491e-05
2.44623e-05
2.4433e-05
2.44029e-05
2.43718e-05
2.4339e-05
2.43043e-05
2.42674e-05
2.42279e-05
2.41859e-05
2.41414e-05
2.40941e-05
2.4044e-05
2.3992e-05
2.39388e-05
2.38844e-05
2.38279e-05
2.37718e-05
2.37176e-05
2.36608e-05
2.36011e-05
2.35447e-05
2.34899e-05
2.34386e-05
2.33757e-05
2.33165e-05
2.32623e-05
2.32113e-05
2.31527e-05
2.30955e-05
2.30439e-05
2.29955e-05
2.29433e-05
2.2888e-05
2.28384e-05
2.2792e-05
2.27444e-05
2.26936e-05
2.26454e-05
2.26008e-05
2.25561e-05
2.25104e-05
2.2466e-05
2.24236e-05
2.23823e-05
2.23414e-05
2.50119e-05
2.50441e-05
2.50709e-05
2.50939e-05
2.51137e-05
2.51304e-05
2.51437e-05
2.51529e-05
2.51581e-05
2.51595e-05
2.5159e-05
2.51582e-05
2.51571e-05
2.51562e-05
2.51559e-05
2.51567e-05
2.51583e-05
2.51583e-05
2.51562e-05
2.5152e-05
2.51462e-05
2.51392e-05
2.51323e-05
2.51263e-05
2.51228e-05
2.51204e-05
2.51177e-05
2.51136e-05
2.51074e-05
2.50994e-05
2.50905e-05
2.50811e-05
2.50724e-05
2.50649e-05
2.50588e-05
2.5053e-05
2.50463e-05
2.50383e-05
2.50292e-05
2.50194e-05
2.50095e-05
2.50015e-05
2.49952e-05
2.49909e-05
2.49876e-05
2.49837e-05
2.49782e-05
2.49706e-05
2.49607e-05
2.49486e-05
2.49353e-05
2.49219e-05
2.49089e-05
2.48958e-05
2.48832e-05
2.48705e-05
2.48563e-05
2.48401e-05
2.48225e-05
2.48031e-05
2.47817e-05
2.47591e-05
2.4736e-05
2.47117e-05
2.46869e-05
2.46623e-05
2.46371e-05
2.46111e-05
2.45846e-05
2.45569e-05
2.45278e-05
2.44968e-05
2.44634e-05
2.44276e-05
2.43894e-05
2.43483e-05
2.43039e-05
2.42568e-05
2.42081e-05
2.41575e-05
2.41031e-05
2.40491e-05
2.39964e-05
2.3941e-05
2.38817e-05
2.38253e-05
2.37698e-05
2.37196e-05
2.3656e-05
2.3594e-05
2.35371e-05
2.34842e-05
2.34239e-05
2.33625e-05
2.33081e-05
2.32572e-05
2.32009e-05
2.31408e-05
2.3088e-05
2.30385e-05
2.29879e-05
2.29309e-05
2.28787e-05
2.2831e-05
2.27828e-05
2.27311e-05
2.26823e-05
2.26371e-05
2.25914e-05
2.2545e-05
2.5285e-05
2.52877e-05
2.52878e-05
2.52875e-05
2.52869e-05
2.52866e-05
2.52868e-05
2.52882e-05
2.52907e-05
2.52908e-05
2.52889e-05
2.52853e-05
2.52799e-05
2.52739e-05
2.5268e-05
2.52636e-05
2.52613e-05
2.52596e-05
2.52572e-05
2.52533e-05
2.52478e-05
2.52411e-05
2.52336e-05
2.52261e-05
2.52194e-05
2.52142e-05
2.52103e-05
2.52067e-05
2.52027e-05
2.51975e-05
2.51911e-05
2.51838e-05
2.51761e-05
2.51685e-05
2.5162e-05
2.51562e-05
2.51506e-05
2.51447e-05
2.51382e-05
2.51307e-05
2.51226e-05
2.51147e-05
2.51077e-05
2.51022e-05
2.50977e-05
2.50941e-05
2.50906e-05
2.50861e-05
2.50801e-05
2.50721e-05
2.50623e-05
2.50515e-05
2.50409e-05
2.50292e-05
2.50174e-05
2.50064e-05
2.49952e-05
2.49821e-05
2.49682e-05
2.49536e-05
2.49369e-05
2.49183e-05
2.48997e-05
2.48796e-05
2.48581e-05
2.48374e-05
2.4816e-05
2.47933e-05
2.47709e-05
2.47477e-05
2.47232e-05
2.46979e-05
2.46706e-05
2.4641e-05
2.46097e-05
2.45756e-05
2.45382e-05
2.44979e-05
2.44557e-05
2.44121e-05
2.43623e-05
2.43128e-05
2.42644e-05
2.42142e-05
2.41564e-05
2.41023e-05
2.40491e-05
2.40014e-05
2.39398e-05
2.38781e-05
2.38216e-05
2.37683e-05
2.37096e-05
2.36466e-05
2.35911e-05
2.35391e-05
2.34811e-05
2.34188e-05
2.33645e-05
2.33131e-05
2.3261e-05
2.32e-05
2.31458e-05
2.30959e-05
2.30456e-05
2.29891e-05
2.29371e-05
2.28893e-05
2.2839e-05
2.27888e-05
2.54231e-05
2.54237e-05
2.5422e-05
2.54186e-05
2.54134e-05
2.54074e-05
2.54016e-05
2.53975e-05
2.53954e-05
2.53935e-05
2.53911e-05
2.53871e-05
2.53818e-05
2.53755e-05
2.53686e-05
2.5362e-05
2.53565e-05
2.53526e-05
2.53497e-05
2.53469e-05
2.53434e-05
2.5339e-05
2.53338e-05
2.53279e-05
2.53218e-05
2.53161e-05
2.53115e-05
2.53077e-05
2.53044e-05
2.53008e-05
2.52964e-05
2.52912e-05
2.52851e-05
2.52785e-05
2.5272e-05
2.52659e-05
2.52602e-05
2.52547e-05
2.52491e-05
2.52431e-05
2.52364e-05
2.52293e-05
2.52224e-05
2.5216e-05
2.52106e-05
2.52062e-05
2.52024e-05
2.51985e-05
2.51944e-05
2.51894e-05
2.51822e-05
2.51741e-05
2.51664e-05
2.51565e-05
2.51456e-05
2.51356e-05
2.51265e-05
2.51147e-05
2.51027e-05
2.50912e-05
2.50789e-05
2.5063e-05
2.50476e-05
2.50321e-05
2.50133e-05
2.49952e-05
2.49776e-05
2.49578e-05
2.49382e-05
2.49188e-05
2.48978e-05
2.48771e-05
2.48551e-05
2.48307e-05
2.48054e-05
2.47783e-05
2.4748e-05
2.47145e-05
2.46797e-05
2.46445e-05
2.4601e-05
2.45572e-05
2.45142e-05
2.44722e-05
2.44179e-05
2.43676e-05
2.43188e-05
2.42744e-05
2.42165e-05
2.41578e-05
2.41045e-05
2.40532e-05
2.39965e-05
2.39346e-05
2.38802e-05
2.3829e-05
2.37708e-05
2.37086e-05
2.36545e-05
2.36029e-05
2.355e-05
2.3488e-05
2.34338e-05
2.33834e-05
2.33316e-05
2.3272e-05
2.32176e-05
2.3168e-05
2.31146e-05
2.30635e-05
2.55316e-05
2.55291e-05
2.55262e-05
2.55219e-05
2.55164e-05
2.55099e-05
2.5503e-05
2.54965e-05
2.54912e-05
2.54875e-05
2.54849e-05
2.54823e-05
2.54792e-05
2.54752e-05
2.54706e-05
2.54654e-05
2.54602e-05
2.54558e-05
2.54524e-05
2.54497e-05
2.54472e-05
2.54444e-05
2.5441e-05
2.54369e-05
2.54322e-05
2.54273e-05
2.54225e-05
2.54183e-05
2.54146e-05
2.54112e-05
2.54077e-05
2.54036e-05
2.5399e-05
2.53936e-05
2.53879e-05
2.53819e-05
2.53761e-05
2.53706e-05
2.53651e-05
2.53596e-05
2.53537e-05
2.53474e-05
2.53409e-05
2.53345e-05
2.53284e-05
2.53231e-05
2.53185e-05
2.53142e-05
2.53103e-05
2.53065e-05
2.53009e-05
2.5295e-05
2.52896e-05
2.52814e-05
2.52718e-05
2.52634e-05
2.52558e-05
2.52445e-05
2.52341e-05
2.52246e-05
2.52149e-05
2.52008e-05
2.51882e-05
2.51767e-05
2.516e-05
2.51444e-05
2.51305e-05
2.51125e-05
2.50952e-05
2.50792e-05
2.5061e-05
2.50431e-05
2.50255e-05
2.5005e-05
2.49839e-05
2.49634e-05
2.49392e-05
2.49118e-05
2.48836e-05
2.48565e-05
2.48199e-05
2.47826e-05
2.4746e-05
2.47117e-05
2.46633e-05
2.46182e-05
2.45749e-05
2.45348e-05
2.44808e-05
2.44274e-05
2.43788e-05
2.43318e-05
2.42763e-05
2.42178e-05
2.41664e-05
2.41174e-05
2.40599e-05
2.39999e-05
2.39476e-05
2.38975e-05
2.38435e-05
2.3783e-05
2.37304e-05
2.36806e-05
2.36284e-05
2.35677e-05
2.35122e-05
2.34607e-05
2.34076e-05
2.33569e-05
2.56347e-05
2.56286e-05
2.56243e-05
2.56213e-05
2.56184e-05
2.56152e-05
2.56112e-05
2.56067e-05
2.56017e-05
2.55968e-05
2.55928e-05
2.55898e-05
2.55875e-05
2.55854e-05
2.55831e-05
2.55803e-05
2.55769e-05
2.5573e-05
2.55691e-05
2.55655e-05
2.55625e-05
2.556e-05
2.55577e-05
2.55552e-05
2.55523e-05
2.5549e-05
2.55451e-05
2.5541e-05
2.55369e-05
2.55331e-05
2.55295e-05
2.55261e-05
2.55227e-05
2.55188e-05
2.55145e-05
2.55096e-05
2.55043e-05
2.54988e-05
2.54933e-05
2.54878e-05
2.54824e-05
2.54768e-05
2.5471e-05
2.54649e-05
2.54587e-05
2.54525e-05
2.54467e-05
2.54414e-05
2.54363e-05
2.54321e-05
2.54283e-05
2.54234e-05
2.54187e-05
2.54146e-05
2.5408e-05
2.54e-05
2.53931e-05
2.53867e-05
2.53768e-05
2.53674e-05
2.53595e-05
2.53512e-05
2.53388e-05
2.53283e-05
2.53194e-05
2.53054e-05
2.52916e-05
2.52803e-05
2.52653e-05
2.52495e-05
2.52362e-05
2.52204e-05
2.52043e-05
2.519e-05
2.51726e-05
2.51552e-05
2.51394e-05
2.51192e-05
2.50969e-05
2.50747e-05
2.50543e-05
2.50233e-05
2.49932e-05
2.49634e-05
2.49353e-05
2.48929e-05
2.48546e-05
2.48173e-05
2.47817e-05
2.47318e-05
2.46852e-05
2.46419e-05
2.45997e-05
2.45455e-05
2.44923e-05
2.44446e-05
2.43987e-05
2.43428e-05
2.42865e-05
2.42366e-05
2.4189e-05
2.4134e-05
2.40769e-05
2.40266e-05
2.39784e-05
2.39257e-05
2.38659e-05
2.38112e-05
2.37593e-05
2.37076e-05
2.36574e-05
2.57408e-05
2.57356e-05
2.57312e-05
2.57278e-05
2.57253e-05
2.57231e-05
2.57208e-05
2.57181e-05
2.57149e-05
2.57114e-05
2.57079e-05
2.57049e-05
2.57024e-05
2.57004e-05
2.56987e-05
2.56969e-05
2.56947e-05
2.56922e-05
2.56893e-05
2.56864e-05
2.56836e-05
2.56811e-05
2.56788e-05
2.56767e-05
2.56745e-05
2.56721e-05
2.56692e-05
2.5666e-05
2.56626e-05
2.5659e-05
2.56556e-05
2.56523e-05
2.5649e-05
2.56455e-05
2.56418e-05
2.56377e-05
2.56332e-05
2.56283e-05
2.56231e-05
2.56178e-05
2.56125e-05
2.56071e-05
2.56015e-05
2.55958e-05
2.55899e-05
2.55839e-05
2.5578e-05
2.55723e-05
2.55668e-05
2.55621e-05
2.55579e-05
2.55532e-05
2.55488e-05
2.55454e-05
2.55402e-05
2.55336e-05
2.5528e-05
2.55228e-05
2.55146e-05
2.5506e-05
2.54994e-05
2.54923e-05
2.54818e-05
2.54727e-05
2.54655e-05
2.54545e-05
2.54422e-05
2.54328e-05
2.5421e-05
2.54066e-05
2.53953e-05
2.53823e-05
2.53673e-05
2.53551e-05
2.53406e-05
2.53254e-05
2.53126e-05
2.52957e-05
2.52775e-05
2.52603e-05
2.52442e-05
2.52178e-05
2.51942e-05
2.51713e-05
2.51472e-05
2.51108e-05
2.50797e-05
2.50487e-05
2.50166e-05
2.49714e-05
2.49322e-05
2.48939e-05
2.48557e-05
2.48043e-05
2.47572e-05
2.47134e-05
2.46706e-05
2.46167e-05
2.45648e-05
2.45175e-05
2.44725e-05
2.44182e-05
2.4365e-05
2.43168e-05
2.42705e-05
2.42167e-05
2.41605e-05
2.41081e-05
2.4057e-05
2.40062e-05
2.39566e-05
2.3909e-05
2.38612e-05
2.58546e-05
2.5851e-05
2.58474e-05
2.58442e-05
2.58417e-05
2.58396e-05
2.58379e-05
2.58362e-05
2.58343e-05
2.58322e-05
2.58298e-05
2.58273e-05
2.58252e-05
2.58233e-05
2.58218e-05
2.58204e-05
2.5819e-05
2.58174e-05
2.58156e-05
2.58136e-05
2.58114e-05
2.58093e-05
2.58073e-05
2.58055e-05
2.58037e-05
2.58018e-05
2.57997e-05
2.57973e-05
2.57947e-05
2.57918e-05
2.57887e-05
2.57857e-05
2.57826e-05
2.57795e-05
2.57763e-05
2.57727e-05
2.57689e-05
2.57646e-05
2.57601e-05
2.57552e-05
2.57502e-05
2.57451e-05
2.57399e-05
2.57345e-05
2.5729e-05
2.57233e-05
2.57176e-05
2.57119e-05
2.57064e-05
2.57015e-05
2.56969e-05
2.56922e-05
2.5688e-05
2.56847e-05
2.56805e-05
2.56751e-05
2.56707e-05
2.56665e-05
2.56601e-05
2.56526e-05
2.56472e-05
2.56414e-05
2.56328e-05
2.56247e-05
2.56189e-05
2.56104e-05
2.55998e-05
2.5592e-05
2.55828e-05
2.55703e-05
2.55605e-05
2.55501e-05
2.55363e-05
2.55255e-05
2.55138e-05
2.54996e-05
2.54883e-05
2.5475e-05
2.54593e-05
2.54455e-05
2.54317e-05
2.541e-05
2.53913e-05
2.53745e-05
2.53516e-05
2.5322e-05
2.52969e-05
2.52725e-05
2.52414e-05
2.52025e-05
2.517e-05
2.51373e-05
2.51006e-05
2.50532e-05
2.50127e-05
2.4973e-05
2.49325e-05
2.48809e-05
2.4834e-05
2.47896e-05
2.47465e-05
2.46938e-05
2.46444e-05
2.45979e-05
2.45527e-05
2.44999e-05
2.44478e-05
2.43982e-05
2.43483e-05
2.42982e-05
2.42495e-05
2.42023e-05
2.41555e-05
2.59783e-05
2.59763e-05
2.59743e-05
2.59721e-05
2.59697e-05
2.59674e-05
2.59653e-05
2.59635e-05
2.59621e-05
2.59609e-05
2.59597e-05
2.59585e-05
2.59571e-05
2.59556e-05
2.59541e-05
2.59527e-05
2.59515e-05
2.59505e-05
2.59496e-05
2.59487e-05
2.59477e-05
2.59465e-05
2.59452e-05
2.59437e-05
2.59422e-05
2.59408e-05
2.59395e-05
2.59381e-05
2.59366e-05
2.59349e-05
2.5933e-05
2.59309e-05
2.59285e-05
2.5926e-05
2.59233e-05
2.59206e-05
2.59178e-05
2.59149e-05
2.59116e-05
2.59081e-05
2.59042e-05
2.59001e-05
2.58956e-05
2.5891e-05
2.58863e-05
2.58814e-05
2.58764e-05
2.58712e-05
2.5866e-05
2.58607e-05
2.58555e-05
2.58506e-05
2.5846e-05
2.58415e-05
2.58375e-05
2.58342e-05
2.58306e-05
2.58262e-05
2.58228e-05
2.58196e-05
2.58148e-05
2.58088e-05
2.58046e-05
2.58001e-05
2.57933e-05
2.57863e-05
2.57818e-05
2.57753e-05
2.57663e-05
2.57601e-05
2.57529e-05
2.57423e-05
2.57341e-05
2.57258e-05
2.57136e-05
2.57037e-05
2.56944e-05
2.56811e-05
2.56704e-05
2.56599e-05
2.56456e-05
2.56333e-05
2.56217e-05
2.5604e-05
2.55884e-05
2.55754e-05
2.55537e-05
2.55301e-05
2.55093e-05
2.54902e-05
2.54598e-05
2.54277e-05
2.54001e-05
2.53729e-05
2.53358e-05
2.52946e-05
2.52595e-05
2.52245e-05
2.5184e-05
2.5136e-05
2.50939e-05
2.50531e-05
2.50103e-05
2.49599e-05
2.4914e-05
2.48698e-05
2.48246e-05
2.47736e-05
2.47251e-05
2.46785e-05
2.463e-05
2.45803e-05
2.45326e-05
2.44863e-05
2.44405e-05
2.61025e-05
2.6101e-05
2.60997e-05
2.60984e-05
2.60971e-05
2.60957e-05
2.60944e-05
2.60932e-05
2.60922e-05
2.60914e-05
2.60908e-05
2.60902e-05
2.60897e-05
2.6089e-05
2.60883e-05
2.60876e-05
2.6087e-05
2.60864e-05
2.6086e-05
2.60857e-05
2.60853e-05
2.60849e-05
2.60843e-05
2.60837e-05
2.60829e-05
2.60821e-05
2.60813e-05
2.60805e-05
2.60796e-05
2.60786e-05
2.60774e-05
2.6076e-05
2.60744e-05
2.60726e-05
2.60707e-05
2.60686e-05
2.60663e-05
2.6064e-05
2.60614e-05
2.60586e-05
2.60556e-05
2.60522e-05
2.60486e-05
2.60447e-05
2.60407e-05
2.60365e-05
2.60321e-05
2.60277e-05
2.60231e-05
2.60185e-05
2.60139e-05
2.60095e-05
2.60052e-05
2.60011e-05
2.59975e-05
2.59944e-05
2.59912e-05
2.59878e-05
2.59852e-05
2.59829e-05
2.59795e-05
2.59751e-05
2.5972e-05
2.59689e-05
2.59638e-05
2.59581e-05
2.59548e-05
2.59498e-05
2.59424e-05
2.59376e-05
2.59321e-05
2.59232e-05
2.59164e-05
2.59098e-05
2.58993e-05
2.58903e-05
2.58826e-05
2.58708e-05
2.58601e-05
2.58514e-05
2.58383e-05
2.58261e-05
2.58162e-05
2.58012e-05
2.57866e-05
2.57753e-05
2.57567e-05
2.5737e-05
2.57191e-05
2.57029e-05
2.56742e-05
2.56478e-05
2.56236e-05
2.56003e-05
2.55642e-05
2.55287e-05
2.54975e-05
2.54668e-05
2.54258e-05
2.53824e-05
2.53443e-05
2.53072e-05
2.52634e-05
2.52161e-05
2.51732e-05
2.51317e-05
2.50856e-05
2.50367e-05
2.49913e-05
2.49473e-05
2.49e-05
2.48505e-05
2.48038e-05
2.47586e-05
2.47138e-05
2.46691e-05
2.62431e-05
2.62412e-05
2.62395e-05
2.62378e-05
2.62362e-05
2.62346e-05
2.62331e-05
2.62319e-05
2.6231e-05
2.62302e-05
2.62296e-05
2.62291e-05
2.62285e-05
2.6228e-05
2.62275e-05
2.62271e-05
2.62269e-05
2.62268e-05
2.62268e-05
2.62269e-05
2.6227e-05
2.62271e-05
2.62271e-05
2.62272e-05
2.62273e-05
2.62275e-05
2.62278e-05
2.62281e-05
2.62283e-05
2.62286e-05
2.62287e-05
2.62287e-05
2.62287e-05
2.62286e-05
2.62284e-05
2.62282e-05
2.6228e-05
2.62276e-05
2.6227e-05
2.62262e-05
2.62253e-05
2.62241e-05
2.62228e-05
2.62214e-05
2.62198e-05
2.6218e-05
2.6216e-05
2.62139e-05
2.62115e-05
2.62088e-05
2.62059e-05
2.62028e-05
2.61995e-05
2.61961e-05
2.61925e-05
2.61888e-05
2.61851e-05
2.61814e-05
2.61777e-05
2.61741e-05
2.61706e-05
2.61676e-05
2.61649e-05
2.61623e-05
2.61598e-05
2.61579e-05
2.61562e-05
2.6154e-05
2.61511e-05
2.61492e-05
2.61472e-05
2.61436e-05
2.61394e-05
2.61372e-05
2.61334e-05
2.61275e-05
2.6124e-05
2.61197e-05
2.61123e-05
2.61067e-05
2.61014e-05
2.60924e-05
2.60841e-05
2.60775e-05
2.60671e-05
2.60563e-05
2.60484e-05
2.60369e-05
2.6024e-05
2.60146e-05
2.60018e-05
2.59869e-05
2.59754e-05
2.59603e-05
2.59422e-05
2.59257e-05
2.59111e-05
2.58854e-05
2.58625e-05
2.58407e-05
2.58198e-05
2.57855e-05
2.57544e-05
2.57259e-05
2.56985e-05
2.56585e-05
2.56192e-05
2.55838e-05
2.55499e-05
2.55059e-05
2.54615e-05
2.54209e-05
2.53818e-05
2.53351e-05
2.52881e-05
2.52451e-05
2.52032e-05
2.51567e-05
2.51072e-05
2.50618e-05
2.50179e-05
2.49741e-05
2.49303e-05
2.63714e-05
2.63701e-05
2.6369e-05
2.63682e-05
2.63674e-05
2.63667e-05
2.6366e-05
2.63655e-05
2.63652e-05
2.6365e-05
2.6365e-05
2.63651e-05
2.63653e-05
2.63655e-05
2.63658e-05
2.63661e-05
2.63665e-05
2.6367e-05
2.63677e-05
2.63684e-05
2.63692e-05
2.637e-05
2.63708e-05
2.63717e-05
2.63725e-05
2.63734e-05
2.63744e-05
2.63754e-05
2.63764e-05
2.63774e-05
2.63784e-05
2.63792e-05
2.638e-05
2.63808e-05
2.63815e-05
2.63821e-05
2.63826e-05
2.63831e-05
2.63834e-05
2.63836e-05
2.63835e-05
2.63833e-05
2.6383e-05
2.63825e-05
2.63818e-05
2.6381e-05
2.638e-05
2.63788e-05
2.63775e-05
2.63759e-05
2.63741e-05
2.63721e-05
2.63699e-05
2.63676e-05
2.63651e-05
2.63625e-05
2.63598e-05
2.63571e-05
2.63544e-05
2.63517e-05
2.63491e-05
2.63468e-05
2.63447e-05
2.63428e-05
2.63411e-05
2.63398e-05
2.63388e-05
2.63375e-05
2.63358e-05
2.63349e-05
2.63337e-05
2.63314e-05
2.63287e-05
2.63273e-05
2.63245e-05
2.63199e-05
2.63173e-05
2.63138e-05
2.63076e-05
2.63029e-05
2.62984e-05
2.62905e-05
2.62828e-05
2.62769e-05
2.62675e-05
2.62566e-05
2.62488e-05
2.62383e-05
2.62249e-05
2.62148e-05
2.62034e-05
2.6188e-05
2.6175e-05
2.61625e-05
2.61447e-05
2.61281e-05
2.6114e-05
2.60919e-05
2.60701e-05
2.60498e-05
2.60305e-05
2.59985e-05
2.59699e-05
2.59432e-05
2.59183e-05
2.58808e-05
2.58438e-05
2.58104e-05
2.5779e-05
2.57363e-05
2.5694e-05
2.5655e-05
2.5618e-05
2.55714e-05
2.55259e-05
2.54845e-05
2.54443e-05
2.53979e-05
2.53496e-05
2.53055e-05
2.52628e-05
2.52199e-05
2.51769e-05
2.65033e-05
2.65027e-05
2.65023e-05
2.65021e-05
2.6502e-05
2.65021e-05
2.65022e-05
2.65024e-05
2.65028e-05
2.65032e-05
2.65039e-05
2.65046e-05
2.65054e-05
2.65064e-05
2.65074e-05
2.65084e-05
2.65095e-05
2.65108e-05
2.65121e-05
2.65135e-05
2.6515e-05
2.65166e-05
2.65182e-05
2.65198e-05
2.65215e-05
2.65232e-05
2.6525e-05
2.65267e-05
2.65286e-05
2.65304e-05
2.65322e-05
2.6534e-05
2.65357e-05
2.65374e-05
2.6539e-05
2.65405e-05
2.6542e-05
2.65434e-05
2.65447e-05
2.65459e-05
2.65469e-05
2.65478e-05
2.65485e-05
2.65491e-05
2.65495e-05
2.65498e-05
2.65499e-05
2.65499e-05
2.65497e-05
2.65493e-05
2.65487e-05
2.65479e-05
2.6547e-05
2.65459e-05
2.65446e-05
2.65432e-05
2.65417e-05
2.65401e-05
2.65385e-05
2.65368e-05
2.65352e-05
2.65337e-05
2.65323e-05
2.65311e-05
2.65301e-05
2.65294e-05
2.65289e-05
2.65283e-05
2.65275e-05
2.65272e-05
2.65266e-05
2.65252e-05
2.65237e-05
2.65227e-05
2.65204e-05
2.6517e-05
2.65149e-05
2.65117e-05
2.65062e-05
2.65021e-05
2.64978e-05
2.64905e-05
2.64829e-05
2.64772e-05
2.64683e-05
2.64571e-05
2.6449e-05
2.64388e-05
2.6425e-05
2.64136e-05
2.64026e-05
2.63868e-05
2.6372e-05
2.63597e-05
2.63426e-05
2.63244e-05
2.63094e-05
2.62905e-05
2.62681e-05
2.62481e-05
2.62299e-05
2.62008e-05
2.61728e-05
2.61471e-05
2.6124e-05
2.609e-05
2.60534e-05
2.60212e-05
2.59915e-05
2.59524e-05
2.59107e-05
2.58726e-05
2.58374e-05
2.57923e-05
2.57477e-05
2.57067e-05
2.5667e-05
2.56228e-05
2.55766e-05
2.55335e-05
2.54915e-05
2.54495e-05
2.54072e-05
2.66381e-05
2.66382e-05
2.66385e-05
2.66389e-05
2.66395e-05
2.66403e-05
2.66411e-05
2.66421e-05
2.66431e-05
2.66443e-05
2.66455e-05
2.66469e-05
2.66484e-05
2.66501e-05
2.66518e-05
2.66536e-05
2.66554e-05
2.66574e-05
2.66595e-05
2.66616e-05
2.66639e-05
2.66662e-05
2.66687e-05
2.66712e-05
2.66737e-05
2.66763e-05
2.66789e-05
2.66815e-05
2.66842e-05
2.6687e-05
2.66897e-05
2.66925e-05
2.66952e-05
2.66979e-05
2.67005e-05
2.67031e-05
2.67056e-05
2.6708e-05
2.67104e-05
2.67127e-05
2.67149e-05
2.67169e-05
2.67188e-05
2.67206e-05
2.67222e-05
2.67237e-05
2.6725e-05
2.67262e-05
2.67272e-05
2.67281e-05
2.67288e-05
2.67293e-05
2.67296e-05
2.67298e-05
2.67297e-05
2.67296e-05
2.67293e-05
2.67289e-05
2.67283e-05
2.67277e-05
2.6727e-05
2.67264e-05
2.67257e-05
2.67252e-05
2.67247e-05
2.67244e-05
2.67242e-05
2.6724e-05
2.67237e-05
2.67236e-05
2.67233e-05
2.67223e-05
2.67213e-05
2.67203e-05
2.67183e-05
2.67154e-05
2.67133e-05
2.671e-05
2.67047e-05
2.67005e-05
2.66959e-05
2.66886e-05
2.66808e-05
2.66747e-05
2.66656e-05
2.66538e-05
2.66449e-05
2.66344e-05
2.66199e-05
2.66069e-05
2.65953e-05
2.65792e-05
2.65623e-05
2.65486e-05
2.65318e-05
2.65118e-05
2.64947e-05
2.64776e-05
2.64543e-05
2.64334e-05
2.64149e-05
2.6389e-05
2.63604e-05
2.63353e-05
2.63119e-05
2.62829e-05
2.62459e-05
2.6214e-05
2.61834e-05
2.61511e-05
2.61095e-05
2.6071e-05
2.60353e-05
2.59957e-05
2.59516e-05
2.59101e-05
2.58698e-05
2.58287e-05
2.57854e-05
2.57431e-05
2.57017e-05
2.56604e-05
2.56191e-05
2.55782e-05
2.55381e-05
2.67751e-05
2.67759e-05
2.67769e-05
2.6778e-05
2.67793e-05
2.67807e-05
2.67822e-05
2.67838e-05
2.67856e-05
2.67874e-05
2.67894e-05
2.67915e-05
2.67937e-05
2.6796e-05
2.67985e-05
2.6801e-05
2.68037e-05
2.68064e-05
2.68093e-05
2.68123e-05
2.68153e-05
2.68185e-05
2.68218e-05
2.68251e-05
2.68286e-05
2.68321e-05
2.68356e-05
2.68393e-05
2.68429e-05
2.68466e-05
2.68504e-05
2.68542e-05
2.68579e-05
2.68617e-05
2.68654e-05
2.68691e-05
2.68727e-05
2.68763e-05
2.68798e-05
2.68833e-05
2.68867e-05
2.68899e-05
2.68931e-05
2.68961e-05
2.6899e-05
2.69017e-05
2.69043e-05
2.69067e-05
2.6909e-05
2.69112e-05
2.69131e-05
2.69149e-05
2.69165e-05
2.69179e-05
2.69191e-05
2.69201e-05
2.69209e-05
2.69216e-05
2.6922e-05
2.69223e-05
2.69225e-05
2.69225e-05
2.69225e-05
2.69224e-05
2.69222e-05
2.69221e-05
2.6922e-05
2.69217e-05
2.69215e-05
2.69212e-05
2.69206e-05
2.69196e-05
2.69184e-05
2.69169e-05
2.69145e-05
2.69116e-05
2.69088e-05
2.69048e-05
2.68992e-05
2.68943e-05
2.68888e-05
2.68808e-05
2.68722e-05
2.6865e-05
2.68551e-05
2.68424e-05
2.68321e-05
2.68206e-05
2.68052e-05
2.67901e-05
2.67773e-05
2.67604e-05
2.67414e-05
2.67255e-05
2.67083e-05
2.66865e-05
2.6667e-05
2.66495e-05
2.66258e-05
2.6603e-05
2.65826e-05
2.65595e-05
2.65301e-05
2.65048e-05
2.648e-05
2.64554e-05
2.64187e-05
2.63858e-05
2.63551e-05
2.63261e-05
2.6288e-05
2.6248e-05
2.62116e-05
2.61755e-05
2.61344e-05
2.60927e-05
2.60526e-05
2.60129e-05
2.59723e-05
2.59313e-05
2.58907e-05
2.58504e-05
2.58101e-05
2.57702e-05
2.57307e-05
2.69138e-05
2.69153e-05
2.69169e-05
2.69187e-05
2.69206e-05
2.69227e-05
2.69249e-05
2.69272e-05
2.69297e-05
2.69322e-05
2.69349e-05
2.69377e-05
2.69407e-05
2.69437e-05
2.69469e-05
2.69503e-05
2.69537e-05
2.69573e-05
2.6961e-05
2.69648e-05
2.69688e-05
2.69728e-05
2.6977e-05
2.69813e-05
2.69857e-05
2.69901e-05
2.69947e-05
2.69993e-05
2.7004e-05
2.70088e-05
2.70136e-05
2.70184e-05
2.70233e-05
2.70281e-05
2.7033e-05
2.70379e-05
2.70427e-05
2.70475e-05
2.70522e-05
2.70569e-05
2.70615e-05
2.7066e-05
2.70704e-05
2.70746e-05
2.70788e-05
2.70828e-05
2.70866e-05
2.70903e-05
2.70938e-05
2.70972e-05
2.71004e-05
2.71033e-05
2.7106e-05
2.71086e-05
2.71108e-05
2.71128e-05
2.71146e-05
2.71161e-05
2.71173e-05
2.71183e-05
2.7119e-05
2.71195e-05
2.71198e-05
2.71198e-05
2.71197e-05
2.71194e-05
2.7119e-05
2.71183e-05
2.71175e-05
2.71165e-05
2.71152e-05
2.71134e-05
2.71114e-05
2.71089e-05
2.71056e-05
2.71017e-05