/*--------------------------------*- C++ -*----------------------------------*\
| =========                 |                                                 |
| \\      /  F ield         | OpenFOAM: The Open Source CFD Toolbox           |
|  \\    /   O peration     | Version:  v1706                                 |
|   \\  /    A nd           | Web:      www.OpenFOAM.com                      |
|    \\/     M anipulation  |                                                 |
\*---------------------------------------------------------------------------*/
FoamFile
{
    version     2.0;
    format      ascii;
    class       volScalarField;
    location    "3.9e-05";
    object      kappatr;
}
// * * * * * * * * * * * * * * * * * * * * * * * * * * * * * * * * * * * * * //

dimensions      [1 1 -3 -1 0 0 0];


internalField   nonuniform List<scalar> 
29871
(
0.0146314
0.0146369
0.0146432
0.0146504
0.0146585
0.0146678
0.0146784
0.0146905
0.0147043
0.01472
0.0147377
0.0147573
0.0147791
0.0148031
0.01483
0.0148603
0.014895
0.0149347
0.0149796
0.0150297
0.015085
0.0151449
0.0152093
0.0152787
0.015355
0.0154406
0.0155359
0.0156399
0.0157508
0.0158673
0.0159882
0.0161121
0.0162376
0.016363
0.016487
0.016609
0.0167313
0.0168698
0.0170441
0.0172439
0.0174559
0.0176696
0.0178778
0.0180755
0.0182602
0.0184306
0.0185866
0.0187287
0.0188576
0.018974
0.0190781
0.0191699
0.0192494
0.0193163
0.019371
0.0194144
0.0194472
0.0194706
0.0194858
0.019494
0.019494
0.0194904
0.0194839
0.0194751
0.0194626
0.0194484
0.0194343
0.0194183
0.0194
0.0193795
0.0193571
0.0193328
0.0193071
0.0192791
0.0192485
0.0192165
0.0191828
0.0191467
0.0191086
0.0190698
0.0190298
0.0189879
0.0189446
0.0189001
0.0188539
0.0188064
0.018758
0.0187085
0.0186582
0.0186071
0.0185553
0.0185028
0.0184496
0.0183959
0.0183418
0.0182875
0.0182329
0.0181781
0.018123
0.0180675
0.0180114
0.0179548
0.0178975
0.0178395
0.0177809
0.0148311
0.0148655
0.0149043
0.014948
0.014997
0.0150522
0.0151145
0.0151855
0.0152661
0.0153573
0.0154594
0.0155726
0.015697
0.0158329
0.0159827
0.0161497
0.0163361
0.0165417
0.0167649
0.0170034
0.0172546
0.0175154
0.0177838
0.0180599
0.0183525
0.0186859
0.0190562
0.0194527
0.0198627
0.0202739
0.0206756
0.0210593
0.0214187
0.0217498
0.0220503
0.02232
0.0225595
0.0227672
0.0229405
0.0230816
0.0231937
0.0232802
0.023344
0.0233882
0.0234168
0.0234347
0.0234467
0.023456
0.0234644
0.0234724
0.02348
0.0234867
0.0234925
0.0234945
0.0234926
0.023488
0.0234804
0.0234686
0.0234527
0.0234331
0.02341
0.0233845
0.0233569
0.0233279
0.0232986
0.0232709
0.0232429
0.0232143
0.0231858
0.023158
0.0231306
0.0231031
0.0230761
0.0230485
0.0230202
0.0229914
0.0229622
0.0229317
0.0229013
0.0228709
0.0228397
0.0228079
0.0227763
0.0227436
0.0227099
0.0226762
0.0226423
0.0226077
0.0225728
0.022538
0.0225033
0.0224686
0.0224341
0.0223998
0.0223658
0.0223322
0.0222989
0.022266
0.0222335
0.0222012
0.0221692
0.0221373
0.0221056
0.0220741
0.022043
0.0153312
0.0154342
0.0155505
0.0156805
0.0158248
0.0159839
0.0161599
0.0163563
0.0165756
0.0168185
0.0170838
0.0173693
0.0176723
0.0179902
0.0183217
0.0186699
0.0190566
0.0194845
0.0199439
0.0204214
0.0209029
0.0213754
0.021828
0.0222531
0.0226448
0.0229983
0.0233076
0.0235751
0.0238048
0.0240013
0.0241693
0.0243128
0.0244345
0.0245358
0.0246171
0.0246786
0.0247217
0.0247507
0.0247692
0.0247806
0.0247844
0.0247823
0.0247759
0.0247633
0.024743
0.0247143
0.0246784
0.0246384
0.0245966
0.0245545
0.0245133
0.0244738
0.0244367
0.0244024
0.0243705
0.0243405
0.0243121
0.0242846
0.0242573
0.0242293
0.0242
0.024169
0.0241362
0.0241016
0.0240649
0.0240267
0.0239875
0.0239479
0.0239079
0.0238674
0.0238271
0.023788
0.0237484
0.0237087
0.0236722
0.0236373
0.0235968
0.0235608
0.0235283
0.0234943
0.0234558
0.023421
0.0233897
0.0233559
0.0233207
0.0232884
0.0232566
0.0232237
0.023191
0.023159
0.0231272
0.0230954
0.023064
0.0230331
0.0230026
0.0229725
0.0229429
0.0229138
0.022885
0.0228567
0.0228288
0.0228014
0.0227743
0.0227476
0.0227212
0.0226952
0.0168174
0.0170922
0.0173909
0.017711
0.0180497
0.0184053
0.0187789
0.0191867
0.0196361
0.0201193
0.0206237
0.0211349
0.0216391
0.0221246
0.0225823
0.0230048
0.023383
0.0237155
0.0240044
0.0242529
0.0244648
0.0246442
0.024795
0.0249205
0.0250234
0.0251056
0.0251687
0.0252147
0.0252461
0.0252668
0.0252815
0.0252937
0.0253052
0.0253163
0.0253262
0.0253308
0.0253282
0.0253202
0.0253072
0.0252905
0.025271
0.0252496
0.025228
0.0252074
0.0251883
0.0251691
0.0251468
0.0251192
0.0250862
0.0250491
0.0250093
0.0249684
0.0249274
0.0248873
0.0248487
0.024812
0.0247771
0.0247439
0.0247119
0.0246802
0.0246482
0.0246151
0.0245801
0.0245429
0.0245032
0.0244609
0.0244162
0.0243698
0.0243219
0.0242725
0.0242226
0.0241734
0.0241236
0.0240731
0.0240258
0.0239806
0.0239299
0.0238836
0.0238414
0.023798
0.0237498
0.0237055
0.0236652
0.0236228
0.0235788
0.0235381
0.0234983
0.0234577
0.0234174
0.0233781
0.0233392
0.0233007
0.0232626
0.0232253
0.0231886
0.0231526
0.0231173
0.0230825
0.0230482
0.0230147
0.0229818
0.0229496
0.0229181
0.0228875
0.0228576
0.0228284
0.0194796
0.0199586
0.0204663
0.0209899
0.0215149
0.022028
0.0225177
0.0229747
0.0233889
0.0237559
0.0240766
0.0243537
0.0245909
0.0247923
0.0249623
0.025105
0.0252235
0.0253205
0.0253987
0.0254605
0.0255079
0.025543
0.025569
0.0255893
0.0256061
0.0256206
0.0256326
0.0256416
0.0256453
0.0256431
0.0256363
0.0256255
0.0256127
0.0255997
0.0255883
0.0255805
0.025577
0.0255767
0.0255751
0.0255694
0.0255581
0.0255417
0.0255215
0.0254992
0.0254766
0.0254556
0.0254373
0.0254196
0.0253995
0.0253752
0.0253464
0.0253135
0.0252775
0.0252393
0.0252001
0.0251607
0.0251217
0.0250837
0.0250466
0.0250106
0.0249751
0.02494
0.0249044
0.0248679
0.0248299
0.02479
0.0247479
0.0247035
0.0246568
0.0246082
0.0245577
0.0245055
0.0244524
0.0243992
0.0243443
0.0242907
0.0242383
0.0241835
0.0241314
0.0240826
0.0240324
0.0239759
0.0239253
0.0238789
0.0238304
0.0237787
0.0237313
0.0236866
0.0236401
0.0235934
0.0235486
0.0235051
0.0234621
0.0234196
0.0233775
0.0233365
0.0232968
0.0232577
0.0232189
0.0231807
0.0231433
0.0231068
0.023071
0.0230359
0.0230016
0.0229682
0.0229357
0.0235753
0.0239444
0.0242663
0.0245437
0.0247804
0.0249809
0.0251496
0.0252905
0.0254069
0.0255021
0.0255789
0.0256398
0.0256869
0.0257227
0.0257505
0.0257736
0.0257937
0.0258112
0.0258259
0.0258377
0.0258459
0.0258487
0.0258474
0.0258437
0.0258384
0.0258323
0.0258267
0.0258217
0.0258174
0.0258142
0.0258105
0.0258041
0.0257938
0.0257803
0.0257661
0.0257528
0.0257425
0.0257372
0.0257346
0.025731
0.0257244
0.0257136
0.0256987
0.0256804
0.02566
0.0256388
0.0256183
0.0255997
0.0255825
0.0255649
0.0255452
0.0255227
0.0254972
0.0254688
0.0254383
0.0254063
0.0253731
0.0253395
0.0253059
0.0252725
0.0252391
0.0252059
0.0251723
0.0251381
0.0251029
0.025066
0.0250272
0.0249861
0.0249425
0.0248964
0.024848
0.0247972
0.0247441
0.0246894
0.0246334
0.0245768
0.0245202
0.0244622
0.0244053
0.0243517
0.0242949
0.0242338
0.024178
0.0241255
0.0240729
0.0240125
0.0239569
0.0239058
0.0238555
0.0238009
0.0237478
0.0236989
0.0236519
0.0236033
0.0235532
0.0235065
0.0234621
0.0234173
0.0233719
0.0233275
0.0232847
0.0232429
0.0232015
0.0231608
0.0231212
0.0230829
0.0230455
0.0250902
0.0252658
0.0254119
0.0255324
0.0256309
0.0257105
0.0257738
0.025823
0.025861
0.0258912
0.0259167
0.0259388
0.025958
0.0259741
0.0259869
0.0259958
0.0260003
0.0260003
0.0259989
0.0259965
0.0259939
0.0259913
0.0259893
0.0259881
0.0259884
0.0259881
0.0259855
0.0259798
0.0259719
0.0259628
0.0259536
0.0259447
0.0259385
0.0259334
0.025928
0.0259206
0.0259106
0.0258986
0.0258855
0.0258727
0.0258622
0.0258549
0.0258504
0.0258465
0.0258412
0.0258333
0.0258224
0.0258086
0.0257927
0.0257756
0.0257587
0.0257429
0.025728
0.0257129
0.0256971
0.0256796
0.0256595
0.025637
0.0256125
0.0255862
0.0255583
0.0255298
0.0255007
0.0254711
0.0254415
0.0254117
0.0253812
0.02535
0.0253177
0.0252836
0.0252476
0.0252092
0.0251682
0.0251246
0.0250783
0.0250292
0.0249771
0.0249232
0.0248679
0.0248114
0.0247527
0.0246945
0.0246381
0.0245791
0.0245171
0.0244585
0.0244016
0.0243483
0.0242829
0.0242215
0.0241651
0.0241121
0.0240513
0.0239919
0.0239383
0.023888
0.0238338
0.0237764
0.0237248
0.0236766
0.0236272
0.0235744
0.0235243
0.023478
0.0234315
0.0233841
0.023338
0.0232939
0.023251
0.0232085
0.0259826
0.0260161
0.0260439
0.0260679
0.0260884
0.0261057
0.0261196
0.0261292
0.0261345
0.0261359
0.0261355
0.0261347
0.0261335
0.0261326
0.0261322
0.0261331
0.0261348
0.0261348
0.0261326
0.0261282
0.0261221
0.0261149
0.0261077
0.0261015
0.0260979
0.0260954
0.0260925
0.0260883
0.0260819
0.0260736
0.0260643
0.0260546
0.0260456
0.0260377
0.0260313
0.0260253
0.0260184
0.0260101
0.0260006
0.0259904
0.0259802
0.0259719
0.0259653
0.0259608
0.0259574
0.0259534
0.0259477
0.0259398
0.0259294
0.0259169
0.0259031
0.0258892
0.0258757
0.0258621
0.0258489
0.0258358
0.025821
0.0258042
0.0257859
0.0257658
0.0257435
0.02572
0.025696
0.0256708
0.0256451
0.0256195
0.0255933
0.0255663
0.0255388
0.02551
0.0254797
0.0254475
0.0254128
0.0253757
0.025336
0.0252933
0.0252472
0.0251982
0.0251476
0.0250951
0.0250386
0.0249825
0.0249278
0.0248702
0.0248086
0.02475
0.0246923
0.0246402
0.0245741
0.0245097
0.0244506
0.0243956
0.0243331
0.0242693
0.0242127
0.0241599
0.0241014
0.0240389
0.023984
0.0239327
0.0238801
0.0238209
0.0237667
0.0237171
0.0236671
0.0236133
0.0235627
0.0235157
0.0234682
0.02342
0.0262664
0.0262691
0.0262692
0.026269
0.0262683
0.026268
0.0262682
0.0262697
0.0262722
0.0262723
0.0262704
0.0262666
0.0262611
0.0262548
0.0262487
0.0262441
0.0262417
0.02624
0.0262375
0.0262334
0.0262277
0.0262207
0.026213
0.0262052
0.0261982
0.0261928
0.0261888
0.026185
0.0261809
0.0261755
0.0261688
0.0261612
0.0261532
0.0261454
0.0261385
0.0261325
0.0261267
0.0261206
0.0261138
0.0261061
0.0260977
0.0260894
0.0260821
0.0260764
0.0260717
0.0260681
0.0260644
0.0260597
0.0260535
0.0260452
0.026035
0.0260238
0.0260128
0.0260006
0.0259883
0.025977
0.0259653
0.0259517
0.0259373
0.025922
0.0259047
0.0258854
0.0258661
0.0258453
0.0258229
0.0258014
0.0257791
0.0257556
0.0257323
0.0257082
0.0256828
0.0256565
0.0256281
0.0255974
0.0255648
0.0255294
0.0254906
0.0254487
0.0254049
0.0253596
0.0253078
0.0252564
0.0252061
0.025154
0.025094
0.0250377
0.0249825
0.0249329
0.024869
0.0248048
0.0247462
0.0246908
0.0246298
0.0245644
0.0245067
0.0244527
0.0243925
0.0243277
0.0242714
0.024218
0.0241638
0.0241005
0.0240441
0.0239923
0.0239401
0.0238813
0.0238273
0.0237776
0.0237254
0.0236733
0.0264099
0.0264104
0.0264087
0.0264051
0.0263997
0.0263935
0.0263875
0.0263832
0.026381
0.0263791
0.0263765
0.0263725
0.0263669
0.0263603
0.0263532
0.0263463
0.0263406
0.0263366
0.0263336
0.0263306
0.026327
0.0263225
0.026317
0.0263109
0.0263045
0.0262987
0.0262939
0.0262899
0.0262865
0.0262827
0.0262782
0.0262728
0.0262664
0.0262596
0.0262528
0.0262465
0.0262406
0.0262349
0.0262291
0.0262228
0.0262159
0.0262085
0.0262013
0.0261947
0.0261891
0.0261845
0.0261806
0.0261765
0.0261722
0.0261671
0.0261596
0.0261512
0.0261431
0.0261329
0.0261215
0.0261112
0.0261017
0.0260895
0.026077
0.0260651
0.0260522
0.0260357
0.0260197
0.0260036
0.0259841
0.0259653
0.0259471
0.0259264
0.0259061
0.025886
0.0258641
0.0258426
0.0258198
0.0257944
0.0257681
0.0257399
0.0257085
0.0256737
0.0256375
0.025601
0.0255558
0.0255103
0.0254656
0.025422
0.0253656
0.0253134
0.0252626
0.0252166
0.0251564
0.0250954
0.02504
0.0249868
0.0249278
0.0248635
0.0248071
0.0247539
0.0246933
0.0246288
0.0245726
0.024519
0.0244641
0.0243996
0.0243433
0.024291
0.0242371
0.0241752
0.0241187
0.0240672
0.0240117
0.0239587
0.0265225
0.0265199
0.0265169
0.0265125
0.0265068
0.0265
0.0264929
0.026486
0.0264805
0.0264767
0.026474
0.0264713
0.0264681
0.026464
0.0264591
0.0264537
0.0264484
0.0264438
0.0264402
0.0264375
0.0264349
0.026432
0.0264284
0.0264242
0.0264193
0.0264141
0.0264092
0.0264048
0.026401
0.0263974
0.0263938
0.0263896
0.0263847
0.0263792
0.0263732
0.026367
0.026361
0.0263552
0.0263496
0.0263438
0.0263377
0.0263312
0.0263244
0.0263177
0.0263114
0.0263059
0.0263012
0.0262967
0.0262926
0.0262887
0.0262828
0.0262768
0.0262711
0.0262626
0.0262526
0.0262439
0.026236
0.0262243
0.0262135
0.0262037
0.0261936
0.0261789
0.0261658
0.0261539
0.0261365
0.0261203
0.0261058
0.0260872
0.0260692
0.0260525
0.0260337
0.026015
0.0259968
0.0259755
0.0259536
0.0259322
0.0259072
0.0258786
0.0258494
0.0258213
0.0257832
0.0257445
0.0257064
0.0256708
0.0256205
0.0255737
0.0255287
0.025487
0.0254309
0.0253755
0.025325
0.0252761
0.0252185
0.0251577
0.0251043
0.0250534
0.0249937
0.0249314
0.0248771
0.024825
0.0247689
0.024706
0.0246514
0.0245996
0.0245454
0.0244824
0.0244247
0.0243712
0.0243161
0.0242634
0.0266297
0.0266233
0.0266189
0.0266157
0.0266127
0.0266093
0.0266052
0.0266005
0.0265953
0.0265902
0.026586
0.0265829
0.0265806
0.0265784
0.026576
0.0265731
0.0265696
0.0265655
0.0265615
0.0265578
0.0265546
0.026552
0.0265496
0.026547
0.0265441
0.0265405
0.0265365
0.0265323
0.026528
0.026524
0.0265204
0.0265169
0.0265132
0.0265092
0.0265047
0.0264997
0.0264942
0.0264885
0.0264827
0.0264771
0.0264714
0.0264656
0.0264596
0.0264533
0.0264468
0.0264403
0.0264343
0.0264288
0.0264235
0.0264192
0.0264152
0.0264101
0.0264053
0.026401
0.0263942
0.0263858
0.0263787
0.026372
0.0263617
0.0263519
0.0263437
0.0263351
0.0263222
0.0263114
0.026302
0.0262876
0.0262732
0.0262614
0.0262459
0.0262294
0.0262156
0.0261993
0.0261825
0.0261677
0.0261495
0.0261315
0.0261151
0.0260941
0.0260709
0.0260479
0.0260267
0.0259945
0.0259632
0.0259323
0.0259031
0.0258591
0.0258192
0.0257805
0.0257435
0.0256917
0.0256433
0.0255983
0.0255545
0.0254982
0.0254429
0.0253933
0.0253456
0.0252876
0.025229
0.0251772
0.0251278
0.0250707
0.0250113
0.0249592
0.0249091
0.0248542
0.0247922
0.0247353
0.0246815
0.0246277
0.0245755
0.0267398
0.0267344
0.0267298
0.0267264
0.0267237
0.0267215
0.0267191
0.0267163
0.026713
0.0267093
0.0267057
0.0267025
0.0267
0.0266979
0.0266961
0.0266942
0.026692
0.0266893
0.0266864
0.0266833
0.0266804
0.0266778
0.0266755
0.0266733
0.026671
0.0266684
0.0266655
0.0266622
0.0266586
0.0266549
0.0266513
0.0266479
0.0266444
0.0266409
0.026637
0.0266328
0.026628
0.0266229
0.0266176
0.0266121
0.0266065
0.0266009
0.0265952
0.0265892
0.0265831
0.0265768
0.0265707
0.0265648
0.0265591
0.0265542
0.0265498
0.0265449
0.0265404
0.0265368
0.0265315
0.0265246
0.0265188
0.0265134
0.0265048
0.0264959
0.0264891
0.0264817
0.0264708
0.0264613
0.0264539
0.0264424
0.0264297
0.0264199
0.0264076
0.0263927
0.0263809
0.0263674
0.0263518
0.0263392
0.0263241
0.0263083
0.026295
0.0262775
0.0262586
0.0262407
0.026224
0.0261965
0.0261721
0.0261482
0.0261232
0.0260854
0.0260531
0.0260209
0.0259875
0.0259405
0.0258998
0.0258601
0.0258204
0.025767
0.0257181
0.0256725
0.0256281
0.0255721
0.0255182
0.0254691
0.0254223
0.0253659
0.0253106
0.0252606
0.0252125
0.0251566
0.0250982
0.0250438
0.0249907
0.0249379
0.0248864
0.0248369
0.0247873
0.026858
0.0268543
0.0268506
0.0268473
0.0268446
0.0268425
0.0268407
0.026839
0.026837
0.0268348
0.0268323
0.0268297
0.0268275
0.0268256
0.026824
0.0268225
0.0268211
0.0268195
0.0268176
0.0268154
0.0268132
0.026811
0.0268089
0.026807
0.0268052
0.0268032
0.026801
0.0267986
0.0267958
0.0267928
0.0267896
0.0267865
0.0267833
0.0267801
0.0267767
0.026773
0.026769
0.0267646
0.0267599
0.0267548
0.0267496
0.0267443
0.0267389
0.0267333
0.0267276
0.0267217
0.0267158
0.0267099
0.0267041
0.026699
0.0266943
0.0266894
0.0266849
0.0266816
0.0266772
0.0266715
0.026667
0.0266627
0.026656
0.0266483
0.0266426
0.0266366
0.0266277
0.0266192
0.0266133
0.0266044
0.0265934
0.0265853
0.0265757
0.0265627
0.0265525
0.0265418
0.0265274
0.0265162
0.0265041
0.0264893
0.0264775
0.0264637
0.0264474
0.0264331
0.0264188
0.0263962
0.0263768
0.0263593
0.0263356
0.0263047
0.0262787
0.0262534
0.0262211
0.0261806
0.0261469
0.0261129
0.0260748
0.0260256
0.0259835
0.0259423
0.0259002
0.0258466
0.0257978
0.0257517
0.0257069
0.0256522
0.0256009
0.0255526
0.0255057
0.0254508
0.0253967
0.0253452
0.0252933
0.0252412
0.0251907
0.0251416
0.0250931
0.0269866
0.0269845
0.0269824
0.0269801
0.0269777
0.0269752
0.026973
0.0269712
0.0269697
0.0269685
0.0269673
0.026966
0.0269646
0.026963
0.0269614
0.02696
0.0269588
0.0269577
0.0269568
0.0269558
0.0269548
0.0269535
0.0269521
0.0269506
0.0269491
0.0269476
0.0269462
0.0269448
0.0269432
0.0269415
0.0269395
0.0269373
0.0269348
0.0269322
0.0269295
0.0269267
0.0269237
0.0269207
0.0269173
0.0269136
0.0269096
0.0269053
0.0269007
0.0268959
0.026891
0.0268859
0.0268807
0.0268753
0.0268699
0.0268644
0.026859
0.0268539
0.0268491
0.0268444
0.0268403
0.0268369
0.0268331
0.0268285
0.026825
0.0268217
0.0268167
0.0268105
0.0268061
0.0268015
0.0267944
0.0267871
0.0267825
0.0267757
0.0267663
0.0267599
0.0267524
0.0267414
0.0267328
0.0267242
0.0267116
0.0267013
0.0266916
0.0266779
0.0266667
0.0266558
0.0266409
0.0266282
0.0266162
0.0265977
0.0265815
0.026568
0.0265455
0.0265209
0.0264994
0.0264795
0.0264479
0.0264146
0.026386
0.0263577
0.0263191
0.0262763
0.0262398
0.0262035
0.0261615
0.0261115
0.0260679
0.0260254
0.025981
0.0259286
0.0258809
0.025835
0.025788
0.0257351
0.0256848
0.0256363
0.0255859
0.0255343
0.0254847
0.0254366
0.0253891
0.0271155
0.027114
0.0271127
0.0271114
0.02711
0.0271086
0.0271071
0.0271059
0.0271048
0.027104
0.0271034
0.0271028
0.0271022
0.0271016
0.0271008
0.0271001
0.0270994
0.0270989
0.0270985
0.0270981
0.0270977
0.0270973
0.0270967
0.027096
0.0270952
0.0270944
0.0270935
0.0270927
0.0270918
0.0270907
0.0270895
0.0270881
0.0270864
0.0270845
0.0270825
0.0270803
0.027078
0.0270755
0.0270729
0.02707
0.0270668
0.0270633
0.0270596
0.0270556
0.0270514
0.027047
0.0270425
0.0270379
0.0270331
0.0270283
0.0270236
0.027019
0.0270145
0.0270102
0.0270065
0.0270033
0.027
0.0269965
0.0269938
0.0269913
0.0269878
0.0269832
0.02698
0.0269768
0.0269715
0.0269655
0.0269622
0.026957
0.0269493
0.0269443
0.0269386
0.0269294
0.0269223
0.0269154
0.0269045
0.0268952
0.0268871
0.0268748
0.0268638
0.0268547
0.0268412
0.0268285
0.0268182
0.0268026
0.0267875
0.0267756
0.0267563
0.0267359
0.0267173
0.0267005
0.0266707
0.0266432
0.0266181
0.0265939
0.0265563
0.0265195
0.0264871
0.0264552
0.0264126
0.0263676
0.026328
0.0262894
0.026244
0.0261948
0.0261503
0.0261071
0.0260592
0.0260084
0.0259612
0.0259155
0.0258664
0.0258149
0.0257664
0.0257196
0.025673
0.0256266
0.0272617
0.0272597
0.0272579
0.0272561
0.0272544
0.0272528
0.0272513
0.02725
0.027249
0.0272482
0.0272476
0.0272471
0.0272465
0.027246
0.0272454
0.027245
0.0272448
0.0272447
0.0272447
0.0272448
0.0272449
0.027245
0.0272451
0.0272451
0.0272453
0.0272454
0.0272457
0.027246
0.0272463
0.0272465
0.0272467
0.0272467
0.0272467
0.0272466
0.0272464
0.0272462
0.0272459
0.0272455
0.0272449
0.0272441
0.0272431
0.0272419
0.0272406
0.0272391
0.0272374
0.0272356
0.0272335
0.0272313
0.0272288
0.027226
0.027223
0.0272198
0.0272163
0.0272128
0.0272091
0.0272053
0.0272014
0.0271975
0.0271937
0.0271899
0.0271864
0.0271832
0.0271804
0.0271777
0.0271751
0.0271731
0.0271714
0.0271691
0.0271661
0.0271641
0.027162
0.0271582
0.0271539
0.0271516
0.0271477
0.0271416
0.0271379
0.0271334
0.0271258
0.02712
0.0271144
0.0271051
0.0270965
0.0270897
0.0270788
0.0270676
0.0270594
0.0270474
0.0270341
0.0270242
0.027011
0.0269955
0.0269835
0.0269679
0.026949
0.026932
0.0269168
0.0268901
0.0268663
0.0268436
0.026822
0.0267862
0.026754
0.0267244
0.0266959
0.0266544
0.0266135
0.0265768
0.0265415
0.0264958
0.0264497
0.0264075
0.0263669
0.0263184
0.0262695
0.0262249
0.0261814
0.026133
0.0260817
0.0260345
0.0259889
0.0259434
0.0258978
0.0273949
0.0273935
0.0273925
0.0273915
0.0273907
0.02739
0.0273893
0.0273888
0.0273884
0.0273883
0.0273883
0.0273884
0.0273886
0.0273888
0.0273891
0.0273894
0.0273898
0.0273904
0.027391
0.0273918
0.0273926
0.0273935
0.0273943
0.0273952
0.0273961
0.027397
0.027398
0.0273991
0.0274001
0.0274012
0.0274021
0.0274031
0.0274039
0.0274047
0.0274054
0.027406
0.0274066
0.027407
0.0274074
0.0274075
0.0274075
0.0274073
0.027407
0.0274064
0.0274057
0.0274049
0.0274039
0.0274026
0.0274012
0.0273996
0.0273977
0.0273956
0.0273934
0.0273909
0.0273884
0.0273857
0.0273829
0.0273801
0.0273773
0.0273745
0.0273718
0.0273694
0.0273672
0.0273652
0.0273634
0.0273621
0.027361
0.0273597
0.027358
0.027357
0.0273558
0.0273534
0.0273506
0.0273491
0.0273462
0.0273414
0.0273388
0.0273351
0.0273286
0.0273238
0.0273191
0.0273109
0.0273028
0.0272967
0.027287
0.0272756
0.0272676
0.0272567
0.0272427
0.0272322
0.0272204
0.0272044
0.0271909
0.0271779
0.0271594
0.0271421
0.0271276
0.0271045
0.0270819
0.0270608
0.0270408
0.0270075
0.0269778
0.0269501
0.0269242
0.0268853
0.0268468
0.0268121
0.0267795
0.0267351
0.0266912
0.0266507
0.0266123
0.0265638
0.0265166
0.0264736
0.0264319
0.0263837
0.0263334
0.0262877
0.0262433
0.0261987
0.026154
0.0275319
0.0275313
0.0275309
0.0275307
0.0275306
0.0275307
0.0275308
0.027531
0.0275314
0.0275319
0.0275325
0.0275333
0.0275342
0.0275351
0.0275362
0.0275373
0.0275384
0.0275397
0.0275411
0.0275425
0.0275441
0.0275457
0.0275474
0.0275491
0.0275508
0.0275526
0.0275544
0.0275563
0.0275582
0.0275601
0.027562
0.0275638
0.0275656
0.0275673
0.027569
0.0275706
0.0275721
0.0275736
0.0275749
0.0275762
0.0275773
0.0275782
0.0275789
0.0275795
0.0275799
0.0275802
0.0275803
0.0275803
0.0275801
0.0275797
0.0275791
0.0275783
0.0275773
0.0275761
0.0275748
0.0275734
0.0275718
0.0275702
0.0275685
0.0275667
0.0275651
0.0275635
0.0275621
0.0275609
0.0275598
0.0275591
0.0275585
0.0275579
0.0275571
0.0275567
0.0275562
0.0275547
0.0275531
0.0275521
0.0275497
0.0275461
0.027544
0.0275407
0.0275349
0.0275307
0.0275262
0.0275186
0.0275108
0.0275048
0.0274956
0.027484
0.0274756
0.027465
0.0274506
0.0274388
0.0274273
0.027411
0.0273955
0.0273827
0.027365
0.0273461
0.0273305
0.0273108
0.0272876
0.0272668
0.027248
0.0272177
0.0271886
0.0271619
0.0271379
0.0271026
0.0270646
0.0270312
0.0270003
0.0269596
0.0269164
0.0268768
0.0268402
0.0267934
0.0267471
0.0267045
0.0266631
0.0266173
0.0265693
0.0265244
0.0264809
0.0264372
0.0263933
0.027672
0.0276721
0.0276724
0.0276728
0.0276735
0.0276742
0.0276751
0.0276761
0.0276772
0.0276784
0.0276797
0.0276811
0.0276827
0.0276844
0.0276862
0.027688
0.02769
0.027692
0.0276942
0.0276964
0.0276988
0.0277012
0.0277037
0.0277063
0.0277089
0.0277116
0.0277143
0.0277171
0.0277199
0.0277227
0.0277256
0.0277285
0.0277313
0.0277341
0.0277368
0.0277395
0.0277421
0.0277446
0.0277471
0.0277495
0.0277517
0.0277538
0.0277558
0.0277576
0.0277593
0.0277608
0.0277622
0.0277635
0.0277645
0.0277654
0.0277662
0.0277667
0.027767
0.0277672
0.0277672
0.027767
0.0277667
0.0277662
0.0277657
0.027765
0.0277644
0.0277637
0.027763
0.0277624
0.027762
0.0277616
0.0277614
0.0277612
0.0277609
0.0277608
0.0277604
0.0277595
0.0277584
0.0277574
0.0277553
0.0277523
0.0277501
0.0277466
0.0277412
0.0277368
0.0277321
0.0277244
0.0277163
0.02771
0.0277005
0.0276883
0.027679
0.0276681
0.0276531
0.0276395
0.0276275
0.0276108
0.0275932
0.027579
0.0275616
0.0275408
0.027523
0.0275052
0.0274811
0.0274594
0.0274401
0.0274132
0.0273835
0.0273574
0.0273332
0.027303
0.0272645
0.0272314
0.0271996
0.0271661
0.0271229
0.0270829
0.0270457
0.0270046
0.0269589
0.0269157
0.0268739
0.0268311
0.0267862
0.0267422
0.0266992
0.0266563
0.0266134
0.0265709
0.0265293
0.0278143
0.0278151
0.0278162
0.0278173
0.0278186
0.0278201
0.0278217
0.0278234
0.0278252
0.0278271
0.0278291
0.0278313
0.0278336
0.027836
0.0278386
0.0278412
0.027844
0.0278468
0.0278498
0.0278529
0.0278561
0.0278594
0.0278628
0.0278663
0.0278698
0.0278735
0.0278772
0.0278809
0.0278847
0.0278886
0.0278925
0.0278964
0.0279003
0.0279042
0.0279081
0.0279119
0.0279157
0.0279194
0.0279231
0.0279267
0.0279302
0.0279336
0.0279368
0.02794
0.0279429
0.0279458
0.0279485
0.027951
0.0279534
0.0279556
0.0279577
0.0279595
0.0279612
0.0279627
0.0279639
0.0279649
0.0279658
0.0279664
0.0279669
0.0279672
0.0279674
0.0279674
0.0279674
0.0279673
0.0279671
0.027967
0.0279669
0.0279666
0.0279663
0.027966
0.0279654
0.0279643
0.0279631
0.0279616
0.0279591
0.0279561
0.0279532
0.027949
0.0279432
0.0279382
0.0279324
0.0279241
0.0279152
0.0279077
0.0278974
0.0278842
0.0278735
0.0278616
0.0278455
0.0278299
0.0278165
0.027799
0.0277793
0.0277628
0.0277449
0.0277223
0.027702
0.0276838
0.0276592
0.0276355
0.0276144
0.0275904
0.0275598
0.0275335
0.0275078
0.0274822
0.027444
0.0274099
0.0273779
0.0273479
0.0273083
0.0272668
0.0272289
0.0271915
0.0271488
0.0271054
0.0270638
0.0270225
0.0269803
0.0269378
0.0268956
0.0268537
0.0268119
0.0267703
0.0267294
0.0279583
0.0279599
0.0279616
0.0279635
0.0279655
0.0279676
0.0279699
0.0279723
0.0279748
0.0279775
0.0279803
0.0279832
0.0279863
0.0279895
0.0279928
0.0279962
0.0279998
0.0280036
0.0280074
0.0280114
0.0280155
0.0280197
0.028024
0.0280285
0.028033
0.0280377
0.0280424
0.0280472
0.0280521
0.028057
0.028062
0.028067
0.0280721
0.0280772
0.0280822
0.0280873
0.0280923
0.0280972
0.0281021
0.028107
0.0281118
0.0281164
0.028121
0.0281254
0.0281297
0.0281339
0.0281379
0.0281417
0.0281454
0.0281489
0.0281522
0.0281552
0.0281581
0.0281607
0.028163
0.0281651
0.0281669
0.0281685
0.0281698
0.0281708
0.0281716
0.0281721
0.0281723
0.0281724
0.0281723
0.028172
0.0281715
0.0281708
0.02817
0.028169
0.0281676
0.0281657
0.0281636
0.0281611
0.0281576
0.0281536
0.0281493
0.0281439
0.0281371
0.0281305
0.0281232
0.0281135
0.0281032
0.0280939
0.028082
0.0280673
0.0280545
0.028041
0.0280235
0.0280055
0.0279902
0.0279713
0.0279493
0.0279301
0.027911
0.0278867
0.0278637
0.0278435
0.0278185
0.0277923
0.0277689
0.0277459
0.0277149
0.0276876
0.0276608
0.0276366
0.0276003
0.0275649
0.0275333
0.027503
0.027469
0.0274268
0.0273889
0.027352
0.027313
0.0272709
0.02723
0.02719
0.0271497
0.027109
0.0270681
0.0270274
0.0269868
0.0269464
0.0269063
0.0281014
0.0281035
0.0281058
0.0281082
0.0281108
0.0281135
0.0281163
0.0281193
0.0281224
0.0281257
0.0281291
0.0281327
0.0281364
0.0281402
0.0281442
0.0281483
0.0281527
0.0281571
0.0281617
0.0281665
0.0281714
0.0281764
0.0281816
0.0281869
0.0281923
0.0281979
0.0282036
0.0282094
0.0282153
0.0282213
0.0282273
0.0282334
0.0282396
0.0282458
0.0282521
0.0282584
0.0282646
0.0282709
0.0282771
0.0282833
0.0282894
0.0282954
0.0283013
0.0283072
0.0283129
0.0283184
0.0283238
0.028329
0.028334
0.0283388
0.0283434
0.0283478
0.0283519
0.0283557
0.0283592
0.0283624
0.0283653
0.0283678
0.0283699
0.0283717
0.0283731
0.028374
0.0283746
0.0283748
0.0283746
0.0283741
0.0283732
0.0283719
0.0283703
0.0283683
0.028366
0.0283632
0.02836
0.0283562
0.0283519
0.0283468
0.028341
0.0283348
0.0283273
0.0283187
0.0283101
0.0283004
0.0282887
0.0282763
0.0282645
0.0282504
0.0282337
0.0282184
0.0282026
0.0281831
0.0281625
0.0281447
0.0281239
0.0280996
0.0280775
0.0280565
0.0280304
0.0280046
0.0279818
0.027956
0.0279273
0.0279016
0.0278777
0.0278465
0.0278177
0.0277902
0.0277657
0.0277308
0.0276949
0.0276636
0.0276326
0.0276022
0.0275608
0.0275231
0.0274869
0.02745
0.0274105
0.027371
0.0273323
0.0272937
0.0272547
0.0272155
0.0271763
0.0271371
0.027098
0.0270591
0.0282466
0.0282494
0.0282524
0.0282555
0.0282587
0.0282621
0.0282657
0.0282694
0.0282732
0.0282772
0.0282814
0.0282857
0.0282902
0.0282949
0.0282997
0.0283047
0.0283099
0.0283152
0.0283207
0.0283264
0.0283323
0.0283383
0.0283444
0.0283508
0.0283572
0.0283639
0.0283706
0.0283775
0.0283845
0.0283916
0.0283987
0.028406
0.0284133
0.0284207
0.0284282
0.0284356
0.0284431
0.0284505
0.0284579
0.0284653
0.0284726
0.0284798
0.0284869
0.0284939
0.0285008
0.0285074
0.0285139
0.0285201
0.0285262
0.0285319
0.0285374
0.0285426
0.0285474
0.0285519
0.028556
0.0285597
0.028563
0.0285658
0.0285681
0.0285699
0.0285711
0.0285719
0.028572
0.0285716
0.0285707
0.0285692
0.0285672
0.0285646
0.0285615
0.0285578
0.0285536
0.0285488
0.0285434
0.0285374
0.0285307
0.0285231
0.0285149
0.0285059
0.0284958
0.0284847
0.0284732
0.0284606
0.0284462
0.0284312
0.0284164
0.0283994
0.0283801
0.0283618
0.0283432
0.0283213
0.0282978
0.0282771
0.028254
0.0282272
0.0282021
0.0281788
0.0281509
0.0281221
0.0280966
0.0280697
0.0280387
0.0280106
0.0279851
0.0279536
0.0279231
0.0278947
0.0278693
0.0278353
0.0277993
0.0277682
0.0277368
0.0277077
0.0276683
0.0276313
0.0275963
0.0275607
0.0275238
0.0274861
0.027449
0.0274121
0.027375
0.0273377
0.0273002
0.0272627
0.0272252
0.0271878
0.0271504
0.0271132
0.028392
0.0283955
0.0283991
0.0284029
0.0284069
0.028411
0.0284152
0.0284196
0.0284242
0.028429
0.0284339
0.0284391
0.0284444
0.0284499
0.0284555
0.0284614
0.0284674
0.0284737
0.0284801
0.0284867
0.0284935
0.0285005
0.0285077
0.028515
0.0285225
0.0285302
0.028538
0.0285459
0.028554
0.0285622
0.0285705
0.0285788
0.0285873
0.0285958
0.0286044
0.0286129
0.0286215
0.0286301
0.0286386
0.028647
0.0286554
0.0286637
0.0286718
0.0286798
0.0286875
0.0286951
0.0287024
0.0287095
0.0287162
0.0287226
0.0287287
0.0287343
0.0287396
0.0287443
0.0287486
0.0287524
0.0287556
0.0287582
0.0287602
0.0287615
0.0287621
0.028762
0.0287612
0.0287598
0.0287575
0.0287545
0.0287508
0.0287463
0.0287411
0.0287351
0.0287284
0.028721
0.0287128
0.0287038
0.0286941
0.0286835
0.028672
0.0286598
0.0286464
0.0286321
0.0286171
0.028601
0.0285834
0.0285651
0.0285467
0.0285264
0.028504
0.0284824
0.0284605
0.0284356
0.0284093
0.0283853
0.0283596
0.0283303
0.0283022
0.0282762
0.0282464
0.0282149
0.0281867
0.0281584
0.0281255
0.028095
0.0280676
0.0280358
0.0280036
0.0279743
0.0279478
0.0279142
0.0278785
0.0278476
0.0278164
0.0277876
0.02775
0.0277143
0.0276807
0.0276467
0.0276119
0.0275764
0.0275412
0.0275061
0.027471
0.0274357
0.0274003
0.0273647
0.027329
0.0272933
0.0272575
0.0272218
0.0285372
0.0285413
0.0285456
0.0285501
0.0285547
0.0285595
0.0285645
0.0285696
0.028575
0.0285805
0.0285862
0.0285921
0.0285982
0.0286045
0.0286111
0.0286178
0.0286247
0.0286319
0.0286392
0.0286468
0.0286545
0.0286625
0.0286706
0.0286789
0.0286874
0.0286961
0.0287049
0.0287139
0.028723
0.0287322
0.0287415
0.0287509
0.0287604
0.02877
0.0287795
0.0287891
0.0287987
0.0288082
0.0288177
0.028827
0.0288363
0.0288454
0.0288543
0.028863
0.0288714
0.0288796
0.0288875
0.028895
0.0289021
0.0289088
0.028915
0.0289208
0.028926
0.0289306
0.0289346
0.0289379
0.0289405
0.0289424
0.0289435
0.0289437
0.0289432
0.0289418
0.0289395
0.0289362
0.0289321
0.028927