/*--------------------------------*- C++ -*----------------------------------*\
| =========                 |                                                 |
| \\      /  F ield         | OpenFOAM: The Open Source CFD Toolbox           |
|  \\    /   O peration     | Version:  v1706                                 |
|   \\  /    A nd           | Web:      www.OpenFOAM.com                      |
|    \\/     M anipulation  |                                                 |
\*---------------------------------------------------------------------------*/
FoamFile
{
    version     2.0;
    format      ascii;
    class       volScalarField;
    location    "3.9e-05";
    object      mu;
}
// * * * * * * * * * * * * * * * * * * * * * * * * * * * * * * * * * * * * * //

dimensions      [1 -1 -1 0 0 0 0];


internalField   nonuniform List<scalar> 
29871
(
1.03782e-05
1.03822e-05
1.03866e-05
1.03917e-05
1.03975e-05
1.0404e-05
1.04115e-05
1.04201e-05
1.043e-05
1.04411e-05
1.04536e-05
1.04676e-05
1.0483e-05
1.05001e-05
1.05191e-05
1.05406e-05
1.05652e-05
1.05934e-05
1.06252e-05
1.06608e-05
1.07e-05
1.07425e-05
1.07882e-05
1.08374e-05
1.08915e-05
1.09522e-05
1.10198e-05
1.10936e-05
1.11722e-05
1.12549e-05
1.13406e-05
1.14285e-05
1.15175e-05
1.16065e-05
1.16944e-05
1.17809e-05
1.18677e-05
1.1966e-05
1.20896e-05
1.22313e-05
1.23817e-05
1.25333e-05
1.26809e-05
1.28212e-05
1.29522e-05
1.30731e-05
1.31837e-05
1.32845e-05
1.3376e-05
1.34585e-05
1.35323e-05
1.35974e-05
1.36538e-05
1.37013e-05
1.37401e-05
1.37709e-05
1.37942e-05
1.38107e-05
1.38215e-05
1.38273e-05
1.38273e-05
1.38248e-05
1.38202e-05
1.38139e-05
1.3805e-05
1.3795e-05
1.3785e-05
1.37736e-05
1.37606e-05
1.37462e-05
1.37302e-05
1.3713e-05
1.36948e-05
1.36749e-05
1.36532e-05
1.36305e-05
1.36066e-05
1.3581e-05
1.3554e-05
1.35265e-05
1.34981e-05
1.34684e-05
1.34377e-05
1.34061e-05
1.33733e-05
1.33396e-05
1.33053e-05
1.32702e-05
1.32345e-05
1.31982e-05
1.31615e-05
1.31242e-05
1.30865e-05
1.30484e-05
1.30101e-05
1.29715e-05
1.29328e-05
1.2894e-05
1.28549e-05
1.28155e-05
1.27757e-05
1.27356e-05
1.26949e-05
1.26538e-05
1.26122e-05
1.05199e-05
1.05443e-05
1.05718e-05
1.06028e-05
1.06376e-05
1.06767e-05
1.07209e-05
1.07712e-05
1.08284e-05
1.08931e-05
1.09656e-05
1.10459e-05
1.11341e-05
1.12305e-05
1.13367e-05
1.14552e-05
1.15874e-05
1.17332e-05
1.18916e-05
1.20608e-05
1.22389e-05
1.24239e-05
1.26143e-05
1.28101e-05
1.30176e-05
1.32541e-05
1.35168e-05
1.37981e-05
1.40889e-05
1.43806e-05
1.46655e-05
1.49376e-05
1.51926e-05
1.54274e-05
1.56405e-05
1.58319e-05
1.60017e-05
1.61491e-05
1.6272e-05
1.63721e-05
1.64516e-05
1.65129e-05
1.65582e-05
1.65896e-05
1.66098e-05
1.66225e-05
1.6631e-05
1.66376e-05
1.66436e-05
1.66493e-05
1.66547e-05
1.66594e-05
1.66636e-05
1.66649e-05
1.66636e-05
1.66604e-05
1.66549e-05
1.66466e-05
1.66353e-05
1.66214e-05
1.6605e-05
1.65869e-05
1.65674e-05
1.65467e-05
1.6526e-05
1.65063e-05
1.64865e-05
1.64662e-05
1.6446e-05
1.64263e-05
1.64068e-05
1.63873e-05
1.63681e-05
1.63486e-05
1.63285e-05
1.63081e-05
1.62874e-05
1.62658e-05
1.62442e-05
1.62226e-05
1.62005e-05
1.61779e-05
1.61555e-05
1.61323e-05
1.61084e-05
1.60845e-05
1.60604e-05
1.60359e-05
1.60112e-05
1.59865e-05
1.59619e-05
1.59373e-05
1.59128e-05
1.58885e-05
1.58644e-05
1.58405e-05
1.58169e-05
1.57936e-05
1.57705e-05
1.57476e-05
1.57249e-05
1.57023e-05
1.56798e-05
1.56575e-05
1.56354e-05
1.08746e-05
1.09477e-05
1.10301e-05
1.11224e-05
1.12247e-05
1.13376e-05
1.14625e-05
1.16017e-05
1.17573e-05
1.19296e-05
1.21177e-05
1.23202e-05
1.25352e-05
1.27607e-05
1.29958e-05
1.32428e-05
1.35171e-05
1.38206e-05
1.41465e-05
1.44852e-05
1.48267e-05
1.51618e-05
1.54829e-05
1.57844e-05
1.60623e-05
1.6313e-05
1.65324e-05
1.67221e-05
1.6885e-05
1.70244e-05
1.71436e-05
1.72454e-05
1.73317e-05
1.74035e-05
1.74612e-05
1.75048e-05
1.75354e-05
1.75559e-05
1.75691e-05
1.75772e-05
1.75799e-05
1.75784e-05
1.75739e-05
1.75649e-05
1.75505e-05
1.75301e-05
1.75047e-05
1.74763e-05
1.74467e-05
1.74168e-05
1.73876e-05
1.73596e-05
1.73333e-05
1.73089e-05
1.72863e-05
1.7265e-05
1.72449e-05
1.72254e-05
1.7206e-05
1.71861e-05
1.71654e-05
1.71434e-05
1.71201e-05
1.70955e-05
1.70695e-05
1.70424e-05
1.70147e-05
1.69866e-05
1.69582e-05
1.69295e-05
1.69009e-05
1.68731e-05
1.6845e-05
1.68169e-05
1.6791e-05
1.67662e-05
1.67375e-05
1.6712e-05
1.66889e-05
1.66648e-05
1.66375e-05
1.66128e-05
1.65906e-05
1.65666e-05
1.65416e-05
1.65188e-05
1.64962e-05
1.64729e-05
1.64497e-05
1.6427e-05
1.64044e-05
1.63819e-05
1.63596e-05
1.63376e-05
1.6316e-05
1.62947e-05
1.62737e-05
1.6253e-05
1.62326e-05
1.62126e-05
1.61928e-05
1.61733e-05
1.61541e-05
1.61351e-05
1.61164e-05
1.6098e-05
1.19288e-05
1.21237e-05
1.23356e-05
1.25626e-05
1.28029e-05
1.30551e-05
1.33201e-05
1.36093e-05
1.39281e-05
1.42709e-05
1.46287e-05
1.49913e-05
1.53489e-05
1.56933e-05
1.60179e-05
1.63176e-05
1.65859e-05
1.68217e-05
1.70266e-05
1.72029e-05
1.73532e-05
1.74804e-05
1.75874e-05
1.76765e-05
1.77494e-05
1.78077e-05
1.78525e-05
1.78851e-05
1.79073e-05
1.79221e-05
1.79325e-05
1.79411e-05
1.79493e-05
1.79572e-05
1.79642e-05
1.79675e-05
1.79656e-05
1.79599e-05
1.79507e-05
1.79389e-05
1.7925e-05
1.79099e-05
1.78945e-05
1.78799e-05
1.78664e-05
1.78528e-05
1.7837e-05
1.78174e-05
1.7794e-05
1.77676e-05
1.77394e-05
1.77104e-05
1.76813e-05
1.76529e-05
1.76255e-05
1.75995e-05
1.75747e-05
1.75512e-05
1.75284e-05
1.7506e-05
1.74833e-05
1.74598e-05
1.7435e-05
1.74086e-05
1.73804e-05
1.73504e-05
1.73187e-05
1.72858e-05
1.72518e-05
1.72168e-05
1.71814e-05
1.71465e-05
1.71112e-05
1.70754e-05
1.70418e-05
1.70097e-05
1.69738e-05
1.6941e-05
1.6911e-05
1.68802e-05
1.6846e-05
1.68146e-05
1.6786e-05
1.6756e-05
1.67248e-05
1.66959e-05
1.66676e-05
1.66388e-05
1.66102e-05
1.65823e-05
1.65548e-05
1.65275e-05
1.65005e-05
1.6474e-05
1.6448e-05
1.64224e-05
1.63974e-05
1.63727e-05
1.63484e-05
1.63246e-05
1.63012e-05
1.62784e-05
1.62561e-05
1.62344e-05
1.62132e-05
1.61925e-05
1.38171e-05
1.41569e-05
1.4517e-05
1.48884e-05
1.52608e-05
1.56247e-05
1.59721e-05
1.62962e-05
1.659e-05
1.68504e-05
1.70779e-05
1.72744e-05
1.74426e-05
1.75855e-05
1.77061e-05
1.78073e-05
1.78914e-05
1.79602e-05
1.80156e-05
1.80594e-05
1.80931e-05
1.8118e-05
1.81364e-05
1.81508e-05
1.81628e-05
1.8173e-05
1.81815e-05
1.81879e-05
1.81905e-05
1.8189e-05
1.81841e-05
1.81765e-05
1.81674e-05
1.81582e-05
1.81501e-05
1.81445e-05
1.81421e-05
1.81419e-05
1.81408e-05
1.81367e-05
1.81287e-05
1.8117e-05
1.81027e-05
1.80869e-05
1.80709e-05
1.8056e-05
1.8043e-05
1.80305e-05
1.80162e-05
1.7999e-05
1.79785e-05
1.79552e-05
1.79296e-05
1.79026e-05
1.78748e-05
1.78468e-05
1.78192e-05
1.77922e-05
1.77659e-05
1.77403e-05
1.77152e-05
1.76902e-05
1.7665e-05
1.76391e-05
1.76122e-05
1.75839e-05
1.7554e-05
1.75225e-05
1.74894e-05
1.74549e-05
1.74191e-05
1.73821e-05
1.73444e-05
1.73066e-05
1.72677e-05
1.72297e-05
1.71925e-05
1.71537e-05
1.71167e-05
1.70821e-05
1.70465e-05
1.70064e-05
1.69705e-05
1.69376e-05
1.69032e-05
1.68666e-05
1.68329e-05
1.68012e-05
1.67682e-05
1.67351e-05
1.67033e-05
1.66724e-05
1.66419e-05
1.66118e-05
1.6582e-05
1.65529e-05
1.65247e-05
1.6497e-05
1.64695e-05
1.64424e-05
1.64159e-05
1.63899e-05
1.63645e-05
1.63396e-05
1.63153e-05
1.62916e-05
1.62686e-05
1.67223e-05
1.6984e-05
1.72124e-05
1.74091e-05
1.7577e-05
1.77192e-05
1.78389e-05
1.79389e-05
1.80215e-05
1.8089e-05
1.81434e-05
1.81866e-05
1.822e-05
1.82454e-05
1.82652e-05
1.82816e-05
1.82958e-05
1.83082e-05
1.83187e-05
1.8327e-05
1.83328e-05
1.83348e-05
1.83339e-05
1.83313e-05
1.83275e-05
1.83232e-05
1.83192e-05
1.83157e-05
1.83126e-05
1.83103e-05
1.83077e-05
1.83032e-05
1.82958e-05
1.82863e-05
1.82762e-05
1.82668e-05
1.82595e-05
1.82557e-05
1.82539e-05
1.82513e-05
1.82466e-05
1.8239e-05
1.82284e-05
1.82154e-05
1.8201e-05
1.8186e-05
1.81714e-05
1.81582e-05
1.8146e-05
1.81335e-05
1.81195e-05
1.81036e-05
1.80855e-05
1.80654e-05
1.80437e-05
1.8021e-05
1.79975e-05
1.79736e-05
1.79498e-05
1.79261e-05
1.79024e-05
1.78788e-05
1.78551e-05
1.78308e-05
1.78058e-05
1.77797e-05
1.77521e-05
1.77229e-05
1.7692e-05
1.76594e-05
1.7625e-05
1.75889e-05
1.75513e-05
1.75125e-05
1.74728e-05
1.74326e-05
1.73925e-05
1.73513e-05
1.7311e-05
1.7273e-05
1.72327e-05
1.71894e-05
1.71498e-05
1.71125e-05
1.70752e-05
1.70323e-05
1.69929e-05
1.69567e-05
1.6921e-05
1.68823e-05
1.68446e-05
1.68099e-05
1.67766e-05
1.67421e-05
1.67066e-05
1.66734e-05
1.66419e-05
1.66102e-05
1.6578e-05
1.65465e-05
1.65161e-05
1.64865e-05
1.64571e-05
1.64282e-05
1.64002e-05
1.6373e-05
1.63464e-05
1.77968e-05
1.79213e-05
1.8025e-05
1.81105e-05
1.81803e-05
1.82368e-05
1.82817e-05
1.83166e-05
1.83435e-05
1.8365e-05
1.8383e-05
1.83987e-05
1.84123e-05
1.84237e-05
1.84329e-05
1.84392e-05
1.84423e-05
1.84423e-05
1.84413e-05
1.84396e-05
1.84378e-05
1.8436e-05
1.84346e-05
1.84337e-05
1.84339e-05
1.84337e-05
1.84318e-05
1.84278e-05
1.84222e-05
1.84158e-05
1.84092e-05
1.84029e-05
1.83985e-05
1.83949e-05
1.83911e-05
1.83858e-05
1.83787e-05
1.83702e-05
1.83609e-05
1.83518e-05
1.83444e-05
1.83392e-05
1.8336e-05
1.83332e-05
1.83295e-05
1.83239e-05
1.83161e-05
1.83064e-05
1.82951e-05
1.8283e-05
1.8271e-05
1.82598e-05
1.82492e-05
1.82385e-05
1.82273e-05
1.82148e-05
1.82006e-05
1.81846e-05
1.81673e-05
1.81486e-05
1.81288e-05
1.81086e-05
1.8088e-05
1.8067e-05
1.8046e-05
1.80248e-05
1.80032e-05
1.79811e-05
1.79581e-05
1.7934e-05
1.79085e-05
1.78812e-05
1.78521e-05
1.78212e-05
1.77884e-05
1.77535e-05
1.77166e-05
1.76783e-05
1.76391e-05
1.7599e-05
1.75574e-05
1.75161e-05
1.74761e-05
1.74343e-05
1.73903e-05
1.73487e-05
1.73084e-05
1.72706e-05
1.72242e-05
1.71806e-05
1.71406e-05
1.7103e-05
1.70599e-05
1.70177e-05
1.69797e-05
1.69441e-05
1.69056e-05
1.68649e-05
1.68283e-05
1.67941e-05
1.67591e-05
1.67216e-05
1.66861e-05
1.66532e-05
1.66203e-05
1.65866e-05
1.65539e-05
1.65227e-05
1.64922e-05
1.64621e-05
1.84298e-05
1.84535e-05
1.84733e-05
1.84903e-05
1.85049e-05
1.85171e-05
1.85269e-05
1.85337e-05
1.85375e-05
1.85385e-05
1.85382e-05
1.85377e-05
1.85368e-05
1.85362e-05
1.85359e-05
1.85365e-05
1.85377e-05
1.85377e-05
1.85362e-05
1.85331e-05
1.85288e-05
1.85237e-05
1.85186e-05
1.85141e-05
1.85116e-05
1.85098e-05
1.85078e-05
1.85047e-05
1.85002e-05
1.84943e-05
1.84877e-05
1.84808e-05
1.84744e-05
1.84689e-05
1.84643e-05
1.84601e-05
1.84552e-05
1.84493e-05
1.84426e-05
1.84353e-05
1.84281e-05
1.84222e-05
1.84175e-05
1.84143e-05
1.84119e-05
1.8409e-05
1.8405e-05
1.83994e-05
1.83921e-05
1.83832e-05
1.83734e-05
1.83635e-05
1.83539e-05
1.83443e-05
1.8335e-05
1.83256e-05
1.83152e-05
1.83032e-05
1.82902e-05
1.8276e-05
1.82602e-05
1.82435e-05
1.82265e-05
1.82086e-05
1.81904e-05
1.81723e-05
1.81536e-05
1.81345e-05
1.8115e-05
1.80946e-05
1.80731e-05
1.80503e-05
1.80256e-05
1.79993e-05
1.79711e-05
1.79408e-05
1.79081e-05
1.78734e-05
1.78375e-05
1.78003e-05
1.77602e-05
1.77204e-05
1.76816e-05
1.76407e-05
1.7597e-05
1.75555e-05
1.75146e-05
1.74776e-05
1.74307e-05
1.7385e-05
1.73431e-05
1.73041e-05
1.72598e-05
1.72145e-05
1.71744e-05
1.71369e-05
1.70954e-05
1.70511e-05
1.70122e-05
1.69757e-05
1.69385e-05
1.68964e-05
1.6858e-05
1.68228e-05
1.67874e-05
1.67492e-05
1.67133e-05
1.668e-05
1.66463e-05
1.66121e-05
1.86311e-05
1.8633e-05
1.86331e-05
1.86329e-05
1.86325e-05
1.86322e-05
1.86324e-05
1.86334e-05
1.86352e-05
1.86353e-05
1.86339e-05
1.86313e-05
1.86273e-05
1.86229e-05
1.86185e-05
1.86153e-05
1.86136e-05
1.86123e-05
1.86106e-05
1.86077e-05
1.86036e-05
1.85987e-05
1.85932e-05
1.85877e-05
1.85827e-05
1.85789e-05
1.8576e-05
1.85734e-05
1.85704e-05
1.85666e-05
1.85619e-05
1.85565e-05
1.85508e-05
1.85452e-05
1.85404e-05
1.85361e-05
1.8532e-05
1.85277e-05
1.85229e-05
1.85174e-05
1.85114e-05
1.85055e-05
1.85004e-05
1.84963e-05
1.8493e-05
1.84904e-05
1.84878e-05
1.84845e-05
1.84801e-05
1.84742e-05
1.84669e-05
1.8459e-05
1.84512e-05
1.84426e-05
1.84338e-05
1.84258e-05
1.84175e-05
1.84079e-05
1.83976e-05
1.83868e-05
1.83746e-05
1.83608e-05
1.83471e-05
1.83324e-05
1.83165e-05
1.83012e-05
1.82855e-05
1.82688e-05
1.82523e-05
1.82352e-05
1.82171e-05
1.81985e-05
1.81783e-05
1.81565e-05
1.81334e-05
1.81084e-05
1.80808e-05
1.80511e-05
1.802e-05
1.79879e-05
1.79512e-05
1.79147e-05
1.7879e-05
1.78421e-05
1.77995e-05
1.77596e-05
1.77204e-05
1.76852e-05
1.76399e-05
1.75944e-05
1.75528e-05
1.75135e-05
1.74702e-05
1.74238e-05
1.73829e-05
1.73446e-05
1.73019e-05
1.7256e-05
1.7216e-05
1.71781e-05
1.71397e-05
1.70948e-05
1.70548e-05
1.7018e-05
1.6981e-05
1.69393e-05
1.6901e-05
1.68658e-05
1.68287e-05
1.67918e-05
1.87328e-05
1.87332e-05
1.8732e-05
1.87295e-05
1.87256e-05
1.87213e-05
1.8717e-05
1.8714e-05
1.87124e-05
1.8711e-05
1.87092e-05
1.87063e-05
1.87024e-05
1.86977e-05
1.86927e-05
1.86878e-05
1.86837e-05
1.86809e-05
1.86787e-05
1.86766e-05
1.86741e-05
1.86709e-05
1.8667e-05
1.86626e-05
1.86581e-05
1.8654e-05
1.86506e-05
1.86478e-05
1.86453e-05
1.86427e-05
1.86395e-05
1.86356e-05
1.86311e-05
1.86263e-05
1.86215e-05
1.86169e-05
1.86128e-05
1.86087e-05
1.86046e-05
1.86002e-05
1.85953e-05
1.859e-05
1.85849e-05
1.85802e-05
1.85763e-05
1.8573e-05
1.85702e-05
1.85673e-05
1.85643e-05
1.85606e-05
1.85553e-05
1.85494e-05
1.85436e-05
1.85364e-05
1.85283e-05
1.8521e-05
1.85142e-05
1.85056e-05
1.84967e-05
1.84883e-05
1.84792e-05
1.84675e-05
1.84561e-05
1.84447e-05
1.84308e-05
1.84175e-05
1.84046e-05
1.839e-05
1.83755e-05
1.83613e-05
1.83457e-05
1.83305e-05
1.83143e-05
1.82963e-05
1.82777e-05
1.82577e-05
1.82354e-05
1.82107e-05
1.8185e-05
1.81591e-05
1.81271e-05
1.80948e-05
1.80631e-05
1.80322e-05
1.79922e-05
1.79551e-05
1.79191e-05
1.78864e-05
1.78438e-05
1.78005e-05
1.77612e-05
1.77234e-05
1.76816e-05
1.7636e-05
1.7596e-05
1.75582e-05
1.75153e-05
1.74695e-05
1.74297e-05
1.73916e-05
1.73527e-05
1.73069e-05
1.7267e-05
1.72299e-05
1.71917e-05
1.71478e-05
1.71077e-05
1.70712e-05
1.70318e-05
1.69942e-05
1.88127e-05
1.88109e-05
1.88088e-05
1.88056e-05
1.88016e-05
1.87968e-05
1.87917e-05
1.87869e-05
1.8783e-05
1.87803e-05
1.87784e-05
1.87765e-05
1.87741e-05
1.87712e-05
1.87678e-05
1.8764e-05
1.87602e-05
1.87569e-05
1.87544e-05
1.87524e-05
1.87506e-05
1.87485e-05
1.8746e-05
1.8743e-05
1.87395e-05
1.87359e-05
1.87324e-05
1.87292e-05
1.87265e-05
1.8724e-05
1.87214e-05
1.87185e-05
1.8715e-05
1.87111e-05
1.87068e-05
1.87025e-05
1.86982e-05
1.86941e-05
1.86901e-05
1.8686e-05
1.86817e-05
1.86771e-05
1.86723e-05
1.86675e-05
1.8663e-05
1.86591e-05
1.86557e-05
1.86526e-05
1.86497e-05
1.86469e-05
1.86427e-05
1.86384e-05
1.86344e-05
1.86284e-05
1.86213e-05
1.86151e-05
1.86095e-05
1.86012e-05
1.85936e-05
1.85866e-05
1.85794e-05
1.8569e-05
1.85597e-05
1.85513e-05
1.85389e-05
1.85274e-05
1.85172e-05
1.8504e-05
1.84912e-05
1.84794e-05
1.8466e-05
1.84528e-05
1.84399e-05
1.84248e-05
1.84092e-05
1.83941e-05
1.83763e-05
1.83561e-05
1.83353e-05
1.83153e-05
1.82883e-05
1.82609e-05
1.82339e-05
1.82086e-05
1.81729e-05
1.81397e-05
1.81078e-05
1.80782e-05
1.80385e-05
1.79991e-05
1.79633e-05
1.79287e-05
1.78878e-05
1.78447e-05
1.78068e-05
1.77707e-05
1.77284e-05
1.76842e-05
1.76456e-05
1.76087e-05
1.75689e-05
1.75243e-05
1.74856e-05
1.74488e-05
1.74104e-05
1.73657e-05
1.73248e-05
1.72868e-05
1.72477e-05
1.72103e-05
1.88887e-05
1.88843e-05
1.88811e-05
1.88788e-05
1.88767e-05
1.88743e-05
1.88714e-05
1.88681e-05
1.88644e-05
1.88608e-05
1.88578e-05
1.88556e-05
1.88539e-05
1.88524e-05
1.88507e-05
1.88486e-05
1.88461e-05
1.88433e-05
1.88404e-05
1.88377e-05
1.88355e-05
1.88337e-05
1.8832e-05
1.88301e-05
1.8828e-05
1.88255e-05
1.88227e-05
1.88197e-05
1.88167e-05
1.88138e-05
1.88112e-05
1.88087e-05
1.88062e-05
1.88033e-05
1.88001e-05
1.87965e-05
1.87926e-05
1.87886e-05
1.87845e-05
1.87805e-05
1.87765e-05
1.87724e-05
1.87681e-05
1.87636e-05
1.8759e-05
1.87545e-05
1.87502e-05
1.87463e-05
1.87425e-05
1.87394e-05
1.87366e-05
1.8733e-05
1.87296e-05
1.87266e-05
1.87217e-05
1.87158e-05
1.87107e-05
1.8706e-05
1.86987e-05
1.86917e-05
1.86859e-05
1.86798e-05
1.86707e-05
1.8663e-05
1.86564e-05
1.86461e-05
1.86359e-05
1.86276e-05
1.86166e-05
1.86049e-05
1.85951e-05
1.85835e-05
1.85716e-05
1.85611e-05
1.85482e-05
1.85354e-05
1.85238e-05
1.85089e-05
1.84924e-05
1.84761e-05
1.84611e-05
1.84382e-05
1.8416e-05
1.83941e-05
1.83734e-05
1.83422e-05
1.83139e-05
1.82865e-05
1.82602e-05
1.82234e-05
1.81891e-05
1.81572e-05
1.81261e-05
1.80862e-05
1.8047e-05
1.80118e-05
1.7978e-05
1.79368e-05
1.78953e-05
1.78585e-05
1.78235e-05
1.7783e-05
1.77409e-05
1.77038e-05
1.76683e-05
1.76294e-05
1.75854e-05
1.75451e-05
1.75069e-05
1.74687e-05
1.74317e-05
1.89669e-05
1.89631e-05
1.89598e-05
1.89573e-05
1.89555e-05
1.89539e-05
1.89522e-05
1.89502e-05
1.89478e-05
1.89452e-05
1.89427e-05
1.89404e-05
1.89386e-05
1.89372e-05
1.89359e-05
1.89345e-05
1.8933e-05
1.89311e-05
1.8929e-05
1.89268e-05
1.89247e-05
1.89229e-05
1.89212e-05
1.89197e-05
1.89181e-05
1.89163e-05
1.89142e-05
1.89118e-05
1.89093e-05
1.89067e-05
1.89041e-05
1.89017e-05
1.88992e-05
1.88967e-05
1.8894e-05
1.8891e-05
1.88876e-05
1.8884e-05
1.88802e-05
1.88763e-05
1.88724e-05
1.88684e-05
1.88643e-05
1.88601e-05
1.88557e-05
1.88513e-05
1.88469e-05
1.88427e-05
1.88387e-05
1.88352e-05
1.88321e-05
1.88287e-05
1.88254e-05
1.88229e-05
1.88191e-05
1.88142e-05
1.88101e-05
1.88063e-05
1.88002e-05
1.87939e-05
1.8789e-05
1.87838e-05
1.87761e-05
1.87694e-05
1.87641e-05
1.87559e-05
1.87469e-05
1.874e-05
1.87313e-05
1.87207e-05
1.87123e-05
1.87027e-05
1.86917e-05
1.86827e-05
1.8672e-05
1.86608e-05
1.86514e-05
1.8639e-05
1.86256e-05
1.86129e-05
1.8601e-05
1.85815e-05
1.85642e-05
1.85473e-05
1.85295e-05
1.85027e-05
1.84798e-05
1.84569e-05
1.84333e-05
1.84e-05
1.83711e-05
1.83429e-05
1.83147e-05
1.82769e-05
1.82422e-05
1.82098e-05
1.81783e-05
1.81386e-05
1.81004e-05
1.80655e-05
1.80324e-05
1.79923e-05
1.79531e-05
1.79176e-05
1.78836e-05
1.78439e-05
1.78025e-05
1.77638e-05
1.77262e-05
1.76888e-05
1.76522e-05
1.76172e-05
1.75819e-05
1.90507e-05
1.90481e-05
1.90454e-05
1.90431e-05
1.90412e-05
1.90397e-05
1.90385e-05
1.90372e-05
1.90358e-05
1.90342e-05
1.90325e-05
1.90307e-05
1.90291e-05
1.90277e-05
1.90266e-05
1.90256e-05
1.90245e-05
1.90234e-05
1.9022e-05
1.90205e-05
1.90189e-05
1.90174e-05
1.90159e-05
1.90146e-05
1.90132e-05
1.90119e-05
1.90103e-05
1.90086e-05
1.90066e-05
1.90045e-05
1.90022e-05
1.9e-05
1.89977e-05
1.89954e-05
1.8993e-05
1.89904e-05
1.89876e-05
1.89845e-05
1.89811e-05
1.89775e-05
1.89739e-05
1.89701e-05
1.89662e-05
1.89623e-05
1.89582e-05
1.8954e-05
1.89498e-05
1.89456e-05
1.89416e-05
1.89379e-05
1.89346e-05
1.89311e-05
1.8928e-05
1.89256e-05
1.89225e-05
1.89185e-05
1.89152e-05
1.89122e-05
1.89074e-05
1.8902e-05
1.88979e-05
1.88937e-05
1.88873e-05
1.88814e-05
1.88771e-05
1.88708e-05
1.8863e-05
1.88573e-05
1.88505e-05
1.88413e-05
1.88341e-05
1.88264e-05
1.88162e-05
1.88082e-05
1.87997e-05
1.87892e-05
1.87808e-05
1.8771e-05
1.87595e-05
1.87493e-05
1.87392e-05
1.87232e-05
1.87094e-05
1.8697e-05
1.86802e-05
1.86583e-05
1.86398e-05
1.86219e-05
1.85989e-05
1.85703e-05
1.85463e-05
1.85222e-05
1.84952e-05
1.84603e-05
1.84304e-05
1.84012e-05
1.83713e-05
1.83333e-05
1.82987e-05
1.8266e-05
1.82342e-05
1.81954e-05
1.8159e-05
1.81248e-05
1.80915e-05
1.80526e-05
1.80142e-05
1.79776e-05
1.79409e-05
1.79039e-05
1.7868e-05
1.78333e-05
1.77988e-05
1.91419e-05
1.91404e-05
1.9139e-05
1.91373e-05
1.91356e-05
1.91339e-05
1.91323e-05
1.9131e-05
1.913e-05
1.91291e-05
1.91282e-05
1.91273e-05
1.91263e-05
1.91252e-05
1.91241e-05
1.91231e-05
1.91222e-05
1.91214e-05
1.91208e-05
1.91201e-05
1.91194e-05
1.91185e-05
1.91175e-05
1.91164e-05
1.91153e-05
1.91143e-05
1.91133e-05
1.91123e-05
1.91112e-05
1.91099e-05
1.91085e-05
1.91069e-05
1.91052e-05
1.91033e-05
1.91014e-05
1.90994e-05
1.90974e-05
1.90952e-05
1.90928e-05
1.90902e-05
1.90873e-05
1.90843e-05
1.9081e-05
1.90776e-05
1.90741e-05
1.90705e-05
1.90668e-05
1.9063e-05
1.90591e-05
1.90552e-05
1.90514e-05
1.90478e-05
1.90444e-05
1.90411e-05
1.90381e-05
1.90358e-05
1.90331e-05
1.90298e-05
1.90273e-05
1.9025e-05
1.90214e-05
1.9017e-05
1.90139e-05
1.90106e-05
1.90056e-05
1.90004e-05
1.89972e-05
1.89923e-05
1.89857e-05
1.89811e-05
1.89758e-05
1.8968e-05
1.89619e-05
1.89558e-05
1.89468e-05
1.89396e-05
1.89327e-05
1.89229e-05
1.8915e-05
1.89073e-05
1.88967e-05
1.88877e-05
1.88792e-05
1.88661e-05
1.88546e-05
1.8845e-05
1.8829e-05
1.88116e-05
1.87963e-05
1.87823e-05
1.87598e-05
1.87362e-05
1.87159e-05
1.86959e-05
1.86685e-05
1.86381e-05
1.86122e-05
1.85864e-05
1.85566e-05
1.85212e-05
1.84903e-05
1.84601e-05
1.84287e-05
1.83915e-05
1.83577e-05
1.83251e-05
1.82918e-05
1.82542e-05
1.82185e-05
1.81842e-05
1.81484e-05
1.81118e-05
1.80766e-05
1.80425e-05
1.80088e-05
1.92334e-05
1.92323e-05
1.92314e-05
1.92304e-05
1.92295e-05
1.92284e-05
1.92274e-05
1.92265e-05
1.92258e-05
1.92252e-05
1.92248e-05
1.92244e-05
1.9224e-05
1.92235e-05
1.9223e-05
1.92224e-05
1.9222e-05
1.92216e-05
1.92213e-05
1.9221e-05
1.92208e-05
1.92204e-05
1.922e-05
1.92195e-05
1.9219e-05
1.92184e-05
1.92178e-05
1.92172e-05
1.92165e-05
1.92158e-05
1.92149e-05
1.92139e-05
1.92127e-05
1.92114e-05
1.921e-05
1.92084e-05
1.92068e-05
1.9205e-05
1.92031e-05
1.92011e-05
1.91988e-05
1.91964e-05
1.91937e-05
1.91909e-05
1.91879e-05
1.91848e-05
1.91816e-05
1.91783e-05
1.91749e-05
1.91715e-05
1.91682e-05
1.91649e-05
1.91617e-05
1.91587e-05
1.9156e-05
1.91538e-05
1.91514e-05
1.91489e-05
1.9147e-05
1.91453e-05
1.91428e-05
1.91395e-05
1.91373e-05
1.9135e-05
1.91312e-05
1.9127e-05
1.91246e-05
1.91209e-05
1.91155e-05
1.91119e-05
1.91079e-05
1.91013e-05
1.90963e-05
1.90914e-05
1.90837e-05
1.90771e-05
1.90714e-05
1.90627e-05
1.90548e-05
1.90484e-05
1.90388e-05
1.90298e-05
1.90225e-05
1.90114e-05
1.90007e-05
1.89923e-05
1.89786e-05
1.89641e-05
1.89509e-05
1.8939e-05
1.89178e-05
1.88984e-05
1.88806e-05
1.88634e-05
1.88367e-05
1.88106e-05
1.87876e-05
1.8765e-05
1.87348e-05
1.87028e-05
1.86748e-05
1.86474e-05
1.86152e-05
1.85803e-05
1.85487e-05
1.85181e-05
1.84842e-05
1.84481e-05
1.84146e-05
1.83822e-05
1.83474e-05
1.83109e-05
1.82765e-05
1.82432e-05
1.82102e-05
1.81772e-05
1.93371e-05
1.93356e-05
1.93343e-05
1.93331e-05
1.93319e-05
1.93308e-05
1.93297e-05
1.93288e-05
1.93281e-05
1.93275e-05
1.93271e-05
1.93267e-05
1.93263e-05
1.93259e-05
1.93255e-05
1.93252e-05
1.93251e-05
1.9325e-05
1.9325e-05
1.93251e-05
1.93252e-05
1.93252e-05
1.93253e-05
1.93253e-05
1.93254e-05
1.93255e-05
1.93257e-05
1.93259e-05
1.93261e-05
1.93263e-05
1.93264e-05
1.93264e-05
1.93264e-05
1.93263e-05
1.93262e-05
1.93261e-05
1.93259e-05
1.93256e-05
1.93252e-05
1.93246e-05
1.93239e-05
1.9323e-05
1.93221e-05
1.9321e-05
1.93198e-05
1.93185e-05
1.93171e-05
1.93155e-05
1.93137e-05
1.93117e-05
1.93096e-05
1.93073e-05
1.93049e-05
1.93024e-05
1.92997e-05
1.9297e-05
1.92943e-05
1.92915e-05
1.92888e-05
1.92862e-05
1.92836e-05
1.92814e-05
1.92794e-05
1.92775e-05
1.92756e-05
1.92742e-05
1.9273e-05
1.92714e-05
1.92692e-05
1.92678e-05
1.92663e-05
1.92637e-05
1.92606e-05
1.9259e-05
1.92562e-05
1.92519e-05
1.92493e-05
1.92461e-05
1.92406e-05
1.92365e-05
1.92326e-05
1.9226e-05
1.92199e-05
1.9215e-05
1.92073e-05
1.91994e-05
1.91936e-05
1.91851e-05
1.91756e-05
1.91686e-05
1.91592e-05
1.91482e-05
1.91398e-05
1.91287e-05
1.91153e-05
1.91032e-05
1.90924e-05
1.90735e-05
1.90566e-05
1.90405e-05
1.90251e-05
1.89998e-05
1.89769e-05
1.8956e-05
1.89357e-05
1.89063e-05
1.88773e-05
1.88512e-05
1.88262e-05
1.87938e-05
1.87611e-05
1.87312e-05
1.87024e-05
1.86679e-05
1.86333e-05
1.86016e-05
1.85708e-05
1.85365e-05
1.85001e-05
1.84666e-05
1.84343e-05
1.8402e-05
1.83697e-05
1.94315e-05
1.94306e-05
1.94298e-05
1.94292e-05
1.94286e-05
1.94281e-05
1.94276e-05
1.94272e-05
1.9427e-05
1.94268e-05
1.94268e-05
1.94269e-05
1.94271e-05
1.94272e-05
1.94274e-05
1.94276e-05
1.94279e-05
1.94283e-05
1.94288e-05
1.94293e-05
1.94299e-05
1.94305e-05
1.94311e-05
1.94318e-05
1.94324e-05
1.94331e-05
1.94338e-05
1.94345e-05
1.94352e-05
1.9436e-05
1.94367e-05
1.94373e-05
1.94379e-05
1.94385e-05
1.9439e-05
1.94394e-05
1.94398e-05
1.94401e-05
1.94404e-05
1.94405e-05
1.94405e-05
1.94404e-05
1.94401e-05
1.94397e-05
1.94392e-05
1.94386e-05
1.94379e-05
1.9437e-05
1.9436e-05
1.94349e-05
1.94336e-05
1.94321e-05
1.94305e-05
1.94287e-05
1.94269e-05
1.9425e-05
1.9423e-05
1.9421e-05
1.9419e-05
1.9417e-05
1.94152e-05
1.94134e-05
1.94119e-05
1.94105e-05
1.94092e-05
1.94083e-05
1.94075e-05
1.94066e-05
1.94054e-05
1.94046e-05
1.94038e-05
1.94021e-05
1.94001e-05
1.93991e-05
1.9397e-05
1.93936e-05
1.93917e-05
1.93891e-05
1.93845e-05
1.93811e-05
1.93778e-05
1.93719e-05
1.93662e-05
1.93619e-05
1.9355e-05
1.93469e-05
1.93413e-05
1.93335e-05
1.93236e-05
1.93161e-05
1.93078e-05
1.92964e-05
1.92868e-05
1.92776e-05
1.92645e-05
1.92523e-05
1.92419e-05
1.92256e-05
1.92096e-05
1.91946e-05
1.91803e-05
1.91568e-05
1.91357e-05
1.9116e-05
1.90977e-05
1.90701e-05
1.90428e-05
1.90182e-05
1.8995e-05
1.89636e-05
1.89324e-05
1.89037e-05
1.88764e-05
1.88421e-05
1.88086e-05
1.87781e-05
1.87485e-05
1.87143e-05
1.86786e-05
1.86462e-05
1.86147e-05
1.85831e-05
1.85514e-05
1.95287e-05
1.95283e-05
1.9528e-05
1.95279e-05
1.95278e-05
1.95279e-05
1.9528e-05
1.95281e-05
1.95284e-05
1.95287e-05
1.95292e-05
1.95297e-05
1.95303e-05
1.9531e-05
1.95317e-05
1.95325e-05
1.95333e-05
1.95342e-05
1.95352e-05
1.95363e-05
1.95374e-05
1.95385e-05
1.95397e-05
1.95409e-05
1.95422e-05
1.95434e-05
1.95447e-05
1.9546e-05
1.95474e-05
1.95487e-05
1.955e-05
1.95514e-05
1.95526e-05
1.95539e-05
1.9555e-05
1.95562e-05
1.95573e-05
1.95583e-05
1.95593e-05
1.95601e-05
1.95609e-05
1.95615e-05
1.95621e-05
1.95625e-05
1.95628e-05
1.9563e-05
1.95631e-05
1.9563e-05
1.95629e-05
1.95626e-05
1.95622e-05
1.95616e-05
1.95609e-05
1.95601e-05
1.95592e-05
1.95581e-05
1.9557e-05
1.95559e-05
1.95547e-05
1.95534e-05
1.95523e-05
1.95512e-05
1.95501e-05
1.95493e-05
1.95485e-05
1.9548e-05
1.95476e-05
1.95471e-05
1.95466e-05
1.95463e-05
1.95459e-05
1.95449e-05
1.95438e-05
1.9543e-05
1.95414e-05
1.95388e-05
1.95373e-05
1.95349e-05
1.95309e-05
1.95278e-05
1.95247e-05
1.95193e-05
1.95137e-05
1.95095e-05
1.9503e-05
1.94947e-05
1.94888e-05
1.94813e-05
1.9471e-05
1.94627e-05
1.94545e-05
1.94429e-05
1.9432e-05
1.94229e-05
1.94103e-05
1.93969e-05
1.93859e-05
1.93719e-05
1.93555e-05
1.93407e-05
1.93273e-05
1.93059e-05
1.92852e-05
1.92663e-05
1.92493e-05
1.92242e-05
1.91972e-05
1.91736e-05
1.91517e-05
1.91228e-05
1.90921e-05
1.90641e-05
1.90381e-05
1.90049e-05
1.8972e-05
1.89418e-05
1.89125e-05
1.888e-05
1.88459e-05
1.88141e-05
1.87832e-05
1.87522e-05
1.87211e-05
1.96281e-05
1.96282e-05
1.96284e-05
1.96287e-05
1.96291e-05
1.96297e-05
1.96303e-05
1.9631e-05
1.96318e-05
1.96326e-05
1.96335e-05
1.96346e-05
1.96357e-05
1.96369e-05
1.96381e-05
1.96395e-05
1.96409e-05
1.96423e-05
1.96438e-05
1.96454e-05
1.96471e-05
1.96488e-05
1.96506e-05
1.96524e-05
1.96543e-05
1.96562e-05
1.96581e-05
1.96601e-05
1.96621e-05
1.96641e-05
1.96661e-05
1.96681e-05
1.96701e-05
1.96721e-05
1.96741e-05
1.9676e-05
1.96778e-05
1.96796e-05
1.96814e-05
1.9683e-05
1.96846e-05
1.96861e-05
1.96875e-05
1.96888e-05
1.969e-05
1.96911e-05
1.96921e-05
1.9693e-05
1.96937e-05
1.96944e-05
1.96949e-05
1.96953e-05
1.96955e-05
1.96956e-05
1.96956e-05
1.96955e-05
1.96953e-05
1.96949e-05
1.96945e-05
1.96941e-05
1.96936e-05
1.96931e-05
1.96927e-05
1.96922e-05
1.96919e-05
1.96917e-05
1.96915e-05
1.96914e-05
1.96911e-05
1.96911e-05
1.96908e-05
1.96901e-05
1.96894e-05
1.96887e-05
1.96872e-05
1.9685e-05
1.96835e-05
1.9681e-05
1.96772e-05
1.96741e-05
1.96707e-05
1.96653e-05
1.96595e-05
1.9655e-05
1.96483e-05
1.96397e-05
1.96331e-05
1.96253e-05
1.96147e-05
1.96051e-05
1.95965e-05
1.95847e-05
1.95722e-05
1.95621e-05
1.95498e-05
1.9535e-05
1.95224e-05
1.95098e-05
1.94927e-05
1.94773e-05
1.94636e-05
1.94445e-05
1.94234e-05
1.94049e-05
1.93878e-05
1.93664e-05
1.9339e-05
1.93156e-05
1.9293e-05
1.92693e-05
1.92386e-05
1.92102e-05
1.91839e-05
1.91547e-05
1.91223e-05
1.90916e-05
1.9062e-05
1.90317e-05
1.89998e-05
1.89686e-05
1.89381e-05
1.89077e-05
1.88772e-05
1.88471e-05
1.88176e-05
1.9729e-05
1.97296e-05
1.97303e-05
1.97312e-05
1.97321e-05
1.97331e-05
1.97343e-05
1.97355e-05
1.97367e-05
1.97381e-05
1.97395e-05
1.97411e-05
1.97427e-05
1.97444e-05
1.97462e-05
1.97481e-05
1.97501e-05
1.97521e-05
1.97542e-05
1.97564e-05
1.97587e-05
1.9761e-05
1.97634e-05
1.97659e-05
1.97684e-05
1.9771e-05
1.97736e-05
1.97763e-05
1.9779e-05
1.97817e-05
1.97845e-05
1.97873e-05
1.979e-05
1.97928e-05
1.97956e-05
1.97983e-05
1.9801e-05
1.98036e-05
1.98062e-05
1.98088e-05
1.98112e-05
1.98136e-05
1.98159e-05
1.98182e-05
1.98203e-05
1.98223e-05
1.98242e-05
1.9826e-05
1.98277e-05
1.98293e-05
1.98307e-05
1.98321e-05
1.98332e-05
1.98343e-05
1.98351e-05
1.98359e-05
1.98365e-05
1.98369e-05
1.98373e-05
1.98375e-05
1.98376e-05
1.98377e-05
1.98376e-05
1.98375e-05
1.98374e-05
1.98373e-05
1.98372e-05
1.98371e-05
1.98369e-05
1.98366e-05
1.98362e-05
1.98355e-05
1.98346e-05
1.98335e-05
1.98318e-05
1.98296e-05
1.98275e-05
1.98246e-05
1.98205e-05
1.98169e-05
1.98128e-05
1.98069e-05
1.98006e-05
1.97953e-05
1.9788e-05
1.97786e-05
1.9771e-05
1.97626e-05
1.97512e-05
1.97401e-05
1.97306e-05
1.97182e-05
1.97042e-05
1.96925e-05
1.96798e-05
1.96638e-05
1.96494e-05
1.96364e-05
1.9619e-05
1.96022e-05
1.95872e-05
1.95702e-05
1.95485e-05
1.95299e-05
1.95116e-05
1.94934e-05
1.94664e-05
1.94422e-05
1.94195e-05
1.93982e-05
1.93701e-05
1.93407e-05
1.93138e-05
1.92872e-05
1.9257e-05
1.92262e-05
1.91967e-05
1.91674e-05
1.91375e-05
1.91073e-05
1.90774e-05
1.90477e-05
1.9018e-05
1.89885e-05
1.89595e-05
1.98312e-05
1.98323e-05
1.98335e-05
1.98348e-05
1.98363e-05
1.98378e-05
1.98394e-05
1.98411e-05
1.98429e-05
1.98448e-05
1.98468e-05
1.98488e-05
1.9851e-05
1.98533e-05
1.98556e-05
1.98581e-05
1.98606e-05
1.98633e-05
1.9866e-05
1.98688e-05
1.98717e-05
1.98747e-05
1.98778e-05
1.9881e-05
1.98842e-05
1.98875e-05
1.98908e-05
1.98942e-05
1.98977e-05
1.99012e-05
1.99047e-05
1.99083e-05
1.99119e-05
1.99155e-05
1.99191e-05
1.99226e-05
1.99262e-05
1.99297e-05
1.99332e-05
1.99366e-05
1.994e-05
1.99433e-05
1.99466e-05
1.99497e-05
1.99528e-05
1.99557e-05
1.99586e-05
1.99613e-05
1.99639e-05
1.99664e-05
1.99687e-05
1.99709e-05
1.99729e-05
1.99747e-05
1.99764e-05
1.99779e-05
1.99792e-05
1.99803e-05
1.99812e-05
1.99819e-05
1.99824e-05
1.99828e-05
1.9983e-05
1.9983e-05
1.99829e-05
1.99827e-05
1.99824e-05
1.99819e-05
1.99813e-05
1.99806e-05
1.99796e-05
1.99783e-05
1.99768e-05
1.9975e-05
1.99725e-05
1.99697e-05
1.99667e-05
1.99628e-05