/*--------------------------------*- C++ -*----------------------------------*\
| =========                 |                                                 |
| \\      /  F ield         | OpenFOAM: The Open Source CFD Toolbox           |
|  \\    /   O peration     | Version:  v1706                                 |
|   \\  /    A nd           | Web:      www.OpenFOAM.com                      |
|    \\/     M anipulation  |                                                 |
\*---------------------------------------------------------------------------*/
FoamFile
{
    version     2.0;
    format      ascii;
    class       volScalarField;
    location    "3.9e-05";
    object      rho;
}
// * * * * * * * * * * * * * * * * * * * * * * * * * * * * * * * * * * * * * //

dimensions      [1 -3 0 0 0 0 0];


internalField   nonuniform List<scalar> 
29871
(
0.000512197
0.000512315
0.000512451
0.000512613
0.000512806
0.000513036
0.000513311
0.000513633
0.000514005
0.00051442
0.000514868
0.000515339
0.000515826
0.000516331
0.000516861
0.000517451
0.000518162
0.00051906
0.0005202
0.00052161
0.000523292
0.000525234
0.00052739
0.000529753
0.000532329
0.000535026
0.000537706
0.000540253
0.000542626
0.000544918
0.000547304
0.00054994
0.000552906
0.000556218
0.000559839
0.000563749
0.000567777
0.000572808
0.000580563
0.00059122
0.000604327
0.000619251
0.000635403
0.000652294
0.000669526
0.000686761
0.000703711
0.000720139
0.000735858
0.000750707
0.000764541
0.000777232
0.000788669
0.000798764
0.000807476
0.00081482
0.000820845
0.000825637
0.000829351
0.000832079
0.000834023
0.000835317
0.000836079
0.000836423
0.000836221
0.000835696
0.000835268
0.000834607
0.000833657
0.000832426
0.000830901
0.000829121
0.000827176
0.000824954
0.000822407
0.000819709
0.000816884
0.000813791
0.000810442
0.000807013
0.000803486
0.000799766
0.000795905
0.000791953
0.000787867
0.000783654
0.000779351
0.000774972
0.000770521
0.000766006
0.000761429
0.000756788
0.000752085
0.000747334
0.000742548
0.000737741
0.000732919
0.000728085
0.000723233
0.000718357
0.00071345
0.000708504
0.000703513
0.000698474
0.000693386
0.000516226
0.00051697
0.000517799
0.000518713
0.000519723
0.000520842
0.000522107
0.000523575
0.000525319
0.000527409
0.000529892
0.000532796
0.000536121
0.000539862
0.000544075
0.000548732
0.000553773
0.00055915
0.000564885
0.000571098
0.000577989
0.000585737
0.00059454
0.000604441
0.000615907
0.000631423
0.000651909
0.000677511
0.000707877
0.000742392
0.00078038
0.000821219
0.000864366
0.000909322
0.000955618
0.00100282
0.00105068
0.00109784
0.00114191
0.00118273
0.00122072
0.00125623
0.0012894
0.00132029
0.00134899
0.00137585
0.00140139
0.00142604
0.00145
0.00147333
0.00149595
0.00151771
0.00153835
0.00155767
0.00157543
0.0015914
0.00160539
0.00161728
0.00162706
0.0016348
0.00164059
0.00164459
0.00164753
0.00164868
0.00164828
0.00164774
0.00164679
0.00164527
0.00164323
0.00164087
0.0016382
0.00163518
0.00163199
0.00162837
0.00162429
0.00161992
0.00161514
0.00160968
0.00160405
0.00159839
0.00159231
0.00158584
0.00157936
0.00157246
0.0015651
0.00155766
0.0015501
0.00154225
0.0015342
0.0015261
0.00151794
0.00150968
0.00150135
0.00149298
0.00148457
0.00147614
0.00146769
0.00145924
0.00145076
0.00144225
0.00143369
0.00142507
0.00141638
0.00140761
0.00139876
0.000525872
0.000528038
0.00053061
0.000533641
0.000537166
0.000541195
0.00054581
0.000551029
0.000556816
0.000563136
0.000570009
0.000577548
0.000585939
0.000595405
0.000606197
0.000618335
0.00063417
0.000655212
0.00068198
0.000714474
0.00075237
0.000795187
0.000842369
0.000893382
0.000947727
0.00100446
0.00106056
0.00111489
0.00116706
0.001217
0.00126465
0.00130989
0.00135253
0.0013924
0.00142919
0.00146267
0.00149263
0.00151956
0.00154405
0.00156639
0.00158692
0.00160593
0.00162364
0.00164009
0.00165508
0.00166794
0.00167846
0.0016873
0.00169509
0.00170223
0.00170902
0.00171568
0.00172239
0.00172928
0.00173642
0.0017438
0.00175136
0.00175896
0.00176644
0.00177359
0.00178028
0.0017863
0.00179157
0.00179618
0.00179988
0.00180277
0.00180482
0.00180623
0.00180742
0.00180772
0.0018075
0.00180727
0.00180672
0.00180523
0.00180465
0.00180445
0.00180194
0.00179971
0.00179936
0.00179865
0.00179568
0.00179305
0.00179168
0.00178945
0.00178621
0.00178378
0.00178142
0.00177845
0.00177518
0.00177197
0.00176868
0.00176517
0.00176151
0.00175773
0.00175383
0.0017498
0.00174565
0.00174137
0.00173694
0.00173236
0.0017276
0.00172268
0.00171756
0.00171222
0.00170665
0.0017008
0.000561346
0.0005685
0.000576338
0.000585
0.000594684
0.000605712
0.000618086
0.000633635
0.000654273
0.000680836
0.000713551
0.000752266
0.000796595
0.000846032
0.000899993
0.000957947
0.00101705
0.00107541
0.00113215
0.0011867
0.00123866
0.0012877
0.0013336
0.0013762
0.00141552
0.0014515
0.00148374
0.00151196
0.0015361
0.00155654
0.00157418
0.00158998
0.0016047
0.00161881
0.00163232
0.00164494
0.00165571
0.00166417
0.00167089
0.00167642
0.00168114
0.00168537
0.00168953
0.00169414
0.00169977
0.00170653
0.00171382
0.00172082
0.00172713
0.00173278
0.00173794
0.00174282
0.0017476
0.00175243
0.00175745
0.00176274
0.00176836
0.00177434
0.0017806
0.00178705
0.00179353
0.00179984
0.00180578
0.00181119
0.00181593
0.00181989
0.00182297
0.00182527
0.00182696
0.00182782
0.00182772
0.00182751
0.00182688
0.00182513
0.00182419
0.00182371
0.0018207
0.00181793
0.00181714
0.00181603
0.00181251
0.00180926
0.00180728
0.00180445
0.00180055
0.00179742
0.00179434
0.00179063
0.0017866
0.00178264
0.0017786
0.00177436
0.00176998
0.00176552
0.00176099
0.00175642
0.00175179
0.00174712
0.0017424
0.00173764
0.00173287
0.0017281
0.00172336
0.00171865
0.00171401
0.00170944
0.000642371
0.000665322
0.000694423
0.000729921
0.00077166
0.000819236
0.000872097
0.000929727
0.000989857
0.00105015
0.00110939
0.00116678
0.00122174
0.00127379
0.00132257
0.00136788
0.0014097
0.00144765
0.00148144
0.00151094
0.00153627
0.0015576
0.0015754
0.0015904
0.00160344
0.0016151
0.00162565
0.00163525
0.00164382
0.00165099
0.00165627
0.00165985
0.00166229
0.00166405
0.00166563
0.00166769
0.00167084
0.00167542
0.00168091
0.00168628
0.00169082
0.00169434
0.00169696
0.00169893
0.00170058
0.00170233
0.00170509
0.00170922
0.00171399
0.00171867
0.00172292
0.00172667
0.00173002
0.00173314
0.00173622
0.00173943
0.00174289
0.0017467
0.0017509
0.00175547
0.00176037
0.00176551
0.00177073
0.00177588
0.00178081
0.00178537
0.00178943
0.00179288
0.0017957
0.00179793
0.00179954
0.00180041
0.00180078
0.00180077
0.00179998
0.00179928
0.00179884
0.00179696
0.00179505
0.001795
0.00179448
0.00179089
0.00178805
0.001787
0.00178516
0.00178161
0.00177899
0.00177696
0.00177398
0.00177047
0.00176725
0.00176409
0.00176075
0.00175729
0.0017536
0.00174982
0.00174611
0.00174237
0.00173847
0.00173443
0.00173032
0.00172619
0.00172201
0.00171778
0.00171352
0.00170924
0.00170498
0.000997444
0.00105885
0.00111933
0.001178
0.00123416
0.00128725
0.00133687
0.00138287
0.00142487
0.00146248
0.00149555
0.00152411
0.00154838
0.0015686
0.00158537
0.00159955
0.00161187
0.00162275
0.00163239
0.00164088
0.00164821
0.0016541
0.00165822
0.00166094
0.00166259
0.00166336
0.00166399
0.00166459
0.0016653
0.00166657
0.00166844
0.00167036
0.0016718
0.00167239
0.00167241
0.00167243
0.0016727
0.00167398
0.00167671
0.00168022
0.0016837
0.00168663
0.00168881
0.00169028
0.00169128
0.00169207
0.0016928
0.00169391
0.00169578
0.00169827
0.00170104
0.00170382
0.0017064
0.00170874
0.00171098
0.00171321
0.0017155
0.00171801
0.00172084
0.00172399
0.00172748
0.00173132
0.00173541
0.00173965
0.00174395
0.00174817
0.00175216
0.00175581
0.001759
0.0017617
0.00176388
0.00176548
0.00176658
0.00176697
0.00176677
0.00176635
0.00176592
0.00176465
0.00176323
0.00176344
0.0017627
0.00175944
0.00175691
0.00175652
0.0017561
0.00175249
0.00174911
0.00174753
0.0017461
0.00174288
0.00173926
0.00173675
0.00173484
0.00173221
0.00172834
0.00172508
0.0017224
0.00171943
0.0017159
0.00171215
0.00170852
0.00170496
0.00170126
0.00169737
0.00169343
0.00168952
0.00168562
0.00128252
0.00133408
0.00138182
0.00142525
0.00146403
0.00149803
0.00152733
0.00155217
0.0015728
0.00158995
0.00160446
0.00161701
0.00162796
0.00163749
0.00164571
0.00165256
0.0016577
0.00166123
0.00166329
0.0016645
0.00166511
0.00166538
0.00166558
0.00166585
0.00166663
0.00166793
0.00166928
0.00166994
0.00166978
0.00166937
0.0016688
0.00166778
0.0016671
0.00166726
0.00166779
0.00166842
0.00166854
0.00166834
0.00166789
0.00166736
0.00166694
0.00166715
0.00166813
0.00166986
0.00167191
0.00167384
0.00167539
0.0016765
0.00167722
0.00167758
0.00167791
0.00167853
0.00167953
0.00168092
0.00168267
0.00168459
0.00168637
0.00168802
0.00168964
0.00169112
0.00169256
0.00169419
0.00169605
0.00169809
0.00170048
0.00170321
0.00170616
0.00170933
0.00171266
0.00171598
0.00171921
0.00172222
0.00172489
0.00172721
0.00172907
0.0017305
0.00173135
0.00173142
0.00173129
0.00173098
0.00172992
0.00172868
0.00172841
0.00172751
0.0017249
0.00172275
0.00172242
0.00172298
0.00171965
0.00171541
0.00171366
0.00171361
0.00171106
0.00170698
0.00170456
0.00170388
0.00170199
0.00169788
0.00169491
0.00169334
0.00169135
0.00168766
0.00168409
0.0016816
0.00167889
0.00167546
0.00167183
0.00166848
0.00166527
0.00166182
0.00157059
0.00158912
0.00160471
0.00161809
0.00162962
0.00163953
0.00164799
0.00165491
0.00165997
0.00166329
0.00166527
0.00166642
0.00166692
0.0016672
0.0016673
0.00166766
0.00166848
0.00166969
0.00167057
0.00167073
0.00167049
0.00166982
0.00166884
0.0016676
0.00166658
0.00166657
0.0016668
0.00166686
0.00166661
0.00166596
0.00166507
0.0016639
0.00166273
0.00166155
0.00166069
0.0016603
0.00165994
0.00165949
0.00165897
0.00165835
0.00165752
0.00165684
0.00165676
0.00165708
0.00165798
0.00165923
0.00166051
0.00166165
0.00166251
0.0016629
0.00166301
0.00166319
0.00166347
0.00166379
0.00166442
0.00166551
0.00166665
0.00166762
0.0016687
0.00166972
0.00167038
0.00167111
0.00167208
0.001673
0.0016741
0.00167561
0.0016773
0.00167918
0.00168138
0.0016837
0.0016861
0.00168851
0.00169071
0.00169274
0.00169453
0.00169592
0.00169686
0.00169713
0.00169717
0.001697
0.00169582
0.00169447
0.00169412
0.00169323
0.00169059
0.00168842
0.00168798
0.00168904
0.00168596
0.00168127
0.00167907
0.00167944
0.00167763
0.00167327
0.0016707
0.00167068
0.00166923
0.00166487
0.00166187
0.00166106
0.00166007
0.00165624
0.0016528
0.00165108
0.00164923
0.0016456
0.00164225
0.00164002
0.00163737
0.00163386
0.00166069
0.00166431
0.00166647
0.00166776
0.00166829
0.00166857
0.00166867
0.00166907
0.00167003
0.00167118
0.00167197
0.00167205
0.0016717
0.00167093
0.00166981
0.00166857
0.00166767
0.00166763
0.00166764
0.00166742
0.00166687
0.001666
0.00166485
0.00166351
0.00166206
0.0016608
0.00165986
0.00165917
0.00165866
0.00165804
0.00165724
0.00165626
0.00165511
0.00165383
0.00165265
0.0016517
0.00165091
0.00165025
0.00164966
0.00164899
0.00164814
0.00164723
0.00164649
0.00164606
0.00164606
0.00164633
0.00164687
0.00164755
0.00164829
0.00164868
0.00164862
0.00164859
0.00164872
0.00164854
0.00164832
0.00164859
0.00164914
0.00164935
0.00164969
0.00165039
0.00165057
0.00165051
0.00165088
0.00165114
0.00165116
0.00165169
0.00165243
0.00165307
0.00165412
0.00165539
0.00165672
0.00165831
0.00165977
0.00166111
0.00166254
0.00166372
0.00166437
0.00166453
0.00166468
0.00166474
0.00166337
0.00166162
0.00166137
0.001661
0.00165796
0.00165527
0.00165455
0.00165569
0.00165283
0.00164794
0.00164532
0.00164554
0.00164429
0.00163977
0.00163696
0.00163702
0.00163563
0.00163108
0.00162802
0.00162759
0.00162721
0.00162329
0.00161983
0.00161871
0.00161762
0.0016139
0.00161081
0.00160926
0.00160661
0.00160307
0.00167105
0.00167219
0.00167306
0.00167318
0.00167283
0.00167203
0.00167081
0.00166949
0.0016687
0.00166845
0.00166833
0.00166795
0.00166724
0.00166622
0.00166495
0.00166351
0.00166198
0.00166069
0.00165975
0.00165905
0.00165838
0.0016576
0.00165668
0.00165561
0.00165438
0.00165308
0.00165186
0.00165085
0.00165008
0.0016494
0.00164868
0.00164785
0.00164686
0.00164573
0.00164452
0.00164332
0.00164224
0.00164127
0.0016404
0.00163954
0.00163862
0.00163762
0.00163662
0.0016357
0.00163502
0.00163459
0.00163441
0.00163438
0.00163458
0.00163484
0.00163455
0.00163425
0.00163443
0.00163407
0.0016331
0.00163283
0.00163305
0.00163256
0.001632
0.00163221
0.0016323
0.00163142
0.00163123
0.00163127
0.00163041
0.00163014
0.00163029
0.00162991
0.00162994
0.00163031
0.00163048
0.00163111
0.0016319
0.00163231
0.00163307
0.00163397
0.00163415
0.00163392
0.00163393
0.00163434
0.00163287
0.00163072
0.00163028
0.00163058
0.00162734
0.00162398
0.0016229
0.00162384
0.00162107
0.00161609
0.00161328
0.00161333
0.00161207
0.00160733
0.00160426
0.0016042
0.00160257
0.00159785
0.00159475
0.00159443
0.00159407
0.00158994
0.00158659
0.00158602
0.00158535
0.00158158
0.00157858
0.00157724
0.00157433
0.00157122
0.00166967
0.00166915
0.00166882
0.00166827
0.00166741
0.00166626
0.00166485
0.00166328
0.00166161
0.00166019
0.00165917
0.00165837
0.00165761
0.00165676
0.00165579
0.00165468
0.00165343
0.00165213
0.00165099
0.00165005
0.00164928
0.00164856
0.0016478
0.00164694
0.00164597
0.00164487
0.00164371
0.00164258
0.00164157
0.00164068
0.00163985
0.001639
0.00163808
0.00163703
0.00163588
0.00163464
0.0016334
0.0016322
0.00163106
0.00162996
0.00162886
0.00162773
0.00162656
0.00162538
0.00162425
0.00162332
0.00162254
0.00162181
0.00162147
0.0016213
0.00162059
0.00162006
0.0016202
0.00161963
0.00161816
0.00161755
0.0016176
0.00161647
0.00161508
0.00161493
0.00161487
0.0016132
0.00161237
0.00161246
0.00161099
0.00160977
0.00160977
0.00160861
0.00160755
0.00160737
0.00160656
0.00160626
0.00160643
0.0016059
0.00160571
0.00160624
0.00160608
0.00160517
0.00160495
0.00160555
0.00160391
0.0016015
0.00160092
0.00160151
0.00159824
0.00159451
0.00159323
0.0015939
0.00159083
0.00158589
0.0015832
0.00158328
0.00158135
0.00157635
0.00157322
0.00157298
0.00157085
0.001566
0.00156291
0.00156268
0.00156174
0.00155738
0.00155427
0.00155396
0.0015534
0.00154964
0.00154658
0.00154474
0.00154205
0.00153948
0.00166331
0.00166141
0.00165973
0.00165844
0.00165742
0.00165648
0.0016555
0.00165442
0.00165323
0.00165189
0.00165054
0.00164935
0.00164838
0.00164756
0.00164681
0.00164604
0.00164519
0.00164423
0.00164318
0.00164211
0.00164111
0.00164021
0.0016394
0.00163863
0.00163784
0.00163698
0.00163604
0.001635
0.00163391
0.00163282
0.00163178
0.00163079
0.00162983
0.00162885
0.0016278
0.00162666
0.00162542
0.00162411
0.00162277
0.00162143
0.0016201
0.00161878
0.00161746
0.00161611
0.00161471
0.0016133
0.001612
0.00161078
0.00160948
0.00160862
0.00160794
0.0016068
0.00160594
0.00160578
0.00160489
0.00160317
0.00160236
0.00160207
0.00160052
0.00159859
0.00159808
0.0015976
0.00159543
0.00159404
0.00159387
0.00159219
0.00159016
0.00158977
0.00158832
0.00158624
0.00158564
0.00158427
0.00158285
0.0015825
0.00158116
0.00158004
0.00158034
0.00157957
0.00157785
0.00157748
0.00157808
0.00157598
0.0015735
0.00157306
0.00157354
0.00157003
0.00156637
0.00156528
0.00156561
0.00156192
0.0015572
0.00155498
0.00155508
0.00155206
0.00154699
0.00154408
0.00154364
0.00154085
0.00153598
0.00153301
0.00153276
0.00153082
0.00152638
0.00152356
0.0015234
0.00152248
0.00151864
0.00151554
0.00151335
0.00151093
0.00150874
0.00165183
0.00165035
0.00164885
0.00164748
0.00164633
0.00164535
0.00164447
0.0016436
0.00164268
0.00164168
0.00164061
0.00163954
0.00163854
0.00163766
0.00163687
0.00163613
0.00163539
0.0016346
0.00163374
0.00163282
0.00163188
0.00163095
0.00163008
0.00162924
0.00162843
0.00162759
0.0016267
0.00162574
0.0016247
0.0016236
0.00162249
0.00162139
0.00162029
0.00161919
0.00161806
0.00161687
0.0016156
0.00161424
0.00161281
0.00161132
0.00160981
0.00160829
0.00160675
0.00160519
0.00160358
0.00160195
0.00160035
0.00159875
0.00159708
0.00159573
0.00159455
0.00159302
0.0015917
0.00159105
0.00158985
0.00158794
0.00158686
0.00158618
0.0015844
0.0015821
0.00158113
0.00158021
0.0015778
0.00157585
0.00157523
0.00157342
0.00157084
0.00156991
0.00156832
0.00156557
0.0015644
0.00156283
0.00156041
0.00155946
0.00155776
0.00155572
0.00155546
0.0015541
0.00155174
0.0015513
0.00155151
0.00154875
0.00154638
0.00154632
0.00154624
0.00154231
0.00153917
0.00153862
0.00153837
0.00153389
0.00152977
0.00152828
0.00152807
0.00152396
0.00151916
0.00151672
0.00151611
0.00151254
0.00150781
0.00150511
0.0015046
0.0015017
0.0014974
0.00149488
0.00149464
0.00149275
0.00148913
0.00148628
0.00148396
0.0014816
0.00147956
0.00147839
0.00147704
0.00164007
0.00163896
0.00163779
0.00163662
0.00163552
0.00163453
0.00163365
0.00163284
0.00163205
0.00163124
0.00163038
0.00162948
0.00162858
0.00162772
0.00162691
0.00162616
0.00162543
0.0016247
0.00162393
0.00162311
0.00162225
0.00162136
0.00162046
0.00161958
0.00161871
0.00161783
0.00161693
0.00161597
0.00161495
0.00161386
0.00161271
0.00161153
0.00161033
0.00160911
0.00160786
0.00160657
0.00160521
0.00160377
0.00160225
0.00160065
0.00159899
0.00159728
0.00159554
0.00159377
0.00159195
0.00159009
0.00158822
0.0015863
0.00158435
0.00158258
0.00158091
0.001579
0.00157725
0.00157606
0.0015745
0.00157235
0.00157091
0.00156983
0.00156788
0.00156527
0.00156384
0.00156256
0.00156001
0.0015575
0.00155638
0.00155442
0.00155145
0.00154998
0.00154822
0.00154508
0.00154334
0.00154162
0.00153855
0.0015369
0.00153512
0.00153231
0.00153119
0.00152957
0.00152675
0.00152594
0.00152542
0.00152221
0.00152006
0.00152036
0.0015192
0.00151509
0.00151268
0.00151277
0.00151143
0.00150662
0.00150337
0.00150273
0.00150172
0.00149674
0.00149265
0.00149093
0.00148997
0.00148562
0.00148126
0.001479
0.00147809
0.00147441
0.00147043
0.00146823
0.00146745
0.00146471
0.0014615
0.00145907
0.00145673
0.00145426
0.0014522
0.00145074
0.00144933
0.00163042
0.00162943
0.0016285
0.00162758
0.00162664
0.00162569
0.00162474
0.00162382
0.00162297
0.00162218
0.00162144
0.0016207
0.00161996
0.00161919
0.00161839
0.00161759
0.0016168
0.00161604
0.0016153
0.00161456
0.00161382
0.00161305
0.00161223
0.00161137
0.00161048
0.00160957
0.00160865
0.00160772
0.00160677
0.00160577
0.00160472
0.00160361
0.00160243
0.00160119
0.0015999
0.00159856
0.00159719
0.00159577
0.0015943
0.00159275
0.00159112
0.0015894
0.0015876
0.00158574
0.00158381
0.00158182
0.00157979
0.0015777
0.00157558
0.00157339
0.00157118
0.00156904
0.00156691
0.00156465
0.00156255
0.00156077
0.00155878
0.00155639
0.00155455
0.00155301
0.00155083
0.001548
0.00154614
0.00154451
0.00154182
0.00153886
0.00153727
0.0015351
0.00153182
0.00152988
0.00152787
0.00152447
0.00152225
0.00152033
0.00151691
0.0015146
0.00151275
0.00150946
0.00150741
0.00150576
0.00150263
0.00150098
0.00149989
0.00149664
0.00149448
0.00149464
0.00149248
0.00148851
0.00148681
0.00148719
0.00148467
0.00148009
0.00147777
0.00147778
0.00147555
0.00147048
0.00146726
0.00146639
0.00146465
0.00145981
0.00145611
0.00145449
0.00145296
0.00144877
0.0014452
0.00144342
0.00144193
0.00143864
0.00143571
0.00143379
0.00143157
0.0014289
0.00142672
0.00142513
0.00142367
0.00161894
0.00161802
0.00161716
0.00161633
0.00161553
0.00161471
0.0016139
0.00161308
0.00161229
0.00161153
0.00161081
0.00161011
0.00160941
0.0016087
0.00160798
0.00160723
0.00160648
0.00160572
0.00160497
0.00160422
0.00160346
0.00160269
0.00160188
0.00160103
0.00160014
0.00159921
0.00159825
0.00159726
0.00159624
0.00159518
0.00159407
0.00159291
0.00159167
0.00159036
0.00158899
0.00158755
0.00158606
0.00158451
0.0015829
0.00158121
0.00157945
0.0015776
0.00157566
0.00157364
0.00157153
0.00156935
0.0015671
0.00156479
0.00156242
0.00155999
0.00155752
0.00155504
0.00155253
0.00154996
0.0015475
0.00154518
0.00154273
0.00154012
0.00153785
0.00153578
0.0015333
0.00153032
0.00152807
0.00152606
0.00152316
0.00151991
0.00151791
0.00151543
0.0015119
0.00150958
0.00150728
0.00150366
0.00150106
0.00149891
0.0014953
0.00149244
0.00149044
0.00148697
0.0014841
0.00148236
0.00147915
0.00147647
0.00147511
0.00147212
0.00146949
0.001469
0.0014665
0.0014628
0.00146153
0.0014617
0.00145837
0.00145428
0.00145279
0.00145298
0.00144984
0.0014451
0.00144278
0.00144254
0.0014399
0.00143512
0.00143216
0.00143125
0.0014289
0.00142458
0.00142151
0.00142023
0.00141806
0.0014144
0.00141167
0.00141028
0.00140835
0.00140541
0.00140305
0.0014014
0.00139996
0.00139839
0.00161436
0.00161327
0.00161225
0.00161128
0.00161034
0.00160941
0.0016085
0.00160761
0.00160677
0.00160597
0.0016052
0.00160446
0.00160374
0.00160301
0.00160228
0.00160155
0.00160083
0.00160013
0.00159944
0.00159876
0.00159808
0.00159738
0.00159667
0.00159594
0.00159519
0.00159443
0.00159366
0.00159287
0.00159207
0.00159124
0.00159037
0.00158946
0.0015885
0.0015875
0.00158645
0.00158537
0.00158423
0.00158305
0.0015818
0.00158049
0.0015791
0.00157764
0.0015761
0.00157449
0.0015728
0.00157105
0.00156922
0.00156731
0.00156531
0.00156322
0.00156103
0.00155875
0.00155638
0.00155393
0.0015514
0.00154879
0.00154612
0.00154339
0.00154061
0.00153778
0.00153491
0.0015321
0.00152931
0.00152645
0.00152358
0.00152087
0.00151828
0.00151546
0.00151234
0.00150971
0.00150728
0.00150412
0.00150072
0.00149834
0.00149552
0.00149179
0.00148918
0.00148657
0.00148275
0.00147985
0.00147748
0.00147373
0.00147047
0.00146828
0.00146479
0.00146128
0.00145932
0.00145625
0.00145271
0.00145102
0.00144846
0.00144513
0.00144381
0.00144169
0.00143816
0.0014367
0.00143641
0.00143294
0.00142931
0.00142839
0.00142848
0.00142485
0.00142058
0.00141901
0.00141907
0.00141601
0.00141143
0.0014092
0.00140881
0.00140596
0.0014017
0.00139918
0.00139839
0.00139571
0.00139181
0.00138929
0.00138849
0.00138682
0.0013836
0.00138109
0.00137939
0.00137803
0.00137664
0.00160239
0.00160141
0.0016005
0.00159962
0.00159878
0.00159797
0.00159717
0.00159638
0.00159562
0.00159487
0.00159416
0.00159346
0.00159278
0.0015921
0.00159142
0.00159074
0.00159006
0.00158938
0.0015887
0.00158802
0.00158734
0.00158665
0.00158594
0.00158521
0.00158446
0.00158369
0.00158289
0.00158207
0.00158123
0.00158036
0.00157945
0.0015785
0.0015775
0.00157644
0.00157533
0.00157417
0.00157296
0.00157168
0.00157035
0.00156894
0.00156746
0.00156589
0.00156424
0.00156251
0.0015607
0.0015588
0.00155681
0.00155475
0.00155259
0.00155033
0.00154797
0.00154552
0.00154296
0.00154031
0.00153757
0.00153475
0.00153184
0.00152886
0.00152582
0.00152271
0.00151956
0.0015164
0.00151323
0.00151003
0.00150684
0.00150372
0.00150068
0.00149751
0.0014942
0.00149122
0.00148834
0.00148491
0.00148145
0.00147871
0.00147552
0.00147167
0.00146882
0.00146591
0.00146192
0.00145881
0.00145621
0.00145236
0.0014488
0.00144644
0.00144298
0.00143905
0.00143682
0.00143392
0.00142992
0.00142771
0.00142552
0.00142182
0.00141954
0.00141799
0.00141474
0.0014124
0.00141175
0.00140889
0.00140541
0.00140455
0.00140452
0.00140098
0.00139706
0.00139585
0.00139613
0.00139326
0.00138884
0.00138702
0.00138702
0.00138423
0.00138007
0.00137805
0.00137768
0.00137481
0.00137078
0.00136851
0.00136821
0.00136656
0.00136329
0.00136079
0.00135912
0.00135783
0.00135662
0.00159067
0.00158981
0.00158898
0.00158818
0.00158742
0.00158668
0.00158595
0.00158524
0.00158454
0.00158385
0.00158317
0.0015825
0.00158185
0.0015812
0.00158055
0.00157989
0.00157923
0.00157856
0.00157788
0.0015772
0.00157651
0.0015758
0.00157508
0.00157434
0.00157357
0.00157277
0.00157194
0.00157109
0.0015702
0.00156927
0.00156831
0.0015673
0.00156623
0.00156512
0.00156394
0.0015627
0.0015614
0.00156003
0.00155859
0.00155708
0.00155548
0.00155381
0.00155204
0.00155018
0.00154823
0.00154619
0.00154406
0.00154183
0.0015395
0.00153708
0.00153455
0.00153192
0.00152918
0.00152634
0.0015234
0.00152036
0.00151724
0.00151403
0.00151075
0.00150739
0.00150398
0.00150053
0.00149704
0.00149354
0.00149003
0.00148656
0.00148312
0.00147963
0.00147609
0.00147278
0.00146949
0.00146583
0.00146229
0.00145919
0.00145568
0.00145179
0.00144873
0.00144552
0.00144142
0.00143817
0.00143535
0.00143142
0.00142768
0.00142516
0.00142174
0.00141757
0.0014151
0.00141233
0.00140818
0.00140545
0.00140343
0.00139981
0.0013967
0.0013953
0.00139256
0.00138931
0.0013882
0.00138631
0.00138287
0.00138139
0.00138136
0.00137854
0.00137481
0.00137344
0.00137393
0.00137185
0.00136763
0.00136556
0.00136579
0.00136385
0.00135993
0.00135792
0.00135785
0.00135531
0.00135147
0.00134921
0.00134875
0.00134734
0.00134459
0.0013423
0.00134067
0.00133941
0.00133831
0.00157919
0.00157841
0.00157766
0.00157693
0.00157622
0.00157554
0.00157486
0.0015742
0.00157354
0.00157289
0.00157224
0.00157159
0.00157095
0.00157031
0.00156967
0.00156902
0.00156836
0.00156769
0.001567
0.00156631
0.00156559
0.00156487
0.00156412
0.00156335
0.00156254
0.00156171
0.00156084
0.00155994
0.00155899
0.00155801
0.00155698
0.0015559
0.00155476
0.00155357
0.00155231
0.00155099
0.00154959
0.00154812
0.00154658
0.00154496
0.00154325
0.00154145
0.00153956
0.00153758
0.00153549
0.00153331
0.00153102
0.00152863
0.00152615
0.00152355
0.00152086
0.00151805
0.00151514
0.00151212
0.00150899
0.00150576
0.00150244
0.00149902
0.00149552
0.00149195
0.0014883
0.00148461
0.00148086
0.00147709
0.00147331
0.00146954
0.00146579
0.00146201
0.00145824
0.00145461
0.00145097
0.00144714
0.00144348
0.00144006
0.00143629
0.0014324
0.00142914
0.00142566
0.00142153
0.00141818
0.00141517
0.00141119
0.00140736
0.00140472
0.00140133
0.00139706
0.00139438
0.00139172
0.00138763
0.00138447
0.00138249
0.00137917
0.00137553
0.0013739
0.00137165
0.00136803
0.00136623
0.00136507
0.00136193
0.00135956
0.00135938
0.00135759
0.00135407
0.00135224
0.00135259
0.00135177
0.00134802
0.0013453
0.00134503
0.00134472
0.00134161
0.00133895
0.00133836
0.00133703
0.00133397
0.00133155
0.00133035
0.00132924
0.0013274
0.0013255
0.00132395
0.00132272
0.00132167
0.00132077
0.00131999
0.00156793
0.00156722
0.00156653
0.00156585
0.00156518
0.00156453
0.00156389
0.00156326
0.00156262
0.00156199
0.00156136
0.00156073
0.00156009
0.00155945
0.0015588
0.00155814
0.00155747
0.00155679
0.00155609
0.00155537
0.00155463
0.00155387
0.00155308
0.00155227
0.00155142
0.00155054
0.00154963
0.00154866
0.00154766
0.00154661
0.00154551
0.00154435
0.00154314
0.00154186
0.00154052
0.0015391
0.00153761
0.00153603
0.00153438
0.00153264
0.00153082
0.0015289
0.00152688
0.00152477
0.00152255
0.00152022
0.00151779
0.00151526
0.00151261
0.00150986
0.001507
0.00150403
0.00150096
0.00149777
0.00149447
0.00149107
0.00148757
0.00148398
0.00148029
0.00147653
0.00147269
0.00146879
0.00146485
0.00146086
0.00145685
0.00145284
0.00144884
0.00144483
0.00144085
0.00143695
0.00143305
0.00142908
0.00142527
0.00142157
0.00141765
0.00141377
0.0014103
0.00140663
0.00140253
0.00139912
0.00139594
0.00139195
0.00138811
0.00138537
0.00138203
0.00137776
0.00137493
0.00137235
0.00136844
0.00136496
0.00136297
0.00135997
0.0013561
0.00135414
0.00135223
0.00134867
0.00134626
0.00134532
0.00134267
0.00133972
0.00133909
0.00133816
0.00133499
0.00133275
0.00133264
0.00133284
0.00132995
0.00132679
0.00132577
0.00132628
0.00132465
0.00132162
0.00132009
0.00131952
0.00131778
0.00131548
0.00131383
0.00131266
0.00131141
0.00131002
0.00130871
0.00130758
0.00130663
0.00130582
0.00130515
0.00155688
0.00155622
0.00155557
0.00155493
0.00155429
0.00155367
0.00155305
0.00155242
0.0015518
0.00155118
0.00155055
0.00154992
0.00154927
0.00154862
0.00154796
0.00154729
0.0015466
0.00154589
0.00154516
0.00154441
0.00154363
0.00154283
0.001542
0.00154114
0.00154025
0.00153931
0.00153833
0.00153731
0.00153624
0.00153512
0.00153394
0.0015327
0.00153141
0.00153004
0.0015286
0.00152709
0.0015255
0.00152382
0.00152206
0.00152021
0.00151827
0.00151623
0.00151409
0.00151185
0.0015095
0.00150704
0.00150448
0.0015018
0.00149902
0.00149612
0.00149312
0.00149
0.00148677
0.00148344
0.00148
0.00147645
0.0014728
0.00146906
0.00146523
0.00146131
0.00145732
0.00145327
0.00144916
0.00144502
0.00144084
0.00143666
0.00143247
0.00142828
0.00142413
0.00142004
0.00141594
0.00141186
0.00140791
0.00140402
0.00140001
0.00139612
0.0013925
0.0013887
0.00138468
0.00138122
0.00137792
0.00137396
0.00137018
0.00136737
0.00136407
0.00135989
0.00135697
0.00135447
0.00135077
0.00134711
0.00134509
0.00134238
0.0013385
0.00133623
0.00133454
0.00133125
0.00132841
0.0013274
0.00132521
0.00132204
0.0013209
0.0013204
0.00131766
0.0013152
0.00131469
0.00131533
0.00131322
0.00131004
0.00130861
0.00130902
0.00130869
0.0013059
0.00130388
0.00130319
0.00130241
0.00130068
0.00129903
0.00129782
0.00129681
0.00129578
0.00129477
0.00129384
0.00129303
0.00129235
0.0012918
0.00154668
0.00154604
0.00154541
0.00154479
0.00154417
0.00154355
0.00154294
0.00154232
0.00154171
0.00154109
0.00154046
0.00153982
0.00153918
0.00153852
0.00153785
0.00153717
0.00153647
0.00153575
0.00153501
0.00153425
0.00153346
0.00153264
0.0015318
0.00153092
0.00153
0.00152905
0.00152805
0.00152701
0.00152592
0.00152478
0.00152359
0.00152233
0.00152101
0.00151963
0.00151817
0.00151664
0.00151503
0.00151334
0.00151157
0.0015097
0.00150774
0.00150569
0.00150353
0.00150128
0.00149892
0.00149645
0.00149388
0.00149119
0.00148839
0.00148548
0.00148246
0.00147933
0.00147609
0.00147274
0.00146928
0.00146572
0.00146206
0.00145829
0.00145444
0.00145049
0.00144647
0.00144237
0.00143821
0.001434
0.00142975
0.00142546
0.00142116
0.00141685
0.00141256
0.00140829
0.00140406
0.00139986
0.0013957
0.00139164
0.00138763
0.00138359
0.00137969
0.00137595
0.00137211
0.00136819
0.00136471
0.00136132
0.00135745
0.00135378
0.00135092
0.00134768
0.00134363
0.00134069
0.00133827
0.00133478
0.00133107
0.00132903
0.00132656
0.0013228
0.00132029
0.00131875
0.00131579
0.00131268
0.0013115
0.00130971
0.00130654
0.00130496
0.00130457
0.00130224
0.00129967
0.00129892
0.00129962
0.00129802
0.00129502
0.00129347
0.00129357
0.00129392
0.00129166
0.00128956
0.00128865
0.00128813
0.00128705
0.00128569
0.00128457
0.00128368
0.00128288
0.00128211
0.0012814
0.00128077
0.00128024
0.00127982
0.00153601
0.0015354
0.00153479
0.00153418
0.00153357
0.00153296
0.00153235
0.00153173
0.00153111
0.00153048
0.00152984
0.00152919
0.00152853
0.00152785
0.00152716
0.00152645
0.00152571
0.00152496
0.00152418
0.00152338
0.00152255
0.00152169
0.00152079
0.00151986
0.00151889
0.00151787
0.00151682
0.00151571
0.00151455
0.00151334
0.00151207
0.00151073
0.00150933
0.00150786
0.00150632
0.0015047
0.001503