/*--------------------------------*- C++ -*----------------------------------*\
| =========                 |                                                 |
| \\      /  F ield         | OpenFOAM: The Open Source CFD Toolbox           |
|  \\    /   O peration     | Version:  v1706                                 |
|   \\  /    A nd           | Web:      www.OpenFOAM.com                      |
|    \\/     M anipulation  |                                                 |
\*---------------------------------------------------------------------------*/
FoamFile
{
    version     2.0;
    format      ascii;
    class       volScalarField;
    location    "3.9e-05";
    object      Tt;
}
// * * * * * * * * * * * * * * * * * * * * * * * * * * * * * * * * * * * * * //

dimensions      [0 0 0 1 0 0 0];


internalField   nonuniform List<scalar> 
29871
(
144.913
144.987
145.071
145.167
145.276
145.4
145.542
145.704
145.889
146.1
146.336
146.6
146.892
147.215
147.575
147.983
148.45
148.984
149.589
150.266
151.012
151.823
152.696
153.638
154.675
155.84
157.141
158.563
160.084
161.686
163.353
165.066
166.805
168.549
170.277
171.982
173.695
175.639
178.094
180.919
183.931
186.981
189.964
192.811
195.479
197.95
200.218
202.291
204.177
205.882
207.411
208.762
209.934
210.922
211.73
212.372
212.859
213.205
213.431
213.553
213.553
213.501
213.404
213.274
213.089
212.879
212.671
212.435
212.164
211.862
211.531
211.172
210.793
210.38
209.93
209.458
208.962
208.431
207.872
207.302
206.714
206.099
205.465
204.813
204.137
203.442
202.734
202.013
201.278
200.534
199.78
199.016
198.244
197.465
196.681
195.894
195.104
194.312
193.517
192.716
191.909
191.094
190.27
189.438
188.597
147.59
148.052
148.575
149.163
149.824
150.568
151.411
152.372
153.465
154.704
156.095
157.641
159.343
161.211
163.273
165.582
168.168
171.033
174.158
177.514
181.065
184.773
188.609
192.577
196.802
201.645
207.063
212.905
218.992
225.142
231.193
237.012
242.498
247.58
252.217
256.399
260.127
263.372
266.088
268.306
270.07
271.434
272.442
273.142
273.594
273.877
274.067
274.214
274.347
274.474
274.594
274.7
274.792
274.824
274.793
274.722
274.602
274.416
274.165
273.855
273.491
273.088
272.654
272.196
271.735
271.297
270.856
270.406
269.958
269.521
269.09
268.658
268.233
267.801
267.356
266.905
266.446
265.969
265.492
265.016
264.528
264.03
263.535
263.025
262.497
261.971
261.442
260.903
260.359
259.817
259.276
258.736
258.199
257.666
257.138
256.616
256.099
255.589
255.084
254.584
254.087
253.594
253.103
252.617
252.135
154.349
155.751
157.338
159.117
161.098
163.289
165.723
168.448
171.506
174.908
178.645
182.69
187.01
191.569
196.354
201.412
207.066
213.372
220.196
227.35
234.625
241.823
248.772
255.344
261.442
266.977
271.845
276.074
279.718
282.846
285.528
287.824
289.775
291.401
292.709
293.699
294.395
294.862
295.162
295.346
295.408
295.374
295.272
295.07
294.744
294.281
293.706
293.063
292.39
291.714
291.053
290.419
289.824
289.274
288.763
288.283
287.828
287.389
286.952
286.504
286.037
285.542
285.018
284.466
283.881
283.273
282.649
282.019
281.382
280.739
280.098
279.476
278.848
278.219
277.639
277.087
276.446
275.875
275.36
274.824
274.216
273.666
273.171
272.639
272.083
271.574
271.073
270.555
270.04
269.537
269.037
268.538
268.044
267.558
267.08
266.608
266.144
265.687
265.237
264.794
264.357
263.927
263.504
263.086
262.674
262.267
174.892
178.764
182.996
187.562
192.424
197.563
203
208.976
215.615
222.816
230.397
238.149
245.861
253.348
260.46
267.072
273.028
278.292
282.887
286.855
290.251
293.135
295.564
297.591
299.254
300.585
301.609
302.355
302.865
303.202
303.441
303.639
303.826
304.006
304.167
304.242
304.201
304.071
303.86
303.59
303.273
302.927
302.577
302.243
301.934
301.623
301.262
300.816
300.282
299.682
299.04
298.379
297.717
297.07
296.448
295.855
295.294
294.759
294.243
293.734
293.219
292.686
292.125
291.528
290.891
290.213
289.496
288.753
287.987
287.197
286.4
285.613
284.819
284.014
283.258
282.54
281.732
280.996
280.324
279.636
278.871
278.168
277.528
276.858
276.161
275.517
274.887
274.245
273.609
272.988
272.375
271.768
271.168
270.58
270.003
269.437
268.88
268.334
267.796
267.269
266.753
266.248
265.755
265.275
264.806
264.35
213.298
220.413
228.023
235.941
243.954
251.85
259.45
266.595
273.116
278.929
284.035
288.465
292.272
295.515
298.261
300.57
302.491
304.066
305.337
306.342
307.116
307.689
308.112
308.442
308.718
308.954
309.149
309.297
309.357
309.322
309.211
309.036
308.828
308.615
308.43
308.302
308.246
308.239
308.215
308.123
307.939
307.672
307.343
306.98
306.613
306.271
305.973
305.687
305.36
304.966
304.498
303.965
303.38
302.762
302.127
301.488
300.857
300.241
299.643
299.059
298.487
297.919
297.345
296.756
296.144
295.502
294.824
294.109
293.359
292.577
291.766
290.929
290.077
289.224
288.346
287.487
286.651
285.775
284.943
284.163
283.366
282.466
281.658
280.921
280.151
279.331
278.577
277.868
277.132
276.392
275.682
274.994
274.315
273.644
272.98
272.333
271.706
271.09
270.479
269.878
269.29
268.716
268.153
267.602
267.064
266.54
266.03
276.063
281.924
287.062
291.51
295.32
298.557
301.288
303.574
305.467
307.016
308.268
309.261
310.031
310.616
311.071
311.449
311.777
312.063
312.304
312.496
312.631
312.678
312.656
312.596
312.51
312.41
312.318
312.238
312.166
312.114
312.055
311.95
311.781
311.562
311.33
311.113
310.944
310.858
310.814
310.756
310.648
310.473
310.23
309.932
309.6
309.255
308.92
308.617
308.337
308.049
307.729
307.364
306.948
306.488
305.992
305.471
304.932
304.387
303.842
303.299
302.758
302.219
301.676
301.123
300.552
299.956
299.329
298.664
297.961
297.218
296.436
295.618
294.763
293.884
292.983
292.073
291.165
290.234
289.323
288.463
287.557
286.579
285.687
284.847
284.011
283.048
282.161
281.348
280.549
279.682
278.84
278.063
277.318
276.549
275.756
275.016
274.314
273.607
272.891
272.19
271.515
270.857
270.205
269.564
268.942
268.339
267.752
300.323
303.17
305.545
307.507
309.113
310.413
311.447
312.253
312.874
313.369
313.786
314.149
314.463
314.727
314.938
315.083
315.158
315.157
315.134
315.096
315.053
315.011
314.979
314.959
314.964
314.958
314.916
314.824
314.694
314.546
314.395
314.249
314.146
314.064
313.976
313.854
313.692
313.495
313.28
313.072
312.9
312.779
312.706
312.642
312.556
312.427
312.249
312.025
311.765
311.486
311.209
310.952
310.707
310.462
310.204
309.918
309.591
309.225
308.826
308.397
307.943
307.478
307.006
306.525
306.043
305.559
305.064
304.557
304.032
303.48
302.896
302.274
301.61
300.905
300.155
299.362
298.521
297.65
296.758
295.847
294.901
293.964
293.058
292.112
291.116
290.175
289.262
288.41
287.365
286.381
285.481
284.635
283.667
282.718
281.865
281.064
280.204
279.292
278.472
277.709
276.926
276.091
275.297
274.565
273.831
273.083
272.355
271.66
270.983
270.315
314.864
315.412
315.869
316.262
316.6
316.884
317.111
317.269
317.357
317.381
317.374
317.361
317.341
317.327
317.321
317.334
317.362
317.363
317.327
317.256
317.156
317.038
316.92
316.817
316.758
316.716
316.67
316.6
316.496
316.36
316.208
316.049
315.901
315.773
315.667
315.569
315.455
315.32
315.164
314.997
314.83
314.694
314.586
314.512
314.456
314.39
314.297
314.168
314
313.795
313.568
313.341
313.12
312.898
312.683
312.468
312.227
311.953
311.653
311.325
310.961
310.579
310.187
309.775
309.356
308.94
308.512
308.073
307.626
307.158
306.665
306.141
305.578
304.975
304.33
303.637
302.889
302.096
301.277
300.427
299.514
298.607
297.723
296.795
295.802
294.857
293.929
293.091
292.031
290.996
290.048
289.166
288.167
287.145
286.24
285.395
284.465
283.468
282.593
281.774
280.941
279.999
279.137
278.349
277.558
276.706
275.904
275.16
274.409
273.648
319.523
319.568
319.57
319.566
319.555
319.55
319.554
319.578
319.619
319.622
319.589
319.528
319.437
319.334
319.234
319.158
319.119
319.09
319.05
318.983
318.889
318.775
318.647
318.519
318.404
318.317
318.25
318.188
318.12
318.031
317.923
317.798
317.666
317.538
317.425
317.327
317.231
317.132
317.02
316.894
316.755
316.62
316.5
316.407
316.33
316.27
316.209
316.132
316.031
315.895
315.728
315.545
315.364
315.166
314.964
314.778
314.587
314.365
314.128
313.879
313.596
313.28
312.964
312.624
312.258
311.906
311.544
311.16
310.779
310.387
309.972
309.543
309.08
308.579
308.049
307.474
306.842
306.161
305.449
304.713
303.874
303.039
302.223
301.381
300.409
299.499
298.605
297.805
296.776
295.741
294.796
293.904
292.926
291.873
290.946
290.08
289.118
288.079
287.177
286.322
285.46
284.449
283.549
282.722
281.893
280.959
280.099
279.31
278.482
277.655
321.884
321.893
321.865
321.807
321.717
321.616
321.517
321.446
321.409
321.378
321.336
321.269
321.178
321.07
320.953
320.839
320.746
320.679
320.629
320.581
320.522
320.447
320.357
320.257
320.152
320.056
319.977
319.912
319.855
319.793
319.719
319.63
319.526
319.414
319.303
319.198
319.101
319.008
318.912
318.809
318.695
318.575
318.456
318.348
318.256
318.18
318.116
318.048
317.978
317.894
317.771
317.633
317.501
317.333
317.147
316.977
316.821
316.622
316.417
316.221
316.011
315.74
315.478
315.215
314.895
314.587
314.289
313.952
313.618
313.29
312.932
312.58
312.208
311.793
311.364
310.904
310.392
309.824
309.233
308.638
307.904
307.162
306.434
305.728
304.812
303.962
303.139
302.392
301.421
300.432
299.535
298.674
297.725
296.686
295.775
294.917
293.947
292.907
292.004
291.142
290.264
289.23
288.327
287.488
286.63
285.641
284.738
283.916
283.032
282.187
323.741
323.698
323.648
323.576
323.482
323.371
323.253
323.14
323.049
322.987
322.942
322.898
322.844
322.777
322.697
322.608
322.52
322.444
322.386
322.34
322.297
322.25
322.192
322.122
322.041
321.956
321.875
321.802
321.739
321.681
321.621
321.552
321.472
321.381
321.282
321.181
321.082
320.987
320.894
320.799
320.699
320.591
320.48
320.37
320.266
320.176
320.097
320.024
319.957
319.892
319.796
319.696
319.603
319.465
319.299
319.156
319.026
318.835
318.657
318.495
318.33
318.088
317.874
317.678
317.393
317.127
316.889
316.585
316.289
316.016
315.707
315.401
315.103
314.755
314.395
314.046
313.637
313.17
312.691
312.232
311.611
310.979
310.357
309.776
308.958
308.193
307.46
306.782
305.874
304.97
304.15
303.357
302.426
301.439
300.574
299.75
298.789
297.781
296.903
296.063
295.163
294.149
293.269
292.436
291.569
290.556
289.631
288.773
287.891
287.048
325.51
325.406
325.332
325.279
325.23
325.174
325.107
325.029
324.943
324.86
324.79
324.739
324.7
324.664
324.625
324.576
324.518
324.452
324.385
324.323
324.272
324.229
324.189
324.147
324.098
324.04
323.974
323.903
323.833
323.768
323.707
323.649
323.589
323.523
323.449
323.366
323.275
323.181
323.087
322.993
322.9
322.804
322.705
322.601
322.494
322.388
322.289
322.198
322.111
322.039
321.974
321.89
321.81
321.74
321.628
321.491
321.372
321.263
321.094
320.932
320.797
320.656
320.445
320.265
320.112
319.875
319.639
319.444
319.19
318.919
318.692
318.424
318.148
317.905
317.607
317.31
317.041
316.698
316.317
315.94
315.593
315.066
314.553
314.045
313.569
312.851
312.198
311.566
310.962
310.119
309.327
308.593
307.88
306.966
306.065
305.259
304.484
303.546
302.594
301.754
300.954
300.033
299.071
298.227
297.418
296.537
295.535
294.619
293.752
292.887
292.049
327.331
327.242
327.166
327.108
327.065
327.027
326.988
326.942
326.887
326.827
326.767
326.714
326.672
326.638
326.608
326.577
326.54
326.497
326.448
326.397
326.349
326.306
326.267
326.231
326.194
326.151
326.103
326.048
325.988
325.928
325.869
325.812
325.755
325.696
325.633
325.562
325.484
325.4
325.312
325.221
325.13
325.037
324.942
324.844
324.742
324.639
324.538
324.44
324.346
324.266
324.194
324.113
324.038
323.979
323.891
323.777
323.682
323.592
323.452
323.305
323.191
323.071
322.891
322.734
322.611
322.423
322.213
322.051
321.85
321.604
321.409
321.188
320.931
320.723
320.476
320.215
319.996
319.709
319.398
319.104
318.83
318.379
317.977
317.584
317.176
316.556
316.025
315.496
314.953
314.183
313.516
312.865
312.218
311.347
310.546
309.803
309.079
308.169
307.29
306.49
305.73
304.815
303.917
303.104
302.325
301.422
300.476
299.594
298.737
297.884
297.053
296.254
295.455
329.288
329.226
329.164
329.11
329.066
329.031
329.002
328.972
328.94
328.903
328.861
328.82
328.782
328.75
328.724
328.7
328.677
328.65
328.618
328.583
328.546
328.509
328.475
328.444
328.413
328.381
328.345
328.304
328.258
328.208
328.156
328.104
328.051
327.998
327.942
327.881
327.815
327.742
327.664
327.581
327.495
327.407
327.317
327.225
327.129
327.032
326.934
326.837
326.742
326.657
326.579
326.498
326.425
326.369
326.297
326.204
326.128
326.057
325.947
325.819
325.725
325.626
325.479
325.339
325.24
325.095
324.912
324.778
324.621
324.406
324.238
324.061
323.824
323.638
323.439
323.195
323
322.774
322.505
322.268
322.034
321.662
321.342
321.053
320.666
320.157
319.728
319.311
318.784
318.118
317.563
317.005
316.383
315.576
314.884
314.209
313.522
312.647
311.848
311.095
310.365
309.473
308.636
307.849
307.086
306.194
305.314
304.477
303.636
302.791
301.971
301.176
300.391
331.419
331.385
331.35
331.312
331.272
331.231
331.195
331.164
331.14
331.119
331.099
331.078
331.055
331.029
331.003
330.979
330.958
330.941
330.925
330.91
330.892
330.872
330.848
330.823
330.798
330.774
330.75
330.726
330.701
330.672
330.639
330.602
330.561
330.518
330.473
330.426
330.378
330.327
330.271
330.21
330.144
330.072
329.996
329.917
329.835
329.751
329.664
329.576
329.485
329.394
329.305
329.221
329.142
329.064
328.994
328.939
328.876
328.801
328.742
328.687
328.605
328.502
328.428
328.352
328.236
328.114
328.038
327.926
327.771
327.663
327.541
327.358
327.216
327.075
326.865
326.695
326.535
326.308
326.123
325.944
325.698
325.486
325.289
324.984
324.716
324.492
324.124
323.717
323.362
323.034
322.516
321.964
321.493
321.027
320.396
319.689
319.09
318.491
317.805
316.985
316.268
315.571
314.846
313.987
313.207
312.455
311.69
310.825
310.003
309.213
308.392
307.551
306.744
305.962
305.189
333.561
333.536
333.514
333.492
333.469
333.445
333.422
333.401
333.384
333.37
333.36
333.35
333.341
333.329
333.317
333.305
333.294
333.285
333.278
333.272
333.266
333.258
333.249
333.237
333.224
333.21
333.196
333.182
333.167
333.15
333.13
333.106
333.078
333.047
333.013
332.977
332.938
332.898
332.854
332.805
332.753
332.695
332.632
332.566
332.496
332.423
332.349
332.272
332.193
332.114
332.034
331.958
331.884
331.813
331.751
331.697
331.643
331.584
331.539
331.498
331.44
331.364
331.311
331.257
331.17
331.071
331.015
330.93
330.802
330.718
330.623
330.471
330.353
330.24
330.059
329.904
329.771
329.568
329.383
329.234
329.01
328.799
328.629
328.372
328.121
327.925
327.607
327.267
326.96
326.683
326.191
325.736
325.321
324.922
324.304
323.694
323.16
322.634
321.934
321.191
320.54
319.905
319.16
318.351
317.619
316.91
316.128
315.294
314.521
313.772
312.971
312.129
311.336
310.571
309.811
309.054
335.993
335.959
335.929
335.901
335.872
335.845
335.82
335.799
335.782
335.769
335.759
335.75
335.74
335.731
335.723
335.716
335.712
335.71
335.711
335.713
335.714
335.716
335.717
335.718
335.72
335.723
335.727
335.732
335.737
335.741
335.744
335.744
335.743
335.742
335.739
335.736
335.731
335.724
335.714
335.701
335.685
335.665
335.642
335.617
335.589
335.559
335.525
335.488
335.446
335.4
335.35
335.296
335.239
335.18
335.118
335.055
334.99
334.925
334.862
334.799
334.74
334.687
334.64
334.595
334.552
334.519
334.49
334.452
334.402
334.368
334.334
334.272
334.2
334.162
334.097
333.995
333.933
333.859
333.732
333.635
333.543
333.388
333.245
333.132
332.953
332.766
332.63
332.431
332.209
332.045
331.826
331.569
331.37
331.112
330.799
330.515
330.264
329.823
329.426
329.051
328.693
328.104
327.568
327.079
326.607
325.923
325.246
324.64
324.058
323.306
322.545
321.85
321.181
320.383
319.579
318.845
318.13
317.339
316.496
315.721
314.974
314.228
313.483
338.213
338.191
338.173
338.158
338.144
338.132
338.121
338.112
338.106
338.103
338.103
338.105
338.108
338.112
338.117
338.122
338.129
338.138
338.149
338.162
338.176
338.19
338.205
338.219
338.234
338.25
338.266
338.283
338.301
338.318
338.335
338.35
338.364
338.377
338.389
338.399
338.409
338.416
338.422
338.425
338.425
338.422
338.415
338.406
338.395
338.381
338.364
338.343
338.32
338.293
338.261
338.227
338.189
338.148
338.105
338.06
338.014
337.967
337.92
337.873
337.829
337.788
337.751
337.718
337.689
337.667
337.648
337.626
337.598
337.581
337.561
337.521
337.475
337.45
337.401
337.322
337.277
337.216
337.109
337.028
336.95
336.813
336.679
336.577
336.415
336.226
336.092
335.911
335.679
335.503
335.308
335.04
334.816
334.6
334.294
334.005
333.763
333.382
333.005
332.653
332.322
331.772
331.277
330.817
330.388
329.745
329.105
328.531
327.991
327.258
326.531
325.861
325.226
324.428
323.648
322.939
322.25
321.459
320.631
319.877
319.149
318.416
317.682
340.502
340.491
340.484
340.481
340.48
340.481
340.483
340.487
340.493
340.501
340.512
340.524
340.539
340.555
340.573
340.591
340.61
340.632
340.654
340.679
340.705
340.733
340.761
340.789
340.818
340.848
340.878
340.909
340.941
340.972
341.004
341.035
341.065
341.094
341.122
341.149
341.174
341.199
341.221
341.242
341.26
341.275
341.288
341.298
341.305
341.309
341.312
341.311
341.307
341.301
341.291
341.277
341.261
341.241
341.219
341.195
341.169
341.141
341.113
341.084
341.056
341.03
341.006
340.985
340.968
340.955
340.946
340.935
340.922
340.916
340.907
340.882
340.856
340.838
340.799
340.739
340.703
340.648
340.553
340.48
340.407
340.28
340.149
340.05
339.895
339.701
339.561
339.385
339.144
338.946
338.757
338.484
338.226
338.013
337.717
337.402
337.142
336.816
336.428
336.081
335.768
335.266
334.779
334.336
333.937
333.352
332.718
332.164
331.651
330.978
330.259
329.603
328.996
328.223
327.455
326.75
326.067
325.311
324.518
323.778
323.059
322.339
321.617
342.844
342.846
342.851
342.859
342.869
342.882
342.897
342.913
342.931
342.951
342.973
342.998
343.024
343.052
343.082
343.113
343.146
343.18
343.216
343.254
343.293
343.334
343.376
343.419
343.464
343.508
343.554
343.6
343.647
343.695
343.743
343.791
343.838
343.884
343.93
343.975
344.019
344.062
344.103
344.143
344.18
344.216
344.249
344.28
344.308
344.333
344.356
344.377
344.395
344.41
344.422
344.431
344.437
344.44
344.439
344.436
344.431
344.424
344.414
344.403
344.392
344.38
344.369
344.36
344.352
344.346
344.343
344.338
344.334
344.332
344.326
344.31
344.292
344.275
344.239
344.189
344.152
344.095
344.004
343.93
343.851
343.723
343.587
343.481
343.323
343.119
342.963
342.781
342.53
342.303
342.102
341.823
341.529
341.291
341.001
340.653
340.355
340.059
339.656
339.293
338.972
338.524
338.027
337.592
337.187
336.688
336.045
335.493
334.963
334.408
333.689
333.024
332.406
331.725
330.965
330.248
329.556
328.848
328.104
327.375
326.664
325.955
325.246
324.545
323.858
345.229
345.243
345.26
345.28
345.302
345.326
345.353
345.381
345.412
345.444
345.478
345.515
345.553
345.594
345.636
345.681
345.727
345.775
345.825
345.877
345.93
345.986
346.043
346.102
346.161
346.223
346.285
346.348
346.412
346.476
346.542
346.607
346.673
346.738
346.803
346.868
346.931
346.994
347.056
347.116
347.175
347.231
347.286
347.339
347.389
347.437
347.482
347.525
347.565
347.602
347.636
347.668
347.695
347.72
347.741
347.758
347.772
347.783
347.791
347.796
347.799
347.8
347.799
347.797
347.795
347.793
347.79
347.786
347.781
347.776
347.766
347.748
347.728
347.703
347.661
347.609
347.56
347.491
347.394
347.309
347.213
347.073
346.924
346.798
346.625
346.404
346.223
346.024
345.756
345.493
345.269
344.976
344.645
344.368
344.07
343.691
343.351
343.046
342.635
342.238
341.884
341.485
340.973
340.533
340.102
339.676
339.041
338.469
337.936
337.435
336.777
336.084
335.453
334.83
334.121
333.399
332.707
332.021
331.321
330.615
329.916
329.221
328.529
327.841
327.163
347.647
347.674
347.703
347.734
347.768
347.804
347.842
347.882
347.925
347.97
348.016
348.066
348.117
348.171
348.227
348.285
348.345
348.408
348.472
348.539
348.608
348.679
348.752
348.827
348.903
348.981
349.061
349.142
349.224
349.307
349.391
349.475
349.56
349.645
349.73
349.815
349.9
349.983
350.066
350.147
350.228
350.306
350.383
350.458
350.531
350.6
350.668
350.732
350.794
350.853
350.908
350.96
351.008
351.051
351.091
351.126
351.157
351.183
351.205
351.222
351.235
351.243
351.248
351.248
351.246
351.242
351.234
351.223
351.208
351.191
351.168
351.137
351.102
351.058
351
350.933
350.861
350.769
350.655
350.545
350.421
350.258
350.085
349.929
349.729
349.482
349.267
349.04
348.747
348.443
348.185
347.869
347.499
347.177
346.857
346.449
346.062
345.724
345.305
344.866
344.472
344.088
343.569
343.111
342.663
342.259
341.652
341.059
340.53
340.023
339.459
338.752
338.119
337.504
336.855
336.154
335.473
334.806
334.136
333.459
332.78
332.104
331.43
330.759
330.094
350.054
350.09
350.128
350.169
350.212
350.257
350.305
350.355
350.408
350.463
350.52
350.58
350.642
350.707
350.774
350.844
350.917
350.992
351.069
351.149
351.232
351.317
351.404
351.493
351.585
351.679
351.775
351.873
351.972
352.073
352.175
352.278
352.382
352.487
352.592
352.698
352.804
352.909
353.014
353.118
353.221
353.323
353.423
353.521
353.617
353.711
353.802
353.89
353.975
354.056
354.133
354.207
354.276
354.341
354.4
354.454
354.502
354.545
354.581
354.611
354.634
354.65
354.66
354.663
354.66
354.651
354.636
354.615
354.588
354.554
354.515
354.468
354.413
354.351
354.278
354.191
354.094
353.989
353.863
353.718
353.572
353.409
353.212
353.003
352.805
352.567
352.285
352.027
351.762
351.434
351.087
350.786
350.437
350.027
349.656
349.303
348.865
348.43
348.047
347.615
347.132
346.7
346.3
345.777
345.293
344.832
344.421
343.839
343.236
342.711
342.191
341.684
340.993
340.362
339.757
339.141
338.482
337.822
337.177
336.533
335.884
335.232
334.579
333.927
333.277
332.631
352.5
352.548
352.598
352.65
352.705
352.762
352.822
352.884
352.949
353.017
353.087
353.16
353.236
353.315
353.396
353.481
353.568
353.658
353.751
353.847
353.945
354.047
354.151
354.258
354.367
354.479
354.593
354.709
354.827
354.946
355.068
355.191
355.314
355.439
355.565
355.691
355.817
355.943
356.068
356.193
356.316
356.438
356.558
356.676
356.792
356.905
357.014
357.12
357.222
357.319
357.412
357.5
357.582
357.658
357.727
357.79
357.845
357.892
357.932
357.962
357.983
357.996
357.998
357.992
357.976
357.951
357.917
357.874
357.821
357.759
357.688
357.607
357.515
357.414
357.3
357.173
357.034
356.882
356.712
356.524
356.329
356.116
355.874
355.62
355.369
355.083
354.757
354.448
354.135
353.764
353.369
353.019
352.63
352.179
351.756
351.362
350.893
350.409
349.979
349.527
349.005
348.533
348.104
347.576
347.063
346.586
346.16
345.591
344.986
344.464
343.938
343.451
342.792
342.172
341.585
340.992
340.374
339.745
339.125
338.509
337.89
337.268
336.643
336.019
335.394
334.77
334.149
333.53
354.955
355.014
355.075
355.139
355.205
355.275
355.347
355.421
355.499
355.58
355.663
355.75
355.839
355.932
356.028
356.127
356.229
356.335
356.444
356.555
356.67
356.789
356.91
357.034
357.16
357.29
357.422
357.557
357.693
357.832
357.972
358.114
358.257
358.401
358.546
358.691
358.836
358.981
359.126
359.269
359.411
359.551
359.688
359.823
359.955
360.084
360.208
360.327
360.442
360.55
360.653
360.749
360.838
360.919
360.992
361.056
361.11
361.154
361.188
361.21
361.221
361.219
361.206
361.181
361.143
361.093
361.029
360.953
360.865
360.764
360.65
360.524
360.386
360.234
360.069
359.889
359.696
359.488
359.261
359.019
358.765
358.493
358.195
357.886
357.574
357.231
356.853
356.488
356.118
355.698
355.252
354.847
354.413
353.919
353.444
353.006
352.503
351.974
351.497
351.021
350.467
349.954
349.492
348.959
348.416
347.924
347.479
346.917
346.316
345.796
345.273
344.79
344.162
343.563
342.999
342.431
341.847
341.254
340.665
340.079
339.493
338.904
338.312
337.719
337.124
336.528
335.932
335.337
357.41
357.479
357.552
357.628
357.706
357.787
357.871
357.958
358.049
358.142
358.239
358.339
358.443
358.55
358.66
358.774
358.891
359.012
359.137
359.265
359.396
359.531
359.669
359.81
359.954
360.101
360.25
360.402
360.557
360.713
360.871
361.031
361.192
361.354
361.516
361.679
361.841
362.003
362.164
362.323
362.48
362.634
362.786
362.933
363.077
363.216
363.35
363.477
363.598
363.712
363.818
363.916
364.004
364.083
364.151
364.207
364.252
364.284
364.303
364.306
364.297
364.274
364.235
364.18
364.109
364.022
363.92
363.801
363.667
363.517
363.351
363.17
362.974
362.762
362.535
362.292
362.034
361.76
361.468
361.16
360.84
360.5
360.138
359.765
359.385
358.979
358.544
358.117
357.684
357.209
356.711
356.25
355.765
355.228
354.704
354.221
353.684
353.115
352.596
352.092
351.514
350.965
350.47
349.935
349.367
348.861
348.397
347.844
347.25
346.736
346.222
345.742
345.138
344.568
344.032
343.493
342.942
342.386
341.831
341.28
340.729
340.176
339.621
339.063
338.502
337.938
337.372
336.809
359.857
359.938
360.022
360.108
360.198
360.291
360.388
360.487
360.59
360.697
360.807
360.92
361.038
361.159
361.283
361.412
361.544
361.68
361.82
361.963
362.11
362.261
362.415
362.572
362.732
362.896
363.062
363.23
363.401
363.574
363.748
363.924
364.1
364.278
364.455
364.632
364.808
364.983
365.157
365.328
365.496
365.66
365.82
365.976
366.126
366.27
366.407
366.536
366.657
366.768
366.87
366.961
367.04
367.107
367.162
367.202
367.227
367.237
367.23
367.208
367.169
367.111
367.035
366.941
366.827
366.694
366.542
366.371
366.181
365.972
365.745
365.5
365.237
364.956
364.659
364.344
364.013
363.665
363.3
362.918
362.523
362.11
361.678
361.234
360.782
360.307
359.811
359.32
358.822
358.289
357.739
357.22
356.683
356.104
355.535
355.009
354.439
353.838
353.285
352.754
352.16
351.583
351.063
350.528
349.946
349.426
348.948
348.41
347.829
347.324
346.825
346.351
345.774
345.239
344.734
344.226
343.711
343.192
342.675
342.161
341.648
341.135
340.619
340.1
339.577
339.048
338.518
337.989
337.458
362.381
362.476
362.574
362.675
362.78
362.888
363
363.115
363.234
363.357
363.484
363.614
363.749
363.887
364.03
364.176
364.327
364.481
364.639
364.801
364.966
365.135
365.307
365.482
365.66
365.841
366.023
366.208
366.395
366.583
366.772
366.961
367.15
367.339
367.527
367.713
367.897
368.079
368.256
368.43
368.599
368.762
368.919
369.069
369.211
369.344
369.467
369.58
369.681
369.77
369.846
369.907
369.954
369.985
369.998
369.994
369.973
369.933
369.873
369.792
369.691
369.568
369.423
369.257
369.068
368.857
368.624
368.369
368.093
367.796
367.479
367.141
366.785
366.41
366.016
365.606
365.178
364.733
364.272
363.798
363.308
362.8
362.282
361.754
361.209
360.649
360.093
359.531
358.941
358.342
357.768
357.18
356.562
355.955
355.387
354.788
354.165
353.587
353.036
352.436
351.843
351.308
350.775
350.194
349.661
349.177
348.666
348.106
347.611
347.134
346.674
346.137
345.636
345.163
344.69
344.212
343.733
343.257
342.783
342.312
341.839
341.365
340.888
340.406
339.916
339.425
338.933
338.437
364.801
364.907
365.016
365.128
365.244
365.363
365.487
365.614
365.745
365.88
366.019
366.163
366.31
366.461
366.617
366.776
366.94
367.107
367.278
367.453
367.632
367.814
367.998
368.186
368.376
368.569
368.764
368.96
369.157
369.355
369.554
369.752
369.949
370.145
370.339
370.53
370.718
370.902
371.081
371.255
371.421
371.581
371.732
371.874
372.007
372.128
372.237
372.333
372.415
372.483
372.534
372.568
372.585
372.581
372.561
372.519
372.456
372.371
372.263
372.132
371.977
371.797
371.593
371.365
371.111
370.833
370.53
370.202
369.851
369.478
369.082
368.664
368.225
367.767
367.29
366.796
366.284
365.755
365.211
364.654
364.085
363.501
362.908
362.306
361.691
361.066
360.447
359.829
359.194
358.557
357.939
357.312
356.665
356.033
355.433
354.812
354.177
353.585
353.019
352.419
351.823
351.285
350.754
350.187
349.652
349.171
348.685
348.155
347.671
347.219
346.778
346.286
345.822
345.383
344.948
344.51
344.073
343.64
343.209
342.781
342.352
341.921
341.487
341.048
340.6
340.149
339.695
339.236
367.307
367.426
367.548
367.675
367.805
367.939
368.078
368.22
368.366
368.517
368.671
368.83
368.993
369.16
369.331
369.506
369.685
369.867
370.053
370.243
370.435
370.63
370.828
371.027
371.229
371.432
371.636
371.84
372.044
372.248
372.45
372.651
372.849
373.043
373.234
373.42
373.6
373.774
373.94
374.098
374.246
374.385
374.511
374.626
374.727
374.813
374.884
374.938
374.975
374.993
374.989
374.968
374.924
374.858
374.768
374.654
374.514
374.35
374.159
373.941
373.697
373.425
373.126
372.799
372.446
372.066
371.66
371.228
370.772
370.292
369.79
369.265
368.719
368.155
367.575
366.978
366.364
365.737
365.097
364.448
363.796
363.139
362.477
361.805
361.129
360.456
359.787
359.112
358.442
357.787
357.13
356.463
355.815
355.193
354.56
353.924
353.326
352.751
352.157
351.571
351.038
350.518
349.975
349.453
348.988
348.526
348.033
347.569
347.144
346.73
346.286
345.86
345.454
345.058
344.664
344.272
343.883
343.497
343.113
342.728
342.341
341.951
341.556
341.152
340.742
340.327
339.906
369.796
369.928
370.064
370.204
370.348
370.496
370.648
370.804
370.965
371.129
371.298
371.471
371.647
371.828
372.012
372.2
372.391
372.586
372.783
372.983
373.185
373.389
373.595
373.801
374.008
374.216
374.422
374.628
374.832
375.033
375.232
375.426
375.615
375.799
375.976
376.146
376.308
376.459
376.601
376.731
376.848
376.951
377.04
377.112
377.167
377.204
377.222
377.218
377.194
377.148
377.077
376.982
376.862
376.715
376.541
376.339
376.109
375.85
375.562
375.245
374.898
374.522
374.116
373.682
373.219
372.729
372.211
371.667
371.1
370.511
369.898
369.264
368.611
367.945
367.27
366.585
365.889
365.182
364.467
363.75
363.033
362.314
361.593
360.871
360.154
359.438
358.723
358.019
357.331
356.647
355.966
355.306
354.669
354.033
353.404
352.81
352.238
351.662
351.1
350.584
350.082
349.572
349.081
348.641
348.209
347.764
347.337
346.948
346.571
346.182
345.8
345.432
345.075
344.724
344.378
344.035
343.694
343.355
343.015
342.672
342.326
341.975
341.616
341.246
340.871
340.488
340.095
339.691
372.116
372.257
372.401
372.549
372.702
372.858
373.019
373.183
373.352
373.524
373.701
373.881
374.065
374.253
374.444
374.638
374.835
375.034
375.236
375.44
375.646
375.852
376.06
376.267
376.474
376.68
376.884
377.086
377.284
377.479
377.669
377.854
378.031
378.202
378.364
378.516
378.658
378.788
378.905
379.008
379.097
379.169
379.223
379.258
379.274
379.268