/*--------------------------------*- C++ -*----------------------------------*\
| =========                 |                                                 |
| \\      /  F ield         | OpenFOAM: The Open Source CFD Toolbox           |
|  \\    /   O peration     | Version:  v1706                                 |
|   \\  /    A nd           | Web:      www.OpenFOAM.com                      |
|    \\/     M anipulation  |                                                 |
\*---------------------------------------------------------------------------*/
FoamFile
{
    version     2.0;
    format      ascii;
    class       volVectorField;
    location    "3.9e-05";
    object      U;
}
// * * * * * * * * * * * * * * * * * * * * * * * * * * * * * * * * * * * * * //

dimensions      [0 1 -1 0 0 0 0];


internalField   nonuniform List<vector> 
29871
(
(977.995 0.715042 7.14383e-15)
(977.903 0.826483 4.5789e-15)
(977.8 0.951724 4.6562e-15)
(977.685 1.08973 3.69122e-15)
(977.56 1.2408 2.67624e-15)
(977.423 1.40524 3.47471e-15)
(977.275 1.58563 4.34756e-15)
(977.111 1.78794 4.44754e-15)
(976.926 2.02072 4.83195e-15)
(976.71 2.29412 4.83008e-15)
(976.455 2.61737 5.04061e-15)
(976.151 3.00129 6.40176e-15)
(975.793 3.45218 5.20252e-15)
(975.381 3.97159 5.64445e-15)
(974.902 4.57205 4.06417e-15)
(974.348 5.25498 2.7161e-15)
(973.725 6.00818 3.34967e-15)
(973.039 6.81375 4.13414e-15)
(972.306 7.65936 4.26311e-15)
(971.551 8.54247 4.25479e-15)
(970.796 9.47309 3.99183e-15)
(970.053 10.4604 4.27818e-15)
(969.295 11.5373 2.76012e-15)
(968.491 12.7064 4.49571e-15)
(967.582 13.9989 5.77714e-15)
(966.415 15.5588 5.11301e-15)
(964.872 17.5153 6.52505e-15)
(962.919 19.9258 3.70985e-15)
(960.621 22.744 2.89021e-15)
(958.134 25.8695 4.60435e-15)
(955.602 29.1921 4.45125e-15)
(953.098 32.6008 3.23937e-15)
(950.65 36.0093 4.67077e-15)
(948.276 39.3596 6.88985e-15)
(945.99 42.6245 4.32921e-15)
(943.85 45.729 2.11938e-15)
(941.693 48.9197 2.04749e-15)
(939.334 52.3279 4.54885e-15)
(936.399 56.3443 4.63431e-15)
(933.07 60.9069 5.02954e-15)
(929.621 65.7739 5.86176e-15)
(926.235 70.7574 6.15851e-15)
(923.017 75.7356 6.30987e-15)
(920.017 80.6327 3.62626e-15)
(917.252 85.4021 3.21924e-15)
(914.702 90.0224 4.04231e-15)
(912.326 94.4912 2.77708e-15)
(910.079 98.818 3.37092e-16)
(907.923 103.013 1.76628e-15)
(905.838 107.081 4.39112e-15)
(903.824 111.013 4.38859e-15)
(901.899 114.788 1.00061e-15)
(900.087 118.377 2.24515e-15)
(898.428 121.731 4.20116e-15)
(896.949 124.808 3.31465e-15)
(895.672 127.574 3.24755e-15)
(894.609 130.003 3.61862e-15)
(893.765 132.073 4.74094e-15)
(893.149 133.762 2.90988e-15)
(892.73 135.106 3.27451e-15)
(892.502 136.075 1.25932e-15)
(892.446 136.722 5.04599e-16)
(892.476 137.153 1.07738e-15)
(892.787 137.22 3.48196e-17)
(893.028 137.124 2.88143e-15)
(893.395 136.915 3.74107e-15)
(893.824 136.543 2.15956e-15)
(894.228 136.054 1.82225e-15)
(894.675 135.461 1.03342e-15)
(895.169 134.785 1.9681e-15)
(895.702 134.032 2.52301e-15)
(896.272 133.209 2.58924e-15)
(896.857 132.319 1.80913e-15)
(897.487 131.338 1.96602e-15)
(898.171 130.289 1.45638e-15)
(898.875 129.18 3.42501e-15)
(899.623 127.965 8.11439e-16)
(900.454 126.633 1.88227e-15)
(901.317 125.262 1.21017e-15)
(902.169 123.87 3.60452e-15)
(903.059 122.404 3.8761e-15)
(904.006 120.872 3.51717e-15)
(904.979 119.308 3.92553e-15)
(905.986 117.685 2.32631e-15)
(907.042 115.989 3.86265e-15)
(908.124 114.258 4.13742e-15)
(909.224 112.501 2.9449e-15)
(910.349 110.709 3.68814e-15)
(911.499 108.886 4.38513e-15)
(912.662 107.048 3.91694e-15)
(913.835 105.2 3.66018e-15)
(915.015 103.344 2.12905e-15)
(916.199 101.483 3.69004e-15)
(917.381 99.6222 3.98393e-15)
(918.557 97.7674 2.67348e-15)
(919.723 95.9229 2.92359e-15)
(920.878 94.0929 3.11709e-15)
(922.021 92.2792 3.19265e-15)
(923.153 90.4812 3.32718e-15)
(924.275 88.6969 2.84965e-15)
(925.388 86.924 4.48285e-15)
(926.493 85.1608 3.24671e-15)
(927.59 83.4061 1.48682e-15)
(928.678 81.6598 2.64956e-15)
(929.756 79.9229 1.29133e-15)
(974.701 4.23778 1.21065e-14)
(974.155 4.84196 1.22996e-14)
(973.525 5.54364 1.37346e-14)
(972.796 6.35898 1.34564e-14)
(971.962 7.29714 1.2674e-14)
(970.999 8.37823 1.42335e-14)
(969.883 9.61999 1.33176e-14)
(968.597 11.0335 1.33867e-14)
(967.138 12.6212 1.3211e-14)
(965.516 14.3791 1.32539e-14)
(963.753 16.3086 1.28235e-14)
(961.876 18.4093 1.24839e-14)
(959.888 20.6982 1.32371e-14)
(957.759 23.1983 9.29928e-15)
(955.447 25.9056 8.13443e-15)
(952.776 28.9758 1.01336e-14)
(949.564 32.5924 1.19161e-14)
(945.713 36.8928 1.16984e-14)
(941.235 41.9228 1.00785e-14)
(936.232 47.6385 8.98658e-15)
(930.852 53.928 9.80051e-15)
(925.183 60.6919 1.18042e-14)
(919.389 67.7205 1.3296e-14)
(913.355 75.0928 1.30783e-14)
(906.917 82.9071 1.06208e-14)
(899.728 91.3827 1.09236e-14)
(891.789 100.683 1.17217e-14)
(883.307 110.725 1.09307e-14)
(874.469 121.38 1.04262e-14)
(865.417 132.539 1.01022e-14)
(856.275 144.095 1.03807e-14)
(847.171 155.916 6.24763e-15)
(838.232 167.845 9.88811e-15)
(829.59 179.714 1.20363e-14)
(821.375 191.351 1.10439e-14)
(813.672 202.635 8.73055e-15)
(806.57 213.433 6.11802e-15)
(800.233 223.634 9.03676e-15)
(794.727 233.135 6.36472e-15)
(789.93 241.89 6.90184e-15)
(785.747 249.896 6.95845e-15)
(782.144 257.162 5.71831e-15)
(779.119 263.702 5.3952e-15)
(776.675 269.518 4.86024e-15)
(774.843 274.558 3.63407e-15)
(773.622 278.756 5.90561e-15)
(772.942 282.108 4.6279e-15)
(772.719 284.677 2.08977e-15)
(772.885 286.555 3.73628e-15)
(773.386 287.843 1.89648e-15)
(774.178 288.64 2.02785e-15)
(775.212 289.051 3.10584e-15)
(776.446 289.179 4.83008e-15)
(777.82 289.127 2.1008e-15)
(779.276 288.981 3.09007e-15)
(780.77 288.83 5.15805e-16)
(782.266 288.731 2.30948e-15)
(783.73 288.734 1.13214e-15)
(785.125 288.891 -1.86319e-15)
(786.453 289.147 -1.08193e-15)
(787.681 289.563 1.38006e-15)
(788.82 290.129 -5.6344e-16)
(789.797 290.603 1.72134e-15)
(790.764 291.339 1.88264e-16)
(791.776 291.986 3.15752e-15)
(792.853 292.72 2.33909e-15)
(793.295 293.392 3.23887e-15)
(793.73 293.742 4.7887e-15)
(794.276 294.062 4.64679e-15)
(794.861 294.344 4.10593e-15)
(795.422 294.582 4.59091e-15)
(795.947 294.728 2.37418e-15)
(796.424 294.781 4.15851e-15)
(796.834 294.878 5.00187e-15)
(797.234 294.881 2.61454e-15)
(797.659 294.744 3.33842e-15)
(797.998 294.699 1.82003e-15)
(798.214 294.782 1.73149e-15)
(798.421 294.687 2.48305e-15)
(798.694 294.441 3.22945e-15)
(798.918 294.31 1.52034e-15)
(799.073 294.216 1.17827e-15)
(799.257 294 1.03271e-15)
(799.457 293.784 2.4338e-15)
(799.594 293.62 1.69342e-15)
(799.693 293.405 2.4584e-15)
(799.811 293.136 2.04686e-15)
(799.933 292.864 1.20808e-15)
(800.036 292.583 1.8436e-15)
(800.132 292.262 2.02343e-15)
(800.241 291.897 1.56631e-15)
(800.364 291.491 1.88646e-15)
(800.5 291.042 4.84302e-15)
(800.648 290.547 3.85108e-15)
(800.81 290.008 4.09385e-15)
(800.987 289.426 3.20689e-15)
(801.185 288.797 4.33141e-15)
(801.409 288.12 3.34855e-15)
(801.667 287.392 3.52767e-15)
(801.963 286.613 -2.58553e-16)
(802.303 285.778 3.86652e-15)
(802.69 284.884 4.6788e-15)
(803.129 283.928 2.87503e-15)
(803.623 282.905 3.23504e-15)
(804.178 281.81 2.14855e-15)
(966.15 13.1914 2.37422e-14)
(964.326 15.1103 2.31946e-14)
(962.289 17.2519 1.88904e-14)
(960.051 19.6251 2.22124e-14)
(957.617 22.2447 2.33399e-14)
(954.958 25.1486 2.05368e-14)
(952.046 28.3313 2.11247e-14)
(948.739 31.9179 2.08878e-14)
(944.855 36.0849 2.27131e-14)
(940.288 40.97 2.05459e-14)
(935.029 46.6387 1.89225e-14)
(929.165 53.0628 1.73554e-14)
(922.806 60.1653 1.62625e-14)
(916.08 67.8057 1.93543e-14)
(909.045 75.8733 2.00823e-14)
(901.447 84.5673 1.88593e-14)
(893.071 93.9089 1.78829e-14)
(883.687 104.197 1.77691e-14)
(873.407 115.458 1.69166e-14)
(862.415 127.615 1.68573e-14)
(850.891 140.564 1.59379e-14)
(839.025 154.149 1.4365e-14)
(827.001 168.182 1.693e-14)
(815.039 182.409 1.85936e-14)
(803.325 196.606 1.35067e-14)
(792.16 210.491 1.63991e-14)
(781.94 223.649 1.63458e-14)
(772.768 235.798 1.41625e-14)
(764.687 246.745 1.33784e-14)
(757.693 256.381 1.29223e-14)
(751.73 264.71 1.32164e-14)
(746.702 271.836 1.2426e-14)
(742.493 277.926 1.12716e-14)
(738.993 283.169 1.03706e-14)
(736.115 287.754 1.10567e-14)
(733.815 291.807 1.15437e-14)
(732.069 295.408 1.05769e-14)
(730.891 298.47 9.48256e-15)
(730.238 300.996 9.14977e-15)
(730.047 303.082 9.06837e-15)
(730.236 304.794 7.81416e-15)
(730.728 306.169 6.01516e-15)
(731.473 307.243 5.91049e-15)
(732.412 308.078 5.71425e-15)
(733.429 308.827 6.43717e-15)
(734.454 309.749 6.02159e-15)
(735.447 310.956 6.89181e-15)
(736.348 312.328 4.90158e-15)
(737.178 313.7 3.78895e-15)
(737.977 314.951 2.03615e-15)
(738.781 316.004 2.49815e-15)
(739.62 316.808 4.30401e-15)
(740.519 317.336 3.4371e-15)
(741.5 317.587 2.67583e-15)
(742.58 317.591 4.82392e-15)
(743.765 317.393 5.88902e-15)
(745.055 317.052 3.59683e-15)
(746.446 316.625 6.33776e-15)
(747.926 316.175 5.16867e-15)
(749.473 315.77 1.07428e-15)
(751.073 315.429 1.35301e-15)
(752.704 315.212 -1.6201e-15)
(754.343 315.134 2.74878e-15)
(755.971 315.139 1.17772e-15)
(757.579 315.315 -8.40467e-16)
(759.18 315.572 -1.85111e-15)
(760.797 315.917 6.38275e-17)
(762.343 316.34 -8.50107e-16)
(763.741 316.711 1.34542e-16)
(765.213 317.104 -7.4614e-17)
(766.649 317.502 1.61474e-16)
(768.101 317.892 1.24187e-15)
(769.427 318 1.80138e-17)
(770.766 318.224 9.10545e-16)
(772.198 318.499 1.81958e-15)
(773.472 318.404 1.59521e-15)
(774.396 318.345 3.52037e-15)
(775.73 318.407 4.14306e-15)
(777.019 318.315 1.82076e-15)
(777.913 318.006 3.08348e-15)
(778.776 317.97 3.15051e-15)
(780.003 317.837 2.73144e-15)
(781.088 317.496 2.23546e-15)
(781.832 317.341 1.50858e-15)
(782.756 317.064 3.88416e-15)
(783.821 316.61 1.88304e-15)
(784.603 316.226 -3.8645e-16)
(785.351 315.874 -3.18416e-16)
(786.156 315.414 4.37827e-17)
(786.907 314.901 -2.42844e-15)
(787.577 314.396 -1.0075e-15)
(788.215 313.873 -3.33315e-15)
(788.83 313.308 -1.89015e-15)
(789.403 312.709 -1.24039e-15)
(789.929 312.086 -4.11906e-16)
(790.417 311.435 -6.94931e-16)
(790.871 310.757 -1.66059e-15)
(791.29 310.062 1.0276e-15)
(791.68 309.353 4.03043e-17)
(792.048 308.629 8.95435e-16)
(792.399 307.892 1.45315e-16)
(792.734 307.148 2.89846e-15)
(793.057 306.402 2.48915e-15)
(793.37 305.661 1.55334e-15)
(793.671 304.936 3.79468e-15)
(793.961 304.238 3.4723e-15)
(940.487 39.9009 3.1664e-14)
(935.255 45.4146 3.27653e-14)
(929.305 51.7456 2.85173e-14)
(922.722 58.8582 2.94548e-14)
(915.604 66.666 2.92845e-14)
(908.09 74.9992 2.8153e-14)
(899.906 84.077 3.02201e-14)
(890.956 93.841 2.97193e-14)
(880.957 104.538 2.55563e-14)
(869.945 116.265 2.54856e-14)
(858.102 128.956 2.73336e-14)
(845.636 142.482 2.62183e-14)
(832.752 156.687 2.50042e-14)
(819.678 171.342 2.46625e-14)
(806.634 186.203 2.52464e-14)
(793.892 200.98 2.26842e-14)
(781.897 215.25 2.36309e-14)
(770.849 228.643 2.24471e-14)
(760.823 240.936 2.24087e-14)
(751.864 251.989 2.13694e-14)
(743.984 261.737 2.15138e-14)
(737.148 270.191 2.324e-14)
(731.284 277.435 2.08603e-14)
(726.268 283.629 1.98287e-14)
(722.001 288.915 1.85394e-14)
(718.421 293.444 1.76696e-14)
(715.45 297.445 1.996e-14)
(713.024 301.048 1.46176e-14)
(711.074 304.315 1.54268e-14)
(709.567 307.198 1.55534e-14)
(708.458 309.602 1.61208e-14)
(707.693 311.464 1.54076e-14)
(707.236 312.758 1.37232e-14)
(707.07 313.512 1.59285e-14)
(707.207 313.803 1.34339e-14)
(707.588 313.819 1.30576e-14)
(708.125 313.94 1.18461e-14)
(708.689 314.415 9.90763e-15)
(709.18 315.168 1.0127e-14)
(709.636 316.04 8.32006e-15)
(710.106 316.93 1.08725e-14)
(710.626 317.756 1.03239e-14)
(711.213 318.461 8.45171e-15)
(711.877 318.994 9.24246e-15)
(712.658 319.234 7.57149e-15)
(713.519 319.329 6.75448e-15)
(714.468 319.475 5.48104e-15)
(715.537 319.73 6.69585e-15)
(716.703 320.103 8.59445e-15)
(717.94 320.554 3.88445e-15)
(719.231 321.032 4.21631e-15)
(720.567 321.495 4.05384e-15)
(721.944 321.911 5.65061e-15)
(723.361 322.254 6.43799e-15)
(724.819 322.502 3.5432e-15)
(726.32 322.645 4.36618e-15)
(727.864 322.678 6.91903e-15)
(729.455 322.601 5.44536e-15)
(731.091 322.426 3.91307e-15)
(732.765 322.173 4.79166e-15)
(734.473 321.863 4.4204e-15)
(736.206 321.525 1.53565e-15)
(737.954 321.187 1.0176e-15)
(739.712 320.868 7.27929e-16)
(741.473 320.589 2.84091e-17)
(743.232 320.374 2.73532e-16)
(744.994 320.223 7.61151e-16)
(746.757 320.129 -9.6238e-16)
(748.468 320.096 -5.0877e-17)
(750.174 320.077 -1.16989e-15)
(751.948 320.191 1.41532e-15)
(753.717 320.374 -1.78305e-16)
(755.386 320.301 -4.24873e-16)
(757.06 320.429 -6.32817e-16)
(758.804 320.769 -2.29739e-15)
(760.442 320.655 -1.00167e-16)
(761.746 320.473 1.38622e-15)
(763.41 320.695 1.66778e-15)
(765.015 320.727 1.89783e-15)
(766.306 320.46 3.04004e-15)
(767.475 320.416 4.69291e-16)
(769.039 320.466 -5.37847e-16)
(770.496 320.322 -9.85673e-16)
(771.581 320.268 6.50268e-16)
(772.849 320.137 1.15582e-15)
(774.307 319.931 -8.93134e-16)
(775.468 319.772 1.75875e-15)
(776.59 319.654 3.13976e-15)
(777.799 319.431 1.59503e-15)
(778.965 319.158 1.37011e-16)
(780.042 318.914 2.62874e-16)
(781.084 318.678 -4.35173e-16)
(782.105 318.419 -1.16225e-17)
(783.085 318.131 1.77126e-17)
(784.008 317.822 -1.97289e-15)
(784.881 317.502 -1.82245e-15)
(785.715 317.171 3.30748e-15)
(786.514 316.825 -8.76396e-16)
(787.276 316.464 -1.37936e-15)
(788.003 316.087 6.10801e-16)
(788.706 315.696 -8.70643e-17)
(789.388 315.291 -7.61657e-16)
(790.05 314.869 1.50793e-15)
(790.692 314.426 8.21259e-16)
(791.313 313.96 2.90051e-16)
(791.91 313.473 1.82882e-15)
(885.174 98.6858 3.84157e-14)
(874.354 110.12 3.88851e-14)
(862.567 122.55 3.75034e-14)
(849.993 135.899 3.68497e-14)
(836.84 150.039 3.73643e-14)
(823.332 164.775 3.42859e-14)
(809.71 179.863 3.43452e-14)
(796.231 195.018 3.54487e-14)
(783.325 209.845 3.65247e-14)
(771.282 223.924 3.33674e-14)
(760.217 236.974 3.00332e-14)
(750.209 248.809 2.99996e-14)
(741.3 259.324 2.96043e-14)
(733.493 268.484 2.72248e-14)
(726.737 276.34 2.82343e-14)
(720.936 283.006 2.96246e-14)
(716.009 288.616 2.84465e-14)
(711.862 293.398 2.85535e-14)
(708.4 297.538 2.67711e-14)
(705.516 301.174 2.4413e-14)
(703.108 304.399 2.35346e-14)
(701.122 307.246 2.28221e-14)
(699.52 309.705 2.28316e-14)
(698.244 311.756 2.42302e-14)
(697.247 313.369 1.88785e-14)
(696.501 314.556 1.88956e-14)
(695.969 315.401 1.79758e-14)
(695.671 315.95 1.33035e-14)
(695.602 316.292 1.51509e-14)
(695.702 316.6 1.73033e-14)
(695.897 317.122 1.52721e-14)
(696.053 317.897 1.7123e-14)
(696.148 318.779 1.67584e-14)
(696.218 319.63 1.60203e-14)
(696.284 320.356 1.68762e-14)
(696.4 320.85 1.49875e-14)
(696.58 321.006 1.59553e-14)
(696.814 320.927 1.50227e-14)
(697.165 320.79 1.12341e-14)
(697.681 320.735 1.19339e-14)
(698.338 320.834 1.47239e-14)
(699.097 321.09 1.31687e-14)
(699.93 321.47 1.11383e-14)
(700.817 321.928 1.02709e-14)
(701.749 322.4 1.17887e-14)
(702.738 322.85 9.70051e-15)
(703.747 323.014 8.89859e-15)
(704.726 322.841 7.33315e-15)
(705.771 322.522 5.24534e-15)
(706.944 322.21 6.31334e-15)
(708.236 321.977 4.4197e-15)
(709.618 321.827 4.74203e-15)
(711.057 321.733 5.95948e-15)
(712.521 321.668 7.96534e-15)
(713.991 321.6 6.53729e-15)
(715.46 321.493 6.03028e-15)
(716.929 321.326 3.71097e-15)
(718.404 321.086 4.84879e-15)
(719.902 320.764 5.41753e-15)
(721.443 320.36 2.92958e-15)
(723.041 319.893 4.29842e-15)
(724.711 319.381 6.0315e-15)
(726.464 318.85 5.43305e-15)
(728.299 318.335 4.00624e-15)
(730.209 317.86 3.93459e-15)
(732.185 317.449 2.74864e-15)
(734.213 317.124 2.85388e-16)
(736.274 316.897 4.69197e-16)
(738.355 316.766 4.24452e-16)
(740.432 316.711 3.61374e-15)
(742.489 316.743 1.90508e-15)
(744.539 316.879 1.98413e-15)
(746.593 317.06 4.22586e-15)
(748.663 317.213 3.73729e-16)
(750.598 317.444 1.36645e-15)
(752.588 317.82 1.12836e-15)
(754.542 317.89 1.08155e-15)
(756.334 317.91 1.61742e-15)
(758.196 318.292 1.47096e-15)
(760.121 318.533 1.33195e-15)
(761.7 318.338 2.48634e-15)
(763.129 318.297 9.65675e-16)
(764.848 318.564 -5.80718e-16)
(766.565 318.67 -6.12388e-16)
(767.866 318.599 1.52766e-15)
(769.275 318.565 1.87971e-15)
(770.894 318.66 7.8827e-16)
(772.38 318.597 9.7811e-16)
(773.585 318.61 1.96566e-15)
(774.971 318.528 7.26944e-17)
(776.405 318.381 2.26738e-15)
(777.684 318.269 2.26036e-15)
(778.885 318.188 -7.74826e-16)
(780.056 318.082 -1.55309e-16)
(781.209 317.936 -1.4996e-15)
(782.319 317.767 -1.86942e-15)
(783.342 317.597 -2.0157e-15)
(784.308 317.425 -9.08982e-16)
(785.251 317.234 -2.82052e-15)
(786.163 317.012 -1.05536e-15)
(787.022 316.771 -7.91822e-16)
(787.829 316.517 -1.86201e-15)
(788.599 316.248 8.24155e-17)
(789.338 315.957 1.12594e-15)
(790.041 315.646 1.75771e-15)
(790.713 315.315 1.72182e-15)
(791.36 314.962 3.70605e-15)
(778.832 212.666 4.27251e-14)
(766.565 226.773 4.12599e-14)
(755.297 239.809 4.02885e-14)
(745.12 251.587 3.92874e-14)
(736.078 262.005 3.84549e-14)
(728.172 271.036 3.89025e-14)
(721.333 278.75 3.98627e-14)
(715.487 285.25 3.60355e-14)
(710.535 290.748 3.64763e-14)
(706.369 295.451 3.5109e-14)
(702.874 299.517 3.10592e-14)
(699.928 303.07 3.35971e-14)
(697.445 306.181 3.13173e-14)
(695.38 308.881 2.97311e-14)
(693.68 311.169 3.17355e-14)
(692.293 313.013 2.70905e-14)
(691.165 314.426 2.61232e-14)
(690.291 315.446 2.59779e-14)
(689.653 316.157 2.58985e-14)
(689.236 316.616 2.6264e-14)
(689.032 316.907 2.41508e-14)
(688.973 317.184 2.62889e-14)
(688.976 317.651 2.49831e-14)
(688.947 318.302 2.36315e-14)
(688.877 319.049 1.69291e-14)
(688.747 319.79 2.02219e-14)
(688.696 320.419 2.01266e-14)
(688.611 320.972 2.02089e-14)
(688.613 321.39 2.17084e-14)
(688.708 321.603 2.11281e-14)
(688.836 321.752 2.10767e-14)
(689.042 321.947 1.91111e-14)
(689.329 322.234 2.13967e-14)
(689.701 322.64 1.78016e-14)
(690.112 323.126 2.15844e-14)
(690.465 323.589 1.81414e-14)
(690.836 323.957 1.63132e-14)
(691.187 324.014 1.45874e-14)
(691.464 323.736 1.58028e-14)
(691.801 323.293 1.53711e-14)
(692.288 322.855 1.44264e-14)
(692.925 322.525 1.44252e-14)
(693.67 322.337 1.42415e-14)
(694.473 322.266 1.23845e-14)
(695.279 322.282 1.50014e-14)
(696.061 322.307 1.17182e-14)
(696.891 322.272 1.02039e-14)
(697.783 322.139 9.54688e-15)
(698.716 321.873 8.61381e-15)
(699.706 321.515 1.04377e-14)
(700.775 321.153 6.2771e-15)
(701.933 320.849 6.01047e-15)
(703.179 320.614 7.2848e-15)
(704.488 320.448 8.88513e-15)
(705.832 320.339 9.75849e-15)
(707.199 320.244 6.76627e-15)
(708.584 320.125 3.42833e-15)
(709.976 319.971 1.69107e-16)
(711.378 319.759 1.08817e-15)
(712.807 319.464 2.30898e-15)
(714.272 319.095 2.87559e-15)
(715.784 318.663 1.45236e-15)
(717.362 318.171 2.88686e-15)
(719.018 317.646 4.70376e-15)
(720.756 317.12 7.99714e-16)
(722.583 316.612 3.18778e-15)
(724.497 316.149 7.4877e-15)
(726.491 315.758 1.76007e-15)
(728.556 315.442 4.82462e-16)
(730.675 315.219 2.20793e-15)
(732.835 315.082 2.15036e-15)
(735.02 315.038 -8.8834e-16)
(737.198 315.059 1.39575e-15)
(739.469 315.155 1.40439e-15)
(741.712 315.338 2.57344e-15)
(743.932 315.605 9.64505e-16)
(746.172 315.717 3.44958e-15)
(748.356 315.781 1.10906e-15)
(750.508 316.164 1.71847e-15)
(752.785 316.561 -1.91765e-15)
(754.687 316.216 -1.12636e-15)
(756.639 316.194 9.80541e-16)
(758.676 316.594 4.91009e-16)
(760.649 316.847 -3.26718e-16)
(762.441 316.729 -2.38609e-15)
(763.89 316.697 -1.89775e-15)
(765.852 316.832 -1.73332e-15)
(767.65 316.996 -4.53827e-16)
(769.323 316.915 -1.05093e-15)
(770.69 316.851 -1.86671e-15)
(772.44 316.724 -1.23035e-15)
(774.136 316.773 -2.02318e-15)
(775.756 316.699 -1.03445e-15)
(777.043 316.619 9.47912e-16)
(778.383 316.516 2.82171e-16)
(779.949 316.385 -2.53261e-15)
(781.301 316.243 -3.63947e-16)
(782.483 316.143 1.75521e-17)
(783.696 316.009 -7.96026e-16)
(784.933 315.811 -6.36262e-16)
(786.089 315.602 1.17174e-15)
(787.165 315.4 2.0966e-16)
(788.208 315.192 -3.18953e-16)
(789.22 314.958 -5.12757e-16)
(790.175 314.701 -2.45708e-15)
(791.073 314.433 -2.5581e-16)
(791.929 314.153 1.60889e-15)
(726.022 270.687 4.77321e-14)
(718.834 278.685 4.8429e-14)
(712.691 285.43 4.7427e-14)
(707.489 291.138 4.35752e-14)
(703.111 296.003 4.47599e-14)
(699.43 300.181 4.34539e-14)
(696.323 303.797 4.42607e-14)
(693.712 306.917 4.43853e-14)
(691.542 309.59 4.36045e-14)
(689.763 311.8 4.03392e-14)
(688.308 313.544 3.77914e-14)
(687.134 314.849 3.8926e-14)
(686.225 315.783 4.11048e-14)
(685.548 316.436 3.67188e-14)
(685.092 316.847 3.59192e-14)
(684.814 317.135 3.67208e-14)
(684.668 317.48 3.64611e-14)
(684.544 318.007 3.573e-14)
(684.327 318.699 3.32358e-14)
(684.108 319.407 3.43524e-14)
(683.858 320.062 3.19625e-14)
(683.66 320.625 3.15703e-14)
(683.466 321.076 3.29205e-14)
(683.356 321.424 2.94419e-14)
(683.354 321.601 3.012e-14)
(683.355 321.74 3.13797e-14)
(683.414 321.888 3.01577e-14)
(683.606 322.16 3.01223e-14)
(683.792 322.531 2.79089e-14)
(684.015 322.921 2.71909e-14)
(684.216 323.335 2.58966e-14)
(684.389 323.689 2.62328e-14)
(684.666 324.034 2.64517e-14)
(684.823 324.121 2.59126e-14)
(685.025 324.105 2.39034e-14)
(685.271 324.058 2.10242e-14)
(685.67 324.093 1.84879e-14)
(686.064 324.208 1.94979e-14)
(686.432 324.392 1.96657e-14)
(686.767 324.493 1.9969e-14)
(687.109 324.51 1.89707e-14)
(687.403 324.37 1.8224e-14)
(687.722 324.096 1.60097e-14)
(688.066 323.702 1.784e-14)
(688.485 323.279 1.74088e-14)
(689 322.914 1.82858e-14)
(689.605 322.653 1.64877e-14)
(690.269 322.507 1.62328e-14)
(690.965 322.438 1.61964e-14)
(691.697 322.424 1.42366e-14)
(692.439 322.41 1.18147e-14)
(693.203 322.327 1.174e-14)
(694.003 322.123 1.11346e-14)
(694.85 321.836 1.22624e-14)
(695.751 321.534 1.052e-14)
(696.732 321.226 7.8065e-15)
(697.805 320.92 6.62146e-15)
(698.945 320.673 8.63349e-15)
(700.138 320.471 8.07589e-15)
(701.393 320.255 4.32107e-15)
(702.686 320.032 5.9153e-15)
(704 319.809 7.23338e-15)
(705.345 319.521 3.67807e-15)
(706.726 319.158 5.09501e-15)
(708.137 318.756 4.26354e-15)
(709.589 318.281 4.16408e-15)
(711.101 317.735 7.39639e-15)
(712.671 317.164 3.80275e-15)
(714.311 316.572 3.85765e-15)
(716.034 315.978 3.88255e-15)
(717.841 315.422 1.09006e-15)
(719.735 314.906 2.47411e-15)
(721.713 314.461 5.38661e-18)
(723.762 314.11 2.18904e-15)
(725.883 313.826 1.59598e-15)
(728.05 313.638 3.60174e-15)
(730.257 313.517 1.42875e-15)
(732.596 313.555 2.25876e-15)
(734.922 313.696 2.36744e-16)
(737.278 313.715 2.44682e-15)
(739.613 313.716 2.35479e-15)
(741.94 314.043 2.96241e-15)
(744.327 314.367 1.76867e-15)
(746.592 314.162 1.46018e-15)
(748.902 314.188 3.84165e-15)
(751.187 314.551 1.79114e-15)
(753.4 314.86 2.70577e-15)
(755.85 314.805 3.20302e-16)
(757.301 314.777 -5.60229e-16)
(759.61 314.992 -3.01338e-16)
(761.599 315.223 -4.27411e-16)
(763.791 315.196 2.19481e-16)
(765.112 315.111 -4.55012e-16)
(767.168 315.178 -3.37033e-15)
(769.113 315.399 -6.83237e-16)
(771.138 315.384 3.28378e-16)
(772.569 315.196 -1.63852e-16)
(774.205 315.105 7.42475e-16)
(776.033 315.215 -7.66187e-16)
(777.776 315.211 -1.1098e-15)
(779.203 315.023 -2.0338e-15)
(780.538 314.97 -1.47445e-15)
(782.184 314.88 9.09567e-16)
(783.741 314.797 -1.71376e-15)
(785.014 314.703 2.22005e-15)
(786.289 314.615 -1.90964e-15)
(787.631 314.448 1.45614e-15)
(788.897 314.26 -1.43203e-15)
(790.053 314.093 -1.7065e-15)
(791.16 313.934 -4.43067e-16)
(688.745 309.589 4.99525e-14)
(686.817 311.879 5.31519e-14)
(685.251 313.675 5.18897e-14)
(683.988 315.017 5.13244e-14)
(683.009 315.975 5.26998e-14)
(682.269 316.643 5.22129e-14)
(681.75 317.059 5.28691e-14)
(681.402 317.359 4.94221e-14)
(681.196 317.732 5.20477e-14)
(680.963 318.308 4.70294e-14)
(680.665 318.993 4.77167e-14)
(680.348 319.672 4.84706e-14)
(680.032 320.275 4.79121e-14)
(679.783 320.781 4.37971e-14)
(679.515 321.16 4.24848e-14)
(679.401 321.441 4.44439e-14)
(679.334 321.6 4.59384e-14)
(679.295 321.718 4.48707e-14)
(679.3 321.897 4.27675e-14)
(679.444 322.212 3.88574e-14)
(679.508 322.546 4.03282e-14)
(679.578 322.859 3.92136e-14)
(679.678 323.215 4.13378e-14)
(679.783 323.501 4.05884e-14)
(679.925 323.824 3.6441e-14)
(679.963 323.861 3.61404e-14)
(680.03 323.823 3.6517e-14)
(680.222 323.832 3.70264e-14)
(680.421 323.848 3.05018e-14)
(680.648 323.95 2.89064e-14)
(680.905 324.103 2.94356e-14)
(681.142 324.297 3.14043e-14)
(681.344 324.481 3.02812e-14)
(681.54 324.604 2.70555e-14)
(681.788 324.607 2.80901e-14)
(682.027 324.615 2.91359e-14)
(682.313 324.604 2.84805e-14)
(682.641 324.634 2.69311e-14)
(683.001 324.738 2.59986e-14)
(683.344 324.844 2.65194e-14)
(683.678 324.961 2.4181e-14)
(684.026 325.055 2.28405e-14)
(684.268 324.999 2.24599e-14)
(684.558 324.85 2.16114e-14)
(684.873 324.602 2.08558e-14)
(685.232 324.285 2.02658e-14)
(685.661 323.962 2.09459e-14)
(686.161 323.701 1.86919e-14)
(686.726 323.504 1.59524e-14)
(687.367 323.35 1.61988e-14)
(688.036 323.252 1.51967e-14)
(688.711 323.188 1.64697e-14)
(689.41 323.037 1.25716e-14)
(690.133 322.778 1.60348e-14)
(690.889 322.525 1.3746e-14)
(691.687 322.252 1.31722e-14)
(692.561 321.881 1.44139e-14)
(693.513 321.515 1.13085e-14)
(694.517 321.241 1.24406e-14)
(695.596 320.943 1.34548e-14)
(696.757 320.603 1.06288e-14)
(697.951 320.336 1.12628e-14)
(699.18 320.054 8.66694e-15)
(700.458 319.665 8.39762e-15)
(701.773 319.284 4.3286e-15)
(703.121 318.873 9.48979e-15)
(704.515 318.337 7.00609e-15)
(705.959 317.773 4.97426e-15)
(707.452 317.185 6.47139e-15)
(709.011 316.537 6.34228e-15)
(710.641 315.902 3.22427e-15)
(712.349 315.271 2.5706e-15)
(714.143 314.651 1.43773e-15)
(716.013 314.121 3.91198e-15)
(717.963 313.646 -1.50351e-15)
(720.003 313.237 3.39202e-16)
(722.101 312.881 1.1535e-15)
(724.299 312.673 -2.38158e-16)
(726.59 312.683 -8.82773e-17)
(728.933 312.541 -3.98623e-16)
(731.26 312.318 -3.46657e-16)
(733.627 312.551 9.38449e-16)
(736.018 312.901 3.74422e-15)
(738.374 312.673 3.53272e-15)
(740.83 312.558 4.06792e-15)
(743.28 312.857 5.44523e-15)
(745.612 313.173 3.66197e-15)
(748.468 313.162 1.92676e-15)
(750.029 313.068 3.99933e-15)
(752.549 313.305 4.52176e-15)
(754.761 313.585 4.86514e-15)
(757.277 313.731 4.16073e-15)
(758.889 313.505 4.85363e-15)
(761.116 313.669 1.71862e-15)
(763.277 314.035 2.82525e-15)
(765.548 314.08 9.24411e-16)
(767.116 313.807 6.87019e-16)
(769.072 313.764 -4.5689e-16)
(771.17 314.028 -6.70541e-16)
(773.149 314.095 8.85631e-16)
(774.863 313.831 -1.72125e-16)
(776.36 313.79 -4.17935e-16)
(778.314 313.906 -1.92612e-15)
(780.153 313.977 -2.81078e-15)
(781.727 313.797 -1.17872e-15)
(783.139 313.741 -2.96531e-15)
(784.875 313.737 -5.68013e-16)
(786.527 313.686 -4.78659e-17)
(787.843 313.611 2.33142e-16)
(789.194 313.53 -1.21892e-15)
(678.009 317.991 5.91402e-14)
(677.731 318.556 5.77177e-14)
(677.379 319.232 5.65332e-14)
(677.013 319.905 5.79987e-14)
(676.651 320.492 5.65837e-14)
(676.367 320.977 5.55144e-14)
(676.069 321.327 5.34123e-14)
(675.936 321.574 5.7599e-14)
(675.832 321.711 5.62784e-14)
(675.761 321.826 5.61123e-14)
(675.758 321.992 5.3789e-14)
(675.849 322.305 5.19085e-14)
(675.849 322.57 5.13126e-14)
(675.891 322.857 4.88762e-14)
(675.945 323.145 5.02176e-14)
(676.009 323.461 4.95676e-14)
(676.046 323.595 4.77933e-14)
(676.06 323.57 4.70063e-14)
(676.125 323.526 4.62857e-14)
(676.235 323.487 4.66908e-14)
(676.383 323.52 4.66613e-14)
(676.55 323.61 4.2919e-14)
(676.716 323.749 4.19422e-14)
(676.848 323.925 4.13498e-14)
(676.964 324.093 4.05194e-14)
(677.081 324.197 4.09751e-14)
(677.182 324.24 3.73376e-14)
(677.313 324.237 3.81836e-14)
(677.483 324.229 4.06335e-14)
(677.659 324.28 3.53543e-14)
(677.865 324.392 3.75719e-14)
(678.09 324.558 3.62364e-14)
(678.312 324.761 3.79841e-14)
(678.527 324.979 3.6314e-14)
(678.73 325.178 3.50085e-14)
(678.929 325.322 3.52137e-14)
(679.151 325.392 3.48762e-14)
(679.422 325.463 3.28263e-14)
(679.716 325.559 3.18881e-14)
(680.022 325.654 3.1004e-14)
(680.342 325.784 3.05974e-14)
(680.671 325.895 2.89385e-14)
(680.998 325.948 2.73575e-14)
(681.31 325.946 2.34583e-14)
(681.569 325.82 2.26598e-14)
(681.894 325.63 2.41774e-14)
(682.249 325.36 2.43999e-14)
(682.648 325.08 2.19993e-14)
(683.104 324.837 2.21963e-14)
(683.641 324.573 2.28347e-14)
(684.244 324.34 2.3309e-14)
(684.86 324.238 2.07462e-14)
(685.527 324.131 1.85128e-14)
(686.16 323.851 1.88058e-14)
(686.838 323.588 1.87462e-14)
(687.55 323.408 1.68567e-14)
(688.307 323.081 1.43108e-14)
(689.127 322.627 1.48851e-14)
(690.01 322.321 1.26919e-14)
(690.939 322.033 1.5687e-14)
(691.971 321.595 1.16081e-14)
(693.047 321.217 1.35753e-14)
(694.177 320.979 1.31077e-14)
(695.333 320.548 1.19094e-14)
(696.546 320.109 1.09512e-14)
(697.824 319.8 1.05355e-14)
(699.107 319.278 1.13324e-14)
(700.447 318.7 9.52662e-15)
(701.839 318.183 1.06491e-14)
(703.271 317.533 6.56848e-15)
(704.772 316.865 9.13257e-15)
(706.343 316.223 7.92964e-15)
(707.983 315.494 6.89262e-15)
(709.697 314.827 8.11622e-15)
(711.475 314.253 2.78757e-15)
(713.349 313.678 9.2903e-16)
(715.323 313.097 3.18605e-15)
(717.367 312.655 1.14957e-15)
(719.501 312.531 2.01321e-15)
(721.789 312.272 4.34996e-15)
(723.967 311.74 1.97863e-15)
(726.339 311.821 2.66401e-15)
(728.651 312.17 3.10921e-15)
(730.969 311.885 5.68177e-15)
(733.275 311.492 1.03662e-15)
(735.828 311.731 3.09515e-15)
(738.158 312.006 3.0294e-15)
(741.121 311.997 6.92021e-15)
(742.772 311.794 5.55773e-15)
(745.389 311.996 6.58947e-15)
(747.789 312.325 4.83088e-15)
(750.426 312.565 8.37603e-15)
(752.386 312.262 5.4114e-15)
(754.716 312.377 6.07238e-15)
(757.052 312.827 6.54453e-15)
(759.493 312.949 5.88161e-15)
(761.247 312.651 5.42124e-15)
(763.43 312.662 1.4292e-15)
(765.732 313.028 1.49349e-15)
(767.878 313.146 2.25024e-15)
(769.862 312.857 1.4737e-15)
(771.536 312.77 1.53832e-15)
(773.722 313.066 2.25394e-15)
(775.732 313.232 2.86034e-16)
(777.537 313.035 7.63459e-16)
(779.154 312.948 -8.90645e-16)
(781.141 313.172 -1.2615e-15)
(783.12 313.165 3.65949e-17)
(784.586 313.056 -1.61745e-16)
(786.292 312.988 1.16908e-15)
(672.507 321.954 6.45902e-14)
(672.42 322.053 6.41895e-14)
(672.399 322.182 6.60631e-14)
(672.465 322.467 6.53812e-14)
(672.456 322.689 6.4988e-14)
(672.485 322.94 6.46339e-14)
(672.524 323.201 6.21012e-14)
(672.568 323.48 6.26177e-14)
(672.553 323.548 6.14326e-14)
(672.557 323.443 5.94772e-14)
(672.643 323.327 5.84648e-14)
(672.749 323.249 5.69997e-14)
(672.874 323.236 5.62755e-14)