/*--------------------------------*- C++ -*----------------------------------*\
| =========                 |                                                 |
| \\      /  F ield         | OpenFOAM: The Open Source CFD Toolbox           |
|  \\    /   O peration     | Version:  v1706                                 |
|   \\  /    A nd           | Web:      www.OpenFOAM.com                      |
|    \\/     M anipulation  |                                                 |
\*---------------------------------------------------------------------------*/
FoamFile
{
    version     2.0;
    format      ascii;
    class       volVectorField;
    location    "1.9e-05";
    object      U;
}
// * * * * * * * * * * * * * * * * * * * * * * * * * * * * * * * * * * * * * //

dimensions      [0 1 -1 0 0 0 0];


internalField   nonuniform List<vector> 
29987
(
(978.58 -2.1758e-08 3.79663e-11)
(978.58 -8.57156e-09 1.42633e-11)
(978.58 -3.87824e-09 6.45896e-12)
(978.58 -2.16615e-09 3.64581e-12)
(978.58 -1.41521e-09 2.39379e-12)
(978.58 -1.01829e-09 1.72496e-12)
(978.58 -7.75867e-10 1.30839e-12)
(978.58 -6.14696e-10 1.02238e-12)
(978.58 -5.01441e-10 8.2704e-13)
(978.58 -4.17822e-10 6.90105e-13)
(978.58 -3.54943e-10 5.22276e-13)
(978.58 -3.06835e-10 4.58254e-13)
(978.58 -2.6859e-10 4.10106e-13)
(978.58 -2.38352e-10 3.49981e-13)
(978.58 -2.13398e-10 3.01871e-13)
(978.58 -1.92684e-10 2.63825e-13)
(978.58 -1.76387e-10 2.2279e-13)
(978.58 -1.62082e-10 1.98979e-13)
(978.58 -1.49855e-10 1.85455e-13)
(978.58 -1.39061e-10 1.70869e-13)
(978.58 -1.29912e-10 1.6118e-13)
(978.58 -1.22842e-10 1.38135e-13)
(978.58 -1.16176e-10 1.30593e-13)
(978.58 -1.09806e-10 1.13612e-13)
(978.58 -1.04459e-10 1.1728e-13)
(978.58 -9.95325e-11 1.11591e-13)
(978.58 -9.53545e-11 9.25552e-14)
(978.58 -9.17994e-11 8.35103e-14)
(978.58 -8.87165e-11 9.00866e-14)
(978.58 -8.52607e-11 8.19414e-14)
(978.58 -8.29149e-11 8.22129e-14)
(978.58 -8.06341e-11 7.40758e-14)
(978.58 -7.80223e-11 6.4635e-14)
(978.58 -7.59511e-11 5.96383e-14)
(978.58 -7.43262e-11 5.98763e-14)
(978.58 -7.22675e-11 5.58449e-14)
(978.58 -7.01052e-11 5.34116e-14)
(978.58 -6.94745e-11 4.43882e-14)
(978.58 -6.76992e-11 4.22146e-14)
(978.58 -6.73985e-11 4.32998e-14)
(978.58 -6.59042e-11 3.52787e-14)
(978.58 -6.45887e-11 3.95816e-14)
(978.58 -6.35193e-11 4.49162e-14)
(978.58 -6.2753e-11 3.74731e-14)
(978.58 -6.19193e-11 3.38297e-14)
(978.58 -6.19209e-11 3.25827e-14)
(978.58 -6.08249e-11 4.09645e-14)
(978.58 -6.01836e-11 2.92621e-14)
(978.58 -5.93832e-11 2.93722e-14)
(978.58 -5.89212e-11 3.16328e-14)
(978.58 -5.85284e-11 3.1115e-14)
(978.58 -5.86922e-11 2.8927e-14)
(978.58 -5.78429e-11 2.75576e-14)
(978.58 -5.77864e-11 2.30675e-14)
(978.58 -5.71247e-11 2.41508e-14)
(978.58 -5.65942e-11 2.02368e-14)
(978.58 -5.64398e-11 1.83552e-14)
(978.58 -5.6456e-11 2.01645e-14)
(978.58 -5.64905e-11 2.19633e-14)
(978.58 -5.62238e-11 2.51169e-14)
(978.58 -5.59365e-11 2.28828e-14)
(978.58 -5.59695e-11 1.37486e-14)
(978.58 -5.53405e-11 1.96874e-14)
(978.58 -5.49672e-11 2.08386e-14)
(978.58 -5.52419e-11 1.69775e-14)
(978.58 -5.47953e-11 1.50912e-14)
(978.58 -5.5012e-11 1.56463e-14)
(978.58 -5.49996e-11 1.85372e-14)
(978.58 -5.5082e-11 1.79991e-14)
(978.58 -5.47757e-11 1.58093e-14)
(978.58 -5.52331e-11 1.47207e-14)
(978.58 -5.54286e-11 1.52763e-14)
(978.58 -5.59319e-11 1.37021e-14)
(978.58 -5.56974e-11 1.47479e-14)
(978.58 -5.5844e-11 1.80969e-14)
(978.58 -5.62404e-11 1.68438e-14)
(978.58 -5.59141e-11 1.56952e-14)
(978.58 -5.62122e-11 1.59246e-14)
(978.58 -5.60828e-11 9.92353e-15)
(978.58 -5.65797e-11 7.09336e-15)
(978.58 -5.6942e-11 1.02599e-14)
(978.58 -5.68991e-11 1.02169e-14)
(978.58 -5.71316e-11 7.92081e-15)
(978.58 -5.71944e-11 1.09945e-14)
(978.58 -5.73487e-11 1.26373e-14)
(978.58 -5.75216e-11 1.1698e-14)
(978.58 -5.8004e-11 1.0586e-14)
(978.58 -5.76854e-11 1.07859e-14)
(978.58 -5.77551e-11 1.09531e-14)
(978.58 -5.79238e-11 7.55975e-15)
(978.58 -5.85567e-11 7.25465e-15)
(978.58 -5.88508e-11 8.04622e-15)
(978.58 -5.95107e-11 1.1277e-14)
(978.58 -5.91113e-11 1.2413e-14)
(978.58 -5.91841e-11 1.29547e-14)
(978.58 -5.93649e-11 1.12097e-14)
(978.58 -5.98415e-11 8.06828e-15)
(978.58 -6.01693e-11 1.04017e-14)
(978.58 -6.06481e-11 1.00908e-14)
(978.58 -6.09508e-11 7.41515e-15)
(978.58 -6.16326e-11 7.55057e-15)
(978.58 -6.23201e-11 1.2482e-14)
(978.58 -6.23881e-11 1.14163e-14)
(978.58 -6.26228e-11 8.24785e-15)
(978.58 -6.29989e-11 8.43834e-15)
(978.58 -6.3382e-11 6.61551e-15)
(978.58 -6.40906e-11 5.47009e-15)
(978.58 -6.44471e-11 5.9885e-15)
(978.58 -6.51532e-11 8.48263e-15)
(978.58 -6.55242e-11 6.29311e-15)
(978.58 -6.63193e-11 7.05792e-15)
(978.58 -6.68605e-11 7.97398e-15)
(978.58 -6.74285e-11 9.27937e-15)
(978.58 -6.83565e-11 7.76477e-15)
(978.58 -6.91182e-11 9.6903e-15)
(978.58 -6.99463e-11 7.69463e-15)
(978.58 -7.03404e-11 9.43962e-15)
(978.58 -7.09215e-11 1.12269e-14)
(978.58 -7.14493e-11 9.92934e-15)
(978.58 -7.19316e-11 5.99383e-15)
(978.58 -7.25703e-11 7.04913e-15)
(978.58 -7.32415e-11 8.31185e-15)
(978.58 -7.4183e-11 6.96121e-15)
(978.58 -7.46574e-11 8.36041e-15)
(978.58 -7.53233e-11 8.64046e-15)
(978.58 -7.58567e-11 7.71296e-15)
(978.58 -7.70985e-11 9.09177e-15)
(978.58 -7.76533e-11 8.23256e-15)
(978.58 -7.83565e-11 9.09487e-15)
(978.58 -7.9052e-11 7.22412e-15)
(978.58 -8.0247e-11 1.05983e-14)
(978.58 -8.06334e-11 1.02819e-14)
(978.58 -8.17536e-11 5.40962e-15)
(978.58 -8.23462e-11 4.89268e-15)
(978.58 -8.34922e-11 6.40375e-15)
(978.58 -8.49112e-11 4.04366e-15)
(978.58 -8.61592e-11 8.78122e-15)
(978.58 -8.72187e-11 8.54633e-15)
(978.58 -8.80542e-11 6.02203e-15)
(978.58 -8.92172e-11 6.31644e-15)
(978.58 -8.99426e-11 2.67181e-15)
(978.58 -9.09304e-11 5.11858e-15)
(978.58 -9.23164e-11 7.53625e-15)
(978.58 -9.33145e-11 6.09295e-15)
(978.58 -9.51355e-11 7.60268e-15)
(978.58 -9.65358e-11 8.43485e-15)
(978.58 -9.76161e-11 8.3907e-15)
(978.58 -9.92555e-11 7.8501e-15)
(978.58 -1.00542e-10 6.78529e-15)
(978.58 -1.02411e-10 5.11102e-15)
(978.58 -1.04079e-10 4.23867e-15)
(978.58 -1.05156e-10 4.02094e-15)
(978.58 -1.06356e-10 5.66266e-15)
(978.58 -1.08216e-10 7.37744e-15)
(978.58 -1.09962e-10 6.28154e-15)
(978.58 -1.11919e-10 7.91536e-15)
(978.58 -5.20914e-08 8.68595e-11)
(978.58 -2.79332e-08 4.30743e-11)
(978.58 -1.50577e-08 2.16722e-11)
(978.58 -8.79999e-09 1.23342e-11)
(978.58 -5.64919e-09 7.8698e-12)
(978.58 -3.93368e-09 5.50171e-12)
(978.58 -2.91812e-09 4.08128e-12)
(978.58 -2.26868e-09 3.12835e-12)
(978.58 -1.82628e-09 2.50818e-12)
(978.58 -1.50969e-09 2.03094e-12)
(978.58 -1.27367e-09 1.66381e-12)
(978.58 -1.09313e-09 1.42361e-12)
(978.58 -9.51845e-10 1.20252e-12)
(978.58 -8.39922e-10 1.04491e-12)
(978.58 -7.49675e-10 9.06787e-13)
(978.58 -6.75398e-10 8.15493e-13)
(978.58 -6.1304e-10 7.057e-13)
(978.58 -5.60363e-10 6.43297e-13)
(978.58 -5.16988e-10 5.88857e-13)
(978.58 -4.78605e-10 5.33879e-13)
(978.58 -4.44688e-10 4.7938e-13)
(978.58 -4.15886e-10 4.16287e-13)
(978.58 -3.93456e-10 3.93785e-13)
(978.58 -3.72591e-10 3.60983e-13)
(978.58 -3.52554e-10 3.49193e-13)
(978.58 -3.34485e-10 3.30852e-13)
(978.58 -3.18641e-10 3.07092e-13)
(978.58 -3.05754e-10 2.85701e-13)
(978.58 -2.94332e-10 2.66597e-13)
(978.58 -2.83324e-10 2.44446e-13)
(978.58 -2.73091e-10 2.19564e-13)
(978.58 -2.64196e-10 2.11421e-13)
(978.58 -2.55931e-10 1.81572e-13)
(978.58 -2.48944e-10 1.72644e-13)
(978.58 -2.44121e-10 1.73137e-13)
(978.58 -2.377e-10 1.66305e-13)
(978.58 -2.3047e-10 1.53534e-13)
(978.58 -2.24553e-10 1.53946e-13)
(978.58 -2.18846e-10 1.45454e-13)
(978.58 -2.14484e-10 1.3049e-13)
(978.58 -2.13321e-10 1.20209e-13)
(978.58 -2.09366e-10 1.22626e-13)
(978.58 -2.03995e-10 1.24232e-13)
(978.58 -1.9979e-10 1.09659e-13)
(978.58 -1.978e-10 9.41151e-14)
(978.58 -1.96952e-10 1.04532e-13)
(978.58 -1.94482e-10 9.94041e-14)
(978.58 -1.91214e-10 9.09888e-14)
(978.58 -1.87948e-10 9.20818e-14)
(978.58 -1.8604e-10 9.71236e-14)
(978.58 -1.84347e-10 9.25264e-14)
(978.58 -1.83268e-10 8.19299e-14)
(978.58 -1.81629e-10 7.76417e-14)
(978.58 -1.80566e-10 6.673e-14)
(978.58 -1.7998e-10 6.81376e-14)
(978.58 -1.78533e-10 6.67451e-14)
(978.58 -1.77003e-10 6.49738e-14)
(978.58 -1.75296e-10 6.40757e-14)
(978.58 -1.75387e-10 7.00626e-14)
(978.58 -1.74454e-10 6.68322e-14)
(978.58 -1.74163e-10 5.88165e-14)
(978.58 -1.73934e-10 5.54835e-14)
(978.58 -1.7256e-10 6.31035e-14)
(978.58 -1.71005e-10 5.4955e-14)
(978.58 -1.71362e-10 5.35237e-14)
(978.58 -1.70186e-10 5.3286e-14)
(978.58 -1.7044e-10 4.73668e-14)
(978.58 -1.70585e-10 5.15947e-14)
(978.58 -1.7017e-10 4.94249e-14)
(978.58 -1.69502e-10 4.61288e-14)
(978.58 -1.67982e-10 4.95515e-14)
(978.58 -1.68273e-10 4.94175e-14)
(978.58 -1.69934e-10 4.49233e-14)
(978.58 -1.69853e-10 4.57426e-14)
(978.58 -1.68705e-10 4.89052e-14)
(978.58 -1.70356e-10 4.99979e-14)
(978.58 -1.7134e-10 4.51414e-14)
(978.58 -1.70631e-10 4.18665e-14)
(978.58 -1.69994e-10 3.48101e-14)
(978.58 -1.69935e-10 3.46594e-14)
(978.58 -1.71611e-10 3.76054e-14)
(978.58 -1.72322e-10 3.46411e-14)
(978.58 -1.72738e-10 3.22897e-14)
(978.58 -1.73027e-10 3.64565e-14)
(978.58 -1.73875e-10 3.92665e-14)
(978.58 -1.73961e-10 3.73643e-14)
(978.58 -1.74855e-10 3.33782e-14)
(978.58 -1.75126e-10 3.58174e-14)
(978.58 -1.76106e-10 3.37801e-14)
(978.58 -1.76319e-10 3.19409e-14)
(978.58 -1.76167e-10 3.31781e-14)
(978.58 -1.7699e-10 2.99179e-14)
(978.58 -1.78641e-10 3.61296e-14)
(978.58 -1.80784e-10 3.70485e-14)
(978.58 -1.81351e-10 3.8657e-14)
(978.58 -1.81293e-10 2.94508e-14)
(978.58 -1.81534e-10 2.40167e-14)
(978.58 -1.82334e-10 2.52897e-14)
(978.58 -1.82886e-10 2.51919e-14)
(978.58 -1.83544e-10 2.52523e-14)
(978.58 -1.84453e-10 2.53987e-14)
(978.58 -1.86251e-10 2.66222e-14)
(978.58 -1.87263e-10 2.78377e-14)
(978.58 -1.88804e-10 2.1553e-14)
(978.58 -1.89944e-10 2.31612e-14)
(978.58 -1.91324e-10 2.18542e-14)
(978.58 -1.92535e-10 2.13693e-14)
(978.58 -1.94049e-10 1.9938e-14)
(978.58 -1.95966e-10 1.87162e-14)
(978.58 -1.96827e-10 2.10498e-14)
(978.58 -1.98395e-10 2.27575e-14)
(978.58 -1.99942e-10 2.25517e-14)
(978.58 -2.00862e-10 2.26427e-14)
(978.58 -2.02317e-10 2.36839e-14)
(978.58 -2.04211e-10 2.57413e-14)
(978.58 -2.06606e-10 2.50265e-14)
(978.58 -2.08073e-10 2.63608e-14)
(978.58 -2.10204e-10 2.53208e-14)
(978.58 -2.12475e-10 2.12206e-14)
(978.58 -2.14183e-10 1.79323e-14)
(978.58 -2.16015e-10 2.00746e-14)
(978.58 -2.17746e-10 2.09865e-14)
(978.58 -2.19676e-10 2.15112e-14)
(978.58 -2.21882e-10 2.21521e-14)
(978.58 -2.23839e-10 2.19101e-14)
(978.58 -2.25724e-10 2.02303e-14)
(978.58 -2.27625e-10 2.01471e-14)
(978.58 -2.3108e-10 1.93782e-14)
(978.58 -2.3251e-10 2.00194e-14)
(978.58 -2.34488e-10 2.33369e-14)
(978.58 -2.3819e-10 2.20863e-14)
(978.58 -2.39669e-10 1.7881e-14)
(978.58 -2.42533e-10 1.8647e-14)
(978.58 -2.4445e-10 2.06003e-14)
(978.58 -2.46946e-10 2.04893e-14)
(978.58 -2.49112e-10 2.08275e-14)
(978.58 -2.51927e-10 2.08142e-14)
(978.58 -2.54974e-10 1.76795e-14)
(978.58 -2.58688e-10 2.16396e-14)
(978.58 -2.61827e-10 2.12192e-14)
(978.58 -2.65361e-10 1.77969e-14)
(978.58 -2.69521e-10 2.00249e-14)
(978.58 -2.73416e-10 1.8228e-14)
(978.58 -2.75452e-10 1.76596e-14)
(978.58 -2.78701e-10 1.73797e-14)
(978.58 -2.82659e-10 2.00473e-14)
(978.58 -2.86435e-10 1.96214e-14)
(978.58 -2.90129e-10 2.09829e-14)
(978.58 -2.94444e-10 2.08059e-14)
(978.58 -2.97365e-10 1.70513e-14)
(978.58 -3.01761e-10 1.57376e-14)
(978.58 -3.07634e-10 1.28147e-14)
(978.58 -3.12404e-10 1.75371e-14)
(978.58 -3.14695e-10 1.69559e-14)
(978.58 -3.18622e-10 1.70525e-14)
(978.58 -3.22014e-10 1.9303e-14)
(978.58 -7.11546e-08 1.17587e-10)
(978.58 -4.5239e-08 6.78198e-11)
(978.58 -2.7358e-08 3.74262e-11)
(978.58 -1.69412e-08 2.17714e-11)
(978.58 -1.10805e-08 1.37308e-11)
(978.58 -7.69603e-09 9.39032e-12)
(978.58 -5.64766e-09 6.9304e-12)
(978.58 -4.33933e-09 5.29419e-12)
(978.58 -3.45899e-09 4.21909e-12)
(978.58 -2.83816e-09 3.41472e-12)
(978.58 -2.38111e-09 2.83715e-12)
(978.58 -2.03434e-09 2.42038e-12)
(978.58 -1.76502e-09 2.06601e-12)
(978.58 -1.55195e-09 1.77386e-12)
(978.58 -1.38059e-09 1.56397e-12)
(978.58 -1.24044e-09 1.35927e-12)
(978.58 -1.12366e-09 1.18704e-12)
(978.58 -1.0237e-09 1.07124e-12)
(978.58 -9.39845e-10 9.5144e-13)
(978.58 -8.6898e-10 8.85375e-13)
(978.58 -8.07735e-10 7.93067e-13)
(978.58 -7.54331e-10 7.13343e-13)
(978.58 -7.08736e-10 6.74624e-13)
(978.58 -6.67841e-10 6.1681e-13)
(978.58 -6.3192e-10 5.89444e-13)
(978.58 -5.99322e-10 5.43745e-13)
(978.58 -5.70695e-10 5.10828e-13)
(978.58 -5.44871e-10 4.69942e-13)
(978.58 -5.22213e-10 4.32039e-13)
(978.58 -5.02779e-10 4.03061e-13)
(978.58 -4.85087e-10 3.74252e-13)
(978.58 -4.68497e-10 3.57787e-13)
(978.58 -4.52296e-10 3.32274e-13)
(978.58 -4.37753e-10 3.24945e-13)
(978.58 -4.27951e-10 3.07068e-13)
(978.58 -4.17058e-10 2.73589e-13)
(978.58 -4.04546e-10 2.60021e-13)
(978.58 -3.94305e-10 2.53614e-13)
(978.58 -3.84852e-10 2.49049e-13)
(978.58 -3.76197e-10 2.28807e-13)
(978.58 -3.69739e-10 2.21531e-13)
(978.58 -3.63151e-10 2.12682e-13)
(978.58 -3.55565e-10 2.06231e-13)
(978.58 -3.49492e-10 1.89915e-13)
(978.58 -3.43745e-10 1.79662e-13)
(978.58 -3.39815e-10 1.77636e-13)
(978.58 -3.35494e-10 1.71023e-13)
(978.58 -3.29432e-10 1.70215e-13)
(978.58 -3.24487e-10 1.68247e-13)
(978.58 -3.21085e-10 1.69092e-13)
(978.58 -3.18013e-10 1.53631e-13)
(978.58 -3.15277e-10 1.43861e-13)
(978.58 -3.11577e-10 1.33666e-13)
(978.58 -3.07951e-10 1.29071e-13)
(978.58 -3.06604e-10 1.21406e-13)
(978.58 -3.05698e-10 1.2061e-13)
(978.58 -3.03076e-10 1.14415e-13)
(978.58 -2.99868e-10 1.13123e-13)
(978.58 -2.98847e-10 1.19698e-13)
(978.58 -2.97816e-10 1.14824e-13)
(978.58 -2.96737e-10 1.08048e-13)
(978.58 -2.95139e-10 1.09333e-13)
(978.58 -2.93493e-10 9.84991e-14)
(978.58 -2.91564e-10 8.84211e-14)
(978.58 -2.90213e-10 9.75413e-14)
(978.58 -2.88914e-10 9.2514e-14)
(978.58 -2.88702e-10 8.61829e-14)
(978.58 -2.88359e-10 8.94446e-14)
(978.58 -2.87808e-10 7.92929e-14)
(978.58 -2.87116e-10 7.59603e-14)
(978.58 -2.85721e-10 7.52202e-14)
(978.58 -2.85463e-10 7.61755e-14)
(978.58 -2.85692e-10 7.48779e-14)
(978.58 -2.85141e-10 7.71398e-14)
(978.58 -2.84072e-10 7.95538e-14)
(978.58 -2.85763e-10 7.55648e-14)
(978.58 -2.86824e-10 6.92077e-14)
(978.58 -2.87313e-10 7.01238e-14)
(978.58 -2.85986e-10 7.00697e-14)
(978.58 -2.85755e-10 6.8478e-14)
(978.58 -2.87624e-10 6.37252e-14)
(978.58 -2.89632e-10 6.15199e-14)
(978.58 -2.89667e-10 5.94734e-14)
(978.58 -2.8989e-10 5.86851e-14)
(978.58 -2.91808e-10 5.66944e-14)
(978.58 -2.91796e-10 5.65352e-14)
(978.58 -2.92681e-10 6.11955e-14)
(978.58 -2.93713e-10 6.13715e-14)
(978.58 -2.944e-10 5.74481e-14)
(978.58 -2.94855e-10 5.58771e-14)
(978.58 -2.94717e-10 5.35813e-14)
(978.58 -2.9587e-10 5.45968e-14)
(978.58 -2.98488e-10 6.15544e-14)
(978.58 -3.00226e-10 6.54033e-14)
(978.58 -3.01639e-10 5.88656e-14)
(978.58 -3.02397e-10 4.67911e-14)
(978.58 -3.04855e-10 4.52707e-14)
(978.58 -3.04978e-10 4.79427e-14)
(978.58 -3.05118e-10 4.82885e-14)
(978.58 -3.05848e-10 4.71804e-14)
(978.58 -3.08279e-10 4.30693e-14)
(978.58 -3.10393e-10 4.65761e-14)
(978.58 -3.12266e-10 4.3134e-14)
(978.58 -3.13648e-10 4.29679e-14)
(978.58 -3.15077e-10 4.64709e-14)
(978.58 -3.1795e-10 4.35604e-14)
(978.58 -3.19279e-10 4.03056e-14)
(978.58 -3.20744e-10 3.89811e-14)
(978.58 -3.22502e-10 4.01103e-14)
(978.58 -3.24952e-10 3.99703e-14)
(978.58 -3.28154e-10 3.53327e-14)
(978.58 -3.30518e-10 3.5227e-14)
(978.58 -3.3216e-10 3.72562e-14)
(978.58 -3.34839e-10 3.92317e-14)
(978.58 -3.37647e-10 4.07042e-14)
(978.58 -3.41661e-10 4.55284e-14)
(978.58 -3.4407e-10 4.63671e-14)
(978.58 -3.46868e-10 4.34443e-14)
(978.58 -3.50201e-10 3.72582e-14)
(978.58 -3.53007e-10 3.66262e-14)
(978.58 -3.56617e-10 3.77075e-14)
(978.58 -3.59928e-10 3.74276e-14)
(978.58 -3.63021e-10 3.57502e-14)
(978.58 -3.65971e-10 3.4423e-14)
(978.58 -3.68867e-10 3.61807e-14)
(978.58 -3.72568e-10 3.63906e-14)
(978.58 -3.75171e-10 3.55308e-14)
(978.58 -3.79077e-10 3.68229e-14)
(978.58 -3.83831e-10 4.07348e-14)
(978.58 -3.87046e-10 3.82955e-14)
(978.58 -3.90568e-10 3.28394e-14)
(978.58 -3.9397e-10 3.64937e-14)
(978.58 -3.98569e-10 3.90969e-14)
(978.58 -4.02588e-10 3.30319e-14)
(978.58 -4.06149e-10 3.62225e-14)
(978.58 -4.09842e-10 2.87126e-14)
(978.58 -4.13961e-10 3.03511e-14)
(978.58 -4.17804e-10 3.63146e-14)
(978.58 -4.23878e-10 3.95959e-14)
(978.58 -4.28876e-10 3.25052e-14)
(978.58 -4.33829e-10 2.85048e-14)
(978.58 -4.39435e-10 2.94841e-14)
(978.58 -4.45519e-10 3.12426e-14)
(978.58 -4.50744e-10 3.01277e-14)
(978.58 -4.55534e-10 3.22705e-14)
(978.58 -4.61257e-10 2.95371e-14)
(978.58 -4.66617e-10 3.17028e-14)
(978.58 -4.7302e-10 3.38755e-14)
(978.58 -4.78871e-10 3.42191e-14)
(978.58 -4.8406e-10 3.09145e-14)
(978.58 -4.90514e-10 2.96467e-14)
(978.58 -4.97952e-10 2.92967e-14)
(978.58 -5.06895e-10 2.95427e-14)
(978.58 -5.13441e-10 2.76724e-14)
(978.58 -5.19776e-10 3.35522e-14)
(978.58 -5.25725e-10 3.2484e-14)
(978.58 -8.35617e-08 1.37734e-10)
(978.58 -5.95587e-08 8.79331e-11)
(978.58 -3.94991e-08 5.24021e-11)
(978.58 -2.59397e-08 3.15313e-11)
(978.58 -1.74906e-08 2.00702e-11)
(978.58 -1.22789e-08 1.36828e-11)
(978.58 -9.00021e-09 9.93614e-12)
(978.58 -6.87082e-09 7.58671e-12)
(978.58 -5.43557e-09 6.00839e-12)
(978.58 -4.42838e-09 4.89886e-12)
(978.58 -3.69304e-09 4.03105e-12)
(978.58 -3.14096e-09 3.41138e-12)
(978.58 -2.71552e-09 2.90832e-12)
(978.58 -2.37912e-09 2.53082e-12)
(978.58 -2.10884e-09 2.23767e-12)
(978.58 -1.88937e-09 1.94184e-12)
(978.58 -1.70786e-09 1.71121e-12)
(978.58 -1.55441e-09 1.52286e-12)
(978.58 -1.42398e-09 1.36257e-12)
(978.58 -1.31218e-09 1.25449e-12)
(978.58 -1.21733e-09 1.12796e-12)
(978.58 -1.13459e-09 1.05248e-12)
(978.58 -1.06283e-09 9.57559e-13)
(978.58 -1.00005e-09 8.89457e-13)
(978.58 -9.44738e-10 8.13824e-13)
(978.58 -8.94919e-10 7.58537e-13)
(978.58 -8.50952e-10 7.01758e-13)
(978.58 -8.10799e-10 6.59042e-13)
(978.58 -7.75322e-10 6.29033e-13)
(978.58 -7.43546e-10 5.79678e-13)
(978.58 -7.16096e-10 5.43564e-13)
(978.58 -6.91325e-10 5.07952e-13)
(978.58 -6.67264e-10 4.86556e-13)
(978.58 -6.44861e-10 4.54248e-13)
(978.58 -6.26669e-10 4.27211e-13)
(978.58 -6.11264e-10 4.00775e-13)
(978.58 -5.93896e-10 3.7969e-13)
(978.58 -5.77259e-10 3.54071e-13)
(978.58 -5.62389e-10 3.42244e-13)
(978.58 -5.49487e-10 3.19904e-13)
(978.58 -5.38446e-10 3.12285e-13)
(978.58 -5.27626e-10 2.95318e-13)
(978.58 -5.17143e-10 2.84778e-13)
(978.58 -5.07957e-10 2.6958e-13)
(978.58 -4.99358e-10 2.71005e-13)
(978.58 -4.9097e-10 2.51715e-13)
(978.58 -4.85041e-10 2.44263e-13)
(978.58 -4.76206e-10 2.37652e-13)
(978.58 -4.688e-10 2.33136e-13)
(978.58 -4.62944e-10 2.18048e-13)
(978.58 -4.58617e-10 2.04782e-13)
(978.58 -4.54453e-10 2.00551e-13)
(978.58 -4.48492e-10 1.9128e-13)
(978.58 -4.43223e-10 1.83034e-13)
(978.58 -4.39544e-10 1.75205e-13)
(978.58 -4.36172e-10 1.76088e-13)
(978.58 -4.3359e-10 1.67892e-13)
(978.58 -4.30346e-10 1.65023e-13)
(978.58 -4.27785e-10 1.67706e-13)
(978.58 -4.25258e-10 1.60262e-13)
(978.58 -4.23401e-10 1.49547e-13)
(978.58 -4.21282e-10 1.39321e-13)
(978.58 -4.18977e-10 1.35013e-13)
(978.58 -4.16106e-10 1.4216e-13)
(978.58 -4.14153e-10 1.45608e-13)
(978.58 -4.1194e-10 1.35985e-13)
(978.58 -4.09944e-10 1.30174e-13)
(978.58 -4.08948e-10 1.24591e-13)
(978.58 -4.07893e-10 1.14073e-13)
(978.58 -4.06937e-10 1.13135e-13)
(978.58 -4.05631e-10 1.13525e-13)
(978.58 -4.04708e-10 1.14742e-13)
(978.58 -4.03943e-10 1.12026e-13)
(978.58 -4.04572e-10 1.11624e-13)
(978.58 -4.03628e-10 1.07343e-13)
(978.58 -4.03844e-10 1.03333e-13)
(978.58 -4.03444e-10 1.06519e-13)
(978.58 -4.04543e-10 1.05968e-13)
(978.58 -4.03308e-10 9.83426e-14)
(978.58 -4.02859e-10 9.17134e-14)
(978.58 -4.0436e-10 9.0663e-14)
(978.58 -4.07335e-10 9.55339e-14)
(978.58 -4.0807e-10 9.16575e-14)
(978.58 -4.07875e-10 9.08448e-14)
(978.58 -4.08959e-10 8.89013e-14)
(978.58 -4.0972e-10 8.87863e-14)
(978.58 -4.10574e-10 8.39085e-14)
(978.58 -4.11186e-10 7.85947e-14)
(978.58 -4.13608e-10 7.89444e-14)
(978.58 -4.13705e-10 8.17866e-14)
(978.58 -4.13959e-10 8.03087e-14)
(978.58 -4.14799e-10 8.11512e-14)
(978.58 -4.17416e-10 8.32539e-14)
(978.58 -4.19212e-10 8.3245e-14)
(978.58 -4.21037e-10 7.33254e-14)
(978.58 -4.22512e-10 7.28301e-14)
(978.58 -4.26054e-10 7.33062e-14)
(978.58 -4.27817e-10 6.83997e-14)
(978.58 -4.29638e-10 6.75154e-14)
(978.58 -4.29808e-10 6.38643e-14)
(978.58 -4.31334e-10 6.10342e-14)
(978.58 -4.32718e-10 6.14147e-14)
(978.58 -4.35202e-10 6.25995e-14)
(978.58 -4.37758e-10 6.49497e-14)
(978.58 -4.40467e-10 6.36117e-14)
(978.58 -4.43207e-10 6.22061e-14)
(978.58 -4.46724e-10 5.98926e-14)
(978.58 -4.49187e-10 5.89092e-14)
(978.58 -4.51258e-10 5.49679e-14)
(978.58 -4.53201e-10 5.1973e-14)
(978.58 -4.5637e-10 5.33781e-14)
(978.58 -4.59571e-10 5.41654e-14)
(978.58 -4.6179e-10 5.86437e-14)
(978.58 -4.64996e-10 5.85564e-14)
(978.58 -4.69279e-10 5.98729e-14)
(978.58 -4.73687e-10 5.8355e-14)
(978.58 -4.77321e-10 5.68292e-14)
(978.58 -4.81268e-10 5.16775e-14)
(978.58 -4.85239e-10 5.03982e-14)
(978.58 -4.88813e-10 5.33253e-14)
(978.58 -4.93379e-10 5.33057e-14)
(978.58 -4.98034e-10 5.00177e-14)
(978.58 -5.02346e-10 4.85322e-14)
(978.58 -5.0699e-10 5.17732e-14)
(978.58 -5.10736e-10 5.25008e-14)
(978.58 -5.15058e-10 5.20065e-14)
(978.58 -5.18608e-10 5.48291e-14)
(978.58 -5.22634e-10 5.44969e-14)
(978.58 -5.29032e-10 4.94832e-14)
(978.58 -5.33587e-10 4.88766e-14)
(978.58 -5.39013e-10 4.85908e-14)
(978.58 -5.4365e-10 5.00514e-14)
(978.58 -5.49929e-10 4.76355e-14)
(978.58 -5.56023e-10 4.71751e-14)
(978.58 -5.60908e-10 4.90956e-14)
(978.58 -5.66893e-10 4.86215e-14)
(978.58 -5.72372e-10 5.47468e-14)
(978.58 -5.76901e-10 5.22481e-14)
(978.58 -5.83776e-10 5.04993e-14)
(978.58 -5.90035e-10 4.60977e-14)
(978.58 -5.96148e-10 4.65647e-14)
(978.58 -6.03471e-10 4.56001e-14)
(978.58 -6.10562e-10 4.44298e-14)
(978.58 -6.18016e-10 4.61011e-14)
(978.58 -6.24989e-10 4.73494e-14)
(978.58 -6.3246e-10 4.8233e-14)
(978.58 -6.39719e-10 4.74534e-14)
(978.58 -6.47906e-10 4.58359e-14)
(978.58 -6.5566e-10 4.3018e-14)
(978.58 -6.63368e-10 4.26858e-14)
(978.58 -6.7156e-10 4.27953e-14)
(978.58 -6.79543e-10 4.50603e-14)
(978.58 -6.90102e-10 4.32935e-14)
(978.58 -6.9925e-10 4.03128e-14)
(978.58 -7.07611e-10 4.39561e-14)
(978.58 -7.15754e-10 4.42621e-14)
(978.58 -9.21828e-08 1.51877e-10)
(978.58 -7.1097e-08 1.04328e-10)
(978.58 -5.07607e-08 6.59975e-11)
(978.58 -3.52059e-08 4.12998e-11)
(978.58 -2.45719e-08 2.67867e-11)
(978.58 -1.75666e-08 1.83089e-11)
(978.58 -1.29573e-08 1.32197e-11)
(978.58 -9.88046e-09 1.00207e-11)
(978.58 -7.77952e-09 7.90232e-12)
(978.58 -6.3006e-09 6.421e-12)
(978.58 -5.22621e-09 5.31689e-12)
(978.58 -4.42466e-09 4.45447e-12)
(978.58 -3.80971e-09 3.78084e-12)
(978.58 -3.32655e-09 3.2831e-12)
(978.58 -2.93989e-09 2.86398e-12)
(978.58 -2.62641e-09 2.51775e-12)
(978.58 -2.36831e-09 2.23216e-12)
(978.58 -2.15213e-09 2.00564e-12)
(978.58 -1.96792e-09 1.81905e-12)
(978.58 -1.80865e-09 1.62781e-12)
(978.58 -1.67343e-09 1.48681e-12)
(978.58 -1.55703e-09 1.3689e-12)
(978.58 -1.45527e-09 1.24031e-12)
(978.58 -1.36847e-09 1.14194e-12)
(978.58 -1.29118e-09 1.0518e-12)
(978.58 -1.22091e-09 1.00095e-12)
(978.58 -1.1587e-09 9.25147e-13)
(978.58 -1.10314e-09 8.77709e-13)
(978.58 -1.05285e-09 8.21012e-13)
(978.58 -1.00799e-09 7.5972e-13)
(978.58 -9.68579e-10 7.06959e-13)
(978.58 -9.32778e-10 6.63862e-13)
(978.58 -8.99391e-10 6.1643e-13)
(978.58 -8.69213e-10 5.80447e-13)
(978.58 -8.43212e-10 5.50789e-13)
(978.58 -8.19474e-10 5.19011e-13)
(978.58 -7.96242e-10 4.94904e-13)
(978.58 -7.7386e-10 4.69948e-13)
(978.58 -7.53262e-10 4.36923e-13)
(978.58 -7.3585e-10 4.23559e-13)
(978.58 -7.18709e-10 4.12295e-13)
(978.58 -7.01841e-10 3.93802e-13)
(978.58 -6.88675e-10 3.75338e-13)
(978.58 -6.76172e-10 3.64573e-13)
(978.58 -6.64639e-10 3.49104e-13)
(978.58 -6.51701e-10 3.40315e-13)
(978.58 -6.4232e-10 3.19483e-13)
(978.58 -6.3164e-10 3.07182e-13)
(978.58 -6.21643e-10 2.92943e-13)
(978.58 -6.129e-10 2.73082e-13)
(978.58 -6.05828e-10 2.71366e-13)
(978.58 -5.98949e-10 2.61392e-13)
(978.58 -5.91413e-10 2.52195e-13)
(978.58 -5.84994e-10 2.44294e-13)
(978.58 -5.79173e-10 2.39794e-13)
(978.58 -5.73279e-10 2.28268e-13)
(978.58 -5.69122e-10 2.14545e-13)
(978.58 -5.64976e-10 2.13145e-13)
(978.58 -5.6139e-10 2.08504e-13)
(978.58 -5.56945e-10 1.93281e-13)
(978.58 -5.54625e-10 1.88063e-13)
(978.58 -5.51131e-10 1.84274e-13)
(978.58 -5.47806e-10 1.84421e-13)
(978.58 -5.44652e-10 1.86826e-13)
(978.58 -5.41382e-10 1.75063e-13)
(978.58 -5.39111e-10 1.76773e-13)
(978.58 -5.36113e-10 1.70168e-13)
(978.58 -5.33998e-10 1.57282e-13)
(978.58 -5.3188e-10 1.63811e-13)
(978.58 -5.30345e-10 1.59536e-13)
(978.58 -5.28598e-10 1.52627e-13)
(978.58 -5.27615e-10 1.49744e-13)
(978.58 -5.25968e-10 1.44798e-13)
(978.58 -5.2503e-10 1.39043e-13)
(978.58 -5.24334e-10 1.39956e-13)
(978.58 -5.24694e-10 1.37284e-13)
(978.58 -5.24461e-10 1.36437e-13)
(978.58 -5.2318e-10 1.27952e-13)
(978.58 -5.21776e-10 1.23967e-13)
(978.58 -5.22837e-10 1.25145e-13)
(978.58 -5.22819e-10 1.29236e-13)
(978.58 -5.25274e-10 1.19059e-13)
(978.58 -5.26203e-10 1.16382e-13)
(978.58 -5.26378e-10 1.14912e-13)
(978.58 -5.28692e-10 1.13396e-13)
(978.58 -5.28969e-10 1.08252e-13)
(978.58 -5.30079e-10 1.07653e-13)
(978.58 -5.31097e-10 1.09906e-13)
(978.58 -5.32324e-10 1.11848e-13)
(978.58 -5.33319e-10 1.072e-13)
(978.58 -5.34362e-10 1.01977e-13)
(978.58 -5.36276e-10 1.02404e-13)
(978.58 -5.38882e-10 1.00492e-13)
(978.58 -5.40756e-10 9.5957e-14)
(978.58 -5.41493e-10 9.39205e-14)
(978.58 -5.42892e-10 9.39109e-14)
(978.58 -5.45678e-10 8.75056e-14)
(978.58 -5.47976e-10 8.92325e-14)
(978.58 -5.5021e-10 9.0276e-14)
(978.58 -5.5319e-10 8.61526e-14)
(978.58 -5.55209e-10 8.38689e-14)
(978.58 -5.57147e-10 8.65767e-14)
(978.58 -5.59116e-10 8.55557e-14)
(978.58 -5.60965e-10 7.71348e-14)
(978.58 -5.63681e-10 7.82719e-14)
(978.58 -5.6716e-10 8.03824e-14)
(978.58 -5.71053e-10 7.94556e-14)
(978.58 -5.74052e-10 7.82567e-14)
(978.58 -5.77882e-10 7.64014e-14)
(978.58 -5.8157e-10 7.80779e-14)
(978.58 -5.84909e-10 7.75107e-14)
(978.58 -5.88526e-10 7.66143e-14)
(978.58 -5.90835e-10 7.44572e-14)
(978.58 -5.93719e-10 6.75732e-14)
(978.58 -5.9838e-10 6.92686e-14)
(978.58 -6.04387e-10 7.21958e-14)
(978.58 -6.08786e-10 7.39352e-14)
(978.58 -6.13468e-10 7.18852e-14)
(978.58 -6.18441e-10 7.38887e-14)
(978.58 -6.23145e-10 7.23305e-14)
(978.58 -6.28051e-10 6.58002e-14)
(978.58 -6.33322e-10 6.55886e-14)
(978.58 -6.38382e-10 7.03529e-14)
(978.58 -6.45442e-10 6.91216e-14)
(978.58 -6.50704e-10 6.66917e-14)
(978.58 -6.56801e-10 7.12502e-14)
(978.58 -6.61376e-10 6.89529e-14)
(978.58 -6.65396e-10 6.34809e-14)
(978.58 -6.71685e-10 6.19548e-14)
(978.58 -6.76698e-10 6.16617e-14)
(978.58 -6.82525e-10 6.29511e-14)
(978.58 -6.89215e-10 6.76319e-14)
(978.58 -6.96222e-10 6.3478e-14)
(978.58 -7.04136e-10 6.56966e-14)
(978.58 -7.10984e-10 6.52989e-14)
(978.58 -7.18652e-10 6.45753e-14)
(978.58 -7.25726e-10 6.43132e-14)
(978.58 -7.32378e-10 6.11089e-14)
(978.58 -7.39742e-10 6.01611e-14)
(978.58 -7.46841e-10 5.81776e-14)
(978.58 -7.54469e-10 6.12781e-14)
(978.58 -7.63369e-10 5.98869e-14)
(978.58 -7.7241e-10 6.12268e-14)
(978.58 -7.81225e-10 6.25127e-14)
(978.58 -7.89626e-10 6.09502e-14)
(978.58 -7.98924e-10 5.97503e-14)
(978.58 -8.07384e-10 5.68382e-14)
(978.58 -8.16309e-10 5.43409e-14)
(978.58 -8.25358e-10 5.65021e-14)
(978.58 -8.35251e-10 5.60949e-14)
(978.58 -8.44975e-10 5.59853e-14)
(978.58 -8.54464e-10 5.88411e-14)
(978.58 -8.65573e-10 5.17083e-14)
(978.58 -8.76169e-10 5.44988e-14)
(978.58 -8.85247e-10 5.86221e-14)
(978.58 -8.92415e-10 5.69031e-14)
(978.58 -9.85202e-08 1.62698e-10)
(978.58 -8.03682e-08 1.17642e-10)
(978.58 -6.08444e-08 7.81514e-11)
(978.58 -4.42974e-08 5.08999e-11)
(978.58 -3.20112e-08 3.3683e-11)
(978.58 -2.33949e-08 2.31558e-11)
(978.58 -1.7455e-08 1.67372e-11)
(978.58 -1.3358e-08 1.25857e-11)
(978.58 -1.05016e-08 9.82943e-12)
(978.58 -8.47268e-09 7.91437e-12)
(978.58 -6.99839e-09 6.55746e-12)
(978.58 -5.89889e-09 5.50595e-12)
(978.58 -5.05729e-09 4.70868e-12)
(978.58 -4.40073e-09 4.07822e-12)
(978.58 -3.87858e-09 3.51533e-12)
(978.58 -3.45598e-09 3.09413e-12)
(978.58 -3.10799e-09 2.76748e-12)
(978.58 -2.8181e-09 2.46513e-12)
(978.58 -2.57251e-09 2.23132e-12)
(978.58 -2.36095e-09 2.00053e-12)
(978.58 -2.18031e-09 1.82319e-12)
(978.58 -2.02492e-09 1.66394e-12)
(978.58 -1.88942e-09 1.52724e-12)
(978.58 -1.77191e-09 1.38946e-12)
(978.58 -1.66915e-09 1.30394e-12)
(978.58 -1.5768e-09 1.21905e-12)
(978.58 -1.49415e-09 1.13853e-12)
(978.58 -1.42132e-09 1.06477e-12)
(978.58 -1.35478e-09 9.78153e-13)
(978.58 -1.29466e-09 9.05049e-13)
(978.58 -1.24155e-09 8.61075e-13)
(978.58 -1.19395e-09 8.04052e-13)
(978.58 -1.15035e-09 7.571e-13)
(978.58 -1.11084e-09 7.20803e-13)
(978.58 -1.07549e-09 6.74477e-13)
(978.58 -1.04251e-09 6.25657e-13)
(978.58 -1.01197e-09 6.16148e-13)
(978.58 -9.83962e-10 5.79305e-13)
(978.58 -9.57977e-10 5.52255e-13)
(978.58 -9.35276e-10 5.31837e-13)
(978.58 -9.12011e-10 4.93428e-13)
(978.58 -8.90091e-10 4.72375e-13)
(978.58 -8.71023e-10 4.58936e-13)
(978.58 -8.52934e-10 4.42223e-13)
(978.58 -8.37388e-10 4.23797e-13)
(978.58 -8.21881e-10 4.0954e-13)
(978.58 -8.08166e-10 3.8662e-13)
(978.58 -7.9368e-10 3.75982e-13)
(978.58 -7.81581e-10 3.61433e-13)
(978.58 -7.7054e-10 3.4132e-13)
(978.58 -7.60852e-10 3.30944e-13)
(978.58 -7.50203e-10 3.18761e-13)
(978.58 -7.41414e-10 3.05232e-13)
(978.58 -7.32514e-10 2.95581e-13)
(978.58 -7.25228e-10 2.83262e-13)
(978.58 -7.17539e-10 2.72622e-13)
(978.58 -7.10524e-10 2.68435e-13)
(978.58 -7.04439e-10 2.66648e-13)
(978.58 -6.98941e-10 2.50766e-13)
(978.58 -6.94016e-10 2.42345e-13)
(978.58 -6.90555e-10 2.38876e-13)
(978.58 -6.84998e-10 2.32531e-13)
(978.58 -6.80131e-10 2.30105e-13)
(978.58 -6.76148e-10 2.20668e-13)
(978.58 -6.72845e-10 2.19996e-13)
(978.58 -6.69483e-10 2.17191e-13)
(978.58 -6.65726e-10 2.04092e-13)
(978.58 -6.61779e-10 1.97978e-13)
(978.58 -6.58646e-10 2.00422e-13)
(978.58 -6.5652e-10 1.91287e-13)
(978.58 -6.54381e-10 1.84822e-13)
(978.58 -6.52663e-10 1.8171e-13)
(978.58 -6.51392e-10 1.77566e-13)
(978.58 -6.50268e-10 1.6975e-13)
(978.58 -6.48642e-10 1.7088e-13)
(978.58 -6.47403e-10 1.6325e-13)
(978.58 -6.47045e-10 1.59165e-13)
(978.58 -6.45744e-10 1.58686e-13)
(978.58 -6.4486e-10 1.67205e-13)
(978.58 -6.44419e-10 1.58288e-13)
(978.58 -6.43796e-10 1.52633e-13)