/*--------------------------------*- C++ -*----------------------------------*\
| =========                 |                                                 |
| \\      /  F ield         | OpenFOAM: The Open Source CFD Toolbox           |
|  \\    /   O peration     | Version:  v1706                                 |
|   \\  /    A nd           | Web:      www.OpenFOAM.com                      |
|    \\/     M anipulation  |                                                 |
\*---------------------------------------------------------------------------*/
FoamFile
{
    version     2.0;
    format      ascii;
    class       volScalarField;
    location    "1.9e-05";
    object      wallHeatFlux;
}
// * * * * * * * * * * * * * * * * * * * * * * * * * * * * * * * * * * * * * //

dimensions      [1 0 -3 0 0 0 0];


internalField   uniform 0;

boundaryField
{
    cone
    {
        type            calculated;
        value           nonuniform List<scalar> 
147
(
11511.1
11508.7
11504
11498.4
11490.8
11482
11472.4
11462.4
11451.6
11439.8
11426.9
11413
11397.9
11381.6
11364.2
11345.7
11326
11305.2
11283.2
11260.1
11235.9
11210.5
11184
11156.4
11127.7
11097.9
11067
11035.1
11002.1
10968
10932.8
10896.6
10859.4
10821.1
10781.8
10741.5
10700.2
10657.9
10614.6
10570.3
10525.1
10478.9
10431.7
10383.6
10334.5
10284.5
10233.6
10181.8
10129.1
10075.5
10021
9965.62
9909.38
9852.27
9794.31
9735.51
9675.88
9615.41
9554.13
9492.04
9429.15
9365.47
9301
9235.75
9169.75
9102.98
9035.46
8967.21
8898.24
8828.54
8758.13
8687.02
8615.22
8542.75
8469.59
8395.78
8321.32
8246.22
8170.48
8094.11
8017.13
7939.55
7861.36
7782.59
7703.23
7623.31
7542.82
7461.78
7380.2
7298.09
7215.47
7132.32
7048.68
6964.55
6879.95
6794.88
6709.35
6623.38
6536.99
6450.15
6362.91
6275.26
6187.21
6098.78
6009.98
5920.81
5831.27
5741.38
5651.15
5560.57
5469.66
5378.42
5286.85
5194.95
5102.73
5010.19
4917.33
4824.15
4730.65
4636.83
4542.69
4448.23
4353.45
4258.34
4162.91
4067.16
3971.08
3874.68
3777.95
3680.91
3583.55
3485.87
3387.9
3289.63
3191.07
3092.24
2993.16
2893.84
2794.3
2694.57
2594.68
2494.66
2394.54
2294.36
2194.17
2094.01
11525.4
)
;
    }
    inlet
    {
        type            calculated;
        value           uniform 0;
    }
    rWedge
    {
        type            wedge;
    }
    lWedge
    {
        type            wedge;
    }
    outlet
    {
        type            calculated;
        value           nonuniform 0();
    }
    procBoundary3to2
    {
        type            processor;
        value           uniform 0;
    }
}


// ************************************************************************* //
