/*--------------------------------*- C++ -*----------------------------------*\
| =========                 |                                                 |
| \\      /  F ield         | OpenFOAM: The Open Source CFD Toolbox           |
|  \\    /   O peration     | Version:  v1706                                 |
|   \\  /    A nd           | Web:      www.OpenFOAM.com                      |
|    \\/     M anipulation  |                                                 |
\*---------------------------------------------------------------------------*/
FoamFile
{
    version     2.0;
    format      ascii;
    class       volScalarField;
    location    "3.1e-05";
    object      alpha;
}
// * * * * * * * * * * * * * * * * * * * * * * * * * * * * * * * * * * * * * //

dimensions      [1 -1 -1 0 0 0 0];


internalField   nonuniform List<scalar> 
30038
(
1.40478e-05
1.40478e-05
1.40478e-05
1.40478e-05
1.40478e-05
1.40478e-05
1.40478e-05
1.40478e-05
1.40478e-05
1.40478e-05
1.40478e-05
1.40478e-05
1.40478e-05
1.40478e-05
1.40478e-05
1.40478e-05
1.40478e-05
1.40478e-05
1.40478e-05
1.40478e-05
1.40478e-05
1.40478e-05
1.40478e-05
1.40478e-05
1.40478e-05
1.40478e-05
1.40478e-05
1.40478e-05
1.40478e-05
1.40478e-05
1.40478e-05
1.40478e-05
1.40478e-05
1.40478e-05
1.40478e-05
1.40478e-05
1.40478e-05
1.40478e-05
1.40478e-05
1.40478e-05
1.40478e-05
1.40478e-05
1.40478e-05
1.40478e-05
1.40478e-05
1.40478e-05
1.40478e-05
1.40478e-05
1.40478e-05
1.40478e-05
1.40478e-05
1.40478e-05
1.40478e-05
1.40478e-05
1.40478e-05
1.40478e-05
1.40478e-05
1.40478e-05
1.40478e-05
1.40478e-05
1.40478e-05
1.40478e-05
1.40478e-05
1.40478e-05
1.40478e-05
1.40478e-05
1.40478e-05
1.40478e-05
1.40478e-05
1.40478e-05
1.40478e-05
1.40478e-05
1.40478e-05
1.40478e-05
1.40478e-05
1.40478e-05
1.40478e-05
1.40478e-05
1.40478e-05
1.40478e-05
1.40478e-05
1.40478e-05
1.40478e-05
1.40478e-05
1.40478e-05
1.40478e-05
1.40478e-05
1.40478e-05
1.40478e-05
1.40478e-05
1.40478e-05
1.40478e-05
1.40478e-05
1.40478e-05
1.40478e-05
1.40478e-05
1.40478e-05
1.40478e-05
1.40478e-05
1.40478e-05
1.40478e-05
1.40478e-05
1.40478e-05
1.40478e-05
1.40478e-05
1.40478e-05
1.40478e-05
1.40478e-05
1.40478e-05
1.40478e-05
1.40478e-05
1.40478e-05
1.40478e-05
1.40478e-05
1.40478e-05
1.40478e-05
1.40478e-05
1.40478e-05
1.40478e-05
1.40478e-05
1.40478e-05
1.40478e-05
1.40478e-05
1.40478e-05
1.40478e-05
1.40478e-05
1.40478e-05
1.40478e-05
1.40478e-05
1.40478e-05
1.40478e-05
1.40478e-05
1.40478e-05
1.40478e-05
1.40478e-05
1.40478e-05
1.40478e-05
1.40478e-05
1.40478e-05
1.40478e-05
1.40478e-05
1.40478e-05
1.40478e-05
1.40478e-05
1.40478e-05
1.40478e-05
1.40478e-05
1.40478e-05
1.40478e-05
1.40478e-05
1.40478e-05
1.40478e-05
1.40478e-05
1.40478e-05
1.40478e-05
1.40478e-05
1.40478e-05
1.40478e-05
1.40478e-05
1.40478e-05
1.40478e-05
1.40478e-05
1.40478e-05
1.40478e-05
1.40478e-05
1.40478e-05
1.40478e-05
1.40478e-05
1.40478e-05
1.40478e-05
1.40478e-05
1.40478e-05
1.40478e-05
1.40478e-05
1.40478e-05
1.40478e-05
1.40478e-05
1.40478e-05
1.40478e-05
1.40478e-05
1.40478e-05
1.40478e-05
1.40478e-05
1.40478e-05
1.40478e-05
1.40478e-05
1.40478e-05
1.40478e-05
1.40478e-05
1.40478e-05
1.40478e-05
1.40478e-05
1.40478e-05
1.40478e-05
1.40478e-05
1.40478e-05
1.40478e-05
1.40478e-05
1.40478e-05
1.40478e-05
1.40478e-05
1.40478e-05
1.40478e-05
1.40478e-05
1.40478e-05
1.40478e-05
1.40478e-05
1.40478e-05
1.40478e-05
1.40478e-05
1.40478e-05
1.40478e-05
1.40478e-05
1.40478e-05
1.40478e-05
1.40478e-05
1.40478e-05
1.40478e-05
1.40478e-05
1.40478e-05
1.40478e-05
1.40478e-05
1.40478e-05
1.40478e-05
1.40478e-05
1.40478e-05
1.40478e-05
1.40478e-05
1.40478e-05
1.40478e-05
1.40478e-05
1.40478e-05
1.40478e-05
1.40478e-05
1.40478e-05
1.40478e-05
1.40478e-05
1.40478e-05
1.40478e-05
1.40478e-05
1.40478e-05
1.40478e-05
1.40478e-05
1.40478e-05
1.40478e-05
1.40478e-05
1.40478e-05
1.40478e-05
1.40478e-05
1.40478e-05
1.40478e-05
1.40478e-05
1.40478e-05
1.40478e-05
1.40478e-05
1.40478e-05
1.40478e-05
1.40478e-05
1.40478e-05
1.40478e-05
1.40478e-05
1.40478e-05
1.40478e-05
1.40478e-05
1.40478e-05
1.40478e-05
1.40478e-05
1.40478e-05
1.40478e-05
1.40478e-05
1.40478e-05
1.40478e-05
1.40478e-05
1.40478e-05
1.40478e-05
1.40478e-05
1.40478e-05
1.40478e-05
1.40478e-05
1.40478e-05
1.40478e-05
1.40478e-05
1.40478e-05
1.40478e-05
1.40478e-05
1.40478e-05
1.40478e-05
1.40478e-05
1.40478e-05
1.40478e-05
1.40478e-05
1.40478e-05
1.40478e-05
1.40478e-05
1.40478e-05
1.40478e-05
1.40478e-05
1.40478e-05
1.40478e-05
1.40478e-05
1.40478e-05
1.40478e-05
1.40478e-05
1.40479e-05
1.40478e-05
1.40478e-05
1.40478e-05
1.40478e-05
1.40478e-05
1.40478e-05
1.40478e-05
1.40478e-05
1.40478e-05
1.40478e-05
1.40478e-05
1.40478e-05
1.40478e-05
1.40478e-05
1.40478e-05
1.40478e-05
1.40478e-05
1.40478e-05
1.40478e-05
1.40478e-05
1.40478e-05
1.40478e-05
1.40478e-05
1.40478e-05
1.40478e-05
1.40478e-05
1.40478e-05
1.40478e-05
1.40478e-05
1.40478e-05
1.40478e-05
1.40478e-05
1.40478e-05
1.40478e-05
1.40478e-05
1.40479e-05
1.40479e-05
1.4048e-05
1.40481e-05
1.40478e-05
1.40478e-05
1.40478e-05
1.40478e-05
1.40478e-05
1.40478e-05
1.40478e-05
1.40478e-05
1.40478e-05
1.40478e-05
1.40478e-05
1.40478e-05
1.40478e-05
1.40478e-05
1.40478e-05
1.40478e-05
1.40478e-05
1.40478e-05
1.40478e-05
1.40478e-05
1.40478e-05
1.40478e-05
1.40478e-05
1.40478e-05
1.40478e-05
1.40478e-05
1.40478e-05
1.40478e-05
1.40478e-05
1.40478e-05
1.40478e-05
1.40478e-05
1.40479e-05
1.40479e-05
1.4048e-05
1.4048e-05
1.40482e-05
1.40483e-05
1.40486e-05
1.40478e-05
1.40478e-05
1.40478e-05
1.40478e-05
1.40478e-05
1.40478e-05
1.40478e-05
1.40478e-05
1.40478e-05
1.40478e-05
1.40478e-05
1.40478e-05
1.40478e-05
1.40478e-05
1.40478e-05
1.40478e-05
1.40478e-05
1.40478e-05
1.40478e-05
1.40478e-05
1.40478e-05
1.40478e-05
1.40478e-05
1.40478e-05
1.40478e-05
1.40478e-05
1.40478e-05
1.40478e-05
1.40478e-05
1.40479e-05
1.40479e-05
1.40479e-05
1.4048e-05
1.40481e-05
1.40483e-05
1.40485e-05
1.40489e-05
1.40494e-05
1.40502e-05
1.40478e-05
1.40478e-05
1.40478e-05
1.40478e-05
1.40478e-05
1.40478e-05
1.40478e-05
1.40478e-05
1.40478e-05
1.40478e-05
1.40478e-05
1.40478e-05
1.40478e-05
1.40478e-05
1.40478e-05
1.40478e-05
1.40478e-05
1.40478e-05
1.40478e-05
1.40478e-05
1.40478e-05
1.40478e-05
1.40478e-05
1.40478e-05
1.40478e-05
1.40478e-05
1.40478e-05
1.40479e-05
1.40479e-05
1.40479e-05
1.4048e-05
1.40481e-05
1.40483e-05
1.40485e-05
1.40488e-05
1.40493e-05
1.405e-05
1.4051e-05
1.40525e-05
1.40549e-05
1.40478e-05
1.40478e-05
1.40478e-05
1.40478e-05
1.40478e-05
1.40478e-05
1.40478e-05
1.40478e-05
1.40478e-05
1.40478e-05
1.40478e-05
1.40478e-05
1.40478e-05
1.40478e-05
1.40478e-05
1.40478e-05
1.40478e-05
1.40478e-05
1.40478e-05
1.40478e-05
1.40478e-05
1.40478e-05
1.40478e-05
1.40478e-05
1.40479e-05
1.40479e-05
1.40479e-05
1.4048e-05
1.40481e-05
1.40483e-05
1.40485e-05
1.40488e-05
1.40492e-05
1.40498e-05
1.40508e-05
1.40521e-05
1.40541e-05
1.40571e-05
1.40615e-05
1.40681e-05
1.40478e-05
1.40478e-05
1.40478e-05
1.40478e-05
1.40478e-05
1.40478e-05
1.40478e-05
1.40478e-05
1.40478e-05
1.40478e-05
1.40478e-05
1.40478e-05
1.40478e-05
1.40478e-05
1.40478e-05
1.40478e-05
1.40478e-05
1.40478e-05
1.40478e-05
1.40478e-05
1.40478e-05
1.40479e-05
1.40479e-05
1.40479e-05
1.4048e-05
1.40481e-05
1.40482e-05
1.40484e-05
1.40487e-05
1.40491e-05
1.40497e-05
1.40506e-05
1.40519e-05
1.40537e-05
1.40563e-05
1.40602e-05
1.40659e-05
1.40742e-05
1.40865e-05
1.41048e-05
1.40478e-05
1.40478e-05
1.40478e-05
1.40478e-05
1.40478e-05
1.40478e-05
1.40478e-05
1.40478e-05
1.40478e-05
1.40478e-05
1.40478e-05
1.40478e-05
1.40478e-05
1.40478e-05
1.40478e-05
1.40478e-05
1.40478e-05
1.40478e-05
1.40479e-05
1.40479e-05
1.40479e-05
1.4048e-05
1.40481e-05
1.40482e-05
1.40484e-05
1.40487e-05
1.40491e-05
1.40497e-05
1.40505e-05
1.40517e-05
1.40534e-05
1.40558e-05
1.40594e-05
1.40645e-05
1.4072e-05
1.40828e-05
1.40985e-05
1.41215e-05
1.41551e-05
1.42046e-05
1.40478e-05
1.40478e-05
1.40478e-05
1.40478e-05
1.40478e-05
1.40478e-05
1.40478e-05
1.40478e-05
1.40478e-05
1.40478e-05
1.40478e-05
1.40478e-05
1.40478e-05
1.40478e-05
1.40478e-05
1.40479e-05
1.40479e-05
1.4048e-05
1.4048e-05
1.40481e-05
1.40483e-05
1.40484e-05
1.40487e-05
1.40491e-05
1.40497e-05
1.40505e-05
1.40516e-05
1.40532e-05
1.40555e-05
1.40588e-05
1.40635e-05
1.40704e-05
1.40802e-05
1.40944e-05
1.41148e-05
1.41444e-05
1.4187e-05
1.42487e-05
1.43378e-05
1.44665e-05
1.40478e-05
1.40478e-05
1.40478e-05
1.40478e-05
1.40478e-05
1.40478e-05
1.40478e-05
1.40478e-05
1.40478e-05
1.40478e-05
1.40478e-05
1.40479e-05
1.40479e-05
1.40479e-05
1.4048e-05
1.4048e-05
1.40481e-05
1.40483e-05
1.40485e-05
1.40487e-05
1.40491e-05
1.40497e-05
1.40504e-05
1.40515e-05
1.40531e-05
1.40553e-05
1.40584e-05
1.40629e-05
1.40692e-05
1.40783e-05
1.40914e-05
1.411e-05
1.41367e-05
1.41749e-05
1.42296e-05
1.43077e-05
1.44192e-05
1.45773e-05
1.48001e-05
1.5111e-05
1.40478e-05
1.40478e-05
1.40478e-05
1.40478e-05
1.40478e-05
1.40478e-05
1.40478e-05
1.40478e-05
1.40479e-05
1.40479e-05
1.40479e-05
1.4048e-05
1.40481e-05
1.40482e-05
1.40483e-05
1.40485e-05
1.40488e-05
1.40492e-05
1.40497e-05
1.40505e-05
1.40516e-05
1.40531e-05
1.40552e-05
1.40582e-05
1.40625e-05
1.40685e-05
1.40771e-05
1.40893e-05
1.41065e-05
1.41311e-05
1.41659e-05
1.42155e-05
1.42858e-05
1.43852e-05
1.45253e-05
1.47214e-05
1.49933e-05
1.53654e-05
1.58652e-05
1.65201e-05
1.40478e-05
1.40478e-05
1.40478e-05
1.40478e-05
1.40478e-05
1.40478e-05
1.40479e-05
1.40479e-05
1.40479e-05
1.4048e-05
1.40481e-05
1.40482e-05
1.40483e-05
1.40485e-05
1.40488e-05
1.40492e-05
1.40498e-05
1.40506e-05
1.40516e-05
1.40532e-05
1.40553e-05
1.40582e-05
1.40624e-05
1.40682e-05
1.40764e-05
1.40879e-05
1.41042e-05
1.41271e-05
1.41595e-05
1.42052e-05
1.42695e-05
1.43598e-05
1.44864e-05
1.46625e-05
1.49056e-05
1.52371e-05
1.5682e-05
1.62663e-05
1.70144e-05
1.7942e-05
1.90464e-05
1.40478e-05
1.40478e-05
1.40479e-05
1.40479e-05
1.40479e-05
1.4048e-05
1.4048e-05
1.40481e-05
1.40482e-05
1.40484e-05
1.40486e-05
1.40489e-05
1.40493e-05
1.40499e-05
1.40507e-05
1.40518e-05
1.40533e-05
1.40554e-05
1.40584e-05
1.40625e-05
1.40682e-05
1.40762e-05
1.40873e-05
1.41029e-05
1.41247e-05
1.41552e-05
1.41979e-05
1.42577e-05
1.43412e-05
1.44573e-05
1.4618e-05
1.48389e-05
1.5139e-05
1.55412e-05
1.60697e-05
1.67478e-05
1.7593e-05
1.86109e-05
1.97904e-05
2.10986e-05
2.24855e-05
1.40479e-05
1.40479e-05
1.40479e-05
1.4048e-05
1.40481e-05
1.40482e-05
1.40483e-05
1.40485e-05
1.40487e-05
1.4049e-05
1.40495e-05
1.40501e-05
1.40509e-05
1.4052e-05
1.40536e-05
1.40557e-05
1.40587e-05
1.40628e-05
1.40685e-05
1.40764e-05
1.40873e-05
1.41025e-05
1.41235e-05
1.41528e-05
1.41934e-05
1.42499e-05
1.43282e-05
1.44364e-05
1.45852e-05
1.47887e-05
1.50643e-05
1.54325e-05
1.59162e-05
1.65379e-05
1.7316e-05
1.82599e-05
1.93638e-05
2.06032e-05
2.19354e-05
2.32975e-05
2.46015e-05
2.57638e-05
1.4048e-05
1.4048e-05
1.40481e-05
1.40482e-05
1.40483e-05
1.40485e-05
1.40488e-05
1.40491e-05
1.40496e-05
1.40503e-05
1.40511e-05
1.40523e-05
1.4054e-05
1.40562e-05
1.40593e-05
1.40634e-05
1.40692e-05
1.40771e-05
1.4088e-05
1.41029e-05
1.41236e-05
1.41521e-05
1.41914e-05
1.42455e-05
1.43201e-05
1.44224e-05
1.45624e-05
1.47526e-05
1.50089e-05
1.53503e-05
1.5798e-05
1.63734e-05
1.70954e-05
1.79756e-05
1.90133e-05
2.01918e-05
2.1476e-05
2.28147e-05
2.41346e-05
2.53448e-05
2.63654e-05
2.71538e-05
2.77302e-05
1.40483e-05
1.40484e-05
1.40486e-05
1.40489e-05
1.40493e-05
1.40498e-05
1.40505e-05
1.40515e-05
1.40527e-05
1.40545e-05
1.40568e-05
1.406e-05
1.40643e-05
1.40702e-05
1.40783e-05
1.40893e-05
1.41043e-05
1.41249e-05
1.41531e-05
1.41916e-05
1.42444e-05
1.43165e-05
1.44148e-05
1.45483e-05
1.47287e-05
1.49704e-05
1.52909e-05
1.571e-05
1.6248e-05
1.69233e-05
1.7749e-05
1.87283e-05
1.98495e-05
2.1085e-05
2.23925e-05
2.3712e-05
2.49637e-05
2.60622e-05
2.69482e-05
2.76074e-05
2.80668e-05
2.8367e-05
2.85599e-05
1.40488e-05
1.40491e-05
1.40495e-05
1.40501e-05
1.40509e-05
1.40519e-05
1.40533e-05
1.40551e-05
1.40576e-05
1.4061e-05
1.40656e-05
1.40717e-05
1.408e-05
1.40913e-05
1.41066e-05
1.41275e-05
1.41557e-05
1.41941e-05
1.42463e-05
1.43171e-05
1.44129e-05
1.45422e-05
1.47156e-05
1.49467e-05
1.52516e-05
1.56486e-05
1.61569e-05
1.67944e-05
1.75745e-05
1.85026e-05
1.95716e-05
2.07597e-05
2.20308e-05
2.33358e-05
2.46068e-05
2.57626e-05
2.67324e-05
2.74827e-05
2.80225e-05
2.83875e-05
2.86212e-05
2.87649e-05
2.8849e-05
2.88976e-05
1.40498e-05
1.40504e-05
1.40513e-05
1.40524e-05
1.4054e-05
1.4056e-05
1.40587e-05
1.40623e-05
1.40671e-05
1.40737e-05
1.40824e-05
1.40942e-05
1.411e-05
1.41314e-05
1.41602e-05
1.4199e-05
1.42514e-05
1.43219e-05
1.44167e-05
1.45436e-05
1.47128e-05
1.49367e-05
1.52305e-05
1.56111e-05
1.60967e-05
1.67042e-05
1.7447e-05
1.83318e-05
1.9355e-05
2.04986e-05
2.17322e-05
2.30139e-05
2.4287e-05
2.54786e-05
2.65143e-05
2.73457e-05
2.79647e-05
2.83964e-05
2.86809e-05
2.88594e-05
2.89661e-05
2.90269e-05
2.9059e-05
2.90735e-05
2.9076e-05
1.40519e-05
1.40531e-05
1.40548e-05
1.40571e-05
1.406e-05
1.4064e-05
1.40692e-05
1.40762e-05
1.40855e-05
1.40979e-05
1.41146e-05
1.41368e-05
1.41666e-05
1.42065e-05
1.42598e-05
1.43311e-05
1.44261e-05
1.45525e-05
1.47198e-05
1.49398e-05
1.52265e-05
1.55958e-05
1.60648e-05
1.66495e-05
1.73629e-05
1.82121e-05
1.91956e-05
2.02991e-05
2.14964e-05
2.27505e-05
2.40142e-05
2.52237e-05
2.6307e-05
2.7206e-05
2.78977e-05
2.83952e-05
2.87322e-05
2.89492e-05
2.9082e-05
2.91594e-05
2.92016e-05
2.92221e-05
2.92265e-05
2.92246e-05
2.92204e-05
2.92096e-05
1.4054e-05
1.40559e-05
1.40584e-05
1.40617e-05
1.40661e-05
1.40718e-05
1.40794e-05
1.40895e-05
1.41028e-05
1.41205e-05
1.41441e-05
1.41753e-05
1.42168e-05
1.42719e-05
1.43449e-05
1.44416e-05
1.45693e-05
1.4737e-05
1.49558e-05
1.52392e-05
1.56019e-05
1.60598e-05
1.66282e-05
1.73193e-05
1.81402e-05
1.90907e-05
2.01594e-05
2.13229e-05
2.25484e-05
2.37953e-05
2.50088e-05
2.61226e-05
2.70745e-05
2.78296e-05
2.83885e-05
2.87778e-05
2.90345e-05
2.91958e-05
2.92918e-05
2.93456e-05
2.93728e-05
2.93828e-05
2.93806e-05
2.93765e-05
2.93671e-05
2.93511e-05
2.93315e-05
2.93103e-05
1.40639e-05
1.40688e-05
1.40752e-05
1.40835e-05
1.40946e-05
1.41091e-05
1.41282e-05
1.41534e-05
1.41866e-05
1.42304e-05
1.42881e-05
1.4364e-05
1.44638e-05
1.45944e-05
1.47647e-05
1.49853e-05
1.52687e-05
1.56291e-05
1.60812e-05
1.66393e-05
1.73147e-05
1.81142e-05
1.9038e-05
2.00768e-05
2.12099e-05
2.24077e-05
2.36338e-05
2.48416e-05
2.59715e-05
2.69616e-05
2.77687e-05
2.83825e-05
2.8821e-05
2.91175e-05
2.9308e-05
2.94243e-05
2.9491e-05
2.95265e-05
2.95418e-05
2.95411e-05
2.95364e-05
2.95288e-05
2.95139e-05
2.94943e-05
2.94725e-05
2.94482e-05
2.94229e-05
2.93984e-05
1.40722e-05
1.40794e-05
1.40888e-05
1.4101e-05
1.4117e-05
1.41379e-05
1.41653e-05
1.42011e-05
1.42479e-05
1.43092e-05
1.43891e-05
1.44934e-05
1.46288e-05
1.48039e-05
1.5029e-05
1.53161e-05
1.56782e-05
1.61293e-05
1.66824e-05
1.73483e-05
1.81328e-05
1.90361e-05
2.00504e-05
2.1157e-05
2.23286e-05
2.35322e-05
2.47277e-05
2.58621e-05
2.68767e-05
2.77237e-05
2.83838e-05
2.88668e-05
2.92009e-05
2.94204e-05
2.95576e-05
2.9638e-05
2.96821e-05
2.97027e-05
2.97063e-05
2.97011e-05
2.96933e-05
2.96801e-05
2.96611e-05
2.96388e-05
2.96145e-05
2.9588e-05
2.95611e-05
2.95354e-05
2.95107e-05
2.94869e-05
1.41092e-05
1.41271e-05
1.41503e-05
1.41804e-05
1.42195e-05
1.42702e-05
1.43361e-05
1.44214e-05
1.45317e-05
1.46739e-05
1.48562e-05
1.50887e-05
1.53826e-05
1.57504e-05
1.6205e-05
1.67585e-05
1.74203e-05
1.81957e-05
1.90843e-05
2.00791e-05
2.11632e-05
2.23108e-05
2.34916e-05
2.46703e-05
2.58005e-05
2.68276e-05
2.77025e-05
2.83993e-05
2.89202e-05
2.92883e-05
2.95352e-05
2.96926e-05
2.97874e-05
2.98404e-05
2.9867e-05
2.98744e-05
2.987e-05
2.98612e-05
2.98497e-05
2.98312e-05
2.98088e-05
2.97843e-05
2.97574e-05
2.97292e-05
2.97014e-05
2.96747e-05
2.96484e-05
2.96231e-05
2.95989e-05
2.95755e-05
1.41994e-05
1.42427e-05
1.42984e-05
1.43701e-05
1.44623e-05
1.45804e-05
1.47315e-05
1.49235e-05
1.51662e-05
1.54704e-05
1.58479e-05
1.63105e-05
1.6869e-05
1.7532e-05
1.83036e-05
1.91829e-05
2.01628e-05
2.12279e-05
2.23537e-05
2.35122e-05
2.46714e-05
2.5791e-05
2.68206e-05
2.77122e-05
2.84354e-05
2.89865e-05
2.93835e-05
2.96548e-05
2.98312e-05
2.99399e-05
3.00017e-05
3.0034e-05
3.00458e-05
3.00431e-05
3.00339e-05
3.0022e-05
3.0005e-05
2.99824e-05
2.99575e-05
2.99305e-05
2.99014e-05
2.98718e-05
2.98432e-05
2.98153e-05
2.97879e-05
2.97615e-05
2.97357e-05
2.97107e-05
2.96865e-05
2.96632e-05
1.44129e-05
1.45136e-05
1.46417e-05
1.48039e-05
1.50085e-05
1.52646e-05
1.55826e-05
1.59736e-05
1.64484e-05
1.70167e-05
1.76856e-05
1.84583e-05
1.93328e-05
2.0302e-05
2.13514e-05
2.24577e-05
2.35945e-05
2.47325e-05
2.58364e-05
2.68603e-05
2.77581e-05
2.84977e-05
2.90707e-05
2.94904e-05
2.97822e-05
2.99753e-05
3.00965e-05
3.01669e-05
3.02047e-05
3.02208e-05
3.02194e-05
3.02106e-05
3.01977e-05
3.01819e-05
3.01594e-05
3.0134e-05
3.01069e-05
3.00772e-05
3.00464e-05
3.0016e-05
2.99864e-05
2.99572e-05
2.99288e-05
2.99012e-05
2.98741e-05
2.98477e-05
2.9822e-05
2.9797e-05
2.97728e-05
2.97494e-05
1.48944e-05
1.51144e-05
1.53872e-05
1.57228e-05
1.61312e-05
1.66224e-05
1.72047e-05
1.7884e-05
1.86619e-05
1.95358e-05
2.0498e-05
2.15344e-05
2.2623e-05
2.37384e-05
2.48541e-05
2.59383e-05
2.69496e-05
2.78447e-05
2.8591e-05
2.9177e-05
2.96125e-05
2.992e-05
3.01267e-05
3.02586e-05
3.03368e-05
3.03796e-05
3.03992e-05
3.03994e-05
3.03917e-05
3.03778e-05
3.03617e-05
3.034e-05
3.03141e-05
3.02864e-05
3.02565e-05
3.02247e-05
3.01927e-05
3.01615e-05
3.01307e-05
3.01005e-05
3.0071e-05
3.00421e-05
3.00138e-05
2.99861e-05
2.99591e-05
2.99326e-05
2.99069e-05
2.98818e-05
2.98576e-05
2.98343e-05
1.58956e-05
1.63255e-05
1.68371e-05
1.74375e-05
1.81309e-05
1.89177e-05
1.97942e-05
2.07523e-05
2.17779e-05
2.285e-05
2.39442e-05
2.50362e-05
2.60975e-05
2.70905e-05
2.79748e-05
2.87187e-05
2.93092e-05
2.97533e-05
3.00709e-05
3.02872e-05
3.04273e-05
3.0512e-05
3.05589e-05
3.05812e-05
3.05838e-05
3.05764e-05
3.05618e-05
3.05444e-05
3.05239e-05
3.04973e-05
3.0469e-05
3.04391e-05
3.04066e-05
3.03733e-05
3.03405e-05
3.03082e-05
3.02762e-05
3.0245e-05
3.02144e-05
3.01843e-05
3.01548e-05
3.01258e-05
3.00974e-05
3.00696e-05
3.00424e-05
3.00159e-05
2.99901e-05
2.9965e-05
2.9941e-05
2.99177e-05
1.77198e-05
1.84306e-05
1.92293e-05
2.01109e-05
2.10668e-05
2.2083e-05
2.31391e-05
2.42117e-05
2.52787e-05
2.6314e-05
2.72836e-05
2.815e-05
2.88831e-05
2.94697e-05
2.99151e-05
3.0237e-05
3.04588e-05
3.06042e-05
3.06932e-05
3.07433e-05
3.07676e-05
3.0772e-05
3.07648e-05
3.07499e-05
3.07313e-05
3.07108e-05
3.06841e-05
3.06549e-05
3.06244e-05
3.05915e-05
3.05571e-05
3.05229e-05
3.04892e-05
3.04558e-05
3.04229e-05
3.03907e-05
3.03589e-05
3.03276e-05
3.02969e-05
3.02667e-05
3.0237e-05
3.02079e-05
3.01793e-05
3.01514e-05
3.01242e-05
3.00976e-05
3.00718e-05
3.00468e-05
3.00229e-05
2.99998e-05
2.0489e-05
2.14438e-05
2.2451e-05
2.34906e-05
2.45406e-05
2.55808e-05
2.65872e-05
2.75288e-05
2.83707e-05
2.90853e-05
2.96601e-05
3.00996e-05
3.04199e-05
3.06426e-05
3.07901e-05
3.08813e-05
3.09333e-05
3.09588e-05
3.0964e-05
3.0957e-05
3.0942e-05
3.0922e-05
3.09006e-05
3.08744e-05
3.08442e-05
3.08129e-05
3.07798e-05
3.07444e-05
3.07088e-05
3.06738e-05
3.0639e-05
3.06044e-05
3.05706e-05
3.05373e-05
3.05044e-05
3.0472e-05
3.04401e-05
3.04086e-05
3.03776e-05
3.03472e-05
3.03174e-05
3.02881e-05
3.02595e-05
3.02315e-05
3.02042e-05
3.01777e-05
3.01521e-05
3.01272e-05
3.01034e-05
3.00806e-05
2.39047e-05
2.49304e-05
2.59415e-05
2.69159e-05
2.78246e-05
2.8636e-05
2.9325e-05
2.98807e-05
3.03075e-05
3.06204e-05
3.08396e-05
3.09858e-05
3.10768e-05
3.11291e-05
3.11547e-05
3.116e-05
3.11531e-05
3.11376e-05
3.11162e-05
3.10936e-05
3.10676e-05
3.10364e-05
3.10044e-05
3.09709e-05
3.09348e-05
3.0898e-05
3.08616e-05
3.08255e-05
3.07896e-05
3.07542e-05
3.07194e-05
3.06849e-05
3.06509e-05
3.06173e-05
3.05842e-05
3.05516e-05
3.05194e-05
3.04877e-05
3.04566e-05
3.0426e-05
3.0396e-05
3.03666e-05
3.0338e-05
3.031e-05
3.02828e-05
3.02564e-05
3.02308e-05
3.02062e-05
3.01826e-05
3.01601e-05
2.72978e-05
2.81691e-05
2.8944e-05
2.96008e-05
3.01306e-05
3.05385e-05
3.08387e-05
3.105e-05
3.11916e-05
3.12801e-05
3.1331e-05
3.13558e-05
3.13603e-05
3.13529e-05
3.13364e-05
3.13142e-05
3.12902e-05
3.12637e-05
3.12318e-05
3.11987e-05
3.11646e-05
3.1128e-05
3.10902e-05
3.10525e-05
3.10152e-05
3.0978e-05
3.09411e-05
3.09049e-05
3.08689e-05
3.08334e-05
3.07983e-05
3.07636e-05
3.07293e-05
3.06955e-05
3.06621e-05
3.06292e-05
3.05968e-05
3.05649e-05
3.05336e-05
3.05029e-05
3.04729e-05
3.04435e-05
3.04148e-05
3.03869e-05
3.03598e-05
3.03335e-05
3.03082e-05
3.02837e-05
3.02605e-05
3.02383e-05
2.99102e-05
3.04081e-05
3.07915e-05
3.10742e-05
3.12736e-05
3.14076e-05
3.14912e-05
3.15391e-05
3.1562e-05
3.15649e-05
3.15565e-05
3.15389e-05
3.15155e-05
3.149e-05
3.14623e-05
3.14305e-05
3.13961e-05
3.13611e-05
3.1324e-05
3.12852e-05
3.12464e-05
3.12079e-05
3.11694e-05
3.11312e-05
3.10935e-05
3.10563e-05
3.10193e-05
3.09827e-05
3.09466e-05
3.09107e-05
3.08753e-05
3.08403e-05
3.08058e-05
3.07717e-05
3.0738e-05
3.07049e-05
3.06723e-05
3.06403e-05
3.06089e-05
3.05782e-05
3.05481e-05
3.05187e-05
3.04901e-05
3.04623e-05
3.04353e-05
3.04092e-05
3.03841e-05
3.036e-05
3.0337e-05
3.03152e-05
3.13255e-05
3.15096e-05
3.16331e-05
3.17099e-05
3.17533e-05
3.17732e-05
3.17734e-05
3.17638e-05
3.17448e-05
3.17202e-05
3.16931e-05
3.1664e-05
3.16317e-05
3.15962e-05
3.15602e-05
3.15226e-05
3.14829e-05
3.1443e-05
3.14034e-05
3.13638e-05
3.13243e-05
3.12853e-05
3.12467e-05
3.12083e-05
3.11704e-05
3.11328e-05
3.10956e-05
3.10587e-05
3.10221e-05
3.0986e-05
3.09503e-05
3.0915e-05
3.08802e-05
3.08458e-05
3.0812e-05
3.07787e-05
3.0746e-05
3.07139e-05
3.06825e-05
3.06517e-05
3.06216e-05
3.05923e-05
3.05638e-05
3.05361e-05
3.05093e-05
3.04835e-05
3.04586e-05
3.04348e-05
3.04122e-05
3.03908e-05
3.19356e-05
3.19732e-05
3.19886e-05
3.19865e-05
3.19747e-05
3.19539e-05
3.19274e-05
3.1899e-05
3.18688e-05
3.18355e-05
3.17989e-05
3.17619e-05
3.17236e-05
3.16832e-05
3.16422e-05
3.16014e-05
3.15608e-05
3.15201e-05
3.14799e-05
3.14401e-05
3.14004e-05
3.13611e-05
3.13222e-05
3.12836e-05
3.12453e-05
3.12073e-05
3.11697e-05
3.11325e-05
3.10956e-05
3.10592e-05
3.10232e-05
3.09877e-05
3.09527e-05
3.09181e-05
3.08842e-05
3.08508e-05
3.0818e-05
3.07858e-05
3.07544e-05
3.07236e-05
3.06936e-05
3.06644e-05
3.0636e-05
3.06085e-05
3.05819e-05
3.05563e-05
3.05317e-05
3.05082e-05
3.0486e-05
3.0465e-05
3.22034e-05
3.21887e-05
3.21657e-05
3.21377e-05
3.21079e-05
3.20762e-05
3.20412e-05
3.20043e-05
3.1966e-05
3.19268e-05
3.18857e-05
3.18437e-05
3.18019e-05
3.17603e-05
3.17186e-05
3.16771e-05
3.16361e-05
3.15953e-05
3.15547e-05
3.15145e-05
3.14746e-05
3.14349e-05
3.13956e-05
3.13566e-05
3.1318e-05
3.12797e-05
3.12417e-05
3.12042e-05
3.11671e-05
3.11304e-05
3.10942e-05
3.10584e-05
3.10232e-05
3.09886e-05
3.09545e-05
3.0921e-05
3.08882e-05
3.0856e-05
3.08246e-05
3.07939e-05
3.0764e-05
3.07349e-05
3.07066e-05
3.06793e-05
3.0653e-05
3.06276e-05
3.06034e-05
3.05802e-05
3.05583e-05
3.05377e-05
3.23506e-05
3.23192e-05
3.2286e-05
3.22496e-05
3.22119e-05
3.21725e-05
3.2132e-05
3.20903e-05
3.20475e-05
3.20047e-05
3.19621e-05
3.19194e-05
3.18767e-05
3.18346e-05
3.17927e-05
3.1751e-05
3.17096e-05
3.16684e-05
3.16275e-05
3.15869e-05
3.15466e-05
3.15065e-05
3.14668e-05
3.14275e-05
3.13885e-05
3.13499e-05
3.13117e-05
3.12739e-05
3.12365e-05
3.11996e-05
3.11632e-05
3.11273e-05
3.1092e-05
3.10572e-05
3.10231e-05
3.09896e-05
3.09567e-05
3.09246e-05
3.08932e-05
3.08626e-05
3.08328e-05
3.08038e-05
3.07758e-05
3.07486e-05
3.07225e-05
3.06974e-05
3.06735e-05
3.06506e-05
3.06291e-05
3.06088e-05
3.2498e-05
3.24602e-05
3.24213e-05
3.23811e-05
3.23395e-05
3.2297e-05
3.22533e-05
3.22095e-05
3.2166e-05
3.21224e-05
3.20787e-05
3.20355e-05
3.19926e-05
3.19497e-05
3.19071e-05
3.18648e-05
3.18227e-05
3.17809e-05
3.17393e-05
3.1698e-05
3.1657e-05
3.16163e-05
3.15759e-05
3.15359e-05
3.14962e-05
3.14569e-05
3.1418e-05
3.13796e-05
3.13416e-05
3.1304e-05
3.12669e-05
3.12304e-05
3.11944e-05
3.1159e-05
3.11241e-05
3.109e-05
3.10564e-05
3.10236e-05
3.09915e-05
3.09602e-05
3.09296e-05
3.09e-05
3.08711e-05
3.08433e-05
3.08164e-05
3.07905e-05
3.07656e-05
3.07419e-05
3.07193e-05
3.06981e-05
3.06781e-05
3.25915e-05
3.25488e-05
3.25053e-05
3.2461e-05
3.24163e-05
3.23719e-05
3.23274e-05
3.22827e-05
3.22385e-05
3.21946e-05
3.21506e-05
3.2107e-05
3.20636e-05
3.20204e-05
3.19774e-05
3.19347e-05
3.18922e-05
3.18499e-05
3.1808e-05
3.17663e-05
3.17249e-05
3.16839e-05
3.16432e-05
3.16029e-05
3.15629e-05
3.15234e-05
3.14842e-05
3.14456e-05
3.14073e-05
3.13696e-05
3.13324e-05
3.12958e-05
3.12597e-05
3.12242e-05
3.11893e-05
3.11551e-05
3.11216e-05
3.10888e-05
3.10568e-05
3.10255e-05
3.09951e-05
3.09655e-05
3.09368e-05
3.09091e-05
3.08824e-05
3.08567e-05
3.08321e-05
3.08086e-05
3.07862e-05
3.07652e-05
3.07454e-05
3.27154e-05
3.26703e-05
3.26248e-05
3.25793e-05
3.25341e-05
3.24886e-05
3.24434e-05
3.23986e-05
3.23536e-05
3.23089e-05
3.22646e-05
3.22203e-05
3.21762e-05
3.21324e-05
3.20887e-05
3.20453e-05
3.20022e-05
3.19593e-05
3.19167e-05
3.18744e-05
3.18324e-05
3.17907e-05
3.17493e-05
3.17084e-05
3.16678e-05
3.16276e-05
3.15878e-05
3.15485e-05
3.15097e-05
3.14713e-05
3.14334e-05
3.13961e-05
3.13594e-05
3.13232e-05
3.12877e-05
3.12528e-05
3.12186e-05
3.11851e-05
3.11523e-05
3.11203e-05
3.10891e-05
3.10588e-05
3.10293e-05
3.10008e-05
3.09732e-05
3.09466e-05
3.09211e-05
3.08966e-05
3.08733e-05
3.08511e-05
3.08303e-05
3.08106e-05
3.27885e-05
3.27424e-05
3.26961e-05
3.265e-05
3.26043e-05
3.25585e-05
3.25128e-05
3.24675e-05
3.24222e-05
3.23771e-05
3.23323e-05
3.22876e-05
3.22431e-05
3.21988e-05
3.21548e-05
3.2111e-05
3.20675e-05
3.20243e-05
3.19813e-05
3.19387e-05
3.18964e-05
3.18544e-05
3.18128e-05
3.17716e-05
3.17308e-05
3.16904e-05
3.16504e-05
3.16109e-05
3.15719e-05
3.15334e-05
3.14955e-05
3.14581e-05
3.14212e-05
3.1385e-05
3.13494e-05
3.13145e-05
3.12803e-05
3.12468e-05
3.12141e-05
3.11821e-05
3.1151e-05
3.11207e-05
3.10913e-05
3.10628e-05
3.10354e-05
3.10089e-05
3.09834e-05
3.09591e-05
3.09358e-05
3.09138e-05
3.0893e-05
3.08734e-05
3.28581e-05
3.28115e-05
3.27649e-05
3.27184e-05
3.26721e-05
3.2626e-05
3.25799e-05
3.25341e-05
3.24884e-05
3.24429e-05
3.23976e-05
3.23525e-05
3.23077e-05
3.2263e-05
3.22186e-05
3.21745e-05
3.21306e-05
3.20871e-05
3.20438e-05
3.20009e-05
3.19583e-05
3.19161e-05
3.18743e-05
3.18328e-05
3.17918e-05
3.17512e-05
3.17111e-05
3.16715e-05
3.16324e-05
3.15937e-05
3.15557e-05
3.15182e-05
3.14813e-05
3.1445e-05
3.14094e-05
3.13745e-05
3.13402e-05
3.13067e-05
3.1274e-05
3.1242e-05
3.12109e-05
3.11807e-05
3.11513e-05
3.11229e-05
3.10955e-05
3.1069e-05
3.10436e-05
3.10193e-05
3.09961e-05
3.0974e-05
3.09532e-05
3.09336e-05
3.29254e-05
3.28783e-05
3.28313e-05
3.27844e-05
3.27377e-05
3.26911e-05
3.26446e-05
3.25984e-05
3.25523e-05
3.25064e-05
3.24607e-05
3.24152e-05
3.237e-05
3.2325e-05
3.22803e-05
3.22358e-05
3.21917e-05
3.21478e-05
3.21043e-05
3.20611e-05
3.20183e-05
3.19759e-05
3.19338e-05
3.18922e-05
3.1851e-05
3.18103e-05
3.177e-05
3.17302e-05
3.1691e-05
3.16522e-05
3.16141e-05
3.15765e-05
3.15395e-05
3.15032e-05
3.14675e-05
3.14325e-05
3.13983e-05
3.13647e-05
3.1332e-05
3.13e-05
3.12689e-05
3.12386e-05
3.12093e-05
3.11808e-05
3.11533e-05
3.11269e-05
3.11014e-05
3.1077e-05
3.10537e-05
3.10316e-05
3.10106e-05
3.09908e-05
3.29903e-05
3.29428e-05
3.28953e-05
3.2848e-05
3.28008e-05
3.27538e-05
3.2707e-05
3.26603e-05
3.26139e-05
3.25676e-05
3.25215e-05
3.24757e-05
3.24302e-05
3.23849e-05
3.23398e-05
3.22951e-05
3.22507e-05
3.22066e-05
3.21628e-05
3.21194e-05
3.20764e-05
3.20337e-05
3.19915e-05
3.19497e-05
3.19083e-05
3.18674e-05
3.1827e-05
3.17871e-05
3.17477e-05
3.17089e-05
3.16707e-05
3.1633e-05
3.15959e-05
3.15595e-05
3.15238e-05
3.14887e-05
3.14543e-05
3.14207e-05
3.13879e-05
3.13559e-05
3.13247e-05
3.12943e-05
3.12649e-05
3.12364e-05
3.12088e-05
3.11822e-05
3.11566e-05
3.1132e-05
3.11086e-05
3.10862e-05
3.1065e-05
3.10449e-05
3.30528e-05
3.30048e-05
3.29569e-05
3.29092e-05
3.28616e-05
3.28143e-05
3.27671e-05
3.272e-05
3.26732e-05
3.26266e-05
3.25802e-05
3.25341e-05
3.24883e-05
3.24427e-05
3.23974e-05
3.23524e-05
3.23077e-05
3.22634e-05
3.22194e-05
3.21758e-05
3.21325e-05
3.20897e-05
3.20473e-05
3.20053e-05
3.19638e-05
3.19228e-05
3.18822e-05
3.18422e-05
3.18027e-05
3.17637e-05
3.17253e-05
3.16875e-05
3.16503e-05
3.16138e-05
3.1578e-05
3.15428e-05
3.15083e-05
3.14746e-05
3.14417e-05
3.14095e-05
3.13782e-05
3.13477e-05
3.13181e-05
3.12894e-05
3.12616e-05
3.12348e-05
3.12089e-05
3.11841e-05
3.11604e-05
3.11377e-05
3.11161e-05
3.10956e-05
3.31129e-05
3.30645e-05
3.30162e-05
3.29681e-05
3.29202e-05
3.28725e-05
3.28249e-05
3.27776e-05
3.27304e-05
3.26835e-05
3.26369e-05
3.25905e-05
3.25443e-05
3.24985e-05
3.2453e-05
3.24077e-05
3.23628e-05
3.23183e-05
3.22741e-05
3.22303e-05
3.21868e-05
3.21438e-05
3.21012e-05
3.20591e-05
3.20174e-05
3.19762e-05
3.19355e-05
3.18953e-05
3.18556e-05
3.18165e-05
3.1778e-05
3.174e-05
3.17027e-05
3.1666e-05
3.163e-05
3.15947e-05
3.15601e-05
3.15262e-05
3.1493e-05
3.14607e-05
3.14291e-05
3.13984e-05
3.13686e-05
3.13396e-05
3.13115e-05
3.12844e-05
3.12582e-05
3.1233e-05
3.12088e-05
3.11857e-05
3.11636e-05
3.11425e-05
3.31219e-05
3.30733e-05
3.30249e-05
3.29766e-05
3.29285e-05
3.28807e-05
3.2833e-05
3.27856e-05
3.27384e-05
3.26915e-05
3.26448e-05
3.25985e-05
3.25524e-05
3.25066e-05
3.24611e-05
3.2416e-05
3.23713e-05
3.23269e-05
3.22828e-05
3.22392e-05
3.2196e-05
3.21532e-05
3.21109e-05
3.2069e-05
3.20276e-05
3.19868e-05
3.19464e-05
3.19065e-05
3.18672e-05
3.18285e-05
3.17904e-05
3.17529e-05
3.1716e-05
3.16798e-05
3.16442e-05
3.16094e-05
3.15752e-05
3.15418e-05
3.15092e-05
3.14774e-05
3.14463e-05
3.14161e-05
3.13868e-05
3.13583e-05
3.13308e-05
3.13042e-05
3.12785e-05
3.12537e-05
3.123e-05
3.12073e-05
3.11855e-05
3.31771e-05
3.31282e-05
3.30794e-05
3.30309e-05
3.29825e-05
3.29344e-05
3.28865e-05
3.28388e-05
3.27913e-05
3.27442e-05
3.26972e-05
3.26506e-05
3.26043e-05
3.25583e-05
3.25126e-05
3.24673e-05
3.24223e-05
3.23777e-05
3.23335e-05
3.22897e-05
3.22462e-05
3.22033e-05
3.21607e-05
3.21187e-05
3.20771e-05
3.2036e-05
3.19954e-05
3.19553e-05
3.19158e-05
3.18769e-05
3.18385e-05
3.18007e-05
3.17636e-05
3.17271e-05
3.16913e-05
3.16561e-05
3.16216e-05
3.15879e-05