/*--------------------------------*- C++ -*----------------------------------*\
| =========                 |                                                 |
| \\      /  F ield         | OpenFOAM: The Open Source CFD Toolbox           |
|  \\    /   O peration     | Version:  v1706                                 |
|   \\  /    A nd           | Web:      www.OpenFOAM.com                      |
|    \\/     M anipulation  |                                                 |
\*---------------------------------------------------------------------------*/
FoamFile
{
    version     2.0;
    format      ascii;
    class       volScalarField;
    location    "3.1e-05";
    object      kappave;
}
// * * * * * * * * * * * * * * * * * * * * * * * * * * * * * * * * * * * * * //

dimensions      [1 1 -3 -1 0 0 0];


internalField   nonuniform List<scalar> 
30038
(
1.46038e-10
1.46038e-10
1.46038e-10
1.46038e-10
1.46038e-10
1.46038e-10
1.46038e-10
1.46038e-10
1.46038e-10
1.46038e-10
1.46038e-10
1.46038e-10
1.46038e-10
1.46038e-10
1.46038e-10
1.46038e-10
1.46038e-10
1.46038e-10
1.46038e-10
1.46038e-10
1.46038e-10
1.46038e-10
1.46038e-10
1.46038e-10
1.46038e-10
1.46038e-10
1.46038e-10
1.46038e-10
1.46038e-10
1.46038e-10
1.46038e-10
1.46038e-10
1.46038e-10
1.46038e-10
1.46038e-10
1.46038e-10
1.46038e-10
1.46038e-10
1.46038e-10
1.46038e-10
1.46038e-10
1.46038e-10
1.46038e-10
1.46038e-10
1.46038e-10
1.46038e-10
1.46038e-10
1.46038e-10
1.46038e-10
1.46038e-10
1.46038e-10
1.46038e-10
1.46038e-10
1.46038e-10
1.46038e-10
1.46038e-10
1.46038e-10
1.46038e-10
1.46038e-10
1.46038e-10
1.46038e-10
1.46038e-10
1.46038e-10
1.46038e-10
1.46038e-10
1.46038e-10
1.46038e-10
1.46038e-10
1.46038e-10
1.46038e-10
1.46038e-10
1.46038e-10
1.46038e-10
1.46038e-10
1.46038e-10
1.46038e-10
1.46038e-10
1.46038e-10
1.46038e-10
1.46038e-10
1.46038e-10
1.46038e-10
1.46038e-10
1.46038e-10
1.46038e-10
1.46038e-10
1.46038e-10
1.46038e-10
1.46038e-10
1.46038e-10
1.46038e-10
1.46038e-10
1.46038e-10
1.46038e-10
1.46038e-10
1.46038e-10
1.46038e-10
1.46038e-10
1.46038e-10
1.46038e-10
1.46038e-10
1.46038e-10
1.46038e-10
1.46038e-10
1.46038e-10
1.46038e-10
1.46038e-10
1.46038e-10
1.46038e-10
1.46038e-10
1.46038e-10
1.46038e-10
1.46038e-10
1.46038e-10
1.46038e-10
1.46038e-10
1.46038e-10
1.46038e-10
1.46038e-10
1.46038e-10
1.46038e-10
1.46038e-10
1.46038e-10
1.46038e-10
1.46038e-10
1.46038e-10
1.46038e-10
1.46038e-10
1.46038e-10
1.46038e-10
1.46038e-10
1.46038e-10
1.46038e-10
1.46038e-10
1.46038e-10
1.46038e-10
1.46038e-10
1.46038e-10
1.46038e-10
1.46038e-10
1.46038e-10
1.46038e-10
1.46038e-10
1.46038e-10
1.46038e-10
1.46038e-10
1.46038e-10
1.46038e-10
1.46038e-10
1.46038e-10
1.46038e-10
1.46038e-10
1.46038e-10
1.46038e-10
1.46038e-10
1.46038e-10
1.46038e-10
1.46038e-10
1.46038e-10
1.46038e-10
1.46038e-10
1.46038e-10
1.46038e-10
1.46038e-10
1.46038e-10
1.46038e-10
1.46038e-10
1.46038e-10
1.46038e-10
1.46038e-10
1.46038e-10
1.46038e-10
1.46038e-10
1.46038e-10
1.46038e-10
1.46038e-10
1.46038e-10
1.46038e-10
1.46038e-10
1.46038e-10
1.46038e-10
1.46038e-10
1.46038e-10
1.46038e-10
1.46038e-10
1.46038e-10
1.46038e-10
1.46038e-10
1.46038e-10
1.46038e-10
1.46038e-10
1.46038e-10
1.46038e-10
1.46038e-10
1.46038e-10
1.46038e-10
1.46038e-10
1.46038e-10
1.46038e-10
1.46038e-10
1.46038e-10
1.46038e-10
1.46038e-10
1.46038e-10
1.46038e-10
1.46038e-10
1.46038e-10
1.46038e-10
1.46038e-10
1.46038e-10
1.46038e-10
1.46038e-10
1.46038e-10
1.46038e-10
1.46038e-10
1.46038e-10
1.46038e-10
1.46038e-10
1.46038e-10
1.46038e-10
1.46038e-10
1.46038e-10
1.46038e-10
1.46038e-10
1.46038e-10
1.46038e-10
1.46038e-10
1.46038e-10
1.46038e-10
1.46038e-10
1.46038e-10
1.46038e-10
1.46038e-10
1.46038e-10
1.46038e-10
1.46038e-10
1.46038e-10
1.46038e-10
1.46038e-10
1.46038e-10
1.46038e-10
1.46038e-10
1.46038e-10
1.46038e-10
1.46038e-10
1.46038e-10
1.46038e-10
1.46038e-10
1.46038e-10
1.46038e-10
1.46038e-10
1.46038e-10
1.46038e-10
1.46038e-10
1.46038e-10
1.46038e-10
1.46038e-10
1.46038e-10
1.46038e-10
1.46038e-10
1.46038e-10
1.46038e-10
1.46038e-10
1.46038e-10
1.46038e-10
1.46038e-10
1.46038e-10
1.46038e-10
1.46038e-10
1.46038e-10
1.46038e-10
1.46038e-10
1.46038e-10
1.46038e-10
1.46038e-10
1.46038e-10
1.46038e-10
1.46038e-10
1.46038e-10
1.46038e-10
1.46038e-10
1.46038e-10
1.46038e-10
1.46038e-10
1.46038e-10
1.46038e-10
1.46038e-10
1.46038e-10
1.46038e-10
1.46038e-10
1.46038e-10
1.46038e-10
1.46038e-10
1.46038e-10
1.46038e-10
1.46038e-10
1.46038e-10
1.46038e-10
1.46038e-10
1.46038e-10
1.46038e-10
1.46038e-10
1.46038e-10
1.46039e-10
1.46038e-10
1.46038e-10
1.46038e-10
1.46038e-10
1.46038e-10
1.46038e-10
1.46038e-10
1.46038e-10
1.46038e-10
1.46038e-10
1.46038e-10
1.46038e-10
1.46038e-10
1.46038e-10
1.46038e-10
1.46038e-10
1.46038e-10
1.46038e-10
1.46038e-10
1.46038e-10
1.46038e-10
1.46038e-10
1.46038e-10
1.46038e-10
1.46038e-10
1.46038e-10
1.46038e-10
1.46038e-10
1.46038e-10
1.46038e-10
1.46038e-10
1.46038e-10
1.46038e-10
1.46038e-10
1.46038e-10
1.46039e-10
1.46039e-10
1.4604e-10
1.46041e-10
1.46038e-10
1.46038e-10
1.46038e-10
1.46038e-10
1.46038e-10
1.46038e-10
1.46038e-10
1.46038e-10
1.46038e-10
1.46038e-10
1.46038e-10
1.46038e-10
1.46038e-10
1.46038e-10
1.46038e-10
1.46038e-10
1.46038e-10
1.46038e-10
1.46038e-10
1.46038e-10
1.46038e-10
1.46038e-10
1.46038e-10
1.46038e-10
1.46038e-10
1.46038e-10
1.46038e-10
1.46038e-10
1.46038e-10
1.46038e-10
1.46038e-10
1.46038e-10
1.46038e-10
1.46039e-10
1.46039e-10
1.4604e-10
1.46041e-10
1.46043e-10
1.46046e-10
1.46038e-10
1.46038e-10
1.46038e-10
1.46038e-10
1.46038e-10
1.46038e-10
1.46038e-10
1.46038e-10
1.46038e-10
1.46038e-10
1.46038e-10
1.46038e-10
1.46038e-10
1.46038e-10
1.46038e-10
1.46038e-10
1.46038e-10
1.46038e-10
1.46038e-10
1.46038e-10
1.46038e-10
1.46038e-10
1.46038e-10
1.46038e-10
1.46038e-10
1.46038e-10
1.46038e-10
1.46038e-10
1.46038e-10
1.46038e-10
1.46039e-10
1.46039e-10
1.4604e-10
1.46041e-10
1.46043e-10
1.46045e-10
1.46049e-10
1.46055e-10
1.46063e-10
1.46038e-10
1.46038e-10
1.46038e-10
1.46038e-10
1.46038e-10
1.46038e-10
1.46038e-10
1.46038e-10
1.46038e-10
1.46038e-10
1.46038e-10
1.46038e-10
1.46038e-10
1.46038e-10
1.46038e-10
1.46038e-10
1.46038e-10
1.46038e-10
1.46038e-10
1.46038e-10
1.46038e-10
1.46038e-10
1.46038e-10
1.46038e-10
1.46038e-10
1.46038e-10
1.46038e-10
1.46038e-10
1.46039e-10
1.46039e-10
1.4604e-10
1.46041e-10
1.46043e-10
1.46045e-10
1.46048e-10
1.46053e-10
1.4606e-10
1.46071e-10
1.46087e-10
1.46111e-10
1.46038e-10
1.46038e-10
1.46038e-10
1.46038e-10
1.46038e-10
1.46038e-10
1.46038e-10
1.46038e-10
1.46038e-10
1.46038e-10
1.46038e-10
1.46038e-10
1.46038e-10
1.46038e-10
1.46038e-10
1.46038e-10
1.46038e-10
1.46038e-10
1.46038e-10
1.46038e-10
1.46038e-10
1.46038e-10
1.46038e-10
1.46038e-10
1.46038e-10
1.46039e-10
1.46039e-10
1.4604e-10
1.46041e-10
1.46043e-10
1.46045e-10
1.46048e-10
1.46052e-10
1.46059e-10
1.46069e-10
1.46083e-10
1.46104e-10
1.46134e-10
1.4618e-10
1.46248e-10
1.46038e-10
1.46038e-10
1.46038e-10
1.46038e-10
1.46038e-10
1.46038e-10
1.46038e-10
1.46038e-10
1.46038e-10
1.46038e-10
1.46038e-10
1.46038e-10
1.46038e-10
1.46038e-10
1.46038e-10
1.46038e-10
1.46038e-10
1.46038e-10
1.46038e-10
1.46038e-10
1.46038e-10
1.46038e-10
1.46039e-10
1.46039e-10
1.4604e-10
1.46041e-10
1.46042e-10
1.46045e-10
1.46047e-10
1.46052e-10
1.46058e-10
1.46067e-10
1.4608e-10
1.46099e-10
1.46127e-10
1.46167e-10
1.46226e-10
1.46312e-10
1.4644e-10
1.4663e-10
1.46038e-10
1.46038e-10
1.46038e-10
1.46038e-10
1.46038e-10
1.46038e-10
1.46038e-10
1.46038e-10
1.46038e-10
1.46038e-10
1.46038e-10
1.46038e-10
1.46038e-10
1.46038e-10
1.46038e-10
1.46038e-10
1.46038e-10
1.46038e-10
1.46039e-10
1.46039e-10
1.46039e-10
1.4604e-10
1.46041e-10
1.46042e-10
1.46044e-10
1.46047e-10
1.46051e-10
1.46057e-10
1.46066e-10
1.46078e-10
1.46096e-10
1.46121e-10
1.46158e-10
1.46211e-10
1.46289e-10
1.46401e-10
1.46565e-10
1.46804e-10
1.47154e-10
1.47668e-10
1.46038e-10
1.46038e-10
1.46038e-10
1.46038e-10
1.46038e-10
1.46038e-10
1.46038e-10
1.46038e-10
1.46038e-10
1.46038e-10
1.46038e-10
1.46038e-10
1.46038e-10
1.46038e-10
1.46038e-10
1.46039e-10
1.46039e-10
1.46039e-10
1.4604e-10
1.46041e-10
1.46043e-10
1.46045e-10
1.46047e-10
1.46051e-10
1.46057e-10
1.46065e-10
1.46077e-10
1.46094e-10
1.46118e-10
1.46152e-10
1.46201e-10
1.46272e-10
1.46375e-10
1.46522e-10
1.46735e-10
1.47042e-10
1.47485e-10
1.48126e-10
1.49053e-10
1.50391e-10
1.46038e-10
1.46038e-10
1.46038e-10
1.46038e-10
1.46038e-10
1.46038e-10
1.46038e-10
1.46038e-10
1.46038e-10
1.46038e-10
1.46038e-10
1.46038e-10
1.46039e-10
1.46039e-10
1.4604e-10
1.4604e-10
1.46041e-10
1.46043e-10
1.46045e-10
1.46048e-10
1.46052e-10
1.46057e-10
1.46065e-10
1.46077e-10
1.46093e-10
1.46116e-10
1.46148e-10
1.46195e-10
1.46261e-10
1.46355e-10
1.46491e-10
1.46684e-10
1.46962e-10
1.47359e-10
1.47928e-10
1.4874e-10
1.49899e-10
1.51543e-10
1.5386e-10
1.57093e-10
1.46038e-10
1.46038e-10
1.46038e-10
1.46038e-10
1.46038e-10
1.46038e-10
1.46038e-10
1.46038e-10
1.46038e-10
1.46039e-10
1.46039e-10
1.4604e-10
1.4604e-10
1.46042e-10
1.46043e-10
1.46045e-10
1.46048e-10
1.46052e-10
1.46058e-10
1.46066e-10
1.46077e-10
1.46093e-10
1.46115e-10
1.46146e-10
1.46191e-10
1.46253e-10
1.46342e-10
1.46469e-10
1.46648e-10
1.46903e-10
1.47266e-10
1.47781e-10
1.48512e-10
1.49546e-10
1.51003e-10
1.53042e-10
1.55869e-10
1.59739e-10
1.64938e-10
1.7175e-10
1.46038e-10
1.46038e-10
1.46038e-10
1.46038e-10
1.46038e-10
1.46038e-10
1.46039e-10
1.46039e-10
1.46039e-10
1.4604e-10
1.46041e-10
1.46042e-10
1.46043e-10
1.46046e-10
1.46049e-10
1.46053e-10
1.46059e-10
1.46067e-10
1.46078e-10
1.46093e-10
1.46115e-10
1.46146e-10
1.46189e-10
1.4625e-10
1.46335e-10
1.46455e-10
1.46624e-10
1.46863e-10
1.47199e-10
1.47674e-10
1.48342e-10
1.49282e-10
1.50598e-10
1.5243e-10
1.54958e-10
1.58406e-10
1.63032e-10
1.69111e-10
1.76895e-10
1.86548e-10
1.98046e-10
1.46038e-10
1.46038e-10
1.46038e-10
1.46039e-10
1.46039e-10
1.4604e-10
1.4604e-10
1.46041e-10
1.46042e-10
1.46044e-10
1.46046e-10
1.46049e-10
1.46054e-10
1.4606e-10
1.46068e-10
1.46079e-10
1.46095e-10
1.46117e-10
1.46148e-10
1.4619e-10
1.4625e-10
1.46333e-10
1.46448e-10
1.4661e-10
1.46837e-10
1.47155e-10
1.47599e-10
1.4822e-10
1.49088e-10
1.50296e-10
1.51967e-10
1.54264e-10
1.57386e-10
1.61569e-10
1.67067e-10
1.74122e-10
1.82918e-10
1.93515e-10
2.05801e-10
2.19437e-10
2.33909e-10
1.46039e-10
1.46039e-10
1.46039e-10
1.4604e-10
1.46041e-10
1.46041e-10
1.46043e-10
1.46045e-10
1.46047e-10
1.4605e-10
1.46055e-10
1.46061e-10
1.4607e-10
1.46082e-10
1.46098e-10
1.4612e-10
1.46151e-10
1.46194e-10
1.46253e-10
1.46335e-10
1.46449e-10
1.46606e-10
1.46825e-10
1.47129e-10
1.47552e-10
1.48139e-10
1.48953e-10
1.50078e-10
1.51626e-10
1.53743e-10
1.56608e-10
1.60439e-10
1.65471e-10
1.71939e-10
1.80038e-10
1.89865e-10
2.01363e-10
2.14281e-10
2.2818e-10
2.42412e-10
2.56069e-10
2.68292e-10
1.4604e-10
1.4604e-10
1.46041e-10
1.46042e-10
1.46043e-10
1.46045e-10
1.46048e-10
1.46052e-10
1.46057e-10
1.46063e-10
1.46073e-10
1.46085e-10
1.46102e-10
1.46125e-10
1.46157e-10
1.462e-10
1.4626e-10
1.46342e-10
1.46455e-10
1.46611e-10
1.46826e-10
1.47122e-10
1.47531e-10
1.48094e-10
1.48869e-10
1.49933e-10
1.51389e-10
1.53367e-10
1.56033e-10
1.59584e-10
1.64242e-10
1.7023e-10
1.77744e-10
1.86908e-10
1.97718e-10
2.10001e-10
2.23399e-10
2.37385e-10
2.51202e-10
2.63913e-10
2.74695e-10
2.83116e-10
2.89407e-10
1.46043e-10
1.46044e-10
1.46047e-10
1.4605e-10
1.46054e-10
1.46059e-10
1.46066e-10
1.46076e-10
1.46089e-10
1.46107e-10
1.46132e-10
1.46165e-10
1.4621e-10
1.46271e-10
1.46355e-10
1.46469e-10
1.46625e-10
1.46839e-10
1.47132e-10
1.47533e-10
1.48082e-10
1.48832e-10
1.49854e-10
1.51243e-10
1.53118e-10
1.55633e-10
1.58967e-10
1.63328e-10
1.68926e-10
1.75955e-10
1.84553e-10
1.94754e-10
2.06441e-10
2.19332e-10
2.32992e-10
2.46803e-10
2.59944e-10
2.71532e-10
2.80961e-10
2.88094e-10
2.93224e-10
2.96794e-10
2.99388e-10
1.46048e-10
1.46051e-10
1.46056e-10
1.46062e-10
1.4607e-10
1.4608e-10
1.46095e-10
1.46114e-10
1.4614e-10
1.46175e-10
1.46222e-10
1.46286e-10
1.46373e-10
1.4649e-10
1.4665e-10
1.46866e-10
1.4716e-10
1.47559e-10
1.48102e-10
1.48838e-10
1.49835e-10
1.51179e-10
1.52983e-10
1.55387e-10
1.58559e-10
1.6269e-10
1.6798e-10
1.74616e-10
1.82739e-10
1.92409e-10
2.03554e-10
2.15951e-10
2.29231e-10
2.42891e-10
2.56232e-10
2.68415e-10
2.78715e-10
2.86793e-10
2.92755e-10
2.96989e-10
2.99967e-10
3.02149e-10
3.0389e-10
3.05521e-10
1.46059e-10
1.46065e-10
1.46074e-10
1.46086e-10
1.46102e-10
1.46123e-10
1.46151e-10
1.46189e-10
1.46239e-10
1.46307e-10
1.46398e-10
1.4652e-10
1.46685e-10
1.46907e-10
1.47206e-10
1.4761e-10
1.48155e-10
1.48888e-10
1.49874e-10
1.51194e-10
1.52954e-10
1.55284e-10
1.5834e-10
1.62301e-10
1.67355e-10
1.7368e-10
1.81416e-10
1.90636e-10
2.01304e-10
2.1324e-10
2.2613e-10
2.39548e-10
2.52911e-10
2.65468e-10
2.76456e-10
2.85378e-10
2.92165e-10
2.97092e-10
3.00595e-10
3.03129e-10
3.0508e-10
3.06759e-10
3.08393e-10
3.10168e-10
3.12285e-10
1.4608e-10
1.46093e-10
1.46111e-10
1.46134e-10
1.46165e-10
1.46206e-10
1.4626e-10
1.46333e-10
1.4643e-10
1.46559e-10
1.46732e-10
1.46964e-10
1.47273e-10
1.47688e-10
1.48242e-10
1.48984e-10
1.49972e-10
1.51287e-10
1.53028e-10
1.55316e-10
1.58299e-10
1.62143e-10
1.67025e-10
1.73113e-10
1.80545e-10
1.89395e-10
1.99652e-10
2.11171e-10
2.23686e-10
2.3682e-10
2.50086e-10
2.62833e-10
2.74319e-10
2.8395e-10
2.91498e-10
2.97113e-10
3.01165e-10
3.04097e-10
3.06315e-10
3.08153e-10
3.09867e-10
3.11655e-10
3.13639e-10
3.16011e-10
3.1893e-10
3.22587e-10
1.46102e-10
1.46122e-10
1.46148e-10
1.46183e-10
1.46228e-10
1.46288e-10
1.46367e-10
1.46471e-10
1.4661e-10
1.46794e-10
1.47039e-10
1.47363e-10
1.47795e-10
1.48368e-10
1.49128e-10
1.50134e-10
1.51462e-10
1.53206e-10
1.55484e-10
1.58432e-10
1.62207e-10
1.66975e-10
1.72895e-10
1.80096e-10
1.88653e-10
1.98568e-10
2.09728e-10
2.21894e-10
2.34733e-10
2.4783e-10
2.60623e-10
2.72432e-10
2.82621e-10
2.90838e-10
2.97101e-10
3.01705e-10
3.05058e-10
3.07575e-10
3.09605e-10
3.11432e-10
3.1327e-10
3.1528e-10
3.17593e-10
3.20411e-10
3.23808e-10
3.27911e-10
3.32946e-10
3.39326e-10
1.46205e-10
1.46256e-10
1.46322e-10
1.4641e-10
1.46524e-10
1.46675e-10
1.46874e-10
1.47136e-10
1.47481e-10
1.47936e-10
1.48537e-10
1.49326e-10
1.50364e-10
1.51723e-10
1.53495e-10
1.55791e-10
1.58741e-10
1.62493e-10
1.67201e-10
1.73014e-10
1.80053e-10
1.8839e-10
1.9803e-10
2.08883e-10
2.20737e-10
2.33293e-10
2.46178e-10
2.5892e-10
2.70906e-10
2.81504e-10
2.90274e-10
2.97122e-10
3.02254e-10
3.06034e-10
3.08868e-10
3.11119e-10
3.13084e-10
3.15006e-10
3.17061e-10
3.19363e-10
3.22129e-10
3.25474e-10
3.29478e-10
3.34319e-10
3.40206e-10
3.4736e-10
3.56106e-10
3.67091e-10
1.46291e-10
1.46366e-10
1.46464e-10
1.46591e-10
1.46758e-10
1.46975e-10
1.4726e-10
1.47632e-10
1.48119e-10
1.48756e-10
1.49588e-10
1.50673e-10
1.52082e-10
1.53904e-10
1.56247e-10
1.59235e-10
1.63006e-10
1.67704e-10
1.73468e-10
1.80409e-10
1.88593e-10
1.98024e-10
2.08625e-10
2.2021e-10
2.325e-10
2.4516e-10
2.57784e-10
2.6983e-10
2.80696e-10
2.899e-10
2.9725e-10
3.02865e-10
3.07059e-10
3.10216e-10
3.12705e-10
3.14831e-10
3.16858e-10
3.18975e-10
3.21319e-10
3.24062e-10
3.2737e-10
3.31332e-10
3.36083e-10
3.41822e-10
3.48763e-10
3.5714e-10
3.67263e-10
3.79497e-10
3.94318e-10
4.12687e-10
1.46676e-10
1.46862e-10
1.47103e-10
1.47416e-10
1.47823e-10
1.48351e-10
1.49036e-10
1.49924e-10
1.51072e-10
1.52551e-10
1.54449e-10
1.56869e-10
1.59929e-10
1.6376e-10
1.68497e-10
1.74265e-10
1.81167e-10
1.8926e-10
1.98543e-10
2.08947e-10
2.20305e-10
2.32354e-10
2.44788e-10
2.57251e-10
2.69269e-10
2.80286e-10
2.89802e-10
2.97559e-10
3.03597e-10
3.08175e-10
3.11649e-10
3.14381e-10
3.16688e-10
3.18836e-10
3.21042e-10
3.23447e-10
3.26209e-10
3.29505e-10
3.33465e-10
3.38175e-10
3.4383e-10
3.50641e-10
3.58824e-10
3.68658e-10
3.80474e-10
3.94643e-10
4.11592e-10
4.3185e-10
4.5613e-10
4.85867e-10
1.47615e-10
1.48065e-10
1.48644e-10
1.4939e-10
1.50349e-10
1.51579e-10
1.53151e-10
1.55151e-10
1.57678e-10
1.60846e-10
1.64779e-10
1.696e-10
1.75424e-10
1.82342e-10
1.90399e-10
1.9959e-10
2.09848e-10
2.21017e-10
2.32852e-10
2.45069e-10
2.57345e-10
2.69274e-10
2.80341e-10
2.90058e-10
2.98122e-10
3.04511e-10
3.09429e-10
3.13199e-10
3.16172e-10
3.1867e-10
3.20956e-10
3.23267e-10
3.25761e-10
3.28579e-10
3.319e-10
3.35873e-10
3.406e-10
3.46228e-10
3.52973e-10
3.61049e-10
3.70701e-10
3.82244e-10
3.96034e-10
4.12466e-10
4.32003e-10
4.55189e-10
4.8265e-10
5.15145e-10
5.53711e-10
6.00431e-10
1.49836e-10
1.50884e-10
1.52218e-10
1.53907e-10
1.56036e-10
1.58704e-10
1.62017e-10
1.66092e-10
1.71042e-10
1.76971e-10
1.83955e-10
1.92029e-10
2.01179e-10
2.11335e-10
2.22353e-10
2.33999e-10
2.46008e-10
2.58086e-10
2.69877e-10
2.80914e-10
2.90732e-10
2.99007e-10
3.05667e-10
3.10871e-10
3.14908e-10
3.18112e-10
3.20801e-10
3.2324e-10
3.25673e-10
3.28279e-10
3.31177e-10
3.34564e-10
3.38582e-10
3.43368e-10
3.49024e-10
3.55766e-10
3.6381e-10
3.73379e-10
3.84765e-10
3.9831e-10
4.14392e-10
4.3344e-10
4.55961e-10
4.82536e-10
5.13829e-10
5.50613e-10
5.93781e-10
6.44401e-10
7.03934e-10
7.75335e-10
1.5485e-10
1.57141e-10
1.59984e-10
1.63481e-10
1.6774e-10
1.72864e-10
1.78943e-10
1.8604e-10
1.94177e-10
2.03329e-10
2.13424e-10
2.24323e-10
2.35803e-10
2.47613e-10
2.59486e-10
2.71104e-10
2.82048e-10
2.91879e-10
3.00272e-10
3.07123e-10
3.12551e-10
3.16817e-10
3.20234e-10
3.2311e-10
3.25713e-10
3.28285e-10
3.31019e-10
3.34028e-10
3.37521e-10
3.41622e-10
3.46496e-10
3.52242e-10
3.59044e-10
3.67123e-10
3.767e-10
3.88036e-10
4.01462e-10
4.17342e-10
4.3608e-10
4.58151e-10
4.84101e-10
5.1455e-10
5.50216e-10
5.91918e-10
6.40592e-10
6.9731e-10
7.63307e-10
8.40054e-10
9.29567e-10
1.03594e-09
1.65287e-10
1.69772e-10
1.75113e-10
1.81385e-10
1.88637e-10
1.96876e-10
2.06068e-10
2.16136e-10
2.26941e-10
2.38274e-10
2.49892e-10
2.61552e-10
2.7297e-10
2.83769e-10
2.9354e-10
3.01967e-10
3.0893e-10
3.1452e-10
3.18971e-10
3.22575e-10
3.25632e-10
3.28404e-10
3.31129e-10
3.34008e-10
3.37166e-10
3.40794e-10
3.45021e-10
3.50015e-10
3.55909e-10
3.62832e-10
3.71018e-10
3.80689e-10
3.9208e-10
4.05507e-10
4.21324e-10
4.39917e-10
4.61731e-10
4.87287e-10
5.17168e-10
5.52044e-10
5.92681e-10
6.39951e-10
6.94848e-10
7.58501e-10
8.32192e-10
9.17379e-10
1.01573e-09
1.12924e-09
1.26062e-09
1.41543e-09
1.84352e-10
1.91795e-10
2.00169e-10
2.0943e-10
2.19495e-10
2.30227e-10
2.41423e-10
2.52851e-10
2.64292e-10
2.75489e-10
2.861e-10
2.95747e-10
3.04132e-10
3.11133e-10
3.16824e-10
3.21415e-10
3.25181e-10
3.28408e-10
3.3135e-10
3.34243e-10
3.3729e-10
3.40623e-10
3.44419e-10
3.4882e-10
3.53984e-10
3.60069e-10
3.6718e-10
3.75545e-10
3.85387e-10
3.96934e-10
4.10478e-10
4.26365e-10
4.44971e-10
4.66716e-10
4.92092e-10
5.21656e-10
5.56038e-10
5.9596e-10
6.42241e-10
6.95809e-10
7.57715e-10
8.29153e-10
9.11469e-10
1.00619e-09
1.11502e-09
1.23993e-09
1.38311e-09
1.54721e-09
1.73585e-09
1.95642e-09
2.13454e-10
2.23533e-10
2.34202e-10
2.45264e-10
2.56501e-10
2.67714e-10
2.78669e-10
2.89054e-10
2.98522e-10
3.06799e-10
3.13771e-10
3.19504e-10
3.24193e-10
3.28094e-10
3.3148e-10
3.34595e-10
3.37672e-10
3.40908e-10
3.44443e-10
3.48448e-10
3.53068e-10
3.58452e-10
3.64774e-10
3.7215e-10
3.80766e-10
3.90864e-10
4.02668e-10
4.16445e-10
4.32534e-10
4.51302e-10
4.73151e-10
4.9855e-10
5.28034e-10
5.622e-10
6.0173e-10
6.47398e-10
7.00077e-10
7.60755e-10
8.30548e-10
9.10712e-10
1.00266e-09
1.108e-09
1.22851e-09
1.36621e-09
1.52337e-09
1.70254e-09
1.9066e-09
2.13899e-09
2.40444e-09
2.71262e-09
2.49812e-10
2.6085e-10
2.71823e-10
2.82516e-10
2.92641e-10
3.01882e-10
3.09993e-10
3.16877e-10
3.22602e-10
3.27349e-10
3.31362e-10
3.34898e-10
3.3819e-10
3.41465e-10
3.44917e-10
3.48685e-10
3.52941e-10
3.57828e-10
3.63487e-10
3.70106e-10
3.77811e-10
3.86758e-10
3.97199e-10
4.0936e-10
4.2349e-10
4.39915e-10
4.58996e-10
4.81124e-10
5.06745e-10
5.36375e-10
5.70587e-10
6.10027e-10
6.55432e-10
7.0763e-10
7.67553e-10
8.3625e-10
9.14904e-10
1.00484e-09
1.10755e-09
1.22469e-09
1.35815e-09
1.51002e-09
1.68264e-09
1.87864e-09
2.10094e-09
2.35284e-09
2.63804e-09
2.96095e-09
3.32763e-09
3.75055e-09
2.87034e-10
2.96867e-10
3.05837e-10
3.13733e-10
3.20481e-10
3.26154e-10
3.30929e-10
3.35036e-10
3.38717e-10
3.42194e-10
3.45687e-10
3.49383e-10
3.53419e-10
3.57972e-10
3.63174e-10
3.69176e-10
3.76157e-10
3.84262e-10
3.93626e-10
4.04505e-10
4.17125e-10
4.31727e-10
4.48623e-10
4.6817e-10
4.9075e-10
5.16793e-10
5.46794e-10
5.81307e-10
6.20949e-10
6.66425e-10
7.18525e-10
7.78133e-10
8.46244e-10
9.23974e-10
1.01257e-09
1.11344e-09
1.22813e-09
1.35841e-09
1.50622e-09
1.67374e-09
1.86341e-09
2.07792e-09
2.32031e-09
2.59392e-09
2.90248e-09
3.25016e-09
3.64166e-09
4.08251e-09
4.58039e-09
5.15112e-09
3.18037e-10
3.24609e-10
3.30199e-10
3.34981e-10
3.39172e-10
3.43001e-10
3.46677e-10
3.50413e-10
3.54389e-10
3.58735e-10
3.63635e-10
3.69211e-10
3.75622e-10
3.8304e-10
3.91615e-10
4.01501e-10
4.12915e-10
4.26105e-10
4.41307e-10
4.58818e-10
4.78989e-10
5.02197e-10
5.28858e-10
5.59452e-10
5.94517e-10
6.3465e-10
6.80523e-10
7.32894e-10
7.92608e-10
8.60611e-10
9.37966e-10
1.02586e-09
1.1256e-09
1.23868e-09
1.36673e-09
1.51158e-09
1.67528e-09
1.86009e-09
2.06853e-09
2.3034e-09
2.56779e-09
2.86516e-09
3.19932e-09
3.57449e-09
3.99535e-09
4.4671e-09
4.99558e-09
5.58766e-09
6.25292e-09
7.01111e-09
3.3956e-10
3.43836e-10
3.47823e-10
3.51723e-10
3.55734e-10
3.60031e-10
3.64735e-10
3.70042e-10
3.76062e-10
3.82955e-10
3.90891e-10
4.00031e-10
4.10533e-10
4.22596e-10
4.36475e-10
4.52412e-10
4.70687e-10
4.91649e-10
5.1567e-10
5.43156e-10
5.74573e-10
6.10446e-10
6.51352e-10
6.97941e-10
7.50944e-10
8.11172e-10
8.79532e-10
9.57035e-10
1.04481e-09
1.14411e-09
1.25634e-09
1.38305e-09
1.52596e-09
1.68699e-09
1.86827e-09
2.07215e-09
2.30125e-09
2.55845e-09
2.84695e-09
3.17028e-09
3.53235e-09
3.93746e-09
4.39037e-09
4.89631e-09
5.46106e-09
6.09101e-09
6.79329e-09
7.57633e-09
8.45192e-09
9.44435e-09
3.57432e-10
3.61761e-10
3.66425e-10
3.71556e-10
3.77334e-10
3.83871e-10
3.91327e-10
3.99881e-10
4.09688e-10
4.20911e-10
4.33746e-10
4.4845e-10
4.65269e-10
4.84471e-10
5.06398e-10
5.31425e-10
5.59951e-10
5.9243e-10
6.29374e-10
6.71347e-10
7.18976e-10
7.7297e-10
8.34114e-10
9.03279e-10
9.81438e-10
1.06967e-09
1.16918e-09
1.28128e-09
1.40747e-09
1.54937e-09
1.7088e-09
1.88776e-09
2.08847e-09
2.31338e-09
2.56519e-09
2.84689e-09
3.16177e-09
3.51345e-09
3.90594e-09
4.34361e-09
4.83131e-09
5.37434e-09
5.97852e-09
6.65026e-09
7.39658e-09
8.22521e-09
9.14478e-09
1.01655e-08
1.13015e-08
1.25825e-08
3.79355e-10
3.85678e-10
3.9282e-10
4.00941e-10
4.10217e-10
4.20805e-10
4.32868e-10
4.4662e-10
4.62294e-10
4.80149e-10
5.00453e-10
5.2354e-10
5.49784e-10
5.7958e-10
6.13369e-10
6.51655e-10
6.94994e-10
7.43997e-10
7.99351e-10
8.61818e-10
9.32239e-10
1.01155e-09
1.1008e-09
1.20113e-09
1.31382e-09
1.44027e-09
1.58205e-09
1.74088e-09
1.91865e-09
2.11746e-09
2.33963e-09
2.58769e-09
2.86446e-09
3.17301e-09
3.51673e-09
3.89934e-09
4.32494e-09
4.79799e-09
5.32342e-09
5.9066e-09
6.55342e-09
7.27033e-09
8.06438e-09
8.94326e-09
9.9154e-09
1.099e-08
1.21774e-08
1.34897e-08
1.49439e-08
1.65756e-08
4.12032e-10
4.22151e-10
4.3365e-10
4.46697e-10
4.61514e-10
4.78323e-10
4.97391e-10
5.18993e-10
5.43448e-10
5.71132e-10
6.0244e-10
6.37805e-10
6.77726e-10
7.2275e-10
7.73472e-10
8.30562e-10
8.94765e-10
9.66899e-10
1.04787e-09
1.13869e-09
1.24046e-09
1.35442e-09
1.4819e-09
1.6244e-09
1.78357e-09
1.96122e-09
2.15934e-09
2.38011e-09
2.62595e-09
2.8995e-09
3.20365e-09
3.54161e-09
3.91684e-09
4.33317e-09
4.79478e-09
5.30624e-09
5.87255e-09
6.49916e-09
7.19203e-09
7.95765e-09
8.80311e-09
9.73612e-09
1.07651e-08
1.18991e-08
1.31482e-08
1.45233e-08
1.60363e-08
1.77017e-08
1.95394e-08
2.15918e-08
4.4855e-10
4.62741e-10
4.78791e-10
4.96925e-10
5.17402e-10
5.40511e-10
5.66565e-10
5.95938e-10
6.29027e-10
6.66257e-10
7.0812e-10
7.55161e-10
8.07964e-10
8.67187e-10
9.33559e-10
1.00788e-09
1.09102e-09
1.18398e-09
1.28781e-09
1.4037e-09
1.53297e-09
1.67703e-09
1.83747e-09
2.01602e-09
2.21457e-09
2.43523e-09
2.68027e-09
2.95219e-09
3.25375e-09
3.58795e-09
3.95807e-09
4.36769e-09
4.82074e-09
5.3215e-09
5.87462e-09
6.48518e-09
7.15873e-09
7.90127e-09
8.71937e-09
9.62013e-09
1.06113e-08
1.17013e-08
1.28992e-08
1.42149e-08
1.56591e-08
1.72434e-08
1.89805e-08
2.08845e-08
2.29718e-08
2.52661e-08
2.78168e-08
5.18562e-10
5.40673e-10
5.65523e-10
5.93432e-10
6.24763e-10
6.59922e-10
6.9933e-10
7.43475e-10
7.92895e-10
8.48169e-10
9.0994e-10
9.78929e-10
1.05592e-09
1.14177e-09
1.23743e-09
1.34396e-09
1.46248e-09
1.59428e-09
1.74073e-09
1.90334e-09
2.08379e-09
2.2839e-09
2.50565e-09
2.75125e-09
3.02306e-09
3.32371e-09
3.65603e-09
4.02314e-09
4.42841e-09
4.87554e-09
5.36855e-09
5.91181e-09
6.51007e-09
7.16851e-09
7.89273e-09
8.68881e-09
9.56338e-09
1.05236e-08
1.15772e-08
1.27326e-08
1.39988e-08
1.53858e-08
1.69041e-08
1.85653e-08
2.03816e-08
2.23665e-08
2.45346e-08
2.6902e-08
2.94876e-08
3.23188e-08
3.54528e-08
5.9465e-10
6.24694e-10
6.58287e-10
6.95835e-10
7.37765e-10
7.84554e-10
8.36743e-10
8.94905e-10
9.59675e-10
1.03177e-09
1.11194e-09
1.20105e-09
1.30002e-09
1.40989e-09
1.53175e-09
1.66684e-09
1.8165e-09
1.9822e-09
2.16554e-09
2.36829e-09
2.59234e-09
2.83981e-09
3.11297e-09
3.4143e-09
3.74653e-09
4.11259e-09
4.51571e-09
4.95937e-09
5.44736e-09
5.98381e-09
6.57318e-09
7.22032e-09
7.93048e-09
8.70936e-09
9.5631e-09
1.04984e-08
1.15224e-08
1.26429e-08
1.38684e-08
1.52078e-08
1.6671e-08
1.82685e-08
2.00116e-08
2.19127e-08
2.39848e-08
2.62421e-08
2.87e-08
3.13749e-08
3.42851e-08
3.74522e-08
4.09075e-08
4.47166e-08
7.37611e-10
7.82438e-10
8.32274e-10
8.87656e-10
9.4916e-10
1.01741e-09
1.09311e-09
1.17703e-09
1.26999e-09
1.3729e-09
1.48678e-09
1.61271e-09
1.75188e-09
1.9056e-09
2.07531e-09
2.26254e-09
2.46901e-09
2.69655e-09
2.94718e-09
3.22309e-09
3.52667e-09
3.8605e-09
4.22741e-09
4.63045e-09
5.07293e-09
5.55845e-09
6.09091e-09
6.67453e-09
7.31387e-09
8.01388e-09
8.77989e-09
9.61767e-09
1.05334e-08
1.15339e-08
1.26264e-08
1.38186e-08
1.5119e-08
1.65365e-08
1.80811e-08
1.9763e-08
2.15936e-08
2.3585e-08
2.57501e-08
2.81028e-08
3.06581e-08
3.3432e-08
3.64417e-08
3.97058e-08
4.32448e-08
4.70829e-08
5.12555e-08
5.58375e-08
9.46765e-10
1.0121e-09
1.08436e-09
1.16423e-09
1.25248e-09
1.34991e-09
1.45744e-09
1.57604e-09
1.7068e-09
1.85087e-09
2.00954e-09
2.18419e-09
2.37633e-09
2.58761e-09
2.81982e-09
3.07491e-09
3.35498e-09
3.66233e-09
3.99944e-09
4.36901e-09
4.77396e-09
5.21745e-09
5.70292e-09
6.23405e-09
6.81485e-09
7.44964e-09
8.14309e-09
8.90022e-09
9.72645e-09
1.06276e-08
1.16101e-08
1.26805e-08
1.38463e-08
1.51152e-08
1.64956e-08
1.79966e-08
1.96279e-08
2.13998e-08
2.33235e-08
2.5411e-08
2.7675e-08
3.01293e-08
3.27883e-08
3.5668e-08
3.87849e-08
4.2157e-08
4.58034e-08
4.97449e-08
5.40042e-08
5.86082e-08
6.35968e-08
6.90542e-08
1.24661e-09
1.33982e-09
1.44241e-09
1.55526e-09
1.67936e-09
1.81574e-09
1.96558e-09
2.1301e-09
2.31068e-09
2.50878e-09
2.726e-09
2.96409e-09
3.22493e-09
3.51056e-09
3.82319e-09
4.16522e-09
4.53924e-09
4.94805e-09
5.39467e-09
5.88239e-09
6.41473e-09
6.99549e-09
7.62878e-09
8.31902e-09
9.07097e-09
9.88976e-09
1.07809e-08
1.17503e-08
1.28043e-08
1.39497e-08
1.51939e-08
1.65448e-08
1.80107e-08
1.96006e-08
2.13242e-08
2.31919e-08
2.52146e-08
2.74042e-08
2.97733e-08
3.23353e-08
3.51046e-08
3.80966e-08
4.13277e-08
4.48151e-08
4.85776e-08
5.2635e-08
5.70084e-08
6.17205e-08
6.67964e-08
7.22658e-08
7.8173e-08
8.46121e-08
1.66829e-09
1.79869e-09
1.94157e-09
2.09808e-09
2.26942e-09
2.45695e-09
2.6621e-09
2.88643e-09
3.13164e-09
3.39956e-09
3.69217e-09
4.01161e-09
4.3602e-09
4.74044e-09
5.15502e-09
5.60686e-09
6.09908e-09
6.63506e-09
7.21845e-09
7.85315e-09
8.54337e-09
9.29363e-09
1.01088e-08
1.0994e-08
1.1955e-08
1.29976e-08
1.41284e-08
1.53541e-08
1.66823e-08
1.81206e-08
1.96776e-08
2.13622e-08
2.3184e-08
2.51534e-08
2.72812e-08
2.95792e-08
3.20597e-08
3.4736e-08
3.76222e-08
4.07334e-08
4.40855e-08
4.76955e-08
5.15816e-08
5.57629e-08
6.02598e-08
6.50941e-08
7.02888e-08
7.58687e-08
8.18611e-08
8.82986e-08
9.52299e-08
1.0276e-07
2.25082e-09
2.43002e-09
2.62558e-09
2.83892e-09
3.07157e-09
3.32518e-09
3.60155e-09
3.9026e-09
4.23041e-09
4.58722e-09
4.97546e-09
5.39773e-09
5.85682e-09
6.35577e-09
6.8978e-09
7.4864e-09
8.12532e-09
8.81856e-09
9.57044e-09
1.03856e-08
1.12689e-08
1.22258e-08
1.32618e-08
1.4383e-08
1.5596e-08
1.69077e-08
1.83253e-08
1.98569e-08
2.15109e-08
2.32962e-08
2.52225e-08
2.72998e-08
2.9539e-08
3.19518e-08
3.45503e-08
3.73475e-08
4.03575e-08
4.35948e-08
4.70751e-08
5.0815e-08
5.48321e-08
5.9145e-08
6.37736e-08
6.87388e-08
7.40627e-08
7.9769e-08
8.58827e-08
9.24305e-08
9.94418e-08
1.06952e-07
1.15014e-07
1.23744e-07
3.04231e-09
3.28456e-09
3.54792e-09
3.83416e-09
4.14515e-09
4.48293e-09
4.84967e-09
5.24771e-09
5.67959e-09
6.14801e-09
6.65588e-09
7.20633e-09
7.80269e-09
8.44856e-09
9.14779e-09
9.9045e-09
1.07231e-08
1.16083e-08
1.25651e-08
1.35989e-08
1.47155e-08
1.59211e-08
1.7222e-08
1.86254e-08
2.01386e-08
2.17696e-08
2.35267e-08
2.5419e-08
2.7456e-08
2.96477e-08
3.2005e-08
3.45392e-08
3.72624e-08
4.01875e-08
4.33281e-08
4.66987e-08
5.03145e-08
5.41917e-08
5.83474e-08
6.27998e-08
6.7568e-08
7.26724e-08
7.81343e-08
8.39765e-08
9.02229e-08
9.68987e-08
1.04031e-07
1.11648e-07
1.19781e-07
1.28469e-07
1.3777e-07
1.47808e-07
4.42372e-09
4.77311e-09
5.15152e-09
5.56123e-09
6.00468e-09
6.48451e-09
7.00353e-09
7.56475e-09
8.1714e-09
8.82694e-09
9.53506e-09
1.02997e-08
1.11251e-08
1.20158e-08
1.29765e-08
1.40124e-08
1.51289e-08
1.6332e-08
1.76277e-08
1.90226e-08
2.05239e-08
2.21389e-08
2.38756e-08
2.57424e-08
2.77482e-08
2.99025e-08
3.22153e-08
3.46974e-08
3.73599e-08
4.02148e-08
4.32749e-08
4.65533e-08
5.00644e-08
5.3823e-08
5.7845e-08
6.2147e-08
6.67467e-08
7.16627e-08
7.69146e-08
8.25231e-08
8.851e-08
9.48985e-08
1.01713e-07
1.08978e-07
1.16722e-07
1.24973e-07
1.33761e-07
1.43119e-07
1.53089e-07
1.63733e-07
1.75187e-07
5.92074e-09
6.37778e-09
6.87115e-09
7.40356e-09
7.97795e-09
8.59742e-09
9.26533e-09
9.98521e-09
1.07609e-08
1.15964e-08
1.2496e-08
1.34644e-08
1.45065e-08
1.56274e-08
1.68326e-08
1.81282e-08
1.95204e-08
2.10157e-08
2.26213e-08
2.43446e-08
2.61936e-08
2.81767e-08
3.03028e-08
3.25813e-08
3.50222e-08
3.7636e-08
4.04339e-08
4.34278e-08
4.66299e-08
5.00536e-08
5.37126e-08
5.76216e-08
6.1796e-08
6.62521e-08
7.1007e-08
7.60788e-08
8.14864e-08
8.725e-08