/*--------------------------------*- C++ -*----------------------------------*\
| =========                 |                                                 |
| \\      /  F ield         | OpenFOAM: The Open Source CFD Toolbox           |
|  \\    /   O peration     | Version:  v1706                                 |
|   \\  /    A nd           | Web:      www.OpenFOAM.com                      |
|    \\/     M anipulation  |                                                 |
\*---------------------------------------------------------------------------*/
FoamFile
{
    version     2.0;
    format      ascii;
    class       volScalarField;
    location    "3.1e-05";
    object      mu;
}
// * * * * * * * * * * * * * * * * * * * * * * * * * * * * * * * * * * * * * //

dimensions      [1 -1 -1 0 0 0 0];


internalField   nonuniform List<scalar> 
30038
(
1.0351e-05
1.0351e-05
1.0351e-05
1.0351e-05
1.0351e-05
1.0351e-05
1.0351e-05
1.0351e-05
1.0351e-05
1.0351e-05
1.0351e-05
1.0351e-05
1.0351e-05
1.0351e-05
1.0351e-05
1.0351e-05
1.0351e-05
1.0351e-05
1.0351e-05
1.0351e-05
1.0351e-05
1.0351e-05
1.0351e-05
1.0351e-05
1.0351e-05
1.0351e-05
1.0351e-05
1.0351e-05
1.0351e-05
1.0351e-05
1.0351e-05
1.0351e-05
1.0351e-05
1.0351e-05
1.0351e-05
1.0351e-05
1.0351e-05
1.0351e-05
1.0351e-05
1.0351e-05
1.0351e-05
1.0351e-05
1.0351e-05
1.0351e-05
1.0351e-05
1.0351e-05
1.0351e-05
1.0351e-05
1.0351e-05
1.0351e-05
1.0351e-05
1.0351e-05
1.0351e-05
1.0351e-05
1.0351e-05
1.0351e-05
1.0351e-05
1.0351e-05
1.0351e-05
1.0351e-05
1.0351e-05
1.0351e-05
1.0351e-05
1.0351e-05
1.0351e-05
1.0351e-05
1.0351e-05
1.0351e-05
1.0351e-05
1.0351e-05
1.0351e-05
1.0351e-05
1.0351e-05
1.0351e-05
1.0351e-05
1.0351e-05
1.0351e-05
1.0351e-05
1.0351e-05
1.0351e-05
1.0351e-05
1.0351e-05
1.0351e-05
1.0351e-05
1.0351e-05
1.0351e-05
1.0351e-05
1.0351e-05
1.0351e-05
1.0351e-05
1.0351e-05
1.0351e-05
1.0351e-05
1.0351e-05
1.0351e-05
1.0351e-05
1.0351e-05
1.0351e-05
1.0351e-05
1.0351e-05
1.0351e-05
1.0351e-05
1.0351e-05
1.0351e-05
1.0351e-05
1.0351e-05
1.0351e-05
1.0351e-05
1.0351e-05
1.0351e-05
1.0351e-05
1.0351e-05
1.0351e-05
1.0351e-05
1.0351e-05
1.0351e-05
1.0351e-05
1.0351e-05
1.0351e-05
1.0351e-05
1.0351e-05
1.0351e-05
1.0351e-05
1.0351e-05
1.0351e-05
1.0351e-05
1.0351e-05
1.0351e-05
1.0351e-05
1.0351e-05
1.0351e-05
1.0351e-05
1.0351e-05
1.0351e-05
1.0351e-05
1.0351e-05
1.0351e-05
1.0351e-05
1.0351e-05
1.0351e-05
1.0351e-05
1.0351e-05
1.0351e-05
1.0351e-05
1.0351e-05
1.0351e-05
1.0351e-05
1.0351e-05
1.0351e-05
1.0351e-05
1.0351e-05
1.0351e-05
1.0351e-05
1.0351e-05
1.0351e-05
1.0351e-05
1.0351e-05
1.0351e-05
1.0351e-05
1.0351e-05
1.0351e-05
1.0351e-05
1.0351e-05
1.0351e-05
1.0351e-05
1.0351e-05
1.0351e-05
1.0351e-05
1.0351e-05
1.0351e-05
1.0351e-05
1.0351e-05
1.0351e-05
1.0351e-05
1.0351e-05
1.0351e-05
1.0351e-05
1.0351e-05
1.0351e-05
1.0351e-05
1.0351e-05
1.0351e-05
1.0351e-05
1.0351e-05
1.0351e-05
1.0351e-05
1.0351e-05
1.0351e-05
1.0351e-05
1.0351e-05
1.0351e-05
1.0351e-05
1.0351e-05
1.0351e-05
1.0351e-05
1.0351e-05
1.0351e-05
1.0351e-05
1.0351e-05
1.0351e-05
1.0351e-05
1.0351e-05
1.0351e-05
1.0351e-05
1.0351e-05
1.0351e-05
1.0351e-05
1.0351e-05
1.0351e-05
1.0351e-05
1.0351e-05
1.0351e-05
1.0351e-05
1.0351e-05
1.0351e-05
1.0351e-05
1.0351e-05
1.0351e-05
1.0351e-05
1.0351e-05
1.0351e-05
1.0351e-05
1.0351e-05
1.0351e-05
1.0351e-05
1.0351e-05
1.0351e-05
1.0351e-05
1.0351e-05
1.0351e-05
1.0351e-05
1.0351e-05
1.0351e-05
1.0351e-05
1.0351e-05
1.0351e-05
1.0351e-05
1.0351e-05
1.0351e-05
1.0351e-05
1.0351e-05
1.0351e-05
1.0351e-05
1.0351e-05
1.0351e-05
1.0351e-05
1.0351e-05
1.0351e-05
1.0351e-05
1.0351e-05
1.0351e-05
1.0351e-05
1.0351e-05
1.0351e-05
1.0351e-05
1.0351e-05
1.0351e-05
1.0351e-05
1.0351e-05
1.0351e-05
1.0351e-05
1.0351e-05
1.0351e-05
1.0351e-05
1.0351e-05
1.0351e-05
1.0351e-05
1.0351e-05
1.0351e-05
1.0351e-05
1.0351e-05
1.0351e-05
1.0351e-05
1.0351e-05
1.0351e-05
1.0351e-05
1.0351e-05
1.0351e-05
1.0351e-05
1.0351e-05
1.0351e-05
1.0351e-05
1.0351e-05
1.0351e-05
1.0351e-05
1.0351e-05
1.0351e-05
1.0351e-05
1.0351e-05
1.0351e-05
1.0351e-05
1.0351e-05
1.0351e-05
1.0351e-05
1.0351e-05
1.0351e-05
1.0351e-05
1.0351e-05
1.0351e-05
1.0351e-05
1.0351e-05
1.0351e-05
1.0351e-05
1.03511e-05
1.0351e-05
1.0351e-05
1.0351e-05
1.0351e-05
1.0351e-05
1.0351e-05
1.0351e-05
1.0351e-05
1.0351e-05
1.0351e-05
1.0351e-05
1.0351e-05
1.0351e-05
1.0351e-05
1.0351e-05
1.0351e-05
1.0351e-05
1.0351e-05
1.0351e-05
1.0351e-05
1.0351e-05
1.0351e-05
1.0351e-05
1.0351e-05
1.0351e-05
1.0351e-05
1.0351e-05
1.0351e-05
1.0351e-05
1.0351e-05
1.0351e-05
1.0351e-05
1.0351e-05
1.0351e-05
1.0351e-05
1.03511e-05
1.03511e-05
1.03511e-05
1.03512e-05
1.0351e-05
1.0351e-05
1.0351e-05
1.0351e-05
1.0351e-05
1.0351e-05
1.0351e-05
1.0351e-05
1.0351e-05
1.0351e-05
1.0351e-05
1.0351e-05
1.0351e-05
1.0351e-05
1.0351e-05
1.0351e-05
1.0351e-05
1.0351e-05
1.0351e-05
1.0351e-05
1.0351e-05
1.0351e-05
1.0351e-05
1.0351e-05
1.0351e-05
1.0351e-05
1.0351e-05
1.0351e-05
1.0351e-05
1.0351e-05
1.0351e-05
1.0351e-05
1.03511e-05
1.03511e-05
1.03511e-05
1.03512e-05
1.03513e-05
1.03514e-05
1.03516e-05
1.0351e-05
1.0351e-05
1.0351e-05
1.0351e-05
1.0351e-05
1.0351e-05
1.0351e-05
1.0351e-05
1.0351e-05
1.0351e-05
1.0351e-05
1.0351e-05
1.0351e-05
1.0351e-05
1.0351e-05
1.0351e-05
1.0351e-05
1.0351e-05
1.0351e-05
1.0351e-05
1.0351e-05
1.0351e-05
1.0351e-05
1.0351e-05
1.0351e-05
1.0351e-05
1.0351e-05
1.0351e-05
1.0351e-05
1.03511e-05
1.03511e-05
1.03511e-05
1.03512e-05
1.03513e-05
1.03514e-05
1.03515e-05
1.03518e-05
1.03522e-05
1.03528e-05
1.0351e-05
1.0351e-05
1.0351e-05
1.0351e-05
1.0351e-05
1.0351e-05
1.0351e-05
1.0351e-05
1.0351e-05
1.0351e-05
1.0351e-05
1.0351e-05
1.0351e-05
1.0351e-05
1.0351e-05
1.0351e-05
1.0351e-05
1.0351e-05
1.0351e-05
1.0351e-05
1.0351e-05
1.0351e-05
1.0351e-05
1.0351e-05
1.0351e-05
1.0351e-05
1.0351e-05
1.03511e-05
1.03511e-05
1.03511e-05
1.03512e-05
1.03512e-05
1.03514e-05
1.03515e-05
1.03517e-05
1.03521e-05
1.03526e-05
1.03534e-05
1.03545e-05
1.03562e-05
1.0351e-05
1.0351e-05
1.0351e-05
1.0351e-05
1.0351e-05
1.0351e-05
1.0351e-05
1.0351e-05
1.0351e-05
1.0351e-05
1.0351e-05
1.0351e-05
1.0351e-05
1.0351e-05
1.0351e-05
1.0351e-05
1.0351e-05
1.0351e-05
1.0351e-05
1.0351e-05
1.0351e-05
1.0351e-05
1.0351e-05
1.0351e-05
1.03511e-05
1.03511e-05
1.03511e-05
1.03512e-05
1.03512e-05
1.03513e-05
1.03515e-05
1.03517e-05
1.0352e-05
1.03525e-05
1.03532e-05
1.03542e-05
1.03557e-05
1.03578e-05
1.03611e-05
1.03659e-05
1.0351e-05
1.0351e-05
1.0351e-05
1.0351e-05
1.0351e-05
1.0351e-05
1.0351e-05
1.0351e-05
1.0351e-05
1.0351e-05
1.0351e-05
1.0351e-05
1.0351e-05
1.0351e-05
1.0351e-05
1.0351e-05
1.0351e-05
1.0351e-05
1.0351e-05
1.0351e-05
1.0351e-05
1.03511e-05
1.03511e-05
1.03511e-05
1.03512e-05
1.03512e-05
1.03513e-05
1.03515e-05
1.03517e-05
1.0352e-05
1.03524e-05
1.03531e-05
1.0354e-05
1.03553e-05
1.03573e-05
1.03602e-05
1.03643e-05
1.03705e-05
1.03795e-05
1.0393e-05
1.0351e-05
1.0351e-05
1.0351e-05
1.0351e-05
1.0351e-05
1.0351e-05
1.0351e-05
1.0351e-05
1.0351e-05
1.0351e-05
1.0351e-05
1.0351e-05
1.0351e-05
1.0351e-05
1.0351e-05
1.0351e-05
1.0351e-05
1.0351e-05
1.03511e-05
1.03511e-05
1.03511e-05
1.03512e-05
1.03512e-05
1.03513e-05
1.03515e-05
1.03517e-05
1.0352e-05
1.03524e-05
1.0353e-05
1.03539e-05
1.03551e-05
1.03569e-05
1.03595e-05
1.03633e-05
1.03688e-05
1.03768e-05
1.03884e-05
1.04053e-05
1.04301e-05
1.04666e-05
1.0351e-05
1.0351e-05
1.0351e-05
1.0351e-05
1.0351e-05
1.0351e-05
1.0351e-05
1.0351e-05
1.0351e-05
1.0351e-05
1.0351e-05
1.0351e-05
1.0351e-05
1.0351e-05
1.0351e-05
1.03511e-05
1.03511e-05
1.03511e-05
1.03512e-05
1.03512e-05
1.03513e-05
1.03515e-05
1.03517e-05
1.0352e-05
1.03524e-05
1.0353e-05
1.03538e-05
1.0355e-05
1.03567e-05
1.03591e-05
1.03626e-05
1.03676e-05
1.03749e-05
1.03853e-05
1.04004e-05
1.04222e-05
1.04536e-05
1.0499e-05
1.05647e-05
1.06595e-05
1.0351e-05
1.0351e-05
1.0351e-05
1.0351e-05
1.0351e-05
1.0351e-05
1.0351e-05
1.0351e-05
1.0351e-05
1.0351e-05
1.0351e-05
1.03511e-05
1.03511e-05
1.03511e-05
1.03511e-05
1.03512e-05
1.03513e-05
1.03514e-05
1.03515e-05
1.03517e-05
1.0352e-05
1.03524e-05
1.0353e-05
1.03538e-05
1.03549e-05
1.03565e-05
1.03588e-05
1.03621e-05
1.03668e-05
1.03735e-05
1.03831e-05
1.03968e-05
1.04165e-05
1.04446e-05
1.04849e-05
1.05425e-05
1.06246e-05
1.07411e-05
1.09053e-05
1.11344e-05
1.0351e-05
1.0351e-05
1.0351e-05
1.0351e-05
1.0351e-05
1.0351e-05
1.0351e-05
1.0351e-05
1.03511e-05
1.03511e-05
1.03511e-05
1.03511e-05
1.03512e-05
1.03513e-05
1.03514e-05
1.03515e-05
1.03517e-05
1.0352e-05
1.03524e-05
1.0353e-05
1.03538e-05
1.03549e-05
1.03565e-05
1.03587e-05
1.03618e-05
1.03663e-05
1.03726e-05
1.03816e-05
1.03943e-05
1.04124e-05
1.04381e-05
1.04746e-05
1.05264e-05
1.05996e-05
1.07029e-05
1.08474e-05
1.10477e-05
1.13219e-05
1.16902e-05
1.21727e-05
1.0351e-05
1.0351e-05
1.0351e-05
1.0351e-05
1.0351e-05
1.0351e-05
1.03511e-05
1.03511e-05
1.03511e-05
1.03512e-05
1.03512e-05
1.03513e-05
1.03514e-05
1.03516e-05
1.03518e-05
1.03521e-05
1.03525e-05
1.0353e-05
1.03538e-05
1.0355e-05
1.03565e-05
1.03587e-05
1.03617e-05
1.0366e-05
1.03721e-05
1.03806e-05
1.03926e-05
1.04095e-05
1.04333e-05
1.0467e-05
1.05143e-05
1.05809e-05
1.06742e-05
1.0804e-05
1.09831e-05
1.12274e-05
1.15551e-05
1.19857e-05
1.2537e-05
1.32204e-05
1.40342e-05
1.0351e-05
1.0351e-05
1.03511e-05
1.03511e-05
1.03511e-05
1.03511e-05
1.03512e-05
1.03512e-05
1.03513e-05
1.03514e-05
1.03516e-05
1.03518e-05
1.03521e-05
1.03526e-05
1.03531e-05
1.0354e-05
1.03551e-05
1.03566e-05
1.03588e-05
1.03618e-05
1.0366e-05
1.03719e-05
1.03801e-05
1.03916e-05
1.04077e-05
1.04302e-05
1.04616e-05
1.05057e-05
1.05672e-05
1.06527e-05
1.07712e-05
1.09339e-05
1.11551e-05
1.14514e-05
1.18408e-05
1.23405e-05
1.29633e-05
1.37133e-05
1.45824e-05
1.55464e-05
1.65682e-05
1.03511e-05
1.03511e-05
1.03511e-05
1.03511e-05
1.03512e-05
1.03513e-05
1.03514e-05
1.03515e-05
1.03517e-05
1.03519e-05
1.03522e-05
1.03527e-05
1.03533e-05
1.03541e-05
1.03553e-05
1.03569e-05
1.03591e-05
1.03621e-05
1.03663e-05
1.03721e-05
1.03801e-05
1.03913e-05
1.04068e-05
1.04284e-05
1.04583e-05
1.04999e-05
1.05576e-05
1.06373e-05
1.0747e-05
1.0897e-05
1.11e-05
1.13713e-05
1.17277e-05
1.21858e-05
1.27592e-05
1.34547e-05
1.42681e-05
1.51813e-05
1.61629e-05
1.71666e-05
1.81274e-05
1.89839e-05
1.03511e-05
1.03512e-05
1.03512e-05
1.03513e-05
1.03514e-05
1.03516e-05
1.03517e-05
1.0352e-05
1.03524e-05
1.03528e-05
1.03535e-05
1.03544e-05
1.03556e-05
1.03572e-05
1.03595e-05
1.03625e-05
1.03668e-05
1.03726e-05
1.03806e-05
1.03916e-05
1.04069e-05
1.04279e-05
1.04568e-05
1.04967e-05
1.05516e-05
1.06271e-05
1.07302e-05
1.08704e-05
1.10592e-05
1.13108e-05
1.16406e-05
1.20646e-05
1.25966e-05
1.32451e-05
1.40098e-05
1.48782e-05
1.58244e-05
1.68108e-05
1.77834e-05
1.86751e-05
1.94271e-05
2.00081e-05
2.04328e-05
1.03514e-05
1.03515e-05
1.03516e-05
1.03518e-05
1.03521e-05
1.03525e-05
1.0353e-05
1.03537e-05
1.03547e-05
1.03559e-05
1.03577e-05
1.036e-05
1.03632e-05
1.03675e-05
1.03735e-05
1.03816e-05
1.03927e-05
1.04078e-05
1.04286e-05
1.0457e-05
1.04959e-05
1.0549e-05
1.06214e-05
1.07198e-05
1.08527e-05
1.10308e-05
1.1267e-05
1.15758e-05
1.19722e-05
1.24698e-05
1.30782e-05
1.37998e-05
1.46259e-05
1.55363e-05
1.64997e-05
1.7472e-05
1.83943e-05
1.92037e-05
1.98565e-05
2.03423e-05
2.06808e-05
2.0902e-05
2.10441e-05
1.03517e-05
1.0352e-05
1.03523e-05
1.03527e-05
1.03533e-05
1.0354e-05
1.0355e-05
1.03564e-05
1.03583e-05
1.03607e-05
1.03641e-05
1.03686e-05
1.03748e-05
1.03831e-05
1.03944e-05
1.04097e-05
1.04305e-05
1.04588e-05
1.04973e-05
1.05494e-05
1.062e-05
1.07153e-05
1.08431e-05
1.10134e-05
1.1238e-05
1.15305e-05
1.19051e-05
1.23748e-05
1.29496e-05
1.36335e-05
1.44212e-05
1.52966e-05
1.62332e-05
1.71948e-05
1.81314e-05
1.8983e-05
1.96975e-05
2.02504e-05
2.06482e-05
2.09171e-05
2.10893e-05
2.11952e-05
2.12572e-05
2.12929e-05
1.03525e-05
1.0353e-05
1.03536e-05
1.03544e-05
1.03555e-05
1.0357e-05
1.0359e-05
1.03617e-05
1.03653e-05
1.03701e-05
1.03765e-05
1.03852e-05
1.03969e-05
1.04126e-05
1.04338e-05
1.04624e-05
1.0501e-05
1.0553e-05
1.06228e-05
1.07163e-05
1.0841e-05
1.1006e-05
1.12225e-05
1.15029e-05
1.18607e-05
1.23084e-05
1.28557e-05
1.35077e-05
1.42616e-05
1.51043e-05
1.60132e-05
1.69576e-05
1.78957e-05
1.87737e-05
1.95369e-05
2.01494e-05
2.06055e-05
2.09237e-05
2.11333e-05
2.12648e-05
2.13435e-05
2.13883e-05
2.14119e-05
2.14225e-05
2.14244e-05
1.0354e-05
1.03549e-05
1.03562e-05
1.03578e-05
1.036e-05
1.03629e-05
1.03668e-05
1.03719e-05
1.03788e-05
1.0388e-05
1.04002e-05
1.04166e-05
1.04386e-05
1.04679e-05
1.05072e-05
1.05597e-05
1.06298e-05
1.07229e-05
1.08462e-05
1.10083e-05
1.12195e-05
1.14917e-05
1.18372e-05
1.22681e-05
1.27937e-05
1.34195e-05
1.41441e-05
1.49572e-05
1.58394e-05
1.67636e-05
1.76947e-05
1.85859e-05
1.93841e-05
2.00465e-05
2.05562e-05
2.09228e-05
2.11711e-05
2.1331e-05
2.14288e-05
2.14859e-05
2.1517e-05
2.15321e-05
2.15353e-05
2.15339e-05
2.15308e-05
2.15229e-05
1.03556e-05
1.0357e-05
1.03588e-05
1.03613e-05
1.03645e-05
1.03687e-05
1.03743e-05
1.03817e-05
1.03916e-05
1.04046e-05
1.04219e-05
1.04449e-05
1.04755e-05
1.05161e-05
1.05699e-05
1.06412e-05
1.07353e-05
1.08588e-05
1.10201e-05
1.12289e-05
1.14961e-05
1.18336e-05
1.22524e-05
1.27616e-05
1.33665e-05
1.40668e-05
1.48543e-05
1.57116e-05
1.66146e-05
1.75334e-05
1.84275e-05
1.92482e-05
1.99496e-05
2.0506e-05
2.09178e-05
2.12047e-05
2.13938e-05
2.15127e-05
2.15834e-05
2.16231e-05
2.16431e-05
2.16505e-05
2.16489e-05
2.16459e-05
2.16389e-05
2.16271e-05
2.16127e-05
2.15971e-05
1.03629e-05
1.03665e-05
1.03712e-05
1.03774e-05
1.03855e-05
1.03962e-05
1.04103e-05
1.04288e-05
1.04533e-05
1.04855e-05
1.05281e-05
1.0584e-05
1.06575e-05
1.07537e-05
1.08792e-05
1.10418e-05
1.12507e-05
1.15162e-05
1.18493e-05
1.22605e-05
1.27582e-05
1.33473e-05
1.4028e-05
1.47935e-05
1.56284e-05
1.6511e-05
1.74143e-05
1.83044e-05
1.91369e-05
1.98664e-05
2.04612e-05
2.09134e-05
2.12366e-05
2.1455e-05
2.15954e-05
2.16811e-05
2.17302e-05
2.17563e-05
2.17676e-05
2.17671e-05
2.17637e-05
2.1758e-05
2.17471e-05
2.17327e-05
2.17166e-05
2.16987e-05
2.168e-05
2.1662e-05
1.0369e-05
1.03743e-05
1.03812e-05
1.03902e-05
1.0402e-05
1.04174e-05
1.04376e-05
1.0464e-05
1.04985e-05
1.05436e-05
1.06025e-05
1.06793e-05
1.07791e-05
1.09082e-05
1.1074e-05
1.12855e-05
1.15523e-05
1.18847e-05
1.22923e-05
1.27829e-05
1.3361e-05
1.40266e-05
1.4774e-05
1.55894e-05
1.64527e-05
1.73395e-05
1.82204e-05
1.90563e-05
1.98038e-05
2.0428e-05
2.09144e-05
2.12703e-05
2.15165e-05
2.16782e-05
2.17793e-05
2.18385e-05
2.1871e-05
2.18862e-05
2.18888e-05
2.1885e-05
2.18792e-05
2.18695e-05
2.18555e-05
2.18391e-05
2.18212e-05
2.18017e-05
2.17819e-05
2.17629e-05
2.17447e-05
2.17272e-05
1.03963e-05
1.04094e-05
1.04265e-05
1.04487e-05
1.04775e-05
1.05149e-05
1.05634e-05
1.06263e-05
1.07076e-05
1.08123e-05
1.09467e-05
1.1118e-05
1.13345e-05
1.16056e-05
1.19405e-05
1.23483e-05
1.2836e-05
1.34073e-05
1.40621e-05
1.47951e-05
1.55939e-05
1.64395e-05
1.73096e-05
1.81781e-05
1.90109e-05
1.97677e-05
2.04124e-05
2.09258e-05
2.13096e-05
2.15809e-05
2.17628e-05
2.18788e-05
2.19486e-05
2.19876e-05
2.20073e-05
2.20127e-05
2.20095e-05
2.2003e-05
2.19945e-05
2.19809e-05
2.19644e-05
2.19463e-05
2.19265e-05
2.19057e-05
2.18853e-05
2.18655e-05
2.18462e-05
2.18276e-05
2.18097e-05
2.17925e-05
1.04627e-05
1.04946e-05
1.05356e-05
1.05885e-05
1.06564e-05
1.07435e-05
1.08548e-05
1.09963e-05
1.11751e-05
1.13993e-05
1.16774e-05
1.20182e-05
1.24298e-05
1.29183e-05
1.34869e-05
1.41347e-05
1.48568e-05
1.56416e-05
1.64712e-05
1.73248e-05
1.8179e-05
1.90039e-05
1.97626e-05
2.04195e-05
2.09524e-05
2.13585e-05
2.1651e-05
2.18509e-05
2.19809e-05
2.2061e-05
2.21065e-05
2.21303e-05
2.2139e-05
2.2137e-05
2.21302e-05
2.21215e-05
2.21089e-05
2.20923e-05
2.20739e-05
2.20541e-05
2.20326e-05
2.20108e-05
2.19897e-05
2.19692e-05
2.1949e-05
2.19295e-05
2.19105e-05
2.18921e-05
2.18743e-05
2.18571e-05
1.062e-05
1.06942e-05
1.07886e-05
1.09082e-05
1.10589e-05
1.12476e-05
1.14819e-05
1.177e-05
1.21198e-05
1.25386e-05
1.30315e-05
1.36008e-05
1.42452e-05
1.49594e-05
1.57326e-05
1.65478e-05
1.73854e-05
1.8224e-05
1.90373e-05
1.97918e-05
2.04533e-05
2.09983e-05
2.14205e-05
2.17298e-05
2.19448e-05
2.20871e-05
2.21764e-05
2.22283e-05
2.22561e-05
2.22679e-05
2.22669e-05
2.22605e-05
2.22509e-05
2.22393e-05
2.22227e-05
2.2204e-05
2.2184e-05
2.21622e-05
2.21395e-05
2.21171e-05
2.20952e-05
2.20737e-05
2.20528e-05
2.20324e-05
2.20125e-05
2.19931e-05
2.19741e-05
2.19557e-05
2.19379e-05
2.19206e-05
1.09748e-05
1.11369e-05
1.1338e-05
1.15852e-05
1.18862e-05
1.22481e-05
1.26772e-05
1.31777e-05
1.37509e-05
1.43948e-05
1.51038e-05
1.58675e-05
1.66696e-05
1.74915e-05
1.83135e-05
1.91125e-05
1.98576e-05
2.05171e-05
2.1067e-05
2.14989e-05
2.18198e-05
2.20463e-05
2.21986e-05
2.22958e-05
2.23534e-05
2.2385e-05
2.23994e-05
2.23996e-05
2.23939e-05
2.23836e-05
2.23718e-05
2.23558e-05
2.23367e-05
2.23163e-05
2.22943e-05
2.22708e-05
2.22472e-05
2.22242e-05
2.22016e-05
2.21793e-05
2.21576e-05
2.21363e-05
2.21154e-05
2.20951e-05
2.20751e-05
2.20556e-05
2.20366e-05
2.20181e-05
2.20003e-05
2.19832e-05
1.17126e-05
1.20293e-05
1.24063e-05
1.28486e-05
1.33596e-05
1.39394e-05
1.45852e-05
1.52911e-05
1.60469e-05
1.68368e-05
1.76431e-05
1.84478e-05
1.92297e-05
1.99614e-05
2.0613e-05
2.11611e-05
2.15963e-05
2.19235e-05
2.21575e-05
2.23169e-05
2.24201e-05
2.24825e-05
2.25171e-05
2.25335e-05
2.25354e-05
2.253e-05
2.25192e-05
2.25064e-05
2.24913e-05
2.24717e-05
2.24508e-05
2.24288e-05
2.24049e-05
2.23803e-05
2.23561e-05
2.23324e-05
2.23088e-05
2.22858e-05
2.22632e-05
2.22411e-05
2.22193e-05
2.2198e-05
2.2177e-05
2.21566e-05
2.21365e-05
2.2117e-05
2.2098e-05
2.20795e-05
2.20618e-05
2.20446e-05
1.30567e-05
1.35805e-05
1.4169e-05
1.48186e-05
1.55229e-05
1.62717e-05
1.70498e-05
1.78402e-05
1.86264e-05
1.93893e-05
2.01037e-05
2.07421e-05
2.12823e-05
2.17146e-05
2.20427e-05
2.22799e-05
2.24433e-05
2.25505e-05
2.26161e-05
2.2653e-05
2.26709e-05
2.26741e-05
2.26688e-05
2.26579e-05
2.26441e-05
2.2629e-05
2.26093e-05
2.25878e-05
2.25654e-05
2.25411e-05
2.25158e-05
2.24905e-05
2.24657e-05
2.24411e-05
2.24169e-05
2.23931e-05
2.23697e-05
2.23466e-05
2.2324e-05
2.23017e-05
2.22799e-05
2.22584e-05
2.22374e-05
2.22168e-05
2.21967e-05
2.21772e-05
2.21582e-05
2.21398e-05
2.21221e-05
2.21051e-05
1.50972e-05
1.58007e-05
1.65428e-05
1.73089e-05
1.80826e-05
1.8849e-05
1.95906e-05
2.02844e-05
2.09047e-05
2.14313e-05
2.18548e-05
2.21787e-05
2.24146e-05
2.25788e-05
2.26874e-05
2.27547e-05
2.27929e-05
2.28117e-05
2.28156e-05
2.28104e-05
2.27994e-05
2.27846e-05
2.27688e-05
2.27496e-05
2.27273e-05
2.27043e-05
2.26798e-05
2.26538e-05
2.26276e-05
2.26017e-05
2.25761e-05
2.25506e-05
2.25257e-05
2.25012e-05
2.24769e-05
2.2453e-05
2.24295e-05
2.24063e-05
2.23835e-05
2.23611e-05
2.23391e-05
2.23176e-05
2.22965e-05
2.22758e-05
2.22558e-05
2.22362e-05
2.22173e-05
2.2199e-05
2.21815e-05
2.21647e-05
1.7614e-05
1.83698e-05
1.91148e-05
1.98327e-05
2.05024e-05
2.11002e-05
2.16079e-05
2.20173e-05
2.23318e-05
2.25624e-05
2.27239e-05
2.28316e-05
2.28987e-05
2.29372e-05
2.29561e-05
2.296e-05
2.29549e-05
2.29435e-05
2.29278e-05
2.29111e-05
2.28919e-05
2.28689e-05
2.28453e-05
2.28206e-05
2.27941e-05
2.2767e-05
2.27401e-05
2.27135e-05
2.2687e-05
2.2661e-05
2.26353e-05
2.26099e-05
2.25848e-05
2.25601e-05
2.25357e-05
2.25117e-05
2.2488e-05
2.24646e-05
2.24417e-05
2.24191e-05
2.2397e-05
2.23754e-05
2.23543e-05
2.23337e-05
2.23136e-05
2.22942e-05
2.22753e-05
2.22572e-05
2.22398e-05
2.22232e-05
2.01142e-05
2.07562e-05
2.13272e-05
2.18111e-05
2.22015e-05
2.2502e-05
2.27233e-05
2.2879e-05
2.29833e-05
2.30485e-05
2.3086e-05
2.31043e-05
2.31076e-05
2.31021e-05
2.309e-05
2.30736e-05
2.30559e-05
2.30364e-05
2.30129e-05
2.29885e-05
2.29634e-05
2.29364e-05
2.29086e-05
2.28808e-05
2.28533e-05
2.28259e-05
2.27987e-05
2.2772e-05
2.27455e-05
2.27193e-05
2.26935e-05
2.26679e-05
2.26427e-05
2.26177e-05
2.25931e-05
2.25689e-05
2.2545e-05
2.25215e-05
2.24985e-05
2.24758e-05
2.24537e-05
2.2432e-05
2.24109e-05
2.23903e-05
2.23704e-05
2.2351e-05
2.23323e-05
2.23143e-05
2.22972e-05
2.22809e-05
2.20391e-05
2.2406e-05
2.26885e-05
2.28968e-05
2.30437e-05
2.31424e-05
2.3204e-05
2.32394e-05
2.32562e-05
2.32583e-05
2.32522e-05
2.32392e-05
2.3222e-05
2.32032e-05
2.31827e-05
2.31593e-05
2.3134e-05
2.31082e-05
2.30808e-05
2.30523e-05
2.30236e-05
2.29953e-05
2.2967e-05
2.29388e-05
2.2911e-05
2.28836e-05
2.28563e-05
2.28294e-05
2.28027e-05
2.27763e-05
2.27502e-05
2.27244e-05
2.2699e-05
2.26738e-05
2.26491e-05
2.26247e-05
2.26007e-05
2.25771e-05
2.25539e-05
2.25313e-05
2.25091e-05
2.24875e-05
2.24664e-05
2.24459e-05
2.2426e-05
2.24068e-05
2.23883e-05
2.23705e-05
2.23536e-05
2.23375e-05
2.30819e-05
2.32176e-05
2.33086e-05
2.33652e-05
2.33972e-05
2.34118e-05
2.3412e-05
2.34049e-05
2.33909e-05
2.33727e-05
2.33528e-05
2.33314e-05
2.33076e-05
2.32814e-05
2.32549e-05
2.32272e-05
2.31979e-05
2.31685e-05
2.31393e-05
2.31101e-05
2.3081e-05
2.30523e-05
2.30239e-05
2.29956e-05
2.29677e-05
2.294e-05
2.29125e-05
2.28853e-05
2.28584e-05
2.28318e-05
2.28055e-05
2.27795e-05
2.27538e-05
2.27285e-05
2.27036e-05
2.26791e-05
2.2655e-05
2.26313e-05
2.26081e-05
2.25855e-05
2.25633e-05
2.25417e-05
2.25207e-05
2.25003e-05
2.24806e-05
2.24615e-05
2.24432e-05
2.24257e-05
2.2409e-05
2.23932e-05
2.35315e-05
2.35592e-05
2.35705e-05
2.3569e-05
2.35603e-05
2.3545e-05
2.35255e-05
2.35045e-05
2.34823e-05
2.34577e-05
2.34308e-05
2.34035e-05
2.33753e-05
2.33455e-05
2.33153e-05
2.32853e-05
2.32553e-05
2.32254e-05
2.31957e-05
2.31664e-05
2.31372e-05
2.31082e-05
2.30795e-05
2.3051e-05
2.30228e-05
2.29949e-05
2.29672e-05
2.29397e-05
2.29126e-05
2.28857e-05
2.28592e-05
2.2833e-05
2.28072e-05
2.27818e-05
2.27568e-05
2.27321e-05
2.2708e-05
2.26843e-05
2.26611e-05
2.26384e-05
2.26163e-05
2.25948e-05
2.25739e-05
2.25536e-05
2.2534e-05
2.25152e-05
2.24971e-05
2.24798e-05
2.24634e-05
2.24479e-05
2.37288e-05
2.3718e-05
2.37011e-05
2.36804e-05
2.36584e-05
2.36351e-05
2.36093e-05
2.35821e-05
2.35539e-05
2.3525e-05
2.34947e-05
2.34638e-05
2.3433e-05
2.34023e-05
2.33716e-05
2.3341e-05
2.33108e-05
2.32807e-05
2.32508e-05
2.32212e-05
2.31918e-05
2.31626e-05
2.31336e-05
2.31049e-05
2.30764e-05
2.30482e-05
2.30202e-05
2.29926e-05
2.29652e-05
2.29382e-05
2.29115e-05
2.28852e-05
2.28592e-05
2.28337e-05
2.28086e-05
2.27839e-05
2.27597e-05
2.2736e-05
2.27129e-05
2.26902e-05
2.26682e-05
2.26467e-05
2.26259e-05
2.26058e-05
2.25864e-05
2.25677e-05
2.25499e-05
2.25328e-05
2.25167e-05
2.25014e-05
2.38373e-05
2.38141e-05
2.37897e-05
2.37629e-05
2.37351e-05
2.3706e-05
2.36762e-05
2.36455e-05
2.3614e-05
2.35824e-05
2.3551e-05
2.35195e-05
2.34881e-05
2.34571e-05
2.34262e-05
2.33955e-05
2.33649e-05
2.33346e-05
2.33045e-05
2.32745e-05
2.32448e-05
2.32153e-05
2.31861e-05
2.31571e-05
2.31284e-05
2.30999e-05
2.30717e-05
2.30439e-05
2.30164e-05
2.29892e-05
2.29624e-05
2.29359e-05
2.29099e-05
2.28843e-05
2.28591e-05
2.28344e-05
2.28102e-05
2.27865e-05
2.27634e-05
2.27408e-05
2.27189e-05
2.26975e-05
2.26769e-05
2.26569e-05
2.26377e-05
2.26192e-05
2.26015e-05
2.25847e-05
2.25688e-05
2.25538e-05
2.39459e-05
2.39181e-05
2.38893e-05
2.38598e-05
2.38291e-05
2.37978e-05
2.37656e-05
2.37333e-05
2.37013e-05
2.36691e-05
2.36369e-05
2.36051e-05
2.35735e-05
2.35419e-05
2.35105e-05
2.34793e-05
2.34483e-05
2.34175e-05
2.33869e-05
2.33564e-05
2.33262e-05
2.32962e-05
2.32665e-05
2.3237e-05
2.32077e-05
2.31788e-05
2.31501e-05
2.31218e-05
2.30938e-05
2.30661e-05
2.30388e-05
2.30119e-05
2.29853e-05
2.29592e-05
2.29336e-05
2.29084e-05
2.28837e-05
2.28595e-05
2.28358e-05
2.28128e-05
2.27903e-05
2.27684e-05
2.27472e-05
2.27266e-05
2.27068e-05
2.26877e-05
2.26694e-05
2.26519e-05
2.26353e-05
2.26196e-05
2.26049e-05
2.40148e-05
2.39834e-05
2.39513e-05
2.39187e-05
2.38857e-05
2.38529e-05
2.38202e-05
2.37873e-05
2.37547e-05
2.37223e-05
2.36899e-05
2.36578e-05
2.36258e-05
2.3594e-05
2.35623e-05
2.35308e-05
2.34995e-05
2.34684e-05
2.34374e-05
2.34067e-05
2.33763e-05
2.3346e-05
2.3316e-05
2.32863e-05
2.32569e-05
2.32277e-05
2.31989e-05
2.31704e-05
2.31423e-05
2.31145e-05
2.30871e-05
2.306e-05
2.30335e-05
2.30073e-05
2.29816e-05
2.29564e-05
2.29317e-05
2.29075e-05
2.28839e-05
2.28609e-05
2.28385e-05
2.28167e-05
2.27956e-05
2.27751e-05
2.27554e-05
2.27365e-05
2.27184e-05
2.2701e-05
2.26846e-05
2.26691e-05
2.26545e-05
2.41061e-05
2.40728e-05
2.40393e-05
2.40058e-05
2.39725e-05
2.3939e-05
2.39057e-05
2.38726e-05
2.38395e-05
2.38066e-05
2.37739e-05
2.37413e-05
2.37088e-05
2.36765e-05
2.36443e-05
2.36124e-05
2.35806e-05
2.3549e-05
2.35176e-05
2.34864e-05
2.34554e-05
2.34247e-05
2.33943e-05
2.33641e-05
2.33342e-05
2.33045e-05
2.32752e-05
2.32463e-05
2.32176e-05
2.31894e-05
2.31615e-05
2.3134e-05
2.31069e-05
2.30803e-05
2.30541e-05
2.30284e-05
2.30032e-05
2.29785e-05
2.29543e-05
2.29308e-05
2.29078e-05
2.28854e-05
2.28637e-05
2.28427e-05
2.28223e-05
2.28028e-05
2.27839e-05
2.27659e-05
2.27487e-05
2.27324e-05
2.2717e-05
2.27026e-05
2.41599e-05
2.4126e-05
2.40919e-05
2.40579e-05
2.40242e-05
2.39905e-05
2.39568e-05
2.39234e-05
2.38901e-05
2.38568e-05
2.38238e-05
2.37909e-05
2.37581e-05
2.37255e-05
2.3693e-05
2.36608e-05
2.36287e-05
2.35968e-05
2.35652e-05
2.35338e-05
2.35026e-05
2.34717e-05
2.3441e-05
2.34106e-05
2.33806e-05
2.33508e-05
2.33214e-05
2.32923e-05
2.32635e-05
2.32352e-05
2.32072e-05
2.31796e-05
2.31525e-05
2.31258e-05
2.30996e-05
2.30739e-05
2.30486e-05
2.3024e-05
2.29998e-05
2.29763e-05
2.29533e-05
2.2931e-05
2.29094e-05
2.28884e-05
2.28682e-05
2.28486e-05
2.28299e-05
2.28119e-05
2.27948e-05
2.27786e-05
2.27633e-05
2.27488e-05
2.42113e-05
2.41769e-05
2.41426e-05
2.41083e-05
2.40742e-05
2.40402e-05
2.40063e-05
2.39725e-05
2.39389e-05
2.39053e-05
2.38719e-05
2.38387e-05
2.38056e-05
2.37727e-05
2.374e-05
2.37075e-05
2.36752e-05
2.36431e-05
2.36112e-05
2.35796e-05
2.35482e-05
2.35171e-05
2.34863e-05
2.34558e-05
2.34255e-05
2.33957e-05
2.33661e-05
2.33369e-05
2.3308e-05
2.32796e-05
2.32516e-05
2.32239e-05
2.31967e-05
2.317e-05
2.31438e-05
2.3118e-05
2.30928e-05
2.30681e-05
2.3044e-05
2.30204e-05
2.29975e-05
2.29752e-05
2.29536e-05
2.29327e-05
2.29124e-05
2.2893e-05
2.28742e-05
2.28563e-05
2.28392e-05
2.2823e-05
2.28076e-05
2.27932e-05
2.42608e-05
2.42261e-05
2.41915e-05
2.41569e-05
2.41225e-05
2.40882e-05
2.40539e-05
2.40199e-05
2.39859e-05
2.39521e-05
2.39184e-05
2.38849e-05
2.38516e-05
2.38184e-05
2.37855e-05
2.37527e-05
2.37202e-05
2.36879e-05
2.36558e-05
2.3624e-05
2.35924e-05
2.35612e-05
2.35302e-05
2.34995e-05
2.34692e-05
2.34391e-05
2.34095e-05
2.33802e-05
2.33512e-05
2.33227e-05
2.32946e-05
2.32669e-05
2.32397e-05
2.32129e-05
2.31866e-05
2.31608e-05
2.31356e-05
2.31109e-05
2.30867e-05
2.30632e-05
2.30402e-05
2.30179e-05
2.29963e-05
2.29753e-05
2.29551e-05
2.29356e-05
2.29168e-05
2.28989e-05
2.28817e-05
2.28654e-05
2.28499e-05
2.28354e-05
2.43087e-05
2.42736e-05
2.42387e-05
2.42038e-05
2.4169e-05
2.41344e-05
2.40999e-05
2.40655e-05
2.40313e-05
2.39972e-05
2.39632e-05
2.39295e-05
2.38959e-05
2.38625e-05
2.38293e-05
2.37964e-05
2.37637e-05
2.37312e-05
2.36989e-05
2.36669e-05
2.36352e-05
2.36038e-05
2.35727e-05
2.35419e-05
2.35114e-05
2.34813e-05
2.34515e-05
2.34221e-05
2.33931e-05
2.33645e-05
2.33363e-05
2.33085e-05
2.32812e-05
2.32544e-05
2.3228e-05
2.32022e-05
2.31769e-05
2.31521e-05
2.31279e-05
2.31043e-05
2.30814e-05
2.3059e-05
2.30373e-05
2.30163e-05
2.2996e-05
2.29764e-05
2.29575e-05
2.29394e-05
2.29221e-05
2.29056e-05
2.289e-05
2.28752e-05
2.43547e-05
2.43193e-05
2.42841e-05
2.42489e-05
2.42138e-05
2.41789e-05
2.41441e-05
2.41095e-05
2.4075e-05
2.40407e-05
2.40065e-05
2.39725e-05
2.39387e-05
2.39051e-05
2.38718e-05
2.38386e-05
2.38057e-05
2.3773e-05
2.37406e-05
2.37085e-05
2.36766e-05
2.36451e-05
2.36138e-05
2.35829e-05
2.35523e-05
2.3522e-05
2.34922e-05
2.34626e-05
2.34335e-05
2.34048e-05
2.33765e-05
2.33487e-05
2.33213e-05
2.32944e-05
2.3268e-05
2.32421e-05
2.32167e-05
2.31918e-05
2.31675e-05
2.31438e-05
2.31208e-05
2.30983e-05
2.30765e-05
2.30553e-05
2.30349e-05
2.30151e-05
2.29961e-05
2.29778e-05
2.29603e-05
2.29435e-05
2.29277e-05
2.29125e-05
2.4399e-05
2.43633e-05
2.43277e-05
2.42923e-05
2.4257e-05
2.42218e-05
2.41868e-05
2.41519e-05
2.41172e-05
2.40826e-05
2.40482e-05
2.4014e-05
2.398e-05
2.39463e-05
2.39127e-05
2.38794e-05
2.38463e-05
2.38135e-05
2.37809e-05
2.37486e-05
2.37166e-05
2.36849e-05
2.36535e-05
2.36225e-05
2.35918e-05
2.35614e-05
2.35314e-05
2.35018e-05
2.34726e-05
2.34437e-05
2.34153e-05
2.33874e-05
2.33599e-05
2.33329e-05
2.33063e-05
2.32803e-05
2.32548e-05
2.32298e-05
2.32054e-05
2.31816e-05
2.31583e-05
2.31357e-05
2.31137e-05
2.30923e-05
2.30717e-05
2.30517e-05
2.30324e-05
2.30138e-05
2.2996e-05
2.29789e-05
2.29627e-05
2.29471e-05
2.44056e-05
2.43698e-05
2.43341e-05
2.42985e-05
2.42631e-05
2.42279e-05
2.41928e-05
2.41578e-05
2.41231e-05
2.40885e-05
2.40541e-05
2.40199e-05
2.3986e-05
2.39522e-05
2.39187e-05
2.38855e-05
2.38525e-05
2.38198e-05
2.37874e-05
2.37552e-05
2.37234e-05
2.36919e-05
2.36607e-05
2.36298e-05
2.35993e-05
2.35692e-05
2.35394e-05
2.35101e-05
2.34811e-05
2.34526e-05
2.34245e-05
2.33969e-05
2.33697e-05
2.3343e-05
2.33168e-05
2.32911e-05
2.3266e-05
2.32414e-05
2.32173e-05
2.31939e-05
2.3171e-05
2.31487e-05
2.31271e-05
2.31062e-05
2.30859e-05
2.30662e-05
2.30473e-05
2.30291e-05
2.30116e-05
2.29948e-05
2.29788e-05
2.44463e-05
2.44102e-05
2.43743e-05
2.43386e-05
2.43029e-05
2.42674e-05
2.42321e-05
2.4197e-05
2.4162e-05
2.41273e-05
2.40927e-05
2.40584e-05
2.40242e-05
2.39903e-05
2.39567e-05
2.39233e-05
2.38901e-05
2.38573e-05
2.38247e-05
2.37924e-05
2.37604e-05
2.37287e-05
2.36974e-05
2.36664e-05
2.36357e-05
2.36055e-05
2.35756e-05
2.3546e-05
2.35169e-05
2.34882e-05
2.346e-05
2.34321e-05
2.34048e-05
2.33779e-05
2.33515e-05
2.33256e-05
2.33002e-05
2.32753e-05
2.3251e-05
2.32273e-05
2.32041e-05
2.31815e-05
2.31595e-05
2.31382e-05
2.31175e-05
2.30975e-05
2.30781e-05
2.30594e-05
2.30413e-05
2.3024e-05
2.30073e-05
2.44854e-05
2.44492e-05
2.4413e-05
2.43771e-05
2.43412e-05
2.43055e-05
2.427e-05
2.42347e-05
2.41996e-05
2.41646e-05
2.41299e-05
2.40954e-05
2.40611e-05
2.4027e-05
2.39932e-05
2.39596e-05
2.39263e-05
2.38933e-05
2.38605e-05
2.38281e-05
2.37959e-05
2.37641e-05
2.37326e-05
2.37014e-05
2.36706e-05
2.36401e-05
2.361e-05
2.35803e-05
2.3551e-05
2.35221e-05