/*--------------------------------*- C++ -*----------------------------------*\
| =========                 |                                                 |
| \\      /  F ield         | OpenFOAM: The Open Source CFD Toolbox           |
|  \\    /   O peration     | Version:  v1706                                 |
|   \\  /    A nd           | Web:      www.OpenFOAM.com                      |
|    \\/     M anipulation  |                                                 |
\*---------------------------------------------------------------------------*/
FoamFile
{
    version     2.0;
    format      ascii;
    class       volScalarField;
    location    "3.1e-05";
    object      p;
}
// * * * * * * * * * * * * * * * * * * * * * * * * * * * * * * * * * * * * * //

dimensions      [1 -1 -2 0 0 0 0];


internalField   nonuniform List<scalar> 
30038
(
21.9139
21.9139
21.9139
21.9139
21.9139
21.9139
21.9139
21.9139
21.9139
21.9139
21.9139
21.9139
21.9139
21.9139
21.9139
21.9139
21.9139
21.9139
21.9139
21.9139
21.9139
21.9139
21.9139
21.9139
21.9139
21.9139
21.9139
21.9139
21.9139
21.9139
21.9139
21.9139
21.9139
21.9139
21.9139
21.9139
21.9139
21.9139
21.9139
21.9139
21.9139
21.9139
21.9139
21.9139
21.9139
21.9139
21.9139
21.9139
21.9139
21.9139
21.9139
21.9139
21.9139
21.9139
21.9139
21.9139
21.9139
21.9139
21.9139
21.9139
21.9139
21.9139
21.9139
21.9139
21.9139
21.9139
21.9139
21.9139
21.9139
21.9139
21.9139
21.9139
21.9139
21.9139
21.9139
21.9139
21.9139
21.9139
21.9139
21.9139
21.9139
21.9139
21.9139
21.9139
21.9139
21.9139
21.9139
21.9139
21.9139
21.9139
21.9139
21.9139
21.9139
21.9139
21.9139
21.9139
21.9139
21.9139
21.9139
21.9139
21.9139
21.9139
21.9139
21.9139
21.9139
21.9139
21.9139
21.9139
21.9139
21.9139
21.9139
21.9139
21.9139
21.9139
21.9139
21.9139
21.9139
21.9139
21.9139
21.9139
21.9139
21.9139
21.9139
21.9139
21.9139
21.9139
21.9139
21.9139
21.9139
21.9139
21.9139
21.9139
21.9139
21.9139
21.9139
21.9139
21.9139
21.9139
21.9139
21.9139
21.9139
21.9139
21.9139
21.9139
21.9139
21.9139
21.9139
21.9139
21.9139
21.9139
21.9139
21.9139
21.9139
21.9139
21.9139
21.9139
21.9139
21.9139
21.9139
21.9139
21.9139
21.9139
21.9139
21.9139
21.9139
21.9139
21.9139
21.9139
21.9139
21.9139
21.9139
21.9139
21.9139
21.9139
21.9139
21.9139
21.9139
21.9139
21.9139
21.9139
21.9139
21.9139
21.9139
21.9139
21.9139
21.9139
21.9139
21.9139
21.9139
21.9139
21.9139
21.9139
21.9139
21.9139
21.9139
21.9139
21.9139
21.9139
21.9139
21.9139
21.9139
21.9139
21.9139
21.9139
21.9139
21.9139
21.9139
21.9139
21.9139
21.9139
21.9139
21.9139
21.9139
21.9139
21.9139
21.9139
21.9139
21.9139
21.9139
21.9139
21.9139
21.9139
21.9139
21.9139
21.9139
21.9139
21.9139
21.9139
21.9139
21.9139
21.9139
21.9139
21.9139
21.9139
21.9139
21.9139
21.9139
21.9139
21.9139
21.9139
21.9139
21.9139
21.9139
21.9139
21.9139
21.9139
21.9139
21.9139
21.9139
21.9139
21.9139
21.9139
21.9139
21.9139
21.9139
21.9139
21.9139
21.9139
21.9139
21.9139
21.9139
21.9139
21.9139
21.9139
21.9139
21.914
21.9139
21.9139
21.9139
21.9139
21.9139
21.9139
21.9139
21.9139
21.9139
21.9139
21.9139
21.9139
21.9139
21.9139
21.9139
21.9139
21.9139
21.9139
21.9139
21.9139
21.9139
21.9139
21.9139
21.9139
21.9139
21.9139
21.9139
21.9139
21.9139
21.9139
21.9139
21.9139
21.9139
21.9139
21.914
21.914
21.9141
21.9141
21.9139
21.9139
21.9139
21.9139
21.9139
21.9139
21.9139
21.9139
21.9139
21.9139
21.9139
21.9139
21.9139
21.9139
21.9139
21.9139
21.9139
21.9139
21.9139
21.9139
21.9139
21.9139
21.9139
21.9139
21.9139
21.9139
21.9139
21.9139
21.9139
21.9139
21.9139
21.9139
21.914
21.914
21.914
21.9141
21.9142
21.9144
21.9146
21.9139
21.9139
21.9139
21.9139
21.9139
21.9139
21.9139
21.9139
21.9139
21.9139
21.9139
21.9139
21.9139
21.9139
21.9139
21.9139
21.9139
21.9139
21.9139
21.9139
21.9139
21.9139
21.9139
21.9139
21.9139
21.9139
21.9139
21.9139
21.9139
21.914
21.914
21.914
21.9141
21.9142
21.9143
21.9146
21.9149
21.9154
21.9161
21.9139
21.9139
21.9139
21.9139
21.9139
21.9139
21.9139
21.9139
21.9139
21.9139
21.9139
21.9139
21.9139
21.9139
21.9139
21.9139
21.9139
21.9139
21.9139
21.9139
21.9139
21.9139
21.9139
21.9139
21.9139
21.9139
21.914
21.914
21.914
21.9141
21.9142
21.9143
21.9145
21.9148
21.9153
21.9159
21.9168
21.9183
21.9205
21.9139
21.9139
21.9139
21.9139
21.9139
21.9139
21.9139
21.9139
21.9139
21.9139
21.9139
21.9139
21.9139
21.9139
21.9139
21.9139
21.9139
21.9139
21.9139
21.9139
21.9139
21.9139
21.9139
21.9139
21.914
21.914
21.914
21.9141
21.9142
21.9143
21.9145
21.9148
21.9152
21.9158
21.9166
21.9179
21.9198
21.9226
21.9267
21.9331
21.9139
21.9139
21.9139
21.9139
21.9139
21.9139
21.9139
21.9139
21.9139
21.9139
21.9139
21.9139
21.9139
21.9139
21.9139
21.9139
21.9139
21.9139
21.9139
21.9139
21.9139
21.914
21.914
21.914
21.9141
21.9142
21.9143
21.9145
21.9148
21.9151
21.9157
21.9165
21.9177
21.9194
21.9219
21.9256
21.931
21.939
21.9509
21.969
21.9139
21.9139
21.9139
21.9139
21.9139
21.9139
21.9139
21.9139
21.9139
21.9139
21.9139
21.9139
21.9139
21.9139
21.9139
21.9139
21.9139
21.914
21.914
21.914
21.914
21.9141
21.9142
21.9143
21.9145
21.9148
21.9151
21.9157
21.9164
21.9175
21.9191
21.9215
21.9249
21.9298
21.937
21.9475
21.9628
21.9854
22.0186
22.069
21.9139
21.9139
21.9139
21.9139
21.9139
21.9139
21.9139
21.9139
21.9139
21.9139
21.9139
21.9139
21.9139
21.9139
21.914
21.914
21.914
21.9141
21.9141
21.9142
21.9143
21.9145
21.9148
21.9151
21.9156
21.9164
21.9175
21.919
21.9212
21.9244
21.9289
21.9355
21.9451
21.959
21.9791
22.0084
22.0512
22.1137
22.2051
22.3423
21.9139
21.9139
21.9139
21.9139
21.9139
21.9139
21.9139
21.9139
21.9139
21.9139
21.9139
21.914
21.914
21.914
21.9141
21.9141
21.9142
21.9143
21.9145
21.9148
21.9152
21.9157
21.9164
21.9174
21.9189
21.921
21.9241
21.9284
21.9346
21.9435
21.9563
21.9747
22.0012
22.0396
22.0951
22.1754
22.2918
22.4611
22.7064
23.0703
21.9139
21.9139
21.9139
21.9139
21.9139
21.9139
21.9139
21.9139
21.914
21.914
21.914
21.9141
21.9141
21.9142
21.9144
21.9146
21.9148
21.9152
21.9157
21.9164
21.9175
21.9189
21.921
21.9239
21.9281
21.934
21.9424
21.9544
21.9715
21.996
22.0312
22.0816
22.1539
22.2579
22.4074
22.6224
22.9314
23.3758
24.0109
24.9357
21.9139
21.9139
21.9139
21.9139
21.914
21.914
21.914
21.914
21.9141
21.9142
21.9143
21.9144
21.9146
21.9149
21.9153
21.9158
21.9165
21.9176
21.919
21.9211
21.924
21.928
21.9337
21.9418
21.9533
21.9695
21.9925
22.0252
22.0718
22.1381
22.2327
22.3676
22.5602
22.8348
23.2259
23.7817
24.569
25.6807
27.2301
29.4229
21.9139
21.9139
21.914
21.914
21.914
21.9141
21.9141
21.9142
21.9143
21.9145
21.9147
21.915
21.9154
21.9159
21.9167
21.9177
21.9192
21.9213
21.9242
21.9282
21.9338
21.9417
21.9528
21.9684
21.9904
22.0214
22.0651
22.127
22.2145
22.3384
22.5139
22.7623
23.1136
23.6093
24.3067
25.2837
26.643
28.517
31.0836
34.5455
39.3009
21.914
21.914
21.9141
21.9142
21.9142
21.9144
21.9145
21.9148
21.9151
21.9155
21.9161
21.9169
21.918
21.9195
21.9216
21.9245
21.9286
21.9342
21.9421
21.953
21.9683
21.9896
22.0194
22.0612
22.1198
22.2021
22.3178
22.4803
22.7088
23.0296
23.4792
24.1076
24.9826
26.1939
27.8565
30.1171
33.1666
37.2306
42.5915
49.5298
59.2306
21.9141
21.9142
21.9143
21.9144
21.9146
21.9149
21.9152
21.9157
21.9163
21.9171
21.9183
21.9199
21.9221
21.9251
21.9293
21.935
21.9429
21.9539
21.969
21.99
22.0192
22.0597
22.1162
22.1948
22.3045
22.4576
22.671
22.9687
23.3831
23.9583
24.7542
25.8501
27.3479
29.3751
32.0962
35.7165
40.4681
46.6253
54.6342
65.2707
79.1137
97.5893
21.9144
21.9145
21.9147
21.915
21.9154
21.9159
21.9166
21.9175
21.9187
21.9204
21.9228
21.9259
21.9302
21.9362
21.9443
21.9554
21.9706
21.9917
22.0206
22.0606
22.1159
22.1922
22.298
22.4443
22.647
22.9275
23.3153
23.8501
24.5852
25.5912
26.9594
28.8036
31.2663
34.5294
38.8087
44.3372
51.4413
60.7022
72.9092
88.5942
107.579
128.073
149.211
21.9152
21.9156
21.9161
21.9169
21.9179
21.9193
21.9211
21.9236
21.927
21.9315
21.9377
21.9461
21.9576
21.9733
21.9946
22.0239
22.0639
22.1188
22.1941
22.2976
22.4398
22.6352
22.9038
23.2723
23.7771
24.4662
25.4034
26.6708
28.3713
30.6307
33.6092
37.5045
42.532
48.943
57.1722
67.9237
81.9121
99.3078
119.27
139.902
159.153
175.008
187.459
21.9165
21.9173
21.9185
21.92
21.922
21.9247
21.9283
21.9332
21.9398
21.9487
21.9607
21.977
21.999
22.029
22.0697
22.1251
22.2005
22.3034
22.4437
22.635
22.896
23.2516
23.7353
24.391
25.2767
26.4674
28.0566
30.1578
32.912
36.4972
41.1182
46.9883
54.4262
64.012
76.4934
92.3382
111.202
131.685
151.725
169.361
183.392
193.585
200.382
204.52
21.9192
21.9209
21.9231
21.9261
21.9301
21.9354
21.9425
21.952
21.9648
21.982
22.0051
22.0362
22.0782
22.1349
22.2116
22.3154
22.4559
22.6461
22.9036
23.2519
23.7222
24.3554
25.2047
26.3389
27.8441
29.824
32.404
35.744
40.0352
45.4753
52.3068
60.9799
72.1928
86.5782
104.18
124.072
144.46
163.311
179.069
191.079
199.438
204.861
207.889
209.522
209.907
21.9245
21.9279
21.9323
21.9381
21.9459
21.9563
21.9701
21.9885
22.013
22.0459
22.0898
22.1488
22.2279
22.3342
22.477
22.6689
22.9266
23.2728
23.7368
24.357
25.183
26.2786
27.7233
29.6131
32.0617
35.2114
39.2386
44.3344
50.6971
58.6665
68.8491
81.9407
98.2568
117.291
137.596
157.228
174.394
188.092
198.054
204.805
208.91
211.159
212.142
212.237
212.172
211.838
21.9301
21.9351
21.9417
21.9503
21.9617
21.9768
21.9968
22.0233
22.0584
22.1051
22.1673
22.2501
22.3605
22.5077
22.7041
22.966
23.3149
23.7793
24.3955
25.2101
26.2826
27.6877
29.5145
31.8676
34.8745
38.6971
43.5188
49.5167
56.9488
66.3161
78.3077
93.4158
111.464
131.374
151.376
169.618
184.76
196.302
204.361
209.647
212.62
214.225
214.622
214.603
214.422
213.931
213.134
212.1
21.9559
21.9686
21.9854
22.0074
22.0363
22.0745
22.1248
22.1913
22.2792
22.3955
22.5495
22.7533
23.0231
23.3798
23.851
24.4716
25.286
26.3502
27.7345
29.5225
31.8116
34.717
38.3865
42.9941
48.7091
55.7333
64.4685
75.5575
89.5888
106.635
125.948
145.999
164.969
181.315
194.26
203.66
210.042
213.953
216.097
217.027
217.085
216.992
216.644
215.965
215.066
213.983
212.754
211.338
21.9774
21.9962
22.0208
22.0529
22.0948
22.1498
22.2219
22.3165
22.4408
22.6041
22.8186
23.1002
23.47
23.9546
24.5881
25.413
26.4827
27.8638
29.6355
31.8887
34.7292
38.2919
42.7402
48.2407
54.9581
63.213
73.5812
86.6916
102.796
121.414
141.277
160.664
177.951
192.089
202.777
210.219
215.103
217.849
219.303
219.63
219.582
219.362
218.832
217.999
217.009
215.845
214.52
213.143
211.79
210.352
22.0739
22.1207
22.1815
22.2607
22.3639
22.4985
22.674
22.9027
23.2009
23.5892
24.0942
24.7492
25.5954
26.6842
28.0791
29.8554
32.0989
34.9073
38.4042
42.7438
48.0879
54.5808
62.479
72.2869
84.6388
99.9033
117.811
137.335
156.894
174.854
189.99
201.797
210.301
216.043
219.552
221.44
222.219
222.204
222.077
221.674
220.955
220.036
218.948
217.699
216.331
214.953
213.563
212.168
210.816
209.401
22.3099
22.4239
22.5715
22.7626
23.0097
23.3293
23.7424
24.2754
24.9612
25.84
26.9615
28.3869
30.1884
32.4469
35.2536
38.7223
42.9989
48.2392
54.5768
62.2189
71.606
83.3551
97.9063
115.148
134.252
153.801
172.195
188.118
200.87
210.357
216.921
221.165
223.53
224.715
224.911
224.81
224.535
223.935
223.066
222.062
220.889
219.554
218.171
216.781
215.377
213.984
212.606
211.23
209.892
208.491
22.8744
23.1448
23.4916
23.9365
24.5059
25.2325
26.1558
27.3244
28.7975
30.6446
32.9422
35.776
39.2516
43.5077
48.6937
54.9364
62.4063
71.4918
82.7816
96.7545
113.409
132.075
151.491
170.126
186.623
200.147
210.478
217.809
222.705
225.631
227.168
227.675
227.583
227.401
226.909
226.121
225.179
224.074
222.812
221.436
220.049
218.638
217.226
215.827
214.438
213.057
211.691
210.325
208.995
207.602
24.1802
24.7956
25.5742
26.555
27.7858
29.3246
31.2381
33.5988
36.4875
40.0034
44.2792
49.4581
55.6612
63.0307
71.9165
82.8776
96.4082
112.576
130.828
150.037
168.761
185.641
199.762
210.779
218.8
224.277
227.735
229.585
230.419
230.449
230.292
229.909
229.218
228.307
227.273
226.08
224.733
223.344
221.943
220.521
219.109
217.703
216.304
214.915
213.534
212.161
210.8
209.439
208.112
206.725
27.0533
28.3629
29.9862
31.9877
34.4358
37.4068
40.9955
45.33
50.5473
56.7615
64.0943
72.8699
83.6207
96.8415
112.634
130.524
149.494
168.192
185.288
199.826
211.37
219.962
225.951
229.858
232.078
233.176
233.376
233.211
232.941
232.331
231.454
230.487
229.353
228.064
226.682
225.29
223.865
222.437
221.019
219.606
218.201
216.803
215.412
214.027
212.65
211.28
209.921
208.563
207.24
205.859
32.9174
35.4778
38.5587
42.2524
46.6842
51.9842
58.2574
65.6117
74.358
85.0086
98.0461
113.578
131.174
149.899
168.488
185.658
200.445
212.359
221.383
227.787
232.065
234.63
235.948
236.349
236.23
235.998
235.466
234.66
233.713
232.636
231.412
230.049
228.659
227.246
225.813
224.387
222.963
221.542
220.129
218.721
217.32
215.924
214.534
213.151
211.776
210.407
209.051
207.697
206.378
205.004
43.8063
48.3742
53.8007
60.1786
67.6088
76.4024
87.0577
100.033
115.415
132.791
151.281
169.7
186.822
201.7
213.829
223.139
229.856
234.423
237.278
238.774
239.36
239.315
239.083
238.655
237.906
236.969
235.948
234.766
233.444
232.061
230.665
229.229
227.793
226.363
224.933
223.509
222.088
220.672
219.26
217.853
216.451
215.055
213.665
212.283
210.909
209.543
208.19
206.841
205.527
204.161
62.5641
70.1235
79.0403
89.8031
102.831
118.17
135.396
153.667
171.866
188.832
203.655
215.844
225.295
232.206
236.978
240.037
241.709
242.436
242.472
242.24
241.876
241.175
240.26
239.281
238.147
236.871
235.499
234.108
232.682
231.241
229.806
228.369
226.934
225.504
224.076
222.652
221.231
219.814
218.4
216.992
215.589
214.193
212.804
211.422
210.051
208.688
207.339
205.995
204.686
203.329
93.3008
106.492
121.88
139.016
157.08
175.011
191.72
206.356
218.453
227.905
234.886
239.768
242.949
244.757
245.566
245.693
245.482
245.147
244.486
243.61
242.639
241.545
240.317
238.965
237.581
236.169
234.728
233.289
231.849
230.406
228.967
227.53
226.095
224.663
223.233
221.806
220.382
218.962
217.546
216.137
214.733
213.337
211.949
210.57
209.201
207.842
206.498
205.16
203.857
202.509
143.686
161.541
179.151
195.505
209.822
221.683
231
237.927
242.819
246.047
247.94
248.794
248.98
248.799
248.438
247.86
247.008
246.037
244.979
243.778
242.453
241.08
239.688
238.251
236.807
235.366
233.919
232.474
231.031
229.588
228.146
226.705
225.266
223.829
222.395
220.964
219.537
218.115
216.698
215.287
213.884
212.488
211.102
209.725
208.36
207.006
205.668
204.336
203.04
201.701
200.183
214.055
225.545
234.593
241.349
246.154
249.355
251.255
252.128
252.351
252.193
251.818
251.273
250.441
249.462
248.44
247.271
245.976
244.615
243.229
241.802
240.359
238.921
237.472
236.022
234.574
233.125
231.676
230.227
228.779
227.331
225.885
224.441
222.999
221.561
220.126
218.696
217.272
215.854
214.444
213.041
211.647
210.263
208.89
207.53
206.181
204.848
203.524
202.235
200.906
238.677
245.155
249.779
252.881
254.726
255.584
255.796
255.653
255.275
254.74
253.926
252.943
251.932
250.791
249.531
248.177
246.801
245.387
243.947
242.508
241.062
239.609
238.158
236.704
235.25
233.795
232.34
230.884
229.429
227.973
226.52
225.067
223.618
222.172
220.73
219.293
217.861
216.435
215.017
213.607
212.206
210.815
209.434
208.065
206.709
205.366
204.04
202.723
201.443
200.124
256.622
258.356
259.152
259.341
259.195
258.813
258.236
257.465
256.487
255.468
254.347
253.106
251.764
250.399
249.003
247.568
246.13
244.686
243.233
241.78
240.325
238.867
237.407
235.946
234.484
233.021
231.558
230.094
228.631
227.169
225.709
224.252
222.798
221.348
219.903
218.464
217.031
215.605
214.187
212.778
211.379
209.991
208.614
207.249
205.899
204.562
203.243
201.935
200.663
199.355
262.981
262.813
262.414
261.809
261.049
260.078
259.031
257.928
256.708
255.384
254.03
252.65
251.219
249.783
248.344
246.893
245.44
243.984
242.524
241.061
239.597
238.13
236.661
235.191
233.719
232.247
230.775
229.304
227.834
226.366
224.901
223.439
221.982
220.529
219.082
217.641
216.207
214.782
213.365
211.958
210.561
209.176
207.803
206.444
205.099
203.769
202.458
201.158
199.895
198.6
266.08
265.449
264.661
263.718
262.651
261.552
260.348
259.031
257.685
256.318
254.899
253.468
252.037
250.588
249.134
247.68
246.219
244.755
243.289
241.818
240.345
238.87
237.393
235.914
234.434
232.953
231.473
229.993
228.515
227.039
225.566
224.096
222.63
221.17
219.714
218.266
216.824
215.39
213.966
212.55
211.146
209.752
208.371
207.003
205.649
204.311
202.988
201.685
200.395
199.141
197.857
267.39
266.318
265.201
264.016
262.716
261.375
260.02
258.609
257.182
255.759
254.316
252.864
251.412
249.953
248.488
247.021
245.549
244.073
242.594
241.113
239.628
238.142
236.654
235.165
233.676
232.187
230.699
229.213
227.728
226.247
224.769
223.295
221.826
220.362
218.906
217.456
216.014
214.581
213.157
211.744
210.342
208.953
207.576
206.213
204.865
203.534
202.219
200.924
199.643
198.399
197.128
268.9
267.716
266.432
265.089
263.745
262.351
260.93
259.513
258.076
256.627
255.179
253.722
252.259
250.791
249.319
247.842
246.361
244.877
243.388
241.897
240.404
238.908
237.411
235.913
234.415
232.918
231.421
229.926
228.433
226.944
225.457
223.975
222.498
221.026
219.561
218.103
216.653
215.211
213.779
212.357
210.947
209.548
208.163
206.791
205.434
204.093
202.768
201.462
200.176
198.905
197.671
196.412
268.841
267.501
266.122
264.704
263.294
261.867
260.423
258.979
257.527
256.064
254.599
253.129
251.651
250.169
248.683
247.192
245.698
244.2
242.7
241.197
239.692
238.186
236.679
235.172
233.666
232.16
230.657
229.155
227.657
226.162
224.672
223.186
221.706
220.232
218.766
217.307
215.857
214.416
212.986
211.566
210.158
208.764
207.382
206.016
204.665
203.331
202.014
200.716
199.439
198.179
196.955
195.71
268.512
267.106
265.689
264.249
262.809
261.363
259.905
258.443
256.975
255.498
254.017
252.531
251.039
249.543
248.042
246.538
245.03
243.52
242.008
240.493
238.978
237.462
235.946
234.431
232.917
231.404
229.894
228.387
226.884
225.385
223.891
222.402
220.92
219.445
217.977
216.518
215.069
213.629
212.2
210.784
209.379
207.989
206.612
205.252
203.907
202.58
201.272
199.982
198.715
197.465
196.253
195.021
268.109
266.673
265.234
263.779
262.32
260.856
259.382
257.903
256.418
254.926
253.429
251.927
250.421
248.91
247.396
245.878
244.358
242.836
241.313
239.788
238.263
236.738
235.214
233.691
232.17
230.651
229.135
227.623
226.115
224.612
223.115
221.624
220.139
218.663
217.195
215.737
214.288
212.85
211.424
210.01
208.61
207.224
205.853
204.498
203.16
201.841
200.541
199.261
198.004
196.765
195.563
194.345
267.688
266.231
264.772
263.302
261.824
260.342
258.851
257.355
255.853
254.346
252.834
251.317
249.796
248.272
246.745
245.215
243.683
242.15
240.617
239.082
237.548
236.015
234.483
232.952
231.425
229.9
228.379
226.862
225.35
223.844
222.344
220.851
219.366
217.889
216.421
214.963
213.515
212.08
210.656
209.246
207.85
206.468
205.103
203.755
202.425
201.113
199.822
198.551
197.305
196.077
194.887
193.682
267.257
265.782
264.302
262.815
261.32
259.819
258.312
256.799
255.281
253.759
252.232
250.701
249.167
247.63
246.09
244.549
243.007
241.463
239.92
238.376
236.834
235.292
233.753
232.216
230.682
229.152
227.626
226.106
224.59
223.081
221.579
220.085
218.598
217.121
215.654
214.197
212.751
211.318
209.897
208.491
207.099
205.723
204.364
203.023
201.7
200.397
199.115
197.854
196.618
195.401
194.223
193.033
266.815
265.322
263.823
262.318
260.805
259.287
257.764
256.236
254.702
253.165
251.624
250.08
248.533
246.984
245.433
243.881
242.328
240.775
239.223
237.671
236.12
234.572
233.026
231.483
229.943
228.409
226.879
225.354
223.836
222.324
220.82
219.325
217.838
216.361
214.894
213.439
211.995
210.565
209.148
207.746
206.359
204.989
203.636
202.301
200.986
199.692
198.419
197.169
195.943
194.739
193.573
192.397
264.851
263.334
261.811
260.282
258.748
257.209
255.665
254.118
252.567
251.013
249.456
247.897
246.336
244.775
243.212
241.65
240.088
238.526
236.966
235.409
233.853
232.301
230.753
229.208
227.669
226.135
224.608
223.087
221.573
220.068
218.572
217.085
215.608
214.143
212.689
211.248
209.821
208.408
207.01
205.629
204.264
202.918
201.591
200.284
198.999
197.735
196.495
195.281
194.088
192.935
191.773
264.37
262.835
261.296
259.751
258.201
256.647
255.089
253.528
251.964
250.397
248.829
247.258
245.687
244.115
242.543
240.971
239.401
237.831
236.264
234.699
233.138
231.58
230.026
228.478
226.934
225.397
223.867
222.344
220.829
219.322
217.826
216.339
214.863
213.399
211.948
210.51
209.086
207.677
206.284
204.908
203.55
202.211
200.892
199.593
198.317
197.063
195.834
194.631
193.451
192.31
191.163
263.879
262.328
260.773
259.212
257.648
256.08
254.509
252.935
251.358
249.779
248.199
246.618
245.037
243.455
241.874
240.294
238.715
237.138
235.564
233.993
232.426
230.863
229.304
227.751
226.205
224.665
223.132
221.607
220.091
218.584
217.087
215.601
214.126
212.664
211.215
209.78
208.36
206.956
205.568
204.198
202.846
201.514
200.203
198.913
197.646
196.403
195.185
193.994
192.826
191.697
190.566
261.814
260.243
258.669
257.09
255.509
253.924
252.338
250.749
249.159
247.569
245.977
244.386
242.795
241.206
239.617
238.031
236.447
234.867
233.29
231.717
230.149
228.587
227.03
225.48
223.937
222.403
220.876
219.359
217.852
216.356
214.87
213.398
211.938
210.491
209.06
207.644
206.244
204.862
203.498
202.153
200.829
199.525
198.245
196.987
195.755
194.547
193.368
192.213
191.098
189.981
261.294
259.708
258.12
256.528
254.934
253.337
251.739
250.139
248.538
246.937
245.336
243.736
242.136
240.539
238.943
237.349
235.759
234.173
232.59
231.013
229.44
227.874
226.314
224.761
223.216
221.68
220.152
218.635
217.128
215.632
214.148
212.677
211.219
209.776
208.348
206.937
205.542
204.165
202.808
201.47
200.153
198.859
197.587
196.34
195.118
193.922
192.755
191.613
190.511
189.409
260.768
259.169
257.567
255.962
254.356
252.747
251.138
249.527
247.916
246.306
244.696
243.087
241.479
239.873
238.27
236.67
235.074
233.482
231.894
230.312
228.736
227.166
225.603
224.048
222.501
220.963
219.435
217.917
216.411
214.916
213.433
211.964
210.51
209.07
207.646
206.239
204.85
203.479
202.128
200.798
199.489
198.203
196.941
195.704
194.493
193.308
192.153
191.024
189.936
188.85
260.237
258.625
257.01
255.394
253.776
252.156
250.536
248.915
247.295
245.675
244.056
242.438
240.823
239.21
237.601
235.995
234.393
232.795
231.203
229.617
228.037
226.463
224.898
223.341
221.792
220.254
218.725
217.207
215.701
214.207
212.727
211.26
209.809
208.373
206.953
205.551
204.167
202.803
201.458
200.136
198.835
197.558
196.306
195.079
193.879
192.706
191.564
190.448
189.373
188.303
259.703
258.078
256.452
254.823
253.194
251.564
249.933
248.303
246.673
245.044
243.417
241.792
240.17
238.55
236.934
235.322
233.715
232.112
230.516
228.926
227.342
225.766
224.199
222.64
221.09
219.551
218.022
216.504
214.999
213.507
212.029
210.565
209.116
207.684
206.269
204.872
203.494
202.136
200.799
199.484
198.192
196.924
195.682
194.465
193.277
192.116
190.986
189.884
188.823
187.768
259.166
257.529
255.89
254.251
252.611
250.971
249.33
247.691
246.052
244.415
242.78
241.148
239.518
237.892
236.27
234.653
233.041
231.434
229.834
228.24
226.654
225.075
223.505
221.945
220.394
218.854
217.326
215.809
214.305
212.815
211.339
209.878
208.433
207.005
205.595
204.203
202.831
201.48
200.15
198.843
197.56
196.301
195.069
193.863
192.686
191.538
190.421
189.333
188.286
187.248
258.626
256.977
255.328
253.678
252.028
250.377
248.728
247.08
245.433
243.788
242.146
240.506
238.87
237.238
235.611
233.988
232.371
230.76
229.156
227.559
225.97
224.39
222.818
221.257
219.706
218.165
216.637
215.121
213.619
212.131
210.657
209.2
207.758
206.335
204.929
203.543
202.178
200.833
199.511
198.212
196.938
195.689
194.467
193.273
192.108
190.973
189.869
188.795
187.762
186.738
256.424
254.764
253.104
251.444
249.785
248.126
246.47
244.815
243.163
241.513
239.867
238.225
236.587
234.955
233.327
231.706
230.091
228.484
226.884
225.293
223.71
222.138
220.575
219.024
217.484
215.956
214.441
212.941
211.455
209.984
208.53
207.093
205.674
204.273
202.893
201.534
200.197
198.883
197.593
196.328
195.089
193.878
192.695
191.542
190.419
189.328
188.267
187.248
186.239
255.87
254.2
252.53
250.861
249.193
247.526
245.861
244.199
242.539
240.883
239.231
237.583
235.94
234.303
232.671
231.046
229.428
227.817
226.215
224.621
223.037
221.463
219.9
218.349
216.809
215.282
213.769
212.271
210.787
209.319
207.869
206.436
205.022
203.627
202.253
200.901
199.571
198.266
196.985
195.729
194.501
193.3
192.128
190.986
189.874
188.797
187.749
186.745
185.752
255.316
253.636
251.957
250.279
248.602
246.927
245.255
243.585
241.919
240.257
238.599
236.945
235.297
233.655
232.019
230.39
228.769
227.156
225.551
223.956
222.371
220.796
219.232
217.681
216.142
214.616
213.105
211.608
210.128
208.663
207.217
205.789
204.38
202.991
201.624
200.279
198.957
197.659
196.387
195.14
193.921
192.73
191.569
190.44
189.342
188.277
187.244
186.254
185.278
253.072
251.384
249.698
248.013
246.33
244.651
242.974
241.302
239.633
237.97
236.311
234.658
233.012
231.372
229.74
228.116
226.5
224.894
223.297
221.71
220.135
218.571
217.02
215.482
213.958
212.448
210.955
209.477
208.017
206.575
205.152
203.749
202.366
201.005
199.666
198.352
197.061
195.797
194.56
193.352
192.172
191.023
189.906
188.821
187.77
186.752
185.776
184.815
252.509
250.813
249.118
247.425
245.736
244.049
242.366
240.688
239.013
237.345
235.681
234.024
232.374
230.731
229.095
227.468
225.85
224.242
222.644
221.057
219.481
217.917
216.367
214.83
213.308
211.801
210.311
208.837
207.38
205.942
204.524
203.125
201.748
200.393
199.062
197.755
196.473
195.219
193.992
192.794
191.626
190.488
189.384
188.312
187.275
186.27
185.309
184.364
250.242
248.54
246.84
245.143
243.45
241.761
240.077
238.397
236.724
235.056
233.395
231.74
230.094
228.456
226.827
225.207
223.597
221.998
220.41
218.835
217.272
215.723
214.188
212.668
211.163
209.675
208.204
206.751
205.317
203.903
202.51
201.139
199.792
198.468
197.169
195.897
194.651
193.434
192.247
191.09
189.965
188.873
187.814
186.79
185.8
184.853
183.923
249.674
247.964
246.257
244.554
242.855
241.16
239.47
237.785
236.107
234.435
232.77
231.112
229.463
227.822
226.191
224.57
222.959
221.36
219.772
218.197
216.635
215.086
213.553
212.034
210.531
209.046
207.578
206.129
204.7
203.292
201.905
200.541
199.2
197.884
196.594
195.33
194.095
192.888
191.711
190.566
189.452
188.373
187.327
186.317
185.341
184.409
183.494
247.391
245.677
243.967
242.262
240.562
238.867
237.177
235.495
233.819
232.15
230.49
228.838
227.196
225.563
223.94
222.329
220.728
219.141
217.565
216.003
214.456
212.923
211.407
209.908
208.425
206.962
205.518
204.094
202.691
201.31
199.952
198.619
197.311
196.029
194.774
193.548
192.352
191.186
190.052
188.951
187.884
186.851
185.855
184.893
183.975
183.078
246.82
245.1
243.384
241.673
239.968
238.268
236.575
234.888
233.209
231.538
229.875
228.22
226.575
224.941
223.317
221.704
220.103
218.514
216.94
215.379
213.833
212.303
210.789
209.293
207.814
206.355
204.915
203.496
202.099
200.725
199.374
198.048
196.748
195.474
194.229
193.013
191.826
190.672
189.549
188.46
187.405
186.385
185.403
184.457
183.556
182.679
246.252
244.526
242.805
241.089
239.379
237.675
235.978
234.287
232.604
230.93
229.264
227.607
225.96
224.323
222.698
221.085
219.484
217.896
216.322
214.763
213.219
211.691
210.18
208.687
207.212
205.757
204.322
202.908
201.517
200.149
198.805
197.487
196.195
194.93
193.694
192.487
191.312
190.168
189.056
187.979
186.937
185.932
184.965
184.037
183.152
182.285
245.689
243.958
242.232
240.51
238.795
237.087
235.385
233.691
232.004
230.326
228.658
226.999
225.351
223.713
222.087
220.474
218.873
217.286
215.713
214.155
212.613
211.088
209.58
208.09
206.619
205.168
203.738
202.33
200.945
199.583
198.246
196.936
195.652
194.396
193.169
191.972
190.807
189.674
188.574
187.51
186.483
185.494
184.544
183.626
182.751
181.893
245.13
243.393
241.661
239.935
238.215
236.502
234.796
233.099
231.409
229.729
228.058
226.398
224.748
223.11
221.483
219.87
218.269
216.683
215.112
213.555
212.016
210.493
208.988
207.501
206.035
204.588
203.163
201.761
200.382
199.027
197.697
196.394
195.119
193.871
192.654
191.467
190.313
189.191
188.106
187.056
186.045
185.067
184.127
183.217
182.354
181.514
244.572
242.83
241.093
239.363
237.639
235.922
234.213
232.512
230.821
229.138
227.466
225.804
224.153
222.514
220.887
219.274
217.674
216.088
214.518
212.964
211.426
209.906
208.405
206.922
205.459
204.018
202.598
201.201
199.828
198.48
197.158
195.863
194.595
193.357
192.149
190.973
189.831
188.723
187.652
186.614
185.612
184.643
183.711
182.818
181.972
181.149
244.019
242.272
240.53
238.796
237.068
235.348
233.636
231.932
230.238
228.554
226.879
225.216
223.565
221.925
220.298
218.685
217.086
215.502
213.933
212.381
210.846
209.329
207.83
206.352
204.893
203.457
202.042
200.651
199.285
197.943
196.628
195.341
194.082
192.854
191.658
190.494
189.365
188.268
187.205
186.176
185.181
184.225
183.31
182.433
181.604
180.797
241.719
239.973
238.234
236.503
234.779
233.064
231.358
229.662
227.976
226.3
224.636
222.983
221.344
219.717
218.104
216.506
214.923
213.356
211.806
210.274
208.76
207.265
205.79
204.336
202.904
201.495
200.11
198.75
197.416
196.109
194.831
193.582
192.365
191.181
190.027
188.906
187.817
186.76
185.742
184.762
183.823
182.923
182.062
181.247
180.455
241.17
239.421
237.678
235.943
234.217
232.499
230.791
229.093
227.405
225.728
224.062
222.409
220.77
219.143
217.531
215.934
214.352
212.787
211.24
209.71
208.199
206.708
205.237
203.788
202.361
200.958
199.579
198.226
196.901
195.602
194.334
193.098
191.889
190.711
189.564
188.448
187.369
186.327
185.323
184.359
183.434
182.548
181.701
180.9
180.122
240.627
238.874
237.128
235.39
233.66
231.94
230.23
228.53
226.84
225.162
223.496
221.843
220.203
218.577
216.966
215.37
213.79
212.227
210.682
209.155
207.647
206.16
204.694
203.249
201.828
200.432
199.061
197.716
196.4
195.112
193.849
192.617
191.414
190.242
189.104
188.002
186.936
185.908
184.919
183.967
183.055
182.183
181.349
180.562
179.798
238.332
236.583
234.842
233.11
231.388
229.675
227.973
226.283
224.604
222.937
221.283
219.644
218.018
216.408
214.813
213.235
211.674
210.132
208.609
207.104
205.622
204.161
202.723
201.308
199.92
198.557
197.219
195.906
194.623
193.366
192.139
190.945
189.784
188.659
187.57
186.517