/*--------------------------------*- C++ -*----------------------------------*\
| =========                 |                                                 |
| \\      /  F ield         | OpenFOAM: The Open Source CFD Toolbox           |
|  \\    /   O peration     | Version:  v1706                                 |
|   \\  /    A nd           | Web:      www.OpenFOAM.com                      |
|    \\/     M anipulation  |                                                 |
\*---------------------------------------------------------------------------*/
FoamFile
{
    version     2.0;
    format      ascii;
    class       volScalarField;
    location    "3.1e-05";
    object      Tv;
}
// * * * * * * * * * * * * * * * * * * * * * * * * * * * * * * * * * * * * * //

dimensions      [0 0 0 1 0 0 0];


internalField   nonuniform List<scalar> 
30038
(
144.4
144.4
144.4
144.4
144.4
144.4
144.4
144.4
144.4
144.4
144.4
144.4
144.4
144.4
144.4
144.4
144.4
144.4
144.4
144.4
144.4
144.4
144.4
144.4
144.4
144.4
144.4
144.4
144.4
144.4
144.4
144.4
144.4
144.4
144.4
144.4
144.4
144.4
144.4
144.4
144.4
144.4
144.4
144.4
144.4
144.4
144.4
144.4
144.4
144.4
144.4
144.4
144.4
144.4
144.4
144.4
144.4
144.4
144.4
144.4
144.4
144.4
144.4
144.4
144.4
144.4
144.4
144.4
144.4
144.4
144.4
144.4
144.4
144.4
144.4
144.4
144.4
144.4
144.4
144.4
144.4
144.4
144.4
144.4
144.4
144.4
144.4
144.4
144.4
144.4
144.4
144.4
144.4
144.4
144.4
144.4
144.4
144.4
144.4
144.4
144.4
144.4
144.4
144.4
144.4
144.4
144.4
144.4
144.4
144.4
144.4
144.4
144.4
144.4
144.4
144.4
144.4
144.4
144.4
144.4
144.4
144.4
144.4
144.4
144.4
144.4
144.4
144.4
144.4
144.4
144.4
144.4
144.4
144.4
144.4
144.4
144.4
144.4
144.4
144.4
144.4
144.4
144.4
144.4
144.4
144.4
144.4
144.4
144.4
144.4
144.4
144.4
144.4
144.4
144.4
144.4
144.4
144.4
144.4
144.4
144.4
144.4
144.4
144.4
144.4
144.4
144.4
144.4
144.4
144.4
144.4
144.4
144.4
144.4
144.4
144.4
144.4
144.4
144.4
144.4
144.4
144.4
144.4
144.4
144.4
144.4
144.4
144.4
144.4
144.4
144.4
144.4
144.4
144.4
144.4
144.4
144.4
144.4
144.4
144.4
144.4
144.4
144.4
144.4
144.4
144.4
144.4
144.4
144.4
144.4
144.4
144.4
144.4
144.4
144.4
144.4
144.4
144.4
144.4
144.4
144.4
144.4
144.4
144.4
144.4
144.4
144.4
144.4
144.4
144.4
144.4
144.4
144.4
144.4
144.4
144.4
144.4
144.4
144.4
144.4
144.4
144.4
144.4
144.4
144.4
144.4
144.4
144.4
144.4
144.4
144.4
144.4
144.4
144.4
144.4
144.4
144.4
144.4
144.4
144.4
144.4
144.4
144.4
144.4
144.4
144.4
144.4
144.4
144.4
144.4
144.4
144.4
144.4
144.4
144.4
144.4
144.4
144.4
144.4
144.4
144.4
144.4
144.4
144.4
144.4
144.4
144.4
144.4
144.4
144.4
144.4
144.4
144.4
144.4
144.4
144.4
144.4
144.4
144.4
144.4
144.4
144.4
144.4
144.4
144.4
144.4
144.4
144.4
144.4
144.4
144.4
144.4
144.4
144.4
144.4
144.4
144.4
144.4
144.4
144.4
144.4
144.4
144.4
144.4
144.4
144.4
144.4
144.4
144.4
144.4
144.4
144.4
144.4
144.4
144.4
144.4
144.4
144.4
144.4
144.4
144.4
144.4
144.4
144.4
144.4
144.4
144.4
144.4
144.4
144.4
144.4
144.4
144.4
144.4
144.4
144.4
144.4
144.4
144.4
144.4
144.4
144.4
144.4
144.4
144.4
144.4
144.4
144.4
144.4
144.4
144.4
144.4
144.4
144.4
144.4
144.4
144.4
144.4
144.4
144.4
144.4
144.4
144.4
144.4
144.4
144.4
144.4
144.4
144.4
144.4
144.4
144.4
144.4
144.4
144.4
144.4
144.4
144.4
144.4
144.4
144.4
144.4
144.4
144.4
144.4
144.4
144.4
144.4
144.4
144.4
144.4
144.4
144.4
144.4
144.4
144.4
144.4
144.4
144.4
144.4
144.4
144.4
144.4
144.4
144.4
144.4
144.4
144.4
144.4
144.4
144.4
144.4
144.4
144.4
144.4
144.4
144.4
144.4
144.4
144.4
144.4
144.4
144.4
144.4
144.4
144.4
144.4
144.4
144.4
144.4
144.4
144.4
144.4
144.4
144.4
144.4
144.4
144.4
144.4
144.4
144.4
144.4
144.4
144.4
144.4
144.4
144.4
144.4
144.4
144.4
144.4
144.4
144.4
144.4
144.4
144.4
144.4
144.4
144.4
144.4
144.4
144.4
144.4
144.4
144.4
144.4
144.4
144.4
144.4
144.4
144.4
144.4
144.4
144.4
144.4
144.4
144.4
144.4
144.4
144.4
144.4
144.4
144.4
144.4
144.4
144.4
144.4
144.4
144.4
144.4
144.4
144.4
144.4
144.4
144.4
144.4
144.4
144.4
144.4
144.4
144.4
144.4
144.4
144.4
144.4
144.4
144.4
144.4
144.4
144.4
144.4
144.4
144.4
144.4
144.4
144.4
144.4
144.4
144.4
144.4
144.4
144.4
144.4
144.4
144.4
144.4
144.4
144.4
144.4
144.4
144.4
144.4
144.4
144.4
144.4
144.4
144.4
144.4
144.4
144.4
144.4
144.4
144.4
144.4
144.4
144.4
144.4
144.4
144.4
144.4
144.4
144.4
144.4
144.4
144.4
144.4
144.4
144.4
144.4
144.4
144.4
144.4
144.4
144.4
144.4
144.4
144.4
144.4
144.4
144.4
144.4
144.4
144.4
144.4
144.4
144.4
144.4
144.4
144.4
144.4
144.4
144.4
144.4
144.4
144.4
144.4
144.4
144.4
144.4
144.4
144.4
144.4
144.4
144.4
144.4
144.4
144.4
144.4
144.4
144.4
144.4
144.4
144.4
144.4
144.4
144.4
144.4
144.4
144.4
144.4
144.4
144.4
144.4
144.4
144.4
144.4
144.4
144.4
144.4
144.4
144.4
144.4
144.4
144.4
144.4
144.4
144.4
144.4
144.4
144.4
144.4
144.4
144.4
144.4
144.4
144.4
144.4
144.4
144.4
144.4
144.4
144.4
144.4
144.4
144.4
144.4
144.4
144.4
144.4
144.4
144.4
144.4
144.4
144.4
144.4
144.4
144.4
144.4
144.4
144.4
144.4
144.4
144.4
144.4
144.4
144.4
144.4
144.4
144.4
144.4
144.4
144.4
144.4
144.4
144.4
144.4
144.4
144.4
144.4
144.4
144.4
144.4
144.4
144.4
144.4
144.4
144.4
144.4
144.4
144.4
144.4
144.4
144.4
144.4
144.4
144.4
144.4
144.4
144.4
144.4
144.4
144.4
144.4
144.4
144.4
144.4
144.4
144.4
144.4
144.4
144.4
144.4
144.4
144.4
144.4
144.4
144.4
144.4
144.4
144.401
144.401
144.402
144.4
144.4
144.4
144.4
144.4
144.4
144.4
144.4
144.4
144.4
144.4
144.4
144.4
144.4
144.4
144.4
144.4
144.4
144.4
144.4
144.4
144.4
144.4
144.4
144.4
144.4
144.4
144.4
144.4
144.4
144.4
144.4
144.4
144.4
144.4
144.401
144.401
144.401
144.402
144.403
144.404
144.4
144.4
144.4
144.4
144.4
144.4
144.4
144.4
144.4
144.4
144.4
144.4
144.4
144.4
144.4
144.4
144.4
144.4
144.4
144.4
144.4
144.4
144.4
144.4
144.4
144.4
144.4
144.4
144.4
144.4
144.4
144.4
144.4
144.401
144.401
144.401
144.402
144.403
144.404
144.406
144.408
144.412
144.4
144.4
144.4
144.4
144.4
144.4
144.4
144.4
144.4
144.4
144.4
144.4
144.4
144.4
144.4
144.4
144.4
144.4
144.4
144.4
144.4
144.4
144.4
144.4
144.4
144.4
144.4
144.4
144.4
144.4
144.4
144.401
144.401
144.401
144.402
144.403
144.404
144.406
144.408
144.411
144.415
144.42
144.426
144.4
144.4
144.4
144.4
144.4
144.4
144.4
144.4
144.4
144.4
144.4
144.4
144.4
144.4
144.4
144.4
144.4
144.4
144.4
144.4
144.4
144.4
144.4
144.4
144.4
144.4
144.4
144.4
144.401
144.401
144.401
144.402
144.403
144.404
144.406
144.408
144.411
144.415
144.42
144.426
144.433
144.443
144.456
144.4
144.4
144.4
144.4
144.4
144.4
144.4
144.4
144.4
144.4
144.4
144.4
144.4
144.4
144.4
144.4
144.4
144.4
144.4
144.4
144.4
144.4
144.4
144.4
144.4
144.4
144.401
144.401
144.401
144.402
144.403
144.404
144.406
144.408
144.411
144.415
144.42
144.426
144.433
144.443
144.455
144.47
144.489
144.514
144.4
144.4
144.4
144.4
144.4
144.4
144.4
144.4
144.4
144.4
144.4
144.4
144.4
144.4
144.4
144.4
144.4
144.4
144.4
144.4
144.4
144.4
144.4
144.4
144.401
144.401
144.402
144.402
144.403
144.404
144.406
144.408
144.411
144.415
144.42
144.426
144.434
144.443
144.455
144.47
144.488
144.511
144.54
144.575
144.621
144.4
144.4
144.4
144.4
144.4
144.4
144.4
144.4
144.4
144.4
144.4
144.4
144.4
144.4
144.4
144.4
144.4
144.4
144.4
144.4
144.4
144.401
144.401
144.401
144.402
144.402
144.403
144.405
144.406
144.409
144.412
144.416
144.421
144.427
144.434
144.444
144.456
144.47
144.489
144.511
144.539
144.573
144.615
144.667
144.73
144.81
144.4
144.4
144.4
144.4
144.4
144.4
144.4
144.4
144.4
144.4
144.4
144.4
144.4
144.4
144.4
144.4
144.4
144.4
144.4
144.4
144.401
144.401
144.401
144.402
144.403
144.404
144.405
144.407
144.409
144.413
144.417
144.422
144.428
144.436
144.445
144.457
144.472
144.49
144.512
144.54
144.573
144.614
144.664
144.725
144.799
144.889
144.997
145.132
144.4
144.4
144.4
144.4
144.4
144.4
144.4
144.4
144.4
144.4
144.4
144.4
144.4
144.4
144.4
144.4
144.4
144.401
144.401
144.401
144.402
144.403
144.404
144.405
144.407
144.41
144.413
144.418
144.423
144.429
144.437
144.447
144.459
144.474
144.492
144.515
144.542
144.575
144.616
144.665
144.725
144.797
144.883
144.987
145.112
145.26
145.436
145.651
144.4
144.4
144.4
144.4
144.4
144.4
144.4
144.4
144.4
144.4
144.4
144.4
144.4
144.4
144.4
144.401
144.401
144.401
144.402
144.402
144.403
144.404
144.406
144.408
144.411
144.414
144.419
144.424
144.431
144.44
144.45
144.462
144.477
144.496
144.519
144.546
144.579
144.62
144.669
144.728
144.799
144.883
144.985
145.106
145.249
145.417
145.616
145.848
146.118
146.44
144.4
144.4
144.4
144.4
144.4
144.4
144.4
144.4
144.4
144.4
144.4
144.4
144.401
144.401
144.401
144.402
144.403
144.404
144.405
144.407
144.409
144.412
144.416
144.421
144.426
144.434
144.442
144.453
144.466
144.482
144.501
144.524
144.552
144.586
144.626
144.675
144.734
144.804
144.888
144.988
145.106
145.246
145.411
145.603
145.827
146.086
146.384
146.725
147.114
147.566
144.4
144.4
144.4
144.4
144.4
144.4
144.4
144.4
144.401
144.401
144.401
144.402
144.402
144.403
144.404
144.406
144.408
144.41
144.414
144.418
144.423
144.429
144.437
144.446
144.457
144.471
144.487
144.507
144.531
144.56
144.594
144.635
144.685
144.744
144.814
144.898
144.997
145.114
145.252
145.413
145.601
145.819
146.071
146.36
146.689
147.061
147.48
147.948
148.47
149.059
144.4
144.4
144.4
144.4
144.401
144.401
144.401
144.401
144.402
144.403
144.404
144.405
144.407
144.409
144.412
144.415
144.42
144.426
144.432
144.441
144.451
144.463
144.477
144.494
144.515
144.54
144.569
144.605
144.647
144.698
144.758
144.829
144.913
145.012
145.129
145.266
145.425
145.61
145.824
146.071
146.352
146.672
147.034
147.44
147.891
148.391
148.94
149.539
150.191
150.91
144.4
144.401
144.401
144.401
144.402
144.402
144.403
144.404
144.406
144.408
144.411
144.414
144.418
144.423
144.429
144.436
144.445
144.456
144.469
144.484
144.503
144.525
144.551
144.582
144.618
144.662
144.714
144.776
144.848
144.934
145.034
145.151
145.288
145.447
145.63
145.842
146.085
146.361
146.675
147.027
147.422
147.861
148.346
148.878
149.456
150.082
150.755
151.474
152.241
153.07
144.402
144.402
144.403
144.404
144.405
144.407
144.41
144.413
144.416
144.421
144.426
144.433
144.441
144.451
144.463
144.477
144.493
144.513
144.536
144.564
144.597
144.635
144.681
144.735
144.798
144.873
144.96
145.062
145.18
145.318
145.478
145.662
145.872
146.113
146.386
146.695
147.041
147.428
147.857
148.329
148.846
149.409
150.016
150.668
151.364
152.102
152.88
153.699
154.559
155.474
144.405
144.407
144.409
144.412
144.415
144.419
144.425
144.431
144.439
144.448
144.459
144.471
144.487
144.505
144.526
144.551
144.58
144.615
144.656
144.704
144.76
144.826
144.903
144.993
145.097
145.218
145.358
145.519
145.704
145.915
146.156
146.427
146.733
147.075
147.456
147.877
148.34
148.845
149.394
149.985
150.619
151.295
152.012
152.768
153.561
154.389
155.252
156.146
157.076
158.054
144.414
144.418
144.423
144.429
144.437
144.445
144.455
144.468
144.482
144.499
144.518
144.541
144.568
144.6
144.637
144.68
144.731
144.79
144.859
144.94
145.033
145.141
145.265
145.408
145.572
145.759
145.972
146.213
146.485
146.79
147.129
147.506
147.921
148.377
148.873
149.41
149.988
150.607
151.266
151.964
152.699
153.47
154.276
155.113
155.981
156.878
157.802
158.752
159.73
160.751
144.435
144.444
144.453
144.465
144.479
144.495
144.513
144.535
144.56
144.589
144.624
144.664
144.71
144.764
144.827
144.9
144.984
145.081
145.193
145.322
145.469
145.637
145.827
146.043
146.287
146.56
146.865
147.204
147.579
147.99
148.44
148.929
149.457
150.024
150.63
151.275
151.956
152.673
153.425
154.209
155.024
155.869
156.741
157.639
158.561
159.507
160.474
161.462
162.474
163.524
144.477
144.492
144.51
144.531
144.555
144.583
144.615
144.652
144.696
144.746
144.804
144.871
144.948
145.037
145.139
145.256
145.39
145.542
145.715
145.91
146.13
146.378
146.654
146.961
147.301
147.675
148.084
148.531
149.014
149.535
150.093
150.688
151.32
151.987
152.688
153.422
154.187
154.982
155.805
156.655
157.529
158.427
159.347
160.288
161.248
162.227
163.223
164.236
165.27
166.339
144.553
144.58
144.61
144.646
144.687
144.734
144.788
144.851
144.923
145.005
145.1
145.208
145.331
145.47
145.629
145.808
146.009
146.235
146.487
146.767
147.078
147.42
147.795
148.204
148.648
149.128
149.644
150.195
150.781
151.402
152.056
152.743
153.461
154.209
154.986
155.789
156.618
157.47
158.346
159.242
160.158
161.093
162.046
163.016
164.001
165.002
166.017
167.046
168.094
169.173
144.683
144.729
144.78
144.84
144.908
144.985
145.074
145.175
145.289
145.419
145.566
145.731
145.917
146.125
146.358
146.616
146.902
147.217
147.563
147.94
148.351
148.794
149.272
149.784
150.329
150.908
151.52
152.164
152.838
153.542
154.275
155.034
155.819
156.629
157.461
158.315
159.189
160.082
160.994
161.922
162.867
163.827
164.802
165.79
166.791
167.805
168.832
169.871
170.926
172.011
144.901
144.975
145.059
145.155
145.263
145.385
145.523
145.678
145.851
146.046
146.262
146.502
146.768
147.06
147.381
147.732
148.113
148.525
148.97
149.447
149.956
150.497
151.07
151.674
152.309
152.972
153.663
154.382
155.126
155.894
156.686
157.499
158.333
159.186
160.058
160.947
161.853
162.774
163.71
164.66
165.623
166.598
167.586
168.586
169.597
170.619
171.651
172.695
173.754
174.84
145.251
145.367
145.498
145.645
145.809
145.992
146.195
146.421
146.669
146.943
147.244
147.571
147.928
148.314
148.73
149.176
149.653
150.161
150.7
151.268
151.866
152.492
153.145
153.825
154.531
155.261
156.014
156.788
157.584
158.399
159.233
160.084
160.952
161.836
162.735
163.647
164.574
165.513
166.464
167.427
168.402
169.387
170.382
171.388
172.404
173.429
174.464
175.509
176.567
177.651
145.787
145.962
146.155
146.369
146.604
146.863
147.146
147.455
147.791
148.154
148.546
148.966
149.415
149.894
150.401
150.938
151.502
152.094
152.713
153.358
154.028
154.722
155.438
156.177
156.936
157.715
158.512
159.328
160.16
161.007
161.87
162.747
163.638
164.542
165.458
166.386
167.325
168.275
169.236
170.206
171.187
172.177
173.176
174.184
175.2
176.226
177.26
178.303
179.359
180.44
146.344
146.569
146.816
147.085
147.379
147.697
148.042
148.413
148.81
149.236
149.689
150.169
150.677
151.212
151.774
152.361
152.974
153.611
154.271
154.954
155.659
156.384
157.128
157.891
158.672
159.47
160.283
161.112
161.955
162.811
163.681
164.563
165.457
166.363
167.279
168.206
169.142
170.089
171.045
172.01
172.984
173.966
174.957
175.957
176.964
177.979
179.002
180.033
181.073
182.124
183.199
147.34
147.644
147.973
148.327
148.706
149.111
149.541
149.999
150.482
150.991
151.525
152.084
152.667
153.274
153.904
154.556
155.229
155.922
156.634
157.365
158.113
158.878
159.658
160.454
161.264
162.088
162.925
163.775
164.636
165.509
166.392
167.286
168.191
169.104
170.028
170.96
171.901
172.851
173.809
174.775
175.75
176.732
177.721
178.718
179.723
180.734
181.753
182.779
183.814
184.859
185.927
148.286
148.649
149.036
149.449
149.885
150.347
150.833
151.343
151.877
152.434
153.014
153.616
154.239
154.882
155.545
156.227
156.928
157.645
158.379
159.128
159.893
160.672
161.464
162.27
163.088
163.918
164.759
165.611
166.474
167.346
168.229
169.121
170.022
170.931
171.849
172.776
173.71
174.652
175.602
176.56
177.525
178.497
179.476
180.462
181.455
182.454
183.461
184.474
185.494
186.522
187.56
188.619
149.827
150.27
150.736
151.225
151.736
152.27
152.825
153.402
153.998
154.615
155.251
155.905
156.576
157.265
157.969
158.69
159.424
160.173
160.936
161.711
162.499
163.299
164.11
164.931
165.764
166.606
167.458
168.319
169.19
170.069
170.956
171.852
172.756
173.667
174.586
175.513
176.446
177.387
178.335
179.29
180.251
181.219
182.194
183.175
184.162
185.156
186.156
187.162
188.174
189.194
190.224
191.273
151.659
152.172
152.705
153.259
153.832
154.424
155.034
155.662
156.307
156.969
157.646
158.338
159.045
159.765
160.499
161.246
162.005
162.775
163.557
164.35
165.152
165.965
166.788
167.62
168.46
169.31
170.168
171.034
171.908
172.789
173.679
174.575
175.479
176.39
177.307
178.232
179.163
180.1
181.044
181.994
182.951
183.913
184.882
185.856
186.837
187.823
188.815
189.813
190.817
191.828
192.849
193.888
153.736
154.305
154.892
155.496
156.117
156.753
157.405
158.071
158.751
159.444
160.151
160.87
161.601
162.344
163.098
163.862
164.637
165.421
166.215
167.018
167.831
168.651
169.481
170.318
171.163
172.016
172.876
173.744
174.618
175.5
176.388
177.283
178.185
179.093
180.007
180.927
181.854
182.786
183.725
184.669
185.619
186.575
187.537
188.504
189.476
190.454
191.438
192.427
193.422
194.423
195.433
196.461
156.003
156.616
157.243
157.885
158.54
159.208
159.889
160.582
161.286
162.002
162.729
163.466
164.214
164.971
165.737
166.513
167.297
168.09
168.891
169.701
170.518
171.342
172.175
173.014
173.86
174.713
175.573
176.44
177.313
178.192
179.078
179.97
180.867
181.771
182.68
183.596
184.516
185.443
186.375
187.312
188.255
189.203
190.156
191.114
192.078
193.047
194.021
195
195.985
196.976
197.975
198.991
158.409
159.053
159.709
160.377
161.057
161.747
162.448
163.159
163.88
164.611
165.351
166.1
166.857
167.623
168.397
169.179
169.969
170.767
171.571
172.383
173.202
174.028
174.86
175.699
176.544
177.396
178.254
179.117
179.987
180.862
181.744
182.631
183.523
184.421
185.324
186.233
187.147
188.066
188.99
189.919
190.854
191.793
192.737
193.687
194.641
195.6
196.564
197.532
198.506
199.486
200.473
201.477
160.911
161.577
162.253
162.939
163.635
164.34
165.054
165.777
166.508
167.248
167.996
168.752
169.515
170.286
171.064
171.849
172.641
173.44
174.245
175.057
175.875
176.699
177.53
178.367
179.209
180.057
180.911
181.77
182.635
183.505
184.381
185.262
186.148
187.039
187.935
188.837
189.743
190.654
191.569
192.49
193.415
194.345
195.28
196.219
197.163
198.111
199.064
200.022
200.984
201.952
202.927
203.918
164.155
164.844
165.542
166.248
166.963
167.685
168.415
169.152
169.897
170.649
171.408
172.174
172.946
173.726
174.511
175.303
176.101
176.905
177.715
178.53
179.352
180.179
181.012
181.85
182.693
183.542
184.396
185.254
186.118
186.987
187.861
188.74
189.623
190.512
191.405
192.302
193.204
194.111
195.022
195.937
196.857
197.781
198.71
199.643
200.58
201.521
202.467
203.417
204.373
205.336
206.314
166.765
167.462
168.167
168.879
169.599
170.325
171.059
171.799
172.546
173.299
174.059
174.825
175.597
176.375
177.159
177.949
178.744
179.545
180.351
181.163
181.98
182.803
183.63
184.463
185.3
186.143
186.99
187.842
188.699
189.56
190.426
191.297
192.172
193.051
193.935
194.823
195.716
196.612
197.513
198.418
199.327
200.241
201.158
202.079
203.005
203.934
204.868
205.806
206.749
207.698
208.663
169.389
170.091
170.799
171.515
172.236
172.964
173.699
174.439
175.186
175.939
176.697
177.461
178.231
179.006
179.787
180.573
181.365
182.161
182.963
183.769
184.581
185.398
186.219
187.045
187.876
188.711
189.551
190.395
191.244
192.097
192.955
193.816
194.682
195.552
196.426
197.305
198.187
199.073
199.963
200.857
201.755
202.657
203.563
204.472
205.385
206.303
207.224
208.149
209.078
210.014
210.965
172.719
173.429
174.144
174.866
175.594
176.327
177.066
177.811
178.561
179.316
180.077
180.843
181.615
182.391
183.172
183.959
184.75
185.546
186.346
187.152
187.962
188.776
189.595
190.418
191.245
192.077
192.913
193.753
194.597
195.445
196.297
197.154
198.014
198.878
199.745
200.617
201.492
202.371
203.253
204.14
205.03
205.923
206.82
207.721
208.625
209.533
210.445
211.361
212.284
213.219
175.338
176.047
176.761
177.481
178.207
178.938
179.674
180.415
181.161
181.913
182.669
183.431
184.197
184.968
185.743
186.524
187.309
188.098
188.892
189.69
190.492
191.299
192.109
192.924
193.743
194.566
195.393
196.224
197.058
197.897
198.739
199.585
200.434
201.287
202.144
203.004
203.868
204.735
205.606
206.48
207.358
208.239
209.123
210.011
210.902
211.797
212.695
213.597
214.506
215.427
177.942
178.648
179.36
180.077
180.799
181.526
182.258
182.995
183.736
184.483
185.234
185.99
186.75
187.514
188.284
189.057
189.835
190.617
191.403
192.193
192.987
193.785
194.587
195.393
196.203
197.017
197.834
198.655
199.48
200.308
201.139
201.974
202.813
203.655
204.5
205.349
206.201
207.056
207.914
208.776
209.641
210.509
211.381
212.255
213.133
214.014
214.898
215.787
216.681
217.587
180.526
181.229
181.937
182.649
183.367
184.089
184.816
185.547
186.283
187.024
187.768
188.518
189.271
190.029
190.791
191.557
192.327
193.1
193.878
194.66
195.446
196.235
197.028
197.824
198.624
199.428
200.235
201.046
201.86
202.677
203.498
204.322
205.149
205.979
206.813
207.65
208.489
209.332
210.178
211.027
211.879
212.734
213.592
214.453
215.317
216.184
217.055
217.929
218.809
219.7
183.086
183.784
184.487
185.195
185.907
186.623
187.344
188.07
188.799
189.533
190.271
191.013
191.759
192.509
193.263
194.021
194.782
195.548
196.317
197.09
197.866
198.646
199.429
200.216
201.006
201.799
202.596
203.396
204.199
205.005
205.814
206.627
207.442
208.261
209.082
209.906
210.734
211.564
212.397
213.233
214.072
214.913
215.758
216.605
217.455
218.308
219.164
220.024
220.889
221.765
185.619
186.312
187.009
187.711
188.417
189.127
189.841
190.56
191.282
192.009
192.739
193.474
194.212
194.954
195.699
196.448
197.201
197.958
198.717
199.481
200.247
201.017
201.79
202.567
203.346
204.129
204.915
205.703
206.495
207.29
208.088
208.888
209.692
210.498
211.307
212.119
212.933
213.75
214.57
215.393
216.218
217.047
217.877
218.711
219.547
220.386
221.227
222.073
222.923
223.784
188.123
188.809
189.5
190.196
190.895
191.598
192.305
193.016
193.731
194.45
195.172
195.898
196.628
197.361
198.098
198.838
199.582
200.328
201.079
201.832
202.588
203.348
204.111
204.876
205.645
206.417
207.191
207.969
208.749
209.532
210.318
211.106
211.897
212.691
213.487
214.286
215.088
215.892
216.699
217.508
218.32
219.134
219.951
220.77
221.592
222.417
223.244
224.075
224.91
225.755
191.275
191.959
192.647
193.339
194.035
194.734
195.438
196.144
196.855
197.569
198.286
199.007
199.731
200.458
201.189
201.923
202.66
203.4
204.143
204.889
205.638
206.39
207.144
207.902
208.662
209.425
210.191
210.959
211.73
212.504
213.28
214.058
214.84
215.623
216.409
217.197
217.988
218.782
219.577
220.375
221.176
221.979
222.784
223.591
224.402
225.214
226.03
226.851
227.681
193.707
194.384
195.064
195.749
196.436
197.128
197.822
198.521
199.222
199.927
200.635
201.347
202.061
202.779
203.5
204.224
204.95
205.68
206.413
207.148
207.886
208.627
209.37
210.116
210.865
211.616
212.37
213.126
213.885
214.646
215.41
216.175
216.944
217.714
218.487
219.262
220.04
220.819
221.601
222.385
223.172
223.961
224.752
225.545
226.341
227.139
227.94
228.745
229.56
196.104
196.773
197.446
198.121
198.801
199.484
200.17
200.859
201.551
202.247
202.946
203.648
204.352
205.06
205.771
206.484
207.2
207.919
208.641
209.365
210.092
210.822
211.553
212.288
213.025
213.764
214.506
215.25
215.996
216.744
217.495
218.248
219.003
219.761
220.52
221.282
222.046
222.812
223.58
224.35
225.123
225.897
226.674
227.453
228.234
229.018
229.804
230.595
231.394
199.126
199.79
200.457
201.128
201.801
202.478
203.158
203.841
204.527
205.216
205.908
206.603
207.3
208
208.703
209.409
210.117
210.827
211.54
212.256
212.974
213.694
214.416
215.141
215.868
216.598
217.329
218.063
218.799
219.537
220.277
221.019
221.763
222.509
223.257
224.008
224.76
225.514
226.27
227.029
227.789
228.552
229.316
230.083
230.852
231.623
232.399
233.183
201.441
202.096
202.755
203.416
204.081
204.748
205.418
206.092
206.768
207.447
208.128
208.813
209.499
210.189
210.881
211.575
212.272
212.971
213.673
214.377
215.083
215.791
216.502
217.215
217.929
218.646
219.365
220.086
220.809
221.534
222.261
222.99
223.721
224.453
225.188
225.925
226.663
227.404
228.146
228.89
229.636
230.385
231.135
231.887
232.641
233.398
234.159
234.927
204.364
205.013
205.665
206.32
206.978
207.639
208.302
208.968
209.636
210.307
210.981
211.657
212.336
213.017
213.7
214.385
215.073
215.763
216.455
217.149
217.846
218.544
219.244
219.947
220.651
221.357
222.066
222.776
223.488
224.201
224.917
225.635
226.354
227.075
227.798
228.523
229.249
229.977
230.708
231.44
232.173
232.909
233.647
234.386
235.129
235.875
236.628
206.592
207.232
207.875
208.52
209.168
209.818
210.471
211.127
211.785
212.445
213.108
213.773
214.441
215.11
215.782
216.456
217.132
217.811
218.491
219.173
219.857
220.543
221.231
221.921
222.613
223.306
224.002
224.699
225.398
226.098
226.801
227.505
228.21
228.918
229.627
230.338
231.051
231.765
232.481
233.199
233.919
234.64
235.363
236.088
236.816
237.547
238.286
209.411
210.044
210.679
211.317
211.957
212.6
213.245
213.892
214.542
215.193
215.847
216.504
217.162
217.822
218.485
219.149
219.815
220.484
221.154
221.826
222.499
223.175
223.852
224.531
225.212
225.895
226.579
227.264
227.952
228.641
229.331
230.024
230.718
231.413
232.11
232.809
233.51
234.212
234.916
235.621
236.328
237.037
237.748
238.461
239.177
239.901
211.55
212.173
212.798
213.425
214.055
214.687
215.321
215.958
216.596
217.237
217.88
218.525
219.172
219.82
220.471
221.123
221.778
222.434
223.092
223.752
224.413
225.076
225.741
226.407
227.075
227.744
228.416
229.088
229.762
230.438
231.115
231.794
232.475
233.157
233.84
234.525
235.212
235.9
236.59
237.281
237.974
238.669
239.365
240.064
240.765
241.474
213.648
214.261
214.875
215.492
216.112
216.733
217.356
217.982
218.609
219.239
219.87
220.504
221.139
221.776
222.415
223.056
223.698
224.342
224.988
225.635
226.284
226.934
227.587
228.24
228.895
229.552
230.21
230.87
231.531
232.193
232.857
233.523
234.189
234.858
235.528
236.199
236.872
237.546
238.222
238.899
239.578
240.259
240.941
241.625
242.312
243.006
215.706
216.308
216.912
217.519
218.127
218.737
219.35
219.964
220.581
221.199
221.819
222.441
223.065
223.69
224.317
224.946
225.576
226.208
226.841
227.476
228.113
228.751
229.39
230.031
230.673
231.317
231.962
232.609
233.257
233.906
234.557
235.209
235.862
236.517
237.174
237.831
238.49
239.151
239.813
240.476
241.141
241.808
242.476
243.146
243.819
244.498
217.723
218.314
218.908
219.504
220.101
220.701
221.302
221.906
222.511
223.118
223.726
224.336
224.948
225.562
226.177
226.794
227.412
228.032
228.653
229.276
229.9
230.525
231.152
231.78
232.41
233.041
233.673
234.307
234.942
235.578
236.215
236.854
237.494
238.136
238.779
239.423
240.068
240.715
241.363
242.013
242.664
243.317
243.971
244.627
245.286
245.951
219.699
220.28
220.863
221.448
222.034
222.623
223.213
223.805
224.399
224.995
225.592
226.191
226.791
227.393
227.996
228.601
229.207
229.815
230.424
231.034
231.646
232.259
232.873
233.489
234.105
234.724
235.343
235.964
236.586
237.209
237.833
238.459
239.086
239.714
240.343
240.974
241.606
242.239
242.874
243.51
244.148
244.786
245.427
246.069
246.714
247.364
221.634
222.205
222.777
223.351
223.927
224.504
225.083
225.664
226.247
226.831
227.417
228.004
228.592
229.182
229.774
230.367
230.961
231.556
232.153
232.751
233.351
233.951
234.553
235.156
235.76
236.366
236.972
237.58
238.189
238.799
239.411
240.023
240.637
241.252
241.868
242.486
243.105
243.725
244.346
244.968
245.592
246.217
246.844
247.472
248.103
248.74
224.089
224.65
225.213
225.778
226.345
226.913
227.482
228.054
228.626
229.2
229.776
230.353
230.931
231.511
232.092
232.674
233.257
233.842
234.428
235.015
235.603
236.193
236.783
237.375
237.968
238.562
239.157
239.753
240.351
240.949
241.549
242.15
242.752
243.355
243.959
244.564
245.171
245.779
246.388
246.999
247.61
248.223
248.838
249.455
250.078
225.932
226.483
227.035
227.589
228.145
228.702
229.26
229.82
230.381
230.944
231.508
232.073
232.64
233.208
233.777
234.347
234.919
235.491
236.065
236.64
237.216
237.793
238.371
238.95
239.531
240.112
240.695
241.278
241.863
242.449
243.035
243.623
244.212
244.803
245.394
245.986
246.58
247.175
247.771
248.368
248.966
249.566
250.167
250.771
251.379
227.736
228.276
228.817
229.36
229.905
230.45
230.998
231.546
232.096
232.648
233.2
233.754
234.309
234.865
235.422
235.981
236.54
237.101
237.662
238.225
238.789
239.354
239.92
240.487
241.055
241.624
242.194
242.765
243.337
243.91
244.484
245.059
245.636
246.213
246.791
247.371
247.952
248.533
249.116
249.7
250.285
250.872
251.46
252.05
252.645
230.029
230.559
231.091
231.625
232.16
232.696
233.233
233.772
234.312
234.853
235.395
235.938
236.483
237.028
237.575
238.123
238.672
239.221
239.772
240.324
240.877
241.43
241.985
242.541
243.098
243.655
244.214
244.773
245.334
245.896
246.458
247.022
247.587
248.152
248.719
249.287
249.856
250.426
250.997
251.569
252.143
252.717
253.295
253.876
231.742
232.262
232.783
233.306
233.83
234.355
234.881
235.408
235.937
236.466
236.997
237.529
238.062
238.596
239.131
239.667
240.204
240.742
241.281
241.821
242.362
242.903
243.446
243.99
244.534
245.079
245.626
246.173
246.721
247.271
247.821
248.372
248.924
249.477
250.032
250.587
251.143
251.7
252.258
252.818
253.378
253.94
254.505
255.073
233.417
233.926
234.436
234.948
235.461
235.975
236.49
237.006
237.523
238.042
238.561
239.082
239.603
240.126
240.649
241.174
241.699
242.225
242.752
243.28
243.809
244.339
244.87
245.401
245.934
246.467
247.002
247.537
248.073
248.61
249.148
249.687
250.226
250.767
251.309
251.852
252.395
252.94
253.486
254.033
254.58
255.13
255.681
256.236
235.053
235.551
236.051
236.552
237.054
237.557
238.061
238.566
239.072
239.579
240.088
240.597
241.107
241.618
242.13
242.643
243.157
243.671
244.187
244.703
245.221
245.739
246.257
246.777
247.298
247.819
248.342
248.865
249.389
249.914
250.44
250.966
251.494
252.023
252.552
253.082
253.614
254.146
254.68
255.214
255.749
256.286
256.825
257.367
237.139
237.628
238.118
238.609
239.101
239.594
240.088
240.584
241.08
241.577
242.075
242.574
243.074
243.574
244.076
244.578
245.081
245.585
246.09
246.596
247.102
247.61
248.118
248.627
249.136
249.647
250.158
250.67
251.183
251.697
252.212
252.728
253.244
253.762
254.28
254.799
255.319
255.84
256.363
256.886
257.41
257.936
258.466
238.689
239.167
239.646
240.127
240.608
241.091
241.574
242.058
242.544
243.03
243.517
244.005
244.493
244.983
245.473
245.964
246.456
246.949
247.442
247.936
248.431
248.927
249.424
249.921
250.419
250.918
251.417
251.918
252.419
252.921
253.424
253.928
254.433
254.938
255.445
255.952
256.46
256.969
257.479
257.99
258.502
259.016
259.534
240.202
240.67
241.138
241.608
242.079
242.551
243.023
243.497
243.971
244.447
244.923
245.4
245.877
246.356
246.835
247.315
247.796